/*--------------------------------*- C++ -*----------------------------------*\
| =========                 |                                                 |
| \\      /  F ield         | OpenFOAM: The Open Source CFD Toolbox           |
|  \\    /   O peration     | Version:  4.1                                   |
|   \\  /    A nd           | Web:      www.OpenFOAM.org                      |
|    \\/     M anipulation  |                                                 |
\*---------------------------------------------------------------------------*/
FoamFile
{
    version     2.0;
    format      ascii;
    class       volScalarField;
    location    "1500";
    object      k;
}
// * * * * * * * * * * * * * * * * * * * * * * * * * * * * * * * * * * * * * //

dimensions      [0 2 -2 0 0 0 0];

internalField   nonuniform List<scalar> 
6820
(
0.257082
0.434211
0.59852
0.709382
0.778145
0.818049
0.838547
0.845896
0.844371
0.836963
0.825767
0.812247
0.797426
0.782015
0.766498
0.751201
0.736336
0.722036
0.708378
0.6954
0.683115
0.671515
0.660583
0.650294
0.640616
0.631518
0.622964
0.614924
0.607339
0.600295
0.593189
0.588696
0.574468
0.811277
1.44613
1.51874
1.38792
1.22323
1.07762
0.95922
0.864569
0.788642
0.727157
0.676842
0.635256
0.600578
0.571431
0.546763
0.525758
0.507776
0.49231
0.478954
0.467377
0.45731
0.448532
0.440859
0.434138
0.428241
0.423059
0.418502
0.414494
0.410968
0.407891
0.405164
0.402958
0.400711
0.368869
0.66416
0.797428
0.829397
0.816589
0.786286
0.750411
0.713991
0.679045
0.646311
0.616001
0.588103
0.562514
0.539088
0.517663
0.498078
0.480173
0.4638
0.44882
0.435107
0.422543
0.411025
0.400456
0.390751
0.381831
0.373626
0.366073
0.359115
0.352701
0.346788
0.341329
0.336304
0.331654
0.240027
0.336287
0.412169
0.460222
0.487105
0.500012
0.504037
0.502509
0.497533
0.490424
0.482012
0.472847
0.463295
0.453611
0.443967
0.434484
0.425242
0.416295
0.407676
0.399404
0.39149
0.383933
0.376731
0.369875
0.363356
0.357161
0.351278
0.345693
0.340393
0.335363
0.330591
0.326066
0.321766
0.214145
0.250649
0.284542
0.31208
0.332947
0.348027
0.358469
0.365345
0.369529
0.371681
0.372296
0.371745
0.370308
0.368203
0.365595
0.362617
0.359369
0.355934
0.352375
0.348743
0.345078
0.341412
0.33777
0.334171
0.330629
0.327158
0.323765
0.320456
0.317237
0.31411
0.311077
0.30814
0.305299
0.20564
0.221937
0.238617
0.25366
0.26644
0.276904
0.285273
0.29185
0.296935
0.300784
0.303614
0.305602
0.306896
0.307616
0.307861
0.307715
0.307247
0.306514
0.305564
0.304439
0.303172
0.301793
0.300325
0.29879
0.297204
0.295583
0.293939
0.292283
0.290623
0.288967
0.287321
0.285691
0.284083
0.202357
0.210378
0.219404
0.228106
0.235957
0.242783
0.248605
0.253515
0.257621
0.261027
0.263824
0.266097
0.267914
0.269339
0.270426
0.271218
0.271758
0.272079
0.272212
0.272183
0.272013
0.271725
0.271333
0.270855
0.270303
0.26969
0.269024
0.268315
0.267572
0.2668
0.266007
0.265198
0.264378
0.201008
0.2051
0.210232
0.215526
0.22054
0.225078
0.229098
0.232622
0.235689
0.238346
0.240635
0.242597
0.244268
0.245681
0.246866
0.247847
0.248648
0.249289
0.249788
0.250162
0.250425
0.25059
0.250668
0.250669
0.250602
0.250476
0.250298
0.250075
0.249811
0.249514
0.249188
0.248837
0.248465
0.200424
0.202508
0.205459
0.208754
0.21204
0.21513
0.217953
0.220495
0.222768
0.224789
0.22658
0.228159
0.229548
0.230765
0.231826
0.232746
0.23354
0.23422
0.234797
0.235281
0.235681
0.236006
0.236263
0.236459
0.2366
0.236691
0.236739
0.236747
0.236719
0.236661
0.236574
0.236463
0.236332
0.200163
0.201193
0.202864
0.204904
0.207067
0.20919
0.211193
0.213044
0.214736
0.216272
0.217659
0.218908
0.220029
0.221031
0.221926
0.222722
0.223428
0.224051
0.224599
0.225079
0.225496
0.225856
0.226165
0.226425
0.226643
0.226822
0.226965
0.227076
0.227158
0.227213
0.227245
0.227255
0.227247
0.200044
0.20052
0.201431
0.202661
0.20406
0.205505
0.206921
0.208268
0.209528
0.210694
0.211766
0.212747
0.213641
0.214454
0.215192
0.215859
0.21646
0.217002
0.217488
0.217924
0.218312
0.218657
0.218963
0.219232
0.219467
0.219672
0.219848
0.219999
0.220126
0.220232
0.220318
0.220387
0.22044
0.199989
0.200177
0.20064
0.201347
0.20222
0.203178
0.204159
0.205125
0.206054
0.206932
0.207754
0.208519
0.209227
0.209879
0.210478
0.211028
0.21153
0.211989
0.212406
0.212786
0.21313
0.213441
0.213722
0.213975
0.214201
0.214404
0.214584
0.214744
0.214885
0.215009
0.215117
0.21521
0.215291
0.199965
0.200004
0.200209
0.200585
0.201099
0.201706
0.202361
0.203034
0.203702
0.204351
0.204971
0.205559
0.206111
0.206627
0.207107
0.207553
0.207966
0.208347
0.208698
0.209021
0.209317
0.209589
0.209837
0.210063
0.21027
0.210457
0.210627
0.210781
0.21092
0.211046
0.211158
0.211259
0.211349
0.199954
0.199918
0.199979
0.20015
0.200426
0.200784
0.201198
0.201645
0.202107
0.20257
0.203025
0.203465
0.203886
0.204286
0.204664
0.205019
0.205352
0.205662
0.205951
0.20622
0.206469
0.2067
0.206913
0.20711
0.207291
0.207458
0.207611
0.207752
0.207881
0.207999
0.208108
0.208206
0.208296
0.199949
0.199877
0.199858
0.199908
0.20003
0.200217
0.200456
0.200733
0.201034
0.201348
0.201667
0.201984
0.202294
0.202594
0.202883
0.203158
0.203419
0.203665
0.203898
0.204116
0.204321
0.204512
0.20469
0.204857
0.205011
0.205155
0.205289
0.205413
0.205528
0.205634
0.205733
0.205824
0.205909
0.199947
0.199857
0.199796
0.199776
0.199803
0.199877
0.199994
0.200145
0.200323
0.20052
0.200729
0.200944
0.20116
0.201375
0.201586
0.201791
0.201988
0.202178
0.202358
0.20253
0.202693
0.202846
0.202991
0.203127
0.203256
0.203376
0.203488
0.203594
0.203693
0.203785
0.203872
0.203953
0.204029
0.199947
0.199847
0.199764
0.199706
0.199676
0.199679
0.199713
0.199776
0.199863
0.19997
0.200092
0.200224
0.200363
0.200506
0.200651
0.200794
0.200936
0.201074
0.201208
0.201337
0.201461
0.201579
0.201692
0.2018
0.201902
0.201999
0.202091
0.202177
0.202259
0.202337
0.20241
0.202479
0.202545
0.199946
0.199843
0.199749
0.199669
0.199608
0.199567
0.199548
0.19955
0.199573
0.199614
0.199669
0.199737
0.199814
0.199898
0.199986
0.200078
0.20017
0.200264
0.200356
0.200447
0.200536
0.200622
0.200705
0.200786
0.200864
0.200938
0.201009
0.201077
0.201142
0.201205
0.201264
0.201321
0.201375
0.199946
0.199841
0.199742
0.199651
0.199571
0.199505
0.199453
0.199417
0.199396
0.199389
0.199396
0.199415
0.199444
0.19948
0.199523
0.199572
0.199624
0.199678
0.199735
0.199792
0.199849
0.199907
0.199964
0.20002
0.200074
0.200128
0.20018
0.20023
0.200279
0.200326
0.200372
0.200417
0.200459
0.199946
0.19984
0.199739
0.199642
0.199553
0.199471
0.1994
0.19934
0.19929
0.199252
0.199225
0.199209
0.199201
0.199202
0.199209
0.199223
0.199242
0.199265
0.199291
0.19932
0.199351
0.199383
0.199416
0.19945
0.199485
0.199519
0.199554
0.199588
0.199622
0.199655
0.199688
0.199721
0.199753
0.199946
0.19984
0.199737
0.199638
0.199543
0.199454
0.199372
0.199297
0.19923
0.199172
0.199122
0.199081
0.199048
0.199022
0.199003
0.198991
0.198984
0.198982
0.198984
0.198989
0.198998
0.19901
0.199023
0.199039
0.199056
0.199074
0.199093
0.199113
0.199134
0.199156
0.199177
0.199199
0.199221
0.199946
0.19984
0.199736
0.199635
0.199538
0.199445
0.199356
0.199273
0.199196
0.199125
0.199061
0.199004
0.198954
0.198911
0.198873
0.198842
0.198817
0.198796
0.19878
0.198768
0.19876
0.198755
0.198753
0.198754
0.198757
0.198763
0.19877
0.198778
0.198788
0.198799
0.198812
0.198825
0.198839
0.199946
0.19984
0.199736
0.199634
0.199536
0.19944
0.199349
0.199261
0.199178
0.1991
0.199028
0.198962
0.198901
0.198846
0.198798
0.198754
0.198716
0.198683
0.198655
0.198631
0.198611
0.198595
0.198583
0.198573
0.198567
0.198562
0.198561
0.198561
0.198563
0.198567
0.198572
0.198578
0.198586
0.199946
0.19984
0.199735
0.199634
0.199534
0.199438
0.199345
0.199255
0.19917
0.199089
0.199013
0.198942
0.198876
0.198816
0.198761
0.198711
0.198667
0.198628
0.198593
0.198563
0.198537
0.198514
0.198496
0.198481
0.198468
0.198459
0.198452
0.198447
0.198445
0.198444
0.198446
0.198448
0.198453
0.199946
0.19984
0.199735
0.199633
0.199534
0.199437
0.199344
0.199254
0.199168
0.199087
0.19901
0.198939
0.198873
0.198812
0.198756
0.198706
0.198661
0.198621
0.198586
0.198554
0.198528
0.198505
0.198485
0.198469
0.198456
0.198446
0.198438
0.198433
0.198429
0.198428
0.198428
0.19843
0.198433
0.199946
0.19984
0.199735
0.199634
0.199534
0.199438
0.199346
0.199257
0.199174
0.199095
0.199022
0.198954
0.198892
0.198836
0.198785
0.19874
0.1987
0.198665
0.198635
0.198609
0.198587
0.198569
0.198554
0.198542
0.198533
0.198527
0.198523
0.198521
0.19852
0.198522
0.198524
0.198529
0.198534
0.199946
0.19984
0.199736
0.199635
0.199537
0.199442
0.199353
0.199269
0.19919
0.199118
0.199053
0.198995
0.198943
0.198898
0.198858
0.198825
0.198797
0.198774
0.198756
0.198741
0.19873
0.198723
0.198718
0.198716
0.198716
0.198718
0.198722
0.198728
0.198734
0.198742
0.19875
0.19876
0.19877
0.199946
0.19984
0.199737
0.199637
0.199542
0.199453
0.19937
0.199295
0.199228
0.19917
0.199121
0.199079
0.199046
0.19902
0.199001
0.198988
0.19898
0.198977
0.198978
0.198982
0.198989
0.198998
0.19901
0.199023
0.199037
0.199052
0.199068
0.199085
0.199102
0.199119
0.199136
0.199153
0.199171
0.199946
0.199841
0.19974
0.199645
0.199557
0.199478
0.19941
0.199354
0.199309
0.199277
0.199255
0.199244
0.199241
0.199247
0.199259
0.199277
0.199299
0.199325
0.199353
0.199384
0.199416
0.199448
0.199481
0.199514
0.199547
0.199579
0.199611
0.199642
0.199672
0.199701
0.199729
0.199756
0.199782
0.199947
0.199844
0.199749
0.199664
0.199592
0.199537
0.199499
0.19948
0.199477
0.199489
0.199515
0.199553
0.199599
0.199652
0.19971
0.199772
0.199836
0.199901
0.199965
0.20003
0.200092
0.200154
0.200213
0.20027
0.200324
0.200376
0.200426
0.200473
0.200518
0.20056
0.200599
0.200637
0.200672
0.199948
0.199852
0.19977
0.199711
0.199677
0.199673
0.199697
0.199746
0.199818
0.199907
0.20001
0.200122
0.200239
0.20036
0.20048
0.2006
0.200717
0.20083
0.200939
0.201043
0.201141
0.201234
0.201322
0.201405
0.201482
0.201554
0.201622
0.201685
0.201743
0.201797
0.201848
0.201894
0.201937
0.199951
0.199872
0.199828
0.199831
0.199884
0.199985
0.200128
0.200302
0.200499
0.20071
0.200928
0.201146
0.201361
0.201569
0.201768
0.201958
0.202136
0.202304
0.20246
0.202605
0.20274
0.202865
0.20298
0.203087
0.203184
0.203274
0.203356
0.203431
0.2035
0.203563
0.203619
0.203671
0.203718
0.19996
0.199932
0.199988
0.200141
0.200383
0.200695
0.201055
0.20144
0.201833
0.202222
0.202597
0.202954
0.203288
0.203598
0.203885
0.204149
0.20439
0.204611
0.204811
0.204994
0.205159
0.205309
0.205445
0.205567
0.205677
0.205777
0.205866
0.205946
0.206017
0.20608
0.206137
0.206186
0.20623
0.19999
0.200113
0.200438
0.200945
0.201582
0.202288
0.203012
0.20372
0.20439
0.205011
0.205578
0.206091
0.206552
0.206965
0.207333
0.207661
0.207953
0.208212
0.208442
0.208646
0.208826
0.208985
0.209126
0.209249
0.209357
0.209451
0.209533
0.209603
0.209664
0.209715
0.209757
0.209792
0.20982
0.200097
0.200698
0.201729
0.20303
0.20443
0.205804
0.207078
0.208222
0.209229
0.210107
0.210866
0.211521
0.212084
0.212568
0.212984
0.213341
0.213647
0.21391
0.214135
0.214327
0.21449
0.214628
0.214743
0.214839
0.214917
0.214979
0.215028
0.215064
0.215089
0.215104
0.215111
0.215109
0.2151
0.200521
0.202675
0.205525
0.20847
0.211189
0.21355
0.215527
0.217152
0.218476
0.219552
0.220424
0.221131
0.221704
0.222168
0.222543
0.222845
0.223086
0.223277
0.223425
0.223537
0.223617
0.223671
0.223702
0.223713
0.223707
0.223684
0.223649
0.223601
0.223542
0.223475
0.223398
0.223315
0.223225
0.202177
0.209422
0.217079
0.223316
0.228003
0.231437
0.233925
0.235719
0.23701
0.237936
0.238593
0.239054
0.239367
0.239569
0.239685
0.239733
0.239727
0.239676
0.239588
0.239469
0.239324
0.239157
0.238971
0.238768
0.23855
0.23832
0.23808
0.23783
0.237573
0.237308
0.237039
0.236764
0.236486
0.208503
0.227596
0.245316
0.25869
0.267554
0.272837
0.275658
0.27695
0.277338
0.277195
0.276744
0.276116
0.275385
0.274596
0.273774
0.272932
0.27208
0.271221
0.270359
0.269495
0.268631
0.267768
0.266908
0.266051
0.265198
0.264351
0.263511
0.262678
0.261853
0.261037
0.260232
0.259437
0.258653
0.248308
0.315061
0.34816
0.362157
0.367118
0.367958
0.366701
0.364185
0.360865
0.357053
0.352965
0.348753
0.344525
0.340356
0.336297
0.332383
0.328633
0.32506
0.321669
0.318461
0.315432
0.312577
0.309891
0.307366
0.304994
0.302768
0.30068
0.298722
0.296886
0.295167
0.293555
0.292046
0.290632
0.205354
0.221127
0.238043
0.254121
0.268995
0.282971
0.296258
0.308938
0.321054
0.332632
0.343696
0.354264
0.36435
0.373971
0.38314
0.391874
0.400187
0.408094
0.415611
0.422753
0.429535
0.435971
0.442078
0.447869
0.453358
0.45856
0.463488
0.468156
0.472575
0.476758
0.480716
0.484461
0.488009
0.618299
0.69443
0.816662
0.96613
1.1313
1.29982
1.46295
1.61359
1.74591
1.85587
1.94197
2.00524
2.04868
2.07631
2.09225
2.10005
2.10242
2.10118
2.09745
2.09187
2.0848
2.07648
2.06712
2.05689
2.04594
2.03438
2.02226
2.00956
1.99622
1.98215
1.96719
1.95122
1.93406
1.91555
1.89553
1.87387
1.85043
1.8251
1.7978
1.76848
1.73711
1.70371
1.66834
1.63107
1.59204
1.55141
1.5094
1.46625
1.42223
1.37766
1.33286
1.28818
1.24397
1.20059
1.15838
1.11768
1.07879
1.04198
1.00749
0.975512
0.946199
0.919661
0.895964
0.875134
0.85716
0.842001
0.829582
0.819808
0.812562
0.80771
0.805106
0.804595
0.806014
0.809195
0.813964
0.820147
0.827566
0.836039
0.845387
0.855428
0.865983
0.876872
0.887921
0.898963
0.909836
0.92039
0.930486
0.939997
0.948811
0.956829
0.963965
0.970147
0.975318
0.979423
0.982445
0.984319
0.985146
0.984671
0.98371
0.980448
0.399207
0.404198
0.417506
0.441622
0.477222
0.524783
0.5842
0.654777
0.735204
0.823619
0.917638
1.01443
1.11089
1.20388
1.29056
1.36867
1.43672
1.49407
1.54089
1.57792
1.60627
1.62718
1.64185
1.65133
1.6565
1.65802
1.65644
1.65214
1.64543
1.63653
1.6256
1.61275
1.59804
1.58153
1.56322
1.54313
1.52127
1.49764
1.47226
1.44516
1.41642
1.38609
1.35428
1.32113
1.28678
1.25142
1.21527
1.17856
1.14154
1.10448
1.06766
1.03138
0.9959
0.961512
0.928469
0.897013
0.867354
0.839679
0.814136
0.790844
0.769887
0.751314
0.735148
0.72138
0.709979
0.700892
0.694049
0.689364
0.68674
0.686071
0.687244
0.69014
0.694635
0.700602
0.707911
0.716427
0.726013
0.736526
0.747821
0.759748
0.772156
0.78489
0.797796
0.810721
0.823518
0.836042
0.84816
0.859746
0.870686
0.880876
0.890226
0.898655
0.906099
0.912493
0.917812
0.921984
0.925093
0.92691
0.928066
0.927853
0.326708
0.321613
0.317088
0.313616
0.31192
0.312761
0.316667
0.324284
0.336493
0.354172
0.378147
0.409096
0.447424
0.493122
0.545662
0.603946
0.666348
0.730853
0.795279
0.857522
0.91578
0.968702
1.01545
1.05566
1.08937
1.11689
1.13867
1.15525
1.16716
1.17488
1.17884
1.17941
1.17689
1.17155
1.16362
1.15328
1.1407
1.12604
1.10946
1.09108
1.07106
1.04954
1.0267
1.0027
0.977722
0.95197
0.925652
0.898987
0.872201
0.845526
0.819193
0.793427
0.768447
0.744457
0.721647
0.700184
0.680213
0.661855
0.645205
0.630333
0.617287
0.606091
0.596748
0.589245
0.583554
0.579634
0.577435
0.576896
0.577953
0.580534
0.584564
0.589965
0.596655
0.60455
0.61356
0.623592
0.634548
0.646323
0.658808
0.671884
0.685429
0.699315
0.713408
0.727575
0.74168
0.755589
0.769175
0.782315
0.794892
0.806801
0.817945
0.828237
0.837602
0.845969
0.853298
0.859515
0.86468
0.868589
0.871694
0.874323
0.317034
0.311838
0.306763
0.301844
0.297174
0.292876
0.289096
0.285976
0.283653
0.282369
0.282429
0.284203
0.288113
0.294624
0.304206
0.317292
0.334217
0.355152
0.380047
0.40859
0.440205
0.474079
0.50924
0.544645
0.579276
0.612231
0.642779
0.670385
0.69471
0.715588
0.732986
0.746976
0.757692
0.765306
0.770013
0.772012
0.771503
0.768682
0.763742
0.75687
0.748255
0.738082
0.726537
0.713811
0.700093
0.685579
0.670464
0.654944
0.639215
0.623468
0.607889
0.592657
0.577938
0.563886
0.55064
0.538322
0.527035
0.516866
0.507883
0.500136
0.493661
0.488478
0.484597
0.482014
0.480718
0.480692
0.48191
0.484343
0.487959
0.492722
0.498591
0.505528
0.513486
0.522419
0.532275
0.542997
0.554523
0.566783
0.579699
0.593185
0.607146
0.621481
0.636078
0.650822
0.665593
0.680271
0.694733
0.708863
0.722544
0.735669
0.748137
0.759853
0.770735
0.780702
0.789704
0.797657
0.804601
0.810353
0.815191
0.820395
0.302101
0.298521
0.294967
0.291428
0.287905
0.284416
0.280994
0.277677
0.274506
0.271525
0.268797
0.2664
0.26443
0.263008
0.262279
0.262414
0.263601
0.266042
0.269938
0.275466
0.282762
0.291898
0.302857
0.315529
0.329702
0.345076
0.361278
0.377893
0.394496
0.410674
0.426058
0.440335
0.453257
0.464647
0.474388
0.482424
0.488743
0.493376
0.496381
0.497843
0.497864
0.49656
0.494059
0.490496
0.486014
0.480758
0.474876
0.468517
0.461829
0.454955
0.448035
0.441202
0.434579
0.42828
0.422408
0.417056
0.412303
0.408217
0.404853
0.402257
0.400464
0.399501
0.399385
0.40013
0.401741
0.40422
0.407567
0.411775
0.416839
0.42275
0.429495
0.437063
0.445438
0.454603
0.464534
0.475205
0.486583
0.498627
0.511288
0.524509
0.538222
0.552349
0.566803
0.581488
0.596302
0.611138
0.625885
0.640431
0.654665
0.66848
0.681771
0.694439
0.706394
0.717549
0.72784
0.737178
0.745578
0.75288
0.759196
0.766649
0.282232
0.280117
0.277974
0.275797
0.273576
0.271314
0.269021
0.26671
0.264397
0.262099
0.259835
0.257625
0.255493
0.253469
0.251589
0.249897
0.248444
0.247292
0.246513
0.246184
0.246387
0.247202
0.248705
0.250954
0.25399
0.257823
0.262432
0.267761
0.273719
0.280186
0.287017
0.294052
0.301123
0.308069
0.314736
0.32099
0.326718
0.331834
0.336274
0.340002
0.343004
0.345286
0.346875
0.347813
0.348155
0.347967
0.347323
0.346304
0.344993
0.343476
0.34184
0.340168
0.338541
0.337035
0.335722
0.334667
0.333929
0.333559
0.333603
0.334101
0.335086
0.336586
0.338625
0.341222
0.344394
0.348154
0.352514
0.357483
0.363071
0.369283
0.376128
0.383609
0.391731
0.400495
0.409899
0.41994
0.430606
0.441879
0.453737
0.466144
0.479057
0.492423
0.506177
0.520244
0.534541
0.548977
0.563454
0.57787
0.592123
0.606106
0.619717
0.632854
0.645422
0.657328
0.668498
0.678837
0.688338
0.696859
0.704362
0.713686
0.26341
0.262273
0.261093
0.259864
0.258581
0.257242
0.255849
0.254408
0.252928
0.251417
0.249884
0.248337
0.246785
0.245239
0.243708
0.242205
0.240745
0.239346
0.238031
0.236823
0.235754
0.234856
0.234164
0.233714
0.233541
0.233676
0.234146
0.234967
0.236145
0.237676
0.23954
0.241708
0.244137
0.246774
0.249563
0.252439
0.255342
0.258209
0.260985
0.263623
0.266084
0.268338
0.270368
0.272165
0.273733
0.275082
0.276232
0.277212
0.278053
0.278794
0.279474
0.280137
0.280826
0.281584
0.282452
0.283472
0.284681
0.286114
0.287804
0.289778
0.292065
0.294687
0.297665
0.301019
0.304767
0.308923
0.313504
0.318524
0.323998
0.32994
0.336363
0.343284
0.350715
0.358669
0.367159
0.376194
0.385778
0.395913
0.406592
0.417802
0.42952
0.441714
0.454342
0.46735
0.480675
0.494244
0.507975
0.521781
0.535567
0.549237
0.562691
0.575831
0.588559
0.600779
0.612409
0.623351
0.633577
0.642962
0.651338
0.662117
0.248007
0.247449
0.246849
0.246204
0.245509
0.244761
0.243961
0.243112
0.242218
0.241282
0.240312
0.23931
0.238283
0.237235
0.23617
0.235093
0.234008
0.232923
0.231844
0.230779
0.22974
0.228739
0.22779
0.226908
0.226113
0.225421
0.22485
0.224419
0.224141
0.22403
0.224094
0.224336
0.224756
0.225348
0.2261
0.226999
0.228026
0.229159
0.230376
0.231656
0.232976
0.234319
0.235667
0.23701
0.238338
0.239648
0.240942
0.242224
0.243504
0.244794
0.246111
0.247472
0.248897
0.250407
0.252025
0.253771
0.255666
0.257732
0.259987
0.26245
0.265138
0.268066
0.271251
0.274706
0.278445
0.282481
0.286827
0.291499
0.296508
0.301872
0.307607
0.313729
0.320256
0.327207
0.3346
0.342452
0.35078
0.359594
0.368902
0.378707
0.389004
0.399778
0.411008
0.422659
0.434689
0.447044
0.459662
0.472469
0.485388
0.498332
0.51121
0.52393
0.536398
0.548516
0.560202
0.571353
0.581928
0.591815
0.600738
0.612529
0.236153
0.235917
0.235646
0.235338
0.234989
0.234597
0.234161
0.233682
0.233162
0.232604
0.232011
0.231386
0.230732
0.230053
0.22935
0.228627
0.227884
0.227126
0.226354
0.225573
0.224785
0.223996
0.223212
0.22244
0.221688
0.220964
0.22028
0.219645
0.21907
0.218566
0.218142
0.217807
0.217569
0.217433
0.217404
0.217481
0.217666
0.217955
0.218345
0.218831
0.219407
0.220067
0.220805
0.221617
0.222498
0.223447
0.224462
0.225545
0.226698
0.227927
0.229237
0.230636
0.232133
0.233739
0.235462
0.237315
0.239307
0.241449
0.243752
0.246225
0.248878
0.25172
0.254759
0.258004
0.261463
0.265146
0.269061
0.273221
0.277635
0.282317
0.287282
0.292546
0.298127
0.304046
0.310321
0.316974
0.324025
0.331494
0.339397
0.347746
0.35655
0.36581
0.375519
0.385662
0.396215
0.407144
0.418405
0.429943
0.441696
0.453594
0.465558
0.477505
0.489349
0.500998
0.512369
0.523363
0.533926
0.543961
0.55311
0.565466
0.227215
0.227153
0.227063
0.226944
0.226793
0.226608
0.226388
0.226134
0.225845
0.225525
0.225174
0.224794
0.224389
0.223961
0.22351
0.223039
0.222549
0.222042
0.221519
0.220981
0.220431
0.21987
0.219301
0.218727
0.218152
0.217582
0.21702
0.216473
0.215947
0.21545
0.214989
0.21457
0.214202
0.21389
0.213643
0.213464
0.213359
0.213332
0.213387
0.213526
0.21375
0.214062
0.214461
0.214949
0.215528
0.216197
0.216959
0.217816
0.218769
0.219823
0.220981
0.222248
0.223628
0.225125
0.226745
0.228494
0.230376
0.232395
0.234557
0.236866
0.239325
0.241939
0.24471
0.247643
0.250742
0.254011
0.257456
0.261083
0.264901
0.268919
0.273149
0.277605
0.282304
0.287262
0.292501
0.29804
0.303902
0.31011
0.316684
0.323643
0.331003
0.338778
0.346971
0.355584
0.364608
0.374025
0.38381
0.393927
0.404331
0.414968
0.425775
0.436684
0.447617
0.458495
0.469238
0.479753
0.48998
0.499838
0.508909
0.521399
0.220482
0.220511
0.220518
0.220503
0.220463
0.220398
0.220305
0.220184
0.220037
0.219863
0.219665
0.219444
0.219201
0.218938
0.218656
0.218358
0.218044
0.217715
0.217372
0.217017
0.21665
0.216272
0.215885
0.21549
0.21509
0.214687
0.214284
0.213883
0.213491
0.213109
0.212744
0.212401
0.212086
0.211803
0.21156
0.211361
0.211213
0.211121
0.21109
0.211126
0.211233
0.211416
0.211678
0.212023
0.212456
0.212979
0.213596
0.214311
0.215127
0.216047
0.217075
0.218213
0.219465
0.220834
0.222323
0.223933
0.225667
0.227526
0.229512
0.231624
0.233864
0.236232
0.238726
0.241349
0.244099
0.246978
0.249989
0.253133
0.256417
0.259846
0.26343
0.267178
0.271105
0.275226
0.279558
0.284121
0.288936
0.294025
0.299411
0.305116
0.311161
0.317564
0.32434
0.331497
0.339042
0.346969
0.355269
0.363923
0.372902
0.382169
0.391679
0.401376
0.411201
0.421084
0.430955
0.440731
0.450352
0.459748
0.468475
0.480701
0.215369
0.215443
0.2155
0.215541
0.215562
0.215564
0.215545
0.215504
0.215442
0.21536
0.215257
0.215136
0.214998
0.214845
0.214676
0.214495
0.214301
0.214096
0.21388
0.213655
0.213422
0.21318
0.212932
0.212678
0.212419
0.212157
0.211894
0.211632
0.211373
0.211121
0.210878
0.210649
0.210438
0.210249
0.210086
0.209956
0.209862
0.209811
0.209808
0.209857
0.209965
0.210137
0.210378
0.210692
0.211085
0.211561
0.212124
0.212779
0.21353
0.21438
0.215332
0.216389
0.217554
0.218829
0.220214
0.221711
0.22332
0.22504
0.226871
0.228811
0.230858
0.233009
0.235262
0.237614
0.240064
0.242609
0.245249
0.247984
0.250817
0.253751
0.256791
0.259945
0.263225
0.266641
0.27021
0.273948
0.277874
0.28201
0.286376
0.290995
0.29589
0.301082
0.30659
0.31243
0.318614
0.32515
0.33204
0.339276
0.346846
0.354728
0.362893
0.371301
0.379907
0.388655
0.397489
0.406337
0.415143
0.423852
0.432013
0.443634
0.211442
0.211535
0.211616
0.211684
0.211738
0.211777
0.2118
0.211806
0.211795
0.211769
0.211727
0.21167
0.211601
0.211519
0.211426
0.211323
0.211211
0.211091
0.210964
0.210832
0.210694
0.210551
0.210405
0.210256
0.210105
0.209953
0.209802
0.209654
0.209509
0.209371
0.209241
0.209123
0.209019
0.208934
0.20887
0.208833
0.208826
0.208854
0.208922
0.209034
0.209197
0.209414
0.209692
0.210035
0.210449
0.210937
0.211504
0.212156
0.212895
0.213726
0.21465
0.215672
0.216792
0.218012
0.219332
0.220753
0.222273
0.223891
0.225603
0.227408
0.229301
0.231278
0.233335
0.235468
0.237672
0.239944
0.242281
0.244682
0.247145
0.249673
0.252268
0.254936
0.257685
0.260524
0.263465
0.266522
0.269713
0.273055
0.276568
0.280274
0.284193
0.288349
0.292762
0.297451
0.302434
0.307723
0.31333
0.319257
0.325502
0.332058
0.338907
0.346026
0.353382
0.360937
0.368646
0.376451
0.384303
0.392161
0.39959
0.410334
0.208391
0.20849
0.20858
0.208659
0.208728
0.208786
0.208831
0.208864
0.208884
0.208891
0.208887
0.208872
0.208846
0.208811
0.208769
0.208719
0.208663
0.208602
0.208538
0.20847
0.2084
0.208329
0.208257
0.208185
0.208115
0.208047
0.207983
0.207923
0.20787
0.207825
0.207789
0.207766
0.207758
0.207768
0.207798
0.207853
0.207936
0.20805
0.208201
0.208392
0.208628
0.208914
0.209254
0.209654
0.210117
0.210649
0.211253
0.211934
0.212694
0.213539
0.214469
0.215487
0.216595
0.217793
0.21908
0.220457
0.22192
0.223468
0.225096
0.226802
0.228578
0.230422
0.232326
0.234286
0.236295
0.238349
0.240443
0.242575
0.244741
0.246941
0.249178
0.251453
0.253772
0.256142
0.258574
0.261078
0.263669
0.266362
0.269174
0.272126
0.275236
0.278526
0.282016
0.285727
0.289678
0.293886
0.298365
0.303126
0.308174
0.313511
0.319131
0.325023
0.331167
0.337536
0.3441
0.350816
0.357642
0.364552
0.371141
0.38081
0.205999
0.206095
0.206184
0.206266
0.20634
0.206405
0.206461
0.206508
0.206545
0.206573
0.206592
0.206602
0.206605
0.206601
0.206592
0.206578
0.206561
0.206541
0.20652
0.206498
0.206476
0.206456
0.206438
0.206424
0.206413
0.206408
0.206409
0.206418
0.206435
0.206464
0.206504
0.206559
0.206631
0.206721
0.206833
0.206969
0.207134
0.207329
0.20756
0.207829
0.208141
0.208499
0.208909
0.209375
0.209899
0.210487
0.211142
0.211868
0.212668
0.213545
0.2145
0.215535
0.216652
0.217849
0.219126
0.220481
0.221912
0.223416
0.224987
0.226621
0.228313
0.230055
0.231842
0.233667
0.235523
0.237404
0.239305
0.241222
0.24315
0.245089
0.247037
0.248996
0.25097
0.252964
0.254985
0.257042
0.259148
0.261316
0.26356
0.265896
0.268344
0.270922
0.273649
0.276545
0.27963
0.282921
0.286435
0.290186
0.294185
0.29844
0.302952
0.30772
0.312734
0.31798
0.323436
0.329074
0.334863
0.340786
0.346481
0.354958
0.204111
0.204199
0.204283
0.204361
0.204433
0.2045
0.204559
0.204612
0.204657
0.204696
0.204728
0.204755
0.204776
0.204792
0.204805
0.204815
0.204824
0.204832
0.204841
0.204852
0.204865
0.204881
0.204902
0.204929
0.204963
0.205004
0.205055
0.205115
0.205187
0.205273
0.205373
0.20549
0.205625
0.205781
0.205961
0.206166
0.206401
0.206667
0.206968
0.207308
0.20769
0.208117
0.208594
0.209124
0.20971
0.210357
0.211067
0.211844
0.212689
0.213606
0.214595
0.215657
0.216793
0.218002
0.219282
0.220631
0.222046
0.223522
0.225056
0.22664
0.228268
0.229934
0.231631
0.23335
0.235086
0.23683
0.238577
0.240322
0.24206
0.243788
0.245504
0.24721
0.248907
0.250598
0.252289
0.253988
0.255704
0.257448
0.259233
0.261073
0.262984
0.264983
0.267087
0.269314
0.271682
0.27421
0.276914
0.27981
0.282912
0.286231
0.289773
0.293543
0.29754
0.301758
0.306184
0.310802
0.315588
0.320536
0.325333
0.332571
0.202616
0.202694
0.202769
0.20284
0.202907
0.20297
0.203028
0.203082
0.20313
0.203174
0.203214
0.203249
0.203281
0.20331
0.203337
0.203363
0.20339
0.203417
0.203447
0.20348
0.203517
0.20356
0.203609
0.203666
0.203732
0.203808
0.203894
0.203994
0.204107
0.204236
0.204383
0.204548
0.204733
0.204942
0.205176
0.205438
0.20573
0.206055
0.206416
0.206816
0.207258
0.207746
0.208282
0.208871
0.209514
0.210216
0.210978
0.211803
0.212694
0.213651
0.214675
0.215768
0.216927
0.218153
0.219443
0.220793
0.222201
0.223661
0.225168
0.226715
0.228296
0.229903
0.231528
0.233164
0.234803
0.236438
0.238061
0.239667
0.241251
0.242809
0.244339
0.24584
0.247313
0.248761
0.250187
0.251598
0.253001
0.254405
0.255821
0.257262
0.25874
0.260271
0.26187
0.263553
0.265337
0.267239
0.269274
0.271459
0.273808
0.276333
0.279045
0.281952
0.285058
0.288362
0.291861
0.295545
0.299399
0.303422
0.307356
0.313369
0.201435
0.201501
0.201565
0.201627
0.201687
0.201744
0.201798
0.201849
0.201897
0.201942
0.201984
0.202023
0.202061
0.202097
0.202134
0.20217
0.202208
0.202248
0.202292
0.202341
0.202395
0.202456
0.202525
0.202604
0.202692
0.202793
0.202907
0.203035
0.203179
0.203341
0.203522
0.203723
0.203948
0.204197
0.204474
0.20478
0.205118
0.20549
0.2059
0.206349
0.206841
0.207379
0.207966
0.208604
0.209296
0.210045
0.210853
0.211721
0.212652
0.213645
0.214702
0.215822
0.217005
0.218247
0.219547
0.220902
0.222305
0.223753
0.22524
0.226758
0.2283
0.229859
0.231427
0.232994
0.234554
0.236098
0.23762
0.239112
0.24057
0.24199
0.243368
0.244702
0.245994
0.247245
0.248457
0.249635
0.250786
0.251917
0.253038
0.254158
0.255289
0.256444
0.257637
0.258881
0.260192
0.261585
0.263074
0.264675
0.266401
0.268266
0.270281
0.272456
0.274798
0.277311
0.279996
0.282849
0.285862
0.289039
0.292171
0.297022
0.200507
0.200561
0.200614
0.200666
0.200717
0.200767
0.200815
0.200861
0.200906
0.20095
0.200991
0.201032
0.201072
0.201113
0.201154
0.201196
0.201242
0.20129
0.201343
0.201402
0.201468
0.201541
0.201624
0.201717
0.201822
0.20194
0.202073
0.202222
0.202388
0.202573
0.202779
0.203008
0.203261
0.203541
0.20385
0.204189
0.204562
0.204971
0.205418
0.205906
0.206438
0.207016
0.207642
0.20832
0.209051
0.209838
0.210683
0.211586
0.212549
0.213572
0.214655
0.215798
0.216998
0.218254
0.219561
0.220917
0.222316
0.223753
0.225221
0.226713
0.228221
0.229738
0.231254
0.232763
0.234255
0.235722
0.237157
0.238554
0.239907
0.241211
0.242463
0.243661
0.244805
0.245894
0.246933
0.247923
0.24887
0.249782
0.250664
0.251527
0.252381
0.253235
0.254102
0.254994
0.255925
0.256907
0.257954
0.25908
0.260298
0.261621
0.263059
0.264624
0.266323
0.268164
0.27015
0.272282
0.274557
0.276979
0.279389
0.28317
0.199789
0.199831
0.199873
0.199915
0.199957
0.199998
0.20004
0.200081
0.200121
0.200161
0.200201
0.200241
0.200282
0.200324
0.200367
0.200413
0.200462
0.200515
0.200574
0.200639
0.200712
0.200793
0.200885
0.200988
0.201103
0.201233
0.201378
0.20154
0.201721
0.201923
0.202146
0.202394
0.202667
0.202968
0.2033
0.203664
0.204062
0.204497
0.204971
0.205488
0.206048
0.206655
0.207311
0.208018
0.208778
0.209593
0.210465
0.211393
0.212379
0.213423
0.214525
0.215682
0.216893
0.218155
0.219464
0.220817
0.222207
0.223629
0.225076
0.226541
0.228016
0.229492
0.230962
0.232416
0.233847
0.235246
0.236605
0.237919
0.239182
0.240387
0.241533