/*--------------------------------*- C++ -*----------------------------------*\
| =========                 |                                                 |
| \\      /  F ield         | OpenFOAM: The Open Source CFD Toolbox           |
|  \\    /   O peration     | Version:  4.1                                   |
|   \\  /    A nd           | Web:      www.OpenFOAM.org                      |
|    \\/     M anipulation  |                                                 |
\*---------------------------------------------------------------------------*/
FoamFile
{
    version     2.0;
    format      ascii;
    class       volScalarField;
    location    "1500";
    object      p;
}
// * * * * * * * * * * * * * * * * * * * * * * * * * * * * * * * * * * * * * //

dimensions      [0 2 -2 0 0 0 0];

internalField   nonuniform List<scalar> 
6820
(
6.15777
-4.54115
-8.06778
-8.81301
-9.20561
-9.53685
-9.72522
-9.81854
-9.88144
-9.93411
-9.97718
-10.0122
-10.0424
-10.0696
-10.0944
-10.1173
-10.1387
-10.1589
-10.178
-10.1964
-10.214
-10.231
-10.2474
-10.2634
-10.2788
-10.2939
-10.3084
-10.3223
-10.3354
-10.3476
-10.3578
-10.3677
-10.3639
-15.5615
-12.0142
-11.2124
-10.408
-10.0249
-9.94271
-9.92879
-9.92392
-9.93592
-9.961
-9.98911
-10.0161
-10.042
-10.0669
-10.0906
-10.113
-10.1343
-10.1545
-10.1738
-10.1923
-10.2101
-10.2273
-10.244
-10.2602
-10.2759
-10.2912
-10.306
-10.3203
-10.334
-10.3471
-10.3589
-10.3713
-10.3766
-13.371
-9.86307
-9.60098
-9.59073
-9.57805
-9.66858
-9.76176
-9.824
-9.87463
-9.92179
-9.96326
-9.9987
-10.0299
-10.0581
-10.0839
-10.1076
-10.1297
-10.1505
-10.1702
-10.189
-10.2069
-10.2243
-10.241
-10.2573
-10.2731
-10.2885
-10.3035
-10.318
-10.3321
-10.3459
-10.3589
-10.3726
-10.3835
-10.9442
-9.47322
-9.62368
-9.734
-9.71411
-9.76323
-9.82735
-9.87094
-9.90715
-9.94319
-9.97687
-10.0071
-10.0346
-10.0603
-10.0844
-10.1069
-10.1282
-10.1484
-10.1677
-10.1862
-10.2041
-10.2213
-10.2381
-10.2544
-10.2703
-10.2859
-10.3011
-10.316
-10.3306
-10.345
-10.3592
-10.3741
-10.3884
-10.4918
-9.77727
-9.81592
-9.82683
-9.77732
-9.79922
-9.84571
-9.88194
-9.91431
-9.94748
-9.97927
-10.0084
-10.0353
-10.0605
-10.0841
-10.1064
-10.1274
-10.1474
-10.1666
-10.185
-10.2027
-10.2199
-10.2366
-10.2529
-10.2688
-10.2844
-10.2998
-10.3149
-10.3299
-10.3449
-10.3599
-10.3757
-10.392
-10.4112
-9.93143
-9.88339
-9.8574
-9.81354
-9.82683
-9.86332
-9.89535
-9.92529
-9.95594
-9.98559
-10.0132
-10.0389
-10.0631
-10.0859
-10.1075
-10.1281
-10.1477
-10.1665
-10.1846
-10.2022
-10.2192
-10.2358
-10.252
-10.2679
-10.2835
-10.2989
-10.3142
-10.3295
-10.3449
-10.3606
-10.3771
-10.3946
-10.2882
-9.96179
-9.90751
-9.88204
-9.84883
-9.85684
-9.88468
-9.91195
-9.9387
-9.96636
-9.99353
-10.0193
-10.0436
-10.0667
-10.0886
-10.1095
-10.1295
-10.1487
-10.1671
-10.1849
-10.2022
-10.219
-10.2354
-10.2515
-10.2674
-10.283
-10.2984
-10.3139
-10.3293
-10.345
-10.3611
-10.378
-10.3961
-10.1792
-9.97376
-9.92906
-9.90681
-9.88093
-9.88518
-9.90611
-9.92894
-9.95256
-9.97739
-10.0022
-10.0261
-10.049
-10.071
-10.092
-10.1122
-10.1316
-10.1502
-10.1682
-10.1857
-10.2027
-10.2193
-10.2355
-10.2515
-10.2672
-10.2828
-10.2982
-10.3137
-10.3293
-10.3451
-10.3614
-10.3785
-10.3966
-10.1082
-9.98454
-9.947
-9.9271
-9.90724
-9.9097
-9.92584
-9.94515
-9.96609
-9.98845
-10.0111
-10.0334
-10.0549
-10.0758
-10.0959
-10.1153
-10.134
-10.1522
-10.1698
-10.1869
-10.2036
-10.2199
-10.2359
-10.2517
-10.2673
-10.2827
-10.2982
-10.3136
-10.3292
-10.3451
-10.3614
-10.3784
-10.3963
-10.0639
-9.99116
-9.96
-9.94297
-9.92846
-9.93043
-9.94343
-9.9601
-9.97883
-9.9991
-10.0199
-10.0406
-10.0609
-10.0807
-10.0999
-10.1186
-10.1367
-10.1543
-10.1715
-10.1882
-10.2046
-10.2206
-10.2364
-10.252
-10.2674
-10.2828
-10.2981
-10.3135
-10.329
-10.3448
-10.361
-10.3777
-10.3952
-10.0362
-9.9945
-9.96981
-9.95595
-9.94579
-9.94787
-9.95883
-9.97352
-9.99047
-10.009
-10.0282
-10.0475
-10.0667
-10.0855
-10.1039
-10.1219
-10.1394
-10.1565
-10.1732
-10.1896
-10.2056
-10.2214
-10.2369
-10.2523
-10.2675
-10.2827
-10.2979
-10.3131
-10.3285
-10.3441
-10.36
-10.3764
-10.3934
-10.0196
-9.99659
-9.97788
-9.967
-9.9602
-9.96262
-9.97221
-9.98541
-10.0009
-10.0179
-10.0358
-10.0539
-10.072
-10.09
-10.1076
-10.1249
-10.1419
-10.1585
-10.1748
-10.1908
-10.2065
-10.222
-10.2372
-10.2524
-10.2674
-10.2824
-10.2974
-10.3124
-10.3275
-10.3429
-10.3585
-10.3744
-10.3908
-10.0108
-9.99855
-9.98492
-9.97671
-9.97244
-9.97523
-9.98388
-9.99591
-10.0102
-10.026
-10.0426
-10.0597
-10.0769
-10.094
-10.1109
-10.1276
-10.144
-10.1602
-10.1761
-10.1917
-10.2071
-10.2223
-10.2373
-10.2522
-10.267
-10.2817
-10.2964
-10.3112
-10.3261
-10.3411
-10.3563
-10.3717
-10.3874
-10.007
-10.0009
-9.99133
-9.98541
-9.98307
-9.9862
-9.99415
-10.0052
-10.0184
-10.0331
-10.0487
-10.0648
-10.0812
-10.0975
-10.1138
-10.1299
-10.1458
-10.1615
-10.177
-10.1922
-10.2073
-10.2222
-10.2369
-10.2516
-10.2661
-10.2806
-10.295
-10.3095
-10.324
-10.3387
-10.3534
-10.3683
-10.3833
-10.0066
-10.0038
-9.99736
-9.99337
-9.99247
-9.9959
-10.0033
-10.0135
-10.0258
-10.0395
-10.0541
-10.0694
-10.0849
-10.1005
-10.1162
-10.1317
-10.1471
-10.1624
-10.1774
-10.1923
-10.2071
-10.2217
-10.2361
-10.2505
-10.2647
-10.2789
-10.2931
-10.3072
-10.3214
-10.3356
-10.3498
-10.3641
-10.3785
-10.0084
-10.0073
-10.0032
-10.0007
-10.0009
-10.0046
-10.0115
-10.021
-10.0324
-10.0452
-10.059
-10.0734
-10.0881
-10.1031
-10.1181
-10.1331
-10.148
-10.1628
-10.1775
-10.192
-10.2064
-10.2207
-10.2348
-10.2489
-10.2628
-10.2767
-10.2905
-10.3043
-10.3181
-10.3318
-10.3455
-10.3593
-10.373
-10.0115
-10.0112
-10.0088
-10.0076
-10.0086
-10.0124
-10.019
-10.0278
-10.0384
-10.0504
-10.0633
-10.0769
-10.0909
-10.1052
-10.1196
-10.1341
-10.1485
-10.1628
-10.1771
-10.1913
-10.2053
-10.2192
-10.2331
-10.2468
-10.2604
-10.2739
-10.2874
-10.3008
-10.3141
-10.3274
-10.3406
-10.3537
-10.3668
-10.0156
-10.0156
-10.0144
-10.0141
-10.0156
-10.0195
-10.0257
-10.034
-10.0438
-10.055
-10.0671
-10.08
-10.0933
-10.1069
-10.1207
-10.1346
-10.1486
-10.1625
-10.1763
-10.1901
-10.2038
-10.2174
-10.2308
-10.2442
-10.2574
-10.2706
-10.2837
-10.2967
-10.3095
-10.3223
-10.335
-10.3476
-10.36
-10.0201
-10.0203
-10.0198
-10.0202
-10.0221
-10.026
-10.0319
-10.0396
-10.0488
-10.0592
-10.0705
-10.0826
-10.0953
-10.1083
-10.1215
-10.1349
-10.1483
-10.1618
-10.1752
-10.1886
-10.2018
-10.215
-10.2282
-10.2411
-10.254
-10.2668
-10.2795
-10.292
-10.3045
-10.3167
-10.3289
-10.3409
-10.3527
-10.0249
-10.0251
-10.0251
-10.026
-10.0281
-10.0319
-10.0375
-10.0446
-10.0532
-10.0629
-10.0735
-10.0849
-10.0969
-10.1093
-10.1219
-10.1347
-10.1477
-10.1607
-10.1737
-10.1866
-10.1995
-10.2124
-10.2251
-10.2377
-10.2502
-10.2626
-10.2748
-10.2869
-10.2989
-10.3107
-10.3223
-10.3337
-10.3449
-10.0298
-10.03
-10.0304
-10.0314
-10.0337
-10.0373
-10.0425
-10.0491
-10.0571
-10.0661
-10.0761
-10.0868
-10.0982
-10.1099
-10.122
-10.1343
-10.1468
-10.1593
-10.1719
-10.1844
-10.1969
-10.2093
-10.2216
-10.2339
-10.2459
-10.2579
-10.2697
-10.2814
-10.2929
-10.3041
-10.3152
-10.3261
-10.3368
-10.0348
-10.035
-10.0355
-10.0366
-10.0388
-10.0422
-10.047
-10.0531
-10.0605
-10.0689
-10.0782
-10.0883
-10.099
-10.1102
-10.1218
-10.1335
-10.1455
-10.1576
-10.1697
-10.1818
-10.1939
-10.2059
-10.2179
-10.2297
-10.2414
-10.2529
-10.2643
-10.2755
-10.2865
-10.2973
-10.3078
-10.3182
-10.3283
-10.0398
-10.04
-10.0405
-10.0416
-10.0435
-10.0467
-10.051
-10.0566
-10.0634
-10.0712
-10.0799
-10.0894
-10.0995
-10.1101
-10.1211
-10.1324
-10.1439
-10.1556
-10.1673
-10.179
-10.1906
-10.2023
-10.2138
-10.2252
-10.2365
-10.2476
-10.2585
-10.2693
-10.2798
-10.2901
-10.3002
-10.31
-10.3195
-10.0448
-10.0449
-10.0453
-10.0462
-10.0479
-10.0506
-10.0545
-10.0595
-10.0657
-10.0729
-10.081
-10.09
-10.0995
-10.1096
-10.1201
-10.131
-10.142
-10.1532
-10.1645
-10.1758
-10.1871
-10.1983
-10.2094
-10.2204
-10.2313
-10.242
-10.2525
-10.2628
-10.2728
-10.2827
-10.2922
-10.3015
-10.3106
-10.0498
-10.0499
-10.0501
-10.0507
-10.0519
-10.0541
-10.0574
-10.0619
-10.0674
-10.0741
-10.0816
-10.09
-10.0991
-10.1087
-10.1187
-10.1291
-10.1397
-10.1505
-10.1614
-10.1723
-10.1832
-10.194
-10.2048
-10.2154
-10.2258
-10.2361
-10.2462
-10.256
-10.2657
-10.275
-10.2841
-10.2929
-10.3014
-10.0549
-10.055
-10.0549
-10.0549
-10.0556
-10.0571
-10.0598
-10.0636
-10.0686
-10.0746
-10.0816
-10.0895
-10.098
-10.1072
-10.1168
-10.1268
-10.137
-10.1474
-10.1579
-10.1685
-10.179
-10.1895
-10.1999
-10.2101
-10.2202
-10.23
-10.2397
-10.2491
-10.2583
-10.2672
-10.2758
-10.2842
-10.2922
-10.0602
-10.0602
-10.0597
-10.059
-10.0588
-10.0596
-10.0615
-10.0646
-10.069
-10.0744
-10.0809
-10.0883
-10.0964
-10.1052
-10.1144
-10.124
-10.1339
-10.1439
-10.1541
-10.1643
-10.1745
-10.1846
-10.1947
-10.2045
-10.2142
-10.2237
-10.233
-10.242
-10.2508
-10.2592
-10.2674
-10.2753
-10.2829
-10.0658
-10.0658
-10.0646
-10.0629
-10.0617
-10.0615
-10.0626
-10.0649
-10.0686
-10.0735
-10.0794
-10.0864
-10.0941
-10.1025
-10.1114
-10.1207
-10.1302
-10.14
-10.1499
-10.1598
-10.1697
-10.1795
-10.1892
-10.1987
-10.208
-10.2172
-10.2261
-10.2347
-10.2431
-10.2511
-10.2589
-10.2663
-10.2735
-10.072
-10.072
-10.0698
-10.0667
-10.0642
-10.0628
-10.0628
-10.0643
-10.0673
-10.0716
-10.0771
-10.0836
-10.091
-10.0991
-10.1077
-10.1167
-10.1261
-10.1356
-10.1452
-10.1548
-10.1644
-10.1739
-10.1833
-10.1926
-10.2016
-10.2104
-10.2189
-10.2272
-10.2352
-10.2428
-10.2502
-10.2573
-10.264
-10.0793
-10.0792
-10.0755
-10.0704
-10.0661
-10.0633
-10.0621
-10.0626
-10.0649
-10.0686
-10.0737
-10.0799
-10.0871
-10.0949
-10.1033
-10.1121
-10.1212
-10.1305
-10.1399
-10.1493
-10.1587
-10.168
-10.1771
-10.186
-10.1948
-10.2033
-10.2115
-10.2194
-10.2271
-10.2344
-10.2414
-10.248
-10.2544
-10.0885
-10.0881
-10.0819
-10.074
-10.0674
-10.0627
-10.0601
-10.0596
-10.0612
-10.0644
-10.0692
-10.0751
-10.082
-10.0897
-10.098
-10.1067
-10.1156
-10.1248
-10.134
-10.1432
-10.1524
-10.1615
-10.1704
-10.1791
-10.1876
-10.1958
-10.2037
-10.2113
-10.2187
-10.2257
-10.2323
-10.2387
-10.2447
-10.101
-10.0997
-10.0895
-10.0775
-10.0678
-10.0607
-10.0565
-10.0549
-10.0558
-10.0586
-10.0631
-10.0689
-10.0757
-10.0833
-10.0915
-10.1001
-10.109
-10.1181
-10.1272
-10.1363
-10.1454
-10.1543
-10.163
-10.1715
-10.1798
-10.1878
-10.1955
-10.2028
-10.2099
-10.2166
-10.223
-10.2291
-10.2348
-10.1192
-10.1155
-10.0983
-10.0803
-10.0667
-10.0568
-10.0507
-10.0481
-10.0484
-10.0509
-10.0552
-10.0609
-10.0677
-10.0754
-10.0836
-10.0922
-10.1012
-10.1102
-10.1193
-10.1284
-10.1374
-10.1462
-10.1548
-10.1632
-10.1713
-10.1791
-10.1866
-10.1938
-10.2007
-10.2072
-10.2134
-10.2192
-10.2246
-10.1496
-10.1384
-10.1078
-10.081
-10.0625
-10.0495
-10.0416
-10.0381
-10.038
-10.0403
-10.0446
-10.0505
-10.0575
-10.0653
-10.0736
-10.0824
-10.0914
-10.1006
-10.1098
-10.1189
-10.1279
-10.1367
-10.1453
-10.1536
-10.1617
-10.1695
-10.1769
-10.184
-10.1908
-10.1972
-10.2032
-10.2089
-10.2142
-10.2046
-10.1762
-10.1211
-10.0803
-10.0541
-10.0364
-10.0265
-10.0226
-10.0225
-10.0252
-10.0302
-10.0368
-10.0444
-10.0529
-10.0618
-10.0711
-10.0806
-10.09
-10.0995
-10.1088
-10.118
-10.1269
-10.1356
-10.1439
-10.152
-10.1597
-10.1671
-10.1741
-10.1808
-10.187
-10.193
-10.1985
-10.2036
-10.2876
-10.2245
-10.1399
-10.0864
-10.0477
-10.0196
-10.0045
-9.99796
-9.99621
-9.99811
-10.003
-10.0101
-10.0186
-10.028
-10.0381
-10.0485
-10.0591
-10.0697
-10.0803
-10.0906
-10.1007
-10.1105
-10.12
-10.1291
-10.1378
-10.1462
-10.1541
-10.1616
-10.1687
-10.1754
-10.1817
-10.1875
-10.1929
-10.4378
-10.2043
-10.0749
-10.0616
-10.0468
-10.0293
-10.0234
-10.023
-10.0232
-10.0247
-10.028
-10.0326
-10.0382
-10.0446
-10.0517
-10.0594
-10.0674
-10.0756
-10.084
-10.0923
-10.1007
-10.1089
-10.117
-10.1249
-10.1325
-10.1399
-10.1469
-10.1537
-10.1601
-10.1662
-10.1719
-10.1773
-10.1824
-11.3941
-10.1709
-9.58056
-9.50129
-9.51443
-9.55204
-9.60754
-9.66348
-9.71415
-9.76084
-9.80383
-9.84265
-9.87738
-9.90853
-9.93659
-9.96192
-9.98485
-10.0057
-10.0247
-10.0421
-10.0581
-10.0728
-10.0864
-10.099
-10.1106
-10.1213
-10.1313
-10.1405
-10.149
-10.1568
-10.164
-10.1706
-10.1764
-15.1632
-12.9603
-11.9291
-11.2928
-10.8657
-10.6149
-10.453
-10.3299
-10.2376
-10.1733
-10.1297
-10.1002
-10.0808
-10.0691
-10.0631
-10.0612
-10.0623
-10.0657
-10.0705
-10.0765
-10.0832
-10.0904
-10.0978
-10.1054
-10.1129
-10.1203
-10.1276
-10.1346
-10.1413
-10.1477
-10.1538
-10.1597
-10.1652
-1.24948
-5.34215
-7.46595
-8.23848
-8.6773
-9.04102
-9.30719
-9.48344
-9.60751
-9.7034
-9.77892
-9.83789
-9.88463
-9.9228
-9.95474
-9.98187
-10.0053
-10.0257
-10.0439
-10.0601
-10.0748
-10.0881
-10.1004
-10.1116
-10.1219
-10.1315
-10.1403
-10.1485
-10.156
-10.1629
-10.1693
-10.1751
-10.1804
-10.3477
-10.1318
-10.4213
-10.6909
-10.7949
-10.8271
-10.8381
-10.8352
-10.825
-10.817
-10.818
-10.8312
-10.8576
-10.8968
-10.9471
-11.0057
-11.0698
-11.1365
-11.203
-11.2669
-11.326
-11.3788
-11.4238
-11.4602
-11.4872
-11.5045
-11.512
-11.5095
-11.497
-11.4747
-11.4425
-11.4005
-11.3486
-11.2868
-11.2151
-11.1332
-11.041
-10.9384
-10.825
-10.7008
-10.5654
-10.4186
-10.2603
-10.0903
-9.90844
-9.71466
-9.50898
-9.29152
-9.06249
-8.82222
-8.57115
-8.30987
-8.03908
-7.75964
-7.47252
-7.17881
-6.87972
-6.57654
-6.27066
-5.96352
-5.65656
-5.35125
-5.04905
-4.75135
-4.45946
-4.17462
-3.89794
-3.6304
-3.37281
-3.12587
-2.89009
-2.66585
-2.45338
-2.25279
-2.06405
-1.88704
-1.72152
-1.56716
-1.42357
-1.29029
-1.16682
-1.05262
-0.947162
-0.849885
-0.76025
-0.677727
-0.601801
-0.53199
-0.467817
-0.408874
-0.354682
-0.305003
-0.259107
-0.217402
-0.177753
-0.143552
-0.106015
-0.0824282
-0.0340934
-0.0420768
-10.3945
-10.3938
-10.5881
-10.733
-10.7648
-10.7588
-10.7508
-10.7411
-10.732
-10.73
-10.7395
-10.7616
-10.7959
-10.8412
-10.8956
-10.9568
-11.0223
-11.0895
-11.156
-11.2195
-11.2783
-11.3306
-11.3752
-11.4112
-11.438
-11.4552
-11.4626
-11.4601
-11.4477
-11.4254
-11.3934
-11.3515
-11.2998
-11.2381
-11.1666
-11.0849
-10.9929
-10.8905
-10.7775
-10.6536
-10.5187
-10.3725
-10.2149
-10.0457
-9.8648
-9.67213
-9.46774
-9.25175
-9.02438
-8.78596
-8.53693
-8.27787
-8.00947
-7.73258
-7.44814
-7.15722
-6.861
-6.56075
-6.2578
-5.95357
-5.64946
-5.34692
-5.04736
-4.75214
-4.46256
-4.17982
-3.90503
-3.63915
-3.383
-3.13727
-2.90247
-2.679
-2.46709
-2.26687
-2.07832
-1.90134
-1.73571
-1.58112
-1.43718
-1.30347
-1.17949
-1.06472
-0.958653
-0.860733
-0.770432
-0.687228
-0.610613
-0.54011
-0.475244
-0.415612
-0.360727
-0.310364
-0.263765
-0.221401
-0.180982
-0.146284
-0.107628
-0.084553
-0.0330295
-0.0472357
-10.4073
-10.4221
-10.5093
-10.6106
-10.6673
-10.696
-10.7149
-10.725
-10.7282
-10.7313
-10.7396
-10.756
-10.7822
-10.8184
-10.8641
-10.9178
-10.9774
-11.0402
-11.1037
-11.1654
-11.223
-11.2747
-11.319
-11.3549
-11.3818
-11.3992
-11.4068
-11.4046
-11.3925
-11.3706
-11.3388
-11.2973
-11.2459
-11.1847
-11.1134
-11.0321
-10.9406
-10.8386
-10.7261
-10.6028
-10.4686
-10.3232
-10.1664
-9.99824
-9.81849
-9.62714
-9.42426
-9.20995
-8.98444
-8.74807
-8.50127
-8.24462
-7.97881
-7.70463
-7.42304
-7.13506
-6.84185
-6.54464
-6.24475
-5.94354
-5.64238
-5.3427
-5.04586
-4.7532
-4.466
-4.18544
-3.91261
-3.64846
-3.3938
-3.14933
-2.91556
-2.69289
-2.48158
-2.28175
-2.09341
-1.91648
-1.75073
-1.5959
-1.4516
-1.31743
-1.19292
-1.07756
-0.970842
-0.87224
-0.781231
-0.697303
-0.619956
-0.548715
-0.483111
-0.422742
-0.367121
-0.31603
-0.268687
-0.225617
-0.184403
-0.149147
-0.109395
-0.0866932
-0.0321837
-0.0521541
-10.4113
-10.4359
-10.5039
-10.5976
-10.6611
-10.6908
-10.7053
-10.712
-10.7143
-10.7177
-10.7268
-10.7441
-10.7705
-10.8059
-10.8494
-10.8995
-10.9542
-11.0113
-11.0688
-11.1246
-11.1769
-11.2242
-11.2651
-11.2986
-11.3238
-11.3402
-11.3473
-11.345
-11.333
-11.3113
-11.2799
-11.2388
-11.1879
-11.1271
-11.0563
-10.9755
-10.8845
-10.7832
-10.6714
-10.5488
-10.4154
-10.2709
-10.1152
-9.9482
-9.76977
-9.57992
-9.3787
-9.16623
-8.94275
-8.70859
-8.46418
-8.21008
-7.94698
-7.67565
-7.39702
-7.1121
-6.82201
-6.52795
-6.23121
-5.93311
-5.63501
-5.33827
-5.04424
-4.75424
-4.46951
-4.19122
-3.92043
-3.65809
-3.40501
-3.16187
-2.9292
-2.7074
-2.49673
-2.29734
-2.10925
-1.93238
-1.76654
-1.61147
-1.46681
-1.33218
-1.20711
-1.09113
-0.983738
-0.88442
-0.792667
-0.707975
-0.629851
-0.557829
-0.491442
-0.430292
-0.373889
-0.322024
-0.273896
-0.230075
-0.188034
-0.152168
-0.111319
-0.088888
-0.0315209
-0.0568788
-10.4154
-10.4466
-10.5029
-10.5753
-10.6282
-10.6564
-10.6735
-10.6857
-10.6947
-10.7038
-10.7167
-10.7357
-10.7616
-10.7949
-10.8349
-10.8807
-10.9306
-10.983
-11.0359
-11.0873
-11.1357
-11.1793
-11.2169
-11.2474
-11.2702
-11.2845
-11.29
-11.2864
-11.2736
-11.2514
-11.2197
-11.1785
-11.1276
-11.0671
-10.9967
-10.9163
-10.8258
-10.7251
-10.6139
-10.4922
-10.3596
-10.2161
-10.0616
-9.89584
-9.71884
-9.53058
-9.33112
-9.12059
-8.89924
-8.66738
-8.42545
-8.174
-7.9137
-7.64531
-7.36974
-7.08796
-6.80108
-6.51027
-6.21677
-5.92189
-5.62693
-5.33324
-5.04214
-4.7549
-4.47276
-4.19685
-3.92822
-3.6678
-3.4164
-3.17469
-2.9432
-2.72235
-2.5124
-2.31351
-2.12572
-1.94895
-1.78305
-1.62776
-1.48276
-1.34766
-1.22204
-1.10542
-0.997332
-0.897272
-0.804742
-0.71925
-0.640311
-0.567466
-0.500252
-0.438276
-0.381049
-0.328364
-0.279409
-0.234791
-0.19189
-0.155359
-0.113415
-0.0911397
-0.0310653
-0.0613605
-10.4184
-10.4508
-10.4979
-10.5554
-10.6027
-10.6333
-10.6541
-10.6697
-10.6819
-10.6935
-10.7076
-10.7266
-10.7515
-10.7827
-10.8197
-10.8618
-10.9075
-10.9554
-11.0037
-11.0507
-11.0949
-11.1347
-11.169
-11.1967
-11.217
-11.2294
-11.2333
-11.2284
-11.2146
-11.1916
-11.1594
-11.1178
-11.0667
-11.0061
-10.9357
-10.8556
-10.7654
-10.6651
-10.5545
-10.4334
-10.3017
-10.1592
-10.0057
-9.84126
-9.6657
-9.47905
-9.28138
-9.07284
-8.85365
-8.62415
-8.38476
-8.13602
-7.87859
-7.61321
-7.34077
-7.06223
-6.77865
-6.49118
-6.20104
-5.90948
-5.61779
-5.32728
-5.03922
-4.75489
-4.47546
-4.20206
-3.93572
-3.67734
-3.42774
-3.18758
-2.95739
-2.73758
-2.52844
-2.33013
-2.1427
-1.9661
-1.80018
-1.64471
-1.49938
-1.36383
-1.23765
-1.1204
-1.0116
-0.910779
-0.817447
-0.731124
-0.651336
-0.577631
-0.509551
-0.446707
-0.388611
-0.335063
-0.28524
-0.239778
-0.195985
-0.15873
-0.1157
-0.0934453
-0.0308487
-0.0655371
-10.4197
-10.4514
-10.4923
-10.5401
-10.5824
-10.6129
-10.6351
-10.6524
-10.6669
-10.6807
-10.6965
-10.7161
-10.7405
-10.77
-10.8044
-10.8431
-10.885
-10.9286
-10.9724
-11.0151
-11.0551
-11.091
-11.1218
-11.1465
-11.1641
-11.1743
-11.1763
-11.17
-11.1549
-11.131
-11.0981
-11.056
-11.0046
-10.9437
-10.8733
-10.7932
-10.7033
-10.6033
-10.4932
-10.3727
-10.2417
-10.1001
-9.94769
-9.78444
-9.61028
-9.42523
-9.22935
-9.0228
-8.8058
-8.57868
-8.34187
-8.0959
-7.84139
-7.5791
-7.30987
-7.03465
-6.75448
-6.47046
-6.18378
-5.89566
-5.60737
-5.32017
-5.0353
-4.754
-4.47743
-4.20668
-3.94275
-3.68656
-3.43889
-3.20039
-2.97161
-2.75296
-2.54472
-2.34707
-2.16008
-1.98371
-1.81783
-1.66222
-1.5166
-1.38063
-1.25391
-1.13602
-1.02651
-0.924916
-0.830764
-0.743587
-0.662921
-0.588322
-0.519339
-0.455589
-0.396585
-0.342131
-0.291399
-0.245048
-0.200331
-0.162292
-0.118185
-0.0958038
-0.0308968
-0.0693561
-10.4197
-10.4499
-10.4863
-10.5272
-10.5647
-10.5943
-10.6171
-10.6359
-10.6523
-10.6679
-10.6848
-10.7047
-10.7284
-10.7564
-10.7884
-10.824
-10.8622
-10.9018
-10.9416
-10.9801
-11.0161
-11.0483
-11.0756
-11.0972
-11.1121
-11.1198
-11.1198
-11.1118
-11.0953
-11.0702
-11.0363
-10.9935
-10.9415
-10.8803
-10.8097
-10.7295
-10.6396
-10.5399
-10.4301
-10.3101
-10.1798
-10.039
-9.88759
-9.72552
-9.55273
-9.36926
-9.17516
-8.9706
-8.7558
-8.53109
-8.29689
-8.05372
-7.80221
-7.54306
-7.27713
-7.00531
-6.72863
-6.44816
-6.16505
-5.8805
-5.59572
-5.31195
-5.03039
-4.75225
-4.47866
-4.21068
-3.9493
-3.69541
-3.44978
-3.21307
-2.9858
-2.7684
-2.56116
-2.36426
-2.17779
-2.00171
-1.83593
-1.68023
-1.53436
-1.39799
-1.27075
-1.15224
-1.04202
-0.93965
-0.844667
-0.756619
-0.675052
-0.599532
-0.529615
-0.464923
-0.404974
-0.349574
-0.297895
-0.25061
-0.20494
-0.166054
-0.120885
-0.0982154
-0.0312293
-0.072773
-10.4187
-10.4472
-10.48
-10.5156
-10.5492
-10.5774
-10.6005
-10.6202
-10.6377
-10.6545
-10.6723
-10.6923
-10.7153
-10.7417
-10.7715
-10.8042
-10.839
-10.8749
-10.9108
-10.9454
-10.9776
-11.0061
-11.0301
-11.0486
-11.0607
-11.066
-11.0639
-11.054
-11.036
-11.0096
-10.9746
-10.9309
-10.8782
-10.8164
-10.7454
-10.665
-10.5751
-10.4754
-10.3659
-10.2463
-10.1166
-9.9765
-9.82603
-9.66509
-9.49364
-9.3117
-9.11936
-8.91677
-8.70418
-8.48189
-8.25032
-8.00998
-7.76148
-7.50554
-7.24294
-6.97459
-6.70147
-6.42463
-6.14517
-5.86426
-5.58308
-5.30283
-5.02468
-4.7498
-4.47928
-4.21418
-3.95545
-3.70396
-3.46047
-3.22563
-2.99996
-2.7839
-2.57774
-2.38167
-2.19578
-2.02006
-1.85442
-1.69868
-1.5526
-1.41586
-1.28813
-1.16902
-1.0581
-0.954949
-0.859129
-0.770197
-0.687711
-0.611246
-0.540368
-0.474704
-0.413776
-0.357393
-0.304732
-0.25647
-0.209818
-0.170023
-0.123805
-0.10068
-0.0318609
-0.0757514
-10.4167
-10.4436
-10.4734
-10.505
-10.5353
-10.562
-10.5848
-10.6049
-10.6232
-10.6408
-10.659
-10.6789
-10.7011
-10.7261
-10.7538
-10.7837
-10.8153
-10.8477
-10.8799
-10.9108
-10.9393
-10.9643
-10.985
-11.0004
-11.0098
-11.0127
-11.0084
-10.9967
-10.977
-10.9492
-10.9131
-10.8684
-10.8149
-10.7525
-10.6811
-10.6003
-10.5102
-10.4106
-10.3012
-10.1819
-10.0527
-9.91332
-9.76373
-9.60386
-9.43369
-9.25326
-9.06265
-8.86201
-8.6516
-8.43172
-8.20278
-7.96528
-7.71982
-7.46708
-7.20785
-6.943
-6.67347
-6.40029
-6.12453
-5.84732
-5.5698
-5.29312
-5.01844
-4.74688
-4.47951
-4.21735
-3.96134
-3.71232
-3.47104
-3.23814
-3.01416
-2.7995
-2.59448
-2.39929
-2.21404
-2.03873
-1.87329
-1.71755
-1.57129
-1.43422
-1.30602
-1.18631
-1.0747
-0.97078
-0.874121
-0.784296
-0.700877
-0.62345
-0.551587
-0.484923
-0.422986
-0.365587
-0.31191
-0.262631
-0.214969
-0.174203
-0.126954
-0.103197
-0.0328004
-0.0782633
-10.4139
-10.4391
-10.4664
-10.4949
-10.5225
-10.5477
-10.57
-10.59
-10.6086
-10.6266
-10.645
-10.6646
-10.686
-10.7095
-10.7351
-10.7625
-10.7911
-10.8202
-10.8488
-10.8761
-10.9011
-10.9227
-10.9401
-10.9526
-10.9593
-10.9597
-10.9533
-10.9396
-10.9183
-10.8891
-10.8517
-10.806
-10.7517
-10.6886
-10.6166
-10.5356
-10.4453
-10.3456
-10.2363
-10.1174
-9.98858
-9.84986
-9.70112
-9.5423
-9.37339
-9.19444
-9.00554
-8.80684
-8.5986
-8.38112
-8.1548
-7.92013
-7.6777
-7.42818
-7.17232
-6.91097
-6.64505
-6.37556
-6.10352
-5.83002
-5.55618
-5.28312
-5.01194
-4.74374
-4.47956
-4.22038
-3.96713
-3.72063
-3.48162
-3.25072
-3.02846
-2.81525
-2.61142
-2.41716
-2.2326
-2.05774
-1.89253
-1.73683
-1.59042
-1.45304
-1.32438
-1.2041
-1.09181
-0.987117
-0.889617
-0.798893
-0.71453
-0.636124
-0.563257
-0.495569
-0.432597
-0.374151
-0.319428
-0.269092
-0.220396
-0.178597
-0.130333
-0.105768
-0.0340504
-0.0802911
-10.4104
-10.434
-10.4592
-10.4851
-10.5104
-10.5341
-10.5556
-10.5754
-10.594
-10.6121
-10.6303
-10.6494
-10.6699
-10.6919
-10.7156
-10.7405
-10.7662
-10.7922
-10.8175
-10.8414
-10.8629
-10.8812
-10.8955
-10.905
-10.9091
-10.907
-10.8984
-10.8828
-10.8598
-10.8291
-10.7905
-10.7437
-10.6885
-10.6248
-10.5523
-10.4708
-10.3803
-10.2806
-10.1714
-10.0527
-9.92442
-9.78635
-9.63845
-9.48068
-9.31303
-9.13556
-8.94836
-8.7516
-8.54552
-8.33044
-8.10673
-7.8749
-7.6355
-7.38918
-7.1367
-6.87885
-6.61655
-6.35073
-6.08241
-5.81264
-5.5425
-5.27306
-5.0054
-4.74058
-4.47961
-4.22345
-3.97299
-3.72904
-3.49232
-3.26345
-3.04295
-2.83124
-2.62863
-2.43534
-2.25149
-2.07712
-1.91217
-1.75652
-1.60998
-1.47231
-1.34322
-1.22236
-1.1094
-1.00394
-0.905598
-0.813969
-0.728652
-0.649253
-0.575364
-0.50663
-0.442598
-0.383077
-0.327281
-0.275852
-0.226097
-0.183205
-0.133943
-0.10839
-0.0356073
-0.0818274
-10.4061
-10.4283
-10.4516
-10.4754
-10.4988
-10.521
-10.5417
-10.561
-10.5793
-10.5971
-10.615
-10.6335
-10.6529
-10.6735
-10.6952
-10.7177
-10.7408
-10.7637
-10.7859
-10.8065
-10.8248
-10.8399
-10.8511
-10.8578
-10.8591
-10.8546
-10.8438
-10.8263
-10.8016
-10.7694
-10.7295
-10.6816
-10.6255
-10.5611
-10.488
-10.4062
-10.3154
-10.2156
-10.1066
-9.98822
-9.86037
-9.72295
-9.5759
-9.41918
-9.2528
-9.07682
-8.89133
-8.69652
-8.49261
-8.27992
-8.05883
-7.82983
-7.59345
-7.35035
-7.10122
-6.84688
-6.58818
-6.32604
-6.06144
-5.7954
-5.52895
-5.26313
-4.999
-4.73757
-4.47982
-4.22669
-3.97903
-3.73765
-3.50325
-3.27643
-3.05772
-2.84752
-2.64616
-2.45386
-2.27075
-2.09688
-1.93221
-1.77664
-1.62999
-1.49204
-1.36251
-1.2411
-1.12747
-1.02124
-0.922052
-0.829511
-0.743229
-0.662822
-0.587894
-0.518095
-0.452981
-0.392359
-0.335462
-0.282907
-0.232071
-0.188027
-0.137782
-0.111065
-0.037461
-0.082876
-10.401
-10.4219
-10.4436
-10.4656
-10.4873
-10.5081
-10.5279
-10.5465
-10.5644
-10.5818
-10.5991
-10.6168
-10.6351
-10.6542
-10.674
-10.6943
-10.7148
-10.7349
-10.754
-10.7715
-10.7866
-10.7987
-10.8069
-10.8108
-10.8095
-10.8026
-10.7897
-10.7701
-10.7437
-10.71
-10.6688
-10.6198
-10.5628
-10.4976
-10.424
-10.3418
-10.2508
-10.151
-10.042
-9.92394
-9.79656
-9.65981
-9.51362
-9.35797
-9.19287
-9.01839
-8.83463
-8.64176
-8.44003
-8.22974
-8.01128
-7.78511
-7.55176
-7.31186
-7.06609
-6.81524
-6.56014
-6.30167
-6.04078
-5.77845
-5.51569
-5.25349
-4.99288
-4.73483
-4.48031
-4.2302
-3.98537
-3.74657
-3.51449
-3.28974
-3.07282
-2.86416
-2.66406
-2.47277
-2.29041
-2.11706
-1.95269
-1.7972
-1.65045
-1.51223
-1.38228
-1.26032
-1.14601
-1.03901
-0.938968
-0.845507
-0.758249
-0.676821
-0.600837
-0.529954
-0.463736
-0.401988
-0.343966
-0.290252
-0.238312
-0.193061
-0.141846
-0.113793
-0.039596
-0.0834509
-10.3953
-10.415
-10.4352
-10.4556
-10.4758
-10.4954
-10.5141
-10.532
-10.5493
-10.5661
-10.5827
-10.5995
-10.6166
-10.6342
-10.6521
-10.6702
-10.6882
-10.7056
-10.7218
-10.7364
-10.7485
-10.7576
-10.763
-10.7641
-10.7603
-10.7511
-10.7359
-10.7145
-10.6863
-10.6511
-10.6086
-10.5585
-10.5005
-10.4346
-10.3604
-10.2778
-10.1866
-10.0867
-9.97786
-9.86007
-9.73318
-9.5971
-9.45179
-9.29722
-9.13342
-8.96045
-8.77843
-8.58752
-8.38798
-8.1801
-7.96426
-7.74092
-7.51059
-7.27389
-7.03148
-6.78411
-6.53258
-6.27777
-6.02058
-5.76195
-5.50285
-5.24427
-4.98716
-4.73249
-4.48118
-4.2341
-3.99208
-3.75586
-3.52611
-3.30343
-3.08832
-2.8812
-2.68237
-2.4921
-2.31051
-2.13768
-1.97361
-1.81822
-1.67138
-1.53289
-1.40252
-1.28
-1.16501
-1.05724
-0.956341
-0.86195
-0.773703
-0.69124
-0.614184
-0.542197
-0.474855
-0.411957
-0.352786
-0.297883
-0.244818
-0.198304
-0.146128
-0.116573
-0.0419917
-0.0835763
-10.3889
-10.4075
-10.4264
-10.4454
-10.4643
-10.4826
-10.5004
-10.5174
-10.5339
-10.5499
-10.5657
-10.5815
-10.5974
-10.6134
-10.6295
-10.6456
-10.6612
-10.676
-10.6895
-10.7012
-10.7105
-10.7167
-10.7194
-10.7178
-10.7115
-10.7
-10.6827
-10.6594
-10.6295
-10.5928
-10.5489
-10.4977
-10.4388
-10.3721
-10.2974
-10.2143
-10.1229
-10.023
-9.91428
-9.7968
-9.6704
-9.53502
-9.3906
-9.23713
-9.07464
-8.9032
-8.72292
-8.53399
-8.33664
-8.13117
-7.91796
-7.69744
-7.47013
-7.23661
-6.99754
-6.75363
-6.50568
-6.2545
-6.00098
-5.74603
-5.49058
-5.23558
-4.98197
-4.73065
-4.48254
-4.23847
-3.99925
-3.7656
-3.53818
-3.31757
-3.10427
-2.89868
-2.70114
-2.51188
-2.33106
-2.15877
-1.995
-1.83971
-1.69278
-1.55402
-1.42323
-1.30015
-1.18449
-1.07594
-0.974164
-0.878831
-0.789584
-0.706071
-0.627926
-0.554816
-0.48633
-0.422259
-0.361917
-0.305794
-0.251581
-0.203753
-0.150621
-0.119409
-0.0446232
-0.0832848
-10.3819
-10.3994
-10.4171
-10.4349
-10.4525
-10.4698
-10.4865
-10.5026
-10.5182
-10.5334
-10.5483
-10.563
-10.5776
-10.5921
-10.6064
-10.6204
-10.6337
-10.6461
-10.657
-10.666
-10.6726
-10.6761
-10.6761
-10.6721
-10.6634
-10.6496
-10.6303
-10.605
-10.5734
-10.5352
-10.4901
-10.4377
-10.3779
-10.3104
-10.2351
-10.1517
-10.0601
-9.96004
-9.85151
-9.73434
-9.60846
-9.47378
-9.33026
-9.1779
-9.01674
-8.84683
-8.66832
-8.48136
-8.28621
-8.08316
-7.87256
-7.65486
-7.43056
-7.20021
-6.96446
-6.724
-6.47958
-6.23201
-5.98214
-5.73084
-5.47901
-5.22756
-4.97741
-4.72943
-4.48449
-4.24341
-4.00697
-3.77587
-3.55076
-3.33221
-3.12071
-2.91665
-2.72038
-2.53214
-2.35209
-2.18033
-2.01687
-1.86168
-1.71465
-1.57562
-1.44441
-1.32076
-1.20442
-1.09508
-0.992428
-0.896143
-0.805882
-0.721304
-0.642053
-0.567803
-0.498151
-0.432886
-0.37135
-0.313979
-0.258596
-0.209404
-0.155316
-0.1223
-0.0474624
-0.0826163
-10.3744
-10.3908
-10.4075
-10.4241
-10.4406
-10.4567
-10.4724
-10.4876
-10.5023
-10.5166
-10.5304
-10.544
-10.5573
-10.5703
-10.5829
-10.5949
-10.606
-10.6161
-10.6245
-10.631
-10.6349
-10.6359
-10.6334
-10.6269
-10.6159
-10.5999
-10.5786
-10.5515
-10.5182
-10.4786
-10.4321
-10.3787
-10.318
-10.2497
-10.1738
-10.09
-9.99818
-9.89814
-9.78975
-9.67293
-9.54756
-9.4136
-9.27101
-9.11978
-8.95994
-8.79159
-8.61484
-8.42987
-8.23691
-8.03627
-7.82829
-7.61339
-7.39207
-7.16488
-6.93242
-6.69537
-6.45446
-6.21047
-5.9642
-5.71652
-5.46827
-5.22034
-4.97361
-4.72892
-4.48713
-4.24901
-4.01532
-3.78675
-3.56393
-3.34742
-3.13769
-2.93516
-2.74015
-2.55292
-2.37363
-2.20239
-2.03923
-1.88413
-1.737
-1.5977
-1.46605
-1.34184
-1.2248
-1.11466
-1.01112
-0.913873
-0.822584
-0.736926
-0.656553
-0.581144
-0.510309
-0.443828
-0.381076
-0.32243
-0.265855
-0.215253
-0.160201
-0.12525
-0.050478
-0.0816157
-10.3663
-10.3818
-10.3974
-10.413
-10.4284
-10.4435
-10.4582
-10.4724
-10.4862
-10.4994
-10.5122
-10.5246
-10.5366
-10.5481
-10.5589
-10.569
-10.5782
-10.586
-10.5921
-10.5961
-10.5976
-10.5962
-10.5912
-10.5824
-10.5691
-10.5511
-10.5278
-10.4989
-10.4641
-10.423
-10.3753
-10.3208
-10.2592
-10.1902
-10.1137
-10.0296
-9.93754
-9.83747
-9.72926
-9.61278
-9.48796
-9.35473
-9.21307
-9.06298
-8.90449
-8.73769
-8.56271
-8.37973
-8.18897
-7.99072
-7.78534
-7.57324
-7.35489
-7.13081
-6.90162
-6.66795
-6.43051
-6.19005
-5.94735
-5.70323
-5.45851
-5.21406
-4.9707
-4.72927
-4.49056
-4.25536
-4.02439
-3.79831
-3.57775
-3.36325
-3.15528
-2.95425
-2.76048
-2.57424
-2.39569
-2.22496
-2.06209
-1.90708
-1.75983
-1.62025
-1.48816
-1.36336
-1.24562
-1.13467
-1.03023
-0.932006
-0.839675
-0.752923
-0.671411
-0.594826
-0.522789
-0.455073
-0.391082
-0.331136
-0.273346
-0.221291
-0.165263
-0.128262
-0.0536367
-0.0803312
-10.3578
-10.3724
-10.3871
-10.4017
-10.4161
-10.4302
-10.4438
-10.4571
-10.4698
-10.4821
-10.4938
-10.505
-10.5156
-10.5256
-10.5348
-10.5431
-10.5502
-10.5559
-10.5598
-10.5615
-10.5607
-10.5569