/*--------------------------------*- C++ -*----------------------------------*\
| =========                 |                                                 |
| \\      /  F ield         | OpenFOAM: The Open Source CFD Toolbox           |
|  \\    /   O peration     | Version:  4.1                                   |
|   \\  /    A nd           | Web:      www.OpenFOAM.org                      |
|    \\/     M anipulation  |                                                 |
\*---------------------------------------------------------------------------*/
FoamFile
{
    version     2.0;
    format      ascii;
    class       surfaceScalarField;
    location    "1500";
    object      phi;
}
// * * * * * * * * * * * * * * * * * * * * * * * * * * * * * * * * * * * * * //

dimensions      [0 3 -1 0 0 0 0];

internalField   nonuniform List<scalar> 
13452
(
6.28704e-05
-2.60189e-06
6.37403e-05
-8.69978e-07
6.46286e-05
-8.88282e-07
6.4105e-05
5.23571e-07
6.28898e-05
1.21529e-06
6.15445e-05
1.34523e-06
6.02725e-05
1.27202e-06
5.91139e-05
1.1586e-06
5.80686e-05
1.04528e-06
5.71283e-05
9.40334e-07
5.62815e-05
8.46826e-07
5.55161e-05
7.65387e-07
5.48213e-05
6.9479e-07
5.41881e-05
6.33246e-07
5.36088e-05
5.79208e-07
5.30774e-05
5.31478e-07
5.25883e-05
4.89095e-07
5.2137e-05
4.51268e-07
5.17197e-05
4.17351e-07
5.13328e-05
3.86824e-07
5.09736e-05
3.5926e-07
5.06393e-05
3.34308e-07
5.03276e-05
3.11682e-07
5.00364e-05
2.91153e-07
4.97639e-05
2.72546e-07
4.95081e-05
2.55742e-07
4.92674e-05
2.40697e-07
4.904e-05
2.27433e-07
4.88238e-05
2.16237e-07
4.86167e-05
2.07028e-07
4.84153e-05
2.01395e-07
4.8224e-05
1.91389e-07
1.80429e-07
4.80435e-05
6.30682e-05
-3.67972e-06
6.27994e-05
-6.01195e-07
6.21233e-05
-2.12203e-07
6.23359e-05
3.1096e-07
6.27935e-05
7.57661e-07
6.31929e-05
9.45858e-07
6.34611e-05
1.00381e-06
6.36058e-05
1.01394e-06
6.36526e-05
9.98475e-07
6.36273e-05
9.65593e-07
6.35508e-05
9.23368e-07
6.34383e-05
8.77893e-07
6.33008e-05
8.32238e-07
6.31464e-05
7.87696e-07
6.29807e-05
7.44914e-07
6.28079e-05
7.04265e-07
6.26311e-05
6.65902e-07
6.24525e-05
6.29833e-07
6.22739e-05
5.95994e-07
6.20964e-05
5.6429e-07
6.1921e-05
5.34615e-07
6.17485e-05
5.06863e-07
6.15792e-05
4.80931e-07
6.14137e-05
4.56733e-07
6.1252e-05
4.34206e-07
6.10944e-05
4.13314e-07
6.0941e-05
3.9408e-07
6.07919e-05
3.76526e-07
6.06472e-05
3.60953e-07
6.05073e-05
3.46933e-07
6.03724e-05
3.36305e-07
6.02408e-05
3.2302e-07
3.34068e-07
6.00872e-05
6.23306e-05
-2.24888e-06
6.26619e-05
-9.32551e-07
6.281e-05
-3.60284e-07
6.30954e-05
2.55561e-08
6.34245e-05
4.28519e-07
6.37126e-05
6.57852e-07
6.39516e-05
7.64754e-07
6.41451e-05
8.20459e-07
6.42963e-05
8.47228e-07
6.44106e-05
8.51344e-07
6.44939e-05
8.40026e-07
6.45519e-05
8.19885e-07
6.45893e-05
7.94878e-07
6.46099e-05
7.67122e-07
6.46168e-05
7.37977e-07
6.46127e-05
7.0841e-07
6.45995e-05
6.79057e-07
6.4579e-05
6.50311e-07
6.45526e-05
6.22412e-07
6.45214e-05
5.95515e-07
6.44863e-05
5.69712e-07
6.44481e-05
5.45056e-07
6.44075e-05
5.21581e-07
6.43649e-05
4.9931e-07
6.43208e-05
4.78274e-07
6.42756e-05
4.58515e-07
6.42296e-05
4.40121e-07
6.41829e-05
4.23178e-07
6.41359e-05
4.07974e-07
6.40884e-05
3.94395e-07
6.40409e-05
3.83819e-07
6.39895e-05
3.74467e-07
3.79338e-07
6.39442e-05
6.47767e-05
-1.44247e-06
6.47349e-05
-8.90752e-07
6.47849e-05
-4.10329e-07
6.48931e-05
-8.26348e-08
6.50569e-05
2.64674e-07
6.52214e-05
4.93368e-07
6.53726e-05
6.1357e-07
6.55094e-05
6.83642e-07
6.56306e-05
7.26039e-07
6.57357e-05
7.46226e-07
6.58256e-05
7.50138e-07
6.59018e-05
7.43753e-07
6.59657e-05
7.30897e-07
6.60191e-05
7.13755e-07
6.60633e-05
6.93816e-07
6.60995e-05
6.72199e-07
6.61288e-05
6.49694e-07
6.61523e-05
6.26838e-07
6.61707e-05
6.04005e-07
6.61848e-05
5.81462e-07
6.61951e-05
5.59402e-07
6.62022e-05
5.37964e-07
6.62065e-05
5.17255e-07
6.62085e-05
4.97363e-07
6.62084e-05
4.78373e-07
6.62065e-05
4.60376e-07
6.62031e-05
4.4349e-07
6.61985e-05
4.27844e-07
6.61927e-05
4.13695e-07
6.6186e-05
4.01143e-07
6.61787e-05
3.9114e-07
6.61697e-05
3.83471e-07
3.83731e-07
6.61653e-05
6.70079e-05
-9.93575e-07
6.68589e-05
-7.41782e-07
6.68314e-05
-3.8286e-07
6.68578e-05
-1.08997e-07
6.69422e-05
1.80308e-07
6.70457e-05
3.89828e-07
6.71479e-05
5.1135e-07
6.7245e-05
5.86555e-07
6.73357e-05
6.35342e-07
6.74188e-05
6.63102e-07
6.7494e-05
6.74993e-07
6.75615e-05
6.76295e-07
6.76218e-05
6.70547e-07
6.76757e-05
6.59878e-07
6.77237e-05
6.4578e-07
6.77665e-05
6.29389e-07
6.78047e-05
6.11534e-07
6.78387e-05
5.92804e-07
6.78691e-05
5.73626e-07
6.78962e-05
5.54317e-07
6.79205e-05
5.35116e-07
6.79423e-05
5.16205e-07
6.79618e-05
4.97728e-07
6.79794e-05
4.79806e-07
6.79952e-05
4.62551e-07
6.80095e-05
4.46075e-07
6.80225e-05
4.30507e-07
6.80343e-05
4.15985e-07
6.80453e-05
4.02723e-07
6.80556e-05
3.9089e-07
6.80656e-05
3.81077e-07
6.80757e-05
3.73388e-07
3.69837e-07
6.80896e-05
6.90833e-05
-6.92872e-07
6.89333e-05
-5.91801e-07
6.88863e-05
-3.35801e-07
6.88865e-05
-1.09222e-07
6.8934e-05
1.32803e-07
6.90039e-05
3.19986e-07
6.90771e-05
4.38111e-07
6.91489e-05
5.148e-07
6.9218e-05
5.66214e-07
6.92833e-05
5.97753e-07
6.93442e-05
6.14117e-07
6.94005e-05
6.19964e-07
6.94525e-05
6.18549e-07
6.95005e-05
6.11934e-07
6.95447e-05
6.0159e-07
6.95854e-05
5.88636e-07
6.9623e-05
5.73905e-07
6.96578e-05
5.58002e-07
6.96901e-05
5.41374e-07
6.97201e-05
5.24361e-07
6.9748e-05
5.07223e-07
6.9774e-05
4.90161e-07
6.97984e-05
4.73339e-07
6.98213e-05
4.56892e-07
6.98429e-05
4.40941e-07
6.98634e-05
4.25604e-07
6.98829e-05
4.11002e-07
6.99016e-05
3.9726e-07
6.99198e-05
3.84539e-07
6.99377e-05
3.72982e-07
6.99559e-05
3.6289e-07
6.9975e-05
3.54275e-07
3.47573e-07
6.99973e-05
7.11508e-05
-4.77353e-07
7.10202e-05
-4.61194e-07
7.09675e-05
-2.83101e-07
7.09558e-05
-9.75281e-08
7.09831e-05
1.05545e-07
7.10322e-05
2.70856e-07
7.10875e-05
3.82849e-07
7.11435e-05
4.58772e-07
7.11988e-05
5.10902e-07
7.12522e-05
5.44344e-07
7.13029e-05
5.634e-07
7.13507e-05
5.72165e-07
7.13957e-05
5.73613e-07
7.14379e-05
5.6973e-07
7.14775e-05
5.61957e-07
7.15147e-05
5.5139e-07
7.15498e-05
5.38852e-07
7.15829e-05
5.24952e-07
7.16141e-05
5.10149e-07
7.16436e-05
4.94791e-07
7.16717e-05
4.7915e-07
7.16984e-05
4.63437e-07
7.1724e-05
4.47822e-07
7.17484e-05
4.32447e-07
7.17719e-05
4.17435e-07
7.17946e-05
4.02895e-07
7.18167e-05
3.88933e-07
7.18383e-05
3.7565e-07
7.18597e-05
3.63151e-07
7.18812e-05
3.51511e-07
7.19032e-05
3.40824e-07
7.19265e-05
3.30969e-07
3.21764e-07
7.19523e-05
7.32508e-05
-3.22852e-07
7.31391e-05
-3.49557e-07
7.30844e-05
-2.28376e-07
7.30656e-05
-7.87128e-08
7.30803e-05
9.08847e-08
7.31156e-05
2.35483e-07
7.31589e-05
3.39605e-07
7.32046e-05
4.13081e-07
7.32508e-05
4.64688e-07
7.32962e-05
4.98916e-07
7.334e-05
5.1961e-07
7.33818e-05
5.30345e-07
7.34216e-05
5.33814e-07
7.34594e-05
5.31906e-07
7.34954e-05
5.26017e-07
7.35296e-05
5.17216e-07
7.35621e-05
5.06311e-07
7.35931e-05
4.93909e-07
7.36228e-05
4.80473e-07
7.36512e-05
4.66358e-07
7.36786e-05
4.5184e-07
7.37049e-05
4.37135e-07
7.37303e-05
4.22416e-07
7.37549e-05
4.07825e-07
7.37788e-05
3.9348e-07
7.38023e-05
3.79479e-07
7.38253e-05
3.65911e-07
7.38481e-05
3.52845e-07
7.38709e-05
3.40333e-07
7.3894e-05
3.28388e-07
7.39179e-05
3.16974e-07
7.3943e-05
3.05883e-07
2.94744e-07
7.397e-05
7.5393e-05
-2.13414e-07
7.5299e-05
-2.55563e-07
7.5245e-05
-1.74385e-07
7.52219e-05
-5.55697e-08
7.5228e-05
8.48298e-08
7.52534e-05
2.10034e-07
7.52878e-05
3.05186e-07
7.5326e-05
3.74898e-07
7.53657e-05
4.25008e-07
7.54054e-05
4.59191e-07
7.54443e-05
4.80764e-07
7.54818e-05
4.92807e-07
7.55179e-05
4.97728e-07
7.55525e-05
4.97296e-07
7.55857e-05
4.92848e-07
7.56175e-05
4.85414e-07
7.5648e-05
4.75782e-07
7.56773e-05
4.64554e-07
7.57056e-05
4.52191e-07
7.57329e-05
4.39049e-07
7.57594e-05
4.25406e-07
7.5785e-05
4.1148e-07
7.581e-05
3.97445e-07
7.58344e-05
3.83437e-07
7.58583e-05
3.69569e-07
7.58819e-05
3.55928e-07
7.59052e-05
3.42581e-07
7.59285e-05
3.29571e-07
7.59519e-05
3.16909e-07
7.59757e-05
3.04558e-07
7.60003e-05
2.92415e-07
7.60259e-05
2.80245e-07
2.67655e-07
7.6053e-05
7.75831e-05
-1.36895e-07
7.75059e-05
-1.78403e-07
7.74552e-05
-1.23674e-07
7.74299e-05
-3.02551e-08
7.74298e-05
8.48996e-08
7.74477e-05
1.92157e-07
7.74751e-05
2.7772e-07
7.75074e-05
3.42656e-07
7.75419e-05
3.90447e-07
7.75773e-05
4.2388e-07
7.76123e-05
4.45702e-07
7.76466e-05
4.58516e-07
7.76799e-05
4.64443e-07
7.77121e-05
4.65108e-07
7.77432e-05
4.61772e-07
7.77732e-05
4.55417e-07
7.78021e-05
4.46804e-07
7.78302e-05
4.36522e-07
7.78573e-05
4.25026e-07
7.78837e-05
4.1267e-07
7.79094e-05
3.99731e-07
7.79344e-05
3.86426e-07
7.7959e-05
3.72926e-07
7.7983e-05
3.59364e-07
7.80068e-05
3.45844e-07
7.80302e-05
3.32441e-07
7.80536e-05
3.19205e-07
7.8077e-05
3.06158e-07
7.81007e-05
2.93283e-07
7.81247e-05
2.80516e-07
7.81494e-05
2.67725e-07
7.8175e-05
2.54685e-07
2.41049e-07
7.82016e-05
7.98256e-05
-8.41777e-08
7.9764e-05
-1.16853e-07
7.97186e-05
-7.8227e-08
7.9693e-05
-4.68368e-09
7.96888e-05
8.91509e-08
7.97008e-05
1.80116e-07
7.97226e-05
2.55909e-07
7.97499e-05
3.15356e-07
7.97802e-05
3.60149e-07
7.98119e-05
3.9222e-07
7.98439e-05
4.13738e-07
7.98755e-05
4.26853e-07
7.99066e-05
4.33398e-07
7.99368e-05
4.34839e-07
7.99663e-05
4.32342e-07
7.99948e-05
4.26833e-07
8.00226e-05
4.19038e-07
8.00496e-05
4.09525e-07
8.00759e-05
3.9874e-07
8.01015e-05
3.8703e-07
8.01266e-05
3.74669e-07
8.01512e-05
3.61871e-07
8.01753e-05
3.488e-07
8.01991e-05
3.35587e-07
8.02226e-05
3.22326e-07
8.02459e-05
3.09084e-07
8.02692e-05
2.95897e-07
8.02926e-05
2.82771e-07
8.03162e-05
2.69676e-07
8.03402e-05
2.56535e-07
8.03647e-05
2.43217e-07
8.03899e-05
2.29525e-07
2.15178e-07
8.04158e-05
8.21247e-05
-4.84503e-08
8.2077e-05
-6.91432e-08
8.20381e-05
-3.92836e-08
8.20139e-05
1.94738e-08
8.20072e-05
9.58581e-08
8.20149e-05
1.72419e-07
8.20321e-05
2.38675e-07
8.20553e-05
2.92231e-07
8.20819e-05
3.3351e-07
8.21104e-05
3.63703e-07
8.21397e-05
3.84433e-07
8.21691e-05
3.97429e-07
8.21983e-05
4.04242e-07
8.2227e-05
4.06169e-07
8.2255e-05
4.0427e-07
8.22825e-05
3.99403e-07
8.23093e-05
3.92253e-07
8.23354e-05
3.83362e-07
8.2361e-05
3.7316e-07
8.2386e-05
3.61984e-07
8.24106e-05
3.50102e-07
8.24348e-05
3.37721e-07
8.24586e-05
3.25003e-07
8.24821e-05
3.1207e-07
8.25054e-05
2.9901e-07
8.25286e-05
2.85883e-07
8.25518e-05
2.72716e-07
8.2575e-05
2.59506e-07
8.25985e-05
2.46218e-07
8.26223e-05
2.32777e-07
8.26464e-05
2.19066e-07
8.2671e-05
2.04925e-07
1.90138e-07
8.2696e-05
8.4484e-05
-2.46534e-08
8.4448e-05
-3.32041e-08
8.44161e-05
-7.33137e-09
8.43946e-05
4.09262e-08
8.4387e-05
1.03495e-07
8.43917e-05
1.67702e-07
8.44054e-05
2.25021e-07
8.4425e-05
2.72588e-07
8.44485e-05
3.10027e-07
8.44743e-05
3.37938e-07
8.45012e-05
3.57472e-07
8.45287e-05
3.69979e-07
8.45562e-05
3.76744e-07
8.45834e-05
3.78891e-07
8.46104e-05
3.77367e-07
8.46368e-05
3.72957e-07
8.46628e-05
3.66296e-07
8.46882e-05
3.57895e-07
8.47132e-05
3.48165e-07
8.47378e-05
3.37429e-07
8.47619e-05
3.25944e-07
8.47857e-05
3.13912e-07
8.48093e-05
3.01486e-07
8.48325e-05
2.88785e-07
8.48557e-05
2.7589e-07
8.48787e-05
2.62855e-07
8.49017e-05
2.49702e-07
8.49248e-05
2.36428e-07
8.4948e-05
2.22996e-07
8.49714e-05
2.09343e-07
8.49951e-05
1.95371e-07
8.50191e-05
1.80959e-07
1.65947e-07
8.50433e-05
8.69066e-05
-9.09154e-09
8.68803e-05
-6.9122e-09
8.68552e-05
1.77779e-08
8.68373e-05
5.88555e-08
8.683e-05
1.10812e-07
8.68329e-05
1.64737e-07
8.6844e-05
2.13991e-07
8.68608e-05
2.55749e-07
8.68816e-05
2.89213e-07
8.6905e-05
3.14569e-07
8.69299e-05
3.32587e-07
8.69555e-05
3.44292e-07
8.69816e-05
3.50729e-07
8.70076e-05
3.52855e-07
8.70335e-05
3.51503e-07
8.7059e-05
3.47378e-07
8.70843e-05
3.41063e-07
8.71091e-05
3.33034e-07
8.71336e-05
3.23675e-07
8.71578e-05
3.13296e-07
8.71816e-05
3.02139e-07
8.72051e-05
2.90398e-07
8.72283e-05
2.7822e-07
8.72514e-05
2.65717e-07
8.72743e-05
2.52966e-07
8.72972e-05
2.40017e-07
8.732e-05
2.26891e-07
8.73428e-05
2.13585e-07
8.73657e-05
2.0007e-07
8.73888e-05
1.86295e-07
8.7412e-05
1.72186e-07
8.74353e-05
1.57655e-07
1.42588e-07
8.74586e-05
8.93956e-05
8.74828e-10
8.93769e-05
1.1727e-08
8.93581e-05
3.66426e-08
8.9344e-05
7.29162e-08
8.93379e-05
1.16899e-07
8.93402e-05
1.62487e-07
8.93495e-05
2.04702e-07
8.93642e-05
2.41047e-07
8.93828e-05
2.70582e-07
8.94041e-05
2.93243e-07
8.94272e-05
3.09519e-07
8.94513e-05
3.20176e-07
8.9476e-05
3.26049e-07
8.95009e-05
3.27943e-07
8.95258e-05
3.26579e-07
8.95506e-05
3.22583e-07
8.95752e-05
3.16483e-07
8.95995e-05
3.08716e-07
8.96235e-05
2.99639e-07
8.96473e-05
2.89541e-07
8.96708e-05
2.78653e-07
8.9694e-05
2.67156e-07
8.97171e-05
2.55192e-07
8.97399e-05
2.42864e-07
8.97626e-05
2.30249e-07
8.97853e-05
2.17391e-07
8.98078e-05
2.04315e-07
8.98304e-05
1.91019e-07
8.9853e-05
1.77486e-07
8.98756e-05
1.63676e-07
8.98982e-05
1.49539e-07
8.99209e-05
1.35016e-07
1.20029e-07
8.99434e-05
9.19536e-05
7.09182e-09
9.19409e-05
2.44686e-08
9.19274e-05
5.01166e-08
9.19172e-05
8.31586e-08
9.19129e-05
1.2121e-07
9.19152e-05
1.6016e-07
9.19235e-05
1.9639e-07
9.19367e-05
2.27856e-07
9.19536e-05
2.53652e-07
9.19733e-05
2.73602e-07
9.19948e-05
2.88008e-07
9.20175e-05
2.97439e-07
9.2041e-05
3.02561e-07
9.20649e-05
3.04045e-07
9.2089e-05
3.02509e-07
9.21131e-05
2.98504e-07
9.2137e-05
2.92501e-07
9.21609e-05
2.84897e-07
9.21845e-05
2.7602e-07
9.22079e-05
2.66138e-07
9.22311e-05
2.55467e-07
9.2254e-05
2.44177e-07
9.22768e-05
2.32399e-07
9.22995e-05
2.20235e-07
9.2322e-05
2.07753e-07
9.23444e-05
1.95002e-07
9.23667e-05
1.82004e-07
9.23889e-05
1.68767e-07
9.24111e-05
1.55278e-07
9.24333e-05
1.41515e-07
9.24554e-05
1.27447e-07
9.24774e-05
1.13036e-07
9.82355e-08
9.24992e-05
9.45834e-05
1.08276e-08
9.45751e-05
3.27829e-08
9.45661e-05
5.91481e-08
9.45593e-05
8.9917e-08
9.4557e-05
1.23527e-07
9.45599e-05
1.5723e-07
9.45679e-05
1.88459e-07
9.45801e-05
2.15631e-07
9.45958e-05
2.37977e-07
9.46141e-05
2.55298e-07
9.46343e-05
2.6779e-07
9.46558e-05
2.75886e-07
9.46783e-05
2.80122e-07
9.47013e-05
2.81055e-07
9.47246e-05
2.79214e-07
9.4748e-05
2.7508e-07
9.47714e-05
2.6907e-07
9.47948e-05
2.61542e-07
9.4818e-05
2.52795e-07
9.48411e-05
2.43072e-07
9.4864e-05
2.32574e-07
9.48867e-05
2.21459e-07
9.49092e-05
2.09851e-07
9.49316e-05
1.97842e-07
9.49539e-05
1.85502e-07
9.4976e-05
1.72876e-07
9.4998e-05
1.59991e-07
9.50199e-05
1.46858e-07
9.50417e-05
1.33476e-07
9.50634e-05
1.19835e-07
9.50849e-05
1.05918e-07
9.51063e-05
9.17067e-08
7.71753e-08
9.51273e-05
9.72874e-05
1.29411e-08
9.72823e-05
3.78568e-08
9.72768e-05
6.46687e-08
9.7273e-05
9.36965e-08
9.72727e-05
1.23895e-07
9.72765e-05
1.53428e-07
9.72844e-05
1.80504e-07
9.72961e-05
2.03953e-07
9.73109e-05
2.23178e-07
9.73282e-05
2.38017e-07
9.73473e-05
2.48619e-07
9.73679e-05
2.5533e-07
9.73894e-05
2.58591e-07
9.74116e-05
2.58869e-07
9.74342e-05
2.56618e-07
9.7457e-05
2.52256e-07
9.748e-05
2.46153e-07
9.75029e-05
2.38627e-07
9.75257e-05
2.29947e-07
9.75485e-05
2.20335e-07
9.75711e-05
2.09975e-07
9.75935e-05
1.99011e-07
9.76158e-05
1.87559e-07
9.76379e-05
1.75706e-07
9.76599e-05
1.63519e-07
9.76818e-05
1.51041e-07
9.77034e-05
1.38304e-07
9.7725e-05
1.25323e-07
9.77463e-05
1.12105e-07
9.77675e-05
9.86504e-08
9.77885e-05
8.49556e-08
9.78092e-05
7.10161e-08
5.68203e-08
9.78295e-05
0.000100068
1.40093e-08
0.000100065
4.0624e-08
0.000100062
6.75292e-08
0.000100061
9.50798e-08
0.000100062
1.22551e-07
0.000100067
1.48704e-07
0.000100075
1.72311e-07
0.000100087
1.92541e-07
0.000100101
2.08972e-07
0.000100117
2.21506e-07
0.000100136
2.30286e-07
0.000100155
2.35606e-07
0.000100176
2.37841e-07
0.000100198
2.37393e-07
0.00010022
2.34653e-07
0.000100242
2.29987e-07
0.000100264
2.23719e-07
0.000100287
2.16132e-07
0.000100309
2.07468e-07
0.000100332
1.97927e-07
0.000100354
1.87675e-07
0.000100376
1.76844e-07
0.000100398
1.65542e-07
0.00010042
1.53849e-07
0.000100442
1.41828e-07
0.000100463
1.29525e-07
0.000100485
1.16971e-07
0.000100506
1.04186e-07
0.000100527
9.11848e-08
0.000100547
7.79749e-08
0.000100568
6.45631e-08
0.000100588
5.0954e-08
3.71473e-08
0.000100607
0.000102928
1.44194e-08
0.000102926
4.18088e-08
0.000102926
6.84746e-08
0.000102926
9.46641e-08
0.000102929
1.19848e-07
0.000102934
1.43182e-07
0.000102943
1.6384e-07
0.000102954
1.81263e-07
0.000102968
1.9519e-07
0.000102984
2.05596e-07
0.000103001
2.12638e-07
0.00010302
2.16587e-07
0.00010304
2.17775e-07
0.000103061
2.16554e-07
0.000103083
2.13267e-07
0.000103104
2.08235e-07
0.000103126
2.01745e-07
0.000103148
1.94048e-07
0.00010317
1.85358e-07
0.000103193
1.75854e-07
0.000103215
1.65687e-07
0.000103236
1.54977e-07
0.000103258
1.43821e-07
0.00010328
1.32295e-07
0.000103301
1.20457e-07
0.000103322
1.08354e-07
0.000103343
9.60163e-08
0.000103364
8.34695e-08
0.000103384
7.07317e-08
0.000103405
5.78173e-08
0.000103424
4.47394e-08
0.000103444
3.15099e-08
1.81355e-08
0.000103463
0.000105869
1.44346e-08
0.000105869
4.19731e-08
0.000105869
6.81448e-08
0.000105871
9.30267e-08
0.000105874
1.16206e-07
0.00010588
1.37107e-07
0.000105889
1.55194e-07
0.0001059
1.70127e-07
0.000105913
1.81782e-07
0.000105929
1.90211e-07
0.000105946
1.95596e-07
0.000105964
1.98202e-07
0.000105984
1.98334e-07
0.000106004
1.96308e-07
0.000106025
1.92431e-07
0.000106046
1.86986e-07
0.000106068
1.80227e-07
0.000106089
1.72376e-07
0.000106111
1.63624e-07
0.000106133
1.54131e-07
0.000106154
1.4403e-07
0.000106176
1.3343e-07
0.000106197
1.22419e-07
0.000106218
1.11068e-07
0.00010624
9.94307e-08
0.00010626
8.7551e-08
0.000106281
7.54618e-08
0.000106301
6.319e-08
0.000106321
5.07567e-08
0.000106341
3.81813e-08
0.00010636
2.54805e-08
0.000106379
1.26714e-08
-2.35839e-10
0.000106397
0.000108894
1.42403e-08
0.000108894
4.15622e-08
0.000108895
6.70932e-08
0.000108897
9.07152e-08
0.000108901
1.12085e-07
0.000108908
1.30816e-07
0.000108916
1.46595e-07
0.000108927
1.59261e-07
0.00010894
1.68813e-07
0.000108955
1.75376e-07
0.000108971
1.79165e-07
0.000108989
1.80448e-07
0.000109008
1.79515e-07
0.000109028
1.76657e-07
0.000109048
1.7215e-07
0.000109069
1.66249e-07
0.00010909
1.59178e-07
0.000109111
1.51135e-07
0.000109132
1.42288e-07
0.000109154
1.32779e-07
0.000109175
1.22727e-07
0.000109196
1.12228e-07
0.000109217
1.01362e-07
0.000109238
9.01917e-08
0.000109259
7.87692e-08
0.000109279
6.71347e-08
0.000109299
5.53215e-08
0.000109319
4.33564e-08
0.000109339
3.12635e-08
0.000109358
1.90633e-08
0.000109377
6.77615e-09
0.000109395
-5.5795e-09
-1.79908e-08
0.000109413
0.000112005
1.39759e-08
0.000112005
4.09473e-08
0.000112007
6.58166e-08
0.000112009
8.82582e-08
0.000112013
1.07969e-07
0.000112019
1.24715e-07
0.000112028
1.3836e-07
0.000112038
1.48903e-07
0.00011205
1.56456e-07
0.000112064
1.61217e-07
0.00011208
1.63437e-07
0.000112097
1.63394e-07
0.000112115
1.61373e-07
0.000112134
1.57645e-07
0.000112154
1.52465e-07
0.000112174
1.46061e-07
0.000112195
1.38634e-07
0.000112216
1.30357e-07
0.000112236
1.2138e-07
0.000112257
1.11828e-07
0.000112278
1.01804e-07
0.000112299
9.1394e-08
0.00011232
8.0668e-08
0.00011234
6.96833e-08
0.000112361
5.84859e-08
0.000112381
4.71138e-08
0.0001124
3.55986e-08
0.00011242
2.39671e-08
0.000112439
1.22431e-08
0.000112457
4.48692e-10
0.000112476
-1.13956e-08
0.000112493
-2.32704e-08
-3.51623e-08
0.00011251
0.000115205
1.37598e-08
0.000115205
4.04675e-08
0.000115206
6.47942e-08
0.000115208
8.61929e-08
0.000115212
1.04389e-07
0.000115217
1.1928e-07
0.000115225
1.309e-07
0.000115234
1.39392e-07
0.000115246
1.44985e-07
0.000115259
1.47952e-07
0.000115274
1.48586e-07
0.00011529
1.47183e-07
0.000115307
1.44024e-07
0.000115326
1.39369e-07
0.000115345
1.33455e-07
0.000115364
1.26488e-07
0.000115384
1.18648e-07
0.000115404
1.10088e-07
0.000115425
1.00938e-07
0.000115445
9.13063e-08
0.000115466
8.12837e-08
0.000115486
7.09442e-08
0.000115507
6.03484e-08
0.000115527
4.95465e-08
0.000115547
3.8579e-08
0.000115566
2.74804e-08
0.000115586
1.62795e-08
0.000115605
5.00166e-09
0.000115623
-6.33047e-09
0.000115641
-1.76954e-08
0.000115659
-2.90733e-08
0.000115676
-4.04452e-08
-5.17989e-08
0.000115693
0.000118496
1.3709e-08
0.000118496
4.0473e-08
0.000118496
6.4538e-08
0.000118497
8.51095e-08
0.0001185
1.01943e-07
0.000118504
1.1508e-07
0.00011851
1.24721e-07
0.000118518
1.31169e-07
0.000118529
1.34775e-07
0.000118541
1.35894e-07
0.000118554
1.34871e-07
0.000118569
1.32022e-07
0.000118586
1.27635e-07
0.000118603
1.21962e-07
0.000118621
1.15225e-07
0.00011864
1.07612e-07
0.00011866
9.92817e-08
0.000118679
9.03702e-08
0.000118699
8.0989e-08
0.000118719
7.12307e-08
0.00011874
6.11719e-08
0.00011876
5.08745e-08
0.00011878
4.03903e-08
0.000118799
2.97606e-08
0.000118819
1.90208e-08
0.000118838
8.19968e-09
0.000118857
-2.67707e-09
0.000118876
-1.35876e-08
0.000118894
-2.45109e-08
0.000118912
-3.54282e-08
0.000118929
-4.63207e-08
0.000118946
-5.71722e-08
-6.79712e-08
0.000118962
0.000121881
1.39611e-08
0.00012188
4.13808e-08
0.000121879
6.56612e-08
0.000121878
8.57188e-08
0.000121879
1.01364e-07
0.000121881
1.12811e-07
0.000121886
1.20459e-07
0.000121892
1.24791e-07
0.0001219
1.263e-07
0.000121911
1.25439e-07
0.000121923
1.22613e-07
0.000121937
1.1817e-07
0.000121952
1.12408e-07
0.000121969
1.05577e-07
0.000121986
9.78861e-08
0.000122004
8.9507e-08
0.000122023
8.05818e-08
0.000122042
7.12267e-08
0.000122061
6.15356e-08
0.000122081
5.15855e-08
0.000122101
4.14378e-08
0.00012212
3.11427e-08
0.00012214
2.07405e-08
0.00012216
1.02645e-08
0.000122179
-2.5821e-10
0.000122198
-1.08042e-08
0.000122217
-2.13536e-08
0.000122235
-3.1888e-08
0.000122253
-4.23909e-08
0.00012227
-5.28458e-08
0.000122287
-6.32379e-08
0.000122303
-7.3553e-08
-8.37829e-08
0.000122319
0.000125363
1.47036e-08
0.00012536
4.37524e-08
0.000125357
6.89773e-08
0.000125354
8.89494e-08
0.000125352
1.03594e-07
0.000125351
1.13364e-07
0.000125353
1.18912e-07
0.000125356
1.20948e-07
0.000125363
1.20137e-07
0.000125371
1.17055e-07
0.000125381
1.1218e-07
0.000125394
1.05905e-07
0.000125408
9.85434e-08
0.000125423
9.03477e-08
0.000125439
8.15167e-08
0.000125456
7.22075e-08
0.000125474
6.25437e-08
0.000125493
5.2622e-08
0.000125512
4.25182e-08
0.000125531
3.22912e-08
0.000125551
2.19869e-08
0.00012557
1.16412e-08
0.00012559
1.28247e-09
0.000125609
-9.06697e-09
0.000125628
-1.93887e-08
0.000125647
-2.96674e-08
0.000125666
-3.98895e-08
0.000125684
-5.00426e-08
0.000125702
-6.01149e-08
0.000125719
-7.00949e-08
0.000125735
-7.99715e-08
0.000125752
-8.97347e-08
-9.93796e-08
0.000125767
0.000128944
1.62233e-08
0.000128939
4.84208e-08
0.000128932
7.56541e-08
0.000128925
9.60931e-08
0.000128919
1.09906e-07
0.000128914
1.17906e-07
0.000128912
1.21093e-07
0.000128913
1.20477e-07
0.000128916
1.16952e-07
0.000128922
1.11246e-07
0.00012893
1.03936e-07
0.00012894
9.54668e-08
0.000128953
8.61793e-08
0.000128967
7.63282e-08
0.000128982
6.61036e-08
0.000128999
5.56458e-08
0.000129016
4.50581e-08
0.000129034
3.44151e-08
0.000129053
2.37712e-08
0.000129072
1.31646e-08
0.000129091
2.62303e-09
0.000129111
-7.83476e-09
0.00012913
-1.8195e-08
0.00012915
-2.84483e-08
0.000129169
-3.85874e-08
0.000129188
-4.86069e-08
0.000129207
-5.85015e-08
0.000129225
-6.82665e-08
0.000129243
-7.78963e-08
0.00012926
-8.73857e-08
0.000129277
-9.67286e-08
0.000129293
-1.0592e-07
-1.14959e-07
0.000129308
0.000132626
1.89979e-08
0.000132618
5.67097e-08
0.000132606
8.74594e-08
0.000132593
1.09019e-07
0.000132581
1.22064e-07
0.000132571
1.27972e-07
0.000132564
1.28252e-07
0.00013256
1.24342e-07
0.00013256
1.17441e-07
0.000132562
1.08476e-07
0.000132568
9.81445e-08
0.000132577
8.69616e-08
0.000132587
7.52943e-08
0.0001326
6.33998e-08
0.000132615
5.14543e-08
0.000132631
3.95759e-08
0.000132648
2.78405e-08
0.000132666
1.62956e-08
0.000132685
4.96725e-09
0.000132705
-6.1307e-09
0.000132724
-1.69949e-08
0.000132744
-2.76263e-08
0.000132764
-3.80304e-08
0.000132784
-4.82133e-08
0.000132803
-5.81823e-08
0.000132823
-6.79435e-08
0.000132842
-7.75029e-08
0.00013286
-8.68646e-08
0.000132878
-9.6032e-08
0.000132896
-1.05006e-07
0.000132913
-1.13789e-07
0.000132929
-1.2238e-07
-1.30784e-07
0.000132945
0.000136413
2.38824e-08
0.000136399
7.08315e-08
0.00013638
1.07161e-07
0.000136358
1.30483e-07
0.000136338
1.42507e-07
0.00013632
1.45531e-07
0.000136307
1.41853e-07
0.000136297
1.33536e-07
0.000136293
1.22192e-07
0.000136292
1.09003e-07
0.000136295
9.48109e-08
0.000136302
8.0202e-08
0.000136312
6.55633e-08
0.000136324
5.11412e-08
0.000136338
3.70839e-08
0.000136355
2.3473e-08
0.000136372
1.03455e-08
0.000136391
-2.29083e-09
0.00013641
-1.44458e-08
0.00013643
-2.614e-08
0.000136451
-3.73991e-08
0.000136471
-4.82514e-08
0.000136492
-5.87247e-08
0.000136512
-6.88458e-08
0.000136533
-7.86387e-08
0.000136553
-8.81252e-08
0.000136573
-9.73239e-08
0.000136592
-1.06251e-07
0.000136611
-1.14918e-07
0.00013663
-1.23337e-07
0.000136647
-1.31517e-07
0.000136664
-1.39464e-07
-1.47188e-07
0.000136681
0.000140307
3.24958e-08
0.000140283
9.46212e-08
0.000140251
1.39165e-07
0.000140217
1.64531e-07
0.000140185
1.74514e-07
0.000140158
1.72945e-07
0.000140136
1.63381e-07
0.000140121
1.48814e-07
0.000140112
1.31399e-07
0.000140108
1.12606e-07
0.00014011
9.3424e-08
0.000140115
7.44858e-08
0.000140125
5.61665e-08
0.000140137
3.86675e-08
0.000140152
2.20798e-08
0.000140169
6.42232e-09
0.000140188
-8.32784e-09
0.000140208
-2.22195e-08
0.000140229
-3.53124e-08
0.00014025
-4.76721e-08
0.000140272
-5.93625e-08
0.000140294
-7.04458e-08
0.000140317
-8.0978e-08
0.000140339
-9.10107e-08
0.000140361
-1.00589e-07
0.000140382
-1.09752e-07
0.000140404
-1.18535e-07
0.000140424
-1.26966e-07
0.000140445
-1.35071e-07
0.000140464
-1.42869e-07
0.000140483
-1.50379e-07
0.000140501
-1.57615e-07
-1.64593e-07
0.000140518
0.000144309
4.8088e-08
0.000144269
1.34887e-07
0.000144217
1.90469e-07
0.000144165
2.16929e-07
0.000144117
2.22179e-07
0.000144078
2.12623e-07
0.000144047
1.93854e-07
0.000144026
1.7018e-07
0.000144013
1.44376e-07
0.000144007
1.18165e-07
0.000144008
9.26114e-08
0.000144014
6.83161e-08
0.000144025
4.5565e-08
0.000144039
2.44514e-08
0.000144056
4.95675e-09
0.000144076
-1.30002e-08
0.000144097
-2.95339e-08
0.000144119
-4.47711e-08
0.000144143
-5.88403e-08
0.000144167
-7.18634e-08
0.000144192
-8.3954e-08
0.000144216
-9.5214e-08
0.000144241
-1.05735e-07
0.000144266
-1.15597e-07
0.00014429
-1.2487e-07
0.000144314
-1.33613e-07
0.000144337
-1.4188e-07
0.00014436
-1.49715e-07
0.000144382
-1.57154e-07
0.000144404
-1.6423e-07
0.000144424
-1.7097e-07
0.000144444
-1.77397e-07
-1.83535e-07
0.000144463
0.000148418
7.75953e-08
0.000148349
2.03839e-07
0.000148268
2.71872e-07
0.00014819
2.95305e-07
0.000148122
2.89849e-07
0.000148069
2.66103e-07
0.00014803
2.32842e-07
0.000148004
1.96025e-07
0.000147989
1.58876e-07
0.000147984
1.23131e-07
0.000147987
8.97341e-08
0.000147996
5.9089e-08
0.000148011
3.12574e-08
0.000148029
6.12459e-09
0.00014805
-1.65072e-08
0.000148074
-3.68709e-08
0.0001481
-5.52071e-08
0.000148127
-7.17476e-08
0.000148155
-8.67066e-08
0.000148183
-1.00277e-07
0.000148212
-1.12631e-07
0.000148241
-1.23918e-07
0.000148269
-1.34269e-07
0.000148297
-1.43796e-07
0.000148325
-1.52598e-07
0.000148352
-1.60758e-07
0.000148379
-1.68346e-07
0.000148404
-1.75423e-07
0.000148429
-1.8204e-07
0.000148453
-1.88242e-07
0.000148476
-1.94066e-07
0.000148499
-1.99543e-07
-2.04704e-07
0.00014852
0.000152631
1.36093e-07
0.000152511
3.23599e-07
0.000152383
3.99258e-07
0.00015227
4.08291e-07
0.00015218
3.80324e-07
0.000152114
3.32122e-07
0.00015207
2.76873e-07
0.000152044
2.21948e-07
0.000152033
1.70234e-07
0.000152033
1.22904e-07
0.000152042
8.04181e-08
0.000152059
4.27192e-08
0.00015208
9.45912e-09
0.000152106
-1.98086e-08
0.000152135
-4.55399e-08
0.000152167
-6.81716e-08
0.0001522
-8.81064e-08
0.000152234
-1.05705e-07
0.000152268
-1.21285e-07
0.000152303
-1.3512e-07
0.000152338
-1.47448e-07
0.000152372
-1.58473e-07
0.000152406
-1.68369e-07
0.00015244
-1.77283e-07
0.000152473
-1.85343e-07
0.000152505
-1.92655e-07
0.000152536
-1.99311e-07
0.000152565
-2.05387e-07
0.000152594
-2.1095e-07
0.000152622
-2.16054e-07
0.000152649
-2.20747e-07
0.000152674
-2.25071e-07
-2.2906e-07
0.000152699
0.000156933
2.54127e-07
0.000156722
5.34906e-07
0.000156526
5.95147e-07
0.000156371
5.63224e-07
0.00015626
4.91384e-07
0.000156189
4.03432e-07
0.000156149
3.17075e-07
0.000156132
2.39096e-07
0.000156132
1.70121e-07
0.000156145
1.09798e-07
0.000156168
5.76399e-08
0.000156197
1.2804e-08
0.000156233
-2.56807e-08
0.000156272
-5.87126e-08
0.000156313
-8.70756e-08
0.000156356
-1.11452e-07
0.000156401
-1.32437e-07
0.000156446
-1.50538e-07
0.00015649
-1.66187e-07
0.000156535
-1.79747e-07
0.000156579
-1.91528e-07
0.000156622
-2.01788e-07
0.000156665
-2.10747e-07
0.000156706
-2.18588e-07
0.000156746
-2.25468e-07
0.000156785
-2.31516e-07
0.000156823
-2.36845e-07
0.000156859
-2.41546e-07
0.000156894
-2.457e-07
0.000156927
-2.49372e-07
0.000156959
-2.5262e-07
0.000156989
-2.55492e-07
-2.58036e-07
0.000157018
0.00016129
5.02251e-07
0.000160918
9.06969e-07
0.00016063
8.8362e-07
0.000160432
7.60806e-07
0.000160312
6.1113e-07
0.000160253
4.6299e-07
0.000160234
3.3638e-07
0.000160241
2.31819e-07
0.000160267
1.44196e-07
0.000160306
7.05847e-08
0.000160354
9.1821e-09
0.000160409
-4.19474e-08
0.000160468
-8.46085e-08
0.00016053
-1.20261e-07
0.000160593
-1.50068e-07
0.000160656
-1.74999e-07
0.00016072
-1.95862e-07
0.000160782
-2.13331e-07
0.000160844
-2.27962e-07
0.000160905
-2.40214e-07
0.000160964
-2.50467e-07
0.000161021
-2.5904e-07
0.000161076
-2.66193e-07
0.00016113
-2.72145e-07
0.000161181
-2.77079e-07
0.000161231
-2.81146e-07
0.000161279
-2.84473e-07
0.000161324
-2.87166e-07
0.000161368
-2.89313e-07
0.00016141
-2.90988e-07
0.000161449
-2.92252e-07
0.000161487
-2.93156e-07
-2.9375e-07
0.000161523
0.000165509
1.14674e-06
0.000164895
1.52075e-06
0.000164546
1.23314e-06
0.000164348
9.58446e-07
0.000164265
6.94175e-07
0.000164259
4.69508e-07
0.000164294
3.00638e-07
0.000164355
1.71009e-07
0.000164433
6.63989e-08
0.000164522
-1.86242e-08
0.000164618
-8.71491e-08
0.000164719
-1.42304e-07
0.000164821
-1.86798e-07
0.000164923
-2.22677e-07
0.000165025
-2.5152e-07
0.000165125
-2.74617e-07
0.000165222
-2.93036e-07
0.000165316
-3.0764e-07
0.000165407
-3.19125e-07
0.000165495
-3.28053e-07
0.000165579
-3.34885e-07
0.00016566
-3.39991e-07
0.000165738
-3.43677e-07
0.000165812
-3.4619e-07
0.000165883
-3.47735e-07
0.00016595
-3.48478e-07
0.000166014
-3.48558e-07
0.000166075