/*--------------------------------*- C++ -*----------------------------------*\
| =========                 |                                                 |
| \\      /  F ield         | OpenFOAM: The Open Source CFD Toolbox           |
|  \\    /   O peration     | Version:  4.1                                   |
|   \\  /    A nd           | Web:      www.OpenFOAM.org                      |
|    \\/     M anipulation  |                                                 |
\*---------------------------------------------------------------------------*/
FoamFile
{
    version     2.0;
    format      ascii;
    class       volScalarField;
    location    "1400";
    object      p;
}
// * * * * * * * * * * * * * * * * * * * * * * * * * * * * * * * * * * * * * //

dimensions      [0 2 -2 0 0 0 0];

internalField   nonuniform List<scalar> 
26785
(
-225.625
-224.848
-225.241
-227.437
-230.815
-235.084
-239.769
-244.38
-248.301
-250.8
-251.065
-248.239
-241.463
-229.934
-212.983
-190.126
-161.081
-125.769
-84.2926
-36.9122
15.9919
73.9509
136.439
202.896
272.745
345.406
420.309
496.894
574.618
652.953
731.379
809.38
886.443
962.049
1035.68
1106.81
1174.95
1239.63
1300.59
1357.71
1410.87
1460.06
1505.58
1547.24
1584.58
1617.34
1645.42
1668.73
1687.28
1701.11
1710.31
1715.12
1716.03
1713.94
1709.96
1705.14
1700.25
1695.69
1691.25
1686.54
1681.21
1675.07
1668.04
1660.21
1651.72
1642.72
1633.48
1624.34
1615.6
1607.34
1599.76
1593.32
1586.8
1577.78
1567.31
1558.18
1548.97
1537.97
1524.56
1507.75
1487.61
1464.15
1437.36
1407.19
1373.54
1336.2
1294.89
1249.25
1198.83
1143.15
1081.6
1013.55
938.109
854.534
760.936
657.503
537.503
411.348
241.208
125.671
-225.61
-224.826
-225.219
-227.417
-230.797
-235.072
-239.762
-244.382
-248.315
-250.83
-251.111
-248.304
-241.549
-230.04
-213.108
-190.266
-161.234
-125.93
-84.4596
-37.0813
15.8235
73.7858
136.279
202.743
272.6
345.272
420.185
496.782
574.519
652.868
731.309
809.327
886.407
962.034
1035.69
1106.84
1175
1239.7
1300.66
1357.77
1410.89
1460.04
1505.54
1547.21
1584.54
1617.29
1645.36
1668.68
1687.24
1701.09
1710.34
1715.2
1716.15
1714.06
1710.04
1705.15
1700.24
1695.69
1691.28
1686.61
1681.3
1675.17
1668.14
1660.31
1651.82
1642.83
1633.58
1624.43
1615.66
1607.41
1599.8
1593.07
1586.23
1577.47
1567.11
1557.52
1548.3
1537.82
1524.48
1507.51
1487.27
1463.76
1436.95
1406.78
1373.14
1335.81
1294.5
1248.86
1198.43
1142.72
1081.16
1013.1
937.664
854.121
760.57
657.253
537.317
411.486
241.145
126.453
-225.588
-224.782
-225.176
-227.378
-230.764
-235.047
-239.751
-244.389
-248.346
-250.89
-251.207
-248.439
-241.725
-230.257
-213.362
-190.552
-161.544
-126.258
-84.7979
-37.4235
15.4832
73.4522
135.957
202.435
272.31
345.001
419.936
496.557
574.32
652.697
731.168
809.22
886.339
962.008
1035.71
1106.91
1175.12
1239.85
1300.82
1357.91
1410.96
1460.03
1505.52
1547.18
1584.5
1617.23
1645.27
1668.57
1687.12
1701
1710.32
1715.28
1716.32
1714.26
1710.18
1705.19
1700.22
1695.69
1691.35
1686.76
1681.47
1675.35
1668.32
1660.49
1652
1643.01
1633.77
1624.6
1615.8
1607.54
1599.99
1593.13
1585.91
1577.03
1566.9
1557.14
1547.68
1537.14
1523.83
1506.82
1486.51
1462.95
1436.12
1405.95
1372.31
1334.98
1293.66
1247.98
1197.51
1141.76
1080.16
1012.1
936.705
853.258
759.841
656.771
537.042
411.748
241.338
127.587
-225.549
-224.717
-225.111
-227.319
-230.716
-235.013
-239.735
-244.401
-248.394
-250.984
-251.354
-248.646
-241.994
-230.587
-213.748
-190.986
-162.016
-126.757
-85.3124
-37.944
14.9655
72.9447
135.466
201.966
271.866
344.588
419.556
496.213
574.015
652.434
730.952
809.056
886.233
961.967
1035.74
1107.02
1175.29
1240.08
1301.07
1358.13
1411.1
1460.08
1505.55
1547.21
1584.51
1617.2
1645.21
1668.47
1687
1700.87
1710.24
1715.31
1716.48
1714.48
1710.37
1705.25
1700.17
1695.71
1691.46
1686.98
1681.74
1675.63
1668.59
1660.75
1652.26
1643.27
1634.02
1624.83
1615.99
1607.69
1600.08
1593.07
1585.62
1576.65
1566.55
1556.58
1546.79
1536.05
1522.69
1505.71
1485.34
1461.73
1434.87
1404.68
1371.01
1333.65
1292.28
1246.55
1196.02
1140.23
1078.62
1010.6
935.286
851.994
758.779
656.045
536.638
411.997
241.785
128.621
-225.491
-224.628
-225.026
-227.243
-230.653
-234.969
-239.718
-244.419
-248.461
-251.112
-251.554
-248.925
-242.357
-231.032
-214.269
-191.572
-162.653
-127.43
-86.0072
-38.6468
14.2664
72.2592
134.802
201.331
271.267
344.028
419.042
495.747
573.601
652.078
730.66
808.835
886.091
961.913
1035.78
1107.16
1175.53
1240.4
1301.41
1358.45
1411.32
1460.18
1505.64
1547.31
1584.59
1617.25
1645.21
1668.42
1686.89
1700.74
1710.12
1715.28
1716.58
1714.67
1710.53
1705.34
1700.09
1695.75
1691.65
1687.28
1682.09
1675.99
1668.95
1661.09
1652.58
1643.58
1634.33
1625.13
1616.26
1607.91
1600.23
1593.01
1585.32
1576.25
1566.16
1556
1545.8
1534.67
1521.12
1504.16
1483.75
1460.09
1433.19
1402.95
1369.24
1331.82
1290.39
1244.59
1194.01
1138.18
1076.58
1008.6
933.387
850.266
757.286
654.929
535.949
411.99
242.385
129.165
-225.398
-224.52
-224.92
-227.148
-230.576
-234.917
-239.699
-244.446
-248.549
-251.276
-251.808
-249.28
-242.818
-231.597
-214.93
-192.315
-163.459
-128.282
-86.8866
-39.5364
13.3815
71.3913
133.962
200.527
270.507
343.319
418.388
495.155
573.076
651.626
730.288
808.553
885.909
961.844
1035.83
1107.35
1175.84
1240.8
1301.85
1358.86
1411.61
1460.37
1505.82
1547.5
1584.77
1617.39
1645.3
1668.44
1686.85
1700.65
1710.02
1715.22
1716.62
1714.78
1710.64
1705.43
1700.01
1695.82
1691.92
1687.66
1682.53
1676.45
1669.39
1661.5
1652.98
1643.96
1634.69
1625.46
1616.55
1608.15
1600.37
1592.93
1585
1575.8
1565.65
1555.3
1544.67
1533.07
1519.23
1502.21
1481.78
1458.06
1431.1
1400.8
1367.03
1329.53
1288.03
1242.15
1191.51
1135.65
1074.04
1006.11
930.988
848.042
755.318
653.356
534.904
411.6
243.085
129.074
-225.296
-224.388
-224.794
-227.037
-230.487
-234.859
-239.68
-244.482
-248.658
-251.478
-252.118
-249.711
-243.377
-232.283
-215.731
-193.216
-164.439
-129.317
-87.9546
-40.6169
12.3064
70.3365
132.94
199.55
269.583
342.455
417.592
494.433
572.435
651.073
729.834
808.209
885.689
961.761
1035.9
1107.57
1176.21
1241.28
1302.38
1359.35
1411.98
1460.65
1506.11
1547.81
1585.06
1617.65
1645.51
1668.57
1686.91
1700.63
1709.96
1715.16
1716.62
1714.84
1710.65
1705.39
1700.01
1695.96
1692.29
1688.14
1683.06
1676.98
1669.91
1661.99
1653.44
1644.39
1635.1
1625.84
1616.89
1608.42
1600.5
1592.83
1584.64
1575.3
1565.05
1554.45
1543.42
1531.32
1517.11
1499.92
1479.45
1455.67
1428.63
1398.26
1364.39
1326.8
1285.21
1239.25
1188.53
1132.63
1071.01
1003.12
928.091
845.321
752.871
651.312
533.492
410.783
243.869
128.353
-225.178
-224.234
-224.649
-226.909
-230.387
-234.794
-239.661
-244.528
-248.79
-251.718
-252.486
-250.221
-244.037
-233.092
-216.677
-194.279
-165.595
-130.539
-89.2152
-41.8925
11.0368
69.0906
131.733
198.394
268.489
341.433
416.65
493.578
571.675
650.418
729.295
807.8
885.426
961.661
1035.98
1107.83
1176.65
1241.86
1303.02
1359.95
1412.43
1461.03
1506.51
1548.24
1585.49
1618.05
1645.85
1668.84
1687.08
1700.73
1709.99
1715.15
1716.61
1714.85
1710.58
1705.19
1700.01
1696.16
1692.78
1688.73
1683.67
1677.59
1670.5
1662.55
1653.96
1644.88
1635.55
1626.26
1617.26
1608.7
1600.62
1592.69
1584.23
1574.72
1564.33
1553.46
1542.02
1529.43
1514.8
1497.36
1476.78
1452.93
1425.8
1395.32
1361.35
1323.65
1281.95
1235.89
1185.09
1129.14
1067.5
999.639
924.699
842.1
749.937
648.776
531.684
409.487
244.675
126.97
-225.038
-224.059
-224.484
-226.765
-230.275
-234.724
-239.645
-244.585
-248.946
-251.998
-252.912
-250.81
-244.8
-234.026
-217.77
-195.508
-166.93
-131.951
-90.6727
-43.3675
9.56856
67.6493
130.335
197.055
267.221
340.247
415.556
492.584
570.792
649.656
728.669
807.325
885.12
961.544
1036.07
1108.14
1177.17
1242.53
1303.76
1360.64
1412.97
1461.52
1507.03
1548.81
1586.06
1618.59
1646.34
1669.25
1687.4
1700.95
1710.12
1715.21
1716.62
1714.82
1710.45
1704.84
1699.98
1696.46
1693.39
1689.42
1684.38
1678.29
1671.17
1663.17
1654.54
1645.41
1636.05
1626.72
1617.64
1608.98
1600.7
1592.5
1583.76
1574.04
1563.47
1552.32
1540.46
1527.39
1512.33
1494.59
1473.81
1449.86
1422.62
1392.02
1357.92
1320.1
1278.26
1232.09
1181.2
1125.18
1063.51
995.66
920.795
838.353
746.478
645.697
529.411
407.628
245.403
124.838
-224.879
-223.862
-224.3
-226.605
-230.153
-234.65
-239.632
-244.654
-249.125
-252.317
-253.396
-251.479
-245.666
-235.086
-219.011
-196.904
-168.449
-133.557
-92.3309
-45.0461
7.89727
66.0082
128.744
195.529
265.775
338.894
414.306
491.449
569.782
648.785
727.951
806.779
884.768
961.406
1036.16
1108.48
1177.75
1243.3
1304.62
1361.43
1413.61
1462.13
1507.69
1549.52
1586.8
1619.31
1647.01
1669.84
1687.89
1701.32
1710.37
1715.36
1716.68
1714.8
1710.3
1704.46
1699.98
1696.89
1694.12
1690.21
1685.17
1679.05
1671.9
1663.86
1655.17
1646
1636.58
1627.2
1618.04
1609.24
1600.75
1592.25
1583.21
1573.26
1562.46
1551
1538.74
1525.19
1509.69
1491.62
1470.61
1446.49
1419.12
1388.38
1354.13
1316.15
1274.18
1227.87
1176.86
1120.76
1059.03
991.177
916.368
834.059
742.461
642.032
526.607
405.138
245.944
121.865
-224.686
-223.644
-224.098
-226.431
-230.021
-234.572
-239.621
-244.735
-249.329
-252.677
-253.94
-252.23
-246.636
-236.275
-220.402
-198.471
-170.154
-135.361
-94.194
-46.9326
6.01853
64.1628
126.953
193.812
264.147
337.369
412.897
490.168
568.642
647.799
727.138
806.161
884.367
961.246
1036.27
1108.86
1178.39
1244.15
1305.57
1362.33
1414.35
1462.87
1508.5
1550.39
1587.7
1620.2
1647.85
1670.61
1688.54
1701.85
1710.76
1715.61
1716.8
1714.79
1710.16
1704.13
1700.06
1697.45
1694.93
1691.11
1686.05
1679.89
1672.69
1664.6
1655.85
1646.63
1637.16
1627.7
1618.44
1609.48
1600.74
1591.92
1582.57
1572.36
1561.3
1549.51
1536.83
1522.81
1506.87
1488.45
1467.19
1442.86
1415.31
1384.42
1349.99
1311.84
1269.7
1223.24
1172.1
1115.88
1054.08
986.192
911.413
829.208
737.868
637.752
523.214
401.973
246.176
118.011
-224.47
-223.405
-223.877
-226.242
-229.88
-234.491
-239.614
-244.829
-249.558
-253.077
-254.544
-253.062
-247.712
-237.594
-221.947
-200.211
-172.049
-137.366
-96.2661
-49.0314
3.92786
62.1087
124.959
191.898
262.332
335.668
411.324
488.737
567.366
646.696
726.227
805.465
883.913
961.061
1036.37
1109.27
1179.1
1245.1
1306.64
1363.33
1415.21
1463.74
1509.46
1551.43
1588.78
1621.29
1648.9
1671.57
1689.39
1702.55
1711.3
1715.98
1717
1714.82
1710.02
1703.91
1700.23
1698.15
1695.82
1692.1
1687.02
1680.8
1673.55
1665.4
1656.59
1647.3
1637.76
1628.22
1618.83
1609.67
1600.66
1591.51
1581.83
1571.33
1559.98
1547.84
1534.73
1520.24
1503.86
1485.07
1463.52
1438.97
1411.22
1380.13
1345.53
1307.19
1264.86
1218.22
1166.91
1110.56
1048.66
980.709
905.929
823.793
732.68
632.834
519.18
398.102
245.935
113.334
-224.233
-223.144
-223.639
-226.038
-229.729
-234.406
-239.61
-244.934
-249.81
-253.517
-255.207
-253.976
-248.894
-239.043
-223.645
-202.126
-174.136
-139.576
-98.5512
-51.3468
1.62065
59.8412
122.757
189.785
260.325
333.786
409.583
487.152
565.952
645.471
725.214
804.69
883.404
960.847
1036.48
1109.72
1179.88
1246.14
1307.81
1364.44
1416.2
1464.76
1510.57
1552.64
1590.06
1622.58
1650.15
1672.74
1690.43
1703.43
1712
1716.48
1717.28
1714.88
1709.9
1703.77
1700.5
1698.98
1696.81
1693.18
1688.05
1681.78
1674.46
1666.24
1657.36
1648
1638.38
1628.73
1619.19
1609.8
1600.5
1591
1580.97
1570.15
1558.49
1545.98
1532.42
1517.47
1500.63
1481.46
1459.6
1434.8
1406.85
1375.56
1340.74
1302.2
1259.67
1212.82
1161.32
1104.81
1042.77
974.73
899.916
817.809
726.886
627.261
514.463
393.513
245.031
108.02
-223.972
-222.862
-223.382
-225.821
-229.569
-234.318
-239.61
-245.052
-250.087
-253.997
-255.929
-254.971
-250.181
-240.624
-225.499
-204.218
-176.418
-141.995
-101.053
-53.8834
-0.90779
57.3555
120.343
187.466
258.123
331.719
407.669
485.407
564.394
644.12
724.095
803.831
882.836
960.601
1036.58
1110.19
1180.71
1247.26
1309.08
1365.65
1417.32
1465.92
1511.84
1554.03
1591.53
1624.07
1651.61
1674.12
1691.68
1704.51
1712.87
1717.12
1717.65
1714.99
1709.78
1703.74
1700.89
1699.94
1697.91
1694.34
1689.14
1682.81
1675.43
1667.14
1658.18
1648.73
1639.01
1629.22
1619.5
1609.87
1600.24
1590.39
1579.99
1568.83
1556.82
1543.91
1529.91
1514.47
1497.18
1477.6
1455.4
1430.32
1402.14
1370.65
1335.64
1296.87
1254.11
1207.06
1155.35
1098.64
1036.43
968.261
893.376
811.257
720.481
621.028
509.035
388.207
243.287
102.357
-223.689
-222.559
-223.109
-225.589
-229.399
-234.227
-239.613
-245.181
-250.386
-254.515
-256.708
-256.046
-251.574
-242.336
-227.51
-206.49
-178.898
-144.626
-103.776
-56.6454
-3.66217
54.6468
117.711
184.937
255.72
329.462
405.578
483.499
562.689
642.639
722.865
802.883
882.204
960.318
1036.68
1110.68
1181.59
1248.47
1310.45
1366.98
1418.58
1467.22
1513.27
1555.61
1593.2
1625.78
1653.3
1675.72
1693.14
1705.78
1713.92
1717.9
1718.13
1715.15
1709.67
1703.83
1701.41
1701.02
1699.13
1695.57
1690.29
1683.89
1676.45
1668.07
1659.03
1649.47
1639.64
1629.69
1619.75
1609.85
1599.89
1589.66
1578.88
1567.35
1554.96
1541.63
1527.16
1511.25
1493.48
1473.49
1450.92
1425.53
1397.08
1365.36
1330.14
1291.19
1248.2
1200.9
1148.98
1092.05
1029.65
961.311
886.317
804.144
713.471
614.145
502.887
382.204
240.584
96.6564
-223.372
-222.235
-222.818
-225.343
-229.221
-234.132
-239.618
-245.321
-250.708
-255.07
-257.545
-257.201
-253.072
-244.179
-229.678
-208.942
-181.577
-147.471
-106.724
-59.6372
-6.64715
51.71
114.856
182.193
253.111
327.011
403.305
481.424
560.831
641.024
721.521
801.844
881.504
959.994
1036.76
1111.19
1182.53
1249.75
1311.93
1368.43
1420
1468.68
1514.86
1557.38
1595.09
1627.72
1655.22
1677.55
1694.83
1707.27
1715.15
1718.83
1718.72
1715.36
1709.56
1704.02
1702.07
1702.22
1700.49
1696.88
1691.48
1685.03
1677.51
1669.05
1659.9
1650.23
1640.25
1630.12
1619.94
1609.74
1599.42
1588.79
1577.62
1565.69
1552.89
1539.12
1524.18
1507.77
1489.52
1469.08
1446.14
1420.41
1391.67
1359.69
1324.23
1285.05
1241.88
1194.37
1142.2
1085.05
1022.43
953.892
878.753
796.486
705.869
606.632
496.035
375.548
236.902
91.1676
-223.021
-221.889
-222.511
-225.084
-229.033
-234.034
-239.626
-245.471
-251.05
-255.662
-258.437
-258.434
-254.674
-246.153
-232.003
-211.575
-184.459
-150.534
-109.9
-62.8627
-9.86715
48.5404
111.773
179.228
250.292
324.36
400.845
479.176
558.817
639.269
720.057
800.707
880.733
959.626
1036.83
1111.72
1183.5
1251.11
1313.5
1369.99
1421.59
1470.3
1516.63
1559.34
1597.2
1629.89
1657.37
1679.63
1696.75
1708.97
1716.58
1719.92
1719.43
1715.65
1709.49
1704.36
1702.93
1703.54
1702
1698.26
1692.73
1686.21
1678.61
1670.05
1660.79
1650.98
1640.83
1630.49
1620.05
1609.52
1598.83
1587.8
1576.2
1563.85
1550.62
1536.38
1520.94
1504.02
1485.28
1464.38
1441.02
1414.93
1385.87
1353.6
1317.89
1278.47
1235.06
1187.35
1134.99
1077.61
1014.74
946.013
870.7
788.304
697.7
598.525
488.517
368.303
232.31
86.0173
-222.645
-221.52
-222.186
-224.811
-228.837
-233.932
-239.636
-245.63
-251.412
-256.289
-259.383
-259.744
-256.379
-248.257
-234.484
-214.389
-187.542
-153.816
-113.306
-66.3253
-13.3263
45.1334
108.458
176.038
247.256
321.505
398.194
476.751
556.641
637.371
718.469
799.468
879.885
959.208
1036.88
1112.25
1184.52
1252.54
1315.17
1371.68
1423.35
1472.08
1518.56
1561.52
1599.54
1632.3
1659.78
1681.95
1698.91
1710.9
1718.21
1721.19
1720.28
1716.03
1709.53
1704.95
1704.08
1704.99
1703.65
1699.74
1694.01
1687.44
1679.75
1671.08
1661.69
1651.72
1641.38
1630.8
1620.07
1609.2
1598.11
1586.65
1574.61
1561.8
1548.11
1533.38
1517.43
1499.98
1480.73
1459.36
1435.57
1409.09
1379.68
1347.09
1311.09
1271.41
1227.75
1179.81
1127.23
1069.65
1006.6
937.644
862.134
779.624
688.995
589.877
480.395
360.556
226.944
81.2042
-222.24
-221.125
-221.844
-224.525
-228.631
-233.827
-239.647
-245.797
-251.794
-256.949
-260.382
-261.129
-258.184
-250.489
-237.12
-217.384
-190.828
-157.318
-116.945
-70.0279
-17.0282
41.4846
104.905
172.618
243.999
318.439
395.345
474.143
554.299
635.323
716.752
798.124
878.955
958.735
1036.9
1112.79
1185.58
1254.05
1316.93
1373.5
1425.29
1474.02
1520.67
1563.9
1602.12
1634.96
1662.44
1684.53
1701.32
1713.06
1720.06
1722.64
1721.27
1716.53
1709.78
1705.88
1705.64
1706.61
1705.44
1701.32
1695.34
1688.7
1680.93
1672.13
1662.59
1652.44
1641.88
1631.04
1619.99
1608.75
1597.25
1585.34
1572.83
1559.55
1545.36
1530.12
1513.63
1495.64
1475.86
1453.99
1429.74
1402.85
1373.06
1340.14
1303.83
1263.85
1219.93
1171.74
1118.93
1061.12
997.871
928.736
853.095
770.422
679.752
580.747
471.735
352.405
220.969
76.6396
-221.807
-220.703
-221.484
-224.226
-228.416
-233.717
-239.659
-245.973
-252.193
-257.642
-261.433
-262.588
-260.088
-252.847
-239.909
-220.557
-194.316
-161.04
-120.818
-73.9729
-20.9759
37.5903
101.11
168.961
240.515
315.157
392.294
471.348
551.785
633.121
714.901
796.667
877.939
958.202
1036.89
1113.33
1186.66
1255.62
1318.81
1375.46
1427.42
1476.13
1522.96
1566.51
1604.94
1637.88
1665.37
1687.38
1703.99
1715.47
1722.12
1724.29
1722.43
1717.2
1710.39
1707.31
1707.78
1708.43
1707.35
1703.01
1696.75
1690
1682.13
1673.19
1663.48
1653.13
1642.33
1631.2
1619.81
1608.18
1596.24
1583.85
1570.84
1557.06
1542.35
1526.57
1509.52
1490.97
1470.65
1448.26
1423.52
1396.19
1366
1332.72
1296.07
1255.79
1211.58
1163.12
1110.06
1052.02
988.561
919.229
843.44
760.672
670.052
571.151
462.538
343.935
214.472
72.2079
-221.333
-220.258
-221.105
-223.914
-228.193
-233.604
-239.672
-246.155
-252.608
-258.366
-262.532
-264.118
-262.089
-255.328
-242.848
-223.907
-198.003
-164.981
-124.925
-78.162
-25.1722
33.4471
97.068
165.063
236.799
311.654
389.034
468.359
549.094
630.76
712.91
795.093
876.83
957.605
1036.84
1113.86
1187.77
1257.25
1320.79
1377.58
1429.76
1478.41
1525.43
1569.35
1608.02
1641.06
1668.58
1690.5
1706.92
1718.13
1724.42
1726.14
1723.77
1718.05
1711.5
1709.21
1710.46
1710.55
1709.37
1704.83
1698.29
1691.34
1683.37
1674.26
1664.36
1653.79
1642.71
1631.26
1619.51
1607.46
1595.05
1582.17
1568.64
1554.32
1539.06
1522.71
1505.09
1485.96
1465.06
1442.13
1416.89
1389.09
1358.48
1324.8
1287.8
1247.19
1202.67
1153.93
1100.61
1042.33
978.657
909.135
833.206
750.341
659.771
561.028
452.903
335.286
207.423
67.807
-220.818
-219.79
-220.706
-223.588
-227.96
-233.487
-239.686
-246.343
-253.039
-259.119
-263.68
-265.718
-264.184
-257.93
-245.935
-227.43
-201.887
-169.141
-129.267
-82.5963
-29.6193
29.0521
92.7764
160.92
232.844
307.924
385.56
465.171
546.219
628.233
710.774
793.397
875.624
956.938
1036.76
1114.38
1188.9
1258.96
1322.89
1379.87
1432.32
1480.86
1528.1
1572.43
1611.36
1644.52
1672.07
1693.91
1710.14
1721.05
1726.96
1728.21
1725.28
1719.08
1713.03
1711.39
1713.28
1712.99
1711.52
1706.76
1700
1692.72
1684.62
1675.34
1665.22
1654.39
1643.02
1631.23
1619.08
1606.59
1593.69
1580.28
1566.2
1551.31
1535.48
1518.53
1500.3
1480.57
1459.08
1435.58
1409.81
1381.52
1350.46
1316.37
1278.98
1238.02
1193.19
1144.16
1090.57
1032.04
968.147
898.44
822.382
739.452
648.968
550.419
442.823
326.369
199.781
63.3837
-220.27
-219.293
-220.288
-223.247
-227.719
-233.367
-239.699
-246.536
-253.484
-259.9
-264.874
-267.386
-266.373
-260.652
-249.168
-231.125
-205.968
-173.517
-133.843
-87.2766
-34.3188
24.4026
88.2314
156.527
228.646
303.96
381.866
461.777
543.156
625.535
708.487
791.572
874.315
956.194
1036.62
1114.88
1190.05
1260.72
1325.11
1382.34
1435.08
1483.49
1530.97
1575.76
1614.98
1648.27
1675.86
1697.62
1713.64
1724.26
1729.76
1730.52
1726.99
1720.33
1714.95
1713.88
1716.1
1715.76
1713.83
1708.79
1701.87
1694.21
1685.9
1676.42
1666.05
1654.95
1643.26
1631.09
1618.52
1605.55
1592.14
1578.16
1563.51
1548.02
1531.57
1514.01
1495.15
1474.78
1452.67
1428.58
1402.26
1373.46
1341.92
1307.39
1269.6
1228.28
1183.11
1133.77
1079.9
1021.13
957.026
887.145
810.975
728.011
637.651
539.351
432.386
317.233
191.754
58.9225
-219.687
-218.763
-219.854
-222.892
-227.47
-233.243
-239.713
-246.734
-253.941
-260.708
-266.113
-269.121
-268.653
-263.491
-252.543
-234.989
-210.24
-178.108
-138.651
-92.2031
-39.2722
19.4963
83.43
151.881
224.201
299.758
377.945
458.172
539.897
622.659
706.041
789.613
872.896
955.369
1036.43
1115.37
1191.22
1262.55
1327.47
1385
1438.06
1486.31
1534.06
1579.36
1618.87
1652.32
1679.95
1701.63
1717.45
1727.75
1732.84
1733.07
1728.95
1721.99
1717.42
1717.03
1719.11
1718.84
1716.32
1710.95
1703.89
1695.84
1687.19
1677.5
1666.86
1655.45
1643.4
1630.84
1617.81
1604.33
1590.37
1575.81
1560.54
1544.42
1527.33
1509.11
1489.59
1468.56
1445.82
1421.12
1394.21
1364.87
1332.83
1297.84
1259.63
1217.93
1172.41
1122.76
1068.61
1009.59
945.284
875.248
798.992
716.038
625.849
527.857
421.642
307.883
183.452
54.3982
-219.074
-218.192
-219.405
-222.522
-227.213
-233.117
-239.727
-246.937
-254.411
-261.54
-267.395
-270.92
-271.023
-266.446
-256.06
-239.018
-214.702
-182.91
-143.69
-97.3752
-44.4805
14.3312
78.3693
146.977
219.503
295.311
373.792
454.349
536.436
619.6
703.432
787.512
871.362
954.456
1036.19
1115.83
1192.4
1264.44
1329.95
1387.86
1441.24
1489.32
1537.39
1583.22
1623.06
1656.67
1684.37
1705.96
1721.57
1731.54
1736.2
1735.88
1731.18
1724.27
1720.63
1721.09
1722.48
1722.14
1719.02
1713.28
1706.01
1697.62
1688.52
1678.57
1667.64
1655.89
1643.45
1630.45
1616.94
1602.92
1588.37
1573.19
1557.28
1540.5
1522.73
1503.82
1483.61
1461.9
1438.48
1413.14
1385.63
1355.72
1323.16
1287.69
1249.05
1206.94
1161.07
1111.1
1056.67
997.412
932.916
862.748
786.439
703.547
613.586
515.976
410.647
298.346
174.964
49.8157
-218.413
-217.575
-218.937
-222.138
-226.948
-232.988
-239.741
-247.143
-254.891
-262.396
-268.719
-272.783
-273.482
-269.515
-259.714
-243.209
-219.35
-187.921
-148.958
-102.792
-49.9445
8.90528
73.0465
141.812
214.548
290.614
369.401
450.303
532.768
616.349
700.652
785.263
869.705
953.448
1035.88
1116.26
1193.58
1266.39
1332.57
1390.92
1444.6
1492.54
1540.97
1587.37
1627.55
1661.35
1689.12
1710.63
1726.02
1735.65
1739.85
1738.95
1733.7
1727.18
1724.34
1725.73
1726.31
1725.66
1721.94
1715.8
1708.25
1699.55
1689.95
1679.64
1668.37
1656.25
1643.4
1629.93
1615.89
1601.3
1586.13
1570.29
1553.69
1536.22
1517.73
1498.1
1477.17
1454.75
1430.64
1404.63
1376.49
1345.99
1312.88
1276.91
1237.81
1195.3
1149.06
1098.76
1044.06
984.58
919.915
849.646
773.326
690.555
600.885
503.743
399.437
288.644
166.347
45.1701
-217.702
-216.909
-218.446
-221.745
-226.674
-232.857
-239.756
-247.353
-255.381
-263.275
-270.083
-274.708
-276.027
-272.696
-263.505
-247.56
-224.18
-193.136
-154.452
-108.453
-55.6647
3.21674
67.4591
136.384
209.332
285.664
364.766
446.026
528.886
612.902
697.695
782.859
867.918
952.34
1035.51
1116.65
1194.76
1268.39
1335.31
1394.17
1448.1
1495.98
1544.84
1591.8
1632.34
1666.36
1694.21
1715.64
1730.8
1740.08
1743.8
1742.3
1736.55
1730.63
1728.38
1730.41
1730.6
1729.41
1725.09
1718.53
1710.63
1701.59
1691.51
1680.7
1669.07
1656.54
1643.24
1629.26
1614.66
1599.46
1583.62
1567.09
1549.78
1531.56
1512.32
1491.94
1470.25
1447.09
1422.25
1395.55
1366.75
1335.63
1301.96
1265.47
1225.9
1182.97
1136.36
1085.74
1030.78
971.083
906.276
835.942
759.662
677.079
587.77
491.19
388.044
278.798
157.637
40.4643
-216.953
-216.19
-217.928
-221.344
-226.393
-232.726
-239.771
-247.567
-255.881
-264.175
-271.486
-276.694
-278.658
-275.988
-267.429
-252.067
-229.189
-198.554
-160.169
-114.356
-61.6411
-2.73599
61.6045
130.688
203.851
280.453
359.881
441.514
524.784
609.252
694.553
780.294
865.995
951.124
1035.05
1117
1195.94
1270.43
1338.16
1397.58
1451.68
1499.7
1549.02
1596.54
1637.47
1671.72
1699.65
1720.99
1735.93
1744.85
1748.07
1745.95
1739.91
1734.76
1733.17
1735.2
1735.31
1733.41
1728.48
1721.5
1713.17
1703.72
1693.21
1681.83
1669.73
1656.75
1642.96
1628.43
1613.23
1597.37
1580.84
1563.57
1545.49
1526.5
1506.47
1485.3
1462.82
1438.88
1413.29
1385.86
1356.38
1324.63
1290.36
1253.34
1213.28
1169.92
1122.94
1072.01
1016.79
956.911
891.993
821.638
745.454
663.133
574.26
478.347
376.489
268.827
148.859
35.6986
-216.158
-215.421
-217.38
-220.931
-226.104
-232.594
-239.789
-247.785
-256.39
-265.095
-272.928
-278.74
-281.374
-279.389
-271.485
-256.729
-234.374
-204.17
-166.107
-120.5
-67.8736
-8.95424
55.4804
124.722
198.102
274.98
354.742
436.761
520.456
605.391
691.22
777.56
863.929
949.792
1034.52
1117.31
1197.12
1272.51
1341.11
1401.15
1455.31
1503.73
1553.56
1601.58
1642.93
1677.45
1705.45
1726.71
1741.41
1749.97
1752.65
1749.94
1743.99
1739.69
1739.15
1740.44
1740.34
1737.66
1732.13
1724.71
1715.91
1705.97
1695.01
1683.08
1670.36
1656.88
1642.55
1627.43
1611.58
1595.03
1577.75
1559.7
1540.82
1521
1500.15
1478.14
1454.84
1430.09
1403.72
1375.54
1345.35
1312.93
1278.06
1240.48
1199.93
1156.13
1108.78
1057.55
1002.09
942.05
877.06
806.733
730.711
648.73
560.376
465.237
364.788
258.749
140.026
30.8741
-215.316
-214.601
-216.799
-220.5
-225.807
-232.464
-239.809
-248.007
-256.908
-266.036
-274.407
-280.844
-284.173
-282.899
-275.671
-261.542
-239.732
-209.981
-172.263
-126.882
-74.3616
-15.4391
49.0843
118.482
192.081
269.239
349.344
431.761
515.896
601.315
687.69
774.65
861.712
948.339
1033.89
1117.56
1198.28
1274.62
1344.14
1404.9
1458.94
1508.13
1558.51
1606.93
1648.75
1683.55
1711.62
1732.79
1747.26
1755.42
1757.54
1754.29
1748.72
1745.08
1745.76
1746.22
1745.63
1742.18
1736.07
1728.18
1718.86
1708.36
1696.87
1684.43
1671.06
1656.92
1642.01
1626.25
1609.71
1592.41
1574.34
1555.47
1535.73
1515.05
1493.32
1470.45
1446.28
1420.69
1393.51
1364.55
1333.62
1300.51
1265.01
1226.86
1185.81
1141.58
1093.86
1042.33
986.655
926.489
861.47
791.228
715.439
633.881
546.132
451.881
352.955
248.575
131.149
25.9918
-214.417
-213.731
-216.186
-220.046
-225.5
-232.336
-239.833
-248.233
-257.435
-266.996
-275.924
-283.007
-287.056
-286.516
-279.986
-266.504
-245.261
-215.987
-178.634
-133.501
-81.1042
-22.1912
42.4141
111.967
185.785
263.226
343.682
426.509
511.097
597.015
683.955
771.558
859.336
946.755
1033.17
1117.75
1199.42
1276.75
1347.28
1408.83
1462.72
1513.01
1563.86
1612.59
1654.93
1690.05
1718.18
1739.25
1753.48
1761.22
1762.76
1759.1
1754.05
1750.95
1752.42
1752.5
1751.22
1746.99
1740.31
1731.9
1722.03
1710.95
1698.84
1685.81
1671.83
1656.95
1641.32
1624.88
1607.59
1589.49
1570.58
1550.84
1530.2
1508.6
1485.96
1462.17
1437.11
1410.64
1382.61
1352.84
1321.15
1287.34
1251.19
1212.46
1170.9
1126.22
1078.14
1026.33
970.471
910.215
845.217
775.122
699.642
618.596
531.544
438.294
340.996
238.318
122.234
21.0527
-213.461
-212.826
-215.545
-219.567
-225.183
-232.21
-239.862
-248.465
-257.971
-267.977
-277.477
-285.228
-290.021
-290.24
-284.429
-271.616
-250.961
-222.184
-185.22
-140.355
-88.1004
-29.2114
35.4678
105.172
179.21
256.939
337.752
421
506.054
592.485
680.008
768.276
856.794
945.033
1032.35
1117.88
1200.54
1278.91
1350.53
1412.97
1466.91
1518.47
1569.62
1618.57
1661.51
1696.96
1725.12
1746.09
1760.07
1767.37
1768.36
1764.59
1760.17
1758
1759.33
1759.2
1757.1
1752.1
1744.85
1735.89
1725.44
1713.73
1700.96
1687.24
1672.6
1657.01
1640.54
1623.31
1605.22
1586.27
1566.46
1545.78
1524.2
1501.64
1478.03
1453.29
1427.29
1399.91
1370.99
1340.39
1307.91
1273.37
1236.55
1197.23
1155.15
1110.04
1061.6
1009.54
953.52
893.217
828.293
758.412
683.324
602.881
516.622
424.488
328.919
227.986
113.289
16.058
-212.481
-211.9
-214.88
-219.068
-224.858
-232.084
-239.896
-248.703
-258.516
-268.977
-279.068
-287.507
-293.069
-294.071
-288.999
-276.875
-256.829
-228.572
-192.018
-147.442
-95.3493
-36.5
28.2433
98.095
172.353
250.372
331.548
415.227
500.761
587.719
675.842
764.796
854.078
943.165
1031.41
1117.94
1201.63
1281.1
1353.88
1417.36
1471.64
1524.55
1575.75
1624.88
1668.48
1704.28
1732.46
1753.31
1767.02
1773.86
1774.36
1770.78
1766.9
1766.22
1766.82
1766.25
1763.28
1757.55
1749.72
1740.16
1729.09
1716.73
1703.25
1688.77
1673.35
1657.01
1639.71
1621.56
1602.57
1582.71
1561.95
1540.28
1517.69
1494.12
1469.5
1443.76
1416.78
1388.45
1358.62
1327.15
1293.86
1258.57
1221.07
1181.14
1138.54
1092.99
1044.22
991.925
935.783
875.479
810.69
741.096
666.487
586.742
501.376
410.471
316.727
217.589
104.319
11.0095
-211.468
-210.969
-214.187
-218.552
-224.526
-231.951
-239.936
-248.946
-259.071
-269.997
-280.697
-289.844
-296.2
-298.009
-293.695
-282.282
-262.868
-235.153
-199.029
-154.761
-102.85
-44.0577
20.7387
90.733
165.211
243.523
325.067
409.187
495.211
582.709
671.45
761.112
851.18
941.142
1030.36
1117.92
1202.69
1283.3
1357.33
1422
1476.9
1531.22
1582.24
1631.54
1675.88
1712.03
1740.19
1760.92
1774.34
1780.71
1780.83
1777.55
1774.06
1774.76
1774.81
1773.61
1769.79
1763.37
1754.93
1744.73
1732.99
1719.93
1705.71
1690.43
1674.15
1656.93
1638.77
1619.67
1599.67
1578.8
1557.02
1534.31
1510.65
1486.01
1460.33
1433.55
1405.55
1376.23
1345.45
1313.08
1278.96
1242.9
1204.7
1164.16
1121.04
1075.07
1025.98
973.469
917.241
856.988
792.398
723.169
649.131
570.182
485.811
396.251
304.425
207.132
95.3316
5.90937
-210.373
-210.014
-213.443
-218.025
-224.19
-231.805
-239.986
-249.196
-259.635
-271.037
-282.363
-292.24
-299.413
-302.053
-298.518
-287.839
-269.079
-241.927
-206.252
-162.312
-110.603
-51.8852
12.9521
83.0828
157.779
236.385
318.303
402.871
489.397
577.446
666.822
757.216
848.092
938.957
1029.17
1117.82
1203.71
1285.51
1360.88
1426.92
1482.71
1538.45
1589.1
1638.58
1683.72
1720.19
1748.33
1768.91
1782.02
1787.96
1787.92
1784.97
1782.27
1783.49
1783.25
1781.3
1776.65
1769.56
1760.47
1749.61
1737.16
1723.35
1708.34
1692.21
1675.02
1656.82
1637.67
1617.59
1596.52
1574.53
1551.66
1527.83
1503.04
1477.28
1450.49
1422.61
1393.55
1363.21
1331.46
1298.16
1263.17
1226.32
1187.42
1146.26
1102.61
1056.22
1006.83
954.146
897.876
837.729
773.406
704.626
631.254
553.203
469.934
381.832
292.015
196.625
86.3361
0.761076
-209.131
-208.974
-212.626
-217.484
-223.846
-231.646
-240.047
-249.453
-260.209
-272.097
-284.067
-294.695
-302.71
-306.205
-303.469
-293.547
-275.465
-248.898
-213.692
-170.097
-118.609
-59.9834
4.88136
75.1409
150.054
228.955
311.249
396.274
483.312
571.924
661.952
753.099
844.806
936.6
1027.85
1117.62
1204.68
1287.72
1364.52
1432.1
1489.06
1546.2
1596.33
1646.04
1692.02
1728.79
1756.88
1777.3
1790.08
1795.64
1795.66
1792.95
1791.83
1792.75
1792.1
1789.34
1783.9
1776.14
1766.38
1754.81
1741.62
1727.01
1711.14
1694.09
1675.92
1656.69
1636.45
1615.25
1593.07
1569.91
1545.83
1520.81
1494.83
1467.88
1439.93
1410.91
1380.75
1349.35
1316.59
1282.34
1246.47
1208.81
1169.19
1127.4
1083.23
1036.44
986.762
933.934
877.668
817.687
753.705
685.459
612.852
535.805
453.747
367.218
279.499
186.076
77.3445