/*--------------------------------*- C++ -*----------------------------------*\
| =========                 |                                                 |
| \\      /  F ield         | OpenFOAM: The Open Source CFD Toolbox           |
|  \\    /   O peration     | Version:  4.1                                   |
|   \\  /    A nd           | Web:      www.OpenFOAM.org                      |
|    \\/     M anipulation  |                                                 |
\*---------------------------------------------------------------------------*/
FoamFile
{
    version     2.0;
    format      ascii;
    class       surfaceScalarField;
    location    "1400";
    object      phi;
}
// * * * * * * * * * * * * * * * * * * * * * * * * * * * * * * * * * * * * * //

dimensions      [0 3 -1 0 0 0 0];

internalField   nonuniform List<scalar> 
52920
(
-2633.99
78.3011
-2708.05
74.0541
-2789
80.9546
-2877.19
88.1999
-2976.13
98.9393
-3088.46
112.329
-3215.77
127.314
-3359.2
143.437
-3519.96
160.755
-3699.25
179.298
-3898.03
198.784
-4116.58
218.555
-4354.32
237.738
-4609.94
255.622
-4881.76
271.823
-5167.81
286.053
-5465.84
298.034
-5773.42
307.577
-6088.03
314.609
-6407.21
319.19
-6728.64
321.427
-7050.09
321.449
-7369.46
319.376
-7684.79
315.331
-7994.22
309.435
-8296.05
301.834
-8588.78
292.728
-8871.17
282.392
-9142.33
271.163
-9401.73
259.395
-9649.09
247.363
-9884.22
235.13
-10106.6
222.357
-10314.6
208.06
-10504.9
190.306
-10670.9
165.95
-10801.5
130.634
-10881.1
79.5515
-10890.4
9.37257
-10814
-76.4291
-10653
-160.989
-10418.9
-234.104
-10116.4
-302.549
-9748
-368.358
-9317.25
-430.754
-8827.86
-489.393
-8283.79
-544.064
-7690.68
-593.108
-7058.26
-632.42
-6404.79
-653.468
-5764.17
-640.624
-5192.97
-571.196
-4766.77
-426.195
-4550.58
-216.19
-4552.79
2.20572
-4700.9
148.109
-4875.54
174.649
-4984.94
109.395
-4992.91
7.96872
-4899.94
-92.9631
-4720.08
-179.864
-4463.63
-256.446
-4142.28
-321.355
-3769
-373.282
-3359.48
-409.514
-2938.39
-421.089
-2540.81
-397.582
-2201.92
-338.894
-1931.1
-270.812
-1693.38
-237.72
-1442.43
-250.956
-1111.14
-331.287
-493.388
-617.752
663.072
-1156.46
1955.15
-1292.07
2443.67
-488.521
2480.45
-36.7802
2769.86
-289.412
3242.49
-472.623
3822.56
-580.071
4491.92
-669.359
5228.3
-736.388
6014.82
-786.519
6842
-827.176
7706.71
-864.71
8610.88
-904.172
9560.4
-949.519
10563.9
-1003.51
11631
-1067.12
12770.5
-1139.49
13988.8
-1218.28
15290.5
-1301.65
16678.4
-1387.89
18157.7
-1479.35
19732.2
-1574.48
21417.5
-1685.28
23212.6
-1795.17
25169.8
-1957.16
27222
-2052.19
-2390.15
-2596.06
151.686
-2664.99
142.99
-2741.86
157.827
-2826.78
173.122
-2923.14
195.307
-3033.45
222.639
-3159.2
253.067
-3301.4
285.645
-3461.06
320.415
-3639.16
357.4
-3836.42
396.047
-4052.96
435.102
-4288.13
472.906
-4540.64
508.134
-4808.92
540.104
-5091.16
568.295
-5385.3
592.184
-5689.12
611.399
-6000.28
625.769
-6316.46
635.365
-6635.37
640.341
-6954.82
640.905
-7272.71
637.264
-7587.02
629.649
-7895.9
618.308
-8197.61
603.544
-8490.65
585.778
-8773.85
565.589
-9046.38
543.697
-9307.87
520.879
-9558.28
497.783
-9797.81
474.659
-10026.4
450.988
-10243.4
424.978
-10446
392.957
-10628.9
348.807
-10782.2
283.935
-10891.4
188.748
-10938.7
56.74
-10908
-107.139
-10799.4
-269.639
-10624.6
-408.904
-10387.6
-539.524
-10089.5
-666.425
-9731.25
-789.026
-9313.26
-907.38
-8835.26
-1022.06
-8296.67
-1131.7
-7697.65
-1231.43
-7042.29
-1308.83
-6346.35
-1336.56
-5652.94
-1264.61
-5051.37
-1027.76
-4667.35
-600.212
-4579.78
-85.3596
-4718.57
286.899
-4914.04
370.117
-5045.51
240.868
-5070.3
32.7573
-4992.65
-170.607
-4836.29
-336.231
-4613.02
-479.712
-4330.26
-604.117
-3994.85
-708.693
-3613.47
-790.892
-3196.24
-838.318
-2760.87
-832.951
-2336.93
-762.837
-1960.49
-647.247
-1642.71
-555.498
-1331.73
-561.938
-968.936
-694.084
-603.69
-982.998
-327.601
-1432.55
117.671
-1737.35
1066.83
-1437.68
1930.94
-900.893
2388.54
-747.01
2881.61
-965.694
3495.56
-1194.02
4189.95
-1363.75
4941.4
-1487.83
5738.5
-1583.62
6576.51
-1665.19
7456.37
-1744.57
8384.41
-1832.21
9370.47
-1935.58
10424.3
-2057.3
11551.7
-2194.6
12754
-2341.78
14028.8
-2493.09
15373.8
-2646.63
16788.6
-2802.65
18277.4
-2968.23
19847.3
-3144.36
21513.5
-3351.43
23285.5
-3567.15
25201.6
-3873.31
27230.7
-4081.24
-4717.03
-2545.98
214.947
-2608.53
205.538
-2678.94
228.246
-2758.42
252.601
-2850.21
287.096
-2956.84
329.272
-3079.76
375.99
-3219.87
425.763
-3377.97
478.512
-3554.73
534.17
-3750.57
591.882
-3965.29
649.825
-4198.02
705.639
-4447.4
757.515
-4711.9
804.613
-4989.91
846.297
-5279.59
881.871
-5579
910.808
-5886.05
932.824
-6198.63
947.947
-6514.58
956.298
-6831.77
958.092
-7148.07
953.568
-7461.47
943.048
-7770.07
926.912
-8072.17
905.643
-8366.31
879.914
-8651.36
850.644
-8926.64
818.983
-9191.96
786.193
-9447.55
753.375
-9693.95
721.059
-9931.59
688.636
-10160.2
653.585
-10377.8
610.513
-10579.2
550.237
-10754.9
459.633
-10889.9
323.79
-10965.7
132.522
-10965.1
-107.742
-10887.2
-347.485
-10745.1
-551.012
-10543.9
-740.715
-10285
-925.359
-9968.66
-1105.38
-9594.76
-1281.28
-9162.61
-1454.21
-8670.87
-1623.44
-8117.31
-1785
-7499.15
-1926.99
-6816.34
-2019.37
-6083.51
-1997.45
-5360.53
-1750.73
-4791.08
-1169.66
-4554.9
-321.539
-4657.41
389.406
-4876.13
588.839
-5023.72
388.465
-5047.03
56.065
-4962.48
-255.162
-4809.09
-489.612
-4600.57
-688.236
-4342.6
-862.084
-4041.64
-1009.66
-3703.94
-1128.59
-3336.58
-1205.68
-2948.12
-1221.41
-2549.75
-1161.21
-2157.51
-1039.48
-1788.44
-924.568
-1440.63
-909.746
-1090.31
-1044.4
-738.36
-1334.95
-432.109
-1738.8
-116.887
-2052.57
456.132
-2010.69
1229.6
-1674.36
1902.71
-1420.12
2477.7
-1540.69
3107.49
-1823.81
3796.37
-2052.63
4539.75
-2231.22
5334.53
-2378.4
6180.12
-2510.77
7078.95
-2643.4
8035.47
-2788.73
9053.39
-2953.5
10133.5
-3137.38
11273.6
-3334.74
12471.1
-3539.29
13725.1
-3747.05
15037.8
-3959.38
16414.8
-4179.67
17864.8
-4418.23
19398.8
-4678.29
21031.1
-4983.74
22777.1
-5313.18
24662.9
-5759.09
26681.8
-6100.11
-7015.47
-2493.11
267.601
-2548.53
260.961
-2611.41
291.123
-2684.06
325.257
-2769.76
372.799
-2871.22
430.739
-2989.99
494.759
-3126.96
562.737
-3282.78
634.337
-3457.89
709.279
-3652.33
786.328
-3865.57
863.066
-4096.39
936.467
-4343.22
1004.34
-4604.46
1065.85
-4878.56
1120.4
-5163.92
1167.24
-5458.87
1205.76
-5761.65
1235.6
-6070.43
1256.73
-6383.28
1269.15
-6698.18
1272.99
-7013.05
1268.45
-7325.89
1255.88
-7634.76
1235.79
-7937.97
1208.85
-8234.08
1176.02
-8522.01
1138.58
-8801.17
1098.14
-9071.48
1056.51
-9333.37
1015.27
-9587.6
975.292
-9834.91
935.946
-10075.3
894.009
-10307.2
842.339
-10525.4
768.503
-10720.2
654.414
-10875.5
479.093
-10970.8
227.808
-10987.9
-90.6576
-10924.9
-410.468
-10796.3
-679.562
-10609.5
-927.565
-10366.9
-1167.96
-10069.3
-1402.94
-9717.25
-1633.34
-9311.16
-1860.29
-8851.31
-2083.29
-8336.94
-2299.37
-7765.1
-2498.83
-7129.86
-2654.61
-6425.8
-2701.5
-5669.88
-2506.65
-4963.7
-1875.84
-4538.66
-746.574
-4549.69
400.431
-4786.05
825.201
-4956.98
559.397
-4978.48
77.5647
-4880.63
-353.007
-4724.52
-645.726
-4527.21
-885.544
-4291.99
-1097.31
-4023.95
-1277.69
-3728.7
-1423.84
-3411.87
-1522.51
-3078.73
-1554.55
-2733.31
-1506.63
-2379.4
-1393.39
-2024.39
-1279.58
-1675.98
-1258.15
-1331.55
-1388.83
-991.545
-1674.95
-677.529
-2052.82
-367.247
-2362.85
76.1179
-2454.06
717.54
-2315.78
1416.37
-2118.94
2055.35
-2179.68
2688.81
-2457.27
3361.28
-2725.1
4082.99
-2952.93
4857.03
-3152.43
5684.79
-3338.54
6566.91
-3525.52
7502.85
-3724.67
8490.82
-3941.47
9528.9
-4175.45
10616.7
-4422.57
11756.7
-4679.23
12953.7
-4944.04
14214.5
-5220.21
15547.2
-5512.4
16960.7
-5831.7
18466
-6183.62
20074.1
-6591.77
21803.1
-7042.19
23667.6
-7623.66
25680.2
-8112.67
-9296.77
-2440.72
310.05
-2488.61
308.851
-2543.37
345.888
-2608.34
390.233
-2686.84
451.304
-2781.86
525.758
-2895.15
608.053
-3027.76
695.351
-3180.34
786.918
-3353.16
882.102
-3545.98
979.156
-3757.91
1074.99
-3987.34
1165.9
-4232.35
1249.35
-4491.14
1324.65
-4762.11
1391.38
-5043.76
1448.88
-5334.63
1496.63
-5633.29
1534.27
-5938.27
1561.7
-6247.95
1578.83
-6560.54
1585.59
-6874.1
1582.01
-7186.62
1568.41
-7496.17
1545.35
-7801
1513.68
-8099.63
1474.65
-8391
1429.95
-8674.52
1381.67
-8950.18
1332.16
-9218.49
1283.58
-9480.35
1237.15
-9736.69
1192.28
-9987.74
1145.07
-10232
1086.56
-10464.3
1000.84
-10674.1
864.256
-10843.8
648.772
-10949.9
333.936
-10972.9
-67.6798
-10910.5
-472.842
-10779.7
-810.367
-10590.8
-1116.49
-10348.5
-1410.3
-10054.8
-1696.64
-9711.4
-1976.72
-9320.25
-2251.44
-8883.19
-2520.35
-8401.18
-2781.37
-7872.94
-3027.07
-7292.75
-3234.8
-6648.38
-3345.87
-5928.17
-3226.87
-5170.17
-2633.84
-4572.74
-1344.01
-4435.57
263.26
-4659.02
1048.66
-4857.42
757.799
-4883.26
103.4
-4772.88
-463.383
-4616.46
-802.149
-4435.58
-1066.43
-4228.82
-1304.06
-3997.97
-1508.54
-3747.45
-1674.36
-3481.91
-1788.05
-3204.71
-1831.74
-2916.04
-1795.3
-2612.84
-1696.6
-2293.91
-1598.51
-1963.51
-1588.55
-1625.59
-1726.76
-1286.41
-2014.13
-960.038
-2379.19
-635.163
-2687.72
-241.223
-2848
308.212
-2865.22
980.384
-2791.11
1637.15
-2836.44
2263.81
-3083.93
2918.3
-3379.59
3614.33
-3648.96
4357.69
-3895.79
5150.48
-4131.33
5992.76
-4367.79
6883.45
-4615.36
7821.58
-4879.6
8807.56
-5161.43
9843.86
-5458.87
10934.9
-5770.28
12086.5
-6095.64
13305.2
-6438.95
14598.7
-6805.88
15974.5
-7207.53
17443.9
-7653.01
19014.7
-8162.55
20708.6
-8736.14
22531.2
-9446.22
24509
-10090.5
-11537.5
-2392.37
355.261
-2429.94
346.421
-2476.79
392.74
-2533.44
446.89
-2603.94
521.809
-2691.43
613.25
-2798
714.622
-2924.96
822.313
-3073.12
935.087
-3242.75
1051.73
-3433.41
1169.82
-3643.89
1285.48
-3872.21
1394.22
-4116.04
1493.18
-4373.25
1581.87
-4642.07
1660.2
-4920.93
1727.74
-5208.48
1784.18
-5503.51
1829.31
-5804.92
1863.11
-6111.47
1885.38
-6421.7
1895.82
-6733.9
1894.2
-7046.13
1880.65
-7356.47
1855.68
-7663.07
1820.28
-7964.37
1775.96
-8259.25
1724.83
-8547.08
1669.5
-8827.82
1612.91
-9102.04
1557.79
-9370.7
1505.82
-9634.85
1456.43
-9894.87
1405.09
-10149.2
1340.93
-10392.6
1244.22
-10613.3
1084.98
-10791.4
826.87
-10900
442.47
-10917.9
-49.7896
-10844.4
-546.269
-10700.6
-954.157
-10500.6
-1316.53
-10251.6
-1659.35
-9956.95
-1991.24
-9619.35
-2314.31
-9241.23
-2629.56
-8824.73
-2936.85
-8371.11
-3235
-7879.88
-3518.29
-7347.21
-3767.48
-6762.34
-3930.74
-6105.22
-3883.99
-5369.55
-3369.51
-4674.81
-2038.74
-4367.3
-44.2564
-4516.38
1197.74
-4732.45
973.871
-4779.12
150.071
-4670.61
-571.894
-4522.77
-949.982
-4365.45
-1223.75
-4192.32
-1477.19
-4000.72
-1700.14
-3794.17
-1880.91
-3577.33
-2004.9
-3352.42
-2056.65
-3116.75
-2030.96
-2862.3
-1951.04
-2581.35
-1879.46
-2273.46
-1896.45
-1944.98
-2055.24
-1607.53
-2351.57
-1272.68
-2714.04
-931.637
-3028.76
-548.91
-3230.73
-63.1184
-3351.01
552.002
-3406.23
1200.74
-3485.18
1823.79
-3706.97
2461.54
-4017.34
3135.45
-4322.87
3852.63
-4612.98
4615.96
-4894.66
5426.37
-5178.2
6283.9
-5472.88
7188.62
-5784.31
8141.42
-6114.24
9144.48
-6461.93
10201.3
-6827.12
11316.8
-7211.09
12496.5
-7618.66
13747.7
-8057.08
15077.2
-8537.03
16496.8
-9072.64
18012.1
-9677.81
19648.3
-10372.3
21403.9
-11201.8
23315.7
-12002.3
-13705.6
-2344.76
388.863
-2374.28
375.947
-2412.59
431.052
-2460.7
494.997
-2522.6
583.714
-2601.68
692.34
-2700.39
813.333
-2820.41
942.333
-2962.86
1077.54
-3128.16
1217.03
-3315.8
1357.46
-3524.36
1494.04
-3751.51
1621.37
-3994.51
1736.19
-4250.87
1838.23
-4518.51
1927.84
-4795.68
2004.91
-5080.95
2069.46
-5373.21
2121.57
-5671.59
2161.5
-5975.24
2189.03
-6283.1
2203.68
-6593.77
2204.87
-6905.52
2192.39
-7216.44
2166.6
-7524.62
2128.47
-7828.4
2079.74
-8126.51
2022.93
-8418.22
1961.21
-8703.46
1898.15
-8982.77
1837.1
-9257.17
1780.22
-9527.76
1727.03
-9794.99
1672.32
-10057.2
1603.19
-10308.7
1495.64
-10536.2
1312.5
-10717.1
1007.76
-10820.6
545.964
-10824.6
-45.7932
-10732.7
-638.179
-10571.4
-1115.4
-10358.7
-1529.29
-10103.4
-1914.6
-9809.65
-2284.99
-9479.7
-2644.27
-9115.36
-2993.9
-8717.89
-3334.33
-8287.8
-3665.09
-7824.74
-3981.35
-7326.66
-4265.56
-6787.05
-4470.35
-6189.78
-4481.26
-5513.52
-4045.77
-4806.99
-2745.26
-4362.58
-488.666
-4390.61
1225.77
-4601.94
1185.2
-4685.86
233.985
-4603.25
-654.497
-4475.32
-1077.92
-4344.25
-1354.81
-4204.1
-1617.35
-4049.42
-1854.82
-3883.54
-2046.79
-3711.35
-2177.09
-3533.66
-2234.34
-3344.48
-2220.15
-3131.28
-2164.25
-2881.89
-2128.84
-2593.66
-2184.68
-2275.33
-2373.57
-1942.5
-2684.41
-1606.58
-3049.96
-1258.53
-3376.81
-872.899
-3616.36
-425.6
-3798.31
120.484
-3952.32
741.303
-4106
1357.99
-4323.66
1973.47
-4632.82
2624.34
-4973.74
3317.28
-5305.92
4055.22
-5632.6
4839.21
-5962.19
5669.29
-6302.97
6545.39
-6660.42
7468.06
-7036.91
8439.01
-7432.88
9461.3
-7849.41
10539.3
-8289.08
11678.1
-8757.44
12884.4
-9263.45
14164.2
-9816.8
15529.2
-10437.7
16982.7
-11131.2
18552.4
-11942.1
20230.5
-12879.9
22064
-13835.7
-15782.7
-2300.37
411.507
-2322
397.585
-2351.62
460.671
-2391.05
534.433
-2443.99
636.655
-2514.01
762.367
-2603.88
903.21
-2715.73
1054.18
-2851.12
1212.93
-3010.74
1376.66
-3194.23
1540.95
-3400.05
1699.86
-3625.6
1846.92
-3867.77
1978.36
-4123.68
2094.15
-4390.93
2195.09
-4667.47
2281.45
-4951.66
2353.64
-5242.27
2412.19
-5538.52
2457.75
-5839.8
2490.32
-6145.45
2509.33
-6454.45
2513.87
-6765.38
2503.32
-7076.46
2477.68
-7385.79
2437.8
-7691.56
2385.52
-7992.37
2323.74
-8287.35
2256.19
-8576.34
2187.14
-8859.84
2120.6
-9138.86
2059.24
-9414.52
2002.7
-9687.25
1945.05
-9955.23
1871.17
-10211.9
1752.35
-10442.7
1543.23
-10621.7
1186.81
-10714.7
638.934
-10699.3
-61.1632
-10586.2
-751.322
-10408.2
-1293.41
-10185.6
-1751.86
-9927.69
-2172.5
-9637.55
-2575.13
-9316.24
-2965.58
-8964.29
-3345.85
-8581.87
-3716.74
-8168.96
-4078
-7725.41
-4424.89
-7250.77
-4740.2
-6742.5
-4978.62
-6191.75
-5032
-5580.97
-4656.55
-4923.93
-3402.3
-4421.44
-991.153
-4331.39
1135.72
-4505.45
1359.27
-4623.85
352.381
-4585.29
-693.061
-4485.02
-1178.18
-4378.55
-1461.28
-4266.87
-1729.02
-4145.16
-1976.53
-4016.69
-2175.26
-3885.54
-2308.24
-3749.94
-2369.94
-3599.82
-2370.27
-3418.8
-2345.26
-3192.82
-2354.82
-2919.97
-2457.54
-2612.02
-2681.52
-2287.03
-3009.4
-1955.98
-3381.02
-1610.72
-3722.07
-1231.28
-3995.79
-805.203
-4224.39
-315.325
-4442.2
249.706
-4671.03
851.16
-4925.11
1452.22
-5233.89
2073.41
-5594.92
2735.75
-5968.26
3442.09
-6338.94
4193.25
-6713.34
4989.21
-7098.92
5829.92
-7501.13
6716.03
-7923.01
7649.23
-8366.09
8632.38
-8832.56
9669.44
-9326.14
10764.8
-9852.77
11924.5
-10423.2
13153.3
-11045.5
14462.5
-11746.9
15852.8
-12521.6
17354.6
-13443.9
18952
-14477.2
20706.3
-15590.1
-17760.3
-2259.97
424.088
-2273.6
411.212
-2294.55
481.623
-2325.27
565.16
-2369.11
680.497
-2429.66
822.919
-2509.94
983.497
-2612.54
1156.78
-2739.52
1339.91
-2892.04
1529.18
-3070
1718.92
-3271.93
1901.79
-3495.07
2070.07
-3735.99
2219.28
-3991.46
2349.62
-4258.75
2462.38
-4535.48
2558.19
-4819.71
2637.87
-5109.93
2702.41
-5405.22
2753.03
-5705.01
2790.12
-6008.91
2813.23
-6316.29
2821.25
-6626.1
2813.13
-6936.84
2788.42
-7246.69
2747.65
-7553.8
2692.63
-7856.61
2626.55
-8154.13
2553.71
-8446.06
2479.07
-8732.81
2407.36
-9015.37
2341.8
-9294.82
2282.14
-9571.48
2221.7
-9843.27
2142.96
-10102.9
2012.01
-10334
1774.36
-10508.1
1360.84
-10587.5
718.395
-10550.9
-97.8008
-10417.5
-884.72
-10226
-1484.86
-9997.57
-1980.33
-9739.85
-2430.22
-9454.18
-2860.8
-9140.16
-3279.59
-8797.36
-3688.64
-8425.5
-4088.6
-8024.54
-4478.97
-7594.81
-4854.62
-7137.01
-5198
-6651.44
-5464.19
-6135.68
-5547.76
-5582.27
-5209.96
-4998.58
-3985.99
-4512.53
-1477.21
-4354.89
978.081
-4479.8
1484.18
-4611.98
484.566
-4615.77
-689.273
-4543.99
-1249.96
-4460.05
-1545.23
-4373.8
-1815.26
-4282.96
-2067.38
-4190.17
-2268.05
-4097.17
-2401.25
-3998.24
-2468.86
-3879.11
-2489.4
-3721.13
-2503.25
-3511.24
-2564.71
-3250.78
-2717.99
-2954.59
-2977.71
-2641.39
-3322.59
-2320.94
-3701.46
-1985.99
-4057.03
-1619.44
-4362.34
-1210.88
-4632.94
-757.037
-4896.04
-248.582
-5179.49
315.023
-5488.71
900.781
-5819.65
1495.28
-6189.42
2120.92
-6593.9
2789.53
-7007.55
3502.12
-7425.93
4258.73
-7855.53
5059.4
-8301.81
5904.75
-8768.36
6796.32
-9257.66
7736.62
-9772.86
8729.1
-10318.6
9777.46
-10901.1
10887.2
-11532.9
12061.8
-12220.2
13312.2
-12997.3
14637.1
-13846.5
16068.3
-14875.1
17581.2
-15990.2
19256
-17264.8
-19628.9
-2223.91
427.679
-2229.57
416.874
-2241.95
494.007
-2264.03
587.252
-2298.82
715.291
-2349.76
873.858
-2420
1053.74
-2512.52
1249.3
-2629.91
1457.31
-2773.89
1673.16
-2944.79
1889.82
-3141.4
2098.4
-3360.95
2289.62
-3599.77
2458.1
-3854.34
2604.18
-4121.62
2729.66
-4398.96
2835.53
-4684.06
2922.98
-4975.06
2993.41
-5270.66
3048.64
-5570.15
3089.61
-5873.14
3116.22
-6179.28
3127.38
-6487.89
3121.75
-6797.85
3098.38
-7107.56
3057.36
-7415.24
3000.32
-7719.27
2930.58
-8018.51
2852.95
-8312.52
2773.08
-8601.62
2696.47
-8886.69
2626.87
-9168.73
2564.19
-9447.93
2500.91
-9721.92
2416.96
-9982.73
2272.82
-10212.4
2004.07
-10379.9
1528.32
-10445.3
783.812
-10388.5
-154.692
-10237.8
-1035.34
-10036.6
-1686.08
-9805.02
-2211.92
-9548.51
-2686.74
-9266.55
-3142.75
-8957.82
-3588.33
-8621.58
-4024.88
-8257.62
-4452.55
-7866.12
-4870.47
-7447.67
-5273.07
-7003.53
-5642.14
-6535.81
-5931.91
-6047.29
-6036.28
-5542
-5715.26
-5036.3
-4491.68
-4614.93
-1898.58
-4448.2
811.355
-4535.02
1570.99
-4658.64
608.191
-4687.9
-660.011
-4640.68
-1297.18
-4579.15
-1606.76
-4518.62
-1875.79
-4458.7
-2127.29
-4400.52
-2326.23
-4342.22
-2459.55
-4273.56
-2537.51
-4176.96
-2586
-4033.95
-2646.27
-3835.24
-2763.41
-3586.67
-2966.57
-3305.15
-3259.24
-3008.22
-3619.52
-2703.44
-4006.24
-2383.93
-4376.53
-2035.4
-4710.87
-1647.87
-5020.47
-1217.87
-5326.05
-748.921
-5648.43
-236.896
-6000.74
318.682
-6375.22
894.526
-6765.27
1486.73
-7186.1
2114.8
-7635.62
2786.25
-8097.38
3501.23
-8570.51
4259.73
-9060.31
5062.15
-9570.77
5909.79
-10105.3
6804.79
-10667.9
7750.14
-11264
8748.94
-11899.9
9805.95
-12589.9
10924.1
-13338.3
12112.9
-14186.2
13370.3
-15103.8
14726.9
-16231.7
16151.7
-17415
17742.6
-18855.6
-21372
-2193.37
428.863
-2190.16
413.668
-2194.3
498.148
-2207.87
600.833
-2233.82
741.242
-2275.27
915.312
-2335.37
1113.84
-2417.34
1331.27
-2524.25
1564.21
-2658.4
1807.32
-2820.72
2052.14
-3010.4
2288.08
-3224.85
2504.08
-3460.31
2693.56
-3713.02
2856.89
-3979.73
2996.38
-4257.56
3113.36
-4543.9
3209.32
-4836.48
3285.99
-5133.58
3345.75
-5434.06
3390.08
-5737.29
3419.46
-6042.96
3433.05
-6350.66
3429.46
-6659.66
3407.38
-6968.7
3366.41
-7276.21
3307.82
-7580.6
3234.97
-7880.67
3153.02
-8175.87
3068.29
-8466.4
2986.99
-8753
2913.48
-9036.56
2847.74
-9317.11
2781.46
-9592.04
2691.89
-9852.8
2533.58
-10080.2
2231.52
-10241.1
1689.2
-10293.9
836.572
-10219.6
-228.963
-10055.5
-1199.45
-9847.61
-1893.97
-9614.53
-2444.99
-9359.4
-2941.87
-9080.41
-3421.74
-8775.92
-3892.82
-8445.31
-4355.48
-8088.52
-4809.35
-7705.68
-5253.31
-7297.26
-5681.49
-6864.64
-6074.76
-6411.21
-6385.34
-5944.45
-6503.04
-5480.33
-6179.38
-5052.25
-4919.77
-4724.25
-2226.57
-4593.43
680.529
-4658.41
1635.98
-4758.95
708.726
-4795.74
-623.216
-4768.94
-1323.98
-4731.64
-1644.06
-4698.69
-1908.73
-4670.03
-2155.95
-4644.46
-2351.81
-4615.86
-2488.15
-4569.95
-2583.42
-4487.83
-2668.11
-4353.98
-2780.12
-4164.69
-2952.7
-3930
-3201.26
-3667.14
-3522.1
-3390.82
-3895.84
-3105.75
-4291.31
-2805.11
-4677.16
-2476.87
-5039.11
-2112.38
-5384.96
-1708.24
-5730.19
-1266.81
-6089.86
-794.183
-6473.37
-286.023
-6883.38
260.98
-7312.27
831.088
-7756.21
1422.39
-8226.92
2050.61
-8725.61
2722
-9241.9
3436.62
-9774.93
4194.62
-10328.8
4997.01
-10907.7
5845.5
-11516.3
6742.57
-12161
7690.74
-12848.1
8693.91
-13593.1
9754.41
-14398.8
10879.8
-15311.6
12068.3
-16292.3
13345.2
-17508.6
14679
-18748.8
16176.2
-20352.8
-22965.7
-2166.99
419.855
-2156.13
402.815
-2151.92
493.942
-2157.19
606.105
-2174.6
758.657
-2206.93
947.644
-2257.16
1164.07
-2328.55
1402.66
-2424.5
1660.17
-2547.89
1930.72
-2700.27
2204.52
-2881.39
2469.21
-3089.04
2711.73
-3319.5
2924.03
-3568.93
3106.32
-3833.97
3261.41
-4111.56
3390.96
-4398.9
3496.66
-4693.36
3580.45
-4992.74
3645.13
-5295.36
3692.7
-5600.12
3724.22
-5906.43
3739.37
-6213.95
3736.97
-6522.2
3715.63
-6830.33
3674.53
-7137.05
3614.55
-7441
3538.92
-7741
3453.03
-8036.47
3363.76
-8327.48
3278.01
-8614.66
3200.66
-8898.75
3131.83
-9179.64
3062.36
-9454.54
2966.78
-9714.56
2793.59
-9939.69
2456.66
-10095.1
1844.6
-10137.9
879.429
-10050.3
-316.624
-9876.57
-1373.16
-9664.67
-2105.87
-9431.4
-2678.27
-9177.97
-3195.3
-8901.88
-3697.82
-8601.56
-4193.14
-8276.52
-4680.52
-7926.6
-5159.27
-7551.59
-5628.32
-7151.61
-6081.47
-6728.09
-6498.28
-6285.79
-6827.63
-5836.97
-6951.85
-5410.12
-6606.23
-5059.58
-5270.3
-4842.54
-2443.62
-4775.47
613.461
-4829.53
1690.03
-4901.16
780.359
-4935.43
-588.947
-4927.76
-1331.65
-4916.95
-1654.87
-4912.9
-1912.78
-4914.51
-2154.35
-4917.74
-2348.58
-4912.28
-2493.61
-4881.33
-2614.38
-4807.33
-2742.1
-4679.97
-2907.48
-4501.43
-3131.24
-4284.37
-3418.32
-4044.28
-3762.19
-3791.96
-4148.16
-3529.28
-4553.99
-3249.6
-4956.85
-2943.02
-5345.69
-2602.64
-5725.35
-2225.82
-6107.01
-1813.91
-6501.77
-1370.61
-6916.67
-899.791
-7354.2
-397.127
-7814.93
142.473
-8295.81
708.975
-8793.43
1298.81
-9315.44
1924.88
-9867.96
2594.13
-10444.2
3306.39
-11041
4062.4
-11663.7
4863.37
-12317.3
5711.19
-13008.9
6607.74
-13744.7
7555.91
-14541.2
8557.48
-15400.4
9617.26
-16371.4
10734.9
-17410
11925.7
-18699.3
13166.4
-19989.5
14553.6
-21740
-24380.5
-2145.96
402.402
-2127.76
384.611
-2115.19
481.382
-2112.25
603.17
-2121.48
767.884
-2145.2
971.372
-2186.12
1204.98
-2247.33
1463.88
-2332.38
1745.23
-2444.57
2042.91
-2586.03
2345.98
-2757.17
2640.35
-2956.28
2910.84
-3179.89
3147.65
-3424.24
3350.67
-3685.97
3523.15
-3962.03
3667.02
-4249.48
3784.11
-4545.43
3876.41
-4847.28
3946.98
-5152.79
3998.21
-5460.22
4031.66
-5768.45
4047.6
-6076.86
4045.38
-6385.04
4023.82
-6692.42
3981.91
-6998.09
3920.22
-7300.95
3841.78
-7600.04
3752.12
-7894.83
3658.55
-8185.37
3568.54
-8472.17
3487.46
-8755.85
3415.52
-9036.21
3342.71
-9310.37
3240.95
-9569.36
3052.58
-9792.77
2680.07
-9944.69
1996.52
-9981.43
916.171
-9885.21
-412.851
-9705.9
-1552.46
-9492.6
-2319.17
-9260.43
-2910.44
-9009.26
-3446.47
-8736.25
-3970.83
-8440.01
-4489.38
-8120.07
-5000.46
-7775.99
-5503.35
-7407.17
-5997.14
-7013.44
-6475.2
-6596.51
-6915.21
-6162.85
-7261.29
-5730.02
-7384.67
-5339.93
-6996.33
-5069.28
-5540.95
-4969.37
-2543.52
-4978.14
622.23
-5030.01
1741.91
-5074.75
825.096
-5105.16
-558.532
-5117.9
-1318.91
-5134.88
-1637.88
-5159.4
-1888.27
-5188.43
-2125.31
-5214.9
-2322.11
-5225.27
-2483.24
-5202.57
-2637.08
-5133.16
-2811.51
-5012.95
-3027.69
-4848.81
-3295.39
-4653.68
-3613.44
-4439.66
-3976.21
-4213.4
-4374.42
-3974.59
-4792.81
-3717.2
-5214.23
-3433.51
-5629.38
-3118.28
-6040.59
-2769.58
-6455.71
-2388.19
-6883.16
-1975.96
-7328.89
-1534.68
-7795.48
-1066.31
-8283.3
-568.642
-8793.47
-35.5792
-9326.49
528.012
-9879.03
1116.04
-10456
1738.59
-11066.7
2403.75
-11706.2
3111.93
-12371.9
3864.05
-13069.4
4661.32
-13806.1
5504.87
-14588.2
6396.45
-15432.8
7337.22
-16341.1
8328.83
-17363
9372.67
-18453.8
10471.1
-19797.8
11616.4
-21134.8
12872
-22995.6
-25588.8
-2130.4
378.324
-2105.08
359.299
-2084.31
460.613
-2073.24
592.099
-2074.61
769.258
-2090.3
987.068
-2122.63
1237.31
-2174.42
1515.68
-2249.11
1819.93
-2350.22
2144.02
-2480.32
2476.08
-2640.44
2800.47
-2829.46
3099.86
-3044.33
3362.53
-3281.56
3587.9
-3538.01
3779.6
-3810.74
3939.76
-4096.82
4070.19
-4393.2
4172.79
-4697
4250.78
-5005.5
4306.71
-5316.33
4342.49
-5627.62
4358.89
-5938.17
4355.93
-6247.34
4332.99
-6554.63
4289.2
-6859.38
4224.98
-7160.85
4143.25
-7458.36
4049.63
-7751.59
3951.78
-8040.67
3857.62
-8326.13
3772.91
-8608.49
3697.88
-8887.51
3621.74
-9160.39
3513.83
-9418.36
3310.55
-9641.13
2902.84
-9792.3
2147.69
-9827.58
951.451
-9728.3
-512.13
-9547.46
-1733.29
-9335.18
-2531.45
-9105.22
-3140.4
-8856.52
-3695.17
-8586.23
-4241.12
-8293.23
-4782.38
-7977.04
-5316.64
-7637.02
-5843.37
-7272.29
-6361.87
-6882.59
-6864.89
-6470.21
-7327.6
-6043.76
-7687.74
-5627.02
-7801.42
-5276.73
-7346.62
-5092.31
-5725.37
-5111.42
-2524.41
-5197.46
708.272
-5251.1
1795.55
-5274.54
848.533
-5304.61
-528.457
-5339.45
-1284.08
-5384.01
-1593.32
-5434.87
-1837.4
-5486.69
-2073.5
-5529.77
-2279.02
-5549.24
-2463.77
-5530.49
-2655.83
-5465.46
-2876.53
-5355.78
-3137.37
-5210.7
-3440.47
-5041.23
-3782.91
-4855.28
-4162.16
-4655.95
-4573.74
-4441.77
-5006.99
-4207.84
-5448.16
-3948.38
-5888.84
-3659.42
-6329.55
-3339.31
-6775.82
-2988.27
-7234.2
-2607.36
-7709.8
-2197.49
-8205.35
-1759.19
-8721.6
-1293.49
-9259.17
-800.331
-9819.65
-273.56
-10405.8
286.952
-11016.5
873.585
-11653.4
1491.3
-12323.9
2150.15
-13030.7
2852.04
-13771.3
3597.26
-14551.3
4386.23
-15377.2
5219.51
-16266.1
6097.43
-17219
7018.45
-18284
7985.1
-19420.5
8986.88
-20799.6
10032.5
-22180.5
11134.2
-24097.2
-26572.3
-2119.98
349.372
-2087.9
327.215
-2059.16
431.883
-2040.16
573.095
-2034.01
763.118
-2042.22
995.272
-2066.71
1261.81
-2110
1558.98
-2175.24
1885.17
-2265.89
2234.67
-2384.76
2594.96
-2533.33
2949.05
-2711.09
3277.61
-2915.52
3566.96
-3143.59
3815.97
-3392.59
4028.6
-3659.9
4207.06
-3942.69
4352.98
-4237.87
4467.97
-4542.4
4555.31
-4853.28
4617.59
-5167.58
4656.8
-5482.66
4673.97
-5796.52
4669.79
-6107.93
4644.4
-6416.17
4597.44
-6720.65
4529.45
-7020.84
4443.44
-7316.43
4345.22
-7607.39
4242.75
-7894.12
4144.35
-8177.25
4056.04
-8457.37
3978
-8734.28
3898.65
-9005.42
3784.97
-9262.55
3567.68
-9486.04
3126.33
-9639.72
2301.37
-9678.84
990.568
-9582.43
-608.537
-9403.82
-1911.89
-9194.46
-2740.81
-8967.14
-3367.72
-8720.38
-3941.92
-8451.66
-4509.84
-8160.31
-5073.73
-7846.02
-5630.92
-7508.08
-6181.32
-7145.53
-6724.43
-6758.22
-7252.2
-6349.24
-7736.59
-5929.86
-8107.12
-5531.27
-8200
-5227.15
-7650.74
-5138.42
-5814.09
-5277.46
-2385.37
-5435.84
866.651
-5490.69
1850.41
-5499.1
856.937
-5533.45
-494.105
-5591.18
-1226.35
-5661.51
-1523
-5734.75
-1764.15
-5803.46
-2004.79
-5856.63
-2225.85
-5880.33
-2440.08
-5864.36
-2671.8
-5806.5
-2934.4
-5712.22
-3231.65
-5590.6
-3562.09
-5449.22
-3924.28
-5292.04
-4319.34
-5119.83
-4745.96
-4930.89
-5195.92
-4721.6
-5657.45
-4487.7
-6122.74
-4225.98
-6591.27
-3934.8
-7067
-3613.94
-7555.07
-3264
-8059.74
-2885.73
-8583.62
-2479.37
-9127.96
-2044.72
-9693.82
-1581.93
-10282.4
-1091.7
-10896
-571.008
-11537.2
-16.5788
-12207.8
567.567
-12908.1
1180.78
-13643.9
1830.97
-14421.5
2522.53
-15242.9
3255.24
-16109.9
4028.51
-17039.4
4841.57
-18032.1
5690
-19132.5
6576.23
-20306.7
7479.08
-21702.4
8418.94
-23120.3
9349.84
-25028.1
-27329
-2113.99
317.361
-2075.54
288.768
-2039.45
395.802
-2012.83
546.478
-1999.59
749.884
-2000.78
996.467
-2018.11
1279.14
-2053.8
1594.67
-2110.63
1942
-2191.77
2315.81
-2300
2703.19
-2437.04
3086.09
-2602.85
3443.42
-2795.51
3759.63
-3012.62
4033.08
-3252.09
4268.07
-3511.78
4466.75
-3789.14
4630.34
-4081.12
4759.96
-4384.65
4858.83
-4696.6
4929.55
-5013.72
4973.93
-5332.71
4992.95
-5650.65
4987.73
-5965.5
4959.26
-6275.97
4907.91
-6581.21
4834.7
-6880.75
4742.98
-7174.49
4638.96
-7462.8
4531.06
-7746.44
4427.99
-8026.32
4335.93
-8303.26
4254.94
-8577.27
4172.66
-8846.21
4053.91
-9102.71
3824.18
-9328.44
3352.06
-9488.15
2461.09
-9536.7
1039.12
-9449.03
-696.207
-9275.69
-2085.23
-9070.28
-2946.21
-8845.2
-3592.81
-8599.19
-4187.94
-8330.43
-4778.6
-8038.97
-5365.19
-7724.81
-5945.08
-7387.37
-6518.76
-7025.73
-7086.06
-6639.99
-7637.93
-6234.22
-8142.36
-5823.03
-8518.3
-5446.8
-8576.24
-5198.76
-7898.79
-5218.17
-5794.67
-5474.97
-2128.58
-5694.45
1086.13
-5748.14
1904.1
-5747.45
856.251
-5790.49
-451.066
-5870.66
-1146.18
-5963.29
-1430.37
-6053.58
-1673.87
-6133.03
-1925.33
-6191.15
-2167.74
-6217.03
-2414.19
-6205.78
-2683.05
-6159.77
-2980.41
-6085.87
-3305.55
-5990.9
-3657.05
-5878.67
-4036.52
-5750.18
-4447.84
-5605.09
-4891.04
-5442.12
-5358.9
-5258.68
-5840.89
-5051.48
-6329.94
-4817.71
-6825.04
-4555.71
-7329
-4265.01
-7845.77
-3945.92
-8378.82
-3598.98
-8930.56
-3224.42
-9502.52
-2822.09
-10096.2
-2391.52
-10713
-1932.5
-11355
-1445.49
-12024.2
-930.278
-12723
-383.096
-13455.2
196.103
-14223.1
802.689
-15028.1
1440.19
-15880.4
2115.26
-16785
2826.97
-17751.1
3573.27
-18778.4
4347.55
-19906.7
5150.67
-21109.8
5954.21
-22506
6781.32
-23947.4
7535.87
-25782.7
-27874.6
-2110.68
282.783
-2067.32
245.414
-2024.7
353.177
-1990.98
512.76
-1971.08
729.988
-1965.71
991.101
-1976.4
1289.83
-2005.22
1623.49
-2054.57
1991.36
-2127.25
2388.49
-2225.72
2801.66
-2351.67
3212.04
-2505.36
3597.11
-2685.42
3939.69
-2890.16
4237.83
-3118.3
4496.21
-3368.33
4716.79
-3638.13
4900.15
-3924.81
5046.63
-4225.32
5159.34
-4536.56
5240.79
-4855.18
5292.56
-5177.46
5315.23
-5499.68
5309.95
-5818.82
5278.4
-6132.75
5221.84
-6440.05
5142
-6739.97
5042.9
-7032.44
4931.43
-7318.13
4816.76
-7598.23
4708.09
-7874.13
4611.82
-8147
4527.81
-8417.28
4442.94
-8683.48
4320.12
-8939.48
4080.19
-9168.86
3581.44
-9338.08
2630.3
-9401.47
1102.5
-9327.84
-769.831
-9161.79
-2251.28
-8960.54
-3147.46
-8736.77
-3816.58
-8490.08
-4434.62
-8219.79
-5048.89
-7926.77
-5658.2
-7611.5
-6260.35
-7273.62
-6856.64
-6912.36
-7447.32
-6528.11
-8022.18
-6126.23
-8544.24
-5725.64
-8918.89
-5378.32
-8923.56
-5200.24
-8076.86
-5342.84
-5652.07
-5711.33
-1760.09
-5974.5
1349.3
-6022.32
1951.92
-6017.74
851.671
-6073.38
-395.426
-6174.34
-1045.21
-6284.38
-1320.33
-6385.83
-1572.42
-6470.82
-1840.34
-6531.14
-2107.41
-6560.22
-2385.11
-6557.89
-2685.38
-6529.01
-3009.29
-6479.46
-3355.1
-6412.84
-3723.67
-6329.77
-4119.59
-6229.6
-4548.01
-6111.83
-5008.81
-5975.67
-5495.06
-5819.18
-5997.38
-5639.55
-6509.57
-5434.23
-7030.36
-5201.62
-7561.61
-4941.14
-8106.25
-4652.9
-8667.06
-4337.2
-9246.26
-3994.2
-9845.53
-3623.85
-10466.5
-3225.94
-11110.9
-2800.13
-11780.8
-2346.06
-12478.3
-1863.76
-13205.3
-1354.06
-13964.9
-816.54
-14760.7
-248.213
-15596.4
348.74
-16477.4
970.133
-17406.4
1618.36
-18399.3
2296.55
-19456.6
2995.67
-20605.8
3713.83
-21828
4419.18
-23211.3
5128.47
-24656.7
5714.5
-26368.7
-28238.8
-2109.47
247.408
-2062.49
198.437
-2014.26
304.954
-1974.1
472.604
-1948.08
703.971
-1936.62
979.646
-1941.08
1294.3
-1963.51
1645.92
-2006.09
2033.94
-2071.22
2453.62
-2160.9
2891.34
-2276.49