/*--------------------------------*- C++ -*----------------------------------*\
| =========                 |                                                 |
| \\      /  F ield         | OpenFOAM: The Open Source CFD Toolbox           |
|  \\    /   O peration     | Version:  4.1                                   |
|   \\  /    A nd           | Web:      www.OpenFOAM.org                      |
|    \\/     M anipulation  |                                                 |
\*---------------------------------------------------------------------------*/
FoamFile
{
    version     2.0;
    format      ascii;
    class       volVectorField;
    location    "1400";
    object      U;
}
// * * * * * * * * * * * * * * * * * * * * * * * * * * * * * * * * * * * * * //

dimensions      [0 1 -1 0 0 0 0];

internalField   nonuniform List<vector> 
26785
(
(-4.6701e-13 -0.00451668 -21.4963)
(-4.69392e-13 -0.00783406 -21.2776)
(-4.71573e-13 -0.00617264 -21.1486)
(-4.62472e-13 -0.00449007 -21.0278)
(-4.6703e-13 -0.00130831 -20.9723)
(-4.40921e-13 0.00284097 -20.9906)
(-4.09134e-13 0.0074306 -21.0947)
(-3.99163e-13 0.0122122 -21.2813)
(-4.04491e-13 0.017168 -21.5477)
(-3.85947e-13 0.0223025 -21.8916)
(-3.42458e-13 0.0275525 -22.3107)
(-3.32003e-13 0.0327592 -22.8012)
(-3.11613e-13 0.037704 -23.3565)
(-2.93321e-13 0.0422224 -23.9675)
(-2.74321e-13 0.0462563 -24.6244)
(-2.55558e-13 0.049771 -25.3182)
(-2.36979e-13 0.0527148 -26.0399)
(-2.18718e-13 0.0550375 -26.7805)
(-2.0293e-13 0.0566993 -27.5306)
(-1.73524e-13 0.0576903 -28.2813)
(-1.42875e-13 0.0580095 -29.0242)
(-1.31462e-13 0.0576636 -29.7513)
(-1.06805e-13 0.056659 -30.455)
(-8.34453e-14 0.0550085 -31.1285)
(-7.76073e-14 0.0527319 -31.7654)
(-7.24555e-14 0.0498622 -32.36)
(-7.76555e-14 0.0464558 -32.9075)
(-7.53405e-14 0.0425988 -33.4042)
(-6.90467e-14 0.0384042 -33.8478)
(-6.44812e-14 0.033997 -34.2377)
(-5.69484e-14 0.0294817 -34.5746)
(-4.55158e-14 0.0248924 -34.8605)
(-5.46171e-14 0.0201269 -35.0974)
(-4.92709e-14 0.0148567 -35.2855)
(-5.32463e-14 0.00841837 -35.4209)
(-2.54831e-14 -0.000292764 -35.4919)
(-2.42451e-14 -0.0128494 -35.4746)
(-1.76912e-14 -0.0310824 -35.3301)
(-1.65378e-14 -0.0564822 -35.0025)
(-2.35881e-14 -0.0883675 -34.4312)
(-3.35463e-14 -0.12108 -33.5842)
(-5.40335e-14 -0.14866 -32.493)
(-5.08233e-14 -0.171953 -31.2132)
(-5.32486e-14 -0.193108 -29.7725)
(-3.89169e-14 -0.211862 -28.1836)
(-5.08223e-14 -0.227854 -26.464)
(-2.14776e-14 -0.240759 -24.6321)
(-3.14596e-14 -0.24952 -22.7052)
(-3.70254e-14 -0.252109 -20.707)
(-4.57782e-14 -0.245204 -18.6766)
(-2.95594e-14 -0.224172 -16.6823)
(-6.00951e-14 -0.184781 -14.8416)
(-5.52801e-14 -0.12785 -13.3305)
(-5.90154e-14 -0.0632149 -12.3425)
(-7.74632e-14 -0.00414064 -11.9725)
(-1.00997e-13 0.0372352 -12.1175)
(-1.29466e-13 0.0449959 -12.4954)
(-9.56747e-14 0.0194374 -12.7978)
(-1.25564e-13 -0.0180004 -12.8428)
(-1.53411e-13 -0.0519883 -12.6239)
(-1.35092e-13 -0.0813148 -12.1995)
(-1.73911e-13 -0.107484 -11.5969)
(-1.93662e-13 -0.127396 -10.8381)
(-2.52741e-13 -0.139717 -9.96119)
(-2.42625e-13 -0.143201 -9.00271)
(-2.73758e-13 -0.135032 -8.00556)
(-2.7826e-13 -0.114709 -7.03259)
(-2.58405e-13 -0.0903256 -6.15892)
(-2.07567e-13 -0.0803808 -5.44122)
(-1.32113e-13 -0.0993594 -4.86239)
(-1.17349e-13 -0.141933 -4.29265)
(2.28255e-14 -0.229626 -3.61282)
(8.50847e-14 -0.44532 -2.7343)
(1.55689e-13 -0.744946 -1.26275)
(2.71121e-13 -0.784399 1.01775)
(4.27806e-13 -0.314173 2.82709)
(2.25898e-13 -0.00354978 3.15989)
(2.0347e-13 -0.0219204 3.84579)
(1.71956e-13 -0.123683 4.77134)
(1.53011e-13 -0.191456 5.9416)
(1.67319e-13 -0.232724 7.25704)
(9.0719e-14 -0.258503 8.67038)
(1.08913e-13 -0.275126 10.1468)
(1.46339e-13 -0.286925 11.6649)
(1.28219e-13 -0.296826 13.216)
(1.3738e-13 -0.306415 14.8015)
(1.2514e-13 -0.316459 16.4301)
(1.16174e-13 -0.327717 18.1165)
(7.17722e-14 -0.341352 19.8778)
(6.77506e-14 -0.358672 21.7306)
(6.16254e-14 -0.380328 23.6859)
(4.93487e-14 -0.406308 25.7532)
(3.37039e-14 -0.435633 27.9293)
(1.71804e-14 -0.468309 30.2338)
(3.65495e-15 -0.502631 32.6303)
(-1.34161e-14 -0.542428 35.2351)
(-2.94004e-14 -0.580552 37.796)
(-4.16577e-14 -0.63697 41.0166)
(-5.30646e-14 -0.667433 43.1658)
(-7.04505e-14 -0.783546 48.4891)
(-4.15655e-13 -0.0174557 -21.2035)
(-4.13648e-13 -0.0236443 -20.9518)
(-4.3049e-13 -0.0183937 -20.8005)
(-4.32239e-13 -0.0125328 -20.6654)
(-4.36253e-13 -0.00271348 -20.6018)
(-4.09323e-13 0.00991874 -20.6166)
(-3.95254e-13 0.023844 -20.7206)
(-4.16029e-13 0.038275 -20.9101)
(-3.71286e-13 0.0530921 -21.1813)
(-3.35717e-13 0.0683156 -21.5303)
(-3.19952e-13 0.0838159 -21.9536)
(-2.97707e-13 0.09918 -22.4464)
(-2.75603e-13 0.113799 -23.0016)
(-2.56573e-13 0.127217 -23.6101)
(-2.20463e-13 0.139282 -24.2625)
(-1.81917e-13 0.149892 -24.9505)
(-1.77166e-13 0.15888 -25.666)
(-1.66161e-13 0.166071 -26.4007)
(-1.44035e-13 0.171314 -27.1461)
(-1.31926e-13 0.174549 -27.8937)
(-9.96038e-14 0.175744 -28.6353)
(-7.71375e-14 0.174906 -29.3627)
(-8.39355e-14 0.172051 -30.0684)
(-7.19585e-14 0.167228 -30.7451)
(-6.78871e-14 0.160509 -31.3864)
(-5.37639e-14 0.152012 -31.9865)
(-3.75316e-14 0.141925 -32.5405)
(-4.3201e-14 0.130533 -33.045)
(-4.59071e-14 0.118213 -33.4978)
(-4.69792e-14 0.105394 -33.8988)
(-4.21465e-14 0.0924648 -34.2495)
(-6.31739e-14 0.0796268 -34.553)
(-6.60798e-14 0.0666977 -34.8127)
(-6.95897e-14 0.052838 -35.0308)
(-7.0384e-14 0.0362178 -35.2057)
(-6.65723e-14 0.01368 -35.3285)
(-7.64008e-14 -0.0193663 -35.3785)
(-8.39746e-14 -0.0683316 -35.32)
(-9.29437e-14 -0.137537 -35.0999)
(-1.00953e-13 -0.225504 -34.6622)
(-1.08804e-13 -0.31633 -33.9717)
(-1.06737e-13 -0.393463 -33.0552)
(-1.38488e-13 -0.459865 -31.9661)
(-1.37479e-13 -0.522277 -30.7275)
(-1.71989e-13 -0.58071 -29.3448)
(-1.68918e-13 -0.634975 -27.8267)
(-1.73154e-13 -0.685292 -26.1807)
(-1.60031e-13 -0.730309 -24.4104)
(-1.62883e-13 -0.766079 -22.5186)
(-1.27354e-13 -0.783901 -20.5135)
(-1.78927e-13 -0.767064 -18.4196)
(-1.39372e-13 -0.689968 -16.3069)
(-1.28186e-13 -0.529023 -14.3416)
(-1.06234e-13 -0.29435 -12.8244)
(-1.71296e-14 -0.0528687 -12.0835)
(-8.18888e-14 0.110266 -12.1339)
(-9.78499e-14 0.148548 -12.5516)
(-8.0877e-14 0.0777241 -12.914)
(-1.28102e-13 -0.0334267 -13.0095)
(-2.17037e-13 -0.135093 -12.8239)
(-2.17495e-13 -0.219775 -12.4344)
(-2.20858e-13 -0.295726 -11.8893)
(-1.71215e-13 -0.359091 -11.2033)
(-1.87814e-13 -0.408773 -10.4016)
(-2.57268e-13 -0.443293 -9.50553)
(-2.65568e-13 -0.454784 -8.53444)
(-3.04604e-13 -0.432652 -7.51803)
(-3.4208e-13 -0.372811 -6.50426)
(-3.15324e-13 -0.292782 -5.56894)
(-1.62047e-13 -0.232729 -4.78623)
(-1.65588e-13 -0.218663 -4.1111)
(-7.60741e-14 -0.2844 -3.33249)
(1.44074e-13 -0.539387 -2.44717)
(1.60566e-13 -0.943436 -1.78461)
(3.36788e-13 -1.09203 -1.30687)
(1.91323e-13 -0.741674 -0.0442077)
(1.5104e-13 -0.392763 1.99993)
(1.78683e-13 -0.42279 3.12185)
(6.87499e-14 -0.55694 4.16703)
(1.4811e-13 -0.670252 5.41787)
(1.98383e-13 -0.748844 6.77247)
(1.76386e-13 -0.80027 8.20108)
(1.33214e-13 -0.834959 9.68466)
(1.75896e-13 -0.861468 11.2119)
(1.55442e-13 -0.886502 12.7805)
(1.22468e-13 -0.915702 14.3983)
(5.39045e-14 -0.953818 16.0817)
(2.26229e-14 -1.00384 17.8499)
(1.76813e-14 -1.06572 19.7163)
(-5.19932e-15 -1.13656 21.6853)
(-1.74018e-14 -1.21207 23.7506)
(-3.13179e-14 -1.28938 25.9071)
(-4.08478e-14 -1.36695 28.1425)
(-6.59897e-14 -1.44782 30.4747)
(-7.99461e-14 -1.53189 32.8697)
(-8.77293e-14 -1.6311 35.4501)
(-9.65737e-14 -1.73186 37.9678)
(-1.03734e-13 -1.88203 41.1336)
(-1.0807e-13 -1.97481 43.2307)
(-1.08624e-13 -2.29677 48.4537)
(-3.29327e-13 -0.0314838 -20.8132)
(-3.5391e-13 -0.0410855 -20.5327)
(-3.59784e-13 -0.0311588 -20.3433)
(-3.48123e-13 -0.0203725 -20.1821)
(-3.66743e-13 -0.00310818 -20.0994)
(-3.4164e-13 0.0186923 -20.1024)
(-3.40158e-13 0.0425305 -20.201)
(-3.58971e-13 0.0670739 -20.3909)
(-3.34925e-13 0.0920577 -20.6669)
(-3.2075e-13 0.117476 -21.0233)
(-3.04716e-13 0.143116 -21.4544)
(-2.8496e-13 0.168339 -21.9539)
(-2.6274e-13 0.192214 -22.5131)
(-2.38096e-13 0.214073 -23.1221)
(-2.18648e-13 0.233756 -23.7718)
(-1.86828e-13 0.25116 -24.4545)
(-1.66743e-13 0.266039 -25.1632)
(-1.56948e-13 0.278105 -25.891)
(-1.48009e-13 0.287083 -26.6305)
(-1.41716e-13 0.29282 -27.3742)
(-1.07245e-13 0.295202 -28.1143)
(-1.07765e-13 0.294189 -28.8429)
(-1.15123e-13 0.289781 -29.5522)
(-9.71902e-14 0.282052 -30.2348)
(-7.4911e-14 0.271136 -30.8839)
(-6.8703e-14 0.257245 -31.4938)
(-5.50675e-14 0.240719 -32.0596)
(-4.44687e-14 0.222063 -32.5779)
(-4.66502e-14 0.201943 -33.0471)
(-5.0794e-14 0.181133 -33.4676)
(-5.81201e-14 0.160355 -33.8416)
(-6.78527e-14 0.140041 -34.1732)
(-8.45721e-14 0.119993 -34.4672)
(-7.66382e-14 0.0989253 -34.727)
(-7.34468e-14 0.0738945 -34.9527)
(-8.09742e-14 0.0397116 -35.1365)
(-8.61514e-14 -0.0112674 -35.2582)
(-9.20474e-14 -0.0881203 -35.2811)
(-9.79708e-14 -0.197912 -35.1495)
(-1.04683e-13 -0.338636 -34.8037)
(-1.12241e-13 -0.484839 -34.2087)
(-1.20566e-13 -0.608595 -33.3895)
(-1.28682e-13 -0.714949 -32.4039)
(-1.34792e-13 -0.815555 -31.2763)
(-1.39582e-13 -0.911358 -30.0099)
(-1.44156e-13 -1.00259 -28.6112)
(-1.46485e-13 -1.09027 -27.0861)
(-1.46799e-13 -1.17375 -25.4367)
(-1.4309e-13 -1.24964 -23.6627)
(-1.37833e-13 -1.30855 -21.7614)
(-1.38732e-13 -1.32841 -19.7299)
(-1.50359e-13 -1.26603 -17.5805)
(-1.68133e-13 -1.05852 -15.3895)
(-1.92542e-13 -0.667984 -13.4058)
(-1.77256e-13 -0.182253 -12.1316)
(-1.42095e-13 0.173227 -11.947)
(-6.23484e-14 0.266911 -12.4112)
(-7.49559e-14 0.147452 -12.8441)
(-1.5757e-13 -0.0464454 -12.9571)
(-1.5916e-13 -0.219659 -12.7526)
(-2.05658e-13 -0.354764 -12.3527)
(-1.711e-13 -0.472406 -11.8255)
(-1.46883e-13 -0.571909 -11.1803)
(-1.22144e-13 -0.652309 -10.4393)
(-1.40735e-13 -0.712881 -9.62342)
(-9.54754e-14 -0.745092 -8.74841)
(-1.17375e-13 -0.736378 -7.83283)
(-1.1192e-13 -0.678856 -6.8983)
(-7.33473e-14 -0.587141 -5.97546)
(-3.85269e-14 -0.513154 -5.10704)
(2.17088e-14 -0.514955 -4.30398)
(7.88985e-14 -0.611475 -3.50242)
(1.60376e-13 -0.822757 -2.69538)
(1.07317e-13 -1.13575 -1.98078)
(1.90795e-13 -1.38156 -1.37822)
(2.85616e-13 -1.32838 -0.598803)
(1.85722e-13 -1.08675 0.803049)
(2.6826e-13 -0.929257 2.24681)
(2.52396e-13 -0.987479 3.45425)
(2.05736e-13 -1.13015 4.744)
(1.50524e-13 -1.2479 6.08268)
(9.27454e-14 -1.33211 7.48472)
(-2.46235e-15 -1.39473 8.95248)
(-4.98342e-14 -1.44759 10.4838)
(-8.95539e-14 -1.50118 12.0803)
(-1.10408e-13 -1.56443 13.7486)
(-1.13823e-13 -1.64268 15.4962)
(-1.0929e-13 -1.73605 17.3259)
(-9.25755e-14 -1.84002 19.2333)
(-9.83203e-14 -1.94879 21.2114)
(-9.86361e-14 -2.05811 23.2533)
(-8.34584e-14 -2.16783 25.3616)
(-8.51997e-14 -2.27978 27.5348)
(-8.20144e-14 -2.40064 29.8019)
(-8.28551e-14 -2.53245 32.1339)
(-8.11245e-14 -2.69059 34.6614)
(-8.3495e-14 -2.86076 37.1287)
(-7.75999e-14 -3.10107 40.2632)
(-7.47473e-14 -3.27544 42.322)
(-6.5014e-14 -3.78535 47.5239)
(-2.23259e-13 -0.0504428 -20.4037)
(-2.55219e-13 -0.0602175 -20.0904)
(-2.9744e-13 -0.0454583 -19.8573)
(-3.19638e-13 -0.0288288 -19.6615)
(-3.14081e-13 -0.00330761 -19.5506)
(-3.34031e-13 0.0285278 -19.5327)
(-3.60203e-13 0.0631261 -19.6182)
(-3.27475e-13 0.0985344 -19.8026)
(-2.95933e-13 0.134243 -20.0798)
(-2.88989e-13 0.170156 -20.4425)
(-2.7023e-13 0.205957 -20.8827)
(-2.50783e-13 0.240802 -21.3917)
(-2.26178e-13 0.273491 -21.959)
(-2.19105e-13 0.303254 -22.573)
(-2.12601e-13 0.330041 -23.224)
(-1.91288e-13 0.353849 -23.9046)
(-1.73921e-13 0.374416 -24.6085)
(-1.71695e-13 0.39137 -25.3303)
(-1.54803e-13 0.404296 -26.064)
(-1.20034e-13 0.412901 -26.8035)
(-1.00221e-13 0.416924 -27.542)
(-9.0138e-14 0.416214 -28.2723)
(-8.41962e-14 0.410709 -28.9866)
(-6.28251e-14 0.400496 -29.6772)
(-4.74602e-14 0.385781 -30.3372)
(-3.44533e-14 0.366899 -30.9605)
(-2.35341e-14 0.344371 -31.5424)
(-1.48708e-14 0.318951 -32.0794)
(-8.61726e-15 0.291634 -32.5703)
(-5.27792e-15 0.263575 -33.0155)
(-8.07166e-15 0.235876 -33.418)
(-3.14744e-14 0.209245 -33.7823)
(-4.17078e-14 0.183507 -34.1141)
(-4.39163e-14 0.156938 -34.4176)
(-4.84442e-14 0.125431 -34.6937)
(-4.38179e-14 0.0816061 -34.9348)
(-7.78942e-14 0.0144465 -35.1202)
(-6.29514e-14 -0.0892807 -35.2105)
(-8.22958e-14 -0.239824 -35.1451)
(-1.08054e-13 -0.434159 -34.8565)
(-1.01363e-13 -0.636671 -34.3117)
(-1.08757e-13 -0.806942 -33.5343)
(-1.32941e-13 -0.952495 -32.5904)
(-1.36022e-13 -1.09009 -31.5086)
(-1.13809e-13 -1.22211 -30.2926)
(-1.18963e-13 -1.34913 -28.95)
(-1.11143e-13 -1.47248 -27.4893)
(-1.40641e-13 -1.59192 -25.916)
(-1.57436e-13 -1.70497 -24.2343)
(-1.55375e-13 -1.80376 -22.444)
(-1.18332e-13 -1.86715 -20.5369)
(-1.23959e-13 -1.8469 -18.4966)
(-7.91631e-14 -1.65292 -16.3197)
(-1.3976e-13 -1.17666 -14.1113)
(-2.07438e-13 -0.440302 -12.3138)
(-1.95341e-13 0.203875 -11.6748)
(-1.72945e-13 0.40464 -12.1231)
(-1.00937e-13 0.234309 -12.6568)
(-1.69467e-13 -0.0590512 -12.801)
(-1.51715e-13 -0.309924 -12.5648)
(-1.29975e-13 -0.489655 -12.1395)
(-9.16781e-14 -0.641503 -11.6225)
(-1.30711e-13 -0.771247 -11.0157)
(-1.00129e-13 -0.87705 -10.3356)
(-9.62165e-14 -0.958402 -9.60097)
(-8.95581e-14 -1.00626 -8.82471)
(-1.83883e-13 -1.00714 -8.02018)
(-1.62194e-13 -0.951873 -7.19925)
(-9.34412e-14 -0.851914 -6.37182)
(-6.79745e-14 -0.756933 -5.54926)
(1.63617e-14 -0.739423 -4.73661)
(-1.36427e-14 -0.845836 -3.92896)
(1.17317e-13 -1.0758 -3.14956)
(6.03201e-15 -1.36466 -2.4379)
(1.57663e-13 -1.5868 -1.78121)
(1.81654e-13 -1.6412 -1.04671)
(1.37863e-13 -1.53939 0.0422251)
(2.28014e-13 -1.42261 1.4121)
(9.09454e-14 -1.45641 2.7077)
(4.99593e-14 -1.60795 3.98968)
(1.05287e-14 -1.74819 5.29702)
(-1.0133e-13 -1.86086 6.65576)
(-1.68995e-13 -1.95468 8.08192)
(-2.37564e-13 -2.04031 9.57973)
(-2.1219e-13 -2.12806 11.15)
(-1.80744e-13 -2.22606 12.7915)
(-1.11687e-13 -2.33789 14.4998)
(-8.88643e-14 -2.4623 16.2691)
(-6.73445e-14 -2.59518 18.0948)
(-7.33447e-14 -2.73287 19.9779)
(-5.06771e-14 -2.87367 21.9229)
(-5.38173e-14 -3.01943 23.9427)
(-6.25785e-14 -3.17313 26.041)
(-6.10385e-14 -3.34219 28.2503)
(-6.01111e-14 -3.52991 30.5373)
(-5.06465e-14 -3.75207 33.037)
(-4.71021e-14 -3.99828 35.4758)
(-3.35394e-14 -4.32632 38.6061)
(-3.02101e-14 -4.5947 40.6372)
(-2.27288e-14 -5.28207 45.8469)
(-2.08325e-13 -0.0765281 -20.0005)
(-2.38305e-13 -0.080773 -19.6511)
(-2.70536e-13 -0.0622072 -19.3713)
(-2.90049e-13 -0.0388454 -19.1357)
(-3.08846e-13 -0.00439983 -18.9896)
(-2.66147e-13 0.038349 -18.9428)
(-2.49679e-13 0.0846728 -19.007)
(-2.70089e-13 0.13192 -19.1785)
(-2.48338e-13 0.17922 -19.4509)
(-2.40493e-13 0.226281 -19.816)
(-2.24746e-13 0.272612 -20.2639)
(-2.29098e-13 0.317131 -20.7835)
(-2.33318e-13 0.358387 -21.362)
(-2.31989e-13 0.39557 -21.9855)
(-2.30993e-13 0.428869 -22.6428)
(-1.96695e-13 0.458512 -23.3259)
(-1.78662e-13 0.484332 -24.029)
(-1.59855e-13 0.505954 -24.7473)
(-1.3458e-13 0.52286 -25.4767)
(-1.0533e-13 0.534605 -26.2125)
(-8.79096e-14 0.540723 -26.9496)
(-7.3832e-14 0.540867 -27.6816)
(-5.73703e-14 0.534837 -28.4013)
(-3.40383e-14 0.522684 -29.1012)
(-1.61309e-14 0.504669 -29.774)
(3.24618e-15 0.481256 -30.4132)
(1.69301e-14 0.453167 -31.0139)
(1.96255e-14 0.421431 -31.5724)
(6.84758e-15 0.387385 -32.0873)
(1.05115e-14 0.352589 -32.5594)
(7.01265e-15 0.318548 -32.9915)
(1.28681e-15 0.286269 -33.3888)
(-8.59611e-15 0.255624 -33.757)
(-2.30621e-14 0.224462 -34.1012)
(-4.75203e-14 0.187477 -34.4224)
(-5.3652e-14 0.134974 -34.7131)
(-7.81076e-14 0.0522642 -34.9512)
(-1.00917e-13 -0.0785377 -35.0933)
(-1.24327e-13 -0.271431 -35.0716)
(-1.39734e-13 -0.52166 -34.8077)
(-1.43145e-13 -0.782394 -34.2714)
(-1.34345e-13 -0.99961 -33.489)
(-1.24843e-13 -1.18376 -32.5384)
(-1.06576e-13 -1.35666 -31.4552)
(-1.09556e-13 -1.52263 -30.2463)
(-1.13138e-13 -1.68257 -28.9226)
(-1.20463e-13 -1.83775 -27.4959)
(-1.30894e-13 -1.98807 -25.9755)
(-1.42532e-13 -2.13184 -24.3693)
(-1.60576e-13 -2.26308 -22.6812)
(-1.39871e-13 -2.36402 -20.9059)
(-1.53167e-13 -2.38982 -19.0228)
(-1.21216e-13 -2.24278 -16.9936)
(-1.37384e-13 -1.76098 -14.8053)
(-1.7507e-13 -0.844294 -12.6893)
(-2.16858e-13 0.159532 -11.4637)
(-2.94655e-13 0.550405 -11.7407)
(-2.68955e-13 0.343541 -12.3731)
(-2.53331e-13 -0.0695343 -12.5791)
(-1.47876e-13 -0.409668 -12.3142)
(-1.32678e-13 -0.626222 -11.8649)
(-6.65345e-14 -0.801157 -11.3702)
(-1.46678e-13 -0.952828 -10.8177)
(-1.44813e-13 -1.07753 -10.2122)
(-1.45521e-13 -1.17434 -9.56798)
(-1.34857e-13 -1.23434 -8.89543)
(-6.86911e-15 -1.24457 -8.20474)
(-9.0988e-14 -1.19767 -7.50203)
(-9.35596e-14 -1.10673 -6.78498)
(-1.9097e-13 -1.01917 -6.04508)
(-1.25073e-13 -1.00304 -5.27458)
(-5.50792e-14 -1.10686 -4.48309)
(7.54197e-14 -1.33084 -3.70722)
(1.40506e-13 -1.60834 -2.97644)
(2.00485e-13 -1.83427 -2.27244)
(1.06166e-13 -1.95149 -1.52283)
(1.29442e-13 -1.96325 -0.59266)
(1.95861e-13 -1.91015 0.642427)
(-1.12785e-14 -1.93565 1.95519)
(-1.62512e-14 -2.075 3.21018)
(-4.21081e-14 -2.23111 4.48528)
(-2.4678e-13 -2.37028 5.79979)
(-2.62369e-13 -2.49479 7.1732)
(-1.89801e-13 -2.6124 8.61219)
(-1.5115e-13 -2.73165 10.117)
(-9.70696e-14 -2.85955 11.6844)
(-5.8112e-14 -2.99963 13.3102)
(-3.38638e-14 -3.15193 14.9921)
(-2.93549e-14 -3.31431 16.7311)
(-7.88968e-15 -3.48486 18.533)
(-1.82724e-14 -3.66293 20.4047)
(-2.38704e-14 -3.85078 22.3594)
(-4.21912e-14 -4.05188 24.3989)
(-4.57884e-14 -4.27361 26.5558)
(-4.56382e-14 -4.52149 28.7913)
(-3.79131e-14 -4.80943 31.2468)
(-2.25017e-14 -5.13591 33.632)
(-1.71315e-14 -5.54837 36.7238)
(-1.42597e-14 -5.91975 38.6972)
(-1.92179e-15 -6.77967 43.8471)
(-9.89994e-14 -0.100066 -19.657)
(-1.2664e-13 -0.105701 -19.2184)
(-1.47852e-13 -0.0814063 -18.8994)
(-1.5434e-13 -0.0512081 -18.6189)
(-1.66344e-13 -0.00721351 -18.433)
(-1.54494e-13 0.0471951 -18.3505)
(-1.75335e-13 0.106202 -18.3855)
(-2.32773e-13 0.166371 -18.5359)
(-2.56043e-13 0.226346 -18.7963)
(-2.39034e-13 0.285497 -19.1581)
(-2.18248e-13 0.343048 -19.6101)
(-2.38503e-13 0.397618 -20.1392)
(-2.55306e-13 0.447468 -20.7301)
(-2.38236e-13 0.491778 -21.3664)
(-2.2293e-13 0.531072 -22.0348)
(-1.94995e-13 0.565937 -22.7258)
(-1.70513e-13 0.59643 -23.4332)
(-1.29284e-13 0.622291 -24.1526)
(-7.99232e-14 0.642991 -24.8807)
(-6.205e-14 0.657977 -25.6145)
(-5.85764e-14 0.666557 -26.3506)
(-4.62378e-14 0.668114 -27.0842)
(-2.87374e-14 0.662211 -27.8093)
(-2.34359e-14 0.648772 -28.5186)
(-1.01164e-14 0.62806 -29.2047)
(7.29086e-15 0.600657 -29.8607)
(8.79146e-15 0.567494 -30.4811)
(7.38876e-15 0.529898 -31.0618)
(2.44362e-15 0.489581 -31.6011)
(4.81528e-15 0.448531 -32.0995)
(2.95385e-15 0.408683 -32.5601)
(-9.8377e-15 0.371377 -32.988)
(-1.90226e-14 0.336559 -33.3892)
(-4.77852e-14 0.301659 -33.769)
(-7.00088e-14 0.260112 -34.1288)
(-9.5064e-14 0.199703 -34.4604)
(-1.28171e-13 0.101617 -34.7395)
(-1.37488e-13 -0.0574441 -34.9176)
(-1.35682e-13 -0.296054 -34.917)
(-1.20765e-13 -0.606758 -34.647)
(-1.09288e-13 -0.929297 -34.0826)
(-6.96414e-14 -1.19458 -33.261)
(-4.97428e-14 -1.4166 -32.2752)
(-5.32466e-14 -1.62238 -31.1689)
(-2.29626e-14 -1.81886 -29.9528)
(-2.29461e-14 -2.00754 -28.6405)
(-2.13591e-14 -2.18971 -27.2453)
(-2.62643e-14 -2.3654 -25.7765)
(-3.50211e-14 -2.53365 -24.2418)
(-4.88579e-14 -2.69006 -22.6453)
(-7.50262e-14 -2.82003 -20.9843)
(-1.00709e-13 -2.88438 -19.2438)
(-1.24281e-13 -2.79028 -17.3857)
(-1.35702e-13 -2.35386 -15.3505)
(-1.64749e-13 -1.36199 -13.181)
(-2.08518e-13 -0.0200774 -11.4802)
(-2.53836e-13 0.674188 -11.362)
(-2.34807e-13 0.473594 -12.0051)
(-1.42583e-13 -0.069613 -12.3141)
(-8.03295e-14 -0.514274 -12.0654)
(-9.96261e-14 -0.760501 -11.6151)
(-1.01141e-13 -0.946293 -11.1613)
(-1.65567e-13 -1.11286 -10.6791)
(-1.73902e-13 -1.25267 -10.1566)
(-1.66319e-13 -1.36181 -9.60388)
(-1.26234e-13 -1.43088 -9.03132)
(-6.06663e-14 -1.44789 -8.44814)
(2.83041e-14 -1.40806 -7.85611)
(-2.11536e-14 -1.32772 -7.24339)
(-1.47188e-13 -1.25478 -6.58717)
(-1.18116e-13 -1.2537 -5.86936)
(-2.06394e-13 -1.36855 -5.10233)
(-6.66188e-14 -1.59372 -4.32949)
(8.03056e-14 -1.86358 -3.58249)
(2.58525e-13 -2.08892 -2.84378)
(1.92048e-13 -2.23533 -2.06239)
(1.21629e-13 -2.32673 -1.19296)
(8.19964e-14 -2.36435 -0.102204)
(-3.50582e-14 -2.41377 1.15546)
(-5.51482e-14 -2.53987 2.39147)
(-1.18081e-13 -2.70638 3.63437)
(-2.5002e-13 -2.86774 4.91293)
(-2.65422e-13 -3.01881 6.24355)
(-5.24806e-14 -3.16483 7.63414)
(-1.3327e-14 -3.31294 9.08632)
(-1.01119e-14 -3.46952 10.599)
(6.34536e-15 -3.6383 12.1702)
(-5.75941e-15 -3.82006 13.7992)
(-2.22281e-14 -4.01361 15.487)
(-4.32865e-14 -4.21798 17.2384)
(-3.09909e-14 -4.43334 19.0576)
(-2.68314e-14 -4.6625 20.9568)
(-4.34869e-14 -4.90994 22.9357)
(-4.88619e-14 -5.18283 25.0279)
(-3.78842e-14 -5.49002 27.1909)
(-2.00598e-14 -5.84133 29.5716)
(-9.31802e-15 -6.24855 31.8693)
(-3.24539e-16 -6.74061 34.8736)
(8.64226e-15 -7.21834 36.7597)
(7.00645e-15 -8.24909 41.7602)
(-6.24031e-14 -0.126055 -19.2966)
(-7.48932e-14 -0.134648 -18.8151)
(-1.06971e-13 -0.10366 -18.4464)
(-1.54372e-13 -0.0664983 -18.1204)
(-1.97027e-13 -0.0125347 -17.8906)
(-2.04508e-13 0.0541251 -17.767)
(-2.15134e-13 0.126675 -17.7658)
(-2.54474e-13 0.200852 -17.887)
(-2.55921e-13 0.274718 -18.1272)
(-2.23159e-13 0.347143 -18.4785)
(-2.32552e-13 0.416919 -18.9291)
(-2.621e-13 0.482262 -19.4645)
(-2.48407e-13 0.541075 -20.0671)
(-2.27536e-13 0.59251 -20.7178)
(-2.02901e-13 0.637485 -21.4006)
(-1.59665e-13 0.677052 -22.1046)
(-1.09827e-13 0.711596 -22.8221)
(-9.21528e-14 0.741104 -23.5482)
(-7.74971e-14 0.765164 -24.2797)
(-6.72461e-14 0.783229 -25.0148)
(-6.72729e-14 0.794422 -25.7516)
(-4.82025e-14 0.797826 -26.4872)
(-3.70439e-14 0.79267 -27.217)
(-3.46544e-14 0.778634 -27.9349)
(-2.08341e-14 0.755889 -28.6335)
(-1.61936e-14 0.725074 -29.3057)
(-6.91935e-15 0.687317 -29.9451)
(1.56573e-14 0.644262 -30.5473)
(1.46973e-14 0.598021 -31.1098)
(-5.20033e-15 0.551046 -31.6329)
(-1.95548e-15 0.505731 -32.1195)
(-2.16844e-14 0.463774 -32.5746)
(-4.14173e-14 0.425217 -33.0045)
(-6.43711e-14 0.387058 -33.4147)
(-8.3014e-14 0.341388 -33.8062)
(-8.92932e-14 0.273206 -34.1701)
(-9.92078e-14 0.159021 -34.479)
(-8.39549e-14 -0.0307216 -34.6777)
(-6.73717e-14 -0.319875 -34.6774)
(-5.58013e-14 -0.696697 -34.3755)
(-5.55736e-14 -1.08389 -33.7563)
(-4.75394e-14 -1.39637 -32.8787)
(-5.12125e-14 -1.65338 -31.8509)
(-2.48341e-14 -1.88776 -30.7227)
(-1.48184e-14 -2.10986 -29.5059)
(8.19876e-15 -2.32233 -28.2135)
(2.87637e-14 -2.5267 -26.8566)
(5.7288e-14 -2.72343 -25.4412)
(6.53008e-14 -2.91222 -23.9715)
(7.21141e-14 -3.08963 -22.4499)
(1.94261e-14 -3.24295 -20.8752)
(-2.86351e-14 -3.33729 -19.24)
(-9.95407e-14 -3.28769 -17.5202)
(-1.22995e-13 -2.90968 -15.6613)
(-1.60584e-13 -1.91936 -13.6197)
(-1.71262e-13 -0.328805 -11.7108)
(-1.59807e-13 0.738111 -11.0956)
(-1.47833e-13 0.615238 -11.6161)
(-1.98569e-13 -0.0448784 -12.0403)
(-1.61727e-13 -0.610676 -11.8809)
(-2.18891e-13 -0.886941 -11.4696)
(-2.21715e-13 -1.07494 -11.0675)
(-2.05727e-13 -1.25083 -10.656)
(-1.74333e-13 -1.40361 -10.2117)
(-2.02563e-13 -1.52323 -9.74333)
(-1.45434e-13 -1.59936 -9.26243)
(-1.50605e-13 -1.62228 -8.7773)
(-3.32798e-14 -1.59134 -8.28396)
(1.59014e-14 -1.52714 -7.76058)
(-1.09965e-13 -1.47737 -7.17348)
(-1.15456e-13 -1.50009 -6.49987)
(-2.50302e-13 -1.63144 -5.75541)
(-1.45607e-13 -1.8613 -4.98838)
(-8.60999e-14 -2.12968 -4.23421)
(3.59775e-14 -2.36182 -3.48095)
(1.79554e-13 -2.52983 -2.68291)
(1.07952e-13 -2.66474 -1.81204)
(1.64848e-14 -2.77694 -0.840418)
(-3.73372e-14 -2.87275 0.304048)
(-5.36011e-14 -3.00037 1.51694)
(-2.07885e-13 -3.17423 2.7157)
(-3.55622e-13 -3.35683 3.95538)
(-2.23217e-13 -3.53389 5.2468)
(5.64917e-16 -3.70777 6.59695)
(6.56356e-14 -3.88448 8.00766)
(5.25251e-14 -4.06967 9.47798)
(3.18638e-15 -4.26687 11.0058)
(-4.81918e-14 -4.47727 12.59)
(-6.86723e-14 -4.70049 14.2309)
(-6.07727e-14 -4.93659 15.9322)
(-3.06263e-14 -5.18682 17.6975)
(-2.61918e-14 -5.45458 19.5383)
(-4.3424e-14 -5.74564 21.4528)
(-4.23423e-14 -6.06655 23.4751)
(-3.06874e-14 -6.43034 25.5591)
(-3.84641e-15 -6.84084 27.8546)
(3.24847e-15 -7.3269 30.0553)
(7.16532e-15 -7.89249 32.9497)
(5.00329e-16 -8.47659 34.7427)
(-1.31617e-14 -9.6739 39.5481)
(-1.02762e-13 -0.157983 -18.9605)
(-1.10094e-13 -0.166947 -18.4399)
(-1.34133e-13 -0.129652 -18.0185)
(-1.872e-13 -0.085159 -17.6461)
(-2.21044e-13 -0.0210621 -17.37)
(-2.36517e-13 0.0582558 -17.2011)
(-2.50121e-13 0.145045 -17.1577)
(-2.40239e-13 0.234237 -17.2421)
(-2.19687e-13 0.323251 -17.4536)
(-2.28379e-13 0.410305 -17.7861)
(-2.35289e-13 0.493584 -18.2283)
(-2.3434e-13 0.570759 -18.7648)
(-2.02981e-13 0.639264 -19.376)
(-1.71764e-13 0.698165 -20.0405)
(-1.35241e-13 0.748806 -20.7396)
(-1.16909e-13 0.792772 -21.4601)
(-1.10727e-13 0.830851 -22.1928)
(-1.03197e-13 0.863373 -22.9317)
(-9.98545e-14 0.890177 -23.6726)
(-8.41287e-14 0.910872 -24.4139)
(-6.60033e-14 0.924518 -25.1546)
(-4.21208e-14 0.929946 -25.8936)
(-2.79206e-14 0.925999 -26.628)
(-2.95673e-14 0.912001 -27.3532)
(-1.88222e-14 0.887898 -28.0627)
(4.37957e-15 0.854285 -28.7492)
(2.50482e-14 0.812439 -29.406)
(2.84321e-14 0.764317 -30.0277)
(3.43093e-15 0.712461 -30.6114)
(-6.35641e-15 0.659824 -31.1567)
(-2.01976e-14 0.609299 -31.6663)
(-3.69745e-14 0.56297 -32.1451)
(-4.95556e-14 0.520989 -32.5995)
(-5.90865e-14 0.479899 -33.0348)
(-6.43742e-14 0.430329 -33.4517)
(-6.50072e-14 0.354185 -33.8399)
(-8.3061e-14 0.222677 -34.1683)
(-8.95844e-14 -0.000882949 -34.3744)
(-1.11761e-13 -0.346151 -34.3579)
(-1.39876e-13 -0.794998 -34.0069)
(-1.53792e-13 -1.24838 -33.3196)
(-1.26978e-13 -1.60528 -32.3852)
(-9.33996e-14 -1.89282 -31.3238)
(-5.4206e-14 -2.15079 -30.1862)
(-3.04287e-14 -2.39374 -28.9802)
(-5.26001e-15 -2.62591 -27.715)
(1.81446e-14 -2.84927 -26.3971)
(4.01919e-14 -3.06465 -25.0283)
(5.47504e-14 -3.27212 -23.6101)
(3.34751e-14 -3.46857 -22.1437)
(2.49937e-14 -3.64195 -20.6301)
(2.01056e-14 -3.75968 -19.0681)
(-4.3344e-14 -3.7428 -17.4483)
(-9.28276e-14 -3.41358 -15.7388)
(-1.68108e-13 -2.4559 -13.8911)
(-2.39933e-13 -0.722553 -12.0385)
(-2.32897e-13 0.70147 -11.0594)
(-1.63651e-13 0.741676 -11.3418)
(-2.27261e-13 0.0116769 -11.8191)
(-2.72751e-13 -0.680205 -11.7959)
(-3.62749e-13 -0.998554 -11.4599)
(-3.30525e-13 -1.18907 -11.1098)
(-3.15165e-13 -1.3709 -10.7575)
(-3.03686e-13 -1.53436 -10.3803)
(-2.94942e-13 -1.66216 -9.98815)
(-2.74181e-13 -1.74298 -9.59176)
(-2.52163e-13 -1.77077 -9.19562)
(-1.21406e-13 -1.75035 -8.78742)
(-7.51172e-14 -1.70702 -8.33498)
(-1.11825e-13 -1.68749 -7.798)
(-1.86547e-13 -1.7413 -7.15556)
(-2.74322e-13 -1.89423 -6.42986)
(-2.71234e-13 -2.13152 -5.67306)
(-2.44742e-13 -2.40022 -4.92202)
(-1.46696e-13 -2.64046 -4.16873)
(1.34899e-14 -2.82997 -3.37473)
(2.4839e-14 -2.99254 -2.51781)
(-2.87968e-15 -3.14815 -1.59647)
(-3.8528e-14 -3.30032 -0.575635)
(-7.72775e-14 -3.45434 0.562396)
(-2.61518e-13 -3.6335 1.73174)
(-3.30199e-13 -3.83547 2.91916)
(-7.22714e-14 -4.03885 4.16047)
(6.09298e-14 -4.24065 5.45995)
(7.88071e-14 -4.44552 6.81879)
(-2.52162e-15 -4.65867 8.23589)
(-6.87984e-14 -4.88363 9.70911)
(-9.28891e-14 -5.12206 11.2376)
(-8.09379e-14 -5.37446 12.8217)
(-2.90517e-14 -5.64176 14.4653)
(-9.91687e-15 -5.92609 16.1709)
(-2.43999e-14 -6.23118 17.9497)
(-4.26464e-14 -6.5641 19.7978)
(-2.93238e-14 -6.93031 21.749)
(-1.22074e-14 -7.3478 23.7542)
(-3.96369e-15 -7.81276 25.9627)
(-6.56277e-15 -8.37467 28.0681)
(-1.67907e-14 -9.00605 30.8457)
(-2.52893e-14 -9.69672 32.55)
(-3.39133e-14 -11.0505 37.1469)
(-6.16607e-14 -0.195437 -18.6589)
(-1.24446e-13 -0.203436 -18.0954)
(-1.36965e-13 -0.159714 -17.621)
(-1.76887e-13 -0.107663 -17.2009)
(-1.77775e-13 -0.0333758 -16.8774)
(-1.58097e-13 0.0587819 -16.6606)
(-1.80761e-13 0.160289 -16.5702)
(-2.00863e-13 0.265342 -16.6113)
(-1.84662e-13 0.370697 -16.786)
(-2.05351e-13 0.473812 -17.0909)
(-2.14545e-13 0.57208 -17.5161)
(-1.83031e-13 0.66245 -18.0465)
(-1.5518e-13 0.741732 -18.6613)
(-1.35738e-13 0.80881 -19.3367)
(-1.27256e-13 0.865457 -20.0515)
(-1.33602e-13 0.913841 -20.7901)
(-1.46628e-13 0.955184 -21.5418)
(-1.36476e-13 0.990209 -22.2987)
(-1.00515e-13 1.01909 -23.0552)
(-7.74942e-14 1.04176 -23.8088)
(-7.38042e-14 1.05737 -24.5583)
(-5.09181e-14 1.06464 -25.3037)
(-3.63159e-14 1.06207 -26.0437)
(-1.85773e-14 1.04855 -26.7755)
(1.24559e-14 1.02369 -27.4938)
(7.23497e-15 0.987889 -28.1923)
(-1.58655e-15 0.942482 -28.8638)
(-2.32832e-14 0.889697 -29.5025)
(-2.69326e-14 0.832519 -30.1046)
(-4.19789e-14 0.774438 -30.6693)
(-5.18711e-14 0.718883 -31.1988)
(-3.68732e-14 0.668354 -31.6979)
(-4.20762e-14 0.623115 -32.1727)
(-2.96715e-14 0.579215 -32.6283)
(-2.24845e-14 0.525683 -33.0648)
(-3.92587e-14 0.440999 -33.4703)
(-6.32625e-14 0.290428 -33.8099)
(-8.35127e-14 0.02932 -34.0138)
(-1.09841e-13 -0.377957 -33.9707)
(-1.2382e-13 -0.904236 -33.5635)
(-1.15826e-13 -1.42332 -32.8075)
(-9.09826e-14 -1.81981 -31.8258)
(-6.19498e-14 -2.13236 -30.7445)
(7.43995e-16 -2.4092 -29.6091)
(2.59637e-14 -2.66943 -28.4204)
(4.85831e-14 -2.91883 -27.182)
(6.01591e-14 -3.15954 -25.8964)
(6.6969e-14 -3.39249 -24.5633)
(6.60316e-14 -3.6177 -23.1831)
(5.96821e-14 -3.83193 -21.7577)
(4.98382e-14 -4.02306 -20.2899)
(3.78794e-14 -4.15932 -18.783)
(1.11915e-14 -4.16505 -17.2379)
(-4.75027e-14 -3.8681 -15.6455)
(-1.32161e-13 -2.93854 -13.9859)
(-2.84246e-13 -1.11956 -12.3299)
(-4.17801e-13 0.604539 -11.2273)
(-3.85089e-13 0.82791 -11.2895)
(-4.27207e-13 0.0824408 -11.7299)
(-4.24037e-13 -0.717479 -11.8207)
(-4.0883e-13 -1.0923 -11.5693)
(-3.12923e-13 -1.29123 -11.268)
(-2.99029e-13 -1.4772 -10.9658)
(-3.00144e-13 -1.64789 -10.6493)
(-2.88562e-13 -1.78083 -10.3293)
(-2.89057e-13 -1.8645 -10.013)
(-2.84365e-13 -1.89772 -9.69683)
(-1.92681e-13 -1.89142 -9.35837)
(-1.02253e-13 -1.87466 -8.95679)
(-1.15259e-13 -1.89099 -8.45124)
(-1.13912e-13 -1.97956 -7.8292)
(-2.37665e-13 -2.15556 -7.12145)
(-2.4755e-13 -2.40133 -6.38171)
(-2.84607e-13 -2.67195 -5.6449)
(-2.41012e-13 -2.92063 -4.9049)
(4.91064e-15 -3.12985 -4.12964)
(4.08794e-14 -3.31581 -3.29657)
(-3.64133e-14 -3.49834 -2.40446)
(-6.75658e-14 -3.6906 -1.46078)
(-8.95697e-14 -3.88627 -0.427793)
(-2.18985e-13 -4.08433 0.689545)
(-1.87065e-13 -4.29982 1.83079)
(2.16154e-14 -4.52772 3.01039)
(9.14992e-14 -4.75751 4.24836)
(-2.03937e-15 -4.99053 5.54509)
(-4.96178e-14 -5.23161 6.89971)
(-9.86394e-14 -5.48447 8.31027)
(-8.15633e-14 -5.75115 9.77617)
(-3.64237e-14 -6.03285 11.2973)