/*--------------------------------*- C++ -*----------------------------------*\
| =========                 |                                                 |
| \\      /  F ield         | OpenFOAM: The Open Source CFD Toolbox           |
|  \\    /   O peration     | Version:  4.1                                   |
|   \\  /    A nd           | Web:      www.OpenFOAM.org                      |
|    \\/     M anipulation  |                                                 |
\*---------------------------------------------------------------------------*/
FoamFile
{
    version     2.0;
    format      ascii;
    class       volScalarField;
    location    "600";
    object      k;
}
// * * * * * * * * * * * * * * * * * * * * * * * * * * * * * * * * * * * * * //

dimensions      [0 2 -2 0 0 0 0];

internalField   nonuniform List<scalar> 
6820
(
0.257082
0.434211
0.59852
0.709382
0.778145
0.818049
0.838548
0.845896
0.844372
0.836964
0.825768
0.812248
0.797428
0.782017
0.7665
0.751204
0.73634
0.722041
0.708384
0.695407
0.683122
0.671524
0.660594
0.650306
0.640631
0.631535
0.622983
0.614946
0.607365
0.600325
0.593223
0.588741
0.574498
0.811277
1.44613
1.51874
1.38792
1.22323
1.07762
0.95922
0.864569
0.788642
0.727157
0.676842
0.635256
0.600578
0.571431
0.546762
0.525757
0.507775
0.492309
0.478952
0.467375
0.457307
0.448529
0.440855
0.434133
0.428235
0.423052
0.418493
0.414483
0.410955
0.407874
0.405144
0.402933
0.400681
0.368869
0.66416
0.797428
0.829397
0.816589
0.786285
0.750411
0.713991
0.679044
0.646311
0.616001
0.588103
0.562514
0.539088
0.517663
0.498077
0.480172
0.463799
0.44882
0.435106
0.422543
0.411025
0.400456
0.390751
0.381831
0.373626
0.366073
0.359115
0.352701
0.346787
0.341328
0.336302
0.331652
0.240027
0.336287
0.412169
0.460222
0.487105
0.500012
0.504036
0.502508
0.497533
0.490423
0.482012
0.472846
0.463295
0.45361
0.443967
0.434483
0.425241
0.416294
0.407675
0.399403
0.391488
0.383932
0.37673
0.369874
0.363355
0.35716
0.351277
0.345692
0.340392
0.335362
0.33059
0.326065
0.321765
0.214145
0.250649
0.284542
0.31208
0.332947
0.348027
0.358469
0.365345
0.369528
0.371681
0.372296
0.371744
0.370308
0.368202
0.365594
0.362616
0.359368
0.355933
0.352374
0.348741
0.345077
0.34141
0.337768
0.334169
0.330627
0.327156
0.323763
0.320454
0.317235
0.314107
0.311074
0.308137
0.305295
0.20564
0.221937
0.238617
0.25366
0.26644
0.276904
0.285272
0.29185
0.296934
0.300784
0.303613
0.305602
0.306896
0.307615
0.307861
0.307715
0.307246
0.306513
0.305563
0.304438
0.303171
0.301791
0.300323
0.298788
0.297202
0.295581
0.293937
0.29228
0.29062
0.288964
0.287318
0.285687
0.284078
0.202357
0.210378
0.219404
0.228106
0.235957
0.242783
0.248605
0.253514
0.257621
0.261026
0.263824
0.266096
0.267914
0.269339
0.270425
0.271218
0.271758
0.272079
0.272211
0.272182
0.272012
0.271723
0.271332
0.270854
0.270302
0.269688
0.269022
0.268313
0.267569
0.266797
0.266004
0.265195
0.264374
0.201008
0.2051
0.210232
0.215526
0.22054
0.225078
0.229098
0.232621
0.235689
0.238346
0.240635
0.242597
0.244268
0.245681
0.246865
0.247846
0.248647
0.249288
0.249788
0.250162
0.250425
0.250589
0.250667
0.250668
0.250601
0.250475
0.250297
0.250073
0.24981
0.249512
0.249186
0.248834
0.248462
0.200424
0.202508
0.205459
0.208754
0.21204
0.21513
0.217953
0.220495
0.222768
0.224789
0.226579
0.228159
0.229548
0.230765
0.231826
0.232746
0.23354
0.23422
0.234797
0.23528
0.235681
0.236005
0.236262
0.236458
0.236599
0.23669
0.236738
0.236746
0.236718
0.236659
0.236573
0.236462
0.23633
0.200163
0.201193
0.202864
0.204904
0.207067
0.20919
0.211193
0.213044
0.214736
0.216272
0.217659
0.218908
0.220028
0.221031
0.221926
0.222722
0.223428
0.224051
0.224599
0.225079
0.225496
0.225856
0.226164
0.226425
0.226643
0.226822
0.226965
0.227075
0.227157
0.227212
0.227244
0.227254
0.227246
0.200044
0.20052
0.201431
0.202661
0.20406
0.205505
0.206921
0.208268
0.209528
0.210694
0.211766
0.212747
0.213641
0.214454
0.215192
0.215858
0.21646
0.217002
0.217488
0.217924
0.218312
0.218657
0.218962
0.219231
0.219467
0.219671
0.219848
0.219999
0.220126
0.220231
0.220318
0.220386
0.220439
0.199989
0.200177
0.20064
0.201347
0.20222
0.203178
0.204159
0.205125
0.206054
0.206932
0.207754
0.208519
0.209226
0.209879
0.210478
0.211028
0.21153
0.211989
0.212406
0.212786
0.21313
0.213441
0.213722
0.213974
0.214201
0.214404
0.214584
0.214744
0.214885
0.215009
0.215117
0.21521
0.215291
0.199965
0.200004
0.200209
0.200585
0.201099
0.201706
0.202361
0.203034
0.203702
0.204351
0.204971
0.205558
0.206111
0.206627
0.207107
0.207553
0.207966
0.208347
0.208698
0.209021
0.209317
0.209589
0.209837
0.210063
0.21027
0.210457
0.210627
0.210781
0.21092
0.211046
0.211158
0.211259
0.21135
0.199954
0.199918
0.199979
0.20015
0.200426
0.200783
0.201198
0.201645
0.202107
0.20257
0.203025
0.203465
0.203886
0.204286
0.204664
0.205019
0.205352
0.205662
0.205951
0.20622
0.206469
0.2067
0.206913
0.20711
0.207291
0.207458
0.207612
0.207752
0.207881
0.208
0.208108
0.208207
0.208297
0.199949
0.199877
0.199858
0.199907
0.20003
0.200217
0.200456
0.200733
0.201034
0.201348
0.201667
0.201984
0.202294
0.202594
0.202882
0.203158
0.203419
0.203665
0.203898
0.204116
0.204321
0.204512
0.20469
0.204857
0.205011
0.205155
0.205289
0.205413
0.205528
0.205634
0.205733
0.205825
0.205909
0.199947
0.199857
0.199796
0.199776
0.199803
0.199877
0.199994
0.200145
0.200323
0.20052
0.200729
0.200944
0.20116
0.201375
0.201586
0.201791
0.201988
0.202178
0.202358
0.20253
0.202693
0.202846
0.202991
0.203128
0.203256
0.203376
0.203489
0.203594
0.203693
0.203786
0.203872
0.203953
0.204029
0.199947
0.199847
0.199764
0.199706
0.199676
0.199679
0.199713
0.199776
0.199863
0.19997
0.200092
0.200224
0.200363
0.200506
0.200651
0.200794
0.200936
0.201074
0.201208
0.201337
0.201461
0.201579
0.201693
0.2018
0.201902
0.201999
0.202091
0.202178
0.20226
0.202337
0.202411
0.20248
0.202545
0.199946
0.199843
0.199749
0.199669
0.199608
0.199567
0.199548
0.19955
0.199573
0.199614
0.199669
0.199737
0.199814
0.199897
0.199986
0.200078
0.20017
0.200264
0.200356
0.200447
0.200536
0.200622
0.200706
0.200786
0.200864
0.200938
0.201009
0.201078
0.201143
0.201205
0.201265
0.201321
0.201375
0.199946
0.199841
0.199742
0.199651
0.199571
0.199505
0.199453
0.199416
0.199396
0.199389
0.199396
0.199415
0.199443
0.19948
0.199523
0.199572
0.199624
0.199678
0.199735
0.199792
0.19985
0.199907
0.199964
0.20002
0.200074
0.200128
0.20018
0.20023
0.200279
0.200327
0.200373
0.200417
0.20046
0.199946
0.19984
0.199739
0.199642
0.199553
0.199471
0.1994
0.19934
0.19929
0.199252
0.199225
0.199209
0.199201
0.199202
0.199209
0.199223
0.199242
0.199265
0.199291
0.19932
0.199351
0.199383
0.199416
0.19945
0.199485
0.199519
0.199554
0.199588
0.199622
0.199656
0.199689
0.199722
0.199754
0.199946
0.19984
0.199737
0.199638
0.199543
0.199454
0.199372
0.199297
0.19923
0.199172
0.199122
0.199081
0.199048
0.199022
0.199003
0.198991
0.198984
0.198982
0.198984
0.198989
0.198998
0.19901
0.199023
0.199039
0.199056
0.199074
0.199094
0.199114
0.199135
0.199156
0.199178
0.1992
0.199222
0.199946
0.19984
0.199736
0.199635
0.199538
0.199445
0.199356
0.199273
0.199196
0.199125
0.199061
0.199004
0.198954
0.198911
0.198873
0.198842
0.198817
0.198796
0.19878
0.198768
0.19876
0.198755
0.198754
0.198754
0.198758
0.198763
0.19877
0.198779
0.198789
0.1988
0.198812
0.198825
0.198839
0.199946
0.19984
0.199736
0.199634
0.199536
0.19944
0.199349
0.199261
0.199178
0.1991
0.199028
0.198962
0.198901
0.198846
0.198798
0.198754
0.198716
0.198683
0.198655
0.198631
0.198612
0.198596
0.198583
0.198574
0.198567
0.198563
0.198561
0.198561
0.198563
0.198567
0.198572
0.198579
0.198587
0.199946
0.19984
0.199735
0.199634
0.199534
0.199438
0.199345
0.199255
0.19917
0.199089
0.199013
0.198942
0.198876
0.198816
0.198761
0.198711
0.198667
0.198628
0.198593
0.198563
0.198537
0.198515
0.198496
0.198481
0.198469
0.198459
0.198452
0.198448
0.198446
0.198445
0.198446
0.198449
0.198453
0.199946
0.19984
0.199735
0.199633
0.199534
0.199437
0.199344
0.199254
0.199168
0.199087
0.19901
0.198939
0.198873
0.198812
0.198756
0.198706
0.198661
0.198621
0.198586
0.198555
0.198528
0.198505
0.198485
0.198469
0.198456
0.198446
0.198439
0.198433
0.19843
0.198429
0.198429
0.198431
0.198434
0.199946
0.19984
0.199735
0.199634
0.199534
0.199438
0.199346
0.199257
0.199174
0.199095
0.199022
0.198954
0.198892
0.198836
0.198785
0.19874
0.1987
0.198665
0.198635
0.198609
0.198587
0.198569
0.198554
0.198543
0.198534
0.198527
0.198523
0.198521
0.198521
0.198522
0.198525
0.198529
0.198535
0.199946
0.19984
0.199736
0.199635
0.199537
0.199442
0.199353
0.199269
0.19919
0.199118
0.199053
0.198995
0.198943
0.198898
0.198858
0.198825
0.198797
0.198774
0.198756
0.198741
0.198731
0.198723
0.198719
0.198716
0.198717
0.198719
0.198723
0.198728
0.198735
0.198742
0.198751
0.198761
0.198771
0.199946
0.19984
0.199737
0.199637
0.199542
0.199453
0.19937
0.199295
0.199228
0.19917
0.199121
0.199079
0.199046
0.19902
0.199001
0.198988
0.19898
0.198977
0.198978
0.198982
0.198989
0.198999
0.19901
0.199023
0.199037
0.199053
0.199069
0.199085
0.199102
0.199119
0.199137
0.199154
0.199172
0.199946
0.199841
0.19974
0.199645
0.199557
0.199478
0.19941
0.199354
0.199309
0.199277
0.199255
0.199244
0.199241
0.199247
0.199259
0.199277
0.199299
0.199325
0.199354
0.199384
0.199416
0.199448
0.199481
0.199514
0.199547
0.19958
0.199611
0.199642
0.199672
0.199702
0.19973
0.199757
0.199783
0.199947
0.199844
0.199749
0.199664
0.199592
0.199537
0.199499
0.19948
0.199477
0.19949
0.199516
0.199553
0.199599
0.199652
0.199711
0.199772
0.199836
0.199901
0.199966
0.20003
0.200093
0.200154
0.200213
0.20027
0.200325
0.200377
0.200426
0.200474
0.200518
0.20056
0.2006
0.200638
0.200673
0.199948
0.199852
0.19977
0.199711
0.199677
0.199673
0.199697
0.199746
0.199818
0.199907
0.20001
0.200122
0.200239
0.20036
0.200481
0.2006
0.200717
0.20083
0.200939
0.201043
0.201141
0.201235
0.201323
0.201405
0.201483
0.201555
0.201622
0.201685
0.201744
0.201798
0.201848
0.201895
0.201937
0.199951
0.199872
0.199828
0.199831
0.199884
0.199985
0.200128
0.200302
0.2005
0.200711
0.200928
0.201146
0.201361
0.201569
0.201769
0.201958
0.202136
0.202304
0.20246
0.202606
0.202741
0.202866
0.202981
0.203087
0.203185
0.203274
0.203357
0.203432
0.2035
0.203563
0.20362
0.203672
0.203718
0.19996
0.199932
0.199988
0.200141
0.200383
0.200695
0.201055
0.20144
0.201833
0.202222
0.202597
0.202954
0.203288
0.203599
0.203886
0.204149
0.204391
0.204611
0.204812
0.204994
0.205159
0.205309
0.205445
0.205567
0.205678
0.205777
0.205866
0.205946
0.206017
0.206081
0.206137
0.206187
0.20623
0.19999
0.200113
0.200438
0.200945
0.201582
0.202288
0.203012
0.20372
0.20439
0.205011
0.205578
0.206091
0.206552
0.206965
0.207333
0.207662
0.207953
0.208213
0.208443
0.208646
0.208826
0.208986
0.209126
0.209249
0.209357
0.209452
0.209533
0.209604
0.209664
0.209715
0.209758
0.209793
0.209821
0.200097
0.200698
0.201729
0.20303
0.20443
0.205804
0.207078
0.208222
0.20923
0.210107
0.210866
0.211521
0.212084
0.212568
0.212984
0.213341
0.213648
0.213911
0.214136
0.214328
0.21449
0.214628
0.214743
0.214839
0.214917
0.21498
0.215028
0.215064
0.21509
0.215105
0.215111
0.215109
0.2151
0.200521
0.202675
0.205525
0.20847
0.211189
0.21355
0.215527
0.217152
0.218476
0.219552
0.220424
0.221131
0.221704
0.222168
0.222544
0.222845
0.223087
0.223277
0.223425
0.223537
0.223618
0.223672
0.223703
0.223714
0.223707
0.223685
0.223649
0.223601
0.223543
0.223475
0.223399
0.223315
0.223225
0.202177
0.209423
0.217079
0.223316
0.228003
0.231437
0.233925
0.235719
0.237011
0.237936
0.238593
0.239054
0.239367
0.23957
0.239685
0.239734
0.239727
0.239676
0.239588
0.23947
0.239325
0.239157
0.238971
0.238768
0.23855
0.238321
0.23808
0.237831
0.237573
0.237309
0.237039
0.236765
0.236486
0.208503
0.227596
0.245316
0.25869
0.267554
0.272837
0.275658
0.27695
0.277338
0.277195
0.276744
0.276116
0.275385
0.274596
0.273774
0.272932
0.27208
0.271221
0.270359
0.269495
0.268631
0.267769
0.266908
0.266051
0.265199
0.264352
0.263511
0.262678
0.261854
0.261038
0.260232
0.259437
0.258654
0.248308
0.315061
0.348161
0.362157
0.367118
0.367958
0.366701
0.364185
0.360865
0.357053
0.352965
0.348753
0.344525
0.340356
0.336297
0.332382
0.328633
0.32506
0.321669
0.31846
0.315431
0.312577
0.30989
0.307365
0.304994
0.302768
0.30068
0.298722
0.296887
0.295167
0.293556
0.292047
0.290633
0.205354
0.221127
0.238043
0.254121
0.268995
0.282971
0.296258
0.308938
0.321054
0.332632
0.343696
0.354264
0.36435
0.37397
0.38314
0.391874
0.400187
0.408094
0.415611
0.422752
0.429534
0.435971
0.442077
0.447868
0.453357
0.458559
0.463487
0.468154
0.472573
0.476755
0.480714
0.484459
0.488006
0.618514
0.693971
0.815422
0.964685
1.12946
1.29763
1.46045
1.61083
1.74301
1.853
1.93927
2.00285
2.04672
2.07483
2.09126
2.09952
2.10229
2.10138
2.09791
2.0925
2.08553
2.07723
2.06782
2.05749
2.04639
2.03463
2.02226
2.00929
1.99566
1.98125
1.96595
1.9496
1.93204
1.91311
1.89264
1.87048
1.84651
1.8206
1.79267
1.76266
1.73055
1.69634
1.66007
1.62183
1.58176
1.54
1.49678
1.45233
1.40693
1.36088
1.31453
1.26823
1.22232
1.17717
1.13314
1.09056
1.04974
1.01095
0.974434
0.940388
0.908959
0.880249
0.854314
0.831168
0.810784
0.7931
0.778026
0.765444
0.755215
0.747186
0.74119
0.73705
0.734581
0.733593
0.733891
0.735274
0.73754
0.740483
0.743895
0.747567
0.751294
0.754868
0.75809
0.760763
0.762702
0.763731
0.763688
0.762427
0.759816
0.755739
0.750104
0.742861
0.73405
0.723837
0.712628
0.701041
0.6902
0.681711
0.677089
0.689969
0.399157
0.404122
0.41738
0.441356
0.476774
0.524082
0.5832
0.653415
0.733423
0.821382
0.914944
1.01132
1.10746
1.20026
1.28691
1.36512
1.43341
1.49108
1.53826
1.57564
1.6043
1.62547
1.64034
1.64994
1.65515
1.65666
1.65499
1.65055
1.64365
1.63452
1.62331
1.61014
1.59507
1.57816
1.55942
1.53885
1.51646
1.49227
1.46628
1.43852
1.40906
1.37796
1.34533
1.31129
1.276
1.23964
1.20243
1.16459
1.1264
1.08811
1.05001
1.01239
0.975546
0.939745
0.905253
0.872312
0.841137
0.811911
0.784783
0.759866
0.737234
0.716929
0.698959
0.6833
0.669902
0.658694
0.649584
0.642466
0.637222
0.633725
0.631838
0.631422
0.632333
0.634419
0.637528
0.641501
0.646176
0.651386
0.65696
0.662723
0.668501
0.674114
0.679385
0.684142
0.688215
0.691443
0.693677
0.69478
0.694626
0.693104
0.690126
0.685641
0.679691
0.672444
0.664307
0.655909
0.648392
0.64345
0.642516
0.661555
0.326704
0.321606
0.317078
0.313599
0.311885
0.312696
0.316536
0.324067
0.336155
0.353671
0.377432
0.408118
0.446137
0.491498
0.543693
0.601652
0.663777
0.728075
0.792376
0.854576
0.912861
0.965859
1.01271
1.05302
1.08681
1.11437
1.13616
1.1527
1.16452
1.17209
1.17586
1.17619
1.17339
1.16773
1.15943
1.14868
1.13566
1.12051
1.1034
1.08445
1.06382
1.04166
1.01812
0.993387
0.96764
0.941078
0.913913
0.886365
0.858664
0.831041
0.80373
0.77696
0.75095
0.725908
0.70202
0.679457
0.65836
0.638847
0.621008
0.604906
0.590579
0.578037
0.567272
0.558255
0.550938
0.545263
0.541158
0.538545
0.537336
0.53744
0.538761
0.541199
0.54465
0.549007
0.554158
0.559985
0.566365
0.57317
0.580264
0.587508
0.594756
0.601859
0.608664
0.615019
0.620775
0.625787
0.629917
0.633039
0.635034
0.635797
0.63524
0.633315
0.630055
0.625624
0.620413
0.615034
0.610611
0.608859
0.611112
0.635009
0.317033
0.311837
0.306763
0.301844
0.297176
0.292879
0.2891
0.285967
0.283626
0.282316
0.28234
0.284062
0.287904
0.294324
0.303793
0.316743
0.333511
0.354273
0.378986
0.407347
0.438787
0.472503
0.507524
0.542807
0.577332
0.61019
0.640641
0.668142
0.692348
0.713086
0.730319
0.744115
0.754605
0.761963
0.766381
0.768059
0.767197
0.763992
0.758636
0.751321
0.742232
0.731557
0.719484
0.706203
0.691907
0.676791
0.661052
0.644888
0.628495
0.612067
0.59579
0.579844
0.564395
0.549596
0.535586
0.522483
0.510389
0.499383
0.489529
0.480869
0.473428
0.467215
0.462227
0.458446
0.455845
0.454388
0.454032
0.45473
0.45643
0.459074
0.462605
0.466958
0.472069
0.477866
0.484274
0.491212
0.498592
0.50632
0.514295
0.522407
0.530539
0.538571
0.546375
0.55382
0.560777
0.567117
0.572716
0.577459
0.581236
0.583947
0.585506
0.585865
0.585051
0.583212
0.580711
0.578126
0.576525
0.577591
0.582538
0.61007
0.302097
0.298517
0.294962
0.291422
0.287899
0.284411
0.280988
0.277672
0.274498
0.271513
0.26878
0.266374
0.264393
0.262956
0.262208
0.262315
0.263468
0.265866
0.269707
0.275172
0.282395
0.291447
0.302315
0.314889
0.328957
0.34422
0.360305
0.376798
0.393268
0.409305
0.424534
0.438641
0.451378
0.462564
0.472083
0.479875
0.485932
0.490281
0.492983
0.494122
0.493801
0.492137
0.489259
0.485303
0.480412
0.474733
0.468416
0.46161
0.454462
0.447119
0.439718
0.432392
0.425264
0.418447
0.412043
0.406139
0.400813
0.396127
0.392131
0.388863
0.38635
0.384609
0.383646
0.383462
0.384048
0.385392
0.387476
0.390279
0.393775
0.397938
0.402735
0.408133
0.414095
0.420579
0.427539
0.434923
0.442673
0.450723
0.459
0.467423
0.475902
0.484341
0.492637
0.500682
0.508365
0.515576
0.522205
0.528149
0.533307
0.537588
0.54091
0.543225
0.544552
0.54502
0.544959
0.544893
0.545815
0.549322
0.556486
0.586532
0.282228
0.280111
0.277968
0.27579
0.273568
0.271305
0.269011
0.266699
0.264385
0.262086
0.25982
0.257608
0.255474
0.253447
0.251563
0.249866
0.248406
0.247247
0.246456
0.246113
0.246298
0.247091
0.248566
0.250782
0.253779
0.257567
0.262124
0.267393
0.273283
0.279673
0.286416
0.293353
0.300314
0.307137
0.313668
0.319772
0.325336
0.330273
0.33452
0.338041
0.340822
0.34287
0.344214
0.344894
0.344968
0.344501
0.34357
0.342254
0.340638
0.338808
0.336849
0.334845
0.332877
0.331019
0.329341
0.327906
0.326769
0.325979
0.325576
0.325594
0.32606
0.326994
0.32841
0.330318
0.332722
0.335624
0.339021
0.342908
0.347277
0.352118
0.357418
0.363163
0.369335
0.375912
0.382869
0.390177
0.397799
0.405692
0.413807
0.422087
0.430466
0.438871
0.447222
0.455432
0.463411
0.471067
0.478306
0.485039
0.491177
0.496636
0.501344
0.505253
0.508377
0.510827
0.51289
0.515035
0.518158
0.523733
0.532667
0.564232
0.263405
0.262268
0.261087
0.259858
0.258575
0.257234
0.25584
0.254398
0.252917
0.251405
0.24987
0.248321
0.246768
0.24522
0.243687
0.242183
0.240722
0.239321
0.238003
0.236793
0.235721
0.234817
0.234118
0.23366
0.233476
0.233598
0.234051
0.234851
0.236005
0.237507
0.239337
0.241464
0.243846
0.24643
0.249156
0.251962
0.254785
0.257563
0.26024
0.26277
0.265112
0.267238
0.26913
0.270781
0.272193
0.273379
0.274358
0.275159
0.275815
0.276363
0.276843
0.2773
0.277774
0.278309
0.278945
0.279721
0.280674
0.281834
0.283231
0.28489
0.286832
0.289075
0.291633
0.294516
0.297733
0.301291
0.305191
0.309438
0.314029
0.318966
0.324244
0.329859
0.335806
0.342076
0.348657
0.355535
0.362689
0.370096
0.377724
0.385535
0.393485
0.401521
0.409586
0.417612
0.425529
0.433265
0.440743
0.447888
0.454627
0.460887
0.466604
0.471738
0.476297
0.480376
0.484224
0.488247
0.493236
0.500516
0.510814
0.543036
0.248004
0.247446
0.246845
0.246199
0.245504
0.244756
0.243955
0.243105
0.242209
0.241273
0.2403
0.239298
0.238269
0.237219
0.236153
0.235074
0.233989
0.232903
0.231823
0.230758
0.229718
0.228716
0.227765
0.226882
0.226084
0.225389
0.224814
0.224377
0.224092
0.223972
0.224025
0.224253
0.224657
0.225229
0.225959
0.226831
0.227826
0.228923
0.230099
0.231331
0.2326
0.233884
0.235169
0.236441
0.237694
0.238924
0.240131
0.241322
0.242506
0.243696
0.244907
0.246159
0.247469
0.248861
0.250353
0.251967
0.253723
0.25564
0.257734
0.260022
0.262516
0.265228
0.268169
0.271345
0.274765
0.278433
0.282353
0.286528
0.290962
0.295656
0.300612
0.305831
0.311312
0.317055
0.323056
0.329311
0.335811
0.342545
0.349495
0.356641
0.363955
0.371403
0.378945
0.386534
0.394121
0.401649
0.409062
0.416301
0.423308
0.430024
0.436399
0.442398
0.448034
0.453385
0.458667
0.464225
0.470741
0.479379
0.490674
0.522837
0.236151
0.235914
0.235643
0.235335
0.234986
0.234593
0.234157
0.233677
0.233156
0.232597
0.232003
0.231377
0.230722
0.230041
0.229337
0.228612
0.227869
0.227109
0.226337
0.225555
0.224767
0.223978
0.223194
0.222422
0.22167
0.220947
0.220262
0.219626
0.21905
0.218545
0.218119
0.217781
0.21754
0.2174
0.217364
0.217434
0.21761
0.217888
0.218266
0.218737
0.219296
0.219936
0.220653
0.22144
0.222295
0.223215
0.224199
0.225248
0.226366
0.227558
0.22883
0.23019
0.231647
0.23321
0.234891
0.236698
0.238643
0.240735
0.242982
0.245393
0.247975
0.250734
0.253674
0.256801
0.260117
0.263625
0.267327
0.271227
0.275326
0.279626
0.28413
0.288842
0.293763
0.298896
0.304244
0.309808
0.315586
0.321577
0.327774
0.334168
0.340746
0.347488
0.354371
0.361367
0.368442
0.375559
0.38268
0.389761
0.396763
0.403641
0.410361
0.4169
0.423272
0.42955
0.435919
0.44267
0.450381
0.460049
0.472017
0.50354
0.227214
0.227151
0.227061
0.226942
0.226791
0.226606
0.226386
0.226131
0.225842
0.22552
0.225168
0.224788
0.224382
0.223952
0.2235
0.223027
0.222537
0.222028
0.221504
0.220966
0.220416
0.219855
0.219286
0.218713
0.21814
0.21757
0.217009
0.216464
0.21594
0.215444
0.214985
0.214568
0.214201
0.213892
0.213646
0.213469
0.213366
0.21334
0.213397
0.213536
0.213762
0.214074
0.214474
0.214964
0.215543
0.216213
0.216977
0.217836
0.218793
0.219852
0.221016
0.222291
0.223681
0.225191
0.226827
0.228594
0.230497
0.232539
0.234725
0.237058
0.23954
0.242174
0.244961
0.2479
0.250994
0.254242
0.257644
0.261201
0.264914
0.268784
0.272814
0.277007
0.281366
0.285896
0.290601
0.295487
0.300557
0.305815
0.311262
0.316898
0.32272
0.328721
0.334891
0.341216
0.347679
0.354258
0.360932
0.367675
0.374462
0.381268
0.388072
0.394865
0.401669
0.408554
0.415682
0.423296
0.431881
0.442274
0.454629
0.485064
0.220482
0.22051
0.220517
0.220502
0.220462
0.220397
0.220303
0.220183
0.220035
0.219861
0.219662
0.219439
0.219195
0.218931
0.218649
0.218349
0.218034
0.217704
0.217361
0.217005
0.216638
0.21626
0.215874
0.21548
0.215081
0.214679
0.214278
0.21388
0.213489
0.213111
0.21275
0.212411
0.2121
0.211823
0.211585
0.211392
0.211251
0.211167
0.211145
0.21119
0.211308
0.211502
0.211778
0.212138
0.212587
0.213129
0.213768
0.214507
0.21535
0.216301
0.217364
0.218542
0.219839
0.221259
0.222803
0.224476
0.226279
0.228214
0.230281
0.232481
0.234814
0.237278
0.239873
0.242596
0.245446
0.248421
0.251519
0.254739
0.258081
0.261545
0.265133
0.268846
0.27269
0.276669
0.280788
0.285054
0.289474
0.294055
0.298803
0.303726
0.308825
0.314105
0.319565
0.325204
0.331016
0.336995
0.343132
0.349419
0.355845
0.3624
0.369081
0.375893
0.382867
0.390075
0.39766
0.405831
0.414989
0.425824
0.438319
0.467332
0.215369
0.215443
0.2155
0.21554
0.215562
0.215564
0.215544
0.215503
0.215441
0.215358
0.215255
0.215134
0.214995
0.21484
0.214671
0.214488
0.214293
0.214087
0.213871
0.213646
0.213412
0.213171
0.212923
0.21267
0.212412
0.212152
0.211891
0.211632
0.211377
0.211128
0.21089
0.210667
0.210461
0.210279
0.210124
0.210003
0.209919
0.209879
0.209889
0.209953
0.210078
0.210268
0.210529
0.210867
0.211286
0.211792
0.212388
0.213081
0.213875
0.214772
0.215778
0.216896
0.218129
0.219479
0.220949
0.222539
0.224251
0.226084
0.228037
0.23011
0.2323
0.234604
0.237019
0.239541
0.242168
0.244895
0.24772
0.25064
0.253654
0.25676
0.259959
0.263254
0.266647
0.270144
0.273749
0.277472
0.281319
0.2853
0.289424
0.293702
0.298142
0.302754
0.307545
0.312521
0.317688
0.323051
0.328613
0.334378
0.340349
0.346531
0.352934
0.35958
0.366508
0.373795
0.381573
0.390024
0.399477
0.410497
0.422915
0.450275
0.211442
0.211536
0.211617
0.211685
0.211738
0.211777
0.2118
0.211806
0.211795
0.211768
0.211726
0.211669
0.211598
0.211515
0.211422
0.211318
0.211205
0.211085
0.210958
0.210824
0.210686
0.210544
0.210398
0.21025
0.210101
0.209951
0.209803
0.209657
0.209517
0.209383
0.209258
0.209146
0.20905
0.208972
0.208918
0.208891
0.208896
0.208938
0.209021
0.209151
0.209334
0.209574
0.209877
0.210249
0.210695
0.21122
0.211829
0.212527
0.213319
0.214209
0.2152
0.216296
0.2175
0.218813
0.220237
0.221772
0.223418
0.225174
0.227038
0.229008
0.23108
0.23325
0.235513
0.237866
0.240303
0.24282
0.245413
0.248078
0.250812
0.253614
0.256484
0.259422
0.262432
0.265518
0.268685
0.271941
0.275295
0.278757
0.282338
0.286049
0.289904
0.293915
0.298096
0.302458
0.307014
0.311777
0.316761
0.321977
0.327442
0.333173
0.339192
0.345531
0.352245
0.359411
0.367156
0.375643
0.385144
0.396117
0.408269
0.433827
0.208392
0.20849
0.20858
0.20866
0.208729
0.208786
0.208832
0.208864
0.208884
0.208891
0.208887
0.208871
0.208845
0.208809
0.208766
0.208716
0.208659
0.208598
0.208533
0.208465
0.208395
0.208324
0.208253
0.208182
0.208114
0.208048
0.207986
0.20793
0.207881
0.20784
0.207811
0.207794
0.207794
0.207812
0.207853
0.207919
0.208015
0.208145
0.208313
0.208524
0.208783
0.209094
0.209463
0.209895
0.210395
0.210968
0.211619
0.212353
0.213174
0.214085
0.21509
0.216193
0.217395
0.218698
0.220102
0.221607
0.223213
0.224918
0.226718
0.22861
0.230591
0.232655
0.234797
0.237012
0.239293
0.241637
0.244037
0.246489
0.24899
0.251538
0.254132
0.256772
0.25946
0.262199
0.264996
0.267858
0.270792
0.27381
0.276924
0.280146
0.28349
0.286972
0.290607
0.294413
0.298406
0.302606
0.30703
0.311701
0.316641
0.321878
0.327443
0.33338
0.33975
0.346637
0.354164
0.36248
0.371813
0.382536
0.394258
0.41793
0.206
0.206096
0.206185
0.206267
0.20634
0.206406
0.206462
0.206509
0.206546
0.206573
0.206592
0.206602
0.206604
0.2066
0.20659
0.206576
0.206558
0.206538
0.206516
0.206494
0.206473
0.206453
0.206436
0.206423
0.206414
0.206411
0.206415
0.206427
0.206449
0.206482
0.206529
0.206591
0.206671
0.20677
0.206893
0.207043
0.207221
0.207433
0.207682
0.207973
0.208309
0.208695
0.209136
0.209636
0.210201
0.210834
0.21154
0.212323
0.213187
0.214136
0.215172
0.216298
0.217516
0.218826
0.220229
0.221723
0.223308
0.22498
0.226737
0.228574
0.230486
0.232468
0.234513
0.236617
0.238772
0.240973
0.243214
0.245491
0.247798
0.250134
0.252497
0.254887
0.257305
0.259754
0.262239
0.264768
0.267347
0.269989
0.272703
0.275504
0.278407
0.281428
0.284583
0.287893
0.291376
0.295056
0.298955
0.3031
0.307518
0.312245
0.317318
0.322789
0.328726
0.335215
0.342377
0.350352
0.359334
0.36963
0.380782
0.402532
0.204111
0.2042
0.204283
0.204362
0.204434
0.2045
0.20456
0.204613
0.204658
0.204697
0.204729
0.204755
0.204776
0.204792
0.204804
0.204814
0.204822
0.20483
0.204839
0.204849
0.204863
0.20488
0.204902
0.20493
0.204965
0.205009
0.205062
0.205127
0.205203
0.205294
0.205401
0.205525
0.205669
0.205835
0.206026
0.206245
0.206494
0.206778
0.207099
0.207461
0.207868
0.208324
0.208834
0.209401
0.210029
0.210723
0.211487
0.212323
0.213236
0.214229
0.215303
0.21646
0.217702
0.219029
0.220441
0.221935
0.223511
0.225164
0.226891
0.228687
0.230546
0.232464
0.234432
0.236446
0.238497
0.24058
0.242689
0.244819
0.246964
0.249123
0.251292
0.253471
0.255661
0.257865
0.260088
0.262334
0.264613
0.266934
0.269308
0.271749
0.27427
0.27689
0.279625
0.282495
0.285522
0.28873
0.292144
0.295792
0.299707
0.303925
0.308492
0.313462
0.318905
0.324911
0.331599
0.339098
0.34758
0.357302
0.367765
0.387591
0.202617
0.202695
0.202769
0.202841
0.202908
0.202971
0.203029
0.203083
0.203131
0.203175
0.203214
0.203249
0.203281
0.20331
0.203337
0.203363
0.203389
0.203416
0.203446
0.203479
0.203517
0.20356
0.20361
0.203668
0.203736
0.203814
0.203904
0.204007
0.204126
0.20426
0.204413
0.204585
0.20478
0.204999
0.205245
0.20552
0.205828
0.206171
0.206552
0.206975
0.207444
0.207962
0.208532
0.209159
0.209845
0.210595
0.211413
0.2123
0.21326
0.214295
0.215407
0.216597
0.217866
0.219212
0.220637
0.222136
0.223708
0.225349
0.227054
0.228818
0.230636
0.2325
0.234404
0.236342
0.238306
0.240289
0.242286
0.244291
0.246298
0.248305
0.250309
0.252309
0.254306
0.256301
0.2583
0.260306
0.262328
0.264375
0.266457
0.268587
0.27078
0.273051
0.275418
0.277901
0.280522
0.283303
0.286273
0.289459
0.292896
0.296623
0.300684
0.305137
0.310053
0.315522
0.321656
0.328581
0.336447
0.345476
0.355153
0.373077
0.201435
0.201501
0.201566
0.201628
0.201688
0.201745
0.201799
0.20185
0.201898
0.201943
0.201985
0.202024
0.202062
0.202098
0.202134
0.20217
0.202208
0.202248
0.202292
0.202341
0.202396
0.202457
0.202528
0.202607
0.202698
0.202801
0.202918
0.20305
0.203199
0.203366
0.203553
0.203763
0.203997
0.204257
0.204545
0.204865
0.205219
0.205609
0.20604
0.206513
0.207032
0.2076
0.208221
0.208898
0.209635
0.210433
0.211296
0.212228
0.213229
0.214301
0.215447
0.216666
0.217958
0.219323
0.220759
0.222263
0.223832
0.225462
0.227148
0.228884
0.230665
0.232483
0.234331
0.236202
0.238089
0.239985
0.241883
0.243779
0.245666
0.247541
0.249402
0.251247
0.253076
0.254891
0.256696
0.258495
0.260296
0.262106
0.263936
0.265798
0.267704
0.269671
0.271716
0.273857
0.276115
0.278514
0.281079
0.28384
0.28683
0.290087
0.293656
0.297594
0.30197
0.30687
0.312401
0.318683
0.325849
0.334097
0.342912
0.35897
0.200508
0.200562
0.200615
0.200667
0.200718
0.200768
0.200816
0.200863
0.200907
0.200951
0.200993
0.201033
0.201074
0.201114
0.201155
0.201197
0.201242
0.201291
0.201344
0.201403
0.201469
0.201544
0.201627
0.201722
0.201829
0.20195
0.202085
0.202238
0.202409
0.2026
0.202812
0.203049
0.203311
0.203602
0.203923
0.204276
0.204665
0.205092
0.20556
0.206072
0.206631
0.207239
0.2079
0.208617
0.209393
0.210229
0.21113
0.212096
0.213129
0.214231
0.215403
0.216644
0.217954
0.219331
0.220774
0.222279
0.223842
0.225459
0.227125
0.228833
0.230577
0.23235
0.234145
0.235954
0.23777
0.239586
0.241395
0.243192
0.244971
0.246729
0.248462
0.250169
0.25185
0.253507
0.255142
0.25676
0.258367
0.259971
0.26158
0.263207
0.264863
0.266563
0.268323
0.270161
0.272096
0.274151
0.27635
0.278721
0.281295
0.28411
0.287208
0.290643
0.294481
0.298802
0.303706
0.309304
0.315716
0.323122
0.331023
0.345264
0.19979
0.199832
0.199874
0.199916
0.199958
0.2
0.200041
0.200082
0.200123
0.200163
0.200203
0.200243
0.200283
0.200325
0.200368
0.200414
0.200463
0.200517
0.200576
0.200641
0.200714
0.200797
0.200889
0.200994
0.201111
0.201243
0.201392
0.201558
0.201743
0.20195
0.20218
0.202436
0.202718
0.20303
0.203373
0.203751
0.204165
0.204618
0.205113
0.205653
0.206241
0.206878
0.207568
0.208314
0.209118
0.209983
0.210909
0.2119
0.212956
0.214078
0.215266
0.216521
0.21784
0.219221
0.220663
0.222162
0.223713
0.225312
0.226953
0.228629
0.230334
0.232061
0.233802
0.23555
0.237297
0.239036
0.240761
0.242465
0.244144
0.245793
0.24741
0.248992
0.25054
0.252054
0.253537
0.254994
0.256428