/*--------------------------------*- C++ -*----------------------------------*\
| =========                 |                                                 |
| \\      /  F ield         | OpenFOAM: The Open Source CFD Toolbox           |
|  \\    /   O peration     | Version:  4.1                                   |
|   \\  /    A nd           | Web:      www.OpenFOAM.org                      |
|    \\/     M anipulation  |                                                 |
\*---------------------------------------------------------------------------*/
FoamFile
{
    version     2.0;
    format      ascii;
    class       volScalarField;
    location    "600";
    object      nut;
}
// * * * * * * * * * * * * * * * * * * * * * * * * * * * * * * * * * * * * * //

dimensions      [0 2 -1 0 0 0 0];

internalField   nonuniform List<scalar> 
6820
(
3.5437e-05
5.0672e-05
6.21565e-05
6.89859e-05
7.29393e-05
7.51484e-05
7.62608e-05
7.66561e-05
7.65742e-05
7.61754e-05
7.5569e-05
7.48309e-05
7.40142e-05
7.31562e-05
7.22833e-05
7.14135e-05
7.05591e-05
6.97285e-05
6.8927e-05
6.81578e-05
6.74225e-05
6.67218e-05
6.60556e-05
6.54233e-05
6.48236e-05
6.42555e-05
6.37175e-05
6.32082e-05
6.27246e-05
6.22727e-05
6.18141e-05
6.15256e-05
6.0621e-05
0.00135033
0.000930454
0.000725657
0.000569941
0.000453328
0.000372218
0.000316223
0.000276488
0.000247303
0.000225195
0.000208006
0.000194348
0.000183294
0.000174213
0.000166658
0.000160305
0.000154916
0.000150309
0.000146344
0.000142914
0.00013993
0.000137324
0.000135039
0.000133029
0.000131255
0.000129685
0.000128292
0.000127051
0.000125942
0.000124951
0.000124043
0.000123272
0.000122386
0.0034439
0.00180034
0.00133708
0.00108081
0.000912409
0.000791563
0.000700948
0.00063099
0.000575611
0.000530789
0.000493806
0.000462783
0.000436392
0.00041367
0.000393906
0.000376563
0.000361229
0.000347583
0.000335369
0.000324382
0.000314455
0.000305451
0.000297256
0.000289773
0.000282921
0.00027663
0.000270841
0.000265501
0.000260564
0.000255991
0.000251739
0.000247791
0.000244064
0.00637392
0.00310291
0.00217847
0.00173334
0.00146616
0.00128428
0.00115082
0.00104807
0.000966257
0.000899457
0.000843822
0.00079673
0.000756324
0.000721255
0.000690514
0.000663334
0.00063912
0.000617405
0.000597816
0.000580051
0.000563864
0.000549052
0.000535447
0.000522906
0.000511309
0.000500555
0.000490553
0.000481229
0.000472516
0.000464353
0.000456688
0.000449476
0.000442653
0.00899737
0.00527271
0.00366202
0.00284163
0.00235737
0.00203856
0.00181195
0.00164188
0.00150906
0.00140219
0.00131419
0.00124038
0.00117752
0.00112331
0.00107604
0.00103445
0.000997551
0.000964586
0.000934947
0.000908148
0.000883793
0.00086156
0.000841178
0.000822422
0.000805103
0.00078906
0.000774153
0.000760264
0.000747289
0.000735135
0.000723721
0.000712977
0.00070282
0.0103765
0.00752965
0.00561349
0.00443387
0.0036773
0.00316202
0.00279169
0.00251363
0.0022974
0.00212446
0.001983
0.00186512
0.00176536
0.00167982
0.00160568
0.00154077
0.00148348
0.00143254
0.00138695
0.0013459
0.00130874
0.00127496
0.0012441
0.00121581
0.00118978
0.00116574
0.00114347
0.00112279
0.00110352
0.00108552
0.00106867
0.00105285
0.00103796
0.0109773
0.00922098
0.00752197
0.0062241
0.00528073
0.00458893
0.00406896
0.0036676
0.00335004
0.00309329
0.00288184
0.00270491
0.00255483
0.00242601
0.00231431
0.00221656
0.00213035
0.00205378
0.00198534
0.00192381
0.00186821
0.00181775
0.00177174
0.00172964
0.00169097
0.00165533
0.00162239
0.00159185
0.00156347
0.00153701
0.0015123
0.00148916
0.00146743
0.0112223
0.01026
0.00902119
0.00786209
0.00689742
0.00612296
0.00550365
0.00500431
0.00459663
0.00425932
0.00397663
0.00373691
0.00353147
0.0033537
0.00319856
0.00306211
0.00294128
0.00283361
0.00273712
0.0026502
0.00257154
0.00250005
0.00243481
0.00237508
0.00232019
0.0022696
0.00222283
0.00217948
0.00213921
0.00210169
0.00206666
0.0020339
0.00200319
0.0113196
0.0108286
0.0100355
0.0091472
0.00830321
0.00755759
0.00691829
0.00637539
0.00591434
0.00552103
0.00518335
0.0048914
0.0046372
0.00441435
0.00421773
0.00404322
0.00388747
0.00374775
0.00362182
0.00350783
0.00340422
0.00330971
0.00322319
0.00314373
0.00307054
0.00300294
0.00294034
0.00288222
0.00282815
0.00277772
0.00273061
0.00268652
0.00264517
0.0113579
0.0111187
0.0106546
0.0100468
0.00939296
0.00875749
0.00817148
0.00764509
0.00717794
0.0067652
0.00640063
0.00607796
0.00579148
0.00553618
0.00530776
0.00510256
0.0049175
0.00474998
0.00459778
0.00445903
0.00433213
0.00421572
0.00410862
0.00400983
0.00391847
0.00383377
0.00375508
0.00368182
0.00361347
0.00354959
0.00348979
0.00343371
0.00338104
0.0113728
0.01126
0.0110057
0.0106242
0.0101642
0.00967403
0.00918759
0.0087244
0.00829365
0.0078983
0.00753798
0.00721063
0.0069135
0.00664367
0.00639829
0.00617473
0.00597061
0.0057838
0.00561243
0.00545485
0.00530962
0.00517546
0.00505126
0.00493603
0.00482892
0.00472915
0.00463606
0.00454905
0.00446759
0.0043912
0.00431947
0.00425203
0.00418853
0.0113787
0.0113266
0.011194
0.0109703
0.0106711
0.0103231
0.00995189
0.00957698
0.00921101
0.0088614
0.00853192
0.00822401
0.00793772
0.00767229
0.00742653
0.00719907
0.00698848
0.00679337
0.00661241
0.00644437
0.0062881
0.00614259
0.00600689
0.00588016
0.00576163
0.00565062
0.00554651
0.00544873
0.00535679
0.00527023
0.00518865
0.00511168
0.00503898
0.0113809
0.0113572
0.0112906
0.0111664
0.010984
0.0107537
0.0104904
0.0102084
0.00991919
0.00963123
0.00935017
0.00907955
0.00882139
0.00857664
0.00834558
0.00812804
0.00792355
0.00773152
0.00755125
0.00738201
0.00722307
0.00707374
0.00693334
0.00680124
0.00667684
0.00655959
0.00644899
0.00634456
0.00624587
0.00615253
0.00606418
0.00598049
0.00590114
0.0113818
0.0113708
0.0113383
0.0112723
0.0111671
0.0110237
0.0108485
0.0106497
0.0104355
0.0102131
0.00998805
0.00976448
0.00954536
0.00933267
0.00912766
0.00893108
0.00874327
0.0085643
0.00839408
0.00823237
0.00807887
0.00793323
0.00779507
0.00766401
0.00753966
0.00742164
0.00730959
0.00720316
0.00710204
0.00700589
0.00691445
0.00682743
0.00674459
0.0113822
0.0113768
0.0113611
0.0113273
0.0112692
0.0111846
0.0110744
0.0109422
0.0107927
0.0106308
0.0104607
0.0102863
0.0101105
0.00993552
0.0097632
0.00959471
0.00943093
0.00927242
0.00911952
0.00897241
0.00883115
0.0086957
0.00856597
0.0084418
0.00832302
0.00820944
0.00810085
0.00799703
0.00789778
0.00780289
0.00771216
0.00762539
0.0075424
0.0113823
0.0113794
0.0113717
0.0113547
0.0113238
0.011276
0.0112101
0.0111268
0.0110279
0.0109162
0.0107945
0.0106655
0.0105317
0.0103951
0.0102574
0.0101201
0.00998407
0.00985027
0.00971928
0.00959153
0.00946734
0.00934692
0.00923037
0.00911775
0.00900907
0.00890429
0.00880336
0.00870619
0.00861268
0.00852273
0.00843623
0.00835305
0.00827309
0.0113824
0.0113805
0.0113765
0.0113679
0.0113519
0.0113259
0.0112881
0.0112379
0.0111757
0.0111025
0.0110197
0.010929
0.0108321
0.0107305
0.0106258
0.010519
0.0104112
0.0103034
0.0101961
0.01009
0.00998552
0.00988296
0.0097826
0.00968463
0.0095892
0.00949639
0.00940625
0.00931882
0.00923408
0.00915203
0.00907263
0.00899584
0.0089216
0.0113824
0.0113809
0.0113786
0.0113741
0.0113658
0.0113519
0.011331
0.0113021
0.0112646
0.0112187
0.011165
0.0111041
0.0110372
0.0109652
0.0108891
0.0108098
0.0107282
0.0106451
0.010561
0.0104766
0.0103923
0.0103085
0.0102255
0.0101437
0.0100631
0.00998404
0.00990659
0.00983084
0.00975687
0.00968474
0.00961447
0.00954607
0.00947955
0.0113824
0.0113811
0.0113795
0.0113769
0.0113724
0.0113651
0.0113537
0.0113375
0.0113158
0.0112882
0.0112548
0.0112157
0.0111715
0.0111227
0.0110698
0.0110135
0.0109543
0.0108929
0.0108297
0.0107653
0.0107
0.0106342
0.0105683
0.0105025
0.0104371
0.0103722
0.0103081
0.0102448
0.0101825
0.0101213
0.0100612
0.0100024
0.00994474
0.0113824
0.0113812
0.0113798
0.0113781
0.0113755
0.0113714
0.0113653
0.0113563
0.011344
0.011328
0.011308
0.0112839
0.0112559
0.0112241
0.0111889
0.0111505
0.0111093
0.0110658
0.0110202
0.0109729
0.0109243
0.0108746
0.0108242
0.0107732
0.010722
0.0106706
0.0106194
0.0105683
0.0105176
0.0104673
0.0104176
0.0103685
0.0103202
0.0113824
0.0113812
0.01138
0.0113786
0.0113768
0.0113744
0.0113709
0.0113659
0.011359
0.0113499
0.0113382
0.0113238
0.0113067
0.0112868
0.0112641
0.011239
0.0112114
0.0111816
0.0111499
0.0111165
0.0110816
0.0110454
0.0110081
0.0109699
0.0109311
0.0108917
0.010852
0.010812
0.0107719
0.0107318
0.0106919
0.0106521
0.0106126
0.0113824
0.0113812
0.01138
0.0113788
0.0113774
0.0113757
0.0113735
0.0113706
0.0113666
0.0113614
0.0113547
0.0113463
0.011336
0.0113238
0.0113097
0.0112937
0.0112758
0.0112561
0.0112347
0.0112117
0.0111873
0.0111616
0.0111348
0.0111069
0.0110782
0.0110487
0.0110187
0.010988
0.010957
0.0109257
0.0108942
0.0108626
0.0108309
0.0113824
0.0113812
0.01138
0.0113789
0.0113776
0.0113763
0.0113747
0.0113728
0.0113703
0.0113672
0.0113632
0.0113582
0.0113521
0.0113447
0.011336
0.0113259
0.0113143
0.0113014
0.0112871
0.0112715
0.0112546
0.0112365
0.0112174
0.0111972
0.0111761
0.0111542
0.0111315
0.0111082
0.0110843
0.0110599
0.0110351
0.01101
0.0109846
0.0113824
0.0113812
0.01138
0.0113789
0.0113777
0.0113765
0.0113752
0.0113737
0.011372
0.0113699
0.0113673
0.0113642
0.0113603
0.0113555
0.0113499
0.0113432
0.0113355
0.0113267
0.0113167
0.0113057
0.0112936
0.0112805
0.0112663
0.0112512
0.0112351
0.0112183
0.0112006
0.0111822
0.0111632
0.0111436
0.0111235
0.011103
0.011082
0.0113824
0.0113812
0.01138
0.0113789
0.0113777
0.0113766
0.0113753
0.011374
0.0113726
0.0113709
0.0113689
0.0113665
0.0113635
0.0113599
0.0113556
0.0113504
0.0113444
0.0113375
0.0113297
0.0113208
0.011311
0.0113002
0.0112885
0.0112759
0.0112624
0.0112481
0.0112329
0.0112171
0.0112006
0.0111835
0.0111658
0.0111477
0.011129
0.0113824
0.0113812
0.01138
0.0113789
0.0113777
0.0113765
0.0113753
0.011374
0.0113725
0.0113707
0.0113686
0.0113661
0.011363
0.0113593
0.0113548
0.0113496
0.0113434
0.0113364
0.0113284
0.0113194
0.0113095
0.0112986
0.0112868
0.0112741
0.0112606
0.0112462
0.0112311
0.0112152
0.0111987
0.0111816
0.011164
0.0111458
0.0111272
0.0113824
0.0113812
0.01138
0.0113789
0.0113777
0.0113764
0.011375
0.0113734
0.0113715
0.0113691
0.0113662
0.0113626
0.0113583
0.011353
0.0113468
0.0113395
0.0113312
0.0113218
0.0113113
0.0112998
0.0112872
0.0112735
0.0112589
0.0112434
0.0112271
0.0112099
0.011192
0.0111734
0.0111542
0.0111344
0.0111142
0.0110935
0.0110725
0.0113824
0.0113812
0.01138
0.0113788
0.0113775
0.011376
0.0113742
0.0113718
0.0113688
0.0113648
0.0113599
0.0113537
0.0113462
0.0113373
0.011327
0.0113153
0.0113021
0.0112875
0.0112715
0.0112543
0.0112359
0.0112164
0.0111959
0.0111744
0.0111521
0.011129
0.0111053
0.011081
0.0110562
0.011031
0.0110054
0.0109795
0.0109535
0.0113824
0.0113812
0.01138
0.0113787
0.011377
0.0113748
0.0113718
0.0113676
0.0113618
0.0113543
0.0113449
0.0113333
0.0113196
0.0113037
0.0112857
0.0112656
0.0112436
0.0112198
0.0111944
0.0111675
0.0111393
0.01111
0.0110797
0.0110486
0.0110167
0.0109843
0.0109514
0.0109182
0.0108847
0.010851
0.0108173
0.0107835
0.0107498
0.0113824
0.0113813
0.0113799
0.0113781
0.0113755
0.0113714
0.0113652
0.0113564
0.0113446
0.0113295
0.0113109
0.0112888
0.0112634
0.0112347
0.0112031
0.0111689
0.0111323
0.0110938
0.0110535
0.0110117
0.0109688
0.010925
0.0108805
0.0108355
0.0107902
0.0107447
0.0106992
0.0106538
0.0106086
0.0105637
0.0105191
0.010475
0.0104314
0.0113825
0.0113812
0.0113794
0.0113761
0.0113704
0.0113611
0.0113472
0.0113279
0.0113028
0.011272
0.0112356
0.011194
0.0111477
0.0110974
0.0110436
0.0109871
0.0109282
0.0108677
0.0108058
0.0107431
0.0106799
0.0106166
0.0105532
0.0104902
0.0104277
0.0103658
0.0103047
0.0102444
0.0101851
0.0101268
0.0100696
0.0100134
0.00995839
0.0113825
0.0113808
0.011377
0.0113691
0.0113545
0.0113315
0.0112988
0.011256
0.0112036
0.0111424
0.0110735
0.0109982
0.0109178
0.0108335
0.0107465
0.0106576
0.0105676
0.0104773
0.0103873
0.0102978
0.0102094
0.0101223
0.0100368
0.0099529
0.00987083
0.00979067
0.00971246
0.00963624
0.00956202
0.0094898
0.00941956
0.00935128
0.00928493
0.0113825
0.0113787
0.0113679
0.0113447
0.0113054
0.011248
0.0111728
0.0110816
0.0109771
0.0108621
0.0107396
0.0106119
0.0104814
0.0103497
0.0102183
0.0100882
0.00996015
0.00983483
0.00971262
0.0095938
0.00947854
0.00936693
0.009259
0.00915474
0.00905411
0.00895702
0.0088634
0.00877314
0.00868612
0.00860225
0.00852139
0.00844344
0.00836827
0.011382
0.0113691
0.0113325
0.0112633
0.0111587
0.0110222
0.0108601
0.0106799
0.0104883
0.010291
0.0100925
0.00989597
0.00970363
0.00951702
0.00933708
0.0091643
0.00899889
0.00884087
0.0086901
0.00854638
0.00840944
0.00827898
0.00815469
0.00803625
0.00792336
0.0078157
0.00771298
0.00761493
0.00752128
0.00743178
0.00734619
0.0072643
0.00718589
0.0113786
0.0113249
0.0111997
0.0110009
0.0107442
0.0104511
0.0101407
0.00982717
0.00952002
0.00922488
0.00894479
0.00868111
0.00843415
0.00820345
0.00798817
0.00778733
0.00759986
0.00742474
0.00726097
0.00710763
0.00696387
0.0068289
0.00670202
0.00658257
0.00646996
0.00636368
0.00626322
0.00616816
0.0060781
0.00599268
0.00591156
0.00583446
0.00576108
0.0113536
0.011126
0.0107259
0.0102229
0.00968832
0.00916705
0.00868064
0.00823688
0.00783646
0.00747677
0.00715407
0.00686443
0.00660375
0.00636828
0.00615475
0.0059604
0.00578286
0.00562011
0.00547043
0.00533236
0.00520462
0.00508613
0.00497594
0.00487323
0.00477728
0.00468746
0.00460321
0.00452405
0.00444953
0.00437927
0.00431293
0.0042502
0.00419079
0.0111683
0.0102731
0.00924316
0.00829367
0.00748992
0.00682636
0.00627847
0.00582284
0.00544041
0.00511624
0.00483928
0.00459995
0.00439098
0.00420686
0.00404337
0.00389717
0.00376565
0.00364667
0.00353852
0.00343976
0.00334924
0.00326594
0.00318904
0.00311783
0.0030517
0.00299013
0.00293266
0.00287889
0.00282849
0.00278114
0.00273658
0.00269458
0.00265492
0.00982658
0.0072389
0.00577405
0.00486951
0.00424873
0.00378755
0.00342701
0.00314024
0.00290887
0.00271813
0.00255776
0.00242093
0.00230279
0.00219976
0.00210909
0.00202868
0.00195685
0.0018923
0.00183394
0.00178091
0.00173249
0.0016881
0.00164724
0.00160949
0.00157451
0.00154199
0.00151168
0.00148335
0.00145682
0.00143191
0.00140847
0.00138638
0.00136552
0.00414167
0.00254161
0.00204418
0.00174836
0.00154034
0.00137827
0.00124767
0.00114134
0.00105376
0.000980906
0.00091964
0.000867557
0.000822817
0.000784015
0.000750074
0.000720156
0.000693605
0.000669896
0.00064861
0.000629404
0.000611998
0.000596159
0.000581692
0.000568435
0.000556248
0.000545013
0.000534629
0.000525007
0.000516071
0.000507755
0.000499999
0.000492754
0.000485967
0.000119434
0.000124352
0.000129424
0.000134072
0.000138235
0.000142037
0.000145562
0.000148849
0.000151924
0.000154806
0.000157512
0.000160054
0.000162444
0.000164691
0.000166805
0.000168794
0.000170666
0.000172428
0.000174087
0.000175649
0.000177119
0.000178503
0.000179806
0.000181034
0.00018219
0.000183279
0.000184304
0.00018527
0.00018618
0.000187038
0.000187846
0.000188607
0.000189325
6.59859e-05
7.80367e-05
9.77494e-05
0.000123987
0.000155884
0.000192213
0.000231714
0.000273065
0.000314921
0.000356071
0.00039563
0.000433136
0.000468537
0.000502085
0.000534193
0.000565301
0.000595782
0.000625897
0.000655792
0.00068552
0.000715078
0.00074445
0.000773627
0.00080262
0.000831464
0.000860205
0.000888896
0.000917587
0.000946323
0.000975137
0.00100406
0.0010331
0.00106228
0.0010916
0.00112108
0.00115071
0.00118051
0.00121049
0.00124065
0.00127102
0.00130161
0.00133246
0.00136362
0.00139513
0.00142707
0.0014595
0.00149252
0.00152625
0.00156081
0.00159634
0.00163302
0.00167101
0.00171054
0.00175181
0.00179506
0.00184053
0.00188849
0.00193919
0.00199289
0.00204984
0.00211025
0.00217432
0.00224222
0.00231406
0.0023899
0.00246974
0.00255353
0.00264116
0.00273245
0.00282717
0.00292505
0.00302576
0.00312896
0.00323426
0.00334126
0.00344954
0.00355868
0.00366825
0.00377782
0.00388697
0.00399529
0.00410239
0.00420788
0.00431142
0.00441267
0.00451135
0.00460719
0.00470001
0.00478963
0.004876
0.00495914
0.00503929
0.005117
0.00519329
0.00526998
0.00534951
0.00543663
0.00553931
0.00565891
0.00593861
0.000121862
0.000121656
0.000123453
0.000128367
0.000136171
0.000146893
0.000160644
0.000177521
0.000197573
0.000220786
0.000247053
0.000276152
0.000307731
0.000341321
0.000376368
0.000412285
0.000448504
0.000484541
0.000520031
0.000554757
0.000588634
0.000621683
0.000653995
0.000685692
0.000716896
0.00074772
0.000778258
0.000808587
0.000838773
0.000868873
0.000898936
0.00092901
0.000959134
0.000989347
0.00101968
0.00105017
0.00108083
0.00111171
0.00114283
0.00117423
0.00120594
0.00123801
0.00127051
0.00130348
0.00133702
0.00137122
0.00140617
0.00144201
0.00147888
0.00151693
0.00155635
0.00159733
0.00164009
0.00168485
0.00173186
0.00178138
0.00183365
0.00188892
0.00194743
0.00200939
0.002075
0.00214439
0.00221769
0.00229492
0.0023761
0.00246115
0.00254995
0.00264232
0.00273804
0.00283683
0.00293838
0.00304236
0.00314841
0.00325615
0.0033652
0.00347518
0.00358571
0.0036964
0.00380688
0.0039168
0.0040258
0.00413355
0.00423972
0.00434403
0.00444619
0.00454599
0.00464321
0.00473772
0.00482942
0.0049183
0.00500446
0.00508823
0.00517027
0.00525176
0.00533472
0.00542188
0.00551847
0.00563345
0.00576844
0.00608136
0.000240045
0.000235416
0.00023059
0.000226149
0.000222706
0.000220765
0.000220512
0.000222086
0.000225732
0.000231733
0.000240368
0.000251871
0.000266404
0.000284021
0.000304663
0.000328156
0.000354224
0.000382515
0.000412622
0.000444119
0.000476587
0.000509641
0.000542953
0.000576268
0.000609405
0.00064226
0.000674791
0.000707007
0.000738947
0.000770671
0.000802244
0.000833733
0.000865201
0.000896707
0.000928306
0.000960052
0.000991994
0.00102419
0.00105668
0.00108953
0.0011228
0.00115655
0.00119087
0.00122584
0.00126155
0.00129812
0.00133568
0.00137436
0.00141434
0.00145578
0.00149888
0.00154386
0.00159093
0.00164033
0.0016923
0.00174708
0.0018049
0.00186597
0.0019305
0.00199864
0.00207051
0.0021462
0.00222571
0.00230902
0.00239605
0.00248663
0.00258059
0.00267767
0.0027776
0.00288007
0.00298475
0.00309131
0.00319939
0.00330865
0.00341874
0.00352933
0.0036401
0.00375073
0.00386092
0.00397039
0.00407885
0.00418605
0.00429173
0.00439568
0.00449769
0.00459758
0.00469524
0.00479057
0.00488354
0.00497422
0.00506277
0.00514959
0.00523546
0.00532167
0.00541039
0.00550457
0.00560971
0.00573543
0.0058834
0.00622318
0.000435166
0.000426915
0.000418807
0.000410937
0.000403433
0.000396392
0.000389882
0.000384017
0.000378858
0.000374458
0.000370933
0.000368483
0.000367392
0.000368008
0.000370712
0.00037587
0.000383787
0.000394663
0.000408571
0.000425449
0.000445121
0.00046732
0.000491724
0.000517987
0.000545769
0.000574753
0.00060466
0.000635258
0.000666367
0.000697852
0.000729625
0.000761636
0.000793866
0.00082632
0.000859025
0.000892017
0.000925345
0.000959066
0.000993242
0.00102795
0.00106325
0.00109925
0.00113604
0.00117372
0.00121241
0.00125225
0.00129339
0.00133598
0.0013802
0.00142624
0.00147431
0.00152461
0.00157737
0.0016328
0.00169111
0.00175251
0.00181718
0.00188527
0.0019569
0.00203216
0.00211108
0.00219363
0.00227974
0.0023693
0.00246212
0.00255798
0.00265663
0.00275778
0.0028611
0.00296628
0.00307299
0.0031809
0.0032897
0.00339908
0.00350875
0.00361845
0.00372793
0.00383695
0.00394529
0.00405276
0.00415915
0.0042643
0.00436804
0.00447023
0.00457073
0.00466944
0.00476632
0.00486133
0.00495452
0.00504601
0.00513605
0.00522509
0.00531402
0.0054042
0.0054979
0.00559818
0.00571063
0.00584521
0.00600338
0.00636306
0.000691672
0.000679432
0.000667567
0.000656222
0.000645486
0.00063535
0.000625764
0.000616669
0.000608066
0.0005999
0.000592114
0.000584679
0.000577611
0.000570981
0.000564922
0.000559633
0.000555375
0.000552456
0.000551215
0.000551987
0.000555077
0.000560725
0.000569085
0.000580217
0.000594087
0.00061058
0.000629524
0.000650707
0.000673903
0.000698887
0.000725451
0.000753409
0.000782607
0.000812922
0.000844264
0.000876572
0.000909817
0.000943991
0.000979113
0.00101522
0.00105237
0.00109064
0.00113011
0.0011709
0.00121312
0.00125692
0.00130243
0.00134982
0.00139927
0.00145094
0.00150503
0.00156173
0.00162121
0.00168364
0.00174918
0.00181797
0.0018901
0.00196565
0.00204465
0.00212707
0.00221286
0.00230189
0.00239401
0.002489
0.00258663
0.00268662
0.00278865
0.00289242
0.00299759
0.00310385
0.00321087
0.00331838
0.00342609
0.00353375
0.00364115
0.0037481
0.00385442
0.00395997
0.00406462
0.00416827
0.00427081
0.00437216
0.00447224
0.004571
0.00466838
0.00476438
0.004859
0.00495229
0.00504437
0.00513541
0.00522574
0.00531588
0.00540678
0.00549986
0.00559744
0.00570257
0.0058208
0.00596205
0.00612739
0.00649972
0.00102165
0.00100387
0.000986732
0.000970392
0.000954949
0.000940405
0.0009267
0.000913746
0.000901472
0.000889801
0.000878647
0.00086794
0.000857633
0.000847706
0.000838168
0.000829061
0.000820458
0.000812469
0.000805236
0.000798933
0.000793767
0.000789961
0.000787755
0.000787381
0.00078906
0.00079298
0.000799286
0.000808078
0.000819401
0.000833258
0.000849608
0.000868381
0.000889488
0.000912831
0.000938312
0.000965841
0.000995341
0.00102675
0.00106004
0.00109518
0.00113219
0.00117108
0.0012119
0.00125472
0.00129963
0.00134671
0.00139609
0.00144788
0.00150222
0.00155923
0.00161904
0.00168179
0.00174758
0.00181652
0.00188867
0.00196408
0.00204276
0.00212469
0.0022098
0.00229798
0.00238908
0.00248291
0.00257921
0.00267774
0.00277818
0.00288023
0.00298355
0.00308782
0.0031927
0.0032979
0.00340311
0.0035081
0.00361262
0.0037165
0.00381958
0.00392174
0.00402289
0.00412298
0.00422198
0.00431986
0.00441663
0.00451229
0.00460687
0.00470039
0.00479289
0.00488445
0.00497514
0.0050651
0.00515449
0.00524358
0.00533275
0.00542258
0.00551407
0.00560868
0.00570872
0.00581716
0.00593934
0.0060849
0.00625424
0.00663198
0.00144373
0.00141798
0.0013933
0.00136977
0.00134749
0.00132645
0.00130659
0.00128783
0.00127007
0.00125323
0.00123721
0.00122193
0.00120733
0.0011934
0.00118012
0.0011675
0.00115558
0.0011444
0.00113403
0.00112454
0.00111602
0.00110858
0.00110234
0.00109741
0.00109394
0.00109209
0.00109199
0.00109381
0.00109769
0.00110377
0.00111217
0.00112299
0.0011363
0.00115217
0.00117065
0.00119175
0.00121549
0.00124188
0.00127092
0.00130262
0.001337
0.00137407
0.00141386
0.0014564
0.00150174
0.00154994
0.00160106
0.00165516
0.00171231
0.00177257
0.00183601
0.00190268
0.00197259
0.00204577
0.00212221
0.00220185
0.00228462
0.0023704
0.00245906
0.00255039
0.00264417
0.00274015
0.00283802
0.00293747
0.00303816
0.00313976
0.00324192
0.00334429
0.00344657
0.00354845
0.00364968
0.00375003
0.00384931
0.0039474
0.00404419
0.00413965
0.00423374
0.0043265
0.00441799
0.00450826
0.00459742
0.00468557
0.00477283
0.00485931
0.00494514
0.00503048
0.0051155
0.00520039
0.0052854
0.00537086
0.00545722
0.00554511
0.00563557
0.00573008
0.00583088
0.00594084
0.00606495
0.00621231
0.00638253
0.00675869
0.00196971
0.00193344
0.00189872
0.00186562
0.00183417
0.00180437
0.00177614
0.0017494
0.00172405
0.00169999
0.00167712
0.00165536
0.00163466
0.00161499
0.00159633
0.0015787
0.00156213
0.00154666
0.00153234
0.00151924
0.00150741
0.00149691
0.0014878
0.00148016
0.00147405
0.00146955
0.00146673
0.00146569
0.00146652
0.00146932
0.0014742
0.00148127
0.00149065
0.00150244
0.00151677
0.00153371
0.00155339
0.00157587
0.00160126
0.00162961
0.001661
0.00169549
0.00173314
0.001774
0.00181813
0.00186557
0.00191636
0.00197055
0.00202815
0.00208918
0.00215365
0.00222154
0.00229282
0.00236742
0.00244527
0.00252624
0.00261019
0.00269693
0.00278624
0.00287788
0.00297155
0.00306694
0.00316371
0.00326152
0.00336
0.00345878
0.0035575
0.00365583
0.00375344
0.00385005
0.00394542
0.00403935
0.00413169
0.00422234
0.00431126
0.00439844
0.00448394
0.00456785
0.0046503
0.00473145
0.00481146
0.00489054
0.00496888
0.0050467
0.00512423
0.00520169
0.00527935
0.00535747
0.00543639
0.0055165
0.0055983
0.0056825
0.00577016
0.00586275
0.00596245
0.00607195
0.00619584
0.00634249
0.00651058
0.00687875
0.00260008
0.00255122
0.00250444
0.00245976
0.00241717
0.00237665
0.00233812
0.00230148
0.00226664
0.0022335
0.00220195
0.00217192
0.00214334
0.00211617
0.00209042
0.00206609
0.00204322
0.00202185
0.00200203
0.00198382
0.00196729
0.00195248
0.00193945
0.00192826
0.00191894
0.00191154
0.00190611
0.00190268
0.00190131
0.00190205
0.00190496
0.00191011
0.00191758
0.00192746
0.00193982
0.00195478
0.00197243
0.00199287
0.0020162
0.00204253
0.00207195
0.00210454
0.0021404
0.0021796
0.0022222
0.00226827
0.00231784
0.00237094
0.0024276
0.00248779
0.0025515
0.00261868
0.00268925
0.00276311
0.00284013
0.00292013
0.00300293
0.00308828
0.00317592
0.00326555
0.00335685
0.00344946
0.00354302
0.00363715
0.00373145
0.00382556
0.0039191
0.00401172
0.00410311
0.004193
0.00428114
0.00436737
0.00445155
0.00453361
0.00461355
0.00469141
0.00476727
0.0048413
0.00491368
0.00498462
0.00505438
0.00512323
0.00519146
0.00525936
0.00532725
0.00539545
0.00546429
0.00553413
0.00560538
0.00567849
0.00575404
0.0058328
0.00591584
0.00600464
0.00610128
0.00620826
0.00632974
0.00647325
0.00663648
0.00699094
0.0033235
0.00326106
0.00320115
0.00314377
0.00308889
0.00303645
0.00298639
0.00293859
0.00289298
0.00284945
0.0028079
0.00276825
0.00273044
0.00269443
0.00266022
0.00262782
0.00259725
0.00256856
0.00254182
0.00251707
0.00249438
0.00247382
0.00245543
0.00243927
0.00242538
0.00241379
0.00240454
0.00239766
0.00239317
0.00239111
0.00239149
0.00239437
0.00239978
0.00240776
0.00241838
0.0024317
0.00244778
0.00246671
0.00248857
0.00251343
0.00254138
0.00257251
0.00260689
0.00264459
0.00268569
0.00273023
0.00277824
0.00282976
0.00288479
0.0029433
0.00300526
0.00307058
0.00313919
0.00321094
0.00328567
0.00336318
0.00344325
0.00352561
0.00360997
0.00369599
0.00378332
0.0038716
0.00396043
0.00404941
0.00413815
0.00422627
0.00431338
0.00439915
0.00448325
0.00456543
0.00464546
0.00472316
0.00479844
0.00487124
0.00494157
0.00500951
0.00507518
0.00513877
0.00520051
0.00526067
0.00531956
0.00537751
0.00543488
0.00549204
0.00554938
0.0056073
0.00566621
0.00572656
0.00578882
0.00585352
0.00592131
0.005993
0.00606971
0.00615289
0.00624455
0.006347
0.00646394
0.00660202
0.00675797
0.00709391
0.00411897
0.00404327
0.00397042
0.0039004
0.00383316
0.00376865
0.00370679
0.0036475
0.0035907
0.00353628
0.00348416
0.00343427
0.00338655
0.00334097
0.00329752
0.00325621
0.00321707
0.00318015
0.0031455
0.00311318
0.00308326
0.00305581
0.00303087
0.00300851
0.00298878
0.0029717
0.00295732
0.00294566
0.00293674
0.00293059
0.00292721
0.00292664
0.00292888
0.00293396
0.00294192
0.00295278
0.00296658
0.00298337
0.00300321
0.00302613
0.0030522
0.00308148
0.00311402
0.00314986
0.00318905
0.00323162
0.0032776
0.00332699
0.00337976
0.0034359
0.00349532
0.00355796
0.00362368
0.00369233
0.00376374
0.00383768
0.0039139
0.00399212
0.00407203
0.00415327
0.00423549
0.00431829
0.00440129
0.00448407
0.00456625
0.00464742
0.00472723
0.00480533
0.00488141
0.00495522
0.00502655
0.00509524
0.00516119
0.00522437
0.0052848
0.00534259
0.00539787
0.00545085
0.00550179
0.005551
0.00559882
0.00564563
0.00569184
0.00573788
0.00578419
0.00583125
0.00587954
0.00592956
0.00598187
0.00603707
0.00609586
0.00615912
0.00622799
0.00630392
0.00638882
0.00648486
0.00659529
0.0067259
0.00687254
0.00718611
0.00495906
0.00487178
0.00478747
0.0047061
0.00462762
0.004552
0.00447917
0.00440907
0.00434162
0.00427675
0.00421438
0.00415446
0.00409695
0.00404181
0.00398905
0.00393869
0.00389074
0.00384526
0.00380231
0.00376195
0.00372425
0.00368927
0.00365708
0.00362773
0.00360129
0.00357779
0.00355727
0.00353976
0.00352529
0.00351387
0.00350553
0.00350027
0.00349811
0.00349906
0.00350313
0.00351033
0.00352069
0.00353422
0.00355095
0.0035709
0.00359411
0.00362058
0.00365036
0.00368346
0.00371989
0.00375967
0.00380277
0.00384919
0.00389888
0.00395178
0.00400781
0.00406686
0.00412877
0.0041934
0.00426053
0.00432992
0.00440131
0.0044744
0.00454887
0.00462435
0.00470048
0.00477687
0.00485313
0.00492884
0.00500362
0.00507708
0.00514887
0.00521866
0.00528615
0.0053511
0.00541332
0.00547265
0.00552902
0.0055824
0.00563283
0.00568042
0.00572532
0.00576776
0.005808
0.00584637
0.00588323
0.005919
0.0059541
0.005989
0.0060242
0.00606021
0.00609757
0.00613685
0.00617864
0.00622362
0.00627255
0.00632635
0.00638618
0.00645349
0.00653012
0.0066181
0.00672029
0.00684169
0.00697738
0.00726573
0.00581358
0.00571754
0.00562435
0.005534
0.00544647
0.00536173
0.00527974
0.00520046
0.00512385
0.00504986
0.00497843
0.00490953
0.00484314
0.00477925
0.00471785
0.00465898
0.00460268
0.00454899
0.00449798
0.00444971
0.00440426
0.00436169
0.00432208
0.00428548
0.00425197
0.00422159
0.00419438
0.00417039
0.00414964
0.00413216
0.00411798
0.00410709
0.00409952
0.00409527
0.00409435
0.00409677
0.00410253
0.00411163
0.00412409
0.0041399
0.00415907
0.00418159
0.00420748
0.00423672
0.00426929
0.00430518
0.00434435
0.00438675
0.00443231
0.00448095
0.00453255
0.00458698
0.00464408
0.00470366
0.0047655
0.00482934
0.0048949
0.00496187
0.00502993
0.0050987
0.00516782
0.0052369
0.00530554
0.00537336
0.00543998
0.00550501
0.00556813
0.00562902
0.0056874
0.00574305
0.00579579
0.00584549
0.00589207
0.00593554
0.00597593
0.00601336
0.006048
0.00608006
0.00610983
0.00613762
0.00616382
0.00618884
0.00621312
0.00623715
0.00626145
0.00628655
0.00631303
0.00634149
0.00637258
0.006407
0.00644557
0.00648924
0.00653919
0.00659686
0.00666404
0.00674262
0.00683516
0.00694592
0.00706943
0.00733068
0.00665276
0.00655156
0.00645287
0.00635672
0.00626311
0.00617203
0.00608349
0.00599747
0.00591396
0.00583293
0.00575437
0.00567828
0.00560464
0.00553346
0.00546478
0.00539863
0.00533506
0.00527412
0.00521588
0.00516043
0.00510783
0.00505817
0.00501151
0.00496794
0.00492752
0.00489031
0.00485636
0.00482572
0.00479844
0.00477454
0.00475405
0.00473699
0.00472337
0.00471322
0.00470652
0.0047033
0.00470354
0.00470725
0.00471441
0.00472503
0.00473909
0.00475656
0.00477744
0.00480169
0.00482928
0.00486015
0.00489425
0.0049315
0.0049718
0.00501506
0.00506113
0.00510985
0.00516104
0.0052145
0.00526997
0.0053272
0.0053859
0.00544574
0.00550639
0.00556748
0.00562865
0.00568952
0.0057497
0.00580882
0.0058665
0.00592241
0.00597621
0.00602762
0.00607638
0.00612229
0.00616519
0.00620496
0.00624157
0.006275
0.00630531
0.00633263
0.00635713