/*--------------------------------*- C++ -*----------------------------------*\
| =========                 |                                                 |
| \\      /  F ield         | OpenFOAM: The Open Source CFD Toolbox           |
|  \\    /   O peration     | Version:  4.1                                   |
|   \\  /    A nd           | Web:      www.OpenFOAM.org                      |
|    \\/     M anipulation  |                                                 |
\*---------------------------------------------------------------------------*/
FoamFile
{
    version     2.0;
    format      ascii;
    class       volScalarField;
    location    "600";
    object      omega;
}
// * * * * * * * * * * * * * * * * * * * * * * * * * * * * * * * * * * * * * //

dimensions      [0 0 -1 0 0 0 0];

internalField   nonuniform List<scalar> 
6820
(
7254.63
8569.06
9629.25
10283
10668.4
10885.8
10995.8
11035
11026.8
10987.3
10927.3
10854.4
10774
10689.7
10604.1
10519.1
10435.8
10355
10277.3
10202.9
10132
10064.5
10000.6
9939.99
9882.68
9828.49
9777.27
9728.9
9683.04
9640.27
9596.89
9569.05
9476.88
600.799
1554.22
2092.91
2435.19
2698.34
2895.12
3033.36
3126.97
3188.97
3229.01
3253.95
3268.65
3276.57
3280.07
3280.75
3279.73
3277.75
3275.32
3272.78
3270.33
3268.11
3266.2
3264.64
3263.44
3262.61
3262.14
3262.04
3262.33
3263.05
3264.26
3266.15
3268.65
3273.91
107.108
368.908
596.394
767.386
894.981
993.333
1070.57
1131.54
1179.69
1217.64
1247.46
1270.8
1289.01
1303.18
1314.18
1322.69
1329.27
1334.36
1338.29
1341.34
1343.73
1345.63
1347.18
1348.47
1349.6
1350.63
1351.61
1352.59
1353.61
1354.69
1355.88
1357.2
1358.87
37.6577
108.378
189.201
265.511
332.231
389.334
437.981
479.461
514.907
545.243
571.224
593.484
612.561
628.918
642.951
655
665.354
674.263
681.94
688.566
694.296
699.263
703.58
707.343
710.636
713.529
716.083
718.352
720.382
722.214
723.887
725.433
726.902
23.8008
47.5371
77.7008
109.824
141.237
170.722
197.836
222.517
244.873
265.071
283.289
299.702
314.481
327.784
339.759
350.54
360.25
369
376.891
384.014
390.449
396.27
401.542
406.323
410.665
414.615
418.215
421.504
424.514
427.278
429.826
432.183
434.385
19.8177
29.4751
42.5078
57.2096
72.4553
87.5719
102.186
116.107
129.248
141.581
153.108
163.851
173.843
183.123
191.733
199.715
207.111
213.964
220.314
226.197
231.65
236.706
241.397
245.752
249.797
253.558
257.057
260.317
263.358
266.198
268.855
271.346
273.69
18.4341
22.8152
29.1685
36.6489
44.6826
52.9063
61.0978
69.1227
76.9008
84.3846
91.547
98.3752
104.866
111.021
116.849
122.36
127.565
132.477
137.111
141.481
145.6
149.484
153.144
156.596
159.851
162.921
165.818
168.554
171.138
173.582
175.894
178.084
180.161
17.9115
19.9902
23.3042
27.4134
31.9742
36.7598
41.6266
46.4842
51.2743
55.9587
60.5124
64.9191
69.169
73.2568
77.1802
80.9397
84.537
87.9756
91.2595
94.3937
97.3832
100.234
102.951
105.541
108.009
110.361
112.603
114.74
116.777
118.72
120.574
122.343
124.033
17.7059
18.7013
20.4733
22.8216
25.5371
28.4654
31.5038
34.5853
37.6657
40.7151
43.7129
46.6449
49.5014
52.276
54.9645
57.5646
60.0751
62.4961
64.8283
67.0729
69.2318
71.307
73.3007
75.2157
77.0543
78.8195
80.5137
82.1399
83.7008
85.1991
86.6373
88.018
89.3439
17.6233
18.0951
19.0401
20.3949
22.0449
23.887
25.8451
27.8668
29.9161
31.9683
34.0059
36.0167
37.9917
39.9248
41.8116
43.649
45.4352
47.1688
48.8495
50.4771
52.0519
53.5747
55.0462
56.4675
57.8397
59.1641
60.442
61.6748
62.864
64.0108
65.1169
66.1834
67.2118
17.5896
17.8082
18.3025
19.0753
20.0762
21.243
22.5218
23.8719
25.2636
26.6759
28.0932
29.5046
30.9021
32.2795
33.6327
34.9584
36.2543
37.5189
38.7512
39.9504
41.1163
42.2488
43.3481
44.4145
45.4484
46.4505
47.4212
48.3614
49.2717
50.1529
51.0057
51.8309
52.6293
17.5758
17.6732
17.924
18.3539
18.9503
19.682
20.5146
21.4186
22.3704
23.352
24.3502
25.3549
26.3585
27.3554
28.3414
29.3132
30.2684
31.2052
32.1224
33.0189
33.8941
34.7477
35.5794
36.3892
37.1771
37.9434
38.6881
39.4117
40.1145
40.7968
41.4591
42.1017
42.7251
17.5702
17.6104
17.7324
17.9633
18.3084
18.7568
19.2901
19.889
20.5362
21.2175
21.9216
22.6397
23.3649
24.0918
24.8164
25.5355
26.2466
26.9478
27.6376
28.3149
28.979
29.6291
30.2649
30.886
31.4924
32.0839
32.6605
33.2224
33.7696
34.3022
34.8206
35.3248
35.815
17.5678
17.5817
17.6374
17.7559
17.9479
18.2137
18.5461
18.9343
19.3672
19.8343
20.3268
20.8373
21.3597
21.8894
22.4224
22.9557
23.4868
24.0139
24.5353
25.0499
25.5567
26.055
26.5441
27.0237
27.4935
27.9532
28.4026
28.8418
29.2707
29.6892
30.0975
30.4956
30.8835
17.5669
17.5687
17.5913
17.6483
17.7501
17.9012
18.1009
18.3448
18.6268
18.9402
19.2785
19.6362
20.0084
20.3909
20.7803
21.1739
21.5693
21.9647
22.3584
22.7493
23.1363
23.5187
23.8958
24.2669
24.6318
24.9902
25.3417
25.6862
26.0235
26.3536
26.6765
26.992
27.3002
17.5665
17.563
17.5695
17.5941
17.6444
17.7258
17.8404
17.9877
18.1651
18.369
18.5954
18.8405
19.1005
19.3721
19.6527
19.9397
20.2311
20.5251
20.8203
21.1155
21.4097
21.702
21.9917
22.2783
22.5612
22.8402
23.1149
23.385
23.6504
23.9109
24.1663
24.4166
24.6618
17.5663
17.5605
17.5594
17.5675
17.5897
17.6303
17.6923
17.7769
17.8837
18.0113
18.1577
18.3205
18.4972
18.6856
18.8834
19.0887
19.2999
19.5153
19.7337
19.954
20.1753
20.3967
20.6175
20.8372
21.0552
21.2712
21.4848
21.6956
21.9036
22.1085
22.31
22.5082
22.7028
17.5662
17.5595
17.5549
17.5548
17.5621
17.5799
17.6107
17.6561
17.7169
17.7929
17.8836
17.9876
18.1036
18.2301
18.3657
18.5089
18.6583
18.8128
18.9713
19.1329
19.2966
19.4619
19.6279
19.7943
19.9604
20.1259
20.2905
20.4538
20.6155
20.7755
20.9335
21.0894
21.2431
17.5662
17.559
17.5529
17.5489
17.5487
17.5542
17.5672
17.5891
17.6211
17.6636
17.7166
17.7799
17.8528
17.9345
18.0241
18.1207
18.2233
18.3311
18.4432
18.5589
18.6776
18.7985
18.9211
19.0449
19.1696
19.2946
19.4197
19.5446
19.669
19.7926
19.9153
20.037
20.1574
17.5662
17.5588
17.552
17.5462
17.5424
17.5415
17.5447
17.5532
17.5679
17.5894
17.6181
17.6542
17.6975
17.7477
17.8043
17.8668
17.9347
18.0073
18.0842
18.1648
18.2484
18.3347
18.4232
18.5135
18.6052
18.698
18.7915
18.8856
18.9799
19.0742
19.1684
19.2623
19.3557
17.5662
17.5588
17.5516
17.5451
17.5395
17.5354
17.5335
17.5346
17.5394
17.5483
17.562
17.5807
17.6044
17.6332
17.667
17.7054
17.7484
17.7954
17.8462
17.9004
17.9576
18.0175
18.0797
18.144
18.2101
18.2776
18.3463
18.416
18.4865
18.5575
18.6289
18.7005
18.7723
17.5662
17.5587
17.5515
17.5445
17.5381
17.5325
17.5281
17.5253
17.5246
17.5265
17.5312
17.5392
17.5506
17.5656
17.5843
17.6065
17.6322
17.6612
17.6934
17.7286
17.7666
17.807
17.8498
17.8946
17.9413
17.9896
18.0394
18.0904
18.1425
18.1956
18.2493
18.3037
18.3586
17.5662
17.5587
17.5514
17.5443
17.5376
17.5313
17.5256
17.5209
17.5174
17.5153
17.5151
17.5169
17.5211
17.5277
17.5369
17.5487
17.5632
17.5804
17.6002
17.6225
17.6471
17.6741
17.7031
17.7342
17.7671
17.8017
17.8378
17.8753
17.914
17.9538
17.9947
18.0363
18.0788
17.5662
17.5587
17.5514
17.5442
17.5373
17.5307
17.5245
17.5189
17.514
17.5101
17.5074
17.506
17.5063
17.5083
17.5122
17.5181
17.5261
17.5363
17.5486
17.563
17.5795
17.5981
17.6186
17.6409
17.665
17.6907
17.718
17.7467
17.7767
17.8079
17.8402
17.8735
17.9077
17.5662
17.5587
17.5514
17.5442
17.5372
17.5306
17.5242
17.5183
17.513
17.5084
17.5048
17.5022
17.501
17.5012
17.503
17.5065
17.5118
17.5189
17.5279
17.5389
17.5517
17.5664
17.5829
17.6012
17.6212
17.6427
17.6658
17.6902
17.716
17.743
17.7711
17.8002
17.8303
17.5662
17.5587
17.5514
17.5442
17.5373
17.5307
17.5244
17.5187
17.5136
17.5094
17.5062
17.5041
17.5034
17.5042
17.5067
17.5108
17.5168
17.5246
17.5343
17.5459
17.5593
17.5746
17.5917
17.6104
17.6308
17.6528
17.6762
17.701
17.7271
17.7543
17.7827
17.812
17.8422
17.5662
17.5587
17.5514
17.5443
17.5376
17.5312
17.5255
17.5205
17.5166
17.5139
17.5127
17.5131
17.5153
17.5194
17.5256
17.5338
17.5442
17.5568
17.5714
17.5881
17.6068
17.6274
17.6498
17.674
17.6998
17.7271
17.7558
17.7858
17.817
17.8493
17.8826
17.9168
17.9518
17.5662
17.5587
17.5515
17.5446
17.5383
17.5328
17.5283
17.5254
17.5242
17.5251
17.5284
17.5344
17.543
17.5544
17.5687
17.5858
17.6056
17.6281
17.6531
17.6805
17.7101
17.7417
17.7753
17.8106
17.8475
17.8859
17.9256
17.9664
18.0082
18.0509
18.0945
18.1387
18.1834
17.5662
17.5588
17.5518
17.5455
17.5403
17.5368
17.5355
17.5371
17.542
17.5507
17.5634
17.5803
17.6014
17.6267
17.656
17.689
17.7256
17.7655
17.8084
17.854
17.902
17.9522
18.0042
18.058
18.1131
18.1696
18.227
18.2853
18.3444
18.4039
18.4639
18.5242
18.5848
17.5663
17.5591
17.5527
17.548
17.5458
17.5473
17.5535
17.5653
17.5834
17.6079
17.6392
17.677
17.7211
17.771
17.8263
17.8865
17.951
18.0192
18.0908
18.1652
18.242
18.3207
18.4011
18.4828
18.5655
18.6489
18.7329
18.8171
18.9015
18.9858
19.07
19.1539
19.2374
17.5663
17.5598
17.5555
17.5552
17.5611
17.5751
17.5988
17.6332
17.6786
17.7349
17.8015
17.8776
17.9624
18.0547
18.1535
18.2579
18.3668
18.4796
18.5954
18.7136
18.8336
18.9548
19.0768
19.1993
19.3219
19.4442
19.5661
19.6873
19.8077
19.9271
20.0454
20.1624
20.2781
17.5666
17.5622
17.5642
17.5767
17.6039
17.6487
17.7124
17.7951
17.896
18.0132
18.145
18.289
18.4433
18.606
18.7753
18.9497
19.1279
19.3087
19.4912
19.6746
19.8582
20.0414
20.2237
20.4048
20.5844
20.762
20.9377
21.1111
21.2822
21.4507
21.6167
21.7801
21.9408
17.5674
17.5706
17.5924
17.6417
17.7245
17.8427
17.995
18.1778
18.3868
18.6172
18.8646
19.125
19.3951
19.6719
19.953
20.2365
20.5208
20.8047
21.0871
21.3673
21.6446
21.9185
22.1887
22.4547
22.7165
22.9738
23.2265
23.4746
23.718
23.9566
24.1905
24.4198
24.6443
17.5706
17.6016
17.687
17.8408
18.065
18.3527
18.6934
19.0751
19.4875
19.9213
20.3693
20.8257
21.2861
21.7468
22.2054
22.6598
23.1088
23.5511
23.9862
24.4134
24.8324
25.2429
25.6449
26.0382
26.4228
26.7988
27.1663
27.5254
27.8761
28.2187
28.5533
28.88
29.199
17.5854
17.7219
18.012
18.4558
19.0269
19.692
20.4206
21.1884
21.9779
22.7761
23.5742
24.3656
25.1459
25.912
26.6624
27.3959
28.1121
28.8105
29.4913
30.1546
30.8005
31.4294
32.0416
32.6376
33.2177
33.7823
34.3319
34.8668
35.3876
35.8946
36.3882
36.8688
37.3368
17.6614
18.2163
19.1616
20.3924
21.7983
23.2954
24.8285
26.3634
27.8795
29.3646
30.8111
32.2141
33.5725
34.8867
36.158
37.3877
38.5772
39.7283
40.8423
41.9208
42.9652
43.9768
44.9568
45.9066
46.8272
47.7198
48.5854
49.425
50.2396
51.0301
51.7974
52.5423
53.2656
18.1027
20.3856
23.4854
26.9261
30.4414
33.9035
37.2583
40.4819
43.5649
46.5061
49.3035
51.9688
54.5135
56.9473
59.2787
61.5147
63.6616
65.7246
67.7087
69.618
71.4565
73.2277
74.935
76.5814
78.1696
79.7025
81.1825
82.6119
83.993
85.3279
86.6186
87.8669
89.0749
21.2182
31.4407
42.4859
53.1245
62.9728
72.0352
80.437
88.1941
95.3422
101.98
108.198
114.053
119.587
124.83
129.807
134.537
139.04
143.329
147.42
151.325
155.055
158.621
162.034
165.301
168.432
171.435
174.317
177.084
179.743
182.301
184.762
187.133
189.418
59.9537
123.961
170.318
207.141
238.336
266.971
293.909
319.087
342.454
364.003
383.808
401.994
418.714
434.119
448.352
461.542
473.804
485.239
495.936
505.971
515.412
524.318
532.74
540.722
548.305
555.524
562.409
568.987
575.283
581.318
587.113
592.683
598.05
1719.4
1778.23
1839.24
1895.41
1945.93
1992.23
2035.28
2075.52
2113.26
2148.7
2182.04
2213.4
2242.93
2270.74
2296.93
2321.61
2344.85
2366.74
2387.37
2406.81
2425.12
2442.37
2458.63
2473.95
2488.38
2501.98
2514.79
2526.87
2538.25
2548.98
2559.09
2568.62
2577.61
9373.43
8892.89
8341.96
7780.54
7245.52
6751.02
6302.79
5899.08
5534.77
5204.01
4901.72
4624.07
4368.31
4132.43
3914.8
3713.99
3528.62
3357.39
3199.05
3052.43
2916.5
2790.29
2672.9
2563.46
2461.18
2365.28
2275.03
2189.76
2108.85
2031.77
1958.01
1887.14
1818.77
1752.57
1688.23
1625.5
1564.16
1504.02
1444.95
1386.82
1329.55
1273.08
1217.4
1162.49
1108.4
1055.16
1002.85
951.565
901.409
852.502
804.973
758.956
714.582
671.977
631.258
592.525
555.86
521.324
488.954
458.762
430.735
404.838
381.012
359.181
339.254
321.127
304.686
289.813
276.388
264.288
253.394
243.591
234.768
226.819
219.645
213.151
207.251
201.863
196.911
192.327
188.045
184.007
180.16
176.453
172.844
169.291
165.76
162.218
158.638
154.992
151.257
147.414
143.453
139.379
135.224
131.048
126.954
123.068
119.65
116.184
3275.48
3321.84
3380.87
3438.23
3501.29
3567.77
3630.39
3680.77
3712.16
3720.27
3703.43
3662.2
3598.8
3516.53
3419.27
3311.12
3195.97
3077.31
2958.01
2840.23
2725.47
2614.64
2508.18
2406.24
2308.77
2215.61
2126.53
2041.28
1959.59
1881.19
1805.81
1733.17
1663.04
1595.16
1529.32
1465.34
1403.05
1342.31
1283.02
1225.08
1168.43
1113.04
1058.89
1005.99
954.359
904.046
855.109
807.619
761.657
717.309
674.663
633.805
594.814
557.761
522.704
489.684
458.724
429.829
402.985
378.157
355.294
334.327
315.175
297.744
281.934
267.637
254.744
243.145
232.73
223.392
215.029
207.544
200.842
194.837
189.447
184.595
180.209
176.222
172.572
169.2
166.054
163.084
160.243
157.49
154.787
152.1
149.396
146.649
143.832
140.924
137.902
134.751
131.461
128.042
124.525
120.974
117.495
114.22
111.385
108.784
1361.01
1366.11
1375.07
1386.69
1400.43
1416.42
1435.46
1459.19
1489.18
1526.2
1570.23
1620.34
1674.67
1730.5
1784.57
1833.44
1873.89
1903.39
1920.34
1924.21
1915.42
1895.18
1865.18
1827.31
1783.4
1735.08
1683.72
1630.4
1575.91
1520.87
1465.72
1410.75
1356.21
1302.24
1248.97
1196.48
1144.82
1094.05
1044.21
995.339
947.472
900.655
854.938
810.375
767.025
724.955
684.232
644.928
607.114
570.856
536.219
503.258
472.019
442.537
414.832
388.91
364.763
342.366
321.682
302.659
285.233
269.331
254.872
241.771
229.936
219.278
209.704
201.125
193.453
186.607
180.504
175.071
170.236
165.931
162.094
158.666
155.591
152.816
150.292
147.973
145.815
143.777
141.822
139.914
138.021
136.112
134.161
132.143
130.036
127.819
125.473
122.984
120.344
117.562
114.671
111.732
108.849
106.157
103.87
102.039
728.533
730.443
732.468
734.528
736.617
738.862
741.506
744.675
748.635
753.933
761.161
770.896
783.641
799.777
819.487
842.694
869
897.659
927.589
957.451
985.77
1011.09
1032.13
1047.92
1057.83
1061.66
1059.51
1051.76
1038.99
1021.83
1000.95
976.995
950.545
922.116
892.152
861.036
829.093
796.6
763.798
730.895
698.076
665.505
633.328
601.681
570.687
540.46
511.102
482.71
455.366
429.147
404.115
380.322
357.807
336.597
316.706
298.134
280.869
264.887
250.155
236.629
224.259
212.988
202.754
193.495
185.143
177.635
170.905
164.89
159.529
154.764
150.539
146.801
143.499
140.587
138.019
135.752
133.745
131.959
130.357
128.902
127.559
126.298
125.085
123.891
122.689
121.453
120.159
118.786
117.314
115.724
113.999
112.125
110.096
107.918
105.624
103.27
100.956
98.8146
97.0349
95.8768
436.763
439.362
441.846
444.091
446.019
447.644
449.032
450.277
451.428
452.598
453.932
455.59
457.735
460.534
464.149
468.727
474.396
481.243
489.296
498.511
508.748
519.768
531.23
542.709
553.719
563.759
572.346
579.059
583.569
585.652
585.2
582.209
576.762
569.014
559.165
547.445
534.099
519.37
503.499
486.714
469.227
451.238
432.93
414.47
396.013
377.697
359.649
341.979
324.786
308.158
292.165
276.867
262.313
248.538
235.563
223.403
212.059
201.524
191.784
182.816
174.593
167.084
160.253
154.062
148.474
143.449
138.947
134.932
131.364
128.208
125.428
122.992
120.865
119.018
117.419
116.038
114.848
113.82
112.926
112.138
111.431
110.779
110.155
109.535
108.895
108.215
107.472
106.647
105.723
104.683
103.509
102.189
100.716
99.0971
97.3585
95.5521
93.7698
92.1364
90.8194
90.2396
276.246
279.032
281.705
284.204
286.474
288.498
290.289
291.874
293.282
294.545
295.705
296.804
297.882
298.98
300.135
301.384
302.765
304.315
306.068
308.052
310.29
312.789
315.537
318.502
321.622
324.809
327.947
330.9
333.515
335.638
337.116
337.816
337.626
336.467
334.29
331.082
326.859
321.667
315.573
308.662
301.03
292.782
284.028
274.876
265.436
255.809
246.094
236.382
226.757
217.292
208.054
199.101
190.479
182.228
174.378
166.952
159.965
153.424
147.333
141.687
136.479
131.698
127.33
123.357
119.763
116.527
113.63
111.052
108.772
106.771
105.027
103.521
102.235
101.147
100.239
99.4909
98.8837
98.3976
98.0126
97.7084
97.4648
97.2613
97.0772
96.8925
96.6872
96.4422
96.1393
95.761
95.291
94.7131
94.0123
93.1757
92.1963
91.0778
89.8434
88.5372
87.2416
86.0709
85.169
85.0775
182.449
184.958
187.388
189.709
191.893
193.927
195.807
197.54
199.136
200.606
201.963
203.221
204.391
205.48
206.494
207.437
208.313
209.124
209.874
210.569
211.215
211.817
212.384
212.919
213.426
213.9
214.334
214.709
215.001
215.177
215.198
215.02
214.597
213.882
212.836
211.423
209.615
207.398
204.765
201.723
198.288
194.486
190.352
185.925
181.252
176.38
171.361
166.244
161.078
155.911
150.785
145.742
140.817
136.041
131.441
127.04
122.854
118.897
115.179
111.704
108.477
105.496
102.759
100.262
97.9979
95.9598
94.1392
92.5271
91.1136
89.8886
88.8416
87.9618
87.2379
86.6585
86.2118
85.8854
85.6664
85.5416
85.4968
85.5174
85.5881
85.6931
85.8161
85.9406
86.05
86.1279
86.1584
86.126
86.0156
85.8124
85.5023
85.0727
84.5162
83.8341
83.0448
82.1849
81.3256
80.5683
80.0331
80.3463
125.909
127.982
130.006
131.966
133.85
135.646
137.351
138.965
140.489
141.926
143.282
144.559
145.761
146.886
147.935
148.904
149.789
150.585
151.287
151.891
152.393
152.792
153.088
153.282
153.376
153.373
153.276
153.087
152.806
152.433
151.964
151.393
150.711
149.909
148.974
147.896
146.664
145.267
143.699
141.955
140.036
137.945
135.69
133.281
130.736
128.07
125.306
122.465
119.57
116.647
113.717
110.805
107.933
105.119
102.383
99.7399
97.2049
94.7892
92.5024
90.3519
88.3431
86.4798
84.7639
83.196
81.7754
80.5003
79.3683
78.3758
77.5188
76.7928
76.1927
75.7128
75.3474
75.0898
74.9332
74.87
74.8919
74.9903
75.1553
75.3768
75.6434
75.9432
76.2636
76.5915
76.9132
77.2151
77.4835
77.7048
77.8655
77.9523
77.952
77.8528
77.6467
77.3332
76.926
76.454
75.977
75.5822
75.3656
76.0075
90.8245
92.4712
94.09
95.6739
97.2151
98.7074
100.147
101.533
102.864
104.14
105.362
106.531
107.646
108.706
109.708
110.649
111.524
112.328
113.054
113.697
114.252
114.715
115.081
115.349
115.517
115.586
115.556
115.43
115.21
114.9
114.501
114.015
113.445
112.791
112.053
111.232
110.326
109.334
108.256
107.091
105.84
104.506
103.09
101.597
100.034
98.4076
96.7275
95.0036
93.2472
91.47
89.6844
87.903
86.138
84.4013
82.7042
81.0573
79.4701
77.9511
76.5076
75.146
73.8714
72.6878
71.5983
70.605
69.7092
68.9114
68.2115
67.6086
67.1017
66.6888
66.3679
66.1363
65.9911
65.9289
65.9458
66.0373
66.1985
66.4237
66.7065
67.0399
67.416
67.8259
68.2604
68.7092
69.1617
69.6067
70.0328
70.4286
70.7825
71.0825
71.317
71.4751
71.5489
71.5364
71.4472
71.3033
71.1531
71.0693
71.1247
72.0276
68.3658
69.6557
70.931
72.1878
73.4216
74.6286
75.8059
76.9521
78.0654
79.1451
80.1909
81.2021
82.1779
83.1164
84.0155
84.8718
85.6817
86.4407
87.1442
87.7872
88.3648
88.8726
89.3066
89.6634
89.9405
90.1362
90.2498
90.2813
90.2317
90.1024
89.8956
89.6135
89.2589
88.8343
88.3425
87.7859
87.1669
86.4878
85.7508
84.9583
84.1125
83.2161
82.2722
81.2842
80.256
79.1924
78.0986
76.9802
75.8436
74.6956
73.5432
72.3937
71.2544
70.1326
69.0354
67.9696
66.9415
65.957
65.0214
64.1393
63.3148
62.5515
61.8521
61.2189
60.6536
60.1575
59.7313
59.3753
59.0896
58.8737
58.727
58.6485
58.6369
58.6906
58.8075
58.9853
59.221
59.5114
59.8523
60.2392
60.6667
61.1289
61.6189
62.1292
62.6518
63.178
63.699
64.2052
64.6872
65.1349
65.5382
65.8877
66.176
66.4003
66.5671
66.6922
66.8139
66.9907
67.2731
68.3775
53.5284
54.5376
55.54
56.5332
57.5145
58.4816
59.4323
60.3653
61.2791
62.1728
63.0457
63.8968
64.7251
65.5291
66.307
67.0563
67.7741
68.4573
69.1023
69.7053
70.2626
70.7703
71.2249
71.6233
71.9628
72.2411
72.4566
72.6084
72.696
72.7196
72.6801
72.5786
72.4168
72.1968
71.9207
71.591
71.2103
70.7812
70.3065
69.7889
69.2313
68.6366
68.0079
67.3485
66.6617
65.9512
65.2209
64.4749
63.7176
62.9534
62.1871
61.4235
60.6675
59.9239
59.1974
58.4927
57.8143
57.1661
56.552
55.9755
55.4396
54.9472
54.5006
54.1017
53.7523
53.4535
53.2064
53.0118
52.8702
52.7817
52.7464
52.7643
52.8348
52.9573
53.1311
53.355
53.6274
53.9466
54.3102
54.7155
55.159
55.6369
56.1445
56.6767
57.2277
57.7912
58.3604
58.9283
59.4872
60.0292
60.5462
61.0303
61.4752
61.8781
62.2431
62.5813
62.922
63.3111
63.7783
65.0327
43.4294
44.2225
45.0133
45.8002
46.5815
47.3557
48.1214
48.8773
49.6223
50.3556
51.0763
51.7837
52.4768
53.1544
53.8149
54.4568
55.0778
55.6756
56.2477
56.7912
57.3034
57.7813
58.2221
58.6233
58.9823
59.297
59.5657
59.7871
59.9601
60.0842
60.1593
60.1857
60.1642
60.0958
59.9819
59.8242
59.6245
59.3849
59.1078
58.7955
58.4506
58.0756
57.6735
57.2469
56.7989
56.3325
55.851
55.3575
54.8554
54.3482
53.8395
53.3327
52.8314
52.3392
51.8595
51.3957
50.9509
50.5283
50.1306
49.7605
49.4204
49.1124
48.8383
48.5999
48.3986
48.2354
48.1115
48.0277
47.9846
47.9826
48.0222
48.1036
48.2269
48.3921
48.5989
48.847
49.1359
49.4646
49.832
50.2366
50.6766
51.1495
51.6526
52.1825
52.7353
53.3069
53.8925
54.4869
55.0847
55.6799
56.2665
56.8384
57.3909
57.9214
58.4328
58.9329
59.4434
59.9994
60.6123
61.9725
36.3704
36.9977
37.6251
38.2516
38.8763
39.4979
40.1155
40.7282
41.3351
41.9355
42.5286
43.1138
43.6903
44.2571
44.8131
45.357
45.8874
46.4025
46.9005
47.3794
47.837
48.2712
48.6799
49.0611
49.4126
49.7328
50.02
50.2729
50.4903
50.6715
50.8158
50.9232
50.9937
51.0277
51.0259
50.9892
50.9188
50.8162
50.6829
50.5208
50.3319
50.1182
49.8819
49.6254
49.3512
49.0618
48.7596
48.4476
48.1282
47.8044
47.4789
47.1544
46.8337
46.5197
46.2148
45.9218
45.643
45.3809
45.1375
44.915
44.7151
44.5397
44.39
44.2676
44.1736
44.1089
44.0745
44.0712
44.0995
44.1601
44.2535
44.38
44.5399
44.7336
44.9612
45.2228
45.5184
45.8477
46.2104
46.6059
47.0332
47.4912
47.9784
48.4929
49.0324
49.5944
50.1757
50.7731
51.383
52.0014
52.624
53.2469
53.8667
54.482
55.0952
55.7116
56.3475
57.0288
57.7514
59.1797
31.3241
31.823
32.3236
32.825
33.3267
33.8278
34.3276
34.8254
35.3205
35.8124
36.3005
36.7842
37.2629
37.7358
38.2021
38.6608
39.111
39.5512
39.9803
40.3968
40.7991
41.1857
41.5549
41.9052
42.235
42.5429
42.8276
43.0878
43.3225
43.5309
43.7123
43.8663
43.9927
44.0914
44.1628
44.2072
44.2253
44.218
44.1865
44.1318
44.0555
43.959
43.8442
43.7127
43.5666
43.4078
43.2384
43.0606
42.8765
42.6884
42.4985
42.3091
42.1223
41.9403
41.7653
41.5992
41.444
41.3016
41.1736
41.0617
40.9674
40.8919
40.8364
40.8021
40.7898
40.8004
40.8347
40.8933
40.9768
41.0857
41.2205
41.3817
41.5696
41.7848
42.0274
42.298
42.5966
42.9236
43.279
43.6628
44.0748
44.5146
44.9817
45.4751
45.9939
46.5367
47.1019
47.6877
48.292
48.9125
49.5469
50.1928
50.8487
51.5141
52.1915
52.8853
53.6073
54.3766
55.1764
56.6411
27.6511
28.0496
28.4505
28.8534
29.2577
29.6629
30.0685
30.474
30.8788
31.2825
31.6846
32.0846
32.4821
32.8765
33.2671
33.6533
34.0343
34.4091
34.7769
35.1366
35.487
35.8271
36.1556
36.4713
36.7732
37.06
37.3307
37.5843
37.82
38.0369
38.2344
38.412
38.5695
38.7066
38.8233
38.9198
38.9964
39.0537
39.0922
39.1129
39.1166
39.1045
39.0779
39.0381
38.9866
38.9248
38.8546
38.7775
38.6953
38.6098
38.5227
38.4359
38.3511
38.27
38.1944
38.1258
38.0659
38.016
37.9775
37.9517
37.9397
37.9426
37.9613
37.9967
38.0495
38.1203
38.2098
38.3184
38.4467
38.5952
38.7642
38.9542
39.1656
39.3989
39.6544
39.9327
40.234
40.5589
40.9076
41.2806
41.6781
42.1002
42.547
43.0183
43.5141
44.0338
44.577
45.143
45.7311
46.3403
46.9696
47.6185
48.2867
48.9752
49.6867
50.4252
51.1997
52.0245
52.8726
54.3469
24.9417
25.2604
25.5821
25.9063
26.2328
26.5612
26.8909
27.2217
27.5531
27.8848
28.2164
28.5475
28.8777
29.2067
29.5339
29.8589
30.181
30.4996
30.814
31.1235
31.4272
31.7244
32.0142
32.2956
32.5678
32.83
33.0813
33.321
33.5484
33.7627
33.9635
34.1503
34.3228
34.4807
34.6238
34.7524
34.8663
34.966
35.0519
35.1244
35.1843
35.2323
35.2694
35.2965
35.3147
35.3252
35.3293
35.3283
35.3235
35.3164
35.3083
35.3008
35.2951
35.2927
35.2949
35.303
35.3182
35.3416
35.3744
35.4175
35.4718
35.5381
35.6171
35.7094
35.8157
35.9364
36.0719
36.2228
36.3892
36.5716
36.7704
36.9859
37.2184
37.4685
37.7364
38.0227
38.3279
38.6523
38.9967
39.3613
39.7469
40.1537
40.5824
41.0333
41.5068
42.0031
42.5225
43.0652
43.6313
44.221
44.8347
45.4728
46.1364
46.8275
47.5495
48.3065
49.1057
49.958
50.8293
52.2906
22.9256
23.1803
23.4381
23.699
23.9626
24.2285
24.4966
24.7665
25.0379
25.3105
25.584
25.8582
26.1327
26.4072
26.6813
26.9548
27.227
27.4977
27.7662
28.0321
28.2948
28.5536
28.808
29.0572
29.3007
29.5379
29.768
29.9906
30.205
30.4107
30.6074
30.7946
30.972
31.1394
31.2966
31.4437
31.5806
31.7075
31.8247
31.9325
32.0314
32.1218
32.2046
32.2803
32.3499
32.4142
32.4742
32.5309
32.5854
32.6387
32.692
32.7463
32.8029
32.8626
32.9267
32.9961
33.0717
33.1545
33.2453
33.3447
33.4535
33.5723
33.7015
33.8417
33.9933
34.1565
34.3316
34.5191
34.719
34.9317
35.1574
35.3964
35.649
35.9155
36.1963
36.4918
36.8024
37.1288
37.4714
37.8309
38.2078
38.6029
39.0168
39.4502
39.9038
40.3785
40.8748
41.3935
41.9356
42.5019
43.0936
43.7122
44.3596
45.0388
45.7538
46.509
47.3103
48.1672
49.0403
50.4699
21.4198
21.6224
21.8284
22.0376
22.2498
22.4648
22.6824
22.9023
23.1243
23.3482
23.5737
23.8007
24.0288
24.2579
24.4876
24.7178
24.948
25.178
25.4074
25.6359
25.8629
26.0881
26.311
26.5311
26.7481
26.9614
27.1706
27.3752
27.5749
27.7692
27.9579
28.1405
28.317
28.487
28.6505
28.8074
28.9578
29.1016
29.2392
29.3706
29.4964
29.6168
29.7323
29.8435
29.9511
30.0556
30.1579
30.2587
30.3588
30.4591
30.5605
30.6637
30.7697
30.8793
30.9933
31.1125
31.2375
31.3691
31.5078
31.6542
31.8087
31.9719
32.1439
32.3251
32.5158
32.7162
32.9263
33.1464
33.3766
33.617
33.8678
34.1292
34.4013
34.6844
34.9788
35.2849
35.603
35.9337
36.2775
36.635
37.0068
37.3938
37.7966
38.2161
38.6533
39.1091
39.5845
40.0807
40.599
41.1407
41.7075
42.3017
42.9258
43.5834
44.2789
45.0171
45.8033
46.6463
47.5034
48.8861
20.2963
20.4565
20.6201
20.7871
20.9572
21.1304
21.3065
21.4852
21.6664
21.85
22.0358
22.2235
22.4131
22.6043
22.797
22.9909
23.1858
23.3816
23.5778
23.7743
23.9708
24.1669
24.3624
24.557
24.7502
24.9418
25.1315
25.319
25.5039
25.686
25.865
26.0408
26.2131
26.3819
26.547
26.7084
26.8662
27.0203
27.1709
27.3183
27.4626
27.6042
27.7435
27.8808
28.0167
28.1516
28.2862
28.4211
28.5569
28.6942
28.8338
28.9762
29.1222
29.2723
29.4271
29.5874
29.7534
29.9258
30.105
30.2913
30.485
30.6864
30.8956
31.1128
31.3381
31.5716
31.8133
32.0632
32.3213
32.5877
32.8624
33.1455
33.4371
33.7372
34.0462
34.3644
34.6919
35.0293
35.3771
35.7357
36.1059
36.4883
36.8838
37.2932
37.7176
38.158
38.6156
39.0917
39.5878
40.1057
40.6472
41.2149
41.8119
42.442
43.1098
43.8205
44.5791
45.3942
46.2212
47.5447
19.464
19.5896
19.7187
19.8511
19.9868
20.1257
20.2677
20.4126
20.5603
20.7107
20.8636
21.019
21.1766
21.3365
21.4983
21.6621
21.8276
21.9947
22.1631
22.3328
22.5035
22.675
22.8471
23.0196
23.1923
23.3649
23.5372
23.7091
23.8803
24.0506
24.22
24.3882
24.5552
24.7209
24.8852
25.0481
25.2097
25.37
25.5292
25.6875
25.8449
26.0019
26.1587
26.3157
26.4732
26.6317
26.7915
26.9533
27.1175
27.2846
27.4551
27.6296
27.8084
27.9922
28.1812
28.376
28.5769
28.7843
28.9983
29.2191
29.4471
29.6821
29.9244
30.1739
30.4305
30.6942
30.965
31.2427
31.5272
31.8185
32.1165
32.421
32.7323
33.0502
33.3749
33.7065
34.0454
34.3918
34.7461
35.1088
35.4805
35.8619
36.2537
36.6567
37.072
37.5007
37.9439
38.4031
38.8798
39.3757
39.8931
40.4344
41.003
41.6028
42.2383
42.915
43.6374
44.4145
45.201
46.4561
18.8561
18.9539
19.055
19.1596
19.2675
19.3786
19.4929
19.6103
19.7307
19.854
19.9802
20.1092
20.2408
20.375
20.5116
20.6507
20.7921
20.9356
21.0812
21.2288
21.3782
21.5293
21.6819
21.836
21.9914
22.148
22.3056
22.4641
22.6234
22.7834
22.944
23.1052
23.2669
23.429
23.5917
23.7548
23.9185
24.083
24.2482
24.4143
24.5817
24.7504
24.9209
25.0933
25.268
25.4453
25.6256
25.8094
25.997
26.1888
26.3851
26.5865
26.7933
27.0057
27.2242
27.4489
27.6802
27.9181
28.1629
28.4146
28.6732
28.9388
29.2111
29.4902
29.7759
30.068
30.3662
30.6705
30.9805
31.2961
31.6171
31.9434
32.2748
32.6113
32.9529
33.2996
33.6517
34.0093
34.3727
34.7423
35.1186
35.5022
35.8937
36.294
36.704
37.1246
37.5571
38.0028
38.4632
38.94
39.4355
39.9521
40.4929
41.0618
41.6633
42.3025
42.9839
43.7167
44.4556
45.6359
18.4232
18.4992
18.5785
18.6611
18.7471
18.8363
18.9287
19.0244
19.1232
19.2251
19.33
19.4379
19.5489
19.6627
19.7793
19.8987
20.0209
20.1457
20.2732
20.4031
20.5356
20.6704
20.8076
20.947
21.0886
21.2323
21.3781
21.5259
21.6757
21.8274
21.981
22.1364
22.2938
22.4531
22.6144
22.7778
22.9433
23.111
23.2812
23.454
23.6296
23.8082
23.9901
24.1755
24.3647
24.5581
24.756
24.9586
25.1663
25.3795
25.5985
25.8234
26.0547
26.2926
26.5372
26.7888
27.0474
27.3132
27.5861
27.8661
28.1531
28.4471
28.7477
29.0548
29.3682
29.6875
30.0125
30.3427
30.678
31.018
31.3623
31.7109
32.0634
32.4196
32.7796
33.1432
33.5104
33.8814
34.2564
34.6357
35.0195
35.4085
35.8031
36.2041
36.6123
37.0286
37.454
37.8899
38.3376
38.7987
39.2752
39.7696
40.2846
40.824
41.3917
41.9929
42.6314
43.3168
44.0042
45.1062
18.1291
18.1889
18.252
18.3183
18.3878
18.4606
18.5367
18.616
18.6985
18.7843
18.8733
18.9654
19.0608
19.1592
19.2608
19.3655
19.4733
19.5841
19.6979
19.8148
19.9346
20.0573
20.183
20.3116
20.4431
20.5775
20.7147
20.8548
20.9978
21.1437
21.2926
21.4444
21.5993
21.7573
21.9185
22.083
22.251
22.4226
22.5979
22.7772
22.9607
23.1486
23.3412
23.5387
23.7413
23.9494
24.1633
24.3832
24.6095
24.8423
25.082
25.3287
25.5827
25.8442
26.1132
26.3899
26.6742
26.9662
27.2658
27.5729
27.8872
28.2085
28.5367
28.8712
29.2119
29.5582
29.9099
30.2664
30.6273
30.9923
31.3609
31.7329
32.1078
32.4853
32.8654
33.2478
33.6324
34.0192
34.4084
34.8
35.1944
35.5919
35.9929
36.3981
36.8081
37.2237
37.6459
38.0757
38.5144
38.9634
39.4246
39.9001
40.3924
40.9048
41.4409
42.0053
42.6015
43.2392
43.8741
44.8972
17.9486
17.9976
18.0498
18.1051
18.1637
18.2254
18.2905
18.3588
18.4304
18.5053
18.5835
18.6651
18.7499
18.8381
18.9297
19.0245
19.1227
19.2242
19.3291
19.4374
19.549
19.664
19.7824
19.9042
20.0295
20.1583
20.2906
20.4264
20.566
20.7092
20.8561
21.007
21.1618
21.3207
21.4839
21.6514
21.8235
22.0003
22.182
22.3688
22.561
22.7589
22.9626
23.1724
23.3886
23.6114
23.8412
24.0782
24.3226
24.5746
24.8346
25.1026
25.3789
25.6634
25.9564
26.2577
26.5674
26.8853
27.2114
27.5454
27.887
28.2359
28.5918
28.9542
29.3227
29.6968
30.076
30.4598
30.8476
31.239