/*--------------------------------*- C++ -*----------------------------------*\
| =========                 |                                                 |
| \\      /  F ield         | OpenFOAM: The Open Source CFD Toolbox           |
|  \\    /   O peration     | Version:  4.1                                   |
|   \\  /    A nd           | Web:      www.OpenFOAM.org                      |
|    \\/     M anipulation  |                                                 |
\*---------------------------------------------------------------------------*/
FoamFile
{
    version     2.0;
    format      ascii;
    class       volScalarField;
    location    "600";
    object      p;
}
// * * * * * * * * * * * * * * * * * * * * * * * * * * * * * * * * * * * * * //

dimensions      [0 2 -2 0 0 0 0];

internalField   nonuniform List<scalar> 
6820
(
6.34643
-4.35249
-7.87912
-8.62435
-9.01696
-9.3482
-9.53657
-9.6299
-9.69281
-9.74549
-9.78856
-9.82361
-9.8538
-9.88099
-9.90586
-9.9288
-9.95021
-9.9704
-9.9896
-10.008
-10.0256
-10.0426
-10.0591
-10.0752
-10.0907
-10.1058
-10.1205
-10.1345
-10.1478
-10.1602
-10.1705
-10.1806
-10.1771
-15.3728
-11.8256
-11.0238
-10.2194
-9.83626
-9.75406
-9.74014
-9.73527
-9.74729
-9.77238
-9.80049
-9.82752
-9.85342
-9.87834
-9.90206
-9.9245
-9.94576
-9.96601
-9.98535
-10.0039
-10.0218
-10.039
-10.0557
-10.072
-10.0878
-10.1031
-10.118
-10.1325
-10.1463
-10.1596
-10.1715
-10.1841
-10.1898
-13.1824
-9.67441
-9.41232
-9.40207
-9.38939
-9.47993
-9.57312
-9.63536
-9.68599
-9.73316
-9.77464
-9.8101
-9.84129
-9.86952
-9.89533
-9.9191
-9.94123
-9.96203
-9.98174
-10.0005
-10.0186
-10.0359
-10.0528
-10.0691
-10.085
-10.1004
-10.1155
-10.1302
-10.1444
-10.1583
-10.1715
-10.1854
-10.1965
-10.7555
-9.28456
-9.43503
-9.54535
-9.52546
-9.57458
-9.6387
-9.6823
-9.71852
-9.75457
-9.78825
-9.81846
-9.84605
-9.87175
-9.8958
-9.91836
-9.93967
-9.95991
-9.97925
-9.99781
-10.0157
-10.033
-10.0498
-10.0662
-10.0822
-10.0978
-10.1131
-10.1281
-10.1428
-10.1574
-10.1718
-10.1868
-10.2013
-10.3032
-9.58862
-9.62727
-9.63817
-9.58867
-9.61057
-9.65706
-9.6933
-9.72568
-9.75886
-9.79065
-9.81977
-9.84669
-9.87188
-9.89554
-9.91782
-9.93889
-9.95895
-9.97813
-9.99657
-10.0144
-10.0316
-10.0483
-10.0647
-10.0807
-10.0964
-10.1118
-10.127
-10.1421
-10.1572
-10.1724
-10.1883
-10.2048
-10.2225
-9.74278
-9.69474
-9.66875
-9.62489
-9.63818
-9.67467
-9.70671
-9.73666
-9.76732
-9.79698
-9.82455
-9.85027
-9.8745
-9.89736
-9.919
-9.93956
-9.9592
-9.97805
-9.99621
-10.0138
-10.0308
-10.0475
-10.0637
-10.0797
-10.0954
-10.1109
-10.1263
-10.1416
-10.1572
-10.173
-10.1896
-10.2072
-10.0995
-9.77314
-9.71885
-9.69339
-9.66018
-9.66819
-9.69604
-9.72331
-9.75007
-9.77773
-9.80491
-9.83065
-9.85498
-9.87808
-9.90006
-9.92098
-9.94097
-9.96015
-9.97862
-9.99647
-10.0138
-10.0306
-10.0471
-10.0633
-10.0792
-10.0948
-10.1104
-10.1259
-10.1415
-10.1572
-10.1735
-10.1905
-10.2086
-9.99057
-9.7851
-9.7404
-9.71816
-9.69228
-9.69653
-9.71747
-9.7403
-9.76393
-9.78876
-9.81357
-9.83751
-9.86043
-9.88241
-9.90346
-9.92364
-9.94302
-9.9617
-9.97975
-9.99726
-10.0143
-10.0309
-10.0472
-10.0632
-10.079
-10.0946
-10.1101
-10.1257
-10.1414
-10.1573
-10.1737
-10.1908
-10.2091
-9.91957
-9.79588
-9.75835
-9.73845
-9.7186
-9.72105
-9.7372
-9.75652
-9.77746
-9.79983
-9.82252
-9.84476
-9.86633
-9.88719
-9.90733
-9.92675
-9.94551
-9.96366
-9.98127
-9.99841
-10.0151
-10.0315
-10.0476
-10.0634
-10.079
-10.0946
-10.11
-10.1256
-10.1412
-10.1572
-10.1736
-10.1907
-10.2087
-9.87522
-9.80251
-9.77135
-9.75433
-9.73981
-9.74178
-9.75479
-9.77146
-9.7902
-9.81047
-9.8313
-9.852
-9.87231
-9.89212
-9.91137
-9.93005
-9.94819
-9.96582
-9.98299
-9.99975
-10.0161
-10.0322
-10.0481
-10.0637
-10.0792
-10.0946
-10.1099
-10.1254
-10.1409
-10.1568
-10.1731
-10.1899
-10.2075
-9.84751
-9.80586
-9.78116
-9.7673
-9.75714
-9.75923
-9.77019
-9.78489
-9.80184
-9.82036
-9.83959
-9.85893
-9.87808
-9.89691
-9.91534
-9.93332
-9.95086
-9.96798
-9.98471
-10.0011
-10.0172
-10.033
-10.0485
-10.064
-10.0792
-10.0945
-10.1097
-10.1249
-10.1404
-10.156
-10.172
-10.1885
-10.2055
-9.83099
-9.80794
-9.78923
-9.77836
-9.77156
-9.77398
-9.78357
-9.79678
-9.81227
-9.82932
-9.84718
-9.86533
-9.88345
-9.90139
-9.91904
-9.93636
-9.95334
-9.96997
-9.98627
-10.0023
-10.018
-10.0335
-10.0489
-10.064
-10.0791
-10.0941
-10.1091
-10.1242
-10.1394
-10.1548
-10.1704
-10.1864
-10.2028
-9.82213
-9.80991
-9.79627
-9.78806
-9.7838
-9.78659
-9.79524
-9.80728
-9.82154
-9.83734
-9.85402
-9.8711
-9.88829
-9.90541
-9.92235
-9.93906
-9.95549
-9.97165
-9.98755
-10.0032
-10.0186
-10.0338
-10.0489
-10.0638
-10.0786
-10.0934
-10.1082
-10.123
-10.1379
-10.1529
-10.1682
-10.1836
-10.1994
-9.81838
-9.81225
-9.80269
-9.79677
-9.79443
-9.79757
-9.80552
-9.81658
-9.82979
-9.84449
-9.86012
-9.87623
-9.89256
-9.90893
-9.92521
-9.94133
-9.95725
-9.97296
-9.98845
-10.0037
-10.0188
-10.0337
-10.0485
-10.0632
-10.0777
-10.0922
-10.1067
-10.1212
-10.1358
-10.1504
-10.1652
-10.1801
-10.1952
-9.81799
-9.81515
-9.80872
-9.80473
-9.80384
-9.80726
-9.81467
-9.8249
-9.83716
-9.85087
-9.86554
-9.88077
-9.8963
-9.91195
-9.92759
-9.94315
-9.95857
-9.97384
-9.98893
-10.0038
-10.0186
-10.0332
-10.0477
-10.062
-10.0763
-10.0905
-10.1047
-10.1189
-10.1331
-10.1473
-10.1616
-10.1759
-10.1903
-9.81976
-9.81863
-9.81452
-9.81209
-9.81229
-9.81594
-9.8229
-9.83239
-9.84379
-9.85659
-9.87037
-9.88476
-9.89953
-9.91449
-9.92951
-9.94452
-9.95946
-9.97428
-9.98897
-10.0035
-10.0179
-10.0322
-10.0464
-10.0604
-10.0744
-10.0883
-10.1021
-10.1159
-10.1297
-10.1435
-10.1572
-10.171
-10.1847
-9.82291
-9.8226
-9.82018
-9.81897
-9.81997
-9.82377
-9.83035
-9.83918
-9.84979
-9.86174
-9.87467
-9.88827
-9.9023
-9.91659
-9.93102
-9.94548
-9.95992
-9.9743
-9.98858
-10.0028
-10.0168
-10.0308
-10.0446
-10.0583
-10.0719
-10.0855
-10.0989
-10.1123
-10.1257
-10.139
-10.1522
-10.1653
-10.1784
-9.82691
-9.82697
-9.82572
-9.82543
-9.82701
-9.83089
-9.83711
-9.84535
-9.85522
-9.86638
-9.87852
-9.89135
-9.90467
-9.91831
-9.93213
-9.94605
-9.96
-9.97392
-9.98779
-10.0016
-10.0153
-10.0288
-10.0423
-10.0557
-10.069
-10.0821
-10.0952
-10.1082
-10.1211
-10.1339
-10.1466
-10.1591
-10.1715
-9.83142
-9.83163
-9.83117
-9.83154
-9.83349
-9.83738
-9.84326
-9.85094
-9.86013
-9.87055
-9.88193
-9.89403
-9.90666
-9.91966
-9.93289
-9.94627
-9.95972
-9.97318
-9.98662
-10
-10.0133
-10.0265
-10.0396
-10.0526
-10.0655
-10.0783
-10.091
-10.1035
-10.1159
-10.1282
-10.1404
-10.1524
-10.1642
-9.83622
-9.83646
-9.83651
-9.83732
-9.83948
-9.84329
-9.84884
-9.85599
-9.86454
-9.87426
-9.88492
-9.89633
-9.90829
-9.92066
-9.93331
-9.94615
-9.95911
-9.9721
-9.98511
-9.99807
-10.011
-10.0238
-10.0365
-10.0491
-10.0616
-10.074
-10.0863
-10.0984
-10.1103
-10.1221
-10.1337
-10.1451
-10.1563
-9.84116
-9.84139
-9.84174
-9.84279
-9.84503
-9.84869
-9.85387
-9.86051
-9.86844
-9.8775
-9.88749
-9.89823
-9.90955
-9.92131
-9.9334
-9.94571
-9.95817
-9.9707
-9.98326
-9.99581
-10.0083
-10.0207
-10.0331
-10.0453
-10.0574
-10.0693
-10.0811
-10.0928
-10.1042
-10.1155
-10.1266
-10.1375
-10.1481
-9.84616
-9.84636
-9.84685
-9.84799
-9.85016
-9.85359
-9.85838
-9.8645
-9.87185
-9.88027
-9.88961
-9.89971
-9.91042
-9.9216
-9.93314
-9.94494
-9.95691
-9.96899
-9.98111
-9.99323
-10.0053
-10.0173
-10.0293
-10.0411
-10.0528
-10.0643
-10.0756
-10.0868
-10.0978
-10.1086
-10.1192
-10.1295
-10.1395
-9.85116
-9.85134
-9.85184
-9.85292
-9.8549
-9.85802
-9.86238
-9.86797
-9.87473
-9.88254
-9.89126
-9.90076
-9.91088
-9.92151
-9.93252
-9.94382
-9.95532
-9.96695
-9.97864
-9.99035
-10.002
-10.0136
-10.0252
-10.0366
-10.0478
-10.0589
-10.0699
-10.0806
-10.0911
-10.1014
-10.1114
-10.1212
-10.1307
-9.85616
-9.85631
-9.85671
-9.85759
-9.85927
-9.86198
-9.86584
-9.87088
-9.87706
-9.88427
-9.89241
-9.90132
-9.9109
-9.921
-9.93151
-9.94234
-9.95339
-9.96458
-9.97586
-9.98716
-9.99844
-10.0097
-10.0208
-10.0318
-10.0426
-10.0533
-10.0638
-10.0741
-10.0841
-10.0939
-10.1035
-10.1127
-10.1217
-9.86117
-9.8613
-9.8615
-9.86204
-9.86328
-9.86548
-9.86877
-9.87322
-9.8788
-9.88543
-9.89299
-9.90137
-9.91042
-9.92003
-9.93008
-9.94046
-9.95108
-9.96187
-9.97274
-9.98365
-9.99455
-10.0054
-10.0161
-10.0267
-10.0372
-10.0474
-10.0575
-10.0673
-10.0769
-10.0862
-10.0953
-10.1041
-10.1126
-9.86625
-9.86636
-9.86624
-9.86627
-9.86692
-9.86848
-9.87113
-9.87495
-9.87991
-9.88595
-9.89297
-9.90082
-9.90939
-9.91855
-9.92817
-9.93814
-9.94837
-9.95877
-9.96928
-9.97982
-9.99035
-10.0008
-10.0112
-10.0214
-10.0314
-10.0413
-10.0509
-10.0603
-10.0695
-10.0784
-10.087
-10.0953
-10.1033
-9.87151
-9.87159
-9.87101
-9.87033
-9.87019
-9.87098
-9.87288
-9.87599
-9.88031
-9.88578
-9.89226
-9.89964
-9.90776
-9.9165
-9.92573
-9.93534
-9.94521
-9.95527
-9.96544
-9.97564
-9.98583
-9.99594
-10.0059
-10.0158
-10.0255
-10.035
-10.0442
-10.0532
-10.0619
-10.0704
-10.0785
-10.0864
-10.0939
-9.87712
-9.87716
-9.87592
-9.87424
-9.87308
-9.8729
-9.87392
-9.87626
-9.87992
-9.88481
-9.89079
-9.89772
-9.90545
-9.91382
-9.92272
-9.932
-9.94157
-9.95132
-9.96118
-9.97108
-9.98095
-9.99075
-10.0004
-10.0099
-10.0193
-10.0284
-10.0373
-10.0459
-10.0542
-10.0622
-10.07
-10.0774
-10.0845
-9.88336
-9.88335
-9.88112
-9.87805
-9.87555
-9.87417
-9.87416
-9.87565
-9.87861
-9.88293
-9.88844
-9.89497
-9.90236
-9.91043
-9.91904
-9.92806
-9.93737
-9.94686
-9.95646
-9.96609
-9.97569
-9.98519
-9.99457
-10.0038
-10.0128
-10.0216
-10.0301
-10.0383
-10.0463
-10.0539
-10.0613
-10.0683
-10.075
-9.89069
-9.89056
-9.88682
-9.88177
-9.8775
-9.87463
-9.87341
-9.87396
-9.87621
-9.87998
-9.88507
-9.89127
-9.89838
-9.90622
-9.91461
-9.92342
-9.93252
-9.94181
-9.9512
-9.9606
-9.96995
-9.97921
-9.98832
-9.99725
-10.006
-10.0144
-10.0226
-10.0305
-10.0381
-10.0454
-10.0524
-10.0591
-10.0654
-9.89989
-9.89945
-9.8933
-9.8854
-9.87878
-9.87405
-9.87142
-9.87096
-9.87249
-9.87576
-9.8805
-9.88644
-9.89336
-9.90103
-9.90928
-9.91795
-9.92691
-9.93604
-9.94526
-9.95449
-9.96365
-9.97269
-9.98158
-9.99026
-9.99871
-10.0069
-10.0148
-10.0224
-10.0297
-10.0367
-10.0434
-10.0497
-10.0556
-9.91232
-9.91105
-9.90089
-9.88884
-9.87913
-9.87208
-9.86781
-9.86628
-9.86713
-9.86997
-9.87443
-9.88022
-9.88703
-9.89463
-9.90282
-9.91143
-9.92031
-9.92936
-9.93847
-9.94757
-9.95659
-9.96548
-9.97418
-9.98267
-9.99091
-9.99888
-10.0066
-10.0139
-10.021
-10.0277
-10.034
-10.04
-10.0457
-9.93059
-9.92681
-9.90964
-9.89167
-9.87801
-9.86817
-9.86206
-9.85946
-9.85969
-9.86218
-9.86648
-9.87221
-9.87903
-9.88666
-9.89489
-9.90353
-9.91243
-9.92147
-9.93056
-9.93961
-9.94857
-9.95736
-9.96596
-9.97432
-9.98242
-9.99023
-9.99772
-10.0049
-10.0117
-10.0182
-10.0244
-10.0301
-10.0355
-9.96096
-9.9497
-9.91912
-9.89238
-9.87389
-9.86087
-9.85294
-9.84947
-9.8493
-9.85164
-9.85596
-9.86179
-9.86876
-9.87654
-9.88492
-9.89369
-9.9027
-9.91184
-9.92099
-9.93009
-9.93907
-9.94786
-9.95644
-9.96477
-9.97281
-9.98055
-9.98797
-9.99505
-10.0018
-10.0081
-10.0142
-10.0198
-10.0251
-10.0159
-9.98754
-9.93246
-9.89162
-9.86543
-9.84775
-9.83784
-9.83389
-9.83381
-9.83656
-9.84152
-9.84807
-9.85573
-9.86416
-9.87311
-9.88237
-9.89181
-9.90129
-9.91072
-9.92003
-9.92916
-9.93807
-9.94671
-9.95507
-9.9631
-9.9708
-9.97816
-9.98515
-9.99178
-9.99803
-10.0039
-10.0094
-10.0145
-10.0989
-10.0358
-9.95127
-9.89779
-9.85908
-9.83098
-9.81583
-9.80929
-9.80753
-9.80943
-9.81435
-9.8214
-9.82987
-9.8393
-9.84935
-9.85978
-9.87037
-9.88097
-9.89148
-9.90181
-9.9119
-9.92168
-9.93114
-9.94023
-9.94895
-9.95727
-9.96517
-9.97267
-9.97974
-9.98639
-9.99261
-9.9984
-10.0037
-10.2491
-10.0156
-9.88622
-9.87293
-9.85816
-9.84068
-9.83477
-9.83429
-9.83454
-9.83602
-9.83927
-9.84389
-9.84949
-9.85591
-9.86302
-9.87064
-9.87862
-9.88683
-9.89517
-9.90354
-9.91187
-9.92009
-9.92815
-9.936
-9.94361
-9.95094
-9.95798
-9.96469
-9.97108
-9.97712
-9.98283
-9.9882
-9.99325
-11.2055
-9.98221
-9.39191
-9.31263
-9.32577
-9.36338
-9.41888
-9.47481
-9.52547
-9.57215
-9.61514
-9.65395
-9.68867
-9.71981
-9.74785
-9.77317
-9.79609
-9.81693
-9.83593
-9.85332
-9.86929
-9.88399
-9.89755
-9.91008
-9.92167
-9.9324
-9.94233
-9.95151
-9.95999
-9.96779
-9.97495
-9.98145
-9.98728
-14.9745
-12.7717
-11.7405
-11.1042
-10.677
-10.4263
-10.2643
-10.1412
-10.0489
-9.98461
-9.94101
-9.9115
-9.8921
-9.88036
-9.87434
-9.87246
-9.87358
-9.87688
-9.88174
-9.8877
-9.89439
-9.90155
-9.90897
-9.9165
-9.924
-9.93139
-9.9386
-9.94557
-9.95227
-9.95868
-9.96478
-9.97059
-9.97611
-1.06083
-5.15349
-7.2773
-8.04982
-8.48864
-8.85236
-9.11852
-9.29476
-9.41883
-9.51471
-9.59022
-9.64919
-9.69591
-9.73408
-9.766
-9.79312
-9.81649
-9.83694
-9.85505
-9.87128
-9.88594
-9.89928
-9.91148
-9.92269
-9.93301
-9.94255
-9.95135
-9.95948
-9.96698
-9.97388
-9.98022
-9.98599
-9.99126
-10.1611
-9.94555
-10.2349
-10.5051
-10.6105
-10.6434
-10.6545
-10.6511
-10.6399
-10.6306
-10.6299
-10.6414
-10.6663
-10.7041
-10.7533
-10.8113
-10.8751
-10.9419
-11.0088
-11.0733
-11.1333
-11.187
-11.233
-11.2703
-11.2983
-11.3166
-11.3248
-11.323
-11.3112
-11.2894
-11.2577
-11.216
-11.1644
-11.1029
-11.0312
-10.9494
-10.8572
-10.7545
-10.641
-10.5166
-10.381
-10.2339
-10.0752
-9.9047
-9.72224
-9.52776
-9.32127
-9.10286
-8.87272
-8.63118
-8.37865
-8.11571
-7.84304
-7.56149
-7.27202
-6.97571
-6.67378
-6.36752
-6.05832
-5.74763
-5.43693
-5.12771
-4.82145
-4.51958
-4.22346
-3.93435
-3.65342
-3.38169
-3.12003
-2.86917
-2.62968
-2.40198
-2.18634
-1.98292
-1.79172
-1.61264
-1.44547
-1.28991
-1.14558
-1.01206
-0.888849
-0.775461
-0.671379
-0.576104
-0.489146
-0.410061
-0.338424
-0.273894
-0.216131
-0.164965
-0.120091
-0.0818165
-0.0494333
-0.0250797
-0.00485845
0.0010132
0.0145247
-0.0135888
0.0292952
-0.100313
-10.2079
-10.2075
-10.4017
-10.5473
-10.5802
-10.5749
-10.567
-10.5568
-10.5467
-10.5435
-10.5515
-10.5719
-10.6047
-10.6486
-10.7021
-10.7626
-10.8278
-10.895
-10.9619
-11.026
-11.0855
-11.1387
-11.1843
-11.2213
-11.249
-11.2671
-11.2752
-11.2734
-11.2617
-11.2399
-11.2083
-11.1667
-11.1153
-11.0539
-10.9824
-10.9008
-10.8088
-10.7063
-10.5932
-10.4691
-10.3339
-10.1874
-10.0294
-9.85967
-9.67816
-9.48478
-9.27957
-9.06262
-8.83414
-8.59444
-8.34396
-8.08324
-7.81299
-7.53402
-7.24726
-6.95379
-6.65479
-6.35151
-6.04533
-5.73764
-5.42989
-5.12355
-4.82004
-4.52078
-4.22709
-3.94023
-3.66134
-3.39142
-3.13134
-2.88184
-2.64349
-2.41671
-2.20179
-1.99889
-1.80802
-1.62912
-1.46199
-1.30634
-1.16181
-1.02799
-0.904414
-0.7906
-0.686046
-0.590269
-0.502785
-0.423159
-0.350974
-0.285894
-0.227584
-0.175884
-0.130473
-0.0916556
-0.0586129
-0.033517
-0.0120365
-0.00499093
0.0113762
-0.0162479
0.0335646
-0.104392
-10.2205
-10.2356
-10.3229
-10.4247
-10.4822
-10.5114
-10.5304
-10.54
-10.5425
-10.5444
-10.5514
-10.5665
-10.5913
-10.6263
-10.6711
-10.7242
-10.7833
-10.8461
-10.9099
-10.9721
-11.0303
-11.0828
-11.128
-11.1649
-11.1926
-11.2108
-11.2192
-11.2176
-11.2062
-11.1847
-11.1534
-11.1122
-11.0611
-11
-10.9289
-10.8476
-10.7561
-10.654
-10.5414
-10.4179
-10.2833
-10.1376
-9.9804
-9.81168
-9.63131
-9.43925
-9.23551
-9.02023
-8.7936
-8.55595
-8.3077
-8.04941
-7.78174
-7.5055
-7.22162
-6.93113
-6.63518
-6.33502
-6.03195
-5.72736
-5.42266
-5.11926
-4.81859
-4.52201
-4.23083
-3.94629
-3.66949
-3.40144
-3.14301
-2.89492
-2.65775
-2.43193
-2.21776
-2.01541
-1.82491
-1.6462
-1.4791
-1.32335
-1.17861
-1.04447
-0.9205
-0.806224
-0.70116
-0.604833
-0.516774
-0.436552
-0.36376
-0.298067
-0.239146
-0.18684
-0.140818
-0.101382
-0.0676202
-0.0417156
-0.0189866
-0.0107023
0.00830117
-0.0185609
0.0372199
-0.107716
-10.2243
-10.2492
-10.3175
-10.4116
-10.4755
-10.5057
-10.5202
-10.5265
-10.5281
-10.5305
-10.5385
-10.5545
-10.5798
-10.6141
-10.6567
-10.7062
-10.7605
-10.8176
-10.8753
-10.9315
-10.9845
-11.0325
-11.0742
-11.1085
-11.1345
-11.1516
-11.1595
-11.1577
-11.1463
-11.1251
-11.0941
-11.0533
-11.0026
-10.942
-10.8713
-10.7906
-10.6996
-10.5981
-10.4861
-10.3633
-10.2296
-10.0847
-9.92858
-9.76102
-9.58196
-9.39136
-9.18927
-8.97581
-8.75119
-8.51573
-8.26986
-8.01411
-7.74916
-7.47578
-7.19488
-6.90747
-6.61468
-6.31771
-6.01785
-5.71644
-5.41486
-5.1145
-4.81674
-4.52293
-4.23434
-3.95218
-3.67756
-3.41147
-3.15476
-2.90815
-2.67223
-2.44743
-2.23406
-2.03229
-1.84218
-1.66368
-1.49663
-1.34078
-1.19581
-1.06135
-0.936949
-0.822176
-0.716556
-0.619629
-0.530935
-0.450054
-0.376586
-0.310205
-0.25059
-0.197589
-0.150862
-0.110705
-0.0761345
-0.0493421
-0.0253628
-0.0158446
0.00554865
-0.020582
0.0403093
-0.111013
-10.2284
-10.2598
-10.3163
-10.389
-10.4423
-10.4708
-10.4878
-10.4997
-10.5081
-10.5164
-10.5283
-10.5461
-10.571
-10.6033
-10.6425
-10.6877
-10.7374
-10.7897
-10.8427
-10.8945
-10.9433
-10.9876
-11.0259
-11.0572
-11.0807
-11.0957
-11.1018
-11.0989
-11.0865
-11.0648
-11.0335
-10.9926
-10.9419
-10.8815
-10.8112
-10.7308
-10.6403
-10.5395
-10.4281
-10.3061
-10.1732
-10.0293
-9.87427
-9.70795
-9.53028
-9.34124
-9.14089
-8.92934
-8.70682
-8.47364
-8.23023
-7.97712
-7.71496
-7.44452
-7.16668
-6.88244
-6.59288
-6.29919
-6.00263
-5.70449
-5.40613
-5.1089
-4.81416
-4.52321
-4.23731
-3.95766
-3.68532
-3.42128
-3.16639
-2.92136
-2.68677
-2.46307
-2.25056
-2.04944
-1.85977
-1.68152
-1.51454
-1.35861
-1.21342
-1.07861
-0.953777
-0.838482
-0.732275
-0.634707
-0.545333
-0.46374
-0.389537
-0.322405
-0.262026
-0.208253
-0.160738
-0.119771
-0.0843111
-0.0565516
-0.0313061
-0.0205273
0.00305911
-0.022307
0.0429395
-0.114108
-10.2313
-10.2639
-10.3112
-10.3689
-10.4165
-10.4472
-10.468
-10.4833
-10.4949
-10.5057
-10.519
-10.5371
-10.561
-10.5913
-10.6276
-10.6692
-10.7146
-10.7624
-10.8108
-10.8581
-10.9027
-10.9431
-10.978
-11.0063
-11.0273
-11.0403
-11.0448
-11.0405
-11.0272
-11.0046
-10.9727
-10.9314
-10.8805
-10.82
-10.7497
-10.6695
-10.5793
-10.4788
-10.368
-10.2467
-10.1146
-9.97162
-9.81765
-9.65257
-9.4763
-9.28884
-9.09024
-8.88064
-8.66026
-8.42941
-8.18851
-7.93809
-7.67879
-7.41136
-7.13665
-6.85565
-6.56942
-6.2791
-5.98592
-5.69117
-5.39614
-5.10216
-4.81055
-4.52259
-4.23952
-3.96249
-3.69256
-3.4307
-3.17774
-2.9344
-2.70124
-2.47873
-2.26717
-2.06677
-1.8776
-1.69964
-1.53278
-1.37679
-1.23139
-1.09625
-0.97097
-0.855141
-0.748324
-0.650085
-0.559993
-0.477644
-0.402657
-0.334719
-0.273516
-0.218903
-0.17053
-0.128675
-0.0922552
-0.063458
-0.0369366
-0.0248632
0.000726044
-0.0237936
0.0450754
-0.116889
-10.2325
-10.2643
-10.3054
-10.3533
-10.3958
-10.4264
-10.4485
-10.4656
-10.4796
-10.4927
-10.5077
-10.5265
-10.55
-10.5788
-10.6126
-10.6508
-10.6923
-10.7358
-10.7798
-10.8227
-10.863
-10.8995
-10.9308
-10.956
-10.9743
-10.985
-10.9876
-10.9817
-10.9672
-10.9436
-10.911
-10.8691
-10.8178
-10.7571
-10.6867
-10.6066
-10.5165
-10.4164
-10.306
-10.1852
-10.0538
-9.91173
-9.75878
-9.59488
-9.41998
-9.23408
-9.03724
-8.82959
-8.61137
-8.38287
-8.14452
-7.89684
-7.64045
-7.37609
-7.1046
-6.82692
-6.54411
-6.25727
-5.96759
-5.67633
-5.38476
-5.09416
-4.80582
-4.52099
-4.24087
-3.96659
-3.6992
-3.43964
-3.18873
-2.94719
-2.71557
-2.49434
-2.28381
-2.0842
-1.8956
-1.718
-1.55128
-1.39527
-1.24969
-1.11423
-0.98851
-0.872139
-0.764697
-0.665765
-0.574925
-0.491785
-0.415972
-0.347178
-0.285099
-0.229587
-0.18029
-0.137477
-0.100037
-0.07014
-0.0423416
-0.0289432
-0.00154687
-0.0251211
0.0466506
-0.11933
-10.2323
-10.2627
-10.2992
-10.3402
-10.3778
-10.4074
-10.4302
-10.4487
-10.4646
-10.4796
-10.4959
-10.5151
-10.5381
-10.5653
-10.5968
-10.6319
-10.6698
-10.7094
-10.7492
-10.7879
-10.8242
-10.8568
-10.8846
-10.9067
-10.9221
-10.9304
-10.9309
-10.9232
-10.9072
-10.8824
-10.8488
-10.8061
-10.7543
-10.6931
-10.6225
-10.5422
-10.4522
-10.3523
-10.2422
-10.1219
-9.99113
-9.84982
-9.69783
-9.53508
-9.36152
-9.17716
-8.98206
-8.77637
-8.5603
-8.33419
-8.09842
-7.85352
-7.6001
-7.33888
-7.07068
-6.79642
-6.51711
-6.23385
-5.94778
-5.66013
-5.37212
-5.08502
-4.80007
-4.51848
-4.24144
-3.97003
-3.7053
-3.44815
-3.1994
-2.95975
-2.72976
-2.5099
-2.30049
-2.10174
-1.91377
-1.73657
-1.57005
-1.41405
-1.26832
-1.13255
-1.0064
-0.889482
-0.781406
-0.681763
-0.590151
-0.506189
-0.429514
-0.359826
-0.296823
-0.240359
-0.190083
-0.14625
-0.107737
-0.0766846
-0.0476135
-0.0328608
-0.0038514
-0.0263653
0.0476154
-0.121409
-10.2312
-10.2598
-10.2927
-10.3284
-10.362
-10.3902
-10.4132
-10.4326
-10.4498
-10.4661
-10.4832
-10.5026
-10.525
-10.5508
-10.5801
-10.6124
-10.6469
-10.6827
-10.7186
-10.7533
-10.7858
-10.8147
-10.8391
-10.858
-10.8706
-10.8764
-10.8747
-10.8652
-10.8475
-10.8214
-10.7866
-10.7431
-10.6905
-10.6287
-10.5577
-10.4772
-10.3871
-10.2872
-10.1773
-10.0574
-9.92715
-9.78656
-9.63547
-9.47381
-9.30154
-9.11868
-8.9253
-8.72155
-8.50765
-8.28392
-8.05076
-7.80868
-7.55826
-7.30022
-7.03537
-6.76458
-6.48885
-6.20924
-5.92686
-5.6429
-5.35855
-5.07503
-4.79356
-4.51531
-4.24143
-3.97299
-3.711
-3.45635
-3.20985
-2.97218
-2.74391
-2.52549
-2.31725
-2.11943
-1.93214
-1.75539
-1.58911
-1.43315
-1.28728
-1.15122
-1.02465
-0.907192
-0.798475
-0.69811
-0.605707
-0.520899
-0.443332
-0.372714
-0.308748
-0.251289
-0.199985
-0.155079
-0.115448
-0.0831925
-0.0528567
-0.0367195
-0.00628245
-0.0276008
0.0479308
-0.123089
-10.2291
-10.256
-10.2859
-10.3175
-10.3479
-10.3745
-10.3973
-10.4171
-10.435
-10.4521
-10.4698
-10.4891
-10.5108
-10.5353
-10.5625
-10.5921
-10.6234
-10.6557
-10.6879
-10.7189
-10.7476
-10.7729
-10.7939
-10.8098
-10.8196
-10.8229
-10.819
-10.8075
-10.7882
-10.7607
-10.7247
-10.6801
-10.6267
-10.5643
-10.4928
-10.4119
-10.3216
-10.2217
-10.112
-9.99232
-9.86257
-9.72263
-9.57238
-9.41176
-9.24074
-9.05935
-8.86767
-8.66584
-8.4541
-8.23276
-8.0022
-7.76294
-7.51555
-7.26072
-6.99923
-6.73195
-6.45983
-6.18391
-5.90527
-5.62505
-5.34441
-5.06454
-4.7866
-4.51176
-4.24111
-3.9757
-3.71652
-3.46444
-3.22024
-2.98461
-2.75811
-2.54119
-2.33419
-2.13734
-1.95077
-1.77451
-1.6085
-1.45261
-1.30663
-1.1703
-1.0433
-0.925305
-0.815944
-0.714846
-0.621637
-0.535963
-0.457481
-0.385904
-0.320943
-0.262451
-0.210079
-0.164055
-0.12327
-0.0897703
-0.0581808
-0.0406275
-0.00893612
-0.0289018
0.0475648
-0.124327
-10.2262
-10.2514
-10.2788
-10.3072
-10.3349
-10.3599
-10.3821
-10.4019
-10.4202
-10.4378
-10.4557
-10.4748
-10.4957
-10.5187
-10.5439
-10.571
-10.5994
-10.6283
-10.657
-10.6844
-10.7095
-10.7314
-10.7491
-10.7619
-10.7689
-10.7697
-10.7636
-10.7502
-10.7291
-10.7001
-10.6629
-10.6173
-10.563
-10.4999
-10.4279
-10.3466
-10.2561
-10.1561
-10.0465
-9.92708
-9.79778
-9.65846
-9.50902
-9.34943
-9.17964
-8.9997
-8.8097
-8.60979
-8.40019
-8.18122
-7.95328
-7.71683
-7.47247
-7.22085
-6.96274
-6.69898
-6.4305
-6.15829
-5.88341
-5.60696
-5.33006
-5.05386
-4.7795
-4.50809
-4.24071
-3.97838
-3.72204
-3.47257
-3.23073
-2.99719
-2.7725
-2.55712
-2.35139
-2.15555
-1.96974
-1.794
-1.62829
-1.47248
-1.32641
-1.18981
-1.0624
-0.943869
-0.833859
-0.73202
-0.637993
-0.551436
-0.472019
-0.39946
-0.333477
-0.273922
-0.220449
-0.173271
-0.131303
-0.0965249
-0.0636949
-0.0446924
-0.0119049
-0.0303399
0.0464933
-0.125078
-10.2225
-10.2462
-10.2713
-10.2973
-10.3226
-10.3461
-10.3675
-10.3871
-10.4054
-10.4231
-10.4409
-10.4596
-10.4796
-10.5012
-10.5245
-10.5491
-10.5747
-10.6005
-10.6258
-10.6497
-10.6714
-10.6899
-10.7045
-10.7143
-10.7186
-10.7168
-10.7085
-10.6931
-10.6703
-10.6398
-10.6013
-10.5546
-10.4994
-10.4356
-10.363
-10.2814
-10.1906
-10.0905
-9.98098
-9.86184
-9.73297
-9.59427
-9.44566
-9.28708
-9.11852
-8.94004
-8.75172
-8.55372
-8.34627
-8.12968
-7.90434
-7.67072
-7.42938
-7.18098
-6.92626
-6.66602
-6.40118
-6.13269
-5.86158
-5.5889
-5.31575
-5.04324
-4.77247
-4.50452
-4.24044
-3.9812
-3.72775
-3.48092
-3.24146
-3.01003
-2.78719
-2.57338
-2.36895
-2.17415
-1.98912
-1.81392
-1.64852
-1.49282
-1.34666
-1.20981
-1.082
-0.962927
-0.852267
-0.74968
-0.654825
-0.567373
-0.487003
-0.413443
-0.346416
-0.285773
-0.231175
-0.182814
-0.139641
-0.103557
-0.0695011
-0.0490152
-0.0152722
-0.0319793
0.0447035
-0.125294
-10.2181
-10.2403
-10.2636
-10.2874
-10.3107
-10.3328
-10.3533
-10.3725
-10.3905
-10.408
-10.4255
-10.4436
-10.4627
-10.4829
-10.5042
-10.5265
-10.5494
-10.5722
-10.5943
-10.615
-10.6333
-10.6486
-10.6601
-10.6669
-10.6685
-10.6643
-10.6537
-10.6364
-10.6118
-10.5798
-10.54
-10.4921
-10.436
-10.3715
-10.2983
-10.2162
-10.1252
-10.0251
-9.91561
-9.79673
-9.66831
-9.53024
-9.38245
-9.2249
-9.05759
-8.88058
-8.69395
-8.49787
-8.29258
-8.07838
-7.85565
-7.62486
-7.38655
-7.14137
-6.89002
-6.63331
-6.37211
-6.10734
-5.83999
-5.57109
-5.3017
-5.03289
-4.76571
-4.50123
-4.24044
-3.98432
-3.73376
-3.48959
-3.25253
-3.02324
-2.80227
-2.59005
-2.38695
-2.1932
-2.00897
-1.83433
-1.66926
-1.51368
-1.36745
-1.23035
-1.10213
-0.982524
-0.87121
-0.767871
-0.672179
-0.58382
-0.502485
-0.427909
-0.359822
-0.298072
-0.242328
-0.192763
-0.148369
-0.110957
-0.0756907
-0.0536864
-0.0191088
-0.0338751
0.0421956
-0.124931
-10.2129
-10.2338
-10.2555
-10.2774
-10.2991
-10.3198
-10.3394
-10.3578
-10.3755
-10.3926
-10.4096
-10.4269
-10.4449
-10.4636
-10.4831
-10.5032
-10.5235
-10.5434
-10.5625
-10.5801
-10.5953
-10.6075
-10.6159
-10.6199
-10.6188
-10.6122
-10.5994
-10.58
-10.5537
-10.5201
-10.479
-10.43
-10.3729
-10.3076
-10.2338
-10.1514
-10.0601
-9.95987
-9.85051
-9.73191
-9.60393
-9.46651
-9.31956
-9.16306
-8.99702
-8.82148
-8.63656
-8.44243
-8.23931
-8.0275
-7.80739
-7.57943
-7.34416
-7.10219
-6.85423
-6.60104
-6.34347
-6.08241
-5.81882
-5.5537
-5.28806
-5.02293
-4.75935
-4.49834
-4.24086
-3.98785
-3.74019
-3.49868
-3.26404
-3.0369
-2.81781
-2.6072
-2.40543
-2.21275
-2.02934
-1.85527
-1.69054
-1.53509
-1.38879
-1.25145
-1.12284
-1.00269
-0.890722
-0.786626
-0.690092
-0.600817
-0.518506
-0.442902
-0.373741
-0.310869
-0.253966
-0.20318
-0.157557
-0.118801
-0.0823384
-0.0587809
-0.0234688
-0.0360702
0.0389844
-0.123947
-10.2071
-10.2267
-10.2469
-10.2673
-10.2874
-10.3069
-10.3255
-10.3432
-10.3602
-10.3767
-10.3931
-10.4096
-10.4264
-10.4436
-10.4613
-10.4792
-10.497
-10.5143
-10.5305
-10.545
-10.5572
-10.5664
-10.5719
-10.5732
-10.5695
-10.5605
-10.5455
-10.5242
-10.4961
-10.461
-10.4185
-10.3683
-10.3103
-10.2442
-10.1698
-10.0869
-9.99542
-9.89511
-9.78585
-9.66753
-9.54002
-9.40325
-9.25717
-9.10173
-8.93697
-8.76294
-8.57975
-8.38756
-8.18662
-7.97723
-7.75974
-7.53462
-7.30238
-7.06363
-6.81905
-6.56937
-6.31542
-6.05807
-5.79823
-5.53687
-5.27496
-5.01352
-4.75353
-4.49597
-4.24179
-3.99189
-3.74713
-3.50829
-3.27606
-3.05108
-2.83387
-2.62487
-2.42445
-2.23285
-2.05026
-1.87677
-1.71239
-1.55708
-1.41072
-1.27314
-1.14413
-1.02345
-0.910826
-0.80597
-0.708587
-0.618391
-0.535097
-0.458455
-0.38821
-0.324206
-0.266133
-0.214116
-0.167257
-0.127146
-0.0895009
-0.064356
-0.028388
-0.0385952
0.0350999
-0.122313
-10.2006
-10.2191
-10.238
-10.257
-10.2757
-10.294
-10.3116
-10.3285
-10.3447
-10.3605
-10.3761
-10.3916
-10.4072
-10.4229
-10.4388
-10.4546
-10.4701
-10.4848
-10.4982
-10.5099
-10.5192
-10.5256
-10.5283
-10.5269
-10.5207
-10.5093
-10.4922
-10.4689
-10.4391
-10.4024
-10.3585
-10.3073
-10.2483
-10.1814
-10.1064
-10.0231
-9.93135
-9.83097
-9.72182
-9.60379
-9.47676
-9.34067
-9.19546
-9.04111
-8.87765
-8.70514
-8.52369
-8.33347
-8.13472
-7.92774
-7.71289
-7.49061
-7.2614
-7.02586
-6.78465
-6.53847
-6.28813
-6.03446
-5.77836
-5.52074
-5.26255
-5.00477
-4.74834
-4.49422
-4.24333
-3.99653
-3.75466
-3.51847
-3.28866
-3.06583
-2.8505
-2.64313
-2.44405
-2.25354
-2.07177
-1.89887
-1.73484
-1.57967
-1.43325
-1.29544
-1.16603
-1.04482
-0.931534
-0.825914
-0.72768
-0.636557
-0.552272
-0.474586
-0.403249
-0.338106
-0.278855
-0.2256
-0.177503
-0.136031
-0.0972139
-0.0704488
-0.0338813
-0.0414663
0.030588
-0.120011
-10.1935
-10.2109
-10.2286
-10.2463
-10.2639
-10.281
-10.2976
-10.3135
-10.329
-10.3439
-10.3586
-10.373
-10.3874
-10.4017
-10.4158
-10.4296
-10.4428
-10.455
-10.4659
-10.4748
-10.4814
-10.485
-10.4851
-10.4811
-10.4725
-10.4588
-10.4395
-10.4143
-10.3828
-10.3446
-10.2994
-10.247
-10.187
-10.1194
-10.0438
-9.96009
-9.8681
-9.76765
-9.65863
-9.5409
-9.41438
-9.27898
-9.13466
-8.98142
-8.81927
-8.64829
-8.46859
-8.28036
-8.08381
-7.87924
-7.66702
-7.44758
-7.2214
-6.98906
-6.7512
-6.50851
-6.26175
-6.01175
-5.75935
-5.50544
-5.25095
-4.9968
-4.74391
-4.49321
-4.24558
-4.00186
-3.76286
-3.52932
-3.3019
-3.08121
-2.86776
-2.66199
-2.46426
-2.27483
-2.09389
-1.92157
-1.7579
-1.60287
-1.45639
-1.31834
-1.18855
-1.06679
-0.952848
-0.846463
-0.747372
-0.655317
-0.570038
-0.491301
-0.418867
-0.352577
-0.292145
-0.237647
-0.188312
-0.145473
-0.105493
-0.0770771
-0.0399441
-0.0446873
0.0255091
-0.11704
-10.1858
-10.2023
-10.2189
-10.2354
-10.2518
-10.2679
-10.2834
-10.2985
-10.313
-10.327
-10.3407
-10.354
-10.3671
-10.3799
-10.3923
-10.4041
-10.4151
-10.425
-10.4334
-10.4398
-10.4438
-10.4448
-10.4423
-10.4359
-10.4249
-10.409
-10.3877
-10.3607
-10.3274
-10.2877
-10.2412
-10.1877
-10.1268
-10.0584
-9.98221
-9.8981
-9.80588
-9.70539
-9.5965
-9.4791
-9.35308
-9.21839
-9.07499
-8.92286
-8.76205
-8.59261
-8.41468
-8.22843
-8.03409
-7.83195
-7.62236
-7.40574
-7.18257
-6.95342
-6.71889
-6.47966
-6.23646
-5.99009
-5.74136
-5.49113
-5.2403
-4.98974
-4.74036
-4.49304
-4.24864
-4.00797
-3.77181
-3.54088
-3.31584
-3.09728
-2.88569
-2.68152
-2.48512
-2.29676
-2.11664
-1.9449
-1.78158
-1.62669
-1.48015
-1.34186
-1.21166
-1.08937
-0.974762
-0.867607
-0.767657
-0.674665
-0.588385
-0.508593
-0.435056
-0.367616
-0.305999
-0.250256
-0.199682
-0.155474
-0.114334
-0.0842386
-0.0465518
-0.0482485
0.0199373
-0.113419
-10.1777
-10.1932
-10.2087
-10.2243
-10.2396
-10.2546
-10.2691
-10.2832
-10.2968
-10.3098
-10.3225
-10.3346
-10.3464
-10.3577
-10.3684
-10.3783
-10.3873
-10.395
-10.401
-10.405
-10.4065
-10.4051
-10.4002
-10.3913
-10.3781
-10.3601
-10.3369
-10.308
-10.2731
-10.232
-10.1842
-10.1295
-10.0677
-9.99858
-9.92184
-9.83734
-9.74491
-9.64439
-9.53566
-9.4186
-9.29312
-9.15916
-9.01668
-8.86569
-8.70622
-8.53834
-8.36219
-8.17793
-7.9858
-7.78607
-7.5791
-7.36529
-7.14512
-6.91913
-6.6879
-6.4521
-6.21243
-5.96965
-5.72455
-5.47796
-5.23073
-4.98373
-4.73781
-4.49383
-4.25261
-4.01495
-3.7816
-3.55325
-3.33056
-3.11409
-2.90434
-2.70174
-2.50665
-2.31935
-2.14004
-1.96886
-1.80589
-1.65112
-1.50451
-1.36598
-1.23538
-1.11254
-0.997264
-0.889333
-0.788518
-0.694584
-0.607299
-0.526445
-0.451801
-0.383206
-0.3204
-0.26341
-0.211596
-0.166017
-0.123714
-0.0919137
-0.053663
-0.0521303
0.0139582
-0.109186
-10.1691
-10.1837
-10.1983