/*--------------------------------*- C++ -*----------------------------------*\
| =========                 |                                                 |
| \\      /  F ield         | OpenFOAM: The Open Source CFD Toolbox           |
|  \\    /   O peration     | Version:  4.1                                   |
|   \\  /    A nd           | Web:      www.OpenFOAM.org                      |
|    \\/     M anipulation  |                                                 |
\*---------------------------------------------------------------------------*/
FoamFile
{
    version     2.0;
    format      ascii;
    class       surfaceScalarField;
    location    "600";
    object      phi;
}
// * * * * * * * * * * * * * * * * * * * * * * * * * * * * * * * * * * * * * //

dimensions      [0 3 -1 0 0 0 0];

internalField   nonuniform List<scalar> 
13452
(
6.28704e-05
-2.60189e-06
6.37403e-05
-8.69977e-07
6.46286e-05
-8.88283e-07
6.41051e-05
5.23566e-07
6.28898e-05
1.21528e-06
6.15445e-05
1.34522e-06
6.02725e-05
1.27201e-06
5.9114e-05
1.15859e-06
5.80687e-05
1.04526e-06
5.71284e-05
9.40312e-07
5.62816e-05
8.468e-07
5.55162e-05
7.65356e-07
5.48215e-05
6.94753e-07
5.41883e-05
6.33202e-07
5.36091e-05
5.79156e-07
5.30777e-05
5.31418e-07
5.25887e-05
4.89024e-07
5.21375e-05
4.51186e-07
5.17202e-05
4.17257e-07
5.13335e-05
3.86715e-07
5.09744e-05
3.59133e-07
5.06402e-05
3.34161e-07
5.03287e-05
3.11511e-07
5.00378e-05
2.90954e-07
4.97654e-05
2.72313e-07
4.951e-05
2.55469e-07
4.92696e-05
2.40375e-07
4.90426e-05
2.27052e-07
4.88268e-05
2.1578e-07
4.86203e-05
2.06477e-07
4.84196e-05
2.00724e-07
4.8229e-05
1.90617e-07
1.79652e-07
4.80493e-05
6.30682e-05
-3.67971e-06
6.27994e-05
-6.01193e-07
6.21233e-05
-2.12204e-07
6.23359e-05
3.10955e-07
6.27935e-05
7.57652e-07
6.31929e-05
9.45845e-07
6.34611e-05
1.00379e-06
6.36058e-05
1.01392e-06
6.36526e-05
9.98451e-07
6.36273e-05
9.65563e-07
6.35508e-05
9.23332e-07
6.34383e-05
8.77849e-07
6.33009e-05
8.32185e-07
6.31465e-05
7.87633e-07
6.29808e-05
7.44841e-07
6.2808e-05
7.04179e-07
6.26312e-05
6.65802e-07
6.24527e-05
6.29718e-07
6.22741e-05
5.9586e-07
6.20967e-05
5.64135e-07
6.19214e-05
5.34437e-07
6.17489e-05
5.06656e-07
6.15797e-05
4.80692e-07
6.14142e-05
4.56457e-07
6.12526e-05
4.33885e-07
6.10952e-05
4.12941e-07
6.09419e-05
3.93645e-07
6.07929e-05
3.76017e-07
6.06483e-05
3.60356e-07
6.05086e-05
3.46232e-07
6.03738e-05
3.35481e-07
6.02424e-05
3.22084e-07
3.32996e-07
6.0089e-05
6.23306e-05
-2.24887e-06
6.26619e-05
-9.3255e-07
6.281e-05
-3.60286e-07
6.30954e-05
2.55488e-08
6.34246e-05
4.28506e-07
6.37126e-05
6.57835e-07
6.39516e-05
7.64733e-07
6.41451e-05
8.20433e-07
6.42964e-05
8.47195e-07
6.44106e-05
8.51303e-07
6.4494e-05
8.39977e-07
6.4552e-05
8.19826e-07
6.45894e-05
7.94807e-07
6.461e-05
7.67039e-07
6.46169e-05
7.3788e-07
6.46128e-05
7.08296e-07
6.45997e-05
6.78925e-07
6.45793e-05
6.50157e-07
6.45529e-05
6.22235e-07
6.45217e-05
5.95311e-07
6.44867e-05
5.69476e-07
6.44485e-05
5.44784e-07
6.4408e-05
5.21267e-07
6.43655e-05
4.98948e-07
6.43215e-05
4.77855e-07
6.42764e-05
4.5803e-07
6.42305e-05
4.39558e-07
6.4184e-05
4.22523e-07
6.41372e-05
4.07211e-07
6.40899e-05
3.93505e-07
6.40426e-05
3.82781e-07
6.39914e-05
3.73266e-07
3.77943e-07
6.39465e-05
6.47767e-05
-1.44247e-06
6.47349e-05
-8.90751e-07
6.47849e-05
-4.10333e-07
6.48931e-05
-8.26449e-08
6.5057e-05
2.64658e-07
6.52214e-05
4.93346e-07
6.53726e-05
6.13542e-07
6.55095e-05
6.83607e-07
6.56307e-05
7.25996e-07
6.57358e-05
7.46173e-07
6.58257e-05
7.50074e-07
6.59018e-05
7.43677e-07
6.59658e-05
7.30807e-07
6.60192e-05
7.13649e-07
6.60634e-05
6.93692e-07
6.60997e-05
6.72055e-07
6.61291e-05
6.49526e-07
6.61526e-05
6.26644e-07
6.6171e-05
6.03782e-07
6.61851e-05
5.81206e-07
6.61955e-05
5.59107e-07
6.62027e-05
5.37624e-07
6.62071e-05
5.16864e-07
6.62091e-05
4.96912e-07
6.62091e-05
4.77853e-07
6.62074e-05
4.59775e-07
6.62041e-05
4.42796e-07
6.61996e-05
4.27041e-07
6.61941e-05
4.12763e-07
6.61875e-05
4.00061e-07
6.61804e-05
3.8988e-07
6.61717e-05
3.82005e-07
3.82009e-07
6.61676e-05
6.70079e-05
-9.93573e-07
6.68589e-05
-7.41782e-07
6.68315e-05
-3.82866e-07
6.68578e-05
-1.0901e-07
6.69422e-05
1.80287e-07
6.70457e-05
3.898e-07
6.7148e-05
5.11314e-07
6.72451e-05
5.86511e-07
6.73358e-05
6.35288e-07
6.74189e-05
6.63036e-07
6.74941e-05
6.74914e-07
6.75615e-05
6.76201e-07
6.76219e-05
6.70436e-07
6.76758e-05
6.59748e-07
6.77239e-05
6.45629e-07
6.77667e-05
6.29213e-07
6.78049e-05
6.1133e-07
6.7839e-05
5.92569e-07
6.78694e-05
5.73356e-07
6.78966e-05
5.54007e-07
6.7921e-05
5.3476e-07
6.79428e-05
5.15796e-07
6.79624e-05
4.97258e-07
6.798e-05
4.79266e-07
6.7996e-05
4.6193e-07
6.80104e-05
4.45361e-07
6.80235e-05
4.29684e-07
6.80355e-05
4.15036e-07
6.80466e-05
4.01626e-07
6.80571e-05
3.89621e-07
6.80673e-05
3.79606e-07
6.80777e-05
3.71676e-07
3.67835e-07
6.80919e-05
6.90833e-05
-6.92869e-07
6.89333e-05
-5.91803e-07
6.88863e-05
-3.35809e-07
6.88865e-05
-1.09238e-07
6.8934e-05
1.32778e-07
6.90039e-05
3.19953e-07
6.90771e-05
4.38068e-07
6.91489e-05
5.14747e-07
6.9218e-05
5.66149e-07
6.92834e-05
5.97674e-07
6.93443e-05
6.14023e-07
6.94006e-05
6.19853e-07
6.94526e-05
6.18418e-07
6.95006e-05
6.11781e-07
6.95448e-05
6.01411e-07
6.95856e-05
5.88429e-07
6.96233e-05
5.73666e-07
6.96581e-05
5.57726e-07
6.96904e-05
5.41057e-07
6.97204e-05
5.23998e-07
6.97484e-05
5.06806e-07
6.97745e-05
4.89684e-07
6.9799e-05
4.72792e-07
6.9822e-05
4.56265e-07
6.98437e-05
4.40222e-07
6.98642e-05
4.24779e-07
6.98839e-05
4.10054e-07
6.99027e-05
3.96171e-07
6.99211e-05
3.83287e-07
6.99392e-05
3.7154e-07
6.99575e-05
3.61226e-07
6.99769e-05
3.5235e-07
3.45343e-07
6.99994e-05
7.11508e-05
-4.7735e-07
7.10202e-05
-4.61197e-07
7.09675e-05
-2.83111e-07
7.09558e-05
-9.75475e-08
7.09831e-05
1.05516e-07
7.10322e-05
2.70817e-07
7.10875e-05
3.82799e-07
7.11435e-05
4.58709e-07
7.11988e-05
5.10825e-07
7.12523e-05
5.44252e-07
7.1303e-05
5.6329e-07
7.13508e-05
5.72034e-07
7.13958e-05
5.7346e-07
7.1438e-05
5.69552e-07
7.14777e-05
5.6175e-07
7.15149e-05
5.51151e-07
7.155e-05
5.38577e-07
7.15831e-05
5.24636e-07
7.16144e-05
5.09786e-07
7.1644e-05
4.94375e-07
7.16721e-05
4.78674e-07
7.16989e-05
4.62893e-07
7.17245e-05
4.47201e-07
7.17491e-05
4.31737e-07
7.17727e-05
4.16622e-07
7.17955e-05
4.01965e-07
7.18177e-05
3.8787e-07
7.18394e-05
3.74433e-07
7.18609e-05
3.61756e-07
7.18826e-05
3.49913e-07
7.19048e-05
3.38992e-07
7.19283e-05
3.28867e-07
3.19357e-07
7.19543e-05
7.32508e-05
-3.22849e-07
7.31391e-05
-3.49561e-07
7.30844e-05
-2.28389e-07
7.30656e-05
-7.8736e-08
7.30803e-05
9.08504e-08
7.31157e-05
2.35437e-07
7.31589e-05
3.39547e-07
7.32046e-05
4.13008e-07
7.32508e-05
4.646e-07
7.32963e-05
4.9881e-07
7.33401e-05
5.19484e-07
7.33819e-05
5.30197e-07
7.34217e-05
5.3364e-07
7.34596e-05
5.31704e-07
7.34956e-05
5.25783e-07
7.35298e-05
5.16946e-07
7.35623e-05
5.06e-07
7.35934e-05
4.93553e-07
7.36231e-05
4.80066e-07
7.36516e-05
4.65892e-07
7.3679e-05
4.51308e-07
7.37053e-05
4.36527e-07
7.37308e-05
4.21724e-07
7.37555e-05
4.07035e-07
7.37796e-05
3.92579e-07
7.38031e-05
3.78453e-07
7.38262e-05
3.64741e-07
7.38491e-05
3.5151e-07
7.38721e-05
3.38812e-07
7.38953e-05
3.26655e-07
7.39193e-05
3.15e-07
7.39446e-05
3.03639e-07
2.92201e-07
7.39717e-05
7.5393e-05
-2.13411e-07
7.5299e-05
-2.55568e-07
7.5245e-05
-1.74401e-07
7.52219e-05
-5.55969e-08
7.5228e-05
8.47901e-08
7.52534e-05
2.09981e-07
7.52879e-05
3.05119e-07
7.5326e-05
3.74816e-07
7.53657e-05
4.24908e-07
7.54055e-05
4.59071e-07
7.54443e-05
4.80622e-07
7.54819e-05
4.9264e-07
7.5518e-05
4.97533e-07
7.55526e-05
4.97069e-07
7.55858e-05
4.92586e-07
7.56177e-05
4.85113e-07
7.56482e-05
4.75437e-07
7.56776e-05
4.64159e-07
7.57059e-05
4.51739e-07
7.57333e-05
4.38533e-07
7.57598e-05
4.24819e-07
7.57855e-05
4.10812e-07
7.58105e-05
3.96685e-07
7.5835e-05
3.82573e-07
7.5859e-05
3.68587e-07
7.58826e-05
3.54812e-07
7.59061e-05
3.41314e-07
7.59295e-05
3.28133e-07
7.5953e-05
3.15278e-07
7.59769e-05
3.02712e-07
7.60016e-05
2.90328e-07
7.60274e-05
2.77891e-07
2.65012e-07
7.60545e-05
7.75831e-05
-1.36892e-07
7.75059e-05
-1.78411e-07
7.74552e-05
-1.23693e-07
7.74299e-05
-3.02865e-08
7.74298e-05
8.48545e-08
7.74477e-05
1.92097e-07
7.74752e-05
2.77645e-07
7.75074e-05
3.42563e-07
7.7542e-05
3.90335e-07
7.75773e-05
4.23746e-07
7.76124e-05
4.45544e-07
7.76467e-05
4.5833e-07
7.768e-05
4.64227e-07
7.77122e-05
4.64858e-07
7.77433e-05
4.61484e-07
7.77734e-05
4.55086e-07
7.78024e-05
4.46425e-07
7.78304e-05
4.36089e-07
7.78576e-05
4.24532e-07
7.78841e-05
4.12108e-07
7.79098e-05
3.99092e-07
7.79349e-05
3.85701e-07
7.79595e-05
3.72104e-07
7.79836e-05
3.58432e-07
7.80074e-05
3.44787e-07
7.8031e-05
3.31245e-07
7.80545e-05
3.17853e-07
7.8078e-05
3.04631e-07
7.81017e-05
2.91561e-07
7.81258e-05
2.78577e-07
7.81506e-05
2.65547e-07
7.81762e-05
2.52248e-07
2.38336e-07
7.82029e-05
7.98256e-05
-8.41748e-08
7.97641e-05
-1.16862e-07
7.97186e-05
-7.82489e-08
7.9693e-05
-4.71967e-09
7.96888e-05
8.90998e-08
7.97008e-05
1.80049e-07
7.97227e-05
2.55824e-07
7.975e-05
3.15252e-07
7.97803e-05
3.60024e-07
7.9812e-05
3.92071e-07
7.98439e-05
4.13563e-07
7.98756e-05
4.26648e-07
7.99067e-05
4.3316e-07
7.9937e-05
4.34565e-07
7.99664e-05
4.32027e-07
7.9995e-05
4.26472e-07
8.00228e-05
4.18626e-07
8.00499e-05
4.09056e-07
8.00762e-05
3.98206e-07
8.01019e-05
3.86424e-07
8.0127e-05
3.73982e-07
8.01516e-05
3.61093e-07
8.01758e-05
3.4792e-07
8.01996e-05
3.34593e-07
8.02232e-05
3.21204e-07
8.02466e-05
3.07818e-07
8.027e-05
2.94472e-07
8.02935e-05
2.81169e-07
8.03172e-05
2.67878e-07
8.03412e-05
2.54523e-07
8.03658e-05
2.40972e-07
8.0391e-05
2.2703e-07
2.1242e-07
8.04169e-05
8.21247e-05
-4.84476e-08
8.2077e-05
-6.91541e-08
8.20381e-05
-3.93089e-08
8.20139e-05
1.94331e-08
8.20072e-05
9.58011e-08
8.20149e-05
1.72344e-07
8.20322e-05
2.38582e-07
8.20553e-05
2.92116e-07
8.2082e-05
3.33373e-07
8.21105e-05
3.6354e-07
8.21398e-05
3.84242e-07
8.21692e-05
3.97206e-07
8.21984e-05
4.03984e-07
8.22271e-05
4.05872e-07
8.22552e-05
4.0393e-07
8.22827e-05
3.99014e-07
8.23095e-05
3.91809e-07
8.23357e-05
3.82858e-07
8.23613e-05
3.72588e-07
8.23864e-05
3.61337e-07
8.2411e-05
3.4937e-07
8.24352e-05
3.36895e-07
8.2459e-05
3.24071e-07
8.24826e-05
3.1102e-07
8.2506e-05
2.9783e-07
8.25293e-05
2.84557e-07
8.25525e-05
2.71229e-07
8.25758e-05
2.57843e-07
8.25993e-05
2.44362e-07
8.26232e-05
2.30711e-07
8.26474e-05
2.16774e-07
8.2672e-05
2.02393e-07
1.87357e-07
8.26971e-05
8.4484e-05
-2.46509e-08
8.4448e-05
-3.3217e-08
8.44161e-05
-7.36027e-09
8.43946e-05
4.08804e-08
8.4387e-05
1.03432e-07
8.43917e-05
1.6762e-07
8.44054e-05
2.24918e-07
8.44251e-05
2.72463e-07
8.44486e-05
3.09877e-07
8.44743e-05
3.37761e-07
8.45013e-05
3.57265e-07
8.45288e-05
3.69738e-07
8.45563e-05
3.76466e-07
8.45836e-05
3.78571e-07
8.46105e-05
3.77002e-07
8.4637e-05
3.7254e-07
8.4663e-05
3.65822e-07
8.46885e-05
3.57358e-07
8.47135e-05
3.47557e-07
8.47381e-05
3.36743e-07
8.47623e-05
3.25171e-07
8.47862e-05
3.13041e-07
8.48097e-05
3.00508e-07
8.48331e-05
2.87687e-07
8.48562e-05
2.7466e-07
8.48793e-05
2.61479e-07
8.49024e-05
2.48166e-07
8.49255e-05
2.34717e-07
8.49488e-05
2.21096e-07
8.49722e-05
2.07238e-07
8.4996e-05
1.93049e-07
8.50199e-05
1.78408e-07
1.63161e-07
8.50441e-05
8.69066e-05
-9.08933e-09
8.68803e-05
-6.92712e-09
8.68552e-05
1.77455e-08
8.68373e-05
5.88048e-08
8.683e-05
1.10742e-07
8.68329e-05
1.64647e-07
8.6844e-05
2.13879e-07
8.68608e-05
2.55614e-07
8.68817e-05
2.89051e-07
8.6905e-05
3.14378e-07
8.69299e-05
3.32364e-07
8.69556e-05
3.44034e-07
8.69817e-05
3.50432e-07
8.70077e-05
3.52514e-07
8.70336e-05
3.51114e-07
8.70592e-05
3.46936e-07
8.70845e-05
3.40562e-07
8.71094e-05
3.32467e-07
8.71339e-05
3.23035e-07
8.71581e-05
3.12574e-07
8.71819e-05
3.01329e-07
8.72055e-05
2.89488e-07
8.72288e-05
2.77202e-07
8.72519e-05
2.64578e-07
8.72748e-05
2.51694e-07
8.72977e-05
2.386e-07
8.73206e-05
2.25316e-07
8.73435e-05
2.11839e-07
8.73664e-05
1.9814e-07
8.73895e-05
1.84167e-07
8.74127e-05
1.6985e-07
8.7436e-05
1.55101e-07
1.39814e-07
8.74593e-05
8.93956e-05
8.76711e-10
8.93769e-05
1.171e-08
8.93581e-05
3.66065e-08
8.9344e-05
7.28603e-08
8.93379e-05
1.16823e-07
8.93402e-05
1.62389e-07
8.93495e-05
2.0458e-07
8.93642e-05
2.40901e-07
8.93828e-05
2.70408e-07
8.94042e-05
2.93038e-07
8.94273e-05
3.09281e-07
8.94514e-05
3.199e-07
8.94761e-05
3.25733e-07
8.9501e-05
3.27582e-07
8.9526e-05
3.26168e-07
8.95508e-05
3.22117e-07
8.95754e-05
3.15955e-07
8.95998e-05
3.08121e-07
8.96238e-05
2.98969e-07
8.96476e-05
2.88789e-07
8.96711e-05
2.7781e-07
8.96944e-05
2.66213e-07
8.97175e-05
2.54139e-07
8.97403e-05
2.41691e-07
8.97631e-05
2.28944e-07
8.97858e-05
2.15943e-07
8.98084e-05
2.02712e-07
8.98309e-05
1.8925e-07
8.98536e-05
1.75538e-07
8.98762e-05
1.61539e-07
8.98988e-05
1.47204e-07
8.99215e-05
1.32475e-07
1.17282e-07
8.9944e-05
9.19536e-05
7.0934e-09
9.19409e-05
2.44497e-08
9.19274e-05
5.0077e-08
9.19172e-05
8.30979e-08
9.19129e-05
1.21127e-07
9.19152e-05
1.60055e-07
9.19235e-05
1.9626e-07
9.19367e-05
2.27699e-07
9.19537e-05
2.53466e-07
9.19733e-05
2.73384e-07
9.19949e-05
2.87755e-07
9.20176e-05
2.97147e-07
9.20411e-05
3.02228e-07
9.2065e-05
3.03664e-07
9.20891e-05
3.02077e-07
9.21132e-05
2.98015e-07
9.21372e-05
2.91949e-07
9.21611e-05
2.84276e-07
9.21847e-05
2.75324e-07
9.22082e-05
2.65359e-07
9.22314e-05
2.54596e-07
9.22544e-05
2.43205e-07
9.22772e-05
2.31319e-07
9.22999e-05
2.19035e-07
9.23224e-05
2.06424e-07
9.23448e-05
1.93532e-07
9.23671e-05
1.80384e-07
9.23894e-05
1.66985e-07
9.24116e-05
1.53325e-07
9.24338e-05
1.39382e-07
9.24558e-05
1.25126e-07
9.24778e-05
1.10521e-07
9.55279e-08
9.24995e-05
9.45834e-05
1.08287e-08
9.45751e-05
3.27621e-08
9.45661e-05
5.91051e-08
9.45593e-05
8.98516e-08
9.4557e-05
1.23438e-07
9.456e-05
1.57117e-07
9.45679e-05
1.8832e-07
9.45801e-05
2.15465e-07
9.45958e-05
2.3778e-07
9.46141e-05
2.55067e-07
9.46344e-05
2.67523e-07
9.46559e-05
2.75579e-07
9.46784e-05
2.79772e-07
9.47014e-05
2.80656e-07
9.47247e-05
2.78763e-07
9.47482e-05
2.7457e-07
9.47716e-05
2.68497e-07
9.4795e-05
2.609e-07
9.48182e-05
2.52076e-07
9.48413e-05
2.4227e-07
9.48642e-05
2.3168e-07
9.4887e-05
2.20466e-07
9.49095e-05
2.08749e-07
9.4932e-05
1.96623e-07
9.49542e-05
1.84157e-07
9.49764e-05
1.71394e-07
9.49984e-05
1.58364e-07
9.50203e-05
1.45076e-07
9.50421e-05
1.3153e-07
9.50637e-05
1.17717e-07
9.50853e-05
1.03622e-07
9.51065e-05
8.92299e-08
7.45196e-08
9.51276e-05
9.72874e-05
1.29419e-08
9.72823e-05
3.78342e-08
9.72768e-05
6.46226e-08
9.7273e-05
9.36268e-08
9.72727e-05
1.23801e-07
9.72765e-05
1.53308e-07
9.72844e-05
1.80357e-07
9.72961e-05
2.03777e-07
9.73109e-05
2.22971e-07
9.73282e-05
2.37775e-07
9.73474e-05
2.4834e-07
9.7368e-05
2.5501e-07
9.73895e-05
2.58226e-07
9.74117e-05
2.58455e-07
9.74344e-05
2.5615e-07
9.74572e-05
2.5173e-07
9.74801e-05
2.45563e-07
9.75031e-05
2.37966e-07
9.75259e-05
2.2921e-07
9.75487e-05
2.19515e-07
9.75713e-05
2.09063e-07
9.75938e-05
1.98001e-07
9.76161e-05
1.86443e-07
9.76382e-05
1.74476e-07
9.76602e-05
1.62165e-07
9.7682e-05
1.49556e-07
9.77037e-05
1.36679e-07
9.77253e-05
1.2355e-07
9.77466e-05
1.10177e-07
9.77678e-05
9.65601e-08
9.77887e-05
8.2698e-08
9.78093e-05
6.85889e-08
5.42274e-08
9.78296e-05
0.000100068
1.40096e-08
0.000100065
4.05997e-08
0.000100062
6.74802e-08
0.000100061
9.5006e-08
0.000100062
1.22452e-07
0.000100067
1.48579e-07
0.000100075
1.72157e-07
0.000100087
1.92357e-07
0.000100101
2.08755e-07
0.000100117
2.21254e-07
0.000100136
2.29996e-07
0.000100156
2.35274e-07
0.000100176
2.37464e-07
0.000100198
2.36965e-07
0.00010022
2.34171e-07
0.000100242
2.29446e-07
0.000100264
2.23113e-07
0.000100287
2.15457e-07
0.000100309
2.06717e-07
0.000100332
1.97093e-07
0.000100354
1.86751e-07
0.000100376
1.75825e-07
0.000100398
1.64418e-07
0.00010042
1.52615e-07
0.000100442
1.40476e-07
0.000100463
1.28046e-07
0.000100485
1.15358e-07
0.000100506
1.02433e-07
0.000100527
8.92847e-08
0.000100547
7.59223e-08
0.000100568
6.23537e-08
0.000100588
4.85868e-08
3.46272e-08
0.000100607
0.000102928
1.44195e-08
0.000102926
4.17831e-08
0.000102926
6.84231e-08
0.000102926
9.45869e-08
0.000102929
1.19744e-07
0.000102934
1.43051e-07
0.000102943
1.63679e-07
0.000102954
1.81072e-07
0.000102968
1.94965e-07
0.000102984
2.05335e-07
0.000103001
2.12338e-07
0.00010302
2.16245e-07
0.00010304
2.17387e-07
0.000103061
2.16115e-07
0.000103083
2.12774e-07
0.000103104
2.07683e-07
0.000103126
2.01129e-07
0.000103149
1.93362e-07
0.000103171
1.84597e-07
0.000103193
1.75012e-07
0.000103215
1.64758e-07
0.000103237
1.53954e-07
0.000103258
1.42697e-07
0.00010328
1.31064e-07
0.000103301
1.19114e-07
0.000103322
1.0689e-07
0.000103343
9.44254e-08
0.000103364
8.17458e-08
0.000103384
6.88696e-08
0.000103405
5.58122e-08
0.000103424
4.25882e-08
0.000103444
2.92124e-08
1.56972e-08
0.000103463
0.000105869
1.44343e-08
0.000105869
4.19461e-08
0.000105869
6.80912e-08
0.000105871
9.29465e-08
0.000105874
1.16099e-07
0.00010588
1.36972e-07
0.000105889
1.55028e-07
0.0001059
1.6993e-07
0.000105913
1.81551e-07
0.000105929
1.89943e-07
0.000105946
1.95289e-07
0.000105964
1.97852e-07
0.000105984
1.97938e-07
0.000106004
1.95862e-07
0.000106025
1.91931e-07
0.000106046
1.86427e-07
0.000106068
1.79604e-07
0.000106089
1.71685e-07
0.000106111
1.62859e-07
0.000106133
1.53287e-07
0.000106154
1.43101e-07
0.000106176
1.32411e-07
0.000106197
1.21303e-07
0.000106219
1.0985e-07
0.00010624
9.8104e-08
0.00010626
8.61102e-08
0.000106281
7.39014e-08
0.000106301
6.15048e-08
0.000106321
4.89419e-08
0.000106341
3.62331e-08
0.00010636
2.33966e-08
0.000106379
1.04525e-08
-2.58378e-09
0.000106397
0.000108894
1.42397e-08
0.000108894
4.15343e-08
0.000108895
6.7038e-08
0.000108897
9.06328e-08
0.000108902
1.11974e-07
0.000108908
1.30677e-07
0.000108916
1.46425e-07
0.000108927
1.59059e-07
0.00010894
1.68577e-07
0.000108955
1.75103e-07
0.000108972
1.78853e-07
0.000108989
1.80093e-07
0.000109008
1.79114e-07
0.000109028
1.76206e-07
0.000109048
1.71645e-07
0.000109069
1.65686e-07
0.00010909
1.58553e-07
0.000109111
1.50443e-07
0.000109132
1.41524e-07
0.000109154
1.31939e-07
0.000109175
1.21805e-07
0.000109196
1.11219e-07
0.000109217
1.0026e-07
0.000109238
8.89929e-08
0.000109259
7.74679e-08
0.000109279
6.57259e-08
0.000109299
5.38003e-08
0.000109319
4.17185e-08
0.000109338
2.95048e-08
0.000109358
1.71808e-08
0.000109376
4.76834e-09
0.000109394
-7.71158e-09
-2.02408e-08
0.000109412
0.000112005
1.3975e-08
0.000112005
4.09187e-08
0.000112007
6.57602e-08
0.000112009
8.81742e-08
0.000112013
1.07857e-07
0.000112019
1.24573e-07
0.000112028
1.38188e-07
0.000112038
1.48699e-07
0.00011205
1.56217e-07
0.000112064
1.60941e-07
0.00011208
1.63121e-07
0.000112097
1.63037e-07
0.000112115
1.60969e-07
0.000112134
1.57193e-07
0.000112154
1.5196e-07
0.000112174
1.45499e-07
0.000112195
1.38011e-07
0.000112216
1.2967e-07
0.000112236
1.20623e-07
0.000112257
1.10997e-07
0.000112278
1.00895e-07
0.000112299
9.0402e-08
0.00011232
7.95886e-08
0.00011234
6.85118e-08
0.000112361
5.72179e-08
0.000112381
4.57451e-08
0.0001124
3.4125e-08
0.00011242
2.23849e-08
0.000112439
1.05491e-08
0.000112457
-1.3597e-09
0.000112475
-1.33194e-08
0.000112493
-2.53081e-08
-3.73074e-08
0.00011251
0.000115205
1.37588e-08
0.000115205
4.04385e-08
0.000115206
6.47372e-08
0.000115208
8.6108e-08
0.000115212
1.04275e-07
0.000115217
1.19138e-07
0.000115225
1.30726e-07
0.000115234
1.39187e-07
0.000115246
1.44746e-07
0.000115259
1.47676e-07
0.000115274
1.48271e-07
0.00011529
1.46826e-07
0.000115307
1.43621e-07
0.000115326
1.38919e-07
0.000115345
1.32953e-07
0.000115364
1.25931e-07
0.000115384
1.18032e-07
0.000115404
1.0941e-07
0.000115425
1.00193e-07
0.000115445
9.04914e-08
0.000115466
8.03943e-08
0.000115486
6.99763e-08
0.000115507
5.9298e-08
0.000115527
4.84097e-08
0.000115547
3.7352e-08
0.000115566
2.61597e-08
0.000115585
1.48614e-08
0.000115604
3.4832e-09
0.000115623
-7.95209e-09
0.000115641
-1.9422e-08
0.000115659
-3.09057e-08
0.000115676
-4.23815e-08
-5.38327e-08
0.000115692
0.000118496
1.37078e-08
0.000118496
4.04439e-08
0.000118496
6.44809e-08
0.000118497
8.50246e-08
0.0001185
1.0183e-07
0.000118504
1.14938e-07
0.00011851
1.24548e-07
0.000118518
1.30965e-07
0.000118529
1.34537e-07
0.000118541
1.3562e-07
0.000118554
1.34558e-07
0.000118569
1.31668e-07
0.000118586
1.27237e-07
0.000118603
1.21518e-07
0.000118621
1.14731e-07
0.00011864
1.07065e-07
0.00011866
9.86784e-08
0.000118679
8.9707e-08
0.000118699
8.02626e-08
0.000118719
7.04375e-08
0.000118739
6.03085e-08
0.000118759
4.99373e-08
0.000118779
3.9376e-08
0.000118799
2.86657e-08
0.000118819
1.78423e-08
0.000118838
6.93427e-09
0.000118857
-4.03211e-09
0.000118875
-1.5035e-08
0.000118893
-2.60528e-08
0.000118911
-3.70662e-08
0.000118928
-4.8055e-08
0.000118945
-5.9001e-08
-6.98882e-08
0.000118961
0.000121881
1.396e-08
0.00012188
4.13519e-08
0.000121879
6.56046e-08
0.000121878
8.56348e-08
0.000121879
1.01252e-07
0.000121881
1.1267e-07
0.000121886
1.20288e-07
0.000121892
1.24589e-07
0.0001219
1.26065e-07
0.000121911
1.25169e-07
0.000121923
1.22305e-07
0.000121937
1.17823e-07
0.000121952
1.12019e-07
0.000121969
1.05143e-07
0.000121986
9.74041e-08
0.000122004
8.89744e-08
0.000122023
7.99956e-08
0.000122042
7.05837e-08
0.000122061
6.0833e-08
0.000122081
5.08201e-08
0.0001221
4.06065e-08
0.00012212
3.02428e-08
0.00012214
1.97689e-08
0.000122159
9.21841e-09
0.000122178
-1.38154e-09
0.000122197
-1.20072e-08
0.000122216
-2.26388e-08
0.000122234
-3.32575e-08
0.000122252
-4.38465e-08
0.000122269
-5.43887e-08
0.000122286
-6.48683e-08
0.000122302
-7.52689e-08
-8.55783e-08
0.000122318
0.000125363
1.47023e-08
0.00012536
4.37241e-08
0.000125357
6.89219e-08
0.000125354
8.88671e-08
0.000125352
1.03484e-07
0.000125351
1.13227e-07
0.000125353
1.18746e-07
0.000125356
1.20751e-07
0.000125363
1.19908e-07
0.000125371
1.16792e-07
0.000125381
1.11881e-07
0.000125394
1.05567e-07
0.000125407
9.81658e-08
0.000125423
8.99273e-08
0.000125439
8.10509e-08
0.000125456
7.16938e-08
0.000125474
6.19793e-08
0.000125493
5.20044e-08
0.000125512
4.18447e-08
0.000125531
3.15591e-08
0.000125551
2.11938e-08
0.00012557
1.07845e-08
0.000125589
3.59696e-10
0.000125609
-1.00581e-08
0.000125628
-2.04505e-08
0.000125647
-3.08019e-08
0.000125665
-4.10988e-08
0.000125683
-5.13283e-08
0.000125701
-6.14785e-08
0.000125718
-7.15374e-08
0.000125735
-8.14929e-08
0.000125751
-9.13331e-08
-1.01049e-07
0.000125766
0.000128944
1.62221e-08
0.000128939
4.83934e-08
0.000128932
7.56005e-08
0.000128925
9.60134e-08
0.000128919
1.098e-07
0.000128914
1.17774e-07
0.000128912
1.20932e-07
0.000128913
1.20287e-07
0.000128916
1.16731e-07
0.000128921
1.10993e-07
0.00012893
1.03648e-07
0.00012894
9.51429e-08
0.000128952
8.58171e-08
0.000128966
7.59255e-08
0.000128982
6.56582e-08
0.000128998
5.51553e-08
0.000129016
4.45203e-08
0.000129034
3.38277e-08
0.000129053
2.3132e-08
0.000129072
1.24712e-08
0.000129091
1.87346e-09
0.000129111
-8.64271e-09
0.00012913
-1.90632e-08
0.000129149
-2.93789e-08
0.000129168
-3.95821e-08
0.000129187
-4.96674e-08
0.000129206
-5.96294e-08
0.000129224
-6.94632e-08
0.000129242
-7.9163e-08
0.000129259
-8.87232e-08
0.000129276
-9.81369e-08
0.000129292
-1.07397e-07
-1.165e-07
0.000129307
0.000132626
1.89968e-08
0.000132618
5.66836e-08
0.000132606
8.74082e-08
0.000132593
1.08943e-07
0.000132581
1.21963e-07
0.000132571
1.27845e-07
0.000132564
1.28098e-07
0.00013256
1.24161e-07
0.000132559
1.17231e-07
0.000132562
1.08234e-07
0.000132568
9.7871e-08
0.000132577
8.6654e-08
0.000132587
7.49508e-08
0.0001326
6.30184e-08
0.000132615
5.1033e-08
0.000132631
3.91128e-08
0.000132648
2.73335e-08
0.000132666
1.57429e-08
0.000132685
4.36684e-09
0.000132704
-6.78057e-09
0.000132724
-1.76961e-08
0.000132744
-2.83805e-08
0.000132763
-3.88393e-08
0.000132783
-4.90783e-08
0.000132803
-5.9105e-08
0.000132822
-6.89252e-08
0.000132841
-7.8545e-08
0.000132859
-8.79681e-08
0.000132877
-9.71979e-08
0.000132895
-1.06235e-07
0.000132912
-1.15081e-07
0.000132928
-1.23733e-07
-1.32194e-07
0.000132944
0.000136413
2.38815e-08
0.000136399
7.08071e-08
0.00013638
1.07113e-07
0.000136358
1.30412e-07
0.000136338
1.42412e-07
0.00013632
1.45412e-07
0.000136306
1.41708e-07
0.000136297
1.33365e-07
0.000136293
1.21995e-07
0.000136292
1.08776e-07
0.000136295
9.45543e-08
0.000136302
7.99137e-08
0.000136312
6.52415e-08
0.000136324
5.07844e-08
0.000136338
3.66902e-08
0.000136354
2.30409e-08
0.000136372
9.87315e-09
0.00013639
-2.80488e-09
0.00013641
-1.50032e-08
0.00013643
-2.67422e-08
0.00013645
-3.80477e-08
0.000136471
-4.89477e-08
0.000136491
-5.947e-08
0.000136512
-6.96413e-08
0.000136532
-7.94855e-08
0.000136552
-8.90245e-08
0.000136572
-9.82766e-08
0.000136591
-1.07258e-07
0.00013661
-1.1598e-07
0.000136628
-1.24455e-07
0.000136646
-1.3269e-07
0.000136663
-1.40691e-07
-1.48466e-07
0.000136679
0.000140307
3.24952e-08
0.000140283
9.45989e-08
0.000140251
1.39121e-07
0.000140217
1.64465e-07
0.000140185
1.74426e-07
0.000140158
1.72835e-07
0.000140136
1.63248e-07
0.000140121
1.48657e-07
0.000140112
1.31216e-07
0.000140108
1.12396e-07
0.00014011
9.31866e-08
0.000140115
7.42192e-08
0.000140125
5.58693e-08
0.000140137
3.8338e-08
0.000140152
2.17169e-08
0.000140169
6.02434e-09
0.000140188
-8.76207e-09
0.000140208
-2.26915e-08
0.000140228
-3.58233e-08
0.00014025
-4.82232e-08
0.000140272
-5.9955e-08
0.000140294
-7.10808e-08
0.000140316
-8.16564e-08
0.000140338
-9.17335e-08
0.00014036
-1.01357e-07
0.000140382
-1.10566e-07
0.000140403
-1.19396e-07
0.000140423
-1.27875e-07
0.000140443
-1.36027e-07
0.000140463
-1.43874e-07
0.000140482
-1.51432e-07
0.0001405
-1.58716e-07
-1.65738e-07
0.000140517
0.000144309
4.80878e-08
0.000144269
1.34867e-07
0.000144217
1.9043e-07
0.000144165
2.1687e-07
0.000144117
2.221e-07
0.000144078
2.12523e-07
0.000144047
1.93733e-07
0.000144026
1.70037e-07
0.000144013
1.4421e-07
0.000144007
1.17975e-07
0.000144008
9.23954e-08
0.000144014
6.80735e-08
0.000144025
4.52946e-08
0.000144039
2.41521e-08
0.000144056
4.62717e-09
0.000144075
-1.33611e-08
0.000144097
-2.99274e-08
0.000144119
-4.51981e-08
0.000144143
-5.93019e-08
0.000144167
-7.23605e-08
0.000144191
-8.44876e-08
0.000144216
-9.5785e-08
0.000144241
-1.06344e-07
0.000144265
-1.16245e-07
0.000144289
-1.25557e-07
0.000144313
-1.34341e-07
0.000144336
-1.42648e-07
0.000144359
-1.50523e-07
0.000144381
-1.58004e-07
0.000144402
-1.65122e-07
0.000144423
-1.71903e-07
0.000144442
-1.78371e-07
-1.84548e-07
0.000144461
0.000148418
7.75954e-08
0.000148349
2.03822e-07
0.000148268
2.71837e-07
0.00014819
2.95253e-07
0.000148122
2.89778e-07
0.000148069
2.66014e-07
0.00014803
2.32735e-07
0.000148004
1.95898e-07
0.000147989
1.58727e-07
0.000147984
1.2296e-07
0.000147987
8.95411e-08
0.000147996
5.88723e-08
0.000148011
3.10159e-08
0.000148029
5.8574e-09
0.00014805
-1.68012e-08
0.000148074
-3.71925e-08
0.0001481
-5.55574e-08
0.000148127
-7.21273e-08
0.000148154
-8.71166e-08
0.000148183
-1.00718e-07
0.000148211
-1.13104e-07
0.00014824
-1.24423e-07
0.000148269
-1.34806e-07
0.000148297
-1.44367e-07
0.000148324
-1.53203e-07
0.000148351
-1.61397e-07
0.000148378
-1.69019e-07
0.000148403
-1.76131e-07
0.000148428
-1.82784e-07
0.000148452
-1.89021e-07
0.000148475
-1.9488e-07
0.000148497
-2.00392e-07
-2.05586e-07
0.000148518
0.000152631
1.36093e-07
0.000152511
3.23585e-07
0.000152383
3.99229e-07
0.00015227
4.08246e-07
0.00015218
3.80264e-07
0.000152114
3.32046e-07
0.00015207
2.7678e-07
0.000152044
2.21837e-07
0.000152033
1.70105e-07
0.000152033
1.22755e-07
0.000152042
8.02497e-08
0.000152058
4.25299e-08
0.00015208
9.24828e-09
0.000152106
-2.0042e-08
0.000152135
-4.57964e-08
0.000152166
-6.84522e-08
0.000152199
-8.84116e-08
0.000152233
-1.06036e-07
0.000152268
-1.21641e-07
0.000152302
-1.35503e-07
0.000152337
-1.47858e-07
0.000152372
-1.58911e-07
0.000152406
-1.68834e-07
0.000152439
-1.77777e-07
0.000152472
-1.85865e-07
0.000152504
-1.93206e-07
0.000152534
-1.99891e-07
0.000152564
-2.05996e-07
0.000152593
-2.11588e-07
0.000152621
-2.16722e-07
0.000152647
-2.21444e-07
0.000152673
-2.25797e-07
-2.29814e-07
0.000152697
0.000156933
2.54128e-07
0.000156722
5.34895e-07
0.000156526
5.95124e-07
0.000156371
5.63188e-07
0.00015626
4.91334e-07
0.000156189
4.03368e-07
0.000156149
3.16996e-07
0.000156132
2.39002e-07
0.000156132
1.70011e-07
0.000156145
1.09673e-07
0.000156167
5.74969e-08
0.000156197
1.26435e-08
0.000156232
-2.58598e-08
0.000156271
-5.89107e-08
0.000156313
-8.72935e-08
0.000156356
-1.1169e-07
0.0001564
-1.32696e-07
0.000156445
-1.50818e-07
0.00015649
-1.66489e-07
0.000156535
-1.80071e-07
0.000156579
-1.91875e-07
0.000156622
-2.02158e-07
0.000156664
-2.1114e-07
0.000156705
-2.19004e-07
0.000156745
-2.25908e-07
0.000156784
-2.3198e-07
0.000156822
-2.37332e-07
0.000156858
-2.42057e-07
0.000156892
-2.46234e-07
0.000156925
-2.4993e-07
0.000156957
-2.53202e-07
0.000156988
-2.56098e-07
-2.58665e-07
0.000157016
0.00016129
5.02252e-07
0.000160918
9.06961e-07
0.00016063
8.83602e-07
0.000160432
7.60777e-07
0.000160312
6.1109e-07
0.000160253
4.62939e-07
0.000160234
3.36317e-07
0.000160241
2.31743e-07
0.000160267
1.44107e-07
0.000160306
7.04821e-08
0.000160354
9.06557e-09
0.000160409
-4.20786e-08
0.000160468
-8.47548e-08
0.000160529
-1.20423e-07
0.000160592
-1.50246e-07
0.000160656
-1.75193e-07
0.000160719
-1.96073e-07
0.000160782
-2.1356e-07
0.000160844
-2.28209e-07
0.000160904
-2.40479e-07
0.000160963
-2.50751e-07
0.00016102
-2.59341e-07
0.000161076
-2.66513e-07
0.000161129
-2.72484e-07
0.000161181
-2.77437e-07
0.00016123
-2.81523e-07
0.000161278
-2.84869e-07
0.000161323
-2.87581e-07
0.000161367
-2.89746e-07
0.000161408
-2.91441e-07
0.000161448
-2.92724e-07
0.000161485
-2.93647e-07
-2.94258e-07
0.000161521
0.000165509
1.14675e-06
0.000164895
1.52074e-06
0.000164546
1.23312e-06
0.000164348
9.58424e-07
0.000164265
6.94145e-07
0.000164259
4.69469e-07
0.000164294
3.0059e-07
0.000164355
1.70951e-07
0.000164433
6.63307e-08
0.000164522
-1.87031e-08
0.000164618
-8.72391e-08
0.000164719
-1.42406e-07
0.000164821
-1.86911e-07
0.000164923
-2.22803e-07
0.000165025
-2.51658e-07
0.000165124
-2.74769e-07
0.000165221
-2.93201e-07
0.000165316
-3.07818e-07
0.000165407
-3.19317e-07
0.000165494
-3.2826e-07
0.000165579
-3.35105e-07
0.00016566
-3.40226e-07
0.000165737
-3.43927e-07
0.000165811
-3.46455e-07
0.000165882
-3.48014e-07
0.000165949
-3.48772e-07
0.000166013
-3.48866e-07
0.000166074