/*--------------------------------*- C++ -*----------------------------------*\
| =========                 |                                                 |
| \\      /  F ield         | OpenFOAM: The Open Source CFD Toolbox           |
|  \\    /   O peration     | Version:  4.1                                   |
|   \\  /    A nd           | Web:      www.OpenFOAM.org                      |
|    \\/     M anipulation  |                                                 |
\*---------------------------------------------------------------------------*/
FoamFile
{
    version     2.0;
    format      ascii;
    class       volVectorField;
    location    "600";
    object      U;
}
// * * * * * * * * * * * * * * * * * * * * * * * * * * * * * * * * * * * * * //

dimensions      [0 1 -1 0 0 0 0];

internalField   nonuniform List<vector> 
6820
(
(7.12051 -2.89958 0)
(7.72183 -2.2784 0)
(7.93531 -1.28315 0)
(7.87961 -0.658566 0)
(7.73232 -0.320701 0)
(7.56973 -0.148362 0)
(7.41012 -0.0616844 0)
(7.26103 -0.0176572 0)
(7.12628 0.00481311 0)
(7.00568 0.0160258 0)
(6.89737 0.0212384 0)
(6.79958 0.0232357 0)
(6.71097 0.0235125 0)
(6.63037 0.0228797 0)
(6.55679 0.0217868 0)
(6.48936 0.0204876 0)
(6.4274 0.0191255 0)
(6.3703 0.0177797 0)
(6.31754 0.0164922 0)
(6.2687 0.0152841 0)
(6.22339 0.0141638 0)
(6.18126 0.0131333 0)
(6.14202 0.0121908 0)
(6.1054 0.0113328 0)
(6.07116 0.0105562 0)
(6.03907 0.00985886 0)
(6.00892 0.00924223 0)
(5.98047 0.00870966 0)
(5.95353 0.00828639 0)
(5.92766 0.007963 0)
(5.90295 0.00790872 0)
(5.8769 0.00799689 0)
(5.85669 0.00696545 0)
(7.59884 0.654127 0)
(7.43304 0.77761 0)
(7.36112 0.527756 0)
(7.34933 0.342769 0)
(7.39535 0.234374 0)
(7.45299 0.166654 0)
(7.49513 0.123346 0)
(7.51886 0.0959952 0)
(7.52909 0.0783839 0)
(7.52978 0.0664985 0)
(7.52339 0.0581214 0)
(7.51187 0.0520205 0)
(7.49682 0.047433 0)
(7.47936 0.0438602 0)
(7.4603 0.0409811 0)
(7.44018 0.0385912 0)
(7.41943 0.0365566 0)
(7.39835 0.0347866 0)
(7.37718 0.0332191 0)
(7.35609 0.0318112 0)
(7.33519 0.0305328 0)
(7.3146 0.0293627 0)
(7.29436 0.0282861 0)
(7.27455 0.027293 0)
(7.25518 0.026378 0)
(7.23629 0.02554 0)
(7.21788 0.0247842 0)
(7.19996 0.0241213 0)
(7.18255 0.023587 0)
(7.16555 0.0231937 0)
(7.14936 0.0231871 0)
(7.13297 0.0232069 0)
(7.1202 0.025963 0)
(7.25567 -0.0497306 0)
(7.16457 -0.0746216 0)
(7.20132 -0.0871776 0)
(7.24037 -0.0571871 0)
(7.27477 -0.0216435 0)
(7.31088 0.00195908 0)
(7.34256 0.016624 0)
(7.36741 0.0264404 0)
(7.38684 0.0329433 0)
(7.40194 0.036913 0)
(7.41321 0.0391167 0)
(7.42121 0.0401858 0)
(7.42657 0.040527 0)
(7.42981 0.040388 0)
(7.43132 0.0399335 0)
(7.43142 0.0392789 0)
(7.43038 0.0385026 0)
(7.4284 0.0376563 0)
(7.42567 0.0367748 0)
(7.42233 0.0358821 0)
(7.4185 0.0349946 0)
(7.41427 0.0341239 0)
(7.40972 0.0332789 0)
(7.40492 0.0324665 0)
(7.39993 0.0316939 0)
(7.39478 0.0309693 0)
(7.38953 0.0303053 0)
(7.38418 0.0297167 0)
(7.37878 0.0292426 0)
(7.37331 0.0288977 0)
(7.36792 0.0288661 0)
(7.36237 0.0289931 0)
(7.35775 0.0304249 0)
(7.29108 -0.0915081 0)
(7.22275 -0.063933 0)
(7.23474 -0.0294732 0)
(7.25082 -0.00392938 0)
(7.2644 0.0156007 0)
(7.28272 0.026992 0)
(7.30139 0.0329062 0)
(7.31764 0.0363607 0)
(7.3319 0.0384823 0)
(7.34452 0.0396039 0)
(7.35544 0.0400312 0)
(7.3647 0.0400402 0)
(7.37248 0.0397948 0)
(7.37901 0.0393798 0)
(7.38443 0.03885 0)
(7.3889 0.0382465 0)
(7.39254 0.037598 0)
(7.39547 0.0369236 0)
(7.39779 0.0362364 0)
(7.3996 0.0355464 0)
(7.40095 0.034861 0)
(7.40191 0.0341865 0)
(7.40254 0.0335284 0)
(7.40288 0.0328924 0)
(7.40298 0.0322852 0)
(7.40287 0.0317156 0)
(7.40257 0.0311965 0)
(7.40212 0.0307446 0)
(7.40155 0.0303936 0)
(7.40086 0.0301683 0)
(7.40017 0.0301824 0)
(7.39945 0.0303752 0)
(7.39915 0.0312323 0)
(7.31214 -0.0522566 0)
(7.26645 -0.0334737 0)
(7.26326 -0.0148425 0)
(7.26623 -0.00265 0)
(7.27139 0.0101295 0)
(7.28196 0.0195657 0)
(7.29393 0.0252583 0)
(7.3049 0.0290459 0)
(7.31503 0.0317834 0)
(7.32449 0.033647 0)
(7.33313 0.0348182 0)
(7.34087 0.0355106 0)
(7.3478 0.0358699 0)
(7.354 0.0359817 0)
(7.35952 0.0359073 0)
(7.36445 0.0356958 0)
(7.36884 0.0353843 0)
(7.37275 0.0349998 0)
(7.37625 0.0345629 0)
(7.37937 0.0340894 0)
(7.38216 0.033592 0)
(7.38466 0.0330813 0)
(7.3869 0.0325663 0)
(7.38891 0.0320558 0)
(7.39073 0.031559 0)
(7.39237 0.0310863 0)
(7.39385 0.0306514 0)
(7.39521 0.030271 0)
(7.39647 0.0299718 0)
(7.39766 0.0297773 0)
(7.39885 0.0297489 0)
(7.4001 0.0298661 0)
(7.40164 0.0303026 0)
(7.32016 -0.0320515 0)
(7.28758 -0.0252464 0)
(7.28069 -0.014097 0)
(7.27975 -0.00455781 0)
(7.28192 0.00650068 0)
(7.28854 0.0153369 0)
(7.29664 0.0211157 0)
(7.30442 0.0251327 0)
(7.31183 0.0280976 0)
(7.31896 0.0301923 0)
(7.32566 0.0315947 0)
(7.33185 0.0325053 0)
(7.33757 0.0330655 0)
(7.34285 0.0333628 0)
(7.34771 0.0334599 0)
(7.3522 0.0334066 0)
(7.35633 0.0332405 0)
(7.36016 0.0329894 0)
(7.3637 0.0326747 0)
(7.36698 0.032313 0)
(7.37004 0.0319176 0)
(7.37289 0.0314996 0)
(7.37555 0.0310687 0)
(7.37805 0.030634 0)
(7.38041 0.0302047 0)
(7.38264 0.0297909 0)
(7.38476 0.0294048 0)
(7.38679 0.0290605 0)
(7.38877 0.0287771 0)
(7.39072 0.0285712 0)
(7.3927 0.0284722 0)
(7.39478 0.0284668 0)
(7.39709 0.0286002 0)
(7.32441 -0.0221714 0)
(7.30054 -0.0208449 0)
(7.2931 -0.012835 0)
(7.29071 -0.00453553 0)
(7.29137 0.00495525 0)
(7.29565 0.0128524 0)
(7.30141 0.018363 0)
(7.30722 0.022324 0)
(7.31294 0.0252831 0)
(7.31855 0.0274249 0)
(7.32392 0.0289169 0)
(7.32899 0.0299346 0)
(7.33375 0.0306054 0)
(7.33823 0.0310123 0)
(7.34243 0.031216 0)
(7.34638 0.0312639 0)
(7.35009 0.0311925 0)
(7.35359 0.031029 0)
(7.35689 0.0307945 0)
(7.36001 0.0305058 0)
(7.36297 0.0301764 0)
(7.36579 0.0298174 0)
(7.36848 0.0294387 0)
(7.37105 0.0290491 0)
(7.37352 0.0286574 0)
(7.3759 0.0282727 0)
(7.37821 0.0279052 0)
(7.38047 0.0275653 0)
(7.38271 0.0272652 0)
(7.38495 0.0270138 0)
(7.38724 0.0268202 0)
(7.38965 0.0266681 0)
(7.39224 0.026548 0)
(7.32735 -0.015398 0)
(7.30976 -0.0162706 0)
(7.30244 -0.0106195 0)
(7.29932 -0.00378701 0)
(7.29908 0.00415886 0)
(7.30187 0.0110813 0)
(7.30609 0.0162158 0)
(7.31062 0.0200377 0)
(7.31523 0.0229378 0)
(7.31984 0.0250829 0)
(7.32431 0.0266222 0)
(7.3286 0.027706 0)
(7.33267 0.0284479 0)
(7.33655 0.0289261 0)
(7.34024 0.0291991 0)
(7.34374 0.0293125 0)
(7.34707 0.0293016 0)
(7.35025 0.0291934 0)
(7.35328 0.0290089 0)
(7.35618 0.0287647 0)
(7.35897 0.0284744 0)
(7.36165 0.028149 0)
(7.36424 0.0277982 0)
(7.36674 0.0274305 0)
(7.36917 0.0270538 0)
(7.37155 0.0266759 0)
(7.37388 0.0263045 0)
(7.37618 0.0259466 0)
(7.37849 0.0256083 0)
(7.38081 0.0252918 0)
(7.3832 0.0249944 0)
(7.3857 0.0246959 0)
(7.38835 0.0243674 0)
(7.32939 -0.0103229 0)
(7.31652 -0.0120777 0)
(7.30969 -0.00829774 0)
(7.30624 -0.00285215 0)
(7.30542 0.00374741 0)
(7.30719 0.00977205 0)
(7.31032 0.0144919 0)
(7.31393 0.0181271 0)
(7.31775 0.0209345 0)
(7.32163 0.0230514 0)
(7.32547 0.0246059 0)
(7.32919 0.0257256 0)
(7.33276 0.0265109 0)
(7.3362 0.0270349 0)
(7.33949 0.0273532 0)
(7.34265 0.0275098 0)
(7.34568 0.0275386 0)
(7.34858 0.0274661 0)
(7.35138 0.027313 0)
(7.35409 0.0270959 0)
(7.3567 0.0268281 0)
(7.35923 0.0265204 0)
(7.36169 0.0261823 0)
(7.36409 0.0258215 0)
(7.36645 0.0254451 0)
(7.36876 0.0250593 0)
(7.37105 0.0246694 0)
(7.37333 0.0242794 0)
(7.37562 0.023891 0)
(7.37794 0.0235012 0)
(7.38032 0.0231008 0)
(7.38279 0.0226682 0)
(7.38538 0.0221703 0)
(7.33074 -0.00670203 0)
(7.32148 -0.00859986 0)
(7.31542 -0.00610324 0)
(7.31195 -0.00180964 0)
(7.31077 0.00363581 0)
(7.3118 0.00883411 0)
(7.31411 0.0131115 0)
(7.31701 0.0165163 0)
(7.32021 0.0191966 0)
(7.32354 0.021255 0)
(7.32688 0.0227966 0)
(7.33016 0.0239275 0)
(7.33336 0.0247352 0)
(7.33645 0.0252866 0)
(7.33944 0.0256339 0)
(7.34233 0.0258185 0)
(7.34511 0.0258732 0)
(7.34781 0.0258236 0)
(7.35041 0.0256901 0)
(7.35294 0.0254887 0)
(7.3554 0.0252326 0)
(7.3578 0.0249323 0)
(7.36015 0.0245966 0)
(7.36245 0.0242329 0)
(7.36471 0.0238469 0)
(7.36695 0.0234436 0)
(7.36917 0.0230264 0)
(7.37139 0.0225965 0)
(7.37363 0.0221525 0)
(7.3759 0.0216885 0)
(7.37823 0.0211923 0)
(7.38062 0.0206429 0)
(7.38311 0.020009 0)
(7.33161 -0.00420209 0)
(7.32508 -0.00581052 0)
(7.31996 -0.0041009 0)
(7.31671 -0.000717003 0)
(7.31534 0.00374639 0)
(7.31583 0.00818918 0)
(7.31753 0.0120114 0)
(7.31986 0.0151518 0)
(7.32254 0.0176748 0)
(7.32542 0.0196477 0)
(7.32836 0.0211516 0)
(7.33129 0.0222726 0)
(7.33417 0.023085 0)
(7.33699 0.0236487 0)
(7.33974 0.0240117 0)
(7.3424 0.0242129 0)
(7.34499 0.0242831 0)
(7.3475 0.024247 0)
(7.34995 0.0241243 0)
(7.35234 0.0239306 0)
(7.35467 0.0236786 0)
(7.35695 0.0233784 0)
(7.35919 0.0230382 0)
(7.36139 0.0226647 0)
(7.36357 0.0222628 0)
(7.36573 0.0218361 0)
(7.36788 0.0213864 0)
(7.37004 0.0209133 0)
(7.37221 0.0204132 0)
(7.37441 0.0198786 0)
(7.37665 0.0192969 0)
(7.37895 0.0186488 0)
(7.38131 0.0179076 0)
(7.33217 -0.0025004 0)
(7.32765 -0.00362284 0)
(7.32352 -0.00234702 0)
(7.32064 0.000350405 0)
(7.31925 0.00399983 0)
(7.31938 0.00776767 0)
(7.3206 0.0111406 0)
(7.32247 0.0139955 0)
(7.32473 0.0163373 0)
(7.32722 0.0182014 0)
(7.32982 0.0196457 0)
(7.33245 0.0207375 0)
(7.33508 0.0215384 0)
(7.33766 0.0221009 0)
(7.3402 0.0224681 0)
(7.34268 0.0226758 0)
(7.3451 0.0227529 0)
(7.34747 0.0227226 0)
(7.34978 0.0226038 0)
(7.35204 0.0224114 0)
(7.35426 0.0221577 0)
(7.35643 0.0218522 0)
(7.35858 0.0215025 0)
(7.36069 0.0211147 0)
(7.36279 0.0206927 0)
(7.36487 0.0202393 0)
(7.36695 0.0197549 0)
(7.36903 0.019238 0)
(7.37113 0.0186841 0)
(7.37325 0.0180853 0)
(7.3754 0.0174295 0)
(7.37759 0.0167001 0)
(7.37982 0.0158754 0)
(7.33251 -0.00135815 0)
(7.32945 -0.00195288 0)
(7.32626 -0.000878576 0)
(7.32385 0.00132639 0)
(7.32255 0.00432424 0)
(7.32248 0.00750672 0)
(7.32335 0.0104531 0)
(7.32485 0.0130153 0)
(7.32676 0.0151597 0)
(7.32893 0.016896 0)
(7.33123 0.0182618 0)
(7.33361 0.019307 0)
(7.336 0.0200818 0)
(7.33838 0.0206304 0)
(7.34074 0.0209911 0)
(7.34306 0.0211962 0)
(7.34533 0.0212723 0)
(7.34757 0.021241 0)
(7.34976 0.0211202 0)
(7.35191 0.0209239 0)
(7.35403 0.0206638 0)
(7.35611 0.0203488 0)
(7.35817 0.019986 0)
(7.36021 0.0195807 0)
(7.36222 0.0191362 0)
(7.36423 0.0186544 0)
(7.36624 0.0181351 0)
(7.36825 0.0175761 0)
(7.37026 0.0169725 0)
(7.3723 0.0163168 0)
(7.37435 0.0155982 0)
(7.37643 0.0148032 0)
(7.37853 0.0139145 0)
(7.33272 -0.000604755 0)
(7.33069 -0.000715078 0)
(7.32832 0.000297741 0)
(7.3264 0.00216525 0)
(7.3253 0.0046585 0)
(7.32514 0.00734864 0)
(7.32578 0.00990513 0)
(7.327 0.01218 0)
(7.32862 0.0141193 0)
(7.33051 0.0157145 0)
(7.33257 0.0169862 0)
(7.33471 0.0179701 0)
(7.3369 0.0187052 0)
(7.33911 0.0192284 0)
(7.3413 0.0195727 0)
(7.34347 0.0197667 0)
(7.34562 0.0198345 0)
(7.34774 0.0197961 0)
(7.34982 0.019668 0)
(7.35187 0.0194633 0)
(7.3539 0.0191928 0)
(7.3559 0.0188651 0)
(7.35788 0.0184864 0)
(7.35984 0.0180614 0)
(7.36178 0.0175931 0)
(7.36372 0.0170827 0)
(7.36565 0.0165295 0)
(7.36758 0.0159311 0)
(7.36952 0.0152829 0)
(7.37146 0.014578 0)
(7.37342 0.0138074 0)
(7.37539 0.0129603 0)
(7.37736 0.0120234 0)
(7.33284 -0.000117601 0)
(7.33153 0.00017483 0)
(7.32984 0.0011994 0)
(7.3284 0.00284285 0)
(7.32753 0.00495536 0)
(7.32738 0.00724269 0)
(7.32789 0.00945467 0)
(7.3289 0.0114585 0)
(7.3303 0.0131934 0)
(7.33196 0.0146399 0)
(7.33379 0.0158065 0)
(7.33574 0.0167169 0)
(7.33775 0.0174009 0)
(7.33979 0.0178883 0)
(7.34184 0.0182071 0)
(7.34389 0.0183822 0)
(7.34591 0.0184351 0)
(7.34792 0.0183838 0)
(7.34991 0.0182435 0)
(7.35187 0.0180263 0)
(7.35381 0.0177422 0)
(7.35573 0.0173989 0)
(7.35763 0.0170023 0)
(7.35952 0.0165565 0)
(7.36139 0.0160639 0)
(7.36326 0.0155255 0)
(7.36511 0.0149404 0)
(7.36697 0.0143061 0)
(7.36883 0.0136187 0)
(7.37069 0.0128722 0)
(7.37255 0.0120593 0)
(7.37441 0.0111716 0)
(7.37627 0.0101994 0)
(7.33292 0.00019012 0)
(7.33209 0.00079343 0)
(7.33093 0.0018585 0)
(7.32991 0.00335408 0)
(7.32929 0.00518336 0)
(7.32921 0.00714793 0)
(7.32966 0.00906395 0)
(7.33054 0.0108204 0)
(7.33176 0.0123588 0)
(7.33323 0.0136552 0)
(7.33489 0.0147099 0)
(7.33667 0.015538 0)
(7.33852 0.0161615 0)
(7.34042 0.0166042 0)
(7.34233 0.0168895 0)
(7.34426 0.0170386 0)
(7.34618 0.0170704 0)
(7.34809 0.0170012 0)
(7.34998 0.0168443 0)
(7.35186 0.0166111 0)
(7.35372 0.0163105 0)
(7.35556 0.0159496 0)
(7.35739 0.0155336 0)
(7.35921 0.0150663 0)
(7.36101 0.0145496 0)
(7.3628 0.0139844 0)
(7.36459 0.0133699 0)
(7.36637 0.0127037 0)
(7.36815 0.0119825 0)
(7.36992 0.0112014 0)
(7.37169 0.0103549 0)
(7.37345 0.00943653 0)
(7.37519 0.00843923 0)
(7.33296 0.000378514 0)
(7.33245 0.00120613 0)
(7.33171 0.00231381 0)
(7.33104 0.00370838 0)
(7.33065 0.00532653 0)
(7.33067 0.00703513 0)
(7.3311 0.0087018 0)
(7.3319 0.0102382 0)
(7.33299 0.0115934 0)
(7.33433 0.0127431 0)
(7.33583 0.0136834 0)
(7.33746 0.0144237 0)
(7.33918 0.0149798 0)
(7.34094 0.0153707 0)
(7.34274 0.0156156 0)
(7.34456 0.0157326 0)
(7.34638 0.015738 0)
(7.3482 0.0156461 0)
(7.35 0.0154689 0)
(7.3518 0.0152165 0)
(7.35359 0.014897 0)
(7.35536 0.0145167 0)
(7.35711 0.0140805 0)
(7.35886 0.0135914 0)
(7.36059 0.0130515 0)
(7.36232 0.0124613 0)
(7.36403 0.0118201 0)
(7.36574 0.011126 0)
(7.36743 0.0103763 0)
(7.36912 0.00956735 0)
(7.3708 0.00869475 0)
(7.37246 0.00775392 0)
(7.3741 0.00673992 0)
(7.33298 0.000488487 0)
(7.33269 0.00146644 0)
(7.33224 0.00260514 0)
(7.33185 0.00392467 0)
(7.33167 0.005382 0)
(7.33179 0.00688703 0)
(7.33224 0.00834546 0)
(7.33299 0.00968948 0)
(7.334 0.0108772 0)
(7.33522 0.0118873 0)
(7.3366 0.0127144 0)
(7.33811 0.0133641 0)
(7.3397 0.0138484 0)
(7.34135 0.0141822 0)
(7.34305 0.0143814 0)
(7.34476 0.0144611 0)
(7.34649 0.0144355 0)
(7.34822 0.014317 0)
(7.34995 0.0141162 0)
(7.35167 0.013842 0)
(7.35338 0.0135016 0)
(7.35508 0.0131008 0)
(7.35677 0.0126437 0)
(7.35845 0.0121333 0)
(7.36011 0.0115712 0)
(7.36177 0.0109579 0)
(7.36341 0.0102931 0)
(7.36504 0.00957516 0)
(7.36666 0.00880207 0)
(7.36826 0.00797106 0)
(7.36985 0.00707902 0)
(7.37142 0.00612273 0)
(7.37297 0.00509887 0)
(7.33299 0.000547565 0)
(7.33284 0.00161687 0)
(7.33261 0.00276986 0)
(7.33242 0.00402685 0)
(7.3324 0.00535671 0)
(7.33261 0.00669715 0)
(7.33309 0.0079811 0)
(7.33381 0.00915775 0)
(7.33476 0.0101945 0)
(7.33589 0.0110739 0)
(7.33718 0.0117912 0)
(7.33858 0.0123502 0)
(7.34007 0.0127603 0)
(7.34162 0.0130334 0)
(7.34322 0.0131828 0)
(7.34484 0.0132213 0)
(7.34649 0.013161 0)
(7.34813 0.0130126 0)
(7.34979 0.0127854 0)
(7.35143 0.0124873 0)
(7.35307 0.0121246 0)
(7.3547 0.0117024 0)
(7.35633 0.0112243 0)
(7.35793 0.0106931 0)
(7.35953 0.0101102 0)
(7.36112 0.0094762 0)
(7.36269 0.00879076 0)
(7.36425 0.00805292 0)
(7.36579 0.00726113 0)
(7.36731 0.00641345 0)
(7.36882 0.00550777 0)
(7.3703 0.00454196 0)
(7.37175 0.00351391 0)
(7.333 0.000574193 0)
(7.33294 0.00169046 0)
(7.33284 0.00284109 0)
(7.3328 0.00404043 0)
(7.3329 0.0052641 0)
(7.33318 0.00646767 0)
(7.33368 0.00760329 0)
(7.33439 0.00863364 0)
(7.33529 0.00953434 0)
(7.33635 0.0102925 0)
(7.33755 0.0109048 0)
(7.33887 0.0113745 0)
(7.34026 0.0117095 0)
(7.34173 0.0119198 0)
(7.34323 0.0120166 0)
(7.34478 0.0120109 0)
(7.34634 0.0119129 0)
(7.34791 0.011732 0)
(7.34949 0.0114763 0)
(7.35106 0.0111526 0)
(7.35263 0.0107665 0)
(7.3542 0.0103225 0)
(7.35575 0.0098237 0)
(7.3573 0.00927256 0)
(7.35883 0.00867044 0)
(7.36034 0.00801794 0)
(7.36184 0.00731498 0)
(7.36333 0.00656093 0)
(7.36479 0.00575477 0)
(7.36624 0.00489522 0)
(7.36766 0.00398095 0)
(7.36906 0.00301068 0)
(7.37043 0.00198319 0)
(7.333 0.000580795 0)
(7.33299 0.0017128 0)
(7.33299 0.0028474 0)
(7.33304 0.00399051 0)
(7.33321 0.00512138 0)
(7.33354 0.00620725 0)
(7.33405 0.00721387 0)
(7.33474 0.00811444 0)
(7.33559 0.00889174 0)
(7.33659 0.00953719 0)
(7.33772 0.0100493 0)
(7.33895 0.0104319 0)
(7.34027 0.0106919 0)
(7.34165 0.0108382 0)
(7.34307 0.0108806 0)
(7.34453 0.0108283 0)
(7.34602 0.0106905 0)
(7.34752 0.0104751 0)
(7.34902 0.0101892 0)
(7.35053 0.00983872 0)
(7.35203 0.00942848 0)
(7.35353 0.00896235 0)
(7.35502 0.00844325 0)
(7.3565 0.00787322 0)
(7.35796 0.00725355 0)
(7.35941 0.00658488 0)
(7.36084 0.0058673 0)
(7.36226 0.0051005 0)
(7.36365 0.00428389 0)
(7.36502 0.00341674 0)
(7.36637 0.0024983 0)
(7.36768 0.00152794 0)
(7.36897 0.000505035 0)
(7.333 0.000575935 0)
(7.33302 0.00170382 0)
(7.33306 0.00281325 0)
(7.33316 0.00390091 0)
(7.33337 0.00494783 0)
(7.33372 0.00592913 0)
(7.33422 0.0068205 0)
(7.33487 0.00760352 0)
(7.33568 0.0082671 0)
(7.33662 0.00880667 0)
(7.33768 0.0092229 0)
(7.33883 0.00952031 0)
(7.34007 0.00970577 0)
(7.34137 0.00978745 0)
(7.34271 0.00977389 0)
(7.3441 0.00967348 0)
(7.34551 0.00949401 0)
(7.34693 0.00924249 0)
(7.34837 0.00892499 0)
(7.34981 0.00854667 0)
(7.35125 0.00811173 0)
(7.35268 0.00762352 0)
(7.3541 0.00708458 0)
(7.35552 0.00649671 0)
(7.35691 0.00586112 0)
(7.3583 0.00517845 0)
(7.35966 0.00444895 0)
(7.36101 0.00367256 0)
(7.36233 0.00284902 0)
(7.36363 0.00197801 0)
(7.3649 0.00105924 0)
(7.36614 9.25169e-05 0)
(7.36735 -0.000922336 0)
(7.333 0.000565826 0)
(7.33303 0.00167968 0)
(7.33309 0.00276004 0)
(7.3332 0.00379422 0)
(7.33341 0.00476387 0)
(7.33374 0.00564985 0)
(7.3342 0.00643554 0)
(7.33481 0.00710955 0)
(7.33556 0.00766619 0)
(7.33643 0.00810466 0)
(7.33741 0.00842792 0)
(7.33849 0.0086415 0)
(7.33964 0.00875248 0)
(7.34086 0.00876866 0)
(7.34213 0.00869787 0)
(7.34344 0.00854763 0)
(7.34478 0.00832483 0)
(7.34613 0.00803558 0)
(7.3475 0.00768519 0)
(7.34887 0.00727809 0)
(7.35024 0.00681791 0)
(7.35161 0.00630754 0)
(7.35297 0.00574918 0)
(7.35432 0.00514442 0)
(7.35565 0.00449435 0)
(7.35697 0.00379963 0)
(7.35827 0.00306059 0)
(7.35955 0.00227738 0)
(7.36081 0.00144998 0)
(7.36203 0.000578365 0)
(7.36323 -0.000337437 0)
(7.3644 -0.00129732 0)
(7.36554 -0.00230117 0)
(7.333 0.000555405 0)
(7.33302 0.00165436 0)
(7.33307 0.00270754 0)
(7.33316 0.00369265 0)
(7.33333 0.00459125 0)
(7.33361 0.00538889 0)
(7.33402 0.00607546 0)
(7.33456 0.0066459 0)
(7.33523 0.00709964 0)
(7.33602 0.00743959 0)
(7.33691 0.00767106 0)
(7.33791 0.00780085 0)
(7.33898 0.0078365 0)
(7.34011 0.00778568 0)
(7.3413 0.0076558 0)
(7.34253 0.00745371 0)
(7.3438 0.00718558 0)
(7.34508 0.00685678 0)
(7.34638 0.00647193 0)
(7.34768 0.00603484 0)
(7.34899 0.00554864 0)
(7.35029 0.0050158 0)
(7.35159 0.00443818 0)
(7.35288 0.00381717 0)
(7.35415 0.00315375 0)
(7.35541 0.00244855 0)
(7.35665 0.00170196 0)
(7.35786 0.000914248 0)
(7.35905 8.55608e-05 0)
(7.36022 -0.000783921 0)
(7.36135 -0.00169398 0)
(7.36246 -0.00264431 0)
(7.36353 -0.00363462 0)
(7.333 0.000549182 0)
(7.333 0.0016414 0)
(7.333 0.00267576 0)
(7.33304 0.00361953 0)
(7.33314 0.00445397 0)
(7.33334 0.00516903 0)
(7.33365 0.00576084 0)
(7.3341 0.00623054 0)
(7.33467 0.0065828 0)
(7.33536 0.00682436 0)
(7.33616 0.0069631 0)
(7.33706 0.00700733 0)
(7.33804 0.00696528 0)
(7.33909 0.00684474 0)
(7.34019 0.00665284 0)
(7.34134 0.00639598 0)
(7.34253 0.00607973 0)
(7.34374 0.00570886 0)
(7.34497 0.00528736 0)
(7.34621 0.00481853 0)
(7.34745 0.00430501 0)
(7.34869 0.00374887 0)
(7.34993 0.00315168 0)
(7.35116 0.00251461 0)
(7.35238 0.0018385 0)
(7.35358 0.00112392 0)
(7.35476 0.000371279 0)
(7.35592 -0.000419128 0)
(7.35705 -0.00124704 0)
(7.35816 -0.00211217 0)
(7.35924 -0.0030142 0)
(7.36028 -0.00395272 0)
(7.36129 -0.00492734 0)
(7.333 0.000552029 0)
(7.33297 0.0016558 0)
(7.3329 0.00268723 0)
(7.33283 0.00360163 0)
(7.33282 0.00438015 0)
(7.3329 0.00501773 0)
(7.33309 0.00551717 0)
(7.33341 0.00588638 0)
(7.33386 0.00613571 0)
(7.33443 0.00627617 0)
(7.33511 0.00631856 0)
(7.3359 0.00627301 0)
(7.33678 0.00614869 0)
(7.33773 0.00595373 0)
(7.33875 0.0056952 0)
(7.33982 0.00537915 0)
(7.34093 0.0050107 0)
(7.34207 0.00459409 0)
(7.34323 0.00413278 0)
(7.34441 0.00362955 0)
(7.34559 0.00308661 0)
(7.34678 0.00250563 0)
(7.34796 0.00188789 0)
(7.34914 0.00123432 0)
(7.3503 0.000545593 0)
(7.35145 -0.00017783 0)
(7.35259 -0.000935587 0)
(7.35369 -0.0017274 0)
(7.35478 -0.00255299 0)
(7.35584 -0.00341204 0)
(7.35687 -0.0043042 0)
(7.35786 -0.00522904 0)
(7.35882 -0.00618615 0)
(7.333 0.000570131 0)
(7.33291 0.00171656 0)
(7.33273 0.00277037 0)
(7.33252 0.00367249 0)
(7.33235 0.00440501 0)
(7.33226 0.00496936 0)
(7.33228 0.00537641 0)
(7.33244 0.00564204 0)
(7.33273 0.00578327 0)
(7.33316 0.00581613 0)
(7.33371 0.00575489 0)
(7.33438 0.00561192 0)
(7.33514 0.00539765 0)
(7.336 0.00512082 0)
(7.33692 0.00478859 0)
(7.33791 0.00440683 0)
(7.33895 0.00398026 0)
(7.34002 0.00351266 0)
(7.34112 0.00300698 0)
(7.34224 0.00246553 0)
(7.34337 0.00189004 0)
(7.34451 0.00128181 0)
(7.34565 0.000641756 0)
(7.34678 -2.94498e-05 0)
(7.34791 -0.000731368 0)
(7.34902 -0.00146368 0)
(7.35011 -0.00222615 0)
(7.35118 -0.00301859 0)
(7.35222 -0.00384077 0)
(7.35324 -0.00469242 0)
(7.35423 -0.00557324 0)
(7.35519 -0.00648283 0)
(7.35611 -0.00742084 0)
(7.33299 0.000612436 0)
(7.33282 0.00185053 0)
(7.33248 0.00296444 0)
(7.33207 0.00387741 0)
(7.33167 0.00457513 0)
(7.33135 0.00506849 0)
(7.33115 0.00537901 0)
(7.3311 0.00553278 0)
(7.3312 0.00555516 0)
(7.33145 0.00546834 0)
(7.33186 0.00529089 0)
(7.33239 0.00503801 0)
(7.33304 0.00472184 0)
(7.33379 0.00435191 0)
(7.33463 0.0039357 0)
(7.33554 0.00347894 0)
(7.33651 0.00298603 0)
(7.33753 0.00246025 0)
(7.33858 0.00190406 0)
(7.33966 0.00131921 0)
(7.34075 0.00070695 0)
(7.34186 6.81036e-05 0)
(7.34297 -0.000596794 0)
(7.34407 -0.00128744 0)
(7.34516 -0.00200366 0)
(7.34625 -0.0027454 0)
(7.34731 -0.00351261 0)
(7.34835 -0.00430525 0)
(7.34937 -0.00512324 0)
(7.35037 -0.00596644 0)
(7.35133 -0.00683464 0)
(7.35226 -0.00772756 0)
(7.35316 -0.00864496 0)
(7.33298 0.000693231 0)
(7.33269 0.00209898 0)
(7.33211 0.00332732 0)
(7.33139 0.00428078 0)
(7.33067 0.00495441 0)
(7.33004 0.00537391 0)
(7.32955 0.00557601 0)
(7.32924 0.00560077 0)
(7.32912 0.00548455 0)
(7.32919 0.00525743 0)
(7.32943 0.0049435 0)
(7.32982 0.00456151 0)
(7.33036 0.00412569 0)
(7.33102 0.00364667 0)
(7.33179 0.00313223 0)
(7.33264 0.002588 0)
(7.33356 0.00201794 0)
(7.33454 0.00142479 0)
(7.33556 0.000810333 0)
(7.33662 0.00017569 0)
(7.33769 -0.000478529 0)
(7.33878 -0.00115206 0)
(7.33988 -0.0018449 0)
(7.34097 -0.00255719 0)
(7.34206 -0.00328917 0)
(7.34313 -0.00404108 0)
(7.34419 -0.00481321 0)
(7.34522 -0.00560574 0)
(7.34623 -0.00641882 0)
(7.34722 -0.00725252 0)
(7.34817 -0.0081068 0)
(7.34909 -0.00898155 0)
(7.34998 -0.0098767 0)
(7.33297 0.000837072 0)
(7.33247 0.00252894 0)
(7.33152 0.00394826 0)
(7.33036 0.00497703 0)
(7.3292 0.00563191 0)
(7.32815 0.00596282 0)
(7.3273 0.00602971 0)
(7.32669 0.00589297 0)
(7.32631 0.00560399 0)
(7.32617 0.00520323 0)
(7.32625 0.00472172 0)
(7.32653 0.00418253 0)
(7.32697 0.00360228 0)
(7.32757 0.00299262 0)
(7.32829 0.00236149 0)
(7.32911 0.00171414 0)
(7.33002 0.00105382 0)
(7.33099 0.00038242 0)
(7.33201 -0.000299187 0)
(7.33307 -0.000990769 0)
(7.33416 -0.00169257 0)
(7.33526 -0.00240508 0)
(7.33637 -0.00312901 0)
(7.33748 -0.00386508 0)
(7.33858 -0.00461407 0)
(7.33967 -0.00537671 0)
(7.34074 -0.00615365 0)
(7.34179 -0.00694546 0)
(7.34282 -0.0077526 0)
(7.34381 -0.00857539 0)
(7.34478 -0.00941407 0)
(7.34571 -0.0102688 0)
(7.3466 -0.0111396 0)
(7.33294 0.00108894 0)
(7.33211 0.00325373 0)
(7.33057 0.00496772 0)
(7.32876 0.00610564 0)
(7.32698 0.00673041 0)
(7.3254 0.00693282 0)
(7.32411 0.00681029 0)
(7.32315 0.00645399 0)
(7.32251 0.00593617 0)
(7.32218 0.00531056 0)
(7.32213 0.00461645 0)
(7.32232 0.00388154 0)
(7.32272 0.00312447 0)
(7.3233 0.00235731 0)
(7.32402 0.00158745 0)
(7.32486 0.000819064 0)
(7.3258 5.409e-05 0)
(7.32681 -0.000707014 0)
(7.32788 -0.00146472 0)
(7.32899 -0.00222012 0)
(7.33012 -0.0029746 0)
(7.33128 -0.00372974 0)
(7.33244 -0.00448711 0)
(7.3336 -0.0052483 0)
(7.33475 -0.00601474 0)
(7.33589 -0.0067878 0)
(7.337 -0.00756864 0)
(7.33809 -0.0083583 0)
(7.33916 -0.00915763 0)
(7.34019 -0.00996733 0)
(7.34119 -0.010788 0)
(7.34215 -0.0116199 0)
(7.34307 -0.0124636 0)
(7.33289 0.00153825 0)
(7.33145 0.00447252 0)
(7.32898 0.00660826 0)
(7.32621 0.00786802 0)
(7.32361 0.00841018 0)
(7.32136 0.00839494 0)
(7.31957 0.0079819 0)
(7.31826 0.00730913 0)
(7.31739 0.00647645 0)
(7.31693 0.00555286 0)
(7.31682 0.00458592 0)
(7.31701 0.00360677 0)
(7.31744 0.00263439 0)
(7.31808 0.00167951 0)
(7.31889 0.000747456 0)
(7.31982 -0.00015999 0)
(7.32086 -0.00104328 0)
(7.32197 -0.00190421 0)
(7.32314 -0.00274535 0)
(7.32436 -0.00356959 0)
(7.3256 -0.00437995 0)
(7.32685 -0.00517938 0)
(7.32811 -0.00597069 0)
(7.32936 -0.00675646 0)
(7.3306 -0.00753904 0)
(7.33182 -0.00832053 0)
(7.33302 -0.00910277 0)
(7.33418 -0.00988735 0)
(7.33532 -0.0106756 0)
(7.33642 -0.0114688 0)
(7.33748 -0.0122677 0)
(7.3385 -0.0130731 0)
(7.33948 -0.0138858 0)
(7.33277 0.00237443 0)
(7.33022 0.00655378 0)
(7.32624 0.00923129 0)
(7.3221 0.0105476 0)
(7.31842 0.0108581 0)
(7.31541 0.0104434 0)
(7.31313 0.0095651 0)
(7.31155 0.00842728 0)
(7.31057 0.00716007 0)
(7.31011 0.005845 0)
(7.31007 0.00453396 0)
(7.31039 0.00325718 0)
(7.31098 0.00202993 0)
(7.3118 0.000858328 0)
(7.31279 -0.000256925 0)
(7.31391 -0.00131832 0)
(7.31514 -0.00233017 0)
(7.31645 -0.00329762 0)
(7.3178 -0.0042261 0)
(7.31919 -0.00512095 0)
(7.32061 -0.00598726 0)
(7.32202 -0.00682973 0)
(7.32344 -0.00765262 0)
(7.32484 -0.00845978 0)
(7.32621 -0.00925461 0)
(7.32757 -0.0100401 0)
(7.32889 -0.0108188 0)
(7.33017 -0.0115931 0)
(7.33142 -0.0123648 0)
(7.33262 -0.0131357 0)
(7.33378 -0.013907 0)
(7.33489 -0.0146799 0)
(7.33596 -0.0154555 0)
(7.33248 0.00396218 0)
(7.32783 0.0101556 0)
(7.32139 0.0134321 0)
(7.31537 0.0145607 0)
(7.31044 0.0142907 0)
(7.3067 0.0131266 0)
(7.30409 0.011497 0)
(7.30245 0.00968315 0)
(7.30159 0.00783062 0)
(7.30135 0.00601871 0)
(7.30161 0.0042923 0)
(7.30224 0.00267123 0)
(7.30317 0.00115956 0)
(7.30433 -0.000246534 0)
(7.30566 -0.0015546 0)
(7.30712 -0.00277395 0)
(7.30866 -0.0039145 0)
(7.31027 -0.00498602 0)
(7.31192 -0.00599764 0)
(7.31359 -0.00695779 0)
(7.31526 -0.00787401 0)
(7.31693 -0.00875304 0)
(7.31858 -0.00960084 0)
(7.3202 -0.0104226 0)
(7.32179 -0.0112229 0)
(7.32334 -0.0120057 0)
(7.32484 -0.0127745 0)
(7.3263 -0.013532 0)
(7.32771 -0.014281 0)
(7.32907 -0.0150234 0)
(7.33038 -0.0157611 0)
(7.33162 -0.0164957 0)
(7.33282 -0.0172284 0)
(7.33192 0.00692329 0)
(7.32311 0.0161357 0)
(7.31274 0.0198079 0)
(7.30432 0.0202541 0)
(7.29817 0.0188158 0)
(7.29399 0.0163568 0)
(7.29147 0.0135716 0)
(7.29022 0.0108066 0)
(7.28987 0.00817887 0)
(7.29022 0.00573754 0)
(7.29109 0.0035053 0)
(7.29234 0.0014804 0)
(7.29388 -0.000352866 0)
(7.29562 -0.00201426 0)
(7.29751 -0.00352374 0)
(7.2995 -0.00490044 0)
(7.30155 -0.00616218 0)
(7.30363 -0.00732501 0)
(7.30573 -0.00840317 0)
(7.30782 -0.00940911 0)
(7.3099 -0.0103537 0)
(7.31194 -0.0112463 0)
(7.31394 -0.012095 0)
(7.31589 -0.012907 0)
(7.31779 -0.013688 0)
(7.31963 -0.0144434 0)
(7.32141 -0.0151775 0)
(7.32313 -0.0158941 0)
(7.32478 -0.0165965 0)
(7.32636 -0.0172875 0)
(7.32788 -0.0179695 0)
(7.32933 -0.0186446 0)
(7.33071 -0.019315 0)
(7.33066 0.0138158 0)
(7.31338 0.0263444 0)
(7.29717 0.0284461 0)
(7.28625 0.0270589 0)
(7.27934 0.0238812 0)
(7.27544 0.0198545 0)
(7.27381 0.0158595 0)
(7.27367 0.012198 0)
(7.2745 0.00887112 0)
(7.27602 0.00586168 0)
(7.27805 0.00316004 0)
(7.28042 0.000740703 0)
(7.28302 -0.00142875 0)
(7.28577 -0.00337859 0)
(7.28861 -0.0051356 0)
(7.29149 -0.00672411 0)
(7.29437 -0.0081663 0)
(7.29724 -0.00948184 0)
(7.30007 -0.010688 0)
(7.30285 -0.0117999 0)
(7.30556 -0.0128305 0)
(7.30819 -0.0137914 0)
(7.31075 -0.0146924 0)
(7.31322 -0.015542 0)
(7.31561 -0.0163476 0)
(7.3179 -0.0171156 0)
(7.32011 -0.0178515 0)
(7.32222 -0.0185599 0)
(7.32424 -0.0192449 0)
(7.32617 -0.0199099 0)
(7.32801 -0.0205576 0)
(7.32976 -0.0211903 0)
(7.33142 -0.0218096 0)
(7.32447 0.0352528 0)
(7.28905 0.0484147 0)
(7.26649 0.0395869 0)
(7.25598 0.0291979 0)
(7.2507 0.0198764 0)
(7.2489 0.0120315 0)
(7.24973 0.00590996 0)
(7.25205 0.00117228 0)
(7.25519 -0.00258682 0)
(7.25891 -0.00560342 0)
(7.26304 -0.00803095 0)
(7.26741 -0.0100085 0)
(7.2719 -0.0116484 0)
(7.27643 -0.0130317 0)
(7.28094 -0.0142161 0)
(7.28538 -0.0152454 0)
(7.28973 -0.0161531 0)
(7.29396 -0.0169651 0)
(7.29805 -0.0177012 0)
(7.302 -0.0183769 0)
(7.3058 -0.0190041 0)
(7.30945 -0.0195925 0)
(7.31294 -0.0201497 0)
(7.31629 -0.0206817 0)
(7.31948 -0.0211934 0)
(7.32252 -0.0216887 0)
(7.32542 -0.0221709 0)
(7.32817 -0.0226428 0)
(7.33079 -0.0231065 0)
(7.33327 -0.0235642 0)
(7.33562 -0.0240178 0)
(7.33786 -0.0244698 0)
(7.33997 -0.0249228 0)
(7.29541 0.0831414 0)
(7.21833 0.128044 0)
(7.18707 0.129005 0)
(7.18632 0.113962 0)
(7.19295 0.0941326 0)
(7.20193 0.0760888 0)
(7.2123 0.0610594 0)
(7.22297 0.0481487 0)
(7.23349 0.0368345 0)
(7.24384 0.0270187 0)
(7.25389 0.0186042 0)
(7.26354 0.0114335 0)
(7.27271 0.00533751 0)
(7.28139 0.000165297 0)
(7.28959 -0.00421796 0)
(7.29732 -0.00793383 0)
(7.30459 -0.0110891 0)
(7.31142 -0.013775 0)
(7.31784 -0.0160682 0)
(7.32386 -0.0180332 0)
(7.32952 -0.0197239 0)
(7.33483 -0.0211854 0)
(7.33981 -0.0224552 0)
(7.34448 -0.0235645 0)
(7.34887 -0.0245394 0)
(7.35298 -0.0254016 0)
(7.35683 -0.0261691 0)
(7.36044 -0.0268569 0)
(7.36382 -0.0274776 0)
(7.36698 -0.0280414 0)
(7.36993 -0.0285567 0)
(7.37268 -0.0290295 0)
(7.37523 -0.0294671 0)
(7.32717 -0.156814 0)
(7.19692 -0.284093 0)
(7.13361 -0.280647 0)
(7.11314 -0.247167 0)
(7.11508 -0.214556 0)
(7.13554 -0.184256 0)
(7.16564 -0.157032 0)
(7.19803 -0.134038 0)
(7.22997 -0.115225 0)
(7.26032 -0.0999002 0)
(7.28836 -0.0873977 0)
(7.31374 -0.077219 0)
(7.33647 -0.0689553 0)
(7.35673 -0.0622489 0)
(7.37472 -0.0567983 0)
(7.39067 -0.0523607 0)
(7.40478 -0.0487421 0)
(7.41726 -0.0457868 0)
(7.42829 -0.0433694 0)
(7.43804 -0.0413891 0)
(7.44666 -0.039765 0)
(7.45426 -0.038432 0)
(7.46097 -0.0373379 0)
(7.46687 -0.0364403 0)
(7.47207 -0.035705 0)
(7.47662 -0.0351042 0)
(7.48061 -0.0346155 0)
(7.48408 -0.0342203 0)
(7.4871 -0.0339034 0)
(7.4897 -0.0336524 0)
(7.49193 -0.0334563 0)
(7.49383 -0.0333065 0)
(7.49545 -0.0331913 0)
(7.33086 1.21499 0)
(7.63822 1.23053 0)
(7.81865 0.920168 0)
(7.8759 0.647915 0)
(7.88919 0.449902 0)
(7.88325 0.310866 0)
(7.8619 0.213 0)
(7.83006 0.143227 0)
(7.79308 0.0928977 0)