/*--------------------------------*- C++ -*----------------------------------*\
| =========                 |                                                 |
| \\      /  F ield         | OpenFOAM: The Open Source CFD Toolbox           |
|  \\    /   O peration     | Version:  4.1                                   |
|   \\  /    A nd           | Web:      www.OpenFOAM.org                      |
|    \\/     M anipulation  |                                                 |
\*---------------------------------------------------------------------------*/
FoamFile
{
    version     2.0;
    format      ascii;
    class       volScalarField;
    location    "100";
    object      k;
}
// * * * * * * * * * * * * * * * * * * * * * * * * * * * * * * * * * * * * * //

dimensions      [0 2 -2 0 0 0 0];

internalField   nonuniform List<scalar> 
6820
(
0.25708
0.434207
0.598544
0.709437
0.778271
0.818293
0.838966
0.846553
0.845343
0.838339
0.827646
0.814742
0.800664
0.786134
0.771649
0.757546
0.744049
0.7313
0.719383
0.708345
0.698202
0.688953
0.680587
0.673078
0.666425
0.660535
0.65535
0.650834
0.646928
0.643717
0.640663
0.640251
0.631284
0.811244
1.44596
1.51843
1.38771
1.22319
1.07774
0.959467
0.864904
0.789021
0.727532
0.677162
0.635467
0.60062
0.57124
0.54627
0.524891
0.506459
0.490463
0.476496
0.464224
0.453376
0.443728
0.43509
0.427309
0.420241
0.413866
0.408114
0.402887
0.398081
0.393593
0.389218
0.384783
0.379445
0.368886
0.664204
0.797438
0.829303
0.816393
0.786
0.75005
0.713568
0.678572
0.645804
0.615473
0.58757
0.561989
0.538587
0.517201
0.497669
0.479832
0.463541
0.448659
0.435056
0.422617
0.411235
0.400815
0.391269
0.382529
0.374494
0.367082
0.360227
0.353868
0.347943
0.342371
0.337068
0.33189
0.240028
0.336271
0.412116
0.460098
0.486882
0.499679
0.503584
0.501931
0.496826
0.489583
0.481037
0.471736
0.462051
0.452239
0.442475
0.432881
0.423543
0.414516
0.405839
0.397532
0.389609
0.382071
0.374914
0.368129
0.361705
0.355626
0.349879
0.344448
0.339317
0.334469
0.329893
0.325561
0.321475
0.214141
0.250617
0.28448
0.311978
0.332792
0.347803
0.358161
0.364937
0.369005
0.371028
0.371501
0.370795
0.369193
0.366913
0.364124
0.360959
0.357525
0.353906
0.350171
0.346374
0.342558
0.338759
0.335007
0.331324
0.327728
0.32423
0.320843
0.317578
0.314448
0.311471
0.308683
0.306108
0.30394
0.205636
0.221905
0.238559
0.253572
0.26632
0.276745
0.285064
0.291581
0.296592
0.300355
0.303086
0.304962
0.306132
0.306716
0.306816
0.306518
0.305892
0.305
0.303894
0.302617
0.301208
0.299699
0.298117
0.296486
0.294829
0.293168
0.291527
0.28994
0.288459
0.287177
0.286308
0.28622
0.288031
0.202354
0.210348
0.219348
0.228023
0.23585
0.242653
0.248448
0.253326
0.257393
0.260752
0.263496
0.265706
0.267455
0.268806
0.269813
0.270524
0.270981
0.271222
0.271277
0.271175
0.270939
0.270591
0.270151
0.269639
0.269078
0.268502
0.267968
0.267578
0.267553
0.268363
0.270987
0.277182
0.290099
0.201006
0.205072
0.210176
0.215446
0.220438
0.224961
0.228966
0.232475
0.235526
0.238165
0.240435
0.242376
0.244027
0.245421
0.246589
0.24756
0.248356
0.248999
0.249506
0.249892
0.25017
0.250352
0.250454
0.250497
0.250524
0.250619
0.25096
0.251942
0.254405
0.259987
0.271382
0.29215
0.32559
0.200423
0.202484
0.205407
0.208675
0.211941
0.215019
0.217833
0.220371
0.222642
0.224664
0.22646
0.228049
0.229455
0.230698
0.231795
0.232764
0.233617
0.234366
0.235018
0.235579
0.236053
0.23645
0.23679
0.237121
0.237552
0.238338
0.240049
0.243881
0.25203
0.267814
0.295072
0.33685
0.39325
0.200162
0.201172
0.202817
0.20483
0.206972
0.209083
0.21108
0.212932
0.214632
0.216182
0.217591
0.218873
0.220039
0.221101
0.222072
0.22296
0.223772
0.224512
0.225179
0.225772
0.226294
0.22676
0.227217
0.227788
0.228771
0.230848
0.235435
0.245072
0.263428
0.294499
0.341207
0.404216
0.480203
0.200043
0.200503
0.201389
0.202593
0.20397
0.205403
0.206814
0.208164
0.209437
0.210626
0.211733
0.212763
0.213723
0.21462
0.215462
0.216251
0.21699
0.217674
0.218298
0.218859
0.219363
0.219849
0.22043
0.221402
0.223455
0.228047
0.23781
0.256578
0.288538
0.336802
0.402332
0.48355
0.574844
0.199989
0.200164
0.200605
0.201287
0.202138
0.203082
0.204059
0.20503
0.205973
0.20688
0.207745
0.208569
0.209357
0.210111
0.210833
0.211523
0.212177
0.212786
0.213341
0.213841
0.214308
0.21483
0.215653
0.217383
0.221344
0.230023
0.247223
0.277353
0.323985
0.388636
0.470497
0.566452
0.669464
0.199965
0.199994
0.200181
0.200534
0.201027
0.201619
0.20227
0.202948
0.203632
0.204312
0.20498
0.205634
0.206276
0.206903
0.207516
0.20811
0.208676
0.209201
0.209677
0.210108
0.210549
0.211174
0.212444
0.215423
0.222242
0.236426
0.262496
0.304628
0.365192
0.444198
0.539559
0.647148
0.758995
0.199954
0.199911
0.199956
0.200108
0.200365
0.200709
0.201118
0.20157
0.202049
0.202545
0.20305
0.203561
0.204075
0.204591
0.205104
0.205605
0.206082
0.206521
0.206915
0.207284
0.207732
0.208559
0.210519
0.215245
0.225714
0.246258
0.28157
0.335087
0.407926
0.498921
0.605103
0.721649
0.839963
0.199949
0.199871
0.199841
0.199875
0.199982
0.200157
0.200391
0.200672
0.20099
0.201337
0.201707
0.202096
0.202501
0.202917
0.203337
0.20375
0.204141
0.204495
0.20481
0.205132
0.205626
0.206757
0.209625
0.216466
0.231013
0.258079
0.302119
0.365667
0.448773
0.549405
0.663978
0.787166
0.909959
0.199947
0.199853
0.199784
0.199752
0.199767
0.199831
0.199944
0.200101
0.200296
0.200526
0.200786
0.201072
0.201382
0.201709
0.202044
0.202374
0.202683
0.202956
0.203201
0.203491
0.20407
0.205581
0.209485
0.218586
0.237201
0.270334
0.321994
0.393861
0.485147
0.593196
0.713975
0.841792
0.967379
0.199946
0.199845
0.199756
0.199689
0.199651
0.199647
0.199679
0.199749
0.199854
0.199994
0.200166
0.200369
0.200597
0.200847
0.201106
0.201359
0.201591
0.201791
0.201975
0.202249
0.202933
0.204849
0.209792
0.22104
0.243308
0.2816
0.339428
0.417764
0.515189
0.628595
0.753622
0.884316
1.01127
0.199946
0.199841
0.199744
0.199659
0.199591
0.199547
0.199529
0.19954
0.199582
0.199656
0.199761
0.199897
0.200059
0.200242
0.200434
0.20062
0.200783
0.200917
0.201051
0.201317
0.202107
0.204393
0.210243
0.223287
0.248483
0.290731
0.353106
0.436036
0.537651
0.654521
0.782048
0.914093
1.04121
0.199946
0.19984
0.199739
0.199645
0.199563
0.199495
0.199447
0.199422
0.199422
0.199449
0.199505
0.199589
0.199699
0.199827
0.199962
0.20009
0.200195
0.200273
0.200364
0.200624
0.201496
0.204063
0.210576
0.224889
0.252076
0.296914
0.362146
0.447821
0.551777
0.670371
0.798842
0.930925
1.0572
0.199946
0.19984
0.199737
0.19964
0.19955
0.199471
0.199406
0.199358
0.199331
0.199328
0.199349
0.199396
0.199465
0.19955
0.199639
0.19972
0.199776
0.199809
0.199864
0.200113
0.201028
0.203746
0.210605
0.225551
0.253683
0.299677
0.366065
0.45269
0.557235
0.675942
0.803953
0.934936
1.05953
0.199946
0.19984
0.199737
0.199638
0.199545
0.19946
0.199386
0.199326
0.199283
0.19926
0.199259
0.199279
0.199319
0.199371
0.199425
0.199468
0.199487
0.199484
0.199509
0.199739
0.200649
0.203372
0.210233
0.225143
0.253154
0.298871
0.36476
0.45062
0.554099
0.671412
0.797666
0.926519
1.04872
0.199946
0.19984
0.199737
0.199637
0.199543
0.199456
0.199378
0.199312
0.19926
0.199226
0.19921
0.199213
0.199232
0.199261
0.19929
0.199306
0.199297
0.199267
0.199267
0.199468
0.200326
0.202917
0.209455
0.223699
0.250575
0.294655
0.358474
0.441937
0.54278
0.657273
0.780554
0.906315
1.02546
0.199946
0.19984
0.199737
0.199638
0.199543
0.199455
0.199376
0.199307
0.199251
0.199211
0.199187
0.19918
0.199186
0.199201
0.199213
0.199211
0.199183
0.199135
0.199114
0.199279
0.200046
0.202392
0.208339
0.221382
0.246234
0.287449
0.347745
0.427274
0.523985
0.634291
0.753425
0.875168
0.990612
0.199946
0.19984
0.199737
0.199638
0.199544
0.199456
0.199377
0.199307
0.199251
0.199208
0.199182
0.19917
0.19917
0.199177
0.199181
0.199169
0.199132
0.199073
0.199036
0.199161
0.199811
0.201837
0.207007
0.218456
0.240582
0.277891
0.333362
0.407529
0.49868
0.60347
0.717299
0.834094
0.945167
0.199946
0.19984
0.199737
0.199639
0.199545
0.199459
0.199381
0.199313
0.199258
0.199217
0.199192
0.19918
0.199181
0.199187
0.199189
0.199175
0.199137
0.199075
0.199027
0.199112
0.199635
0.201304
0.205605
0.215233
0.234163
0.266773
0.316318
0.383829
0.468065
0.566038
0.673399
0.784281
0.89026
0.199946
0.19984
0.199738
0.19964
0.199548
0.199464
0.199389
0.199325
0.199275
0.19924
0.19922
0.199214
0.19922
0.199231
0.199239
0.199233
0.199201
0.199145
0.199093
0.199142
0.199539
0.200853
0.204275
0.212028
0.227553
0.254969
0.29775
0.357492
0.433558
0.523442
0.623151
0.727102
0.827187
0.199946
0.19984
0.199739
0.199642
0.199553
0.199473
0.199404
0.199348
0.199307
0.199282
0.199274
0.19928
0.199299
0.199324
0.199346
0.199355
0.19934
0.199298
0.199251
0.199274
0.199559
0.200544
0.203148
0.209115
0.221285
0.243352
0.278868
0.329979
0.396764
0.477345
0.568207
0.664149
0.757449
0.199946
0.199841
0.19974
0.199647
0.199563
0.199491
0.199433
0.199391
0.199366
0.19936
0.199372
0.1994
0.199441
0.199488
0.199535
0.199569
0.19958
0.199564
0.199534
0.199544
0.199738
0.200441
0.202331
0.206712
0.215796
0.232709
0.260858
0.302819
0.359439
0.429611
0.510448
0.597257
0.682798
0.199946
0.199841
0.199744
0.199657
0.199584
0.199527
0.199489
0.199472
0.199476
0.199501
0.199546
0.199608
0.199684
0.199767
0.199849
0.19992
0.19997
0.199992
0.199992
0.200007
0.200139
0.200616
0.201919
0.204973
0.2114
0.22366
0.244776
0.277516
0.323427
0.382282
0.451993
0.528535
0.605282
0.199946
0.199844
0.199754
0.199681
0.199629
0.199603
0.199602
0.199629
0.199681
0.199758
0.199855
0.19997
0.200097
0.200231
0.200363
0.200484
0.200585
0.200657
0.200702
0.200742
0.200842
0.201156
0.202005
0.204011
0.208288
0.216621
0.231452
0.255421
0.290559
0.337521
0.395176
0.460371
0.52727
0.199947
0.199852
0.199778
0.199736
0.19973
0.199762
0.199832
0.199936
0.20007
0.200228
0.200406
0.200597
0.200797
0.200999
0.201195
0.201379
0.201542
0.201675
0.201778
0.201859
0.201959
0.202171
0.202696
0.203924
0.206566
0.211811
0.221421
0.237609
0.262525
0.297529
0.342522
0.395439
0.451478
0.199949
0.199873
0.199842
0.19987
0.199959
0.200107
0.200305
0.200541
0.200805
0.201088
0.201381
0.201678
0.201972
0.202259
0.202533
0.202789
0.203019
0.20322
0.203386
0.203521
0.203645
0.20381
0.204128
0.204825
0.206313
0.209306
0.214934
0.224782
0.240721
0.264428
0.296703
0.336717
0.381006
0.199958
0.199934
0.200012
0.2002
0.20049
0.200859
0.201281
0.201732
0.202194
0.202653
0.2031
0.203529
0.203937
0.204319
0.204675
0.205003
0.205299
0.205561
0.205787
0.205976
0.206138
0.206295
0.206503
0.206876
0.207625
0.209129
0.212011
0.217228
0.22608
0.240065
0.260449
0.28754
0.319477
0.199987
0.200121
0.200478
0.201034
0.20173
0.2025
0.203289
0.204062
0.204797
0.205481
0.206111
0.206686
0.20721
0.207684
0.208112
0.208498
0.208842
0.209147
0.209412
0.209639
0.209831
0.209996
0.210157
0.210361
0.2107
0.21134
0.212568
0.214849
0.218886
0.225635
0.236209
0.251513
0.271214
0.200093
0.200715
0.201794
0.203156
0.204622
0.206061
0.207396
0.208598
0.20966
0.21059
0.211399
0.212103
0.212714
0.213246
0.21371
0.214115
0.214467
0.214773
0.215038
0.215263
0.215451
0.215607
0.215738
0.215858
0.215998
0.216214
0.216608
0.217353
0.218725
0.221147
0.22521
0.231634
0.240862
0.200519
0.202711
0.205624
0.208636
0.211417
0.213832
0.215857
0.217523
0.218886
0.219998
0.220904
0.221644
0.222251
0.222749
0.223159
0.223498
0.223776
0.224006
0.224193
0.224343
0.224461
0.224549
0.22461
0.224648
0.224669
0.224686
0.224722
0.22482
0.225052
0.225537
0.226459
0.228092
0.230772
0.202177
0.209481
0.217216
0.223525
0.228271
0.231753
0.234277
0.236103
0.23742
0.238369
0.239048
0.23953
0.239865
0.240091
0.240233
0.24031
0.240336
0.240321
0.240274
0.240199
0.240101
0.239982
0.239843
0.239687
0.239512
0.23932
0.239112
0.238892
0.238668
0.238456
0.238285
0.238201
0.238289
0.208485
0.227569
0.245286
0.258655
0.267521
0.2728
0.275616
0.27692
0.277325
0.277205
0.276782
0.276187
0.275496
0.274754
0.273985
0.273203
0.272417
0.271629
0.270842
0.270057
0.269275
0.268494
0.267715
0.266937
0.266158
0.265377
0.264592
0.263802
0.263003
0.262195
0.261377
0.260549
0.259712
0.248333
0.315157
0.348318
0.362352
0.367326
0.368123
0.366795
0.364173
0.360732
0.356793
0.352581
0.348253
0.34392
0.33966
0.335527
0.331557
0.327772
0.324183
0.320795
0.317608
0.314618
0.311817
0.309196
0.306746
0.304453
0.302307
0.300294
0.298403
0.296621
0.294936
0.293338
0.291817
0.290361
0.205355
0.22113
0.238047
0.254121
0.268983
0.282948
0.29622
0.308879
0.320965
0.332506
0.343524
0.354036
0.364057
0.373602
0.382684
0.391319
0.399519
0.4073
0.414675
0.42166
0.428269
0.434517
0.440419
0.445989
0.451243
0.456194
0.460858
0.465249
0.469382
0.473271
0.47693
0.480371
0.483617
0.669866
0.715092
0.774628
0.842118
0.912899
0.972171
1.0038
0.993961
0.934392
0.824826
0.680233
0.547952
0.515541
0.668361
1.00998
1.45486
1.93527
2.43258
2.93721
3.43657
3.91638
4.36164
4.75727
5.08834
5.33973
5.49588
5.54097
5.46032
5.24477
4.89874
4.44907
3.94676
3.45454
3.02465
2.68218
2.42552
2.2387
2.10341
2.00484
1.93276
1.88059
1.84416
1.82072
1.80839
1.80571
1.81147
1.82463
1.84425
1.86945
1.89943
1.93346
1.97087
2.01107
2.05351
2.09772
2.14326
2.18977
2.23691
2.28438
2.33194
2.37937
2.42645
2.47304
2.51897
2.56412
2.60839
2.65168
2.69392
2.73503
2.77498
2.81371
2.85121
2.88745
2.92242
2.95612
2.98855
3.01973
3.04967
3.07839
3.10592
3.13229
3.15753
3.18167
3.20475
3.2268
3.24786
3.26797
3.28715
3.30544
3.32289
3.33952
3.35539
3.37053
3.38501
3.39887
3.41218
3.42499
3.43732
3.4491
3.45916
0.370884
0.364721
0.363035
0.365996
0.372576
0.379865
0.38308
0.377133
0.360818
0.345089
0.362266
0.462528
0.681122
0.999405
1.3739
1.78255
2.2157
2.66511
3.12174
3.57458
4.0111
4.41802
4.78171
5.08807
5.32204
5.46736
5.50667
5.42311
5.20507
4.85526
4.40083
3.89549
3.40536
2.98377
2.65383
2.41066
2.23592
2.11035
2.01912
1.95235
1.90386
1.86983
1.8478
1.83609
1.83339
1.83863
1.85086
1.86919
1.89281
1.92098
1.95301
1.98826
2.02617
2.06623
2.10799
2.15103
2.19501
2.23961
2.28454
2.32958
2.3745
2.41913
2.46329
2.50685
2.5497
2.59172
2.63283
2.67296
2.71205
2.75005
2.78693
2.82265
2.85721
2.89059
2.92279
2.95381
2.98367
3.01239
3.03998
3.06647
3.09188
3.11626
3.13962
3.162
3.18343
3.20395
3.22359
3.24237
3.26034
3.27753
3.29397
3.3097
3.32477
3.33922
3.35312
3.36652
3.37947
3.39202
3.40411
3.41469
0.325792
0.319147
0.312947
0.307243
0.302086
0.297907
0.296562
0.303735
0.332717
0.405949
0.545997
0.757251
1.0254
1.33635
1.6811
2.05273
2.44496
2.85105
3.26315
3.672
4.06714
4.43741
4.77093
5.0548
5.27447
5.41337
5.45303
5.37455
5.16367
4.82052
4.37112
3.87029
3.38647
2.97416
2.65536
2.42317
2.25781
2.1395
2.05352
1.99028
1.94391
1.91088
1.88897
1.87666
1.87279
1.87641
1.88664
1.90269
1.9238
1.94927
1.97846
2.01078
2.04569
2.0827
2.1214
2.16138
2.20232
2.2439
2.28587
2.328
2.37007
2.41192
2.45338
2.49433
2.53465
2.57423
2.613
2.65088
2.68783
2.72379
2.75872
2.79261
2.82543
2.85718
2.88786
2.91746
2.94601
2.97351
2.99998
3.02545
3.04994
3.07348
3.09609
3.11781
3.13867
3.15869
3.1779
3.19634
3.21403
3.23101
3.2473
3.26294
3.27798
3.29245
3.30643
3.31995
3.33309
3.34588
3.35828
3.36941
0.316881
0.311749
0.307056
0.303967
0.305082
0.315365
0.343138
0.399995
0.49758
0.641921
0.831557
1.06132
1.32547
1.619
1.93768
2.27724
2.63293
2.9992
3.36961
3.73674
4.09237
4.42752
4.73226
4.99512
5.20242
5.33772
5.38183
5.31421
5.11795
4.79013
4.35443
3.86522
3.39208
2.99047
2.68208
2.4591
2.30112
2.18828
2.10602
2.045
1.99962
1.96657
1.94381
1.92998
1.92408
1.92523
1.93266
1.94564
1.9635
1.98557
2.01127
2.04003
2.07135
2.10478
2.13991
2.17637
2.21384
2.25202
2.29067
2.32956
2.36849
2.4073
2.44582
2.48395
2.52155
2.55853
2.59482
2.63034
2.66504
2.69888
2.73181
2.76381
2.79486
2.82496
2.8541
2.88228
2.90951
2.9358
2.96118
2.98565
3.00924
3.03198
3.05389
3.07499
3.09531
3.11488
3.13372
3.15186
3.16932
3.18614
3.20233
3.21793
3.23299
3.24754
3.26163
3.27531
3.28867
3.30173
3.31447
3.32618
0.301958
0.301471
0.305426
0.318492
0.346975
0.397646
0.476071
0.585422
0.726561
0.898811
1.10052
1.32945
1.58302
1.85849
2.15296
2.4631
2.785
3.11415
3.44548
3.77336
4.09163
4.39345
4.67084
4.91391
5.11012
5.24355
5.29476
5.24197
5.06594
4.76051
4.34612
3.87521
3.4172
3.02813
2.73003
2.51514
2.3632
2.25458
2.17497
2.11529
2.07013
2.03634
2.01207
1.99609
1.98752
1.98559
1.98964
1.99899
2.01304
2.03119
2.05288
2.07761
2.1049
2.13432
2.16548
2.19804
2.23169
2.26616
2.30119
2.33658
2.37212
2.40767
2.44307
2.47819
2.51292
2.54718
2.58087
2.61393
2.6463
2.67794
2.70881
2.73888
2.76814
2.79657
2.82416
2.85092
2.87684
2.90195
2.92625
2.94975
2.97248
2.99445
3.01569
3.03621
3.05605
3.07521
3.09372
3.11161
3.1289
3.14561
3.16176
3.17738
3.1925
3.20716
3.22142
3.23531
3.24891
3.26227
3.27538
3.28768
0.293332
0.308066
0.337094
0.385143
0.454883
0.547099
0.661769
0.798796
0.958076
1.13928
1.34168
1.56405
1.80475
2.06176
2.33269
2.61476
2.90472
3.199
3.49377
3.785
4.06837
4.33893
4.59057
4.81504
5.00109
5.13366
5.19349
5.15809
5.00632
4.72886
4.34231
3.8959
3.45751
3.08321
2.79583
2.58853
2.44184
2.33667
2.25907
2.20018
2.15475
2.11981
2.09361
2.07508
2.06345
2.05806
2.05832
2.06366
2.07352
2.08738
2.10472
2.12507
2.14799
2.17308
2.19998
2.22836
2.25793
2.28843
2.31961
2.35128
2.38325
2.41536
2.44747
2.47944
2.51118
2.54259
2.57358
2.6041
2.63408
2.66347
2.69223
2.72034
2.74778
2.77452
2.80056
2.8259
2.85053
2.87446
2.8977
2.92026
2.94215
2.96339
2.984
3.00399
3.02337
3.04218
3.06042
3.07811
3.09527
3.11192
3.12808
3.14377
3.15901
3.17385
3.18831
3.20246
3.21634
3.23003
3.24353
3.25643
0.313901
0.357985
0.421732
0.504783
0.605799
0.723636
0.857741
1.00802
1.17454
1.35716
1.55541
1.76836
1.99468
2.23267
2.48029
2.73518
2.99475
3.25626
3.517
3.7743
4.02539
4.26699
4.49465
4.70172
4.87837
5.01061
5.07976
5.06315
4.93831
4.69303
4.33979
3.92348
3.50914
3.1522
2.87652
2.67687
2.53513
2.43307
2.35718
2.29882
2.25293
2.21664
2.18834
2.16708
2.15219
2.14314
2.13941
2.14052
2.14598
2.15532
2.16808
2.18384
2.20218
2.22273
2.24516
2.26917
2.29447
2.32081
2.34797
2.37577
2.404
2.43253
2.46122
2.48993
2.51857
2.54704
2.57526
2.60316
2.63067
2.65777
2.68439
2.71051
2.7361
2.76114
2.78562
2.80953
2.83287
2.85564
2.87784
2.89948
2.92056
2.9411
2.96111
2.9806
2.99958
3.01807
3.03607
3.05361
3.0707
3.08734
3.10356
3.11937
3.13478
3.14984
3.16456
3.179
3.19322
3.20727
3.22117
3.23468
0.375387
0.449873
0.541779
0.648904
0.769416
0.902224
1.04688
1.20334
1.37161
1.55156
1.74272
1.94427
2.15502
2.37352
2.59803
2.82664
3.05735
3.28822
3.51751
3.74367
3.96524
4.18032
4.38591
4.57686
4.74474
4.87684
4.95541
4.95809
4.86165
4.65151
4.33589
3.95461
3.56861
3.23189
2.96939
2.77797
2.64135
2.54242
2.46825
2.41046
2.36413
2.32653
2.29615
2.27217
2.25402
2.24127
2.23351
2.23033
2.23132
2.23606
2.24415
2.2552
2.26885
2.28476
2.3026
2.32211
2.34301
2.36508
2.38811
2.41191
2.43631
2.46115
2.48632
2.51168
2.53713
2.56258
2.58795
2.61317
2.63818
2.66292
2.68736
2.71145
2.73517
2.7585
2.78141
2.80389
2.82594
2.84755
2.86872
2.88944
2.90974
2.9296
2.94903
2.96805
2.98666
3.00487
3.02269
3.04012
3.05717
3.07386
3.09018
3.10615
3.12179
3.13711
3.15214
3.16692
3.1815
3.19594
3.21028
3.2244
0.466368
0.563928
0.675256
0.798168
0.930978
1.07267
1.22279
1.38116
1.54771
1.7222
1.90417
2.09284
2.28719
2.48598
2.6878
2.89119
3.09472
3.29718
3.49765
3.69553
3.89039
4.08146
4.26698
4.44311
4.60282
4.73478
4.82241
4.84412
4.77655
4.60328
4.3285
3.98636
3.63271
3.31926
3.07184
2.88972
2.75881
2.66339
2.59123
2.53428
2.48777
2.44909
2.41686
2.39033
2.36908
2.35277
2.34109
2.3337
2.33028
2.33047
2.33391
2.34027
2.34921
2.36044
2.37366
2.38862
2.40508
2.42282
2.44164
2.46137
2.48186
2.50295
2.52452
2.54645
2.56865
2.59102
2.61348
2.63597
2.65841
2.68076
2.70297
2.72501
2.74683
2.76841
2.78972
2.81076
2.83151
2.85195
2.87209
2.89191
2.91142
2.93061
2.94949
2.96806
2.98633
3.00428
3.02193
3.03929
3.05635
3.07311
3.08958
3.10576
3.12166
3.13729
3.15267
3.16783
3.18281
3.19768
3.21248
3.2272
0.571027
0.685004
0.80968
0.943087
1.08361
1.2302
1.38229
1.53958
1.70187
1.86886
2.04009
2.21489
2.39238
2.57158
2.75143
2.93091
3.10914
3.28554
3.45988
3.63235
3.8033
3.9729
4.14036
4.30303
4.45516
4.58682
4.68283
4.72275
4.68364
4.54788
4.31598
4.01619
3.69847
3.41139
3.1813
3.00995
2.88575
2.79455
2.72498
2.66938
2.62316
2.58384
2.55014
2.52143
2.4974
2.47781
2.46245
2.45107
2.44342
2.4392
2.43813
2.43989
2.44422
2.45083
2.45947
2.4699
2.48192
2.49532
2.50992
2.52556
2.54209
2.55938
2.57731
2.59576
2.61465
2.63389
2.65339
2.67308
2.69291
2.71282
2.73276
2.75269
2.77256
2.79236
2.81206
2.83163
2.85105
2.87031
2.8894
2.90831
2.92703
2.94555
2.96388
2.982
2.99993
3.01764
3.03515
3.05245
3.06954
3.08641
3.10305
3.11947
3.13567
3.15165
3.16741
3.18299
3.1984
3.21374
3.229
3.24433
0.678735
0.804415
0.938274
1.07848
1.22341
1.37195
1.5234
1.67734
1.83347
1.99149
2.15096
2.31133
2.47193
2.63204
2.79096
2.94809
3.10306
3.25583
3.40678
3.55668
3.70651
3.85712
4.00855
4.1591
4.30423
4.43537
4.53885
4.5957
4.5839
4.48527
4.29713
4.04192
3.76312
3.50543
3.29515
3.13643
3.02027
2.93434
2.86821
2.81469
2.76943
2.73009
2.69548
2.66512
2.63877
2.61633
2.59767
2.58264
2.57106
2.5627
2.55733
2.5547
2.55457
2.5567
2.56087
2.56687
2.57451
2.58362
2.59402
2.60558
2.61815
2.63162
2.64588
2.66083
2.67637
2.69242
2.7089
2.72575
2.74291
2.76032
2.77794
2.79571
2.81359
2.83157
2.84959
2.86764
2.8857
2.90374
2.92176
2.93972
2.95763
2.97546
2.99322
3.0109
3.02848
3.04595
3.06332
3.08057
3.09769
3.11468
3.13152
3.1482
3.16472
3.18106
3.19724
3.21326
3.22914
3.24496
3.26072
3.27662
0.782961
0.916899
1.05684
1.20103
1.34781
1.496
1.64478
1.79367
1.9423
2.09037
2.23753
2.38337
2.52744
2.66932
2.80864
2.94521
3.07912
3.21079
3.34105
3.47116
3.60256
3.73661
3.87397
4.01375
4.15244
4.28278
4.39269
4.46487
4.47863
4.41582
4.27122
4.06173
3.82413
3.59856
3.41069
3.26674
3.16029
3.08094
3.01935
2.96888
2.92547
2.8869
2.85214
2.82079
2.79275
2.76802
2.74656
2.72834
2.71324
2.70111
2.69177
2.68503
2.68069
2.67856
2.67844
2.68016
2.68354
2.68844
2.69472
2.70224
2.71088
2.72055
2.73113
2.74255
2.7547
2.76753
2.78095
2.79491
2.80934
2.82419
2.83941
2.85496
2.87079
2.88687
2.90316
2.91964
2.93627
2.95304
2.96993
2.9869
3.00395
3.02106
3.03822
3.0554
3.07261
3.08982
3.10703
3.12422
3.14137
3.15847
3.1755
3.19245
3.20929
3.22602
3.24262
3.25911
3.27548
3.29179
3.30805
3.32452
0.879422
1.01894
1.16252
1.30845
1.45507
1.60112
1.74573
1.88835
2.02861
2.16623
2.30097
2.4326
2.5609
2.68571
2.80702
2.92501
3.04014
3.15322
3.26548
3.37848
3.49403
3.61383
3.73901
3.86929
4.00209
4.13136
4.24656
4.33222
4.3693
4.34023
4.2379
4.07418
3.8792
3.68807
3.52514
3.39827
3.30346
3.23227
3.17657
3.13035
3.08984
3.05304
3.01903
2.98754
2.95858
2.93225
2.90865
2.88781
2.86971
2.85427
2.84138
2.83091
2.82269
2.81657
2.81241
2.81005
2.80935
2.8102
2.81246
2.81603
2.8208
2.8267
2.83362
2.8415
2.85026
2.85982
2.87014
2.88115
2.89278
2.905
2.91776
2.93101
2.9447
2.9588
2.97328
2.9881
3.00324
3.01865
3.03433
3.05024
3.06637
3.08269
3.09918
3.11583
3.13261
3.14951
3.16652
3.1836
3.20075
3.21794
3.23514
3.25233
3.26949
3.2866
3.30363
3.32058
3.33744
3.35426
3.37102
3.38802
0.965157
1.10809
1.25335
1.39926
1.54416
1.68674
1.82611
1.9617
2.09315
2.22025
2.34288
2.46098
2.57457
2.68377
2.78886
2.89036
2.98904
3.08605
3.18288
3.28134
3.38345
3.49117
3.60593
3.72795
3.85538
3.98328
4.10261
4.19976
4.25756
4.25948
4.19719
4.0782
3.9263
3.77132
3.63567
3.52821
3.44715
3.38594
3.33769
3.2971
3.26078
3.22691
3.19473
3.16409
3.13513
3.10805
3.08306
3.0603
3.03983
3.02166
3.00573
2.99198
2.98029
2.97055
2.96266
2.95649
2.95195
2.94893
2.94733
2.94707
2.94807
2.95026
2.95357
2.95792
2.96327
2.96956
2.97673
2.98472
2.9935
3.00302
3.01322
3.02407
3.03553
3.04756
3.06012
3.07318
3.08671
3.10067
3.11504
3.12979
3.1449
3.16033
3.17607
3.19209
3.20838
3.2249
3.24163
3.25855
3.27564
3.29285
3.31018
3.32758
3.34502
3.36247
3.37991
3.3973
3.41465
3.43196
3.44922
3.46673
1.03813
1.18272
1.3281
1.47263
1.61464
1.75285
1.88634
2.01455
2.13717
2.25405
2.36522
2.47079
2.571
2.66623
2.75704
2.8442
2.92878
3.01214
3.096
3.18232
3.27325
3.37088
3.47684
3.59172
3.71427
3.84051
3.9628
4.06936
4.14506
4.17471
4.14939
4.07306
3.96372
3.84586
3.7394
3.65362
3.58847
3.5392
3.50016
3.46678
3.43608
3.40648
3.37738
3.34875
3.32084
3.29399
3.26851
3.24465
3.22256
3.20232
3.18397
3.16749
3.15282
3.1399
3.12866
3.11903
3.11093
3.10428
3.09903
3.09512
3.09247
3.09105
3.0908
3.09167
3.09363
3.09662
3.1006
3.10554
3.11139
3.11811
3.12567
3.13403
3.14314
3.15297
3.16349
3.17467
3.18646
3.19884
3.21178
3.22524
3.2392
3.25363
3.2685
3.28378
3.29945
3.31548
3.33184
3.3485
3.36544
3.38261
3.39998
3.41751
3.43517
3.45292
3.47071
3.48851
3.50631
3.52409
3.54182
3.55978
1.09706
1.24189
1.38618
1.52832
1.66667
1.79996
1.9273
2.04815
2.16225
2.26955
2.37021
2.4645
2.55287
2.63592
2.71444
2.78944
2.86219
2.93425
3.00744
3.08383
3.16563
3.25498
3.35361
3.46236
3.58045
3.70473
3.82884
3.94276
4.03337
4.08713
4.09507
4.05839
3.99005
3.90941
3.83351
3.77139
3.72429
3.68898
3.66102
3.63657
3.61309
3.58926
3.56462
3.5393
3.51365
3.48815
3.46321
3.43919
3.41634
3.39483
3.37476
3.35619
3.33912
3.32354
3.30942
3.29673
3.28542
3.27547
3.26682
3.25946
3.25335
3.24845
3.24474
3.2422
3.24079
3.24049
3.24127
3.2431
3.24596
3.24981
3.25462
3.26036
3.267
3.27451
3.28285
3.29199
3.3019
3.31254
3.32388
3.3359
3.34856
3.36183
3.37568
3.39007
3.40499
3.42039
3.43624
3.45252
3.46917
3.48618
3.50349
3.52106
3.53884
3.55679
3.57486
3.59301
3.61119
3.62939
3.64754
3.6659
1.14123
1.28519
1.4275
1.56657
1.70082
1.82899
1.95024
2.06406
2.17026
2.26888
2.3602
2.44465
2.52285
2.59559
2.66384
2.72881
2.79193
2.85486
2.91952
2.98799
3.0625
3.14517
3.23776
3.34125
3.45524
3.57727
3.7021
3.82135
3.92389
3.99791
4.03489
4.03408
4.00422
3.95999
3.91529
3.87839
3.85126
3.8319
3.81693
3.80322
3.78868
3.77223
3.75358
3.733
3.71097
3.68806
3.66482
3.6417
3.61907
3.59718
3.57621
3.55629
3.5375
3.51986
3.5034
3.48813
3.47405
3.46115
3.44944
3.43891
3.42955
3.42136
3.41433
3.40847
3.40376
3.4002
3.39778
3.39648
3.39628
3.39718
3.39915
3.40217
3.4062
3.41124
3.41724
3.42418
3.43203
3.44075
3.45033
3.46072
3.47189
3.48381
3.49645
3.50978
3.52376
3.53836
3.55353
3.56926
3.58548
3.60217
3.61927
3.63674
3.65451
3.67255
3.69079
3.70918
3.72766
3.7462
3.76471
3.78339
1.17046
1.31269
1.45238
1.588
1.71798
1.84112
1.95661
2.064
2.16315
2.2542
2.33752
2.41369
2.48346
2.54777
2.60776
2.66475
2.72029
2.77611
2.83416
2.89652
2.96535
3.04272
3.13038
3.22936
3.33953
3.459
3.58353
3.70618
3.81772
3.90811
3.96961
4.00026
4.0055
3.99589
3.98222
3.97148
3.9659
3.9643
3.96418
3.96305
3.95921
3.95184
3.94082
3.92652
3.90955
3.89061
3.87034
3.84932
3.82799
3.80673
3.78579
3.76537
3.74561
3.72662
3.70845
3.69117
3.67482
3.65944
3.64505
3.63168
3.61936
3.60811
3.59796
3.58893
3.58103
3.57427
3.56867
3.56424
3.56096
3.55885
3.55788
3.55806
3.55937
3.56178
3.56528
3.56984
3.57545
3.58206
3.58966
3.59821
3.60768
3.61805
3.62927
3.64131
3.65415
3.66773
3.68202
3.69699
3.71259
3.72877
3.74548
3.76266
3.78027
3.79823
3.81649
3.83498
3.85365
3.87241
3.89118
3.91009
1.18493
1.32479
1.46147
1.59346
1.71925
1.83768
1.94797
2.04971
2.14284
2.22756
2.30433
2.37382
2.43691
2.49465
2.54829
2.59923
2.64909
2.69964
2.7528
2.81061
2.87516
2.94841
3.03204
3.12711
3.23368
3.35029
3.47355
3.59783
3.71558
3.81852
3.89991
3.95722
3.99346
4.01577
4.03203
4.04768
4.06468
4.08234
4.09875
4.11195
4.12057
4.124
4.12229
4.1159
4.10555
4.09204
4.07612
4.05848
4.03967
4.02014
4.00026
3.98029
3.96044
3.94088
3.92173
3.9031
3.88508
3.86773
3.85113
3.83534
3.82042
3.80643
3.7934
3.7814
3.77047
3.76063
3.75194
3.7444
3.73804
3.73288
3.72892
3.72616
3.72462
3.72427
3.7251
3.72711
3.73028
3.73457
3.73998
3.74647
3.75401
3.76258
3.77214
3.78265
3.7941
3.80642
3.8196
3.83357
3.84831
3.86375
3.87984
3.89654
3.91376
3.93146
3.94955
3.96798
3.98666
4.00551
4.02441
4.04343
1.18511
1.32212
1.45556
1.58395
1.7058
1.81999
1.92578
2.02281
2.11105
2.19075
2.26244
2.32688
2.385
2.43795
2.48702
2.5337
2.5796
2.62649
2.67626
2.73088
2.7923
2.8624
2.94275
3.03438
3.13747
3.25093
3.37206
3.49636
3.61777
3.72964
3.82636
3.90533
3.96792
4.01865
4.06282
4.10421
4.14418
4.18211
4.21641
4.24548
4.2682
4.28412
4.29338
4.29655
4.29442
4.28788
4.27778
4.2649
4.2499
4.23332
4.21562
4.19715
4.17818
4.15895
4.13964
4.12041
4.10139
4.0827
4.06445
4.04674
4.02966
4.0133
3.99773
3.98304
3.9693
3.95656
3.94489
3.93434
3.92494
3.91674
3.90976
3.90401
3.89952
3.89629
3.89431
3.8936
3.89414
3.89591
3.8989
3.90309
3.90845
3.91497
3.92261
3.93134
3.94112
3.95192
3.9637
3.97642
3.99002
4.00447
4.01969
4.03564
4.05224
4.06943
4.08714
4.10528
4.12379
4.14254
4.16141
4.18041
1.17164
1.30547
1.43557
1.56047
1.67875
1.78928
1.89137
1.98467
2.06918
2.14519
2.21327
2.2742
2.32898
2.37878
2.42495
2.46895
2.51242
2.55707
2.60474
2.65728
2.71654
2.78426
2.8619
2.95044
3.05013
3.16015
3.27839
3.40129
3.52409
3.64158
3.7493
3.84493
3.92891
4.0039
4.07308
4.13866
4.20117
4.25973
4.31283
4.35899
4.39723
4.42716
4.44899
4.46332
4.471
4.47299
4.47021
4.46353
4.45371
4.44138
4.42707
4.41123
4.3942
4.37629
4.35774
4.33875
4.31952
4.30021
4.28096
4.26191
4.2432
4.22494
4.20724
4.19022
4.17398
4.15859
4.14415
4.13074
4.11842
4.10724
4.09725
4.0885
4.08101
4.07481
4.06991
4.06633
4.06407
4.06313
4.06349
4.06516
4.0681
4.07231
4.07776
4.08441
4.09225
4.10124
4.11134
4.1225
4.13468
4.14784
4.1619
4.17682
4.19253
4.20894
4.226
4.24361
4.2617
4.28014
4.29879
4.31759
1.14526
1.27568
1.40239
1.524
1.63909
1.74659
1.84578
1.93633
2.01825
2.09184
2.15768
2.21656
2.26949
2.31765
2.36237
2.40511
2.44746
2.49108
2.53771
2.58909
2.64696
2.7129
2.78825
2.87395
2.97026
3.0766
3.1913
3.3116
3.43383
3.554
3.66876
3.77628
3.87661
3.9712
4.06173
4.14906
4.23279
4.31159
4.38375
4.44774
4.50254
4.54775
4.58355
4.61053
4.62954
4.64158
4.64763
4.64862
4.64538
4.63864
4.62901
4.61701
4.60306
4.58753
4.57074
4.55293
4.53436
4.51523
4.49573
4.47604
4.45632
4.43673
4.41741
4.39851
4.38015
4.36246
4.34555
4.32951
4.31444
4.30042
4.28753
4.27582
4.26535
4.25615
4.24827
4.24172
4.23653
4.23271
4.23026
4.22919
4.22949
4.23114
4.23413
4.23845
4.24406
4.25093
4.25904
4.26834
4.27879
4.29034
4.30294
4.31652
4.33102
4.34636
4.36247
4.37927