/*--------------------------------*- C++ -*----------------------------------*\
| =========                 |                                                 |
| \\      /  F ield         | OpenFOAM: The Open Source CFD Toolbox           |
|  \\    /   O peration     | Version:  4.1                                   |
|   \\  /    A nd           | Web:      www.OpenFOAM.org                      |
|    \\/     M anipulation  |                                                 |
\*---------------------------------------------------------------------------*/
FoamFile
{
    version     2.0;
    format      ascii;
    class       volScalarField;
    location    "100";
    object      nut;
}
// * * * * * * * * * * * * * * * * * * * * * * * * * * * * * * * * * * * * * //

dimensions      [0 2 -1 0 0 0 0];

internalField   nonuniform List<scalar> 
6820
(
3.54368e-05
5.06717e-05
6.2158e-05
6.89891e-05
7.29463e-05
7.51616e-05
7.62831e-05
7.66908e-05
7.66256e-05
7.62484e-05
7.56694e-05
7.49652e-05
7.419e-05
7.33821e-05
7.25686e-05
7.17684e-05
7.0995e-05
7.02572e-05
6.95612e-05
6.89108e-05
6.83081e-05
6.77544e-05
6.72498e-05
6.67941e-05
6.63878e-05
6.60264e-05
6.57068e-05
6.54271e-05
6.51842e-05
6.49835e-05
6.47918e-05
6.47695e-05
6.42605e-05
0.00135031
0.000930447
0.000725646
0.000570123
0.000453674
0.000372699
0.000316831
0.000277222
0.000248172
0.000226209
0.000209179
0.000195694
0.000184831
0.000175958
0.00016863
0.000162525
0.000157403
0.000153084
0.000149427
0.000146326
0.000143694
0.000141463
0.000139582
0.000138006
0.000136707
0.000135592
0.000134622
0.000133791
0.000133102
0.000132577
0.000132212
0.000132171
0.000132131
0.003444
0.00180054
0.00133735
0.00108095
0.000912556
0.000791784
0.00070129
0.00063149
0.000576304
0.000531712
0.000494998
0.000464288
0.000438256
0.000415942
0.000396637
0.000379808
0.000365043
0.00035202
0.000340484
0.000330229
0.000321086
0.000312916
0.000305604
0.000299053
0.000293129
0.000287868
0.000283276
0.00027932
0.000275976
0.000273261
0.000271196
0.000269981
0.000269525
0.00637389
0.00310298
0.00217875
0.00173347
0.00146631
0.0012845
0.00115117
0.00104859
0.000966997
0.000900472
0.000845168
0.00079847
0.000758527
0.000723997
0.000693877
0.000667406
0.000643995
0.000623181
0.000604596
0.00058794
0.000572971
0.000559487
0.000547281
0.000536254
0.000526393
0.000517622
0.000509887
0.000503158
0.000497436
0.000492766
0.00048923
0.000487034
0.000486281
0.00899727
0.00527265
0.00366231
0.00284215
0.00235798
0.00203939
0.00181308
0.00164339
0.00151103
0.0014047
0.00131734
0.00124427
0.00118227
0.00112904
0.0010829
0.00104258
0.00100712
0.000975754
0.000947887
0.000923033
0.000900764
0.000880782
0.00086291
0.000846934
0.000832687
0.00082005
0.000808941
0.000799327
0.00079123
0.000784739
0.000780061
0.000777519
0.00077787
0.0103765
0.00752956
0.00561383
0.00443475
0.00367851
0.00316373
0.00279405
0.00251676
0.00230143
0.00212954
0.00198928
0.00187278
0.0017746
0.00169086
0.00161875
0.00155613
0.00150139
0.00145327
0.00141073
0.00137299
0.00133948
0.00130967
0.00128311
0.00125946
0.00123844
0.00121985
0.00120359
0.00118966
0.00117823
0.00116981
0.00116551
0.00116739
0.00118054
0.0109773
0.00922082
0.00752222
0.0062251
0.00528241
0.00459151
0.00407266
0.00367262
0.00335658
0.0031016
0.00289218
0.00271755
0.0025701
0.00244427
0.00233592
0.00224193
0.00215987
0.00208781
0.00202434
0.00196823
0.00191847
0.00187424
0.00183483
0.00179973
0.00176852
0.00174099
0.00171719
0.00169767
0.00168388
0.0016791
0.00168967
0.00172626
0.00180627
0.0112223
0.0102597
0.00902121
0.00786291
0.00689923
0.00612608
0.0055084
0.005011
0.00460559
0.00427089
0.00399123
0.00375498
0.00355348
0.0033802
0.0032301
0.00309924
0.0029846
0.00288374
0.00279465
0.00271567
0.0026454
0.00258269
0.00252661
0.00247649
0.00243198
0.00239333
0.00236191
0.00234121
0.00233868
0.00236775
0.0024487
0.00260491
0.00285148
0.0113196
0.0108282
0.0100352
0.00914762
0.00830475
0.00756073
0.00692348
0.0063831
0.00592503
0.00553521
0.00520161
0.00491437
0.00466557
0.00444886
0.00425914
0.00409235
0.00394515
0.00381475
0.0036988
0.00359533
0.00350265
0.00341938
0.00334452
0.00327759
0.00321916
0.00317178
0.00314188
0.00314262
0.00319632
0.00333272
0.00357861
0.0039414
0.00439204
0.0113579
0.0111183
0.0106541
0.0100468
0.00939396
0.00876016
0.00817643
0.00765294
0.00718933
0.00678083
0.00642127
0.00610446
0.00582476
0.0055772
0.00535756
0.0051622
0.00498795
0.00483209
0.00469221
0.00456622
0.00445237
0.0043493
0.00425641
0.00417448
0.00410719
0.00406389
0.00406348
0.004137
0.00432258
0.00464832
0.00511137
0.0056715
0.00625634
0.0113728
0.0112597
0.0110051
0.0106238
0.0101646
0.00967592
0.00919174
0.00873159
0.00830467
0.00791405
0.00755941
0.00723879
0.00694954
0.00668882
0.0064538
0.00624182
0.00605034
0.00587703
0.00571972
0.00557648
0.00544575
0.00532674
0.00522022
0.00513035
0.00506821
0.00505673
0.00513395
0.00534614
0.00572491
0.00626134
0.00690265
0.00757394
0.00819568
0.0113787
0.0113263
0.0111933
0.0109696
0.0106709
0.0103241
0.00995497
0.00958295
0.00922082
0.00887606
0.00855257
0.0082519
0.00797419
0.00771876
0.00748441
0.00726966
0.00707288
0.00689234
0.00672633
0.00657335
0.00643246
0.00630413
0.00619219
0.0061075
0.00607398
0.00613348
0.00634023
0.00673497
0.00731175
0.00801088
0.00874725
0.00944317
0.0100367
0.0113809
0.0113569
0.01129
0.0111656
0.0109834
0.0107541
0.0104924
0.0102129
0.00992728
0.009644
0.00936887
0.00910555
0.00885618
0.00862175
0.0084025
0.00819808
0.00800776
0.00783048
0.00766515
0.00751091
0.00736787
0.00723885
0.00713281
0.00707114
0.00709486
0.00726358
0.0076323
0.00821051
0.00894235
0.00973324
0.0104939
0.011163
0.0117015
0.0113818
0.0113707
0.0113378
0.0112716
0.0111663
0.0110235
0.0108496
0.0106529
0.0104418
0.0102236
0.0100041
0.0097875
0.00957688
0.00937426
0.00918082
0.00899706
0.00882296
0.0086581
0.008502
0.00835462
0.00821765
0.00809729
0.00800992
0.00799047
0.00809768
0.00840017
0.00893434
0.0096651
0.0104967
0.0113235
0.012069
0.0126924
0.0131735
0.0113822
0.0113767
0.0113607
0.0113266
0.0112685
0.0111841
0.0110748
0.0109443
0.0107973
0.010639
0.0104739
0.0103058
0.0101378
0.00997226
0.0098107
0.00965411
0.00950291
0.00935717
0.00921697
0.0090832
0.00895954
0.0088566
0.00879984
0.008839
0.00904711
0.00948974
0.0101716
0.0110156
0.0119041
0.0127362
0.0134535
0.0140323
0.0144655
0.0113823
0.0113793
0.0113714
0.0113542
0.0113232
0.0112755
0.0112102
0.011128
0.0110312
0.0109226
0.0108051
0.0106816
0.0105547
0.0104264
0.0102984
0.0101715
0.0100465
0.00992366
0.00980358
0.00968813
0.00958321
0.00950453
0.0094874
0.00959554
0.00991062
0.0104853
0.0112896
0.0122149
0.0131359
0.0139637
0.0146554
0.0152004
0.0155996
0.0113824
0.0113804
0.0113763
0.0113675
0.0113514
0.0113254
0.0112881
0.0112388
0.0111782
0.0111074
0.0110281
0.010942
0.0108511
0.0107567
0.0106601
0.0105622
0.0104636
0.0103646
0.0102664
0.0101716
0.0100886
0.0100382
0.0100653
0.0102453
0.0106633
0.0113543
0.0122576
0.0132441
0.0141892
0.0150155
0.0156925
0.0162179
0.0165976
0.0113824
0.0113809
0.0113784
0.0113738
0.0113654
0.0113516
0.011331
0.0113028
0.0112665
0.0112226
0.0111718
0.0111148
0.0110528
0.0109867
0.0109174
0.0108453
0.0107709
0.0106947
0.0106178
0.0105439
0.0104835
0.0104621
0.010533
0.0107806
0.0112898
0.0120788
0.0130631
0.0141014
0.0150719
0.0159062
0.0165824
0.0171031
0.0174771
0.0113824
0.0113811
0.0113794
0.0113767
0.0113722
0.0113649
0.0113539
0.0113382
0.0113175
0.0112915
0.0112605
0.0112246
0.0111845
0.0111405
0.011093
0.0110423
0.0109886
0.0109322
0.0108746
0.01082
0.0107807
0.010786
0.0108956
0.0112003
0.011784
0.0126522
0.0137044
0.0147915
0.0157939
0.0166488
0.0173388
0.0178693
0.0182502
0.0113824
0.0113812
0.0113798
0.011378
0.0113754
0.0113715
0.0113656
0.0113571
0.0113457
0.0113311
0.011313
0.0112916
0.0112669
0.0112391
0.0112081
0.011174
0.0111367
0.0110966
0.0110552
0.0110171
0.0109958
0.0110229
0.0111622
0.0115089
0.0121468
0.0130752
0.0141842
0.0153203
0.0163632
0.0172516
0.0179697
0.0185236
0.018923
0.0113824
0.0113812
0.01138
0.0113786
0.0113769
0.0113746
0.0113714
0.0113669
0.0113608
0.0113529
0.0113429
0.0113308
0.0113164
0.0112997
0.0112804
0.0112584
0.0112335
0.0112059
0.0111772
0.0111522
0.0111447
0.0111873
0.011345
0.0117153
0.0123845
0.0133523
0.0145071
0.0156921
0.0167836
0.0177179
0.0184774
0.0190671
0.0194958
0.0113824
0.0113812
0.01138
0.0113788
0.0113775
0.011376
0.0113741
0.0113717
0.0113686
0.0113645
0.0113593
0.0113528
0.011345
0.0113354
0.011324
0.0113103
0.0112941
0.0112756
0.0112562
0.0112407
0.0112425
0.0112935
0.0114575
0.0118319
0.0125072
0.013491
0.0146777
0.015909
0.017055
0.0180456
0.0188582
0.0194953
0.0199631
0.0113824
0.0113812
0.0113801
0.0113789
0.0113778
0.0113767
0.0113755
0.0113741
0.0113724
0.0113704
0.0113679
0.0113647
0.0113606
0.0113555
0.0113489
0.0113406
0.0113301
0.0113176
0.0113045
0.0112952
0.0113022
0.0113549
0.0115135
0.0118728
0.0125281
0.0135014
0.0147009
0.0159708
0.0171732
0.0182275
0.0191034
0.0197979
0.020314
0.0113824
0.0113812
0.0113801
0.011379
0.011378
0.011377
0.0113761
0.0113752
0.0113743
0.0113733
0.0113721
0.0113706
0.0113687
0.011366
0.0113621
0.0113568
0.0113497
0.0113408
0.0113313
0.0113253
0.0113337
0.0113827
0.0115262
0.0118534
0.0124632
0.013396
0.0145828
0.015876
0.0171305
0.0182521
0.0191986
0.0199593
0.0205319
0.0113824
0.0113812
0.0113801
0.011379
0.011378
0.0113771
0.0113764
0.0113757
0.0113751
0.0113745
0.0113739
0.0113731
0.011372
0.0113703
0.0113676
0.0113636
0.0113579
0.0113505
0.0113425
0.0113372
0.011344
0.0113848
0.0115062
0.0117882
0.0123297
0.0131906
0.014332
0.0156241
0.0169179
0.018104
0.0191247
0.019958
0.0205942
0.0113824
0.0113812
0.0113801
0.0113791
0.0113781
0.0113772
0.0113765
0.0113758
0.0113752
0.0113747
0.011374
0.0113731
0.0113719
0.0113699
0.011367
0.0113626
0.0113566
0.0113488
0.0113401
0.0113332
0.0113357
0.0113654
0.0114603
0.0116889
0.0121446
0.0129035
0.0139613
0.0152171
0.0165263
0.0177652
0.0188579
0.0197669
0.0204721
0.0113824
0.0113812
0.0113801
0.0113791
0.0113781
0.0113772
0.0113764
0.0113756
0.0113746
0.0113735
0.0113721
0.0113702
0.0113676
0.011364
0.0113592
0.0113527
0.0113443
0.011334
0.0113222
0.0113114
0.0113072
0.0113235
0.0113898
0.0115614
0.0119213
0.0125535
0.0134876
0.0146619
0.0159491
0.0172174
0.0183711
0.0193537
0.0201301
0.0113824
0.0113812
0.0113801
0.0113791
0.0113781
0.011377
0.0113759
0.0113744
0.0113724
0.0113698
0.0113663
0.0113618
0.011356
0.0113488
0.0113397
0.0113286
0.0113152
0.0112994
0.0112817
0.0112638
0.0112502
0.011251
0.0112881
0.0114035
0.0116653
0.0121557
0.0129305
0.0139722
0.015186
0.0164443
0.0176354
0.0186807
0.019526
0.0113824
0.0113813
0.0113801
0.011379
0.0113778
0.0113762
0.0113739
0.0113706
0.0113661
0.01136
0.011352
0.0113421
0.0113299
0.0113154
0.0112983
0.0112786
0.0112561
0.0112308
0.0112031
0.0111745
0.011148
0.0111309
0.0111386
0.0112009
0.0113694
0.0117155
0.0123072
0.0131671
0.0142453
0.0154368
0.016624
0.017708
0.018611
0.0113824
0.0113812
0.0113801
0.0113786
0.0113765
0.0113731
0.0113678
0.0113602
0.0113496
0.0113358
0.0113186
0.0112979
0.0112736
0.0112459
0.0112149
0.0111806
0.0111431
0.0111026
0.0110596
0.0110151
0.0109714
0.0109334
0.0109113
0.010925
0.0110102
0.0112214
0.0116242
0.0122669
0.0131468
0.0141991
0.0153198
0.0163988
0.0173346
0.0113824
0.0113812
0.0113796
0.0113768
0.0113718
0.0113633
0.0113504
0.0113323
0.0113084
0.0112787
0.0112434
0.0112026
0.011157
0.011107
0.0110531
0.0109958
0.0109354
0.0108725
0.0108074
0.0107412
0.0106753
0.010613
0.0105607
0.0105305
0.0105448
0.0106405
0.0108689
0.0112847
0.0119193
0.0127566
0.0137286
0.0147337
0.0156552
0.0113824
0.0113808
0.0113774
0.01137
0.0113564
0.0113343
0.0113027
0.0112609
0.0112094
0.0111488
0.0110804
0.0110053
0.0109247
0.0108399
0.0107518
0.0106613
0.0105691
0.0104758
0.0103821
0.0102886
0.0101963
0.0101072
0.0100249
0.00995618
0.00991353
0.00991847
0.0100043
0.0102148
0.010593
0.0111603
0.011897
0.0127361
0.013568
0.0113824
0.0113788
0.0113685
0.0113462
0.0113078
0.0112514
0.0111771
0.0110864
0.0109821
0.0108671
0.0107441
0.0106157
0.0104841
0.0103509
0.0102176
0.0100851
0.00995423
0.0098255
0.00969936
0.0095762
0.00945655
0.00934131
0.00923217
0.00913236
0.00904785
0.0089892
0.00897392
0.00902822
0.00918566
0.00947936
0.00992617
0.0105076
0.0111519
0.011382
0.0113692
0.0113334
0.0112652
0.0111616
0.0110258
0.0108639
0.0106834
0.0104912
0.010293
0.0100932
0.0098952
0.00970112
0.00951245
0.0093301
0.00915456
0.00898602
0.00882449
0.00866988
0.00852203
0.00838083
0.00824634
0.00811894
0.00799965
0.00789059
0.00779579
0.00772234
0.00768178
0.00769131
0.00777337
0.00795157
0.00823956
0.00861681
0.0113785
0.0113252
0.011201
0.0110031
0.010747
0.0104539
0.0101428
0.00982811
0.00951951
0.00922295
0.0089415
0.00867639
0.00842777
0.00819514
0.00797765
0.00777431
0.00758408
0.00740594
0.00723893
0.00708217
0.00693487
0.00679638
0.00666624
0.00654423
0.00643056
0.00632605
0.00623256
0.00615348
0.00609446
0.00606409
0.00607415
0.00613813
0.00626215
0.0113535
0.0111267
0.0107275
0.0102249
0.00969012
0.00916794
0.00868008
0.00823458
0.00783274
0.00747241
0.00714942
0.00685928
0.00659778
0.00636119
0.00614629
0.00595031
0.00577093
0.00560616
0.0054543
0.0053139
0.00518375
0.00506281
0.00495019
0.00484519
0.00474727
0.0046561
0.00457165
0.00449426
0.00442482
0.00436504
0.00431767
0.00428683
0.00427734
0.0111683
0.010274
0.00924483
0.00829533
0.00749098
0.00682627
0.00627677
0.0058201
0.00543815
0.00511541
0.00483927
0.00460023
0.00439116
0.00420665
0.00404251
0.00389547
0.00376294
0.00364281
0.00353338
0.00343324
0.00334124
0.0032564
0.00317791
0.00310508
0.00303733
0.00297419
0.00291526
0.00286028
0.00280905
0.00276156
0.00271794
0.00267856
0.00264423
0.00982608
0.00723768
0.00577225
0.00486702
0.00424568
0.00378342
0.00342178
0.00313741
0.00290753
0.00271718
0.00255672
0.0024195
0.00230078
0.00219701
0.00210548
0.0020241
0.00195122
0.00188553
0.00182596
0.00177167
0.00172194
0.00167621
0.001634
0.00159491
0.0015586
0.0015248
0.00149327
0.00146382
0.00143627
0.0014105
0.00138638
0.00136385
0.00134285
0.00414175
0.00254168
0.00204413
0.00174804
0.00153983
0.00137644
0.00124448
0.00113653
0.00104749
0.000973314
0.000910824
0.000857581
0.000811726
0.000771848
0.000736866
0.000705946
0.000678437
0.00065382
0.000631686
0.0006117
0.000593592
0.000577139
0.000562157
0.000548493
0.000536017
0.000524617
0.000514201
0.000504686
0.000496
0.00048808
0.000480869
0.000474308
0.000468369
0.000119434
0.000124353
0.000129426
0.000134072
0.000138231
0.000142031
0.000145552
0.000148833
0.000151901
0.000154775
0.00015747
0.00016
0.000162375
0.000164606
0.000166702
0.00016867
0.000170518
0.000172254
0.000173883
0.000175412
0.000176847
0.000178193
0.000179455
0.000180638
0.000181747
0.000182785
0.000183758
0.000184669
0.000185522
0.000186321
0.00018707
0.000187771
0.000188429
7.03692e-05
8.10751e-05
9.58185e-05
0.000114082
0.000135254
0.000157749
0.000179566
0.000198543
0.000212669
0.000220635
0.000224222
0.000237978
0.000317139
0.00059802
0.00122523
0.00213789
0.003189
0.00429532
0.00538578
0.00640402
0.00731528
0.00810116
0.0087555
0.009282
0.00969341
0.0100123
0.0102716
0.0105145
0.0107917
0.0111583
0.0116702
0.012377
0.0133066
0.0144387
0.0156856
0.0169121
0.0179933
0.0188615
0.0195107
0.0199739
0.0202975
0.0205259
0.0206953
0.0208326
0.0209559
0.021077
0.0212028
0.0213365
0.021479
0.0216297
0.021787
0.021949
0.0221135
0.0222784
0.0224416
0.0226015
0.0227564
0.0229052
0.0230467
0.0231802
0.0233049
0.0234205
0.0235266
0.0236231
0.0237098
0.0237869
0.0238543
0.0239122
0.023961
0.0240008
0.0240319
0.0240549
0.02407
0.0240778
0.0240786
0.0240729
0.0240613
0.0240442
0.0240222
0.0239957
0.0239652
0.0239312
0.023894
0.0238542
0.0238121
0.023768
0.0237222
0.023675
0.0236268
0.0235777
0.023528
0.023478
0.023428
0.0233785
0.0233299
0.0232826
0.0232369
0.0231929
0.0231495
0.0231021
0.000134089
0.000138907
0.000145893
0.000154339
0.000163816
0.000174171
0.000185318
0.000197437
0.000212619
0.000240849
0.000315156
0.00051232
0.000928155
0.00157764
0.00240138
0.00333929
0.00433045
0.00532319
0.00627631
0.00715711
0.00794334
0.00862264
0.00919083
0.00965097
0.010014
0.0103004
0.0105419
0.0107821
0.0110745
0.0114798
0.0120628
0.0128832
0.0139744
0.0153055
0.0167579
0.0181571
0.0193531
0.020276
0.0209332
0.0213737
0.0216572
0.0218372
0.021955
0.0220404
0.0221132
0.0221857
0.0222651
0.0223546
0.0224552
0.0225662
0.022686
0.0228126
0.0229437
0.0230771
0.0232109
0.0233431
0.0234723
0.023597
0.0237162
0.0238289
0.0239346
0.0240326
0.0241226
0.0242043
0.0242776
0.0243426
0.0243991
0.0244474
0.0244875
0.0245199
0.0245446
0.0245621
0.0245726
0.0245767
0.0245746
0.0245669
0.0245539
0.0245361
0.0245139
0.0244878
0.0244582
0.0244255
0.02439
0.0243521
0.0243122
0.0242704
0.0242272
0.0241827
0.0241372
0.0240909
0.024044
0.0239969
0.0239498
0.0239031
0.0238574
0.0238129
0.0237701
0.023729
0.0236884
0.0236436
0.000271385
0.000276317
0.000283266
0.000291437
0.000300778
0.000312757
0.000331715
0.000368191
0.00044583
0.000608951
0.000914473
0.00139623
0.00204225
0.00281144
0.00365707
0.00454041
0.0054287
0.00629379
0.0071122
0.0078647
0.00853719
0.00912109
0.00961312
0.0100155
0.0103372
0.0105968
0.010825
0.0110654
0.0113741
0.011818
0.0124713
0.0134051
0.0146589
0.0161918
0.0178523
0.0194249
0.0207341
0.0217092
0.0223711
0.0227857
0.0230259
0.023154
0.0232166
0.0232464
0.0232646
0.0232844
0.0233133
0.0233548
0.0234097
0.0234776
0.0235567
0.023645
0.0237402
0.0238401
0.0239426
0.0240458
0.024148
0.0242479
0.0243442
0.0244359
0.0245224
0.0246029
0.024677
0.0247445
0.024805
0.0248585
0.0249049
0.0249443
0.0249768
0.0250026
0.0250218
0.0250348
0.0250418
0.0250431
0.0250391
0.0250302
0.0250167
0.024999
0.0249775
0.0249525
0.0249245
0.0248937
0.0248605
0.0248251
0.0247879
0.0247491
0.0247089
0.0246675
0.0246251
0.024582
0.0245384
0.0244944
0.0244505
0.024407
0.0243643
0.0243229
0.0242832
0.024245
0.0242072
0.024165
0.000488084
0.000493673
0.000503038
0.000517934
0.000543653
0.000591437
0.000681487
0.000844232
0.00111382
0.00151177
0.00203521
0.00266364
0.00337124
0.00413075
0.00491508
0.00570118
0.00647057
0.00720789
0.00789991
0.00853533
0.00910521
0.00960353
0.0100276
0.0103788
0.0106646
0.0109019
0.0111199
0.0113625
0.0116883
0.01217
0.0128912
0.0139345
0.0153459
0.0170747
0.0189373
0.0206781
0.0220971
0.0231227
0.0237892
0.0241784
0.024376
0.0244526
0.0244599
0.0244334
0.024396
0.0243617
0.0243384
0.0243299
0.0243374
0.0243602
0.0243967
0.0244451
0.0245029
0.0245679
0.0246379
0.0247111
0.0247856
0.02486
0.024933
0.0250036
0.0250708
0.0251339
0.0251924
0.0252459
0.0252941
0.0253367
0.0253736
0.0254049
0.0254304
0.0254504
0.0254649
0.0254742
0.0254784
0.0254778
0.0254727
0.0254633
0.02545
0.0254332
0.025413
0.0253898
0.025364
0.0253357
0.0253052
0.0252729
0.0252389
0.0252034
0.0251667
0.0251288
0.0250901
0.0250506
0.0250105
0.0249701
0.0249297
0.0248897
0.0248504
0.0248123
0.0247758
0.0247407
0.0247057
0.0246661
0.00078287
0.000798556
0.000832414
0.00089808
0.00101471
0.00120345
0.00148082
0.0018528
0.00231419
0.00285257
0.00345174
0.00409439
0.00476466
0.00544838
0.00613203
0.00680321
0.00745142
0.00806775
0.00864448
0.00917477
0.00965292
0.0100747
0.010438
0.0107436
0.0109979
0.0112162
0.0114265
0.0116728
0.012016
0.0125339
0.0133192
0.0144647
0.0160229
0.0179338
0.0199843
0.0218824
0.0234058
0.0244813
0.0251551
0.0255229
0.025682
0.0257108
0.0256657
0.0255852
0.0254936
0.0254061
0.025331
0.0252726
0.0252323
0.0252095
0.025203
0.0252107
0.0252304
0.0252598
0.0252969
0.0253395
0.0253859
0.0254345
0.0254841
0.0255333
0.0255812
0.0256271
0.0256701
0.02571
0.0257461
0.0257782
0.0258062
0.0258298
0.0258489
0.0258637
0.0258741
0.0258803
0.0258823
0.0258804
0.0258748
0.0258657
0.0258532
0.0258377
0.0258194
0.0257986
0.0257754
0.0257502
0.025723
0.0256942
0.0256638
0.0256322
0.0255993
0.0255654
0.0255306
0.0254951
0.025459
0.0254226
0.0253861
0.0253498
0.0253142
0.0252797
0.0252465
0.0252146
0.0251826
0.0251455
0.00121367
0.0012941
0.00144007
0.00166775
0.00198049
0.00236926
0.00281916
0.0033154
0.00384568
0.0044003
0.00497127
0.00555143
0.00613434
0.00671408
0.0072845
0.00783921
0.00837208
0.00887763
0.00935102
0.00978795
0.0101847
0.0105385
0.0108475
0.0111125
0.011339
0.011541
0.0117456
0.0119967
0.0123569
0.0129091
0.0137531
0.0149912
0.0166804
0.0187527
0.02097
0.0230098
0.0246301
0.0257558
0.0264414
0.0267943
0.0269217
0.0269088
0.0268167
0.0266865
0.0265443
0.0264063
0.0262816
0.0261749
0.0260879
0.0260204
0.0259713
0.0259386
0.0259204
0.0259143
0.0259182
0.0259302
0.0259484
0.0259712
0.0259972
0.026025
0.0260537
0.0260824
0.0261102
0.0261365
0.0261608
0.0261828
0.026202
0.0262184
0.0262316
0.0262416
0.0262483
0.0262519
0.0262522
0.0262495
0.0262438
0.0262353
0.0262242
0.0262106
0.0261946
0.0261766
0.0261565
0.0261347
0.0261113
0.0260864
0.0260601
0.0260327
0.0260041
0.0259746
0.0259442
0.0259131
0.0258814
0.0258493
0.025817
0.0257849
0.0257533
0.0257225
0.025693
0.0256645
0.0256354
0.0256009
0.00195227
0.00221254
0.00256868
0.00299921
0.00347598
0.00397511
0.00448106
0.00498578
0.00548613
0.00598143
0.00647162
0.0069563
0.00743446
0.00790443
0.00836372
0.00880902
0.00923667
0.00964307
0.010025
0.0103797
0.0107047
0.0109982
0.011259
0.0114879
0.0116898
0.0118779
0.0120784
0.012335
0.0127119
0.0132956
0.0141924
0.0155113
0.0173122
0.01952
0.0218777
0.0240395
0.0257476
0.0269234
0.0276264
0.0279725
0.0280766
0.0280299
0.0278978
0.0277238
0.027536
0.0273517
0.0271808
0.0270286
0.0268972
0.0267868
0.0266964
0.0266245
0.0265691
0.0265281
0.0264994
0.026481
0.0264712
0.0264683
0.0264708
0.0264774
0.0264869
0.0264984
0.026511
0.026524
0.0265367
0.0265486
0.0265594
0.0265686
0.0265761
0.0265816
0.026585
0.0265862
0.0265852
0.026582
0.0265767
0.0265692
0.0265597
0.0265483
0.0265351
0.0265202
0.0265037
0.0264857
0.0264663
0.0264457
0.026424
0.0264011
0.0263773
0.0263525
0.0263269
0.0263006
0.0262737
0.0262463
0.0262187
0.026191
0.0261637
0.0261371
0.0261114
0.0260864
0.0260604
0.0260285
0.00319907
0.00367627
0.00420247
0.00474031
0.00526442
0.00576243
0.00623143
0.00667398
0.00709487
0.00749915
0.00789094
0.00827306
0.00864697
0.00901296
0.00937026
0.00971714
0.0100513
0.0103704
0.0106721
0.0109548
0.011217
0.0114574
0.0116756
0.0118725
0.0120528
0.0122291
0.0124269
0.0126894
0.0130822
0.0136945
0.0146372
0.0160236
0.0179146
0.0202291
0.0226973
0.0249585
0.0267435
0.0279684
0.0286945
0.0290423
0.0291322
0.0290606
0.0288961
0.0286852
0.0284577
0.0282322
0.0280193
0.0278252
0.0276524
0.0275016
0.0273722
0.0272628
0.0271716
0.0270967
0.0270363
0.0269882
0.0269509
0.0269227
0.026902
0.0268875
0.026878
0.0268724
0.0268698
0.0268694
0.0268706
0.0268725
0.0268749
0.0268771
0.026879
0.0268801
0.0268803
0.0268794
0.0268772
0.0268737
0.0268689
0.0268627
0.0268551
0.0268461
0.0268359
0.0268244
0.0268117
0.0267979
0.0267829
0.026767
0.02675
0.0267322
0.0267134
0.0266938
0.0266734
0.0266523
0.0266306
0.0266083
0.0265857
0.0265629
0.0265403
0.0265181
0.0264965
0.0264753
0.0264525
0.0264232
0.00491234
0.00551222
0.00609032
0.00662436
0.00710611
0.00753728
0.00792482
0.00827754
0.00860408
0.00891181
0.00920639
0.00949176
0.00977029
0.0100431
0.0103102
0.0105707
0.0108233
0.0110663
0.0112984
0.0115185
0.0117257
0.0119198
0.0121006
0.0122694
0.0124309
0.0125973
0.0127933
0.0130622
0.0134697
0.0141073
0.0150884
0.0165283
0.0184865
0.0208772
0.0234244
0.0257607
0.0276096
0.0288816
0.0296355
0.0299931
0.030078
0.0299901
0.0298015
0.0295609
0.0292999
0.0290385
0.0287885
0.0285566
0.028346
0.0281579
0.0279919
0.0278472
0.027722
0.0276148
0.0275238
0.027447
0.0273829
0.0273299
0.0272864
0.027251
0.0272226
0.0272001
0.0271824
0.0271687
0.0271582
0.0271502
0.027144
0.0271393
0.0271354
0.0271322
0.0271291
0.0271261
0.0271228
0.0271191
0.0271148
0.0271099
0.0271044
0.0270981
0.027091
0.0270831
0.0270744
0.027065
0.0270547
0.0270437
0.0270318
0.0270193
0.0270059
0.0269919
0.0269771
0.0269616
0.0269454
0.0269286
0.0269114
0.0268939
0.0268763
0.0268589
0.0268417
0.0268245
0.0268052
0.0267786
0.00684569
0.00745454
0.00799378
0.0084602
0.008859
0.00920025
0.00949556
0.00975612
0.00999164
0.0102099
0.0104168
0.0106165
0.0108115
0.0110033
0.0111924
0.0113784
0.0115606
0.011738
0.0119099
0.0120758
0.0122356
0.0123894
0.0125376
0.0126819
0.0128272
0.0129854
0.0131807
0.0134559
0.0138769
0.0145361
0.0155477
0.0170263
0.0190285
0.0214648
0.0240592
0.0264452
0.0283438
0.029659
0.0304439
0.0308183
0.0309066
0.0308111
0.0306061
0.0303428
0.0300547
0.029763
0.0294807
0.0292153
0.0289707
0.0287484
0.0285489
0.0283712
0.0282142
0.0280764
0.0279562
0.0278519
0.0277619
0.0276847
0.0276189
0.027563
0.027516
0.0274766
0.0274438
0.0274167
0.0273944
0.0273762
0.0273614
0.0273495
0.0273398
0.027332
0.0273255
0.0273202
0.0273156
0.0273116
0.0273079
0.0273043
0.0273008
0.0272971
0.0272932
0.0272891
0.0272845
0.0272796
0.0272742
0.0272683
0.0272618
0.0272548
0.0272472
0.027239
0.0272301
0.0272205
0.0272103
0.0271995
0.027188
0.0271762
0.027164
0.0271517
0.0271393
0.0271263
0.0271108
0.0270871
0.00876798
0.00931811
0.00977771
0.0101558
0.0104643
0.0107169
0.0109263
0.011104
0.0112595
0.0114002
0.0115317
0.011658
0.0117818
0.0119045
0.012027
0.0121494
0.0122714
0.0123926
0.0125129
0.0126324
0.0127514
0.0128704
0.0129906
0.013114
0.0132455
0.013397
0.0135923
0.0138736
0.0143065
0.014983
0.0160168
0.0175193
0.0195424
0.0219947
0.0246052
0.0270155
0.0289481
0.0303006
0.031118
0.0315148
0.0316139
0.0315183
0.0313044
0.0310252
0.0307159
0.0303994
0.0300895
0.0297949
0.0295199
0.029267
0.0290367
0.0288287
0.028642
0.0284754
0.0283276
0.028197
0.0280822
0.0279816
0.027894
0.0278181
0.0277526
0.0276964
0.0276484
0.0276078
0.0275736
0.027545
0.0275213
0.0275018
0.027486
0.0274733
0.0274631
0.0274552
0.0274491
0.0274445
0.0274411
0.0274387
0.027437
0.0274359
0.0274352
0.0274347
0.0274343
0.0274339
0.0274334
0.0274328
0.0274319
0.0274306
0.0274289
0.0274268
0.0274241
0.0274208
0.0274169
0.0274123
0.027407
0.0274012
0.0273948
0.027388
0.0273807
0.0273724
0.0273609
0.0273404
0.01055
0.0110182
0.0113915
0.0116845
0.0119117
0.0120872
0.0122237
0.0123318
0.0124203
0.0124962
0.0125648
0.0126297
0.0126936
0.0127582
0.0128245
0.012893
0.0129639
0.0130375
0.013114
0.0131939
0.0132782
0.0133678
0.0134641
0.0135697
0.0136897
0.013836
0.0140318
0.0143187
0.0147613
0.0154506
0.0164975
0.0180089
0.0200307
0.0224709
0.0250681
0.0274777
0.0294277
0.0308099
0.0316592
0.0320822
0.032198
0.0321091
0.0318928
0.0316039
0.0312792
0.0309428
0.0306101
0.0302902
0.0299887
0.0297083
0.0294501
0.0292143
0.0290001
0.0288068
0.0286329
0.0284773
0.0283386
0.0282155
0.0281068
0.0280111
0.0279273
0.0278544
0.0277912
0.0277369
0.0276904
0.0276511
0.0276181
0.0275907
0.0275682
0.0275501
0.0275358
0.0275249
0.0275168
0.0275112
0.0275078
0.0275061
0.027506
0.0275071
0.0275093
0.0275123
0.027516
0.0275201
0.0275245
0.0275291
0.0275338
0.0275384
0.0275428
0.0275469
0.0275506
0.0275538
0.0275565
0.0275584
0.0275597
0.0275602
0.02756
0.0275591
0.0275573
0.0275541
0.027547
0.02753
0.0121461
0.012535
0.0128317
0.0130529
0.0132134
0.0133266
0.0134042
0.0134562
0.0134906
0.0135139
0.0135308
0.0135451
0.0135594
0.0135755
0.0135949
0.0136183
0.0136464
0.0136799
0.0137195
0.0137662
0.0138213
0.0138862
0.0139627
0.0140535
0.0141641
0.0143063
0.0145029
0.0147944
0.0152443
0.015941
0.0169918
0.0184969
0.020496
0.0228979
0.0254544
0.0278393
0.0297896
0.0311923
0.032071
0.0325222
0.0326593
0.0325826
0.0323698
0.0320768
0.0317419
0.0313904
0.031039
0.0306979
0.0303732
0.0300685
0.0297852
0.029524
0.0292845
0.0290661
0.0288678
0.0286885
0.0285271
0.0283822
0.0282529
0.0281378
0.028036
0.0279463
0.0278678
0.0277995
0.0277405
0.02769
0.0276471
0.0276112
0.0275815
0.0275574
0.0275383
0.0275237
0.0275131
0.0275059
0.0275018
0.0275004
0.0275014
0.0275044
0.0275091
0.0275152
0.0275226
0.027531
0.0275402
0.0275499
0.0275601
0.0275705
0.027581
0.0275915
0.0276017
0.0276116
0.027621
0.0276297
0.0276377
0.0276449
0.0276512
0.0276565
0.0276606
0.0276629
0.0276607
0.0276476
0.0135567
0.0138795
0.0141152
0.0142805
0.0143894
0.0144547
0.0144869
0.0144952
0.014487
0.0144683
0.0144437
0.014417
0.0143908
0.0143672
0.0143478
0.0143338
0.0143265
0.0143267
0.0143359
0.0143552
0.0143863
0.0144308
0.014491
0.0145698
0.0146729
0.0148119
0.0150092
0.015304
0.0157579
0.0164562
0.0175008
0.0189845
0.0209407
0.0232802
0.0257711
0.0281086
0.0300419
0.0314546
0.0323583
0.0328379
0.0329993
0.0329395
0.0327353
0.0324432
0.0321027
0.0317407
0.0313746
0.0310158
0.0306713
0.0303451
0.0300395
0.0297552
0.0294925
0.0292509
0.0290296
0.0288279
0.0286447
0.0284789
0.0283295
0.0281954
0.0280757
0.0279692
0.0278752
0.0277926
0.0277206
0.0276583
0.027605
0.0275599
0.0275223
0.0274914
0.0274668
0.0274477
0.0274337
0.0274242
0.0274188
0.0274169
0.0274183
0.0274225
0.0274291
0.027438
0.0274486
0.0274608
0.0274744
0.027489
0.0275044
0.0275205
0.027537
0.0275537
0.0275705
0.027587
0.0276032
0.0276189
0.0276339
0.027648
0.027661
0.0276729
0.0276833
0.0276915
0.0276946
0.0276859
0.0148008
0.0150741
0.0152648
0.0153893
0.0154608
0.0154908
0.0154894
0.0154649
0.0154243
0.0153731
0.0153161
0.0152568
0.0151982
0.0151425
0.0150918
0.0150475
0.0150113
0.0149846
0.014969
0.0149662
0.0149779
0.0150063
0.0150534
0.0151227
0.0152199
0.0153563
0.0155537
0.0158499
0.0163039
0.0169971
0.018025
0.0194724
0.0213664
0.0236217
0.0260243
0.0282937
0.030193
0.031604
0.0325268
0.0330336
0.0332211
0.0331815
0.0329901
0.0327035
0.0323619
0.0319933
0.0316164
0.0312435
0.0308822
0.0305375
0.0302119
0.0299068
0.0296228
0.0293597
0.029117
0.0288941
0.02869
0.0285041
0.0283352
0.0281824
0.0280449
0.0279218
0.027812
0.0277148
0.0276293
0.0275547
0.0274902
0.0274351
0.0273887
0.0273502
0.0273191
0.0272946
0.0272763
0.0272635
0.0272558
0.0272526
0.0272536
0.0272581
0.027266
0.0272768
0.02729
0.0273055
0.0273229
0.0273419
0.0273622
0.0273836
0.0274058
0.0274286
0.0274516
0.0274748
0.0274978
0.0275204
0.0275424
0.0275635
0.0275835
0.0276023
0.0276193
0.0276337
0.0276427
0.0276389
0.0159018
0.0161416
0.0163023
0.0163995
0.0164457
0.0164518
0.016427
0.0163792
0.016315
0.0162399
0.0161583
0.0160742
0.0159904
0.0159097
0.0158343
0.0157662
0.0157072
0.0156592
0.0156241
0.0156039