/*--------------------------------*- C++ -*----------------------------------*\
| =========                 |                                                 |
| \\      /  F ield         | OpenFOAM: The Open Source CFD Toolbox           |
|  \\    /   O peration     | Version:  4.1                                   |
|   \\  /    A nd           | Web:      www.OpenFOAM.org                      |
|    \\/     M anipulation  |                                                 |
\*---------------------------------------------------------------------------*/
FoamFile
{
    version     2.0;
    format      ascii;
    class       volScalarField;
    location    "100";
    object      omega;
}
// * * * * * * * * * * * * * * * * * * * * * * * * * * * * * * * * * * * * * //

dimensions      [0 0 -1 0 0 0 0];

internalField   nonuniform List<scalar> 
6820
(
7254.61
8569.03
9629.39
10283.3
10669.1
10887.1
10998.1
11038.5
11032.1
10994.8
10937.7
10868.3
10792.1
10712.9
10633.4
10555.4
10480.3
10408.9
10341.7
10279.2
10221.4
10168.4
10120.3
10076.9
10038.4
10004.1
9973.86
9947.47
9924.62
9905.86
9888.03
9885.08
9823.83
600.783
1554.04
2092.52
2434.05
2696.19
2891.7
3028.33
3119.89
3179.33
3216.2
3237.24
3247.25
3249.57
3246.46
3239.46
3229.6
3217.59
3203.89
3188.81
3172.53
3155.16
3136.69
3117.1
3096.32
3074.03
3052.3
3031.56
3011.32
2990.8
2968.78
2943.89
2911.24
2871.73
107.11
368.892
596.284
767.195
894.622
992.695
1069.53
1129.97
1177.45
1214.58
1243.38
1265.53
1282.33
1294.86
1303.96
1310.32
1314.45
1316.8
1317.71
1317.44
1316.21
1314.2
1311.55
1308.36
1304.98
1300.92
1295.84
1289.66
1282.24
1273.3
1262.45
1248.49
1231.39
37.6581
108.37
189.153
265.42
332.045
389.006
437.456
478.673
513.782
543.696
569.161
590.8
609.143
624.642
637.685
648.603
657.68
665.162
671.257
676.144
679.98
682.896
685.048
686.483
687.138
687.038
686.19
684.572
682.131
678.758
674.311
668.455
661.09
23.8007
47.5314
77.6778
109.768
141.135
170.543
197.542
222.063
244.207
264.133
282.009
298.003
312.276
324.979
336.25
346.217
354.998
362.7
369.422
375.256
380.297
384.611
388.229
391.205
393.578
395.379
396.621
397.306
397.417
396.91
395.717
393.698
390.733
19.8175
29.4712
42.4949
57.1784
72.3987
87.4742
102.026
115.856
128.873
141.042
152.36
162.839
172.508
181.396
189.539
196.974
203.739
209.871
215.415
220.407
224.869
228.836
232.339
235.408
238.065
240.33
242.214
243.717
244.823
245.491
245.65
245.179
243.982
18.4339
22.8123
29.16
36.6296
44.6481
52.8482
61.0038
68.9768
76.6829
84.07
91.1064
97.7741
104.064
109.974
115.506
120.665
125.462
129.907
134.008
137.776
141.226
144.374
147.235
149.822
152.149
154.224
156.05
157.615
158.89
159.825
160.378
160.568
160.607
17.9113
19.9881
23.298
27.4002
31.9511
36.7218
41.5668
46.3929
51.1392
55.7647
60.2408
64.548
68.6726
72.6055
76.3412
79.8775
83.2125
86.3457
89.2797
92.0185
94.568
96.9348
99.1263
101.15
103.013
104.716
106.253
107.612
108.782
109.803
110.827
112.154
114.183
17.7058
18.6996
20.4687
22.812
25.5205
28.4389
31.4629
34.5241
37.5765
40.5882
43.5364
46.4046
49.1806
51.8555
54.4231
56.8778
59.2163
61.4368
63.5389
65.5235
67.3928
69.1501
70.7996
72.3461
73.7932
75.1435
76.4031
77.6042
78.8498
80.3588
82.4542
85.4646
89.5369
17.6232
18.0938
19.0365
20.3876
22.0325
23.8674
25.8157
27.8236
29.8542
31.8813
33.886
35.8546
37.7764
39.6438
41.4502
43.1909
44.8625
46.4626
47.9899
49.4439
50.8256
52.1372
53.3824
54.5668
55.7002
56.8047
57.9393
59.2391
60.9423
63.356
66.7545
71.2715
76.7546
17.5896
17.8072
18.2997
19.0697
20.0667
21.2282
22.4999
23.8404
25.2192
26.6142
28.0092
29.392
30.7535
32.0864
33.3853
34.6456
35.864
37.038
38.1659
39.2469
40.2815
41.2726
42.2262
43.1552
44.0895
45.0976
46.3211
47.9931
50.4005
53.7907
58.2866
63.8439
70.1399
17.5758
17.6725
17.9218
18.3495
18.943
19.6707
20.4982
21.3952
22.3379
23.3076
24.2903
25.2753
26.2543
27.2208
28.1696
29.0967
29.9986
30.8728
31.7173
32.5316
33.3167
34.0776
34.8266
35.5928
36.4413
37.5029
38.9927
41.1811
44.3102
48.5135
53.788
59.9854
66.7013
17.5702
17.6099
17.7308
17.96
18.3028
18.7482
19.2777
19.8716
20.5124
21.1854
21.8788
22.5834
23.2917
23.9978
24.697
25.3852
26.0592
26.7162
27.3545
27.9738
28.5767
29.1724
29.7841
30.4651
31.3244
32.5496
34.3928
37.1022
40.8385
45.6373
51.4166
57.9728
64.8632
17.5678
17.5813
17.6362
17.7534
17.9437
18.2074
18.537
18.9217
19.35
19.8114
20.2967
20.798
21.3092
21.8248
22.3405
22.8525
23.3575
23.853
24.3372
24.8107
25.2787
25.7566
26.2823
26.9377
27.8739
29.3158
31.5155
34.6698
38.8622
44.0606
50.1371
56.8568
63.7616
17.5669
17.5685
17.5905
17.6465
17.747
17.8965
18.0943
18.3358
18.6148
18.9244
19.2581
19.6099
19.9748
20.3481
20.7261
21.105
21.4819
21.8543
22.221
22.5836
22.9505
23.345
23.8215
24.4899
25.5345
27.1956
29.7022
33.1953
37.6991
43.1371
49.3537
56.0968
62.9055
17.5665
17.5628
17.5689
17.5928
17.6423
17.7226
17.8359
17.9817
18.1572
18.3588
18.5825
18.8241
19.0798
19.3459
19.6191
19.8962
20.1745
20.4517
20.7272
21.0042
21.2945
21.6298
22.0803
22.78
23.934
25.7821
28.5212
32.2444
36.9328
42.4814
48.7174
55.3796
62.0132
17.5663
17.5604
17.559
17.5666
17.5882
17.6282
17.6894
17.7731
17.879
18.0055
18.1506
18.3118
18.4864
18.6718
18.8653
19.0642
19.2661
19.4691
19.6734
19.8836
20.1151
20.407
20.8432
21.5747
22.8174
24.8011
27.6913
31.5433
36.3084
41.8631
48.0242
54.5272
60.9289
17.5662
17.5594
17.5546
17.5543
17.5613
17.5787
17.6091
17.6541
17.7146
17.7905
17.8809
17.9847
18.1003
18.2258
18.3591
18.4983
18.6413
18.7867
18.9353
19.0932
19.2786
19.5365
19.9605
20.7119
22.0095
24.0695
27.0308
30.9214
35.6725
41.1487
47.1613
53.4459
59.5759
17.5662
17.559
17.5527
17.5486
17.5483
17.5536
17.5665
17.5885
17.6207
17.6636
17.7173
17.7813
17.855
17.937
18.026
18.1203
18.2185
18.3196
18.425
18.5419
18.6905
18.9192
19.3268
20.0789
21.3914
23.4673
26.4256
30.2755
34.936
40.2653
46.0724
52.0963
57.9282
17.5662
17.5588
17.5519
17.5461
17.5422
17.5413
17.5447
17.5536
17.5688
17.5913
17.6212
17.6588
17.7036
17.755
17.8121
17.8736
17.9385
18.0063
18.0788
18.1638
18.2823
18.4839
18.8677
19.598
20.8848
22.9196
25.8079
29.5484
34.0543
39.1813
44.7393
50.4727
55.9919
17.5662
17.5587
17.5516
17.545
17.5395
17.5356
17.5341
17.5357
17.5413
17.5515
17.5668
17.5874
17.6132
17.6439
17.6789
17.7173
17.7582
17.8016
17.8497
17.9102
18.0039
18.1789
18.5309
19.2179
20.4412
22.3836
25.1435
28.7163
33.0143
37.8945
43.1699
48.5925
53.7924
17.5662
17.5587
17.5515
17.5446
17.5384
17.533
17.529
17.527
17.5273
17.5306
17.5372
17.5474
17.5613
17.5786
17.5989
17.6216
17.6461
17.6724
17.7029
17.7451
17.8185
17.9676
18.2811
18.9065
20.0344
21.8408
24.423
27.779
31.8252
36.423
41.3906
46.489
51.3679
17.5662
17.5587
17.5515
17.5445
17.5379
17.5319
17.5268
17.5229
17.5206
17.5201
17.5219
17.5262
17.533
17.5422
17.5534
17.5662
17.58
17.5951
17.6137
17.6428
17.6997
17.8242
18.0951
18.6461
19.6545
21.2903
23.6546
26.7535
30.5119
34.7986
39.4393
44.2051
48.765
17.5662
17.5587
17.5514
17.5444
17.5378
17.5315
17.526
17.5213
17.5177
17.5155
17.5149
17.5162
17.5192
17.524
17.5302
17.5374
17.5451
17.5537
17.5651
17.5854
17.6298
17.7319
17.9597
18.4298
19.3034
20.7443
22.86
25.6695
29.1106
33.0631
37.362
41.7898
46.0341
17.5662
17.5587
17.5515
17.5444
17.5378
17.5315
17.5259
17.521
17.5171
17.5144
17.513
17.5132
17.515
17.5181
17.5225
17.5275
17.5329
17.5389
17.5471
17.5627
17.5983
17.6818
17.869
18.2583
18.9918
20.2244
22.0707
24.5664
27.6668
31.266
35.211
39.2967
43.2287
17.5662
17.5587
17.5515
17.5445
17.5379
17.5318
17.5264
17.5218
17.5183
17.5161
17.5153
17.5162
17.5187
17.5227
17.5279
17.534
17.5406
17.5477
17.5566
17.5716
17.6027
17.6722
17.8246
18.1393
18.7369
19.7596
21.3269
23.4928
26.2345
29.4644
33.0446
36.7837
40.4056
17.5662
17.5587
17.5515
17.5447
17.5383
17.5326
17.5278
17.5242
17.522
17.5216
17.523
17.5266
17.5323
17.5399
17.5494
17.5601
17.5717
17.5841
17.5982
17.6172
17.6489
17.7104
17.8359
18.0873
18.5621
19.3852
20.6759
22.5058
24.8768
27.7245
30.9294
34.3164
37.6276
17.5662
17.5588
17.5517
17.5451
17.5392
17.5345
17.5312
17.5298
17.5307
17.5342
17.5405
17.55
17.5625
17.578
17.5961
17.6164
17.6383
17.6615
17.6865
17.7155
17.7542
17.8153
17.9242
18.127
18.4991
19.144
20.1738
21.673
23.6692
26.1252
28.9446
31.9719
34.9687
17.5662
17.5588
17.552
17.5461
17.5416
17.5391
17.5392
17.5427
17.5501
17.5617
17.578
17.5989
17.6245
17.6545
17.6884
17.7257
17.7655
17.8075
17.8514
17.8986
17.9529
18.0234
18.1279
18.2996
18.5937
19.091
19.8889
21.0765
22.7041
24.7643
27.1892
29.8472
32.5228
17.5662
17.5591
17.553
17.5488
17.5476
17.5505
17.5585
17.5727
17.5937
17.6218
17.6572
17.6998
17.7492
17.8047
17.8658
17.9315
18.0009
18.073
18.1473
18.2243
18.306
18.3983
18.5134
18.6737
18.9178
19.3043
19.9112
20.8219
22.1011
23.7706
25.7951
28.0734
30.4173
17.5663
17.5598
17.5559
17.5564
17.5637
17.5795
17.6057
17.6431
17.6921
17.7527
17.8244
17.9063
17.9973
18.0965
18.2026
18.3142
18.4302
18.5492
18.6703
18.793
18.9183
19.0493
19.1935
19.3651
19.5894
19.9061
20.3719
21.0559
22.0252
23.3235
24.9496
26.8391
28.8387
17.5665
17.5623
17.5648
17.5786
17.6077
17.6549
17.7219
17.8085
17.914
18.0367
18.1746
18.3256
18.4877
18.6588
18.8372
19.0211
19.2088
19.3989
19.59
19.7813
19.9724
20.1648
20.3621
20.5726
20.8112
21.1027
21.4841
22.0055
22.7246
23.6936
24.9393
26.438
28.0812
17.5673
17.5708
17.5936
17.6448
17.7302
17.8519
18.0084
18.1963
18.4112
18.6484
18.9034
19.1724
19.452
19.7392
20.0316
20.3273
20.6243
20.9212
21.2166
21.5092
21.7984
22.0841
22.3677
22.653
22.9475
23.2645
23.6253
24.061
24.6123
25.325
26.2386
27.365
28.6478
17.5705
17.6019
17.6891
17.8457
18.0736
18.3661
18.7123
19.1009
19.5209
19.9632
20.4207
20.8875
21.3593
21.8328
22.3055
22.7753
23.2408
23.7007
24.154
24.5997
25.037
25.4653
25.8848
26.2963
26.7027
27.1095
27.5263
27.9686
28.4588
29.0266
29.706
30.5251
31.475
17.5852
17.7228
18.0157
18.4635
19.0399
19.7114
20.4476
21.2246
22.0242
22.8332
23.6425
24.4459
25.2397
26.0211
26.7886
27.5413
28.2786
29.0002
29.7057
30.395
31.0678
31.7238
32.3628
32.9845
33.5893
34.1784
34.7543
35.3219
35.8892
36.4683
37.0768
37.7369
38.4632
17.6614
18.2184
19.1679
20.4046
21.8178
23.3239
24.868
26.4159
27.945
29.4413
30.8982
32.3131
33.6857
35.0169
36.308
37.5606
38.7765
39.9571
41.1039
42.2181
43.3008
44.3526
45.374
46.3652
47.326
48.2562
49.1555
50.0238
50.8612
51.6689
52.4493
53.2075
53.9522
18.1028
20.3894
23.496
26.9459
30.4728
33.9501
37.3245
40.5668
43.6583
46.5981
49.3975
52.069
54.6245
57.0741
59.4266
61.6895
63.8692
65.9715
68.0013
69.9628
71.8598
73.6953
75.472
77.1918
78.8561
80.4657
82.0207
83.5205
84.9637
86.3483
87.671
88.9286
90.1165
21.2175
31.4423
42.494
53.1443
63.0102
72.1041
80.5473
88.2638
95.3818
102.019
108.257
114.15
119.74
125.058
130.129
134.975
139.613
144.06
148.328
152.431
156.378
160.179
163.84
167.368
170.767
174.041
177.19
180.215
183.115
185.889
188.531
191.04
193.403
59.9584
123.995
170.399
207.29
238.55
267.446
294.737
320.426
344.377
366.575
387.101
406.087
423.689
440.061
455.344
469.664
483.128
495.829
507.84
519.222
530.024
540.28
550.017
559.251
567.992
576.242
584.001
591.265
598.026
604.279
610.017
615.249
619.941
1719.4
1778.24
1839.26
1895.41
1945.89
1992.16
2035.15
2075.33
2112.98
2148.31
2181.51
2212.72
2242.07
2269.67
2295.63
2320.03
2342.97
2364.54
2384.8
2403.83
2421.69
2438.47
2454.21
2468.97
2482.81
2495.79
2507.96
2519.37
2530.06
2540.08
2549.47
2558.29
2566.57
9519.3
8820.11
8084.33
7381.68
6749.5
6162.78
5590.12
5006.27
4393.65
3738.42
3033.74
2302.53
1625.6
1117.62
824.318
680.51
606.858
566.334
545.363
536.627
535.37
538.396
543.347
548.194
550.861
548.914
539.445
519.313
486.002
439.022
381.235
318.879
259.61
209.481
170.996
143.419
124.419
111.519
102.756
96.7642
92.6514
89.8453
87.9775
86.806
86.167
85.9452
86.0562
86.4364
87.0361
87.8159
88.7436
89.7932
90.943
92.175
93.4743
94.8283
96.2263
97.6594
99.1198
100.601
102.097
103.604
105.116
106.632
108.146
109.657
111.162
112.659
114.145
115.62
117.082
118.529
119.96
121.374
122.77
124.146
125.502
126.836
128.148
129.437
130.702
131.942
133.158
134.347
135.511
136.649
137.76
138.844
139.902
140.934
141.938
142.916
143.868
144.791
145.688
146.555
147.394
148.206
148.992
149.733
2765.96
2625.64
2488.36
2371.37
2274.36
2180.99
2067.14
1910.15
1697.02
1432.8
1149.48
902.811
733.844
633.482
572.13
533.809
511.655
500.66
497.384
499.444
504.964
512.374
520.27
527.208
531.461
530.793
522.359
502.972
470.007
422.94
364.828
302.369
243.686
194.947
158.363
132.767
115.533
104.081
96.4553
91.3435
87.9087
85.6258
84.163
83.3054
82.9094
82.8746
83.1283
83.6153
84.2928
85.1264
86.0885
87.1562
88.3106
89.5358
90.8188
92.1483
93.515
94.9107
96.3285
97.7627
99.2081
100.66
102.116
103.571
105.022
106.469
107.907
109.335
110.752
112.156
113.546
114.919
116.276
117.615
118.935
120.235
121.515
122.774
124.01
125.224
126.415
127.582
128.726
129.845
130.94
132.01
133.056
134.078
135.075
136.048
136.997
137.922
138.822
139.698
140.549
141.374
142.173
142.948
143.703
144.423
1200.48
1155
1104.78
1054.23
1004.35
952.519
894.027
824.939
746.287
666.637
597.062
542.353
502.095
475.327
459.684
452.102
450.376
452.994
458.811
466.896
476.403
486.5
496.294
504.701
510.243
510.848
503.743
485.71
453.985
407.895
350.494
288.717
231.018
183.683
148.741
124.746
108.894
98.553
91.7936
87.3478
84.4229
82.5294
81.3628
80.7289
80.4997
80.5865
80.9256
81.469
82.1794
83.0269
83.9872
85.0403
86.1697
87.3613
88.6033
89.886
91.2006
92.5401
93.8982
95.2695
96.6495
98.0341
99.4198
100.804
102.183
103.555
104.919
106.272
107.613
108.94
110.253
111.549
112.829
114.091
115.334
116.558
117.762
118.945
120.107
121.248
122.367
123.464
124.539
125.591
126.621
127.629
128.614
129.577
130.518
131.438
132.336
133.212
134.066
134.898
135.708
136.495
137.259
138.003
138.731
139.434
649.236
631.488
610.404
586.884
561.171
533.219
503.513
473.798
446.732
424.616
408.585
398.446
393.17
391.939
394.231
399.434
406.909
416.1
426.537
437.797
449.454
461.031
471.925
481.283
487.821
489.615
483.983
467.699
437.869
393.6
337.782
277.385
221.041
175.14
141.629
118.923
104.137
94.6379
88.5282
84.5795
82.0323
80.4237
79.4691
78.9895
78.8685
79.0268
79.4077
79.9692
80.6783
81.509
82.44
83.4536
84.5351
85.6722
86.8544
88.0726
89.3193
90.5879
91.8728
93.1689
94.4722
95.7788
97.0857
98.3899
99.6892
100.981
102.264
103.537
104.797
106.044
107.277
108.494
109.695
110.879
112.045
113.193
114.322
115.432
116.522
117.592
118.643
119.672
120.682
121.671
122.64
123.589
124.519
125.428
126.318
127.188
128.039
128.871
129.684
130.477
131.251
132.004
132.737
133.453
134.158
134.848
385.706
377.52
366.916
354.636
341.945
330.423
321.492
315.966
313.959
315.088
318.83
324.7
332.242
341.109
351.101
362.05
373.755
386
398.576
411.276
423.875
436.087
447.484
457.38
464.644
467.499
463.375
449.076
421.601
379.809
326.306
267.908
213.27
168.851
136.609
114.939
100.967
92.0938
86.4626
82.878
80.606
79.2019
78.3951
78.0176
77.9615
78.1544
78.5455
79.0971
79.7803
80.5722
81.4539
82.4098
83.4271
84.4945
85.6028
86.7438
87.9108
89.0976
90.2992
91.511
92.7292
93.9504
95.1716
96.3902
97.604
98.811
100.01
101.198
102.375
103.54
104.692
105.829
106.951
108.057
109.147
110.22
111.276
112.314
113.335
114.338
115.322
116.289
117.237
118.167
119.08
119.975
120.852
121.712
122.555
123.381
124.19
124.982
125.758
126.516
127.257
127.981
128.688
129.38
130.065
130.746
241.69
238.055
234.081
230.935
229.682
230.916
234.739
240.935
249.13
258.91
269.886
281.739
294.205
307.079
320.227
333.549
346.954
360.344
373.625
386.7
399.457
411.723
423.191
433.299
441.054
444.821
442.165
429.961
405.143
366.321
315.732
259.878
207.279
164.415
133.325
112.497
99.1404
90.7242
85.4371
82.1135
80.0377
78.7774
78.0711
77.7579
77.736
77.9381
78.3178
78.8411
79.4822
80.2207
81.0401
81.9266
82.8687
83.8565
84.8817
85.937
87.0163
88.1141
89.2257
90.3471
91.4746
92.6052
93.7362
94.8652
95.9901
97.1091
98.2207
99.3235
100.416
101.498
102.568
103.625
104.668
105.698
106.713
107.713
108.698
109.668
110.622
111.56
112.482
113.389
114.28
115.155
116.015
116.86
117.69
118.505
119.305
120.091
120.862
121.619
122.362
123.089
123.802
124.5
125.184
125.856
126.525
127.2
160.788
161.798
164.183
168.305
174.282
182.042
191.415
202.18
214.092
226.896
240.343
254.21
268.302
282.458
296.553
310.498
324.224
337.679
350.823
363.624
376.038
387.971
399.204
409.276
417.318
421.842
420.565
410.471
388.48
352.977
305.782
252.944
202.697
161.486
131.482
111.353
98.4609
90.3702
85.3234
82.1815
80.2423
79.0811
78.4415
78.1669
78.1592
78.3547
78.7102
79.1946
79.7847
80.4622
81.2126
82.0235
82.8848
83.7879
84.7252
85.6904
86.6778
87.6826
88.7006
89.7281
90.7619
91.7992
92.8375
93.8748
94.909
95.9387
96.9623
97.9786
98.9865
99.9852
100.974
101.952
102.918
103.872
104.814
105.744
106.66
107.564
108.454
109.331
110.195
111.045
111.882
112.706
113.517
114.316
115.102
115.876
116.637
117.387
118.124
118.85
119.563
120.264
120.952
121.628
122.292
122.948
123.604
124.275
117.343
122.372
128.919
136.891
146.154
156.57
168.001
180.303
193.325
206.898
220.851
235.012
249.223
263.345
277.263
290.892
304.174
317.078
329.597
341.737
353.504
364.857
375.646
385.5
393.661
398.789
398.766
390.726
371.624
339.663
296.224
246.799
199.201
159.765
130.826
111.304
98.7663
90.9033
86.018
82.9981
81.1517
80.0579
79.4624
79.2104
79.2058
79.387
79.7131
80.155
80.6916
81.3065
81.9866
82.721
83.5009
84.3185
85.1672
86.0414
86.9362
87.8473
88.7709
89.7039
90.6433
91.5867
92.5319
93.477
94.4204
95.3605
96.2963
97.2265
98.1503
99.0667
99.9751
100.875
101.766
102.647
103.518
104.379
105.229
106.069
106.898
107.717
108.525
109.322
110.109
110.885
111.651
112.407
113.152
113.888
114.615
115.332
116.039
116.736
117.424
118.101
118.768
119.425
120.072
120.714
121.36
122.029
94.9379
102.305
110.874
120.49
131.011
142.316
154.299
166.857
179.881
193.249
206.831
220.49
234.097
247.531
260.693
273.508
285.931
297.947
309.57
320.836
331.782
342.41
352.625
362.129
370.273
375.857
376.946
370.851
354.614
326.305
286.875
241.184
196.506
158.99
131.139
112.176
99.9219
92.2174
87.4366
84.4954
82.7107
81.6633
81.0985
80.8614
80.8563
81.0224
81.3202
81.7221
82.2085
82.7643
83.3779
84.0397
84.7417
85.4772
86.2404
87.0266
87.8313
88.6509
89.4821
90.3223
91.1688
92.0197
92.8731
93.7273
94.581
95.4329
96.282
97.1274
97.9682
98.8038
99.6336
100.457
101.274
102.083
102.886
103.68
104.467
105.246
106.016
106.779
107.534
108.281
109.02
109.751
110.474
111.19
111.899
112.6
113.294
113.981
114.661
115.333
115.998
116.654
117.303
117.943
118.577
119.208
119.845
120.514
83.4141
91.8908
101.289
111.473
122.317
133.714
145.572
157.807
170.33
183.044
195.846
208.627
221.281
233.709
245.83
257.585
268.943
279.906
290.505
300.796
310.839
320.67
330.236
339.304
347.321
353.229
355.278
350.981
337.513
312.869
277.596
235.881
194.365
158.93
132.228
113.819
101.812
94.223
89.5085
86.6168
84.8738
83.8608
83.3212
83.0982
83.0951
83.2513
83.5274
83.8969
84.3412
84.8464
85.4019
85.999
86.6307
87.2913
87.9759
88.68
89.4003
90.1335
90.877
91.6285
92.386
93.1477
93.9123
94.6783
95.4448
96.2108
96.9754
97.7379
98.4978
99.2545
100.007
100.756
101.501
102.241
102.976
103.706
104.431
105.151
105.865
106.574
107.278
107.976
108.67
109.358
110.041
110.72
111.393
112.062
112.726
113.385
114.04
114.689
115.333
115.971
116.603
117.23
117.852
118.473
119.104
119.774
77.4106
86.3281
95.9605
106.194
116.913
128.018
139.425
151.057
162.839
174.69
186.526
198.261
209.81
221.095
232.057
242.653
252.869
262.723
272.261
281.552
290.676
299.688
308.573
317.151
324.958
331.072
333.927
331.255
320.408
299.357
268.29
230.713
192.562
159.376
133.921
116.098
104.334
96.8409
92.1719
89.3132
87.6018
86.6191
86.1057
85.9018
85.9089
86.0652
86.3312
86.6807
87.0956
87.5627
88.0723
88.6167
89.1897
89.7862
90.402
91.0335
91.6779
92.3326
92.9955
93.6648
94.3391
95.017
95.6974
96.3796
97.0627
97.7461
98.4293
99.1117
99.7931
100.473
101.151
101.828
102.502
103.174
103.844
104.511
105.175
105.837
106.497
107.154
107.808
108.459
109.109
109.755
110.4
111.042
111.682
112.32
112.955
113.588
114.219
114.846
115.471
116.092
116.71
117.324
117.935
118.548
119.174
119.845
74.2145
83.2165
92.7744
102.788
113.15
123.767
134.557
145.451
156.381
167.28
178.08
188.712
199.112
209.224
219.006
228.435
237.514
246.273
254.77
263.087
271.315
279.524
287.726
295.788
303.326
309.54
313.052
311.822
303.403
285.803
258.9
225.54
190.913
160.143
136.057
118.887
107.392
99.9983
95.3702
92.5399
90.8586
89.9091
89.4288
89.2545
89.2846
89.4558
89.7275
90.0733
90.4754
90.921
91.401
91.9082
92.4373
92.9838
93.5441
94.1155
94.6955
95.2823
95.8743
96.4703
97.0693
97.6705
98.2733
98.8773
99.4821
100.087
100.693
101.299
101.905
102.511
103.117
103.723
104.329
104.934
105.54
106.145
106.75
107.356
107.961
108.566
109.171
109.777
110.382
110.988
111.594
112.201
112.807
113.414
114.022
114.629
115.236
115.843
116.449
117.054
117.657
118.259
118.861
119.467
120.088
120.76
72.4036
81.2875
90.5973
100.242
110.121
120.145
130.237
140.333
150.371
160.297
170.055
179.593
188.866
197.835
206.477
214.786
222.78
230.501
238.018
245.418
252.799
260.246
267.786
275.327
282.552
288.78
292.808
292.828
286.619
272.268
249.409
220.263
189.266
161.065
138.488
122.067
110.893
103.624
99.048
96.2526
94.6085
93.7016
93.2668
93.1371
93.2075
93.4123
93.7095
94.0719
94.4815
94.9257
95.3957
95.8849
96.3883
96.9022
97.4236
97.9502
98.4803
99.0124
99.5458
100.08
100.614
101.147
101.681
102.214
102.747
103.28
103.813
104.347
104.881
105.417
105.953
106.49
107.029
107.57
108.112
108.657
109.203
109.752
110.303
110.856
111.413
111.971
112.533
113.097
113.665
114.235
114.808
115.384
115.962
116.543
117.126
117.711
118.298
118.886
119.475
120.065
120.657
121.255
121.871
122.543
71.1942
79.836
88.7941
97.9843
107.312
116.692
126.053
135.335
144.485
153.457
162.207
170.7
178.904
186.799
194.376
201.646
208.638
215.405
222.022
228.582
235.186
241.925
248.839
255.868
262.755
268.924
273.34
274.422
270.186
258.838
239.829
214.817
187.496
161.997
141.076
125.521
114.745
107.645
103.148
100.405
98.8135
97.9648
97.593
97.5273
97.6592
97.9201
98.2661
98.6689
99.1099
99.5763
100.059
100.553
101.052
101.554
102.056
102.557
103.054
103.548
104.038
104.523
105.005
105.482
105.957
106.428
106.898
107.366
107.833
108.3
108.767
109.235
109.704
110.176
110.65
111.127
111.607
112.091
112.578
113.07
113.567
114.068
114.574
115.085
115.601
116.123
116.649
117.182
117.719
118.262
118.81
119.362
119.92
120.482
121.048
121.617
122.19
122.766
123.347
123.936
124.545
125.216
70.1405
78.4608
87.0041
95.6919
104.435
113.154
121.783
130.266
138.559
146.623
154.427
161.947
169.165
176.076
182.685
189.014
195.104
201.015
206.827
212.634
218.538
224.632
230.967
237.505
244.041
250.093
254.782
256.743
254.237
245.613
230.202
209.171
185.512
162.81
143.689
129.132
118.851
111.986
107.608
104.947
103.431
102.662
102.375
102.397
102.616
102.959
103.38
103.85
104.35
104.865
105.388
105.912
106.432
106.946
107.451
107.947
108.432
108.907
109.371
109.824
110.268
110.704
111.132
111.553
111.969
112.381
112.789
113.196
113.601
114.007
114.413
114.822
115.233
115.648
116.067
116.49
116.919
117.354
117.794
118.241
118.695
119.156
119.625
120.101
120.584
121.075
121.574
122.081
122.595
123.117
123.645
124.181
124.723
125.271
125.825
126.385
126.951
127.529
128.129
128.796
68.9893
76.9372
85.0297
93.1932
101.344
109.408
117.325
125.046
132.531
139.752
146.686
153.321
159.65
165.68
171.428
176.926
182.222
187.382
192.487
197.632
202.917
208.434
214.241
220.316
226.499
232.391
237.251
239.923
238.901
232.704
220.593
203.325
183.248
163.4
146.207
132.787
123.114
116.563
112.36
109.82
108.41
107.749
107.575
107.711
108.044
108.499
109.026
109.594
110.182
110.777
111.368
111.951
112.52
113.073
113.608
114.124
114.621
115.098
115.557
115.999
116.423
116.833
117.23
117.615
117.989
118.356
118.715
119.07
119.421
119.77
120.118
120.468
120.819
121.173
121.532
121.895
122.265
122.641
123.024
123.415
123.814
124.222
124.64
125.066
125.503
125.949
126.405
126.871
127.347
127.833
128.329
128.834
129.347
129.87
130.401
130.94
131.488
132.05
132.636
133.295
67.6047
75.1498
82.7752
90.4113
97.98
105.413
112.655
119.664
126.406
132.859
139.011
144.857
150.401
155.659
160.657
165.435
170.047
174.56
179.057
183.631
188.379
193.389
198.72
204.367
210.202
215.9
220.848
224.075
224.301
220.223
211.082
197.305
180.67
163.682
148.522
136.374
127.431
121.287
117.327
114.957
113.692
113.172
113.141
113.424
113.903
114.501
115.166
115.864
116.574
117.281
117.975
118.649
119.299
119.921
120.515
121.079
121.614
122.121
122.599
123.05
123.477
123.881
124.265
124.629
124.978
125.312
125.635
125.948
126.253
126.554
126.851
127.146
127.441
127.738
128.038
128.342
128.652
128.968
129.292
129.625
129.967
130.318
130.68
131.053
131.438
131.834
132.242
132.662
133.094
133.538
133.994
134.462
134.942
135.432
135.934
136.447
136.971
137.512
138.08
138.725
65.925
73.0526
80.2093
87.3296
94.3405
101.179
107.796
114.153
120.224
125.993
131.455
136.612
141.477
146.073
150.433
154.601
158.635
162.605
166.59
170.68
174.968
179.537
184.447
189.701
195.201
200.684
205.647
209.29
210.542
208.278
201.758
191.158
177.769
163.594
150.537
139.784
131.695
126.061
122.421
120.28
119.207
118.867
119.014
119.477
120.137
120.912
121.75
122.615
123.483
124.338
125.169
125.969
126.733
127.459
128.144
128.789
129.393
129.957
130.482
130.971
131.425
131.846
132.238
132.602
132.942
133.261
133.562
133.847
134.118
134.38
134.633
134.881
135.126
135.37
135.614
135.861
136.111
136.368
136.631
136.903
137.184
137.475
137.777
138.091
138.418
138.758
139.111
139.478
139.86
140.255
140.664
141.088
141.525
141.976
142.441
142.92
143.414
143.925
144.467
145.092
63.9362
70.6438
77.3421
83.9689
90.4562
96.7462
102.794
108.567
114.045
119.217
124.083
128.653
132.944
136.985
140.813
144.477
148.036
151.558
155.121
158.81
162.711
166.903
171.443
176.341
181.522
186.778
191.701
195.638
197.711
196.966
192.714
184.948
174.559
163.098
152.173
142.915
135.798
130.78
127.546
125.7
124.87
124.754
125.12
125.8
126.676
127.666
128.714
129.783
130.846
131.887
132.893
133.857
134.773
135.639
136.452
137.212
137.919
138.574
139.178
139.733
140.242
140.708
141.133
141.521
141.875
142.199
142.496
142.769
143.021
143.257
143.478
143.689
143.891
144.087
144.281
144.473
144.667
144.864
145.066
145.275
145.493
145.72
145.958
146.208
146.471
146.747
147.039
147.345
147.667
148.005
148.359
148.729
149.115
149.518
149.937
150.372
150.825
151.299
151.806
152.4
61.6546
67.9491
74.2076
80.3712
86.3763
92.1697
97.7109
102.972
107.936
112.598
116.962
121.042
124.859
128.447
131.846
135.104
138.282
141.446
144.669
148.032
151.614
155.487
159.707
164.286
169.17
174.193
179.031
183.161
185.87
186.368
184.036
178.747
171.076
162.178
153.368
145.675
139.635
135.337
132.597
131.117
130.588
130.744
131.369
132.306
133.436
134.679
135.975
137.287
138.585
139.851
141.072
142.24
143.349
144.394
145.373
146.287
147.134
147.915
148.633
149.289
149.887
150.428
150.916
151.356
151.75
152.103
152.418
152.7
152.952
153.178
153.382
153.568
153.739
153.898
154.047
154.192
154.332
154.473
154.615
154.761
154.913
155.073
155.242
155.423
155.616
155.823
156.044
156.282
156.535
156.806
157.094
157.401
157.725
158.069
158.431
158.812
159.214
159.639
160.1
160.652
59.1133
65.0095
70.8529
76.5887
82.1571
87.5089
92.6075
97.4282
101.958
106.195
110.147
113.829
117.269
120.498
123.56
126.504
129.387
132.273
135.232
138.337
141.66
145.27
149.214
153.511
158.12
162.913
167.634
171.871
175.056
176.547
175.803
172.631
167.369
160.84
154.08
147.985
143.104
139.622
137.463
136.422
136.254
136.73
137.66
138.893
140.317
141.851
143.434
145.028
146.601
148.133
149.611
151.024
152.366
153.632
154.82
155.928
156.955
157.904
158.774
159.569
160.291
160.943
161.528
162.052
162.516
162.927
163.288
163.604
163.878
164.117
164.323
164.501
164.655
164.789
164.907
165.012
165.107
165.196
165.281
165.366
165.453
165.545
165.643
165.751
165.868
165.999
166.143
166.303
166.479
166.673
166.885
167.117
167.368
167.64
167.933
168.247
168.585
168.949
169.351
169.847
56.3551
61.8726
67.33
72.6759
77.8547
82.8205
87.5396
91.9903
96.1621
100.055
103.678
107.051
110.199
113.157
115.967
118.678
121.343
124.024
126.784
129.691
132.812
136.205
139.918
143.967
148.327
152.897
157.481
161.757
165.281
167.541
168.08
166.678
163.502
159.111
154.289
149.782
146.114
143.525
142.027
141.496
141.749
142.598
143.876
145.446
147.203
149.065
150.974
152.888
154.776
156.616
158.391
160.092
161.711
163.241
164.68
166.025
167.277
168.434
169.5
170.475
171.362
172.164
172.885
173.528
174.099
174.601
175.04
175.42
175.745
176.022
176.254
176.447
176.605
176.732
176.833
176.912
176.972
177.019
177.055
177.084
177.11
177.135
177.161
177.193
177.233
177.282
177.342
177.417
177.507
177.614
177.74
177.885
178.05
178.238
178.448
178.682
178.942
179.23
179.558
179.982
53.428
58.5878
63.6901
68.6847
73.5199
78.1533
82.5532
86.6999
90.5842
94.2074
97.58
100.721
103.656
106.421
109.055
111.604
114.119
116.658
119.279
122.042
125.008
128.23
131.75
135.586
139.722
144.083
148.519
152.782
156.532
159.368
160.916
160.956
159.543
157.035
153.997
151.027
148.59
146.949
146.179
146.222
146.952
148.223
149.892
151.838
153.964
156.191
158.463
160.735
162.976
165.163
167.277
169.308
171.245
173.083
174.817
176.445
177.965
179.378
180.683
181.882
182.978
183.974
184.872
185.678
186.394
187.027
187.58
188.059
188.47
188.816
189.105
189.34
189.526
189.67
189.775
189.847
189.89
189.909
189.908
189.891
189.862
189.825
189.784
189.742
189.701
189.667
189.64
189.623
189.62
189.631
189.66
189.708
189.776
189.866
189.98
190.119
190.286
190.483
190.722
191.055
50.383
55.2051
59.9809
64.6614
69.1965
73.5468
77.6827
81.5853
85.2463
88.6668
91.8573
94.836
97.6287
100.267
102.79
105.241
107.666
110.118
112.65
115.316
118.171
121.261
124.626
128.282
132.222
136.39
140.674
144.888
148.774
152.025
154.343
155.527
155.565
154.67
153.231
151.701
150.474
149.808
149.812
150.482
151.739
153.475
155.575
157.934
160.462
163.089
165.756
168.421
171.052
173.622
176.115
178.515
180.814
183.003
185.076
187.032
188.866
190.579
192.17
193.641
194.993
196.228
197.35
198.363
199.27
200.076
200.786
201.406
201.94
202.394
202.774
203.085
203.333
203.523