/*--------------------------------*- C++ -*----------------------------------*\
| =========                 |                                                 |
| \\      /  F ield         | OpenFOAM: The Open Source CFD Toolbox           |
|  \\    /   O peration     | Version:  4.1                                   |
|   \\  /    A nd           | Web:      www.OpenFOAM.org                      |
|    \\/     M anipulation  |                                                 |
\*---------------------------------------------------------------------------*/
FoamFile
{
    version     2.0;
    format      ascii;
    class       volScalarField;
    location    "100";
    object      p;
}
// * * * * * * * * * * * * * * * * * * * * * * * * * * * * * * * * * * * * * //

dimensions      [0 2 -2 0 0 0 0];

internalField   nonuniform List<scalar> 
6820
(
30.3695
19.6694
16.1397
15.3893
14.9898
14.6495
14.4495
14.342
14.2619
14.1888
14.1216
14.0583
13.9955
13.9308
13.8631
13.7917
13.7157
13.6344
13.5471
13.4533
13.3524
13.2436
13.1263
12.9995
12.8623
12.7119
12.5439
12.3545
12.1384
11.8868
11.5848
11.2048
10.7069
8.65032
12.1962
12.9953
13.795
14.1712
14.2443
14.2468
14.2376
14.2087
14.1634
14.1115
14.0566
13.9984
13.9363
13.8702
13.7996
13.7241
13.6431
13.5561
13.4626
13.362
13.2537
13.1368
13.0103
12.8721
12.7203
12.5524
12.3648
12.1525
11.9083
11.6227
11.281
10.8961
10.841
14.3477
14.6069
14.6124
14.6183
14.5188
14.4143
14.3382
14.2707
14.2035
14.1384
14.0753
14.012
13.9469
13.8789
13.8073
13.7312
13.65
13.563
13.4697
13.3694
13.2616
13.1454
13.0197
12.8832
12.7341
12.5703
12.3887
12.1856
11.9564
11.6978
11.4073
11.1105
13.2682
14.7378
14.5844
14.4693
14.4825
14.4245
14.3492
14.2919
14.2392
14.1834
14.1264
14.0689
14.0096
13.9474
13.8817
13.8117
13.737
13.6569
13.5709
13.4785
13.3792
13.2725
13.1577
13.034
12.9
12.7544
12.5955
12.421
12.2287
12.0164
11.7844
11.5354
11.2907
13.7209
14.4342
14.3926
14.377
14.4199
14.3893
14.3318
14.2821
14.2334
14.1807
14.126
14.07
14.0119
13.9507
13.8858
13.8167
13.7428
13.6635
13.5783
13.4869
13.3888
13.2835
13.1705
13.0491
12.9184
12.7773
12.6246
12.459
12.2792
12.0848
11.8776
11.6622
11.4545
13.802
14.2806
14.3255
14.3468
14.3841
14.3622
14.3149
14.2696
14.2237
14.1739
14.1217
14.0677
14.0113
13.9516
13.8882
13.8204
13.7476
13.6695
13.5856
13.4955
13.3989
13.2954
13.1847
13.0663
12.9397
12.8041
12.6587
12.503
12.3366
12.16
11.9756
11.7879
11.607
13.9256
14.2509
14.302
14.3227
14.3493
14.3328
14.2942
14.2539
14.2114
14.165
14.1157
14.0641
14.0096
13.9517
13.8898
13.8234
13.752
13.6753
13.5928
13.5042
13.4094
13.3081
13.2002
13.0855
12.9637
12.8344
12.6975
12.5528
12.4005
12.2416
12.0777
11.9115
11.7484
14.0353
14.2399
14.2814
14.2987
14.3179
14.3051
14.2736
14.2379
14.1988
14.1555
14.109
14.0597
14.0072
13.951
13.8907
13.8259
13.756
13.6808
13.6
13.5133
13.4206
13.3221
13.2177
13.1074
12.9913
12.8695
12.7422
12.6096
12.4717
12.3286
12.1808
12.0289
11.8763
14.1074
14.2304
14.2647
14.2796
14.2927
14.2817
14.255
14.2229
14.1867
14.1462
14.1022
14.055
14.0045
13.9501
13.8916
13.8284
13.7603
13.6868
13.608
13.5235
13.4337
13.3385
13.2383
13.1335
13.0243
12.9113
12.7947
12.6743
12.5493
12.4187
12.2818
12.1394
11.9946
14.1532
14.2255
14.2534
14.2654
14.2731
14.2626
14.2391
14.2097
14.1759
14.1378
14.096
14.0509
14.0023
13.9498
13.893
13.8317
13.7656
13.6943
13.6179
13.5363
13.4499
13.359
13.2641
13.1658
13.0648
12.9615
12.8558
12.7465
12.632
12.5106
12.382
12.2472
12.1097
14.1829
14.2241
14.2457
14.2546
14.258
14.2474
14.226
14.1987
14.1669
14.1309
14.0912
14.0481
14.0013
13.9507
13.896
13.8368
13.773
13.7044
13.631
13.553
13.4708
13.3851
13.2965
13.2059
13.114
13.0208
12.9253
12.8256
12.7195
12.6056
12.484
12.356
12.2249
14.2018
14.2246
14.2403
14.2463
14.2464
14.2356
14.2157
14.1901
14.1601
14.126
14.0882
14.047
14.0022
13.9537
13.9012
13.8445
13.7835
13.718
13.6483
13.5746
13.4976
13.418
13.3367
13.2547
13.1723
13.0889
13.0026
12.911
12.8119
12.7044
12.589
12.4671
12.3413
14.2136
14.2256
14.2363
14.2398
14.2376
14.2266
14.2079
14.1839
14.1555
14.1231
14.0873
14.0481
14.0054
13.9592
13.9093
13.8554
13.7976
13.7359
13.6705
13.602
13.5309
13.4582
13.385
13.312
13.239
13.1647
13.0866
13.0019
12.9088
12.8069
12.697
12.5802
12.4591
14.2209
14.2268
14.2336
14.235
14.2311
14.22
14.2024
14.1797
14.153
14.1224
14.0886
14.0514
14.0111
13.9674
13.9204
13.8698
13.8157
13.7583
13.6979
13.6351
13.5706
13.5055
13.4408
13.3768
13.3128
13.2467
13.1756
13.0968
13.009
12.9121
12.8072
12.6949
12.5777
14.2253
14.228
14.2318
14.2315
14.2264
14.2155
14.1988
14.1776
14.1525
14.1238
14.092
14.0572
14.0193
13.9785
13.9346
13.8877
13.8378
13.7853
13.7304
13.6738
13.6164
13.5591
13.5029
13.4476
13.3919
13.333
13.268
13.1944
13.1113
13.019
12.9187
12.8105
12.697
14.2282
14.2292
14.2308
14.2292
14.2234
14.2127
14.1971
14.1773
14.1539
14.1272
14.0976
14.0652
14.0301
13.9923
13.9519
13.909
13.8637
13.8163
13.7673
13.7173
13.6671
13.6178
13.5699
13.5227
13.4744
13.4219
13.3621
13.2931
13.2144
13.1266
13.0307
12.9266
12.8168
14.2304
14.2305
14.2307
14.2281
14.2219
14.2116
14.197
14.1787
14.1571
14.1325
14.1052
14.0753
14.0432
14.0087
13.9721
13.9334
13.8929
13.851
13.808
13.7647
13.7218
13.6801
13.64
13.6003
13.5586
13.5116
13.4566
13.3919
13.3175
13.2341
13.1427
13.0428
12.9369
14.2323
14.2321
14.2313
14.2281
14.2218
14.212
14.1985
14.1817
14.1619
14.1395
14.1146
14.0876
14.0585
14.0275
13.9948
13.9605
13.925
13.8886
13.8517
13.8149
13.779
13.7447
13.7118
13.6789
13.643
13.6011
13.5504
13.49
13.42
13.3411
13.2544
13.159
13.0576
14.2343
14.234
14.2326
14.2291
14.223
14.2138
14.2015
14.1863
14.1685
14.1483
14.1259
14.1017
14.0758
14.0484
14.0197
13.9899
13.9594
13.9284
13.8975
13.867
13.8378
13.8102
13.784
13.7571
13.7267
13.6894
13.643
13.5869
13.5213
13.4474
13.3657
13.2753
13.1788
14.2367
14.2363
14.2347
14.2312
14.2254
14.217
14.206
14.1924
14.1766
14.1587
14.1389
14.1176
14.095
14.0712
14.0465
14.0212
13.9956
13.9699
13.9446
13.9202
13.8971
13.8757
13.8554
13.8341
13.8087
13.7758
13.7338
13.6821
13.6214
13.5526
13.4764
13.3916
13.3009
14.2395
14.2392
14.2375
14.2342
14.229
14.2215
14.2119
14.2
14.1862
14.1706
14.1536
14.1352
14.1158
14.0957
14.075
14.054
14.0331
14.0125
13.9926
13.9737
13.9562
13.9404
13.9254
13.9092
13.8885
13.8601
13.8225
13.7756
13.72
13.6568
13.5865
13.5081
13.4241
14.2429
14.2426
14.2411
14.2382
14.2336
14.2273
14.219
14.209
14.1972
14.1841
14.1697
14.1543
14.1381
14.1215
14.1047
14.088
14.0715
14.0557
14.0407
14.0269
14.0144
14.0035
13.9934
13.9819
13.9657
13.9419
13.909
13.8671
13.817
13.7598
13.6962
13.6249
13.5485
14.2468
14.2465
14.2453
14.2429
14.2393
14.2341
14.2274
14.2192
14.2096
14.1989
14.1871
14.1747
14.1618
14.1486
14.1356
14.1228
14.1106
14.0992
14.0887
14.0794
14.0715
14.0649
14.0591
14.0519
14.0402
14.0212
13.9933
13.9568
13.9126
13.8618
13.8053
13.742
13.6742
14.2512
14.251
14.2501
14.2485
14.2459
14.2421
14.237
14.2307
14.2233
14.2149
14.2058
14.1963
14.1865
14.1767
14.1672
14.1583
14.15
14.1427
14.1364
14.1312
14.1272
14.1245
14.1224
14.1192
14.1119
14.0978
14.0752
14.0445
14.0065
13.9627
13.9139
13.8595
13.8013
14.256
14.2559
14.2555
14.2548
14.2533
14.251
14.2476
14.2433
14.238
14.2321
14.2256
14.2189
14.2122
14.2056
14.1995
14.1941
14.1896
14.186
14.1835
14.182
14.1816
14.1822
14.1834
14.1838
14.1808
14.1717
14.1548
14.1302
14.099
14.0625
14.022
13.9771
13.9295
14.2611
14.261
14.2613
14.2616
14.2615
14.2607
14.2592
14.2568
14.2538
14.2503
14.2464
14.2424
14.2386
14.2351
14.2323
14.2302
14.2291
14.229
14.23
14.232
14.2348
14.2384
14.2425
14.2461
14.2471
14.243
14.232
14.2139
14.1898
14.1611
14.1292
14.0945
14.0582
14.2663
14.2662
14.2673
14.2689
14.2703
14.2713
14.2716
14.2714
14.2705
14.2693
14.268
14.2666
14.2656
14.2651
14.2653
14.2664
14.2685
14.2717
14.2759
14.2811
14.287
14.2935
14.3002
14.3067
14.3113
14.3119
14.3069
14.2956
14.2788
14.2581
14.2352
14.2112
14.1867
14.2712
14.2712
14.2733
14.2764
14.2796
14.2825
14.2849
14.2867
14.2881
14.2892
14.2902
14.2914
14.293
14.2953
14.2984
14.3025
14.3077
14.314
14.3213
14.3296
14.3386
14.3478
14.3572
14.3663
14.3741
14.3791
14.3797
14.3751
14.3658
14.3533
14.3394
14.3262
14.3136
14.2755
14.2756
14.279
14.284
14.2893
14.2943
14.2988
14.3028
14.3064
14.3097
14.313
14.3166
14.3207
14.3256
14.3314
14.3383
14.3464
14.3557
14.3661
14.3775
14.3894
14.4017
14.4139
14.4256
14.4364
14.4452
14.4509
14.4526
14.4506
14.4461
14.4411
14.4382
14.4373
14.2786
14.2789
14.284
14.2916
14.2993
14.3067
14.3135
14.3197
14.3254
14.3308
14.3363
14.3421
14.3485
14.3558
14.3641
14.3737
14.3845
14.3967
14.4101
14.4245
14.4396
14.455
14.4703
14.4851
14.4989
14.5112
14.5213
14.5287
14.5334
14.5363
14.5394
14.546
14.5557
14.2795
14.2801
14.288
14.2989
14.3097
14.3197
14.329
14.3373
14.3451
14.3525
14.3599
14.3678
14.3763
14.3857
14.3964
14.4084
14.4218
14.4366
14.4528
14.4702
14.4885
14.5073
14.5261
14.5444
14.5617
14.5776
14.5918
14.604
14.6145
14.6239
14.6339
14.6484
14.6667
14.2767
14.2782
14.2903
14.3059
14.3204
14.3336
14.3454
14.3559
14.3655
14.3747
14.3839
14.3935
14.4038
14.4152
14.4278
14.4419
14.4576
14.4749
14.4937
14.5139
14.5353
14.5575
14.58
14.6022
14.6236
14.6436
14.662
14.6787
14.6941
14.7087
14.7242
14.7443
14.7686
14.2674
14.2715
14.2908
14.3127
14.3318
14.3485
14.363
14.3755
14.3869
14.3976
14.4082
14.4192
14.431
14.4439
14.4582
14.474
14.4915
14.5108
14.5318
14.5545
14.5786
14.6038
14.6298
14.6559
14.6816
14.7063
14.7295
14.751
14.7709
14.7898
14.8092
14.8324
14.8597
14.2451
14.2567
14.2897
14.3208
14.3452
14.3657
14.3827
14.397
14.4096
14.4214
14.433
14.445
14.4578
14.4718
14.4871
14.5042
14.523
14.5437
14.5664
14.5908
14.6169
14.6444
14.6731
14.7025
14.732
14.7611
14.7892
14.8157
14.8404
14.8634
14.8856
14.9098
14.9369
14.197
14.2259
14.2837
14.3292
14.3617
14.3873
14.4069
14.4222
14.4354
14.4475
14.4592
14.4712
14.4841
14.4982
14.5139
14.5313
14.5506
14.5719
14.5952
14.6205
14.6476
14.6764
14.7067
14.738
14.7699
14.8021
14.834
14.8649
14.8943
14.9216
14.9469
14.9714
14.9964
14.1196
14.1834
14.2709
14.3293
14.3745
14.4107
14.4358
14.4541
14.4693
14.4826
14.4947
14.5067
14.5192
14.5328
14.5478
14.5645
14.5831
14.6036
14.6262
14.6507
14.6772
14.7053
14.7351
14.7661
14.798
14.8305
14.8631
14.8953
14.9266
14.9563
14.9837
15.0087
15.0319
13.9734
14.208
14.3405
14.3588
14.38
14.4056
14.4215
14.4339
14.4473
14.4613
14.4754
14.4901
14.5058
14.5226
14.5407
14.5603
14.5815
14.6044
14.629
14.6553
14.6831
14.7124
14.743
14.7747
14.8072
14.8402
14.8733
14.9061
14.9382
14.9689
14.9976
15.0236
15.0467
13.0196
14.2444
14.8379
14.9219
14.915
14.8857
14.8409
14.7973
14.7604
14.7294
14.704
14.6848
14.6716
14.6639
14.6613
14.6633
14.6695
14.6795
14.693
14.7096
14.7288
14.7505
14.7741
14.7993
14.8257
14.8529
14.8805
14.908
14.9351
14.9612
14.986
15.0089
15.0298
9.25246
11.457
12.4912
13.132
13.5641
13.8219
13.9942
14.1297
14.236
14.3163
14.3777
14.4269
14.468
14.5034
14.5349
14.5642
14.5923
14.6199
14.6475
14.6755
14.704
14.7331
14.7627
14.7927
14.823
14.8532
14.8832
14.9125
14.9409
14.9678
14.9929
15.0155
15.0351
23.1672
19.0761
16.9553
16.188
15.7578
15.4045
15.1486
14.9842
14.8744
14.7948
14.7376
14.6987
14.674
14.6597
14.6534
14.6536
14.659
14.6688
14.6822
14.6985
14.7172
14.7379
14.76
14.7832
14.8071
14.8313
14.8556
14.8796
14.903
14.9257
14.9476
14.9685
14.9886
9.9949
10.5997
10.8534
10.7546
10.3348
9.61379
8.676
7.64299
6.63865
5.76797
5.11423
4.73464
4.64289
4.81
5.21604
5.85762
6.69801
7.66124
8.6702
9.66453
10.5994
11.4449
12.1844
12.8117
13.3273
13.7357
14.0434
14.2584
14.3908
14.454
14.4646
14.4421
14.406
14.37
14.3381
14.3059
14.2661
14.2129
14.1436
14.0579
13.9568
13.8417
13.7142
13.5756
13.4272
13.2699
13.1048
12.9326
12.7542
12.5703
12.3814
12.1881
11.991
11.7905
11.587
11.3809
11.1724
10.9618
10.7494
10.5351
10.3191
10.1016
9.88255
9.66194
9.43979
9.21606
8.9907
8.76365
8.53483
8.30414
8.07149
7.83675
7.59983
7.3606
7.11892
6.87469
6.62778
6.37807
6.12547
5.86986
5.61119
5.34938
5.08438
4.81616
4.54471
4.27005
3.99221
3.71124
3.42723
3.14026
2.85047
2.55797
2.26293
1.96547
1.66577
1.3639
1.0601
0.753801
0.447058
0.13154
10.4414
10.5697
10.6939
10.6304
10.3103
9.72855
8.95786
8.10246
7.26888
6.54994
6.01109
5.68497
5.58761
5.73109
6.11551
6.71349
7.4717
8.33124
9.2341
10.1293
10.9768
11.7492
12.4303
13.013
13.4966
13.8839
14.1794
14.3886
14.5186
14.5792
14.5837
14.5494
14.4956
14.4385
14.3855
14.3353
14.2818
14.2192
14.1439
14.0544
13.9512
13.8349
13.7069
13.5682
13.42
13.2632
13.0987
12.9273
12.7497
12.5666
12.3787
12.1864
11.9902
11.7907
11.5881
11.3828
11.1751
10.9653
10.7534
10.5397
10.3242
10.1071
9.88834
9.66798
9.44602
9.22242
8.99714
8.77013
8.5413
8.31058
8.07786
7.84306
7.60605
7.36672
7.12497
6.88066
6.63368
6.38394
6.13132
5.87573
5.6171
5.35536
5.09046
4.82236
4.55106
4.27656
3.99888
3.71807
3.4342
3.14734
2.8576
2.56508
2.26992
1.97223
1.67211
1.36971
1.06502
0.757932
0.449349
0.133487
10.7779
10.7353
10.8097
10.7314
10.4277
9.92347
9.27883
8.56781
7.8686
7.25251
6.77775
6.49062
6.42413
6.58308
6.94632
7.48698
8.16624
8.93615
9.74781
10.5572
11.3289
12.0375
12.6674
13.211
13.6665
14.0352
14.32
14.5243
14.6527
14.7116
14.7112
14.6664
14.596
14.5177
14.4427
14.3729
14.3042
14.2309
14.1484
14.0545
13.9486
13.8308
13.702
13.5631
13.4149
13.2584
13.0944
12.9237
12.7469
12.5647
12.3776
12.1862
11.9909
11.7922
11.5905
11.386
11.179
10.9698
10.7585
10.5453
10.3302
10.1134
9.89496
9.67481
9.45298
9.22947
9.00423
8.7772
8.54833
8.31753
8.08472
7.8498
7.61267
7.37322
7.13135
6.88694
6.63988
6.39007
6.13741
5.88182
5.62321
5.36153
5.09671
4.82873
4.55756
4.28321
4.00569
3.72503
3.44129
3.15453
2.86483
2.57229
2.27699
1.97906
1.67851
1.37556
1.06996
0.762095
0.451544
0.135556
11.028
10.9101
10.896
10.7818
10.5073
10.0899
9.56222
8.97166
8.38018
7.85431
7.45466
7.22552
7.1897
7.34867
7.68573
8.17707
8.78988
9.48383
10.2174
10.9526
11.658
12.3105
12.8949
13.4035
13.8335
14.185
14.4597
14.6593
14.7859
14.8434
14.839
14.7852
14.6998
14.6017
14.5051
14.4155
14.3309
14.2459
14.1556
14.0567
13.9476
13.8281
13.6983
13.559
13.4109
13.2547
13.0912
12.9211
12.745
12.5636
12.3774
12.1868
11.9924
11.7945
11.5935
11.3897
11.1834
10.9748
10.764
10.5512
10.3365
10.1201
9.90181
9.68183
9.46011
9.23665
9.01142
8.78436
8.55542
8.32452
8.0916
7.85655
7.61928
7.3797
7.1377
6.89317
6.64602
6.39613
6.14343
5.88782
5.62923
5.36758
5.10284
4.83495
4.56391
4.28969
4.01231
3.73179
3.44817
3.16149
2.87183
2.57924
2.28381
1.98562
1.68464
1.38115
1.07465
0.766046
0.453491
0.137518
11.2349
11.0856
11.0125
10.8843
10.6413
10.2847
9.8351
9.33175
8.8306
8.39126
8.06488
7.88712
7.87623
8.03386
8.34729
8.7959
9.35151
9.98009
10.6462
11.317
11.9646
12.5677
13.112
13.5894
13.9966
14.3328
14.5984
14.7937
14.919
14.9756
14.9682
14.9068
14.8077
14.6907
14.5728
14.463
14.3616
14.2642
14.1652
14.0607
13.9481
13.8264
13.6956
13.5558
13.4077
13.2517
13.0887
12.9192
12.7439
12.5632
12.3778
12.188
11.9944
11.7973
11.597
11.3939
11.1882
10.9801
10.7698
10.5575
10.3431
10.1269
9.90886
9.68902
9.46739
9.24396
9.01871
8.79159
8.56257
8.33156
8.0985
7.86331
7.6259
7.38617
7.14403
6.89938
6.65212
6.40216
6.1494
5.89376
5.63517
5.37356
5.10888
4.84108
4.57015
4.29606
4.01881
3.73841
3.45489
3.16829
2.87864
2.58601
2.29042
1.99197
1.69056
1.38654
1.07914
0.769836
0.45525
0.139428
11.414
11.2532
11.1428
11.0003
10.7741
10.4601
10.0752
9.65209
9.23674
8.87766
8.61675
8.48368
8.49417
8.65032
8.94246
9.3533
9.85897
10.4307
11.0382
11.6527
12.2496
12.8092
13.3179
13.7677
14.1545
14.4771
14.7347
14.9265
15.051
15.1076
15.0982
15.0305
14.9192
14.7843
14.6453
14.5149
14.3961
14.2853
14.177
14.0661
13.9496
13.8255
13.6934
13.553
13.4048
13.2491
13.0865
12.9177
12.743
12.5631
12.3785
12.1896
11.9967
11.8004
11.6008
11.3984
11.1933
10.9857
10.7759
10.5639
10.3499
10.1339
9.91603
9.69631
9.47475
9.25133
9.02605
8.79887
8.56975
8.33862
8.10542
7.87008
7.63252
7.39264
7.15035
6.90557
6.6582
6.40814
6.15532
5.89965
5.64106
5.37948
5.11485
4.84714
4.57631
4.30233
4.0252
3.74491
3.46149
3.17495
2.88532
2.59262
2.29687
1.99816
1.69632
1.39177
1.08346
0.773495
0.456871
0.141327
11.5708
11.4073
11.2754
11.1226
10.9106
10.634
10.3062
9.95392
9.6135
9.32386
9.11911
9.02404
9.05239
9.20669
9.47966
9.85711
10.319
10.8409
11.397
11.9621
12.5141
13.0351
13.5122
13.9373
14.3061
14.6165
14.8672
15.0562
15.1805
15.2377
15.2275
15.1549
15.0329
14.8812
14.7217
14.5705
14.4336
14.3088
14.1903
14.0726
13.9516
13.8249
13.6912
13.5502
13.4018
13.2463
13.0842
12.916
12.7421
12.563
12.3791
12.191
11.999
11.8034
11.6046
11.4028
11.1983
10.9913
10.7819
10.5703
10.3566
10.1408
9.92317
9.70357
9.48206
9.25866
9.03335
8.80611
8.57688
8.34563
8.11229
7.8768
7.63908
7.39904
7.15661
6.9117
6.66422
6.41407
6.16119
5.90548
5.64688
5.38532
5.12075
4.85311
4.58237
4.3085
4.03148
3.7513
3.46797
3.18147
2.89184
2.59907
2.30316
2.00419
1.7019
1.39684
1.08763
0.777026
0.458377
0.14323
11.7097
11.5504
11.4096
11.2537
11.0566
10.8138
10.5359
10.244
9.96705
9.73596
9.57843
9.51518
9.55817
9.71023
9.96603
10.314
10.7373
11.2155
11.7262
12.2475
12.7596
13.2461
13.6949
14.0979
14.4505
14.7501
14.9947
15.1814
15.3061
15.3645
15.3544
15.2783
15.147
14.9799
14.8007
14.629
14.4737
14.3341
14.2047
14.0795
13.9537
13.824
13.6886
13.5468
13.3982
13.2429
13.0813
12.9137
12.7406
12.5623
12.3793
12.1921
12.0009
11.8061
11.608
11.4069
11.2031
10.9966
10.7877
10.5765
10.3631
10.1476
9.93012
9.71065
9.48922
9.26584
9.0405
8.81319
8.58388
8.35251
8.11904
7.8834
7.64553
7.40535
7.16278
6.91774
6.67015
6.41991
6.16697
5.91122
5.65262
5.39108
5.12655
4.85898
4.58833
4.31456
4.03764
3.75756
3.4743
3.18785
2.89821
2.60537
2.30928
2.01003
1.70732
1.40174
1.09164
0.780428
0.459792
0.145146
11.8388
11.6883
11.5471
11.3939
11.2126
11.0002
10.7652
10.5244
10.3004
10.1181
9.9999
9.96304
10.0179
10.1674
10.4078
10.7297
11.1191
11.5585
12.0289
12.5111
12.9874
13.4429
13.8661
14.2492
14.5871
14.8771
15.1162
15.3011
15.4265
15.4867
15.4774
15.399
15.2598
15.0788
14.8812
14.6895
14.5156
14.3607
14.2199
14.0867
13.9555
13.8224
13.6851
13.5424
13.3935
13.2384
13.0773
12.9104
12.7381
12.5607
12.3787
12.1923
12.0021
11.8081
11.6108
11.4105
11.2073
11.0014
10.793
10.5822
10.3692
10.154
9.93672
9.7174
9.49607
9.27273
9.0474
8.82005
8.59066
8.35919
8.1256
7.88983
7.65183
7.41151
7.16881
6.92366
6.67596
6.42565
6.17264
5.91687
5.65826
5.39674
5.13225
4.86475
4.59418
4.3205
4.04369
3.76369
3.4805
3.19408
2.90442
2.6115
2.31524
2.01571
1.71256
1.40647
1.09551
0.783703
0.461139
0.147084
11.9646
11.8248
11.6882
11.5418
11.3768
11.1918
10.9935
10.7954
10.6155
10.4736
10.388
10.3728
10.4372
10.584
10.8105
11.1092
11.4685
11.8735
12.3079
12.755
13.199
13.6264
14.0263
14.3911
14.7158
14.9968
15.2311
15.4144
15.5407
15.603
15.5952
15.5153
15.3698
15.1766
14.962
14.751
14.5587
14.3883
14.2355
14.0936
13.9566
13.8199
13.6805
13.5366
13.3874
13.2325
13.0719
12.9057
12.7343
12.5579
12.3768
12.1915
12.0021
11.8091
11.6127
11.4131
11.2106
11.0054
10.7975
10.5873
10.3747
10.1598
9.9428
9.72367
9.50247
9.27922
9.05392
8.82656
8.59712
8.36559
8.13191
7.89604
7.65792
7.41749
7.17468
6.92942
6.68164
6.43125
6.1782
5.9224
5.66379
5.40229
5.13785
4.87042
4.59993
4.32634
4.04961
3.7697
3.48657
3.20018
2.91049
2.61747
2.32103
2.02122
1.71764
1.41104
1.09923
0.786858
0.462441
0.149047
12.0896
11.9612
11.8323
11.6953
11.5467
11.3861
11.2192
11.0569
10.9137
10.8052
10.7465
10.7492
10.8211
10.9649
11.1789
11.4569
11.7893
12.1636
12.5658
12.9812
13.3959
13.7976
14.1761
14.5241
14.8363
15.1091
15.3388
15.5206
15.6478
15.7123
15.7063
15.6258
15.4754
15.2717
15.0417
14.8128
14.6026
14.4164
14.2512
14.1002
13.9569
13.8161
13.6742
13.5291
13.3795
13.2248
13.0647
12.8993
12.7288
12.5534
12.3734
12.1891
12.0008
11.8088
11.6133
11.4146
11.2129
11.0084
10.8012
10.5915
10.3793
10.1649
9.94817
9.7293
9.50828
9.28516
9.05994
8.83261
8.60318
8.37161
8.13788
7.90193
7.66373
7.42322
7.18032
6.93499
6.68714
6.4367
6.18362
5.9278
5.6692
5.40773
5.14334
4.87597
4.60556
4.33206
4.05542
3.77558
3.49251
3.20613
2.91641
2.6233
2.32666
2.02658
1.72257
1.41547
1.10283
0.789899
0.463725
0.151043
12.215
12.098
11.9784
11.8525
11.7199
11.5811
11.4411
11.3089
11.1961
11.1154
11.0787
11.096
11.1737
11.3145
11.5171
11.7766
12.085
12.4317
12.8048
13.1915
13.5794
13.9574
14.3161
14.6484
14.9489
15.2138
15.4389
15.6191
15.7471
15.8136
15.8096
15.7291
15.5749
15.3625
15.1191
14.8737
14.6464
14.4447
14.2667
14.1061
13.956
13.8107
13.6662
13.5196
13.3695
13.2148
13.0553
12.8907
12.7212
12.5468
12.368
12.1849
11.9977
11.8068
11.6124
11.4147
11.2138
11.0101
10.8036
10.5945
10.3829
10.1689
9.95265
9.73409
9.51334
9.29041
9.06532
8.83809
8.60871
8.37717
8.14342
7.90745
7.66921
7.42865
7.18571
6.94032
6.69243
6.44197
6.18887
5.93306
5.67448
5.41305
5.14872
4.88142
4.61109
4.33768
4.06112
3.78135
3.49832
3.21196
2.92221
2.62898
2.33216
2.03179
1.72736
1.41976
1.10632
0.792837
0.465015
0.153069
12.3407
12.235
12.1257
12.0115
11.8942
11.7749
11.6582
11.5514
11.464
11.4061
11.3877
11.4168
11.499
11.6365
11.8287
12.0715
12.3583
12.6803
13.027
13.3875
13.7508
14.1069
14.4471
14.7645
15.0538
15.3109
15.5313
15.7096
15.8377
15.906
15.9038
15.8238
15.6669
15.4477
15.1929
14.9327
14.6893
14.4725
14.2816
14.111
13.9537
13.8036
13.6561
13.5079
13.3571
13.2024
13.0434
12.8796
12.7112
12.538
12.3604
12.1785
11.9926
11.8029
11.6096
11.4129
11.2131
11.0103
10.8046
10.5962
10.3853
10.1718
9.95603
9.73788
9.51745
9.2948
9.06993
8.84286
8.6136
8.38214
8.14845
7.91251
7.67428
7.43371
7.19076
6.94537
6.69748
6.44702
6.19393
5.93815
5.67961
5.41824
5.15397
4.88676
4.61652
4.34319
4.06671
3.78702
3.50403
3.21768
2.92788
2.63455
2.33754
2.03688
1.73203
1.42393
1.10973
0.795687
0.466341
0.155126
12.4666
12.372
12.2734
12.171
12.0681
11.9664
11.8698
11.7845
11.7182
11.6794
11.6759
11.7146
11.7999
11.9342
12.1168
12.3445
12.6119
12.9114
13.2342
13.5708
13.9114
14.2471
14.5697
14.8729
15.1512
15.4004
15.6158
15.7915
15.9193
15.9885
15.9878
15.9085
15.75
15.5256
15.2617
14.9887
14.7306
14.4992
14.2956
14.1148
13.9499
13.7946
13.6436
13.4936
13.342
13.1873
13.0287
12.8659
12.6985
12.5266
12.3503
12.1697
11.9851
11.7967
11.6046
11.4092
11.2104
11.0086
10.8038
10.5963
10.3861
10.1733
9.9581
9.74045
9.52045
9.29815
9.07359
8.84677
8.61771
8.3864
8.15284
7.91699
7.67884
7.43833
7.19543
6.95008
6.70222
6.45181
6.19877
5.94304
5.68457
5.42327
5.1591
4.89197
4.62183
4.3486
4.07221
3.79259
3.50965
3.2233
2.93345
2.64001
2.34281
2.04187
1.7366
1.42801
1.11307
0.79847
0.467731
0.157206
12.5928
12.5088
12.4209
12.3301
12.2407
12.1546
12.0754
12.0084
11.9599
11.9368
11.9456
11.9918
12.0795
12.2103
12.3841
12.5981
12.8479
13.1271
13.4282
13.7428
14.0623
14.3788
14.6848
14.9741
15.2415
15.4825
15.6923
15.8646
15.991
16.0604
16.0607
15.982
15.8228
15.595
15.324
15.0403
14.7692
14.5242
14.3081
14.117
13.9442
13.7833
13.6288
13.4766
13.324
13.1692
13.0111
12.8491
12.6828
12.5122
12.3373
12.1582
11.975
11.788
11.5973
11.4031
11.2056
11.0048
10.8011
10.5945
10.3852
10.1732
9.95864
9.7416
9.52214
9.3003
9.07613
8.84966
8.62089
8.38983
8.15647
7.9208
7.68279
7.44241
7.19962
6.95436
6.7066
6.45628
6.20333
5.9477
5.68932
5.42813
5.16407
4.89705
4.62702
4.3539
4.07761
3.79806
3.51517
3.22883
2.93894
2.64539
2.34799
2.04677
1.74111
1.43203
1.11639
0.801211
0.46922
0.159304
12.7192
12.6454
12.5679
12.4881
12.4112
12.339
12.2749
12.2234
12.1898
12.1797
12.1986
12.2509
12.3399
12.4674
12.6329
12.8346
13.0684
13.3291
13.6103
13.9046
14.2046
14.5029
14.7929
15.0686
15.3249
15.5572
15.7606
15.9285
16.0524
16.1209
16.1213
16.0432
15.8839
15.6542
15.3784
15.0863
14.8039
14.5466
14.3186
14.1173
13.9365
13.7697
13.6112
13.4567
13.3029
13.1479
12.9902
12.829
12.6639
12.4947
12.3213
12.1437
11.962
11.7765
11.5873
11.3945
11.1982
10.9988
10.7962
10.5907
10.3823
10.1712
9.95745
9.74113
9.52231
9.30104
9.07738
8.85135
8.62297
8.39226
8.1592
7.92379
7.68602
7.44584
7.20324
6.95815
6.71055
6.46037
6.20757
5.95208
5.69384
5.43279
5.16886
4.90198
4.63209
4.35909
4.0829
3.80344
3.52061
3.23428
2.94435
2.6507
2.35312
2.05162
1.74557
1.43601
1.11971
0.803937
0.470836
0.161406
12.8459
12.7816
12.714
12.6446
12.5791
12.5194
12.4683
12.43
12.4089
12.4096
12.4366
12.4936
12.5834
12.7074
12.8654
13.0556
13.2749
13.5188
13.7817
14.0572
14.3388
14.6199
14.8944
15.1566
15.4015
15.6244
15.8203
15.9827
16.1028
16.169
16.1687
16.0907
15.932
15.7019
15.4233
15.1252
14.8337
14.5654
14.3265
14.1152
13.9264
13.7535
13.5909
13.4337
13.2787
13.1233
12.9659
12.8056
12.6417
12.4739
12.302
12.126
11.946
11.7621
11.5744
11.3831
11.1883
10.9902
10.7889
10.5845
10.3772
10.1671
9.95429
9.73881
9.52076
9.30019
9.07715
8.85168
8.6238
8.39354
8.16088
7.92584
7.68839
7.44851
7.20617
6.96134
6.71396
6.464
6.2114
5.95611
5.69806
5.43719
5.17344
4.90673
4.637
4.36414
4.08809
3.80873
3.52596
3.23967
2.94971
2.65596
2.3582
2.05644
1.75003
1.43999
1.12308
0.806683
0.472617
0.1635
12.9731
12.9176
12.8592
12.7994
12.7442
12.6954
12.6557
12.6286
12.6179
12.6275
12.6611
12.7217
12.8117
12.9322
13.0831
13.2629
13.4689
13.6974
13.9433
14.2014
14.4657
14.7303
14.9895
15.2381
15.4711
15.6839
15.8712
16.0266
16.1413
16.2039
16.2017
16.1235
15.9657
15.7366
15.4573
15.1555
14.8572
14.5798
14.3309
14.1104
13.9136
13.7346
13.5676
13.4077
13.2511
13.0952
12.9382
12.7786
12.6159
12.4495
12.2792
12.1049
11.9266
11.7444
11.5583
11.3686
11.1754
10.9788
10.7788
10.5758
10.3697
10.1608
9.94897
9.73445
9.51728
9.29752
9.07523
8.85044
8.62319
8.39349
8.16136
7.92678
7.68976
7.45028
7.20831
6.96381
6.71674
6.46707
6.21475
5.95971
5.70191
5.44128
5.17775
4.91126
4.64171
4.36904
4.09314
3.8139
3.53122
3.24497
2.955
2.66117
2.36326
2.06126
1.75449
1.44399
1.12652
0.809477
0.474589
0.165563
13.1008
13.0535
13.0034
12.9524
12.9063
12.8671
12.8372
12.8196
12.8176
12.8345
12.8733
12.9366
13.0262
13.1432
13.2874
13.4576
13.6514
13.8656
14.096
14.3377
14.5855
14.8341
15.0783
15.313
15.5335
15.7351
15.9126
16.0595
16.1672
16.2247
16.2194
16.1405
15.9839
15.757
15.479
15.176
14.8732
14.5887
14.3313
14.1022
13.8979
13.7128
13.5414
13.3785
13.2203
13.0638
12.9069
12.7481
12.5865
12.4216
12.2529
12.0803
11.9038
11.7233
11.5391
11.3511
11.1595
10.9644
10.766
10.5643
10.3596
10.1519
9.94126
9.72784
9.51168
9.29286
9.07144
8.84746
8.62095
8.39194
8.16044
7.92645
7.68998
7.451
7.20949
6.96542
6.71876
6.46947
6.2175
5.9628
5.70531
5.44497
5.18172
4.91549
4.64619
4.37373
4.09801
3.81894
3.53637
3.25019
2.96023
2.66634
2.3683
2.06607
1.75899
1.44805
1.13007
0.812353
0.476783
0.167578
13.2295
13.1892
13.1467
13.1035
13.0655
13.0346
13.013
13.0034
13.0086
13.0313
13.0742
13.1393
13.2282
13.3417
13.4796
13.6408
13.8233
14.0243
14.24
14.4662
14.6982
14.9313
15.1604
15.3809
15.5882
15.7775
15.9438
16.0807
16.1797
16.2304
16.2208
16.1406
15.9856
15.762
15.4871
15.1852
14.8804
14.591
14.3267
14.0902
13.8789
13.688
13.5121
13.3462
13.1862
13.0289
12.872
12.7139
12.5535
12.39
12.2229
12.0521
11.8774
11.6988
11.5164
11.3302
11.1403
10.9469
10.7501
10.55
10.3467
10.1403
9.931
9.71879
9.50377
9.28601
9.06559
8.84254
8.6169
8.3887
8.15796
7.92468
7.68886
7.4505
7.20956
6.96603
6.71988
6.47106
6.21953
5.96524
5.70814
5.44818
5.18527
4.91935
4.65034
4.37815
4.10266
3.82378
3.54137
3.25528
2.96536
2.67145
2.37331
2.07088
1.76353
1.45217
1.13374
0.815332
0.479218
0.169514
13.3592
13.325
13.2891
13.2527
13.2217
13.1979
13.1833
13.1803
13.1913
13.2187
13.2647
13.3309
13.4186
13.5285
13.6603
13.8131
13.985
14.1736
14.3755
14.5869
14.8037
15.0214
15.2354
15.4412
15.6345
15.8104
15.9641
16.0893
16.1781
16.2205
16.2055
16.1233
15.9699
15.7506
15.4806
15.1821
14.8778
14.5857
14.3165
14.0738
13.8564
13.66
13.4798
13.3108
13.1489
12.9907
12.8338
12.6763
12.5169
12.3547
12.1893
12.0203
11.8474
11.6707
11.4902
11.3058
11.1178
10.9262
10.731
10.5326
10.3308
10.1259
9.91801
9.70712
9.49336
9.2768
9.05749
8.83549
8.61085
8.38359
8.15373
7.92128
7.68624
7.44861
7.20836
6.96548
6.71993
6.47169
6.22069
5.96691
5.71029
5.45077
5.18828
4.92274
4.65408
4.38221
4.10701
3.82836
3.54615
3.2602
2.97037
2.67647
2.37827
2.07569
1.76811
1.45637
1.13755
0.818432
0.481909
0.171347
13.4903
13.4611
13.4305
13.3999
13.3748
13.357
13.3482
13.3505
13.3662
13.3972
13.4454
13.512
13.5982
13.7044
13.8302
13.975
14.1369
14.3136
14.5024
14.6996
14.9015
15.1039
15.3026
15.4933
15.6716
15.8331
15.9728
16.0848
16.1618
16.1945
16.1729
16.0882
15.9365
15.7222
15.4586
15.1657
14.8643
14.572
14.2999
14.0526
13.83
13.6288
13.4445
13.2725
13.1086
12.9494
12.7923
12.6353
12.4768
12.316
12.1522
11.9849
11.8139
11.6391
11.4605
11.2781
11.0919
10.9021
10.7087
10.512
10.3119
10.1086
9.90216
9.69271
9.48031
9.26505
9.04698
8.82616
8.60263
8.37643
8.14757
7.91607
7.68194
7.44515
7.20571
6.96359
6.71876
6.47119
6.22084
5.96766
5.7116
5.45261
5.19061
4.92553
4.6573
4.3858
4.11095
3.8326
3.55063
3.26488
2.97518
2.68134
2.38313
2.08044
1.77269
1.46062
1.14149
0.821652
0.484855
0.173041
13.6229
13.5973
13.571
13.5451
13.5249
13.5119
13.5077
13.5144
13.5336
13.5673
13.6167
13.6832
13.7674
13.8697
13.9897
14.1266
14.2789
14.4444
14.6204
14.8038
14.991
15.1781
15.3613
15.5363
15.6989
15.8449
15.9695
16.067
16.1307
16.1524
16.1233
16.0355
15.8855
15.6767
15.4209
15.1354
14.8393
14.5491
14.2763
14.0262
13.7996
13.5943
13.4064
13.2315
13.0656
12.9053
12.7479
12.5912
12.4336
12.274
12.1116
11.9461
11.7769
11.604
11.4273
11.2468
11.0626
10.8747
10.6832
10.4882
10.2898
10.0882
9.88335
9.67543
9.4645
9.25065
9.03392
8.81439
8.59209
8.36706
8.13933
7.9089
7.67577
7.43996
7.20144
6.96019
6.71619
6.4694
6.21979
5.96731
5.71191
5.45353
5.19212
4.92758
4.65984
4.38881
4.11436
3.83638
3.55472
3.26922
2.9797
2.68599
2.38782
2.08509
1.77724
1.4649
1.14553
0.824983
0.488045
0.174568
13.7568
13.7337
13.7105
13.6882
13.6718
13.6625
13.6619
13.6718
13.6936
13.729
13.779
13.8446
13.9265
14.0247
14.1388
14.2681
14.4109
14.5654
14.7291
14.8989
15.0715
15.2434
15.4108
15.5696
15.716
15.8455
15.9539
16.0358
16.0853
16.095
16.0575
15.9659
15.8174
15.6146
15.3675
15.091
14.8023
14.5166
14.2451
13.994
13.765
13.5565
13.3654
13.1879
13.0201
12.8587
12.7008
12.5443
12.3874
12.2289
12.068
11.904
11.7366
11.5656
11.3908
11.2122
11.0299
10.8439
10.6543
10.4612
10.2646
10.0647
9.86152
9.65522
9.44585
9.2335
9.01822
8.80007