/*--------------------------------*- C++ -*----------------------------------*\
| =========                 |                                                 |
| \\      /  F ield         | OpenFOAM: The Open Source CFD Toolbox           |
|  \\    /   O peration     | Version:  4.1                                   |
|   \\  /    A nd           | Web:      www.OpenFOAM.org                      |
|    \\/     M anipulation  |                                                 |
\*---------------------------------------------------------------------------*/
FoamFile
{
    version     2.0;
    format      ascii;
    class       surfaceScalarField;
    location    "100";
    object      phi;
}
// * * * * * * * * * * * * * * * * * * * * * * * * * * * * * * * * * * * * * //

dimensions      [0 3 -1 0 0 0 0];

internalField   nonuniform List<scalar> 
13452
(
6.28708e-05
-2.60236e-06
6.37429e-05
-8.72031e-07
6.46364e-05
-8.9358e-07
6.41226e-05
5.13839e-07
6.29213e-05
1.20129e-06
6.15948e-05
1.32655e-06
6.03469e-05
1.24787e-06
5.92187e-05
1.12816e-06
5.82111e-05
1.00764e-06
5.73166e-05
8.94519e-07
5.65248e-05
7.91809e-07
5.58247e-05
7.00113e-07
5.52064e-05
6.18217e-07
5.46621e-05
5.44383e-07
5.41849e-05
4.77152e-07
5.37695e-05
4.15436e-07
5.34111e-05
3.58389e-07
5.31058e-05
3.05308e-07
5.28502e-05
2.55585e-07
5.26415e-05
2.08654e-07
5.24776e-05
1.63944e-07
5.23567e-05
1.2089e-07
5.22776e-05
7.90731e-08
5.22394e-05
3.8208e-08
5.22374e-05
2.06181e-09
5.2267e-05
-2.96064e-08
5.23302e-05
-6.32115e-08
5.24331e-05
-1.02937e-07
5.25859e-05
-1.52757e-07
5.28064e-05
-2.20525e-07
5.3126e-05
-3.19554e-07
5.3633e-05
-5.07026e-07
-8.05835e-07
5.44388e-05
6.30687e-05
-3.68074e-06
6.28022e-05
-6.05494e-07
6.21289e-05
-2.20297e-07
6.23446e-05
2.9809e-07
6.2807e-05
7.38891e-07
6.32133e-05
9.20308e-07
6.34906e-05
9.70523e-07
6.3647e-05
9.71782e-07
6.37085e-05
9.4615e-07
6.37013e-05
9.01676e-07
6.36468e-05
8.46318e-07
6.35609e-05
7.86087e-07
6.34551e-05
7.24025e-07
6.3338e-05
6.61444e-07
6.32161e-05
5.99065e-07
6.30941e-05
5.37374e-07
6.29759e-05
4.76655e-07
6.28641e-05
4.17041e-07
6.27612e-05
3.58544e-07
6.26688e-05
3.01064e-07
6.25884e-05
2.4437e-07
6.25212e-05
1.88089e-07
6.24685e-05
1.31715e-07
6.24322e-05
7.45286e-08
6.24189e-05
1.53429e-08
6.24365e-05
-4.72151e-08
6.24891e-05
-1.15786e-07
6.25812e-05
-1.95004e-07
6.27196e-05
-2.91202e-07
6.29149e-05
-4.15864e-07
6.31816e-05
-5.86215e-07
6.35254e-05
-8.50839e-07
-1.20773e-06
6.39273e-05
6.23312e-05
-2.25051e-06
6.26649e-05
-9.3919e-07
6.28172e-05
-3.72642e-07
6.31087e-05
6.58369e-09
6.34459e-05
4.01704e-07
6.37442e-05
6.2203e-07
6.39961e-05
7.1866e-07
6.42052e-05
7.62606e-07
6.43755e-05
7.75914e-07
6.45125e-05
7.64671e-07
6.46229e-05
7.35927e-07
6.47128e-05
6.96168e-07
6.47875e-05
6.49285e-07
6.48516e-05
5.97397e-07
6.49087e-05
5.41933e-07
6.49621e-05
4.8398e-07
6.50144e-05
4.24329e-07
6.50679e-05
3.63522e-07
6.51246e-05
3.01899e-07
6.5186e-05
2.39608e-07
6.52538e-05
1.76583e-07
6.53294e-05
1.12501e-07
6.54144e-05
4.67672e-08
6.55104e-05
-2.15155e-08
6.562e-05
-9.42045e-08
6.57465e-05
-1.73745e-07
6.58939e-05
-2.63239e-07
6.60665e-05
-3.67566e-07
6.6269e-05
-4.93647e-07
6.65058e-05
-6.52731e-07
6.67788e-05
-8.59142e-07
6.70711e-05
-1.14318e-06
-1.50193e-06
6.73653e-05
6.47772e-05
-1.44467e-06
6.47378e-05
-8.99737e-07
6.47924e-05
-4.27233e-07
6.49074e-05
-1.08431e-07
6.50804e-05
2.28658e-07
6.52567e-05
4.45733e-07
6.54227e-05
5.52736e-07
6.55775e-05
6.0775e-07
6.57205e-05
6.3295e-07
6.58516e-05
6.33538e-07
6.59723e-05
6.15225e-07
6.60847e-05
5.8382e-07
6.61909e-05
5.43057e-07
6.62932e-05
4.95113e-07
6.63935e-05
4.41561e-07
6.64939e-05
3.83671e-07
6.65958e-05
3.22438e-07
6.67007e-05
2.58606e-07
6.68099e-05
1.92703e-07
6.69244e-05
1.25031e-07
6.70454e-05
5.56208e-08
6.71737e-05
-1.58199e-08
6.73105e-05
-9.00026e-08
6.74571e-05
-1.68121e-07
6.7615e-05
-2.52148e-07
6.77861e-05
-3.44818e-07
6.79725e-05
-4.49666e-07
6.81766e-05
-5.7163e-07
6.84002e-05
-7.17275e-07
6.86434e-05
-8.95904e-07
6.8902e-05
-1.11774e-06
6.91581e-05
-1.39932e-06
-1.73507e-06
6.93913e-05
6.70085e-05
-9.96411e-07
6.6862e-05
-7.5317e-07
6.68391e-05
-4.04372e-07
6.68725e-05
-1.41859e-07
6.69666e-05
1.3462e-07
6.70826e-05
3.2968e-07
6.72005e-05
4.34841e-07
6.73168e-05
4.91433e-07
6.74308e-05
5.18998e-07
6.75417e-05
5.22594e-07
6.76499e-05
5.07094e-07
6.77561e-05
4.77565e-07
6.78617e-05
4.37427e-07
6.7968e-05
3.88804e-07
6.80763e-05
3.33298e-07
6.81877e-05
2.72258e-07
6.83034e-05
2.06801e-07
6.84241e-05
1.37826e-07
6.85508e-05
6.60255e-08
6.8684e-05
-8.14944e-09
6.88242e-05
-8.45507e-08
6.89718e-05
-1.63415e-07
6.91272e-05
-2.45465e-07
6.92911e-05
-3.32001e-07
6.9464e-05
-4.25071e-07
6.96467e-05
-5.27494e-07
6.98399e-05
-6.42868e-07
7.00441e-05
-7.75801e-07
7.02587e-05
-9.31877e-07
7.04806e-05
-1.11783e-06
7.07026e-05
-1.33969e-06
7.09073e-05
-1.60409e-06
-1.9021e-06
7.10744e-05
6.90841e-05
-6.96503e-07
6.89367e-05
-6.05794e-07
6.88945e-05
-3.62099e-07
6.8902e-05
-1.49362e-07
6.89595e-05
7.71316e-08
6.90423e-05
2.46879e-07
6.91318e-05
3.45319e-07
6.92236e-05
3.99652e-07
6.9317e-05
4.25601e-07
6.94114e-05
4.28157e-07
6.95068e-05
4.11671e-07
6.96039e-05
3.80541e-07
6.97034e-05
3.37884e-07
6.98064e-05
2.8577e-07
6.99139e-05
2.25832e-07
7.00267e-05
1.59498e-07
7.01454e-05
8.80207e-08
7.02708e-05
1.24837e-08
7.0403e-05
-6.62097e-08
7.05423e-05
-1.47388e-07
7.06884e-05
-2.30705e-07
7.08412e-05
-3.16249e-07
7.10004e-05
-4.04652e-07
7.11656e-05
-4.97187e-07
7.13364e-05
-5.95861e-07
7.15123e-05
-7.03395e-07
7.16926e-05
-8.23121e-07
7.18757e-05
-9.58898e-07
7.20585e-05
-1.11477e-06
7.22353e-05
-1.29453e-06
7.23957e-05
-1.50016e-06
7.25231e-05
-1.73144e-06
-1.97791e-06
7.25989e-05
7.11518e-05
-4.81977e-07
7.10241e-05
-4.78122e-07
7.09765e-05
-3.14511e-07
7.09724e-05
-1.45263e-07
7.10101e-05
3.95295e-08
7.10726e-05
1.84346e-07
7.11447e-05
2.73221e-07
7.12214e-05
3.22904e-07
7.13019e-05
3.45158e-07
7.13854e-05
3.44599e-07
7.1472e-05
3.25115e-07
7.1562e-05
2.90499e-07
7.16563e-05
2.43579e-07
7.17557e-05
1.86382e-07
7.1861e-05
1.20598e-07
7.19727e-05
4.77745e-08
7.20913e-05
-3.06415e-08
7.22171e-05
-1.13305e-07
7.23499e-05
-1.99006e-07
7.24893e-05
-2.86751e-07
7.26345e-05
-3.75885e-07
7.27845e-05
-4.66227e-07
7.2938e-05
-5.58198e-07
7.30937e-05
-6.52909e-07
7.325e-05
-7.5217e-07
7.3405e-05
-8.58368e-07
7.35561e-05
-9.74198e-07
7.36995e-05
-1.1023e-06
7.38295e-05
-1.24478e-06
7.39377e-05
-1.40276e-06
7.40134e-05
-1.57583e-06
7.40441e-05
-1.76211e-06
-1.95593e-06
7.40221e-05
7.3252e-05
-3.28671e-07
7.31437e-05
-3.69825e-07
7.30945e-05
-2.65354e-07
7.30837e-05
-1.34496e-07
7.31092e-05
1.40516e-08
7.31585e-05
1.35047e-07
7.32192e-05
2.12543e-07
7.32863e-05
2.55799e-07
7.33585e-05
2.72997e-07
7.3435e-05
2.68067e-07
7.35157e-05
2.44378e-07
7.36011e-05
2.0517e-07
7.36917e-05
1.52998e-07
7.37882e-05
8.98597e-08
7.38912e-05
1.75331e-08
7.40013e-05
-6.22536e-08
7.41184e-05
-1.47778e-07
7.42424e-05
-2.37333e-07
7.43727e-05
-3.29291e-07
7.45082e-05
-4.22212e-07
7.46473e-05
-5.15004e-07
7.47882e-05
-6.07092e-07
7.49285e-05
-6.9856e-07
7.50658e-05
-7.90196e-07
7.51971e-05
-8.8342e-07
7.53187e-05
-9.80006e-07
7.54262e-05
-1.08169e-06
7.55137e-05
-1.18985e-06
7.55744e-05
-1.30541e-06
7.56011e-05
-1.42947e-06
7.5589e-05
-1.5637e-06
7.55369e-05
-1.71006e-06
-1.86902e-06
7.545e-05
7.53944e-05
-2.20604e-07
7.53042e-05
-2.79597e-07
7.52563e-05
-2.17466e-07
7.52418e-05
-1.19966e-07
7.52592e-05
-3.40229e-09
7.52992e-05
9.50628e-08
7.53517e-05
1.60035e-07
7.5412e-05
1.95488e-07
7.54784e-05
2.06591e-07
7.55501e-05
1.96389e-07
7.56268e-05
1.67675e-07
7.57088e-05
1.23178e-07
7.57966e-05
6.52054e-08
7.58907e-05
-4.26073e-09
7.59915e-05
-8.33116e-08
7.60993e-05
-1.69968e-07
7.62136e-05
-2.62141e-07
7.6334e-05
-3.57658e-07
7.6459e-05
-4.5435e-07
7.6587e-05
-5.50203e-07
7.67156e-05
-6.43564e-07
7.68418e-05
-7.33339e-07
7.69624e-05
-8.19133e-07
7.70734e-05
-9.0126e-07
7.71706e-05
-9.80555e-07
7.72486e-05
-1.05807e-06
7.73018e-05
-1.13487e-06
7.73244e-05
-1.21238e-06
7.73123e-05
-1.29337e-06
7.72656e-05
-1.38274e-06
7.71885e-05
-1.48657e-06
7.70879e-05
-1.60946e-06
-1.75289e-06
7.69717e-05
7.75846e-05
-1.45595e-07
7.75116e-05
-2.06603e-07
7.74675e-05
-1.73415e-07
7.74514e-05
-1.03889e-07
7.74634e-05
-1.53849e-08
7.74965e-05
6.19796e-08
7.75428e-05
1.13795e-07
7.75978e-05
1.40418e-07
7.76598e-05
1.44598e-07
7.77278e-05
1.28435e-07
7.78013e-05
9.4117e-08
7.78806e-05
4.39063e-08
7.79659e-05
-2.01064e-08
7.80576e-05
-9.59281e-08
7.81557e-05
-1.81471e-07
7.82602e-05
-2.74434e-07
7.83703e-05
-3.72271e-07
7.84849e-05
-4.72235e-07
7.86021e-05
-5.71502e-07
7.87192e-05
-6.67368e-07
7.88332e-05
-7.57498e-07
7.894e-05
-8.40163e-07
7.90352e-05
-9.14376e-07
7.91138e-05
-9.7986e-07
7.91702e-05
-1.03689e-06
7.91984e-05
-1.08627e-06
7.91934e-05
-1.12993e-06
7.91532e-05
-1.17216e-06
7.90803e-05
-1.22047e-06
7.89818e-05
-1.2842e-06
7.88664e-05
-1.37115e-06
7.87415e-05
-1.48457e-06
-1.62373e-06
7.86123e-05
7.98272e-05
-9.44893e-08
7.97702e-05
-1.49555e-07
7.97319e-05
-1.35146e-07
7.97162e-05
-8.8178e-08
7.97247e-05
-2.38536e-08
7.97526e-05
3.40541e-08
7.97938e-05
7.25414e-08
7.98446e-05
8.96565e-08
7.99029e-05
8.62983e-08
7.99677e-05
6.36716e-08
8.00384e-05
2.33738e-08
8.01151e-05
-3.27471e-08
8.01977e-05
-1.02777e-07
8.02865e-05
-1.84677e-07
8.03811e-05
-2.76129e-07
8.04811e-05
-3.74443e-07
8.05854e-05
-4.7653e-07
8.06921e-05
-5.78975e-07
8.07988e-05
-6.78197e-07
8.09022e-05
-7.707e-07
8.0998e-05
-8.53371e-07
8.10816e-05
-9.23762e-07
8.11475e-05
-9.80233e-07
8.11896e-05
-1.02199e-06
8.1202e-05
-1.04923e-06
8.11796e-05
-1.0639e-06
8.11208e-05
-1.07117e-06
8.10292e-05
-1.0805e-06
8.09128e-05
-1.10414e-06
8.07817e-05
-1.15308e-06
8.06439e-05
-1.23335e-06
8.05044e-05
-1.34503e-06
-1.48489e-06
8.03655e-05
8.21264e-05
-6.04384e-08
8.20834e-05
-1.06602e-07
8.20521e-05
-1.03812e-07
8.20384e-05
-7.44329e-08
8.2045e-05
-3.04768e-08
8.20692e-05
9.85657e-09
8.21064e-05
3.52886e-08
8.21535e-05
4.25763e-08
8.22085e-05
3.13039e-08
8.22703e-05
1.90715e-09
8.23382e-05
-4.45458e-08
8.2412e-05
-1.06558e-07
8.24916e-05
-1.82344e-07
8.25767e-05
-2.69776e-07
8.26668e-05
-3.66263e-07
8.2761e-05
-4.68658e-07
8.28578e-05
-5.73265e-07
8.29547e-05
-6.75922e-07
8.30487e-05
-7.72213e-07
8.31358e-05
-8.57777e-07
8.32111e-05
-9.28665e-07
8.3269e-05
-9.81673e-07
8.33033e-05
-1.01458e-06
8.33078e-05
-1.02644e-06
8.3277e-05
-1.01844e-06
8.32087e-05
-9.95553e-07
8.31056e-05
-9.68133e-07
8.2976e-05
-9.50888e-07
8.28303e-05
-9.58434e-07
8.26776e-05
-1.00042e-06
8.25238e-05
-1.07956e-06
8.23717e-05
-1.1929e-06
-1.33526e-06
8.22221e-05
8.44857e-05
-3.83502e-08
8.44547e-05
-7.55813e-08
8.44306e-05
-7.97757e-08
8.442e-05
-6.38133e-08
8.44262e-05
-3.66493e-08
8.44479e-05
-1.18364e-08
8.4482e-05
1.20658e-09
8.45258e-05
-1.29496e-09
8.45777e-05
-2.05958e-08
8.46365e-05
-5.68528e-08
8.47014e-05
-1.09431e-07
8.47719e-05
-1.77106e-07
8.48477e-05
-2.58169e-07
8.49283e-05
-3.50363e-07
8.50128e-05
-4.50774e-07
8.50999e-05
-5.55762e-07
8.51877e-05
-6.60966e-07
8.52732e-05
-7.6143e-07
8.53528e-05
-8.51859e-07
8.5422e-05
-9.26986e-07
8.54754e-05
-9.8201e-07
8.55067e-05
-1.01302e-06
8.55096e-05
-1.01744e-06
8.5478e-05
-9.94898e-07
8.54085e-05
-9.48899e-07
8.5302e-05
-8.89085e-07
8.51653e-05
-8.3144e-07
8.50087e-05
-7.94261e-07
8.48422e-05
-7.91942e-07
8.4673e-05
-8.31242e-07
8.45051e-05
-9.11584e-07
8.43398e-05
-1.02764e-06
-1.1729e-06
8.41774e-05
8.69083e-05
-2.45002e-08
8.6887e-05
-5.42752e-08
8.687e-05
-6.27412e-08
8.68631e-05
-5.69582e-08
8.68699e-05
-4.34234e-08
8.68901e-05
-3.20336e-08
8.69217e-05
-3.04072e-08
8.69627e-05
-4.23326e-08
8.70117e-05
-6.95093e-08
8.70673e-05
-1.12491e-07
8.71288e-05
-1.70957e-07
8.71956e-05
-2.43873e-07
8.7267e-05
-3.29544e-07
8.73421e-05
-4.25546e-07
8.742e-05
-5.28615e-07
8.74988e-05
-6.34585e-07
8.75763e-05
-7.38409e-07
8.76491e-05
-8.3432e-07
8.77134e-05
-9.16129e-07
8.77641e-05
-9.77669e-07
8.77954e-05
-1.01332e-06
8.7801e-05
-1.0186e-06
8.77745e-05
-9.9099e-07
8.77111e-05
-9.31496e-07
8.76095e-05
-8.4722e-07
8.74736e-05
-7.5321e-07
8.73124e-05
-6.70246e-07
8.71363e-05
-6.18131e-07
8.69537e-05
-6.09417e-07
8.67702e-05
-6.47706e-07
8.65883e-05
-7.29699e-07
8.6409e-05
-8.4837e-07
-9.96282e-07
8.62324e-05
8.93973e-05
-1.62221e-08
8.93836e-05
-4.05974e-08
8.93728e-05
-5.19541e-08
8.93698e-05
-5.40039e-08
8.93779e-05
-5.14575e-08
8.93973e-05
-5.14857e-08
8.9427e-05
-6.01096e-08
8.94655e-05
-8.08246e-08
8.95115e-05
-1.15476e-07
8.95638e-05
-1.64828e-07
8.96216e-05
-2.2875e-07
8.96841e-05
-3.06309e-07
8.97503e-05
-3.95768e-07
8.98192e-05
-4.94503e-07
8.98895e-05
-5.98883e-07
8.99591e-05
-7.04211e-07
9.00255e-05
-8.04762e-07
9.00851e-05
-8.93973e-07
9.01338e-05
-9.64789e-07
9.01663e-05
-1.01018e-06
9.01768e-05
-1.0238e-06
9.0159e-05
-1.0008e-06
9.01071e-05
-9.3914e-07
9.00177e-05
-8.42032e-07
8.98914e-05
-7.20905e-07
8.97342e-05
-5.96075e-07
8.95557e-05
-4.91721e-07
8.93651e-05
-4.2757e-07
8.91695e-05
-4.13743e-07
8.89728e-05
-4.51042e-07
8.87772e-05
-5.341e-07
8.85835e-05
-6.54693e-07
-8.04693e-07
8.83919e-05
9.19553e-05
-1.1645e-08
9.19474e-05
-3.27042e-08
9.19418e-05
-4.64031e-08
9.19425e-05
-5.4676e-08
9.19521e-05
-6.10164e-08
9.19712e-05
-7.06514e-08
9.19994e-05
-8.82793e-08
9.20355e-05
-1.16958e-07
9.20785e-05
-1.58475e-07
9.21274e-05
-2.13651e-07
9.2181e-05
-2.82426e-07
9.22386e-05
-3.63887e-07
9.22991e-05
-4.56208e-07
9.23611e-05
-5.56541e-07
9.24231e-05
-6.6089e-07
9.24829e-05
-7.64048e-07
9.25378e-05
-8.5965e-07
9.25842e-05
-9.40385e-07
9.26178e-05
-9.98394e-07
9.26335e-05
-1.02587e-06
9.26256e-05
-1.01583e-06
9.25881e-05
-9.63291e-07
9.2516e-05
-8.67116e-07
9.24072e-05
-7.33199e-07
9.22638e-05
-5.77487e-07
9.20926e-05
-4.24852e-07
9.19024e-05
-3.01571e-07
9.17013e-05
-2.26456e-07
9.14948e-05
-2.07269e-07
9.12864e-05
-2.42584e-07
9.10778e-05
-3.25517e-07
9.08701e-05
-4.46989e-07
-5.98332e-07
9.06637e-05
9.4585e-05
-9.4764e-09
9.45813e-05
-2.90405e-08
9.45799e-05
-4.49855e-08
9.45836e-05
-5.84138e-08
9.45947e-05
-7.20224e-08
9.46137e-05
-8.96971e-08
9.46405e-05
-1.15095e-07
9.46744e-05
-1.50801e-07
9.47143e-05
-1.98423e-07
9.47594e-05
-2.58722e-07
9.48086e-05
-3.31617e-07
9.48608e-05
-4.1614e-07
9.4915e-05
-5.10342e-07
9.49696e-05
-6.11145e-07
9.50229e-05
-7.14208e-07
9.50727e-05
-8.13862e-07
9.51162e-05
-9.03168e-07
9.515e-05
-9.74147e-07
9.51698e-05
-1.01823e-06
9.51709e-05
-1.02692e-06
9.51478e-05
-9.92758e-07
9.50953e-05
-9.10762e-07
9.50091e-05
-7.80946e-07
9.48879e-05
-6.12037e-07
9.47346e-05
-4.24192e-07
9.45557e-05
-2.45948e-07
9.43589e-05
-1.04782e-07
9.41509e-05
-1.83855e-08
9.39362e-05
7.42573e-09
9.37179e-05
-2.42626e-08
9.34978e-05
-1.05489e-07
9.32774e-05
-2.26561e-07
-3.78363e-07
9.30574e-05
9.72889e-05
-8.83316e-09
9.72882e-05
-2.83369e-08
9.72898e-05
-4.66212e-08
9.72959e-05
-6.44918e-08
9.7308e-05
-8.41357e-08
9.73268e-05
-1.08529e-07
9.73523e-05
-1.40536e-07
9.73838e-05
-1.82293e-07
9.74205e-05
-2.3517e-07
9.74616e-05
-2.99792e-07
9.7506e-05
-3.75985e-07
9.75525e-05
-4.62682e-07
9.75999e-05
-5.57787e-07
9.76468e-05
-6.58003e-07
9.76913e-05
-7.58687e-07
9.77312e-05
-8.53777e-07
9.77639e-05
-9.35851e-07
9.77861e-05
-9.96379e-07
9.77941e-05
-1.02619e-06
9.77834e-05
-1.01622e-06
9.77492e-05
-9.5861e-07
9.7687e-05
-8.48502e-07
9.75931e-05
-6.87058e-07
9.74667e-05
-4.85626e-07
9.73104e-05
-2.67946e-07
9.71299e-05
-6.54064e-08
9.69313e-05
9.37429e-08
9.67202e-05
1.92728e-07
9.65005e-05
2.27127e-07
9.62751e-05
2.01157e-07
9.60461e-05
1.23509e-07
9.58152e-05
4.32136e-09
-1.46904e-07
9.55838e-05
0.000100069
-9.11413e-09
0.000100071
-2.95795e-08
0.000100074
-5.0317e-08
0.000100082
-7.21168e-08
0.000100095
-9.68408e-08
0.000100113
-1.26848e-07
0.000100137
-1.64406e-07
0.000100166
-2.11252e-07
0.000100199
-2.68499e-07
0.000100236
-3.36595e-07
0.000100275
-4.15233e-07
0.000100316
-5.03217e-07
0.000100356
-5.98302e-07
0.000100395
-6.97002e-07
0.000100431
-7.94432e-07
0.000100461
-8.8423e-07
0.000100484
-9.58609e-07
0.000100496
-1.00861e-06
0.000100495
-1.02461e-06
0.000100476
-9.97065e-07
0.000100435
-9.17814e-07
0.000100368
-7.82087e-07
0.000100273
-5.91987e-07
0.000100149
-3.60959e-07
9.99963e-05
-1.15534e-07
9.98202e-05
1.10686e-07
9.96252e-05
2.88738e-07
9.94156e-05
4.02308e-07
9.9195e-05
4.4776e-07
9.89662e-05
4.29955e-07
9.87317e-05
3.58026e-07
9.84936e-05
2.42422e-07
9.29879e-08
9.82537e-05
0.000102929
-9.90761e-09
0.000102931
-3.19658e-08
0.000102936
-5.51921e-08
0.000102944
-8.04935e-08
0.000102957
-1.09522e-07
0.000102975
-1.44207e-07
0.000102996
-1.86365e-07
0.000103023
-2.37387e-07
0.000103052
-2.98132e-07
0.000103085
-3.68856e-07
0.000103118
-4.49098e-07
0.000103153
-5.37532e-07
0.000103186
-6.31777e-07
0.000103217
-7.28205e-07
0.000103245
-8.21768e-07
0.000103266
-9.0591e-07
0.00010328
-9.72614e-07
0.000103284
-1.01265e-06
0.000103276
-1.01605e-06
0.000103252
-9.72944e-07
0.000103209
-8.74882e-07
0.000103144
-7.17067e-07
0.000103054
-5.02145e-07
0.000102938
-2.44895e-07
0.000102796
2.6241e-08
0.000102631
2.75928e-07
0.000102445
4.74316e-07
0.000102243
6.04924e-07
0.000102026
6.6426e-07
0.000101799
6.57382e-07
0.000101563
5.936e-07
0.000101322
4.83545e-07
3.37359e-07
0.000101078
0.00010587
-1.09261e-08
0.000105873
-3.48581e-08
0.000105878
-6.04771e-08
0.000105886
-8.88603e-08
0.000105898
-1.21518e-07
0.000105914
-1.60068e-07
0.000105934
-2.05971e-07
0.000105957
-2.60321e-07
0.000105982
-3.23737e-07
0.00010601
-3.96284e-07
0.000106038
-4.7735e-07
0.000106066
-5.65485e-07
0.000106092
-6.5821e-07
0.000106116
-7.51814e-07
0.000106135
-8.41175e-07
0.000106149
-9.19665e-07
0.000106156
-9.79181e-07
0.000106153
-1.01037e-06
0.00010614
-1.00309e-06
0.000106115
-9.47254e-07
0.000106074
-8.34118e-07
0.000106016
-6.58683e-07
0.000105937
-4.23605e-07
0.000105836
-1.44087e-07
0.000105712
1.50484e-07
0.000105564
4.23478e-07
0.000105395
6.43837e-07
0.000105206
7.94192e-07
0.000104999
8.70523e-07
0.000104779
8.77631e-07
0.000104548
8.24741e-07
0.000104309
7.22529e-07
5.8137e-07
0.000104065
0.000108894
-1.19601e-08
0.000108897
-3.77376e-08
0.000108902
-6.54965e-08
0.00010891
-9.64986e-08
0.000108921
-1.32152e-07
0.000108934
-1.73832e-07
0.000108951
-2.2271e-07
0.00010897
-2.79614e-07
0.000108992
-3.44941e-07
0.000109014
-4.18577e-07
0.000109036
-4.99772e-07
0.000109058
-5.86981e-07
0.000109077
-6.77669e-07
0.000109094
-7.68112e-07
0.000109106
-8.53212e-07
0.000109112
-9.26397e-07
0.000109113
-9.79627e-07
0.000109106
-1.00359e-06
0.000109091
-9.88142e-07
0.000109067
-9.23053e-07
0.000109032
-7.99339e-07
0.000108985
-6.1158e-07
0.000108923
-3.61867e-07
0.000108844
-6.48206e-08
0.000108744
2.50289e-07
0.000108622
5.46062e-07
0.000108476
7.89896e-07
0.000108307
9.62762e-07
0.000108118
1.05939e-06
0.000107912
1.08384e-06
0.000107692
1.04494e-06
0.000107461
9.53261e-07
8.19309e-07
0.000107223
0.000112005
-1.28468e-08
0.000112008
-4.01627e-08
0.000112012
-6.96386e-08
0.000112018
-1.02723e-07
0.000112027
-1.40744e-07
0.000112038
-1.84869e-07
0.000112051
-2.36016e-07
0.000112066
-2.94773e-07
0.000112083
-3.61331e-07
0.000112099
-4.35414e-07
0.000112116
-5.16154e-07
0.000112131
-6.01945e-07
0.000112143
-6.9025e-07
0.000112153
-7.77405e-07
0.000112158
-8.5844e-07
0.000112159
-9.26961e-07
0.000112154
-9.75145e-07
0.000112144
-9.93887e-07
0.000112129
-9.73186e-07
0.000112109
-9.02828e-07
0.000112083
-7.73606e-07
0.000112051
-5.79515e-07
0.000112011
-3.21541e-07
0.000111959
-1.27256e-08
0.00011189
3.18983e-07
0.0001118
6.36144e-07
0.000111686
9.04428e-07
0.000111546
1.10239e-06
0.000111383
1.22271e-06
0.000111198
1.26811e-06
0.000110997
1.24669e-06
0.000110781
1.16869e-06
1.0446e-06
0.000110556
0.000115205
-1.34452e-08
0.000115207
-4.17284e-08
0.000115209
-7.23181e-08
0.000115213
-1.06854e-07
0.000115219
-1.46593e-07
0.000115227
-1.92504e-07
0.000115236
-2.45272e-07
0.000115247
-3.05256e-07
0.000115258
-3.72455e-07
0.000115269
-4.46443e-07
0.000115279
-5.26266e-07
0.000115287
-6.10291e-07
0.000115293
-6.96035e-07
0.000115296
-7.79967e-07
0.000115295
-8.57342e-07
0.00011529
-9.22069e-07
0.000115281
-9.6668e-07
0.00011527
-9.82442e-07
0.000115256
-9.59665e-07
0.000115242
-8.88293e-07
0.000115227
-7.5898e-07
0.000115213
-5.6505e-07
0.000115197
-3.05976e-07
0.000115177
7.67398e-09
0.000115145
3.50578e-07
0.000115095
6.86313e-07
0.00011502
9.78989e-07
0.000114919
1.2041e-06
0.00011479
1.3514e-06
0.000114636
1.42157e-06
0.000114462
1.42152e-06
0.000114269
1.36085e-06
1.24984e-06
0.000114064
0.000118496
-1.36175e-08
0.000118496
-4.20231e-08
0.000118497
-7.2926e-08
0.000118498
-1.08175e-07
0.000118501
-1.48946e-07
0.000118504
-1.96007e-07
0.000118509
-2.49803e-07
0.000118514
-3.10467e-07
0.000118519
-3.77811e-07
0.000118524
-4.51278e-07
0.000118528
-5.29848e-07
0.000118529
-6.11903e-07
0.000118528
-6.9506e-07
0.000118524
-7.75995e-07
0.000118517
-8.50273e-07
0.000118507
-9.12216e-07
0.000118496
-9.54845e-07
0.000118483
-9.6995e-07
0.000118472
-9.48319e-07
0.000118464
-8.80224e-07
0.000118461
-7.56311e-07
0.000118465
-5.69265e-07
0.000118476
-3.1684e-07
0.00011849
-6.46165e-09
0.0001185
3.40452e-07
0.000118497
6.8993e-07
0.00011847
1.00526e-06
0.000118416
1.25853e-06
0.000118332
1.4357e-06
0.000118219
1.53452e-06
0.00011808
1.56007e-06
0.00011792
1.52089e-06
1.42677e-06
0.000117743
0.000121881
-1.32067e-08
0.000121879
-4.05744e-08
0.000121877
-7.07628e-08
0.000121875
-1.05864e-07
0.000121873
-1.46947e-07
0.000121872
-1.94544e-07
0.000121871
-2.48844e-07
0.00012187
-3.09736e-07
0.000121869
-3.76844e-07
0.000121867
-4.49489e-07
0.000121864
-5.26607e-07
0.000121859
-6.06623e-07
0.000121851
-6.87303e-07
0.00012184
-7.65586e-07
0.000121828
-8.37421e-07
0.000121813
-8.97636e-07
0.000121798
-9.3986e-07
0.000121785
-9.56542e-07
0.000121775
-9.39113e-07
0.000121773
-8.78351e-07
0.000121782
-7.6508e-07
0.000121804
-5.91508e-07
0.000121841
-3.53703e-07
0.000121891
-5.56317e-08
0.000121945
2.86236e-07
0.000121993
6.42096e-07
0.000122022
9.75871e-07
0.000122024
1.25655e-06
0.000121994
1.46552e-06
0.000121932
1.5966e-06
0.00012184
1.65217e-06
0.000121722
1.63915e-06
1.56635e-06
0.000121582
0.000125362
-1.20084e-08
0.000125358
-3.67725e-08
0.000125353
-6.4941e-08
0.000125346
-9.89002e-08
0.000125338
-1.39549e-07
0.000125331
-1.87123e-07
0.000125324
-2.41501e-07
0.000125316
-3.02301e-07
0.000125308
-3.68938e-07
0.000125299
-4.40612e-07
0.000125289
-5.16226e-07
0.000125277
-5.94273e-07
0.000125262
-6.72699e-07
0.000125245
-7.48749e-07
0.000125227
-8.18818e-07
0.000125207
-8.78311e-07
0.000125189
-9.21555e-07
0.000125174
-9.41781e-07
0.000125166
-9.31211e-07
0.000125169
-8.81316e-07
0.000125187
-7.83328e-07
0.000125225
-6.29243e-07
0.000125285
-4.13718e-07
0.000125367
-1.37372e-07
0.000125464
1.88838e-07
0.000125565
5.40947e-07
0.000125656
8.85694e-07
0.000125722
1.19022e-06
0.000125756
1.43111e-06
0.000125756
1.59721e-06
0.000125721
1.68712e-06
0.000125655
1.70525e-06
1.65877e-06
0.000125562
0.000128943
-9.72101e-09
0.000128936
-2.97437e-08
0.000128925
-5.4233e-08
0.000128912
-8.59198e-08
0.000128898
-1.25405e-07
0.000128883
-1.72509e-07
0.000128869
-2.26715e-07
0.000128854
-2.873e-07
0.000128838
-3.53437e-07
0.000128822
-4.24187e-07
0.000128804
-4.9842e-07
0.000128784
-5.74708e-07
0.000128763
-6.51199e-07
0.000128739
-7.25473e-07
0.000128715
-7.94404e-07
0.000128691
-8.54026e-07
0.000128669
-8.99431e-07
0.000128652
-9.24721e-07
0.000128643
-9.23043e-07
0.000128649
-8.86738e-07
0.000128673
-8.07693e-07
0.000128722
-6.78032e-07
0.0001288
-4.91479e-07
0.000128908
-2.4582e-07
0.000129044
5.33764e-08
0.000129195
3.8916e-07
0.000129348
7.33605e-07
0.000129483
1.05443e-06
0.00012959
1.32429e-06
0.000129661
1.52632e-06
0.000129694
1.6541e-06
0.000129691
1.70834e-06
1.69361e-06
0.000129656
0.000132625
-5.85487e-09
0.000132614
-1.81331e-08
0.000132596
-3.68282e-08
0.000132575
-6.50089e-08
0.000132553
-1.02715e-07
0.000132529
-1.49149e-07
0.000132506
-2.0324e-07
0.000132482
-2.63811e-07
0.000132459
-3.29721e-07
0.000132434
-3.99858e-07
0.000132409
-4.73048e-07
0.000132382
-5.47943e-07
0.000132354
-6.22898e-07
0.000132324
-6.95844e-07
0.000132294
-7.6415e-07
0.000132264
-8.24502e-07
0.000132238
-8.72795e-07
0.000132217
-9.04066e-07
0.000132207
-9.12479e-07
0.000132211
-8.91401e-07
0.000132237
-8.3361e-07
0.000132291
-7.31737e-07
0.000132378
-5.79154e-07
0.000132504
-3.71649e-07
0.000132668
-1.10229e-07
0.000132862
1.95359e-07
0.000133071
5.2466e-07
0.000133276
8.49317e-07
0.00013346
1.14044e-06
0.00013361
1.37588e-06
0.000133721
1.5431e-06
0.000133792
1.63766e-06
1.66013e-06
0.000133825
0.000136412
4.53689e-10
0.000136394
2.91169e-10
0.000136367
-9.93938e-09
0.000136335
-3.34046e-08
0.000136301
-6.90543e-08
0.000136267
-1.1512e-07
0.000136234
-1.69702e-07
0.000136201
-2.30971e-07
0.000136169
-2.9737e-07
0.000136136
-3.67563e-07
0.000136104
-4.4031e-07
0.00013607
-5.14339e-07
0.000136035
-5.88218e-07
0.000136
-6.6023e-07
0.000135964
-7.28243e-07
0.000135929
-7.89596e-07
0.000135897
-8.40993e-07
0.000135871
-8.78424e-07
0.000135856
-8.97129e-07
0.000135856
-8.9161e-07
0.000135878
-8.55735e-07
0.00013593
-7.82989e-07
0.000136018
-6.66995e-07
0.000136148
-5.02536e-07
0.000136326
-2.87397e-07
0.000136546
-2.51184e-08
0.000136799
2.72172e-07
0.000137065
5.83279e-07
0.000137323
8.8174e-07
0.000137557
1.14241e-06
0.000137753
1.34668e-06
0.000137907
1.48359e-06
1.54789e-06
0.000138019
0.000140305
1.08289e-08
0.000140276
2.93677e-08
0.000140236
3.08258e-08
0.000140189
1.28924e-08
0.000140141
-2.12371e-08
0.000140095
-6.8207e-08
0.00014005
-1.24815e-07
0.000140007
-1.88279e-07
0.000139966
-2.56489e-07
0.000139926
-3.27844e-07
0.000139887
-4.01032e-07
0.000139848
-4.74867e-07
0.000139808
-5.48147e-07
0.000139767
-6.19513e-07
0.000139726
-6.87326e-07
0.000139686
-7.49558e-07
0.000139649
-8.03697e-07
0.000139617
-8.46671e-07
0.000139594
-8.74795e-07
0.000139587
-8.8375e-07
0.0001396
-8.68624e-07
0.000139641
-8.24024e-07
0.000139718
-7.44347e-07
0.00013984
-6.24327e-07
0.000140012
-4.60068e-07
0.000140238
-2.50804e-07
0.000140512
-1.30472e-09
0.000140819
2.76057e-07
0.000141139
5.61514e-07
0.00014145
8.31442e-07
0.000141733
1.0635e-06
0.000141977
1.24008e-06
1.34829e-06
0.000142176
0.000144307
2.85207e-08
0.00014426
7.58829e-08
0.000144199
9.23978e-08
0.000144132
7.9516e-08
0.000144066
4.46242e-08
0.000144004
-6.28328e-09
0.000143948
-6.79187e-08
0.000143895
-1.36146e-07
0.000143847
-2.08213e-07
0.000143802
-2.82285e-07
0.000143758
-3.57032e-07
0.000143714
-4.31416e-07
0.00014367
-5.0451e-07
0.000143626
-5.75339e-07
0.000143582
-6.42749e-07
0.000143537
-7.05318e-07
0.000143495
-7.61266e-07
0.000143457
-8.08396e-07
0.000143426
-8.4404e-07
0.000143407
-8.65028e-07
0.000143406
-8.67691e-07
0.00014343
-8.47903e-07
0.000143487
-8.01193e-07
0.000143586
-7.22992e-07
0.000143735
-6.09121e-07
0.000143941
-4.56687e-07
0.000144205
-2.65545e-07
0.000144521
-4.02121e-08
0.000144874
2.0853e-07
0.000145242
4.63709e-07
0.000145601
7.04509e-07
0.000145931
9.09483e-07
1.0579e-06
0.000146222
0.000148416
6.04569e-08
0.00014834
1.51983e-07
0.000148247
1.85416e-07
0.000148153
1.73826e-07
0.000148065
1.32503e-07
0.000147987
7.17306e-08
0.000147919
3.83958e-11
0.000147859
-7.67433e-08
0.000147807
-1.55379e-07
0.000147758
-2.34019e-07
0.000147713
-3.11503e-07
0.000147668
-3.87087e-07
0.000147624
-4.60221e-07
0.000147579
-5.30359e-07
0.000147533
-5.9684e-07
0.000147487
-6.58805e-07
0.000147441
-7.15135e-07
0.000147397
-7.64408e-07
0.000147357
-8.04858e-07
0.000147327
-8.34349e-07
0.000147309
-8.50373e-07
0.000147312
-8.50053e-07
0.000147341
-8.30186e-07
0.000147405
-7.87333e-07
0.000147514
-7.17996e-07
0.000147676
-6.18977e-07
0.000147899
-4.88014e-07
0.000148183
-3.24823e-07
0.000148524
-1.32533e-07
0.000148907
8.08963e-08
0.00014931
3.01964e-07
0.000149707
5.11875e-07
6.85993e-07
0.000150079
0.000152628
1.21686e-07
0.0001525
2.7964e-07
0.00015236
3.25459e-07
0.00015223
3.03998e-07
0.000152118
2.44641e-07
0.000152026
1.63959e-07
0.000151951
7.49422e-08
0.000151889
-1.51254e-08
0.000151837
-1.03293e-07
0.000151791
-1.88269e-07
0.000151749
-2.69418e-07
0.000151709
-3.46531e-07
0.000151668
-4.19588e-07
0.000151626
-4.88548e-07
0.000151583
-5.53243e-07
0.000151537
-6.13336e-07
0.00015149
-6.68281e-07
0.000151443
-7.17304e-07
0.000151398
-7.59383e-07
0.000151357
-7.93242e-07
0.000151324
-8.17343e-07
0.000151303
-8.29898e-07
0.000151302
-8.28882e-07
0.000151327
-8.12061e-07
0.000151386
-7.77044e-07
0.000151488
-7.21384e-07
0.000151643
-6.42764e-07
0.000151858
-5.39345e-07
0.000152135
-4.10384e-07
0.000152474
-2.57199e-07
0.00015286
-8.45397e-08
0.000153274
9.74573e-08
2.68714e-07
0.000153692
0.00015693
2.42684e-07
0.000156711
4.99295e-07
0.000156502
5.34531e-07
0.000156329
4.7672e-07
0.000156196
3.78132e-07
0.000156097
2.62502e-07
0.000156025
1.4731e-07
0.00015597
3.92629e-08
0.000155928
-6.08588e-08
0.000155893
-1.53282e-07
0.000155862
-2.38369e-07
0.000155832
-3.16746e-07
0.000155801
-3.89103e-07
0.000155769
-4.55975e-07
0.000155733
-5.17692e-07
0.000155694
-5.74386e-07
0.000155652
-6.25995e-07
0.000155607
-6.7226e-07
0.00015556
-7.12733e-07
0.000155514
-7.46782e-07
0.00015547
-7.73607e-07
0.000155433
-7.92245e-07
0.000155405
-8.01593e-07
0.000155394
-8.00421e-07
0.000155404
-7.87391e-07
0.000155444
-7.61077e-07
0.000155521
-7.19998e-07
0.000155644
-6.62673e-07
0.000155822
-5.87742e-07
0.000156059
-4.94235e-07
0.000156356
-3.82129e-07
0.000156707
-2.53648e-07
-1.18584e-07
0.000157095
0.000161287
4.93842e-07
0.000160907
8.79648e-07
0.000160605
8.36027e-07
0.00016039
6.91989e-07
0.000160248
5.20469e-07
0.00016016
3.49852e-07
0.000160108
1.99663e-07
0.000160077
7.03136e-08
0.000160059
-4.29092e-08
0.000160049
-1.42811e-07
0.000160041
-2.31162e-07
0.000160034
-3.09723e-07
0.000160025
-3.80066e-07
0.000160013
-4.43368e-07
0.000159996
-5.00452e-07
0.000159973
-5.51883e-07
0.000159945
-5.9801e-07
0.000159912
-6.38983e-07
0.000159874
-6.74772e-07
0.000159832
-7.05203e-07
0.000159789
-7.29972e-07
0.000159745
-7.48671e-07
0.000159704
-7.60809e-07
0.00015967
-7.65831e-07
0.000159645
-7.63134e-07
0.000159636
-7.5208e-07
0.000159648
-7.32005e-07
0.000159688
-7.0222e-07
0.000159762
-6.62014e-07
0.000159879
-6.10657e-07
0.000160044
-5.47466e-07
0.000160262
-4.71968e-07
-3.86509e-07
0.00016053
0.000165506