/*--------------------------------*- C++ -*----------------------------------*\
| =========                 |                                                 |
| \\      /  F ield         | OpenFOAM: The Open Source CFD Toolbox           |
|  \\    /   O peration     | Version:  4.1                                   |
|   \\  /    A nd           | Web:      www.OpenFOAM.org                      |
|    \\/     M anipulation  |                                                 |
\*---------------------------------------------------------------------------*/
FoamFile
{
    version     2.0;
    format      ascii;
    class       volVectorField;
    location    "100";
    object      U;
}
// * * * * * * * * * * * * * * * * * * * * * * * * * * * * * * * * * * * * * //

dimensions      [0 1 -1 0 0 0 0];

internalField   nonuniform List<vector> 
6820
(
(7.12052 -2.89959 0)
(7.722 -2.27839 0)
(7.93578 -1.28316 0)
(7.88105 -0.658773 0)
(7.73521 -0.321113 0)
(7.57459 -0.148966 0)
(7.41757 -0.0624862 0)
(7.27178 -0.018678 0)
(7.14117 0.00354156 0)
(7.02564 0.0144637 0)
(6.92344 0.0193399 0)
(6.83296 0.0209508 0)
(6.75297 0.0207884 0)
(6.68242 0.0196631 0)
(6.62044 0.0180252 0)
(6.56628 0.0161306 0)
(6.51931 0.0141253 0)
(6.47902 0.0120902 0)
(6.44497 0.0100672 0)
(6.41678 0.00807296 0)
(6.39415 0.00610715 0)
(6.37683 0.00415849 0)
(6.36467 0.00221341 0)
(6.35752 0.000265261 0)
(6.35546 -0.00153419 0)
(6.35712 -0.00308511 0)
(6.36265 -0.00455921 0)
(6.37258 -0.00619446 0)
(6.38789 -0.00821964 0)
(6.41004 -0.0110758 0)
(6.44195 -0.0150811 0)
(6.48809 -0.0238536 0)
(6.566 -0.0363912 0)
(7.59884 0.654097 0)
(7.43319 0.777462 0)
(7.36166 0.527428 0)
(7.35015 0.342299 0)
(7.39663 0.233703 0)
(7.45497 0.16572 0)
(7.49806 0.122084 0)
(7.52302 0.0943379 0)
(7.53482 0.0762574 0)
(7.53745 0.0638224 0)
(7.53344 0.0548081 0)
(7.5248 0.0479759 0)
(7.51319 0.0425578 0)
(7.49982 0.0380521 0)
(7.48555 0.034137 0)
(7.47103 0.0306088 0)
(7.45674 0.0273351 0)
(7.44307 0.0242259 0)
(7.43031 0.0212169 0)
(7.41871 0.0182577 0)
(7.40844 0.0153037 0)
(7.39967 0.0123121 0)
(7.39254 0.00924416 0)
(7.38724 0.00606561 0)
(7.38395 0.00284359 0)
(7.38409 -0.000456336 0)
(7.38816 -0.00412832 0)
(7.39659 -0.00854534 0)
(7.41007 -0.0141618 0)
(7.42943 -0.0217534 0)
(7.45648 -0.0325588 0)
(7.4915 -0.0507572 0)
(7.53824 -0.0781724 0)
(7.25567 -0.0497844 0)
(7.16473 -0.0748462 0)
(7.20186 -0.0875938 0)
(7.24151 -0.0578782 0)
(7.27672 -0.0226563 0)
(7.31388 0.00057537 0)
(7.34689 0.0148082 0)
(7.37339 0.0241169 0)
(7.39481 0.0300223 0)
(7.41231 0.0332905 0)
(7.42645 0.0346758 0)
(7.43784 0.0347976 0)
(7.44718 0.0340527 0)
(7.45507 0.0326815 0)
(7.46196 0.0308442 0)
(7.46825 0.0286539 0)
(7.47428 0.0261881 0)
(7.48031 0.0234978 0)
(7.4866 0.0206142 0)
(7.49335 0.0175522 0)
(7.50074 0.0143111 0)
(7.50894 0.0108735 0)
(7.51812 0.00720509 0)
(7.52848 0.00324853 0)
(7.54021 -0.00112611 0)
(7.55369 -0.0061133 0)
(7.56936 -0.0119551 0)
(7.58766 -0.0190054 0)
(7.60913 -0.0277961 0)
(7.63422 -0.0392771 0)
(7.6637 -0.0548398 0)
(7.69632 -0.077878 0)
(7.73231 -0.109876 0)
(7.29107 -0.0915846 0)
(7.22289 -0.0642495 0)
(7.23526 -0.0300765 0)
(7.25198 -0.00486113 0)
(7.26646 0.0142672 0)
(7.28595 0.0251771 0)
(7.3061 0.0305219 0)
(7.32418 0.0333043 0)
(7.34066 0.0346341 0)
(7.35596 0.0348269 0)
(7.37005 0.0341711 0)
(7.38305 0.0329271 0)
(7.39522 0.0312454 0)
(7.40684 0.0292005 0)
(7.41814 0.0268405 0)
(7.42932 0.0242026 0)
(7.4406 0.0213142 0)
(7.45213 0.0181927 0)
(7.46407 0.0148466 0)
(7.47655 0.0112743 0)
(7.48969 0.00746075 0)
(7.5036 0.00337234 0)
(7.51838 -0.00104886 0)
(7.53418 -0.00589195 0)
(7.55116 -0.0113073 0)
(7.56951 -0.0175015 0)
(7.58944 -0.0247475 0)
(7.61123 -0.0334546 0)
(7.63513 -0.0442097 0)
(7.66124 -0.0579165 0)
(7.68961 -0.0757177 0)
(7.71885 -0.0997144 0)
(7.74782 -0.130152 0)
(7.31214 -0.0523567 0)
(7.2666 -0.0338879 0)
(7.26378 -0.0156417 0)
(7.26738 -0.00389807 0)
(7.27345 0.00835351 0)
(7.28522 0.0171734 0)
(7.29872 0.0221456 0)
(7.31159 0.0250877 0)
(7.32402 0.0268325 0)
(7.33625 0.0275335 0)
(7.34818 0.0273501 0)
(7.35983 0.0264755 0)
(7.37132 0.0250382 0)
(7.38282 0.0231107 0)
(7.39447 0.0207458 0)
(7.40639 0.0179884 0)
(7.41872 0.0148748 0)
(7.43155 0.0114324 0)
(7.44498 0.00767904 0)
(7.45909 0.00362073 0)
(7.47393 -0.000753209 0)
(7.48956 -0.00547586 0)
(7.50601 -0.0106116 0)
(7.52334 -0.0162644 0)
(7.54163 -0.0225956 0)
(7.56094 -0.0298315 0)
(7.58136 -0.0382765 0)
(7.60297 -0.048348 0)
(7.62579 -0.0605939 0)
(7.64965 -0.0757511 0)
(7.67415 -0.0946284 0)
(7.69792 -0.118329 0)
(7.71929 -0.146608 0)
(7.32017 -0.0321796 0)
(7.28775 -0.025761 0)
(7.28124 -0.0150896 0)
(7.28093 -0.00610778 0)
(7.28401 0.00430232 0)
(7.29184 0.0123847 0)
(7.30148 0.0172842 0)
(7.31117 0.020271 0)
(7.32091 0.0220276 0)
(7.33085 0.022708 0)
(7.3409 0.0224626 0)
(7.35107 0.0214668 0)
(7.36144 0.0198411 0)
(7.37214 0.0176572 0)
(7.38325 0.0149685 0)
(7.39488 0.0118217 0)
(7.4071 0.00825698 0)
(7.42 0.00430738 0)
(7.43361 -2.17384e-06 0)
(7.44795 -0.00465816 0)
(7.46303 -0.00966462 0)
(7.47883 -0.0150505 0)
(7.49531 -0.020879 0)
(7.51246 -0.027258 0)
(7.53022 -0.034353 0)
(7.54855 -0.0423951 0)
(7.5674 -0.0516855 0)
(7.58667 -0.0626047 0)
(7.60614 -0.0756021 0)
(7.62538 -0.0911818 0)
(7.64363 -0.109772 0)
(7.65947 -0.131724 0)
(7.67104 -0.156391 0)
(7.32443 -0.022335 0)
(7.30074 -0.0214709 0)
(7.29371 -0.0140305 0)
(7.29196 -0.00639764 0)
(7.29354 0.00231926 0)
(7.29903 0.00931862 0)
(7.30633 0.0137835 0)
(7.31407 0.016521 0)
(7.32213 0.0180459 0)
(7.33057 0.0185096 0)
(7.33932 0.0180464 0)
(7.34839 0.016802 0)
(7.35785 0.014879 0)
(7.36779 0.012343 0)
(7.3783 0.00924566 0)
(7.38944 0.0056351 0)
(7.40128 0.00155661 0)
(7.41384 -0.00294747 0)
(7.42713 -0.00783971 0)
(7.44112 -0.0130919 0)
(7.45576 -0.0186927 0)
(7.47094 -0.0246574 0)
(7.48656 -0.0310383 0)
(7.50247 -0.0379354 0)
(7.51854 -0.045506 0)
(7.53458 -0.0539645 0)
(7.55038 -0.0635719 0)
(7.56564 -0.074616 0)
(7.57991 -0.0873732 0)
(7.59248 -0.102072 0)
(7.60239 -0.118818 0)
(7.60835 -0.137589 0)
(7.60904 -0.157839 0)
(7.32737 -0.0156055 0)
(7.30999 -0.0170237 0)
(7.30312 -0.0120354 0)
(7.30067 -0.00597873 0)
(7.30136 0.00106673 0)
(7.30538 0.0069449 0)
(7.31115 0.0108634 0)
(7.31762 0.0132627 0)
(7.32458 0.0144958 0)
(7.33202 0.01469 0)
(7.33989 0.0139561 0)
(7.34818 0.01241 0)
(7.35695 0.0101373 0)
(7.36629 0.00719834 0)
(7.37626 0.00364548 0)
(7.3869 -0.00046831 0)
(7.39825 -0.00508735 0)
(7.41031 -0.0101534 0)
(7.42304 -0.0156082 0)
(7.43634 -0.0213999 0)
(7.45009 -0.027492 0)
(7.46411 -0.0338753 0)
(7.47821 -0.0405797 0)
(7.49213 -0.0476842 0)
(7.50561 -0.0553174 0)
(7.51834 -0.063644 0)
(7.52992 -0.0728363 0)
(7.53987 -0.0830434 0)
(7.54755 -0.0943747 0)
(7.55221 -0.106921 0)
(7.55318 -0.120781 0)
(7.55004 -0.136054 0)
(7.54281 -0.152674 0)
(7.32941 -0.010582 0)
(7.31678 -0.0129755 0)
(7.31043 -0.00995548 0)
(7.30769 -0.00539614 0)
(7.30783 0.00017542 0)
(7.31085 0.0050073 0)
(7.31556 0.00833751 0)
(7.32111 0.0103471 0)
(7.32728 0.0112493 0)
(7.334 0.0111365 0)
(7.34122 0.0100933 0)
(7.34892 0.00820882 0)
(7.35716 0.00555386 0)
(7.36599 0.0021849 0)
(7.37546 -0.00184259 0)
(7.38559 -0.00646628 0)
(7.39639 -0.011614 0)
(7.40781 -0.0172041 0)
(7.41976 -0.0231493 0)
(7.4321 -0.0293637 0)
(7.44461 -0.0357752 0)
(7.45705 -0.0423386 0)
(7.46911 -0.049049 0)
(7.48044 -0.0559456 0)
(7.49065 -0.0631019 0)
(7.49931 -0.0706018 0)
(7.50587 -0.0785157 0)
(7.50977 -0.0869082 0)
(7.51046 -0.0958961 0)
(7.50767 -0.105733 0)
(7.50157 -0.116814 0)
(7.49276 -0.129537 0)
(7.48189 -0.144133 0)
(7.33076 -0.00701911 0)
(7.32176 -0.00965961 0)
(7.31621 -0.00802631 0)
(7.31349 -0.00473209 0)
(7.31331 -0.000443834 0)
(7.31561 0.00341152 0)
(7.31952 0.00612366 0)
(7.32437 0.00769712 0)
(7.32993 0.00823145 0)
(7.33608 0.00777908 0)
(7.34277 0.00639719 0)
(7.34998 0.00415058 0)
(7.35775 0.00109707 0)
(7.36611 -0.00270906 0)
(7.37507 -0.00720609 0)
(7.38466 -0.0123173 0)
(7.39481 -0.017948 0)
(7.40546 -0.0239855 0)
(7.41645 -0.0303038 0)
(7.42757 -0.0367736 0)
(7.43856 -0.0432759 0)
(7.44906 -0.0497186 0)
(7.4587 -0.0560465 0)
(7.46702 -0.0622403 0)
(7.47354 -0.0683016 0)
(7.4777 -0.0742406 0)
(7.47898 -0.0800996 0)
(7.47696 -0.0860362 0)
(7.47159 -0.0924309 0)
(7.46335 -0.0998975 0)
(7.45305 -0.109103 0)
(7.44153 -0.120497 0)
(7.42929 -0.134248 0)
(7.33163 -0.00458204 0)
(7.32537 -0.00704747 0)
(7.32079 -0.00631224 0)
(7.31832 -0.00404523 0)
(7.31798 -0.000870572 0)
(7.31978 0.00207773 0)
(7.32308 0.00415832 0)
(7.32737 0.00526133 0)
(7.33241 0.00539806 0)
(7.33807 0.00458125 0)
(7.3443 0.00284074 0)
(7.35107 0.000219806 0)
(7.35839 -0.00323451 0)
(7.36626 -0.00746768 0)
(7.37469 -0.0124082 0)
(7.38365 -0.0179601 0)
(7.39306 -0.0239997 0)
(7.40279 -0.0303754 0)
(7.41265 -0.0369143 0)
(7.42237 -0.0434338 0)
(7.43161 -0.0497585 0)
(7.43995 -0.0557376 0)
(7.44693 -0.0612532 0)
(7.45202 -0.0662183 0)
(7.45469 -0.0705767 0)
(7.45438 -0.0743365 0)
(7.45074 -0.0776691 0)
(7.44378 -0.0810376 0)
(7.43406 -0.0852148 0)
(7.42249 -0.0910783 0)
(7.40999 -0.0992972 0)
(7.39715 -0.110142 0)
(7.38419 -0.123598 0)
(7.33218 -0.00294653 0)
(7.32794 -0.00504918 0)
(7.32437 -0.00486681 0)
(7.32229 -0.00340926 0)
(7.32196 -0.00118308 0)
(7.32342 0.000937617 0)
(7.32625 0.00239279 0)
(7.33007 0.00300639 0)
(7.33466 0.00272575 0)
(7.33989 0.00152832 0)
(7.34569 -0.000581187 0)
(7.35202 -0.00357773 0)
(7.35887 -0.0074221 0)
(7.36623 -0.0120567 0)
(7.37407 -0.0173965 0)
(7.38233 -0.0233216 0)
(7.39089 -0.0296731 0)
(7.39959 -0.036254 0)
(7.40819 -0.0428366 0)
(7.41636 -0.0491771 0)
(7.42372 -0.0550353 0)
(7.42978 -0.060193 0)
(7.43403 -0.0644645 0)
(7.43592 -0.0677078 0)
(7.43489 -0.0698647 0)
(7.43055 -0.0710665 0)
(7.42286 -0.0717864 0)
(7.41232 -0.0728947 0)
(7.39982 -0.0754598 0)
(7.38633 -0.0803835 0)
(7.37255 -0.0881489 0)
(7.35883 -0.0988019 0)
(7.34521 -0.11217 0)
(7.33253 -0.00187242 0)
(7.32974 -0.00357712 0)
(7.32711 -0.00372241 0)
(7.32551 -0.00288592 0)
(7.32529 -0.00144907 0)
(7.32654 -6.7108e-05 0)
(7.32903 0.000787268 0)
(7.33246 0.000908555 0)
(7.33665 0.000202256 0)
(7.34147 -0.00138223 0)
(7.34685 -0.00386117 0)
(7.35273 -0.00722371 0)
(7.35909 -0.0114352 0)
(7.3659 -0.0164318 0)
(7.37309 -0.0221115 0)
(7.38057 -0.0283261 0)
(7.3882 -0.0348766 0)
(7.39579 -0.0415149 0)
(7.40304 -0.0479527 0)
(7.4096 -0.0538793 0)
(7.41503 -0.0589839 0)
(7.41883 -0.0629777 0)
(7.42046 -0.0656151 0)
(7.41937 -0.066736 0)
(7.41509 -0.0663693 0)
(7.40745 -0.0649039 0)
(7.39677 -0.0632117 0)
(7.38384 -0.0625112 0)
(7.36964 -0.0639698 0)
(7.35495 -0.068347 0)
(7.34026 -0.0758967 0)
(7.32575 -0.0864784 0)
(7.31139 -0.0998056 0)
(7.33274 -0.00118788 0)
(7.33097 -0.00254189 0)
(7.32916 -0.00287996 0)
(7.32805 -0.00251414 0)
(7.32801 -0.00172233 0)
(7.32917 -0.000986002 0)
(7.3314 -0.000692517 0)
(7.3345 -0.00105101 0)
(7.33832 -0.00217896 0)
(7.34275 -0.00414628 0)
(7.34771 -0.00698468 0)
(7.35314 -0.010693 0)
(7.35898 -0.0152374 0)
(7.36518 -0.020545 0)
(7.37167 -0.0264935 0)
(7.37832 -0.032903 0)
(7.38497 -0.039531 0)
(7.39138 -0.0460746 0)
(7.39726 -0.0521815 0)
(7.40222 -0.0574707 0)
(7.40579 -0.0615591 0)
(7.40748 -0.0640915 0)
(7.40675 -0.0647832 0)
(7.40308 -0.0635113 0)
(7.39617 -0.0604869 0)
(7.38609 -0.0564482 0)
(7.37339 -0.0526549 0)
(7.35897 -0.0505312 0)
(7.34369 -0.0511896 0)
(7.32815 -0.0551899 0)
(7.3127 -0.0625841 0)
(7.29743 -0.0730948 0)
(7.28226 -0.0863555 0)
(7.33286 -0.000769184 0)
(7.3318 -0.00185544 0)
(7.33065 -0.00231557 0)
(7.33 -0.00230964 0)
(7.33016 -0.00204017 0)
(7.3313 -0.00185839 0)
(7.33334 -0.0020752 0)
(7.33616 -0.00288747 0)
(7.33965 -0.00442091 0)
(7.3437 -0.00675593 0)
(7.34824 -0.00993357 0)
(7.35319 -0.0139575 0)
(7.35848 -0.0187914 0)
(7.36405 -0.02435 0)
(7.3698 -0.0304887 0)
(7.37558 -0.0369938 0)
(7.38122 -0.0435775 0)
(7.38646 -0.0498808 0)
(7.391 -0.0554864 0)
(7.39443 -0.059943 0)
(7.39632 -0.0627977 0)
(7.39615 -0.0636396 0)
(7.39342 -0.0621749 0)
(7.38773 -0.058376 0)
(7.37889 -0.0527097 0)
(7.36716 -0.046289 0)
(7.35323 -0.0406796 0)
(7.33793 -0.0373779 0)
(7.32197 -0.0373665 0)
(7.30581 -0.0410135 0)
(7.28969 -0.0482137 0)
(7.27368 -0.0585927 0)
(7.25772 -0.0717268 0)
(7.33293 -0.000528513 0)
(7.33234 -0.0014375 0)
(7.3317 -0.00199059 0)
(7.33144 -0.00226817 0)
(7.33181 -0.00242226 0)
(7.33295 -0.0027112 0)
(7.33485 -0.00338216 0)
(7.33744 -0.00461185 0)
(7.34061 -0.00652383 0)
(7.34429 -0.00920126 0)
(7.3484 -0.0126885 0)
(7.35285 -0.0169895 0)
(7.35758 -0.0220618 0)
(7.3625 -0.0278058 0)
(7.36748 -0.0340533 0)
(7.37238 -0.0405561 0)
(7.37702 -0.0469816 0)
(7.38114 -0.0529156 0)
(7.38442 -0.0578777 0)
(7.38648 -0.0613492 0)
(7.38691 -0.0628138 0)
(7.38522 -0.0618198 0)
(7.38097 -0.0580943 0)
(7.37384 -0.0517518 0)
(7.36376 -0.0435506 0)
(7.35111 -0.0349487 0)
(7.33655 -0.0277203 0)
(7.32081 -0.0233494 0)
(7.30446 -0.0226734 0)
(7.28786 -0.0259018 0)
(7.2712 -0.032814 0)
(7.25456 -0.0429683 0)
(7.23788 -0.0558981 0)
(7.33297 -0.000404771 0)
(7.33269 -0.00121913 0)
(7.33243 -0.00185972 0)
(7.33246 -0.00237065 0)
(7.333 -0.00287186 0)
(7.33416 -0.00355804 0)
(7.33595 -0.00462606 0)
(7.33831 -0.00623012 0)
(7.34119 -0.00848519 0)
(7.3445 -0.0114712 0)
(7.34818 -0.0152306 0)
(7.35213 -0.0197634 0)
(7.35628 -0.0250183 0)
(7.36053 -0.0308803 0)
(7.36475 -0.037157 0)
(7.36879 -0.0435673 0)
(7.37247 -0.0497358 0)
(7.37554 -0.055197 0)
(7.3777 -0.0594115 0)
(7.3786 -0.0617989 0)
(7.37786 -0.0617883 0)
(7.37504 -0.0589016 0)
(7.36978 -0.0529103 0)
(7.3618 -0.0440957 0)
(7.35114 -0.0335047 0)
(7.33816 -0.0228833 0)
(7.32347 -0.014136 0)
(7.30766 -0.0086984 0)
(7.29119 -0.00728014 0)
(7.27435 -0.00997093 0)
(7.25733 -0.016469 0)
(7.2402 -0.0262864 0)
(7.22295 -0.0389239 0)
(7.33299 -0.00035608 0)
(7.33291 -0.0011434 0)
(7.3329 -0.00187683 0)
(7.33315 -0.00258859 0)
(7.33381 -0.00337894 0)
(7.33497 -0.00439994 0)
(7.33664 -0.00581027 0)
(7.3388 -0.00774241 0)
(7.34139 -0.0102994 0)
(7.34434 -0.0135538 0)
(7.34758 -0.0175421 0)
(7.35103 -0.0222573 0)
(7.35459 -0.0276375 0)
(7.35818 -0.0335515 0)
(7.36166 -0.0397843 0)
(7.36488 -0.0460247 0)
(7.36767 -0.0518591 0)
(7.36981 -0.056776 0)
(7.37102 -0.060184 0)
(7.371 -0.0614488 0)
(7.3694 -0.0599532 0)
(7.36588 -0.055204 0)
(7.3601 -0.047028 0)
(7.35186 -0.0358729 0)
(7.34119 -0.0230421 0)
(7.32841 -0.0105086 0)
(7.31402 -0.000260256 0)
(7.29849 0.00631648 0)
(7.28218 0.00860801 0)
(7.26535 0.00660729 0)
(7.24819 0.000669748 0)
(7.2308 -0.00868588 0)
(7.21318 -0.0209354 0)
(7.333 -0.000353937 0)
(7.33304 -0.00116452 0)
(7.33319 -0.00199853 0)
(7.33358 -0.00288891 0)
(7.3343 -0.003924 0)
(7.33544 -0.00522749 0)
(7.33698 -0.00692945 0)
(7.33893 -0.00914292 0)
(7.34123 -0.0119578 0)
(7.34381 -0.0154365 0)
(7.34662 -0.0196074 0)
(7.34956 -0.0244541 0)
(7.35256 -0.0299033 0)
(7.3555 -0.0358086 0)
(7.35827 -0.0419348 0)
(7.36074 -0.047945 0)
(7.36273 -0.0533938 0)
(7.36407 -0.0577313 0)
(7.36453 -0.0603229 0)
(7.36384 -0.0604885 0)
(7.36172 -0.057573 0)
(7.35789 -0.051073 0)
(7.35207 -0.0408666 0)
(7.34409 -0.0275441 0)
(7.33394 -0.0126166 0)
(7.32185 0.00176853 0)
(7.30817 0.013559 0)
(7.29326 0.0213973 0)
(7.27743 0.0247282 0)
(7.26091 0.0235929 0)
(7.2439 0.0183774 0)
(7.22652 0.00961866 0)
(7.20881 -0.00213912 0)
(7.33301 -0.000378914 0)
(7.33311 -0.00124619 0)
(7.33335 -0.00218587 0)
(7.3338 -0.00323742 0)
(7.33454 -0.00448181 0)
(7.3356 -0.00602347 0)
(7.33701 -0.00797099 0)
(7.33873 -0.0104204 0)
(7.34073 -0.0134483 0)
(7.34295 -0.0171064 0)
(7.34532 -0.0214127 0)
(7.34777 -0.0263411 0)
(7.35021 -0.031807 0)
(7.35254 -0.0376507 0)
(7.35466 -0.0436208 0)
(7.35644 -0.0493605 0)
(7.35775 -0.0544003 0)
(7.35843 -0.0581614 0)
(7.35832 -0.0599756 0)
(7.35721 -0.0591264 0)
(7.35489 -0.0549268 0)
(7.35113 -0.0468616 0)
(7.34571 -0.0348432 0)
(7.33847 -0.0195623 0)
(7.32931 -0.00267877 0)
(7.31835 0.0135259 0)
(7.30579 0.0269356 0)
(7.29189 0.0361889 0)
(7.2769 0.0407481 0)
(7.26103 0.0406706 0)
(7.2445 0.0363525 0)
(7.22744 0.0283379 0)
(7.20995 0.0171855 0)
(7.33301 -0.000417598 0)
(7.33314 -0.00135969 0)
(7.33341 -0.00240478 0)
(7.33387 -0.00360087 0)
(7.33456 -0.00502421 0)
(7.33553 -0.00676552 0)
(7.33676 -0.00891676 0)
(7.33824 -0.0115592 0)
(7.33993 -0.0147567 0)
(7.34178 -0.0185496 0)
(7.34373 -0.022946 0)
(7.3457 -0.0279097 0)
(7.3476 -0.0333463 0)
(7.34936 -0.0390857 0)
(7.35087 -0.0448652 0)
(7.35204 -0.0503152 0)
(7.35277 -0.0549509 0)
(7.35295 -0.0581751 0)
(7.35246 -0.0592969 0)
(7.35116 -0.057573 0)
(7.3489 -0.0522892 0)
(7.34555 -0.042912 0)
(7.34091 -0.0293601 0)
(7.33481 -0.0123698 0)
(7.32708 0.00631454 0)
(7.31767 0.0243126 0)
(7.30665 0.0394336 0)
(7.29417 0.0502707 0)
(7.28041 0.0562609 0)
(7.26559 0.0574471 0)
(7.24991 0.0542158 0)
(7.23355 0.0471073 0)
(7.21662 0.0366883 0)
(7.33301 -0.000460443 0)
(7.33313 -0.00148203 0)
(7.33339 -0.00262556 0)
(7.33381 -0.00394792 0)
(7.33442 -0.00552202 0)
(7.33524 -0.00742815 0)
(7.33627 -0.00974479 0)
(7.33749 -0.0125401 0)
(7.33887 -0.0158661 0)
(7.34035 -0.0197521 0)
(7.34187 -0.0241964 0)
(7.34336 -0.0291544 0)
(7.34476 -0.0345236 0)
(7.34598 -0.0401274 0)
(7.34696 -0.0456975 0)
(7.3476 -0.050859 0)
(7.34786 -0.0551219 0)
(7.34766 -0.0578816 0)
(7.34695 -0.0584363 0)
(7.34565 -0.056026 0)
(7.34369 -0.0499134 0)
(7.341 -0.0395379 0)
(7.33744 -0.024791 0)
(7.33282 -0.00639196 0)
(7.32689 0.0139003 0)
(7.31945 0.0336455 0)
(7.31039 0.0505621 0)
(7.29976 0.0631521 0)
(7.28767 0.0707826 0)
(7.27431 0.0734495 0)
(7.25991 0.07151 0)
(7.24464 0.0654877 0)
(7.22866 0.0559494 0)
(7.33301 -0.000500273 0)
(7.33311 -0.00159411 0)
(7.33332 -0.00282188 0)
(7.33365 -0.004249 0)
(7.33414 -0.00594585 0)
(7.33478 -0.00798404 0)
(7.33558 -0.0104305 0)
(7.33652 -0.0133415 0)
(7.33756 -0.0167578 0)
(7.33866 -0.0206988 0)
(7.33976 -0.0251539 0)
(7.3408 -0.0300712 0)
(7.34172 -0.0353437 0)
(7.34245 -0.0407923 0)
(7.34294 -0.046149 0)
(7.34313 -0.051042 0)
(7.34301 -0.0549859 0)
(7.34255 -0.0573807 0)
(7.34174 -0.0575257 0)
(7.34059 -0.0546553 0)
(7.3391 -0.0480142 0)
(7.33725 -0.0370066 0)
(7.33498 -0.0214639 0)
(7.3321 -0.00202317 0)
(7.32828 0.0196201 0)
(7.32317 0.0410145 0)
(7.3165 0.0597777 0)
(7.30816 0.0742743 0)
(7.2982 0.0837531 0)
(7.28676 0.0881271 0)
(7.27407 0.0877007 0)
(7.26033 0.0829662 0)
(7.24572 0.0744798 0)
(7.33301 -0.00053122 0)
(7.33307 -0.00167914 0)
(7.3332 -0.00296934 0)
(7.33341 -0.00447556 0)
(7.33373 -0.006266 0)
(7.33416 -0.0084044 0)
(7.3347 -0.0109472 0)
(7.33533 -0.0139395 0)
(7.33603 -0.0174117 0)
(7.33675 -0.0213737 0)
(7.33743 -0.0258076 0)
(7.33803 -0.0306568 0)
(7.33849 -0.035812 0)
(7.33877 -0.0410965 0)
(7.33882 -0.046249 0)
(7.33863 -0.0509087 0)
(7.3382 -0.0546048 0)
(7.33755 -0.0567536 0)
(7.33674 -0.0566684 0)
(7.33584 -0.0535897 0)
(7.3349 -0.0467523 0)
(7.33399 -0.0355204 0)
(7.33312 -0.0196389 0)
(7.33213 0.000397277 0)
(7.33065 0.0230426 0)
(7.32818 0.0459014 0)
(7.32427 0.0664978 0)
(7.31867 0.0830186 0)
(7.3113 0.0945413 0)
(7.30227 0.100854 0)
(7.29177 0.102179 0)
(7.28001 0.098958 0)
(7.26719 0.091723 0)
(7.333 -0.000547894 0)
(7.33302 -0.00172098 0)
(7.33304 -0.00304371 0)
(7.33309 -0.00459855 0)
(7.3332 -0.00645147 0)
(7.33338 -0.00865849 0)
(7.33363 -0.0112658 0)
(7.33394 -0.014308 0)
(7.33428 -0.0178052 0)
(7.3346 -0.0217592 0)
(7.33487 -0.026146 0)
(7.33505 -0.0309061 0)
(7.33507 -0.035932 0)
(7.33492 -0.0410531 0)
(7.33458 -0.0460209 0)
(7.33405 -0.0504933 0)
(7.33336 -0.0540237 0)
(7.33259 -0.0560559 0)
(7.33182 -0.0559301 0)
(7.33119 -0.0529062 0)
(7.33083 -0.0462196 0)
(7.33087 -0.0351977 0)
(7.3314 -0.0194831 0)
(7.33232 0.00061961 0)
(7.33327 0.0238016 0)
(7.33365 0.0478137 0)
(7.33284 0.0701266 0)
(7.33038 0.0887236 0)
(7.32608 0.102456 0)
(7.31993 0.110934 0)
(7.3121 0.114263 0)
(7.30278 0.112808 0)
(7.2922 0.107056 0)
(7.333 -0.000544607 0)
(7.33295 -0.00170224 0)
(7.33283 -0.00301864 0)
(7.33269 -0.00458613 0)
(7.33255 -0.00646812 0)
(7.33245 -0.00871225 0)
(7.33237 -0.0113543 0)
(7.33233 -0.0144178 0)
(7.33228 -0.0179135 0)
(7.33221 -0.0218356 0)
(7.33207 -0.0261553 0)
(7.33182 -0.0308126 0)
(7.33143 -0.0357041 0)
(7.33089 -0.0406701 0)
(7.33018 -0.0454797 0)
(7.32934 -0.0498164 0)
(7.32843 -0.0532665 0)
(7.32754 -0.0553119 0)
(7.32682 -0.0553322 0)
(7.32644 -0.0526209 0)
(7.3266 -0.0464282 0)
(7.3275 -0.0360555 0)
(7.32931 -0.0210422 0)
(7.33202 -0.00147537 0)
(7.33533 0.021649 0)
(7.33862 0.0463399 0)
(7.34111 0.0700998 0)
(7.34215 0.090716 0)
(7.34133 0.106763 0)
(7.33854 0.117614 0)
(7.33386 0.123207 0)
(7.32746 0.123794 0)
(7.31958 0.11979 0)
(7.33299 -0.000514437 0)
(7.33286 -0.00160181 0)
(7.33257 -0.00286234 0)
(7.33218 -0.00440043 0)
(7.33175 -0.00627571 0)
(7.33131 -0.00852602 0)
(7.33088 -0.0111755 0)
(7.33045 -0.0142362 0)
(7.33 -0.0177091 0)
(7.32952 -0.0215811 0)
(7.32897 -0.0258202 0)
(7.32831 -0.0303672 0)
(7.32752 -0.0351257 0)
(7.3266 -0.0399498 0)
(7.32555 -0.0446308 0)
(7.32443 -0.0488835 0)
(7.3233 -0.0523342 0)
(7.32229 -0.0545123 0)
(7.32158 -0.0548487 0)
(7.32137 -0.0526847 0)
(7.32193 -0.0473025 0)
(7.32351 -0.0379957 0)
(7.32636 -0.024216 0)
(7.33058 -0.00583275 0)
(7.33601 0.0165201 0)
(7.34206 0.0412269 0)
(7.34788 0.0659569 0)
(7.35261 0.0883656 0)
(7.35562 0.106725 0)
(7.35661 0.120105 0)
(7.35554 0.12821 0)
(7.35253 0.131133 0)
(7.3478 0.129174 0)
(7.33299 -0.000447795 0)
(7.33274 -0.00139097 0)
(7.33222 -0.00253277 0)
(7.33152 -0.00399265 0)
(7.33073 -0.0058238 0)
(7.32991 -0.00805139 0)
(7.32907 -0.0106857 0)
(7.32822 -0.0137256 0)
(7.32736 -0.0171613 0)
(7.32646 -0.0209728 0)
(7.32549 -0.025125 0)
(7.32443 -0.029561 0)
(7.32327 -0.0341929 0)
(7.32199 -0.0388911 0)
(7.32062 -0.0434722 0)
(7.31922 -0.0476867 0)
(7.31787 -0.0512064 0)
(7.31671 -0.0536158 0)
(7.31593 -0.054407 0)
(7.31579 -0.0529832 0)
(7.31656 -0.048677 0)
(7.31857 -0.0407984 0)
(7.32212 -0.0287418 0)
(7.32744 -0.0121859 0)
(7.33451 0.00860282 0)
(7.34292 0.0324783 0)
(7.35182 0.0574472 0)
(7.36022 0.0811749 0)
(7.36725 0.101662 0)
(7.37235 0.117619 0)
(7.3753 0.128442 0)
(7.37612 0.133993 0)
(7.37498 0.1344 0)
(7.33298 -0.000329852 0)
(7.33257 -0.00102702 0)
(7.33174 -0.00196986 0)
(7.33065 -0.00329586 0)
(7.32942 -0.00504597 0)
(7.32813 -0.00722753 0)
(7.32683 -0.00983271 0)
(7.32553 -0.012844 0)
(7.32423 -0.0162389 0)
(7.32291 -0.0199894 0)
(7.32154 -0.0240574 0)
(7.3201 -0.0283886 0)
(7.31858 -0.0329048 0)
(7.31698 -0.0374938 0)
(7.31531 -0.0419994 0)
(7.31364 -0.04621 0)
(7.31205 -0.0498468 0)
(7.3107 -0.0525545 0)
(7.30978 -0.0538946 0)
(7.30954 -0.0533438 0)
(7.3103 -0.0503031 0)
(7.31242 -0.0441267 0)
(7.31625 -0.0341911 0)
(7.32212 -0.0200372 0)
(7.33019 -0.00160713 0)
(7.34026 0.02046 0)
(7.35167 0.0446713 0)
(7.36339 0.0689198 0)
(7.37434 0.0910632 0)
(7.38369 0.10945 0)
(7.39096 0.123087 0)
(7.39598 0.131519 0)
(7.39886 0.134618 0)
(7.33296 -0.000135631 0)
(7.33232 -0.000441815 0)
(7.33106 -0.00108301 0)
(7.32943 -0.00221438 0)
(7.32764 -0.00385249 0)
(7.32581 -0.0059776 0)
(7.32398 -0.00855609 0)
(7.3222 -0.011548 0)
(7.32045 -0.0149146 0)
(7.31872 -0.0186179 0)
(7.31697 -0.0226159 0)
(7.3152 -0.0268568 0)
(7.31336 -0.0312719 0)
(7.31147 -0.0357669 0)
(7.30954 -0.0402135 0)
(7.30761 -0.0444383 0)
(7.30579 -0.0482133 0)
(7.3042 -0.0512462 0)
(7.30304 -0.0531725 0)
(7.30257 -0.0535515 0)
(7.30308 -0.0518678 0)
(7.30496 -0.0475456 0)
(7.3086 -0.0399885 0)
(7.31441 -0.0286671 0)
(7.32269 -0.0132838 0)
(7.33348 0.00598393 0)
(7.34642 0.0282405 0)
(7.36064 0.0518494 0)
(7.37502 0.074774 0)
(7.38843 0.0951071 0)
(7.40008 0.111437 0)
(7.40957 0.122889 0)
(7.41679 0.128969 0)
(7.33293 0.000180137 0)
(7.33192 0.000478466 0)
(7.33002 0.000268507 0)
(7.32765 -0.000609321 0)
(7.32515 -0.00212258 0)
(7.32265 -0.00420792 0)
(7.32024 -0.00679179 0)
(7.31795 -0.00980151 0)
(7.31577 -0.0131764 0)
(7.31368 -0.0168657 0)
(7.31162 -0.0208221 0)
(7.30957 -0.0249957 0)
(7.3075 -0.0293272 0)
(7.30538 -0.0337403 0)
(7.30324 -0.0381333 0)
(7.30111 -0.0423704 0)
(7.29906 -0.0462733 0)
(7.29722 -0.0496122 0)
(7.29576 -0.0520978 0)
(7.2949 -0.0533763 0)
(7.29495 -0.0530262 0)
(7.29627 -0.0505632 0)
(7.29926 -0.0454579 0)
(7.30437 -0.0371828 0)
(7.312 -0.0253087 0)
(7.32242 -0.00967182 0)
(7.3356 0.00940324 0)
(7.35101 0.0309232 0)
(7.3677 0.0532762 0)
(7.38446 0.0745724 0)
(7.40016 0.0930747 0)
(7.41407 0.107434 0)
(7.42581 0.116655 0)
(7.33288 0.000707008 0)
(7.33124 0.00193277 0)
(7.32834 0.00230582 0)
(7.32495 0.00171731 0)
(7.32153 0.000297991 0)
(7.31826 -0.00181646 0)
(7.31523 -0.00448779 0)
(7.31246 -0.00759428 0)
(7.30993 -0.0110463 0)
(7.30756 -0.0147779 0)
(7.30529 -0.018736 0)
(7.30308 -0.0228732 0)
(7.30088 -0.0271398 0)
(7.29865 -0.031477 0)
(7.29639 -0.0358086 0)
(7.29412 -0.0400343 0)
(7.2919 -0.044022 0)
(7.28982 -0.0476007 0)
(7.28802 -0.0505536 0)
(7.28671 -0.0526125 0)
(7.28614 -0.0534531 0)
(7.28664 -0.0526945 0)
(7.28859 -0.0499046 0)
(7.29243 -0.0446185 0)
(7.29863 -0.0363855 0)
(7.30759 -0.0248588 0)
(7.31955 -0.00994592 0)
(7.33443 0.00800088 0)
(7.35167 0.0280424 0)
(7.37027 0.0486996 0)
(7.38898 0.0682211 0)
(7.40675 0.0848847 0)
(7.42283 0.0971075 0)
(7.33275 0.00163431 0)
(7.32998 0.00428803 0)
(7.32553 0.00538613 0)
(7.32071 0.00504101 0)
(7.31614 0.00358411 0)
(7.31203 0.00127498 0)
(7.30843 -0.00164321 0)
(7.3053 -0.00498015 0)
(7.30255 -0.00861385 0)
(7.30008 -0.0124653 0)
(7.29778 -0.016479 0)
(7.29558 -0.0206128 0)
(7.2934 -0.0248293 0)
(7.2912 -0.0290874 0)
(7.28896 -0.0333353 0)
(7.28667 -0.0375047 0)
(7.28437 -0.0415046 0)
(7.28212 -0.0452165 0)
(7.28003 -0.0484886 0)
(7.27826 -0.0511311 0)
(7.27702 -0.052912 0)
(7.27657 -0.0535547 0)
(7.27726 -0.0527373 0)
(7.27946 -0.0500973 0)
(7.28364 -0.0452471 0)
(7.29024 -0.03781 0)
(7.29968 -0.0274918 0)
(7.31221 -0.0141996 0)
(7.32777 0.00179988 0)
(7.34585 0.0197422 0)
(7.36551 0.0383399 0)
(7.3856 0.0558928 0)
(7.40509 0.07036 0)
(7.33246 0.00332616 0)
(7.32756 0.00819843 0)
(7.32064 0.0100957 0)
(7.31389 0.00976349 0)
(7.30803 0.00793239 0)
(7.30314 0.00509081 0)
(7.29916 0.00165216 0)
(7.29592 -0.00211359 0)
(7.29323 -0.00606594 0)
(7.29092 -0.0101271 0)
(7.28884 -0.0142496 0)
(7.28687 -0.0184051 0)
(7.28494 -0.0225737 0)
(7.28297 -0.0267342 0)
(7.28092 -0.0308585 0)
(7.27879 -0.0349064 0)
(7.27656 -0.0388221 0)
(7.27429 -0.0425308 0)
(7.27205 -0.0459347 0)
(7.26994 -0.0489103 0)
(7.26811 -0.0513051 0)
(7.26678 -0.0529356 0)
(7.2662 -0.0535856 0)
(7.26668 -0.0530056 0)
(7.26861 -0.0509155 0)
(7.27239 -0.0470125 0)
(7.27847 -0.040992 0)
(7.28727 -0.0325907 0)
(7.29906 -0.0216675 0)
(7.3139 -0.00832978 0)
(7.33144 0.00690837 0)
(7.35096 0.0229575 0)
(7.37154 0.0378746 0)
(7.33189 0.00640272 0)
(7.32284 0.0145134 0)
(7.31196 0.0170152 0)
(7.30281 0.0162077 0)
(7.29572 0.0134226 0)
(7.29039 0.00951374 0)
(7.28649 0.00516204 0)
(7.28361 0.000705216 0)
(7.28141 -0.00374044 0)
(7.27964 -0.00812589 0)
(7.27814 -0.0124272 0)
(7.27674 -0.0166402 0)
(7.27535 -0.0207694 0)
(7.27389 -0.0248168 0)
(7.27231 -0.028777 0)
(7.27058 -0.032635 0)
(7.26868 -0.036364 0)
(7.26664 -0.0399237 0)
(7.26448 -0.0432584 0)
(7.26229 -0.0462955 0)
(7.26016 -0.0489444 0)
(7.25822 -0.0510951 0)
(7.25666 -0.0526176 0)
(7.2557 -0.053361 0)
(7.2556 -0.0531533 0)
(7.2567 -0.0518014 0)
(7.25934 -0.0490928 0)
(7.26394 -0.0448004 0)
(7.27088 -0.0386988 0)
(7.2805 -0.0306044 0)
(7.29295 -0.0204637 0)
(7.30819 -0.00854327 0)
(7.32598 0.00402782 0)
(7.33064 0.0134178 0)
(7.31311 0.0250676 0)
(7.29642 0.0262061 0)
(7.2848 0.0237724 0)
(7.27698 0.0194685 0)
(7.27193 0.0142315 0)
(7.26892 0.00892547 0)
(7.26716 0.00384429 0)
(7.26613 -0.00100863 0)
(7.26553 -0.00564939 0)
(7.26517 -0.0100843 0)
(7.26487 -0.0143322 0)
(7.26453 -0.0184171 0)
(7.26406 -0.0223567 0)
(7.26339 -0.0261601 0)
(7.26249 -0.0298277 0)
(7.26135 -0.0333513 0)
(7.25996 -0.0367131 0)
(7.25834 -0.0398849 0)
(7.25652 -0.0428281 0)
(7.25458 -0.0454937 0)
(7.25258 -0.0478218 0)
(7.25064 -0.049742 0)
(7.2489 -0.0511731 0)
(7.24752 -0.052024 0)
(7.24672 -0.0521927 0)
(7.24674 -0.0515665 0)
(7.24784 -0.0500204 0)
(7.25036 -0.0474147 0)
(7.25462 -0.0435935 0)
(7.26094 -0.0383895 0)
(7.26959 -0.0316644 0)
(7.28096 -0.0236806 0)
(7.32444 0.0349728 0)
(7.28881 0.0474662 0)
(7.26581 0.0378773 0)
(7.25465 0.026654 0)
(7.24849 0.0164411 0)
(7.24558 0.00763948 0)
(7.24505 0.000466197 0)
(7.24576 -0.00541672 0)
(7.24706 -0.0103885 0)
(7.24868 -0.0146883 0)
(7.25046 -0.0184841 0)
(7.25222 -0.0219121 0)
(7.25383 -0.0250754 0)
(7.2552 -0.0280426 0)
(7.25628 -0.0308561 0)
(7.25702 -0.033541 0)
(7.25741 -0.036108 0)
(7.25744 -0.038556 0)
(7.25711 -0.0408732 0)
(7.25645 -0.043039 0)
(7.25549 -0.0450254 0)
(7.25428 -0.0467977 0)
(7.25289 -0.0483156 0)
(7.2514 -0.0495344 0)
(7.2499 -0.0504053 0)
(7.24853 -0.0508765 0)
(7.2474 -0.0508937 0)
(7.24669 -0.0504005 0)
(7.24657 -0.0493387 0)
(7.24726 -0.0476477 0)
(7.249 -0.0452633 0)
(7.25202 -0.0420996 0)
(7.25682 -0.0381274 0)
(7.29541 0.0829611 0)
(7.21813 0.127391 0)
(7.18648 0.127796 0)
(7.18512 0.112147 0)
(7.1909 0.0917139 0)
(7.1988 0.0730632 0)
(7.20789 0.0573297 0)
(7.21706 0.0435747 0)
(7.22589 0.0313275 0)
(7.23433 0.0205113 0)
(7.24226 0.01105 0)
(7.24955 0.00278885 0)
(7.25613 -0.00443992 0)
(7.26199 -0.0107829 0)
(7.26713 -0.0163671 0)
(7.27156 -0.0213025 0)
(7.2753 -0.0256816 0)
(7.27839 -0.0295776 0)
(7.28086 -0.0330467 0)
(7.28276 -0.0361296 0)
(7.28412 -0.0388544 0)
(7.28499 -0.0412381 0)
(7.28545 -0.0432885 0)
(7.28553 -0.0450063 0)
(7.28532 -0.0463866 0)
(7.28488 -0.04742 0)
(7.28429 -0.0480946 0)
(7.28365 -0.0483963 0)
(7.28304 -0.0483104 0)
(7.28258 -0.0478222 0)
(7.28236 -0.046919 0)
(7.28251 -0.0455921 0)
(7.28326 -0.0438008 0)
(7.32717 -0.156909 0)
(7.19675 -0.284495 0)
(7.13307 -0.281437 0)
(7.11207 -0.248407 0)
(7.11318 -0.216402 0)
(7.13335 -0.186777 0)
(7.16308 -0.160235 0)
(7.19501 -0.137854 0)
(7.22633 -0.11968 0)
(7.25589 -0.105053 0)
(7.28296 -0.0933048 0)
(7.30721 -0.0839282 0)
(7.32862 -0.0765047 0)
(7.34736 -0.0706652 0)
(7.36363 -0.066095 0)
(7.37764 -0.0625357 0)
(7.3896 -0.0597759 0)
(7.39968 -0.0576409 0)
(7.40806 -0.055984 0)
(7.4149 -0.0546822 0)
(7.42034 -0.0536311 0)
(7.4245 -0.0527416 0)
(7.42748 -0.0519378 0)
(7.4294 -0.0511546 0)
(7.43035 -0.0503368 0)
(7.43043 -0.0494388 0)
(7.42971 -0.048424 0)
(7.42829 -0.0472652 0)