/*--------------------------------*- C++ -*----------------------------------*\
| =========                 |                                                 |
| \\      /  F ield         | OpenFOAM: The Open Source CFD Toolbox           |
|  \\    /   O peration     | Version:  4.1                                   |
|   \\  /    A nd           | Web:      www.OpenFOAM.org                      |
|    \\/     M anipulation  |                                                 |
\*---------------------------------------------------------------------------*/
FoamFile
{
    version     2.0;
    format      ascii;
    class       volScalarField;
    location    "1300";
    object      p;
}
// * * * * * * * * * * * * * * * * * * * * * * * * * * * * * * * * * * * * * //

dimensions      [0 2 -2 0 0 0 0];

internalField   nonuniform List<scalar> 
6820
(
-6.8231
-7.04993
-7.12684
-7.13887
-7.15823
-7.1803
-7.19686
-7.20971
-7.22086
-7.23042
-7.23829
-7.24459
-7.24944
-7.25283
-7.25473
-7.25507
-7.25375
-7.25061
-7.24546
-7.23804
-7.22801
-7.21491
-7.19816
-7.17693
-7.15005
-7.11586
-7.07159
-7.01323
-6.93125
-6.81673
-6.6071
-6.35457
-5.29971
-6.89507
-7.0361
-7.09971
-7.12006
-7.14386
-7.16782
-7.18578
-7.19964
-7.21143
-7.22147
-7.22972
-7.23635
-7.24146
-7.24508
-7.24717
-7.24768
-7.2465
-7.24348
-7.23843
-7.23111
-7.22117
-7.20818
-7.19158
-7.17061
-7.1442
-7.11091
-7.06851
-7.01427
-6.94224
-6.85085
-6.71867
-6.59575
-6.50872
-6.95248
-7.04052
-7.10064
-7.12563
-7.14803
-7.17028
-7.18776
-7.20146
-7.21311
-7.22305
-7.23128
-7.2379
-7.24304
-7.24671
-7.24888
-7.24949
-7.24845
-7.24561
-7.24079
-7.23377
-7.22422
-7.21177
-7.19589
-7.17593
-7.151
-7.11997
-7.08125
-7.03319
-6.97293
-6.90237
-6.81783
-6.76555
-6.75147
-6.99124
-7.04962
-7.10383
-7.13022
-7.1511
-7.17194
-7.18908
-7.20267
-7.21418
-7.22403
-7.23222
-7.23885
-7.24402
-7.24775
-7.25002
-7.25077
-7.2499
-7.2473
-7.2428
-7.23618
-7.22717
-7.21544
-7.20055
-7.18199
-7.15908
-7.13106
-7.09702
-7.05636
-7.00853
-6.95705
-6.90502
-6.88143
-6.89093
-7.02238
-7.06221
-7.1081
-7.13435
-7.15424
-7.17384
-7.19052
-7.20395
-7.21531
-7.22507
-7.23324
-7.2399
-7.24514
-7.24898
-7.2514
-7.25235
-7.25175
-7.24949
-7.24542
-7.23936
-7.23109
-7.22033
-7.20676
-7.19
-7.16963
-7.14526
-7.11658
-7.08383
-7.04793
-7.01292
-6.98414
-6.98006
-7.00927
-7.04851
-7.07601
-7.11377
-7.13904
-7.15807
-7.17639
-7.19244
-7.20562
-7.21682
-7.22646
-7.23461
-7.24131
-7.24663
-7.25061
-7.25323
-7.25444
-7.25417
-7.25234
-7.24882
-7.24346
-7.2361
-7.22653
-7.21454
-7.1999
-7.18243
-7.16206
-7.13898
-7.11398
-7.08873
-7.06719
-7.05481
-7.06331
-7.09988
-7.07068
-7.08998
-7.1207
-7.14431
-7.1624
-7.17946
-7.19479
-7.20767
-7.21867
-7.22819
-7.23631
-7.24306
-7.24849
-7.25264
-7.25549
-7.25701
-7.25714
-7.25582
-7.25295
-7.24842
-7.24212
-7.23392
-7.22371
-7.21142
-7.19705
-7.18082
-7.16323
-7.14539
-7.12925
-7.11831
-7.11719
-7.13322
-7.17129
-7.08979
-7.10365
-7.12852
-7.15006
-7.16712
-7.18301
-7.19756
-7.21007
-7.22086
-7.23025
-7.23834
-7.24514
-7.2507
-7.25504
-7.25817
-7.26006
-7.26066
-7.25992
-7.25779
-7.2542
-7.24908
-7.24239
-7.2341
-7.22428
-7.21309
-7.20093
-7.1885
-7.17703
-7.16843
-7.1656
-7.17215
-7.19261
-7.23003
-7.10657
-7.11678
-7.13691
-7.15621
-7.17218
-7.18698
-7.20073
-7.21284
-7.22338
-7.23264
-7.2407
-7.24756
-7.25327
-7.25784
-7.26128
-7.26358
-7.2647
-7.26462
-7.26331
-7.26074
-7.25691
-7.25181
-7.24553
-7.23822
-7.23016
-7.22187
-7.21412
-7.20814
-7.20564
-7.20892
-7.22064
-7.24357
-7.27952
-7.12153
-7.12925
-7.1456
-7.1627
-7.17753
-7.19132
-7.20429
-7.21594
-7.22624
-7.23537
-7.2434
-7.25033
-7.25621
-7.26103
-7.26482
-7.26757
-7.26926
-7.2699
-7.26948
-7.268
-7.2655
-7.26206
-7.2578
-7.25297
-7.24791
-7.24318
-7.23958
-7.23823
-7.24057
-7.24838
-7.26353
-7.28771
-7.32188
-7.13503
-7.14103
-7.15441
-7.16944
-7.18313
-7.19597
-7.20819
-7.21938
-7.22942
-7.23842
-7.24643
-7.25345
-7.25951
-7.26461
-7.26878
-7.27202
-7.27433
-7.27573
-7.27623
-7.27589
-7.27477
-7.27299
-7.27073
-7.26827
-7.26601
-7.2645
-7.2645
-7.26698
-7.27311
-7.28422
-7.3016
-7.32625
-7.35863
-7.14736
-7.15213
-7.16318
-7.17637
-7.18893
-7.20089
-7.2124
-7.22314
-7.23292
-7.24179
-7.24978
-7.25691
-7.26317
-7.26857
-7.27315
-7.27691
-7.27987
-7.28206
-7.28353
-7.28434
-7.2846
-7.28446
-7.28413
-7.28391
-7.28421
-7.28555
-7.28861
-7.29422
-7.30328
-7.31677
-7.33555
-7.36018
-7.39083
-7.1587
-7.16259
-7.17182
-7.18339
-7.19488
-7.20603
-7.21689
-7.22718
-7.23671
-7.24546
-7.25346
-7.26069
-7.26717
-7.2729
-7.27791
-7.28222
-7.28585
-7.28886
-7.2913
-7.29328
-7.2949
-7.29635
-7.29784
-7.2997
-7.30229
-7.30612
-7.31176
-7.31987
-7.33117
-7.34633
-7.36593
-7.39025
-7.4193
-7.16922
-7.17245
-7.18026
-7.19044
-7.20095
-7.21135
-7.2216
-7.23148
-7.24077
-7.24942
-7.25743
-7.2648
-7.27151
-7.27758
-7.28304
-7.28791
-7.29223
-7.29607
-7.29949
-7.30261
-7.30555
-7.30851
-7.31171
-7.31545
-7.32008
-7.32604
-7.33382
-7.34393
-7.3569
-7.37323
-7.39324
-7.41708
-7.44465
-7.17901
-7.18175
-7.18845
-7.19746
-7.20707
-7.21679
-7.22651
-7.236
-7.24507
-7.25364
-7.26169
-7.2692
-7.27616
-7.28259
-7.28851
-7.29396
-7.29898
-7.30364
-7.30802
-7.31225
-7.31646
-7.32083
-7.3256
-7.33103
-7.33745
-7.34522
-7.35474
-7.36642
-7.38064
-7.39773
-7.41789
-7.44114
-7.46737
-7.18817
-7.19053
-7.19636
-7.20439
-7.21322
-7.22233
-7.23157
-7.24072
-7.2496
-7.25811
-7.26621
-7.27387
-7.2811
-7.2879
-7.29429
-7.30032
-7.30603
-7.3115
-7.31683
-7.32211
-7.32752
-7.3332
-7.33939
-7.34633
-7.35429
-7.36358
-7.37451
-7.38741
-7.40253
-7.42009
-7.4402
-7.46283
-7.48784
-7.19676
-7.19883
-7.20396
-7.2112
-7.21935
-7.22792
-7.23674
-7.2456
-7.25432
-7.26278
-7.27095
-7.27879
-7.28629
-7.29347
-7.30034
-7.30695
-7.31334
-7.31961
-7.32583
-7.33213
-7.33864
-7.34553
-7.35299
-7.36124
-7.37052
-7.38107
-7.39314
-7.40696
-7.42272
-7.44054
-7.46048
-7.48247
-7.50636
-7.20482
-7.20666
-7.21126
-7.21783
-7.22541
-7.23352
-7.24198
-7.25059
-7.25918
-7.26763
-7.27589
-7.28392
-7.29171
-7.29927
-7.30662
-7.3138
-7.32086
-7.32789
-7.33496
-7.3422
-7.34974
-7.35772
-7.36631
-7.3757
-7.38609
-7.39768
-7.41064
-7.42516
-7.44134
-7.45928
-7.47896
-7.50031
-7.52319
-7.21237
-7.21405
-7.21821
-7.22426
-7.23136
-7.23909
-7.24725
-7.25567
-7.26416
-7.27263
-7.28099
-7.28923
-7.29731
-7.30526
-7.31308
-7.32082
-7.32853
-7.33628
-7.34416
-7.35227
-7.36074
-7.36969
-7.37928
-7.38965
-7.40097
-7.41339
-7.42706
-7.44208
-7.45853
-7.47646
-7.49583
-7.51656
-7.53853
-7.21945
-7.22098
-7.22482
-7.23046
-7.23716
-7.24458
-7.25251
-7.26077
-7.26921
-7.27772
-7.28621
-7.29467
-7.30306
-7.31139
-7.31967
-7.32795
-7.33628
-7.34472
-7.35335
-7.36227
-7.37157
-7.38139
-7.39184
-7.40304
-7.41513
-7.42823
-7.44243
-7.4578
-7.47441
-7.49224
-7.51127
-7.5314
-7.55253
-7.22604
-7.22748
-7.23106
-7.23638
-7.24278
-7.24995
-7.2577
-7.26587
-7.2743
-7.28287
-7.29152
-7.3002
-7.3089
-7.31761
-7.32635
-7.33516
-7.34407
-7.35315
-7.36248
-7.37212
-7.38218
-7.39275
-7.40394
-7.41585
-7.42857
-7.4422
-7.4568
-7.47241
-7.48907
-7.50675
-7.52542
-7.54498
-7.56535
-7.23215
-7.23351
-7.23692
-7.24199
-7.24817
-7.25516
-7.2628
-7.27092
-7.27936
-7.28803
-7.29685
-7.30578
-7.3148
-7.32389
-7.33307
-7.34238
-7.35184
-7.36152
-7.37147
-7.38178
-7.3925
-7.40374
-7.41556
-7.42805
-7.44129
-7.45532
-7.47021
-7.48597
-7.50261
-7.5201
-7.5384
-7.55743
-7.5771
-7.23777
-7.23908
-7.24235
-7.24726
-7.25329
-7.26017
-7.26774
-7.27586
-7.28437
-7.29317
-7.30218
-7.31136
-7.32069
-7.33016
-7.33977
-7.34955
-7.35953
-7.36976
-7.38029
-7.39118
-7.4025
-7.4143
-7.42666
-7.43964
-7.45328
-7.46763
-7.48271
-7.49854
-7.51511
-7.53239
-7.55032
-7.56884
-7.58787
-7.24286
-7.24413
-7.24733
-7.25214
-7.25808
-7.26492
-7.27249
-7.28065
-7.28926
-7.29821
-7.30744
-7.3169
-7.32654
-7.33638
-7.3464
-7.35663
-7.3671
-7.37783
-7.38888
-7.4003
-7.41212
-7.42442
-7.43723
-7.45059
-7.46455
-7.47914
-7.49435
-7.51019
-7.52665
-7.54369
-7.56127
-7.57931
-7.59775
-7.24739
-7.24865
-7.25181
-7.25658
-7.26251
-7.26936
-7.27698
-7.28524
-7.29399
-7.30313
-7.31259
-7.32233
-7.3323
-7.34249
-7.35291
-7.36357
-7.37448
-7.38568
-7.3972
-7.40907
-7.42135
-7.43406
-7.44724
-7.46092
-7.47513
-7.48988
-7.50516
-7.52098
-7.5373
-7.55409
-7.57132
-7.58891
-7.60681
-7.25131
-7.25258
-7.25575
-7.26054
-7.26652
-7.27344
-7.28117
-7.28957
-7.2985
-7.30786
-7.31758
-7.32761
-7.3379
-7.34845
-7.35925
-7.37031
-7.38164
-7.39326
-7.40519
-7.41748
-7.43014
-7.4432
-7.45669
-7.47062
-7.48502
-7.49987
-7.51518
-7.53094
-7.5471
-7.56365
-7.58054
-7.59771
-7.61512
-7.25456
-7.25585
-7.25907
-7.26396
-7.27004
-7.2771
-7.285
-7.29359
-7.30275
-7.31236
-7.32236
-7.33269
-7.34331
-7.35421
-7.36538
-7.37681
-7.38852
-7.40053
-7.41284
-7.42548
-7.43847
-7.45183
-7.46557
-7.4797
-7.49423
-7.50915
-7.52445
-7.54012
-7.55612
-7.57242
-7.58899
-7.60577
-7.62272
-7.25706
-7.25839
-7.26172
-7.26675
-7.27302
-7.28029
-7.28841
-7.29725
-7.30667
-7.31657
-7.32687
-7.33752
-7.34847
-7.35972
-7.37124
-7.38303
-7.39509
-7.40745
-7.42009
-7.43305
-7.44632
-7.45993
-7.47387
-7.48816
-7.50278
-7.51773
-7.533
-7.54856
-7.56439
-7.58045
-7.59671
-7.61313
-7.62966
-7.25871
-7.26011
-7.26359
-7.26885
-7.27538
-7.28293
-7.29134
-7.30049
-7.31022
-7.32044
-7.33107
-7.34205
-7.35335
-7.36493
-7.37679
-7.38892
-7.40132
-7.41398
-7.42693
-7.44016
-7.45367
-7.46749
-7.48159
-7.49599
-7.51068
-7.52564
-7.54085
-7.5563
-7.57195
-7.58778
-7.60376
-7.61983
-7.63598
-7.25939
-7.26088
-7.26459
-7.27016
-7.27705
-7.28496
-7.29374
-7.30325
-7.31335
-7.32393
-7.33491
-7.34625
-7.35789
-7.36981
-7.382
-7.39445
-7.40715
-7.42011
-7.43332
-7.44679
-7.46051
-7.4745
-7.48874
-7.50322
-7.51795
-7.53289
-7.54804
-7.56337
-7.57885
-7.59446
-7.61017
-7.62594
-7.64173
-7.25895
-7.26057
-7.26458
-7.27059
-7.27795
-7.28632
-7.29555
-7.3055
-7.31602
-7.327
-7.33837
-7.35006
-7.36206
-7.37432
-7.38683
-7.39958
-7.41257
-7.42579
-7.43924
-7.45292
-7.46682
-7.48095
-7.49529
-7.50984
-7.52457
-7.53949
-7.55456
-7.56977
-7.58508
-7.60049
-7.61594
-7.63142
-7.6469
-7.25717
-7.25897
-7.26341
-7.27001
-7.27798
-7.28693
-7.29671
-7.30717
-7.31818
-7.3296
-7.34138
-7.35346
-7.36581
-7.37841
-7.39124
-7.40428
-7.41754
-7.43101
-7.44468
-7.45855
-7.47261
-7.48686
-7.50129
-7.51588
-7.53063
-7.54551
-7.5605
-7.5756
-7.59076
-7.60597
-7.6212
-7.63642
-7.6516
-7.25379
-7.25585
-7.26091
-7.26832
-7.27708
-7.28674
-7.29718
-7.30826
-7.31983
-7.33175
-7.34397
-7.35646
-7.36918
-7.3821
-7.39523
-7.40854
-7.42204
-7.43572
-7.44957
-7.4636
-7.47778
-7.49212
-7.50661
-7.52123
-7.53596
-7.55079
-7.56571
-7.58068
-7.5957
-7.61072
-7.62574
-7.64073
-7.65567
-7.24845
-7.25089
-7.25687
-7.26541
-7.27519
-7.28569
-7.29689
-7.30866
-7.32083
-7.33329
-7.346
-7.35892
-7.37203
-7.38532
-7.39877
-7.41237
-7.42613
-7.44003
-7.45408
-7.46827
-7.48258
-7.49702
-7.51157
-7.52622
-7.54095
-7.55575
-7.57059
-7.58547
-7.60035
-7.61522
-7.63005
-7.64483
-7.65952
-7.24061
-7.24365
-7.251
-7.26114
-7.27228
-7.28392
-7.29613
-7.30875
-7.32161
-7.33461
-7.34777
-7.36106
-7.37448
-7.38803
-7.40171
-7.41551
-7.42943
-7.44349
-7.45766
-7.47194
-7.48633
-7.50082
-7.5154
-7.53005
-7.54476
-7.55951
-7.57428
-7.58906
-7.60382
-7.61855
-7.63323
-7.64784
-7.66236
-7.22945
-7.2336
-7.24328
-7.25545
-7.26782
-7.28051
-7.29384
-7.30752
-7.32128
-7.33507
-7.34891
-7.36281
-7.37675
-7.39074
-7.40479
-7.41891
-7.4331
-7.44738
-7.46172
-7.47615
-7.49065
-7.50521
-7.51982
-7.53448
-7.54917
-7.56388
-7.57858
-7.59326
-7.60791
-7.6225
-7.63701
-7.65142
-7.66571
-7.21354
-7.21932
-7.23394
-7.2503
-7.26481
-7.27871
-7.29292
-7.30717
-7.32124
-7.3352
-7.34917
-7.36318
-7.37722
-7.39131
-7.40546
-7.41969
-7.43399
-7.44837
-7.46282
-7.47734
-7.49191
-7.50654
-7.52122
-7.53591
-7.55062
-7.56533
-7.58002
-7.59468
-7.60928
-7.62381
-7.63827
-7.65263
-7.6669
-7.19206
-7.19877
-7.21725
-7.23697
-7.25471
-7.27209
-7.28937
-7.306
-7.32188
-7.33727
-7.35235
-7.36717
-7.3818
-7.39631
-7.41075
-7.42516
-7.43957
-7.454
-7.46846
-7.48295
-7.49747
-7.51202
-7.5266
-7.54119
-7.55577
-7.57034
-7.58489
-7.59938
-7.61381
-7.62816
-7.6424
-7.65651
-7.67046
-7.15899
-7.19393
-7.22297
-7.23856
-7.25201
-7.26775
-7.28398
-7.29948
-7.31456
-7.32962
-7.34467
-7.35965
-7.37455
-7.38942
-7.40428
-7.41913
-7.43397
-7.44882
-7.46368
-7.47855
-7.49342
-7.50829
-7.52316
-7.53801
-7.55283
-7.56761
-7.58234
-7.597
-7.61159
-7.62608
-7.64048
-7.65477
-7.66895
-7.01774
-7.12511
-7.19863
-7.23047
-7.25313
-7.27682
-7.29844
-7.31665
-7.33283
-7.34815
-7.36295
-7.37732
-7.39142
-7.4054
-7.41933
-7.43328
-7.44726
-7.4613
-7.47539
-7.48956
-7.50378
-7.51805
-7.53236
-7.54669
-7.56104
-7.57537
-7.58968
-7.60394
-7.61814
-7.63226
-7.64629
-7.6602
-7.67398
-6.46048
-6.51527
-7.39785
-7.87265
-7.92697
-7.9489
-7.99792
-8.03825
-8.0705
-8.10277
-8.1358
-8.16887
-8.20213
-8.23577
-8.26974
-8.30394
-8.33826
-8.37259
-8.40679
-8.44074
-8.4743
-8.50733
-8.53971
-8.5713
-8.602
-8.63169
-8.66025
-8.68759
-8.7136
-8.73819
-8.76126
-8.78272
-8.80251
-8.82051
-8.83667
-8.85089
-8.86309
-8.87319
-8.88111
-8.88675
-8.89002
-8.89082
-8.88905
-8.8846
-8.87733
-8.86712
-8.85383
-8.8373
-8.81735
-8.7938
-8.76645
-8.7351
-8.6995
-8.65942
-8.61461
-8.5648
-8.50972
-8.4491
-8.38264
-8.31008
-8.2311
-8.14541
-8.05269
-7.9526
-7.84481
-7.72897
-7.60473
-7.47176
-7.32975
-7.17841
-7.01754
-6.84695
-6.66656
-6.47636
-6.27642
-6.06695
-5.84822
-5.62066
-5.38479
-5.14126
-4.89084
-4.63439
-4.37286
-4.10731
-3.83882
-3.56854
-3.29762
-3.02721
-2.75843
-2.49233
-2.22988
-1.97198
-1.71929
-1.47251
-1.2316
-0.997571
-0.76778
-0.546862
-0.32088
-0.116105
-7.03072
-7.1885
-7.52724
-7.79588
-7.86933
-7.91205
-7.96822
-8.01482
-8.05179
-8.08704
-8.12221
-8.15689
-8.19134
-8.22584
-8.26046
-8.29512
-8.32978
-8.36434
-8.39869
-8.43273
-8.46632
-8.49936
-8.53171
-8.56326
-8.5939
-8.62351
-8.65199
-8.67924
-8.70515
-8.72964
-8.75261
-8.77397
-8.79364
-8.81154
-8.82759
-8.84169
-8.85378
-8.86375
-8.87154
-8.87705
-8.88017
-8.88082
-8.87889
-8.87427
-8.86682
-8.85642
-8.84292
-8.82617
-8.80599
-8.7822
-8.7546
-8.72298
-8.68712
-8.64676
-8.60166
-8.55156
-8.4962
-8.43528
-8.36855
-8.2957
-8.21644
-8.13048
-8.0375
-7.93716
-7.82915
-7.71311
-7.5887
-7.45561
-7.31353
-7.16219
-7.00139
-6.83096
-6.65082
-6.46096
-6.26147
-6.05254
-5.83446
-5.60766
-5.37265
-5.13008
-4.8807
-4.62536
-4.365
-4.10065
-3.83338
-3.56431
-3.29457
-3.02529
-2.75756
-2.49241
-2.23079
-1.97357
-1.72137
-1.47492
-1.23405
-0.999976
-0.769434
-0.54875
-0.319074
-0.121472
-7.04031
-7.22344
-7.4539
-7.70375
-7.82337
-7.88413
-7.94289
-7.99378
-8.03493
-8.07275
-8.10969
-8.14572
-8.18115
-8.21634
-8.25143
-8.28643
-8.32129
-8.35596
-8.39036
-8.42439
-8.45794
-8.4909
-8.52315
-8.55459
-8.58511
-8.61459
-8.64294
-8.67005
-8.69582
-8.72017
-8.743
-8.76423
-8.78377
-8.80153
-8.81744
-8.83141
-8.84335
-8.85318
-8.86082
-8.86617
-8.86913
-8.86962
-8.86751
-8.86269
-8.85504
-8.84443
-8.83071
-8.81373
-8.7933
-8.76925
-8.74139
-8.70949
-8.67333
-8.63268
-8.58729
-8.53689
-8.48122
-8.42001
-8.35298
-8.27984
-8.2003
-8.11407
-8.02082
-7.92024
-7.81201
-7.69578
-7.57123
-7.43804
-7.29592
-7.14462
-6.98393
-6.81369
-6.63385
-6.44438
-6.2454
-6.03708
-5.81973
-5.59376
-5.35969
-5.11814
-4.86987
-4.61571
-4.35659
-4.09351
-3.82753
-3.55973
-3.29124
-3.02314
-2.75651
-2.49235
-2.23159
-1.97507
-1.72339
-1.47726
-1.23644
-1.00231
-0.771028
-0.550558
-0.31725
-0.126744
-7.07098
-7.25292
-7.45233
-7.66423
-7.78886
-7.85772
-7.91886
-7.97344
-8.01847
-8.05877
-8.09736
-8.13464
-8.17096
-8.20676
-8.24226
-8.2775
-8.31249
-8.34721
-8.38159
-8.41554
-8.44898
-8.4818
-8.5139
-8.54517
-8.57552
-8.60482
-8.63299
-8.65992
-8.68553
-8.7097
-8.73237
-8.75343
-8.7728
-8.79041
-8.80615
-8.81996
-8.83174
-8.8414
-8.84887
-8.85405
-8.85683
-8.85713
-8.85482
-8.8498
-8.84194
-8.8311
-8.81714
-8.7999
-8.77921
-8.75489
-8.72674
-8.69455
-8.6581
-8.61714
-8.57144
-8.52073
-8.46475
-8.40323
-8.3359
-8.26247
-8.18265
-8.09614
-8.00263
-7.90182
-7.79338
-7.67698
-7.5523
-7.41904
-7.27692
-7.12568
-6.96514
-6.79516
-6.61566
-6.42665
-6.22823
-6.02059
-5.80403
-5.57897
-5.3459
-5.10546
-4.85838
-4.60548
-4.34767
-4.08593
-3.8213
-3.55484
-3.28764
-3.02077
-2.75528
-2.49215
-2.23227
-1.97647
-1.72532
-1.47953
-1.23877
-1.00458
-0.772561
-0.552278
-0.31545
-0.131836
-7.13381
-7.29441
-7.46366
-7.63585
-7.75574
-7.83205
-7.89641
-7.95363
-8.0018
-8.04444
-8.0846
-8.12308
-8.16028
-8.19667
-8.23255
-8.26801
-8.30311
-8.33783
-8.37215
-8.40599
-8.43928
-8.47193
-8.50383
-8.5349
-8.56503
-8.59412
-8.62208
-8.6488
-8.6742
-8.69817
-8.72064
-8.74151
-8.76069
-8.77811
-8.79367
-8.80729
-8.81889
-8.82837
-8.83565
-8.84064
-8.84322
-8.84332
-8.8408
-8.83555
-8.82746
-8.81638
-8.80217
-8.78466
-8.7637
-8.73909
-8.71064
-8.67815
-8.64138
-8.60011
-8.55408
-8.50305
-8.44676
-8.38493
-8.31729
-8.24356
-8.16346
-8.07668
-7.98293
-7.8819
-7.77326
-7.65671
-7.53193
-7.39863
-7.25653
-7.10541
-6.94507
-6.77538
-6.59628
-6.40778
-6.20999
-6.00309
-5.7874
-5.56331
-5.33132
-5.09206
-4.84624
-4.59467
-4.33824
-4.07791
-3.81468
-3.54962
-3.28376
-3.01818
-2.75386
-2.49179
-2.23283
-1.97777
-1.72716
-1.48172
-1.24101
-1.00676
-0.774037
-0.553903
-0.313722
-0.136667
-7.19381
-7.32864
-7.47257
-7.61664
-7.72969
-7.80987
-7.8761
-7.93469
-7.98511
-8.02977
-8.07136
-8.11093
-8.14895
-8.18592
-8.22216
-8.25783
-8.29302
-8.32773
-8.36196
-8.39567
-8.42878
-8.46122
-8.4929
-8.52374
-8.55362
-8.58247
-8.61018
-8.63667
-8.66183
-8.68557
-8.70781
-8.72846
-8.74744
-8.76464
-8.78
-8.79342
-8.80481
-8.81409
-8.82117
-8.82594
-8.82831
-8.82818
-8.82544
-8.81996
-8.81162
-8.80028
-8.7858
-8.76801
-8.74676
-8.72185
-8.6931
-8.66028
-8.62319
-8.58159
-8.53524
-8.48389
-8.42727
-8.36513
-8.29718
-8.22316
-8.14277
-8.05574
-7.96175
-7.8605
-7.7517
-7.63502
-7.51016
-7.37685
-7.23482
-7.08384
-6.92374
-6.7544
-6.57575
-6.38783
-6.19072
-5.98464
-5.76988
-5.54683
-5.31599
-5.07798
-4.83349
-4.58332
-4.32833
-4.06946
-3.80771
-3.54409
-3.27963
-3.01536
-2.75227
-2.49129
-2.23326
-1.97896
-1.72891
-1.48381
-1.24318
-1.00886
-0.775457
-0.555424
-0.312111
-0.141159
-7.24732
-7.36
-7.48352
-7.60684
-7.71099
-7.7912
-7.85797
-7.91709
-7.96896
-8.01516
-8.05792
-8.0984
-8.13713
-8.1746
-8.21116
-8.24701
-8.28226
-8.31694
-8.35107
-8.38461
-8.41752
-8.44973
-8.48116
-8.51173
-8.54135
-8.56992
-8.59736
-8.62358
-8.64848
-8.67197
-8.69396
-8.71436
-8.73309
-8.75007
-8.76519
-8.77839
-8.78956
-8.79861
-8.80546
-8.81001
-8.81215
-8.81178
-8.80879
-8.80306
-8.79446
-8.78285
-8.76808
-8.75001
-8.72845
-8.70323
-8.67415
-8.64101
-8.60359
-8.56165
-8.51497
-8.46328
-8.40634
-8.34388
-8.27563
-8.20131
-8.12065
-8.03336
-7.93915
-7.83771
-7.72875
-7.61196
-7.48706
-7.35377
-7.21184
-7.06106
-6.90124
-6.7323
-6.55416
-6.36686
-6.1705
-5.96529
-5.75152
-5.52958
-5.29996
-5.06326
-4.82016
-4.57145
-4.31796
-4.06061
-3.80038
-3.53825
-3.27524
-3.01233
-2.75048
-2.49062
-2.23354
-1.98003
-1.73054
-1.4858
-1.24525
-1.01086
-0.776821
-0.556833
-0.310653
-0.145249
-7.29465
-7.38975
-7.49621
-7.60309
-7.69794
-7.77592
-7.84224
-7.90124
-7.95377
-8.00098
-8.04461
-8.08577
-8.12506
-8.16293
-8.19974
-8.23572
-8.27098
-8.3056
-8.33959
-8.37294
-8.40563
-8.43758
-8.46873
-8.499
-8.52832
-8.55659
-8.58373
-8.60965
-8.63426
-8.65746
-8.67918
-8.69932
-8.71778
-8.7345
-8.74937
-8.76231
-8.77324
-8.78205
-8.78865
-8.79295
-8.79484
-8.79421
-8.79096
-8.78495
-8.77607
-8.76417
-8.74911
-8.73073
-8.70885
-8.68331
-8.6539
-8.62042
-8.58266
-8.54038
-8.49335
-8.44133
-8.38406
-8.32128
-8.25272
-8.17812
-8.09719
-8.00966
-7.91523
-7.81361
-7.70452
-7.58765
-7.46274
-7.3295
-7.18771
-7.03715
-6.87767
-6.70916
-6.53158
-6.34496
-6.14941
-5.94513
-5.73241
-5.51163
-5.28329
-5.04796
-4.80631
-4.5591
-4.30717
-4.0514
-3.79273
-3.53214
-3.2706
-3.00908
-2.74851
-2.48979
-2.23369
-1.98096
-1.73206
-1.48768
-1.24722
-1.01276
-0.778132
-0.558127
-0.309377
-0.148888
-7.33611
-7.41751
-7.50974
-7.60335
-7.68949
-7.76398
-7.82894
-7.88723
-7.9398
-7.98751
-8.03167
-8.0733
-8.11297
-8.15112
-8.1881
-8.22413
-8.25937
-8.29388
-8.3277
-8.36084
-8.39326
-8.42492
-8.45576
-8.48572
-8.51471
-8.54265
-8.56946
-8.59505
-8.61934
-8.64223
-8.66364
-8.68348
-8.70166
-8.71808
-8.73268
-8.74534
-8.75599
-8.76453
-8.77087
-8.77489
-8.77651
-8.77561
-8.77207
-8.76578
-8.7566
-8.74439
-8.72902
-8.71031
-8.68811
-8.66222
-8.63247
-8.59864
-8.56053
-8.5179
-8.47052
-8.41816
-8.36056
-8.29746
-8.2286
-8.15371
-8.07252
-7.98475
-7.89012
-7.78834
-7.67913
-7.56221
-7.4373
-7.30415
-7.16253
-7.01224
-6.85313
-6.68511
-6.50813
-6.32224
-6.12754
-5.92424
-5.71262
-5.49306
-5.26605
-5.03214
-4.79199
-4.54634
-4.29601
-4.04185
-3.78479
-3.52577
-3.26573
-3.00563
-2.74636
-2.48879
-2.23369
-1.98176
-1.73345
-1.48944
-1.24909
-1.01455
-0.779388
-0.559301
-0.308303
-0.152042
-7.37242
-7.44319
-7.52371
-7.60642
-7.68469
-7.75505
-7.81795
-7.87504
-7.92714
-7.9749
-8.01929
-8.06115
-8.10103
-8.13933
-8.17638
-8.21241
-8.24756
-8.28193
-8.31555
-8.34843
-8.38057
-8.41192
-8.44243
-8.47204
-8.50068
-8.52826
-8.55471
-8.57995
-8.60389
-8.62644
-8.64751
-8.66702
-8.68488
-8.701
-8.71528
-8.72765
-8.738
-8.74625
-8.75229
-8.75602
-8.75734
-8.75614
-8.75229
-8.74569
-8.73619
-8.72366
-8.70796
-8.68891
-8.66636
-8.64013
-8.61002
-8.57583
-8.53735
-8.49437
-8.44664
-8.39393
-8.33599
-8.27256
-8.2034
-8.12823
-8.04678
-7.95878
-7.86396
-7.76204
-7.65274
-7.53578
-7.4109
-7.27786
-7.13644
-6.98645
-6.82775
-6.66025
-6.48392
-6.2988
-6.105
-5.90272
-5.69225
-5.47396
-5.24831
-5.01586
-4.77725
-4.53321
-4.2845
-4.032
-3.77657
-3.51915
-3.26064
-3.00198
-2.74403
-2.48764
-2.23354
-1.98242
-1.73471
-1.49107
-1.25084
-1.01623
-0.780589
-0.560357
-0.307446
-0.154695
-7.40437
-7.46682
-7.53776
-7.61142
-7.68268
-7.74868
-7.80906
-7.86458
-7.91582
-7.96325
-8.00757
-8.04944
-8.08936
-8.12768
-8.16471
-8.20067
-8.23568
-8.26986
-8.30325
-8.33586
-8.36769
-8.3987
-8.42886
-8.4581
-8.48636
-8.51357
-8.53964
-8.5645
-8.58806
-8.61025
-8.63096
-8.65012
-8.66763
-8.68341
-8.69737
-8.70941
-8.71944
-8.72736
-8.73308
-8.73649
-8.73749
-8.73597
-8.7318
-8.72487
-8.71503
-8.70216
-8.68611
-8.66671
-8.64379
-8.61719
-8.58671
-8.55215
-8.5133
-8.46995
-8.42186
-8.36879
-8.31051
-8.24677
-8.1773
-8.10184
-8.02014
-7.93193
-7.83693
-7.73487
-7.62549
-7.50851
-7.38369
-7.25078
-7.10959
-6.95993
-6.80167
-6.63473
-6.45908
-6.27476
-6.0819
-5.88068
-5.67139
-5.4544
-5.23016
-4.9992
-4.76217
-4.51975
-4.27271
-4.02188
-3.76811
-3.5123
-3.25535
-2.99814
-2.74152
-2.48631
-2.23323
-1.98293
-1.73583
-1.49258
-1.25248
-1.0178
-0.781735
-0.561295
-0.306807
-0.156848
-7.43266
-7.4885
-7.55162
-7.61771
-7.68277
-7.74447
-7.80206
-7.85574
-7.90581
-7.95259
-7.99657
-8.03825
-8.07805
-8.11627
-8.15319
-8.18899
-8.22382
-8.25777
-8.29089
-8.3232
-8.3547
-8.38536
-8.41515
-8.44401
-8.47187
-8.49868
-8.52436
-8.54882
-8.57199
-8.59379
-8.61412
-8.63291
-8.65005
-8.66547
-8.67907
-8.69076
-8.70045
-8.70803
-8.71341
-8.71649
-8.71714
-8.71528
-8.71076
-8.70348
-8.69329
-8.68006
-8.66364
-8.64387
-8.62058
-8.5936
-8.56273
-8.52779
-8.48856
-8.44483
-8.39637
-8.34294
-8.28432
-8.22024
-8.15046
-8.07473
-7.99278
-7.90435
-7.80918
-7.707
-7.59755
-7.48057
-7.35582
-7.22307
-7.08213
-6.93283
-6.77503
-6.60867
-6.43373
-6.25025
-6.05835
-5.85822
-5.65015
-5.43448
-5.21167
-4.98224
-4.7468
-4.50603
-4.26067
-4.01153
-3.75944
-3.50526
-3.24987
-2.99412
-2.73885
-2.48483
-2.23276
-1.98329
-1.73681
-1.49394
-1.25399
-1.01924
-0.782824
-0.562117
-0.306383
-0.158513
-7.45788
-7.50838
-7.56509
-7.6248
-7.68442
-7.74201
-7.7967
-7.84835
-7.89703
-7.94292
-7.98633
-8.02763
-8.06715
-8.10515
-8.14186
-8.17744
-8.21203
-8.24571
-8.27853
-8.31052
-8.34167
-8.37196
-8.40136
-8.42982
-8.45729
-8.48369
-8.50895
-8.53301
-8.55578
-8.57717
-8.5971
-8.6155
-8.63226
-8.6473
-8.66053
-8.67186
-8.68118
-8.6884
-8.69342
-8.69614
-8.69644
-8.69421
-8.68933
-8.68168
-8.67112
-8.65751
-8.64071
-8.62055
-8.59687
-8.5695
-8.53824
-8.50291
-8.46329
-8.41917
-8.37033
-8.31654
-8.25756
-8.19316
-8.12307
-8.04706
-7.96486
-7.87623
-7.78089
-7.67859
-7.56908
-7.45211
-7.32745
-7.19488
-7.05421
-6.90528
-6.74797
-6.58222
-6.408
-6.22538
-6.03446
-5.83545
-5.6286
-5.41428
-5.19292
-4.96503
-4.7312
-4.49209
-4.24843
-4.00099
-3.75058
-3.49804
-3.24422
-2.98994
-2.73601
-2.48318
-2.23214
-1.9835
-1.73763
-1.49515
-1.25537
-1.02057
-0.783852
-0.562829
-0.306162
-0.159719
-7.48049
-7.52661
-7.57803
-7.63236
-7.6872
-7.74095
-7.79276
-7.84227
-7.8894
-7.9342
-7.97686
-8.01761
-8.05672
-8.09438
-8.13078
-8.16607
-8.20036
-8.23373
-8.26622
-8.29786
-8.32864
-8.35855
-8.38756
-8.41561
-8.44266
-8.46864
-8.49349
-8.51713
-8.53948
-8.56046
-8.57999
-8.59798
-8.61435
-8.629
-8.64184
-8.65278
-8.66172
-8.66857
-8.67322
-8.67556
-8.67549
-8.67288
-8.66763
-8.6596
-8.64865
-8.63466
-8.61746
-8.59691
-8.57283
-8.54505
-8.51339
-8.47765
-8.43763
-8.39312
-8.3439
-8.28974
-8.23041
-8.16567
-8.09528
-8.01899
-7.93655
-7.8477
-7.7522
-7.6498
-7.54024
-7.4233
-7.29873
-7.16635
-7.02596
-6.87742
-6.72061
-6.55548
-6.38201
-6.20026
-6.01035
-5.81246
-5.60686
-5.39389
-5.17399
-4.94764
-4.71543
-4.47799
-4.23603
-3.99029
-3.74157
-3.49067
-3.23841
-2.98559
-2.733
-2.48137
-2.23135
-1.98354
-1.73829
-1.49622
-1.25662
-1.02177
-0.784816
-0.563435
-0.306125
-0.160503
-7.50086
-7.54335
-7.59037
-7.64014
-7.69078
-7.74101
-7.79001
-7.83734
-7.88281
-7.92639
-7.96813
-8.0082
-8.04677
-8.08398
-8.12
-8.15493
-8.18887
-8.22188
-8.25401
-8.28527
-8.31566
-8.34517
-8.37377
-8.40141
-8.42804
-8.4536
-8.47802
-8.50123
-8.52315
-8.54372
-8.56283
-8.58041
-8.59637
-8.61062
-8.62307
-8.63362
-8.64217
-8.64863
-8.6529
-8.65485
-8.65439
-8.6514
-8.64576
-8.63734
-8.626
-8.6116
-8.59401
-8.57305
-8.54856
-8.52037
-8.4883
-8.45216
-8.41173
-8.36683
-8.31722
-8.26269
-8.203
-8.13793
-8.06723
-7.99065
-7.90797
-7.81892
-7.72327
-7.62076
-7.51116
-7.39425
-7.2698
-7.13761
-6.99752
-6.84938
-6.69309
-6.52859
-6.35587
-6.175
-5.98609
-5.78933
-5.58499
-5.37338
-5.15494
-4.93014
-4.69955
-4.46378
-4.22351
-3.97947
-3.73243
-3.48316
-3.23246
-2.9811
-2.72985
-2.47941
-2.2304
-1.98342
-1.7388
-1.49713
-1.25773
-1.02284
-0.785713
-0.563941
-0.306249
-0.16091
-7.5193
-7.55874
-7.60206
-7.64794
-7.69491
-7.74191
-7.78823
-7.83341
-7.87717
-7.91942
-7.96013
-7.9994
-8.03732
-8.07399
-8.10954
-8.14404
-8.17757
-8.21019
-8.24192
-8.27278
-8.30277
-8.33186
-8.36004
-8.38725
-8.41345
-8.43858
-8.46257
-8.48535
-8.50685
-8.52698
-8.54568
-8.56284
-8.57839
-8.59223
-8.60427
-8.61442
-8.62258
-8.62865
-8.63252
-8.63408
-8.63323
-8.62985
-8.62381
-8.61499
-8.60325
-8.58845
-8.57044
-8.54907
-8.52417
-8.49557
-8.46308
-8.42653
-8.3857
-8.34039
-8.2904
-8.23549
-8.17545
-8.11004
-8.03903
-7.96218
-7.87926
-7.79001
-7.6942
-7.5916
-7.48197
-7.3651
-7.24076
-7.10878
-6.96899
-6.82126
-6.66549
-6.50163
-6.32968
-6.14969
-5.96179
-5.76617
-5.56307
-5.35282
-5.13584
-4.91258
-4.6836
-4.44948
-4.2109
-3.96855
-3.72317
-3.47553
-3.22637
-2.97647
-2.72655
-2.47728
-2.22929
-1.98314
-1.73914
-1.49789
-1.2587
-1.02379
-0.786536
-0.564351
-0.306508
-0.160991
-7.53607
-7.5729
-7.6131
-7.65563
-7.69937
-7.74346
-7.78726
-7.83033
-7.87237
-7.91323
-7.95283
-7.99119
-8.02837
-8.06442
-8.09942
-8.13343
-8.16651
-8.19868
-8.22999
-8.26042
-8.28998
-8.31865
-8.34639
-8.37317
-8.39893
-8.42362
-8.44718
-8.46952
-8.49059
-8.51029
-8.52856
-8.5453
-8.56044
-8.57387
-8.5855
-8.59525
-8.60301
-8.60867
-8.61214
-8.61331
-8.61206
-8.60828
-8.60184
-8.59262
-8.58047
-8.56526
-8.54684
-8.52506
-8.49974
-8.47072
-8.43782
-8.40085
-8.35962
-8.31391
-8.26353
-8.20825
-8.14785
-8.08211
-8.0108
-7.93368
-7.85051
-7.76107
-7.66512
-7.56243
-7.45277
-7.33594
-7.21173
-7.07996
-6.94048
-6.79317
-6.63792
-6.4747
-6.30351
-6.12441
-5.93752
-5.74303
-5.54117
-5.33228
-5.11674
-4.89501
-4.66762
-4.43515
-4.19824
-3.95757
-3.71384
-3.4678
-3.22018
-2.97171
-2.7231
-2.47501
-2.22802
-1.98269
-1.73932
-1.49848
-1.25953
-1.02461
-0.787281
-0.564671
-0.306874
-0.160798
-7.55135
-7.58595
-7.62347
-7.66313
-7.70402
-7.74547
-7.78693
-7.82798
-7.86831
-7.90774
-7.94617
-7.98357
-8.01993
-8.05528
-8.08967
-8.12314
-8.15571
-8.18741
-8.21825
-8.24823
-8.27734
-8.30556
-8.33286
-8.3592
-8.38452
-8.40876
-8.43187
-8.45378
-8.47441
-8.49368
-8.51152
-8.52784
-8.54256
-8.55557
-8.5668
-8.57613
-8.58348
-8.58875
-8.59182
-8.59259
-8.59094
-8.58675
-8.57991
-8.57028
-8.55772
-8.5421
-8.52327
-8.50107
-8.47534
-8.44591
-8.41259
-8.37521
-8.33357
-8.28747
-8.2367
-8.18105
-8.1203
-8.05423
-7.98262
-7.90523
-7.82183
-7.7322
-7.63611
-7.53333
-7.42366
-7.30687
-7.1828
-7.05125
-6.91208
-6.76518
-6.61046
-6.44789
-6.27746
-6.09924
-5.91335
-5.71998
-5.51936
-5.3118
-5.0977
-4.87748
-4.65167
-4.42083
-4.18556
-3.94654
-3.70444
-3.45998
-3.21388
-2.96683
-2.71952
-2.47258
-2.22659
-1.98207
-1.73934
-1.49892
-1.26021
-1.02529
-0.787943
-0.564906
-0.307317
-0.160383
-7.56532
-7.59799
-7.6332
-7.67035
-7.70874
-7.74781
-7.78709
-7.82622
-7.86488
-7.90289
-7.94012
-7.97649
-8.01198
-8.04658
-8.08031
-8.11317
-8.14519
-8.17637
-8.20672
-8.23623
-8.26487
-8.29264
-8.31948
-8.34536
-8.37023
-8.39402
-8.41669
-8.43815
-8.45835
-8.47719
-8.49459
-8.51049
-8.52478
-8.53738
-8.54819
-8.55712
-8.56406
-8.56892
-8.57159
-8.57195
-8.5699
-8.56531
-8.55806
-8.54802
-8.53506
-8.51903
-8.49979
-8.47717
-8.45103
-8.42118
-8.38745
-8.34966
-8.30762
-8.26113
-8.20998
-8.15396
-8.09287
-8.02648
-7.95456
-7.87691
-7.79328
-7.70347
-7.60725
-7.50439
-7.3947
-7.27798
-7.15403
-7.02271
-6.88386
-6.73738
-6.58319
-6.42125
-6.25158
-6.07424
-5.88935
-5.69708
-5.49768
-5.29144
-5.07875
-4.86003
-4.63578
-4.40653
-4.17289
-3.93549
-3.695
-3.4521
-3.20749
-2.96183
-2.7158
-2.47001
-2.225
-1.98129
-1.73918
-1.49919
-1.26074
-1.02585
-0.788517
-0.565061
-0.307808
-0.159796
-7.57812
-7.60909
-7.6423
-7.67727
-7.71344
-7.75036
-7.78764
-7.82495
-7.862
-7.89861
-7.93461
-7.96993
-8.00451
-8.03831
-8.07132
-8.10355
-8.13498
-8.16562
-8.19544
-8.22445
-8.25261
-8.2799
-8.30627
-8.33169
-8.3561
-8.37944
-8.40166
-8.42268
-8.44243
-8.46083
-8.47781
-8.49327
-8.50714
-8.51932
-8.52972
-8.53823
-8.54477
-8.54923
-8.55149
-8.55145
-8.54899
-8.544
-8.53635
-8.52591
-8.51254
-8.4961
-8.47644
-8.45342
-8.42686