/*--------------------------------*- C++ -*----------------------------------*\
| =========                 |                                                 |
| \\      /  F ield         | OpenFOAM: The Open Source CFD Toolbox           |
|  \\    /   O peration     | Version:  4.1                                   |
|   \\  /    A nd           | Web:      www.OpenFOAM.org                      |
|    \\/     M anipulation  |                                                 |
\*---------------------------------------------------------------------------*/
FoamFile
{
    version     2.0;
    format      ascii;
    class       surfaceScalarField;
    location    "1300";
    object      phi;
}
// * * * * * * * * * * * * * * * * * * * * * * * * * * * * * * * * * * * * * //

dimensions      [0 3 -1 0 0 0 0];

internalField   nonuniform List<scalar> 
13452
(
5.98811e-05
3.87334e-07
5.95252e-05
3.55937e-07
5.92696e-05
2.55585e-07
5.90615e-05
2.08069e-07
5.88793e-05
1.82251e-07
5.87167e-05
1.62633e-07
5.85688e-05
1.47865e-07
5.84321e-05
1.36719e-07
5.83044e-05
1.27688e-07
5.81843e-05
1.20052e-07
5.80708e-05
1.13553e-07
5.79628e-05
1.08022e-07
5.78594e-05
1.03319e-07
5.77601e-05
9.93452e-08
5.76641e-05
9.60347e-08
5.75707e-05
9.33495e-08
5.74794e-05
9.12741e-08
5.73896e-05
8.98166e-08
5.73006e-05
8.90118e-08
5.72117e-05
8.89278e-08
5.7122e-05
8.9677e-08
5.70306e-05
9.14362e-08
5.69361e-05
9.44827e-08
5.68368e-05
9.92598e-08
5.67303e-05
1.06506e-07
5.66128e-05
1.17507e-07
5.64781e-05
1.34726e-07
5.63152e-05
1.62866e-07
5.61015e-05
2.13715e-07
5.57938e-05
3.07692e-07
5.52642e-05
5.29574e-07
5.42149e-05
1.04936e-06
1.53827e-06
5.26766e-05
6.20749e-05
3.02761e-07
6.19987e-05
4.3211e-07
6.18517e-05
4.02672e-07
6.16884e-05
3.7129e-07
6.15293e-05
3.41404e-07
6.13798e-05
3.12136e-07
6.12402e-05
2.87433e-07
6.11095e-05
2.67432e-07
6.09864e-05
2.50748e-07
6.087e-05
2.36518e-07
6.07592e-05
2.24312e-07
6.06534e-05
2.13819e-07
6.05519e-05
2.04803e-07
6.04542e-05
1.971e-07
6.03596e-05
1.90604e-07
6.02677e-05
1.85248e-07
6.0178e-05
1.81005e-07
6.00899e-05
1.77888e-07
6.0003e-05
1.75952e-07
5.99166e-05
1.75305e-07
5.98301e-05
1.76126e-07
5.97429e-05
1.7869e-07
5.96539e-05
1.83421e-07
5.95622e-05
1.90975e-07
5.94663e-05
2.02402e-07
5.93644e-05
2.19392e-07
5.92541e-05
2.45038e-07
5.91327e-05
2.84277e-07
5.89971e-05
3.4934e-07
5.88508e-05
4.5399e-07
5.87171e-05
6.63251e-07
5.8764e-05
1.00249e-06
1.63628e-06
5.8666e-05
6.38373e-05
2.26835e-07
6.38685e-05
4.00966e-07
6.38445e-05
4.26693e-07
6.37851e-05
4.30685e-07
6.37048e-05
4.21709e-07
6.36142e-05
4.02683e-07
6.35198e-05
3.81815e-07
6.34248e-05
3.6243e-07
6.33308e-05
3.44804e-07
6.32384e-05
3.28909e-07
6.31479e-05
3.14755e-07
6.30595e-05
3.02267e-07
6.2973e-05
2.91335e-07
6.28882e-05
2.81876e-07
6.28049e-05
2.73842e-07
6.2723e-05
2.67214e-07
6.2642e-05
2.62006e-07
6.25616e-05
2.58276e-07
6.24814e-05
2.56132e-07
6.2401e-05
2.55748e-07
6.23197e-05
2.57388e-07
6.2237e-05
2.61442e-07
6.21519e-05
2.68492e-07
6.20635e-05
2.79403e-07
6.19703e-05
2.95509e-07
6.18709e-05
3.18858e-07
6.1763e-05
3.5292e-07
6.16445e-05
4.02822e-07
6.15145e-05
4.79255e-07
6.13757e-05
5.92858e-07
6.12582e-05
7.80707e-07
6.12263e-05
1.03436e-06
1.47469e-06
6.13879e-05
6.5637e-05
1.72891e-07
6.56889e-05
3.4905e-07
6.57122e-05
4.0339e-07
6.57127e-05
4.30229e-07
6.56932e-05
4.41246e-07
6.5658e-05
4.37836e-07
6.56121e-05
4.27724e-07
6.5559e-05
4.15499e-07
6.55012e-05
4.02591e-07
6.54404e-05
3.89752e-07
6.53776e-05
3.77555e-07
6.53135e-05
3.66318e-07
6.52487e-05
3.56197e-07
6.51833e-05
3.47297e-07
6.51174e-05
3.39704e-07
6.50511e-05
3.33507e-07
6.49843e-05
3.2881e-07
6.49168e-05
3.2575e-07
6.48484e-05
3.24513e-07
6.47788e-05
3.25356e-07
6.47076e-05
3.28637e-07
6.46342e-05
3.34855e-07
6.45579e-05
3.44722e-07
6.44781e-05
3.59258e-07
6.43936e-05
3.79966e-07
6.43035e-05
4.09041e-07
6.42065e-05
4.49903e-07
6.4102e-05
5.07286e-07
6.39918e-05
5.89433e-07
6.38808e-05
7.03885e-07
6.37917e-05
8.69803e-07
6.37498e-05
1.07629e-06
1.36368e-06
6.38608e-05
6.74946e-05
1.35101e-07
6.75432e-05
3.00463e-07
6.75779e-05
3.68611e-07
6.76013e-05
4.06838e-07
6.76127e-05
4.29924e-07
6.76119e-05
4.38599e-07
6.76009e-05
4.38746e-07
6.75815e-05
4.34832e-07
6.75555e-05
4.2861e-07
6.75242e-05
4.211e-07
6.74886e-05
4.13147e-07
6.74496e-05
4.05331e-07
6.74077e-05
3.98026e-07
6.73635e-05
3.91504e-07
6.73172e-05
3.85996e-07
6.7269e-05
3.81705e-07
6.7219e-05
3.78835e-07
6.71671e-05
3.77614e-07
6.71133e-05
3.7831e-07
6.70574e-05
3.81263e-07
6.69992e-05
3.86916e-07
6.69382e-05
3.95856e-07
6.6874e-05
4.08881e-07
6.68062e-05
4.27091e-07
6.67341e-05
4.52021e-07
6.66574e-05
4.858e-07
6.65758e-05
5.3147e-07
6.64901e-05
5.92942e-07
6.64036e-05
6.75957e-07
6.63223e-05
7.85168e-07
6.62632e-05
9.28938e-07
6.6242e-05
1.09749e-06
1.29615e-06
6.63095e-05
6.94108e-05
1.08308e-07
6.9452e-05
2.59321e-07
6.94866e-05
3.33954e-07
6.95155e-05
3.77938e-07
6.95381e-05
4.07335e-07
6.95532e-05
4.23507e-07
6.95611e-05
4.30886e-07
6.95624e-05
4.33515e-07
6.95578e-05
4.3319e-07
6.9548e-05
4.30922e-07
6.95335e-05
4.27582e-07
6.9515e-05
4.2383e-07
6.94929e-05
4.20132e-07
6.94676e-05
4.16855e-07
6.94393e-05
4.14313e-07
6.94082e-05
4.12791e-07
6.93744e-05
4.1257e-07
6.93381e-05
4.13948e-07
6.92992e-05
4.1726e-07
6.92575e-05
4.22912e-07
6.9213e-05
4.31404e-07
6.91655e-05
4.43376e-07
6.91147e-05
4.59663e-07
6.90605e-05
4.8136e-07
6.90026e-05
5.09922e-07
6.89411e-05
5.47244e-07
6.88768e-05
5.95811e-07
6.88112e-05
6.58547e-07
6.87481e-05
7.39043e-07
6.86937e-05
8.39594e-07
6.86601e-05
9.62542e-07
6.86578e-05
1.0997e-06
1.24529e-06
6.87087e-05
7.13857e-05
8.89857e-08
7.14198e-05
2.25202e-07
7.14515e-05
3.02226e-07
7.148e-05
3.49481e-07
7.1505e-05
3.82276e-07
7.15256e-05
4.02958e-07
7.15414e-05
4.15034e-07
7.15528e-05
4.22143e-07
7.15599e-05
4.26123e-07
7.15628e-05
4.27971e-07
7.15619e-05
4.28514e-07
7.15573e-05
4.28408e-07
7.15493e-05
4.28141e-07
7.1538e-05
4.28106e-07
7.15237e-05
4.2865e-07
7.15064e-05
4.30098e-07
7.14862e-05
4.32768e-07
7.14631e-05
4.36998e-07
7.14372e-05
4.43163e-07
7.14085e-05
4.51703e-07
7.13767e-05
4.63144e-07
7.13419e-05
4.78139e-07
7.13041e-05
4.97501e-07
7.12632e-05
5.22255e-07
7.12195e-05
5.53684e-07
7.11733e-05
5.93356e-07
7.1126e-05
6.43141e-07
7.10796e-05
7.05005e-07
7.10377e-05
7.80883e-07
7.10059e-05
8.71387e-07
7.09926e-05
9.75859e-07
7.10047e-05
1.08756e-06
1.1986e-06
7.10514e-05
7.34195e-05
7.47532e-08
7.34477e-05
1.97003e-07
7.34761e-05
2.73793e-07
7.35027e-05
3.22953e-07
7.35272e-05
3.57773e-07
7.35488e-05
3.81367e-07
7.35672e-05
3.96644e-07
7.35824e-05
4.06846e-07
7.35947e-05
4.13855e-07
7.3604e-05
4.18702e-07
7.36103e-05
4.22193e-07
7.36137e-05
4.24976e-07
7.36143e-05
4.27543e-07
7.36122e-05
4.30293e-07
7.36072e-05
4.33581e-07
7.35996e-05
4.37743e-07
7.35892e-05
4.43112e-07
7.35762e-05
4.5004e-07
7.35604e-05
4.58913e-07
7.3542e-05
4.70176e-07
7.35208e-05
4.84349e-07
7.34968e-05
5.02056e-07
7.34703e-05
5.24047e-07
7.34413e-05
5.5122e-07
7.34104e-05
5.84637e-07
7.33782e-05
6.25499e-07
7.33463e-05
6.7509e-07
7.33167e-05
7.34559e-07
7.3293e-05
8.04663e-07
7.32794e-05
8.84954e-07
7.32818e-05
9.73478e-07
7.33046e-05
1.06476e-06
1.15172e-06
7.33515e-05
7.55132e-05
6.40169e-08
7.55366e-05
1.73648e-07
7.55619e-05
2.48464e-07
7.55863e-05
2.98525e-07
7.56095e-05
3.34613e-07
7.56306e-05
3.60229e-07
7.56494e-05
3.77883e-07
7.56658e-05
3.90406e-07
7.568e-05
3.99678e-07
7.56919e-05
4.06777e-07
7.57016e-05
4.12511e-07
7.5709e-05
4.1753e-07
7.57143e-05
4.22337e-07
7.57172e-05
4.27339e-07
7.57179e-05
4.32895e-07
7.57163e-05
4.39345e-07
7.57124e-05
4.47022e-07
7.57061e-05
4.56277e-07
7.56976e-05
4.67489e-07
7.56867e-05
4.81087e-07
7.56734e-05
4.9756e-07
7.5658e-05
5.17472e-07
7.56406e-05
5.41476e-07
7.56215e-05
5.70315e-07
7.56013e-05
6.04806e-07
7.5581e-05
6.45795e-07
7.55621e-05
6.94058e-07
7.55465e-05
7.50103e-07
7.55373e-05
8.13916e-07
7.55378e-05
8.84457e-07
7.55519e-05
9.59385e-07
7.55823e-05
1.0343e-06
1.10363e-06
7.56304e-05
7.76679e-05
5.57127e-08
7.76873e-05
1.54199e-07
7.77099e-05
2.2594e-07
7.77323e-05
2.76069e-07
7.7754e-05
3.1289e-07
7.77743e-05
3.39939e-07
7.77928e-05
3.59445e-07
7.78093e-05
3.73849e-07
7.7824e-05
3.84955e-07
7.78369e-05
3.93874e-07
7.7848e-05
4.01417e-07
7.78573e-05
4.08239e-07
7.78648e-05
4.14857e-07
7.78705e-05
4.21688e-07
7.78743e-05
4.29097e-07
7.78762e-05
4.37423e-07
7.78762e-05
4.46998e-07
7.78743e-05
4.58163e-07
7.78705e-05
4.71281e-07
7.78649e-05
4.86747e-07
7.78574e-05
5.05002e-07
7.78484e-05
5.26535e-07
7.7838e-05
5.51884e-07
7.78266e-05
5.81622e-07
7.78151e-05
6.16332e-07
7.78044e-05
6.5654e-07
7.77958e-05
7.02614e-07
7.77913e-05
7.54601e-07
7.77932e-05
8.12021e-07
7.78041e-05
8.73572e-07
7.78265e-05
9.36965e-07
7.78621e-05
9.9871e-07
1.05465e-06
7.79111e-05
7.98849e-05
4.91253e-08
7.99012e-05
1.37874e-07
7.99213e-05
2.05911e-07
7.99419e-05
2.55416e-07
7.99623e-05
2.92523e-07
7.99817e-05
3.20548e-07
7.99996e-05
3.41499e-07
8.0016e-05
3.57469e-07
8.00308e-05
3.70137e-07
8.00441e-05
3.80613e-07
8.00558e-05
3.89704e-07
8.0066e-05
3.98064e-07
8.00746e-05
4.06215e-07
8.00817e-05
4.14583e-07
8.00873e-05
4.23537e-07
8.00913e-05
4.33415e-07
8.00937e-05
4.44542e-07
8.00947e-05
4.57245e-07
8.00941e-05
4.7186e-07
8.00921e-05
4.88744e-07
8.00888e-05
5.08278e-07
8.00845e-05
5.30866e-07
8.00794e-05
5.56927e-07
8.00742e-05
5.86872e-07
8.00694e-05
6.2107e-07
8.00662e-05
6.59782e-07
8.00657e-05
7.03072e-07
8.00697e-05
7.50679e-07
8.00798e-05
8.01875e-07
8.00981e-05
8.55307e-07
8.01261e-05
9.08928e-07
8.01648e-05
9.60004e-07
1.0055e-06
8.0214e-05
8.21658e-05
4.37702e-08
8.21796e-05
1.2403e-07
8.21975e-05
1.88067e-07
8.22165e-05
2.36396e-07
8.22356e-05
2.73399e-07
8.22542e-05
3.02011e-07
8.22716e-05
3.24053e-07
8.22878e-05
3.41316e-07
8.23026e-05
3.55326e-07
8.2316e-05
3.67162e-07
8.23281e-05
3.77617e-07
8.23388e-05
3.87332e-07
8.23482e-05
3.96826e-07
8.23563e-05
4.06528e-07
8.2363e-05
4.16804e-07
8.23685e-05
4.27987e-07
8.23726e-05
4.4039e-07
8.23755e-05
4.5432e-07
8.23773e-05
4.70083e-07
8.23781e-05
4.87989e-07
8.2378e-05
5.08358e-07
8.23773e-05
5.31506e-07
8.23765e-05
5.57736e-07
8.23761e-05
5.87314e-07
8.23767e-05
6.20428e-07
8.23794e-05
6.57134e-07
8.23852e-05
6.97282e-07
8.23954e-05
7.40428e-07
8.24116e-05
7.85743e-07
8.24349e-05
8.31945e-07
8.24666e-05
8.77289e-07
8.25069e-05
9.19657e-07
9.56844e-07
8.25556e-05
8.45122e-05
3.93152e-08
8.45241e-05
1.12154e-07
8.45401e-05
1.72109e-07
8.45576e-05
2.18845e-07
8.45756e-05
2.55398e-07
8.45934e-05
2.84261e-07
8.46103e-05
3.07072e-07
8.46263e-05
3.25367e-07
8.46411e-05
3.40513e-07
8.46547e-05
3.53531e-07
8.46672e-05
3.65188e-07
8.46784e-05
3.76104e-07
8.46884e-05
3.86788e-07
8.46973e-05
3.97659e-07
8.4705e-05
4.09078e-07
8.47117e-05
4.21365e-07
8.47172e-05
4.34816e-07
8.47218e-05
4.49714e-07
8.47256e-05
4.66328e-07
8.47287e-05
4.84922e-07
8.47313e-05
5.05749e-07
8.47337e-05
5.29043e-07
8.47365e-05
5.55003e-07
8.474e-05
5.83769e-07
8.4745e-05
6.15387e-07
8.47524e-05
6.49763e-07
8.47631e-05
6.8661e-07
8.47781e-05
7.25391e-07
8.47986e-05
7.65273e-07
8.48254e-05
8.05102e-07
8.48593e-05
8.43438e-07
8.49003e-05
8.78651e-07
9.09148e-07
8.4948e-05
8.6926e-05
3.55287e-08
8.69363e-05
1.01835e-07
8.69506e-05
1.57761e-07
8.69669e-05
2.02597e-07
8.69839e-05
2.38401e-07
8.70009e-05
2.67219e-07
8.70175e-05
2.90504e-07
8.70333e-05
3.09581e-07
8.70481e-05
3.25656e-07
8.7062e-05
3.39679e-07
8.70748e-05
3.52379e-07
8.70865e-05
3.64348e-07
8.70972e-05
3.76073e-07
8.71069e-05
3.87962e-07
8.71157e-05
4.00361e-07
8.71235e-05
4.13571e-07
8.71304e-05
4.27869e-07
8.71366e-05
4.43505e-07
8.71422e-05
4.60713e-07
8.71474e-05
4.79707e-07
8.71525e-05
5.00677e-07
8.71578e-05
5.23782e-07
8.71636e-05
5.4913e-07
8.71707e-05
5.7676e-07
8.71794e-05
6.06609e-07
8.71907e-05
6.38485e-07
8.72053e-05
6.72022e-07
8.7224e-05
7.06655e-07
8.72477e-05
7.416e-07
8.7277e-05
7.75858e-07
8.73121e-05
8.08263e-07
8.73532e-05
8.37568e-07
8.62625e-07
8.73997e-05
8.94088e-05
3.22462e-08
8.94179e-05
9.27466e-08
8.94309e-05
1.44767e-07
8.9446e-05
1.87491e-07
8.94621e-05
2.22288e-07
8.94785e-05
2.50799e-07
8.94948e-05
2.74291e-07
8.95104e-05
2.93908e-07
8.95254e-05
3.10706e-07
8.95395e-05
3.25553e-07
8.95528e-05
3.39133e-07
8.95651e-05
3.52001e-07
8.95766e-05
3.6462e-07
8.95871e-05
3.77375e-07
8.95969e-05
3.90593e-07
8.96059e-05
4.04554e-07
8.96143e-05
4.19508e-07
8.96221e-05
4.35674e-07
8.96296e-05
4.53247e-07
8.96369e-05
4.72391e-07
8.96443e-05
4.93241e-07
8.96522e-05
5.15887e-07
8.9661e-05
5.40365e-07
8.96711e-05
5.66633e-07
8.96832e-05
5.94555e-07
8.96978e-05
6.23877e-07
8.97156e-05
6.542e-07
8.97373e-05
6.84973e-07
8.97634e-05
7.1549e-07
8.97943e-05
7.44908e-07
8.98303e-05
7.72296e-07
8.98712e-05
7.96706e-07
8.1731e-07
8.99165e-05
9.19628e-05
2.93477e-08
9.19709e-05
8.463e-08
9.19827e-05
1.32896e-07
9.19969e-05
1.73364e-07
9.20122e-05
2.06938e-07
9.20281e-05
2.34908e-07
9.2044e-05
2.58364e-07
9.20597e-05
2.7829e-07
9.20748e-05
2.95607e-07
9.20892e-05
3.11097e-07
9.2103e-05
3.25388e-07
9.2116e-05
3.38998e-07
9.21282e-05
3.52356e-07
9.21398e-05
3.65823e-07
9.21507e-05
3.797e-07
9.2161e-05
3.94243e-07
9.21708e-05
4.09672e-07
9.21803e-05
4.26173e-07
9.21897e-05
4.43902e-07
9.21991e-05
4.62981e-07
9.22088e-05
4.83491e-07
9.22192e-05
5.05467e-07
9.22307e-05
5.28885e-07
9.22437e-05
5.53648e-07
9.22587e-05
5.79572e-07
9.22762e-05
6.0637e-07
9.22968e-05
6.33644e-07
9.23208e-05
6.60882e-07
9.23489e-05
6.87466e-07
9.23811e-05
7.12698e-07
9.24175e-05
7.35843e-07
9.24581e-05
7.56185e-07
7.73128e-07
9.25022e-05
9.45898e-05
2.67436e-08
9.45971e-05
7.72762e-08
9.46081e-05
1.21942e-07
9.46214e-05
1.60061e-07
9.46361e-05
1.92229e-07
9.46515e-05
2.19449e-07
9.46673e-05
2.42646e-07
9.46829e-05
2.62664e-07
9.46982e-05
2.80301e-07
9.4713e-05
2.9625e-07
9.47273e-05
3.11083e-07
9.47411e-05
3.25273e-07
9.47542e-05
3.39214e-07
9.47668e-05
3.53235e-07
9.47789e-05
3.67611e-07
9.47906e-05
3.82569e-07
9.48019e-05
3.983e-07
9.48131e-05
4.14957e-07
9.48244e-05
4.32658e-07
9.48359e-05
4.51484e-07
9.48479e-05
4.71474e-07
9.48608e-05
4.92617e-07
9.48748e-05
5.14846e-07
9.48904e-05
5.38025e-07
9.4908e-05
5.61944e-07
9.49281e-05
5.86308e-07
9.4951e-05
6.10739e-07
9.49771e-05
6.34775e-07
9.50067e-05
6.57889e-07
9.50399e-05
6.79514e-07
9.50767e-05
6.99073e-07
9.51168e-05
7.16027e-07
7.29952e-07
9.516e-05
9.72919e-05
2.43645e-08
9.72987e-05
7.05156e-08
9.73089e-05
1.11723e-07
9.73215e-05
1.4743e-07
9.73357e-05
1.78036e-07
9.73508e-05
2.0432e-07
9.73664e-05
2.27053e-07
9.73821e-05
2.46959e-07
9.73977e-05
2.64721e-07
9.7413e-05
2.80949e-07
9.74279e-05
2.96154e-07
9.74424e-05
3.10761e-07
9.74565e-05
3.25126e-07
9.74702e-05
3.39546e-07
9.74836e-05
3.54264e-07
9.74967e-05
3.69478e-07
9.75096e-05
3.85347e-07
9.75226e-05
4.01994e-07
9.75357e-05
4.19503e-07
9.75493e-05
4.37919e-07
9.75635e-05
4.57246e-07
9.75787e-05
4.77437e-07
9.75952e-05
4.98395e-07
9.76132e-05
5.19962e-07
9.76332e-05
5.41919e-07
9.76556e-05
5.63977e-07
9.76805e-05
5.8579e-07
9.77083e-05
6.06953e-07
9.77392e-05
6.27026e-07
9.77732e-05
6.45549e-07
9.78102e-05
6.62078e-07
9.785e-05
6.76208e-07
6.87638e-07
9.78923e-05
0.000100071
2.21557e-08
0.000100078
6.42082e-08
0.000100087
1.02075e-07
0.000100099
1.35325e-07
0.000100113
1.64237e-07
0.000100128
1.89414e-07
0.000100144
2.11496e-07
0.000100159
2.31095e-07
0.000100175
2.48796e-07
0.000100191
2.65126e-07
0.000100207
2.80534e-07
0.000100222
2.95398e-07
0.000100237
3.10032e-07
0.000100252
3.24696e-07
0.000100267
3.39603e-07
0.000100281
3.54921e-07
0.000100296
3.70779e-07
0.000100311
3.87268e-07
0.000100326
4.04444e-07
0.000100341
4.22321e-07
0.000100358
4.40873e-07
0.000100375
4.60032e-07
0.000100394
4.79679e-07
0.000100414
4.99647e-07
0.000100436
5.19717e-07
0.000100461
5.39622e-07
0.000100487
5.59049e-07
0.000100517
5.77654e-07
0.000100549
5.95072e-07
0.000100583
6.10937e-07
0.00010062
6.24907e-07
0.00010066
6.3668e-07
6.46049e-07
0.000100702
0.00010293
2.00722e-08
0.000102936
5.82359e-08
0.000102945
9.28515e-08
0.000102957
1.23606e-07
0.000102971
1.50704e-07
0.000102985
1.7462e-07
0.000103001
1.95876e-07
0.000103017
2.14988e-07
0.000103033
2.32449e-07
0.00010305
2.4871e-07
0.000103066
2.64157e-07
0.000103083
2.7912e-07
0.000103099
2.9387e-07
0.000103115
3.08631e-07
0.000103131
3.23583e-07
0.000103147
3.38863e-07
0.000103163
3.54572e-07
0.00010318
3.70774e-07
0.000103196
3.87497e-07
0.000103214
4.04733e-07
0.000103233
4.22433e-07
0.000103252
4.40511e-07
0.000103273
4.5884e-07
0.000103295
4.77251e-07
0.000103319
4.95536e-07
0.000103346
5.13452e-07
0.000103374
5.30726e-07
0.000103405
5.47067e-07
0.000103437
5.62177e-07
0.000103473
5.75769e-07
0.00010351
5.87581e-07
0.000103549
5.97392e-07
6.05058e-07
0.00010359
0.000105871
1.80762e-08
0.000105876
5.24965e-08
0.000105885
8.39192e-08
0.000105897
1.12136e-07
0.00010591
1.37313e-07
0.000105925
1.59822e-07
0.000105941
1.80091e-07
0.000105957
1.98545e-07
0.000105974
2.15597e-07
0.000105991
2.31624e-07
0.000106008
2.46953e-07
0.000106026
2.61863e-07
0.000106043
2.76583e-07
0.00010606
2.913e-07
0.000106078
3.06162e-07
0.000106095
3.21275e-07
0.000106113
3.36714e-07
0.000106131
3.52518e-07
0.00010615
3.68692e-07
0.00010617
3.85208e-07
0.00010619
4.02004e-07
0.000106212
4.18982e-07
0.000106235
4.36012e-07
0.000106259
4.52932e-07
0.000106285
4.6955e-07
0.000106313
4.85648e-07
0.000106342
5.00993e-07
0.000106374
5.15342e-07
0.000106408
5.28456e-07
0.000106443
5.4011e-07
0.000106481
5.50108e-07
0.00010652
5.58287e-07
5.64553e-07
0.000106561
0.000108895
1.61344e-08
0.000108901
4.68995e-08
0.00010891
7.51547e-08
0.000108921
1.00785e-07
0.000108934
1.23935e-07
0.000108949
1.44903e-07
0.000108965
1.64031e-07
0.000108982
1.81668e-07
0.000109
1.98151e-07
0.000109018
2.13788e-07
0.000109036
2.28849e-07
0.000109054
2.43562e-07
0.000109072
2.58115e-07
0.000109091
2.72658e-07
0.00010911
2.87305e-07
0.000109129
3.02137e-07
0.000109149
3.172e-07
0.000109169
3.32514e-07
0.000109189
3.48063e-07
0.000109211
3.63806e-07
0.000109233
3.79669e-07
0.000109256
3.95551e-07
0.000109281
4.11324e-07
0.000109307
4.26835e-07
0.000109335
4.41911e-07
0.000109364
4.56363e-07
0.000109395
4.69992e-07
0.000109428
4.82599e-07
0.000109462
4.93995e-07
0.000109498
5.04004e-07
0.000109536
5.12482e-07
0.000109575
5.1931e-07
5.24432e-07
0.000109615
0.000112006
1.42169e-08
0.000112012
4.13618e-08
0.000112021
6.6441e-08
0.000112032
8.94216e-08
0.000112046
1.10441e-07
0.000112061
1.29736e-07
0.000112077
1.47581e-07
0.000112095
1.64252e-07
0.000112113
1.80016e-07
0.000112131
1.95118e-07
0.00011215
2.0977e-07
0.00011217
2.24153e-07
0.00011219
2.38412e-07
0.00011221
2.52661e-07
0.00011223
2.66983e-07
0.000112251
2.81431e-07
0.000112272
2.96031e-07
0.000112293
3.1078e-07
0.000112316
3.25649e-07
0.000112339
3.40585e-07
0.000112363
3.55508e-07
0.000112389
3.70318e-07
0.000112415
3.8489e-07
0.000112443
3.99087e-07
0.000112472
4.12752e-07
0.000112502
4.25725e-07
0.000112535
4.37839e-07
0.000112568
4.48933e-07
0.000112603
4.58857e-07
0.00011264
4.67478e-07
0.000112678
4.74689e-07
0.000112717
4.80408e-07
4.84604e-07
0.000112756
0.000115206
1.22954e-08
0.000115212
3.58042e-08
0.000115221
5.7664e-08
0.000115232
7.79156e-08
0.000115246
9.66946e-08
0.000115262
1.14192e-07
0.000115278
1.30617e-07
0.000115297
1.46183e-07
0.000115315
1.6109e-07
0.000115335
1.75521e-07
0.000115355
1.89636e-07
0.000115376
2.03567e-07
0.000115397
2.17417e-07
0.000115418
2.31266e-07
0.00011544
2.45167e-07
0.000115462
2.59147e-07
0.000115485
2.73211e-07
0.000115509
2.87339e-07
0.000115533
3.01491e-07
0.000115558
3.15605e-07
0.000115584
3.29599e-07
0.000115611
3.43374e-07
0.000115639
3.56816e-07
0.000115668
3.69798e-07
0.000115698
3.82185e-07
0.00011573
3.9384e-07
0.000115764
4.04627e-07
0.000115798
4.14415e-07
0.000115834
4.23088e-07
0.000115871
4.30545e-07
0.000115909
4.36711e-07
0.000115948
4.41528e-07
4.44985e-07
0.000115987
0.000118498
1.0342e-08
0.000118503
3.0148e-08
0.000118512
4.87084e-08
0.000118524
6.61316e-08
0.000118538
8.25554e-08
0.000118554
9.81299e-08
0.000118572
1.13008e-07
0.000118591
1.27339e-07
0.000118611
1.41262e-07
0.000118631
1.54902e-07
0.000118653
1.68365e-07
0.000118674
1.81734e-07
0.000118697
1.95075e-07
0.00011872
2.08432e-07
0.000118743
2.2183e-07
0.000118767
2.35273e-07
0.000118791
2.48745e-07
0.000118816
2.62214e-07
0.000118842
2.75629e-07
0.000118869
2.88923e-07
0.000118897
3.02013e-07
0.000118925
3.14804e-07
0.000118955
3.27192e-07
0.000118985
3.39064e-07
0.000119017
3.50304e-07
0.00011905
3.60796e-07
0.000119085
3.70428e-07
0.00011912
3.79099e-07
0.000119156
3.86717e-07
0.000119194
3.93209e-07
0.000119232
3.98521e-07
0.000119271
4.02617e-07
4.05498e-07
0.00011931
0.000121883
8.32784e-09
0.000121889
2.43114e-08
0.000121898
3.94527e-08
0.000121911
5.39255e-08
0.000121925
6.78705e-08
0.000121942
8.13991e-08
0.00012196
9.46085e-08
0.00012198
1.07588e-07
0.000122001
1.20415e-07
0.000122023
1.33157e-07
0.000122045
1.45865e-07
0.000122068
1.5858e-07
0.000122092
1.71327e-07
0.000122116
1.84117e-07
0.000122141
1.96947e-07
0.000122167
2.09799e-07
0.000122193
2.22641e-07
0.00012222
2.35428e-07
0.000122247
2.48101e-07
0.000122276
2.60589e-07
0.000122305
2.72812e-07
0.000122335
2.8468e-07
0.000122366
2.96098e-07
0.000122398
3.06966e-07
0.000122431
3.17185e-07
0.000122465
3.2666e-07
0.000122501
3.35299e-07
0.000122537
3.43023e-07
0.000122574
3.49762e-07
0.000122611
3.55464e-07
0.00012265
3.60091e-07
0.000122689
3.63623e-07
3.66069e-07
0.000122728
0.000125366
6.22141e-09
0.000125372
1.82046e-08
0.000125381
2.97634e-08
0.000125394
4.1138e-08
0.00012541
5.24709e-08
0.000125427
6.38322e-08
0.000125446
7.52606e-08
0.000125467
8.67832e-08
0.000125489
9.84171e-08
0.000125512
1.1017e-07
0.000125536
1.22042e-07
0.000125561
1.34027e-07
0.000125586
1.46111e-07
0.000125612
1.58275e-07
0.000125638
1.70488e-07
0.000125665
1.82712e-07
0.000125693
1.94901e-07
0.000125721
2.06998e-07
0.000125751
2.18938e-07
0.000125781
2.30649e-07
0.000125811
2.42052e-07
0.000125843
2.53064e-07
0.000125875
2.63598e-07
0.000125909
2.73568e-07
0.000125943
2.82891e-07
0.000125978
2.91485e-07
0.000126014
2.99279e-07
0.000126051
3.06211e-07
0.000126089
3.12229e-07
0.000126127
3.17295e-07
0.000126165
3.21386e-07
0.000126205
3.24492e-07
3.26628e-07
0.000126244
0.000128947
3.9862e-09
0.000128954
1.17236e-08
0.000128964
1.94865e-08
0.000128978
2.75867e-08
0.000128994
3.61648e-08
0.000129013
4.524e-08
0.000129033
5.47857e-08
0.000129055
6.4763e-08
0.000129078
7.51248e-08
0.000129103
8.58185e-08
0.000129128
9.67903e-08
0.000129154
1.07988e-07
0.000129181
1.19361e-07
0.000129208
1.30857e-07
0.000129236
1.42422e-07
0.000129265
1.53999e-07
0.000129294
1.65527e-07
0.000129324
1.7694e-07
0.000129355
1.88169e-07
0.000129387
1.99141e-07
0.000129419
2.09779e-07
0.000129452
2.20006e-07
0.000129486
2.29746e-07
0.00012952
2.38923e-07
0.000129556
2.47465e-07
0.000129592
2.55308e-07
0.000129629
2.62394e-07
0.000129666
2.68674e-07
0.000129705
2.74112e-07
0.000129743
2.78681e-07
0.000129782
2.82368e-07
0.000129822
2.85171e-07
2.87108e-07
0.000129861
0.000132631
1.57764e-09
0.000132638
4.7416e-09
0.00013265
8.43544e-09
0.000132664
1.30543e-08
0.000132681
1.87269e-08
0.000132701
2.54039e-08
0.000132723
3.29802e-08
0.000132747
4.13432e-08
0.000132771
5.03767e-08
0.000132797
5.99636e-08
0.000132824
6.99942e-08
0.000132852
8.03701e-08
0.00013288
9.10027e-08
0.000132909
1.0181e-07
0.000132939
1.12714e-07
0.000132969
1.23639e-07
0.000133
1.34513e-07
0.000133032
1.45263e-07
0.000133064
1.55813e-07
0.000133097
1.66093e-07
0.000133131
1.76028e-07
0.000133165
1.85547e-07
0.0001332
1.94582e-07
0.000133236
2.03067e-07
0.000133273
2.10942e-07
0.00013331
2.18153e-07
0.000133348
2.24656e-07
0.000133386
2.30413e-07
0.000133425
2.35398e-07
0.000133464
2.39593e-07
0.000133503
2.42994e-07
0.000133543
2.45602e-07
2.47438e-07
0.000133582
0.000136421
-1.06193e-09
0.000136429
-2.90562e-09
0.000136441
-3.62656e-09
0.000136456
-2.72798e-09
0.000136475
-1.13787e-10
0.000136497
4.06591e-09
0.00013652
9.60688e-09
0.000136545
1.63131e-08
0.000136571
2.39908e-08
0.000136599
3.24518e-08
0.000136627
4.15269e-08
0.000136657
5.10705e-08
0.000136687
6.09565e-08
0.000136717
7.10733e-08
0.000136749
8.13209e-08
0.000136781
9.16079e-08
0.000136814
1.0185e-07
0.000136847
1.11967e-07
0.000136881
1.21883e-07
0.000136915
1.31525e-07
0.000136951
1.40824e-07
0.000136986
1.49713e-07
0.000137023
1.58132e-07
0.00013706
1.66023e-07
0.000137097
1.73337e-07
0.000137136
1.80029e-07
0.000137174
1.86064e-07
0.000137213
1.91414e-07
0.000137253
1.96062e-07
0.000137292
1.99995e-07
0.000137332
2.03215e-07
0.000137372
2.05726e-07
2.07553e-07
0.000137412
0.000140319
-4.01136e-09
0.000140327
-1.14417e-08
0.000140341
-1.70143e-08
0.000140358
-2.01041e-08
0.000140379
-2.06919e-08
0.000140402
-1.90846e-08
0.000140427
-1.56136e-08
0.000140454
-1.05716e-08
0.000140482
-4.24153e-09
0.000140511
3.10822e-09
0.000140542
1.12448e-08
0.000140573
1.99744e-08
0.000140605
2.91334e-08
0.000140637
3.85815e-08
0.00014067
4.81976e-08
0.000140704
5.78757e-08
0.000140738
6.75215e-08
0.000140773
7.70498e-08
0.000140809
8.63828e-08
0.000140845
9.54487e-08
0.000140881
1.04181e-07
0.000140919
1.1252e-07
0.000140956
1.2041e-07
0.000140995
1.27803e-07
0.000141033
1.34655e-07
0.000141072
1.40933e-07
0.000141112
1.46606e-07
0.000141152
1.51656e-07
0.000141192
1.56069e-07
0.000141232
1.59841e-07
0.000141272
1.62973e-07
0.000141312
1.65474e-07
1.67366e-07
0.000141352
0.000144328
-7.38492e-09
0.000144338
-2.11885e-08
0.000144353
-3.21636e-08
0.000144372
-3.95268e-08
0.000144395
-4.34308e-08
0.00014442
-4.44292e-08
0.000144448
-4.3014e-08
0.000144477
-3.95909e-08
0.000144507
-3.45515e-08
0.000144538
-2.82571e-08
0.000144571
-2.10078e-08
0.000144604
-1.30451e-08
0.000144637
-4.56898e-09
0.000144672
4.2531e-09
0.000144707
1.32806e-08
0.000144742
2.23947e-08
0.000144778
3.14933e-08
0.000144815
4.04872e-08
0.000144852
4.92974e-08
0.000144889
5.7854e-08
0.000144928
6.60944e-08
0.000144966
7.3963e-08
0.000145005
8.14109e-08
0.000145044
8.83959e-08
0.000145084
9.48824e-08
0.000145124
1.00842e-07
0.000145165
1.06252e-07
0.000145205
1.11098e-07
0.000145246
1.15373e-07
0.000145287
1.19074e-07
0.000145327
1.22206e-07
0.000145368
1.24781e-07
1.26818e-07
0.000145409
0.000148452
-1.13583e-08
0.000148463
-3.2639e-08
0.000148481
-4.97023e-08
0.000148503
-6.15971e-08
0.000148528
-6.88682e-08
0.000148556
-7.24513e-08
0.000148586
-7.30161e-08
0.000148618
-7.10963e-08
0.000148651
-6.72225e-08
0.000148684
-6.18675e-08
0.000148719
-5.54026e-08
0.000148754
-4.81171e-08
0.000148789
-4.0246e-08
0.000148826
-3.19816e-08
0.000148862
-2.34807e-08
0.0001489
-1.48718e-08
0.000148937
-6.26217e-09
0.000148976
2.25698e-09
0.000149014
1.06076e-08
0.000149053
1.87221e-08
0.000149093
2.65423e-08
0.000149133
3.40175e-08
0.000149173
4.11045e-08
0.000149214
4.77672e-08
0.000149255
5.39756e-08
0.000149296
5.97067e-08
0.000149337
6.49434e-08
0.000149379
6.96749e-08
0.00014942
7.38963e-08
0.000149462
7.7608e-08
0.000149503
8.08154e-08
0.000149544
8.35274e-08
8.57631e-08
0.000149585
0.000152694
-1.62133e-08
0.000152708
-4.65926e-08
0.000152729
-7.05901e-08
0.000152754
-8.71415e-08
0.000152783
-9.7667e-08
0.000152814
-1.03693e-07
0.000152847
-1.06065e-07
0.000152882
-1.05461e-07
0.000152917
-1.02581e-07
0.000152953
-9.80166e-08
0.00015299
-9.22046e-08
0.000153027
-8.54793e-08
0.000153065
-7.81095e-08
0.000153104
-7.03101e-08
0.000153142
-6.22511e-08
0.000153182
-5.40678e-08
0.000153221
-4.58707e-08
0.000153261
-3.77507e-08
0.000153302
-2.97837e-08
0.000153342
-2.20333e-08
0.000153384
-1.4553e-08
0.000153425
-7.38794e-09
0.000153467
-5.75757e-10
0.000153509
5.85276e-09
0.000153551
1.18731e-08
0.000153593
1.74668e-08
0.000153635
2.26209e-08
0.000153678
2.7328e-08
0.00015372
3.15859e-08
0.000153762
3.53972e-08
0.000153804
3.87691e-08
0.000153846
4.17137e-08
4.42483e-08
0.000153887
0.000157058
-2.24701e-08
0.000157075
-6.43519e-08
0.000157101
-9.6252e-08
0.000157131
-1.17414e-07
0.000157165
-1.30951e-07
0.0001572
-1.39091e-07
0.000157237
-1.42847e-07
0.000157275
-1.4315e-07
0.000157313
-1.40943e-07
0.000157352
-1.3693e-07
0.000157391
-1.31592e-07
0.000157431
-1.25293e-07
0.000157471
-1.18321e-07
0.000157512
-1.10903e-07
0.000157553
-1.03211e-07
0.000157594
-9.53825e-08
0.000157636
-8.75246e-08
0.000157678
-7.97254e-08
0.00015772
-7.20568e-08
0.000157763
-6.45777e-08
0.000157805
-5.7337e-08
0.000157848
-5.03749e-08
0.000157891
-4.37244e-08
0.000157935
-3.74121e-08
0.000157978
-3.14586e-08
0.000158021
-2.58793e-08
0.000158065
-2.06845e-08
0.000158108
-1.58802e-08
0.000158151
-1.14685e-08
0.000158194
-7.44774e-09
0.000158236
-3.81397e-09
0.000158279
-5.61812e-10
2.32224e-09
0.000158321
0.000161547
-3.1351e-08
0.000161572
-8.85706e-08
0.000161604
-1.28382e-07
0.00016164
-1.53369e-07
0.000161678
-1.69777e-07
0.000161719
-1.7995e-07
0.000161761
-1.84808e-07
0.000161804
-1.85673e-07
0.000161847
-1.83801e-07
0.00016189
-1.8001e-07
0.000161933
-1.74824e-07
0.000161976
-1.68642e-07
0.00016202
-1.61776e-07
0.000162063
-1.54459e-07
0.000162107
-1.46863e-07
0.000162151
-1.39122e-07
0.000162195
-1.31339e-07
0.000162238
-1.23598e-07
0.000162282
-1.15966e-07
0.000162326
-1.08498e-07
0.00016237
-1.01236e-07
0.000162414
-9.42193e-08
0.000162458
-8.74756e-08
0.000162501
-8.10288e-08
0.000162545
-7.48971e-08
0.000162588
-6.90937e-08
0.000162631
-6.36275e-08
0.000162674
-5.8503e-08
0.000162716
-5.37208e-08
0.000162758
-4.92776e-08
0.000162799
-4.5166e-08
0.00016284
-4.13739e-08
-3.78908e-08
0.00016288
0.000166166
-4.41065e-08
0.000166205
-1.26808e-07
0.000166249
-1.73068e-07
0.000166295
-1.99456e-07
0.000166343
-2.1745e-07
0.000166392
-2.2863e-07
0.000166441
-2.33761e-07
0.00016649
-2.34599e-07
0.000166538
-2.3256e-07
0.000166587
-2.28439e-07
0.000166635
-2.22765e-07
0.000166682
-2.15978e-07
0.000166729
-2.08426e-07
0.000166775
-2.00367e-07
0.00016682
-1.91995e-07
0.000166864
-1.83462e-07
0.000166908
-1.74886e-07
0.00016695
-1.66359e-07
0.000166992
-1.57956e-07
0.000167034
-1.49734e-07
0.000167074
-1.41738e-07
0.000167114
-1.34003e-07
0.000167153
-1.26559e-07
0.000167191
-1.19424e-07
0.000167229
-1.12614e-07
0.000167266
-1.0614e-07
0.000167303
-1.00007e-07
0.000167338
-9.42171e-08
0.000167373
-8.87705e-08
0.000167408
-8.36652e-08