/*--------------------------------*- C++ -*----------------------------------*\
| =========                 |                                                 |
| \\      /  F ield         | OpenFOAM: The Open Source CFD Toolbox           |
|  \\    /   O peration     | Version:  4.1                                   |
|   \\  /    A nd           | Web:      www.OpenFOAM.org                      |
|    \\/     M anipulation  |                                                 |
\*---------------------------------------------------------------------------*/
FoamFile
{
    version     2.0;
    format      ascii;
    class       volVectorField;
    location    "1300";
    object      U;
}
// * * * * * * * * * * * * * * * * * * * * * * * * * * * * * * * * * * * * * //

dimensions      [0 1 -1 0 0 0 0];

internalField   nonuniform List<vector> 
6820
(
(7.30076 0.0105784 0)
(7.26066 0.0145399 0)
(7.22719 0.0116116 0)
(7.19817 0.00889176 0)
(7.17426 0.0072967 0)
(7.15367 0.00634275 0)
(7.13496 0.00573845 0)
(7.11768 0.00533706 0)
(7.10162 0.00504579 0)
(7.08659 0.00481622 0)
(7.07241 0.00462906 0)
(7.05895 0.00447634 0)
(7.04611 0.00435347 0)
(7.0338 0.00425748 0)
(7.02193 0.00418668 0)
(7.01042 0.00414051 0)
(6.99921 0.00411941 0)
(6.98821 0.00412494 0)
(6.97735 0.00416002 0)
(6.96654 0.0042293 0)
(6.9557 0.00433984 0)
(6.94472 0.00450228 0)
(6.93345 0.00473284 0)
(6.92172 0.00505705 0)
(6.90928 0.00551674 0)
(6.89577 0.00618524 0)
(6.88066 0.00719855 0)
(6.86282 0.00883048 0)
(6.84107 0.0117061 0)
(6.80906 0.0171961 0)
(6.77012 0.0286578 0)
(6.65292 0.0702467 0)
(6.63985 -0.0294835 0)
(7.3396 0.012948 0)
(7.34154 0.0168193 0)
(7.32732 0.0138363 0)
(7.30715 0.0119873 0)
(7.28756 0.0109488 0)
(7.26941 0.0100964 0)
(7.25237 0.00941848 0)
(7.23638 0.00890368 0)
(7.22139 0.00849468 0)
(7.20725 0.00815866 0)
(7.19383 0.00788322 0)
(7.18104 0.00766037 0)
(7.16879 0.00748366 0)
(7.15702 0.00734898 0)
(7.14566 0.00725439 0)
(7.13465 0.00719964 0)
(7.12392 0.0071861 0)
(7.11341 0.00721698 0)
(7.10308 0.0072977 0)
(7.09284 0.00743658 0)
(7.08264 0.00764595 0)
(7.07238 0.0079441 0)
(7.06199 0.00835856 0)
(7.05133 0.00893186 0)
(7.04028 0.00973308 0)
(7.02863 0.0108776 0)
(7.01617 0.0125826 0)
(7.00245 0.015228 0)
(6.98757 0.0197913 0)
(6.96982 0.0276062 0)
(6.95496 0.0454633 0)
(6.93761 0.076895 0)
(6.97923 0.170821 0)
(7.33613 0.0108741 0)
(7.34462 0.0173199 0)
(7.34579 0.0178696 0)
(7.34012 0.0178781 0)
(7.33147 0.0174236 0)
(7.3215 0.0166042 0)
(7.31078 0.015793 0)
(7.29981 0.0151132 0)
(7.2889 0.0145455 0)
(7.27816 0.0140684 0)
(7.26765 0.0136723 0)
(7.25736 0.0133489 0)
(7.2473 0.0130913 0)
(7.23745 0.0128959 0)
(7.2278 0.0127616 0)
(7.2183 0.0126894 0)
(7.20894 0.0126826 0)
(7.19967 0.0127472 0)
(7.19045 0.0128922 0)
(7.18122 0.0131312 0)
(7.17194 0.0134836 0)
(7.16253 0.0139775 0)
(7.15291 0.0146541 0)
(7.14296 0.015575 0)
(7.13256 0.0168362 0)
(7.12154 0.0185888 0)
(7.10969 0.0210974 0)
(7.0967 0.0247752 0)
(7.08257 0.0305523 0)
(7.06667 0.039494 0)
(7.05206 0.0556644 0)
(7.03853 0.0799796 0)
(7.05086 0.126603 0)
(7.33465 0.00788233 0)
(7.34191 0.0151074 0)
(7.34712 0.0174406 0)
(7.34828 0.0186843 0)
(7.34686 0.0192153 0)
(7.3437 0.0191488 0)
(7.3391 0.0188429 0)
(7.33348 0.0184848 0)
(7.32722 0.0181225 0)
(7.32055 0.01778 0)
(7.31362 0.0174767 0)
(7.30651 0.0172228 0)
(7.29929 0.0170231 0)
(7.292 0.0168817 0)
(7.28466 0.0168034 0)
(7.27728 0.016794 0)
(7.26984 0.0168614 0)
(7.26234 0.0170158 0)
(7.25475 0.0172716 0)
(7.24704 0.017648 0)
(7.23918 0.0181718 0)
(7.23111 0.0188804 0)
(7.22276 0.019827 0)
(7.21406 0.021089 0)
(7.20491 0.0227824 0)
(7.19518 0.0250818 0)
(7.18476 0.0282703 0)
(7.1735 0.0327631 0)
(7.16152 0.039341 0)
(7.14886 0.048823 0)
(7.13744 0.0634395 0)
(7.12823 0.0825433 0)
(7.13113 0.111089 0)
(7.334 0.00602359 0)
(7.33938 0.0130427 0)
(7.3447 0.0160234 0)
(7.34792 0.0178454 0)
(7.34963 0.0190481 0)
(7.35018 0.0196459 0)
(7.34954 0.0198906 0)
(7.34784 0.0199705 0)
(7.34532 0.0199582 0)
(7.34217 0.0198966 0)
(7.33851 0.0198224 0)
(7.33444 0.0197603 0)
(7.33003 0.0197271 0)
(7.32535 0.0197359 0)
(7.32042 0.0197988 0)
(7.31529 0.0199279 0)
(7.30995 0.0201366 0)
(7.30441 0.0204406 0)
(7.29867 0.0208597 0)
(7.29272 0.0214191 0)
(7.28652 0.0221524 0)
(7.28005 0.0231049 0)
(7.27326 0.0243391 0)
(7.2661 0.0259427 0)
(7.25851 0.0280418 0)
(7.25044 0.030817 0)
(7.24185 0.0345394 0)
(7.23273 0.0395811 0)
(7.22332 0.0465333 0)
(7.21396 0.0559674 0)
(7.20603 0.0689995 0)
(7.20081 0.0849751 0)
(7.20244 0.105322 0)
(7.33365 0.00478002 0)
(7.33758 0.0112543 0)
(7.34215 0.0145221 0)
(7.34564 0.0166279 0)
(7.34826 0.018173 0)
(7.35025 0.0191689 0)
(7.35148 0.0197985 0)
(7.35195 0.0202318 0)
(7.35176 0.0205413 0)
(7.35098 0.0207688 0)
(7.34969 0.0209525 0)
(7.34794 0.0211224 0)
(7.34578 0.0213007 0)
(7.34327 0.021506 0)
(7.34042 0.0217556 0)
(7.33728 0.0220664 0)
(7.33386 0.0224565 0)
(7.33015 0.0229464 0)
(7.32618 0.0235604 0)
(7.32192 0.0243291 0)
(7.31738 0.0252911 0)
(7.31252 0.0264973 0)
(7.30734 0.0280156 0)
(7.30179 0.0299379 0)
(7.29587 0.0323902 0)
(7.28956 0.0355441 0)
(7.28291 0.0396374 0)
(7.27599 0.0449731 0)
(7.26911 0.0519624 0)
(7.2627 0.0609569 0)
(7.25779 0.0724297 0)
(7.25545 0.0858138 0)
(7.25756 0.10098 0)
(7.33343 0.00388676 0)
(7.33634 0.00974919 0)
(7.34013 0.0131377 0)
(7.34337 0.0153882 0)
(7.34606 0.0170937 0)
(7.34839 0.0183085 0)
(7.35029 0.0191739 0)
(7.35169 0.0198411 0)
(7.35263 0.0203818 0)
(7.35314 0.0208351 0)
(7.35324 0.0212361 0)
(7.35295 0.0216146 0)
(7.3523 0.0219938 0)
(7.35131 0.022394 0)
(7.34999 0.0228345 0)
(7.34836 0.0233349 0)
(7.34644 0.0239161 0)
(7.34422 0.0246016 0)
(7.3417 0.0254189 0)
(7.33889 0.0264018 0)
(7.33579 0.0275922 0)
(7.33238 0.0290435 0)
(7.32865 0.0308251 0)
(7.32461 0.0330268 0)
(7.32025 0.0357667 0)
(7.31562 0.0391965 0)
(7.3108 0.0435104 0)
(7.30593 0.0489355 0)
(7.3013 0.0557337 0)
(7.29736 0.0640858 0)
(7.29484 0.0741128 0)
(7.29454 0.0853204 0)
(7.29732 0.09714 0)
(7.3333 0.00323161 0)
(7.33547 0.00850292 0)
(7.33859 0.011895 0)
(7.3415 0.0142192 0)
(7.34402 0.0160063 0)
(7.3463 0.0173494 0)
(7.34832 0.0183618 0)
(7.35001 0.0191771 0)
(7.35138 0.0198695 0)
(7.35246 0.0204786 0)
(7.35324 0.0210383 0)
(7.35372 0.0215771 0)
(7.35392 0.0221184 0)
(7.35384 0.0226826 0)
(7.35349 0.0232898 0)
(7.35286 0.0239604 0)
(7.35196 0.0247166 0)
(7.3508 0.0255834 0)
(7.34936 0.0265899 0)
(7.34765 0.0277711 0)
(7.34567 0.0291697 0)
(7.34342 0.0308392 0)
(7.3409 0.0328461 0)
(7.33812 0.035274 0)
(7.33512 0.0382269 0)
(7.33195 0.0418311 0)
(7.32872 0.0462349 0)
(7.32559 0.0515948 0)
(7.32284 0.0580595 0)
(7.32086 0.0656909 0)
(7.32015 0.0744361 0)
(7.32127 0.0838754 0)
(7.32463 0.0934225 0)
(7.33321 0.0027427 0)
(7.33487 0.00747204 0)
(7.33744 0.0107866 0)
(7.34 0.0131404 0)
(7.34231 0.0149718 0)
(7.34445 0.0163966 0)
(7.3464 0.0175089 0)
(7.34812 0.0184252 0)
(7.3496 0.0192205 0)
(7.35087 0.0199372 0)
(7.35192 0.0206089 0)
(7.35275 0.0212644 0)
(7.35337 0.0219275 0)
(7.35376 0.022619 0)
(7.35394 0.0233593 0)
(7.3539 0.0241693 0)
(7.35363 0.0250718 0)
(7.35314 0.0260921 0)
(7.35243 0.0272595 0)
(7.35148 0.0286089 0)
(7.35031 0.0301821 0)
(7.34892 0.0320297 0)
(7.34732 0.0342129 0)
(7.34554 0.0368054 0)
(7.34362 0.0398942 0)
(7.34163 0.0435782 0)
(7.33969 0.047963 0)
(7.33796 0.0531462 0)
(7.33669 0.059196 0)
(7.33617 0.0660994 0)
(7.33678 0.0737292 0)
(7.33887 0.0817362 0)
(7.34261 0.0896307 0)
(7.33315 0.00236911 0)
(7.33444 0.00661521 0)
(7.33656 0.0098004 0)
(7.33882 0.012149 0)
(7.34092 0.0140008 0)
(7.3429 0.0154788 0)
(7.34474 0.0166643 0)
(7.3464 0.0176567 0)
(7.34787 0.0185293 0)
(7.34917 0.0193261 0)
(7.35031 0.0200814 0)
(7.35127 0.0208244 0)
(7.35206 0.0215796 0)
(7.35269 0.0223688 0)
(7.35313 0.0232128 0)
(7.3534 0.0241328 0)
(7.3535 0.0251518 0)
(7.35341 0.026295 0)
(7.35314 0.0275912 0)
(7.3527 0.029074 0)
(7.35208 0.0307826 0)
(7.3513 0.0327633 0)
(7.35037 0.0350699 0)
(7.34934 0.0377645 0)
(7.34824 0.040916 0)
(7.34717 0.0445973 0)
(7.34622 0.0488774 0)
(7.34556 0.0538078 0)
(7.34538 0.0594034 0)
(7.34592 0.0656087 0)
(7.34742 0.0722741 0)
(7.35012 0.079114 0)
(7.35408 0.0857487 0)
(7.33312 0.00207629 0)
(7.33413 0.00589812 0)
(7.3359 0.00892361 0)
(7.33788 0.0112379 0)
(7.33979 0.0130909 0)
(7.34161 0.0146013 0)
(7.34333 0.0158411 0)
(7.34492 0.0168942 0)
(7.34635 0.0178292 0)
(7.34764 0.0186909 0)
(7.34878 0.0195136 0)
(7.34979 0.0203268 0)
(7.35065 0.0211556 0)
(7.35138 0.0220225 0)
(7.35196 0.0229487 0)
(7.3524 0.0239558 0)
(7.3527 0.0250666 0)
(7.35285 0.0263058 0)
(7.35287 0.0277011 0)
(7.35275 0.029284 0)
(7.3525 0.0310901 0)
(7.35215 0.0331603 0)
(7.35171 0.0355402 0)
(7.35123 0.0382796 0)
(7.35075 0.0414302 0)
(7.35037 0.0450417 0)
(7.35017 0.0491537 0)
(7.35029 0.0537843 0)
(7.35089 0.0589151 0)
(7.35214 0.0644705 0)
(7.35422 0.0703036 0)
(7.35726 0.0761845 0)
(7.36128 0.0818275 0)
(7.33309 0.00184099 0)
(7.33391 0.00529258 0)
(7.33539 0.00814326 0)
(7.33713 0.0103997 0)
(7.33886 0.0122374 0)
(7.34054 0.013763 0)
(7.34216 0.0150411 0)
(7.34366 0.0161424 0)
(7.34505 0.0171291 0)
(7.34631 0.0180455 0)
(7.34745 0.0189253 0)
(7.34847 0.0197978 0)
(7.34937 0.0206884 0)
(7.35015 0.0216198 0)
(7.35081 0.0226134 0)
(7.35135 0.0236908 0)
(7.35178 0.0248742 0)
(7.35209 0.0261876 0)
(7.3523 0.0276569 0)
(7.35241 0.0293109 0)
(7.35244 0.0311812 0)
(7.3524 0.0333026 0)
(7.35233 0.0357122 0)
(7.35226 0.0384479 0)
(7.35225 0.0415463 0)
(7.35238 0.0450374 0)
(7.35273 0.0489387 0)
(7.35341 0.0532455 0)
(7.35456 0.0579204 0)
(7.35628 0.0628818 0)
(7.35871 0.067997 0)
(7.36191 0.0730824 0)
(7.36587 0.0779257 0)
(7.33307 0.00164737 0)
(7.33374 0.00477569 0)
(7.33499 0.00744672 0)
(7.33652 0.00962723 0)
(7.3381 0.011435 0)
(7.33966 0.0129611 0)
(7.34117 0.0142631 0)
(7.34261 0.0154008 0)
(7.34395 0.0164297 0)
(7.34518 0.017392 0)
(7.34631 0.0183207 0)
(7.34734 0.0192442 0)
(7.34826 0.0201876 0)
(7.34908 0.0211736 0)
(7.3498 0.0222233 0)
(7.35042 0.0233579 0)
(7.35095 0.0245988 0)
(7.35139 0.0259685 0)
(7.35175 0.027491 0)
(7.35205 0.0291917 0)
(7.35229 0.031098 0)
(7.3525 0.0332383 0)
(7.35272 0.0356416 0)
(7.35298 0.0383352 0)
(7.35334 0.0413424 0)
(7.35386 0.0446781 0)
(7.35462 0.0483436 0)
(7.35571 0.0523199 0)
(7.35722 0.0565605 0)
(7.35925 0.0609858 0)
(7.36187 0.0654812 0)
(7.36511 0.0699015 0)
(7.36896 0.0740886 0)
(7.33306 0.00148449 0)
(7.33362 0.00432909 0)
(7.33469 0.00682206 0)
(7.33604 0.00891339 0)
(7.33747 0.0106787 0)
(7.33892 0.0121923 0)
(7.34034 0.0135051 0)
(7.34172 0.0146679 0)
(7.34301 0.0157294 0)
(7.34422 0.0167292 0)
(7.34535 0.0176987 0)
(7.34639 0.0186653 0)
(7.34734 0.0196535 0)
(7.3482 0.0206852 0)
(7.34897 0.0217812 0)
(7.34967 0.0229617 0)
(7.35029 0.0242468 0)
(7.35084 0.0256574 0)
(7.35134 0.0272149 0)
(7.35179 0.0289415 0)
(7.35222 0.0308599 0)
(7.35265 0.0329926 0)
(7.35311 0.0353608 0)
(7.35364 0.0379828 0)
(7.35429 0.0408711 0)
(7.35512 0.0440292 0)
(7.3562 0.0474476 0)
(7.35758 0.0510988 0)
(7.35935 0.054934 0)
(7.36157 0.0588799 0)
(7.36427 0.0628399 0)
(7.36749 0.0666998 0)
(7.37119 0.0703416 0)
(7.33305 0.00134463 0)
(7.33353 0.00393816 0)
(7.33445 0.00625828 0)
(7.33565 0.00825124 0)
(7.33696 0.00996329 0)
(7.3383 0.0114529 0)
(7.33965 0.0127646 0)
(7.34096 0.0139415 0)
(7.34223 0.015026 0)
(7.34342 0.0160544 0)
(7.34454 0.0170565 0)
(7.34559 0.0180584 0)
(7.34657 0.0190831 0)
(7.34747 0.0201519 0)
(7.34831 0.0212846 0)
(7.34908 0.0225001 0)
(7.34979 0.0238172 0)
(7.35045 0.0252545 0)
(7.35107 0.0268309 0)
(7.35168 0.0285651 0)
(7.35228 0.0304751 0)
(7.3529 0.0325782 0)
(7.35357 0.0348887 0)
(7.35434 0.0374172 0)
(7.35523 0.040168 0)
(7.35631 0.0431365 0)
(7.35763 0.0463061 0)
(7.35923 0.0496457 0)
(7.36118 0.0531077 0)
(7.36351 0.0566272 0)
(7.36625 0.0601242 0)
(7.3694 0.0635088 0)
(7.37293 0.0666927 0)
(7.33304 0.00122224 0)
(7.33345 0.00359126 0)
(7.33426 0.00574537 0)
(7.33534 0.00763391 0)
(7.33654 0.00928351 0)
(7.33779 0.0107391 0)
(7.33907 0.0120387 0)
(7.34034 0.013219 0)
(7.34156 0.0143169 0)
(7.34275 0.0153651 0)
(7.34387 0.0163914 0)
(7.34494 0.01742 0)
(7.34595 0.0184728 0)
(7.3469 0.0195698 0)
(7.34779 0.0207294 0)
(7.34863 0.0219693 0)
(7.34944 0.0233064 0)
(7.3502 0.0247572 0)
(7.35095 0.0263376 0)
(7.35169 0.028063 0)
(7.35245 0.0299474 0)
(7.35325 0.0320027 0)
(7.35412 0.0342378 0)
(7.35508 0.0366572 0)
(7.35619 0.039259 0)
(7.35747 0.0420329 0)
(7.35898 0.0449589 0)
(7.36075 0.0480049 0)
(7.36281 0.0511267 0)
(7.36521 0.0542681 0)
(7.36794 0.0573636 0)
(7.37101 0.0603427 0)
(7.37439 0.0631388 0)
(7.33304 0.00111321 0)
(7.3334 0.00327905 0)
(7.33411 0.00527435 0)
(7.33508 0.00705465 0)
(7.33619 0.0086341 0)
(7.33737 0.0100466 0)
(7.33859 0.011324 0)
(7.33981 0.0124976 0)
(7.34101 0.0135994 0)
(7.34219 0.0146584 0)
(7.34332 0.0157001 0)
(7.34441 0.0167468 0)
(7.34545 0.0178189 0)
(7.34644 0.0189349 0)
(7.3474 0.0201117 0)
(7.34832 0.0213654 0)
(7.34921 0.0227109 0)
(7.35008 0.0241625 0)
(7.35095 0.0257334 0)
(7.35183 0.0274355 0)
(7.35273 0.0292792 0)
(7.35369 0.0312721 0)
(7.35473 0.0334185 0)
(7.35587 0.035718 0)
(7.35715 0.0381645 0)
(7.3586 0.0407444 0)
(7.36026 0.043436 0)
(7.36215 0.0462084 0)
(7.3643 0.0490217 0)
(7.36673 0.0518282 0)
(7.36944 0.0545746 0)
(7.37242 0.0572056 0)
(7.37566 0.0596708 0)
(7.33304 0.00101442 0)
(7.33335 0.00299399 0)
(7.334 0.00483724 0)
(7.33488 0.00650691 0)
(7.33591 0.00800973 0)
(7.33703 0.00937088 0)
(7.33819 0.0106169 0)
(7.33938 0.0117744 0)
(7.34056 0.0128706 0)
(7.34173 0.0139314 0)
(7.34287 0.0149796 0)
(7.34398 0.0160356 0)
(7.34506 0.017118 0)
(7.34611 0.0182437 0)
(7.34712 0.0194279 0)
(7.34812 0.0206849 0)
(7.3491 0.0220277 0)
(7.35007 0.0234682 0)
(7.35105 0.0250171 0)
(7.35206 0.0266833 0)
(7.3531 0.0284737 0)
(7.3542 0.0303924 0)
(7.35539 0.0324401 0)
(7.35668 0.034613 0)
(7.35811 0.036902 0)
(7.3597 0.039292 0)
(7.36147 0.041761 0)
(7.36346 0.0442803 0)
(7.36566 0.0468149 0)
(7.3681 0.0493246 0)
(7.37078 0.0517664 0)
(7.37368 0.0540966 0)
(7.37677 0.0562771 0)
(7.33303 0.000923438 0)
(7.33332 0.0027299 0)
(7.3339 0.0044269 0)
(7.33472 0.0059844 0)
(7.33569 0.007405 0)
(7.33675 0.00870744 0)
(7.33787 0.00991345 0)
(7.33903 0.0110456 0)
(7.3402 0.0121273 0)
(7.34137 0.0131808 0)
(7.34252 0.0142267 0)
(7.34366 0.0152831 0)
(7.34477 0.0163668 0)
(7.34587 0.0174928 0)
(7.34695 0.0186748 0)
(7.34802 0.019925 0)
(7.34908 0.0212545 0)
(7.35016 0.0226731 0)
(7.35124 0.0241888 0)
(7.35236 0.0258079 0)
(7.35353 0.0275346 0)
(7.35476 0.0293701 0)
(7.35608 0.0313122 0)
(7.3575 0.0333549 0)
(7.35906 0.0354873 0)
(7.36076 0.0376936 0)
(7.36262 0.039953 0)
(7.36467 0.0422394 0)
(7.36691 0.0445225 0)
(7.36935 0.0467689 0)
(7.37198 0.0489436 0)
(7.3748 0.0510126 0)
(7.37777 0.0529464 0)
(7.33303 0.000838287 0)
(7.33329 0.00248161 0)
(7.33383 0.00403698 0)
(7.3346 0.00548105 0)
(7.33551 0.00681452 0)
(7.33653 0.0080514 0)
(7.33762 0.00920944 0)
(7.33876 0.0103077 0)
(7.33992 0.0113659 0)
(7.34109 0.0124034 0)
(7.34226 0.0134381 0)
(7.34342 0.0144861 0)
(7.34458 0.0155621 0)
(7.34572 0.0166794 0)
(7.34687 0.0178497 0)
(7.34801 0.0190835 0)
(7.34916 0.0203898 0)
(7.35032 0.0217763 0)
(7.35151 0.023249 0)
(7.35273 0.0248118 0)
(7.35401 0.0264664 0)
(7.35536 0.0282119 0)
(7.35679 0.0300441 0)
(7.35833 0.0319553 0)
(7.35998 0.0339341 0)
(7.36177 0.0359648 0)
(7.36371 0.0380281 0)
(7.3658 0.0401008 0)
(7.36806 0.0421571 0)
(7.37049 0.0441691 0)
(7.37307 0.0461089 0)
(7.3758 0.0479493 0)
(7.37867 0.0496682 0)
(7.33303 0.000757334 0)
(7.33327 0.00224469 0)
(7.33378 0.00366172 0)
(7.3345 0.00499105 0)
(7.33538 0.00623283 0)
(7.33636 0.00739778 0)
(7.33743 0.00850032 0)
(7.33855 0.00955637 0)
(7.3397 0.0105826 0)
(7.34088 0.0115955 0)
(7.34207 0.0126104 0)
(7.34327 0.0136413 0)
(7.34446 0.014701 0)
(7.34566 0.0158006 0)
(7.34686 0.0169502 0)
(7.34808 0.0181585 0)
(7.3493 0.0194326 0)
(7.35055 0.0207782 0)
(7.35183 0.0221993 0)
(7.35315 0.0236979 0)
(7.35454 0.0252739 0)
(7.35598 0.0269246 0)
(7.35752 0.0286445 0)
(7.35915 0.0304251 0)
(7.36088 0.0322548 0)
(7.36274 0.0341188 0)
(7.36473 0.0359994 0)
(7.36686 0.0378765 0)
(7.36913 0.0397279 0)
(7.37153 0.0415309 0)
(7.37406 0.043263 0)
(7.37672 0.0449026 0)
(7.37948 0.0464327 0)
(7.33303 0.000679176 0)
(7.33326 0.00201529 0)
(7.33374 0.00329584 0)
(7.33443 0.00450875 0)
(7.33528 0.00565445 0)
(7.33624 0.00674138 0)
(7.33728 0.00778128 0)
(7.3384 0.00878734 0)
(7.33956 0.00977345 0)
(7.34075 0.0107534 0)
(7.34196 0.0117402 0)
(7.34319 0.0127456 0)
(7.34443 0.0137804 0)
(7.34568 0.0148539 0)
(7.34694 0.0159744 0)
(7.34822 0.0171487 0)
(7.34951 0.0183823 0)
(7.35084 0.0196792 0)
(7.35221 0.0210415 0)
(7.35362 0.0224697 0)
(7.35509 0.0239621 0)
(7.35663 0.025515 0)
(7.35825 0.027122 0)
(7.35995 0.0287743 0)
(7.36176 0.0304605 0)
(7.36367 0.032167 0)
(7.3657 0.0338779 0)
(7.36785 0.0355758 0)
(7.37011 0.0372422 0)
(7.37249 0.0388583 0)
(7.37497 0.0404059 0)
(7.37755 0.0418681 0)
(7.38022 0.0432317 0)
(7.33303 0.000602564 0)
(7.33325 0.0017899 0)
(7.33371 0.0029344 0)
(7.33438 0.00402864 0)
(7.33521 0.00507382 0)
(7.33615 0.00607683 0)
(7.33719 0.00704724 0)
(7.3383 0.00799584 0)
(7.33947 0.00893403 0)
(7.34068 0.0098731 0)
(7.34192 0.0108237 0)
(7.34318 0.0117956 0)
(7.34446 0.0127975 0)
(7.34576 0.013837 0)
(7.34708 0.0149205 0)
(7.34842 0.0160533 0)
(7.34979 0.017239 0)
(7.35119 0.0184803 0)
(7.35264 0.0197777 0)
(7.35413 0.0211306 0)
(7.35568 0.0225361 0)
(7.35729 0.0239896 0)
(7.35898 0.0254843 0)
(7.36075 0.0270115 0)
(7.36261 0.0285605 0)
(7.36457 0.0301188 0)
(7.36662 0.0316725 0)
(7.36877 0.0332064 0)
(7.37103 0.0347053 0)
(7.37337 0.0361537 0)
(7.37581 0.0375369 0)
(7.37832 0.0388415 0)
(7.3809 0.0400574 0)
(7.33302 0.000526343 0)
(7.33324 0.00156527 0)
(7.3337 0.00257264 0)
(7.33435 0.00354522 0)
(7.33517 0.00448521 0)
(7.3361 0.00539849 0)
(7.33714 0.00629281 0)
(7.33826 0.00717684 0)
(7.33944 0.0080597 0)
(7.34067 0.00895034 0)
(7.34194 0.00985723 0)
(7.34324 0.010788 0)
(7.34456 0.0117496 0)
(7.34591 0.0127476 0)
(7.34728 0.013787 0)
(7.34869 0.0148713 0)
(7.35012 0.0160028 0)
(7.35159 0.0171827 0)
(7.3531 0.0184105 0)
(7.35467 0.0196843 0)
(7.35628 0.0210007 0)
(7.35796 0.0223544 0)
(7.35971 0.0237385 0)
(7.36154 0.0251448 0)
(7.36344 0.0265631 0)
(7.36543 0.0279823 0)
(7.3675 0.0293903 0)
(7.36965 0.0307742 0)
(7.37189 0.0321212 0)
(7.37421 0.0334185 0)
(7.37659 0.0346546 0)
(7.37904 0.0358186 0)
(7.38154 0.0369029 0)
(7.33302 0.0004494 0)
(7.33324 0.00133822 0)
(7.33369 0.00220585 0)
(7.33434 0.00305289 0)
(7.33515 0.00388269 0)
(7.33609 0.0047004 0)
(7.33714 0.00551222 0)
(7.33827 0.00632493 0)
(7.33947 0.00714547 0)
(7.34073 0.00798063 0)
(7.34202 0.0088367 0)
(7.34336 0.00971941 0)
(7.34473 0.0106337 0)
(7.34612 0.0115836 0)
(7.34755 0.0125724 0)
(7.34901 0.0136022 0)
(7.35051 0.014674 0)
(7.35204 0.0157878 0)
(7.35362 0.0169422 0)
(7.35524 0.0181344 0)
(7.35692 0.0193604 0)
(7.35865 0.0206149 0)
(7.36045 0.0218909 0)
(7.36232 0.0231807 0)
(7.36426 0.024475 0)
(7.36626 0.025764 0)
(7.36834 0.0270371 0)
(7.3705 0.0282835 0)
(7.37271 0.0294924 0)
(7.375 0.0306535 0)
(7.37733 0.0317574 0)
(7.37972 0.0327955 0)
(7.38215 0.0337618 0)
(7.33302 0.00037061 0)
(7.33324 0.00110552 0)
(7.33369 0.00182917 0)
(7.33435 0.00254579 0)
(7.33517 0.00325991 0)
(7.33612 0.00397615 0)
(7.33718 0.00469927 0)
(7.33833 0.00543424 0)
(7.33955 0.00618597 0)
(7.34084 0.0069591 0)
(7.34217 0.00775789 0)
(7.34354 0.0085861 0)
(7.34496 0.00944689 0)
(7.3464 0.0103427 0)
(7.34788 0.0112753 0)
(7.3494 0.0122454 0)
(7.35095 0.013253 0)
(7.35254 0.0142969 0)
(7.35417 0.015375 0)
(7.35585 0.016484 0)
(7.35758 0.0176195 0)
(7.35936 0.018776 0)
(7.3612 0.019947 0)
(7.3631 0.0211251 0)
(7.36506 0.0223021 0)
(7.36709 0.0234692 0)
(7.36917 0.0246174 0)
(7.37131 0.0257376 0)
(7.37351 0.0268207 0)
(7.37576 0.0278584 0)
(7.37805 0.028843 0)
(7.38038 0.0297678 0)
(7.38274 0.0306282 0)
(7.33302 0.000288772 0)
(7.33325 0.000863716 0)
(7.3337 0.00143738 0)
(7.33437 0.00201755 0)
(7.3352 0.00260999 0)
(7.33617 0.00321874 0)
(7.33726 0.00384715 0)
(7.33844 0.00449838 0)
(7.33969 0.00517531 0)
(7.34101 0.00588052 0)
(7.34238 0.00661623 0)
(7.3438 0.00738429 0)
(7.34525 0.00818613 0)
(7.34675 0.00902268 0)
(7.34828 0.00989422 0)
(7.34984 0.0108004 0)
(7.35145 0.01174 0)
(7.35309 0.0127112 0)
(7.35477 0.0137111 0)
(7.3565 0.014736 0)
(7.35827 0.0157814 0)
(7.3601 0.0168419 0)
(7.36197 0.0179112 0)
(7.3639 0.0189826 0)
(7.36588 0.0200487 0)
(7.36791 0.021102 0)
(7.36999 0.0221345 0)
(7.37212 0.0231386 0)
(7.3743 0.0241069 0)
(7.37651 0.0250325 0)
(7.37876 0.0259093 0)
(7.38104 0.0267318 0)
(7.38334 0.0274966 0)
(7.33303 0.000202535 0)
(7.33325 0.000608938 0)
(7.33373 0.00102459 0)
(7.33441 0.00146105 0)
(7.33527 0.00192521 0)
(7.33627 0.00242036 0)
(7.33739 0.0029483 0)
(7.3386 0.00351025 0)
(7.33989 0.00410706 0)
(7.34125 0.00473917 0)
(7.34266 0.00540676 0)
(7.34412 0.00610981 0)
(7.34562 0.00684809 0)
(7.34716 0.00762102 0)
(7.34874 0.00842762 0)
(7.35035 0.00926639 0)
(7.35201 0.0101353 0)
(7.35369 0.0110317 0)
(7.35542 0.0119523 0)
(7.35719 0.0128931 0)
(7.35901 0.0138495 0)
(7.36086 0.0148162 0)
(7.36277 0.0157875 0)
(7.36471 0.0167571 0)
(7.36671 0.0177186 0)
(7.36874 0.0186652 0)
(7.37082 0.0195904 0)
(7.37294 0.0204876 0)
(7.37509 0.0213508 0)
(7.37727 0.0221742 0)
(7.37948 0.0229529 0)
(7.38171 0.0236827 0)
(7.38395 0.0243607 0)
(7.33303 0.00011029 0)
(7.33327 0.000336569 0)
(7.33376 0.000583879 0)
(7.33448 0.000867937 0)
(7.33537 0.00119664 0)
(7.33641 0.00157209 0)
(7.33756 0.00199414 0)
(7.33882 0.00246192 0)
(7.34015 0.00297405 0)
(7.34156 0.00352875 0)
(7.34301 0.00412408 0)
(7.34452 0.00475817 0)
(7.34607 0.00542913 0)
(7.34765 0.00613497 0)
(7.34928 0.00687351 0)
(7.35094 0.00764228 0)
(7.35264 0.00843848 0)
(7.35437 0.00925886 0)
(7.35614 0.0100997 0)
(7.35795 0.010957 0)
(7.35979 0.0118259 0)
(7.36168 0.0127017 0)
(7.3636 0.0135788 0)
(7.36557 0.0144516 0)
(7.36757 0.0153145 0)
(7.3696 0.0161615 0)
(7.37167 0.0169872 0)
(7.37378 0.0177859 0)
(7.3759 0.0185526 0)
(7.37806 0.0192828 0)
(7.38023 0.0199723 0)
(7.38241 0.0206179 0)
(7.3846 0.0212173 0)
(7.33303 1.00043e-05 0)
(7.33328 4.08208e-05 0)
(7.33381 0.000106658 0)
(7.33457 0.000228129 0)
(7.33551 0.000413734 0)
(7.3366 0.000663528 0)
(7.3378 0.000974808 0)
(7.33911 0.0013443 0)
(7.3405 0.00176817 0)
(7.34195 0.00224222 0)
(7.34345 0.0027623 0)
(7.34501 0.00332464 0)
(7.3466 0.0039257 0)
(7.34824 0.00456213 0)
(7.34991 0.0052306 0)
(7.35161 0.00592774 0)
(7.35335 0.00665005 0)
(7.35512 0.00739383 0)
(7.35693 0.00815511 0)
(7.35877 0.00892966 0)
(7.36065 0.00971297 0)
(7.36255 0.0105003 0)
(7.3645 0.0112867 0)
(7.36647 0.0120672 0)
(7.36848 0.0128367 0)
(7.37052 0.0135902 0)
(7.37258 0.0143228 0)
(7.37466 0.0150301 0)
(7.37677 0.0157077 0)
(7.37889 0.016352 0)
(7.38103 0.0169597 0)
(7.38317 0.017528 0)
(7.38531 0.0180555 0)
(7.33303 -0.000101036 0)
(7.33331 -0.000285972 0)
(7.33388 -0.00041818 0)
(7.33469 -0.000471063 0)
(7.3357 -0.00043644 0)
(7.33685 -0.00031775 0)
(7.33812 -0.000121142 0)
(7.33948 0.000147137 0)
(7.34093 0.000480331 0)
(7.34244 0.000871448 0)
(7.344 0.00131404 0)
(7.3456 0.00180244 0)
(7.34725 0.0023316 0)
(7.34893 0.00289688 0)
(7.35064 0.00349395 0)
(7.35239 0.00411864 0)
(7.35417 0.00476687 0)
(7.35598 0.00543456 0)
(7.35782 0.00611752 0)
(7.35969 0.00681149 0)
(7.36159 0.00751209 0)
(7.36352 0.00821484 0)
(7.36547 0.00891523 0)
(7.36746 0.00960874 0)
(7.36947 0.0102909 0)
(7.3715 0.0109574 0)
(7.37355 0.0116041 0)
(7.37563 0.0122273 0)
(7.37771 0.0128234 0)
(7.37981 0.0133893 0)
(7.38191 0.0139225 0)
(7.38401 0.0144206 0)
(7.38611 0.0148826 0)
(7.33303 -0.000226673 0)
(7.33334 -0.000654538 0)
(7.33397 -0.00100562 0)
(7.33487 -0.00124595 0)
(7.33596 -0.00136999 0)
(7.33718 -0.00138716 0)
(7.33853 -0.00130788 0)
(7.33997 -0.00114167 0)
(7.34148 -0.000898822 0)
(7.34305 -0.000589785 0)
(7.34467 -0.000223831 0)
(7.34633 0.000191229 0)
(7.34802 0.000648674 0)
(7.34975 0.00114258 0)
(7.35151 0.00166765 0)
(7.3533 0.00221908 0)
(7.35512 0.00279239 0)
(7.35696 0.00338324 0)
(7.35883 0.00398744 0)
(7.36073 0.00460081 0)
(7.36265 0.00521922 0)
(7.3646 0.00583852 0)
(7.36657 0.00645466 0)
(7.36856 0.00706361 0)
(7.37057 0.00766151 0)
(7.3726 0.00824466 0)
(7.37465 0.00880957 0)
(7.3767 0.00935305 0)
(7.37877 0.00987223 0)
(7.38084 0.0103646 0)
(7.38291 0.0108281 0)
(7.38498 0.0112609 0)
(7.38704 0.0116622 0)
(7.33304 -0.000372635 0)
(7.33339 -0.00108077 0)
(7.3341 -0.00167705 0)
(7.33511 -0.00211811 0)
(7.3363 -0.00240628 0)
(7.33763 -0.00256212 0)
(7.33907 -0.00260241 0)
(7.34059 -0.00254042 0)
(7.34218 -0.00239002 0)
(7.34382 -0.00216482 0)
(7.3455 -0.00187645 0)
(7.34722 -0.00153459 0)
(7.34897 -0.00114756 0)
(7.35074 -0.000722601 0)
(7.35255 -0.00026606 0)
(7.35438 0.000216475 0)
(7.35623 0.000719954 0)
(7.35811 0.00123972 0)
(7.36001 0.00177141 0)
(7.36193 0.00231085 0)
(7.36387 0.00285406 0)
(7.36584 0.00339719 0)
(7.36782 0.00393655 0)
(7.36982 0.00446859 0)
(7.37183 0.00498994 0)
(7.37386 0.00549745 0)
(7.3759 0.0059882 0)
(7.37794 0.00645955 0)
(7.37999 0.00690913 0)
(7.38204 0.00733491 0)
(7.38408 0.00773516 0)
(7.38613 0.00810844 0)
(7.38816 0.00845403 0)
(7.33305 -0.000548036 0)
(7.33346 -0.00158869 0)
(7.3343 -0.00246368 0)
(7.33545 -0.00312005 0)
(7.33678 -0.00357485 0)
(7.33823 -0.00386304 0)
(7.33978 -0.00400989 0)
(7.3414 -0.00403689 0)
(7.34308 -0.00396587 0)
(7.3448 -0.00381578 0)
(7.34656 -0.00360106 0)
(7.34834 -0.00333285 0)
(7.35014 -0.00302034 0)
(7.35197 -0.00267122 0)
(7.35383 -0.00229192 0)
(7.3557 -0.00188795 0)
(7.35759 -0.00146418 0)
(7.3595 -0.00102506 0)
(7.36143 -0.000574672 0)
(7.36338 -0.000116882 0)
(7.36535 0.000344661 0)
(7.36733 0.000806478 0)
(7.36932 0.00126526 0)
(7.37133 0.00171788 0)
(7.37335 0.00216141 0)
(7.37538 0.0025931 0)
(7.37741 0.00301048 0)
(7.37944 0.00341131 0)
(7.38147 0.00379362 0)
(7.3835 0.00415574 0)
(7.38553 0.00449633 0)
(7.38754 0.00481431 0)
(7.38954 0.00510933 0)
(7.33306 -0.000769795 0)
(7.33358 -0.00221836 0)
(7.3346 -0.00340212 0)
(7.33596 -0.00428292 0)
(7.33747 -0.00492331 0)
(7.33908 -0.00537157 0)
(7.34077 -0.00564787 0)
(7.34252 -0.00577505 0)
(7.3443 -0.00578251 0)
(7.3461 -0.00569607 0)
(7.34793 -0.00553503 0)
(7.34978 -0.00531455 0)
(7.35165 -0.00504717 0)
(7.35353 -0.00474309 0)
(7.35544 -0.0044104 0)
(7.35736 -0.00405563 0)
(7.3593 -0.00368419 0)
(7.36125 -0.00330068 0)
(7.36322 -0.00290907 0)
(7.3652 -0.00251286 0)
(7.36719 -0.00211526 0)
(7.36919 -0.00171915 0)
(7.3712 -0.00132724 0)
(7.37322 -0.000942005 0)
(7.37524 -0.000565752 0)
(7.37727 -0.000200581 0)
(7.37929 0.000151599 0)
(7.38131 0.000489082 0)
(7.38333 0.000810364 0)
(7.38533 0.00111414 0)
(7.38733 0.00139929 0)
(7.38931 0.00166483 0)
(7.39127 0.00191017 0)
(7.33308 -0.0010665 0)
(7.33379 -0.00306788 0)
(7.3351 -0.0045844 0)
(7.33672 -0.0056077 0)
(7.33845 -0.00632145 0)
(7.34025 -0.00683578 0)
(7.34214 -0.00718564 0)
(7.34406 -0.00739876 0)
(7.34601 -0.00750565 0)
(7.34796 -0.00752878 0)
(7.34992 -0.00748262 0)
(7.35188 -0.0073784 0)
(7.35385 -0.00722588 0)
(7.35583 -0.00703333 0)
(7.35781 -0.0068077 0)
(7.35979 -0.00655492 0)
(7.36178 -0.00628027 0)
(7.36377 -0.00598843 0)
(7.36576 -0.00568359 0)
(7.36775 -0.00536956 0)
(7.36975 -0.00504976 0)
(7.37174 -0.00472733 0)
(7.37373 -0.00440514 0)
(7.37571 -0.00408577 0)
(7.37769 -0.00377159 0)
(7.37966 -0.00346469 0)
(7.38161 -0.00316695 0)
(7.38355 -0.00288001 0)
(7.38548 -0.00260525 0)
(7.38739 -0.00234382 0)
(7.38928 -0.00209663 0)
(7.39115 -0.00186425 0)
(7.39298 -0.00164689 0)
(7.3331 -0.00144793 0)
(7.33415 -0.00420788 0)
(7.33607 -0.00631329 0)
(7.33822 -0.0077653 0)
(7.34032 -0.00874933 0)
(7.34242 -0.00937462 0)
(7.34457 -0.00971907 0)
(7.34674 -0.00986519 0)
(7.3489 -0.00987979 0)
(7.35104 -0.00980519 0)
(7.35317 -0.00966836 0)
(7.35527 -0.00948836 0)
(7.35735 -0.00927863 0)
(7.35939 -0.00904801 0)
(7.3614 -0.00880235 0)
(7.36338 -0.0085457 0)
(7.36532 -0.00828105 0)
(7.36722 -0.00801072 0)
(7.36909 -0.00773664 0)
(7.37093 -0.00746051 0)
(7.37273 -0.00718392 0)
(7.3745 -0.00690838 0)
(7.37624 -0.00663536 0)
(7.37795 -0.00636626 0)
(7.37963 -0.00610244 0)
(7.38128 -0.00584516 0)
(7.3829 -0.00559563 0)
(7.38449 -0.00535493 0)
(7.38606 -0.00512406 0)
(7.38759 -0.00490395 0)
(7.38909 -0.00469546 0)
(7.39057 -0.00449947 0)
(7.39201 -0.00431668 0)
(7.33311 -0.00228414 0)
(7.33485 -0.0052142 0)
(7.33794 -0.00688075 0)
(7.34136 -0.00825332 0)
(7.34468 -0.00954413 0)
(7.34787 -0.0106133 0)
(7.35088 -0.0114189 0)
(7.35363 -0.0120083 0)
(7.3561 -0.0124221 0)
(7.35832 -0.0126816 0)
(7.36029 -0.0128072 0)
(7.36204 -0.0128221 0)
(7.3636 -0.0127477 0)
(7.36497 -0.0126021 0)
(7.36619 -0.0124006 0)
(7.36727 -0.0121558 0)
(7.36823 -0.0118784 0)
(7.36909 -0.0115773 0)
(7.36986 -0.0112596 0)
(7.37056 -0.0109313 0)
(7.3712 -0.0105973 0)
(7.37178 -0.0102614 0)
(7.37232 -0.009927 0)
(7.37282 -0.00959666 0)
(7.3733 -0.00927259 0)
(7.37374 -0.00895653 0)
(7.37417 -0.00864989 0)
(7.37457 -0.00835379 0)
(7.37496 -0.00806906 0)
(7.37534 -0.00779631 0)
(7.3757 -0.00753592 0)
(7.37605 -0.00728809 0)
(7.37638 -0.00705272 0)
(7.3363 -0.00651745 0)
(7.34557 -0.0134873 0)
(7.35343 -0.0156876 0)
(7.35888 -0.0161918 0)
(7.36267 -0.0161561 0)
(7.36523 -0.0157423 0)
(7.36659 -0.0150798 0)
(7.36685 -0.0143349 0)
(7.36623 -0.0136007 0)
(7.36494 -0.0129052 0)
(7.36313 -0.0122553 0)
(7.36094 -0.0116534 0)
(7.35847 -0.0110987 0)
(7.35582 -0.010587 0)
(7.35304 -0.0101134 0)
(7.35021 -0.0096731 0)
(7.34736 -0.00926195 0)
(7.34452 -0.00887643 0)
(7.34173 -0.00851357 0)
(7.33899 -0.00817104 0)
(7.33634 -0.00784694 0)
(7.33377 -0.00753984 0)
(7.33129 -0.0072486 0)
(7.32891 -0.00697234 0)
(7.32663 -0.00671041 0)
(7.32444 -0.00646225 0)
(7.32236 -0.00622744 0)
(7.32037 -0.00600558 0)
(7.31848 -0.0057963 0)
(7.31668 -0.00559919 0)
(7.31497 -0.0054137 0)
(7.31335 -0.00523921 0)
(7.31181 -0.00507424 0)
(7.32508 -0.00547001 0)
(7.31334 -0.0121256 0)
(7.29927 -0.0150437 0)
(7.28288 -0.0161333 0)
(7.26681 -0.0163129 0)
(7.25211 -0.0158771 0)
(7.23866 -0.0150374 0)
(7.22632 -0.0139937 0)
(7.21505 -0.0128817 0)
(7.20483 -0.0117756 0)
(7.19555 -0.0107165 0)
(7.18712 -0.00972757 0)
(7.17944 -0.00881998 0)
(7.17243 -0.00799651 0)
(7.16601 -0.00725481 0)