/*--------------------------------*- C++ -*----------------------------------*\
| =========                 |                                                 |
| \\      /  F ield         | OpenFOAM: The Open Source CFD Toolbox           |
|  \\    /   O peration     | Version:  4.1                                   |
|   \\  /    A nd           | Web:      www.OpenFOAM.org                      |
|    \\/     M anipulation  |                                                 |
\*---------------------------------------------------------------------------*/
FoamFile
{
    version     2.0;
    format      ascii;
    class       volScalarField;
    location    "1800";
    object      p;
}
// * * * * * * * * * * * * * * * * * * * * * * * * * * * * * * * * * * * * * //

dimensions      [0 2 -2 0 0 0 0];

internalField   nonuniform List<scalar> 
6820
(
-6.86882
-7.09565
-7.17257
-7.18459
-7.20395
-7.22603
-7.24258
-7.25543
-7.26658
-7.27615
-7.28402
-7.29032
-7.29516
-7.29855
-7.30046
-7.3008
-7.29948
-7.29635
-7.2912
-7.28378
-7.27375
-7.26066
-7.2439
-7.22268
-7.19581
-7.16162
-7.11735
-7.059
-6.97702
-6.86251
-6.6529
-6.40038
-5.34552
-6.94079
-7.08182
-7.14543
-7.16578
-7.18958
-7.21354
-7.23151
-7.24536
-7.25716
-7.26719
-7.27545
-7.28207
-7.28719
-7.29081
-7.2929
-7.29341
-7.29223
-7.28922
-7.28417
-7.27685
-7.26691
-7.25393
-7.23733
-7.21636
-7.18995
-7.15667
-7.11427
-7.06004
-6.98802
-6.89663
-6.76446
-6.64155
-6.55453
-6.99821
-7.08624
-7.14636
-7.17136
-7.19375
-7.216
-7.23348
-7.24718
-7.25883
-7.26878
-7.277
-7.28363
-7.28877
-7.29244
-7.29461
-7.29522
-7.29418
-7.29134
-7.28653
-7.27951
-7.26996
-7.25751
-7.24164
-7.22168
-7.19676
-7.16573
-7.12701
-7.07896
-7.01871
-6.94815
-6.86362
-6.81135
-6.79728
-7.03696
-7.09534
-7.14955
-7.17594
-7.19682
-7.21766
-7.2348
-7.24839
-7.25991
-7.26976
-7.27795
-7.28458
-7.28975
-7.29348
-7.29575
-7.2965
-7.29564
-7.29304
-7.28853
-7.28192
-7.27291
-7.26118
-7.2463
-7.22774
-7.20483
-7.17682
-7.14278
-7.10213
-7.0543
-7.00283
-6.95081
-6.92722
-6.93673
-7.0681
-7.10793
-7.15382
-7.18007
-7.19996
-7.21956
-7.23624
-7.24967
-7.26103
-7.27079
-7.27896
-7.28562
-7.29086
-7.29471
-7.29713
-7.29808
-7.29748
-7.29522
-7.29115
-7.2851
-7.27683
-7.26608
-7.25251
-7.23575
-7.21539
-7.19102
-7.16234
-7.1296
-7.0937
-7.0587
-7.02993
-7.02585
-7.05506
-7.09423
-7.12173
-7.15949
-7.18476
-7.20379
-7.22211
-7.23816
-7.25135
-7.26254
-7.27219
-7.28034
-7.28703
-7.29236
-7.29634
-7.29896
-7.30017
-7.2999
-7.29807
-7.29455
-7.2892
-7.28184
-7.27227
-7.26028
-7.24565
-7.22818
-7.20782
-7.18474
-7.15974
-7.1345
-7.11297
-7.10059
-7.1091
-7.14567
-7.1164
-7.1357
-7.16642
-7.19003
-7.20812
-7.22519
-7.24051
-7.25339
-7.26439
-7.27392
-7.28204
-7.28878
-7.29422
-7.29837
-7.30122
-7.30274
-7.30288
-7.30155
-7.29868
-7.29416
-7.28786
-7.27966
-7.26945
-7.25716
-7.24281
-7.22657
-7.20899
-7.19115
-7.17502
-7.16408
-7.16297
-7.179
-7.21707
-7.13551
-7.14937
-7.17424
-7.19578
-7.21284
-7.22873
-7.24328
-7.2558
-7.26658
-7.27598
-7.28406
-7.29086
-7.29642
-7.30077
-7.3039
-7.30579
-7.30639
-7.30565
-7.30353
-7.29994
-7.29482
-7.28813
-7.27985
-7.27003
-7.25885
-7.24668
-7.23426
-7.22279
-7.21419
-7.21137
-7.21793
-7.23838
-7.27581
-7.15229
-7.1625
-7.18263
-7.20193
-7.2179
-7.2327
-7.24646
-7.25856
-7.2691
-7.27837
-7.28642
-7.29329
-7.299
-7.30357
-7.30701
-7.30931
-7.31043
-7.31036
-7.30905
-7.30648
-7.30264
-7.29755
-7.29128
-7.28397
-7.27591
-7.26762
-7.25988
-7.2539
-7.2514
-7.25469
-7.26641
-7.28935
-7.32529
-7.16725
-7.17497
-7.19132
-7.20842
-7.22325
-7.23704
-7.25001
-7.26167
-7.27196
-7.28109
-7.28912
-7.29606
-7.30193
-7.30676
-7.31055
-7.3133
-7.315
-7.31563
-7.31521
-7.31373
-7.31124
-7.3078
-7.30355
-7.29871
-7.29365
-7.28893
-7.28533
-7.28399
-7.28633
-7.29414
-7.30929
-7.33348
-7.36766
-7.18075
-7.18675
-7.20013
-7.21516
-7.22885
-7.24169
-7.25391
-7.26511
-7.27515
-7.28414
-7.29215
-7.29917
-7.30523
-7.31034
-7.31451
-7.31775
-7.32006
-7.32146
-7.32197
-7.32162
-7.32051
-7.31873
-7.31647
-7.31402
-7.31175
-7.31025
-7.31025
-7.31273
-7.31887
-7.32998
-7.34737
-7.37202
-7.40439
-7.19308
-7.19785
-7.2089
-7.22209
-7.23465
-7.24661
-7.25812
-7.26886
-7.27864
-7.28751
-7.29551
-7.30263
-7.30889
-7.3143
-7.31888
-7.32264
-7.3256
-7.32779
-7.32926
-7.33008
-7.33034
-7.3302
-7.32987
-7.32966
-7.32995
-7.3313
-7.33436
-7.33997
-7.34904
-7.36253
-7.38131
-7.40594
-7.43659
-7.20442
-7.20831
-7.21754
-7.22911
-7.2406
-7.25175
-7.26261
-7.2729
-7.28243
-7.29118
-7.29918
-7.30642
-7.3129
-7.31863
-7.32364
-7.32794
-7.33158
-7.33459
-7.33703
-7.33901
-7.34063
-7.34208
-7.34358
-7.34544
-7.34803
-7.35186
-7.3575
-7.36562
-7.37692
-7.39209
-7.41169
-7.43601
-7.46506
-7.21494
-7.21817
-7.22598
-7.23616
-7.24667
-7.25707
-7.26732
-7.2772
-7.28649
-7.29514
-7.30316
-7.31052
-7.31724
-7.32331
-7.32877
-7.33364
-7.33796
-7.3418
-7.34522
-7.34834
-7.35128
-7.35424
-7.35745
-7.36119
-7.36583
-7.37179
-7.37956
-7.38967
-7.40265
-7.41898
-7.43899
-7.46283
-7.4904
-7.22473
-7.22747
-7.23417
-7.24318
-7.25279
-7.26251
-7.27223
-7.28172
-7.2908
-7.29937
-7.30741
-7.31492
-7.32189
-7.32832
-7.33424
-7.33968
-7.3447
-7.34937
-7.35375
-7.35798
-7.36219
-7.36657
-7.37133
-7.37677
-7.38319
-7.39096
-7.40048
-7.41216
-7.42639
-7.44348
-7.46363
-7.48689
-7.51312
-7.23389
-7.23625
-7.24208
-7.25011
-7.25894
-7.26805
-7.27729
-7.28644
-7.29532
-7.30383
-7.31193
-7.31959
-7.32682
-7.33362
-7.34002
-7.34604
-7.35176
-7.35723
-7.36255
-7.36784
-7.37325
-7.37894
-7.38513
-7.39206
-7.40002
-7.40931
-7.42025
-7.43315
-7.44827
-7.46584
-7.48595
-7.50858
-7.53358
-7.24248
-7.24455
-7.24968
-7.25692
-7.26507
-7.27364
-7.28246
-7.29132
-7.30004
-7.3085
-7.31667
-7.32451
-7.33202
-7.33919
-7.34606
-7.35267
-7.35907
-7.36533
-7.37156
-7.37786
-7.38437
-7.39126
-7.39872
-7.40698
-7.41625
-7.4268
-7.43887
-7.4527
-7.46846
-7.48628
-7.50622
-7.52821
-7.55211
-7.25054
-7.25238
-7.25697
-7.26355
-7.27112
-7.27924
-7.2877
-7.29631
-7.3049
-7.31335
-7.32161
-7.32964
-7.33743
-7.34499
-7.35234
-7.35952
-7.36659
-7.37361
-7.38069
-7.38793
-7.39547
-7.40345
-7.41204
-7.42143
-7.43182
-7.44341
-7.45637
-7.47089
-7.48708
-7.50501
-7.52469
-7.54604
-7.56893
-7.25809
-7.25976
-7.26393
-7.26998
-7.27708
-7.2848
-7.29297
-7.30139
-7.30988
-7.31834
-7.32671
-7.33495
-7.34303
-7.35098
-7.3588
-7.36654
-7.37425
-7.382
-7.38988
-7.398
-7.40647
-7.41542
-7.425
-7.43538
-7.4467
-7.45912
-7.47279
-7.48781
-7.50427
-7.52219
-7.54156
-7.56229
-7.58426
-7.26517
-7.2667
-7.27054
-7.27617
-7.28288
-7.29029
-7.29823
-7.30649
-7.31493
-7.32344
-7.33193
-7.34039
-7.34878
-7.35711
-7.36539
-7.37368
-7.382
-7.39044
-7.39907
-7.40799
-7.4173
-7.42711
-7.43756
-7.44877
-7.46086
-7.47396
-7.48815
-7.50353
-7.52014
-7.53797
-7.557
-7.57713
-7.59826
-7.27176
-7.27319
-7.27678
-7.28209
-7.2885
-7.29567
-7.30342
-7.31159
-7.32002
-7.32859
-7.33724
-7.34592
-7.35462
-7.36333
-7.37208
-7.38088
-7.38979
-7.39887
-7.4082
-7.41784
-7.4279
-7.43848
-7.44967
-7.46157
-7.4743
-7.48792
-7.50252
-7.51814
-7.53479
-7.55248
-7.57114
-7.59071
-7.61108
-7.27787
-7.27923
-7.28263
-7.28771
-7.29389
-7.30088
-7.30852
-7.31663
-7.32508
-7.33375
-7.34257
-7.3515
-7.36051
-7.36961
-7.37879
-7.38809
-7.39756
-7.40724
-7.41719
-7.4275
-7.43822
-7.44946
-7.46128
-7.47377
-7.48701
-7.50104
-7.51593
-7.53169
-7.54833
-7.56582
-7.58412
-7.60315
-7.62282
-7.28348
-7.28479
-7.28807
-7.29297
-7.299
-7.30588
-7.31346
-7.32157
-7.33008
-7.33888
-7.3479
-7.35708
-7.36641
-7.37588
-7.38549
-7.39527
-7.40525
-7.41548
-7.42601
-7.4369
-7.44822
-7.46002
-7.47238
-7.48535
-7.499
-7.51335
-7.52843
-7.54426
-7.56083
-7.5781
-7.59604
-7.61455
-7.63358
-7.28857
-7.28985
-7.29304
-7.29785
-7.3038
-7.31063
-7.3182
-7.32636
-7.33498
-7.34393
-7.35316
-7.36261
-7.37226
-7.3821
-7.39212
-7.40235
-7.41281
-7.42355
-7.4346
-7.44601
-7.45784
-7.47014
-7.48294
-7.49631
-7.51027
-7.52485
-7.54006
-7.55591
-7.57237
-7.58941
-7.60698
-7.62502
-7.64346
-7.2931
-7.29437
-7.29753
-7.3023
-7.30823
-7.31507
-7.3227
-7.33095
-7.3397
-7.34885
-7.35831
-7.36804
-7.37801
-7.38821
-7.39863
-7.40928
-7.4202
-7.43139
-7.44291
-7.45479
-7.46706
-7.47977
-7.49295
-7.50664
-7.52084
-7.53559
-7.55087
-7.56669
-7.58301
-7.5998
-7.61703
-7.63462
-7.65252
-7.29702
-7.29829
-7.30146
-7.30626
-7.31224
-7.31916
-7.32689
-7.33528
-7.34422
-7.35358
-7.3633
-7.37332
-7.38362
-7.39417
-7.40497
-7.41602
-7.42735
-7.43897
-7.45091
-7.46319
-7.47585
-7.48891
-7.5024
-7.51634
-7.53073
-7.54558
-7.56089
-7.57664
-7.59281
-7.60936
-7.62624
-7.64341
-7.66082
-7.30027
-7.30157
-7.30479
-7.30967
-7.31576
-7.32282
-7.33071
-7.33931
-7.34846
-7.35807
-7.36807
-7.3784
-7.38903
-7.39993
-7.41109
-7.42253
-7.43424
-7.44624
-7.45855
-7.47119
-7.48418
-7.49754
-7.51128
-7.52541
-7.53994
-7.55486
-7.57016
-7.58582
-7.60182
-7.61812
-7.63469
-7.65147
-7.66842
-7.30278
-7.30411
-7.30743
-7.31247
-7.31874
-7.326
-7.33412
-7.34296
-7.35238
-7.36228
-7.37258
-7.38323
-7.39419
-7.40543
-7.41695
-7.42874
-7.44081
-7.45316
-7.4658
-7.47876
-7.49203
-7.50564
-7.51958
-7.53386
-7.54849
-7.56344
-7.5787
-7.59426
-7.61009
-7.62615
-7.64241
-7.65883
-7.67536
-7.30443
-7.30583
-7.3093
-7.31456
-7.3211
-7.32864
-7.33706
-7.3462
-7.35594
-7.36616
-7.37678
-7.38776
-7.39906
-7.41064
-7.4225
-7.43463
-7.44703
-7.45969
-7.47264
-7.48586
-7.49938
-7.51319
-7.5273
-7.5417
-7.55638
-7.57134
-7.58655
-7.602
-7.61765
-7.63348
-7.64945
-7.66553
-7.68167
-7.30511
-7.3066
-7.3103
-7.31588
-7.32277
-7.33068
-7.33946
-7.34897
-7.35907
-7.36965
-7.38063
-7.39196
-7.4036
-7.41552
-7.42771
-7.44016
-7.45286
-7.46581
-7.47902
-7.49249
-7.50622
-7.5202
-7.53444
-7.54893
-7.56365
-7.57859
-7.59374
-7.60906
-7.62455
-7.64016
-7.65586
-7.67163
-7.68742
-7.30466
-7.30628
-7.31029
-7.3163
-7.32366
-7.33203
-7.34126
-7.35121
-7.36173
-7.37271
-7.38408
-7.39577
-7.40777
-7.42003
-7.43254
-7.44529
-7.45828
-7.4715
-7.48495
-7.49862
-7.51253
-7.52665
-7.54099
-7.55554
-7.57027
-7.58519
-7.60026
-7.61546
-7.63078
-7.64618
-7.66163
-7.67711
-7.69258
-7.30288
-7.30468
-7.30913
-7.31573
-7.32369
-7.33264
-7.34242
-7.35289
-7.36389
-7.37531
-7.38709
-7.39917
-7.41152
-7.42412
-7.43695
-7.44999
-7.46325
-7.47671
-7.49038
-7.50425
-7.51831
-7.53256
-7.54699
-7.56158
-7.57632
-7.5912
-7.6062
-7.62129
-7.63645
-7.65166
-7.66688
-7.6821
-7.69729
-7.29951
-7.30156
-7.30663
-7.31403
-7.32279
-7.33245
-7.34289
-7.35397
-7.36554
-7.37746
-7.38968
-7.40217
-7.41488
-7.42781
-7.44094
-7.45425
-7.46775
-7.48143
-7.49528
-7.5093
-7.52348
-7.53782
-7.55231
-7.56692
-7.58166
-7.59649
-7.6114
-7.62637
-7.64138
-7.65641
-7.67143
-7.68641
-7.70134
-7.29416
-7.2966
-7.30258
-7.31112
-7.3209
-7.33141
-7.3426
-7.35437
-7.36654
-7.379
-7.39171
-7.40463
-7.41774
-7.43102
-7.44447
-7.45807
-7.47183
-7.48573
-7.49978
-7.51397
-7.52828
-7.54272
-7.55727
-7.57191
-7.58664
-7.60144
-7.61628
-7.63116
-7.64604
-7.6609
-7.67573
-7.6905
-7.70519
-7.28633
-7.28937
-7.29671
-7.30686
-7.31799
-7.32963
-7.34184
-7.35446
-7.36732
-7.38032
-7.39347
-7.40677
-7.42019
-7.43374
-7.44741
-7.46121
-7.47514
-7.48919
-7.50336
-7.51764
-7.53203
-7.54652
-7.5611
-7.57574
-7.59045
-7.6052
-7.61997
-7.63474
-7.6495
-7.66423
-7.67891
-7.69351
-7.70803
-7.27516
-7.27931
-7.28899
-7.30116
-7.31353
-7.32622
-7.33955
-7.35323
-7.36699
-7.38078
-7.39462
-7.40851
-7.42246
-7.43645
-7.4505
-7.46461
-7.47881
-7.49308
-7.50742
-7.52185
-7.53634
-7.5509
-7.56552
-7.58017
-7.59486
-7.60956
-7.62427
-7.63895
-7.65359
-7.66818
-7.68269
-7.69709
-7.71138
-7.25925
-7.26503
-7.27965
-7.29601
-7.31052
-7.32442
-7.33863
-7.35288
-7.36695
-7.38091
-7.39488
-7.40888
-7.42292
-7.43701
-7.45116
-7.46539
-7.47969
-7.49407
-7.50852
-7.52303
-7.53761
-7.55224
-7.56691
-7.5816
-7.59631
-7.61102
-7.62571
-7.64036
-7.65496
-7.66949
-7.68394
-7.6983
-7.71257
-7.23777
-7.24448
-7.26296
-7.28268
-7.30042
-7.3178
-7.33508
-7.3517
-7.36759
-7.38298
-7.39805
-7.41288
-7.4275
-7.44201
-7.45645
-7.47086
-7.48527
-7.4997
-7.51416
-7.52864
-7.54317
-7.55772
-7.57229
-7.58688
-7.60146
-7.61603
-7.63057
-7.64506
-7.65949
-7.67384
-7.68808
-7.70218
-7.71613
-7.2047
-7.23964
-7.26869
-7.28427
-7.29772
-7.31346
-7.32969
-7.34519
-7.36027
-7.37533
-7.39037
-7.40535
-7.42026
-7.43513
-7.44998
-7.46483
-7.47967
-7.49452
-7.50938
-7.52424
-7.53911
-7.55398
-7.56885
-7.58369
-7.59851
-7.61329
-7.62802
-7.64268
-7.65727
-7.67176
-7.68615
-7.70044
-7.71462
-7.06345
-7.17082
-7.24434
-7.27618
-7.29884
-7.32253
-7.34415
-7.36236
-7.37854
-7.39386
-7.40866
-7.42303
-7.43713
-7.4511
-7.46504
-7.47898
-7.49296
-7.50699
-7.52109
-7.53525
-7.54947
-7.56374
-7.57805
-7.59238
-7.60672
-7.62105
-7.63536
-7.64962
-7.66382
-7.67794
-7.69196
-7.70587
-7.71964
-6.50631
-6.5611
-7.44369
-7.91848
-7.97281
-7.99473
-8.04376
-8.08409
-8.11634
-8.14861
-8.18164
-8.21472
-8.24798
-8.28162
-8.3156
-8.3498
-8.38412
-8.41845
-8.45265
-8.48659
-8.52014
-8.55317
-8.58553
-8.61712
-8.6478
-8.67747
-8.706
-8.7333
-8.75927
-8.78381
-8.80683
-8.82823
-8.84793
-8.86586
-8.88191
-8.89602
-8.9081
-8.91806
-8.92582
-8.93128
-8.93437
-8.93496
-8.93297
-8.92828
-8.92077
-8.9103
-8.89673
-8.87992
-8.85969
-8.83587
-8.80826
-8.77666
-8.74084
-8.70057
-8.65562
-8.60573
-8.55064
-8.4901
-8.42383
-8.35157
-8.27303
-8.18794
-8.096
-7.9969
-7.89031
-7.77591
-7.65335
-7.5223
-7.38246
-7.23354
-7.07528
-6.90749
-6.73003
-6.54283
-6.34592
-6.13939
-5.92347
-5.69847
-5.46483
-5.2231
-4.97397
-4.71821
-4.45673
-4.1905
-3.92059
-3.64813
-3.37429
-3.10024
-2.82715
-2.55615
-2.28831
-2.02461
-1.76581
-1.51276
-1.26543
-1.02506
-0.788783
-0.562028
-0.328804
-0.120927
-7.07655
-7.23433
-7.57307
-7.84171
-7.91516
-7.95788
-8.01406
-8.06066
-8.09762
-8.13288
-8.16805
-8.20274
-8.23718
-8.27169
-8.30631
-8.34097
-8.37563
-8.41019
-8.44454
-8.47857
-8.51216
-8.54519
-8.57753
-8.60906
-8.63968
-8.66927
-8.69772
-8.72493
-8.75081
-8.77524
-8.79816
-8.81946
-8.83905
-8.85687
-8.87281
-8.8868
-8.89876
-8.9086
-8.91623
-8.92156
-8.9245
-8.92495
-8.9228
-8.91794
-8.91025
-8.8996
-8.88583
-8.86881
-8.84836
-8.8243
-8.79645
-8.76459
-8.72851
-8.68798
-8.64276
-8.5926
-8.53724
-8.47642
-8.40989
-8.33736
-8.25856
-8.17322
-8.08103
-7.98169
-7.87489
-7.76029
-7.63756
-7.5064
-7.36648
-7.21753
-7.05932
-6.89165
-6.71439
-6.52749
-6.33096
-6.12492
-5.90959
-5.68528
-5.45243
-5.2116
-4.96344
-4.70874
-4.44837
-4.18331
-3.9146
-3.64334
-3.37068
-3.09778
-2.82577
-2.55576
-2.28878
-2.02581
-1.76755
-1.51486
-1.26762
-1.02724
-0.790226
-0.563747
-0.326801
-0.126275
-7.08612
-7.26926
-7.49973
-7.74957
-7.8692
-7.92995
-7.98872
-8.03961
-8.08076
-8.11858
-8.15552
-8.19156
-8.22699
-8.26218
-8.29728
-8.33227
-8.36713
-8.4018
-8.4362
-8.47023
-8.50377
-8.53672
-8.56896
-8.60038
-8.63088
-8.66034
-8.68865
-8.71573
-8.74146
-8.76576
-8.78854
-8.8097
-8.82916
-8.84684
-8.86265
-8.8765
-8.88832
-8.89801
-8.90549
-8.91067
-8.91345
-8.91374
-8.91141
-8.90637
-8.89848
-8.88762
-8.87364
-8.85639
-8.8357
-8.8114
-8.78329
-8.75116
-8.71481
-8.674
-8.6285
-8.57805
-8.52241
-8.46131
-8.3945
-8.3217
-8.24264
-8.15703
-8.0646
-7.96503
-7.85801
-7.74323
-7.62035
-7.48908
-7.3491
-7.20016
-7.04203
-6.87452
-6.69751
-6.51094
-6.31485
-6.10936
-5.89468
-5.67113
-5.43914
-5.19927
-4.95216
-4.69859
-4.43942
-4.17559
-3.90814
-3.63815
-3.36674
-3.09503
-2.82415
-2.55517
-2.2891
-2.02687
-1.76919
-1.51687
-1.26972
-1.02933
-0.791608
-0.565384
-0.324807
-0.131511
-7.11679
-7.29874
-7.49815
-7.71005
-7.83468
-7.90354
-7.96469
-8.01927
-8.0643
-8.1046
-8.14319
-8.18047
-8.21679
-8.2526
-8.28809
-8.32333
-8.35833
-8.39304
-8.42741
-8.46136
-8.49479
-8.52761
-8.55969
-8.59095
-8.62127
-8.65055
-8.67869
-8.70559
-8.73115
-8.75528
-8.77788
-8.79888
-8.81818
-8.83569
-8.85134
-8.86503
-8.87669
-8.88622
-8.89353
-8.89854
-8.90114
-8.90124
-8.89873
-8.89348
-8.88539
-8.8743
-8.86009
-8.8426
-8.82166
-8.7971
-8.76871
-8.73631
-8.69967
-8.65857
-8.61278
-8.56203
-8.5061
-8.44471
-8.37761
-8.30454
-8.22521
-8.13935
-8.04667
-7.94688
-7.83966
-7.7247
-7.60169
-7.47033
-7.33033
-7.18143
-7.02341
-6.85609
-6.67937
-6.4932
-6.29761
-6.09272
-5.87875
-5.65602
-5.42497
-5.18613
-4.94015
-4.68777
-4.42986
-4.16734
-3.90123
-3.63257
-3.36246
-3.092
-2.8223
-2.55439
-2.28925
-2.02781
-1.77071
-1.51878
-1.27175
-1.03134
-0.792927
-0.566933
-0.322862
-0.136559
-7.17961
-7.34022
-7.50947
-7.68166
-7.80156
-7.87786
-7.94223
-7.99945
-8.04762
-8.09026
-8.13042
-8.1689
-8.2061
-8.2425
-8.27837
-8.31384
-8.34893
-8.38366
-8.41797
-8.4518
-8.48508
-8.51772
-8.54961
-8.58066
-8.61077
-8.63984
-8.66776
-8.69445
-8.7198
-8.74373
-8.76614
-8.78694
-8.80605
-8.82337
-8.83884
-8.85235
-8.86382
-8.87317
-8.8803
-8.88512
-8.88753
-8.88743
-8.88471
-8.87925
-8.87093
-8.85961
-8.84516
-8.82741
-8.80621
-8.78136
-8.7527
-8.72
-8.68307
-8.64167
-8.59557
-8.54453
-8.48829
-8.42661
-8.35923
-8.28587
-8.20627
-8.12016
-8.02724
-7.92723
-7.81982
-7.70471
-7.58159
-7.45017
-7.31017
-7.16134
-7.00347
-6.8364
-6.66002
-6.47429
-6.27925
-6.07502
-5.86183
-5.64
-5.40995
-5.17221
-4.92742
-4.67631
-4.41973
-4.15859
-3.89386
-3.62659
-3.35784
-3.08869
-2.82021
-2.55341
-2.28924
-2.0286
-1.7721
-1.52058
-1.27367
-1.03326
-0.794184
-0.568384
-0.321007
-0.141336
-7.23961
-7.37444
-7.51837
-7.66245
-7.77549
-7.85568
-7.92192
-7.9805
-8.03093
-8.07558
-8.11718
-8.15675
-8.19477
-8.23173
-8.26797
-8.30365
-8.33883
-8.37354
-8.40777
-8.44147
-8.47457
-8.507
-8.53867
-8.56948
-8.59935
-8.62817
-8.65585
-8.6823
-8.70741
-8.73111
-8.75329
-8.77388
-8.79277
-8.80989
-8.82515
-8.83846
-8.84973
-8.85888
-8.86581
-8.87042
-8.87262
-8.87231
-8.86936
-8.86367
-8.85511
-8.84355
-8.82883
-8.81082
-8.78934
-8.76421
-8.73525
-8.70225
-8.66501
-8.6233
-8.57689
-8.52554
-8.469
-8.40703
-8.33935
-8.26572
-8.18586
-8.0995
-8.00635
-7.90613
-7.79855
-7.6833
-7.56009
-7.42864
-7.28867
-7.13995
-6.98228
-6.81549
-6.6395
-6.45426
-6.25983
-6.05633
-5.84398
-5.6231
-5.39411
-5.15754
-4.91401
-4.66424
-4.40906
-4.14935
-3.88608
-3.62025
-3.35291
-3.08511
-2.81788
-2.55223
-2.28906
-2.02924
-1.77338
-1.52227
-1.2755
-1.03508
-0.79538
-0.569729
-0.319284
-0.145765
-7.29312
-7.40579
-7.52932
-7.65264
-7.75679
-7.837
-7.90378
-7.9629
-8.01476
-8.06097
-8.10373
-8.14421
-8.18294
-8.22041
-8.25697
-8.29282
-8.32806
-8.36274
-8.39686
-8.4304
-8.4633
-8.49549
-8.52691
-8.55746
-8.58705
-8.6156
-8.64301
-8.66919
-8.69405
-8.71748
-8.73942
-8.75976
-8.77841
-8.7953
-8.81033
-8.82342
-8.83447
-8.8434
-8.8501
-8.85449
-8.85647
-8.85592
-8.85273
-8.8468
-8.83799
-8.82616
-8.81117
-8.79288
-8.77111
-8.74568
-8.71642
-8.68311
-8.64555
-8.60353
-8.5568
-8.50514
-8.44829
-8.38601
-8.31805
-8.24414
-8.16402
-8.07742
-7.98405
-7.88365
-7.7759
-7.66054
-7.53727
-7.40581
-7.26591
-7.11733
-6.95989
-6.79343
-6.61787
-6.43318
-6.23942
-6.0367
-5.82525
-5.60539
-5.37753
-5.14219
-4.89997
-4.65161
-4.39787
-4.13966
-3.87789
-3.61355
-3.34767
-3.08126
-2.81533
-2.55085
-2.2887
-2.02973
-1.77451
-1.52384
-1.27721
-1.03679
-0.796517
-0.57096
-0.317727
-0.149786
-7.34044
-7.43554
-7.542
-7.64889
-7.74374
-7.82172
-7.88804
-7.94704
-7.99957
-8.04678
-8.09041
-8.13157
-8.17086
-8.20873
-8.24554
-8.28151
-8.31677
-8.35138
-8.38537
-8.41872
-8.45139
-8.48332
-8.51446
-8.54472
-8.57401
-8.60226
-8.62937
-8.65525
-8.67981
-8.70297
-8.72462
-8.74469
-8.76309
-8.77972
-8.7945
-8.80733
-8.81814
-8.82682
-8.83329
-8.83744
-8.83916
-8.83836
-8.83492
-8.82873
-8.81964
-8.80754
-8.79227
-8.77368
-8.75161
-8.72587
-8.69629
-8.66266
-8.62478
-8.58243
-8.53538
-8.4834
-8.42625
-8.36367
-8.29542
-8.22123
-8.14086
-8.05402
-7.96045
-7.85986
-7.75198
-7.63652
-7.51321
-7.38177
-7.24197
-7.09357
-6.9364
-6.77032
-6.59524
-6.41115
-6.21809
-6.01621
-5.80571
-5.58693
-5.36025
-5.12619
-4.88536
-4.63844
-4.38622
-4.12954
-3.86932
-3.60653
-3.34214
-3.07716
-2.81255
-2.54927
-2.28817
-2.03007
-1.7755
-1.52527
-1.27882
-1.03838
-0.797596
-0.572073
-0.316363
-0.15335
-7.38189
-7.4633
-7.55553
-7.64914
-7.73528
-7.80978
-7.87474
-7.93302
-7.98559
-8.0333
-8.07746
-8.11909
-8.15876
-8.19691
-8.23388
-8.26992
-8.30515
-8.33965
-8.37347
-8.40659
-8.43901
-8.47066
-8.50148
-8.53142
-8.56038
-8.5883
-8.61508
-8.64063
-8.66487
-8.68772
-8.70907
-8.72884
-8.74694
-8.76329
-8.77779
-8.79036
-8.8009
-8.80931
-8.81551
-8.81939
-8.82085
-8.81978
-8.81607
-8.80959
-8.80022
-8.78782
-8.77225
-8.75335
-8.73096
-8.7049
-8.67499
-8.64104
-8.60282
-8.56014
-8.51276
-8.46046
-8.40299
-8.34011
-8.27157
-8.19711
-8.11649
-8.02942
-7.93565
-7.8349
-7.7269
-7.61137
-7.48804
-7.35665
-7.21697
-7.06879
-6.91193
-6.74626
-6.5717
-6.38825
-6.19595
-5.99495
-5.78547
-5.5678
-5.34236
-5.10964
-4.87023
-4.62481
-4.37414
-4.11904
-3.86042
-3.5992
-3.33634
-3.07281
-2.80955
-2.5475
-2.28746
-2.03024
-1.77635
-1.52657
-1.2803
-1.03987
-0.798618
-0.573067
-0.31521
-0.156427
-7.41819
-7.48897
-7.56949
-7.6522
-7.73048
-7.80083
-7.86374
-7.92083
-7.97293
-8.02069
-8.06507
-8.10693
-8.14681
-8.18511
-8.22216
-8.25818
-8.29333
-8.32769
-8.3613
-8.39418
-8.42631
-8.45764
-8.48814
-8.51772
-8.54634
-8.57389
-8.60031
-8.62551
-8.64941
-8.67191
-8.69292
-8.71237
-8.73016
-8.7462
-8.76039
-8.77266
-8.7829
-8.79103
-8.79694
-8.80053
-8.8017
-8.80034
-8.79633
-8.78955
-8.77987
-8.76716
-8.75127
-8.73205
-8.70933
-8.68294
-8.65269
-8.61839
-8.57983
-8.53681
-8.4891
-8.43646
-8.37867
-8.31549
-8.24666
-8.17193
-8.09106
-8.00377
-7.90982
-7.80891
-7.7008
-7.58522
-7.46189
-7.33058
-7.19106
-7.04312
-6.8866
-6.72137
-6.54738
-6.36461
-6.17311
-5.97304
-5.7646
-5.5481
-5.32393
-5.09259
-4.85465
-4.61077
-4.36168
-4.10821
-3.85121
-3.59159
-3.33028
-3.06823
-2.80635
-2.54553
-2.28658
-2.03025
-1.77705
-1.52772
-1.28166
-1.04123
-0.799583
-0.573941
-0.314279
-0.159002
-7.45014
-7.51259
-7.58354
-7.6572
-7.72846
-7.79446
-7.85484
-7.91036
-7.9616
-8.00903
-8.05335
-8.09522
-8.13513
-8.17346
-8.21048
-8.24643
-8.28144
-8.31561
-8.34899
-8.38159
-8.41341
-8.44441
-8.47455
-8.50377
-8.53201
-8.55918
-8.58522
-8.61005
-8.63357
-8.6557
-8.67636
-8.69545
-8.7129
-8.7286
-8.74247
-8.75441
-8.76434
-8.77215
-8.77774
-8.78102
-8.78188
-8.7802
-8.77588
-8.76878
-8.75878
-8.74574
-8.72951
-8.70995
-8.68688
-8.66014
-8.62954
-8.59488
-8.55598
-8.5126
-8.46455
-8.41158
-8.35347
-8.28997
-8.22085
-8.14586
-8.06474
-7.97724
-7.8831
-7.78206
-7.67385
-7.55822
-7.43492
-7.30371
-7.16436
-7.01669
-6.86054
-6.6958
-6.5224
-6.34034
-6.14968
-5.95056
-5.74321
-5.52791
-5.30506
-5.07513
-4.83868
-4.59637
-4.3489
-4.09707
-3.84172
-3.58373
-3.324
-3.06344
-2.80295
-2.54338
-2.28552
-2.0301
-1.77759
-1.52873
-1.28289
-1.04247
-0.800489
-0.574696
-0.31357
-0.161076
-7.47843
-7.53427
-7.59739
-7.66348
-7.72855
-7.79024
-7.84783
-7.90151
-7.95158
-7.99837
-8.04234
-8.08402
-8.12381
-8.16203
-8.19894
-8.23474
-8.26957
-8.30351
-8.33662
-8.36892
-8.4004
-8.43105
-8.46082
-8.48966
-8.5175
-8.54428
-8.56993
-8.59435
-8.61748
-8.63923
-8.65951
-8.67823
-8.69531
-8.71065
-8.72417
-8.73577
-8.74535
-8.75283
-8.75809
-8.76103
-8.76156
-8.75955
-8.75489
-8.74745
-8.7371
-8.72372
-8.70714
-8.68722
-8.66379
-8.63668
-8.60572
-8.5707
-8.53143
-8.4877
-8.43929
-8.38598
-8.32754
-8.26373
-8.19432
-8.11906
-8.03769
-7.94998
-7.85567
-7.75449
-7.6462
-7.53055
-7.40729
-7.27619
-7.13704
-6.98967
-6.83391
-6.66967
-6.49689
-6.31557
-6.12577
-5.92765
-5.7214
-5.50733
-5.28582
-5.05732
-4.8224
-4.58168
-4.33585
-4.08568
-3.832
-3.57564
-3.3175
-3.05845
-2.79935
-2.54105
-2.28428
-2.02977
-1.77797
-1.52959
-1.28399
-1.04359
-0.801334
-0.575336
-0.313079
-0.162663
-7.50364
-7.55414
-7.61085
-7.67057
-7.73019
-7.78777
-7.84247
-7.89411
-7.94279
-7.98868
-8.03209
-8.07339
-8.11291
-8.15091
-8.18761
-8.22318
-8.25776
-8.29144
-8.32425
-8.35622
-8.38736
-8.41764
-8.44702
-8.47546
-8.5029
-8.52927
-8.55451
-8.57853
-8.60125
-8.6226
-8.64248
-8.66081
-8.67751
-8.69248
-8.70563
-8.71686
-8.72609
-8.7332
-8.73811
-8.74071
-8.74088
-8.73852
-8.7335
-8.72571
-8.715
-8.70125
-8.68431
-8.66402
-8.64022
-8.61274
-8.58139
-8.546
-8.50636
-8.46226
-8.41349
-8.35983
-8.30106
-8.23694
-8.16723
-8.09169
-8.01009
-7.92217
-7.82768
-7.72638
-7.61802
-7.50235
-7.37914
-7.24817
-7.10924
-6.96218
-6.80683
-6.64312
-6.47098
-6.29042
-6.10151
-5.90439
-5.69927
-5.48645
-5.26629
-5.03926
-4.80587
-4.56675
-4.32257
-4.07408
-3.82207
-3.56736
-3.31081
-3.05327
-2.79558
-2.53854
-2.28288
-2.02928
-1.77819
-1.5303
-1.28495
-1.04457
-0.802118
-0.575865
-0.312792
-0.163792
-7.52624
-7.57237
-7.62379
-7.67812
-7.73296
-7.78671
-7.83852
-7.88803
-7.93515
-7.97996
-8.02261
-8.06336
-8.10246
-8.14012
-8.17652
-8.21181
-8.24609
-8.27945
-8.31193
-8.34355
-8.37432
-8.40422
-8.4332
-8.46124
-8.48826
-8.51422
-8.53903
-8.56263
-8.58494
-8.60588
-8.62535
-8.64329
-8.65959
-8.67417
-8.68694
-8.69779
-8.70664
-8.71339
-8.71793
-8.72016
-8.71997
-8.71724
-8.71185
-8.70369
-8.69261
-8.67849
-8.66116
-8.64049
-8.61631
-8.58844
-8.55671
-8.52093
-8.48091
-8.43644
-8.3873
-8.33329
-8.27418
-8.20974
-8.13973
-8.06393
-7.98208
-7.89396
-7.7993
-7.69788
-7.58945
-7.47378
-7.35063
-7.21981
-7.0811
-6.93436
-6.77945
-6.61627
-6.44478
-6.265
-6.07699
-5.8809
-5.67692
-5.46536
-5.24657
-5.02099
-4.78916
-4.55165
-4.30912
-4.06231
-3.81197
-3.55892
-3.30396
-3.04793
-2.79164
-2.53586
-2.2813
-2.02862
-1.77824
-1.53084
-1.28578
-1.04544
-0.802835
-0.576288
-0.312689
-0.164501
-7.54661
-7.5891
-7.63612
-7.68589
-7.73654
-7.78676
-7.83576
-7.88309
-7.92856
-7.97213
-8.01388
-8.05394
-8.0925
-8.12972
-8.16573
-8.20065
-8.23458
-8.26758
-8.2997
-8.33095
-8.36133
-8.39083
-8.4194
-8.44702
-8.47363
-8.49916
-8.52355
-8.54672
-8.56861
-8.58912
-8.60819
-8.62571
-8.64161
-8.65579
-8.66817
-8.67863
-8.6871
-8.69347
-8.69763
-8.69948
-8.69891
-8.69581
-8.69004
-8.6815
-8.67004
-8.65553
-8.63782
-8.61675
-8.59218
-8.56391
-8.53179
-8.49563
-8.45522
-8.41037
-8.36086
-8.3065
-8.24704
-8.18228
-8.11197
-8.0359
-7.95381
-7.86548
-7.77066
-7.66913
-7.56064
-7.44497
-7.32189
-7.19122
-7.05275
-6.90635
-6.75187
-6.58924
-6.41842
-6.23942
-6.05232
-5.85726
-5.65443
-5.44414
-5.22672
-5.00261
-4.77231
-4.53641
-4.29554
-4.05041
-3.80174
-3.55032
-3.29695
-3.04243
-2.78753
-2.53302
-2.27955
-2.02779
-1.77813
-1.53123
-1.28646
-1.04617
-0.803482
-0.57661
-0.312747
-0.164834
-7.56505
-7.60449
-7.64781
-7.69369
-7.74065
-7.78766
-7.83398
-7.87916
-7.92292
-7.96516
-8.00587
-8.04513
-8.08305
-8.11972
-8.15526
-8.18975
-8.22327
-8.25588
-8.2876
-8.31845
-8.34842
-8.3775
-8.40566
-8.43285
-8.45903
-8.48413
-8.50808
-8.53083
-8.55229
-8.57238
-8.59103
-8.60814
-8.62362
-8.6374
-8.64938
-8.65945
-8.66753
-8.6735
-8.67728
-8.67875
-8.67779
-8.6743
-8.66815
-8.65922
-8.64737
-8.63247
-8.61436
-8.5929
-8.56793
-8.53927
-8.50675
-8.47019
-8.42939
-8.38415
-8.33428
-8.27956
-8.21976
-8.15467
-8.08407
-8.00772
-7.9254
-7.83686
-7.74189
-7.64024
-7.5317
-7.41603
-7.29304
-7.16252
-7.0243
-6.87824
-6.72421
-6.56214
-6.39199
-6.21378
-6.02759
-5.83356
-5.63189
-5.42285
-5.2068
-4.98415
-4.7554
-4.5211
-4.28187
-4.0384
-3.7914
-3.54161
-3.28982
-3.03679
-2.78328
-2.53001
-2.27764
-2.0268
-1.77786
-1.53146
-1.28699
-1.04677
-0.804055
-0.576837
-0.312939
-0.164842
-7.58181
-7.61865
-7.65884
-7.70138
-7.74511
-7.7892
-7.833
-7.87607
-7.91811
-7.95896
-7.99856
-8.03692
-8.07409
-8.11014
-8.14513
-8.17914
-8.2122
-8.24437
-8.27566
-8.30608
-8.33563
-8.36428
-8.392
-8.41876
-8.4445
-8.46916
-8.49268
-8.51499
-8.53602
-8.55569
-8.57391
-8.5906
-8.60567
-8.61904
-8.63061
-8.64028
-8.64796
-8.65355
-8.65693
-8.65801
-8.65666
-8.65278
-8.64624
-8.63692
-8.62468
-8.60938
-8.59087
-8.56901
-8.54364
-8.51458
-8.48166
-8.4447
-8.40351
-8.3579
-8.30765
-8.25257
-8.19243
-8.12702
-8.05612
-7.97951
-7.89695
-7.80821
-7.71308
-7.61133
-7.50274
-7.38709
-7.26418
-7.13382
-6.99586
-6.85014
-6.69656
-6.53505
-6.36557
-6.18816
-6.00288
-5.80988
-5.60936
-5.40158
-5.18688
-4.96569
-4.73846
-4.50575
-4.26815
-4.02633
-3.78097
-3.5328
-3.28257
-3.03102
-2.77888
-2.52685
-2.27557
-2.02563
-1.77741
-1.53153
-1.28739
-1.04724
-0.804548
-0.576974
-0.313235
-0.164577
-7.59709
-7.63169
-7.66921
-7.70886
-7.74976
-7.7912
-7.83266
-7.87371
-7.91404
-7.95347
-7.99189
-8.02928
-8.06564
-8.10099
-8.13538
-8.16883
-8.20139
-8.23308
-8.26391
-8.29388
-8.32298
-8.35118
-8.37846
-8.40477
-8.43007
-8.45429
-8.47737
-8.49924
-8.51984
-8.53907
-8.55686
-8.57313
-8.58779
-8.60075
-8.61191
-8.62118
-8.62846
-8.63365
-8.63663
-8.63732
-8.63558
-8.63131
-8.62437
-8.61465
-8.60202
-8.58632
-8.56741
-8.54515
-8.51938
-8.48992
-8.4566
-8.41925
-8.37767
-8.33168
-8.28106
-8.22562
-8.16514
-8.09942
-8.02822
-7.95134
-7.86855
-7.77962
-7.68434
-7.58249
-7.47385
-7.35822
-7.2354
-7.10521
-6.96751
-6.82214
-6.66901
-6.50806
-6.33926
-6.16263
-5.97826
-5.78629
-5.5869
-5.38037
-5.16702
-4.94726
-4.72154
-4.4904
-4.25442
-4.01422
-3.77048
-3.52391
-3.27522
-3.02513
-2.77435
-2.52355
-2.27334
-2.0243
-1.7768
-1.53143
-1.28763
-1.04758
-0.804958
-0.577027
-0.313608
-0.164091
-7.61105
-7.64372
-7.67893
-7.71609
-7.75447
-7.79354
-7.83282
-7.87194
-7.9106
-7.94861
-7.98583
-8.0222
-8.05768
-8.09228
-8.126
-8.15886
-8.19087
-8.22204
-8.25237
-8.28187
-8.3105
-8.33824
-8.36507
-8.39093
-8.41577
-8.43954
-8.46218
-8.48361
-8.50377
-8.52257
-8.53993
-8.55578
-8.57002
-8.58256
-8.59331
-8.60218
-8.60905
-8.61384
-8.61643
-8.61672
-8.61459
-8.60992
-8.60259
-8.59248
-8.57944
-8.56334
-8.54404
-8.52138
-8.49521
-8.46535
-8.43164
-8.39389
-8.35193
-8.30555
-8.25457
-8.19878
-8.13797
-8.07192
-8.00044
-7.9233
-7.84028
-7.75116
-7.65573
-7.55379
-7.44511
-7.3295
-7.20678
-7.07677
-6.93932
-6.79431
-6.64164
-6.48124
-6.31311
-6.13727
-5.9538
-5.76284
-5.56458
-5.35928
-5.14726
-4.92891
-4.70469
-4.4751
-4.2407
-4.0021
-3.75997
-3.51496
-3.26779
-3.01914
-2.76969
-2.5201
-2.27095
-2.02281
-1.77603
-1.53118
-1.28773
-1.04779
-0.805278
-0.576999
-0.314028
-0.163433
-7.62384
-7.65482
-7.68803
-7.723
-7.75916
-7.79608
-7.83336
-7.87067
-7.90772
-7.94432
-7.98032
-8.01563
-8.0502
-8.084
-8.11701
-8.14922
-8.18065
-8.21127
-8.24109
-8.27008
-8.29822
-8.32549
-8.35185
-8.37725
-8.40163
-8.42495
-8.44714
-8.46813
-8.48784
-8.50621
-8.52314
-8.53857
-8.55239
-8.56451
-8.57485
-8.58331
-8.58978
-8.59417
-8.59637
-8.59626
-8.59373
-8.58867
-8.58095
-8.57044
-8.557
-8.54051
-8.52081
-8.49775
-8.47118
-8.44093
-8.40682