/*--------------------------------*- C++ -*----------------------------------*\
| =========                 |                                                 |
| \\      /  F ield         | OpenFOAM: The Open Source CFD Toolbox           |
|  \\    /   O peration     | Version:  4.1                                   |
|   \\  /    A nd           | Web:      www.OpenFOAM.org                      |
|    \\/     M anipulation  |                                                 |
\*---------------------------------------------------------------------------*/
FoamFile
{
    version     2.0;
    format      ascii;
    class       volScalarField;
    location    "1500";
    object      p;
}
// * * * * * * * * * * * * * * * * * * * * * * * * * * * * * * * * * * * * * //

dimensions      [0 2 -2 0 0 0 0];

internalField   nonuniform List<scalar> 
26785
(
592.684
611.412
622.471
631.58
639.401
648.114
658.117
668.575
678.67
688.099
696.289
702.686
707.504
711.302
714.231
716.02
716.261
714.122
707.893
696.36
674.341
645.041
643.533
677.306
697.435
696.603
703.124
709.599
717.368
725.932
734.918
744.144
753.361
762.303
770.708
778.311
784.862
790.132
793.922
796.07
796.455
795.005
791.692
786.539
779.613
771.025
760.926
749.501
736.962
723.546
709.505
695.101
680.599
666.261
652.343
639.088
626.722
615.458
605.483
596.967
590.054
584.868
581.51
580.061
580.576
583.085
587.605
594.133
602.631
613.043
625.339
639.531
655.589
673.417
692.874
713.775
735.89
758.921
782.483
806.123
829.393
851.844
872.872
891.749
908.139
922.057
932.387
936.918
935.422
927.113
910.632
885.594
850.712
804.797
745.311
671.545
574.316
463.807
286.205
170.673
592.776
611.43
622.497
631.589
639.39
648.096
658.103
668.557
678.641
688.062
696.245
702.63
707.429
711.202
714.1
715.848
716.031
713.849
707.652
696.057
673.782
644.415
642.243
675.771
696.639
696.44
703.045
709.555
717.338
725.913
734.907
744.143
753.371
762.325
770.742
778.358
784.921
790.202
794.003
796.159
796.551
795.105
791.795
786.641
779.712
771.118
761.01
749.574
737.023
723.593
709.536
695.115
680.595
666.24
652.304
639.031
626.649
615.368
605.378
596.848
589.922
584.725
581.356
579.898
580.405
582.907
587.42
593.941
602.432
612.835
625.115
639.287
655.328
673.138
692.579
713.463
735.559
758.564
782.092
805.699
828.939
851.353
872.341
891.218
907.611
921.356
931.441
935.972
934.328
925.846
909.368
884.279
849.347
803.426
743.952
670.279
573.246
463.073
286.407
170.598
592.832
611.467
622.536
631.615
639.378
648.07
658.08
668.525
678.591
688.002
696.176
702.539
707.302
711.031
713.875
715.55
715.628
713.32
707.104
695.497
673.237
643.821
641.496
673.536
695.046
696.117
702.889
709.463
717.275
725.871
734.883
744.139
753.39
762.367
770.809
778.451
785.039
790.344
794.165
796.34
796.746
795.309
792.003
786.848
779.912
771.307
761.183
749.725
737.148
723.689
709.6
695.146
680.591
666.199
652.228
638.92
626.504
615.191
605.171
596.613
589.661
584.439
581.049
579.571
580.06
582.548
587.047
593.555
602.033
612.418
624.669
638.806
654.812
672.588
691.995
712.846
734.906
757.867
781.343
804.896
828.084
850.432
871.341
890.18
906.564
920.129
929.845
934.18
932.339
923.61
907.006
881.784
846.748
800.792
741.319
667.767
571.127
461.334
286.858
169.168
592.847
611.487
622.576
631.659
639.364
648.032
658.059
668.496
678.529
687.923
696.084
702.418
707.134
710.803
713.575
715.158
715.108
712.656
706.387
694.718
672.577
643.565
641.514
671.535
693.238
695.694
702.674
709.325
717.176
725.807
734.846
744.131
753.416
762.43
770.91
778.59
785.216
790.557
794.41
796.611
797.039
795.616
792.316
787.16
780.214
771.591
761.441
749.95
737.334
723.83
709.693
695.186
680.577
666.131
652.104
638.743
626.275
614.912
604.845
596.242
589.251
583.993
580.571
579.063
579.525
581.989
586.466
592.952
601.409
611.768
623.974
638.057
654.01
671.732
691.087
711.888
733.892
756.789
780.189
803.664
826.772
849.028
869.83
888.577
904.865
918.212
927.566
931.621
929.517
920.463
903.599
878.166
842.947
796.891
737.373
663.929
567.805
458.334
287.254
165.773
592.789
611.486
622.603
631.716
639.356
647.983
658.044
668.477
678.462
687.829
695.978
702.274
706.931
710.528
713.214
714.688
714.495
711.883
705.533
693.807
671.96
643.958
642.411
669.55
691.534
695.214
702.406
709.143
717.042
725.717
734.794
744.119
753.449
762.513
771.044
778.776
785.454
790.843
794.739
796.977
797.433
796.03
792.739
787.581
780.622
771.974
761.789
750.254
737.585
724.021
709.817
695.24
680.557
666.037
651.936
638.501
625.963
614.533
604.403
595.742
588.696
583.389
579.922
578.373
578.798
581.228
585.675
592.132
600.561
610.886
623.035
637.044
652.925
670.574
689.858
710.587
732.518
755.332
778.642
802.019
825.023
847.16
867.833
886.456
902.586
915.653
924.621
928.324
925.921
916.522
899.289
873.542
838.031
791.786
732.148
658.761
563.198
453.929
287.272
160.051
592.68
611.458
622.606
631.761
639.364
647.923
658.036
668.477
678.398
687.722
695.859
702.112
706.699
710.211
712.8
714.153
713.807
711.029
704.583
692.817
671.4
644.747
643.682
667.667
689.95
694.69
702.084
708.92
716.871
725.601
734.726
744.102
753.49
762.615
771.211
779.01
785.752
791.202
795.154
797.439
797.931
796.552
793.272
788.111
781.135
772.456
762.227
750.635
737.897
724.256
709.968
695.3
680.524
665.908
651.711
638.183
625.554
614.038
603.826
595.089
587.974
582.604
579.078
577.477
577.854
580.24
584.647
591.065
599.456
609.739
621.817
635.735
651.521
669.077
688.269
708.907
730.742
753.454
776.653
799.914
822.791
844.78
865.292
883.753
899.676
912.425
920.994
924.309
921.533
911.782
894.147
867.978
832.068
785.525
725.667
652.249
557.216
448.03
286.438
152.07
592.625
611.391
622.583
631.78
639.394
647.852
658.034
668.5
678.349
687.607
695.732
701.935
706.441
709.859
712.339
713.562
713.056
710.109
703.56
691.784
670.914
645.759
645.032
666.036
688.451
694.121
701.702
708.657
716.664
725.457
734.641
744.079
753.536
762.736
771.412
779.291
786.112
791.637
795.656
797.998
798.534
797.185
793.919
788.755
781.758
773.041
762.757
751.095
738.274
724.538
710.146
695.367
680.476
665.742
651.429
637.785
625.045
613.423
603.111
594.282
587.081
581.633
578.037
576.37
576.687
579.018
583.373
589.742
598.086
608.318
620.315
634.123
649.79
667.231
686.309
706.833
728.552
751.14
774.209
797.335
820.063
841.881
862.205
880.464
896.13
908.522
916.67
919.568
916.374
906.217
888.18
861.54
825.126
778.177
717.979
644.418
549.828
440.628
284.25
142.4
592.528
611.299
622.533
631.771
639.438
647.778
658.03
668.548
678.318
687.488
695.598
701.747
706.16
709.473
711.837
712.921
712.25
709.134
702.481
690.727
670.5
646.864
646.314
664.713
687.012
693.511
701.261
708.353
716.422
725.284
734.539
744.049
753.588
762.877
771.647
779.621
786.536
792.149
796.247
798.657
799.246
797.933
794.683
789.514
782.492
773.73
763.381
751.635
738.715
724.866
710.349
695.437
680.407
665.533
651.079
637.297
624.424
612.674
602.242
593.3
585.997
580.454
576.772
575.026
575.27
577.534
581.825
588.132
596.417
606.586
618.498
632.177
647.699
665
683.941
704.329
725.908
748.351
771.271
794.239
816.795
838.418
858.529
876.551
891.922
903.928
911.633
914.086
910.441
899.825
881.354
854.234
817.261
769.802
709.145
635.322
541.049
431.767
280.311
131.929
592.401
611.176
622.458
631.739
639.476
647.709
658.02
668.619
678.308
687.365
695.455
701.552
705.86
709.06
711.298
712.236
711.396
708.112
701.357
689.655
670.131
647.943
647.421
663.684
685.598
692.86
700.76
708.007
716.146
725.084
734.418
744.013
753.646
763.038
771.915
780
787.023
792.739
796.93
799.419
800.07
798.797
795.567
790.393
783.342
774.526
764.1
752.258
739.221
725.238
710.575
695.507
680.315
665.275
650.655
636.712
623.681
611.781
601.208
592.135
584.709
579.055
575.27
573.431
573.588
575.77
579.985
586.217
594.429
604.524
616.348
629.88
645.229
662.363
681.14
701.367
722.784
745.061
767.809
790.598
812.959
834.365
854.235
871.988
887.029
898.623
905.868
907.848
903.72
892.614
873.655
846.02
808.506
760.451
699.237
625.044
530.943
421.556
274.473
121.52
592.228
611.025
622.357
631.679
639.476
647.652
657.999
668.708
678.322
687.247
695.307
701.352
705.544
708.62
710.725
711.511
710.5
707.049
700.196
688.567
669.765
648.886
648.252
662.911
684.174
692.161
700.197
707.615
715.836
724.855
734.278
743.97
753.709
763.218
772.219
780.43
787.577
793.411
797.708
800.287
801.008
799.783
796.574
791.395
784.31
775.433
764.919
752.963
739.791
725.654
710.822
695.574
680.193
664.961
650.15
636.018
622.804
610.731
599.993
590.766
583.198
577.413
573.509
571.559
571.613
573.699
577.822
583.965
592.088
602.096
613.828
627.2
642.347
659.285
677.87
697.909
719.139
741.228
763.783
786.372
808.516
829.681
849.287
866.741
881.423
892.586
899.353
900.839
896.2
884.574
865.092
836.89
798.834
750.151
688.349
613.68
519.627
410.172
266.87
111.752
592.036
610.848
622.23
631.591
639.433
647.624
657.968
668.813
678.364
687.145
695.15
701.148
705.215
708.156
710.123
710.752
709.566
705.951
699.004
687.467
669.378
649.677
648.822
662.404
682.711
691.402
699.572
707.176
715.492
724.598
734.121
743.921
753.78
763.42
772.559
780.912
788.2
794.166
798.584
801.265
802.066
800.894
797.71
792.523
785.4
776.453
765.838
753.754
740.427
726.115
711.088
695.633
680.037
664.585
649.554
635.205
621.782
609.508
598.582
589.178
581.446
575.51
571.467
569.389
569.323
571.296
575.311
581.348
589.366
599.272
610.903
624.108
639.029
655.736
674.099
693.921
714.939
736.815
759.155
781.521
803.426
824.33
843.647
860.777
875.075
885.791
892.067
893.041
887.872
875.7
855.664
826.872
788.243
738.89
676.58
601.336
507.259
397.843
257.846
102.84
591.862
610.641
622.078
631.481
639.355
647.618
657.926
668.928
678.432
687.059
694.978
700.94
704.875
707.672
709.493
709.959
708.598
704.82
697.787
686.355
668.964
650.344
649.207
662.099
681.188
690.573
698.887
706.689
715.114
724.315
733.949
743.867
753.859
763.645
772.939
781.45
788.894
795.009
799.561
802.357
803.247
802.136
798.978
793.784
786.617
777.59
766.862
754.631
741.13
726.618
711.372
695.682
679.84
664.139
648.857
634.262
620.601
608.099
596.957
587.351
579.431
573.321
569.118
566.892
566.688
568.53
572.418
578.332
586.225
596.012
607.527
620.57
635.241
651.679
669.787
689.362
710.139
731.778
753.881
776.003
797.648
818.269
837.277
854.058
867.954
878.209
883.986
884.435
878.721
865.989
845.378
815.98
776.762
726.728
663.948
588.101
494.098
384.818
247.803
94.7017
591.652
610.411
621.904
631.352
639.243
647.619
657.875
669.052
678.526
686.99
694.801
700.727
704.527
707.168
708.837
709.137
707.598
703.662
696.549
685.237
668.524
650.919
649.478
661.922
679.617
689.665
698.147
706.154
714.703
724.009
733.762
743.812
753.95
763.896
773.36
782.046
789.664
795.944
800.645
803.568
804.557
803.512
800.384
795.181
787.965
778.849
767.992
755.598
741.9
727.163
711.67
695.715
679.598
663.614
648.05
633.177
619.246
606.486
595.099
585.264
577.131
570.823
566.436
564.04
563.677
565.368
569.111
574.882
582.631
592.275
603.655
616.546
630.95
647.078
664.895
684.19
704.697
726.073
747.916
769.772
791.136
811.455
830.134
846.549
860.028
869.813
875.083
875.002
868.737
855.437
834.242
804.239
764.423
713.736
650.517
574.074
480.345
371.351
237.013
87.3289
591.416
610.156
621.711
631.21
639.115
647.64
657.828
669.18
678.643
686.941
694.623
700.508
704.171
706.648
708.158
708.288
706.571
702.478
695.292
684.111
668.058
651.429
649.736
661.825
678.022
688.679
697.357
705.571
714.261
723.682
733.565
743.758
754.056
764.178
773.829
782.707
790.515
796.976
801.841
804.904
806.003
805.031
801.936
796.722
789.45
780.234
769.235
756.657
742.739
727.751
711.981
695.73
679.303
663.003
647.121
631.935
617.701
604.65
592.989
582.896
574.521
567.989
563.394
560.804
560.259
561.777
565.352
570.958
578.541
588.018
599.243
611.98
626.112
641.895
659.381
678.361
698.567
719.654
741.212
762.78
783.845
803.844
822.177
838.21
851.26
860.571
865.333
864.722
857.906
844.041
822.267
791.672
751.271
699.983
636.362
559.447
466.146
357.594
225.691
81.0412
591.139
609.88
621.497
631.056
638.979
647.665
657.787
669.308
678.778
686.908
694.442
700.279
703.809
706.112
707.457
707.414
705.517
701.271
694.018
682.978
667.562
651.879
649.998
661.759
676.476
687.62
696.52
704.943
713.788
723.335
733.36
743.71
754.183
764.496
774.35
783.437
791.453
798.112
803.156
806.372
807.591
806.699
803.639
798.413
791.079
781.751
770.593
757.811
743.649
728.381
712.303
695.722
678.949
662.296
646.06
630.524
615.95
602.574
590.605
580.221
571.575
564.79
559.959
557.149
556.397
557.718
561.102
566.519
573.913
583.199
594.243
606.811
620.681
636.091
653.2
671.827
691.7
712.469
733.719
754.979
775.725
795.389
813.361
829
841.615
850.451
854.71
853.574
846.217
831.8
809.465
778.306
737.355
685.543
621.581
544.359
451.646
343.816
214.339
75.8133
590.85
609.581
621.264
630.888
638.824
647.651
657.742
669.434
678.931
686.889
694.253
700.037
703.442
705.563
706.736
706.517
704.439
700.041
692.728
681.835
667.031
652.26
650.235
661.655
675.047
686.491
695.637
704.271
713.286
722.973
733.151
743.672
754.334
764.855
774.93
784.245
792.486
799.359
804.599
807.982
809.33
808.524
805.502
800.262
792.859
783.407
772.072
759.064
744.631
729.054
712.633
695.685
678.529
661.483
644.853
628.929
613.976
600.237
587.923
577.215
568.265
561.196
556.1
553.041
552.055
553.151
556.318
561.52
568.699
577.768
588.6
600.974
614.607
629.625
646.304
664.539
684.044
704.467
725.385
746.316
766.727
786.041
803.641
818.878
831.055
839.421
843.185
841.538
833.659
818.715
795.851
764.173
722.73
670.489
606.28
528.957
437.007
330.165
203.304
71.3681
590.568
609.256
621.011
630.705
638.65
647.586
657.704
669.564
679.099
686.882
694.056
699.781
703.071
705.001
705.996
705.597
703.337
698.791
691.423
680.679
666.458
652.551
650.391
661.379
673.747
685.296
694.709
703.558
712.756
722.596
732.941
743.648
754.517
765.262
775.576
785.137
793.622
800.728
806.179
809.742
811.231
810.518
807.536
802.278
794.798
785.209
773.679
760.421
745.689
729.769
712.971
695.617
678.037
660.556
643.489
627.133
611.76
597.618
584.92
573.851
564.562
557.176
551.782
548.443
547.191
548.034
550.954
555.913
562.849
571.672
582.26
594.409
607.819
622.441
638.646
656.444
675.546
695.594
716.155
736.738
756.798
775.75
792.97
807.801
819.542
827.447
830.731
828.594
820.221
804.785
781.441
749.304
707.451
654.896
590.565
513.37
422.379
316.796
192.833
67.6575
590.249
608.91
620.74
630.51
638.464
647.488
657.692
669.702
679.282
686.892
693.865
699.513
702.693
704.428
705.239
704.656
702.214
697.521
690.1
679.507
665.836
652.733
650.438
660.86
672.553
684.043
693.735
702.808
712.199
722.206
732.733
743.642
754.734
765.724
776.296
786.122
794.871
802.228
807.907
811.664
813.304
812.691
809.751
804.471
796.906
787.166
775.42
761.887
746.825
730.528
713.313
695.513
677.465
659.505
641.955
625.121
609.284
594.694
581.571
570.101
560.435
552.694
546.968
543.315
541.765
542.322
544.964
549.649
556.311
564.857
575.168
587.06
600.233
614.477
630.174
647.488
666.149
685.791
705.973
726.189
745.885
764.465
781.299
795.724
807.037
814.494
817.321
814.722
805.892
790.013
766.249
733.734
691.571
638.838
574.54
497.719
407.895
303.831
183.084
64.6389
589.904
608.54
620.451
630.302
638.269
647.368
657.715
669.842
679.478
686.922
693.689
699.235
702.307
703.846
704.464
703.696
701.071
696.231
688.762
678.317
665.162
652.803
650.4
660.19
671.467
682.748
692.715
702.019
711.614
721.805
732.529
743.658
754.992
766.245
777.096
787.209
796.242
803.869
809.794
813.76
815.562
815.056
812.159
806.855
799.193
789.286
777.304
763.469
748.045
731.334
713.661
695.369
676.806
658.318
640.236
622.876
606.526
591.442
577.849
565.934
555.85
547.716
541.619
537.615
535.732
535.967
538.296
542.672
549.026
557.264
567.264
578.859
591.766
605.668
620.839
637.612
655.793
674.999
694.779
714.612
733.933
752.135
768.58
782.603
793.498
800.528
802.924
799.902
790.663
774.401
750.294
717.494
675.144
622.386
558.3
482.108
393.666
291.37
174.158
62.3105
589.518
608.148
620.145
630.084
638.069
647.233
657.77
669.982
679.687
686.975
693.528
698.939
701.913
703.254
703.674
702.716
699.907
694.923
687.406
677.106
664.435
652.762
650.288
659.443
670.491
681.436
691.647
701.194
711.002
721.393
732.331
743.698
755.295
766.833
777.985
788.407
797.747
805.665
811.853
816.043
818.019
817.626
814.774
809.441
801.673
791.583
779.341
765.174
749.353
732.188
714.013
695.182
676.054
656.986
638.32
620.382
603.466
587.838
573.725
561.319
550.773
542.203
535.695
531.301
529.044
528.919
530.897
534.926
540.935
548.827
558.479
569.736
582.34
595.93
610.576
626.754
644.417
663.157
682.513
701.949
720.885
738.704
754.764
768.391
778.886
785.512
787.513
784.112
774.523
757.951
733.591
700.619
658.222
605.606
541.934
466.631
379.786
279.493
166.117
60.6804
589.117
607.731
619.823
629.858
637.87
647.083
657.838
670.127
679.908
687.048
693.379
698.626
701.51
702.653
702.868
701.718
698.723
693.595
686.033
675.873
663.653
652.61
650.099
658.622
669.56
680.136
690.534
700.332
710.365
720.971
732.14
743.764
755.646
767.493
778.97
789.726
799.395
807.626
814.098
818.529
820.69
820.417
817.611
812.245
804.36
794.067
781.541
767.011
750.756
733.094
714.37
694.949
675.203
655.499
636.192
617.619
600.082
583.856
569.172
556.224
545.167
536.117
529.153
524.325
521.652
521.125
522.71
526.352
531.975
539.481
548.748
559.626
571.885
585.162
599.303
614.853
631.954
650.2
669.111
688.138
706.683
724.12
739.798
753.044
763.157
769.412
771.058
767.332
757.46
740.664
716.155
683.139
640.852
588.562
525.519
451.369
366.331
268.261
158.999
59.7642
588.714
607.287
619.485
629.627
637.677
646.924
657.909
670.279
680.143
687.141
693.243
698.3
701.096
702.045
702.047
700.701
697.521
692.249
684.642
674.615
662.814
652.349
649.827
657.729
668.564
678.852
689.379
699.432
709.701
720.538
731.957
743.86
756.049
768.229
780.057
791.172
801.197
809.765
816.542
821.231
823.591
823.446
820.688
815.282
807.268
796.754
783.916
768.99
752.261
734.057
714.733
694.668
674.245
653.846
633.839
614.57
596.353
579.47
564.158
550.616
538.996
529.415
521.948
516.64
513.505
512.53
513.677
516.886
522.079
529.157
537.998
548.453
560.323
573.259
586.941
601.85
618.338
636.06
654.51
673.118
691.269
708.326
723.632
736.512
746.271
752.19
753.53
749.542
739.465
722.54
698
665.084
623.077
571.309
509.125
436.388
353.362
257.719
152.834
59.5826
588.271
606.82
619.132
629.393
637.499
646.774
657.996
670.445
680.391
687.252
693.121
697.974
700.67
701.427
701.212
699.666
696.299
690.884
683.23
673.33
661.918
651.978
649.464
656.766
667.447
677.593
688.184
698.495
709.01
720.094
731.783
743.987
756.507
769.046
781.253
792.756
803.163
812.095
819.199
824.165
826.739
826.73
824.021
818.571
810.414
799.658
786.481
771.123
753.878
735.083
715.105
694.337
673.176
652.019
631.246
611.216
592.256
574.653
558.654
544.458
532.221
522.054
514.033
508.195
504.549
503.076
503.735
506.462
511.176
517.779
526.147
536.136
547.566
560.12
573.398
587.673
603.496
620.67
638.642
656.825
674.584
691.268
706.215
718.751
728.185
733.81
734.9
730.719
720.526
703.58
679.139
646.479
604.937
553.899
492.81
421.748
340.928
247.904
147.641
60.1581
587.794
606.324
618.764
629.158
637.338
646.646
658.113
670.633
680.653
687.377
693.01
697.647
700.228
700.8
700.364
698.613
695.059
689.501
681.799
672.016
660.963
651.5
649.003
655.743
666.232
676.368
686.955
697.52
708.293
719.64
731.616
744.145
757.023
769.948
782.564
794.484
805.304
814.626
822.083
827.348
830.15
830.287
827.63
822.13
813.817
802.797
789.251
773.424
755.617
736.178
715.49
693.957
671.992
650.007
628.399
607.54
587.767
569.379
552.626
537.715
524.799
513.991
505.36
498.937
494.726
492.703
492.82
495.011
499.194
505.268
513.116
522.594
533.535
545.662
558.559
572.226
587.354
603.956
621.441
639.197
656.568
672.89
687.495
699.712
708.857
714.235
715.136
710.841
700.63
683.782
659.583
627.348
586.467
536.375
476.627
407.494
329.071
238.84
143.439
61.5141
587.268
605.801
618.382
628.923
637.199
646.549
658.267
670.841
680.927
687.516
692.908
697.318
699.771
700.164
699.502
697.543
693.8
688.097
680.346
670.673
659.948
650.916
648.443
654.667
664.928
675.153
685.698
696.506
707.551
719.173
731.458
744.335
757.597
770.94
783.995
796.365
807.629
817.372
825.209
830.795
833.843
834.137
831.535
825.98
817.497
806.19
792.243
775.906
757.489
737.352
715.891
693.526
670.687
647.803
625.286
603.522
582.863
563.617
546.043
530.348
516.691
505.179
495.877
488.812
483.978
481.346
480.864
482.462
486.056
491.548
498.822
507.74
518.145
529.799
542.3
555.41
569.842
585.844
602.836
620.168
637.161
653.136
667.422
679.349
688.246
693.43
694.21
689.888
679.764
663.143
639.339
607.71
567.696
518.776
460.618
393.669
317.822
230.551
140.244
63.6732
586.709
605.249
617.986
628.688
637.081
646.487
658.452
671.068
681.212
687.667
692.814
696.985
699.294
699.518
698.627
696.455
692.522
686.675
678.871
669.297
658.874
650.229
647.784
653.536
663.539
673.884
684.416
695.454
706.78
718.693
731.308
744.558
758.233
772.024
785.552
798.406
810.148
820.345
828.591
834.524
837.837
838.299
835.756
830.141
821.474
809.857
795.476
778.586
759.509
738.615
716.316
693.049
669.261
645.398
621.892
599.145
577.521
557.34
538.869
522.32
507.852
495.57
485.534
477.763
472.244
468.941
467.797
468.738
471.682
476.53
483.171
491.477
501.296
512.428
524.498
537.131
550.888
566.258
582.758
599.675
616.305
631.953
645.944
657.617
666.309
671.359
672.092
667.835
657.914
641.659
618.415
587.584
548.651
501.137
444.822
380.306
307.208
223.054
138.075
66.6557
586.138
604.663
617.575
628.454
636.984
646.457
658.651
671.312
681.506
687.829
692.727
696.645
698.798
698.863
697.739
695.349
691.226
685.232
677.374
667.889
657.74
649.443
647.025
652.35
662.075
672.526
683.115
694.364
705.979
718.197
731.163
744.814
758.931
773.203
787.24
800.614
812.87
823.556
832.244
838.55
842.149
842.793
840.315
834.637
825.771
813.82
798.969
781.484
761.692
739.979
716.772
692.527
667.709
642.786
618.206
594.39
571.717
550.519
531.071
513.591
498.237
485.114
474.274
465.73
459.46
455.419
453.545
453.762
455.987
460.125
466.073
473.709
482.895
493.452
505.052
517.271
530.399
545.118
561.135
577.653
593.941
609.287
623.015
634.47
643.008
647.985
648.753
644.662
635.066
619.324
596.814
566.982
529.355
483.484
429.27
367.433
297.253
216.366
136.95
70.4782
585.515
604.047
617.148
628.22
636.908
646.455
658.848
671.578
681.812
688.005
692.65
696.308
698.285
698.196
696.839
694.226
689.911
683.77
675.852
666.447
656.547
648.56
646.166
651.104
660.546
671.085
681.799
693.234
705.145
717.684
731.025
745.103
759.693
774.48
789.062
802.996
815.806
827.017
836.181
842.89
846.8
847.642
845.235
839.49
830.412
818.101
802.746
784.617
764.054
741.457
717.269
691.965
666.033
639.96
614.216
589.239
565.427
543.124
522.614
504.12
487.802
473.76
462.042
452.652
445.558
440.708
438.031
437.451
438.885
442.244
447.433
454.341
462.843
472.781
483.876
495.697
508.255
522.347
537.896
554.04
570.014
585.089
598.587
609.867
618.304
623.276
624.164
620.346
611.205
596.132
574.539
545.916
509.826
465.844
413.989
355.077
287.977
210.504
136.886
75.1518
584.845
603.395
616.707
627.987
636.854
646.484
659.043
671.86
682.131
688.196
692.59
695.98
697.753
697.515
695.926
693.086
688.576
682.287
674.307
664.97
655.294
647.584
645.21
649.797
658.954
669.561
680.465
692.062
704.276
717.153
730.89
745.422
760.519
775.856
791.024
805.558
818.962
830.741
840.418
847.563
851.809
852.867
850.539
844.725
835.421
822.726
806.829
788.009
766.615
743.064
717.817
691.371
664.233
636.916
609.91
583.676
558.629
535.125
513.462
493.866
476.498
461.457
448.781
438.467
430.472
424.734
421.177
419.722
420.287
422.791
427.149
433.265
441.029
450.305
460.861
472.283
484.35
497.872
512.972
528.776
544.47
559.309
572.618
583.769
592.161
597.201
598.299
594.865
586.318
572.077
551.592
524.396
490.081
448.238
399.003
343.26
279.401
205.487
137.903
80.6801
584.115
602.708
616.25
627.756
636.823
646.547
659.244
672.161
682.467
688.404
692.549
695.661
697.204
696.817
695
691.928
687.223
680.784
672.737
663.459
653.983
646.517
644.158
648.426
657.306
667.956
679.092
690.85
703.369
716.601
730.757
745.772
761.408
777.335
793.128
808.306
822.35
834.737
844.968
852.584
857.195
858.49
856.252
850.368
840.826
827.72
811.244
791.681
769.395
744.818
718.43
690.75
662.312
633.65
605.28
577.685
551.298
526.494
503.579
482.786
464.278
448.149
434.431
423.108
414.13
407.421
402.9
400.484
400.096
401.664
405.114
410.372
417.342
425.913
435.894
446.901
458.591
471.623
486.293
501.806
517.26
531.905
545.067
556.138
564.546
569.729
571.132
568.202
560.39
547.152
527.973
502.429
470.133
430.685
384.334
332.003
271.545
201.336
140.018
87.0571
583.332
601.984
615.777
627.527
636.815
646.648
659.461
672.487
682.823
688.629
692.526
695.353
696.648
696.101
694.061
690.754
685.85
679.26
671.143
661.912
652.614
645.363
643.013
646.992
655.603
666.272
677.644
689.594
702.422
716.027
730.623
746.151
762.361
778.916
795.38
811.247
825.976
839.019
849.846
857.972
862.979
864.533
862.398
856.445
846.653
833.112
816.017
795.66
772.417
746.737
719.122
690.114
660.272
630.159
600.315
571.249
543.413
517.2
492.929
470.839
451.093
433.782
418.93
406.51
396.458
388.689
383.113
379.646
378.216
378.76
381.223
385.551
391.674
399.5
408.873
419.455
430.863
443.506
457.794
473.075
488.342
502.84
515.901
526.946
535.432
540.837
542.644
540.338
533.41
521.351
503.682
480.021
449.996
413.204
370.004
321.327
264.432
198.073
143.249
94.2649
582.524
601.217
615.287
627.3
636.83
646.788
659.702
672.844
683.2
688.87
692.521
695.056
696.093
695.366
693.107
689.563
684.457
677.714
669.523
660.33
651.188
644.124
641.777
645.491
653.844
664.513
676.104
688.289
701.434
715.426
730.486
746.556
763.377
780.602
797.78
814.386
829.85
843.597
855.067
863.744
869.182
871.02
869.003
862.983
852.93
838.929
821.177
799.972
775.705
748.842
719.909
689.472
658.121
626.443
595.009
564.353
534.951
507.215
481.475
457.979
436.892
418.299
402.215
388.602
377.381
368.455
361.728
357.113
354.544
353.973
355.365
358.691
363.909
370.954
379.7
389.86
401.052
413.418
427.416
442.54
457.681
472.083
485.094
496.166
504.797
510.506
512.817
511.261
505.369
494.669
478.721
457.18
429.683
395.812
356.031
311.255
258.084
195.729
147.612
102.271
581.654
600.41
614.78
627.075
636.867
646.967
659.973
673.236
683.6
689.129
692.532
694.769
695.538
694.609
692.139
688.356
683.045
676.148
667.877
658.711
649.707
642.803
640.452
643.922
652.03
662.683
674.48
686.933
700.401
714.794
730.343
746.986
764.454
782.392
800.333
817.728
833.98
848.483
860.645
869.918
875.824
877.976
876.093
870.011
859.688
845.203
826.753
804.646
779.285
751.156
720.81
688.839
655.864
622.502
589.355
556.984
525.891
496.508
469.18
444.164
421.624
401.642
384.222
369.312
356.82
346.636
338.653
332.786
328.976
327.192
327.423
329.671
333.926
340.155
348.265
358.022
369.055
381.261
395.109
410.163
425.249
439.614
452.629
463.785
472.628
478.722
481.642
480.964
476.264
467.108
453.094
433.915
409.206
378.528
342.439
301.81
252.532
194.337
153.12
111.024
580.724
599.56
614.257
626.852
636.928
647.186
660.279
673.666
684.023
689.405
692.56
694.491
694.983
693.83
691.156
687.133
681.614
674.562
666.207
657.058
648.171
641.404
639.041
642.286
650.16
660.785
672.777
685.522
699.318
714.128
730.188
747.437
765.591
784.287
803.041
821.278
838.373
853.688
866.594
876.511
882.926
885.424
883.696
877.559
866.957
851.964
832.776
809.711
783.184
753.704
721.844
688.23
653.51
618.338
583.347
549.129
516.213
485.052
456.009
429.349
405.238
383.752
364.885
348.569
334.696
323.143
313.794
306.563
301.402
298.3
297.277
298.368
301.605
306.989
314.462
323.839
334.762
346.97
360.848
375.923
391.037
405.424
418.5
429.8
438.922
445.487
449.119
449.448
446.097
438.673
426.811
410.237
388.584
361.374
329.251
293.018
247.808
193.938
159.781
120.451
579.73
598.664
613.718
626.632
637.011
647.445
660.622
674.133
684.469
689.698
692.606
694.225
694.431
693.032
690.155
685.894
680.165
672.954
664.512
655.371
646.583
639.931
637.547
640.58
648.23
658.82
670.998
684.052
698.182
713.421
730.019
747.904
766.785
786.286
805.905
825.04
843.038
859.222
872.93
883.542
890.512
893.389
891.839
885.656
874.77
859.245
839.281
815.199
787.433
756.511
723.035
687.661
651.071
613.956
576.982
540.775
505.895
472.818
441.925
413.489
387.68
364.568
344.135
326.296
310.925
297.885
287.051
278.337
271.709
267.18
264.805
264.663
266.828
271.347
278.196
287.226
298.105
310.505
324.608
339.816
355.048
369.525
382.719
394.222
403.693
410.812
415.263
416.729
414.884
409.379
399.886
386.165
367.838
344.378
316.495
284.913
243.953
194.583
167.599
130.455
578.675
597.725
613.161
626.415
637.118
647.747
661.008
674.638
684.938
690.009
692.672
693.978
693.886
692.223
689.134
684.639
678.698
671.327
662.794
653.651
644.944
638.385
635.972
638.805
646.242
656.79
669.145
682.518
696.986
712.67
729.83
748.385
768.033
788.388
808.927
829.02
847.98
865.097
879.666
891.029
898.601
901.897
900.551
894.334
883.159
867.082
846.3
821.145
792.064
759.608
724.407
687.151
648.56
609.36
570.257
531.914
494.92
459.779
426.89
396.539
368.898
344.029
321.903
302.415
285.422
270.769
258.322
247.999
239.78
233.71
229.885
228.432
229.48
233.123
239.378
248.121
259.052
271.837
286.373
301.859
317.31
331.948
345.321
357.086
366.976
374.735
380.109
382.84
382.657
379.258
372.351
361.727
346.998
327.573
304.204
277.53
241.014
196.333
176.57
140.906
577.6
596.735
612.588
626.202
637.248
648.09
661.439
675.181
685.431
690.341
692.759
693.753
693.346
691.414
688.091
683.37
677.214
669.681
661.053
651.899
643.257
636.77
634.318
636.96
644.193
654.695
667.217
680.913
695.723
711.868
729.616
748.874
769.333
790.591
812.107
833.22
853.209
871.323
886.818
898.991
907.217
910.973
909.862
903.626
892.159
875.509
853.871
827.583
797.109
763.023
725.986
686.722
645.99
604.558
563.173
522.534
483.268
445.907
410.869
378.454
348.837
322.073
298.118
276.849
258.1
241.698
227.503
215.435
205.496
197.766
192.39
189.552
189.442
192.213
197.921
206.466
217.587
230.957
246.162
262.105
277.881
292.756
306.369
318.461
328.84
337.322
343.722
347.844
349.475
348.362
344.255
336.968
326.107
311.006
292.42
270.917
239.049
199.264
186.673