/*--------------------------------*- C++ -*----------------------------------*\
| =========                 |                                                 |
| \\      /  F ield         | OpenFOAM: The Open Source CFD Toolbox           |
|  \\    /   O peration     | Version:  4.1                                   |
|   \\  /    A nd           | Web:      www.OpenFOAM.org                      |
|    \\/     M anipulation  |                                                 |
\*---------------------------------------------------------------------------*/
FoamFile
{
    version     2.0;
    format      ascii;
    class       surfaceScalarField;
    location    "1500";
    object      phi;
}
// * * * * * * * * * * * * * * * * * * * * * * * * * * * * * * * * * * * * * //

dimensions      [0 3 -1 0 0 0 0];

internalField   nonuniform List<scalar> 
52920
(
-2745.89
-126.37
-2735.54
-10.3531
-2803.12
67.5732
-2949.23
146.102
-3115.71
166.463
-3242.72
127
-3289.05
46.3135
-3252.07
-36.9812
-3148.02
-104.068
-2989.06
-158.965
-2786.3
-202.773
-2553.41
-232.905
-2296.61
-256.816
-2009.81
-286.81
-1684.95
-324.872
-1323.13
-361.837
-940.463
-382.687
-538.796
-401.689
14.9784
-553.8
743.73
-728.774
1399.31
-655.599
1527.05
-127.771
558.502
968.528
-1012.18
1570.67
-1918.72
906.515
-2107.97
189.235
-2305.44
197.447
-2501.87
196.416
-2674.52
172.632
-2844.5
169.967
-3015.48
170.962
-3185.74
170.246
-3355.67
169.915
-3525.86
170.185
-3696.32
170.448
-3867.22
170.883
-4038.78
171.556
-4211.32
172.528
-4385.23
173.898
-4561
175.76
-4739.21
178.203
-4920.51
181.287
-5105.55
185.031
-5294.96
189.401
-5489.27
194.305
-5688.87
199.596
-5893.97
205.084
-6104.52
210.55
-6320.3
215.766
-6540.81
220.515
-6765.43
224.605
-6993.31
227.882
-7223.54
230.223
-7455.07
231.526
-7686.76
231.685
-7917.33
230.574
-8145.37
228.038
-8369.3
223.927
-8587.44
218.138
-8798.11
210.67
-8999.73
201.615
-9190.82
191.09
-9369.91
179.089
-9535.28
165.373
-9684.75
149.474
-9815.59
130.84
-9924.6
109.006
-10008.3
83.6952
-10063.1
54.7982
-10085.1
22.0253
-10069.9
-15.2233
-10012.4
-57.5063
-9907.82
-104.564
-9751.94
-155.879
-9540.41
-211.531
-9268.7
-271.714
-8932.02
-336.678
-8525.56
-406.453
-8044.99
-480.578
-7487.08
-557.906
-6850.14
-636.938
-6133.15
-716.99
-5334.36
-798.796
-4452.17
-882.185
-3485.09
-967.081
-2420.14
-1064.94
-1229.55
-1190.59
120.92
-1350.47
1558.76
-1437.84
3082.43
-1523.67
4717.97
-1635.54
6456.6
-1738.63
8297.5
-1840.9
10253
-1955.51
12340.2
-2087.19
14588
-2247.75
17037
-2449.04
19766
-2729.01
22774.4
-3008.37
-3815.47
-3003.34
-328.887
-2860.43
-153.269
-2840.99
48.1292
-2955.69
260.785
-3152.47
363.236
-3350.28
324.8
-3484.7
180.716
-3529.46
7.77159
-3491.64
-141.893
-3390.68
-259.935
-3246.91
-346.558
-3078.48
-401.348
-2893.7
-441.616
-2688.59
-491.926
-2455.2
-558.277
-2187.53
-629.515
-1875.03
-695.204
-1497.4
-779.323
-1055.33
-995.89
-490.614
-1293.5
241.162
-1387.39
588.998
-475.638
326.239
1231.26
-901.055
2797.95
-1849.62
1855.06
-2044.79
384.395
-2227.65
380.284
-2425.53
394.274
-2601.02
348.112
-2769.62
338.547
-2939.84
341.172
-3110.24
340.631
-3280.53
340.19
-3451.43
341.076
-3623.03
342.034
-3795.46
343.296
-3968.92
345.009
-4143.69
347.289
-4320.12
350.319
-4498.66
354.284
-4679.83
359.362
-4864.23
365.678
-5052.48
373.276
-5245.18
382.097
-5442.85
391.97
-5645.88
402.617
-5854.48
413.672
-6068.65
424.712
-6288.18
435.292
-6512.65
444.977
-6741.43
453.38
-6973.73
460.179
-7208.63
465.121
-7445.11
468.004
-7682.07
468.634
-7918.27
466.778
-8152.38
462.138
-8382.82
454.371
-8607.86
443.172
-8825.56
428.37
-9033.92
409.977
-9230.94
388.113
-9414.64
362.788
-9582.96
333.686
-9733.62
300.132
-9864.07
261.296
-9971.51
216.446
-10052.9
165.119
-10105.2
107.107
-10125.2
42.0071
-10108.9
-31.5937
-10051.1
-115.269
-9946.73
-208.928
-9790.99
-311.62
-9579.43
-423.09
-9308.19
-542.949
-8974.03
-670.845
-8574.14
-806.34
-8105.96
-948.755
-7566.94
-1096.93
-6954.45
-1249.43
-6265.71
-1405.73
-5497.53
-1566.97
-4646.7
-1733.02
-3711
-1902.78
-2687.42
-2088.52
-1564.77
-2313.25
-330.557
-2584.68
1039.81
-2808.21
2520.73
-3004.6
4100.64
-3215.45
5782
-3419.99
7567.49
-3626.39
9467.27
-3855.29
11502.4
-4122.31
13690.4
-4435.71
16091.3
-4849.95
18733.8
-5371.53
21700.4
-5975.03
-7468.28
-3276.11
-527.202
-3062.49
-366.893
-2937.15
-77.2197
-2969.33
292.962
-3140.51
534.395
-3359.87
544.154
-3536.31
357.149
-3619.41
90.8639
-3609.97
-151.346
-3533.76
-336.146
-3415.79
-464.537
-3275.2
-541.949
-3120.96
-595.868
-2949.74
-663.154
-2753.25
-754.779
-2525
-857.775
-2256.59
-963.622
-1934.39
-1101.54
-1558.3
-1371.99
-1100.16
-1751.64
-527.243
-1960.32
-5.36095
-997.537
-193.243
1419.11
-1000.2
3604.89
-1780.08
2634.93
-1986.79
591.084
-2141.25
534.731
-2330.99
583.999
-2510.16
527.266
-2678.05
506.423
-2847.1
510.21
-3017.72
511.233
-3188.76
511.216
-3360.83
513.135
-3534.16
515.357
-3708.89
518.018
-3885.23
521.332
-4063.43
525.478
-4243.81
530.699
-4426.79
537.254
-4612.83
545.393
-4802.46
555.301
-4996.25
567.05
-5194.72
580.565
-5398.37
595.612
-5607.56
611.805
-5822.53
628.629
-6043.3
645.481
-6269.74
661.714
-6501.45
676.688
-6737.88
689.809
-6978.27
700.565
-7221.7
708.545
-7467.12
713.423
-7713.4
714.907
-7959.29
712.665
-8203.42
706.263
-8444.2
695.159
-8679.82
678.785
-8908.17
656.715
-9126.98
628.79
-9333.97
595.106
-9526.95
555.766
-9703.8
510.533
-9862.34
458.673
-10000.2
399.136
-10114.6
330.868
-10202.6
253.085
-10260.9
165.416
-10286.5
67.6206
-10275.8
-42.2606
-10224.3
-166.815
-10126.9
-306.254
-9979.35
-459.214
-9777.35
-625.095
-9517.3
-803
-9196.06
-992.086
-8810.88
-1191.52
-8359.28
-1400.36
-7838.87
-1617.33
-7247.25
-1841.05
-6581.84
-2071.14
-5840.04
-2308.77
-5019.32
-2553.74
-4116.92
-2805.18
-3130.83
-3074.62
-2059.62
-3384.45
-905.083
-3739.22
368.196
-4081.49
1763.39
-4399.79
3264.64
-4716.7
4873.14
-5028.49
6590.35
-5343.6
8424.14
-5689.09
10396
-6094.13
12512.9
-6552.64
14848.2
-7185.25
17387.2
-7910.48
20281.8
-8869.73
-10944.6
-3503.74
-700.798
-3273.69
-596.942
-3074.86
-276.058
-3013.02
231.111
-3124.13
645.49
-3331.13
751.144
-3532.96
558.972
-3656.87
214.77
-3683.05
-125.182
-3632.34
-386.861
-3534.79
-562.104
-3413.68
-663.064
-3280.67
-728.891
-3133.71
-810.124
-2964.35
-924.15
-2765.74
-1056.4
-2531.13
-1198.24
-2251.43
-1381.25
-1927.6
-1695.83
-1544.89
-2134.36
-1088.55
-2416.67
-625.447
-1460.65
-669.834
1463.48
-1138.13
4073.18
-1680.93
3177.72
-1925.91
836.049
-2063.05
671.847
-2235.86
756.797
-2415.65
707.037
-2583.93
674.693
-2751.87
678.13
-2922.59
681.942
-3094.73
683.346
-3268.47
686.856
-3444.11
690.992
-3621.85
695.741
-3801.87
701.339
-3984.44
708.038
-4169.87
716.124
-4358.53
725.899
-4550.81
737.667
-4747.17
751.65
-4948.07
767.944
-5153.97
786.465
-5365.3
806.937
-5582.4
828.888
-5805.47
851.689
-6034.58
874.589
-6269.64
896.768
-6510.34
917.388
-6756.19
935.646
-7006.44
950.819
-7260.21
962.301
-7516.39
969.603
-7773.8
972.311
-8031.13
969.996
-8286.98
962.11
-8539.76
947.934
-8787.62
926.647
-9028.43
897.521
-9259.8
860.156
-9479.25
814.56
-9684.4
760.921
-9873.03
699.162
-10043
628.606
-10191.9
548.051
-10317.1
456.117
-10415.7
351.676
-10484.5
234.218
-10520.7
103.787
-10521
-41.9587
-10481.2
-206.601
-10396.7
-390.782
-10263
-592.911
-10076.1
-812.013
-9832.33
-1046.73
-9528.64
-1295.77
-9162.28
-1557.88
-8730.81
-1831.82
-8231.99
-2116.15
-7663.55
-2409.49
-7023.13
-2711.55
-6308.67
-3023.24
-5518.1
-3344.31
-4648.52
-3674.76
-3698.2
-4024.93
-2670.76
-4411.89
-1573.65
-4836.33
-382.806
-5272.33
922.477
-5705.07
2338.7
-6132.92
3866.53
-6556.32
5506.65
-6983.73
7264.79
-7447.23
9159.85
-7989.19
11193.1
-8585.87
13441.8
-9433.96
15857.5
-10326.2
18650.3
-11662.5
-14205.4
-3681.7
-846.383
-3465.11
-813.532
-3230.71
-510.463
-3090.01
90.4015
-3127.68
683.15
-3299.28
922.736
-3506.49
766.177
-3663.51
371.782
-3726.27
-62.4371
-3702.02
-411.114
-3623.13
-641.009
-3517.6
-768.595
-3400.7
-845.802
-3272.39
-938.447
-3124.34
-1072.21
-2949.17
-1231.57
-2741.1
-1406.32
-2494.25
-1628.11
-2211.07
-1979.02
-1885.06
-2460.38
-1513.84
-2787.9
-1166.79
-1807.7
-1120.79
1417.46
-1253.94
4206.32
-1580.74
3504.52
-1856.04
1111.33
-1994.17
809.968
-2148.66
911.271
-2323.33
881.688
-2491.69
843.044
-2658.72
845.15
-2829.24
852.445
-3002.53
856.63
-3178.25
862.559
-3356.63
869.364
-3537.88
876.981
-3722.17
885.624
-3909.77
895.63
-4100.98
907.319
-4296.1
921.014
-4495.48
937.04
-4699.48
955.636
-4908.45
976.909
-5122.76
1000.77
-5342.76
1026.93
-5568.72
1054.85
-5800.87
1083.82
-6039.28
1112.99
-6283.91
1141.39
-6534.53
1168.01
-6790.73
1191.83
-7051.82
1211.91
-7316.93
1227.41
-7584.96
1237.63
-7854.67
1242.02
-8124.7
1240.02
-8393.6
1231
-8659.78
1214.11
-8921.43
1188.3
-9176.45
1152.54
-9422.4
1106.11
-9656.66
1048.83
-9876.66
980.916
-10080
902.489
-10264.4
813.029
-10427.6
711.273
-10567.1
595.559
-10679.8
464.432
-10762.9
317.244
-10813.3
154.242
-10828.2
-27.0866
-10803.7
-231.064
-10735.6
-458.908
-10619.3
-709.163
-10451
-980.371
-10226.9
-1270.8
-9943.98
-1578.71
-9599.43
-1902.43
-9190.88
-2240.37
-8716.17
-2590.86
-8173.2
-2952.47
-7559.89
-3324.86
-6874.5
-3708.63
-6115.28
-4103.52
-5279.73
-4510.31
-4366.87
-4937.79
-3380.59
-5398.17
-2326.34
-5890.57
-1197.67
-6401.01
24.9051
-6927.64
1355.05
-7463.06
2795.49
-7996.76
4352.21
-8540.45
6026.26
-9121.28
7831.86
-9794.79
9770.98
-10525
11910.1
-11573
14188.2
-12604.3
16845.9
-14320.2
-17192.8
-3816.9
-991.589
-3628.61
-1001.82
-3388.48
-750.605
-3193.15
-104.936
-3157.93
647.919
-3281.82
1046.62
-3476.5
960.841
-3653.83
549.109
-3750.29
34.0159
-3753.67
-407.744
-3693.44
-701.258
-3602.2
-859.839
-3498.97
-949.05
-3386.02
-1051.4
-3255.63
-1202.61
-3100.11
-1387.09
-2914.24
-1592.2
-2694.45
-1847.9
-2444.71
-2228.77
-2163.4
-2741.69
-1848.57
-3102.75
-1546.16
-2110.11
-1422.53
1293.81
-1356.68
4140.46
-1519.18
3667.01
-1786.4
1378.54
-1932.89
956.439
-2073.37
1051.74
-2237.66
1045.96
-2403.87
1009.25
-2569.71
1010.97
-2739.54
1022.26
-2913.69
1030.77
-3091.42
1040.28
-3272.76
1050.69
-3457.85
1062.06
-3646.81
1074.57
-3839.86
1088.68
-4037.27
1104.72
-4239.32
1123.05
-4446.26
1143.98
-4658.38
1167.75
-4875.94
1194.46
-5099.2
1224.03
-5328.44
1256.15
-5563.88
1290.28
-5805.73
1325.66
-6054.09
1361.35
-6308.97
1396.27
-6570.22
1429.26
-6837.49
1459.1
-7110.19
1484.61
-7387.5
1504.71
-7668.33
1518.46
-7951.42
1525.1
-8235.34
1523.94
-8518.6
1514.26
-8799.6
1495.12
-9076.6
1465.29
-9347.51
1423.46
-9609.94
1368.53
-9861.13
1300.02
-10098.3
1218.08
-10318.8
1123
-10520.3
1014.51
-10700.4
891.422
-10856.8
751.911
-10986.6
594.231
-11086.9
417.535
-11154.6
221.984
-11186.9
5.18087
-11180.5
-237.408
-11131.6
-507.808
-11035.5
-805.272
-10888.3
-1127.62
-10686.3
-1472.8
-10426.4
-1838.63
-10105.8
-2223.01
-9722.21
-2623.95
-9273.58
-3039.49
-8757.95
-3468.1
-8173.53
-3909.28
-7518.87
-4363.29
-6792.47
-4829.92
-5992.37
-5310.41
-5118.09
-5812.07
-4172.76
-6343.51
-3160.23
-6903.1
-2078.64
-7482.6
-921.4
-8084.88
327.112
-8711.58
1679.69
-9349.34
3148.07
-10008.8
4730.61
-10703.8
6437.32
-11501.5
8273.03
-12360.7
10279.3
-13579.3
12413
-14738.1
14890.6
-16797.8
-19836
-3927.53
-1104.12
-3762.56
-1166.8
-3534.61
-978.556
-3308.92
-330.633
-3213.35
552.329
-3286.64
1119.91
-3455.75
1129.94
-3638.66
732.018
-3761.67
157.013
-3792.16
-377.257
-3751.07
-742.354
-3673.99
-936.935
-3583.27
-1039.78
-3483.73
-1150.95
-3368.61
-1317.74
-3230.23
-1525.49
-3063.7
-1758.73
-2867.14
-2044.47
-2645.85
-2450.06
-2402.01
-2985.54
-2130.15
-3374.61
-1842.55
-2397.72
-1647.96
1099.21
-1466.7
3959.19
-1506.62
3706.92
-1731.97
1603.87
-1882.17
1106.63
-2012.45
1182
-2163.19
1196.69
-2323.83
1169.87
-2487.08
1174.21
-2655.37
1190.54
-2829.68
1205.06
-3009.07
1219.67
-3193.28
1234.88
-3382.27
1251.04
-3576.06
1268.35
-3774.76
1287.37
-3978.59
1308.54
-4187.75
1332.2
-4402.46
1358.68
-4622.92
1388.2
-4849.31
1420.85
-5081.84
1456.55
-5320.68
1495
-5566.06
1535.65
-5818.14
1577.73
-6077.05
1620.26
-6342.83
1662.05
-6615.39
1701.81
-6894.46
1738.16
-7179.53
1769.68
-7469.85
1795.02
-7764.37
1812.99
-8061.83
1822.55
-8360.76
1822.87
-8659.63
1813.12
-8956.8
1792.29
-9250.54
1759.03
-9538.86
1711.77
-9819.36
1649.02
-10089.3
1569.93
-10345.6
1474.43
-10585.5
1362.92
-10806.4
1235.42
-11006
1090.97
-11181.8
927.727
-11331.2
743.687
-11451.4
537.639
-11538.7
309.356
-11590.7
57.1364
-11604.7
-223.354
-11577.2
-535.341
-11503.3
-879.156
-11379.2
-1251.75
-11201.2
-1650.82
-10966.1
-2073.72
-10671.2
-2517.89
-10314.2
-2980.92
-9893.19
-3460.52
-9406.32
-3954.97
-8852.07
-4463.53
-8229.25
-4986.1
-7536.68
-5522.5
-6772.94
-6074.15
-5938.03
-6646.98
-5034.47
-7247.07
-4064.52
-7873.05
-3027.04
-8520.07
-1921.1
-9190.83
-740.987
-9891.69
529.125
-10619.5
1906.41
-11386.1
3391.63
-12189
4993.81
-13103.7
6716.39
-14083.3
8572.7
-15435.6
10556.7
-16722.1
12796.8
-19037.9
-22072.8
-4015.05
-1192.37
-3872.82
-1309.03
-3664.17
-1187.21
-3427
-567.806
-3286.08
411.395
-3312.59
1146.4
-3450.42
1267.76
-3626.83
908.42
-3767.26
297.433
-3822.33
-322.192
-3800.22
-764.484
-3737.07
-1000.09
-3658.13
-1118.73
-3570.69
-1238.4
-3469.25
-1419.19
-3346.26
-1648.48
-3197.14
-1907.86
-3021.13
-2220.49
-2824.7
-2646.5
-2613.32
-3196.93
-2378.42
-3609.51
-2094.33
-2681.82
-1825.82
830.68
-1581.06
3714.42
-1532.63
3658.48
-1705.08
1776.3
-1849.68
1251.21
-1969.47
1301.78
-2104.87
1332.08
-2256.11
1321.09
-2414.17
1332.26
-2579.36
1355.72
-2752.58
1378.28
-2932.79
1399.86
-3119.34
1421.43
-3311.95
1443.64
-3510.43
1466.82
-3714.74
1491.67
-3924.96
1518.75
-4141.23
1548.47
-4363.72
1581.16
-4592.56
1617.03
-4827.9
1656.18
-5069.87
1698.51
-5318.61
1743.74
-5574.31
1791.34
-5837.11
1840.53
-6107.14
1890.28
-6384.46
1939.36
-6669.01
1986.36
-6960.58
2029.72
-7258.73
2067.83
-7562.81
2099.09
-7871.82
2122
-8184.55
2135.27
-8499.51
2137.83
-8815.1
2128.71
-9129.65
2106.84
-9441.42
2070.79
-9748.43
2018.78
-10048.4
1948.99
-10338.6
1860.1
-10615.9
1751.73
-10877.2
1624.24
-11119.7
1477.93
-11340.9
1312.19
-11538.5
1125.3
-11709.8
915.017
-11851.8
679.615
-11960.8
418.348
-12034.5
130.843
-12071
-186.896
-12066.6
-539.751
-12016.6
-929.08
-11917.3
-1351.13
-11764.8
-1803.31
-11556
-2282.49
-11288.2
-2785.67
-10959.2
-3309.93
-10567.1
-3852.67
-10110.1
-4411.89
-9587.14
-4986.53
-8997.09
-5576.15
-8339.07
-6180.52
-7612.22
-6801.01
-6816.89
-7442.3
-5955.22
-8108.74
-5028.8
-8799.48
-4036.8
-9512.07
-2978.32
-10249.3
-1853.48
-11016.5
-654.38
-11818.6
634.173
-12674.7
2020.41
-13575.3
3513.32
-14596.6
5113.77
-15683.7
6812.77
-17134.6
8634.44
-18543.8
10584.4
-20987.8
-23877.5
-4086.19
-1261.82
-3964.38
-1430.84
-3777.44
-1374.16
-3543.49
-801.762
-3371.81
239.71
-3356.59
1131.18
-3462.07
1373.23
-3623.89
1070.24
-3772.76
446.299
-3848.21
-246.758
-3843.85
-768.85
-3794.25
-1049.71
-3726.55
-1186.43
-3650.29
-1314.67
-3561.34
-1508.15
-3452.5
-1757.33
-3319.39
-2040.97
-3162.04
-2377.85
-2987.74
-2820.81
-2805.04
-3379.64
-2606.33
-3808.22
-2332.89
-2955.27
-1986.55
484.331
-1701.58
3429.44
-1592.23
3549.12
-1716.29
1900.35
-1844.62
1379.53
-1950
1407.15
-2068.21
1450.27
-2206.17
1459.04
-2355.54
1481.62
-2515.17
1515.34
-2685.38
1548.48
-2864.9
1579.37
-3052.72
1609.24
-3248.19
1639.1
-3450.84
1669.46
-3660.39
1701.22
-3876.76
1735.11
-4099.97
1771.67
-4330.1
1811.29
-4567.26
1854.19
-4811.54
1900.46
-5063.06
1950.02
-5321.93
2002.6
-5588.27
2057.68
-5862.23
2114.48
-6143.9
2171.95
-6433.34
2228.8
-6730.5
2283.52
-7035.22
2334.43
-7347.13
2379.74
-7665.64
2417.6
-7989.87
2446.23
-8318.65
2464.05
-8650.52
2469.7
-8983.83
2462.03
-9316.84
2439.85
-9647.75
2401.7
-9974.66
2345.69
-10295.4
2269.69
-10607.2
2171.93
-10907
2051.57
-11191.6
1908.79
-11457.7
1744.06
-11702.7
1557.16
-11924
1346.61
-12119
1110
-12284.5
845.171
-12417.2
551.053
-12514.7
228.358
-12575.2
-126.38
-12595.4
-519.642
-12570.8
-953.598
-12497.6
-1424.39
-12371.9
-1928.98
-12190.6
-2463.76
-11951.1
-3025.2
-11651.1
-3609.92
-11288.8
-4214.93
-10862.8
-4837.91
-10371.9
-5477.43
-9815.38
-6132.7
-9192.54
-6803.36
-8502.95
-7490.6
-7747.27
-8197.99
-6927.38
-8928.63
-6044.67
-9682.18
-5098.88
-10457.9
-4089.46
-11258.7
-3016.1
-12089.9
-1876.72
-12957.9
-667.527
-13883.9
624.214
-14867
2004.55
-15976.9
3476.84
-17156
5017.18
-18674.9
6658.11
-20184.7
8293.02
-22622.7
-25272.6
-4145.28
-1316.23
-4041.59
-1534.54
-3875.72
-1540.03
-3653.13
-1024.36
-3462.35
48.9135
-3412.11
1080.93
-3487.61
1448.72
-3630.68
1213.3
-3780.38
595.982
-3871.38
-155.764
-3883.58
-756.657
-3847.34
-1085.96
-3790.62
-1243.16
-3724.86
-1380.43
-3647.51
-1585.51
-3551.85
-1853
-3433.69
-2159.13
-3293.57
-2517.98
-3139.29
-2975.09
-2981.74
-3537.2
-2816.31
-3973.66
-2564.81
-3206.77
-2165.78
85.2834
-1842.04
3105.69
-1689.55
3396.62
-1772.16
1982.95
-1874.24
1481.6
-1960.12
1493.02
-2058.81
1548.94
-2179.73
1579.95
-2316.53
1618.41
-2467.37
1666.17
-2631.89
1712.99
-2808.53
1755.99
-2995.89
1796.6
-3192.9
1836.1
-3398.73
1875.28
-3612.81
1915.29
-3834.79
1957.09
-4064.54
2001.41
-4302.05
2048.78
-4547.34
2099.47
-4800.5
2153.61
-5061.59
2211.11
-5330.71
2271.71
-5607.95
2334.91
-5893.4
2399.92
-6187.14
2465.68
-6489.21
2530.86
-6799.54
2593.85
-7118
2652.88
-7444.26
2706
-7777.82
2751.15
-8117.89
2786.3
-8463.4
2809.55
-8812.91
2819.21
-9164.78
2813.89
-9517.19
2792.26
-9868.29
2752.81
-10216.2
2693.59
-10558.8
2612.29
-10893.5
2506.67
-11217.3
2375.34
-11526.6
2218.11
-11818
2035.48
-12088.5
1827.6
-12335.2
1593.32
-12555.5
1330.3
-12746.5
1036.19
-12905.1
709.67
-13028.4
351.637
-13114.3
-40.4937
-13160.1
-473.851
-13162.2
-951.466
-13116.2
-1470.42
-13018.4
-2026.78
-12865.6
-2616.53
-12655.2
-3235.58
-12385.1
-3880.07
-12053.5
-4546.55
-11659.1
-5232.33
-11200.9
-5935.6
-10678.4
-6655.21
-10091.1
-7390.61
-9439.07
-8142.67
-8723.03
-8914.02
-7944.78
-9706.88
-7105.7
-10521.3
-6206.16
-11357.4
-5246.3
-12218.6
-4226.13
-13110.1
-3144.29
-14039.8
-2003.32
-15024.8
-796.947
-16073.4
473.659
-17247.5
1817.4
-18499.8
3198.75
-20056.3
4644.64
-21630.6
5975.77
-23953.8
-26316.4
-4194.66
-1367.9
-4108.01
-1621.19
-3961.3
-1686.73
-3752.55
-1233.11
-3550.2
-153.445
-3472.01
1002.73
-3522.4
1499.1
-3646.4
1337.3
-3791.71
741.28
-3893.65
-53.8278
-3920.9
-729.423
-3897.6
-1109.27
-3851.68
-1289.09
-3795.99
-1436.13
-3729.54
-1651.97
-3646.27
-1936.28
-3542.22
-2263.18
-3418.23
-2641.97
-3282.4
-3110.93
-3147.15
-3672.46
-3010.38
-4110.43
-2784.22
-3432.94
-2361.86
-337.087
-2007.5
2751.33
-1825.99
3215.09
-1870.12
2027.07
-1941.16
1552.63
-2003.99
1555.83
-2080.99
1625.94
-2181.75
1680.7
-2302.34
1738.99
-2440.83
1804.65
-2596.45
1868.61
-2767.41
1926.95
-2951.96
1981.14
-3148.61
2032.74
-3356.11
2082.78
-3573.56
2132.73
-3800.3
2183.82
-4035.96
2237.07
-4280.37
2293.19
-4533.49
2352.59
-4795.33
2415.44
-5065.92
2481.7
-5345.32
2551.11
-5633.58
2623.16
-5930.76
2697.09
-6236.88
2771.81
-6551.96
2845.93
-6875.92
2917.81
-7208.62
2985.57
-7549.76
3047.14
-7898.92
3100.3
-8255.39
3142.77
-8618.19
3172.34
-8985.97
3187
-9357.11
3185.02
-9729.75
3164.9
-10102
3125.06
-10471.9
3063.53
-10837.5
2977.85
-11196.2
2865.38
-11545
2724.16
-11880.4
2553.44
-12198.5
2353.62
-12496
2125.1
-12769.9
1867.2
-13017.5
1577.91
-13236.1
1254.76
-13422.4
896.052
-13572.9
502.117
-13685.3
71.86
-13757.9
-401.236
-13787.7
-921.652
-13769.9
-1488.26
-13700.8
-2095.83
-13577.3
-2740
-13396.8
-3416.11
-13157.2
-4119.73
-12856.8
-4846.95
-12494.4
-5594.67
-12069.4
-6360.66
-11581.2
-7143.38
-11029.8
-7942.05
-10415.3
-8757.15
-9738.77
-9590.52
-9001.98
-10443.7
-8206.39
-11316.8
-7352.92
-12210.9
-6442.47
-13129
-5475.89
-14076.6
-4453.42
-15062.2
-3377.89
-16100.4
-2248.28
-17203
-1077.94
-18417.9
143.32
-19721
1370.08
-21283
2618.61
-22879.1
3682.41
-25017.6
-27079.7
-4239.4
-1406.17
-4165.87
-1694.73
-4037.51
-1815.1
-3845.53
-1425.1
-3639.79
-359.194
-3538.73
901.657
-3565.84
1526.21
-3670.65
1442.11
-3807.75
878.365
-3916.43
54.8507
-3957.01
-688.864
-3946
-1120.29
-3910.61
-1324.49
-3864.67
-1482.07
-3808.59
-1708.06
-3737.07
-2007.8
-3646.42
-2353.84
-3537.69
-2750.71
-3419.08
-3229.55
-3303.95
-3787.59
-3192.64
-4221.74
-2994.27
-3631.32
-2569.79
-761.575
-2193.07
2374.6
-1991.76
3013.77
-2001.16
2036.45
-2042.71
1594.17
-2082.04
1595.15
-2136.35
1680.24
-2215.21
1759.55
-2316.86
1840.63
-2439.8
1927.58
-2583.26
2012.05
-2745.45
2089.13
-2924.39
2160.08
-3118.27
2226.6
-3325.46
2289.97
-3544.68
2351.94
-3774.94
2414.07
-4015.59
2477.71
-4266.23
2543.82
-4526.68
2613.03
-4796.86
2685.61
-5076.74
2761.57
-5366.31
2840.68
-5665.59
2922.44
-5974.59
3006.08
-6293.28
3090.5
-6621.64
3174.29
-6959.57
3255.74
-7306.92
3332.91
-7663.4
3403.62
-8028.63
3465.52
-8401.98
3516.12
-8782.56
3552.93
-9169.15
3573.59
-9560.18
3576.04
-9953.8
3558.52
-10348.1
3519.32
-10741
3456.43
-11130.4
3367.3
-11514
3248.99
-11888.9
3098.99
-12251.3
2915.93
-12597.6
2699.85
-12923.8
2451.32
-13226.8
2170.14
-13503.6
1854.72
-13751.3
1502.51
-13966.6
1111.36
-14145.5
680.958
-14285.6
212.047
-14386.4
-300.513
-14444.7
-863.349
-14455.8
-1477.08
-14416.3
-2135.4
-14322.7
-2833.57
-14172.6
-3566.24
-13963.8
-4328.45
-13695
-5115.78
-13365
-5924.65
-12973.3
-6752.39
-12519.6
-7597.1
-12003.9
-8457.67
-11426.9
-9334.19
-10789.7
-10227.8
-10094
-11139.3
-9341.62
-12069.2
-8533.92
-13018.6
-7672.54
-13990.4
-6759.23
-14989.9
-5795.98
-16025.5
-4786.7
-17109.6
-3733.45
-18256.2
-2652.32
-19499
-1543.28
-20830.1
-459.232
-22367.1
604.705
-23943
1450.2
-25863.1
-27629.5
-4278.8
-1432.92
-4217.07
-1756.46
-4105.17
-1927.01
-3930.61
-1599.67
-3727.53
-562.279
-3609.95
784.071
-3616.86
1533.11
-3702.57
1527.81
-3828.83
1004.62
-3940.82
166.829
-3992.87
-636.823
-3993.33
-1119.83
-3968.06
-1349.77
-3931.57
-1518.57
-3885.46
-1754.17
-3825.16
-2068.11
-3747.29
-2431.71
-3653.06
-2844.94
-3550.64
-3331.98
-3453.82
-3884.42
-3364.83
-4310.73
-3193.79
-3802.36
-2780.98
-1174.39
-2388.23
1981.84
-2174.79
2800.32
-2155.86
2017.52
-2172.73
1611.03
-2190.86
1613.27
-2223.5
1712.87
-2280.44
1816.48
-2361.89
1922.07
-2467.1
2032.78
-2595.65
2140.59
-2746.12
2239.59
-2916.57
2330.52
-3105
2415.03
-3309.54
2494.5
-3528.57
2570.95
-3760.76
2646.26
-4005.14
2722.08
-4261.07
2799.74
-4528.13
2880.09
-4806.12
2963.59
-5094.9
3050.35
-5394.4
3140.17
-5704.55
3232.59
-6025.32
3326.83
-6356.62
3421.8
-6698.4
3516.06
-7050.53
3607.87
-7412.83
3695.21
-7785.02
3775.81
-8166.71
3847.21
-8557.36
3906.77
-8956.17
3951.74
-9362.04
3979.45
-9773.49
3987.49
-10188.7
3973.75
-10605.7
3936.32
-11022.4
3873.11
-11436.6
3781.51
-11846
3658.41
-12247.8
3500.81
-12638.6
3306.68
-13014.2
3075.49
-13370.6
2807.73
-13704.1
2503.62
-14011.4
2161.99
-14289.3
1780.46
-14534.6
1356.66
-14743.6
889.876
-14913.4
381.916
-15043.4
-170.556
-15130.8
-775.962
-15171.7
-1436.18
-15162.1
-2144.93
-15099
-2896.73
-14979.6
-3685.6
-14802.1
-4505.96
-14565.1
-5352.83
-14267.6
-6222.16
-13909.1
-7110.8
-13489.8
-8016.46
-13009.8
-8937.68
-12469.9
-9874.1
-11871.4
-10826.2
-11216.4
-11794.4
-10506.6
-12779
-9744.2
-13781
-8931.32
-14803.3
-8070.72
-15850.5
-7165.84
-16930.4
-6221.96
-18053.5
-5244.75
-19233.5
-4250.2
-20493.6
-3245.38
-21834.9
-2285.65
-23326.8
-1385.04
-24843.7
-703.271
-26544.9
-28026.4
-4313.96
-1449.63
-4262.87
-1807.55
-4165.63
-2024.26
-4007.39
-1757.91
-3809.14
-760.538
-3679.38
654.302
-3670.82
1524.54
-3739.97
1596.95
-3854.79
1119.44
-3967.62
279.648
-4029.19
-575.259
-4040.1
-1108.94
-4024.49
-1365.39
-3997.22
-1545.85
-3960.77
-1790.63
-3911.21
-2117.68
-3845.54
-2497.38
-3765.17
-2925.32
-3678.07
-3419.09
-3598
-3964.49
-3528.71
-4380.03
-3386.01
-3945.08
-3000.35
-1560.05
-2592.31
1573.78
-2365.72
2573.72
-2326.66
1978.44
-2324.49
1608.85
-2324.89
1613.66
-2338.63
1726.59
-2375.28
1853.12
-2436.84
1983.62
-2523.51
2119.43
-2635.47
2252.55
-2771.93
2376.04
-2931.3
2489.88
-3111.67
2595.39
-3311.09
2693.91
-3527.73
2787.58
-3759.98
2878.5
-4006.56
2968.66
-4266.54
3059.71
-4539.27
3152.81
-4824.33
3248.64
-5121.44
3347.46
-5430.43
3449.15
-5751.15
3553.3
-6083.48
3659.15
-6427.3
3765.62
-6782.51
3871.26
-7148.93
3974.3
-7526.37
4072.64
-7914.52
4163.96
-8313.01
4245.7
-8721.33
4315.08
-9138.76
4369.17
-9564.31
4405.01
-9996.64
4419.81
-10434
4411.1
-10874.3
4376.66
-11315.5
4314.27
-11755.3
4221.29
-12191.4
4094.51
-12621.1
3930.51
-13041
3726.57
-13446.9
3481.46
-13834.6
3195.38
-14199.7
2868.74
-14538.6
2500.92
-14848.2
2090
-15125.2
1633.65
-15366.1
1130.79
-15567.2
583.054
-15727
-10.758
-15844
-659.018
-15915.2
-1364.95
-15936.1
-2123.98
-15903.7
-2929.14
-15815.4
-3773.94
-15669.3
-4652.1
-15464
-5558.08
-15198.9
-6487.26
-14873.7
-7436.05
-14488.4
-8401.71
-14043.7
-9382.45
-13540.4
-10377.4
-12980.1
-11386.4
-12364.9
-12409.6
-11697.1
-13446.8
-10979.1
-14499
-10213.8
-15568.5
-9404.95
-16659.4
-8557.22
-17778.1
-7677.22
-18933.5
-6773.54
-20137.1
-5862.86
-21404.2
-4959.15
-22738.6
-4112.19
-24173.8
-3348.41
-25607.4
-2787.01
-27106.3
-28317.7
-4345.51
-1457.51
-4304.33
-1848.73
-4220.51
-2108.09
-4078.63
-1899.78
-3888.88
-950.297
-3749.27
514.688
-3726.08
1501.34
-3781.1
1651.96
-3885.07
1223.4
-3996.82
391.391
-4066.1
-505.99
-4086.57
-1088.47
-4080.28
-1371.69
-4062.04
-1564.09
-4034.98
-1817.7
-3995.74
-2156.93
-3941.77
-2551.36
-3874.65
-2992.44
-3802.1
-3491.64
-3737.49
-4029.11
-3685.52
-4432
-3570.85
-4059.76
-3225.66
-1905.24
-2807.2
1155.31
-2563.95
2330.47
-2507.76
1922.24
-2491.8
1592.88
-2478.43
1600.27
-2476.77
1724.92
-2495.94
1872.29
-2539.26
2026.93
-2607.95
2188.11
-2702.89
2347.48
-2824.03
2497.18
-2970.42
2636.26
-3140.51
2765.49
-3332.51
2885.91
-3544.54
2999.6
-3774.84
3108.79
-4021.88
3215.7
-4284.45
3322.28
-4561.64
3429.99
-4852.79
3539.8
-5157.47
3652.13
-5475.34
3767.02
-5806.15
3884.11
-6149.7
4002.69
-6505.8
4121.72
-6874.3
4239.75
-7254.99
4354.98
-7647.63
4465.28
-8051.91
4568.24
-8467.45
4661.23
-8893.72
4741.36
-9330.1
4805.55
-9775.69
4850.59
-10229.3
4873.37
-10689.1
4870.98
-11153.3
4840.86
-11619.6
4780.57
-12085.7
4687.4
-12549.3
4558.04
-13007.6
4388.79
-13457.3
4176.29
-13894.3
3918.54
-14314.2
3615.2
-14712.2
3266.76
-15084.4
2873.14
-15427.4
2432.95
-15737.7
1944
-16011.7
1404.8
-16244.9
816.244
-16435.2
179.528
-16582.5
-511.747
-16684.4
-1262.99
-16736.2
-2072.21
-16734.8
-2930.57
-16677.5
-3831.16
-16562.8
-4766.9
-16389.2
-5731.62
-16156.3
-6720.17
-15863.9
-7728.45
-15512.3
-8753.3
-15102.2
-9792.51
-14634.9
-10844.8
-14112
-11909.4
-13535.8
-12985.8
-12908.8
-14073.8
-12234.1
-15173.7
-11515.2
-16287.4
-10756.7
-17417.9
-9964.41
-18570.4
-9146.2
-19751.7
-8312.86
-20970.5
-7481.62
-22235.5
-6671.45
-23548.8
-5927.75
-24917.5
-5282.4
-26252.8
-4823.55
-27565.2
-28541.3
-4373.57
-1463.2
-4342.09
-1880.21
-4270.56
-2179.62
-4145.18
-2025.17
-3968.46
-1127.02
-3823.15
369.366
-3785.03
1463.21
-3826.09
1693.01
-3919.15
1316.46
-4028.19
500.419
-4103.7
-430.489
-4133.06
-1059.12
-4135.79
-1368.98
-4126.38
-1573.5
-4108.41
-1835.68
-4079.11
-2186.24
-4036.37
-2594.11
-3981.95
-3046.86
-3923.3
-3550.3
-3873.16
-4079.25
-3836.9
-4468.27
-3749.01
-4147.65
-3448.37
-2205.89
-3027.82
734.743
-2771.06
2073.7
-2696.39
1847.56
-2669.6
1566.07
-2646.38
1577.05
-2632.99
1711.52
-2637.97
1877.26
-2665.6
2054.55
-2717.94
2240.45
-2796.56
2426.08
-2902.18
2602.79
-3034.59
2768.66
-3192.87
2923.76
-3375.57
3068.6
-3580.98
3205.01
-3807.35
3335.15
-4053.01
3461.36
-4316.55
3585.81
-4596.81
3710.24
-4892.9
3835.88
-5204.17
3963.4
-5530.13
4092.97
-5870.4
4224.37
-6224.67
4356.96
-6592.68
4489.73
-6974.2
4621.27
-7369
4749.78
-7776.8
4873.08
-8197.26
4988.7
-8629.97
5093.94
-9074.43
5185.82
-9530.03
5261.14
-9995.93
5316.5
-10471
5348.46
-10953.8
5353.73
-11442.3
5329.33
-11934.2
5272.52
-12427.3
5180.44
-12918.9
5049.69
-13406.5
4876.35
-13886.7
4656.56
-14355.7
4387.54
-14808.8
4068.25
-15241
3698.97
-15647.8
3279.98
-16025.3
2810.43
-16369.7
2288.41
-16677.2
1712.3
-16943.5
1082.52
-17165.9
401.945
-17344.6
-333.017
-17477.5
-1130.13
-17560.4
-1989.33
-17590
-2900.94
-17563.9
-3857.28
-17480.3
-4850.48
-17338.2
-5873.72
-17137.1
-6921.26
-16877.1
-7988.48
-16558.6
-9071.81
-16182.5
-10168.6
-15750.2
-11277
-15263.6
-12395.9
-14725.3
-13524.2
-14138
-14661.1
-13505.2
-15806.5
-12831.2
-16961.5
-12121.1
-18128
-11382
-19309.5
-10622.8
-20510.9
-9855.85
-21737.4
-9098.97
-22992.4
-8373.96
-24273.8
-7721.63
-25569.8
-7174.13
-26800.3
-6796.73
-27942.5
-28719.5
-4400.31
-1460.72
-4376.69
-1903.82
-4316.41
-2239.91
-4206.28
-2135.3
-4043.83
-1289.47
-3897.46
222.991
-3847.48
1413.22
-3875.03
1720.56
-3956.52
1397.94
-4061.52
605.414
-4142.22
-349.798
-4179.99
-1021.36
-4191.48
-1357.5
-4190.6
-1574.38
-4181.35
-1844.93
-4161.61
-2205.99
-4129.65
-2626.07
-4087.39
-3089.13
-4041.98
-3595.71
-4005.53
-4115.71
-3983.75
-4490.05
-3920.79
-4210.61
-3662.75
-2463.94
-3248.18
320.17
-2980.54
1806.04
-2890.53
1757.55
-2855.2
1530.73
-2824.93
1546.78
-2802.99
1689.57
-2797.08
1871.35
-2811.91
2069.37
-2850.2
2278.74
-2914.08
2489.95
-3004.94
2693.64
-3123.34
2887.06
-3269.05
3069.47
-3441.18
3240.73
-3638.38
3402.2
-3859.07
3555.83
-4101.6
3703.89
-4364.44
3848.65
-4646.27
3992.06
-4945.98
4135.59
-5262.72
4280.14
-5595.83
4426.08
-5944.77
4573.31
-6309.13
4721.31
-6688.54
4869.14
-7082.71
5015.43
-7491.33
5158.4
-7914.11
5295.85
-8350.68
5425.27
-8800.61
5543.86
-9263.37
5648.58
-9738.37
5736.13
-10224.8
5802.95
-10721.7
5845.33
-11227.6
5859.62
-11740.7
5842.41
-12258.7
5790.56
-12779.2
5700.95
-13299.6
5570.08
-13817.1
5393.89
-14328.7
5168.1
-14830.3
4889.19
-15317.3
4555.27
-15784.5
4166.15
-16226.8
3722.22
-16639.5
3223.19
-17018.9
2667.75
-17361
2054.49
-17662
1383.53
-17918.2
658.113
-18128.9
-122.344
-18292.7
-966.327
-18406.9
-1875.16
-18467.5
-2840.27
-18472.4
-3852.44
-18419.7
-4903.13
-18308.7
-5984.78
-18138.9
-7091.04
-17910.6
-8216.79
-17624.4
-9358
-17281.4
-10511.6
-16883.2
-11675.3
-16431.8
-12847.2
-15930
-14026
-15380.9
-15210.1
-14788.4
-16399
-14157.3
-17592.6
-13493.5
-18791.7
-12804.8
-19998.2
-12101.2
-21214.5
-11396.2
-22442.5
-10707.7
-23680.8
-10059
-24922.5
-9486.36
-26142.5
-9019.26
-27267.4
-8705.57
-28256.2
-28866.6
-4425.47
-1450.56
-4409.37
-1919.93
-4359.31
-2289.98
-4262.89
-2231.73
-4113.91
-1438.46
-3968.76
77.8339
-3910.14
1354.6
-3926.32
1736.73
-3996.61
1468.22
-4096.77
705.559
-4181.82
-264.754