/*--------------------------------*- C++ -*----------------------------------*\
| =========                 |                                                 |
| \\      /  F ield         | OpenFOAM: The Open Source CFD Toolbox           |
|  \\    /   O peration     | Version:  4.1                                   |
|   \\  /    A nd           | Web:      www.OpenFOAM.org                      |
|    \\/     M anipulation  |                                                 |
\*---------------------------------------------------------------------------*/
FoamFile
{
    version     2.0;
    format      ascii;
    class       volVectorField;
    location    "1500";
    object      U;
}
// * * * * * * * * * * * * * * * * * * * * * * * * * * * * * * * * * * * * * //

dimensions      [0 1 -1 0 0 0 0];

internalField   nonuniform List<vector> 
26785
(
(-3.72478e-13 -0.0485023 -22.3928)
(-4.02366e-13 -0.0140633 -21.5581)
(-4.32392e-13 -0.000677047 -20.8179)
(-4.30592e-13 0.0128812 -20.988)
(-3.91263e-13 0.00896676 -21.4589)
(-3.66644e-13 -0.0110717 -21.8391)
(-3.45901e-13 -0.0417185 -21.7426)
(-3.56817e-13 -0.0699584 -21.0741)
(-3.63295e-13 -0.0900951 -19.9702)
(-3.70784e-13 -0.105445 -18.5722)
(-3.59418e-13 -0.118435 -16.9592)
(-3.84218e-13 -0.12836 -15.2141)
(-3.97653e-13 -0.137719 -13.4131)
(-4.08203e-13 -0.151437 -11.5584)
(-4.1267e-13 -0.170863 -9.59541)
(-4.11582e-13 -0.192903 -7.49092)
(-4.04951e-13 -0.211961 -5.25558)
(-3.89392e-13 -0.230448 -2.95507)
(-3.69073e-13 -0.290784 -0.745712)
(-4.11884e-13 -0.338374 2.36174)
(-3.6249e-13 -0.290431 5.25599)
(-3.30119e-13 -0.0713074 7.41655)
(-3.95864e-13 0.230766 7.15422)
(-4.05019e-13 0.510106 0.965537)
(-2.03772e-13 0.29643 -7.95158)
(-1.89701e-13 0.0752459 -7.48486)
(-2.09669e-13 0.0603854 -8.45193)
(-1.76858e-13 0.0544523 -9.08773)
(-1.42553e-13 0.0464951 -9.61327)
(-7.27586e-14 0.0460061 -10.1045)
(-8.1433e-14 0.0460091 -10.5867)
(-8.75896e-14 0.0457385 -11.0596)
(-1.43066e-13 0.0456911 -11.522)
(-1.43589e-13 0.0457578 -11.9777)
(-1.76734e-13 0.045736 -12.4262)
(-1.39748e-13 0.0456688 -12.8673)
(-1.5304e-13 0.0455574 -13.3007)
(-1.53854e-13 0.0454151 -13.7263)
(-1.57206e-13 0.0452742 -14.1444)
(-1.65568e-13 0.0451691 -14.5553)
(-1.86334e-13 0.0451358 -14.9599)
(-2.18871e-13 0.0452028 -15.3592)
(-2.11997e-13 0.0453868 -15.7543)
(-2.13112e-13 0.0456877 -16.1465)
(-1.79228e-13 0.0460872 -16.5368)
(-1.71307e-13 0.046549 -16.9261)
(-1.46781e-13 0.0470223 -17.3147)
(-1.38995e-13 0.0474468 -17.7025)
(-1.27923e-13 0.0477598 -18.089)
(-1.22317e-13 0.0479026 -18.4731)
(-1.19642e-13 0.0478258 -18.8534)
(-1.27931e-13 0.0474918 -19.2282)
(-1.22719e-13 0.0468721 -19.5957)
(-1.24406e-13 0.0459416 -19.9539)
(-1.26785e-13 0.04467 -20.3007)
(-1.29677e-13 0.0430183 -20.6341)
(-1.34759e-13 0.0409421 -20.9517)
(-1.31909e-13 0.0384088 -21.2506)
(-1.41451e-13 0.0354197 -21.5282)
(-1.50158e-13 0.0320262 -21.7814)
(-1.55198e-13 0.0283187 -22.0075)
(-1.77146e-13 0.0243779 -22.2043)
(-1.95564e-13 0.0202018 -22.3697)
(-2.08e-13 0.0156486 -22.5015)
(-2.11031e-13 0.0104456 -22.5966)
(-2.30388e-13 0.00426588 -22.651)
(-2.44804e-13 -0.00317834 -22.6591)
(-2.57922e-13 -0.0120619 -22.6148)
(-2.67966e-13 -0.0224187 -22.5123)
(-2.75481e-13 -0.0342212 -22.3455)
(-2.79474e-13 -0.0474754 -22.1075)
(-2.71647e-13 -0.0622322 -21.7902)
(-2.74002e-13 -0.0782495 -21.3854)
(-2.72219e-13 -0.0952809 -20.8858)
(-2.66136e-13 -0.113566 -20.2855)
(-2.58665e-13 -0.133604 -19.5782)
(-2.68978e-13 -0.155966 -18.7569)
(-2.48443e-13 -0.180959 -17.815)
(-2.25054e-13 -0.208299 -16.7467)
(-1.94566e-13 -0.236951 -15.5486)
(-1.65737e-13 -0.265557 -14.2188)
(-1.43603e-13 -0.293521 -12.7574)
(-1.07578e-13 -0.321289 -11.1685)
(-1.19922e-13 -0.348913 -9.45852)
(-1.09311e-13 -0.378773 -7.61983)
(-3.54745e-14 -0.424793 -5.61066)
(-1.84975e-14 -0.500734 -3.38219)
(6.0922e-15 -0.589545 -1.00576)
(-4.76568e-14 -0.586199 1.40758)
(-2.02039e-14 -0.577981 4.10043)
(-1.74697e-14 -0.595612 6.96512)
(-1.80817e-14 -0.621325 9.94109)
(-1.94647e-14 -0.650429 13.0243)
(-3.03923e-14 -0.684762 16.2676)
(-4.2835e-14 -0.724523 19.6055)
(-7.05103e-14 -0.775342 23.2845)
(-7.91147e-14 -0.838371 26.8404)
(-8.42601e-14 -0.93314 31.6375)
(-9.04817e-14 -1.02145 34.5734)
(-9.27026e-14 -1.30714 43.2743)
(-1.65945e-13 -0.288794 -25.1492)
(-2.4755e-13 -0.151756 -22.9308)
(-3.1335e-13 -0.0466863 -21.3493)
(-3.51568e-13 0.0473537 -21.0127)
(-3.47689e-13 0.0773644 -21.5237)
(-3.42e-13 0.038896 -22.2854)
(-3.07399e-13 -0.0461567 -22.745)
(-3.07429e-13 -0.135827 -22.6227)
(-3.08441e-13 -0.206913 -21.9272)
(-3.06629e-13 -0.26268 -20.8313)
(-3.30871e-13 -0.304807 -19.4896)
(-3.48004e-13 -0.33097 -18.0286)
(-3.58618e-13 -0.349939 -16.5381)
(-3.56085e-13 -0.375721 -15.0317)
(-3.45632e-13 -0.41208 -13.4671)
(-3.01204e-13 -0.453212 -11.8091)
(-2.73772e-13 -0.494245 -10.0368)
(-2.71776e-13 -0.548573 -8.09613)
(-2.36097e-13 -0.661945 -5.91898)
(-2.00587e-13 -0.782322 -3.38397)
(-2.25604e-13 -0.726002 -0.430177)
(-1.83838e-13 -0.108083 2.47128)
(-3.78148e-13 0.589051 4.73662)
(-4.04632e-13 1.50441 0.868995)
(-1.50989e-13 0.961876 -7.56259)
(-1.15811e-13 0.191687 -7.38529)
(-9.86777e-14 0.173425 -8.17276)
(-9.87191e-14 0.167445 -8.79967)
(-7.52483e-14 0.140936 -9.35057)
(-6.73327e-14 0.137406 -9.83914)
(-4.49715e-14 0.138439 -10.3189)
(-9.78882e-14 0.137984 -10.7951)
(-1.16369e-13 0.137895 -11.2611)
(-1.33678e-13 0.138331 -11.7209)
(-1.31036e-13 0.138528 -12.1749)
(-1.3585e-13 0.138575 -12.6224)
(-1.58628e-13 0.138492 -13.0633)
(-1.70962e-13 0.138308 -13.4973)
(-1.81276e-13 0.138112 -13.9246)
(-1.88722e-13 0.138003 -14.3454)
(-1.96315e-13 0.138088 -14.7604)
(-1.9987e-13 0.138454 -15.1704)
(-2.16105e-13 0.139153 -15.5766)
(-2.12405e-13 0.140187 -15.9799)
(-2.1906e-13 0.141508 -16.3815)
(-1.98429e-13 0.143014 -16.7821)
(-1.85135e-13 0.144565 -17.1821)
(-1.48843e-13 0.145995 -17.5814)
(-1.38965e-13 0.147129 -17.9796)
(-1.06082e-13 0.147802 -18.3758)
(-1.11734e-13 0.147875 -18.7685)
(-8.19475e-14 0.147241 -19.1563)
(-7.37777e-14 0.145822 -19.5371)
(-6.93844e-14 0.143557 -19.9092)
(-4.33202e-14 0.140373 -20.2704)
(-4.38226e-14 0.136165 -20.6188)
(-3.96957e-14 0.130787 -20.9519)
(-2.10528e-14 0.124073 -21.2674)
(-2.2698e-14 0.115886 -21.5622)
(-3.69809e-14 0.106173 -21.8331)
(-3.84978e-14 0.0949755 -22.0763)
(-3.79414e-14 0.082367 -22.2886)
(-3.02521e-14 0.068328 -22.4665)
(-4.89328e-14 0.0526331 -22.6069)
(-7.82574e-14 0.0348666 -22.7063)
(-9.6138e-14 0.0145624 -22.7609)
(-1.18988e-13 -0.00865937 -22.766)
(-1.41674e-13 -0.0350304 -22.7166)
(-1.6387e-13 -0.0646573 -22.6079)
(-1.59318e-13 -0.0977659 -22.4351)
(-1.84102e-13 -0.135062 -22.1923)
(-1.98729e-13 -0.177553 -21.8725)
(-2.04082e-13 -0.22528 -21.4669)
(-2.13059e-13 -0.277599 -20.9669)
(-2.25621e-13 -0.334294 -20.3656)
(-2.40265e-13 -0.395089 -19.6572)
(-2.12233e-13 -0.459783 -18.8371)
(-2.02972e-13 -0.528249 -17.9025)
(-1.77015e-13 -0.600305 -16.8518)
(-1.43325e-13 -0.675312 -15.6838)
(-1.12701e-13 -0.752117 -14.3961)
(-6.8343e-14 -0.830207 -12.9856)
(-3.90698e-15 -0.910367 -11.4525)
(-1.41681e-14 -0.991188 -9.79772)
(-5.05192e-14 -1.06897 -8.01049)
(-6.45145e-14 -1.1561 -6.07107)
(-3.80888e-14 -1.2856 -3.98186)
(1.55976e-14 -1.45788 -1.77829)
(8.8303e-14 -1.54883 0.578335)
(-3.95969e-15 -1.61751 3.16269)
(-7.31218e-15 -1.71402 5.91163)
(4.03008e-15 -1.80858 8.78983)
(2.07474e-15 -1.90257 11.7801)
(-4.3936e-14 -2.00832 14.9376)
(-5.50771e-14 -2.13298 18.1879)
(-6.15437e-14 -2.28476 21.7905)
(-7.42429e-14 -2.48451 25.253)
(-6.90244e-14 -2.7526 29.9702)
(-6.08331e-14 -3.04555 32.8121)
(-3.68533e-14 -3.84234 41.3068)
(-6.02209e-14 -0.54169 -27.5578)
(-1.31633e-13 -0.388643 -24.8978)
(-2.18699e-13 -0.183309 -22.4772)
(-2.81138e-13 0.0293373 -21.3046)
(-3.30542e-13 0.141119 -21.4236)
(-3.32123e-13 0.117548 -22.218)
(-2.97154e-13 -0.0124758 -22.9427)
(-3.04655e-13 -0.173516 -23.0992)
(-2.99446e-13 -0.3082 -22.588)
(-3.04803e-13 -0.407053 -21.6224)
(-3.06014e-13 -0.475308 -20.4053)
(-3.01767e-13 -0.514199 -19.0733)
(-2.91886e-13 -0.540176 -17.719)
(-2.76924e-13 -0.575966 -16.361)
(-2.52683e-13 -0.628124 -14.9579)
(-2.19691e-13 -0.688683 -13.4701)
(-1.70318e-13 -0.752014 -11.8782)
(-1.74714e-13 -0.831613 -10.1467)
(-1.44889e-13 -0.980696 -8.2296)
(-1.47975e-13 -1.19431 -6.07114)
(-1.38706e-13 -1.29574 -3.70838)
(-1.85809e-13 -0.642026 -1.20114)
(-4.29234e-13 0.830587 2.21071)
(-4.09057e-13 2.3245 -0.652458)
(-1.49175e-13 1.5862 -7.09439)
(-6.25275e-14 0.295603 -7.29573)
(-8.35762e-14 0.269121 -7.88607)
(-6.96137e-14 0.280951 -8.43237)
(-7.70977e-14 0.240065 -9.01108)
(-8.91722e-14 0.23004 -9.50624)
(-1.1452e-13 0.232314 -9.98285)
(-1.20508e-13 0.232424 -10.4632)
(-1.40695e-13 0.232383 -10.9359)
(-1.15415e-13 0.23329 -11.4031)
(-1.28881e-13 0.233894 -11.8658)
(-1.53526e-13 0.234219 -12.3236)
(-1.74228e-13 0.234313 -12.7762)
(-1.89533e-13 0.234224 -13.2235)
(-1.97092e-13 0.234082 -13.6653)
(-1.98274e-13 0.234044 -14.1019)
(-1.93555e-13 0.234283 -14.5338)
(-1.84137e-13 0.234945 -14.9615)
(-1.72396e-13 0.236121 -15.3859)
(-1.57251e-13 0.237828 -15.8079)
(-1.37815e-13 0.239995 -16.2285)
(-1.12606e-13 0.242469 -16.6482)
(-8.60518e-14 0.24503 -17.0674)
(-5.99873e-14 0.24741 -17.4863)
(-3.59768e-14 0.24932 -17.9044)
(-1.14952e-14 0.250481 -18.3209)
(1.21073e-14 0.250641 -18.7347)
(3.53219e-14 0.249601 -19.1442)
(5.53686e-14 0.247213 -19.5476)
(7.58517e-14 0.243364 -19.9429)
(9.61203e-14 0.237945 -20.328)
(1.16316e-13 0.230803 -20.7006)
(1.39961e-13 0.221708 -21.0584)
(1.4007e-13 0.210369 -21.3988)
(1.30804e-13 0.196496 -21.7188)
(1.33802e-13 0.179901 -22.0147)
(1.26651e-13 0.160559 -22.2824)
(1.31122e-13 0.138564 -22.5177)
(1.31124e-13 0.113947 -22.7167)
(1.27132e-13 0.0864629 -22.8759)
(1.18877e-13 0.0555445 -22.9921)
(1.16736e-13 0.0204698 -23.0616)
(1.04844e-13 -0.0194195 -23.0804)
(7.80547e-14 -0.0645721 -23.0435)
(6.49658e-14 -0.115151 -22.9459)
(4.55277e-14 -0.171251 -22.7825)
(2.57628e-14 -0.233754 -22.5481)
(8.10099e-15 -0.304395 -22.2371)
(-3.70081e-15 -0.383432 -21.8417)
(-4.77581e-14 -0.46988 -21.3537)
(-8.13773e-14 -0.563364 -20.7669)
(-1.04801e-13 -0.66338 -20.0757)
(-1.31963e-13 -0.769496 -19.2762)
(-1.56344e-13 -0.881337 -18.3655)
(-1.77181e-13 -0.998473 -17.3419)
(-1.86445e-13 -1.12003 -16.2041)
(-1.8329e-13 -1.24468 -14.9502)
(-1.63574e-13 -1.37185 -13.5779)
(-1.20596e-13 -1.50286 -12.0875)
(-3.17662e-14 -1.63791 -10.4787)
(1.56417e-14 -1.77389 -8.74274)
(3.27095e-14 -1.91665 -6.86946)
(2.79321e-14 -2.09041 -4.86923)
(-1.31489e-15 -2.3057 -2.7659)
(-9.43925e-15 -2.49574 -0.540193)
(-7.96999e-14 -2.65447 1.87465)
(-9.24443e-15 -2.8156 4.47418)
(-6.36206e-15 -2.97264 7.23028)
(-6.57846e-14 -3.13234 10.106)
(-8.84542e-14 -3.31032 13.1629)
(-9.53523e-14 -3.52271 16.3116)
(-8.17339e-14 -3.76907 19.8223)
(-6.42368e-14 -4.11291 23.1746)
(-3.34488e-14 -4.52472 27.779)
(-1.20784e-14 -5.05283 30.5091)
(5.64752e-15 -6.27554 38.7292)
(-5.39493e-14 -0.793345 -29.3858)
(-9.21818e-14 -0.660361 -26.7212)
(-1.43986e-13 -0.400045 -23.8962)
(-2.14895e-13 -0.0596064 -21.9236)
(-2.81456e-13 0.170375 -21.4284)
(-3.08417e-13 0.201477 -21.9829)
(-3.1795e-13 0.0494341 -22.7914)
(-2.94666e-13 -0.180998 -23.209)
(-2.65657e-13 -0.387138 -22.9533)
(-2.56132e-13 -0.533886 -22.1541)
(-2.38037e-13 -0.630425 -21.0499)
(-2.14021e-13 -0.682989 -19.8104)
(-1.85621e-13 -0.71536 -18.5487)
(-1.55806e-13 -0.759518 -17.2948)
(-1.44566e-13 -0.825838 -16.0089)
(-9.80258e-14 -0.904697 -14.647)
(-6.42882e-14 -0.990342 -13.1899)
(-4.71454e-14 -1.09927 -11.6149)
(-5.74515e-14 -1.28166 -9.89221)
(-4.94667e-14 -1.5397 -7.99717)
(-9.73686e-14 -1.69016 -6.01236)
(-2.07502e-13 -0.976346 -3.88034)
(-4.21228e-13 1.08232 -1.11305)
(-3.81174e-13 2.75473 -2.57041)
(-1.61327e-13 2.0452 -6.45169)
(-2.40284e-14 0.42346 -7.11504)
(-1.38484e-14 0.344821 -7.64737)
(-3.47516e-14 0.386803 -8.07321)
(-3.56699e-14 0.343631 -8.65226)
(-4.26185e-14 0.324648 -9.16085)
(-5.83796e-14 0.327465 -9.63654)
(-7.03442e-14 0.329196 -10.1198)
(-1.10406e-13 0.329665 -10.6005)
(-1.17826e-13 0.331292 -11.0769)
(-1.44316e-13 0.332655 -11.5505)
(-1.3202e-13 0.333625 -12.0211)
(-1.80182e-13 0.33426 -12.4882)
(-1.48652e-13 0.334636 -12.9517)
(-1.34704e-13 0.334906 -13.4116)
(-1.54546e-13 0.335269 -13.8677)
(-1.1094e-13 0.335948 -14.3205)
(-8.90148e-14 0.337139 -14.7702)
(-8.78674e-14 0.338973 -15.2174)
(-6.58006e-14 0.341483 -15.6627)
(-1.70564e-14 0.344592 -16.1068)
(2.60623e-15 0.348115 -16.5502)
(2.6019e-14 0.351774 -16.9933)
(2.37902e-14 0.355226 -17.436)
(3.86896e-14 0.358091 -17.8782)
(5.86699e-14 0.359986 -18.3192)
(8.24965e-14 0.360551 -18.7581)
(8.7847e-14 0.35948 -19.1934)
(1.15943e-13 0.356535 -19.6234)
(1.10639e-13 0.351536 -20.0458)
(1.05573e-13 0.344322 -20.4585)
(1.09468e-13 0.334692 -20.859)
(1.04692e-13 0.322339 -21.2449)
(1.08639e-13 0.306835 -21.6135)
(9.28648e-14 0.287691 -21.9618)
(9.71684e-14 0.2645 -22.2859)
(7.95537e-14 0.237073 -22.5816)
(7.86773e-14 0.205459 -22.8444)
(7.04897e-14 0.169765 -23.0698)
(6.95866e-14 0.129855 -23.254)
(6.39401e-14 0.0851955 -23.3935)
(5.72078e-14 0.0349728 -23.4851)
(4.2392e-14 -0.0216667 -23.5248)
(4.80625e-14 -0.0854061 -23.5079)
(4.61959e-14 -0.156559 -23.4293)
(3.62731e-14 -0.235152 -23.2843)
(3.06399e-14 -0.322305 -23.0681)
(2.1608e-14 -0.420523 -22.7758)
(2.59685e-14 -0.530458 -22.4012)
(1.45017e-14 -0.650861 -21.9357)
(2.05066e-14 -0.781012 -21.3733)
(2.01719e-14 -0.919914 -20.7086)
(-1.8331e-15 -1.06666 -19.9376)
(-2.52769e-14 -1.22051 -19.0575)
(-7.69063e-14 -1.38083 -18.0666)
(-1.00332e-13 -1.54677 -16.9635)
(-1.25959e-13 -1.71721 -15.7464)
(-1.37725e-13 -1.89161 -14.4139)
(-1.38485e-13 -2.07061 -12.9662)
(-1.22989e-13 -2.25415 -11.403)
(-4.84062e-14 -2.44162 -9.71748)
(3.1981e-15 -2.64054 -7.90349)
(3.22425e-14 -2.86719 -5.97273)
(1.29901e-15 -3.12526 -3.94794)
(1.14929e-15 -3.38421 -1.82761)
(-2.60161e-14 -3.62667 0.438373)
(4.94051e-15 -3.86029 2.87971)
(-4.47363e-14 -4.08932 5.50286)
(-1.0127e-13 -4.32017 8.25013)
(-9.87289e-14 -4.57305 11.1931)
(-7.13019e-14 -4.87503 14.2225)
(-2.8662e-14 -5.21155 17.6164)
(9.25924e-15 -5.70212 20.8434)
(3.63522e-14 -6.23238 25.2805)
(3.22626e-14 -7.01502 27.8996)
(1.14418e-14 -8.59513 35.7327)
(-6.09511e-14 -1.03075 -30.7221)
(-9.20946e-14 -0.938726 -28.2387)
(-1.39058e-13 -0.664753 -25.3221)
(-1.88505e-13 -0.222721 -22.8066)
(-2.43637e-13 0.145834 -21.6474)
(-2.68771e-13 0.265755 -21.8101)
(-2.69073e-13 0.125254 -22.5347)
(-2.68623e-13 -0.157821 -23.1229)
(-2.38551e-13 -0.438892 -23.1258)
(-2.11657e-13 -0.644144 -22.5124)
(-1.80836e-13 -0.775055 -21.5233)
(-1.52595e-13 -0.842891 -20.3632)
(-1.33894e-13 -0.880404 -19.172)
(-9.98145e-14 -0.930711 -17.997)
(-7.86969e-14 -1.00925 -16.8025)
(-4.53258e-14 -1.10486 -15.5404)
(8.59467e-16 -1.2103 -14.1893)
(1.74958e-14 -1.34315 -12.7348)
(1.99734e-14 -1.5518 -11.1607)
(-6.99224e-15 -1.84436 -9.4647)
(-5.8863e-14 -2.03007 -7.74776)
(-1.58969e-13 -1.28844 -5.96054)
(-3.5631e-13 1.07432 -3.91995)
(-3.55377e-13 2.90009 -4.11766)
(-1.79903e-13 2.32748 -5.91034)
(8.70339e-16 0.586001 -6.82839)
(3.21803e-14 0.415683 -7.43129)
(2.11571e-14 0.480422 -7.76183)
(-3.42564e-14 0.447839 -8.30353)
(-4.23526e-14 0.42165 -8.82013)
(-6.67338e-14 0.423855 -9.298)
(-8.736e-14 0.427898 -9.78232)
(-1.04377e-13 0.429656 -10.2703)
(-1.17873e-13 0.432354 -10.7569)
(-1.27668e-13 0.434822 -11.2427)
(-9.94889e-14 0.436806 -11.7277)
(-9.56962e-14 0.438333 -12.2111)
(-8.11928e-14 0.439518 -12.6929)
(-7.15098e-14 0.440528 -13.1728)
(-5.9404e-14 0.441582 -13.6508)
(-4.82861e-14 0.442935 -14.1268)
(-3.70775e-14 0.444819 -14.601)
(-2.7935e-14 0.447399 -15.0736)
(8.62135e-15 0.450734 -15.5448)
(1.50757e-14 0.454754 -16.0151)
(1.94074e-14 0.459263 -16.4847)
(1.72778e-14 0.463952 -16.9538)
(1.25801e-14 0.468422 -17.4227)
(1.20517e-14 0.472216 -17.8912)
(7.43778e-15 0.474849 -18.3588)
(2.34117e-14 0.475847 -18.8248)
(1.71209e-14 0.474775 -19.2879)
(2.15362e-14 0.47127 -19.7464)
(7.30768e-15 0.465046 -20.1982)
(-4.66555e-15 0.455871 -20.6408)
(-1.34745e-14 0.443489 -21.0718)
(-4.16404e-14 0.427541 -21.4884)
(-4.98221e-14 0.4075 -21.8879)
(-6.10044e-14 0.382716 -22.2672)
(-5.11008e-14 0.352571 -22.6228)
(-5.96646e-14 0.316693 -22.9504)
(-5.63359e-14 0.275054 -23.2451)
(-6.779e-14 0.227825 -23.502)
(-6.4819e-14 0.175004 -23.7168)
(-6.64453e-14 0.116112 -23.8858)
(-6.39597e-14 0.0502073 -24.0057)
(-4.37646e-14 -0.0238262 -24.0727)
(-4.49005e-14 -0.106923 -24.0823)
(-3.1341e-14 -0.199469 -24.0298)
(-3.33959e-14 -0.301281 -23.9103)
(-2.06036e-14 -0.41345 -23.7193)
(-2.44016e-14 -0.539037 -23.452)
(-3.253e-14 -0.679151 -23.1045)
(-3.20333e-14 -0.832545 -22.6676)
(-8.0505e-15 -0.998261 -22.1356)
(-1.54545e-16 -1.17506 -21.503)
(8.19422e-15 -1.36178 -20.7658)
(2.23719e-15 -1.55738 -19.9211)
(-1.35129e-14 -1.76087 -18.967)
(-1.94625e-14 -1.97113 -17.9022)
(-5.16896e-14 -2.18705 -16.7252)
(-7.33403e-14 -2.40826 -15.4349)
(-7.22306e-14 -2.63517 -14.0318)
(-1.10435e-13 -2.86722 -12.5158)
(-9.78264e-14 -3.10428 -10.8818)
(-2.91399e-14 -3.35357 -9.12703)
(-4.29064e-15 -3.62713 -7.26241)
(-1.02957e-15 -3.92604 -5.305)
(-6.96314e-16 -4.23728 -3.25558)
(-8.86952e-15 -4.55054 -1.10252)
(-1.61678e-14 -4.85907 1.18712)
(-5.26408e-14 -5.16136 3.66499)
(-9.75899e-14 -5.46631 6.27418)
(-6.17613e-14 -5.79539 9.09327)
(-9.27233e-15 -6.18547 11.9859)
(2.71203e-14 -6.60902 15.239)
(3.21903e-14 -7.24173 18.3315)
(1.98191e-14 -7.86712 22.5325)
(-1.06306e-15 -8.91643 25.0733)
(-1.45375e-14 -10.7703 32.358)
(-5.75551e-14 -1.25115 -31.6708)
(-7.91208e-14 -1.20448 -29.4586)
(-1.18491e-13 -0.950074 -26.6189)
(-1.53591e-13 -0.446673 -23.8495)
(-1.8395e-13 0.0643835 -22.0812)
(-2.04123e-13 0.296548 -21.794)
(-2.16904e-13 0.199561 -22.3133)
(-2.44292e-13 -0.112095 -22.955)
(-2.35635e-13 -0.462904 -23.1744)
(-1.95567e-13 -0.73529 -22.7595)
(-1.47182e-13 -0.906739 -21.8928)
(-1.23375e-13 -0.993321 -20.811)
(-1.07292e-13 -1.03665 -19.682)
(-7.19797e-14 -1.09198 -18.5722)
(-3.92476e-14 -1.18133 -17.4528)
(-5.86723e-15 -1.2927 -16.2739)
(2.29818e-14 -1.41679 -15.0115)
(3.06476e-14 -1.57086 -13.6565)
(3.24606e-14 -1.80081 -12.2039)
(1.46437e-14 -2.11725 -10.6686)
(-4.69715e-14 -2.32283 -9.15296)
(-1.31366e-13 -1.55379 -7.55847)
(-2.48713e-13 0.983588 -5.68868)
(-3.03428e-13 2.87437 -5.18975)
(-2.06381e-13 2.47262 -5.70194)
(-2.61972e-15 0.758191 -6.53387)
(3.30956e-14 0.492137 -7.21727)
(-3.29057e-14 0.563032 -7.50862)
(-7.2183e-14 0.547873 -7.98767)
(-8.02499e-14 0.519891 -8.49601)
(-5.99449e-14 0.521383 -8.97522)
(-6.7646e-14 0.528106 -9.45856)
(-4.47662e-14 0.532167 -9.95179)
(-4.19474e-14 0.536547 -10.4481)
(-2.7568e-14 0.540589 -10.9465)
(-2.46346e-14 0.544035 -11.4466)
(-3.62734e-14 0.546871 -11.9475)
(-3.0657e-14 0.549263 -12.4488)
(-3.04406e-14 0.551395 -12.95)
(-2.95664e-14 0.553493 -13.451)
(-3.74826e-14 0.555824 -13.9516)
(-2.33212e-14 0.558639 -14.4516)
(-4.17498e-15 0.56213 -14.9508)
(-8.08088e-15 0.566383 -15.4493)
(3.07621e-16 0.571354 -15.947)
(-9.32789e-15 0.576859 -16.4443)
(-1.95359e-14 0.582581 -16.9411)
(-3.23535e-14 0.588092 -17.4377)
(-4.5181e-14 0.592881 -17.934)
(-5.54267e-14 0.596382 -18.4297)
(-6.23552e-14 0.59801 -18.9243)
(-6.86473e-14 0.597197 -19.4168)
(-7.28317e-14 0.593437 -19.9056)
(-7.76747e-14 0.586315 -20.3885)
(-8.02583e-14 0.575495 -20.8633)
(-8.21154e-14 0.560664 -21.3271)
(-7.9308e-14 0.541417 -21.777)
(-6.93306e-14 0.517163 -22.2102)
(-5.65844e-14 0.487111 -22.6238)
(-3.78334e-14 0.450419 -23.0142)
(-3.31504e-14 0.406455 -23.3772)
(-2.2545e-14 0.355008 -23.7079)
(-2.76226e-14 0.296235 -24.0009)
(-1.52111e-14 0.230287 -24.2513)
(-6.53506e-15 0.156849 -24.4548)
(1.02112e-14 0.0749982 -24.6081)
(2.20656e-14 -0.0165385 -24.7076)
(3.09869e-14 -0.11891 -24.7491)
(3.48699e-14 -0.232636 -24.7281)
(2.58934e-14 -0.357569 -24.6401)
(2.77456e-14 -0.494891 -24.4798)
(1.22304e-14 -0.647697 -24.2423)
(6.74755e-15 -0.817666 -23.9268)
(-4.78675e-15 -1.00396 -23.5233)
(-8.34242e-15 -1.20516 -23.026)
(-4.05523e-14 -1.41973 -22.4295)
(-4.20413e-14 -1.64614 -21.7295)
(-3.3706e-14 -1.88303 -20.9233)
(-2.98752e-14 -2.12909 -20.0089)
(-1.70309e-14 -2.38298 -18.9851)
(-4.6559e-15 -2.64354 -17.8506)
(-1.53192e-15 -2.91044 -16.6048)
(-5.82678e-15 -3.18399 -15.2485)
(-3.13095e-14 -3.46385 -13.7814)
(-8.19742e-14 -3.75035 -12.2006)
(-4.70103e-14 -4.04953 -10.5055)
(-9.36416e-15 -4.36977 -8.70527)
(-4.55493e-15 -4.71042 -6.81213)
(-3.40699e-15 -5.06411 -4.82898)
(-3.12987e-14 -5.43176 -2.75368)
(-1.60548e-14 -5.80814 -0.577764)
(-5.93027e-14 -6.18269 1.74958)
(-7.75063e-14 -6.56533 4.21594)
(-2.26469e-14 -6.97042 6.89997)
(1.72722e-14 -7.44473 9.64225)
(3.05146e-14 -7.95427 12.7376)
(6.11923e-15 -8.71373 15.6821)
(-8.07835e-15 -9.42213 19.5827)
(-1.41325e-14 -10.7307 22.0931)
(-2.27492e-14 -12.7553 28.6198)
(-6.39887e-14 -1.47631 -32.4985)
(-8.4254e-14 -1.45138 -30.4067)
(-1.12083e-13 -1.23561 -27.7334)
(-1.57838e-13 -0.706821 -24.9049)
(-2.01058e-13 -0.0703752 -22.6844)
(-2.20323e-13 0.285404 -21.9603)
(-2.28844e-13 0.257539 -22.2078)
(-2.43505e-13 -0.0557992 -22.7909)
(-2.27616e-13 -0.463155 -23.1498)
(-1.71375e-13 -0.806742 -22.9248)
(-1.37012e-13 -1.0259 -22.1871)
(-1.22512e-13 -1.13551 -21.1873)
(-8.82665e-14 -1.18564 -20.1187)
(-6.03934e-14 -1.24511 -19.0667)
(-3.39741e-14 -1.3439 -18.012)
(-5.36685e-15 -1.46985 -16.9051)
(3.14962e-14 -1.61131 -15.7201)
(4.11722e-14 -1.78421 -14.4511)
(2.56635e-14 -2.03151 -13.1018)
(8.79417e-15 -2.365 -11.7009)
(-5.02364e-14 -2.58653 -10.35)
(-1.19143e-13 -1.80971 -8.88525)
(-2.15771e-13 0.849156 -6.96392)
(-2.59295e-13 2.74433 -5.99762)
(-1.79372e-13 2.51319 -5.81009)
(-1.39796e-14 0.908941 -6.3288)
(-1.57638e-14 0.573408 -7.02831)
(-2.30299e-14 0.637645 -7.31551)
(-2.39637e-14 0.639936 -7.72399)
(-5.43236e-14 0.616714 -8.20478)
(1.39656e-15 0.619135 -8.67755)
(1.56635e-14 0.629084 -9.15627)
(2.71573e-14 0.63661 -9.65119)
(2.61621e-14 0.643575 -10.1551)
(2.50742e-14 0.649842 -10.6652)
(3.0765e-14 0.655297 -11.1803)
(1.40836e-14 0.659914 -11.6988)
(1.20992e-14 0.663927 -12.22)
(4.79357e-15 0.667556 -12.743)
(1.23265e-15 0.671034 -13.2676)
(-7.58317e-15 0.674632 -13.7931)
(1.37496e-14 0.678605 -14.3193)
(6.58841e-15 0.683166 -14.8457)
(1.99935e-14 0.688433 -15.3721)
(1.7862e-14 0.694395 -15.8982)
(1.5367e-14 0.700899 -16.424)
(1.28479e-14 0.707643 -16.9497)
(1.71786e-14 0.714195 -17.4753)
(5.60141e-15 0.720005 -18.0009)
(-4.06756e-15 0.724441 -18.5264)
(-3.14333e-14 0.726813 -19.0513)
(-3.96119e-14 0.726415 -19.5747)
(-4.62137e-14 0.722582 -20.0955)
(-2.04528e-14 0.714733 -20.6115)
(2.31001e-15 0.702397 -21.1204)
(2.55944e-14 0.685169 -21.6192)
(4.70126e-14 0.662598 -22.1051)
(6.42725e-14 0.634052 -22.5748)
(6.60754e-14 0.598644 -23.0255)
(9.50656e-14 0.555334 -23.4537)
(1.01548e-13 0.503212 -23.8553)
(1.0847e-13 0.441822 -24.2254)
(1.12336e-13 0.371244 -24.5583)
(1.09386e-13 0.291759 -24.8485)
(9.40554e-14 0.203265 -25.0913)
(9.11533e-14 0.104935 -25.2828)
(7.88316e-14 -0.00459003 -25.4196)
(8.60566e-14 -0.12666 -25.4981)
(8.29956e-14 -0.261976 -25.5136)
(6.16577e-14 -0.410571 -25.4615)
(5.68142e-14 -0.573476 -25.3362)
(2.92323e-14 -0.753224 -25.1325)
(2.21857e-14 -0.952406 -24.8528)
(9.3726e-15 -1.17103 -24.4861)
(-1.38291e-14 -1.40709 -24.0267)
(-1.84074e-14 -1.65883 -23.4691)
(-5.70142e-14 -1.92443 -22.8093)
(-7.99938e-14 -2.20219 -22.0441)
(-7.18534e-14 -2.49049 -21.1717)
(-6.19198e-14 -2.78773 -20.1908)
(-5.72751e-14 -3.09259 -19.1005)
(-5.51889e-14 -3.40456 -17.9007)
(-3.98228e-14 -3.72368 -16.5922)
(-5.26526e-14 -4.04972 -15.1752)
(-5.627e-14 -4.38351 -13.6484)
(-3.60054e-14 -4.73012 -12.0129)
(-2.12924e-14 -5.09554 -10.2765)
(-1.21476e-14 -5.4788 -8.44828)
(-3.76784e-15 -5.87506 -6.53042)
(-2.90293e-14 -6.28654 -4.52282)
(-4.67103e-14 -6.71638 -2.42884)
(-5.82601e-14 -7.15684 -0.225382)
(-4.17831e-14 -7.61577 2.09911)
(-6.58904e-15 -8.0944 4.63273)
(-1.04401e-14 -8.64886 7.22046)
(4.43848e-15 -9.2417 10.1444)
(-7.28949e-15 -10.1038 12.9217)
(-1.56137e-14 -10.8965 16.4862)
(-2.31719e-14 -12.4217 18.9808)
(-2.91514e-14 -14.4997 24.548)
(-7.97051e-14 -1.67316 -33.1383)
(-1.03928e-13 -1.68543 -31.1711)
(-1.22978e-13 -1.51105 -28.6673)
(-1.56281e-13 -0.985461 -25.896)
(-1.92142e-13 -0.24778 -23.3843)
(-2.20252e-13 0.234216 -22.2727)
(-2.36699e-13 0.290546 -22.2395)
(-2.34952e-13 -0.000972955 -22.6897)
(-1.9818e-13 -0.446914 -23.1043)
(-1.66312e-13 -0.86043 -23.0403)
(-1.39038e-13 -1.13163 -22.4314)
(-1.0952e-13 -1.26827 -21.5153)
(-7.61586e-14 -1.32732 -20.5056)
(-4.13626e-14 -1.39088 -19.5067)
(-1.44081e-14 -1.49818 -18.5097)
(4.10124e-15 -1.63777 -17.4671)
(-1.36635e-15 -1.79558 -16.3519)
(1.49488e-14 -1.98549 -15.1597)
(2.7464e-14 -2.24706 -13.9009)
(1.58478e-14 -2.59211 -12.6153)
(-3.12652e-14 -2.82789 -11.4047)
(-1.06336e-13 -2.06919 -10.0549)
(-1.76015e-13 0.657796 -7.99223)
(-1.86491e-13 2.55013 -6.66399)
(-1.32738e-13 2.47491 -6.09384)
(-1.0881e-14 1.02191 -6.26529)
(1.99799e-14 0.652947 -6.91462)
(7.9339e-14 0.704642 -7.19364)
(4.92746e-14 0.721425 -7.53083)
(5.9045e-14 0.708623 -7.9669)
(8.10608e-14 0.715035 -8.41935)
(8.15178e-14 0.729513 -8.88631)
(8.00988e-14 0.741919 -9.37719)
(7.29467e-14 0.752702 -9.88436)
(7.10302e-14 0.762128 -10.4035)
(7.12101e-14 0.770316 -10.9319)
(4.53085e-14 0.777296 -11.4672)
(4.13131e-14 0.783405 -12.0078)
(3.1641e-14 0.788928 -12.5524)
(2.50554e-14 0.794136 -13.1002)
(1.55642e-14 0.799306 -13.6506)
(3.99784e-14 0.804698 -14.2029)
(6.94054e-14 0.810538 -14.7565)
(8.09127e-14 0.816973 -15.311)
(7.13392e-14 0.824038 -15.866)
(6.34727e-14 0.831619 -16.4213)
(5.52509e-14 0.839447 -16.9769)
(4.98018e-14 0.847097 -17.5329)
(5.27068e-14 0.854003 -18.0893)
(4.34198e-14 0.859479 -18.646)
(3.69987e-14 0.862747 -19.2028)
(5.53671e-14 0.862975 -19.7589)
(7.07248e-14 0.859332 -20.3132)
(1.02681e-13 0.851061 -20.8639)
(1.25785e-13 0.837525 -21.4088)
(1.44669e-13 0.818196 -21.9448)
(1.53049e-13 0.792565 -22.4688)
(1.62356e-13 0.759971 -22.9776)
(1.40357e-13 0.71947 -23.468)
(1.3474e-13 0.669857 -23.9366)
(1.11163e-13 0.609945 -24.3795)
(9.71844e-14 0.538963 -24.7919)
(7.82016e-14 0.456805 -25.1681)
(5.71559e-14 0.363795 -25.502)
(3.66001e-14 0.260064 -25.7882)
(2.17157e-14 0.145014 -26.0224)
(1.39545e-14 0.0173339 -26.2011)
(1.54516e-14 -0.124503 -26.3208)
(1.16224e-14 -0.281552 -26.3769)
(5.55344e-15 -0.454227 -26.3643)
(3.93766e-16 -0.643014 -26.2775)
(-1.35414e-14 -0.849694 -26.1119)
(-1.20359e-14 -1.07797 -25.8705)
(-1.39208e-14 -1.32886 -25.5435)
(-2.22973e-14 -1.59969 -25.1246)
(-3.15759e-14 -1.88852 -24.6085)
(-4.8451e-14 -2.19318 -23.9908)
(-7.18081e-14 -2.51159 -23.2685)
(-7.61747e-14 -2.84182 -22.4399)
(-7.91587e-14 -3.18202 -21.5036)
(-7.86658e-14 -3.53076 -20.459)
(-7.09422e-14 -3.88735 -19.3063)
(-6.70974e-14 -4.25157 -18.0466)
(-9.48215e-14 -4.62318 -16.6805)
(-7.80388e-14 -5.00316 -15.208)
(-5.34021e-14 -5.39561 -13.6313)
(-2.84363e-14 -5.80482 -11.9575)
(-2.16436e-14 -6.2302 -10.1937)
(-2.81624e-14 -6.66898 -8.34246)
(-3.25533e-14 -7.12278 -6.40409)
(-6.34423e-14 -7.59613 -4.37993)
(-5.90249e-14 -8.09022 -2.26755)
(-2.62933e-14 -8.61601 -0.0644664)
(-9.85408e-15 -9.16443 2.30817)
(-1.92366e-14 -9.79481 4.7428)
(-1.75758e-14 -10.4643 7.47903)
(-2.41789e-14 -11.4035 10.0742)
(-3.05753e-14 -12.2848 13.2974)
(-2.73261e-14 -13.9462 15.7277)
(-3.40611e-14 -15.9688 20.2302)
(-1.04326e-13 -1.85749 -33.6524)
(-1.20875e-13 -1.90451 -31.7981)
(-1.31317e-13 -1.77368 -29.4509)
(-1.53367e-13 -1.27085 -26.7964)
(-1.76946e-13 -0.464531 -24.1516)
(-1.80139e-13 0.146366 -22.6994)
(-1.95607e-13 0.295946 -22.3997)
(-2.00873e-13 0.0436534 -22.6802)
(-1.73871e-13 -0.422097 -23.0794)
(-1.45647e-13 -0.898763 -23.1351)
(-1.26007e-13 -1.22515 -22.6447)
(-9.58368e-14 -1.39255 -21.8105)
(-6.95448e-14 -1.4625 -20.8587)
(-4.56609e-14 -1.53019 -19.9094)
(-3.086e-14 -1.64517 -18.965)
(-2.07937e-14 -1.79746 -17.9812)
(-1.56142e-14 -1.97066 -16.9301)
(-6.697e-15 -2.17608 -15.8083)
(1.34762e-14 -2.4495 -14.6308)
(1.18579e-14 -2.80191 -13.4454)
(-3.25104e-14 -3.05156 -12.3574)
(-1.02626e-13 -2.34807 -11.1465)
(-1.76018e-13 0.323382 -9.01343)
(-1.76707e-13 2.31604 -7.28929)
(-5.03754e-14 2.37903 -6.47228)
(1.52326e-14 1.09551 -6.38356)
(3.85909e-14 0.72173 -6.92646)
(4.77094e-14 0.760657 -7.1664)
(9.11587e-14 0.789791 -7.42903)
(8.69722e-14 0.79166 -7.80487)
(8.3344e-14 0.805879 -8.21981)
(1.06909e-13 0.827191 -8.66373)
(7.55918e-14 0.846363 -9.14181)
(9.40802e-14 0.862611 -9.64542)
(9.48585e-14 0.876498 -10.1686)
(7.70643e-14 0.888419 -10.7068)
(6.53036e-14 0.898541 -11.2564)
(7.34802e-14 0.907347 -11.8147)
(8.41767e-14 0.915243 -12.3796)
(1.00897e-13 0.922575 -12.9499)
(1.20452e-13 0.929661 -13.5243)
(1.39978e-13 0.936775 -14.1022)
(1.47822e-13 0.944159 -14.6828)
(1.47555e-13 0.95199 -15.2655)
(1.22092e-13 0.960341 -15.8497)
(1.01683e-13 0.969148 -16.4351)
(8.8193e-14 0.97818 -17.0216)
(8.5876e-14 0.987031 -17.6092)
(9.3151e-14 0.995131 -18.1977)
(1.0693e-13 1.00176 -18.7872)
(1.26283e-13 1.00606 -19.3774)
(1.43397e-13 1.00709 -19.9676)
(1.53076e-13 1.00387 -20.557)
(1.55374e-13 0.995457 -21.1439)
(1.45381e-13 0.981017 -21.7263)
(1.28938e-13 0.959861 -22.3012)
(1.05943e-13 0.931378 -22.8654)
(8.70442e-14 0.894867 -23.4154)
(5.78552e-14 0.84935 -23.9479)
(4.47354e-14 0.793516 -24.4593)
(3.40624e-14 0.725938 -24.9459)
(2.61066e-14 0.645513 -25.4033)
(9.26198e-15 0.551853 -25.8256)
(-3.79904e-15 0.445224 -26.2067)
(-1.77533e-14 0.325964 -26.5402)
(-2.16354e-14 0.193776 -26.8213)
(-2.44638e-14 0.0474818 -27.0459)
(-1.54366e-14 -0.114607 -27.2103)
(-1.2741e-14 -0.293934 -27.3099)
(-1.76846e-14 -0.491184 -27.3399)
(-2.2176e-14 -0.706054 -27.2955)
(-3.18868e-14 -0.939633 -27.1721)
(-3.03106e-14 -1.19689 -26.9709)
(-3.09168e-14 -1.47966 -26.686)
(-2.02394e-14 -1.78493 -26.3098)
(-5.01721e-15 -2.11057 -25.8368)
(-2.35789e-14 -2.45401 -25.263)
(-4.58576e-14 -2.81283 -24.5852)
(-4.75625e-14 -3.18472 -23.8016)
(-6.64289e-14 -3.56755 -22.911)
(-6.5907e-14 -3.95971 -21.9132)
(-5.92178e-14 -4.36028 -20.8085)
(-5.79058e-14 -4.7688 -19.5983)
(-7.84892e-14 -5.18504 -18.2836)
(-9.82141e-14 -5.60994 -16.8655)
(-7.13797e-14 -6.04674 -15.3469)
(-4.08961e-14 -6.49853 -13.7344)
(-2.11959e-14 -6.96508 -12.0341)
(-2.51169e-14 -7.44525 -10.2492)
(-4.55702e-14 -7.9409 -8.38085)
(-5.84074e-14 -8.4555 -6.43026)