/*--------------------------------*- C++ -*----------------------------------*\
| =========                 |                                                 |
| \\      /  F ield         | OpenFOAM: The Open Source CFD Toolbox           |
|  \\    /   O peration     | Version:  4.1                                   |
|   \\  /    A nd           | Web:      www.OpenFOAM.org                      |
|    \\/     M anipulation  |                                                 |
\*---------------------------------------------------------------------------*/
FoamFile
{
    version     2.0;
    format      ascii;
    class       volScalarField;
    location    "900";
    object      k;
}
// * * * * * * * * * * * * * * * * * * * * * * * * * * * * * * * * * * * * * //

dimensions      [0 2 -2 0 0 0 0];

internalField   nonuniform List<scalar> 
6820
(
0.257082
0.434211
0.59852
0.709382
0.778145
0.818049
0.838547
0.845896
0.844371
0.836963
0.825767
0.812247
0.797426
0.782015
0.766498
0.751201
0.736336
0.722036
0.708378
0.6954
0.683115
0.671515
0.660583
0.650294
0.640616
0.631518
0.622964
0.614924
0.607339
0.600295
0.593189
0.588696
0.574468
0.811277
1.44613
1.51874
1.38792
1.22323
1.07762
0.95922
0.864569
0.788642
0.727157
0.676842
0.635256
0.600578
0.571431
0.546763
0.525758
0.507776
0.49231
0.478954
0.467377
0.45731
0.448532
0.440859
0.434138
0.428241
0.423059
0.418502
0.414494
0.410968
0.407891
0.405164
0.402958
0.400711
0.368869
0.66416
0.797428
0.829397
0.816589
0.786286
0.750411
0.713991
0.679045
0.646311
0.616001
0.588103
0.562514
0.539088
0.517663
0.498078
0.480173
0.4638
0.44882
0.435107
0.422543
0.411025
0.400456
0.390751
0.381831
0.373626
0.366073
0.359115
0.352701
0.346788
0.341329
0.336304
0.331654
0.240027
0.336287
0.412169
0.460222
0.487105
0.500012
0.504037
0.502509
0.497533
0.490424
0.482012
0.472847
0.463295
0.453611
0.443967
0.434484
0.425242
0.416295
0.407676
0.399404
0.39149
0.383933
0.376731
0.369875
0.363356
0.357161
0.351278
0.345693
0.340393
0.335363
0.330591
0.326066
0.321766
0.214145
0.250649
0.284542
0.31208
0.332947
0.348027
0.358469
0.365345
0.369529
0.371681
0.372296
0.371745
0.370308
0.368203
0.365595
0.362617
0.359369
0.355934
0.352375
0.348743
0.345078
0.341412
0.33777
0.334171
0.330629
0.327158
0.323765
0.320457
0.317237
0.31411
0.311077
0.30814
0.305299
0.20564
0.221937
0.238617
0.25366
0.26644
0.276904
0.285273
0.29185
0.296935
0.300784
0.303614
0.305602
0.306896
0.307616
0.307861
0.307715
0.307247
0.306514
0.305564
0.304439
0.303172
0.301793
0.300325
0.29879
0.297204
0.295583
0.293939
0.292283
0.290623
0.288967
0.287321
0.285691
0.284083
0.202357
0.210378
0.219404
0.228106
0.235957
0.242783
0.248605
0.253515
0.257621
0.261027
0.263824
0.266097
0.267914
0.269339
0.270426
0.271218
0.271758
0.272079
0.272212
0.272183
0.272013
0.271725
0.271333
0.270855
0.270303
0.26969
0.269024
0.268315
0.267572
0.2668
0.266007
0.265198
0.264378
0.201008
0.2051
0.210232
0.215526
0.22054
0.225078
0.229098
0.232622
0.235689
0.238346
0.240635
0.242597
0.244268
0.245681
0.246866
0.247847
0.248648
0.249289
0.249788
0.250162
0.250425
0.25059
0.250668
0.250669
0.250602
0.250476
0.250298
0.250075
0.249811
0.249514
0.249188
0.248837
0.248465
0.200424
0.202508
0.205459
0.208754
0.21204
0.21513
0.217953
0.220495
0.222768
0.224789
0.22658
0.228159
0.229548
0.230765
0.231826
0.232746
0.23354
0.23422
0.234797
0.235281
0.235681
0.236006
0.236263
0.236459
0.2366
0.236691
0.236739
0.236747
0.236719
0.236661
0.236574
0.236463
0.236332
0.200163
0.201193
0.202864
0.204904
0.207067
0.20919
0.211193
0.213044
0.214736
0.216272
0.217659
0.218908
0.220029
0.221031
0.221926
0.222722
0.223428
0.224051
0.224599
0.225079
0.225496
0.225856
0.226165
0.226425
0.226643
0.226822
0.226965
0.227076
0.227158
0.227213
0.227245
0.227255
0.227247
0.200044
0.20052
0.201431
0.202661
0.20406
0.205505
0.206921
0.208268
0.209528
0.210694
0.211766
0.212747
0.213641
0.214454
0.215192
0.215859
0.21646
0.217002
0.217488
0.217924
0.218312
0.218657
0.218963
0.219232
0.219467
0.219672
0.219848
0.219999
0.220126
0.220232
0.220318
0.220387
0.22044
0.199989
0.200177
0.20064
0.201347
0.20222
0.203178
0.204159
0.205125
0.206054
0.206932
0.207754
0.208519
0.209227
0.209879
0.210478
0.211028
0.21153
0.211989
0.212406
0.212786
0.21313
0.213441
0.213722
0.213975
0.214201
0.214404
0.214584
0.214744
0.214885
0.215009
0.215117
0.21521
0.215291
0.199965
0.200004
0.200209
0.200585
0.201099
0.201706
0.202361
0.203034
0.203702
0.204351
0.204971
0.205559
0.206111
0.206627
0.207107
0.207553
0.207966
0.208347
0.208698
0.209021
0.209317
0.209589
0.209837
0.210063
0.21027
0.210457
0.210627
0.210781
0.21092
0.211046
0.211158
0.211259
0.211349
0.199954
0.199918
0.199979
0.20015
0.200426
0.200784
0.201198
0.201645
0.202107
0.20257
0.203025
0.203465
0.203886
0.204286
0.204664
0.205019
0.205352
0.205662
0.205951
0.20622
0.206469
0.2067
0.206913
0.20711
0.207291
0.207458
0.207611
0.207752
0.207881
0.207999
0.208108
0.208206
0.208296
0.199949
0.199877
0.199858
0.199908
0.20003
0.200217
0.200456
0.200733
0.201034
0.201348
0.201667
0.201984
0.202294
0.202594
0.202883
0.203158
0.203419
0.203665
0.203898
0.204116
0.204321
0.204512
0.20469
0.204857
0.205011
0.205155
0.205289
0.205413
0.205528
0.205634
0.205733
0.205824
0.205909
0.199947
0.199857
0.199796
0.199776
0.199803
0.199877
0.199994
0.200145
0.200323
0.20052
0.200729
0.200944
0.20116
0.201375
0.201586
0.201791
0.201988
0.202178
0.202358
0.20253
0.202693
0.202846
0.202991
0.203127
0.203256
0.203376
0.203488
0.203594
0.203693
0.203785
0.203872
0.203953
0.204029
0.199947
0.199847
0.199764
0.199706
0.199676
0.199679
0.199713
0.199776
0.199863
0.19997
0.200092
0.200224
0.200363
0.200506
0.200651
0.200794
0.200936
0.201074
0.201208
0.201337
0.201461
0.201579
0.201692
0.2018
0.201902
0.201999
0.202091
0.202177
0.202259
0.202337
0.20241
0.202479
0.202545
0.199946
0.199843
0.199749
0.199669
0.199608
0.199567
0.199548
0.19955
0.199573
0.199614
0.199669
0.199737
0.199814
0.199898
0.199986
0.200078
0.20017
0.200264
0.200356
0.200447
0.200536
0.200622
0.200705
0.200786
0.200864
0.200938
0.201009
0.201077
0.201142
0.201205
0.201264
0.201321
0.201375
0.199946
0.199841
0.199742
0.199651
0.199571
0.199505
0.199453
0.199417
0.199396
0.199389
0.199396
0.199415
0.199444
0.19948
0.199523
0.199572
0.199624
0.199678
0.199735
0.199792
0.199849
0.199907
0.199964
0.20002
0.200074
0.200128
0.20018
0.20023
0.200279
0.200326
0.200372
0.200417
0.200459
0.199946
0.19984
0.199739
0.199642
0.199553
0.199471
0.1994
0.19934
0.19929
0.199252
0.199225
0.199209
0.199201
0.199202
0.199209
0.199223
0.199242
0.199265
0.199291
0.19932
0.199351
0.199383
0.199416
0.19945
0.199485
0.199519
0.199554
0.199588
0.199622
0.199655
0.199688
0.199721
0.199753
0.199946
0.19984
0.199737
0.199638
0.199543
0.199454
0.199372
0.199297
0.19923
0.199172
0.199122
0.199081
0.199048
0.199022
0.199003
0.198991
0.198984
0.198982
0.198984
0.198989
0.198998
0.19901
0.199023
0.199039
0.199056
0.199074
0.199093
0.199113
0.199134
0.199156
0.199177
0.199199
0.199221
0.199946
0.19984
0.199736
0.199635
0.199538
0.199445
0.199356
0.199273
0.199196
0.199125
0.199061
0.199004
0.198954
0.198911
0.198873
0.198842
0.198817
0.198796
0.19878
0.198768
0.19876
0.198755
0.198753
0.198754
0.198757
0.198763
0.19877
0.198778
0.198788
0.198799
0.198812
0.198825
0.198839
0.199946
0.19984
0.199736
0.199634
0.199536
0.19944
0.199349
0.199261
0.199178
0.1991
0.199028
0.198962
0.198901
0.198846
0.198798
0.198754
0.198716
0.198683
0.198655
0.198631
0.198611
0.198595
0.198583
0.198573
0.198567
0.198562
0.198561
0.198561
0.198563
0.198567
0.198572
0.198578
0.198586
0.199946
0.19984
0.199735
0.199634
0.199534
0.199438
0.199345
0.199255
0.19917
0.199089
0.199013
0.198942
0.198876
0.198816
0.198761
0.198711
0.198667
0.198628
0.198593
0.198563
0.198537
0.198514
0.198496
0.198481
0.198468
0.198459
0.198452
0.198447
0.198445
0.198444
0.198446
0.198448
0.198453
0.199946
0.19984
0.199735
0.199633
0.199534
0.199437
0.199344
0.199254
0.199168
0.199087
0.19901
0.198939
0.198873
0.198812
0.198756
0.198706
0.198661
0.198621
0.198586
0.198554
0.198528
0.198505
0.198485
0.198469
0.198456
0.198446
0.198438
0.198433
0.198429
0.198428
0.198428
0.19843
0.198433
0.199946
0.19984
0.199735
0.199634
0.199534
0.199438
0.199346
0.199257
0.199174
0.199095
0.199022
0.198954
0.198892
0.198836
0.198785
0.19874
0.1987
0.198665
0.198635
0.198609
0.198587
0.198569
0.198554
0.198542
0.198533
0.198527
0.198523
0.198521
0.19852
0.198522
0.198524
0.198529
0.198534
0.199946
0.19984
0.199736
0.199635
0.199537
0.199442
0.199353
0.199269
0.19919
0.199118
0.199053
0.198995
0.198943
0.198898
0.198858
0.198825
0.198797
0.198774
0.198756
0.198741
0.19873
0.198723
0.198718
0.198716
0.198716
0.198718
0.198722
0.198728
0.198734
0.198742
0.19875
0.19876
0.19877
0.199946
0.19984
0.199737
0.199637
0.199542
0.199453
0.19937
0.199295
0.199228
0.19917
0.199121
0.199079
0.199046
0.19902
0.199001
0.198988
0.19898
0.198977
0.198978
0.198982
0.198989
0.198998
0.19901
0.199023
0.199037
0.199052
0.199068
0.199085
0.199102
0.199119
0.199136
0.199153
0.199171
0.199946
0.199841
0.19974
0.199645
0.199557
0.199478
0.19941
0.199354
0.199309
0.199277
0.199255
0.199244
0.199241
0.199247
0.199259
0.199277
0.199299
0.199325
0.199353
0.199384
0.199416
0.199448
0.199481
0.199514
0.199547
0.199579
0.199611
0.199642
0.199672
0.199701
0.199729
0.199756
0.199782
0.199947
0.199844
0.199749
0.199664
0.199592
0.199537
0.199499
0.19948
0.199477
0.199489
0.199515
0.199553
0.199599
0.199652
0.19971
0.199772
0.199836
0.199901
0.199965
0.20003
0.200092
0.200154
0.200213
0.20027
0.200324
0.200376
0.200426
0.200473
0.200518
0.20056
0.200599
0.200637
0.200672
0.199948
0.199852
0.19977
0.199711
0.199677
0.199673
0.199697
0.199746
0.199818
0.199907
0.20001
0.200122
0.200239
0.20036
0.20048
0.2006
0.200717
0.20083
0.200939
0.201043
0.201141
0.201234
0.201322
0.201405
0.201482
0.201554
0.201622
0.201685
0.201743
0.201797
0.201848
0.201894
0.201937
0.199951
0.199872
0.199828
0.199831
0.199884
0.199985
0.200128
0.200302
0.200499
0.20071
0.200928
0.201146
0.201361
0.201569
0.201768
0.201958
0.202136
0.202304
0.20246
0.202605
0.20274
0.202865
0.20298
0.203087
0.203184
0.203274
0.203356
0.203431
0.2035
0.203562
0.203619
0.203671
0.203718
0.19996
0.199932
0.199988
0.200141
0.200383
0.200695
0.201055
0.20144
0.201833
0.202222
0.202597
0.202954
0.203288
0.203598
0.203885
0.204149
0.20439
0.204611
0.204811
0.204994
0.205159
0.205309
0.205445
0.205567
0.205677
0.205777
0.205866
0.205946
0.206017
0.20608
0.206137
0.206186
0.20623
0.19999
0.200113
0.200438
0.200945
0.201582
0.202288
0.203012
0.20372
0.20439
0.205011
0.205578
0.206091
0.206552
0.206965
0.207333
0.207661
0.207953
0.208212
0.208442
0.208646
0.208826
0.208985
0.209126
0.209249
0.209357
0.209451
0.209533
0.209603
0.209664
0.209715
0.209757
0.209792
0.20982
0.200097
0.200698
0.201729
0.20303
0.20443
0.205804
0.207078
0.208222
0.209229
0.210107
0.210866
0.211521
0.212084
0.212568
0.212984
0.213341
0.213647
0.21391
0.214135
0.214327
0.21449
0.214628
0.214743
0.214839
0.214917
0.214979
0.215028
0.215064
0.215089
0.215104
0.215111
0.215109
0.2151
0.200521
0.202675
0.205525
0.20847
0.211189
0.21355
0.215527
0.217152
0.218476
0.219552
0.220424
0.221131
0.221704
0.222168
0.222543
0.222845
0.223086
0.223277
0.223425
0.223537
0.223617
0.223671
0.223702
0.223713
0.223707
0.223684
0.223649
0.223601
0.223542
0.223475
0.223398
0.223315
0.223225
0.202177
0.209422
0.217079
0.223316
0.228003
0.231437
0.233925
0.235719
0.23701
0.237936
0.238593
0.239054
0.239367
0.239569
0.239685
0.239733
0.239727
0.239676
0.239588
0.239469
0.239324
0.239157
0.238971
0.238768
0.23855
0.23832
0.23808
0.23783
0.237573
0.237308
0.237039
0.236764
0.236486
0.208503
0.227596
0.245316
0.25869
0.267554
0.272837
0.275658
0.27695
0.277338
0.277195
0.276744
0.276116
0.275385
0.274596
0.273774
0.272932
0.27208
0.271221
0.270359
0.269495
0.268631
0.267768
0.266908
0.266051
0.265198
0.264351
0.263511
0.262678
0.261853
0.261037
0.260232
0.259437
0.258653
0.248308
0.315061
0.34816
0.362157
0.367118
0.367958
0.366701
0.364185
0.360865
0.357053
0.352965
0.348753
0.344525
0.340356
0.336297
0.332383
0.328633
0.32506
0.321669
0.318461
0.315432
0.312577
0.309891
0.307366
0.304994
0.302768
0.30068
0.298722
0.296886
0.295167
0.293555
0.292046
0.290632
0.205354
0.221127
0.238043
0.254121
0.268995
0.282971
0.296258
0.308938
0.321054
0.332632
0.343696
0.354264
0.36435
0.373971
0.38314
0.391874
0.400187
0.408094
0.415611
0.422753
0.429535
0.435971
0.442078
0.447869
0.453358
0.45856
0.463488
0.468156
0.472575
0.476758
0.480716
0.484461
0.488009
0.618299
0.69443
0.816663
0.966131
1.13131
1.29982
1.46296
1.61359
1.74591
1.85588
1.94197
2.00524
2.04868
2.07631
2.09225
2.10005
2.10241
2.10118
2.09745
2.09187
2.0848
2.07648
2.06711
2.05688
2.04594
2.03438
2.02226
2.00956
1.99622
1.98215
1.9672
1.95122
1.93406
1.91555
1.89553
1.87387
1.85042
1.82509
1.7978
1.76848
1.73711
1.70372
1.66835
1.6311
1.59208
1.55148
1.5095
1.46638
1.4224
1.37787
1.33312
1.28847
1.24429
1.20092
1.15871
1.11799
1.07905
1.04219
1.00763
0.975578
0.946197
0.919598
0.895849
0.87498
0.85698
0.841804
0.829379
0.819604
0.812359
0.80751
0.804907
0.804395
0.805812
0.808991
0.813759
0.819944
0.827366
0.835847
0.845203
0.855251
0.86581
0.876699
0.887743
0.898774
0.909631
0.920166
0.930239
0.939727
0.948517
0.956511
0.963625
0.969787
0.974941
0.979032
0.982043
0.983909
0.98473
0.984253
0.983289
0.980022
0.399207
0.404198
0.417507
0.441622
0.477223
0.524784
0.584202
0.654779
0.735206
0.823622
0.917642
1.01444
1.11089
1.20388
1.29056
1.36867
1.43672
1.49408
1.54089
1.57792
1.60627
1.62718
1.64185
1.65133
1.6565
1.65802
1.65644
1.65214
1.64543
1.63653
1.6256
1.61275
1.59805
1.58153
1.56322
1.54314
1.52127
1.49764
1.47226
1.44517
1.41643
1.38611
1.35431
1.32117
1.28684
1.25151
1.21538
1.1787
1.14171
1.10469
1.06791
1.03165
0.996188
0.961803
0.928749
0.897264
0.867563
0.839833
0.814231
0.790878
0.769863
0.75124
0.735033
0.721234
0.709813
0.700715
0.693867
0.689182
0.686559
0.685892
0.687064
0.689958
0.69445
0.700415
0.707723
0.716241
0.72583
0.736349
0.747649
0.759581
0.771991
0.784722
0.79762
0.810533
0.823312
0.835817
0.847912
0.859474
0.870391
0.880558
0.889887
0.898296
0.905723
0.912104
0.917413
0.921577
0.924682
0.926494
0.927649
0.927429
0.326708
0.321613
0.317088
0.313616
0.31192
0.312761
0.316667
0.324284
0.336494
0.354173
0.378148
0.409098
0.447425
0.493123
0.545664
0.603948
0.66635
0.730854
0.79528
0.857522
0.91578
0.968702
1.01545
1.05566
1.08937
1.11689
1.13867
1.15525
1.16716
1.17488
1.17884
1.17941
1.17689
1.17155
1.16362
1.15328
1.1407
1.12605
1.10946
1.09109
1.07107
1.04957
1.02673
1.00274
0.977784
0.952052
0.925757
0.899117
0.872359
0.845711
0.819401
0.793654
0.768684
0.744693
0.721868
0.700377
0.680369
0.661965
0.645266
0.630346
0.617255
0.606019
0.596645
0.58912
0.583414
0.579486
0.577283
0.576743
0.577799
0.580379
0.584407
0.589805
0.596492
0.604383
0.613392
0.623425
0.634384
0.646164
0.658652
0.671731
0.685276
0.699157
0.713241
0.727394
0.741481
0.75537
0.768934
0.78205
0.794604
0.806491
0.817615
0.827888
0.837237
0.84559
0.85291
0.859119
0.864279
0.868184
0.871286
0.873908
0.317034
0.311838
0.306763
0.301844
0.297174
0.292876
0.289096
0.285976
0.283653
0.282369
0.282429
0.284203
0.288113
0.294624
0.304206
0.317293
0.334218
0.355153
0.380048
0.408591
0.440205
0.474079
0.509241
0.544645
0.579276
0.612231
0.642779
0.670385
0.69471
0.715588
0.732987
0.746977
0.757693
0.765308
0.770015
0.772015
0.771507
0.768688
0.76375
0.756882
0.748272
0.738105
0.726569
0.713853
0.700149
0.68565
0.670552
0.655051
0.639341
0.623613
0.60805
0.592829
0.578115
0.564059
0.550799
0.538458
0.527141
0.516937
0.507917
0.500134
0.493626
0.488416
0.484513
0.481915
0.480609
0.480576
0.48179
0.484221
0.487834
0.492593
0.49846
0.505392
0.513346
0.522276
0.53213
0.542853
0.554381
0.566643
0.579562
0.593048
0.607008
0.621336
0.635922
0.650652
0.665406
0.680063
0.694504
0.708611
0.72227
0.735374
0.747822
0.75952
0.770386
0.78034
0.789332
0.797277
0.804215
0.809963
0.814798
0.819994
0.302101
0.298521
0.294967
0.291428
0.287905
0.284416
0.280994
0.277677
0.274506
0.271525
0.268797
0.2664
0.26443
0.263008
0.262279
0.262414
0.263601
0.266042
0.269938
0.275466
0.282762
0.291898
0.302857
0.315529
0.329702
0.345076
0.361277
0.377893
0.394496
0.410674
0.426058
0.440335
0.453258
0.464647
0.474389
0.482426
0.488746
0.49338
0.496387
0.497852
0.497877
0.496578
0.494083
0.490528
0.486054
0.480808
0.474938
0.468592
0.461917
0.455055
0.448145
0.441317
0.434695
0.428392
0.422509
0.41714
0.412366
0.408256
0.404867
0.402248
0.400434
0.399453
0.399323
0.400058
0.401661
0.404136
0.407478
0.411683
0.416742
0.422648
0.429389
0.436952
0.445322
0.454483
0.464413
0.475083
0.486462
0.498508
0.511171
0.524391
0.5381
0.55222
0.566663
0.581334
0.596131
0.610947
0.625673
0.640198
0.654411
0.668205
0.681477
0.694128
0.706068
0.717209
0.72749
0.736819
0.745213
0.752509
0.758821
0.766266
0.282232
0.280117
0.277974
0.275797
0.273576
0.271314
0.269021
0.26671
0.264397
0.262099
0.259835
0.257625
0.255493
0.253469
0.25159
0.249897
0.248444
0.247292
0.246513
0.246184
0.246387
0.247202
0.248705
0.250954
0.25399
0.257823
0.262432
0.267761
0.273719
0.280186
0.287017
0.294052
0.301124
0.308069
0.314736
0.320991
0.32672
0.331837
0.336278
0.340008
0.343011
0.345297
0.34689
0.347832
0.34818
0.347998
0.347361
0.346349
0.345046
0.343536
0.341904
0.340235
0.338607
0.337098
0.335777
0.334711
0.33396
0.333576
0.333605
0.33409
0.335062
0.336552
0.338583
0.341174
0.344341
0.348097
0.352452
0.357417
0.362999
0.369206
0.376045
0.38352
0.391637
0.400398
0.409801
0.419841
0.430507
0.441782
0.453639
0.466044
0.478954
0.492312
0.506055
0.520108
0.534388
0.548805
0.563263
0.577659
0.591892
0.605856
0.619449
0.632569
0.645123
0.657015
0.668174
0.678504
0.687998
0.696513
0.704011
0.713326
0.26341
0.262273
0.261093
0.259864
0.258581
0.257242
0.255849
0.254408
0.252928
0.251417
0.249884
0.248337
0.246785
0.245239
0.243708
0.242205
0.240745
0.239346
0.238031
0.236823
0.235754
0.234856
0.234164
0.233714
0.233541
0.233676
0.234146
0.234967
0.236145
0.237676
0.23954
0.241708
0.244137
0.246774
0.249563
0.25244
0.255342
0.25821
0.260987
0.263626
0.266088
0.268344
0.270375
0.272175
0.273745
0.275098
0.276252
0.277236
0.27808
0.278824
0.279506
0.28017
0.280858
0.281612
0.282476
0.28349
0.284692
0.286118
0.2878
0.289768
0.292049
0.294667
0.297641
0.300992
0.304735
0.308888
0.313465
0.318479
0.323947
0.329883
0.3363
0.343215
0.350642
0.358593
0.367082
0.376116
0.3857
0.395835
0.406513
0.417721
0.429434
0.441621
0.454239
0.467233
0.480543
0.494094
0.507807
0.521594
0.535362
0.549014
0.562452
0.575575
0.588289
0.600496
0.612115
0.623047
0.633266
0.642644
0.651014
0.661783
0.248007
0.247449
0.246849
0.246204
0.245509
0.244761
0.243961
0.243112
0.242218
0.241282
0.240312
0.23931
0.238283
0.237235
0.23617
0.235093
0.234008
0.232923
0.231844
0.230779
0.22974
0.228739
0.22779
0.226908
0.226113
0.225421
0.22485
0.224419
0.224141
0.22403
0.224094
0.224336
0.224756
0.225348
0.226101
0.226999
0.228026
0.229159
0.230377
0.231657
0.232978
0.234321
0.235671
0.237014
0.238344
0.239656
0.240951
0.242234
0.243515
0.244806
0.246123
0.247484
0.248908
0.250416
0.252031
0.253774
0.255667
0.257729
0.259982
0.262443
0.265129
0.268057
0.27124
0.274693
0.278429
0.282462
0.286804
0.29147
0.296474
0.301832
0.30756
0.313677
0.3202
0.327149
0.33454
0.342392
0.350719
0.359533
0.368841
0.378644
0.388936
0.399703
0.410922
0.422562
0.434577
0.446917
0.459518
0.472309
0.48521
0.498138
0.511001
0.523706
0.536159
0.548265
0.55994
0.571081
0.581648
0.591527
0.600444
0.612225
0.236153
0.235917
0.235646
0.235338
0.234989
0.234597
0.234161
0.233682
0.233162
0.232604
0.232011
0.231386
0.230732
0.230053
0.22935
0.228627
0.227884
0.227126
0.226354
0.225573
0.224785
0.223996
0.223212
0.22244
0.221688
0.220964
0.22028
0.219645
0.21907
0.218565
0.218142
0.217807
0.217569
0.217433
0.217404
0.217481
0.217666
0.217955
0.218345
0.218831
0.219407
0.220068
0.220806
0.221618
0.2225
0.223449
0.224465
0.225548
0.226701
0.227929
0.229238
0.230636
0.232133
0.233737
0.235459
0.237311
0.239302
0.241445
0.243748
0.246222
0.248876
0.251718
0.254757
0.258001
0.261458
0.265138
0.269049
0.273203
0.277612
0.282288
0.287248
0.292508
0.298086
0.304002
0.310276
0.316929
0.323981
0.331449
0.339351
0.347698
0.356497
0.365751
0.375451
0.385583
0.396124
0.407039
0.418285
0.429808
0.441546
0.453429
0.465378
0.477312
0.489143
0.50078
0.51214
0.523124
0.533679
0.543706
0.552848
0.565194
0.227215
0.227153
0.227063
0.226944
0.226793
0.226608
0.226388
0.226134
0.225845
0.225525
0.225174
0.224794
0.224389
0.223961
0.22351
0.223039
0.222549
0.222042
0.221519
0.220981
0.220431
0.21987
0.219301
0.218727
0.218152
0.217582
0.21702
0.216473
0.215947
0.21545
0.214989
0.21457
0.214202
0.21389
0.213643
0.213464
0.213359
0.213332
0.213387
0.213526
0.21375
0.214061
0.214461
0.214949
0.215527
0.216196
0.216958
0.217814
0.218767
0.21982
0.220977
0.222242
0.223621
0.225118
0.226738
0.228487
0.23037
0.232392
0.234556
0.236867
0.239328
0.241943
0.244715
0.247648
0.250745
0.254011
0.257452
0.261074
0.264886
0.268899
0.273125
0.277577
0.282273
0.28723
0.292468
0.298007
0.30387
0.310078
0.31665
0.323607
0.330964
0.338733
0.346919
0.355522
0.364535
0.37394
0.383712
0.393816
0.404207
0.414831
0.425625
0.436521
0.447443
0.45831
0.469042
0.479548
0.489766
0.499616
0.50868
0.521159
0.220482
0.220511
0.220518
0.220503
0.220463
0.220398
0.220305
0.220184
0.220037
0.219863
0.219665
0.219444
0.219201
0.218938
0.218656
0.218358
0.218044
0.217715
0.217373
0.217017
0.21665
0.216272
0.215885
0.21549
0.21509
0.214687
0.214284
0.213883
0.213491
0.213109
0.212744
0.212401
0.212086
0.211803
0.21156
0.211361
0.211213
0.211121
0.21109
0.211126
0.211233
0.211415
0.211676
0.212022
0.212454
0.212976
0.213593
0.214307
0.215121
0.21604
0.217067
0.218204
0.219456
0.220825
0.222314
0.223926
0.225662
0.227524
0.229513
0.231629
0.233871
0.23624
0.238736
0.241358
0.244106
0.246983
0.249989
0.253129
0.256408
0.259833
0.263413
0.267158
0.271083
0.275203
0.279535
0.284098
0.288913
0.294003
0.299388
0.305092
0.311133
0.317531
0.3243
0.33145
0.338985
0.346902
0.355192
0.363834
0.372801
0.382057
0.391556
0.401243
0.411057
0.42093
0.430791
0.440559
0.450171
0.459559
0.468279
0.480494
0.215369
0.215443
0.2155
0.215541
0.215562
0.215564
0.215545
0.215504
0.215442
0.21536
0.215257
0.215136
0.214999
0.214845
0.214676
0.214495
0.214301
0.214096
0.21388
0.213655
0.213422
0.21318
0.212932
0.212678
0.212419
0.212157
0.211894
0.211632
0.211373
0.211121
0.210878
0.210649
0.210438
0.210248
0.210086
0.209955
0.209862
0.209811
0.209807
0.209857
0.209965
0.210136
0.210376
0.21069
0.211082
0.211557
0.212119
0.212773
0.213523
0.214371
0.215322
0.216379
0.217544
0.218819
0.220206
0.221705
0.223317
0.225041
0.226875
0.228818
0.230867
0.23302
0.235274
0.237626
0.240074
0.242617
0.245253
0.247984
0.250813
0.253742
0.256779
0.259931
0.263209
0.266625
0.270194
0.273933
0.27786
0.281996
0.286361
0.290979
0.295871
0.301059
0.306561
0.312395
0.318572
0.325099
0.33198
0.339207
0.346767
0.35464
0.362795
0.371194
0.37979
0.38853
0.397355
0.406195
0.414993
0.423695
0.431849
0.44346
0.211442
0.211535
0.211616
0.211684
0.211738
0.211777
0.2118
0.211806
0.211795
0.211769
0.211727
0.21167
0.211601
0.211519
0.211426
0.211323
0.211211
0.211091
0.210964
0.210832
0.210694
0.210551
0.210405
0.210256
0.210105
0.209953
0.209802
0.209654
0.209509
0.209371
0.209241
0.209123
0.209019
0.208934
0.20887
0.208833
0.208825
0.208853
0.208921
0.209033
0.209195
0.209413
0.20969
0.210032
0.210445
0.210932
0.211498
0.212149
0.212887
0.213716
0.21464
0.215661
0.216781
0.218003
0.219325
0.220748
0.222271
0.223893
0.225609
0.227417
0.229312
0.231291
0.233349
0.235481
0.237684
0.239953
0.242287
0.244684
0.247144
0.249668
0.252261
0.254927
0.257675
0.260513
0.263455
0.266513
0.269704
0.273047
0.27656
0.280264
0.284182
0.288334
0.292743
0.297426
0.302403
0.307686
0.313285
0.319204
0.325442
0.331989
0.338831
0.345942
0.353291
0.360838
0.368539
0.376337
0.384182
0.392034
0.399456
0.41019
0.208391
0.20849
0.20858
0.208659
0.208728
0.208786
0.208831
0.208864
0.208884
0.208891
0.208887
0.208872
0.208846
0.208812
0.208769
0.208719
0.208663
0.208603
0.208538
0.20847
0.2084
0.208329
0.208257
0.208185
0.208115
0.208047
0.207983
0.207923
0.20787
0.207825
0.207789
0.207766
0.207758
0.207768
0.207798
0.207853
0.207935
0.208049
0.2082
0.20839
0.208626
0.208912
0.209251
0.20965
0.210112
0.210643
0.211246
0.211926
0.212685
0.213529
0.214458
0.215477
0.216585
0.217784
0.219074
0.220453
0.22192
0.223471
0.225104
0.226812
0.228591
0.230437
0.232341
0.2343
0.236308
0.23836
0.240451
0.242579
0.244741
0.246939
0.249173
0.251447
0.253765
0.256136
0.258568
0.261073
0.263665
0.266359
0.269171
0.272122
0.275231
0.278518
0.282005
0.285711
0.289657
0.293859
0.298332
0.303087
0.308129
0.31346
0.319074
0.324959
0.331096
0.33746
0.344018
0.350727
0.357547
0.364451
0.371034
0.380695
0.205999
0.206095
0.206184
0.206266
0.20634
0.206405
0.206461
0.206508
0.206545
0.206573
0.206592
0.206602
0.206605
0.206601
0.206592
0.206578
0.206561
0.206541
0.20652
0.206498
0.206476
0.206456
0.206438
0.206424
0.206413
0.206408
0.206409
0.206418
0.206435
0.206464
0.206504
0.206559
0.20663
0.206721
0.206832
0.206969
0.207133
0.207328
0.207558
0.207827
0.208139
0.208497
0.208906
0.20937
0.209894
0.210481
0.211135
0.21186
0.212659
0.213535
0.21449
0.215525
0.216642
0.217841
0.21912
0.220479
0.221913
0.223421
0.224995
0.226633
0.228327
0.23007
0.231858
0.233682
0.235537
0.237415
0.239314
0.241227
0.243152
0.245088
0.247034
0.248993
0.250966
0.25296
0.254982
0.257041
0.259148
0.261316
0.26356
0.265897
0.268343
0.270919
0.273643
0.276536
0.279616
0.282903
0.286412
0.290158
0.294153
0.298402
0.30291
0.307673
0.312682
0.317922
0.323374
0.329007
0.334791
0.340708
0.346399
0.354868
0.204111
0.204199
0.204283
0.204361
0.204433
0.2045
0.204559
0.204612
0.204657
0.204696
0.204728
0.204755
0.204776
0.204792
0.204805
0.204815
0.204824
0.204832
0.204841
0.204852
0.204865
0.204881
0.204902
0.204929
0.204963
0.205004
0.205055
0.205115
0.205187
0.205273
0.205373
0.205489
0.205625
0.205781
0.20596
0.206166
0.2064
0.206666
0.206967
0.207306
0.207687
0.208114
0.20859
0.209119
0.209705
0.210351
0.21106
0.211835
0.21268
0.213596
0.214584
0.215647
0.216784
0.217995
0.219278
0.22063
0.222048
0.223528
0.225065
0.226651
0.228282
0.22995
0.231646
0.233365
0.235099
0.236842
0.238586
0.240328
0.242063
0.243789
0.245504
0.247209
0.248905
0.250597
0.252289
0.253989
0.255706
0.257451
0.259237
0.261077
0.262987
0.264984
0.267085
0.269309
0.271675
0.274199
0.2769
0.279792
0.28289
0.286205
0.289743
0.29351
0.297503
0.301717
0.30614
0.310753
0.315535
0.320479
0.325272
0.332503
0.202616
0.202694
0.202769
0.20284
0.202907
0.20297
0.203028
0.203082
0.203131
0.203174
0.203214
0.203249
0.203281
0.20331
0.203337
0.203363
0.20339
0.203417
0.203447
0.20348
0.203517
0.20356
0.203609
0.203666
0.203732
0.203808
0.203894
0.203994
0.204107
0.204236
0.204382
0.204547
0.204733
0.204942
0.205176
0.205437
0.205729
0.206054
0.206414
0.206814
0.207256
0.207743
0.208278
0.208866
0.209509
0.210209
0.21097
0.211795
0.212684
0.213641
0.214666
0.215759
0.216919
0.218147
0.219439
0.220793
0.222204
0.223667
0.225177
0.226727
0.22831
0.229918
0.231544
0.233179
0.234817
0.236449
0.23807
0.239674
0.241255
0.242812
0.24434
0.245841
0.247314
0.248762
0.250189
0.251601
0.253005
0.25441
0.255827
0.257267
0.258745
0.260275
0.261872
0.263553
0.265335
0.267233
0.269266
0.271448
0.273793
0.276316
0.279026
0.28193
0.285033
0.288334
0.29183
0.295511
0.299362
0.303382
0.307313
0.313321
0.201435
0.201501
0.201565
0.201627
0.201687
0.201744
0.201798
0.201849
0.201897
0.201942
0.201984
0.202023
0.202061
0.202097
0.202134
0.20217
0.202208
0.202248
0.202292
0.202341
0.202395
0.202456
0.202525
0.202604
0.202692
0.202793
0.202907
0.203035
0.203179
0.203341
0.203521
0.203723
0.203947
0.204197
0.204473
0.204779
0.205117
0.205489
0.205898
0.206347
0.206839
0.207376
0.207962
0.208599
0.20929
0.210038
0.210845
0.211713
0.212643
0.213636
0.214693
0.215814
0.216998
0.218242
0.219545
0.220902
0.222308
0.22376
0.225249
0.22677
0.228314
0.229874
0.231442
0.233009
0.234567
0.23611
0.237629
0.239119
0.240575
0.241993
0.24337
0.244704
0.245996
0.247247
0.24846
0.24964
0.250792
0.251924
0.253045
0.254165
0.255296
0.25645
0.257642
0.258884
0.260193
0.261584
0.263071
0.264669
0.266393
0.268256
0.270269
0.272442
0.274782
0.277293
0.279976
0.282827
0.285838
0.289012
0.292142
0.296988
0.200507
0.200561
0.200614
0.200666
0.200717
0.200767
0.200815
0.200861
0.200906
0.20095
0.200991
0.201032
0.201072
0.201113
0.201154
0.201197
0.201242
0.20129
0.201343
0.201402
0.201468
0.201541
0.201624
0.201717
0.201822
0.20194
0.202073
0.202221
0.202388
0.202573
0.202779
0.203008
0.203261
0.203541
0.203849
0.204188
0.204561
0.20497
0.205416
0.205904
0.206435
0.207012
0.207638
0.208315
0.209045
0.209832
0.210675
0.211578
0.21254
0.213563
0.214647
0.21579
0.216992
0.218249
0.219559
0.220917
0.222319
0.223759
0.22523
0.226724
0.228234
0.229752
0.231269
0.232777
0.234268
0.235734
0.237167
0.238562
0.239913
0.241216
0.242467
0.243664
0.244808
0.245898
0.246937
0.247928
0.248877
0.249789
0.250673
0.251536
0.252389
0.253242
0.254109
0.255
0.255929
0.256909
0.257955
0.259079
0.260296
0.261616
0.263053
0.264616
0.266315
0.268154
0.270139
0.272269
0.274543
0.276963
0.279372
0.28315
0.199789
0.199831
0.199873
0.199915
0.199957
0.199998
0.20004
0.200081
0.200121
0.200161
0.200201
0.200241
0.200282
0.200324
0.200367
0.200413
0.200462
0.200515
0.200574
0.200639
0.200712
0.200793
0.200885
0.200988
0.201103
0.201233
0.201378
0.20154
0.201721
0.201923
0.202146
0.202393
0.202667
0.202968
0.203299
0.203663
0.20406
0.204495
0.204969
0.205485
0.206045
0.206652
0.207307
0.208013
0.208773
0.209587
0.210457
0.211385
0.212371
0.213415
0.214517
0.215674
0.216887
0.21815
0.219462
0.220817
0.22221
0.223635
0.225085
0.226552
0.228029
0.229506
0.230976
0.23243
0.23386
0.235257
0.236616
0.237928
0.239188
0.240393
0.241537
0.24262
0.24364
0.244598