/*--------------------------------*- C++ -*----------------------------------*\
| =========                 |                                                 |
| \\      /  F ield         | OpenFOAM: The Open Source CFD Toolbox           |
|  \\    /   O peration     | Version:  4.1                                   |
|   \\  /    A nd           | Web:      www.OpenFOAM.org                      |
|    \\/     M anipulation  |                                                 |
\*---------------------------------------------------------------------------*/
FoamFile
{
    version     2.0;
    format      ascii;
    class       volScalarField;
    location    "900";
    object      nut;
}
// * * * * * * * * * * * * * * * * * * * * * * * * * * * * * * * * * * * * * //

dimensions      [0 2 -1 0 0 0 0];

internalField   nonuniform List<scalar> 
6820
(
3.5437e-05
5.0672e-05
6.21565e-05
6.89859e-05
7.29393e-05
7.51484e-05
7.62608e-05
7.66561e-05
7.65742e-05
7.61754e-05
7.5569e-05
7.48308e-05
7.40141e-05
7.31561e-05
7.22832e-05
7.14133e-05
7.05589e-05
6.97282e-05
6.89266e-05
6.81574e-05
6.7422e-05
6.67213e-05
6.6055e-05
6.54225e-05
6.48227e-05
6.42545e-05
6.37162e-05
6.32068e-05
6.2723e-05
6.22708e-05
6.18119e-05
6.15226e-05
6.06187e-05
0.00135033
0.000930454
0.000725657
0.000569941
0.000453328
0.000372218
0.000316223
0.000276487
0.000247302
0.000225194
0.000208006
0.000194347
0.000183294
0.000174212
0.000166657
0.000160304
0.000154915
0.000150307
0.000146343
0.000142912
0.000139928
0.000137322
0.000135037
0.000133026
0.000131252
0.000129681
0.000128287
0.000127046
0.000125936
0.000124945
0.000124035
0.000123263
0.000122375
0.0034439
0.00180034
0.00133708
0.00108081
0.000912409
0.000791562
0.000700947
0.00063099
0.000575611
0.000530788
0.000493805
0.000462783
0.000436392
0.000413669
0.000393905
0.000376561
0.000361227
0.000347581
0.000335366
0.000324379
0.000314452
0.000305447
0.000297251
0.000289768
0.000282915
0.000276623
0.000270833
0.000265492
0.000260553
0.000255978
0.000251724
0.000247775
0.000244045
0.00637392
0.00310291
0.00217847
0.00173334
0.00146616
0.00128428
0.00115082
0.00104807
0.000966256
0.000899457
0.000843822
0.000796729
0.000756323
0.000721253
0.000690512
0.000663332
0.000639118
0.000617403
0.000597813
0.000580047
0.000563859
0.000549047
0.000535441
0.000522899
0.000511301
0.000500545
0.000490542
0.000481216
0.0004725
0.000464336
0.000456667
0.000449452
0.000442625
0.00899737
0.00527271
0.00366202
0.00284163
0.00235737
0.00203856
0.00181195
0.00164188
0.00150906
0.00140219
0.00131419
0.00124038
0.00117752
0.0011233
0.00107604
0.00103444
0.000997547
0.000964581
0.000934941
0.000908141
0.000883785
0.00086155
0.000841166
0.000822409
0.000805088
0.000789042
0.000774133
0.000760241
0.000747262
0.000735105
0.000723686
0.000712937
0.000702774
0.0103765
0.00752965
0.00561349
0.00443387
0.0036773
0.00316202
0.00279169
0.00251363
0.00229739
0.00212446
0.001983
0.00186511
0.00176535
0.00167982
0.00160567
0.00154076
0.00148347
0.00143253
0.00138693
0.00134588
0.00130873
0.00127494
0.00124408
0.00121579
0.00118975
0.00116571
0.00114344
0.00112275
0.00110348
0.00108547
0.00106861
0.00105279
0.00103788
0.0109773
0.00922098
0.00752197
0.0062241
0.00528073
0.00458893
0.00406896
0.0036676
0.00335003
0.00309329
0.00288184
0.00270491
0.00255482
0.002426
0.0023143
0.00221655
0.00213034
0.00205377
0.00198532
0.00192379
0.00186819
0.00181772
0.00177171
0.0017296
0.00169093
0.00165529
0.00162234
0.00159179
0.0015634
0.00153694
0.00151221
0.00148906
0.00146732
0.0112223
0.01026
0.00902119
0.00786209
0.00689742
0.00612295
0.00550365
0.00500431
0.00459663
0.00425931
0.00397662
0.00373691
0.00353146
0.00335369
0.00319854
0.0030621
0.00294126
0.00283359
0.00273709
0.00265017
0.00257151
0.00250001
0.00243477
0.00237503
0.00232013
0.00226953
0.00222276
0.0021794
0.00213912
0.00210159
0.00206655
0.00203377
0.00200304
0.0113196
0.0108286
0.0100355
0.0091472
0.00830321
0.00755759
0.00691829
0.00637539
0.00591434
0.00552102
0.00518335
0.00489139
0.00463719
0.00441434
0.00421771
0.0040432
0.00388744
0.00374772
0.00362179
0.00350779
0.00340418
0.00330966
0.00322313
0.00314367
0.00307047
0.00300286
0.00294025
0.00288212
0.00282803
0.00277759
0.00273046
0.00268635
0.00264498
0.0113579
0.0111187
0.0106546
0.0100468
0.00939296
0.00875749
0.00817148
0.00764509
0.00717794
0.00676519
0.00640062
0.00607795
0.00579147
0.00553616
0.00530774
0.00510254
0.00491748
0.00474995
0.00459774
0.00445899
0.00433208
0.00421566
0.00410856
0.00400976
0.00391838
0.00383367
0.00375497
0.00368169
0.00361333
0.00354943
0.00348961
0.00343351
0.00338081
0.0113728
0.01126
0.0110057
0.0106242
0.0101642
0.00967403
0.00918758
0.0087244
0.00829364
0.0078983
0.00753797
0.00721062
0.00691348
0.00664365
0.00639827
0.0061747
0.00597057
0.00578376
0.00561239
0.0054548
0.00530956
0.0051754
0.00505118
0.00493595
0.00482882
0.00472904
0.00463594
0.00454891
0.00446743
0.00439102
0.00431927
0.0042518
0.00418827
0.0113787
0.0113266
0.011194
0.0109703
0.0106711
0.0103231
0.00995189
0.00957697
0.009211
0.00886139
0.00853191
0.008224
0.0079377
0.00767227
0.0074265
0.00719904
0.00698845
0.00679333
0.00661237
0.00644431
0.00628804
0.00614252
0.00600681
0.00588007
0.00576153
0.0056505
0.00554637
0.00544858
0.00535662
0.00527004
0.00518843
0.00511143
0.0050387
0.0113809
0.0113572
0.0112906
0.0111664
0.010984
0.0107537
0.0104904
0.0102084
0.00991919
0.00963122
0.00935016
0.00907954
0.00882138
0.00857663
0.00834556
0.00812801
0.00792352
0.00773148
0.0075512
0.00738196
0.00722301
0.00707367
0.00693326
0.00680115
0.00667673
0.00655947
0.00644885
0.0063444
0.00624569
0.00615233
0.00606396
0.00598023
0.00590086
0.0113818
0.0113708
0.0113383
0.0112723
0.0111671
0.0110237
0.0108485
0.0106497
0.0104355
0.0102131
0.00998805
0.00976447
0.00954535
0.00933265
0.00912765
0.00893106
0.00874324
0.00856427
0.00839403
0.00823232
0.00807881
0.00793316
0.007795
0.00766392
0.00753955
0.00742152
0.00730945
0.00720301
0.00710186
0.00700569
0.00691422
0.00682718
0.00674431
0.0113822
0.0113768
0.0113611
0.0113273
0.0112692
0.0111846
0.0110744
0.0109422
0.0107927
0.0106307
0.0104607
0.0102863
0.0101104
0.00993551
0.00976318
0.00959469
0.00943091
0.00927239
0.00911948
0.00897237
0.0088311
0.00869564
0.0085659
0.00844172
0.00832293
0.00820933
0.00810072
0.00799688
0.00789762
0.00780271
0.00771195
0.00762516
0.00754213
0.0113823
0.0113794
0.0113717
0.0113547
0.0113238
0.011276
0.0112101
0.0111268
0.0110279
0.0109162
0.0107945
0.0106655
0.0105317
0.0103951
0.0102574
0.01012
0.00998405
0.00985025
0.00971925
0.0095915
0.0094673
0.00934686
0.0092303
0.00911767
0.00900898
0.00890419
0.00880324
0.00870606
0.00861253
0.00852256
0.00843603
0.00835283
0.00827284
0.0113824
0.0113805
0.0113765
0.0113679
0.0113519
0.0113259
0.0112881
0.0112379
0.0111757
0.0111025
0.0110197
0.010929
0.0108321
0.0107305
0.0106258
0.010519
0.0104112
0.0103034
0.0101961
0.01009
0.00998548
0.00988291
0.00978254
0.00968457
0.00958912
0.0094963
0.00940615
0.0093187
0.00923395
0.00915188
0.00907246
0.00899564
0.00892138
0.0113824
0.0113809
0.0113786
0.0113741
0.0113658
0.0113519
0.011331
0.0113021
0.0112646
0.0112187
0.011165
0.0111041
0.0110372
0.0109652
0.0108891
0.0108098
0.0107282
0.010645
0.010561
0.0104765
0.0103922
0.0103084
0.0102255
0.0101436
0.010063
0.00998397
0.0099065
0.00983074
0.00975676
0.00968461
0.00961432
0.0095459
0.00947936
0.0113824
0.0113811
0.0113795
0.0113769
0.0113724
0.0113651
0.0113537
0.0113375
0.0113158
0.0112882
0.0112548
0.0112157
0.0111715
0.0111227
0.0110698
0.0110135
0.0109543
0.0108929
0.0108297
0.0107652
0.0107
0.0106342
0.0105683
0.0105025
0.010437
0.0103722
0.010308
0.0102447
0.0101824
0.0101212
0.0100611
0.0100022
0.00994458
0.0113824
0.0113812
0.0113798
0.0113781
0.0113755
0.0113714
0.0113653
0.0113563
0.011344
0.011328
0.011308
0.0112839
0.0112559
0.0112241
0.0111889
0.0111505
0.0111093
0.0110657
0.0110202
0.0109729
0.0109243
0.0108746
0.0108242
0.0107732
0.0107219
0.0106706
0.0106193
0.0105682
0.0105175
0.0104672
0.0104175
0.0103684
0.01032
0.0113824
0.0113812
0.01138
0.0113786
0.0113768
0.0113744
0.0113709
0.0113659
0.011359
0.0113499
0.0113382
0.0113238
0.0113067
0.0112868
0.0112641
0.011239
0.0112114
0.0111816
0.0111499
0.0111165
0.0110816
0.0110454
0.0110081
0.0109699
0.0109311
0.0108917
0.0108519
0.010812
0.0107719
0.0107318
0.0106918
0.010652
0.0106125
0.0113824
0.0113812
0.01138
0.0113788
0.0113774
0.0113757
0.0113735
0.0113706
0.0113666
0.0113614
0.0113547
0.0113463
0.011336
0.0113238
0.0113097
0.0112937
0.0112758
0.0112561
0.0112347
0.0112117
0.0111873
0.0111616
0.0111348
0.0111069
0.0110782
0.0110487
0.0110186
0.010988
0.010957
0.0109257
0.0108942
0.0108625
0.0108308
0.0113824
0.0113812
0.01138
0.0113789
0.0113776
0.0113763
0.0113747
0.0113728
0.0113703
0.0113672
0.0113632
0.0113582
0.0113521
0.0113447
0.011336
0.0113259
0.0113143
0.0113014
0.0112871
0.0112715
0.0112546
0.0112365
0.0112174
0.0111972
0.0111761
0.0111541
0.0111315
0.0111081
0.0110842
0.0110598
0.011035
0.0110099
0.0109845
0.0113824
0.0113812
0.01138
0.0113789
0.0113777
0.0113765
0.0113752
0.0113737
0.011372
0.0113699
0.0113673
0.0113642
0.0113603
0.0113555
0.0113499
0.0113432
0.0113355
0.0113267
0.0113167
0.0113057
0.0112936
0.0112805
0.0112663
0.0112512
0.0112351
0.0112182
0.0112006
0.0111822
0.0111632
0.0111436
0.0111235
0.0111029
0.011082
0.0113824
0.0113812
0.01138
0.0113789
0.0113777
0.0113766
0.0113753
0.011374
0.0113726
0.0113709
0.0113689
0.0113665
0.0113635
0.0113599
0.0113556
0.0113504
0.0113444
0.0113375
0.0113297
0.0113208
0.011311
0.0113002
0.0112885
0.0112759
0.0112624
0.011248
0.0112329
0.0112171
0.0112006
0.0111835
0.0111658
0.0111476
0.011129
0.0113824
0.0113812
0.01138
0.0113789
0.0113777
0.0113765
0.0113753
0.011374
0.0113725
0.0113707
0.0113686
0.0113661
0.011363
0.0113593
0.0113548
0.0113496
0.0113434
0.0113364
0.0113284
0.0113194
0.0113095
0.0112986
0.0112868
0.0112741
0.0112606
0.0112462
0.0112311
0.0112152
0.0111987
0.0111816
0.011164
0.0111458
0.0111272
0.0113824
0.0113812
0.01138
0.0113789
0.0113777
0.0113764
0.011375
0.0113734
0.0113715
0.0113691
0.0113662
0.0113626
0.0113583
0.011353
0.0113468
0.0113395
0.0113312
0.0113218
0.0113113
0.0112998
0.0112872
0.0112735
0.0112589
0.0112434
0.0112271
0.0112099
0.011192
0.0111734
0.0111542
0.0111344
0.0111142
0.0110935
0.0110725
0.0113824
0.0113812
0.01138
0.0113788
0.0113775
0.011376
0.0113742
0.0113718
0.0113688
0.0113648
0.0113599
0.0113537
0.0113462
0.0113373
0.011327
0.0113153
0.0113021
0.0112875
0.0112715
0.0112543
0.0112359
0.0112164
0.0111959
0.0111744
0.0111521
0.011129
0.0111053
0.011081
0.0110562
0.011031
0.0110054
0.0109796
0.0109535
0.0113824
0.0113812
0.01138
0.0113787
0.011377
0.0113748
0.0113718
0.0113676
0.0113618
0.0113543
0.0113449
0.0113333
0.0113196
0.0113037
0.0112857
0.0112656
0.0112436
0.0112198
0.0111944
0.0111675
0.0111393
0.01111
0.0110797
0.0110486
0.0110167
0.0109843
0.0109514
0.0109182
0.0108847
0.010851
0.0108173
0.0107836
0.0107499
0.0113824
0.0113813
0.0113799
0.0113781
0.0113755
0.0113714
0.0113652
0.0113564
0.0113446
0.0113295
0.0113109
0.0112888
0.0112634
0.0112347
0.0112031
0.0111689
0.0111323
0.0110938
0.0110535
0.0110117
0.0109688
0.010925
0.0108805
0.0108355
0.0107902
0.0107447
0.0106992
0.0106538
0.0106086
0.0105637
0.0105192
0.0104751
0.0104315
0.0113825
0.0113812
0.0113794
0.0113761
0.0113704
0.0113611
0.0113472
0.0113279
0.0113028
0.011272
0.0112356
0.011194
0.0111477
0.0110974
0.0110436
0.0109871
0.0109282
0.0108677
0.0108058
0.0107431
0.0106799
0.0106166
0.0105533
0.0104902
0.0104277
0.0103658
0.0103047
0.0102444
0.0101851
0.0101268
0.0100696
0.0100135
0.00995844
0.0113825
0.0113808
0.011377
0.0113691
0.0113545
0.0113315
0.0112988
0.011256
0.0112036
0.0111424
0.0110735
0.0109982
0.0109178
0.0108335
0.0107465
0.0106576
0.0105676
0.0104773
0.0103873
0.0102978
0.0102094
0.0101224
0.0100368
0.00995292
0.00987086
0.0097907
0.0097125
0.00963628
0.00956207
0.00948985
0.00941962
0.00935135
0.009285
0.0113825
0.0113787
0.0113679
0.0113447
0.0113054
0.011248
0.0111728
0.0110816
0.0109771
0.0108621
0.0107396
0.0106119
0.0104814
0.0103497
0.0102183
0.0100882
0.00996015
0.00983484
0.00971264
0.00959382
0.00947856
0.00936695
0.00925903
0.00915477
0.00905414
0.00895706
0.00886344
0.00877318
0.00868618
0.00860231
0.00852146
0.00844351
0.00836835
0.011382
0.0113691
0.0113325
0.0112633
0.0111587
0.0110222
0.0108601
0.0106799
0.0104883
0.010291
0.0100925
0.00989597
0.00970363
0.00951703
0.00933709
0.00916431
0.0089989
0.00884088
0.00869011
0.0085464
0.00840946
0.008279
0.00815471
0.00803628
0.00792339
0.00781574
0.00771303
0.00761498
0.00752134
0.00743184
0.00734626
0.00726437
0.00718597
0.0113786
0.0113249
0.0111997
0.0110009
0.0107442
0.0104511
0.0101407
0.00982717
0.00952002
0.00922488
0.00894479
0.00868112
0.00843415
0.00820345
0.00798818
0.00778734
0.00759987
0.00742475
0.00726099
0.00710765
0.00696389
0.00682893
0.00670204
0.0065826
0.00647
0.00636371
0.00626326
0.00616821
0.00607815
0.00599273
0.00591162
0.00583452
0.00576115
0.0113536
0.011126
0.0107259
0.0102229
0.00968832
0.00916705
0.00868064
0.00823688
0.00783646
0.00747677
0.00715407
0.00686444
0.00660376
0.00636828
0.00615476
0.00596041
0.00578287
0.00562012
0.00547044
0.00533237
0.00520464
0.00508615
0.00497596
0.00487325
0.0047773
0.00468749
0.00460324
0.00452408
0.00444956
0.00437931
0.00431297
0.00425024
0.00419084
0.0111683
0.0102731
0.00924316
0.00829367
0.00748992
0.00682636
0.00627847
0.00582284
0.00544041
0.00511624
0.00483928
0.00459995
0.00439098
0.00420686
0.00404337
0.00389717
0.00376565
0.00364667
0.00353852
0.00343977
0.00334924
0.00326595
0.00318905
0.00311784
0.00305171
0.00299014
0.00293267
0.0028789
0.0028285
0.00278116
0.0027366
0.0026946
0.00265494
0.00982659
0.0072389
0.00577405
0.00486951
0.00424873
0.00378755
0.00342701
0.00314024
0.00290887
0.00271813
0.00255776
0.00242093
0.0023028
0.00219976
0.00210909
0.00202868
0.00195686
0.0018923
0.00183394
0.00178091
0.0017325
0.00168811
0.00164725
0.0016095
0.00157452
0.001542
0.00151169
0.00148337
0.00145683
0.00143192
0.00140849
0.0013864
0.00136554
0.00414167
0.00254161
0.00204418
0.00174836
0.00154034
0.00137827
0.00124767
0.00114134
0.00105377
0.00098091
0.000919644
0.000867562
0.000822823
0.000784021
0.000750081
0.000720164
0.000693613
0.000669905
0.00064862
0.000629415
0.000612009
0.000596171
0.000581705
0.000568448
0.000556262
0.000545028
0.000534645
0.000525023
0.000516088
0.000507773
0.000500018
0.000492775
0.000485988
0.000119434
0.000124352
0.000129424
0.000134072
0.000138235
0.000142037
0.000145562
0.000148849
0.000151924
0.000154806
0.000157512
0.000160054
0.000162444
0.000164691
0.000166805
0.000168794
0.000170666
0.000172429
0.000174087
0.000175649
0.000177119
0.000178503
0.000179807
0.000181034
0.00018219
0.000183279
0.000184304
0.00018527
0.000186181
0.000187038
0.000187846
0.000188607
0.000189325
6.59677e-05
7.80961e-05
9.79069e-05
0.000124182
0.000156148
0.000192545
0.000232119
0.000273542
0.000315462
0.000356662
0.000396252
0.000433765
0.000469149
0.000502659
0.000534712
0.000565753
0.000596162
0.000626204
0.000656027
0.000685688
0.000715188
0.000744512
0.000773653
0.000802625
0.000831461
0.00086021
0.000888924
0.000917652
0.000946439
0.000975316
0.00100431
0.00103344
0.00106271
0.00109215
0.00112174
0.00115151
0.00118146
0.00121159
0.00124193
0.00127249
0.0013033
0.0013344
0.00136582
0.00139762
0.00142987
0.00146266
0.00149607
0.00153022
0.00156524
0.00160127
0.00163848
0.00167704
0.00171714
0.00175901
0.00180286
0.00184893
0.00189746
0.00194869
0.00200288
0.00206024
0.00212098
0.00218528
0.00225327
0.00232505
0.00240066
0.00248007
0.00256323
0.00264998
0.00274016
0.00283352
0.00292978
0.00302864
0.00312974
0.00323273
0.00333722
0.00344282
0.00354915
0.00365579
0.00376235
0.00386843
0.00397366
0.00407765
0.00418005
0.00428051
0.00437874
0.00447443
0.00456733
0.00465719
0.00474382
0.00482704
0.0049067
0.00498266
0.00505486
0.00512318
0.00518764
0.0052481
0.00530488
0.00535751
0.00540563
0.00546981
0.000121855
0.000121643
0.000123435
0.000128365
0.000136195
0.000146955
0.000160748
0.000177675
0.000197787
0.000221067
0.000247408
0.000276579
0.000308224
0.000341866
0.000376947
0.000412874
0.000449079
0.000485079
0.000520517
0.000555178
0.000588985
0.000621969
0.000654222
0.000685871
0.000717041
0.000747845
0.000778377
0.000808715
0.000838925
0.000869063
0.000899179
0.000929318
0.000959522
0.000989828
0.00102027
0.00105088
0.00108168
0.00111271
0.001144
0.00117558
0.00120749
0.00123979
0.00127253
0.00130578
0.00133962
0.00137413
0.00140943
0.00144565
0.00148291
0.00152138
0.00156123
0.00160265
0.00164584
0.00169102
0.00173842
0.00178827
0.00184081
0.00189626
0.00195485
0.00201678
0.00208219
0.00215124
0.00222398
0.00230046
0.00238065
0.00246447
0.00255177
0.00264239
0.00273608
0.00283258
0.00293158
0.00303277
0.0031358
0.00324032
0.003346
0.00345246
0.00355935
0.00366633
0.00377303
0.00387912
0.00398425
0.00408809
0.00419033
0.00429066
0.0043888
0.00448448
0.00457746
0.00466751
0.00475445
0.00483809
0.00491829
0.00499491
0.00506787
0.00513706
0.00520249
0.005264
0.00532191
0.00537575
0.00542499
0.005491
0.000240023
0.000235387
0.000230545
0.000226088
0.000222629
0.000220668
0.000220411
0.000221987
0.000225642
0.000231663
0.000240328
0.000251876
0.000266463
0.000284141
0.000304846
0.000328398
0.000354516
0.000382844
0.000412973
0.000444477
0.000476936
0.000509971
0.000543255
0.000576538
0.000609643
0.00064247
0.000674982
0.000707187
0.000739129
0.000770867
0.000802467
0.000833997
0.00086552
0.000897095
0.000928777
0.000960619
0.000992673
0.00102499
0.00105762
0.00109063
0.00112407
0.00115801
0.00119253
0.00122771
0.00126365
0.00130047
0.00133828
0.00137723
0.00141747
0.00145917
0.00150251
0.0015477
0.00159494
0.00164445
0.00169644
0.00175114
0.00180875
0.00186948
0.00193348
0.00200091
0.00207186
0.00214639
0.0022245
0.00230614
0.0023912
0.00247953
0.00257094
0.00266519
0.00276199
0.00286107
0.00296211
0.00306479
0.0031688
0.00327383
0.00337955
0.00348567
0.00359189
0.00369791
0.00380345
0.00390823
0.00401196
0.00411437
0.00421519
0.00431417
0.00441104
0.00450559
0.00459758
0.00468682
0.00477311
0.00485628
0.00493618
0.00501269
0.00508569
0.00515509
0.00522087
0.00528286
0.00534137
0.00539595
0.00544589
0.00551314
0.000435133
0.000426874
0.000418754
0.000410869
0.000403346
0.000396281
0.000389743
0.00038383
0.000378624
0.000374176
0.000370606
0.000368118
0.000367
0.000367606
0.000370317
0.000375501
0.000383459
0.000394388
0.000408352
0.000425288
0.000445011
0.000467253
0.000491691
0.000517979
0.000545776
0.000574769
0.000604681
0.000635283
0.000666397
0.000697892
0.00072968
0.000761712
0.000793971
0.000826465
0.000859217
0.000892267
0.000925662
0.000959458
0.00099372
0.00102852
0.00106392
0.00110002
0.00113692
0.0011747
0.0012135
0.00125344
0.00129465
0.0013373
0.00138155
0.00142757
0.00147556
0.00152571
0.00157822
0.00163327
0.00169107
0.00175178
0.00181558
0.00188258
0.0019529
0.00202658
0.00210364
0.00218405
0.00226771
0.0023545
0.00244422
0.00253666
0.00263156
0.00272864
0.00282761
0.00292816
0.00303
0.00313284
0.00323639
0.00334039
0.00344458
0.00354874
0.00365262
0.00375603
0.00385873
0.00396053
0.00406122
0.00416059
0.00425843
0.00435453
0.00444869
0.00454072
0.0046304
0.00471756
0.00480203
0.00488363
0.00496221
0.00503764
0.00510981
0.00517859
0.00524396
0.00530575
0.00536421
0.00541894
0.00546905
0.00553686
0.000691617
0.000679364
0.000667483
0.000656119
0.000645362
0.000635199
0.000625581
0.000616446
0.000607783
0.000599548
0.000591687
0.000584174
0.000577029
0.000570327
0.000564204
0.000558863
0.000554566
0.000551625
0.000550377
0.000551157
0.000554269
0.000559947
0.000568344
0.000579514
0.000593421
0.000609948
0.00062892
0.000650127
0.000673341
0.000698339
0.000724912
0.000752877
0.00078208
0.000812399
0.000843744
0.000876054
0.000909298
0.000943469
0.000978584
0.00101468
0.0010518
0.00109003
0.00112945
0.00117016
0.00121228
0.00125592
0.00130124
0.00134837
0.00139749
0.00144874
0.0015023
0.00155832
0.00161698
0.00167841
0.00174275
0.00181011
0.00188056
0.00195417
0.00203092
0.00211079
0.0021937
0.0022795
0.00236804
0.00245909
0.00255241
0.00264773
0.00274474
0.00284314
0.00294265
0.00304296
0.00314381
0.00324493
0.0033461
0.00344712
0.0035478
0.00364798
0.00374751
0.00384628
0.00394414
0.00404099
0.00413668
0.00423109
0.00432409
0.00441552
0.00450524
0.00459308
0.00467888
0.00476247
0.0048437
0.00492241
0.00499843
0.00507163
0.00514189
0.00520907
0.00527312
0.00533386
0.00539152
0.00544569
0.00549533
0.00556286
0.00102157
0.00100376
0.000986604
0.000970237
0.000954764
0.000940185
0.000926437
0.000913435
0.000901097
0.000889352
0.000878116
0.000867323
0.000856927
0.000846912
0.000837288
0.0008281
0.000819423
0.000811367
0.000804074
0.000797722
0.000792513
0.000788673
0.000786437
0.00078604
0.000787699
0.000791599
0.000797884
0.000806653
0.000817949
0.000831771
0.00084808
0.000866804
0.000887853
0.000911127
0.000936527
0.000963961
0.000993352
0.00102464
0.00105777
0.00109274
0.00112954
0.00116819
0.00120873
0.00125122
0.00129573
0.00134234
0.00139117
0.0014423
0.00149586
0.00155196
0.0016107
0.0016722
0.00173654
0.00180379
0.001874
0.00194721
0.00202339
0.0021025
0.00218445
0.00226912
0.00235632
0.00244587
0.00253749
0.00263093
0.00272587
0.00282202
0.00291904
0.00301665
0.00311453
0.00321242
0.00331007
0.00340728
0.00350387
0.0035997
0.00369465
0.00378865
0.00388163
0.00397356
0.00406439
0.00415411
0.00424266
0.00433001
0.0044161
0.00450085
0.00458417
0.00466595
0.00474607
0.00482438
0.00490075
0.00497502
0.00504705
0.00511668
0.00518377
0.00524818
0.00530984
0.00536853
0.00542445
0.00547722
0.00552565
0.00559189
0.0014436
0.00141783
0.00139312
0.00136956
0.00134724
0.00132615
0.00130624
0.00128742
0.00126959
0.00125266
0.00123655
0.00122117
0.00120649
0.00119246
0.00117908
0.00116637
0.00115437
0.00114311
0.00113266
0.0011231
0.00111451
0.001107
0.00110069
0.00109569
0.00109215
0.00109021
0.00109003
0.00109175
0.00109553
0.00110149
0.00110975
0.00112042
0.00113357
0.00114925
0.00116752
0.00118838
0.00121186
0.00123795
0.00126665
0.00129798
0.00133193
0.0013685
0.00140774
0.00144965
0.00149427
0.00154164
0.00159182
0.00164484
0.00170076
0.00175962
0.00182146
0.00188631
0.00195416
0.00202502
0.00209884
0.00217557
0.00225509
0.00233727
0.00242194
0.0025089
0.00259788
0.00268862
0.0027808
0.00287411
0.0029682
0.00306273
0.00315739
0.00325184
0.0033458
0.00343902
0.00353129
0.00362242
0.00371228
0.0038008
0.00388792
0.00397363
0.00405796
0.00414094
0.00422264
0.00430311
0.00438242
0.0044606
0.00453769
0.00461369
0.00468857
0.00476231
0.00483481
0.00490598
0.0049757
0.00504384
0.00511026
0.00517479
0.00523729
0.0052976
0.00535562
0.00541113
0.00546425
0.00551464
0.00556098
0.00562476
0.00196954
0.00193324
0.00189848
0.00186534
0.00183384
0.00180399
0.00177569
0.00174888
0.00172344
0.00169929
0.00167632
0.00165447
0.00163366
0.00161388
0.00159512
0.0015774
0.00156073
0.00154517
0.00153078
0.00151759
0.00150567
0.00149509
0.0014859
0.00147817
0.00147195
0.00146734
0.00146439
0.00146321
0.00146388
0.0014665
0.00147118
0.00147802
0.00148714
0.00149865
0.00151264
0.00152922
0.00154848
0.00157051
0.00159538
0.00162315
0.0016539
0.00168766
0.0017245
0.00176445
0.00180756
0.00185385
0.00190334
0.00195607
0.00201203
0.00207122
0.00213363
0.00219921
0.00226791
0.00233965
0.00241432
0.00249178
0.00257185
0.00265433
0.00273897
0.00282549
0.00291359
0.00300293
0.00309315
0.0031839
0.0032748
0.00336549
0.00345563
0.00354488
0.00363297
0.00371965
0.00380471
0.00388801
0.00396945
0.00404898
0.00412661
0.00420238
0.00427638
0.00434872
0.00441955
0.00448901
0.00455725
0.00462441
0.00469062
0.00475596
0.0048205
0.00488427
0.00494726
0.00500942
0.00507067
0.00513091
0.00519001
0.00524782
0.00530418
0.00535893
0.00541194
0.00546297
0.0055121
0.00555899
0.00560227
0.00566224
0.00259986
0.00255097
0.00250415
0.00245941
0.00241677
0.00237619
0.00233758
0.00230087
0.00226593
0.00223269
0.00220104
0.00217089
0.0021422
0.00211492
0.00208906
0.00206463
0.00204165
0.00202018
0.00200027
0.00198197
0.00196535
0.00195044
0.00193732
0.00192602
0.00191658
0.00190905
0.00190346
0.00189987
0.00189831
0.00189883
0.00190149
0.00190637
0.00191352
0.00192304
0.001935
0.0019495
0.00196664
0.00198651
0.0020092
0.00203481
0.00206342
0.00209512
0.00212997
0.00216804
0.00220939
0.00225405
0.00230205
0.0023534
0.0024081
0.00246611
0.0025274
0.00259189
0.00265949
0.00273006
0.00280346
0.00287948
0.00295791
0.00303849
0.00312092
0.00320487
0.00328999
0.00337591
0.00346224
0.00354857
0.00363453
0.00371971
0.00380377
0.00388638
0.00396724
0.0040461
0.00412278
0.00419713
0.00426908
0.0043386
0.00440573
0.00447054
0.00453318
0.00459382
0.00465266
0.00470993
0.00476585
0.00482066
0.00487457
0.00492776
0.00498039
0.00503257
0.00508437
0.00513583
0.0051869
0.00523755
0.00528766
0.00533712
0.00538577
0.00543344
0.00547999
0.00552518
0.00556903
0.00561119
0.00565033
0.00570501
0.00332324
0.00326076
0.00320081
0.00314337
0.00308842
0.00303592
0.00298577
0.00293789
0.00289218
0.00284854
0.00280688
0.00276711
0.00272918
0.00269306
0.00265873
0.00262621
0.00259554
0.00256674
0.00253989
0.00251505
0.00249226
0.00247159
0.00245309
0.0024368
0.00242278
0.00241104
0.00240163
0.00239456
0.00238985
0.00238754
0.00238765
0.00239022
0.00239527
0.00240285
0.00241302
0.00242582
0.00244133
0.00245961
0.00248074
0.00250479
0.00253184
0.00256195
0.0025952
0.00263164
0.00267132
0.00271428
0.00276054
0.0028101
0.00286295
0.00291905
0.00297834
0.00304071
0.00310606
0.00317424
0.00324504
0.00331826
0.00339363
0.00347087
0.00354963
0.00362958
0.00371032
0.00379146
0.00387258
0.00395327
0.00403312
0.00411174
0.00418876
0.00426383
0.00433667
0.00440704
0.00447473
0.00453961
0.00460161
0.00466071
0.00471697
0.00477049
0.00482142
0.00486999
0.00491642
0.00496102
0.00500405
0.00504584
0.00508667
0.00512681
0.00516652
0.005206
0.00524539
0.00528482
0.00532434
0.00536395
0.0054036
0.00544321
0.00548267
0.0055218
0.00556047
0.00559845
0.00563569
0.00567187
0.00570573
0.00575353
0.00411868
0.00404293
0.00397003
0.00389995
0.00383265
0.00376806
0.00370612
0.00364674
0.00358983
0.0035353
0.00348307
0.00343306
0.00338522
0.00333951
0.00329594
0.00325451
0.00321525
0.00317822
0.00314345
0.00311102
0.00308099
0.00305341
0.00302836
0.00300586
0.00298598
0.00296874
0.00295417
0.00294231
0.00293315
0.00292673
0.00292305
0.00292214
0.00292399
0.00292864
0.0029361
0.00294641
0.0029596
0.00297569
0.00299475
0.0030168
0.0030419
0.00307008
0.0031014
0.00313588
0.00317356
0.00321445
0.00325855
0.00330585
0.00335632
0.0034099
0.0034665
0.00352602
0.00358833
0.00365323
0.00372054
0.00378999
0.00386133
0.00393422
0.00400832
0.00408327
0.00415866
0.00423409
0.00430912
0.00438334
0.00445633
0.0045277
0.00459707
0.00466411
0.00472853
0.00479007
0.00484855
0.00490384
0.00495585
0.00500458
0.00505007
0.00509245
0.00513187
0.00516855
0.00520278
0.00523485
0.00526509
0.00529387
0.00532153
0.00534842
0.00537485
0.00540113
0.00542748
0.00545412
0.00548118
0.00550874
0.00553683
0.00556542
0.00559444
0.00562377
0.00565328
0.00568276
0.00571214
0.00574112
0.00576857
0.00580789
0.00495875
0.00487142
0.00478706
0.00470562
0.00462708
0.00455138
0.00447847
0.00440827
0.00434071
0.00427573
0.00421325
0.00415321
0.00409557
0.00404031
0.00398742
0.00393693
0.00388886
0.00384327
0.00380019
0.00375971
0.00372188
0.00368677
0.00365444
0.00362495
0.00359834
0.00357466
0.00355394
0.00353621
0.00352148
0.00350978
0.00350111
0.00349549
0.00349292
0.0034934
0.00349695
0.00350357
0.00351328
0.00352608
0.00354199
0.00356102
0.0035832
0.00360854
0.00363704
0.00366873
0.00370358
0.0037416
0.00378276
0.00382703
0.00387433
0.0039246
0.00397773
0.00403359
0.00409201
0.00415281
0.00421576
0.00428059
0.00434702
0.00441471
0.0044833
0.00455242
0.00462166
0.0046906
0.00475883
0.00482591
0.00489145
0.00495505
0.00501634
0.00507499
0.00513073
0.0051833
0.00523252
0.00527825
0.00532043
0.00535903
0.00539411
0.00542577
0.00545418
0.00547955
0.00550215
0.00552231
0.00554036
0.00555669
0.00557167
0.0055857
0.00559915
0.00561238
0.0056257
0.0056394
0.00565369
0.00566874
0.00568467
0.00570151
0.00571926
0.00573786
0.00575721
0.00577715
0.0057976
0.00581826
0.0058383
0.0058676
0.00581326
0.00571717
0.00562393
0.00553352
0.00544592
0.0053611
0.00527902
0.00519965
0.00512294
0.00504884
0.00497729
0.00490828
0.00484176
0.00477774
0.00471622
0.00465723
0.0046008
0.00454698
0.00449584
0.00444744
0.00440185
0.00435914
0.00431938
0.00428263
0.00424894
0.00421836
0.00419094
0.0041667
0.00414569
0.00412791
0.00411338
0.00410211
0.0040941
0.00408937
0.00408791
0.00408972
0.0040948
0.00410314
0.00411475
0.00412961
0.00414772
0.00416908
0.00419366
0.00422144
0.00425241
0.00428651
0.0043237
0.0043639
0.00440705
0.00445303
0.00450171
0.00455294
0.00460653
0.00466228
0.00471994
0.00477924
0.00483985
0.00490145
0.00496368
0.00502614
0.00508843
0.00515015
0.00521086
0.00527017
0.00532768
0.005383
0.00543578
0.00548572
0.00553252
0.00557597
0.00561589
0.00565214
0.00568466
0.00571342
0.00573848
0.00575994
0.00577793
0.00579269
0.00580445
0.00581354
0.00582028
0.00582505
0.00582825
0.00583027
0.00583152
0.0058324
0.00583327
0.00583446
0.00583628
0.00583895
0.00584268
0.00584757
0.00585371
0.0058611
0.0058697
0.00587939
0.00589013
0.00590164
0.00591344
0.00593143
0.00665244
0.00655119
0.00645246
0.00635625
0.00626257
0.00617142
0.00608279
0.00599668
0.00591307
0.00583194
0.00575327
0.00567705
0.00560329
0.005532
0.00546319
0.00539691
0.00533321
0.00527214
0.00521378
0.00515819
0.00510545
0.00505563
0.00500882
0.00496508
0.00492447
0.00488705
0.00485288
0.00482199
0.00479442
0.0047702
0.00474935
0.00473189
0.00471783
0.00470717
0.00469992
0.00469607
0.00469561
0.00469854
0.00470484
0.00471449
0.00472747
0.00474376
0.00476331
0.00478609
0.00481205
0.00484112
0.00487324
0.00490829
0.00494619
0.00498679
0.00502996
0.00507551
0.00512324
0.00517291
0.00522428
0.00527704
0.00533089
0.00538547
0.00544042
0.00549535
0.00554987
0.00560358
0.00565606
0.00570692
0.00575579
0.00580229
0.00584611
0.00588693
0.00592452
0.00595865
0.00598915
0.00601592
0.00603889
0.00605804