/*--------------------------------*- C++ -*----------------------------------*\
| =========                 |                                                 |
| \\      /  F ield         | OpenFOAM: The Open Source CFD Toolbox           |
|  \\    /   O peration     | Version:  4.1                                   |
|   \\  /    A nd           | Web:      www.OpenFOAM.org                      |
|    \\/     M anipulation  |                                                 |
\*---------------------------------------------------------------------------*/
FoamFile
{
    version     2.0;
    format      ascii;
    class       volScalarField;
    location    "900";
    object      p;
}
// * * * * * * * * * * * * * * * * * * * * * * * * * * * * * * * * * * * * * //

dimensions      [0 2 -2 0 0 0 0];

internalField   nonuniform List<scalar> 
6820
(
6.15764
-4.54128
-8.06791
-8.81314
-9.20574
-9.53698
-9.72535
-9.81867
-9.88157
-9.93424
-9.97731
-10.0123
-10.0425
-10.0697
-10.0945
-10.1175
-10.1388
-10.159
-10.1782
-10.1965
-10.2141
-10.2311
-10.2475
-10.2635
-10.279
-10.294
-10.3085
-10.3224
-10.3355
-10.3478
-10.3579
-10.3678
-10.364
-15.5616
-12.0144
-11.2125
-10.4082
-10.025
-9.94284
-9.92892
-9.92405
-9.93605
-9.96113
-9.98923
-10.0163
-10.0421
-10.067
-10.0907
-10.1132
-10.1344
-10.1546
-10.1739
-10.1925
-10.2103
-10.2275
-10.2441
-10.2603
-10.276
-10.2913
-10.3061
-10.3204
-10.3341
-10.3473
-10.359
-10.3714
-10.3768
-13.3712
-9.8632
-9.60111
-9.59086
-9.57818
-9.66871
-9.76189
-9.82413
-9.87476
-9.92192
-9.96339
-9.99883
-10.03
-10.0582
-10.084
-10.1078
-10.1299
-10.1506
-10.1703
-10.1891
-10.2071
-10.2244
-10.2412
-10.2574
-10.2732
-10.2886
-10.3036
-10.3182
-10.3323
-10.346
-10.359
-10.3727
-10.3836
-10.9443
-9.47335
-9.62381
-9.73413
-9.71424
-9.76336
-9.82748
-9.87107
-9.90728
-9.94332
-9.977
-10.0072
-10.0348
-10.0605
-10.0845
-10.107
-10.1283
-10.1485
-10.1678
-10.1864
-10.2042
-10.2215
-10.2382
-10.2545
-10.2704
-10.286
-10.3012
-10.3161
-10.3307
-10.3451
-10.3594
-10.3742
-10.3885
-10.492
-9.7774
-9.81605
-9.82696
-9.77745
-9.79935
-9.84584
-9.88207
-9.91444
-9.94761
-9.9794
-10.0085
-10.0354
-10.0606
-10.0842
-10.1065
-10.1275
-10.1476
-10.1667
-10.1851
-10.2029
-10.2201
-10.2368
-10.253
-10.269
-10.2846
-10.2999
-10.315
-10.33
-10.345
-10.36
-10.3758
-10.3921
-10.4113
-9.93156
-9.88352
-9.85753
-9.81367
-9.82696
-9.86345
-9.89548
-9.92542
-9.95607
-9.98572
-10.0133
-10.039
-10.0632
-10.0861
-10.1077
-10.1282
-10.1478
-10.1666
-10.1848
-10.2023
-10.2193
-10.2359
-10.2521
-10.268
-10.2836
-10.299
-10.3143
-10.3296
-10.345
-10.3607
-10.3772
-10.3947
-10.2883
-9.96192
-9.90764
-9.88217
-9.84896
-9.85697
-9.88481
-9.91208
-9.93883
-9.96649
-9.99366
-10.0194
-10.0437
-10.0668
-10.0888
-10.1097
-10.1296
-10.1488
-10.1672
-10.185
-10.2023
-10.2191
-10.2356
-10.2517
-10.2675
-10.2831
-10.2986
-10.314
-10.3295
-10.3452
-10.3612
-10.3781
-10.3962
-10.1794
-9.97389
-9.92919
-9.90694
-9.88106
-9.88531
-9.90624
-9.92907
-9.95269
-9.97752
-10.0023
-10.0262
-10.0492
-10.0711
-10.0922
-10.1123
-10.1317
-10.1503
-10.1684
-10.1858
-10.2028
-10.2194
-10.2357
-10.2516
-10.2673
-10.2829
-10.2984
-10.3138
-10.3294
-10.3453
-10.3615
-10.3786
-10.3967
-10.1083
-9.98467
-9.94713
-9.92723
-9.90737
-9.90983
-9.92597
-9.94528
-9.96622
-9.98858
-10.0113
-10.0335
-10.0551
-10.0759
-10.096
-10.1154
-10.1342
-10.1523
-10.1699
-10.187
-10.2037
-10.22
-10.236
-10.2518
-10.2674
-10.2829
-10.2983
-10.3137
-10.3293
-10.3452
-10.3615
-10.3785
-10.3964
-10.064
-9.99129
-9.96013
-9.9431
-9.92859
-9.93056
-9.94356
-9.96023
-9.97896
-9.99923
-10.02
-10.0407
-10.061
-10.0808
-10.1001
-10.1187
-10.1369
-10.1545
-10.1716
-10.1883
-10.2047
-10.2208
-10.2366
-10.2521
-10.2676
-10.2829
-10.2982
-10.3136
-10.3291
-10.3449
-10.3611
-10.3778
-10.3953
-10.0363
-9.99463
-9.96994
-9.95608
-9.94592
-9.948
-9.95896
-9.97365
-9.9906
-10.0091
-10.0283
-10.0477
-10.0668
-10.0856
-10.104
-10.122
-10.1395
-10.1566
-10.1733
-10.1897
-10.2057
-10.2215
-10.2371
-10.2524
-10.2677
-10.2828
-10.298
-10.3132
-10.3286
-10.3442
-10.3601
-10.3765
-10.3935
-10.0198
-9.99672
-9.97801
-9.96713
-9.96033
-9.96275
-9.97234
-9.98554
-10.001
-10.0181
-10.0359
-10.0541
-10.0722
-10.0901
-10.1077
-10.125
-10.142
-10.1586
-10.1749
-10.1909
-10.2066
-10.2221
-10.2374
-10.2525
-10.2675
-10.2825
-10.2975
-10.3125
-10.3276
-10.343
-10.3586
-10.3746
-10.3909
-10.0109
-9.99868
-9.98505
-9.97684
-9.97257
-9.97536
-9.98401
-9.99604
-10.0103
-10.0261
-10.0428
-10.0598
-10.077
-10.0941
-10.1111
-10.1277
-10.1442
-10.1603
-10.1762
-10.1918
-10.2072
-10.2224
-10.2374
-10.2523
-10.2671
-10.2818
-10.2966
-10.3113
-10.3262
-10.3412
-10.3564
-10.3719
-10.3876
-10.0072
-10.001
-9.99146
-9.98554
-9.9832
-9.98633
-9.99428
-10.0053
-10.0185
-10.0332
-10.0489
-10.065
-10.0813
-10.0976
-10.1139
-10.13
-10.1459
-10.1616
-10.1771
-10.1924
-10.2074
-10.2223
-10.2371
-10.2517
-10.2662
-10.2807
-10.2952
-10.3096
-10.3242
-10.3388
-10.3535
-10.3684
-10.3835
-10.0068
-10.0039
-9.99749
-9.9935
-9.9926
-9.99603
-10.0034
-10.0137
-10.0259
-10.0396
-10.0543
-10.0695
-10.085
-10.1007
-10.1163
-10.1318
-10.1473
-10.1625
-10.1776
-10.1925
-10.2072
-10.2218
-10.2363
-10.2506
-10.2648
-10.279
-10.2932
-10.3073
-10.3215
-10.3357
-10.35
-10.3643
-10.3786
-10.0085
-10.0074
-10.0033
-10.0009
-10.0011
-10.0047
-10.0117
-10.0212
-10.0325
-10.0453
-10.0591
-10.0735
-10.0883
-10.1032
-10.1182
-10.1332
-10.1481
-10.163
-10.1776
-10.1922
-10.2066
-10.2208
-10.235
-10.249
-10.2629
-10.2768
-10.2906
-10.3044
-10.3182
-10.3319
-10.3457
-10.3594
-10.3731
-10.0117
-10.0114
-10.0089
-10.0077
-10.0087
-10.0125
-10.0191
-10.0279
-10.0385
-10.0505
-10.0634
-10.077
-10.091
-10.1053
-10.1197
-10.1342
-10.1486
-10.163
-10.1772
-10.1914
-10.2055
-10.2194
-10.2332
-10.2469
-10.2605
-10.274
-10.2875
-10.3009
-10.3142
-10.3275
-10.3407
-10.3539
-10.3669
-10.0157
-10.0157
-10.0145
-10.0142
-10.0158
-10.0197
-10.0259
-10.0341
-10.044
-10.0551
-10.0673
-10.0801
-10.0934
-10.107
-10.1208
-10.1348
-10.1487
-10.1626
-10.1765
-10.1902
-10.2039
-10.2175
-10.231
-10.2443
-10.2576
-10.2707
-10.2838
-10.2968
-10.3097
-10.3225
-10.3352
-10.3477
-10.3602
-10.0202
-10.0204
-10.0199
-10.0203
-10.0223
-10.0261
-10.032
-10.0397
-10.0489
-10.0593
-10.0707
-10.0828
-10.0954
-10.1084
-10.1216
-10.135
-10.1484
-10.1619
-10.1753
-10.1887
-10.202
-10.2152
-10.2283
-10.2413
-10.2542
-10.2669
-10.2796
-10.2922
-10.3046
-10.3169
-10.329
-10.341
-10.3528
-10.025
-10.0252
-10.0253
-10.0261
-10.0282
-10.0321
-10.0376
-10.0447
-10.0533
-10.063
-10.0737
-10.0851
-10.097
-10.1094
-10.122
-10.1349
-10.1478
-10.1608
-10.1738
-10.1868
-10.1997
-10.2125
-10.2252
-10.2378
-10.2503
-10.2627
-10.2749
-10.287
-10.299
-10.3108
-10.3224
-10.3338
-10.3451
-10.0299
-10.0302
-10.0305
-10.0316
-10.0338
-10.0375
-10.0426
-10.0493
-10.0572
-10.0663
-10.0762
-10.087
-10.0983
-10.11
-10.1221
-10.1344
-10.1469
-10.1594
-10.172
-10.1845
-10.197
-10.2094
-10.2218
-10.234
-10.2461
-10.258
-10.2698
-10.2815
-10.293
-10.3043
-10.3154
-10.3263
-10.3369
-10.0349
-10.0351
-10.0356
-10.0368
-10.0389
-10.0424
-10.0471
-10.0533
-10.0606
-10.069
-10.0784
-10.0885
-10.0992
-10.1103
-10.1219
-10.1337
-10.1456
-10.1577
-10.1698
-10.182
-10.194
-10.2061
-10.218
-10.2298
-10.2415
-10.253
-10.2644
-10.2756
-10.2866
-10.2974
-10.308
-10.3183
-10.3284
-10.0399
-10.0401
-10.0406
-10.0417
-10.0437
-10.0468
-10.0511
-10.0567
-10.0635
-10.0713
-10.08
-10.0895
-10.0996
-10.1103
-10.1213
-10.1326
-10.1441
-10.1557
-10.1674
-10.1791
-10.1908
-10.2024
-10.2139
-10.2253
-10.2366
-10.2477
-10.2586
-10.2694
-10.2799
-10.2902
-10.3003
-10.3101
-10.3196
-10.0449
-10.0451
-10.0455
-10.0464
-10.048
-10.0507
-10.0546
-10.0596
-10.0658
-10.073
-10.0812
-10.0901
-10.0997
-10.1098
-10.1203
-10.1311
-10.1421
-10.1533
-10.1646
-10.1759
-10.1872
-10.1984
-10.2096
-10.2206
-10.2314
-10.2421
-10.2526
-10.2629
-10.273
-10.2828
-10.2924
-10.3017
-10.3107
-10.0499
-10.0501
-10.0503
-10.0508
-10.052
-10.0542
-10.0575
-10.062
-10.0676
-10.0742
-10.0818
-10.0901
-10.0992
-10.1088
-10.1188
-10.1292
-10.1399
-10.1506
-10.1615
-10.1724
-10.1833
-10.1942
-10.2049
-10.2155
-10.226
-10.2363
-10.2463
-10.2562
-10.2658
-10.2752
-10.2842
-10.293
-10.3016
-10.055
-10.0551
-10.055
-10.055
-10.0557
-10.0573
-10.0599
-10.0637
-10.0687
-10.0747
-10.0817
-10.0896
-10.0982
-10.1073
-10.1169
-10.1269
-10.1372
-10.1476
-10.1581
-10.1686
-10.1792
-10.1896
-10.2
-10.2102
-10.2203
-10.2302
-10.2398
-10.2493
-10.2584
-10.2673
-10.276
-10.2843
-10.2923
-10.0603
-10.0604
-10.0598
-10.0591
-10.059
-10.0597
-10.0616
-10.0648
-10.0691
-10.0746
-10.081
-10.0884
-10.0965
-10.1053
-10.1145
-10.1241
-10.134
-10.1441
-10.1542
-10.1645
-10.1747
-10.1848
-10.1948
-10.2047
-10.2144
-10.2239
-10.2331
-10.2421
-10.2509
-10.2594
-10.2676
-10.2754
-10.283
-10.0659
-10.0659
-10.0647
-10.063
-10.0619
-10.0617
-10.0627
-10.065
-10.0687
-10.0736
-10.0796
-10.0865
-10.0942
-10.1026
-10.1115
-10.1208
-10.1304
-10.1401
-10.15
-10.1599
-10.1698
-10.1796
-10.1893
-10.1988
-10.2082
-10.2173
-10.2262
-10.2348
-10.2432
-10.2513
-10.259
-10.2665
-10.2736
-10.0721
-10.0721
-10.0699
-10.0668
-10.0643
-10.0629
-10.0629
-10.0644
-10.0674
-10.0717
-10.0772
-10.0838
-10.0912
-10.0992
-10.1079
-10.1169
-10.1262
-10.1357
-10.1453
-10.1549
-10.1645
-10.1741
-10.1835
-10.1927
-10.2017
-10.2105
-10.219
-10.2273
-10.2353
-10.243
-10.2503
-10.2574
-10.2641
-10.0795
-10.0793
-10.0756
-10.0705
-10.0663
-10.0634
-10.0622
-10.0627
-10.065
-10.0688
-10.0739
-10.0801
-10.0872
-10.095
-10.1034
-10.1122
-10.1214
-10.1307
-10.14
-10.1495
-10.1588
-10.1681
-10.1772
-10.1862
-10.1949
-10.2034
-10.2116
-10.2196
-10.2272
-10.2345
-10.2415
-10.2482
-10.2545
-10.0887
-10.0882
-10.0821
-10.0742
-10.0676
-10.0628
-10.0602
-10.0597
-10.0613
-10.0646
-10.0693
-10.0752
-10.0822
-10.0898
-10.0981
-10.1068
-10.1158
-10.1249
-10.1341
-10.1434
-10.1525
-10.1616
-10.1705
-10.1792
-10.1877
-10.1959
-10.2038
-10.2115
-10.2188
-10.2258
-10.2325
-10.2388
-10.2448
-10.1011
-10.0998
-10.0897
-10.0776
-10.0679
-10.0609
-10.0566
-10.0551
-10.0559
-10.0588
-10.0632
-10.069
-10.0758
-10.0835
-10.0917
-10.1003
-10.1092
-10.1182
-10.1274
-10.1365
-10.1455
-10.1544
-10.1631
-10.1716
-10.1799
-10.1879
-10.1956
-10.203
-10.21
-10.2168
-10.2232
-10.2292
-10.2349
-10.1194
-10.1156
-10.0984
-10.0804
-10.0668
-10.057
-10.0509
-10.0483
-10.0485
-10.051
-10.0553
-10.061
-10.0679
-10.0755
-10.0837
-10.0924
-10.1013
-10.1103
-10.1195
-10.1285
-10.1375
-10.1463
-10.1549
-10.1633
-10.1714
-10.1792
-10.1868
-10.194
-10.2008
-10.2073
-10.2135
-10.2193
-10.2248
-10.1497
-10.1385
-10.1079
-10.0812
-10.0627
-10.0497
-10.0417
-10.0383
-10.0381
-10.0404
-10.0448
-10.0506
-10.0576
-10.0654
-10.0738
-10.0825
-10.0916
-10.1007
-10.1099
-10.119
-10.128
-10.1368
-10.1454
-10.1538
-10.1618
-10.1696
-10.177
-10.1841
-10.1909
-10.1973
-10.2033
-10.209
-10.2143
-10.2047
-10.1763
-10.1212
-10.0804
-10.0542
-10.0365
-10.0266
-10.0227
-10.0226
-10.0254
-10.0303
-10.0369
-10.0446
-10.053
-10.062
-10.0712
-10.0807
-10.0902
-10.0996
-10.109
-10.1181
-10.127
-10.1357
-10.1441
-10.1521
-10.1598
-10.1672
-10.1742
-10.1809
-10.1872
-10.1931
-10.1986
-10.2038
-10.2877
-10.2246
-10.1401
-10.0866
-10.0479
-10.0198
-10.0046
-9.99809
-9.99634
-9.99824
-10.0032
-10.0102
-10.0187
-10.0281
-10.0382
-10.0486
-10.0592
-10.0699
-10.0804
-10.0907
-10.1008
-10.1106
-10.1201
-10.1292
-10.138
-10.1463
-10.1543
-10.1618
-10.1689
-10.1755
-10.1818
-10.1876
-10.193
-10.4379
-10.2044
-10.075
-10.0617
-10.0469
-10.0295
-10.0236
-10.0231
-10.0233
-10.0248
-10.0281
-10.0327
-10.0383
-10.0448
-10.0519
-10.0595
-10.0675
-10.0757
-10.0841
-10.0925
-10.1008
-10.1091
-10.1171
-10.125
-10.1326
-10.14
-10.1471
-10.1538
-10.1602
-10.1663
-10.172
-10.1774
-10.1825
-11.3942
-10.171
-9.58069
-9.50142
-9.51456
-9.55217
-9.60767
-9.66361
-9.71428
-9.76097
-9.80396
-9.84278
-9.87751
-9.90866
-9.93672
-9.96205
-9.98498
-10.0058
-10.0248
-10.0423
-10.0582
-10.073
-10.0865
-10.0991
-10.1107
-10.1215
-10.1314
-10.1406
-10.1491
-10.157
-10.1641
-10.1707
-10.1765
-15.1633
-12.9605
-11.9293
-11.293
-10.8658
-10.6151
-10.4531
-10.33
-10.2377
-10.1734
-10.1298
-10.1003
-10.0809
-10.0692
-10.0632
-10.0613
-10.0625
-10.0658
-10.0707
-10.0766
-10.0833
-10.0905
-10.098
-10.1055
-10.113
-10.1205
-10.1277
-10.1347
-10.1414
-10.1478
-10.154
-10.1598
-10.1654
-1.24961
-5.34228
-7.46609
-8.23861
-8.67743
-9.04115
-9.30732
-9.48357
-9.60764
-9.70353
-9.77905
-9.83802
-9.88476
-9.92293
-9.95487
-9.982
-10.0054
-10.0258
-10.044
-10.0602
-10.0749
-10.0883
-10.1005
-10.1117
-10.1221
-10.1316
-10.1405
-10.1486
-10.1561
-10.1631
-10.1694
-10.1752
-10.1805
-10.3479
-10.1319
-10.4215
-10.691
-10.795
-10.8272
-10.8382
-10.8353
-10.8251
-10.8171
-10.8181
-10.8313
-10.8578
-10.897
-10.9472
-11.0058
-11.0699
-11.1366
-11.2031
-11.267
-11.3262
-11.3789
-11.4239
-11.4603
-11.4873
-11.5046
-11.5121
-11.5096
-11.4971
-11.4748
-11.4426
-11.4006
-11.3487
-11.287
-11.2152
-11.1333
-11.0411
-10.9385
-10.8251
-10.7008
-10.5654
-10.4186
-10.2603
-10.0903
-9.90835
-9.71455
-9.50888
-9.29144
-9.06245
-8.82224
-8.57127
-8.3101
-8.03943
-7.76011
-7.4731
-7.17947
-6.88044
-6.5773
-6.27143
-5.96425
-5.65725
-5.3519
-5.04964
-4.75188
-4.45994
-4.17506
-3.89833
-3.63075
-3.37313
-3.12615
-2.89034
-2.66606
-2.45356
-2.25294
-2.06418
-1.88714
-1.72161
-1.56724
-1.42364
-1.29035
-1.16687
-1.05267
-0.947196
-0.84991
-0.760266
-0.677732
-0.601797
-0.531977
-0.467797
-0.408849
-0.354653
-0.304972
-0.259077
-0.217374
-0.177729
-0.143533
-0.106001
-0.0824198
-0.0340874
-0.0420771
-10.3947
-10.3939
-10.5882
-10.7332
-10.7649
-10.7589
-10.7509
-10.7412
-10.7321
-10.7302
-10.7397
-10.7617
-10.796
-10.8413
-10.8957
-10.957
-11.0224
-11.0896
-11.1561
-11.2197
-11.2784
-11.3307
-11.3753
-11.4113
-11.4381
-11.4553
-11.4627
-11.4602
-11.4478
-11.4256
-11.3935
-11.3516
-11.2999
-11.2383
-11.1667
-11.085
-10.993
-10.8906
-10.7776
-10.6537
-10.5187
-10.3725
-10.2149
-10.0457
-9.86472
-9.67204
-9.46765
-9.25168
-9.02435
-8.786
-8.53706
-8.2781
-8.00982
-7.73305
-7.44871
-7.15787
-6.86171
-6.56149
-6.25855
-5.95429
-5.65015
-5.34756
-5.04794
-4.75266
-4.46303
-4.18025
-3.90542
-3.6395
-3.38332
-3.13755
-2.90272
-2.67921
-2.46727
-2.26702
-2.07845
-1.90145
-1.7358
-1.5812
-1.43725
-1.30353
-1.17954
-1.06477
-0.958691
-0.860763
-0.770453
-0.68724
-0.610616
-0.540104
-0.475231
-0.415592
-0.360703
-0.310338
-0.263738
-0.221376
-0.18096
-0.146267
-0.107615
-0.0845459
-0.0330241
-0.047238
-10.4075
-10.4223
-10.5094
-10.6107
-10.6674
-10.6961
-10.715
-10.7251
-10.7284
-10.7314
-10.7397
-10.7562
-10.7823
-10.8185
-10.8643
-10.918
-10.9775
-11.0403
-11.1039
-11.1655
-11.2231
-11.2748
-11.3191
-11.3551
-11.3819
-11.3993
-11.4069
-11.4047
-11.3926
-11.3707
-11.339
-11.2974
-11.2461
-11.1848
-11.1136
-11.0322
-10.9407
-10.8387
-10.7262
-10.6029
-10.4686
-10.3232
-10.1664
-9.9982
-9.81842
-9.62707
-9.42418
-9.20989
-8.98443
-8.74812
-8.50141
-8.24486
-7.97915
-7.70509
-7.42359
-7.13569
-6.84254
-6.54537
-6.24548
-5.94424
-5.64306
-5.34332
-5.04643
-4.75372
-4.46647
-4.18587
-3.913
-3.64881
-3.39412
-3.14961
-2.91581
-2.69311
-2.48176
-2.28191
-2.09355
-1.91659
-1.75083
-1.59598
-1.45168
-1.3175
-1.19298
-1.07761
-0.970884
-0.872274
-0.781257
-0.697321
-0.619964
-0.548715
-0.483103
-0.422728
-0.367102
-0.316008
-0.268664
-0.225596
-0.184384
-0.149132
-0.109384
-0.0866873
-0.0321789
-0.0521584
-10.4114
-10.436
-10.504
-10.5978
-10.6612
-10.6909
-10.7054
-10.7121
-10.7145
-10.7178
-10.7269
-10.7442
-10.7706
-10.806
-10.8496
-10.8996
-10.9543
-11.0114
-11.0689
-11.1247
-11.1771
-11.2244
-11.2653
-11.2987
-11.324
-11.3403
-11.3475
-11.3451
-11.3331
-11.3115
-11.2801
-11.2389
-11.188
-11.1272
-11.0565
-10.9757
-10.8847
-10.7833
-10.6714
-10.5489
-10.4154
-10.2709
-10.1152
-9.94817
-9.76972
-9.57987
-9.37864
-9.1662
-8.94276
-8.70865
-8.46432
-8.21032
-7.94732
-7.67609
-7.39755
-7.11271
-6.82267
-6.52865
-6.23192
-5.9338
-5.63566
-5.33888
-5.04481
-4.75476
-4.46998
-4.19165
-3.92082
-3.65844
-3.40533
-3.16215
-2.92945
-2.70762
-2.49692
-2.2975
-2.10939
-1.93249
-1.76664
-1.61155
-1.46689
-1.33225
-1.20717
-1.09118
-0.983784
-0.884459
-0.792698
-0.707997
-0.629864
-0.557834
-0.491439
-0.430282
-0.373875
-0.322006
-0.273877
-0.230057
-0.188017
-0.152154
-0.111309
-0.0888834
-0.0315166
-0.0568851
-10.4156
-10.4467
-10.503
-10.5755
-10.6283
-10.6565
-10.6736
-10.6858
-10.6948
-10.704
-10.7169
-10.7358
-10.7618
-10.795
-10.835
-10.8808
-10.9308
-10.9831
-11.036
-11.0875
-11.1358
-11.1794
-11.217
-11.2476
-11.2703
-11.2846
-11.2901
-11.2865
-11.2737
-11.2515
-11.2198
-11.1786
-11.1278
-11.0672
-10.9968
-10.9164
-10.826
-10.7252
-10.614
-10.4922
-10.3597
-10.2162
-10.0616
-9.89582
-9.71881
-9.53054
-9.33108
-9.12058
-8.89926
-8.66746
-8.4256
-8.17424
-7.91403
-7.64574
-7.37025
-7.08855
-6.80172
-6.51094
-6.21745
-5.92256
-5.62757
-5.33385
-5.0427
-4.75542
-4.47323
-4.19728
-3.92861
-3.66815
-3.41671
-3.17497
-2.94345
-2.72257
-2.51259
-2.31368
-2.12586
-1.94907
-1.78315
-1.62785
-1.48284
-1.34773
-1.2221
-1.10548
-0.997383
-0.897315
-0.804777
-0.719276
-0.640329
-0.567475
-0.500254
-0.438271
-0.381038
-0.32835
-0.279393
-0.234775
-0.191875
-0.155347
-0.113406
-0.0911363
-0.0310614
-0.0613686
-10.4185
-10.4509
-10.498
-10.5556
-10.6029
-10.6335
-10.6542
-10.6699
-10.682
-10.6936
-10.7078
-10.7268
-10.7517
-10.7828
-10.8198
-10.8619
-10.9077
-10.9555
-11.0038
-11.0508
-11.095
-11.1348
-11.1691
-11.1968
-11.2171
-11.2295
-11.2334
-11.2286
-11.2147
-11.1918
-11.1595
-11.1179
-11.0669
-11.0062
-10.9359
-10.8557
-10.7655
-10.6652
-10.5546
-10.4335
-10.3018
-10.1592
-10.0058
-9.84127
-9.66569
-9.47904
-9.28137
-9.07285
-8.85369
-8.62424
-8.38492
-8.13626
-7.87891
-7.61362
-7.34126
-7.06279
-6.77926
-6.49183
-6.20169
-5.91012
-5.61841
-5.32787
-5.03978
-4.7554
-4.47592
-4.20248
-3.9361
-3.67769
-3.42806
-3.18786
-2.95764
-2.7378
-2.52863
-2.33029
-2.14284
-1.96622
-1.80028
-1.6448
-1.49946
-1.36391
-1.23772
-1.12046
-1.01166
-0.910825
-0.817485
-0.731154
-0.651358
-0.577644
-0.509556
-0.446706
-0.388604
-0.335052
-0.285226
-0.239765
-0.195972
-0.15872
-0.115692
-0.0934431
-0.0308452
-0.0655471
-10.4199
-10.4515
-10.4924
-10.5402
-10.5825
-10.6131
-10.6352
-10.6526
-10.667
-10.6809
-10.6966
-10.7162
-10.7406
-10.7701
-10.8046
-10.8433
-10.8851
-10.9287
-10.9726
-11.0152
-11.0552
-11.0912
-11.1219
-11.1466
-11.1643
-11.1744
-11.1765
-11.1701
-11.1551
-11.1312
-11.0982
-11.0561
-11.0047
-10.9439
-10.8735
-10.7934
-10.7034
-10.6034
-10.4933
-10.3728
-10.2418
-10.1001
-9.94773
-9.78446
-9.61029
-9.42524
-9.22936
-9.02283
-8.80586
-8.57879
-8.34204
-8.09613
-7.8417
-7.57949
-7.31034
-7.03518
-6.75506
-6.47107
-6.1844
-5.89629
-5.60798
-5.32074
-5.03585
-4.7545
-4.47789
-4.2071
-3.94314
-3.68691
-3.4392
-3.20067
-2.97186
-2.75318
-2.54491
-2.34724
-2.16023
-1.98384
-1.81794
-1.66231
-1.51669
-1.3807
-1.25398
-1.13608
-1.02657
-0.924965
-0.830805
-0.74362
-0.662946
-0.588338
-0.519348
-0.455591
-0.396581
-0.342123
-0.291388
-0.245037
-0.20032
-0.162284
-0.118179
-0.0958029
-0.0308935
-0.069368
-10.4199
-10.4501
-10.4865
-10.5273
-10.5649
-10.5944
-10.6173
-10.6361
-10.6524
-10.668
-10.685
-10.7048
-10.7286
-10.7565
-10.7886
-10.8241
-10.8623
-10.9019
-10.9417
-10.9802
-11.0162
-11.0484
-11.0758
-11.0973
-11.1122
-11.12
-11.12
-11.1119
-11.0954
-11.0704
-11.0365
-10.9936
-10.9417
-10.8804
-10.8098
-10.7296
-10.6397
-10.54
-10.4302
-10.3102
-10.1799
-10.039
-9.88764
-9.72556
-9.55277
-9.36928
-9.17519
-8.97065
-8.75588
-8.53121
-8.29706
-8.05396
-7.80251
-7.54344
-7.27757
-7.00581
-6.72918
-6.44874
-6.16565
-5.8811
-5.59631
-5.31251
-5.03092
-4.75275
-4.47912
-4.2111
-3.94969
-3.69576
-3.4501
-3.21335
-2.98605
-2.76862
-2.56135
-2.36443
-2.17793
-2.00184
-1.83604
-1.68033
-1.53444
-1.39807
-1.27082
-1.15231
-1.04208
-0.939702
-0.844711
-0.756655
-0.675079
-0.59955
-0.529626
-0.464927
-0.404972
-0.349568
-0.297886
-0.250601
-0.204931
-0.166047
-0.120879
-0.0982155
-0.0312261
-0.0727868
-10.4188
-10.4474
-10.4801
-10.5157
-10.5493
-10.5775
-10.6006
-10.6203
-10.6378
-10.6547
-10.6724
-10.6924
-10.7154
-10.7419
-10.7717
-10.8043
-10.8391
-10.8751
-10.9109
-10.9455
-10.9777
-11.0063
-11.0302
-11.0487
-11.0609
-11.0662
-11.0641
-11.0542
-11.0361
-11.0097
-10.9748
-10.931
-10.8783
-10.8166
-10.7456
-10.6652
-10.5752
-10.4755
-10.366
-10.2464
-10.1166
-9.97658
-9.8261
-9.66515
-9.49369
-9.31175
-9.11942
-8.91684
-8.70427
-8.48202
-8.2505
-8.01021
-7.76178
-7.5059
-7.24336
-6.97507
-6.70199
-6.42518
-6.14574
-5.86483
-5.58365
-5.30337
-5.0252
-4.75029
-4.47974
-4.2146
-3.95583
-3.7043
-3.46078
-3.2259
-3.00021
-2.78412
-2.57793
-2.38183
-2.19592
-2.02019
-1.85453
-1.69878
-1.55269
-1.41595
-1.28821
-1.16908
-1.05816
-0.955003
-0.859175
-0.770235
-0.68774
-0.611267
-0.540381
-0.47471
-0.413776
-0.357389
-0.304725
-0.256462
-0.20981
-0.170017
-0.1238
-0.100681
-0.0318578
-0.0757669
-10.4169
-10.4437
-10.4735
-10.5051
-10.5354
-10.5621
-10.585
-10.605
-10.6233
-10.6409
-10.6591
-10.679
-10.7013
-10.7262
-10.7539
-10.7838
-10.8155
-10.8479
-10.88
-10.9109
-10.9394
-10.9644
-10.9851
-11.0005
-11.01
-11.0128
-11.0086
-10.9968
-10.9772
-10.9494
-10.9132
-10.8685
-10.815
-10.7527
-10.6812
-10.6005
-10.5104
-10.4107
-10.3013
-10.1821
-10.0528
-9.91341
-9.76381
-9.60393
-9.43376
-9.25333
-9.06272
-8.8621
-8.65171
-8.43186
-8.20296
-7.96551
-7.7201
-7.46742
-7.20825
-6.94345
-6.67396
-6.40081
-6.12507
-5.84787
-5.57034
-5.29365
-5.01895
-4.74736
-4.47996
-4.21777
-3.96172
-3.71266
-3.47135
-3.23842
-3.0144
-2.79972
-2.59467
-2.39946
-2.21419
-2.03886
-1.8734
-1.71765
-1.57138
-1.43431
-1.3061
-1.18638
-1.07477
-0.970836
-0.874168
-0.784335
-0.700908
-0.623472
-0.551602
-0.484931
-0.422988
-0.365585
-0.311905
-0.262624
-0.214963
-0.174198
-0.12695
-0.103199
-0.0327972
-0.0782806
-10.4141
-10.4393
-10.4666
-10.495
-10.5227
-10.5478
-10.5701
-10.5902
-10.6088
-10.6267
-10.6451
-10.6647
-10.6861
-10.7096
-10.7352
-10.7626
-10.7912
-10.8203
-10.849
-10.8763
-10.9012
-10.9228
-10.9403
-10.9527
-10.9594
-10.9598
-10.9534
-10.9397
-10.9184
-10.8892
-10.8519
-10.8061
-10.7518
-10.6888
-10.6168
-10.5357
-10.4454
-10.3457
-10.2364
-10.1175
-9.98869
-9.84996
-9.70121
-9.54239
-9.37348
-9.19453
-9.00563
-8.80695
-8.59872
-8.38127
-8.15499
-7.92036
-7.67798
-7.42851
-7.1727
-6.9114
-6.64552
-6.37605
-6.10403
-5.83055
-5.55671
-5.28363
-5.01244
-4.74421
-4.48
-4.2208
-3.96751
-3.72098
-3.48193
-3.25099
-3.0287
-2.81547
-2.61161
-2.41733
-2.23275
-2.05787
-1.89265
-1.73693
-1.59051
-1.45313
-1.32446
-1.20417
-1.09187
-0.987174
-0.889665
-0.798933
-0.714562
-0.636148
-0.563273
-0.495578
-0.432601
-0.37415
-0.319425
-0.269087
-0.220391
-0.178593
-0.13033
-0.10577
-0.0340472
-0.08031
-10.4105
-10.4342
-10.4593
-10.4852
-10.5106
-10.5342
-10.5558
-10.5756
-10.5942
-10.6122
-10.6304
-10.6496
-10.67
-10.6921
-10.7157
-10.7406
-10.7664
-10.7923
-10.8176
-10.8415
-10.8631
-10.8814
-10.8957
-10.9052
-10.9092
-10.9072
-10.8985
-10.8829
-10.8599
-10.8293
-10.7906
-10.7438
-10.6887
-10.6249
-10.5524
-10.471
-10.3805
-10.2807
-10.1715
-10.0529
-9.92454
-9.78646
-9.63856
-9.48078
-9.31313
-9.13566
-8.94847
-8.75172
-8.54566
-8.3306
-8.10693
-7.87513
-7.63577
-7.3895
-7.13706
-6.87926
-6.61699
-6.3512
-6.08291
-5.81315
-5.543
-5.27356
-5.00588
-4.74104
-4.48005
-4.22386
-3.97336
-3.72938
-3.49263
-3.26373
-3.0432
-2.83146
-2.62882
-2.43551
-2.25164
-2.07725
-1.91228
-1.75662
-1.61008
-1.4724
-1.3433
-1.22244
-1.10947
-1.004
-0.905648
-0.814011
-0.728685
-0.649277
-0.575381
-0.506641
-0.442603
-0.383078
-0.327278
-0.275848
-0.226093
-0.183202
-0.13394
-0.108394
-0.0356038
-0.0818479
-10.4062
-10.4284
-10.4517
-10.4755
-10.4989
-10.5211
-10.5418
-10.5611
-10.5794
-10.5973
-10.6152
-10.6336
-10.6531
-10.6736
-10.6953
-10.7179
-10.7409
-10.7639
-10.786
-10.8066
-10.8249
-10.84
-10.8513
-10.8579
-10.8593
-10.8548
-10.844
-10.8264
-10.8017
-10.7695
-10.7296
-10.6818
-10.6257
-10.5612
-10.4881
-10.4063
-10.3156
-10.2158
-10.1067
-9.98835
-9.86049
-9.72307
-9.57601
-9.41929
-9.25292
-9.07693
-8.89145
-8.69665
-8.49275
-8.28009
-8.05903
-7.83006
-7.59372
-7.35066
-7.10158
-6.84727
-6.5886
-6.32649
-6.06192
-5.79588
-5.52943
-5.26362
-4.99947
-4.73802
-4.48025
-4.22709
-3.9794
-3.73799
-3.50356
-3.27671
-3.05796
-2.84774
-2.64635
-2.45403
-2.2709
-2.09701
-1.93233
-1.77675
-1.63009
-1.49213
-1.3626
-1.24118
-1.12753
-1.0213
-0.922102
-0.829552
-0.743262
-0.662847
-0.587912
-0.518106
-0.452987
-0.39236
-0.33546
-0.282904
-0.232067
-0.188025
-0.13778
-0.111069
-0.0374572
-0.082898
-10.4012
-10.4221
-10.4437
-10.4657
-10.4874
-10.5083
-10.528
-10.5467
-10.5645
-10.5819
-10.5993
-10.617
-10.6353
-10.6543
-10.6741
-10.6944
-10.7149
-10.735
-10.7541
-10.7716
-10.7868
-10.7988
-10.8071
-10.8109
-10.8096
-10.8028
-10.7898
-10.7703
-10.7438
-10.7102
-10.669
-10.62
-10.563
-10.4978
-10.4241
-10.3419
-10.251
-10.1511
-10.0422
-9.92408
-9.7967
-9.65994
-9.51375
-9.3581
-9.193
-9.01852
-8.83476
-8.64191
-8.44019
-8.22992
-8.01149
-7.78534
-7.55202
-7.31216
-7.06643
-6.81562
-6.56054
-6.3021
-6.04124
-5.77892
-5.51616
-5.25396
-4.99334
-4.73528
-4.48073
-4.2306
-3.98573
-3.7469
-3.51479
-3.29001
-3.07306
-2.86437
-2.66425
-2.47294
-2.29056
-2.1172
-1.95281
-1.79731
-1.65055
-1.51232
-1.38237
-1.26039
-1.14607
-1.03907
-0.939019
-0.845549
-0.758282
-0.676847
-0.600855
-0.529965
-0.463742
-0.40199
-0.343965
-0.29025
-0.238309
-0.193059
-0.141844
-0.113797
-0.039592
-0.0834743
-10.3954
-10.4151
-10.4353
-10.4558
-10.476
-10.4955
-10.5143
-10.5322
-10.5494
-10.5662
-10.5828
-10.5996
-10.6167
-10.6343
-10.6522
-10.6704
-10.6883
-10.7057
-10.722
-10.7365
-10.7486
-10.7577
-10.7631
-10.7642
-10.7604
-10.7512
-10.7361
-10.7146
-10.6864
-10.6512
-10.6087
-10.5586
-10.5007
-10.4347
-10.3605
-10.2779
-10.1867
-10.0868
-9.97801
-9.86021
-9.73332
-9.59724
-9.45192
-9.29736
-9.13356
-8.96059
-8.77857
-8.58768
-8.38815
-8.18029
-7.96447
-7.74115
-7.51086
-7.27418
-7.03181
-6.78447
-6.53297
-6.27819
-6.02102
-5.7624
-5.50331
-5.24472
-4.98761
-4.73292
-4.48159
-4.23449
-3.99244
-3.75618
-3.52641
-3.3037
-3.08856
-2.88141
-2.68257
-2.49227
-2.31066
-2.13782
-1.97374
-1.81834
-1.67148
-1.53298
-1.40261
-1.28007
-1.16508
-1.0573
-0.956393
-0.861992
-0.773737
-0.691267
-0.614203
-0.542209
-0.474862
-0.41196
-0.352786
-0.297881
-0.244815
-0.198303
-0.146126
-0.116578
-0.0419874
-0.0836009
-10.3891
-10.4076
-10.4265
-10.4455
-10.4644
-10.4828
-10.5005
-10.5176
-10.534
-10.55
-10.5659
-10.5816
-10.5975
-10.6136
-10.6297
-10.6457
-10.6613
-10.6761
-10.6896
-10.7013
-10.7106
-10.7169
-10.7195
-10.718
-10.7117
-10.7001
-10.6829
-10.6595
-10.6296
-10.5929
-10.5491
-10.4979
-10.439
-10.3723
-10.2975
-10.2145
-10.1231
-10.0231
-9.91443
-9.79695
-9.67055
-9.53516
-9.39074
-9.23727
-9.07478
-8.90334
-8.72308
-8.53415
-8.33682
-8.13137
-7.91817
-7.69768
-7.47039
-7.2369
-6.99786
-6.75398
-6.50605
-6.2549
-6.0014
-5.74647
-5.49103
-5.23602
-4.9824
-4.73107
-4.48294
-4.23885
-3.9996
-3.76592
-3.53847
-3.31783
-3.1045
-2.89889
-2.70133
-2.51205
-2.33121
-2.1589
-1.99513
-1.83983
-1.69288
-1.55412
-1.42332
-1.30023
-1.18456
-1.076
-0.974216
-0.878875
-0.789619
-0.706098
-0.627945
-0.554829
-0.486337
-0.422263
-0.361918
-0.305793
-0.251579
-0.203752
-0.15062
-0.119414
-0.0446187
-0.0833105
-10.3821
-10.3995
-10.4172
-10.435
-10.4527
-10.4699
-10.4866
-10.5028
-10.5184
-10.5335
-10.5484
-10.5631
-10.5777
-10.5922
-10.6066
-10.6205
-10.6339
-10.6462
-10.6572
-10.6662
-10.6727
-10.6763
-10.6763
-10.6722
-10.6635
-10.6497
-10.6304
-10.6051
-10.5736
-10.5354
-10.4902
-10.4379
-10.3781
-10.3106
-10.2353
-10.1518
-10.0602
-9.96019
-9.85166
-9.7345
-9.60861
-9.47393
-9.33041
-9.17806
-9.01689
-8.84699
-8.66848
-8.48154
-8.2864
-8.08336
-7.87278
-7.6551
-7.43082
-7.2005
-6.96477
-6.72434
-6.47995
-6.2324
-5.98254
-5.73126
-5.47944
-5.22799
-4.97783
-4.72984
-4.48488
-4.24378
-4.00731
-3.77619
-3.55105
-3.33247
-3.12094
-2.91687
-2.72058
-2.53231
-2.35225
-2.18047
-2.017
-1.8618
-1.71476
-1.57572
-1.4445
-1.32084
-1.20449
-1.09514
-0.992481
-0.896187
-0.805917
-0.721331
-0.642073
-0.567816
-0.49816
-0.432891
-0.371351
-0.313979
-0.258595
-0.209404
-0.155315
-0.122305
-0.0474577
-0.0826429
-10.3745
-10.3909
-10.4076
-10.4242
-10.4407
-10.4569
-10.4726
-10.4878
-10.5025
-10.5167
-10.5306
-10.5441
-10.5574
-10.5704
-10.583
-10.595
-10.6062
-10.6162
-10.6247
-10.6311
-10.6351
-10.6361
-10.6335
-10.627
-10.616
-10.6
-10.5787
-10.5516
-10.5184
-10.4787
-10.4323
-10.3788
-10.3181
-10.2499
-10.174
-10.0902
-9.99834
-9.89829
-9.78991
-9.67308
-9.54772
-9.41376
-9.27117
-9.11993
-8.9601
-8.79175
-8.61501
-8.43005
-8.2371
-8.03647
-7.82851
-7.61363
-7.39234
-7.16516
-6.93273
-6.69571
-6.45482
-6.21085
-5.9646
-5.71693
-5.46869
-5.22076
-4.97402
-4.72932
-4.48751
-4.24937
-4.01566
-3.78706
-3.56422
-3.34768
-3.13793
-2.93537
-2.74034
-2.55309
-2.37378
-2.20253
-2.03936
-1.88425
-1.73711
-1.5978
-1.46614
-1.34192
-1.22487
-1.11472
-1.01118
-0.913917
-0.82262
-0.736954
-0.656574
-0.581159
-0.510319
-0.443834
-0.381078
-0.322431
-0.265855
-0.215253
-0.160201
-0.125256
-0.0504733
-0.081643
-10.3664
-10.3819
-10.3976
-10.4131
-10.4286
-10.4437
-10.4584
-10.4726
-10.4863
-10.4996
-10.5124
-10.5248
-10.5367
-10.5482
-10.5591
-10.5692
-10.5783
-10.5861
-10.5922
-10.5962
-10.5978
-10.5963
-10.5914
-10.5825
-10.5693
-10.5512
-10.528
-10.4991
-10.4643
-10.4231
-10.3755
-10.3209
-10.2593
-10.1904
-10.1139
-10.0297
-9.9377
-9.83763
-9.72942
-9.61294
-9.48812
-9.35489
-9.21323
-9.06314
-8.90466
-8.73787
-8.56289
-8.37991
-8.18916
-7.99093
-7.78557
-7.57349
-7.35515
-7.1311
-6.90193
-6.66828
-6.43086
-6.19042
-5.94774
-5.70363
-5.45892
-5.21446
-4.9711
-4.72966
-4.49094
-4.25572
-4.02472
-3.79862
-3.57803
-3.36351
-3.15551
-2.95446
-2.76067
-2.57441
-2.39585
-2.22511
-2.06223
-1.9072
-1.75994
-1.62035
-1.48825
-1.36344
-1.24569
-1.13473
-1.03029
-0.932051
-0.839712
-0.752952
-0.671433
-0.594842
-0.5228
-0.455079
-0.391086
-0.331138
-0.273346
-0.221292
-0.165263
-0.128268
-0.0536322
-0.0803588
-10.3579
-10.3725
-10.3872
-10.4018
-10.4162
-10.4303
-10.444
-10.4572
-10.47
-10.4822
-10.4939
-10.5051
-10.5157
-10.5257
-10.5349
-10.5432
-10.5503
-10.556
-10.5599
-10.5617
-10.5609