/*--------------------------------*- C++ -*----------------------------------*\
| =========                 |                                                 |
| \\      /  F ield         | OpenFOAM: The Open Source CFD Toolbox           |
|  \\    /   O peration     | Version:  4.1                                   |
|   \\  /    A nd           | Web:      www.OpenFOAM.org                      |
|    \\/     M anipulation  |                                                 |
\*---------------------------------------------------------------------------*/
FoamFile
{
    version     2.0;
    format      ascii;
    class       surfaceScalarField;
    location    "900";
    object      phi;
}
// * * * * * * * * * * * * * * * * * * * * * * * * * * * * * * * * * * * * * //

dimensions      [0 3 -1 0 0 0 0];

internalField   nonuniform List<scalar> 
13452
(
6.28704e-05
-2.60189e-06
6.37403e-05
-8.69978e-07
6.46286e-05
-8.88282e-07
6.4105e-05
5.23571e-07
6.28898e-05
1.21529e-06
6.15445e-05
1.34523e-06
6.02725e-05
1.27202e-06
5.91139e-05
1.1586e-06
5.80686e-05
1.04528e-06
5.71283e-05
9.40334e-07
5.62815e-05
8.46827e-07
5.55161e-05
7.65387e-07
5.48213e-05
6.9479e-07
5.41881e-05
6.33246e-07
5.36088e-05
5.79209e-07
5.30774e-05
5.31478e-07
5.25883e-05
4.89095e-07
5.2137e-05
4.51268e-07
5.17197e-05
4.17352e-07
5.13328e-05
3.86825e-07
5.09736e-05
3.5926e-07
5.06393e-05
3.34308e-07
5.03276e-05
3.11682e-07
5.00364e-05
2.91154e-07
4.97639e-05
2.72547e-07
4.95081e-05
2.55743e-07
4.92674e-05
2.40698e-07
4.904e-05
2.27434e-07
4.88238e-05
2.16238e-07
4.86167e-05
2.07029e-07
4.84153e-05
2.01397e-07
4.82239e-05
1.91391e-07
1.8043e-07
4.80435e-05
6.30682e-05
-3.67972e-06
6.27994e-05
-6.01195e-07
6.21233e-05
-2.12203e-07
6.23359e-05
3.10961e-07
6.27935e-05
7.57661e-07
6.31929e-05
9.45858e-07
6.34611e-05
1.00381e-06
6.36058e-05
1.01394e-06
6.36526e-05
9.98475e-07
6.36273e-05
9.65593e-07
6.35508e-05
9.23368e-07
6.34383e-05
8.77893e-07
6.33008e-05
8.32238e-07
6.31464e-05
7.87696e-07
6.29807e-05
7.44915e-07
6.28079e-05
7.04265e-07
6.26311e-05
6.65903e-07
6.24525e-05
6.29834e-07
6.22739e-05
5.95994e-07
6.20964e-05
5.6429e-07
6.1921e-05
5.34616e-07
6.17485e-05
5.06864e-07
6.15792e-05
4.80932e-07
6.14137e-05
4.56734e-07
6.1252e-05
4.34207e-07
6.10944e-05
4.13315e-07
6.0941e-05
3.94081e-07
6.07919e-05
3.76528e-07
6.06472e-05
3.60955e-07
6.05073e-05
3.46935e-07
6.03724e-05
3.36307e-07
6.02408e-05
3.23022e-07
3.3407e-07
6.00871e-05
6.23306e-05
-2.24888e-06
6.26619e-05
-9.32551e-07
6.281e-05
-3.60284e-07
6.30954e-05
2.55561e-08
6.34245e-05
4.28519e-07
6.37126e-05
6.57852e-07
6.39516e-05
7.64754e-07
6.41451e-05
8.2046e-07
6.42963e-05
8.47228e-07
6.44106e-05
8.51344e-07
6.44939e-05
8.40027e-07
6.45519e-05
8.19885e-07
6.45893e-05
7.94878e-07
6.46099e-05
7.67122e-07
6.46168e-05
7.37978e-07
6.46127e-05
7.0841e-07
6.45995e-05
6.79058e-07
6.4579e-05
6.50311e-07
6.45526e-05
6.22413e-07
6.45214e-05
5.95516e-07
6.44863e-05
5.69712e-07
6.44481e-05
5.45057e-07
6.44075e-05
5.21582e-07
6.43649e-05
4.99311e-07
6.43208e-05
4.78275e-07
6.42756e-05
4.58517e-07
6.42296e-05
4.40123e-07
6.41829e-05
4.2318e-07
6.41359e-05
4.07976e-07
6.40884e-05
3.94397e-07
6.40409e-05
3.83822e-07
6.39895e-05
3.7447e-07
3.79341e-07
6.39442e-05
6.47767e-05
-1.44247e-06
6.47349e-05
-8.90752e-07
6.47849e-05
-4.10329e-07
6.48931e-05
-8.26348e-08
6.50569e-05
2.64674e-07
6.52214e-05
4.93368e-07
6.53726e-05
6.1357e-07
6.55094e-05
6.83642e-07
6.56306e-05
7.26039e-07
6.57357e-05
7.46226e-07
6.58256e-05
7.50138e-07
6.59018e-05
7.43754e-07
6.59657e-05
7.30898e-07
6.60191e-05
7.13755e-07
6.60633e-05
6.93817e-07
6.60995e-05
6.722e-07
6.61288e-05
6.49694e-07
6.61523e-05
6.26838e-07
6.61707e-05
6.04006e-07
6.61848e-05
5.81463e-07
6.61951e-05
5.59403e-07
6.62022e-05
5.37965e-07
6.62065e-05
5.17256e-07
6.62085e-05
4.97365e-07
6.62084e-05
4.78375e-07
6.62065e-05
4.60377e-07
6.62031e-05
4.43492e-07
6.61985e-05
4.27847e-07
6.61927e-05
4.13698e-07
6.6186e-05
4.01146e-07
6.61787e-05
3.91143e-07
6.61697e-05
3.83475e-07
3.83735e-07
6.61653e-05
6.70079e-05
-9.93575e-07
6.68589e-05
-7.41782e-07
6.68314e-05
-3.8286e-07
6.68578e-05
-1.08997e-07
6.69422e-05
1.80308e-07
6.70457e-05
3.89828e-07
6.71479e-05
5.1135e-07
6.7245e-05
5.86555e-07
6.73357e-05
6.35343e-07
6.74188e-05
6.63102e-07
6.7494e-05
6.74993e-07
6.75615e-05
6.76295e-07
6.76218e-05
6.70547e-07
6.76757e-05
6.59878e-07
6.77237e-05
6.4578e-07
6.77665e-05
6.29389e-07
6.78047e-05
6.11534e-07
6.78387e-05
5.92805e-07
6.78691e-05
5.73627e-07
6.78962e-05
5.54318e-07
6.79205e-05
5.35117e-07
6.79423e-05
5.16206e-07
6.79618e-05
4.97729e-07
6.79794e-05
4.79808e-07
6.79952e-05
4.62553e-07
6.80095e-05
4.46078e-07
6.80225e-05
4.3051e-07
6.80343e-05
4.15988e-07
6.80453e-05
4.02726e-07
6.80556e-05
3.90893e-07
6.80656e-05
3.81081e-07
6.80757e-05
3.73392e-07
3.69843e-07
6.80896e-05
6.90833e-05
-6.92872e-07
6.89333e-05
-5.91801e-07
6.88863e-05
-3.35801e-07
6.88865e-05
-1.09222e-07
6.8934e-05
1.32803e-07
6.90039e-05
3.19987e-07
6.90771e-05
4.38111e-07
6.91489e-05
5.148e-07
6.9218e-05
5.66215e-07
6.92833e-05
5.97753e-07
6.93442e-05
6.14117e-07
6.94005e-05
6.19965e-07
6.94525e-05
6.1855e-07
6.95005e-05
6.11935e-07
6.95447e-05
6.0159e-07
6.95854e-05
5.88637e-07
6.9623e-05
5.73906e-07
6.96578e-05
5.58002e-07
6.96901e-05
5.41375e-07
6.97201e-05
5.24362e-07
6.97479e-05
5.07224e-07
6.9774e-05
4.90163e-07
6.97984e-05
4.73341e-07
6.98213e-05
4.56894e-07
6.98429e-05
4.40944e-07
6.98634e-05
4.25607e-07
6.98829e-05
4.11005e-07
6.99016e-05
3.97263e-07
6.99198e-05
3.84543e-07
6.99377e-05
3.72987e-07
6.99559e-05
3.62895e-07
6.9975e-05
3.5428e-07
3.47579e-07
6.99973e-05
7.11508e-05
-4.77353e-07
7.10202e-05
-4.61194e-07
7.09675e-05
-2.83101e-07
7.09558e-05
-9.7528e-08
7.09831e-05
1.05545e-07
7.10322e-05
2.70857e-07
7.10875e-05
3.8285e-07
7.11435e-05
4.58772e-07
7.11988e-05
5.10902e-07
7.12522e-05
5.44344e-07
7.13029e-05
5.634e-07
7.13507e-05
5.72165e-07
7.13957e-05
5.73613e-07
7.14379e-05
5.69731e-07
7.14775e-05
5.61958e-07
7.15147e-05
5.51391e-07
7.15498e-05
5.38853e-07
7.15829e-05
5.24953e-07
7.16141e-05
5.1015e-07
7.16436e-05
4.94792e-07
7.16717e-05
4.79151e-07
7.16984e-05
4.63438e-07
7.1724e-05
4.47824e-07
7.17484e-05
4.3245e-07
7.17719e-05
4.17437e-07
7.17946e-05
4.02898e-07
7.18167e-05
3.88937e-07
7.18383e-05
3.75654e-07
7.18597e-05
3.63155e-07
7.18812e-05
3.51516e-07
7.19032e-05
3.4083e-07
7.19265e-05
3.30975e-07
3.21771e-07
7.19523e-05
7.32508e-05
-3.22852e-07
7.31391e-05
-3.49557e-07
7.30844e-05
-2.28376e-07
7.30656e-05
-7.87127e-08
7.30803e-05
9.08849e-08
7.31156e-05
2.35483e-07
7.31589e-05
3.39605e-07
7.32046e-05
4.13081e-07
7.32508e-05
4.64688e-07
7.32962e-05
4.98916e-07
7.334e-05
5.19611e-07
7.33818e-05
5.30346e-07
7.34216e-05
5.33815e-07
7.34594e-05
5.31907e-07
7.34954e-05
5.26018e-07
7.35296e-05
5.17217e-07
7.35621e-05
5.06312e-07
7.35931e-05
4.93911e-07
7.36228e-05
4.80475e-07
7.36512e-05
4.6636e-07
7.36786e-05
4.51842e-07
7.37049e-05
4.37137e-07
7.37303e-05
4.22419e-07
7.37549e-05
4.07828e-07
7.37788e-05
3.93483e-07
7.38023e-05
3.79483e-07
7.38253e-05
3.65915e-07
7.38481e-05
3.52849e-07
7.38709e-05
3.40338e-07
7.3894e-05
3.28394e-07
7.39179e-05
3.1698e-07
7.3943e-05
3.0589e-07
2.94752e-07
7.397e-05
7.5393e-05
-2.13414e-07
7.5299e-05
-2.55563e-07
7.5245e-05
-1.74385e-07
7.52219e-05
-5.55695e-08
7.5228e-05
8.483e-08
7.52534e-05
2.10034e-07
7.52878e-05
3.05186e-07
7.5326e-05
3.74899e-07
7.53657e-05
4.25009e-07
7.54054e-05
4.59191e-07
7.54443e-05
4.80764e-07
7.54818e-05
4.92808e-07
7.55179e-05
4.97729e-07
7.55525e-05
4.97297e-07
7.55857e-05
4.92849e-07
7.56175e-05
4.85415e-07
7.5648e-05
4.75783e-07
7.56773e-05
4.64556e-07
7.57056e-05
4.52192e-07
7.57329e-05
4.39051e-07
7.57594e-05
4.25408e-07
7.5785e-05
4.11483e-07
7.581e-05
3.97447e-07
7.58344e-05
3.83441e-07
7.58583e-05
3.69573e-07
7.58818e-05
3.55932e-07
7.59052e-05
3.42586e-07
7.59285e-05
3.29576e-07
7.59519e-05
3.16914e-07
7.59757e-05
3.04565e-07
7.60003e-05
2.92422e-07
7.60259e-05
2.80252e-07
2.67663e-07
7.6053e-05
7.75831e-05
-1.36895e-07
7.75059e-05
-1.78403e-07
7.74552e-05
-1.23674e-07
7.74299e-05
-3.02549e-08
7.74298e-05
8.48999e-08
7.74477e-05
1.92157e-07
7.74751e-05
2.77721e-07
7.75074e-05
3.42657e-07
7.75419e-05
3.90448e-07
7.75773e-05
4.23881e-07
7.76123e-05
4.45703e-07
7.76466e-05
4.58517e-07
7.76799e-05
4.64443e-07
7.77121e-05
4.65109e-07
7.77432e-05
4.61773e-07
7.77732e-05
4.55418e-07
7.78021e-05
4.46805e-07
7.78302e-05
4.36523e-07
7.78573e-05
4.25027e-07
7.78837e-05
4.12672e-07
7.79094e-05
3.99733e-07
7.79344e-05
3.86429e-07
7.7959e-05
3.72929e-07
7.7983e-05
3.59368e-07
7.80068e-05
3.45848e-07
7.80302e-05
3.32445e-07
7.80536e-05
3.1921e-07
7.8077e-05
3.06164e-07
7.81007e-05
2.93289e-07
7.81247e-05
2.80523e-07
7.81494e-05
2.67732e-07
7.81749e-05
2.54693e-07
2.41058e-07
7.82016e-05
7.98256e-05
-8.41777e-08
7.9764e-05
-1.16853e-07
7.97186e-05
-7.82268e-08
7.9693e-05
-4.68345e-09
7.96888e-05
8.91512e-08
7.97008e-05
1.80116e-07
7.97226e-05
2.55909e-07
7.97499e-05
3.15357e-07
7.97802e-05
3.60149e-07
7.98119e-05
3.9222e-07
7.98439e-05
4.13739e-07
7.98755e-05
4.26854e-07
7.99066e-05
4.33398e-07
7.99368e-05
4.3484e-07
7.99663e-05
4.32343e-07
7.99948e-05
4.26834e-07
8.00226e-05
4.19039e-07
8.00496e-05
4.09527e-07
8.00759e-05
3.98742e-07
8.01015e-05
3.87033e-07
8.01266e-05
3.74672e-07
8.01512e-05
3.61874e-07
8.01753e-05
3.48804e-07
8.01991e-05
3.35591e-07
8.02226e-05
3.22331e-07
8.02459e-05
3.09089e-07
8.02692e-05
2.95903e-07
8.02926e-05
2.82778e-07
8.03162e-05
2.69683e-07
8.03402e-05
2.56542e-07
8.03647e-05
2.43225e-07
8.03899e-05
2.29534e-07
2.15187e-07
8.04157e-05
8.21247e-05
-4.84503e-08
8.2077e-05
-6.91431e-08
8.20381e-05
-3.92834e-08
8.20139e-05
1.9474e-08
8.20072e-05
9.58585e-08
8.20149e-05
1.72419e-07
8.20321e-05
2.38676e-07
8.20553e-05
2.92231e-07
8.20819e-05
3.33511e-07
8.21104e-05
3.63703e-07
8.21397e-05
3.84434e-07
8.21691e-05
3.9743e-07
8.21983e-05
4.04243e-07
8.2227e-05
4.0617e-07
8.2255e-05
4.04271e-07
8.22825e-05
3.99405e-07
8.23093e-05
3.92254e-07
8.23354e-05
3.83364e-07
8.2361e-05
3.73162e-07
8.2386e-05
3.61987e-07
8.24106e-05
3.50105e-07
8.24348e-05
3.37725e-07
8.24586e-05
3.25007e-07
8.24821e-05
3.12075e-07
8.25054e-05
2.99016e-07
8.25286e-05
2.85889e-07
8.25518e-05
2.72722e-07
8.2575e-05
2.59513e-07
8.25985e-05
2.46226e-07
8.26222e-05
2.32785e-07
8.26464e-05
2.19075e-07
8.2671e-05
2.04934e-07
1.90148e-07
8.2696e-05
8.4484e-05
-2.46533e-08
8.4448e-05
-3.3204e-08
8.44161e-05
-7.33118e-09
8.43946e-05
4.09264e-08
8.4387e-05
1.03496e-07
8.43917e-05
1.67703e-07
8.44054e-05
2.25021e-07
8.4425e-05
2.72588e-07
8.44485e-05
3.10027e-07
8.44743e-05
3.37938e-07
8.45012e-05
3.57473e-07
8.45287e-05
3.6998e-07
8.45562e-05
3.76745e-07
8.45834e-05
3.78892e-07
8.46103e-05
3.77369e-07
8.46368e-05
3.72958e-07
8.46628e-05
3.66297e-07
8.46882e-05
3.57897e-07
8.47132e-05
3.48167e-07
8.47378e-05
3.37432e-07
8.47619e-05
3.25948e-07
8.47857e-05
3.13916e-07
8.48093e-05
3.01491e-07
8.48325e-05
2.8879e-07
8.48557e-05
2.75896e-07
8.48787e-05
2.62861e-07
8.49017e-05
2.49709e-07
8.49248e-05
2.36435e-07
8.4948e-05
2.23004e-07
8.49714e-05
2.09351e-07
8.49951e-05
1.9538e-07
8.50191e-05
1.80969e-07
1.65957e-07
8.50433e-05
8.69066e-05
-9.0915e-09
8.68803e-05
-6.91208e-09
8.68552e-05
1.77781e-08
8.68373e-05
5.88558e-08
8.683e-05
1.10812e-07
8.68329e-05
1.64738e-07
8.6844e-05
2.13991e-07
8.68608e-05
2.5575e-07
8.68816e-05
2.89214e-07
8.6905e-05
3.1457e-07
8.69299e-05
3.32588e-07
8.69555e-05
3.44293e-07
8.69816e-05
3.5073e-07
8.70076e-05
3.52856e-07
8.70335e-05
3.51505e-07
8.7059e-05
3.4738e-07
8.70843e-05
3.41065e-07
8.71091e-05
3.33036e-07
8.71336e-05
3.23678e-07
8.71578e-05
3.13299e-07
8.71816e-05
3.02143e-07
8.72051e-05
2.90402e-07
8.72283e-05
2.78225e-07
8.72514e-05
2.65723e-07
8.72743e-05
2.52972e-07
8.72972e-05
2.40024e-07
8.732e-05
2.26899e-07
8.73428e-05
2.13593e-07
8.73657e-05
2.00079e-07
8.73888e-05
1.86304e-07
8.7412e-05
1.72195e-07
8.74353e-05
1.57664e-07
1.42598e-07
8.74586e-05
8.93956e-05
8.74865e-10
8.93769e-05
1.17271e-08
8.93581e-05
3.66429e-08
8.9344e-05
7.29165e-08
8.93379e-05
1.169e-07
8.93402e-05
1.62488e-07
8.93495e-05
2.04702e-07
8.93642e-05
2.41048e-07
8.93828e-05
2.70583e-07
8.94041e-05
2.93244e-07
8.94272e-05
3.0952e-07
8.94513e-05
3.20177e-07
8.9476e-05
3.2605e-07
8.95009e-05
3.27944e-07
8.95258e-05
3.26581e-07
8.95506e-05
3.22585e-07
8.95752e-05
3.16485e-07
8.95995e-05
3.08719e-07
8.96235e-05
2.99642e-07
8.96473e-05
2.89545e-07
8.96708e-05
2.78657e-07
8.9694e-05
2.67161e-07
8.97171e-05
2.55197e-07
8.97399e-05
2.4287e-07
8.97626e-05
2.30255e-07
8.97853e-05
2.17398e-07
8.98078e-05
2.04322e-07
8.98304e-05
1.91028e-07
8.9853e-05
1.77494e-07
8.98756e-05
1.63685e-07
8.98982e-05
1.49549e-07
8.99209e-05
1.35025e-07
1.20039e-07
8.99434e-05
9.19536e-05
7.09186e-09
9.19409e-05
2.44688e-08
9.19274e-05
5.01168e-08
9.19172e-05
8.31589e-08
9.19129e-05
1.2121e-07
9.19152e-05
1.60161e-07
9.19235e-05
1.96391e-07
9.19367e-05
2.27856e-07
9.19536e-05
2.53653e-07
9.19733e-05
2.73603e-07
9.19948e-05
2.88009e-07
9.20175e-05
2.9744e-07
9.2041e-05
3.02563e-07
9.20649e-05
3.04046e-07
9.2089e-05
3.02511e-07
9.21131e-05
2.98506e-07
9.2137e-05
2.92503e-07
9.21609e-05
2.84899e-07
9.21845e-05
2.76023e-07
9.22079e-05
2.66142e-07
9.22311e-05
2.55471e-07
9.2254e-05
2.44182e-07
9.22768e-05
2.32405e-07
9.22995e-05
2.20241e-07
9.2322e-05
2.0776e-07
9.23444e-05
1.95009e-07
9.23667e-05
1.82012e-07
9.23889e-05
1.68775e-07
9.24111e-05
1.55287e-07
9.24333e-05
1.41524e-07
9.24554e-05
1.27457e-07
9.24774e-05
1.13046e-07
9.82451e-08
9.24991e-05
9.45834e-05
1.08276e-08
9.45751e-05
3.2783e-08
9.45661e-05
5.91484e-08
9.45593e-05
8.99174e-08
9.4557e-05
1.23527e-07
9.45599e-05
1.5723e-07
9.45679e-05
1.8846e-07
9.45801e-05
2.15632e-07
9.45958e-05
2.37978e-07
9.46141e-05
2.55298e-07
9.46343e-05
2.67791e-07
9.46558e-05
2.75887e-07
9.46783e-05
2.80123e-07
9.47013e-05
2.81056e-07
9.47246e-05
2.79216e-07
9.4748e-05
2.75082e-07
9.47714e-05
2.69073e-07
9.47948e-05
2.61545e-07
9.4818e-05
2.52798e-07
9.48411e-05
2.43076e-07
9.4864e-05
2.32579e-07
9.48867e-05
2.21464e-07
9.49092e-05
2.09857e-07
9.49316e-05
1.97849e-07
9.49539e-05
1.85509e-07
9.4976e-05
1.72884e-07
9.4998e-05
1.59999e-07
9.50199e-05
1.46867e-07
9.50417e-05
1.33485e-07
9.50634e-05
1.19844e-07
9.50849e-05
1.05927e-07
9.51063e-05
9.17162e-08
7.71847e-08
9.51273e-05
9.72874e-05
1.29411e-08
9.72823e-05
3.78569e-08
9.72768e-05
6.4669e-08
9.7273e-05
9.36969e-08
9.72727e-05
1.23896e-07
9.72765e-05
1.53428e-07
9.72844e-05
1.80505e-07
9.72961e-05
2.03954e-07
9.73109e-05
2.23179e-07
9.73282e-05
2.38018e-07
9.73473e-05
2.4862e-07
9.73679e-05
2.55332e-07
9.73894e-05
2.58592e-07
9.74116e-05
2.5887e-07
9.74342e-05
2.5662e-07
9.7457e-05
2.52259e-07
9.748e-05
2.46156e-07
9.75029e-05
2.3863e-07
9.75257e-05
2.29951e-07
9.75485e-05
2.2034e-07
9.75711e-05
2.0998e-07
9.75935e-05
1.99016e-07
9.76158e-05
1.87565e-07
9.76379e-05
1.75713e-07
9.76599e-05
1.63526e-07
9.76817e-05
1.51049e-07
9.77034e-05
1.38312e-07
9.7725e-05
1.25332e-07
9.77463e-05
1.12114e-07
9.77675e-05
9.86597e-08
9.77885e-05
8.4965e-08
9.78092e-05
7.10255e-08
5.68296e-08
9.78295e-05
0.000100068
1.40093e-08
0.000100065
4.06241e-08
0.000100062
6.75295e-08
0.000100061
9.50802e-08
0.000100062
1.22552e-07
0.000100067
1.48705e-07
0.000100075
1.72312e-07
0.000100087
1.92542e-07
0.000100101
2.08973e-07
0.000100117
2.21507e-07
0.000100136
2.30287e-07
0.000100155
2.35607e-07
0.000100176
2.37843e-07
0.000100198
2.37395e-07
0.00010022
2.34655e-07
0.000100242
2.29989e-07
0.000100264
2.23722e-07
0.000100287
2.16136e-07
0.000100309
2.07472e-07
0.000100332
1.97932e-07
0.000100354
1.8768e-07
0.000100376
1.7685e-07
0.000100398
1.65548e-07
0.00010042
1.53856e-07
0.000100442
1.41836e-07
0.000100463
1.29533e-07
0.000100485
1.16979e-07
0.000100506
1.04195e-07
0.000100527
9.1194e-08
0.000100547
7.79843e-08
0.000100568
6.45725e-08
0.000100588
5.09633e-08
3.71565e-08
0.000100607
0.000102928
1.44194e-08
0.000102926
4.1809e-08
0.000102926
6.84749e-08
0.000102926
9.46645e-08
0.000102929
1.19849e-07
0.000102934
1.43183e-07
0.000102943
1.6384e-07
0.000102954
1.81264e-07
0.000102968
1.95191e-07
0.000102984
2.05597e-07
0.000103001
2.12639e-07
0.00010302
2.16588e-07
0.00010304
2.17777e-07
0.000103061
2.16555e-07
0.000103083
2.13269e-07
0.000103104
2.08238e-07
0.000103126
2.01748e-07
0.000103148
1.94051e-07
0.00010317
1.85361e-07
0.000103193
1.75859e-07
0.000103215
1.65692e-07
0.000103236
1.54983e-07
0.000103258
1.43827e-07
0.00010328
1.32302e-07
0.000103301
1.20465e-07
0.000103322
1.08362e-07
0.000103343
9.6025e-08
0.000103364
8.34786e-08
0.000103384
7.07409e-08
0.000103405
5.78267e-08
0.000103424
4.47487e-08
0.000103444
3.15191e-08
1.81445e-08
0.000103463
0.000105869
1.44347e-08
0.000105869
4.19733e-08
0.000105869
6.81451e-08
0.000105871
9.30271e-08
0.000105874
1.16207e-07
0.00010588
1.37108e-07
0.000105889
1.55195e-07
0.0001059
1.70128e-07
0.000105913
1.81783e-07
0.000105929
1.90212e-07
0.000105946
1.95598e-07
0.000105964
1.98204e-07
0.000105984
1.98336e-07
0.000106004
1.9631e-07
0.000106025
1.92433e-07
0.000106046
1.86989e-07
0.000106068
1.8023e-07
0.000106089
1.7238e-07
0.000106111
1.63628e-07
0.000106133
1.54135e-07
0.000106154
1.44035e-07
0.000106176
1.33436e-07
0.000106197
1.22426e-07
0.000106218
1.11075e-07
0.00010624
9.94385e-08
0.00010626
8.75593e-08
0.000106281
7.54705e-08
0.000106301
6.3199e-08
0.000106321
5.07659e-08
0.000106341
3.81906e-08
0.00010636
2.54897e-08
0.000106379
1.26805e-08
-2.26944e-10
0.000106397
0.000108894
1.42403e-08
0.000108894
4.15624e-08
0.000108895
6.70935e-08
0.000108897
9.07157e-08
0.000108901
1.12085e-07
0.000108908
1.30817e-07
0.000108916
1.46596e-07
0.000108927
1.59262e-07
0.00010894
1.68814e-07
0.000108955
1.75377e-07
0.000108971
1.79167e-07
0.000108989
1.8045e-07
0.000109008
1.79517e-07
0.000109028
1.76659e-07
0.000109048
1.72152e-07
0.000109069
1.66251e-07
0.00010909
1.59181e-07
0.000109111
1.51138e-07
0.000109132
1.42292e-07
0.000109154
1.32784e-07
0.000109175
1.22732e-07
0.000109196
1.12234e-07
0.000109217
1.01368e-07
0.000109238
9.01989e-08
0.000109259
7.8777e-08
0.000109279
6.7143e-08
0.000109299
5.53302e-08
0.000109319
4.33654e-08
0.000109339
3.12726e-08
0.000109358
1.90725e-08
0.000109377
6.78531e-09
0.000109395
-5.5705e-09
-1.7982e-08
0.000109413
0.000112005
1.39759e-08
0.000112005
4.09475e-08
0.000112007
6.58169e-08
0.000112009
8.82587e-08
0.000112013
1.0797e-07
0.000112019
1.24715e-07
0.000112028
1.38361e-07
0.000112038
1.48904e-07
0.00011205
1.56457e-07
0.000112064
1.61218e-07
0.00011208
1.63438e-07
0.000112097
1.63396e-07
0.000112115
1.61375e-07
0.000112134
1.57647e-07
0.000112154
1.52468e-07
0.000112174
1.46064e-07
0.000112195
1.38637e-07
0.000112216
1.30361e-07
0.000112236
1.21385e-07
0.000112257
1.11833e-07
0.000112278
1.01809e-07
0.000112299
9.13999e-08
0.00011232
8.06746e-08
0.00011234
6.96904e-08
0.000112361
5.84936e-08
0.000112381
4.7122e-08
0.0001124
3.56072e-08
0.00011242
2.3976e-08
0.000112439
1.22522e-08
0.000112457
4.57829e-10
0.000112476
-1.13865e-08
0.000112493
-2.32615e-08
-3.51536e-08
0.00011251
0.000115205
1.37599e-08
0.000115205
4.04677e-08
0.000115206
6.47945e-08
0.000115208
8.61933e-08
0.000115212
1.04389e-07
0.000115217
1.19281e-07
0.000115225
1.309e-07
0.000115234
1.39393e-07
0.000115246
1.44987e-07
0.000115259
1.47953e-07
0.000115274
1.48588e-07
0.00011529
1.47184e-07
0.000115307
1.44025e-07
0.000115326
1.39371e-07
0.000115345
1.33458e-07
0.000115364
1.26491e-07
0.000115384
1.18651e-07
0.000115404
1.10091e-07
0.000115425
1.00942e-07
0.000115445
9.13109e-08
0.000115466
8.1289e-08
0.000115486
7.095e-08
0.000115507
6.03549e-08
0.000115527
4.95535e-08
0.000115547
3.85866e-08
0.000115566
2.74885e-08
0.000115586
1.6288e-08
0.000115605
5.01044e-09
0.000115623
-6.3215e-09
0.000115641
-1.76863e-08
0.000115659
-2.90643e-08
0.000115676
-4.04363e-08
-5.17903e-08
0.000115693
0.000118496
1.3709e-08
0.000118496
4.04732e-08
0.000118496
6.45383e-08
0.000118497
8.511e-08
0.0001185
1.01944e-07
0.000118504
1.15081e-07
0.00011851
1.24722e-07
0.000118518
1.3117e-07
0.000118529
1.34776e-07
0.000118541
1.35896e-07
0.000118554
1.34872e-07
0.000118569
1.32023e-07
0.000118586
1.27636e-07
0.000118603
1.21964e-07
0.000118621
1.15227e-07
0.00011864
1.07614e-07
0.00011866
9.92848e-08
0.000118679
9.03736e-08
0.000118699
8.0993e-08
0.000118719
7.12352e-08
0.00011874
6.1177e-08
0.00011876
5.08802e-08
0.00011878
4.03966e-08
0.000118799
2.97675e-08
0.000118819
1.90283e-08
0.000118838
8.20759e-09
0.000118857
-2.66875e-09
0.000118876
-1.3579e-08
0.000118894
-2.45021e-08
0.000118912
-3.54193e-08
0.000118929
-4.63118e-08
0.000118946
-5.71634e-08
-6.79626e-08
0.000118962
0.000121881
1.39612e-08
0.00012188
4.1381e-08
0.000121879
6.56615e-08
0.000121878
8.57193e-08
0.000121879
1.01365e-07
0.000121881
1.12812e-07
0.000121886
1.2046e-07
0.000121892
1.24792e-07
0.0001219
1.26301e-07
0.000121911
1.25441e-07
0.000121923
1.22614e-07
0.000121937
1.18171e-07
0.000121952
1.1241e-07
0.000121969
1.05579e-07
0.000121986
9.78883e-08
0.000122004
8.95096e-08
0.000122023
8.05848e-08
0.000122042
7.123e-08
0.000122061
6.15395e-08
0.000122081
5.15898e-08
0.000122101
4.14427e-08
0.00012212
3.11482e-08
0.00012214
2.07466e-08
0.00012216
1.02712e-08
0.000122179
-2.51029e-10
0.000122198
-1.07965e-08
0.000122217
-2.13455e-08
0.000122235
-3.18796e-08
0.000122253
-4.23822e-08
0.00012227
-5.2837e-08
0.000122287
-6.32291e-08
0.000122303
-7.35443e-08
-8.37744e-08
0.000122319
0.000125363
1.47037e-08
0.00012536
4.37526e-08
0.000125357
6.89776e-08
0.000125354
8.89498e-08
0.000125352
1.03594e-07
0.000125351
1.13365e-07
0.000125353
1.18913e-07
0.000125356
1.20949e-07
0.000125363
1.20138e-07
0.000125371
1.17056e-07
0.000125381
1.12182e-07
0.000125394
1.05906e-07
0.000125408
9.85451e-08
0.000125423
9.03497e-08
0.000125439
8.15189e-08
0.000125456
7.221e-08
0.000125474
6.25465e-08
0.000125493
5.26252e-08
0.000125512
4.25219e-08
0.000125531
3.22953e-08
0.000125551
2.19916e-08
0.00012557
1.16465e-08
0.00012559
1.28826e-09
0.000125609
-9.06063e-09
0.000125628
-1.93819e-08
0.000125647
-2.96601e-08
0.000125666
-3.98817e-08
0.000125684
-5.00345e-08
0.000125702
-6.01065e-08
0.000125719
-7.00863e-08
0.000125736
-7.99628e-08
0.000125752
-8.97261e-08
-9.9371e-08
0.000125767
0.000128944
1.62233e-08
0.000128939
4.8421e-08
0.000128932
7.56544e-08
0.000128925
9.60935e-08
0.000128919
1.09907e-07
0.000128914
1.17907e-07
0.000128912
1.21093e-07
0.000128913
1.20478e-07
0.000128916
1.16953e-07
0.000128922
1.11248e-07
0.00012893
1.03937e-07
0.00012894
9.54684e-08
0.000128953
8.6181e-08
0.000128967
7.63301e-08
0.000128982
6.61057e-08
0.000128999
5.56482e-08
0.000129016
4.50608e-08
0.000129034
3.44182e-08
0.000129053
2.37747e-08
0.000129072
1.31685e-08
0.000129091
2.62743e-09
0.000129111
-7.82985e-09
0.00012913
-1.81895e-08
0.00012915
-2.84423e-08
0.000129169
-3.85809e-08
0.000129188
-4.85999e-08
0.000129207
-5.84941e-08
0.000129225
-6.82587e-08
0.000129243
-7.78882e-08
0.00012926
-8.73773e-08
0.000129277
-9.67202e-08
0.000129293
-1.05912e-07
-1.14951e-07
0.000129308
0.000132626
1.8998e-08
0.000132618
5.67099e-08
0.000132606
8.74597e-08
0.000132593
1.0902e-07
0.000132581
1.22065e-07
0.000132571
1.27973e-07
0.000132564
1.28252e-07
0.00013256
1.24343e-07
0.00013256
1.17442e-07
0.000132562
1.08477e-07
0.000132568
9.81459e-08
0.000132577
8.69631e-08
0.000132587
7.5296e-08
0.0001326
6.34017e-08
0.000132615
5.14563e-08
0.000132631
3.95782e-08
0.000132648
2.7843e-08
0.000132666
1.62984e-08
0.000132685
4.97048e-09
0.000132705
-6.12707e-09
0.000132724
-1.69908e-08
0.000132744
-2.76217e-08
0.000132764
-3.80254e-08
0.000132784
-4.82077e-08
0.000132803
-5.81762e-08
0.000132823
-6.79369e-08
0.000132842
-7.7496e-08
0.00013286
-8.68572e-08
0.000132878
-9.60242e-08
0.000132896
-1.04998e-07
0.000132913
-1.13781e-07
0.000132929
-1.22372e-07
-1.30776e-07
0.000132945
0.000136413
2.38824e-08
0.000136399
7.08317e-08
0.00013638
1.07161e-07
0.000136358
1.30484e-07
0.000136338
1.42508e-07
0.00013632
1.45532e-07
0.000136307
1.41853e-07
0.000136297
1.33536e-07
0.000136293
1.22193e-07
0.000136292
1.09004e-07
0.000136295
9.48122e-08
0.000136302
8.02034e-08
0.000136312
6.55649e-08
0.000136324
5.11429e-08
0.000136338
3.70858e-08
0.000136355
2.34752e-08
0.000136372
1.03478e-08
0.000136391
-2.28819e-09
0.00013641
-1.44428e-08
0.00013643
-2.61366e-08
0.000136451
-3.73954e-08
0.000136471
-4.82473e-08
0.000136492
-5.87201e-08
0.000136512
-6.88407e-08
0.000136533
-7.86331e-08
0.000136553
-8.81192e-08
0.000136573
-9.73174e-08
0.000136592
-1.06244e-07
0.000136611
-1.14911e-07
0.00013663
-1.2333e-07
0.000136647
-1.31509e-07
0.000136664
-1.39456e-07
-1.4718e-07
0.000136681
0.000140307
3.24959e-08
0.000140283
9.46213e-08
0.000140251
1.39165e-07
0.000140217
1.64531e-07
0.000140185
1.74514e-07
0.000140158
1.72946e-07
0.000140136
1.63382e-07
0.000140121
1.48815e-07
0.000140112
1.314e-07
0.000140108
1.12607e-07
0.00014011
9.34252e-08
0.000140115
7.44872e-08
0.000140125
5.61679e-08
0.000140137
3.86691e-08
0.000140152
2.20815e-08
0.000140169
6.42427e-09
0.000140188
-8.32569e-09
0.000140208
-2.22171e-08
0.000140229
-3.53097e-08
0.00014025
-4.76691e-08
0.000140272
-5.93592e-08
0.000140294
-7.04421e-08
0.000140317
-8.09739e-08
0.000140339
-9.10061e-08
0.000140361
-1.00584e-07
0.000140382
-1.09747e-07
0.000140404
-1.18529e-07
0.000140424
-1.2696e-07
0.000140445
-1.35064e-07
0.000140464
-1.42862e-07
0.000140483
-1.50371e-07
0.000140501
-1.57607e-07
-1.64586e-07
0.000140518
0.000144309
4.80881e-08
0.000144269
1.34887e-07
0.000144217
1.9047e-07
0.000144165
2.16929e-07
0.000144117
2.2218e-07
0.000144078
2.12624e-07
0.000144047
1.93855e-07
0.000144026
1.70181e-07
0.000144013
1.44377e-07
0.000144007
1.18166e-07
0.000144008
9.26125e-08
0.000144014
6.83174e-08
0.000144025
4.55663e-08
0.000144039
2.44529e-08
0.000144056
4.95836e-09
0.000144076
-1.29984e-08
0.000144097
-2.9532e-08
0.000144119
-4.4769e-08
0.000144143
-5.88379e-08
0.000144167
-7.18607e-08
0.000144192
-8.3951e-08
0.000144217
-9.52108e-08
0.000144241
-1.05731e-07
0.000144266
-1.15593e-07
0.00014429
-1.24865e-07
0.000144314
-1.33609e-07
0.000144337
-1.41875e-07
0.00014436
-1.49709e-07
0.000144382
-1.57148e-07
0.000144404
-1.64224e-07
0.000144424
-1.70963e-07
0.000144444
-1.7739e-07
-1.83528e-07
0.000144463
0.000148418
7.75953e-08
0.000148349
2.03839e-07
0.000148268
2.71872e-07
0.00014819
2.95306e-07
0.000148122
2.89849e-07
0.000148069
2.66103e-07
0.00014803
2.32843e-07
0.000148004
1.96026e-07
0.000147989
1.58877e-07
0.000147984
1.23131e-07
0.000147987
8.97351e-08
0.000147996
5.90901e-08
0.000148011
3.12586e-08
0.000148029
6.12592e-09
0.00014805
-1.65058e-08
0.000148074
-3.68693e-08
0.0001481
-5.52054e-08
0.000148127
-7.17457e-08
0.000148155
-8.67045e-08
0.000148183
-1.00275e-07
0.000148212
-1.12628e-07
0.000148241
-1.23915e-07
0.000148269
-1.34265e-07
0.000148297
-1.43793e-07
0.000148325
-1.52594e-07
0.000148352
-1.60754e-07
0.000148379
-1.68341e-07
0.000148404
-1.75418e-07
0.000148429
-1.82035e-07
0.000148453
-1.88237e-07
0.000148476
-1.9406e-07
0.000148499
-1.99537e-07
-2.04698e-07
0.00014852
0.000152631
1.36093e-07
0.000152511
3.23599e-07
0.000152383
3.99258e-07
0.00015227
4.08291e-07
0.00015218
3.80324e-07
0.000152114
3.32123e-07
0.00015207
2.76873e-07
0.000152044
2.21948e-07
0.000152033
1.70235e-07
0.000152033
1.22905e-07
0.000152042
8.0419e-08
0.000152059
4.27202e-08
0.00015208
9.4602e-09
0.000152106
-1.98075e-08
0.000152135
-4.55386e-08
0.000152167
-6.81702e-08
0.0001522
-8.81049e-08
0.000152234
-1.05704e-07
0.000152268
-1.21283e-07
0.000152303
-1.35118e-07
0.000152338
-1.47446e-07
0.000152372
-1.58471e-07
0.000152406
-1.68366e-07
0.00015244
-1.7728e-07
0.000152473
-1.8534e-07
0.000152505
-1.92652e-07
0.000152536
-1.99307e-07
0.000152565
-2.05383e-07
0.000152594
-2.10945e-07
0.000152622
-2.1605e-07
0.000152649
-2.20743e-07
0.000152674
-2.25066e-07
-2.29055e-07
0.000152699
0.000156933
2.54127e-07
0.000156722
5.34906e-07
0.000156526
5.95147e-07
0.000156371
5.63224e-07
0.00015626
4.91384e-07
0.000156189
4.03432e-07
0.000156149
3.17075e-07
0.000156132
2.39096e-07
0.000156132
1.70121e-07
0.000156145
1.09799e-07
0.000156168
5.76406e-08
0.000156197
1.28049e-08
0.000156233
-2.56798e-08
0.000156272
-5.87116e-08
0.000156313
-8.70745e-08
0.000156356
-1.11451e-07
0.000156401
-1.32436e-07
0.000156446
-1.50537e-07
0.00015649
-1.66185e-07
0.000156535
-1.79746e-07
0.000156579
-1.91526e-07
0.000156622
-2.01786e-07
0.000156665
-2.10745e-07
0.000156706
-2.18586e-07
0.000156746
-2.25465e-07
0.000156785
-2.31514e-07
0.000156823
-2.36842e-07
0.000156859
-2.41543e-07
0.000156894
-2.45696e-07
0.000156927
-2.49368e-07
0.000156959
-2.52616e-07
0.000156989
-2.55488e-07
-2.58032e-07
0.000157018
0.00016129
5.02251e-07
0.000160918
9.06969e-07
0.00016063
8.8362e-07
0.000160432
7.60806e-07
0.000160312
6.1113e-07
0.000160253
4.6299e-07
0.000160234
3.3638e-07
0.000160241
2.31819e-07
0.000160267
1.44197e-07
0.000160306
7.05852e-08
0.000160354
9.18272e-09
0.000160409
-4.19467e-08
0.000160468
-8.46077e-08
0.00016053
-1.2026e-07
0.000160593
-1.50067e-07
0.000160656
-1.74998e-07
0.00016072
-1.9586e-07
0.000160782
-2.1333e-07
0.000160844
-2.2796e-07
0.000160905
-2.40212e-07
0.000160964
-2.50466e-07
0.000161021
-2.59038e-07
0.000161076
-2.66191e-07
0.00016113
-2.72143e-07
0.000161181
-2.77077e-07
0.000161231
-2.81144e-07
0.000161279
-2.84471e-07
0.000161324
-2.87163e-07
0.000161368
-2.8931e-07
0.00016141
-2.90985e-07
0.000161449
-2.92249e-07
0.000161487
-2.93153e-07
-2.93746e-07
0.000161523
0.000165509
1.14674e-06
0.000164895
1.52075e-06
0.000164546
1.23314e-06
0.000164348
9.58446e-07
0.000164265
6.94175e-07
0.000164259
4.69508e-07
0.000164294
3.00638e-07
0.000164355
1.7101e-07
0.000164433
6.63992e-08
0.000164522
-1.86238e-08
0.000164618
-8.71486e-08
0.000164719
-1.42304e-07
0.000164821
-1.86797e-07
0.000164923
-2.22676e-07
0.000165025
-2.51519e-07
0.000165125
-2.74617e-07
0.000165222
-2.93035e-07
0.000165316
-3.07639e-07
0.000165407
-3.19124e-07
0.000165495
-3.28052e-07
0.000165579
-3.34883e-07
0.00016566
-3.3999e-07
0.000165738
-3.43676e-07
0.000165812
-3.46189e-07
0.000165883
-3.47733e-07
0.00016595
-3.48476e-07
0.000166014
-3.48556e-07
0.000166075