/*--------------------------------*- C++ -*----------------------------------*\
| =========                 |                                                 |
| \\      /  F ield         | OpenFOAM: The Open Source CFD Toolbox           |
|  \\    /   O peration     | Version:  4.1                                   |
|   \\  /    A nd           | Web:      www.OpenFOAM.org                      |
|    \\/     M anipulation  |                                                 |
\*---------------------------------------------------------------------------*/
FoamFile
{
    version     2.0;
    format      ascii;
    class       volVectorField;
    location    "900";
    object      U;
}
// * * * * * * * * * * * * * * * * * * * * * * * * * * * * * * * * * * * * * //

dimensions      [0 1 -1 0 0 0 0];

internalField   nonuniform List<vector> 
6820
(
(7.12051 -2.89958 0)
(7.72183 -2.2784 0)
(7.93531 -1.28315 0)
(7.87961 -0.658565 0)
(7.73232 -0.320701 0)
(7.56973 -0.148361 0)
(7.41011 -0.0616839 0)
(7.26102 -0.0176566 0)
(7.12627 0.00481376 0)
(7.00567 0.0160265 0)
(6.89735 0.0212394 0)
(6.79956 0.0232369 0)
(6.71094 0.0235139 0)
(6.63034 0.0228813 0)
(6.55675 0.0217888 0)
(6.48932 0.02049 0)
(6.42735 0.0191283 0)
(6.37024 0.017783 0)
(6.31748 0.0164961 0)
(6.26862 0.0152887 0)
(6.22329 0.0141693 0)
(6.18115 0.0131399 0)
(6.14189 0.0121985 0)
(6.10525 0.0113421 0)
(6.07098 0.0105673 0)
(6.03885 0.00987236 0)
(6.00866 0.00925863 0)
(5.98017 0.00872977 0)
(5.95317 0.00831131 0)
(5.92724 0.0079944 0)
(5.90245 0.00794913 0)
(5.87628 0.0080495 0)
(5.85595 0.00704298 0)
(7.59884 0.654127 0)
(7.43304 0.77761 0)
(7.36112 0.527756 0)
(7.34933 0.342769 0)
(7.39535 0.234375 0)
(7.45299 0.166654 0)
(7.49513 0.123346 0)
(7.51885 0.0959961 0)
(7.52909 0.078385 0)
(7.52978 0.0664998 0)
(7.52338 0.058123 0)
(7.51187 0.0520225 0)
(7.49681 0.0474355 0)
(7.47935 0.0438632 0)
(7.46028 0.0409848 0)
(7.44016 0.0385955 0)
(7.41941 0.0365617 0)
(7.39833 0.0347927 0)
(7.37715 0.0332264 0)
(7.35605 0.0318198 0)
(7.33515 0.0305429 0)
(7.31455 0.0293747 0)
(7.29431 0.0283003 0)
(7.27448 0.0273099 0)
(7.25511 0.0263982 0)
(7.2362 0.0255643 0)
(7.21778 0.0248135 0)
(7.19984 0.0241569 0)
(7.18241 0.0236308 0)
(7.16539 0.0232481 0)
(7.14917 0.0232564 0)
(7.13276 0.0232954 0)
(7.11996 0.0260843 0)
(7.25567 -0.0497306 0)
(7.16457 -0.0746215 0)
(7.20132 -0.0871774 0)
(7.24037 -0.0571866 0)
(7.27477 -0.0216429 0)
(7.31088 0.00195993 0)
(7.34256 0.016625 0)
(7.36741 0.0264417 0)
(7.38683 0.0329448 0)
(7.40193 0.0369149 0)
(7.41321 0.039119 0)
(7.42121 0.0401886 0)
(7.42656 0.0405304 0)
(7.42979 0.0403921 0)
(7.4313 0.0399384 0)
(7.4314 0.0392847 0)
(7.43035 0.0385094 0)
(7.42838 0.0376643 0)
(7.42564 0.0367843 0)
(7.4223 0.0358933 0)
(7.41846 0.0350079 0)
(7.41422 0.0341397 0)
(7.40966 0.0332975 0)
(7.40485 0.0324885 0)
(7.39985 0.0317202 0)
(7.39469 0.0310006 0)
(7.38942 0.0303429 0)
(7.38405 0.0297621 0)
(7.37864 0.029298 0)
(7.37314 0.0289657 0)
(7.36772 0.0289511 0)
(7.36214 0.0291008 0)
(7.35748 0.0305664 0)
(7.29108 -0.0915081 0)
(7.22275 -0.0639328 0)
(7.23474 -0.0294728 0)
(7.25082 -0.00392882 0)
(7.2644 0.0156016 0)
(7.28272 0.0269931 0)
(7.30139 0.0329075 0)
(7.31764 0.0363623 0)
(7.33189 0.0384843 0)
(7.34452 0.0396064 0)
(7.35544 0.0400342 0)
(7.36469 0.0400439 0)
(7.37247 0.0397992 0)
(7.37899 0.0393851 0)
(7.38441 0.0388563 0)
(7.38888 0.038254 0)
(7.39251 0.0376069 0)
(7.39544 0.0369341 0)
(7.39776 0.0362488 0)
(7.39956 0.035561 0)
(7.4009 0.0348783 0)
(7.40186 0.0342069 0)
(7.40248 0.0335525 0)
(7.40281 0.0329209 0)
(7.4029 0.0323191 0)
(7.40277 0.0317558 0)
(7.40246 0.0312446 0)
(7.402 0.0308024 0)
(7.4014 0.0304636 0)
(7.40069 0.0302535 0)
(7.39998 0.0302872 0)
(7.39923 0.0305054 0)
(7.39891 0.0313963 0)
(7.31214 -0.0522565 0)
(7.26645 -0.0334735 0)
(7.26326 -0.014842 0)
(7.26622 -0.00264924 0)
(7.27139 0.0101306 0)
(7.28196 0.0195671 0)
(7.29393 0.0252601 0)
(7.3049 0.0290481 0)
(7.31503 0.031786 0)
(7.32448 0.0336502 0)
(7.33312 0.0348221 0)
(7.34087 0.0355153 0)
(7.34779 0.0358755 0)
(7.35398 0.0359884 0)
(7.35951 0.0359153 0)
(7.36443 0.0357052 0)
(7.36882 0.0353953 0)
(7.37273 0.0350129 0)
(7.37621 0.0345782 0)
(7.37933 0.0341074 0)
(7.38211 0.0336132 0)
(7.3846 0.0331062 0)
(7.38684 0.0325957 0)
(7.38884 0.0320906 0)
(7.39065 0.0316001 0)
(7.39227 0.031135 0)
(7.39375 0.0307093 0)
(7.39509 0.0303401 0)
(7.39633 0.0300546 0)
(7.3975 0.0298769 0)
(7.39867 0.0298696 0)
(7.3999 0.0300129 0)
(7.40141 0.0304816 0)
(7.32016 -0.0320514 0)
(7.28758 -0.0252461 0)
(7.28068 -0.0140964 0)
(7.27975 -0.00455689 0)
(7.28192 0.00650198 0)
(7.28854 0.0153386 0)
(7.29664 0.0211178 0)
(7.30441 0.0251353 0)
(7.31183 0.0281008 0)
(7.31895 0.0301962 0)
(7.32565 0.0315994 0)
(7.33184 0.0325109 0)
(7.33756 0.0330723 0)
(7.34283 0.0333708 0)
(7.34769 0.0334694 0)
(7.35218 0.0334178 0)
(7.35631 0.0332537 0)
(7.36013 0.033005 0)
(7.36366 0.032693 0)
(7.36694 0.0323344 0)
(7.36999 0.0319427 0)
(7.37283 0.0315291 0)
(7.37549 0.0311034 0)
(7.37799 0.0306748 0)
(7.38033 0.0302527 0)
(7.38255 0.0298476 0)
(7.38466 0.0294719 0)
(7.38668 0.0291401 0)
(7.38863 0.0288716 0)
(7.39057 0.0286838 0)
(7.39253 0.0286067 0)
(7.39459 0.0286276 0)
(7.39688 0.0287919 0)
(7.32441 -0.0221713 0)
(7.30054 -0.0208445 0)
(7.2931 -0.0128343 0)
(7.29071 -0.00453444 0)
(7.29137 0.00495678 0)
(7.29565 0.0128544 0)
(7.3014 0.0183655 0)
(7.30722 0.0223271 0)
(7.31293 0.0252869 0)
(7.31854 0.0274295 0)
(7.32391 0.0289224 0)
(7.32898 0.0299412 0)
(7.33374 0.0306133 0)
(7.33821 0.0310217 0)
(7.34241 0.0312271 0)
(7.34636 0.031277 0)
(7.35007 0.0312078 0)
(7.35356 0.031047 0)
(7.35686 0.0308156 0)
(7.35998 0.0305306 0)
(7.36293 0.0302054 0)
(7.36574 0.0298514 0)
(7.36842 0.0294784 0)
(7.37098 0.0290957 0)
(7.37344 0.0287121 0)
(7.37581 0.028337 0)
(7.37811 0.0279807 0)
(7.38036 0.0276543 0)
(7.38258 0.0273702 0)
(7.38481 0.0271376 0)
(7.38709 0.0269663 0)
(7.38948 0.0268401 0)
(7.39206 0.0267499 0)
(7.32735 -0.0153979 0)
(7.30976 -0.0162702 0)
(7.30244 -0.0106187 0)
(7.29932 -0.00378575 0)
(7.29908 0.00416063 0)
(7.30187 0.0110836 0)
(7.30609 0.0162187 0)
(7.31062 0.0200413 0)
(7.31523 0.0229422 0)
(7.31983 0.0250882 0)
(7.32431 0.0266286 0)
(7.32859 0.0277136 0)
(7.33266 0.0284569 0)
(7.33654 0.0289368 0)
(7.34022 0.0292117 0)
(7.34372 0.0293274 0)
(7.34705 0.0293191 0)
(7.35022 0.0292139 0)
(7.35325 0.0290328 0)
(7.35615 0.0287927 0)
(7.35893 0.028507 0)
(7.3616 0.0281871 0)
(7.36418 0.0278427 0)
(7.36668 0.0274825 0)
(7.3691 0.0271146 0)
(7.37147 0.0267471 0)
(7.37379 0.0263877 0)
(7.37608 0.026044 0)
(7.37837 0.0257223 0)
(7.38069 0.0254251 0)
(7.38307 0.02515 0)
(7.38555 0.0248769 0)
(7.38818 0.0245771 0)
(7.32939 -0.0103228 0)
(7.31652 -0.0120772 0)
(7.30969 -0.00829679 0)
(7.30624 -0.0028507 0)
(7.30542 0.00374942 0)
(7.30719 0.00977467 0)
(7.31032 0.0144952 0)
(7.31393 0.0181312 0)
(7.31774 0.0209395 0)
(7.32163 0.0230574 0)
(7.32546 0.0246131 0)
(7.32918 0.0257342 0)
(7.33275 0.0265211 0)
(7.33619 0.0270469 0)
(7.33948 0.0273674 0)
(7.34263 0.0275264 0)
(7.34565 0.0275581 0)
(7.34856 0.0274889 0)
(7.35135 0.0273396 0)
(7.35405 0.0271269 0)
(7.35666 0.0268642 0)
(7.35919 0.0265625 0)
(7.36164 0.0262313 0)
(7.36404 0.0258786 0)
(7.36638 0.0255115 0)
(7.36869 0.0251367 0)
(7.37097 0.0247595 0)
(7.37324 0.0243841 0)
(7.37551 0.0240126 0)
(7.37783 0.0236422 0)
(7.3802 0.023264 0)
(7.38266 0.0228564 0)
(7.38524 0.022386 0)
(7.33074 -0.00670184 0)
(7.32148 -0.00859924 0)
(7.31542 -0.00610215 0)
(7.31195 -0.00180799 0)
(7.31077 0.00363809 0)
(7.31179 0.00883707 0)
(7.31411 0.0131152 0)
(7.31701 0.0165209 0)
(7.3202 0.0192022 0)
(7.32353 0.0212617 0)
(7.32687 0.0228046 0)
(7.33015 0.0239371 0)
(7.33335 0.0247466 0)
(7.33644 0.0253 0)
(7.33943 0.0256496 0)
(7.34231 0.0258369 0)
(7.34509 0.0258947 0)
(7.34778 0.0258487 0)
(7.35039 0.0257193 0)
(7.35291 0.0255226 0)
(7.35537 0.025272 0)
(7.35776 0.0249781 0)
(7.3601 0.0246498 0)
(7.36239 0.0242945 0)
(7.36465 0.0239185 0)
(7.36688 0.0235265 0)
(7.3691 0.0231223 0)
(7.37131 0.0227074 0)
(7.37354 0.0222806 0)
(7.3758 0.0218359 0)
(7.37812 0.0213616 0)
(7.38051 0.0208364 0)
(7.38299 0.0202291 0)
(7.33161 -0.00420187 0)
(7.32508 -0.00580981 0)
(7.31996 -0.00409965 0)
(7.31671 -0.000715145 0)
(7.31534 0.00374893 0)
(7.31583 0.00819248 0)
(7.31752 0.0120156 0)
(7.31985 0.0151569 0)
(7.32254 0.017681 0)
(7.32541 0.0196551 0)
(7.32835 0.0211605 0)
(7.33128 0.0222831 0)
(7.33416 0.0230974 0)
(7.33698 0.0236633 0)
(7.33972 0.0240289 0)
(7.34238 0.0242329 0)
(7.34497 0.0243065 0)
(7.34748 0.0242743 0)
(7.34993 0.0241559 0)
(7.35231 0.0239673 0)
(7.35463 0.0237211 0)
(7.35691 0.0234276 0)
(7.35914 0.0230952 0)
(7.36134 0.0227305 0)
(7.36351 0.0223389 0)
(7.36567 0.0219238 0)
(7.36781 0.0214875 0)
(7.36996 0.0210294 0)
(7.37213 0.0205464 0)
(7.37432 0.0200311 0)
(7.37656 0.0194707 0)
(7.37885 0.0188462 0)
(7.3812 0.0181305 0)
(7.33217 -0.00250014 0)
(7.32765 -0.00362203 0)
(7.32352 -0.00234561 0)
(7.32064 0.000352482 0)
(7.31925 0.00400266 0)
(7.31938 0.00777132 0)
(7.3206 0.0111451 0)
(7.32246 0.0140012 0)
(7.32472 0.0163442 0)
(7.32721 0.0182095 0)
(7.32981 0.0196554 0)
(7.33245 0.020749 0)
(7.33507 0.021552 0)
(7.33765 0.0221168 0)
(7.34018 0.0224867 0)
(7.34266 0.0226975 0)
(7.34508 0.0227781 0)
(7.34744 0.0227519 0)
(7.34975 0.0226377 0)
(7.35201 0.0224507 0)
(7.35422 0.0222031 0)
(7.3564 0.0219045 0)
(7.35854 0.0215629 0)
(7.36065 0.0211842 0)
(7.36274 0.0207727 0)
(7.36482 0.0203311 0)
(7.36689 0.0198602 0)
(7.36897 0.0193585 0)
(7.37106 0.0188216 0)
(7.37317 0.0182416 0)
(7.37532 0.0176067 0)
(7.3775 0.0169001 0)
(7.37973 0.0160998 0)
(7.33251 -0.00135786 0)
(7.32945 -0.00195196 0)
(7.32626 -0.000877 0)
(7.32384 0.00132869 0)
(7.32255 0.00432735 0)
(7.32248 0.00751072 0)
(7.32335 0.0104581 0)
(7.32485 0.0130214 0)
(7.32676 0.0151671 0)
(7.32892 0.0169049 0)
(7.33123 0.0182723 0)
(7.3336 0.0193195 0)
(7.33599 0.0200964 0)
(7.33837 0.0206475 0)
(7.34073 0.0210111 0)
(7.34304 0.0212195 0)
(7.34531 0.0212992 0)
(7.34755 0.0212723 0)
(7.34974 0.0211563 0)
(7.35188 0.0209656 0)
(7.354 0.0207118 0)
(7.35608 0.020404 0)
(7.35813 0.0200495 0)
(7.36016 0.0196534 0)
(7.36218 0.0192196 0)
(7.36418 0.0187497 0)
(7.36618 0.0182439 0)
(7.36819 0.0176999 0)
(7.3702 0.017113 0)
(7.37223 0.0164758 0)
(7.37428 0.0157775 0)
(7.37636 0.0150045 0)
(7.37845 0.0141391 0)
(7.33272 -0.000604432 0)
(7.33069 -0.000714054 0)
(7.32832 0.000299487 0)
(7.3264 0.00216779 0)
(7.3253 0.0046619 0)
(7.32514 0.00735301 0)
(7.32578 0.00991057 0)
(7.327 0.0121867 0)
(7.32862 0.0141273 0)
(7.33051 0.015724 0)
(7.33256 0.0169976 0)
(7.33471 0.0179835 0)
(7.33689 0.0187209 0)
(7.33909 0.0192467 0)
(7.34129 0.019594 0)
(7.34346 0.0197914 0)
(7.3456 0.0198632 0)
(7.34772 0.0198292 0)
(7.3498 0.019706 0)
(7.35185 0.0195071 0)
(7.35387 0.0192432 0)
(7.35587 0.0189228 0)
(7.35784 0.0185525 0)
(7.3598 0.018137 0)
(7.36174 0.0176793 0)
(7.36367 0.0171808 0)
(7.3656 0.016641 0)
(7.36753 0.0160574 0)
(7.36946 0.0154256 0)
(7.37141 0.0147387 0)
(7.37336 0.0139878 0)
(7.37533 0.0131618 0)
(7.3773 0.0122472 0)
(7.33284 -0.000117245 0)
(7.33153 0.000175958 0)
(7.32984 0.00120132 0)
(7.3284 0.00284562 0)
(7.32753 0.00495906 0)
(7.32738 0.00724742 0)
(7.32788 0.00946055 0)
(7.3289 0.0114656 0)
(7.33029 0.013202 0)
(7.33195 0.0146502 0)
(7.33379 0.0158186 0)
(7.33573 0.0167312 0)
(7.33774 0.0174176 0)
(7.33978 0.0179077 0)
(7.34183 0.0182296 0)
(7.34387 0.0184083 0)
(7.3459 0.0184652 0)
(7.3479 0.0184185 0)
(7.34989 0.0182834 0)
(7.35185 0.0180721 0)
(7.35379 0.0177946 0)
(7.3557 0.0174589 0)
(7.3576 0.0170707 0)
(7.35948 0.0166343 0)
(7.36135 0.0161524 0)
(7.36322 0.0156258 0)
(7.36507 0.0150539 0)
(7.36693 0.0144342 0)
(7.36878 0.0137627 0)
(7.37064 0.0130336 0)
(7.3725 0.0122397 0)
(7.37436 0.0113722 0)
(7.37622 0.0104211 0)
(7.33292 0.000190507 0)
(7.33209 0.000794658 0)
(7.33093 0.00186058 0)
(7.32991 0.00335708 0)
(7.32929 0.00518735 0)
(7.32921 0.00715302 0)
(7.32965 0.00907024 0)
(7.33053 0.010828 0)
(7.33175 0.012368 0)
(7.33323 0.0136661 0)
(7.33488 0.0147228 0)
(7.33666 0.0155531 0)
(7.33851 0.0161791 0)
(7.34041 0.0166247 0)
(7.34232 0.0169132 0)
(7.34424 0.017066 0)
(7.34616 0.017102 0)
(7.34807 0.0170374 0)
(7.34996 0.0168858 0)
(7.35184 0.0166586 0)
(7.3537 0.0163647 0)
(7.35554 0.0160113 0)
(7.35736 0.0156038 0)
(7.35918 0.0151459 0)
(7.36098 0.0146398 0)
(7.36277 0.0140863 0)
(7.36455 0.0134846 0)
(7.36633 0.0128326 0)
(7.36811 0.0121269 0)
(7.36988 0.0113627 0)
(7.37165 0.0105344 0)
(7.37341 0.00963524 0)
(7.37516 0.00865796 0)
(7.33296 0.000378931 0)
(7.33245 0.00120745 0)
(7.33171 0.00231605 0)
(7.33104 0.0037116 0)
(7.33065 0.0053308 0)
(7.33067 0.00704055 0)
(7.3311 0.00870851 0)
(7.33189 0.0102464 0)
(7.33299 0.0116031 0)
(7.33432 0.0127546 0)
(7.33583 0.013697 0)
(7.33746 0.0144396 0)
(7.33917 0.0149983 0)
(7.34093 0.0153922 0)
(7.34273 0.0156404 0)
(7.34455 0.0157611 0)
(7.34637 0.0157708 0)
(7.34818 0.0156836 0)
(7.34999 0.0155118 0)
(7.35178 0.0152654 0)
(7.35357 0.0149527 0)
(7.35533 0.01458 0)
(7.35709 0.0141521 0)
(7.35883 0.0136724 0)
(7.36057 0.0131429 0)
(7.36229 0.0125641 0)
(7.364 0.0119355 0)
(7.36571 0.0112552 0)
(7.3674 0.0105205 0)
(7.36909 0.00972763 0)
(7.37077 0.00887236 0)
(7.37244 0.00794984 0)
(7.37408 0.00695473 0)
(7.33298 0.000488932 0)
(7.33269 0.00146786 0)
(7.33224 0.00260754 0)
(7.33185 0.00392809 0)
(7.33167 0.00538654 0)
(7.33179 0.00689278 0)
(7.33223 0.00835255 0)
(7.33298 0.00969806 0)
(7.33399 0.0108875 0)
(7.33521 0.0118994 0)
(7.3366 0.0127286 0)
(7.3381 0.0133807 0)
(7.33969 0.0138677 0)
(7.34135 0.0142045 0)
(7.34304 0.0144071 0)
(7.34475 0.0144907 0)
(7.34648 0.0144694 0)
(7.34821 0.0143556 0)
(7.34993 0.0141602 0)
(7.35165 0.0138921 0)
(7.35336 0.0135584 0)
(7.35506 0.0131651 0)
(7.35675 0.0127163 0)
(7.35843 0.0122151 0)
(7.36009 0.0116632 0)
(7.36174 0.0110611 0)
(7.36339 0.0104084 0)
(7.36502 0.00970377 0)
(7.36664 0.00894506 0)
(7.36824 0.00812951 0)
(7.36983 0.00725396 0)
(7.37141 0.00631501 0)
(7.37296 0.00530891 0)
(7.33299 0.000548036 0)
(7.33284 0.00161836 0)
(7.33261 0.00277238 0)
(7.33242 0.00403046 0)
(7.3324 0.00536149 0)
(7.33261 0.00670319 0)
(7.33309 0.00798854 0)
(7.33381 0.00916674 0)
(7.33475 0.0102052 0)
(7.33589 0.0110866 0)
(7.33717 0.011806 0)
(7.33857 0.0123675 0)
(7.34006 0.0127803 0)
(7.34162 0.0130565 0)
(7.34321 0.0132093 0)
(7.34483 0.0132517 0)
(7.34647 0.0131957 0)
(7.34812 0.0130521 0)
(7.34977 0.0128303 0)
(7.35142 0.0125382 0)
(7.35306 0.0121822 0)
(7.35469 0.0117674 0)
(7.35631 0.0112975 0)
(7.35792 0.0107753 0)
(7.35952 0.0102023 0)
(7.3611 0.00957908 0)
(7.36267 0.00890541 0)
(7.36423 0.00818032 0)
(7.36578 0.00740226 0)
(7.3673 0.0065693 0)
(7.36881 0.00567925 0)
(7.37029 0.00472979 0)
(7.37175 0.00371838 0)
(7.333 0.000574687 0)
(7.33294 0.00169204 0)
(7.33284 0.00284374 0)
(7.3328 0.00404421 0)
(7.3329 0.00526909 0)
(7.33318 0.00647397 0)
(7.33368 0.00761105 0)
(7.33439 0.00864299 0)
(7.33528 0.00954547 0)
(7.33635 0.0103057 0)
(7.33755 0.0109201 0)
(7.33886 0.0113923 0)
(7.34026 0.0117301 0)
(7.34172 0.0119435 0)
(7.34323 0.0120438 0)
(7.34477 0.0120419 0)
(7.34633 0.0119483 0)
(7.3479 0.0117722 0)
(7.34948 0.0115219 0)
(7.35105 0.0112042 0)
(7.35262 0.0108246 0)
(7.35419 0.0103878 0)
(7.35574 0.00989703 0)
(7.35728 0.00935464 0)
(7.35882 0.00876208 0)
(7.36033 0.00811998 0)
(7.36183 0.0074283 0)
(7.36332 0.00668642 0)
(7.36479 0.00589333 0)
(7.36624 0.00504773 0)
(7.36767 0.00414822 0)
(7.36907 0.00319332 0)
(7.37044 0.00218138 0)
(7.333 0.000581308 0)
(7.33299 0.00171443 0)
(7.33299 0.00285015 0)
(7.33304 0.00399443 0)
(7.33321 0.00512656 0)
(7.33354 0.00621378 0)
(7.33405 0.00722189 0)
(7.33473 0.00812409 0)
(7.33559 0.00890321 0)
(7.33659 0.00955068 0)
(7.33772 0.0100651 0)
(7.33895 0.0104501 0)
(7.34026 0.0107129 0)
(7.34164 0.0108624 0)
(7.34307 0.0109082 0)
(7.34453 0.0108599 0)
(7.34601 0.0107264 0)
(7.34751 0.0105158 0)
(7.34902 0.0102351 0)
(7.35052 0.00989047 0)
(7.35203 0.00948666 0)
(7.35353 0.00902761 0)
(7.35501 0.00851625 0)
(7.35649 0.00795467 0)
(7.35796 0.00734419 0)
(7.35941 0.00668548 0)
(7.36084 0.00597866 0)
(7.36226 0.00522344 0)
(7.36365 0.00441921 0)
(7.36503 0.00356523 0)
(7.36638 0.00266067 0)
(7.3677 0.00170469 0)
(7.36899 0.000696274 0)
(7.333 0.000576465 0)
(7.33302 0.00170551 0)
(7.33306 0.00281608 0)
(7.33316 0.00390495 0)
(7.33337 0.00495314 0)
(7.33372 0.00593583 0)
(7.33422 0.00682872 0)
(7.33487 0.00761341 0)
(7.33568 0.00827883 0)
(7.33662 0.00882044 0)
(7.33767 0.00923895 0)
(7.33883 0.00953887 0)
(7.34006 0.00972714 0)
(7.34136 0.00981194 0)
(7.34271 0.00980185 0)
(7.34409 0.00970528 0)
(7.3455 0.00953007 0)
(7.34693 0.00928324 0)
(7.34837 0.00897093 0)
(7.34981 0.0085983 0)
(7.35124 0.00816962 0)
(7.35268 0.00768826 0)
(7.3541 0.00715678 0)
(7.35551 0.00657702 0)
(7.35692 0.00595021 0)
(7.3583 0.00527704 0)
(7.35967 0.00455775 0)
(7.36101 0.00379231 0)
(7.36234 0.00298045 0)
(7.36364 0.00212182 0)
(7.36492 0.00121605 0)
(7.36616 0.000262745 0)
(7.36738 -0.000738663 0)
(7.333 0.000566366 0)
(7.33303 0.0016814 0)
(7.33309 0.00276293 0)
(7.3332 0.00379834 0)
(7.33341 0.00476929 0)
(7.33373 0.00565668 0)
(7.3342 0.00644391 0)
(7.33481 0.0071196 0)
(7.33556 0.00767809 0)
(7.33643 0.00811862 0)
(7.33741 0.00844415 0)
(7.33849 0.00866025 0)
(7.33964 0.00877402 0)
(7.34086 0.00879329 0)
(7.34213 0.00872592 0)
(7.34344 0.00857946 0)
(7.34478 0.00836083 0)
(7.34613 0.00807618 0)
(7.3475 0.00773083 0)
(7.34887 0.00732925 0)
(7.35024 0.00687512 0)
(7.35161 0.00637133 0)
(7.35297 0.00582012 0)
(7.35432 0.0052231 0)
(7.35566 0.00458138 0)
(7.35698 0.00389565 0)
(7.35828 0.00316626 0)
(7.35956 0.00239335 0)
(7.36082 0.00157691 0)
(7.36206 0.000716876 0)
(7.36326 -0.000186808 0)
(7.36444 -0.00113422 0)
(7.36558 -0.00212563 0)
(7.333 0.000555951 0)
(7.33302 0.0016561 0)
(7.33307 0.00271048 0)
(7.33315 0.00369682 0)
(7.33333 0.00459673 0)
(7.33361 0.00539579 0)
(7.33402 0.00608391 0)
(7.33456 0.00665603 0)
(7.33523 0.00711163 0)
(7.33602 0.00745362 0)
(7.33691 0.00768734 0)
(7.33791 0.00781962 0)
(7.33898 0.00785803 0)
(7.34011 0.00781026 0)
(7.3413 0.00768373 0)
(7.34253 0.00748534 0)
(7.3438 0.00722126 0)
(7.34508 0.00689692 0)
(7.34638 0.00651694 0)
(7.34768 0.00608517 0)
(7.34899 0.00560477 0)
(7.3503 0.0050782 0)
(7.3516 0.00450739 0)
(7.35289 0.00389372 0)
(7.35416 0.0032382 0)
(7.35542 0.00254147 0)
(7.35666 0.00180394 0)
(7.35788 0.00102587 0)
(7.35908 0.000207412 0)
(7.36025 -0.000651291 0)
(7.36139 -0.0015501 0)
(7.3625 -0.00248889 0)
(7.36358 -0.00346773 0)
(7.333 0.000549729 0)
(7.333 0.00164315 0)
(7.333 0.0026787 0)
(7.33304 0.00362371 0)
(7.33314 0.00445947 0)
(7.33334 0.00517594 0)
(7.33365 0.00576929 0)
(7.3341 0.00624067 0)
(7.33467 0.00659476 0)
(7.33536 0.00683834 0)
(7.33616 0.00697931 0)
(7.33706 0.00702599 0)
(7.33804 0.00698663 0)
(7.33909 0.00686906 0)
(7.34019 0.00668043 0)
(7.34134 0.00642715 0)
(7.34253 0.00611482 0)
(7.34374 0.00574823 0)
(7.34497 0.00533142 0)
(7.34621 0.00486767 0)
(7.34746 0.00435966 0)
(7.3487 0.00380948 0)
(7.34994 0.00321872 0)
(7.35117 0.00258856 0)
(7.35239 0.00191987 0)
(7.3536 0.00121322 0)
(7.35478 0.000469031 0)
(7.35594 -0.000312395 0)
(7.35708 -0.00113081 0)
(7.3582 -0.00198596 0)
(7.35928 -0.00287759 0)
(7.36033 -0.00380547 0)
(7.36135 -0.00476956 0)
(7.333 0.000552572 0)
(7.33297 0.00165754 0)
(7.3329 0.00269015 0)
(7.33283 0.00360578 0)
(7.33282 0.00438561 0)
(7.3329 0.00502459 0)
(7.33309 0.00552555 0)
(7.33341 0.00589641 0)
(7.33386 0.00614754 0)
(7.33443 0.00628998 0)
(7.33512 0.00633455 0)
(7.3359 0.00629138 0)
(7.33678 0.00616968 0)
(7.33774 0.00597759 0)
(7.33875 0.00572221 0)
(7.33982 0.00540961 0)
(7.34093 0.00504492 0)
(7.34207 0.0046324 0)
(7.34324 0.00417553 0)
(7.34442 0.00367713 0)
(7.3456 0.00313939 0)
(7.34679 0.00256403 0)
(7.34798 0.00195232 0)
(7.34916 0.00130523 0)
(7.35033 0.000623412 0)
(7.35148 -9.26325e-05 0)
(7.35261 -0.00084255 0)
(7.35373 -0.00162605 0)
(7.35482 -0.00244288 0)
(7.35588 -0.00329274 0)
(7.35691 -0.00417534 0)
(7.35792 -0.00509041 0)
(7.35889 -0.00603789 0)
(7.333 0.000570665 0)
(7.33291 0.00171827 0)
(7.33273 0.00277325 0)
(7.33252 0.00367658 0)
(7.33235 0.00441038 0)
(7.33226 0.0049761 0)
(7.33229 0.00538463 0)
(7.33244 0.00565187 0)
(7.33273 0.00579486 0)
(7.33316 0.00582964 0)
(7.33371 0.0057705 0)
(7.33438 0.00562983 0)
(7.33515 0.00541809 0)
(7.336 0.00514401 0)
(7.33693 0.00481479 0)
(7.33792 0.00443632 0)
(7.33895 0.00401332 0)
(7.34003 0.00354959 0)
(7.34113 0.00304811 0)
(7.34225 0.0025112 0)
(7.34339 0.00194059 0)
(7.34453 0.0013376 0)
(7.34567 0.000703174 0)
(7.34681 3.79775e-05 0)
(7.34793 -0.000657532 0)
(7.34905 -0.00138303 0)
(7.35014 -0.00213828 0)
(7.35122 -0.00292308 0)
(7.35227 -0.00373722 0)
(7.35329 -0.00458045 0)
(7.35429 -0.00545253 0)
(7.35525 -0.00635321 0)
(7.35618 -0.00728244 0)
(7.33299 0.000612955 0)
(7.33282 0.0018522 0)
(7.33248 0.00296724 0)
(7.33207 0.00388139 0)
(7.33167 0.00458035 0)
(7.33135 0.00507504 0)
(7.33115 0.005387 0)
(7.3311 0.00554232 0)
(7.3312 0.0055664 0)
(7.33146 0.00548141 0)
(7.33186 0.00530599 0)
(7.33239 0.00505531 0)
(7.33305 0.00474153 0)
(7.3338 0.00437423 0)
(7.33464 0.00396087 0)
(7.33555 0.00350721 0)
(7.33652 0.00301766 0)
(7.33754 0.00249553 0)
(7.3386 0.00194326 0)
(7.33968 0.00136264 0)
(7.34077 0.000754919 0)
(7.34188 0.000120937 0)
(7.34299 -0.000538765 0)
(7.34409 -0.00122387 0)
(7.34519 -0.00193421 0)
(7.34628 -0.0026697 0)
(7.34735 -0.0034303 0)
(7.3484 -0.00421598 0)
(7.34942 -0.00502664 0)
(7.35042 -0.00586218 0)
(7.35139 -0.00672244 0)
(7.35233 -0.00760727 0)
(7.35323 -0.00851671 0)
(7.33298 0.00069373 0)
(7.33269 0.00210058 0)
(7.33211 0.00333002 0)
(7.33139 0.0042846 0)
(7.33067 0.00495943 0)
(7.33004 0.0053802 0)
(7.32955 0.00558367 0)
(7.32924 0.00560992 0)
(7.32912 0.00549531 0)
(7.32919 0.00526995 0)
(7.32943 0.00495793 0)
(7.32983 0.00457802 0)
(7.33037 0.00414447 0)
(7.33103 0.00366792 0)
(7.3318 0.00315616 0)
(7.33265 0.00261483 0)
(7.33357 0.00204791 0)
(7.33456 0.00145814 0)
(7.33558 0.000847321 0)
(7.33664 0.000216585 0)
(7.33771 -0.000433451 0)
(7.33881 -0.00110252 0)
(7.3399 -0.0017906 0)
(7.341 -0.00249783 0)
(7.34209 -0.00322444 0)
(7.34317 -0.00397068 0)
(7.34423 -0.00473681 0)
(7.34527 -0.00552304 0)
(7.34629 -0.0063295 0)
(7.34728 -0.00715628 0)
(7.34824 -0.00800338 0)
(7.34916 -0.00887084 0)
(7.35006 -0.00975882 0)
(7.33297 0.000837544 0)
(7.33247 0.00253045 0)
(7.33152 0.00395082 0)
(7.33036 0.00498066 0)
(7.3292 0.00563667 0)
(7.32815 0.00596879 0)
(7.32731 0.00603698 0)
(7.32669 0.00590163 0)
(7.32631 0.00561417 0)
(7.32617 0.00521506 0)
(7.32625 0.00473534 0)
(7.32653 0.00419811 0)
(7.32698 0.00361998 0)
(7.32758 0.00301262 0)
(7.3283 0.00238398 0)
(7.32912 0.00173931 0)
(7.33003 0.00108189 0)
(7.331 0.000413596 0)
(7.33203 -0.000264668 0)
(7.33309 -0.000952676 0)
(7.33418 -0.00165066 0)
(7.33528 -0.00235911 0)
(7.3364 -0.00307871 0)
(7.33751 -0.00381021 0)
(7.33862 -0.00455436 0)
(7.33971 -0.00531189 0)
(7.34079 -0.00608345 0)
(7.34184 -0.0068696 0)
(7.34287 -0.0076708 0)
(7.34387 -0.0084874 0)
(7.34484 -0.00931966 0)
(7.34578 -0.0101678 0)
(7.34668 -0.0110322 0)
(7.33294 0.00108937 0)
(7.33211 0.00325514 0)
(7.33057 0.0049701 0)
(7.32876 0.00610902 0)
(7.32698 0.00673485 0)
(7.3254 0.00693839 0)
(7.32411 0.00681706 0)
(7.32315 0.00646207 0)
(7.32251 0.00594567 0)
(7.32218 0.00532159 0)
(7.32213 0.00462914 0)
(7.32233 0.00389603 0)
(7.32273 0.00314093 0)
(7.32331 0.00237588 0)
(7.32403 0.00160831 0)
(7.32488 0.00084238 0)
(7.32581 8.00481e-05 0)
(7.32683 -0.000678219 0)
(7.3279 -0.0014329 0)
(7.32901 -0.00218506 0)
(7.33015 -0.0029361 0)
(7.33131 -0.00368757 0)
(7.33247 -0.00444107 0)
(7.33363 -0.00519815 0)
(7.33479 -0.00596028 0)
(7.33593 -0.00672878 0)
(7.33705 -0.00750483 0)
(7.33815 -0.00828947 0)
(7.33921 -0.00908354 0)
(7.34025 -0.00988775 0)
(7.34126 -0.0107027 0)
(7.34222 -0.0115289 0)
(7.34315 -0.0123669 0)
(7.33289 0.00153864 0)
(7.33145 0.00447381 0)
(7.32898 0.00661044 0)
(7.32621 0.00787112 0)
(7.32361 0.00841425 0)
(7.32136 0.00840004 0)
(7.31957 0.00798811 0)
(7.31826 0.00731654 0)
(7.3174 0.00648516 0)
(7.31694 0.00556298 0)
(7.31683 0.00459756 0)
(7.31702 0.00362006 0)
(7.31745 0.00264947 0)
(7.31809 0.00169652 0)
(7.3189 0.00076653 0)
(7.31983 -0.000138691 0)
(7.32087 -0.00101959 0)
(7.32199 -0.00187798 0)
(7.32316 -0.0027164 0)
(7.32438 -0.00353774 0)
(7.32562 -0.00434503 0)
(7.32688 -0.00514121 0)
(7.32814 -0.00592908 0)
(7.32939 -0.00671122 0)
(7.33064 -0.00748999 0)
(7.33186 -0.00826747 0)
(7.33306 -0.00904551 0)
(7.33424 -0.00982568 0)
(7.33538 -0.0106094 0)
(7.33648 -0.0113977 0)
(7.33755 -0.0121916 0)
(7.33857 -0.0129919 0)
(7.33956 -0.0137996 0)
(7.33277 0.00237478 0)
(7.33022 0.00655493 0)
(7.32624 0.00923324 0)
(7.3221 0.0105503 0)
(7.31843 0.0108618 0)
(7.31541 0.010448 0)
(7.31313 0.0095707 0)
(7.31155 0.00843396 0)
(7.31057 0.00716792 0)
(7.31011 0.00585413 0)
(7.31008 0.00454446 0)
(7.31039 0.00326917 0)
(7.31099 0.00204352 0)
(7.31181 0.00087364 0)
(7.3128 -0.000239761 0)
(7.31393 -0.00129918 0)
(7.31516 -0.00230891 0)
(7.31646 -0.00327409 0)
(7.31782 -0.00420017 0)
(7.31922 -0.00509247 0)
(7.32063 -0.00595608 0)
(7.32205 -0.00679569 0)
(7.32347 -0.00761558 0)
(7.32487 -0.00841958 0)
(7.32625 -0.00921109 0)
(7.32761 -0.00999309 0)
(7.32894 -0.0107682 0)
(7.33023 -0.0115387 0)
(7.33148 -0.0123064 0)
(7.33269 -0.0130731 0)
(7.33385 -0.0138401 0)
(7.33497 -0.0146086 0)
(7.33604 -0.0153799 0)
(7.33248 0.00396248 0)
(7.32783 0.0101566 0)
(7.32139 0.0134338 0)
(7.31537 0.0145631 0)
(7.31044 0.0142939 0)
(7.3067 0.0131306 0)
(7.30409 0.011502 0)
(7.30245 0.00968904 0)
(7.30159 0.00783755 0)
(7.30136 0.00602677 0)
(7.30161 0.00430158 0)
(7.30225 0.00268182 0)
(7.30318 0.00117157 0)
(7.30434 -0.000233011 0)
(7.30567 -0.00153945 0)
(7.30713 -0.00275707 0)
(7.30868 -0.00389577 0)
(7.31029 -0.00496531 0)
(7.31194 -0.00597485 0)
(7.31361 -0.00693278 0)
(7.31529 -0.00784667 0)
(7.31696 -0.00872324 0)
(7.31861 -0.00956846 0)
(7.32024 -0.0103875 0)
(7.32183 -0.011185 0)
(7.32338 -0.0119648 0)
(7.32489 -0.0127305 0)
(7.32636 -0.0134848 0)
(7.32777 -0.0142303 0)
(7.32914 -0.0149693 0)
(7.33044 -0.0157033 0)
(7.3317 -0.0164342 0)
(7.3329 -0.0171631 0)
(7.33192 0.00692353 0)
(7.32311 0.0161365 0)
(7.31274 0.0198093 0)
(7.30432 0.0202562 0)
(7.29817 0.0188185 0)
(7.29399 0.0163603 0)
(7.29148 0.0135758 0)
(7.29022 0.0108116 0)
(7.28988 0.00818483 0)
(7.29023 0.00574448 0)
(7.2911 0.0035133 0)
(7.29235 0.00148952 0)
(7.29389 -0.000342522 0)
(7.29563 -0.00200261 0)
(7.29752 -0.0035107 0)
(7.29951 -0.00488592 0)
(7.30157 -0.00614607 0)
(7.30365 -0.00730722 0)
(7.30575 -0.0083836 0)
(7.30785 -0.00938767 0)
(7.30992 -0.0103303 0)
(7.31197 -0.0112208 0)
(7.31397 -0.0120674 0)
(7.31592 -0.012877 0)
(7.31783 -0.0136557 0)
(7.31967 -0.0144085 0)
(7.32146 -0.0151401 0)
(7.32318 -0.015854 0)
(7.32484 -0.0165536 0)
(7.32643 -0.0172416 0)
(7.32795 -0.0179206 0)
(7.3294 -0.0185926 0)
(7.33079 -0.0192598 0)
(7.33066 0.013816 0)
(7.31338 0.026345 0)
(7.29717 0.0284472 0)
(7.28626 0.0270606 0)
(7.27934 0.0238834 0)
(7.27544 0.0198573 0)
(7.27381 0.015863 0)
(7.27368 0.0122022 0)
(7.2745 0.00887608 0)
(7.27603 0.00586746 0)
(7.27806 0.0031667 0)
(7.28043 0.000748317 0)
(7.28303 -0.00142011 0)
(7.28578 -0.00336887 0)
(7.28862 -0.00512472 0)
(7.2915 -0.006712 0)
(7.29439 -0.00815287 0)
(7.29726 -0.00946702 0)
(7.30009 -0.0106717 0)
(7.30287 -0.011782 0)
(7.30558 -0.0128111 0)
(7.30822 -0.0137703 0)
(7.31078 -0.0146695 0)
(7.31326 -0.0155172 0)
(7.31565 -0.0163209 0)
(7.31795 -0.0170869 0)
(7.32015 -0.0178206 0)
(7.32227 -0.0185268 0)
(7.3243 -0.0192096 0)
(7.32623 -0.0198722 0)
(7.32808 -0.0205175 0)
(7.32983 -0.0211476 0)
(7.3315 -0.0217644 0)
(7.32447 0.0352529 0)
(7.28905 0.0484152 0)
(7.26649 0.0395877 0)
(7.25598 0.0291992 0)
(7.2507 0.0198781 0)
(7.2489 0.0120337 0)
(7.24973 0.00591271 0)
(7.25205 0.00117561 0)
(7.25519 -0.00258288 0)
(7.25891 -0.00559882 0)
(7.26304 -0.00802565 0)
(7.26742 -0.0100024 0)
(7.27191 -0.0116415 0)
(7.27644 -0.0130239 0)
(7.28095 -0.0142075 0)
(7.28539 -0.0152357 0)
(7.28974 -0.0161424 0)
(7.29397 -0.0169533 0)
(7.29807 -0.0176882 0)
(7.30202 -0.0183626 0)
(7.30583 -0.0189885 0)
(7.30948 -0.0195755 0)
(7.31298 -0.0201313 0)
(7.31632 -0.0206618 0)
(7.31951 -0.0211719 0)
(7.32256 -0.0216656 0)
(7.32546 -0.0221462 0)
(7.32822 -0.0226163 0)
(7.33084 -0.0230782 0)
(7.33333 -0.023534 0)
(7.33569 -0.0239858 0)
(7.33792 -0.0244358 0)
(7.34004 -0.0248867 0)
(7.29541 0.0831414 0)
(7.21833 0.128044 0)
(7.18707 0.129005 0)
(7.18632 0.113963 0)
(7.19295 0.0941338 0)
(7.20193 0.0760904 0)
(7.21231 0.0610613 0)
(7.22297 0.048151 0)
(7.2335 0.0368373 0)
(7.24384 0.027022 0)
(7.2539 0.018608 0)
(7.26354 0.0114379 0)
(7.27271 0.00534253 0)
(7.2814 0.000170964 0)
(7.2896 -0.0042116 0)
(7.29733 -0.00792674 0)
(7.3046 -0.0110813 0)
(7.31144 -0.0137663 0)
(7.31786 -0.0160587 0)
(7.32388 -0.0180228 0)
(7.32954 -0.0197125 0)
(7.33485 -0.021173 0)
(7.33984 -0.0224417 0)
(7.34451 -0.02355 0)
(7.3489 -0.0245237 0)
(7.35301 -0.0253847 0)
(7.35687 -0.0261509 0)
(7.36048 -0.0268375 0)
(7.36386 -0.0274568 0)
(7.36703 -0.0280192 0)
(7.36998 -0.0285331 0)
(7.37274 -0.0290045 0)
(7.3753 -0.0294405 0)
(7.32717 -0.156814 0)
(7.19692 -0.284093 0)
(7.13361 -0.280647 0)
(7.11315 -0.247166 0)
(7.11508 -0.214555 0)
(7.13554 -0.184254 0)
(7.16564 -0.15703 0)
(7.19803 -0.134036 0)
(7.22997 -0.115222 0)
(7.26033 -0.0998975 0)
(7.28836 -0.0873947 0)
(7.31375 -0.0772155 0)
(7.33648 -0.0689513 0)
(7.35673 -0.0622444 0)
(7.37473 -0.0567932 0)
(7.39067 -0.052355 0)
(7.40478 -0.0487357 0)
(7.41726 -0.0457798 0)
(7.4283 -0.0433617 0)
(7.43805 -0.0413806 0)
(7.44667 -0.0397557 0)
(7.45427 -0.0384219 0)
(7.46098 -0.0373268 0)
(7.46689 -0.0364283 0)
(7.47208 -0.035692 0)
(7.47664 -0.0350903 0)
(7.48063 -0.0346005 0)
(7.4841 -0.0342043 0)
(7.48712 -0.0338863 0)
(7.48972 -0.0336342 0)
(7.49196 -0.033437 0)
(7.49386 -0.033286 0)
(7.49548 -0.0331696 0)
(7.33086 1.21499 0)
(7.63822 1.23053 0)
(7.81865 0.920168 0)
(7.8759 0.647915 0)
(7.88919 0.449902 0)
(7.88325 0.310866 0)
(7.8619 0.213001 0)
(7.83007 0.143229 0)