/*--------------------------------*- C++ -*----------------------------------*\
| =========                 |                                                 |
| \\      /  F ield         | OpenFOAM: The Open Source CFD Toolbox           |
|  \\    /   O peration     | Version:  4.1                                   |
|   \\  /    A nd           | Web:      www.OpenFOAM.org                      |
|    \\/     M anipulation  |                                                 |
\*---------------------------------------------------------------------------*/
FoamFile
{
    version     2.0;
    format      ascii;
    class       volScalarField;
    location    "800";
    object      p;
}
// * * * * * * * * * * * * * * * * * * * * * * * * * * * * * * * * * * * * * //

dimensions      [0 2 -2 0 0 0 0];

internalField   nonuniform List<scalar> 
26785
(
-19.9409
-22.7969
-23.8616
-24.477
-24.5752
-24.4482
-24.2064
-24.2016
-24.9173
-26.7015
-29.6815
-33.7792
-38.7217
-44.0475
-48.9941
-52.1852
-51.1795
-42.4004
-22.3728
11.3248
61.9872
129.548
211.189
301.378
394.079
483.303
564.141
633.985
691.744
730.842
755.465
771.802
782.902
795.334
808.18
796.227
763.733
723.59
674.097
621.075
564.862
503.033
433.444
354.096
263.973
162.911
51.256
-70.3242
-200.908
-338.816
-480.25
-616.667
-731.203
-801.114
-815.955
-787.833
-730.217
-653.675
-568.14
-481.827
-401.067
-328.663
-264.252
-206.047
-152.133
-101.259
-53.0049
-7.48736
34.9461
73.9415
109.266
140.83
168.678
192.956
213.882
231.715
246.721
259.137
269.146
276.878
282.44
285.91
287.349
286.987
284.649
280.368
274.801
267.998
259.663
249.66
237.941
224.416
208.872
191.195
170.881
148.249
121.177
93.5799
52.9792
31.9577
-19.9532
-22.7965
-23.8587
-24.4718
-24.5688
-24.4404
-24.1956
-24.1854
-24.8957
-26.6771
-29.6586
-33.764
-38.7214
-44.0696
-49.0504
-52.2985
-51.372
-42.6678
-22.6994
10.885
61.4667
128.981
210.621
300.819
393.536
482.811
563.775
633.643
691.044
730.252
755.211
771.759
782.594
794.459
807.326
795.434
763.135
723.005
673.497
620.523
564.426
502.689
433.133
353.756
263.551
162.377
50.5983
-71.1185
-201.879
-340.074
-482.016
-619.252
-734.732
-804.984
-819.261
-790.654
-732.667
-655.821
-569.956
-483.274
-402.198
-329.581
-265.058
-206.805
-152.861
-101.949
-53.6415
-8.06288
34.4301
73.4769
108.842
140.437
168.307
192.599
213.531
231.363
246.36
258.761
268.755
276.479
282.045
285.54
287.034
286.675
284.346
280.146
274.608
267.783
259.428
249.416
237.687
224.15
208.595
190.915
170.598
147.989
120.901
93.4165
52.6801
32.1182
-19.9672
-22.7942
-23.8513
-24.4594
-24.554
-24.4233
-24.173
-24.1528
-24.8538
-26.6308
-29.6159
-33.7368
-38.7237
-44.1156
-49.1621
-52.5191
-51.7476
-43.1928
-23.3484
10.0154
60.455
127.884
209.52
299.735
392.467
481.794
562.933
632.91
690.063
729.385
754.796
771.718
782.206
792.859
805.568
793.946
762.109
721.88
672.317
619.424
563.542
501.977
432.477
353.033
262.661
161.265
49.2388
-72.7454
-203.845
-342.587
-485.505
-624.33
-741.658
-812.572
-825.738
-796.164
-737.404
-660.004
-573.554
-486.222
-404.588
-331.575
-266.815
-208.429
-154.385
-103.361
-54.9267
-9.21487
33.4021
72.5533
108
139.655
167.566
191.882
212.826
230.657
245.642
258.021
267.994
275.709
281.288
284.825
286.39
286.071
283.79
279.679
274.159
267.3
258.922
248.901
237.159
223.606
208.035
190.354
170.032
147.465
120.36
93.0571
52.145
32.2929
-19.9781
-22.7893
-23.8389
-24.44
-24.5313
-24.3975
-24.1399
-24.1059
-24.7941
-26.5658
-29.5575
-33.7028
-38.7357
-44.196
-49.344
-52.8671
-52.3323
-44.0067
-24.3526
8.69434
58.9552
126.276
207.911
298.161
390.919
480.296
561.586
631.638
688.645
728.229
754.193
771.567
781.476
790.722
803.118
791.865
760.696
720.261
670.6
617.81
562.217
500.878
431.437
351.871
261.232
159.486
47.0719
-75.3273
-206.939
-346.48
-490.794
-631.866
-751.755
-823.444
-834.908
-804.012
-744.158
-666.021
-578.805
-490.627
-408.262
-334.701
-269.569
-210.933
-156.679
-105.445
-56.7928
-10.8684
31.9377
71.2424
106.805
138.54
166.502
190.847
211.801
229.627
244.594
256.948
266.897
274.602
280.196
283.788
285.434
285.16
282.929
278.9
273.407
266.53
258.136
248.102
236.343
222.772
207.186
189.507
169.186
146.679
119.57
92.5051
51.4268
32.4341
-19.9809
-22.78
-23.82
-24.4117
-24.4986
-24.3612
-24.0945
-24.0434
-24.7159
-26.4815
-29.4824
-33.6605
-38.7552
-44.3086
-49.5936
-53.3386
-53.1231
-45.1091
-25.7144
6.92206
56.982
124.181
205.821
296.128
388.939
478.39
559.853
629.975
686.897
726.803
753.36
771.193
780.342
788.33
799.862
789.332
758.746
718.157
668.368
615.699
560.457
499.38
429.98
350.224
259.205
156.973
44.0303
-78.9272
-211.209
-351.766
-497.825
-641.682
-764.686
-837.118
-846.332
-813.845
-752.673
-673.684
-585.576
-496.418
-413.194
-338.953
-273.315
-214.295
-159.71
-108.157
-59.1937
-12.9792
30.0767
69.5783
105.284
137.115
165.134
189.506
210.464
228.277
243.222
255.55
265.479
273.18
278.801
282.456
284.174
283.934
281.757
277.808
272.349
265.462
257.051
247.004
235.229
221.642
206.043
188.373
168.062
145.635
118.541
91.7609
50.5564
32.5075
-19.9745
-22.7667
-23.7937
-24.374
-24.4558
-24.3146
-24.0381
-23.967
-24.6214
-26.3804
-29.3936
-33.613
-38.7865
-44.4598
-49.9205
-53.9465
-54.1385
-46.5254
-27.4604
4.67877
54.5332
121.608
203.261
293.648
386.532
476.075
557.723
627.923
684.826
725.106
752.261
770.478
778.817
785.842
795.727
786.408
756.052
715.608
665.64
613.111
558.274
497.477
428.083
348.051
256.528
153.668
40.0505
-83.6061
-216.702
-358.447
-506.507
-653.519
-779.973
-853.009
-859.573
-825.309
-762.703
-682.766
-593.668
-503.443
-419.289
-344.28
-278.018
-218.486
-163.446
-111.462
-62.0957
-15.5149
27.8494
67.5887
103.463
135.401
163.479
187.873
208.828
226.621
241.537
253.838
263.75
271.455
277.115
280.837
282.608
282.39
280.265
276.387
270.964
264.077
255.655
245.599
233.81
220.212
204.605
186.954
166.667
144.343
117.291
90.839
49.5662
32.5103
-19.9771
-22.746
-23.759
-24.3254
-24.4013
-24.2563
-23.9695
-23.8762
-24.5104
-26.2629
-29.2914
-33.5608
-38.8303
-44.6517
-50.3284
-54.6958
-55.387
-48.2687
-29.6029
1.95611
51.6135
118.576
200.255
290.749
383.734
473.391
555.24
625.526
682.453
723.131
750.875
769.401
776.975
783.239
790.837
782.862
752.687
712.624
662.43
610.076
555.683
495.171
425.728
345.318
253.156
149.52
35.0816
-89.4098
-223.444
-366.504
-516.717
-667.08
-797.158
-870.681
-874.399
-838.171
-774.03
-693.055
-602.889
-511.549
-426.438
-350.609
-283.627
-223.463
-167.846
-115.327
-65.4701
-18.4529
25.273
65.2869
101.351
133.406
161.543
185.954
206.898
224.664
239.547
251.82
261.718
269.439
275.151
278.927
280.722
280.522
278.446
274.632
269.247
262.37
253.945
243.883
232.086
218.481
202.874
185.253
165.006
142.81
115.836
89.754
48.4791
32.4478
-19.9744
-22.7184
-23.7147
-24.2648
-24.334
-24.1857
-23.8887
-23.7716
-24.3842
-26.1303
-29.1771
-33.5052
-38.8881
-44.887
-50.8223
-55.5943
-56.8821
-50.3616
-32.1651
-1.26521
48.2163
115.091
196.813
287.447
380.56
470.352
552.422
622.804
679.79
720.875
749.186
767.958
774.824
780.462
785.361
778.448
748.976
708.993
658.783
606.63
552.703
492.472
422.905
342.001
249.057
144.493
29.088
-96.366
-231.442
-375.892
-528.3
-682.045
-815.81
-889.797
-890.628
-852.294
-786.491
-704.367
-613.068
-520.59
-434.523
-357.848
-290.07
-229.166
-172.86
-119.71
-69.2858
-21.7714
22.3618
62.6818
98.9545
131.133
159.327
183.75
204.675
222.408
237.255
249.502
259.395
267.143
272.907
276.718
278.51
278.327
276.296
272.538
267.195
260.335
251.914
241.852
230.052
216.448
200.852
183.275
163.091
141.053
114.198
88.5271
47.3197
32.3354
-19.9652
-22.6826
-23.6596
-24.1908
-24.2526
-24.1016
-23.7951
-23.6531
-24.2431
-25.9834
-29.0519
-33.4472
-38.9614
-45.1684
-51.4073
-56.6489
-58.6364
-52.8246
-35.1649
-4.99843
44.3379
111.164
192.951
283.76
377.032
466.986
549.296
619.783
676.851
718.337
747.178
766.138
772.341
777.499
779.39
773.079
744.971
704.506
654.792
602.802
549.368
489.391
419.615
338.084
244.207
138.561
22.0488
-104.486
-240.686
-386.548
-541.094
-698.113
-835.577
-910.132
-908.066
-867.566
-799.959
-716.549
-624.056
-530.427
-443.424
-365.895
-297.26
-235.524
-178.433
-124.568
-73.5118
-25.4499
19.1273
59.7777
96.2729
128.58
156.83
181.259
202.16
219.856
234.668
246.892
256.788
264.575
270.381
274.191
275.969
275.802
273.808
270.102
264.803
257.969
249.561
239.506
227.709
214.116
198.542
181.028
160.933
139.086
112.397
87.1796
46.1105
32.1888
-19.9475
-22.6374
-23.5924
-24.1018
-24.1554
-24.0027
-23.6882
-23.5209
-24.0878
-25.8232
-28.9164
-33.3875
-39.051
-45.498
-52.0877
-57.8667
-60.6626
-55.6813
-38.6234
-9.25962
39.9697
106.8
188.677
279.704
373.167
463.308
545.883
616.487
673.651
715.517
744.842
763.926
769.505
774.45
772.955
766.831
740.304
699.491
650.355
598.643
545.723
485.945
415.861
333.562
238.594
131.714
13.9579
-113.765
-251.148
-398.398
-554.94
-715.021
-856.194
-931.577
-926.606
-883.905
-814.32
-729.473
-635.724
-540.931
-453.018
-374.64
-305.106
-242.47
-184.514
-129.864
-78.1199
-29.4694
15.5793
56.5773
93.304
125.742
154.046
178.477
199.352
217.01
231.788
243.996
253.906
261.733
267.556
271.335
273.096
272.941
270.981
267.325
262.073
255.272
246.885
236.844
225.06
211.486
195.95
178.519
158.544
136.926
110.456
85.7342
44.8756
32.0228
-19.9181
-22.5833
-23.5117
-23.9963
-24.0409
-23.8878
-23.5674
-23.375
-23.9187
-25.6504
-28.7716
-33.3271
-39.158
-45.878
-52.8682
-59.2548
-62.9736
-58.9556
-42.5597
-14.0594
35.1055
102.008
184.004
275.295
368.983
459.34
542.205
612.937
670.206
712.427
742.174
761.3
766.323
771.285
766.071
759.872
734.639
694.49
645.121
594.283
541.808
482.152
411.649
328.432
232.212
123.95
4.82304
-124.181
-262.785
-411.363
-569.694
-732.549
-877.447
-954.054
-946.194
-901.236
-829.465
-743.027
-647.955
-551.983
-463.189
-383.975
-313.518
-249.936
-191.055
-135.562
-83.0843
-33.8133
11.7265
53.0823
90.045
122.615
150.971
175.403
196.25
213.872
228.621
240.821
250.756
258.61
264.411
268.145
269.889
269.743
267.814
264.207
259.006
252.246
243.888
233.87
222.105
208.563
193.081
175.757
155.936
134.588
108.395
84.2118
43.6387
31.8471
-19.898
-22.5174
-23.4166
-23.8728
-23.9073
-23.7555
-23.4321
-23.2153
-23.7361
-25.4657
-28.6182
-33.2665
-39.2832
-46.3102
-53.7531
-60.8202
-65.5819
-62.6725
-46.9932
-19.4043
29.7381
96.7959
178.943
270.549
364.497
455.099
538.283
609.159
666.538
709.078
739.17
758.242
762.816
767.705
758.817
752.372
727.957
689.314
639.324
589.712
537.665
478.043
406.986
322.698
225.065
115.278
-5.33482
-135.698
-275.54
-425.354
-585.223
-750.507
-899.139
-977.462
-966.763
-919.476
-845.281
-757.101
-660.643
-563.474
-473.831
-393.802
-322.414
-257.859
-198.01
-141.627
-88.3811
-38.4659
7.57673
49.2949
86.4942
119.194
147.603
172.036
192.857
210.447
225.173
237.375
247.333
255.185
260.934
264.624
266.349
266.208
264.309
260.751
255.605
248.893
240.573
230.585
218.85
205.351
189.942
172.75
153.122
132.087
106.234
82.6311
42.424
31.6663
-19.8717
-22.4401
-23.3057
-23.7295
-23.7529
-23.6043
-23.2817
-23.0417
-23.5403
-25.2695
-28.4566
-33.2062
-39.4273
-46.7963
-54.7466
-62.5698
-68.4993
-66.8575
-51.9419
-25.2933
23.8606
91.1764
173.509
265.483
359.726
450.606
534.138
605.176
662.671
705.481
735.824
754.735
758.972
763.523
751.366
744.486
720.539
683.414
633.841
584.461
533.412
473.658
401.872
316.363
217.161
105.716
-16.4842
-148.268
-289.345
-440.281
-601.409
-768.733
-921.069
-1001.68
-988.244
-938.531
-861.658
-771.586
-673.688
-575.308
-484.851
-404.031
-331.716
-266.182
-205.335
-148.03
-93.9874
-43.4122
3.13869
45.2186
82.6521
115.481
143.941
168.377
189.177
206.74
221.45
233.662
243.63
251.441
257.125
260.771
262.476
262.339
260.469
256.962
251.876
245.22
236.947
226.997
215.3
201.856
186.538
169.505
150.111
129.434
103.989
81.0067
41.2538
31.4798
-19.8374
-22.3507
-23.1778
-23.565
-23.5758
-23.4327
-23.1153
-22.8541
-23.3315
-25.0625
-28.2873
-33.1466
-39.5909
-47.3378
-55.8527
-64.5106
-71.7369
-71.5359
-57.4236
-31.7178
17.4709
85.1619
167.718
260.116
354.689
445.878
529.79
601.015
658.633
701.657
732.139
750.769
754.763
758.78
743.871
736.338
712.659
676.588
628.817
578.481
529.112
469.02
396.303
309.428
208.51
95.2864
-28.5855
-161.831
-304.123
-456.05
-618.141
-787.081
-943.018
-1026.53
-1010.54
-958.299
-878.489
-786.371
-686.993
-587.393
-496.162
-414.584
-341.36
-274.852
-212.99
-154.737
-99.8801
-48.6362
-1.57743
40.8596
78.5225
111.477
139.989
164.432
185.216
202.758
217.46
229.68
239.627
247.37
252.989
256.592
258.275
258.141
256.302
252.849
247.828
241.235
233.015
223.11
211.46
198.082
182.874
166.029
146.911
126.64
101.675
79.3488
40.1482
31.283
-19.7946
-22.2482
-23.0319
-23.3775
-23.3742
-23.2391
-22.9323
-22.6522
-23.1099
-24.8451
-28.1107
-33.0882
-39.7745
-47.9358
-57.0752
-66.6494
-75.3049
-76.7318
-63.4558
-38.6617
10.5846
78.7667
161.588
254.468
349.403
440.935
525.255
596.696
654.446
697.627
728.121
746.336
750.156
753.431
736.448
728.046
704.506
669.084
623.524
572.62
524.228
464.152
390.277
301.887
199.123
84.0159
-41.5931
-176.322
-319.79
-472.566
-635.319
-805.419
-964.744
-1051.79
-1033.56
-978.691
-895.668
-801.345
-700.46
-599.646
-507.689
-425.392
-351.285
-283.822
-220.937
-161.719
-106.036
-54.1205
-6.55884
36.2276
74.1135
107.191
135.756
160.209
180.982
198.509
213.21
225.422
235.313
242.976
248.535
252.095
253.755
253.625
251.818
248.421
243.472
236.949
228.788
218.934
207.336
194.035
178.956
162.324
143.528
123.712
99.3045
77.663
39.124
31.0664
-19.739
-22.1336
-22.8668
-23.1656
-23.1462
-23.022
-22.732
-22.4358
-22.8754
-24.6175
-27.927
-33.0308
-39.9783
-48.5913
-58.4175
-68.9929
-79.2119
-82.467
-70.0544
-46.101
3.22916
72.0085
155.139
248.56
343.885
435.792
520.548
592.235
650.131
693.407
723.783
741.434
745.078
747.355
729.115
719.737
696.211
661.207
617.404
567.359
518.173
459.11
383.801
293.726
189.01
71.9326
-55.4582
-191.671
-336.258
-489.732
-652.847
-823.621
-985.987
-1077.21
-1057.17
-999.607
-913.085
-816.392
-713.996
-611.989
-519.366
-436.398
-361.443
-293.048
-229.137
-168.942
-112.428
-59.845
-11.7894
31.3362
69.4373
102.634
131.253
155.72
176.486
194.003
208.699
220.876
230.686
238.273
243.773
247.291
248.929
248.803
247.03
243.694
238.82
232.373
224.277
214.477
202.935
189.72
174.786
158.397
139.969
120.655
96.8887
75.9503
38.1958
30.8095
-19.694
-22.0049
-22.6817
-22.9276
-22.89
-22.7798
-22.5137
-22.2046
-22.628
-24.3802
-27.7362
-32.9747
-40.2026
-49.3051
-59.8826
-71.5476
-83.4647
-88.7584
-77.2317
-53.9961
-4.56427
64.9077
148.394
242.411
338.152
430.461
515.677
587.642
645.715
689.028
719.14
736.061
739.443
740.464
721.703
711.493
687.885
653.168
610.47
562.116
511.337
453.657
376.865
284.92
178.176
59.0657
-70.1304
-207.807
-353.439
-507.451
-670.631
-841.576
-1006.5
-1102.49
-1081.21
-1020.92
-930.62
-831.398
-727.513
-624.35
-531.134
-447.551
-371.789
-302.49
-237.552
-176.375
-119.03
-65.7863
-17.2492
26.2032
64.511
97.823
126.496
150.979
171.74
189.251
203.928
216.038
225.76
233.275
238.718
242.194
243.81
243.689
241.952
238.681
233.889
227.522
219.493
209.747
198.264
185.14
170.369
154.251
136.239
117.478
94.4411
74.2069
37.3789
30.4622
-19.6432
-21.8625
-22.4758
-22.6622
-22.6037
-22.5108
-22.2765
-21.9583
-22.3676
-24.1334
-27.5384
-32.9196
-40.4473
-50.0777
-61.4731
-74.3198
-88.0677
-95.6159
-84.9941
-62.2858
-12.7542
57.4879
141.374
236.041
332.215
424.953
510.649
582.927
641.222
684.513
714.205
730.224
733.2
732.727
714.068
703.378
679.625
645.087
603.001
556.152
504.479
447.065
369.443
275.445
166.625
45.4443
-85.5586
-224.658
-371.243
-525.628
-688.582
-859.186
-1026.05
-1127.33
-1105.5
-1042.51
-948.161
-846.255
-740.927
-636.663
-542.944
-458.811
-382.282
-312.107
-246.143
-183.98
-125.81
-71.9178
-22.9144
20.8508
59.3553
92.7772
121.502
146.001
166.759
184.259
198.893
210.916
220.553
227.999
233.387
236.822
238.417
238.301
236.602
233.4
228.693
222.409
214.445
204.751
193.326
180.3
165.709
149.893
132.352
114.194
91.9765
72.4223
36.6945
29.9189
-19.5847
-21.7065
-22.2483
-22.3681
-22.2857
-22.2134
-22.0197
-21.6964
-22.0941
-23.8772
-27.3336
-32.8654
-40.7123
-50.9093
-63.191
-77.3153
-93.0227
-103.039
-93.3452
-70.9043
-21.3024
49.7782
134.1
229.467
326.086
419.275
505.464
578.092
636.655
679.87
708.996
723.94
726.336
724.207
706.27
695.454
671.521
637.046
595.241
549.127
497.617
438.907
361.524
265.288
154.357
31.0978
-101.692
-242.151
-389.582
-544.169
-706.615
-876.37
-1044.44
-1151.4
-1129.82
-1064.21
-965.592
-860.857
-754.16
-648.867
-554.75
-470.141
-392.888
-321.861
-254.868
-191.721
-132.735
-78.21
-28.7576
15.305
53.995
87.52
116.293
140.806
161.559
179.034
193.598
205.527
215.084
222.463
227.798
231.193
232.767
232.656
230.998
227.868
223.249
217.046
209.144
199.496
188.126
175.204
160.815
145.338
128.325
110.82
89.5091
70.5768
36.1751
28.9964
-19.5198
-21.5368
-21.9987
-22.0442
-21.9343
-21.8861
-21.7424
-21.4184
-21.8071
-23.612
-27.1217
-32.8118
-40.9975
-51.7999
-65.0378
-80.5392
-98.328
-111.015
-102.289
-79.7945
-30.175
41.8033
126.593
222.705
319.775
413.431
500.123
573.136
632.013
675.114
703.535
717.245
718.905
715.036
698.476
687.798
663.66
629.117
587.347
541.24
490.329
429.561
352.901
254.441
141.366
16.0564
-118.48
-260.216
-408.372
-562.984
-724.648
-893.062
-1061.52
-1174.37
-1153.95
-1085.87
-982.79
-875.097
-767.141
-660.909
-566.513
-481.508
-403.572
-331.71
-263.686
-199.558
-139.769
-84.63
-34.7479
9.59518
48.458
82.0771
110.892
135.413
156.154
173.584
188.059
199.896
209.374
216.689
221.972
225.327
226.879
226.775
225.158
222.102
217.57
211.445
203.596
193.986
182.669
169.86
155.699
140.606
124.183
107.376
87.0443
68.6418
35.8647
27.4469
-19.4448
-21.3544
-21.7265
-21.6895
-21.548
-21.5272
-21.4437
-21.1237
-21.5063
-23.338
-26.9025
-32.7582
-41.3024
-52.7494
-67.0143
-83.9961
-103.98
-119.519
-111.832
-88.901
-39.3339
33.5821
118.874
215.772
313.292
407.429
494.624
568.061
627.298
670.26
697.843
710.204
711.037
705.532
690.836
680.489
656.137
621.366
579.416
532.787
482.163
419.635
343.134
242.899
127.648
0.351747
-135.87
-278.785
-427.529
-581.985
-742.604
-909.21
-1077.17
-1195.87
-1177.59
-1107.28
-999.604
-888.858
-779.798
-672.742
-578.202
-492.881
-414.298
-341.611
-272.551
-207.449
-146.876
-91.1427
-40.8517
3.75361
42.7748
76.4765
105.324
129.845
150.56
167.922
182.299
194.045
203.445
210.696
215.927
219.243
220.773
220.676
219.103
216.12
211.67
205.613
197.806
188.226
176.962
164.282
150.386
135.73
119.957
103.88
84.5697
66.5866
35.8101
25.0384
-19.3798
-21.1586
-21.4315
-21.303
-21.1256
-21.1352
-21.1226
-20.8116
-21.1911
-23.0554
-26.6759
-32.7042
-41.6264
-53.7575
-69.121
-87.6895
-109.971
-128.513
-121.975
-98.1562
-48.7535
25.1331
110.959
208.682
306.647
401.277
488.973
562.886
622.521
665.317
691.95
702.913
702.973
696.22
683.467
673.609
649.043
613.857
571.51
524.023
472.945
409.381
331.852
230.678
113.209
-15.9827
-153.809
-297.788
-446.972
-601.087
-760.411
-924.776
-1091.31
-1215.52
-1200.46
-1128.25
-1015.86
-902.013
-792.063
-684.329
-589.787
-504.229
-425.031
-351.52
-281.417
-215.353
-154.015
-97.711
-47.0332
-2.18513
36.978
70.7482
99.6147
124.124
144.793
162.067
176.344
187.996
197.317
204.505
209.684
212.961
214.469
214.38
212.849
209.934
205.558
199.555
191.777
182.219
171.015
158.49
144.906
130.748
115.677
100.343
82.0456
64.3949
36.0359
21.7277
-19.3121
-20.9502
-21.1136
-20.8843
-20.6657
-20.7087
-20.7781
-20.4807
-20.8609
-22.7646
-26.4417
-32.6492
-41.969
-54.8237
-71.3576
-91.6221
-116.294
-137.945
-132.717
-107.519
-58.4082
16.4671
102.86
201.449
299.853
394.986
483.185
557.626
617.687
660.292
685.899
695.515
695.033
687.518
676.558
667.254
642.447
606.646
563.681
515.125
462.87
398.761
319.139
217.771
98.0736
-32.9118
-172.243
-317.159
-466.624
-620.209
-778.003
-939.734
-1103.91
-1232.99
-1222.29
-1148.58
-1031.41
-914.455
-803.868
-695.638
-601.246
-515.52
-435.731
-361.387
-290.237
-223.226
-161.147
-104.297
-53.2546
-8.18478
31.1016
64.9236
93.7938
118.275
138.878
156.049
170.219
181.772
191.01
198.134
203.262
206.499
207.987
207.906
206.412
203.557
199.239
193.274
185.512
175.974
164.844
152.513
139.3
125.705
111.363
96.7561
79.4062
62.0852
36.4943
17.926
-19.2405
-20.7299
-20.7728
-20.4329
-20.1674
-20.246
-20.4089
-20.1296
-20.5147
-22.4659
-26.1998
-32.5925
-42.3293
-55.9476
-73.7236
-95.7954
-122.937
-147.752
-144.024
-117.102
-68.2765
7.58815
94.5848
194.086
292.925
388.573
477.276
552.29
612.803
655.204
679.75
688.194
687.563
679.642
670.405
661.505
636.383
599.771
555.978
506.204
452.245
387.593
305.451
204.085
82.279
-50.398
-191.114
-336.83
-486.407
-639.272
-795.315
-954.075
-1114.99
-1248.02
-1242.86
-1168.12
-1046.11
-926.122
-815.154
-706.633
-612.553
-526.725
-446.352
-371.163
-298.964
-231.024
-168.23
-110.86
-59.4775
-14.208
25.1812
59.0353
87.8921
112.324
132.836
149.896
163.948
175.393
184.544
191.601
196.679
199.88
201.349
201.273
199.808
196.995
192.716
186.771
179.016
169.503
158.477
146.393
133.619
120.641
107.024
93.0924
76.5738
59.7226
36.9777
14.7452
-19.1671
-20.4984
-20.4092
-19.9485
-19.6298
-19.7458
-20.0136
-19.7571
-20.1523
-22.1596
-25.9501
-32.5334
-42.7063
-57.1286
-76.2183
-100.209
-129.886
-157.871
-155.836
-127.112
-78.3877
-1.50567
86.1383
186.606
285.878
382.058
471.266
546.901
607.889
650.078
673.589
681.181
680.915
672.794
665.307
656.387
630.853
593.259
548.445
497.331
441.341
375.742
291.223
189.472
65.874
-68.3989
-210.363
-356.734
-506.25
-658.201
-812.287
-967.798
-1124.68
-1260.51
-1261.99
-1186.76
-1059.86
-936.981
-825.877
-717.275
-623.682
-537.812
-456.849
-380.793
-307.551
-238.705
-175.225
-117.361
-65.6627
-20.2168
19.2527
53.1174
81.9406
106.3
126.703
143.633
157.552
168.878
177.937
184.926
189.955
193.123
194.574
194.496
193.046
190.252
185.988
180.049
172.299
162.832
151.952
140.181
127.913
115.585
102.647
89.3061
73.4911
57.3987
37.0325
13.7179
-19.0905
-20.2569
-20.0232
-19.4311
-19.0525
-19.2068
-19.5904
-19.3632
-19.7742
-21.8446
-25.6925
-32.4709
-43.0989
-58.3659
-78.8406
-104.863
-137.129
-168.258
-168.155
-137.658
-88.8062
-10.8205
77.5264
179.026
278.735
375.468
465.184
541.48
602.97
644.953
667.531
674.742
675.407
667.199
661.506
651.855
625.84
587.126
541.123
488.552
430.363
363.24
276.735
173.81
48.93
-86.8639
-229.925
-376.805
-526.08
-676.923
-828.859
-980.908
-1133.12
-1270.49
-1279.59
-1204.37
-1072.48
-946.981
-836.008
-727.534
-634.604
-548.747
-467.169
-390.222
-315.95
-246.226
-182.09
-123.762
-71.7716
-26.1733
13.3528
47.2069
75.9724
100.233
120.506
137.287
151.054
162.247
171.206
178.127
183.111
186.248
187.68
187.59
186.13
183.328
179.057
173.115
165.383
155.998
145.322
133.938
122.232
110.553
98.2029
85.3479
70.1574
55.1447
36.0772
15.338
-19.0224
-20.0058
-19.6152
-18.8807
-18.435
-18.6282
-19.1372
-18.9484
-19.3807
-21.5188
-25.4269
-32.4042
-43.5055
-59.6585
-81.5894
-109.754
-144.653
-178.894
-181.042
-148.742
-99.5954
-20.3612
68.7601
171.367
271.522
368.831
459.059
536.054
598.082
639.885
661.725
669.147
671.232
663.031
659.199
647.852
621.312
581.376
534.041
479.906
419.458
350.272
262.127
157.179
31.532
-105.732
-249.736
-396.975
-545.831
-695.369
-844.973
-993.406
-1140.52
-1278.14
-1295.55
-1220.7
-1083.69
-956.027
-845.523
-737.397
-645.292
-559.495
-477.258
-399.396
-324.114
-253.545
-188.787
-130.022
-77.7663
-32.0392
7.51904
41.3401
70.0222
94.1582
114.277
130.882
144.474
155.519
164.37
171.222
176.165
179.274
180.68
180.559
179.062
176.224
171.93
165.993
158.308
149.056
138.656
127.73
116.614
105.541
93.6494
81.1958
66.6232
52.8229
33.9019
17.7902
-18.9574
-19.746
-19.1855
-18.2977
-17.7774
-18.009
-18.6522
-18.513
-18.9718
-21.1797
-25.1535
-32.3321
-43.9242
-61.0049
-84.4634
-114.878
-152.446
-189.772
-194.547
-160.364
-110.799
-30.1301
59.8577
163.653
264.269
362.181
452.935
530.661
593.273
634.947
656.335
664.617
668.389
660.293
658.372
644.312
617.215
575.999
527.219
471.422
408.72
337.069
247.409
139.872
13.7353
-124.932
-269.731
-417.179
-565.437
-713.475
-860.569
-1005.28
-1147.06
-1283.75
-1309.62
-1235.16
-1093.08
-964.03
-854.399
-746.869
-655.716
-570.013
-487.062
-408.261
-331.998
-260.622
-195.277
-136.107
-83.6092
-37.7772
1.79038
35.5547
64.1246
88.1092
108.042
124.441
137.832
148.711
157.446
164.23
169.133
172.214
173.583
173.407
171.842
168.945
164.627
158.718
151.131
142.081
132.032
121.616
111.079
100.527
88.9538
76.8882
62.9431
50.2671
31.0348
18.758
-18.896
-19.4787
-18.7349
-17.6824
-17.0797
-17.3489
-18.1329
-18.0566
-18.5469
-20.8255
-24.8725
-32.2537
-44.353
-62.4033
-87.4609
-120.233
-160.498
-200.878
-208.658
-172.539
-122.432
-40.1282
50.8401
155.914
257.013
355.555
446.864
525.347
588.595
630.223
651.526
661.275
666.684
658.797
658.897
641.077
613.431
570.959
520.665
463.13
398.208
323.833
232.545
122.216
-4.43032
-144.385
-289.842
-437.349
-584.837
-731.181
-875.585
-1016.5
-1152.89
-1287.51
-1321.3
-1246.67
-1100.18
-970.971
-862.623
-755.951
-665.847
-580.251
-496.524
-416.765
-339.557
-267.42
-201.525
-141.98
-89.2635
-43.3509
-3.79452
29.8878
58.3169
82.1171
101.828
117.987
131.149
141.842
150.452
157.165
162.03
165.077
166.392
166.134
164.476
161.509
157.182
151.348
143.926
135.154
125.521
115.635
105.623
95.4807
84.1322
72.5348
59.242
47.6233
28.2175
17.9131
-18.8398
-19.2053
-18.264
-17.0354
-16.3423
-16.6475
-17.5771
-17.5786
-18.1048
-20.4537
-24.5844
-32.1676
-44.7894
-63.8513
-90.58
-125.813
-168.798
-212.202
-223.342
-185.269
-134.496
-50.3607
41.7223
148.17
249.783
348.991
440.892
520.155
584.105
625.799
647.438
659.113
665.81
658.275
660.443
637.879
609.748
566.188
514.376
455.051
387.956
310.724
217.552
104.486
-22.9441
-164.006
-310.004
-457.422
-603.974
-748.435
-889.964
-1027.01
-1158.02
-1289.03
-1329.96
-1254.07
-1104.63
-976.906
-870.198
-764.64
-675.654
-590.153
-505.584
-424.86
-346.75
-273.903
-207.499
-147.606
-94.6955
-48.7233
-9.19636
24.3764
52.6339
76.211
95.6612
111.543
124.445
134.929
143.402
150.04
154.863
157.864
159.104
158.74
156.973
153.943
149.646
143.951
136.771
128.348
119.171
109.791
100.226
90.3987
79.2919
68.33
55.8221
45.1545
25.761
16.2352
-18.7893
-18.9271
-17.7736
-16.3575
-15.5659
-15.905
-16.9821
-17.0785
-17.6441
-20.0619
-24.2899
-32.0728
-45.2306
-65.3459
-93.8177
-131.612
-177.342
-223.736
-238.59
-198.555
-146.983
-60.844
32.5026
140.429
242.601
342.516
435.055
515.133
579.863
621.748
644.165
657.995
665.453
658.504
662.282
634.657
605.957
561.588
508.333
447.202
377.989
297.862
202.508
86.907
-41.7676
-183.707
-330.147
-477.334
-622.793
-765.19
-903.653
-1036.72
-1162.4
-1287.72
-1335.04
-1257.26
-1106.27
-981.906
-877.141
-772.92
-685.101
-599.655
-514.182
-432.499
-353.537
-280.038
-213.166
-152.953
-99.8741
-53.8564
-14.3774
19.0585
47.1071
70.419
89.5656
105.13
117.738
127.988
136.308
142.862
147.633
150.575
151.719
151.231
149.357
146.293
142.081
136.6
129.734
121.708
112.989
104.063
94.8778
85.345
74.6436
64.5336
52.9324
42.8934
23.7266
14.5646
-18.7478
-18.6451
-17.2643
-15.6493
-14.7512
-15.1216
-16.3448
-16.5555
-17.163
-19.647
-23.9901
-31.968
-45.6736
-66.8833
-97.17
-137.622
-186.125
-235.466
-254.408
-212.443
-159.889
-71.6087
23.1562
132.675
235.47
336.148
429.39
510.336
575.92
618.115
641.752
657.676
665.381
659.303
663.818
631.792
601.962
557.05
502.501
439.59
368.325
285.331
187.542
69.637
-60.7982
-203.398
-350.202
-497.023
-641.246
-781.407
-916.61
-1045.55
-1165.94
-1283.64
-1336.3
-1256.7
-1105.2
-986.011
-883.473
-780.773
-694.144
-608.687
-522.253
-439.636
-359.886
-285.795
-218.494
-157.994
-104.765
-58.7086
-19.3002
13.9674
41.7656
64.7669
83.5648
98.7701
111.046
121.032
129.177
135.633
140.339
143.204
144.237
143.622
141.662
138.609
134.548
129.349
122.848
115.238
106.951
98.4349
89.6206
80.4775
70.4523
61.3388
50.5513
40.841
22.0758
13.248
-18.7162
-18.3604
-16.7372
-14.9118
-13.8994
-14.2979
-15.6619
-16.0089
-16.6594
-19.2058
-23.6867
-31.852
-46.115
-68.4594
-100.632
-143.834
-195.147
-247.38
-270.789
-226.99
-173.212
-82.6944
13.6392
124.874
228.384
329.898
423.919
505.803
572.303
614.914
640.195
657.861
665.475
660.516
664.625
629.661
597.726
552.47
496.832
432.216
358.977
273.191
172.785
52.7384
-79.8554
-222.99
-370.099
-516.431
-659.287
-797.055
-928.808
-1053.42
-1168.55
-1277.32
-1333.59
-1253.02
-1101.73
-989.228
-889.218
-788.175
-702.73
-617.176
-529.73
-446.229
-365.766
-291.14
-223.455
-162.705
-109.331
-63.2403
-23.9262
9.1337
36.6359
59.2787
77.6808
92.4822
104.385
114.07
122.013
128.352
132.977
135.75
136.664
135.936
133.928
130.944
127.095
122.227
116.116
108.917
101.04
92.9391
84.5723
76.0201
66.9182
58.7515
48.5463
39.0131
20.6529
12.3194
-18.6962
-18.0745
-16.1932
-14.1459
-13.0115
-13.4348
-14.9298
-15.4378
-16.1309
-18.7345
-23.382
-31.7237
-46.5516
-70.0691
-104.196
-150.237
-204.414
-259.475
-287.7
-242.222
-186.936
-94.137
3.90064
116.972
221.325
323.768
418.65
501.561
569.009
612.139
639.423
658.296
665.691
661.962
664.144
628.353
593.235
547.776
491.27
425.074
349.963
261.484
158.355
36.2322
-98.7491
-242.405
-389.768
-535.506
-676.875
-812.112
-940.238
-1060.29
-1170.12
-1269.4
-1326.91
-1247.71
-1096.45
-991.552
-894.412
-795.104
-710.794
-625.045
-536.552
-452.234
-371.142
-296.044
-228.03
-167.053
-113.528
-67.4136
-28.2253
4.58414
31.7421
53.9759
71.9327
86.2831
97.7668
107.11
114.818
121.015
125.543
128.214
129.013
128.201
126.199
123.342
119.752
115.24
109.525
102.733
95.2827
87.6742
79.9049
72.1595
64.0552
56.6226
46.7807
37.3518
19.3433
11.726
-18.6883
-17.7888
-15.6331
-13.3529
-12.0892
-12.5335
-14.145
-14.8416
-15.5752
-18.229
-23.0792
-31.5821
-46.98
-71.7074
-107.856
-156.816
-213.933
-271.762
-305.086
-258.131
-201.005
-105.949
-6.1007
108.912
214.257
317.741
413.592
497.623
565.997
609.785
639.283
658.838
666.013
663.385
661.312
627.478
588.383
542.954
485.769
418.157
341.298
250.243
144.355
20.1501
-117.314
-261.579
-409.144
-554.199
-693.975
-826.558
-950.907
-1066.15
-1170.51
-1260.38
-1316.41
-1240.81
-1090.19
-992.98
-899.088
-801.533
-718.259
-632.223
-542.661
-457.604
-375.982
-300.489
-232.2
-170.996
-117.309
-71.1904
-32.1685
0.343085
27.1048
48.8767
66.3368
80.1861
91.2014
100.155
107.59
113.621
118.036
120.602
121.305
120.452
118.511
115.83
112.528
108.383
103.072
96.7105
89.7583
82.771
75.7559
68.9181
61.6825
54.7458
45.1129
35.7966