/*--------------------------------*- C++ -*----------------------------------*\
| =========                 |                                                 |
| \\      /  F ield         | OpenFOAM: The Open Source CFD Toolbox           |
|  \\    /   O peration     | Version:  4.1                                   |
|   \\  /    A nd           | Web:      www.OpenFOAM.org                      |
|    \\/     M anipulation  |                                                 |
\*---------------------------------------------------------------------------*/
FoamFile
{
    version     2.0;
    format      ascii;
    class       surfaceScalarField;
    location    "800";
    object      phi;
}
// * * * * * * * * * * * * * * * * * * * * * * * * * * * * * * * * * * * * * //

dimensions      [0 3 -1 0 0 0 0];

internalField   nonuniform List<scalar> 
52920
(
-2733.74
117.67
-2831.95
98.2135
-2917.69
85.7515
-2989.47
71.7896
-3048.45
59.0029
-3095.98
47.5496
-3135.49
39.5258
-3174.01
38.5302
-3221.99
47.9942
-3290.38
68.4042
-3388.7
98.3418
-3524.66
135.966
-3703.7
179.064
-3928.31
224.622
-4195.95
267.656
-4495.19
299.249
-4800.17
304.991
-5069.94
269.786
-5263.59
193.663
-5363.87
100.291
-5358.62
-5.24286
-5246.33
-112.271
-5026.98
-219.346
-4712.25
-314.715
-4319.52
-392.719
-3865.9
-453.612
-3365.61
-500.271
-2855.97
-509.626
-2403.13
-452.816
-1681.44
-721.658
-568.424
-1112.98
329.524
-897.905
455.614
-126.04
-598.108
1053.76
-1946.72
1348.64
-3175.06
1228.36
-4272.37
1097.32
-5340.09
1067.74
-6367.68
1027.6
-7373.85
1006.18
-8386.22
1012.37
-9439.71
1053.51
-10558.7
1118.95
-11754
1195.31
-13027.3
1273.38
-14374.4
1347.07
-15788.5
1414.09
-17261.8
1473.29
-18783.3
1521.52
-20331.3
1548.01
-21857.1
1525.78
-23260.2
1403.15
-24368.4
1108.22
-24976.7
608.272
-24997.5
20.8419
-24536.5
-461.095
-23719.4
-817.089
-22636.8
-1082.57
-21374.9
-1261.88
-20029.7
-1345.26
-18698.9
-1330.77
-17455.1
-1243.74
-16328.5
-1126.63
-15311.3
-1017.24
-14374
-937.303
-13483.8
-890.231
-12616.4
-867.304
-11758.9
-857.511
-10906.3
-852.681
-10058
-848.217
-9215.82
-842.223
-8381.64
-834.174
-7557.47
-824.176
-6744.73
-812.739
-5944.08
-800.649
-5155.26
-788.824
-4377.14
-778.118
-3608.03
-769.116
-2846.09
-761.938
-2090.76
-755.331
-1344.48
-746.276
-604.968
-739.515
152.353
-757.32
894.659
-742.306
1604.17
-709.514
2307.99
-703.82
3021.72
-713.723
3751.72
-730.003
4505.25
-753.53
5287.06
-781.813
6098.64
-811.579
6941.29
-842.649
7816.54
-875.243
8729.68
-913.143
9683.14
-953.459
10690.5
-1007.37
11746.2
-1055.73
12893
-1146.75
14071.2
-1178.19
-1403.77
-2707.62
233.727
-2804.01
194.606
-2886.84
168.597
-2954.78
139.743
-3008.97
113.21
-3050.94
89.5353
-3084.55
73.1521
-3117.35
71.3462
-3160.11
90.7685
-3223.67
131.976
-3317.2
191.896
-3448.19
266.969
-3622.23
353.123
-3842.36
444.759
-4106.98
532.294
-4405.8
598.076
-4713.8
613.003
-4989.94
545.939
-5192.03
395.764
-5299.14
207.415
-5294.43
-9.93252
-5177.37
-229.322
-4947.48
-449.228
-4612.18
-650.006
-4183.91
-820.974
-3677.99
-959.52
-3111.97
-1066.28
-2503.79
-1117.79
-1799.85
-1156.74
-1020.51
-1500.98
-280.214
-1853.24
325.086
-1503.17
588.282
-389.185
-148.964
1791.03
-1574.45
2774.14
-2889.9
2543.83
-3970.63
2178.07
-5030.97
2128.09
-6049.18
2045.82
-7041.36
1998.37
-8042.96
2013.98
-9089
2099.55
-10204.4
2234.33
-11400.1
2391.02
-12677.8
2551.13
-14033.7
2702.97
-15462
2842.41
-16956.4
2967.68
-18507.8
3072.89
-20096.3
3136.52
-21673.9
3103.34
-23136.6
2865.88
-24302.2
2273.82
-24952.9
1259
-25001.2
69.1317
-24567.6
-894.681
-23778.2
-1606.47
-22711.3
-2149.49
-21446.2
-2527.01
-20080.4
-2710.99
-18718.5
-2692.74
-17441.9
-2520.34
-16288.8
-2279.7
-15255
-2050.99
-14310.3
-1882.04
-13419.1
-1781.44
-12555
-1731.34
-11703.7
-1708.88
-10859
-1697.35
-10019.6
-1687.58
-9186.04
-1675.82
-8359.26
-1660.96
-7540.47
-1642.97
-6730.7
-1622.5
-5930.65
-1600.7
-5140.48
-1579
-4359.77
-1558.83
-3587.6
-1541.29
-2822.52
-1527.01
-2062.44
-1515.42
-1303.95
-1504.77
-547.302
-1496.17
189.917
-1494.54
909.527
-1461.92
1618.12
-1418.11
2327.32
-1413.01
3049.89
-1436.29
3792.32
-1472.44
4556.29
-1517.5
5343.19
-1568.71
6155.12
-1623.51
6995.19
-1682.72
7866.58
-1746.62
8774.69
-1821.26
9723.49
-1902.26
10724.3
-2008.14
11776.5
-2107.96
12911.1
-2281.33
14088.8
-2355.93
-2776.2
-2677.71
346.666
-2773.36
290.262
-2853.78
249.028
-2918.34
204.311
-2967.83
162.723
-3003.86
125.581
-3030.6
99.907
-3056.18
96.9395
-3091.98
126.582
-3149.2
189.215
-3237.18
279.891
-3363.54
393.342
-3534.21
523.806
-3752.79
663.352
-4018.56
798.074
-4322.16
901.697
-4639
929.852
-4926.77
833.718
-5140.39
609.392
-5255.14
322.176
-5250.62
-14.4333
-5129.51
-350.425
-4892.24
-686.49
-4544.48
-997.753
-4097.12
-1268.32
-3562.77
-1493.86
-2955.59
-1673.44
-2288.09
-1785.28
-1533.63
-1911.18
-760.747
-2273.85
-63.3781
-2550.59
470.606
-2037.12
758.941
-677.476
316.502
2233.49
-977.665
4068.32
-2430.31
3996.48
-3555.33
3303.1
-4605.31
3178.08
-5613.61
3054.13
-6587.43
2972.2
-7572.64
2999.2
-8606.95
3133.87
-9715.64
3343.03
-10909.8
3585.19
-12190.6
3831.96
-13553.9
4066.27
-14994.1
4282.55
-16505.2
4478.85
-18079.3
4646.95
-19697.1
4754.31
-21308.5
4714.75
-22800
4357.41
-23968.3
3442.11
-24573.8
1864.45
-24542.2
37.5618
-24041.4
-1395.49
-23210.4
-2437.45
-22117.1
-3242.82
-20832.8
-3811.32
-19451.9
-4091.91
-18079.5
-4065.06
-16802
-3797.84
-15662.5
-3419.2
-14658.1
-3055.45
-13754.8
-2785.32
-12911.6
-2624.7
-12097.2
-2545.72
-11294.2
-2511.87
-10494.9
-2496.69
-9696.58
-2485.85
-8899
-2473.4
-8102.73
-2457.23
-7308.91
-2436.79
-6518.91
-2412.51
-5734.04
-2385.57
-4955.27
-2357.77
-4183.03
-2331.06
-3417.19
-2307.14
-2656.98
-2287.22
-1901.01
-2271.39
-1147.82
-2257.96
-401.693
-2242.29
321.359
-2217.59
1028.02
-2168.57
1734.82
-2124.91
2449.49
-2127.69
3178.33
-2165.13
3926.04
-2220.16
4694.6
-2286.05
5485.73
-2359.85
6301.66
-2439.44
7145.22
-2526.28
8019.58
-2620.98
8929.64
-2731.32
9880.09
-2852.71
10880.1
-3008.16
11932.6
-3160.42
13059.6
-3408.35
14237.1
-3533.46
-4122.7
-2650.84
458.491
-2746.92
386.347
-2826.39
328.51
-2889.03
266.954
-2935.16
208.879
-2966.29
156.729
-2986.79
120.415
-3005.35
115.517
-3034.12
155.368
-3084.9
240.014
-3167.44
362.449
-3289.75
515.668
-3458.15
692.219
-3676.6
881.817
-3944.75
1066.24
-4253.7
1210.65
-4578.87
1255.04
-4876.63
1131.5
-5099.16
831.934
-5219.14
442.164
-5213.26
-20.303
-5087.82
-475.847
-4844.26
-930.04
-4487.37
-1354.63
-4027.84
-1727.84
-3476.97
-2044.73
-2847.07
-2303.34
-2150.46
-2481.88
-1379.62
-2682.01
-607.523
-3045.93
92.0643
-3250.16
600.583
-2545.62
929.925
-1006.77
734.412
2429.02
-322.449
5125.2
-1853.28
5527.33
-3101.46
4551.29
-4147.48
4224.11
-5143.57
4050.23
-6096.45
3925.09
-7059.69
3962.45
-8077.65
4151.84
-9175.57
4440.97
-10364.1
4773.72
-11643.4
5111.28
-13008.3
5431.13
-14452.5
5726.76
-15970.4
5996.8
-17554.9
6231.47
-19187.6
6387.03
-20815.5
6342.61
-22311.2
5853.11
-23443.1
4574
-23949.9
2371.24
-23795.2
-117.109
-23221.1
-1969.57
-22375
-3283.55
-21299.8
-4318.04
-20048.1
-5062.94
-18704.6
-5435.43
-17370.4
-5399.32
-16132.6
-5035.56
-15037.9
-4513.96
-14084.3
-4009.08
-13235.1
-3634.47
-12444.4
-3415.4
-11677.3
-3312.87
-10914.7
-3274.44
-10149
-3262.39
-9378.21
-3256.63
-8602.67
-3248.94
-7823.69
-3236.22
-7043.15
-3217.33
-6263.23
-3192.43
-5485.98
-3162.82
-4713.09
-3130.66
-3945.66
-3098.49
-3184.2
-3068.6
-2428.72
-3042.7
-1678.82
-3021.3
-935.084
-3001.69
-205.533
-2971.84
502.011
-2925.14
1201.98
-2868.54
1909.98
-2832.91
2629.57
-2847.27
3364.07
-2899.63
4117.22
-2973.31
4891.16
-3059.98
5687.62
-3156.31
6508.64
-3260.46
7356.75
-3374.4
8235.06
-3499.29
9148
-3644.26
10100.6
-3805.29
11100.4
-4008.01
12152.5
-4212.46
13272.8
-4528.7
14447.2
-4707.79
-5444.67
-2627.29
570.471
-2724.65
483.71
-2804.21
408.081
-2865.97
328.731
-2909.76
252.684
-2936.89
183.873
-2951.91
135.453
-2964.16
127.778
-2986.55
177.773
-3031.45
284.923
-3108.97
439.984
-3227.55
634.261
-3393.94
858.632
-3612.47
1100.35
-3883
1336.79
-4196.92
1524.58
-4529.85
1587.98
-4837
1438.65
-5067.62
1062.56
-5191.98
566.541
-5183.86
-28.4134
-5053.9
-605.797
-4804.58
-1179.35
-4440.24
-1718.97
-3972
-2196.08
-3410.48
-2606.24
-2766.89
-2946.92
-2054.5
-3194.26
-1276.54
-3459.96
-498.37
-3824.09
219.452
-3967.97
744.605
-3070.76
1111.11
-1373.24
1078.24
2461.9
300.796
5902.65
-1209.75
7037.88
-2631.97
5973.52
-3693.49
5285.64
-4671.64
5028.39
-5602.56
4856.02
-6538.77
4898.66
-7535.17
5148.25
-8617.9
5523.71
-9796
5951.82
-11068.2
6383.48
-12427.7
6790.68
-13867.6
7166.58
-15382.3
7511.51
-16965.9
7815.08
-18600.7
8021.9
-20229.5
7971.4
-21708.1
7331.7
-22776
5641.89
-23163.4
2758.61
-22899.4
-381.052
-22299.5
-2569.51
-21487.9
-4095.14
-20468.4
-5337.59
-19277.5
-6253.76
-17995.5
-6717.43
-16721.5
-6673.35
-15542.3
-6214.78
-14504.3
-5551.95
-13604.6
-4908.82
-12803.8
-4435.25
-12053.3
-4165.89
-11317.3
-4048.86
-10577.8
-4013.9
-9829.06
-4011.15
-9070.67
-4015.03
-8304.11
-4015.49
-7531.52
-4008.81
-6755.44
-3993.4
-5978.66
-3969.21
-5203.87
-3937.61
-4433.32
-3901.21
-3668.67
-3863.14
-2910.94
-3826.33
-2160.69
-3792.95
-1418.37
-3763.62
-686.773
-3733.28
26.8376
-3685.45
722.796
-3621.09
1419.16
-3564.9
2129.46
-3543.22
2854.05
-3571.86
3594.29
-3639.88
4353.18
-3732.19
5132.87
-3839.68
5935.04
-3958.48
6761.46
-4086.88
7614.32
-4227.26
8496.55
-4381.52
9412.15
-4559.86
10366.2
-4759.34
11365.3
-5007.09
12415.5
-5262.63
13528.7
-5641.96
14696.8
-5875.84
-6741.96
-2607
690.304
-2704.43
581.139
-2784.92
488.584
-2846.26
390.089
-2888.25
294.693
-2911.93
207.56
-2922.11
145.651
-2928.82
134.502
-2945.73
194.7
-2985.59
324.803
-3058.71
513.127
-3173.89
749.458
-3338.4
1023.16
-3557.01
1318.97
-3829.91
1609.7
-4148.83
1843.51
-4489.59
1928.75
-4806.07
1755.14
-5044.19
1300.69
-5172.15
694.514
-5160.99
-39.5576
-5026.22
-740.556
-4771.18
-1434.38
-4399.97
-2090.16
-3924.49
-2671.55
-3354.97
-3175.75
-2701.84
-3600.04
-1979.49
-3916.61
-1196.85
-4242.59
-410.4
-4610.52
328.739
-4707.1
909.182
-3651.18
1303.46
-1767.48
1359.92
2405.46
836.547
6426.03
-557.845
8432.28
-2145.02
7560.71
-3265.08
6405.7
-4214.21
5977.52
-5121.15
5762.98
-6027.65
5805.17
-6997.21
6117.81
-8060.38
6586.88
-9223.47
7114.92
-10483
7643.02
-11830.5
8138.21
-13258
8594.05
-14760.3
9013.77
-16332.5
9387.35
-17957.8
9647.16
-19574.4
9588
-21023.1
8780.41
-22021.8
6640.62
-22306.2
3043.03
-21975.6
-711.714
-21389
-3156.04
-20625.1
-4859.03
-19657.3
-6305.4
-18520.9
-7390.13
-17299.9
-7938.47
-16093.3
-7880
-14984.7
-7323.3
-14015.6
-6521.08
-13177.2
-5747.23
-12425.8
-5186.62
-11711
-4880.73
-10998
-4761.88
-10271.7
-4740.2
-9529.34
-4753.49
-8773.12
-4771.25
-8006.18
-4782.44
-7231.75
-4783.24
-6453.19
-4771.96
-5674.01
-4748.39
-4897.56
-4714.06
-4126.69
-4672.08
-3363.49
-4626.34
-2609.33
-4580.49
-1865.03
-4537.25
-1131.83
-4496.82
-414.601
-4450.52
284.345
-4384.4
974.366
-4311.11
1671.57
-4262.1
2385.17
-4256.82
3114.54
-4301.23
3860.33
-4385.67
4624.97
-4496.83
5410.52
-4625.23
6218.47
-4766.44
7050.28
-4918.69
7907.74
-5084.72
8793.5
-5267.27
9711.12
-5477.48
10665.7
-5713.89
11663
-6004.38
12709.7
-6309.39
13815.1
-6747.34
14974.5
-7035.24
-8014.4
-2586.39
809.818
-2685.15
679.908
-2766.52
569.964
-2827.72
451.293
-2868.19
335.184
-2888.76
228.144
-2894.6
151.506
-2896.49
136.404
-2908.83
207.058
-2944.59
360.578
-3014.06
582.609
-3126.29
861.704
-3289.12
1186
-3507.93
1537.79
-3783.41
1885.19
-4107.65
2167.76
-4456.56
2277.67
-4782.47
2081.06
-5027.54
1545.77
-5158.39
825.374
-5143.46
-54.4709
-5003.46
-880.546
-4742.32
-1695.52
-4364.06
-2468.41
-3881.56
-3154.05
-3304.79
-3752.51
-2643.72
-4261.1
-1914.04
-4646.29
-1126.83
-5029.79
-331.111
-5406.23
427.635
-5465.84
1057.61
-4281.15
1480.21
-2190.06
1604.98
2280.7
1274.1
6756.91
85.5902
9620.8
-1616.69
9262.99
-2875.9
7664.92
-3787.05
6888.68
-4659.07
6635.01
-5536.5
6682.61
-6475.48
7056.8
-7514.95
7626.35
-8659.14
8259.11
-9901.09
8884.98
-11230.5
9467.61
-12638.2
10001.8
-14119.4
10494.9
-15670.3
10938.3
-17274.9
11251.8
-18869.4
11182.5
-20285.3
10196.3
-21228.6
7583.85
-21444.1
3258.53
-21083.7
-1072.1
-20520.4
-3719.33
-19789.3
-5590.16
-18854.2
-7240.43
-17761.7
-8482.73
-16601.4
-9098.76
-15470.2
-9011.15
-14444.4
-8349.13
-13554.8
-7410.66
-12783.9
-6518.17
-12083.1
-5887.36
-11401.5
-5562.36
-10706.6
-5456.77
-9986.93
-5459.86
-9243.41
-5497.02
-8481.32
-5533.34
-7706.23
-5557.53
-6923.12
-5566.34
-6136.58
-5558.49
-5351
-5533.98
-4570.4
-5494.66
-3798.1
-5444.38
-3036.43
-5388.01
-2286.71
-5330.21
-1549.67
-5274.29
-827.135
-5219.35
-124.436
-5153.21
563.16
-5071.99
1251.8
-4999.75
1952.92
-4963.22
2670.59
-4974.5
3404.59
-5035.23
4155.77
-5136.85
4926.21
-5267.27
5717.75
-5416.77
6531.58
-5580.27
7368.75
-5755.86
8230.59
-5946.56
9119.39
-6156.07
10038.3
-6396.41
10992.3
-6667.92
11986.8
-6998.83
13028.8
-7351.42
14125.6
-7844.08
15274.9
-8184.55
-9262.37
-2565.46
928.969
-2665.79
780.244
-2747.93
652.122
-2809.12
512.495
-2848.26
374.336
-2865.99
245.895
-2867.91
153.434
-2865.61
134.126
-2874.23
215.696
-2906.78
393.142
-2973.33
649.18
-3083.11
971.505
-3244.54
1347.44
-3463.75
1757.01
-3742.07
2163.53
-4072.01
2497.7
-4429.44
2635.12
-4764.85
2416.48
-5016.28
1797.21
-5149.22
958.331
-5129.65
-74.0244
-4983.73
-1026.46
-4715.68
-1963.57
-4329.57
-2854.51
-3839.4
-3644.2
-3255.04
-4336.86
-2586.29
-4929.84
-1850.36
-5382.22
-1058.96
-5821.18
-254.679
-6210.51
520.574
-6241.08
1187
-4947.56
1638.29
-2641.33
1828.53
2090.48
1627.84
6957.62
702.374
10546.3
-1030.38
10995.7
-2514.18
9148.73
-3410.78
7785.28
-4221.95
7446.18
-5069.81
7530.48
-5978.31
7965.31
-6990.75
8638.8
-8112.97
9381.33
-9333.34
10105.4
-10639.2
10773.5
-12020.5
11383.1
-13472.3
11946.7
-14992.2
12458.2
-16566.1
12825.7
-18131.8
12748.2
-19520.1
11584.6
-20433.2
8496.94
-20617.6
3443
-20246.9
-1442.84
-19696
-4270.26
-18977
-6309.11
-18061.2
-8156.22
-17009.3
-9534.68
-15914.6
-10193.4
-14868.4
-10057.3
-13934.7
-9282.87
-13129.8
-8215.53
-12425.7
-7222.27
-11770.8
-6542.29
-11115.9
-6217.2
-10432.6
-6140.11
-9713.11
-6179.36
-8961.93
-6248.2
-8187.57
-6307.7
-7398.45
-6346.65
-6601.81
-6362.98
-5803.84
-6356.46
-5009.93
-6327.88
-4224.67
-6279.93
-3451.54
-6217.51
-2692.71
-6146.84
-1949.07
-6073.86
-1221
-6002.37
-511.054
-5929.29
179.851
-5844.12
862.697
-5754.84
1552.88
-5689.94
2258.19
-5668.53
2980.1
-5696.4
3718.71
-5773.83
4475.2
-5893.35
5251.51
-6043.57
6049.16
-6214.42
6868.95
-6400.06
7711.42
-6598.34
8577.39
-6812.53
9468.7
-7047.38
10388.1
-7315.86
11340.6
-7620.39
12331.2
-7989.43
13367.5
-8387.67
14455
-8931.63
15593.7
-9323.24
-10486.9
-2544.04
1047.45
-2645.75
881.959
-2728.62
735.002
-2789.87
573.754
-2827.8
412.279
-2842.92
261.026
-2841.25
151.786
-2835.34
128.223
-2840.98
221.353
-2871.1
423.277
-2935.41
713.507
-3043.23
1079.33
-3203.54
1507.76
-3423.34
1976.82
-3704.76
2444.96
-4040.74
2833.69
-4407.04
3001.43
-4752
2761.45
-5009.02
2054.24
-5143.04
1092.36
-5117.69
-99.3687
-4964.79
-1179.34
-4688.56
-2239.79
-4293.22
-3249.84
-3794.09
-4143.33
-3201.04
-4929.91
-2524.06
-5606.82
-1782.24
-6124.03
-987.351
-6616.06
-176.265
-7021.59
611.509
-7028.85
1303.81
-5639.85
1780.37
-3117.88
2034.52
1836.34
1922.36
7069.78
1266.29
11202.3
-363.774
12625.8
-2111.73
10896.7
-3097.68
8771.24
-3821.98
8170.49
-4628.16
8336.66
-5510.46
8847.61
-6494.79
9623.13
-7592.76
10479.3
-8788.65
11301.2
-10066.5
12051.3
-11415.3
12731.9
-12830.2
13361.6
-14309.8
13937.9
-15843.5
14359.3
-17375.6
14280.3
-18744.8
12953.8
-19655.3
9407.45
-19840.2
3627.88
-19464.3
-1818.81
-18910
-4824.53
-18188.4
-7030.73
-17286.1
-9058.45
-16276.4
-10544.4
-15252.9
-11216.9
-14298.5
-11011.8
-13461.9
-10119.4
-12742.1
-8935.32
-12099.8
-7864.55
-11482.3
-7159.82
-10845.1
-6854.37
-10165.2
-6820.07
-9439.07
-6905.47
-8674.65
-7012.62
-7883.46
-7098.89
-7076.75
-7153.35
-6264.23
-7175.51
-5453.81
-7166.88
-4651.85
-7129.85
-3863.24
-7068.53
-3091.28
-6989.48
-2337.46
-6900.65
-1601.82
-6809.5
-884.342
-6719.84
-187.449
-6626.19
494.771
-6526.34
1178.15
-6438.22
1872.86
-6384.64
2582.46
-6378.13
3308.38
-6422.32
4051.47
-6516.92
4813.23
-6655.1
5595.42
-6825.76
6399.22
-7018.22
7224.94
-7225.77
8072.52
-7445.92
8942.18
-7682.19
9835.3
-7940.5
10754.3
-8234.9
11704.2
-8570.23
12689.9
-8975.14
13719.5
-9417.26
14797.5
-10009.6
15925.6
-10451.4
-11689.4
-2521.88
1164.82
-2624.86
984.948
-2708.33
818.479
-2769.66
635.093
-2806.47
449.115
-2819.16
273.727
-2814.24
146.886
-2805.21
119.206
-2808.53
224.689
-2836.89
451.661
-2899.53
776.158
-3005.77
1185.59
-3165.2
1667.2
-3385.74
2197.38
-3670.45
2729.68
-4012.78
3176.02
-4388.23
3376.89
-4742.71
3115.94
-5004.33
2315.87
-5138.03
1226.07
-5105.33
-132.053
-4943.99
-1340.67
-4657.87
-2525.9
-4251.43
-3656.27
-3741.55
-4653.21
-3138.23
-5533.21
-2451.99
-6293.05
-1704.3
-6871.72
-906.977
-7413.38
-91.6787
-7836.88
703.919
-7824.44
1412.72
-6348.64
1908.7
-3613.84
2223.95
1521.11
2176.86
7116.88
1746.09
11633.1
384.812
13987.1
-1565.66
12847.2
-2820.55
10026.1
-3478.32
8828.26
-4212.7
9071.06
-5072.5
9707.42
-6031.55
10582.2
-7104.07
11551.8
-8273.63
12470.8
-9519.98
13297.7
-10831.1
14043.1
-12202.1
14732.6
-13633
15368.8
-15117.5
15843.9
-16611.2
15773.9
-17969
14311.7
-18900
10338.4
-19106.7
3834.55
-18724
-2201.52
-18154.4
-5394.14
-17423
-7762.05
-16534.4
-9947.08
-15570
-11508.8
-14621.3
-12165.6
-13761.7
-11871.5
-13023
-10858.1
-12385.2
-9573.14
-11797.9
-8451.84
-11208.8
-7748.92
-10580
-7483.18
-9895.08
-7504.97
-9155.74
-7644.82
-8373.41
-7794.95
-7562.55
-7909.75
-6737
-7978.9
-5908.69
-8003.82
-5087.08
-7988.49
-4279.27
-7937.65
-3490.09
-7857.71
-2722.12
-7757.45
-1975.77
-7647
-1249.96
-7535.31
-544.536
-7425.27
142.228
-7312.95
821.546
-7205.66
1507.56
-7124.23
2206.65
-7083.73
2920.23
-7091.71
3649.85
-7151.95
4397.14
-7264.21
5163.89
-7421.86
5951.75
-7613.62
6761.48
-7827.95
7592.79
-8057.08
8444.98
-8298.11
9317.61
-8554.81
10211.6
-8834.45
11129
-9152.35
12074.9
-9516.15
13054.6
-9954.77
14076.6
-10439.3
15144.8
-11077.8
16262.7
-11569.4
-12871.6
-2500.25
1288.65
-2602.79
1087.49
-2686.99
902.687
-2748.32
696.428
-2784.11
484.924
-2794.54
284.169
-2786.68
139.043
-2774.99
107.526
-2776.54
226.255
-2803.7
478.829
-2865.09
837.561
-2970.06
1290.58
-3128.76
1825.92
-3350.1
2418.72
-3638.2
3017.79
-3987.1
3524.93
-4371.93
3761.74
-4735.75
3479.76
-5000.64
2580.77
-5132.06
1357.5
-5089.99
-174.117
-4918.33
-1512.32
-4620.19
-2824.03
-4200.45
-4076.01
-3677.71
-5175.94
-3062.29
-6148.63
-2365.51
-6989.83
-1611.84
-7625.39
-813.721
-8211.49
2.38825
-8652.98
800.757
-8622.8
1517.69
-7065.57
2026.68
-4122.82
2398.6
1149.2
2402.88
7112.61
2134.03
11902
1146.99
14974.1
-821.006
14815.2
-2481.96
11687.1
-3199.07
9545.37
-3830.78
9702.77
-4661.6
10538.2
-5602.34
11522.9
-6649.96
12599.5
-7792.28
13613.1
-9004.82
14510.2
-10274.2
15312.5
-11595.4
16053.8
-12969.9
16743.2
-14396.6
17270.6
-15846
17223.3
-17196.4
15662
-18164
11306.1
-18406.5
4077.02
-18013.1
-2594.88
-17421.1
-5986.15
-16679.6
-8503.6
-15808
-10818.7
-14892.5
-12424.3
-14020.9
-13037.2
-13256.3
-12636.1
-12612.8
-11501.6
-12051
-10135
-11510.6
-8992.25
-10940.9
-8318.62
-10311.6
-8112.46
-9614.09
-8202.47
-8855.9
-8403.01
-8052.45
-8598.39
-7220.95
-8741.24
-6377.47
-8822.39
-5535.66
-8845.63
-4706.11
-8818.04
-3896.13
-8747.63
-3109.98
-8643.85
-2349.08
-8518.35
-1612.4
-8383.69
-897.816
-8249.89
-204.328
-8118.76
475.559
-7992.84
1156.16
-7886.26
1846.3
-7814.37
2548.98
-7786.41
3265.7
-7808.44
3998.41
-7884.65
4749.25
-8015.06
5520.37
-8192.97
6313.26
-8406.51
7128.24
-8642.94
7964.39
-8893.24
8820.27
-9153.99
9694.73
-9429.28
10588.2
-9727.88
11502.5
-10066.7
12442.9
-10456.6
13415
-10926.9
14428.5
-11452.8
15486.1
-12135.4
16594
-12677.2
-14034.7
-2477.24
1410.51
-2579.88
1190.13
-2664.55
987.367
-2725.81
757.699
-2760.64
519.781
-2769.01
292.55
-2758.53
128.586
-2744.61
93.6166
-2744.85
226.521
-2771.21
505.204
-2831.66
898.033
-2935.56
1394.49
-3093.59
1983.96
-3315.69
2640.84
-3607.18
3309.28
-3962.78
3880.54
-4357.12
4156.08
-4729.89
3852.55
-4996.22
2847.1
-5122.75
1484.05
-5068.79
-228.07
-4884.62
-1696.48
-4572.1
-3136.55
-4136.69
-4511.41
-3598.99
-5713.64
-2969.66
-6777.94
-2261.06
-7698.42
-1501.23
-8385.22
-704.377
-9008.33
108.563
-9465.91
904.623
-9418.86
1621.77
-7782.71
2135.61
-4636.65
2555.77
729.065
2603.51
7064.87
2445.03
12060.5
1821.58
15597.6
106.229
16530.5
-1933.41
13726.7
-2949.22
10561.2
-3495.32
10248.9
-4274.46
11317.4
-5204.81
12453.3
-6230.81
13625.5
-7345.87
14728.2
-8523.44
15687.8
-9748.08
16537.1
-11015
17320.7
-12326.5
18054.7
-13687.5
18631.6
-15085.3
18621.1
-16426.9
17003.6
-17439.6
12318.9
-17726.6
4364
-17320.1
-3001.38
-16704
-6602.23
-15955.8
-9251.87
-15106
-11668.4
-14243.1
-13287.1
-13450.6
-13829.7
-12780
-13306.8
-12226.4
-12055.1
-11732.4
-10629
-11229.5
-9495.13
-10670
-8878.19
-10031.8
-8750.6
-9315.23
-8919.05
-8534.28
-9183.97
-7708.46
-9424.21
-6857.44
-9592.27
-5998.94
-9680.89
-5147.77
-9696.8
-4314.89
-9650.92
-3507.23
-9555.29
-2727.95
-9423.14
-1976.91
-9269.39
-1251.55
-9109.04
-549.092
-8952.35
135.199
-8803.05
812.737
-8670.38
1495.52
-8569.04
2188.79
-8507.65
2893.95
-8491.56
3612.66
-8527.15
4347.32
-8619.31
5100.59
-8768.33
5874.88
-8967.27
6671.64
-9203.27
7490.72
-9462.01
8330.46
-9732.98
9188.64
-10012.2
10063.4
-10304
10954.5
-10619
11863.8
-10976
12796.7
-11389.5
13759.3
-11889.5
14762.4
-12455.9
15808.3
-13181.3
16905.2
-13774.1
-15179.4
-2453.29
1530.08
-2556.23
1293.07
-2641.02
1072.17
-2702.15
818.841
-2736.09
553.743
-2742.62
299.087
-2729.87
115.851
-2714.09
77.853
-2713.39
225.837
-2739.24
531.064
-2798.95
957.756
-2901.85
1497.4
-3059.19
2141.31
-3281.93
2863.59
-3576.69
3604.04
-3938.99
4242.85
-4342.77
4559.87
-4723.83
4233.61
-4989.18
3112.46
-5107.48
1602.36
-5038.76
-296.78
-4839.81
-1895.42
-4510.53
-3465.82
-4057.29
-4964.64
-3502.84
-6268.08
-2858.19
-7422.6
-2136.74
-8419.86
-1370.59
-9151.37
-576.677
-9802.23
229.516
-10272.1
1018
-10207.3
1727.17
-8491.87
2237.76
-5147.23
2695.68
271.156
2778.25
6982.31
2698.69
12140
2344.97
15951.3
1082.06
17793.4
-1114.07
15922.9
-2630.35
12077.5
-3210.5
10829
-3911.01
12017.9
-4833.55
13375.8
-5844.28
14636.2
-6933.07
15817
-8075.54
16830.3
-9253.85
17715.4
-10463.2
18530.1
-11706.8
19298.3
-12994.8
19919.7
-14332.4
19958.7
-15658.9
18330.2
-16718
13378
-17055.7
4701.69
-16636.9
-3420.24
-15998.7
-7240.38
-15248.6
-10002
-14425.6
-12491.4
-13619.6
-14093
-12908.5
-14540.8
-12329.8
-13885.5
-11859.3
-12525.6
-11423.3
-11065
-10947.7
-9970.71
-10388.9
-9437.07
-9734.19
-9405.27
-8993.63
-9659.61
-8188.14
-9989.46
-7340.88
-10271.5
-6473.4
-10459.7
-5604.49
-10549.8
-4749.29
-10552
-3918.39
-10481.8
-3117.66
-10356
-2348.68
-10192.1
-1609.61
-10008.5
-896.616
-9822.03
-205.765
-9643.2
472.057
-9480.87
1149.77
-9348.09
1834.68
-9253.94
2529.39
-9202.35
3235.37
-9197.55
3954.48
-9246.26
4689.43
-9354.26
5443.4
-9522.29
6219.16
-9743.03
7018.1
-10002.2
7839.61
-10283.5
8681.29
-10574.7
9540
-10870.9
10413
-11177
11299.7
-11505.7
12201.5
-11877.7
13124.2
-12312.2
14074.5
-12839.8
15064.6
-13446
16096.1
-14212.8
17179.7
-14857.7
-16305
-2428.9
1647.13
-2531.9
1396.08
-2616.52
1156.8
-2677.44
879.767
-2710.57
586.89
-2715.51
304.044
-2700.84
101.202
-2683.54
60.575
-2682.15
224.459
-2707.65
556.586
-2766.71
1016.83
-2868.64
1599.35
-3025.2
2297.89
-3248.38
3086.77
-3546.16
3901.84
-3915
4611.7
-4327.96
4972.83
-4716.18
4621.85
-4977.51
3373.8
-5083.8
1708.66
-4997.3
-383.269
-4781.28
-2111.42
-4433.29
-3813.81
-3960.68
-5437.23
-3388.45
-6840.31
-2727.78
-8083.26
-1993.02
-9154.61
-1220.54
-9923.85
-430.528
-10592.2
366.41
-11069
1142.4
-10983.3
1835.8
-9185.27
2333.63
-5645.05
2818.24
-213.432
2926.3
6874.25
2908.16
12158.2
2725.55
16133.9
1934.6
18584.4
-83.3234
17940.8
-2103.42
14097.6
-2950.26
11675.9
-3575.31
12643
-4481.8
14282.3
-5485.56
15640
-6550.39
16881.8
-7658.52
17938.4
-8790.16
18847.1
-9940.24
19680.2
-11112.5
20470.6
-12321.6
21128.8
-13589.5
21226.6
-14890.3
19631
-15991.2
14478.9
-16384.9
5095.35
-15958.1
-3847.01
-15302.2
-7896.24
-14555.5
-10748.8
-13764.4
-13282.5
-13020.3
-14837.1
-12392.7
-15168.4
-11902.6
-14375.6
-11506.6
-12921.5
-11117.8
-11453.8
-10658.9
-10429.6
-10091.6
-10004.4
-9414.12
-10082.7
-8646.9
-10426.8
-7817.4
-10819
-6951.63
-11137.2
-6072.37
-11339
-5198.73
-11423.4
-4345.39
-11405.3
-3521.77
-11305.4
-2732.1
-11145.7
-1976.11
-10948.1
-1250.36
-10734.2
-550.216
-10522.2
131.303
-10324.7
805.639
-10155.2
1483.01
-10025.5
2168.05
-9938.98
2862.3
-9896.61
3567.15
-9902.4
4284.57
-9963.67
5017.62
-10087.3
5770.04
-10274.7
6545.07
-10518.1
7344.13
-10801.3
8166.15
-11105.5
9007.88
-11416.4
9865.18
-11728.2
10734.4
-12046.3
11614.1
-12385.3
12505.3
-12769
13414.3
-13221.1
14348
-13773.5
15320.6
-14418.6
16333.1
-15225.3
17399.7
-15924.3
-17410.1
-2404.2
1761.44
-2507.06
1498.94
-2591.21
1240.96
-2651.8
940.363
-2684.2
619.305
-2687.85
307.702
-2671.63
84.9971
-2653.08
42.0369
-2651.11
222.507
-2676.33
581.819
-2734.74
1075.26
-2835.68
1700.3
-2991.34
2453.56
-3214.7
3310.13
-3515.18
4202.33
-3890.22
4986.76
-4311.75
5394.37
-4705.48
5015.58
-4959.14
3627.47
-5049.53
1799.06
-4942.36
-490.434
-4707.38
-2346.39
-4339.55
-4181.63
-3847.07
-5929.71
-3257.15
-7430.23
-2580.87
-8759.53
-1833.14
-9902.33
-1054.64
-10702.4
-268.434
-11378.4
518.598
-11856.1
1278.27
-11743
1948.23
-9855.22
2422.67
-6119.49
2920.98
-711.724
3046.62
6748.61
3079.24
12125.6
3001.42
16211.8
2563.83
19022
990.798
19513.8
-1321.58
16410
-2649.53
13003.8
-3270.03
13263.5
-4143.66
15156
-5148.08
16644.4
-6192.84
17926.6
-7268.1
19013.7
-8353.86
19932.8
-9444.39
20770.7
-10543.7
21569.9
-11669.4
22254.5
-12858.3
22415.5
-14119.5
20892.2
-15253
15612.3
-15707.9
5550.24
-15281.1
-4273.81
-14613.1
-8564.17
-13874.8
-11487.1
-13121.1
-14036.2
-12444.1
-15514.2
-11901.5
-15711
-11495.1
-14782.1
-11163.8
-13252.8
-10810.6
-11807
-10357.7
-10882.6
-9773.76
-10588.2
-9069.23
-10787.3
-8275.09
-11221
-7424.22
-11669.8
-6544.5
-12017
-5659.19
-12224.3
-4786.99
-12295.6
-3941.28
-12251
-3129.68
-12117
-2354.36
-11921
-1613.19
-11689.3
-901.503
-11445.9
-213.607
-11210.1
460.294
-10998.6
1131.84
-10826.8
1807.61
-10701.2
2490.56
-10621.9
3182.19
-10588.2
3883.65
-10603.9
4596.91
-10676.9
5325.47
-10815.9
6073.75
-11023
6845.63
-11289.9
7642.67
-11598.3
8463.31
-11926.2
9303.33
-12256.4
10157.4
-12582.2
11020.5
-12909.4
11890.4
-13255.2
12767.3
-13645.9
13657.5
-14111.3
14568.4
-14684.4
15516.7
-15366.9
16503.4
-16212.1
17548.5
-16969.4
-18493.5
-2380.58
1880.73
-2481.7
1600.07
-2565.31
1324.58
-2625.41
1000.47
-2657.18
651.093
-2659.84
310.379
-2642.43
67.6005
-2622.8
22.434
-2620.28
220.006
-2645.18
606.733
-2702.89
1132.98
-2802.75
1800.18
-2957.38
2608.2
-3180.63
3533.4
-3483.38
4505.09
-3864.13
5367.51
-4293.32
5823.57
-4690.32
5412.59
-4932.08
3869.24
-5002.53
1869.51
-4872.5
-620.453
-4617.77
-2601.11
-4230.13
-4569.27
-3718.64
-6441.19
-3112.51
-8036.35
-2422.3
-9449.73
-1662.89
-10661.7
-878.515
-11486.7
-94.243
-12162.7
684.252
-12634.6
1424.97
-12483.7
2063.75
-10494
2506.72
-6562.45
3004.3
-1209.28
3139.45
6613.47
3214.14
12050.9
3205.94
16220
2983.23
19244.7
1921.01
20576.1
-363.936
18694.9
-2215.67
14855.6
-2986.09
14033.9
-3815.98
15985.9
-4824.45
17652.9
-5854.59
18956.7
-6899.07
20058.2
-7940.66
20974.4
-8972.58
21802.6
-9998.73
22596
-11038.2
23294
-12139.5
23516.7
-13345.8
22098.6
-14499.4
16765.9
-15021.1
6071.9
-14604.9
-4689.95
-13931.2
-9237.87
-13206.4
-12212
-12495.3
-14747.3
-11890.4
-16119.1
-11433.2
-16168.1
-11104
-15111.3
-10826.6
-13530.2
-10497.5
-12136.1
-10040.2
-11339.9
-9432.93
-11195.5
-8699.38
-11520.8
-7880.27
-12040.1
-7012.32
-12537.8
-6124.27
-12905
-5239.17
-13109.4
-4374.49
-13160.3
-3541.62
-13083.9
-2745.89
-12912.8
-1987.26
-12679.7
-1262
-12414.5
-564.698
-12143.2
112.45
-11887.2
780.115
-11666.3
1447.31
-11494
2119.09
-11373
2797.83
-11300.7
3484.63
-11275
4180.29
-11299.5
4886.75
-11383.4
5608.01
-11537.1
6349.49
-11764.5
7115.92
-12056.4
7909.12
-12391.5
8726.97
-12744
9563.99
-13093.4
10413.2
-13431.4
11268.2
-13764.4
12124.7
-14111.8
12982.1
-14503.3
13846.2
-14975.4
14725.1
-15563.3
15640
-16281.7
16592.7
-17164.8
17613.9
-17990.6
-19555.7
-2356.64
1996.4
-2456.23
1699.67
-2539
1407.36
-2598.45
1059.93
-2629.69
682.345
-2631.69
312.391
-2613.42
49.3471
-2592.83
1.85857
-2589.65
216.846
-2614.09
631.187
-2670.97
1189.87
-2769.66
1898.88
-2923.09
2761.64
-3145.93
3756.25
-3450.48
4809.64
-3836.24
5753.28
-4271.83
6259.17
-4669.28
5810.05
-4894.5
4094.46
-4941.24
1916.27
-4787.44
-774.249
-4513.63
-2874.91
-4107.43
-4975.46
-3579.23
-6969.38
-2959.73
-8655.85
-2258.48
-10151
-1489.6
-11430.6
-699.226
-12277.1
86.6934
-12948.6
859.981
-13407.8
1580.45
-13204.2
2181.15
-11094.7
2585.2
-6966.49
3066.65
-1690.73
3205.17
6474.96
3314.47
11941.6
3358.31
16176.1
3253.54
19349.5
2602.72
21226.9
637.576
20660
-1596.53
17089.7
-2697.55
15134.9
-3498.32
16786.6
-4507.8
18662.3
-5529.7
19978.6
-6546.05
21074.5
-7545.8
21974.2
-8521.05
22777.9
-9475.23
23550.2
-10427.4
24246.2
-11434
24523.3
-12569.7
23234.3
-13728.6
17924.8
-14322.2
6665.48
-13929.6
-5082.56
-13257.1
-9910.3
-12550.7
-12918.4
-11887.1
-15410.9
-11358.3
-16647.9
-10985.5
-16540.9
-10726.1
-15370.7
-10491.5
-13764.8
-10175
-12452.6
-9704.07
-11810.8
-9068.55
-11831
-8306.31
-12283.1
-7465.89
-12880.5
-6586.21
-13417.5
-5696.04
-13795.2
-4817.4
-13988.1
-3965.78
-14011.9
-3150.1
-13899.6
-2373.11
-13689.8
-1632.72
-13420
-923.957
-13123.3
-240.619
-12826.6
426.451
-12554.3
1087.27
-12327.1
1748.41
-12155.1
2414.14
-12038.7
3086.71
-11973.2
3766.61
-11954.9
4454.08
-11987
5151.06
-12080.4
5862.33
-12248.4
6594.61
-12496.8
7353.8
-12815.6
8142.09
-13179.8
8956.54
-13558.5
9789.96
-13926.9
10633.2
-14274.7
11477.3
-14608.5
12316
-14950.4
13146.4
-15333.8
13974.2
-15803.1
14809.1
-16398.3
15680
-17152.6
16592
-18076.9
17593.1
-18991.8
-20600.4
-2332.73
2108.23
-2430.97
1797.91
-2512.49
1488.89
-2571.13
1118.58
-2601.91
713.149
-2603.58
314.069
-2584.77
30.5648
-2563.24
-19.6566
-2559.21
212.84
-2582.99
654.988
-2638.85
1245.75
-2736.2
1996.24
-2888.27
2913.72
-3110.41
3978.4
-3416.21
5115.44
-3806.16
6143.23
-4246.5
6699.52
-4640.95
6204.5
-4844.91
4298.44
-4865.15