/*--------------------------------*- C++ -*----------------------------------*\
| =========                 |                                                 |
| \\      /  F ield         | OpenFOAM: The Open Source CFD Toolbox           |
|  \\    /   O peration     | Version:  4.1                                   |
|   \\  /    A nd           | Web:      www.OpenFOAM.org                      |
|    \\/     M anipulation  |                                                 |
\*---------------------------------------------------------------------------*/
FoamFile
{
    version     2.0;
    format      ascii;
    class       volVectorField;
    location    "800";
    object      U;
}
// * * * * * * * * * * * * * * * * * * * * * * * * * * * * * * * * * * * * * //

dimensions      [0 1 -1 0 0 0 0];

internalField   nonuniform List<vector> 
26785
(
(-8.43668e-14 0.00528591 -22.1667)
(-8.81299e-14 -0.00161477 -22.1361)
(-9.26819e-14 -0.00626967 -22.0765)
(-9.25833e-14 -0.0110597 -21.8878)
(-9.41853e-14 -0.0154462 -21.6234)
(-9.49698e-14 -0.0193114 -21.2809)
(-9.18067e-14 -0.0218434 -20.8847)
(-9.35749e-14 -0.0217735 -20.4728)
(-1.01994e-13 -0.0180592 -20.1056)
(-1.0564e-13 -0.0107573 -19.8456)
(-9.66588e-14 -0.000581944 -19.741)
(-9.60869e-14 0.0116426 -19.8229)
(-9.26754e-14 0.0250597 -20.1088)
(-8.88044e-14 0.038671 -20.6045)
(-8.45472e-14 0.0509003 -21.2991)
(-8.0325e-14 0.0587872 -22.1502)
(-7.65223e-14 0.0576242 -23.0574)
(-7.42865e-14 0.0429946 -23.8487)
(-7.54205e-14 0.015209 -24.3294)
(-7.27607e-14 -0.0202265 -24.3634)
(-6.79139e-14 -0.0618807 -23.8689)
(-7.04629e-14 -0.101056 -22.858)
(-6.78908e-14 -0.136529 -21.3985)
(-6.662e-14 -0.165496 -19.5594)
(-7.56454e-14 -0.187007 -17.4299)
(-7.22569e-14 -0.203124 -15.1104)
(-8.79955e-14 -0.216857 -12.6789)
(-1.04321e-13 -0.221779 -10.1506)
(-9.73499e-14 -0.223007 -7.49415)
(-7.30423e-14 -0.332044 -5.3488)
(-5.39023e-14 -0.475012 -2.25482)
(3.47303e-14 -0.339299 1.54178)
(1.12076e-14 -0.0489055 2.93875)
(5.02334e-14 0.379522 1.92865)
(-1.00836e-13 0.447439 -5.1263)
(-9.71599e-15 0.420159 -9.73939)
(-6.23862e-15 0.373143 -13.0002)
(2.31829e-15 0.353582 -16.6124)
(8.81625e-15 0.333441 -19.734)
(1.46544e-14 0.320608 -22.6786)
(1.8188e-14 0.317304 -25.516)
(7.71531e-15 0.326402 -28.334)
(1.07675e-14 0.343657 -31.247)
(1.30502e-14 0.364371 -34.2912)
(2.03409e-14 0.385381 -37.4777)
(2.17008e-14 0.404545 -40.7949)
(2.65666e-14 0.421009 -44.2209)
(2.92157e-14 0.434235 -47.7328)
(3.19221e-14 0.442924 -51.3053)
(3.42482e-14 0.443134 -54.8986)
(3.49749e-14 0.425533 -58.4286)
(3.75517e-14 0.372905 -61.7081)
(3.38061e-14 0.262362 -64.3662)
(2.92025e-14 0.0847297 -65.8609)
(2.26139e-14 -0.121583 -65.7994)
(1.54928e-14 -0.292672 -64.3114)
(9.24173e-15 -0.415228 -61.8169)
(1.71547e-15 -0.500239 -58.6149)
(1.33152e-16 -0.551075 -54.9284)
(-4.20675e-16 -0.56729 -51.0034)
(-2.22893e-15 -0.550212 -47.0939)
(1.52133e-15 -0.509965 -43.4159)
(5.82151e-15 -0.461707 -40.0873)
(1.14653e-14 -0.417944 -37.1162)
(1.9365e-14 -0.385396 -34.4384)
(2.97631e-14 -0.364776 -31.9652)
(4.13971e-14 -0.352895 -29.6212)
(5.47078e-14 -0.345898 -27.361)
(6.92771e-14 -0.340906 -25.1633)
(8.45679e-14 -0.336248 -23.0213)
(1.01496e-13 -0.331189 -20.935)
(1.20991e-13 -0.325491 -18.9067)
(1.35521e-13 -0.319175 -16.9387)
(1.51176e-13 -0.312466 -15.0326)
(1.63965e-13 -0.305766 -13.1884)
(1.72035e-13 -0.299637 -11.4038)
(1.7207e-13 -0.294783 -9.67494)
(1.7728e-13 -0.292023 -7.99625)
(1.76812e-13 -0.29209 -6.36195)
(1.76342e-13 -0.295136 -4.7671)
(1.65126e-13 -0.301285 -3.20666)
(1.55447e-13 -0.313023 -1.67531)
(2.2492e-13 -0.327202 -0.237348)
(2.69486e-13 -0.297239 1.16101)
(2.04884e-13 -0.255449 2.5207)
(1.70391e-13 -0.23926 3.86056)
(1.6259e-13 -0.23708 5.16383)
(1.54998e-13 -0.239954 6.44418)
(1.25764e-13 -0.24765 7.73967)
(1.15608e-13 -0.258497 9.06484)
(1.16693e-13 -0.269705 10.4192)
(1.18916e-13 -0.280302 11.805)
(1.23354e-13 -0.290394 13.2195)
(1.26914e-13 -0.301804 14.6804)
(1.30569e-13 -0.313626 16.1649)
(1.30201e-13 -0.33024 17.7554)
(1.29115e-13 -0.344421 19.2857)
(1.28314e-13 -0.374341 21.2086)
(1.27192e-13 -0.382659 22.4441)
(1.2198e-13 -0.460784 25.5877)
(-8.36538e-14 0.0203008 -21.9485)
(-8.0644e-14 -0.00415218 -21.9195)
(-7.57453e-14 -0.0178544 -21.8494)
(-7.54795e-14 -0.0324479 -21.6456)
(-8.08941e-14 -0.0456633 -21.3602)
(-7.77352e-14 -0.0572272 -20.992)
(-7.38137e-14 -0.0646384 -20.5676)
(-8.48285e-14 -0.0641294 -20.1283)
(-7.97101e-14 -0.0527074 -19.7372)
(-7.30888e-14 -0.0307013 -19.4575)
(-7.34263e-14 -0.000217586 -19.3351)
(-7.05409e-14 0.0365513 -19.3996)
(-6.62162e-14 0.0774284 -19.6686)
(-6.36199e-14 0.119792 -20.1503)
(-5.59978e-14 0.159158 -20.8379)
(-4.33427e-14 0.186523 -21.6942)
(-3.95875e-14 0.186937 -22.6229)
(-3.562e-14 0.145736 -23.4506)
(-2.78264e-14 0.0628081 -23.9749)
(-2.84308e-14 -0.0451546 -24.0526)
(-2.98834e-14 -0.172099 -23.5829)
(-2.82225e-14 -0.290651 -22.5911)
(-3.67796e-14 -0.399809 -21.1451)
(-3.03311e-14 -0.494035 -19.2968)
(-3.48936e-14 -0.570762 -17.1188)
(-4.35932e-14 -0.628683 -14.6898)
(-3.70534e-14 -0.664741 -12.0958)
(-4.17938e-14 -0.657683 -9.39152)
(-5.55546e-14 -0.631775 -6.5413)
(-8.80255e-14 -0.802303 -3.73425)
(-3.32563e-14 -0.967174 -0.959883)
(-1.7078e-14 -0.658855 1.45576)
(-2.8635e-14 0.0367599 2.81232)
(-2.66992e-16 1.1164 2.57822)
(-8.5395e-14 1.50881 -3.04943)
(-1.59746e-14 1.3359 -8.61631)
(-8.79356e-15 1.12264 -11.9345)
(1.70753e-15 1.07119 -15.522)
(8.89439e-15 1.00404 -18.6687)
(1.45002e-14 0.962232 -21.5873)
(1.91595e-14 0.953766 -24.4069)
(2.42273e-14 0.982688 -27.2153)
(2.06127e-14 1.03691 -30.129)
(2.49827e-14 1.10175 -33.1862)
(2.32388e-14 1.16776 -36.3972)
(2.67492e-14 1.22891 -39.7507)
(2.95529e-14 1.28303 -43.2262)
(3.24624e-14 1.32901 -46.8037)
(3.35727e-14 1.3633 -50.4618)
(3.04232e-14 1.37405 -54.1659)
(2.83655e-14 1.33219 -57.8358)
(1.61347e-14 1.18322 -61.2825)
(5.81707e-15 0.85434 -64.1168)
(-9.05203e-15 0.316791 -65.756)
(-2.23223e-14 -0.306334 -65.7782)
(-2.136e-14 -0.814969 -64.3521)
(-2.41988e-14 -1.18423 -61.9372)
(-2.2546e-14 -1.45623 -58.7966)
(-1.24042e-14 -1.63395 -55.1244)
(1.48625e-15 -1.70726 -51.1652)
(1.3379e-14 -1.67477 -47.1857)
(2.79561e-14 -1.56423 -43.4238)
(4.29383e-14 -1.42199 -40.0213)
(6.19567e-14 -1.28916 -37.0004)
(7.9474e-14 -1.18922 -34.298)
(9.60014e-14 -1.12564 -31.8185)
(1.12112e-13 -1.08871 -29.4801)
(1.25886e-13 -1.0663 -27.2331)
(1.40953e-13 -1.04955 -25.0535)
(1.57024e-13 -1.03355 -22.9322)
(1.6609e-13 -1.01631 -20.8671)
(1.75741e-13 -0.997359 -18.8578)
(1.85113e-13 -0.97686 -16.905)
(1.8781e-13 -0.955397 -15.0091)
(1.88279e-13 -0.933841 -13.1699)
(1.7631e-13 -0.913271 -11.3863)
(1.74143e-13 -0.894845 -9.65588)
(1.55957e-13 -0.879666 -7.97548)
(1.44748e-13 -0.868592 -6.34172)
(1.4748e-13 -0.861374 -4.7511)
(1.2086e-13 -0.856251 -3.198)
(1.13069e-13 -0.853475 -1.67535)
(1.6925e-13 -0.846036 -0.211883)
(2.11046e-13 -0.791102 1.16131)
(2.21568e-13 -0.727606 2.51621)
(1.80108e-13 -0.713218 3.85534)
(1.47047e-13 -0.724354 5.16964)
(1.46447e-13 -0.741674 6.47862)
(1.69217e-13 -0.762144 7.80158)
(1.78345e-13 -0.785226 9.14316)
(1.84473e-13 -0.80964 10.503)
(1.87536e-13 -0.835825 11.8874)
(1.89336e-13 -0.863908 13.2966)
(1.74693e-13 -0.897391 14.7507)
(1.7054e-13 -0.933599 16.2261)
(1.69855e-13 -0.983316 17.8089)
(1.66398e-13 -1.02857 19.3278)
(1.64378e-13 -1.11488 21.2424)
(1.6424e-13 -1.14587 22.4664)
(1.56601e-13 -1.36483 25.5756)
(-7.34997e-14 0.0329634 -21.6938)
(-7.59126e-14 -0.00645752 -21.6809)
(-7.40633e-14 -0.0307636 -21.6039)
(-6.54374e-14 -0.0560114 -21.3899)
(-7.06487e-14 -0.0790461 -21.0861)
(-6.45717e-14 -0.0991085 -20.692)
(-5.71504e-14 -0.11182 -20.2354)
(-6.27309e-14 -0.110785 -19.761)
(-5.88345e-14 -0.0911793 -19.3363)
(-5.74944e-14 -0.0539232 -19.0271)
(-5.65692e-14 -0.00276542 -18.881)
(-5.51602e-14 0.0587102 -18.9278)
(-5.30579e-14 0.127135 -19.1866)
(-5.12027e-14 0.198447 -19.6676)
(-5.12021e-14 0.265456 -20.3676)
(-4.42085e-14 0.313253 -21.2538)
(-4.09612e-14 0.316377 -22.2325)
(-3.90691e-14 0.249087 -23.1252)
(-3.53563e-14 0.110297 -23.7145)
(-3.63093e-14 -0.0721261 -23.8448)
(-2.47258e-14 -0.285887 -23.3962)
(-2.70548e-14 -0.483397 -22.4176)
(-4.22015e-14 -0.667183 -20.9855)
(-4.18348e-14 -0.829146 -19.138)
(-3.85767e-14 -0.965522 -16.948)
(-5.0982e-14 -1.07587 -14.4841)
(-4.94813e-14 -1.15914 -11.822)
(-4.13713e-14 -1.19211 -9.01979)
(-5.27021e-14 -1.20736 -6.07584)
(-5.35834e-14 -1.35415 -3.16112)
(-3.69774e-14 -1.44602 -0.41848)
(3.62827e-15 -0.992411 1.93212)
(-7.70143e-14 -0.0347768 3.17537)
(-6.20249e-14 1.60126 3.22224)
(-5.65857e-14 2.58186 -0.544781)
(-2.17082e-14 2.34522 -6.7551)
(-9.85717e-15 1.88961 -10.5237)
(-9.24963e-16 1.79561 -14.062)
(6.53252e-15 1.68176 -17.2374)
(1.14592e-14 1.60539 -20.1248)
(1.38164e-14 1.59303 -22.9107)
(1.73628e-14 1.64401 -25.6995)
(2.02063e-14 1.73803 -28.6075)
(2.3448e-14 1.85002 -31.6756)
(2.53132e-14 1.96381 -34.9118)
(2.81254e-14 2.06963 -38.3032)
(2.95823e-14 2.16423 -41.8281)
(2.983e-14 2.24617 -45.4669)
(2.72439e-14 2.31 -49.2)
(2.10965e-14 2.33601 -52.9954)
(1.03843e-14 2.27436 -56.7731)
(-4.8651e-15 2.02971 -60.3327)
(-2.16524e-14 1.47338 -63.2433)
(-3.72569e-14 0.55479 -64.845)
(-4.59832e-14 -0.50455 -64.6835)
(-4.37414e-14 -1.35173 -63.0551)
(-3.89866e-14 -1.96424 -60.5262)
(-2.19005e-14 -2.42407 -57.3237)
(-1.55754e-15 -2.73139 -53.6151)
(1.46196e-14 -2.86295 -49.6328)
(3.78219e-14 -2.81228 -45.6385)
(5.7157e-14 -2.6234 -41.8775)
(7.89188e-14 -2.37476 -38.5058)
(1.00374e-13 -2.13952 -35.5536)
(1.22844e-13 -1.96127 -32.953)
(1.43971e-13 -1.8475 -30.5948)
(1.63406e-13 -1.78137 -28.3833)
(1.80314e-13 -1.74167 -26.2601)
(1.94078e-13 -1.71313 -24.1965)
(2.02614e-13 -1.68738 -22.1805)
(2.05734e-13 -1.66102 -20.2082)
(2.03077e-13 -1.63293 -18.2782)
(1.98927e-13 -1.60296 -16.391)
(1.87318e-13 -1.57153 -14.548)
(1.72211e-13 -1.53955 -12.7505)
(1.60078e-13 -1.50829 -10.9993)
(1.38353e-13 -1.47927 -9.29432)
(1.17389e-13 -1.454 -7.63461)
(9.29568e-14 -1.43377 -6.01855)
(7.57499e-14 -1.41883 -4.44409)
(6.70002e-14 -1.40721 -2.90754)
(8.55441e-14 -1.39345 -1.40728)
(1.26519e-13 -1.36124 0.0241015)
(1.43304e-13 -1.29343 1.3755)
(1.62726e-13 -1.23038 2.71494)
(1.6135e-13 -1.21479 4.05195)
(1.64247e-13 -1.2266 5.37628)
(1.64597e-13 -1.24915 6.69842)
(1.66592e-13 -1.27849 8.03119)
(1.53493e-13 -1.3131 9.38033)
(1.56852e-13 -1.35095 10.7471)
(1.63762e-13 -1.39248 12.1378)
(1.66089e-13 -1.4379 13.5517)
(1.69059e-13 -1.49217 15.0094)
(1.73169e-13 -1.55232 16.4859)
(1.7816e-13 -1.63285 18.0695)
(1.77912e-13 -1.71035 19.584)
(1.78051e-13 -1.84598 21.4946)
(1.76671e-13 -1.90703 22.7101)
(1.65649e-13 -2.24513 25.7878)
(-7.24975e-14 0.0455969 -21.4615)
(-6.64247e-14 -0.00697699 -21.4698)
(-6.19257e-14 -0.0428046 -21.3959)
(-6.14745e-14 -0.0792228 -21.1811)
(-5.83067e-14 -0.112786 -20.8673)
(-5.90678e-14 -0.142058 -20.4538)
(-6.80805e-14 -0.160632 -19.9687)
(-6.21057e-14 -0.159289 -19.4598)
(-5.37897e-14 -0.131261 -18.9995)
(-5.35819e-14 -0.0781119 -18.6583)
(-5.15447e-14 -0.00529399 -18.4863)
(-4.94455e-14 0.0822278 -18.5157)
(-4.49912e-14 0.17993 -18.7677)
(-4.6252e-14 0.282347 -19.2539)
(-5.12063e-14 0.379649 -19.9724)
(-4.95172e-14 0.451052 -20.8922)
(-4.54804e-14 0.460063 -21.9196)
(-4.68071e-14 0.368334 -22.8704)
(-4.72152e-14 0.172546 -23.5131)
(-4.16919e-14 -0.0879031 -23.6828)
(-3.7667e-14 -0.39247 -23.2438)
(-3.78025e-14 -0.669773 -22.2706)
(-4.41146e-14 -0.928749 -20.8472)
(-4.27103e-14 -1.15924 -19)
(-4.27087e-14 -1.35395 -16.8051)
(-4.26521e-14 -1.51073 -14.3253)
(-4.14441e-14 -1.62793 -11.629)
(-3.80602e-14 -1.68648 -8.77367)
(-5.50181e-14 -1.74156 -5.77859)
(-6.4602e-14 -1.8884 -2.81394)
(-3.36332e-14 -1.92267 -0.0596352)
(-3.02768e-14 -1.3182 2.35899)
(-4.31321e-14 -0.0962386 3.58095)
(-7.16772e-14 1.90134 3.9503)
(-6.7084e-14 3.50503 1.62792)
(-9.06221e-15 3.44246 -4.28206)
(-2.63116e-14 2.73353 -8.96366)
(3.85452e-15 2.52303 -12.5136)
(1.12118e-14 2.36319 -15.6987)
(-5.01767e-15 2.24594 -18.5573)
(1.48433e-14 2.23069 -21.2913)
(1.90316e-14 2.30775 -24.0462)
(1.3796e-14 2.44557 -26.9375)
(1.78204e-14 2.60862 -30.0063)
(2.56204e-14 2.77352 -33.2573)
(2.69828e-14 2.92681 -36.6738)
(2.76809e-14 3.06449 -40.2309)
(2.52322e-14 3.18524 -43.908)
(2.01583e-14 3.28204 -47.6871)
(8.20312e-15 3.32713 -51.5396)
(-9.92386e-15 3.24755 -55.3864)
(-2.65188e-14 2.90032 -59.0103)
(-5.05143e-14 2.09104 -61.9212)
(-5.27536e-14 0.748491 -63.3593)
(-4.18058e-14 -0.773403 -62.8678)
(-2.84118e-14 -1.93763 -60.9781)
(-1.16952e-14 -2.76001 -58.382)
(-2.88617e-15 -3.38506 -55.2243)
(1.70564e-14 -3.80993 -51.6117)
(3.12081e-14 -3.99437 -47.7445)
(5.23436e-14 -3.92262 -43.865)
(7.01237e-14 -3.65102 -40.2165)
(9.52261e-14 -3.28882 -36.9628)
(1.15136e-13 -2.94355 -34.1411)
(1.36513e-13 -2.68239 -31.6812)
(1.5604e-13 -2.51848 -29.4629)
(1.75856e-13 -2.42689 -27.379)
(1.9434e-13 -2.37544 -25.3659)
(2.11078e-13 -2.34111 -23.3944)
(2.21813e-13 -2.31146 -21.4544)
(2.23755e-13 -2.28135 -19.5436)
(2.11664e-13 -2.24888 -17.6629)
(1.95579e-13 -2.21345 -15.8147)
(1.73027e-13 -2.17534 -14.0023)
(1.61874e-13 -2.13553 -12.229)
(1.51727e-13 -2.09555 -10.4974)
(1.25886e-13 -2.05722 -8.8092)
(1.0676e-13 -2.02228 -7.16482)
(6.46801e-14 -1.99206 -5.56414)
(4.26666e-14 -1.96685 -4.00659)
(1.40121e-14 -1.94442 -2.49048)
(2.31972e-14 -1.91604 -1.01795)
(1.14286e-13 -1.86379 0.368186)
(1.31681e-13 -1.78789 1.69913)
(1.4626e-13 -1.72573 3.03138)
(1.32061e-13 -1.71015 4.36707)
(1.37149e-13 -1.72602 5.69776)
(1.35199e-13 -1.75739 7.02926)
(1.37853e-13 -1.79736 8.37065)
(1.33047e-13 -1.84331 9.72771)
(1.47709e-13 -1.89372 11.1019)
(1.53333e-13 -1.94973 12.4994)
(1.58823e-13 -2.01201 13.9186)
(1.65582e-13 -2.08645 15.3804)
(1.71131e-13 -2.17029 16.8582)
(1.74713e-13 -2.28011 18.4423)
(1.74914e-13 -2.39011 19.9519)
(1.74776e-13 -2.57024 21.8563)
(1.68146e-13 -2.66508 23.0634)
(1.596e-13 -3.10604 26.1037)
(-6.78869e-14 0.0591232 -21.2544)
(-6.31986e-14 -0.00594989 -21.2875)
(-6.10723e-14 -0.0545178 -21.223)
(-6.0405e-14 -0.102942 -21.0139)
(-6.58868e-14 -0.148279 -20.6962)
(-5.69353e-14 -0.188052 -20.2683)
(-5.10873e-14 -0.21359 -19.7586)
(-5.67281e-14 -0.212526 -19.2181)
(-5.24332e-14 -0.176022 -18.7247)
(-4.9214e-14 -0.106424 -18.3534)
(-4.05513e-14 -0.0110458 -18.1568)
(-4.1245e-14 0.10372 -18.1691)
(-4.84648e-14 0.232127 -18.4142)
(-4.94298e-14 0.367152 -18.9055)
(-5.8739e-14 0.496166 -19.6418)
(-5.6638e-14 0.592474 -20.5927)
(-5.10872e-14 0.608288 -21.6648)
(-4.97111e-14 0.491652 -22.6693)
(-4.84032e-14 0.236478 -23.3618)
(-4.56413e-14 -0.104993 -23.5672)
(-4.2654e-14 -0.502459 -23.1317)
(-4.39469e-14 -0.858899 -22.1578)
(-5.13483e-14 -1.19372 -20.7381)
(-5.43095e-14 -1.4951 -18.8883)
(-5.83678e-14 -1.7521 -16.6888)
(-5.82485e-14 -1.96209 -14.1983)
(-5.70528e-14 -2.12186 -11.4805)
(-3.1049e-14 -2.21045 -8.59282)
(-5.3384e-14 -2.2939 -5.56849)
(-7.23604e-14 -2.42803 -2.56883)
(-6.54235e-14 -2.41035 0.238241)
(-6.80935e-14 -1.66665 2.75966)
(-6.48555e-14 -0.213181 4.06791)
(-3.40381e-14 2.07049 4.69833)
(-6.87025e-14 4.21276 3.25301)
(-1.78126e-14 4.60336 -1.49356)
(-2.63439e-14 3.70161 -7.26628)
(-5.86739e-17 3.26099 -11.0061)
(1.97906e-15 3.04619 -14.155)
(-1.45765e-15 2.88207 -16.9899)
(8.45439e-15 2.86231 -19.6588)
(6.52203e-15 2.97007 -22.3609)
(6.78553e-15 3.15614 -25.2225)
(2.0201e-14 3.37401 -28.2788)
(2.36913e-14 3.59283 -31.5302)
(2.52065e-14 3.79542 -34.9545)
(2.50975e-14 3.97745 -38.5226)
(2.15611e-14 4.13843 -42.2128)
(1.3195e-14 4.27049 -46.009)
(-3.47973e-18 4.33768 -49.8874)
(-1.92948e-14 4.24078 -53.7682)
(-3.38656e-14 3.78051 -57.412)
(-4.60148e-14 2.6864 -60.2591)
(-3.81961e-14 0.875957 -61.4551)
(-2.04214e-14 -1.11449 -60.6098)
(-3.37474e-15 -2.54165 -58.5677)
(1.50979e-14 -3.52587 -56.0504)
(2.45255e-14 -4.29417 -53.0501)
(3.59278e-14 -4.83111 -49.6119)
(4.47363e-14 -5.07016 -45.9217)
(6.04066e-14 -4.98203 -42.2127)
(7.82952e-14 -4.63212 -38.7263)
(1.01465e-13 -4.15885 -35.6273)
(1.19796e-13 -3.70487 -32.9522)
(1.37719e-13 -3.36301 -30.6266)
(1.54245e-13 -3.15312 -28.5231)
(1.67143e-13 -3.04146 -26.5308)
(1.79527e-13 -2.98354 -24.5872)
(1.8952e-13 -2.9478 -22.6679)
(1.98665e-13 -2.91768 -20.7674)
(2.07403e-13 -2.88652 -18.8869)
(2.08368e-13 -2.85183 -17.0296)
(2.02548e-13 -2.81266 -15.1994)
(1.86858e-13 -2.76914 -13.4014)
(1.66009e-13 -2.72234 -11.6401)
(1.39178e-13 -2.67413 -9.91966)
(1.25639e-13 -2.62672 -8.24294)
(1.06692e-13 -2.58219 -6.61154)
(6.62757e-14 -2.54205 -5.02622)
(4.61747e-14 -2.50655 -3.48733)
(7.77454e-15 -2.47207 -1.99479)
(-1.29542e-14 -2.42438 -0.555833)
(8.3797e-14 -2.35265 0.792637)
(1.42191e-13 -2.27417 2.10835)
(1.265e-13 -2.21921 3.43589)
(1.03325e-13 -2.20842 4.77154)
(1.01448e-13 -2.22961 6.10743)
(1.08233e-13 -2.26857 7.44662)
(1.17106e-13 -2.31778 8.79579)
(1.30632e-13 -2.3744 10.1603)
(1.38855e-13 -2.43703 11.5415)
(1.50343e-13 -2.50705 12.9453)
(1.54896e-13 -2.58557 14.369)
(1.53741e-13 -2.67921 15.8337)
(1.53744e-13 -2.78593 17.3114)
(1.54896e-13 -2.9233 18.8936)
(1.55147e-13 -3.06524 20.3967)
(1.51735e-13 -3.28583 22.291)
(1.48454e-13 -3.41584 23.489)
(1.4972e-13 -3.94575 26.4847)
(-6.33806e-14 0.0744671 -21.0891)
(-5.97227e-14 -0.00316312 -21.1163)
(-5.5168e-14 -0.0647219 -21.071)
(-5.07055e-14 -0.125918 -20.869)
(-5.00426e-14 -0.18394 -20.5507)
(-4.32745e-14 -0.235229 -20.1112)
(-4.13904e-14 -0.268586 -19.5797)
(-5.13236e-14 -0.268267 -19.0112)
(-5.82176e-14 -0.223307 -18.4892)
(-5.02307e-14 -0.136975 -18.0923)
(-3.57514e-14 -0.0184856 -17.8743)
(-3.92336e-14 0.124451 -17.8711)
(-5.19205e-14 0.284903 -18.1092)
(-5.0984e-14 0.454159 -18.6046)
(-5.29637e-14 0.61665 -19.3574)
(-5.24957e-14 0.739848 -20.3382)
(-5.19815e-14 0.764646 -21.4543)
(-4.7762e-14 0.624378 -22.5117)
(-3.73877e-14 0.308783 -23.2525)
(-3.43051e-14 -0.116459 -23.4902)
(-3.92827e-14 -0.610102 -23.0525)
(-4.46134e-14 -1.04565 -22.0729)
(-4.7045e-14 -1.45606 -20.6515)
(-5.56442e-14 -1.82827 -18.7945)
(-6.44041e-14 -2.14672 -16.5872)
(-6.08932e-14 -2.40937 -14.0856)
(-6.11601e-14 -2.61292 -11.3496)
(-5.82665e-14 -2.73473 -8.43783)
(-4.91746e-14 -2.84755 -5.39254)
(-8.14345e-14 -2.97417 -2.36198)
(-6.72606e-14 -2.91346 0.505009)
(-7.19032e-14 -2.04352 3.12747)
(-5.43046e-14 -0.391241 4.65062)
(-3.65873e-14 2.1482 5.41412)
(-4.41202e-14 4.72128 4.47447)
(-1.7941e-14 5.73014 1.07283)
(-2.86579e-14 4.7989 -5.33434)
(-5.0519e-15 4.03249 -9.61751)
(-5.78853e-15 3.72391 -12.6696)
(-9.85655e-15 3.51273 -15.4639)
(-1.33643e-14 3.48383 -18.0688)
(9.68561e-16 3.62633 -20.6987)
(9.9084e-15 3.86597 -23.516)
(1.54898e-14 4.14224 -26.5472)
(2.27485e-14 4.41734 -29.7838)
(2.44652e-14 4.6704 -33.1982)
(2.41771e-14 4.89732 -36.7565)
(1.90964e-14 5.0993 -40.4355)
(8.64229e-15 5.26835 -44.222)
(-6.26613e-15 5.35991 -48.0965)
(-2.24661e-14 5.24468 -51.9787)
(-3.44411e-14 4.65814 -55.6073)
(-3.65053e-14 3.24684 -58.3614)
(-2.32021e-14 0.935612 -59.3201)
(-3.68506e-15 -1.50411 -58.208)
(1.06064e-14 -3.12839 -56.1529)
(2.10319e-14 -4.24011 -53.7808)
(3.21516e-14 -5.14541 -50.9373)
(4.32341e-14 -5.7953 -47.6525)
(5.19744e-14 -6.08925 -44.1277)
(7.10348e-14 -5.98521 -40.5973)
(8.80996e-14 -5.5585 -37.2985)
(1.06531e-13 -4.97741 -34.3859)
(1.21754e-13 -4.4202 -31.8814)
(1.36314e-13 -4.00528 -29.6986)
(1.47637e-13 -3.75813 -27.7036)
(1.56867e-13 -3.63445 -25.7858)
(1.62844e-13 -3.57628 -23.8894)
(1.65659e-13 -3.54336 -21.9981)
(1.64122e-13 -3.51546 -20.1132)
(1.62958e-13 -3.485 -18.2411)
(1.60563e-13 -3.44923 -16.3878)
(1.65602e-13 -3.40702 -14.5595)
(1.69747e-13 -3.35836 -12.7627)
(1.71974e-13 -3.30443 -11.0036)
(1.49776e-13 -3.24742 -9.28764)
(1.26805e-13 -3.19 -7.61872)
(9.69912e-14 -3.13462 -5.99915)
(6.56981e-14 -3.08304 -4.43004)
(3.81439e-14 -3.03532 -2.91196)
(1.02499e-14 -2.98592 -1.44658)
(-4.95785e-16 -2.91906 -0.0523874)
(7.19737e-14 -2.83346 1.27303)
(1.37814e-13 -2.75551 2.58558)
(1.11157e-13 -2.70986 3.91167)
(8.16292e-14 -2.70527 5.24779)
(9.1639e-14 -2.73232 6.58779)
(9.68055e-14 -2.77914 7.93328)
(1.05506e-13 -2.83799 9.28931)
(1.09471e-13 -2.90549 10.6606)
(1.21381e-13 -2.98021 12.0481)
(1.30834e-13 -3.0638 13.4571)
(1.30213e-13 -3.15792 14.8842)
(1.27438e-13 -3.26983 16.3501)
(1.30183e-13 -3.39848 17.8258)
(1.32957e-13 -3.56185 19.4035)
(1.31827e-13 -3.73477 20.898)
(1.33534e-13 -3.9925 22.7783)
(1.38641e-13 -4.1576 23.9662)
(1.38733e-13 -4.76449 26.9118)
(-5.57059e-14 0.0958232 -20.9094)
(-5.24708e-14 0.000623867 -20.9543)
(-4.88321e-14 -0.0732424 -20.9246)
(-4.92764e-14 -0.148277 -20.7318)
(-5.38397e-14 -0.219992 -20.4143)
(-5.0894e-14 -0.283998 -19.9652)
(-4.54847e-14 -0.326118 -19.4144)
(-5.03356e-14 -0.326961 -18.8213)
(-4.87541e-14 -0.273421 -18.2755)
(-3.4588e-14 -0.169977 -17.8582)
(-3.19124e-14 -0.0278656 -17.6232)
(-4.14152e-14 0.14404 -17.6071)
(-4.39236e-14 0.337752 -17.839)
(-4.59171e-14 0.542804 -18.3383)
(-4.92625e-14 0.740472 -19.1074)
(-4.81374e-14 0.892271 -20.1185)
(-4.08154e-14 0.927509 -21.2795)
(-3.93264e-14 0.763479 -22.3904)
(-3.8197e-14 0.38453 -23.1784)
(-4.08771e-14 -0.128278 -23.445)
(-4.68248e-14 -0.720966 -22.9999)
(-4.50445e-14 -1.23501 -22.0102)
(-4.70078e-14 -1.72115 -20.5815)
(-5.76992e-14 -2.16499 -18.7115)
(-6.18026e-14 -2.54548 -16.4913)
(-6.58536e-14 -2.86176 -13.9746)
(-7.21455e-14 -3.11038 -11.2188)
(-7.0321e-14 -3.26568 -8.28516)
(-4.56172e-14 -3.40575 -5.22283)
(-6.31963e-14 -3.52757 -2.16209)
(-7.41524e-14 -3.43102 0.76333)
(-5.6303e-14 -2.45404 3.47077)
(-5.09777e-14 -0.636359 5.19249)
(-4.11212e-14 2.16441 6.08591)
(-4.08765e-14 5.07449 5.48234)
(-2.15815e-14 6.73746 3.16118)
(-3.23073e-14 6.03092 -2.99643)
(-9.6577e-15 4.88405 -8.35213)
(-1.24192e-14 4.3818 -11.3271)
(-1.833e-14 4.13458 -13.9962)
(-2.15379e-14 4.09339 -16.548)
(4.44025e-16 4.27184 -19.0965)
(7.68142e-15 4.5711 -21.8535)
(1.64253e-14 4.90946 -24.8484)
(2.07084e-14 5.24259 -28.0567)
(2.14842e-14 5.54666 -31.4446)
(1.84293e-14 5.81835 -34.9733)
(8.74487e-15 6.06145 -38.6184)
(-6.87796e-15 6.2686 -42.3692)
(-2.39998e-14 6.38623 -46.2106)
(-3.53058e-14 6.25177 -50.0639)
(-3.92126e-14 5.52865 -53.6558)
(-2.87769e-14 3.77693 -56.3264)
(-1.54904e-14 0.947676 -57.1141)
(3.46402e-15 -1.91282 -55.8508)
(1.42699e-14 -3.6835 -53.8576)
(2.05302e-14 -4.90957 -51.6076)
(3.00085e-14 -5.95316 -48.8646)
(4.84872e-14 -6.71242 -45.6928)
(6.14171e-14 -7.05365 -42.3204)
(8.60325e-14 -6.92697 -38.9805)
(1.06262e-13 -6.42072 -35.8968)
(1.22317e-13 -5.73474 -33.2)
(1.30891e-13 -5.08261 -30.8863)
(1.381e-13 -4.60625 -28.8537)
(1.41639e-13 -4.33412 -26.964)
(1.46831e-13 -4.2091 -25.111)
(1.49618e-13 -4.15858 -23.2478)
(1.47517e-13 -4.13356 -21.3678)
(1.39506e-13 -4.11076 -19.4805)
(1.28554e-13 -4.08234 -17.5988)
(1.13889e-13 -4.04585 -15.7334)
(1.12307e-13 -4.00029 -13.8937)
(1.10811e-13 -3.94568 -12.0883)
(1.22096e-13 -3.88337 -10.3249)
(1.31207e-13 -3.81599 -8.61015)
(1.13799e-13 -3.74678 -6.94842)
(8.66849e-14 -3.67875 -5.34205)
(6.84114e-14 -3.61399 -3.79167)
(4.79341e-14 -3.552 -2.29724)
(1.05534e-14 -3.48391 -0.862115)
(-2.64822e-14 -3.39868 0.490322)
(5.62156e-14 -3.30712 1.80208)
(9.69544e-14 -3.23441 3.11806)
(9.22804e-14 -3.19799 4.44544)
(8.97246e-14 -3.20057 5.78248)
(8.57566e-14 -3.23454 7.12576)
(8.17178e-14 -3.28968 8.47665)
(8.99872e-14 -3.35827 9.83896)
(9.47475e-14 -3.4365 11.2166)
(1.05665e-13 -3.52288 12.6098)
(1.10612e-13 -3.61931 14.0232)
(1.02747e-13 -3.7281 15.4525)
(1.01407e-13 -3.85706 16.918)
(1.02726e-13 -4.00643 18.3898)
(1.09825e-13 -4.19421 19.9603)
(1.14682e-13 -4.39689 21.4442)
(1.19415e-13 -4.68892 23.3073)
(1.2145e-13 -4.88827 24.4844)
(1.16735e-13 -5.5616 27.377)
(-5.02716e-14 0.11709 -20.7245)
(-4.82572e-14 0.0068391 -20.7932)
(-4.32557e-14 -0.0800799 -20.7764)
(-4.35563e-14 -0.169525 -20.5938)
(-4.00546e-14 -0.255867 -20.2782)
(-3.76269e-14 -0.333602 -19.821)
(-3.84229e-14 -0.385242 -19.2531)
(-3.25849e-14 -0.387512 -18.6387)
(-2.39349e-14 -0.325246 -18.0736)
(-2.58911e-14 -0.204466 -17.6412)
(-2.73671e-14 -0.0385065 -17.3936)
(-3.12453e-14 0.162849 -17.3676)
(-3.34409e-14 0.390781 -17.5949)
(-3.58433e-14 0.633079 -18.0985)
(-3.59499e-14 0.867669 -18.8842)
(-3.75741e-14 1.04995 -19.9265)
(-3.95313e-14 1.09742 -21.1339)
(-3.99099e-14 0.910115 -22.2991)
(-4.40825e-14 0.465614 -23.1328)
(-4.81117e-14 -0.137842 -23.4244)
(-5.12747e-14 -0.832746 -22.9665)
(-5.14947e-14 -1.4253 -21.9619)
(-5.16007e-14 -1.98732 -20.5193)
(-5.99658e-14 -2.50315 -18.6294)
(-6.25237e-14 -2.94541 -16.3894)
(-6.64617e-14 -3.31542 -13.8518)
(-7.14332e-14 -3.6099 -11.0722)
(-6.09312e-14 -3.79913 -8.1159)
(-6.40799e-14 -3.96636 -5.0385)
(-6.06629e-14 -4.08724 -1.95139)
(-8.06658e-14 -3.96068 1.02474)
(-5.92581e-14 -2.89146 3.79885)
(-5.71907e-14 -0.924775 5.67533)
(-4.50813e-14 2.12785 6.70974)
(-3.92731e-14 5.31747 6.39026)
(-2.22342e-14 7.56109 4.75622)
(-3.65491e-14 7.36031 -0.343072)
(-1.53398e-14 5.86883 -7.02471)
(-1.99816e-14 5.01434 -10.2296)
(-2.75398e-14 4.73353 -12.6193)
(-3.11103e-14 4.69138 -15.1)
(-7.40072e-15 4.9037 -17.5782)
(3.87075e-15 5.26755 -20.2622)
(1.56024e-14 5.67213 -23.2109)
(1.61954e-14 6.06434 -26.3803)
(1.4342e-14 6.41917 -29.7269)
(7.15589e-15 6.73474 -33.2078)
(-5.15364e-15 7.0183 -36.7972)
(-1.91396e-14 7.26388 -40.4867)
(-2.87453e-14 7.40899 -44.2664)
(-3.21944e-14 7.25637 -48.064)
(-3.36077e-14 6.39333 -51.6107)
(-2.14001e-14 4.29116 -54.2368)
(-2.61292e-15 0.938532 -54.9513)
(2.15395e-14 -2.31891 -53.6374)
(2.90046e-14 -4.21236 -51.7049)
(2.93677e-14 -5.55071 -49.5187)
(2.7843e-14 -6.73059 -46.8271)
(4.51302e-14 -7.58764 -43.7481)
(6.01269e-14 -7.96152 -40.5321)
(8.88518e-14 -7.80111 -37.4024)
(1.16708e-13 -7.2118 -34.5589)
(1.40623e-13 -6.42636 -32.0966)
(1.5014e-13 -5.69134 -29.9778)
(1.48159e-13 -5.16796 -28.0864)
(1.41195e-13 -4.8845 -26.287)
(1.34154e-13 -4.76937 -24.483)
(1.28695e-13 -4.73486 -22.638)
(1.22861e-13 -4.72331 -20.7546)
(1.1393e-13 -4.7087 -18.8504)
(1.01274e-13 -4.6834 -16.9453)
(8.34751e-14 -4.64582 -15.0561)
(7.2096e-14 -4.59558 -13.1962)
(6.81599e-14 -4.53309 -11.3768)
(7.96209e-14 -4.46014 -9.60701)
(8.89778e-14 -4.37996 -7.89396)
(9.0273e-14 -4.29658 -6.24189)
(7.268e-14 -4.21377 -4.65215)
(6.56496e-14 -4.13397 -3.124)
(5.73719e-14 -4.05554 -1.65652)
(9.6986e-15 -3.96771 -0.258142)
(-2.02515e-14 -3.86811 1.06969)
(4.14546e-14 -3.77619 2.37822)
(6.83771e-14 -3.71175 3.69687)
(7.42896e-14 -3.68405 5.02598)
(6.92022e-14 -3.69405 6.36426)
(6.76711e-14 -3.73558 7.71044)
(6.84597e-14 -3.79946 9.06618)
(6.9702e-14 -3.87797 10.4344)
(8.18582e-14 -3.96685 11.8181)
(9.03682e-14 -4.06452 13.2166)
(8.6541e-14 -4.17303 14.6336)
(8.20662e-14 -4.29547 16.0639)
(8.45994e-14 -4.44021 17.5273)
(9.05912e-14 -4.60897 18.9933)
(9.57525e-14 -4.8196 20.5543)
(9.97893e-14 -5.05074 22.0258)
(9.93171e-14 -5.37462 23.8693)
(1.00145e-13 -5.60718 25.0349)
(9.46085e-14 -6.33756 27.8742)
(-4.79441e-14 0.13894 -20.5372)
(-4.86028e-14 0.0152817 -20.6275)
(-3.97617e-14 -0.0851246 -20.6227)
(-3.35816e-14 -0.189535 -20.4508)
(-2.59596e-14 -0.291425 -20.138)
(-1.00791e-14 -0.383908 -19.6742)
(-8.23666e-15 -0.445788 -19.091)
(-1.64273e-14 -0.449635 -18.4583)
(-8.83042e-15 -0.378352 -17.8781)
(-1.42557e-14 -0.23994 -17.4352)
(-2.47047e-14 -0.0499557 -17.1792)
(-2.4844e-14 0.181193 -17.1463)
(-2.74911e-14 0.444158 -17.3706)
(-3.06132e-14 0.725081 -17.8791)
(-3.2835e-14 0.998376 -18.6816)
(-3.58787e-14 1.21305 -19.7561)
(-4.30881e-14 1.27441 -21.0113)
(-4.84292e-14 1.06372 -22.2316)
(-4.7662e-14 0.550265 -23.1092)
(-5.06571e-14 -0.147789 -23.4212)
(-5.90658e-14 -0.947977 -22.9438)
(-6.01304e-14 -1.61878 -21.9188)
(-6.49312e-14 -2.25704 -20.4546)
(-7.46491e-14 -2.8454 -18.5366)
(-6.21223e-14 -3.34922 -16.2685)
(-6.76794e-14 -3.77287 -13.7026)
(-7.03618e-14 -4.11321 -10.8933)
(-7.50099e-14 -4.3354 -7.91219)
(-6.66233e-14 -4.52881 -4.82148)
(-6.48168e-14 -4.65164 -1.71464)
(-8.14961e-14 -4.49937 1.30055)
(-5.91308e-14 -3.34902 4.12132)
(-6.78294e-14 -1.24385 6.11222)
(-6.35929e-14 2.03511 7.28106)
(-4.29438e-14 5.48622 7.23076)
(-1.84328e-14 8.18104 5.99798)
(-3.47536e-14 8.69075 2.3033)
(-2.2846e-14 7.04599 -5.17905)
(-2.83164e-14 5.66721 -9.37624)
(-3.511e-14 5.28043 -11.4158)
(-2.34513e-14 5.27506 -13.72)
(-5.49543e-15 5.52258 -16.1526)
(9.13572e-16 5.95211 -18.7628)
(1.21083e-14 6.42705 -21.6565)
(9.44423e-15 6.87887 -24.7795)
(4.66532e-15 7.28316 -28.0726)
(-4.36096e-15 7.64083 -31.4894)
(-1.43427e-14 7.96326 -35.0029)
(-2.04053e-14 8.24671 -38.6066)
(-2.20404e-14 8.42079 -42.2965)
(-2.37162e-14 8.2543 -46.0137)
(-2.38093e-14 7.25747 -49.5135)
(-1.0664e-14 4.80878 -52.1456)
(1.85185e-14 0.932554 -52.8851)
(4.46336e-14 -2.71424 -51.5837)
(4.21905e-14 -4.72731 -49.6764)
(3.62777e-14 -6.17766 -47.503)
(3.53476e-14 -7.48488 -44.8366)
(5.02183e-14 -8.42161 -41.8468)
(6.2296e-14 -8.80946 -38.7972)
(8.41014e-14 -8.60255 -35.8935)
(1.12606e-13 -7.92772 -33.3057)
(1.43418e-13 -7.05183 -31.0848)
(1.58202e-13 -6.25006 -29.1537)
(1.55814e-13 -5.69653 -27.3852)
(1.41193e-13 -5.41557 -25.654)
(1.24257e-13 -5.3206 -23.8783)
(1.08899e-13 -5.30944 -22.0344)
(9.656e-14 -5.31627 -20.1339)
(8.5521e-14 -5.31249 -18.2017)
(7.50133e-14 -5.2909 -16.2647)
(6.03468e-14 -5.2511 -14.3454)
(5.03703e-14 -5.19391 -12.4619)
(4.41604e-14 -5.12068 -10.6281)
(5.33714e-14 -5.03399 -8.85416)
(7.91643e-14 -4.93803 -7.14682)
(7.55614e-14 -4.83789 -5.50914)
(6.19725e-14 -4.73824 -3.94054)
(6.40726e-14 -4.64171 -2.4381)
(6.77612e-14 -4.54438 -1.00046)
(2.85115e-14 -4.43902 0.359908)
(6.71683e-15 -4.33232 1.67672)
(4.03239e-14 -4.24338 2.9912)
(7.28981e-14 -4.18711 4.31283)
(6.02289e-14 -4.1677 5.64311)
(6.14945e-14 -4.18546 6.98246)
(6.06252e-14 -4.23519 8.33124)
(6.28252e-14 -4.30835 9.69145)
(6.81999e-14 -4.39702 11.0653)
(7.71825e-14 -4.49643 12.4547)
(8.39349e-14 -4.60484 13.8579)
(8.00919e-14 -4.72452 15.2777)
(7.4901e-14 -4.85938 16.7077)
(7.80459e-14 -5.01844 18.1671)
(7.90538e-14 -5.20512 19.6252)
(8.16864e-14 -5.4371 21.1743)
(8.58223e-14 -5.69547 22.6317)
(8.55948e-14 -6.04911 24.4539)
(8.54439e-14 -6.31402 25.6076)
(7.93988e-14 -7.09311 28.3954)
(-5.16637e-14 0.161595 -20.3443)
(-4.7257e-14 0.0260579 -20.4562)
(-4.11355e-14 -0.0883763 -20.4618)
(-3.73141e-14 -0.20813 -20.3007)
(-3.25237e-14 -0.326431 -19.9914)
(-2.92411e-14 -0.434602 -19.5221)
(-2.5286e-14 -0.507343 -18.9255)