/*--------------------------------*- C++ -*----------------------------------*\
| =========                 |                                                 |
| \\      /  F ield         | OpenFOAM: The Open Source CFD Toolbox           |
|  \\    /   O peration     | Version:  4.1                                   |
|   \\  /    A nd           | Web:      www.OpenFOAM.org                      |
|    \\/     M anipulation  |                                                 |
\*---------------------------------------------------------------------------*/
FoamFile
{
    version     2.0;
    format      ascii;
    class       volScalarField;
    location    "800";
    object      epsilon;
}
// * * * * * * * * * * * * * * * * * * * * * * * * * * * * * * * * * * * * * //

dimensions      [0 2 -3 0 0 0 0];

internalField   nonuniform List<scalar> 
6820
(
115.949
152.042
190.661
230.213
269.213
306.364
340.623
371.268
397.899
420.4
438.868
453.554
464.802
473.008
478.579
481.91
483.369
483.291
481.97
479.662
476.585
472.925
468.836
464.445
459.857
455.159
450.419
445.691
441.021
436.443
431.977
427.728
425.1
9.48476
17.5528
23.8082
29.343
34.5615
39.5639
44.3524
48.9032
53.1857
57.1732
60.8488
64.2074
67.2548
70.0053
72.4794
74.7013
76.6972
78.4931
80.1144
81.5843
82.9242
84.1535
85.2893
86.3462
87.3366
88.2708
89.1572
90.003
90.8129
91.5935
92.3438
93.0723
93.7715
4.14146
5.59602
6.98297
8.20862
9.27788
10.2173
11.0506
11.7953
12.4652
13.0716
13.6233
14.1277
14.5907
15.0172
15.4112
15.7762
16.1152
16.4306
16.7248
16.9995
17.2581
17.5083
17.7522
17.9906
18.2241
18.453
18.6779
18.899
19.1167
19.3312
19.5428
19.7519
19.9566
3.60121
3.91796
4.33109
4.75787
5.16049
5.52671
5.85474
6.14666
6.40579
6.6357
6.83984
7.02136
7.18307
7.32748
7.45673
7.57271
7.67703
7.77106
7.85601
7.9329
8.00258
8.0666
8.12604
8.18166
8.23407
8.28375
8.33111
8.37648
8.42016
8.46237
8.50336
8.54326
8.58243
3.52798
3.56982
3.67476
3.81744
3.97488
4.1328
4.28383
4.42458
4.55377
4.67122
4.77737
4.87291
4.95865
5.03543
5.10409
5.1654
5.22009
5.26883
5.31223
5.35082
5.38509
5.41551
5.44254
5.46658
5.48801
5.50713
5.52424
5.53957
5.55335
5.56576
5.57697
5.58712
5.59641
3.5197
3.49572
3.49766
3.52374
3.56745
3.62175
3.681
3.74133
3.80034
3.85661
3.90933
3.95814
4.00291
4.04368
4.08059
4.11385
4.14366
4.17029
4.19396
4.21492
4.23339
4.24958
4.26371
4.27597
4.28654
4.29559
4.30328
4.30973
4.31509
4.31946
4.32294
4.32564
4.32767
3.51928
3.48173
3.4529
3.43487
3.42775
3.42982
3.4388
3.45249
3.46904
3.48707
3.50557
3.52383
3.54138
3.55792
3.57325
3.58728
3.59995
3.61129
3.62131
3.63006
3.63761
3.64407
3.64949
3.65396
3.65752
3.66027
3.66225
3.66354
3.6642
3.66428
3.66384
3.66292
3.6616
3.51938
3.47956
3.44297
3.41081
3.38393
3.36257
3.34634
3.33451
3.32623
3.32072
3.31725
3.31524
3.31422
3.31382
3.31376
3.31382
3.31384
3.31373
3.31338
3.31277
3.31185
3.31061
3.30906
3.30719
3.30501
3.30253
3.29978
3.29677
3.29352
3.29004
3.28636
3.2825
3.27847
3.51942
3.47931
3.44106
3.40504
3.37162
3.34118
3.31388
3.28963
3.26823
3.24937
3.23274
3.218
3.20484
3.19299
3.1822
3.17226
3.16303
3.15434
3.1461
3.13822
3.13062
3.12325
3.11606
3.10902
3.10209
3.09526
3.08851
3.08183
3.07521
3.06865
3.06213
3.05566
3.04924
3.51943
3.47931
3.44074
3.4038
3.36856
3.33518
3.30378
3.27441
3.24705
3.22164
3.19808
3.17623
3.15594
3.13705
3.11941
3.10289
3.08735
3.07269
3.0588
3.04559
3.03299
3.02092
3.00935
2.9982
2.98745
2.97705
2.96698
2.9572
2.94769
2.93844
2.92943
2.92063
2.91204
3.51944
3.47931
3.44068
3.40355
3.36786
3.33364
3.30091
3.26968
3.23994
3.2117
3.18491
3.15952
3.13547
3.1127
3.09111
3.07063
3.05118
3.03267
3.01505
2.99824
2.98217
2.96679
2.95204
2.93788
2.92427
2.91116
2.89853
2.88633
2.87454
2.86314
2.85209
2.84139
2.83101
3.51944
3.47931
3.44066
3.40348
3.3677
3.33326
3.30016
3.26835
3.23781
3.20852
3.18044
3.15355
3.12781
3.10317
3.0796
3.05704
3.03545
3.01477
2.99495
2.97596
2.95773
2.94023
2.92341
2.90724
2.89167
2.87667
2.86221
2.84827
2.8348
2.82179
2.80921
2.79703
2.78524
3.51944
3.47931
3.44064
3.40345
3.36764
3.33315
3.29995
3.26797
3.23718
3.20753
3.17899
3.15152
3.12508
3.09964
3.07516
3.05161
3.02896
3.00716
2.98618
2.96598
2.94653
2.9278
2.90975
2.89234
2.87556
2.85936
2.84373
2.82863
2.81404
2.79993
2.78629
2.77309
2.76031
3.51944
3.4793
3.44063
3.40343
3.36761
3.3331
3.29987
3.26785
3.23698
3.20723
3.17853
3.15087
3.12418
3.09844
3.07362
3.04966
3.02655
3.00426
2.98274
2.96197
2.94191
2.92255
2.90385
2.88578
2.86832
2.85145
2.83513
2.81935
2.80408
2.78931
2.775
2.76115
2.74773
3.51944
3.4793
3.44063
3.40341
3.36758
3.33307
3.29982
3.26778
3.23689
3.2071
3.17836
3.15063
3.12386
3.09801
3.07305
3.04894
3.02564
3.00313
2.98138
2.96035
2.94002
2.92035
2.90133
2.88294
2.86513
2.8479
2.83122
2.81507
2.79942
2.78427
2.76959
2.75535
2.74156
3.51944
3.4793
3.44062
3.4034
3.36756
3.33304
3.29979
3.26774
3.23684
3.20703
3.17827
3.15051
3.12371
3.09783
3.07282
3.04865
3.02529
3.00271
2.98087
2.95974
2.93929
2.91951
2.90035
2.88181
2.86385
2.84646
2.82961
2.81328
2.79745
2.78211
2.76723
2.75281
2.73881
3.51944
3.4793
3.44061
3.40339
3.36754
3.33302
3.29976
3.2677
3.23679
3.20698
3.17821
3.15044
3.12362
3.09772
3.07269
3.0485
3.02512
3.0025
2.98062
2.95945
2.93896
2.91912
2.89991
2.8813
2.86327
2.84581
2.82887
2.81246
2.79655
2.78111
2.76614
2.75161
2.73751
3.51944
3.47929
3.44061
3.40338
3.36753
3.333
3.29974
3.26767
3.23675
3.20693
3.17816
3.15038
3.12355
3.09764
3.07261
3.0484
3.02501
3.00237
2.98048
2.95929
2.93878
2.91892
2.89969
2.88106
2.863
2.84551
2.82854
2.8121
2.79615
2.78067
2.76566
2.75109
2.73695
3.51944
3.47929
3.44061
3.40337
3.36752
3.33299
3.29972
3.26765
3.23672
3.2069
3.17811
3.15033
3.1235
3.09758
3.07253
3.04832
3.02492
3.00228
2.98037
2.95917
2.93865
2.91878
2.89954
2.88089
2.86282
2.84531
2.82833
2.81187
2.7959
2.7804
2.76537
2.75078
2.73661
3.51944
3.47929
3.44061
3.40337
3.36752
3.33298
3.2997
3.26763
3.2367
3.20686
3.17807
3.15028
3.12345
3.09752
3.07247
3.04826
3.02484
3.00219
2.98028
2.95908
2.93855
2.91867
2.89942
2.88077
2.86269
2.84517
2.82818
2.81171
2.79573
2.78023
2.76519
2.75059
2.73641
3.51944
3.47929
3.4406
3.40337
3.36751
3.33297
3.29969
3.26761
3.23668
3.20684
3.17804
3.15025
3.1234
3.09747
3.07242
3.0482
3.02478
3.00212
2.98021
2.959
2.93846
2.91858
2.89932
2.88066
2.86258
2.84505
2.82806
2.81158
2.79559
2.78009
2.76504
2.75043
2.73625
3.51944
3.47929
3.4406
3.40336
3.36751
3.33296
3.29968
3.2676
3.23666
3.20682
3.17802
3.15022
3.12337
3.09743
3.07237
3.04815
3.02472
3.00206
2.98014
2.95892
2.93839
2.9185
2.89923
2.88057
2.86248
2.84495
2.82795
2.81147
2.79548
2.77997
2.76491
2.7503
2.73611
3.51944
3.47929
3.4406
3.40336
3.3675
3.33296
3.29967
3.26759
3.23665
3.2068
3.178
3.15019
3.12334
3.0974
3.07233
3.0481
3.02467
3.00201
2.98008
2.95886
2.93832
2.91843
2.89916
2.88049
2.8624
2.84487
2.82786
2.81138
2.79538
2.77986
2.76481
2.75019
2.736
3.51944
3.47929
3.4406
3.40336
3.3675
3.33295
3.29967
3.26758
3.23664
3.20678
3.17798
3.15017
3.12331
3.09737
3.0723
3.04807
3.02463
3.00197
2.98004
2.95881
2.93827
2.91837
2.8991
2.88043
2.86233
2.84479
2.82778
2.81129
2.79529
2.77977
2.76471
2.75009
2.7359
3.51944
3.47929
3.4406
3.40336
3.3675
3.33295
3.29966
3.26757
3.23663
3.20678
3.17797
3.15016
3.1233
3.09735
3.07228
3.04804
3.02461
3.00194
2.98001
2.95878
2.93823
2.91833
2.89906
2.88038
2.86228
2.84474
2.82773
2.81124
2.79524
2.77972
2.76465
2.75003
2.73584
3.51944
3.47929
3.4406
3.40336
3.3675
3.33295
3.29966
3.26757
3.23662
3.20677
3.17796
3.15015
3.12329
3.09734
3.07227
3.04803
3.02459
3.00192
2.97998
2.95875
2.9382
2.9183
2.89902
2.88034
2.86224
2.84469
2.82768
2.81118
2.79518
2.77965
2.76459
2.74996
2.73576
3.51944
3.47929
3.4406
3.40336
3.3675
3.33295
3.29966
3.26757
3.23662
3.20677
3.17796
3.15014
3.12328
3.09733
3.07226
3.04802
3.02458
3.00191
2.97998
2.95875
2.93819
2.91829
2.89902
2.88034
2.86224
2.84469
2.82768
2.81119
2.79518
2.77966
2.76459
2.74997
2.73577
3.51944
3.47929
3.4406
3.40336
3.3675
3.33295
3.29966
3.26757
3.23662
3.20677
3.17796
3.15014
3.12328
3.09733
3.07226
3.04801
3.02457
3.0019
2.97996
2.95873
2.93818
2.91827
2.89899
2.88031
2.86221
2.84466
2.82764
2.81114
2.79514
2.77961
2.76454
2.74991
2.73571
3.51944
3.47929
3.4406
3.40336
3.3675
3.33295
3.29966
3.26757
3.23663
3.20678
3.17797
3.15016
3.1233
3.09735
3.07228
3.04804
3.02461
3.00194
2.98001
2.95878
2.93823
2.91833
2.89906
2.88038
2.86228
2.84474
2.82773
2.81123
2.79523
2.77971
2.76464
2.75001
2.73582
3.51944
3.47929
3.4406
3.40336
3.3675
3.33296
3.29967
3.26758
3.23663
3.20678
3.17797
3.15016
3.1233
3.09735
3.07227
3.04803
3.02459
3.00192
2.97999
2.95875
2.9382
2.9183
2.89902
2.88034
2.86224
2.8447
2.82769
2.81119
2.79519
2.77967
2.76461
2.74998
2.73579
3.51944
3.47929
3.4406
3.40336
3.3675
3.33296
3.29968
3.26759
3.23666
3.20681
3.17802
3.15022
3.12337
3.09744
3.07238
3.04815
3.02473
3.00207
2.98015
2.95894
2.9384
2.91852
2.89925
2.88059
2.86251
2.84498
2.82799
2.81151
2.79553
2.78002
2.76498
2.75037
2.7362
3.51944
3.47929
3.4406
3.40337
3.36751
3.33297
3.29968
3.2676
3.23666
3.20681
3.178
3.1502
3.12335
3.09742
3.07236
3.04814
3.02472
3.00208
2.98018
2.95898
2.93847
2.91861
2.89938
2.88075
2.86271
2.84522
2.82827
2.81184
2.79591
2.78046
2.76547
2.75093
2.73681
3.51944
3.47929
3.44061
3.40337
3.36753
3.333
3.29975
3.26771
3.23682
3.20703
3.17829
3.15055
3.12378
3.09793
3.07296
3.04883
3.02551
3.00298
2.98118
2.96011
2.93972
2.92
2.90091
2.88242
2.86453
2.8472
2.83042
2.81415
2.79839
2.78311
2.7683
2.75394
2.74
3.51944
3.47929
3.44061
3.40338
3.36754
3.33305
3.29985
3.26787
3.23707
3.2074
3.1788
3.15124
3.12468
3.09906
3.07436
3.05054
3.02756
3.00539
2.98399
2.96333
2.94338
2.92411
2.9055
2.88751
2.87013
2.85332
2.83707
2.82135
2.80613
2.79141
2.77715
2.76335
2.74997
3.51943
3.4793
3.44066
3.40356
3.36794
3.33374
3.30092
3.26945
3.23927
3.21034
3.18261
3.15603
3.13055
3.10613
3.08271
3.06025
3.03869
3.018
2.99812
2.97902
2.96065
2.94298
2.92596
2.90957
2.89378
2.87855
2.86385
2.84966
2.83596
2.82272
2.80992
2.79753
2.78555
3.51942
3.47942
3.4412
3.4049
3.37061
3.33828
3.30787
3.27931
3.25251
3.22735
3.20374
3.18153
3.16063
3.14093
3.12231
3.1047
3.08799
3.07211
3.05699
3.04257
3.02878
3.01558
3.00292
2.99077
2.97909
2.96783
2.95698
2.94651
2.93639
2.9266
2.91712
2.90794
2.89902
3.5196
3.48203
3.4494
3.42177
3.39875
3.37983
3.36442
3.35191
3.34178
3.33354
3.32681
3.32126
3.31662
3.31268
3.30926
3.30623
3.30346
3.30088
3.29841
3.296
3.29362
3.29123
3.28881
3.28635
3.28383
3.28124
3.27859
3.27588
3.27309
3.27025
3.26734
3.26437
3.26135
3.53049
3.53942
3.57109
3.61695
3.67052
3.72753
3.78534
3.84241
3.89782
3.951
4.00161
4.0495
4.09463
4.13704
4.17682
4.21407
4.24892
4.28151
4.31198
4.34046
4.36707
4.39194
4.4152
4.43694
4.45728
4.4763
4.49411
4.51078
4.5264
4.54103
4.55476
4.56763
4.57976
4.00122
4.78105
5.43755
6.00229
6.50073
6.94822
7.35501
7.72857
8.07456
8.39728
8.70007
8.98559
9.25598
9.513
9.75805
9.99234
10.2168
10.4324
10.6397
10.8394
11.032
11.218
11.3977
11.5716
11.7398
11.9028
12.0608
12.214
12.3626
12.5069
12.647
12.7831
12.9158
31.176
33.6247
36.0474
38.4445
40.8147
43.1561
45.4659
47.7407
49.9772
52.1722
54.323
56.4269
58.4817
60.4855
62.4367
64.3341
66.1768
67.964
69.6956
71.3714
72.9915
74.5563
76.0664
77.5224
78.9252
80.2757
81.5751
82.8244
84.025
85.178
86.2849
87.3475
88.3745
437.057
505.786
598.222
699.916
791.87
861.475
904.542
922.691
920.912
905.161
880.656
851.131
819.11
786.221
753.426
721.301
689.938
659.478
629.732
600.696
572.485
545.241
519.099
494.169
470.534
448.248
427.329
407.768
389.532
372.574
356.834
342.246
328.741
316.244
304.678
293.965
284.026
274.783
266.16
258.084
250.487
243.301
236.466
229.924
223.624
217.517
211.561
205.717
199.952
194.237
188.55
182.871
177.187
171.489
165.771
160.031
154.273
148.503
142.727
136.96
131.213
125.503
119.847
114.265
108.775
103.399
98.1545
93.0621
88.1392
83.4021
78.865
74.5396
70.4348
66.557
62.9093
59.4924
56.3041
53.3398
50.5924
48.0529
45.7106
43.5542
41.5718
39.7517
38.0822
36.552
35.1498
33.8648
32.6863
31.6039
30.6075
29.6872
28.8336
28.037
27.291
26.5857
25.9259
25.2984
24.7515
24.1534
95.172
100.442
110.621
127.843
152.632
183.989
219.968
257.893
294.934
328.736
357.702
381.009
398.533
410.666
418.104
421.646
421.959
419.575
415.11
408.982
401.506
392.947
383.536
373.487
363
352.255
341.41
330.6
319.935
309.501
299.365
289.576
280.167
271.157
262.554
254.351
246.536
239.089
231.984
225.19
218.677
212.411
206.359
200.491
194.774
189.181
183.686
178.266
172.901
167.575
162.274
156.988
151.711
146.439
141.172
135.912
130.662
125.431
120.226
115.058
109.94
104.886
99.9108
95.0297
90.2592
85.6153
81.1139
76.7694
72.5951
68.6026
64.8012
61.1982
57.7983
54.6041
51.6154
48.8302
46.2444
43.8521
41.6455
39.6157
37.7525
36.0456
34.4841
33.0578
31.7563
30.5697
29.4884
28.503
27.6043
26.7836
26.032
25.341
24.7026
24.1083
23.5525
23.027
22.5357
22.0678
21.6631
21.2252
20.2133
20.6078
21.3109
22.6339
24.9504
28.6592
33.9891
41.1144
50.1315
61.0303
73.6076
87.5068
102.277
117.435
132.519
147.114
160.866
173.383
184.511
194.185
202.382
209.106
214.389
218.287
220.883
222.28
222.595
221.954
220.482
218.304
215.539
212.297
208.678
204.771
200.652
196.384
192.019
187.597
183.149
178.697
174.254
169.831
165.43
161.052
156.696
152.357
148.03
143.712
139.396
135.079
130.758
126.432
122.099
117.762
113.423
109.088
104.762
100.454
96.1736
91.9307
87.7375
83.6067
79.5517
75.5862
71.7238
67.9779
64.3608
60.8839
57.5568
54.3879
51.3832
48.5471
45.8819
43.388
41.064
38.9069
36.9121
35.0739
33.3854
31.8386
30.4251
29.1361
27.9627
26.8965
25.929
25.0522
24.2584
23.54
22.8896
22.3
21.764
21.2746
20.8252
20.4086
20.0203
19.6532
19.3109
18.9844
18.7056
18.4102
8.62697
8.68172
8.75142
8.85985
9.04317
9.35901
9.88086
10.6903
11.8816
13.5014
15.624
18.3328
21.6993
25.7769
30.5957
36.1546
42.4111
49.2659
56.5582
64.1434
71.8681
79.5696
87.083
94.2521
100.939
107.032
112.448
117.138
121.077
124.269
126.737
128.521
129.671
130.247
130.308
129.916
129.129
128
126.58
124.911
123.029
120.967
118.75
116.401
113.936
111.369
108.712
105.974
103.163
100.285
97.3466
94.3536
91.3125
88.2302
85.1143
81.9733
78.8164
75.6537
72.4958
69.3544
66.2413
63.1688
60.1493
57.1951
54.318
51.5291
48.8386
46.2556
43.7877
41.4411
39.2204
37.1286
35.167
33.3357
31.6333
30.0572
28.6037
27.2682
26.0455
24.9295
23.9138
22.9918
22.1569
21.4027
20.723
20.1117
19.5629
19.0711
18.6305
18.2356
17.8808
17.5606
17.2697
17.0024
16.755
16.5218
16.3057
16.0993
15.9277
15.7541
5.60584
5.61696
5.62974
5.64579
5.66845
5.70372
5.76188
5.85742
6.0091
6.2377
6.56278
7.00523
7.59174
8.35262
9.32107
10.5325
12.0221
13.8224
15.948
18.4128
21.2211
24.3635
27.8144
31.5309
35.4536
39.5103
43.6197
47.6977
51.662
55.4373
58.9593
62.177
65.0539
67.5678
69.7094
71.4802
72.8904
73.9563
74.6987
75.1402
75.3049
75.216
74.8964
74.367
73.6472
72.7545
71.7047
70.5119
69.1889
67.7473
66.1982
64.5518
62.8184
61.008
59.1308
57.1973
55.218
53.2041
51.1666
49.1169
47.0664
45.0266
43.0086
41.0232
39.0807
37.1907
35.3618
33.6017
31.9169
30.3125
28.7928
27.3603
26.0168
24.7626
23.5973
22.5194
21.5267
20.6163
19.7849
19.0285
18.343
17.7238
17.1667
16.6673
16.2214
15.8247
15.4734
15.1633
14.8905
14.6508
14.4403
14.2547
14.0899
13.9415
13.8066
13.6806
13.566
13.4568
13.3718
13.2972
4.32912
4.32999
4.33078
4.33165
4.33294
4.33545
4.3406
4.35069
4.36921
4.40088
4.45145
4.52654
4.63367
4.7813
4.97909
5.23805
5.57048
5.98992
6.5088
7.13982
7.8961
8.79016
9.83282
11.0319
12.3911
13.9086
15.5761
17.3786
19.2944
21.2955
23.3494
25.4208
27.4734
29.4721
31.3846
33.183
34.8442
36.3506
37.6899
38.8545
39.8412
40.6503
41.2847
41.7497
42.0516
42.198
42.1969
42.0565
41.7853
41.3915
40.8836
40.27
39.5591
38.7596
37.8801
36.9296
35.9174
34.8527
33.745
32.6039
31.4389
30.2596
29.0752
27.8946
26.7265
25.5788
24.4588
23.3729
22.3268
21.3253
20.3721
19.4702
18.6217
17.8276
17.0885
16.4043
15.7741
15.1968
14.6706
14.1935
13.7633
13.3774
13.0332
12.7283
12.4601
12.226
12.0234
11.8499
11.7026
11.5789
11.4759
11.3904
11.3195
11.2599
11.2092
11.1639
11.1261
11.0907
11.0713
11.072
3.65948
3.65644
3.65285
3.64898
3.64474
3.64022
3.63566
3.6315
3.62854
3.6278
3.63068
3.63881
3.65429
3.6797
3.71807
3.77294
3.84834
3.94882
4.0792
4.24405
4.44858
4.6981
4.99794
5.35332
5.7691
6.24945
6.79755
7.41519
8.10244
8.85731
9.67553
10.5505
11.4732
12.4329
13.4168
14.4113
15.4022
16.3753
17.317
18.2149
19.0579
19.8366
20.5433
21.172
21.7184
22.1797
22.5544
22.8422
23.0438
23.1605
23.1948
23.1494
23.0278
22.8341
22.5727
22.2487
21.8675
21.4348
20.9568
20.4399
19.8904
19.3152
18.7207
18.1134
17.4998
16.8856
16.2767
15.678
15.0942
14.5294
13.9868
13.4694
12.9794
12.5185
12.0877
11.6879
11.3192
10.9816
10.6748
10.3979
10.1502
9.93039
9.73742
9.57
9.42682
9.30654
9.20771
9.12883
9.06826
9.02421
8.99476
8.97774
8.97104
8.97214
8.97942
8.99
9.00548
9.02184
9.04827
9.10122
3.27352
3.26749
3.26102
3.25424
3.24713
3.23971
3.23201
3.2241
3.21612
3.20829
3.20095
3.19456
3.18973
3.18724
3.18808
3.19345
3.20477
3.22367
3.25202
3.29168
3.34471
3.41321
3.49949
3.60579
3.73426
3.88695
4.06572
4.27218
4.50756
4.77268
5.06786
5.39276
5.74637
6.12692
6.53189
6.95803
7.40137
7.85738
8.32101
8.7869
9.2495
9.70322
10.1426
10.5626
10.9583
11.3254
11.6601
11.9593
12.2201
12.4407
12.6194
12.7554
12.8483
12.8983
12.9063
12.8735
12.8016
12.6929
12.55
12.3759
12.1741
11.9479
11.7013
11.438
11.162
10.8771
10.5869
10.2951
10.0049
9.71924
9.4409
9.17217
8.91505
8.6712
8.44196
8.22837
8.03121
7.85099
7.68799
7.54231
7.41385
7.30236
7.20751
7.12888
7.06595
7.01816
6.98485
6.96523
6.9584
6.96329
6.97867
7.00312
7.03515
7.07294
7.11532
7.16005
7.20834
7.25689
7.31147
7.39601
3.04175
3.03305
3.02408
3.01485
3.00544
2.9958
2.98593
2.97583
2.9655
2.955
2.94443
2.93393
2.92367
2.91387
2.90483
2.89693
2.89065
2.8866
2.88548
2.88813
2.89536
2.90812
2.92738
2.95418
2.98953
3.03444
3.08983
3.15654
3.23526
3.32676
3.43148
3.54968
3.68137
3.82634
3.98417
4.15419
4.33547
4.52684
4.72686
4.9339
5.1461
5.36146
5.57783
5.79298
6.00465
6.21057
6.40849
6.59626
6.77185
6.93336
7.07909
7.20753
7.31745
7.40785
7.47803
7.52761
7.5565
7.56494
7.5535
7.52301
7.47463
7.40975
7.32998
7.23712
7.13311
7.01996
6.89974
6.77451
6.64625
6.51689
6.3882
6.26184
6.13929
6.02187
5.91072
5.80684
5.71104
5.62401
5.54628
5.47825
5.4202
5.3723
5.33465
5.30726
5.2901
5.28303
5.28584
5.29824
5.31977
5.34987
5.38781
5.43266
5.48345
5.53889
5.59814
5.6595
5.72383
5.78845
5.85659
5.95549
2.90223
2.89106
2.87975
2.86829
2.85673
2.84507
2.83326
2.82132
2.80923
2.797
2.78465
2.77221
2.75972
2.74726
2.73491
2.7228
2.71109
2.69998
2.68973
2.68064
2.67303
2.66732
2.66394
2.66337
2.66609
2.67262
2.68345
2.69906
2.71989
2.74632
2.7787
2.81727
2.86217
2.91344
2.97118
3.03527
3.10545
3.18139
3.26264
3.34867
3.43887
3.53252
3.62886
3.72705
3.82618
3.92534
4.02354
4.11982
4.21318
4.30264
4.38724
4.46606
4.53824
4.603
4.65963
4.70756
4.74634
4.77566
4.79537
4.80547
4.80616
4.79776
4.78079
4.75589
4.72383
4.6855
4.64185
4.59392
4.54275
4.48939
4.43489
4.38025
4.32643
4.27431
4.22472
4.17841
4.13603
4.0982
4.06543
4.03816
4.01678
4.00158
3.99285
3.99077
3.99551
4.00717
4.02579
4.05131
4.0836
4.12238
4.16726
4.2177
4.27307
4.33249
4.39538
4.46047
4.52837
4.59689
4.66755
4.76759
2.81925
2.80595
2.79261
2.77922
2.76578
2.7523
2.73877
2.72518
2.71152
2.69779
2.68397
2.67008
2.65613
2.64215
2.62815
2.61418
2.60027
2.58648
2.57292
2.55971
2.54695
2.53479
2.52342
2.51304
2.50386
2.49612
2.49009
2.486
2.48412
2.48468
2.48791
2.494
2.5031
2.51532
2.53073
2.54936
2.57121
2.59626
2.62436
2.65535
2.68899
2.72501
2.7631
2.80292
2.84411
2.88627
2.929
2.97187
3.01443
3.05624
3.09685
3.13581
3.17267
3.20702
3.23843
3.26655
3.29105
3.31164
3.3281
3.34029
3.34813
3.35163
3.35087
3.34604
3.33739
3.32524
3.31
3.29212
3.27208
3.25043
3.2277
3.20446
3.18126
3.15863
3.13711
3.11719
3.09934
3.084
3.0716
3.06249
3.05703
3.05553
3.05827
3.0655
3.07745
3.09432
3.11623
3.14329
3.1755
3.21278
3.25498
3.30179
3.35284
3.40756
3.46557
3.52595
3.58912
3.6533
3.71897
3.8111
2.77193
2.75693
2.74194
2.72695
2.71195
2.69695
2.68195
2.66694
2.65191
2.63686
2.62178
2.60667
2.59154
2.57638
2.5612
2.54603
2.53085
2.51571
2.50062
2.48562
2.47074
2.45605
2.44159
2.42745
2.41373
2.40051
2.38792
2.37607
2.36509
2.35511
2.34626
2.33867
2.33245
2.3277
2.3245
2.32292
2.32302
2.32484
2.32836
2.33356
2.34034
2.34863
2.35829
2.36918
2.38116
2.39405
2.40767
2.42182
2.4363
2.4509
2.46541
2.47961
2.4933
2.50626
2.51829
2.52918
2.53877
2.54688
2.55337
2.55812
2.56105
2.5621
2.56126
2.55855
2.55405
2.54787
2.54017
2.53112
2.52095
2.50992
2.4983
2.48637
2.47445
2.46285
2.45187
2.44184
2.43306
2.42583
2.42044
2.41719
2.41633
2.41813
2.42284
2.43071
2.44194
2.45675
2.47532
2.49779
2.52426
2.55476
2.58926
2.62763
2.66968
2.71507
2.76357
2.81451
2.86823
2.92326
2.97957
3.05849
2.74589
2.72965
2.71343
2.69723
2.68105
2.66489
2.64874
2.63261
2.61649
2.60037
2.58425
2.56813
2.55201
2.53589
2.51977
2.50365
2.48754
2.47144
2.45537
2.43933
2.42333
2.40739
2.39152
2.37576
2.36012
2.34466
2.32941
2.31442
2.29974
2.28545
2.27159
2.25825
2.24549
2.2334
2.22204
2.21147
2.20173
2.19285
2.18487
2.1778
2.17163
2.16634
2.1619
2.15826
2.15537
2.15314
2.1515
2.15036
2.14963
2.14922
2.14901
2.14891
2.14881
2.14861
2.14821
2.1475
2.1464
2.14482
2.14268
2.13991
2.13646
2.13228
2.12736
2.12168
2.11526
2.10814
2.10038
2.09206
2.08327
2.07414
2.0648
2.0554
2.04611
2.0371
2.02855
2.02066
2.01363
2.00763
2.00289
1.99959
1.99795
1.99815
2.0004
2.00491
2.01186
2.02145
2.03386
2.04924
2.06773
2.08942
2.11436
2.14252
2.17385
2.20814
2.24531
2.28487
2.32711
2.37084
2.41586
2.47922
2.73258
2.7155
2.69845
2.68142
2.66441
2.64741
2.63043
2.61347
2.59653
2.57961
2.56269
2.54579
2.5289
2.51203
2.49517
2.47832
2.46149
2.44468
2.42789
2.41112
2.39438
2.37767
2.36099
2.34434
2.32775
2.31121
2.29474
2.27836
2.26209
2.24595
2.22997
2.21418
2.19863
2.18338
2.16846
2.15391
2.13975
2.12602
2.11273
2.09992
2.08758
2.07573
2.06437
2.05349
2.04306
2.03308
2.02351
2.01431
2.00544
1.99687
1.98854
1.98041
1.97243
1.96454
1.9567
1.94886
1.94097
1.93298
1.92487
1.91659
1.90811
1.8994
1.89046
1.88128
1.87186
1.8622
1.85234
1.84231
1.83216
1.82194
1.81172
1.80158
1.79161
1.78191
1.77259
1.76375
1.75551
1.74802
1.74139
1.73576
1.73128
1.72809
1.72635
1.72623
1.72786
1.73143
1.73709
1.745
1.75529
1.76808
1.78346
1.80148
1.82215
1.8454
1.87121
1.89925
1.9298
1.96185
1.99533
2.04282
2.72596
2.70839
2.69082
2.67326
2.65571
2.63818
2.62065
2.60314
2.58565
2.56817
2.5507
2.53325
2.51581
2.49839
2.48098
2.46359
2.44622
2.42887
2.41155
2.39424
2.37697
2.35971
2.34248
2.32527
2.3081
2.29094
2.27382
2.25674
2.23969
2.22271
2.2058
2.18898
2.17226
2.15567
2.13922
2.12293
2.10683
2.09093
2.07525
2.05981
2.04461
2.02968
2.01501
2.00061
1.98649
1.97263
1.95904
1.94569
1.93259
1.9197
1.90702
1.89453
1.88219
1.86999
1.85791
1.84591
1.83399
1.82212
1.81027
1.79843
1.78659
1.77474
1.76285
1.75094
1.739
1.72704
1.71506
1.70308
1.69113
1.67923
1.66742
1.65573
1.64423
1.63295
1.62197
1.61134
1.60114
1.59146
1.58236
1.57395
1.56633
1.55959
1.55386
1.54924
1.54587
1.54388
1.54339
1.54455
1.54748
1.55232
1.55916
1.56808
1.57917
1.5924
1.60783
1.62525
1.64493
1.66601
1.68869
1.72122
2.72298
2.70512
2.68726
2.6694
2.65155
2.63369
2.61584
2.59799
2.58015
2.56232
2.5445
2.52668
2.50888
2.49109
2.47331
2.45555
2.4378
2.42008
2.40238
2.38469
2.36704
2.3494
2.33179
2.3142
2.29663
2.27908
2.26155
2.24404
2.22656
2.2091
2.19168
2.17432
2.15702
2.1398
2.12266
2.10561
2.08865
2.0718
2.05506
2.03845
2.02197
2.00563
1.98944
1.97341
1.95754
1.94182
1.92627
1.91089
1.89566
1.88059
1.86567
1.8509
1.83626
1.82175
1.80736
1.79308
1.77889
1.7648
1.75078
1.73684
1.72296
1.70915
1.69538
1.68167
1.66801
1.65441
1.64086
1.62738
1.61398
1.60066
1.58746
1.57438
1.56146
1.54871
1.53619
1.52391
1.51193
1.50029
1.48905
1.47825
1.46798
1.45829
1.44926
1.44097
1.43353
1.42702
1.42155
1.41723
1.41418
1.41249
1.41229
1.41367
1.41671
1.42147
1.42802
1.43624
1.44642
1.45781
1.47097
1.49006
2.72156
2.70356
2.68555
2.66753
2.64951
2.63148
2.61344
2.5954
2.57737
2.55933
2.5413
2.52327
2.50525
2.48723
2.46922
2.45122
2.43324
2.41527
2.39732
2.37939
2.36147
2.34358
2.3257
2.30785
2.29002
2.2722
2.25441
2.23664
2.2189
2.20119
2.18352
2.16588
2.14829
2.13075
2.11327
2.09584
2.07848
2.06119
2.04397
2.02682
2.00976
1.99279
1.97591
1.95913
1.94245
1.92587
1.9094
1.89304
1.8768
1.86066
1.84464
1.82873
1.81293
1.79724
1.78166
1.76617
1.75079
1.73549
1.7203
1.70519
1.69016
1.67522
1.66036
1.64557
1.63087
1.61625
1.6017
1.58724
1.57287
1.5586
1.54442
1.53036
1.51642
1.50261
1.48896
1.47549
1.46221
1.44916
1.43636
1.42384
1.41165
1.39983
1.38843
1.37751
1.36711
1.35733
1.34821
1.33986
1.33234
1.32576
1.32021
1.31577
1.31254
1.31057
1.30999
1.31071
1.31305
1.3163
1.3215
1.32896
2.72094
2.70288
2.68479
2.6667
2.64859
2.63047
2.61234
2.59421
2.57607
2.55793
2.53978
2.52163
2.50349
2.48534
2.4672
2.44907
2.43094
2.41283
2.39473
2.37664
2.35856
2.34051
2.32247
2.30444
2.28644
2.26846
2.25049
2.23254
2.2146
2.19671
2.17885
2.16104
2.14327
2.12555
2.10788
2.09026
2.07269
2.05518
2.03772
2.02033
2.003
1.98574
1.96855
1.95142
1.93438
1.91741
1.90052
1.88372
1.867
1.85037
1.83383
1.81737
1.80101
1.78474
1.76856
1.75248
1.73648
1.72058
1.70477
1.68904
1.67341
1.65786
1.6424
1.62703
1.61174
1.59653
1.58141
1.56638
1.55143
1.53657
1.5218
1.50713
1.49256
1.47809
1.46373
1.4495
1.43539
1.42144
1.40765
1.39403
1.38062
1.36744
1.35452
1.34188
1.32957
1.31763
1.3061
1.29505
1.28452
1.27458
1.2653
1.25675
1.24901
1.24213
1.23624
1.23126
1.22754
1.22437
1.22328
1.22112
2.72058
2.70248
2.68436
2.66623
2.64808
2.62992
2.61175
2.59356
2.57537
2.55717
2.53897
2.52076
2.50255
2.48434
2.46613
2.44792
2.42972
2.41153
2.39334
2.37516
2.35699
2.33884
2.3207
2.30258
2.28447
2.26638
2.24831
2.23026
2.21224
2.19425
2.1763
2.15838
2.14051
2.12268
2.10489
2.08715
2.06947
2.05183
2.03425
2.01672
1.99926
1.98185
1.9645
1.94721
1.92999
1.91284
1.89575
1.87874
1.8618
1.84494
1.82815
1.81144
1.79482
1.77827
1.76181
1.74543
1.72914
1.71294
1.69682
1.68079
1.66484
1.64899
1.63322
1.61753
1.60193
1.58642
1.57099
1.55564
1.54038
1.52519
1.5101
1.49508
1.48015
1.4653
1.45054
1.43587
1.42129
1.40682
1.39246
1.37821
1.36409
1.35011
1.3363
1.32265
1.30921
1.29599
1.28301
1.27031
1.25793
1.24589
1.23426
1.22306
1.21237
1.20221
1.19269
1.18375
1.17573
1.16787
1.16221
1.15257
2.72037
2.70226
2.68412
2.66597
2.6478
2.62962
2.61143
2.59322
2.57501
2.55678
2.53855
2.52031
2.50207
2.48383
2.46558
2.44734
2.4291
2.41086
2.39263
2.3744
2.35619
2.33799
2.31979
2.30161
2.28345
2.26529
2.24715
2.22903
2.21094
2.19288
2.17486
2.15688
2.13894
2.12104
2.10319
2.08538
2.06762
2.04992
2.03226
2.01466
1.99712
1.97963
1.9622
1.94483
1.92752
1.91028
1.8931
1.87599
1.85895
1.84197
1.82507
1.80825
1.7915
1.77482
1.75823
1.74172
1.72528
1.70894
1.69267
1.67649
1.6604
1.64439
1.62847
1.61263
1.59688
1.58121
1.56562
1.55012
1.53469
1.51935
1.50408
1.48888
1.47376
1.45872
1.44375
1.42885
1.41403
1.39928
1.38462
1.37004
1.35554
1.34114
1.32685
1.31266
1.2986
1.28468
1.2709
1.25729
1.24386
1.23063
1.21764
1.20489
1.19244
1.18029
1.16853
1.15708
1.14628
1.13531
1.12662
1.11165
2.7202
2.70207
2.68393
2.66576
2.64759
2.62939
2.61119
2.59297
2.57474
2.5565
2.53826
2.52001
2.50175
2.48349
2.46522
2.44696
2.4287
2.41044
2.39219
2.37394
2.3557
2.33747
2.31925
2.30103
2.28284
2.26465
2.24648
2.22833
2.21021
2.19212
2.17407
2.15605
2.13807
2.12014
2.10224
2.08439
2.06659
2.04884
2.03114
2.0135
1.9959
1.97837
1.96089
1.94347
1.92611
1.90882
1.89159
1.87442
1.85732
1.84029
1.82334
1.80645
1.78964
1.77291
1.75625
1.73968
1.72318
1.70677
1.69044
1.67419
1.65803
1.64195
1.62596
1.61005
1.59423
1.57849
1.56284
1.54726
1.53176
1.51634
1.501
1.48573
1.47052
1.45539
1.44033
1.42533
1.41039
1.39552
1.38072
1.36598
1.35131
1.33671
1.32218
1.30773
1.29337
1.2791
1.26492
1.25084
1.23688
1.22303
1.20932
1.19574
1.18233
1.16909
1.15607
1.14317
1.13075
1.1179
1.10742
1.089
2.72006
2.70193
2.68377
2.66561
2.64742
2.62922
2.61101
2.59279
2.57455
2.55631
2.53805
2.51979
2.50153
2.48326
2.46499
2.44672
2.42845
2.41018
2.39191
2.37365
2.3554
2.33715
2.31891
2.30069
2.28247
2.26426
2.24607
2.2279
2.20976
2.19165
2.17358
2.15554
2.13754
2.11958
2.10166
2.08379
2.06596
2.04818
2.03045
2.01278
1.99516
1.97759
1.96009
1.94264
1.92525
1.90793
1.89066
1.87347
1.85634
1.83929
1.8223
1.80539
1.78855
1.77179
1.7551
1.7385
1.72197
1.70553
1.68918
1.67291
1.65672
1.64062
1.6246
1.60867
1.59283
1.57707
1.56139
1.5458
1.53028
1.51484
1.49947
1.48418
1.46896
1.4538
1.43871
1.42368
1.40871
1.39381
1.37896
1.36417
1.34944
1.33476
1.32015
1.30561
1.29112
1.2767
1.26235
1.24807
1.23387
1.21973
1.20568
1.1917
1.17782
1.16402
1.15035
1.1367
1.12342
1.10954
1.0981
1.07768
2.71994
2.7018
2.68365
2.66547
2.64728
2.62908
2.61086
2.59263
2.57439
2.55614
2.53789
2.51962
2.50135
2.48308
2.4648
2.44652
2.42825
2.40997
2.3917
2.37343
2.35517
2.33691
2.31867
2.30043
2.2822
2.26398
2.24578
2.22761
2.20946
2.19134
2.17326
2.15521
2.13719
2.11922
2.10129
2.0834
2.06555
2.04776
2.03001
2.01232
1.99468
1.9771
1.95957
1.9421
1.9247
1.90735
1.89008
1.87286
1.85572
1.83865
1.82165
1.80472
1.78787
1.7711
1.7544
1.73779
1.72126
1.70481
1.68845
1.67218
1.65599
1.63989
1.62388
1.60795
1.59211
1.57636
1.56069
1.54511
1.5296
1.51418
1.49883
1.48355
1.46835
1.45321
1.43814
1.42313
1.40818
1.39329
1.37846
1.36368
1.34896
1.33429
1.31968
1.30513
1.29063
1.27619
1.2618
1.24746
1.23318
1.21894
1.20476
1.19063
1.17655
1.1625
1.14854
1.13454
1.12085
1.10645
1.09457
1.07309
2.71983
2.70169
2.68353
2.66535
2.64716
2.62895
2.61073
2.5925
2.57425
2.556
2.53774
2.51947
2.50119
2.48292
2.46464
2.44635
2.42807
2.40979
2.39151
2.37324
2.35497
2.33671
2.31846
2.30021
2.28198
2.26376
2.24556
2.22739
2.20924
2.19112
2.17303
2.15497
2.13695
2.11897
2.10102
2.08312
2.06527
2.04746
2.02971
2.012
1.99435
1.97676
1.95922
1.94174
1.92432
1.90697
1.88968
1.87246
1.85531
1.83823
1.82123
1.8043
1.78745
1.77067
1.75398
1.73737
1.72085
1.70441
1.68806
1.6718
1.65563
1.63955
1.62356
1.60766
1.59185
1.57612
1.56049
1.54494
1.52947
1.51409
1.49878
1.48355
1.4684
1.45331
1.43829