/*--------------------------------*- C++ -*----------------------------------*\
| =========                 |                                                 |
| \\      /  F ield         | OpenFOAM: The Open Source CFD Toolbox           |
|  \\    /   O peration     | Version:  4.1                                   |
|   \\  /    A nd           | Web:      www.OpenFOAM.org                      |
|    \\/     M anipulation  |                                                 |
\*---------------------------------------------------------------------------*/
FoamFile
{
    version     2.0;
    format      ascii;
    class       volScalarField;
    location    "800";
    object      k;
}
// * * * * * * * * * * * * * * * * * * * * * * * * * * * * * * * * * * * * * //

dimensions      [0 2 -2 0 0 0 0];

internalField   nonuniform List<scalar> 
6820
(
0.241787
0.289665
0.336844
0.381951
0.423953
0.46211
0.495948
0.525265
0.550093
0.57064
0.587232
0.60026
0.610144
0.617305
0.622142
0.625025
0.626286
0.626219
0.625077
0.62308
0.620413
0.617232
0.613669
0.609831
0.605809
0.601675
0.597491
0.593303
0.58915
0.585066
0.581068
0.577252
0.574885
0.202474
0.204679
0.206995
0.209467
0.212041
0.214681
0.217362
0.220056
0.222733
0.22537
0.227954
0.230479
0.232942
0.235349
0.237707
0.240025
0.242313
0.244581
0.246837
0.249089
0.251344
0.253608
0.255884
0.258176
0.260483
0.262808
0.265148
0.267502
0.269866
0.272239
0.274617
0.276996
0.279896
0.199741
0.199215
0.198471
0.197596
0.196619
0.195573
0.194483
0.193366
0.192235
0.191099
0.18997
0.188855
0.187761
0.186695
0.185662
0.184667
0.183716
0.182812
0.181958
0.181158
0.180414
0.179725
0.179091
0.178511
0.177984
0.177509
0.177086
0.176714
0.176389
0.176113
0.17588
0.175697
0.175596
0.199153
0.198176
0.197113
0.195992
0.194809
0.193571
0.192297
0.191001
0.189694
0.188384
0.187078
0.185782
0.184501
0.183238
0.181997
0.180781
0.179591
0.178431
0.177301
0.176204
0.17514
0.17411
0.173114
0.172153
0.171225
0.170332
0.169472
0.168645
0.16785
0.167087
0.166355
0.165654
0.164983
0.198981
0.1979
0.196807
0.195699
0.194559
0.193388
0.192197
0.190994
0.189785
0.188574
0.187366
0.186167
0.184978
0.183802
0.182643
0.181503
0.180382
0.179283
0.178206
0.177153
0.176124
0.175121
0.174143
0.17319
0.172263
0.171361
0.170485
0.169634
0.168807
0.168005
0.167227
0.166471
0.165731
0.198926
0.197795
0.196678
0.195576
0.194473
0.193363
0.192249
0.191134
0.190019
0.188909
0.187806
0.186711
0.185628
0.184558
0.183504
0.182465
0.181444
0.180441
0.179457
0.178492
0.177548
0.176624
0.17572
0.174837
0.173975
0.173133
0.172312
0.171511
0.17073
0.169969
0.169228
0.168505
0.167791
0.198906
0.197755
0.196631
0.195537
0.194463
0.193399
0.192342
0.191294
0.190254
0.189222
0.188201
0.187192
0.186194
0.18521
0.184241
0.183286
0.182348
0.181426
0.180521
0.179633
0.178762
0.177909
0.177075
0.176258
0.175459
0.174677
0.173914
0.173168
0.17244
0.171729
0.171035
0.170356
0.169684
0.1989
0.19774
0.196611
0.195517
0.194452
0.193408
0.192382
0.191373
0.19038
0.189401
0.188437
0.187487
0.186552
0.185631
0.184727
0.183837
0.182964
0.182107
0.181266
0.180441
0.179633
0.178841
0.178066
0.177307
0.176564
0.175838
0.175127
0.174433
0.173754
0.173091
0.172443
0.171808
0.171178
0.198897
0.197734
0.196603
0.195508
0.194448
0.193415
0.192408
0.191424
0.19046
0.189517
0.188591
0.187683
0.186792
0.185919
0.185061
0.184221
0.183396
0.182588
0.181796
0.18102
0.18026
0.179516
0.178787
0.178074
0.177376
0.176694
0.176026
0.175373
0.174735
0.174111
0.173501
0.172904
0.17231
0.198896
0.197732
0.1966
0.195505
0.194445
0.193417
0.192417
0.191444
0.190496
0.189571
0.188668
0.187785
0.186923
0.186079
0.185254
0.184447
0.183657
0.182884
0.182128
0.181388
0.180664
0.179956
0.179264
0.178587
0.177925
0.177278
0.176645
0.176026
0.175422
0.174831
0.174253
0.173687
0.173124
0.198896
0.197731
0.196599
0.195504
0.194444
0.193417
0.192421
0.191454
0.190514
0.1896
0.18871
0.187844
0.186999
0.186175
0.185371
0.184587
0.183821
0.183073
0.182342
0.181629
0.180931
0.18025
0.179585
0.178935
0.1783
0.177679
0.177073
0.17648
0.175902
0.175336
0.174784
0.174242
0.173704
0.198896
0.19773
0.196599
0.195504
0.194444
0.193418
0.192423
0.191458
0.190521
0.189612
0.188729
0.18787
0.187035
0.186222
0.18543
0.184659
0.183908
0.183176
0.182462
0.181765
0.181086
0.180423
0.179777
0.179146
0.17853
0.177929
0.177342
0.176769
0.17621
0.175664
0.175131
0.174609
0.174091
0.198896
0.19773
0.196599
0.195504
0.194444
0.193418
0.192424
0.19146
0.190525
0.189618
0.188738
0.187884
0.187054
0.186247
0.185463
0.1847
0.183958
0.183235
0.182532
0.181847
0.181179
0.180529
0.179895
0.179277
0.178675
0.178088
0.177515
0.176956
0.176411
0.175879
0.17536
0.174852
0.174348
0.198896
0.19773
0.196599
0.195504
0.194445
0.193419
0.192425
0.191461
0.190527
0.189621
0.188743
0.18789
0.187062
0.186259
0.185478
0.184719
0.183981
0.183264
0.182567
0.181888
0.181227
0.180584
0.179958
0.179349
0.178755
0.178176
0.177612
0.177063
0.176528
0.176006
0.175496
0.174998
0.174504
0.198896
0.19773
0.196599
0.195505
0.194445
0.193419
0.192425
0.191462
0.190528
0.189623
0.188745
0.187893
0.187067
0.186265
0.185486
0.184729
0.183994
0.18328
0.182586
0.181911
0.181254
0.180616
0.179995
0.17939
0.178802
0.178229
0.177671
0.177127
0.176598
0.176082
0.17558
0.175088
0.174601
0.198896
0.19773
0.196599
0.195505
0.194446
0.19342
0.192426
0.191463
0.190529
0.189624
0.188747
0.187895
0.187069
0.186268
0.18549
0.184734
0.184
0.183288
0.182595
0.181922
0.181267
0.180631
0.180012
0.179411
0.178825
0.178255
0.177701
0.177161
0.176635
0.176123
0.175625
0.175137
0.174654
0.198896
0.19773
0.1966
0.195505
0.194446
0.19342
0.192426
0.191463
0.19053
0.189625
0.188748
0.187896
0.187071
0.18627
0.185492
0.184737
0.184004
0.183292
0.1826
0.181928
0.181275
0.18064
0.180023
0.179422
0.178838
0.17827
0.177718
0.17718
0.176657
0.176147
0.175651
0.175166
0.174686
0.198896
0.19773
0.1966
0.195505
0.194446
0.19342
0.192427
0.191464
0.19053
0.189626
0.188748
0.187897
0.187072
0.186271
0.185493
0.184739
0.184006
0.183294
0.182603
0.181931
0.181279
0.180644
0.180028
0.179428
0.178845
0.178278
0.177726
0.17719
0.176667
0.176159
0.175664
0.175181
0.174702
0.198896
0.197729
0.1966
0.195506
0.194446
0.193421
0.192427
0.191464
0.190531
0.189626
0.188749
0.187898
0.187073
0.186272
0.185494
0.18474
0.184007
0.183296
0.182605
0.181933
0.181281
0.180647
0.180031
0.179432
0.178849
0.178283
0.177732
0.177195
0.176674
0.176166
0.175672
0.17519
0.174712
0.198896
0.197729
0.1966
0.195506
0.194446
0.193421
0.192427
0.191464
0.190531
0.189627
0.188749
0.187899
0.187073
0.186272
0.185495
0.184741
0.184008
0.183297
0.182606
0.181935
0.181283
0.180649
0.180033
0.179434
0.178852
0.178285
0.177734
0.177199
0.176677
0.17617
0.175676
0.175194
0.174717
0.198896
0.197729
0.1966
0.195506
0.194447
0.193421
0.192427
0.191465
0.190532
0.189627
0.18875
0.187899
0.187074
0.186273
0.185496
0.184742
0.184009
0.183298
0.182607
0.181936
0.181284
0.18065
0.180034
0.179435
0.178853
0.178287
0.177737
0.177201
0.17668
0.176173
0.175679
0.175197
0.17472
0.198896
0.197729
0.1966
0.195506
0.194447
0.193421
0.192428
0.191465
0.190532
0.189627
0.18875
0.1879
0.187074
0.186274
0.185497
0.184742
0.18401
0.183299
0.182608
0.181937
0.181285
0.180651
0.180035
0.179437
0.178855
0.178288
0.177738
0.177202
0.176681
0.176174
0.175681
0.175199
0.174722
0.198896
0.197729
0.1966
0.195506
0.194447
0.193421
0.192428
0.191465
0.190532
0.189628
0.188751
0.1879
0.187075
0.186274
0.185497
0.184743
0.18401
0.183299
0.182608
0.181937
0.181285
0.180652
0.180036
0.179437
0.178855
0.178289
0.177739
0.177203
0.176683
0.176176
0.175682
0.1752
0.174723
0.198896
0.19773
0.1966
0.195506
0.194447
0.193421
0.192428
0.191465
0.190532
0.189628
0.188751
0.1879
0.187075
0.186274
0.185497
0.184743
0.184011
0.1833
0.182609
0.181938
0.181286
0.180652
0.180037
0.179438
0.178856
0.17829
0.17774
0.177204
0.176683
0.176176
0.175683
0.175201
0.174724
0.198896
0.197729
0.1966
0.195506
0.194447
0.193421
0.192428
0.191465
0.190532
0.189628
0.188751
0.1879
0.187075
0.186274
0.185497
0.184743
0.184011
0.1833
0.182609
0.181938
0.181286
0.180653
0.180037
0.179438
0.178856
0.17829
0.17774
0.177204
0.176683
0.176176
0.175683
0.175201
0.174724
0.198896
0.197729
0.1966
0.195506
0.194447
0.193421
0.192428
0.191465
0.190532
0.189628
0.188751
0.1879
0.187075
0.186274
0.185497
0.184743
0.184011
0.1833
0.182609
0.181938
0.181286
0.180653
0.180037
0.179438
0.178856
0.17829
0.17774
0.177204
0.176683
0.176177
0.175683
0.175201
0.174724
0.198896
0.197729
0.1966
0.195506
0.194447
0.193421
0.192428
0.191465
0.190532
0.189628
0.188751
0.1879
0.187075
0.186274
0.185497
0.184743
0.18401
0.183299
0.182608
0.181937
0.181285
0.180652
0.180036
0.179437
0.178855
0.178289
0.177738
0.177203
0.176682
0.176175
0.175681
0.175199
0.174722
0.198896
0.197729
0.1966
0.195506
0.194447
0.193421
0.192428
0.191465
0.190532
0.189628
0.188751
0.1879
0.187075
0.186274
0.185497
0.184743
0.18401
0.183299
0.182608
0.181937
0.181285
0.180652
0.180036
0.179437
0.178855
0.178289
0.177738
0.177203
0.176682
0.176175
0.175681
0.175199
0.174722
0.198896
0.197729
0.1966
0.195506
0.194447
0.193421
0.192428
0.191465
0.190532
0.189627
0.18875
0.187899
0.187074
0.186273
0.185496
0.184741
0.184009
0.183297
0.182606
0.181935
0.181283
0.180649
0.180033
0.179434
0.178852
0.178285
0.177735
0.177199
0.176678
0.176171
0.175677
0.175195
0.174718
0.198896
0.197729
0.1966
0.195506
0.194447
0.193421
0.192427
0.191465
0.190532
0.189627
0.18875
0.187899
0.187074
0.186273
0.185496
0.184742
0.184009
0.183298
0.182607
0.181936
0.181283
0.18065
0.180034
0.179435
0.178852
0.178286
0.177735
0.177199
0.176678
0.176171
0.175677
0.175195
0.174717
0.198896
0.197729
0.1966
0.195506
0.194447
0.193421
0.192427
0.191464
0.190531
0.189626
0.188749
0.187897
0.187072
0.186271
0.185493
0.184738
0.184005
0.183294
0.182602
0.181931
0.181278
0.180644
0.180028
0.179428
0.178846
0.178279
0.177728
0.177192
0.17667
0.176162
0.175668
0.175185
0.174708
0.198896
0.197729
0.1966
0.195506
0.194446
0.193421
0.192427
0.191464
0.190531
0.189627
0.18875
0.187899
0.187074
0.186273
0.185496
0.184741
0.184008
0.183297
0.182605
0.181934
0.181281
0.180646
0.18003
0.17943
0.178847
0.17828
0.177728
0.177191
0.176669
0.176161
0.175666
0.175182
0.174704
0.198896
0.19773
0.1966
0.195505
0.194446
0.19342
0.192426
0.191462
0.190528
0.189623
0.188745
0.187893
0.187067
0.186265
0.185487
0.184732
0.183998
0.183286
0.182594
0.181921
0.181267
0.180632
0.180014
0.179413
0.178829
0.178261
0.177708
0.17717
0.176646
0.176136
0.175639
0.175154
0.174674
0.198896
0.19773
0.1966
0.195506
0.194447
0.193422
0.192429
0.191467
0.190534
0.18963
0.188753
0.187901
0.187075
0.186274
0.185495
0.184739
0.184004
0.183291
0.182597
0.181923
0.181267
0.180629
0.180009
0.179405
0.178818
0.178247
0.17769
0.177149
0.176621
0.176108
0.175607
0.175118
0.174633
0.198896
0.19773
0.1966
0.195504
0.194443
0.193416
0.192421
0.191457
0.190522
0.189617
0.188738
0.187885
0.187057
0.186253
0.185472
0.184713
0.183975
0.183258
0.18256
0.181881
0.181221
0.180578
0.179952
0.179343
0.17875
0.178172
0.177609
0.177061
0.176527
0.176007
0.175499
0.175004
0.174512
0.198897
0.197733
0.196606
0.195516
0.194462
0.193441
0.19245
0.191489
0.190556
0.18965
0.18877
0.187914
0.187082
0.186273
0.185486
0.18472
0.183974
0.183248
0.182541
0.181852
0.181181
0.180527
0.17989
0.17927
0.178665
0.178075
0.1775
0.176939
0.176393
0.17586
0.175341
0.174832
0.174328
0.1989
0.197735
0.196605
0.195515
0.194465
0.193449
0.192464
0.191508
0.190579
0.189676
0.188796
0.187939
0.187104
0.186291
0.185497
0.184724
0.18397
0.183235
0.182518
0.181819
0.181138
0.180473
0.179825
0.179193
0.178577
0.177976
0.177391
0.176819
0.176262
0.175719
0.175189
0.174672
0.174158
0.198944
0.197852
0.196795
0.195774
0.194787
0.193827
0.192894
0.191986
0.191101
0.190238
0.189397
0.188577
0.187778
0.186998
0.186237
0.185495
0.184771
0.184066
0.183378
0.182708
0.182054
0.181417
0.180797
0.180192
0.179603
0.179029
0.178471
0.177926
0.177397
0.176881
0.176379
0.175889
0.175406
0.199227
0.198572
0.198048
0.197613
0.197233
0.196892
0.196584
0.196305
0.196052
0.195821
0.19561
0.195418
0.195243
0.195084
0.194942
0.194813
0.194699
0.194597
0.194508
0.19443
0.194364
0.194308
0.194261
0.194224
0.194195
0.194174
0.194161
0.194156
0.194157
0.194164
0.194177
0.194197
0.194224
0.209515
0.220347
0.230808
0.24093
0.250733
0.260233
0.269438
0.278351
0.286978
0.295321
0.303382
0.311166
0.318675
0.325913
0.332885
0.339596
0.346049
0.352252
0.35821
0.363929
0.369416
0.374677
0.37972
0.38455
0.389175
0.393602
0.397838
0.40189
0.405764
0.409468
0.413007
0.416391
0.419649
0.644267
0.805119
0.984558
1.17009
1.33664
1.47335
1.57936
1.65858
1.71697
1.76035
1.79309
1.81793
1.83687
1.85125
1.86187
1.86915
1.87291
1.87353
1.87074
1.86479
1.85614
1.8453
1.83283
1.81927
1.80517
1.79101
1.77719
1.76405
1.75182
1.74071
1.73086
1.72236
1.71528
1.70962
1.70535
1.7024
1.70065
1.69996
1.70014
1.70103
1.7024
1.70405
1.70578
1.70735
1.70856
1.70921
1.7091
1.70804
1.70587
1.70244
1.69761
1.69128
1.68334
1.67373
1.6624
1.64933
1.6345
1.61794
1.59969
1.57981
1.5584
1.53555
1.5114
1.4861
1.4598
1.43268
1.40493
1.37673
1.34828
1.31976
1.29137
1.26328
1.23566
1.20867
1.18243
1.15707
1.13269
1.10937
1.08715
1.06607
1.04615
1.02739
1.00978
0.993323
0.977977
0.963707
0.950458
0.938161
0.926732
0.916072
0.906071
0.896607
0.887561
0.878809
0.870291
0.861943
0.854009
0.846648
0.841265
0.83805
0.287849
0.307534
0.342182
0.396143
0.468696
0.556279
0.653053
0.752708
0.849995
0.941205
1.0242
1.09814
1.16319
1.22014
1.26999
1.31361
1.35152
1.38409
1.41205
1.4357
1.45531
1.47121
1.48373
1.49327
1.50025
1.5051
1.50824
1.51005
1.51088
1.51103
1.51079
1.51038
1.50999
1.50977
1.50984
1.51024
1.51101
1.51211
1.51349
1.51506
1.51673
1.51836
1.5198
1.52092
1.52156
1.52157
1.52079
1.51909
1.51633
1.5124
1.5072
1.50063
1.49263
1.48314
1.47215
1.45963
1.44559
1.43006
1.41309
1.39474
1.37511
1.35429
1.33241
1.30962
1.28606
1.26189
1.23729
1.21243
1.18748
1.16261
1.13798
1.11375
1.09005
1.06702
1.04476
1.02338
1.00294
0.983521
0.965148
0.947848
0.931628
0.916487
0.902415
0.889393
0.877391
0.866368
0.856269
0.847026
0.838556
0.830761
0.823536
0.81676
0.810319
0.804092
0.798018
0.792035
0.786357
0.781118
0.777521
0.775629
0.175885
0.177383
0.180719
0.187112
0.197778
0.21374
0.236304
0.266349
0.303996
0.348597
0.399092
0.454117
0.512176
0.57182
0.631751
0.690839
0.748073
0.802406
0.853639
0.901549
0.945976
0.986814
1.02402
1.05763
1.08773
1.11449
1.13814
1.15892
1.1771
1.19297
1.20682
1.21892
1.22954
1.23891
1.24725
1.25474
1.26152
1.26769
1.27332
1.27844
1.28307
1.28718
1.29073
1.29366
1.29591
1.29738
1.29799
1.29765
1.29628
1.29379
1.29012
1.28521
1.27899
1.27145
1.26256
1.25232
1.24073
1.22785
1.2137
1.19836
1.18192
1.16448
1.14614
1.12706
1.10735
1.08718
1.0667
1.04606
1.02541
1.0049
0.984662
0.964834
0.945531
0.926858
0.908905
0.891751
0.875458
0.860075
0.845631
0.832144
0.819619
0.808051
0.797431
0.787738
0.778946
0.771015
0.763895
0.757522
0.75182
0.746697
0.742053
0.737775
0.733755
0.72988
0.726089
0.722323
0.718764
0.715518
0.713602
0.712934
0.164172
0.163489
0.16304
0.163042
0.163754
0.165464
0.168534
0.173363
0.180344
0.190011
0.20279
0.219019
0.238967
0.26279
0.290501
0.321937
0.356716
0.394209
0.433659
0.474464
0.515989
0.557593
0.598668
0.63867
0.677142
0.713729
0.748179
0.780334
0.810122
0.837541
0.862646
0.885539
0.906355
0.925248
0.942383
0.957923
0.972023
0.984821
0.996437
1.00697
1.01649
1.02505
1.03268
1.03939
1.04517
1.05
1.05384
1.05666
1.05841
1.05905
1.05853
1.05682
1.05389
1.04972
1.04431
1.03766
1.02979
1.02075
1.01057
0.999337
0.987119
0.974015
0.960133
0.94559
0.930514
0.915034
0.899287
0.883405
0.86752
0.851756
0.836231
0.821054
0.806322
0.792124
0.778535
0.765619
0.753428
0.742003
0.731371
0.721546
0.712535
0.704336
0.696941
0.690336
0.684497
0.679392
0.674977
0.671197
0.667984
0.665256
0.662922
0.660879
0.659027
0.657264
0.65553
0.653769
0.652134
0.650702
0.650311
0.650741
0.164797
0.163876
0.162998
0.162213
0.161574
0.16115
0.161036
0.161343
0.162198
0.163753
0.166186
0.169693
0.174473
0.180732
0.188685
0.198541
0.210483
0.224633
0.241004
0.259628
0.280461
0.303378
0.328166
0.354533
0.382121
0.410536
0.439366
0.468212
0.496708
0.524536
0.551435
0.577206
0.601709
0.624858
0.646615
0.666975
0.685964
0.703622
0.72
0.735153
0.749133
0.761984
0.773744
0.78444
0.794086
0.802689
0.810243
0.816738
0.822156
0.826478
0.829686
0.831761
0.832692
0.832474
0.831109
0.828611
0.825004
0.820324
0.81462
0.807953
0.800394
0.792027
0.782945
0.773251
0.763053
0.752463
0.741595
0.730562
0.719476
0.708442
0.697559
0.686918
0.676602
0.666685
0.657231
0.648296
0.639925
0.632154
0.625011
0.618513
0.612668
0.60748
0.602948
0.599062
0.595807
0.59316
0.591086
0.589538
0.588461
0.587782
0.587422
0.58729
0.587297
0.587348
0.587391
0.587369
0.58741
0.587562
0.588497
0.589867
0.166889
0.165976
0.165067
0.164173
0.163313
0.162504
0.161777
0.161171
0.16073
0.160506
0.160563
0.160975
0.161822
0.163189
0.16517
0.167863
0.171372
0.175796
0.181218
0.187725
0.195406
0.204341
0.214591
0.22619
0.239141
0.253404
0.2689
0.285506
0.30306
0.321372
0.340234
0.359429
0.378744
0.397982
0.416965
0.435543
0.45359
0.471008
0.487724
0.503683
0.518847
0.533189
0.54669
0.559334
0.57111
0.582003
0.591999
0.601081
0.609233
0.616437
0.622675
0.627931
0.632196
0.635464
0.637734
0.639017
0.639329
0.638699
0.637162
0.634766
0.631569
0.627635
0.623041
0.617868
0.612203
0.606137
0.599764
0.593177
0.586465
0.579718
0.573016
0.566437
0.560051
0.55392
0.548101
0.542643
0.537587
0.532968
0.528815
0.525147
0.521978
0.519319
0.517173
0.515541
0.514414
0.513777
0.513607
0.513869
0.514515
0.515488
0.516718
0.518129
0.51964
0.52117
0.522667
0.52408
0.525511
0.526978
0.529006
0.531132
0.168835
0.167969
0.1671
0.16623
0.165368
0.16452
0.163693
0.162901
0.162161
0.161491
0.160917
0.160469
0.160182
0.160096
0.160252
0.160698
0.161482
0.162655
0.164262
0.166348
0.168961
0.172149
0.175959
0.180437
0.185625
0.191557
0.198258
0.205744
0.214011
0.223043
0.232803
0.243237
0.254275
0.265832
0.277812
0.290113
0.30263
0.315259
0.327901
0.340462
0.352857
0.365009
0.37685
0.388316
0.399355
0.409914
0.41995
0.429419
0.438282
0.446503
0.45405
0.460891
0.467004
0.472367
0.476968
0.4808
0.483865
0.486173
0.487741
0.488596
0.488775
0.48832
0.487285
0.485727
0.48371
0.481302
0.478573
0.475596
0.472441
0.469177
0.46587
0.462584
0.459376
0.456299
0.453403
0.45073
0.44832
0.446206
0.444416
0.442973
0.441897
0.441203
0.440899
0.440994
0.441487
0.442372
0.443633
0.445246
0.447176
0.449375
0.451788
0.454348
0.456987
0.459633
0.462241
0.46476
0.467269
0.469762
0.472627
0.475313
0.170384
0.169571
0.168753
0.16793
0.167106
0.166281
0.16546
0.164646
0.163847
0.16307
0.162326
0.161628
0.160989
0.16043
0.15997
0.159633
0.159443
0.159429
0.159616
0.160031
0.160701
0.16165
0.162906
0.164494
0.166438
0.168761
0.171485
0.174627
0.178203
0.182227
0.186704
0.191637
0.197021
0.202845
0.209089
0.215729
0.222731
0.230058
0.237664
0.245503
0.253523
0.261671
0.269894
0.278136
0.286345
0.294467
0.30245
0.310244
0.317801
0.325072
0.332014
0.338586
0.344749
0.350469
0.355718
0.360472
0.364716
0.368439
0.371639
0.37432
0.376496
0.378186
0.379418
0.380226
0.380649
0.38073
0.380518
0.380062
0.379414
0.378623
0.37774
0.376814
0.375891
0.375013
0.374222
0.373554
0.373045
0.372726
0.372624
0.372764
0.373167
0.373851
0.374831
0.376119
0.377719
0.379634
0.381855
0.384366
0.387143
0.390149
0.393339
0.396659
0.400051
0.403452
0.406822
0.410113
0.413384
0.416604
0.42005
0.423097
0.171562
0.170796
0.170024
0.169247
0.168465
0.167679
0.166891
0.166103
0.165316
0.164535
0.163764
0.163006
0.162269
0.161561
0.160892
0.160272
0.159716
0.159237
0.158851
0.158576
0.158426
0.158418
0.15857
0.158897
0.159416
0.16014
0.161084
0.162259
0.163677
0.165347
0.167277
0.169475
0.171944
0.174688
0.177707
0.180998
0.184557
0.188377
0.192447
0.196752
0.201277
0.206002
0.210905
0.21596
0.221141
0.226417
0.231757
0.237127
0.242493
0.24782
0.25307
0.258208
0.263199
0.268008
0.272603
0.276956
0.281042
0.284839
0.288333
0.291512
0.294372
0.296915
0.299148
0.301084
0.302741
0.304142
0.305314
0.306287
0.307093
0.307767
0.308342
0.308853
0.309334
0.309817
0.310336
0.31092
0.311598
0.312398
0.313344
0.314461
0.315769
0.317288
0.319034
0.321021
0.32326
0.325755
0.328506
0.331503
0.33473
0.33816
0.341756
0.345477
0.349273
0.353092
0.356897
0.360644
0.364371
0.368034
0.371812
0.375034
0.172416
0.17169
0.170959
0.170221
0.169479
0.168731
0.16798
0.167224
0.166466
0.165707
0.164948
0.164191
0.163439
0.162696
0.161967
0.161255
0.160569
0.159915
0.159301
0.158739
0.158237
0.157805
0.157455
0.157198
0.157044
0.157005
0.15709
0.157309
0.157669
0.158179
0.158846
0.159673
0.160667
0.161831
0.163168
0.164678
0.166364
0.168224
0.170258
0.172463
0.174834
0.177368
0.180056
0.182891
0.185863
0.18896
0.192168
0.195472
0.198856
0.202298
0.20578
0.209279
0.212772
0.216236
0.219646
0.22298
0.226215
0.229332
0.232312
0.235141
0.237806
0.2403
0.24262
0.244765
0.24674
0.248553
0.250217
0.251746
0.253158
0.254474
0.255714
0.2569
0.258057
0.259207
0.260374
0.261581
0.26285
0.264205
0.265667
0.267255
0.268991
0.270891
0.272974
0.275253
0.277741
0.280445
0.283369
0.286508
0.289853
0.293385
0.297076
0.300893
0.304796
0.30874
0.312694
0.316616
0.320531
0.324378
0.328267
0.331501
0.173028
0.172334
0.171635
0.170931
0.170221
0.169507
0.168787
0.168063
0.167336
0.166604
0.16587
0.165134
0.164396
0.163659
0.162925
0.162195
0.161473
0.160762
0.160068
0.159394
0.158747
0.158132
0.157557
0.157029
0.156555
0.156142
0.155799
0.155531
0.155347
0.155251
0.155251
0.15535
0.155553
0.155865
0.156287
0.156823
0.157474
0.158241
0.159125
0.160127
0.161245
0.16248
0.163828
0.165289
0.166858
0.168532
0.170307
0.172175
0.174131
0.176165
0.178268
0.180429
0.182637
0.184877
0.187137
0.189402
0.191656
0.193887
0.19608
0.198222
0.200302
0.202312
0.204244
0.206094
0.207859
0.209541
0.211143
0.212672
0.214136
0.215545
0.216911
0.218248
0.219571
0.220896
0.222238
0.223616
0.225045
0.226544
0.228129
0.229818
0.231628
0.233575
0.235675
0.237942
0.240388
0.243022
0.245851
0.248875
0.252087
0.255476
0.259021
0.262697
0.266472
0.27031
0.274183
0.278051
0.28193
0.285749
0.289565
0.292682
0.173439
0.172772
0.172099
0.171421
0.170738
0.170051
0.169359
0.168662
0.167961
0.167256
0.166547
0.165834
0.165117
0.164398
0.163677
0.162955
0.162233
0.161514
0.160799
0.160091
0.159393
0.158709
0.158041
0.157396
0.156777
0.156189
0.155637
0.155126
0.154662
0.154249
0.153892
0.153596
0.153364
0.153199
0.153106
0.153086
0.153143
0.153277
0.15349
0.153784
0.154158
0.154614
0.15515
0.155768
0.156466
0.157244
0.158099
0.15903
0.160033
0.161107
0.162246
0.163446
0.164702
0.166007
0.167353
0.168734
0.170142
0.171567
0.173001
0.174436
0.175863
0.177276
0.178669
0.180036
0.181375
0.182683
0.18396
0.18521
0.186434
0.187637
0.188828
0.190013
0.191203
0.192406
0.193635
0.194902
0.196218
0.197598
0.199055
0.200603
0.202256
0.204029
0.205935
0.207987
0.210197
0.212576
0.215129
0.217861
0.220769
0.223846
0.227078
0.230446
0.233926
0.237488
0.241109
0.244753
0.248425
0.252053
0.255658
0.258564
0.173715
0.173067
0.172414
0.171756
0.171094
0.170428
0.169757
0.169082
0.168403
0.16772
0.167032
0.166341
0.165645
0.164946
0.164243
0.163537
0.162829
0.162119
0.161408
0.160698
0.15999
0.159286
0.158588
0.157898
0.15722
0.156556
0.15591
0.155284
0.154683
0.154109
0.153567
0.15306
0.15259
0.152161
0.151777
0.151439
0.151149
0.150911
0.150725
0.150593
0.150516
0.150495
0.150531
0.150624
0.150775
0.150983
0.151249
0.151571
0.15195
0.152383
0.15287
0.153409
0.153996
0.154631
0.155308
0.156025
0.156778
0.157562
0.158372
0.159203
0.160051
0.160912
0.16178
0.162653
0.163527
0.164401
0.165274
0.166145
0.167017
0.167892
0.168774
0.169667
0.170577
0.171512
0.172478
0.173485
0.174542
0.175659
0.176847
0.178118
0.179482
0.180952
0.18254
0.184259
0.186118
0.188129
0.190298
0.192632
0.195131
0.197791
0.200605
0.203559
0.206634
0.209809
0.213062
0.216362
0.219709
0.223031
0.226329
0.228965
0.173885
0.17325
0.172612
0.171969
0.171323
0.170672
0.170018
0.16936
0.168697
0.168031
0.167361
0.166688
0.16601
0.165328
0.164642
0.163953
0.16326
0.162564
0.161865
0.161164
0.160462
0.15976
0.159058
0.158358
0.157662
0.156971
0.156288
0.155614
0.154951
0.154303
0.153671
0.153057
0.152465
0.151896
0.151352
0.150837
0.150352
0.149898
0.149478
0.149093
0.148744
0.148433
0.14816
0.147926
0.147733
0.14758
0.147467
0.147396
0.147366
0.147376
0.147427
0.147518
0.147648
0.147816
0.148021
0.148261
0.148534
0.148839
0.149172
0.149532
0.149915
0.15032
0.150744
0.151185
0.151641
0.152111
0.152593
0.153089
0.153598
0.154121
0.154662
0.155223
0.155808
0.156422
0.15707
0.157759
0.158496
0.159289
0.160146
0.161077
0.162091
0.163198
0.16441
0.165736
0.167188
0.168774
0.170504
0.172384
0.174417
0.176604
0.17894
0.181418
0.184025
0.186742
0.189555
0.192436
0.195381
0.198321
0.201252
0.203586
0.173991
0.173366
0.172737
0.172105
0.17147
0.170831
0.170188
0.169542
0.168892
0.168239
0.167582
0.166922
0.166257
0.16559
0.164918
0.164243
0.163564
0.162882
0.162196
0.161508
0.160816
0.160123
0.159427
0.158731
0.158035
0.15734
0.156647
0.155957
0.155271
0.154592
0.15392
0.153258
0.152606
0.151967
0.151342
0.150733
0.150141
0.149568
0.149015
0.148484
0.147975
0.147491
0.147032
0.146599
0.146193
0.145814
0.145463
0.145141
0.144847
0.144583
0.144347
0.144141
0.143964
0.143816
0.143696
0.143604
0.14354
0.143501
0.143488
0.143499
0.143533
0.143589
0.143665
0.143761
0.143876
0.144008
0.144158
0.144325
0.14451
0.144714
0.144938
0.145184
0.145456
0.145756
0.146089
0.14646
0.146873
0.147335
0.147852
0.148433
0.149085
0.149818
0.150639
0.151559
0.152588
0.153734
0.155007
0.156414
0.157961
0.15965
0.161482
0.163453
0.165555
0.167777
0.170106
0.17252
0.175016
0.177526
0.180052
0.182066
0.17405
0.173431
0.172809
0.172184
0.171556
0.170924
0.170289
0.169652
0.169011
0.168366
0.167719
0.167068
0.166414
0.165757
0.165096
0.164432
0.163765
0.163094
0.162419
0.161742
0.161061
0.160378
0.159692
0.159004
0.158314
0.157623
0.156932
0.156241
0.155551
0.154862
0.154177
0.153496
0.152819
0.152149
0.151485
0.15083
0.150184
0.149549
0.148925
0.148314
0.147717
0.147135
0.146568
0.146017
0.145484
0.144968
0.144471
0.143993
0.143535
0.143096
0.142678
0.14228
0.141903
0.141546
0.141211
0.140896
0.140601
0.140327
0.140073
0.139838
0.139622
0.139424
0.139245
0.139083
0.138938
0.13881
0.138699
0.138604
0.138527
0.138468
0.138427
0.138407
0.138409
0.138436
0.13849
0.138576
0.138697
0.138858
0.139065
0.139322
0.139637
0.140018
0.140471
0.141005
0.141629
0.142351
0.143181
0.144126
0.145193
0.146388
0.147714
0.149171
0.150757
0.152465
0.154288
0.156207
0.158222
0.160272
0.162366
0.164048
0.174085
0.17347
0.172852
0.172231
0.171608
0.170981
0.170352
0.16972
0.169084
0.168446
0.167805
0.167161
0.166514
0.165864
0.165211
0.164555
0.163896
0.163233
0.162568
0.161899
0.161227
0.160553
0.159875
0.159195
0.158513
0.157829
0.157144
0.156457
0.15577
0.155082
0.154395
0.153709
0.153025
0.152342
0.151663
0.150988
0.150318
0.149653
0.148994
0.148341
0.147697
0.147061
0.146435
0.145818
0.145212
0.144617
0.144033
0.143462
0.142904
0.142359
0.141828
0.14131
0.140807
0.140318
0.139843
0.139384
0.138939
0.138508
0.138093
0.137692
0.137305
0.136933
0.136575
0.136231
0.135901
0.135585
0.135282
0.134993
0.134719
0.134459
0.134214
0.133986
0.133776
0.133584
0.133415
0.133269
0.13315
0.133061
0.133006
0.13299
0.133018
0.133095
0.133228
0.133424
0.133689
0.134032
0.134461
0.134983
0.135607
0.136338
0.137183
0.138145
0.139226
0.140424
0.141736
0.14315
0.144668
0.146238
0.14788
0.149216
0.174103
0.17349
0.172875
0.172257
0.171636
0.171012
0.170386
0.169757
0.169125
0.168491
0.167854
0.167214
0.166572
0.165927
0.165279
0.164628
0.163974
0.163318
0.162658
0.161996
0.161331
0.160663
0.159993
0.15932
0.158645
0.157967
0.157288
0.156607
0.155924
0.155241
0.154556
0.153872
0.153187
0.152503
0.151819
0.151138
0.150458
0.14978
0.149105
0.148434
0.147767
0.147105
0.146447
0.145796
0.14515
0.144511
0.143879
0.143255
0.142639
0.142032
0.141433
0.140843
0.140263
0.139693
0.139132
0.138582
0.138042
0.137512
0.136993
0.136484
0.135986
0.135499
0.135022
0.134555
0.134099
0.133654
0.133218
0.132794
0.13238
0.131977
0.131586
0.131206
0.13084
0.130488
0.130151
0.12983
0.129529
0.129249
0.128993
0.128764
0.128565
0.128402
0.128279
0.128201
0.128173
0.128202
0.128295
0.128459
0.1287
0.129026
0.129444
0.129958
0.130574
0.131292
0.132116
0.133038
0.134063
0.13515
0.136331
0.137305
0.174113
0.173502
0.172888
0.172272
0.171652
0.171031
0.170406
0.169779
0.16915
0.168518
0.167883
0.167246
0.166607
0.165964
0.16532
0.164672
0.164022
0.16337
0.162714
0.162057
0.161396
0.160733
0.160068
0.1594
0.15873
0.158057
0.157383
0.156707
0.156029
0.15535
0.15467
0.153988
0.153306
0.152623
0.15194
0.151258
0.150575
0.149894
0.149214
0.148535
0.147858
0.147183
0.146511
0.145842
0.145176
0.144515
0.143857
0.143204
0.142556
0.141913
0.141276
0.140645
0.14002
0.139401
0.138789
0.138184
0.137586
0.136995
0.136412
0.135836
0.135268
0.134707
0.134154
0.133608
0.13307
0.13254
0.132017
0.131502
0.130995
0.130496
0.130004
0.129521
0.129047
0.128583
0.128128
0.127685
0.127254
0.126838
0.126436
0.126053
0.12569
0.12535
0.125036
0.124753
0.124504
0.124293
0.124127
0.12401
0.123948
0.123947
0.124014
0.124154
0.124373
0.124675
0.125064
0.125537
0.126105
0.126731
0.127464
0.12807
0.174119
0.173508
0.172895
0.172279
0.171661
0.17104
0.170417
0.169791
0.169163
0.168532
0.167899
0.167263
0.166625
0.165985
0.165342
0.164697
0.164049
0.163399
0.162746
0.162091
0.161433
0.160773
0.160111
0.159447
0.15878
0.158112
0.157441
0.156769
0.156095
0.155419
0.154742
0.154064
0.153385
0.152705
0.152024
0.151342
0.150661
0.149979
0.149298
0.148617
0.147936
0.147257
0.146579
0.145902
0.145228
0.144555
0.143884
0.143217
0.142552
0.14189
0.141232
0.140578
0.139928
0.139282
0.138641
0.138004
0.137372
0.136745
0.136123
0.135507
0.134896
0.13429
0.13369
0.133096
0.132506
0.131923
0.131345
0.130772
0.130204
0.129643
0.129086
0.128535
0.12799
0.127452
0.126919
0.126394
0.125876
0.125367
0.124867
0.124379
0.123902
0.12344
0.122995
0.122568