/*--------------------------------*- C++ -*----------------------------------*\
| =========                 |                                                 |
| \\      /  F ield         | OpenFOAM: The Open Source CFD Toolbox           |
|  \\    /   O peration     | Version:  4.1                                   |
|   \\  /    A nd           | Web:      www.OpenFOAM.org                      |
|    \\/     M anipulation  |                                                 |
\*---------------------------------------------------------------------------*/
FoamFile
{
    version     2.0;
    format      ascii;
    class       volScalarField;
    location    "800";
    object      nut;
}
// * * * * * * * * * * * * * * * * * * * * * * * * * * * * * * * * * * * * * //

dimensions      [0 2 -1 0 0 0 0];

internalField   nonuniform List<scalar> 
6820
(
4.53774e-05
4.96674e-05
5.35596e-05
5.7033e-05
6.00872e-05
6.27329e-05
6.49892e-05
6.68824e-05
6.84449e-05
6.97114e-05
7.07176e-05
7.14978e-05
7.20841e-05
7.25058e-05
7.27893e-05
7.29578e-05
7.30314e-05
7.30274e-05
7.29608e-05
7.28442e-05
7.26881e-05
7.25015e-05
7.22919e-05
7.20656e-05
7.18275e-05
7.1582e-05
7.13327e-05
7.10823e-05
7.08331e-05
7.05871e-05
7.03455e-05
7.01142e-05
6.99703e-05
0.000389004
0.000214804
0.000161971
0.000134577
0.000117082
0.000104841
9.58724e-05
8.91195e-05
8.39492e-05
7.99546e-05
7.68576e-05
7.44592e-05
7.26132e-05
7.12095e-05
7.01638e-05
6.9411e-05
6.88997e-05
6.85892e-05
6.84467e-05
6.84457e-05
6.85645e-05
6.87853e-05
6.90931e-05
6.94751e-05
6.99209e-05
7.04211e-05
7.0968e-05
7.15546e-05
7.21757e-05
7.28244e-05
7.35006e-05
7.4194e-05
7.51906e-05
0.000867009
0.000638273
0.00050769
0.000428082
0.000375014
0.000336916
0.000308048
0.000285295
0.000266813
0.00025144
0.000238413
0.00022721
0.000217459
0.00020889
0.000201303
0.000194545
0.000188496
0.000183062
0.000178166
0.00017375
0.000169743
0.000166042
0.000162606
0.000159413
0.000156443
0.00015368
0.000151107
0.000148711
0.000146478
0.000144399
0.000142459
0.000140658
0.000139055
0.000991214
0.000902164
0.000807377
0.000726622
0.000661863
0.000610175
0.000568431
0.000534166
0.000505567
0.000481332
0.000460513
0.000442414
0.000426509
0.0004124
0.000399781
0.000388414
0.000378111
0.000368725
0.000360134
0.000352243
0.000344972
0.00033822
0.000331917
0.000326009
0.000320453
0.000315215
0.000310266
0.00030558
0.000301137
0.000296917
0.000292904
0.000289083
0.000285435
0.00101005
0.00098739
0.000948626
0.000902916
0.000857083
0.00081444
0.000776076
0.000742011
0.000711858
0.000685132
0.000661359
0.000640115
0.000621037
0.000603821
0.00058821
0.000573991
0.000560984
0.000549041
0.000538036
0.000527861
0.000518429
0.000509658
0.000501477
0.000493823
0.000486643
0.00047989
0.000473523
0.000467509
0.000461816
0.000456417
0.000451289
0.000446408
0.000441712
0.00101185
0.00100724
0.000995356
0.000976942
0.000954121
0.000929118
0.000903659
0.000878801
0.000855099
0.000832805
0.000812001
0.000792668
0.000774737
0.000758113
0.000742692
0.000728374
0.00071506
0.000702662
0.000691095
0.000680287
0.00067017
0.000660684
0.000651773
0.000643389
0.000635487
0.000628027
0.000620973
0.000614293
0.000607959
0.000601943
0.000596222
0.000590768
0.0005855
0.00101178
0.00101089
0.00100777
0.00100182
0.000992905
0.000981471
0.000968242
0.00095392
0.000939072
0.000924117
0.000909347
0.000894953
0.000881053
0.000867715
0.00085497
0.000842827
0.000831279
0.000820311
0.000809899
0.000800017
0.000790637
0.000781725
0.000773254
0.0007652
0.000757539
0.000750246
0.0007433
0.00073668
0.000730365
0.000724338
0.00071858
0.000713066
0.000707705
0.00101168
0.00101136
0.00101047
0.00100868
0.00100565
0.0010012
0.000995412
0.000988494
0.000980691
0.000972245
0.000963375
0.000954264
0.000945058
0.000935871
0.000926788
0.00091787
0.000909162
0.000900694
0.000892486
0.000884548
0.000876885
0.000869497
0.00086238
0.000855529
0.000848937
0.000842597
0.000836499
0.000830636
0.000824998
0.000819576
0.00081436
0.000809328
0.000804392
0.00101165
0.00101137
0.00101095
0.0010103
0.00100928
0.00100769
0.00100543
0.00100251
0.000998941
0.000994803
0.000990178
0.00098516
0.000979838
0.000974296
0.000968606
0.00096283
0.000957019
0.000951215
0.00094545
0.00093975
0.000934136
0.000928624
0.000923226
0.000917951
0.000912805
0.000907792
0.000902914
0.000898172
0.000893566
0.000889095
0.000884755
0.000880532
0.000876337
0.00101164
0.00101135
0.00101102
0.00101063
0.00101016
0.00100951
0.0010086
0.00100738
0.00100583
0.00100394
0.00100172
0.000999201
0.000996409
0.000993382
0.000990158
0.000986773
0.000983263
0.000979658
0.000975987
0.000972273
0.000968538
0.0009648
0.000961074
0.000957374
0.000953709
0.000950089
0.000946521
0.000943011
0.000939564
0.000936182
0.000932866
0.000929606
0.000926317
0.00101163
0.00101134
0.00101103
0.0010107
0.00101036
0.00100998
0.00100952
0.00100894
0.00100823
0.00100736
0.00100632
0.00100511
0.00100373
0.00100219
0.00100049
0.000998656
0.000996699
0.000994636
0.000992481
0.000990251
0.000987958
0.000985618
0.000983241
0.000980839
0.000978421
0.000975996
0.000973572
0.000971156
0.000968753
0.000966369
0.000964005
0.000961652
0.000959227
0.00101163
0.00101134
0.00101103
0.00101072
0.00101041
0.0010101
0.00100977
0.00100939
0.00100897
0.00100849
0.00100793
0.0010073
0.00100658
0.00100577
0.00100487
0.00100388
0.00100282
0.00100167
0.00100045
0.000999166
0.000997824
0.00099643
0.000994992
0.000993517
0.00099201
0.000990479
0.000988927
0.000987362
0.000985787
0.000984207
0.000982622
0.000981024
0.000979332
0.00101163
0.00101133
0.00101104
0.00101073
0.00101043
0.00101014
0.00100984
0.00100953
0.00100921
0.00100886
0.0010085
0.0010081
0.00100766
0.00100719
0.00100667
0.00100611
0.00100551
0.00100486
0.00100416
0.00100342
0.00100265
0.00100183
0.00100098
0.0010001
0.000999189
0.000998253
0.000997294
0.000996317
0.000995323
0.000994316
0.000993296
0.00099225
0.000991102
0.00101163
0.00101133
0.00101104
0.00101074
0.00101045
0.00101016
0.00100987
0.00100958
0.00100929
0.00100899
0.00100869
0.00100837
0.00100804
0.0010077
0.00100734
0.00100696
0.00100657
0.00100615
0.0010057
0.00100524
0.00100476
0.00100425
0.00100372
0.00100317
0.00100261
0.00100202
0.00100142
0.00100081
0.00100018
0.000999537
0.000998884
0.000998207
0.000997426
0.00101163
0.00101133
0.00101104
0.00101075
0.00101046
0.00101018
0.00100989
0.00100961
0.00100933
0.00100905
0.00100877
0.00100848
0.0010082
0.00100791
0.00100761
0.00100732
0.00100701
0.0010067
0.00100638
0.00100604
0.0010057
0.00100536
0.001005
0.00100463
0.00100425
0.00100386
0.00100346
0.00100306
0.00100264
0.00100222
0.00100179
0.00100134
0.00100078
0.00101163
0.00101133
0.00101105
0.00101075
0.00101047
0.00101019
0.00100991
0.00100963
0.00100936
0.00100908
0.00100881
0.00100854
0.00100827
0.001008
0.00100773
0.00100746
0.00100719
0.00100692
0.00100665
0.00100637
0.0010061
0.00100582
0.00100553
0.00100525
0.00100496
0.00100467
0.00100437
0.00100407
0.00100377
0.00100346
0.00100315
0.00100282
0.0010024
0.00101163
0.00101133
0.00101105
0.00101076
0.00101048
0.0010102
0.00100992
0.00100965
0.00100938
0.00100911
0.00100884
0.00100858
0.00100831
0.00100805
0.0010078
0.00100754
0.00100729
0.00100704
0.00100679
0.00100654
0.00100629
0.00100605
0.0010058
0.00100556
0.00100531
0.00100507
0.00100483
0.00100458
0.00100434
0.0010041
0.00100385
0.00100359
0.00100323
0.00101163
0.00101133
0.00101105
0.00101076
0.00101048
0.00101021
0.00100994
0.00100966
0.0010094
0.00100913
0.00100887
0.00100861
0.00100835
0.00100809
0.00100784
0.00100759
0.00100735
0.00100711
0.00100687
0.00100663
0.00100639
0.00100616
0.00100593
0.00100571
0.00100548
0.00100526
0.00100504
0.00100482
0.00100461
0.00100439
0.00100418
0.00100395
0.00100363
0.00101163
0.00101133
0.00101105
0.00101077
0.00101049
0.00101022
0.00100994
0.00100968
0.00100941
0.00100915
0.00100889
0.00100863
0.00100838
0.00100812
0.00100788
0.00100763
0.00100739
0.00100716
0.00100692
0.00100669
0.00100647
0.00100624
0.00100602
0.00100581
0.00100559
0.00100538
0.00100517
0.00100497
0.00100477
0.00100457
0.00100437
0.00100416
0.00100386
0.00101163
0.00101133
0.00101105
0.00101077
0.00101049
0.00101022
0.00100995
0.00100969
0.00100942
0.00100916
0.0010089
0.00100865
0.0010084
0.00100815
0.00100791
0.00100767
0.00100743
0.0010072
0.00100697
0.00100674
0.00100652
0.0010063
0.00100608
0.00100587
0.00100567
0.00100546
0.00100526
0.00100506
0.00100487
0.00100468
0.00100449
0.00100428
0.00100399
0.00101163
0.00101133
0.00101105
0.00101077
0.0010105
0.00101023
0.00100996
0.00100969
0.00100943
0.00100917
0.00100892
0.00100867
0.00100842
0.00100817
0.00100793
0.00100769
0.00100746
0.00100723
0.001007
0.00100678
0.00100656
0.00100635
0.00100614
0.00100593
0.00100572
0.00100552
0.00100533
0.00100513
0.00100495
0.00100476
0.00100457
0.00100438
0.00100409
0.00101163
0.00101133
0.00101105
0.00101077
0.0010105
0.00101023
0.00100996
0.0010097
0.00100944
0.00100918
0.00100893
0.00100868
0.00100843
0.00100819
0.00100795
0.00100772
0.00100749
0.00100726
0.00100704
0.00100682
0.0010066
0.00100639
0.00100618
0.00100597
0.00100577
0.00100557
0.00100538
0.00100519
0.00100501
0.00100482
0.00100464
0.00100445
0.00100416
0.00101163
0.00101133
0.00101105
0.00101077
0.0010105
0.00101023
0.00100997
0.00100971
0.00100945
0.00100919
0.00100894
0.00100869
0.00100845
0.00100821
0.00100797
0.00100774
0.00100751
0.00100728
0.00100706
0.00100684
0.00100663
0.00100642
0.00100621
0.00100601
0.00100581
0.00100561
0.00100542
0.00100524
0.00100505
0.00100487
0.00100469
0.0010045
0.00100422
0.00101163
0.00101133
0.00101105
0.00101077
0.0010105
0.00101023
0.00100997
0.00100971
0.00100945
0.0010092
0.00100895
0.0010087
0.00100846
0.00100822
0.00100798
0.00100775
0.00100753
0.0010073
0.00100708
0.00100687
0.00100665
0.00100644
0.00100624
0.00100604
0.00100584
0.00100565
0.00100546
0.00100527
0.00100509
0.00100491
0.00100474
0.00100455
0.00100427
0.00101163
0.00101133
0.00101105
0.00101077
0.0010105
0.00101024
0.00100997
0.00100971
0.00100946
0.0010092
0.00100895
0.00100871
0.00100847
0.00100823
0.00100799
0.00100776
0.00100754
0.00100731
0.00100709
0.00100688
0.00100667
0.00100646
0.00100626
0.00100606
0.00100586
0.00100567
0.00100548
0.00100529
0.00100511
0.00100493
0.00100476
0.00100457
0.00100429
0.00101163
0.00101133
0.00101105
0.00101077
0.0010105
0.00101024
0.00100997
0.00100971
0.00100946
0.0010092
0.00100895
0.00100871
0.00100847
0.00100823
0.001008
0.00100777
0.00100754
0.00100732
0.0010071
0.00100689
0.00100668
0.00100647
0.00100627
0.00100607
0.00100588
0.00100568
0.0010055
0.00100531
0.00100513
0.00100496
0.00100478
0.00100459
0.00100432
0.00101163
0.00101133
0.00101105
0.00101077
0.0010105
0.00101024
0.00100997
0.00100971
0.00100946
0.0010092
0.00100896
0.00100871
0.00100847
0.00100823
0.001008
0.00100777
0.00100754
0.00100732
0.0010071
0.00100688
0.00100667
0.00100646
0.00100626
0.00100606
0.00100586
0.00100567
0.00100548
0.0010053
0.00100512
0.00100494
0.00100476
0.00100457
0.00100429
0.00101163
0.00101133
0.00101105
0.00101077
0.0010105
0.00101024
0.00100997
0.00100971
0.00100945
0.0010092
0.00100895
0.00100871
0.00100847
0.00100823
0.00100799
0.00100776
0.00100754
0.00100732
0.0010071
0.00100688
0.00100667
0.00100647
0.00100627
0.00100607
0.00100587
0.00100568
0.00100549
0.00100531
0.00100513
0.00100495
0.00100478
0.00100459
0.00100431
0.00101163
0.00101133
0.00101105
0.00101077
0.0010105
0.00101023
0.00100997
0.00100971
0.00100945
0.0010092
0.00100894
0.0010087
0.00100845
0.00100821
0.00100797
0.00100774
0.00100751
0.00100729
0.00100706
0.00100684
0.00100663
0.00100642
0.00100621
0.00100601
0.00100581
0.00100562
0.00100542
0.00100524
0.00100505
0.00100487
0.00100469
0.0010045
0.00100422
0.00101163
0.00101133
0.00101105
0.00101077
0.0010105
0.00101023
0.00100997
0.0010097
0.00100945
0.00100919
0.00100894
0.00100869
0.00100845
0.00100821
0.00100798
0.00100775
0.00100752
0.0010073
0.00100708
0.00100686
0.00100665
0.00100644
0.00100623
0.00100603
0.00100583
0.00100564
0.00100544
0.00100526
0.00100507
0.00100489
0.00100471
0.00100451
0.00100423
0.00101163
0.00101133
0.00101105
0.00101077
0.0010105
0.00101023
0.00100996
0.00100969
0.00100943
0.00100917
0.00100891
0.00100866
0.00100841
0.00100816
0.00100791
0.00100767
0.00100744
0.0010072
0.00100697
0.00100674
0.00100652
0.0010063
0.00100608
0.00100587
0.00100566
0.00100545
0.00100525
0.00100505
0.00100486
0.00100466
0.00100447
0.00100426
0.00100397
0.00101163
0.00101133
0.00101105
0.00101077
0.00101049
0.00101022
0.00100996
0.0010097
0.00100944
0.00100918
0.00100893
0.00100868
0.00100843
0.00100819
0.00100795
0.00100771
0.00100747
0.00100723
0.00100699
0.00100676
0.00100653
0.0010063
0.00100606
0.00100584
0.00100561
0.00100538
0.00100516
0.00100493
0.00100471
0.00100449
0.00100426
0.00100403
0.00100369
0.00101163
0.00101133
0.00101105
0.00101077
0.00101048
0.0010102
0.00100992
0.00100964
0.00100935
0.00100907
0.00100879
0.00100851
0.00100822
0.00100794
0.00100766
0.00100738
0.0010071
0.00100681
0.00100653
0.00100624
0.00100595
0.00100566
0.00100536
0.00100507
0.00100477
0.00100447
0.00100416
0.00100386
0.00100355
0.00100325
0.00100293
0.00100261
0.00100218
0.00101163
0.00101134
0.00101105
0.00101077
0.00101049
0.00101021
0.00100993
0.00100964
0.00100934
0.00100903
0.00100871
0.00100837
0.00100802
0.00100766
0.00100728
0.00100689
0.00100648
0.00100606
0.00100562
0.00100516
0.00100469
0.00100421
0.00100371
0.0010032
0.00100268
0.00100215
0.00100161
0.00100106
0.00100051
0.000999942
0.00099937
0.000998776
0.000998084
0.00101163
0.00101134
0.00101103
0.00101069
0.00101033
0.00100994
0.00100951
0.00100904
0.00100853
0.00100796
0.00100734
0.00100667
0.00100594
0.00100515
0.00100431
0.00100342
0.00100248
0.00100149
0.00100047
0.000999414
0.000998324
0.000997207
0.000996066
0.000994906
0.00099373
0.000992542
0.000991343
0.000990139
0.00098893
0.00098772
0.000986508
0.000985283
0.000983968
0.00101164
0.00101133
0.00101094
0.00101042
0.00100973
0.00100883
0.0010077
0.00100635
0.00100478
0.001003
0.00100104
0.000998909
0.000996631
0.000994228
0.000991719
0.000989125
0.000986463
0.00098375
0.000981
0.000978226
0.00097544
0.000972653
0.000969871
0.000967103
0.000964354
0.00096163
0.000958936
0.000956277
0.000953656
0.000951075
0.000948534
0.000946023
0.000943466
0.00101162
0.0010106
0.00100853
0.00100543
0.0010014
0.000996513
0.00099091
0.000984747
0.000978174
0.000971314
0.000964272
0.000957136
0.000949978
0.000942854
0.000935809
0.000928876
0.000922081
0.000915443
0.000908974
0.000902684
0.000896577
0.000890657
0.000884922
0.000879373
0.000874006
0.000868818
0.000863805
0.000858962
0.000854285
0.000849768
0.000845404
0.000841178
0.000837014
0.00100895
0.000995379
0.000976042
0.000953694
0.00093032
0.000907093
0.000884657
0.000863329
0.000843228
0.000824388
0.000806781
0.000790351
0.000775024
0.000760719
0.000747357
0.00073486
0.000723157
0.000712183
0.000701875
0.000692181
0.000683051
0.000674438
0.000666304
0.000658612
0.000651328
0.000644423
0.00063787
0.000631643
0.000625721
0.000620083
0.000614709
0.000609578
0.00060463
0.000892788
0.000742255
0.000649202
0.00058554
0.000538566
0.000502138
0.000472884
0.000448753
0.000428416
0.000410981
0.000395823
0.000382493
0.000370655
0.000360056
0.0003505
0.000341832
0.000333927
0.000326687
0.000320027
0.00031388
0.000308189
0.000302905
0.000297986
0.000293396
0.000289105
0.000285086
0.000281314
0.000277769
0.000274433
0.000271288
0.000268319
0.000265515
0.000262864
0.000126722
0.000129956
0.000133005
0.000135891
0.000138628
0.00014123
0.000143705
0.000146063
0.000148309
0.00015045
0.000152489
0.000154433
0.000156285
0.00015805
0.000159732
0.000161334
0.00016286
0.000164313
0.000165696
0.000167014
0.000168268
0.000169462
0.000170599
0.00017168
0.00017271
0.000173689
0.000174621
0.000175508
0.000176352
0.000177155
0.000177919
0.000178647
0.000179344
8.54745e-05
0.000115344
0.000145835
0.00017605
0.000203056
0.000226785
0.000248187
0.000268323
0.000288104
0.000308116
0.00032858
0.000349463
0.000370729
0.000392307
0.000414096
0.000435927
0.000457577
0.000479033
0.000500165
0.000521011
0.000541625
0.000562067
0.000582419
0.000602785
0.000623289
0.000644053
0.000665197
0.000686832
0.000709056
0.000731957
0.000755615
0.000780104
0.000805485
0.000831801
0.000859074
0.000887302
0.000916465
0.000946517
0.000977397
0.00100903
0.00104131
0.00107415
0.00110743
0.00114104
0.00117486
0.00120876
0.00124263
0.00127635
0.00130982
0.00134293
0.00137561
0.00140776
0.00143931
0.00147021
0.0015004
0.00152986
0.00155855
0.00158647
0.00161364
0.00164006
0.0016658
0.0016909
0.00171544
0.0017395
0.00176318
0.00178659
0.00180984
0.00183301
0.00185622
0.00187956
0.00190309
0.00192689
0.001951
0.00197544
0.00200023
0.00202536
0.00205081
0.00207654
0.00210249
0.0021286
0.00215482
0.00218113
0.0022075
0.00223392
0.00226036
0.00228677
0.00231305
0.0023391
0.00236475
0.0023898
0.00241401
0.00243712
0.0024589
0.00247913
0.00249777
0.00251508
0.00253182
0.00255009
0.0025734
0.00261701
7.83546e-05
8.4745e-05
9.5262e-05
0.000110477
0.000129533
0.000151369
0.000174493
0.000197723
0.000220471
0.000242529
0.000263932
0.000284854
0.000305549
0.000326268
0.000347182
0.000368323
0.0003896
0.000410922
0.000432294
0.000453591
0.000474748
0.000495744
0.000516591
0.000537334
0.000558038
0.000578785
0.000599661
0.000620755
0.000642154
0.000663941
0.0006862
0.000709009
0.000732442
0.000756562
0.000781422
0.000807054
0.000833478
0.000860691
0.000888675
0.000917393
0.000946796
0.000976817
0.00100738
0.0010384
0.00106977
0.00110141
0.0011332
0.00116504
0.00119683
0.00122848
0.0012599
0.00129099
0.00132168
0.00135192
0.00138164
0.00141081
0.0014394
0.0014674
0.0014948
0.00152164
0.00154796
0.00157379
0.00159922
0.00162432
0.00164919
0.00167392
0.00169859
0.00172332
0.00174817
0.00177324
0.00179857
0.00182421
0.0018502
0.00187655
0.00190326
0.0019303
0.00195766
0.00198527
0.00201309
0.00204105
0.0020691
0.00209722
0.00212538
0.00215355
0.00218172
0.00220981
0.00223775
0.0022654
0.0022926
0.00231914
0.00234477
0.00236923
0.00239228
0.00241373
0.00243349
0.00245186
0.00246951
0.00248837
0.00251158
0.00255094
0.000137742
0.000137415
0.000137927
0.000139216
0.000141098
0.000143466
0.000147858
0.000155293
0.000165909
0.000179203
0.000194745
0.000212098
0.000230836
0.000250589
0.000271054
0.000291973
0.000313088
0.000334214
0.000355441
0.000376708
0.000397952
0.000419128
0.000440209
0.00046119
0.000482083
0.000502919
0.000523742
0.000544608
0.000565582
0.000586733
0.000608136
0.000629867
0.000652002
0.000674613
0.000697765
0.000721516
0.000745909
0.000770975
0.000796727
0.000823165
0.000850273
0.00087802
0.000906358
0.000935231
0.000964568
0.00099429
0.00102431
0.00105455
0.0010849
0.00111528
0.00114561
0.0011758
0.00120578
0.00123549
0.00126487
0.00129388
0.0013225
0.00135071
0.0013785
0.00140591
0.00143296
0.0014597
0.00148618
0.00151249
0.00153869
0.00156488
0.00159113
0.00161753
0.00164414
0.00167102
0.00169823
0.00172578
0.00175369
0.00178197
0.00181058
0.00183952
0.00186872
0.00189815
0.00192774
0.00195743
0.00198717
0.00201692
0.00204668
0.0020764
0.00210606
0.00213561
0.00216495
0.00219395
0.00222245
0.00225023
0.00227705
0.00230265
0.00232678
0.00234926
0.00237002
0.0023893
0.00240775
0.0024271
0.00245009
0.00248476
0.00028118
0.000277087
0.000273371
0.000270032
0.000266875
0.000263282
0.000258716
0.000253026
0.000246359
0.000240668
0.000236888
0.000235493
0.00023685
0.000241117
0.000248243
0.000258002
0.000270027
0.00028389
0.000299256
0.000315862
0.000333416
0.000351666
0.000370409
0.000389497
0.00040883
0.000428348
0.000448023
0.000467851
0.000487845
0.000508033
0.000528451
0.000549143
0.000570159
0.000591552
0.000613377
0.000635686
0.000658526
0.000681939
0.000705954
0.000730592
0.000755858
0.000781747
0.000808239
0.000835302
0.000862892
0.000890953
0.000919423
0.00094823
0.0009773
0.00100656
0.00103593
0.00106534
0.00109472
0.00112402
0.00115319
0.00118217
0.00121095
0.00123951
0.00126784
0.00129596
0.00132389
0.00135167
0.00137935
0.00140699
0.00143464
0.0014624
0.00149031
0.00151844
0.00154685
0.00157558
0.00160466
0.0016341
0.00166389
0.00169402
0.00172446
0.00175517
0.00178609
0.00181718
0.00184835
0.00187956
0.00191076
0.00194191
0.00197299
0.00200398
0.00203485
0.00206555
0.00209598
0.00212602
0.00215551
0.00218424
0.00221197
0.00223844
0.00226342
0.00228671
0.00230825
0.00232827
0.00234735
0.00236701
0.00238963
0.00241916
0.000436015
0.0004303
0.000424736
0.000419456
0.000414497
0.000409776
0.000405062
0.00039998
0.000394028
0.000386896
0.000378741
0.000369955
0.000360874
0.000351958
0.000343759
0.000336833
0.000331661
0.000328555
0.000327781
0.000329477
0.000333596
0.000339994
0.000348466
0.000358772
0.000370667
0.000383915
0.000398301
0.000413647
0.000429807
0.000446674
0.000464172
0.000482252
0.000500889
0.000520074
0.000539812
0.000560114
0.000580998
0.000602484
0.000624589
0.000647329
0.000670713
0.000694742
0.00071941
0.000744701
0.000770587
0.000797034
0.000823997
0.000851423
0.000879254
0.00090743
0.000935888
0.000964565
0.000993402
0.00102234
0.00105134
0.00108036
0.00110936
0.00113833
0.00116726
0.00119614
0.00122501
0.00125387
0.00128277
0.00131176
0.00134088
0.00137018
0.00139972
0.00142954
0.00145967
0.00149015
0.00152097
0.00155214
0.00158364
0.00161543
0.00164747
0.0016797
0.00171208
0.00174453
0.00177699
0.0018094
0.00184172
0.00187391
0.00190596
0.00193785
0.00196955
0.00200101
0.00203216
0.00206288
0.002093
0.00212233
0.00215063
0.00217766
0.00220318
0.00222703
0.00224911
0.00226966
0.00228915
0.00230892
0.002331
0.002355
0.000579025
0.000572594
0.000566232
0.000560007
0.000553987
0.000548198
0.00054266
0.000537351
0.000532148
0.000526851
0.000521234
0.000515223
0.00050862
0.00050128
0.000493123
0.000484156
0.000474495
0.000464346
0.000454091
0.000444221
0.000435219
0.000427522
0.000421489
0.000417386
0.000415373
0.000415516
0.000417798
0.00042214
0.000428419
0.000436488
0.000446192
0.000457382
0.000469918
0.000483681
0.000498569
0.000514503
0.00053142
0.000549272
0.000568023
0.000587647
0.00060812
0.000629422
0.000651531
0.000674423
0.00069807
0.000722438
0.000747486
0.000773171
0.000799441
0.000826244
0.000853523
0.000881221
0.000909284
0.000937659
0.000966298
0.000995158
0.0010242
0.00105341
0.00108276
0.00111225
0.00114187
0.00117164
0.00120158
0.00123172
0.00126209
0.00129272
0.00132364
0.00135487
0.00138644
0.00141834
0.00145057
0.00148311
0.00151593
0.00154897
0.00158219
0.00161552
0.0016489
0.00168226
0.00171554
0.00174869
0.00178166
0.00181443
0.00184698
0.0018793
0.00191138
0.00194316
0.00197459
0.00200555
0.00203589
0.00206543
0.00209394
0.00212118
0.00214694
0.00217104
0.0021934
0.00221422
0.0022339
0.00225357
0.0022749
0.00229309
0.000701046
0.000694452
0.000687958
0.000681539
0.000675277
0.000669194
0.000663315
0.000657667
0.000652231
0.000646987
0.000641887
0.000636893
0.000631929
0.000626888
0.000621631
0.000616005
0.000609845
0.000602989
0.000595312
0.000586811
0.000577555
0.000567711
0.000557537
0.000547356
0.000537533
0.000528439
0.00052042
0.000513776
0.000508745
0.000505497
0.000504133
0.000504698
0.000507184
0.000511548
0.000517723
0.000525624
0.000535162
0.000546249
0.000558799
0.000572734
0.000587983
0.000604481
0.000622169
0.000640992
0.000660895
0.000681826
0.00070373
0.000726551
0.000750234
0.000774717
0.000799942
0.000825847
0.000852374
0.000879464
0.000907063
0.00093512
0.000963592
0.000992439
0.00102163
0.00105115
0.00108097
0.0011111
0.00114153
0.00117227
0.00120332
0.0012347
0.00126641
0.00129846
0.00133084
0.00136354
0.00139654
0.00142979
0.00146327
0.00149689
0.00153062
0.00156437
0.00159809
0.00163172
0.00166518
0.00169844
0.00173146
0.00176422
0.00179671
0.00182893
0.00186086
0.00189247
0.00192371
0.00195446
0.00198461
0.00201396
0.00204231
0.00206944
0.00209511
0.00211919
0.00214156
0.00216242
0.00218207
0.00220142
0.00222185
0.0022341
0.000798148
0.000792011
0.000785943
0.000779921
0.000773973
0.000768112
0.000762352
0.000756725
0.000751256
0.000745966
0.000740868
0.000735972
0.00073128
0.000726775
0.000722423
0.000718169
0.000713935
0.000709617
0.000705087
0.00070022
0.000694895
0.000689019
0.000682517
0.000675373
0.000667644
0.000659447
0.00065096
0.000642412
0.000634064
0.000626187
0.00061905
0.000612901
0.000607959
0.000604405
0.000602375
0.000601968
0.000603244
0.000606232
0.000610935
0.000617336
0.000625403
0.000635095
0.000646363
0.000659153
0.000673408
0.000689066
0.000706067
0.000724345
0.000743834
0.000764466
0.000786173
0.000808886
0.000832535
0.000857052
0.000882371
0.000908429
0.000935167
0.000962531
0.000990471
0.00101895
0.00104792
0.00107736
0.00110725
0.00113756
0.00116828
0.0011994
0.0012309
0.00126276
0.00129496
0.00132747
0.00136024
0.00139324
0.0014264
0.00145967
0.00149299
0.00152629
0.0015595
0.00159257
0.00162544
0.00165808
0.00169046
0.00172257
0.0017544
0.00178596
0.00181723
0.0018482
0.00187881
0.00190896
0.00193855
0.00196739
0.00199528
0.00202202
0.00204739
0.00207122
0.00209343
0.00211414
0.0021336
0.00215248
0.0021719
0.00217833
0.000870886
0.000865603
0.00086034
0.0008551
0.000849868
0.000844668
0.000839513
0.000834425
0.000829422
0.000824523
0.000819739
0.000815079
0.000810561
0.000806206
0.000802028
0.000798034
0.000794221
0.000790573
0.000787055
0.000783607
0.000780171
0.000776677
0.000773046
0.0007692
0.000765071
0.000760613
0.000755806
0.000750668
0.000745258
0.000739627
0.000733898
0.000728225
0.000722787
0.000717772
0.000713367
0.000709749
0.000707081
0.000705511
0.000705163
0.00070614
0.000708522
0.000712366
0.000717712
0.000724581
0.000732978
0.000742895
0.000754312
0.000767197
0.000781511
0.000797207
0.000814231
0.000832524
0.000852022
0.000872659
0.000894368
0.00091708
0.000940726
0.000965242
0.000990563
0.00101663
0.00104339
0.00107079
0.00109879
0.00112733
0.0011564
0.00118593
0.00121591
0.0012463
0.00127705
0.00130812
0.00133946
0.00137102
0.00140274
0.00143457
0.00146645
0.0014983
0.00153009
0.00156175
0.00159325
0.00162456
0.00165564
0.00168651
0.00171716
0.00174759
0.0017778
0.00180777
0.00183745
0.00186675
0.00189557
0.00192372
0.00195103
0.00197728
0.00200225
0.0020258
0.00204779
0.00206834
0.00208759
0.00210599
0.00212444
0.00212553
0.000921863
0.000917652
0.00091342
0.000909174
0.000904906
0.000900619
0.000896331
0.00089205
0.000887786
0.000883551
0.000879357
0.000875218
0.000871147
0.00086716
0.000863277
0.000859515
0.000855893
0.000852427
0.000849129
0.000846002
0.000843048
0.00084025
0.000837589
0.000835035
0.000832553
0.000830105
0.00082765
0.000825154
0.000822595
0.000819957
0.000817243
0.000814478
0.000811712
0.000809022
0.000806457
0.000804115
0.000802115
0.000800579
0.000799631
0.000799394
0.000799983
0.000801506
0.000804058
0.000807724
0.000812573
0.000818662
0.000826031
0.00083471
0.000844711
0.000856037
0.000868677
0.000882612
0.00089781
0.000914231
0.000931831
0.000950555
0.000970347
0.000991148
0.0010129
0.00103553
0.00105899
0.00108321
0.00110814
0.00113373
0.00115992
0.00118666
0.0012139
0.00124161
0.00126972
0.0012982
0.00132699
0.00135604
0.0013853
0.00141472
0.00144424
0.00147382
0.0015034
0.00153296
0.00156247
0.00159189
0.00162121
0.00165044
0.00167958
0.00170864
0.0017376
0.00176644
0.00179513
0.00182357
0.00185164
0.00187919
0.00190602
0.00193192
0.00195668
0.00198012
0.0020021
0.00202268
0.00204192
0.00206007
0.00207782
0.00207451
0.000955744
0.000952591
0.000949391
0.000946149
0.000942871
0.000939551
0.000936194
0.00093281
0.000929406
0.000925991
0.000922572
0.000919156
0.00091575
0.000912362
0.000909005
0.000905696
0.000902452
0.000899293
0.000896235
0.000893294
0.000890494
0.000887852
0.00088538
0.000883088
0.000880981
0.000879059
0.000877317
0.000875743
0.000874327
0.000873054
0.000871913
0.000870897
0.000870005
0.000869249
0.000868644
0.000868219
0.000868001
0.000868026
0.000868354
0.000869058
0.000870216
0.000871911
0.000874224
0.000877237
0.000881028
0.000885668
0.000891223
0.000897748
0.000905291
0.000913889
0.000923569
0.000934346
0.000946225
0.0009592
0.000973257
0.000988371
0.00100451
0.00102164
0.00103971
0.00105867
0.00107848
0.00109908
0.00112043
0.00114246
0.00116513
0.00118838
0.00121219
0.00123648
0.00126124
0.0012864
0.00131193
0.00133779
0.00136394
0.00139033
0.00141694
0.00144373
0.00147066
0.00149772
0.00152489
0.00155216
0.00157952
0.00160697
0.00163453
0.00166219
0.00168996
0.00171779
0.00174565
0.00177346
0.00180108
0.00182835
0.00185509
0.00188106
0.00190605
0.00192985
0.00195231
0.00197341
0.00199314
0.00201153
0.00202915
0.00202295
0.000976687
0.000974453
0.000972164
0.000969824
0.000967434
0.000964999
0.000962514
0.000959984
0.000957416
0.000954812
0.000952177
0.000949513
0.000946825
0.000944118
0.000941398
0.000938674
0.000935957
0.00093326
0.000930597
0.000927988
0.00092545
0.000923011
0.000920686
0.000918498
0.000916468
0.000914613
0.000912952
0.000911496
0.000910256
0.000909239
0.000908449
0.000907889
0.00090756
0.000907464
0.000907605
0.00090799
0.00090862
0.000909501
0.000910652
0.000912103
0.000913892
0.00091606
0.000918654
0.000921726
0.000925327
0.000929513
0.000934335
0.000939845
0.00094609
0.000953114
0.000960952
0.000969635
0.000979185
0.000989616
0.00100094
0.00101314
0.00102622
0.00104016
0.00105493
0.00107051
0.00108686
0.00110395
0.00112173
0.00114017
0.00115922
0.00117885
0.00119903
0.00121971
0.00124087
0.00126247
0.00128449
0.00130691
0.00132969
0.00135283
0.0013763
0.00140009
0.00142419
0.0014486
0.00147331
0.00149833
0.00152367
0.00154934
0.00157535
0.0016017
0.0016284
0.00165542
0.00168271
0.00171019
0.00173774
0.00176518
0.00179232
0.00181893
0.00184476
0.00186959
0.00189321
0.00191556
0.00193651
0.00195595
0.00197427
0.0019673
0.000989089
0.00098756
0.000985979
0.000984347
0.000982669
0.000980944
0.000979172
0.000977354
0.000975492
0.000973589
0.000971647
0.000969665
0.000967647
0.000965594
0.000963509
0.000961395
0.000959258
0.000957103
0.000954939
0.000952779
0.000950636
0.000948528
0.000946471
0.000944485
0.000942591
0.000940812
0.000939167
0.00093768
0.000936368
0.000935252
0.000934346
0.000933667
0.000933219
0.000933007
0.000933042
0.000933331
0.000933883
0.000934705
0.000935808
0.000937203
0.000938906
0.000940938
0.000943321
0.000946082
0.000949252
0.000952861
0.000956944