/*--------------------------------*- C++ -*----------------------------------*\
| =========                 |                                                 |
| \\      /  F ield         | OpenFOAM: The Open Source CFD Toolbox           |
|  \\    /   O peration     | Version:  4.1                                   |
|   \\  /    A nd           | Web:      www.OpenFOAM.org                      |
|    \\/     M anipulation  |                                                 |
\*---------------------------------------------------------------------------*/
FoamFile
{
    version     2.0;
    format      ascii;
    class       volScalarField;
    location    "800";
    object      p;
}
// * * * * * * * * * * * * * * * * * * * * * * * * * * * * * * * * * * * * * //

dimensions      [0 2 -2 0 0 0 0];

internalField   nonuniform List<scalar> 
6820
(
-8.24059
-8.49815
-8.59577
-8.61649
-8.64973
-8.69505
-8.73669
-8.77287
-8.8066
-8.83873
-8.86882
-8.89673
-8.92272
-8.94706
-8.96992
-8.99147
-9.01187
-9.03127
-9.04981
-9.06761
-9.08476
-9.10137
-9.11752
-9.13328
-9.14873
-9.16392
-9.17892
-9.19376
-9.20856
-9.22317
-9.23853
-9.25236
-9.28244
-8.35338
-8.51943
-8.59816
-8.61905
-8.64599
-8.68126
-8.71289
-8.73982
-8.76514
-8.7899
-8.81379
-8.83669
-8.85877
-8.88016
-8.90093
-8.92111
-8.94075
-8.9599
-8.97861
-8.9969
-9.01482
-9.03241
-9.04971
-9.06674
-9.08355
-9.10017
-9.11663
-9.13297
-9.14926
-9.16547
-9.18183
-9.19832
-9.215
-8.40964
-8.51434
-8.59237
-8.62429
-8.6525
-8.68571
-8.71617
-8.74251
-8.76715
-8.79109
-8.81411
-8.83609
-8.85718
-8.87751
-8.89714
-8.91613
-8.93454
-8.95242
-8.96983
-8.98682
-9.00344
-9.01972
-9.03572
-9.05146
-9.067
-9.08236
-9.09759
-9.11271
-9.12779
-9.14281
-9.15796
-9.17284
-9.18835
-8.45942
-8.53442
-8.60707
-8.64224
-8.66972
-8.7013
-8.73133
-8.75768
-8.78209
-8.80552
-8.8279
-8.84915
-8.86944
-8.88894
-8.90772
-8.92587
-8.94345
-8.96053
-8.97717
-8.99343
-9.00935
-9.02496
-9.04032
-9.05546
-9.07041
-9.08521
-9.09989
-9.11449
-9.12905
-9.14358
-9.15816
-9.17273
-9.18737
-8.50091
-8.55214
-8.61236
-8.64722
-8.67447
-8.70473
-8.73398
-8.76001
-8.78417
-8.80738
-8.82966
-8.85094
-8.87135
-8.89102
-8.91003
-8.92842
-8.94626
-8.9636
-8.98049
-8.99698
-9.0131
-9.02889
-9.0444
-9.05966
-9.0747
-9.08956
-9.10428
-9.11888
-9.1334
-9.14788
-9.16236
-9.17687
-9.19146
-8.5357
-8.57156
-8.6224
-8.65769
-8.68535
-8.71441
-8.74277
-8.76849
-8.79245
-8.81546
-8.83753
-8.85863
-8.87884
-8.8983
-8.91706
-8.9352
-8.95277
-8.96982
-8.98643
-9.00262
-9.01845
-9.03395
-9.04917
-9.06414
-9.0789
-9.09347
-9.1079
-9.12221
-9.13644
-9.15062
-9.16479
-9.17901
-9.19334
-8.56555
-8.5911
-8.633
-8.66618
-8.69266
-8.71976
-8.74667
-8.7716
-8.79498
-8.81745
-8.83908
-8.85984
-8.8798
-8.89906
-8.9177
-8.93576
-8.9533
-8.97036
-8.98699
-9.00323
-9.01911
-9.03468
-9.04996
-9.06499
-9.07979
-9.0944
-9.10885
-9.12316
-9.13736
-9.15149
-9.16558
-9.17967
-9.19382
-8.59148
-8.61006
-8.64448
-8.67533
-8.70106
-8.72694
-8.75285
-8.77726
-8.80028
-8.82243
-8.8438
-8.86436
-8.88417
-8.9033
-8.92181
-8.93975
-8.95717
-8.9741
-8.99059
-9.00668
-9.02241
-9.03781
-9.05292
-9.06775
-9.08236
-9.09675
-9.11096
-9.12503
-9.13896
-9.15279
-9.16655
-9.18027
-9.19397
-8.61434
-8.62817
-8.65647
-8.68457
-8.70903
-8.73334
-8.75781
-8.78123
-8.8035
-8.825
-8.84582
-8.86593
-8.88535
-8.90415
-8.92239
-8.94009
-8.95731
-8.97407
-8.99042
-9.0064
-9.02202
-9.03733
-9.05235
-9.0671
-9.08162
-9.09593
-9.11005
-9.124
-9.1378
-9.15147
-9.16504
-9.17851
-9.19191
-8.63471
-8.64525
-8.66861
-8.69391
-8.717
-8.73994
-8.76319
-8.7858
-8.80751
-8.82855
-8.84899
-8.86879
-8.88798
-8.90659
-8.92466
-8.94223
-8.95932
-8.97598
-8.99222
-9.00808
-9.02359
-9.03878
-9.05367
-9.06828
-9.08264
-9.09677
-9.11069
-9.12441
-9.13797
-9.15136
-9.16459
-9.17769
-9.19061
-8.65304
-8.66125
-8.68067
-8.7033
-8.7249
-8.74647
-8.76843
-8.79006
-8.811
-8.83138
-8.85124
-8.87056
-8.88932
-8.90756
-8.92531
-8.94259
-8.95942
-8.97584
-8.99187
-9.00753
-9.02285
-9.03785
-9.05256
-9.067
-9.08118
-9.09513
-9.10886
-9.12238
-9.1357
-9.14884
-9.1618
-9.17458
-9.18716
-8.66966
-8.67617
-8.69246
-8.71263
-8.73271
-8.75295
-8.7737
-8.79437
-8.81459
-8.83438
-8.85374
-8.87265
-8.89108
-8.90904
-8.92655
-8.94362
-8.96028
-8.97653
-8.99241
-9.00794
-9.02312
-9.03799
-9.05256
-9.06685
-9.08087
-9.09464
-9.10817
-9.12148
-9.13456
-9.14742
-9.16007
-9.17249
-9.18464
-8.68479
-8.69005
-8.70384
-8.72181
-8.74038
-8.75936
-8.77893
-8.79864
-8.81808
-8.83721
-8.856
-8.87441
-8.89241
-8.90998
-8.92715
-8.94392
-8.96029
-8.97628
-8.99192
-9.0072
-9.02216
-9.03681
-9.05116
-9.06522
-9.07901
-9.09255
-9.10583
-9.11888
-9.13168
-9.14425
-9.15657
-9.16864
-9.18044
-8.69863
-8.70293
-8.71473
-8.73076
-8.74789
-8.76565
-8.78411
-8.80286
-8.82154
-8.84001
-8.85824
-8.87618
-8.89377
-8.911
-8.92786
-8.94435
-8.96049
-8.97626
-8.9917
-9.0068
-9.02157
-9.03604
-9.05021
-9.06409
-9.0777
-9.09103
-9.1041
-9.11691
-9.12947
-9.14176
-9.15378
-9.16552
-9.17695
-8.71129
-8.71485
-8.72505
-8.73939
-8.75517
-8.77179
-8.78918
-8.80702
-8.82493
-8.84275
-8.86041
-8.87784
-8.89499
-8.91183
-8.92834
-8.94451
-8.96035
-8.97585
-8.99102
-9.00586
-9.02039
-9.03462
-9.04855
-9.06218
-9.07553
-9.08861
-9.10141
-9.11394
-9.12619
-9.13817
-9.14987
-9.16127
-9.17236
-8.72287
-8.72585
-8.73475
-8.74764
-8.76219
-8.77772
-8.79413
-8.81108
-8.82824
-8.84541
-8.8625
-8.87944
-8.89615
-8.9126
-8.92877
-8.94463
-8.96018
-8.97542
-8.99035
-9.00496
-9.01927
-9.03328
-9.04698
-9.0604
-9.07353
-9.08638
-9.09894
-9.11122
-9.12321
-9.13492
-9.14632
-9.15741
-9.16817
-8.73346
-8.73596
-8.74381
-8.75545
-8.76887
-8.78341
-8.79889
-8.81501
-8.83144
-8.84798
-8.86451
-8.88095
-8.89722
-8.91328
-8.92908
-8.94462
-8.95987
-8.97482
-8.98947
-9.00382
-9.01787
-9.03162
-9.04508
-9.05824
-9.07111
-9.08368
-9.09597
-9.10796
-9.11966
-9.13106
-9.14215
-9.15292
-9.16335
-8.74309
-8.74521
-8.75219
-8.76277
-8.77519
-8.78881
-8.80343
-8.81877
-8.83451
-8.85044
-8.86642
-8.88238
-8.89821
-8.91387
-8.92932
-8.94453
-8.95947
-8.97414
-8.98852
-9.00261
-9.01641
-9.02991
-9.04313
-9.05604
-9.06866
-9.08099
-9.09302
-9.10476
-9.11619
-9.12731
-9.13811
-9.14859
-9.15873
-8.75181
-8.75362
-8.75988
-8.76956
-8.78109
-8.79387
-8.80771
-8.82233
-8.83741
-8.85275
-8.86822
-8.88369
-8.8991
-8.91437
-8.92946
-8.94434
-8.95897
-8.97334
-8.98744
-9.00127
-9.0148
-9.02804
-9.04099
-9.05365
-9.06601
-9.07807
-9.08983
-9.10128
-9.11242
-9.12326
-9.13377
-9.14395
-9.1538
-8.75964
-8.76119
-8.76686
-8.77577
-8.78652
-8.79856
-8.81169
-8.82564
-8.84011
-8.8549
-8.86986
-8.88488
-8.89988
-8.91477
-8.9295
-8.94405
-8.95838
-8.97246
-8.98628
-8.99983
-9.0131
-9.02609
-9.03878
-9.05118
-9.06328
-9.07508
-9.08658
-9.09777
-9.10865
-9.11921
-9.12945
-9.13936
-9.14893
-8.76658
-8.76792
-8.7731
-8.78137
-8.79145
-8.80283
-8.81532
-8.82866
-8.84257
-8.85685
-8.87134
-8.88593
-8.90052
-8.91504
-8.92944
-8.94366
-8.95768
-8.97147
-8.98502
-8.9983
-9.0113
-9.02403
-9.03646
-9.0486
-9.06044
-9.07198
-9.08321
-9.09413
-9.10474
-9.11503
-9.125
-9.13464
-9.14394
-8.77264
-8.77381
-8.77858
-8.78632
-8.79583
-8.80663
-8.81856
-8.83136
-8.84477
-8.85857
-8.87262
-8.8868
-8.90102
-8.91519
-8.92925
-8.94316
-8.95689
-8.97039
-8.98366
-8.99667
-9.00941
-9.02187
-9.03405
-9.04593
-9.05752
-9.0688
-9.07977
-9.09043
-9.10078
-9.11081
-9.12052
-9.12991
-9.13896
-8.7778
-8.77883
-8.78328
-8.79058
-8.79961
-8.80992
-8.82136
-8.83369
-8.84665
-8.86003
-8.87368
-8.88749
-8.90135
-8.91518
-8.92893
-8.94254
-8.95598
-8.9692
-8.9822
-8.99495
-9.00743
-9.01964
-9.03156
-9.04319
-9.05452
-9.06555
-9.07627
-9.08668
-9.09678
-9.10656
-9.11602
-9.12516
-9.13397
-8.78204
-8.78296
-8.78715
-8.79411
-8.80275
-8.81266
-8.82369
-8.83562
-8.84818
-8.86118
-8.87448
-8.88794
-8.90148
-8.915
-8.92845
-8.94178
-8.95494
-8.96789
-8.98063
-8.99312
-9.00534
-9.0173
-9.02897
-9.04035
-9.05143
-9.06221
-9.07268
-9.08284
-9.09268
-9.10222
-9.11143
-9.12033
-9.12891
-8.78531
-8.78616
-8.79017
-8.79686
-8.80521
-8.8148
-8.8255
-8.83709
-8.84932
-8.862
-8.87498
-8.88814
-8.90138
-8.91462
-8.9278
-8.94085
-8.95375
-8.96645
-8.97893
-8.99118
-9.00316
-9.01487
-9.0263
-9.03744
-9.04829
-9.05883
-9.06907
-9.07899
-9.08861
-9.09791
-9.1069
-9.11558
-9.12393
-8.78757
-8.78837
-8.79225
-8.79877
-8.80691
-8.81626
-8.82671
-8.83804
-8.85
-8.86241
-8.87513
-8.88802
-8.901
-8.91399
-8.92691
-8.93971
-8.95236
-8.96482
-8.97706
-8.98906
-9.0008
-9.01227
-9.02346
-9.03436
-9.04496
-9.05526
-9.06525
-9.07494
-9.08432
-9.09339
-9.10214
-9.11059
-9.11873
-8.78874
-8.78952
-8.79334
-8.79976
-8.80777
-8.81698
-8.82726
-8.8384
-8.85017
-8.86237
-8.87487
-8.88754
-8.9003
-8.91306
-8.92576
-8.93834
-8.95077
-8.96301
-8.97502
-8.9868
-8.99833
-9.00958
-9.02056
-9.03124
-9.04163
-9.05172
-9.06151
-9.07098
-9.08016
-9.08902
-9.09757
-9.10582
-9.11374
-8.78875
-8.78955
-8.79336
-8.79978
-8.80777
-8.81694
-8.82714
-8.83817
-8.84981
-8.86187
-8.8742
-8.88671
-8.89928
-8.91184
-8.92433
-8.9367
-8.94891
-8.96093
-8.97272
-8.98428
-8.99557
-9.0066
-9.01734
-9.02779
-9.03795
-9.04781
-9.05736
-9.06661
-9.07555
-9.08419
-9.09253
-9.10056
-9.1083
-8.7875
-8.78835
-8.79226
-8.79878
-8.80687
-8.8161
-8.82632
-8.83734
-8.84894
-8.86092
-8.87316
-8.88555
-8.89799
-8.91041
-8.92275
-8.93496
-8.94701
-8.95885
-8.97047
-8.98185
-8.99297
-9.00381
-9.01438
-9.02465
-9.03462
-9.0443
-9.05367
-9.06274
-9.0715
-9.07996
-9.08812
-9.09597
-9.1035
-8.78487
-8.78582
-8.78993
-8.79669
-8.80501
-8.81442
-8.82477
-8.83588
-8.84751
-8.85949
-8.87168
-8.88398
-8.8963
-8.90858
-8.92076
-8.9328
-8.94465
-8.9563
-8.96772
-8.97889
-8.98979
-9.00042
-9.01076
-9.02081
-9.03057
-9.04002
-9.04917
-9.05803
-9.06657
-9.07482
-9.08278
-9.09044
-9.09782
-8.78067
-8.78179
-8.78623
-8.79341
-8.80212
-8.81185
-8.82247
-8.83379
-8.84558
-8.85766
-8.86991
-8.88223
-8.89455
-8.90679
-8.91891
-8.93087
-8.94264
-8.95418
-8.96548
-8.97652
-8.98729
-8.99778
-9.00798
-9.01789
-9.02749
-9.0368
-9.0458
-9.0545
-9.06289
-9.07098
-9.07877
-9.08625
-9.09342
-8.77468
-8.77605
-8.78101
-8.78883
-8.79813
-8.80834
-8.81934
-8.83094
-8.84292
-8.85511
-8.86739
-8.8797
-8.89195
-8.9041
-8.9161
-8.92792
-8.93952
-8.9509
-8.96201
-8.97287
-8.98345
-8.99374
-9.00374
-9.01344
-9.02285
-9.03195
-9.04075
-9.04925
-9.05745
-9.06536
-9.07298
-9.08032
-9.08738
-8.76656
-8.76831
-8.77408
-8.78286
-8.79301
-8.80393
-8.81555
-8.8277
-8.84013
-8.85266
-8.8652
-8.87768
-8.89006
-8.90228
-8.91431
-8.92612
-8.93769
-8.949
-8.96004
-8.97081
-8.98128
-8.99146
-9.00135
-9.01092
-9.0202
-9.02917
-9.03783
-9.04619
-9.05425
-9.062
-9.06945
-9.07659
-9.08341
-8.75586
-8.75821
-8.76524
-8.77539
-8.78657
-8.79821
-8.81038
-8.82296
-8.83569
-8.84841
-8.86106
-8.8736
-8.88598
-8.89816
-8.91012
-8.92184
-8.93329
-8.94448
-8.95538
-8.966
-8.97631
-8.98633
-8.99605
-9.00546
-9.01457
-9.02337
-9.03188
-9.04008
-9.04798
-9.05559
-9.06292
-9.06998
-9.07677
-8.74185
-8.74517
-8.75424
-8.76658
-8.77951
-8.79257
-8.80596
-8.8195
-8.83293
-8.84614
-8.85914
-8.87192
-8.88445
-8.89671
-8.90869
-8.92039
-8.9318
-8.94292
-8.95373
-8.96424
-8.97444
-8.98434
-8.99392
-9.00319
-9.01215
-9.0208
-9.02914
-9.03718
-9.04491
-9.05234
-9.05947
-9.06629
-9.07279
-8.72346
-8.72855
-8.74064
-8.75514
-8.76909
-8.78296
-8.79725
-8.81156
-8.82552
-8.83911
-8.8524
-8.86539
-8.87805
-8.89037
-8.90236
-8.91404
-8.92539
-8.93643
-8.94714
-8.95755
-8.96764
-8.97741
-8.98688
-8.99603
-9.00488
-9.01342
-9.02166
-9.02959
-9.03723
-9.04458
-9.05165
-9.05844
-9.06498
-8.69853
-8.70768
-8.72708
-8.74682
-8.76326
-8.77865
-8.79417
-8.80929
-8.82366
-8.83746
-8.85085
-8.86385
-8.87645
-8.88869
-8.90057
-8.9121
-8.9233
-8.93417
-8.94471
-8.95493
-8.96482
-8.97439
-8.98364
-8.99257
-9.0012
-9.00951
-9.01752
-9.02523
-9.03263
-9.03975
-9.04657
-9.0531
-9.05933
-8.66359
-8.67725
-8.70288
-8.72614
-8.7451
-8.76312
-8.78075
-8.79721
-8.81242
-8.8268
-8.84057
-8.85377
-8.86645
-8.87867
-8.8905
-8.90196
-8.91306
-8.92383
-8.93427
-8.94439
-8.9542
-8.96371
-8.97291
-8.9818
-8.99039
-8.99868
-9.00668
-9.01438
-9.02178
-9.02889
-9.0357
-9.04219
-9.04836
-8.6162
-8.66386
-8.70324
-8.72351
-8.73978
-8.75813
-8.7761
-8.79204
-8.8066
-8.82053
-8.83396
-8.84685
-8.85923
-8.87116
-8.88271
-8.8939
-8.90474
-8.91525
-8.92545
-8.93533
-8.94491
-8.95419
-8.96318
-8.97187
-8.98028
-8.9884
-8.99625
-9.00383
-9.01116
-9.01824
-9.02511
-9.03181
-9.03837
-8.48187
-8.60405
-8.67871
-8.70293
-8.71925
-8.74027
-8.76075
-8.77796
-8.79329
-8.8081
-8.82263
-8.83674
-8.85046
-8.86388
-8.87703
-8.88991
-8.90251
-8.91482
-8.92685
-8.93857
-8.94998
-8.96107
-8.97184
-8.98227
-8.99237
-9.00213
-9.01155
-9.02062
-9.02935
-9.03773
-9.04576
-9.05341
-9.06082
-9.32987
-9.48597
-9.70337
-9.80775
-9.91859
-10.0249
-10.1065
-10.1696
-10.2189
-10.2552
-10.2798
-10.2943
-10.3005
-10.3008
-10.2972
-10.2924
-10.2869
-10.2783
-10.2735
-10.2765
-10.2888
-10.3096
-10.3376
-10.3707
-10.407
-10.4448
-10.483
-10.5205
-10.5567
-10.5906
-10.6214
-10.6482
-10.6703
-10.687
-10.6981
-10.7032
-10.7022
-10.6949
-10.681
-10.6604
-10.6329
-10.5983
-10.5564
-10.507
-10.45
-10.3852
-10.3124
-10.2314
-10.1422
-10.0444
-9.93778
-9.82222
-9.69746
-9.56331
-9.41964
-9.26632
-9.10328
-8.9305
-8.74803
-8.55595
-8.35442
-8.14368
-7.92403
-7.69587
-7.45968
-7.21603
-6.96558
-6.70906
-6.44725
-6.181
-5.91116
-5.63866
-5.36445
-5.08954
-4.81499
-4.54188
-4.27136
-4.00463
-3.74291
-3.48739
-3.23905
-2.99853
-2.76617
-2.54226
-2.32709
-2.12089
-1.92384
-1.73604
-1.55749
-1.38812
-1.22761
-1.07583
-0.931668
-0.795567
-0.663659
-0.540624
-0.410641
-0.302577
-0.14542
-0.0954837
-9.24529
-9.29798
-9.39018
-9.43629
-9.48977
-9.55754
-9.62409
-9.68754
-9.74808
-9.8032
-9.85118
-9.89155
-9.92464
-9.95137
-9.97329
-9.99266
-10.0117
-10.0269
-10.0425
-10.0631
-10.0903
-10.1241
-10.1633
-10.2064
-10.2515
-10.2972
-10.3423
-10.3859
-10.4273
-10.4657
-10.5003
-10.5303
-10.555
-10.574
-10.5869
-10.5935
-10.5937
-10.5872
-10.574
-10.5539
-10.5267
-10.4923
-10.4505
-10.4013
-10.3443
-10.2795
-10.2068
-10.126
-10.0369
-9.93928
-9.833
-9.71782
-9.59356
-9.46003
-9.31711
-9.1647
-9.00273
-8.83119
-8.65012
-8.45964
-8.25989
-8.05111
-7.83362
-7.6078
-7.37414
-7.13319
-6.88561
-6.63209
-6.37343
-6.11042
-5.84394
-5.57486
-5.30414
-5.03275
-4.76173
-4.49214
-4.22509
-3.96175
-3.70328
-3.45081
-3.2053
-2.96737
-2.73737
-2.51562
-2.3024
-2.09794
-1.90241
-1.71593
-1.53848
-1.37001
-1.21021
-1.05897
-0.915193
-0.779373
-0.647683
-0.524954
-0.39552
-0.288647
-0.13426
-0.0880961
-9.20677
-9.22818
-9.27273
-9.30027
-9.32366
-9.35638
-9.39181
-9.42666
-9.4617
-9.49628
-9.52939
-9.56049
-9.58948
-9.6167
-9.64309
-9.67017
-9.69916
-9.72911
-9.76026
-9.79542
-9.83616
-9.88244
-9.93327
-9.98712
-10.0423
-10.0975
-10.1513
-10.2029
-10.2515
-10.2964
-10.3368
-10.3719
-10.4012
-10.4243
-10.4408
-10.4505
-10.4534
-10.4493
-10.4382
-10.4199
-10.3944
-10.3615
-10.321
-10.2729
-10.2171
-10.1535
-10.0819
-10.0021
-9.91414
-9.81771
-9.71265
-9.59878
-9.47592
-9.34392
-9.20265
-9.05201
-8.89196
-8.72249
-8.54365
-8.35555
-8.15834
-7.95228
-7.73766
-7.51488
-7.2844
-7.04678
-6.80265
-6.55271
-6.2977
-6.03843
-5.77574
-5.5105
-5.24362
-4.97608
-4.70886
-4.44303
-4.17964
-3.91983
-3.66472
-3.41539
-3.17275
-2.93743
-2.7098
-2.49019
-2.27887
-2.0761
-1.88202
-1.69677
-1.52034
-1.35269
-1.19351
-1.04271
-0.89925
-0.763632
-0.632119
-0.509629
-0.380811
-0.275001
-0.123769
-0.0806834
-9.20468
-9.22775
-9.26409
-9.29224
-9.31117
-9.33177
-9.35226
-9.36965
-9.38497
-9.39905
-9.41182
-9.42345
-9.43448
-9.44576
-9.45841
-9.47386
-9.49342
-9.51754
-9.54544
-9.5787
-9.6185
-9.66474
-9.71639
-9.77195
-9.82974
-9.88819
-9.94595
-10.0019
-10.055
-10.1045
-10.1494
-10.189
-10.2227
-10.2499
-10.2703
-10.2837
-10.2901
-10.2892
-10.281
-10.2655
-10.2425
-10.212
-10.1738
-10.1279
-10.0741
-10.0125
-9.94291
-9.86516
-9.77916
-9.68474
-9.58173
-9.46998
-9.34931
-9.21959
-9.0807
-8.93256
-8.77512
-8.60839
-8.43243
-8.24734
-8.0533
-7.85053
-7.63935
-7.42013
-7.19335
-6.95953
-6.7193
-6.47333
-6.22236
-5.96716
-5.70856
-5.44741
-5.18461
-4.9211
-4.65785
-4.39589
-4.13625
-3.88003
-3.62831
-3.38213
-3.14235
-2.9096
-2.68429
-2.46675
-2.25725
-2.05605
-1.86332
-1.67918
-1.50363
-1.33666
-1.17797
-1.02749
-0.884218
-0.748684
-0.61727
-0.494916
-0.366756
-0.26183
-0.114102
-0.0733265
-9.20906
-9.23113
-9.2589
-9.28253
-9.29939
-9.31627
-9.33337
-9.3482
-9.36068
-9.37126
-9.37975
-9.38614
-9.39092
-9.39491
-9.39927
-9.40542
-9.4148
-9.42829
-9.44616
-9.46952
-9.49941
-9.5359
-9.57827
-9.62535
-9.67575
-9.72805
-9.78094
-9.83325
-9.88389
-9.93185
-9.97615
-10.0159
-10.0503
-10.0788
-10.101
-10.1164
-10.1249
-10.1262
-10.1204
-10.1071
-10.0864
-10.0582
-10.0223
-9.9786
-9.92712
-9.86774
-9.80036
-9.72486
-9.64113
-9.54902
-9.44838
-9.33906
-9.22091
-9.09381
-8.95764
-8.81233
-8.65786
-8.49423
-8.32149
-8.13975
-7.9492
-7.75005
-7.5426
-7.32724
-7.10442
-6.87465
-6.63854
-6.39674
-6.14997
-5.89899
-5.6446
-5.38764
-5.12898
-4.86955
-4.61028
-4.35219
-4.09627
-3.8436
-3.5952
-3.35208
-3.11507
-2.88479
-2.66168
-2.44608
-2.23826
-2.0385
-1.84695
-1.66377
-1.48895
-1.32251
-1.16416
-1.01385
-0.870625
-0.735037
-0.603622
-0.481279
-0.353765
-0.249529
-0.10548
-0.0663017
-9.21046
-9.23103
-9.25467
-9.27708
-9.29529
-9.31236
-9.32891
-9.34321
-9.35484
-9.36414
-9.37113
-9.37592
-9.37896
-9.38101
-9.38305
-9.38625
-9.39181
-9.40061
-9.41331
-9.43058
-9.45327
-9.48159
-9.51507
-9.55289
-9.59397
-9.63718
-9.68144
-9.72573
-9.76908
-9.81056
-9.84926
-9.88431
-9.91494
-9.94049
-9.96044
-9.97436
-9.98193
-9.9829
-9.97704
-9.96416
-9.94411
-9.91672
-9.88189
-9.83948
-9.78939
-9.73153
-9.66578
-9.59203
-9.51015
-9.42001
-9.32145
-9.21434
-9.09853
-8.97389
-8.84033
-8.69779
-8.54621
-8.38562
-8.21608
-8.03768
-7.85059
-7.65504
-7.45133
-7.23981
-7.02092
-6.79517
-6.56315
-6.32548
-6.08287
-5.83604
-5.5858
-5.33294
-5.07833
-4.82287
-4.56748
-4.31313
-4.06081
-3.81154
-3.56632
-3.3261
-3.0917
-2.86375
-2.64267
-2.42883
-2.22252
-2.02401
-1.83347
-1.65106
-1.4768
-1.31069
-1.15251
-1.0022
-0.858861
-0.723065
-0.591529
-0.469056
-0.34215
-0.238397
-0.0980956
-0.059837
-9.21051
-9.23028
-9.25161
-9.27225
-9.28988
-9.30578
-9.32077
-9.33398
-9.34497
-9.35395
-9.361
-9.36621
-9.36991
-9.3727
-9.37537
-9.37887
-9.38419
-9.39213
-9.40334
-9.41835
-9.43782
-9.46194
-9.49037
-9.52241
-9.55718
-9.59374
-9.63114
-9.6685
-9.70497
-9.73974
-9.77202
-9.80103
-9.8261
-9.84663
-9.8621
-9.87212
-9.87633
-9.87446
-9.86625
-9.85148
-9.82996
-9.8015
-9.76594
-9.72314
-9.67295
-9.61524
-9.5499
-9.47678
-9.39575
-9.30665
-9.20934
-9.10368
-8.9895
-8.8667
-8.73518
-8.59485
-8.44568
-8.28769
-8.12091
-7.94545
-7.76147
-7.56918
-7.36887
-7.16089
-6.94564
-6.72364
-6.49543
-6.26163
-6.02292
-5.78002
-5.53368
-5.2847
-5.03391
-4.7822
-4.53047
-4.27965
-4.03071
-3.78462
-3.54236
-3.30485
-3.07286
-2.84703
-2.62779
-2.41552
-2.21052
-2.01307
-1.82335
-1.64151
-1.4676
-1.30165
-1.14344
-0.992944
-0.849329
-0.713158
-0.581361
-0.458602
-0.33222
-0.228721
-0.0920928
-0.0541136
-9.20993
-9.22865
-9.24818
-9.26716
-9.28423
-9.29978
-9.31438
-9.3275
-9.33871
-9.34803
-9.35554
-9.36135
-9.36575
-9.36926
-9.3726
-9.37657
-9.38202
-9.3897
-9.40018
-9.41401
-9.43163
-9.45321
-9.47846
-9.50679
-9.53747
-9.56963
-9.60244
-9.63507
-9.66673
-9.69666
-9.72413
-9.74843
-9.76894
-9.7851
-9.79646
-9.80261
-9.80325
-9.79808
-9.78688
-9.76943
-9.74552
-9.71498
-9.67763
-9.63333
-9.58193
-9.52329
-9.45726
-9.38371
-9.3025
-9.21346
-9.11646
-9.01133
-8.89793
-8.77614
-8.64585
-8.50699
-8.35953
-8.20345
-8.0388
-7.86567
-7.68422
-7.49465
-7.29722
-7.09227
-6.88021
-6.6615
-6.43669
-6.20636
-5.97118
-5.73183
-5.48905
-5.24362
-4.99636
-4.74811
-4.49974
-4.25219
-4.00636
-3.76322
-3.52369
-3.28864
-3.05886
-2.83493
-2.61733
-2.40643
-2.20254
-2.00594
-1.81683
-1.63538
-1.46164
-1.29565
-1.13723
-0.986368
-0.842304
-0.705591
-0.573393
-0.450191
-0.324225
-0.220755
-0.0876004
-0.0493437
-9.20748
-9.2254
-9.24371
-9.26155
-9.27804
-9.29319
-9.30721
-9.31986
-9.33081
-9.34008
-9.34776
-9.354
-9.35908
-9.36345
-9.36771
-9.37254
-9.37864
-9.38665
-9.39709
-9.41045
-9.42703
-9.44698
-9.47007
-9.4958
-9.52352
-9.55249
-9.58194
-9.6111
-9.63925
-9.66565
-9.68961
-9.71048
-9.72766
-9.74063
-9.74891
-9.75215
-9.75
-9.74221
-9.72853
-9.70875
-9.68268
-9.65015
-9.61098
-9.56504
-9.51217
-9.45225
-9.38513
-9.31069
-9.22877
-9.13924
-9.04194
-8.93673
-8.82347
-8.70205
-8.57236
-8.43433
-8.28792
-8.13313
-7.97
-7.79861
-7.61911
-7.43168
-7.23659
-7.03417
-6.82478
-6.6089
-6.38703
-6.15975
-5.92768
-5.69151
-5.45193
-5.20972
-4.96565
-4.72055
-4.47528
-4.23071
-3.98775
-3.7473
-3.51026
-3.27747
-3.04967
-2.82746
-2.61131
-2.40159
-2.19863
-2.00271
-1.81404
-1.63279
-1.45904
-1.29284
-1.13404
-0.982643
-0.837968
-0.700556
-0.567812
-0.444009
-0.318327
-0.214655
-0.0846654
-0.0456311
-9.20544
-9.22251
-9.23972
-9.25653
-9.27228
-9.28688
-9.30043
-9.31278
-9.32373
-9.33323
-9.34136
-9.34824
-9.35412
-9.35938
-9.36451
-9.3701
-9.37676
-9.38503
-9.39539
-9.40824
-9.42386
-9.44236
-9.46354
-9.48699
-9.51214
-9.53834
-9.56489
-9.59109
-9.61624
-9.63968
-9.66074
-9.67881
-9.6933
-9.70371
-9.70958
-9.71055
-9.70627
-9.69648
-9.68092
-9.65939
-9.63168
-9.59761
-9.55704
-9.50979
-9.45574
-9.39475
-9.32669
-9.25142
-9.16881
-9.07872
-8.98102
-8.87557
-8.76224
-8.64094
-8.51155
-8.37403
-8.22833
-8.07446
-7.91245
-7.7424
-7.56444
-7.37876
-7.18561
-6.9853
-6.7782
-6.56476
-6.34547
-6.12088
-5.89159
-5.65827
-5.4216
-5.18231
-4.94116
-4.69897
-4.45654
-4.21473
-3.97441
-3.73646
-3.50172
-3.271
-3.04502
-2.82436
-2.6095
-2.40081
-2.19863
-2.00324
-1.81486
-1.63367
-1.45976
-1.2932
-1.13387
-0.981798
-0.836371
-0.698121
-0.564703
-0.440155
-0.314612
-0.21052
-0.083299
-0.043049
-9.20161
-9.218
-9.23439
-9.25039
-9.26554
-9.27969
-9.2929
-9.30503
-9.31592
-9.32552
-9.33391
-9.34121
-9.34765
-9.35356
-9.35939
-9.36562
-9.37276
-9.38131
-9.39167
-9.40418
-9.41909
-9.43642
-9.45605
-9.47761
-9.50059
-9.52441
-9.54847
-9.57211
-9.59469
-9.61556
-9.63412
-9.64977
-9.66196
-9.6702
-9.67405
-9.67313
-9.66711
-9.65569
-9.63864
-9.61573
-9.58675
-9.55152
-9.50987
-9.46166
-9.40673
-9.34495
-9.27619
-9.20031
-9.1172
-9.02671
-8.92872
-8.82311
-8.70975
-8.58856
-8.45945
-8.32236
-8.17727
-8.02419
-7.86315
-7.69426
-7.51764
-7.3335
-7.14206
-6.94364
-6.7386
-6.52737
-6.31042
-6.08828
-5.86156
-5.63087
-5.39689
-5.16033
-4.92192
-4.68244
-4.44268
-4.20347
-3.96564
-3.73003
-3.49745
-3.26868
-3.04439
-2.82518
-2.61149
-2.40373
-2.20221
-2.00724
-1.81904
-1.63779
-1.46361
-1.29657
-1.1366
-0.983739
-0.837447
-0.698241
-0.564034
-0.438614
-0.313056
-0.208335
-0.0834203
-0.041583
-9.19845
-9.21416
-9.22979
-9.24505
-9.25962
-9.27332
-9.28614
-9.298
-9.30879
-9.31847
-9.3271
-9.33481
-9.34179
-9.34834
-9.35481
-9.36162
-9.36921
-9.37799
-9.38831
-9.40045
-9.41463
-9.43085
-9.44901
-9.46877
-9.48971
-9.51131
-9.53302
-9.55424
-9.57438
-9.59284
-9.60904
-9.62242
-9.63246
-9.63868
-9.64064
-9.63799
-9.63037
-9.6175
-9.59912
-9.575
-9.54493
-9.50872
-9.4662
-9.41721
-9.3616
-9.29923
-9.22997
-9.15368
-9.07024
-8.97952
-8.88141
-8.77577
-8.66251
-8.54153
-8.41277
-8.27618
-8.13173
-7.97944
-7.81936
-7.6516
-7.47628
-7.2936
-7.1038
-6.90717
-6.70409
-6.49494
-6.28022
-6.06043
-5.83614
-5.60797
-5.37657
-5.14261
-4.90683
-4.66996
-4.43277
-4.19607
-3.96063
-3.72727
-3.49677
-3.26986
-3.0472
-2.82935
-2.61677
-2.40986
-2.20895
-2.01433
-1.82622
-1.64484
-1.47031
-1.30272
-1.14202
-0.988273
-0.841027
-0.700777
-0.565685
-0.439283
-0.31356
-0.208015
-0.084908
-0.041165
-9.19389
-9.20902
-9.22402
-9.23867
-9.25273
-9.26605
-9.27853
-9.29017
-9.3009
-9.31066
-9.3195
-9.32753
-9.33494
-9.34197
-9.34893
-9.35617
-9.36407
-9.37297
-9.38318
-9.39494
-9.40841
-9.42362
-9.44044
-9.45859
-9.47768
-9.49725
-9.51682
-9.53584
-9.55375
-9.57
-9.58404
-9.59535
-9.60342
-9.60779
-9.60804
-9.6038
-9.59473
-9.58055
-9.56098
-9.53579
-9.50477
-9.46772
-9.42445
-9.37482
-9.31866
-9.25583
-9.18619
-9.10962
-9.02598
-8.93516
-8.83703
-8.73148
-8.61842
-8.49775
-8.36943
-8.2334
-8.08966
-7.93822
-7.77914
-7.61253
-7.43852
-7.25731
-7.06914
-6.87429
-6.67313
-6.46604
-6.2535
-6.03601
-5.81411
-5.58841
-5.35953
-5.12814
-4.89493
-4.66062
-4.42596
-4.1917
-3.95862
-3.72747
-3.499
-3.27391
-3.05284
-2.83633
-2.62483
-2.41874
-2.21839
-2.02407
-1.83603
-1.65447
-1.47952
-1.31132
-1.14983
-0.995144
-0.846879
-0.705516
-0.569461
-0.441986
-0.315945
-0.209396
-0.0875829
-0.0416576
-9.18987
-9.20445
-9.21887
-9.23295
-9.24652
-9.25944
-9.2716
-9.28298
-9.29358
-9.30338
-9.31237
-9.32066
-9.32841
-9.33583
-9.34319
-9.35078
-9.35892
-9.36789
-9.37796
-9.38932
-9.4021
-9.41633
-9.43187
-9.44848
-9.4658
-9.48345
-9.50097
-9.51787
-9.53364
-9.54776
-9.55971
-9.569
-9.57515
-9.57772
-9.57629
-9.5705
-9.56002
-9.54456
-9.52383
-9.49761
-9.46568
-9.42782
-9.38387
-9.33364
-9.27699
-9.21377
-9.14383
-9.06705
-8.98329
-8.89244
-8.79437
-8.689
-8.57621
-8.45594
-8.32813
-8.19274
-8.04977
-7.89924
-7.74122
-7.57581
-7.40315
-7.22344
-7.03691
-6.84386
-6.64462
-6.43961
-6.22925
-6.01405
-5.79454
-5.57129
-5.34493
-5.11609
-4.88544
-4.65368
-4.42153
-4.18971
-3.95896
-3.73001
-3.50356
-3.28029
-3.0608
-2.84562
-2.6352
-2.42991
-2.23011
-2.03608
-1.84807
-1.6663
-1.49092
-1.32207
-1.15975
-1.00408
-0.854747
-0.712219
-0.575134
-0.446508
-0.320001
-0.212279
-0.0912496
-0.0428977
-9.18491
-9.199
-9.2129
-9.22648
-9.23961
-9.25217
-9.26406
-9.27524
-9.2857
-9.29548
-9.30459
-9.31308
-9.3211
-9.32882
-9.33648
-9.34432
-9.35259
-9.36154
-9.37139
-9.38231
-9.39439
-9.40765
-9.42196
-9.43711
-9.45277
-9.46861
-9.48421
-9.49913
-9.51288
-9.525
-9.53498
-9.54237
-9.54671
-9.54757
-9.54456
-9.53731
-9.5255
-9.50883
-9.48703
-9.45984
-9.42706
-9.38847
-9.34389
-9.29313
-9.23605
-9.17249
-9.10231
-9.02537
-8.94155
-8.85073
-8.7528
-8.64766
-8.53521
-8.41539
-8.28815
-8.15345
-8.0113
-7.86173
-7.70481
-7.54064
-7.36936
-7.19118
-7.00633
-6.8151
-6.61782
-6.41489
-6.20673
-5.99383
-5.77672
-5.55595
-5.33211
-5.10583
-4.87775
-4.64856
-4.41892
-4.18955
-3.96115
-3.7344
-3.50999
-3.28854
-3.07064
-2.85681
-2.64747
-2.443
-2.24375
-2.05001
-1.86203
-1.68003
-1.5042
-1.33467
-1.1715
-1.01481
-0.864378
-0.720644
-0.58247
-0.452623
-0.325498
-0.216442
-0.0957057
-0.044705
-9.18029
-9.19391
-9.20735
-9.22048
-9.2332
-9.24541
-9.25704
-9.26803
-9.27836
-9.28807
-9.29721
-9.30583
-9.31403
-9.32196
-9.32982
-9.3378
-9.34613
-9.35499
-9.36459
-9.37504
-9.38642
-9.39873
-9.41185
-9.4256
-9.43968
-9.45379
-9.46755
-9.48056
-9.49238
-9.50255
-9.51062
-9.51616
-9.51873
-9.51791
-9.51333
-9.50464
-9.4915
-9.47363
-9.45074
-9.42259
-9.38896
-9.34963
-9.30442
-9.25315
-9.19564
-9.13176
-9.06135
-8.98428
-8.90043
-8.80967
-8.7119
-8.60703
-8.49496
-8.37562
-8.24899
-8.11502
-7.97374
-7.82516
-7.66938
-7.50648
-7.33663
-7.16001
-6.97686
-6.78747
-6.59218
-6.39135
-6.18541
-5.97484
-5.76015
-5.54186
-5.32057
-5.09687
-4.87139
-4.64478
-4.41769
-4.19079
-3.96475
-3.74023
-3.51787
-3.29828
-3.082
-2.86953
-2.6613
-2.45768
-2.25899
-2.06555
-1.8776
-1.69538
-1.51909
-1.34888
-1.18484
-1.02711
-0.875545
-0.730572
-0.591252
-0.460118
-0.332222
-0.221682
-0.100771
-0.0469187
-9.17513
-9.18831
-9.20131
-9.21402
-9.22636
-9.23824
-9.24961
-9.26041
-9.27062
-9.28026
-9.28938
-9.29806
-9.30637
-9.31444
-9.32241
-9.33046
-9.33876
-9.34748
-9.35676
-9.36671
-9.37737
-9.38872
-9.40068
-9.41308
-9.42566
-9.43812
-9.45014
-9.46134
-9.47131
-9.47963
-9.48588
-9.48964
-9.49051
-9.48808
-9.482
-9.47191
-9.45749
-9.43846
-9.41453
-9.38545
-9.35101
-9.31098
-9.26517
-9.2134
-9.15551
-9.09133
-9.02073
-8.94356
-8.8597
-8.76903
-8.67146
-8.56687
-8.45521
-8.33639
-8.21039
-8.07719
-7.93679
-7.78924
-7.63461
-7.47301
-7.3046
-7.12956
-6.94814
-6.76062
-6.56732
-6.36861
-6.16492
-5.95669
-5.74443
-5.52866
-5.30994
-5.08884
-4.86598
-4.64197
-4.41745
-4.19305
-3.9694
-3.74714
-3.52688
-3.30917
-3.09455
-2.88349
-2.67639
-2.47364
-2.27555
-2.08243
-1.89453
-1.7121
-1.53535
-1.36446
-1.19955
-1.04077
-0.888047
-0.741808
-0.601289
-0.468809
-0.33999
-0.227823
-0.106299
-0.0494156
-9.17014
-9.18292
-9.19552
-9.20784
-9.21983
-9.23141
-9.24252
-9.25313
-9.26322
-9.27278
-9.28186
-9.29053
-9.29887
-9.30699
-9.31501
-9.32305
-9.33125
-9.33974
-9.34866
-9.35807
-9.36798
-9.3784
-9.38924
-9.40035
-9.41149
-9.42239
-9.43275
-9.44221
-9.4504
-9.45693
-9.46142
-9.46346
-9.46266
-9.45866
-9.45109
-9.43961
-9.42392
-9.40372
-9.37874
-9.34873
-9.31346
-9.27272
-9.2263
-9.17403
-9.11574
-9.05126
-8.98045
-8.90318
-8.81931
-8.72874
-8.63136
-8.52708
-8.41583
-8.29754
-8.17219
-8.03976
-7.90026
-7.75375
-7.60029
-7.44001
-7.27305
-7.09961
-6.91993
-6.73428
-6.54298
-6.34641
-6.14497
-5.93911
-5.72929
-5.51605
-5.29991
-5.08144
-4.86122
-4.63984
-4.41791
-4.19604
-3.97482
-3.75486
-3.53671
-3.32093
-3.108
-2.89839
-2.69247
-2.49063
-2.29317
-2.10039
-1.91257
-1.72995
-1.55276
-1.38119
-1.2154
-1.05558
-0.901689
-0.754168
-0.612405
-0.478526
-0.348636
-0.234718
-0.112178
-0.0521179
-9.16488
-9.17727
-9.18949
-9.20144
-9.21309
-9.22437
-9.23523
-9.24563
-9.25557
-9.26504
-9.27406
-9.28268
-9.29098
-9.29907
-9.30704
-9.315
-9.32304
-9.33127
-9.33978
-9.34861
-9.35779
-9.36731
-9.37708
-9.38695
-9.39671
-9.40611
-9.41487
-9.42267
-9.42916
-9.43398
-9.43677
-9.43715
-9.43475
-9.42921
-9.4202
-9.40738
-9.39044
-9.3691
-9.3431
-9.31217
-9.27609
-9.23465
-9.18764
-9.13488
-9.07619
-9.01142
-8.94042
-8.86305
-8.77919
-8.68873
-8.59156
-8.48759
-8.37676
-8.25901
-8.13431
-8.00266
-7.86407
-7.7186
-7.56632
-7.40735
-7.24185
-7.07001
-6.89206
-6.70829
-6.51901
-6.32457
-6.12539
-5.92188
-5.71453
-5.50382
-5.29028
-5.07445
-4.85689
-4.63816
-4.41885
-4.19952
-3.98076
-3.76312
-3.54713
-3.3333
-3.12211
-2.91398
-2.70929
-2.50838
-2.31158
-2.11919
-1.93146
-1.74868
-1.57106
-1.39884
-1.23218
-1.07131
-0.916258
-0.767446
-0.624403
-0.489085
-0.357991
-0.242221
-0.118299
-0.054971
-9.15969
-9.17173
-9.18359
-9.1952
-9.20653
-9.21752
-9.22814
-9.23834
-9.24812
-9.25746
-9.2664
-9.27496
-9.28318
-9.29117
-9.29901
-9.3068
-9.3146
-9.32251
-9.33057
-9.33883
-9.3473
-9.35595
-9.36469
-9.37337
-9.38181
-9.38978
-9.39702
-9.40322
-9.40808
-9.41126
-9.41241
-9.41117
-9.40721
-9.40018
-9.38974
-9.37559
-9.35742