/*--------------------------------*- C++ -*----------------------------------*\
| =========                 |                                                 |
| \\      /  F ield         | OpenFOAM: The Open Source CFD Toolbox           |
|  \\    /   O peration     | Version:  4.1                                   |
|   \\  /    A nd           | Web:      www.OpenFOAM.org                      |
|    \\/     M anipulation  |                                                 |
\*---------------------------------------------------------------------------*/
FoamFile
{
    version     2.0;
    format      ascii;
    class       surfaceScalarField;
    location    "800";
    object      phi;
}
// * * * * * * * * * * * * * * * * * * * * * * * * * * * * * * * * * * * * * //

dimensions      [0 3 -1 0 0 0 0];

internalField   nonuniform List<scalar> 
13452
(
5.95313e-05
7.37189e-07
5.86592e-05
8.72056e-07
5.78162e-05
8.43024e-07
5.69811e-05
8.35094e-07
5.61551e-05
8.26047e-07
5.53509e-05
8.0414e-07
5.4576e-05
7.74949e-07
5.38328e-05
7.43208e-07
5.31224e-05
7.10333e-07
5.24455e-05
6.76903e-07
5.18019e-05
6.43572e-07
5.1191e-05
6.10916e-07
5.06117e-05
5.79296e-07
5.00628e-05
5.48899e-07
4.9543e-05
5.19816e-07
4.90509e-05
4.92081e-07
4.85853e-05
4.65684e-07
4.81447e-05
4.40591e-07
4.77279e-05
4.16752e-07
4.73338e-05
3.94108e-07
4.69612e-05
3.72595e-07
4.66091e-05
3.52151e-07
4.62763e-05
3.32714e-07
4.59621e-05
3.14223e-07
4.56655e-05
2.96619e-07
4.53856e-05
2.79852e-07
4.51218e-05
2.63856e-07
4.48732e-05
2.48636e-07
4.46392e-05
2.33945e-07
4.44187e-05
2.20509e-07
4.4213e-05
2.05684e-07
4.40171e-05
1.95938e-07
1.68184e-07
4.38489e-05
6.23701e-05
3.5739e-07
6.26549e-05
5.87256e-07
6.28762e-05
6.21725e-07
6.30527e-05
6.58589e-07
6.31874e-05
6.91414e-07
6.32837e-05
7.07864e-07
6.33451e-05
7.13534e-07
6.33748e-05
7.13504e-07
6.33761e-05
7.09037e-07
6.33524e-05
7.00542e-07
6.33073e-05
6.88739e-07
6.32438e-05
6.74426e-07
6.31648e-05
6.58238e-07
6.3073e-05
6.40663e-07
6.29708e-05
6.22092e-07
6.286e-05
6.02851e-07
6.27425e-05
5.83203e-07
6.26197e-05
5.63357e-07
6.2493e-05
5.43474e-07
6.23634e-05
5.23683e-07
6.22319e-05
5.04085e-07
6.20993e-05
4.84755e-07
6.19663e-05
4.65752e-07
6.18334e-05
4.47116e-07
6.17011e-05
4.28877e-07
6.15699e-05
4.11056e-07
6.14401e-05
3.93655e-07
6.13121e-05
3.76711e-07
6.11859e-05
3.60108e-07
6.10622e-05
3.44177e-07
6.09401e-05
3.27858e-07
6.08226e-05
3.13419e-07
2.9727e-07
6.06935e-05
6.38365e-05
2.82304e-07
6.38978e-05
5.25937e-07
6.39331e-05
5.86409e-07
6.39614e-05
6.30302e-07
6.39849e-05
6.67946e-07
6.40043e-05
6.8845e-07
6.40212e-05
6.96581e-07
6.40365e-05
6.98207e-07
6.40503e-05
6.95278e-07
6.40624e-05
6.8842e-07
6.40728e-05
6.78405e-07
6.40811e-05
6.66045e-07
6.40874e-05
6.51962e-07
6.40915e-05
6.36605e-07
6.40932e-05
6.20328e-07
6.40927e-05
6.03416e-07
6.40898e-05
5.86099e-07
6.40846e-05
5.68554e-07
6.40771e-05
5.50918e-07
6.40675e-05
5.33299e-07
6.40558e-05
5.15778e-07
6.40422e-05
4.98418e-07
6.40266e-05
4.81268e-07
6.40094e-05
4.6436e-07
6.39906e-05
4.47718e-07
6.39703e-05
4.31358e-07
6.39486e-05
4.15282e-07
6.39258e-05
3.99508e-07
6.3902e-05
3.83983e-07
6.38773e-05
3.68805e-07
6.38515e-05
3.53737e-07
6.38258e-05
3.39062e-07
3.24816e-07
6.37983e-05
6.5644e-05
2.21347e-07
6.57108e-05
4.59204e-07
6.57547e-05
5.42442e-07
6.57894e-05
5.95596e-07
6.5819e-05
6.38411e-07
6.58438e-05
6.63651e-07
6.5865e-05
6.7539e-07
6.58835e-05
6.79626e-07
6.59001e-05
6.78765e-07
6.59148e-05
6.73642e-07
6.59281e-05
6.65102e-07
6.59402e-05
6.54009e-07
6.59511e-05
6.41029e-07
6.59611e-05
6.26647e-07
6.59701e-05
6.11241e-07
6.59784e-05
5.95119e-07
6.5986e-05
5.78524e-07
6.59929e-05
5.61645e-07
6.59992e-05
5.44627e-07
6.60049e-05
5.27583e-07
6.60101e-05
5.10597e-07
6.60148e-05
4.93736e-07
6.6019e-05
4.77044e-07
6.60228e-05
4.60557e-07
6.60262e-05
4.44296e-07
6.60293e-05
4.28273e-07
6.60321e-05
4.12492e-07
6.60347e-05
3.96958e-07
6.6037e-05
3.81642e-07
6.60392e-05
3.66582e-07
6.60413e-05
3.51684e-07
6.60433e-05
3.37056e-07
3.23055e-07
6.60451e-05
6.75014e-05
1.76691e-07
6.75606e-05
4.00049e-07
6.7606e-05
4.97076e-07
6.76451e-05
5.56446e-07
6.76814e-05
6.02167e-07
6.77143e-05
6.30734e-07
6.77441e-05
6.45531e-07
6.77716e-05
6.52155e-07
6.77971e-05
6.53222e-07
6.7821e-05
6.49757e-07
6.78435e-05
6.42682e-07
6.78646e-05
6.32895e-07
6.78845e-05
6.21088e-07
6.79034e-05
6.0777e-07
6.79213e-05
5.93335e-07
6.79383e-05
5.78098e-07
6.79545e-05
5.62312e-07
6.797e-05
5.46171e-07
6.79848e-05
5.29827e-07
6.7999e-05
5.13396e-07
6.80126e-05
4.96967e-07
6.80257e-05
4.80607e-07
6.80384e-05
4.64366e-07
6.80507e-05
4.48277e-07
6.80626e-05
4.32364e-07
6.80743e-05
4.1664e-07
6.80856e-05
4.01109e-07
6.80968e-05
3.8577e-07
6.81079e-05
3.70609e-07
6.81188e-05
3.55628e-07
6.81297e-05
3.40798e-07
6.81406e-05
3.2613e-07
3.11786e-07
6.81519e-05
6.94169e-05
1.43865e-07
6.94686e-05
3.48323e-07
6.95132e-05
4.52414e-07
6.95533e-05
5.16344e-07
6.95912e-05
5.64294e-07
6.96263e-05
5.95622e-07
6.96587e-05
6.1313e-07
6.9689e-05
6.2191e-07
6.97175e-05
6.24726e-07
6.97444e-05
6.22792e-07
6.977e-05
6.17096e-07
6.97944e-05
6.08554e-07
6.98176e-05
5.97875e-07
6.98398e-05
5.8558e-07
6.9861e-05
5.72075e-07
6.98814e-05
5.57685e-07
6.99011e-05
5.42668e-07
6.992e-05
5.27225e-07
6.99383e-05
5.11513e-07
6.99561e-05
4.95653e-07
6.99733e-05
4.79739e-07
6.99901e-05
4.6384e-07
7.00064e-05
4.48011e-07
7.00224e-05
4.32286e-07
7.00381e-05
4.16691e-07
7.00535e-05
4.0124e-07
7.00687e-05
3.85937e-07
7.00837e-05
3.70781e-07
7.00985e-05
3.55758e-07
7.01133e-05
3.40856e-07
7.0128e-05
3.26054e-07
7.01429e-05
3.11302e-07
2.96662e-07
7.0158e-05
7.13907e-05
1.19451e-07
7.14348e-05
3.04266e-07
7.14764e-05
4.10822e-07
7.1515e-05
4.77784e-07
7.15522e-05
5.2709e-07
7.15874e-05
5.60342e-07
7.16206e-05
5.80002e-07
7.16519e-05
5.90613e-07
7.16816e-05
5.94973e-07
7.171e-05
5.94421e-07
7.17371e-05
5.89984e-07
7.17631e-05
5.82585e-07
7.1788e-05
5.72941e-07
7.1812e-05
5.61589e-07
7.18351e-05
5.48943e-07
7.18575e-05
5.35338e-07
7.18791e-05
5.21038e-07
7.19001e-05
5.0625e-07
7.19205e-05
4.91136e-07
7.19403e-05
4.75821e-07
7.19596e-05
4.60401e-07
7.19785e-05
4.44951e-07
7.1997e-05
4.29525e-07
7.20151e-05
4.14162e-07
7.20329e-05
3.98886e-07
7.20505e-05
3.83715e-07
7.20677e-05
3.68651e-07
7.20848e-05
3.53693e-07
7.21018e-05
3.38827e-07
7.21186e-05
3.24033e-07
7.21354e-05
3.09285e-07
7.21521e-05
2.94512e-07
2.7972e-07
7.21691e-05
7.34237e-05
1.00989e-07
7.34611e-05
2.66881e-07
7.34997e-05
3.72243e-07
7.35369e-05
4.40552e-07
7.35736e-05
4.9039e-07
7.36091e-05
5.24892e-07
7.36428e-05
5.46287e-07
7.36749e-05
5.58504e-07
7.37056e-05
5.6427e-07
7.3735e-05
5.65005e-07
7.37632e-05
5.61763e-07
7.37904e-05
5.55463e-07
7.38165e-05
5.46831e-07
7.38417e-05
5.3641e-07
7.3866e-05
5.24623e-07
7.38895e-05
5.11809e-07
7.39123e-05
4.98235e-07
7.39344e-05
4.84113e-07
7.3956e-05
4.69608e-07
7.39769e-05
4.54849e-07
7.39974e-05
4.39936e-07
7.40174e-05
4.24945e-07
7.4037e-05
4.09934e-07
7.40562e-05
3.94943e-07
7.40751e-05
3.79999e-07
7.40937e-05
3.6512e-07
7.4112e-05
3.50312e-07
7.41302e-05
3.35571e-07
7.41481e-05
3.20885e-07
7.41659e-05
3.06233e-07
7.41836e-05
2.91584e-07
7.42012e-05
2.76879e-07
2.62111e-07
7.42189e-05
7.55168e-05
8.66849e-08
7.55485e-05
2.35122e-07
7.55839e-05
3.36844e-07
7.56193e-05
4.05173e-07
7.56547e-05
4.5496e-07
7.56895e-05
4.90143e-07
7.5723e-05
5.12819e-07
7.57551e-05
5.26338e-07
7.57861e-05
5.33292e-07
7.5816e-05
5.35153e-07
7.58447e-05
5.32983e-07
7.58725e-05
5.27691e-07
7.58993e-05
5.19997e-07
7.59253e-05
5.10449e-07
7.59505e-05
4.99472e-07
7.59749e-05
4.87408e-07
7.59986e-05
4.74528e-07
7.60216e-05
4.61046e-07
7.60441e-05
4.47131e-07
7.6066e-05
4.32914e-07
7.60875e-05
4.18498e-07
7.61085e-05
4.03963e-07
7.6129e-05
3.89367e-07
7.61492e-05
3.74754e-07
7.61691e-05
3.60154e-07
7.61886e-05
3.45585e-07
7.62079e-05
3.31053e-07
7.62269e-05
3.16559e-07
7.62457e-05
3.0209e-07
7.62643e-05
2.87626e-07
7.62827e-05
2.73137e-07
7.6301e-05
2.58559e-07
2.43875e-07
7.63193e-05
7.76709e-05
7.53147e-08
7.76981e-05
2.08019e-07
7.77304e-05
3.04526e-07
7.77639e-05
3.71684e-07
7.7798e-05
4.20815e-07
7.7832e-05
4.56099e-07
7.78653e-05
4.79571e-07
7.78976e-05
4.94074e-07
7.79288e-05
5.02007e-07
7.79592e-05
5.04845e-07
7.79885e-05
5.0364e-07
7.80169e-05
4.99278e-07
7.80444e-05
4.92468e-07
7.80711e-05
4.83755e-07
7.8097e-05
4.73566e-07
7.81222e-05
4.6224e-07
7.81467e-05
4.50051e-07
7.81705e-05
4.37213e-07
7.81938e-05
4.23896e-07
7.82164e-05
4.10235e-07
7.82386e-05
3.96335e-07
7.82603e-05
3.82275e-07
7.82815e-05
3.68119e-07
7.83024e-05
3.53911e-07
7.83228e-05
3.39682e-07
7.8343e-05
3.25454e-07
7.83628e-05
3.11235e-07
7.83823e-05
2.97027e-07
7.84016e-05
2.82822e-07
7.84206e-05
2.68603e-07
7.84394e-05
2.54347e-07
7.84579e-05
2.40016e-07
2.25617e-07
7.84762e-05
7.98876e-05
6.60404e-08
7.99109e-05
1.84701e-07
7.99404e-05
2.75077e-07
7.99719e-05
3.40103e-07
8.00047e-05
3.88076e-07
8.00378e-05
4.23008e-07
8.00705e-05
4.46873e-07
8.01025e-05
4.62077e-07
8.01337e-05
4.70787e-07
8.01641e-05
4.74446e-07
8.01936e-05
4.74085e-07
8.02224e-05
4.7056e-07
8.02503e-05
4.64561e-07
8.02774e-05
4.56628e-07
8.03038e-05
4.47183e-07
8.03294e-05
4.36563e-07
8.03545e-05
4.25039e-07
8.03788e-05
4.12826e-07
8.04026e-05
4.00096e-07
8.04259e-05
3.86984e-07
8.04486e-05
3.73595e-07
8.04709e-05
3.60014e-07
8.04927e-05
3.46303e-07
8.05141e-05
3.32509e-07
8.05351e-05
3.18668e-07
8.05558e-05
3.048e-07
8.05761e-05
2.9092e-07
8.05961e-05
2.77031e-07
8.06158e-05
2.6313e-07
8.06352e-05
2.49205e-07
8.06543e-05
2.35239e-07
8.06731e-05
2.21194e-07
2.07074e-07
8.06917e-05
8.21682e-05
5.82891e-08
8.21885e-05
1.64441e-07
8.22153e-05
2.48239e-07
8.2245e-05
3.10386e-07
8.22763e-05
3.56748e-07
8.23084e-05
3.90918e-07
8.23405e-05
4.1478e-07
8.23722e-05
4.30378e-07
8.24034e-05
4.39642e-07
8.24339e-05
4.4395e-07
8.24636e-05
4.44299e-07
8.24927e-05
4.41508e-07
8.2521e-05
4.36245e-07
8.25486e-05
4.29035e-07
8.25755e-05
4.20291e-07
8.26017e-05
4.10347e-07
8.26273e-05
3.9947e-07
8.26522e-05
3.87874e-07
8.26766e-05
3.75729e-07
8.27004e-05
3.63169e-07
8.27237e-05
3.50304e-07
8.27465e-05
3.37216e-07
8.27688e-05
3.2397e-07
8.27907e-05
3.10617e-07
8.28122e-05
2.97191e-07
8.28333e-05
2.83719e-07
8.2854e-05
2.70216e-07
8.28743e-05
2.5669e-07
8.28943e-05
2.43143e-07
8.2914e-05
2.2957e-07
8.29332e-05
2.15965e-07
8.29521e-05
2.02312e-07
1.88642e-07
8.29705e-05
8.45144e-05
5.16665e-08
8.45322e-05
1.46644e-07
8.45567e-05
2.23728e-07
8.45846e-05
2.82441e-07
8.46146e-05
3.26802e-07
8.46456e-05
3.59863e-07
8.4677e-05
3.83379e-07
8.47083e-05
3.99099e-07
8.47393e-05
4.08717e-07
8.47697e-05
4.13518e-07
8.47995e-05
4.14455e-07
8.48287e-05
4.12305e-07
8.48573e-05
4.07704e-07
8.48851e-05
4.0116e-07
8.49124e-05
3.93076e-07
8.49389e-05
3.83778e-07
8.49649e-05
3.73526e-07
8.49902e-05
3.62531e-07
8.5015e-05
3.50962e-07
8.50392e-05
3.38954e-07
8.50629e-05
3.26614e-07
8.50861e-05
3.14026e-07
8.51088e-05
3.01258e-07
8.51311e-05
2.88359e-07
8.51529e-05
2.7537e-07
8.51743e-05
2.62317e-07
8.51953e-05
2.4922e-07
8.52159e-05
2.36092e-07
8.52361e-05
2.22939e-07
8.52559e-05
2.09762e-07
8.52753e-05
1.96563e-07
8.52943e-05
1.83325e-07
1.70076e-07
8.53128e-05
8.69279e-05
4.58975e-08
8.69437e-05
1.30835e-07
8.69662e-05
2.01263e-07
8.69925e-05
2.56156e-07
8.70211e-05
2.98184e-07
8.70511e-05
3.29835e-07
8.70818e-05
3.52701e-07
8.71126e-05
3.68282e-07
8.71433e-05
3.78048e-07
8.71736e-05
3.83179e-07
8.72035e-05
3.84572e-07
8.72329e-05
3.82957e-07
8.72616e-05
3.78935e-07
8.72898e-05
3.72994e-07
8.73174e-05
3.6552e-07
8.73443e-05
3.5683e-07
8.73707e-05
3.47178e-07
8.73964e-05
3.36768e-07
8.74216e-05
3.25767e-07
8.74463e-05
3.14308e-07
8.74704e-05
3.02498e-07
8.7494e-05
2.90422e-07
8.75171e-05
2.78146e-07
8.75397e-05
2.65724e-07
8.75619e-05
2.53196e-07
8.75836e-05
2.40593e-07
8.76049e-05
2.27938e-07
8.76258e-05
2.15246e-07
8.76462e-05
2.02531e-07
8.76661e-05
1.898e-07
8.76856e-05
1.77061e-07
8.77046e-05
1.64318e-07
1.51614e-07
8.77231e-05
8.94106e-05
4.07864e-08
8.94249e-05
1.16632e-07
8.94455e-05
1.80574e-07
8.94703e-05
2.31397e-07
8.94977e-05
2.70818e-07
8.95267e-05
3.00804e-07
8.95566e-05
3.22754e-07
8.9587e-05
3.37957e-07
8.96173e-05
3.47681e-07
8.96475e-05
3.5299e-07
8.96774e-05
3.54716e-07
8.97068e-05
3.53539e-07
8.97357e-05
3.50022e-07
8.97641e-05
3.44625e-07
8.97919e-05
3.3772e-07
8.98191e-05
3.29607e-07
8.98457e-05
3.20532e-07
8.98718e-05
3.10694e-07
8.98973e-05
3.00255e-07
8.99223e-05
2.89346e-07
8.99467e-05
2.78072e-07
8.99706e-05
2.66517e-07
8.9994e-05
2.54749e-07
9.00169e-05
2.42822e-07
9.00393e-05
2.30779e-07
9.00613e-05
2.18652e-07
9.00828e-05
2.06468e-07
9.01038e-05
1.94248e-07
9.01243e-05
1.82007e-07
9.01443e-05
1.69759e-07
9.01639e-05
1.57517e-07
9.01829e-05
1.45284e-07
1.331e-07
9.02014e-05
9.19645e-05
3.61908e-08
9.19774e-05
1.03734e-07
9.19965e-05
1.61416e-07
9.20199e-05
2.08023e-07
9.20461e-05
2.4462e-07
9.20742e-05
2.72721e-07
9.21034e-05
2.93524e-07
9.21332e-05
3.08133e-07
9.21633e-05
3.17635e-07
9.21933e-05
3.22973e-07
9.22231e-05
3.24911e-07
9.22526e-05
3.24072e-07
9.22816e-05
3.2098e-07
9.23102e-05
3.16065e-07
9.23382e-05
3.09679e-07
9.23657e-05
3.02106e-07
9.23926e-05
2.93583e-07
9.2419e-05
2.843e-07
9.24449e-05
2.74414e-07
9.24702e-05
2.64051e-07
9.24949e-05
2.53316e-07
9.25192e-05
2.42291e-07
9.25429e-05
2.31044e-07
9.25661e-05
2.19631e-07
9.25887e-05
2.08094e-07
9.26109e-05
1.9647e-07
9.26326e-05
1.84788e-07
9.26538e-05
1.73071e-07
9.26744e-05
1.6134e-07
9.26946e-05
1.49612e-07
9.27142e-05
1.37907e-07
9.27332e-05
1.26238e-07
1.14653e-07
9.27517e-05
9.45913e-05
3.20044e-08
9.46032e-05
9.18982e-08
9.4621e-05
1.43567e-07
9.46432e-05
1.85887e-07
9.46683e-05
2.19494e-07
9.46955e-05
2.45526e-07
9.4724e-05
2.64983e-07
9.47534e-05
2.78804e-07
9.47831e-05
2.87916e-07
9.48129e-05
2.93144e-07
9.48426e-05
2.95177e-07
9.48721e-05
2.94582e-07
9.49013e-05
2.91841e-07
9.493e-05
2.8735e-07
9.49582e-05
2.81438e-07
9.4986e-05
2.74375e-07
9.50132e-05
2.66381e-07
9.50398e-05
2.5764e-07
9.50659e-05
2.48301e-07
9.50915e-05
2.38486e-07
9.51165e-05
2.28296e-07
9.5141e-05
2.17813e-07
9.51649e-05
2.07104e-07
9.51883e-05
1.96224e-07
9.52112e-05
1.85218e-07
9.52336e-05
1.74123e-07
9.52554e-05
1.62971e-07
9.52767e-05
1.51789e-07
9.52974e-05
1.40599e-07
9.53176e-05
1.29422e-07
9.53372e-05
1.18281e-07
9.53563e-05
1.07189e-07
9.61915e-08
9.53747e-05
9.72934e-05
2.81457e-08
9.73043e-05
8.09297e-08
9.73211e-05
1.26826e-07
9.73421e-05
1.64844e-07
9.73663e-05
1.95336e-07
9.73927e-05
2.19144e-07
9.74206e-05
2.37085e-07
9.74494e-05
2.49948e-07
9.74788e-05
2.58516e-07
9.75085e-05
2.63504e-07
9.75381e-05
2.65521e-07
9.75676e-05
2.65081e-07
9.75968e-05
2.62616e-07
9.76257e-05
2.58492e-07
9.76541e-05
2.5301e-07
9.76821e-05
2.46421e-07
9.77095e-05
2.38934e-07
9.77365e-05
2.30719e-07
9.77628e-05
2.21919e-07
9.77887e-05
2.1265e-07
9.7814e-05
2.03009e-07
9.78387e-05
1.93077e-07
9.78629e-05
1.82919e-07
9.78865e-05
1.72589e-07
9.79096e-05
1.62134e-07
9.79321e-05
1.51592e-07
9.79541e-05
1.40995e-07
9.79755e-05
1.30373e-07
9.79964e-05
1.19752e-07
9.80166e-05
1.09155e-07
9.80363e-05
9.86065e-08
9.80554e-05
8.81256e-08
7.776e-08
9.80738e-05
0.000100073
2.45505e-08
0.000100083
7.06671e-08
0.000100099
1.11016e-07
0.000100119
1.44747e-07
0.000100142
1.72037e-07
0.000100168
1.93494e-07
0.000100195
2.09774e-07
0.000100224
2.21529e-07
0.000100253
2.29414e-07
0.000100282
2.34041e-07
0.000100312
2.35942e-07
0.000100341
2.3557e-07
0.00010037
2.33313e-07
0.000100399
2.29501e-07
0.000100428
2.24408e-07
0.000100456
2.18264e-07
0.000100484
2.11262e-07
0.000100511
2.03561e-07
0.000100538
1.95294e-07
0.000100564
1.86573e-07
0.000100589
1.77489e-07
0.000100614
1.68118e-07
0.000100639
1.58526e-07
0.000100662
1.48766e-07
0.000100686
1.38883e-07
0.000100708
1.28917e-07
0.00010073
1.18902e-07
0.000100752
1.08867e-07
0.000100773
9.88407e-08
0.000100793
8.88474e-08
0.000100813
7.89131e-08
0.000100832
6.90561e-08
5.93209e-08
0.00010085
0.000102931
2.1166e-08
0.000102941
6.09751e-08
0.000102956
9.5975e-08
0.000102975
1.25454e-07
0.000102998
1.4948e-07
0.000103023
1.68485e-07
0.00010305
1.8298e-07
0.000103078
1.93497e-07
0.000103107
2.00578e-07
0.000103136
2.04736e-07
0.000103166
2.06426e-07
0.000103195
2.06044e-07
0.000103224
2.03931e-07
0.000103254
2.00379e-07
0.000103282
1.95635e-07
0.000103311
1.89908e-07
0.000103339
1.83371e-07
0.000103366
1.76172e-07
0.000103393
1.68433e-07
0.000103419
1.6026e-07
0.000103445
1.51737e-07
0.00010347
1.42938e-07
0.000103495
1.33926e-07
0.000103519
1.24751e-07
0.000103542
1.1546e-07
0.000103565
1.06091e-07
0.000103587
9.66788e-08
0.000103609
8.72536e-08
0.00010363
7.78439e-08
0.00010365
6.84757e-08
0.00010367
5.91755e-08
0.000103689
4.99632e-08
4.08828e-08
0.000103707
0.000105872
1.7948e-08
0.000105881
5.17365e-08
0.000105896
8.15572e-08
0.000105914
1.06825e-07
0.000105936
1.27544e-07
0.000105961
1.44014e-07
0.000105987
1.56622e-07
0.000106015
1.65792e-07
0.000106043
1.71961e-07
0.000106072
1.75552e-07
0.000106102
1.76948e-07
0.000106132
1.76486e-07
0.000106161
1.74459e-07
0.00010619
1.71122e-07
0.000106219
1.66692e-07
0.000106248
1.61355e-07
0.000106276
1.55266e-07
0.000106303
1.48559e-07
0.000106331
1.41345e-07
0.000106357
1.33722e-07
0.000106383
1.25768e-07
0.000106408
1.17552e-07
0.000106433
1.09134e-07
0.000106457
1.00562e-07
0.000106481
9.1882e-08
0.000106504
8.31308e-08
0.000106526
7.43429e-08
0.000106548
6.55488e-08
0.000106569
5.67769e-08
0.00010659
4.80533e-08
0.000106609
3.94042e-08
0.000106628
3.0849e-08
2.24289e-08
0.000106647
0.000108896
1.4857e-08
0.000108905
4.28463e-08
0.000108919
6.76242e-08
0.000108937
8.87203e-08
0.000108959
1.06103e-07
0.000108983
1.19971e-07
0.000109009
1.30608e-07
0.000109036
1.38337e-07
0.000109065
1.43504e-07
0.000109094
1.46446e-07
0.000109123
1.47475e-07
0.000109153
1.4687e-07
0.000109183
1.44878e-07
0.000109212
1.41716e-07
0.000109241
1.3757e-07
0.00010927
1.326e-07
0.000109298
1.26945e-07
0.000109326
1.20722e-07
0.000109353
1.14033e-07
0.00010938
1.06962e-07
0.000109406
9.95844e-08
0.000109432
9.1963e-08
0.000109457
8.41525e-08
0.000109481
7.62007e-08
0.000109505
6.81492e-08
0.000109528
6.00348e-08
0.000109551
5.18908e-08
0.000109572
4.3747e-08
0.000109593
3.56314e-08
0.000109614
2.75694e-08
0.000109634
1.95865e-08
0.000109653
1.17015e-08
3.95294e-09
0.000109671
0.000112007
1.18564e-08
0.000112016
3.42062e-08
0.00011203
5.40429e-08
0.000112047
7.09979e-08
0.000112069
8.50215e-08
0.000112092
9.62347e-08
0.000112118
1.04831e-07
0.000112145
1.11044e-07
0.000112174
1.15134e-07
0.000112203
1.17357e-07
0.000112232
1.17958e-07
0.000112262
1.1716e-07
0.000112292
1.15161e-07
0.000112321
1.1214e-07
0.000112351
1.08253e-07
0.00011238
1.03634e-07
0.000112408
9.84022e-08
0.000112436
9.2659e-08
0.000112464
8.6493e-08
0.000112491
7.99803e-08
0.000112517
7.31874e-08
0.000112543
6.61717e-08
0.000112568
5.89836e-08
0.000112593
5.16673e-08
0.000112616
4.42619e-08
0.00011264
3.68025e-08
0.000112662
2.93207e-08
0.000112684
2.18453e-08
0.000112705
1.44031e-08
0.000112726
7.01861e-09
0.000112746
-2.837e-10
0.000112765
-7.48542e-09
-1.45499e-08
0.000112784
0.000115207
8.90995e-09
0.000115216
2.57215e-08
0.000115229
4.06823e-08
0.000115247
5.35132e-08
0.000115268
6.41572e-08
0.000115291
7.26727e-08
0.000115317
7.91732e-08
0.000115344
8.38115e-08
0.000115372
8.67645e-08
0.000115402
8.82152e-08
0.000115431
8.83411e-08
0.000115461
8.73087e-08
0.000115491
8.52709e-08
0.000115521
8.23666e-08
0.00011555
7.87197e-08
0.000115579
7.44405e-08
0.000115608
6.9626e-08
0.000115637
6.43619e-08
0.000115664
5.87234e-08
0.000115691
5.27764e-08
0.000115718
4.65791e-08
0.000115744
4.01827e-08
0.000115769
3.36323e-08
0.000115794
2.69685e-08
0.000115818
2.02271e-08
0.000115842
1.3441e-08
0.000115864
6.63956e-09
0.000115886
-1.49906e-10
0.000115908
-6.90229e-09
0.000115928
-1.35946e-08
0.000115948
-2.02043e-08
0.000115967
-2.67156e-08
-3.30956e-08
0.000115986
0.000118499
5.97873e-09
0.000118507
1.72963e-08
0.00011852
2.74075e-08
0.000118538
3.61143e-08
0.000118559
4.3357e-08
0.000118582
4.91402e-08
0.000118608
5.35042e-08
0.000118635
5.65236e-08
0.000118664
5.82977e-08
0.000118693
5.8937e-08
0.000118723
5.85542e-08
0.000118753
5.72601e-08
0.000118783
5.51611e-08
0.000118813
5.2357e-08
0.000118843
4.894e-08
0.000118872
4.49941e-08
0.000118901
4.05954e-08
0.00011893
3.58127e-08
0.000118958
3.07074e-08
0.000118985
2.53348e-08
0.000119012
1.97443e-08
0.000119038
1.39802e-08
0.000119064
8.08228e-09
0.000119089
2.0866e-09
0.000119113
-3.97427e-09
0.000119136
-1.00706e-08
0.000119159
-1.61752e-08
0.000119181
-2.22628e-08
0.000119203
-2.83102e-08
0.000119223
-3.42957e-08
0.000119243
-4.0198e-08
0.000119263
-4.60006e-08
-5.1672e-08
0.000119281
0.000121884
3.03132e-09
0.000121893
8.84063e-09
0.000121906
1.40847e-08
0.000121923
1.86439e-08
0.000121944
2.2458e-08
0.000121968
2.54799e-08
0.000121994
2.76779e-08
0.000122021
2.90499e-08
0.00012205
2.96195e-08
0.00012208
2.94255e-08
0.00012211
2.85161e-08
0.00012214
2.6947e-08
0.00012217
2.47778e-08
0.000122201
2.20694e-08
0.000122231
1.88817e-08
0.00012226
1.52723e-08
0.00012229
1.1296e-08
0.000122318
7.00401e-09
0.000122347
2.444e-09
0.000122374
-2.34013e-09
0.000122401
-7.30801e-09
0.000122428
-1.24226e-08
0.000122454
-1.76499e-08
0.000122479
-2.29587e-08
0.000122503
-2.83203e-08
0.000122527
-3.37083e-08
0.00012255
-3.9098e-08
0.000122572
-4.44669e-08
0.000122593
-4.97939e-08
0.000122614
-5.50597e-08
0.000122634
-6.02462e-08
0.000122653
-6.53412e-08
-7.03184e-08
0.000122672
0.000125366
5.28366e-11
0.000125375
2.69133e-10
0.000125389
5.74827e-10
0.000125406
9.3328e-10
0.000125427
1.28184e-09
0.000125451
1.51655e-09
0.000125478
1.53025e-09
0.000125505
1.24249e-09
0.000125534
5.99555e-10
0.000125564
-4.32718e-10
0.000125595
-1.87089e-09
0.000125625
-3.71509e-09
0.000125656
-5.9525e-09
0.000125687
-8.56133e-09
0.000125717
-1.1514e-08
0.000125747
-1.47791e-08
0.000125777
-1.83236e-08
0.000125806
-2.21135e-08
0.000125834
-2.61154e-08
0.000125862
-3.02969e-08
0.00012589
-3.46268e-08
0.000125916
-3.90756e-08
0.000125942
-4.36156e-08
0.000125968
-4.82205e-08
0.000125992
-5.28657e-08
0.000126016
-5.75284e-08
0.000126039
-6.21869e-08
0.000126061
-6.68211e-08
0.000126083
-7.1412e-08
0.000126104
-7.59419e-08
0.000126124
-8.03927e-08
0.000126143
-8.47497e-08
-8.89862e-08
0.000126162
0.000128948
-3.00274e-09
0.000128957
-8.54322e-09
0.000128971
-1.33057e-08
0.000128989
-1.72311e-08
0.000129011
-2.03918e-08
0.000129035
-2.29626e-08
0.000129062
-2.51357e-08
0.00012909
-2.70753e-08
0.00012912
-2.89157e-08
0.00012915
-3.0767e-08
0.000129181
-3.27127e-08
0.000129212
-3.48098e-08
0.000129243
-3.70928e-08
0.000129274
-3.95793e-08
0.000129305
-4.22741e-08
0.000129335
-4.51724e-08
0.000129365
-4.82624e-08
0.000129395
-5.15278e-08
0.000129423
-5.49493e-08
0.000129452
-5.85059e-08
0.000129479
-6.21758e-08
0.000129506
-6.59371e-08
0.000129532
-6.97683e-08
0.000129558
-7.36484e-08
0.000129582
-7.75572e-08
0.000129606
-8.14753e-08
0.000129629
-8.53846e-08
0.000129652
-8.92676e-08
0.000129674
-9.31084e-08
0.000129695
-9.68926e-08
0.000129715
-1.00607e-07
0.000129734
-1.04244e-07
-1.07784e-07
0.000129753
0.000132632
-6.20079e-09
0.000132641
-1.77662e-08
0.000132656
-2.77975e-08
0.000132675
-3.61208e-08
0.000132697
-4.2836e-08
0.000132723
-4.82164e-08
0.00013275
-5.25578e-08
0.000132779
-5.61173e-08
0.000132809
-5.91172e-08
0.00013284
-6.17487e-08
0.000132872
-6.41651e-08
0.000132903
-6.64807e-08
0.000132935
-6.87774e-08
0.000132967
-7.11118e-08
0.000132998
-7.35208e-08
0.000133029
-7.60258e-08
0.000133059
-7.86359e-08
0.000133089
-8.13521e-08
0.000133118
-8.4169e-08
0.000133147
-8.70771e-08
0.000133175
-9.00639e-08
0.000133202
-9.31151e-08
0.000133228
-9.62155e-08
0.000133254
-9.93493e-08
0.000133279
-1.02501e-07
0.000133303
-1.05654e-07
0.000133326
-1.08795e-07
0.000133349
-1.11908e-07
0.000133371
-1.14979e-07
0.000133392
-1.17994e-07
0.000133412
-1.20939e-07
0.000133432
-1.23799e-07
-1.26555e-07
0.000133451
0.000136422
-9.62236e-09
0.000136432
-2.76228e-08
0.000136447
-4.32124e-08
0.000136467
-5.60799e-08
0.00013649
-6.63896e-08
0.000136517
-7.45604e-08
0.000136545
-8.10167e-08
0.000136575
-8.61205e-08
0.000136606
-9.01938e-08
0.000136638
-9.35192e-08
0.00013667
-9.63253e-08
0.000136703
-9.87857e-08
0.000136735
-1.0103e-07
0.000136767
-1.03154e-07
0.000136799
-1.05227e-07
0.00013683
-1.07293e-07
0.000136861
-1.09383e-07
0.000136891
-1.11513e-07
0.00013692
-1.13693e-07
0.000136949
-1.15922e-07
0.000136977
-1.18198e-07
0.000137005
-1.20512e-07
0.000137031
-1.22857e-07
0.000137057
-1.25222e-07
0.000137082
-1.27595e-07
0.000137107
-1.29964e-07
0.00013713
-1.32317e-07
0.000137153
-1.34644e-07
0.000137175
-1.36934e-07
0.000137196
-1.39176e-07
0.000137216
-1.41364e-07
0.000137236
-1.43496e-07
-1.45557e-07
0.000137255
0.00014032
-1.33792e-08
0.00014033
-3.84222e-08
0.000140347
-5.99697e-08
0.000140369
-7.75499e-08
0.000140394
-9.14734e-08
0.000140421
-1.02388e-07
0.000140451
-1.10882e-07
0.000140483
-1.17433e-07
0.000140515
-1.22476e-07
0.000140548
-1.26394e-07
0.000140581
-1.29496e-07
0.000140614
-1.32014e-07
0.000140647
-1.34128e-07
0.00014068
-1.3597e-07
0.000140713
-1.37641e-07
0.000140744
-1.3921e-07
0.000140776
-1.40727e-07
0.000140806
-1.42224e-07
0.000140837
-1.43722e-07
0.000140866
-1.45232e-07
0.000140894
-1.46759e-07
0.000140922
-1.48303e-07
0.000140949
-1.4986e-07
0.000140975
-1.51425e-07
0.000141001
-1.5299e-07
0.000141025
-1.54548e-07
0.000141049
-1.56088e-07
0.000141072
-1.57602e-07
0.000141094
-1.59081e-07
0.000141116
-1.60514e-07
0.000141136
-1.61889e-07
0.000141156
-1.63194e-07
-1.64413e-07
0.000141175
0.000144329
-1.76348e-08
0.000144341
-5.06158e-08
0.00014436
-7.86587e-08
0.000144383
-1.01114e-07
0.00014441
-1.18598e-07
0.00014444
-1.32112e-07
0.000144472
-1.4245e-07
0.000144505
-1.50236e-07
0.000144538
-1.56044e-07
0.000144572
-1.60376e-07
0.000144606
-1.6362e-07
0.00014464
-1.66068e-07
0.000144674
-1.67942e-07
0.000144707
-1.69412e-07
0.00014474
-1.70605e-07
0.000144773
-1.71613e-07
0.000144805
-1.72501e-07
0.000144836
-1.73317e-07
0.000144866
-1.7409e-07
0.000144896
-1.74843e-07
0.000144925
-1.75586e-07
0.000144953
-1.76327e-07
0.00014498
-1.77068e-07
0.000145006
-1.77806e-07
0.000145032
-1.78539e-07
0.000145056
-1.79263e-07
0.00014508
-1.79971e-07
0.000145103
-1.80657e-07
0.000145126
-1.81317e-07
0.000145147
-1.81946e-07
0.000145168
-1.82542e-07
0.000145188
-1.83107e-07
-1.83632e-07
0.000145207
0.000148453
-2.26452e-08
0.000148467
-6.48854e-08
0.000148489
-1.00106e-07
0.000148515
-1.27566e-07
0.000148545
-1.48531e-07
0.000148577
-1.64511e-07
0.000148612
-1.76499e-07
0.000148647
-1.85273e-07
0.000148682
-1.91591e-07
0.000148718
-1.96098e-07
0.000148753
-1.99269e-07
0.000148789
-2.01453e-07
0.000148824
-2.02918e-07
0.000148858
-2.03871e-07
0.000148892
-2.04461e-07
0.000148925
-2.048e-07
0.000148958
-2.04966e-07
0.00014899
-2.05018e-07
0.00014902
-2.04996e-07
0.00014905
-2.04928e-07
0.00014908
-2.04832e-07
0.000149108
-2.04719e-07
0.000149136
-2.04595e-07
0.000149162
-2.04464e-07
0.000149188
-2.04325e-07
0.000149213
-2.04176e-07
0.000149237
-2.04014e-07
0.00014926
-2.03835e-07
0.000149283
-2.03632e-07
0.000149304
-2.034e-07
0.000149325
-2.03129e-07
0.000149344
-2.02807e-07
-2.02425e-07
0.000149363
0.000152695
-2.88621e-08
0.000152713
-8.23892e-08
0.000152738
-1.255e-07
0.000152768
-1.57695e-07
0.000152801
-1.8165e-07
0.000152837
-1.9965e-07
0.000152873
-2.12866e-07
0.00015291
-2.22245e-07
0.000152947
-2.28757e-07
0.000152984
-2.33184e-07
0.000153021
-2.36069e-07
0.000153057
-2.3781e-07
0.000153093
-2.38717e-07
0.000153128
-2.39022e-07
0.000153163
-2.38899e-07
0.000153196
-2.38472e-07
0.000153229
-2.37833e-07
0.000153261
-2.37048e-07
0.000153293
-2.36166e-07
0.000153323
-2.3522e-07
0.000153352
-2.34234e-07
0.000153381
-2.33223e-07
0.000153408
-2.32197e-07
0.000153435
-2.31162e-07
0.000153461
-2.30121e-07
0.000153486
-2.29074e-07
0.00015351
-2.28022e-07
0.000153533
-2.26962e-07
0.000153555
-2.25894e-07
0.000153577
-2.24818e-07
0.000153597
-2.23735e-07
0.000153617
-2.22653e-07
-2.21565e-07
0.000153636
0.00015706
-3.7036e-08
0.000157082
-1.05092e-07
0.000157114
-1.57053e-07
0.00015715
-1.93693e-07
0.000157188
-2.20142e-07
0.000157228
-2.39519e-07
0.000157269
-2.53167e-07
0.000157309
-2.62373e-07
0.000157348
-2.68422e-07
0.000157387
-2.72231e-07
0.000157426
-2.74391e-07
0.000157463
-2.75333e-07
0.0001575
-2.75393e-07
0.000157536
-2.74822e-07
0.000157571
-2.73799e-07
0.000157605
-2.72453e-07
0.000157638
-2.70881e-07
0.00015767
-2.69153e-07
0.000157701
-2.67319e-07
0.000157731
-2.65415e-07
0.00015776
-2.63469e-07
0.000157789
-2.61497e-07
0.000157816
-2.59513e-07
0.000157842
-2.57523e-07
0.000157868
-2.55534e-07
0.000157892
-2.53546e-07
0.000157916
-2.51562e-07
0.000157938
-2.49579e-07
0.00015796
-2.47597e-07
0.000157981
-2.45611e-07
0.000158001
-2.43615e-07
0.00015802
-2.416e-07
-2.39564e-07
0.000158038
0.00016155
-4.90102e-08
0.000161581
-1.35628e-07
0.000161619
-1.95191e-07
0.00016166
-2.34424e-07
0.000161702
-2.62603e-07
0.000161746
-2.82827e-07
0.000161789
-2.96247e-07
0.000161831
-3.04643e-07
0.000161872
-3.0969e-07
0.000161912
-3.12419e-07
0.000161951
-3.13447e-07
0.000161989
-3.13238e-07
0.000162026
-3.12156e-07
0.000162062
-3.10461e-07
0.000162096
-3.08334e-07
0.00016213
-3.05904e-07
0.000162162
-3.03265e-07
0.000162193
-3.00487e-07
0.000162224
-2.97618e-07
0.000162253
-2.94694e-07
0.000162281
-2.9174e-07
0.000162309
-2.88772e-07
0.000162335
-2.85804e-07
0.00016236
-2.82844e-07
0.000162385
-2.79895e-07
0.000162408
-2.76963e-07
0.00016243
-2.74048e-07
0.000162452
-2.7115e-07
0.000162473
-2.68272e-07
0.000162493
-2.65414e-07
0.000162511
-2.6258e-07
0.00016253
-2.59782e-07
-2.57016e-07
0.000162547
0.000166174
-6.96567e-08
0.000166223
-1.8458e-07
0.000166276
-2.47755e-07
0.000166326
-2.84591e-07
0.000166374
-3.11051e-07
0.000166421
-3.29277e-07
0.000166465
-3.4021e-07
0.000166506
-3.46203e-07
0.000166546
-3.49151e-07
0.000166583
-3.50016e-07
0.000166619
-3.49347e-07
0.000166654
-3.47584e-07
0.000166687
-3.45068e-07
0.000166718
-3.42035e-07
0.000166748
-3.38644e-07
0.000166778
-3.35011e-07
0.000166806
-3.31217e-07
0.000166832
-3.27324e-07
0.000166858
-3.23373e-07
0.000166883
-3.19397e-07
0.000166906
-3.15415e-07
0.000166929