/*--------------------------------*- C++ -*----------------------------------*\
| =========                 |                                                 |
| \\      /  F ield         | OpenFOAM: The Open Source CFD Toolbox           |
|  \\    /   O peration     | Version:  4.1                                   |
|   \\  /    A nd           | Web:      www.OpenFOAM.org                      |
|    \\/     M anipulation  |                                                 |
\*---------------------------------------------------------------------------*/
FoamFile
{
    version     2.0;
    format      ascii;
    class       volSymmTensorField;
    location    "800";
    object      R;
}
// * * * * * * * * * * * * * * * * * * * * * * * * * * * * * * * * * * * * * //

dimensions      [0 2 -2 0 0 0 0];

internalField   nonuniform List<symmTensor> 
6820
(
(0.205732 -0.0655181 0 0.119059 0 0.158783)
(0.282327 -0.0957377 0 0.109535 0 0.187468)
(0.351932 -0.111301 0 0.106212 0 0.215544)
(0.414145 -0.120959 0 0.107184 0 0.242572)
(0.468925 -0.12821 0 0.110858 0 0.268123)
(0.516415 -0.134402 0 0.116011 0 0.291794)
(0.556894 -0.139947 0 0.121756 0 0.313246)
(0.590785 -0.144894 0 0.127486 0 0.332258)
(0.618629 -0.149196 0 0.132821 0 0.348735)
(0.641034 -0.152808 0 0.137552 0 0.362694)
(0.658635 -0.155725 0 0.141583 0 0.374247)
(0.672059 -0.157977 0 0.144898 0 0.383564)
(0.681903 -0.15962 0 0.147528 0 0.390858)
(0.688719 -0.160724 0 0.149532 0 0.396359)
(0.693005 -0.161361 0 0.15098 0 0.400299)
(0.6952 -0.161606 0 0.151946 0 0.402903)
(0.69569 -0.161527 0 0.152503 0 0.404379)
(0.694803 -0.161183 0 0.152719 0 0.404915)
(0.692821 -0.160628 0 0.152653 0 0.40468)
(0.689982 -0.159909 0 0.152359 0 0.403819)
(0.686484 -0.159065 0 0.151882 0 0.40246)
(0.682492 -0.158127 0 0.151263 0 0.400709)
(0.678143 -0.157124 0 0.150535 0 0.398659)
(0.67355 -0.156079 0 0.149726 0 0.396386)
(0.668804 -0.155009 0 0.148859 0 0.393954)
(0.663981 -0.153929 0 0.147954 0 0.391416)
(0.65914 -0.152852 0 0.147026 0 0.388815)
(0.65433 -0.151788 0 0.146089 0 0.386187)
(0.649587 -0.150744 0 0.145153 0 0.38356)
(0.644947 -0.149724 0 0.144226 0 0.38096)
(0.640421 -0.148743 0 0.143315 0 0.3784)
(0.636112 -0.147814 0 0.14246 0 0.375932)
(0.633181 -0.147812 0 0.142583 0 0.374006)
(0.141614 -0.00846611 0 0.126763 0 0.13657)
(0.150539 -0.0154135 0 0.119378 0 0.139441)
(0.159409 -0.0210922 0 0.112607 0 0.141974)
(0.168024 -0.0259312 0 0.106663 0 0.144249)
(0.176201 -0.0301002 0 0.101596 0 0.146285)
(0.183857 -0.0337139 0 0.097394 0 0.148111)
(0.190973 -0.0368714 0 0.0939941 0 0.149758)
(0.197552 -0.0396512 0 0.0913087 0 0.151252)
(0.20361 -0.0421152 0 0.0892405 0 0.152615)
(0.20918 -0.0443158 0 0.0876945 0 0.153866)
(0.214304 -0.046299 0 0.0865824 0 0.155023)
(0.219029 -0.0481053 0 0.0858255 0 0.156102)
(0.223409 -0.0497698 0 0.0853555 0 0.15712)
(0.227493 -0.0513217 0 0.0851151 0 0.158091)
(0.231331 -0.0527854 0 0.0850569 0 0.159027)
(0.234967 -0.0541804 0 0.0851425 0 0.159941)
(0.238442 -0.0555221 0 0.0853413 0 0.160843)
(0.241791 -0.0568223 0 0.0856288 0 0.161742)
(0.245043 -0.0580901 0 0.0859861 0 0.162645)
(0.248223 -0.0593318 0 0.0863982 0 0.163557)
(0.251351 -0.0605524 0 0.0868533 0 0.164484)
(0.254443 -0.0617552 0 0.0873426 0 0.16543)
(0.257513 -0.0629428 0 0.0878588 0 0.166396)
(0.260569 -0.0641164 0 0.0883966 0 0.167386)
(0.263618 -0.0652767 0 0.0889512 0 0.168398)
(0.266663 -0.0664236 0 0.0895191 0 0.169434)
(0.269707 -0.067557 0 0.0900972 0 0.170492)
(0.272749 -0.0686762 0 0.0906829 0 0.171571)
(0.275788 -0.0697808 0 0.0912739 0 0.17267)
(0.278823 -0.0708686 0 0.0918675 0 0.173787)
(0.281851 -0.0719437 0 0.0924649 0 0.174919)
(0.284866 -0.0729926 0 0.093059 0 0.176067)
(0.288421 -0.0742597 0 0.0939437 0 0.177426)
(0.135647 -0.00198165 0 0.129365 0 0.13447)
(0.138143 -0.00333273 0 0.124875 0 0.135413)
(0.140543 -0.00436743 0 0.120286 0 0.136113)
(0.142758 -0.00525002 0 0.115857 0 0.136577)
(0.144727 -0.00600338 0 0.111694 0 0.136818)
(0.146449 -0.00665866 0 0.107826 0 0.136871)
(0.147943 -0.00725513 0 0.104253 0 0.136769)
(0.149225 -0.00782148 0 0.100966 0 0.136541)
(0.150314 -0.00837534 0 0.0979486 0 0.136207)
(0.151228 -0.00892806 0 0.0951834 0 0.135788)
(0.151988 -0.0094872 0 0.0926519 0 0.135301)
(0.152613 -0.0100575 0 0.0903353 0 0.134761)
(0.153125 -0.0106413 0 0.0882153 0 0.134182)
(0.15354 -0.0112398 0 0.0862747 0 0.133575)
(0.153876 -0.0118528 0 0.0844974 0 0.13295)
(0.15415 -0.0124797 0 0.0828685 0 0.132316)
(0.154376 -0.0131192 0 0.0813745 0 0.131681)
(0.154569 -0.0137699 0 0.0800035 0 0.131051)
(0.154739 -0.0144303 0 0.0787445 0 0.130433)
(0.154899 -0.0150986 0 0.0775877 0 0.12983)
(0.155056 -0.0157729 0 0.0765245 0 0.129248)
(0.155216 -0.0164512 0 0.0755464 0 0.128687)
(0.155385 -0.0171312 0 0.0746462 0 0.128151)
(0.155565 -0.0178111 0 0.0738173 0 0.127639)
(0.155761 -0.0184893 0 0.0730537 0 0.127152)
(0.155975 -0.0191642 0 0.0723504 0 0.126693)
(0.15621 -0.0198345 0 0.0717026 0 0.12626)
(0.156466 -0.0204989 0 0.0711062 0 0.125855)
(0.156745 -0.0211564 0 0.0705573 0 0.125476)
(0.157047 -0.021806 0 0.0700529 0 0.125125)
(0.157372 -0.0224462 0 0.0695882 0 0.1248)
(0.157724 -0.0230802 0 0.0691669 0 0.124504)
(0.158144 -0.0237194 0 0.0688031 0 0.124245)
(0.134186 -0.000783012 0 0.130263 0 0.133857)
(0.135191 -0.00139797 0 0.126844 0 0.134317)
(0.136192 -0.00188094 0 0.123377 0 0.134657)
(0.13712 -0.00231652 0 0.120006 0 0.134859)
(0.137922 -0.00270631 0 0.116774 0 0.134922)
(0.138592 -0.0030531 0 0.11369 0 0.13486)
(0.139141 -0.00336936 0 0.110759 0 0.134693)
(0.139579 -0.00366508 0 0.107987 0 0.134437)
(0.139912 -0.00394647 0 0.105372 0 0.134105)
(0.14015 -0.00421839 0 0.10291 0 0.133709)
(0.140302 -0.00448512 0 0.100594 0 0.13326)
(0.140379 -0.00475018 0 0.0984175 0 0.132768)
(0.140389 -0.00501618 0 0.0963716 0 0.13224)
(0.140342 -0.00528505 0 0.0944483 0 0.131685)
(0.140246 -0.00555816 0 0.0926395 0 0.131109)
(0.140107 -0.00583641 0 0.0909372 0 0.130516)
(0.139935 -0.00612037 0 0.0893342 0 0.129914)
(0.139734 -0.00641029 0 0.0878236 0 0.129304)
(0.139512 -0.00670621 0 0.0863989 0 0.128692)
(0.139273 -0.007008 0 0.0850543 0 0.128081)
(0.139022 -0.00731537 0 0.0837843 0 0.127473)
(0.138764 -0.00762776 0 0.0825841 0 0.126872)
(0.138502 -0.00794454 0 0.0814489 0 0.126278)
(0.138238 -0.00826504 0 0.0803745 0 0.125693)
(0.137975 -0.00858858 0 0.079357 0 0.125119)
(0.137715 -0.00891448 0 0.0783926 0 0.124556)
(0.137459 -0.00924208 0 0.0774782 0 0.124006)
(0.13721 -0.00957071 0 0.0766107 0 0.123468)
(0.136968 -0.00989978 0 0.0757871 0 0.122944)
(0.136735 -0.0102286 0 0.075005 0 0.122434)
(0.136511 -0.0105568 0 0.0742619 0 0.121938)
(0.136296 -0.0108845 0 0.0735557 0 0.121456)
(0.136091 -0.0112147 0 0.0728902 0 0.120984)
(0.133619 -0.000369895 0 0.1308 0 0.133544)
(0.133991 -0.00066344 0 0.128074 0 0.133735)
(0.134406 -0.00089273 0 0.12533 0 0.133878)
(0.134816 -0.00111606 0 0.122627 0 0.133954)
(0.135172 -0.0013308 0 0.119998 0 0.133949)
(0.135457 -0.00152941 0 0.117456 0 0.133864)
(0.135676 -0.00171501 0 0.115009 0 0.133709)
(0.135831 -0.00189194 0 0.112665 0 0.133493)
(0.135924 -0.00206239 0 0.110424 0 0.133222)
(0.135958 -0.00222796 0 0.108285 0 0.132904)
(0.135941 -0.00239027 0 0.106247 0 0.132546)
(0.135875 -0.00255076 0 0.104304 0 0.132153)
(0.135768 -0.00271054 0 0.102455 0 0.131733)
(0.135623 -0.00287046 0 0.100693 0 0.131289)
(0.135444 -0.00303115 0 0.0990168 0 0.130826)
(0.135238 -0.00319311 0 0.0974204 0 0.130347)
(0.135006 -0.00335668 0 0.0959004 0 0.129857)
(0.134754 -0.0035221 0 0.0944527 0 0.129359)
(0.134485 -0.0036895 0 0.0930735 0 0.128854)
(0.134201 -0.00385893 0 0.0917592 0 0.128346)
(0.133906 -0.00403039 0 0.0905063 0 0.127836)
(0.133603 -0.00420377 0 0.0893115 0 0.127327)
(0.133293 -0.00437892 0 0.0881717 0 0.12682)
(0.132979 -0.00455562 0 0.0870841 0 0.126316)
(0.132663 -0.00473364 0 0.0860457 0 0.125817)
(0.132345 -0.00491272 0 0.085054 0 0.125324)
(0.132027 -0.00509259 0 0.0841066 0 0.124836)
(0.13171 -0.00527296 0 0.083201 0 0.124356)
(0.131396 -0.00545355 0 0.0823353 0 0.123883)
(0.131085 -0.00563408 0 0.0815073 0 0.123418)
(0.130777 -0.00581432 0 0.080715 0 0.122961)
(0.130473 -0.00599437 0 0.0799567 0 0.122513)
(0.130166 -0.00617617 0 0.0792292 0 0.122066)
(0.133352 -0.000209947 0 0.131145 0 0.133354)
(0.133395 -0.000362814 0 0.128832 0 0.133363)
(0.133482 -0.000470624 0 0.126514 0 0.13336)
(0.133597 -0.000577736 0 0.124222 0 0.133333)
(0.1337 -0.000685301 0 0.121981 0 0.133264)
(0.133774 -0.000786668 0 0.119804 0 0.133149)
(0.133814 -0.000883006 0 0.117695 0 0.132989)
(0.133819 -0.000976812 0 0.115661 0 0.132788)
(0.133788 -0.00106883 0 0.113702 0 0.132549)
(0.133721 -0.0011593 0 0.11182 0 0.132277)
(0.133622 -0.00124872 0 0.110014 0 0.131975)
(0.133493 -0.00133766 0 0.108282 0 0.131647)
(0.133336 -0.00142659 0 0.106622 0 0.131298)
(0.133154 -0.00151589 0 0.105032 0 0.130931)
(0.13295 -0.00160586 0 0.10351 0 0.130547)
(0.132727 -0.00169676 0 0.102052 0 0.130152)
(0.132487 -0.00178875 0 0.100656 0 0.129746)
(0.132232 -0.00188195 0 0.0993186 0 0.129332)
(0.131964 -0.00197644 0 0.0980381 0 0.128912)
(0.131686 -0.00207222 0 0.0968115 0 0.128487)
(0.131399 -0.0021693 0 0.0956361 0 0.12806)
(0.131105 -0.00226761 0 0.0945096 0 0.127632)
(0.130806 -0.00236706 0 0.0934296 0 0.127204)
(0.130502 -0.00246756 0 0.092394 0 0.126777)
(0.130196 -0.00256895 0 0.0914006 0 0.126352)
(0.129888 -0.00267108 0 0.0904475 0 0.12593)
(0.129579 -0.00277378 0 0.0895327 0 0.125512)
(0.12927 -0.00287686 0 0.0886545 0 0.125097)
(0.128961 -0.00298015 0 0.0878113 0 0.124688)
(0.128654 -0.00308345 0 0.0870014 0 0.124283)
(0.128349 -0.00318657 0 0.0862234 0 0.123884)
(0.128044 -0.00328956 0 0.0854753 0 0.12349)
(0.127736 -0.00339332 0 0.0847512 0 0.123095)
(0.133205 -0.000140256 0 0.131382 0 0.133226)
(0.133061 -0.000232537 0 0.129345 0 0.133103)
(0.132946 -0.000282301 0 0.127332 0 0.132983)
(0.132865 -0.000325306 0 0.12535 0 0.13286)
(0.132794 -0.00036913 0 0.12341 0 0.132722)
(0.132719 -0.000411033 0 0.121516 0 0.132563)
(0.132633 -0.0004518 0 0.119673 0 0.132379)
(0.132532 -0.000493027 0 0.117884 0 0.132171)
(0.132415 -0.000534946 0 0.116153 0 0.13194)
(0.132278 -0.000577369 0 0.11448 0 0.131686)
(0.132123 -0.000620348 0 0.112867 0 0.131413)
(0.131951 -0.000664056 0 0.111311 0 0.131121)
(0.131761 -0.000708636 0 0.109813 0 0.130814)
(0.131556 -0.000754188 0 0.10837 0 0.130494)
(0.131338 -0.000800793 0 0.106982 0 0.130162)
(0.131106 -0.000848509 0 0.105647 0 0.12982)
(0.130863 -0.00089737 0 0.104362 0 0.12947)
(0.130611 -0.000947381 0 0.103127 0 0.129114)
(0.13035 -0.000998528 0 0.101938 0 0.128752)
(0.130082 -0.00105078 0 0.100795 0 0.128388)
(0.129808 -0.00110408 0 0.0996958 0 0.12802)
(0.129529 -0.00115836 0 0.098638 0 0.127651)
(0.129247 -0.00121354 0 0.0976204 0 0.127282)
(0.128961 -0.00126953 0 0.0966411 0 0.126913)
(0.128673 -0.00132622 0 0.0956987 0 0.126545)
(0.128384 -0.00138349 0 0.0947917 0 0.126179)
(0.128094 -0.0014412 0 0.0939185 0 0.125816)
(0.127804 -0.00149923 0 0.0930778 0 0.125455)
(0.127514 -0.00155742 0 0.0922683 0 0.125097)
(0.127226 -0.0016156 0 0.0914887 0 0.124744)
(0.126938 -0.00167362 0 0.0907377 0 0.124394)
(0.126652 -0.00173138 0 0.0900134 0 0.124047)
(0.126361 -0.00178925 0 0.0893085 0 0.123698)
(0.133111 -0.000104768 0 0.131554 0 0.133134)
(0.132855 -0.00017196 0 0.12971 0 0.132914)
(0.132611 -0.000199606 0 0.12791 0 0.1327)
(0.132395 -0.000214159 0 0.126145 0 0.132493)
(0.132198 -0.000225689 0 0.124419 0 0.132287)
(0.132008 -0.000234575 0 0.122733 0 0.132075)
(0.131822 -0.00024225 0 0.121088 0 0.131854)
(0.131636 -0.000250579 0 0.119488 0 0.131623)
(0.131447 -0.000260196 0 0.117934 0 0.13138)
(0.13125 -0.000271115 0 0.116428 0 0.131124)
(0.131046 -0.000283366 0 0.114969 0 0.130858)
(0.130835 -0.000297012 0 0.113558 0 0.130581)
(0.130615 -0.00031207 0 0.112195 0 0.130294)
(0.130387 -0.000328522 0 0.110878 0 0.129998)
(0.130152 -0.000346339 0 0.109607 0 0.129695)
(0.12991 -0.000365492 0 0.10838 0 0.129385)
(0.129662 -0.000385939 0 0.107196 0 0.12907)
(0.129408 -0.000407633 0 0.106055 0 0.12875)
(0.12915 -0.000430513 0 0.104954 0 0.128428)
(0.128887 -0.000454516 0 0.103892 0 0.128103)
(0.128621 -0.000479566 0 0.102868 0 0.127776)
(0.128353 -0.000505582 0 0.10188 0 0.127449)
(0.128083 -0.000532475 0 0.100928 0 0.127121)
(0.127811 -0.000560151 0 0.100009 0 0.126794)
(0.127538 -0.000588506 0 0.0991228 0 0.126468)
(0.127265 -0.00061743 0 0.0982679 0 0.126143)
(0.126992 -0.000646805 0 0.0974431 0 0.12582)
(0.126719 -0.000676504 0 0.0966472 0 0.1255)
(0.126447 -0.000706388 0 0.0958792 0 0.125182)
(0.126176 -0.000736307 0 0.095138 0 0.124867)
(0.125907 -0.000766089 0 0.0944224 0 0.124556)
(0.125638 -0.000795598 0 0.0937304 0 0.124247)
(0.125366 -0.000824929 0 0.0930541 0 0.123936)
(0.133044 -8.35384e-05 0 0.131686 0 0.133064)
(0.132713 -0.000139547 0 0.129983 0 0.132771)
(0.132385 -0.00016094 0 0.128336 0 0.132484)
(0.132077 -0.000165388 0 0.126731 0 0.132208)
(0.131788 -0.000162603 0 0.125168 0 0.131939)
(0.131512 -0.000154885 0 0.123645 0 0.131674)
(0.131246 -0.000144432 0 0.12216 0 0.13141)
(0.130988 -0.00013356 0 0.120715 0 0.131145)
(0.130735 -0.000123431 0 0.119308 0 0.130878)
(0.130484 -0.000114443 0 0.117942 0 0.130607)
(0.130234 -0.000106818 0 0.116616 0 0.130332)
(0.129983 -0.00010071 0 0.11533 0 0.130053)
(0.129732 -9.61833e-05 0 0.114084 0 0.12977)
(0.129478 -9.32364e-05 0 0.112876 0 0.129482)
(0.129223 -9.18381e-05 0 0.111708 0 0.129191)
(0.128966 -9.19403e-05 0 0.110577 0 0.128898)
(0.128707 -9.34803e-05 0 0.109484 0 0.128601)
(0.128447 -9.63847e-05 0 0.108426 0 0.128303)
(0.128185 -0.000100572 0 0.107403 0 0.128004)
(0.127922 -0.000105953 0 0.106415 0 0.127703)
(0.127658 -0.000112438 0 0.105459 0 0.127403)
(0.127394 -0.000119929 0 0.104535 0 0.127102)
(0.12713 -0.000128327 0 0.103642 0 0.126803)
(0.126865 -0.000137527 0 0.102779 0 0.126504)
(0.126602 -0.000147424 0 0.101944 0 0.126206)
(0.126339 -0.000157904 0 0.101137 0 0.125911)
(0.126077 -0.000168851 0 0.100358 0 0.125617)
(0.125816 -0.00018014 0 0.0996038 0 0.125326)
(0.125557 -0.000191638 0 0.098875 0 0.125038)
(0.1253 -0.000203197 0 0.0981703 0 0.124752)
(0.125045 -0.000214648 0 0.0974888 0 0.124469)
(0.12479 -0.000225828 0 0.0968283 0 0.124189)
(0.124533 -0.000236612 0 0.0961807 0 0.123906)
(0.132993 -6.90296e-05 0 0.131791 0 0.133009)
(0.132608 -0.000118694 0 0.130196 0 0.132659)
(0.132222 -0.00013968 0 0.128662 0 0.132315)
(0.13185 -0.000142977 0 0.127177 0 0.131982)
(0.131495 -0.000136648 0 0.125735 0 0.13166)
(0.131153 -0.000123582 0 0.124334 0 0.131346)
(0.130824 -0.000106116 0 0.12297 0 0.131039)
(0.130506 -8.66255e-05 0 0.121643 0 0.130738)
(0.130198 -6.6599e-05 0 0.120353 0 0.13044)
(0.129899 -4.67976e-05 0 0.119098 0 0.130145)
(0.129605 -2.77088e-05 0 0.117878 0 0.129852)
(0.129317 -9.67913e-06 0 0.116694 0 0.12956)
(0.129032 7.08482e-06 0 0.115545 0 0.129268)
(0.128751 2.24819e-05 0 0.11443 0 0.128977)
(0.128472 3.64739e-05 0 0.113349 0 0.128686)
(0.128196 4.90624e-05 0 0.112301 0 0.128396)
(0.127922 6.02784e-05 0 0.111286 0 0.128106)
(0.127649 7.0174e-05 0 0.110302 0 0.127816)
(0.127378 7.88158e-05 0 0.109349 0 0.127528)
(0.127109 8.62805e-05 0 0.108427 0 0.127241)
(0.126841 9.26523e-05 0 0.107533 0 0.126954)
(0.126575 9.80207e-05 0 0.106668 0 0.12667)
(0.126311 0.00010248 0 0.10583 0 0.126387)
(0.126049 0.000106128 0 0.105019 0 0.126106)
(0.125789 0.000109067 0 0.104234 0 0.125827)
(0.125531 0.000111402 0 0.103474 0 0.125551)
(0.125275 0.000113245 0 0.102738 0 0.125277)
(0.125021 0.000114714 0 0.102026 0 0.125006)
(0.12477 0.000115934 0 0.101336 0 0.124737)
(0.124521 0.000117042 0 0.100668 0 0.124472)
(0.124274 0.000118195 0 0.100021 0 0.12421)
(0.12403 0.000119558 0 0.0993933 0 0.12395)
(0.123783 0.00012138 0 0.0987759 0 0.123689)
(0.132951 -5.82053e-05 0 0.131876 0 0.132965)
(0.132525 -0.000103079 0 0.130367 0 0.132569)
(0.132097 -0.000124984 0 0.128922 0 0.13218)
(0.131679 -0.000130302 0 0.127527 0 0.131802)
(0.131275 -0.000125146 0 0.126178 0 0.131436)
(0.130884 -0.000112272 0 0.12487 0 0.13108)
(0.130507 -9.38104e-05 0 0.123601 0 0.130734)
(0.130142 -7.19604e-05 0 0.122368 0 0.130397)
(0.129789 -4.83189e-05 0 0.121171 0 0.130068)
(0.129447 -2.38651e-05 0 0.120007 0 0.129746)
(0.129115 7.23801e-07 0 0.118877 0 0.129429)
(0.128791 2.49451e-05 0 0.117778 0 0.129118)
(0.128475 4.84551e-05 0 0.116712 0 0.128811)
(0.128165 7.10372e-05 0 0.115677 0 0.128508)
(0.127862 9.25593e-05 0 0.114672 0 0.128209)
(0.127564 0.000112949 0 0.113696 0 0.127913)
(0.127271 0.000132177 0 0.11275 0 0.12762)
(0.126983 0.000150249 0 0.111832 0 0.12733)
(0.126699 0.000167194 0 0.110942 0 0.127044)
(0.126419 0.00018306 0 0.110078 0 0.12676)
(0.126143 0.000197908 0 0.109241 0 0.126479)
(0.125871 0.000211809 0 0.108429 0 0.126201)
(0.125602 0.000224842 0 0.107642 0 0.125927)
(0.125336 0.000237091 0 0.106878 0 0.125655)
(0.125074 0.000248649 0 0.106138 0 0.125386)
(0.124816 0.000259611 0 0.105421 0 0.125121)
(0.124561 0.000270079 0 0.104726 0 0.124859)
(0.124309 0.000280159 0 0.104052 0 0.1246)
(0.124061 0.000289966 0 0.103398 0 0.124345)
(0.123815 0.000299623 0 0.102764 0 0.124093)
(0.123574 0.000309267 0 0.102149 0 0.123844)
(0.123335 0.000319058 0 0.101552 0 0.123598)
(0.123094 0.000329314 0 0.100963 0 0.123351)
(0.132917 -4.96893e-05 0 0.131946 0 0.132928)
(0.132457 -9.02747e-05 0 0.130509 0 0.132494)
(0.131996 -0.000112766 0 0.129133 0 0.132068)
(0.131544 -0.000120597 0 0.12781 0 0.131654)
(0.131103 -0.00011819 0 0.126533 0 0.131252)
(0.130676 -0.000107928 0 0.125298 0 0.130861)
(0.130261 -9.16235e-05 0 0.124103 0 0.130482)
(0.129859 -7.11508e-05 0 0.122943 0 0.130113)
(0.12947 -4.8004e-05 0 0.121818 0 0.129755)
(0.129093 -2.31958e-05 0 0.120726 0 0.129405)
(0.128728 2.53524e-06 0 0.119666 0 0.129065)
(0.128373 2.86161e-05 0 0.118636 0 0.128732)
(0.128028 5.46217e-05 0 0.117636 0 0.128406)
(0.127691 8.0252e-05 0 0.116666 0 0.128087)
(0.127364 0.000105299 0 0.115723 0 0.127774)
(0.127044 0.00012962 0 0.114808 0 0.127467)
(0.126731 0.000153129 0 0.11392 0 0.127165)
(0.126425 0.000175778 0 0.113058 0 0.126868)
(0.126125 0.000197551 0 0.112221 0 0.126577)
(0.125832 0.000218457 0 0.111409 0 0.12629)
(0.125544 0.000238525 0 0.11062 0 0.126008)
(0.125262 0.000257795 0 0.109855 0 0.12573)
(0.124984 0.000276323 0 0.109113 0 0.125456)
(0.124712 0.00029417 0 0.108392 0 0.125187)
(0.124445 0.000311407 0 0.107693 0 0.124922)
(0.124182 0.000328111 0 0.107015 0 0.124661)
(0.123924 0.000344366 0 0.106356 0 0.124404)
(0.12367 0.000360261 0 0.105718 0 0.124151)
(0.12342 0.000375892 0 0.105098 0 0.123903)
(0.123175 0.00039136 0 0.104496 0 0.123658)
(0.122934 0.00040678 0 0.103912 0 0.123417)
(0.122697 0.000422293 0 0.103343 0 0.123179)
(0.122459 0.00043827 0 0.102782 0 0.122941)
(0.132888 -4.27631e-05 0 0.132006 0 0.132898)
(0.1324 -7.93109e-05 0 0.130628 0 0.132432)
(0.131913 -0.000101679 0 0.12931 0 0.131975)
(0.131433 -0.000111508 0 0.128045 0 0.131531)
(0.130964 -0.00011189 0 0.126825 0 0.131099)
(0.130508 -0.000104779 0 0.125649 0 0.13068)
(0.130065 -9.16563e-05 0 0.124511 0 0.130272)
(0.129634 -7.40518e-05 0 0.123409 0 0.129876)
(0.129216 -5.32698e-05 0 0.122342 0 0.129492)
(0.128811 -3.02639e-05 0 0.121308 0 0.129118)
(0.128418 -5.75829e-06 0 0.120304 0 0.128754)
(0.128037 1.96665e-05 0 0.119331 0 0.1284)
(0.127667 4.55575e-05 0 0.118386 0 0.128055)
(0.127307 7.15746e-05 0 0.117469 0 0.127718)
(0.126957 9.74645e-05 0 0.116579 0 0.12739)
(0.126616 0.000123041 0 0.115715 0 0.127069)
(0.126284 0.000148172 0 0.114877 0 0.126755)
(0.125961 0.000172769 0 0.114062 0 0.126448)
(0.125645 0.000196776 0 0.113271 0 0.126147)
(0.125337 0.000220168 0 0.112504 0 0.125853)
(0.125036 0.000242939 0 0.111758 0 0.125564)
(0.124742 0.000265102 0 0.111034 0 0.125282)
(0.124454 0.000286684 0 0.110332 0 0.125005)
(0.124172 0.000307724 0 0.109649 0 0.124733)
(0.123897 0.000328269 0 0.108986 0 0.124466)
(0.123627 0.000348376 0 0.108343 0 0.124205)
(0.123363 0.000368108 0 0.107718 0 0.123949)
(0.123104 0.000387535 0 0.107111 0 0.123697)
(0.122851 0.00040673 0 0.106521 0 0.12345)
(0.122602 0.000425772 0 0.105949 0 0.123208)
(0.122359 0.000444751 0 0.105392 0 0.12297)
(0.12212 0.000463789 0 0.10485 0 0.122735)
(0.121881 0.00048326 0 0.104314 0 0.122501)
(0.132863 -3.69984e-05 0 0.132057 0 0.132872)
(0.132351 -6.97374e-05 0 0.13073 0 0.132378)
(0.131841 -9.13466e-05 0 0.129461 0 0.131896)
(0.131339 -0.000102417 0 0.128243 0 0.131427)
(0.130848 -0.000105051 0 0.127071 0 0.13097)
(0.130369 -0.000100802 0 0.125942 0 0.130527)
(0.129903 -9.08768e-05 0 0.124851 0 0.130095)
(0.12945 -7.65075e-05 0 0.123796 0 0.129677)
(0.129009 -5.87973e-05 0 0.122775 0 0.12927)
(0.128581 -3.85982e-05 0 0.121787 0 0.128874)
(0.128166 -1.65741e-05 0 0.120829 0 0.12849)
(0.127763 6.73292e-06 0 0.1199 0 0.128117)
(0.127372 3.0887e-05 0 0.119 0 0.127753)
(0.126991 5.55477e-05 0 0.118126 0 0.127399)
(0.126622 8.04514e-05 0 0.117279 0 0.127055)
(0.126263 0.000105395 0 0.116456 0 0.126719)
(0.125913 0.000130225 0 0.115658 0 0.126392)
(0.125573 0.00015483 0 0.114883 0 0.126073)
(0.125242 0.00017913 0 0.11413 0 0.125761)
(0.124919 0.000203074 0 0.1134 0 0.125457)
(0.124605 0.000226634 0 0.11269 0 0.12516)
(0.124299 0.000249797 0 0.112001 0 0.12487)
(0.123999 0.00027257 0 0.111331 0 0.124586)
(0.123708 0.000294969 0 0.110681 0 0.124308)
(0.123423 0.00031702 0 0.11005 0 0.124037)
(0.123145 0.000338759 0 0.109436 0 0.123772)
(0.122873 0.00036023 0 0.10884 0 0.123512)
(0.122607 0.000381479 0 0.108261 0 0.123258)
(0.122348 0.00040256 0 0.107699 0 0.123009)
(0.122094 0.000423529 0 0.107152 0 0.122765)
(0.121846 0.000444452 0 0.10662 0 0.122527)
(0.121603 0.000465429 0 0.106101 0 0.122293)
(0.121361 0.000486848 0 0.105589 0 0.122059)
(0.132842 -3.21126e-05 0 0.132101 0 0.132849)
(0.132309 -6.1291e-05 0 0.130818 0 0.132333)
(0.13178 -8.16874e-05 0 0.129591 0 0.131828)
(0.131259 -9.33074e-05 0 0.128413 0 0.131337)
(0.130749 -9.75369e-05 0 0.127281 0 0.13086)
(0.130252 -9.55855e-05 0 0.126191 0 0.130396)
(0.129767 -8.84305e-05 0 0.125139 0 0.129944)
(0.129295 -7.70606e-05 0 0.124123 0 0.129506)
(0.128836 -6.23924e-05 0 0.12314 0 0.12908)
(0.12839 -4.51654e-05 0 0.122189 0 0.128667)
(0.127957 -2.5969e-05 0 0.121269 0 0.128265)
(0.127536 -5.29044e-06 0 0.120377 0 0.127874)
(0.127127 1.647e-05 0 0.119513 0 0.127494)
(0.12673 3.89912e-05 0 0.118675 0 0.127125)
(0.126344 6.20178e-05 0 0.117862 0 0.126766)
(0.125968 8.53474e-05 0 0.117074 0 0.126416)
(0.125604 0.000108822 0 0.116309 0 0.126076)
(0.125249 0.000132319 0 0.115567 0 0.125744)
(0.124904 0.000155749 0 0.114847 0 0.125421)
(0.124568 0.000179046 0 0.114147 0 0.125106)
(0.124241 0.000202166 0 0.113468 0 0.1248)
(0.123923 0.000225081 0 0.112808 0 0.1245)
(0.123613 0.00024778 0 0.112168 0 0.124209)
(0.123311 0.000270262 0 0.111545 0 0.123924)
(0.123017 0.000292537 0 0.110941 0 0.123646)
(0.12273 0.000314624 0 0.110353 0 0.123374)
(0.12245 0.000336547 0 0.109783 0 0.123109)
(0.122177 0.000358337 0 0.109228 0 0.12285)
(0.12191 0.000380025 0 0.108688 0 0.122598)
(0.12165 0.00040165 0 0.108164 0 0.122351)
(0.121396 0.000423253 0 0.107654 0 0.122109)
(0.121148 0.000444916 0 0.107156 0 0.121872)
(0.120901 0.000467004 0 0.106664 0 0.121637)
(0.132823 -2.79065e-05 0 0.13214 0 0.132829)
(0.132272 -5.3782e-05 0 0.130895 0 0.132293)
(0.131726 -7.26819e-05 0 0.129704 0 0.131769)
(0.131189 -8.43068e-05 0 0.128561 0 0.13126)
(0.130664 -8.95377e-05 0 0.127464 0 0.130764)
(0.130151 -8.92942e-05 0 0.126406 0 0.130282)
(0.12965 -8.43643e-05 0 0.125387 0 0.129814)
(0.129163 -7.55441e-05 0 0.124403 0 0.129359)
(0.128689 -6.35913e-05 0 0.123452 0 0.128917)
(0.128228 -4.91406e-05 0 0.122533 0 0.128488)
(0.127779 -3.27091e-05 0 0.121643 0 0.12807)
(0.127344 -1.47274e-05 0 0.120782 0 0.127665)
(0.12692 4.446e-06 0 0.119947 0 0.127271)
(0.126509 2.45187e-05 0 0.119139 0 0.126888)
(0.126109 4.52547e-05 0 0.118355 0 0.126515)
(0.12572 6.64637e-05 0 0.117595 0 0.126153)
(0.125343 8.79939e-05 0 0.116858 0 0.1258)
(0.124975 0.000109726 0 0.116142 0 0.125457)
(0.124618 0.000131567 0 0.115448 0 0.125123)
(0.124271 0.000153447 0 0.114775 0 0.124798)
(0.123933 0.000175315 0 0.11412 0 0.124482)
(0.123604 0.000197137 0 0.113485 0 0.124173)
(0.123284 0.00021889 0 0.112868 0 0.123873)
(0.122972 0.000240563 0 0.112269 0 0.12358)
(0.122668 0.000262155 0 0.111687 0 0.123295)
(0.122373 0.000283672 0 0.111121 0 0.123016)
(0.122085 0.000305123 0 0.110571 0 0.122745)
(0.121804 0.000326526 0 0.110037 0 0.12248)
(0.12153 0.000347897 0 0.109518 0 0.122222)
(0.121264 0.000369256 0 0.109012 0 0.12197)
(0.121004 0.000390631 0 0.108521 0 0.121724)
(0.12075 0.000412088 0 0.108041 0 0.121483)
(0.120498 0.00043398 0 0.107567 0 0.121244)
(0.132807 -2.4234e-05 0 0.132174 0 0.132812)
(0.132239 -4.70576e-05 0 0.130962 0 0.132258)
(0.131678 -6.43042e-05 0 0.129803 0 0.131717)
(0.131128 -7.55359e-05 0 0.128692 0 0.131191)
(0.130589 -8.12848e-05 0 0.127623 0 0.13068)
(0.130062 -8.22333e-05 0 0.126595 0 0.130183)
(0.129549 -7.90107e-05 0 0.125604 0 0.1297)
(0.129048 -7.22587e-05 0 0.124647 0 0.129231)
(0.128561 -6.26005e-05 0 0.123723 0 0.128775)
(0.128087 -5.05761e-05 0 0.122831 0 0.128332)
(0.127627 -3.66343e-05 0 0.121967 0 0.127902)
(0.127179 -2.11518e-05 0 0.121131 0 0.127483)
(0.126743 -4.44521e-06 0 0.120322 0 0.127077)
(0.12632 1.32241e-05 0 0.119538 0 0.126681)
(0.125909 3.16424e-05 0 0.118778 0 0.126297)
(0.125509 5.06358e-05 0 0.118042 0 0.125924)
(0.12512 7.00633e-05 0 0.117327 0 0.12556)
(0.124742 8.98123e-05 0 0.116635 0 0.125207)
(0.124374 0.000109793 0 0.115963 0 0.124863)
(0.124017 0.000129937 0 0.115311 0 0.124529)
(0.123669 0.000150191 0 0.114677 0 0.124203)
(0.123331 0.000170516 0 0.114063 0 0.123886)
(0.123002 0.000190885 0 0.113466 0 0.123577)
(0.122681 0.000211281 0 0.112886 0 0.123277)
(0.12237 0.000231693 0 0.112323 0 0.122984)
(0.122066 0.000252118 0 0.111776 0 0.122699)
(0.121771 0.000272558 0 0.111244 0 0.122421)
(0.121483 0.000293015 0 0.110727 0 0.12215)
(0.121203 0.000313498 0 0.110225 0 0.121886)
(0.12093 0.000334013 0 0.109736 0 0.121628)
(0.120664 0.000354573 0 0.10926 0 0.121377)
(0.120405 0.00037523 0 0.108796 0 0.121132)
(0.120147 0.000396307 0 0.108337 0 0.120888)
(0.132792 -2.09851e-05 0 0.132204 0 0.132797)
(0.13221 -4.09896e-05 0 0.131023 0 0.132227)
(0.131636 -5.65118e-05 0 0.129892 0 0.131671)
(0.131073 -6.70714e-05 0 0.128807 0 0.131131)
(0.130522 -7.29648e-05 0 0.127764 0 0.130606)
(0.129984 -7.4685e-05 0 0.126761 0 0.130096)
(0.129459 -7.27273e-05 0 0.125794 0 0.1296)
(0.128947 -6.76069e-05 0 0.124862 0 0.129118)
(0.128449 -5.98341e-05 0 0.123961 0 0.12865)
(0.127965 -4.98646e-05 0 0.123091 0 0.128195)
(0.127493 -3.80848e-05 0 0.12225 0 0.127753)
(0.127035 -2.4823e-05 0 0.121436 0 0.127324)
(0.126589 -1.03568e-05 0 0.120648 0 0.126906)
(0.126156 5.08185e-06 0 0.119885 0 0.126501)
(0.125735 2.13017e-05 0 0.119146 0 0.126106)
(0.125325 3.81456e-05 0 0.118429 0 0.125723)
(0.124927 5.54855e-05 0 0.117734 0 0.12535)
(0.12454 7.32174e-05 0 0.117061 0 0.124988)
(0.124164 9.1258e-05 0 0.116407 0 0.124635)
(0.123798 0.000109542 0 0.115773 0 0.124292)
(0.123442 0.000128016 0 0.115158 0 0.123958)
(0.123095 0.000146644 0 0.11456 0 0.123633)
(0.122758 0.000165393 0 0.11398 0 0.123317)
(0.122431 0.000184245 0 0.113416 0 0.123009)
(0.122112 0.000203185 0 0.112869 0 0.122709)
(0.121801 0.000222202 0 0.112337 0 0.122417)
(0.121499 0.000241292 0 0.11182 0 0.122133)
(0.121205 0.000260452 0 0.111318 0 0.121856)
(0.120919 0.000279679 0 0.110829 0 0.121586)
(0.12064 0.000298973 0 0.110354 0 0.121324)
(0.120369 0.000318337 0 0.109892 0 0.121067)
(0.120104 0.000337814 0 0.109441 0 0.120817)
(0.119841 0.000357708 0 0.108994 0 0.120568)
(0.132779 -1.80748e-05 0 0.13223 0 0.132783)
(0.132184 -3.54691e-05 0 0.131076 0 0.132199)
(0.131598 -4.92499e-05 0 0.129971 0 0.13163)
(0.131024 -5.89479e-05 0 0.12891 0 0.131077)
(0.130462 -6.47048e-05 0 0.12789 0 0.13054)
(0.129914 -6.68655e-05 0 0.126909 0 0.130018)
(0.129379 -6.58126e-05 0 0.125964 0 0.129511)
(0.128858 -6.1956e-05 0 0.125052 0 0.129018)
(0.12835 -5.57104e-05 0 0.124172 0 0.128539)
(0.127856 -4.74559e-05 0 0.123322 0 0.128074)
(0.127376 -3.75218e-05 0 0.1225 0 0.127622)
(0.126908 -2.61912e-05 0 0.121705 0 0.127183)
(0.126454 -1.37057e-05 0 0.120935 0 0.126756)
(0.126012 -2.689e-07 0 0.12019 0 0.126341)
(0.125582 1.39498e-05 0 0.119469 0 0.125938)
(0.125165 2.88102e-05 0 0.118769 0 0.125546)
(0.124759 4.41968e-05 0 0.118091 0 0.125165)
(0.124364 6.00155e-05 0 0.117434 0 0.124794)
(0.12398 7.61896e-05 0 0.116796 0 0.124434)
(0.123607 9.26578e-05 0 0.116177 0 0.124083)
(0.123243 0.000109371 0 0.115577 0 0.123742)
(0.12289 0.000126291 0 0.114994 0 0.12341)
(0.122547 0.000143388 0 0.114428 0 0.123087)
(0.122213 0.000160639 0 0.113878 0 0.122773)
(0.121887 0.000178027 0 0.113344 0 0.122467)
(0.121571 0.000195539 0 0.112825 0 0.122169)
(0.121263 0.000213163 0 0.112321 0 0.121879)
(0.120964 0.000230893 0 0.111831 0 0.121596)
(0.120672 0.000248719 0 0.111355 0 0.121321)
(0.120388 0.000266635 0 0.110891 0 0.121053)
(0.120112 0.000284638 0 0.11044 0 0.120792)
(0.119842 0.000302761 0 0.11 0 0.120537)
(0.119575 0.000321279 0 0.109564 0 0.120284)
(0.132767 -1.54365e-05 0 0.132254 0 0.132771)
(0.13216 -3.04034e-05 0 0.131125 0 0.132174)
(0.131564 -4.24577e-05 0 0.130042 0 0.131594)
(0.13098 -5.11692e-05 0 0.129002 0 0.131029)
(0.130409 -5.65815e-05 0 0.128003 0 0.130481)
(0.129851 -5.89262e-05 0 0.127042 0 0.129948)
(0.129307 -5.84917e-05 0 0.126116 0 0.129431)
(0.128778 -5.55994e-05 0 0.125223 0 0.128928)
(0.128262 -5.05819e-05 0 0.124361 0 0.12844)
(0.127759 -4.37516e-05 0 0.123528 0 0.127966)
(0.127271 -3.53855e-05 0 0.122723 0 0.127505)
(0.126796 -2.57244e-05 0 0.121944 0 0.127057)
(0.126334 -1.49764e-05 0 0.121191 0 0.126622)
(0.125884 -3.31817e-06 0 0.120461 0 0.126199)
(0.125448 9.10142e-06 0 0.119755 0 0.125788)
(0.125023 2.21583e-05 0 0.11907 0 0.125389)
(0.12461 3.57495e-05 0 0.118406 0 0.125)
(0.124209 4.97899e-05 0 0.117763 0 0.124623)
(0.123818 6.421e-05 0 0.117139 0 0.124255)
(0.123439 7.8953e-05 0 0.116533 0 0.123898)
(0.123069 9.39731e-05 0 0.115945 0 0.123551)