/*--------------------------------*- C++ -*----------------------------------*\
| =========                 |                                                 |
| \\      /  F ield         | OpenFOAM: The Open Source CFD Toolbox           |
|  \\    /   O peration     | Version:  4.1                                   |
|   \\  /    A nd           | Web:      www.OpenFOAM.org                      |
|    \\/     M anipulation  |                                                 |
\*---------------------------------------------------------------------------*/
FoamFile
{
    version     2.0;
    format      ascii;
    class       volVectorField;
    location    "800";
    object      U;
}
// * * * * * * * * * * * * * * * * * * * * * * * * * * * * * * * * * * * * * //

dimensions      [0 1 -1 0 0 0 0];

internalField   nonuniform List<vector> 
6820
(
(7.2813 0.0192603 0)
(7.18936 0.0329224 0)
(7.0895 0.036069 0)
(6.98491 0.037473 0)
(6.88226 0.0387346 0)
(6.7831 0.0397557 0)
(6.68718 0.0405159 0)
(6.59472 0.0410298 0)
(6.50618 0.0412715 0)
(6.42176 0.0412188 0)
(6.34143 0.0408784 0)
(6.26512 0.0402772 0)
(6.19273 0.039451 0)
(6.12411 0.0384372 0)
(6.05912 0.0372723 0)
(5.99758 0.0359905 0)
(5.93933 0.0346218 0)
(5.88422 0.0331926 0)
(5.83209 0.0317249 0)
(5.78278 0.030237 0)
(5.73615 0.0287441 0)
(5.69208 0.0272581 0)
(5.65043 0.0257884 0)
(5.61109 0.0243422 0)
(5.57394 0.022925 0)
(5.53889 0.021541 0)
(5.50582 0.0201922 0)
(5.47466 0.0188831 0)
(5.44528 0.0176054 0)
(5.41778 0.0163902 0)
(5.39142 0.0151715 0)
(5.36893 0.0139173 0)
(5.34236 0.0139976 0)
(7.35129 0.0206776 0)
(7.39587 0.0322614 0)
(7.42787 0.0326356 0)
(7.44987 0.0332018 0)
(7.46739 0.03436 0)
(7.48118 0.0351446 0)
(7.49064 0.0355191 0)
(7.49593 0.0356544 0)
(7.49763 0.0356106 0)
(7.49622 0.0354084 0)
(7.49207 0.0350815 0)
(7.48557 0.0346676 0)
(7.47707 0.0341964 0)
(7.46691 0.033688 0)
(7.45537 0.0331565 0)
(7.44272 0.0326116 0)
(7.42918 0.0320598 0)
(7.41493 0.0315051 0)
(7.40014 0.0309497 0)
(7.38495 0.0303947 0)
(7.36948 0.0298405 0)
(7.35384 0.029287 0)
(7.33811 0.0287339 0)
(7.32237 0.0281805 0)
(7.30667 0.0276262 0)
(7.29108 0.0270703 0)
(7.27563 0.0265109 0)
(7.26037 0.0259515 0)
(7.24532 0.0253749 0)
(7.23053 0.0248404 0)
(7.21605 0.0241366 0)
(7.20163 0.0238907 0)
(7.18866 0.0220143 0)
(7.33498 0.0124973 0)
(7.34477 0.0201473 0)
(7.35181 0.0214421 0)
(7.35496 0.023312 0)
(7.35732 0.0252258 0)
(7.35979 0.0263818 0)
(7.362 0.027019 0)
(7.36383 0.0274555 0)
(7.36547 0.0277921 0)
(7.36696 0.0280468 0)
(7.36826 0.0282378 0)
(7.36935 0.0283831 0)
(7.37019 0.0284914 0)
(7.37079 0.0285648 0)
(7.37113 0.0286031 0)
(7.3712 0.0286063 0)
(7.371 0.0285745 0)
(7.37054 0.0285077 0)
(7.36981 0.0284064 0)
(7.36883 0.0282714 0)
(7.3676 0.0281038 0)
(7.36614 0.0279046 0)
(7.36446 0.0276753 0)
(7.36257 0.0274172 0)
(7.36049 0.0271315 0)
(7.35824 0.0268195 0)
(7.35583 0.0264817 0)
(7.35327 0.02612 0)
(7.35058 0.0257327 0)
(7.34779 0.0253223 0)
(7.34489 0.0248876 0)
(7.3419 0.0243764 0)
(7.33894 0.0239486 0)
(7.3347 0.00985767 0)
(7.34304 0.0202392 0)
(7.35045 0.024738 0)
(7.35468 0.0280677 0)
(7.35778 0.0307886 0)
(7.36077 0.0326926 0)
(7.36343 0.0340312 0)
(7.36564 0.0350519 0)
(7.36756 0.0358232 0)
(7.3693 0.036355 0)
(7.37087 0.0366711 0)
(7.37228 0.036805 0)
(7.37356 0.0367871 0)
(7.37473 0.0366428 0)
(7.37579 0.0363944 0)
(7.37676 0.0360622 0)
(7.37765 0.0356634 0)
(7.37846 0.0352123 0)
(7.37919 0.0347207 0)
(7.37986 0.034198 0)
(7.38047 0.0336517 0)
(7.38102 0.0330875 0)
(7.38152 0.0325099 0)
(7.38197 0.0319221 0)
(7.38237 0.0313261 0)
(7.38273 0.0307236 0)
(7.38306 0.0301146 0)
(7.38336 0.0295005 0)
(7.38363 0.0288774 0)
(7.38388 0.0282518 0)
(7.38412 0.0276055 0)
(7.38435 0.026966 0)
(7.38457 0.0263309 0)
(7.33417 0.00784835 0)
(7.3405 0.0172867 0)
(7.34711 0.0212461 0)
(7.35171 0.023742 0)
(7.35548 0.0258498 0)
(7.3592 0.0273806 0)
(7.36268 0.0284143 0)
(7.36579 0.0291472 0)
(7.36865 0.0296703 0)
(7.37132 0.0300172 0)
(7.37384 0.0302227 0)
(7.3762 0.0303229 0)
(7.37843 0.0303448 0)
(7.38054 0.0303066 0)
(7.38254 0.0302211 0)
(7.38443 0.0300981 0)
(7.38624 0.0299442 0)
(7.38796 0.0297642 0)
(7.3896 0.0295612 0)
(7.39118 0.029337 0)
(7.39269 0.0290929 0)
(7.39414 0.0288297 0)
(7.39554 0.0285476 0)
(7.3969 0.0282465 0)
(7.39821 0.0279261 0)
(7.39949 0.0275859 0)
(7.40074 0.0272248 0)
(7.40197 0.0268422 0)
(7.40317 0.0264359 0)
(7.40437 0.026006 0)
(7.40556 0.0255489 0)
(7.40674 0.0250681 0)
(7.40794 0.0245761 0)
(7.33381 0.00630821 0)
(7.33861 0.0150537 0)
(7.34442 0.0196757 0)
(7.34904 0.0229119 0)
(7.35294 0.0256596 0)
(7.35675 0.0277512 0)
(7.36037 0.0292584 0)
(7.36368 0.0303941 0)
(7.36676 0.0312707 0)
(7.36969 0.0319284 0)
(7.37246 0.0323993 0)
(7.3751 0.0327154 0)
(7.37761 0.0329018 0)
(7.38001 0.0329773 0)
(7.3823 0.0329575 0)
(7.3845 0.0328559 0)
(7.38662 0.0326843 0)
(7.38865 0.0324526 0)
(7.39062 0.0321692 0)
(7.39253 0.0318413 0)
(7.39437 0.0314747 0)
(7.39617 0.0310744 0)
(7.39792 0.0306441 0)
(7.39963 0.0301871 0)
(7.4013 0.0297054 0)
(7.40294 0.0292006 0)
(7.40455 0.0286735 0)
(7.40615 0.0281242 0)
(7.40772 0.0275521 0)
(7.40929 0.0269566 0)
(7.41084 0.0263361 0)
(7.4124 0.0256884 0)
(7.41398 0.0250223 0)
(7.33356 0.00519299 0)
(7.33722 0.0131531 0)
(7.34215 0.0178519 0)
(7.34646 0.0210126 0)
(7.35023 0.0235063 0)
(7.3539 0.0253487 0)
(7.35745 0.0266389 0)
(7.36077 0.0275709 0)
(7.36389 0.0282527 0)
(7.36687 0.0287277 0)
(7.36972 0.029031 0)
(7.37245 0.0291978 0)
(7.37506 0.0292565 0)
(7.37757 0.0292284 0)
(7.37999 0.0291304 0)
(7.38233 0.0289761 0)
(7.38458 0.0287762 0)
(7.38677 0.0285388 0)
(7.38889 0.0282703 0)
(7.39096 0.0279751 0)
(7.39297 0.0276565 0)
(7.39493 0.0273167 0)
(7.39685 0.0269571 0)
(7.39873 0.0265783 0)
(7.40058 0.0261803 0)
(7.40239 0.0257625 0)
(7.40418 0.0253239 0)
(7.40594 0.024863 0)
(7.40769 0.0243775 0)
(7.40942 0.0238649 0)
(7.41115 0.0233222 0)
(7.41287 0.022743 0)
(7.4146 0.0221281 0)
(7.33341 0.00435418 0)
(7.33622 0.0115133 0)
(7.34039 0.0161816 0)
(7.34439 0.0194346 0)
(7.34802 0.022042 0)
(7.35158 0.0240785 0)
(7.35506 0.025603 0)
(7.35836 0.0267632 0)
(7.36149 0.0276584 0)
(7.36449 0.0283354 0)
(7.36736 0.0288295 0)
(7.37013 0.0291744 0)
(7.37278 0.0293964 0)
(7.37534 0.0295151 0)
(7.37782 0.0295458 0)
(7.3802 0.029501 0)
(7.38252 0.029391 0)
(7.38476 0.029224 0)
(7.38694 0.0290069 0)
(7.38906 0.028745 0)
(7.39113 0.0284429 0)
(7.39315 0.028104 0)
(7.39513 0.0277311 0)
(7.39707 0.0273263 0)
(7.39897 0.0268909 0)
(7.40084 0.0264257 0)
(7.40268 0.0259307 0)
(7.40451 0.0254053 0)
(7.40631 0.0248484 0)
(7.40809 0.0242577 0)
(7.40986 0.0236305 0)
(7.41163 0.0229607 0)
(7.41339 0.0222463 0)
(7.3333 0.00371133 0)
(7.3355 0.0101277 0)
(7.33902 0.0146565 0)
(7.34267 0.017895 0)
(7.34609 0.0204497 0)
(7.34946 0.0224315 0)
(7.35279 0.0238997 0)
(7.356 0.0249875 0)
(7.35906 0.0257981 0)
(7.36201 0.0263856 0)
(7.36485 0.0267888 0)
(7.3676 0.0270421 0)
(7.37025 0.0271735 0)
(7.37281 0.0272045 0)
(7.37529 0.027152 0)
(7.3777 0.02703 0)
(7.38003 0.0268499 0)
(7.3823 0.0266208 0)
(7.38452 0.0263498 0)
(7.38667 0.0260427 0)
(7.38878 0.0257036 0)
(7.39084 0.0253359 0)
(7.39285 0.0249416 0)
(7.39483 0.0245222 0)
(7.39678 0.0240784 0)
(7.39869 0.0236099 0)
(7.40057 0.0231161 0)
(7.40243 0.0225956 0)
(7.40426 0.0220462 0)
(7.40608 0.021465 0)
(7.40788 0.0208482 0)
(7.40966 0.020189 0)
(7.41144 0.0194845 0)
(7.33324 0.00320681 0)
(7.33498 0.00894644 0)
(7.33796 0.0132558 0)
(7.34125 0.0164319 0)
(7.34446 0.0189422 0)
(7.34766 0.0209252 0)
(7.35085 0.0224416 0)
(7.35396 0.0236002 0)
(7.35696 0.0244922 0)
(7.35986 0.0251686 0)
(7.36268 0.0256652 0)
(7.36541 0.0260137 0)
(7.36805 0.02624 0)
(7.37061 0.026364 0)
(7.37309 0.0264013 0)
(7.3755 0.0263646 0)
(7.37784 0.0262642 0)
(7.38012 0.0261081 0)
(7.38234 0.0259028 0)
(7.38451 0.0256534 0)
(7.38663 0.0253639 0)
(7.3887 0.0250373 0)
(7.39072 0.0246758 0)
(7.39271 0.0242808 0)
(7.39466 0.0238533 0)
(7.39658 0.0233934 0)
(7.39846 0.0229008 0)
(7.40032 0.0223745 0)
(7.40215 0.0218128 0)
(7.40396 0.0212133 0)
(7.40574 0.0205728 0)
(7.40751 0.0198859 0)
(7.40925 0.0191507 0)
(7.33319 0.00280022 0)
(7.3346 0.00793337 0)
(7.33714 0.0119804 0)
(7.3401 0.0150547 0)
(7.34309 0.0174947 0)
(7.3461 0.0194365 0)
(7.34913 0.0209358 0)
(7.35211 0.0220803 0)
(7.35502 0.0229516 0)
(7.35784 0.0236017 0)
(7.36059 0.0240674 0)
(7.36327 0.0243806 0)
(7.36587 0.0245676 0)
(7.36839 0.0246492 0)
(7.37085 0.0246416 0)
(7.37324 0.0245585 0)
(7.37557 0.0244106 0)
(7.37783 0.024207 0)
(7.38004 0.0239546 0)
(7.3822 0.0236594 0)
(7.38431 0.0233256 0)
(7.38638 0.0229567 0)
(7.3884 0.0225553 0)
(7.39038 0.022123 0)
(7.39233 0.0216607 0)
(7.39424 0.0211688 0)
(7.39612 0.0206469 0)
(7.39797 0.020094 0)
(7.39979 0.0195084 0)
(7.40159 0.0188879 0)
(7.40336 0.0182293 0)
(7.4051 0.0175282 0)
(7.40681 0.0167831 0)
(7.33316 0.00246429 0)
(7.33432 0.00705689 0)
(7.3365 0.0108184 0)
(7.33915 0.0137569 0)
(7.34192 0.0161067 0)
(7.34475 0.0179927 0)
(7.34762 0.0194706 0)
(7.35048 0.0206141 0)
(7.35329 0.021496 0)
(7.35604 0.0221663 0)
(7.35873 0.0226603 0)
(7.36136 0.0230077 0)
(7.36392 0.0232331 0)
(7.36642 0.023356 0)
(7.36885 0.0233919 0)
(7.37122 0.0233531 0)
(7.37353 0.0232499 0)
(7.37578 0.0230904 0)
(7.37798 0.0228811 0)
(7.38013 0.0226269 0)
(7.38223 0.022332 0)
(7.38429 0.0219992 0)
(7.3863 0.0216308 0)
(7.38828 0.0212281 0)
(7.39021 0.0207919 0)
(7.39211 0.0203225 0)
(7.39398 0.0198195 0)
(7.39581 0.0192821 0)
(7.39761 0.0187088 0)
(7.39937 0.0180978 0)
(7.40111 0.0174469 0)
(7.40281 0.0167523 0)
(7.40448 0.0160141 0)
(7.33314 0.00218026 0)
(7.33411 0.00629055 0)
(7.33599 0.00975827 0)
(7.33838 0.0125368 0)
(7.34093 0.0147806 0)
(7.34358 0.0165957 0)
(7.3463 0.0180344 0)
(7.34903 0.0191566 0)
(7.35174 0.0200242 0)
(7.3544 0.0206832 0)
(7.35702 0.0211671 0)
(7.35958 0.0215037 0)
(7.36209 0.0217167 0)
(7.36454 0.021825 0)
(7.36693 0.0218438 0)
(7.36926 0.0217857 0)
(7.37154 0.0216609 0)
(7.37376 0.0214776 0)
(7.37594 0.0212427 0)
(7.37806 0.0209614 0)
(7.38014 0.0206382 0)
(7.38218 0.0202762 0)
(7.38417 0.019878 0)
(7.38612 0.0194453 0)
(7.38803 0.0189793 0)
(7.3899 0.0184805 0)
(7.39174 0.017949 0)
(7.39355 0.0173842 0)
(7.39532 0.0167852 0)
(7.39706 0.0161508 0)
(7.39876 0.0154792 0)
(7.40042 0.0147682 0)
(7.40205 0.0140184 0)
(7.33312 0.00193511 0)
(7.33395 0.0056131 0)
(7.33559 0.0087883 0)
(7.33773 0.0113897 0)
(7.34009 0.0135132 0)
(7.34258 0.0152442 0)
(7.34515 0.01663 0)
(7.34775 0.0177207 0)
(7.35035 0.0185693 0)
(7.35293 0.0192183 0)
(7.35547 0.0196994 0)
(7.35797 0.0200391 0)
(7.36043 0.0202595 0)
(7.36283 0.0203787 0)
(7.36518 0.0204113 0)
(7.36748 0.0203692 0)
(7.36973 0.0202621 0)
(7.37192 0.0200978 0)
(7.37407 0.0198827 0)
(7.37618 0.0196219 0)
(7.37823 0.0193192 0)
(7.38024 0.0189777 0)
(7.38221 0.0185998 0)
(7.38414 0.0181869 0)
(7.38603 0.0177401 0)
(7.38789 0.0172599 0)
(7.3897 0.0167464 0)
(7.39148 0.0161991 0)
(7.39322 0.0156174 0)
(7.39492 0.0150003 0)
(7.39659 0.0143469 0)
(7.39821 0.0136553 0)
(7.39979 0.0129271 0)
(7.33311 0.00171967 0)
(7.33382 0.0050075 0)
(7.33526 0.00789703 0)
(7.3372 0.0103102 0)
(7.33938 0.012302 0)
(7.34171 0.0139378 0)
(7.34413 0.0152591 0)
(7.34662 0.0163075 0)
(7.34911 0.0171273 0)
(7.3516 0.0177564 0)
(7.35407 0.0182237 0)
(7.3565 0.0185534 0)
(7.35889 0.0187659 0)
(7.36124 0.0188781 0)
(7.36355 0.0189038 0)
(7.3658 0.0188543 0)
(7.36801 0.0187389 0)
(7.37018 0.0185652 0)
(7.37229 0.0183394 0)
(7.37436 0.0180665 0)
(7.37639 0.0177505 0)
(7.37837 0.0173946 0)
(7.38031 0.0170011 0)
(7.38221 0.016572 0)
(7.38407 0.0161084 0)
(7.38588 0.0156111 0)
(7.38766 0.0150805 0)
(7.38941 0.0145168 0)
(7.39111 0.0139197 0)
(7.39277 0.0132889 0)
(7.3944 0.0126241 0)
(7.39598 0.0119243 0)
(7.39752 0.0111919 0)
(7.3331 0.00152733 0)
(7.33372 0.00446019 0)
(7.335 0.00707383 0)
(7.33676 0.00929231 0)
(7.33877 0.0111434 0)
(7.34095 0.0126747 0)
(7.34325 0.0139212 0)
(7.34561 0.0149173 0)
(7.34801 0.0157002 0)
(7.35041 0.0163029 0)
(7.35279 0.016752 0)
(7.35516 0.0170696 0)
(7.35749 0.0172747 0)
(7.35979 0.0173831 0)
(7.36205 0.0174079 0)
(7.36426 0.0173598 0)
(7.36644 0.0172477 0)
(7.36856 0.0170788 0)
(7.37065 0.0168591 0)
(7.37268 0.0165934 0)
(7.37468 0.0162856 0)
(7.37663 0.0159387 0)
(7.37854 0.015555 0)
(7.38041 0.0151362 0)
(7.38224 0.0146838 0)
(7.38403 0.0141985 0)
(7.38578 0.0136808 0)
(7.38749 0.0131311 0)
(7.38916 0.0125494 0)
(7.39079 0.0119356 0)
(7.39237 0.0112899 0)
(7.39391 0.0106118 0)
(7.39541 0.00990378 0)
(7.3331 0.00135323 0)
(7.33364 0.00396033 0)
(7.33479 0.00630902 0)
(7.33639 0.00832996 0)
(7.33826 0.0100333 0)
(7.3403 0.0114523 0)
(7.34247 0.0126152 0)
(7.34472 0.0135505 0)
(7.34702 0.0142887 0)
(7.34933 0.0148584 0)
(7.35164 0.0152832 0)
(7.35394 0.0155831 0)
(7.35622 0.0157751 0)
(7.35846 0.0158739 0)
(7.36067 0.0158912 0)
(7.36284 0.0158372 0)
(7.36497 0.01572 0)
(7.36706 0.0155465 0)
(7.3691 0.0153222 0)
(7.37111 0.0150519 0)
(7.37307 0.0147391 0)
(7.37499 0.0143869 0)
(7.37686 0.0139976 0)
(7.3787 0.0135731 0)
(7.38049 0.0131147 0)
(7.38225 0.0126235 0)
(7.38396 0.0121004 0)
(7.38563 0.0115458 0)
(7.38726 0.0109602 0)
(7.38885 0.0103441 0)
(7.39039 0.00969802 0)
(7.39189 0.00902207 0)
(7.39335 0.00831912 0)
(7.33309 0.00119369 0)
(7.33358 0.00349919 0)
(7.33461 0.00559394 0)
(7.33608 0.00741688 0)
(7.33782 0.00896744 0)
(7.33973 0.0102676 0)
(7.34179 0.0113396 0)
(7.34394 0.0122061 0)
(7.34614 0.0128926 0)
(7.34837 0.013423 0)
(7.35061 0.0138183 0)
(7.35284 0.014096 0)
(7.35506 0.0142717 0)
(7.35725 0.0143585 0)
(7.35941 0.0143673 0)
(7.36153 0.0143076 0)
(7.36362 0.0141868 0)
(7.36567 0.0140116 0)
(7.36768 0.0137873 0)
(7.36965 0.0135181 0)
(7.37158 0.0132077 0)
(7.37346 0.012859 0)
(7.3753 0.0124743 0)
(7.37711 0.0120555 0)
(7.37887 0.0116041 0)
(7.38059 0.0111213 0)
(7.38227 0.0106079 0)
(7.3839 0.0100648 0)
(7.38549 0.00949261 0)
(7.38704 0.00889206 0)
(7.38855 0.00826398 0)
(7.39001 0.00760871 0)
(7.39142 0.00692919 0)
(7.33309 0.00104582 0)
(7.33353 0.00306966 0)
(7.33447 0.00492082 0)
(7.33582 0.00654686 0)
(7.33744 0.00794116 0)
(7.33924 0.00911729 0)
(7.34119 0.0100918 0)
(7.34325 0.010883 0)
(7.34536 0.0115113 0)
(7.34751 0.0119967 0)
(7.34968 0.0123573 0)
(7.35185 0.0126086 0)
(7.35401 0.0127641 0)
(7.35614 0.0128355 0)
(7.35825 0.0128329 0)
(7.36034 0.0127645 0)
(7.36238 0.0126374 0)
(7.36439 0.0124576 0)
(7.36636 0.0122299 0)
(7.36829 0.0119584 0)
(7.37019 0.0116465 0)
(7.37204 0.0112969 0)
(7.37384 0.0109119 0)
(7.37561 0.0104933 0)
(7.37734 0.0100428 0)
(7.37902 0.00956154 0)
(7.38066 0.00905064 0)
(7.38226 0.00851105 0)
(7.38381 0.00794369 0)
(7.38532 0.00734946 0)
(7.38679 0.00672944 0)
(7.38821 0.00608438 0)
(7.38958 0.00541727 0)
(7.33308 0.000907334 0)
(7.33348 0.0026658 0)
(7.33435 0.00428271 0)
(7.3356 0.00571383 0)
(7.33712 0.00694955 0)
(7.33883 0.00799737 0)
(7.34068 0.00886915 0)
(7.34264 0.00957907 0)
(7.34468 0.0101434 0)
(7.34675 0.0105787 0)
(7.34885 0.0109 0)
(7.35096 0.0111207 0)
(7.35306 0.0112526 0)
(7.35515 0.0113059 0)
(7.35721 0.0112896 0)
(7.35925 0.0112111 0)
(7.36125 0.0110769 0)
(7.36322 0.0108922 0)
(7.36515 0.0106617 0)
(7.36705 0.0103891 0)
(7.3689 0.0100777 0)
(7.37072 0.00973001 0)
(7.37249 0.00934836 0)
(7.37422 0.00893458 0)
(7.37591 0.00849026 0)
(7.37756 0.00801676 0)
(7.37917 0.00751529 0)
(7.38073 0.00698696 0)
(7.38225 0.00643285 0)
(7.38372 0.00585402 0)
(7.38515 0.00525171 0)
(7.38653 0.00462677 0)
(7.38787 0.00398215 0)
(7.33308 0.000776307 0)
(7.33345 0.00228255 0)
(7.33425 0.00367328 0)
(7.33542 0.0049118 0)
(7.33685 0.00598748 0)
(7.33847 0.00690359 0)
(7.34024 0.00766812 0)
(7.34212 0.00829172 0)
(7.34408 0.00878709 0)
(7.34608 0.00916744 0)
(7.34812 0.00944518 0)
(7.35017 0.00963157 0)
(7.35221 0.00973663 0)
(7.35425 0.0097692 0)
(7.35627 0.00973697 0)
(7.35826 0.00964654 0)
(7.36022 0.00950356 0)
(7.36215 0.00931284 0)
(7.36405 0.00907845 0)
(7.36591 0.00880387 0)
(7.36773 0.00849201 0)
(7.36951 0.00814534 0)
(7.37124 0.00776598 0)
(7.37294 0.00735572 0)
(7.3746 0.00691612 0)
(7.37621 0.00644858 0)
(7.37778 0.00595435 0)
(7.3793 0.00543463 0)
(7.38078 0.00489058 0)
(7.38222 0.00432338 0)
(7.38361 0.00373436 0)
(7.38496 0.00312452 0)
(7.38626 0.00249678 0)
(7.33308 0.000651084 0)
(7.33342 0.00191546 0)
(7.33417 0.00308667 0)
(7.33527 0.00413487 0)
(7.33663 0.00504961 0)
(7.33817 0.00583133 0)
(7.33986 0.00648491 0)
(7.34167 0.00701796 0)
(7.34356 0.00744003 0)
(7.3455 0.00776137 0)
(7.34748 0.00799186 0)
(7.34947 0.00814067 0)
(7.35147 0.0082161 0)
(7.35346 0.00822554 0)
(7.35543 0.00817551 0)
(7.35738 0.00807168 0)
(7.3593 0.00791897 0)
(7.3612 0.00772158 0)
(7.36305 0.00748317 0)
(7.36487 0.00720684 0)
(7.36666 0.00689528 0)
(7.3684 0.0065508 0)
(7.3701 0.00617539 0)
(7.37177 0.0057708 0)
(7.37339 0.0053386 0)
(7.37496 0.00488019 0)
(7.3765 0.00439689 0)
(7.37799 0.00388997 0)
(7.37943 0.00336065 0)
(7.38084 0.00281019 0)
(7.38219 0.00223997 0)
(7.38351 0.00165099 0)
(7.38477 0.00104604 0)
(7.33308 0.000530162 0)
(7.3334 0.00156045 0)
(7.3341 0.00251731 0)
(7.33515 0.00337703 0)
(7.33644 0.0041301 0)
(7.33792 0.00477515 0)
(7.33955 0.00531461 0)
(7.34129 0.00575344 0)
(7.34312 0.00609842 0)
(7.34501 0.0063571 0)
(7.34693 0.00653702 0)
(7.34887 0.00664531 0)
(7.35082 0.00668855 0)
(7.35277 0.00667272 0)
(7.3547 0.00660315 0)
(7.3566 0.00648454 0)
(7.35849 0.00632101 0)
(7.36034 0.00611617 0)
(7.36216 0.00587313 0)
(7.36395 0.00559463 0)
(7.3657 0.00528303 0)
(7.36741 0.00494041 0)
(7.36908 0.00456861 0)
(7.3707 0.00416925 0)
(7.37229 0.00374382 0)
(7.37383 0.00329369 0)
(7.37533 0.00282015 0)
(7.37679 0.00232447 0)
(7.3782 0.0018079 0)
(7.37957 0.00127169 0)
(7.38089 0.000717223 0)
(7.38217 0.000145562 0)
(7.3834 -0.0004406 0)
(7.33307 0.000412046 0)
(7.33338 0.00121357 0)
(7.33405 0.00195977 0)
(7.33506 0.00263244 0)
(7.3363 0.00322339 0)
(7.33772 0.00373011 0)
(7.33929 0.00415304 0)
(7.34098 0.00449485 0)
(7.34276 0.00475981 0)
(7.3446 0.00495302 0)
(7.34647 0.00507976 0)
(7.34837 0.0051452 0)
(7.35027 0.00515427 0)
(7.35217 0.00511154 0)
(7.35406 0.00502115 0)
(7.35593 0.00488687 0)
(7.35778 0.00471204 0)
(7.3596 0.00449963 0)
(7.36138 0.00425229 0)
(7.36313 0.00397236 0)
(7.36485 0.00366191 0)
(7.36652 0.0033228 0)
(7.36816 0.00295671 0)
(7.36975 0.00256515 0)
(7.3713 0.00214953 0)
(7.37281 0.00171119 0)
(7.37427 0.00125139 0)
(7.3757 0.000771372 0)
(7.37708 0.000272381 0)
(7.37841 -0.000244357 0)
(7.3797 -0.000777502 0)
(7.38095 -0.00132608 0)
(7.38215 -0.0018876 0)
(7.33307 0.000295211 0)
(7.33337 0.000870625 0)
(7.33402 0.00140787 0)
(7.33499 0.00189375 0)
(7.33619 0.00232159 0)
(7.33757 0.00268824 0)
(7.3391 0.00299244 0)
(7.34074 0.00323478 0)
(7.34248 0.00341725 0)
(7.34427 0.00354263 0)
(7.3461 0.00361403 0)
(7.34795 0.00363473 0)
(7.34982 0.00360797 0)
(7.35168 0.00353689 0)
(7.35353 0.00342444 0)
(7.35537 0.00327337 0)
(7.35718 0.00308619 0)
(7.35896 0.00286519 0)
(7.36071 0.00261246 0)
(7.36243 0.0023299 0)
(7.36411 0.00201924 0)
(7.36575 0.00168205 0)
(7.36735 0.0013198 0)
(7.36891 0.000933866 0)
(7.37043 0.000525525 0)
(7.37191 9.60226e-05 0)
(7.37334 -0.000353434 0)
(7.37473 -0.000821653 0)
(7.37608 -0.00130743 0)
(7.37738 -0.00180958 0)
(7.37864 -0.0023268 0)
(7.37986 -0.00285805 0)
(7.38103 -0.00340096 0)
(7.33307 0.000178694 0)
(7.33336 0.000529154 0)
(7.33399 0.000858266 0)
(7.33494 0.00115739 0)
(7.33611 0.0014215 0)
(7.33746 0.00164694 0)
(7.33896 0.00183097 0)
(7.34057 0.00197223 0)
(7.34226 0.00207055 0)
(7.34402 0.00212649 0)
(7.34581 0.00214112 0)
(7.34763 0.00211587 0)
(7.34946 0.00205239 0)
(7.35129 0.00195249 0)
(7.35311 0.00181797 0)
(7.35491 0.00165064 0)
(7.35668 0.00145224 0)
(7.35843 0.00122444 0)
(7.36015 0.000968792 0)
(7.36183 0.000686786 0)
(7.36348 0.000379808 0)
(7.36509 4.91669e-05 0)
(7.36666 -0.000303896 0)
(7.36819 -0.000678193 0)
(7.36967 -0.00107258 0)
(7.37112 -0.00148593 0)
(7.37252 -0.00191715 0)
(7.37388 -0.00236514 0)
(7.37519 -0.00282878 0)
(7.37646 -0.003307 0)
(7.37769 -0.00379861 0)
(7.37887 -0.00430278 0)
(7.38002 -0.00481742 0)
(7.33307 6.11695e-05 0)
(7.33336 0.000184634 0)
(7.33398 0.000303672 0)
(7.33491 0.000414289 0)
(7.33607 0.000513088 0)
(7.3374 0.000595883 0)
(7.33887 0.000658433 0)
(7.34045 0.000697429 0)
(7.34212 0.000710529 0)
(7.34385 0.000696072 0)
(7.34561 0.000652984 0)
(7.3474 0.000580757 0)
(7.3492 0.000479358 0)
(7.351 0.000349111 0)
(7.35279 0.000190592 0)
(7.35455 4.56643e-06 0)
(7.3563 -0.000208075 0)
(7.35802 -0.000446363 0)
(7.35971 -0.00070928 0)
(7.36136 -0.000995791 0)
(7.36298 -0.00130485 0)
(7.36456 -0.00163543 0)
(7.3661 -0.0019865 0)
(7.3676 -0.00235702 0)
(7.36905 -0.00274598 0)
(7.37047 -0.00315235 0)
(7.37184 -0.00357512 0)
(7.37317 -0.00401324 0)
(7.37446 -0.00446567 0)
(7.3757 -0.00493135 0)
(7.3769 -0.00540912 0)
(7.37806 -0.00589804 0)
(7.37917 -0.00639602 0)
(7.33307 -5.884e-05 0)
(7.33336 -0.000167732 0)
(7.33398 -0.000263476 0)
(7.33491 -0.000344871 0)
(7.33606 -0.000413773 0)
(7.33738 -0.000475228 0)
(7.33884 -0.000535258 0)
(7.34041 -0.000599234 0)
(7.34206 -0.000671695 0)
(7.34377 -0.00075648 0)
(7.34551 -0.00085667 0)
(7.34728 -0.000974524 0)
(7.34905 -0.00111159 0)
(7.35082 -0.00126886 0)
(7.35258 -0.00144687 0)
(7.35432 -0.00164582 0)
(7.35604 -0.00186563 0)
(7.35772 -0.00210602 0)
(7.35938 -0.00236656 0)
(7.361 -0.00264671 0)
(7.36259 -0.00294585 0)
(7.36414 -0.00326328 0)
(7.36565 -0.00359829 0)
(7.36711 -0.0039501 0)
(7.36854 -0.00431791 0)
(7.36992 -0.00470091 0)
(7.37126 -0.00509822 0)
(7.37256 -0.005509 0)
(7.37382 -0.00593235 0)
(7.37503 -0.00636739 0)
(7.3762 -0.00681317 0)
(7.37733 -0.0072691 0)
(7.37842 -0.00773347 0)
(7.33307 -0.000183074 0)
(7.33336 -0.000532486 0)
(7.33399 -0.000849554 0)
(7.33494 -0.00112717 0)
(7.3361 -0.00136598 0)
(7.33743 -0.00157257 0)
(7.33889 -0.00175526 0)
(7.34046 -0.00192189 0)
(7.3421 -0.00207967 0)
(7.3438 -0.00223516 0)
(7.34553 -0.00239393 0)
(7.34728 -0.00256034 0)
(7.34903 -0.0027377 0)
(7.35078 -0.00292843 0)
(7.35252 -0.00313424 0)
(7.35424 -0.00335624 0)
(7.35593 -0.00359509 0)
(7.3576 -0.00385105 0)
(7.35923 -0.00412416 0)
(7.36083 -0.0044142 0)
(7.36239 -0.00472082 0)
(7.36391 -0.00504354 0)
(7.36539 -0.00538181 0)
(7.36684 -0.00573497 0)
(7.36824 -0.00610233 0)
(7.3696 -0.00648316 0)
(7.37091 -0.00687667 0)
(7.37218 -0.00728206 0)
(7.37342 -0.00769849 0)
(7.3746 -0.00812508 0)
(7.37575 -0.00856089 0)
(7.37685 -0.00900509 0)
(7.37791 -0.00945594 0)
(7.33307 -0.000314567 0)
(7.33338 -0.000918043 0)
(7.33403 -0.00146686 0)
(7.33501 -0.00194702 0)
(7.3362 -0.00235878 0)
(7.33755 -0.00271152 0)
(7.33903 -0.00301641 0)
(7.3406 -0.0032836 0)
(7.34225 -0.00352266 0)
(7.34395 -0.00374252 0)
(7.34567 -0.00395093 0)
(7.3474 -0.0041542 0)
(7.34914 -0.00435736 0)
(7.35087 -0.00456438 0)
(7.35259 -0.0047783 0)
(7.35428 -0.0050014 0)
(7.35595 -0.00523531 0)
(7.35759 -0.00548116 0)
(7.35919 -0.00573966 0)
(7.36076 -0.0060112 0)
(7.36229 -0.00629593 0)
(7.36379 -0.00659379 0)
(7.36524 -0.00690457 0)
(7.36665 -0.00722793 0)
(7.36802 -0.00756345 0)
(7.36935 -0.00791061 0)
(7.37064 -0.00826886 0)
(7.37188 -0.00863759 0)
(7.37308 -0.00901614 0)
(7.37424 -0.00940389 0)
(7.37536 -0.00980015 0)
(7.37644 -0.0102045 0)
(7.37748 -0.0106157 0)
(7.33308 -0.00045718 0)
(7.3334 -0.0013349 0)
(7.3341 -0.00212995 0)
(7.33512 -0.00282011 0)
(7.33636 -0.00340704 0)
(7.33776 -0.0039057 0)
(7.33927 -0.00433235 0)
(7.34087 -0.00470147 0)
(7.34254 -0.00502663 0)
(7.34425 -0.00532028 0)
(7.34598 -0.00559273 0)
(7.34772 -0.00585206 0)
(7.34945 -0.00610461 0)
(7.35118 -0.00635533 0)
(7.35288 -0.00660799 0)
(7.35457 -0.00686542 0)
(7.35622 -0.00712967 0)
(7.35784 -0.00740219 0)
(7.35943 -0.00768396 0)
(7.36098 -0.00797562 0)
(7.36249 -0.00827749 0)
(7.36397 -0.00858968 0)
(7.3654 -0.00891211 0)
(7.36679 -0.00924457 0)
(7.36814 -0.00958674 0)
(7.36945 -0.00993821 0)
(7.37071 -0.0102985 0)
(7.37193 -0.010667 0)
(7.37311 -0.0110433 0)
(7.37425 -0.0114266 0)
(7.37534 -0.0118162 0)
(7.37639 -0.0122115 0)
(7.3774 -0.0126112 0)
(7.33308 -0.000616371 0)
(7.33344 -0.00179788 0)
(7.3342 -0.00285917 0)
(7.33531 -0.00376874 0)
(7.33662 -0.00453272 0)
(7.33808 -0.00517302 0)
(7.33964 -0.00570953 0)
(7.34128 -0.00615968 0)
(7.34298 -0.00654125 0)
(7.3447 -0.00687126 0)
(7.34643 -0.00716387 0)
(7.34816 -0.00743028 0)
(7.34989 -0.00767943 0)
(7.3516 -0.0079184 0)
(7.35329 -0.00815269 0)
(7.35495 -0.00838643 0)
(7.35658 -0.00862271 0)
(7.35818 -0.00886378 0)
(7.35974 -0.00911128 0)
(7.36127 -0.00936632 0)
(7.36275 -0.00962963 0)
(7.3642 -0.00990163 0)
(7.3656 -0.0101825 0)
(7.36696 -0.0104724 0)
(7.36828 -0.010771 0)
(7.36956 -0.0110781 0)
(7.37079 -0.0113936 0)
(7.37199 -0.0117169 0)
(7.37314 -0.0120477 0)
(7.37425 -0.0123856 0)
(7.37532 -0.0127301 0)
(7.37635 -0.0130809 0)
(7.37734 -0.0134372 0)
(7.33308 -0.000800544 0)
(7.3335 -0.00232896 0)
(7.33436 -0.00368125 0)
(7.33559 -0.00481788 0)
(7.33701 -0.00576259 0)
(7.33856 -0.00655587 0)
(7.34021 -0.00722628 0)
(7.34192 -0.00779502 0)
(7.34367 -0.00828299 0)
(7.34544 -0.00870938 0)
(7.3472 -0.00908946 0)
(7.34896 -0.009435 0)
(7.3507 -0.00975548 0)
(7.35242 -0.0100585 0)
(7.3541 -0.0103501 0)
(7.35576 -0.0106348 0)
(7.35738 -0.0109163 0)
(7.35897 -0.011197 0)
(7.36052 -0.0114791 0)
(7.36202 -0.011764 0)
(7.36349 -0.0120527 0)
(7.36491 -0.012346 0)
(7.36629 -0.0126441 0)
(7.36763 -0.0129475 0)
(7.36893 -0.013256 0)
(7.37018 -0.0135696 0)
(7.37139 -0.0138882 0)
(7.37256 -0.0142114 0)
(7.37368 -0.014539 0)
(7.37476 -0.0148707 0)
(7.3758 -0.0152059 0)
(7.3768 -0.0155442 0)
(7.37775 -0.0158849 0)
(7.33309 -0.00102332 0)
(7.3336 -0.0029646 0)
(7.33462 -0.00464209 0)
(7.33601 -0.0060035 0)
(7.33757 -0.00709327 0)
(7.33921 -0.00797072 0)
(7.34093 -0.00867653 0)
(7.3427 -0.00924509 0)
(7.34449 -0.00971035 0)
(7.34627 -0.0101006 0)
(7.34805 -0.0104363 0)
(7.34981 -0.0107326 0)
(7.35154 -0.0110015 0)
(7.35325 -0.0112518 0)
(7.35492 -0.0114905 0)
(7.35656 -0.0117223 0)
(7.35815 -0.0119512 0)
(7.35971 -0.0121797 0)
(7.36123 -0.01241 0)
(7.36271 -0.0126436 0)
(7.36414 -0.0128814 0)
(7.36553 -0.0131243 0)
(7.36688 -0.0133726 0)
(7.36818 -0.0136267 0)
(7.36944 -0.0138867 0)
(7.37066 -0.0141525 0)
(7.37184 -0.0144242 0)
(7.37297 -0.0147014 0)
(7.37406 -0.0149839 0)
(7.37511 -0.0152716 0)
(7.37612 -0.0155641 0)
(7.37709 -0.0158611 0)
(7.37802 -0.016162 0)
(7.33311 -0.00130854 0)
(7.33375 -0.00375356 0)
(7.33503 -0.00579776 0)
(7.33669 -0.0074341 0)
(7.33847 -0.00877444 0)
(7.3403 -0.00988923 0)
(7.34218 -0.010805 0)
(7.34406 -0.0115527 0)
(7.34593 -0.0121718 0)
(7.34777 -0.0126948 0)
(7.34958 -0.0131441 0)
(7.35135 -0.0135371 0)
(7.35308 -0.0138881 0)
(7.35478 -0.0142083 0)
(7.35643 -0.0145063 0)
(7.35804 -0.0147884 0)
(7.3596 -0.0150595 0)
(7.36112 -0.0153231 0)
(7.3626 -0.0155821 0)
(7.36403 -0.0158384 0)
(7.36542 -0.0160934 0)
(7.36676 -0.0163481 0)
(7.36806 -0.0166034 0)
(7.36931 -0.0168595 0)
(7.37052 -0.017117 0)
(7.37169 -0.0173758 0)
(7.37281 -0.0176362 0)
(7.37389 -0.0178982 0)
(7.37492 -0.0181616 0)
(7.37591 -0.0184265 0)
(7.37686 -0.0186928 0)
(7.37777 -0.0189605 0)
(7.37863 -0.0192297 0)
(7.33314 -0.00171306 0)
(7.33403 -0.00480949 0)
(7.33564 -0.00713628 0)
(7.33755 -0.00877084 0)
(7.33947 -0.00999771 0)
(7.3414 -0.0109687 0)
(7.34337 -0.0117325 0)
(7.34532 -0.0123338 0)
(7.34722 -0.0128216 0)
(7.34907 -0.0132303 0)
(7.35086 -0.0135806 0)
(7.35261 -0.0138871 0)
(7.35431 -0.0141615 0)
(7.35595 -0.0144129 0)
(7.35754 -0.0146481 0)
(7.35909 -0.014872 0)
(7.36058 -0.0150885 0)
(7.36203 -0.0153008 0)
(7.36343 -0.015511 0)
(7.36478 -0.0157209 0)
(7.36609 -0.0159319 0)
(7.36735 -0.016145 0)
(7.36856 -0.0163607 0)
(7.36973 -0.0165796 0)
(7.37086 -0.0168019 0)
(7.37195 -0.0170278 0)
(7.37299 -0.0172572 0)
(7.37399 -0.01749 0)
(7.37495 -0.0177261 0)
(7.37587 -0.0179652 0)
(7.37675 -0.0182069 0)
(7.37759 -0.0184507 0)
(7.3784 -0.0186961 0)
(7.33321 -0.00230679 0)
(7.33467 -0.00642716 0)
(7.33707 -0.00951491 0)
(7.33954 -0.0117564 0)
(7.34173 -0.0134584 0)
(7.34378 -0.0147546 0)
(7.34577 -0.015724 0)
(7.34767 -0.0164583 0)
(7.34946 -0.0170343 0)
(7.35115 -0.0174995 0)
(7.35277 -0.0178842 0)
(7.35432 -0.0182112 0)
(7.3558 -0.0184975 0)
(7.35723 -0.018755 0)
(7.35859 -0.0189917 0)
(7.3599 -0.0192131 0)
(7.36116 -0.0194234 0)
(7.36237 -0.0196254 0)
(7.36353 -0.0198211 0)
(7.36464 -0.020012 0)
(7.36571 -0.0201993 0)
(7.36673 -0.0203836 0)
(7.36771 -0.0205658 0)
(7.36865 -0.0207461 0)
(7.36954 -0.0209252 0)
(7.37039 -0.0211032 0)
(7.37121 -0.0212804 0)
(7.37198 -0.0214571 0)
(7.37271 -0.0216336 0)
(7.37341 -0.0218105 0)
(7.37407 -0.0219882 0)
(7.37469 -0.0221687 0)
(7.37528 -0.0223533 0)
(7.33323 -0.00330731 0)
(7.33508 -0.00748587 0)
(7.33785 -0.00963424 0)
(7.34039 -0.0111615 0)
(7.34248 -0.0124961 0)
(7.34435 -0.0135474 0)
(7.34606 -0.014318 0)
(7.34756 -0.0149094 0)
(7.34888 -0.015392 0)
(7.35005 -0.0157919 0)
(7.35112 -0.0161243 0)
(7.3521 -0.016406 0)
(7.35301 -0.0166519 0)
(7.35385 -0.0168727 0)
(7.35463 -0.0170756 0)
(7.35538 -0.0172664 0)
(7.35607 -0.0174496 0)
(7.35674 -0.0176284 0)
(7.35737 -0.017805 0)
(7.35796 -0.0179813 0)
(7.35853 -0.0181582 0)
(7.35907 -0.0183365 0)
(7.35958 -0.0185166 0)
(7.36007 -0.0186987 0)
(7.36053 -0.0188828 0)
(7.36096 -0.0190687 0)
(7.36137 -0.019256 0)
(7.36175 -0.0194444 0)
(7.36211 -0.019633 0)
(7.36244 -0.0198204 0)
(7.36275 -0.0200051 0)
(7.36302 -0.0201828 0)
(7.36327 -0.0203539 0)
(7.33597 -0.00734842 0)
(7.3463 -0.0150966 0)
(7.35617 -0.0177365 0)
(7.36436 -0.0188969 0)
(7.37191 -0.0197789 0)
(7.37926 -0.0203565 0)
(7.38624 -0.0206452 0)
(7.39271 -0.020794 0)
(7.39874 -0.0209007 0)
(7.40441 -0.0209905 0)
(7.40977 -0.0210678 0)
(7.41483 -0.0211378 0)
(7.41962 -0.0212057 0)
(7.42415 -0.0212733 0)
(7.42845 -0.0213409 0)
(7.43253 -0.0214082 0)
(7.43639 -0.0214753 0)
(7.44005 -0.0215423 0)
(7.44353 -0.0216092 0)
(7.44681 -0.0216764 0)
(7.44993 -0.0217439 0)
(7.45287 -0.0218121 0)
(7.45566 -0.0218813 0)
(7.45828 -0.0219518 0)
(7.46076 -0.022024 0)
(7.4631 -0.0220981 0)
(7.46531 -0.0221747 0)
(7.46739 -0.022254 0)
(7.46934 -0.0223364 0)
(7.47119 -0.0224225 0)
(7.47293 -0.0225121 0)
(7.47458 -0.0226065 0)
(7.47617 -0.0227035 0)
(7.32333 -0.00889147 0)
(7.30978 -0.018185 0)
(7.29242 -0.022275 0)
(7.27081 -0.0243668 0)