/*--------------------------------*- C++ -*----------------------------------*\
| =========                 |                                                 |
| \\      /  F ield         | OpenFOAM: The Open Source CFD Toolbox           |
|  \\    /   O peration     | Version:  4.1                                   |
|   \\  /    A nd           | Web:      www.OpenFOAM.org                      |
|    \\/     M anipulation  |                                                 |
\*---------------------------------------------------------------------------*/
FoamFile
{
    version     2.0;
    format      ascii;
    class       volScalarField;
    location    "1800";
    object      p;
}
// * * * * * * * * * * * * * * * * * * * * * * * * * * * * * * * * * * * * * //

dimensions      [0 2 -2 0 0 0 0];

internalField   nonuniform List<scalar> 
26785
(
-58.4653
-44.4456
-34.9351
-28.3339
-22.4424
-17.2486
-12.8497
-9.03156
-5.6564
-2.65256
0.0678802
2.59015
4.97471
7.26715
9.48491
11.5909
13.4771
14.9973
16.0839
16.7851
17.151
17.2586
17.2132
17.1087
17.013
16.9968
17.0988
17.2917
17.668
17.9627
18.1462
18.5584
18.7273
18.6705
18.9037
19.4258
20.1454
21.0306
22.2164
23.7282
25.3154
26.781
27.9616
28.7338
29.111
29.0775
28.4733
26.9494
23.7727
17.3032
5.00113
-15.5383
-44.4121
-73.9361
-92.2307
-94.3123
-83.0906
-67.5159
-53.4303
-41.9524
-32.6855
-25.1288
-18.8811
-13.6598
-9.26286
-5.52993
-2.45382
-0.220035
0.920263
0.844801
-0.0790228
-0.752291
-0.0101298
2.85917
7.60614
13.1498
18.6516
23.7382
28.3113
32.3885
36.0337
39.3704
42.5191
45.5492
48.6234
52.0699
56.016
60.0657
63.3452
64.7142
62.9883
57.2794
47.4594
34.3582
19.7589
5.85101
-3.85811
-9.48679
-4.59952
-8.59172
-58.4267
-44.4282
-34.9327
-28.3325
-22.441
-17.2485
-12.8504
-9.03245
-5.6578
-2.65492
0.064273
2.58509
4.96796
7.25879
9.4756
11.5819
13.4696
14.9903
16.0768
16.7789
17.1461
17.2552
17.211
17.1067
17.0101
16.9936
17.0945
17.2862
17.6699
17.9608
18.1407
18.5692
18.728
18.6576
18.9011
19.44
20.1666
21.0233
22.1682
23.6714
25.2686
26.7408
27.9186
28.6832
29.0483
28.9979
28.3647
26.7891
23.5325
16.9667
4.54935
-16.0855
-45.0882
-74.9406
-93.4259
-95.5275
-83.9067
-67.9063
-53.5994
-42.0243
-32.7105
-25.1274
-18.8618
-13.6225
-9.20292
-5.44928
-2.36227
-0.141418
0.960787
0.8327
-0.168401
-0.93341
-0.269011
2.57439
7.386
13.0133
18.5806
23.712
28.3163
32.4162
36.0691
39.3997
42.5446
45.5581
48.6086
52.1002
56.0425
59.9249
62.9958
64.2055
62.3686
56.5895
46.7351
33.6217
18.9973
4.98747
-4.89985
-10.5925
-5.86674
-8.73426
-58.3968
-44.4061
-34.9355
-28.3353
-22.4417
-17.2506
-12.8534
-9.03534
-5.66155
-2.66056
0.0560602
2.57387
4.9533
7.24086
9.45574
11.5629
13.4533
14.9755
16.0622
16.7664
17.1365
17.2486
17.2068
17.1029
17.0043
16.9866
17.0846
17.2763
17.6746
17.9538
18.1204
18.5858
18.7506
18.6434
18.8738
19.3969
20.1052
20.9477
22.0774
23.5522
25.1393
26.6232
27.8072
28.5627
28.9033
28.8129
28.1071
26.3995
22.9493
16.1907
3.62581
-17.0052
-45.9954
-76.4748
-95.4113
-97.7069
-85.4406
-68.6486
-53.9202
-42.1564
-32.7477
-25.1081
-18.8021
-13.5276
-9.07614
-5.30342
-2.2088
-0.00101171
1.07122
0.910474
-0.173699
-1.09042
-0.575259
2.16847
7.04217
12.7792
18.4352
23.6265
28.2704
32.3981
36.0608
39.3873
42.5331
45.4973
48.457
51.8037
55.4033
59.0091
61.8679
62.8786
60.9219
55.1533
45.4155
32.4562
17.9277
3.79735
-6.47808
-12.3722
-8.09352
-8.96107
-58.3674
-44.3594
-34.9296
-28.3341
-22.4399
-17.2524
-12.8572
-9.03958
-5.66745
-2.66952
0.0431662
2.55649
4.93087
7.21364
9.42565
11.5338
13.4281
14.9524
16.0399
16.7478
17.1225
17.239
17.2003
17.096
16.9945
16.9769
17.0714
17.2557
17.6753
17.9586
18.0985
18.5388
18.6994
18.6079
18.8286
19.325
20.0132
20.8539
21.9655
23.396
24.9489
26.4183
27.6054
28.3548
28.6653
28.5143
27.7001
25.798
22.0688
15.0476
2.31973
-18.2105
-46.8988
-78.0743
-97.6676
-100.369
-87.4513
-69.6281
-54.3333
-42.315
-32.7804
-25.0724
-18.7284
-13.4337
-8.96573
-5.17334
-2.05593
0.161001
1.22487
1.05929
-0.0852053
-1.16206
-0.818958
1.75425
6.652
12.4889
18.2309
23.4774
28.1493
32.284
35.9396
39.2734
42.4381
45.2963
48.1293
51.1742
54.4162
57.6377
60.0662
60.752
58.6841
53.0423
43.6044
30.9963
16.7359
2.58272
-8.17879
-14.4032
-10.8593
-9.26971
-58.3476
-44.3078
-34.9264
-28.335
-22.4395
-17.2561
-12.8634
-9.04648
-5.67663
-2.68287
0.0245158
2.53194
4.89983
7.17654
9.3849
11.4942
13.3934
14.9205
16.0097
16.7234
17.1046
17.2265
17.1914
17.0872
16.9826
16.9619
17.0502
17.2351
17.6645
17.9378
18.0499
18.4165
18.5669
18.5312
18.766
19.2639
19.9494
20.7718
21.849
23.2296
24.7333
26.1619
27.3297
28.0735
28.356
28.1335
27.1888
25.0599
21.0078
13.6809
0.781769
-19.564
-47.5855
-79.2958
-99.8797
-103.078
-89.6934
-70.7249
-54.7916
-42.4923
-32.8212
-25.0418
-18.6608
-13.3526
-8.8853
-5.08578
-1.94163
0.298089
1.37424
1.24257
0.0918739
-1.11372
-0.944329
1.41719
6.29457
12.1959
17.9954
23.276
27.9602
32.094
35.736
39.0628
42.2209
44.9222
47.7114
50.2937
53.1445
55.8782
57.822
58.1528
55.9654
50.4985
41.4884
29.4137
15.6195
1.6286
-9.60979
-16.369
-13.7916
-9.6576
-58.2767
-44.2449
-34.925
-28.3373
-22.4401
-17.2617
-12.8724
-9.05649
-5.68976
-2.70143
-0.000769358
2.4994
4.85956
7.12919
9.33328
11.4441
13.3491
14.8799
15.9722
16.6935
17.083
17.2117
17.1812
17.0756
16.9646
16.9448
17.0315
17.2022
17.6028
17.8514
17.9659
18.2932
18.4435
18.4465
18.6889
19.1822
19.8548
20.6511
21.6871
23.0143
24.4621
25.8376
26.9664
27.6984
27.9629
27.6743
26.5901
24.2236
19.8444
12.2043
-0.859566
-20.9641
-47.9721
-79.7442
-101.723
-105.322
-91.8898
-71.8136
-55.2518
-42.6842
-32.8825
-25.0349
-18.6198
-13.3031
-8.84894
-5.0629
-1.89895
0.371367
1.46545
1.3926
0.302861
-0.958702
-0.941952
1.2114
6.02348
11.94
17.7622
23.0546
27.7241
31.8273
35.4429
38.7647
41.9612
44.5304
47.0837
49.254
51.7179
53.9601
55.4056
55.3512
53.0141
47.7279
39.226
27.8349
14.6965
1.11206
-10.4354
-17.9225
-16.4572
-10.0474
-58.1443
-44.1648
-34.9208
-28.3377
-22.4403
-17.2688
-12.884
-9.06979
-5.70709
-2.72545
-0.033035
2.45845
4.80966
7.07127
9.27063
11.3833
13.2953
14.831
15.9278
16.6587
17.0584
17.1947
17.169
17.0624
16.9479
16.9257
16.9975
17.1391
17.4953
17.7319
17.8607
18.1681
18.3201
18.3486
18.5922
19.0773
19.7319
20.4965
21.4826
22.7481
24.1317
25.445
26.5193
27.2177
27.4607
27.1217
25.9112
23.3157
18.6349
10.7122
-2.47787
-22.2821
-48.0528
-79.1779
-102.859
-106.623
-93.7608
-72.773
-55.6724
-42.8819
-32.9673
-25.0567
-18.608
-13.2817
-8.84153
-5.0794
-1.91373
0.382595
1.48302
1.4685
0.488237
-0.754531
-0.850109
1.15492
5.87685
11.7629
17.566
22.8328
27.4653
31.5265
35.1111
38.4205
41.6021
44.0402
46.2132
48.1225
50.2014
51.9817
52.9568
52.5249
50.0208
44.902
36.9475
26.3532
14.0391
1.11376
-10.4267
-18.725
-18.5966
-10.3633
-58.0171
-44.0855
-34.9221
-28.341
-22.4429
-17.2788
-12.8992
-9.08695
-5.72891
-2.75498
-0.0721609
2.40921
4.75018
7.00283
9.19712
11.3122
13.2325
14.7744
15.8773
16.6199
17.031
17.1761
17.1572
17.0504
16.9283
16.8883
16.9367
17.0533
17.3704
17.6006
17.7431
18.0339
18.1873
18.2369
18.4793
18.954
19.5852
20.3074
21.2327
22.4262
23.7351
24.9771
25.9878
26.6351
26.8349
26.4456
25.1338
22.3476
17.4158
9.26487
-3.99405
-23.436
-47.9083
-77.6371
-102.901
-106.748
-95.053
-73.4905
-56.0121
-43.0698
-33.0697
-25.1041
-18.6215
-13.2832
-8.85381
-5.11329
-1.95659
0.359019
1.46433
1.48786
0.633157
-0.541658
-0.703313
1.25148
5.88109
11.6762
17.4103
22.6436
27.2501
31.2357
34.727
37.9724
41.0684
43.4072
45.1355
46.8974
48.6429
50.0126
50.5693
49.7919
47.1217
42.1539
34.7502
25.0175
13.6586
1.60168
-9.52346
-18.3912
-20.0844
-10.4283
-57.889
-43.9892
-34.9197
-28.3435
-22.4468
-17.2915
-12.918
-9.10821
-5.75533
-2.78983
-0.117734
2.35217
4.68156
6.92432
9.11332
11.2315
13.1613
14.7108
15.8216
16.5771
17.0017
17.1584
17.1439
17.0302
16.8925
16.8302
16.8569
16.9528
17.235
17.4575
17.612
17.8887
18.043
18.1072
18.3429
18.8022
19.4047
20.0765
20.9311
22.0426
23.2657
24.4255
25.363
25.9487
26.0889
25.6279
24.215
21.287
16.189
7.88613
-5.38094
-24.3818
-47.6156
-75.5238
-101.666
-106.073
-95.516
-73.8492
-56.228
-43.2253
-33.1752
-25.1669
-18.6529
-13.3009
-8.87521
-5.14169
-1.98463
0.350132
1.46779
1.50423
0.743161
-0.354162
-0.53536
1.4434
5.98799
11.6687
17.3455
22.557
27.0754
30.9126
34.3291
37.5055
40.271
42.6159
44.0839
45.6431
47.0811
48.089
48.2818
47.2016
44.3881
39.5743
32.7078
23.8468
13.507
2.46042
-7.87718
-16.7742
-20.8095
-9.85384
-57.7712
-43.8888
-34.9177
-28.3461
-22.4523
-17.3071
-12.9408
-9.13404
-5.78667
-2.82995
-0.16934
2.28793
4.60449
6.83653
9.02015
11.1423
13.0827
14.6412
15.7611
16.5314
16.973
17.137
17.1176
16.9915
16.8397
16.7595
16.7644
16.8398
17.0896
17.3024
17.4648
17.7281
17.8815
17.9537
18.1773
18.6159
19.1854
19.8009
20.5764
21.5973
22.7244
23.7901
24.6417
25.1537
25.2239
24.6763
23.1435
20.0863
14.8906
6.51442
-6.69237
-25.1432
-47.1192
-73.2116
-99.3566
-105.162
-94.711
-73.6975
-56.2712
-43.3209
-33.2663
-25.2321
-18.6896
-13.3215
-8.89766
-5.16597
-1.99785
0.365291
1.50721
1.5371
0.784299
-0.285323
-0.413798
1.70773
6.23117
11.8015
17.3912
22.556
26.9791
30.6567
33.977
37.0686
39.4825
41.63
43.0058
44.3775
45.5409
46.2302
46.1056
44.7675
41.8555
37.2227
30.8689
22.8315
13.4894
3.48526
-5.87062
-14.1036
-20.3883
-8.37368
-57.6175
-43.7897
-34.9216
-28.3512
-22.4609
-17.3264
-12.9684
-9.16505
-5.82334
-2.87535
-0.226595
2.21715
4.51983
6.74058
8.91899
11.0458
12.9978
14.5661
15.6967
16.4853
16.9384
17.0998
17.0718
16.9372
16.776
16.679
16.6616
16.7155
16.934
17.1342
17.2992
17.5482
17.6986
17.7742
17.9808
18.392
18.9239
19.4793
20.1697
21.0936
22.1171
23.0785
23.8309
24.2542
24.2399
23.5939
21.9373
18.7626
13.4932
5.08074
-7.98273
-25.7642
-46.4705
-70.7675
-96.0489
-103.839
-92.5228
-72.9817
-56.109
-43.329
-33.3196
-25.2837
-18.7273
-13.3515
-8.92469
-5.17053
-1.9799
0.404012
1.55592
1.54354
0.776748
-0.227874
-0.262957
2.1299
6.70068
12.1543
17.6385
22.7005
26.9841
30.4934
33.6746
36.6649
38.769
40.5464
41.9149
43.1225
44.0399
44.4471
44.0465
42.5007
39.5452
35.1175
29.2246
21.9126
13.5105
4.56261
-3.72686
-10.8619
-18.3656
-6.29788
-57.4059
-43.6807
-34.925
-28.3553
-22.4711
-17.3486
-13.0003
-9.20141
-5.86557
-2.92601
-0.289154
2.14049
4.42868
6.63803
8.81159
10.9434
12.9073
14.4864
15.6311
16.4326
16.886
17.0425
17.0105
16.8728
16.7036
16.5896
16.5494
16.5805
16.7672
16.9515
17.1138
17.3471
17.4922
17.5674
17.7526
18.1291
18.6185
19.1129
19.7164
20.5399
21.455
22.3043
22.9469
23.2669
23.1502
22.3885
20.6067
17.3393
12.0255
3.60828
-9.21597
-26.2107
-45.7539
-68.4158
-91.9543
-100.844
-89.6633
-71.8569
-55.74
-43.2277
-33.3187
-25.3106
-18.7496
-13.3622
-8.93781
-5.19512
-2.03019
0.400177
1.6086
1.59236
0.736204
-0.118083
0.28416
2.99042
7.50431
12.7619
18.0459
22.905
27.0247
30.3998
33.3803
36.1283
38.0958
39.5339
40.8493
41.8948
42.5895
42.7487
42.1156
40.4145
37.4577
33.222
27.7213
21.0466
13.535
5.67075
-1.51172
-7.54928
-14.7285
-4.10359
-57.2
-43.5765
-34.9324
-28.3597
-22.4827
-17.3728
-13.0358
-9.24262
-5.91316
-2.98173
-0.356626
2.05883
4.33252
6.53061
8.69936
10.8362
12.8123
14.404
15.5592
16.3614
16.8126
16.9691
16.9388
16.8
16.6229
16.4916
16.4279
16.4351
16.5889
16.7537
16.9087
17.1241
17.2611
17.3322
17.4927
17.8287
18.2716
18.7065
19.2254
19.9485
20.7536
21.4865
22.0116
22.2167
21.981
21.0862
19.1758
15.8317
10.4976
2.12436
-10.349
-26.4583
-44.9163
-66.1496
-87.4116
-96.0089
-86.4468
-70.3318
-55.1565
-43.0055
-33.2463
-25.3003
-18.773
-13.415
-9.00588
-5.22799
-2.00701
0.36111
1.47915
1.47263
0.816407
0.407301
1.30726
4.15746
8.48829
13.467
18.4799
23.0942
27.0557
30.3588
33.1598
35.4679
37.4085
38.6607
39.8282
40.7062
41.199
41.1436
40.3212
38.5099
35.5756
31.5098
26.3496
20.2364
13.512
6.66429
0.552104
-4.37455
-10.1678
-2.22035
-56.998
-43.4668
-34.9417
-28.3648
-22.4962
-17.3985
-13.0739
-9.28779
-5.9655
-3.0421
-0.428346
1.97335
4.23269
6.41954
8.58372
10.726
12.7138
14.3141
15.4698
16.2696
16.7223
16.8843
16.8585
16.7188
16.5337
16.3852
16.2974
16.2797
16.3995
16.5415
16.6845
16.8795
17.0052
17.069
17.2029
17.4944
17.8885
18.2677
18.7064
19.3321
20.0289
20.645
21.0491
21.132
20.765
19.7256
17.6852
14.2717
8.92934
0.653501
-11.3625
-26.5304
-43.9255
-63.7974
-82.8021
-90.5613
-82.786
-68.3392
-54.3297
-42.67
-33.1385
-25.3083
-18.8333
-13.474
-9.06212
-5.35716
-2.25427
-0.0186183
1.08524
1.2803
1.02827
1.12296
2.42037
5.32459
9.44558
14.1368
18.8691
23.248
27.0736
30.3375
33.0296
34.977
36.6306
37.8265
38.8488
39.5639
39.8748
39.6355
38.6618
36.777
33.883
29.9809
25.1244
19.5023
13.4459
7.46148
2.18481
-1.72826
-5.6936
-0.623472
-56.808
-43.3559
-34.952
-28.3701
-22.5116
-17.4256
-13.114
-9.336
-6.02184
-3.10644
-0.503351
1.88497
4.1303
6.30694
8.46736
10.6132
12.6068
14.2078
15.3615
16.1615
16.6196
16.7903
16.7696
16.6288
16.436
16.2703
16.1585
16.1149
16.1998
16.3161
16.4427
16.6149
16.726
16.7795
16.8863
17.1318
17.4762
17.8041
18.1672
18.6997
19.2919
19.7939
20.0785
20.0371
19.534
18.3475
16.1814
12.7012
7.35643
-0.77015
-12.241
-26.4452
-42.7825
-61.2842
-78.2425
-85.0984
-78.8174
-66.0489
-53.29
-42.2216
-32.9715
-25.2736
-18.8835
-13.62
-9.31222
-5.72729
-2.7388
-0.548818
0.652479
1.09169
1.24257
1.7955
3.41258
6.34932
10.2906
14.7181
19.1781
23.3498
27.0752
30.2757
32.776
34.5554
35.9087
37.0278
37.9092
38.4704
38.6186
38.223
37.1291
35.1992
32.3601
28.6196
24.039
18.8472
13.3535
8.08157
3.42467
0.202706
-2.42799
0.764482
-56.5989
-43.2546
-34.969
-28.3776
-22.5301
-17.4544
-13.1556
-9.38645
-6.08136
-3.17376
-0.58097
1.79478
4.02827
6.19592
8.35004
10.4933
12.4858
14.0843
15.2387
16.0412
16.5071
16.6876
16.6718
16.5299
16.3294
16.1471
16.0115
15.9415
15.991
16.079
16.1854
16.3325
16.426
16.4663
16.5459
16.7456
17.0402
17.3193
17.6115
18.0541
18.546
18.9383
19.1074
18.9446
18.3084
16.9831
14.7041
11.1632
5.82354
-2.10957
-12.9769
-26.2125
-41.4761
-58.5778
-73.7326
-79.8533
-74.7805
-63.603
-52.0215
-41.5755
-32.6641
-25.1767
-18.9458
-13.8157
-9.60952
-6.11516
-3.22461
-1.07043
0.23958
0.926979
1.44398
2.38127
4.24911
7.21035
11.0013
15.1888
19.3979
23.4089
27.0899
30.2072
32.4219
34.0948
35.2685
36.2608
37.0048
37.4231
37.4267
36.8989
35.7108
33.7552
30.9801
27.4006
23.0805
18.2629
13.2289
8.52303
4.33653
1.52093
-0.588403
1.52816
-56.34
-43.152
-34.9888
-28.3867
-22.5523
-17.4854
-13.1986
-9.43863
-6.14307
-3.24339
-0.660212
1.70599
3.92908
6.08453
8.22761
10.3633
12.3505
13.9473
15.1046
15.9113
16.3859
16.5759
16.5647
16.4217
16.2141
16.0157
15.8568
15.7603
15.7742
15.8319
15.9149
16.0348
16.108
16.1322
16.1845
16.3385
16.5822
16.8134
17.0391
17.3942
17.7897
18.0767
18.135
17.8554
17.0935
15.6445
13.2723
9.68537
4.36899
-3.33387
-13.5785
-25.8649
-40.002
-55.5784
-68.9917
-74.4871
-70.4843
-60.8351
-50.3731
-40.6048
-32.1165
-24.9176
-18.9047
-13.9485
-9.87381
-6.48082
-3.67893
-1.54854
-0.130039
0.79033
1.62489
2.87447
4.936
7.90997
11.5653
15.5381
19.5388
23.4289
27.0647
30.056
32.0828
33.5545
34.6333
35.509
36.1262
36.4147
36.291
35.6521
34.3914
32.4255
29.719
26.2949
22.2212
17.7383
13.0842
8.8144
4.96969
2.42149
0.245074
1.59389
-56.0908
-43.0559
-35.0103
-28.3957
-22.5774
-17.5184
-13.2432
-9.49203
-6.2062
-3.3146
-0.737865
1.61965
3.82851
5.96874
8.0987
10.2242
12.2039
13.7999
14.9613
15.7732
16.2562
16.4549
16.4481
16.3043
16.0899
15.8763
15.6951
15.5719
15.5504
15.5761
15.6328
15.7238
15.774
15.7793
15.8032
15.911
16.1011
16.2838
16.4485
16.7182
17.0213
17.2069
17.1583
16.7663
15.8871
14.3307
11.8862
8.27332
3.00894
-4.42953
-14.0612
-25.4561
-38.469
-52.4527
-64.0925
-68.8654
-65.7183
-57.5527
-48.2217
-39.2413
-31.297
-24.4934
-18.777
-14.0377
-10.1119
-6.82299
-4.09681
-1.97735
-0.457185
0.670069
1.77257
3.27245
5.48053
8.45181
11.9811
15.7763
19.6292
23.426
26.9544
29.7507
31.7061
33.0175
33.9951
34.7612
35.2631
35.4355
35.2014
34.4704
33.1548
31.1904
28.5545
25.2768
21.4301
17.2498
12.9285
9.00738
5.40677
3.06041
0.749655
1.48051
-55.8536
-42.9625
-35.0336
-28.4046
-22.6046
-17.5529
-13.2891
-9.54597
-6.27065
-3.38462
-0.813557
1.53021
3.72287
5.84841
7.96474
10.0779
12.0487
13.6442
14.8102
15.6273
16.1177
16.3243
16.3217
16.1776
15.9572
15.7294
15.5267
15.3772
15.3203
15.3128
15.3405
15.4008
15.4257
15.4087
15.4023
15.4619
15.5942
15.7269
15.8371
16.0259
16.2412
16.3298
16.1781
15.6779
14.6894
13.0399
10.5405
6.92156
1.74102
-5.40154
-14.4372
-25.0056
-36.9538
-49.4448
-59.4767
-63.5184
-60.9484
-54.0479
-45.7987
-37.6724
-30.3461
-23.9928
-18.6032
-14.0918
-10.3181
-7.13351
-4.4747
-2.35846
-0.746717
0.557498
1.88055
3.57809
5.89299
8.8472
12.2648
15.9268
19.6797
23.3787
26.728
29.372
31.2374
32.461
33.3447
34.0091
34.4071
34.4768
34.148
33.3417
31.9863
30.0327
27.4681
24.3276
20.6888
16.7787
12.7544
9.12759
5.71945
3.50581
1.1126
1.373
-55.6314
-42.8714
-35.0578
-28.4132
-22.6331
-17.5884
-13.3351
-9.60057
-6.33466
-3.45215
-0.893239
1.43437
3.61286
5.72483
7.82715
9.92634
11.887
13.4812
14.6516
15.4734
15.9702
16.1838
16.1856
16.0416
15.8163
15.5753
15.3521
15.1764
15.0846
15.0426
15.039
15.0666
15.0636
15.0212
14.9814
14.9899
15.0594
15.1394
15.2019
15.3193
15.4531
15.4499
15.1998
14.5966
13.5072
11.7775
9.23674
5.6284
0.559717
-6.26354
-14.7224
-24.5159
-35.454
-46.5872
-55.2615
-58.7096
-56.5684
-50.6757
-43.3871
-36.0755
-29.3615
-23.4595
-18.3972
-14.1137
-10.4919
-7.40928
-4.81103
-2.69497
-1.0045
0.447164
1.94959
3.80155
6.19056
9.11898
12.4469
16.0134
19.6767
23.2344
26.3902
28.9199
30.7051
31.8714
32.6766
33.2489
33.5536
33.5331
33.1236
32.2567
30.8741
28.9385
26.4451
23.4338
19.9863
16.3189
12.5593
9.18341
5.94658
3.81608
1.39295
1.28386
-55.405
-42.7936
-35.0862
-28.4217
-22.6622
-17.6242
-13.381
-9.65612
-6.39432
-3.52227
-0.980502
1.33322
3.4996
5.59885
7.68693
9.77105
11.7201
13.3117
14.4857
15.3115
15.8135
16.0337
16.0399
15.8968
15.6673
15.4143
15.1716
14.9701
14.8435
14.7661
14.729
14.7219
14.6882
14.6166
14.5401
14.4944
14.4961
14.5198
14.5416
14.6018
14.6623
14.5738
14.2313
13.532
12.3518
10.5541
7.98385
4.40046
-0.534381
-7.0257
-14.9312
-23.9967
-33.9809
-43.8805
-51.3981
-54.3745
-52.5939
-47.5309
-41.0788
-34.5116
-28.3791
-22.9146
-18.1718
-14.1106
-10.6366
-7.65144
-5.10874
-2.99378
-1.23813
0.335534
1.98363
3.9545
6.39155
9.29157
12.5505
16.0364
19.5873
22.9764
25.9724
28.3836
30.1138
31.2454
31.9894
32.4793
32.7008
32.6014
32.1237
31.2088
29.8092
27.8968
25.474
22.5855
19.3161
15.868
12.3469
9.18297
6.10358
4.02906
1.62115
1.20199
-55.1392
-42.7223
-35.1184
-28.431
-22.6925
-17.6584
-13.4296
-9.7076
-6.45183
-3.59997
-1.07419
1.22812
3.3839
5.47109
7.54487
9.61292
11.5485
13.1357
14.3123
15.1413
15.6478
15.8741
15.8849
15.7433
15.5108
15.2468
14.9855
14.7585
14.5975
14.4841
14.4113
14.3673
14.2999
14.1952
14.0781
13.9753
13.9054
13.87
13.8592
13.8786
13.8756
13.7095
13.282
12.4953
11.2356
9.38226
6.79367
3.24821
-1.53685
-7.69386
-15.0731
-23.4535
-32.5445
-41.3361
-47.8652
-50.4526
-48.9754
-44.6132
-38.8977
-33.0111
-27.4258
-22.3785
-17.9399
-14.0898
-10.7565
-7.86444
-5.37486
-3.2641
-1.45526
0.219411
1.98474
4.04477
6.51114
9.38399
12.5834
15.9802
19.3953
22.6277
25.4808
27.7867
29.4697
30.5824
31.283
31.7007
31.8478
31.6797
31.1447
30.1922
28.7837
26.8988
24.5468
21.7762
18.6742
15.4258
12.1203
9.13594
6.20283
4.16675
1.80324
1.13751
-54.8878
-42.6592
-35.152
-28.441
-22.7231
-17.6935
-13.4783
-9.75103
-6.51502
-3.68515
-1.17262
1.1201
3.26637
5.34203
7.40147
9.45246
11.3727
12.9536
14.1316
14.963
15.4735
15.7054
15.7211
15.5818
15.3469
15.0729
14.7938
14.5416
14.3467
14.1968
14.0868
14.0035
13.8991
13.7571
13.5955
13.4332
13.2904
13.1961
13.1617
13.1559
13.1
12.8647
12.3609
11.497
10.1699
8.27313
5.67702
2.18124
-2.44388
-8.27384
-15.1596
-22.8993
-31.1619
-38.9683
-44.6582
-46.9246
-45.7026
-41.9379
-36.8832
-31.6109
-26.5296
-21.8678
-17.7102
-14.0562
-10.8563
-8.05435
-5.61744
-3.51447
-1.66269
0.0945011
1.95158
4.07631
6.55981
9.40555
12.542
15.8348
19.115
22.2049
24.9267
27.138
28.7761
29.8783
30.5542
30.9141
30.9947
30.7663
30.1831
29.2016
27.7911
25.9381
23.658
21.0026
18.0591
14.9932
11.8818
9.05027
6.25355
4.24574
1.94693
1.09156
-54.6573
-42.6032
-35.1862
-28.4522
-22.7525
-17.7355
-13.5159
-9.79364
-6.58663
-3.77589
-1.27446
1.00995
3.14745
5.21202
7.2571
9.29
11.1929
12.7656
13.9439
14.7769
15.2908
15.5283
15.549
15.4126
15.176
14.8927
14.5963
14.3194
14.0913
13.9048
13.7561
13.6315
13.4866
13.303
13.0928
12.8699
12.6559
12.5066
12.4583
12.4407
12.3418
12.0461
11.475
10.5446
9.16224
7.2338
4.64061
1.20497
-3.25466
-8.77117
-15.2002
-22.3492
-29.8567
-36.7996
-41.7837
-43.7879
-42.7839
-39.5339
-35.0722
-30.3367
-25.7037
-21.3876
-17.4846
-14.0122
-10.9399
-8.22653
-5.84275
-3.75102
-1.86585
-0.0437963
1.88211
4.05241
6.54416
9.35832
12.4221
15.6066
18.7591
21.7153
24.3176
26.4426
28.0366
29.1284
29.7954
30.1181
30.1426
29.8616
29.2378
28.2347
26.8287
25.0125
22.8064
20.2641
17.4703
14.5705
11.6315
8.93096
6.26177
4.27905
2.0575
1.06187
-54.4463
-42.5518
-35.22
-28.4638
-22.7868
-17.7746
-13.5424
-9.84429
-6.66501
-3.87061
-1.37874
0.898231
3.02752
5.08137
7.11197
9.12578
11.0096
12.5722
13.7494
14.5834
15.1003
15.3432
15.3693
15.2362
14.9983
14.706
14.3929
14.0918
13.8314
13.6083
13.4199
13.252
13.0634
12.8338
12.5719
12.2885
12.0082
11.8118
11.7587
11.7401
11.6063
11.2582
10.6286
9.64173
8.21524
6.26566
3.68494
0.318318
-3.97384
-9.19365
-15.203
-21.8125
-28.6427
-34.8402
-39.2361
-41.0263
-40.2061
-37.3977
-33.4588
-29.1832
-24.941
-20.9314
-17.2601
-13.9583
-11.01
-8.38472
-6.05478
-3.97791
-2.06926
-0.199468
1.77591
3.97786
6.46928
9.24366
12.2277
15.3054
18.3347
21.1657
23.6581
25.7036
27.2545
28.332
28.9964
29.3042
29.2915
28.9676
28.311
27.2935
25.8983
24.1237
21.9934
19.5604
16.9059
14.1535
11.3663
8.78156
6.23306
4.27687
2.13953
1.04126
-54.2453
-42.5121
-35.2545
-28.4748
-22.83
-17.7958
-13.5693
-9.90347
-6.74835
-3.96817
-1.48478
0.785345
2.90686
4.9503
6.96626
8.95999
10.823
12.374
13.5488
14.3831
14.9027
15.1508
15.1827
15.0532
14.8141
14.5129
14.1834
13.8588
13.5669
13.3077
13.0788
12.8659
12.6304
12.3512
12.0351
11.6932
11.3547
11.1222
11.0731
11.0599
10.8966
10.5029
9.82247
8.78786
7.32652
5.36455
2.80457
-0.485773
-4.61081
-9.55125
-15.1754
-21.2938
-27.5207
-33.0781
-36.9837
-38.5952
-37.9229
-35.4859
-31.9999
-28.1232
-24.2242
-20.4905
-17.0343
-13.8956
-11.069
-8.53158
-6.25639
-4.19879
-2.27731
-0.374987
1.63605
3.85773
6.33782
9.06253
11.9643
14.9364
17.8477
20.5614
22.9517
24.9228
26.432
27.4927
28.1521
28.4558
28.4294
28.0807
27.4028
26.3797
25.0013
23.2716
21.2164
18.8864
16.3569
13.7345
11.0839
8.60584
6.17302
4.24743
2.19683
1.02551
-54.0188
-42.4807
-35.2899
-28.4945
-22.8684
-17.8017
-13.6048
-9.96917
-6.8353
-4.06778
-1.5921
0.671605
2.78571
4.81898
6.82005
8.79282
10.6337
12.1715
13.3427
14.1765
14.6986
14.9519
14.9896
14.8639
14.6234
14.3132
13.9675
13.62
13.2979
13.0031
12.7334
12.474
12.1889
11.8573
11.4859
11.0891
10.703
10.4479
10.4103
10.4041
10.2141
9.78017
9.05498
7.97955
6.49051
4.52293
1.99035
-1.21811
-5.17765
-9.85469
-15.1234
-20.7932
-26.4814
-31.4856
-34.9772
-36.4348
-35.8781
-33.75
-30.6529
-27.1304
-23.54
-20.0603
-16.8071
-13.8262
-11.1194
-8.66952
-6.45058
-4.41775
-2.49343
-0.569104
1.46618
3.6929
6.14872
8.81708
11.6357
14.5042
17.3027
19.9061
22.201
24.1022
25.5704
26.6134
27.2665
27.5667
27.5372
27.1837
26.5016
25.4835
24.1282
22.4454
20.4624
18.227
15.8103
13.308
10.7853
8.40844
6.0865
4.19671
2.23289
1.01245
-53.8144
-42.4565
-35.3238
-28.5274
-22.8859
-17.8071
-13.6487
-10.0396
-6.92496
-4.16891
-1.70037
0.557272
2.66428
4.68753
6.67342
8.62449
10.4422
11.9654
13.1317
13.9645
14.4888
14.7471
14.7906
14.6685
14.4262
14.1068
13.745
13.3752
13.0241
12.6947
12.384
12.0771
11.7404
11.3543
10.9282
10.482
10.0608
9.79727
9.77689
9.77506
9.55882
9.08845
8.32318
7.21214
5.70065
3.73244
1.2324
-1.89012
-5.68662
-10.1143
-15.0525
-20.3097
-25.5132
-30.0337
-33.1696
-34.4925
-34.0277
-32.158
-29.3954
-26.1924
-22.8835
-19.6407
-16.5807
-13.7523
-11.1634
-8.80101
-6.64076
-4.63839
-2.71804
-0.780019
1.26366
3.48072
5.90246
8.51092
11.2452
14.0128
16.7034
19.2025
21.4079
23.2432
24.6716
25.6959
26.3426
26.6411
26.6111
26.2595
25.5853
24.5847
23.2607
21.6277
19.7156
17.5713
15.2624
12.8735
10.4715
8.19277
5.97742
4.12913
2.25069
1.00048
-53.6409
-42.4393
-35.3615
-28.5607
-22.8823
-17.8209
-13.6989
-10.1136
-7.01672
-4.27117
-1.8093
0.442575
2.54273
4.55601
6.52644
8.45521
10.2488
11.7563
12.9166
13.7478
14.274
14.5372
14.5862
14.4674
14.2226
13.8934
13.5155
13.1242
12.7455
12.3826
12.0313
11.6762
11.2863
10.8449
10.366
9.87811
9.43544
9.17739
9.1762
9.17255
8.92907
8.42489
7.62305
6.48034
4.95034
2.98533
0.521891
-2.51183
-6.14827
-10.339
-14.9677
-19.8432
-24.6077
-28.7004
-31.5262
-32.7307
-32.3418
-30.692
-28.2191
-25.3062
-22.254
-19.2331
-16.3567
-13.6761
-11.2031
-8.9288
-6.83019
-4.86217
-2.94994
-1.01214
1.02432
3.22131
5.60225
8.14643
10.7961
13.4653
16.0524
18.4529
20.574
22.3469
23.7368
24.7423
25.3827
25.6812
25.6547
25.3103
24.6493
23.6725
22.3863
20.8079
18.9685
16.9145
14.7101
12.4312
10.1445
7.96182
5.84904
4.04791
2.2527
0.98871
-53.4929
-42.4265
-35.4107
-28.5767
-22.8719
-17.8436
-13.7537
-10.1904
-7.11015
-4.37425
-1.91865
0.327715
2.42118
4.42446
6.37916
8.28518
10.054
11.5449
12.6981
13.527
14.0548
14.3227
14.377
14.2606
14.0126
13.6728
13.2787
12.8669
12.4621
12.067
11.6757
11.2721
10.8282
10.3317
9.80389
9.28355
8.83343
8.59243
8.60771
8.59344
8.32113
7.7847
6.949
5.77789
4.23274
2.27432
-0.148892
-3.09159
-6.57106
-10.5357
-14.8732
-19.3941
-23.7593
-27.4711
-30.0236
-31.1231
-30.7989
-29.3387
-27.1187
-24.4683
-21.6511
-18.8382
-16.1369
-13.5993
-11.2409
-9.05566
-7.02094
-5.08868
-3.19299
-1.27115
0.748004
2.91622
5.24958
7.72624
10.2911
12.8642
15.352
17.6589
19.7007
21.4145
22.7673
23.7544
24.3892
24.6896
24.6699
24.3374
23.6957
22.7483
21.5049
19.9847
18.2198
16.2559
14.1537
11.9818
9.80605
7.71799
5.70414
3.95532
2.24088
0.976642
-53.3674
-42.4224
-35.4669
-28.5669
-22.866
-17.8732
-13.8117
-10.2696
-7.20489
-4.47789
-2.0282
0.212862
2.29973
4.29293
6.23164
8.11464
9.85841
11.3318
12.4768
13.3029
13.832
14.1041
14.1631
14.0484
13.7959
13.4448
13.0345
12.6028
12.1737
11.7481
11.3176
10.8657
10.3678
9.81763
9.24641
8.70396
8.25904
8.0421
8.0662
8.03144
7.7291
7.16129
6.29403
5.09756
3.54063
1.5924
-0.786875
-3.63642
-6.96174
-10.7099
-14.772
-18.9626
-22.9637
-26.3344
-28.6444
-29.65
-29.381
-28.0856
-26.0876
-23.674
-21.0742
-18.4568
-15.9223
-13.5237
-11.2788
-9.18361
-7.2133
-5.31972
-3.45443
-1.55797
0.435092
2.56613
4.84623
7.25249
9.73245
12.2118
14.6041
16.8221
18.7888
20.4468
21.7643
22.7339
23.3641
23.6685
23.659
23.343
22.7255
21.8127
20.6166
19.1579
17.4693
15.5954
13.5935
11.5263
9.45768
7.46326
5.54511
3.85305
2.21687
0.963942
-53.2307
-42.4321
-35.5162
-28.5383
-22.8673
-17.9074
-13.8722
-10.3507
-7.30068
-4.58187
-2.13777
0.0981641
2.17844
4.16143
6.08395
7.9438
9.66228
11.1175
12.2534
13.076
13.6061
13.8819
13.9448
13.8307
13.5726
13.2091
12.7825
12.3321
11.8805
11.4262
10.9578
10.4581
9.9068
9.30566
8.6979
8.14356
7.71295
7.52089
7.54254
7.47875
7.14606
6.54757
5.65106
4.43243
2.8674
0.933338
-1.39796
-4.15208
-7.32564
-10.8655
-14.6665
-18.5487
-22.2166
-25.2807
-27.3744
-28.2954
-28.0733
-26.9216
-25.1198
-22.9196
-20.5225
-18.0888
-15.7139
-13.4508
-11.3186
-9.31316
-7.40698
-5.56156
-3.73692
-1.87279
0.0853817
2.17199
4.39372
6.72705
9.12213
11.5098
13.8103
15.9436
17.8395
19.4448
20.7289
21.6822
22.3092
22.6198
22.624
22.3287
21.7402
20.8668
19.7219
18.3279
16.7171
14.9331
13.0299
11.0655
9.10085
7.19926
5.374
3.74236
2.18207
0.950417
-53.1232
-42.4555
-35.5448
-28.5056
-22.8753
-17.9447
-13.9349
-10.4336
-7.39725
-4.68595
-2.24715
-0.0162573
2.05739
4.02999
5.93616
7.77284
9.46599
10.9025
12.0284
12.847
13.3775
13.6565
13.7225
13.6076
13.3425
12.9657
12.5228
12.0548
11.5826
11.1017
10.5968
10.0503
9.44693
8.79885
8.16215
7.6042
7.19174
7.01912
7.02667
6.92858
6.56586
5.9378
5.01474
3.77749
2.20835
0.2927
-1.98648
-4.6429
-7.66678
-11.0058
-14.5584
-18.152
-21.5142
-24.3016
-26.2014
-27.0454
-26.8625
-25.8366
-24.2094
-22.2026
-19.9952
-17.7343
-15.5126
-13.3818
-11.3611
-9.44399
-7.60527
-5.81862
-4.04018
-2.21637
-0.300858
1.73468
3.89343
6.15161
8.4619
10.7599
12.972
15.0247
16.8535
18.4092
19.662
20.6006
21.2261
21.5455
21.5665
21.296
20.7411
19.9112
18.8215
17.4947
15.9633
14.2692
12.4635
10.6001
8.73687
6.92736
5.19262
3.62427
2.13777
0.935978
-53.0547
-42.4846
-35.5471
-28.476
-22.8886
-17.984
-13.9994
-10.5179
-7.49434
-4.78995
-2.35622
-0.130297
1.93662
3.89865
5.78834
7.60194
9.26985
10.6872
11.8024
12.6162
13.1466
13.4281
13.4961
13.3793
13.1056
12.7144
12.2553
11.771
11.2806
10.7753
10.2354
9.64335
8.9902
8.30019
7.64185
7.08506
6.68914
6.52657
6.51026
6.37602
5.9842
5.32852
4.38215
3.13018
1.56105
-0.331985
-2.55515
-5.11191
-7.98815
-11.1331
-14.4492
-17.7723
-20.8531
-23.3897
-25.1145
-25.8879
-25.7374
-24.822
-23.3512
-21.5208
-19.4908
-17.3933
-15.319
-13.3176
-11.4063
-9.57729
-7.81373
-6.09108
-4.36491
-2.58895
-0.723371
1.25504
3.34666
5.5277
7.75335
9.96358
12.0905
14.0664
15.8318
17.3409
18.5648
19.4905
20.1165
20.4471
20.4883
20.2465
19.7292
18.947
17.9157
16.6587
15.2079
13.6039
11.8947
10.1309
8.36689
6.64875
5.0025
3.49961
2.08518
0.920665
-53.0207
-42.5099
-35.5296
-28.4517
-22.9053
-18.0248
-14.0658
-10.6035
-7.59172
-4.89369
-2.46483
-0.24387
1.81618
3.76746
5.64059
7.43126
9.07408
10.4719
11.5757
12.3841
12.9136
13.1968
13.2658
13.1456
12.8617
12.4552
11.9802
11.4814
10.9752
10.4479
9.87475
9.23872
8.53873
7.8124
7.1381
6.58293
6.19769
6.03449
5.98732
5.81763
5.39851
4.71799
3.75207
2.48953
0.924501
-0.942016
-3.10577
-5.56136
-8.29215
-11.2495
-14.34
-17.4093
-20.2304
-22.5383
-24.1044
-24.8122
-24.6883
-23.8703
-22.5405
-20.8714
-19.007
-17.0655
-15.1334
-13.258
-11.4541
-9.71675
-8.03438
-6.3793
-4.71178
-2.99073
-1.18181
0.733907
2.7546
4.85674
6.99794
9.12229
11.167
13.0697
14.7752
16.2407
17.438
18.353
18.9818
19.3262
19.3908
19.1815
18.7057
17.9748
17.0052
15.8202
14.4513
12.9374
11.324
9.65853
7.99196
6.36444
4.805
3.36916
2.02549
0.90459
-53.0223
-42.5216
-35.5015
-28.4327
-22.9239
-18.0666
-14.1339
-10.6902
-7.68917
-4.99702
-2.57287
-0.356901
1.69613
3.63646
5.49299
7.26094
8.87889
10.257
11.3486
12.1509
12.6788