/*--------------------------------*- C++ -*----------------------------------*\
| =========                 |                                                 |
| \\      /  F ield         | OpenFOAM: The Open Source CFD Toolbox           |
|  \\    /   O peration     | Version:  4.1                                   |
|   \\  /    A nd           | Web:      www.OpenFOAM.org                      |
|    \\/     M anipulation  |                                                 |
\*---------------------------------------------------------------------------*/
FoamFile
{
    version     2.0;
    format      ascii;
    class       surfaceScalarField;
    location    "1800";
    object      phi;
}
// * * * * * * * * * * * * * * * * * * * * * * * * * * * * * * * * * * * * * //

dimensions      [0 3 -1 0 0 0 0];

internalField   nonuniform List<scalar> 
52920
(
2251.91
74.327
2194.31
57.5972
2143.2
51.1126
2095.85
47.358
2052.22
43.6289
2011.4
40.8188
1972.6
38.8032
1935.44
37.1653
1898.75
36.6903
1860.26
38.4926
1817.27
42.9912
1767.19
50.0809
1707.36
59.8289
1635.25
72.1159
1549.26
85.9881
1449.77
99.4999
1339.12
110.649
1219.71
119.406
1093.63
126.084
966.292
127.345
846.345
119.95
743.172
103.177
663.409
79.7672
608.348
55.0663
571.674
36.6778
544.022
27.657
517.605
26.4228
478.751
38.8589
445.98
32.7765
417.25
28.7377
368.302
48.9544
358.095
10.2146
368.542
-10.4387
359.257
9.29595
343.644
15.6239
317.297
26.3565
277.079
40.2267
212.753
64.3339
135.487
77.2752
108.165
27.3298
197.732
-89.5603
420.153
-222.414
738.804
-318.646
1115.01
-376.198
1532.75
-417.746
1999.09
-466.33
2544.93
-545.842
3226.35
-681.413
4105.9
-879.548
5212.56
-1106.67
6501.42
-1288.85
7824.84
-1323.43
8910.76
-1085.92
9470.73
-559.967
9405.93
64.801
8841.76
564.162
8080.18
761.584
7348.1
732.078
6722.55
625.549
6210.02
512.533
5798.53
411.491
5475.06
323.474
5233.15
241.903
5078.42
154.731
5030.53
47.8962
5115.84
-85.3088
5349.65
-233.815
5720.93
-371.279
6183.87
-462.942
6655.08
-471.208
7024.76
-369.674
7198.23
-173.474
7138.63
59.5994
6888.48
250.153
6542.78
345.7
6179
363.779
5843.56
335.435
5562.39
281.172
5350.66
211.729
5219.46
131.203
5176.75
42.7138
5223.21
-46.4635
5345.84
-122.631
5515.84
-169.997
5709.12
-193.283
5952.78
-243.657
6346.97
-394.195
7018.16
-671.188
8031.4
-1013.24
9352.15
-1320.75
10876.4
-1524.23
12474.4
-1598.01
14017.3
-1542.95
15386.9
-1369.61
16474.2
-1087.3
17185
-710.774
17458.7
-273.638
17316.7
142.009
16811.3
505.329
620.431
2267.63
150.38
2209.6
115.628
2158.71
102.008
2111.83
94.2359
2068.68
86.784
2028.08
81.4177
1989.04
77.8482
1951.01
75.1937
1912.72
74.9794
1871.84
79.3777
1825.66
89.1704
1771.65
104.092
1707.25
124.232
1630.02
149.352
1538.34
177.668
1432.35
205.495
1314.2
228.803
1186.81
246.796
1054.22
258.671
924.643
256.93
808.35
236.247
713.485
198.047
642.653
150.604
592.28
105.444
553.369
75.5935
517.374
63.6574
479.538
64.2643
427.492
90.9104
381.521
78.7542
341.262
69.0051
275.471
114.754
236.735
48.9599
210.94
15.3653
97.1172
123.13
-109.195
221.947
-372.46
289.631
-609.919
277.691
-726.141
180.562
-705.806
56.9462
-613.787
-64.6828
-472.802
-230.539
-259.005
-436.205
51.703
-629.348
445.633
-770.123
889.454
-861.563
1382.37
-959.242
1951.78
-1115.25
2644.5
-1374.13
3510.23
-1745.28
4573.46
-2169.89
5804.26
-2519.66
7098.05
-2617.21
8241.59
-2229.45
8939.76
-1258.14
9011.77
-7.20842
8529.56
1046.38
7817.38
1473.77
7130.49
1418.97
6553.8
1202.24
6093.68
972.656
5737.59
767.582
5471.88
589.183
5285.68
428.097
5170.27
270.146
5119.46
98.6992
5133.74
-99.5832
5222.97
-323.046
5400.21
-548.516
5666.87
-729.603
5992.68
-797.02
6303.12
-680.117
6499.43
-369.784
6503.93
55.1007
6318.46
435.623
6026.38
637.777
5703.28
686.888
5393.07
645.642
5116.05
558.195
4879.23
448.548
4686.07
324.366
4540.66
188.123
4442.15
52.0429
4367.18
-47.6651
4254.33
-57.1373
4061.04
-0.00229523
3935.82
-118.437
4174.48
-632.849
4919.41
-1416.12
6093.93
-2187.75
7558.13
-2784.95
9186.62
-3152.72
10865.5
-3276.88
12486.1
-3163.59
13950
-2833.5
15168.5
-2305.72
16056.4
-1598.68
16530.6
-747.927
16566.2
106.406
16186.1
885.514
1173.38
2277.52
228.327
2218.25
174.901
2166.58
153.677
2119.15
141.668
2075.28
130.651
2033.54
123.163
1992.67
118.72
1951.92
115.941
1909.87
117.037
1864.08
125.167
1811.91
141.342
1751.08
164.924
1679.45
195.862
1594.89
233.915
1495.62
276.944
1381.13
319.983
1253.34
356.596
1116.58
383.556
978.159
397.097
849.357
385.735
740.532
345.075
656.326
282.257
594.495
212.439
548.15
151.793
507.769
115.979
466.239
105.193
420.27
110.239
358.126
153.06
301.728
135.158
260.522
110.22
126.86
248.421
-166.297
342.122
-472.377
321.449
-631.702
282.458
-728.232
318.479
-805.413
366.815
-848.887
321.169
-825.86
157.54
-754.854
-14.0548
-651.525
-168.008
-513.188
-368.872
-338.557
-610.832
-108.566
-859.336
198.174
-1076.86
575.38
-1238.77
1006.08
-1389.94
1496.2
-1605.36
2070.45
-1948.38
2771.09
-2445.92
3643.96
-3042.76
4701.99
-3577.69
5888.4
-3803.62
7044.93
-3385.98
7898.89
-2112.1
8201.47
-309.79
7910.29
1337.56
7330.22
2053.83
6747.96
2001.23
6260.87
1689.33
5877.57
1355.96
5584.59
1060.56
5364.33
809.448
5197.82
594.606
5063.73
404.231
4941.76
220.675
4826.32
15.8529
4738.87
-235.59
4718.87
-528.522
4801.83
-812.563
4993.05
-988.239
5245.99
-933.057
5470.57
-594.36
5560.39
-34.7264
5464.91
531.105
5247.99
854.7
4980.59
954.285
4703.99
922.247
4434.95
827.232
4175.04
708.463
3920.12
579.279
3665.3
442.943
3402.44
314.912
3094.37
260.4
2647.17
390.064
2138.55
508.619
2045.4
-25.286
2550.96
-1138.41
3421.98
-2287.13
4509.34
-3275.11
5786.6
-4062.21
7234.75
-4600.87
8798.01
-4840.15
10387.5
-4753.11
11903.1
-4349.08
13249.4
-3652.04
14336.7
-2685.95
15065.7
-1476.89
15359.8
-187.711
15183.8
1061.45
1612.73
2280.55
307.118
2220.66
234.792
2168.33
206.005
2120.13
189.874
2074.99
175.792
2031.21
166.947
1987.32
162.613
1942.39
160.872
1894.81
164.618
1842.03
177.95
1781.48
201.891
1711.39
235.02
1630.33
276.92
1536.55
327.699
1427.88
385.612
1303.2
444.674
1164.94
494.855
1020.13
528.366
879.626
537.605
756.213
509.151
657.989
443.302
585.125
355.125
531.915
265.654
490.31
193.404
451.063
155.231
407.465
148.797
354.497
163.212
293.943
213.621
166.074
263.033
-59.6081
335.909
-317.944
506.761
-586.443
610.624
-794.609
529.618
-890.712
378.563
-920.614
348.384
-908.995
355.2
-871.452
283.63
-829.405
115.499
-775.357
-68.0976
-688.104
-255.256
-568.679
-488.293
-417.388
-762.119
-226.739
-1049.98
21.6921
-1325.29
339.829
-1556.9
715.09
-1765.2
1132.71
-2022.98
1592.23
-2407.89
2116.76
-2970.45
2761.55
-3687.55
3586.57
-4402.71
4598.59
-4815.64
5704.19
-4491.58
6663.04
-3070.95
7181.43
-828.181
7106.57
1412.42
6683.89
2476.51
6226.46
2458.67
5838.93
2076.85
5529.71
1665.18
5285.09
1305.19
5087.62
1006.91
4919.95
762.277
4764.08
560.106
4600.11
384.641
4413.57
202.398
4214.98
-36.9992
4047.36
-360.911
3971.12
-736.318
4030.66
-1047.78
4209.78
-1112.17
4429.07
-813.654
4569.12
-174.771
4535.81
564.418
4376.56
1013.95
4156.03
1174.82
3910.78
1167.49
3653.12
1084.89
3380.54
981.044
3089.48
870.336
2778.04
754.39
2423.08
669.867
1960.68
722.804
1350.23
1000.51
1026.27
832.579
1352.14
-351.153
1959.03
-1745.3
2616.49
-2944.59
3369.62
-4028.25
4289.36
-4981.95
5413.68
-5725.18
6730.69
-6157.16
8179.01
-6201.42
9665.92
-5835.99
11088.8
-5074.91
12346.3
-3943.5
13325
-2455.51
13904.3
-766.995
13969.8
995.896
1916.67
2275
385.037
2215.48
294.309
2162.91
258.582
2113.98
238.802
2067.31
222.468
2020.97
213.289
1973.36
210.225
1923.43
210.802
1869.35
218.691
1808.35
238.957
1737.95
272.289
1657.08
315.896
1565.14
368.856
1460.59
432.251
1340.77
505.438
1204.51
580.939
1056.22
643.148
906.545
678.039
768.911
675.241
655.229
622.837
569.662
528.872
508.065
416.726
463.93
309.793
428.365
228.974
392.357
191.244
355.294
185.865
286.607
231.905
110.953
389.28
-194.541
568.53
-492.925
634.295
-671.434
685.271
-789.854
729.045
-868.238
608.004
-915.06
425.386
-934.173
367.5
-928.189
349.218
-909.883
265.327
-890.43
96.0504
-851.969
-106.555
-780.612
-326.611
-678.571
-590.331
-548.44
-892.248
-389.657
-1208.76
-191.91
-1523.03
69.012
-1817.82
398.917
-2095.1
774.356
-2398.42
1167.5
-2801.04
1566.93
-3369.88
2006.49
-4127.11
2568.47
-4964.69
3329.42
-5576.58
4295.53
-5457.69
5295.74
-4071.16
6009.26
-1541.7
6175.89
1245.79
5919.21
2733.18
5586.87
2791.02
5293.44
2370.28
5048.45
1910.17
4841.35
1512.29
4659.67
1188.59
4492.23
929.713
4328.21
724.128
4154.08
558.775
3950.87
405.604
3704.68
209.192
3435.34
-91.5686
3217.15
-518.132
3141.45
-972.077
3231.34
-1202.07
3424.88
-1007.19
3596.73
-346.613
3607.41
553.732
3490.1
1131.26
3306.78
1358.14
3088.51
1385.76
2842.82
1330.57
2567.51
1256.36
2262.2
1175.65
1915.61
1100.98
1485.44
1100.04
964.4
1243.84
430.211
1534.7
539.936
722.854
1096.36
-907.572
1569.61
-2218.56
2000.04
-3375.02
2469.34
-4497.55
3053.3
-5565.91
3821.43
-6493.31
4811.83
-7147.57
6014.01
-7403.6
7370.65
-7192.63
8789.65
-6493.91
10162.6
-5316.43
11364.2
-3657.18
12245.8
-1648.53
12599.9
641.809
2061.44
2249.31
460.135
2191.78
351.836
2139.94
310.423
2090.74
288.013
2042.56
270.643
1993.48
262.378
1941.95
261.748
1887.07
265.688
1826.9
278.862
1758.34
307.517
1678.89
351.748
1587.92
406.862
1485.31
471.476
1369.34
548.218
1237.25
637.532
1089.21
728.98
933.109
799.253
783.214
827.936
653.546
804.913
552.993
723.392
480.762
601.107
429.161
468.333
395.601
343.358
375.952
248.63
347.412
219.79
254.417
278.866
49.7428
436.585
-221.837
660.864
-490.159
836.854
-692.805
836.944
-796.959
789.428
-847.002
779.091
-885.54
646.545
-932.625
472.474
-968.012
402.89
-982.629
363.838
-984.627
267.33
-978.708
90.1361
-950.875
-134.383
-893.242
-384.24
-806.47
-677.099
-693.518
-1005.2
-555.847
-1346.43
-390.763
-1688.11
-180.731
-2027.85
95.6552
-2371.49
429.74
-2732.5
782.415
-3153.72
1112.53
-3699.99
1411.72
-4426.3
1737.15
-5290.11
2196.27
-6035.71
2906.66
-6168.08
3841.93
-5006.43
4708.23
-2408
5143.56
810.468
5063.2
2813.54
4853.69
3000.53
4648.22
2575.75
4461.83
2096.56
4290.09
1684.03
4127.27
1351.41
3968.58
1088.4
3809.27
883.44
3642.35
725.696
3453.91
594.048
3218.83
444.268
2922.35
204.914
2618.25
-214.037
2427.01
-780.832
2405.79
-1180.85
2526.83
-1128.23
2687.43
-507.209
2718.12
523.034
2627.07
1222.32
2468.87
1516.34
2270.59
1584.04
2042.7
1558.47
1785.37
1513.68
1482.72
1478.31
1093.23
1490.46
585.293
1607.98
73.2391
1755.9
-106.213
1714.15
393.187
223.455
893.776
-1408.16
1242.63
-2567.41
1532.67
-3665.05
1806.45
-4771.33
2120.32
-5879.78
2549.75
-6922.75
3167.53
-7765.34
4022.11
-8258.18
5121.85
-8292.38
6419.63
-7791.68
7819.97
-6716.78
9195.05
-5032.26
10380.9
-2834.36
11079
-56.3294
2011.04
2214.46
533.863
2157.25
409.05
2104.83
362.841
2054.21
338.64
2003.48
321.37
1950.61
315.254
1894.16
318.196
1833.48
326.365
1766.82
345.53
1691.02
383.312
1603.59
439.188
1503.87
506.581
1391.3
584.044
1263.75
675.775
1119.25
782.034
961
887.23
801.166
959.088
656.494
972.611
539.281
922.128
453.066
809.61
393.497
660.678
357.607
504.226
343.593
357.376
317.768
274.46
208.338
329.225
-11.0858
498.294
-258.706
684.207
-458.822
860.981
-615.176
993.21
-736.347
958.117
-817.574
870.656
-867.206
828.725
-917.23
696.57
-980.301
535.547
-1031.28
453.873
-1061.37
393.932
-1077.4
283.361
-1083.06
95.7959
-1067.55
-149.883
-1024.18
-427.617
-953.139
-748.133
-856.782
-1101.55
-736.407
-1466.8
-591.245
-1833.27
-414.13
-2204.97
-189.931
-2595.69
89.9298
-3012.36
401.947
-3465.73
696.154
-3994.2
928.789
-4658.93
1103.82
-5465.14
1293.99
-6225.88
1660.39
-6534.47
2372.45
-5718.49
3292.95
-3328.51
4017.44
85.9792
4135.31
2695.67
4052.31
3083.53
3933.09
2694.96
3804.37
2225.28
3669.93
1818.46
3531.13
1490.21
3389.06
1230.47
3244.11
1028.39
3094.75
875.057
2933.65
755.155
2742.6
635.311
2498.82
448.701
2211.56
73.2229
1968.05
-537.329
1831.22
-1044.02
1823.69
-1120.71
1895.83
-579.349
1893.89
524.982
1800.48
1315.73
1657.15
1659.66
1489.82
1751.38
1300.7
1747.58
1058.04
1756.34
705.168
1831.18
230.742
1964.89
-235.074
2073.8
-459.139
1979.96
-211.803
1466.82
354.823
-343.171
714.883
-1768.22
983.722
-2836.25
1193.36
-3874.7
1354.02
-4931.99
1492.08
-6017.84
1659.09
-7089.76
1927.71
-8033.96
2381.99
-8712.47
3099.75
-9010.14
4113.88
-8805.81
5388.65
-7991.55
6827
-6470.61
8273.98
-4281.34
9364.18
-1146.52
1704.86
2172.12
606.129
2114.89
466.287
2061.26
416.47
2008.52
391.378
1954.54
375.355
1897.12
372.673
1834.82
380.498
1767.19
393.998
1692.88
419.843
1609.28
466.909
1514.16
534.318
1406.3
614.442
1283.94
706.403
1144.74
814.98
988.954
937.82
823.997
1052.19
665.872
1117.22
531.785
1106.7
429.57
1024.35
357.609
881.575
315.995
702.296
300.99
519.236
270.744
387.628
150.163
395.048
-55.4884
534.88
-264.403
707.212
-430.832
850.639
-552.888
983.039
-648.682
1089.01
-741.491
1050.93
-829.487
958.654
-898.729
897.969
-968.364
766.208
-1045.41
612.593
-1109.41
517.88
-1153.85
438.371
-1183.52
313.041
-1201.03
113.309
-1198.17
-152.741
-1169.44
-456.347
-1115.08
-802.488
-1036.65
-1179.98
-934.34
-1569.11
-806.929
-1960.68
-650.842
-2361.05
-461.69
-2784.84
-234.76
-3239.28
24.7244
-3725.22
283.802
-4253.28
489.068
-4864.2
603.82
-5579.89
639.181
-6261.24
693.726
-6589.01
1035.94
-6060.71
1830.6
-4123.16
2795.13
-878.55
3148.88
2341.92
3204.41
3028
3173.64
2725.74
3103.82
2295.1
3009.19
1913.09
2898.57
1600.84
2778.79
1350.25
2654.99
1152.19
2530.03
1000.02
2402.5
882.685
2266.88
770.935
2117.6
597.977
1938.94
251.889
1726.82
-325.217
1503.82
-821.01
1338.45
-955.335
1232.29
-473.189
1132.9
624.369
1024.11
1424.52
914.297
1769.47
786.658
1879.02
587.101
1947.14
267.177
2076.27
-136.268
2234.62
-491.894
2320.52
-665.501
2247.4
-676.22
1990.68
-231.72
1022.32
281.229
-856.12
565.407
-2052.4
781.127
-3051.97
941.586
-4035.16
1045.03
-5035.43
1093.7
-6066.5
1106.14
-7102.21
1127.81
-8055.62
1235.21
-8819.87
1531.14
-9306.07
2118.46
-9393.12
3062.15
-8935.24
4366.46
-7774.91
5939.4
-5854.29
7400.29
-2607.41
1061.59
2122.78
677.097
2065.34
523.73
2010.16
471.648
1954.97
446.575
1897.39
432.935
1835.12
434.948
1766.52
449.095
1691.19
469.329
1608.33
502.704
1516.32
558.918
1413.28
637.369
1296.92
730.803
1164.21
839.113
1013.75
965.44
849.442
1102.13
682.938
1218.7
532.42
1267.73
412.869
1226.25
326.435
1110.78
272.788
935.225
251.419
723.668
218.073
552.586
96.4249
509.281
-95.5097
586.986
-267.312
706.685
-395.567
835.469
-498.951
954.024
-586.358
1070.45
-665.545
1168.19
-757.538
1142.92
-857.815
1058.93
-945.558
985.714
-1031.67
852.324
-1120.43
701.349
-1196.7
594.153
-1254.62
496.292
-1296.7
355.123
-1324.93
141.539
-1333.86
-143.802
-1319.38
-470.828
-1282.18
-839.687
-1223.29
-1238.87
-1141.81
-1650.59
-1035.38
-2067.11
-900.925
-2495.51
-737.068
-2948.69
-546.181
-3430.17
-335.886
-3935.51
-123.143
-4466.02
54.8849
-5042.23
149.545
-5674.55
134.745
-6246.44
36.8073
-6491.08
38.858
-6062.76
488.457
-4572.76
1424.29
-1814.38
2109.24
1656.96
2326.18
2811.07
2388.2
2663.72
2378.89
2304.41
2326.08
1965.9
2246.65
1680.26
2153.01
1443.89
2054.36
1250.84
1957.6
1096.77
1868.05
972.238
1792.05
846.936
1742.08
647.942
1701.69
292.285
1578.55
-202.081
1326.1
-568.555
1012.95
-642.189
671.147
-131.381
454.431
841.085
339.548
1539.4
225.374
1883.65
28.6692
2075.73
-262.42
2238.23
-568.642
2382.49
-787.6
2453.58
-865.973
2398.89
-796.244
2177.68
-617.955
1812.39
-111.719
516.082
236.948
-1204.79
464.169
-2279.62
636.426
-3224.23
758.73
-4157.46
827.19
-5103.9
834.042
-6073.35
777.25
-7045.42
674.861
-7953.23
571.894
-8716.91
541.453
-9275.63
692.928
-9544.6
1159.37
-9401.68
2071.99
-8687.53
3492.45
-7274.75
5170.6
-4285.56
25.4068
2068.21
746.266
2010.87
581.074
1954.15
528.363
1896.35
504.377
1834.86
494.425
1767.24
502.577
1691.6
524.732
1607.65
553.284
1515.44
594.909
1414.52
659.849
1302.89
748.998
1176.89
856.806
1033.17
982.835
873.064
1125.55
704.768
1270.43
542.822
1380.64
405.042
1405.52
301.995
1329.3
234.021
1178.76
200.246
969.005
164.174
759.744
51.9404
664.824
-121.501
682.726
-271.927
737.416
-378.621
813.382
-463.107
919.958
-541.843
1032.76
-618.797
1147.4
-696.472
1245.87
-792.115
1238.57
-900.653
1167.47
-1002.24
1087.3
-1101.84
951.927
-1200.86
800.378
-1287.64
680.928
-1356.63
565.285
-1408.73
407.233
-1445.55
178.36
-1464.53
-124.815
-1462.99
-472.366
-1442.54
-860.133
-1404.12
-1277.29
-1346.06
-1708.66
-1264.97
-2148.19
-1157.42
-2603.06
-1022.13
-3083.98
-861.988
-3590.31
-686.491
-4111.01
-513.259
-4639.25
-370.543
-5184.94
-298.693
-5746.4
-330.63
-6214.51
-460.266
-6361.44
-580.284
-5942.74
-452.052
-4700.99
85.8208
-2352.25
1059.83
682.959
1434.67
2436.23
1590.27
2508.12
1642.17
2252.51
1632.03
1976.04
1584.74
1727.54
1518.4
1510.24
1447.51
1321.73
1383.64
1160.65
1335.43
1020.45
1313.03
869.332
1345.32
615.654
1421.09
216.512
1366.88
-147.869
1100.39
-302.059
661.479
-203.283
119.002
411.097
-206.926
1167.01
-393.493
1725.97
-594.553
2084.71
-824.603
2305.78
-1019.82
2433.45
-1116.75
2479.42
-1102.35
2439.18
-998.592
2295.13
-813.428
1992.51
-524.561
1523.52
-39.8438
31.3655
227.563
-1472.19
415.693
-2467.75
554.315
-3362.85
645.338
-4248.48
685.153
-5143.71
665.114
-6053.31
577.647
-6957.95
428.482
-7804.06
239.028
-8527.45
43.3457
-9079.95
-92.1124
-9409.14
-48.8346
-9444.96
342.52
-9078.88
1235.31
-8167.54
2741.37
-5791.61
-1317.9
1990.72
812.643
1936.16
635.636
1880.72
583.807
1823.14
561.954
1760.48
557.088
1689.78
573.275
1608.5
606.018
1516.49
645.295
1415.14
696.254
1305.12
769.876
1183.85
870.263
1046.79
993.875
892.292
1137.33
725.997
1291.84
559.661
1436.76
408.239
1532.07
286.565
1527.19
201.923
1413.95
154.231
1226.45
114.708
1008.53
15.7077
858.747
-139.837
820.372
-276.181
819.072
-373.324
834.561
-452.017
892.077
-523.74
991.683
-595.196
1104.22
-668.469
1220.68
-745.806
1323.21
-842.016
1334.78
-953.863
1279.32
-1064.68
1198.12
-1174.6
1061.85
-1281.72
907.505
-1376.15
775.356
-1452.79
641.926
-1511.59
466.035
-1554.07
220.84
-1580.43
-98.4493
-1589.51
-463.284
-1584.25
-865.392
-1565.93
-1295.6
-1532.55
-1742.04
-1479.99
-2200.75
-1404.27
-2678.78
-1303.5
-3184.75
-1179.32
-3714.49
-1039.48
-4250.84
-900.093
-4778.64
-787.652
-5297.38
-739.5
-5794.55
-783.56
-6170.45
-907.407
-6237.59
-1045.35
-5804.8
-1087.35
-4658.99
-729.13
-2710.48
60.1323
-106.302
537.575
1958.78
786.906
2258.79
899.551
2139.87
932.232
1943.36
919.599
1740.18
885.927
1543.91
846.735
1360.92
807.27
1200.11
773.193
1054.53
760.943
881.582
822.92
553.677
930.591
108.843
849.874
-67.152
413.949
133.867
-243.515
454.182
-742.585
910.168
-1030.44
1454.86
-1223.17
1918.7
-1361
2222.55
-1433.95
2378.72
-1424
2423.49
-1334.18
2389.6
-1190.6
2295.6
-1018.91
2123.44
-837.123
1810.73
-468.312
1154.71
20.6254
-457.572
255.327
-1706.89
417.376
-2629.8
532.854
-3478.33
602.31
-4317.94
621.319
-5162.72
581.617
-6013.61
475.649
-6851.98
305.931
-7634.34
86.0104
-8307.53
-165.477
-8828.46
-416.898
-9157.72
-599.269
-9262.59
-616.37
-9061.78
-405.915
-8378
389.645
-6587.17
-2574.2
1917.32
884.137
1858.12
694.837
1798.87
643.067
1738.56
622.261
1673.84
621.813
1600.81
646.301
1515.37
691.459
1416.88
743.79
1307.56
805.58
1188.4
889.031
1056.15
1002.52
907.167
1142.86
744.016
1300.48
576.91
1458.95
419.004
1594.67
282.818
1668.26
179.152
1630.86
114.342
1478.76
71.2732
1269.52
-12.6875
1092.49
-152.856
998.919
-281.89
949.409
-374.54
911.725
-452.634
912.658
-526.134
965.578
-595.447
1061
-663.892
1172.67
-734.092
1290.88
-809.339
1398.46
-902.926
1428.37
-1014.08
1390.48
-1129.44
1313.48
-1245.74
1178.14
-1358.07
1019.84
-1456.93
874.221
-1537.19
722.186
-1598.45
527.302
-1643.11
265.502
-1673.78
-67.7734
-1690.5
-446.563
-1697.73
-858.162
-1697.41
-1295.92
-1687.76
-1751.69
-1664.56
-2223.94
-1623.56
-2719.78
-1562.19
-3246.12
-1480.32
-3796.36
-1382.25
-4348.91
-1279.65
-4881.24
-1195.51
-5381.52
-1165.46
-5824.6
-1218.17
-6117.73
-1343.59
-6112.17
-1481.37
-5667.03
-1523.65
-4616.7
-1380.65
-2853.48
-898.176
-588.771
-359.246
1419.85
-25.6846
1925.23
152.544
1961.64
232.991
1862.92
253.381
1719.79
238.283
1559.01
207.813
1391.39
191.7
1216.23
243.888
1002.34
373.08
752.392
370.797
555.96
24.397
455.244
-517.062
474.307
-974.4
591.205
-1344.04
823.823
-1615
1181.13
-1770.93
1610.8
-1825.73
1973.5
-1799.28
2196.09
-1707.14
2286.58
-1563.28
2279.63
-1382.22
2208.54
-1179.24
2092.62
-960.643
1904.84
-787.048
1637.13
-327.821
695.489
107.901
-893.293
318.229
-1917.22
462.119
-2773.69
563.149
-3579.36
621.258
-4376.05
631.088
-5172.55
584.073
-5966.59
472.498
-6740.41
296.128
-7457.97
64.7782
-8076.18
-206.274
-8557.41
-498.382
-8865.61
-775.461
-8985.51
-1015.02
-8822.23
-1186.67
-8206.34
-1144.73
-6629.11
-3266.89
1846.13
957.245
1782.67
758.298
1717.51
708.225
1651.11
688.665
1580.94
691.986
1503.38
723.863
1413.31
781.531
1309.25
847.848
1192.86
921.969
1064.05
1017.84
919.528
1147.04
759.418
1302.97
592.11
1467.79
430.892
1620.17
287.297
1738.27
169.086
1786.47
83.7708
1716.18
29.8269
1532.71
-38.3311
1337.68
-159.14
1213.31
-285.692
1125.47
-377.914
1041.63
-456.168
989.981
-534.014
990.505
-608.527
1040.09
-677.28
1129.75
-743.163
1238.55
-809.73
1357.45
-881.273
1470
-970.039
1517.13
-1077.4
1497.84
-1192.99
1429.07
-1311.54
1296.7
-1425.68
1133.97
-1525.42
973.966
-1605.39
802.162
-1665.41
587.316
-1709.15
309.241
-1741.39
-35.5241
-1762.93
-425.021
-1779.22
-841.879
-1792.92
-1282.22
-1803.06
-1741.55
-1806.18
-2220.82
-1798.77
-2727.18
-1778.58
-3266.31
-1744.35
-3830.59
-1696.46
-4396.8
-1639.76
-4937.93
-1589.48
-5431.8
-1575.59
-5838.49
-1628.82
-6064.5
-1750.88
-5990.12
-1897.58
-5520.33
-1988.43
-4525.85
-1936.45
-2905.46
-1609.38
-915.841
-1093.67
904.144
-751.557
1583.12
-554.492
1764.58
-453.979
1762.4
-406.411
1672.22
-369.761
1522.36
-315.437
1337.07
-264.879
1165.67
-317.858
1055.32
-569.481
1004.02
-970.537
957.016
-1377.28
861.987
-1688.63
785.661
-1913.08
815.648
-2076.52
987.271
-2173.08
1277.69
-2178.94
1616.66
-2100.54
1895.1
-1963.07
2058.62
-1788.19
2111.7
-1588.04
2079.49
-1369.12
1989.62
-1135.37
1858.88
-880.619
1650.09
-563.771
1320.29
-69.6276
201.346
222.604
-1185.52
407.877
-2102.49
539.367
-2905.18
632.223
-3672.21
686.309
-4430.13
696.596
-5182.84
654.982
-5924.98
554.157
-6639.58
390.761
-7294.58
168.654
-7854.07
-100.192
-8288.56
-401.372
-8564.43
-723.32
-8663.56
-1073.49
-8472.06
-1365.66
-7914.17
-1535.61
-6459.16
-3555.67
1773.6
1031.19
1707.18
824.726
1636.76
778.64
1563.54
761.891
1485.72
769.807
1401
808.584
1304.76
877.768
1195.02
957.597
1071.33
1045.66
931.57
1157.6
774.345
1304.27
606.212
1471.11
441.193
1632.82
292.649
1768.72
167.326
1863.6
67.3052
1886.49
-4.62063
1788.11
-67.6485
1595.74
-164.608
1434.65
-283.642
1332.34
-379.307
1221.14
-457.476
1119.8
-538.402
1070.91
-620.137
1072.24
-696.245
1116.2
-764.319
1197.83
-827.211
1301.45
-889.295
1419.54
-955.755
1536.46
-1038.12
1599.5
-1139.4
1599.13
-1251.84
1541.51
-1369.06
1413.92
-1481.7
1246.61
-1579.09
1071.36
-1655.97
879.049
-1712.8
644.144
-1754.38
350.83
-1787.15
-2.75102
-1811.91
-400.263
-1834.1
-819.688
-1856.87
-1259.44
-1880.24
-1718.18
-1902.27
-2198.79
-1921.37
-2708.08
-1937.25
-3250.44
-1949.58
-3818.25
-1956.77
-4389.61
-1957.41
-4937.3
-1956.68
-5432.52
-1972.27
-5822.9
-2025.89
-6010.88
-2126.15
-5889.86
-2258.75
-5387.72
-2370.54
-4414.06
-2360.13
-2915.88
-2129.58
-1146.39
-1702.3
476.87
-1379.86
1260.68
-1163.97
1548.69
-1020.08
1618.51
-924.484
1576.63
-890.318
1488.19
-964.775
1411.52
-1174.68
1375.57
-1477.37
1358.01
-1783.44
1310.1
-2019.65
1193.22
-2181.34
1023.68
-2295.07
899.386
-2375.68
896.259
-2417.52
1029.12
-2403.84
1264
-2320.05
1532.87
-2176.12
1751.17
-1992.96
1875.46
-1785.21
1903.95
-1559.2
1853.48
-1320.61
1751.02
-1071.71
1609.98
-845.974
1424.36
-438.957
913.268
84.7176
-322.327
339.478
-1440.28
509.447
-2272.46
633.797
-3029.53
723.08
-3761.5
777.25
-4484.3
792.426
-5198.01
762.178
-5894.73
680.443
-6557.85
543.512
-7157.65
351.036
-7661.6
109.736
-8047.26
-172.802
-8281.89
-501.254
-8335.11
-882.641
-8090.67
-1201.43
-7595.39
-1396.3
-6264.3
-3708.88
1700.72
1104.95
1632.14
893.301
1556.9
853.884
1476.55
842.24
1389.63
856.735
1295.68
902.528
1191.81
981.638
1075.52
1073.89
943.029
1178.15
790.669
1309.96
621.745
1473.2
450.628
1642.23
294.779
1788.67
163.912
1899.59
58.0253
1969.48
-25.3831
1969.9
-93.3405
1856.06
-174.035
1676.43
-278.96
1539.57
-375.699
1429.08
-454.482
1299.92
-535.607
1200.93
-622.974
1158.28
-708.276
1157.55
-785.427
1193.35
-852.044
1264.45
-911.036
1360.44
-967.581
1476.08
-1027.74
1596.62
-1102.54
1674.31
-1196.23
1692.82
-1303.22
1648.5
-1416.62
1527.32
-1525.55
1355.54
-1618.75
1164.57
-1691.55
951.847
-1745.63
698.232
-1786.58
391.773
-1821.1
31.77
-1849.12
-372.238
-1875.42
-793.389
-1903.13
-1231.72
-1933.06
-1688.26
-1964.84
-2167.01
-1999.17
-2673.75
-2038.62
-3210.99
-2085.9
-3770.97
-2141.08
-4334.43
-2201.21
-4877.16
-2264.83
-5368.9
-2335.64
-5752.09
-2417
-5929.51
-2508.02
-5798.84
-2608.02
-5287.72
-2694.63
-4327.44
-2691.04
-2919.47
-2515.88
-1321.55
-2163.78
124.77
-1862.9
959.803
-1656.83
1342.62
-1559.36
1521.04
-1586.22
1603.48
-1736.54
1638.51
-1963.09
1638.07
-2187.13
1599.62
-2351.51
1522.39
-2443.78
1402.36
-2485.53
1234.97
-2511.47
1049.62
-2533.63
921.543
-2542.62
905.249
-2522.11
1008.61
-2455.73
1197.62
-2334.42
1411.55
-2165.79
1582.55
-1963.64
1673.31
-1737.81
1678.12
-1494.39
1610.06
-1239.11
1495.74
-969.018
1339.89
-717.558
1172.9
-238.067
433.779
210.816
-771.21
441.795
-1671.26
603.924
-2434.59
725.495
-3151.1
814.323
-3850.32
870.452
-4540.43
890.864
-5218.42
871.025
-5874.89
806.391
-6493.21
695.05
-7046.31
537.201
-7503.75
335.385
-7845.45
91.0845
-8037.59
-202.478
-8041.55
-547.28
-7745.87
-842.624
-7300.04
-985.974
-6120.95
-3894.06
1610.04
1174.24
1545.57
957.771
1470.93
928.524
1386.85
926.318
1291.75
951.846
1188.03
1006.25
1075.71
1093.96
951.444
1198.16
807.571
1322.03
640.903
1476.63
462.31
1651.79
293.637
1810.9
152.399
1929.91
42.1739
2009.81
-42.7681
2054.43
-111.402
2038.54
-182.149
1926.81
-273.306
1767.59
-368.376
1634.64
-447.253
1507.96
-525.519
1378.19
-614.834
1290.25
-707.83
1251.28
-795.823
1245.54
-873.015
1270.55
-936.984
1328.42
-990.978
1414.43
-1041.04
1526.15
-1094.05
1649.63
-1160.66
1740.92
-1245.97
1778.13
-1346.23
1748.76
-1454.48
1635.57
-1558.87
1459.93
-1647.86
1253.56
-1717.83
1021.82
-1771.88
752.285
-1815.39
435.289
-1853.89
70.2757
-1886.16
-339.967
-1916.19
-763.359
-1946.84
-1201.07
-1979.31
-1655.78
-2014.35
-2131.97
-2054.14
-2633.95
-2103.33
-3161.8
-2167.65
-3706.64
-2251.08
-4251.01
-2354.36
-4773.88
-2476.73
-5246.54
-2615.36
-5613.46
-2758.89
-5785.97
-2888.31
-5669.42
-2990.61
-5185.42
-3049.96
-4268.1
-3021.89
-2947.53
-2871.61
-1471.83
-2607.42
-139.425
-2400.88
753.264
-2306.08
1247.83
-2327.93
1542.89
-2436.18
1711.73
-2572.15
1774.49
-2675.95
1741.87
-2720.53
1644.2
-2715.89
1517.75
-2684.68
1371.15
-2648.42
1198.71
-2622.27
1023.48
-2603.2
902.469
-2576.44
878.493
-2524.53
956.697
-2432.63
1105.72
-2293.57
1272.49
-2112.47
1401.45
-1899.83
1460.67
-1665.79
1444.08
-1420.21
1364.48
-1164.27
1239.8
-903.865
1079.49
-520.407
789.441
-20.9964
-65.6312
301.014
-1093.22
513.616
-1883.87
672.202
-2593.18
793.752
-3272.65
883.587
-3940.16
941.818
-4598.66
966.03
-5242.64
952.723
-5861.58
898.952
-6439.44
804.075
-6951.43
669.979
-7369.65
498.393
-7673.86
291.689
-7830.89
54.1358
-7804
-208.631
-7483.1
-444.918
-7063.76
-450.501
-6115.36
-4225.94
1522.85
1253.32
1453.48
1027.14
1377.38
1004.62
1291.19
1012.52
1189.92
1053.11
1077.64
1118.53
956.914
1214.68
822.531
1332.54
663.31
1481.25
479.897
1660.05
293.563
1838.13
132.595
1971.87
12.0782
2050.43
-71.8066
2093.7
-133.465
2116.09
-191.083
2096.15
-265.266
2001
-355.615
1857.94
-437.501
1716.53
-511.256
1581.72
-596.872
1463.81
-693.82
1387.2
-791.151
1348.61
-880.819
1335.21
-956.789
1346.52
-1016.91
1388.54
-1065.12
1462.64
-1108.34
1569.36
-1154.04
1695.33
-1212.47
1799.34
-1289.3
1854.97
-1382.35
1841.82
-1485
1738.21
-1585.05
1559.98
-1671.23
1339.74
-1741.08
1091.68
-1798.44
809.637
-1847.31
484.164
-1891.11
114.074
-1928.04
-303.028
-1961.72
-729.678
-1994.82
-1167.97
-2028.88
-1621.72
-2065.27
-2095.57
-2106.7
-2592.52
-2158.18
-3110.33
-2226.35
-3638.47
-2317.69
-4159.66
-2437.64
-4653.93
-2590.81
-5093.36
-2777.23
-5427.05
-2983.81
-5579.39
-3184.14
-5469.09
-3350.66
-5018.9
-3455.22
-4163.54
-3463.56
-2939.19
-3367.92
-1567.48
-3196.95
-310.392
-3070.59
626.9
-3018.26
1195.5
-3016.57
1541.21
-3025.75
1720.91
-3012.11
1760.84
-2966.32
1696.09
-2900.53
1578.41
-2828.62
1445.84
-2757.95
1300.48
-2695.09
1135.85
-2644.87
973.252
-2601.56
859.16
-2551.36
828.297
-2478.29
883.622
-2369.45
996.881
-2219.42
1122.46
-2032.85
1214.88
-1819.49
1247.31
-1589.86
1214.45
-1352.27
1126.9
-1102
989.523
-857.485
834.972
-408.402
340.359
63.2627
-537.295
342.073
-1372.03
543.792
-2085.58
700.511
-2749.9
822.739
-3394.88
913.583
-4031
972.852
-4657.93
998.733
-5268.52
988.348
-5851.2
939.485
-6390.58
852.583
-6864.53
730.157
-7247.23
574.431
-7518.13
392.53
-7648.99
200.131
-7611.6
21.4966
-7304.47
-154.934
-6887.33
-48.9276
-6221.37
-4659.87
1440.53
1338.53
1363.06
1104.61
1280.92
1086.76
1190.45
1102.99
1083.55
1160.01
964.343
1237.74
835.237
1343.79
686.594
1481.19
505.167
1662.68
301.358
1863.86
111.801
2027.69
-29.4241
2113.1
-117.18
2138.18
-170.373
2146.89
-212.213
2157.93
-263.807
2147.75
-338.195
2075.39
-421.699
1941.45
-496.34
1791.17
-574.267
1659.65
-668.418
1557.96
-771.171
1489.95
-871.67
1449.11
-961.817
1425.36
-1035.38
1420.08
-1090.92
1444.09
-1133.32
1505.05
-1170.23
1606.28
-1209.34
1734.44
-1260.26
1850.26
-1328.99
1923.7
-1414.77
1927.6
-1511.74
1835.19
-1608.16
1656.4
-1693.45
1425.03
-1765.8
1164.02
-1828.5
872.339
-1883.48
539.152
-1931.89
162.479
-1972.45
-262.458
-2008.8
-693.331
-2043.76
-1133
-2079.38
-1586.1
-2117.63
-2057.33
-2161.38
-2548.77
-2215.08
-3056.62
-2284.41
-3569.13
-2375.49
-4068.58
-2495.24
-4534.19
-2651.72
-4936.88
-2849.69
-5229.08
-3082.12
-5346.97
-3327.9
-5223.3
-3557.21
-4789.59
-3731.4
-3989.35
-3809.4
-2861.19
-3780.86
-1596.02
-3668.02
-423.228
-3547.29
506.165
-3448.98
1097.19
-3358.44
1450.67
-3260.89
1623.36
-3153.98
1653.93
-3046.69
1588.79
-2946.84
1478.56
-2854.11
1353.11
-2766.81
1213.18
-2687.7
1056.74
-2619.41