/*--------------------------------*- C++ -*----------------------------------*\
| =========                 |                                                 |
| \\      /  F ield         | OpenFOAM: The Open Source CFD Toolbox           |
|  \\    /   O peration     | Version:  4.1                                   |
|   \\  /    A nd           | Web:      www.OpenFOAM.org                      |
|    \\/     M anipulation  |                                                 |
\*---------------------------------------------------------------------------*/
FoamFile
{
    version     2.0;
    format      ascii;
    class       volVectorField;
    location    "1800";
    object      U;
}
// * * * * * * * * * * * * * * * * * * * * * * * * * * * * * * * * * * * * * //

dimensions      [0 1 -1 0 0 0 0];

internalField   nonuniform List<vector> 
26785
(
(-1.42994e-15 0.0648328 18.7191)
(-1.40797e-15 0.0541195 17.4553)
(-1.29319e-15 0.0488198 16.3894)
(-1.04464e-15 0.0451409 15.4729)
(-1.06946e-15 0.0418073 14.6345)
(-1.99355e-15 0.0390744 13.8647)
(-2.84057e-15 0.0368532 13.1618)
(-2.80878e-15 0.0349513 12.5156)
(-9.92814e-16 0.0336131 11.9153)
(-1.17144e-15 0.0331829 11.3466)
(-2.78715e-15 0.0337551 10.7916)
(-3.03804e-15 0.0352573 10.2338)
(-3.47903e-15 0.0376849 9.65889)
(-3.82969e-15 0.0409629 9.05347)
(-4.19768e-15 0.0447264 8.4077)
(-4.65101e-15 0.0482669 7.72042)
(-5.09945e-15 0.0508784 7.00182)
(-6.22815e-15 0.0526321 6.26804)
(-5.89527e-15 0.0538186 5.53027)
(-1.11647e-14 0.0534428 4.80198)
(-1.74071e-14 0.0503659 4.11466)
(-2.06648e-14 0.0440195 3.51209)
(-3.51926e-14 0.0348942 3.02871)
(-4.55887e-14 0.024706 2.67499)
(-6.05958e-14 0.0167211 2.43404)
(-6.70454e-14 0.0124668 2.25766)
(-6.75752e-14 0.0114455 2.10618)
(-6.6406e-14 0.0159787 1.93473)
(-6.87801e-14 0.0134645 1.72937)
(-7.09214e-14 0.0107632 1.56416)
(-8.16717e-14 0.0172428 1.39797)
(-6.79612e-14 0.0049018 1.21351)
(-5.23047e-14 -0.00650899 1.17451)
(-2.79795e-14 -0.00118196 1.20675)
(-3.94426e-14 -0.00212026 1.17406)
(-4.62891e-14 -0.0134018 1.07498)
(-4.09937e-14 -0.0309557 0.930635)
(-3.35867e-14 -0.0256018 0.761375)
(-2.62335e-14 0.0157605 0.544491)
(-2.42214e-14 0.0434727 0.304656)
(-1.67124e-15 0.0194793 0.372532)
(7.87595e-15 -0.0275367 0.89361)
(2.09984e-15 -0.0686243 1.74649)
(-4.6751e-15 -0.0972571 2.79854)
(-4.40026e-15 -0.117389 3.95483)
(-9.05637e-15 -0.136018 5.19651)
(-9.97196e-15 -0.161393 6.57115)
(-6.35111e-15 -0.204314 8.20701)
(-3.37143e-15 -0.271982 10.2882)
(-3.30594e-16 -0.35556 12.9389)
(2.49917e-15 -0.426528 16.1299)
(3.5813e-15 -0.440512 19.5922)
(3.0798e-15 -0.345899 22.7114)
(2.037e-15 -0.148806 24.7138)
(8.32239e-16 0.070637 25.0606)
(-3.67105e-16 0.236704 23.8147)
(8.7759e-16 0.302328 21.6801)
(-1.12978e-16 0.293075 19.4429)
(2.98853e-18 0.256287 17.491)
(6.40748e-16 0.215983 15.8829)
(-5.62806e-16 0.179626 14.5786)
(-7.92785e-16 0.148298 13.5308)
(-6.24147e-16 0.11932 12.7042)
(-1.62636e-15 0.086653 12.0867)
(-2.32106e-15 0.0433431 11.7013)
(-1.96107e-15 -0.0138735 11.6054)
(-1.77947e-15 -0.0796863 11.8448)
(-1.60805e-15 -0.139927 12.4171)
(-1.75475e-15 -0.176781 13.2502)
(-1.64591e-15 -0.174006 14.1883)
(-2.47644e-15 -0.125239 15.0051)
(-3.13296e-15 -0.0434935 15.4691)
(-2.99986e-15 0.0452284 15.4302)
(-2.73757e-15 0.113542 14.9134)
(-2.86134e-15 0.147646 14.1035)
(-1.4771e-15 0.15402 13.2024)
(-6.40062e-16 0.142874 12.3401)
(-6.10541e-16 0.121064 11.5852)
(-4.61606e-16 0.0924393 10.9721)
(-4.695e-16 0.05929 10.5193)
(1.97048e-16 0.0237965 10.242)
(-1.81413e-15 -0.0118372 10.1515)
(-3.03585e-15 -0.0446713 10.2318)
(-2.89929e-15 -0.0725531 10.4311)
(-3.77963e-15 -0.100127 10.6879)
(-4.10573e-15 -0.131432 10.9887)
(-5.02218e-15 -0.161934 11.444)
(-4.66592e-15 -0.207244 12.2924)
(-6.39414e-15 -0.286413 13.7358)
(-6.63251e-15 -0.382106 15.7811)
(-6.52827e-15 -0.460274 18.2639)
(-6.76694e-15 -0.498243 20.9482)
(-7.11595e-15 -0.487961 23.596)
(-7.46429e-15 -0.429133 25.9904)
(-7.54043e-15 -0.324201 27.9467)
(-7.39845e-15 -0.182395 29.2781)
(-6.72869e-15 -0.023337 29.9215)
(-5.85658e-15 0.119557 29.6708)
(-5.075e-15 0.23985 29.1365)
(-4.39511e-15 0.273864 27.1635)
(-1.48468e-15 0.176236 18.8492)
(-6.10426e-16 0.150048 17.5751)
(-7.83617e-16 0.137983 16.5056)
(-9.8597e-16 0.129733 15.5878)
(-8.67902e-16 0.121744 14.7492)
(-1.1931e-15 0.114982 13.9785)
(-1.88576e-15 0.109368 13.2722)
(-8.0042e-16 0.104439 12.6192)
(-1.27872e-15 0.100991 12.0083)
(-2.22696e-15 0.10011 11.4249)
(-2.46908e-15 0.102148 10.8512)
(-2.71166e-15 0.106955 10.2713)
(-3.07946e-15 0.114562 9.67162)
(-2.83641e-15 0.124755 9.03955)
(-4.9331e-15 0.136438 8.3658)
(-7.44369e-15 0.147506 7.64867)
(-4.08077e-15 0.155859 6.89678)
(-3.395e-15 0.161493 6.12621)
(-6.7157e-15 0.164604 5.35394)
(-3.20941e-15 0.161453 4.60619)
(-1.15076e-14 0.148853 3.92636)
(-1.27977e-14 0.126881 3.35822)
(-2.18174e-14 0.0993876 2.92133)
(-2.94984e-14 0.0723134 2.60325)
(-3.16702e-14 0.0531893 2.36852)
(-4.20855e-14 0.0441323 2.16827)
(-4.78421e-14 0.0433526 1.9733)
(-4.87623e-14 0.0560666 1.75555)
(-4.73338e-14 0.0460891 1.49847)
(-4.99347e-14 0.042557 1.27539)
(-4.4686e-14 0.0745573 1.07642)
(-3.70435e-14 0.0218936 0.813196)
(-3.71205e-14 -0.0424386 0.544493)
(-2.65044e-14 0.0087214 0.395674)
(-4.19742e-14 0.0767996 -0.0652359)
(-2.91243e-14 0.11709 -0.899085)
(-1.39857e-14 0.128158 -1.79606)
(-1.25164e-14 0.102035 -2.41772)
(-1.5816e-14 0.0470971 -2.44532)
(-1.45247e-14 -0.0311937 -2.16445)
(-1.67082e-15 -0.137606 -1.77555)
(9.73892e-15 -0.258769 -1.18013)
(-1.11199e-14 -0.358347 -0.388392)
(-3.89949e-15 -0.416811 0.724969)
(-3.18442e-15 -0.452298 1.98818)
(-8.22526e-16 -0.494957 3.33633)
(-1.35689e-15 -0.572554 4.81324)
(2.26619e-15 -0.710136 6.53132)
(5.9777e-15 -0.91117 8.63778)
(1.13203e-14 -1.13632 11.227)
(1.37229e-14 -1.3097 14.2824)
(1.40657e-14 -1.32962 17.6137)
(1.34032e-14 -1.06384 20.7636)
(1.34584e-14 -0.497623 23.0838)
(9.35751e-15 0.178623 23.8869)
(5.71629e-15 0.707331 22.9374)
(4.4936e-15 0.909441 20.9544)
(3.17525e-15 0.871188 18.8341)
(1.70434e-15 0.749531 17.0061)
(1.67739e-15 0.620629 15.5296)
(1.29665e-15 0.505205 14.361)
(6.40657e-16 0.404289 13.4527)
(-7.33835e-16 0.311127 12.7666)
(1.00404e-16 0.214782 12.2726)
(8.95848e-16 0.103587 11.9455)
(4.75369e-16 -0.028574 11.7728)
(5.56559e-16 -0.172015 11.7593)
(1.80814e-15 -0.304919 11.9287)
(8.63883e-16 -0.396583 12.3016)
(2.50381e-17 -0.408107 12.8462)
(3.20026e-16 -0.308581 13.4422)
(-1.32797e-15 -0.109233 13.8976)
(-2.87539e-15 0.133466 13.9978)
(-3.98261e-15 0.330552 13.6456)
(-3.27537e-15 0.428685 12.9743)
(-3.2927e-15 0.445599 12.1824)
(-3.11495e-15 0.413802 11.3997)
(-2.37682e-15 0.355676 10.6877)
(-5.27747e-15 0.283193 10.0671)
(-6.49427e-15 0.200429 9.54024)
(-5.1361e-15 0.10896 9.11033)
(-5.903e-15 0.015269 8.7888)
(-5.81797e-15 -0.0612449 8.56108)
(-3.51754e-15 -0.100694 8.33399)
(-1.24307e-15 -0.112248 7.96612)
(-1.017e-15 -0.14096 7.48643)
(-4.0335e-15 -0.29819 7.4098)
(-1.46236e-15 -0.647575 8.27137)
(2.69297e-15 -1.06028 10.0341)
(3.074e-15 -1.3967 12.409)
(2.41203e-15 -1.59655 15.138)
(1.09426e-15 -1.64969 18.0047)
(-6.18567e-16 -1.56644 20.8101)
(-3.76927e-15 -1.36312 23.3707)
(-5.5903e-15 -1.05101 25.5374)
(-6.82253e-15 -0.644066 27.1549)
(-7.43017e-15 -0.173492 28.1573)
(-7.16069e-15 0.27605 28.2663)
(-6.32952e-15 0.667417 27.9896)
(-5.04522e-15 0.793828 26.2273)
(-1.29406e-15 0.297486 18.9342)
(-2.06852e-15 0.254701 17.6461)
(-1.01589e-15 0.23287 16.5679)
(-2.02393e-15 0.217979 15.6435)
(-1.29677e-15 0.204217 14.7988)
(-1.37119e-15 0.192908 14.0206)
(-5.93968e-16 0.183784 13.3035)
(9.08427e-16 0.176001 12.6353)
(5.48573e-16 0.170816 12.0038)
(3.63204e-16 0.169956 11.3943)
(1.71558e-16 0.173912 10.7894)
(4.23164e-17 0.182342 10.174)
(-6.07173e-17 0.195235 9.53724)
(-5.013e-16 0.212281 8.86912)
(-5.57495e-16 0.231862 8.16101)
(-5.63682e-15 0.250741 7.40857)
(-5.18807e-15 0.265319 6.61662)
(-9.13537e-15 0.27468 5.80298)
(-7.15972e-15 0.277704 4.99724)
(-8.10489e-15 0.267663 4.24349)
(-1.66852e-14 0.240879 3.59315)
(-9.55113e-15 0.200347 3.0785)
(-7.46514e-15 0.154691 2.69553)
(-2.00325e-14 0.114263 2.41148)
(-2.83343e-14 0.089032 2.18418)
(-3.45663e-14 0.0777562 1.97083)
(-3.99391e-14 0.0767276 1.74931)
(-4.04823e-14 0.108299 1.50059)
(-3.85942e-14 0.0956335 1.20684)
(-3.49963e-14 0.0583522 0.928669)
(-2.95766e-14 0.105853 0.77701)
(-3.746e-14 0.12037 0.0310638)
(-4.68319e-14 0.119073 -1.48391)
(-1.64033e-14 0.145958 -2.09753)
(-8.66309e-15 0.181795 -2.43761)
(-8.24463e-15 0.212596 -2.68034)
(-5.98076e-15 0.185908 -2.88825)
(-1.71454e-14 0.0851145 -2.89098)
(-2.96483e-14 -0.0260498 -2.62067)
(-2.7553e-14 -0.123882 -2.30763)
(-1.03617e-14 -0.253371 -1.87353)
(-9.80088e-15 -0.413056 -1.34651)
(-2.45987e-14 -0.562022 -0.72523)
(-2.08787e-14 -0.678351 0.0828726)
(-1.13777e-14 -0.75478 1.13564)
(-4.28437e-15 -0.831639 2.31961)
(4.41113e-15 -0.955339 3.6222)
(1.06124e-14 -1.16481 5.0852)
(1.48178e-14 -1.4715 6.80392)
(1.66451e-14 -1.82641 8.89477)
(1.80003e-14 -2.12008 11.446)
(1.8775e-14 -2.20124 14.4059)
(1.85336e-14 -1.85613 17.4364)
(1.69895e-14 -1.00365 20.0059)
(1.4063e-14 0.114278 21.4569)
(1.22862e-14 1.05603 21.14)
(8.66923e-15 1.43477 19.5715)
(5.42353e-15 1.38326 17.7491)
(4.17176e-15 1.18361 16.1721)
(2.462e-15 0.970941 14.9104)
(2.64293e-15 0.781056 13.9208)
(2.04464e-15 0.61702 13.1516)
(1.6922e-15 0.472326 12.5525)
(1.93328e-15 0.337533 12.0707)
(1.2423e-15 0.200747 11.6494)
(6.70666e-16 0.0465391 11.2473)
(2.25119e-15 -0.131645 10.8792)
(4.14035e-15 -0.32184 10.6189)
(5.27033e-15 -0.488232 10.5613)
(5.49063e-15 -0.566645 10.756)
(5.51168e-15 -0.489218 11.1501)
(4.62345e-15 -0.241699 11.5974)
(3.38768e-15 0.122154 11.8741)
(3.0054e-15 0.454848 11.7525)
(2.62787e-15 0.635531 11.2788)
(2.06923e-15 0.681867 10.6403)
(1.89834e-15 0.647983 9.96565)
(1.7452e-15 0.574611 9.31218)
(1.83218e-15 0.484966 8.69364)
(2.98257e-15 0.386555 8.10053)
(4.43104e-15 0.279554 7.51983)
(6.09227e-15 0.171463 6.94906)
(2.04865e-15 0.102454 6.37153)
(1.94194e-15 0.125756 5.63261)
(1.38782e-15 0.200204 4.54105)
(1.07115e-15 0.07044 3.69066)
(4.82187e-15 -0.529864 4.15607)
(5.51678e-15 -1.28667 5.51333)
(4.90256e-15 -1.94258 7.28456)
(1.94056e-15 -2.42912 9.37181)
(3.11165e-15 -2.72456 11.7592)
(3.53708e-15 -2.81472 14.3756)
(2.63166e-15 -2.69892 17.0806)
(1.47438e-15 -2.39372 19.6947)
(7.10367e-17 -1.91684 22.0524)
(-2.06222e-15 -1.28477 23.9814)
(-4.1503e-15 -0.525724 25.4071)
(-5.62633e-15 0.247052 26.0133)
(-6.17349e-15 0.955246 26.1389)
(-5.3496e-15 1.23109 24.7386)
(-1.22941e-15 0.420477 18.9612)
(-2.06526e-15 0.361324 17.6665)
(-2.07176e-15 0.329208 16.5841)
(-1.73135e-15 0.307095 15.6543)
(-1.19166e-15 0.287359 14.8022)
(-9.18551e-16 0.271626 14.013)
(6.62767e-16 0.259343 13.2798)
(8.72803e-16 0.249191 12.5893)
(5.65339e-16 0.242829 11.9293)
(8.18699e-16 0.242567 11.2842)
(9.92295e-16 0.248938 10.6368)
(1.27171e-15 0.261215 9.97425)
(9.83756e-16 0.279236 9.28991)
(2.54042e-15 0.302756 8.57777)
(3.18623e-15 0.330085 7.82903)
(3.39091e-16 0.357153 7.03506)
(-3.01763e-15 0.378345 6.19827)
(-4.7693e-15 0.390431 5.34453)
(-1.11677e-14 0.389928 4.52144)
(-1.6269e-14 0.367962 3.78686)
(-2.21722e-14 0.32306 3.18801)
(-1.72888e-14 0.263466 2.73648)
(-1.60694e-14 0.202339 2.4064)
(-2.17609e-14 0.15108 2.15643)
(-2.52996e-14 0.121708 1.9451)
(-2.29964e-14 0.115856 1.73529)
(-1.68095e-14 0.122317 1.50163)
(-1.69518e-14 0.147649 1.21668)
(-2.21581e-14 0.136807 0.987953)
(-8.61154e-15 0.136542 0.102484)
(-2.50923e-15 0.268772 -0.750954)
(-2.49641e-14 0.330123 -1.68159)
(-2.886e-14 0.282124 -2.70373)
(-8.04515e-15 0.202734 -3.10902)
(-3.85824e-15 0.194955 -3.23999)
(-8.1577e-15 0.21775 -3.20617)
(-1.73105e-14 0.187126 -3.06159)
(-8.59653e-15 0.0765236 -2.86385)
(-3.17571e-14 -0.0510669 -2.66688)
(-3.90836e-14 -0.172052 -2.39554)
(-1.79002e-14 -0.325839 -2.02017)
(-1.57149e-14 -0.513726 -1.55628)
(-2.98759e-14 -0.704878 -1.01318)
(-1.6426e-14 -0.872465 -0.354475)
(-5.93536e-15 -0.998789 0.507655)
(4.62514e-16 -1.11106 1.54521)
(8.54408e-15 -1.26513 2.68979)
(1.34108e-14 -1.51546 3.91428)
(1.76382e-14 -1.89276 5.24255)
(1.9038e-14 -2.36143 6.76857)
(2.08038e-14 -2.79482 8.66564)
(2.06378e-14 -2.99247 11.068)
(1.96352e-14 -2.65966 13.8105)
(1.76284e-14 -1.6258 16.4574)
(1.54094e-14 -0.147831 18.4459)
(1.19177e-14 1.23395 18.8264)
(1.09578e-14 1.8359 17.7552)
(7.07185e-15 1.79642 16.2949)
(5.78148e-15 1.53628 15.0121)
(3.77514e-15 1.25619 13.9782)
(3.60591e-15 1.0089 13.1485)
(3.08679e-15 0.801047 12.4734)
(3.64086e-15 0.627233 11.9059)
(3.49314e-15 0.47916 11.4017)
(3.3573e-15 0.343948 10.9157)
(4.27027e-15 0.197017 10.4012)
(4.97464e-15 0.00797714 9.83969)
(3.31719e-15 -0.227397 9.29093)
(2.90557e-15 -0.473194 8.88489)
(2.15214e-15 -0.643785 8.75618)
(2.89044e-15 -0.631263 8.93287)
(3.38494e-15 -0.387493 9.31212)
(4.66682e-15 0.0550898 9.67977)
(4.91023e-15 0.514296 9.72315)
(2.24221e-15 0.782618 9.40278)
(2.71187e-15 0.869315 8.89375)
(2.71758e-15 0.848313 8.31852)
(6.36658e-15 0.776701 7.72733)
(1.05969e-14 0.687699 7.12508)
(1.21108e-14 0.591212 6.4966)
(1.16342e-14 0.489366 5.83747)
(1.10409e-14 0.400321 5.15562)
(1.15664e-14 0.394461 4.3818)
(-2.68914e-15 0.535899 3.26601)
(-5.40299e-15 0.600673 1.99345)
(-1.08692e-15 -0.0264812 2.09706)
(4.04138e-15 -1.00235 3.16832)
(7.12452e-16 -1.85882 4.3034)
(-7.26886e-16 -2.59652 5.52232)
(-1.09748e-15 -3.2098 6.96772)
(3.00925e-15 -3.64823 8.73998)
(2.3463e-15 -3.85398 10.8574)
(1.47792e-15 -3.79187 13.2424)
(2.09359e-15 -3.46383 15.7412)
(2.02862e-15 -2.88923 18.1808)
(1.07062e-15 -2.0892 20.359)
(-8.3157e-16 -1.08632 22.1739)
(-3.56019e-15 -0.00257692 23.2997)
(-5.66661e-15 1.0647 23.8993)
(-5.7396e-15 1.56243 22.9337)
(-1.21576e-15 0.532498 18.914)
(-1.99427e-15 0.458095 17.6247)
(-1.60096e-15 0.41948 16.545)
(-1.57608e-15 0.392886 15.6134)
(-8.15155e-16 0.369105 14.7548)
(-1.55682e-15 0.350356 13.9535)
(-1.36409e-15 0.336041 13.2016)
(2.89257e-16 0.324521 12.4857)
(1.03326e-15 0.317961 11.7934)
(1.90424e-15 0.319263 11.1081)
(1.92072e-15 0.328789 10.4119)
(3.92414e-15 0.345105 9.69521)
(3.99428e-15 0.367812 8.95723)
(5.99739e-15 0.397146 8.1956)
(7.67915e-15 0.431941 7.39965)
(3.37846e-15 0.467282 6.55702)
(-2.94314e-15 0.494422 5.67351)
(-6.21266e-15 0.506427 4.79083)
(-1.34448e-14 0.497537 3.97474)
(-1.89558e-14 0.458921 3.28566)
(-2.71417e-14 0.393653 2.75456)
(-2.28842e-14 0.315354 2.36979)
(-2.37632e-14 0.240266 2.08916)
(-2.59583e-14 0.183808 1.88176)
(-2.11897e-14 0.157917 1.69051)
(-8.38485e-15 0.1471 1.49859)
(-1.18112e-14 0.147832 1.30905)
(1.44346e-14 0.20439 0.860404)
(-1.53183e-15 0.293563 -0.0732347)
(9.732e-15 0.336472 -1.54046)
(2.58968e-15 0.404995 -2.28799)
(-9.92671e-15 0.451734 -2.75352)
(-7.34341e-15 0.370321 -3.09088)
(-3.66086e-15 0.235926 -3.23232)
(-9.41087e-15 0.193809 -3.28937)
(-8.87939e-15 0.187526 -3.25141)
(-1.46417e-14 0.136255 -3.14522)
(-1.65857e-14 0.0205674 -3.03673)
(-2.12334e-14 -0.115081 -2.89325)
(-2.51628e-14 -0.255835 -2.66673)
(-2.92282e-14 -0.426488 -2.34126)
(-2.92899e-14 -0.628124 -1.93337)
(-2.73567e-14 -0.840649 -1.45748)
(-1.02946e-14 -1.04167 -0.909177)
(-6.13848e-15 -1.21583 -0.225888)
(8.7291e-17 -1.37095 0.667702)
(3.44053e-15 -1.55084 1.71366)
(9.8925e-15 -1.81515 2.81804)
(1.82506e-14 -2.21326 3.91322)
(2.21516e-14 -2.7443 4.99989)
(2.27649e-14 -3.30169 6.2356)
(2.02382e-14 -3.6568 7.91021)
(1.75357e-14 -3.43577 10.1197)
(1.72667e-14 -2.33149 12.6197)
(1.74898e-14 -0.592616 14.999)
(1.20094e-14 1.23457 16.1577)
(9.47845e-15 2.10718 15.637)
(7.32494e-15 2.10621 14.5478)
(5.76018e-15 1.80728 13.5545)
(5.03835e-15 1.48159 12.7315)
(4.18269e-15 1.19745 12.0375)
(3.43191e-15 0.963386 11.4357)
(3.48409e-15 0.77314 10.8949)
(2.89673e-15 0.618505 10.3882)
(3.6541e-15 0.488658 9.88892)
(1.42425e-15 0.360483 9.36418)
(3.47145e-16 0.192752 8.7641)
(1.50252e-16 -0.0510509 8.06377)
(7.73617e-17 -0.359326 7.37597)
(-2.88661e-15 -0.640014 6.93117)
(-4.15398e-15 -0.73481 6.86434)
(-3.76016e-15 -0.541547 7.12872)
(2.8577e-16 -0.0585882 7.54047)
(3.00264e-15 0.521843 7.71502)
(7.03965e-16 0.88252 7.51035)
(-1.73896e-15 1.01564 7.10396)
(-3.41312e-15 1.01437 6.61537)
(4.25765e-15 0.955213 6.08236)
(5.10997e-15 0.884138 5.50419)
(9.61237e-15 0.809297 4.87332)
(1.47606e-14 0.726393 4.18982)
(6.01578e-16 0.669971 3.42676)
(-2.34326e-15 0.737255 2.49583)
(-1.03338e-14 0.913404 1.30187)
(-7.9809e-15 0.747499 0.568008)
(-3.19476e-15 -0.40175 1.68379)
(-4.05808e-15 -1.38046 2.62589)
(-4.7504e-15 -2.21831 3.39484)
(-1.87391e-15 -3.01166 4.15727)
(1.03539e-15 -3.74008 5.04294)
(2.85731e-15 -4.33401 6.188)
(2.00926e-15 -4.70265 7.6938)
(1.78962e-16 -4.77049 9.57877)
(4.23847e-16 -4.50869 11.7677)
(1.30845e-15 -3.92273 14.127)
(1.21359e-15 -3.03054 16.4416)
(-1.07667e-16 -1.84509 18.5732)
(-2.20421e-15 -0.489012 20.1973)
(-4.34067e-15 0.971493 21.3567)
(-5.53379e-15 1.7757 20.9107)
(-1.15627e-15 0.663282 18.695)
(-1.97168e-15 0.563525 17.4325)
(-1.70328e-15 0.513845 16.3706)
(-1.46577e-15 0.480382 15.447)
(-6.7742e-16 0.451588 14.5874)
(-8.71484e-16 0.429639 13.7771)
(-7.43704e-16 0.413497 13.0085)
(1.58996e-15 0.401027 12.2699)
(3.68143e-15 0.394951 11.55)
(3.83732e-15 0.398782 10.831)
(2.91569e-15 0.412408 10.0935)
(5.34418e-15 0.433204 9.32986)
(6.34328e-15 0.460475 8.54369)
(6.77281e-15 0.495417 7.73362)
(7.76209e-15 0.537731 6.88662)
(5.70523e-15 0.581039 5.9917)
(-7.27139e-16 0.612019 5.06727)
(-1.29103e-14 0.619432 4.17592)
(-1.91784e-14 0.596877 3.39481)
(-1.95564e-14 0.537836 2.77357)
(-2.02432e-14 0.451428 2.32016)
(-2.26177e-14 0.357273 1.99841)
(-2.31498e-14 0.271615 1.75979)
(6.71838e-16 0.207913 1.61571)
(-2.1628e-15 0.173528 1.50792)
(2.53469e-16 0.171814 1.30494)
(-1.08149e-15 0.235572 0.678014)
(1.84636e-14 0.376742 -0.377057)
(-1.62873e-15 0.495541 -1.41922)
(2.05929e-15 0.496881 -2.43096)
(1.68002e-15 0.475928 -2.88729)
(1.78976e-15 0.481115 -3.08509)
(8.47657e-15 0.38665 -3.17041)
(3.04634e-15 0.251118 -3.27053)
(-1.25353e-15 0.197293 -3.37548)
(-6.62907e-15 0.174111 -3.39916)
(-1.4203e-14 0.113999 -3.36541)
(-1.63136e-14 -0.00366588 -3.31374)
(-2.06798e-14 -0.15416 -3.19649)
(-2.59528e-14 -0.317737 -3.00622)
(-3.15195e-14 -0.509488 -2.72296)
(-2.72401e-14 -0.728098 -2.36147)
(-2.29161e-14 -0.957271 -1.93631)
(-1.22476e-14 -1.18388 -1.45141)
(-9.04265e-15 -1.39806 -0.884365)
(-8.57082e-16 -1.60308 -0.158798)
(1.83238e-15 -1.81831 0.762384)
(9.58962e-15 -2.08944 1.77663)
(1.85341e-14 -2.47221 2.75626)
(2.37698e-14 -3.00149 3.59713)
(2.24763e-14 -3.62152 4.3308)
(2.15532e-14 -4.12214 5.24799)
(1.72287e-14 -4.09691 6.66822)
(1.44394e-14 -3.06891 8.66564)
(1.47187e-14 -1.19134 11.1881)
(1.40445e-14 1.03883 13.1857)
(1.09983e-14 2.24219 13.2898)
(8.29336e-15 2.31341 12.5732)
(7.66134e-15 2.0001 11.8567)
(6.19273e-15 1.65093 11.2309)
(5.24053e-15 1.34841 10.6645)
(4.28111e-15 1.10211 10.1395)
(4.35036e-15 0.904924 9.64267)
(4.35132e-15 0.748725 9.16228)
(3.7505e-15 0.624852 8.68617)
(1.57277e-15 0.514322 8.19824)
(9.29741e-16 0.381167 7.65934)
(-5.7867e-16 0.173655 6.98155)
(-2.01686e-15 -0.158373 6.16769)
(-9.09438e-15 -0.545941 5.49442)
(-9.25863e-15 -0.776224 5.1768)
(-6.68858e-15 -0.676901 5.22938)
(-3.97369e-15 -0.200191 5.56469)
(-2.195e-15 0.493875 5.80953)
(3.64807e-15 0.946034 5.68248)
(4.79284e-15 1.12572 5.35041)
(-7.37826e-16 1.15286 4.92577)
(-6.82591e-16 1.11989 4.44547)
(-4.14512e-15 1.07114 3.9201)
(-1.68102e-15 1.01073 3.33905)
(3.3442e-15 0.957299 2.6431)
(9.21439e-15 0.97263 1.75118)
(2.05215e-15 1.1123 0.716801)
(2.87853e-14 1.30832 -0.328083)
(1.95199e-14 0.421393 0.238326)
(-6.13316e-15 -0.799994 1.42483)
(-6.01478e-15 -1.66203 2.12696)
(-4.61136e-15 -2.46157 2.67792)
(1.17025e-15 -3.26305 3.15235)
(2.76237e-15 -4.05231 3.62668)
(3.95355e-15 -4.76779 4.22592)
(-3.12143e-16 -5.30417 5.09171)
(-3.35049e-15 -5.55257 6.33186)
(-2.09914e-15 -5.44444 7.98985)
(-4.59775e-16 -4.94956 10.041)
(-3.75073e-16 -4.06408 12.3132)
(-1.18499e-15 -2.78347 14.6436)
(-2.42155e-15 -1.219 16.7094)
(-4.70741e-15 0.63665 18.4954)
(-6.01486e-15 1.85023 18.6991)
(-1.17371e-15 0.767017 18.4073)
(-1.21551e-15 0.653755 17.1606)
(-1.53981e-15 0.599031 16.1087)
(-1.24788e-15 0.561941 15.1873)
(-5.88428e-16 0.530225 14.3224)
(-5.08378e-16 0.506523 13.4991)
(-8.11725e-16 0.489556 12.7101)
(1.92595e-17 0.476797 11.9459)
(3.19877e-16 0.471794 11.1974)
(-7.14444e-16 0.478932 10.4472)
(1.60916e-15 0.497526 9.6757)
(4.76143e-15 0.523473 8.87597)
(6.23584e-15 0.555848 8.05092)
(6.72377e-15 0.59703 7.19558)
(7.2566e-15 0.647225 6.29645)
(2.71319e-15 0.697392 5.35272)
(-3.17595e-15 0.728528 4.40352)
(-1.15011e-14 0.725829 3.53095)
(-2.15264e-14 0.684639 2.81211)
(-1.76328e-14 0.603159 2.27462)
(-2.28268e-14 0.497644 1.89382)
(-2.87687e-14 0.39006 1.63342)
(-1.42549e-14 0.288968 1.48892)
(1.70507e-14 0.212961 1.432)
(8.9473e-15 0.204508 1.19117)
(-4.61143e-15 0.284552 0.466555)
(-1.50698e-14 0.403084 -0.627571)
(-4.74101e-15 0.528425 -1.50723)
(-3.90141e-15 0.621307 -2.13822)
(-7.22461e-15 0.590186 -2.66309)
(3.0947e-15 0.523342 -2.97693)
(7.91589e-15 0.496649 -3.14875)
(1.00935e-14 0.400306 -3.25149)
(2.8195e-15 0.277057 -3.41162)
(-9.30195e-16 0.216203 -3.56939)
(-6.4346e-15 0.177877 -3.6419)
(-1.42865e-14 0.106692 -3.6556)
(-1.46766e-14 -0.0205596 -3.64035)
(-1.70437e-14 -0.187859 -3.5574)
(-2.03546e-14 -0.372994 -3.40424)
(-2.39025e-14 -0.585728 -3.16381)
(-2.17632e-14 -0.821715 -2.8479)
(-2.48374e-14 -1.06575 -2.46813)
(-9.24013e-15 -1.30947 -2.02861)
(-1.04327e-14 -1.55289 -1.52008)
(-1.95861e-15 -1.80012 -0.912943)
(-1.17316e-15 -2.05728 -0.157339)
(5.84287e-15 -2.34619 0.731307)
(1.5006e-14 -2.70885 1.63009)
(2.00088e-14 -3.19499 2.37846)
(1.93054e-14 -3.7995 2.86391)
(2.36739e-14 -4.36633 3.23214)
(1.81019e-14 -4.54259 3.81386)
(1.48412e-14 -3.74084 4.89748)
(1.33638e-14 -1.89235 7.08597)
(1.34752e-14 0.625723 9.90296)
(1.20059e-14 2.22973 10.7558)
(9.03617e-15 2.41743 10.4303)
(9.33999e-15 2.11678 9.98726)
(7.52894e-15 1.76539 9.55563)
(6.66754e-15 1.46053 9.11949)
(5.91113e-15 1.21283 8.68202)
(4.86818e-15 1.01501 8.24689)
(5.77966e-15 0.85941 7.81578)
(5.92933e-15 0.739524 7.38835)
(7.84734e-15 0.641686 6.96205)
(9.90633e-15 0.537345 6.51605)
(4.87614e-15 0.378949 5.98036)
(-2.99846e-15 0.0714023 5.28125)
(-1.71626e-14 -0.384062 4.58739)
(-1.83982e-14 -0.733498 4.08209)
(-1.2772e-14 -0.747599 3.82895)
(-5.13713e-15 -0.329139 3.91308)
(7.05276e-16 0.449823 4.08198)
(5.93413e-15 0.987155 3.95389)
(1.3338e-14 1.21748 3.65382)
(1.43412e-14 1.27334 3.29166)
(7.919e-15 1.25222 2.90848)
(-3.33685e-15 1.21792 2.47447)
(-5.63506e-15 1.20781 1.88902)
(1.88059e-14 1.25028 1.0236)
(1.90605e-14 1.36527 -0.0120004)
(1.8781e-14 1.41053 -0.71864)
(6.40987e-14 1.18881 -0.875784)
(1.43696e-14 -0.0819028 0.34953)
(-3.27636e-15 -1.10229 1.16823)
(-6.75048e-15 -1.87602 1.71041)
(-3.91273e-15 -2.63226 2.13351)
(2.71096e-15 -3.40658 2.44796)
(4.75653e-15 -4.20085 2.6796)
(2.64269e-15 -4.97448 2.89857)
(-3.40144e-15 -5.63186 3.2227)
(-5.87569e-15 -6.05817 3.79209)
(-4.63534e-15 -6.16048 4.74799)
(-3.85492e-15 -5.86159 6.21333)
(-3.34406e-15 -5.10831 8.15081)
(-3.59278e-15 -3.85636 10.4523)
(-5.09151e-15 -2.1911 12.8088)
(-5.77331e-15 -0.00170535 15.2074)
(-6.78144e-15 1.74673 16.2693)
(-1.87096e-15 0.873183 18.0597)
(-1.63769e-15 0.745599 16.8293)
(-1.83892e-15 0.684097 15.7852)
(-1.27401e-15 0.642812 14.8632)
(-4.85368e-16 0.608464 13.9902)
(-3.74986e-16 0.583534 13.1513)
(1.56208e-16 0.566191 12.3389)
(-9.8314e-16 0.553313 11.5445)
(-1.92671e-15 0.549308 10.7617)
(-1.83698e-15 0.559597 9.9767)
(-1.58213e-16 0.5831 9.17299)
(2.40981e-15 0.614484 8.34351)
(5.08802e-15 0.652849 7.48453)
(6.06804e-15 0.70138 6.58467)
(5.29023e-15 0.759533 5.63579)
(3.71889e-15 0.814219 4.65623)
(-2.80863e-15 0.840547 3.70803)
(-9.3777e-15 0.821944 2.88455)
(-2.09834e-14 0.758614 2.25033)
(-1.96613e-14 0.655905 1.79782)
(-2.54812e-14 0.531821 1.4865)
(-3.39576e-14 0.405311 1.33757)
(-3.4939e-15 0.294019 1.28084)
(2.56151e-14 0.251335 1.00237)
(-1.38976e-14 0.319104 0.198607)
(-2.56635e-14 0.432091 -0.718739)
(-2.70513e-14 0.527336 -1.48926)
(-9.1792e-15 0.616892 -2.0108)
(-1.08155e-14 0.688008 -2.3705)
(-7.91534e-15 0.649467 -2.68401)
(3.80849e-15 0.572032 -2.9903)
(6.88016e-15 0.526783 -3.22385)
(6.11455e-15 0.428921 -3.40344)
(6.45012e-16 0.310843 -3.62095)
(-2.01271e-15 0.238926 -3.81727)
(-6.45564e-15 0.183963 -3.93331)
(-1.42162e-14 0.100206 -3.99082)
(-1.35469e-14 -0.0366298 -4.01218)
(-1.50301e-14 -0.218491 -3.96377)
(-1.69608e-14 -0.423053 -3.84782)
(-1.91707e-14 -0.65544 -3.65132)
(-2.03419e-14 -0.909256 -3.38373)
(-2.01442e-14 -1.16962 -3.05268)
(-1.2703e-14 -1.42929 -2.65869)
(-1.20992e-14 -1.69292 -2.19484)
(-4.29292e-15 -1.9698 -1.65016)
(-4.21832e-15 -2.26275 -1.01667)
(5.96092e-16 -2.57666 -0.287522)
(8.17745e-15 -2.9323 0.49653)
(1.32513e-14 -3.37091 1.19042)
(1.58636e-14 -3.9129 1.60664)
(2.23368e-14 -4.4493 1.73829)
(1.43804e-14 -4.72274 1.76788)
(1.4613e-14 -4.2134 1.8306)
(1.29669e-14 -2.57157 2.97874)
(1.24168e-14 -0.0336121 6.28774)
(1.4459e-14 2.04164 8.05864)
(9.99735e-15 2.41077 8.16826)
(9.06969e-15 2.15622 8.00648)
(7.94128e-15 1.82419 7.77253)
(7.96105e-15 1.53161 7.47196)
(7.42385e-15 1.29208 7.13116)
(6.80919e-15 1.09939 6.77061)
(7.0329e-15 0.94664 6.40472)
(7.60458e-15 0.828535 6.04348)
(1.05985e-14 0.73622 5.69501)
(1.1146e-14 0.647198 5.35504)
(3.95171e-15 0.515348 4.99349)
(-1.05652e-14 0.250519 4.57466)
(-3.04275e-14 -0.206039 4.09128)
(-3.33986e-14 -0.599056 3.53273)
(-2.33955e-14 -0.697498 2.9579)
(-1.19777e-14 -0.365466 2.6415)
(-1.05172e-15 0.455595 2.52932)
(8.06032e-15 1.04472 2.32334)
(1.37253e-14 1.29105 2.07325)
(1.8347e-14 1.34215 1.82821)
(2.01924e-14 1.3371 1.52259)
(-1.71439e-15 1.38002 1.00505)
(4.60084e-16 1.48019 0.206674)
(9.49617e-15 1.56593 -0.650609)
(-7.8243e-15 1.5722 -1.19403)
(2.49631e-14 1.38957 -1.22928)
(2.5871e-14 1.08741 -0.99714)
(4.03245e-15 -0.420998 0.330916)
(-9.73341e-15 -1.32149 0.937598)
(-8.25178e-15 -2.04803 1.37856)
(-2.76207e-15 -2.76383 1.71379)
(9.2291e-16 -3.49729 1.94177)
(5.20394e-15 -4.25938 2.05851)
(7.01668e-16 -5.02792 2.07736)
(-4.41167e-15 -5.72945 2.05928)
(-5.21738e-15 -6.26976 2.11201)
(-5.17935e-15 -6.56508 2.38843)
(-5.44721e-15 -6.51494 3.09183)
(-5.48921e-15 -6.01524 4.3586)
(-6.15307e-15 -4.95737 6.25833)
(-5.90368e-15 -3.35194 8.61491)
(-7.16567e-15 -0.983293 11.3912)
(-7.97699e-15 1.41286 13.5607)
(-2.47554e-15 0.976562 17.6564)
(-2.03878e-15 0.835888 16.4424)
(-2.43243e-15 0.767396 15.4061)
(-1.67997e-15 0.721619 14.4828)
(-2.39981e-16 0.68492 13.6012)
(-4.51819e-16 0.659439 12.7464)
(4.79978e-16 0.642602 11.9102)
(1.58215e-15 0.630373 11.0837)
(8.38639e-16 0.627686 10.2627)
(8.71109e-16 0.640842 9.43942)
(1.25827e-15 0.668757 8.60347)
(1.90323e-15 0.705702 7.74533)
(3.65327e-15 0.751104 6.85085)
(3.78703e-15 0.807861 5.90541)
(2.29621e-15 0.872947 4.91558)
(3.12973e-15 0.928373 3.92338)
(-2.24329e-15 0.944246 3.00782)
(-1.02872e-14 0.904907 2.26123)
(-2.4164e-14 0.81891 1.72162)
(-1.84951e-14 0.695288 1.35007)
(-2.54441e-14 0.548423 1.14852)
(-3.08204e-14 0.411444 1.08952)
(9.32268e-15 0.334682 0.790954)
(-1.03785e-14 0.360101 -0.0170983)
(-2.05558e-14 0.437921 -0.849802)
(-2.4096e-14 0.524251 -1.41906)
(-2.28392e-14 0.5995 -1.85146)
(-1.63586e-14 0.673305 -2.18881)
(-1.75341e-14 0.735784 -2.45427)
(-1.3174e-14 0.703665 -2.72702)
(-6.50819e-15 0.628201 -3.0645)
(-3.65126e-16 0.56931 -3.35953)
(-1.7767e-15 0.467322 -3.60624)
(-3.0165e-15 0.349935 -3.86707)
(-2.71223e-15 0.267512 -4.09803)
(-5.85789e-15 0.197428 -4.25546)
(-1.27395e-14 0.100857 -4.35234)
(-1.23441e-14 -0.0463452 -4.40578)
(-1.32506e-14 -0.242803 -4.38801)
(-1.354e-14 -0.465422 -4.30672)
(-1.36687e-14 -0.715838 -4.15367)
(-1.33861e-14 -0.986854 -3.93716)
(-1.78647e-14 -1.26468 -3.66134)
(-1.44637e-14 -1.54252 -3.3225)
(-1.43896e-14 -1.82523 -2.91221)
(-6.73485e-15 -2.12305 -2.42406)
(-7.13849e-15 -2.44066 -1.86332)
(-2.38204e-15 -2.77682 -1.24793)
(2.58797e-15 -3.13414 -0.602466)
(8.8122e-15 -3.53907 -0.000704891)
(1.41145e-14 -4.01587 0.382602)
(1.74371e-14 -4.47415 0.463792)
(1.22341e-14 -4.71134 0.309783)
(1.54138e-14 -4.397 -0.170178)
(1.17316e-14 -3.08712 -0.368117)
(1.13636e-14 -1.00027 2.17349)
(1.35516e-14 1.64274 5.19262)
(1.12195e-14 2.28431 5.82419)
(1.1241e-14 2.11671 5.95944)
(9.97337e-15 1.82692 5.92813)
(8.99626e-15 1.56109 5.76737)
(8.25868e-15 1.33818 5.52986)
(8.14783e-15 1.15419 5.25288)
(9.52811e-15 1.00464 4.96225)
(9.39326e-15 0.887439 4.67665)
(1.13578e-14 0.79746 4.41588)
(1.05243e-14 0.711971 4.19408)
(6.9274e-16 0.579011 4.01436)
(-1.56305e-14 0.328699 3.88679)
(-3.91806e-14 -0.0717263 3.7307)
(-4.01139e-14 -0.411423 3.25578)
(-2.48382e-14 -0.523831 2.46247)
(-1.06233e-14 -0.238715 1.65746)
(-1.92807e-15 0.528459 1.13874)
(-7.34729e-17 1.07731 0.884235)
(1.01117e-14 1.30438 0.687316)
(2.83635e-14 1.39109 0.399613)
(2.12321e-14 1.48649 -0.123189)
(3.25055e-15 1.61199 -0.79741)
(-6.01742e-15 1.69223 -1.37725)
(-2.64683e-14 1.68531 -1.6729)
(-2.89739e-14 1.57657 -1.63429)
(2.3094e-14 1.30101 -1.3307)
(2.33872e-14 0.555816 -0.61988)
(-3.67971e-15 -0.713202 0.315035)
(-1.04497e-14 -1.50135 0.789002)
(-7.74316e-15 -2.18641 1.1467)
(-1.88806e-15 -2.86605 1.40904)
(1.96418e-15 -3.56023 1.5745)
(3.73574e-15 -4.27899 1.63114)
(6.77581e-16 -5.00794 1.5642)
(-2.98902e-15 -5.69225 1.39134)
(-2.53309e-15 -6.26346 1.17006)
(-4.0398e-15 -6.66528 0.996453)
(-5.46041e-15 -6.81681 1.0293)
(-5.40463e-15 -6.60759 1.48343)
(-6.65051e-15 -5.89312 2.60623)
(-6.49428e-15 -4.57632 4.47618)
(-7.27497e-15 -2.23595 7.09636)
(-8.55339e-15 0.803325 10.4833)
(-1.23042e-15 1.06523 17.2095)
(-1.50188e-15 0.916048 16.016)
(-1.66934e-15 0.845622 14.9901)
(-1.37139e-15 0.798027 14.0664)
(-6.8785e-16 0.760451 13.1755)
(-3.66347e-16 0.735312 12.3034)
(-3.23008e-16 0.719724 11.4407)
(2.34398e-16 0.708732 10.5777)
(1.2069e-15 0.707466 9.71376)
(1.54732e-15 0.722899 8.84987)
(3.89839e-15 0.754578 7.98086)
(6.44529e-15 0.797332 7.0902)
(4.93769e-15 0.850653 6.15419)
(4.42792e-15 0.915422 5.16514)
(1.1914e-15 0.984747 4.15282)
(1.90713e-15 1.03606 3.17944)
(-1.29951e-15 1.03629 2.32841)
(-1.31849e-14 0.973738 1.67742)