/*--------------------------------*- C++ -*----------------------------------*\
| =========                 |                                                 |
| \\      /  F ield         | OpenFOAM: The Open Source CFD Toolbox           |
|  \\    /   O peration     | Version:  4.1                                   |
|   \\  /    A nd           | Web:      www.OpenFOAM.org                      |
|    \\/     M anipulation  |                                                 |
\*---------------------------------------------------------------------------*/
FoamFile
{
    version     2.0;
    format      ascii;
    class       volScalarField;
    location    "400";
    object      p;
}
// * * * * * * * * * * * * * * * * * * * * * * * * * * * * * * * * * * * * * //

dimensions      [0 2 -2 0 0 0 0];

internalField   nonuniform List<scalar> 
6820
(
-8.92152
-9.14836
-9.22531
-9.23738
-9.2568
-9.27895
-9.2956
-9.30855
-9.31983
-9.32953
-9.33756
-9.34404
-9.34908
-9.35269
-9.35483
-9.35544
-9.35441
-9.35159
-9.34679
-9.33976
-9.33014
-9.31751
-9.30125
-9.28058
-9.25431
-9.22078
-9.17725
-9.11972
-9.03866
-8.9252
-8.71679
-8.46572
-7.41247
-8.99349
-9.13453
-9.19817
-9.21857
-9.24243
-9.26647
-9.28452
-9.29849
-9.31041
-9.32058
-9.329
-9.3358
-9.34111
-9.34495
-9.34729
-9.34806
-9.34717
-9.34448
-9.33979
-9.33284
-9.32332
-9.3108
-9.29471
-9.27428
-9.24848
-9.21586
-9.1742
-9.12078
-9.04968
-8.95933
-8.82835
-8.70683
-8.62153
-9.0509
-9.13895
-9.1991
-9.22414
-9.2466
-9.26892
-9.28649
-9.3003
-9.31208
-9.32216
-9.33054
-9.33735
-9.34268
-9.34657
-9.34898
-9.34986
-9.3491
-9.34658
-9.34212
-9.33548
-9.32635
-9.31435
-9.29897
-9.27956
-9.25523
-9.22486
-9.18686
-9.1396
-9.08023
-9.01066
-8.92723
-8.8762
-8.86346
-9.08965
-9.14804
-9.20228
-9.22872
-9.24966
-9.27058
-9.28781
-9.3015
-9.31314
-9.32313
-9.33148
-9.33828
-9.34365
-9.3476
-9.3501
-9.35111
-9.35053
-9.34825
-9.34409
-9.33785
-9.32925
-9.31797
-9.30358
-9.28555
-9.26322
-9.23585
-9.20251
-9.16262
-9.11564
-9.06509
-9.01408
-8.99159
-9.00223
-9.12078
-9.16062
-9.20654
-9.23283
-9.25279
-9.27246
-9.28923
-9.30277
-9.31425
-9.32415
-9.33247
-9.33931
-9.34474
-9.34879
-9.35145
-9.35266
-9.35234
-9.35039
-9.34666
-9.34098
-9.33311
-9.32279
-9.3097
-9.29347
-9.27367
-9.24991
-9.22191
-9.1899
-9.1548
-9.12066
-9.0928
-9.08969
-9.11987
-9.1469
-9.17441
-9.2122
-9.23752
-9.25661
-9.275
-9.29114
-9.30443
-9.31574
-9.32552
-9.33382
-9.34069
-9.34621
-9.3504
-9.35325
-9.35471
-9.35472
-9.35319
-9.35
-9.34501
-9.33804
-9.3289
-9.31738
-9.30325
-9.28633
-9.26655
-9.24411
-9.21981
-9.19531
-9.17457
-9.16302
-9.17238
-9.20979
-9.16905
-9.18836
-9.21911
-9.24278
-9.26092
-9.27806
-9.29347
-9.30645
-9.31757
-9.32723
-9.3355
-9.34241
-9.34803
-9.35238
-9.35546
-9.35723
-9.35764
-9.35661
-9.35406
-9.34989
-9.34397
-9.33618
-9.32642
-9.31462
-9.30078
-9.28511
-9.26813
-9.25094
-9.2355
-9.22528
-9.22491
-9.2417
-9.2805
-9.18815
-9.20202
-9.22692
-9.2485
-9.26562
-9.28158
-9.29622
-9.30883
-9.31973
-9.32926
-9.33749
-9.34445
-9.35019
-9.35474
-9.35809
-9.36021
-9.36108
-9.36063
-9.35882
-9.35557
-9.35082
-9.34452
-9.33667
-9.32731
-9.31662
-9.305
-9.29313
-9.28227
-9.2743
-9.27213
-9.27936
-9.30048
-9.33855
-9.20491
-9.21513
-9.23529
-9.25463
-9.27066
-9.28553
-9.29937
-9.31156
-9.32222
-9.33161
-9.33981
-9.34683
-9.35272
-9.35748
-9.36114
-9.36367
-9.36504
-9.36524
-9.36424
-9.362
-9.35851
-9.3538
-9.34793
-9.34106
-9.33347
-9.32567
-9.31846
-9.31303
-9.31111
-9.31499
-9.3273
-9.35083
-9.38734
-9.21985
-9.22758
-9.24396
-9.26109
-9.27598
-9.28984
-9.30289
-9.31464
-9.32504
-9.33429
-9.34246
-9.34955
-9.35559
-9.36061
-9.36461
-9.36758
-9.36952
-9.37042
-9.37028
-9.36912
-9.36696
-9.36388
-9.36001
-9.35558
-9.35096
-9.3467
-9.34359
-9.34275
-9.34561
-9.35395
-9.36963
-9.39434
-9.42901
-9.23333
-9.23933
-9.25274
-9.26781
-9.28155
-9.29446
-9.30676
-9.31804
-9.32818
-9.3373
-9.34544
-9.35261
-9.35883
-9.36412
-9.36848
-9.37193
-9.37448
-9.37613
-9.37691
-9.37686
-9.37606
-9.37462
-9.37272
-9.37065
-9.36879
-9.36771
-9.36815
-9.37109
-9.3777
-9.38928
-9.40714
-9.43225
-9.46506
-9.24562
-9.2504
-9.26148
-9.2747
-9.28731
-9.29934
-9.31093
-9.32175
-9.33163
-9.34061
-9.34873
-9.356
-9.36241
-9.36799
-9.37276
-9.37672
-9.3799
-9.38233
-9.38406
-9.38515
-9.38571
-9.38588
-9.38589
-9.38603
-9.38669
-9.38843
-9.39189
-9.39791
-9.40739
-9.4213
-9.44049
-9.46552
-9.49656
-9.25693
-9.26083
-9.27009
-9.28169
-9.29323
-9.30444
-9.31537
-9.32574
-9.33536
-9.34422
-9.35234
-9.35971
-9.36634
-9.37223
-9.37742
-9.38191
-9.38575
-9.38899
-9.39167
-9.3939
-9.3958
-9.39754
-9.39935
-9.40152
-9.40446
-9.40864
-9.41463
-9.42311
-9.43478
-9.45032
-9.47027
-9.49494
-9.52432
-9.26741
-9.27065
-9.27849
-9.2887
-9.29925
-9.30971
-9.32003
-9.32998
-9.33936
-9.34812
-9.35625
-9.36374
-9.37059
-9.37681
-9.38243
-9.38748
-9.392
-9.39604
-9.39969
-9.40304
-9.40624
-9.40946
-9.41294
-9.41697
-9.42191
-9.42818
-9.43627
-9.44671
-9.46001
-9.47665
-9.49697
-9.5211
-9.54895
-9.27717
-9.27991
-9.28663
-9.29567
-9.30533
-9.31511
-9.32488
-9.33445
-9.34361
-9.35227
-9.36042
-9.36805
-9.37514
-9.38171
-9.38778
-9.39339
-9.39859
-9.40344
-9.40803
-9.41247
-9.41691
-9.42152
-9.42654
-9.43223
-9.43892
-9.44697
-9.45676
-9.46872
-9.48322
-9.50057
-9.52099
-9.54449
-9.57095
-9.28629
-9.28865
-9.2945
-9.30256
-9.31143
-9.32059
-9.32988
-9.33911
-9.34806
-9.35666
-9.36485
-9.37262
-9.37997
-9.38689
-9.39343
-9.3996
-9.40548
-9.41112
-9.41663
-9.42211
-9.42772
-9.43362
-9.44003
-9.44719
-9.45538
-9.46491
-9.47608
-9.48921
-9.50457
-9.52235
-9.54268
-9.5655
-9.5907
-9.29482
-9.2969
-9.30205
-9.30931
-9.3175
-9.32612
-9.33499
-9.34391
-9.3527
-9.36124
-9.3695
-9.37744
-9.38505
-9.39234
-9.39933
-9.40607
-9.41262
-9.41903
-9.42542
-9.43188
-9.43857
-9.44565
-9.4533
-9.46175
-9.47122
-9.48197
-9.49424
-9.50825
-9.5242
-9.54221
-9.56231
-9.58445
-9.60849
-9.30283
-9.30468
-9.30929
-9.31589
-9.3235
-9.33165
-9.34016
-9.34883
-9.35748
-9.366
-9.37434
-9.38245
-9.39034
-9.398
-9.40546
-9.41275
-9.41995
-9.4271
-9.43432
-9.44171
-9.44939
-9.45753
-9.46628
-9.47584
-9.48639
-9.49813
-9.51126
-9.52593
-9.54226
-9.56033
-9.58014
-9.6016
-9.62458
-9.31033
-9.31201
-9.31619
-9.32226
-9.32938
-9.33715
-9.34535
-9.35382
-9.36237
-9.37089
-9.37933
-9.38764
-9.39581
-9.40384
-9.41176
-9.41959
-9.42741
-9.43528
-9.44328
-9.45151
-9.4601
-9.46918
-9.4789
-9.4894
-9.50085
-9.5134
-9.52718
-9.54232
-9.55888
-9.5769
-9.59635
-9.61715
-9.63917
-9.31734
-9.31889
-9.32274
-9.32839
-9.33512
-9.34256
-9.35053
-9.35884
-9.36733
-9.37588
-9.38444
-9.39295
-9.40141
-9.40981
-9.41818
-9.42654
-9.43496
-9.44349
-9.45221
-9.46123
-9.47063
-9.48055
-9.49109
-9.5024
-9.51458
-9.52777
-9.54205
-9.5575
-9.57417
-9.59206
-9.61113
-9.63129
-9.65244
-9.32388
-9.32531
-9.32891
-9.33424
-9.34066
-9.34786
-9.35564
-9.36384
-9.37231
-9.38092
-9.38962
-9.39835
-9.40711
-9.41588
-9.42468
-9.43355
-9.44253
-9.45168
-9.46108
-9.47079
-9.48093
-9.49157
-9.50283
-9.5148
-9.52758
-9.54126
-9.55591
-9.57156
-9.58825
-9.60595
-9.62461
-9.64417
-9.66451
-9.32992
-9.33128
-9.33469
-9.33978
-9.34598
-9.35299
-9.36065
-9.36879
-9.37727
-9.38597
-9.39483
-9.40379
-9.41285
-9.42198
-9.43121
-9.44056
-9.45007
-9.4598
-9.4698
-9.48015
-9.49093
-9.5022
-9.51406
-9.52659
-9.53985
-9.55391
-9.56881
-9.58457
-9.6012
-9.61867
-9.63693
-9.65591
-9.67552
-9.33546
-9.33677
-9.34005
-9.34497
-9.35101
-9.3579
-9.3655
-9.37363
-9.38216
-9.39098
-9.40002
-9.40923
-9.41858
-9.42808
-9.43772
-9.44752
-9.45753
-9.46779
-9.47834
-9.48926
-9.50059
-9.51241
-9.52478
-9.53775
-9.55139
-9.56573
-9.58079
-9.59659
-9.61311
-9.63033
-9.64819
-9.66662
-9.68555
-9.34048
-9.34176
-9.34495
-9.34977
-9.35572
-9.36256
-9.37014
-9.37831
-9.38693
-9.3959
-9.40514
-9.41461
-9.42427
-9.43411
-9.44415
-9.45439
-9.46486
-9.4756
-9.48665
-9.49806
-9.50988
-9.52216
-9.53495
-9.54829
-9.56221
-9.57675
-9.59191
-9.60768
-9.62406
-9.64101
-9.65847
-9.67639
-9.6947
-9.34493
-9.3462
-9.34936
-9.35413
-9.36006
-9.36691
-9.37453
-9.38279
-9.39154
-9.40069
-9.41015
-9.41988
-9.42985
-9.44004
-9.45045
-9.4611
-9.472
-9.48318
-9.49467
-9.50652
-9.51876
-9.53143
-9.54457
-9.55819
-9.57233
-9.587
-9.6022
-9.61791
-9.63412
-9.65079
-9.66787
-9.6853
-9.70304
-9.34878
-9.35004
-9.35321
-9.35801
-9.36398
-9.37089
-9.37862
-9.38701
-9.39593
-9.40529
-9.41499
-9.425
-9.43528
-9.44581
-9.45659
-9.46761
-9.47891
-9.49049
-9.50238
-9.51461
-9.52721
-9.54021
-9.55362
-9.56747
-9.58177
-9.59651
-9.6117
-9.62732
-9.64334
-9.65973
-9.67644
-9.69343
-9.71063
-9.35195
-9.35324
-9.35645
-9.36133
-9.36741
-9.37446
-9.38234
-9.39092
-9.40005
-9.40965
-9.41962
-9.42992
-9.44051
-9.45138
-9.4625
-9.47389
-9.48554
-9.49749
-9.50973
-9.5223
-9.5352
-9.54847
-9.56211
-9.57612
-9.59053
-9.60531
-9.62046
-9.63596
-9.65178
-9.6679
-9.68425
-9.70081
-9.71753
-9.35437
-9.3557
-9.35901
-9.36404
-9.37029
-9.37754
-9.38564
-9.39446
-9.40385
-9.41372
-9.42398
-9.43459
-9.4455
-9.45669
-9.46815
-9.47988
-9.49187
-9.50414
-9.51669
-9.52955
-9.54272
-9.5562
-9.57002
-9.58416
-9.59863
-9.61342
-9.62851
-9.64387
-9.6595
-9.67534
-9.69136
-9.70752
-9.72379
-9.35594
-9.35733
-9.3608
-9.36604
-9.37256
-9.38008
-9.38847
-9.39758
-9.40728
-9.41745
-9.42803
-9.43896
-9.45019
-9.46171
-9.4735
-9.48554
-9.49784
-9.51041
-9.52324
-9.53635
-9.54974
-9.56341
-9.57736
-9.59159
-9.6061
-9.62086
-9.63587
-9.65109
-9.66651
-9.68209
-9.6978
-9.7136
-9.72945
-9.35653
-9.35802
-9.36171
-9.36727
-9.37413
-9.38202
-9.39076
-9.40023
-9.41028
-9.42081
-9.43173
-9.44299
-9.45456
-9.4664
-9.4785
-9.49084
-9.50344
-9.51627
-9.52935
-9.54268
-9.55625
-9.57007
-9.58413
-9.59843
-9.61294
-9.62767
-9.64258
-9.65766
-9.67289
-9.68822
-9.70363
-9.71909
-9.73456
-9.35601
-9.35762
-9.36162
-9.3676
-9.37494
-9.38327
-9.39246
-9.40236
-9.41283
-9.42374
-9.43504
-9.44666
-9.45856
-9.47072
-9.48313
-9.49576
-9.50862
-9.5217
-9.535
-9.54852
-9.56225
-9.57619
-9.59033
-9.60466
-9.61917
-9.63384
-9.64865
-9.66359
-9.67861
-9.69371
-9.70885
-9.724
-9.73912
-9.35415
-9.35594
-9.36037
-9.36694
-9.37488
-9.38379
-9.39352
-9.40393
-9.41486
-9.42621
-9.43791
-9.4499
-9.46215
-9.47464
-9.48734
-9.50025
-9.51337
-9.52668
-9.54018
-9.55386
-9.56773
-9.58177
-9.59598
-9.61034
-9.62483
-9.63945
-9.65416
-9.66896
-9.68381
-9.69869
-9.71358
-9.72844
-9.74326
-9.3507
-9.35275
-9.35779
-9.36517
-9.37389
-9.38351
-9.39389
-9.40491
-9.4164
-9.42824
-9.44037
-9.45275
-9.46536
-9.47816
-9.49115
-9.50432
-9.51766
-9.53116
-9.54483
-9.55865
-9.57263
-9.58674
-9.60098
-9.61534
-9.62981
-9.64435
-9.65896
-9.67362
-9.6883
-9.70298
-9.71763
-9.73224
-9.74678
-9.34528
-9.34772
-9.35367
-9.36218
-9.37192
-9.38238
-9.39351
-9.40521
-9.4173
-9.42967
-9.44227
-9.45508
-9.46807
-9.48122
-9.49451
-9.50796
-9.52154
-9.53526
-9.5491
-9.56308
-9.57716
-9.59136
-9.60565
-9.62002
-9.63446
-9.64895
-9.66348
-9.67801
-9.69254
-9.70704
-9.72149
-9.73587
-9.75014
-9.33738
-9.34041
-9.34774
-9.35785
-9.36893
-9.38052
-9.39266
-9.40521
-9.41798
-9.43088
-9.44392
-9.4571
-9.47038
-9.48379
-9.4973
-9.51093
-9.52467
-9.53852
-9.55247
-9.56653
-9.58068
-9.59491
-9.60921
-9.62357
-9.63797
-9.65239
-9.66683
-9.68125
-9.69564
-9.70999
-9.72426
-9.73845
-9.75254
-9.32616
-9.3303
-9.33996
-9.35209
-9.36441
-9.37705
-9.3903
-9.4039
-9.41757
-9.43125
-9.44497
-9.45873
-9.47253
-9.48637
-9.50025
-9.51418
-9.52818
-9.54224
-9.55636
-9.57054
-9.58478
-9.59906
-9.61339
-9.62774
-9.64211
-9.65648
-9.67083
-9.68514
-9.6994
-9.71359
-9.72769
-9.74166
-9.7555
-9.3102
-9.31597
-9.33057
-9.34689
-9.36135
-9.37518
-9.38931
-9.40348
-9.41745
-9.4313
-9.44514
-9.45901
-9.4729
-9.48682
-9.5008
-9.51483
-9.52893
-9.54308
-9.55729
-9.57156
-9.58587
-9.60021
-9.61458
-9.62896
-9.64334
-9.6577
-9.67202
-9.68629
-9.7005
-9.71462
-9.72864
-9.74256
-9.75637
-9.28869
-9.29538
-9.31383
-9.33351
-9.3512
-9.36851
-9.38572
-9.40225
-9.41803
-9.4333
-9.44825
-9.46293
-9.4774
-9.49174
-9.50599
-9.52021
-9.5344
-9.5486
-9.56281
-9.57704
-9.59128
-9.60554
-9.61981
-9.63407
-9.64831
-9.66252
-9.67669
-9.69079
-9.70482
-9.71874
-9.73254
-9.74619
-9.75967
-9.25559
-9.29052
-9.31953
-9.33508
-9.34847
-9.36414
-9.38029
-9.3957
-9.41067
-9.42561
-9.44052
-9.45535
-9.4701
-9.48479
-9.49946
-9.5141
-9.52872
-9.54334
-9.55794
-9.57254
-9.58713
-9.6017
-9.61625
-9.63077
-9.64524
-9.65965
-9.674
-9.68826
-9.70243
-9.71649
-9.73044
-9.74427
-9.75798
-9.11431
-9.22166
-9.29515
-9.32696
-9.34955
-9.37318
-9.39472
-9.41284
-9.42891
-9.44411
-9.45877
-9.47299
-9.48693
-9.50073
-9.51447
-9.52821
-9.54197
-9.55576
-9.56961
-9.5835
-9.59743
-9.6114
-9.62539
-9.63939
-9.65338
-9.66734
-9.68126
-9.69512
-9.70891
-9.72259
-9.73617
-9.7496
-9.76289
-8.57675
-8.63084
-9.5137
-9.98909
-10.0438
-10.0661
-10.1156
-10.1566
-10.1895
-10.2224
-10.2562
-10.2899
-10.3239
-10.3582
-10.3927
-10.4274
-10.462
-10.4966
-10.5308
-10.5646
-10.5977
-10.6301
-10.6616
-10.6919
-10.721
-10.7486
-10.7747
-10.7991
-10.8216
-10.842
-10.8602
-10.8759
-10.8891
-10.8994
-10.9066
-10.9105
-10.9107
-10.9068
-10.8985
-10.8853
-10.8667
-10.8421
-10.8109
-10.7726
-10.7266
-10.6724
-10.6096
-10.5379
-10.4575
-10.3687
-10.2721
-10.1692
-10.0616
-9.95162
-9.84227
-9.73692
-9.63941
-9.55386
-9.48449
-9.43535
-9.41015
-9.41209
-9.44369
-9.50654
-9.60078
-9.72496
-9.87618
-10.0502
-10.2418
-10.4449
-10.6531
-10.8597
-11.0583
-11.242
-11.4046
-11.5395
-11.6398
-11.698
-11.706
-11.6544
-11.5333
-11.3322
-11.0411
-10.652
-10.1601
-9.5664
-8.87869
-8.1125
-7.29005
-6.438
-5.58409
-4.75409
-3.96869
-3.24321
-2.58426
-1.99759
-1.46924
-1.01673
-0.558626
-0.255951
-9.1458
-9.30379
-9.64265
-9.91178
-9.98564
-10.0288
-10.0855
-10.1327
-10.1703
-10.2062
-10.242
-10.2774
-10.3125
-10.3475
-10.3827
-10.4177
-10.4527
-10.4874
-10.5217
-10.5555
-10.5887
-10.621
-10.6523
-10.6826
-10.7115
-10.739
-10.7649
-10.7891
-10.8113
-10.8315
-10.8495
-10.865
-10.8779
-10.888
-10.8949
-10.8985
-10.8983
-10.8941
-10.8855
-10.8719
-10.8529
-10.828
-10.7966
-10.7581
-10.712
-10.6578
-10.5951
-10.5239
-10.444
-10.356
-10.2606
-10.1591
-10.0532
-9.94527
-9.83813
-9.73515
-9.64008
-9.55695
-9.48984
-9.4427
-9.4191
-9.42217
-9.45427
-9.51697
-9.61036
-9.73302
-9.88209
-10.0534
-10.2419
-10.4415
-10.6458
-10.8485
-11.0428
-11.2223
-11.3806
-11.5111
-11.6068
-11.6602
-11.663
-11.6061
-11.4796
-11.2734
-10.9779
-10.5856
-10.0924
-9.49973
-8.81586
-8.05625
-7.24267
-6.40094
-5.55779
-4.73792
-3.96115
-3.24224
-2.58732
-2.00251
-1.47295
-1.01941
-0.553698
-0.258109
-9.15387
-9.3377
-9.56852
-9.8189
-9.93903
-10.0003
-10.0595
-10.111
-10.1528
-10.1912
-10.2288
-10.2654
-10.3014
-10.3371
-10.3727
-10.408
-10.4431
-10.4779
-10.5122
-10.5459
-10.579
-10.6111
-10.6423
-10.6723
-10.701
-10.7283
-10.754
-10.7779
-10.8
-10.8199
-10.8376
-10.8529
-10.8655
-10.8752
-10.8818
-10.8851
-10.8846
-10.8801
-10.8711
-10.8572
-10.8379
-10.8127
-10.781
-10.7424
-10.6963
-10.6422
-10.5799
-10.5092
-10.4302
-10.3433
-10.2493
-10.1495
-10.0456
-9.93995
-9.83529
-9.73492
-9.64251
-9.56194
-9.49718
-9.45205
-9.43003
-9.43407
-9.46649
-9.52874
-9.62092
-9.74163
-9.88806
-10.0562
-10.2409
-10.4364
-10.6364
-10.8344
-11.024
-11.1987
-11.3521
-11.4775
-11.5679
-11.6158
-11.6129
-11.5502
-11.4181
-11.2066
-10.9067
-10.5115
-10.0176
-9.42688
-8.74783
-7.99582
-7.1921
-6.36157
-5.52989
-4.72072
-3.95301
-3.24097
-2.59034
-2.00754
-1.47701
-1.02241
-0.549847
-0.260583
-9.18356
-9.36633
-9.56619
-9.77859
-9.90374
-9.97308
-10.0347
-10.0899
-10.1355
-10.1764
-10.2155
-10.2534
-10.2902
-10.3265
-10.3624
-10.3979
-10.4331
-10.4678
-10.502
-10.5356
-10.5684
-10.6004
-10.6313
-10.6611
-10.6895
-10.7165
-10.742
-10.7656
-10.7873
-10.807
-10.8244
-10.8393
-10.8516
-10.8611
-10.8674
-10.8703
-10.8695
-10.8646
-10.8553
-10.8411
-10.8215
-10.7961
-10.7643
-10.7257
-10.6797
-10.6259
-10.5641
-10.4941
-10.4162
-10.3306
-10.2383
-10.1405
-10.039
-9.93587
-9.83399
-9.73651
-9.64696
-9.56913
-9.50685
-9.46378
-9.44328
-9.44819
-9.48071
-9.54222
-9.63279
-9.75105
-9.89429
-10.0586
-10.2389
-10.4296
-10.6245
-10.8172
-11.0013
-11.1705
-11.3183
-11.438
-11.5224
-11.5642
-11.5551
-11.4862
-11.348
-11.1312
-10.8272
-10.4295
-9.93555
-9.34759
-8.67436
-7.931
-7.13812
-6.31968
-5.50023
-4.70237
-3.94421
-3.23943
-2.5934
-2.01283
-1.48161
-1.02602
-0.547247
-0.263681
-9.24547
-9.40689
-9.57666
-9.74936
-9.86977
-9.94656
-10.0114
-10.0692
-10.1179
-10.161
-10.2017
-10.2407
-10.2784
-10.3152
-10.3513
-10.387
-10.4222
-10.4569
-10.4909
-10.5243
-10.5569
-10.5886
-10.6193
-10.6487
-10.6769
-10.7036
-10.7287
-10.752
-10.7734
-10.7928
-10.8098
-10.8244
-10.8364
-10.8455
-10.8515
-10.854
-10.8529
-10.8477
-10.8381
-10.8236
-10.8038
-10.7783
-10.7465
-10.7079
-10.6621
-10.6088
-10.5477
-10.4787
-10.402
-10.3181
-10.2277
-10.1322
-10.0332
-9.93297
-9.83411
-9.73973
-9.65326
-9.57831
-9.51858
-9.47759
-9.45859
-9.46423
-9.49665
-9.55713
-9.64572
-9.7611
-9.90061
-10.0604
-10.2358
-10.421
-10.6101
-10.7969
-10.9749
-11.1379
-11.2794
-11.3926
-11.4705
-11.5056
-11.4897
-11.4142
-11.2699
-11.0478
-10.7398
-10.3402
-9.84681
-9.26247
-8.59597
-7.86218
-7.081
-6.27541
-5.46882
-4.6828
-3.9346
-3.2374
-2.59625
-2.01811
-1.4865
-1.02998
-0.545615
-0.267119
-9.30462
-9.44023
-9.58472
-9.72929
-9.84283
-9.92348
-9.99018
-10.0492
-10.1001
-10.1453
-10.1873
-10.2273
-10.2657
-10.303
-10.3395
-10.3753
-10.4105
-10.445
-10.4789
-10.5121
-10.5444
-10.5758
-10.6062
-10.6353
-10.6631
-10.6895
-10.7142
-10.7372
-10.7583
-10.7772
-10.794
-10.8082
-10.8199
-10.8286
-10.8342
-10.8365
-10.835
-10.8295
-10.8196
-10.8049
-10.785
-10.7594
-10.7276
-10.6892
-10.6438
-10.5911
-10.5309
-10.463
-10.3878
-10.3057
-10.2175
-10.1245
-10.0284
-9.93124
-9.83563
-9.74455
-9.66129
-9.58934
-9.53221
-9.49331
-9.47572
-9.48196
-9.51406
-9.57321
-9.65945
-9.77149
-9.90678
-10.0616
-10.2313
-10.4104
-10.5931
-10.7732
-10.9445
-11.1006
-11.2351
-11.3413
-11.412
-11.4399
-11.417
-11.3346
-11.184
-10.9566
-10.645
-10.244
-9.75191
-9.17201
-8.51312
-7.78974
-7.02104
-6.22895
-5.43577
-4.66203
-3.92415
-3.23482
-2.59882
-2.02331
-1.49158
-1.03419
-0.544836
-0.270748
-9.35732
-9.47072
-9.59481
-9.71862
-9.82323
-9.90388
-9.97109
-10.0306
-10.0829
-10.1295
-10.1727
-10.2135
-10.2525
-10.2903
-10.327
-10.3628
-10.398
-10.4324
-10.4661
-10.499
-10.5311
-10.5621
-10.5921
-10.6209
-10.6483
-10.6743
-10.6987
-10.7213
-10.742
-10.7606
-10.7769
-10.7908
-10.8021
-10.8105
-10.8158
-10.8177
-10.8159
-10.8102
-10.8
-10.7852
-10.7651
-10.7395
-10.7079
-10.6698
-10.625
-10.573
-10.5138
-10.4473
-10.3737
-10.2937
-10.2079
-10.1176
-10.0245
-9.93066
-9.83848
-9.75085
-9.67094
-9.60205
-9.54757
-9.51073
-9.49445
-9.50113
-9.53267
-9.59021
-9.67373
-9.782
-9.91256
-10.0618
-10.2253
-10.3977
-10.5733
-10.7461
-10.9099
-11.0586
-11.1855
-11.2839
-11.347
-11.3673
-11.3369
-11.2474
-11.0906
-10.8581
-10.5433
-10.1414
-9.65139
-9.07673
-8.42627
-7.71408
-6.95853
-6.18051
-5.4012
-4.64011
-3.91286
-3.23166
-2.60104
-2.02836
-1.49679
-1.0386
-0.54482
-0.274457
-9.40387
-9.49962
-9.60662
-9.71398
-9.80926
-9.88765
-9.95435
-10.0137
-10.0666
-10.1142
-10.1581
-10.1995
-10.2391
-10.2771
-10.3139
-10.3498
-10.3849
-10.4192
-10.4526
-10.4853
-10.517
-10.5477
-10.5773
-10.6056
-10.6327
-10.6582
-10.6822
-10.7044
-10.7247
-10.7429
-10.7589
-10.7724
-10.7833
-10.7913
-10.7963
-10.7979
-10.7958
-10.7898
-10.7795
-10.7645
-10.7444
-10.7189
-10.6875
-10.6498
-10.6056
-10.5545
-10.4965
-10.4315
-10.3598
-10.282
-10.1988
-10.1115
-10.0216
-9.93118
-9.84257
-9.75851
-9.68201
-9.61624
-9.56439
-9.52956
-9.5145
-9.52144
-9.55221
-9.60784
-9.6883
-9.79239
-9.91776
-10.061
-10.2177
-10.3827
-10.5506
-10.7155
-10.8713
-11.0118
-11.1305
-11.2207
-11.2756
-11.2879
-11.2498
-11.1532
-10.9901
-10.7529
-10.4353
-10.0331
-9.54586
-8.97722
-8.33593
-7.63561
-6.89378
-6.13031
-5.36524
-4.61709
-3.90073
-3.22787
-2.60285
-2.03317
-1.50205
-1.04314
-0.545475
-0.278142
-9.44455
-9.52654
-9.61928
-9.71333
-9.79987
-9.87473
-9.94003
-9.99864
-10.0515
-10.0995
-10.1439
-10.1857
-10.2255
-10.2637
-10.3006
-10.3365
-10.3715
-10.4055
-10.4387
-10.471
-10.5023
-10.5326
-10.5618
-10.5898
-10.6164
-10.6415
-10.665
-10.6868
-10.7066
-10.7244
-10.74
-10.7531
-10.7636
-10.7713
-10.7759
-10.7772
-10.7749
-10.7686
-10.7582
-10.7431
-10.7231
-10.6977
-10.6666
-10.6295
-10.586
-10.5359
-10.4792
-10.4159
-10.3462
-10.2708
-10.1903
-10.1061
-10.0196
-9.93269
-9.84775
-9.76733
-9.69429
-9.63164
-9.5824
-9.54951
-9.53553
-9.54258
-9.57236
-9.62581
-9.70288
-9.80242
-9.92217
-10.0588
-10.2082
-10.3655
-10.5251
-10.6815
-10.8286
-10.9604
-11.0703
-11.1519
-11.1982
-11.2021
-11.1561
-11.0524
-10.8832
-10.6416
-10.3216
-9.91984
-9.43603
-8.8741
-8.24265
-7.55476
-6.82713
-6.07855
-5.32801
-4.59303
-3.88774
-3.22341
-2.60419
-2.03769
-1.50729
-1.04772
-0.54671
-0.281711
-9.48008
-9.55139
-9.63237
-9.71548
-9.79412
-9.8648
-9.92799
-9.98535
-10.0377
-10.0856
-10.1302
-10.1722
-10.2121
-10.2503
-10.2872
-10.323
-10.3578
-10.3916
-10.4245
-10.4564
-10.4873
-10.5172
-10.546
-10.5735
-10.5996
-10.6243
-10.6473
-10.6686
-10.6881
-10.7054
-10.7205
-10.7333
-10.7434
-10.7507
-10.755
-10.756
-10.7534
-10.7469
-10.7363
-10.7212
-10.7013
-10.6761
-10.6455
-10.6089
-10.5663
-10.5173
-10.4621
-10.4005
-10.333
-10.26
-10.1824
-10.1014
-10.0183
-9.93506
-9.85383
-9.77709
-9.70752
-9.64796
-9.60128
-9.57024
-9.5572
-9.56419
-9.59277
-9.6438
-9.71721
-9.81187
-9.92564
-10.0554
-10.197
-10.3459
-10.4968
-10.6441
-10.7821
-10.9046
-11.0054
-11.0778
-11.1152
-11.1106
-11.0565
-10.9457
-10.7707
-10.5249
-10.2032
-9.80234
-9.32262
-8.76803
-8.14697
-7.47198
-6.7589
-6.02548
-5.28965
-4.56799
-3.87392
-3.21825
-2.605
-2.04185
-1.51242
-1.05228
-0.548435
-0.285086
-9.51127
-9.57419
-9.64554
-9.71956
-9.79114
-9.85742
-9.91804
-9.97377
-10.0252
-10.0727
-10.1171
-10.159
-10.1989
-10.2371
-10.2739
-10.3095
-10.344
-10.3775
-10.4101
-10.4416
-10.4721
-10.5016
-10.5299
-10.5569
-10.5826
-10.6067
-10.6293
-10.6502
-10.6691
-10.686
-10.7007
-10.713
-10.7227
-10.7297
-10.7336
-10.7343
-10.7315
-10.7249
-10.7142
-10.6991
-10.6793
-10.6544
-10.6242
-10.5883
-10.5466
-10.4989
-10.4451
-10.3854
-10.3201
-10.2497
-10.1751
-10.0973
-10.0177
-9.93813
-9.86064
-9.78756
-9.72142
-9.6649
-9.62071
-9.5914
-9.57918
-9.58595
-9.61315
-9.66155
-9.73104
-9.82055
-9.92803
-10.0505
-10.184
-10.3241
-10.4659
-10.6037
-10.7321
-10.8449
-10.936
-10.999
-11.0272
-11.0138
-10.9518
-10.8339
-10.6533
-10.4038
-10.0808
-9.68147
-9.20641
-8.6597
-8.04949
-7.38773
-6.68943
-5.97132
-5.2503
-4.54204
-3.85927
-3.21237
-2.60523
-2.04557
-1.51738
-1.05675
-0.550563
-0.288203
-9.5388
-9.59504
-9.65852
-9.72492
-9.79025
-9.85218
-9.90996
-9.96378
-10.014
-10.0608
-10.1048
-10.1464
-10.1861
-10.2241
-10.2607
-10.296
-10.3303
-10.3634
-10.3956
-10.4268
-10.4568
-10.4858
-10.5136
-10.5402
-10.5654
-10.589
-10.6111
-10.6315
-10.65
-10.6664
-10.6807
-10.6925
-10.7019
-10.7085
-10.7121
-10.7125
-10.7094
-10.7027
-10.6919
-10.6769
-10.6572
-10.6327
-10.603
-10.5679
-10.5271
-10.4807
-10.4285
-10.3708
-10.3077
-10.24
-10.1683
-10.0937
-10.0177
-9.94176
-9.86797
-9.7985
-9.73573
-9.68217
-9.64036
-9.61266
-9.60113
-9.60752
-9.63318
-9.67876
-9.74415
-9.8283
-9.92924
-10.0441
-10.1693
-10.3003
-10.4325
-10.5606
-10.679
-10.7818
-10.8629
-10.9161
-10.935
-10.9128
-10.8427
-10.7179
-10.532
-10.2793
-9.95535
-9.55809
-9.08819
-8.54978
-7.95074
-7.30244
-6.61904
-5.91629
-5.21009
-4.51523
-3.8438
-3.20574
-2.60484
-2.04882
-1.52209
-1.06107
-0.553011
-0.291012
-9.56325
-9.61409
-9.67111
-9.73108
-9.79092
-9.84868
-9.90351
-9.95525
-10.004
-10.0499
-10.0932
-10.1344
-10.1737
-10.2114
-10.2476
-10.2827
-10.3166
-10.3494
-10.3812
-10.4119
-10.4415
-10.47
-10.4974
-10.5234
-10.5481
-10.5713
-10.5929
-10.6127
-10.6307
-10.6467
-10.6605
-10.672
-10.6809
-10.6871
-10.6904
-10.6906
-10.6873
-10.6805
-10.6697
-10.6547
-10.6353
-10.6111
-10.582
-10.5476
-10.508
-10.4628
-10.4123
-10.3565
-10.2958
-10.2307
-10.162
-10.0907
-10.0181
-9.9458
-9.87565
-9.80971
-9.75021
-9.6995
-9.65994
-9.63372
-9.62274
-9.62863
-9.6526
-9.69523
-9.75636
-9.83499
-9.92923
-10.0364
-10.1529
-10.2747
-10.3971
-10.5151
-10.6232
-10.7156
-10.7866
-10.8299
-10.8392
-10.8082
-10.7302
-10.5988
-10.4079
-10.1522
-9.82785
-9.43306
-8.96871
-8.43893
-7.85128
-7.21654
-6.54805
-5.86061
-5.16916
-4.48765
-3.82753
-3.19835
-2.60378
-2.05153
-1.52649
-1.06518
-0.555696
-0.293478
-9.58508
-9.63149
-9.68316
-9.7377
-9.79271
-9.84658
-9.89847
-9.948
-9.99511
-10.0398
-10.0823
-10.1229
-10.1617
-10.199
-10.2349
-10.2695
-10.303
-10.3354
-10.3668
-10.397
-10.4262
-10.4543
-10.4811
-10.5066
-10.5308
-10.5535
-10.5746
-10.594
-10.6115
-10.627
-10.6404
-10.6514
-10.66
-10.6659
-10.6689
-10.6688
-10.6653
-10.6583
-10.6475
-10.6327
-10.6135
-10.5898
-10.5612
-10.5277
-10.4891
-10.4454
-10.3965
-10.3427
-10.2843
-10.2219
-10.1561
-10.088
-10.0189
-9.95011
-9.8835
-9.82098
-9.76464
-9.71665
-9.67921
-9.65433
-9.64377
-9.64903
-9.67118
-9.71075
-9.76752
-9.84052
-9.92796
-10.0272
-10.135
-10.2474
-10.3598
-10.4675
-10.5652
-10.6472
-10.7078
-10.7411
-10.7409
-10.7011
-10.6153
-10.4774
-10.2818
-10.0235
-9.69914
-9.30718
-8.8487
-8.32776
-7.7516
-7.13042
-6.47675
-5.80448
-5.12763
-4.45935
-3.81049
-3.19018
-2.60202
-2.05365
-1.53052
-1.06902
-0.558542
-0.295581
-9.60468
-9.6474
-9.69461
-9.74454
-9.79529
-9.84558
-9.8946
-9.94191
-9.98729
-10.0307
-10.0722
-10.112
-10.1502
-10.1869
-10.2224
-10.2566
-10.2896
-10.3216
-10.3525
-10.3823
-10.411
-10.4385
-10.4649
-10.4899
-10.5136
-10.5358
-10.5564
-10.5753
-10.5923
-10.6074
-10.6203
-10.631
-10.6391
-10.6447
-10.6474
-10.6471
-10.6435
-10.6364
-10.6257
-10.6109
-10.5921
-10.5688
-10.5409
-10.5083
-10.4708
-10.4284
-10.3812
-10.3294
-10.2733
-10.2135
-10.1507
-10.0857
-10.0199
-9.95457
-9.89139
-9.83216
-9.77883
-9.73342
-9.69795
-9.67427
-9.66401
-9.66852
-9.68876
-9.72517
-9.77752
-9.84485
-9.92543
-10.0168
-10.1158
-10.2187
-10.3211
-10.4184
-10.5055
-10.5769
-10.6271
-10.6504
-10.6407
-10.5922
-10.4988
-10.3547
-10.1546
-9.89413
-9.57006
-9.18123
-8.72882
-8.21683
-7.65216
-7.04443
-6.40541
-5.74809
-5.08563
-4.43041
-3.7927
-3.18122
-2.59952
-2.05514
-1.53412
-1.07255
-0.561474
-0.297309
-9.62235
-9.66196
-9.70542
-9.75139
-9.79842
-9.84543
-9.89171
-9.9368
-9.98041
-10.0224
-10.0629
-10.1018
-10.1392
-10.1753
-10.2102
-10.2439
-10.2764
-10.3079
-10.3383
-10.3676
-10.3958
-10.4229
-10.4487
-10.4733
-10.4964
-10.5181
-10.5382
-10.5566
-10.5732
-10.5879
-10.6004
-10.6106
-10.6185
-10.6237
-10.6261
-10.6256
-10.6219
-10.6148
-10.6041
-10.5895
-10.571
-10.5482
-10.521
-10.4892
-10.4529
-10.4119
-10.3664
-10.3166
-10.2628
-10.2056
-10.1456
-10.0837
-10.0211
-9.95909
-9.8992
-9.84312
-9.79265
-9.74965
-9.716
-9.69338
-9.68329
-9.68694
-9.70519
-9.73839
-9.78628
-9.84793
-9.92168
-10.0052
-10.0954
-10.1888
-10.2812
-10.3681
-10.4446
-10.5055
-10.5453
-10.5586
-10.5395
-10.4824
-10.3816
-10.2316
-10.0273
-9.76487
-9.44137
-9.05587
-8.60967
-8.10665
-7.55338
-6.95891
-6.33426
-5.69161
-5.04328
-4.40089
-3.77419
-3.17149
-2.59628
-2.05598
-1.53724
-1.07573
-0.564422
-0.298664
-9.63833
-9.67528
-9.71556
-9.75814
-9.80188
-9.84592
-9.88962
-9.93254
-9.97437
-10.0149
-10.0542
-10.0921
-10.1287
-10.1642
-10.1984
-10.2315
-10.2635
-10.2945
-10.3244
-10.3532
-10.3809
-10.4074
-10.4327
-10.4568
-10.4794
-10.5006
-10.5202
-10.5382
-10.5543
-10.5685
-10.5806
-10.5905
-10.598
-10.6029
-10.6051
-10.6044
-10.6006
-10.5935
-10.5828
-10.5685
-10.5503
-10.528
-10.5015
-10.4707
-10.4355
-10.396
-10.3521
-10.3043
-10.2527
-10.198
-10.1408
-10.0819
-10.0224
-9.96359
-9.90685
-9.85375
-9.80597
-9.76523
-9.73324
-9.71154
-9.70149
-9.70419
-9.72038
-9.75034
-9.79377
-9.84976
-9.91672
-9.9924
-10.0739
-10.1579
-10.2404
-10.317
-10.383
-10.4333
-10.4629
-10.4662
-10.4379
-10.3725
-10.2645
-10.1087
-9.90061
-9.63644
-9.31372
-8.93171
-8.49177
-7.99766
-7.4556
-6.87413
-6.26354
-5.63521
-5.00068
-4.37087
-3.75499
-3.16098
-2.59227
-2.05612
-1.53984
-1.0785
-0.567322
-0.299655
-9.65283
-9.68749
-9.72504
-9.76468
-9.80552
-9.84687
-9.88817
-9.929
-9.96906
-10.0081
-10.0461
-10.083
-10.1188
-10.1534
-10.187
-10.2194
-10.2509
-10.2813
-10.3106
-10.3389
-10.3661
-10.3921
-10.4169
-10.4404
-10.4626
-10.4833
-10.5024
-10.5199
-10.5356
-10.5494
-10.5611
-10.5706
-10.5778
-10.5824
-10.5844
-10.5835
-10.5796
-10.5725
-10.562
-10.5479
-10.5301
-10.5083
-10.4826
-10.4527
-10.4187
-10.3805
-10.3384
-10.2925
-10.2431
-10.1908
-10.1363
-10.0803
-10.0238
-9.968
-9.91425
-9.86397
-9.81872
-9.78007
-9.74958
-9.72866
-9.71854
-9.7202
-9.73427
-9.76097
-9.79997
-9.85036
-9.91062
-9.9786
-10.0516
-10.1262
-10.1989
-10.2653
-10.3209
-10.3609
-10.3803
-10.374
-10.3366
-10.263
-10.148
-9.98681
-9.77509
-9.50944
-9.18769
-8.80925
-8.37555
-7.89022
-7.35915
-6.79034
-6.19342
-5.57902
-4.95793
-4.3404
-3.73513
-3.14971
-2.58747
-2.05556
-1.54187
-1.08085
-0.570112
-0.3003
-9.66601
-9.69869
-9.73387
-9.77096
-9.80924
-9.84815
-9.88722
-9.92606
-9.96439
-10.002
-10.0387
-10.0745
-10.1093
-10.1431
-10.1759
-10.2077
-10.2385
-10.2683
-10.2971
-10.3248
-10.3515
-10.377
-10.4013
-10.4243
-10.4459
-10.4661
-10.4848
-10.5018
-10.5171
-10.5304
-10.5418
-10.5509
-10.5578
-10.5622
-10.564
-10.563
-10.559
-10.552
-10.5416
-10.5278
-10.5103
-10.4892
-10.4642
-10.4352
-10.4024
-10.3656
-10.3251
-10.2811
-10.2339
-10.184
-10.1321
-10.0788
-10.0252
-9.97229
-9.92136
-9.87373
-9.83083
-9.7941
-9.76495
-9.74468
-9.73438
-9.73492
-9.74684
-9.77027
-9.80488
-9.84976
-9.90343
-9.96384
-10.0284
-10.094
-10.157
-10.2134
-10.2588
-10.2887
-10.2981
-10.2823
-10.2361
-10.1546
-10.0329
-9.86644
-9.65133
-9.38441
-9.06374
-8.68892
-8.26139
-7.78465
-7.26427
-6.70775
-6.12408
-5.52318
-4.91513
-4.30956
-3.71467
-3.1377
-2.5819
-2.05426
-1.54331
-1.08274
-0.57274
-0.300622
-9.67802
-9.70895
-9.74208
-9.77693
-9.81294
-9.84964
-9.88665
-9.92362
-9.96028
-9.9964
-10.0318
-10.0665
-10.1003
-10.1333
-10.1653
-10.1964
-10.2265
-10.2557
-10.2839
-10.3111
-10.3371
-10.3621
-10.3859
-10.4084
-10.4295
-10.4492
-10.4675
-10.484
-10.4988
-10.5118
-10.5228
-10.5316
-10.5382
-10.5424
-10.544
-10.5429
-10.5389
-10.5319
-10.5217
-10.5081
-10.4911
-10.4705
-10.4463
-10.4183
-10.3866
-10.3512
-10.3124
-10.2702
-10.2251
-10.1775
-10.1281
-10.0774
-10.0265
-9.9764
-9.92813