/*--------------------------------*- C++ -*----------------------------------*\
| =========                 |                                                 |
| \\      /  F ield         | OpenFOAM: The Open Source CFD Toolbox           |
|  \\    /   O peration     | Version:  4.1                                   |
|   \\  /    A nd           | Web:      www.OpenFOAM.org                      |
|    \\/     M anipulation  |                                                 |
\*---------------------------------------------------------------------------*/
FoamFile
{
    version     2.0;
    format      ascii;
    class       surfaceScalarField;
    location    "400";
    object      phi;
}
// * * * * * * * * * * * * * * * * * * * * * * * * * * * * * * * * * * * * * //

dimensions      [0 3 -1 0 0 0 0];

internalField   nonuniform List<scalar> 
13452
(
5.98811e-05
3.87319e-07
5.95252e-05
3.559e-07
5.92697e-05
2.5553e-07
5.90617e-05
2.07996e-07
5.88796e-05
1.82161e-07
5.8717e-05
1.62526e-07
5.85693e-05
1.4774e-07
5.84327e-05
1.36577e-07
5.83052e-05
1.27527e-07
5.81853e-05
1.19871e-07
5.8072e-05
1.13352e-07
5.79642e-05
1.07799e-07
5.78611e-05
1.03074e-07
5.7762e-05
9.90749e-08
5.76663e-05
9.57381e-08
5.75733e-05
9.30246e-08
5.74823e-05
9.09185e-08
5.73929e-05
8.94276e-08
5.73043e-05
8.85865e-08
5.72159e-05
8.84625e-08
5.71267e-05
8.91675e-08
5.70358e-05
9.08775e-08
5.69419e-05
9.38685e-08
5.68434e-05
9.85824e-08
5.67376e-05
1.05755e-07
5.66209e-05
1.1667e-07
5.64872e-05
1.33784e-07
5.63254e-05
1.61792e-07
5.61129e-05
2.12471e-07
5.58067e-05
3.06211e-07
5.52789e-05
5.27758e-07
5.42319e-05
1.04701e-06
1.53515e-06
5.26968e-05
6.20749e-05
3.0274e-07
6.19988e-05
4.32051e-07
6.18517e-05
4.02577e-07
6.16886e-05
3.71159e-07
6.15295e-05
3.41238e-07
6.13801e-05
3.11936e-07
6.12406e-05
2.87198e-07
6.111e-05
2.67162e-07
6.09871e-05
2.50441e-07
6.08708e-05
2.36174e-07
6.07602e-05
2.23928e-07
6.06546e-05
2.13393e-07
6.05534e-05
2.04333e-07
6.04559e-05
1.96582e-07
6.03616e-05
1.90035e-07
6.027e-05
1.84625e-07
6.01806e-05
1.80324e-07
6.00929e-05
1.77143e-07
6.00063e-05
1.75138e-07
5.99203e-05
1.74416e-07
5.98344e-05
1.75153e-07
5.97476e-05
1.77625e-07
5.96592e-05
1.82254e-07
5.95681e-05
1.89692e-07
5.94729e-05
2.00984e-07
5.93717e-05
2.17819e-07
5.92622e-05
2.43279e-07
5.91417e-05
2.82291e-07
5.90072e-05
3.47065e-07
5.8862e-05
4.51327e-07
5.87298e-05
6.6004e-07
5.87784e-05
9.98418e-07
1.63091e-06
5.86826e-05
6.38373e-05
2.26805e-07
6.38685e-05
4.0088e-07
6.38445e-05
4.26553e-07
6.37852e-05
4.30493e-07
6.3705e-05
4.21465e-07
6.36145e-05
4.02387e-07
6.35203e-05
3.81466e-07
6.34254e-05
3.62028e-07
6.33315e-05
3.44347e-07
6.32393e-05
3.28395e-07
6.3149e-05
3.14181e-07
6.30608e-05
3.0163e-07
6.29745e-05
2.90631e-07
6.289e-05
2.81101e-07
6.2807e-05
2.72991e-07
6.27253e-05
2.66281e-07
6.26447e-05
2.60986e-07
6.25647e-05
2.57162e-07
6.24849e-05
2.54915e-07
6.24049e-05
2.54418e-07
6.23241e-05
2.55935e-07
6.22419e-05
2.59853e-07
6.21574e-05
2.66751e-07
6.20696e-05
2.7749e-07
6.19772e-05
2.93401e-07
6.18785e-05
3.16524e-07
6.17714e-05
3.50319e-07
6.16538e-05
3.99899e-07
6.15249e-05
4.75932e-07
6.13872e-05
5.89019e-07
6.12711e-05
7.76178e-07
6.12407e-05
1.02886e-06
1.46783e-06
6.14037e-05
6.5637e-05
1.72851e-07
6.5689e-05
3.48935e-07
6.57123e-05
4.03203e-07
6.57128e-05
4.29972e-07
6.56934e-05
4.4092e-07
6.56583e-05
4.3744e-07
6.56125e-05
4.27259e-07
6.55596e-05
4.14962e-07
6.5502e-05
4.0198e-07
6.54413e-05
3.89064e-07
6.53787e-05
3.76787e-07
6.53149e-05
3.65465e-07
6.52502e-05
3.55254e-07
6.51851e-05
3.46259e-07
6.51195e-05
3.38564e-07
6.50535e-05
3.32258e-07
6.49871e-05
3.27444e-07
6.492e-05
3.24258e-07
6.4852e-05
3.22884e-07
6.47829e-05
3.23577e-07
6.47121e-05
3.26694e-07
6.46392e-05
3.32731e-07
6.45636e-05
3.42396e-07
6.44844e-05
3.56707e-07
6.44006e-05
3.77158e-07
6.43112e-05
4.05939e-07
6.4215e-05
4.46457e-07
6.41115e-05
5.03431e-07
6.40024e-05
5.85081e-07
6.38925e-05
6.98914e-07
6.38046e-05
8.64045e-07
6.3764e-05
1.06951e-06
1.35559e-06
6.38762e-05
6.74946e-05
1.35051e-07
6.75432e-05
3.00318e-07
6.7578e-05
3.68377e-07
6.76015e-05
4.06516e-07
6.76129e-05
4.29515e-07
6.76122e-05
4.38103e-07
6.76013e-05
4.38162e-07
6.75821e-05
4.34157e-07
6.75563e-05
4.27842e-07
6.75251e-05
4.20235e-07
6.74897e-05
4.12182e-07
6.74509e-05
4.04259e-07
6.74093e-05
3.96841e-07
6.73654e-05
3.902e-07
6.73194e-05
3.84564e-07
6.72715e-05
3.80136e-07
6.72218e-05
3.77119e-07
6.71703e-05
3.75739e-07
6.7117e-05
3.76263e-07
6.70615e-05
3.7903e-07
6.70037e-05
3.84479e-07
6.69433e-05
3.93193e-07
6.68797e-05
4.0597e-07
6.68125e-05
4.239e-07
6.67411e-05
4.48517e-07
6.66651e-05
4.81937e-07
6.65844e-05
5.27194e-07
6.64997e-05
5.88181e-07
6.64141e-05
6.7062e-07
6.63339e-05
7.79136e-07
6.62759e-05
9.2206e-07
6.62558e-05
1.08957e-06
1.28698e-06
6.63244e-05
6.94108e-05
1.08247e-07
6.9452e-05
2.59146e-07
6.94867e-05
3.3367e-07
6.95157e-05
3.77548e-07
6.95384e-05
4.0684e-07
6.95535e-05
4.22908e-07
6.95615e-05
4.30181e-07
6.9563e-05
4.32702e-07
6.95586e-05
4.32264e-07
6.95489e-05
4.29879e-07
6.95347e-05
4.26418e-07
6.95164e-05
4.22537e-07
6.94945e-05
4.18703e-07
6.94695e-05
4.15282e-07
6.94414e-05
4.12586e-07
6.94107e-05
4.109e-07
6.93773e-05
4.10502e-07
6.93413e-05
4.1169e-07
6.93028e-05
4.14796e-07
6.92616e-05
4.20224e-07
6.92176e-05
4.28472e-07
6.91706e-05
4.40177e-07
6.91204e-05
4.56169e-07
6.90668e-05
4.77538e-07
6.90096e-05
5.05732e-07
6.89489e-05
5.42638e-07
6.88853e-05
5.90731e-07
6.88206e-05
6.5292e-07
6.87584e-05
7.32778e-07
6.8705e-05
8.32582e-07
6.86724e-05
9.5465e-07
6.86712e-05
1.09077e-06
1.23517e-06
6.8723e-05
7.13857e-05
8.89138e-08
7.14198e-05
2.24996e-07
7.14516e-05
3.01892e-07
7.14801e-05
3.49023e-07
7.15053e-05
3.81695e-07
7.15259e-05
4.02255e-07
7.15419e-05
4.14207e-07
7.15534e-05
4.21189e-07
7.15606e-05
4.25038e-07
7.15638e-05
4.26749e-07
7.1563e-05
4.27149e-07
7.15587e-05
4.26893e-07
7.15509e-05
4.26467e-07
7.15399e-05
4.26264e-07
7.15259e-05
4.26628e-07
7.15089e-05
4.27884e-07
7.14891e-05
4.30348e-07
7.14664e-05
4.34357e-07
7.14409e-05
4.40284e-07
7.14126e-05
4.48564e-07
7.13813e-05
4.59724e-07
7.13471e-05
4.74411e-07
7.13098e-05
4.93434e-07
7.12695e-05
5.17814e-07
7.12264e-05
5.48826e-07
7.1181e-05
5.88032e-07
7.11345e-05
6.37291e-07
7.10888e-05
6.98558e-07
7.10479e-05
7.73753e-07
7.1017e-05
8.63477e-07
7.10046e-05
9.67055e-07
7.10176e-05
1.07774e-06
1.18766e-06
7.10651e-05
7.34195e-05
7.46705e-08
7.34477e-05
1.96766e-07
7.34762e-05
2.73409e-07
7.35028e-05
3.22427e-07
7.35274e-05
3.57106e-07
7.35491e-05
3.80559e-07
7.35676e-05
3.95694e-07
7.35831e-05
4.0575e-07
7.35955e-05
4.12609e-07
7.36049e-05
4.17299e-07
7.36115e-05
4.20627e-07
7.36151e-05
4.23238e-07
7.3616e-05
4.25623e-07
7.3614e-05
4.28181e-07
7.36094e-05
4.31264e-07
7.36021e-05
4.35208e-07
7.35921e-05
4.40343e-07
7.35794e-05
4.47019e-07
7.35641e-05
4.55622e-07
7.35461e-05
4.66591e-07
7.35253e-05
4.80447e-07
7.35019e-05
4.97808e-07
7.3476e-05
5.19421e-07
7.34476e-05
5.46178e-07
7.34173e-05
5.79135e-07
7.33858e-05
6.19487e-07
7.33546e-05
6.6851e-07
7.33258e-05
7.27343e-07
7.33028e-05
7.96734e-07
7.32901e-05
8.76224e-07
7.32933e-05
9.63854e-07
7.33169e-05
1.05414e-06
1.14004e-06
7.33645e-05
7.55132e-05
6.39233e-08
7.55366e-05
1.7338e-07
7.5562e-05
2.4803e-07
7.55865e-05
2.9793e-07
7.56097e-05
3.33859e-07
7.5631e-05
3.59316e-07
7.56499e-05
3.76809e-07
7.56664e-05
3.89169e-07
7.56808e-05
3.98271e-07
7.56929e-05
4.05194e-07
7.57028e-05
4.10744e-07
7.57104e-05
4.1557e-07
7.57159e-05
4.20173e-07
7.57191e-05
4.24959e-07
7.57201e-05
4.30286e-07
7.57188e-05
4.3649e-07
7.57152e-05
4.43906e-07
7.57094e-05
4.52881e-07
7.57012e-05
4.63792e-07
7.56907e-05
4.77065e-07
7.5678e-05
4.93186e-07
7.56631e-05
5.12717e-07
7.56462e-05
5.36307e-07
7.56277e-05
5.64693e-07
7.56081e-05
5.98688e-07
7.55885e-05
6.3913e-07
7.55702e-05
6.86791e-07
7.55554e-05
7.42171e-07
7.55469e-05
8.05251e-07
7.55481e-05
8.74983e-07
7.55629e-05
9.49026e-07
7.55941e-05
1.02298e-06
1.09129e-06
7.56428e-05
7.76679e-05
5.56082e-08
7.76874e-05
1.539e-07
7.77099e-05
2.25456e-07
7.77325e-05
2.75405e-07
7.77543e-05
3.12049e-07
7.77747e-05
3.38922e-07
7.77932e-05
3.58249e-07
7.78099e-05
3.7247e-07
7.78248e-05
3.83388e-07
7.78379e-05
3.92112e-07
7.78492e-05
3.9945e-07
7.78587e-05
4.06059e-07
7.78664e-05
4.12451e-07
7.78723e-05
4.19043e-07
7.78764e-05
4.26198e-07
7.78787e-05
4.34254e-07
7.7879e-05
4.43541e-07
7.78775e-05
4.54399e-07
7.78741e-05
4.67186e-07
7.78689e-05
4.82298e-07
7.78619e-05
5.0017e-07
7.78533e-05
5.2129e-07
7.78434e-05
5.46191e-07
7.78327e-05
5.75444e-07
7.78218e-05
6.09627e-07
7.78116e-05
6.49259e-07
7.78037e-05
6.94705e-07
7.77999e-05
7.46007e-07
7.78024e-05
8.02682e-07
7.7814e-05
8.63425e-07
7.78371e-05
9.25947e-07
7.78733e-05
9.86764e-07
1.04173e-06
7.79229e-05
7.98849e-05
4.901e-08
7.99013e-05
1.37544e-07
7.99213e-05
2.05377e-07
7.99421e-05
2.54684e-07
7.99625e-05
2.91596e-07
7.9982e-05
3.19426e-07
8.00001e-05
3.40181e-07
8.00166e-05
3.5595e-07
8.00316e-05
3.68411e-07
8.0045e-05
3.78672e-07
8.00569e-05
3.8754e-07
8.00673e-05
3.95665e-07
8.00762e-05
4.03569e-07
8.00836e-05
4.11676e-07
8.00894e-05
4.20353e-07
8.00937e-05
4.29937e-07
8.00965e-05
4.40751e-07
8.00978e-05
4.5312e-07
8.00976e-05
4.67377e-07
8.0096e-05
4.83879e-07
8.00932e-05
5.03002e-07
8.00893e-05
5.25149e-07
8.00848e-05
5.50734e-07
8.00801e-05
5.80166e-07
8.00759e-05
6.1381e-07
8.00732e-05
6.51924e-07
8.00734e-05
6.94568e-07
8.00779e-05
7.41477e-07
8.00887e-05
7.91923e-07
8.01075e-05
8.44553e-07
8.01362e-05
8.97322e-07
8.01754e-05
9.47503e-07
9.9207e-07
8.02251e-05
8.21658e-05
4.36443e-08
8.21797e-05
1.2367e-07
8.21976e-05
1.87484e-07
8.22167e-05
2.35597e-07
8.22359e-05
2.72387e-07
8.22545e-05
3.00787e-07
8.22721e-05
3.22615e-07
8.22884e-05
3.39658e-07
8.23033e-05
3.53444e-07
8.2317e-05
3.65047e-07
8.23292e-05
3.75259e-07
8.23402e-05
3.84718e-07
8.23498e-05
3.93945e-07
8.23581e-05
4.03364e-07
8.23651e-05
4.13341e-07
8.23709e-05
4.24207e-07
8.23753e-05
4.36274e-07
8.23786e-05
4.49846e-07
8.23808e-05
4.65226e-07
8.23819e-05
4.82725e-07
8.23823e-05
5.02657e-07
8.23821e-05
5.25338e-07
8.23817e-05
5.51069e-07
8.23818e-05
5.80111e-07
8.2383e-05
6.1265e-07
8.23861e-05
6.4874e-07
8.23925e-05
6.8823e-07
8.24033e-05
7.30672e-07
8.242e-05
7.75239e-07
8.24439e-05
8.20649e-07
8.2476e-05
8.65162e-07
8.25169e-05
9.06666e-07
9.42969e-07
8.2566e-05
8.45122e-05
3.91788e-08
8.45241e-05
1.11764e-07
8.45402e-05
1.71478e-07
8.45578e-05
2.1798e-07
8.45759e-05
2.54303e-07
8.45937e-05
2.82936e-07
8.46108e-05
3.05515e-07
8.46269e-05
3.23574e-07
8.46419e-05
3.38477e-07
8.46557e-05
3.51244e-07
8.46683e-05
3.6264e-07
8.46797e-05
3.73282e-07
8.469e-05
3.83678e-07
8.46991e-05
3.94246e-07
8.47071e-05
4.05345e-07
8.4714e-05
4.17294e-07
8.47199e-05
4.30387e-07
8.47248e-05
4.44903e-07
8.47289e-05
4.61112e-07
8.47324e-05
4.79276e-07
8.47354e-05
4.99644e-07
8.47383e-05
5.2245e-07
8.47415e-05
5.4789e-07
8.47455e-05
5.76102e-07
8.4751e-05
6.07129e-07
8.47589e-05
6.40877e-07
8.477e-05
6.77058e-07
8.47856e-05
7.15135e-07
8.48065e-05
7.54274e-07
8.48339e-05
7.93326e-07
8.48682e-05
8.30854e-07
8.49096e-05
8.65233e-07
8.94885e-07
8.49577e-05
8.6926e-05
3.5382e-08
8.69363e-05
1.01415e-07
8.69507e-05
1.57083e-07
8.6967e-05
2.01668e-07
8.69841e-05
2.37225e-07
8.70012e-05
2.65797e-07
8.70179e-05
2.88833e-07
8.70338e-05
3.07657e-07
8.70488e-05
3.23472e-07
8.70629e-05
3.37226e-07
8.70758e-05
3.49647e-07
8.70878e-05
3.61323e-07
8.70987e-05
3.72743e-07
8.71087e-05
3.8431e-07
8.71177e-05
3.96369e-07
8.71257e-05
4.09221e-07
8.7133e-05
4.2314e-07
8.71395e-05
4.38375e-07
8.71455e-05
4.55158e-07
8.7151e-05
4.73701e-07
8.71565e-05
4.94194e-07
8.71621e-05
5.16792e-07
8.71684e-05
5.41603e-07
8.71759e-05
5.68664e-07
8.71851e-05
5.97912e-07
8.71968e-05
6.29152e-07
8.72118e-05
6.62021e-07
8.7231e-05
6.95952e-07
8.72551e-05
7.30164e-07
8.72848e-05
7.63662e-07
8.73204e-05
7.95282e-07
8.73618e-05
8.23785e-07
8.48033e-07
8.74087e-05
8.94088e-05
3.20897e-08
8.94179e-05
9.22995e-08
8.9431e-05
1.44043e-07
8.94462e-05
1.86499e-07
8.94623e-05
2.21034e-07
8.94789e-05
2.49282e-07
8.94952e-05
2.7251e-07
8.9511e-05
2.91857e-07
8.95261e-05
3.08379e-07
8.95404e-05
3.22941e-07
8.95538e-05
3.36225e-07
8.95663e-05
3.48784e-07
8.9578e-05
3.61079e-07
8.95888e-05
3.73494e-07
8.95988e-05
3.86354e-07
8.96081e-05
3.99939e-07
8.96167e-05
4.14496e-07
8.96249e-05
4.30243e-07
8.96327e-05
4.47373e-07
8.96403e-05
4.66049e-07
8.96481e-05
4.86406e-07
8.96564e-05
5.08531e-07
8.96655e-05
5.32459e-07
8.9676e-05
5.58148e-07
8.96885e-05
5.85462e-07
8.97035e-05
6.14145e-07
8.97217e-05
6.43801e-07
8.97438e-05
6.7388e-07
8.97703e-05
7.03676e-07
8.98016e-05
7.32352e-07
8.98379e-05
7.5898e-07
8.9879e-05
7.82618e-07
8.02448e-07
8.99246e-05
9.19628e-05
2.91818e-08
9.19709e-05
8.41561e-08
9.19828e-05
1.32129e-07
9.1997e-05
1.72314e-07
9.20124e-05
2.05609e-07
9.20284e-05
2.33302e-07
9.20444e-05
2.56478e-07
9.20602e-05
2.7612e-07
9.20754e-05
2.93146e-07
9.209e-05
3.08334e-07
9.21039e-05
3.22314e-07
9.21171e-05
3.35598e-07
9.21296e-05
3.48617e-07
9.21413e-05
3.61728e-07
9.21525e-05
3.75231e-07
9.2163e-05
3.89381e-07
9.21731e-05
4.04397e-07
9.21829e-05
4.20463e-07
9.21925e-05
4.37735e-07
9.22023e-05
4.56331e-07
9.22123e-05
4.76335e-07
9.22231e-05
4.97778e-07
9.22349e-05
5.20638e-07
9.22482e-05
5.44816e-07
9.22636e-05
5.70128e-07
9.22814e-05
5.96289e-07
9.23023e-05
6.22901e-07
9.23268e-05
6.49453e-07
9.23551e-05
6.75332e-07
9.23876e-05
6.99842e-07
9.24243e-05
7.22253e-07
9.24651e-05
7.41852e-07
7.58055e-07
9.25095e-05
9.45898e-05
2.65688e-08
9.45971e-05
7.67771e-08
9.46081e-05
1.21135e-07
9.46215e-05
1.58956e-07
9.46363e-05
1.9083e-07
9.46518e-05
2.17759e-07
9.46676e-05
2.40661e-07
9.46834e-05
2.60381e-07
9.46988e-05
2.77713e-07
9.47138e-05
2.93347e-07
9.47283e-05
3.07853e-07
9.47422e-05
3.21704e-07
9.47555e-05
3.3529e-07
9.47683e-05
3.48941e-07
9.47806e-05
3.62929e-07
9.47925e-05
3.77481e-07
9.48041e-05
3.92784e-07
9.48156e-05
4.08993e-07
9.48271e-05
4.26224e-07
9.48388e-05
4.44557e-07
9.48511e-05
4.64031e-07
9.48643e-05
4.84634e-07
9.48786e-05
5.06298e-07
9.48945e-05
5.2889e-07
9.49125e-05
5.52198e-07
9.49328e-05
5.75929e-07
9.4956e-05
5.99705e-07
9.49824e-05
6.23068e-07
9.50123e-05
6.45495e-07
9.50457e-05
6.66419e-07
9.50827e-05
6.8527e-07
9.5123e-05
7.01511e-07
7.14728e-07
9.51663e-05
9.72919e-05
2.41815e-08
9.72987e-05
6.99932e-08
9.73089e-05
1.10878e-07
9.73216e-05
1.46273e-07
9.73359e-05
1.76573e-07
9.73511e-05
2.02552e-07
9.73668e-05
2.24978e-07
9.73826e-05
2.44572e-07
9.73983e-05
2.62016e-07
9.74137e-05
2.77916e-07
9.74288e-05
2.92782e-07
9.74434e-05
3.07037e-07
9.74577e-05
3.21035e-07
9.74716e-05
3.35072e-07
9.74851e-05
3.49389e-07
9.74984e-05
3.64184e-07
9.75116e-05
3.79616e-07
9.75248e-05
3.95804e-07
9.75382e-05
4.12834e-07
9.7552e-05
4.30749e-07
9.75664e-05
4.49552e-07
9.75819e-05
4.69199e-07
9.75986e-05
4.89591e-07
9.76169e-05
5.10571e-07
9.76372e-05
5.3192e-07
9.76598e-05
5.53352e-07
9.76849e-05
5.74522e-07
9.7713e-05
5.95028e-07
9.7744e-05
6.14431e-07
9.77782e-05
6.32277e-07
9.78153e-05
6.48123e-07
9.78553e-05
6.61569e-07
6.72325e-07
9.78977e-05
0.000100071
2.19652e-08
0.000100078
6.36646e-08
0.000100087
1.01196e-07
0.000100099
1.34122e-07
0.000100113
1.62714e-07
0.000100128
1.87575e-07
0.000100144
2.09338e-07
0.00010016
2.28615e-07
0.000100176
2.45986e-07
0.000100192
2.61977e-07
0.000100208
2.77035e-07
0.000100223
2.91535e-07
0.000100238
3.05791e-07
0.000100253
3.20062e-07
0.000100268
3.34559e-07
0.000100283
3.49449e-07
0.000100298
3.6486e-07
0.000100313
3.80883e-07
0.000100328
3.97572e-07
0.000100344
4.14943e-07
0.00010036
4.3297e-07
0.000100378
4.51583e-07
0.000100397
4.70665e-07
0.000100417
4.90049e-07
0.00010044
5.09519e-07
0.000100464
5.28807e-07
0.000100491
5.47605e-07
0.000100521
5.65569e-07
0.000100553
5.82338e-07
0.000100587
5.97549e-07
0.000100625
6.10864e-07
0.000100664
6.21983e-07
6.30709e-07
0.000100706
0.00010293
1.98751e-08
0.000102936
5.76734e-08
0.000102945
9.19421e-08
0.000102957
1.22361e-07
0.000102971
1.4913e-07
0.000102986
1.72718e-07
0.000103001
1.93646e-07
0.000103017
2.12426e-07
0.000103034
2.29548e-07
0.00010305
2.45459e-07
0.000103067
2.60547e-07
0.000103083
2.75137e-07
0.0001031
2.89501e-07
0.000103116
3.0386e-07
0.000103132
3.18394e-07
0.000103148
3.33239e-07
0.000103165
3.48495e-07
0.000103181
3.64226e-07
0.000103198
3.8046e-07
0.000103216
3.97187e-07
0.000103235
4.14361e-07
0.000103254
4.31895e-07
0.000103275
4.49663e-07
0.000103298
4.67498e-07
0.000103322
4.85192e-07
0.000103349
5.02505e-07
0.000103377
5.19165e-07
0.000103408
5.34884e-07
0.000103441
5.49367e-07
0.000103476
5.6233e-07
0.000103513
5.73514e-07
0.000103553
5.827e-07
5.89756e-07
0.000103593
0.000105871
1.78733e-08
0.000105876
5.1918e-08
0.000105885
8.29841e-08
0.000105897
1.10856e-07
0.00010591
1.35695e-07
0.000105925
1.57868e-07
0.000105941
1.778e-07
0.000105958
1.95914e-07
0.000105975
2.12619e-07
0.000105992
2.28289e-07
0.000106009
2.43251e-07
0.000106026
2.57781e-07
0.000106044
2.72109e-07
0.000106061
2.86419e-07
0.000106079
3.00856e-07
0.000106096
3.15531e-07
0.000106114
3.30513e-07
0.000106133
3.45844e-07
0.000106152
3.61528e-07
0.000106171
3.77537e-07
0.000106192
3.93809e-07
0.000106214
4.10248e-07
0.000106237
4.26725e-07
0.000106261
4.43078e-07
0.000106287
4.59117e-07
0.000106315
4.74627e-07
0.000106345
4.89376e-07
0.000106376
5.03123e-07
0.00010641
5.15634e-07
0.000106446
5.26685e-07
0.000106483
5.36082e-07
0.000106522
5.43667e-07
5.49354e-07
0.000106563
0.000108895
1.59269e-08
0.000108901
4.63081e-08
0.00010891
7.41989e-08
0.000108921
9.94768e-08
0.000108935
1.22282e-07
0.000108949
1.42907e-07
0.000108966
1.61692e-07
0.000108983
1.78982e-07
0.000109
1.95112e-07
0.000109018
2.10387e-07
0.000109036
2.25076e-07
0.000109054
2.39405e-07
0.000109073
2.53561e-07
0.000109092
2.67693e-07
0.000109111
2.81914e-07
0.00010913
2.96304e-07
0.00010915
3.10911e-07
0.00010917
3.25752e-07
0.00010919
3.40814e-07
0.000109212
3.56053e-07
0.000109234
3.71398e-07
0.000109258
3.8675e-07
0.000109282
4.01979e-07
0.000109309
4.16936e-07
0.000109336
4.31448e-07
0.000109366
4.45328e-07
0.000109397
4.58381e-07
0.000109429
4.7041e-07
0.000109464
4.81226e-07
0.0001095
4.90659e-07
0.000109537
4.98564e-07
0.000109576
5.04828e-07
5.09402e-07
0.000109616
0.000112006
1.4006e-08
0.000112012
4.0761e-08
0.000112021
6.54701e-08
0.000112032
8.80931e-08
0.000112046
1.08762e-07
0.000112061
1.2771e-07
0.000112077
1.45207e-07
0.000112095
1.61527e-07
0.000112113
1.76934e-07
0.000112132
1.91671e-07
0.000112151
2.05948e-07
0.00011217
2.19944e-07
0.00011219
2.33805e-07
0.00011221
2.47642e-07
0.00011223
2.61538e-07
0.000112251
2.75547e-07
0.000112272
2.89692e-07
0.000112294
3.03972e-07
0.000112317
3.18359e-07
0.00011234
3.32798e-07
0.000112364
3.47213e-07
0.000112389
3.61501e-07
0.000112416
3.75543e-07
0.000112443
3.892e-07
0.000112473
4.02319e-07
0.000112503
4.14739e-07
0.000112535
4.26299e-07
0.000112569
4.36837e-07
0.000112604
4.46207e-07
0.00011264
4.54279e-07
0.000112678
4.60948e-07
0.000112717
4.66133e-07
4.69811e-07
0.000112756
0.000115206
1.20825e-08
0.000115212
3.51976e-08
0.000115221
5.66841e-08
0.000115232
7.65751e-08
0.000115246
9.5001e-08
0.000115262
1.12148e-07
0.000115279
1.28224e-07
0.000115297
1.43437e-07
0.000115316
1.57985e-07
0.000115335
1.72051e-07
0.000115355
1.8579e-07
0.000115376
1.99334e-07
0.000115397
2.12787e-07
0.000115418
2.26226e-07
0.00011544
2.39704e-07
0.000115463
2.53248e-07
0.000115485
2.66862e-07
0.000115509
2.80528e-07
0.000115533
2.94206e-07
0.000115558
3.07833e-07
0.000115584
3.2133e-07
0.000115611
3.34598e-07
0.000115639
3.47524e-07
0.000115668
3.59983e-07
0.000115698
3.71843e-07
0.00011573
3.82968e-07
0.000115763
3.93222e-07
0.000115798
4.0248e-07
0.000115833
4.10626e-07
0.00011587
4.17562e-07
0.000115908
4.23214e-07
0.000115946
4.27528e-07
4.30499e-07
0.000115986
0.000118498
1.01285e-08
0.000118503
2.95399e-08
0.000118512
4.77261e-08
0.000118524
6.47882e-08
0.000118538
8.08585e-08
0.000118554
9.60831e-08
0.000118572
1.10611e-07
0.000118591
1.2459e-07
0.000118611
1.38156e-07
0.000118631
1.51432e-07
0.000118653
1.6452e-07
0.000118674
1.77507e-07
0.000118697
1.90454e-07
0.00011872
2.03406e-07
0.000118743
2.16386e-07
0.000118767
2.29399e-07
0.000118791
2.42431e-07
0.000118816
2.55447e-07
0.000118842
2.68398e-07
0.000118869
2.81217e-07
0.000118896
2.93824e-07
0.000118925
3.06124e-07
0.000118954
3.18014e-07
0.000118985
3.29383e-07
0.000119017
3.40117e-07
0.000119049
3.50101e-07
0.000119083
3.59226e-07
0.000119118
3.67393e-07
0.000119155
3.74511e-07
0.000119192
3.80511e-07
0.000119229
3.85339e-07
0.000119268
3.88962e-07
3.91387e-07
0.000119307
0.000121883
8.11528e-09
0.000121889
2.37062e-08
0.000121898
3.84753e-08
0.000121911
5.25889e-08
0.000121925
6.61826e-08
0.000121942
7.93639e-08
0.00012196
9.22264e-08
0.00012198
1.04856e-07
0.000122001
1.1733e-07
0.000122023
1.29711e-07
0.000122045
1.42051e-07
0.000122068
1.54389e-07
0.000122092
1.66748e-07
0.000122116
1.7914e-07
0.000122141
1.91561e-07
0.000122166
2.03993e-07
0.000122192
2.16405e-07
0.000122219
2.28751e-07
0.000122247
2.40973e-07
0.000122275
2.53003e-07
0.000122304
2.64759e-07
0.000122334
2.76154e-07
0.000122365
2.87094e-07
0.000122397
2.97481e-07
0.00012243
3.07218e-07
0.000122463
3.16209e-07
0.000122498
3.24368e-07
0.000122534
3.31614e-07
0.000122571
3.37882e-07
0.000122608
3.4312e-07
0.000122646
3.47294e-07
0.000122685
3.50384e-07
3.52406e-07
0.000122724
0.000125366
6.01147e-09
0.000125372
1.76071e-08
0.000125381
2.87986e-08
0.000125394
3.98188e-08
0.000125409
5.08054e-08
0.000125427
6.18244e-08
0.000125446
7.29114e-08
0.000125467
8.40906e-08
0.000125489
9.5377e-08
0.000125512
1.06777e-07
0.000125536
1.18288e-07
0.00012556
1.29903e-07
0.000125585
1.4161e-07
0.000125611
1.53385e-07
0.000125637
1.65201e-07
0.000125664
1.77018e-07
0.000125692
1.8879e-07
0.00012572
2.00461e-07
0.000125749
2.11968e-07
0.000125779
2.23237e-07
0.00012581
2.34193e-07
0.000125841
2.44753e-07
0.000125873
2.54831e-07
0.000125907
2.64344e-07
0.000125941
2.73208e-07
0.000125975
2.81346e-07
0.000126011
2.88686e-07
0.000126048
2.95169e-07
0.000126085
3.00745e-07
0.000126122
3.05378e-07
0.000126161
3.09046e-07
0.000126199
3.11741e-07
3.13484e-07
0.000126238
0.000128947
3.78065e-09
0.000128954
1.11389e-08
0.000128964
1.85424e-08
0.000128978
2.62961e-08
0.000128994
3.45356e-08
0.000129012
4.32766e-08
0.000129033
5.24892e-08
0.000129055
6.21317e-08
0.000129078
7.21552e-08
0.000129102
8.25052e-08
0.000129127
9.31267e-08
0.000129153
1.03967e-07
0.00012918
1.14973e-07
0.000129207
1.26095e-07
0.000129235
1.37277e-07
0.000129264
1.48462e-07
0.000129293
1.59589e-07
0.000129323
1.70595e-07
0.000129353
1.81409e-07
0.000129385
1.9196e-07
0.000129417
2.02172e-07
0.000129449
2.11971e-07
0.000129483
2.21279e-07
0.000129517
2.30023e-07
0.000129552
2.38134e-07
0.000129588
2.45548e-07
0.000129625
2.52209e-07
0.000129662
2.5807e-07
0.000129699
2.63095e-07
0.000129738
2.67262e-07
0.000129776
2.70557e-07
0.000129815
2.72979e-07
2.74554e-07
0.000129854
0.000132631
1.37837e-09
0.000132638
4.17484e-09
0.000132649
7.52055e-09
0.000132664
1.18039e-08
0.000132681
1.71488e-08
0.000132701
2.35026e-08
0.000132723
3.07569e-08
0.000132746
3.87967e-08
0.000132771
4.7504e-08
0.000132797
5.67599e-08
0.000132823
6.64536e-08
0.000132851
7.64859e-08
0.000132879
8.67675e-08
0.000132908
9.72159e-08
0.000132937
1.07754e-07
0.000132967
1.18306e-07
0.000132998
1.28799e-07
0.00013303
1.39161e-07
0.000133062
1.49318e-07
0.000133095
1.592e-07
0.000133128
1.68734e-07
0.000133162
1.77849e-07
0.000133197
1.86478e-07
0.000133232
1.94558e-07
0.000133268
2.0203e-07
0.000133305
2.08841e-07
0.000133342
2.14948e-07
0.00013338
2.20316e-07
0.000133418
2.2492e-07
0.000133457
2.28744e-07
0.000133496
2.31783e-07
0.000133535
2.34042e-07
2.35547e-07
0.000133574
0.000136421
-1.25299e-09
0.000136429
-3.44883e-09
0.000136441
-4.50328e-09
0.000136456
-3.92604e-09
0.000136475
-1.62543e-09
0.000136496
2.24501e-09
0.00013652
7.47825e-09
0.000136545
1.38759e-08
0.000136571
2.12424e-08
0.000136598
2.93881e-08
0.000136626
3.81427e-08
0.000136656
4.73598e-08
0.000136685
5.69129e-08
0.000136716
6.66901e-08
0.000136747
7.65913e-08
0.000136779
8.65256e-08
0.000136811
9.64088e-08
0.000136844
1.06162e-07
0.000136878
1.15709e-07
0.000136912
1.24978e-07
0.000136947
1.33902e-07
0.000136982
1.42414e-07
0.000137018
1.50456e-07
0.000137055
1.57971e-07
0.000137092
1.64911e-07
0.00013713
1.71234e-07
0.000137168
1.76904e-07
0.000137206
1.81897e-07
0.000137245
1.86194e-07
0.000137284
1.89787e-07
0.000137323
1.92677e-07
0.000137362
1.9487e-07
1.96396e-07
0.000137401
0.000140319
-4.19218e-09
0.000140327
-1.19556e-08
0.000140341
-1.78436e-08
0.000140358
-2.12372e-08
0.000140378
-2.21214e-08
0.000140401
-2.08061e-08
0.000140427
-1.76256e-08
0.000140453
-1.28745e-08
0.000140481
-6.83751e-09
0.000140511
2.156e-10
0.000140541
8.05101e-09
0.000140571
1.64742e-08
0.000140603
2.53212e-08
0.000140635
3.44516e-08
0.000140668
4.37441e-08
0.000140702
5.30932e-08
0.000140736
6.2405e-08
0.00014077
7.15949e-08
0.000140805
8.05858e-08
0.000140841
8.93068e-08
0.000140877
9.76926e-08
0.000140914
1.05684e-07
0.000140951
1.13227e-07
0.000140989
1.20274e-07
0.000141027
1.26784e-07
0.000141065
1.32723e-07
0.000141104
1.38064e-07
0.000141143
1.42788e-07
0.000141183
1.46883e-07
0.000141222
1.50345e-07
0.000141262
1.53179e-07
0.000141301
1.55393e-07
1.57014e-07
0.000141341
0.000144328
-7.55345e-09
0.000144338
-2.16673e-08
0.000144353
-3.29362e-08
0.000144372
-4.05822e-08
0.000144395
-4.47621e-08
0.00014442
-4.60322e-08
0.000144447
-4.48869e-08
0.000144476
-4.1734e-08
0.000144506
-3.69665e-08
0.000144537
-3.09472e-08
0.000144569
-2.39767e-08
0.000144602
-1.62974e-08
0.000144636
-8.1094e-09
0.00014467
4.19575e-10
0.000144704
9.14916e-09
0.000144739
1.79608e-08
0.000144775
2.67527e-08
0.000144811
3.54364e-08
0.000144848
4.39336e-08
0.000144885
5.21751e-08
0.000144923
6.00993e-08
0.000144961
6.76515e-08
0.000144999
7.47841e-08
0.000145038
8.14557e-08
0.000145077
8.76322e-08
0.000145116
9.32858e-08
0.000145156
9.8396e-08
0.000145196
1.02949e-07
0.000145236
1.06938e-07
0.000145276
1.10362e-07
0.000145316
1.13227e-07
0.000145356
1.15546e-07
1.17342e-07
0.000145395
0.000148452
-1.15124e-08
0.000148463
-3.30768e-08
0.000148481
-5.04086e-08
0.000148503
-6.2562e-08
0.000148528
-7.00851e-08
0.000148556
-7.39163e-08
0.000148586
-7.47275e-08
0.000148617
-7.30541e-08
0.00014865
-6.94281e-08
0.000148683
-6.43235e-08
0.000148717
-5.81122e-08
0.000148752
-5.10841e-08
0.000148787
-4.34744e-08
0.000148823
-3.54756e-08
0.00014886
-2.72443e-08
0.000148896
-1.89087e-08
0.000148934
-1.05759e-08
0.000148972
-2.33627e-09
0.00014901
5.73261e-09
0.000149048
1.35641e-08
0.000149087
2.11005e-08
0.000149127
2.82924e-08
0.000149166
3.50975e-08
0.000149206
4.14804e-08
0.000149247
4.74125e-08
0.000149287
5.28716e-08
0.000149328
5.78417e-08
0.000149368
6.23131e-08
0.000149409
6.62817e-08
0.000149449
6.9749e-08
0.00014949
7.27213e-08
0.00014953
7.5208e-08
7.72324e-08
0.00014957
0.000152694
-1.6351e-08
0.000152708
-4.69835e-08
0.000152729
-7.12208e-08
0.000152754
-8.8003e-08
0.000152783
-9.87535e-08
0.000152814
-1.05001e-07
0.000152847
-1.07593e-07
0.000152881
-1.07208e-07
0.000152916
-1.04549e-07
0.000152952
-1.00207e-07
0.000152988
-9.46207e-08
0.000153025
-8.8124e-08
0.000153063
-8.09861e-08
0.000153101
-7.34221e-08
0.000153139
-6.56018e-08
0.000153178
-5.76602e-08
0.000153217
-4.97075e-08
0.000153257
-4.18341e-08
0.000153296
-3.41153e-08
0.000153337
-2.66139e-08
0.000153377
-1.93828e-08
0.000153418
-1.24663e-08
0.000153459
-5.90121e-09
0.0001535
2.8261e-10
0.000153541
6.06152e-09
0.000153583
1.14179e-08
0.000153624
1.63399e-08
0.000153666
2.08208e-08
0.000153707
2.48593e-08
0.000153749
2.84588e-08
0.00015379
3.16274e-08
0.000153831
3.43775e-08
3.67303e-08
0.000153871
0.000157058
-2.25892e-08
0.000157075
-6.46901e-08
0.000157101
-9.67977e-08
0.000157131
-1.18159e-07
0.000157164
-1.31891e-07
0.000157199
-1.40223e-07
0.000157236
-1.44168e-07
0.000157274
-1.44662e-07
0.000157312
-1.42646e-07
0.00015735
-1.38825e-07
0.000157389
-1.33682e-07
0.000157429
-1.27579e-07
0.000157469
-1.20807e-07
0.000157509
-1.13592e-07
0.000157549
-1.06106e-07
0.00015759
-9.84847e-08
0.000157631
-9.08365e-08
0.000157673
-8.32487e-08
0.000157714
-7.57926e-08
0.000157756
-6.85267e-08
0.000157798
-6.14989e-08
0.000157841
-5.4749e-08
0.000157883
-4.83092e-08
0.000157926
-4.22052e-08
0.000157968
-3.6457e-08
0.000158011
-3.10792e-08
0.000158053
-2.60814e-08
0.000158095
-2.14688e-08
0.000158137
-1.72425e-08
0.000158179
-1.34007e-08
0.000158221
-9.93818e-09
0.000158262
-6.84961e-09
-4.11794e-09
0.000158303
0.000161547
-3.14494e-08
0.000161571
-8.88504e-08
0.000161603
-1.28834e-07
0.000161639
-1.53986e-07
0.000161678
-1.70555e-07
0.000161719
-1.80888e-07
0.00016176
-1.85904e-07
0.000161803
-1.86926e-07
0.000161845
-1.85213e-07
0.000161888
-1.81581e-07
0.000161931
-1.76557e-07
0.000161974
-1.70538e-07
0.000162017
-1.63837e-07
0.00016206
-1.56688e-07
0.000162103
-1.49262e-07
0.000162146
-1.41692e-07
0.00016219
-1.34082e-07
0.000162233
-1.26516e-07
0.000162276
-1.19059e-07
0.000162319
-1.11766e-07
0.000162362
-1.04679e-07
0.000162406
-9.78364e-08
0.000162449
-9.12654e-08
0.000162491
-8.49893e-08
0.000162534
-7.90256e-08
0.000162576
-7.33869e-08
0.000162618
-6.80815e-08
0.00016266
-6.31132e-08
0.000162701
-5.84821e-08
0.000162742
-5.41842e-08
0.000162782
-5.02117e-08
0.000162822
-4.65521e-08
-4.3192e-08
0.000162861
0.000166166
-4.41818e-08
0.000166204
-1.27024e-07
0.000166249
-1.73418e-07
0.000166295
-1.99935e-07
0.000166343
-2.18055e-07
0.000166391
-2.2936e-07
0.00016644
-2.34614e-07
0.000166488
-2.35575e-07
0.000166537
-2.3366e-07
0.000166585
-2.29664e-07
0.000166632
-2.24117e-07
0.000166679
-2.17458e-07
0.000166726
-2.10035e-07
0.000166771
-2.02107e-07
0.000166816
-1.93868e-07
0.000166859
-1.85468e-07
0.000166902
-1.77026e-07
0.000166944
-1.68635e-07
0.000166986
-1.60368e-07
0.000167026
-1.52281e-07
0.000167066
-1.4442e-07
0.000167105
-1.3682e-07
0.000167143
-1.29509e-07
0.000167181
-1.22505e-07
0.000167218
-1.15825e-07
0.000167254
-1.09477e-07
0.000167289
-1.03467e-07
0.000167324
-9.77967e-08
0.000167358
-9.24657e-08
0.000167391
-8.74716e-08