/*--------------------------------*- C++ -*----------------------------------*\
| =========                 |                                                 |
| \\      /  F ield         | OpenFOAM: The Open Source CFD Toolbox           |
|  \\    /   O peration     | Version:  4.1                                   |
|   \\  /    A nd           | Web:      www.OpenFOAM.org                      |
|    \\/     M anipulation  |                                                 |
\*---------------------------------------------------------------------------*/
FoamFile
{
    version     2.0;
    format      ascii;
    class       volVectorField;
    location    "400";
    object      U;
}
// * * * * * * * * * * * * * * * * * * * * * * * * * * * * * * * * * * * * * //

dimensions      [0 1 -1 0 0 0 0];

internalField   nonuniform List<vector> 
6820
(
(7.30076 0.010578 0)
(7.26066 0.0145388 0)
(7.2272 0.0116099 0)
(7.19819 0.00888933 0)
(7.17428 0.0072936 0)
(7.1537 0.00633896 0)
(7.13501 0.00573393 0)
(7.11775 0.00533179 0)
(7.10171 0.0050397 0)
(7.0867 0.00480925 0)
(7.07254 0.00462114 0)
(7.0591 0.00446739 0)
(7.04629 0.0043434 0)
(7.03401 0.00424617 0)
(7.02218 0.00417402 0)
(7.01071 0.00412635 0)
(6.99954 0.00410361 0)
(6.98858 0.00410732 0)
(6.97777 0.00414037 0)
(6.96702 0.00420738 0)
(6.95624 0.00431537 0)
(6.94532 0.00447492 0)
(6.93412 0.00470217 0)
(6.92247 0.00502257 0)
(6.91012 0.00547781 0)
(6.89671 0.006141 0)
(6.8817 0.00714784 0)
(6.86398 0.00877163 0)
(6.84238 0.0116366 0)
(6.81053 0.017112 0)
(6.77179 0.0285519 0)
(6.65482 0.0701122 0)
(6.64211 -0.0296859 0)
(7.3396 0.0129473 0)
(7.34154 0.0168174 0)
(7.32732 0.0138333 0)
(7.30716 0.0119832 0)
(7.28758 0.0109435 0)
(7.26943 0.0100899 0)
(7.25241 0.00941078 0)
(7.23644 0.00889466 0)
(7.22146 0.00848424 0)
(7.20734 0.0081467 0)
(7.19394 0.0078696 0)
(7.18117 0.00764495 0)
(7.16895 0.00746627 0)
(7.15721 0.00732943 0)
(7.14588 0.00723246 0)
(7.13489 0.00717509 0)
(7.1242 0.00715865 0)
(7.11374 0.00718632 0)
(7.10345 0.00726346 0)
(7.09326 0.00739832 0)
(7.08311 0.00760318 0)
(7.07291 0.00789621 0)
(7.06258 0.00830482 0)
(7.05199 0.00887138 0)
(7.04102 0.00966472 0)
(7.02945 0.0107999 0)
(7.01708 0.0124935 0)
(7.00346 0.0151247 0)
(6.9887 0.0196695 0)
(6.97107 0.027459 0)
(6.95637 0.0452802 0)
(6.93919 0.0766514 0)
(6.98103 0.170503 0)
(7.33614 0.0108731 0)
(7.34462 0.017317 0)
(7.3458 0.0178648 0)
(7.34014 0.0178713 0)
(7.33149 0.0174148 0)
(7.32153 0.0165932 0)
(7.31082 0.0157798 0)
(7.29987 0.0150977 0)
(7.28897 0.0145275 0)
(7.27826 0.0140478 0)
(7.26776 0.0136487 0)
(7.25749 0.0133221 0)
(7.24746 0.0130611 0)
(7.23764 0.0128619 0)
(7.22801 0.0127234 0)
(7.21856 0.0126467 0)
(7.20923 0.0126349 0)
(7.2 0.0126938 0)
(7.19082 0.0128326 0)
(7.18165 0.0130647 0)
(7.17242 0.0134093 0)
(7.16306 0.0138943 0)
(7.1535 0.0145609 0)
(7.14362 0.0154703 0)
(7.1333 0.0167183 0)
(7.12236 0.0184552 0)
(7.1106 0.020945 0)
(7.09771 0.0245997 0)
(7.0837 0.0303476 0)
(7.06793 0.0392508 0)
(7.05346 0.0553679 0)
(7.04009 0.0796045 0)
(7.05259 0.126105 0)
(7.33465 0.00788097 0)
(7.34191 0.0151033 0)
(7.34713 0.0174339 0)
(7.34829 0.0186748 0)
(7.34688 0.019203 0)
(7.34373 0.0191335 0)
(7.33915 0.0188245 0)
(7.33354 0.0184631 0)
(7.32729 0.0180973 0)
(7.32064 0.017751 0)
(7.31373 0.0174436 0)
(7.30664 0.0171852 0)
(7.29945 0.0169806 0)
(7.29219 0.0168339 0)
(7.28488 0.0167498 0)
(7.27753 0.016734 0)
(7.27013 0.0167943 0)
(7.26267 0.016941 0)
(7.25512 0.017188 0)
(7.24747 0.0175548 0)
(7.23966 0.0180677 0)
(7.23164 0.0187641 0)
(7.22336 0.0196968 0)
(7.21472 0.0209429 0)
(7.20564 0.022618 0)
(7.196 0.0248959 0)
(7.18566 0.028059 0)
(7.17451 0.032521 0)
(7.16264 0.0390606 0)
(7.1501 0.0484939 0)
(7.13881 0.0630463 0)
(7.12975 0.0820631 0)
(7.13279 0.110492 0)
(7.334 0.00602182 0)
(7.33938 0.0130375 0)
(7.3447 0.0160146 0)
(7.34794 0.0178331 0)
(7.34965 0.0190322 0)
(7.35021 0.0196262 0)
(7.34958 0.0198669 0)
(7.34789 0.0199426 0)
(7.3454 0.0199256 0)
(7.34227 0.0198592 0)
(7.33863 0.0197796 0)
(7.33458 0.0197118 0)
(7.33019 0.0196723 0)
(7.32554 0.0196743 0)
(7.32064 0.0197296 0)
(7.31554 0.0198505 0)
(7.31023 0.0200501 0)
(7.30474 0.020344 0)
(7.29904 0.0207518 0)
(7.29313 0.0212988 0)
(7.28699 0.0220182 0)
(7.28057 0.022955 0)
(7.27384 0.0241715 0)
(7.26675 0.0257549 0)
(7.25924 0.0278307 0)
(7.25124 0.0305789 0)
(7.24273 0.0342696 0)
(7.23372 0.0392734 0)
(7.22441 0.0461795 0)
(7.21516 0.0555565 0)
(7.20735 0.068517 0)
(7.20225 0.0844012 0)
(7.204 0.104634 0)
(7.33365 0.00477784 0)
(7.33758 0.0112478 0)
(7.34216 0.0145114 0)
(7.34566 0.0166128 0)
(7.34828 0.0181535 0)
(7.35028 0.0191447 0)
(7.35152 0.0197693 0)
(7.35201 0.0201974 0)
(7.35183 0.0205013 0)
(7.35107 0.0207228 0)
(7.3498 0.0209 0)
(7.34807 0.0210628 0)
(7.34594 0.0212334 0)
(7.34345 0.0214303 0)
(7.34064 0.0216706 0)
(7.33753 0.0219713 0)
(7.33414 0.0223502 0)
(7.33047 0.0228277 0)
(7.32654 0.0234281 0)
(7.32233 0.0241815 0)
(7.31783 0.0251265 0)
(7.31303 0.0263137 0)
(7.30791 0.0278106 0)
(7.30243 0.0297085 0)
(7.29658 0.0321329 0)
(7.29034 0.0352546 0)
(7.28377 0.0393105 0)
(7.27694 0.0446021 0)
(7.27015 0.0515388 0)
(7.26385 0.06047 0)
(7.25904 0.071866 0)
(7.25681 0.0851567 0)
(7.25902 0.100212 0)
(7.33343 0.00388416 0)
(7.33634 0.0097415 0)
(7.34013 0.0131249 0)
(7.34339 0.0153703 0)
(7.34608 0.0170704 0)
(7.34842 0.0182797 0)
(7.35033 0.0191393 0)
(7.35174 0.0198003 0)
(7.3527 0.0203343 0)
(7.35322 0.0207804 0)
(7.35334 0.0211737 0)
(7.35308 0.0215439 0)
(7.35245 0.0219139 0)
(7.35149 0.0223041 0)
(7.3502 0.0227336 0)
(7.3486 0.023222 0)
(7.34671 0.02379 0)
(7.34453 0.0244609 0)
(7.34205 0.0252621 0)
(7.33929 0.0262271 0)
(7.33623 0.0273975 0)
(7.33287 0.0288266 0)
(7.3292 0.030583 0)
(7.32522 0.0327564 0)
(7.32093 0.0354641 0)
(7.31638 0.0388571 0)
(7.31163 0.0431285 0)
(7.30684 0.0485043 0)
(7.3023 0.0552448 0)
(7.29845 0.063529 0)
(7.29602 0.0734761 0)
(7.29581 0.0845897 0)
(7.29868 0.0963016 0)
(7.3333 0.0032286 0)
(7.33548 0.00849398 0)
(7.3386 0.0118802 0)
(7.34151 0.0141984 0)
(7.34404 0.0159793 0)
(7.34633 0.017316 0)
(7.34836 0.0183216 0)
(7.35006 0.0191298 0)
(7.35145 0.0198144 0)
(7.35254 0.0204153 0)
(7.35334 0.020966 0)
(7.35385 0.0214951 0)
(7.35407 0.0220259 0)
(7.35402 0.0225786 0)
(7.35369 0.0231731 0)
(7.3531 0.0238299 0)
(7.35223 0.0245709 0)
(7.3511 0.0254209 0)
(7.3497 0.0264088 0)
(7.34804 0.0275695 0)
(7.34611 0.0289453 0)
(7.3439 0.0305893 0)
(7.34144 0.0325678 0)
(7.33872 0.0349637 0)
(7.33578 0.0378805 0)
(7.33267 0.0414437 0)
(7.32951 0.0458007 0)
(7.32646 0.051107 0)
(7.32379 0.05751 0)
(7.32188 0.0650702 0)
(7.32126 0.0737337 0)
(7.32247 0.0830795 0)
(7.3259 0.0925221 0)
(7.33321 0.00273926 0)
(7.33487 0.00746185 0)
(7.33745 0.0107697 0)
(7.34002 0.0131167 0)
(7.34233 0.0149411 0)
(7.34448 0.0163586 0)
(7.34644 0.0174632 0)
(7.34817 0.0183713 0)
(7.34967 0.0191579 0)
(7.35095 0.0198652 0)
(7.35202 0.0205268 0)
(7.35287 0.0211713 0)
(7.35351 0.0218223 0)
(7.35393 0.0225008 0)
(7.35414 0.0232268 0)
(7.35413 0.0240212 0)
(7.35389 0.0249065 0)
(7.35344 0.0259078 0)
(7.35276 0.0270544 0)
(7.35185 0.0283808 0)
(7.35073 0.0299285 0)
(7.34938 0.0317477 0)
(7.34783 0.0338993 0)
(7.34611 0.0364565 0)
(7.34425 0.0395056 0)
(7.34232 0.043145 0)
(7.34044 0.0474794 0)
(7.33878 0.0526055 0)
(7.33758 0.0585906 0)
(7.33714 0.0654207 0)
(7.33782 0.0729678 0)
(7.33997 0.0808824 0)
(7.34379 0.0886753 0)
(7.33316 0.00236525 0)
(7.33444 0.00660377 0)
(7.33657 0.00978142 0)
(7.33883 0.0121224 0)
(7.34094 0.0139663 0)
(7.34293 0.0154362 0)
(7.34477 0.016613 0)
(7.34645 0.0175963 0)
(7.34794 0.0184591 0)
(7.34926 0.0192454 0)
(7.35041 0.0199894 0)
(7.35139 0.0207201 0)
(7.3522 0.021462 0)
(7.35285 0.0222366 0)
(7.35332 0.0230646 0)
(7.35362 0.0239673 0)
(7.35375 0.0249672 0)
(7.35369 0.0260894 0)
(7.35346 0.0273626 0)
(7.35306 0.02882 0)
(7.35248 0.0305005 0)
(7.35174 0.0324501 0)
(7.35086 0.0347222 0)
(7.34988 0.0373784 0)
(7.34884 0.0404873 0)
(7.34782 0.0441208 0)
(7.34694 0.0483474 0)
(7.34634 0.053218 0)
(7.34622 0.0587467 0)
(7.34682 0.0648773 0)
(7.34839 0.0714598 0)
(7.35115 0.0782085 0)
(7.35516 0.0847447 0)
(7.33312 0.00207201 0)
(7.33414 0.00588543 0)
(7.3359 0.00890257 0)
(7.33789 0.0112084 0)
(7.33981 0.0130527 0)
(7.34164 0.014554 0)
(7.34337 0.0157842 0)
(7.34497 0.0168273 0)
(7.34641 0.0177514 0)
(7.34772 0.0186016 0)
(7.34888 0.0194118 0)
(7.3499 0.0202114 0)
(7.35079 0.0210255 0)
(7.35154 0.0218764 0)
(7.35214 0.0227851 0)
(7.35261 0.0237731 0)
(7.35294 0.024863 0)
(7.35312 0.0260793 0)
(7.35317 0.0274495 0)
(7.35309 0.0290047 0)
(7.35289 0.0307804 0)
(7.35257 0.032817 0)
(7.35218 0.0351598 0)
(7.35175 0.0378581 0)
(7.35132 0.0409634 0)
(7.35098 0.0445244 0)
(7.35084 0.0485806 0)
(7.35101 0.0531493 0)
(7.35167 0.0582116 0)
(7.35298 0.0636916 0)
(7.35512 0.0694421 0)
(7.35821 0.0752332 0)
(7.36228 0.0807802 0)
(7.33309 0.00183629 0)
(7.33391 0.00527866 0)
(7.33539 0.00812017 0)
(7.33714 0.0103674 0)
(7.33888 0.0121955 0)
(7.34057 0.0137111 0)
(7.34219 0.0149788 0)
(7.34371 0.016069 0)
(7.34511 0.0170439 0)
(7.34638 0.0179476 0)
(7.34754 0.0188138 0)
(7.34858 0.0196715 0)
(7.3495 0.0205461 0)
(7.3503 0.02146 0)
(7.35098 0.0224346 0)
(7.35155 0.0234913 0)
(7.35201 0.0246521 0)
(7.35235 0.0259407 0)
(7.35259 0.0273829 0)
(7.35274 0.0290072 0)
(7.3528 0.0308449 0)
(7.3528 0.0329305 0)
(7.35277 0.0353006 0)
(7.35275 0.037993 0)
(7.35278 0.0410436 0)
(7.35296 0.0444822 0)
(7.35336 0.0483257 0)
(7.35409 0.0525691 0)
(7.35528 0.0571746 0)
(7.35706 0.0620602 0)
(7.35953 0.0670934 0)
(7.36278 0.0720906 0)
(7.36678 0.0768404 0)
(7.33307 0.00164227 0)
(7.33375 0.00476056 0)
(7.335 0.00742162 0)
(7.33653 0.00959203 0)
(7.33812 0.0113895 0)
(7.33968 0.0129047 0)
(7.34121 0.0141954 0)
(7.34265 0.0153212 0)
(7.344 0.0163373 0)
(7.34525 0.0172858 0)
(7.3464 0.0181997 0)
(7.34744 0.0191072 0)
(7.34838 0.0200334 0)
(7.34923 0.0210005 0)
(7.34997 0.0220298 0)
(7.35061 0.0231421 0)
(7.35117 0.0243588 0)
(7.35164 0.025702 0)
(7.35203 0.0271955 0)
(7.35235 0.0288646 0)
(7.35263 0.0307362 0)
(7.35288 0.0328387 0)
(7.35313 0.0352006 0)
(7.35343 0.0378488 0)
(7.35383 0.0408064 0)
(7.35439 0.0440878 0)
(7.3552 0.0476941 0)
(7.35633 0.0516059 0)
(7.35789 0.0557765 0)
(7.35996 0.0601262 0)
(7.36262 0.0645405 0)
(7.3659 0.0688741 0)
(7.36978 0.0729702 0)
(7.33306 0.00147898 0)
(7.33362 0.00431277 0)
(7.33469 0.006795 0)
(7.33605 0.00887544 0)
(7.33749 0.0106296 0)
(7.33894 0.0121315 0)
(7.34038 0.0134322 0)
(7.34176 0.0145821 0)
(7.34307 0.0156298 0)
(7.34429 0.0166148 0)
(7.34543 0.0175685 0)
(7.34649 0.018518 0)
(7.34745 0.0194877 0)
(7.34833 0.0204993 0)
(7.34913 0.0215735 0)
(7.34985 0.0227302 0)
(7.35049 0.0239896 0)
(7.35107 0.0253721 0)
(7.3516 0.0268989 0)
(7.35208 0.0285922 0)
(7.35254 0.0304742 0)
(7.353 0.0325672 0)
(7.35349 0.0348923 0)
(7.35406 0.0374672 0)
(7.35475 0.0403044 0)
(7.35562 0.0434069 0)
(7.35673 0.046765 0)
(7.35815 0.0503511 0)
(7.35996 0.0541161 0)
(7.36221 0.0579868 0)
(7.36495 0.0618668 0)
(7.3682 0.0656417 0)
(7.37193 0.0691947 0)
(7.33305 0.00133874 0)
(7.33353 0.0039207 0)
(7.33445 0.00622932 0)
(7.33566 0.00821064 0)
(7.33697 0.00991073 0)
(7.33833 0.011388 0)
(7.33968 0.0126866 0)
(7.341 0.0138497 0)
(7.34228 0.0149195 0)
(7.34348 0.0159322 0)
(7.34462 0.0169175 0)
(7.34569 0.0179011 0)
(7.34668 0.0189061 0)
(7.3476 0.0199537 0)
(7.34845 0.0210632 0)
(7.34924 0.0222537 0)
(7.34998 0.0235435 0)
(7.35066 0.0249513 0)
(7.35131 0.0264956 0)
(7.35194 0.0281948 0)
(7.35257 0.030067 0)
(7.35322 0.0321289 0)
(7.35393 0.0343948 0)
(7.35472 0.0368749 0)
(7.35565 0.0395734 0)
(7.35676 0.0424853 0)
(7.35811 0.045594 0)
(7.35975 0.0488682 0)
(7.36173 0.0522603 0)
(7.36409 0.0557052 0)
(7.36685 0.0591232 0)
(7.37003 0.0624247 0)
(7.37359 0.0655221 0)
(7.33305 0.00121598 0)
(7.33345 0.00357269 0)
(7.33426 0.00571458 0)
(7.33534 0.00759075 0)
(7.33655 0.00922765 0)
(7.33781 0.0106701 0)
(7.3391 0.0119558 0)
(7.34037 0.0131215 0)
(7.34161 0.0142038 0)
(7.3428 0.0152354 0)
(7.34394 0.0162439 0)
(7.34502 0.0172532 0)
(7.34605 0.0182853 0)
(7.34701 0.0193598 0)
(7.34792 0.0204952 0)
(7.34879 0.0217088 0)
(7.34961 0.0230174 0)
(7.3504 0.0244373 0)
(7.35117 0.0259843 0)
(7.35194 0.0276735 0)
(7.35272 0.0295186 0)
(7.35354 0.0315315 0)
(7.35444 0.0337209 0)
(7.35543 0.0360909 0)
(7.35656 0.0386394 0)
(7.35787 0.0413562 0)
(7.35941 0.0442209 0)
(7.3612 0.0472016 0)
(7.3633 0.0502538 0)
(7.36572 0.0533215 0)
(7.36847 0.0563395 0)
(7.37157 0.0592373 0)
(7.37496 0.0619491 0)
(7.33304 0.00110659 0)
(7.3334 0.00325944 0)
(7.33412 0.00524183 0)
(7.33509 0.00700906 0)
(7.33621 0.00857512 0)
(7.33739 0.00997367 0)
(7.33862 0.0112365 0)
(7.33984 0.0123948 0)
(7.34106 0.0134802 0)
(7.34224 0.0145217 0)
(7.34338 0.0155446 0)
(7.34448 0.0165712 0)
(7.34554 0.0176216 0)
(7.34655 0.0187141 0)
(7.34752 0.0198656 0)
(7.34846 0.0210918 0)
(7.34937 0.0224077 0)
(7.35026 0.0238273 0)
(7.35115 0.0253636 0)
(7.35205 0.0270285 0)
(7.35297 0.0288319 0)
(7.35395 0.0307813 0)
(7.35501 0.032881 0)
(7.35618 0.0351304 0)
(7.35748 0.0375231 0)
(7.35896 0.0400456 0)
(7.36063 0.0426759 0)
(7.36255 0.0453832 0)
(7.36472 0.0481277 0)
(7.36717 0.0508616 0)
(7.3699 0.053532 0)
(7.3729 0.0560836 0)
(7.37614 0.0584667 0)
(7.33304 0.00100748 0)
(7.33336 0.0029734 0)
(7.334 0.0048031 0)
(7.33489 0.00645907 0)
(7.33593 0.00794783 0)
(7.33705 0.00929441 0)
(7.33822 0.0105251 0)
(7.33941 0.0116665 0)
(7.3406 0.0127457 0)
(7.34178 0.0137882 0)
(7.34293 0.0148168 0)
(7.34405 0.0158518 0)
(7.34514 0.0169116 0)
(7.3462 0.0180129 0)
(7.34723 0.0191708 0)
(7.34824 0.0203995 0)
(7.34924 0.0217117 0)
(7.35023 0.0231193 0)
(7.35123 0.0246326 0)
(7.35225 0.0262606 0)
(7.35331 0.0280099 0)
(7.35443 0.0298845 0)
(7.35564 0.0318849 0)
(7.35695 0.0340072 0)
(7.3584 0.0362422 0)
(7.36 0.0385746 0)
(7.3618 0.0409826 0)
(7.3638 0.0434374 0)
(7.36602 0.0459041 0)
(7.36847 0.0483426 0)
(7.37116 0.0507099 0)
(7.37407 0.0529628 0)
(7.37717 0.0550635 0)
(7.33303 0.000916186 0)
(7.33332 0.00270842 0)
(7.33391 0.00439128 0)
(7.33473 0.00593448 0)
(7.3357 0.00734043 0)
(7.33677 0.00862768 0)
(7.33789 0.0098178 0)
(7.33906 0.0109332 0)
(7.34023 0.0119971 0)
(7.34141 0.0130317 0)
(7.34257 0.0140572 0)
(7.34372 0.0150919 0)
(7.34484 0.0161522 0)
(7.34595 0.0172531 0)
(7.34704 0.018408 0)
(7.34813 0.019629 0)
(7.34921 0.0209272 0)
(7.35029 0.022312 0)
(7.35139 0.0237914 0)
(7.35253 0.0253717 0)
(7.35371 0.0270567 0)
(7.35496 0.0288476 0)
(7.35629 0.030742 0)
(7.35773 0.0327339 0)
(7.3593 0.0348123 0)
(7.36101 0.0369614 0)
(7.36289 0.0391604 0)
(7.36495 0.0413831 0)
(7.36721 0.0435994 0)
(7.36965 0.045776 0)
(7.37229 0.0478781 0)
(7.37511 0.0498717 0)
(7.37809 0.0517283 0)
(7.33303 0.000830763 0)
(7.3333 0.00245932 0)
(7.33384 0.00400003 0)
(7.3346 0.00542928 0)
(7.33552 0.00674756 0)
(7.33654 0.00796871 0)
(7.33764 0.00911031 0)
(7.33878 0.0101912 0)
(7.33995 0.011231 0)
(7.34112 0.012249 0)
(7.3423 0.0132627 0)
(7.34347 0.0142884 0)
(7.34464 0.0153404 0)
(7.34579 0.0164318 0)
(7.34695 0.0175744 0)
(7.3481 0.0187784 0)
(7.34926 0.0200528 0)
(7.35043 0.021405 0)
(7.35163 0.0228409 0)
(7.35287 0.0243643 0)
(7.35416 0.0259769 0)
(7.35552 0.0276775 0)
(7.35696 0.0294619 0)
(7.35851 0.0313225 0)
(7.36018 0.0332476 0)
(7.36198 0.0352216 0)
(7.36392 0.0372253 0)
(7.36603 0.0392354 0)
(7.36829 0.0412261 0)
(7.37072 0.04317 0)
(7.37331 0.0450391 0)
(7.37604 0.0468065 0)
(7.3789 0.0484505 0)
(7.33303 0.000749574 0)
(7.33328 0.0022217 0)
(7.33378 0.00362361 0)
(7.33451 0.00493767 0)
(7.33538 0.00616381 0)
(7.33637 0.00731255 0)
(7.33744 0.00839817 0)
(7.33857 0.00943641 0)
(7.33973 0.0104438 0)
(7.34091 0.0114366 0)
(7.34211 0.0124301 0)
(7.34331 0.0134381 0)
(7.34451 0.0144732 0)
(7.34572 0.0155465 0)
(7.34693 0.0166679 0)
(7.34815 0.0178459 0)
(7.34938 0.0190876 0)
(7.35064 0.0203986 0)
(7.35193 0.0217826 0)
(7.35326 0.0232416 0)
(7.35465 0.0247755 0)
(7.35611 0.0263813 0)
(7.35765 0.0280537 0)
(7.35929 0.0297839 0)
(7.36103 0.0315605 0)
(7.3629 0.0333686 0)
(7.36489 0.0351906 0)
(7.36702 0.0370062 0)
(7.36929 0.0387938 0)
(7.37169 0.0405305 0)
(7.37422 0.0421939 0)
(7.37687 0.0437628 0)
(7.37963 0.0452207 0)
(7.33303 0.00067122 0)
(7.33326 0.00199172 0)
(7.33374 0.00325678 0)
(7.33443 0.00445404 0)
(7.33528 0.00558372 0)
(7.33624 0.00665407 0)
(7.3373 0.00767666 0)
(7.33841 0.00866451 0)
(7.33958 0.00963137 0)
(7.34077 0.0105909 0)
(7.34199 0.0115558 0)
(7.34322 0.012538 0)
(7.34446 0.0135478 0)
(7.34572 0.0145947 0)
(7.34699 0.0156867 0)
(7.34827 0.0168305 0)
(7.34958 0.0180314 0)
(7.35091 0.0192934 0)
(7.35228 0.0206185 0)
(7.3537 0.0220072 0)
(7.35517 0.0234576 0)
(7.35672 0.0249659 0)
(7.35834 0.0265258 0)
(7.36005 0.0281283 0)
(7.36186 0.0297622 0)
(7.36377 0.0314138 0)
(7.3658 0.0330673 0)
(7.36795 0.0347054 0)
(7.37021 0.0363096 0)
(7.37258 0.0378613 0)
(7.37506 0.0393425 0)
(7.37763 0.0407364 0)
(7.38028 0.0420305 0)
(7.33303 0.000594456 0)
(7.33325 0.00176589 0)
(7.33371 0.00289459 0)
(7.33438 0.0039729 0)
(7.33521 0.00500177 0)
(7.33616 0.00598792 0)
(7.3372 0.00694073 0)
(7.33831 0.00787085 0)
(7.33949 0.00878951 0)
(7.3407 0.00970785 0)
(7.34194 0.0106364 0)
(7.3432 0.0115848 0)
(7.34448 0.0125615 0)
(7.34579 0.0135742 0)
(7.34711 0.014629 0)
(7.34846 0.0157311 0)
(7.34983 0.0168842 0)
(7.35123 0.0180906 0)
(7.35268 0.0193511 0)
(7.35417 0.0206646 0)
(7.35573 0.0220285 0)
(7.35734 0.0234379 0)
(7.35903 0.0248862 0)
(7.3608 0.0263645 0)
(7.36266 0.0278622 0)
(7.36461 0.0293669 0)
(7.36666 0.0308646 0)
(7.36881 0.0323404 0)
(7.37106 0.033779 0)
(7.3734 0.0351652 0)
(7.37582 0.0364844 0)
(7.37832 0.0377232 0)
(7.38089 0.0388724 0)
(7.33302 0.000518132 0)
(7.33324 0.00154095 0)
(7.3337 0.00253234 0)
(7.33435 0.00348879 0)
(7.33517 0.00441229 0)
(7.33611 0.00530853 0)
(7.33715 0.00618507 0)
(7.33827 0.00705046 0)
(7.33945 0.00791363 0)
(7.34068 0.00878341 0)
(7.34195 0.00966811 0)
(7.34325 0.0105753 0)
(7.34457 0.0115116 0)
(7.34592 0.0124828 0)
(7.3473 0.0134936 0)
(7.3487 0.0145473 0)
(7.35014 0.0156464 0)
(7.35161 0.0167917 0)
(7.35312 0.0179828 0)
(7.35468 0.0192178 0)
(7.3563 0.0204931 0)
(7.35798 0.0218035 0)
(7.35972 0.0231421 0)
(7.36154 0.0245005 0)
(7.36344 0.0258688 0)
(7.36542 0.0272359 0)
(7.36749 0.0285896 0)
(7.36963 0.0299173 0)
(7.37186 0.0312061 0)
(7.37416 0.0324436 0)
(7.37653 0.0336181 0)
(7.37896 0.0347191 0)
(7.38144 0.0357395 0)
(7.33302 0.00044114 0)
(7.33324 0.00131375 0)
(7.33369 0.00216532 0)
(7.33434 0.00299614 0)
(7.33515 0.00380937 0)
(7.33609 0.00460997 0)
(7.33714 0.00540397 0)
(7.33827 0.00619799 0)
(7.33947 0.00699882 0)
(7.34073 0.0078131 0)
(7.34202 0.00864703 0)
(7.34336 0.00950617 0)
(7.34473 0.0103954 0)
(7.34612 0.0113186 0)
(7.34755 0.012279 0)
(7.34901 0.0132785 0)
(7.3505 0.0143182 0)
(7.35203 0.0153979 0)
(7.35361 0.0165162 0)
(7.35523 0.0176703 0)
(7.3569 0.0188561 0)
(7.35863 0.0200682 0)
(7.36042 0.0212999 0)
(7.36228 0.0225432 0)
(7.36421 0.023789 0)
(7.36621 0.0250275 0)
(7.36828 0.0262483 0)
(7.37041 0.0274405 0)
(7.37262 0.0285935 0)
(7.37488 0.0296972 0)
(7.3772 0.0307422 0)
(7.37957 0.0317201 0)
(7.38198 0.0326256 0)
(7.33302 0.000362359 0)
(7.33324 0.00108108 0)
(7.33369 0.00178869 0)
(7.33435 0.00248912 0)
(7.33516 0.00318671 0)
(7.33611 0.00388589 0)
(7.33717 0.00459127 0)
(7.33833 0.00530764 0)
(7.33955 0.00603976 0)
(7.34083 0.00679218 0)
(7.34216 0.007569 0)
(7.34354 0.00837389 0)
(7.34494 0.00920988 0)
(7.34639 0.0100794 0)
(7.34786 0.0109839 0)
(7.34938 0.0119243 0)
(7.35092 0.0129004 0)
(7.35251 0.0139109 0)
(7.35413 0.0149537 0)
(7.35581 0.0160255 0)
(7.35753 0.0171218 0)
(7.3593 0.0182372 0)
(7.36113 0.0193651 0)
(7.36302 0.0204983 0)
(7.36497 0.0216286 0)
(7.36698 0.0227471 0)
(7.36905 0.0238451 0)
(7.37117 0.0249133 0)
(7.37335 0.025943 0)
(7.37558 0.0269259 0)
(7.37785 0.0278545 0)
(7.38016 0.0287221 0)
(7.38249 0.0295247 0)
(7.33302 0.000280593 0)
(7.33325 0.000839495 0)
(7.3337 0.00139726 0)
(7.33437 0.0019614 0)
(7.3352 0.00253747 0)
(7.33617 0.00312934 0)
(7.33725 0.00374021 0)
(7.33843 0.00437306 0)
(7.33968 0.00503067 0)
(7.341 0.00571546 0)
(7.34236 0.00642954 0)
(7.34378 0.00717468 0)
(7.34523 0.00795219 0)
(7.34672 0.00876291 0)
(7.34824 0.00960705 0)
(7.3498 0.0104842 0)
(7.3514 0.0113931 0)
(7.35303 0.0123318 0)
(7.35471 0.0132974 0)
(7.35642 0.0142863 0)
(7.35819 0.0152938 0)
(7.36 0.0163146 0)
(7.36186 0.0173425 0)
(7.36377 0.0183708 0)
(7.36574 0.0193921 0)
(7.36775 0.0203989 0)
(7.36981 0.0213834 0)
(7.37192 0.0223381 0)
(7.37408 0.0232556 0)
(7.37627 0.0241292 0)
(7.37849 0.0249529 0)
(7.38074 0.0257213 0)
(7.38301 0.0264315 0)
(7.33303 0.000194495 0)
(7.33325 0.000585128 0)
(7.33372 0.000985157 0)
(7.33441 0.00140586 0)
(7.33527 0.00185395 0)
(7.33626 0.00233255 0)
(7.33738 0.00284328 0)
(7.33858 0.00338724 0)
(7.33987 0.00396514 0)
(7.34123 0.00457729 0)
(7.34263 0.00522378 0)
(7.34409 0.00590448 0)
(7.34558 0.00661908 0)
(7.34712 0.00736691 0)
(7.34869 0.00814691 0)
(7.35029 0.00895756 0)
(7.35194 0.00979676 0)
(7.35361 0.0106618 0)
(7.35533 0.0115494 0)
(7.35709 0.0124555 0)
(7.35889 0.0133756 0)
(7.36073 0.0143043 0)
(7.36262 0.015236 0)
(7.36455 0.0161644 0)
(7.36652 0.0170832 0)
(7.36854 0.0179857 0)
(7.37059 0.0188654 0)
(7.37268 0.0197158 0)
(7.37481 0.0205309 0)
(7.37697 0.0213052 0)
(7.37914 0.022034 0)
(7.38134 0.0227129 0)
(7.38355 0.0233397 0)
(7.33303 0.000102459 0)
(7.33327 0.00031338 0)
(7.33376 0.000545475 0)
(7.33447 0.000814206 0)
(7.33537 0.00112728 0)
(7.3364 0.00148663 0)
(7.33755 0.00189196 0)
(7.3388 0.00234228 0)
(7.34013 0.00283608 0)
(7.34153 0.00337145 0)
(7.34298 0.00394637 0)
(7.34448 0.00455886 0)
(7.34602 0.00520697 0)
(7.3476 0.00588863 0)
(7.34921 0.00660159 0)
(7.35086 0.00734335 0)
(7.35254 0.00811105 0)
(7.35426 0.00890142 0)
(7.35602 0.00971076 0)
(7.35781 0.0105349 0)
(7.35964 0.0113693 0)
(7.36151 0.0122089 0)
(7.36342 0.0130485 0)
(7.36536 0.0138823 0)
(7.36734 0.0147048 0)
(7.36935 0.0155103 0)
(7.37139 0.016293 0)
(7.37347 0.0170477 0)
(7.37557 0.0177694 0)
(7.37769 0.0184536 0)
(7.37983 0.0190964 0)
(7.38198 0.0196944 0)
(7.38413 0.0202461 0)
(7.33303 2.45615e-06 0)
(7.33328 1.84709e-05 0)
(7.33381 6.96463e-05 0)
(7.33456 0.000176354 0)
(7.3355 0.00034691 0)
(7.33659 0.000581214 0)
(7.33779 0.000876426 0)
(7.33909 0.00122914 0)
(7.34047 0.00163542 0)
(7.34191 0.00209093 0)
(7.34341 0.00259147 0)
(7.34495 0.00313315 0)
(7.34654 0.00371239 0)
(7.34816 0.00432576 0)
(7.34982 0.00496987 0)
(7.35151 0.00564131 0)
(7.35324 0.00633656 0)
(7.355 0.00705189 0)
(7.35679 0.00778332 0)
(7.35861 0.00852663 0)
(7.36046 0.00927732 0)
(7.36235 0.0100307 0)
(7.36427 0.0107818 0)
(7.36623 0.0115257 0)
(7.36821 0.0122574 0)
(7.37022 0.0129719 0)
(7.37225 0.0136645 0)
(7.37431 0.0143307 0)
(7.37638 0.0149664 0)
(7.37847 0.0155679 0)
(7.38057 0.0161322 0)
(7.38267 0.0166565 0)
(7.38478 0.0171398 0)
(7.33303 -0.000108225 0)
(7.33331 -0.000307257 0)
(7.33387 -0.000453425 0)
(7.33469 -0.00052036 0)
(7.33569 -0.000500055 0)
(7.33684 -0.000396093 0)
(7.3381 -0.000214752 0)
(7.33946 3.76001e-05 0)
(7.34089 0.0003541 0)
(7.34239 0.000727663 0)
(7.34394 0.00115175 0)
(7.34554 0.00162063 0)
(7.34717 0.00212918 0)
(7.34884 0.00267271 0)
(7.35054 0.00324683 0)
(7.35227 0.00384736 0)
(7.35404 0.00447018 0)
(7.35583 0.00511119 0)
(7.35765 0.0057662 0)
(7.3595 0.00643096 0)
(7.36138 0.00710111 0)
(7.36328 0.00777219 0)
(7.36522 0.00843972 0)
(7.36717 0.00909923 0)
(7.36916 0.00974632 0)
(7.37116 0.0103767 0)
(7.37318 0.0109864 0)
(7.37522 0.0115717 0)
(7.37727 0.0121291 0)
(7.37933 0.0126557 0)
(7.38139 0.0131489 0)
(7.38345 0.0136066 0)
(7.38552 0.0140281 0)
(7.33303 -0.000233424 0)
(7.33334 -0.000674526 0)
(7.33397 -0.00103872 0)
(7.33486 -0.00129223 0)
(7.33594 -0.00142971 0)
(7.33717 -0.00146069 0)
(7.33851 -0.00139572 0)
(7.33994 -0.00124442 0)
(7.34144 -0.00101719 0)
(7.343 -0.00072456 0)
(7.34461 -0.000375883 0)
(7.34625 2.09668e-05 0)
(7.34794 0.000459209 0)
(7.34965 0.000932869 0)
(7.35139 0.00143662 0)
(7.35317 0.00196563 0)
(7.35496 0.00251537 0)
(7.35679 0.00308153 0)
(7.35864 0.0036599 0)
(7.36051 0.00424631 0)
(7.36241 0.00483663 0)
(7.36433 0.00542678 0)
(7.36628 0.00601271 0)
(7.36824 0.00659045 0)
(7.37022 0.0071562 0)
(7.37222 0.0077063 0)
(7.37423 0.00823735 0)
(7.37625 0.00874623 0)
(7.37828 0.00923015 0)
(7.38031 0.00968669 0)
(7.38234 0.0101138 0)
(7.38437 0.0105099 0)
(7.38639 0.0108745 0)
(7.33304 -0.000378869 0)
(7.33339 -0.00109922 0)
(7.3341 -0.00170761 0)
(7.3351 -0.00216084 0)
(7.33629 -0.0024614 0)
(7.33761 -0.00262998 0)
(7.33904 -0.00268345 0)
(7.34056 -0.0026352 0)
(7.34214 -0.00249917 0)
(7.34377 -0.00228906 0)
(7.34543 -0.00201657 0)
(7.34714 -0.00169142 0)
(7.34887 -0.00132199 0)
(7.35063 -0.000915575 0)
(7.35242 -0.000478539 0)
(7.35423 -1.65011e-05 0)
(7.35606 0.000465479 0)
(7.35792 0.000962735 0)
(7.35979 0.0014709 0)
(7.36169 0.00198582 0)
(7.36361 0.00250354 0)
(7.36554 0.00302022 0)
(7.36749 0.00353222 0)
(7.36946 0.00403602 0)
(7.37144 0.00452832 0)
(7.37344 0.00500601 0)
(7.37544 0.00546624 0)
(7.37744 0.00590644 0)
(7.37945 0.00632431 0)
(7.38146 0.00671791 0)
(7.38346 0.00708559 0)
(7.38546 0.00742595 0)
(7.38745 0.00773868 0)
(7.33305 -0.000553671 0)
(7.33346 -0.00160538 0)
(7.3343 -0.00249131 0)
(7.33544 -0.00315868 0)
(7.33677 -0.00362468 0)
(7.33821 -0.00392437 0)
(7.33975 -0.00408313 0)
(7.34137 -0.00412252 0)
(7.34303 -0.00406446 0)
(7.34474 -0.00392797 0)
(7.34648 -0.00372753 0)
(7.34825 -0.00347435 0)
(7.35004 -0.00317766 0)
(7.35185 -0.00284519 0)
(7.35368 -0.00248338 0)
(7.35553 -0.00209777 0)
(7.3574 -0.00169324 0)
(7.35929 -0.00127424 0)
(7.3612 -0.000844857 0)
(7.36312 -0.000408937 0)
(7.36506 2.98854e-05 0)
(7.36701 0.000468161 0)
(7.36897 0.000902615 0)
(7.37095 0.00133016 0)
(7.37293 0.0017479 0)
(7.37492 0.00215316 0)
(7.37691 0.00254352 0)
(7.3789 0.00291679 0)
(7.3809 0.00327108 0)
(7.38288 0.0036048 0)
(7.38486 0.00391666 0)
(7.38683 0.00420566 0)
(7.38878 0.00447177 0)
(7.33306 -0.000774752 0)
(7.33358 -0.00223304 0)
(7.3346 -0.00342643 0)
(7.33595 -0.00431691 0)
(7.33746 -0.00496716 0)
(7.33906 -0.00542554 0)
(7.34074 -0.00571231 0)
(7.34247 -0.00585039 0)
(7.34424 -0.00586924 0)
(7.34603 -0.00579474 0)
(7.34785 -0.00564624 0)
(7.34968 -0.00543895 0)
(7.35153 -0.00518543 0)
(7.3534 -0.00489592 0)
(7.35528 -0.00457853 0)
(7.35718 -0.00423981 0)
(7.3591 -0.00388517 0)
(7.36102 -0.00351922 0)
(7.36296 -0.0031459 0)
(7.36491 -0.00276874 0)
(7.36688 -0.0023909 0)
(7.36885 -0.00201525 0)
(7.37083 -0.00164446 0)
(7.37281 -0.00128097 0)
(7.37479 -0.000927051 0)
(7.37678 -0.000584755 0)
(7.37876 -0.000255938 0)
(7.38074 5.77454e-05 0)
(7.38271 0.000354854 0)
(7.38467 0.000634143 0)
(7.38662 0.000894565 0)
(7.38855 0.00113516 0)
(7.39047 0.00135567 0)
(7.33308 -0.0010707 0)
(7.33378 -0.00308033 0)
(7.33509 -0.00460502 0)
(7.33671 -0.00563653 0)
(7.33843 -0.00635863 0)
(7.34023 -0.00688153 0)
(7.3421 -0.00724026 0)
(7.34402 -0.0074626 0)
(7.34595 -0.00757913 0)
(7.34789 -0.00761236 0)
(7.34983 -0.00757682 0)
(7.35178 -0.00748375 0)
(7.35373 -0.00734295 0)
(7.35568 -0.00716272 0)
(7.35764 -0.00695001 0)
(7.3596 -0.00671078 0)
(7.36156 -0.0064503 0)
(7.36353 -0.00617326 0)
(7.36549 -0.00588384 0)
(7.36746 -0.00558584 0)
(7.36942 -0.00528266 0)
(7.37138 -0.00497744 0)
(7.37333 -0.00467299 0)
(7.37528 -0.00437189 0)
(7.37721 -0.00407644 0)
(7.37914 -0.00378873 0)
(7.38106 -0.00351057 0)
(7.38296 -0.00324356 0)
(7.38484 -0.00298903 0)
(7.3867 -0.00274808 0)
(7.38854 -0.00252154 0)
(7.39036 -0.00230998 0)
(7.39215 -0.00211331 0)
(7.3331 -0.00145127 0)
(7.33415 -0.00421786 0)
(7.33606 -0.00632989 0)
(7.33821 -0.00778857 0)
(7.3403 -0.00877938 0)
(7.34239 -0.00941164 0)
(7.34453 -0.00976328 0)
(7.34669 -0.00991688 0)
(7.34884 -0.00993929 0)
(7.35097 -0.00987287 0)
(7.35308 -0.00974461 0)
(7.35517 -0.00957362 0)
(7.35722 -0.00937334 0)
(7.35924 -0.00915265 0)
(7.36123 -0.0089174 0)
(7.36318 -0.00867164 0)
(7.3651 -0.00841839 0)
(7.36697 -0.00815995 0)
(7.36881 -0.00789825 0)
(7.37062 -0.00763497 0)
(7.37239 -0.0073717 0)
(7.37413 -0.00710992 0)
(7.37583 -0.00685108 0)
(7.3775 -0.00659656 0)
(7.37914 -0.00634768 0)
(7.38075 -0.00610569 0)
(7.38233 -0.00587174 0)
(7.38388 -0.00564689 0)
(7.38539 -0.0054321 0)
(7.38688 -0.00522825 0)
(7.38833 -0.00503615 0)
(7.38975 -0.00485666 0)
(7.39115 -0.00469026 0)
(7.33311 -0.00228656 0)
(7.33485 -0.00522137 0)
(7.33794 -0.00689263 0)
(7.34135 -0.00826999 0)
(7.34466 -0.00956575 0)
(7.34784 -0.0106401 0)
(7.35084 -0.011451 0)
(7.35358 -0.012046 0)
(7.35604 -0.0124657 0)
(7.35825 -0.0127313 0)
(7.3602 -0.0128634 0)
(7.36194 -0.0128851 0)
(7.36347 -0.0128178 0)
(7.36483 -0.0126797 0)
(7.36602 -0.012486 0)
(7.36708 -0.0122493 0)
(7.36802 -0.0119804 0)
(7.36885 -0.0116882 0)
(7.36959 -0.0113797 0)
(7.37026 -0.011061 0)
(7.37086 -0.0107368 0)
(7.37141 -0.0104112 0)
(7.37192 -0.0100873 0)
(7.37238 -0.00976774 0)
(7.37282 -0.00945474 0)
(7.37322 -0.00914999 0)
(7.3736 -0.00885489 0)
(7.37396 -0.00857051 0)
(7.37431 -0.00829767 0)
(7.37464 -0.00803692 0)
(7.37495 -0.00778861 0)
(7.37525 -0.0075529 0)
(7.37553 -0.00732948 0)
(7.3363 -0.00651953 0)
(7.34557 -0.0134933 0)
(7.35343 -0.0156973 0)
(7.35888 -0.0162051 0)
(7.36267 -0.016173 0)
(7.36522 -0.0157628 0)
(7.36657 -0.015104 0)
(7.36682 -0.0143628 0)
(7.36619 -0.0136325 0)
(7.36489 -0.0129411 0)
(7.36308 -0.0122953 0)
(7.36087 -0.0116979 0)
(7.35839 -0.0111477 0)
(7.35571 -0.0106408 0)
(7.35292 -0.0101722 0)
(7.35007 -0.00973714 0)
(7.34719 -0.00933142 0)
(7.34433 -0.00895153 0)
(7.34151 -0.00859452 0)
(7.33876 -0.00825802 0)
(7.33607 -0.00794015 0)
(7.33347 -0.00763945 0)
(7.33096 -0.00735478 0)
(7.32855 -0.00708524 0)
(7.32623 -0.00683016 0)
(7.32401 -0.006589 0)
(7.32189 -0.00636129 0)
(7.31986 -0.00614664 0)
(7.31792 -0.00594468 0)
(7.31608 -0.00575501 0)
(7.31433 -0.00557708 0)
(7.31266 -0.0054103 0)
(7.31108 -0.00525318 0)
(7.32508 -0.00547116 0)
(7.31334 -0.0121291 0)
(7.29926 -0.0150494 0)
(7.28286 -0.0161414 0)
(7.26678 -0.0163234 0)
(7.25206 -0.0158898 0)
(7.2386 -0.0150524 0)
(7.22623 -0.014011 0)
(7.21494 -0.0129012 0)
(7.2047 -0.0117975 0)
(7.1954 -0.0107407 0)
(7.18694 -0.00975422 0)
(7.17922 -0.00884915 0)
(7.17218 -0.00802829 0)