/*--------------------------------*- C++ -*----------------------------------*\
| =========                 |                                                 |
| \\      /  F ield         | OpenFOAM: The Open Source CFD Toolbox           |
|  \\    /   O peration     | Version:  4.1                                   |
|   \\  /    A nd           | Web:      www.OpenFOAM.org                      |
|    \\/     M anipulation  |                                                 |
\*---------------------------------------------------------------------------*/
FoamFile
{
    version     2.0;
    format      ascii;
    class       volScalarField;
    location    "1000";
    object      epsilon;
}
// * * * * * * * * * * * * * * * * * * * * * * * * * * * * * * * * * * * * * //

dimensions      [0 2 -3 0 0 0 0];

internalField   nonuniform List<scalar> 
6820
(
115.949
152.042
190.661
230.213
269.213
306.364
340.623
371.268
397.899
420.4
438.869
453.554
464.803
473.009
478.58
481.91
483.37
483.292
481.971
479.664
476.587
472.927
468.838
464.447
459.86
455.162
450.423
445.696
441.026
436.449
431.983
427.736
425.108
9.48476
17.5528
23.8082
29.343
34.5615
39.5638
44.3524
48.9031
53.1856
57.1731
60.8487
64.2073
67.2547
70.0051
72.4792
74.7011
76.6969
78.4928
80.114
81.5839
82.9237
84.1529
85.2886
86.3454
87.3357
88.2697
89.156
90.0016
90.8112
91.5915
92.3414
93.0693
93.7677
4.14146
5.59602
6.98297
8.20862
9.27788
10.2173
11.0506
11.7953
12.4652
13.0716
13.6233
14.1277
14.5907
15.0172
15.4112
15.7762
16.1152
16.4306
16.7248
16.9994
17.258
17.5082
17.7521
17.9906
18.224
18.453
18.6778
18.8989
19.1166
19.3311
19.5426
19.7516
19.9563
3.60121
3.91796
4.33109
4.75787
5.16049
5.52671
5.85474
6.14666
6.40579
6.6357
6.83984
7.02136
7.18307
7.32748
7.45674
7.57272
7.67703
7.77107
7.85602
7.93291
8.00259
8.06661
8.12605
8.18167
8.23408
8.28376
8.33112
8.37649
8.42017
8.46238
8.50337
8.54328
8.58246
3.52798
3.56982
3.67476
3.81744
3.97488
4.1328
4.28383
4.42458
4.55377
4.67122
4.77737
4.87291
4.95865
5.03543
5.10409
5.1654
5.22009
5.26883
5.31223
5.35082
5.38509
5.41551
5.44254
5.46658
5.48801
5.50713
5.52424
5.53957
5.55335
5.56576
5.57697
5.58711
5.5964
3.5197
3.49572
3.49766
3.52374
3.56745
3.62175
3.681
3.74133
3.80034
3.85661
3.90933
3.95814
4.00291
4.04368
4.08059
4.11385
4.14366
4.17029
4.19396
4.21492
4.23339
4.24958
4.26371
4.27597
4.28654
4.29559
4.30327
4.30973
4.31508
4.31945
4.32294
4.32564
4.32766
3.51928
3.48173
3.4529
3.43487
3.42775
3.42982
3.4388
3.45249
3.46904
3.48707
3.50557
3.52383
3.54138
3.55792
3.57325
3.58728
3.59995
3.61129
3.6213
3.63006
3.63761
3.64407
3.64949
3.65395
3.65752
3.66027
3.66225
3.66354
3.6642
3.66428
3.66383
3.66292
3.66159
3.51938
3.47956
3.44297
3.41081
3.38393
3.36257
3.34634
3.33451
3.32623
3.32072
3.31725
3.31524
3.31422
3.31382
3.31376
3.31382
3.31384
3.31373
3.31338
3.31277
3.31185
3.31061
3.30906
3.30718
3.30501
3.30253
3.29978
3.29677
3.29352
3.29004
3.28636
3.28249
3.27846
3.51942
3.47931
3.44106
3.40504
3.37162
3.34118
3.31388
3.28963
3.26823
3.24937
3.23274
3.218
3.20484
3.19299
3.1822
3.17226
3.16303
3.15434
3.1461
3.13822
3.13062
3.12325
3.11606
3.10902
3.10209
3.09526
3.08851
3.08183
3.07521
3.06865
3.06213
3.05566
3.04923
3.51943
3.47931
3.44074
3.4038
3.36856
3.33518
3.30378
3.27441
3.24705
3.22164
3.19808
3.17623
3.15594
3.13705
3.11941
3.10289
3.08735
3.07269
3.0588
3.04559
3.03299
3.02092
3.00935
2.9982
2.98745
2.97705
2.96698
2.9572
2.94769
2.93844
2.92943
2.92063
2.91204
3.51944
3.47931
3.44068
3.40355
3.36786
3.33364
3.30091
3.26968
3.23994
3.2117
3.18491
3.15952
3.13547
3.1127
3.09111
3.07063
3.05118
3.03267
3.01505
2.99824
2.98217
2.96679
2.95204
2.93788
2.92427
2.91116
2.89853
2.88633
2.87454
2.86314
2.85209
2.84139
2.83101
3.51944
3.47931
3.44066
3.40348
3.3677
3.33326
3.30016
3.26835
3.23781
3.20852
3.18044
3.15355
3.12781
3.10317
3.0796
3.05704
3.03545
3.01477
2.99495
2.97596
2.95773
2.94023
2.92341
2.90724
2.89167
2.87667
2.86221
2.84827
2.8348
2.82179
2.80921
2.79703
2.78524
3.51944
3.47931
3.44064
3.40345
3.36764
3.33315
3.29995
3.26797
3.23718
3.20753
3.17899
3.15152
3.12508
3.09964
3.07516
3.05161
3.02896
3.00716
2.98618
2.96598
2.94653
2.9278
2.90975
2.89234
2.87556
2.85936
2.84373
2.82863
2.81404
2.79993
2.78629
2.77309
2.76031
3.51944
3.4793
3.44063
3.40343
3.36761
3.3331
3.29987
3.26785
3.23698
3.20723
3.17853
3.15087
3.12418
3.09844
3.07362
3.04966
3.02655
3.00426
2.98274
2.96197
2.94191
2.92255
2.90385
2.88578
2.86832
2.85145
2.83513
2.81935
2.80408
2.78931
2.775
2.76115
2.74773
3.51944
3.4793
3.44063
3.40341
3.36758
3.33307
3.29982
3.26778
3.23689
3.2071
3.17836
3.15063
3.12386
3.09801
3.07305
3.04894
3.02564
3.00313
2.98138
2.96035
2.94002
2.92035
2.90133
2.88294
2.86513
2.8479
2.83122
2.81507
2.79942
2.78427
2.76959
2.75535
2.74156
3.51944
3.4793
3.44062
3.4034
3.36756
3.33304
3.29979
3.26774
3.23684
3.20703
3.17827
3.15051
3.12371
3.09783
3.07282
3.04865
3.02529
3.00271
2.98087
2.95974
2.93929
2.91951
2.90035
2.88181
2.86385
2.84646
2.82961
2.81328
2.79745
2.78211
2.76723
2.75281
2.73881
3.51944
3.4793
3.44061
3.40339
3.36754
3.33302
3.29976
3.2677
3.23679
3.20698
3.17821
3.15044
3.12362
3.09772
3.07269
3.0485
3.02512
3.0025
2.98062
2.95945
2.93896
2.91912
2.89991
2.8813
2.86327
2.84581
2.82887
2.81246
2.79655
2.78111
2.76614
2.75161
2.73751
3.51944
3.47929
3.44061
3.40338
3.36753
3.333
3.29974
3.26767
3.23675
3.20693
3.17816
3.15038
3.12355
3.09764
3.07261
3.0484
3.02501
3.00237
2.98048
2.95929
2.93878
2.91892
2.89969
2.88106
2.863
2.84551
2.82854
2.8121
2.79615
2.78067
2.76566
2.75109
2.73695
3.51944
3.47929
3.44061
3.40337
3.36752
3.33299
3.29972
3.26765
3.23672
3.2069
3.17811
3.15033
3.1235
3.09758
3.07253
3.04832
3.02492
3.00228
2.98037
2.95917
2.93865
2.91878
2.89954
2.88089
2.86282
2.84531
2.82833
2.81187
2.7959
2.7804
2.76537
2.75078
2.73661
3.51944
3.47929
3.44061
3.40337
3.36752
3.33298
3.2997
3.26763
3.2367
3.20686
3.17807
3.15028
3.12345
3.09752
3.07247
3.04826
3.02484
3.00219
2.98028
2.95908
2.93855
2.91867
2.89942
2.88077
2.86269
2.84517
2.82818
2.81171
2.79573
2.78023
2.76519
2.75059
2.73641
3.51944
3.47929
3.4406
3.40337
3.36751
3.33297
3.29969
3.26761
3.23668
3.20684
3.17804
3.15025
3.1234
3.09747
3.07242
3.0482
3.02478
3.00212
2.98021
2.959
2.93846
2.91858
2.89932
2.88066
2.86258
2.84505
2.82806
2.81158
2.79559
2.78009
2.76504
2.75043
2.73625
3.51944
3.47929
3.4406
3.40336
3.36751
3.33296
3.29968
3.2676
3.23666
3.20682
3.17802
3.15022
3.12337
3.09743
3.07237
3.04815
3.02472
3.00206
2.98014
2.95892
2.93839
2.9185
2.89923
2.88057
2.86248
2.84495
2.82795
2.81147
2.79548
2.77997
2.76491
2.7503
2.73611
3.51944
3.47929
3.4406
3.40336
3.3675
3.33296
3.29967
3.26759
3.23665
3.2068
3.178
3.15019
3.12334
3.0974
3.07233
3.0481
3.02467
3.00201
2.98008
2.95886
2.93832
2.91843
2.89916
2.88049
2.8624
2.84487
2.82786
2.81138
2.79538
2.77986
2.76481
2.75019
2.736
3.51944
3.47929
3.4406
3.40336
3.3675
3.33295
3.29967
3.26758
3.23664
3.20678
3.17798
3.15017
3.12331
3.09737
3.0723
3.04807
3.02463
3.00197
2.98004
2.95881
2.93827
2.91837
2.8991
2.88043
2.86233
2.84479
2.82778
2.81129
2.79529
2.77977
2.76471
2.75009
2.7359
3.51944
3.47929
3.4406
3.40336
3.3675
3.33295
3.29966
3.26757
3.23663
3.20678
3.17797
3.15016
3.1233
3.09735
3.07228
3.04804
3.02461
3.00194
2.98001
2.95878
2.93823
2.91833
2.89906
2.88038
2.86228
2.84474
2.82773
2.81124
2.79524
2.77972
2.76465
2.75003
2.73583
3.51944
3.47929
3.4406
3.40336
3.3675
3.33295
3.29966
3.26757
3.23662
3.20677
3.17796
3.15015
3.12329
3.09734
3.07227
3.04803
3.02459
3.00192
2.97998
2.95875
2.9382
2.9183
2.89902
2.88034
2.86224
2.84469
2.82768
2.81118
2.79518
2.77965
2.76459
2.74996
2.73576
3.51944
3.47929
3.4406
3.40336
3.3675
3.33295
3.29966
3.26757
3.23662
3.20677
3.17796
3.15014
3.12328
3.09733
3.07226
3.04802
3.02458
3.00191
2.97998
2.95875
2.93819
2.91829
2.89902
2.88034
2.86224
2.84469
2.82768
2.81119
2.79518
2.77966
2.76459
2.74996
2.73577
3.51944
3.47929
3.4406
3.40336
3.3675
3.33295
3.29966
3.26757
3.23662
3.20677
3.17796
3.15014
3.12328
3.09733
3.07226
3.04801
3.02457
3.0019
2.97996
2.95873
2.93817
2.91827
2.89899
2.88031
2.86221
2.84466
2.82764
2.81114
2.79514
2.77961
2.76454
2.74991
2.73571
3.51944
3.47929
3.4406
3.40336
3.3675
3.33295
3.29966
3.26757
3.23663
3.20678
3.17797
3.15016
3.1233
3.09735
3.07228
3.04804
3.02461
3.00194
2.98001
2.95878
2.93823
2.91833
2.89906
2.88038
2.86228
2.84474
2.82773
2.81123
2.79523
2.77971
2.76464
2.75001
2.73581
3.51944
3.47929
3.4406
3.40336
3.3675
3.33296
3.29967
3.26758
3.23663
3.20678
3.17797
3.15016
3.1233
3.09735
3.07227
3.04803
3.02459
3.00192
2.97999
2.95875
2.9382
2.9183
2.89902
2.88034
2.86224
2.8447
2.82769
2.81119
2.79519
2.77967
2.76461
2.74998
2.73579
3.51944
3.47929
3.4406
3.40336
3.3675
3.33296
3.29968
3.26759
3.23666
3.20681
3.17802
3.15022
3.12337
3.09744
3.07238
3.04815
3.02473
3.00207
2.98015
2.95894
2.9384
2.91852
2.89925
2.88059
2.86251
2.84498
2.82799
2.81151
2.79553
2.78002
2.76498
2.75037
2.7362
3.51944
3.47929
3.4406
3.40337
3.36751
3.33297
3.29968
3.2676
3.23666
3.20681
3.178
3.1502
3.12335
3.09742
3.07236
3.04814
3.02472
3.00208
2.98018
2.95898
2.93847
2.91861
2.89938
2.88075
2.86271
2.84522
2.82827
2.81184
2.79591
2.78046
2.76547
2.75093
2.73681
3.51944
3.47929
3.44061
3.40337
3.36753
3.333
3.29975
3.26771
3.23682
3.20703
3.17829
3.15055
3.12378
3.09793
3.07296
3.04883
3.02551
3.00298
2.98118
2.96011
2.93972
2.92
2.9009
2.88242
2.86453
2.8472
2.83042
2.81415
2.79839
2.78311
2.7683
2.75394
2.74
3.51944
3.47929
3.44061
3.40338
3.36754
3.33305
3.29985
3.26787
3.23707
3.2074
3.1788
3.15124
3.12468
3.09906
3.07436
3.05054
3.02756
3.00539
2.98399
2.96333
2.94338
2.92411
2.9055
2.88751
2.87013
2.85332
2.83707
2.82135
2.80613
2.79141
2.77715
2.76335
2.74997
3.51943
3.4793
3.44066
3.40356
3.36794
3.33374
3.30092
3.26945
3.23927
3.21034
3.18261
3.15603
3.13055
3.10613
3.08271
3.06025
3.03869
3.018
2.99812
2.97902
2.96065
2.94298
2.92596
2.90957
2.89378
2.87855
2.86385
2.84966
2.83596
2.82272
2.80992
2.79753
2.78555
3.51942
3.47942
3.4412
3.4049
3.37061
3.33828
3.30787
3.27931
3.25251
3.22735
3.20374
3.18153
3.16063
3.14093
3.12231
3.1047
3.08799
3.07211
3.05699
3.04257
3.02878
3.01558
3.00292
2.99077
2.97909
2.96783
2.95698
2.94651
2.93639
2.9266
2.91712
2.90793
2.89902
3.5196
3.48203
3.4494
3.42177
3.39875
3.37983
3.36442
3.35191
3.34178
3.33354
3.32681
3.32126
3.31662
3.31268
3.30926
3.30623
3.30346
3.30087
3.29841
3.296
3.29362
3.29123
3.28881
3.28634
3.28382
3.28124
3.27859
3.27587
3.27309
3.27024
3.26733
3.26436
3.26135
3.53049
3.53942
3.57109
3.61695
3.67052
3.72753
3.78534
3.84241
3.89782
3.951
4.00161
4.0495
4.09463
4.13704
4.17681
4.21406
4.24892
4.28151
4.31198
4.34045
4.36707
4.39194
4.41519
4.43694
4.45727
4.4763
4.4941
4.51078
4.52639
4.54103
4.55475
4.56762
4.57975
4.00122
4.78106
5.43755
6.00229
6.50073
6.94822
7.35501
7.72858
8.07457
8.39729
8.70008
8.9856
9.256
9.51301
9.75808
9.99237
10.2169
10.4324
10.6398
10.8395
11.0321
11.2181
11.3978
11.5716
11.7399
11.9029
12.0609
12.2141
12.3627
12.507
12.6471
12.7832
12.9159
31.176
33.6247
36.0474
38.4445
40.8147
43.1561
45.4659
47.7407
49.9772
52.1722
54.323
56.4269
58.4817
60.4855
62.4367
64.3341
66.1767
67.964
69.6956
71.3714
72.9915
74.5563
76.0663
77.5223
78.9251
80.2756
81.575
82.8243
84.0249
85.1779
86.2848
87.3473
88.3743
437.055
505.771
598.186
699.842
791.756
861.342
904.422
922.601
920.839
905.076
880.538
850.981
818.953
786.086
753.329
721.237
689.89
659.43
629.682
600.652
572.461
545.246
519.131
494.221
470.597
448.312
427.391
407.827
389.589
372.627
356.882
342.288
328.775
316.269
304.694
293.972
284.024
274.773
266.142
258.059
250.455
243.263
236.422
229.876
223.571
217.461
211.501
205.655
199.889
194.175
188.489
182.814
177.137
171.447
165.74
160.015
154.275
148.525
142.775
137.036
131.322
125.647
120.028
114.484
109.032
103.691
98.4787
93.4128
88.5096
83.7841
79.2496
74.9174
70.7967
66.8946
63.2154
59.7615
56.5326
53.5259
50.7363
48.1563
45.7767
43.5867
41.5751
39.73
38.0392
36.4904
35.0714
33.7701
32.5746
31.4736
30.4561
29.5116
28.6306
27.8035
27.0246
26.2845
25.5896
24.927
24.3465
23.7107
95.1658
100.432
110.608
127.822
152.599
183.943
219.916
257.839
294.879
328.673
357.619
380.902
398.408
410.54
417.991
421.553
421.878
419.496
415.027
408.895
401.426
392.883
383.495
373.468
362.998
352.263
341.424
330.617
319.954
309.521
299.386
289.596
280.185
271.171
262.562
254.353
246.532
239.078
231.966
225.166
218.647
212.375
206.319
200.446
194.725
189.129
183.632
178.211
172.846
167.521
162.222
156.941
151.671
146.409
141.153
135.908
130.676
125.465
120.285
115.144
110.057
105.034
100.092
95.2447
90.5066
85.8928
81.4175
77.0938
72.9339
68.9484
65.146
61.5338
58.117
54.8988
51.8804
49.0611
46.4384
44.0081
41.764
39.6984
37.8022
36.0655
34.4778
33.0286
31.707
30.5025
29.4043
28.4023
27.4863
26.6467
25.8741
25.1598
24.4956
23.8736
23.2888
22.7335
22.213
21.7171
21.2863
20.8209
20.2129
20.6073
21.3102
22.633
24.9491
28.6568
33.9842
41.1072
50.1221
61.0175
73.5891
87.4803
102.242
117.394
132.476
147.07
160.822
173.336
184.458
194.126
202.321
209.049
214.341
218.251
220.858
222.264
222.586
221.949
220.48
218.306
215.544
212.303
208.685
204.776
200.655
196.384
192.015
187.588
183.136
178.678
174.231
169.803
165.398
161.016
156.657
152.315
147.987
143.667
139.352
135.036
130.718
126.396
122.07
117.741
113.414
109.092
104.783
100.494
96.2355
92.0168
87.8499
83.7469
79.7204
75.7832
71.9478
68.2264
64.6302
61.1693
57.8526
54.6876
51.6801
48.8344
46.1532
43.6376
41.2872
39.1003
37.0736
35.2027
33.482
31.9045
30.4625
29.1477
27.9513
26.8646
25.8789
24.9853
24.1755
23.441
22.7738
22.166
21.6102
21.099
20.6261
20.1848
19.771
19.3786
19.0121
18.6631
18.3643
18.0489
8.62701
8.68178
8.7515
8.85999
9.04343
9.35936
9.88112
10.6902
11.8811
13.5002
15.6218
18.3292
21.694
25.7699
30.5872
36.1446
42.3993
49.2514
56.54
64.1213
71.8431
79.5435
87.0582
94.2303
100.921
107.017
112.437
117.13
121.072
124.266
126.737
128.523
129.675
130.251
130.311
129.918
129.129
127.998
126.574
124.902
123.016
120.951
118.731
116.378
113.91
111.342
108.683
105.944
103.133
100.256
97.3199
94.3306
91.295
88.22
85.1135
81.9841
78.841
75.6943
72.5546
69.4332
66.3418
63.292
60.2956
57.3641
54.5083
51.7386
49.0642
46.4932
44.0327
41.6882
39.4642
37.3636
35.3883
33.5387
31.8143
30.2135
28.7337
27.3713
26.1221
24.9806
23.9412
22.9975
22.143
21.3712
20.6753
20.0488
19.4854
18.9788
18.5226
18.111
17.7382
17.3984
17.0867
16.7977
16.5285
16.2738
16.0377
15.8134
15.6264
15.4383
5.60583
5.61695
5.62974
5.64579
5.66846
5.70375
5.76193
5.85746
6.00907
6.23762
6.56255
7.00476
7.59097
8.35153
9.31964
10.5307
12.0198
13.8194
15.944
18.4077
21.2149
24.3565
27.8073
31.5241
35.4476
39.5053
43.6159
47.6951
51.6608
55.4377
58.9613
62.1806
65.0589
67.5738
69.7157
71.4863
72.8957
73.9604
74.701
75.1405
75.3029
75.2117
74.8896
74.3579
73.6359
72.7414
71.6901
70.4963
69.173
67.732
66.1843
64.5406
62.8112
61.0063
59.1362
57.2115
55.2429
53.2413
51.2177
49.1835
47.1496
45.1271
43.1266
41.1584
39.232
37.3563
35.5393
33.7879
32.1083
30.5051
28.9824
27.5428
26.1883
24.9198
23.7374
22.6402
21.627
20.6956
19.8433
19.0668
18.3623
17.7256
17.1524
16.6382
16.1784
15.7686
15.4044
15.0811
14.7944
14.5399
14.3134
14.1107
13.9279
13.761
13.6076
13.4638
13.3329
13.2093
13.1126
13.0274
4.32911
4.32998
4.33076
4.33163
4.33291
4.33542
4.34058
4.35067
4.36919
4.40085
4.45139
4.52643
4.6335
4.78106
4.97877
5.23764
5.56996
5.98925
6.50791
7.13866
7.89467
8.78853
9.8311
11.0303
12.3896
13.9074
15.5753
17.3784
19.2948
21.2968
23.3517
25.4242
27.4778
29.4774
31.3906
33.1894
34.8507
36.3569
37.6957
38.8595
39.8451
40.653
41.286
41.7495
42.0501
42.1952
42.193
42.0518
41.7802
41.3866
40.8795
40.2675
39.5592
38.7633
37.8887
36.9443
35.9395
34.8834
33.7855
32.6553
31.5021
30.3351
29.1631
27.9948
26.8382
25.7007
24.5891
23.5095
22.4671
21.4664
20.5111
19.6041
18.7476
17.9431
17.1915
16.4932
15.8479
15.255
14.7132
14.2209
13.7762
13.3766
13.0197
12.7029
12.4233
12.1782
11.9647
11.7798
11.6206
11.4842
11.3674
11.2674
11.1812
11.106
11.04
10.9801
10.929
10.8823
10.8539
10.8468
3.65947
3.65643
3.65283
3.64897
3.64472
3.64019
3.63563
3.63147
3.62851
3.62777
3.63064
3.63876
3.65423
3.67962
3.71796
3.7728
3.84818
3.94862
4.07893
4.24372
4.44817
4.69762
4.99742
5.35281
5.76864
6.24908
6.79732
7.41517
8.1027
8.85793
9.67661
10.5521
11.4754
12.4356
13.4201
14.4151
15.4064
16.3798
17.3216
18.2195
19.0624
19.8407
20.5469
21.1751
21.7208
22.1815
22.5557
22.8431
23.0444
23.1612
23.1959
23.1514
23.0313
22.8398
22.5814
22.2611
21.8846
21.4574
20.9858
20.4759
19.9342
19.3671
18.7809
18.1818
17.5759
16.9687
16.3656
15.7714
15.1903
14.6262
14.0825
13.5618
13.0666
12.5987
12.1595
11.75
11.3709
11.0224
10.7044
10.4166
10.1582
9.92827
9.72563
9.54897
9.39685
9.26769
9.15986
9.07161
9.00108
8.94636
8.90548
8.87633
8.85699
8.84524
8.83991
8.83857
8.84343
8.85084
8.87044
8.91765
3.27351
3.26749
3.26101
3.25423
3.24712
3.23969
3.23199
3.22409
3.2161
3.20827
3.20093
3.19453
3.18969
3.1872
3.18803
3.19339
3.2047
3.22359
3.25191
3.29155
3.34454
3.41303
3.49929
3.60557
3.73405
3.88677
4.06558
4.2721
4.50757
4.77283
5.06818
5.39329
5.74715
6.12798
6.53325
6.95968
7.40331
7.85958
8.32344
8.78951
9.25222
9.70599
10.1454
10.5653
10.9609
11.3278
11.6624
11.9614
12.2222
12.4428
12.6218
12.7583
12.8521
12.9034
12.913
12.8823
12.8131
12.7077
12.5685
12.3988
12.2016
11.9805
11.7391
11.481
11.21
10.9296
10.6434
10.3546
10.0664
9.78163
9.50284
9.23235
8.97217
8.72406
8.4895
8.26972
8.06571
7.8782
7.70769
7.55446
7.41855
7.29979
7.19788
7.11234
7.04259
6.98791
6.94748
6.92036
6.90551
6.90176
6.90787
6.92246
6.94423
6.97161
7.00379
7.03892
7.0787
7.12018
7.16951
7.24976
3.04175
3.03305
3.02408
3.01485
3.00543
2.99579
2.98592
2.97582
2.96549
2.95499
2.94441
2.93391
2.92365
2.91385
2.9048
2.89689
2.89061
2.88656
2.88543
2.88807
2.89529
2.90803
2.92728
2.95407
2.98942
3.03433
3.08973
3.15645
3.2352
3.32674
3.43153
3.5498
3.68159
3.82667
3.98463
4.15479
4.33622
4.52774
4.72791
4.93508
5.1474
5.36286
5.57931
5.79452
6.00623
6.21217
6.41011
6.59791
6.77355
6.93516
7.08107
7.20983
7.3202
7.41126
7.48233
7.53307
7.56342
7.57364
7.5643
7.53623
7.49054
7.42858
7.35189
7.26217
7.16123
7.05097
6.93332
6.81017
6.68342
6.55487
6.42622
6.29908
6.17493
6.05511
5.94085
5.83322
5.73318
5.64153
5.55894
5.48591
5.42283
5.36991
5.32727
5.29491
5.27271
5.26046
5.25785
5.26444
5.27972
5.30303
5.33365
5.3707
5.41335
5.46051
5.51163
5.56534
5.62292
5.68194
5.74601
5.84161
2.90223
2.89105
2.87974
2.86829
2.85673
2.84506
2.83326
2.82131
2.80922
2.79699
2.78464
2.7722
2.75971
2.74724
2.73489
2.72278
2.71107
2.69996
2.6897
2.6806
2.67299
2.66727
2.66389
2.66331
2.66603
2.67255
2.68338
2.699
2.71983
2.74627
2.77867
2.81726
2.8622
2.91352
2.97131
3.03546
3.10571
3.18172
3.26304
3.34915
3.43942
3.53315
3.62955
3.7278
3.82699
3.92619
4.02445
4.12078
4.2142
4.30374
4.38847
4.46746
4.53989
4.60499
4.66208
4.71061
4.75014
4.78039
4.80121
4.81261
4.81477
4.808
4.79277
4.76968
4.73945
4.70287
4.66084
4.61428
4.56419
4.51152
4.45728
4.40241
4.34785
4.2945
4.24319
4.19474
4.14985
4.10921
4.0734
4.04295
4.01827
3.99972
3.98756
3.982
3.98315
3.99104
4.00565
4.02683
4.05439
4.08799
4.12727
4.17168
4.22074
4.2737
4.33023
4.38931
4.45188
4.51598
4.58345
4.68089
2.81924
2.80595
2.79261
2.77922
2.76578
2.75229
2.73877
2.72518
2.71152
2.69778
2.68396
2.67007
2.65612
2.64214
2.62814
2.61416
2.60025
2.58646
2.57291
2.55968
2.54692
2.53476
2.52339
2.513
2.50382
2.49608
2.49004
2.48596
2.48408
2.48464
2.48788
2.49397
2.50308
2.51532
2.53075
2.5494
2.57128
2.59636
2.6245
2.65553
2.68921
2.72526
2.76339
2.80326
2.84448
2.88669
2.92946
2.97236
3.01497
3.05684
3.09752
3.13658
3.17357
3.20809
3.23974
3.26816
3.29303
3.31409
3.33112
3.34399
3.35261
3.35698
3.35718
3.35336
3.34575
3.33464
3.32037
3.30336
3.28406
3.26294
3.2405
3.21728
3.1938
3.1706
3.14819
3.1271
3.10783
3.09085
3.07661
3.06552
3.05797
3.05428
3.05474
3.05961
3.06907
3.08327
3.10231
3.12622
3.15497
3.18843
3.22644
3.26872
3.31499
3.36478
3.4179
3.4736
3.53261
3.59331
3.65645
3.74648
2.77193
2.75693
2.74194
2.72695
2.71195
2.69695
2.68195
2.66693
2.65191
2.63685
2.62177
2.60667
2.59153
2.57637
2.5612
2.54602
2.53084
2.5157
2.50061
2.4856
2.47073
2.45603
2.44157
2.42743
2.4137
2.40049
2.38789
2.37604
2.36506
2.35508
2.34623
2.33864
2.33242
2.32767
2.32449
2.32291
2.32302
2.32486
2.3284
2.33361
2.34041
2.34872
2.3584
2.36932
2.38132
2.39424
2.40788
2.42205
2.43656
2.4512
2.46575
2.48001
2.49376
2.50681
2.51896
2.53
2.53978
2.54812
2.5549
2.55999
2.56332
2.56482
2.56449
2.56233
2.55841
2.55282
2.54569
2.53718
2.52748
2.51682
2.50545
2.49363
2.48166
2.46982
2.45842
2.44779
2.43823
2.43007
2.42362
2.41918
2.41703
2.41744
2.42068
2.42698
2.43653
2.44952
2.4661
2.48636
2.51037
2.53812
2.56959
2.60465
2.64316
2.68486
2.72966
2.77703
2.82752
2.87981
2.93411
3.0113
2.74589
2.72965
2.71343
2.69723
2.68105
2.66489
2.64874
2.63261
2.61648
2.60036
2.58425
2.56813
2.552
2.53588
2.51976
2.50364
2.48753
2.47144
2.45536
2.43932
2.42332
2.40738
2.39151
2.37574
2.36011
2.34464
2.32939
2.3144
2.29972
2.28543
2.27157
2.25822
2.24547
2.23338
2.22202
2.21145
2.20171
2.19284
2.18487
2.1778
2.17164
2.16637
2.16194
2.15831
2.15543
2.15321
2.15159
2.15047
2.14976
2.14936
2.14917
2.1491
2.14904
2.14888
2.14854
2.14791
2.1469
2.14544
2.14344
2.14084
2.13758
2.13364
2.12897
2.12358
2.11748
2.11068
2.10324
2.09523
2.08673
2.07785
2.06869
2.05941
2.05014
2.04106
2.03234
2.02417
2.01674
2.01025
2.00491
2.00093
1.99852
1.99788
1.99921
2.00272
2.00858
2.01696
2.02803
2.04191
2.05871
2.07849
2.10129
2.1271
2.15587
2.18747
2.22189
2.25876
2.29853
2.34011
2.38351
2.44541
2.73258
2.7155
2.69845
2.68142
2.66441
2.64741
2.63043
2.61347
2.59653
2.5796
2.56269
2.54579
2.5289
2.51202
2.49516
2.47831
2.46148
2.44467
2.42788
2.41111
2.39437
2.37766
2.36098
2.34433
2.32774
2.3112
2.29473
2.27835
2.26207
2.24593
2.22995
2.21417
2.19862
2.18336
2.16844
2.15389
2.13974
2.12601
2.11272
2.09991
2.08758
2.07573
2.06438
2.0535
2.04308
2.0331
2.02354
2.01435
2.00549
1.99693
1.98861
1.9805
1.97253
1.96467
1.95686
1.94905
1.9412
1.93327
1.92523
1.91702
1.90864
1.90005
1.89124
1.8822
1.87293
1.86345
1.85376
1.84391
1.83392
1.82385
1.81375
1.80371
1.79379
1.78409
1.77471
1.76575
1.75734
1.74959
1.74265
1.73666
1.73174
1.72807
1.72579
1.72505
1.72601
1.72881
1.73361
1.74053
1.7497
1.76121
1.77514
1.79153
1.81042
1.83174
1.85556
1.88161
1.91029
1.94066
1.97282
2.01907
2.72596
2.70839
2.69082
2.67326
2.65571
2.63818
2.62065
2.60314
2.58565
2.56817
2.5507
2.53325
2.51581
2.49838
2.48098
2.46359
2.44622
2.42887
2.41154
2.39424
2.37696
2.3597
2.34247
2.32527
2.30809
2.29094
2.27381
2.25673
2.23968
2.2227
2.20579
2.18897
2.17225
2.15565
2.1392
2.12292
2.10682
2.09092
2.07524
2.0598
2.0446
2.02967
2.015
2.00061
1.98649
1.97263
1.95904
1.9457
1.9326
1.91972
1.90705
1.89456
1.88223
1.87004
1.85797
1.846
1.83409
1.82224
1.81043
1.79863
1.78683
1.77503
1.7632
1.75136
1.73949
1.72761
1.71572
1.70383
1.69196
1.68015
1.66841
1.65679
1.64532
1.63407
1.62308
1.61241
1.60215
1.59235
1.58312
1.57453
1.56668
1.55968
1.55365
1.54868
1.54491
1.54246
1.54145
1.542
1.54423
1.54824
1.55413
1.56198
1.57186
1.58376
1.59779
1.61377
1.63205
1.65184
1.67346
1.70491
2.72298
2.70512
2.68726
2.6694
2.65155
2.63369
2.61584
2.59799
2.58015
2.56232
2.5445
2.52668
2.50888
2.49109
2.47331
2.45555
2.4378
2.42008
2.40237
2.38469
2.36703
2.3494
2.33178
2.31419
2.29662
2.27907
2.26154
2.24404
2.22655
2.20909
2.19167
2.17431
2.15701
2.13979
2.12265
2.1056
2.08864
2.07179
2.05505
2.03844
2.02196
2.00562
1.98944
1.9734
1.95753
1.94182
1.92627
1.91089
1.89566
1.88059
1.86568
1.85091
1.83628
1.82177
1.80738
1.79311
1.77893
1.76485
1.75084
1.73692
1.72306
1.70926
1.69552
1.68184
1.66821
1.65464
1.64113
1.62769
1.61433
1.60105
1.58789
1.57484
1.56195
1.54922
1.53671
1.52443
1.51243
1.50075
1.48945
1.47858
1.4682
1.45838
1.4492
1.44074
1.43308
1.42632
1.42056
1.41589
1.41241
1.41023
1.40945
1.41015
1.41242
1.4163
1.4219
1.42911
1.43829
1.4487
1.46103
1.47919
2.72156
2.70356
2.68555
2.66753
2.64951
2.63148
2.61344
2.5954
2.57737
2.55933
2.5413
2.52327
2.50524
2.48723
2.46922
2.45122
2.43324
2.41527
2.39732
2.37938
2.36147
2.34357
2.3257
2.30785
2.29001
2.2722
2.2544
2.23663
2.2189
2.20119
2.18351
2.16588
2.14829
2.13075
2.11326
2.09584
2.07847
2.06118
2.04396
2.02681
2.00975
1.99278
1.9759
1.95912
1.94244
1.92586
1.9094
1.89304
1.87679
1.86066
1.84464
1.82873
1.81294
1.79724
1.78166
1.76618
1.75079
1.73551
1.72031
1.70521
1.69018
1.67525
1.66039
1.64562
1.63093
1.61631
1.60178
1.58734
1.57298
1.55872
1.54456
1.53051
1.51658
1.50279
1.48915
1.47568
1.46241
1.44934
1.43653
1.42399
1.41176
1.39989
1.38843
1.37742
1.36693
1.35702
1.34775
1.33921
1.33147
1.32461
1.31873
1.31389
1.31019
1.30769
1.3065
1.30656
1.30821
1.31076
1.31533
1.32201
2.72094
2.70288
2.68479
2.6667
2.64859
2.63047
2.61234
2.59421
2.57607
2.55793
2.53978
2.52163
2.50349
2.48534
2.4672
2.44907
2.43094
2.41283
2.39472
2.37663
2.35856
2.3405
2.32246
2.30444
2.28644
2.26845
2.25048
2.23253
2.2146
2.1967
2.17885
2.16103
2.14327
2.12555
2.10787
2.09025
2.07268
2.05517
2.03772
2.02033
2.003
1.98573
1.96854
1.95142
1.93437
1.9174
1.90052
1.88371
1.867
1.85036
1.83382
1.81737
1.80101
1.78474
1.76856
1.75247
1.73648
1.72058
1.70476
1.68904
1.6734
1.65785
1.64239
1.62702
1.61173
1.59652
1.5814
1.56637
1.55142
1.53657
1.5218
1.50713
1.49256
1.4781
1.46375
1.44952
1.43542
1.42147
1.40768
1.39406
1.38065
1.36745
1.35451
1.34184
1.32949
1.3175
1.30591
1.29477
1.28413
1.27405
1.2646
1.25584
1.24784
1.24066
1.23441
1.22903
1.22487
1.22123
1.21971
1.21695
2.72058
2.70248
2.68436
2.66623
2.64808
2.62992
2.61175
2.59356
2.57537
2.55717
2.53897
2.52076
2.50255
2.48434
2.46613
2.44792
2.42972
2.41152
2.39334
2.37516
2.35699
2.33884
2.3207
2.30258
2.28447
2.26638
2.2483
2.23026
2.21224
2.19425
2.17629
2.15838
2.1405
2.12267
2.10489
2.08715
2.06946
2.05183
2.03425
2.01672
1.99925
1.98184
1.96449
1.94721
1.92999
1.91283
1.89575
1.87873
1.86179
1.84493
1.82814
1.81144
1.79481
1.77826
1.7618
1.74542
1.72913
1.71292
1.6968
1.68077
1.66482
1.64896
1.63319
1.6175
1.60189
1.58637
1.57094
1.55559
1.54032
1.52513
1.51003
1.49501
1.48008
1.46523
1.45047
1.43581
1.42124
1.40677
1.39241
1.37817
1.36406
1.35008
1.33627
1.32262
1.30917
1.29593
1.28293
1.2702
1.25777
1.24568
1.23397
1.22267
1.21186
1.20154
1.19184
1.18267
1.1744
1.16626
1.16033
1.15026
2.72037
2.70226
2.68412
2.66597
2.6478
2.62962
2.61143
2.59322
2.57501
2.55678
2.53855
2.52031
2.50207
2.48383
2.46558
2.44734
2.4291
2.41086
2.39263
2.3744
2.35619
2.33798
2.31979
2.30161
2.28344
2.26529
2.24715
2.22903
2.21093
2.19287
2.17485
2.15687
2.13893
2.12103
2.10318
2.08538
2.06762
2.04991
2.03226
2.01466
1.99711
1.97963
1.9622
1.94483
1.92752
1.91027
1.8931
1.87598
1.85894
1.84197
1.82507
1.80824
1.79149
1.77481
1.75822
1.7417
1.72527
1.70892
1.69265
1.67647
1.66037
1.64436
1.62843
1.61259
1.59683
1.58115
1.56556
1.55005
1.53461
1.51926
1.50398
1.48879
1.47366
1.45862
1.44365
1.42875
1.41393
1.39919
1.38453
1.36996
1.35547
1.34109
1.3268
1.31262
1.29857
1.28465
1.27087
1.25725
1.24381
1.23057
1.21755
1.20476
1.19226
1.18004
1.1682
1.15664
1.14572
1.13459
1.12577
1.11053
2.7202
2.70207
2.68393
2.66576
2.64759
2.62939
2.61119
2.59297
2.57474
2.5565
2.53826
2.52001
2.50175
2.48349
2.46522
2.44696
2.4287
2.41044
2.39218
2.37394
2.3557
2.33746
2.31924
2.30103
2.28283
2.26464
2.24647
2.22833
2.21021
2.19212
2.17407
2.15605
2.13807
2.12013
2.10224
2.08439
2.06659
2.04884
2.03114
2.01349
1.9959
1.97836
1.96089
1.94347
1.92611
1.90881
1.89158
1.87442
1.85732
1.84029
1.82333
1.80644
1.78963
1.7729
1.75624
1.73966
1.72316
1.70675
1.69042
1.67417
1.658
1.64192
1.62592
1.61001
1.59418
1.57843
1.56277
1.54718
1.53168
1.51625
1.5009
1.48562
1.47041
1.45527
1.44021
1.42521
1.41028
1.39541
1.38061
1.36588
1.35122
1.33663
1.32212
1.30769
1.29333
1.27907
1.2649
1.25083
1.23687
1.22303
1.20931
1.19573
1.18231
1.16904
1.15599
1.14306
1.13058
1.11766
1.10712
1.08856
2.72006
2.70193
2.68377
2.66561
2.64742
2.62922
2.61101
2.59279
2.57455
2.55631
2.53805
2.51979
2.50153
2.48326
2.46499
2.44672
2.42844
2.41017
2.39191
2.37365
2.35539
2.33715
2.31891
2.30068
2.28246
2.26425
2.24606
2.2279
2.20976
2.19165
2.17358
2.15554
2.13754
2.11958
2.10166
2.08378
2.06596
2.04818
2.03045
2.01278
1.99515
1.97759
1.96008
1.94263
1.92525
1.90792
1.89066
1.87347
1.85634
1.83928
1.82229
1.80538
1.78854
1.77178
1.75509
1.73849
1.72196
1.70552
1.68916
1.67288
1.65669
1.64058
1.62456
1.60863
1.59277
1.57701
1.56132
1.54572
1.53019
1.51474
1.49937
1.48407
1.46884
1.45368
1.43859
1.42356
1.40859
1.39369
1.37885
1.36406
1.34934
1.33468
1.32008
1.30555
1.29108
1.27668
1.26234
1.24807
1.23388
1.21975
1.20571
1.19174
1.17786
1.16406
1.15039
1.13674
1.12345
1.10954
1.09809
1.07761
2.71994
2.7018
2.68365
2.66547
2.64728
2.62908
2.61086
2.59263
2.57439
2.55614
2.53789
2.51962
2.50135
2.48308
2.4648
2.44652
2.42824
2.40997
2.3917
2.37343
2.35517
2.33691
2.31866
2.30043
2.2822
2.26398
2.24578
2.2276
2.20946
2.19134
2.17325
2.1552
2.13719
2.11921
2.10128
2.08339
2.06555
2.04776
2.03001
2.01232
1.99468
1.97709
1.95957
1.9421
1.92469
1.90735
1.89007
1.87286
1.85572
1.83864
1.82164
1.80471
1.78786
1.77109
1.75439
1.73778
1.72124
1.70479
1.68843
1.67215
1.65596
1.63985
1.62384
1.6079
1.59206
1.5763
1.56062
1.54503
1.52952
1.51408
1.49873
1.48344
1.46823
1.45309
1.43802
1.42301
1.40806
1.39317
1.37834
1.36357
1.34886
1.33421
1.31961
1.30507
1.29058
1.27615
1.26178
1.24746
1.23319
1.21897
1.2048
1.19068
1.17661
1.16258
1.14863
1.13464
1.12096
1.10656
1.09469
1.0732
2.71983
2.70169
2.68353
2.66535
2.64716
2.62895
2.61073
2.5925
2.57425
2.556
2.53774
2.51947
2.50119
2.48292
2.46463
2.44635
2.42807
2.40979
2.39151
2.37324
2.35497
2.33671
2.31846
2.30021
2.28197
2.26376
2.24556
2.22738
2.20923
2.19111
2.17302
2.15497
2.13694
2.11896
2.10102
2.08312
2.06527
2.04746
2.0297
2.012
1.99435
1.97675
1.95921
1.94174
1.92432
1.90697
1.88968
1.87246
1.85531
1.83823
1.82122
1.80429
1.78744
1.77067
1.75397
1.73736
1.72084
1.7044
1.68804
1.67178
1.6556
1.63952
1.62352
1.60761
1.59179
1.57606
1.56042
1.54486
1.52939
1.514