/*--------------------------------*- C++ -*----------------------------------*\
| =========                 |                                                 |
| \\      /  F ield         | OpenFOAM: The Open Source CFD Toolbox           |
|  \\    /   O peration     | Version:  4.1                                   |
|   \\  /    A nd           | Web:      www.OpenFOAM.org                      |
|    \\/     M anipulation  |                                                 |
\*---------------------------------------------------------------------------*/
FoamFile
{
    version     2.0;
    format      ascii;
    class       volScalarField;
    location    "1000";
    object      k;
}
// * * * * * * * * * * * * * * * * * * * * * * * * * * * * * * * * * * * * * //

dimensions      [0 2 -2 0 0 0 0];

internalField   nonuniform List<scalar> 
6820
(
0.241787
0.289665
0.336844
0.381951
0.423953
0.46211
0.495948
0.525265
0.550093
0.57064
0.587232
0.60026
0.610145
0.617305
0.622142
0.625026
0.626287
0.62622
0.625078
0.623081
0.620414
0.617234
0.613671
0.609834
0.605812
0.601679
0.597494
0.593307
0.589155
0.585072
0.581074
0.577259
0.574892
0.202474
0.204679
0.206995
0.209467
0.212041
0.214681
0.217362
0.220056
0.222733
0.22537
0.227954
0.230479
0.232942
0.235349
0.237707
0.240025
0.242313
0.24458
0.246836
0.249089
0.251344
0.253607
0.255883
0.258175
0.260482
0.262807
0.265146
0.2675
0.269864
0.272236
0.274614
0.276992
0.27989
0.199741
0.199215
0.198471
0.197596
0.196619
0.195573
0.194483
0.193366
0.192235
0.191099
0.18997
0.188855
0.187761
0.186695
0.185662
0.184667
0.183716
0.182812
0.181958
0.181158
0.180414
0.179725
0.17909
0.17851
0.177983
0.177509
0.177086
0.176713
0.176388
0.176112
0.175879
0.175696
0.175594
0.199153
0.198176
0.197113
0.195992
0.194809
0.193571
0.192297
0.191001
0.189694
0.188384
0.187078
0.185782
0.184501
0.183238
0.181997
0.180781
0.179591
0.178431
0.177301
0.176204
0.17514
0.17411
0.173114
0.172153
0.171225
0.170332
0.169471
0.168644
0.167849
0.167087
0.166355
0.165653
0.164982
0.198981
0.1979
0.196807
0.195699
0.194559
0.193388
0.192197
0.190994
0.189785
0.188574
0.187366
0.186167
0.184978
0.183802
0.182643
0.181503
0.180382
0.179283
0.178206
0.177153
0.176124
0.175121
0.174143
0.17319
0.172263
0.171361
0.170485
0.169633
0.168807
0.168005
0.167226
0.166471
0.165731
0.198926
0.197795
0.196678
0.195576
0.194473
0.193363
0.192249
0.191134
0.190019
0.188909
0.187806
0.186711
0.185628
0.184558
0.183504
0.182465
0.181444
0.180441
0.179457
0.178492
0.177548
0.176624
0.17572
0.174837
0.173974
0.173133
0.172312
0.171511
0.17073
0.169969
0.169228
0.168505
0.167791
0.198906
0.197755
0.196631
0.195537
0.194463
0.193399
0.192342
0.191294
0.190254
0.189222
0.188201
0.187192
0.186194
0.18521
0.184241
0.183286
0.182348
0.181426
0.180521
0.179633
0.178762
0.177909
0.177075
0.176258
0.175459
0.174677
0.173914
0.173168
0.17244
0.171729
0.171035
0.170356
0.169684
0.1989
0.19774
0.196611
0.195517
0.194452
0.193408
0.192382
0.191373
0.19038
0.189401
0.188437
0.187487
0.186552
0.185631
0.184727
0.183837
0.182964
0.182107
0.181266
0.180441
0.179633
0.178841
0.178066
0.177307
0.176564
0.175838
0.175127
0.174433
0.173754
0.173091
0.172443
0.171808
0.171178
0.198897
0.197734
0.196603
0.195508
0.194448
0.193415
0.192408
0.191424
0.19046
0.189517
0.188591
0.187683
0.186792
0.185919
0.185061
0.184221
0.183396
0.182588
0.181796
0.18102
0.18026
0.179516
0.178787
0.178074
0.177376
0.176694
0.176026
0.175373
0.174735
0.174111
0.173501
0.172903
0.17231
0.198896
0.197732
0.1966
0.195505
0.194445
0.193417
0.192417
0.191444
0.190496
0.189571
0.188668
0.187785
0.186923
0.186079
0.185254
0.184446
0.183657
0.182884
0.182128
0.181388
0.180664
0.179956
0.179264
0.178587
0.177925
0.177278
0.176645
0.176026
0.175422
0.174831
0.174253
0.173687
0.173124
0.198896
0.197731
0.196599
0.195504
0.194444
0.193417
0.192421
0.191454
0.190514
0.1896
0.18871
0.187844
0.186999
0.186175
0.185371
0.184587
0.183821
0.183073
0.182342
0.181629
0.180931
0.18025
0.179585
0.178935
0.1783
0.177679
0.177073
0.17648
0.175902
0.175336
0.174784
0.174242
0.173704
0.198896
0.19773
0.196599
0.195504
0.194444
0.193418
0.192423
0.191458
0.190521
0.189612
0.188729
0.18787
0.187035
0.186222
0.18543
0.184659
0.183908
0.183176
0.182462
0.181765
0.181086
0.180423
0.179777
0.179146
0.17853
0.177929
0.177342
0.176769
0.17621
0.175664
0.175131
0.174609
0.174091
0.198896
0.19773
0.196599
0.195504
0.194444
0.193418
0.192424
0.19146
0.190525
0.189618
0.188738
0.187884
0.187054
0.186247
0.185463
0.1847
0.183958
0.183235
0.182532
0.181847
0.181179
0.180529
0.179895
0.179277
0.178675
0.178088
0.177515
0.176956
0.176411
0.175879
0.17536
0.174852
0.174348
0.198896
0.19773
0.196599
0.195504
0.194445
0.193419
0.192425
0.191461
0.190527
0.189621
0.188743
0.18789
0.187062
0.186259
0.185478
0.184719
0.183981
0.183264
0.182567
0.181888
0.181227
0.180584
0.179958
0.179349
0.178755
0.178176
0.177612
0.177063
0.176528
0.176006
0.175496
0.174998
0.174504
0.198896
0.19773
0.196599
0.195505
0.194445
0.193419
0.192425
0.191462
0.190528
0.189623
0.188745
0.187893
0.187067
0.186265
0.185486
0.184729
0.183994
0.18328
0.182586
0.181911
0.181254
0.180616
0.179995
0.17939
0.178802
0.178229
0.177671
0.177127
0.176598
0.176082
0.17558
0.175088
0.174601
0.198896
0.19773
0.196599
0.195505
0.194446
0.19342
0.192426
0.191463
0.190529
0.189624
0.188747
0.187895
0.187069
0.186268
0.18549
0.184734
0.184
0.183288
0.182595
0.181922
0.181267
0.180631
0.180012
0.179411
0.178825
0.178255
0.177701
0.177161
0.176635
0.176123
0.175625
0.175137
0.174654
0.198896
0.19773
0.1966
0.195505
0.194446
0.19342
0.192426
0.191463
0.19053
0.189625
0.188748
0.187896
0.187071
0.18627
0.185492
0.184737
0.184004
0.183292
0.1826
0.181928
0.181275
0.18064
0.180023
0.179422
0.178838
0.17827
0.177718
0.17718
0.176657
0.176147
0.175651
0.175166
0.174686
0.198896
0.19773
0.1966
0.195505
0.194446
0.19342
0.192427
0.191464
0.19053
0.189626
0.188748
0.187897
0.187072
0.186271
0.185493
0.184739
0.184006
0.183294
0.182603
0.181931
0.181279
0.180644
0.180028
0.179428
0.178845
0.178278
0.177726
0.17719
0.176667
0.176159
0.175664
0.175181
0.174702
0.198896
0.197729
0.1966
0.195506
0.194446
0.193421
0.192427
0.191464
0.190531
0.189626
0.188749
0.187898
0.187073
0.186272
0.185494
0.18474
0.184007
0.183296
0.182605
0.181933
0.181281
0.180647
0.180031
0.179432
0.178849
0.178283
0.177732
0.177195
0.176674
0.176166
0.175672
0.17519
0.174712
0.198896
0.197729
0.1966
0.195506
0.194446
0.193421
0.192427
0.191464
0.190531
0.189627
0.188749
0.187899
0.187073
0.186272
0.185495
0.184741
0.184008
0.183297
0.182606
0.181935
0.181283
0.180649
0.180033
0.179434
0.178852
0.178285
0.177734
0.177199
0.176677
0.17617
0.175676
0.175194
0.174717
0.198896
0.197729
0.1966
0.195506
0.194447
0.193421
0.192427
0.191465
0.190532
0.189627
0.18875
0.187899
0.187074
0.186273
0.185496
0.184742
0.184009
0.183298
0.182607
0.181936
0.181284
0.18065
0.180034
0.179435
0.178853
0.178287
0.177737
0.177201
0.17668
0.176173
0.175679
0.175197
0.17472
0.198896
0.197729
0.1966
0.195506
0.194447
0.193421
0.192428
0.191465
0.190532
0.189627
0.18875
0.1879
0.187074
0.186274
0.185497
0.184742
0.18401
0.183299
0.182608
0.181937
0.181285
0.180651
0.180035
0.179437
0.178855
0.178288
0.177738
0.177202
0.176681
0.176174
0.175681
0.175199
0.174722
0.198896
0.197729
0.1966
0.195506
0.194447
0.193421
0.192428
0.191465
0.190532
0.189628
0.188751
0.1879
0.187075
0.186274
0.185497
0.184743
0.18401
0.183299
0.182608
0.181937
0.181285
0.180652
0.180036
0.179437
0.178855
0.178289
0.177739
0.177203
0.176683
0.176176
0.175682
0.1752
0.174723
0.198896
0.19773
0.1966
0.195506
0.194447
0.193421
0.192428
0.191465
0.190532
0.189628
0.188751
0.1879
0.187075
0.186274
0.185497
0.184743
0.184011
0.1833
0.182609
0.181938
0.181286
0.180652
0.180037
0.179438
0.178856
0.17829
0.17774
0.177204
0.176683
0.176176
0.175683
0.175201
0.174724
0.198896
0.197729
0.1966
0.195506
0.194447
0.193421
0.192428
0.191465
0.190532
0.189628
0.188751
0.1879
0.187075
0.186274
0.185497
0.184743
0.184011
0.1833
0.182609
0.181938
0.181286
0.180653
0.180037
0.179438
0.178856
0.17829
0.17774
0.177204
0.176683
0.176176
0.175683
0.175201
0.174724
0.198896
0.197729
0.1966
0.195506
0.194447
0.193421
0.192428
0.191465
0.190532
0.189628
0.188751
0.1879
0.187075
0.186274
0.185497
0.184743
0.184011
0.1833
0.182609
0.181938
0.181286
0.180653
0.180037
0.179438
0.178856
0.17829
0.17774
0.177204
0.176683
0.176177
0.175683
0.175201
0.174724
0.198896
0.197729
0.1966
0.195506
0.194447
0.193421
0.192428
0.191465
0.190532
0.189628
0.188751
0.1879
0.187075
0.186274
0.185497
0.184743
0.18401
0.183299
0.182608
0.181937
0.181285
0.180652
0.180036
0.179437
0.178855
0.178289
0.177738
0.177203
0.176682
0.176175
0.175681
0.175199
0.174722
0.198896
0.197729
0.1966
0.195506
0.194447
0.193421
0.192428
0.191465
0.190532
0.189628
0.188751
0.1879
0.187075
0.186274
0.185497
0.184743
0.18401
0.183299
0.182608
0.181937
0.181285
0.180652
0.180036
0.179437
0.178855
0.178289
0.177738
0.177203
0.176682
0.176175
0.175681
0.175199
0.174722
0.198896
0.197729
0.1966
0.195506
0.194447
0.193421
0.192428
0.191465
0.190532
0.189627
0.18875
0.187899
0.187074
0.186273
0.185496
0.184741
0.184009
0.183297
0.182606
0.181935
0.181283
0.180649
0.180033
0.179434
0.178852
0.178285
0.177735
0.177199
0.176678
0.176171
0.175677
0.175195
0.174718
0.198896
0.197729
0.1966
0.195506
0.194447
0.193421
0.192427
0.191465
0.190532
0.189627
0.18875
0.187899
0.187074
0.186273
0.185496
0.184742
0.184009
0.183298
0.182607
0.181936
0.181283
0.18065
0.180034
0.179435
0.178852
0.178286
0.177735
0.177199
0.176678
0.176171
0.175677
0.175195
0.174717
0.198896
0.197729
0.1966
0.195506
0.194447
0.193421
0.192427
0.191464
0.190531
0.189626
0.188749
0.187898
0.187072
0.186271
0.185493
0.184738
0.184005
0.183294
0.182602
0.181931
0.181278
0.180644
0.180028
0.179428
0.178846
0.178279
0.177728
0.177192
0.17667
0.176162
0.175668
0.175185
0.174708
0.198896
0.197729
0.1966
0.195506
0.194446
0.193421
0.192427
0.191464
0.190531
0.189627
0.18875
0.187899
0.187074
0.186273
0.185496
0.184741
0.184008
0.183297
0.182605
0.181934
0.181281
0.180646
0.18003
0.17943
0.178847
0.17828
0.177728
0.177191
0.176669
0.176161
0.175666
0.175182
0.174704
0.198896
0.19773
0.1966
0.195505
0.194446
0.19342
0.192426
0.191462
0.190528
0.189623
0.188745
0.187893
0.187067
0.186265
0.185487
0.184732
0.183998
0.183286
0.182594
0.181921
0.181267
0.180632
0.180014
0.179413
0.178829
0.178261
0.177708
0.17717
0.176646
0.176136
0.175639
0.175154
0.174674
0.198896
0.19773
0.1966
0.195506
0.194447
0.193422
0.192429
0.191467
0.190534
0.18963
0.188753
0.187901
0.187075
0.186274
0.185495
0.184739
0.184004
0.183291
0.182597
0.181923
0.181267
0.180629
0.180009
0.179405
0.178818
0.178247
0.17769
0.177149
0.176621
0.176108
0.175607
0.175118
0.174633
0.198896
0.19773
0.1966
0.195504
0.194443
0.193416
0.192421
0.191457
0.190522
0.189617
0.188738
0.187885
0.187057
0.186253
0.185472
0.184713
0.183975
0.183258
0.18256
0.181881
0.181221
0.180578
0.179952
0.179343
0.17875
0.178172
0.177609
0.177061
0.176527
0.176007
0.175499
0.175004
0.174512
0.198897
0.197733
0.196606
0.195516
0.194462
0.193441
0.19245
0.191489
0.190556
0.18965
0.18877
0.187914
0.187082
0.186273
0.185486
0.18472
0.183974
0.183248
0.182541
0.181852
0.181181
0.180527
0.17989
0.17927
0.178665
0.178075
0.1775
0.17694
0.176393
0.17586
0.175341
0.174832
0.174328
0.1989
0.197735
0.196605
0.195515
0.194465
0.193449
0.192464
0.191508
0.190579
0.189676
0.188796
0.187939
0.187104
0.186291
0.185497
0.184724
0.18397
0.183235
0.182518
0.181819
0.181138
0.180473
0.179825
0.179193
0.178577
0.177976
0.177391
0.176819
0.176262
0.175719
0.175189
0.174672
0.174158
0.198944
0.197852
0.196795
0.195774
0.194787
0.193827
0.192894
0.191986
0.191101
0.190238
0.189397
0.188577
0.187778
0.186998
0.186237
0.185495
0.184771
0.184066
0.183378
0.182708
0.182054
0.181417
0.180797
0.180192
0.179603
0.179029
0.178471
0.177927
0.177397
0.176881
0.176379
0.175889
0.175406
0.199227
0.198572
0.198048
0.197613
0.197233
0.196892
0.196584
0.196305
0.196052
0.195821
0.19561
0.195418
0.195243
0.195084
0.194942
0.194813
0.194699
0.194597
0.194508
0.194431
0.194364
0.194308
0.194261
0.194224
0.194195
0.194174
0.194162
0.194156
0.194157
0.194164
0.194178
0.194197
0.194225
0.209515
0.220347
0.230808
0.24093
0.250733
0.260233
0.269438
0.278351
0.286978
0.295321
0.303382
0.311166
0.318675
0.325913
0.332885
0.339595
0.346049
0.352252
0.35821
0.363929
0.369416
0.374677
0.379719
0.38455
0.389175
0.393602
0.397838
0.401889
0.405764
0.409467
0.413007
0.416391
0.419648
0.644258
0.805082
0.984479
1.16996
1.33647
1.47317
1.57919
1.65841
1.7168
1.76016
1.79287
1.81768
1.83662
1.85104
1.86173
1.86907
1.87287
1.87354
1.87079
1.8649
1.85632
1.84556
1.83316
1.81966
1.80559
1.79144
1.77762
1.76446
1.75223
1.7411
1.73121
1.72268
1.71556
1.70985
1.70554
1.70253
1.70073
1.69998
1.70012
1.70096
1.70229
1.7039
1.70558
1.70712
1.70831
1.70893
1.70881
1.70775
1.70559
1.70218
1.69739
1.69111
1.68326
1.67376
1.66256
1.64965
1.63502
1.61869
1.60071
1.58112
1.56002
1.53751
1.5137
1.48872
1.46273
1.43588
1.40834
1.38029
1.35191
1.32337
1.29487
1.26658
1.23867
1.21131
1.18466
1.15884
1.13399
1.11018
1.0875
1.06598
1.04564
1.02648
1.00849
0.99164
0.975895
0.961195
0.947474
0.934654
0.922649
0.911365
0.900707
0.890573
0.880872
0.871513
0.862471
0.853714
0.845521
0.838063
0.832758
0.829688
0.287841
0.307519
0.34216
0.39611
0.468652
0.556223
0.652979
0.752616
0.849878
0.941056
1.02402
1.09793
1.16298
1.21994
1.2698
1.31345
1.35139
1.38397
1.41195
1.43563
1.4553
1.47126
1.48385
1.49345
1.50047
1.50535
1.50851
1.51033
1.51117
1.51132
1.51107
1.51064
1.51023
1.50999
1.51001
1.51038
1.5111
1.51216
1.51349
1.51503
1.51665
1.51824
1.51965
1.52074
1.52135
1.52134
1.52055
1.51885
1.5161
1.5122
1.50703
1.50052
1.49261
1.48323
1.47237
1.46002
1.44618
1.43087
1.41416
1.39609
1.37676
1.35626
1.3347
1.3122
1.28892
1.26499
1.24058
1.21583
1.19092
1.166
1.14124
1.11679
1.0928
1.06941
1.04675
1.02492
1.00404
0.984158
0.965343
0.94762
0.930999
0.915473
0.901023
0.887618
0.875214
0.863755
0.853176
0.843402
0.834353
0.825939
0.81807
0.810651
0.803598
0.796824
0.790305
0.784011
0.778187
0.772977
0.769588
0.767952
0.175883
0.177379
0.180712
0.187102
0.197762
0.213718
0.236281
0.266322
0.30396
0.348548
0.399029
0.45404
0.512092
0.571731
0.631659
0.690742
0.747969
0.802296
0.85353
0.901453
0.945906
0.986782
1.02403
1.05768
1.08782
1.11462
1.1383
1.15909
1.17729
1.19318
1.20703
1.21913
1.22974
1.2391
1.24742
1.25488
1.26163
1.26776
1.27336
1.27845
1.28304
1.28711
1.29063
1.29354
1.29576
1.29721
1.29781
1.29747
1.29611
1.29365
1.29002
1.28516
1.27903
1.27159
1.26283
1.25274
1.24134
1.22867
1.21476
1.19969
1.18352
1.16637
1.14832
1.12951
1.11005
1.09009
1.06977
1.04922
1.02859
1.00802
0.987645
0.967602
0.948015
0.928999
0.91066
0.893092
0.876374
0.860566
0.84571
0.831828
0.818924
0.806991
0.796009
0.785946
0.77676
0.768401
0.760809
0.753917
0.747649
0.741926
0.736665
0.731779
0.727192
0.722825
0.718654
0.714651
0.71103
0.707905
0.706285
0.705943
0.164172
0.163488
0.163038
0.16304
0.163751
0.165459
0.168527
0.173355
0.180333
0.189998
0.202774
0.219001
0.238948
0.262769
0.290477
0.321908
0.356678
0.394163
0.433606
0.474413
0.515946
0.557566
0.598663
0.638688
0.677184
0.713794
0.748267
0.780444
0.810251
0.837687
0.862805
0.885707
0.906525
0.925415
0.942541
0.958067
0.972147
0.984923
0.996515
1.00702
1.01651
1.02505
1.03265
1.03933
1.04509
1.04991
1.05374
1.05656
1.05832
1.05898
1.05849
1.05683
1.05398
1.0499
1.0446
1.03809
1.03039
1.02154
1.01158
1.00057
0.988605
0.975756
0.962127
0.947825
0.932965
0.917666
0.902051
0.886243
0.870366
0.854539
0.83888
0.823501
0.808505
0.793992
0.78005
0.766757
0.754178
0.742367
0.731357
0.72117
0.711811
0.703272
0.695537
0.688581
0.682368
0.676854
0.671989
0.667713
0.663962
0.660667
0.657754
0.655148
0.652778
0.650575
0.648518
0.646579
0.644943
0.643691
0.643651
0.644443
0.164797
0.163875
0.162998
0.162212
0.161573
0.161149
0.161034
0.161341
0.162195
0.163748
0.166181
0.169688
0.174467
0.180727
0.18868
0.198534
0.210473
0.224621
0.240991
0.259616
0.280453
0.303377
0.328174
0.354552
0.382153
0.410581
0.439426
0.468288
0.4968
0.524644
0.551558
0.57734
0.601852
0.625006
0.646762
0.667119
0.686099
0.703745
0.720109
0.735245
0.749206
0.762037
0.773778
0.784454
0.794084
0.802672
0.810217
0.816709
0.822133
0.826472
0.829708
0.831826
0.832816
0.832675
0.831409
0.82903
0.825564
0.821048
0.815526
0.809058
0.80171
0.79356
0.784694
0.775204
0.765188
0.754748
0.743989
0.733015
0.721931
0.710837
0.699831
0.689009
0.678459
0.668263
0.658498
0.649229
0.640515
0.632403
0.624925
0.618102
0.611943
0.606447
0.601603
0.597394
0.593792
0.590764
0.58827
0.58626
0.584683
0.583479
0.582586
0.581939
0.581477
0.58114
0.580908
0.580755
0.580837
0.581205
0.582518
0.584262
0.166889
0.165976
0.165066
0.164173
0.163312
0.162504
0.161777
0.16117
0.160729
0.160505
0.160562
0.160974
0.16182
0.163187
0.165168
0.167861
0.17137
0.175794
0.181215
0.187723
0.195407
0.204346
0.2146
0.226205
0.239162
0.253434
0.268939
0.285555
0.303121
0.321446
0.340321
0.359527
0.378853
0.398099
0.417088
0.435669
0.453716
0.471132
0.487842
0.503794
0.518948
0.533278
0.546767
0.559399
0.571162
0.582045
0.592034
0.601115
0.609271
0.616486
0.622744
0.628034
0.632345
0.635674
0.638022
0.6394
0.639826
0.639326
0.637937
0.635703
0.632677
0.62892
0.624501
0.619494
0.613977
0.608034
0.601749
0.595207
0.588495
0.581694
0.574889
0.568156
0.56157
0.555203
0.549119
0.543376
0.538027
0.533114
0.52867
0.52472
0.521276
0.518344
0.515922
0.513998
0.512557
0.511576
0.511024
0.510865
0.511056
0.511551
0.512299
0.513244
0.514336
0.515522
0.516785
0.518101
0.519598
0.521299
0.523709
0.526204
0.168835
0.167969
0.1671
0.16623
0.165369
0.16452
0.163693
0.162901
0.16216
0.161491
0.160917
0.160469
0.160182
0.160095
0.160251
0.160697
0.161482
0.162654
0.164262
0.166348
0.168962
0.172151
0.175964
0.180445
0.185636
0.191572
0.198279
0.205771
0.214045
0.223085
0.232854
0.243297
0.254344
0.265909
0.277896
0.290203
0.302725
0.315357
0.328
0.340561
0.352954
0.365103
0.376938
0.388399
0.399432
0.409986
0.420018
0.429487
0.438353
0.446583
0.454144
0.46101
0.467156
0.472565
0.477223
0.481127
0.484278
0.486685
0.488365
0.489345
0.489655
0.489338
0.488439
0.48701
0.48511
0.482798
0.480139
0.477198
0.474041
0.470735
0.467345
0.463935
0.460566
0.457297
0.454183
0.451277
0.448624
0.446265
0.444232
0.442551
0.44124
0.44031
0.439766
0.439606
0.439823
0.440402
0.441323
0.442562
0.444087
0.44586
0.447841
0.449986
0.452253
0.454597
0.457003
0.459447
0.462034
0.46476
0.467996
0.471032
0.170384
0.169571
0.168753
0.16793
0.167106
0.166282
0.16546
0.164646
0.163847
0.16307
0.162326
0.161627
0.160989
0.16043
0.15997
0.159633
0.159443
0.159428
0.159616
0.160032
0.160701
0.161652
0.162909
0.164498
0.166444
0.168769
0.171495
0.17464
0.178221
0.182248
0.186731
0.191669
0.197059
0.202888
0.209138
0.215784
0.222791
0.230122
0.237732
0.245574
0.253596
0.261745
0.269967
0.278209
0.286417
0.294538
0.302521
0.310317
0.317877
0.325155
0.332109
0.338697
0.344883
0.350635
0.355924
0.36073
0.365034
0.368828
0.372109
0.374881
0.377154
0.378945
0.380278
0.381183
0.381694
0.381849
0.381691
0.381264
0.380616
0.379795
0.37885
0.37783
0.376782
0.375754
0.374793
0.373941
0.373238
0.372721
0.372421
0.372364
0.372572
0.373058
0.373834
0.374903
0.376266
0.377916
0.379843
0.382028
0.384451
0.387084
0.389895
0.392849
0.395913
0.399049
0.402243
0.405474
0.408821
0.412262
0.416051
0.419421
0.171562
0.170796
0.170024
0.169247
0.168465
0.167679
0.166891
0.166103
0.165316
0.164535
0.163764
0.163006
0.162269
0.161561
0.160892
0.160272
0.159716
0.159237
0.158851
0.158576
0.158426
0.158419
0.158571
0.158899
0.159419
0.160144
0.161089
0.162265
0.163685
0.165358
0.167291
0.169492
0.171964
0.174712
0.177734
0.181029
0.184592
0.188415
0.192488
0.196796
0.201324
0.206052
0.210956
0.216013
0.221195
0.226472
0.231814
0.237187
0.242557
0.247889
0.253147
0.258297
0.263303
0.268133
0.272755
0.277142
0.281269
0.285115
0.288664
0.291906
0.294834
0.297448
0.299754
0.30176
0.303481
0.304937
0.30615
0.307148
0.307957
0.308611
0.309143
0.309586
0.309976
0.310348
0.310738
0.31118
0.311708
0.312353
0.313142
0.3141
0.315249
0.316605
0.318182
0.319987
0.322026
0.324298
0.326798
0.329517
0.33244
0.335548
0.338817
0.34222
0.345729
0.349316
0.352966
0.35666
0.360457
0.364316
0.368401
0.371911
0.172416
0.17169
0.170959
0.170221
0.169479
0.168731
0.16798
0.167224
0.166466
0.165707
0.164948
0.164191
0.16344
0.162697
0.161967
0.161255
0.160569
0.159915
0.159302
0.158739
0.158237
0.157806
0.157456
0.157199
0.157046
0.157007
0.157093
0.157312
0.157674
0.158185
0.158853
0.159682
0.160678
0.161844
0.163182
0.164695
0.166383
0.168246
0.170282
0.172489
0.174863
0.177399
0.180089
0.182926
0.185899
0.188998
0.192208
0.195515
0.198901
0.202348
0.205836
0.209342
0.212846
0.216323
0.21975
0.223106
0.226368
0.229516
0.232533
0.235403
0.238114
0.240657
0.243026
0.24522
0.247241
0.249095
0.25079
0.252339
0.253757
0.255062
0.256274
0.257414
0.258507
0.259577
0.26065
0.261752
0.262908
0.264144
0.265483
0.266947
0.268556
0.270325
0.272269
0.274398
0.276721
0.27924
0.281955
0.284862
0.287951
0.29121
0.294622
0.298166
0.301821
0.305562
0.309379
0.31325
0.31722
0.321236
0.32539
0.328874
0.173028
0.172334
0.171635
0.170931
0.170221
0.169507
0.168787
0.168063
0.167336
0.166604
0.16587
0.165134
0.164396
0.16366
0.162925
0.162195
0.161473
0.160763
0.160068
0.159394
0.158747
0.158133
0.157558
0.15703
0.156556
0.156143
0.1558
0.155533
0.155349
0.155254
0.155254
0.155354
0.155559
0.155871
0.156295
0.156832
0.157484
0.158253
0.159139
0.160142
0.161262
0.162498
0.163848
0.16531
0.166881
0.168557
0.170333
0.172204
0.174162
0.176199
0.178305
0.180472
0.182686
0.184935
0.187205
0.189483
0.191754
0.194005
0.196221
0.19839
0.2005
0.202542
0.204507
0.206391
0.208188
0.209899
0.211525
0.21307
0.214541
0.215945
0.217295
0.218603
0.219883
0.221153
0.222429
0.223731
0.225077
0.226486
0.227978
0.22957
0.23128
0.233123
0.235111
0.237257
0.239569
0.242053
0.244711
0.247543
0.250544
0.253706
0.257017
0.260462
0.264024
0.267684
0.271433
0.27525
0.279168
0.283123
0.287161
0.290488
0.173439
0.172772
0.172099
0.171421
0.170738
0.170051
0.169359
0.168662
0.167961
0.167256
0.166547
0.165834
0.165117
0.164398
0.163677
0.162955
0.162234
0.161514
0.160799
0.160091
0.159393
0.158709
0.158042
0.157396
0.156777
0.156189
0.155638
0.155127
0.154663
0.154251
0.153894
0.153598
0.153366
0.153203
0.15311
0.153091
0.153149
0.153284
0.153498
0.153792
0.154168
0.154625
0.155163
0.155782
0.156481
0.157259
0.158116
0.159048
0.160053
0.161129
0.16227
0.163473
0.164733
0.166043
0.167396
0.168786
0.170203
0.17164
0.173089
0.17454
0.175987
0.177421
0.178835
0.180225
0.181586
0.182914
0.18421
0.185472
0.186703
0.187907
0.189089
0.190257
0.19142
0.192587
0.193771
0.194984
0.196241
0.197555
0.198942
0.200417
0.201993
0.203683
0.205501
0.207457
0.209561
0.211818
0.214235
0.216812
0.219548
0.222439
0.225477
0.228651
0.23195
0.235357
0.238865
0.242455
0.246149
0.24988
0.253662
0.25674
0.173715
0.173067
0.172414
0.171756
0.171094
0.170428
0.169757
0.169082
0.168403
0.16772
0.167032
0.166341
0.165645
0.164946
0.164243
0.163537
0.162829
0.162119
0.161408
0.160698
0.15999
0.159286
0.158588
0.157899
0.15722
0.156557
0.15591
0.155285
0.154683
0.15411
0.153568
0.153061
0.152592
0.152163
0.151779
0.151441
0.151153
0.150915
0.150729
0.150598
0.150522
0.150502
0.150538
0.150632
0.150784
0.150993
0.151259
0.151583
0.151962
0.152397
0.152885
0.153426
0.154016
0.154653
0.155335
0.156057
0.156815
0.157606
0.158425
0.159266
0.160126
0.161
0.161882
0.16277
0.163659
0.164547
0.165433
0.166315
0.167194
0.168071
0.16895
0.169834
0.170728
0.17164
0.172577
0.173549
0.174564
0.175635
0.176773
0.177988
0.179294
0.180701
0.182221
0.183865
0.185641
0.187556
0.189618
0.191829
0.19419
0.196701
0.199356
0.202149
0.205071
0.208111
0.211261
0.214505
0.217856
0.221249
0.224681
0.227452
0.173885
0.17325
0.172612
0.171969
0.171323
0.170672
0.170018
0.16936
0.168698
0.168031
0.167362
0.166688
0.16601
0.165328
0.164642
0.163953
0.16326
0.162564
0.161865
0.161165
0.160462
0.15976
0.159058
0.158358
0.157662
0.156972
0.156288
0.155614
0.154952
0.154303
0.153671
0.153058
0.152465
0.151897
0.151354
0.150838
0.150353
0.1499
0.14948
0.149095
0.148747
0.148436
0.148164
0.147931
0.147738
0.147585
0.147474
0.147403
0.147373
0.147385
0.147437
0.147529
0.14766
0.14783
0.148037
0.14828
0.148556
0.148865
0.149203
0.149569
0.149959
0.150372
0.150805
0.151255
0.151721
0.1522
0.152692
0.153195
0.15371
0.154237
0.154777
0.155335
0.155912
0.156513
0.157143
0.15781
0.15852
0.159282
0.160103
0.160995
0.161966
0.163027
0.164187
0.165457
0.166845
0.168359
0.170005
0.17179
0.173716
0.175784
0.177993
0.180339
0.182817
0.185418
0.188137
0.190958
0.193891
0.196873
0.199898
0.202332
0.173991
0.173366
0.172737
0.172105
0.17147
0.170831
0.170188
0.169542
0.168892
0.168239
0.167582
0.166922
0.166257
0.16559
0.164918
0.164243
0.163564
0.162882
0.162196
0.161508
0.160816
0.160123
0.159428
0.158732
0.158035
0.15734
0.156647
0.155957
0.155272
0.154592
0.153921
0.153258
0.152607
0.151968
0.151343
0.150733
0.150142
0.149569
0.149016
0.148485
0.147977
0.147493
0.147034
0.146602
0.146196
0.145817
0.145467
0.145145
0.144851
0.144587
0.144353
0.144147
0.143971
0.143824
0.143705
0.143615
0.143552
0.143516
0.143505
0.14352
0.143558
0.143618
0.1437
0.143801
0.143921
0.14406
0.144216
0.144388
0.144578
0.144785
0.145011
0.145257
0.145525
0.145819
0.146142
0.146499
0.146896
0.147338
0.147833
0.148387
0.14901
0.149709
0.150494
0.151373
0.152354
0.153447
0.154658
0.155993
0.157458
0.159056
0.160788
0.162653
0.16465
0.166771
0.169015
0.171368
0.173838
0.176364
0.178948
0.181032
0.17405
0.173431
0.172809
0.172184
0.171556
0.170924
0.170289
0.169652
0.169011
0.168366
0.167719
0.167068
0.166415
0.165757
0.165097
0.164432
0.163765
0.163094
0.16242
0.161742
0.161061
0.160378
0.159692
0.159004
0.158314
0.157623
0.156932
0.156241
0.155551
0.154863
0.154177
0.153496
0.15282
0.152149
0.151486
0.150831
0.150185
0.14955
0.148926
0.148315
0.147718
0.147136
0.146569
0.146018
0.145485
0.14497
0.144473
0.143995
0.143537
0.143099
0.142681
0.142283
0.141907
0.141551
0.141216
0.140902
0.140608
0.140335
0.140082
0.139849
0.139635
0.13944
0.139263
0.139104
0.138963
0.138838
0.138731
0.13864
0.138566
0.138509
0.13847
0.13845
0.138452
0.138476
0.138526
0.138605
0.138717
0.138867
0.139059
0.1393
0.139596
0.139954
0.140383
0.140888
0.141479
0.142164
0.142949
0.143842
0.14485
0.145977
0.147228
0.148603
0.150104
0.151728
0.153475
0.155335
0.157313
0.159357
0.161479
0.163204
0.174085
0.17347
0.172852
0.172231
0.171608
0.170981
0.170352
0.16972
0.169084
0.168446
0.167805
0.167161
0.166514
0.165864
0.165211
0.164555
0.163896
0.163233
0.162568
0.161899
0.161227
0.160553
0.159875
0.159196
0.158513
0.157829
0.157144
0.156457
0.15577
0.155082
0.154395
0.153709
0.153025
0.152343
0.151664
0.150989
0.150318
0.149653
0.148994
0.148342
0.147698
0.147062
0.146435
0.145819
0.145213
0.144618
0.144034
0.143464
0.142905
0.142361
0.141829
0.141312
0.140809
0.14032
0.139846
0.139386
0.138942
0.138512
0.138097
0.137697
0.137311
0.13694
0.136584
0.136241
0.135913
0.135598
0.135298
0.135011
0.134738
0.13448
0.134237
0.13401
0.133799
0.133608
0.133436
0.133287
0.133164
0.133069
0.133007
0.132981
0.132998
0.133062
0.133179
0.133356
0.1336
0.133918
0.134317
0.134804
0.135386
0.13607
0.13686
0.137762
0.138778
0.139909
0.141157
0.142515
0.143992
0.14554
0.147187
0.148542
0.174103
0.17349
0.172875
0.172257
0.171636
0.171012
0.170386
0.169757
0.169125
0.168491
0.167854
0.167214
0.166572
0.165927
0.165279
0.164628
0.163974
0.163318
0.162659
0.161996
0.161331
0.160663
0.159993
0.15932
0.158645
0.157967
0.157288
0.156607
0.155924
0.155241
0.154556
0.153872
0.153187
0.152503
0.15182
0.151138
0.150458
0.14978
0.149106
0.148435
0.147767
0.147105
0.146448
0.145796
0.14515
0.144512
0.14388
0.143256
0.14264
0.142032
0.141434
0.140844
0.140264
0.139694
0.139133
0.138583
0.138043
0.137514
0.136995
0.136486
0.135989
0.135501
0.135025
0.134559
0.134104
0.133659
0.133225
0.132801
0.132388
0.131986
0.131596
0.131217
0.130851
0.130499
0.130161
0.12984
0.129537
0.129254
0.128994
0.12876
0.128556
0.128385
0.128253
0.128164
0.128123
0.128137
0.128211
0.128353
0.128567
0.128862
0.129243
0.129715
0.130284
0.130952
0.131726
0.132599
0.133585
0.134642
0.135812
0.136787
0.174113
0.173502
0.172888
0.172272
0.171652
0.171031
0.170406
0.169779
0.16915
0.168518
0.167883
0.167246
0.166607
0.165964
0.16532
0.164672
0.164022
0.16337
0.162715
0.162057
0.161396
0.160733
0.160068
0.1594
0.15873
0.158057
0.157383
0.156707
0.156029
0.15535
0.15467
0.153988
0.153306
0.152623
0.151941
0.151258
0.150576
0.149894
0.149214
0.148535
0.147858
0.147183
0.146511
0.145842
0.145177
0.144515
0.143857
0.143204
0.142556
0.141913
0.141276
0.140645
0.14002
0.139401
0.138789
0.138184
0.137586
0.136996
0.136412
0.135836
0.135268
0.134707
0.134154
0.133609
0.133071
0.132541
0.132018
0.131504
0.130997
0.130498
0.130007
0.129524
0.12905
0.128586
0.128131
0.127688
0.127257
0.126839
0.126436
0.126051
0.125685
0.125341
0.125023
0.124734
0.124477
0.124258
0.124081
0.123951
0.123873
0.123853
0.123897
0.12401
0.124198
0.124465
0.124817
0.125254
0.125787
0.126384
0.127098
0.127694
0.174119
0.173508
0.172895
0.172279
0.171661
0.17104
0.170417
0.169791
0.169163
0.168532
0.167899
0.167263
0.166625
0.165985
0.165342
0.164697
0.164049
0.163399
0.162746
0.162091
0.161433
0.160773
0.160111
0.159447
0.15878
0.158112
0.157441
0.156769
0.156095
0.155419
0.154742
0.154064
0.153385
0.152705
0.152024
0.151343
0.150661
0.149979
0.149298
0.148617
0.147937
0.147257
0.146579
0.145903
0.145228
0.144555
0.143885
0.143217
0.142552
0.141891
0.141233
0.140578
0.139928
0.139282
0.138641
0.138004
0.137372
0.136745
0.136123
0.135506
0.134895
0.134289
0.133689
0.133094
0.132505
0.131921
0.131343
0.13077
0.130202
0.12964
0.129084
0.128533
0.127988
0.12745
0.126917
0.126392
0.125874
0.125365
0.124865
0.124376
0.123899
0.123435
0.122988
0.122558
0.12215
0.121765