/*--------------------------------*- C++ -*----------------------------------*\
| =========                 |                                                 |
| \\      /  F ield         | OpenFOAM: The Open Source CFD Toolbox           |
|  \\    /   O peration     | Version:  4.1                                   |
|   \\  /    A nd           | Web:      www.OpenFOAM.org                      |
|    \\/     M anipulation  |                                                 |
\*---------------------------------------------------------------------------*/
FoamFile
{
    version     2.0;
    format      ascii;
    class       volScalarField;
    location    "1000";
    object      nut;
}
// * * * * * * * * * * * * * * * * * * * * * * * * * * * * * * * * * * * * * //

dimensions      [0 2 -1 0 0 0 0];

internalField   nonuniform List<scalar> 
6820
(
4.53774e-05
4.96674e-05
5.35596e-05
5.7033e-05
6.00872e-05
6.27329e-05
6.49892e-05
6.68824e-05
6.84449e-05
6.97114e-05
7.07177e-05
7.14978e-05
7.20841e-05
7.25058e-05
7.27893e-05
7.29578e-05
7.30314e-05
7.30275e-05
7.29609e-05
7.28443e-05
7.26882e-05
7.25016e-05
7.22921e-05
7.20657e-05
7.18277e-05
7.15822e-05
7.13329e-05
7.10825e-05
7.08333e-05
7.05874e-05
7.03459e-05
7.01146e-05
6.99707e-05
0.000389004
0.000214804
0.000161971
0.000134577
0.000117082
0.000104841
9.58724e-05
8.91195e-05
8.39493e-05
7.99547e-05
7.68576e-05
7.44593e-05
7.26133e-05
7.12095e-05
7.01639e-05
6.94111e-05
6.88998e-05
6.85893e-05
6.84468e-05
6.84457e-05
6.85646e-05
6.87854e-05
6.90931e-05
6.94752e-05
6.9921e-05
7.04212e-05
7.09681e-05
7.15548e-05
7.21759e-05
7.28246e-05
7.35008e-05
7.41943e-05
7.51909e-05
0.000867009
0.000638273
0.00050769
0.000428082
0.000375014
0.000336916
0.000308048
0.000285295
0.000266813
0.00025144
0.000238413
0.00022721
0.000217458
0.00020889
0.000201303
0.000194545
0.000188496
0.000183062
0.000178166
0.00017375
0.000169743
0.000166041
0.000162606
0.000159413
0.000156443
0.00015368
0.000151107
0.000148711
0.000146478
0.000144398
0.000142458
0.000140657
0.000139054
0.000991214
0.000902164
0.000807377
0.000726622
0.000661863
0.000610175
0.000568431
0.000534166
0.000505567
0.000481331
0.000460513
0.000442414
0.000426509
0.0004124
0.00039978
0.000388413
0.000378111
0.000368724
0.000360134
0.000352242
0.000344971
0.00033822
0.000331916
0.000326008
0.000320452
0.000315214
0.000310264
0.000305579
0.000301135
0.000296916
0.000292901
0.000289081
0.000285432
0.00101005
0.00098739
0.000948626
0.000902916
0.000857083
0.00081444
0.000776076
0.000742011
0.000711858
0.000685132
0.000661359
0.000640115
0.000621037
0.000603821
0.00058821
0.00057399
0.000560984
0.000549041
0.000538035
0.000527861
0.000518429
0.000509658
0.000501477
0.000493823
0.000486643
0.000479889
0.000473523
0.000467508
0.000461815
0.000456416
0.000451288
0.000446407
0.000441712
0.00101185
0.00100724
0.000995356
0.000976942
0.000954121
0.000929118
0.000903659
0.000878801
0.000855099
0.000832805
0.000812001
0.000792668
0.000774737
0.000758113
0.000742692
0.000728374
0.00071506
0.000702662
0.000691095
0.000680287
0.00067017
0.000660683
0.000651773
0.000643389
0.000635487
0.000628027
0.000620973
0.000614293
0.000607959
0.000601943
0.000596222
0.000590768
0.0005855
0.00101178
0.00101089
0.00100777
0.00100182
0.000992905
0.000981471
0.000968242
0.00095392
0.000939072
0.000924117
0.000909347
0.000894953
0.000881053
0.000867715
0.00085497
0.000842827
0.00083128
0.000820311
0.000809899
0.000800017
0.000790637
0.000781725
0.000773254
0.0007652
0.000757539
0.000750246
0.0007433
0.00073668
0.000730366
0.000724339
0.000718581
0.000713066
0.000707706
0.00101168
0.00101136
0.00101047
0.00100868
0.00100565
0.0010012
0.000995412
0.000988494
0.000980691
0.000972245
0.000963375
0.000954264
0.000945058
0.000935871
0.000926788
0.00091787
0.000909162
0.000900694
0.000892486
0.000884548
0.000876885
0.000869497
0.00086238
0.000855529
0.000848937
0.000842597
0.000836499
0.000830636
0.000824999
0.000819577
0.00081436
0.000809329
0.000804393
0.00101165
0.00101137
0.00101095
0.0010103
0.00100928
0.00100769
0.00100543
0.00100251
0.000998941
0.000994803
0.000990178
0.00098516
0.000979838
0.000974296
0.000968606
0.00096283
0.000957019
0.000951215
0.00094545
0.00093975
0.000934136
0.000928624
0.000923226
0.000917951
0.000912805
0.000907792
0.000902914
0.000898172
0.000893566
0.000889095
0.000884756
0.000880532
0.000876338
0.00101164
0.00101135
0.00101102
0.00101063
0.00101016
0.00100951
0.0010086
0.00100738
0.00100583
0.00100394
0.00100172
0.000999201
0.000996409
0.000993382
0.000990158
0.000986773
0.000983263
0.000979658
0.000975986
0.000972273
0.000968538
0.0009648
0.000961074
0.000957374
0.000953709
0.000950089
0.000946521
0.000943011
0.000939564
0.000936182
0.000932867
0.000929606
0.000926318
0.00101163
0.00101134
0.00101103
0.0010107
0.00101036
0.00100998
0.00100952
0.00100894
0.00100823
0.00100736
0.00100632
0.00100511
0.00100373
0.00100219
0.00100049
0.000998656
0.000996699
0.000994636
0.000992481
0.00099025
0.000987958
0.000985618
0.000983241
0.000980839
0.000978421
0.000975996
0.000973572
0.000971156
0.000968753
0.000966369
0.000964006
0.000961652
0.000959227
0.00101163
0.00101134
0.00101103
0.00101072
0.00101041
0.0010101
0.00100977
0.00100939
0.00100897
0.00100849
0.00100793
0.0010073
0.00100658
0.00100577
0.00100487
0.00100388
0.00100282
0.00100167
0.00100045
0.000999166
0.000997824
0.00099643
0.000994992
0.000993517
0.00099201
0.000990479
0.000988927
0.000987362
0.000985787
0.000984206
0.000982622
0.000981024
0.000979332
0.00101163
0.00101133
0.00101104
0.00101073
0.00101043
0.00101014
0.00100984
0.00100953
0.00100921
0.00100886
0.0010085
0.0010081
0.00100766
0.00100719
0.00100667
0.00100611
0.00100551
0.00100486
0.00100416
0.00100342
0.00100265
0.00100183
0.00100098
0.0010001
0.000999189
0.000998253
0.000997294
0.000996317
0.000995323
0.000994316
0.000993296
0.00099225
0.000991102
0.00101163
0.00101133
0.00101104
0.00101074
0.00101045
0.00101016
0.00100987
0.00100958
0.00100929
0.00100899
0.00100869
0.00100837
0.00100804
0.0010077
0.00100734
0.00100696
0.00100657
0.00100615
0.0010057
0.00100524
0.00100476
0.00100425
0.00100372
0.00100317
0.00100261
0.00100202
0.00100142
0.00100081
0.00100018
0.000999537
0.000998884
0.000998207
0.000997426
0.00101163
0.00101133
0.00101104
0.00101075
0.00101046
0.00101018
0.00100989
0.00100961
0.00100933
0.00100905
0.00100877
0.00100848
0.0010082
0.00100791
0.00100761
0.00100732
0.00100701
0.0010067
0.00100638
0.00100604
0.0010057
0.00100536
0.001005
0.00100463
0.00100425
0.00100386
0.00100346
0.00100306
0.00100264
0.00100222
0.00100179
0.00100134
0.00100078
0.00101163
0.00101133
0.00101105
0.00101075
0.00101047
0.00101019
0.00100991
0.00100963
0.00100936
0.00100908
0.00100881
0.00100854
0.00100827
0.001008
0.00100773
0.00100746
0.00100719
0.00100692
0.00100665
0.00100637
0.0010061
0.00100582
0.00100553
0.00100525
0.00100496
0.00100467
0.00100437
0.00100407
0.00100377
0.00100346
0.00100315
0.00100282
0.0010024
0.00101163
0.00101133
0.00101105
0.00101076
0.00101048
0.0010102
0.00100992
0.00100965
0.00100938
0.00100911
0.00100884
0.00100858
0.00100831
0.00100805
0.0010078
0.00100754
0.00100729
0.00100704
0.00100679
0.00100654
0.00100629
0.00100605
0.0010058
0.00100556
0.00100531
0.00100507
0.00100483
0.00100458
0.00100434
0.0010041
0.00100385
0.00100359
0.00100323
0.00101163
0.00101133
0.00101105
0.00101076
0.00101048
0.00101021
0.00100994
0.00100966
0.0010094
0.00100913
0.00100887
0.00100861
0.00100835
0.00100809
0.00100784
0.00100759
0.00100735
0.00100711
0.00100687
0.00100663
0.00100639
0.00100616
0.00100593
0.00100571
0.00100548
0.00100526
0.00100504
0.00100482
0.00100461
0.00100439
0.00100418
0.00100395
0.00100363
0.00101163
0.00101133
0.00101105
0.00101077
0.00101049
0.00101022
0.00100994
0.00100968
0.00100941
0.00100915
0.00100889
0.00100863
0.00100838
0.00100812
0.00100788
0.00100763
0.00100739
0.00100716
0.00100692
0.00100669
0.00100647
0.00100624
0.00100602
0.00100581
0.00100559
0.00100538
0.00100517
0.00100497
0.00100477
0.00100457
0.00100437
0.00100416
0.00100386
0.00101163
0.00101133
0.00101105
0.00101077
0.00101049
0.00101022
0.00100995
0.00100969
0.00100942
0.00100916
0.0010089
0.00100865
0.0010084
0.00100815
0.00100791
0.00100767
0.00100743
0.0010072
0.00100697
0.00100674
0.00100652
0.0010063
0.00100608
0.00100587
0.00100567
0.00100546
0.00100526
0.00100506
0.00100487
0.00100468
0.00100449
0.00100428
0.00100399
0.00101163
0.00101133
0.00101105
0.00101077
0.0010105
0.00101023
0.00100996
0.00100969
0.00100943
0.00100917
0.00100892
0.00100867
0.00100842
0.00100817
0.00100793
0.00100769
0.00100746
0.00100723
0.001007
0.00100678
0.00100656
0.00100635
0.00100614
0.00100593
0.00100572
0.00100552
0.00100533
0.00100513
0.00100495
0.00100476
0.00100457
0.00100438
0.00100409
0.00101163
0.00101133
0.00101105
0.00101077
0.0010105
0.00101023
0.00100996
0.0010097
0.00100944
0.00100918
0.00100893
0.00100868
0.00100843
0.00100819
0.00100795
0.00100772
0.00100749
0.00100726
0.00100704
0.00100682
0.0010066
0.00100639
0.00100618
0.00100597
0.00100577
0.00100557
0.00100538
0.00100519
0.00100501
0.00100482
0.00100464
0.00100445
0.00100416
0.00101163
0.00101133
0.00101105
0.00101077
0.0010105
0.00101023
0.00100997
0.00100971
0.00100945
0.00100919
0.00100894
0.00100869
0.00100845
0.00100821
0.00100797
0.00100774
0.00100751
0.00100728
0.00100706
0.00100684
0.00100663
0.00100642
0.00100621
0.00100601
0.00100581
0.00100562
0.00100542
0.00100524
0.00100505
0.00100487
0.00100469
0.0010045
0.00100422
0.00101163
0.00101133
0.00101105
0.00101077
0.0010105
0.00101023
0.00100997
0.00100971
0.00100945
0.0010092
0.00100895
0.0010087
0.00100846
0.00100822
0.00100798
0.00100775
0.00100753
0.0010073
0.00100708
0.00100687
0.00100665
0.00100644
0.00100624
0.00100604
0.00100584
0.00100565
0.00100546
0.00100527
0.00100509
0.00100491
0.00100474
0.00100455
0.00100427
0.00101163
0.00101133
0.00101105
0.00101077
0.0010105
0.00101024
0.00100997
0.00100971
0.00100946
0.0010092
0.00100895
0.00100871
0.00100847
0.00100823
0.00100799
0.00100776
0.00100754
0.00100731
0.00100709
0.00100688
0.00100667
0.00100646
0.00100626
0.00100606
0.00100586
0.00100567
0.00100548
0.00100529
0.00100511
0.00100493
0.00100476
0.00100457
0.00100429
0.00101163
0.00101133
0.00101105
0.00101077
0.0010105
0.00101024
0.00100997
0.00100971
0.00100946
0.0010092
0.00100895
0.00100871
0.00100847
0.00100823
0.001008
0.00100777
0.00100754
0.00100732
0.0010071
0.00100689
0.00100668
0.00100647
0.00100627
0.00100607
0.00100588
0.00100568
0.0010055
0.00100531
0.00100513
0.00100496
0.00100478
0.00100459
0.00100432
0.00101163
0.00101133
0.00101105
0.00101077
0.0010105
0.00101024
0.00100997
0.00100971
0.00100946
0.0010092
0.00100896
0.00100871
0.00100847
0.00100823
0.001008
0.00100777
0.00100754
0.00100732
0.0010071
0.00100688
0.00100667
0.00100646
0.00100626
0.00100606
0.00100586
0.00100567
0.00100548
0.0010053
0.00100512
0.00100494
0.00100476
0.00100457
0.00100429
0.00101163
0.00101133
0.00101105
0.00101077
0.0010105
0.00101024
0.00100997
0.00100971
0.00100945
0.0010092
0.00100895
0.00100871
0.00100847
0.00100823
0.00100799
0.00100776
0.00100754
0.00100732
0.0010071
0.00100688
0.00100667
0.00100647
0.00100627
0.00100607
0.00100587
0.00100568
0.00100549
0.00100531
0.00100513
0.00100495
0.00100478
0.00100459
0.00100431
0.00101163
0.00101133
0.00101105
0.00101077
0.0010105
0.00101023
0.00100997
0.00100971
0.00100945
0.0010092
0.00100894
0.0010087
0.00100845
0.00100821
0.00100797
0.00100774
0.00100751
0.00100729
0.00100706
0.00100684
0.00100663
0.00100642
0.00100621
0.00100601
0.00100581
0.00100562
0.00100542
0.00100524
0.00100505
0.00100487
0.00100469
0.0010045
0.00100422
0.00101163
0.00101133
0.00101105
0.00101077
0.0010105
0.00101023
0.00100997
0.0010097
0.00100945
0.00100919
0.00100894
0.00100869
0.00100845
0.00100821
0.00100798
0.00100775
0.00100752
0.0010073
0.00100708
0.00100686
0.00100665
0.00100644
0.00100623
0.00100603
0.00100583
0.00100564
0.00100544
0.00100526
0.00100507
0.00100489
0.00100471
0.00100451
0.00100423
0.00101163
0.00101133
0.00101105
0.00101077
0.0010105
0.00101023
0.00100996
0.00100969
0.00100943
0.00100917
0.00100891
0.00100866
0.00100841
0.00100816
0.00100791
0.00100767
0.00100744
0.0010072
0.00100697
0.00100674
0.00100652
0.0010063
0.00100608
0.00100587
0.00100566
0.00100545
0.00100525
0.00100505
0.00100486
0.00100466
0.00100447
0.00100426
0.00100397
0.00101163
0.00101133
0.00101105
0.00101077
0.00101049
0.00101022
0.00100996
0.0010097
0.00100944
0.00100918
0.00100893
0.00100868
0.00100843
0.00100819
0.00100795
0.00100771
0.00100747
0.00100723
0.00100699
0.00100676
0.00100653
0.0010063
0.00100606
0.00100584
0.00100561
0.00100538
0.00100516
0.00100493
0.00100471
0.00100449
0.00100426
0.00100403
0.00100369
0.00101163
0.00101133
0.00101105
0.00101077
0.00101048
0.0010102
0.00100992
0.00100964
0.00100935
0.00100907
0.00100879
0.00100851
0.00100822
0.00100794
0.00100766
0.00100738
0.0010071
0.00100681
0.00100653
0.00100624
0.00100595
0.00100566
0.00100536
0.00100507
0.00100477
0.00100447
0.00100416
0.00100386
0.00100355
0.00100325
0.00100293
0.00100261
0.00100218
0.00101163
0.00101134
0.00101105
0.00101077
0.00101049
0.00101021
0.00100993
0.00100964
0.00100934
0.00100903
0.00100871
0.00100837
0.00100802
0.00100766
0.00100728
0.00100689
0.00100648
0.00100606
0.00100562
0.00100516
0.00100469
0.00100421
0.00100371
0.0010032
0.00100268
0.00100215
0.00100161
0.00100106
0.00100051
0.000999942
0.00099937
0.000998776
0.000998084
0.00101163
0.00101134
0.00101103
0.00101069
0.00101033
0.00100994
0.00100951
0.00100904
0.00100853
0.00100796
0.00100734
0.00100667
0.00100594
0.00100515
0.00100431
0.00100342
0.00100248
0.00100149
0.00100047
0.000999414
0.000998324
0.000997207
0.000996067
0.000994906
0.00099373
0.000992542
0.000991344
0.000990139
0.00098893
0.00098772
0.000986508
0.000985283
0.000983969
0.00101164
0.00101133
0.00101094
0.00101042
0.00100973
0.00100883
0.0010077
0.00100635
0.00100478
0.001003
0.00100104
0.000998909
0.000996631
0.000994228
0.000991719
0.000989125
0.000986463
0.00098375
0.000981
0.000978226
0.00097544
0.000972653
0.000969872
0.000967103
0.000964354
0.00096163
0.000958937
0.000956278
0.000953656
0.000951075
0.000948535
0.000946023
0.000943466
0.00101162
0.0010106
0.00100853
0.00100543
0.0010014
0.000996513
0.00099091
0.000984747
0.000978174
0.000971314
0.000964272
0.000957136
0.000949978
0.000942854
0.000935809
0.000928876
0.000922082
0.000915443
0.000908975
0.000902685
0.000896578
0.000890657
0.000884923
0.000879373
0.000874006
0.000868819
0.000863806
0.000858963
0.000854286
0.000849769
0.000845405
0.000841179
0.000837016
0.00100895
0.000995379
0.000976042
0.000953694
0.00093032
0.000907093
0.000884657
0.000863329
0.000843228
0.000824388
0.000806781
0.000790352
0.000775024
0.00076072
0.000747357
0.000734861
0.000723158
0.000712183
0.000701876
0.000692182
0.000683051
0.000674439
0.000666305
0.000658613
0.000651329
0.000644424
0.000637871
0.000631645
0.000625722
0.000620084
0.00061471
0.00060958
0.000604632
0.000892788
0.000742255
0.000649202
0.00058554
0.000538566
0.000502138
0.000472884
0.000448753
0.000428416
0.000410981
0.000395823
0.000382492
0.000370655
0.000360056
0.0003505
0.000341831
0.000333927
0.000326686
0.000320026
0.000313879
0.000308188
0.000302904
0.000297984
0.000293395
0.000289104
0.000285084
0.000281313
0.000277768
0.000274431
0.000271286
0.000268317
0.000265514
0.000262862
0.000126722
0.000129956
0.000133005
0.000135891
0.000138628
0.00014123
0.000143705
0.000146063
0.000148309
0.00015045
0.000152489
0.000154433
0.000156285
0.00015805
0.000159732
0.000161334
0.00016286
0.000164313
0.000165696
0.000167014
0.000168268
0.000169462
0.000170599
0.00017168
0.00017271
0.000173689
0.000174621
0.000175508
0.000176352
0.000177155
0.000177919
0.000178647
0.000179344
8.54724e-05
0.000115337
0.000145821
0.000176029
0.000203034
0.000226763
0.000248164
0.000268296
0.000288071
0.000308078
0.000328541
0.000349428
0.000370701
0.000392288
0.000414086
0.000435928
0.000457593
0.000479072
0.000500233
0.000521111
0.000541755
0.000562223
0.000582594
0.000602976
0.000623493
0.000644267
0.000665419
0.000687056
0.000709279
0.000732174
0.000755822
0.000780297
0.000805663
0.00083196
0.000859211
0.000887417
0.000916555
0.000946583
0.000977438
0.00100904
0.00104131
0.00107413
0.00110739
0.00114098
0.00117479
0.00120868
0.00124256
0.00127629
0.00130979
0.00134295
0.00137569
0.00140792
0.00143958
0.00147061
0.00150097
0.00153062
0.00155954
0.00158771
0.00161515
0.00164187
0.00166789
0.00169327
0.00171805
0.0017423
0.0017661
0.00178953
0.00181266
0.0018356
0.00185843
0.00188124
0.00190413
0.00192718
0.00195047
0.00197407
0.00199804
0.00202241
0.00204719
0.00207237
0.00209789
0.00212366
0.00214961
0.00217563
0.00220166
0.00222757
0.00225329
0.0022787
0.00230369
0.00232816
0.00235199
0.00237509
0.00239737
0.00241874
0.00243915
0.00245862
0.00247727
0.00249556
0.00251437
0.00253586
0.00256356
0.00261293
7.83549e-05
8.47446e-05
9.52609e-05
0.000110476
0.000129536
0.000151376
0.000174496
0.000197715
0.000220451
0.000242499
0.000263899
0.000284826
0.000305531
0.000326258
0.000347175
0.000368316
0.000389596
0.000410929
0.000432321
0.000453647
0.000474835
0.000495858
0.000516727
0.000537487
0.000558206
0.000578966
0.000599854
0.000620958
0.000642362
0.000664151
0.000686406
0.000709207
0.000732629
0.000756737
0.00078158
0.000807194
0.000833597
0.000860789
0.000888751
0.000917448
0.00094683
0.000976831
0.00100738
0.00103838
0.00106974
0.00110138
0.00113317
0.00116503
0.00119685
0.00122854
0.00126002
0.00129119
0.001322
0.00135237
0.00138225
0.00141161
0.00144042
0.00146866
0.00149633
0.00152345
0.00155004
0.00157614
0.00160179
0.00162706
0.00165201
0.00167672
0.00170126
0.00172572
0.00175016
0.00177467
0.00179933
0.00182421
0.00184937
0.00187486
0.00190074
0.00192703
0.00195372
0.00198079
0.00200819
0.00203582
0.00206359
0.00209142
0.00211921
0.00214686
0.00217428
0.00220135
0.00222796
0.00225402
0.00227942
0.00230407
0.00232786
0.00235074
0.00237264
0.00239359
0.00241371
0.00243344
0.00245359
0.00247613
0.00250414
0.00254924
0.00013774
0.000137412
0.000137921
0.000139205
0.000141082
0.000143448
0.00014785
0.000155288
0.0001659
0.00017919
0.000194732
0.000212091
0.000230838
0.000250599
0.000271064
0.000291977
0.000313086
0.000334213
0.000355453
0.000376742
0.000398013
0.000419215
0.000440317
0.000461314
0.000482221
0.00050307
0.000523908
0.000544788
0.000565773
0.000586931
0.000608337
0.000630066
0.000652195
0.000674798
0.00069794
0.000721677
0.000746055
0.000771103
0.000796837
0.000823257
0.000850347
0.000878075
0.000906398
0.000935258
0.000964586
0.000994306
0.00102433
0.00105458
0.00108496
0.00111539
0.00114577
0.00117605
0.00120613
0.00123597
0.00126551
0.00129471
0.00132354
0.00135198
0.00138003
0.0014077
0.00143501
0.00146199
0.00148868
0.00151512
0.00154139
0.00156754
0.00159362
0.00161972
0.0016459
0.00167221
0.00169872
0.00172548
0.00175255
0.00177997
0.00180775
0.00183593
0.00186447
0.00189336
0.00192253
0.0019519
0.00198136
0.00201084
0.00204022
0.00206941
0.00209832
0.00212683
0.00215486
0.00218229
0.00220903
0.00223499
0.00226008
0.00228423
0.0023074
0.00232962
0.002351
0.00237197
0.00239326
0.00241662
0.00244471
0.00248502
0.000281176
0.000277081
0.000273363
0.000270019
0.000266855
0.000263255
0.000258688
0.000253003
0.000246341
0.000240657
0.000236884
0.000235501
0.00023687
0.000241145
0.000248272
0.000258025
0.000270045
0.000283906
0.00029928
0.000315902
0.000333477
0.000351748
0.000370508
0.000389609
0.000408954
0.000428483
0.000448172
0.000468014
0.000488022
0.000508221
0.000528646
0.000549341
0.000570356
0.000591746
0.000613564
0.000635865
0.000658695
0.000682095
0.000706096
0.000730719
0.000755971
0.000781845
0.000808324
0.000835376
0.000862958
0.000891017
0.000919491
0.000948312
0.000977409
0.00100671
0.00103614
0.00106562
0.00109511
0.00112453
0.00115384
0.001183
0.00121198
0.00124076
0.00126934
0.0012977
0.00132587
0.00135387
0.00138173
0.00140948
0.00143718
0.00146486
0.00149259
0.0015204
0.00154836
0.0015765
0.00160487
0.00163351
0.00166245
0.00169172
0.00172133
0.00175128
0.00178156
0.0018121
0.00184287
0.00187376
0.00190469
0.00193556
0.00196628
0.00199675
0.00202688
0.00205657
0.00208572
0.00211424
0.00214204
0.00216903
0.00219514
0.0022203
0.00224448
0.00226771
0.0022901
0.00231205
0.00233423
0.00235816
0.00238608
0.00242109
0.000436014
0.000430298
0.000424734
0.000419453
0.000414491
0.000409767
0.000405049
0.000399966
0.000394013
0.000386881
0.000378732
0.000369956
0.000360888
0.000351983
0.00034379
0.000336867
0.000331695
0.000328592
0.000327828
0.000329539
0.000333675
0.000340089
0.000348573
0.000358888
0.000370791
0.000384048
0.000398445
0.000413804
0.000429977
0.000446856
0.000464363
0.000482449
0.000501089
0.000520274
0.000540009
0.000560307
0.000581185
0.000602663
0.000624759
0.000647489
0.000670862
0.00069488
0.000719537
0.000744819
0.0007707
0.000797145
0.000824113
0.000851552
0.000879408
0.000907622
0.000936133
0.000964881
0.000993811
0.00102287
0.00105201
0.00108118
0.00111037
0.00113954
0.00116869
0.0011978
0.00122687
0.00125593
0.00128498
0.00131406
0.00134319
0.00137241
0.00140174
0.00143122
0.00146089
0.00149077
0.00152088
0.00155126
0.00158191
0.00161285
0.00164406
0.00167555
0.00170728
0.00173921
0.00177126
0.00180337
0.00183543
0.00186736
0.00189906
0.00193045
0.00196144
0.00199194
0.00202186
0.00205112
0.00207963
0.00210732
0.00213412
0.00215997
0.00218485
0.00220879
0.0022319
0.00225455
0.00227733
0.00230155
0.00232902
0.0023583
0.000579026
0.000572595
0.000566234
0.000560009
0.000553989
0.000548199
0.00054266
0.000537349
0.000532144
0.000526846
0.000521231
0.000515224
0.000508626
0.000501293
0.000493142
0.000484181
0.000474524
0.000464383
0.00045414
0.000444286
0.000435301
0.00042762
0.000421599
0.000417503
0.000415497
0.000415647
0.000417938
0.000422291
0.000428581
0.000436661
0.000446375
0.000457572
0.000470113
0.000483879
0.000498769
0.000514702
0.000531617
0.000549465
0.000568212
0.000587829
0.000608296
0.000629591
0.000651693
0.00067458
0.000698224
0.000722592
0.000747646
0.000773344
0.000799636
0.000826473
0.0008538
0.000881564
0.00090971
0.000938188
0.000966951
0.000995956
0.00102517
0.00105455
0.0010841
0.00111377
0.00114358
0.00117352
0.00120358
0.00123378
0.00126414
0.00129465
0.00132535
0.00135624
0.00138733
0.00141865
0.00145018
0.00148194
0.00151393
0.00154614
0.00157856
0.00161116
0.00164391
0.00167676
0.00170964
0.00174249
0.00177521
0.00180773
0.00183995
0.00187181
0.00190322
0.0019341
0.00196437
0.00199395
0.00202279
0.00205079
0.00207791
0.00210411
0.00212934
0.00215367
0.00217718
0.00220022
0.0022233
0.00224749
0.00227423
0.00229746
0.000701047
0.000694454
0.00068796
0.000681543
0.000675281
0.000669198
0.000663319
0.00065767
0.000652234
0.00064699
0.00064189
0.000636897
0.000631936
0.000626897
0.000621644
0.00061602
0.000609864
0.000603014
0.000595346
0.000586858
0.000577617
0.000567788
0.000557627
0.000547456
0.000537642
0.000528556
0.000520545
0.000513911
0.000508891
0.000505652
0.000504297
0.000504868
0.00050736
0.000511729
0.000517907
0.000525811
0.000535351
0.000546438
0.000558988
0.000572922
0.000588169
0.000604665
0.000622351
0.000641172
0.000661075
0.000682008
0.000703919
0.000726754
0.000750457
0.000774972
0.000800239
0.000826202
0.000852801
0.00087998
0.000907686
0.000935869
0.000964481
0.000993483
0.00102284
0.00105252
0.00108249
0.00111275
0.00114327
0.00117404
0.00120505
0.0012363
0.00126778
0.00129948
0.0013314
0.00136353
0.00139585
0.00142836
0.00146104
0.00149387
0.00152682
0.00155988
0.00159299
0.00162612
0.0016592
0.00169217
0.00172494
0.00175746
0.00178965
0.00182143
0.00185274
0.00188351
0.00191367
0.00194315
0.00197189
0.00199983
0.00202691
0.00205309
0.00207835
0.00210274
0.00212634
0.00214947
0.00217255
0.00219642
0.00222219
0.0022392
0.000798149
0.000792013
0.000785946
0.000779924
0.000773977
0.000768116
0.000762357
0.00075673
0.000751261
0.000745971
0.000740874
0.000735979
0.000731288
0.000726784
0.000722433
0.000718181
0.000713948
0.000709634
0.00070511
0.000700251
0.000694936
0.000689071
0.000682579
0.000675445
0.000667725
0.000659537
0.000651061
0.000642523
0.000634184
0.000626317
0.000619188
0.000613046
0.000608109
0.000604559
0.000602533
0.00060213
0.000603409
0.000606399
0.000611104
0.000617507
0.000625576
0.00063527
0.00064654
0.000659332
0.00067359
0.000689254
0.000706263
0.000724554
0.000744063
0.000764723
0.000786467
0.000809228
0.000832938
0.00085753
0.000882939
0.0009091
0.000935954
0.000963442
0.000991513
0.00102012
0.00104921
0.00107875
0.00110869
0.00113902
0.00116968
0.00120066
0.00123193
0.00126346
0.00129522
0.00132718
0.00135933
0.00139163
0.00142405
0.00145657
0.00148917
0.0015218
0.00155443
0.00158702
0.00161952
0.00165186
0.001684
0.00171587
0.00174741
0.00177856
0.00180926
0.00183944
0.00186906
0.00189804
0.00192632
0.00195386
0.00198059
0.00200647
0.0020315
0.0020557
0.00207916
0.00210214
0.00212499
0.00214831
0.00217293
0.00218383
0.000870887
0.000865604
0.000860342
0.000855103
0.000849872
0.000844672
0.000839518
0.000834429
0.000829427
0.000824528
0.000819745
0.000815085
0.000810569
0.000806215
0.000802037
0.000798044
0.000794232
0.000790586
0.000787072
0.000783628
0.000780197
0.00077671
0.000773086
0.000769247
0.000765126
0.000760676
0.000755878
0.000750749
0.000745349
0.000739728
0.000734008
0.000728343
0.000722911
0.000717902
0.000713501
0.000709887
0.000707223
0.000705655
0.00070531
0.00070629
0.000708674
0.000712521
0.00071787
0.000724743
0.000733145
0.000743068
0.000754493
0.000767391
0.000781722
0.000797441
0.000814496
0.000832829
0.000852376
0.000873074
0.000894854
0.000917648
0.000941387
0.000966002
0.000991426
0.00101759
0.00104444
0.00107191
0.00109995
0.00112849
0.00115749
0.0011869
0.00121667
0.00124675
0.0012771
0.00130768
0.00133846
0.00136939
0.00140044
0.00143159
0.00146279
0.00149403
0.00152526
0.00155645
0.00158757
0.00161857
0.0016494
0.00168001
0.00171036
0.0017404
0.00177007
0.00179931
0.00182807
0.00185629
0.0018839
0.00191085
0.00193708
0.00196255
0.00198724
0.00201115
0.00203436
0.00205711
0.00207963
0.00210233
0.00212578
0.00213103
0.000921864
0.000917653
0.000913422
0.000909175
0.000904908
0.000900622
0.000896334
0.000892053
0.000887789
0.000883555
0.000879363
0.000875224
0.000871153
0.000867168
0.000863285
0.000859524
0.000855903
0.000852438
0.000849142
0.000846017
0.000843067
0.000840273
0.000837615
0.000835065
0.000832589
0.000830146
0.000827697
0.000825209
0.000822658
0.000820029
0.000817323
0.000814567
0.000811808
0.000809126
0.000806567
0.000804231
0.000802235
0.000800703
0.00079976
0.000799526
0.000800118
0.000801643
0.000804199
0.000807868
0.000812721
0.000818815
0.000826191
0.000834879
0.000844894
0.000856238
0.000868902
0.000882867
0.000898103
0.000914572
0.000932227
0.000951015
0.00097088
0.000991759
0.00101359
0.0010363
0.00105983
0.00108411
0.00110908
0.00113466
0.0011608
0.00118743
0.00121451
0.00124196
0.00126974
0.00129781
0.00132611
0.00135462
0.00138329
0.00141209
0.00144101
0.00147
0.00149906
0.00152815
0.00155725
0.00158634
0.00161537
0.00164432
0.00167314
0.00170178
0.00173022
0.00175837
0.0017862
0.00181362
0.00184058
0.00186701
0.00189283
0.001918
0.00194246
0.00196624
0.00198935
0.002012
0.00203433
0.00205654
0.00207902
0.00207957
0.000955745
0.000952591
0.000949392
0.000946151
0.000942873
0.000939553
0.000936197
0.000932813
0.000929409
0.000925994
0.000922576
0.00091916
0.000915755
0.000912367
0.000909011
0.000905703
0.000902459
0.000899302
0.000896245
0.000893306
0.000890508
0.000887868
0.000885398
0.000883108
0.000881004
0.000879086
0.000877347
0.000875779
0.000874368
0.000873102
0.000871967
0.000870958
0.000870073
0.000869324
0.000868726
0.000868308
0.000868097
0.000868127
0.00086846
0.000869169
0.000870332
0.00087203
0.000874348
0.000877364
0.000881159
0.000885803
0.000891363
0.000897895
0.000905448
0.000914059
0.000923756
0.000934555
0.000946462
0.000959473
0.000973572
0.000988737
0.00100493
0.00102212
0.00104026
0.0010593
0.00107917
0.00109983
0.00112121
0.00114325
0.0011659
0.00118909
0.00121278
0.00123689
0.0012614
0.00128624
0.00131138
0.0013368
0.00136245
0.00138831
0.00141438
0.00144063
0.00146705
0.00149364
0.00152039
0.00154728
0.00157429
0.00160141
0.0016286
0.00165583
0.00168306
0.00171022
0.00173726
0.00176411
0.00179068
0.00181689
0.00184265
0.00186789
0.00189255
0.0019166
0.00194003
0.00196299
0.00198554
0.0020077
0.0020297
0.0020271
0.000976687
0.000974454
0.000972165
0.000969824
0.000967435
0.000965
0.000962515
0.000959986
0.000957418
0.000954815
0.000952179
0.000949516
0.000946828
0.000944122
0.000941403
0.00093868
0.000935963
0.000933266
0.000930605
0.000927997
0.000925461
0.000923022
0.000920699
0.000918512
0.000916484
0.000914631
0.000912972
0.000911519
0.000910282
0.000909269
0.000908484
0.000907928
0.000907605
0.000907514
0.00090766
0.000908052
0.000908688
0.000909575
0.000910732
0.000912189
0.000913983
0.000916156
0.000918755
0.000921831
0.000925437
0.000929627
0.000934454
0.00093997
0.000946222
0.000953255
0.000961105
0.000969804
0.000979374
0.000989832
0.00100118
0.00101343
0.00102655
0.00104054
0.00105537
0.00107101
0.00108743
0.00110457
0.0011224
0.00114087
0.00115994
0.00117955
0.00119967
0.00122025
0.00124125
0.00126263
0.00128437
0.00130645
0.00132884
0.00135155
0.00137455
0.00139787
0.00142149
0.00144544
0.00146971
0.00149432
0.00151926
0.00154453
0.00157012
0.001596
0.00162215
0.0016485
0.00167499
0.00170155
0.00172808
0.00175449
0.00178067
0.00180651
0.00183192
0.00185684
0.00188122
0.00190513
0.00192856
0.00195137
0.00197368
0.00197004
0.000989089
0.00098756
0.000985979
0.000984348
0.00098267
0.000980945
0.000979174
0.000977355
0.000975493
0.000973591
0.000971649
0.000969668
0.00096765
0.000965598
0.000963513
0.000961399
0.000959262
0.000957108
0.000954945
0.000952786
0.000950643
0.000948536
0.00094648
0.000944495
0.000942603
0.000940824
0.000939181
0.000937695
0.000936386
0.000935271
0.000934368
0.000933692
0.000933247
0.000933039
0.000933078
0.000933371
0.000933927
0.000934755
0.000935862
0.000937262
0.000938971
0.000941007
0.000943395
0.000946161
0.000949335