/*--------------------------------*- C++ -*----------------------------------*\
| =========                 |                                                 |
| \\      /  F ield         | OpenFOAM: The Open Source CFD Toolbox           |
|  \\    /   O peration     | Version:  4.1                                   |
|   \\  /    A nd           | Web:      www.OpenFOAM.org                      |
|    \\/     M anipulation  |                                                 |
\*---------------------------------------------------------------------------*/
FoamFile
{
    version     2.0;
    format      ascii;
    class       volScalarField;
    location    "1000";
    object      p;
}
// * * * * * * * * * * * * * * * * * * * * * * * * * * * * * * * * * * * * * //

dimensions      [0 2 -2 0 0 0 0];

internalField   nonuniform List<scalar> 
6820
(
-8.24343
-8.50099
-8.59861
-8.61933
-8.65257
-8.69789
-8.73953
-8.77571
-8.80945
-8.84158
-8.87167
-8.89958
-8.92557
-8.94991
-8.97278
-8.99434
-9.01474
-9.03415
-9.05269
-9.07049
-9.08765
-9.10427
-9.12043
-9.1362
-9.15166
-9.16686
-9.18187
-9.19673
-9.21154
-9.22618
-9.24157
-9.25543
-9.28555
-8.35622
-8.52227
-8.60099
-8.62189
-8.64883
-8.6841
-8.71573
-8.74267
-8.76799
-8.79275
-8.81664
-8.83954
-8.86162
-8.88302
-8.90379
-8.92398
-8.94362
-8.96278
-8.98148
-8.99978
-9.01771
-9.03531
-9.05261
-9.06966
-9.08647
-9.1031
-9.11958
-9.13594
-9.15224
-9.16847
-9.18485
-9.20137
-9.21808
-8.41247
-8.51718
-8.59521
-8.62713
-8.65534
-8.68855
-8.71901
-8.74535
-8.76999
-8.79393
-8.81696
-8.83894
-8.86003
-8.88036
-8.9
-8.919
-8.93741
-8.95529
-8.97271
-8.98971
-9.00633
-9.02262
-9.03862
-9.05438
-9.06992
-9.08529
-9.10053
-9.11567
-9.13077
-9.1458
-9.16098
-9.17587
-9.1914
-8.46226
-8.53725
-8.6099
-8.64507
-8.67256
-8.70414
-8.73417
-8.76053
-8.78493
-8.80837
-8.83075
-8.852
-8.8723
-8.89179
-8.91058
-8.92873
-8.94632
-8.9634
-8.98005
-8.99631
-9.01223
-9.02786
-9.04322
-9.05837
-9.07333
-9.08814
-9.10283
-9.11745
-9.13202
-9.14657
-9.16116
-9.17575
-9.1904
-8.50375
-8.55498
-8.61519
-8.65006
-8.67731
-8.70757
-8.73682
-8.76286
-8.78701
-8.81023
-8.83251
-8.85379
-8.87421
-8.89388
-8.91289
-8.93129
-8.94913
-8.96648
-8.98337
-8.99986
-9.01598
-9.03179
-9.0473
-9.06257
-9.07762
-9.09249
-9.10722
-9.12183
-9.13637
-9.15086
-9.16535
-9.17987
-9.19447
-8.53854
-8.57439
-8.62524
-8.66053
-8.68819
-8.71725
-8.74561
-8.77133
-8.7953
-8.8183
-8.84038
-8.86148
-8.8817
-8.90115
-8.91992
-8.93806
-8.95563
-8.9727
-8.9893
-9.0055
-9.02133
-9.03684
-9.05207
-9.06705
-9.08181
-9.09639
-9.11083
-9.12515
-9.13939
-9.15358
-9.16777
-9.18199
-9.19633
-8.56838
-8.59394
-8.63584
-8.66901
-8.6955
-8.7226
-8.74951
-8.77444
-8.79782
-8.82029
-8.84193
-8.86269
-8.88265
-8.90192
-8.92056
-8.93863
-8.95617
-8.97323
-8.98987
-9.00611
-9.022
-9.03757
-9.05286
-9.06789
-9.0827
-9.09732
-9.11178
-9.12609
-9.14031
-9.15444
-9.16854
-9.18264
-9.19679
-8.59432
-8.6129
-8.64732
-8.67817
-8.7039
-8.72978
-8.75569
-8.7801
-8.80312
-8.82527
-8.84665
-8.86721
-8.88702
-8.90615
-8.92467
-8.94261
-8.96003
-8.97697
-8.99346
-9.00956
-9.0253
-9.0407
-9.05581
-9.07065
-9.08526
-9.09966
-9.11389
-9.12795
-9.1419
-9.15574
-9.1695
-9.18323
-9.19692
-8.61717
-8.631
-8.6593
-8.68741
-8.71187
-8.73618
-8.76065
-8.78407
-8.80634
-8.82785
-8.84867
-8.86878
-8.8882
-8.90701
-8.92524
-8.94295
-8.96017
-8.97694
-8.9933
-9.00927
-9.0249
-9.04021
-9.05524
-9.07
-9.08453
-9.09884
-9.11296
-9.12692
-9.14072
-9.1544
-9.16797
-9.18145
-9.19486
-8.63755
-8.64808
-8.67144
-8.69675
-8.71984
-8.74278
-8.76603
-8.78864
-8.81036
-8.83139
-8.85183
-8.87164
-8.89083
-8.90944
-8.92752
-8.94509
-8.96219
-8.97884
-8.99509
-9.01096
-9.02647
-9.04166
-9.05655
-9.07117
-9.08554
-9.09967
-9.1136
-9.12733
-9.14088
-9.15428
-9.16752
-9.18062
-9.19354
-8.65588
-8.66408
-8.6835
-8.70614
-8.72774
-8.7493
-8.77127
-8.7929
-8.81385
-8.83422
-8.85409
-8.8734
-8.89217
-8.91042
-8.92817
-8.94545
-8.96228
-8.9787
-8.99473
-9.0104
-9.02572
-9.04073
-9.05545
-9.06989
-9.08408
-9.09803
-9.11176
-9.12528
-9.13861
-9.15176
-9.16472
-9.17749
-9.19008
-8.67249
-8.67901
-8.69529
-8.71547
-8.73554
-8.75579
-8.77654
-8.79721
-8.81744
-8.83722
-8.85658
-8.87549
-8.89393
-8.91189
-8.9294
-8.94648
-8.96314
-8.9794
-8.99528
-9.01081
-9.02599
-9.04087
-9.05544
-9.06973
-9.08376
-9.09753
-9.11107
-9.12438
-9.13746
-9.15033
-9.16298
-9.17539
-9.18755
-8.68763
-8.69288
-8.70668
-8.72465
-8.74322
-8.7622
-8.78177
-8.80147
-8.82092
-8.84005
-8.85884
-8.87725
-8.89525
-8.91283
-8.93
-8.94677
-8.96315
-8.97914
-8.99478
-9.01007
-9.02503
-9.03968
-9.05403
-9.0681
-9.0819
-9.09543
-9.10872
-9.12177
-9.13457
-9.14714
-9.15946
-9.17154
-9.18334
-8.70146
-8.70576
-8.71756
-8.73359
-8.75073
-8.76849
-8.78694
-8.8057
-8.82438
-8.84285
-8.86109
-8.87902
-8.89661
-8.91384
-8.93071
-8.94721
-8.96334
-8.97912
-8.99456
-9.00966
-9.02444
-9.03891
-9.05308
-9.06697
-9.08057
-9.09391
-9.10698
-9.1198
-9.13235
-9.14465
-9.15667
-9.16841
-9.17984
-8.71412
-8.71768
-8.72788
-8.74222
-8.75801
-8.77462
-8.79202
-8.80986
-8.82777
-8.84559
-8.86325
-8.88068
-8.89783
-8.91467
-8.93118
-8.94736
-8.9632
-8.9787
-8.99387
-9.00872
-9.02326
-9.03748
-9.05141
-9.06505
-9.07841
-9.09148
-9.10429
-9.11682
-9.12907
-9.14105
-9.15275
-9.16415
-9.17523
-8.7257
-8.72868
-8.73758
-8.75047
-8.76502
-8.78055
-8.79696
-8.81392
-8.83107
-8.84825
-8.86534
-8.88228
-8.89899
-8.91545
-8.93161
-8.94748
-8.96303
-8.97827
-8.9932
-9.00782
-9.02213
-9.03614
-9.04985
-9.06327
-9.0764
-9.08925
-9.10181
-9.11409
-9.12608
-9.13779
-9.14919
-9.16028
-9.17104
-8.73629
-8.73879
-8.74664
-8.75829
-8.77171
-8.78624
-8.80172
-8.81785
-8.83428
-8.85082
-8.86735
-8.88379
-8.90006
-8.91612
-8.93193
-8.94746
-8.96271
-8.97767
-8.99232
-9.00667
-9.02072
-9.03448
-9.04793
-9.0611
-9.07397
-9.08654
-9.09883
-9.11083
-9.12252
-9.13392
-9.14501
-9.15578
-9.16621
-8.74592
-8.74805
-8.75502
-8.76561
-8.77802
-8.79164
-8.80627
-8.82161
-8.83734
-8.85327
-8.86926
-8.88521
-8.90105
-8.91671
-8.93216
-8.94737
-8.96231
-8.97698
-8.99136
-9.00546
-9.01926
-9.03277
-9.04598
-9.0589
-9.07152
-9.08385
-9.09588
-9.10761
-9.11904
-9.13016
-9.14096
-9.15144
-9.16158
-8.75464
-8.75645
-8.76271
-8.77239
-8.78392
-8.7967
-8.81055
-8.82516
-8.84025
-8.85559
-8.87105
-8.88653
-8.90194
-8.91721
-8.9323
-8.94718
-8.96181
-8.97619
-8.99029
-9.00411
-9.01765
-9.03089
-9.04384
-9.0565
-9.06886
-9.08092
-9.09267
-9.10413
-9.11527
-9.1261
-9.13661
-9.1468
-9.15664
-8.76247
-8.76402
-8.76969
-8.7786
-8.78935
-8.80139
-8.81452
-8.82847
-8.84294
-8.85773
-8.8727
-8.88772
-8.90271
-8.9176
-8.93234
-8.94689
-8.96121
-8.9753
-8.98912
-9.00267
-9.01594
-9.02893
-9.04162
-9.05402
-9.06613
-9.07793
-9.08942
-9.10061
-9.11149
-9.12205
-9.13229
-9.1422
-9.15176
-8.76941
-8.77075
-8.77593
-8.7842
-8.79428
-8.80566
-8.81815
-8.83149
-8.84541
-8.85968
-8.87417
-8.88876
-8.90336
-8.91788
-8.93227
-8.9465
-8.96052
-8.97431
-8.98785
-9.00113
-9.01414
-9.02686
-9.0393
-9.05144
-9.06328
-9.07481
-9.08605
-9.09697
-9.10757
-9.11786
-9.12783
-9.13747
-9.14677
-8.77547
-8.77664
-8.78141
-8.78915
-8.79865
-8.80946
-8.82139
-8.83419
-8.8476
-8.8614
-8.87545
-8.88964
-8.90385
-8.91802
-8.93208
-8.946
-8.95972
-8.97322
-8.98649
-8.9995
-9.01224
-9.02471
-9.03688
-9.04876
-9.06035
-9.07163
-9.0826
-9.09326
-9.10361
-9.11364
-9.12334
-9.13273
-9.14178
-8.78063
-8.78166
-8.78611
-8.79341
-8.80244
-8.81275
-8.82419
-8.83652
-8.84948
-8.86285
-8.87651
-8.89031
-8.90418
-8.91801
-8.93176
-8.94537
-8.95881
-8.97203
-8.98503
-8.99778
-9.01026
-9.02247
-9.03439
-9.04602
-9.05735
-9.06837
-9.07909
-9.0895
-9.0996
-9.10937
-9.11883
-9.12797
-9.13678
-8.78486
-8.78579
-8.78998
-8.79694
-8.80558
-8.81549
-8.82652
-8.83844
-8.85101
-8.86401
-8.8773
-8.89077
-8.9043
-8.91783
-8.93128
-8.94461
-8.95776
-8.97072
-8.98345
-8.99594
-9.00817
-9.02012
-9.03179
-9.04317
-9.05425
-9.06502
-9.07549
-9.08565
-9.0955
-9.10503
-9.11424
-9.12314
-9.13171
-8.78814
-8.78899
-8.79299
-8.79969
-8.80803
-8.81763
-8.82832
-8.83991
-8.85214
-8.86482
-8.8778
-8.89096
-8.90421
-8.91745
-8.93062
-8.94368
-8.95657
-8.96928
-8.98176
-8.994
-9.00598
-9.01769
-9.02912
-9.04026
-9.0511
-9.06164
-9.07188
-9.0818
-9.09142
-9.10072
-9.1097
-9.11838
-9.12672
-8.7904
-8.7912
-8.79508
-8.80159
-8.80973
-8.81909
-8.82953
-8.84086
-8.85283
-8.86524
-8.87795
-8.89085
-8.90383
-8.91681
-8.92973
-8.94254
-8.95518
-8.96764
-8.97988
-8.99187
-9.00361
-9.01508
-9.02627
-9.03717
-9.04777
-9.05807
-9.06806
-9.07775
-9.08712
-9.09619
-9.10494
-9.11339
-9.12152
-8.79157
-8.79235
-8.79616
-8.80258
-8.81059
-8.81981
-8.83008
-8.84122
-8.85299
-8.86519
-8.87769
-8.89036
-8.90312
-8.91588
-8.92858
-8.94116
-8.95359
-8.96582
-8.97784
-8.98962
-9.00114
-9.01239
-9.02337
-9.03405
-9.04444
-9.05452
-9.06431
-9.07378
-9.08295
-9.09181
-9.10036
-9.1086
-9.11653
-8.79157
-8.79237
-8.79619
-8.8026
-8.81059
-8.81976
-8.82996
-8.84099
-8.85263
-8.86469
-8.87702
-8.88952
-8.90209
-8.91466
-8.92715
-8.93952
-8.95173
-8.96374
-8.97554
-8.98709
-8.99838
-9.0094
-9.02015
-9.0306
-9.04075
-9.05061
-9.06016
-9.0694
-9.07834
-9.08698
-9.09531
-9.10334
-9.11108
-8.79032
-8.79118
-8.79508
-8.80161
-8.80969
-8.81892
-8.82914
-8.84016
-8.85176
-8.86374
-8.87598
-8.88837
-8.90081
-8.91323
-8.92556
-8.93778
-8.94982
-8.96166
-8.97328
-8.98466
-8.99577
-9.00662
-9.01718
-9.02745
-9.03742
-9.04709
-9.05646
-9.06553
-9.07429
-9.08275
-9.0909
-9.09874
-9.10627
-8.78769
-8.78864
-8.79275
-8.79951
-8.80783
-8.81724
-8.82759
-8.8387
-8.85033
-8.86231
-8.87449
-8.88679
-8.89911
-8.91139
-8.92357
-8.93561
-8.94746
-8.95911
-8.97053
-8.98169
-8.99259
-9.00322
-9.01356
-9.02361
-9.03336
-9.04281
-9.05196
-9.06081
-9.06935
-9.0776
-9.08555
-9.09321
-9.10059
-8.78349
-8.78461
-8.78905
-8.79623
-8.80493
-8.81467
-8.82528
-8.8366
-8.84839
-8.86047
-8.87272
-8.88504
-8.89736
-8.9096
-8.92172
-8.93368
-8.94544
-8.95698
-8.96828
-8.97932
-8.99009
-9.00058
-9.01077
-9.02068
-9.03028
-9.03958
-9.04858
-9.05727
-9.06567
-9.07375
-9.08154
-9.08902
-9.09618
-8.7775
-8.77887
-8.78383
-8.79165
-8.80095
-8.81116
-8.82215
-8.83375
-8.84574
-8.85792
-8.8702
-8.88251
-8.89476
-8.90691
-8.91891
-8.93072
-8.94233
-8.9537
-8.96481
-8.97567
-8.98624
-8.99653
-9.00653
-9.01623
-9.02563
-9.03473
-9.04353
-9.05203
-9.06022
-9.06813
-9.07574
-9.08308
-9.09014
-8.76938
-8.77113
-8.7769
-8.78568
-8.79582
-8.80674
-8.81836
-8.83051
-8.84294
-8.85547
-8.86801
-8.88049
-8.89287
-8.90509
-8.91711
-8.92892
-8.94049
-8.9518
-8.96284
-8.9736
-8.98408
-8.99425
-9.00413
-9.01371
-9.02298
-9.03195
-9.04061
-9.04896
-9.05701
-9.06476
-9.07221
-9.07935
-9.08617
-8.75867
-8.76103
-8.76806
-8.77821
-8.78939
-8.80102
-8.8132
-8.82578
-8.8385
-8.85122
-8.86387
-8.87641
-8.88879
-8.90097
-8.91292
-8.92464
-8.93609
-8.94728
-8.95818
-8.96879
-8.9791
-8.98912
-8.99883
-9.00824
-9.01735
-9.02615
-9.03465
-9.04284
-9.05074
-9.05835
-9.06567
-9.07273
-9.07951
-8.74467
-8.74799
-8.75705
-8.7694
-8.78233
-8.79538
-8.80877
-8.82231
-8.83574
-8.84895
-8.86195
-8.87473
-8.88725
-8.89951
-8.91149
-8.92319
-8.9346
-8.94571
-8.95652
-8.96703
-8.97723
-8.98712
-8.9967
-9.00597
-9.01492
-9.02357
-9.03191
-9.03994
-9.04767
-9.0551
-9.06222
-9.06904
-9.07554
-8.72627
-8.73136
-8.74345
-8.75796
-8.77191
-8.78577
-8.80006
-8.81437
-8.82833
-8.84192
-8.85521
-8.86819
-8.88085
-8.89317
-8.90516
-8.91683
-8.92819
-8.93922
-8.94993
-8.96034
-8.97042
-8.9802
-8.98966
-8.99881
-9.00765
-9.01619
-9.02442
-9.03235
-9.03999
-9.04734
-9.0544
-9.06119
-9.06772
-8.70135
-8.7105
-8.72989
-8.74964
-8.76607
-8.78146
-8.79698
-8.8121
-8.82647
-8.84027
-8.85365
-8.86665
-8.87926
-8.89149
-8.90336
-8.9149
-8.9261
-8.93696
-8.9475
-8.95771
-8.9676
-8.97717
-8.98641
-8.99535
-9.00397
-9.01228
-9.02028
-9.02798
-9.03539
-9.0425
-9.04932
-9.05584
-9.06207
-8.66641
-8.68006
-8.70569
-8.72895
-8.74791
-8.76593
-8.78356
-8.80001
-8.81523
-8.82961
-8.84337
-8.85657
-8.86925
-8.88147
-8.8933
-8.90475
-8.91585
-8.92661
-8.93705
-8.94718
-8.95699
-8.96649
-8.97568
-8.98457
-8.99316
-9.00145
-9.00944
-9.01714
-9.02454
-9.03164
-9.03844
-9.04493
-9.05109
-8.61901
-8.66667
-8.70605
-8.72632
-8.74259
-8.76094
-8.77891
-8.79485
-8.80941
-8.82333
-8.83677
-8.84966
-8.86203
-8.87396
-8.88551
-8.8967
-8.90754
-8.91804
-8.92823
-8.93811
-8.94769
-8.95697
-8.96595
-8.97464
-8.98305
-8.99117
-8.99901
-9.00659
-9.01391
-9.02099
-9.02785
-9.03455
-9.04111
-8.48469
-8.60686
-8.68152
-8.70574
-8.72206
-8.74308
-8.76356
-8.78077
-8.79609
-8.81091
-8.82543
-8.83954
-8.85326
-8.86668
-8.87982
-8.8927
-8.9053
-8.91761
-8.92963
-8.94135
-8.95276
-8.96385
-8.97461
-8.98504
-8.99514
-9.00489
-9.01431
-9.02338
-9.0321
-9.04048
-9.0485
-9.05615
-9.06355
-9.33302
-9.489
-9.70637
-9.81076
-9.92153
-10.0277
-10.1092
-10.1723
-10.2216
-10.258
-10.2828
-10.2973
-10.3035
-10.3037
-10.3001
-10.2952
-10.2898
-10.2812
-10.2763
-10.2793
-10.2914
-10.3121
-10.34
-10.3732
-10.4095
-10.4474
-10.4856
-10.5232
-10.5593
-10.5933
-10.6241
-10.6509
-10.673
-10.6898
-10.7008
-10.7059
-10.7049
-10.6975
-10.6836
-10.6629
-10.6354
-10.6007
-10.5587
-10.5092
-10.452
-10.3871
-10.3141
-10.233
-10.1436
-10.0455
-9.93872
-9.82287
-9.69779
-9.5633
-9.41926
-9.26555
-9.10211
-8.92895
-8.74612
-8.55373
-8.35197
-8.14111
-7.92147
-7.69348
-7.45765
-7.21457
-6.96489
-6.70936
-6.44874
-6.18383
-5.91547
-5.64451
-5.37184
-5.09841
-4.82521
-4.55327
-4.2837
-4.01766
-3.75637
-3.501
-3.25258
-3.01175
-2.77889
-2.55435
-2.33842
-2.13138
-1.93344
-1.74471
-1.5652
-1.39487
-1.23338
-1.0806
-0.935449
-0.798382
-0.665503
-0.541633
-0.410772
-0.302253
-0.144364
-0.095056
-9.2484
-9.30103
-9.39321
-9.4393
-9.49272
-9.5604
-9.62685
-9.69026
-9.75084
-9.80606
-9.85415
-9.89456
-9.92761
-9.95425
-9.97609
-9.99543
-10.0145
-10.0297
-10.0453
-10.0658
-10.0928
-10.1265
-10.1657
-10.2087
-10.2539
-10.2997
-10.3448
-10.3885
-10.4299
-10.4683
-10.5029
-10.5329
-10.5577
-10.5767
-10.5896
-10.5962
-10.5963
-10.5898
-10.5766
-10.5564
-10.5291
-10.4947
-10.4528
-10.4034
-10.3463
-10.2814
-10.2086
-10.1276
-10.0383
-9.94045
-9.83391
-9.71845
-9.59387
-9.46
-9.31671
-9.16392
-9.00156
-8.82964
-8.64823
-8.45745
-8.25748
-8.0486
-7.83113
-7.60551
-7.37222
-7.13185
-6.88505
-6.63253
-6.37505
-6.11339
-5.84837
-5.58082
-5.31162
-5.0417
-4.77201
-4.50357
-4.23745
-3.97477
-3.71671
-3.46439
-3.21877
-2.98051
-2.75001
-2.52762
-2.31364
-2.10833
-1.91191
-1.7245
-1.54611
-1.3767
-1.21594
-1.06375
-0.919022
-0.782287
-0.649675
-0.526176
-0.395894
-0.28868
-0.133417
-0.0882827
-9.20984
-9.23122
-9.27575
-9.30327
-9.32663
-9.35927
-9.39463
-9.42945
-9.46452
-9.49919
-9.53238
-9.56351
-9.59246
-9.61961
-9.64593
-9.67298
-9.70196
-9.7319
-9.763
-9.79806
-9.83867
-9.88483
-9.93559
-9.98943
-10.0447
-10.0999
-10.1538
-10.2054
-10.2541
-10.299
-10.3393
-10.3745
-10.4039
-10.4269
-10.4434
-10.4532
-10.4561
-10.452
-10.4408
-10.4225
-10.3968
-10.3638
-10.3233
-10.2751
-10.2192
-10.1554
-10.0836
-10.0037
-9.91552
-9.81887
-9.71355
-9.5994
-9.47623
-9.34388
-9.20224
-9.05123
-8.8908
-8.72096
-8.54178
-8.3534
-8.15599
-7.94984
-7.73526
-7.51268
-7.28259
-7.04555
-6.80222
-6.55326
-6.29944
-6.0415
-5.78025
-5.51652
-5.25114
-4.98504
-4.71913
-4.45443
-4.19195
-3.93279
-3.67808
-3.42888
-3.18614
-2.95049
-2.72237
-2.50211
-2.29004
-2.08643
-1.89147
-1.7053
-1.52794
-1.35936
-1.19925
-1.04753
-0.903141
-0.766645
-0.634243
-0.511034
-0.381384
-0.275329
-0.123089
-0.0813604
-9.20772
-9.23077
-9.26709
-9.29522
-9.31412
-9.33467
-9.3551
-9.37247
-9.38782
-9.40197
-9.4148
-9.42645
-9.43746
-9.44868
-9.46127
-9.47669
-9.49623
-9.52033
-9.54818
-9.58134
-9.62103
-9.66716
-9.71874
-9.77427
-9.83209
-9.89059
-9.9484
-10.0044
-10.0576
-10.107
-10.152
-10.1916
-10.2253
-10.2525
-10.273
-10.2864
-10.2927
-10.2918
-10.2836
-10.268
-10.245
-10.2143
-10.176
-10.13
-10.0762
-10.0144
-9.94466
-9.86674
-9.78054
-9.68589
-9.58263
-9.47059
-9.34961
-9.21955
-9.08029
-8.93178
-8.77397
-8.60688
-8.4306
-8.24524
-8.051
-7.84816
-7.63703
-7.41803
-7.19164
-6.95841
-6.71897
-6.47399
-6.22419
-5.97031
-5.71313
-5.45347
-5.19214
-4.93004
-4.66808
-4.40722
-4.14848
-3.8929
-3.64157
-3.39552
-3.15564
-2.92258
-2.69678
-2.4786
-2.26837
-2.06635
-1.87275
-1.68772
-1.51127
-1.34339
-1.1838
-1.03243
-0.888264
-0.751887
-0.619615
-0.496581
-0.367594
-0.262495
-0.113619
-0.0744422
-9.21207
-9.23413
-9.26188
-9.2855
-9.30233
-9.31917
-9.33624
-9.35104
-9.36355
-9.37417
-9.3827
-9.38911
-9.39387
-9.39783
-9.40214
-9.40825
-9.41761
-9.43107
-9.44888
-9.47216
-9.50195
-9.53835
-9.58065
-9.62771
-9.67812
-9.73045
-9.78338
-9.83572
-9.88638
-9.93436
-9.97868
-10.0185
-10.0529
-10.0815
-10.1036
-10.119
-10.1275
-10.1288
-10.1229
-10.1096
-10.0889
-10.0605
-10.0245
-9.98077
-9.92918
-9.86966
-9.80212
-9.72645
-9.64251
-9.55017
-9.44928
-9.33968
-9.22121
-9.09377
-8.95724
-8.81157
-8.65674
-8.49275
-8.3197
-8.13771
-7.94697
-7.74775
-7.54037
-7.32523
-7.1028
-6.87363
-6.6383
-6.39748
-6.15186
-5.90218
-5.64919
-5.39368
-5.13647
-4.87842
-4.62042
-4.36341
-4.10838
-3.85634
-3.60833
-3.36535
-3.12825
-2.89767
-2.67409
-2.45787
-2.24934
-2.04877
-1.85639
-1.67233
-1.49664
-1.32932
-1.17009
-1.01892
-0.874833
-0.738433
-0.606186
-0.483196
-0.354859
-0.250507
-0.105192
-0.0677893
-9.21345
-9.23402
-9.25764
-9.28003
-9.29822
-9.31526
-9.33179
-9.34607
-9.35772
-9.36704
-9.37406
-9.37886
-9.38189
-9.38391
-9.38591
-9.38908
-9.39461
-9.40338
-9.41602
-9.43322
-9.45583
-9.48406
-9.51748
-9.55527
-9.59635
-9.63959
-9.68387
-9.72818
-9.77155
-9.81305
-9.85177
-9.88685
-9.9175
-9.94308
-9.96304
-9.97697
-9.98453
-9.98548
-9.97958
-9.96666
-9.94654
-9.91908
-9.88416
-9.84165
-9.79144
-9.73345
-9.66754
-9.59361
-9.51154
-9.42117
-9.32236
-9.21496
-9.09884
-8.97387
-8.83996
-8.69705
-8.54512
-8.38419
-8.21434
-8.03569
-7.84844
-7.65283
-7.44919
-7.2379
-7.01941
-6.79425
-6.563
-6.32629
-6.08481
-5.83926
-5.59038
-5.33895
-5.08576
-4.83165
-4.5775
-4.32422
-4.07277
-3.82413
-3.5793
-3.33923
-3.10476
-2.87652
-2.655
-2.44057
-2.23357
-2.03429
-1.84295
-1.65969
-1.48458
-1.31763
-1.15859
-1.00745
-0.863275
-0.726692
-0.594343
-0.471245
-0.343509
-0.23967
-0.0979935
-0.0616066
-9.21348
-9.23324
-9.25456
-9.27519
-9.2928
-9.30868
-9.32365
-9.33685
-9.34785
-9.35684
-9.36391
-9.36912
-9.37281
-9.37557
-9.37821
-9.38168
-9.38697
-9.39487
-9.40604
-9.42099
-9.44038
-9.46443
-9.4928
-9.52481
-9.55958
-9.59615
-9.63356
-9.67094
-9.70743
-9.74222
-9.77451
-9.80354
-9.82863
-9.84918
-9.86467
-9.87468
-9.87889
-9.87699
-9.86875
-9.85394
-9.83237
-9.80384
-9.76819
-9.72529
-9.67498
-9.61715
-9.55165
-9.47836
-9.39713
-9.30781
-9.21025
-9.1043
-8.98982
-8.8667
-8.73483
-8.59415
-8.44464
-8.28631
-8.11924
-7.94355
-7.75941
-7.56707
-7.36684
-7.15908
-6.94424
-6.72281
-6.49536
-6.26251
-6.02491
-5.78324
-5.53824
-5.29065
-5.04125
-4.79087
-4.54034
-4.29058
-4.04249
-3.79704
-3.55518
-3.31782
-3.08578
-2.85969
-2.64003
-2.4272
-2.22155
-2.02336
-1.83286
-1.65021
-1.47549
-1.30872
-1.14968
-0.99838
-0.853955
-0.717019
-0.584426
-0.461058
-0.333842
-0.230274
-0.0921795
-0.056118
-9.21288
-9.23161
-9.25112
-9.27009
-9.28714
-9.30268
-9.31725
-9.33037
-9.34158
-9.35091
-9.35843
-9.36424
-9.36862
-9.37212
-9.37542
-9.37937
-9.38479
-9.39243
-9.40287
-9.41664
-9.4342
-9.45571
-9.48091
-9.50922
-9.53988
-9.57205
-9.60487
-9.63751
-9.66918
-9.69912
-9.7266
-9.75092
-9.77144
-9.78762
-9.79898
-9.80514
-9.80576
-9.80058
-9.78935
-9.77185
-9.74788
-9.71727
-9.67985
-9.63545
-9.58394
-9.52516
-9.45899
-9.38527
-9.30386
-9.21461
-9.11736
-9.01195
-8.89826
-8.77615
-8.64553
-8.50634
-8.35853
-8.20214
-8.03721
-7.86387
-7.68227
-7.49265
-7.29531
-7.09059
-6.87892
-6.66079
-6.43672
-6.20732
-5.97321
-5.73507
-5.4936
-5.24952
-5.00361
-4.75665
-4.50947
-4.26295
-4.01797
-3.77545
-3.53632
-3.30145
-3.07162
-2.84747
-2.62948
-2.41805
-2.21354
-2.01624
-1.82639
-1.64417
-1.46964
-1.30286
-1.14365
-0.992003
-0.847149
-0.70969
-0.576707
-0.452902
-0.326093
-0.222548
-0.0878578
-0.0514919
-9.21042
-9.22834
-9.24664
-9.26446
-9.28095
-9.29608
-9.31008
-9.32272
-9.33368
-9.34295
-9.35063
-9.35687
-9.36194
-9.36629
-9.37053
-9.37532
-9.38139
-9.38937
-9.39977
-9.41308
-9.4296
-9.44949
-9.47253
-9.49824
-9.52594
-9.55491
-9.58436
-9.61354
-9.64169
-9.6681
-9.69207
-9.71295
-9.73015
-9.74312
-9.75141
-9.75464
-9.75248
-9.74467
-9.73096
-9.71113
-9.68501
-9.65241
-9.61316
-9.56712
-9.51415
-9.4541
-9.38684
-9.31222
-9.23012
-9.14037
-9.04283
-8.93736
-8.82381
-8.70209
-8.57208
-8.43373
-8.287
-8.13191
-7.96851
-7.79692
-7.61728
-7.42983
-7.23483
-7.03264
-6.82364
-6.60832
-6.38718
-6.1608
-5.92978
-5.69478
-5.45647
-5.21557
-4.97281
-4.72897
-4.48485
-4.24129
-3.99916
-3.75934
-3.52271
-3.2901
-3.06229
-2.83987
-2.62336
-2.41315
-2.2096
-2.01302
-1.82364
-1.64165
-1.46715
-1.30019
-1.14062
-0.988468
-0.843024
-0.704881
-0.571365
-0.446962
-0.320429
-0.216663
-0.0850903
-0.0478643
-9.20837
-9.22543
-9.24264
-9.25944
-9.27517
-9.28976
-9.3033
-9.31564
-9.32659
-9.33609
-9.34422
-9.3511
-9.35697
-9.3622
-9.36731
-9.37288
-9.3795
-9.38773
-9.39805
-9.41086
-9.42643
-9.44488
-9.46602
-9.48945
-9.51458
-9.54077
-9.56732
-9.59352
-9.61868
-9.64213
-9.6632
-9.68127
-9.69577
-9.70618
-9.71205
-9.71301
-9.70872
-9.6989
-9.68331
-9.66173
-9.63397
-9.59984
-9.55918
-9.51184
-9.45769
-9.39657
-9.32836
-9.25293
-9.17014
-9.07984
-8.98191
-8.8762
-8.7626
-8.641
-8.51132
-8.37349
-8.22749
-8.07333
-7.91108
-7.74084
-7.56277
-7.37707
-7.18402
-6.98395
-6.77724
-6.56435
-6.34576
-6.12205
-5.89378
-5.66159
-5.42614
-5.18812
-4.94825
-4.70727
-4.46596
-4.22514
-3.98564
-3.7483
-3.51397
-3.28345
-3.05747
-2.83663
-2.62144
-2.4123
-2.20956
-2.01354
-1.82449
-1.64259
-1.46796
-1.30067
-1.14061
-0.987799
-0.841624
-0.702655
-0.568473
-0.443321
-0.31692
-0.212698
-0.0838678
-0.0452992
-9.20453
-9.22092
-9.2373
-9.25329
-9.26843
-9.28257
-9.29577
-9.30789
-9.31877
-9.32837
-9.33676
-9.34405
-9.35048
-9.35637
-9.36217
-9.36838
-9.37549
-9.38401
-9.39433
-9.4068
-9.42166
-9.43895
-9.45854
-9.48007
-9.50303
-9.52685
-9.55091
-9.57455
-9.59712
-9.618
-9.63656
-9.65222
-9.66441
-9.67265
-9.6765
-9.67557
-9.66953
-9.65809
-9.641
-9.61804
-9.58901
-9.55371
-9.51199
-9.46368
-9.40864
-9.34674
-9.27784
-9.20181
-9.11851
-9.02782
-8.92961
-8.82376
-8.71014
-8.58867
-8.45927
-8.3219
-8.17653
-8.02318
-7.86192
-7.69286
-7.51615
-7.332
-7.14067
-6.94249
-6.73784
-6.52714
-6.31088
-6.0896
-5.86385
-5.63426
-5.40146
-5.16612
-4.92893
-4.69063
-4.45196
-4.21371
-3.97667
-3.74167
-3.5095
-3.28093
-3.05667
-2.8373
-2.62331
-2.41512
-2.21309
-2.01753
-1.82869
-1.64677
-1.4719
-1.30416
-1.14348
-0.989896
-0.842873
-0.702961
-0.567997
-0.441967
-0.315547
-0.21065
-0.0841219
-0.0437995
-9.20136
-9.21706
-9.23268
-9.24793
-9.2625
-9.27618
-9.28899
-9.30085
-9.31163
-9.32131
-9.32993
-9.33763
-9.3446
-9.35113
-9.35758
-9.36437
-9.37193
-9.38068
-9.39096
-9.40307
-9.4172
-9.43339
-9.45151
-9.47125
-9.49217
-9.51376
-9.53546
-9.55668
-9.57681
-9.59527
-9.61147
-9.62486
-9.63489
-9.64111
-9.64307
-9.6404
-9.63276
-9.61987
-9.60145
-9.57729
-9.54716
-9.51089
-9.46829
-9.41921
-9.36349
-9.301
-9.2316
-9.15516
-9.07155
-8.98064
-8.88231
-8.77644
-8.66293
-8.54169
-8.41266
-8.27579
-8.13109
-7.97856
-7.81828
-7.65037
-7.47497
-7.29231
-7.10262
-6.90624
-6.70354
-6.49492
-6.28087
-6.0619
-5.83856
-5.61144
-5.38117
-5.14839
-4.91378
-4.67805
-4.44191
-4.20613
-3.97146
-3.7387
-3.50861
-3.28191
-3.05929
-2.84131
-2.62846
-2.42116
-2.21976
-2.02458
-1.83587
-1.65385
-1.47866
-1.31039
-1.149
-0.99456
-0.846599
-0.705652
-0.569812
-0.442791
-0.316202
-0.210426
-0.0857209
-0.0432969
-9.19678
-9.21191
-9.2269
-9.24154
-9.2556
-9.26891
-9.28138
-9.29301
-9.30373
-9.31349
-9.32232
-9.33034
-9.33774
-9.34475
-9.35169
-9.35891
-9.36678
-9.37565
-9.38583
-9.39755
-9.41098
-9.42616
-9.44295
-9.46108
-9.48014
-9.49971
-9.51927
-9.53828
-9.55619
-9.57244
-9.58648
-9.59778
-9.60584
-9.6102
-9.61045
-9.60619
-9.5971
-9.58289
-9.56329
-9.53805
-9.50697
-9.46985
-9.42651
-9.37679
-9.32053
-9.25758
-9.18781
-9.11109
-9.02729
-8.93628
-8.83794
-8.73217
-8.61888
-8.49797
-8.36939
-8.23311
-8.08913
-7.93748
-7.77823
-7.61149
-7.43742
-7.25624
-7.06819
-6.87359
-6.6728
-6.46624
-6.25435
-6.03765
-5.81666
-5.59197
-5.36418
-5.13391
-4.90183
-4.66861
-4.43495
-4.20159
-3.96925
-3.73868
-3.51062
-3.28575
-3.06473
-2.84811
-2.63637
-2.42992
-2.22911
-2.03427
-1.84565
-1.66348
-1.48791
-1.31905
-1.1569
-1.00153
-0.85257
-0.710519
-0.573723
-0.445618
-0.318713
-0.211871
-0.088492
-0.0436714
-9.19276
-9.20733
-9.22175
-9.23582
-9.24938
-9.26229
-9.27444
-9.28581
-9.29641
-9.3062
-9.31518
-9.32346
-9.33119
-9.3386
-9.34594
-9.35351
-9.36162
-9.37056
-9.3806
-9.39193
-9.40467
-9.41887
-9.43439
-9.45097
-9.46827
-9.48591
-9.50342
-9.52031
-9.53608
-9.55019
-9.56214
-9.57142
-9.57757
-9.58012
-9.57868
-9.57288
-9.56238
-9.54688
-9.52612
-9.49985
-9.46786
-9.42994
-9.38591
-9.3356
-9.27884
-9.2155
-9.14544
-9.06851
-8.98459
-8.89356
-8.79531
-8.68972
-8.57672
-8.45622
-8.32818
-8.19256
-8.04937
-7.89865
-7.74047
-7.57495
-7.40225
-7.22258
-7.03619
-6.84339
-6.64453
-6.44002
-6.2303
-6.01585
-5.79722
-5.57494
-5.34961
-5.12185
-4.89228
-4.66156
-4.43037
-4.19941
-3.96939
-3.741
-3.51495
-3.29191
-3.07248
-2.85721
-2.64657
-2.44095
-2.24073
-2.0462
-1.85765
-1.6753
-1.49932
-1.32984
-1.16688
-1.01054
-0.860529
-0.717321
-0.579503
-0.450235
-0.322866
-0.214787
-0.0922376
-0.0447667
-9.18779
-9.20187
-9.21576
-9.22934
-9.24246
-9.25501
-9.26689
-9.27806
-9.28852
-9.29829
-9.30739
-9.31587
-9.32387
-9.33158
-9.33922
-9.34703
-9.35528
-9.3642
-9.37403
-9.38492
-9.39697
-9.41019
-9.42448
-9.4396
-9.45525
-9.47107
-9.48666
-9.50157
-9.51532
-9.52742
-9.5374
-9.54478
-9.54911
-9.54996
-9.54694
-9.53967
-9.52784
-9.51113
-9.48929
-9.46206
-9.42922
-9.39057
-9.34591
-9.29507
-9.23789
-9.17421
-9.10391
-9.02683
-8.94286
-8.85187
-8.75376
-8.64842
-8.53577
-8.41573
-8.28828
-8.15337
-8.01103
-7.86129
-7.70423
-7.53997
-7.36868
-7.19055
-7.00585
-6.81487
-6.61796
-6.41552
-6.20798
-5.99581
-5.77953
-5.55968
-5.33683
-5.11158
-4.88453
-4.65632
-4.42761
-4.19906
-3.97135
-3.74516
-3.52114
-3.29992
-3.0821
-2.8682
-2.65866
-2.45389
-2.25425
-2.06004
-1.87154
-1.689
-1.51258
-1.34245
-1.17866
-1.02133
-0.870225
-0.725819
-0.58692
-0.45642
-0.328438
-0.218962
-0.0967601
-0.0464172
-9.18316
-9.19677
-9.2102
-9.22333
-9.23604
-9.24825
-9.25986
-9.27084
-9.28117
-9.29087
-9.3
-9.30861
-9.31679
-9.32471
-9.33255
-9.34051
-9.34881
-9.35765
-9.36722
-9.37764
-9.389
-9.40127
-9.41437
-9.4281
-9.44216
-9.45625
-9.47
-9.483
-9.49481
-9.50497
-9.51304
-9.51856
-9.52112
-9.52029
-9.5157
-9.50698
-9.49382
-9.47591
-9.45298
-9.42479
-9.3911
-9.35171
-9.30642
-9.25506
-9.19747
-9.13347
-9.06295
-8.98575
-8.90175
-8.81083
-8.71289
-8.60783
-8.49557
-8.37604
-8.24921
-8.11506
-7.97359
-7.82487
-7.66897
-7.50601
-7.33615
-7.1596
-6.97661
-6.78748
-6.59255
-6.3922
-6.18685
-5.97698
-5.76309
-5.54568
-5.32533
-5.10261
-4.8781
-4.65243
-4.42621
-4.2001
-3.97473
-3.75075
-3.52877
-3.30941
-3.09323
-2.88071
-2.6723
-2.46839
-2.26935
-2.07546
-1.88703
-1.70429
-1.52744
-1.35665
-1.19201
-1.03365
-0.881432
-0.735795
-0.595758
-0.463962
-0.335218
-0.224195
-0.10188
-0.0484713
-9.17799
-9.19117
-9.20415
-9.21686
-9.22919
-9.24107
-9.25242
-9.26321
-9.27342
-9.28305
-9.29216
-9.30082
-9.30912
-9.31718
-9.32513
-9.33316
-9.34144
-9.35013
-9.35939
-9.36931
-9.37995
-9.39127
-9.40321
-9.41558
-9.42814
-9.44059
-9.45259
-9.46378
-9.47373
-9.48204
-9.48829
-9.49204
-9.49289
-9.49045
-9.48435
-9.47424
-9.45979
-9.44072
-9.41675
-9.38763
-9.35313
-9.31304
-9.26716
-9.21531
-9.15732
-9.09304
-9.02232
-8.94503
-8.86103
-8.77021
-8.67247
-8.56772
-8.45588
-8.33688
-8.2107
-8.07733
-7.93678
-7.7891
-7.63437
-7.47273
-7.30433
-7.12938
-6.94812
-6.76085
-6.56791
-6.36967
-6.16655
-5.959
-5.7475
-5.53256
-5.31473
-5.09456
-4.87262
-4.6495
-4.42582
-4.20216
-3.97916
-3.75742
-3.53753
-3.32005
-3.10553
-2.89443
-2.68719
-2.48418
-2.28575
-2.09222
-1.90386
-1.72093
-1.54365
-1.3722
-1.2067
-1.04731
-0.89395
-0.747056
-0.605831
-0.472681
-0.343024
-0.230319
-0.107454
-0.0508171
-9.17299
-9.18576
-9.19835
-9.21067
-9.22265
-9.23422
-9.24533
-9.25593
-9.26601
-9.27557
-9.28463
-9.29328
-9.30161
-9.30972
-9.31772
-9.32574
-9.33391
-9.34239
-9.35128
-9.36066
-9.37056
-9.38094
-9.39177
-9.40286
-9.41398
-9.42486
-9.4352
-9.44464
-9.45282
-9.45935
-9.46382
-9.46585
-9.46504
-9.46101
-9.45342
-9.44193
-9.42621
-9.40597
-9.38095
-9.3509
-9.31557
-9.27477
-9.22828
-9.17593
-9.11754
-9.05296
-8.98205
-8.90465
-8.82066
-8.72995
-8.63242
-8.52798
-8.41656
-8.29811
-8.1726
-8.04002
-7.90039
-7.75376
-7.60023
-7.43991
-7.27298
-7.09964
-6.92013
-6.73474
-6.5438
-6.34768
-6.14679
-5.94156
-5.73247
-5.52003
-5.30473
-5.08714
-4.86779
-4.64726
-4.42612
-4.20496
-3.98435
-3.76488
-3.5471
-3.33155
-3.11873
-2.90909
-2.70305
-2.50097
-2.3032
-2.11004
-1.92178
-1.73869
-1.56098
-1.38888
-1.22252
-1.0621
-0.907586
-0.759419
-0.61696
-0.482407
-0.351692
-0.237189
-0.113367
-0.0533823
-9.16772
-9.18011
-9.19231
-9.20426
-9.2159
-9.22717
-9.23803
-9.24842
-9.25835
-9.26781
-9.27682
-9.28543
-9.29371
-9.30179
-9.30974
-9.31768
-9.32571
-9.33391
-9.3424
-9.3512
-9.36036
-9.36986
-9.37961
-9.38946
-9.3992
-9.40858
-9.41732
-9.4251
-9.43158
-9.43639
-9.43917
-9.43953
-9.43711
-9.43156
-9.42252
-9.40967
-9.39271
-9.37134
-9.34529
-9.31432
-9.27819
-9.23668
-9.1896
-9.13676
-9.07799
-9.01313
-8.94202
-8.86454
-8.78056
-8.68996
-8.59265
-8.48854
-8.37756
-8.25966
-8.13482
-8.00303
-7.86433
-7.71876
-7.56642
-7.40744
-7.24198
-7.07024
-6.89248
-6.70896
-6.52003
-6.32603
-6.12737
-5.92448
-5.71782
-5.50787
-5.29513
-5.08012
-4.86338
-4.64546
-4.42689
-4.20825
-3.99007
-3.7729
-3.55727
-3.34367
-3.13259
-2.92445
-2.71964
-2.51852
-2.32144
-2.12868
-1.94055
-1.75731
-1.5792
-1.40645
-1.23925
-1.07779
-0.922128
-0.772679
-0.62895
-0.492957
-0.361051
-0.244658
-0.119512
-0.0561166
-9.16252
-9.17455
-9.1864
-9.19802
-9.20934
-9.22032
-9.23093
-9.24112
-9.25089
-9.26023
-9.26915
-9.27769
-9.2859
-9.29387
-9.3017
-9.30947
-9.31726
-9.32514
-9.33318
-9.34142
-9.34987
-9.3585
-9.36722
-9.37588
-9.3843
-9.39225
-9.39947
-9.40566
-9.4105
-9.41366
-9.41479
-9.41354
-9.40956
-9.40251
-9.39205
-9.37788