/*--------------------------------*- C++ -*----------------------------------*\
| =========                 |                                                 |
| \\      /  F ield         | OpenFOAM: The Open Source CFD Toolbox           |
|  \\    /   O peration     | Version:  4.1                                   |
|   \\  /    A nd           | Web:      www.OpenFOAM.org                      |
|    \\/     M anipulation  |                                                 |
\*---------------------------------------------------------------------------*/
FoamFile
{
    version     2.0;
    format      ascii;
    class       surfaceScalarField;
    location    "1000";
    object      phi;
}
// * * * * * * * * * * * * * * * * * * * * * * * * * * * * * * * * * * * * * //

dimensions      [0 3 -1 0 0 0 0];

internalField   nonuniform List<scalar> 
13452
(
5.95313e-05
7.37189e-07
5.86592e-05
8.72055e-07
5.78162e-05
8.43023e-07
5.69811e-05
8.35093e-07
5.61551e-05
8.26045e-07
5.53509e-05
8.04137e-07
5.4576e-05
7.74945e-07
5.38328e-05
7.43204e-07
5.31224e-05
7.10328e-07
5.24455e-05
6.76897e-07
5.1802e-05
6.43565e-07
5.11911e-05
6.10909e-07
5.06118e-05
5.79288e-07
5.00629e-05
5.4889e-07
4.95431e-05
5.19806e-07
4.9051e-05
4.92069e-07
4.85854e-05
4.65671e-07
4.81448e-05
4.40577e-07
4.7728e-05
4.16736e-07
4.73339e-05
3.9409e-07
4.69614e-05
3.72575e-07
4.66092e-05
3.52128e-07
4.62766e-05
3.32688e-07
4.59624e-05
3.14193e-07
4.56658e-05
2.96585e-07
4.5386e-05
2.79813e-07
4.51222e-05
2.6381e-07
4.48736e-05
2.48582e-07
4.46397e-05
2.33879e-07
4.44193e-05
2.20427e-07
4.42137e-05
2.05579e-07
4.40179e-05
1.95795e-07
1.6799e-07
4.38499e-05
6.23701e-05
3.5739e-07
6.26549e-05
5.87255e-07
6.28762e-05
6.21723e-07
6.30527e-05
6.58587e-07
6.31874e-05
6.91411e-07
6.32837e-05
7.07861e-07
6.33451e-05
7.1353e-07
6.33748e-05
7.13499e-07
6.33761e-05
7.09031e-07
6.33524e-05
7.00535e-07
6.33073e-05
6.88731e-07
6.32438e-05
6.74416e-07
6.31648e-05
6.58228e-07
6.30731e-05
6.40651e-07
6.29708e-05
6.22078e-07
6.286e-05
6.02836e-07
6.27425e-05
5.83187e-07
6.26197e-05
5.63338e-07
6.2493e-05
5.43453e-07
6.23635e-05
5.23659e-07
6.2232e-05
5.04058e-07
6.20994e-05
4.84725e-07
6.19663e-05
4.65717e-07
6.18335e-05
4.47077e-07
6.17012e-05
4.28833e-07
6.157e-05
4.11005e-07
6.14402e-05
3.93595e-07
6.13122e-05
3.76641e-07
6.1186e-05
3.60024e-07
6.10624e-05
3.44075e-07
6.09402e-05
3.2773e-07
6.08228e-05
3.13252e-07
2.97044e-07
6.06937e-05
6.38365e-05
2.82304e-07
6.38978e-05
5.25936e-07
6.39331e-05
5.86407e-07
6.39614e-05
6.30299e-07
6.39849e-05
6.67942e-07
6.40043e-05
6.88445e-07
6.40213e-05
6.96575e-07
6.40366e-05
6.982e-07
6.40503e-05
6.95271e-07
6.40624e-05
6.88411e-07
6.40728e-05
6.78394e-07
6.40812e-05
6.66033e-07
6.40874e-05
6.51948e-07
6.40915e-05
6.3659e-07
6.40933e-05
6.20311e-07
6.40927e-05
6.03397e-07
6.40898e-05
5.86078e-07
6.40846e-05
5.6853e-07
6.40772e-05
5.50892e-07
6.40676e-05
5.33269e-07
6.40559e-05
5.15744e-07
6.40422e-05
4.98381e-07
6.40267e-05
4.81225e-07
6.40095e-05
4.64312e-07
6.39907e-05
4.47663e-07
6.39704e-05
4.31295e-07
6.39488e-05
4.15209e-07
6.3926e-05
3.99422e-07
6.39021e-05
3.83882e-07
6.38775e-05
3.68684e-07
6.38516e-05
3.53588e-07
6.3826e-05
3.38877e-07
3.24583e-07
6.37985e-05
6.5644e-05
2.21346e-07
6.57108e-05
4.59203e-07
6.57547e-05
5.42439e-07
6.57894e-05
5.95592e-07
6.5819e-05
6.38406e-07
6.58438e-05
6.63645e-07
6.5865e-05
6.75382e-07
6.58835e-05
6.79617e-07
6.59001e-05
6.78755e-07
6.59148e-05
6.7363e-07
6.59282e-05
6.65089e-07
6.59402e-05
6.53994e-07
6.59511e-05
6.41012e-07
6.59611e-05
6.26628e-07
6.59702e-05
6.1122e-07
6.59785e-05
5.95096e-07
6.59861e-05
5.78498e-07
6.5993e-05
5.61615e-07
6.59993e-05
5.44594e-07
6.6005e-05
5.27545e-07
6.60102e-05
5.10556e-07
6.60149e-05
4.93689e-07
6.60191e-05
4.76992e-07
6.60229e-05
4.60498e-07
6.60264e-05
4.44228e-07
6.60295e-05
4.28197e-07
6.60323e-05
4.12403e-07
6.60348e-05
3.96856e-07
6.60372e-05
3.81522e-07
6.60394e-05
3.6644e-07
6.60415e-05
3.51516e-07
6.60435e-05
3.36853e-07
3.2281e-07
6.60453e-05
6.75014e-05
1.76691e-07
6.75606e-05
4.00047e-07
6.7606e-05
4.97072e-07
6.76451e-05
5.56441e-07
6.76814e-05
6.0216e-07
6.77143e-05
6.30726e-07
6.77441e-05
6.45522e-07
6.77716e-05
6.52144e-07
6.77972e-05
6.53209e-07
6.7821e-05
6.49743e-07
6.78435e-05
6.42666e-07
6.78646e-05
6.32876e-07
6.78845e-05
6.21068e-07
6.79034e-05
6.07747e-07
6.79213e-05
5.93309e-07
6.79383e-05
5.78069e-07
6.79546e-05
5.6228e-07
6.797e-05
5.46135e-07
6.79849e-05
5.29787e-07
6.7999e-05
5.13352e-07
6.80127e-05
4.96917e-07
6.80258e-05
4.80552e-07
6.80385e-05
4.64303e-07
6.80508e-05
4.48206e-07
6.80627e-05
4.32284e-07
6.80744e-05
4.1655e-07
6.80858e-05
4.01006e-07
6.8097e-05
3.85653e-07
6.8108e-05
3.70473e-07
6.8119e-05
3.5547e-07
6.81299e-05
3.40613e-07
6.81409e-05
3.25913e-07
3.11531e-07
6.81521e-05
6.94169e-05
1.43865e-07
6.94686e-05
3.48321e-07
6.95132e-05
4.5241e-07
6.95533e-05
5.16338e-07
6.95912e-05
5.64287e-07
6.96263e-05
5.95613e-07
6.96587e-05
6.13119e-07
6.9689e-05
6.21897e-07
6.97175e-05
6.24711e-07
6.97444e-05
6.22775e-07
6.977e-05
6.17076e-07
6.97944e-05
6.08532e-07
6.98176e-05
5.97851e-07
6.98398e-05
5.85553e-07
6.98611e-05
5.72045e-07
6.98815e-05
5.57651e-07
6.99011e-05
5.4263e-07
6.99201e-05
5.27183e-07
6.99384e-05
5.11466e-07
6.99561e-05
4.95601e-07
6.99734e-05
4.7968e-07
6.99902e-05
4.63776e-07
7.00065e-05
4.47938e-07
7.00225e-05
4.32205e-07
7.00382e-05
4.166e-07
7.00536e-05
4.01138e-07
7.00688e-05
3.85821e-07
7.00838e-05
3.70649e-07
7.00987e-05
3.55607e-07
7.01135e-05
3.40683e-07
7.01282e-05
3.25856e-07
7.01431e-05
3.11074e-07
2.96402e-07
7.01582e-05
7.13907e-05
1.1945e-07
7.14348e-05
3.04264e-07
7.14764e-05
4.10817e-07
7.1515e-05
4.77777e-07
7.15522e-05
5.27081e-07
7.15874e-05
5.60331e-07
7.16206e-05
5.79989e-07
7.16519e-05
5.90598e-07
7.16816e-05
5.94955e-07
7.171e-05
5.94401e-07
7.17371e-05
5.89962e-07
7.17631e-05
5.8256e-07
7.1788e-05
5.72913e-07
7.1812e-05
5.61557e-07
7.18352e-05
5.48908e-07
7.18575e-05
5.35299e-07
7.18792e-05
5.20995e-07
7.19001e-05
5.06202e-07
7.19205e-05
4.91082e-07
7.19404e-05
4.75761e-07
7.19597e-05
4.60335e-07
7.19786e-05
4.44878e-07
7.19971e-05
4.29443e-07
7.20152e-05
4.1407e-07
7.2033e-05
3.98785e-07
7.20506e-05
3.83601e-07
7.20679e-05
3.68523e-07
7.2085e-05
3.53548e-07
7.21019e-05
3.38664e-07
7.21188e-05
3.23849e-07
7.21355e-05
3.09076e-07
7.21523e-05
2.94276e-07
2.79455e-07
7.21693e-05
7.34237e-05
1.00988e-07
7.34611e-05
2.66878e-07
7.34997e-05
3.72237e-07
7.35369e-05
4.40544e-07
7.35736e-05
4.9038e-07
7.36091e-05
5.24879e-07
7.36428e-05
5.46272e-07
7.36749e-05
5.58487e-07
7.37056e-05
5.6425e-07
7.3735e-05
5.64983e-07
7.37633e-05
5.61737e-07
7.37904e-05
5.55435e-07
7.38165e-05
5.46799e-07
7.38417e-05
5.36374e-07
7.3866e-05
5.24584e-07
7.38895e-05
5.11765e-07
7.39124e-05
4.98186e-07
7.39345e-05
4.84059e-07
7.3956e-05
4.69548e-07
7.3977e-05
4.54783e-07
7.39975e-05
4.39862e-07
7.40175e-05
4.24864e-07
7.40371e-05
4.09843e-07
7.40563e-05
3.94842e-07
7.40752e-05
3.79887e-07
7.40938e-05
3.64996e-07
7.41122e-05
3.50173e-07
7.41303e-05
3.35415e-07
7.41483e-05
3.20711e-07
7.41661e-05
3.06038e-07
7.41838e-05
2.91367e-07
7.42014e-05
2.76638e-07
2.61844e-07
7.4219e-05
7.55168e-05
8.66838e-08
7.55485e-05
2.35119e-07
7.55839e-05
3.36838e-07
7.56193e-05
4.05165e-07
7.56547e-05
4.54949e-07
7.56895e-05
4.9013e-07
7.5723e-05
5.12802e-07
7.57551e-05
5.26318e-07
7.57861e-05
5.33269e-07
7.5816e-05
5.35128e-07
7.58447e-05
5.32955e-07
7.58725e-05
5.27659e-07
7.58994e-05
5.19961e-07
7.59253e-05
5.10409e-07
7.59505e-05
4.99428e-07
7.59749e-05
4.87359e-07
7.59986e-05
4.74474e-07
7.60217e-05
4.60986e-07
7.60442e-05
4.47064e-07
7.60661e-05
4.3284e-07
7.60875e-05
4.18417e-07
7.61085e-05
4.03873e-07
7.61291e-05
3.89268e-07
7.61493e-05
3.74645e-07
7.61692e-05
3.60033e-07
7.61887e-05
3.45451e-07
7.6208e-05
3.30905e-07
7.6227e-05
3.16394e-07
7.62458e-05
3.01907e-07
7.62644e-05
2.87423e-07
7.62829e-05
2.72914e-07
7.63012e-05
2.58314e-07
2.43606e-07
7.63194e-05
7.76709e-05
7.53134e-08
7.76981e-05
2.08015e-07
7.77304e-05
3.04519e-07
7.77639e-05
3.71675e-07
7.7798e-05
4.20802e-07
7.78321e-05
4.56084e-07
7.78653e-05
4.79553e-07
7.78976e-05
4.94053e-07
7.79289e-05
5.01982e-07
7.79592e-05
5.04817e-07
7.79885e-05
5.03609e-07
7.80169e-05
4.99242e-07
7.80445e-05
4.92428e-07
7.80712e-05
4.83711e-07
7.80971e-05
4.73517e-07
7.81222e-05
4.62186e-07
7.81467e-05
4.49991e-07
7.81706e-05
4.37147e-07
7.81938e-05
4.23824e-07
7.82165e-05
4.10155e-07
7.82387e-05
3.96247e-07
7.82604e-05
3.82179e-07
7.82816e-05
3.68012e-07
7.83025e-05
3.53793e-07
7.83229e-05
3.39553e-07
7.83431e-05
3.25311e-07
7.83629e-05
3.11078e-07
7.83824e-05
2.96854e-07
7.84017e-05
2.82632e-07
7.84208e-05
2.68394e-07
7.84395e-05
2.5412e-07
7.84581e-05
2.39768e-07
2.25349e-07
7.84764e-05
7.98876e-05
6.6039e-08
7.99109e-05
1.84696e-07
7.99404e-05
2.75069e-07
7.99719e-05
3.40093e-07
8.00047e-05
3.88062e-07
8.00378e-05
4.22991e-07
8.00705e-05
4.46853e-07
8.01025e-05
4.62054e-07
8.01337e-05
4.7076e-07
8.01641e-05
4.74416e-07
8.01937e-05
4.74051e-07
8.02224e-05
4.70521e-07
8.02503e-05
4.64518e-07
8.02774e-05
4.56581e-07
8.03038e-05
4.4713e-07
8.03295e-05
4.36504e-07
8.03545e-05
4.24974e-07
8.03789e-05
4.12755e-07
8.04027e-05
4.00018e-07
8.0426e-05
3.86898e-07
8.04487e-05
3.73501e-07
8.0471e-05
3.5991e-07
8.04928e-05
3.46189e-07
8.05142e-05
3.32384e-07
8.05352e-05
3.18531e-07
8.05559e-05
3.0465e-07
8.05762e-05
2.90756e-07
8.05962e-05
2.76852e-07
8.06159e-05
2.62934e-07
8.06353e-05
2.48991e-07
8.06544e-05
2.35008e-07
8.06732e-05
2.20944e-07
2.06806e-07
8.06918e-05
8.21682e-05
5.82876e-08
8.21885e-05
1.64436e-07
8.22153e-05
2.48231e-07
8.2245e-05
3.10374e-07
8.22763e-05
3.56734e-07
8.23084e-05
3.909e-07
8.23405e-05
4.14758e-07
8.23722e-05
4.30353e-07
8.24034e-05
4.39613e-07
8.24339e-05
4.43917e-07
8.24637e-05
4.44262e-07
8.24927e-05
4.41467e-07
8.2521e-05
4.36199e-07
8.25486e-05
4.28983e-07
8.25755e-05
4.20234e-07
8.26018e-05
4.10284e-07
8.26273e-05
3.99401e-07
8.26523e-05
3.87798e-07
8.26767e-05
3.75645e-07
8.27005e-05
3.63078e-07
8.27238e-05
3.50203e-07
8.27466e-05
3.37106e-07
8.27689e-05
3.2385e-07
8.27908e-05
3.10485e-07
8.28123e-05
2.97048e-07
8.28334e-05
2.83563e-07
8.28541e-05
2.70046e-07
8.28744e-05
2.56505e-07
8.28944e-05
2.42943e-07
8.29141e-05
2.29354e-07
8.29333e-05
2.15732e-07
8.29522e-05
2.02062e-07
1.88375e-07
8.29707e-05
8.45144e-05
5.16649e-08
8.45322e-05
1.46639e-07
8.45567e-05
2.23719e-07
8.45846e-05
2.82429e-07
8.46146e-05
3.26787e-07
8.46457e-05
3.59843e-07
8.46771e-05
3.83356e-07
8.47083e-05
3.99072e-07
8.47393e-05
4.08686e-07
8.47697e-05
4.13482e-07
8.47995e-05
4.14416e-07
8.48288e-05
4.1226e-07
8.48573e-05
4.07654e-07
8.48852e-05
4.01105e-07
8.49124e-05
3.93015e-07
8.4939e-05
3.8371e-07
8.49649e-05
3.73452e-07
8.49903e-05
3.6245e-07
8.5015e-05
3.50873e-07
8.50393e-05
3.38857e-07
8.5063e-05
3.26508e-07
8.50861e-05
3.1391e-07
8.51089e-05
3.01132e-07
8.51311e-05
2.88222e-07
8.5153e-05
2.75221e-07
8.51744e-05
2.62155e-07
8.51954e-05
2.49045e-07
8.5216e-05
2.35903e-07
8.52362e-05
2.22735e-07
8.5256e-05
2.09543e-07
8.52754e-05
1.96328e-07
8.52944e-05
1.83075e-07
1.69811e-07
8.53129e-05
8.69279e-05
4.58958e-08
8.69437e-05
1.30829e-07
8.69662e-05
2.01253e-07
8.69925e-05
2.56143e-07
8.70211e-05
2.98167e-07
8.70511e-05
3.29814e-07
8.70818e-05
3.52676e-07
8.71126e-05
3.68253e-07
8.71433e-05
3.78015e-07
8.71737e-05
3.83141e-07
8.72035e-05
3.8453e-07
8.72329e-05
3.82909e-07
8.72617e-05
3.78882e-07
8.72898e-05
3.72935e-07
8.73174e-05
3.65456e-07
8.73443e-05
3.56759e-07
8.73707e-05
3.471e-07
8.73965e-05
3.36683e-07
8.74217e-05
3.25674e-07
8.74463e-05
3.14207e-07
8.74704e-05
3.02387e-07
8.7494e-05
2.90301e-07
8.75172e-05
2.78015e-07
8.75398e-05
2.65582e-07
8.7562e-05
2.53042e-07
8.75837e-05
2.40427e-07
8.7605e-05
2.27758e-07
8.76258e-05
2.15054e-07
8.76463e-05
2.02325e-07
8.76662e-05
1.89579e-07
8.76857e-05
1.76826e-07
8.77047e-05
1.64069e-07
1.51351e-07
8.77232e-05
8.94106e-05
4.07845e-08
8.94249e-05
1.16626e-07
8.94455e-05
1.80564e-07
8.94703e-05
2.31383e-07
8.94977e-05
2.708e-07
8.95267e-05
3.00782e-07
8.95566e-05
3.22728e-07
8.9587e-05
3.37926e-07
8.96173e-05
3.47646e-07
8.96475e-05
3.5295e-07
8.96774e-05
3.54671e-07
8.97068e-05
3.53489e-07
8.97357e-05
3.49967e-07
8.97641e-05
3.44564e-07
8.97919e-05
3.37652e-07
8.98191e-05
3.29532e-07
8.98458e-05
3.2045e-07
8.98719e-05
3.10605e-07
8.98974e-05
3.00158e-07
8.99223e-05
2.8924e-07
8.99468e-05
2.77956e-07
8.99707e-05
2.66392e-07
8.99941e-05
2.54613e-07
9.0017e-05
2.42676e-07
9.00394e-05
2.30621e-07
9.00614e-05
2.18482e-07
9.00828e-05
2.06286e-07
9.01038e-05
1.94053e-07
9.01244e-05
1.81799e-07
9.01444e-05
1.69538e-07
9.01639e-05
1.57283e-07
9.0183e-05
1.45037e-07
1.3284e-07
9.02015e-05
9.19645e-05
3.61888e-08
9.19774e-05
1.03727e-07
9.19965e-05
1.61406e-07
9.20199e-05
2.08008e-07
9.20461e-05
2.44602e-07
9.20742e-05
2.72698e-07
9.21034e-05
2.93497e-07
9.21332e-05
3.08101e-07
9.21633e-05
3.17598e-07
9.21933e-05
3.22931e-07
9.22231e-05
3.24864e-07
9.22526e-05
3.24019e-07
9.22816e-05
3.20922e-07
9.23102e-05
3.16001e-07
9.23382e-05
3.09608e-07
9.23657e-05
3.02028e-07
9.23927e-05
2.93498e-07
9.24191e-05
2.84207e-07
9.24449e-05
2.74313e-07
9.24702e-05
2.63941e-07
9.2495e-05
2.53197e-07
9.25192e-05
2.42162e-07
9.25429e-05
2.30905e-07
9.25661e-05
2.19481e-07
9.25888e-05
2.07934e-07
9.2611e-05
1.96298e-07
9.26327e-05
1.84604e-07
9.26538e-05
1.72875e-07
9.26745e-05
1.61132e-07
9.26947e-05
1.49391e-07
9.27143e-05
1.37674e-07
9.27333e-05
1.25993e-07
1.14397e-07
9.27518e-05
9.45913e-05
3.20023e-08
9.46032e-05
9.18916e-08
9.4621e-05
1.43556e-07
9.46432e-05
1.85872e-07
9.46683e-05
2.19475e-07
9.46955e-05
2.45501e-07
9.4724e-05
2.64954e-07
9.47534e-05
2.78771e-07
9.47831e-05
2.87877e-07
9.48129e-05
2.931e-07
9.48427e-05
2.95127e-07
9.48721e-05
2.94528e-07
9.49013e-05
2.9178e-07
9.493e-05
2.87283e-07
9.49582e-05
2.81365e-07
9.4986e-05
2.74294e-07
9.50132e-05
2.66293e-07
9.50398e-05
2.57544e-07
9.5066e-05
2.48197e-07
9.50915e-05
2.38373e-07
9.51166e-05
2.28174e-07
9.5141e-05
2.17681e-07
9.5165e-05
2.06962e-07
9.51884e-05
1.96072e-07
9.52113e-05
1.85055e-07
9.52336e-05
1.73949e-07
9.52554e-05
1.62786e-07
9.52767e-05
1.51592e-07
9.52975e-05
1.4039e-07
9.53176e-05
1.29202e-07
9.53373e-05
1.1805e-07
9.53563e-05
1.06947e-07
9.59386e-08
9.53748e-05
9.72934e-05
2.81435e-08
9.73043e-05
8.09228e-08
9.73211e-05
1.26814e-07
9.73421e-05
1.64828e-07
9.73663e-05
1.95316e-07
9.73927e-05
2.19119e-07
9.74206e-05
2.37055e-07
9.74494e-05
2.49913e-07
9.74788e-05
2.58475e-07
9.75085e-05
2.63458e-07
9.75381e-05
2.6547e-07
9.75676e-05
2.65024e-07
9.75969e-05
2.62553e-07
9.76257e-05
2.58422e-07
9.76542e-05
2.52934e-07
9.76821e-05
2.46338e-07
9.77096e-05
2.38843e-07
9.77365e-05
2.30621e-07
9.77629e-05
2.21812e-07
9.77887e-05
2.12535e-07
9.7814e-05
2.02885e-07
9.78387e-05
1.92943e-07
9.78629e-05
1.82775e-07
9.78866e-05
1.72435e-07
9.79096e-05
1.6197e-07
9.79322e-05
1.51417e-07
9.79541e-05
1.4081e-07
9.79756e-05
1.30177e-07
9.79964e-05
1.19545e-07
9.80167e-05
1.08937e-07
9.80363e-05
9.8378e-08
9.80554e-05
8.78869e-08
7.75115e-08
9.80738e-05
0.000100073
2.45482e-08
0.000100083
7.066e-08
0.000100099
1.11004e-07
0.000100119
1.4473e-07
0.000100142
1.72015e-07
0.000100168
1.93468e-07
0.000100195
2.09743e-07
0.000100224
2.21492e-07
0.000100253
2.29373e-07
0.000100282
2.33994e-07
0.000100312
2.35889e-07
0.000100341
2.35511e-07
0.00010037
2.33249e-07
0.000100399
2.2943e-07
0.000100428
2.2433e-07
0.000100456
2.18179e-07
0.000100484
2.11169e-07
0.000100511
2.0346e-07
0.000100538
1.95186e-07
0.000100564
1.86456e-07
0.000100589
1.77363e-07
0.000100614
1.67983e-07
0.000100639
1.58381e-07
0.000100662
1.48611e-07
0.000100686
1.38719e-07
0.000100708
1.28742e-07
0.000100731
1.18717e-07
0.000100752
1.08672e-07
0.000100773
9.86354e-08
0.000100793
8.86321e-08
0.000100813
7.8688e-08
0.000100832
6.88215e-08
5.90772e-08
0.00010085
0.000102931
2.11637e-08
0.000102941
6.09678e-08
0.000102956
9.59628e-08
0.000102975
1.25437e-07
0.000102998
1.49458e-07
0.000103023
1.68458e-07
0.00010305
1.82948e-07
0.000103078
1.9346e-07
0.000103107
2.00536e-07
0.000103136
2.04687e-07
0.000103166
2.06372e-07
0.000103195
2.05984e-07
0.000103224
2.03865e-07
0.000103254
2.00307e-07
0.000103282
1.95556e-07
0.000103311
1.89821e-07
0.000103339
1.83277e-07
0.000103366
1.7607e-07
0.000103393
1.68323e-07
0.000103419
1.60141e-07
0.000103445
1.5161e-07
0.00010347
1.42802e-07
0.000103495
1.3378e-07
0.000103519
1.24597e-07
0.000103542
1.15296e-07
0.000103565
1.05917e-07
0.000103587
9.64953e-08
0.000103609
8.70605e-08
0.00010363
7.76412e-08
0.00010365
6.82637e-08
0.00010367
5.89544e-08
0.000103689
4.97334e-08
4.06446e-08
0.000103707
0.000105872
1.79456e-08
0.000105881
5.1729e-08
0.000105896
8.15446e-08
0.000105914
1.06807e-07
0.000105936
1.27521e-07
0.000105961
1.43986e-07
0.000105987
1.56589e-07
0.000106015
1.65754e-07
0.000106043
1.71918e-07
0.000106073
1.75503e-07
0.000106102
1.76893e-07
0.000106132
1.76425e-07
0.000106161
1.74392e-07
0.00010619
1.71048e-07
0.000106219
1.66612e-07
0.000106248
1.61267e-07
0.000106276
1.55171e-07
0.000106303
1.48456e-07
0.000106331
1.41235e-07
0.000106357
1.33603e-07
0.000106383
1.2564e-07
0.000106408
1.17416e-07
0.000106433
1.08989e-07
0.000106457
1.00408e-07
0.000106481
9.17189e-08
0.000106504
8.29587e-08
0.000106526
7.41616e-08
0.000106548
6.53585e-08
0.000106569
5.65777e-08
0.00010659
4.78454e-08
0.000106609
3.91878e-08
0.000106628
3.06245e-08
2.21966e-08
0.000106647
0.000108896
1.48545e-08
0.000108905
4.28386e-08
0.000108919
6.76113e-08
0.000108937
8.87024e-08
0.000108959
1.0608e-07
0.000108983
1.19943e-07
0.000109009
1.30574e-07
0.000109036
1.38298e-07
0.000109065
1.4346e-07
0.000109094
1.46396e-07
0.000109123
1.47419e-07
0.000109153
1.46808e-07
0.000109183
1.4481e-07
0.000109212
1.41642e-07
0.000109241
1.37489e-07
0.00010927
1.32512e-07
0.000109298
1.2685e-07
0.000109326
1.20619e-07
0.000109353
1.13922e-07
0.00010938
1.06843e-07
0.000109406
9.94574e-08
0.000109432
9.18276e-08
0.000109457
8.40087e-08
0.000109481
7.60483e-08
0.000109505
6.79881e-08
0.000109528
5.98651e-08
0.000109551
5.17124e-08
0.000109572
4.35603e-08
0.000109593
3.54363e-08
0.000109614
2.73662e-08
0.000109634
1.93755e-08
0.000109653
1.14829e-08
3.72724e-09
0.000109671
0.000112007
1.18539e-08
0.000112016
3.41985e-08
0.00011203
5.403e-08
0.000112047
7.09798e-08
0.000112069
8.49983e-08
0.000112092
9.62063e-08
0.000112118
1.04797e-07
0.000112145
1.11005e-07
0.000112174
1.15089e-07
0.000112203
1.17307e-07
0.000112232
1.17902e-07
0.000112262
1.17098e-07
0.000112292
1.15093e-07
0.000112321
1.12066e-07
0.000112351
1.08171e-07
0.00011238
1.03546e-07
0.000112408
9.83068e-08
0.000112436
9.25563e-08
0.000112464
8.63827e-08
0.000112491
7.98623e-08
0.000112517
7.30615e-08
0.000112543
6.60378e-08
0.000112568
5.88416e-08
0.000112593
5.15171e-08
0.000112616
4.41035e-08
0.00011264
3.6636e-08
0.000112662
2.91461e-08
0.000112684
2.16628e-08
0.000112705
1.42128e-08
0.000112726
6.82086e-09
0.000112746
-4.88696e-10
0.000112765
-7.69734e-09
-1.47685e-08
0.000112783
0.000115207
8.90746e-09
0.000115216
2.57137e-08
0.000115229
4.06692e-08
0.000115247
5.3495e-08
0.000115268
6.41338e-08
0.000115291
7.26441e-08
0.000115317
7.91394e-08
0.000115344
8.37724e-08
0.000115372
8.672e-08
0.000115402
8.8165e-08
0.000115431
8.82852e-08
0.000115461
8.72467e-08
0.000115491
8.52028e-08
0.000115521
8.22921e-08
0.00011555
7.86387e-08
0.000115579
7.43527e-08
0.000115608
6.95313e-08
0.000115637
6.42601e-08
0.000115664
5.86143e-08
0.000115691
5.26599e-08
0.000115718
4.64551e-08
0.000115744
4.00509e-08
0.000115769
3.34929e-08
0.000115794
2.68213e-08
0.000115818
2.00722e-08
0.000115841
1.32784e-08
0.000115864
6.46948e-09
0.000115886
-3.27367e-10
0.000115907
-7.08695e-09
0.000115928
-1.37862e-08
0.000115948
-2.04026e-08
0.000115967
-2.69203e-08
-3.33064e-08
0.000115986
0.000118499
5.97624e-09
0.000118507
1.72885e-08
0.00011852
2.73945e-08
0.000118538
3.60961e-08
0.000118559
4.33337e-08
0.000118582
4.91118e-08
0.000118608
5.34706e-08
0.000118635
5.64846e-08
0.000118664
5.82533e-08
0.000118693
5.88871e-08
0.000118723
5.84986e-08
0.000118753
5.71986e-08
0.000118783
5.50936e-08
0.000118813
5.22833e-08
0.000118843
4.88599e-08
0.000118872
4.49075e-08
0.000118901
4.05021e-08
0.00011893
3.57125e-08
0.000118958
3.06002e-08
0.000118985
2.52205e-08
0.000119012
1.96227e-08
0.000119038
1.38513e-08
0.000119064
7.94615e-09
0.000119089
1.94319e-09
0.000119113
-4.12492e-09
0.000119136
-1.02284e-08
0.000119159
-1.634e-08
0.000119181
-2.24345e-08
0.000119203
-2.84886e-08
0.000119223
-3.44805e-08
0.000119243
-4.0389e-08
0.000119263
-4.61975e-08
-5.18744e-08
0.000119281
0.000121884
3.02886e-09
0.000121893
8.83288e-09
0.000121906
1.40718e-08
0.000121923
1.86259e-08
0.000121944
2.2435e-08
0.000121968
2.54518e-08
0.000121994
2.76446e-08
0.000122021
2.90114e-08
0.00012205
2.95757e-08
0.00012208
2.93762e-08
0.00012211
2.84612e-08
0.00012214
2.68864e-08
0.00012217
2.47114e-08
0.000122201
2.1997e-08
0.000122231
1.88031e-08
0.00012226
1.51873e-08
0.00012229
1.12045e-08
0.000122318
6.906e-09
0.000122347
2.3393e-09
0.000122374
-2.45161e-09
0.000122401
-7.42633e-09
0.000122428
-1.25478e-08
0.000122454
-1.7782e-08
0.000122479
-2.30976e-08
0.000122503
-2.8466e-08
0.000122527
-3.38606e-08
0.000122549
-3.92569e-08
0.000122572
-4.46321e-08
0.000122593
-4.99653e-08
0.000122614
-5.52371e-08
0.000122634
-6.04292e-08
0.000122653
-6.55296e-08
-7.05119e-08
0.000122672
0.000125366
5.04093e-11
0.000125375
2.61505e-10
0.000125389
5.6212e-10
0.000125406
9.15571e-10
0.000125427
1.25916e-09
0.000125451
1.48888e-09
0.000125478
1.49755e-09
0.000125505
1.2047e-09
0.000125534
5.56564e-10
0.000125564
-4.81008e-10
0.000125595
-1.92459e-09
0.000125625
-3.77434e-09
0.000125656
-6.01742e-09
0.000125687
-8.63205e-09
0.000125717
-1.15906e-08
0.000125747
-1.48618e-08
0.000125777
-1.84125e-08
0.000125806
-2.22086e-08
0.000125834
-2.62169e-08
0.000125862
-3.04048e-08
0.00012589
-3.47411e-08
0.000125916
-3.91965e-08
0.000125942
-4.37428e-08
0.000125967
-4.83541e-08
0.000125992
-5.30057e-08
0.000126016
-5.76745e-08
0.000126039
-6.23391e-08
0.000126061
-6.69792e-08
0.000126083
-7.15758e-08
0.000126104
-7.6111e-08
0.000126124
-8.05671e-08
0.000126143
-8.4929e-08
-8.91702e-08
0.000126162
0.000128948
-3.00511e-09
0.000128957
-8.55066e-09
0.000128971
-1.33181e-08
0.000128989
-1.72483e-08
0.000129011
-2.04139e-08
0.000129035
-2.29895e-08
0.000129062
-2.51675e-08
0.00012909
-2.7112e-08
0.00012912
-2.89575e-08
0.00012915
-3.08139e-08
0.000129181
-3.27649e-08
0.000129212
-3.48673e-08
0.000129243
-3.71557e-08
0.000129274
-3.96477e-08
0.000129305
-4.23482e-08
0.000129335
-4.52523e-08
0.000129365
-4.83481e-08
0.000129395
-5.16195e-08
0.000129423
-5.50469e-08
0.000129452
-5.86095e-08
0.000129479
-6.22855e-08
0.000129506
-6.60529e-08
0.000129532
-6.98901e-08
0.000129558
-7.37761e-08
0.000129582
-7.76907e-08
0.000129606
-8.16146e-08
0.000129629
-8.55293e-08
0.000129652
-8.94178e-08
0.000129674
-9.32638e-08
0.000129694
-9.7053e-08
0.000129715
-1.00772e-07
0.000129734
-1.04413e-07
-1.07957e-07
0.000129753
0.000132632
-6.20307e-09
0.000132641
-1.77734e-08
0.000132656
-2.78095e-08
0.000132675
-3.61374e-08
0.000132697
-4.28573e-08
0.000132723
-4.82424e-08
0.00013275
-5.25885e-08
0.000132779
-5.61528e-08
0.000132809
-5.91575e-08
0.00013284
-6.17939e-08
0.000132872
-6.42153e-08
0.000132903
-6.65359e-08
0.000132935
-6.88378e-08
0.000132967
-7.11774e-08
0.000132998
-7.35919e-08
0.000133029
-7.61022e-08
0.000133059
-7.87179e-08
0.000133089
-8.14396e-08
0.000133118
-8.42622e-08
0.000133147
-8.71759e-08
0.000133174
-9.01682e-08
0.000133202
-9.32251e-08
0.000133228
-9.6331e-08
0.000133254
-9.94703e-08
0.000133279
-1.02627e-07
0.000133303
-1.05786e-07
0.000133326
-1.08932e-07
0.000133349
-1.12049e-07
0.000133371
-1.15125e-07
0.000133392
-1.18145e-07
0.000133412
-1.21094e-07
0.000133432
-1.23959e-07
-1.26718e-07
0.000133451
0.000136422
-9.62454e-09
0.000136432
-2.76297e-08
0.000136447
-4.32238e-08
0.000136467
-5.60959e-08
0.00013649
-6.641e-08
0.000136517
-7.45853e-08
0.000136545
-8.1046e-08
0.000136575
-8.61543e-08
0.000136606
-9.02322e-08
0.000136638
-9.35622e-08
0.00013667
-9.6373e-08
0.000136703
-9.88382e-08
0.000136735
-1.01088e-07
0.000136767
-1.03217e-07
0.000136799
-1.05294e-07
0.00013683
-1.07365e-07
0.000136861
-1.0946e-07
0.000136891
-1.11596e-07
0.00013692
-1.13781e-07
0.000136949
-1.16015e-07
0.000136977
-1.18296e-07
0.000137005
-1.20616e-07
0.000137031
-1.22966e-07
0.000137057
-1.25336e-07
0.000137082
-1.27713e-07
0.000137107
-1.30087e-07
0.00013713
-1.32445e-07
0.000137153
-1.34777e-07
0.000137175
-1.3707e-07
0.000137196
-1.39317e-07
0.000137216
-1.41509e-07
0.000137236
-1.43644e-07
-1.45708e-07
0.000137255
0.00014032
-1.33813e-08
0.00014033
-3.84287e-08
0.000140347
-5.99805e-08
0.000140369
-7.7565e-08
0.000140394
-9.14927e-08
0.000140421
-1.02412e-07
0.000140451
-1.10909e-07
0.000140483
-1.17465e-07
0.000140515
-1.22512e-07
0.000140548
-1.26435e-07
0.000140581
-1.29541e-07
0.000140614
-1.32064e-07
0.000140647
-1.34181e-07
0.00014068
-1.36028e-07
0.000140712
-1.37704e-07
0.000140744
-1.39278e-07
0.000140776
-1.408e-07
0.000140806
-1.42302e-07
0.000140836
-1.43804e-07
0.000140866
-1.45319e-07
0.000140894
-1.46851e-07
0.000140922
-1.484e-07
0.000140949
-1.49961e-07
0.000140975
-1.51531e-07
0.000141001
-1.531e-07
0.000141025
-1.54662e-07
0.000141049
-1.56206e-07
0.000141072
-1.57724e-07
0.000141094
-1.59207e-07
0.000141115
-1.60644e-07
0.000141136
-1.62023e-07
0.000141156
-1.63331e-07
-1.64553e-07
0.000141174
0.000144329
-1.76367e-08
0.000144341
-5.06218e-08
0.00014436
-7.86687e-08
0.000144383
-1.01128e-07
0.00014441
-1.18616e-07
0.00014444
-1.32134e-07
0.000144472
-1.42476e-07
0.000144505
-1.50265e-07
0.000144538
-1.56077e-07
0.000144572
-1.60413e-07
0.000144606
-1.63662e-07
0.00014464
-1.66113e-07
0.000144674
-1.67991e-07
0.000144707
-1.69466e-07
0.00014474
-1.70663e-07
0.000144773
-1.71676e-07
0.000144805
-1.72568e-07
0.000144836
-1.73388e-07
0.000144866
-1.74166e-07
0.000144896
-1.74922e-07
0.000144924
-1.7567e-07
0.000144952
-1.76416e-07
0.00014498
-1.7716e-07
0.000145006
-1.77903e-07
0.000145032
-1.7864e-07
0.000145056
-1.79367e-07
0.00014508
-1.80079e-07
0.000145103
-1.80769e-07
0.000145125
-1.81433e-07
0.000145147
-1.82065e-07
0.000145168
-1.82663e-07
0.000145187
-1.83232e-07
-1.83759e-07
0.000145207
0.000148453
-2.26469e-08
0.000148467
-6.48909e-08
0.000148489
-1.00115e-07
0.000148515
-1.27579e-07
0.000148545
-1.48547e-07
0.000148577
-1.64531e-07
0.000148612
-1.76522e-07
0.000148647
-1.853e-07
0.000148682
-1.91622e-07
0.000148718
-1.96132e-07
0.000148753
-1.99307e-07
0.000148789
-2.01494e-07
0.000148824
-2.02964e-07
0.000148858
-2.0392e-07
0.000148892
-2.04514e-07
0.000148925
-2.04856e-07
0.000148958
-2.05027e-07
0.000148989
-2.05083e-07
0.00014902
-2.05065e-07
0.00014905
-2.05e-07
0.00014908
-2.04908e-07
0.000149108
-2.04799e-07
0.000149136
-2.04679e-07
0.000149162
-2.04551e-07
0.000149188
-2.04416e-07
0.000149213
-2.0427e-07
0.000149237
-2.04112e-07
0.00014926
-2.03935e-07
0.000149282
-2.03736e-07
0.000149304
-2.03507e-07
0.000149324
-2.03239e-07
0.000149344
-2.02919e-07
-2.02539e-07
0.000149363
0.000152695
-2.88637e-08
0.000152713
-8.23941e-08
0.000152738
-1.25508e-07
0.000152768
-1.57706e-07
0.000152801
-1.81665e-07
0.000152837
-1.99668e-07
0.000152873
-2.12887e-07
0.00015291
-2.22269e-07
0.000152947
-2.28784e-07
0.000152984
-2.33214e-07
0.000153021
-2.36103e-07
0.000153057
-2.37847e-07
0.000153093
-2.38757e-07
0.000153128
-2.39066e-07
0.000153163
-2.38946e-07
0.000153196
-2.38523e-07
0.000153229
-2.37887e-07
0.000153261
-2.37105e-07
0.000153292
-2.36227e-07
0.000153323
-2.35284e-07
0.000153352
-2.34301e-07
0.000153381
-2.33293e-07
0.000153408
-2.32271e-07
0.000153435
-2.31239e-07
0.000153461
-2.30201e-07
0.000153486
-2.29157e-07
0.00015351
-2.28108e-07
0.000153533
-2.27051e-07
0.000153555
-2.25986e-07
0.000153576
-2.24912e-07
0.000153597
-2.23831e-07
0.000153617
-2.22751e-07
-2.21665e-07
0.000153636
0.00015706
-3.70374e-08
0.000157082
-1.05096e-07
0.000157114
-1.5706e-07
0.00015715
-1.93703e-07
0.000157188
-2.20155e-07
0.000157228
-2.39534e-07
0.000157269
-2.53185e-07
0.000157309
-2.62394e-07
0.000157348
-2.68445e-07
0.000157387
-2.72257e-07
0.000157426
-2.7442e-07
0.000157463
-2.75365e-07
0.0001575
-2.75428e-07
0.000157536
-2.7486e-07
0.000157571
-2.7384e-07
0.000157605
-2.72497e-07
0.000157638
-2.70928e-07
0.00015767
-2.69202e-07
0.000157701
-2.67371e-07
0.000157731
-2.65471e-07
0.00015776
-2.63527e-07
0.000157788
-2.61558e-07
0.000157816
-2.59576e-07
0.000157842
-2.5759e-07
0.000157868
-2.55602e-07
0.000157892
-2.53618e-07
0.000157916
-2.51636e-07
0.000157938
-2.49656e-07
0.00015796
-2.47675e-07
0.000157981
-2.45691e-07
0.000158
-2.43698e-07
0.000158019
-2.41684e-07
-2.3965e-07
0.000158037
0.00016155
-4.90113e-08
0.000161581
-1.35632e-07
0.000161619
-1.95197e-07
0.00016166
-2.34432e-07
0.000161702
-2.62614e-07
0.000161746
-2.82839e-07
0.000161789
-2.96262e-07
0.000161831
-3.0466e-07
0.000161872
-3.0971e-07
0.000161912
-3.1244e-07
0.000161951
-3.13471e-07
0.000161989
-3.13265e-07
0.000162026
-3.12185e-07
0.000162062
-3.10493e-07
0.000162096
-3.08368e-07
0.00016213
-3.0594e-07
0.000162162
-3.03304e-07
0.000162193
-3.00528e-07
0.000162224
-2.97662e-07
0.000162253
-2.9474e-07
0.000162281
-2.91788e-07
0.000162308
-2.88823e-07
0.000162335
-2.85857e-07
0.00016236
-2.82899e-07
0.000162384
-2.79952e-07
0.000162408
-2.77022e-07
0.00016243
-2.74109e-07
0.000162452
-2.71213e-07
0.000162472
-2.68337e-07
0.000162492
-2.65481e-07
0.000162511
-2.62649e-07
0.000162529
-2.59852e-07
-2.57087e-07
0.000162547
0.000166174
-6.96575e-08
0.000166223
-1.84583e-07
0.000166276
-2.4776e-07
0.000166326
-2.84597e-07
0.000166374
-3.11059e-07
0.000166421
-3.29287e-07
0.000166465
-3.40221e-07
0.000166506
-3.46216e-07
0.000166546
-3.49166e-07
0.000166583
-3.50033e-07
0.000166619
-3.49366e-07
0.000166654
-3.47605e-07
0.000166687
-3.4509e-07
0.000166718
-3.42059e-07
0.000166748
-3.38671e-07
0.000166777
-3.35039e-07
0.000166805
-3.31247e-07
0.000166832
-3.27356e-07
0.000166858
-3.23407e-07
0.000166883
-3.19432e-07
0.000166906
-3.15452e-07
0.000166929
-3.11483e-07