/*--------------------------------*- C++ -*----------------------------------*\
| =========                 |                                                 |
| \\      /  F ield         | OpenFOAM: The Open Source CFD Toolbox           |
|  \\    /   O peration     | Version:  4.1                                   |
|   \\  /    A nd           | Web:      www.OpenFOAM.org                      |
|    \\/     M anipulation  |                                                 |
\*---------------------------------------------------------------------------*/
FoamFile
{
    version     2.0;
    format      ascii;
    class       volVectorField;
    location    "1000";
    object      U;
}
// * * * * * * * * * * * * * * * * * * * * * * * * * * * * * * * * * * * * * //

dimensions      [0 1 -1 0 0 0 0];

internalField   nonuniform List<vector> 
6820
(
(7.2813 0.0192603 0)
(7.18936 0.0329224 0)
(7.0895 0.0360689 0)
(6.98491 0.0374729 0)
(6.88226 0.0387345 0)
(6.7831 0.0397556 0)
(6.68718 0.0405158 0)
(6.59472 0.0410296 0)
(6.50618 0.0412713 0)
(6.42176 0.0412187 0)
(6.34144 0.0408782 0)
(6.26513 0.040277 0)
(6.19273 0.0394507 0)
(6.12412 0.0384369 0)
(6.05912 0.037272 0)
(5.99759 0.0359901 0)
(5.93935 0.0346214 0)
(5.88424 0.0331921 0)
(5.8321 0.0317243 0)
(5.78279 0.0302364 0)
(5.73617 0.0287434 0)
(5.6921 0.0272572 0)
(5.65046 0.0257874 0)
(5.61112 0.024341 0)
(5.57398 0.0229236 0)
(5.53892 0.0215393 0)
(5.50586 0.0201902 0)
(5.47471 0.0188807 0)
(5.44534 0.0176024 0)
(5.41784 0.0163863 0)
(5.39149 0.0151664 0)
(5.36902 0.01391 0)
(5.34247 0.0139879 0)
(7.35129 0.0206776 0)
(7.39587 0.0322614 0)
(7.42787 0.0326355 0)
(7.44987 0.0332017 0)
(7.46739 0.0343599 0)
(7.48118 0.0351444 0)
(7.49064 0.0355189 0)
(7.49593 0.0356541 0)
(7.49763 0.0356103 0)
(7.49622 0.0354081 0)
(7.49207 0.0350811 0)
(7.48557 0.0346671 0)
(7.47707 0.0341958 0)
(7.46691 0.0336874 0)
(7.45537 0.0331558 0)
(7.44272 0.0326108 0)
(7.42918 0.0320589 0)
(7.41493 0.031504 0)
(7.40014 0.0309485 0)
(7.38495 0.0303933 0)
(7.36949 0.0298389 0)
(7.35385 0.0292852 0)
(7.33812 0.0287318 0)
(7.32238 0.0281781 0)
(7.30668 0.0276233 0)
(7.29109 0.0270669 0)
(7.27564 0.0265069 0)
(7.26038 0.0259467 0)
(7.24534 0.025369 0)
(7.23055 0.024833 0)
(7.21607 0.0241271 0)
(7.20165 0.023878 0)
(7.18869 0.021997 0)
(7.33498 0.0124972 0)
(7.34477 0.0201473 0)
(7.35181 0.0214421 0)
(7.35496 0.0233119 0)
(7.35732 0.0252257 0)
(7.35979 0.0263816 0)
(7.362 0.0270188 0)
(7.36384 0.0274552 0)
(7.36547 0.0277918 0)
(7.36696 0.0280464 0)
(7.36826 0.0282374 0)
(7.36935 0.0283826 0)
(7.37019 0.0284908 0)
(7.37079 0.0285641 0)
(7.37113 0.0286024 0)
(7.3712 0.0286054 0)
(7.371 0.0285734 0)
(7.37054 0.0285065 0)
(7.36981 0.028405 0)
(7.36883 0.0282698 0)
(7.36761 0.028102 0)
(7.36615 0.0279026 0)
(7.36447 0.0276729 0)
(7.36258 0.0274144 0)
(7.3605 0.0271282 0)
(7.35825 0.0268156 0)
(7.35584 0.0264772 0)
(7.35328 0.0261145 0)
(7.3506 0.025726 0)
(7.34781 0.0253141 0)
(7.34491 0.0248772 0)
(7.34192 0.0243629 0)
(7.33896 0.0239308 0)
(7.3347 0.00985765 0)
(7.34304 0.0202391 0)
(7.35045 0.0247379 0)
(7.35468 0.0280675 0)
(7.35778 0.0307884 0)
(7.36077 0.0326924 0)
(7.36343 0.0340309 0)
(7.36564 0.0350515 0)
(7.36756 0.0358228 0)
(7.3693 0.0363545 0)
(7.37087 0.0366705 0)
(7.37229 0.0368044 0)
(7.37357 0.0367864 0)
(7.37473 0.0366419 0)
(7.37579 0.0363934 0)
(7.37676 0.036061 0)
(7.37765 0.035662 0)
(7.37846 0.0352108 0)
(7.3792 0.034719 0)
(7.37987 0.034196 0)
(7.38048 0.0336494 0)
(7.38103 0.0330849 0)
(7.38153 0.0325069 0)
(7.38198 0.0319186 0)
(7.38238 0.031322 0)
(7.38275 0.0307188 0)
(7.38308 0.030109 0)
(7.38337 0.0294938 0)
(7.38365 0.0288694 0)
(7.3839 0.028242 0)
(7.38415 0.0275934 0)
(7.38437 0.0269509 0)
(7.3846 0.026312 0)
(7.33417 0.00784833 0)
(7.3405 0.0172866 0)
(7.34711 0.021246 0)
(7.35171 0.0237419 0)
(7.35548 0.0258495 0)
(7.3592 0.0273803 0)
(7.36268 0.0284139 0)
(7.3658 0.0291468 0)
(7.36865 0.0296697 0)
(7.37132 0.0300165 0)
(7.37384 0.030222 0)
(7.37621 0.0303221 0)
(7.37843 0.0303438 0)
(7.38054 0.0303054 0)
(7.38254 0.0302198 0)
(7.38444 0.0300966 0)
(7.38624 0.0299426 0)
(7.38796 0.0297623 0)
(7.38961 0.029559 0)
(7.39118 0.0293345 0)
(7.3927 0.0290901 0)
(7.39415 0.0288265 0)
(7.39555 0.0285439 0)
(7.39691 0.0282422 0)
(7.39823 0.0279212 0)
(7.39951 0.0275801 0)
(7.40076 0.0272181 0)
(7.40198 0.0268343 0)
(7.40319 0.0264265 0)
(7.40439 0.0259947 0)
(7.40558 0.0255353 0)
(7.40676 0.0250517 0)
(7.40797 0.0245561 0)
(7.33381 0.00630819 0)
(7.33861 0.0150536 0)
(7.34442 0.0196755 0)
(7.34904 0.0229117 0)
(7.35294 0.0256593 0)
(7.35675 0.0277508 0)
(7.36037 0.029258 0)
(7.36368 0.0303936 0)
(7.36676 0.03127 0)
(7.36969 0.0319277 0)
(7.37246 0.0323984 0)
(7.3751 0.0327144 0)
(7.37761 0.0329006 0)
(7.38001 0.032976 0)
(7.3823 0.032956 0)
(7.3845 0.0328542 0)
(7.38662 0.0326824 0)
(7.38866 0.0324504 0)
(7.39063 0.0321667 0)
(7.39253 0.0318384 0)
(7.39438 0.0314714 0)
(7.39618 0.0310706 0)
(7.39793 0.0306398 0)
(7.39964 0.0301821 0)
(7.40131 0.0296997 0)
(7.40295 0.029194 0)
(7.40457 0.0286658 0)
(7.40616 0.0281153 0)
(7.40774 0.0275416 0)
(7.4093 0.0269443 0)
(7.41086 0.0263215 0)
(7.41242 0.025671 0)
(7.41401 0.0250018 0)
(7.33356 0.00519295 0)
(7.33722 0.013153 0)
(7.34215 0.0178517 0)
(7.34647 0.0210123 0)
(7.35023 0.0235059 0)
(7.3539 0.0253482 0)
(7.35745 0.0266384 0)
(7.36077 0.0275703 0)
(7.36389 0.028252 0)
(7.36687 0.0287268 0)
(7.36972 0.02903 0)
(7.37245 0.0291966 0)
(7.37506 0.0292551 0)
(7.37757 0.0292269 0)
(7.37999 0.0291287 0)
(7.38233 0.0289741 0)
(7.38459 0.0287739 0)
(7.38678 0.0285362 0)
(7.3889 0.0282673 0)
(7.39097 0.0279717 0)
(7.39298 0.0276527 0)
(7.39494 0.0273124 0)
(7.39686 0.0269522 0)
(7.39874 0.0265727 0)
(7.40059 0.0261738 0)
(7.4024 0.0257551 0)
(7.40419 0.0253154 0)
(7.40596 0.0248531 0)
(7.40771 0.024366 0)
(7.40944 0.0238516 0)
(7.41117 0.0233066 0)
(7.41289 0.0227249 0)
(7.41462 0.0221071 0)
(7.33341 0.00435414 0)
(7.33622 0.0115132 0)
(7.34039 0.0161814 0)
(7.34439 0.0194343 0)
(7.34802 0.0220416 0)
(7.35158 0.024078 0)
(7.35506 0.0256023 0)
(7.35836 0.0267624 0)
(7.36149 0.0276575 0)
(7.36449 0.0283343 0)
(7.36737 0.0288284 0)
(7.37013 0.0291731 0)
(7.37279 0.0293949 0)
(7.37535 0.0295133 0)
(7.37782 0.0295437 0)
(7.38021 0.0294987 0)
(7.38252 0.0293884 0)
(7.38477 0.0292211 0)
(7.38695 0.0290035 0)
(7.38907 0.0287412 0)
(7.39114 0.0284386 0)
(7.39316 0.0280991 0)
(7.39514 0.0277256 0)
(7.39708 0.0273201 0)
(7.39898 0.0268838 0)
(7.40085 0.0264175 0)
(7.4027 0.0259213 0)
(7.40452 0.0253946 0)
(7.40632 0.0248361 0)
(7.40811 0.0242436 0)
(7.40988 0.0236143 0)
(7.41164 0.0229422 0)
(7.4134 0.0222252 0)
(7.3333 0.00371129 0)
(7.3355 0.0101276 0)
(7.33902 0.0146562 0)
(7.34267 0.0178947 0)
(7.34609 0.0204492 0)
(7.34946 0.022431 0)
(7.3528 0.023899 0)
(7.356 0.0249867 0)
(7.35906 0.0257971 0)
(7.36201 0.0263845 0)
(7.36486 0.0267874 0)
(7.3676 0.0270405 0)
(7.37025 0.0271718 0)
(7.37282 0.0272025 0)
(7.3753 0.0271498 0)
(7.3777 0.0270275 0)
(7.38004 0.026847 0)
(7.38231 0.0266175 0)
(7.38452 0.0263461 0)
(7.38668 0.0260385 0)
(7.38878 0.0256988 0)
(7.39084 0.0253305 0)
(7.39286 0.0249355 0)
(7.39484 0.0245153 0)
(7.39678 0.0240705 0)
(7.3987 0.023601 0)
(7.40058 0.023106 0)
(7.40244 0.0225841 0)
(7.40428 0.0220332 0)
(7.40609 0.0214502 0)
(7.40789 0.0208313 0)
(7.40968 0.02017 0)
(7.41145 0.0194631 0)
(7.33324 0.00320676 0)
(7.33498 0.00894628 0)
(7.33796 0.0132556 0)
(7.34125 0.0164315 0)
(7.34446 0.0189417 0)
(7.34766 0.0209246 0)
(7.35085 0.0224408 0)
(7.35396 0.0235993 0)
(7.35696 0.0244911 0)
(7.35986 0.0251673 0)
(7.36268 0.0256637 0)
(7.36541 0.026012 0)
(7.36805 0.026238 0)
(7.37061 0.0263618 0)
(7.37309 0.0263988 0)
(7.3755 0.0263618 0)
(7.37785 0.026261 0)
(7.38013 0.0261045 0)
(7.38235 0.0258987 0)
(7.38452 0.0256488 0)
(7.38663 0.0253587 0)
(7.3887 0.0250315 0)
(7.39073 0.0246692 0)
(7.39272 0.0242734 0)
(7.39467 0.0238449 0)
(7.39659 0.0233839 0)
(7.39847 0.0228901 0)
(7.40033 0.0223624 0)
(7.40216 0.0217992 0)
(7.40397 0.021198 0)
(7.40576 0.0205556 0)
(7.40752 0.0198667 0)
(7.40926 0.0191293 0)
(7.33319 0.00280016 0)
(7.3346 0.00793319 0)
(7.33714 0.0119801 0)
(7.3401 0.0150542 0)
(7.34309 0.0174942 0)
(7.3461 0.0194358 0)
(7.34913 0.020935 0)
(7.35211 0.0220793 0)
(7.35502 0.0229504 0)
(7.35784 0.0236003 0)
(7.3606 0.0240658 0)
(7.36327 0.0243787 0)
(7.36587 0.0245655 0)
(7.3684 0.0246467 0)
(7.37085 0.0246389 0)
(7.37324 0.0245554 0)
(7.37557 0.0244071 0)
(7.37784 0.024203 0)
(7.38005 0.0239502 0)
(7.38221 0.0236544 0)
(7.38432 0.02332 0)
(7.38638 0.0229504 0)
(7.38841 0.0225482 0)
(7.39039 0.022115 0)
(7.39234 0.0216518 0)
(7.39425 0.0211588 0)
(7.39613 0.0206357 0)
(7.39798 0.0200814 0)
(7.39981 0.0194943 0)
(7.4016 0.0188721 0)
(7.40337 0.0182118 0)
(7.40511 0.0175088 0)
(7.40682 0.0167616 0)
(7.33316 0.00246423 0)
(7.33432 0.0070567 0)
(7.3365 0.0108181 0)
(7.33915 0.0137564 0)
(7.34192 0.0161061 0)
(7.34475 0.0179919 0)
(7.34762 0.0194697 0)
(7.35048 0.020613 0)
(7.35329 0.0214947 0)
(7.35604 0.0221647 0)
(7.35873 0.0226585 0)
(7.36136 0.0230056 0)
(7.36392 0.0232308 0)
(7.36642 0.0233534 0)
(7.36885 0.0233889 0)
(7.37122 0.0233498 0)
(7.37353 0.0232462 0)
(7.37579 0.0230862 0)
(7.37799 0.0228763 0)
(7.38014 0.0226216 0)
(7.38224 0.022326 0)
(7.3843 0.0219925 0)
(7.38631 0.0216233 0)
(7.38828 0.0212197 0)
(7.39022 0.0207825 0)
(7.39212 0.020312 0)
(7.39398 0.0198078 0)
(7.39582 0.0192691 0)
(7.39762 0.0186943 0)
(7.39938 0.0180818 0)
(7.40112 0.0174292 0)
(7.40283 0.0167328 0)
(7.40449 0.0159929 0)
(7.33314 0.00218019 0)
(7.33411 0.00629034 0)
(7.33599 0.00975791 0)
(7.33838 0.0125363 0)
(7.34093 0.0147799 0)
(7.34358 0.0165949 0)
(7.3463 0.0180334 0)
(7.34903 0.0191553 0)
(7.35174 0.0200228 0)
(7.3544 0.0206816 0)
(7.35702 0.0211652 0)
(7.35959 0.0215015 0)
(7.36209 0.0217142 0)
(7.36454 0.0218221 0)
(7.36693 0.0218406 0)
(7.36926 0.0217821 0)
(7.37154 0.0216568 0)
(7.37377 0.0214731 0)
(7.37594 0.0212376 0)
(7.37807 0.0209558 0)
(7.38015 0.0206318 0)
(7.38218 0.0202691 0)
(7.38417 0.0198701 0)
(7.38612 0.0194365 0)
(7.38804 0.0189695 0)
(7.38991 0.0184696 0)
(7.39175 0.0179369 0)
(7.39356 0.0173708 0)
(7.39533 0.0167704 0)
(7.39706 0.0161345 0)
(7.39877 0.0154614 0)
(7.40043 0.0147487 0)
(7.40206 0.0139972 0)
(7.33312 0.00193503 0)
(7.33395 0.00561288 0)
(7.33559 0.00878792 0)
(7.33773 0.0113891 0)
(7.34009 0.0135125 0)
(7.34258 0.0152433 0)
(7.34515 0.0166289 0)
(7.34775 0.0177194 0)
(7.35035 0.0185678 0)
(7.35293 0.0192165 0)
(7.35547 0.0196974 0)
(7.35797 0.0200367 0)
(7.36043 0.0202568 0)
(7.36283 0.0203757 0)
(7.36518 0.0204079 0)
(7.36748 0.0203654 0)
(7.36973 0.0202578 0)
(7.37193 0.020093 0)
(7.37408 0.0198774 0)
(7.37618 0.0196159 0)
(7.37824 0.0193125 0)
(7.38025 0.0189703 0)
(7.38222 0.0185915 0)
(7.38415 0.0181778 0)
(7.38604 0.01773 0)
(7.38789 0.0172487 0)
(7.38971 0.016734 0)
(7.39148 0.0161854 0)
(7.39323 0.0156024 0)
(7.39493 0.0149839 0)
(7.39659 0.014329 0)
(7.39822 0.0136358 0)
(7.3998 0.0129061 0)
(7.33311 0.00171959 0)
(7.33382 0.00500726 0)
(7.33526 0.00789663 0)
(7.3372 0.0103096 0)
(7.33938 0.0123013 0)
(7.34171 0.0139369 0)
(7.34413 0.015258 0)
(7.34662 0.0163061 0)
(7.34911 0.0171257 0)
(7.3516 0.0177545 0)
(7.35407 0.0182215 0)
(7.3565 0.0185509 0)
(7.35889 0.0187631 0)
(7.36124 0.0188749 0)
(7.36355 0.0189002 0)
(7.36581 0.0188503 0)
(7.36802 0.0187344 0)
(7.37018 0.0185601 0)
(7.37229 0.0183337 0)
(7.37436 0.0180602 0)
(7.37639 0.0177435 0)
(7.37837 0.0173869 0)
(7.38031 0.0169926 0)
(7.38221 0.0165625 0)
(7.38407 0.0160979 0)
(7.38589 0.0155996 0)
(7.38767 0.0150679 0)
(7.38941 0.0145029 0)
(7.39112 0.0139046 0)
(7.39278 0.0132724 0)
(7.3944 0.0126062 0)
(7.39599 0.011905 0)
(7.39753 0.0111711 0)
(7.3331 0.00152725 0)
(7.33372 0.00445994 0)
(7.335 0.0070734 0)
(7.33676 0.0092917 0)
(7.33877 0.0111426 0)
(7.34095 0.0126737 0)
(7.34325 0.01392 0)
(7.34561 0.0149158 0)
(7.34801 0.0156985 0)
(7.35041 0.0163009 0)
(7.35279 0.0167497 0)
(7.35516 0.017067 0)
(7.3575 0.0172717 0)
(7.35979 0.0173798 0)
(7.36205 0.0174042 0)
(7.36427 0.0173556 0)
(7.36644 0.017243 0)
(7.36857 0.0170735 0)
(7.37065 0.0168533 0)
(7.37269 0.0165869 0)
(7.37468 0.0162784 0)
(7.37664 0.0159307 0)
(7.37855 0.0155462 0)
(7.38042 0.0151265 0)
(7.38225 0.0146731 0)
(7.38404 0.0141868 0)
(7.38579 0.013668 0)
(7.3875 0.0131171 0)
(7.38916 0.0125341 0)
(7.39079 0.0119191 0)
(7.39238 0.0112721 0)
(7.39392 0.0105926 0)
(7.39542 0.00988322 0)
(7.3331 0.00135315 0)
(7.33364 0.00396006 0)
(7.33479 0.00630857 0)
(7.33639 0.00832932 0)
(7.33826 0.0100324 0)
(7.3403 0.0114512 0)
(7.34247 0.0126139 0)
(7.34472 0.0135489 0)
(7.34702 0.0142869 0)
(7.34933 0.0148563 0)
(7.35164 0.0152808 0)
(7.35394 0.0155803 0)
(7.35622 0.0157721 0)
(7.35846 0.0158704 0)
(7.36067 0.0158873 0)
(7.36284 0.0158328 0)
(7.36497 0.0157151 0)
(7.36706 0.015541 0)
(7.36911 0.0153162 0)
(7.37111 0.0150452 0)
(7.37307 0.0147317 0)
(7.37499 0.0143787 0)
(7.37687 0.0139886 0)
(7.3787 0.0135632 0)
(7.3805 0.0131038 0)
(7.38225 0.0126117 0)
(7.38396 0.0120874 0)
(7.38564 0.0115317 0)
(7.38726 0.010945 0)
(7.38885 0.0103277 0)
(7.3904 0.00968031 0)
(7.39189 0.00900309 0)
(7.39335 0.00829884 0)
(7.33309 0.0011936 0)
(7.33358 0.00349891 0)
(7.33461 0.00559346 0)
(7.33608 0.0074162 0)
(7.33782 0.00896656 0)
(7.33973 0.0102665 0)
(7.34179 0.0113382 0)
(7.34394 0.0122045 0)
(7.34614 0.0128907 0)
(7.34837 0.0134209 0)
(7.35061 0.0138158 0)
(7.35284 0.0140932 0)
(7.35506 0.0142685 0)
(7.35725 0.0143549 0)
(7.35941 0.0143633 0)
(7.36153 0.014303 0)
(7.36362 0.0141818 0)
(7.36567 0.0140061 0)
(7.36768 0.0137811 0)
(7.36965 0.0135112 0)
(7.37158 0.0132001 0)
(7.37346 0.0128507 0)
(7.37531 0.0124652 0)
(7.37711 0.0120455 0)
(7.37887 0.0115932 0)
(7.38059 0.0111093 0)
(7.38227 0.0105949 0)
(7.3839 0.0100507 0)
(7.3855 0.00947744 0)
(7.38705 0.00887573 0)
(7.38855 0.00824646 0)
(7.39001 0.00758998 0)
(7.39143 0.00690924 0)
(7.33309 0.00104573 0)
(7.33353 0.00306937 0)
(7.33447 0.00492033 0)
(7.33582 0.00654616 0)
(7.33744 0.00794024 0)
(7.33925 0.00911614 0)
(7.34119 0.0100904 0)
(7.34325 0.0108813 0)
(7.34536 0.0115093 0)
(7.34751 0.0119945 0)
(7.34968 0.0123548 0)
(7.35185 0.0126056 0)
(7.35401 0.0127608 0)
(7.35614 0.0128318 0)
(7.35826 0.0128287 0)
(7.36034 0.0127598 0)
(7.36238 0.0126323 0)
(7.36439 0.0124519 0)
(7.36636 0.0122236 0)
(7.3683 0.0119514 0)
(7.37019 0.0116388 0)
(7.37204 0.0112884 0)
(7.37385 0.0109026 0)
(7.37561 0.0104832 0)
(7.37734 0.0100318 0)
(7.37902 0.00954959 0)
(7.38066 0.00903768 0)
(7.38226 0.00849706 0)
(7.38381 0.00792862 0)
(7.38532 0.00733329 0)
(7.38679 0.00671215 0)
(7.38821 0.00606595 0)
(7.38959 0.00539769 0)
(7.33308 0.000907236 0)
(7.33348 0.0026655 0)
(7.33435 0.0042822 0)
(7.3356 0.0057131 0)
(7.33712 0.0069486 0)
(7.33883 0.00799619 0)
(7.34068 0.00886771 0)
(7.34264 0.00957737 0)
(7.34468 0.0101414 0)
(7.34675 0.0105764 0)
(7.34885 0.0108974 0)
(7.35096 0.0111177 0)
(7.35306 0.0112492 0)
(7.35515 0.0113021 0)
(7.35721 0.0112854 0)
(7.35925 0.0112064 0)
(7.36125 0.0110716 0)
(7.36322 0.0108864 0)
(7.36515 0.0106553 0)
(7.36705 0.010382 0)
(7.3689 0.0100699 0)
(7.37072 0.00972149 0)
(7.37249 0.00933905 0)
(7.37423 0.00892444 0)
(7.37592 0.00847925 0)
(7.37756 0.00800483 0)
(7.37917 0.00750241 0)
(7.38073 0.00697309 0)
(7.38225 0.00641795 0)
(7.38372 0.00583808 0)
(7.38515 0.0052347 0)
(7.38653 0.00460868 0)
(7.38787 0.00396297 0)
(7.33308 0.000776206 0)
(7.33345 0.00228224 0)
(7.33425 0.00367276 0)
(7.33542 0.00491106 0)
(7.33685 0.00598651 0)
(7.33847 0.00690238 0)
(7.34024 0.00766664 0)
(7.34212 0.00828997 0)
(7.34408 0.00878505 0)
(7.34608 0.00916508 0)
(7.34812 0.00944249 0)
(7.35017 0.00962851 0)
(7.35222 0.00973318 0)
(7.35425 0.00976533 0)
(7.35627 0.00973265 0)
(7.35826 0.00964173 0)
(7.36023 0.00949823 0)
(7.36216 0.00930694 0)
(7.36405 0.00907196 0)
(7.36591 0.00879673 0)
(7.36773 0.00848419 0)
(7.36951 0.0081368 0)
(7.37125 0.00775667 0)
(7.37294 0.0073456 0)
(7.3746 0.00690516 0)
(7.37621 0.00643674 0)
(7.37778 0.00594159 0)
(7.3793 0.00542093 0)
(7.38078 0.00487591 0)
(7.38222 0.00430772 0)
(7.38361 0.00371769 0)
(7.38496 0.00310683 0)
(7.38626 0.00247806 0)
(7.33308 0.000650981 0)
(7.33342 0.00191514 0)
(7.33417 0.00308614 0)
(7.33527 0.00413411 0)
(7.33663 0.00504861 0)
(7.33817 0.00583009 0)
(7.33986 0.00648341 0)
(7.34167 0.00701618 0)
(7.34356 0.00743795 0)
(7.3455 0.00775897 0)
(7.34748 0.00798912 0)
(7.34947 0.00813757 0)
(7.35147 0.0082126 0)
(7.35346 0.00822162 0)
(7.35543 0.00817114 0)
(7.35738 0.00806683 0)
(7.3593 0.00791359 0)
(7.3612 0.00771565 0)
(7.36305 0.00747665 0)
(7.36488 0.00719969 0)
(7.36666 0.00688747 0)
(7.3684 0.00654228 0)
(7.37011 0.00616612 0)
(7.37177 0.00576076 0)
(7.37339 0.00532774 0)
(7.37496 0.00486849 0)
(7.3765 0.00438432 0)
(7.37799 0.00387649 0)
(7.37943 0.00334626 0)
(7.38084 0.00279486 0)
(7.38219 0.00222368 0)
(7.3835 0.00163374 0)
(7.38477 0.00102782 0)
(7.33308 0.000530057 0)
(7.3334 0.00156012 0)
(7.3341 0.00251676 0)
(7.33515 0.00337626 0)
(7.33644 0.00412909 0)
(7.33792 0.0047739 0)
(7.33955 0.00531308 0)
(7.34129 0.00575163 0)
(7.34312 0.00609631 0)
(7.34501 0.00635468 0)
(7.34693 0.00653426 0)
(7.34887 0.00664218 0)
(7.35082 0.00668503 0)
(7.35277 0.00666878 0)
(7.3547 0.00659876 0)
(7.35661 0.00647967 0)
(7.35849 0.00631563 0)
(7.36034 0.00611024 0)
(7.36216 0.00586662 0)
(7.36395 0.00558751 0)
(7.3657 0.00527526 0)
(7.36741 0.00493196 0)
(7.36907 0.00455944 0)
(7.3707 0.00415933 0)
(7.37229 0.00373312 0)
(7.37383 0.00328218 0)
(7.37533 0.00280781 0)
(7.37679 0.00231128 0)
(7.3782 0.00179383 0)
(7.37957 0.00125674 0)
(7.38089 0.000701365 0)
(7.38217 0.000128796 0)
(7.3834 -0.00045828 0)
(7.33307 0.000411941 0)
(7.33338 0.00121324 0)
(7.33405 0.00195922 0)
(7.33506 0.00263167 0)
(7.3363 0.00322237 0)
(7.33772 0.00372884 0)
(7.33929 0.00415151 0)
(7.34098 0.00449303 0)
(7.34276 0.0047577 0)
(7.3446 0.00495059 0)
(7.34647 0.00507699 0)
(7.34837 0.00514207 0)
(7.35027 0.00515075 0)
(7.35217 0.00510759 0)
(7.35406 0.00501677 0)
(7.35593 0.00488201 0)
(7.35778 0.00470668 0)
(7.3596 0.00449374 0)
(7.36138 0.00424583 0)
(7.36313 0.0039653 0)
(7.36485 0.00365423 0)
(7.36652 0.00331446 0)
(7.36815 0.00294768 0)
(7.36975 0.0025554 0)
(7.3713 0.00213904 0)
(7.37281 0.00169993 0)
(7.37427 0.00123934 0)
(7.37569 0.000758509 0)
(7.37707 0.000258692 0)
(7.37841 -0.000258883 0)
(7.3797 -0.000792877 0)
(7.38094 -0.00134231 0)
(7.38214 -0.00190469 0)
(7.33307 0.000295105 0)
(7.33337 0.0008703 0)
(7.33402 0.00140732 0)
(7.33499 0.00189297 0)
(7.33619 0.00232058 0)
(7.33757 0.00268697 0)
(7.3391 0.00299091 0)
(7.34074 0.00323297 0)
(7.34248 0.00341514 0)
(7.34427 0.0035402 0)
(7.3461 0.00361126 0)
(7.34795 0.0036316 0)
(7.34982 0.00360446 0)
(7.35168 0.00353297 0)
(7.35353 0.00342009 0)
(7.35537 0.00326856 0)
(7.35718 0.00308089 0)
(7.35896 0.00285937 0)
(7.36071 0.0026061 0)
(7.36243 0.00232296 0)
(7.36411 0.00201169 0)
(7.36575 0.00167387 0)
(7.36735 0.00131096 0)
(7.36891 0.000924341 0)
(7.37043 0.000515292 0)
(7.37191 8.50592e-05 0)
(7.37334 -0.000365146 0)
(7.37473 -0.00083413 0)
(7.37608 -0.00132069 0)
(7.37738 -0.00182362 0)
(7.37864 -0.00234163 0)
(7.37985 -0.00287369 0)
(7.38103 -0.00341741 0)
(7.33307 0.000178589 0)
(7.33336 0.00052883 0)
(7.33399 0.000857719 0)
(7.33494 0.00115661 0)
(7.33611 0.00142049 0)
(7.33746 0.00164567 0)
(7.33896 0.00182944 0)
(7.34057 0.00197043 0)
(7.34226 0.00206846 0)
(7.34402 0.00212409 0)
(7.34581 0.00213839 0)
(7.34763 0.00211278 0)
(7.34946 0.00204893 0)
(7.35129 0.00194862 0)
(7.35311 0.00181368 0)
(7.35491 0.00164591 0)
(7.35668 0.00144703 0)
(7.35843 0.00121873 0)
(7.36015 0.000962554 0)
(7.36183 0.000679995 0)
(7.36348 0.000372437 0)
(7.36509 4.11911e-05 0)
(7.36666 -0.0003125 0)
(7.36818 -0.000687447 0)
(7.36967 -0.0010825 0)
(7.37111 -0.00149655 0)
(7.37251 -0.00192847 0)
(7.37387 -0.00237718 0)
(7.37519 -0.00284155 0)
(7.37646 -0.00332051 0)
(7.37768 -0.00381286 0)
(7.37887 -0.00431779 0)
(7.38001 -0.00483318 0)
(7.33307 6.10653e-05 0)
(7.33336 0.000184314 0)
(7.33398 0.000303133 0)
(7.33491 0.000413523 0)
(7.33607 0.000512088 0)
(7.3374 0.000594638 0)
(7.33887 0.000656929 0)
(7.34045 0.000695654 0)
(7.34212 0.000708466 0)
(7.34385 0.000693704 0)
(7.34561 0.000650292 0)
(7.3474 0.000577722 0)
(7.3492 0.000475959 0)
(7.351 0.000345325 0)
(7.35278 0.000186398 0)
(7.35455 -6.06564e-08 0)
(7.3563 -0.000213159 0)
(7.35802 -0.000451927 0)
(7.35971 -0.000715349 0)
(7.36136 -0.00100239 0)
(7.36298 -0.001312 0)
(7.36456 -0.00164316 0)
(7.3661 -0.00199481 0)
(7.36759 -0.00236595 0)
(7.36905 -0.00275554 0)
(7.37047 -0.00316257 0)
(7.37184 -0.003586 0)
(7.37317 -0.00402479 0)
(7.37445 -0.00447791 0)
(7.3757 -0.00494427 0)
(7.37689 -0.00542274 0)
(7.37805 -0.00591235 0)
(7.37917 -0.00641104 0)
(7.33307 -5.89422e-05 0)
(7.33336 -0.000168045 0)
(7.33398 -0.000264005 0)
(7.33491 -0.000345621 0)
(7.33606 -0.000414752 0)
(7.33738 -0.000476447 0)
(7.33884 -0.000536727 0)
(7.34041 -0.000600969 0)
(7.34206 -0.000673709 0)
(7.34377 -0.000758791 0)
(7.34551 -0.000859294 0)
(7.34728 -0.000977481 0)
(7.34905 -0.0011149 0)
(7.35082 -0.00127254 0)
(7.35258 -0.00145094 0)
(7.35432 -0.0016503 0)
(7.35603 -0.00187055 0)
(7.35772 -0.0021114 0)
(7.35938 -0.00237242 0)
(7.361 -0.00265308 0)
(7.36259 -0.00295273 0)
(7.36414 -0.00327071 0)
(7.36564 -0.00360628 0)
(7.36711 -0.00395867 0)
(7.36854 -0.00432707 0)
(7.36992 -0.00471067 0)
(7.37126 -0.00510861 0)
(7.37256 -0.00552002 0)
(7.37381 -0.005944 0)
(7.37502 -0.00637968 0)
(7.37619 -0.00682612 0)
(7.37732 -0.00728269 0)
(7.37841 -0.00774771 0)
(7.33307 -0.000183173 0)
(7.33336 -0.00053279 0)
(7.33399 -0.000850067 0)
(7.33494 -0.0011279 0)
(7.3361 -0.00136693 0)
(7.33743 -0.00157376 0)
(7.33889 -0.00175669 0)
(7.34046 -0.00192357 0)
(7.3421 -0.00208162 0)
(7.3438 -0.0022374 0)
(7.34553 -0.00239647 0)
(7.34728 -0.0025632 0)
(7.34903 -0.00274089 0)
(7.35078 -0.00293198 0)
(7.35252 -0.00313816 0)
(7.35424 -0.00336056 0)
(7.35593 -0.00359981 0)
(7.35759 -0.00385621 0)
(7.35923 -0.00412977 0)
(7.36082 -0.00442028 0)
(7.36239 -0.0047274 0)
(7.36391 -0.00505063 0)
(7.36539 -0.00538942 0)
(7.36683 -0.00574312 0)
(7.36823 -0.00611104 0)
(7.36959 -0.00649243 0)
(7.37091 -0.00688652 0)
(7.37218 -0.00729249 0)
(7.37341 -0.0077095 0)
(7.3746 -0.00813669 0)
(7.37574 -0.00857309 0)
(7.37684 -0.00901789 0)
(7.3779 -0.00946935 0)
(7.33307 -0.000314662 0)
(7.33338 -0.000918335 0)
(7.33403 -0.00146735 0)
(7.33501 -0.00194772 0)
(7.3362 -0.00235969 0)
(7.33755 -0.00271266 0)
(7.33903 -0.00301777 0)
(7.3406 -0.00328522 0)
(7.34225 -0.00352453 0)
(7.34395 -0.00374466 0)
(7.34567 -0.00395336 0)
(7.3474 -0.00415693 0)
(7.34914 -0.00436041 0)
(7.35087 -0.00456776 0)
(7.35259 -0.00478204 0)
(7.35428 -0.00500551 0)
(7.35595 -0.00523981 0)
(7.35759 -0.00548607 0)
(7.35919 -0.00574499 0)
(7.36076 -0.00601697 0)
(7.36229 -0.00630216 0)
(7.36378 -0.00660049 0)
(7.36524 -0.00691175 0)
(7.36665 -0.00723562 0)
(7.36802 -0.00757165 0)
(7.36934 -0.00791933 0)
(7.37063 -0.00827811 0)
(7.37187 -0.00864737 0)
(7.37307 -0.00902647 0)
(7.37423 -0.00941477 0)
(7.37535 -0.00981157 0)
(7.37643 -0.0102165 0)
(7.37747 -0.0106283 0)
(7.33308 -0.000457271 0)
(7.3334 -0.00133518 0)
(7.3341 -0.00213042 0)
(7.33512 -0.00282078 0)
(7.33636 -0.00340791 0)
(7.33776 -0.00390678 0)
(7.33927 -0.00433365 0)
(7.34087 -0.00470299 0)
(7.34254 -0.0050284 0)
(7.34425 -0.00532231 0)
(7.34598 -0.00559502 0)
(7.34772 -0.00585464 0)
(7.34945 -0.00610749 0)
(7.35118 -0.00635852 0)
(7.35288 -0.00661152 0)
(7.35456 -0.00686929 0)
(7.35622 -0.0071339 0)
(7.35784 -0.0074068 0)
(7.35943 -0.00768897 0)
(7.36098 -0.00798104 0)
(7.36249 -0.00828333 0)
(7.36396 -0.00859595 0)
(7.3654 -0.00891883 0)
(7.36679 -0.00925175 0)
(7.36813 -0.00959439 0)
(7.36944 -0.00994634 0)
(7.3707 -0.0103071 0)
(7.37192 -0.0106761 0)
(7.3731 -0.0110529 0)
(7.37424 -0.0114367 0)
(7.37533 -0.0118268 0)
(7.37638 -0.0122226 0)
(7.37739 -0.0126228 0)
(7.33308 -0.000616456 0)
(7.33344 -0.00179814 0)
(7.3342 -0.00285961 0)
(7.33531 -0.00376936 0)
(7.33662 -0.00453353 0)
(7.33808 -0.00517402 0)
(7.33964 -0.00571075 0)
(7.34128 -0.00616111 0)
(7.34298 -0.00654291 0)
(7.3447 -0.00687315 0)
(7.34643 -0.00716601 0)
(7.34816 -0.00743269 0)
(7.34989 -0.00768211 0)
(7.3516 -0.00792138 0)
(7.35329 -0.00815597 0)
(7.35495 -0.00839003 0)
(7.35658 -0.00862664 0)
(7.35818 -0.00886806 0)
(7.35974 -0.00911592 0)
(7.36126 -0.00937133 0)
(7.36275 -0.00963502 0)
(7.36419 -0.00990743 0)
(7.3656 -0.0101887 0)
(7.36696 -0.010479 0)
(7.36828 -0.010778 0)
(7.36955 -0.0110856 0)
(7.37079 -0.0114015 0)
(7.37198 -0.0117253 0)
(7.37313 -0.0120565 0)
(7.37424 -0.0123949 0)
(7.37531 -0.0127398 0)
(7.37634 -0.0130911 0)
(7.37733 -0.0134478 0)
(7.33308 -0.000800622 0)
(7.3335 -0.0023292 0)
(7.33436 -0.00368166 0)
(7.33559 -0.00481845 0)
(7.33701 -0.00576333 0)
(7.33856 -0.0065568 0)
(7.34021 -0.00722739 0)
(7.34192 -0.00779634 0)
(7.34367 -0.00828451 0)
(7.34544 -0.00871112 0)
(7.3472 -0.00909143 0)
(7.34896 -0.00943722 0)
(7.3507 -0.00975795 0)
(7.35241 -0.0100613 0)
(7.3541 -0.0103531 0)
(7.35576 -0.0106382 0)
(7.35738 -0.0109199 0)
(7.35897 -0.0112009 0)
(7.36051 -0.0114834 0)
(7.36202 -0.0117686 0)
(7.36348 -0.0120577 0)
(7.36491 -0.0123513 0)
(7.36629 -0.0126498 0)
(7.36763 -0.0129535 0)
(7.36892 -0.0132624 0)
(7.37017 -0.0135764 0)
(7.37138 -0.0138954 0)
(7.37255 -0.014219 0)
(7.37367 -0.014547 0)
(7.37475 -0.0148791 0)
(7.37579 -0.0152147 0)
(7.37679 -0.0155535 0)
(7.37774 -0.0158945 0)
(7.33309 -0.00102339 0)
(7.3336 -0.00296482 0)
(7.33462 -0.00464245 0)
(7.33601 -0.00600402 0)
(7.33757 -0.00709394 0)
(7.33921 -0.00797155 0)
(7.34093 -0.00867753 0)
(7.3427 -0.00924627 0)
(7.34449 -0.00971172 0)
(7.34627 -0.0101021 0)
(7.34805 -0.010438 0)
(7.34981 -0.0107346 0)
(7.35154 -0.0110037 0)
(7.35325 -0.0112543 0)
(7.35492 -0.0114932 0)
(7.35655 -0.0117253 0)
(7.35815 -0.0119544 0)
(7.35971 -0.0121832 0)
(7.36123 -0.0124138 0)
(7.3627 -0.0126477 0)
(7.36414 -0.0128858 0)
(7.36553 -0.013129 0)
(7.36687 -0.0133776 0)
(7.36818 -0.0136321 0)
(7.36944 -0.0138924 0)
(7.37066 -0.0141586 0)
(7.37183 -0.0144305 0)
(7.37296 -0.0147081 0)
(7.37405 -0.014991 0)
(7.3751 -0.0152791 0)
(7.37611 -0.0155719 0)
(7.37708 -0.0158693 0)
(7.37801 -0.0161705 0)
(7.33311 -0.0013086 0)
(7.33375 -0.00375375 0)
(7.33503 -0.00579808 0)
(7.33669 -0.00743455 0)
(7.33847 -0.00877503 0)
(7.3403 -0.00988997 0)
(7.34218 -0.0108058 0)
(7.34406 -0.0115538 0)
(7.34593 -0.012173 0)
(7.34777 -0.0126961 0)
(7.34958 -0.0131456 0)
(7.35135 -0.0135389 0)
(7.35308 -0.01389 0)
(7.35477 -0.0142105 0)
(7.35642 -0.0145087 0)
(7.35803 -0.014791 0)
(7.3596 -0.0150623 0)
(7.36112 -0.0153262 0)
(7.3626 -0.0155855 0)
(7.36403 -0.015842 0)
(7.36542 -0.0160973 0)
(7.36676 -0.0163523 0)
(7.36806 -0.0166078 0)
(7.36931 -0.0168643 0)
(7.37052 -0.017122 0)
(7.37168 -0.0173812 0)
(7.3728 -0.0176419 0)
(7.37388 -0.0179041 0)
(7.37491 -0.0181678 0)
(7.3759 -0.018433 0)
(7.37685 -0.0186996 0)
(7.37776 -0.0189677 0)
(7.37862 -0.0192371 0)
(7.33314 -0.00171311 0)
(7.33403 -0.00480965 0)
(7.33564 -0.00713655 0)
(7.33755 -0.00877122 0)
(7.33947 -0.00999821 0)
(7.3414 -0.0109694 0)
(7.34337 -0.0117333 0)
(7.34532 -0.0123347 0)
(7.34722 -0.0128226 0)
(7.34907 -0.0132315 0)
(7.35086 -0.0135819 0)
(7.35261 -0.0138885 0)
(7.35431 -0.0141631 0)
(7.35595 -0.0144147 0)
(7.35754 -0.0146501 0)
(7.35908 -0.0148741 0)
(7.36058 -0.0150909 0)
(7.36202 -0.0153033 0)
(7.36342 -0.0155137 0)
(7.36477 -0.0157239 0)
(7.36608 -0.0159351 0)
(7.36734 -0.0161484 0)
(7.36856 -0.0163644 0)
(7.36973 -0.0165835 0)
(7.37085 -0.016806 0)
(7.37194 -0.0170321 0)
(7.37298 -0.0172618 0)
(7.37398 -0.0174949 0)
(7.37494 -0.0177313 0)
(7.37586 -0.0179706 0)
(7.37674 -0.0182125 0)
(7.37758 -0.0184566 0)
(7.37839 -0.0187023 0)
(7.33321 -0.00230683 0)
(7.33467 -0.00642729 0)
(7.33707 -0.00951513 0)
(7.33954 -0.0117567 0)
(7.34173 -0.0134588 0)
(7.34378 -0.0147551 0)
(7.34577 -0.0157247 0)
(7.34767 -0.0164591 0)
(7.34946 -0.0170351 0)
(7.35115 -0.0175005 0)
(7.35277 -0.0178853 0)
(7.35432 -0.0182124 0)
(7.3558 -0.0184989 0)
(7.35722 -0.0187565 0)
(7.35859 -0.0189934 0)
(7.3599 -0.019215 0)
(7.36116 -0.0194254 0)
(7.36237 -0.0196276 0)
(7.36353 -0.0198235 0)
(7.36464 -0.0200146 0)
(7.36571 -0.020202 0)
(7.36673 -0.0203866 0)
(7.36771 -0.0205689 0)
(7.36864 -0.0207495 0)
(7.36954 -0.0209287 0)
(7.37039 -0.0211069 0)
(7.3712 -0.0212843 0)
(7.37197 -0.0214613 0)
(7.37271 -0.021638 0)
(7.3734 -0.021815 0)
(7.37406 -0.021993 0)
(7.37468 -0.0221737 0)
(7.37526 -0.0223585 0)
(7.33323 -0.00330734 0)
(7.33508 -0.00748596 0)
(7.33785 -0.00963439 0)
(7.34039 -0.0111617 0)
(7.34248 -0.0124964 0)
(7.34435 -0.0135477 0)
(7.34606 -0.0143184 0)
(7.34756 -0.0149099 0)
(7.34888 -0.0153926 0)
(7.35005 -0.0157925 0)
(7.35112 -0.016125 0)
(7.3521 -0.0164068 0)
(7.35301 -0.0166528 0)
(7.35385 -0.0168736 0)
(7.35463 -0.0170767 0)
(7.35537 -0.0172676 0)
(7.35607 -0.0174509 0)
(7.35673 -0.0176298 0)
(7.35736 -0.0178066 0)
(7.35796 -0.0179829 0)
(7.35853 -0.01816 0)
(7.35907 -0.0183384 0)
(7.35958 -0.0185186 0)
(7.36006 -0.0187009 0)
(7.36052 -0.0188851 0)
(7.36095 -0.0190711 0)
(7.36136 -0.0192587 0)
(7.36174 -0.0194472 0)
(7.3621 -0.0196359 0)
(7.36243 -0.0198234 0)
(7.36274 -0.0200084 0)
(7.36301 -0.0201861 0)
(7.36326 -0.0203574 0)
(7.33597 -0.00734845 0)
(7.3463 -0.0150967 0)
(7.35617 -0.0177367 0)
(7.36436 -0.0188971 0)
(7.37191 -0.0197792 0)
(7.37926 -0.0203568 0)
(7.38624 -0.0206456 0)
(7.39271 -0.0207945 0)
(7.39874 -0.0209012 0)
(7.40441 -0.0209912 0)
(7.40977 -0.0210685 0)
(7.41483 -0.0211386 0)
(7.41962 -0.0212065 0)
(7.42416 -0.0212743 0)
(7.42845 -0.0213419 0)
(7.43253 -0.0214093 0)
(7.43639 -0.0214765 0)
(7.44005 -0.0215436 0)
(7.44353 -0.0216107 0)
(7.44681 -0.021678 0)
(7.44993 -0.0217456 0)
(7.45287 -0.0218139 0)
(7.45565 -0.0218832 0)
(7.45828 -0.0219539 0)
(7.46076 -0.0220262 0)
(7.4631 -0.0221005 0)
(7.46531 -0.0221771 0)
(7.46739 -0.0222565 0)
(7.46934 -0.0223391 0)
(7.47119 -0.0224253 0)
(7.47293 -0.022515 0)
(7.47458 -0.0226095 0)
(7.47617 -0.0227067 0)
(7.32333 -0.00889149 0)
(7.30978 -0.0181851 0)
(7.29242 -0.0222751 0)
(7.27081 -0.0243669 0)
(7.24822 -0.0257011 0)