/*--------------------------------*- C++ -*----------------------------------*\
| =========                 |                                                 |
| \\      /  F ield         | OpenFOAM: The Open Source CFD Toolbox           |
|  \\    /   O peration     | Version:  4.1                                   |
|   \\  /    A nd           | Web:      www.OpenFOAM.org                      |
|    \\/     M anipulation  |                                                 |
\*---------------------------------------------------------------------------*/
FoamFile
{
    version     2.0;
    format      ascii;
    class       volScalarField;
    location    "500";
    object      p;
}
// * * * * * * * * * * * * * * * * * * * * * * * * * * * * * * * * * * * * * //

dimensions      [0 2 -2 0 0 0 0];

internalField   nonuniform List<scalar> 
6820
(
-8.59186
-8.81869
-8.89559
-8.9076
-8.92693
-8.94897
-8.96548
-8.97828
-8.98938
-8.99888
-9.00669
-9.01291
-9.01767
-9.02097
-9.02277
-9.023
-9.02156
-9.0183
-9.01301
-9.00544
-8.99524
-8.98196
-8.96502
-8.94358
-8.91648
-8.88203
-8.83749
-8.77884
-8.69652
-8.58163
-8.37159
-8.11857
-7.06325
-8.66384
-8.80486
-8.86845
-8.88878
-8.91255
-8.93648
-8.9544
-8.96821
-8.97995
-8.98992
-8.99811
-9.00466
-9.00969
-9.01322
-9.01521
-9.01561
-9.0143
-9.01116
-9.00597
-8.99849
-8.98838
-8.97522
-8.95842
-8.93723
-8.91059
-8.87705
-8.83438
-8.77984
-8.70748
-8.61572
-8.48312
-8.35971
-8.27207
-8.72125
-8.80928
-8.86939
-8.89436
-8.91673
-8.93894
-8.95638
-8.97003
-8.98163
-8.99151
-8.99967
-9.00622
-9.01128
-9.01485
-9.01692
-9.01743
-9.01626
-9.01329
-9.00834
-9.00116
-8.99145
-8.97882
-8.96275
-8.94258
-8.91742
-8.88615
-8.84716
-8.79881
-8.73823
-8.66731
-8.58238
-8.52967
-8.51513
-8.76001
-8.81838
-8.87258
-8.89895
-8.9198
-8.94061
-8.95771
-8.97125
-8.98271
-8.9925
-9.00062
-9.00718
-9.01226
-9.01591
-9.01807
-9.01871
-9.01773
-9.015
-9.01036
-9.00359
-8.99442
-8.98251
-8.96743
-8.94866
-8.92553
-8.89727
-8.86297
-8.82203
-8.77389
-8.72208
-8.66969
-8.64571
-8.65483
-8.79116
-8.83098
-8.87685
-8.90308
-8.92295
-8.94251
-8.95915
-8.97253
-8.98384
-8.99354
-9.00164
-9.00823
-9.01339
-9.01714
-9.01946
-9.02031
-9.01959
-9.0172
-9.013
-9.00679
-8.99836
-8.98743
-8.97367
-8.95671
-8.93613
-8.91152
-8.88259
-8.84957
-8.81338
-8.77806
-8.74895
-8.74453
-8.7734
-8.81729
-8.84478
-8.88253
-8.90778
-8.92678
-8.94507
-8.96108
-8.97422
-8.98536
-8.99495
-9.00303
-9.00965
-9.0149
-9.01879
-9.02131
-9.02241
-9.02203
-9.02007
-9.01642
-9.01092
-9.0034
-8.99366
-8.98149
-8.96666
-8.94898
-8.92838
-8.90506
-8.8798
-8.85429
-8.83246
-8.81978
-8.82798
-8.86426
-8.83946
-8.85875
-8.88946
-8.91306
-8.93112
-8.94815
-8.96344
-8.97627
-8.98722
-8.99669
-9.00474
-9.01141
-9.01677
-9.02083
-9.02359
-9.025
-9.02503
-9.02358
-9.02058
-9.01591
-9.00946
-9.00109
-8.99071
-8.97823
-8.96366
-8.94722
-8.9294
-8.91132
-8.89493
-8.88372
-8.88234
-8.8981
-8.93591
-8.85858
-8.87243
-8.89729
-8.91881
-8.93585
-8.9517
-8.96622
-8.97869
-8.98942
-8.99876
-9.00678
-9.01351
-9.019
-9.02326
-9.02629
-9.02808
-9.02857
-9.02772
-9.02546
-9.02173
-9.01646
-9.00961
-9.00116
-8.99116
-8.97978
-8.96741
-8.95477
-8.94307
-8.93424
-8.93118
-8.93748
-8.9577
-8.9949
-8.87537
-8.88557
-8.90569
-8.92497
-8.94091
-8.95568
-8.9694
-8.98146
-8.99196
-9.00117
-9.00916
-9.01596
-9.02159
-9.02608
-9.02943
-9.03163
-9.03265
-9.03245
-9.03102
-9.02832
-9.02434
-9.0191
-9.01266
-9.00517
-8.99694
-8.98845
-8.9805
-8.97432
-8.9716
-8.97467
-8.98617
-9.00889
-9.04464
-8.89034
-8.89806
-8.91439
-8.93147
-8.94628
-8.96003
-8.97297
-8.98458
-8.99483
-9.00391
-9.01188
-9.01875
-9.02455
-9.0293
-9.033
-9.03565
-9.03725
-9.03778
-9.03723
-9.03563
-9.033
-9.02941
-9.025
-9.02001
-9.01478
-9.00987
-9.00609
-9.00455
-9.0067
-9.0143
-9.02926
-9.05326
-9.08725
-8.90385
-8.90985
-8.92321
-8.93823
-8.95189
-8.9647
-8.97689
-8.98804
-8.99804
-9.00698
-9.01493
-9.02189
-9.02788
-9.03291
-9.037
-9.04014
-9.04236
-9.04365
-9.04404
-9.04358
-9.04233
-9.04042
-9.03802
-9.03541
-9.03298
-9.03131
-9.03114
-9.03345
-9.03941
-9.05034
-9.06755
-9.09203
-9.12425
-8.91619
-8.92096
-8.932
-8.94517
-8.9577
-8.96964
-8.98112
-8.99181
-9.00155
-9.01037
-9.01831
-9.02538
-9.03157
-9.03691
-9.0414
-9.04508
-9.04794
-9.05004
-9.0514
-9.0521
-9.05224
-9.05197
-9.05151
-9.05115
-9.0513
-9.05249
-9.0554
-9.06085
-9.06975
-9.08308
-9.10171
-9.12619
-9.15671
-8.92755
-8.93143
-8.94065
-8.9522
-8.96368
-8.9748
-8.98562
-8.99588
-9.00536
-9.01407
-9.02202
-9.0292
-9.03561
-9.04128
-9.04621
-9.05043
-9.05398
-9.05689
-9.05924
-9.06111
-9.06262
-9.06395
-9.06532
-9.06705
-9.06951
-9.0732
-9.0787
-9.08667
-9.09783
-9.11286
-9.13232
-9.15651
-9.18543
-8.93808
-8.94131
-8.94911
-8.95927
-8.96976
-8.98013
-8.99036
-9.0002
-9.00945
-9.01806
-9.02603
-9.03334
-9.03999
-9.046
-9.05139
-9.05618
-9.06042
-9.06417
-9.0675
-9.07052
-9.07336
-9.07621
-9.0793
-9.08292
-9.08744
-9.09327
-9.10092
-9.11091
-9.12376
-9.13996
-9.15986
-9.18358
-9.21105
-8.94789
-8.95063
-8.95732
-8.96631
-8.97591
-8.98561
-8.99529
-9.00475
-9.01379
-9.02232
-9.03032
-9.03778
-9.04468
-9.05105
-9.05691
-9.06229
-9.06723
-9.07181
-9.07611
-9.08025
-9.08436
-9.08864
-9.09331
-9.09864
-9.10495
-9.11261
-9.12202
-9.13359
-9.1477
-9.16468
-9.18474
-9.2079
-9.23404
-8.95708
-8.95943
-8.96525
-8.97327
-8.98208
-8.99117
-9.00038
-9.0095
-9.01835
-9.02682
-9.03487
-9.04249
-9.04967
-9.05641
-9.06275
-9.06871
-9.07436
-9.07976
-9.085
-9.09021
-9.09553
-9.10113
-9.10723
-9.11407
-9.12194
-9.13113
-9.14197
-9.15477
-9.1698
-9.18727
-9.2073
-9.22985
-9.25478
-8.96568
-8.96775
-8.97288
-8.9801
-8.98823
-8.99679
-9.00558
-9.01441
-9.0231
-9.03153
-9.03966
-9.04746
-9.05492
-9.06204
-9.06886
-9.07541
-9.08174
-9.08794
-9.0941
-9.10032
-9.10676
-9.11358
-9.12096
-9.12913
-9.13833
-9.14879
-9.16078
-9.17452
-9.1902
-9.20796
-9.22782
-9.24975
-9.27358
-8.97377
-8.97561
-8.98019
-8.98676
-8.99432
-9.00241
-9.01085
-9.01944
-9.028
-9.03642
-9.04464
-9.05264
-9.06039
-9.0679
-9.0752
-9.08233
-9.08934
-9.09631
-9.10333
-9.11051
-9.11798
-9.12589
-9.13442
-9.14374
-9.15406
-9.16558
-9.17848
-9.19293
-9.20905
-9.22693
-9.24655
-9.26785
-9.29069
-8.98135
-8.98302
-8.98718
-8.99322
-9.0003
-9.00801
-9.01616
-9.02455
-9.03302
-9.04146
-9.04979
-9.058
-9.06605
-9.07395
-9.08173
-9.08943
-9.09709
-9.1048
-9.11263
-9.12069
-9.1291
-9.138
-9.14753
-9.15785
-9.16911
-9.18148
-9.1951
-9.21007
-9.22648
-9.24435
-9.26368
-9.28438
-9.30632
-8.98845
-8.98998
-8.99382
-8.99944
-9.00614
-9.01354
-9.02145
-9.0297
-9.03812
-9.0466
-9.05507
-9.06349
-9.07186
-9.08015
-9.0884
-9.09665
-9.10494
-9.11334
-9.12193
-9.1308
-9.14007
-9.14984
-9.16024
-9.17141
-9.18346
-9.19651
-9.21067
-9.22601
-9.24258
-9.26039
-9.27939
-9.2995
-9.32062
-8.99507
-8.9965
-9.00009
-9.00539
-9.01179
-9.01895
-9.02669
-9.03484
-9.04325
-9.0518
-9.06043
-9.06909
-9.07776
-9.08645
-9.09517
-9.10394
-9.11283
-9.12188
-9.13117
-9.14078
-9.15081
-9.16135
-9.17251
-9.18439
-9.19708
-9.21068
-9.22525
-9.24085
-9.25748
-9.27515
-9.29381
-9.31337
-9.33373
-9.00121
-9.00257
-9.00597
-9.01104
-9.01721
-9.0242
-9.03182
-9.03993
-9.04836
-9.05702
-9.06582
-9.07473
-9.08373
-9.0928
-9.10197
-9.11125
-9.12069
-9.13035
-9.14028
-9.15056
-9.16127
-9.17248
-9.18429
-9.19676
-9.20998
-9.22401
-9.23888
-9.25464
-9.27127
-9.28876
-9.30706
-9.3261
-9.34578
-9.00686
-9.00817
-9.01144
-9.01634
-9.02237
-9.02924
-9.03681
-9.04492
-9.05342
-9.0622
-9.07121
-9.08038
-9.0897
-9.09915
-9.10875
-9.11852
-9.12849
-9.13871
-9.14923
-9.16011
-9.17141
-9.18321
-9.19556
-9.20853
-9.22217
-9.23652
-9.25161
-9.26744
-9.28402
-9.30131
-9.31926
-9.3378
-9.35686
-9.01198
-9.01326
-9.01645
-9.02126
-9.0272
-9.03403
-9.0416
-9.04975
-9.05836
-9.06731
-9.07653
-9.08598
-9.09562
-9.10545
-9.11547
-9.1257
-9.13616
-9.14689
-9.15794
-9.16935
-9.18118
-9.19348
-9.20629
-9.21967
-9.23364
-9.24824
-9.26347
-9.27933
-9.29582
-9.31288
-9.33049
-9.34857
-9.36705
-9.01655
-9.01781
-9.02097
-9.02574
-9.03167
-9.03852
-9.04614
-9.05439
-9.06314
-9.07229
-9.08175
-9.09148
-9.10146
-9.11165
-9.12208
-9.13273
-9.14365
-9.15486
-9.16638
-9.17827
-9.19056
-9.20328
-9.21648
-9.23019
-9.24442
-9.25919
-9.2745
-9.29035
-9.30672
-9.32355
-9.34082
-9.35847
-9.37642
-9.02051
-9.02178
-9.02495
-9.02974
-9.03572
-9.04264
-9.05038
-9.05878
-9.06771
-9.07708
-9.0868
-9.09684
-9.10714
-9.1177
-9.12851
-9.13958
-9.15092
-9.16256
-9.17451
-9.18682
-9.1995
-9.21259
-9.22611
-9.24008
-9.2545
-9.2694
-9.28475
-9.30056
-9.31678
-9.33338
-9.35033
-9.36756
-9.38504
-9.02379
-9.02509
-9.02831
-9.0332
-9.03929
-9.04635
-9.05425
-9.06285
-9.07202
-9.08164
-9.09165
-9.10199
-9.11263
-9.12355
-9.13473
-9.14619
-9.15792
-9.16995
-9.18229
-9.19496
-9.20799
-9.22138
-9.23516
-9.24934
-9.26392
-9.27889
-9.29425
-9.30998
-9.32605
-9.34242
-9.35906
-9.37592
-9.39295
-9.02633
-9.02767
-9.03099
-9.03603
-9.04231
-9.04958
-9.05771
-9.06656
-9.076
-9.08591
-9.09623
-9.1069
-9.11787
-9.12914
-9.14069
-9.15251
-9.1646
-9.17699
-9.18967
-9.20267
-9.21599
-9.22965
-9.24364
-9.25798
-9.27267
-9.28769
-9.30303
-9.31866
-9.33457
-9.35072
-9.36707
-9.38358
-9.4002
-9.02802
-9.02942
-9.03291
-9.03817
-9.04472
-9.05227
-9.0607
-9.06986
-9.07961
-9.08985
-9.1005
-9.1115
-9.12283
-9.13444
-9.14634
-9.1585
-9.17094
-9.18365
-9.19664
-9.20992
-9.2235
-9.23737
-9.25154
-9.26601
-9.28077
-9.2958
-9.3111
-9.32664
-9.34238
-9.35831
-9.37439
-9.39057
-9.40683
-9.02874
-9.03024
-9.03394
-9.03953
-9.04643
-9.05435
-9.06315
-9.07268
-9.0828
-9.0934
-9.10441
-9.11577
-9.12745
-9.13941
-9.15164
-9.16413
-9.17688
-9.18989
-9.20316
-9.21669
-9.23049
-9.24454
-9.25886
-9.27342
-9.28823
-9.30326
-9.31851
-9.33394
-9.34953
-9.36525
-9.38107
-9.39696
-9.41288
-9.02834
-9.02996
-9.03397
-9.03999
-9.04736
-9.05575
-9.065
-9.07497
-9.08552
-9.09653
-9.10793
-9.11966
-9.1317
-9.144
-9.15656
-9.16937
-9.18241
-9.19569
-9.20921
-9.22296
-9.23694
-9.25115
-9.26557
-9.28021
-9.29505
-9.31006
-9.32524
-9.34056
-9.356
-9.37152
-9.38711
-9.40272
-9.41834
-9.02659
-9.0284
-9.03285
-9.03946
-9.04744
-9.05641
-9.06621
-9.0767
-9.08773
-9.09919
-9.11101
-9.12313
-9.13553
-9.14818
-9.16106
-9.17417
-9.18749
-9.20103
-9.21477
-9.22872
-9.24287
-9.25721
-9.27173
-9.28643
-9.30128
-9.31627
-9.33139
-9.34661
-9.3619
-9.37724
-9.39261
-9.40798
-9.42332
-9.02325
-9.02531
-9.03039
-9.03781
-9.04658
-9.05626
-9.06673
-9.07784
-9.08944
-9.1014
-9.11367
-9.1262
-9.13897
-9.15195
-9.16514
-9.17852
-9.19209
-9.20585
-9.21978
-9.23389
-9.24818
-9.26262
-9.27721
-9.29194
-9.30679
-9.32174
-9.33679
-9.3519
-9.36705
-9.38223
-9.3974
-9.41254
-9.42764
-9.01794
-9.02039
-9.02637
-9.03493
-9.04473
-9.05526
-9.06648
-9.07828
-9.09049
-9.103
-9.11575
-9.12872
-9.14189
-9.15524
-9.16875
-9.18243
-9.19627
-9.21026
-9.2244
-9.23868
-9.2531
-9.26765
-9.28231
-9.29708
-9.31194
-9.32687
-9.34185
-9.35687
-9.37191
-9.38693
-9.40193
-9.41687
-9.43174
-9.01014
-9.01318
-9.02054
-9.0307
-9.04185
-9.05352
-9.06576
-9.07842
-9.09132
-9.10437
-9.11757
-9.13092
-9.14441
-9.15802
-9.17177
-9.18565
-9.19966
-9.2138
-9.22807
-9.24246
-9.25696
-9.27157
-9.28627
-9.30105
-9.31589
-9.33078
-9.34571
-9.36064
-9.37556
-9.39046
-9.40531
-9.4201
-9.4348
-8.999
-9.00316
-9.01284
-9.02503
-9.03743
-9.05015
-9.0635
-9.07723
-9.09103
-9.10487
-9.11876
-9.13272
-9.14673
-9.16079
-9.17492
-9.18913
-9.20341
-9.21778
-9.23223
-9.24676
-9.26138
-9.27606
-9.29081
-9.3056
-9.32044
-9.33529
-9.35015
-9.365
-9.37981
-9.39458
-9.40927
-9.42387
-9.43835
-8.98312
-8.9889
-9.00353
-9.01991
-9.03444
-9.04837
-9.06261
-9.07691
-9.09102
-9.10504
-9.11906
-9.13313
-9.14724
-9.16141
-9.17564
-9.18996
-9.20436
-9.21884
-9.2334
-9.24803
-9.26273
-9.27749
-9.2923
-9.30714
-9.322
-9.33686
-9.35172
-9.36654
-9.38132
-9.39604
-9.41068
-9.42524
-9.43971
-8.96165
-8.96836
-8.98686
-9.00659
-9.02436
-9.04177
-9.05909
-9.07576
-9.09169
-9.10714
-9.12227
-9.13716
-9.15187
-9.16645
-9.18098
-9.19549
-9.21
-9.22453
-9.2391
-9.25371
-9.26836
-9.28305
-9.29776
-9.3125
-9.32724
-9.34197
-9.35669
-9.37136
-9.38597
-9.40051
-9.41495
-9.42926
-9.44341
-8.92859
-8.96354
-8.99259
-9.0082
-9.02168
-9.03745
-9.05371
-9.06926
-9.08439
-9.0995
-9.11461
-9.12966
-9.14464
-9.1596
-9.17454
-9.18948
-9.20443
-9.21939
-9.23436
-9.24935
-9.26435
-9.27936
-9.29437
-9.30937
-9.32435
-9.3393
-9.3542
-9.36904
-9.38382
-9.39851
-9.4131
-9.4276
-9.44199
-8.78736
-8.89473
-8.96827
-9.00013
-9.02281
-9.04654
-9.0682
-9.08645
-9.10268
-9.11806
-9.13292
-9.14736
-9.16154
-9.1756
-9.18962
-9.20366
-9.21775
-9.23189
-9.24611
-9.2604
-9.27475
-9.28916
-9.30362
-9.31811
-9.33261
-9.34711
-9.36159
-9.37604
-9.39043
-9.40474
-9.41897
-9.43308
-9.44708
-8.2227
-8.2776
-9.15997
-9.6346
-9.68895
-9.71092
-9.75994
-9.80024
-9.83242
-9.86456
-9.89741
-9.93023
-9.96315
-9.99637
-10.0298
-10.0634
-10.0971
-10.1306
-10.1639
-10.1968
-10.2292
-10.2608
-10.2916
-10.3214
-10.35
-10.3772
-10.403
-10.427
-10.4493
-10.4697
-10.488
-10.5043
-10.5185
-10.5305
-10.5405
-10.5485
-10.5546
-10.559
-10.562
-10.5637
-10.5646
-10.565
-10.5652
-10.5657
-10.5669
-10.5693
-10.5734
-10.5794
-10.5877
-10.5987
-10.6126
-10.6293
-10.649
-10.6714
-10.6961
-10.7225
-10.7499
-10.7772
-10.8031
-10.8262
-10.8447
-10.8565
-10.8593
-10.8505
-10.8272
-10.7864
-10.7247
-10.6387
-10.5247
-10.3793
-10.1992
-9.98144
-9.72373
-9.42473
-9.08426
-8.70348
-8.28503
-7.83304
-7.35301
-6.85152
-6.33593
-5.81399
-5.29341
-4.78152
-4.28492
-3.80918
-3.35875
-2.9369
-2.54575
-2.18638
-1.85888
-1.56263
-1.29622
-1.0581
-0.845395
-0.657096
-0.486191
-0.338956
-0.186246
-0.086645
-8.79322
-8.95082
-9.28949
-9.55802
-9.63144
-9.67416
-9.73031
-9.77685
-9.81373
-9.84885
-9.88382
-9.91823
-9.95233
-9.98642
-10.0205
-10.0546
-10.0886
-10.1223
-10.1558
-10.1888
-10.2212
-10.2529
-10.2837
-10.3134
-10.342
-10.3692
-10.3948
-10.4189
-10.4411
-10.4614
-10.4798
-10.4961
-10.5103
-10.5225
-10.5326
-10.5407
-10.5471
-10.5517
-10.555
-10.5571
-10.5583
-10.559
-10.5596
-10.5605
-10.5621
-10.5648
-10.5691
-10.5753
-10.5838
-10.5948
-10.6085
-10.625
-10.6443
-10.666
-10.6898
-10.7152
-10.7413
-10.7671
-10.7913
-10.8124
-10.8286
-10.838
-10.8382
-10.8265
-10.8003
-10.7565
-10.6917
-10.6026
-10.4857
-10.3377
-10.1553
-9.93576
-9.67699
-9.37777
-9.03802
-8.65897
-8.24329
-7.79505
-7.31963
-6.82345
-6.31366
-5.79774
-5.28319
-4.77708
-4.2858
-3.81476
-3.3683
-2.94962
-2.5608
-2.20293
-1.87614
-1.57986
-1.31274
-1.0733
-0.858678
-0.668042
-0.494153
-0.344164
-0.187005
-0.0875445
-8.80339
-8.98618
-9.21649
-9.46617
-9.5857
-9.6464
-9.70512
-9.75592
-9.79696
-9.83462
-9.87135
-9.90711
-9.94218
-9.97695
-10.0115
-10.0459
-10.0801
-10.114
-10.1475
-10.1805
-10.2129
-10.2445
-10.2753
-10.3049
-10.3334
-10.3605
-10.3861
-10.41
-10.4322
-10.4525
-10.4709
-10.4872
-10.5015
-10.5138
-10.524
-10.5324
-10.5389
-10.5439
-10.5474
-10.5499
-10.5515
-10.5526
-10.5536
-10.5548
-10.5568
-10.5598
-10.5643
-10.5707
-10.5792
-10.5901
-10.6036
-10.6197
-10.6383
-10.6593
-10.6821
-10.7062
-10.7308
-10.7549
-10.7771
-10.796
-10.8098
-10.8165
-10.8138
-10.7992
-10.7698
-10.7227
-10.6547
-10.5624
-10.4426
-10.2919
-10.1073
-9.88616
-9.62655
-9.32738
-8.98866
-8.61171
-8.19918
-7.75508
-7.28467
-6.79417
-6.29051
-5.78094
-5.27268
-4.77259
-4.28682
-3.82065
-3.37828
-2.96286
-2.57644
-2.22011
-1.89405
-1.59774
-1.32989
-1.08909
-0.872529
-0.679498
-0.502617
-0.349757
-0.188406
-0.0885129
-8.8344
-9.01598
-9.2152
-9.42693
-9.55144
-9.62022
-9.68129
-9.73576
-9.78065
-9.82078
-9.85914
-9.89614
-9.93211
-9.96748
-10.0025
-10.0371
-10.0715
-10.1054
-10.1389
-10.1718
-10.2041
-10.2356
-10.2662
-10.2958
-10.3241
-10.3511
-10.3765
-10.4004
-10.4225
-10.4428
-10.4612
-10.4776
-10.492
-10.5044
-10.5148
-10.5234
-10.5302
-10.5354
-10.5393
-10.5421
-10.5441
-10.5456
-10.547
-10.5486
-10.5509
-10.5541
-10.5588
-10.5653
-10.5738
-10.5845
-10.5976
-10.6132
-10.6311
-10.6511
-10.6727
-10.6954
-10.7183
-10.7404
-10.7604
-10.7768
-10.788
-10.7918
-10.786
-10.7681
-10.7354
-10.6849
-10.6135
-10.518
-10.3952
-10.2419
-10.0552
-9.83262
-9.57239
-9.27355
-8.93621
-8.56172
-8.15273
-7.71317
-7.24816
-6.76371
-6.26654
-5.76362
-5.26194
-4.76809
-4.28805
-3.82691
-3.38877
-2.97671
-2.59277
-2.23804
-1.91274
-1.61642
-1.34783
-1.10566
-0.887126
-0.691653
-0.511776
-0.355947
-0.190598
-0.089783
-8.89755
-9.05781
-9.22684
-9.39887
-9.51862
-9.59481
-9.65907
-9.71617
-9.76419
-9.80663
-9.84656
-9.88475
-9.9216
-9.95757
-9.99296
-10.0278
-10.0623
-10.0963
-10.1297
-10.1626
-10.1947
-10.2261
-10.2565
-10.2859
-10.3141
-10.3409
-10.3663
-10.39
-10.4121
-10.4323
-10.4507
-10.4672
-10.4817
-10.4942
-10.5048
-10.5136
-10.5207
-10.5263
-10.5305
-10.5337
-10.5361
-10.538
-10.5397
-10.5417
-10.5443
-10.5478
-10.5526
-10.5591
-10.5674
-10.5779
-10.5905
-10.6054
-10.6224
-10.6413
-10.6615
-10.6826
-10.7036
-10.7235
-10.7411
-10.7549
-10.7631
-10.7638
-10.7547
-10.7334
-10.6972
-10.6432
-10.5683
-10.4696
-10.3438
-10.1879
-9.99923
-9.77542
-9.51481
-9.21658
-8.88094
-8.50925
-8.10416
-7.66951
-7.21023
-6.73217
-6.24177
-5.74578
-5.25091
-4.76351
-4.28937
-3.8334
-3.39962
-2.99101
-2.60962
-2.25655
-1.93204
-1.63572
-1.3664
-1.12284
-0.902317
-0.704366
-0.521494
-0.362609
-0.193421
-0.0912429
-8.95786
-9.09237
-9.23607
-9.37997
-9.49286
-9.57291
-9.63903
-9.69748
-9.74774
-9.7922
-9.83356
-9.87284
-9.91051
-9.94707
-9.98282
-10.0179
-10.0525
-10.0865
-10.1199
-10.1526
-10.1846
-10.2158
-10.2461
-10.2753
-10.3033
-10.3299
-10.3552
-10.3788
-10.4008
-10.4211
-10.4394
-10.4559
-10.4705
-10.4832
-10.4941
-10.5032
-10.5106
-10.5165
-10.5211
-10.5247
-10.5274
-10.5297
-10.5318
-10.5341
-10.537
-10.5407
-10.5456
-10.552
-10.5601
-10.5702
-10.5822
-10.5963
-10.6123
-10.6298
-10.6485
-10.6677
-10.6866
-10.7042
-10.7192
-10.7301
-10.7352
-10.7326
-10.72
-10.6951
-10.6553
-10.5977
-10.5193
-10.4173
-10.2886
-10.1302
-9.93972
-9.71486
-9.45411
-9.15678
-8.82313
-8.45459
-8.05373
-7.62429
-7.17106
-6.69967
-6.21631
-5.72747
-5.2396
-4.75884
-4.29073
-3.84007
-3.41073
-3.00568
-2.6269
-2.27553
-1.95185
-1.65554
-1.3855
-1.14054
-0.918027
-0.717568
-0.531709
-0.369689
-0.196792
-0.0928625
-9.01166
-9.12404
-9.24734
-9.37048
-9.47447
-9.55454
-9.62118
-9.68016
-9.73185
-9.77786
-9.82039
-9.86058
-9.89898
-9.93605
-9.97214
-10.0075
-10.0421
-10.0761
-10.1094
-10.142
-10.1739
-10.2049
-10.2349
-10.2639
-10.2917
-10.3182
-10.3433
-10.3669
-10.3888
-10.409
-10.4274
-10.444
-10.4587
-10.4716
-10.4826
-10.492
-10.4997
-10.506
-10.511
-10.5149
-10.5181
-10.5207
-10.5232
-10.5258
-10.5289
-10.5327
-10.5376
-10.5439
-10.5517
-10.5613
-10.5726
-10.5858
-10.6006
-10.6167
-10.6337
-10.6509
-10.6675
-10.6825
-10.6947
-10.7025
-10.7044
-10.6983
-10.6821
-10.6535
-10.6099
-10.5486
-10.4667
-10.3614
-10.2298
-10.0691
-9.87697
-9.65126
-9.39062
-9.09446
-8.76312
-8.39801
-8.00167
-7.57775
-7.13084
-6.66636
-6.19026
-5.70876
-5.22806
-4.75406
-4.29212
-3.84686
-3.42207
-3.02063
-2.64452
-2.2949
-1.97209
-1.67582
-1.40506
-1.15871
-0.934195
-0.731206
-0.542373
-0.377151
-0.200644
-0.0946378
-9.05927
-9.15409
-9.26033
-9.36704
-9.46173
-9.53956
-9.60574
-9.66459
-9.71696
-9.76397
-9.80737
-9.84826
-9.88723
-9.92472
-9.96109
-9.99655
-10.0312
-10.0652
-10.0984
-10.1309
-10.1626
-10.1934
-10.2232
-10.252
-10.2796
-10.3059
-10.3309
-10.3543
-10.3761
-10.3963
-10.4147
-10.4314
-10.4462
-10.4593
-10.4706
-10.4802
-10.4882
-10.4948
-10.5002
-10.5045
-10.5081
-10.5111
-10.5139
-10.5167
-10.5199
-10.5238
-10.5287
-10.5347
-10.5422
-10.5512
-10.5617
-10.5738
-10.5873
-10.6018
-10.6169
-10.632
-10.6462
-10.6585
-10.6677
-10.6723
-10.6707
-10.661
-10.6411
-10.6086
-10.5612
-10.4962
-10.4109
-10.3023
-10.1679
-10.005
-9.81135
-9.585
-9.32472
-9.02999
-8.70122
-8.33982
-7.94828
-7.53011
-7.08974
-6.63237
-6.1637
-5.6897
-5.2163
-4.74918
-4.29349
-3.85372
-3.43355
-3.03579
-2.66241
-2.31458
-1.99267
-1.69647
-1.42501
-1.17726
-0.950752
-0.745222
-0.55343
-0.384953
-0.204905
-0.096562
-9.10101
-9.18216
-9.27418
-9.36761
-9.45359
-9.52794
-9.59276
-9.6509
-9.7033
-9.75082
-9.79476
-9.83613
-9.87549
-9.91328
-9.94984
-9.9854
-10.0201
-10.054
-10.0871
-10.1194
-10.1509
-10.1814
-10.2111
-10.2396
-10.267
-10.2931
-10.3179
-10.3412
-10.363
-10.3831
-10.4015
-10.4182
-10.4332
-10.4464
-10.4579
-10.4678
-10.4761
-10.4831
-10.4888
-10.4935
-10.4974
-10.5008
-10.5038
-10.5069
-10.5102
-10.5141
-10.5189
-10.5246
-10.5316
-10.5399
-10.5495
-10.5605
-10.5725
-10.5853
-10.5984
-10.6112
-10.6228
-10.6322
-10.6383
-10.6395
-10.6344
-10.6209
-10.5972
-10.5609
-10.5097
-10.4409
-10.352
-10.2404
-10.1033
-9.93829
-9.7433
-9.51652
-9.25682
-8.96376
-8.6378
-8.28035
-7.89382
-7.48161
-7.04796
-6.59786
-6.13675
-5.67035
-5.20435
-4.74418
-4.29483
-3.86061
-3.4451
-3.05108
-2.68048
-2.33448
-2.0135
-1.71739
-1.44525
-1.19612
-0.967629
-0.759554
-0.564822
-0.39305
-0.209505
-0.0986255
-9.13759
-9.20813
-9.28845
-9.371
-9.44912
-9.51933
-9.58209
-9.63904
-9.69098
-9.73856
-9.78273
-9.82435
-9.86394
-9.90191
-9.93857
-9.97415
-10.0088
-10.0426
-10.0755
-10.1076
-10.1389
-10.1693
-10.1986
-10.2269
-10.2541
-10.28
-10.3046
-10.3278
-10.3494
-10.3695
-10.3879
-10.4047
-10.4197
-10.4331
-10.4448
-10.455
-10.4636
-10.4709
-10.4769
-10.482
-10.4862
-10.4898
-10.4931
-10.4964
-10.4998
-10.5036
-10.5082
-10.5136
-10.52
-10.5275
-10.5361
-10.5458
-10.5562
-10.5672
-10.5782
-10.5885
-10.5974
-10.6039
-10.6067
-10.6045
-10.5957
-10.5785
-10.5508
-10.5106
-10.4555
-10.383
-10.2907
-10.176
-10.0363
-9.8694
-9.67326
-9.44625
-9.18734
-8.89617
-8.57323
-8.21992
-7.83859
-7.43248
-7.00569
-6.56296
-6.1095
-5.65077
-5.19223
-4.73907
-4.29609
-3.86747
-3.45668
-3.06642
-2.69864
-2.35451
-2.0345
-1.7385
-1.46571
-1.21522
-0.984756
-0.774141
-0.576489
-0.401395
-0.214378
-0.100816
-9.16981
-9.23206
-9.30282
-9.37632
-9.44744
-9.5133
-9.57354
-9.62892
-9.68001
-9.72727
-9.77139
-9.81303
-9.85269
-9.89071
-9.92738
-9.96292
-9.99747
-10.0311
-10.0639
-10.0958
-10.1268
-10.1569
-10.186
-10.2141
-10.241
-10.2667
-10.2911
-10.3141
-10.3357
-10.3557
-10.3741
-10.3909
-10.406
-10.4195
-10.4314
-10.4418
-10.4507
-10.4582
-10.4646
-10.4699
-10.4744
-10.4783
-10.4818
-10.4852
-10.4886
-10.4924
-10.4966
-10.5016
-10.5073
-10.514
-10.5215
-10.5298
-10.5386
-10.5477
-10.5564
-10.5642
-10.5703
-10.5737
-10.5732
-10.5675
-10.5549
-10.5339
-10.5023
-10.4582
-10.3992
-10.3231
-10.2274
-10.1096
-9.9675
-9.79883
-9.60171
-9.37465
-9.1167
-8.8276
-8.50786
-8.15885
-7.78284
-7.38296
-6.9631
-6.52781
-6.08205
-5.63103
-5.17996
-4.73383
-4.29725
-3.87425
-3.46819
-3.08174
-2.71681
-2.37458
-2.05557
-1.75972
-1.48631
-1.23447
-1.00206
-0.788922
-0.588374
-0.409944
-0.219465
-0.103118
-9.19838
-9.25404
-9.31699
-9.38293
-9.44786
-9.50942
-9.56689
-9.62044
-9.67037
-9.717
-9.76079
-9.80227
-9.84182
-9.87977
-9.91636
-9.9518
-9.9862
-10.0197
-10.0522
-10.0839
-10.1147
-10.1445
-10.1734
-10.2012
-10.2279
-10.2533
-10.2775
-10.3004
-10.3218
-10.3417
-10.3601
-10.3769
-10.3921
-10.4057
-10.4178
-10.4283
-10.4375
-10.4453
-10.4519
-10.4575
-10.4623
-10.4664
-10.47
-10.4734
-10.4768
-10.4804
-10.4843
-10.4888
-10.4938
-10.4996
-10.5059
-10.5127
-10.5198
-10.5269
-10.5333
-10.5385
-10.5418
-10.542
-10.5381
-10.5288
-10.5125
-10.4875
-10.452
-10.404
-10.3412
-10.2614
-10.1624
-10.0418
-9.89735
-9.72705
-9.5291
-9.30215
-9.04534
-8.75845
-8.44204
-8.09745
-7.72685
-7.33325
-6.92038
-6.49254
-6.05448
-5.61117
-5.16757
-4.72846
-4.29828
-3.8809
-3.4796
-3.09697
-2.73491
-2.39462
-2.07664
-1.78097
-1.50696
-1.25381
-1.01948
-0.803835
-0.600418
-0.418651
-0.224711
-0.105513
-9.22388
-9.27421
-9.33078
-9.39036
-9.44985
-9.50732
-9.5619
-9.61342
-9.66198
-9.70773
-9.75098
-9.7921
-9.8314
-9.86916
-9.90558
-9.94084
-9.97505
-10.0083
-10.0406
-10.072
-10.1026
-10.1321
-10.1607
-10.1882
-10.2147
-10.2399
-10.2639
-10.2866
-10.3078
-10.3277
-10.346
-10.3628
-10.3781
-10.3918
-10.404
-10.4147
-10.424
-10.4321
-10.439
-10.4448
-10.4497
-10.454
-10.4577
-10.4612
-10.4644
-10.4678
-10.4714
-10.4752
-10.4795
-10.4842
-10.4893
-10.4947
-10.5
-10.5049
-10.509
-10.5116
-10.5119
-10.509
-10.5017
-10.4887
-10.4686
-10.4398
-10.4004
-10.3484
-10.2819
-10.1986
-10.0963
-9.97294
-9.8263
-9.6545
-9.45587
-9.22917
-8.97362
-8.68908
-8.3761
-8.03599
-7.67085
-7.28357
-6.87767
-6.45727
-6.02688
-5.59123
-5.15507
-4.72296
-4.29914
-3.88738
-3.49083
-3.11204
-2.75288
-2.41455
-2.09763
-1.80217
-1.5276
-1.27317
-1.03695
-0.818823
-0.612565
-0.427472
-0.230067
-0.107981
-9.24677
-9.29275
-9.34404
-9.39825
-9.45298
-9.50663
-9.55833
-9.60774
-9.65475
-9.69943
-9.74195
-9.78255
-9.82147
-9.85893
-9.89508
-9.93009
-9.96406
-9.99706
-10.0291
-10.0603
-10.0905
-10.1198
-10.1481
-10.1754
-10.2015
-10.2265
-10.2503
-10.2728
-10.2939
-10.3136
-10.3319
-10.3487
-10.364
-10.3778
-10.3901
-10.401
-10.4105
-10.4187
-10.4258
-10.4318
-10.4369
-10.4413
-10.4451
-10.4485
-10.4516
-10.4547
-10.4578
-10.4611
-10.4645
-10.4682
-10.472
-10.4757
-10.4792
-10.4821
-10.4837
-10.4836
-10.481
-10.4748
-10.4641
-10.4475
-10.4237
-10.391
-10.3477
-10.2919
-10.2217
-10.1349
-10.0295
-9.9035
-9.75478
-9.58161
-9.38243
-9.15609
-8.90192
-8.6198
-8.31031
-7.97473
-7.61507
-7.23407
-6.83512
-6.42211
-5.99933
-5.57128
-5.14248
-4.71731
-4.29982
-3.89364
-3.50184
-3.12689
-2.77063
-2.43428
-2.11846
-1.82325
-1.54814
-1.29247
-1.0544
-0.833829
-0.62476
-0.436363
-0.235493
-0.1105
-9.26742
-9.30979
-9.3567
-9.40637
-9.45692
-9.50705
-9.55597
-9.60321
-9.64859
-9.69206
-9.7337
-9.77364
-9.81205
-9.8491
-9.88491
-9.91961
-9.95328
-9.98598
-10.0178
-10.0486
-10.0786
-10.1075
-10.1356
-10.1625
-10.1885
-10.2132
-10.2368
-10.2591
-10.2801
-10.2997
-10.3179
-10.3346
-10.3499
-10.3638
-10.3762
-10.3872
-10.3969
-10.4052
-10.4125
-10.4186
-10.4238
-10.4283
-10.4321
-10.4354
-10.4383
-10.4411
-10.4437
-10.4463
-10.4489
-10.4515
-10.4539
-10.4561
-10.4577
-10.4584
-10.4576
-10.4548
-10.4492
-10.4399
-10.4257
-10.4056
-10.378
-10.3415
-10.2943
-10.2348
-10.1609
-10.0708
-9.96244
-9.83384
-9.68317
-9.50874
-9.30912
-9.08325
-8.83053
-8.55091
-8.24495
-7.9139
-7.55969
-7.18494
-6.79285
-6.38714
-5.97188
-5.55134
-5.12982
-4.71151
-4.3003
-3.89966
-3.51257
-3.14145
-2.7881
-2.45376
-2.13905
-1.84413
-1.56853
-1.31165
-1.07177
-0.848797
-0.636954
-0.445282
-0.24095
-0.113047
-9.28616
-9.32549
-9.36872
-9.41451
-9.46141
-9.50834
-9.5546
-9.5997
-9.6434
-9.68556
-9.72619
-9.76536
-9.80316
-9.83971
-9.8751
-9.90942
-9.94274
-9.97511
-10.0066
-10.0371
-10.0667
-10.0954
-10.1231
-10.1498
-10.1755
-10.2
-10.2234
-10.2455
-10.2663
-10.2858
-10.3039
-10.3206
-10.3359
-10.3498
-10.3623
-10.3734
-10.3832
-10.3917
-10.399
-10.4053
-10.4106
-10.4151
-10.4188
-10.422
-10.4247
-10.4271
-10.4292
-10.431
-10.4327
-10.4342
-10.4352
-10.4358
-10.4355
-10.434
-10.4309
-10.4254
-10.4168
-10.4043
-10.3868
-10.363
-10.3318
-10.2915
-10.2406
-10.1774
-10.1
-10.0066
-9.89533
-9.76431
-9.61179
-9.43621
-9.23625
-9.01094
-8.75975
-8.48265
-8.18023
-7.85369
-7.50488
-7.1363
-6.75099
-6.35247
-5.9446
-5.53145
-5.11711
-4.70557
-4.30054
-3.90539
-3.52298
-3.15567
-2.80524
-2.47291
-2.15935
-1.86474
-1.58869
-1.33065
-1.089
-0.863674
-0.649096
-0.454189
-0.246407
-0.1156
-9.30322
-9.33997
-9.38009
-9.42256
-9.46624
-9.51028
-9.55404
-9.59706
-9.63905
-9.67986
-9.7194
-9.7577
-9.7948
-9.83076
-9.86566
-9.89954
-9.93247
-9.96447
-9.99557
-10.0258
-10.0551
-10.0835
-10.1109
-10.1373
-10.1627
-10.1869
-10.2101
-10.232
-10.2526
-10.272
-10.29
-10.3067
-10.322
-10.3359
-10.3484
-10.3596
-10.3694
-10.3781
-10.3855
-10.3918
-10.3972
-10.4016
-10.4053
-10.4083
-10.4107
-10.4127
-10.4142
-10.4153
-10.4161
-10.4164
-10.4161
-10.415
-10.4128
-10.4091
-10.4036
-10.3954
-10.3839
-10.3682
-10.3473
-10.3201
-10.2852
-10.2413
-10.1867
-10.1199
-10.0391
-9.94258
-9.82851
-9.69517
-9.54093
-9.3643
-9.1641
-8.93941
-8.68979
-8.41524
-8.11634
-7.79427
-7.45079
-7.08827
-6.70961
-6.31815
-5.91754
-5.51165
-5.10435
-4.69947
-4.30054
-3.91081
-3.53303
-3.16951
-2.82198
-2.49168
-2.17929
-1.88503
-1.60857
-1.34941
-1.10605
-0.878411
-0.661141
-0.463046
-0.251834
-0.11814
-9.3188
-9.35334
-9.39081
-9.43042
-9.47128
-9.51269
-9.55413
-9.59515
-9.63546
-9.67487
-9.71328
-9.75064
-9.78697
-9.82228
-9.85661
-9.89001
-9.92249
-9.95409
-9.98481
-10.0147
-10.0436
-10.0717
-10.0988
-10.1249
-10.15
-10.174
-10.1969
-10.2186
-10.2391
-10.2584
-10.2763
-10.2929
-10.3082
-10.322
-10.3346
-10.3458
-10.3557
-10.3644
-10.3719
-10.3783
-10.3836
-10.388
-10.3916
-10.3944
-10.3965
-10.398
-10.3989
-10.3993
-10.399
-10.3981
-10.3964
-10.3937
-10.3896
-10.3838
-10.3758
-10.365
-10.3506
-10.3318
-10.3077
-10.277
-10.2386
-10.191
-10.1329
-10.0626
-9.97852
-9.87895
-9.76222
-9.62668
-9.47081
-9.29325
-9.09287
-8.86887
-8.62085
-8.34885
-8.05345
-7.73577
-7.39753
-7.04096
-6.66882
-6.28426
-5.89075
-5.49196
-5.09157
-4.69321
-4.30029
-3.91588
-3.54269
-3.18291
-2.83828
-2.51002
-2.19881
-1.90493
-1.6281
-1.36788
-1.12284
-0.892957
-0.673043
-0.471815
-0.257206
-0.120648
-9.33308
-9.36571
-9.40089
-9.43802
-9.47639
-9.51545
-9.55473
-9.59385
-9.63253
-9.67054
-9.70778
-9.74416
-9.77965
-9.81425
-9.84798
-9.88083
-9.91284
-9.94399
-9.97431
-10.0038
-10.0324
-10.0601
-10.0869
-10.1127
-10.1375
-10.1613
-10.1839
-10.2054
-10.2258
-10.2449
-10.2627
-10.2792
-10.2944
-10.3083
-10.3209
-10.3321
-10.3421
-10.3508
-10.3583
-10.3647
-10.37
-10.3743
-10.3777
-10.3802
-10.382
-10.383
-10.3833
-10.3828
-10.3816
-10.3795
-10.3764
-10.372
-10.366
-10.3581
-10.3477
-10.3343
-10.3171
-10.2952
-10.2679
-10.2338
-10.1919
-10.1409
-10.0793
-10.0057
-9.91842
-9.81593
-9.69665
-9.55903
-9.40165
-9.22323
-9.02276
-8.7995
-8.5531
-8.28363
-7.99168
-7.67833
-7.34521
-6.99446
-6.62867
-6.25085
-5.86427
-5.47241
-5.07877
-4.68681
-4.29976
-3.9206
-3.55191
-3.19585
-2.85409
-2.52786
-2.21786
-1.92439
-1.64724
-1.38599
-1.13934
-0.907267
-0.684763
-0.480463
-0.262498
-0.123109
-9.34618
-9.37714
-9.41034
-9.44531
-9.48149
-9.51842
-9.55572
-9.59306
-9.63015
-9.6668
-9.70285
-9.73821
-9.77284
-9.80669
-9.83976
-9.87203
-9.90352
-9.9342
-9.96408
-9.99314
-10.0214
-10.0487
-10.0752
-10.1007
-10.1252
-10.1487
-10.1711
-10.1925
-10.2126
-10.2316
-10.2493
-10.2657
-10.2808
-10.2947
-10.3072
-10.3185
-10.3284
-10.3371
-10.3447
-10.351
-10.3562
-10.3604
-10.3636
-10.3659
-10.3673
-10.3678
-10.3674
-10.3661