/*--------------------------------*- C++ -*----------------------------------*\
| =========                 |                                                 |
| \\      /  F ield         | OpenFOAM: The Open Source CFD Toolbox           |
|  \\    /   O peration     | Version:  4.1                                   |
|   \\  /    A nd           | Web:      www.OpenFOAM.org                      |
|    \\/     M anipulation  |                                                 |
\*---------------------------------------------------------------------------*/
FoamFile
{
    version     2.0;
    format      ascii;
    class       surfaceScalarField;
    location    "500";
    object      phi;
}
// * * * * * * * * * * * * * * * * * * * * * * * * * * * * * * * * * * * * * //

dimensions      [0 3 -1 0 0 0 0];

internalField   nonuniform List<scalar> 
13452
(
5.98811e-05
3.87341e-07
5.95252e-05
3.55954e-07
5.92696e-05
2.55612e-07
5.90615e-05
2.08105e-07
5.88792e-05
1.82297e-07
5.87165e-05
1.62689e-07
5.85685e-05
1.4793e-07
5.84317e-05
1.36796e-07
5.8304e-05
1.27776e-07
5.81838e-05
1.20151e-07
5.80701e-05
1.13664e-07
5.7962e-05
1.08147e-07
5.78585e-05
1.03459e-07
5.7759e-05
9.94995e-08
5.76628e-05
9.62051e-08
5.75693e-05
9.35372e-08
5.74778e-05
9.14804e-08
5.73878e-05
9.00427e-08
5.72985e-05
8.92595e-08
5.72093e-05
8.91989e-08
5.71193e-05
8.99735e-08
5.70276e-05
9.17607e-08
5.69327e-05
9.48381e-08
5.68331e-05
9.96497e-08
5.67262e-05
1.06935e-07
5.66082e-05
1.17981e-07
5.64729e-05
1.35252e-07
5.63095e-05
1.63456e-07
5.60951e-05
2.14386e-07
5.57866e-05
3.08468e-07
5.52561e-05
5.30487e-07
5.42056e-05
1.05048e-06
1.53961e-06
5.2666e-05
6.20749e-05
3.02769e-07
6.19987e-05
4.32137e-07
6.18516e-05
4.02718e-07
6.16884e-05
3.71355e-07
6.15292e-05
3.41487e-07
6.13796e-05
3.12239e-07
6.124e-05
2.87555e-07
6.11092e-05
2.67576e-07
6.09861e-05
2.50913e-07
6.08695e-05
2.36707e-07
6.07587e-05
2.24524e-07
6.06528e-05
2.14058e-07
6.05512e-05
2.05069e-07
6.04533e-05
1.97395e-07
6.03585e-05
1.90929e-07
6.02665e-05
1.85606e-07
6.01765e-05
1.81399e-07
6.00883e-05
1.78321e-07
6.00011e-05
1.76426e-07
5.99145e-05
1.75823e-07
5.98278e-05
1.76692e-07
5.97402e-05
1.79308e-07
5.96509e-05
1.84097e-07
5.95589e-05
1.91715e-07
5.94626e-05
2.03213e-07
5.93603e-05
2.20285e-07
5.92495e-05
2.46026e-07
5.91276e-05
2.85378e-07
5.89914e-05
3.50579e-07
5.88445e-05
4.55408e-07
5.87101e-05
6.64909e-07
5.8756e-05
1.00451e-06
1.63882e-06
5.86568e-05
6.38373e-05
2.26847e-07
6.38685e-05
4.01005e-07
6.38444e-05
4.2676e-07
6.3785e-05
4.3078e-07
6.37046e-05
4.21832e-07
6.36141e-05
4.02834e-07
6.35196e-05
3.81997e-07
6.34245e-05
3.62643e-07
6.33304e-05
3.4505e-07
6.32379e-05
3.2919e-07
6.31474e-05
3.15073e-07
6.30588e-05
3.02623e-07
6.29721e-05
2.91732e-07
6.28872e-05
2.82317e-07
6.28038e-05
2.7433e-07
6.27217e-05
2.67751e-07
6.26405e-05
2.62596e-07
6.25599e-05
2.58923e-07
6.24795e-05
2.5684e-07
6.23988e-05
2.56522e-07
6.23172e-05
2.58234e-07
6.22342e-05
2.62367e-07
6.21488e-05
2.69503e-07
6.206e-05
2.80508e-07
6.19665e-05
2.96719e-07
6.18666e-05
3.20188e-07
6.17582e-05
3.54387e-07
6.16391e-05
4.0445e-07
6.15086e-05
4.81077e-07
6.13691e-05
5.94922e-07
6.12509e-05
7.83083e-07
6.12183e-05
1.03716e-06
1.47807e-06
6.1379e-05
6.5637e-05
1.72907e-07
6.56889e-05
3.49102e-07
6.57122e-05
4.03479e-07
6.57126e-05
4.30354e-07
6.5693e-05
4.4141e-07
6.56578e-05
4.38038e-07
6.56119e-05
4.27967e-07
6.55587e-05
4.15784e-07
6.55009e-05
4.0292e-07
6.54399e-05
3.90128e-07
6.5377e-05
3.7798e-07
6.53128e-05
3.66795e-07
6.52478e-05
3.56729e-07
6.51823e-05
3.47887e-07
6.51162e-05
3.40357e-07
6.50498e-05
3.34227e-07
6.49828e-05
3.29601e-07
6.49151e-05
3.26617e-07
6.48465e-05
3.25462e-07
6.47766e-05
3.26394e-07
6.4705e-05
3.2977e-07
6.46313e-05
3.36092e-07
6.45547e-05
3.46073e-07
6.44745e-05
3.60734e-07
6.43897e-05
3.81582e-07
6.4299e-05
4.10814e-07
6.42016e-05
4.51855e-07
6.40966e-05
5.09444e-07
6.39858e-05
5.91836e-07
6.38741e-05
7.06584e-07
6.37844e-05
8.72868e-07
6.37417e-05
1.07982e-06
1.3678e-06
6.3852e-05
6.74946e-05
1.35121e-07
6.75431e-05
3.00529e-07
6.75779e-05
3.68723e-07
6.76013e-05
4.06996e-07
6.76125e-05
4.3013e-07
6.76117e-05
4.38853e-07
6.76006e-05
4.39051e-07
6.75812e-05
4.3519e-07
6.75551e-05
4.29023e-07
6.75237e-05
4.21572e-07
6.7488e-05
4.13681e-07
6.74488e-05
4.05931e-07
6.74069e-05
3.98694e-07
6.73625e-05
3.92247e-07
6.73161e-05
3.86817e-07
6.72677e-05
3.82609e-07
6.72174e-05
3.79829e-07
6.71654e-05
3.78703e-07
6.71113e-05
3.79502e-07
6.70552e-05
3.82566e-07
6.69966e-05
3.88339e-07
6.69353e-05
3.97408e-07
6.68708e-05
4.10575e-07
6.68026e-05
4.28941e-07
6.67301e-05
4.54043e-07
6.66529e-05
4.88014e-07
6.65708e-05
5.33901e-07
6.64847e-05
5.95622e-07
6.63976e-05
6.78925e-07
6.63157e-05
7.88476e-07
6.62559e-05
9.32653e-07
6.6234e-05
1.1017e-06
1.30095e-06
6.63009e-05
6.94108e-05
1.08333e-07
6.94519e-05
2.59401e-07
6.94866e-05
3.34089e-07
6.95154e-05
3.78129e-07
6.9538e-05
4.07583e-07
6.9553e-05
4.23814e-07
6.95608e-05
4.31254e-07
6.95621e-05
4.33947e-07
6.95574e-05
4.33688e-07
6.95475e-05
4.31491e-07
6.95329e-05
4.28226e-07
6.95143e-05
4.24552e-07
6.94921e-05
4.20938e-07
6.94666e-05
4.1775e-07
6.94381e-05
4.15302e-07
6.94068e-05
4.13881e-07
6.93729e-05
4.13768e-07
6.93363e-05
4.1526e-07
6.92971e-05
4.18696e-07
6.92552e-05
4.2448e-07
6.92104e-05
4.33115e-07
6.91626e-05
4.45242e-07
6.91115e-05
4.61698e-07
6.90568e-05
4.8358e-07
6.89985e-05
5.12344e-07
6.89367e-05
5.49892e-07
6.88719e-05
5.98711e-07
6.88057e-05
6.61732e-07
6.87421e-05
7.42553e-07
6.86871e-05
8.43478e-07
6.86529e-05
9.6686e-07
6.86501e-05
1.10452e-06
1.25069e-06
6.87003e-05
7.13857e-05
8.90148e-08
7.14198e-05
2.25296e-07
7.14515e-05
3.02384e-07
7.14799e-05
3.49705e-07
7.15049e-05
3.82567e-07
7.15254e-05
4.03318e-07
7.15412e-05
4.15466e-07
7.15525e-05
4.22649e-07
7.15595e-05
4.26708e-07
7.15623e-05
4.28638e-07
7.15613e-05
4.29268e-07
7.15566e-05
4.29254e-07
7.15484e-05
4.29085e-07
7.1537e-05
4.29153e-07
7.15225e-05
4.29808e-07
7.1505e-05
4.31372e-07
7.14846e-05
4.34168e-07
7.14614e-05
4.38531e-07
7.14352e-05
4.44841e-07
7.14062e-05
4.53534e-07
7.13741e-05
4.65142e-07
7.13391e-05
4.80316e-07
7.13009e-05
4.99872e-07
7.12596e-05
5.24838e-07
7.12155e-05
5.56498e-07
7.11689e-05
5.96426e-07
7.11212e-05
6.46494e-07
7.10742e-05
7.08674e-07
7.10319e-05
7.84906e-07
7.09995e-05
8.75811e-07
7.09856e-05
9.80734e-07
7.09972e-05
1.09295e-06
1.20455e-06
7.10434e-05
7.34195e-05
7.47867e-08
7.34477e-05
1.97111e-07
7.34761e-05
2.73975e-07
7.35026e-05
3.23211e-07
7.3527e-05
3.58107e-07
7.35486e-05
3.8178e-07
7.35669e-05
3.9714e-07
7.35821e-05
4.07426e-07
7.35943e-05
4.14525e-07
7.36035e-05
4.19466e-07
7.36097e-05
4.23057e-07
7.3613e-05
4.25945e-07
7.36135e-05
4.28623e-07
7.36111e-05
4.31491e-07
7.3606e-05
4.34906e-07
7.35982e-05
4.39201e-07
7.35877e-05
4.44713e-07
7.35744e-05
4.51793e-07
7.35584e-05
4.6083e-07
7.35397e-05
4.72267e-07
7.35182e-05
4.86628e-07
7.3494e-05
5.04537e-07
7.34671e-05
5.26747e-07
7.34378e-05
5.54157e-07
7.34064e-05
5.87831e-07
7.33739e-05
6.28975e-07
7.33415e-05
6.78877e-07
7.33115e-05
7.38687e-07
7.32872e-05
8.0917e-07
7.32732e-05
8.89879e-07
7.3275e-05
9.78866e-07
7.32973e-05
1.07065e-06
1.15817e-06
7.33437e-05
7.55132e-05
6.40548e-08
7.55365e-05
1.7377e-07
7.55618e-05
2.4867e-07
7.55862e-05
2.98816e-07
7.56094e-05
3.3499e-07
7.56304e-05
3.60696e-07
7.56491e-05
3.78442e-07
7.56655e-05
3.91062e-07
7.56796e-05
4.00434e-07
7.56914e-05
4.07639e-07
7.5701e-05
4.13484e-07
7.57083e-05
4.18621e-07
7.57134e-05
4.23554e-07
7.57162e-05
4.28688e-07
7.57167e-05
4.34386e-07
7.57149e-05
4.40985e-07
7.57108e-05
4.48822e-07
7.57044e-05
4.58247e-07
7.56956e-05
4.69641e-07
7.56844e-05
4.83434e-07
7.56709e-05
5.00115e-07
7.56552e-05
5.2025e-07
7.56374e-05
5.44496e-07
7.5618e-05
5.73595e-07
7.55975e-05
6.08368e-07
7.55768e-05
6.49662e-07
7.55574e-05
6.98257e-07
7.55414e-05
7.54665e-07
7.55317e-05
8.18874e-07
7.55317e-05
8.89848e-07
7.55454e-05
9.65246e-07
7.55754e-05
1.04066e-06
1.11054e-06
7.5623e-05
7.76679e-05
5.57548e-08
7.76873e-05
1.54336e-07
7.77098e-05
2.26171e-07
7.77322e-05
2.76394e-07
7.77539e-05
3.13311e-07
7.77741e-05
3.40459e-07
7.77925e-05
3.60068e-07
7.7809e-05
3.74578e-07
7.78236e-05
3.85797e-07
7.78364e-05
3.94833e-07
7.78474e-05
4.025e-07
7.78566e-05
4.09453e-07
7.78639e-05
4.16209e-07
7.78694e-05
4.23187e-07
7.78731e-05
4.30751e-07
7.78748e-05
4.39242e-07
7.78747e-05
4.48994e-07
7.78726e-05
4.60347e-07
7.78685e-05
4.73664e-07
7.78626e-05
4.89343e-07
7.78549e-05
5.07826e-07
7.78456e-05
5.29603e-07
7.78348e-05
5.55213e-07
7.78232e-05
5.85232e-07
7.78113e-05
6.20245e-07
7.78002e-05
6.60778e-07
7.77913e-05
7.07204e-07
7.77864e-05
7.59571e-07
7.77878e-05
8.17401e-07
7.77983e-05
8.79393e-07
7.78203e-05
9.43259e-07
7.78554e-05
1.00551e-06
1.06198e-06
7.7904e-05
7.98849e-05
4.91718e-08
7.99012e-05
1.38024e-07
7.99212e-05
2.06165e-07
7.99418e-05
2.55774e-07
7.99622e-05
2.92988e-07
7.99815e-05
3.21121e-07
7.99994e-05
3.42185e-07
8.00157e-05
3.58272e-07
8.00304e-05
3.71063e-07
8.00436e-05
3.81668e-07
8.00552e-05
3.90894e-07
8.00652e-05
3.99397e-07
8.00738e-05
4.077e-07
8.00807e-05
4.16229e-07
8.00861e-05
4.25352e-07
8.00899e-05
4.35411e-07
8.00922e-05
4.4673e-07
8.00929e-05
4.59636e-07
8.00921e-05
4.74468e-07
8.00899e-05
4.91582e-07
8.00863e-05
5.11362e-07
8.00817e-05
5.34213e-07
8.00764e-05
5.60554e-07
8.00708e-05
5.90798e-07
8.00658e-05
6.25317e-07
8.00622e-05
6.64372e-07
8.00613e-05
7.0803e-07
8.00649e-05
7.5603e-07
8.00746e-05
8.07646e-07
8.00925e-05
8.61525e-07
8.01201e-05
9.15619e-07
8.01584e-05
9.67194e-07
1.01321e-06
8.02072e-05
8.21658e-05
4.38209e-08
8.21796e-05
1.24194e-07
8.21974e-05
1.88344e-07
8.22164e-05
2.36787e-07
8.22355e-05
2.73906e-07
8.2254e-05
3.02636e-07
8.22714e-05
3.24801e-07
8.22875e-05
3.42191e-07
8.23022e-05
3.56335e-07
8.23155e-05
3.68311e-07
8.23275e-05
3.78914e-07
8.23381e-05
3.88783e-07
8.23474e-05
3.98442e-07
8.23553e-05
4.08317e-07
8.23619e-05
4.18777e-07
8.23671e-05
4.30155e-07
8.23711e-05
4.42765e-07
8.23738e-05
4.56914e-07
8.23754e-05
4.72909e-07
8.23759e-05
4.91062e-07
8.23756e-05
5.11694e-07
8.23747e-05
5.3512e-07
8.23736e-05
5.61647e-07
8.23728e-05
5.91541e-07
8.23732e-05
6.24991e-07
8.23755e-05
6.62055e-07
8.23809e-05
7.02584e-07
8.23908e-05
7.46133e-07
8.24066e-05
7.91876e-07
8.24296e-05
8.38528e-07
8.24609e-05
8.84344e-07
8.25009e-05
9.27204e-07
9.64901e-07
8.25492e-05
8.45122e-05
3.937e-08
8.45241e-05
1.12331e-07
8.454e-05
1.72409e-07
8.45575e-05
2.19268e-07
8.45755e-05
2.55947e-07
8.45932e-05
2.84938e-07
8.46101e-05
3.07881e-07
8.4626e-05
3.26313e-07
8.46407e-05
3.41603e-07
8.46543e-05
3.54772e-07
8.46666e-05
3.66588e-07
8.46777e-05
3.77671e-07
8.46876e-05
3.8853e-07
8.46963e-05
3.99588e-07
8.47039e-05
4.11203e-07
8.47104e-05
4.23699e-07
8.47158e-05
4.37371e-07
8.47202e-05
4.52502e-07
8.47237e-05
4.69363e-07
8.47266e-05
4.88219e-07
8.47289e-05
5.09324e-07
8.47311e-05
5.32912e-07
8.47336e-05
5.59184e-07
8.47369e-05
5.8828e-07
8.47416e-05
6.20248e-07
8.47487e-05
6.54994e-07
8.4759e-05
6.92231e-07
8.47737e-05
7.31424e-07
8.47939e-05
7.71737e-07
8.48204e-05
8.12018e-07
8.48539e-05
8.50824e-07
8.48946e-05
8.86522e-07
9.17519e-07
8.4942e-05
8.69259e-05
3.55875e-08
8.69363e-05
1.02025e-07
8.69506e-05
1.58084e-07
8.69668e-05
2.03052e-07
8.69838e-05
2.3899e-07
8.70007e-05
2.67945e-07
8.70173e-05
2.91372e-07
8.7033e-05
3.10596e-07
8.70477e-05
3.26825e-07
8.70615e-05
3.41009e-07
8.70742e-05
3.53878e-07
8.70859e-05
3.66025e-07
8.70965e-05
3.77939e-07
8.7106e-05
3.90026e-07
8.71146e-05
4.02633e-07
8.71222e-05
4.16065e-07
8.7129e-05
4.30597e-07
8.7135e-05
4.4648e-07
8.71404e-05
4.63949e-07
8.71454e-05
4.83218e-07
8.71503e-05
5.0448e-07
8.71553e-05
5.27892e-07
8.71609e-05
5.53565e-07
8.71677e-05
5.81537e-07
8.71762e-05
6.11747e-07
8.71872e-05
6.44001e-07
8.72014e-05
6.77936e-07
8.72199e-05
7.12986e-07
8.72433e-05
7.48366e-07
8.72722e-05
7.83075e-07
8.73071e-05
8.15946e-07
8.73479e-05
8.45731e-07
8.71277e-07
8.73941e-05
8.94088e-05
3.23088e-08
8.94179e-05
9.29502e-08
8.94309e-05
1.45111e-07
8.94459e-05
1.87975e-07
8.9462e-05
2.22916e-07
8.94784e-05
2.51573e-07
8.94945e-05
2.75216e-07
8.95101e-05
2.94989e-07
8.9525e-05
3.1195e-07
8.95391e-05
3.26968e-07
8.95522e-05
3.40728e-07
8.95645e-05
3.53785e-07
8.95758e-05
3.66602e-07
8.95863e-05
3.79567e-07
8.95959e-05
3.93005e-07
8.96047e-05
4.072e-07
8.96129e-05
4.224e-07
8.96206e-05
4.38825e-07
8.96279e-05
4.5667e-07
8.9635e-05
4.76103e-07
8.96422e-05
4.97256e-07
8.96499e-05
5.20221e-07
8.96584e-05
5.45034e-07
8.96683e-05
5.71655e-07
8.96801e-05
5.99947e-07
8.96944e-05
6.29655e-07
8.9712e-05
6.60382e-07
8.97334e-05
6.91575e-07
8.97592e-05
7.22528e-07
8.97899e-05
7.52396e-07
8.98256e-05
7.80245e-07
8.98662e-05
8.05127e-07
8.26212e-07
8.99113e-05
9.19628e-05
2.94141e-08
9.19709e-05
8.48458e-08
9.19827e-05
1.3326e-07
9.19968e-05
1.73878e-07
9.20121e-05
2.07603e-07
9.2028e-05
2.35728e-07
9.20438e-05
2.59342e-07
9.20594e-05
2.79434e-07
9.20744e-05
2.96924e-07
9.20888e-05
3.12593e-07
9.21024e-05
3.27074e-07
9.21153e-05
3.40882e-07
9.21275e-05
3.54449e-07
9.21389e-05
3.68136e-07
9.21497e-05
3.82244e-07
9.21599e-05
3.97031e-07
9.21695e-05
4.12716e-07
9.21789e-05
4.29488e-07
9.21881e-05
4.47501e-07
9.21973e-05
4.66878e-07
9.22068e-05
4.87702e-07
9.2217e-05
5.10007e-07
9.22283e-05
5.3377e-07
9.22411e-05
5.58894e-07
9.22558e-05
5.85194e-07
9.22731e-05
6.12384e-07
9.22934e-05
6.40066e-07
9.23173e-05
6.67725e-07
9.2345e-05
6.94744e-07
9.2377e-05
7.20423e-07
9.24132e-05
7.44025e-07
9.24535e-05
7.64831e-07
7.82246e-07
9.24975e-05
9.45898e-05
2.68133e-08
9.45971e-05
7.75035e-08
9.4608e-05
1.22326e-07
9.46213e-05
1.60602e-07
9.4636e-05
1.92928e-07
9.46514e-05
2.20312e-07
9.46671e-05
2.43675e-07
9.46826e-05
2.63867e-07
9.46979e-05
2.81685e-07
9.47126e-05
2.97823e-07
9.47269e-05
3.12853e-07
9.47405e-05
3.27251e-07
9.47535e-05
3.4141e-07
9.4766e-05
3.5566e-07
9.4778e-05
3.70277e-07
9.47895e-05
3.85489e-07
9.48007e-05
4.01486e-07
9.48118e-05
4.18422e-07
9.48229e-05
4.36417e-07
9.48342e-05
4.55551e-07
9.48461e-05
4.75863e-07
9.48587e-05
4.97343e-07
9.48726e-05
5.19924e-07
9.4888e-05
5.4347e-07
9.49054e-05
5.6777e-07
9.49253e-05
5.9253e-07
9.4948e-05
6.1737e-07
9.49739e-05
6.41828e-07
9.50032e-05
6.65376e-07
9.50362e-05
6.87443e-07
9.50728e-05
7.07453e-07
9.51128e-05
7.24864e-07
7.39252e-07
9.51557e-05
9.72919e-05
2.44375e-08
9.72986e-05
7.07535e-08
9.73088e-05
1.12125e-07
9.73214e-05
1.47996e-07
9.73356e-05
1.78769e-07
9.73507e-05
2.05222e-07
9.73662e-05
2.2813e-07
9.73819e-05
2.48216e-07
9.73974e-05
2.66167e-07
9.74126e-05
2.82591e-07
9.74275e-05
2.98002e-07
9.74419e-05
3.12825e-07
9.74559e-05
3.27416e-07
9.74695e-05
3.42074e-07
9.74827e-05
3.57041e-07
9.74957e-05
3.72516e-07
9.75085e-05
3.88661e-07
9.75214e-05
4.05596e-07
9.75344e-05
4.23406e-07
9.75478e-05
4.42137e-07
9.75619e-05
4.61793e-07
9.75769e-05
4.82327e-07
9.75932e-05
5.03643e-07
9.7611e-05
5.25581e-07
9.76309e-05
5.47922e-07
9.7653e-05
5.70378e-07
9.76778e-05
5.926e-07
9.77055e-05
6.14184e-07
9.77361e-05
6.34686e-07
9.77699e-05
6.53648e-07
9.78068e-05
6.70622e-07
9.78464e-05
6.852e-07
6.97084e-07
9.78886e-05
0.000100071
2.22316e-08
0.000100078
6.44558e-08
0.000100087
1.02493e-07
0.000100099
1.35914e-07
0.000100113
1.64998e-07
0.000100128
1.90352e-07
0.000100143
2.12615e-07
0.000100159
2.32402e-07
0.000100175
2.50298e-07
0.000100191
2.66831e-07
0.000100206
2.82452e-07
0.000100222
2.97538e-07
0.000100237
3.12406e-07
0.000100252
3.27315e-07
0.000100266
3.42479e-07
0.000100281
3.58065e-07
0.000100295
3.74205e-07
0.00010031
3.90988e-07
0.000100325
4.08472e-07
0.00010034
4.26669e-07
0.000100356
4.45556e-07
0.000100373
4.65063e-07
0.000100392
4.85071e-07
0.000100412
5.05412e-07
0.000100434
5.25868e-07
0.000100458
5.4617e-07
0.000100485
5.66006e-07
0.000100514
5.85028e-07
0.000100546
6.02872e-07
0.000100581
6.19169e-07
0.000100618
6.33577e-07
0.000100657
6.45791e-07
6.55604e-07
0.000100698
0.00010293
2.01507e-08
0.000102936
5.8492e-08
0.000102945
9.3284e-08
0.000102957
1.24215e-07
0.000102971
1.51492e-07
0.000102985
1.75589e-07
0.000103001
1.97032e-07
0.000103017
2.16338e-07
0.000103033
2.34e-07
0.00010305
2.5047e-07
0.000103066
2.66136e-07
0.000103082
2.81327e-07
0.000103098
2.96317e-07
0.000103114
3.11328e-07
0.00010313
3.26542e-07
0.000103146
3.42097e-07
0.000103162
3.58093e-07
0.000103179
3.74595e-07
0.000103195
3.9163e-07
0.000103213
4.0919e-07
0.000103231
4.27228e-07
0.000103251
4.45657e-07
0.000103271
4.64348e-07
0.000103294
4.83134e-07
0.000103318
5.01804e-07
0.000103344
5.20116e-07
0.000103372
5.37795e-07
0.000103402
5.54549e-07
0.000103435
5.7008e-07
0.00010347
5.84098e-07
0.000103508
5.96339e-07
0.000103547
6.06582e-07
6.14683e-07
0.000103588
0.000105871
1.81568e-08
0.000105876
5.276e-08
0.000105885
8.43641e-08
0.000105897
1.12763e-07
0.00010591
1.38123e-07
0.000105925
1.60819e-07
0.000105941
1.81279e-07
0.000105957
1.99932e-07
0.000105974
2.1719e-07
0.000105991
2.3343e-07
0.000106008
2.48983e-07
0.000106025
2.64126e-07
0.000106043
2.7909e-07
0.00010606
2.94063e-07
0.000106077
3.0919e-07
0.000106095
3.24582e-07
0.000106112
3.40312e-07
0.000106131
3.56419e-07
0.000106149
3.72908e-07
0.000106169
3.89752e-07
0.000106189
4.06886e-07
0.000106211
4.24216e-07
0.000106233
4.41609e-07
0.000106258
4.58902e-07
0.000106283
4.75903e-07
0.000106311
4.92393e-07
0.000106341
5.08139e-07
0.000106372
5.22896e-07
0.000106406
5.36424e-07
0.000106442
5.48496e-07
0.000106479
5.58914e-07
0.000106518
5.67516e-07
5.74207e-07
0.000106559
0.000108895
1.62167e-08
0.000108901
4.7169e-08
0.00010891
7.56096e-08
0.000108921
1.01425e-07
0.000108934
1.24763e-07
0.000108949
1.45921e-07
0.000108965
1.65245e-07
0.000108982
1.83084e-07
0.000109
1.99776e-07
0.000109017
2.15631e-07
0.000109035
2.30919e-07
0.000109054
2.45869e-07
0.000109072
2.60669e-07
0.000109091
2.7547e-07
0.00010911
2.90386e-07
0.000109129
3.05499e-07
0.000109148
3.20855e-07
0.000109168
3.36473e-07
0.000109189
3.52339e-07
0.00010921
3.68409e-07
0.000109232
3.84611e-07
0.000109256
4.00844e-07
0.00010928
4.16977e-07
0.000109306
4.32859e-07
0.000109334
4.48315e-07
0.000109363
4.63154e-07
0.000109394
4.77177e-07
0.000109427
4.90186e-07
0.000109461
5.01987e-07
0.000109497
5.12406e-07
0.000109535
5.21295e-07
0.000109574
5.28535e-07
5.34071e-07
0.000109614
0.000112006
1.43005e-08
0.000112012
4.16356e-08
0.000112021
6.69034e-08
0.000112032
9.00723e-08
0.000112045
1.11281e-07
0.000112061
1.3077e-07
0.000112077
1.48813e-07
0.000112094
1.65689e-07
0.000112113
1.81665e-07
0.000112131
1.96986e-07
0.00011215
2.11868e-07
0.00011217
2.26489e-07
0.000112189
2.40997e-07
0.000112209
2.55506e-07
0.00011223
2.70098e-07
0.00011225
2.84828e-07
0.000112271
2.99721e-07
0.000112293
3.14774e-07
0.000112315
3.29959e-07
0.000112339
3.45222e-07
0.000112363
3.60482e-07
0.000112388
3.75639e-07
0.000112414
3.90568e-07
0.000112442
4.0513e-07
0.000112471
4.1917e-07
0.000112502
4.32523e-07
0.000112534
4.45025e-07
0.000112568
4.56511e-07
0.000112603
4.66832e-07
0.000112639
4.75853e-07
0.000112677
4.83465e-07
0.000112716
4.89585e-07
4.94183e-07
0.000112756
0.000115206
1.23797e-08
0.000115212
3.60807e-08
0.000115221
5.81309e-08
0.000115232
7.85725e-08
0.000115246
9.75431e-08
0.000115261
1.15235e-07
0.000115278
1.3186e-07
0.000115296
1.47631e-07
0.000115315
1.62751e-07
0.000115335
1.77404e-07
0.000115355
1.91749e-07
0.000115376
2.05918e-07
0.000115397
2.20018e-07
0.000115418
2.34126e-07
0.00011544
2.48297e-07
0.000115462
2.62558e-07
0.000115485
2.76913e-07
0.000115508
2.91344e-07
0.000115533
3.05809e-07
0.000115557
3.20246e-07
0.000115583
3.34573e-07
0.00011561
3.48691e-07
0.000115638
3.62484e-07
0.000115668
3.75825e-07
0.000115698
3.88579e-07
0.00011573
4.00607e-07
0.000115763
4.11772e-07
0.000115798
4.21943e-07
0.000115834
4.31002e-07
0.000115871
4.38849e-07
0.000115909
4.45403e-07
0.000115948
4.50609e-07
4.54456e-07
0.000115988
0.000118498
1.04265e-08
0.000118503
3.04253e-08
0.000118512
4.91766e-08
0.000118524
6.67903e-08
0.000118538
8.3406e-08
0.000118554
9.91755e-08
0.000118572
1.14253e-07
0.000118591
1.2879e-07
0.000118611
1.42926e-07
0.000118631
1.56786e-07
0.000118653
1.70477e-07
0.000118674
1.84085e-07
0.000118697
1.97673e-07
0.00011872
2.11289e-07
0.000118743
2.24954e-07
0.000118767
2.38675e-07
0.000118791
2.52436e-07
0.000118816
2.66203e-07
0.000118842
2.79926e-07
0.000118869
2.93538e-07
0.000118897
3.06955e-07
0.000118925
3.20082e-07
0.000118955
3.32814e-07
0.000118986
3.45037e-07
0.000119018
3.56635e-07
0.000119051
3.6749e-07
0.000119085
3.77491e-07
0.00011912
3.86533e-07
0.000119157
3.94526e-07
0.000119194
4.01394e-07
0.000119233
4.07082e-07
0.000119272
4.11554e-07
4.1481e-07
0.000119311
0.000121883
8.41197e-09
0.000121889
2.45875e-08
0.000121898
3.99189e-08
0.000121911
5.45812e-08
0.000121925
6.8717e-08
0.000121942
8.24395e-08
0.00012196
9.58471e-08
0.00012198
1.0903e-07
0.000122001
1.22068e-07
0.000122023
1.35028e-07
0.000122045
1.47963e-07
0.000122069
1.60913e-07
0.000122092
1.73905e-07
0.000122117
1.86949e-07
0.000122142
2.00042e-07
0.000122167
2.13168e-07
0.000122193
2.26293e-07
0.00012222
2.39372e-07
0.000122248
2.52347e-07
0.000122276
2.65146e-07
0.000122305
2.77689e-07
0.000122335
2.89884e-07
0.000122367
3.01636e-07
0.000122399
3.12846e-07
0.000122432
3.23413e-07
0.000122466
3.33239e-07
0.000122502
3.42234e-07
0.000122538
3.50317e-07
0.000122575
3.57418e-07
0.000122613
3.63481e-07
0.000122651
3.68471e-07
0.000122691
3.72364e-07
3.75171e-07
0.00012273
0.000125366
6.30447e-09
0.000125372
1.84773e-08
0.000125381
3.02239e-08
0.000125394
4.17856e-08
0.00012541
5.33068e-08
0.000125427
6.48592e-08
0.000125447
7.64829e-08
0.000125467
8.82062e-08
0.000125489
1.00047e-07
0.000125512
1.12015e-07
0.000125536
1.24109e-07
0.000125561
1.36325e-07
0.000125586
1.48649e-07
0.000125612
1.61061e-07
0.000125638
1.73531e-07
0.000125666
1.86023e-07
0.000125693
1.98488e-07
0.000125722
2.10869e-07
0.000125751
2.23103e-07
0.000125781
2.35116e-07
0.000125812
2.46828e-07
0.000125844
2.58157e-07
0.000125876
2.69014e-07
0.00012591
2.79314e-07
0.000125944
2.88971e-07
0.00012598
2.97904e-07
0.000126016
3.06041e-07
0.000126053
3.13317e-07
0.000126091
3.19682e-07
0.000126129
3.25095e-07
0.000126168
3.29533e-07
0.000126207
3.32985e-07
3.35467e-07
0.000126247
0.000128947
4.06749e-09
0.000128954
1.19907e-08
0.000128964
1.99374e-08
0.000128978
2.82207e-08
0.000128994
3.69829e-08
0.000129013
4.62449e-08
0.000129033
5.59814e-08
0.000129055
6.61546e-08
0.000129078
7.67185e-08
0.000129103
8.76211e-08
0.000129128
9.88092e-08
0.000129154
1.10231e-07
0.000129181
1.21837e-07
0.000129209
1.33574e-07
0.000129237
1.45389e-07
0.000129266
1.57224e-07
0.000129295
1.69019e-07
0.000129325
1.80707e-07
0.000129356
1.92219e-07
0.000129388
2.03482e-07
0.00012942
2.14418e-07
0.000129453
2.2495e-07
0.000129487
2.35e-07
0.000129522
2.44492e-07
0.000129558
2.53355e-07
0.000129594
2.61522e-07
0.000129631
2.68935e-07
0.000129669
2.75544e-07
0.000129707
2.81312e-07
0.000129746
2.86212e-07
0.000129786
2.90229e-07
0.000129825
2.9336e-07
2.95626e-07
0.000129865
0.000132631
1.65644e-09
0.000132638
5.00062e-09
0.00013265
8.87271e-09
0.000132664
1.3669e-08
0.000132682
1.952e-08
0.000132701
2.63778e-08
0.000132723
3.41386e-08
0.000132747
4.2691e-08
0.000132772
5.19196e-08
0.000132797
6.17081e-08
0.000132824
7.19474e-08
0.000132852
8.25394e-08
0.00013288
9.33959e-08
0.00013291
1.04435e-07
0.000132939
1.15579e-07
0.00013297
1.26752e-07
0.000133001
1.37882e-07
0.000133033
1.48894e-07
0.000133065
1.59716e-07
0.000133099
1.70273e-07
0.000133132
1.80492e-07
0.000133167
1.90302e-07
0.000133202
1.99632e-07
0.000133239
2.08416e-07
0.000133275
2.16595e-07
0.000133313
2.24114e-07
0.000133351
2.30927e-07
0.000133389
2.36995e-07
0.000133428
2.42293e-07
0.000133468
2.46801e-07
0.000133507
2.50513e-07
0.000133547
2.53432e-07
2.55578e-07
0.000133587
0.000136421
-9.86392e-10
0.000136429
-2.65722e-09
0.000136441
-3.20723e-09
0.000136456
-2.13857e-09
0.000136475
6.46502e-10
0.000136497
4.99929e-09
0.00013652
1.07168e-08
0.000136545
1.76041e-08
0.000136572
2.54682e-08
0.000136599
3.41217e-08
0.000136628
4.33958e-08
0.000136657
5.31454e-08
0.000136687
6.32446e-08
0.000136718
7.3582e-08
0.00013675
8.40575e-08
0.000136782
9.45798e-08
0.000136815
1.05064e-07
0.000136848
1.15431e-07
0.000136882
1.25603e-07
0.000136917
1.35508e-07
0.000136952
1.45075e-07
0.000136989
1.54238e-07
0.000137025
1.62935e-07
0.000137063
1.71109e-07
0.0001371
1.78708e-07
0.000137139
1.85689e-07
0.000137178
1.92015e-07
0.000137217
1.97658e-07
0.000137257
2.02599e-07
0.000137297
2.06825e-07
0.000137337
2.10337e-07
0.000137377
2.13139e-07
2.15256e-07
0.000137418
0.000140319
-3.93987e-09
0.000140327
-1.12065e-08
0.000140341
-1.66173e-08
0.000140358
-1.95462e-08
0.000140379
-1.99723e-08
0.000140402
-1.82014e-08
0.000140427
-1.45637e-08
0.000140454
-9.35076e-09
0.000140482
-2.84475e-09
0.000140512
4.68647e-09
0.000140542
1.30106e-08
0.000140573
2.1934e-08
0.000140605
3.12935e-08
0.000140638
4.09488e-08
0.000140671
5.07789e-08
0.000140705
6.06777e-08
0.00014074
7.05508e-08
0.000140775
8.03127e-08
0.000140811
8.98854e-08
0.000140847
9.91966e-08
0.000140884
1.0818e-07
0.000140921
1.16774e-07
0.000140959
1.24924e-07
0.000140998
1.32579e-07
0.000141037
1.39698e-07
0.000141076
1.46244e-07
0.000141116
1.52188e-07
0.000141156
1.57509e-07
0.000141197
1.62194e-07
0.000141237
1.66237e-07
0.000141278
1.6964e-07
0.000141319
1.72411e-07
1.74571e-07
0.000141359
0.000144328
-7.3183e-09
0.000144338
-2.09693e-08
0.000144353
-3.17936e-08
0.000144372
-3.90067e-08
0.000144395
-4.27602e-08
0.000144421
-4.36063e-08
0.000144448
-4.20358e-08
0.000144477
-3.84537e-08
0.000144508
-3.32508e-08
0.000144539
-2.6788e-08
0.000144571
-1.93646e-08
0.000144605
-1.12221e-08
0.000144638
-2.56018e-09
0.000144673
6.45379e-09
0.000144708
1.56793e-08
0.000144744
2.49975e-08
0.00014478
3.43061e-08
0.000144817
4.35156e-08
0.000144854
5.2547e-08
0.000144892
6.13296e-08
0.00014493
6.98007e-08
0.000144969
7.79042e-08
0.000145009
8.55907e-08
0.000145048
9.28174e-08
0.000145088
9.95484e-08
0.000145129
1.05754e-07
0.00014517
1.11412e-07
0.000145211
1.16508e-07
0.000145252
1.21031e-07
0.000145293
1.24981e-07
0.000145334
1.28361e-07
0.000145376
1.31182e-07
1.33465e-07
0.000145417
0.000148452
-1.12973e-08
0.000148463
-3.24384e-08
0.000148481
-4.93637e-08
0.000148503
-6.11213e-08
0.000148529
-6.82548e-08
0.000148557
-7.16986e-08
0.000148587
-7.21216e-08
0.000148618
-7.00566e-08
0.000148651
-6.60336e-08
0.000148685
-6.05249e-08
0.000148719
-5.39014e-08
0.000148755
-4.6452e-08
0.000148791
-3.84118e-08
0.000148827
-2.99728e-08
0.000148864
-2.12919e-08
0.000148901
-1.24975e-08
0.000148939
-3.69725e-09
0.000148978
5.01759e-09
0.000149017
1.35685e-08
0.000149056
2.1888e-08
0.000149096
2.99169e-08
0.000149136
3.76047e-08
0.000149177
4.49075e-08
0.000149218
5.17886e-08
0.00014926
5.82177e-08
0.000149301
6.41712e-08
0.000149343
6.96315e-08
0.000149385
7.45874e-08
0.000149427
7.90333e-08
0.000149469
8.29691e-08
0.000149511
8.63997e-08
0.000149553
8.93336e-08
9.17902e-08
0.000149594
0.000152694
-1.61589e-08
0.000152708
-4.64133e-08
0.000152729
-7.02875e-08
0.000152754
-8.67164e-08
0.000152783
-9.71189e-08
0.000152815
-1.0302e-07
0.000152848
-1.05266e-07
0.000152882
-1.04533e-07
0.000152918
-1.0152e-07
0.000152954
-9.68179e-08
0.000152991
-9.08646e-08
0.000153029
-8.39934e-08
0.000153067
-7.6473e-08
0.000153105
-6.85183e-08
0.000153144
-6.02991e-08
0.000153184
-5.19511e-08
0.000153224
-4.35847e-08
0.000153264
-3.52911e-08
0.000153305
-2.71463e-08
0.000153346
-1.92142e-08
0.000153387
-1.15488e-08
0.000153429
-4.19559e-09
0.000153471
2.80757e-09
0.000153513
9.42933e-09
0.000153556
1.56449e-08
0.000153599
2.14351e-08
0.000153642
2.67868e-08
0.000153684
3.16921e-08
0.000153727
3.61482e-08
0.00015377
4.01572e-08
0.000153813
4.37263e-08
0.000153855
4.68664e-08
4.9596e-08
0.000153897
0.000157058
-2.2423e-08
0.000157076
-6.41968e-08
0.000157101
-9.599e-08
0.000157132
-1.17046e-07
0.000157165
-1.30476e-07
0.0001572
-1.38508e-07
0.000157237
-1.42155e-07
0.000157275
-1.42346e-07
0.000157314
-1.40024e-07
0.000157353
-1.35893e-07
0.000157392
-1.30432e-07
0.000157432
-1.24006e-07
0.000157473
-1.16904e-07
0.000157514
-1.09352e-07
0.000157555
-1.01523e-07
0.000157596
-9.35514e-08
0.000157638
-8.55473e-08
0.000157681
-7.75983e-08
0.000157723
-6.97764e-08
0.000157766
-6.21409e-08
0.000157809
-5.47407e-08
0.000157853
-4.76165e-08
0.000157896
-4.08017e-08
0.00015794
-3.43231e-08
0.000157984
-2.82018e-08
0.000158028
-2.24534e-08
0.000158072
-1.70888e-08
0.000158116
-1.21144e-08
0.000158159
-7.53242e-09
0.000158203
-3.34187e-09
0.000158246
4.60933e-10
0.000158289
3.88091e-09
6.93214e-09
0.000158332
0.000161547
-3.1312e-08
0.000161572
-8.84422e-08
0.000161604
-1.28165e-07
0.00016164
-1.53063e-07
0.000161679
-1.69383e-07
0.00016172
-1.79467e-07
0.000161762
-1.84234e-07
0.000161804
-1.85006e-07
0.000161847
-1.83038e-07
0.000161891
-1.79149e-07
0.000161934
-1.73862e-07
0.000161978
-1.67574e-07
0.000162021
-1.606e-07
0.000162065
-1.53171e-07
0.000162109
-1.45461e-07
0.000162153
-1.37602e-07
0.000162197
-1.29698e-07
0.000162242
-1.21833e-07
0.000162286
-1.14073e-07
0.00016233
-1.06475e-07
0.000162374
-9.90816e-08
0.000162419
-9.19302e-08
0.000162463
-8.50503e-08
0.000162507
-7.84659e-08
0.000162551
-7.21954e-08
0.000162595
-6.62522e-08
0.000162639
-6.06456e-08
0.000162682
-5.53804e-08
0.000162725
-5.04576e-08
0.000162767
-4.58742e-08
0.000162809
-4.1623e-08
0.000162851
-3.76922e-08
-3.4071e-08
0.000162892
0.000166166
-4.40767e-08
0.000166205
-1.26708e-07
0.000166249
-1.729e-07
0.000166296
-1.99219e-07
0.000166343
-2.17144e-07
0.000166392
-2.28254e-07
0.000166441
-2.33313e-07
0.00016649
-2.34078e-07
0.000166539
-2.31964e-07
0.000166588
-2.27765e-07
0.000166636
-2.22012e-07
0.000166683
-2.15142e-07
0.00016673
-2.07504e-07
0.000166777
-1.99358e-07
0.000166822
-1.90896e-07
0.000166867
-1.8227e-07
0.000166911
-1.73598e-07
0.000166954
-1.64975e-07
0.000166996
-1.56472e-07
0.000167038
-1.48148e-07
0.000167079
-1.40048e-07
0.000167119
-1.32209e-07
0.000167159
-1.24658e-07
0.000167198
-1.17416e-07
0.000167236
-1.10498e-07
0.000167274
-1.03915e-07
0.000167311
-9.76719e-08
0.000167347
-9.17726e-08
0.000167383
-8.62166e-08