/*--------------------------------*- C++ -*----------------------------------*\
| =========                 |                                                 |
| \\      /  F ield         | OpenFOAM: The Open Source CFD Toolbox           |
|  \\    /   O peration     | Version:  4.1                                   |
|   \\  /    A nd           | Web:      www.OpenFOAM.org                      |
|    \\/     M anipulation  |                                                 |
\*---------------------------------------------------------------------------*/
FoamFile
{
    version     2.0;
    format      ascii;
    class       volVectorField;
    location    "500";
    object      U;
}
// * * * * * * * * * * * * * * * * * * * * * * * * * * * * * * * * * * * * * //

dimensions      [0 1 -1 0 0 0 0];

internalField   nonuniform List<vector> 
6820
(
(7.30076 0.0105785 0)
(7.26065 0.0145405 0)
(7.22718 0.0116125 0)
(7.19816 0.00889297 0)
(7.17424 0.00729827 0)
(7.15365 0.00634469 0)
(7.13493 0.00574079 0)
(7.11764 0.00533985 0)
(7.10158 0.00504904 0)
(7.08653 0.00482 0)
(7.07234 0.00463339 0)
(7.05886 0.00448129 0)
(7.04601 0.00435909 0)
(7.03368 0.00426384 0)
(7.02179 0.00419384 0)
(7.01026 0.00414856 0)
(6.99902 0.00412843 0)
(6.988 0.00413504 0)
(6.97711 0.00417131 0)
(6.96627 0.0042419 0)
(6.9554 0.00435391 0)
(6.94437 0.00451799 0)
(6.93306 0.00475039 0)
(6.92129 0.0050767 0)
(6.9088 0.0055388 0)
(6.89524 0.00621011 0)
(6.88006 0.00722676 0)
(6.86215 0.00886276 0)
(6.84033 0.0117435 0)
(6.80823 0.0172403 0)
(6.76919 0.0287115 0)
(6.65187 0.0703111 0)
(6.63863 -0.029395 0)
(7.3396 0.0129483 0)
(7.34154 0.0168202 0)
(7.32732 0.0138378 0)
(7.30714 0.0119894 0)
(7.28755 0.0109515 0)
(7.26939 0.0100997 0)
(7.25235 0.00942252 0)
(7.23635 0.00890849 0)
(7.22135 0.00850032 0)
(7.2072 0.00816522 0)
(7.19378 0.00789077 0)
(7.18097 0.00766901 0)
(7.16871 0.00749349 0)
(7.15692 0.00736011 0)
(7.14554 0.00726696 0)
(7.13451 0.00721378 0)
(7.12376 0.00720197 0)
(7.11323 0.00723477 0)
(7.10287 0.0073176 0)
(7.0926 0.00745883 0)
(7.08237 0.00767082 0)
(7.07208 0.00797189 0)
(7.06165 0.00838964 0)
(7.05096 0.00896667 0)
(7.03986 0.00977218 0)
(7.02816 0.0109217 0)
(7.01565 0.0126326 0)
(7.00187 0.0152852 0)
(6.98693 0.0198575 0)
(6.96911 0.0276842 0)
(6.95417 0.0455571 0)
(6.93672 0.077015 0)
(6.97822 0.170967 0)
(7.33613 0.0108746 0)
(7.34462 0.0173213 0)
(7.34579 0.017872 0)
(7.34012 0.0178815 0)
(7.33146 0.0174281 0)
(7.32148 0.0166098 0)
(7.31076 0.0157999 0)
(7.29978 0.0151215 0)
(7.28886 0.0145553 0)
(7.27812 0.0140798 0)
(7.26759 0.0136855 0)
(7.25729 0.013364 0)
(7.24721 0.0131085 0)
(7.23735 0.0129154 0)
(7.22768 0.0127836 0)
(7.21816 0.0127142 0)
(7.20878 0.0127105 0)
(7.19948 0.0127784 0)
(7.19024 0.0129271 0)
(7.18099 0.0131702 0)
(7.17167 0.0135272 0)
(7.16223 0.0140261 0)
(7.15256 0.0147084 0)
(7.14258 0.0156358 0)
(7.13214 0.0169044 0)
(7.12106 0.0186654 0)
(7.10916 0.0211839 0)
(7.09611 0.0248735 0)
(7.08192 0.0306652 0)
(7.06596 0.0396254 0)
(7.05126 0.0558206 0)
(7.03765 0.0801713 0)
(7.04989 0.126848 0)
(7.33465 0.00788293 0)
(7.34191 0.0151093 0)
(7.34712 0.0174439 0)
(7.34827 0.0186891 0)
(7.34685 0.0192215 0)
(7.34369 0.0191567 0)
(7.33908 0.0188526 0)
(7.33345 0.0184964 0)
(7.32718 0.0181362 0)
(7.3205 0.0177959 0)
(7.31356 0.0174951 0)
(7.30644 0.0172439 0)
(7.29921 0.0170472 0)
(7.2919 0.016909 0)
(7.28454 0.0168342 0)
(7.27714 0.0168288 0)
(7.26968 0.0169004 0)
(7.26215 0.0170596 0)
(7.25454 0.0173205 0)
(7.24681 0.0177027 0)
(7.23891 0.0182328 0)
(7.23081 0.0189485 0)
(7.22242 0.019903 0)
(7.21368 0.0211739 0)
(7.20448 0.0228775 0)
(7.19471 0.0251884 0)
(7.18423 0.0283905 0)
(7.17292 0.0328993 0)
(7.16088 0.0394964 0)
(7.14815 0.0490023 0)
(7.13666 0.0636492 0)
(7.12737 0.0827932 0)
(7.13019 0.111392 0)
(7.334 0.00602438 0)
(7.33938 0.0130452 0)
(7.34469 0.0160276 0)
(7.34792 0.0178515 0)
(7.34962 0.0190562 0)
(7.35017 0.0196561 0)
(7.34951 0.0199031 0)
(7.34781 0.0199855 0)
(7.34529 0.0199758 0)
(7.34213 0.0199172 0)
(7.33846 0.0198461 0)
(7.33437 0.0197876 0)
(7.32995 0.0197582 0)
(7.32525 0.0197712 0)
(7.32031 0.0198387 0)
(7.31515 0.0199728 0)
(7.30979 0.020187 0)
(7.30423 0.0204971 0)
(7.29846 0.0209229 0)
(7.29248 0.0214897 0)
(7.28625 0.0222311 0)
(7.27975 0.0231928 0)
(7.27292 0.0244371 0)
(7.26573 0.0260522 0)
(7.2581 0.0281641 0)
(7.24998 0.0309541 0)
(7.24133 0.0346935 0)
(7.23217 0.0397551 0)
(7.2227 0.0467309 0)
(7.21327 0.0561934 0)
(7.20527 0.0692604 0)
(7.19998 0.0852797 0)
(7.20154 0.105681 0)
(7.33365 0.00478099 0)
(7.33758 0.0112573 0)
(7.34215 0.0145273 0)
(7.34564 0.0166353 0)
(7.34825 0.0181829 0)
(7.35023 0.0191814 0)
(7.35146 0.0198138 0)
(7.35192 0.0202502 0)
(7.35172 0.020563 0)
(7.35093 0.0207941 0)
(7.34963 0.0209817 0)
(7.34787 0.0211559 0)
(7.3457 0.0213389 0)
(7.34317 0.0215494 0)
(7.34031 0.0218045 0)
(7.33715 0.0221215 0)
(7.3337 0.0225184 0)
(7.32998 0.0230157 0)
(7.32598 0.023638 0)
(7.32169 0.0244156 0)
(7.31712 0.0253876 0)
(7.31223 0.026605 0)
(7.30701 0.0281357 0)
(7.30143 0.0300719 0)
(7.29547 0.0325397 0)
(7.28912 0.0357113 0)
(7.28241 0.0398249 0)
(7.27545 0.0451839 0)
(7.26851 0.0522005 0)
(7.26204 0.0612273 0)
(7.25706 0.0727384 0)
(7.25466 0.0861686 0)
(7.2567 0.101389 0)
(7.33343 0.00388792 0)
(7.33634 0.00975281 0)
(7.34012 0.0131439 0)
(7.34337 0.0153971 0)
(7.34605 0.0171055 0)
(7.34838 0.0183234 0)
(7.35027 0.0191922 0)
(7.35166 0.0198629 0)
(7.35259 0.0204076 0)
(7.35309 0.0208651 0)
(7.35318 0.0212708 0)
(7.35288 0.0216544 0)
(7.35222 0.0220392 0)
(7.35121 0.0224454 0)
(7.34988 0.0228925 0)
(7.34823 0.0234002 0)
(7.34628 0.0239895 0)
(7.34404 0.0246837 0)
(7.3415 0.0255108 0)
(7.33867 0.0265043 0)
(7.33554 0.0277065 0)
(7.33209 0.0291709 0)
(7.32833 0.0309669 0)
(7.32425 0.0331848 0)
(7.31986 0.0359428 0)
(7.31519 0.0393931 0)
(7.31032 0.0437302 0)
(7.3054 0.0491818 0)
(7.30072 0.0560105 0)
(7.29673 0.0643978 0)
(7.29415 0.0744658 0)
(7.29379 0.0857209 0)
(7.29651 0.0975953 0)
(7.3333 0.00323297 0)
(7.33547 0.00850713 0)
(7.33859 0.0119022 0)
(7.34149 0.0142296 0)
(7.34401 0.01602 0)
(7.34629 0.0173667 0)
(7.3483 0.0183829 0)
(7.34998 0.0192024 0)
(7.35135 0.0198993 0)
(7.35241 0.0205134 0)
(7.35318 0.0210784 0)
(7.35366 0.0216231 0)
(7.35384 0.0221708 0)
(7.35375 0.0227421 0)
(7.35338 0.0233569 0)
(7.35273 0.024036 0)
(7.35182 0.0248014 0)
(7.35063 0.0256784 0)
(7.34917 0.026696 0)
(7.34744 0.0278893 0)
(7.34543 0.0293015 0)
(7.34315 0.0309859 0)
(7.3406 0.0330093 0)
(7.33779 0.0354556 0)
(7.33475 0.038429 0)
(7.33154 0.0420561 0)
(7.32826 0.0464857 0)
(7.32509 0.0518749 0)
(7.32229 0.0583727 0)
(7.32026 0.0660417 0)
(7.3195 0.0748298 0)
(7.32057 0.0843178 0)
(7.32388 0.0939194 0)
(7.33321 0.00274424 0)
(7.33487 0.00747684 0)
(7.33744 0.0107948 0)
(7.34 0.0131522 0)
(7.3423 0.0149874 0)
(7.34444 0.0164163 0)
(7.34638 0.0175329 0)
(7.34809 0.0184539 0)
(7.34957 0.0192544 0)
(7.35082 0.0199767 0)
(7.35187 0.0206545 0)
(7.35269 0.0213167 0)
(7.35329 0.021987 0)
(7.35367 0.0226865 0)
(7.35384 0.0234354 0)
(7.35378 0.024255 0)
(7.35349 0.0251679 0)
(7.35298 0.0261996 0)
(7.35224 0.0273795 0)
(7.35127 0.0287427 0)
(7.35007 0.0303311 0)
(7.34866 0.0321953 0)
(7.34703 0.034397 0)
(7.34521 0.0370099 0)
(7.34326 0.0401214 0)
(7.34124 0.0438306 0)
(7.33925 0.0482436 0)
(7.33749 0.0534583 0)
(7.33617 0.0595434 0)
(7.33561 0.0664863 0)
(7.33617 0.0741604 0)
(7.33821 0.0822168 0)
(7.34191 0.0901656 0)
(7.33315 0.00237084 0)
(7.33444 0.00662061 0)
(7.33656 0.00980961 0)
(7.33882 0.0121623 0)
(7.34091 0.0140183 0)
(7.34288 0.0155009 0)
(7.34472 0.0166912 0)
(7.34637 0.017689 0)
(7.34784 0.0185672 0)
(7.34913 0.0193704 0)
(7.35026 0.0201325 0)
(7.35121 0.0208829 0)
(7.35199 0.0216462 0)
(7.3526 0.0224442 0)
(7.35303 0.0232979 0)
(7.35328 0.0242285 0)
(7.35336 0.0252591 0)
(7.35325 0.0264149 0)
(7.35297 0.0277251 0)
(7.3525 0.0292231 0)
(7.35185 0.0309484 0)
(7.35104 0.0329474 0)
(7.35009 0.0352742 0)
(7.34903 0.0379911 0)
(7.3479 0.0411673 0)
(7.34679 0.0448758 0)
(7.34581 0.049186 0)
(7.34511 0.05415 0)
(7.34489 0.0597826 0)
(7.34539 0.066029 0)
(7.34685 0.0727397 0)
(7.34951 0.0796294 0)
(7.35342 0.0863183 0)
(7.33312 0.00207821 0)
(7.33413 0.00590411 0)
(7.3359 0.00893383 0)
(7.33787 0.0112526 0)
(7.33978 0.0131103 0)
(7.3416 0.0146257 0)
(7.34331 0.0158709 0)
(7.34489 0.0169299 0)
(7.34632 0.0178712 0)
(7.3476 0.0187398 0)
(7.34873 0.01957 0)
(7.34973 0.0203914 0)
(7.35058 0.0212291 0)
(7.35129 0.0221057 0)
(7.35186 0.0230426 0)
(7.35228 0.0240614 0)
(7.35257 0.0251848 0)
(7.3527 0.0264379 0)
(7.3527 0.0278484 0)
(7.35256 0.0294478 0)
(7.35229 0.0312722 0)
(7.35191 0.0333623 0)
(7.35145 0.0357641 0)
(7.35094 0.0385274 0)
(7.35043 0.0417045 0)
(7.35001 0.045345 0)
(7.34978 0.0494889 0)
(7.34986 0.0541546 0)
(7.35043 0.059324 0)
(7.35165 0.0649216 0)
(7.35369 0.0708009 0)
(7.3567 0.0767317 0)
(7.36068 0.0824286 0)
(7.33309 0.0018431 0)
(7.33391 0.00529915 0)
(7.33539 0.00815447 0)
(7.33712 0.0104158 0)
(7.33885 0.0122586 0)
(7.34053 0.0137897 0)
(7.34214 0.0150738 0)
(7.34364 0.0161815 0)
(7.34502 0.0171751 0)
(7.34627 0.018099 0)
(7.3474 0.0189871 0)
(7.34841 0.0198685 0)
(7.3493 0.0207688 0)
(7.35006 0.0217107 0)
(7.35071 0.0227159 0)
(7.35124 0.0238059 0)
(7.35165 0.0250031 0)
(7.35195 0.0263315 0)
(7.35214 0.0278173 0)
(7.35223 0.0294892 0)
(7.35223 0.0313791 0)
(7.35217 0.0335219 0)
(7.35208 0.0359548 0)
(7.35198 0.0387161 0)
(7.35195 0.0418424 0)
(7.35204 0.0453641 0)
(7.35236 0.0492988 0)
(7.35302 0.0536421 0)
(7.35413 0.0583567 0)
(7.35582 0.0633613 0)
(7.35822 0.0685231 0)
(7.36139 0.0736587 0)
(7.36532 0.0785557 0)
(7.33307 0.00164967 0)
(7.33374 0.00478284 0)
(7.33499 0.00745891 0)
(7.33652 0.00964472 0)
(7.33809 0.0114581 0)
(7.33965 0.0129901 0)
(7.34115 0.0142986 0)
(7.34258 0.0154433 0)
(7.34392 0.0164797 0)
(7.34514 0.0174501 0)
(7.34627 0.0183877 0)
(7.34728 0.0193208 0)
(7.3482 0.0202747 0)
(7.349 0.0212721 0)
(7.34971 0.0223343 0)
(7.35032 0.0234824 0)
(7.35083 0.0247381 0)
(7.35126 0.0261239 0)
(7.3516 0.0276639 0)
(7.35188 0.0293838 0)
(7.3521 0.0313109 0)
(7.35229 0.033474 0)
(7.35248 0.035902 0)
(7.35272 0.0386226 0)
(7.35305 0.0416591 0)
(7.35354 0.0450267 0)
(7.35428 0.0487269 0)
(7.35534 0.0527408 0)
(7.35683 0.057022 0)
(7.35883 0.0614912 0)
(7.36141 0.0660337 0)
(7.36463 0.0705042 0)
(7.36844 0.0747448 0)
(7.33306 0.00148697 0)
(7.33362 0.0043368 0)
(7.33469 0.00683522 0)
(7.33603 0.00893225 0)
(7.33747 0.0107036 0)
(7.33891 0.0122236 0)
(7.34033 0.0135434 0)
(7.34169 0.0147136 0)
(7.34298 0.0157832 0)
(7.34419 0.0167917 0)
(7.34531 0.0177707 0)
(7.34634 0.0187476 0)
(7.34727 0.019747 0)
(7.34812 0.020791 0)
(7.34889 0.0219003 0)
(7.34957 0.0230952 0)
(7.35018 0.0243961 0)
(7.35072 0.0258239 0)
(7.35119 0.0274 0)
(7.35163 0.0291468 0)
(7.35204 0.0310872 0)
(7.35245 0.0332438 0)
(7.35289 0.035638 0)
(7.3534 0.0382882 0)
(7.35403 0.041207 0)
(7.35483 0.0443982 0)
(7.35588 0.0478523 0)
(7.35724 0.0515421 0)
(7.35899 0.0554187 0)
(7.36118 0.0594089 0)
(7.36386 0.0634163 0)
(7.36705 0.0673263 0)
(7.37072 0.0710213 0)
(7.33305 0.00134729 0)
(7.33353 0.00394643 0)
(7.33445 0.00627237 0)
(7.33565 0.00827143 0)
(7.33695 0.00998993 0)
(7.33829 0.0114865 0)
(7.33963 0.0128055 0)
(7.34094 0.0139903 0)
(7.3422 0.0150834 0)
(7.34339 0.0161211 0)
(7.3445 0.0171334 0)
(7.34554 0.0181462 0)
(7.34651 0.0191829 0)
(7.34741 0.0202647 0)
(7.34823 0.0214114 0)
(7.34899 0.0226422 0)
(7.34968 0.023976 0)
(7.35033 0.0254314 0)
(7.35094 0.0270274 0)
(7.35153 0.0287829 0)
(7.35211 0.030716 0)
(7.35271 0.032844 0)
(7.35337 0.0351816 0)
(7.35411 0.0377394 0)
(7.35499 0.0405218 0)
(7.35605 0.0435242 0)
(7.35734 0.0467304 0)
(7.35893 0.0501094 0)
(7.36085 0.0536133 0)
(7.36316 0.0571775 0)
(7.36587 0.060722 0)
(7.369 0.0641567 0)
(7.37252 0.0673935 0)
(7.33304 0.00122507 0)
(7.33345 0.00360005 0)
(7.33426 0.00576035 0)
(7.33533 0.00765538 0)
(7.33653 0.00931183 0)
(7.33778 0.0107747 0)
(7.33906 0.0120821 0)
(7.34032 0.0132708 0)
(7.34154 0.0143778 0)
(7.34271 0.0154359 0)
(7.34383 0.0164728 0)
(7.34489 0.017513 0)
(7.34589 0.0185785 0)
(7.34683 0.0196891 0)
(7.34772 0.0208636 0)
(7.34855 0.0221196 0)
(7.34934 0.0234741 0)
(7.3501 0.0249439 0)
(7.35083 0.0265448 0)
(7.35156 0.0282925 0)
(7.3523 0.0302008 0)
(7.35308 0.0322821 0)
(7.35393 0.0345452 0)
(7.35488 0.0369948 0)
(7.35597 0.039629 0)
(7.35723 0.0424377 0)
(7.35872 0.045401 0)
(7.36047 0.0484868 0)
(7.36252 0.0516509 0)
(7.36489 0.0548373 0)
(7.36761 0.0579803 0)
(7.37066 0.0610094 0)
(7.37402 0.0638581 0)
(7.33304 0.0011162 0)
(7.3334 0.00328834 0)
(7.33411 0.00529018 0)
(7.33508 0.00707732 0)
(7.33619 0.00866401 0)
(7.33736 0.0100842 0)
(7.33858 0.0113698 0)
(7.33979 0.0125524 0)
(7.34099 0.0136637 0)
(7.34216 0.014733 0)
(7.34328 0.0157859 0)
(7.34436 0.0168448 0)
(7.3454 0.0179301 0)
(7.34639 0.0190604 0)
(7.34733 0.0202528 0)
(7.34824 0.0215232 0)
(7.34912 0.022887 0)
(7.34999 0.0243583 0)
(7.35084 0.0259505 0)
(7.35171 0.0276757 0)
(7.3526 0.0295442 0)
(7.35354 0.0315638 0)
(7.35456 0.033739 0)
(7.35569 0.0360694 0)
(7.35695 0.038549 0)
(7.35839 0.0411644 0)
(7.36003 0.0438938 0)
(7.3619 0.0467063 0)
(7.36404 0.0495623 0)
(7.36645 0.0524138 0)
(7.36915 0.0552077 0)
(7.37212 0.0578884 0)
(7.37533 0.0604057 0)
(7.33304 0.00101756 0)
(7.33335 0.00300375 0)
(7.33399 0.00485386 0)
(7.33488 0.00653072 0)
(7.33591 0.00804111 0)
(7.33702 0.00941033 0)
(7.33818 0.0106649 0)
(7.33936 0.0118317 0)
(7.34054 0.012938 0)
(7.34171 0.0140096 0)
(7.34284 0.0150695 0)
(7.34395 0.0161382 0)
(7.34502 0.0172344 0)
(7.34606 0.0183749 0)
(7.34707 0.0195752 0)
(7.34805 0.0208497 0)
(7.34902 0.0222114 0)
(7.34999 0.0236723 0)
(7.35096 0.0252432 0)
(7.35195 0.0269331 0)
(7.35298 0.028749 0)
(7.35407 0.0306952 0)
(7.35524 0.0327723 0)
(7.35652 0.0349767 0)
(7.35794 0.0372994 0)
(7.35951 0.0397252 0)
(7.36127 0.0422323 0)
(7.36324 0.044792 0)
(7.36544 0.0473694 0)
(7.36787 0.0499241 0)
(7.37053 0.0524132 0)
(7.37341 0.0547929 0)
(7.3765 0.0570251 0)
(7.33303 0.000926712 0)
(7.33332 0.00274009 0)
(7.3339 0.00444426 0)
(7.33472 0.00600924 0)
(7.33569 0.00743775 0)
(7.33674 0.00874859 0)
(7.33786 0.00996358 0)
(7.33902 0.0111054 0)
(7.34018 0.0121975 0)
(7.34134 0.0132622 0)
(7.34249 0.0143202 0)
(7.34362 0.0153898 0)
(7.34474 0.0164878 0)
(7.34583 0.0176292 0)
(7.3469 0.0188278 0)
(7.34796 0.020096 0)
(7.34902 0.021445 0)
(7.35008 0.0228845 0)
(7.35116 0.0244227 0)
(7.35227 0.0260662 0)
(7.35343 0.027819 0)
(7.35465 0.0296824 0)
(7.35596 0.0316545 0)
(7.35737 0.033729 0)
(7.35891 0.0358955 0)
(7.3606 0.038138 0)
(7.36246 0.0404357 0)
(7.36449 0.0427627 0)
(7.36673 0.0450885 0)
(7.36915 0.0473797 0)
(7.37177 0.0496015 0)
(7.37458 0.0517194 0)
(7.37754 0.0537045 0)
(7.33303 0.000841685 0)
(7.33329 0.00249219 0)
(7.33383 0.004055 0)
(7.3346 0.00550684 0)
(7.33551 0.00684849 0)
(7.33652 0.00809407 0)
(7.33761 0.00926141 0)
(7.33874 0.0103696 0)
(7.3399 0.0114386 0)
(7.34107 0.0124877 0)
(7.34223 0.0135349 0)
(7.34339 0.0145965 0)
(7.34454 0.0156872 0)
(7.34569 0.0168202 0)
(7.34682 0.0180076 0)
(7.34796 0.0192599 0)
(7.3491 0.0205861 0)
(7.35025 0.0219941 0)
(7.35143 0.0234898 0)
(7.35265 0.0250773 0)
(7.35393 0.0267584 0)
(7.35527 0.0285322 0)
(7.35669 0.0303947 0)
(7.35822 0.0323381 0)
(7.35986 0.0343511 0)
(7.36164 0.0364182 0)
(7.36357 0.0385199 0)
(7.36566 0.040633 0)
(7.36791 0.0427318 0)
(7.37033 0.0447884 0)
(7.37291 0.0467748 0)
(7.37563 0.0486638 0)
(7.37849 0.0504333 0)
(7.33303 0.000760842 0)
(7.33327 0.00225561 0)
(7.33378 0.00368031 0)
(7.3345 0.00501765 0)
(7.33537 0.00626787 0)
(7.33636 0.00744177 0)
(7.33742 0.00855388 0)
(7.33854 0.00962019 0)
(7.33969 0.0106575 0)
(7.34087 0.0116823 0)
(7.34205 0.01271 0)
(7.34324 0.0137548 0)
(7.34444 0.0148294 0)
(7.34563 0.0159453 0)
(7.34683 0.0171123 0)
(7.34804 0.0183394 0)
(7.34926 0.0196338 0)
(7.3505 0.0210012 0)
(7.35177 0.0224456 0)
(7.35309 0.0239693 0)
(7.35447 0.0255721 0)
(7.35591 0.0272513 0)
(7.35744 0.0290017 0)
(7.35906 0.0308146 0)
(7.36079 0.0326787 0)
(7.36265 0.0345789 0)
(7.36463 0.0364978 0)
(7.36675 0.0384151 0)
(7.36901 0.0403087 0)
(7.37141 0.0421559 0)
(7.37394 0.0439341 0)
(7.37659 0.0456217 0)
(7.37935 0.0472018 0)
(7.33303 0.000682775 0)
(7.33326 0.00202649 0)
(7.33374 0.00331491 0)
(7.33443 0.00453603 0)
(7.33527 0.00569038 0)
(7.33623 0.00678647 0)
(7.33728 0.00783615 0)
(7.33839 0.00885269 0)
(7.33955 0.00985009 0)
(7.34074 0.0108422 0)
(7.34195 0.011842 0)
(7.34317 0.0128616 0)
(7.34441 0.0139116 0)
(7.34565 0.0150016 0)
(7.34691 0.0161398 0)
(7.34818 0.0173332 0)
(7.34948 0.0185873 0)
(7.3508 0.0199061 0)
(7.35217 0.021292 0)
(7.35358 0.0227454 0)
(7.35504 0.0242648 0)
(7.35657 0.0258464 0)
(7.35819 0.0274838 0)
(7.35989 0.0291684 0)
(7.36169 0.0308888 0)
(7.3636 0.0326314 0)
(7.36563 0.0343803 0)
(7.36777 0.0361181 0)
(7.37003 0.0378262 0)
(7.37241 0.039486 0)
(7.37489 0.041079 0)
(7.37747 0.0425884 0)
(7.38014 0.0440012 0)
(7.33303 0.000606234 0)
(7.33325 0.00180133 0)
(7.33371 0.00295384 0)
(7.33438 0.00405645 0)
(7.3352 0.00511042 0)
(7.33615 0.00612277 0)
(7.33719 0.00710312 0)
(7.3383 0.00806238 0)
(7.33947 0.00901201 0)
(7.34067 0.0099634 0)
(7.34191 0.0109273 0)
(7.34317 0.0119135 0)
(7.34445 0.0129308 0)
(7.34574 0.0139869 0)
(7.34706 0.0150883 0)
(7.3484 0.0162403 0)
(7.34977 0.0174467 0)
(7.35117 0.01871 0)
(7.35261 0.0200311 0)
(7.3541 0.0214092 0)
(7.35564 0.0228416 0)
(7.35726 0.0243237 0)
(7.35894 0.0258487 0)
(7.36071 0.0274081 0)
(7.36257 0.028991 0)
(7.36453 0.030585 0)
(7.36658 0.0321762 0)
(7.36874 0.0337496 0)
(7.37099 0.0352896 0)
(7.37334 0.0367809 0)
(7.37577 0.0382088 0)
(7.37829 0.0395598 0)
(7.38087 0.0408239 0)
(7.33302 0.000530062 0)
(7.33324 0.00157685 0)
(7.3337 0.00259234 0)
(7.33435 0.00357339 0)
(7.33516 0.00452228 0)
(7.3361 0.005445 0)
(7.33714 0.00634936 0)
(7.33826 0.00724415 0)
(7.33944 0.00813855 0)
(7.34067 0.00904161 0)
(7.34193 0.00996186 0)
(7.34323 0.0109071 0)
(7.34455 0.0118841 0)
(7.3459 0.0128988 0)
(7.34727 0.0139561 0)
(7.34868 0.0150596 0)
(7.35011 0.0162118 0)
(7.35158 0.0174137 0)
(7.35309 0.0186651 0)
(7.35465 0.0199641 0)
(7.35627 0.0213071 0)
(7.35795 0.0226892 0)
(7.3597 0.0241034 0)
(7.36153 0.0255414 0)
(7.36343 0.0269932 0)
(7.36542 0.0284477 0)
(7.36749 0.0298926 0)
(7.36965 0.0313152 0)
(7.37189 0.0327026 0)
(7.37421 0.0340421 0)
(7.3766 0.0353219 0)
(7.37905 0.0365313 0)
(7.38156 0.0376626 0)
(7.33302 0.000453144 0)
(7.33324 0.00134988 0)
(7.33369 0.00222568 0)
(7.33434 0.00308124 0)
(7.33515 0.00391998 0)
(7.33609 0.00474717 0)
(7.33714 0.00556908 0)
(7.33827 0.00639258 0)
(7.33947 0.00722469 0)
(7.34072 0.00807227 0)
(7.34202 0.00894172 0)
(7.34336 0.00983881 0)
(7.34472 0.0107685 0)
(7.34612 0.0117351 0)
(7.34755 0.0127417 0)
(7.34901 0.0137907 0)
(7.35051 0.014883 0)
(7.35204 0.0160187 0)
(7.35362 0.0171964 0)
(7.35524 0.0184135 0)
(7.35692 0.0196659 0)
(7.35866 0.0209483 0)
(7.36046 0.022254 0)
(7.36233 0.023575 0)
(7.36427 0.0249023 0)
(7.36629 0.0262258 0)
(7.36837 0.0275351 0)
(7.37053 0.0288193 0)
(7.37275 0.0300677 0)
(7.37504 0.0312699 0)
(7.37739 0.0324164 0)
(7.37978 0.0334987 0)
(7.38222 0.0345109 0)
(7.33302 0.000374353 0)
(7.33324 0.00111717 0)
(7.33369 0.00184899 0)
(7.33435 0.00257411 0)
(7.33517 0.00329717 0)
(7.33612 0.00402286 0)
(7.33718 0.00475604 0)
(7.33833 0.00550175 0)
(7.33956 0.00626499 0)
(7.34084 0.00705048 0)
(7.34217 0.00786256 0)
(7.34355 0.00870505 0)
(7.34496 0.00958118 0)
(7.34641 0.0104935 0)
(7.34789 0.0114437 0)
(7.34941 0.0124327 0)
(7.35096 0.0134606 0)
(7.35255 0.0145261 0)
(7.35419 0.0156271 0)
(7.35587 0.0167605 0)
(7.3576 0.0179219 0)
(7.35939 0.0191059 0)
(7.36124 0.0203059 0)
(7.36314 0.0215145 0)
(7.36511 0.0227237 0)
(7.36714 0.0239245 0)
(7.36923 0.025108 0)
(7.37138 0.026265 0)
(7.37359 0.0273865 0)
(7.37585 0.0284641 0)
(7.37815 0.0294902 0)
(7.38049 0.0304578 0)
(7.38286 0.0313626 0)
(7.33302 0.000292485 0)
(7.33325 0.000875277 0)
(7.3337 0.00145704 0)
(7.33437 0.00204565 0)
(7.33521 0.00264693 0)
(7.33618 0.00326504 0)
(7.33726 0.0039034 0)
(7.33844 0.00456525 0)
(7.3397 0.00525355 0)
(7.34102 0.00597096 0)
(7.34239 0.00671977 0)
(7.34381 0.00750189 0)
(7.34527 0.00831884 0)
(7.34676 0.00917157 0)
(7.34829 0.0100605 0)
(7.34986 0.0109852 0)
(7.35147 0.0119446 0)
(7.35312 0.0129369 0)
(7.3548 0.0139593 0)
(7.35654 0.0150081 0)
(7.35832 0.0160788 0)
(7.36015 0.0171659 0)
(7.36203 0.0182635 0)
(7.36396 0.0193646 0)
(7.36595 0.0204619 0)
(7.36799 0.0215478 0)
(7.37008 0.0226145 0)
(7.37222 0.0236543 0)
(7.37441 0.0246597 0)
(7.37664 0.0256239 0)
(7.3789 0.0265406 0)
(7.38119 0.0274045 0)
(7.38351 0.0282121 0)
(7.33303 0.000206189 0)
(7.33325 0.000620314 0)
(7.33373 0.00104394 0)
(7.33441 0.00148868 0)
(7.33527 0.00196153 0)
(7.33627 0.00246588 0)
(7.33739 0.00300357 0)
(7.3386 0.00357594 0)
(7.3399 0.00418389 0)
(7.34126 0.00482794 0)
(7.34267 0.00550834 0)
(7.34414 0.00622515 0)
(7.34564 0.00697817 0)
(7.34718 0.00776689 0)
(7.34877 0.00859039 0)
(7.35039 0.00944723 0)
(7.35204 0.0103354 0)
(7.35374 0.0112523 0)
(7.35547 0.0121947 0)
(7.35725 0.0131587 0)
(7.35907 0.0141395 0)
(7.36093 0.0151321 0)
(7.36285 0.0161306 0)
(7.3648 0.0171289 0)
(7.36681 0.0181204 0)
(7.36885 0.0190986 0)
(7.37094 0.0200566 0)
(7.37307 0.0209881 0)
(7.37524 0.0218869 0)
(7.37744 0.0227473 0)
(7.37966 0.0235644 0)
(7.38191 0.0243338 0)
(7.38417 0.0250529 0)
(7.33303 0.000113852 0)
(7.33327 0.000347659 0)
(7.33376 0.000602734 0)
(7.33448 0.000894864 0)
(7.33538 0.00123203 0)
(7.33641 0.00161642 0)
(7.33757 0.00204796 0)
(7.33883 0.00252585 0)
(7.34017 0.00304881 0)
(7.34157 0.0036151 0)
(7.34303 0.00422285 0)
(7.34454 0.00487025 0)
(7.34609 0.00555548 0)
(7.34769 0.00627659 0)
(7.34932 0.00703145 0)
(7.35098 0.00781766 0)
(7.35268 0.00863242 0)
(7.35442 0.00947256 0)
(7.3562 0.0103344 0)
(7.35802 0.0112139 0)
(7.35987 0.0121064 0)
(7.36177 0.0130069 0)
(7.3637 0.0139101 0)
(7.36568 0.0148104 0)
(7.36769 0.015702 0)
(7.36974 0.0165792 0)
(7.37183 0.0174362 0)
(7.37395 0.0182676 0)
(7.37609 0.0190683 0)
(7.37826 0.0198338 0)
(7.38045 0.0205599 0)
(7.38265 0.0212431 0)
(7.38486 0.0218816 0)
(7.33303 1.34415e-05 0)
(7.33328 5.15205e-05 0)
(7.33381 0.000124846 0)
(7.33457 0.000254099 0)
(7.33552 0.00044786 0)
(7.3366 0.00070626 0)
(7.33781 0.00102667 0)
(7.33912 0.0014059 0)
(7.34051 0.00184017 0)
(7.34196 0.00232535 0)
(7.34348 0.00285735 0)
(7.34503 0.00343245 0)
(7.34664 0.00404718 0)
(7.34828 0.00469823 0)
(7.34995 0.00538231 0)
(7.35166 0.00609611 0)
(7.35341 0.00683615 0)
(7.35519 0.00759878 0)
(7.35701 0.00838005 0)
(7.35886 0.00917577 0)
(7.36075 0.00998145 0)
(7.36267 0.0107924 0)
(7.36462 0.0116036 0)
(7.36661 0.0124101 0)
(7.36863 0.0132069 0)
(7.37068 0.0139888 0)
(7.37276 0.0147512 0)
(7.37487 0.0154894 0)
(7.37699 0.0161992 0)
(7.37913 0.0168768 0)
(7.38129 0.017519 0)
(7.38345 0.018123 0)
(7.38562 0.0186874 0)
(7.33303 -9.77596e-05 0)
(7.33331 -0.000275772 0)
(7.33388 -0.000400844 0)
(7.3347 -0.000446314 0)
(7.3357 -0.000403925 0)
(7.33686 -0.000277045 0)
(7.33813 -7.17506e-05 0)
(7.3395 0.00020578 0)
(7.34095 0.000548851 0)
(7.34246 0.000950534 0)
(7.34402 0.00140443 0)
(7.34563 0.00190493 0)
(7.34729 0.00244704 0)
(7.34897 0.00302616 0)
(7.3507 0.00363799 0)
(7.35245 0.00427842 0)
(7.35424 0.00494339 0)
(7.35606 0.00562886 0)
(7.35791 0.00633067 0)
(7.35979 0.00704458 0)
(7.3617 0.00776622 0)
(7.36365 0.00849115 0)
(7.36562 0.00921484 0)
(7.36762 0.00993279 0)
(7.36965 0.0106405 0)
(7.3717 0.0113338 0)
(7.37377 0.0120084 0)
(7.37586 0.0126605 0)
(7.37797 0.0132867 0)
(7.38008 0.0138838 0)
(7.38221 0.0144492 0)
(7.38434 0.0149807 0)
(7.38647 0.0154772 0)
(7.33303 -0.000223593 0)
(7.33334 -0.00064495 0)
(7.33397 -0.000989327 0)
(7.33487 -0.00122269 0)
(7.33596 -0.00133944 0)
(7.33719 -0.00134893 0)
(7.33854 -0.0012615 0)
(7.33998 -0.00108662 0)
(7.3415 -0.000834508 0)
(7.34307 -0.000515577 0)
(7.3447 -0.000139043 0)
(7.34636 0.000287332 0)
(7.34807 0.000756873 0)
(7.3498 0.00126369 0)
(7.35157 0.00180255 0)
(7.35337 0.00236865 0)
(7.3552 0.00295756 0)
(7.35705 0.00356497 0)
(7.35894 0.00418671 0)
(7.36085 0.00481862 0)
(7.36278 0.00545658 0)
(7.36475 0.00609647 0)
(7.36673 0.00673422 0)
(7.36874 0.00736584 0)
(7.37077 0.00798745 0)
(7.37282 0.00859535 0)
(7.37489 0.00918604 0)
(7.37697 0.00975634 0)
(7.37906 0.0103034 0)
(7.38115 0.0108246 0)
(7.38325 0.0113179 0)
(7.38534 0.0117815 0)
(7.38744 0.0122147 0)
(7.33304 -0.000369788 0)
(7.33339 -0.00107191 0)
(7.33411 -0.00166199 0)
(7.33511 -0.00209662 0)
(7.33631 -0.00237806 0)
(7.33764 -0.0025268 0)
(7.33908 -0.00255957 0)
(7.34061 -0.00248958 0)
(7.3422 -0.00233065 0)
(7.34385 -0.00209634 0)
(7.34554 -0.00179823 0)
(7.34726 -0.00144596 0)
(7.34902 -0.0010478 0)
(7.3508 -0.000610974 0)
(7.35262 -0.000141777 0)
(7.35446 0.000354229 0)
(7.35632 0.000872023 0)
(7.35821 0.00140697 0)
(7.36013 0.00195472 0)
(7.36206 0.00251114 0)
(7.36402 0.00307224 0)
(7.366 0.0036342 0)
(7.368 0.00419331 0)
(7.37002 0.00474605 0)
(7.37206 0.00528905 0)
(7.3741 0.00581914 0)
(7.37616 0.00633342 0)
(7.37823 0.00682921 0)
(7.38031 0.00730416 0)
(7.38238 0.00775621 0)
(7.38446 0.00818364 0)
(7.38653 0.00858494 0)
(7.38859 0.00895953 0)
(7.33305 -0.00054546 0)
(7.33347 -0.00158068 0)
(7.3343 -0.00245006 0)
(7.33546 -0.00310061 0)
(7.33679 -0.00354932 0)
(7.33824 -0.00383109 0)
(7.3398 -0.00397115 0)
(7.34142 -0.00399092 0)
(7.34311 -0.0039122 0)
(7.34483 -0.00375389 0)
(7.34659 -0.00353038 0)
(7.34838 -0.00325279 0)
(7.3502 -0.00293026 0)
(7.35204 -0.00257045 0)
(7.3539 -0.00217976 0)
(7.35579 -0.00176367 0)
(7.35769 -0.00132704 0)
(7.35962 -0.000874271 0)
(7.36156 -0.000409457 0)
(7.36353 6.35681e-05 0)
(7.36551 0.000541162 0)
(7.36751 0.00101986 0)
(7.36953 0.00149635 0)
(7.37155 0.00196752 0)
(7.37359 0.00243043 0)
(7.37564 0.00288235 0)
(7.3777 0.00332078 0)
(7.37976 0.00374348 0)
(7.38182 0.00414848 0)
(7.38388 0.0045341 0)
(7.38593 0.00489897 0)
(7.38798 0.00524202 0)
(7.39001 0.00556296 0)
(7.33306 -0.000767527 0)
(7.33358 -0.0022113 0)
(7.3346 -0.00339013 0)
(7.33596 -0.0042658 0)
(7.33748 -0.00490082 0)
(7.3391 -0.00534343 0)
(7.34079 -0.00561374 0)
(7.34254 -0.00573456 0)
(7.34432 -0.00573524 0)
(7.34614 -0.00564156 0)
(7.34797 -0.0054728 0)
(7.34983 -0.00524406 0)
(7.35171 -0.00496787 0)
(7.35361 -0.0046544 0)
(7.35552 -0.0043117 0)
(7.35746 -0.0039463 0)
(7.35941 -0.00356357 0)
(7.36137 -0.0031681 0)
(7.36336 -0.00276383 0)
(7.36536 -0.00235428 0)
(7.36737 -0.00194262 0)
(7.36939 -0.00153174 0)
(7.37142 -0.00112432 0)
(7.37346 -0.000722867 0)
(7.37551 -0.000329663 0)
(7.37756 5.31822e-05 0)
(7.3796 0.000423758 0)
(7.38165 0.000780351 0)
(7.3837 0.00112145 0)
(7.38573 0.00144574 0)
(7.38776 0.0017521 0)
(7.38977 0.00203949 0)
(7.39177 0.00230744 0)
(7.33308 -0.00106457 0)
(7.33379 -0.00306188 0)
(7.3351 -0.00457421 0)
(7.33673 -0.00559317 0)
(7.33846 -0.00630238 0)
(7.34027 -0.00681193 0)
(7.34215 -0.00715673 0)
(7.34409 -0.00736446 0)
(7.34604 -0.00746561 0)
(7.34799 -0.00748261 0)
(7.34996 -0.00742991 0)
(7.35194 -0.0073187 0)
(7.35392 -0.00715871 0)
(7.3559 -0.00695821 0)
(7.3579 -0.0067241 0)
(7.35989 -0.00646232 0)
(7.3619 -0.00617811 0)
(7.3639 -0.00587615 0)
(7.36591 -0.00556061 0)
(7.36792 -0.00523528 0)
(7.36994 -0.00490359 0)
(7.37195 -0.00456867 0)
(7.37396 -0.00423338 0)
(7.37597 -0.0039003 0)
(7.37797 -0.00357179 0)
(7.37996 -0.00324996 0)
(7.38194 -0.00293669 0)
(7.38392 -0.00263361 0)
(7.38587 -0.00234212 0)
(7.38781 -0.00206337 0)
(7.38973 -0.00179828 0)
(7.39163 -0.00154745 0)
(7.39351 -0.001311 0)
(7.3331 -0.0014464 0)
(7.33415 -0.00420306 0)
(7.33607 -0.00630506 0)
(7.33822 -0.00775353 0)
(7.34033 -0.00873384 0)
(7.34243 -0.00935523 0)
(7.34459 -0.00969555 0)
(7.34676 -0.00983729 0)
(7.34893 -0.00984722 0)
(7.35108 -0.00976765 0)
(7.35322 -0.0096255 0)
(7.35533 -0.00943983 0)
(7.35742 -0.00922404 0)
(7.35947 -0.00898697 0)
(7.3615 -0.00873444 0)
(7.36348 -0.00847048 0)
(7.36544 -0.00819808 0)
(7.36736 -0.00791955 0)
(7.36925 -0.00763681 0)
(7.3711 -0.00735154 0)
(7.37293 -0.00706532 0)
(7.37472 -0.00677968 0)
(7.37648 -0.00649606 0)
(7.37821 -0.00621588 0)
(7.37992 -0.00594048 0)
(7.3816 -0.00567115 0)
(7.38324 -0.00540907 0)
(7.38486 -0.00515535 0)
(7.38646 -0.004911 0)
(7.38802 -0.00467693 0)
(7.38956 -0.00445402 0)
(7.39107 -0.00424316 0)
(7.39255 -0.00404501 0)
(7.33311 -0.00228303 0)
(7.33485 -0.00521078 0)
(7.33795 -0.00687494 0)
(7.34137 -0.008245 0)
(7.34469 -0.00953313 0)
(7.34788 -0.0105994 0)
(7.35089 -0.0114019 0)
(7.35365 -0.0119881 0)
(7.35613 -0.0123984 0)
(7.35835 -0.0126541 0)
(7.36034 -0.0127757 0)
(7.3621 -0.0127863 0)
(7.36366 -0.0127073 0)
(7.36505 -0.0125569 0)
(7.36628 -0.0123502 0)
(7.36737 -0.0120999 0)
(7.36834 -0.0118167 0)
(7.36922 -0.0115094 0)
(7.37001 -0.0111853 0)
(7.37073 -0.0108502 0)
(7.37138 -0.0105089 0)
(7.37199 -0.0101655 0)
(7.37255 -0.00982316 0)
(7.37308 -0.00948456 0)
(7.37357 -0.00915185 0)
(7.37404 -0.0088268 0)
(7.3745 -0.00851082 0)
(7.37493 -0.00820502 0)
(7.37535 -0.00791024 0)
(7.37576 -0.0076271 0)
(7.37615 -0.00735597 0)
(7.37653 -0.00709707 0)
(7.3769 -0.00685023 0)
(7.3363 -0.00651645 0)
(7.34557 -0.0134843 0)
(7.35343 -0.0156826 0)
(7.35888 -0.0161848 0)
(7.36268 -0.016147 0)
(7.36523 -0.015731 0)
(7.36659 -0.0150663 0)
(7.36686 -0.0143191 0)
(7.36624 -0.0135824 0)
(7.36495 -0.0128843 0)
(7.36316 -0.0122316 0)
(7.36097 -0.0116268 0)
(7.35851 -0.0110689 0)
(7.35586 -0.0105539 0)
(7.3531 -0.0100767 0)
(7.35027 -0.00963268 0)
(7.34743 -0.00921756 0)
(7.34461 -0.00882783 0)
(7.34183 -0.00846055 0)
(7.33911 -0.00811335 0)
(7.33647 -0.00778436 0)
(7.33392 -0.00747213 0)
(7.33146 -0.00717553 0)
(7.32909 -0.00689368 0)
(7.32683 -0.00662591 0)
(7.32467 -0.0063717 0)
(7.32261 -0.0061306 0)
(7.32065 -0.00590224 0)
(7.31878 -0.00568625 0)
(7.31701 -0.00548223 0)
(7.31532 -0.00528965 0)
(7.31373 -0.00510789 0)
(7.31222 -0.00493546 0)
(7.32508 -0.00546942 0)
(7.31335 -0.0121238 0)
(7.29927 -0.0150405 0)
(7.2829 -0.0161287 0)
(7.26683 -0.0163069 0)
(7.25213 -0.0158695 0)
(7.2387 -0.0150283 0)
(7.22636 -0.0139831 0)
(7.21511 -0.0128694 0)
(7.2049 -0.0117617 0)
(7.19564 -0.0107008 0)
(7.18723 -0.00971 0)
(7.17956 -0.00880045 0)
(7.17257 -0.0079749 0)