/*--------------------------------*- C++ -*----------------------------------*\
| =========                 |                                                 |
| \\      /  F ield         | OpenFOAM: The Open Source CFD Toolbox           |
|  \\    /   O peration     | Version:  4.1                                   |
|   \\  /    A nd           | Web:      www.OpenFOAM.org                      |
|    \\/     M anipulation  |                                                 |
\*---------------------------------------------------------------------------*/
FoamFile
{
    version     2.0;
    format      ascii;
    class       volScalarField;
    location    "1900";
    object      p;
}
// * * * * * * * * * * * * * * * * * * * * * * * * * * * * * * * * * * * * * //

dimensions      [0 2 -2 0 0 0 0];

internalField   nonuniform List<scalar> 
26785
(
-628.003
-588.956
-564.672
-550.792
-542.873
-538.767
-538.132
-540.373
-544.202
-548.703
-552.966
-555.924
-556.573
-555.172
-551.051
-545.404
-542.159
-546.423
-565.525
-603.206
-647.694
-688.206
-733.791
-876.012
-1083.17
-1233.45
-1364.12
-1493.54
-1620.47
-1746.66
-1870.28
-1991.48
-2111.93
-2234.16
-2360.23
-2490.95
-2627.02
-2768.87
-2915.65
-3065.27
-3214.71
-3360.37
-3498.12
-3623.42
-3732.64
-3829.12
-3938.22
-4082.15
-4225.03
-4347.76
-4459.89
-4559.53
-4657.33
-4763.67
-4877.53
-4995.06
-5108.7
-5207.23
-5281.35
-5330.1
-5360.99
-5384.09
-5405.1
-5420.71
-5425.18
-5418.63
-5404.35
-5383.58
-5355.32
-5318.69
-5273.95
-5221.56
-5161.58
-5094
-5018.87
-4936.21
-4846.14
-4748.87
-4644.52
-4533.17
-4415
-4290.33
-4159.58
-4023.11
-3881.09
-3733.09
-3577.62
-3411.67
-3230.28
-3027.65
-2797
-2536.9
-2248.67
-1936.86
-1613.53
-1291.85
-977.302
-678.957
-384.754
-138.639
-627.938
-588.897
-564.62
-550.742
-542.831
-538.732
-538.105
-540.36
-544.2
-548.713
-552.989
-555.958
-556.604
-555.232
-551.089
-545.34
-541.995
-546.203
-565.278
-602.972
-647.725
-689.82
-739.107
-880.831
-1085.07
-1233.85
-1363.93
-1493.3
-1620.26
-1746.48
-1870.07
-1991.21
-2111.54
-2233.67
-2359.66
-2490.29
-2626.28
-2768.04
-2914.76
-3064.33
-3213.71
-3359.28
-3496.97
-3621.98
-3731.28
-3829.35
-3939.92
-4082.43
-4226.34
-4351.56
-4462.98
-4560.71
-4657.42
-4764.09
-4878.73
-4996.91
-5110.97
-5209.59
-5283.38
-5331.53
-5361.91
-5384.77
-5405.87
-5421.67
-5426.12
-5419.43
-5405.15
-5384.49
-5356.27
-5319.63
-5274.9
-5222.52
-5162.55
-5094.97
-5019.84
-4937.19
-4847.13
-4749.87
-4645.55
-4534.22
-4416.06
-4291.39
-4160.66
-4024.26
-3882.39
-3734.66
-3579.65
-3414.37
-3233.85
-3032.19
-2802.18
-2542.64
-2254.27
-1941.24
-1616.67
-1294.13
-979.026
-680.277
-385.744
-138.611
-627.895
-588.8
-564.524
-550.647
-542.75
-538.663
-538.056
-540.335
-544.196
-548.731
-553.034
-556.029
-556.673
-555.367
-551.172
-545.215
-541.636
-545.719
-565.054
-603.084
-648.065
-692.213
-747.015
-886.707
-1087.83
-1234.63
-1363.55
-1492.84
-1619.84
-1746.14
-1869.65
-1990.66
-2110.79
-2232.71
-2358.53
-2489.01
-2624.84
-2766.46
-2913.09
-3062.59
-3211.87
-3357.3
-3494.94
-3620.36
-3730.6
-3829.65
-3941.14
-4083.67
-4228.05
-4354.05
-4465.12
-4562.48
-4658.91
-4765.78
-4881.37
-5000.5
-5115.27
-5214.17
-5287.45
-5334.53
-5363.95
-5386.26
-5407.46
-5423.58
-5427.94
-5421.02
-5406.79
-5386.36
-5358.23
-5321.57
-5276.84
-5224.49
-5164.51
-5096.91
-5021.79
-4939.14
-4849.11
-4751.9
-4647.64
-4536.35
-4418.2
-4293.55
-4162.86
-4026.59
-3885.01
-3737.83
-3583.72
-3419.75
-3240.92
-3041.13
-2812.41
-2553.73
-2264.76
-1949.33
-1622.42
-1298.3
-982.195
-682.701
-387.644
-138.526
-627.864
-588.637
-564.371
-550.503
-542.629
-538.563
-537.982
-540.296
-544.187
-548.755
-553.099
-556.134
-556.778
-555.575
-551.286
-545.014
-541.06
-544.939
-564.274
-602.279
-648.43
-694.626
-752.57
-891.729
-1090.73
-1235.45
-1363.03
-1492.14
-1619.24
-1745.66
-1869.02
-1989.82
-2109.68
-2231.33
-2356.9
-2487.17
-2622.8
-2764.26
-2910.79
-3060.22
-3209.4
-3354.67
-3492.22
-3618.16
-3729.69
-3830.92
-3943.97
-4085.12
-4228.85
-4355.71
-4466.94
-4565.07
-4662.31
-4769.32
-4885.69
-5005.87
-5121.56
-5220.8
-5293.26
-5338.65
-5366.67
-5388.16
-5409.54
-5426.19
-5430.46
-5423.22
-5409.09
-5388.99
-5361
-5324.33
-5279.62
-5227.33
-5167.36
-5099.75
-5024.63
-4942.02
-4852.02
-4754.88
-4650.7
-4539.45
-4421.33
-4296.7
-4166.09
-4030.02
-3888.86
-3742.42
-3589.57
-3427.46
-3251.11
-3054.07
-2827.23
-2569.54
-2279.3
-1960.32
-1630.16
-1303.86
-986.439
-685.994
-390.317
-138.446
-627.861
-588.428
-564.167
-550.313
-542.47
-538.431
-537.886
-540.245
-544.174
-548.783
-553.181
-556.27
-556.913
-555.845
-551.419
-544.745
-540.261
-544.033
-563.538
-600.648
-646.062
-693.599
-756.495
-896.853
-1093.23
-1236.05
-1362.31
-1491.17
-1618.43
-1745.06
-1868.24
-1988.67
-2108.18
-2229.53
-2354.79
-2484.79
-2620.19
-2761.47
-2907.92
-3057.3
-3206.41
-3351.53
-3489.01
-3615.42
-3728.52
-3832.5
-3947.48
-4087.14
-4229.56
-4356.6
-4468.57
-4568.33
-4666.95
-4774.51
-4891.65
-5013.07
-5129.92
-5229.59
-5300.88
-5344
-5370.22
-5390.59
-5412.2
-5429.62
-5433.76
-5426.12
-5412.19
-5392.52
-5364.67
-5328
-5283.34
-5231.1
-5171.11
-5103.46
-5028.34
-4945.75
-4855.81
-4758.78
-4654.7
-4543.54
-4425.46
-4300.88
-4170.36
-4034.52
-3893.84
-3748.33
-3597.05
-3437.28
-3264.13
-3070.62
-2846.18
-2589.29
-2296.78
-1973.16
-1639.03
-1310.13
-991.253
-689.849
-393.636
-138.401
-627.813
-588.18
-563.92
-550.082
-542.275
-538.271
-537.77
-540.181
-544.155
-548.814
-553.278
-556.437
-557.074
-556.168
-551.573
-544.454
-539.763
-543.588
-562.635
-598.869
-643.176
-691.416
-759.773
-901.217
-1094.54
-1236.08
-1361.28
-1489.92
-1617.32
-1744.27
-1867.33
-1987.24
-2106.29
-2227.35
-2352.24
-2481.92
-2617.08
-2758.2
-2904.58
-3053.96
-3203.01
-3348.04
-3485.52
-3612.47
-3727.28
-3834.32
-3951.3
-4089.42
-4230.25
-4357.33
-4470.25
-4572.09
-4672.62
-4781.2
-4899.12
-5021.89
-5140.13
-5240.29
-5310.02
-5350.25
-5374.35
-5393.3
-5415.35
-5433.8
-5437.64
-5429.43
-5415.72
-5396.53
-5368.82
-5332.2
-5287.72
-5235.67
-5175.73
-5108.05
-5032.91
-4950.34
-4860.47
-4763.56
-4659.61
-4548.54
-4430.49
-4305.94
-4175.54
-4039.99
-3899.95
-3755.6
-3606.29
-3449.43
-3280.38
-3091.28
-2869.88
-2613.29
-2316.93
-1987.31
-1648.42
-1316.47
-996.045
-693.849
-397.358
-138.393
-627.694
-587.882
-563.626
-549.81
-542.047
-538.086
-537.635
-540.105
-544.13
-548.846
-553.386
-556.633
-557.261
-556.54
-551.76
-544.182
-539.448
-543.687
-562.535
-597.493
-640.591
-689.081
-761.606
-903.671
-1094.2
-1235.15
-1359.78
-1488.49
-1615.84
-1743.24
-1866.27
-1985.56
-2103.98
-2224.76
-2349.29
-2478.58
-2613.48
-2754.45
-2900.8
-3050.21
-3199.27
-3344.25
-3481.83
-3609.44
-3726.08
-3836.24
-3955.21
-4091.98
-4231.16
-4358.23
-4472.23
-4576.49
-4679.24
-4789.04
-4907.88
-5032.09
-5152.06
-5252.98
-5320.73
-5357.39
-5379.03
-5396.19
-5418.99
-5438.94
-5442.45
-5433.52
-5419.97
-5401.1
-5373.38
-5336.76
-5292.48
-5240.69
-5180.94
-5113.34
-5038.25
-4955.74
-4865.94
-4769.11
-4665.24
-4554.22
-4436.21
-4311.75
-4181.56
-4046.43
-3907.2
-3764.28
-3617.36
-3464.01
-3300.09
-3116.43
-2899.01
-2642.21
-2340.24
-2003.31
-1658.69
-1322.9
-1000.61
-697.726
-401.203
-138.476
-627.603
-587.548
-563.289
-549.501
-541.788
-537.877
-537.484
-540.018
-544.097
-548.877
-553.507
-556.862
-557.481
-556.971
-552
-543.954
-539.213
-543.94
-562.627
-596.251
-638.18
-686.734
-762.191
-904.468
-1092.23
-1232.99
-1357.56
-1486.96
-1614.06
-1741.81
-1865.01
-1983.65
-2101.27
-2221.78
-2345.96
-2474.83
-2609.46
-2750.29
-2896.64
-3046.13
-3195.23
-3340.25
-3478.03
-3606.43
-3725
-3838.22
-3959.12
-4094.78
-4232.44
-4359.52
-4474.71
-4581.48
-4686.65
-4797.93
-4917.92
-5043.57
-5165.51
-5267.35
-5332.6
-5364.84
-5383.25
-5397.89
-5421.78
-5443.28
-5446.63
-5437.51
-5424.69
-5406.36
-5378.74
-5342.17
-5297.98
-5246.33
-5186.69
-5119.16
-5044.16
-4961.75
-4872.02
-4775.25
-4671.45
-4560.48
-4442.55
-4318.25
-4188.35
-4053.75
-3915.49
-3774.24
-3630.13
-3480.8
-3323.06
-3145.83
-2933.61
-2675.92
-2366.43
-2021.51
-1670.47
-1329.99
-1005.31
-701.626
-405.109
-138.791
-627.54
-587.168
-562.909
-549.156
-541.499
-537.645
-537.314
-539.917
-544.057
-548.909
-553.643
-557.133
-557.762
-557.488
-552.317
-543.799
-539.04
-544.168
-562.522
-595.062
-636.006
-684.703
-762.246
-904.145
-1088.76
-1229.48
-1354.25
-1485.04
-1612.07
-1739.85
-1863.48
-1981.52
-2098.2
-2218.38
-2342.25
-2470.69
-2605.02
-2745.74
-2892.12
-3041.73
-3190.95
-3336.08
-3474.18
-3603.52
-3724.07
-3840.23
-3962.98
-4097.81
-4234.19
-4361.35
-4477.87
-4587.01
-4694.82
-4807.83
-4929.05
-5056.23
-5180.25
-5282.97
-5344.88
-5371.51
-5385.61
-5398.27
-5424.64
-5447.45
-5449.91
-5440.08
-5427.95
-5410.09
-5382.89
-5347.12
-5303.76
-5252.58
-5193.16
-5125.68
-5050.72
-4968.35
-4878.61
-4781.86
-4678.14
-4567.25
-4449.44
-4325.34
-4195.8
-4061.82
-3924.68
-3785.35
-3644.43
-3499.56
-3349.01
-3179.2
-2973.51
-2713.66
-2394.34
-2041.51
-1683.98
-1338.27
-1010.77
-706.088
-409.441
-139.63
-627.515
-586.747
-562.486
-548.777
-541.182
-537.39
-537.128
-539.803
-544.009
-548.943
-553.806
-557.463
-558.141
-558.115
-552.719
-543.726
-538.926
-544.38
-562.3
-593.902
-634.103
-683.093
-762.081
-902.848
-1083.89
-1224.65
-1349.7
-1482.5
-1610.21
-1737.27
-1861.57
-1979.12
-2094.8
-2214.58
-2338.19
-2466.19
-2600.22
-2740.82
-2887.27
-3037.06
-3186.46
-3331.79
-3470.34
-3600.74
-3723.33
-3842.28
-3966.79
-4101.08
-4236.47
-4363.85
-4481.76
-4593.23
-4703.67
-4818.64
-4941.29
-5070.09
-5196.15
-5299.1
-5356.15
-5377.06
-5388.69
-5400.44
-5428.66
-5453.36
-5457.22
-5447.49
-5434.07
-5414.79
-5386.65
-5350.91
-5308.34
-5257.88
-5199.1
-5132.22
-5057.7
-4975.51
-4885.76
-4789.01
-4685.34
-4574.52
-4456.85
-4333.03
-4203.91
-4070.59
-3934.65
-3797.42
-3660.06
-3520.06
-3377.73
-3216.46
-3018.4
-2754.66
-2422.77
-2062.67
-1699.03
-1348.01
-1017.52
-711.664
-414.726
-141.361
-627.458
-586.3
-562.026
-548.364
-540.835
-537.111
-536.923
-539.675
-543.954
-548.986
-554.008
-557.872
-558.642
-558.866
-553.193
-543.723
-538.869
-544.582
-561.961
-592.623
-632.375
-681.782
-761.687
-900.566
-1077.76
-1218.65
-1344.04
-1479.08
-1608.66
-1734.26
-1859.02
-1976.43
-2091.12
-2210.39
-2333.78
-2461.36
-2595.07
-2735.58
-2882.11
-3032.13
-3181.79
-3327.43
-3466.55
-3598.12
-3722.76
-3844.37
-3970.58
-4104.62
-4239.34
-4367.08
-4486.46
-4600.21
-4713.17
-4830.34
-4954.6
-5085.04
-5213.06
-5314.83
-5365.08
-5382.39
-5393.61
-5405.56
-5434.05
-5458.32
-5463.49
-5455.67
-5442.85
-5424.49
-5396.84
-5359.87
-5315.38
-5263.97
-5204.91
-5138.04
-5063.76
-4982.01
-4892.75
-4796.39
-4692.92
-4582.25
-4464.85
-4341.39
-4212.71
-4080.06
-3945.35
-3810.3
-3676.77
-3542.01
-3409.1
-3258.3
-3067.92
-2798.24
-2451.39
-2084.52
-1715
-1359.19
-1026.07
-719.065
-421.69
-144.441
-627.332
-585.819
-561.53
-547.919
-540.459
-536.81
-536.701
-539.534
-543.896
-549.046
-554.26
-558.363
-559.262
-559.718
-553.712
-543.756
-538.847
-544.739
-561.473
-591.13
-630.659
-680.588
-760.957
-897.326
-1070.5
-1211.65
-1337.38
-1474.07
-1606.93
-1731.43
-1855.66
-1973.36
-2087.16
-2205.84
-2329.02
-2456.23
-2589.62
-2730.02
-2876.67
-3026.97
-3176.96
-3323.01
-3462.83
-3595.68
-3722.39
-3846.53
-3974.41
-4108.47
-4242.83
-4371.1
-4492.01
-4608
-4723.42
-4842.76
-4968.83
-5101.07
-5230.67
-5329.18
-5372.24
-5388.18
-5399.46
-5411.83
-5440.47
-5464.84
-5469.71
-5462.2
-5449.52
-5431.63
-5405.47
-5370.4
-5327.29
-5276.34
-5216.48
-5147.71
-5071.7
-4989.07
-4899.39
-4802.96
-4699.82
-4589.8
-4473.07
-4350.12
-4221.88
-4089.87
-3956.34
-3823.5
-3693.87
-3564.14
-3440.95
-3304.04
-3121.24
-2842.32
-2479.6
-2107.11
-1731.57
-1371.41
-1036.11
-728.366
-431.362
-150.141
-627.241
-585.308
-560.998
-547.442
-540.055
-536.487
-536.462
-539.38
-543.838
-549.129
-554.564
-558.928
-559.971
-560.627
-554.236
-543.788
-538.825
-544.796
-560.8
-589.37
-628.763
-679.325
-759.784
-893.184
-1062.21
-1203.7
-1329.86
-1467.7
-1604.82
-1729.02
-1851.3
-1969.74
-2082.87
-2200.99
-2323.95
-2450.8
-2583.88
-2724.19
-2870.97
-3021.59
-3172
-3318.57
-3459.21
-3593.43
-3722.22
-3848.78
-3978.32
-4112.67
-4246.97
-4375.93
-4498.43
-4616.65
-4734.47
-4856
-4984
-5118.05
-5248.51
-5341.61
-5380.54
-5393.32
-5405.07
-5419.02
-5447.95
-5472.64
-5477.84
-5471.05
-5458.71
-5440.66
-5414.17
-5379.06
-5336.64
-5286.92
-5228.59
-5161.28
-5086.01
-5002.63
-4910.49
-4811.58
-4707.59
-4597.73
-4481.34
-4358.77
-4230.95
-4099.48
-3966.98
-3836.31
-3710.67
-3584.98
-3469.03
-3345.33
-3174.05
-2885.43
-2506.26
-2129.01
-1748.39
-1385.78
-1048.83
-739.238
-441.979
-157.664
-627.19
-584.761
-560.431
-546.936
-539.624
-536.143
-536.205
-539.212
-543.786
-549.24
-554.912
-559.541
-560.726
-561.54
-554.721
-543.782
-538.759
-544.694
-559.894
-587.335
-626.57
-677.798
-758.057
-888.174
-1052.88
-1194.79
-1321.58
-1460.35
-1601.99
-1727.17
-1846.52
-1965.44
-2078.19
-2195.84
-2318.61
-2445.12
-2577.88
-2718.09
-2865.03
-3016.02
-3166.93
-3314.12
-3455.69
-3591.38
-3722.24
-3851.14
-3982.36
-4117.23
-4251.78
-4381.6
-4505.76
-4626.18
-4746.36
-4870.08
-5000.08
-5135.87
-5266.33
-5353.9
-5391.25
-5398.69
-5412.6
-5428.49
-5457.09
-5481.34
-5486.86
-5480.93
-5468.95
-5450.79
-5424.35
-5389.28
-5346.92
-5297.17
-5238.72
-5171.58
-5097.04
-5015.17
-4924.49
-4826.01
-4721.47
-4610.24
-4492.45
-4369.41
-4241.83
-4110.77
-3979.09
-3850.52
-3729.39
-3608.58
-3500.24
-3384.4
-3215.15
-2920.23
-2533.5
-2151.32
-1763.45
-1398.54
-1061.56
-752.437
-456.747
-168.237
-627.183
-584.179
-559.83
-546.4
-539.166
-535.779
-535.928
-539.033
-543.745
-549.374
-555.288
-560.176
-561.485
-562.409
-555.144
-543.706
-538.607
-544.386
-558.712
-585.037
-624.028
-675.827
-755.65
-882.307
-1042.53
-1184.86
-1312.6
-1452.24
-1597.75
-1725.43
-1842.01
-1960.42
-2073
-2190.41
-2313.03
-2439.22
-2571.65
-2711.75
-2858.86
-3010.26
-3161.75
-3309.67
-3452.29
-3589.52
-3722.47
-3853.66
-3986.58
-4122.21
-4257.26
-4388.14
-4514.01
-4636.62
-4759.13
-4885.04
-5017.07
-5154.58
-5284.62
-5367.85
-5403.75
-5405.83
-5422.33
-5440.21
-5468.34
-5491.84
-5497.53
-5492.31
-5480.69
-5462.44
-5436.05
-5401.13
-5358.8
-5309.07
-5250.8
-5183.82
-5108.78
-5025.9
-4934.99
-4837.51
-4734.32
-4623.95
-4506.46
-4383.54
-4256.19
-4125.75
-3995.02
-3868.31
-3750.82
-3636.35
-3540.66
-3441.32
-3264.04
-2945.17
-2551.08
-2169.81
-1779.59
-1415.56
-1079.43
-769.251
-471.822
-177.207
-627.151
-583.578
-559.199
-545.835
-538.684
-535.396
-535.628
-538.848
-543.715
-549.525
-555.673
-560.809
-562.222
-563.207
-555.492
-543.54
-538.339
-543.838
-557.227
-582.459
-621.099
-673.281
-752.466
-875.581
-1031.16
-1173.85
-1302.8
-1443.39
-1592.04
-1723.23
-1837.68
-1954.6
-2067.22
-2184.64
-2307.23
-2433.12
-2565.2
-2705.19
-2852.48
-3004.34
-3156.49
-3305.25
-3449.02
-3587.87
-3722.91
-3856.34
-3991.01
-4127.62
-4263.45
-4395.53
-4523.21
-4648.01
-4772.82
-4900.92
-5034.99
-5174.14
-5303.57
-5383.55
-5416.47
-5416.09
-5434.51
-5453.88
-5481.37
-5504.05
-5509.89
-5505.29
-5493.96
-5475.65
-5449.3
-5414.56
-5372.31
-5322.52
-5264.28
-5197.58
-5122.77
-5039.65
-4948.18
-4849.93
-4745.87
-4635.15
-4517.97
-4395.52
-4268.71
-4138.98
-4008.84
-3882.36
-3764.38
-3650.96
-3553.43
-3455.76
-3283.02
-2976.85
-2572.52
-2187.04
-1793.71
-1429.13
-1092.87
-781.272
-482.621
-183.791
-627.044
-582.955
-558.54
-545.243
-538.181
-534.992
-535.304
-538.662
-543.695
-549.683
-556.051
-561.426
-562.928
-563.929
-555.764
-543.272
-537.938
-543.033
-555.423
-579.581
-617.751
-670.091
-748.449
-867.998
-1018.87
-1161.72
-1292.08
-1433.68
-1585.04
-1720.43
-1833.34
-1948
-2060.81
-2178.49
-2301.23
-2426.86
-2558.57
-2698.43
-2845.91
-2998.27
-3151.15
-3300.85
-3445.87
-3586.41
-3723.56
-3859.22
-3995.7
-4133.49
-4270.34
-4403.81
-4533.36
-4660.37
-4787.47
-4917.74
-5053.83
-5194.5
-5323.26
-5400.59
-5429.18
-5430.09
-5449.14
-5469.4
-5496.17
-5518.13
-5524.09
-5520.04
-5509.01
-5490.69
-5464.41
-5429.81
-5387.63
-5337.82
-5279.63
-5213.01
-5138.13
-5054.84
-4963.36
-4864.94
-4760.25
-4648.89
-4531.33
-4408.66
-4281.75
-4152
-4021.94
-3895.57
-3776.55
-3661.87
-3558.71
-3443.84
-3260.95
-2968.66
-2579.88
-2195.45
-1806.41
-1444.23
-1108.29
-794.338
-493.303
-191.438
-626.969
-582.305
-557.854
-544.625
-537.659
-534.569
-534.96
-538.478
-543.68
-549.838
-556.412
-562.024
-563.6
-564.584
-555.964
-542.905
-537.404
-541.965
-553.292
-576.381
-613.962
-666.22
-743.579
-859.572
-1005.77
-1148.48
-1280.38
-1423.03
-1576.86
-1717.09
-1829.04
-1940.69
-2053.71
-2171.88
-2295.01
-2420.45
-2551.78
-2691.49
-2839.17
-2992.06
-3145.74
-3296.47
-3442.84
-3585.15
-3724.43
-3862.32
-4000.69
-4139.85
-4277.94
-4412.96
-4544.47
-4673.73
-4803.11
-4935.55
-5073.59
-5215.64
-5343.75
-5418.73
-5443.24
-5447.25
-5465.89
-5486.65
-5512.67
-5534.09
-5540.14
-5536.59
-5525.84
-5507.57
-5481.4
-5446.98
-5404.89
-5355.1
-5297
-5230.5
-5155.59
-5072.13
-4980.5
-4881.76
-4776.54
-4664.78
-4546.99
-4424.05
-4296.86
-4166.91
-4036.59
-3909.62
-3788.95
-3672.42
-3562.19
-3439.63
-3248.75
-2959.33
-2583.44
-2201.93
-1819
-1459.81
-1124.32
-807.861
-504.572
-198.761
-626.938
-581.627
-557.144
-543.986
-537.126
-534.125
-534.604
-538.295
-543.665
-549.983
-556.751
-562.607
-564.254
-565.193
-556.095
-542.45
-536.745
-540.637
-550.836
-572.844
-609.715
-661.655
-737.852
-850.33
-991.955
-1134.13
-1267.71
-1411.45
-1567.52
-1712.84
-1824.87
-1932.95
-2045.97
-2164.7
-2288.48
-2413.9
-2544.85
-2684.39
-2832.28
-2985.73
-3140.25
-3292.12
-3439.94
-3584.08
-3725.51
-3865.66
-4006
-4146.72
-4286.26
-4422.99
-4556.56
-4688.11
-4819.78
-4954.36
-5094.27
-5237.54
-5365.06
-5438.13
-5460.42
-5466.33
-5484.02
-5505.54
-5530.79
-5551.93
-5558.11
-5555.01
-5544.55
-5526.37
-5500.34
-5466.11
-5424.13
-5374.37
-5316.37
-5249.98
-5175.11
-5091.62
-4999.91
-4900.9
-4795.14
-4682.86
-4564.63
-4441.24
-4313.6
-4183.17
-4052.24
-3924.07
-3801.42
-3682.4
-3560
-3427.18
-3235.8
-2949.44
-2583.63
-2207.89
-1831.1
-1474.71
-1139.07
-820.022
-515.627
-203.885
-626.95
-580.922
-556.414
-543.332
-536.584
-533.656
-534.245
-538.111
-543.647
-550.114
-557.071
-563.187
-564.912
-565.794
-556.157
-541.922
-535.969
-539.054
-548.057
-568.962
-604.997
-656.392
-731.282
-840.304
-977.481
-1118.72
-1254.08
-1398.91
-1556.96
-1707.04
-1820.5
-1925.16
-2037.63
-2156.95
-2281.55
-2407.19
-2537.8
-2677.15
-2825.24
-2979.26
-3134.7
-3287.79
-3437.17
-3583.2
-3726.83
-3869.25
-4011.65
-4154.1
-4295.31
-4433.91
-4569.64
-4703.52
-4837.51
-4974.2
-5115.87
-5260.18
-5387.26
-5458.98
-5480.75
-5486.6
-5503.14
-5526.3
-5550.52
-5571.62
-5578.01
-5575.33
-5565.17
-5547.13
-5521.26
-5487.22
-5445.37
-5395.69
-5337.78
-5271.5
-5196.67
-5113.18
-5021.44
-4922.19
-4815.98
-4703.16
-4584.35
-4460.31
-4331.96
-4200.76
-4068.78
-3938.69
-3813.33
-3691.33
-3557.67
-3412.86
-3218.73
-2934.76
-2580.52
-2212.43
-1841.98
-1488.28
-1151.86
-830.363
-525.85
-207.313
-626.944
-580.205
-555.67
-542.667
-536.038
-533.162
-533.886
-537.922
-543.623
-550.23
-557.375
-563.775
-565.588
-566.415
-556.148
-541.327
-535.073
-537.216
-544.961
-564.726
-599.799
-650.433
-723.882
-829.524
-962.399
-1102.32
-1239.42
-1385.39
-1545.1
-1699.46
-1815.37
-1917.39
-2028.78
-2148.63
-2274.12
-2400.31
-2530.65
-2669.8
-2818.07
-2972.68
-3129.07
-3283.49
-3434.5
-3582.5
-3728.37
-3873.12
-4017.67
-4162.03
-4305.09
-4445.71
-4583.71
-4719.98
-4856.31
-4995.09
-5138.4
-5283.56
-5410.36
-5481.33
-5503.13
-5508.27
-5523.4
-5549.19
-5571.87
-5593.11
-5599.81
-5597.55
-5587.72
-5569.87
-5544.19
-5510.36
-5468.65
-5419.04
-5361.23
-5295.05
-5220.27
-5136.82
-5045.05
-4945.57
-4838.9
-4725.51
-4606
-4481.12
-4351.83
-4219.54
-4086.06
-3953.52
-3824.78
-3698.18
-3554.49
-3398.07
-3201.7
-2919.28
-2575.79
-2215.23
-1850.91
-1499.5
-1162.12
-838.961
-534.883
-209.746
-626.859
-579.479
-554.916
-541.999
-535.488
-532.647
-533.527
-537.726
-543.591
-550.333
-557.668
-564.377
-566.296
-567.061
-556.067
-540.669
-534.052
-535.117
-541.548
-560.135
-594.122
-643.79
-715.664
-818.009
-946.737
-1084.99
-1223.66
-1370.8
-1531.88
-1690.09
-1809.12
-1909.52
-2019.57
-2139.79
-2266.07
-2393.21
-2523.45
-2662.35
-2810.78
-2965.97
-3123.39
-3279.21
-3431.94
-3581.98
-3730.14
-3877.27
-4024.08
-4170.5
-4315.59
-4458.4
-4598.78
-4737.52
-4876.22
-5017.06
-5161.87
-5307.7
-5434.37
-5505.13
-5526.73
-5531.42
-5545
-5573.84
-5594.88
-5616.34
-5623.47
-5621.66
-5612.2
-5594.58
-5569.12
-5535.51
-5493.95
-5444.43
-5386.71
-5320.6
-5245.88
-5162.46
-5070.65
-4970.95
-4863.83
-4749.8
-4629.46
-4503.57
-4373.1
-4239.39
-4103.96
-3968.56
-3835.75
-3702.95
-3551.45
-3383.87
-3184.05
-2903.6
-2569.26
-2215.66
-1857.01
-1507.76
-1169.92
-846.201
-542.703
-211.438
-626.806
-578.737
-554.155
-541.331
-534.932
-532.121
-533.164
-537.521
-543.548
-550.423
-557.954
-564.996
-567.036
-567.727
-555.909
-539.947
-532.899
-532.753
-537.82
-555.184
-587.967
-636.476
-706.641
-805.771
-930.508
-1066.83
-1206.73
-1355.03
-1517.24
-1678.96
-1801.68
-1901.2
-2010.06
-2130.42
-2257.36
-2385.75
-2516.23
-2654.84
-2803.38
-2959.15
-3117.64
-3274.94
-3429.48
-3581.63
-3732.13
-3881.7
-4030.87
-4179.52
-4326.82
-4471.97
-4614.84
-4756.12
-4897.25
-5040.14
-5186.31
-5332.61
-5459.29
-5530.31
-5550.98
-5556.09
-5568.12
-5599.47
-5619.55
-5641.22
-5648.92
-5647.59
-5638.57
-5621.25
-5596.04
-5562.66
-5521.26
-5471.84
-5414.19
-5348.13
-5273.44
-5190.04
-5098.16
-4998.21
-4890.63
-4775.9
-4654.63
-4527.56
-4395.69
-4260.25
-4122.5
-3983.97
-3846.57
-3706.08
-3548.84
-3371.72
-3165.55
-2887
-2560.47
-2213.43
-1860.23
-1513.44
-1175.92
-852.456
-549.369
-212.55
-626.799
-577.979
-553.391
-540.67
-534.367
-531.599
-532.794
-537.309
-543.494
-550.502
-558.233
-565.629
-567.804
-568.393
-555.661
-539.164
-531.608
-530.119
-533.779
-549.869
-581.328
-628.497
-696.834
-792.821
-913.712
-1047.88
-1188.59
-1338
-1501.11
-1666.04
-1793.13
-1892.18
-2000.12
-2120.42
-2247.97
-2377.75
-2508.97
-2647.28
-2795.92
-2952.24
-3111.83
-3270.65
-3427.09
-3581.43
-3734.35
-3886.44
-4038.07
-4189.09
-4338.76
-4486.41
-4631.89
-4775.81
-4919.4
-5064.33
-5211.76
-5358.33
-5485.09
-5556.8
-5575.32
-5582.42
-5592.95
-5625.88
-5645.79
-5667.66
-5676.07
-5675.29
-5666.79
-5649.84
-5624.92
-5591.8
-5550.56
-5501.23
-5443.63
-5377.59
-5302.9
-5219.47
-5127.48
-5027.25
-4919.17
-4803.69
-4681.38
-4553
-4419.53
-4282.09
-4141.72
-3999.95
-3857.73
-3708.53
-3546.19
-3362.21
-3147.61
-2870.19
-2550.14
-2209.26
-1861.33
-1517.29
-1180.65
-857.908
-554.949
-213.213
-626.833
-577.208
-552.627
-540.02
-533.791
-531.09
-532.415
-537.089
-543.429
-550.571
-558.504
-566.271
-568.596
-569.034
-555.31
-538.324
-530.176
-527.214
-529.428
-544.187
-574.202
-619.853
-686.255
-779.163
-896.338
-1028.2
-1169.24
-1319.63
-1483.41
-1651.21
-1783.41
-1882.48
-1989.63
-2109.78
-2237.88
-2369.08
-2501.67
-2639.73
-2788.41
-2945.28
-3105.94
-3266.34
-3424.77
-3581.38
-3736.78
-3891.46
-4045.67
-4199.21
-4351.42
-4501.7
-4649.92
-4796.56
-4942.69
-5089.66
-5238.26
-5384.91
-5511.74
-5584.59
-5600
-5610.6
-5619.53
-5653.13
-5673.54
-5695.59
-5704.84
-5704.69
-5696.78
-5680.3
-5655.73
-5622.88
-5581.83
-5532.58
-5475.01
-5408.95
-5334.21
-5250.7
-5158.54
-5057.98
-4949.33
-4833.03
-4709.61
-4579.79
-4444.55
-4304.87
-4161.71
-4016.57
-3869.35
-3711.81
-3543.04
-3354.44
-3131.12
-2854.28
-2539.45
-2204.17
-1861.15
-1519.91
-1184.46
-862.623
-559.573
-213.535
-626.858
-576.434
-551.865
-539.384
-533.208
-530.596
-532.022
-536.861
-543.351
-550.63
-558.768
-566.915
-569.402
-569.624
-554.846
-537.431
-528.597
-524.039
-524.769
-538.137
-566.588
-610.57
-674.933
-764.79
-878.359
-1007.79
-1148.7
-1299.85
-1464.12
-1634.36
-1772.18
-1872.17
-1978.57
-2098.64
-2227.1
-2359.61
-2494.11
-2632.28
-2780.86
-2938.29
-3099.98
-3262.01
-3422.5
-3581.46
-3739.42
-3896.78
-4053.67
-4209.87
-4364.78
-4517.84
-4668.91
-4818.38
-4967.11
-5116.15
-5265.86
-5412.44
-5539.22
-5613.68
-5626.74
-5640.79
-5647.99
-5681.25
-5702.94
-5725.09
-5735.32
-5735.8
-5728.5
-5712.55
-5688.39
-5655.86
-5615.02
-5565.86
-5508.29
-5442.18
-5367.33
-5283.66
-5191.25
-5090.29
-4981.02
-4863.82
-4739.19
-4607.84
-4470.69
-4328.61
-4182.55
-4033.87
-3881.16
-3717.41
-3540.64
-3347.22
-3116.51
-2839.91
-2529.25
-2198.86
-1860.24
-1521.66
-1187.52
-866.644
-563.409
-213.618
-626.803
-575.661
-551.107
-538.76
-532.613
-530.102
-531.613
-536.626
-543.263
-550.68
-559.023
-567.557
-570.21
-570.141
-554.257
-536.482
-526.861
-520.6
-519.806
-531.699
-558.471
-600.68
-662.893
-749.686
-859.741
-986.664
-1127
-1278.64
-1443.21
-1615.45
-1759.13
-1861.02
-1966.85
-2087.01
-2215.76
-2349.39
-2486.03
-2624.93
-2773.26
-2931.23
-3094
-3257.67
-3420.26
-3581.66
-3742.26
-3902.37
-4062.07
-4221.07
-4378.81
-4534.8
-4688.85
-4841.25
-4992.64
-5143.8
-5294.62
-5441.02
-5567.56
-5644.06
-5657.17
-5672.77
-5678.53
-5710.57
-5734.33
-5756.29
-5767.55
-5768.67
-5762.04
-5746.6
-5722.86
-5690.69
-5650.09
-5601.04
-5543.47
-5477.26
-5402.24
-5318.34
-5225.59
-5124.12
-5014.13
-4895.94
-4770.03
-4637.08
-4497.92
-4353.34
-4204.38
-4051.95
-3893.18
-3724.59
-3541.12
-3340.62
-3104.02
-2827.33
-2519.94
-2193.7
-1858.9
-1522.76
-1189.97
-870.028
-566.567
-213.554
-626.774
-574.877
-550.348
-538.142
-531.991
-529.588
-531.186
-536.385
-543.164
-550.724
-559.269
-568.195
-571.006
-570.577
-553.545
-535.467
-524.955
-516.9
-514.543
-524.859
-549.852
-590.175
-650.1
-733.823
-840.445
-964.792
-1104.17
-1256
-1420.71
-1594.48
-1744.04
-1848.83
-1954.24
-2074.66
-2203.87
-2338.57
-2477.31
-2617.65
-2765.65
-2924.12
-3088.01
-3253.32
-3418.05
-3581.95
-3745.27
-3908.24
-4070.85
-4232.78
-4393.51
-4552.55
-4709.71
-4865.13
-5019.28
-5172.61
-5324.57
-5470.77
-5596.82
-5675.41
-5691.25
-5706.38
-5711.19
-5741.69
-5767.98
-5789.35
-5801.49
-5803.26
-5797.39
-5782.51
-5759.2
-5727.33
-5687
-5638.07
-5580.51
-5514.18
-5438.94
-5354.72
-5261.52
-5159.43
-5048.6
-4929.33
-4802.08
-4667.46
-4526.18
-4379.05
-4227.15
-4070.7
-3906.33
-3731.95
-3543.92
-3335.34
-3093.69
-2816.6
-2511.69
-2188.9
-1857.36
-1523.43
-1191.96
-872.856
-569.06
-213.414
-626.784
-574.08
-549.584
-537.517
-531.336
-529.041
-530.742
-536.138
-543.057
-550.761
-559.51
-568.825
-571.794
-570.938
-552.738
-534.384
-522.869
-512.95
-508.982
-517.611
-540.719
-579.023
-636.53
-717.195
-820.449
-942.162
-1080.25
-1231.95
-1396.62
-1571.52
-1726.81
-1835.44
-1940.59
-2061.34
-2191.24
-2327.14
-2467.88
-2610.39
-2758.28
-2916.93
-3081.99
-3248.98
-3415.89
-3582.34
-3748.45
-3914.37
-4080
-4244.99
-4408.84
-4571.08
-4731.45
-4890.01
-5047.01
-5202.57
-5355.75
-5501.83
-5627.15
-5707.4
-5728.45
-5741.5
-5745.48
-5775.02
-5803.82
-5824.68
-5837.42
-5839.75
-5834.44
-5820.2
-5797.41
-5765.89
-5725.76
-5676.92
-5619.38
-5552.93
-5477.43
-5392.8
-5299.04
-5196.19
-5084.4
-4963.97
-4835.31
-4698.92
-4555.45
-4405.77
-4250.78
-4089.94
-3920.88
-3740.45
-3547.29
-3331.52
-3085.42
-2807.69
-2504.61
-2184.64
-1855.85
-1523.89
-1193.67
-875.226
-570.873
-213.257
-626.816
-573.262
-548.811
-536.875
-530.648
-528.452
-530.282
-535.889
-542.943
-550.796
-559.748
-569.443
-572.588
-571.243
-551.852
-533.232
-520.594
-508.759
-503.129
-509.97
-531.056
-567.189
-622.198
-699.818
-799.746
-918.764
-1055.28
-1206.51
-1370.97
-1546.62
-1707.31
-1820.74
-1925.84
-2046.96
-2177.67
-2314.96
-2457.58
-2602.87
-2751.39
-2909.67
-3075.93
-3244.67
-3413.78
-3582.83
-3751.79
-3920.73
-4089.49
-4257.67
-4424.78
-4590.33
-4754.04
-4915.85
-5075.78
-5233.68
-5388.18
-5534.29
-5658.9
-5740.43
-5768.36
-5776.84
-5780.64
-5810.49
-5841.68
-5862.57
-5875.75
-5878.54
-5873.53
-5859.72
-5837.35
-5806.3
-5766.42
-5717.69
-5660.06
-5593.47
-5517.67
-5432.57
-5338.14
-5234.42
-5121.56
-4999.86
-4869.7
-4731.43
-4585.74
-4433.51
-4275.13
-4110.01
-3936.04
-3750.9
-3551.24
-3329.24
-3079.17
-2800.61
-2498.83
-2181.11
-1854.61
-1524.37
-1195.29
-877.239
-572.072
-213.137
-626.828
-572.426
-548.021
-536.204
-529.924
-527.818
-529.811
-535.64
-542.826
-550.831
-559.989
-570.052
-573.409
-571.517
-550.911
-532.012
-518.128
-504.341
-496.988
-501.944
-520.863
-554.679
-607.134
-681.711
-778.336
-894.587
-1029.27
-1179.71
-1343.8
-1519.85
-1685.47
-1804.55
-1909.93
-2031.44
-2163.06
-2301.88
-2446.37
-2594.6
-2744.99
-2902.72
-3069.76
-3240.37
-3411.73
-3583.41
-3755.28
-3927.33
-4099.31
-4270.8
-4441.29
-4610.28
-4777.45
-4942.59
-5105.57
-5265.89
-5421.84
-5568.2
-5692.44
-5775.43
-5810.04
-5812.56
-5816.92
-5848.1
-5881.41
-5902.83
-5916.55
-5919.87
-5915.1
-5901.51
-5879.3
-5848.46
-5808.81
-5760.31
-5702.62
-5635.81
-5559.6
-5473.99
-5378.81
-5274.14
-5160.12
-5037.03
-4905.23
-4764.99
-4617.09
-4462.22
-4300.17
-4130.84
-3952.18
-3762.27
-3556.28
-3328.62
-3074.95
-2795.4
-2494.47
-2178.51
-1853.85
-1525.05
-1196.94
-878.982
-572.87
-213.112
-626.744
-571.566
-547.209
-535.499
-529.164
-527.146
-529.335
-535.396
-542.709
-550.87
-560.237
-570.653
-574.285
-571.787
-549.944
-530.74
-515.474
-499.71
-490.565
-493.516
-510.124
-541.508
-591.355
-662.88
-756.203
-869.609
-1002.24
-1151.6
-1315.12
-1491.28
-1661.25
-1786.71
-1892.83
-2014.74
-2147.33
-2287.8
-2434.23
-2585.17
-2738.65
-2896.54
-3063.56
-3236.05
-3409.72
-3584.07
-3758.93
-3934.15
-4109.44
-4284.35
-4458.34
-4630.89
-4801.62
-4970.21
-5136.32
-5299.18
-5456.71
-5603.55
-5727.86
-5812.77
-5852.6
-5851.56
-5856.01
-5888.31
-5923.15
-5945.33
-5959.73
-5963.78
-5959.31
-5945.9
-5923.7
-5892.78
-5853.04
-5804.53
-5746.89
-5679.89
-5603.3
-5517.02
-5421.03
-5315.36
-5200.09
-5075.47
-4941.92
-4799.68
-4649.53
-4491.72
-4326.03
-4152.32
-3969.59
-3774.29
-3562.58
-3329.77
-3072.78
-2792.07
-2491.59
-2176.92
-1853.67
-1526.02
-1198.68
-880.549
-573.498
-213.239
-626.652
-570.667
-546.372
-534.757
-528.368
-526.446
-528.862
-535.161
-542.597
-550.917
-560.498
-571.249
-575.24
-572.069
-548.99
-529.426
-512.641
-494.879
-483.855
-484.66
-498.829
-527.683
-574.858
-643.306
-733.32
-843.807
-974.188
-1122.18
-1284.97
-1460.99
-1634.65
-1767
-1874.48
-1996.81
-2130.43
-2272.63
-2421.14
-2574.55
-2731.57
-2891.18
-3057.81
-3231.61
-3407.69
-3584.8
-3762.7
-3941.18
-4119.86
-4298.28
-4475.88
-4652.11
-4826.5
-4998.64
-5167.98
-5333.48
-5492.74
-5640.27
-5764.96
-5852.08
-5896.2
-5895.72
-5899.53
-5931.81
-5967.38
-5990.27
-6005.29
-6010.19
-6006.16
-5993.01
-5970.81
-5939.69
-5899.61
-5850.68
-5792.75
-5725.5
-5648.63
-5561.7
-5464.85
-5358.07
-5241.43