/*--------------------------------*- C++ -*----------------------------------*\
| =========                 |                                                 |
| \\      /  F ield         | OpenFOAM: The Open Source CFD Toolbox           |
|  \\    /   O peration     | Version:  4.1                                   |
|   \\  /    A nd           | Web:      www.OpenFOAM.org                      |
|    \\/     M anipulation  |                                                 |
\*---------------------------------------------------------------------------*/
FoamFile
{
    version     2.0;
    format      ascii;
    class       surfaceScalarField;
    location    "1900";
    object      phi;
}
// * * * * * * * * * * * * * * * * * * * * * * * * * * * * * * * * * * * * * //

dimensions      [0 3 -1 0 0 0 0];

internalField   nonuniform List<scalar> 
52920
(
1857.54
186.614
1722.93
134.624
1626.92
96.0199
1567.49
59.456
1547.92
19.597
1581.47
-33.5262
1667.45
-85.9571
1783.4
-115.929
1906.79
-123.362
2019.19
-112.378
2104.89
-85.6869
2151.78
-46.8583
2159.9
-8.10575
2115.84
44.078
2031.26
84.599
1926.95
104.337
1847.26
79.7085
1947.37
-100.084
2277.43
-330.028
2579.64
-302.175
2817.53
-237.866
1613.63
1203.92
-1480.1
3093.74
-3863.01
2382.92
-4510.3
647.294
-4454.68
-55.6096
-4459.11
4.44012
-4396.35
-62.7486
-4259.35
-137
-4122.87
-136.467
-4000.24
-122.623
-3895.23
-105.005
-3768.4
-126.815
-3597.32
-171.079
-3380.79
-216.517
-3111.7
-269.082
-2778.35
-333.343
-2375.19
-403.143
-1905.36
-469.82
-1379.16
-526.193
-814.295
-564.855
-236.517
-577.767
309.077
-545.585
826.749
-517.663
1127.68
-300.926
1179.14
-51.4469
1932.68
-753.521
4071.19
-2138.51
5793.81
-1722.6
5939.27
-145.456
5744.47
194.823
5833.52
-89.0402
5991.39
-157.855
6254.99
-263.592
6647.9
-392.902
7147.22
-499.313
7672.77
-525.549
8126.76
-453.981
8490.48
-363.72
8834.47
-343.988
9246.72
-412.248
9749.04
-502.318
10232.7
-483.697
10563.5
-330.753
10712.8
-149.255
10749.1
-36.3
10753.4
-4.29949
10780.3
-26.9583
10875.5
-95.1847
11075.9
-200.365
11392.9
-317.064
11810.5
-417.556
12298.3
-487.841
12825.4
-527.094
13370.4
-545.017
13931.5
-561.08
14526.9
-595.358
15185.7
-658.8
15938.1
-752.439
16807.8
-869.691
17805.5
-997.709
18926.1
-1120.57
20149.6
-1223.54
21444.8
-1295.16
22770.8
-1326.01
24076.9
-1306.05
25299.1
-1222.2
26359.1
-1060.03
27171.4
-812.297
27653.4
-482.048
27778.4
-124.992
27569.4
209.013
27077.9
491.499
26378.5
699.388
25538.2
840.288
24608.1
930.094
23624.2
983.981
22619
1005.18
21598.1
1020.88
935.981
1835.79
371.776
1701.96
268.454
1608.89
189.108
1554.61
113.755
1540.6
33.6444
1577.35
-70.2507
1664.02
-172.599
1780.02
-231.908
1904.39
-247.714
2019.69
-227.662
2111.09
-177.057
2165.7
-101.451
2179.59
-21.9725
2131.21
92.4772
2023.26
192.57
1873.17
254.437
1762.02
190.875
1896.47
-234.498
2271
-704.525
2559.22
-590.367
2289.42
31.9705
1016.35
2477.01
-1305.1
5415.2
-3563.12
4640.95
-4484.88
1569.06
-4477.69
-62.7926
-4406.31
-66.9307
-4318.27
-150.782
-4203.03
-252.231
-4093.32
-246.172
-3977.68
-238.247
-3869.52
-213.162
-3751.64
-244.681
-3603.18
-319.534
-3413.73
-405.949
-3176.3
-506.504
-2884.95
-624.688
-2536.33
-751.75
-2133.12
-873.018
-1683.51
-975.799
-1199.09
-1049.26
-687.702
-1089.15
-164.313
-1068.96
235.46
-917.427
595.187
-660.645
1292.25
-748.501
2093.72
-1554.97
2506.23
-2551.02
3247.42
-2463.78
4712.41
-1610.45
5562.59
-655.331
5545.23
-71.6676
5497.32
-109.924
5714.99
-481.26
6090.49
-768.391
6513.3
-922.116
6901.74
-913.978
7204.57
-756.805
7445.43
-604.571
7706.63
-605.191
8066.17
-771.781
8542.09
-978.239
9025.37
-966.974
9383.8
-689.188
9591.64
-357.087
9709.47
-154.131
9796.23
-91.0619
9883.24
-113.96
10004.4
-216.362
10198.9
-394.853
10489.6
-607.715
10874.7
-802.706
11337.2
-950.324
11854.3
-1044.18
12407.2
-1097.91
12991.8
-1145.68
13621.1
-1224.65
14318.2
-1355.9
15108.3
-1542.6
16011.9
-1773.27
17037.4
-2023.17
18177.6
-2260.77
19411.1
-2457.07
20706.2
-2590.3
22023.4
-2643.14
23314.3
-2597.02
24518.5
-2426.39
25561.1
-2102.56
26357.8
-1609.08
26827.7
-951.882
26944.7
-242.025
26736.8
416.878
26260
968.358
25584.3
1375.05
24773.5
1651.09
23876.4
1827.23
22926.2
1934.15
21955.5
1975.94
20964
2012.32
1846.44
1806.52
558.091
1670.08
404.895
1577.72
281.485
1527.7
163.795
1519.5
41.8812
1560.95
-111.682
1650.37
-261.999
1768.02
-349.541
1893.87
-373.543
2011.49
-345.26
2107.03
-272.573
2167.3
-161.705
2185.19
-39.8381
2130.63
147.058
2000.8
322.414
1806.92
448.326
1650.93
346.886
1792.47
-376.008
2312.95
-1224.98
2516.75
-794.139
1591.49
957.251
228.626
3839.88
-1301
6944.83
-3297.66
6637.61
-4427.6
2699
-4519.82
29.4327
-4409.68
-177.057
-4272.41
-288.049
-4161.7
-362.933
-4085.94
-321.929
-3993.1
-331.075
-3883.14
-323.115
-3768.32
-359.493
-3638.64
-449.202
-3472.09
-572.486
-3257.96
-720.626
-2994.32
-888.319
-2680.11
-1065.96
-2318.7
-1234.42
-1917.96
-1376.52
-1486.57
-1480.65
-1028.44
-1547.27
-520.936
-1576.46
46.2018
-1484.55
705.454
-1319.89
1084.58
-1127.61
1177.37
-1647.74
1525.39
-2899.04
2164.36
-3102.74
3102.08
-2548.16
4161.27
-1714.5
4717.39
-627.784
4878.22
-270.74
5157.68
-760.718
5558.64
-1169.34
5986.59
-1350.06
6347.77
-1275.16
6588.64
-997.675
6745.45
-761.373
6917.07
-776.813
7192.58
-1047.28
7607.13
-1392.79
8050.11
-1409.95
8384.54
-1023.62
8595.66
-568.21
8748.75
-307.216
8891.31
-233.629
9038.07
-260.716
9207.14
-385.431
9428.4
-616.11
9724.26
-903.573
10098.6
-1177.06
10541.9
-1393.66
11037.8
-1540.06
11570.8
-1630.93
12137.5
-1712.37
12749
-1836.14
13424.5
-2031.42
14184.9
-2302.96
15047.7
-2636.03
16021.5
-2997.01
17102.1
-3341.37
18272.1
-3627.03
19503.8
-3821.99
20761.1
-3900.52
21999.2
-3835.11
23159.5
-3586.67
24168.3
-3111.33
24939.2
-2379.98
25388.3
-1400.97
25490.1
-343.876
25280.4
626.563
24823.2
1425.61
24183.7
2014.56
23418.5
2416.22
22571.1
2674.66
21670.6
2834.63
20746.4
2900.15
19796.7
2962.05
2722.89
1774.22
746.772
1635.2
543.924
1543.7
372.994
1497.82
209.698
1495.18
44.5589
1540.85
-157.326
1631.63
-352.756
1748.29
-466.189
1872.16
-497.395
1988.3
-461.375
2083.63
-367.883
2144.27
-222.316
2160.6
-56.1458
2094.98
212.691
1943.82
473.592
1710.5
681.662
1507.29
550.102
1275.43
-144.126
494.841
-444.36
-390.892
91.6086
-657.196
1223.57
-860.256
4042.95
-1621.21
7705.79
-3142.99
8159.41
-4325.68
3881.69
-4582.31
286.066
-4483.8
-275.553
-4289.96
-481.886
-4131.12
-521.763
-4062.09
-390.952
-4002.64
-390.516
-3897.07
-428.677
-3775.51
-481.04
-3652.84
-571.861
-3499.51
-725.802
-3298.43
-921.696
-3051.03
-1135.71
-2760.1
-1356.88
-2432.01
-1562.5
-2076.1
-1732.42
-1698.9
-1857.85
-1300.14
-1946.01
-864.795
-2011.8
-341.52
-2007.82
205.431
-1866.83
604.968
-1527.14
783.238
-1825.99
890.303
-3006.1
1268.95
-3481.38
1929.89
-3209.1
2742.88
-2527.48
3548.78
-1433.68
4141.58
-863.526
4569.09
-1188.22
5011.07
-1611.32
5452.12
-1791.11
5808.68
-1631.71
6015.55
-1204.54
6111.88
-857.697
6211.61
-876.536
6416.43
-1252.1
6788.37
-1764.73
7207.48
-1829.05
7517.48
-1333.62
7713.24
-763.968
7875.03
-469.002
8048.8
-407.402
8236.61
-448.523
8441.76
-590.578
8682.21
-856.559
8975.01
-1196.37
9324.43
-1526.49
9724.45
-1793.67
10163.1
-1978.7
10629
-2096.83
11121.3
-2204.71
11651.2
-2366
12235.1
-2615.33
12893.1
-2960.97
13648.6
-3391.5
14520.7
-3869.11
15513.6
-4334.29
16612.9
-4726.29
17789.6
-4998.75
19005.5
-5116.37
20213.5
-5043.14
21352.2
-4725.33
22343.7
-4102.89
23092.4
-3128.61
23506.7
-1815.27
23562.7
-399.89
23319.9
869.382
22869.1
1876.42
22274.8
2608.85
21582.2
3108.78
20819.6
3437.26
20002.2
3652.08
19148.6
3753.68
18252.2
3858.49
3561.01
1742.41
938.904
1600.9
685.44
1510.18
463.733
1467.68
252.217
1469.15
43.1216
1516.37
-204.526
1604.86
-441.222
1717.34
-578.659
1837.5
-617.537
1951.35
-575.199
2045.54
-462.06
2105.12
-281.867
2118.56
-69.5716
2040.73
290.54
1869.81
644.519
1593.52
957.972
1073.6
1070.03
112.481
817.006
-991.833
659.964
-1651.47
751.258
-1811.12
1383.22
-1803.43
4035.27
-2095.89
7998.25
-3065.49
9129.01
-4153.32
4969.53
-4599.7
732.45
-4592.61
-282.631
-4384.31
-690.183
-4146.07
-759.997
-4034.08
-502.931
-4000.72
-423.871
-3913.16
-516.231
-3784.04
-610.148
-3662.16
-693.729
-3519.76
-868.201
-3331
-1110.44
-3099.05
-1367.66
-2830.44
-1625.48
-2534.14
-1858.79
-2220.72
-2045.83
-1895.7
-2182.86
-1556.75
-2284.96
-1195.74
-2372.79
-795.831
-2407.72
-381.989
-2280.66
29.8355
-1938.95
351.819
-2147.96
521.787
-3176.06
777.314
-3736.89
1213.16
-3644.94
1873.28
-3187.58
2721.08
-2281.48
3459.99
-1602.42
3999.68
-1727.9
4499.48
-2111.11
4959.09
-2250.72
5311.07
-1983.67
5481.91
-1375.38
5513.51
-889.292
5537.03
-900.049
5668.46
-1383.54
6010.41
-2106.67
6424.52
-2243.16
6718.4
-1627.51
6890.27
-935.827
7039.27
-618.01
7217.77
-585.892
7420.2
-650.955
7636.38
-806.755
7874.64
-1094.82
8148.11
-1469.84
8458.06
-1836.44
8796.54
-2132.15
9153.05
-2335.21
9520.18
-2463.95
9902.15
-2586.69
10315.7
-2779.55
10785.2
-3084.84
11343.2
-3518.92
12025.7
-4074.06
12855
-4698.42
13826.3
-5305.54
14912.7
-5812.67
16078.5
-6164.61
17285.2
-6323.03
18488.3
-6246.26
19625.5
-5862.51
20613.7
-5091.14
21338.4
-3853.32
21691.6
-2168.39
21636.5
-344.868
21257.2
1248.71
20696.2
2437.42
20047.3
3257.77
19368
3788.04
18677.4
4127.89
17964.1
4365.36
17216.5
4501.33
16406.7
4668.27
4343.18
1707.28
1136.23
1563.63
829.093
1473.82
553.562
1433.78
292.283
1437.44
39.4985
1483.84
-250.907
1568.96
-526.32
1678.56
-688.242
1797.16
-736.114
1909.84
-687.864
2003.46
-555.659
2063.6
-341.983
2078.28
-84.2295
1993.95
374.891
1811.9
826.585
1507.69
1262.19
951.473
1626.26
-29.5905
1798.08
-1127.57
1757.95
-1919.94
1543.64
-2334.94
1798.23
-2413.17
4113.51
-2455.23
8040.32
-2971.57
9645.36
-3880.5
5878.46
-4490.36
1342.32
-4654.67
-118.312
-4520.18
-824.67
-4232.15
-1048.02
-4028.48
-706.589
-3987.79
-464.55
-3929.54
-574.477
-3800.05
-739.622
-3674.91
-818.864
-3542.57
-1000.53
-3367.74
-1285.25
-3152.81
-1582.58
-2907.54
-1870.74
-2642.29
-2124.03
-2367.81
-2320.3
-2089.13
-2461.53
-1803.32
-2570.76
-1506.15
-2669.95
-1192.31
-2721.56
-860.544
-2612.42
-473.409
-2326.08
-111.93
-2509.42
106.241
-3394.23
342.791
-3973.43
687.913
-3990.07
1202.35
-3702.01
1974.54
-3053.67
2789.88
-2417.75
3433.31
-2371.32
3985.57
-2663.37
4477.46
-2742.6
4840.13
-2346.34
4979.09
-1514.34
4936.33
-846.521
4866.04
-829.753
4898.81
-1416.31
5196.98
-2404.84
5605.08
-2651.26
5890.58
-1913.01
6044.5
-1089.74
6173.75
-747.253
6337.66
-749.8
6532.2
-845.498
6742.37
-1016.92
6973.33
-1325.78
7234.13
-1730.64
7519.76
-2122.07
7819.72
-2432.11
8125.59
-2641.09
8433.08
-2771.44
8752.21
-2905.82
9111.13
-3138.48
9548.16
-3521.86
10103.1
-4073.88
10803.4
-4774.32
11648.8
-5543.79
12614.7
-6271.49
13670.1
-6868.05
14788.8
-7283.33
15946.8
-7481.08
17112.7
-7412.08
18228.5
-6978.38
19210
-6072.62
19919
-4562.3
20229.3
-2478.73
20072.8
-188.302
19526.7
1794.75
18766.5
3197.64
17921.7
4102.59
17099.4
4610.35
16355.2
4872.07
15674.9
5045.7
15011.7
5164.54
14301.6
5378.31
5053.48
1678.17
1342.96
1528.07
979.198
1436.34
645.312
1396.79
331.854
1401.14
35.1734
1446.77
-296.515
1531.06
-610.59
1640.71
-797.877
1758.29
-853.68
1869.51
-799.06
1965.18
-651.311
2033.01
-409.795
2060.15
-111.352
1982.05
453.005
1802.79
1005.86
1496.32
1568.66
985.414
2137.17
141.329
2642.18
-875.25
2774.54
-1761.62
2430.01
-2379.02
2415.63
-2605.43
4339.93
-2576.45
8011.34
-2797.4
9866.31
-3511.04
6592.11
-4231.52
2062.8
-4613.92
264.088
-4640.85
-797.731
-4366.47
-1322.39
-4058.11
-1014.94
-3971.82
-550.829
-3944.91
-601.385
-3827.37
-857.149
-3696.8
-949.432
-3572.58
-1124.74
-3413.92
-1443.91
-3217.95
-1778.54
-2996.83
-2091.86
-2761.38
-2359.46
-2521.92
-2559.75
-2282.99
-2700.46
-2041.68
-2812.06
-1795.41
-2916.21
-1540.85
-2976.11
-1262.06
-2891.21
-909.88
-2678.25
-554.02
-2865.27
-316.639
-3631.61
-87.7721
-4202.29
228.368
-4306.2
664.265
-4137.9
1335.7
-3725.11
2161.83
-3243.87
2878.46
-3087.95
3469.92
-3254.82
3994.66
-3267.35
4374.38
-2726.05
4483.55
-1623.51
4356
-718.967
4161.91
-635.661
4023.73
-1278.12
4191.54
-2572.64
4528.79
-2988.51
4790.11
-2174.33
4936.99
-1236.62
5057.06
-867.329
5221.29
-914.026
5436.57
-1060.78
5673.15
-1253.5
5922.72
-1575.35
6194.76
-2002.67
6492.78
-2420.09
6813.6
-2752.92
7149.66
-2977.16
7490.74
-3112.51
7842.42
-3257.5
8235.16
-3531.22
8709.08
-3995.77
9294.93
-4659.73
10001.8
-5481.14
10815.5
-6357.49
11712.4
-7168.48
12674.4
-7829.98
13691.4
-8300.41
14754.4
-8543.99
15843.6
-8501.32
16906.8
-8041.55
17862.4
-7028.28
18547.8
-5247.67
18828.1
-2758.99
18605
34.8046
17955.8
2443.94
17063.5
4089.94
16034.7
5131.36
15003.9
5641.16
14092.1
5783.88
13328.7
5809.02
12665.4
5827.92
12013.7
6029.93
5701.36
1653.03
1557.55
1495.92
1136.31
1400.63
740.622
1360.18
372.329
1364.7
30.6854
1410.98
-342.765
1496.75
-696.343
1606.06
-907.171
1720.71
-968.306
1833.49
-911.827
1941.43
-759.225
2030.56
-498.907
2083.83
-164.596
2023.78
513.069
1857.3
1172.35
1561.02
1864.96
1092.18
2606.01
380.338
3354.03
-511.962
3666.85
-1398.91
3316.97
-2126.21
3142.94
-2487.44
4701.17
-2481.48
8005.38
-2539.17
9924
-3067.74
7120.69
-3801.95
2797.02
-4373.61
835.751
-4633.78
-537.552
-4489.55
-1466.62
-4143.44
-1361.05
-3978.61
-715.646
-3957.76
-622.227
-3862.14
-952.759
-3729.62
-1081.94
-3610.97
-1243.38
-3469.77
-1585.11
-3294.95
-1953.35
-3098.16
-2288.63
-2890.33
-2567.29
-2681.6
-2768.48
-2476.32
-2905.73
-2271.88
-3016.49
-2065.9
-3122.18
-1853.86
-3188.15
-1613.13
-3131.94
-1297.88
-2993.49
-966.683
-3196.45
-727.628
-3870.66
-507.498
-4422.41
-213.811
-4599.89
188.976
-4540.68
778.377
-4314.51
1548.72
-4014.21
2308.46
-3847.68
2952.96
-3899.32
3510.33
-3824.71
3909.08
-3124.79
3981.98
-1696.41
3743.13
-480.113
3363.53
-256.059
2932.05
-846.633
2832.22
-2472.81
2989.74
-3146.03
3192.72
-2377.31
3320.64
-1364.53
3447.05
-993.743
3683.57
-1150.54
4003.48
-1380.7
4313.25
-1563.27
4601.16
-1863.25
4911.98
-2313.5
5265.86
-2773.97
5657.32
-3144.37
6073.61
-3393.44
6493.88
-3532.78
6913.57
-3677.19
7360.7
-3978.35
7872.91
-4507.97
8471.81
-5258.64
9158.66
-6167.99
9921.12
-7119.95
10743.9
-7991.26
11617.1
-8703.23
12538.5
-9221.81
13507.5
-9512.95
14515.4
-9509.22
15516.7
-9042.86
16435.8
-7947.39
17079
-5890.81
17297.4
-2977.44
16967.6
364.613
16225.4
3186.21
15286.7
5028.63
14185.1
6232.96
13019.2
6807.04
11944.6
6858.5
11045.6
6708
10306.2
6567.27
9645.46
6690.7
6319.27
1629.72
1779.32
1466.37
1299.66
1367.48
839.527
1325.73
414.106
1330.69
25.758
1379.05
-391.106
1466.03
-783.304
1571.94
-1013.07
1685.2
-1081.54
1811.31
-1037.92
1947.58
-895.48
2069.03
-620.339
2152.58
-248.129
2111.71
553.955
1959.26
1324.81
1679.78
2144.45
1255.98
3029.81
657.548
3952.47
-111.894
4436.29
-955.641
4160.72
-1724.97
3912.27
-2182.06
5158.26
-2236.3
8059.63
-2226.03
9913.73
-2601.34
7496.01
-3260.41
3456.1
-3970.4
1545.74
-4528.34
20.3891
-4606.43
-1388.51
-4279.82
-1687.66
-4015.26
-980.199
-3967.76
-669.723
-3899.58
-1020.93
-3773.52
-1207.99
-3659.19
-1357.7
-3534.96
-1709.33
-3382.71
-2105.59
-3210.14
-2461.19
-3027.52
-2749.9
-2845.46
-2950.53
-2668.7
-3082.47
-2495.05
-3190.14
-2321.52
-3295.7
-2141.69
-3367.98
-1931.04
-3342.57
-1651.54
-3272.98
-1351.86
-3496.12
-1121.29
-4101.23
-910.357
-4633.34
-637.163
-4873.08
-262.183
-4915.65
261.876
-4838.56
963.148
-4715.47
1738.06
-4622.59
2430.84
-4592.09
3017.52
-4411.39
3432.5
-3539.76
3452.12
-1716.03
3068.88
-96.8585
2488.02
324.797
1700.77
-59.3789
1230.49
-2002.53
1162.94
-3078.47
1437.72
-2652.1
1724.48
-1651.29
1935.52
-1204.78
2240.49
-1455.51
2610.88
-1751.08
2925.4
-1877.79
3222.93
-2160.78
3570.39
-2660.96
3957.57
-3161.15
4375.67
-3562.48
4830.04
-3847.82
5296.54
-3999.28
5761.12
-4141.77
6252.13
-4469.37
6801.26
-5057.1
7416.34
-5873.71
8092.99
-6844.65
8822.46
-7849.42
9593.36
-8762.15
10398.2
-9508.11
11239.4
-10062.9
12126.4
-10400
13066
-10448.8
14023.7
-10000.5
14930
-8853.77
15551.7
-6512.49
15690.5
-3116.2
15181.3
873.794
14281.2
4086.27
13288
6021.87
12178
7342.99
10979
8005.97
9824.62
8012.92
8822.66
7709.96
7992.43
7397.49
7278.19
7404.94
6941.85
1607.66
2007.61
1438.91
1468.42
1336.9
941.551
1293.98
457.049
1300.01
19.7678
1350.81
-441.882
1436.17
-868.642
1537.36
-1114.25
1658.83
-1203
1814.93
-1194.01
1989.44
-1069.97
2139.93
-770.812
2242.98
-351.161
2211.46
585.493
2069
1467.28
1810.49
2402.97
1433.19
3407.12
927.827
4457.84
270.241
5093.89
-503.606
4934.58
-1265.57
4674.25
-1779.72
5672.42
-1904.21
8184.13
-1890.62
9900.15
-2167.72
7773.1
-2716.53
4004.92
-3479.89
2309.11
-4260.33
800.834
-4595.37
-1053.46
-4397.95
-1885.08
-4074.32
-1303.82
-3982.48
-761.547
-3934.51
-1068.89
-3824.76
-1317.73
-3716.93
-1465.52
-3608.44
-1817.81
-3478.64
-2235.38
-3329.81
-2610
-3170.61
-2909.09
-3012.08
-3109.06
-2859.89
-3234.65
-2712.39
-3337.63
-2565.71
-3442.38
-2411.81
-3521.88
-2226.92
-3527.46
-1981.08
-3518.81
-1714.47
-3762.73
-1498.22
-4317.47
-1297.82
-4833.72
-1043.69
-5127.21
-695.924
-5263.41
-219.539
-5314.95
406.751
-5341.76
1145.25
-5361.08
1879.15
-5325.99
2511.82
-5044.06
2932.15
-3960.08
2855.41
-1639.29
2321.82
436.742
1602.14
1044.48
424.276
1118.49
-465.717
-1112.54
-887.796
-2656.39
-677.646
-2862.25
-2.43415
-2326.5
594.773
-1801.98
990.266
-1851
1393.61
-2154.43
1779.4
-2263.57
2128.68
-2510.06
2452.95
-2985.22
2762.89
-3471.09
3106.66
-3906.24
3524.8
-4265.96
3981.75
-4456.23
4452.2
-4612.22
4966.53
-4983.69
5539.39
-5629.97
6158.49
-6492.81
6816.72
-7502.88
7507.66
-8540.36
8219.64
-9474.13
8947.28
-10235.8
9701.13
-10816.8
10507.7
-11206.5
11394.3
-11335.5
12339.1
-10945.3
13273.7
-9788.31
13923.4
-7162.24
13995.1
-3187.91
13274.4
1594.48
12175.5
5185.2
11074.9
7122.45
9949.97
8467.95
8777.13
9178.81
7628.8
9161.25
6595.92
8742.83
5714.43
8278.99
4950.37
8169
7588.48
1583.26
2239.7
1411.53
1640.16
1307.85
1045.25
1264.38
500.541
1272.2
11.9806
1324.38
-494.051
1404.96
-949.202
1505.93
-1215.2
1650.94
-1347.99
1847.16
-1390.22
2052.95
-1275.75
2214.68
-932.527
2318.85
-455.316
2284.7
619.659
2149
1602.98
1913.28
2638.69
1579.27
3741.14
1150.67
4886.45
598.037
5646.53
-90.1065
5622.73
-816.79
5400.93
-1355.44
6211.08
-1540.61
8369.3
-1559.83
9919.37
-1802.02
8015.3
-2251.46
4454.36
-2936.14
2993.8
-3791.97
1656.67
-4420.37
-425.054
-4474.05
-1831.4
-4163.41
-1614.45
-4010.65
-914.307
-3963.95
-1115.58
-3878.31
-1403.36
-3783.35
-1560.47
-3690.01
-1911.15
-3581.16
-2344.23
-3454.7
-2736.46
-3317.54
-3046.24
-3180.36
-3246.23
-3049.96
-3365.04
-2925.27
-3462.31
-2801.5
-3566.14
-2669.6
-3653.77
-2507.86
-3689.19
-2293.4
-3733.26
-2059.13
-3996.99
-1860.5
-4516.1
-1672.47
-5021.74
-1436.95
-5362.73
-1116.45
-5583.91
-682.399
-5749
-119.389
-5904.76
569.117
-6049.59
1316.21
-6073.08
1985.58
-5713.43
2395.25
-4369.75
2152.94
-1396.98
1408.22
1181.47
235.422
2217.27
-1083.69
2437.62
-1355.97
-840.254
-1612
-2400.35
-1986.25
-2487.99
-2223.57
-2089.18
-2104.25
-1921.3
-1660.66
-2294.59
-845.141
-2969.95
116.546
-3225.26
821.243
-3214.76
1210.89
-3374.87
1514.55
-3774.75
1850.91
-4242.6
2244.25
-4659.29
2666.68
-4878.66
3107.57
-5053.11
3605.46
-5481.58
4162.33
-6186.84
4750.34
-7080.82
5361.39
-8113.93
5987.53
-9166.49
6614.12
-10100.7
7240.69
-10862.3
7892.42
-11468.5
8618.38
-11932.5
9462.25
-12179.3
10404.9
-11888
11363.1
-10746.5
12044.1
-7843.19
12035.4
-3179.28
11122.1
2507.84
9875.73
6431.54
8661.87
8336.31
7502.23
9627.59
6382.43
10298.6
5305.96
10237.7
4319.15
9729.64
3451.79
9146.35
2678.4
8942.39
8263.58
1558.94
2477.74
1383.93
1815.18
1279.27
1149.92
1235.91
543.927
1246.21
1.72087
1297.84
-545.663
1372.82
-1024.16
1484.12
-1326.48
1665.27
-1529.13
1896.46
-1621.38
2112.08
-1491.36
2263.49
-1083.92
2353.76
-545.561
2309.67
663.769
2179.37
1733.29
1965.29
2852.78
1669.36
4037.07
1303.6
5252.21
841.466
6108.67
241.295
6222.9
-429.785
6072.02
-963.344
6744.64
-1191.27
8597.23
-1256.97
9985.07
-1512.96
8271.3
-1897.17
4838.58
-2433.44
3530.07
-3360.34
2583.57
-4310.18
524.79
-4564.02
-1577.55
-4269.46
-1909
-4053.77
-1129.99
-3993.32
-1176.02
-3931.94
-1464.72
-3856.34
-1636.07
-3779.27
-1988.2
-3689.63
-2433.86
-3583.81
-2842.27
-3467.37
-3162.68
-3350.06
-3363.53
-3239.45
-3475.64
-3135.07
-3566.69
-3031.44
-3669.76
-2919.05
-3766.15
-2778.83
-3829.4
-2593.59
-3918.5
-2390.12
-4200.44
-2210.98
-4695.24
-2037.2
-5195.52
-1820.67
-5579.25
-1527.35
-5877.22
-1132.9
-6143.45
-624.048
-6413.6
-1.88714
-6671.75
712.686
-6787.65
1411.78
-6412.52
1809.72
-4767.69
1374.79
-962.048
239.089
2317.19
-972.422
3428.79
-1491.15
2956.36
-1166.77
-1164.63
-1300.1
-2267.01
-1617
-2171.09
-1834.28
-1871.9
-1923.45
-1832.12
-2028.66
-2189.38
-2172.99
-2825.61
-2142.87
-3255.37
-1750.89
-3606.73
-1096.86
-4028.9
-389.518
-4482.09
223.254
-4855.37
708.9
-5144.94
1165.54
-5335.29
1655.44
-5543.02
2175.45
-6001.59
2709.14
-6720.52
3240.43
-7612.11
3773.13
-8646.63
4305.75
-9699.1
4823.46
-10618.4
5332.47
-11371.3
5877.05
-12013.1
6525.18
-12580.6
7313.26
-12967.4
8200.98
-12775.7
9065.77
-11611.3
9670.71
-8448.13
9527.66
-3036.23
8471.81
3563.69
7222.6
7680.76
6013.2
9545.71
4856.72
10784.1
3816.01
11339.3
2846.99
11206.7
1961.13
10615.5
1200.12
9907.35
527.42
9615.1
8949.39
1534.65
2720.82
1356.66
1993.17
1251.27
1255.32
1208.64
586.569
1221.67
-11.2753
1270.28
-594.255
1342.59
-1096.45
1476.78
-1460.67
1696.14
-1748.48
1943.3
-1868.53
2144.28
-1692.33
2270.05
-1209.67
2339.73
-615.224
2283.53
719.979
2157.69
1859.14
1962.26
3048.22
1699.12
4300.21
1383.44
5567.9
992.739
6499.37
474.056
6741.59
-130.974
6677.05
-639.997
7253.67
-891.949
8849.19
-1001.43
10094.6
-1292.74
8562.61
-1649.98
5195.83
-2041.08
3921.17
-2960.01
3502.5
-4090.48
1655.26
-4551.1
-1116.91
-4371.81
-2088.28
-4117.16
-1384.64
-4030.36
-1262.81
-3986.03
-1509.04
-3932.4
-1689.69
-3874.11
-2046.49
-3803.18
-2504.78
-3716.77
-2928.67
-3619.9
-3259.54
-3521.39
-3462.03
-3429.04
-3567.98
-3343.05
-3652.67
-3257.55
-3755.25
-3163.09
-3860.61
-3043.3
-3949.19
-2885.36
-4076.43
-2711
-4374.8
-2552.46
-4853.78
-2394.77
-5353.2
-2198.14
-5775.88
-1932.19
-6143.17
-1575.47
-6500.17
-1115.49
-6873.59
-549.97
-7237.27
111.296
-7448.91
786.789
-7088.02
1159.73
-5140.62
570.684
-373.005
-620.025
3507.9
-1619.3
4428.07
-1963.05
3300.12
-1699.88
-1427.8
-1822.44
-2144.45
-2050.86
-1942.68
-2188.48
-1734.28
-2261.82
-1758.78
-2334.82
-2116.38
-2482.6
-2677.83
-2669.27
-3068.7
-2836.37
-3439.63
-2934.68
-3930.59
-2921.47
-4495.3
-2707.02
-5069.82
-2188.44
-5663.53
-1376.62
-6147.1
-455.784
-6463.86
346.206
-6803.57
984.224
-7358.54
1538.08
-8165.97
2044.25
-9152.8
2500.01
-10154.9
2907.22
-11025.6
3297.47
-11761.6
3736.21
-12451.8
4295.35
-13139.8
4976.2
-13648.3
5694.72
-13494.3
6256.38
-12172.9
6598.59
-8790.34
6331.23
-2768.87
5224.81
4670.11
4130.27
8775.3
3069.52
10606.5
2011.01
11842.6
1168.29
12182
452.945
11922.1
-328.051
11396.5
-1350.32
10929.6
-2572.35
10837.1
10105.8
1509.9
2968.17
1329.79
2173.28
1224.1
1361.03
1183
627.686
1198.17
-26.4024
1241.59
-637.652
1317.86
-1172.7
1483.99
-1626.79
1731.13
-1995.6
1970.16
-2107.55
2138.83
-1860.99
2233.44
-1304.26
2283.19
-664.95
2215.9
787.281
2093.84
1981.21
1913.24
3228.82
1676.55
4536.91
1399.89
5844.56
1064.56
6834.71
615.034
7191.12
72.5732
7219.52
-404.225
7730.47
-664.149
9109.12
-805.165
10235.6
-1131.81
8889.26
-1506.79
5570.81
-1828.76
4243.14
-2686.19
4359.94
-3838.89
2807.96
-4460
-495.791
-4441.4
-2106.88
-4203.1
-1622.93
-4083.65
-1382.25
-4041.46
-1551.22
-4008.49
-1722.66
-3971.55
-2083.41
-3920.27
-2556.06
-3852.88
-2996.06
-3774.87
-3337.54
-3694.32
-3542.58
-3619.16
-3643.13
-3550.25
-3721.57
-3481.56
-3823.94
-3404.01
-3938.15
-3303.87
-4049.33
-3171.62
-4208.66
-3024.81
-4521.6
-2887.6
-4990.99
-2747.69
-5493.11
-2572.13
-5951.43
-2334.01
-6381.28
-2013.97
-6820.2
-1599.62
-7287.94
-1085.98
-7750.9
-483.626
-8051.27
116.078
-7687.72
370.823
-5395.36
-186.183
184.004
-1415.67
4737.4
-2111.23
5123.64
-2407.4
3596.29
-2156.12
-1679.08
-2214.57
-2085.99
-2359.95
-1797.3
-2458.51
-1635.72
-2537.95
-1679.34
-2619.28
-2035.05
-2764.51
-2532.6
-2934.05
-2899.16
-3100.78
-3272.9
-3270.51
-3760.85
-3458.1
-4307.71
-3670.54
-4857.38
-3889
-5445.07
-3938.14
-6097.96
-3554.74
-6847.26
-2736.55
-7621.76
-1743.11
-8351.98
-818.107
-9090.97
-100.169
-9870.74
384.693
-10639.7
719.715
-11360.7
1015.68
-12057.6
1359.78
-12795.9
1811.92
-13591.9
2334.84
-14171.2
2800.94
-13960.4
2959.88
-12331.9
3161.79
-8992.26
2899.26
-2506.34
1754.58
5814.78
938.355
9591.52
223.168
11321.7
-849.501
12915.2
-2026.42
13359
-3238.59
13134.2
-4518.95
12676.9
-5850.15
12260.8
-6921.55
11908.5
11140.4
1485.02
3218.75
1303.54
2354.77
1197.91
1466.67
1159.12
666.494
1174.93
-42.1773
1212.43
-675.138
1301.22
-1261.48
1500.82
-1826.37
1756.85
-2251.62
1967.4
-2318.08
2096.61
-1990.19
2162.9
-1370.54
2197.76
-699.795
2122.15
862.907
2003.42
2099.94
1833.02
3399.23
1614.8
4755.13
1367.23
6092.14
1074.7
7127.24
681.092
7584.73
192.822
7707.79
-251.744
8175.04
-511.238
9368.61
-671.006
10395.4
-1029.61
9247.87
-1486.08
6027.28
-1856.96
4614.03
-2638.34
5141.32
-3743.11
3912.74
-4425.79
186.895
-4476.59
-2056.08
-4294.42
-1805.09
-4154.37
-1522.29
-4102.08
-1603.51
-4084.22
-1740.52
-4069.56
-2098.05
-4039.7
-2585.91
-3991.72
-3044.03
-3932.22
-3397.04
-3868.89
-3605.9
-3810.06
-3701.96
-3757.42
-3774.19
-3704.79
-3876.57
-3643.63
-3999.3
-3562.59
-4130.36
-3454.71
-4316.54
-3334.15
-4642.15
-3218.8
-5106.34
-3098.23
-5613.68
-2945
-6104.67
-2735.33
-6590.94
-2451.5
-7104.03
-2080.94
-7658.5
-1616.78
-8215.05
-1070.99
-8597.05
-546.85
-8211.86
-384.062
-5558.15
-862.725
662.667
-2166.39
6041.07
-2585.58
5542.83
-2813.29
3824.01
-2600.82
-1891.54
-2651.27
-2035.53
-2749.36
-1699.21
-2832.76
-1552.31
-2924.02
-1588.08
-3024.47
-1934.59
-3173.55
-2383.53
-3333.78
-2738.92
-3491.03
-3115.65
-3655.79
-3596.09
-3823.78
-4139.73
-3977
-4704.16
-4112.96
-5309.11
-4241.75
-5969.17
-4367.81
-6721.2
-4415.18
-7574.39
-4231.18
-8535.98
-3777.44
-9544.7
-3221.02
-10427.2
-2732.66
-11128.1
-2361.55
-11731.8
-2065.22
-12353.9
-1757.32
-13103.8
-1400.32
-13948.9
-1074.51
-14497
-974.068
-14060.8
-1255.19
-12050.8
-998.835
-9248.61
13.531
-3518.7
-505.076
6333.39
-2813.33
11899.8
-4626.6
13134.9
-5919.33
14208
-6777.15
14216.8
-7285.23
13642.3
-7625.2
13016.8
-7980.27
12615.9
-8475.67
12403.9
11928.7
1456.79
3467.36
1276.94
2534.62
1172.57
1571.06
1136.78
702.31
1150.88
-56.2365
1183.79
-708.033
1293.03
-1370.7
1519.37
-2052.69
1763.58
-2495.83
1933.9
-2488.39
2026.15
-2082.43
2071.98
-1416.35
2098.58
-726.375
2018.25
943.258
1901.85
2216.35
1736.01
3565.08
1528.4
4962.76
1301.44
6319.11
1042.42
7386.26
694.856
7932.3
253.064
8149.59
-163.32
8591.43
-421.131
9626.43
-592.511
10566.7
-985.935
9641.3
-1585.81
6627.16
-2096.26
5124.49
-2787.85
5832.91
-3743.9
4868.8
-4412.39
855.393
-4499.77
-1968.68
-4372.5
-1932.36
-4233.33
-1661.45
-4172.93
-1663.9
-4163.63
-1749.8
-4168.72
-2092.95
-4161.38
-2593.24
-4133.74
-3071.67
-4092.54
-3438.23
-4045.63
-3652.8
-4002.15
-3745.43
-3965.09
-3811.24
-3928.21
-3913.45
-3883.32
-4044.19
-3821.13
-4192.54
-3736.61
-4401.06
-3641.28
-4737.47
-3548.23
-5199.39
-3448.38
-5713.53
-3318.7
-6234.34
-3138.2
-6771.43
-2890.47
-7351.76
-2562.8
-7986.17
-2147.13
-8630.72
-1656.92
-9087.27
-1201.47
-8667.31
-1102.2
-5657.42
-1543.47
1103.94
-2787.8
7285.42
-3058.96
5813.99
-3182.61
3947.66
-3036.74
-2037.41
-3101.62
-1970.65
-3175.41
-1625.41
-3253.99
-1473.73
-3347.18
-1494.89
-3462.18
-1819.59
-3620.61
-2225.1
-3791.02
-2568.51
-3964
-2942.67
-4145.93
-3414.16
-4332.02
-3953.64
-4503.97
-4532.2
-4645.46
-5167.62
-4745.87
-5868.76
-4809.89
-6657.18
-4842.2
-7542.08
-4863.69
-8514.49
-4905.41
-9502.98
-4960.46
-10372.1
-5019.89
-11068.7
-5088.07
-11663.6
-5138.56
-12303.4
-5147.22
-13095.2
-5185.05
-13911.1
-5422.81
-14259.2
-6044.4
-13439.2
-7027.82
-11067.3
-8304.71
-7971.72
-9204.11
-2619.31
-8691.12
5820.4
-7923.09
11131.7
-8237.52
13449.4
-8492.45
14462.9
-8892.37
14616.7
-9297.52
14047.5
-9612.21
13331.5
-9851.14
12854.8
-10189.5
12742.3
12554.1
1426.99
3718.53
1248.74
2712.87
1146.75
1673.07
1114.18
734.893
1123.97
-65.9926
1156.31
-740.36
1291.36
-1505.74
1531.6
-2292.92
1747.15
-2711.37
1875.15
-2616.38
1939.63
-2146.89
1974.33
-1451.03
1998.53
-750.552
1916.59
1025.2
1800.84
2332.11
1634.73
3731.19
1432.08
5165.42
1218.77
6532.42
985.45
7619.58
677.061
8240.7
277.21
8549.44
-114.409
8983.06
-372.882
9884.91
-554.949
10748.8
-983.552
10069.9
-1741.15
7384.76
-2409.6
5792.94
-3004.66
6427.97
-3770.96
5635.1
-4401.41
1485.84
-4517.87
-1852.21
-4431.52
-2018.7
-4320.41
-1772.56
-4262.34
-1721.95
-4253.04
-1759.1
-4272.74
-2073.24
-4286.61
-2579.37
-4279.91
-3078.37
-4256.8
-3461.33
-4225.41
-3684.18
-4196.15
-3774.69
-4173.84
-3833.54
-4152.55
-3934.74
-4124.12
-4072.61
-4080.82
-4235.83
-4019
-4462.87
-3948.16
-4808.3
-3877.76
-5269.78
-3799.8
-5791.48
-3694.8
-6339.34
-3544.16
-6922.07
-3332.66
-7563.26
-3047.59
-8271.23
-2680.33
-8997.97
-2245.43
-9522.16
-1851.81
-9060.94
-1788.73
-5720.49
-2215.18
1530.39
-3191.28
8261.53
-3438.5
6061.21
-3531.76
4040.93
-3472.52
-2096.64
-3556.12
-1887.05
-3633.31
-1548.22
-3718.03
-1389.01
-3815.72
-1397.21
-3946.25
-1689.06
-4115.57
-2055.78
-4296.03
-2388.05
-4482.75
-2755.95
-4681.97
-3214.94
-4889.84
-3745.77
-5090.03
-4332.01
-5266.69
-4990.96
-5407.23
-5728.22
-5508.07
-6556.33
-5570.62
-7479.53
-5615.09
-8470.02
-5675.78
-9442.3
-5768.51
-10279.4
-5895.14
-10942
-6048.28
-11510.5
-6218.01
-12133.7
-6420.69
-12892.5
-6709.97
-13621.8
-7150.72
-13818.5
-7817.81
-12772.1
-8734.55
-10150.6
-10051.8
-6654.5
-11542.6
-1128.44
-11427.7
5705.46
-10855.9
10560
-10912.6
13506.1
-10931.1
14481.4
-11099.5
14785
-11273.1
14221.1
-11443.8
13502.3
-11703.4
13114.3
-12177.7
13216.6
13218.2
1395.74
3972.28
1218.54
2890.07
1119.2
1772.42
1088.96
765.155
1092.54
-69.5339
1130.62
-778.411
1292.83
-1667.93
1531.55
-2531.63
1708.84
-2888.64
1800.4
-2707.93
1849.32
-2195.8
1881.62
-1483.31
1907.46
-776.366
1824.89
1107.78
1708
2449.01
1539.79
3899.41
1339.1
5366.12
1133.43
6738.1
918.461
7834.55
643.973
8515.19
284.351
8909.07
-83.1493
9350.56
-344.289
10146.1
-538.694
10943.2
-990.36
10521.6
-1862.07
8256.48
-2654.76
6585.63
-3174.02
6947.23
-3776.04
6237.13
-4347.48
2057.29
-4498.73
-1700.95
-4468.99
-2048.44
-4410.15
-1831.38
-4374.47
-1757.63
-4361.1
-1772.46