/*--------------------------------*- C++ -*----------------------------------*\
| =========                 |                                                 |
| \\      /  F ield         | OpenFOAM: The Open Source CFD Toolbox           |
|  \\    /   O peration     | Version:  4.1                                   |
|   \\  /    A nd           | Web:      www.OpenFOAM.org                      |
|    \\/     M anipulation  |                                                 |
\*---------------------------------------------------------------------------*/
FoamFile
{
    version     2.0;
    format      ascii;
    class       volVectorField;
    location    "1900";
    object      U;
}
// * * * * * * * * * * * * * * * * * * * * * * * * * * * * * * * * * * * * * //

dimensions      [0 1 -1 0 0 0 0];

internalField   nonuniform List<vector> 
26785
(
(-1.23411e-14 0.106707 15.9064)
(-1.41388e-14 0.0796941 14.0408)
(-1.01088e-14 0.0612431 12.6522)
(-3.64816e-15 0.0448587 11.6566)
(-2.67679e-14 0.0272663 10.992)
(-9.31979e-14 0.00607808 10.7009)
(-8.19796e-14 -0.0127404 10.8143)
(-1.81514e-14 -0.0221269 11.1911)
(2.20541e-14 -0.0227197 11.6329)
(-1.37126e-13 -0.016392 12.0046)
(-2.22105e-13 -0.00435285 12.216)
(-1.25368e-13 0.0123564 12.1897)
(-7.91749e-14 0.0291802 11.8831)
(-5.14198e-14 0.0504359 11.2773)
(-3.49768e-14 0.0706269 10.3443)
(-2.3278e-14 0.0807383 9.08771)
(-1.53465e-14 0.0659447 7.63367)
(-5.88039e-15 0.0144545 6.63349)
(-4.07044e-14 -0.037147 6.85313)
(4.4247e-14 -0.03763 7.50414)
(2.55588e-14 -0.0180967 7.7226)
(-5.0094e-14 0.621996 7.17487)
(4.54512e-15 1.08685 -4.04214)
(2.70687e-15 0.666131 -18.2207)
(6.92106e-14 0.0926833 -21.7238)
(1.93129e-13 -0.0700376 -20.6233)
(2.01687e-13 -0.0122433 -20.4461)
(1.90656e-13 -0.0413001 -20.1393)
(1.56392e-13 -0.0747668 -19.4062)
(9.18995e-14 -0.0763159 -18.5971)
(1.74165e-13 -0.0695006 -17.777)
(1.80058e-13 -0.0603971 -17.1118)
(1.30049e-13 -0.0651199 -16.5282)
(1.08633e-13 -0.077784 -15.8728)
(1.03806e-13 -0.0898961 -15.1022)
(1.93225e-13 -0.104144 -14.2238)
(1.79638e-13 -0.123219 -13.205)
(1.89738e-13 -0.14431 -11.9996)
(1.70136e-13 -0.163792 -10.5886)
(1.83953e-13 -0.178589 -8.9844)
(8.08218e-14 -0.184579 -7.21717)
(-1.79094e-13 -0.175885 -5.33781)
(-2.94901e-13 -0.138873 -3.39097)
(-3.17413e-13 -0.0732747 -1.42157)
(-5.2692e-13 0.0890849 0.791535)
(-7.48659e-13 0.185373 1.87921)
(1.66496e-13 -0.445395 1.41167)
(-1.94884e-13 -1.41434 4.04462)
(-1.78947e-13 -1.43831 9.03211)
(3.5852e-13 -0.787613 10.7542)
(-2.47996e-13 -0.409731 11.4122)
(-1.69453e-13 -0.0713488 12.5712)
(-4.4665e-14 -0.0113332 12.7769)
(-2.2003e-14 -0.105752 13.5236)
(-5.34892e-15 -0.1907 14.6929)
(4.05887e-14 -0.249654 16.1468)
(2.96955e-14 -0.259788 17.7707)
(-1.61851e-14 -0.207506 19.2737)
(4.13988e-14 -0.133318 20.4295)
(5.17013e-14 -0.0923382 21.2911)
(2.3895e-14 -0.100448 22.1216)
(1.55014e-14 -0.125146 23.1352)
(-3.02952e-14 -0.113166 24.2414)
(-3.74253e-14 -0.0539252 25.105)
(-1.0512e-13 0.0131964 25.5038)
(-7.9408e-14 0.051572 25.5187)
(-8.50495e-14 0.055971 25.3936)
(-8.25522e-14 0.0366822 25.2944)
(-6.79919e-14 0.000207571 25.3146)
(-3.27828e-14 -0.046528 25.5312)
(2.05738e-14 -0.092365 25.9882)
(4.90266e-15 -0.127444 26.6685)
(4.64809e-14 -0.148186 27.5072)
(5.1842e-14 -0.156267 28.4292)
(4.98153e-14 -0.157027 29.3777)
(3.32667e-14 -0.158393 30.3329)
(1.03624e-14 -0.16737 31.3188)
(-2.38997e-14 -0.187085 32.3889)
(-3.05425e-14 -0.217007 33.6019)
(-3.77993e-14 -0.254135 35.0037)
(-4.7436e-14 -0.293868 36.6171)
(-4.18225e-14 -0.331135 38.4355)
(-4.85658e-14 -0.361396 40.4238)
(-4.56508e-14 -0.380864 42.5253)
(-5.23809e-14 -0.385946 44.6672)
(-7.51816e-14 -0.372657 46.7614)
(-7.56934e-14 -0.336411 48.7022)
(-7.63914e-14 -0.273173 50.3613)
(-6.73344e-14 -0.182824 51.6025)
(-7.51451e-14 -0.0695305 52.2912)
(-6.61719e-14 0.0445185 52.3693)
(-6.09208e-14 0.149043 51.8762)
(-5.47573e-14 0.243926 50.8891)
(-4.67861e-14 0.319248 49.4712)
(-3.89166e-14 0.371929 47.7527)
(-2.32274e-14 0.405376 45.8265)
(-2.24864e-14 0.424785 43.8687)
(-1.91849e-14 0.431658 41.6829)
(-1.70284e-14 0.437895 40.041)
(-1.12054e-14 0.405956 36.9823)
(-1.85958e-15 0.278924 15.7233)
(-6.54076e-14 0.213808 13.8692)
(-8.67356e-14 0.166971 12.5002)
(-2.03716e-14 0.122543 11.5422)
(-3.56164e-14 0.073482 10.9253)
(-1.31973e-13 0.0135674 10.6674)
(-3.42475e-14 -0.0403285 10.7889)
(6.35614e-14 -0.0674195 11.1642)
(-1.39875e-15 -0.0693687 11.6087)
(-1.56691e-14 -0.0512971 11.9934)
(1.03512e-14 -0.0165437 12.2311)
(1.3248e-14 0.0326057 12.2471)
(1.67452e-14 0.083619 11.9874)
(1.67408e-14 0.150265 11.4102)
(-2.40225e-14 0.216588 10.4533)
(-2.61937e-14 0.255029 9.08369)
(1.42101e-14 0.203992 7.41237)
(2.81259e-14 0.0196099 6.26743)
(1.07414e-14 -0.0757794 6.54543)
(-1.58755e-13 0.073653 7.15749)
(2.18364e-13 0.204728 7.58219)
(-2.67828e-14 1.29308 4.58609)
(-4.13355e-14 3.01515 -2.29342)
(5.40426e-14 2.39621 -15.2848)
(9.70817e-14 0.559184 -21.1552)
(1.32426e-13 -0.201211 -20.9292)
(1.46225e-13 -0.0899982 -20.3634)
(9.95076e-14 -0.135458 -19.8269)
(5.02024e-14 -0.213346 -19.1459)
(6.61299e-14 -0.222649 -18.4468)
(2.78548e-14 -0.20808 -17.6899)
(-6.76612e-14 -0.176368 -17.0168)
(-3.53705e-14 -0.178553 -16.4445)
(-3.47271e-14 -0.204944 -15.8541)
(2.04939e-14 -0.232424 -15.1696)
(5.18529e-14 -0.266925 -14.3791)
(5.86682e-14 -0.315045 -13.4665)
(9.84428e-14 -0.370269 -12.3979)
(1.26015e-13 -0.422781 -11.1561)
(1.19335e-13 -0.463661 -9.7577)
(1.09439e-13 -0.482324 -8.23384)
(5.26654e-14 -0.470658 -6.6286)
(3.74384e-14 -0.416395 -4.94445)
(3.81028e-14 -0.315903 -3.13142)
(2.93748e-14 -0.151192 -1.63487)
(8.19038e-14 -0.198625 0.237144)
(1.82156e-13 -0.965746 2.59811)
(-5.82906e-14 -1.92259 3.45999)
(-6.81859e-15 -1.94155 3.74802)
(2.64525e-13 -1.13747 5.58102)
(3.37394e-13 -0.393349 9.23471)
(-7.39693e-14 -0.0386152 11.0624)
(6.92408e-14 -0.0464121 11.3713)
(3.24604e-14 -0.304663 12.2328)
(-4.69806e-14 -0.496906 13.4268)
(2.85506e-14 -0.600128 14.7292)
(8.60678e-14 -0.61141 16.0024)
(3.1392e-14 -0.532303 17.0967)
(6.44424e-15 -0.439796 17.9281)
(3.47171e-14 -0.418355 18.5888)
(2.52568e-14 -0.479377 19.3047)
(3.66514e-14 -0.549281 20.263)
(-3.44812e-14 -0.504831 21.3735)
(-4.06969e-14 -0.332199 22.3101)
(-6.93501e-15 -0.144806 22.8539)
(-2.55754e-14 -0.0351084 23.0744)
(-4.95853e-16 -0.00429754 23.1782)
(3.06486e-14 -0.021013 23.2744)
(5.24792e-14 -0.0805003 23.4124)
(5.40622e-15 -0.177945 23.6622)
(4.7817e-14 -0.287948 24.0918)
(1.09618e-13 -0.382013 24.7184)
(4.60213e-14 -0.446557 25.5086)
(2.66216e-14 -0.481702 26.4095)
(-3.62126e-14 -0.498242 27.3732)
(3.71877e-14 -0.515867 28.3775)
(2.69106e-14 -0.553123 29.4363)
(2.54533e-14 -0.618583 30.5902)
(-1.11333e-14 -0.711269 31.8867)
(-4.11721e-14 -0.823367 33.3649)
(-1.68515e-15 -0.941728 35.0441)
(-1.01903e-14 -1.05091 36.9151)
(-4.41178e-14 -1.13684 38.941)
(-3.29252e-14 -1.18834 41.0641)
(-1.5734e-14 -1.19557 43.2132)
(-1.95418e-14 -1.14792 45.3045)
(-3.18104e-14 -1.03263 47.2379)
(-4.71987e-14 -0.838148 48.8902)
(-5.81757e-14 -0.56355 50.1295)
(-4.60284e-14 -0.221444 50.8168)
(-4.44235e-14 0.1232 50.9042)
(-4.37389e-14 0.43876 50.4193)
(-4.5727e-14 0.721498 49.457)
(-3.33926e-14 0.943822 48.0708)
(-3.66004e-14 1.09887 46.3966)
(-2.77333e-14 1.19746 44.5246)
(-2.08481e-14 1.25549 42.6278)
(-1.90623e-14 1.27581 40.5038)
(-1.48267e-14 1.29647 38.9192)
(-1.01347e-14 1.20213 35.9359)
(-8.73672e-15 0.462797 15.4933)
(-8.22266e-15 0.358565 13.6221)
(-5.42596e-14 0.276999 12.2527)
(2.83902e-15 0.199697 11.3258)
(3.1172e-14 0.117371 10.7559)
(-7.05677e-14 0.0196792 10.5406)
(-2.77523e-14 -0.0679346 10.6869)
(3.40725e-14 -0.112668 11.0766)
(2.71113e-14 -0.116993 11.5324)
(3.68941e-14 -0.0888224 11.9313)
(4.39236e-14 -0.0335032 12.1914)
(4.88171e-14 0.0463772 12.2413)
(5.00357e-14 0.132513 12.0208)
(4.3655e-14 0.250441 11.4633)
(9.82625e-15 0.373466 10.4759)
(-2.01194e-14 0.453247 9.01294)
(5.42604e-14 0.363932 7.13985)
(-2.65856e-14 0.0127301 5.77598)
(-1.90876e-13 -0.386502 5.99999)
(1.03966e-13 -0.456961 7.27781)
(1.84388e-13 0.343228 6.50137)
(1.20483e-13 2.27904 0.520343)
(-8.0277e-14 4.52469 -3.00066)
(3.77201e-14 4.02381 -12.8597)
(6.22535e-14 1.2871 -20.2698)
(9.23984e-15 -0.229531 -21.1187)
(4.38183e-14 -0.214053 -20.5431)
(4.92579e-14 -0.250524 -19.6909)
(3.4692e-14 -0.330098 -18.9443)
(4.52037e-14 -0.342636 -18.3342)
(3.63364e-14 -0.338418 -17.7138)
(-8.53263e-14 -0.297046 -17.0572)
(-1.41063e-13 -0.294861 -16.4716)
(-5.17768e-14 -0.333274 -15.9293)
(3.34381e-14 -0.38204 -15.3183)
(4.20692e-14 -0.44295 -14.5931)
(6.29922e-14 -0.522037 -13.7477)
(6.6475e-14 -0.6116 -12.7577)
(8.36959e-14 -0.697163 -11.6105)
(1.07699e-13 -0.764944 -10.3285)
(1.3999e-13 -0.800722 -8.94639)
(1.52833e-13 -0.797728 -7.50142)
(1.89676e-13 -0.752277 -5.99908)
(2.50007e-13 -0.640082 -4.27754)
(3.14506e-13 -0.538443 -2.24781)
(3.57106e-13 -0.732036 0.300227)
(3.67553e-13 -1.44577 0.507029)
(2.95371e-13 -2.25409 0.784342)
(1.58414e-13 -2.23805 2.10422)
(5.98096e-14 -1.83273 3.42689)
(2.49734e-13 -1.21957 5.84391)
(-6.45504e-14 -0.567676 8.7925)
(1.30365e-13 -0.412014 9.74325)
(1.2809e-13 -0.666273 10.8526)
(4.9475e-14 -0.88188 12.128)
(6.46178e-14 -0.968996 13.4525)
(-1.21182e-13 -0.914992 14.6725)
(-1.64984e-13 -0.737879 15.6369)
(-1.0302e-13 -0.567039 16.2898)
(-5.78035e-14 -0.538954 16.7535)
(2.71985e-14 -0.665815 17.2758)
(3.14928e-14 -0.820791 18.082)
(2.65563e-14 -0.784399 19.1037)
(4.13216e-14 -0.527684 19.998)
(2.92984e-14 -0.245593 20.548)
(-1.80387e-14 -0.0880143 20.8465)
(2.08306e-14 -0.0460065 21.0869)
(4.63716e-14 -0.0657821 21.348)
(2.52744e-14 -0.146647 21.6329)
(4.08778e-14 -0.290336 21.98)
(3.82501e-14 -0.461861 22.4536)
(1.33744e-14 -0.616967 23.0828)
(-2.97089e-14 -0.732332 23.8511)
(-7.77207e-14 -0.804201 24.7214)
(-5.5171e-14 -0.845635 25.656)
(-4.70488e-14 -0.885597 26.6358)
(-5.88161e-14 -0.952948 27.6728)
(-5.76823e-14 -1.06201 28.8018)
(-4.33955e-14 -1.21288 30.0613)
(-2.83385e-14 -1.39441 31.4831)
(-1.87585e-14 -1.5856 33.0847)
(-1.63266e-14 -1.761 34.8618)
(-2.18148e-15 -1.89777 36.7859)
(-4.59404e-16 -1.9783 38.8084)
(7.24111e-15 -1.98737 40.866)
(-1.74757e-15 -1.90814 42.8809)
(-1.45418e-14 -1.71929 44.7575)
(-2.54892e-14 -1.40108 46.373)
(-3.5815e-14 -0.949638 47.5936)
(-3.95377e-14 -0.385347 48.2674)
(-5.70449e-14 0.186154 48.3571)
(-5.30409e-14 0.710945 47.8841)
(-4.76364e-14 1.17589 46.9657)
(-4.24952e-14 1.53789 45.6384)
(-4.29141e-14 1.78894 44.0429)
(-4.31691e-14 1.94778 42.2627)
(-3.50165e-14 2.04168 40.4632)
(-3.09929e-14 2.07415 38.4345)
(-2.80642e-14 2.11092 36.9318)
(-2.38895e-14 1.95808 34.0579)
(-1.32135e-14 0.648705 15.242)
(3.10825e-14 0.50432 13.35)
(9.91929e-14 0.383389 11.9834)
(1.39809e-13 0.269937 11.0892)
(8.50803e-14 0.15332 10.5643)
(3.67664e-14 0.019114 10.3914)
(4.72643e-14 -0.100294 10.5585)
(-4.18753e-14 -0.161222 10.9508)
(-4.98379e-14 -0.167087 11.3992)
(-4.72669e-15 -0.128712 11.7918)
(1.49018e-14 -0.053261 12.053)
(2.09904e-14 0.0573681 12.1117)
(2.3914e-14 0.180113 11.9013)
(5.36796e-14 0.35419 11.3305)
(2.24236e-14 0.539486 10.2938)
(-5.20205e-14 0.669304 8.74509)
(2.28248e-14 0.54474 6.6887)
(-4.78745e-14 -0.0436104 4.94301)
(-1.15514e-13 -0.462217 2.09503)
(3.86701e-14 0.0882923 -3.29252)
(7.68186e-14 1.06546 -4.39108)
(5.71417e-14 2.84992 -4.83534)
(-5.17671e-14 5.24829 -5.85745)
(5.37758e-14 5.28793 -12.0011)
(9.55182e-14 2.14888 -19.058)
(1.15231e-13 -0.148673 -21.1284)
(1.08005e-13 -0.359345 -20.9233)
(1.00755e-13 -0.415201 -19.8633)
(1.1929e-13 -0.460275 -18.8713)
(1.67293e-13 -0.441525 -18.1608)
(1.84259e-13 -0.45008 -17.6926)
(3.89325e-14 -0.416707 -17.1073)
(-5.39636e-14 -0.404962 -16.4873)
(-5.72342e-14 -0.441345 -15.9511)
(9.48775e-14 -0.505794 -15.3819)
(1.59644e-13 -0.590843 -14.6904)
(1.35923e-13 -0.697726 -13.8774)
(1.56994e-13 -0.818746 -12.9292)
(2.98991e-14 -0.934796 -11.8449)
(3.33657e-14 -1.02717 -10.656)
(1.8551e-13 -1.08039 -9.40239)
(5.19519e-14 -1.09123 -8.10689)
(-3.01362e-14 -1.07139 -6.76088)
(1.31386e-13 -1.00977 -5.25671)
(2.91681e-13 -0.952526 -3.33954)
(4.08096e-13 -1.01408 -1.27923)
(5.06711e-13 -1.57713 -0.507284)
(3.98069e-13 -2.41791 -0.375182)
(1.09306e-13 -2.63538 0.243389)
(3.89965e-14 -2.30022 1.53239)
(1.56985e-13 -1.78325 3.42677)
(-5.63493e-14 -1.14917 5.8976)
(8.48152e-14 -0.872371 7.89308)
(5.49763e-14 -1.05078 9.35658)
(-1.79977e-14 -1.26782 10.7496)
(4.00337e-14 -1.34944 12.109)
(-1.08142e-14 -1.23977 13.3313)
(-1.04559e-13 -0.97333 14.2496)
(-1.11321e-13 -0.739542 14.7963)
(-8.94437e-14 -0.717893 15.1096)
(6.69104e-14 -0.910856 15.467)
(3.79697e-14 -1.15291 16.1548)
(7.29489e-15 -1.12572 17.132)
(-4.35776e-14 -0.786764 18.0043)
(-5.45529e-14 -0.425486 18.5304)
(-3.86209e-14 -0.2398 18.8398)
(2.1005e-14 -0.195227 19.1529)
(-8.82972e-14 -0.211364 19.5296)
(-8.50634e-14 -0.294595 19.9287)
(-6.07529e-14 -0.459258 20.3552)
(-3.07792e-14 -0.667036 20.8604)
(-5.89811e-14 -0.862363 21.4732)
(-1.26807e-13 -1.01419 22.1832)
(-9.09752e-14 -1.11439 22.9632)
(-5.407e-14 -1.17659 23.7858)
(-4.92513e-14 -1.23728 24.6396)
(-6.78224e-14 -1.3336 25.5403)
(-6.67326e-14 -1.48319 26.5193)
(-7.39038e-15 -1.68591 27.6088)
(2.24343e-14 -1.92889 28.8441)
(3.95876e-14 -2.18713 30.2609)
(4.73618e-14 -2.42825 31.8769)
(4.71487e-14 -2.62075 33.6751)
(5.05497e-14 -2.73882 35.6079)
(3.14497e-14 -2.75972 37.6075)
(1.37692e-14 -2.65916 39.5922)
(-2.59e-14 -2.40589 41.4614)
(-2.83344e-14 -1.97142 43.0828)
(-3.78215e-14 -1.34706 44.3103)
(-3.29094e-14 -0.562514 44.964)
(-6.27769e-14 0.230605 45.0215)
(-4.08316e-14 0.953308 44.5107)
(-3.50683e-14 1.58418 43.6077)
(-4.404e-14 2.07332 42.3424)
(-4.78028e-14 2.41509 40.8655)
(-5.12072e-14 2.63432 39.2394)
(-4.22975e-14 2.76707 37.6036)
(-4.93031e-14 2.81675 35.7248)
(-4.29455e-14 2.8752 34.34)
(-3.84358e-14 2.67029 31.5918)
(-7.05458e-15 0.819845 14.997)
(1.86473e-14 0.64043 13.0816)
(3.24144e-14 0.484086 11.7194)
(9.86846e-14 0.33541 10.8547)
(1.13767e-13 0.185247 10.3671)
(-3.15254e-14 0.0165616 10.2241)
(8.88796e-14 -0.132308 10.3905)
(1.24112e-13 -0.208104 10.7625)
(3.131e-14 -0.215615 11.1899)
(1.27125e-14 -0.168205 11.5724)
(1.34727e-14 -0.073914 11.8328)
(3.69355e-14 0.0672852 11.8952)
(4.35964e-14 0.227804 11.6896)
(4.12986e-14 0.461928 11.0968)
(9.3164e-15 0.713139 10.0101)
(-1.23683e-13 0.904645 8.38298)
(-2.37245e-14 0.853473 6.1291)
(5.81908e-14 0.465942 2.20809)
(-8.61408e-14 0.314978 -3.81061)
(-1.64962e-14 0.377016 -8.2387)
(1.33044e-15 0.906876 -9.6649)
(4.61346e-15 2.74235 -9.37838)
(-5.40423e-15 5.46187 -9.27758)
(8.23962e-14 6.15199 -12.2397)
(7.87808e-14 3.00946 -17.6646)
(4.6231e-14 0.0963966 -20.719)
(2.51443e-14 -0.464064 -21.2441)
(-5.63774e-15 -0.622263 -20.3027)
(-4.9408e-14 -0.640372 -19.0573)
(-5.09114e-15 -0.542264 -18.0286)
(-1.35147e-14 -0.536412 -17.6032)
(-4.71091e-14 -0.534369 -17.1542)
(-7.96846e-14 -0.527734 -16.5186)
(-3.27432e-14 -0.557801 -15.9622)
(1.04161e-14 -0.639076 -15.4225)
(-9.54571e-15 -0.753029 -14.7603)
(-2.54294e-14 -0.889115 -13.9761)
(-3.35302e-14 -1.0393 -13.0662)
(-4.41774e-14 -1.18083 -12.042)
(-5.20002e-14 -1.29161 -10.9408)
(-6.74527e-14 -1.35837 -9.80629)
(-9.56435e-14 -1.38465 -8.64991)
(-1.1568e-14 -1.39271 -7.45143)
(9.40948e-14 -1.38614 -6.13938)
(7.53815e-14 -1.36247 -4.58306)
(1.07594e-13 -1.39277 -2.89217)
(1.36521e-13 -1.83266 -1.81155)
(1.78174e-13 -2.56255 -1.30544)
(1.61711e-13 -2.84368 -0.701379)
(1.05506e-13 -2.69015 0.274367)
(9.76166e-14 -2.31301 1.74258)
(1.04029e-13 -1.74745 3.96692)
(2.6644e-14 -1.41765 6.20691)
(-3.4812e-14 -1.50441 7.90247)
(-4.02907e-14 -1.69524 9.45636)
(3.40791e-14 -1.74066 10.8743)
(2.40929e-14 -1.54212 12.0955)
(-7.16459e-14 -1.14426 12.9647)
(-1.78808e-14 -0.812085 13.3988)
(-8.29206e-14 -0.78339 13.548)
(4.8352e-14 -1.05032 13.7246)
(4.89829e-15 -1.41313 14.3028)
(-1.87546e-14 -1.41547 15.2783)
(-8.10053e-14 -0.986337 16.1685)
(-9.83361e-14 -0.543945 16.6688)
(-7.95098e-14 -0.348249 16.9437)
(-1.49558e-13 -0.326017 17.2699)
(-1.34891e-13 -0.357349 17.7058)
(-1.15538e-13 -0.45117 18.1645)
(-1.21983e-13 -0.634164 18.621)
(-1.03179e-13 -0.868485 19.1222)
(-1.16675e-13 -1.09131 19.6943)
(-1.50911e-13 -1.26649 20.3193)
(-1.10608e-13 -1.38342 20.9704)
(-1.13062e-13 -1.45757 21.6282)
(-9.60395e-14 -1.53266 22.2922)
(-3.37084e-14 -1.65175 22.9893)
(-9.77285e-15 -1.83423 23.7624)
(2.80918e-14 -2.08356 24.6618)
(6.92251e-14 -2.39243 25.7496)
(9.72078e-14 -2.73406 27.0796)
(1.02936e-13 -3.06312 28.6612)
(5.79099e-14 -3.33171 30.4529)
(2.8176e-14 -3.50245 32.3884)
(-9.91336e-15 -3.54571 34.3962)
(-3.2345e-14 -3.43118 36.3993)
(-3.36949e-14 -3.11687 38.3003)
(-3.58846e-14 -2.56408 39.9585)
(-3.63873e-14 -1.75441 41.2072)
(-4.28836e-14 -0.72998 41.8158)
(-3.20839e-14 0.302355 41.7703)
(-4.29914e-14 1.22166 41.0777)
(-4.19312e-14 1.98861 39.9936)
(-6.24519e-14 2.56329 38.596)
(-5.76804e-14 2.96081 37.1016)
(-5.72919e-14 3.22148 35.5765)
(-5.44538e-14 3.39114 34.1234)
(-5.26442e-14 3.46886 32.4525)
(-4.70364e-14 3.56681 31.2497)
(-4.39206e-14 3.32868 28.6837)
(-2.41717e-15 1.02123 14.7231)
(7.44546e-15 0.784732 12.7878)
(1.28745e-14 0.583933 11.4358)
(5.32844e-15 0.396816 10.5981)
(3.22709e-15 0.212627 10.1381)
(4.12647e-16 0.0115586 10.0102)
(7.70662e-14 -0.164301 10.1626)
(1.39744e-13 -0.254437 10.5175)
(9.03777e-14 -0.264658 10.9405)
(-2.25243e-15 -0.209274 11.3252)
(-2.78734e-14 -0.0964655 11.5878)
(-3.31774e-15 0.0759153 11.6584)
(6.92187e-15 0.275728 11.475)
(5.58737e-15 0.573937 10.8872)
(1.42015e-14 0.893554 9.78515)
(-5.02584e-14 1.15975 8.12834)
(5.70662e-15 1.2951 5.78535)
(6.74379e-15 1.1879 1.90381)
(2.00408e-14 0.976184 -4.15088)
(2.77994e-14 0.788105 -8.66024)
(1.21456e-15 0.97599 -11.3517)
(3.93093e-15 2.64683 -12.1518)
(3.16133e-14 5.5037 -11.7514)
(8.82188e-14 6.65586 -12.6441)
(6.62924e-14 3.76111 -16.1719)
(2.59591e-14 0.495142 -19.664)
(-3.95879e-14 -0.463273 -21.1576)
(-7.23038e-14 -0.830068 -20.7762)
(-5.2871e-14 -0.884418 -19.532)
(-3.47855e-14 -0.679634 -18.0838)
(-7.92959e-14 -0.606495 -17.4714)
(-5.84534e-14 -0.636756 -17.1733)
(-2.53694e-14 -0.651814 -16.5815)
(-6.13095e-14 -0.667264 -15.988)
(-5.68359e-14 -0.756684 -15.4676)
(-8.0492e-14 -0.898159 -14.8382)
(-1.01747e-13 -1.06127 -14.086)
(-1.3373e-13 -1.23681 -13.2193)
(-1.69192e-13 -1.39938 -12.2579)
(-2.2993e-13 -1.52402 -11.2407)
(-2.44893e-13 -1.60045 -10.212)
(-6.15635e-14 -1.63954 -9.17607)
(-2.84308e-14 -1.6696 -8.10655)
(-2.0309e-14 -1.69844 -6.95415)
(-6.36679e-15 -1.70657 -5.64319)
(3.58144e-14 -1.74235 -4.20723)
(1.03661e-13 -2.11469 -3.06363)
(1.43959e-13 -2.76121 -2.36599)
(1.75225e-13 -3.06938 -1.70183)
(1.93526e-13 -2.99515 -0.770174)
(9.38074e-14 -2.76307 0.462979)
(2.89573e-13 -2.34423 2.29037)
(3.78723e-14 -2.00326 4.53225)
(-1.77792e-14 -1.99738 6.46611)
(1.57704e-16 -2.13329 8.1333)
(-1.45154e-15 -2.13695 9.63978)
(-3.2556e-14 -1.859 10.909)
(-1.05728e-14 -1.32719 11.7608)
(1.24064e-15 -0.887484 12.0762)
(-3.06055e-14 -0.844698 12.0228)
(6.16025e-15 -1.18564 11.9606)
(-2.05698e-14 -1.70842 12.3752)
(4.95938e-15 -1.76899 13.3277)
(-6.66665e-14 -1.23647 14.2564)
(-6.63769e-14 -0.686034 14.7572)
(-1.88704e-13 -0.467516 14.9947)
(-1.4166e-13 -0.465208 15.3016)
(-1.16958e-13 -0.507705 15.7517)
(-5.76584e-14 -0.605051 16.2247)
(-1.16102e-13 -0.801857 16.6874)
(-7.34452e-14 -1.06127 17.192)
(-1.14585e-13 -1.30647 17.751)
(-1.59682e-13 -1.4937 18.3331)
(-1.33647e-13 -1.61299 18.9135)
(-3.93903e-14 -1.68525 19.4801)
(1.32523e-14 -1.76485 20.0394)
(-8.35189e-15 -1.90426 20.6353)
(-9.08844e-15 -2.12835 21.3376)
(-2.18706e-14 -2.44576 22.2209)
(-1.98421e-14 -2.84834 23.3466)
(-7.14593e-16 -3.29399 24.7327)
(1.41363e-15 -3.71628 26.3414)
(-1.85555e-14 -4.05513 28.1096)
(-4.7848e-14 -4.27156 29.9822)
(-3.38823e-15 -4.33579 31.916)
(-1.94024e-14 -4.21245 33.8626)
(-2.36166e-14 -3.84383 35.7412)
(-5.13632e-15 -3.17574 37.409)
(1.13235e-15 -2.16793 38.6804)
(5.77391e-15 -0.877471 39.2583)
(-1.19539e-14 0.438106 39.1461)
(-4.97457e-15 1.59577 38.2685)
(4.72343e-15 2.50478 36.8988)
(-1.40879e-14 3.13241 35.1631)
(-3.63409e-14 3.52545 33.3845)
(-4.72715e-14 3.76245 31.7153)
(-5.04777e-14 3.92288 30.283)
(-4.86255e-14 4.01211 28.7545)
(-4.72822e-14 4.15674 27.7353)
(-4.5214e-14 3.9132 25.4028)
(-1.53907e-15 1.20328 14.5177)
(2.89662e-16 0.924962 12.5208)
(-2.06886e-14 0.681145 11.1522)
(-3.66508e-14 0.454732 10.3249)
(-1.16202e-14 0.236815 9.88083)
(7.11371e-17 0.00555046 9.76116)
(4.61972e-14 -0.196182 9.90965)
(6.42399e-14 -0.30151 10.2724)
(8.55397e-15 -0.31498 10.7039)
(-5.81979e-14 -0.251235 11.0842)
(-9.49104e-15 -0.120019 11.3511)
(2.81552e-14 0.0826613 11.4579)
(-1.62545e-14 0.321926 11.3514)
(-8.13926e-15 0.687743 10.8334)
(1.42324e-14 1.07632 9.78137)
(-2.37945e-14 1.42634 8.15609)
(1.44309e-14 1.72431 5.84574)
(1.15062e-13 1.90877 2.48873)
(4.0497e-14 1.78178 -2.72095)
(1.53184e-14 1.42675 -7.38386)
(-3.76995e-14 1.35624 -10.9169)
(3.07542e-15 2.74102 -12.8076)
(2.60765e-14 5.47137 -12.7372)
(6.33747e-14 6.88017 -12.6009)
(5.49433e-14 4.37037 -14.5818)
(2.09656e-14 1.01998 -17.9912)
(-1.08923e-13 -0.281798 -20.4795)
(-1.4316e-13 -0.962884 -21.0403)
(-1.66756e-13 -1.17417 -20.1254)
(-1.26008e-13 -0.897475 -18.3444)
(-1.32635e-14 -0.682746 -17.3592)
(-1.26865e-14 -0.715157 -17.156)
(-2.31739e-14 -0.778611 -16.6808)
(-6.21056e-14 -0.786842 -16.0508)
(-7.1093e-14 -0.87709 -15.5308)
(-6.17067e-14 -1.04649 -14.9411)
(-1.05819e-13 -1.23685 -14.2262)
(-1.28883e-13 -1.43464 -13.4083)
(-1.46268e-13 -1.614 -12.5115)
(-1.79091e-13 -1.74842 -11.5739)
(-1.18623e-13 -1.83145 -10.6375)
(-8.22924e-14 -1.88156 -9.70239)
(-2.14511e-14 -1.93022 -8.74002)
(-2.59005e-14 -1.98493 -7.71495)
(-4.9689e-14 -2.0203 -6.57601)
(-2.90701e-14 -2.07685 -5.3227)
(4.9589e-15 -2.40822 -4.2094)
(1.00167e-14 -2.97689 -3.42352)
(1.51998e-13 -3.29947 -2.7219)
(1.21221e-13 -3.29673 -1.8138)
(1.3294e-14 -3.14947 -0.63377)
(2.45613e-13 -2.88889 0.900874)
(4.93217e-14 -2.6084 2.97191)
(-1.67725e-14 -2.53092 5.06144)
(1.63726e-14 -2.60937 6.8051)
(3.75496e-14 -2.5671 8.38798)
(-8.47579e-16 -2.19257 9.72038)
(6.82998e-14 -1.48575 10.5747)
(6.28155e-14 -0.899172 10.7719)
(5.23909e-14 -0.822469 10.4741)
(6.04805e-14 -1.24364 10.0573)
(7.20511e-15 -1.97293 10.0958)
(-2.59575e-14 -2.13656 10.814)
(-1.7473e-13 -1.53756 11.7094)
(-1.62118e-13 -0.897902 12.242)
(-1.22449e-13 -0.644825 12.473)
(9.67648e-14 -0.639389 12.787)
(-4.2834e-14 -0.677285 13.3127)
(-1.67765e-13 -0.767593 13.8787)
(-1.79268e-13 -0.97159 14.4154)
(-1.81566e-13 -1.24996 14.9714)
(-1.78685e-13 -1.51269 15.5746)
(-2.23681e-13 -1.71196 16.2118)
(-1.51545e-13 -1.83709 16.8675)
(-6.25805e-14 -1.90962 17.5213)
(-7.42416e-14 -1.99504 18.1644)
(-8.43285e-14 -2.16049 18.8388)
(-1.05045e-13 -2.43743 19.6241)
(-9.3952e-14 -2.8318 20.5909)
(-6.31134e-14 -3.32288 21.7699)
(-4.35379e-14 -3.8505 23.142)
(-3.18535e-14 -4.33771 24.6592)
(-5.16275e-14 -4.72598 26.2783)
(-5.51401e-14 -4.98172 27.9768)
(-5.88247e-15 -5.07445 29.7422)
(1.19191e-14 -4.95976 31.5523)
(2.4369e-14 -4.55718 33.3419)
(3.30912e-14 -3.79312 34.971)
(3.8276e-14 -2.58966 36.2374)
(3.44674e-14 -1.029 36.7765)
(2.6043e-14 0.60175 36.6394)
(2.00874e-14 2.04612 35.6665)
(3.16617e-14 3.1354 34.1351)
(1.46653e-14 3.84198 32.1466)
(1.01207e-14 4.21741 30.0397)
(-1.76301e-14 4.37237 28.0636)
(-3.19161e-14 4.44879 26.4489)
(-3.91698e-14 4.49217 24.8966)
(-4.18349e-14 4.65349 23.9616)
(-4.48952e-14 4.41623 21.8372)
(1.37798e-14 1.39585 14.3447)
(1.03462e-14 1.07014 12.2861)
(4.72879e-14 0.778557 10.8885)
(1.07571e-13 0.510871 10.0578)
(7.12369e-14 0.259025 9.6219)
(3.75501e-14 -0.00183134 9.51127)
(7.91632e-14 -0.229821 9.67473)
(2.37798e-14 -0.350255 10.0563)
(-8.15804e-15 -0.365393 10.4791)
(-1.37338e-14 -0.293481 10.8475)
(-3.15218e-14 -0.147207 11.1619)
(-2.24355e-14 0.0815593 11.3788)
(-5.33685e-15 0.360219 11.4275)
(8.31746e-15 0.797948 11.0426)
(1.63852e-14 1.25688 10.089)
(1.26417e-14 1.6958 8.52661)
(1.2678e-14 2.12672 6.2971)
(1.2675e-13 2.53622 3.33036)
(2.19297e-14 2.56852 -0.964185)
(-1.8386e-14 2.12215 -5.44924)
(-4.32233e-14 1.87066 -9.31713)
(2.11697e-14 2.95928 -11.9849)
(1.87698e-14 5.43642 -12.4761)
(2.89216e-14 6.94739 -11.9925)
(2.50036e-14 4.84592 -12.9203)
(2.86943e-15 1.61172 -15.8499)
(-7.05018e-14 0.0982562 -18.921)
(-1.26882e-13 -0.948683 -20.5738)
(-2.47803e-13 -1.44063 -20.4595)
(-1.79968e-13 -1.18656 -18.8105)
(-8.24939e-14 -0.792791 -17.4202)
(-2.33197e-14 -0.769001 -17.1173)
(-1.63233e-14 -0.895029 -16.7889)
(-1.70228e-14 -0.909748 -16.1559)
(-1.33216e-14 -0.990406 -15.6192)
(-4.83084e-14 -1.1821 -15.0697)
(-1.18274e-13 -1.39888 -14.4002)
(-1.08554e-13 -1.61632 -13.6368)
(-1.08359e-13 -1.8096 -12.8032)
(-1.39136e-13 -1.95145 -11.9383)
(-1.59903e-13 -2.03935 -11.0809)
(-1.4389e-13 -2.09873 -10.23)
(-5.29532e-14 -2.16255 -9.35684)
(-3.99939e-14 -2.23705 -8.43449)
(-5.17428e-14 -2.29701 -7.42375)
(-5.49304e-14 -2.37998 -6.31089)
(-6.43489e-14 -2.68905 -5.26206)
(-2.83978e-14 -3.19647 -4.44909)
(2.035e-14 -3.52572 -3.72811)
(-7.20919e-14 -3.58986 -2.85073)
(-4.63751e-14 -3.52764 -1.72124)
(-1.07874e-15 -3.3789 -0.304074)
(5.85947e-14 -3.19791 1.52892)
(-1.09896e-14 -3.10135 3.59968)
(3.31801e-14 -3.10632 5.47376)
(5.66854e-14 -3.00648 7.12388)
(1.83769e-14 -2.53332 8.52486)
(2.50625e-14 -1.63385 9.38477)
(4.00321e-14 -0.87607 9.43682)
(-4.8481e-14 -0.714354 8.81233)
(-2.56364e-14 -1.1013 7.82696)
(-8.77913e-14 -2.01754 7.13835)
(-3.68934e-14 -2.34664 7.29165)
(1.34474e-14 -1.6761 8.04658)
(-6.2223e-15 -0.956339 8.61815)
(-3.31876e-14 -0.758604 8.79601)
(-1.56908e-13 -0.860286 9.24773)
(-2.29606e-13 -0.968486 10.0758)
(-2.81503e-13 -1.07706 10.8952)
(-2.94635e-13 -1.26619 11.5605)
(-2.50911e-13 -1.52824 12.2086)
(-2.58117e-13 -1.79099 12.9372)
(-2.2588e-13 -1.99889 13.7311)
(-1.98268e-13 -2.12828 14.5663)
(-1.24571e-13 -2.19561 15.4074)
(-2.98069e-14 -2.27852 16.219)
(-1.0491e-13 -2.46161 17.0305)
(-1.10155e-13 -2.78066 17.9231)
(-7.27267e-14 -3.23408 18.9569)
(-6.02993e-14 -3.78871 20.1409)
(-2.42063e-14 -4.37325 21.4512)
(-8.06112e-15 -4.90769 22.856)
(-1.53299e-14 -5.33726 24.3316)
(1.93876e-14 -5.63246 25.871)
(2.40707e-14 -5.76095 27.4765)
(3.25292e-14 -5.66902 29.1468)
(3.15371e-14 -5.2496 30.8342)
(3.59839e-14 -4.40845 32.4091)
(3.91094e-14 -3.01026 33.644)
(2.33746e-14 -1.18368 34.1023)
(2.33228e-14 0.780483 33.8682)
(3.14974e-14 2.52547 32.7657)
(2.42323e-14 3.79552 31.144)
(1.9858e-14 4.61891 29.0957)
(6.6003e-16 5.01707 26.8411)
(-1.08841e-14 5.08824 24.6288)
(-2.55013e-14 5.03671 22.7843)
(-3.32588e-14 4.9765 21.0945)
(-4.24633e-14 5.10339 20.1249)
(-4.34703e-14 4.85672 18.1171)
(2.84373e-14 1.59852 14.1834)
(1.55183e-14 1.22254 12.0702)
(6.57343e-14 0.878274 10.6455)
(1.07996e-13 0.566472 9.80792)
(1.03121e-13 0.279416 9.3765)
(8.75993e-14 -0.0114662 9.28096)
(1.09071e-13 -0.265533 9.47199)
(6.4627e-14 -0.398775 9.85499)
(-6.93361e-15 -0.414735 10.2466)
(-1.27846e-14 -0.340008 10.6438)
(-6.44927e-16 -0.186604 11.1033)
(-1.16591e-14 0.0635105 11.5153)
(2.39328e-15 0.383539 11.7512)
(8.25155e-15 0.901107 11.5005)
(1.31912e-14 1.43225 10.6375)
(3.03026e-14 1.96112 9.1368)
(8.30392e-15 2.50396 7.02562)
(-4.30407e-15 3.06217 4.39819)
(-2.49328e-14 3.23978 0.849213)
(3.14807e-14 2.80758 -3.30869)
(-1.89885e-14 2.46047 -7.21989)
(5.21604e-14 3.28478 -10.3369)
(4.32271e-14 5.46239 -11.3766)
(-4.4474e-15 6.95945 -10.941)
(2.87206e-14 5.2044 -11.2725)
(2.79376e-14 2.18885 -13.5579)
(-8.34959e-14 0.642202 -16.6461)
(-2.41778e-13 -0.677997 -19.4574)
(-2.76388e-13 -1.5545 -20.6616)
(-2.76441e-13 -1.49857 -19.4202)
(-1.77417e-13 -0.969624 -17.6727)
(-5.38819e-14 -0.821467 -17.0745)
(-2.47264e-14 -0.996128 -16.8845)
(-2.52667e-14 -1.03757 -16.2977)
(1.58533e-14 -1.1059 -15.7416)
(-1.04301e-14 -1.31309 -15.2251)
(-9.80559e-14 -1.55509 -14.6069)
(-9.03e-14 -1.79125 -13.9027)
(-1.02895e-13 -1.99682 -13.1298)
(-9.7148e-14 -2.14433 -12.3298)
(-8.764e-14 -2.23574 -11.5398)
(-1.31227e-13 -2.30305 -10.7599)
(-1.16273e-13 -2.37995 -9.96252)
(-8.74894e-14 -2.47122 -9.12524)
(-8.92498e-14 -2.55401 -8.21564)
(-5.0085e-14 -2.6638 -7.21641)
(-7.20683e-14 -2.96108 -6.2421)
(-5.29294e-14 -3.42136 -5.43638)
(-2.85884e-14 -3.75301 -4.71166)
(3.6593e-15 -3.87326 -3.86419)
(-1.32566e-14 -3.88577 -2.79143)
(-5.30972e-14 -3.83834 -1.46082)
(9.17164e-14 -3.75696 0.182964)
(-4.72816e-15 -3.68261 2.15578)
(3.84425e-14 -3.63335 4.12476)
(3.1762e-14 -3.47268 5.83658)
(-9.11341e-14 -2.88546 7.29869)
(-4.87258e-14 -1.75012 8.15114)
(-7.57062e-14 -0.764177 7.99529)
(-2.1668e-13 -0.339029 6.9999)
(-3.35596e-13 -0.469967 5.44717)
(-3.37792e-13 -1.79672 3.68121)
(7.93739e-15 -2.59348 3.047)
(-8.21185e-14 -2.01578 3.73109)
(3.07574e-14 -1.0381 4.85735)
(-1.74119e-14 -0.674251 5.27385)
(-1.36352e-13 -0.881224 5.93465)
(-2.5983e-13 -1.0714 7.00357)
(-2.69359e-13 -1.20057 7.91171)
(-2.28013e-13 -1.44859 8.58404)
(-2.26963e-13 -1.80769 9.33264)
(-1.7674e-13 -2.14032 10.1796)
(-1.41131e-13 -2.38163 11.0469)
(-1.53087e-13 -2.5203 11.966)
(-1.31818e-13 -2.57326 12.9245)
(-1.3826e-13 -2.63373 13.8532)
(-7.43437e-14 -2.8148 14.7735)
(-8.95988e-15 -3.1615 15.7709)
(-6.15523e-14 -3.6597 16.8792)
(-6.0255e-14 -4.26205 18.0826)
(-2.33141e-14 -4.88933 19.3622)
(2.62961e-14 -5.45961 20.699)
(2.8725e-14 -5.92104 22.0754)
(3.76052e-14 -6.24905 23.4908)
(4.74426e-14 -6.41259 24.9612)
(1.46397e-14 -6.35139 26.5135)
(5.03292e-15 -5.92867 28.1258)
(1.75928e-14 -5.02629 29.6909)
(1.94827e-14 -3.42303 30.9312)
(1.76171e-14 -1.31403 31.3411)
(1.33265e-14 1.02097 30.9236)
(2.58582e-14 3.05708 29.5777)
(2.32771e-14 4.44682 27.751)
(3.21884e-14 5.37931 25.6979)
(3.13266e-14 5.83962 23.4671)
(2.05199e-15 5.86135 21.1919)
(-1.2214e-14 5.68344 19.22)
(-2.18964e-14 5.49205 17.4037)
(-3.46937e-14 5.54298 16.351)
(-4.29712e-14 5.25764 14.3708)
(1.20911e-14 1.7925 14.0303)
(7.33364e-15 1.37367 11.8678)
(3.16514e-14 0.979111 10.4206)
(2.43033e-14 0.622348 9.57749)
(-4.81508e-14 0.298671 9.1499)
(2.60529e-14 -0.0232669 9.07753)
(6.44096e-15 -0.301838 9.29188)
(-5.97989e-14 -0.445312 9.64279)
(-4.04442e-14 -0.466399 10.0195)
(-2.0173e-14 -0.400195 10.5459)
(7.4758e-15 -0.247463 11.2442)
(3.5601e-14 0.0248778 11.8649)
(3.45122e-14 0.391743 12.2264)
(4.25819e-14 0.997774 12.0437)