/*--------------------------------*- C++ -*----------------------------------*\
| =========                 |                                                 |
| \\      /  F ield         | OpenFOAM: The Open Source CFD Toolbox           |
|  \\    /   O peration     | Version:  4.1                                   |
|   \\  /    A nd           | Web:      www.OpenFOAM.org                      |
|    \\/     M anipulation  |                                                 |
\*---------------------------------------------------------------------------*/
FoamFile
{
    version     2.0;
    format      ascii;
    class       volScalarField;
    location    "200";
    object      p;
}
// * * * * * * * * * * * * * * * * * * * * * * * * * * * * * * * * * * * * * //

dimensions      [0 2 -2 0 0 0 0];

internalField   nonuniform List<scalar> 
26785
(
-229.209
-234.545
-242.766
-252.257
-261.27
-270.468
-281.221
-293.466
-308.169
-326.359
-347.704
-370.487
-392.14
-411.615
-429.967
-446.92
-459.88
-469.015
-478.47
-488.708
-497.659
-514.613
-539.387
-560.526
-576.127
-589.506
-601.677
-613.932
-625.795
-636.725
-650.454
-671.994
-700.124
-732.636
-768.526
-806.703
-845.733
-884.017
-919.982
-952.251
-979.763
-1001.78
-1017.88
-1027.94
-1031.95
-1030.21
-1023.34
-1011.64
-994.987
-973.439
-947.834
-919.965
-890.617
-859.229
-825.716
-790.295
-753.107
-714.305
-674.05
-632.524
-590.087
-547.277
-504.817
-463.379
-423.739
-386.044
-349.494
-314.198
-280.65
-248.828
-219.22
-192.48
-168.971
-148.742
-131.602
-117.202
-105.119
-94.9277
-86.2367
-78.6996
-72.0235
-65.9802
-60.4025
-55.1766
-50.2165
-45.451
-40.8073
-36.2396
-31.7565
-27.3956
-23.2599
-19.4516
-15.9974
-12.8823
-10.1303
-7.58982
-5.48502
-3.15919
-2.68629
1.68969
-229.217
-234.536
-242.761
-252.252
-261.266
-270.456
-281.206
-293.443
-308.134
-326.314
-347.657
-370.452
-392.113
-411.562
-429.892
-446.856
-459.926
-469.074
-478.567
-488.743
-497.676
-514.913
-539.851
-560.696
-576.083
-589.425
-601.628
-613.822
-625.72
-636.774
-650.674
-672.295
-700.433
-732.937
-768.823
-807.007
-846.056
-884.362
-920.344
-952.623
-980.138
-1002.15
-1018.25
-1028.3
-1032.3
-1030.55
-1023.68
-1012.02
-995.38
-973.787
-948.09
-920.175
-890.838
-859.442
-825.912
-790.479
-753.282
-714.47
-674.196
-632.637
-590.153
-547.287
-504.771
-463.281
-423.63
-385.996
-349.49
-314.193
-280.641
-248.776
-219.116
-192.334
-168.795
-148.551
-131.412
-117.029
-104.973
-94.8132
-86.1533
-78.6433
-71.9885
-65.9603
-60.3932
-55.1759
-50.2242
-45.4677
-40.83
-36.2615
-31.7684
-27.3869
-23.2259
-19.3991
-15.9426
-12.8356
-10.0964
-7.55803
-5.44702
-3.11417
-2.64495
1.70269
-229.238
-234.511
-242.747
-252.237
-261.257
-270.432
-281.177
-293.402
-308.069
-326.232
-347.567
-370.381
-392.055
-411.465
-429.76
-446.742
-460.023
-469.17
-478.597
-488.753
-497.883
-515.628
-540.461
-560.903
-576.013
-589.236
-601.498
-613.667
-625.598
-636.851
-651.11
-672.869
-700.997
-733.48
-769.366
-807.581
-846.676
-885.025
-921.038
-953.332
-980.85
-1002.86
-1018.94
-1028.97
-1032.96
-1031.18
-1024.33
-1012.73
-996.122
-974.449
-948.597
-920.609
-891.283
-859.863
-826.295
-790.841
-753.63
-714.797
-674.482
-632.853
-590.279
-547.305
-504.678
-463.088
-423.411
-385.889
-349.468
-314.165
-280.594
-248.642
-218.884
-192.03
-168.448
-148.187
-131.057
-116.703
-104.692
-94.5846
-85.9781
-78.5179
-71.9048
-65.9092
-60.3671
-55.1707
-50.2391
-45.5025
-40.8783
-36.3098
-31.7992
-27.3795
-23.1677
-19.3018
-15.8452
-12.7549
-10.0315
-7.48748
-5.36293
-3.02043
-2.58933
1.71867
-229.27
-234.474
-242.725
-252.216
-261.245
-270.399
-281.137
-293.347
-307.983
-326.119
-347.44
-370.274
-391.97
-411.334
-429.589
-446.603
-460.174
-469.282
-478.382
-488.715
-498.349
-516.685
-541.235
-561.228
-575.999
-589.024
-601.323
-613.486
-625.484
-637.016
-651.712
-673.642
-701.762
-734.228
-770.136
-808.411
-847.579
-885.993
-922.054
-954.376
-981.905
-1003.91
-1019.97
-1029.98
-1033.95
-1032.13
-1025.3
-1013.77
-997.217
-975.427
-949.364
-921.285
-891.963
-860.493
-826.862
-791.368
-754.13
-715.261
-674.885
-633.157
-590.457
-547.332
-504.55
-462.815
-423.104
-385.742
-349.437
-314.118
-280.509
-248.426
-218.526
-191.572
-167.934
-147.655
-130.54
-116.227
-104.275
-94.2386
-85.7086
-78.3238
-71.7778
-65.8369
-60.3365
-55.1735
-50.2721
-45.5645
-40.9599
-36.3928
-31.8589
-27.3845
-23.0991
-19.1754
-15.7208
-12.6498
-9.94841
-7.40629
-5.28179
-2.94467
-2.55782
1.6761
-229.316
-234.42
-242.693
-252.184
-261.231
-270.357
-281.088
-293.281
-307.88
-325.98
-347.274
-370.124
-391.849
-411.167
-429.376
-446.439
-460.376
-469.39
-478.018
-488.622
-499.102
-517.97
-542.26
-561.674
-576.016
-588.823
-601.134
-613.299
-625.385
-637.25
-652.433
-674.573
-702.704
-735.167
-771.12
-809.483
-848.752
-887.253
-923.378
-955.74
-983.286
-1005.29
-1021.33
-1031.31
-1035.26
-1033.39
-1026.58
-1015.12
-998.637
-976.695
-950.379
-922.196
-892.864
-861.313
-827.589
-792.039
-754.764
-715.852
-675.405
-633.555
-590.698
-547.381
-504.397
-462.474
-422.718
-385.555
-349.391
-314.037
-280.362
-248.104
-218.026
-190.957
-167.267
-146.981
-129.895
-115.637
-103.756
-93.7987
-85.3536
-78.0548
-71.5899
-65.7209
-60.2807
-55.1687
-50.3135
-45.6487
-41.0739
-36.5131
-31.9522
-27.4077
-23.033
-19.0449
-15.6005
-12.5451
-9.86803
-7.33473
-5.22382
-2.9019
-2.55435
1.59211
-229.363
-234.35
-242.652
-252.144
-261.215
-270.307
-281.029
-293.206
-307.762
-325.817
-347.071
-369.924
-391.682
-410.961
-429.126
-446.272
-460.623
-469.445
-477.72
-488.524
-500.075
-519.469
-543.527
-562.183
-576.027
-588.636
-600.951
-613.125
-625.325
-637.564
-653.257
-675.639
-703.808
-736.287
-772.31
-810.788
-850.18
-888.79
-925
-957.42
-984.996
-1007.01
-1023.03
-1032.99
-1036.92
-1034.98
-1028.19
-1016.8
-1000.41
-978.267
-951.654
-923.352
-893.988
-862.323
-828.479
-792.858
-755.538
-716.576
-676.047
-634.051
-591.004
-547.458
-504.228
-462.075
-422.261
-385.333
-349.335
-313.927
-280.155
-247.675
-217.379
-190.18
-166.438
-146.156
-129.114
-114.928
-103.134
-93.2716
-84.9224
-77.718
-71.3441
-65.5607
-60.1967
-55.1518
-50.3589
-45.7524
-41.2203
-36.6725
-32.082
-27.4531
-22.9794
-18.9306
-15.4986
-12.4557
-9.8252
-7.31854
-5.23488
-2.92372
-2.5962
1.48087
-229.442
-234.259
-242.6
-252.092
-261.199
-270.25
-280.96
-293.121
-307.628
-325.632
-346.834
-369.674
-391.461
-410.71
-428.833
-446.12
-460.827
-469.434
-477.483
-488.638
-501.218
-521.074
-544.87
-562.693
-576.021
-588.471
-600.786
-612.976
-625.315
-637.953
-654.167
-676.821
-705.058
-737.576
-773.693
-812.31
-851.85
-890.592
-926.908
-959.402
-987.021
-1009.04
-1025.05
-1034.98
-1038.9
-1036.88
-1030.13
-1018.81
-1002.5
-980.127
-953.175
-924.749
-895.33
-863.52
-829.53
-793.824
-756.453
-717.434
-676.81
-634.642
-591.377
-547.567
-504.05
-461.622
-421.739
-385.078
-349.267
-313.778
-279.868
-247.116
-216.57
-189.231
-165.441
-145.174
-128.19
-114.091
-102.401
-92.6517
-84.4156
-77.3201
-71.0478
-65.3592
-60.082
-55.1174
-50.4026
-45.8709
-41.3956
-36.8719
-32.2524
-27.5271
-22.9552
-18.8763
-15.419
-12.4094
-9.85909
-7.37181
-5.31267
-2.99358
-2.6661
1.38996
-229.537
-234.145
-242.536
-252.029
-261.184
-270.187
-280.88
-293.025
-307.479
-325.426
-346.569
-369.378
-391.186
-410.411
-428.495
-445.978
-460.872
-469.434
-477.347
-489.019
-502.451
-522.641
-546.151
-563.183
-576.008
-588.337
-600.654
-612.865
-625.366
-638.417
-655.155
-678.109
-706.446
-739.029
-775.262
-814.04
-853.751
-892.649
-929.095
-961.684
-989.358
-1011.4
-1027.41
-1037.31
-1041.21
-1039.11
-1032.39
-1021.16
-1004.91
-982.279
-954.951
-926.394
-896.9
-864.91
-830.745
-794.939
-757.504
-718.421
-677.69
-635.325
-591.817
-547.714
-503.867
-461.122
-421.16
-384.801
-349.196
-313.599
-279.501
-246.421
-215.59
-188.101
-164.266
-144.026
-127.117
-113.127
-101.566
-91.9519
-83.8483
-76.8759
-70.7151
-65.1286
-59.9444
-55.0677
-50.4434
-46.0033
-41.6016
-37.1108
-32.4707
-27.6432
-22.9893
-18.9562
-15.3638
-12.4912
-10.017
-7.51401
-5.46496
-3.11033
-2.76668
1.32456
-229.627
-234.006
-242.457
-251.95
-261.17
-270.116
-280.789
-292.917
-307.313
-325.201
-346.277
-369.039
-390.854
-410.064
-428.11
-445.838
-460.676
-469.435
-477.479
-489.633
-503.732
-524.136
-547.368
-563.667
-576.008
-588.24
-600.566
-612.803
-625.483
-638.954
-656.215
-679.492
-707.962
-740.637
-777.006
-815.965
-855.869
-894.95
-931.549
-964.254
-992
-1014.08
-1030.08
-1039.96
-1043.85
-1041.66
-1034.98
-1023.82
-1007.63
-984.703
-956.976
-928.281
-898.694
-866.492
-832.122
-796.196
-758.686
-719.529
-678.684
-636.097
-592.32
-547.897
-503.682
-460.576
-420.529
-384.502
-349.124
-313.384
-279.039
-245.573
-214.431
-186.787
-162.917
-142.72
-125.911
-112.054
-100.644
-91.1838
-83.2268
-76.3884
-70.3476
-64.8699
-59.7848
-55.0042
-50.4848
-46.1552
-41.8427
-37.3931
-32.7326
-27.8023
-23.1127
-19.2118
-15.4127
-12.7794
-10.2938
-7.739
-5.67628
-3.25802
-2.89018
1.29675
-229.696
-233.84
-242.358
-251.853
-261.157
-270.037
-280.685
-292.799
-307.132
-324.956
-345.961
-368.66
-390.468
-409.667
-427.685
-445.7
-460.17
-469.349
-477.945
-490.411
-505.015
-525.559
-548.533
-564.151
-576.02
-588.189
-600.533
-612.798
-625.671
-639.561
-657.342
-680.964
-709.6
-742.39
-778.913
-818.071
-858.191
-897.48
-934.263
-967.108
-994.944
-1017.07
-1033.08
-1042.94
-1046.83
-1044.54
-1037.88
-1026.79
-1010.64
-987.395
-959.248
-930.413
-900.715
-868.268
-833.66
-797.595
-759.995
-720.755
-679.786
-636.947
-592.879
-548.115
-503.497
-459.985
-419.851
-384.183
-349.047
-313.123
-278.457
-244.547
-213.077
-185.289
-161.403
-141.273
-124.585
-110.884
-99.643
-90.3514
-82.5534
-75.8596
-69.9471
-64.5843
-59.6035
-54.9265
-50.5259
-46.3275
-42.12
-37.7218
-33.0346
-27.977
-23.3939
-19.5522
-15.7225
-13.2707
-10.6843
-8.04552
-5.93762
-3.43193
-3.03521
1.28489
-229.699
-233.651
-242.236
-251.736
-261.145
-269.95
-280.568
-292.671
-306.94
-324.696
-345.625
-368.243
-390.026
-409.221
-427.229
-445.558
-459.556
-469.067
-478.603
-491.246
-506.258
-526.89
-549.639
-564.625
-576.048
-588.185
-600.562
-612.858
-625.934
-640.24
-658.534
-682.521
-711.352
-744.277
-780.967
-820.34
-860.699
-900.228
-937.222
-970.234
-998.183
-1020.37
-1036.4
-1046.25
-1050.13
-1047.74
-1041.11
-1030.05
-1013.94
-990.351
-961.762
-932.784
-902.964
-870.237
-835.355
-799.131
-761.427
-722.094
-680.987
-637.86
-593.477
-548.363
-503.311
-459.351
-419.136
-383.865
-348.991
-312.826
-277.745
-243.324
-211.519
-183.606
-159.728
-139.689
-123.146
-109.62
-98.5627
-89.4524
-81.8257
-75.2884
-69.5136
-64.2718
-59.4001
-54.8344
-50.5676
-46.5213
-42.4368
-38.0979
-33.3842
-28.1977
-23.844
-19.7491
-16.3725
-13.8893
-11.1622
-8.41344
-6.23703
-3.6266
-3.1897
1.26772
-229.624
-233.437
-242.083
-251.597
-261.133
-269.854
-280.437
-292.536
-306.738
-324.421
-345.27
-367.791
-389.533
-408.724
-426.752
-445.406
-459.068
-468.696
-479.297
-492.052
-507.44
-528.154
-550.709
-565.095
-576.104
-588.232
-600.659
-612.991
-626.276
-640.989
-659.789
-684.159
-713.21
-746.285
-783.15
-822.754
-863.377
-903.176
-940.415
-973.623
-1001.71
-1023.98
-1040.04
-1049.89
-1053.77
-1051.29
-1044.67
-1033.61
-1017.52
-993.573
-964.522
-935.396
-905.442
-872.401
-837.206
-800.805
-762.979
-723.532
-682.269
-638.811
-594.098
-548.637
-503.123
-458.67
-418.388
-383.566
-348.975
-312.508
-276.906
-241.899
-209.755
-181.745
-157.904
-137.979
-121.599
-108.261
-97.3978
-88.4804
-81.0394
-74.6737
-69.048
-63.9337
-59.1756
-54.7289
-50.6093
-46.7343
-42.7859
-38.514
-33.7527
-28.5501
-24.5717
-19.9983
-17.2603
-14.5373
-11.6896
-8.8251
-6.56972
-3.84316
-3.35138
1.2359
-229.467
-233.195
-241.897
-251.436
-261.121
-269.751
-280.291
-292.395
-306.53
-324.134
-344.896
-367.308
-388.993
-408.178
-426.257
-445.243
-458.797
-468.477
-479.927
-492.803
-508.585
-529.386
-551.777
-565.582
-576.202
-588.336
-600.831
-613.204
-626.7
-641.809
-661.105
-685.872
-715.164
-748.397
-785.442
-825.291
-866.206
-906.31
-943.83
-977.265
-1005.51
-1027.89
-1044
-1053.86
-1057.75
-1055.17
-1048.57
-1037.47
-1021.38
-997.07
-967.538
-938.255
-908.156
-874.766
-839.216
-802.62
-764.642
-725.05
-683.611
-639.778
-594.731
-548.932
-502.925
-457.927
-417.608
-383.299
-348.993
-312.162
-275.935
-240.269
-207.778
-179.691
-155.907
-136.114
-119.914
-106.781
-96.1294
-87.4237
-80.19
-74.016
-68.5534
-63.5741
-58.9339
-54.6135
-50.651
-46.9621
-43.1572
-38.9407
-34.0918
-29.0061
-25.4827
-20.7987
-18.2303
-15.1989
-12.2444
-9.26657
-6.93054
-4.07874
-3.52658
1.20671
-229.222
-232.939
-241.675
-251.251
-261.106
-269.642
-280.129
-292.248
-306.316
-323.833
-344.504
-366.796
-388.411
-407.583
-425.743
-445.072
-458.734
-468.569
-480.473
-493.506
-509.718
-530.605
-552.864
-566.105
-576.352
-588.505
-601.081
-613.501
-627.21
-642.702
-662.483
-687.656
-717.2
-750.592
-787.82
-827.93
-869.168
-909.616
-947.454
-981.151
-1009.59
-1032.1
-1048.28
-1058.16
-1062.07
-1059.41
-1052.82
-1041.64
-1025.51
-1000.85
-970.825
-941.37
-911.117
-877.345
-841.393
-804.581
-766.404
-726.623
-684.991
-640.747
-595.37
-549.243
-502.7
-457.098
-416.793
-383.075
-349.037
-311.78
-274.817
-238.41
-205.563
-177.403
-153.688
-134.047
-118.056
-105.157
-94.7431
-86.277
-79.2794
-73.3211
-68.0366
-63.1996
-58.6813
-54.4924
-50.6923
-47.1984
-43.5294
-39.3237
-34.381
-29.6425
-26.087
-22.1282
-19.2427
-15.8937
-12.8193
-9.73114
-7.31582
-4.3321
-3.71704
1.18316
-228.93
-232.678
-241.416
-251.044
-261.088
-269.526
-279.949
-292.093
-306.093
-323.517
-344.092
-366.256
-387.793
-406.945
-425.208
-444.894
-458.846
-468.969
-480.968
-494.195
-510.845
-531.809
-553.98
-566.673
-576.559
-588.744
-601.415
-613.886
-627.808
-643.669
-663.923
-689.505
-719.302
-752.848
-790.261
-830.654
-872.25
-913.083
-951.279
-985.274
-1013.94
-1036.6
-1052.88
-1062.8
-1066.74
-1063.99
-1057.42
-1046.12
-1029.87
-1004.91
-974.406
-944.757
-914.343
-880.163
-843.76
-806.703
-768.249
-728.22
-686.394
-641.71
-596.005
-549.546
-502.421
-456.162
-415.945
-382.894
-349.067
-311.329
-273.514
-236.278
-203.075
-174.863
-151.239
-131.78
-116.031
-103.397
-93.2477
-85.051
-78.3197
-72.6008
-67.5074
-62.8191
-58.4254
-54.3694
-50.7328
-47.4368
-43.8708
-39.5989
-34.5631
-30.2716
-26.2621
-23.3702
-20.1278
-16.5843
-13.4027
-10.2126
-7.72032
-4.60069
-3.91692
1.15773
-228.616
-232.413
-241.122
-250.812
-261.064
-269.405
-279.753
-291.928
-305.859
-323.182
-343.662
-365.692
-387.144
-406.27
-424.653
-444.71
-459.113
-469.622
-481.419
-494.91
-511.964
-533.001
-555.133
-567.292
-576.825
-589.057
-601.835
-614.363
-628.496
-644.711
-665.423
-691.408
-721.451
-755.141
-792.745
-833.448
-875.44
-916.702
-955.298
-989.627
-1018.55
-1041.4
-1057.8
-1067.78
-1071.75
-1068.94
-1062.38
-1050.91
-1034.44
-1009.28
-978.307
-948.438
-917.861
-883.252
-846.346
-809.014
-770.176
-729.824
-687.817
-642.656
-596.61
-549.797
-502.045
-455.104
-415.125
-382.813
-349.061
-310.776
-271.986
-233.845
-200.314
-172.096
-148.606
-129.363
-113.881
-101.532
-91.6659
-83.7649
-77.328
-71.8687
-66.976
-62.4412
-58.1731
-54.2473
-50.7727
-47.6735
-44.1649
-39.7403
-34.7404
-30.9324
-26.5593
-24.2558
-20.8524
-17.2459
-13.9874
-10.7058
-8.13992
-4.8819
-4.1261
1.12994
-228.288
-232.145
-240.795
-250.554
-261.031
-269.276
-279.538
-291.751
-305.61
-322.83
-343.214
-365.106
-386.467
-405.565
-424.083
-444.524
-459.536
-470.508
-481.779
-495.659
-513.076
-534.184
-556.334
-567.964
-577.146
-589.447
-602.343
-614.933
-629.276
-645.829
-666.98
-693.352
-723.624
-757.45
-795.257
-836.302
-878.733
-920.469
-959.505
-994.207
-1023.42
-1046.49
-1063.04
-1073.1
-1077.1
-1074.26
-1067.69
-1056.01
-1039.22
-1013.93
-982.544
-952.435
-921.7
-886.639
-849.169
-811.525
-772.19
-731.45
-689.284
-643.577
-597.146
-549.928
-501.511
-453.917
-414.451
-382.977
-349.074
-310.147
-270.223
-231.112
-197.306
-169.148
-145.845
-126.848
-111.648
-99.5918
-90.0194
-82.4368
-76.3196
-71.1358
-66.4504
-62.0732
-57.9302
-54.1271
-50.8096
-47.9018
-44.4048
-39.7731
-34.961
-31.6834
-27.4285
-25.0748
-21.5367
-17.8928
-14.5746
-11.2084
-8.57132
-5.17442
-4.34321
1.1003
-227.951
-231.877
-240.439
-250.273
-260.988
-269.14
-279.304
-291.562
-305.347
-322.462
-342.751
-364.498
-385.764
-404.833
-423.499
-444.338
-460.122
-471.621
-481.979
-496.426
-514.183
-535.37
-557.589
-568.691
-577.52
-589.915
-602.939
-615.598
-630.147
-647.022
-668.589
-695.322
-725.798
-759.755
-797.79
-839.214
-882.128
-924.38
-963.899
-999.011
-1028.56
-1051.88
-1068.6
-1078.76
-1082.8
-1079.97
-1073.35
-1061.42
-1044.27
-1018.91
-987.126
-956.758
-925.878
-890.339
-852.23
-814.226
-774.272
-733.123
-690.836
-644.458
-597.559
-549.87
-500.766
-452.591
-414.052
-383.519
-349.147
-309.488
-268.23
-228.103
-194.085
-166.048
-142.989
-124.266
-109.356
-97.5935
-88.3211
-81.0796
-75.3051
-70.4087
-65.935
-61.7197
-57.6999
-54.0083
-50.8381
-48.105
-44.5723
-39.7532
-35.2212
-32.287
-28.6564
-25.9456
-22.2362
-18.5381
-15.1658
-11.7187
-9.01255
-5.47761
-4.56716
1.06692
-227.607
-231.604
-240.061
-249.97
-260.932
-269
-279.055
-291.36
-305.075
-322.081
-342.273
-363.868
-385.037
-404.08
-422.903
-444.145
-460.876
-472.939
-481.975
-497.188
-515.288
-536.571
-558.903
-569.471
-577.943
-590.462
-603.622
-616.355
-631.109
-648.289
-670.244
-697.299
-727.951
-762.045
-800.34
-842.185
-885.625
-928.437
-968.478
-1004.04
-1033.95
-1057.55
-1074.48
-1084.77
-1088.83
-1086.07
-1079.34
-1067.11
-1049.65
-1024.24
-992.066
-961.412
-930.415
-894.383
-855.554
-817.141
-776.418
-734.859
-692.487
-645.248
-597.761
-549.545
-499.77
-451.125
-414.005
-384.393
-349.225
-308.803
-265.99
-224.829
-190.673
-162.814
-140.048
-121.623
-107.007
-95.5379
-86.5729
-79.7011
-74.2918
-69.6905
-65.4314
-61.3821
-57.4832
-53.8896
-50.8536
-48.2605
-44.655
-39.7192
-35.5127
-32.6283
-29.728
-26.7622
-22.9299
-19.1802
-15.76
-12.236
-9.46275
-5.79132
-4.79725
1.02858
-227.265
-231.326
-239.673
-249.649
-260.857
-268.864
-278.794
-291.146
-304.799
-321.69
-341.778
-363.214
-384.285
-403.308
-422.294
-443.934
-461.785
-474.394
-481.778
-497.934
-516.403
-537.804
-560.277
-570.307
-578.413
-591.088
-604.389
-617.204
-632.157
-649.625
-671.933
-699.261
-730.063
-764.314
-802.912
-845.221
-889.226
-932.638
-973.243
-1009.3
-1039.62
-1063.53
-1080.7
-1091.14
-1095.22
-1092.58
-1085.68
-1073.06
-1055.31
-1029.99
-997.385
-966.397
-935.354
-898.86
-859.201
-820.361
-778.691
-736.658
-694.172
-645.817
-597.609
-548.853
-498.483
-449.519
-414.263
-385.348
-349.181
-308.028
-263.448
-221.286
-187.083
-159.453
-137.029
-118.92
-104.602
-93.426
-84.7748
-78.3046
-73.2822
-68.9807
-64.938
-61.0585
-57.2784
-53.7706
-50.8561
-48.3548
-44.6707
-39.7422
-35.8103
-32.6698
-30.5121
-27.4357
-23.5903
-19.8174
-16.358
-12.7613
-9.92224
-6.11595
-5.03272
0.983534
-226.928
-231.046
-239.287
-249.315
-260.763
-268.745
-278.526
-290.918
-304.52
-321.289
-341.261
-362.531
-383.507
-402.52
-421.664
-443.682
-462.802
-475.863
-481.431
-498.658
-517.543
-539.077
-561.709
-571.198
-578.929
-591.795
-605.236
-618.139
-633.287
-651.025
-673.643
-701.191
-732.122
-766.563
-805.511
-848.321
-892.929
-936.98
-978.194
-1014.78
-1045.55
-1069.82
-1087.25
-1097.86
-1101.95
-1099.53
-1092.35
-1079.21
-1061.24
-1036.19
-1003.1
-971.712
-940.745
-903.913
-863.26
-824.058
-781.273
-738.519
-695.737
-645.953
-596.945
-547.711
-496.865
-447.771
-414.712
-386.14
-348.892
-307.042
-260.511
-217.455
-183.322
-155.975
-133.938
-116.161
-102.132
-91.2555
-82.9278
-76.8963
-72.2755
-68.2745
-64.4499
-60.7439
-57.0812
-53.653
-50.8488
-48.3899
-44.6451
-39.8839
-36.2276
-32.7007
-31.0682
-27.9926
-24.2228
-20.4528
-16.9622
-13.2963
-10.392
-6.45223
-5.27341
0.930718
-226.603
-230.763
-238.905
-248.963
-260.651
-268.652
-278.264
-290.675
-304.24
-320.876
-340.722
-361.819
-382.702
-401.715
-421.003
-443.358
-463.813
-477.174
-480.981
-499.367
-518.721
-540.389
-563.188
-572.146
-579.495
-592.584
-606.159
-619.154
-634.489
-652.482
-675.361
-703.07
-734.121
-768.793
-808.137
-851.485
-896.729
-941.461
-983.329
-1020.5
-1051.77
-1076.43
-1094.16
-1104.97
-1109.05
-1106.93
-1099.38
-1085.55
-1067.39
-1042.85
-1009.19
-977.34
-946.625
-909.664
-867.841
-828.489
-784.358
-740.448
-696.979
-645.342
-595.682
-546.287
-495.023
-445.952
-415.244
-386.603
-348.377
-305.731
-257.059
-213.313
-179.396
-152.394
-130.789
-113.354
-99.6047
-89.0182
-81.0217
-75.4802
-71.2687
-67.5637
-63.959
-60.4303
-56.8862
-53.5412
-50.8377
-48.3746
-44.6048
-40.1259
-36.8587
-33.1149
-31.611
-28.5226
-24.8464
-21.0905
-17.5755
-13.8437
-10.8737
-6.80125
-5.51961
0.86925
-226.279
-230.471
-238.517
-248.588
-260.52
-268.587
-278.017
-290.421
-303.956
-320.451
-340.16
-361.078
-381.869
-400.892
-420.3
-442.925
-464.628
-478.135
-480.482
-500.058
-519.948
-541.736
-564.697
-573.153
-580.117
-593.456
-607.148
-620.242
-635.756
-653.99
-677.071
-704.887
-736.057
-771.006
-810.79
-854.706
-900.618
-946.073
-988.645
-1026.45
-1058.26
-1083.36
-1101.42
-1112.46
-1116.52
-1114.77
-1106.78
-1092.14
-1073.69
-1049.93
-1015.61
-983.246
-953.037
-916.119
-872.88
-833.735
-788.038
-742.406
-697.751
-643.617
-593.897
-545.198
-493.444
-444.357
-415.761
-386.562
-347.791
-303.981
-252.972
-208.838
-175.312
-148.726
-127.599
-110.514
-97.0222
-86.7116
-79.0593
-74.0688
-70.2569
-66.8382
-63.4551
-60.1081
-56.6882
-53.4397
-50.8298
-48.3243
-44.5708
-40.382
-37.5001
-34.0055
-32.2888
-29.0851
-25.476
-21.735
-18.2014
-14.4065
-11.3698
-7.16449
-5.77208
0.798749
-225.955
-230.162
-238.124
-248.185
-260.368
-268.551
-277.788
-290.157
-303.67
-320.013
-339.577
-360.31
-381.009
-400.049
-419.541
-442.35
-465.085
-478.58
-479.993
-500.713
-521.231
-543.112
-566.206
-574.224
-580.804
-594.411
-608.196
-621.393
-637.075
-655.539
-678.762
-706.635
-737.932
-773.201
-813.46
-857.972
-904.587
-950.811
-994.142
-1032.64
-1065.04
-1090.61
-1109.03
-1120.33
-1124.37
-1123.05
-1114.57
-1099.07
-1080.18
-1057.38
-1022.29
-989.382
-960.056
-923.289
-878.394
-839.506
-792.285
-744.362
-698.039
-640.75
-592.156
-544.777
-492.53
-443.226
-415.957
-385.761
-347.319
-301.566
-248.133
-204.018
-171.071
-144.983
-124.376
-107.661
-94.3867
-84.3674
-77.0448
-72.6668
-69.2318
-66.0889
-62.9274
-59.7673
-56.4826
-53.3478
-50.8295
-48.2657
-44.5557
-40.6415
-37.9054
-35.0859
-33.0586
-29.6903
-26.1192
-22.3909
-18.8444
-14.9889
-11.8836
-7.54377
-6.03212
0.719153
-225.633
-229.837
-237.729
-247.752
-260.191
-268.542
-277.579
-289.883
-303.38
-319.561
-338.972
-359.519
-380.122
-399.18
-418.715
-441.614
-465.235
-478.49
-479.552
-501.312
-522.573
-544.513
-567.668
-575.34
-581.567
-595.449
-609.292
-622.595
-638.436
-657.123
-680.42
-708.312
-739.745
-775.369
-816.137
-861.271
-908.625
-955.668
-999.815
-1039.06
-1072.11
-1098.2
-1117.02
-1128.6
-1132.61
-1131.77
-1122.74
-1106.36
-1086.92
-1065.09
-1029.16
-995.708
-967.752
-931.146
-885.134
-845.617
-797.146
-746.256
-697.512
-637.266
-591.715
-544.625
-491.842
-441.978
-414.652
-383.735
-347.063
-298.054
-242.443
-198.847
-166.663
-141.169
-121.135
-104.811
-91.7283
-82.0583
-75.0799
-71.257
-68.1599
-65.3023
-62.3646
-59.3986
-56.2679
-53.2624
-50.8411
-48.2188
-44.567
-40.9725
-38.0268
-36.0694
-33.7869
-30.3156
-26.7788
-23.0642
-19.5108
-15.596
-12.4193
-7.94132
-6.30158
0.630766
-225.318
-229.498
-237.342
-247.292
-259.988
-268.562
-277.385
-289.594
-303.084
-319.095
-338.347
-358.705
-379.211
-398.283
-417.813
-440.694
-465.276
-478.065
-479.181
-501.84
-523.965
-545.94
-569.034
-576.458
-582.401
-596.565
-610.427
-623.838
-639.829
-658.731
-682.038
-709.915
-741.495
-777.5
-818.803
-864.589
-912.723
-960.639
-1005.66
-1045.71
-1079.47
-1106.11
-1125.37
-1137.26
-1141.27
-1140.91
-1131.28
-1114
-1093.91
-1072.92
-1036.23
-1002.22
-976.088
-939.191
-893.928
-852.166
-802.454
-748.327
-695.499
-633.009
-592.094
-545.778
-491.624
-440.239
-410.973
-380.075
-346.679
-292.709
-235.845
-193.324
-162.074
-137.285
-117.891
-101.965
-89.0897
-79.7078
-73.194
-69.8095
-66.9995
-64.4531
-61.7514
-58.9948
-56.0471
-53.1952
-50.8873
-48.2012
-44.6319
-41.3934
-38.1292
-36.805
-34.387
-30.9395
-27.4586
-23.7627
-20.2087
-16.2343
-12.9825
-8.35983
-6.58295
0.534231
-225.015
-229.157
-236.966
-246.815
-259.758
-268.611
-277.207
-289.293
-302.782
-318.617
-337.703
-357.869
-378.276
-397.355
-416.826
-439.587
-465.29
-477.495
-478.865
-502.301
-525.381
-547.398
-570.249
-577.523
-583.305
-597.748
-611.594
-625.12
-641.252
-660.344
-683.607
-711.445
-743.176
-779.581
-821.44
-867.911
-916.87
-965.719
-1011.69
-1052.6
-1087.11
-1114.37
-1134.1
-1146.3
-1150.34
-1150.46
-1140.1
-1122.05
-1101.13
-1080.63
-1043.54
-1008.99
-984.948
-946.543
-903.921
-859.468
-808.126
-751.254
-692.813
-628.371
-591.08
-549.913
-494.335
-439.388
-407.086
-374.674
-344.726
-284.688
-228.388
-187.441
-157.276
-133.331
-114.643
-99.1368
-86.6152
-77.6653
-71.543
-68.3375
-65.7712
-63.5185
-61.0701
-58.5504
-55.8307
-53.1749
-50.9817
-48.2265
-44.8081
-41.8849
-38.6343
-37.4341
-34.9087
-31.5675
-28.1669
-24.4963
-20.9483
-16.9119
-13.5797
-8.8025
-6.87943
0.4307
-224.73
-228.829
-236.605
-246.33
-259.502
-268.688
-277.043
-288.981
-302.477
-318.129
-337.04
-357.011
-377.316
-396.396
-415.754
-438.332
-465.24
-476.8
-478.575
-502.722
-526.789
-548.894
-571.291
-578.518
-584.314
-598.99
-612.795
-626.441
-642.703
-661.95
-685.116
-712.898
-744.781
-781.593
-824.03
-871.222
-921.056
-970.9
-1017.88
-1059.73
-1095.05
-1122.97
-1143.21
-1155.72
-1159.83
-1160.39
-1149.11
-1130.55
-1108.7
-1088.04
-1051.14
-1016.2
-994.364
-953.466
-913.803
-867.517
-814.558
-754.977
-694.03
-628.062
-591.702
-556.787
-497.317
-438.316
-402.971
-368.709
-340.004
-274.095
-220.258
-181.185
-152.246
-129.319
-111.388
-96.2899
-84.3117
-76.2092
-70.1297
-66.796
-64.5165
-62.4864
-60.3059
-58.0645
-55.6311
-53.2144
-51.1102
-48.3087
-45.1391
-42.2264
-39.7125
-38.1305
-35.4441
-32.2196
-28.9154
-25.2776
-21.7425
-17.6384
-14.2193
-9.27308
-7.19506
0.321991
-224.486
-228.525
-236.263
-245.846
-259.218
-268.78
-276.894
-288.662
-302.172
-317.633
-336.358
-356.13
-376.332
-395.406
-414.605
-436.981
-465.078
-475.977
-478.329
-503.138
-528.147
-550.441
-572.221
-579.479
-585.468
-600.289
-614.036
-627.804
-644.173
-663.53
-686.559
-714.269
-746.299
-783.522
-826.554
-874.507
-925.271
-976.175
-1024.23
-1067.07
-1103.27
-1131.9
-1152.7
-1165.5
-1169.72
-1170.65
-1158.17
-1139.54
-1116.79
-1095.48
-1059.05
-1024.07
-1004.56
-961.109
-923.578
-875.823
-821.838
-760.134
-698.515
-633.255
-596.107
-564.369
-502.335
-438.402
-396.625
-362.432
-330.502
-262
-211.666
-174.528
-146.991
-125.209
-108.132
-93.1931
-82.2717
-75.4432
-68.4534
-64.723
-63.278
-61.3531
-59.4472
-57.5448
-55.4538
-53.3059
-51.2801
-48.4642
-45.6742
-42.4928
-40.7611
-38.7618
-36.0171
-32.9146
-29.7197
-26.1217
-22.6068
-18.4253
-14.9111
-9.77593
-7.53482
0.210808
-224.293
-228.26
-235.947
-245.372
-258.905
-268.871
-276.758
-288.332
-301.869
-317.13
-335.658
-355.226
-375.323
-394.385
-413.392
-435.566
-464.707
-474.776
-478.171
-503.567
-529.432
-552.049
-573.099
-580.457
-586.809
-601.658
-615.338
-629.228
-645.654
-665.067
-687.926
-715.552
-747.718
-785.351
-828.993
-877.75
-929.501
-981.532
-1030.73
-1074.63
-1111.77
-1141.17
-1162.57
-1175.64
-1180.05
-1181.25
-1167.11
-1149.08
-1125.58
-1103.61
-1067.47
-1032.89
-1015.69
-970.052
-933.805
-884.233
-829.495
-768.227
-705.021
-641.398
-603.721
-570.541
-508.885
-439.296
-387.774
-353.313
-314.793
-248.842
-202.553
-167.418
-141.436
-120.983
-104.664
-89.5858
-80.4954
-75.5987
-67.1293
-62.6391
-61.944
-60.0931
-58.485
-57.0059
-55.2984
-53.4287
-51.4986
-48.6811
-46.3093
-42.9935
-41.5323
-39.3238
-36.6479
-33.6731
-30.5994
-27.0474
-23.56
-19.2859
-15.6669
-10.316
-7.90472
0.100918
-224.146
-228.044
-235.659
-244.922
-258.568
-268.956
-276.639
-287.992
-301.567
-316.621
-334.94
-354.297
-374.286
-393.333
-412.126
-434.072
-464.062
-473.189
-478.097
-503.997
-530.643
-553.719
-573.917
-581.396
-588.372
-603.123
-616.73
-630.724
-647.133
-666.549
-689.212
-716.739
-749.028
-787.066
-831.33
-880.934
-933.731
-986.955
-1037.36
-1082.39
-1120.51
-1150.75
-1172.81
-1186.14
-1190.89
-1192.24
-1176.16
-1159.24
-1135.15
-1112.78
-1076.75
-1042.94
-1027.8
-980.841
-944.663
-893.554
-837.48
-776.1
-714.589
-649.641
-613.513
-578.202
-516.615
-440.471
-377.24
-340.638
-294.158
-235.034
-192.825
-159.851
-135.619
-116.613
-100.571
-85.4271
-78.0171
-75.4851
-66.3612
-61.1947
-60.6065
-58.7163
-57.4178
-56.4487
-55.1505
-53.5377
-51.6777
-48.8734
-46.7619
-43.9158
-42.2686
-39.91
-37.3635
-34.5169
-31.578
-28.0774
-24.6237
-20.2355
-16.5003
-10.8991
-8.31189
-0.00271467
-224.028
-227.877
-235.397
-244.507
-258.222
-269.034
-276.54
-287.643
-301.269
-316.105
-334.203
-353.342
-373.222
-392.251
-410.816
-432.472
-463.09
-471.521
-478.009
-504.412
-531.798
-555.456
-574.604
-582.128
-590.141
-604.722
-618.231
-632.295
-648.605
-667.97
-690.411
-717.821
-750.219
-788.655
-833.549
-884.04
-937.94
-992.422
-1044.09
-1090.31
-1129.49
-1160.64
-1183.4
-1197
-1202.36
-1203.69
-1185.93
-1170.12
-1145.53
-1123.02
-1087.22
-1054.41
-1040.76
-994.713
-956.769
-904.978
-846.878
-784.494
-722.178
-658.955
-625.182
-587.904
-524.701
-441.685
-367.36
-325.302
-270.001
-220.835
-182.333
-151.815
-129.474
-111.673
-95.5709
-81.111
-74.9451
-73.4411
-65.1594
-60.1401
-59.3625
-57.3013
-56.2657
-55.8638
-54.9817
-53.5871
-51.7606
-49.007
-46.9583
-44.7991
-42.9703
-40.5708
-38.187
-35.4669
-32.6825
-29.238
-25.8232
-21.2913
-17.4273
-11.5314
-8.76451
-0.0939243
-223.922
-227.758
-235.151
-244.131
-257.88
-269.106
-276.447
-287.286
-300.979
-315.583
-333.447
-352.358
-372.128
-391.139
-409.466
-430.735
-461.565
-469.713
-477.863
-504.806
-532.933
-557.297
-575.109
-582.68
-592.063
-606.471
-619.853
-633.954
-650.077
-669.335
-691.525
-718.795
-751.283
-790.11
-835.636
-887.049
-942.106
-997.906
-1050.9
-1098.35
-1138.65
-1170.79
-1194.32
-1208.24
-1214.41
-1215.6
-1196.71
-1181.88
-1156.8
-1134.4
-1099.22
-1067.37
-1054.32
-1011.77
-971.234
-917.898
-854.642
-795.262
-727.84
-668.933
-636.906
-597.649
-531.957
-442.472
-357.276
-306.572
-244.883
-206.673
-170.996
-143.137
-122.647
-105.669
-89.7658
-77.0658
-71.7864
-69.5431
-64.0267
-59.0861
-57.9801
-55.9423
-55.0959