/*--------------------------------*- C++ -*----------------------------------*\
| =========                 |                                                 |
| \\      /  F ield         | OpenFOAM: The Open Source CFD Toolbox           |
|  \\    /   O peration     | Version:  4.1                                   |
|   \\  /    A nd           | Web:      www.OpenFOAM.org                      |
|    \\/     M anipulation  |                                                 |
\*---------------------------------------------------------------------------*/
FoamFile
{
    version     2.0;
    format      ascii;
    class       surfaceScalarField;
    location    "200";
    object      phi;
}
// * * * * * * * * * * * * * * * * * * * * * * * * * * * * * * * * * * * * * //

dimensions      [0 3 -1 0 0 0 0];

internalField   nonuniform List<scalar> 
52920
(
-1574.64
79.4707
-1621.95
47.3257
-1643.99
22.0648
-1636.8
-7.15298
-1594.21
-42.5366
-1526.55
-67.6275
-1442.87
-83.6238
-1311.56
-131.274
-1104.83
-206.683
-823.002
-281.781
-499.829
-323.117
-200.529
-299.236
58.3719
-258.82
365.046
-306.586
779.54
-414.39
1242.65
-462.969
1218.56
24.3222
1184.29
34.5095
1334.03
-149.614
1404.56
-70.396
1253.71
150.976
404.188
849.622
-318.554
722.81
-429.397
110.92
-217.779
-211.558
-50.2839
-167.422
235.525
-285.737
834.477
-598.878
1551.08
-716.503
1926.4
-375.179
1890.17
36.3336
1978.68
-88.4427
2244.74
-266.004
2600.07
-355.279
2989.23
-389.125
3382.65
-393.387
3766.08
-383.399
4131.48
-365.368
4471.48
-339.966
4778.5
-306.992
5045.72
-267.191
5267.79
-222.051
5439.17
-171.356
5551.86
-112.662
5602.47
-50.595
5598.36
4.13228
5543.97
54.4303
5437.22
106.763
5289.78
147.463
5146.67
143.123
5069.85
76.8376
5072.14
-2.28198
5122.42
-50.2609
5196.34
-73.9143
5281.11
-84.7472
5373.98
-92.8771
5484.84
-110.841
5626.57
-141.735
5804.62
-178.044
6017.08
-212.462
6258.27
-241.187
6520.05
-261.784
6787.17
-267.118
7037.35
-250.189
7232.02
-194.66
7326.81
-94.8013
7328.37
-1.55278
7273.46
54.8959
7174.87
98.5939
7039.68
135.191
6874.77
164.906
6690.59
184.183
6503.16
187.431
6329.01
174.147
6177.84
151.172
6049.19
128.641
5935.22
113.973
5826.73
108.495
5718.35
108.38
5609.8
108.547
5503.58
106.215
5401.68
101.9
5303.65
98.0373
5206.52
97.1231
5107.06
99.4567
5002.76
104.301
4891.71
111.05
4775.72
115.991
4666.12
109.603
4582.78
83.3314
4540.49
42.2934
4549.13
-8.64261
4630.2
-81.0706
4804.54
-174.339
5054.28
-249.741
5330.85
-276.575
5598.09
-267.237
5874.91
-276.825
6233.31
-358.403
-536.991
-1522.64
158.882
-1564.26
88.9565
-1580.62
38.4564
-1570.02
-17.7193
-1525.78
-86.7156
-1453.3
-140.061
-1362.66
-174.216
-1232.15
-261.739
-1044.76
-394.028
-803.812
-522.683
-529.36
-597.515
-262.895
-565.642
-28.7613
-492.879
208.251
-543.519
463.662
-669.712
699.042
-698.245
781.486
-57.9688
820.116
-3.91996
1113.22
-442.613
1240.2
-197.165
772.888
618.37
191.706
1430.88
-152.5
1067.08
-266.687
225.194
-148.319
-329.865
18.1243
-333.797
183.129
-450.676
400.152
-815.844
681.195
-997.482
1000.98
-694.886
1358.89
-321.516
1707.45
-436.936
2063.38
-621.886
2435.12
-726.97
2817.24
-771.208
3199.18
-775.291
3569.06
-753.246
3915.31
-711.585
4228.15
-652.773
4501.5
-580.311
4733.12
-498.783
4923.41
-412.313
5072.79
-320.709
5178.71
-218.557
5240.28
-112.147
5262.32
-17.8773
5241.4
75.387
5168.3
179.879
5048.6
267.187
4926.03
265.702
4858.23
144.668
4851.33
4.625
4883.4
-82.3135
4939.09
-129.602
5009.69
-155.326
5094.56
-177.743
5205.11
-221.378
5355.12
-291.747
5548.76
-371.673
5780.39
-444.1
6039.62
-500.408
6314.85
-537.026
6590.22
-542.477
6844.7
-504.683
7044.38
-394.335
7149.22
-199.649
7159.79
-12.1231
7108.83
105.858
7010.42
197.005
6872.79
272.811
6704.24
333.462
6516.37
372.05
6325
378.798
6145.05
354.093
5985.46
310.767
5848.7
265.4
5733.72
228.956
5638.14
204.074
5558.02
188.496
5486.78
179.791
5416.11
176.887
5338.87
179.13
5251.38
185.535
5152.93
195.573
5044.91
207.472
4928.78
220.429
4805.28
234.548
4679.3
241.965
4565.07
223.836
4481.37
167.025
4436.85
86.815
4429.76
-1.54982
4468.95
-120.264
4577.5
-282.897
4757.34
-429.584
4985.03
-504.264
5243.08
-525.286
5560.49
-594.241
5985.84
-783.752
-1098.79
-1458.72
239.444
-1503.91
134.164
-1522.73
57.3066
-1517.32
-23.0944
-1479.8
-124.177
-1412.29
-207.533
-1324.59
-261.875
-1197.97
-388.318
-1018.44
-573.515
-790.079
-751
-528.879
-858.669
-270.235
-824.237
-43.6593
-719.391
169.942
-757.052
380.676
-880.372
570.334
-887.82
680.904
-168.43
725.323
-48.1696
1137.47
-854.655
1152.04
-211.436
604.142
1166.33
192.372
1842.7
-82.4902
1341.99
-247.792
390.565
-175.608
-401.991
-5.50248
-503.838
172.307
-628.422
333.427
-976.906
505.052
-1169.05
777.884
-967.67
1172.74
-716.339
1557.76
-821.911
1928.54
-992.632
2305.94
-1104.34
2690.77
-1156.01
3072.35
-1156.84
3437.14
-1118.01
3773.31
-1047.74
4072.17
-951.603
4328.6
-836.718
4540.79
-710.945
4709.6
-581.097
4837.28
-448.367
4925.01
-306.268
4975.38
-162.496
4993.91
-36.3885
4973.38
95.9592
4901.87
251.399
4783.99
385.097
4665.96
383.74
4600.91
209.748
4588.05
17.4908
4612.96
-107.204
4667.61
-184.244
4745.03
-232.735
4843.7
-276.413
4972.91
-350.574
5142.84
-461.68
5353.15
-581.973
5595
-685.956
5857.2
-762.599
6129.69
-809.522
6399.36
-812.142
6647.48
-752.816
6843.17
-590.021
6948.94
-305.422
6959.34
-22.5192
6904.36
160.827
6799.82
301.552
6655.23
417.392
6478.75
509.944
6280.81
569.986
6076.43
583.179
5882.36
548.158
5713.5
479.629
5580.92
397.981
5490.14
319.735
5438.16
256.052
5411.31
215.347
5387.96
203.143
5347.2
217.649
5277.65
248.68
5179.57
283.613
5059.8
315.342
4926.61
340.664
4786.12
360.912
4642.66
378.013
4505.5
379.122
4390.2
339.135
4307.26
249.962
4251.16
142.914
4209.03
40.5858
4184.32
-95.5602
4216.99
-315.562
4343.35
-555.945
4572.41
-733.33
4899.12
-851.993
5329.25
-1024.37
5861.92
-1316.42
-1693.75
-1389.59
324.038
-1443.15
187.741
-1466.08
80.2735
-1465.59
-23.5541
-1434.56
-155.146
-1374.18
-267.873
-1295.17
-340.834
-1179.89
-503.557
-1013.37
-739.983
-796.428
-967.903
-539.916
-1115.14
-277.463
-1086.64
-49.713
-947.08
151.616
-958.315
347.222
-1075.91
517.449
-1057.97
693.043
-343.924
763.751
-118.727
987.6
-1078.39
815.458
-39.0608
371.494
1610.35
149.992
2064.25
-117.485
1609.51
-281.977
555.126
-222.508
-461.402
-92.3041
-633.984
66.4642
-787.137
212.701
-1123.1
378.532
-1334.84
657.641
-1246.74
1052.77
-1111.42
1442.5
-1211.6
1816.96
-1367.05
2197.93
-1485.28
2586.74
-1544.79
2970.66
-1540.72
3334.27
-1481.59
3665.75
-1379.19
3957.83
-1243.65
4206.66
-1085.52
4410.59
-914.846
4569.63
-740.11
4685.44
-564.154
4760.21
-381.014
4798.03
-200.295
4804.95
-43.2843
4771.19
129.762
4685.35
337.259
4556.66
513.819
4440.73
499.672
4387.45
263.054
4388.29
16.6606
4431.1
-149.994
4507.36
-260.501
4605.17
-330.521
4718.16
-389.408
4852.93
-485.328
5019.43
-628.182
5219.14
-781.67
5446.51
-913.328
5693.45
-1009.53
5952.22
-1068.3
6211.08
-1071
6451.38
-993.119
6643.05
-781.695
6749.3
-411.675
6758.27
-31.4897
6697.82
221.272
6584.35
415.026
6428.53
573.203
6239.31
699.173
6027.31
781.982
5807.48
803.005
5597.24
758.402
5413.41
663.461
5269.86
541.528
5175
414.593
5127.98
303.067
5115.08
228.252
5111.1
207.126
5089.58
239.164
5035.06
303.205
4946.4
372.27
4830.65
431.093
4697.53
473.776
4555.9
502.545
4414.48
519.431
4287.77
505.832
4188.2
438.699
4108.22
329.945
4024.39
226.738
3926.35
138.622
3835.26
-4.47377
3824.88
-305.186
3951.7
-682.768
4226.25
-1007.88
4635.68
-1261.42
5154.72
-1543.41
5741.26
-1902.96
-2286.59
-1316.61
414.256
-1383.1
254.244
-1412.76
109.967
-1417.63
-18.6548
-1392.65
-180.063
-1339.3
-321.185
-1270.49
-409.601
-1169.44
-604.568
-1019.9
-889.486
-819.625
-1168.14
-573.928
-1360.8
-311.411
-1349.12
-79.6799
-1178.76
115.773
-1153.71
298.732
-1258.81
430.753
-1189.93
698.119
-611.226
848.058
-268.521
684.295
-914.467
342.619
302.721
144.161
1808.85
18.2468
2190.2
-203.728
1831.52
-313.619
665.069
-249.609
-525.357
-149.004
-734.532
-14.7413
-921.35
123.355
-1261.15
293.246
-1504.69
576.137
-1529.59
963.652
-1498.91
1350.1
-1598.02
1724.52
-1741.45
2107.09
-1867.83
2497.66
-1935.34
2881.21
-1924.25
3241.49
-1841.84
3567.48
-1705.16
3853.47
-1529.63
4096.99
-1329.01
4297.06
-1114.89
4453.44
-896.475
4567.24
-677.93
4640.5
-454.256
4676.36
-236.131
4679.24
-46.141
4635.43
173.612
4536.7
436.002
4401.86
648.684
4299.24
602.297
4272.12
290.204
4299.91
-11.1271
4365.94
-216.001
4455.4
-349.952
4552.5
-427.61
4651.19
-488.092
4762.17
-596.298
4901.89
-767.899
5076.99
-956.763
5284.44
-1120.78
5516.12
-1241.22
5763.82
-1316
6015.72
-1322.9
6252.44
-1229.84
6443.73
-972.983
6552.7
-520.647
6561.21
-39.9989
6495.5
286.975
6371.46
539.069
6201.13
743.524
5996.86
903.448
5773.28
1005.56
5547.75
1028.54
5337.56
968.594
5156.84
844.182
5014.53
683.835
4913.68
515.445
4851.11
365.633
4816.59
262.771
4792.92
230.788
4761.22
270.869
4708.48
355.945
4630.24
450.505
4528.25
533.084
4410
592.032
4285.82
626.72
4168.4
636.847
4072.63
601.603
3995.06
516.273
3901.03
423.973
3759.93
367.835
3587.51
311.044
3442.65
140.387
3440.61
-303.15
3633.97
-876.128
4000.27
-1374.18
4495.39
-1756.54
5064.39
-2112.41
5645.69
-2484.26
-2844.07
-1242.3
538.42
-1321.99
333.957
-1360.37
148.38
-1370.37
-8.62075
-1349.84
-200.525
-1300.7
-370.284
-1238.41
-471.838
-1147.68
-695.252
-1012.32
-1024.8
-829.483
-1350.94
-600.892
-1589.35
-348.128
-1601.85
-116.895
-1409.94
79.3461
-1349.9
261.974
-1441.38
370.942
-1298.83
707.814
-948.034
905.046
-465.516
496.617
-505.87
-10.4347
809.856
-117.112
1915.57
-181.55
2254.68
-297.2
1947.21
-331.114
699.041
-274.792
-581.622
-197.582
-811.689
-82.5551
-1036.33
51.2223
-1394.88
227.886
-1681.32
514.735
-1816.41
894.498
-1878.65
1275.74
-1979.23
1648.71
-2114.39
2031.87
-2250.97
2422.98
-2326.43
2804.78
-2306.02
3160.45
-2197.49
3479.68
-2024.36
3757.79
-1807.71
3993.42
-1564.62
4186.92
-1308.36
4339.26
-1048.79
4452.42
-791.062
4528.89
-530.708
4570.44
-277.655
4579.35
-55.0212
4536.8
216.204
4438.54
534.275
4312.44
774.816
4232.6
682.144
4229.29
293.544
4271.82
-53.6559
4339.73
-283.891
4417.7
-427.914
4492.93
-502.818
4563.24
-558.406
4644.86
-677.904
4759.66
-882.702
4916.01
-1113.1
5109.83
-1314.61
5331.29
-1462.67
5572.21
-1556.93
5821.93
-1572.62
6060.32
-1468.24
6255.49
-1168.15
6369.78
-634.938
6378.37
-48.5946
6305.6
359.739
6166.36
678.314
5976.1
933.782
5754.91
1124.64
5525.57
1234.89
5309.41
1244.7
5122.08
1155.92
4971.42
994.843
4856.86
798.396
4770.6
601.707
4700.56
435.669
4635.07
328.267
4566.82
299.031
4493.57
344.116
4414.34
435.176
4326.6
538.244
4228.99
630.695
4126.72
694.299
4028.84
724.597
3946.47
719.222
3883.52
664.548
3806.72
593.07
3660.46
570.234
3435.36
592.932
3187.78
558.621
3022.12
306.036
3103.6
-384.635
3439.7
-1212.23
3923.64
-1858.12
4472.31
-2305.21
5039.96
-2680.06
5583.08
-3027.39
-3357.31
-1161.46
656.182
-1258.96
431.475
-1307.21
196.655
-1321.65
5.85371
-1302.76
-219.348
-1253.39
-419.621
-1192.71
-532.47
-1108.01
-779.911
-983.888
-1148.89
-817.809
-1516.99
-609.035
-1798.09
-372.057
-1838.79
-146.938
-1635.02
50.4003
-1547.2
242.707
-1633.64
361.711
-1417.79
756.574
-1342.85
757.646
-466.282
112.616
139.254
-281.227
1203.74
-356.353
1990.72
-358.372
2256.73
-362.409
1951.27
-335.885
672.565
-294.741
-622.714
-237.538
-868.84
-137.485
-1136.34
-6.16549
-1526.16
177.453
-1864.91
467.676
-2106.61
840.875
-2251.83
1217.05
-2355.39
1588.16
-2485.49
1971.4
-2634.19
2362.45
-2717.46
2742.24
-2685.79
3093.53
-2548.76
3406.29
-2337.1
3676.12
-2077.53
3902.05
-1790.53
4085.54
-1491.83
4229.26
-1192.49
4337.13
-898.916
4413.39
-606.947
4460.43
-324.68
4480.67
-75.2324
4449.82
247.089
4364.41
619.698
4255.21
884.038
4193.93
743.434
4198.52
288.982
4238.7
-93.8314
4295.28
-340.45
4355.93
-488.556
4410.68
-557.552
4458.66
-606.385
4518.52
-737.756
4614.57
-978.756
4755.14
-1253.66
4936.08
-1495.55
5148.2
-1674.78
5385.41
-1794.15
5638.44
-1825.65
5884.51
-1714.31
6087.66
-1371.3
6209.24
-756.522
6217.45
-56.8017
6134.96
442.228
5977.19
836.083
5765.72
1145.25
5530.13
1360.23
5300.75
1464.26
5100.21
1445.24
4939.48
1316.65
4818.28
1116.04
4727.09
889.589
4650.09
678.706
4570.48
515.274
4477.92
420.829
4373.08
403.873
4264.71
452.483
4160.61
539.279
4062.67
636.183
3970.3
723.063
3886.1
778.497
3814.01
796.69
3758.4
774.834
3703.59
719.357
3585.2
711.457
3354.56
800.875
3047.51
899.977
2734.38
871.755
2602
438.416
2861.77
-644.408
3376.87
-1727.32
3940.05
-2421.3
4485.53
-2850.68
5019.09
-3213.63
5522.45
-3530.74
-3836.25
-1078.85
758.847
-1193.46
546.11
-1251.56
254.791
-1268.79
23.1208
-1248.17
-239.899
-1194.71
-473.037
-1132.87
-594.259
-1053.37
-859.368
-940.805
-1261.41
-792.115
-1665.65
-604.245
-1985.93
-385.092
-2057.91
-168.562
-1851.51
28.1409
-1743.85
227.359
-1832.81
366.096
-1556.47
697.016
-1673.71
538.488
-307.517
-141.039
818.85
-438.197
1500.95
-500.811
2053.38
-464.017
2219.98
-404.902
1892.19
-346.715
614.439
-314.689
-654.685
-271.897
-911.582
-182.721
-1225.48
-51.6152
-1657.24
138.507
-2055
431.262
-2399.33
799.262
-2619.8
1171.09
-2727.19
1540.18
-2854.56
1922.8
-3016.77
2313.03
-3107.68
2690.62
-3063.35
3038.2
-2896.32
3345.78
-2644.66
3608.68
-2340.41
3825.69
-2007.52
3998.65
-1664.76
4131.34
-1325.16
4229.44
-996.992
4299.2
-676.683
4345.77
-371.23
4374.85
-104.28
4356.85
265.123
4285.72
690.846
4188.7
981.094
4134.84
797.298
4139.03
284.818
4175.39
-130.188
4225.67
-390.701
4277.83
-540.713
4321.83
-601.528
4355.31
-639.868
4396.8
-779.231
4472.59
-1054.55
4593.94
-1375
4760.75
-1662.37
4966.06
-1880.09
5204.88
-2032.98
5467.34
-2088.1
5725.74
-1972.72
5938.19
-1583.75
6065.68
-884.014
6070.7
-61.8257
5976.84
536.082
5801.97
1010.96
5573.63
1373.59
5327.87
1605.98
5098.11
1694.03
4905.1
1638.26
4754.97
1466.78
4642.5
1228.51
4554.49
977.595
4473.29
759.903
4382.57
605.992
4275.08
528.326
4156.08
522.87
4038.22
570.347
3931.1
646.39
3836.52
730.77
3752.35
807.226
3679.69
851.156
3620.68
855.703
3571.51
823.999
3493.82
797.048
3307.02
898.25
2998.07
1109.82
2627.1
1270.95
2248.27
1250.57
2260.64
426.046
2781.09
-1164.86
3418.47
-2364.7
3979.38
-2982.21
4481.28
-3352.59
4970.72
-3703.07
5441.15
-4001.17
-4292.78
-999.04
839.429
-1126.45
673.536
-1192.98
321.349
-1211.59
41.7598
-1187.41
-264.008
-1128.47
-531.933
-1065.47
-657.213
-992.915
-931.887
-893.48
-1360.82
-762.126
-1796.97
-594.246
-2153.78
-392.622
-2259.51
-184.618
-2059.48
12.3403
-1940.78
213.33
-2033.77
377.29
-1720.39
552.771
-1849.15
261.928
-16.575
-288.146
1368.96
-508.116
1720.95
-559.492
2104.77
-513.713
2174.23
-442.158
1820.66
-375.243
547.575
-341.858
-688.022
-302.721
-950.672
-220.443
-1307.72
-87.7129
-1789.93
108.057
-2250.75
402.647
-2693.91
766.911
-2984.05
1135.31
-3095.57
1502.13
-3221.37
1882.86
-3397.49
2270.68
-3495.49
2645.01
-3437.67
2988.84
-3240.13
3292.2
-2948
3549.94
-2598.13
3760.28
-2217.85
3924.82
-1829.28
4047.73
-1448.04
4135.49
-1084.74
4195.36
-736.539
4235.35
-411.196
4265.66
-134.567
4251.87
278.941
4186.54
756.193
4092.11
1075.56
4038.63
850.784
4044.26
279.212
4083.64
-169.568
4136.07
-443.102
4187.9
-592.546
4228.21
-641.823
4250.99
-662.641
4272.7
-800.936
4324.52
-1106.37
4426.2
-1476.68
4583.84
-1820.01
4789.12
-2085.36
5034.17
-2278.03
5308.36
-2362.29
5580.53
-2244.89
5802.61
-1805.83
5932.16
-1013.57
5924.69
-54.3499
5812.2
648.562
5620.83
1202.34
5381.93
1612.48
5131.26
1856.66
4900.39
1924.89
4707.75
1830.9
4557.27
1617.24
4442.07
1343.72
4348.04
1071.62
4258.13
849.82
4158.51
705.607
4045.79
641.052
3928.21
640.441
3818.21
680.351
3721.88
742.72
3636.82
815.831
3560.04
884.003
3496.18
915.015
3446.11
905.772
3388.26
881.853
3260.83
924.472
2997.38
1161.7
2622.9
1484.31
2177.84
1716
1798.69
1629.73
2108.6
116.134
2841.45
-1897.7
3474.62
-2997.87
3980.33
-3487.93
4439.04
-3811.29
4890.18
-4154.21
5334.17
-4445.17
-4737.78
-925.577
892.732
-1060.24
808.215
-1132.69
393.833
-1152.6
61.7139
-1126.27
-290.259
-1063.92
-594.243
-1001.81
-719.266
-938.056
-995.593
-851.729
-1447.1
-734.806
-1913.86
-582.79
-2305.76
-396.235
-2446.03
-196.114
-2259.57
3.24848
-2140.1
204.067
-2234.55
398.851
-1915.13
385.68
-1835.92
-38.7073
407.885
-396.706
1727
-517.427
1841.71
-565.556
2152.94
-521.939
2130.65
-460.871
1759.63
-404.663
491.435
-373.539
-719.093
-330.593
-993.57
-251.007
-1387.27
-116.414
-1924.5
83.6579
-2450.79
379.77
-2989.99
741.805
-3346.07
1107.7
-3461.44
1471.75
-3585.4
1848.69
-3774.41
2231.72
-3878.49
2601.05
-3806.99
2940.46
-3579.52
3239.95
-3247.47
3493.8
-2851.97
3699.6
-2423.62
3858.49
-1988.15
3974.67
-1564.19
4054.8
-1164.84
4106.11
-787.83
4138.24
-443.307
4164.38
-160.678
4144.63
298.732
4073.65
827.186
3973.2
1176.05
3917
906.986
3925.23
271.014
3970.46
-214.8
4028.28
-500.897
4083.65
-647.906
4124.4
-682.559
4138.04
-676.277
4138.82
-801.703
4168.42
-1135.97
4258.6
-1566.85
4417.14
-1978.56
4626.9
-2295.12
4876.31
-2527.44
5160.46
-2646.45
5449.16
-2533.6
5687.12
-2043.79
5823.38
-1149.83
5799.76
-30.7328
5659.5
788.821
5444.35
1417.49
5192.98
1863.85
4938.05
2111.59
4706.07
2156.86
4512.87
2024.1
4361.24
1768.88
4242.95
1462.01
4142.86
1171.7
4044.98
947.699
3939.28
811.307
3826.62
753.715
3716.23
750.833
3616.89
779.687
3529.64
829.972
3450.07
895.4
3378.53
955.536
3324.8
968.744
3280.62
949.956
3197.86
964.606
3009.24
1113.09
2674.44
1496.5
2226.05
1932.7
1707.43
2234.62
1512.77
1824.38
2165.36
-536.45
2934.92
-2667.27
3482.66
-3545.6
3931.95
-3937.22
4364.36
-4243.7
4791.63
-4581.48
5217.76
-4871.3
-5177.18
-865.603
916.475
-996.948
939.572
-1073.29
470.207
-1096.47
84.9184
-1072.75
-313.904
-1011.27
-655.684
-952.283
-778.201
-897.377
-1050.46
-821.44
-1523.01
-713.15
-2022.12
-570.268
-2448.62
-394.636
-2621.64
-202.22
-2451.96
0.601929
-2342.89
203.237
-2437.16
420.353
-2132.22
288.711
-1704.24
-207.201
903.835
-433.354
1953.17
-479.719
1888.1
-530.262
2203.5
-511.609
2112.02
-467.76
1715.81
-427.571
451.301
-402.949
-743.67
-356.931
-1039.55
-276.613
-1467.55
-140.138
-2060.94
63.3732
-2654.28
361.119
-3287.72
722.389
-3707.33
1086.54
-3825.58
1446.83
-3945.67
1817.42
-4145
2192.91
-4253.97
2555.46
-4169.53
2889.85
-3913.9
3185.77
-3543.38
3436.62
-3102.81
3639.26
-2626.24
3794.5
-2143.39
3906.6
-1676.27
3982.24
-1240.47
4028.45
-834.019
4055.63
-470.472
4077.73
-182.764
4047.44
329.06
3963.57
911.063
3850.71
1288.94
3787.32
970.392
3794.23
264.127
3842.89
-263.456
3905.81
-563.798
3966.33
-708.426
4009.85
-726.058
4015.39
-681.818
3997.76
-784.06
4014.23
-1152.44
4104.74
-1657.35
4268.64
-2142.47
4476.01
-2502.47
4719.38
-2770.82
5011.24
-2938.31
5325.34
-2847.71
5592.13
-2310.58
5747.41
-1305.12
5714.21
2.46731
5540.02
963.011
5281.9
1675.61
4996.51
2149.22
4723.95
2384.16
4487.78
2393.03
4298.02
2213.87
4152.52
1914.37
4039.12
1575.42
3940.57
1270.24
3842.16
1046.11
3737.63
915.84
3630.5
860.843
3528.09
853.241
3434.04
873.734
3346.45
917.563
3263.79
978.062
3192.85
1026.48
3145.24
1016.36
3094.57
1000.62
2976.94
1082.24
2739.4
1350.64
2331.15
1904.74
1780.12
2483.73
1225.03
2789.7
1408.43
1640.98
2314.78
-1442.8
2991.63
-3344.12
3446.89
-4000.87
3855.54
-4345.87
4270.54
-4658.7
4687.9
-4998.83
5105.33
-5288.73
-5610.75
-819.756
907.625
-938.857
1058.69
-1017.58
548.965
-1047.53
114.902
-1032.69
-328.661
-976.161
-712.162
-920.844
-833.463
-872.044
-1099.22
-801.375
-1593.64
-694.815
-2128.65
-554.42
-2588.98
-385.95
-2790.08
-201.928
-2635.95
3.14559
-2547.93
210.067
-2644.04
439.591
-2361.71
301.247
-1565.83
-182.081
1387.21
-384.432
2155.55
-413.221
1916.93
-475.465
2265.77
-501.138
2137.74
-478.881
1693.59
-451.218
423.712
-430.199
-764.639
-381.84
-1087.86
-299.375
-1549.98
-160.713
-2199.58
46.023
-2860.99
345.663
-3587.34
707.296
-4068.94
1070.04
-4188.3
1424.75
-4300.37
1785.81
-4506.04
2151.07
-4619.21
2505.66
-4524.11
2835.17
-4243.38
3128.3
-3836.49
3377.13
-3351.61
3577.64
-2826.73
3730.48
-2296.21
3840.19
-1785.96
3913.6
-1313.85
3957.68
-878.077
3983.35
-496.123
4004.11
-203.492
3963.41
369.801
3864.04
1010.44
3734.48
1418.53
3658.47
1046.41
3658.89
263.735
3708.22
-312.791
3775.96
-631.511
3842.13
-774.593
3889.42
-773.327
3889.34
-681.737
3860.89
-755.596
3875.74
-1167.29
3970.42
-1752.02
4128.63
-2300.68
4314.18
-2688.03
4538.22
-2994.86
4838.74
-3238.83
5190.68
-3199.65
5501.55
-2621.45
5686.25
-1489.82
5646.27
42.4454
5438.97
1170.31
5137.76
1976.82
4813.99
2472.99
4519.85
2678.31
4282.44
2630.43
4105.6
2390.71
3976.81
2043.15
3875.13
1677.1
3779.96
1365.41
3679.44
1146.62
3572.6
1022.69
3465.24
968.195
3361.84
956.643
3261.54
974.032
3162.15
1016.95
3068.05
1072.16
2992.23
1102.29
2941.28
1067.31
2870.5
1071.4
2716.69
1236.05
2424.11
1643.22
1914.77
2414.09
1279.08
3119.42
838.436
3230.33
1504.44
974.978
2466.59
-2404.95
3001.62
-3879.15
3386.81
-4386.05
3770.65
-4729.72
4171.9
-5059.95
4582.77
-5409.7
4993.31
-5699.27
-6036.33
-783.183
872.502
-888.009
1163.53
-966.988
627.969
-1006.62
154.561
-1005.51
-329.697
-956.24
-761.389
-902.932
-886.725
-854.778
-1147.34
-782.862
-1665.52
-672.395
-2239.09
-531.135
-2730.22
-369.07
-2952.12
-195.062
-2809.93
9.53735
-2752.51
221.877
-2856.36
458.113
-2597.92
371.12
-1478.8
-55.1817
1813.53
-292.553
2392.94
-349.93
1974.33
-427.433
2343.29
-494.273
2204.6
-498.927
1698.27
-480.99
405.831
-457.157
-788.431
-404.915
-1140.06
-320.132
-1634.74
-179.148
-2340.54
30.5399
-3070.67
332.288
-3889.08
695.086
-4431.73
1056.09
-4549.29
1402.48
-4646.76
1750.45
-4854
2103.36
-4972.11
2449.87
-4870.61
2775.58
-4569.09
3067.32
-4128.23
3315.34
-3599.61
3514.75
-3026.13
3666.22
-2447.67
3774.76
-1894.49
3847.44
-1386.52
3891.38
-921.993
3918.04
-522.77
3939.78
-225.218
3889.7
419.921
3773.54
1126.61
3624.65
1567.46
3532.53
1138.54
3523.67
272.617
3573.04
-362.163
3646.42
-704.867
3719.02
-847.186
3772.75
-827.046
3774.2
-683.186
3747.01
-728.394
3767.29
-1187.57
3856.1
-1840.82
3986.8
-2431.39
4131.33
-2832.56
4329.07
-3192.6
4642.54
-3552.3
5038.61
-3595.73
5399.98
-2982.82
5623.33
-1713.17
5581.69
84.0878
5346.88
1405.11
5025.57
2298.14
4698.16
2800.4
4410.31
2966.15
4184.9
2855.84
4021.2
2554.41
3899.92
2164.44
3795.1
1781.92
3686.84
1473.67
3568.86
1264.61
3445.48
1146.06
3323.71
1089.97
3205.24
1075.11
3086.57
1092.7
2967.37
1136.15
2858.25
1181.28
2773.66
1186.87
2709.18
1131.8
2608.15
1172.42
2400.88
1443.32
2010.13
2033.97
1387.25
3036.97
780.705
3725.96
753.707
3257.34
1792.61
-63.9198
2569.71
-3182.05
2973.05
-4282.49
3317.84
-4730.84
3688.66
-5100.54
4077.87
-5449.16
4477.49
-5809.32
4878.11
-6099.9
-6455.63
-757.69
818.138
-845.623
1251.48
-921.851
704.231
-971.824
204.572
-985.708
-315.733
-942.9
-804.147
-887.97
-941.602
-833.905
-1201.36
-754.887
-1744.5
-638.16
-2355.79
-497.648
-2870.7
-345.02
-3104.72
-182.873
-2972.04
18.2825
-2953.63
235.322
-3073.37
478.395
-2840.96
450.386
-1450.73
80.6397
2183.31
-208.732
2682.34
-311.039
2076.67
-396.311
2428.6
-491.884
2300.21
-527.053
1733.48
-517.09
395.945
-484.281
-821.193
-425.827
-1198.48
-338.642
-1721.89
-195.715
-2483.44
16.2487
-3282.61
320.006
-4192.81
684.253
-4795.96
1042.36
-4907.38
1376.95
-4981.33
1708.45
-5185.48
2048.09
-5311.74
2387.77
-5210.26
2711.68
-4892.98
3003.74
-4420.27
3252.11
-3847.97
3451.29
-3225.29
3602.23
-2598.59
3710.49
-2002.73
3783.34
-1459.35
3828.15
-966.783
3857.25
-551.85
3881.23
-249.178
3822.03
479.167
3687.57
1261.09
3518.97
1736.09
3409.67
1247.84
3391.17
291.149
3443.53
-414.52
3527.95
-789.264
3612.61
-931.843
3680.69
-895.109
3695.08
-697.568
3680.46
-713.761
3704.78
-1211.89
3771.05
-1907.08
3859.67
-2520.01
3960.55
-2933.44
4135.84
-3367.89
4464.04
-3880.5
4896.61
-4028.31
5290.65
-3376.86
5542.4
-1964.92
5506.31
120.173
5255.15
1656.27
4932.43
2620.87
4633.95
3098.87
4382.26
3217.85
4178.28
3059.81
4015.69
2717.01
3879.12
2301
3749.13
1911.92
3612.3
1610.49
3467.35
1409.56
3320.28
1293.13
3176.78
1233.47
3036.33
1215.56
2894.99
1234.05
2756.01
1275.13
2633.8
1303.49
2537.07
1283.6
2449.68
1219.19
2304.34
1317.76
2001.55
1746.11
1483.22
2552.3
834.259
3685.93
442.046
4118.17
910.901
2788.48
2037.75
-1190.77
2599.91
-3744.22
2923.68
-4606.26
3252.44
-5059.61
3613.56
-5461.66
3989.58
-5825.17
4375.75
-6195.49
4766.42
-6490.58
-6871.15
-746.341
752.652
-812.218
1317.37
-882.214
774.25
-940.568
262.95
-966.94
-289.292
-926.468
-844.579
-865.245
-1002.78
-800.548
-1266.02
-711.991
-1833.03
-590.902
-2476.85
-456.307
-3005.28
-317.67
-3243.34
-167.805
-3121.89
29.3697
-3150.79
250.898
-3294.88
502.197
-3092.24
516.556
-1465.05
184.755
2515.13
-152.147
3019.26
-296.036
2220.58
-379.747
2512.32
-494.989
2415.47
-560.247
1798.76
-555.151
390.904
-509.676
-866.632
-443.87
-1264.25
-354.428
-1811.31
-210.397
-2627.45
2.92992
-3495.92
308.209
-4498.08
673.402
-5161.15
1026.48
-5260.45
1345.48
-5300.33
1658.24
-5498.23
1985.58
-5639.08
2321.18
-5545.86
2645.91
-5217.7
2939.9
-4714.26
3189.39
-4097.45
3388.68
-3424.57
3539.34
-2749.23
3647.58
-2110.95
3720.75
-1532.51
3766.54
-1012.56
3798.54
-583.833
3824.85
-275.47
3756.18
547.869
3601.79
1415.48
3415.3
1922.62
3288.89
1374.26
3264.96
315.109
3332.46
-482.022
3441.02
-897.805
3547.36
-1038.18
3639.24
-986.974
3675.23
-733.555
3675
-713.526
3692.1
-1228.99
3722.2
-1937.18
3772.09
-2569.9
3847.85
-3009.2
4018.2
-3538.25
4365.28
-4227.57
4821.07
-4484.1
5213.53
-3769.32
5454.89
-2206.28
5411.43
163.639
5145.99
1921.71
4815.56
2951.29
4536.26
3378.17
4315.33
3438.79
4128.31
3246.83
3960.05
2885.27
3802.39
2458.65
3646.5
2067.8
3485.67
1771.33
3320.68
1574.54
3156.17
1457.64
2995.67
1393.97
2837.37
1373.86
2678.68
1392.73
2526.79
1427.02
2394.91
1435.38
2280.88
1397.62
2161
1339.07
1952.1
1526.66
1518.02
2180.19
904.451
3165.87
387.022
4203.36
311.657
4193.54
1183.06
1917.08
2175.31
-2183.01
2579.01
-4147.92
2871.97
-4899.21
3195.64
-5383.27
3544.79
-5810.81
3906.11
-6186.49
4280.62
-6570
4663.59
-6873.54
-7283.51
-743.969
687.073
-787.664
1361.08
-847.657
834.276
-910.661
325.99
-945.436
-254.441
-902.023
-887.942
-830.656
-1074.1
-754.94
-1341.69
-659.727
-1928.21
-539.141
-2597.41
-414.931
-3129.46
-292.464
-3365.78
-152.629
-3261.7
42.3634
-3345.75
268.912
-3521.4
529.178
-3352.48
570.562
-1506.38
264.856
2820.87
-108.686
3392.82
-291.818
2403.74
-372.495
2593.03
-502.723
2545.73
-595.578
1891.65
-590.928
386.332
-530.753
-926.764
-457.88
-1337.08
-366.755
-1902.4
-222.704
-2771.47
-9.08059
-3709.52
296.758
-4803.9
661.356
-5525.73
1006.25
-5605.33
1306.38
-5600.45
1600.29
-5792.12
1918.6
-5957.38
2254.09
-5881.33
2582.35
-5545.95
2879.51
-5011.4
3130.29
-4348.21
3329.4
-3623.66
3479.31
-2899.12
3586.95
-2218.56
3659.75
-1605.29
3705.83
-1058.61
3740.48
-618.468
3768.26
-303.229
3689.47
626.707
3512.5
1592.47
3311.66
2123.49
3170.04
1515.88
3152.09
333.092
3252.46
-582.389
3393.73
-1039.06
3522.18
-1166.62
3640.83
-1105.61
3701.2
-793.913
3708.24
-720.559
3700.47
-1221.22
3683.81
-1920.51
3709.02
-2595.11
3791.33
-3091.5
3987.5
-3734.42
4367.86
-4607.94
4842.59
-4958.83
5209.3
-4136.03
5397.09
-2394.08
5310.26
250.469
5012.32
2219.64
4650.01
3313.6
4352.69
3675.49
4131.37
3660.1
3949.24
3428.96
3779.86
3054.65
3615
2623.5
3450.17
2232.64
3281.24
1940.25
3109.61
1746.17
2938.92
1628.33
2771.61
1561.28
2605.3
1540.17
2439.26
1558.78
2282.75
1583.52
2141.4
1576.73
2002.63
1536.39
1841.96
1499.74
1561.07
1807.55
1017.3
2723.96
405.125
3778.05
152.869
4455.62
437.467
3908.94
1498.97
855.576
2217.8
-2901.84
2536.53
-4466.64
2828.46
-5191.14
3146.28
-5701.09
3480.68
-6145.22
3828.11
-6533.92
4192.84
-6934.74
4569.07
-7249.77
-7692.87
-746.304
629.415
-771.586
1386.37
-817.606
880.317
-880.6
389.006
-920.678
-214.3
-872.484
-936.093
-790.825
-1155.72
-707.964
-1424.52
-612.795
-2023.35
-497.045
-2713.14
-382.957
-3243.53
-273.808
-3474.91
-139.248
-3396.24
56.0665
-3541.05
288
-3753.32
555.753
-3620.22
615.719
-1566.32
337.221
3099.38
-57.4017
3787.45
-284.151
2630.51
-369.691
2678.58
-512.81
2688.87
-629.679
2008.54
-621.36
378.066
-546.228
-1001.87
-466.838
-1416.44
-374.633
-1994.58
-231.827
-2914.26
-19.0862
-3922.25
285.899
-5108.88
647.221
-5887.05
980.097
-5938.2
1259.7
-5880.05
1537.6
-6070.02
1852.12
-6271.89
2191.66
-6220.87
2525.63
-5879.91
2826.62
-5312.38
3078.53
-4600.11
3276.84
-3821.96
3425.08
-3047.36
3530.97
-2324.43
3601.95
-1676.27
3646.77
-1103.42
3683.43
-655.109
3711.24
-331.029
3620.85
717.133
3421.75
1791.58
3212.27
2333.01
3055.69
1672.46
3053.31
335.504
3187.35
-716.429
3347.88
-1199.57
3485.84
-1304.59
3630.3
-1250.05
3717.13
-880.742
3725.24
-728.661
3678.27
-1174.25
3608.02
-1850.26
3625.99
-2613.09
3749.69
-3215.2
4002.01
-3986.75
4423.43
-5029.35
4911.1
-5446.5
5245.88
-4470.81
5364.24
-2512.44
5206.77
407.94
4853.15
2573.26
4441.33
3725.42
4099.9
4016.92
3852.79
3907.22
3665.2
3616.54
3500.31
3219.54
3342.1
2781.71
3182.61
2392.13
3016.68
2106.18
2847.1
1915.75
2678.65
1796.78
2513.77
1726.16
2349.16
1704.78
2185.14
1722.8
2028.94
1739.72
1872.89
1732.79
1701.62
1707.66
1498.12
1703.24
1164.11
2141.56
603.303
3284.77
114.075
4267.28
142.28
4427.41
676.7
3374.52
1680.7
-148.414
2192.99
-3414.14
2498.71
-4772.36
2794.48
-5486.92
3100.49
-6007.09
3420.27
-6465.01
3756.38
-6870.02
4112.48
-7290.84
4481.84
-7619.14
-8099.22
-752.46
587.739
-760.209
1394.14
-784.984
905.125
-844.971
449.026
-894.859
-164.341
-847.73
-983.167
-759.895
-1243.5
-674.544
-1509.83
-584.909
-2112.95
-475.213
-2822.81
-366.66
-3352.05
-263.685
-3577.86
-128.259
-3531.63
69.4224
-3738.7
306.58
-3990.45
577.116
-3890.73
651.425
-1640.58
408.779
3342.06
9.61545
4186.64
-267.724
2907.87
-369.885
2780.77
-524.807
2843.83
-660.583
2144.35
-645.356
362.917
-556.183
-1091
-470.001
-1502.59
-376.949
-2087.6
-236.63
-3054.55
-26.1305
-4132.73
276.139
-5411.13
630.534
-6241.43
947.716
-6255.36
1207.86
-6140.18
1475.54
-6337.68
1792.02
-6588.36
2138.66
-6567.48
2479.28
-6220.52
2784.33
-5617.42
3037.33
-4853.09
3234.44
-4019.05
3380.22
-3193.12
3483.15
-2427.35
3550.47
-1743.56
3591.65
-1144.58
3629.06
-692.501
3654.38
-356.325
3548.84
822.712
3330.33
2010.11
3120.9
2542.47
2950.11
1843.27
2954.47
331.168
3096.79
-858.745
3254.41
-1357.16
3400.73
-1450.91
3577.16
-1426.46
3684.98
-988.553
3682.2
-725.863
3588.78
-1080.84
3473.36
-1734.83
3514.95
-2654.69
3714.93
-3415.17
4032.1
-4303.92
4467.42
-5464.68
4937.85
-5916.94
5239.2
-4772.17
5300.42