/*--------------------------------*- C++ -*----------------------------------*\
| =========                 |                                                 |
| \\      /  F ield         | OpenFOAM: The Open Source CFD Toolbox           |
|  \\    /   O peration     | Version:  4.1                                   |
|   \\  /    A nd           | Web:      www.OpenFOAM.org                      |
|    \\/     M anipulation  |                                                 |
\*---------------------------------------------------------------------------*/
FoamFile
{
    version     2.0;
    format      ascii;
    class       volVectorField;
    location    "200";
    object      U;
}
// * * * * * * * * * * * * * * * * * * * * * * * * * * * * * * * * * * * * * //

dimensions      [0 1 -1 0 0 0 0];

internalField   nonuniform List<vector> 
26785
(
(-7.08125e-14 0.00663057 -12.4481)
(-6.46435e-14 -0.00502893 -12.5209)
(-6.63539e-14 -0.0116721 -12.317)
(-5.18386e-14 -0.0198765 -11.9517)
(-3.85423e-14 -0.0295495 -11.4157)
(-3.34049e-14 -0.0365665 -10.6806)
(-3.38176e-14 -0.0417087 -9.90171)
(-2.088e-14 -0.0596883 -9.00237)
(-2.51652e-14 -0.0888979 -7.7571)
(-2.80913e-14 -0.116469 -6.09799)
(-3.37639e-14 -0.127348 -4.14237)
(-3.12841e-14 -0.111656 -2.19071)
(-1.68957e-14 -0.0925749 -0.568334)
(-2.16312e-15 -0.109206 0.793829)
(-4.26356e-15 -0.148065 2.36381)
(7.64573e-15 -0.168457 4.35484)
(8.15714e-14 -0.0334184 6.81991)
(2.64454e-15 -0.0668995 5.46368)
(9.68037e-14 -0.115592 4.83316)
(-1.96339e-13 -0.0269737 6.54283)
(-2.08927e-13 0.0394574 6.67393)
(-3.17444e-13 0.249696 1.97226)
(-3.67779e-13 0.191653 -1.54817)
(-3.16445e-13 -0.0141352 -2.62461)
(-2.20074e-13 -0.097889 -1.88866)
(-1.81993e-13 -0.0538445 -1.23448)
(-1.20317e-13 -0.106425 -0.693559)
(-8.23861e-14 -0.203628 0.640473)
(7.92684e-14 -0.170748 3.00848)
(-2.91106e-14 0.0050323 5.65628)
(5.10403e-16 0.0869384 4.90134)
(-4.95194e-14 -0.0136802 5.26302)
(-1.07787e-13 -0.103748 6.28266)
(-1.45151e-13 -0.142121 7.51942)
(-1.01934e-13 -0.150167 8.84161)
(-1.59078e-13 -0.144945 10.1561)
(-1.50117e-13 -0.136381 11.4122)
(-1.33193e-13 -0.12824 12.5858)
(-1.07572e-13 -0.119793 13.6575)
(-8.6012e-14 -0.108822 14.6056)
(-7.52496e-14 -0.0940075 15.4104)
(-3.51103e-14 -0.075627 16.0593)
(-2.73819e-14 -0.05416 16.5447)
(3.86155e-15 -0.0295851 16.8508)
(2.34772e-15 -0.00480233 16.9659)
(7.73881e-15 0.0158201 16.9076)
(-1.39713e-14 0.0336139 16.7084)
(-8.44633e-15 0.0513759 16.3707)
(-1.93306e-15 0.0650606 15.888)
(1.84885e-15 0.0621271 15.3352)
(-1.18341e-14 0.0369796 14.9042)
(-3.40403e-15 0.00813682 14.7053)
(-2.07847e-14 -0.00767795 14.6869)
(-4.85442e-14 -0.0137598 14.7433)
(-8.30417e-14 -0.0157289 14.8208)
(-1.1378e-13 -0.0178445 14.9089)
(-1.33238e-13 -0.0234843 15.0272)
(-1.45706e-13 -0.0322854 15.2097)
(-1.20434e-13 -0.0413613 15.4731)
(-4.48055e-14 -0.0489465 15.8091)
(6.00038e-14 -0.0545563 16.1986)
(2.07985e-13 -0.0575458 16.6208)
(3.94618e-13 -0.055236 17.0433)
(6.15183e-13 -0.045337 17.4214)
(8.32964e-13 -0.0228153 17.686)
(1.04532e-12 0.0109705 17.7482)
(1.24183e-12 0.0392811 17.5856)
(1.41372e-12 0.0562552 17.2715)
(1.54885e-12 0.0696315 16.8695)
(1.63923e-12 0.0813631 16.3875)
(1.684e-12 0.0918312 15.8336)
(1.67724e-12 0.0997583 15.2285)
(1.63758e-12 0.10226 14.6055)
(1.57764e-12 0.097562 14.0058)
(1.51233e-12 0.0870366 13.4622)
(1.44775e-12 0.0748481 12.9854)
(1.39684e-12 0.065598 12.5644)
(1.36089e-12 0.0616714 12.1781)
(1.34079e-12 0.0621336 11.8093)
(1.33216e-12 0.0639169 11.4524)
(1.329e-12 0.064191 11.1103)
(1.32372e-12 0.0620652 10.7876)
(1.30449e-12 0.05857 10.4851)
(1.27111e-12 0.0555366 10.1978)
(1.22288e-12 0.0539487 9.91743)
(1.16487e-12 0.0538169 9.63834)
(1.10205e-12 0.0547523 9.35663)
(1.03906e-12 0.0555302 9.06848)
(9.80176e-13 0.0530433 8.78159)
(9.28086e-13 0.0438812 8.52961)
(8.85754e-13 0.0285721 8.34788)
(8.47665e-13 0.00767208 8.25015)
(8.10291e-13 -0.0219088 8.26187)
(7.78514e-13 -0.0577279 8.43435)
(7.66798e-13 -0.0871983 8.76377)
(7.89822e-13 -0.100691 9.19193)
(8.62502e-13 -0.0993761 9.56808)
(9.86987e-13 -0.0960242 10.0202)
(1.16325e-12 -0.113058 10.2154)
(1.38089e-12 -0.174355 11.3715)
(-1.02406e-13 0.0242636 -12.0469)
(-9.18952e-14 -0.0125994 -12.0914)
(-7.75071e-14 -0.0350027 -11.8549)
(-5.30895e-14 -0.0601916 -11.4658)
(-5.31376e-14 -0.0910189 -10.9372)
(-5.51263e-14 -0.115218 -10.2076)
(-5.0964e-14 -0.129643 -9.39163)
(-6.24322e-14 -0.17291 -8.47009)
(-7.43878e-14 -0.24158 -7.28881)
(-9.48109e-14 -0.306804 -5.82395)
(-1.16418e-13 -0.337733 -4.15809)
(-1.37642e-13 -0.306363 -2.45471)
(-1.36568e-13 -0.253121 -0.939739)
(-1.12266e-13 -0.269424 0.27331)
(-6.39083e-14 -0.328082 1.35888)
(-5.66921e-14 -0.339012 2.51481)
(2.3793e-14 -0.0877854 3.81889)
(-4.8429e-14 -0.113285 3.99832)
(8.47745e-14 -0.33423 3.1152)
(4.1253e-13 -0.0878469 6.46597)
(4.54858e-14 0.283179 4.99869)
(-1.68791e-13 0.673639 0.779159)
(-2.79221e-13 0.512689 -1.0373)
(-2.03731e-13 0.079477 -1.65432)
(-1.16069e-13 -0.162534 -1.48652)
(-7.92601e-14 -0.0712326 -1.04066)
(-3.92024e-14 -0.130895 -0.321893)
(3.20913e-14 -0.36285 0.10493)
(2.7667e-14 -0.406519 1.20277)
(5.65877e-14 -0.237577 2.479)
(-4.30252e-14 -0.123102 3.39574)
(-7.89816e-15 -0.235374 4.62863)
(-4.54498e-14 -0.344321 5.89536)
(-6.81245e-14 -0.394019 7.13428)
(-5.94711e-14 -0.408502 8.38311)
(-7.27994e-14 -0.404129 9.62581)
(-7.37084e-14 -0.388713 10.8233)
(-8.34674e-14 -0.364356 11.9349)
(-9.66412e-14 -0.33109 12.9258)
(-1.09373e-13 -0.290129 13.7734)
(-1.19981e-13 -0.243673 14.4703)
(-1.34152e-13 -0.193787 15.0212)
(-1.13242e-13 -0.13993 15.4359)
(-1.22026e-13 -0.0791022 15.7144)
(-9.36542e-14 -0.0165624 15.8569)
(-7.19244e-14 0.0374012 15.8787)
(-2.34478e-14 0.0880843 15.7929)
(-1.39143e-14 0.142938 15.5739)
(4.30822e-15 0.187546 15.1959)
(-1.71851e-14 0.183129 14.7179)
(2.70474e-15 0.114815 14.3411)
(-2.0407e-14 0.0372516 14.1386)
(-2.53982e-14 -0.00619508 14.0848)
(-3.58688e-14 -0.0248 14.1004)
(-6.90637e-14 -0.0328499 14.1433)
(-9.95942e-14 -0.0421999 14.209)
(-1.07609e-13 -0.0634359 14.3209)
(-1.06254e-13 -0.0961516 14.5174)
(-6.10349e-14 -0.130948 14.816)
(6.01657e-14 -0.160359 15.2018)
(2.24819e-13 -0.180768 15.6441)
(4.37711e-13 -0.189648 16.1124)
(6.64646e-13 -0.180168 16.569)
(8.95598e-13 -0.147208 16.9723)
(1.12305e-12 -0.0783396 17.2543)
(1.32007e-12 0.0229055 17.3385)
(1.48604e-12 0.110629 17.204)
(1.61566e-12 0.166811 16.9023)
(1.70788e-12 0.212793 16.5052)
(1.74216e-12 0.252504 16.0207)
(1.73673e-12 0.284221 15.4605)
(1.70101e-12 0.303038 14.8499)
(1.64366e-12 0.30341 14.224)
(1.58699e-12 0.285965 13.6208)
(1.53958e-12 0.258787 13.0679)
(1.51384e-12 0.232258 12.5767)
(1.49718e-12 0.212875 12.1469)
(1.49697e-12 0.200871 11.774)
(1.51425e-12 0.192373 11.4514)
(1.53535e-12 0.183624 11.1675)
(1.55285e-12 0.173632 10.9052)
(1.55122e-12 0.163969 10.6462)
(1.51867e-12 0.156888 10.3789)
(1.46199e-12 0.153969 10.0993)
(1.38658e-12 0.154509 9.80828)
(1.30115e-12 0.157418 9.50965)
(1.21155e-12 0.162224 9.20558)
(1.12538e-12 0.165047 8.89648)
(1.06025e-12 0.15563 8.59748)
(1.02587e-12 0.125183 8.34552)
(1.01011e-12 0.0798868 8.16798)
(9.92272e-13 0.02461 8.06196)
(9.63997e-13 -0.0527204 8.02744)
(9.39798e-13 -0.148787 8.10173)
(9.4383e-13 -0.222382 8.30443)
(9.93712e-13 -0.242739 8.62503)
(1.09069e-12 -0.227405 8.94973)
(1.2262e-12 -0.240087 9.42949)
(1.38718e-12 -0.334439 9.73847)
(1.53495e-12 -0.514411 10.9969)
(-3.77436e-14 0.0448927 -11.5012)
(-2.30005e-14 -0.0223883 -11.6129)
(5.08658e-15 -0.0593377 -11.4006)
(4.33897e-14 -0.0986431 -11.0532)
(2.12204e-14 -0.147444 -10.588)
(2.00829e-14 -0.190493 -9.91724)
(-2.67393e-15 -0.218336 -9.13166)
(-4.72889e-14 -0.288165 -8.23385)
(-6.11712e-14 -0.392363 -7.08926)
(-8.09545e-14 -0.487505 -5.68656)
(-1.02388e-13 -0.533915 -4.10064)
(-1.32134e-13 -0.492323 -2.45985)
(-1.68565e-13 -0.412793 -0.973323)
(-1.81867e-13 -0.422559 0.18547)
(-1.79313e-13 -0.480976 1.12079)
(-1.36331e-13 -0.470635 2.06514)
(-8.37379e-14 -0.131919 3.08111)
(-1.71927e-15 -0.123941 3.70885)
(1.17956e-13 -0.501229 2.58246)
(3.02504e-13 -0.14544 6.52435)
(8.40061e-14 0.617074 3.6959)
(-8.47084e-15 1.02531 0.647712)
(-1.78299e-13 0.718328 -0.514701)
(-1.21613e-13 0.137622 -1.42911)
(-4.76929e-14 -0.266598 -1.49625)
(2.16267e-14 -0.218674 -1.14913)
(7.31403e-14 -0.240438 -0.282807)
(1.00217e-13 -0.468637 0.1505)
(1.23255e-13 -0.566393 0.952273)
(1.07812e-13 -0.474587 1.78678)
(9.11016e-14 -0.385189 2.92143)
(2.89368e-14 -0.482262 4.2636)
(2.91976e-14 -0.586199 5.55026)
(4.00666e-14 -0.643383 6.7878)
(2.18008e-14 -0.664601 8.03121)
(2.3154e-14 -0.658693 9.2645)
(1.69634e-14 -0.632095 10.4407)
(3.58769e-15 -0.588532 11.516)
(-1.36761e-14 -0.530266 12.4594)
(-2.825e-14 -0.460937 13.2538)
(-4.28716e-14 -0.385002 13.8938)
(-6.12578e-14 -0.306558 14.385)
(-7.65832e-14 -0.225949 14.7392)
(-8.81758e-14 -0.139016 14.9649)
(-9.44481e-14 -0.0521663 15.0749)
(-9.44504e-14 0.0226789 15.0922)
(-8.54328e-14 0.0998913 15.0224)
(-7.1553e-14 0.191334 14.8272)
(-5.72086e-14 0.270533 14.472)
(-5.01309e-14 0.269539 14.0123)
(-5.31046e-14 0.169102 13.6598)
(-6.93216e-14 0.058297 13.4534)
(-9.45114e-14 -0.00472673 13.3864)
(-1.20389e-13 -0.0352131 13.399)
(-1.36449e-13 -0.052363 13.4557)
(-1.37523e-13 -0.0737614 13.5522)
(-1.07389e-13 -0.11628 13.7088)
(-4.26816e-14 -0.1779 13.9576)
(8.1307e-14 -0.240495 14.3064)
(2.45924e-13 -0.289947 14.7301)
(4.59595e-13 -0.320554 15.1937)
(6.95841e-13 -0.330304 15.6692)
(9.40312e-13 -0.310388 16.1244)
(1.17172e-12 -0.253313 16.5252)
(1.37981e-12 -0.140168 16.8036)
(1.54121e-12 0.0254145 16.8879)
(1.66884e-12 0.173867 16.7622)
(1.77266e-12 0.271437 16.4542)
(1.82889e-12 0.349799 16.0473)
(1.83374e-12 0.416436 15.5503)
(1.79405e-12 0.469891 14.9768)
(1.73064e-12 0.502903 14.3517)
(1.663e-12 0.506445 13.707)
(1.61562e-12 0.480326 13.0799)
(1.59397e-12 0.434856 12.5054)
(1.59214e-12 0.383752 12.0108)
(1.60413e-12 0.337045 11.6136)
(1.62878e-12 0.29934 11.3167)
(1.66314e-12 0.272143 11.1017)
(1.69628e-12 0.256141 10.9288)
(1.7123e-12 0.250725 10.7492)
(1.69866e-12 0.253038 10.5277)
(1.65432e-12 0.259056 10.2553)
(1.58179e-12 0.266387 9.9427)
(1.49235e-12 0.273237 9.60647)
(1.39593e-12 0.279725 9.26175)
(1.30416e-12 0.286557 8.9174)
(1.23429e-12 0.286763 8.58038)
(1.20607e-12 0.264174 8.27512)
(1.21465e-12 0.208918 8.03355)
(1.22567e-12 0.136418 7.8569)
(1.21029e-12 0.05991 7.71677)
(1.16918e-12 -0.0409347 7.59737)
(1.14991e-12 -0.177789 7.54127)
(1.19655e-12 -0.306072 7.61883)
(1.29655e-12 -0.382471 7.88761)
(1.4193e-12 -0.417961 8.27384)
(1.55752e-12 -0.490857 8.92825)
(1.69889e-12 -0.657025 9.44647)
(1.8122e-12 -0.901631 10.8418)
(-1.10158e-14 0.0758233 -10.886)
(1.50547e-14 -0.0219088 -11.1201)
(5.33072e-14 -0.0756016 -10.9548)
(4.03955e-14 -0.128516 -10.6503)
(2.72276e-14 -0.195697 -10.2421)
(1.84869e-14 -0.259141 -9.63307)
(2.35891e-15 -0.30095 -8.90506)
(-3.07394e-15 -0.396796 -8.07719)
(-1.48949e-14 -0.53641 -7.01256)
(-3.17313e-14 -0.663108 -5.68478)
(-5.04648e-14 -0.728824 -4.14555)
(-7.21411e-14 -0.679869 -2.49913)
(-9.65425e-14 -0.568534 -0.978224)
(-1.16496e-13 -0.560502 0.157939)
(-1.05525e-13 -0.612471 1.0146)
(-1.19251e-13 -0.58163 1.92864)
(-1.40661e-13 -0.200323 2.73002)
(-6.01051e-14 -0.105415 4.15526)
(8.29493e-14 -0.588448 2.64912)
(7.84049e-14 0.0409857 5.09062)
(1.02061e-13 0.922513 1.87736)
(2.11721e-14 1.24806 0.492175)
(-1.14638e-13 0.910871 -0.446786)
(-1.11906e-13 0.244613 -1.5864)
(-1.0536e-14 -0.320026 -1.54807)
(5.02091e-14 -0.331188 -1.36594)
(9.21782e-14 -0.365891 -0.585909)
(1.2423e-13 -0.57906 -0.130093)
(1.51399e-13 -0.697319 0.590388)
(1.26591e-13 -0.670957 1.42025)
(1.06028e-13 -0.645111 2.614)
(9.14187e-14 -0.738753 3.96263)
(1.02448e-13 -0.834346 5.24327)
(1.20074e-13 -0.895478 6.48219)
(1.25607e-13 -0.921756 7.73297)
(9.57981e-14 -0.913022 8.97142)
(1.15248e-13 -0.873138 10.1419)
(8.0227e-14 -0.807423 11.1988)
(5.37739e-14 -0.720951 12.1161)
(7.69273e-14 -0.620117 12.8833)
(4.11346e-14 -0.511555 13.4977)
(-6.40128e-15 -0.401049 13.9631)
(-2.50039e-14 -0.290049 14.2881)
(-4.13324e-14 -0.174106 14.4806)
(-8.11399e-14 -0.0610036 14.5587)
(-9.96136e-14 0.0353918 14.5521)
(-1.24876e-13 0.13917 14.4613)
(-1.27399e-13 0.265127 14.2428)
(-1.03264e-13 0.373913 13.8623)
(-8.35266e-14 0.368004 13.3955)
(-1.0405e-13 0.230607 13.0731)
(-1.2415e-13 0.0859734 12.9011)
(-1.82018e-13 -0.00123884 12.8813)
(-1.92038e-13 -0.0511771 12.9526)
(-1.68765e-13 -0.0834572 13.0673)
(-1.29631e-13 -0.119533 13.2095)
(-5.50253e-14 -0.182451 13.3914)
(4.29472e-14 -0.269048 13.6433)
(2.15109e-13 -0.353803 13.9761)
(4.17772e-13 -0.418191 14.3722)
(6.57707e-13 -0.455969 14.8052)
(8.95399e-13 -0.465993 15.2543)
(1.1377e-12 -0.436707 15.6907)
(1.34875e-12 -0.356898 16.083)
(1.52375e-12 -0.201251 16.3562)
(1.66043e-12 0.0272521 16.4388)
(1.76778e-12 0.238805 16.3198)
(1.85011e-12 0.381416 16.0026)
(1.88674e-12 0.494915 15.5825)
(1.87949e-12 0.589779 15.0655)
(1.83278e-12 0.664931 14.4682)
(1.77414e-12 0.711415 13.8187)
(1.7116e-12 0.717125 13.1485)
(1.67509e-12 0.68029 12.4944)
(1.65732e-12 0.611849 11.8939)
(1.64923e-12 0.527915 11.3792)
(1.6554e-12 0.443194 10.9729)
(1.67187e-12 0.370222 10.6828)
(1.7038e-12 0.320369 10.4931)
(1.73151e-12 0.301173 10.3603)
(1.7396e-12 0.31055 10.2255)
(1.71927e-12 0.336466 10.0425)
(1.67356e-12 0.364643 9.79774)
(1.60857e-12 0.387431 9.50168)
(1.53177e-12 0.402116 9.17226)
(1.45754e-12 0.410688 8.82909)
(1.39928e-12 0.415324 8.48723)
(1.37641e-12 0.405241 8.16414)
(1.39933e-12 0.361526 7.89254)
(1.43972e-12 0.282705 7.68415)
(1.4485e-12 0.197874 7.49437)
(1.40535e-12 0.120862 7.27887)
(1.3366e-12 0.0119539 7.04478)
(1.33947e-12 -0.168775 6.88498)
(1.46786e-12 -0.372795 6.92417)
(1.65686e-12 -0.534694 7.23525)
(1.83601e-12 -0.651684 7.73468)
(1.98437e-12 -0.802251 8.55636)
(2.09609e-12 -1.03335 9.21499)
(2.12527e-12 -1.29451 10.6363)
(6.74936e-15 0.108519 -10.2182)
(1.96877e-14 -0.0105003 -10.6182)
(3.89157e-14 -0.0882889 -10.5305)
(5.79676e-14 -0.155566 -10.2756)
(4.55604e-14 -0.239406 -9.92178)
(4.40889e-14 -0.321786 -9.36887)
(2.97647e-14 -0.375728 -8.70224)
(2.31378e-14 -0.495703 -7.95863)
(1.90138e-14 -0.670094 -6.99409)
(4.66819e-16 -0.83077 -5.76691)
(-8.28375e-15 -0.922502 -4.30775)
(-3.35167e-14 -0.874499 -2.68725)
(-5.02036e-14 -0.73209 -1.13397)
(-5.94231e-14 -0.699817 0.0188892)
(-3.26123e-14 -0.747121 0.83211)
(-2.20888e-14 -0.692828 1.71295)
(-7.34866e-14 -0.370817 2.1541)
(-1.70813e-13 -0.125993 4.75449)
(1.50717e-14 -0.520817 3.0221)
(7.51232e-14 0.225602 2.28197)
(7.3363e-16 1.09031 0.505689)
(-6.67042e-14 1.3667 -0.0653133)
(-1.17548e-13 1.10152 -0.85113)
(-9.21082e-14 0.351432 -1.74946)
(4.70623e-14 -0.36228 -1.58274)
(7.62838e-14 -0.408941 -1.4663)
(1.25479e-13 -0.469233 -0.811824)
(1.00395e-13 -0.687806 -0.361509)
(1.49733e-13 -0.835827 0.332077)
(1.37575e-13 -0.881981 1.17151)
(1.32175e-13 -0.910554 2.38045)
(1.34275e-13 -0.996951 3.71485)
(1.33758e-13 -1.08359 4.98337)
(1.40712e-13 -1.15009 6.22155)
(1.37065e-13 -1.1816 7.47674)
(1.09462e-13 -1.16788 8.71392)
(1.06964e-13 -1.11192 9.87192)
(1.11214e-13 -1.02267 10.9073)
(1.11256e-13 -0.90879 11.8002)
(1.02845e-13 -0.778708 12.5459)
(8.46152e-14 -0.639926 13.1451)
(5.68856e-14 -0.498889 13.6022)
(3.63977e-14 -0.358345 13.9234)
(-1.36337e-14 -0.214835 14.1145)
(-5.05197e-14 -0.0776708 14.1929)
(-8.42222e-14 0.038312 14.1869)
(-1.0807e-13 0.169776 14.0874)
(-1.27515e-13 0.331586 13.8453)
(-1.42322e-13 0.467403 13.4387)
(-1.48844e-13 0.447129 12.9816)
(-1.98355e-13 0.266591 12.7212)
(-2.1804e-13 0.0888484 12.6202)
(-2.48154e-13 -0.0216207 12.6745)
(-2.3833e-13 -0.0869807 12.7981)
(-2.01778e-13 -0.126037 12.9285)
(-1.4262e-13 -0.166381 13.0493)
(-2.0589e-14 -0.240411 13.1803)
(1.3132e-13 -0.346353 13.3682)
(3.3326e-13 -0.451856 13.6402)
(5.48404e-13 -0.533147 13.9875)
(7.87573e-13 -0.581691 14.3855)
(1.02295e-12 -0.596011 14.8125)
(1.25698e-12 -0.561139 15.2379)
(1.44888e-12 -0.461395 15.6315)
(1.60011e-12 -0.265743 15.9083)
(1.71563e-12 0.0236688 15.9938)
(1.79204e-12 0.299982 15.8847)
(1.85013e-12 0.490327 15.5595)
(1.87346e-12 0.641327 15.1255)
(1.87429e-12 0.766042 14.5826)
(1.84226e-12 0.863843 13.9535)
(1.7969e-12 0.924373 13.2776)
(1.74783e-12 0.932924 12.5938)
(1.71921e-12 0.886505 11.9408)
(1.69506e-12 0.796877 11.3524)
(1.67899e-12 0.682392 10.8522)
(1.6679e-12 0.561031 10.4507)
(1.66448e-12 0.450407 10.1452)
(1.68213e-12 0.370012 9.92054)
(1.70342e-12 0.336629 9.74713)
(1.71239e-12 0.351441 9.58483)
(1.69813e-12 0.39591 9.39897)
(1.6556e-12 0.445495 9.17409)
(1.60342e-12 0.486305 8.9088)
(1.55287e-12 0.512854 8.61166)
(1.51238e-12 0.52682 8.30264)
(1.49478e-12 0.529212 8.00218)
(1.51621e-12 0.505032 7.73682)
(1.57063e-12 0.441449 7.53085)
(1.61638e-12 0.356701 7.34619)
(1.60234e-12 0.287076 7.09045)
(1.5208e-12 0.226494 6.74652)
(1.44192e-12 0.105402 6.38944)
(1.5085e-12 -0.147046 6.1856)
(1.74797e-12 -0.462713 6.29962)
(2.00063e-12 -0.740755 6.76088)
(2.16036e-12 -0.958209 7.42118)
(2.22759e-12 -1.17598 8.37119)
(2.25398e-12 -1.43139 9.0805)
(2.22203e-12 -1.6787 10.4189)
(-7.94721e-15 0.16635 -9.55003)
(2.03848e-14 0.0137515 -10.0961)
(3.01852e-14 -0.0910949 -10.1116)
(4.06903e-14 -0.174968 -9.90987)
(4.32976e-14 -0.275695 -9.60208)
(3.58213e-14 -0.377448 -9.09046)
(3.13139e-14 -0.441305 -8.46384)
(2.3192e-14 -0.582274 -7.77985)
(8.59125e-15 -0.789291 -6.89429)
(5.38403e-15 -0.983903 -5.76088)
(2.11668e-14 -1.10591 -4.40512)
(6.69983e-15 -1.06776 -2.8655)
(3.68395e-16 -0.899963 -1.33527)
(3.34962e-15 -0.837797 -0.158062)
(1.56459e-14 -0.87394 0.674683)
(1.63656e-14 -0.779236 1.57194)
(-2.56296e-14 -0.585194 1.73876)
(-1.36065e-13 -0.152847 5.23544)
(-2.77972e-14 -0.35992 3.12571)
(1.00927e-14 0.442714 0.320904)
(-8.66034e-14 1.16126 -0.753533)
(-1.06024e-13 1.42643 -1.0449)
(-1.07266e-13 1.23683 -1.4943)
(-4.4972e-14 0.411098 -1.79758)
(1.10289e-13 -0.405612 -1.62905)
(9.0452e-14 -0.475394 -1.5559)
(1.13519e-13 -0.55886 -1.00711)
(1.41978e-13 -0.789546 -0.562239)
(1.33202e-13 -0.971794 0.119735)
(1.73708e-13 -1.08848 0.980551)
(1.34606e-13 -1.16869 2.19602)
(1.32486e-13 -1.25098 3.51401)
(1.39063e-13 -1.33105 4.76929)
(1.37723e-13 -1.40402 6.00533)
(1.29195e-13 -1.44055 7.2627)
(1.1222e-13 -1.42039 8.49518)
(1.26499e-13 -1.34663 9.63742)
(1.35043e-13 -1.23257 10.6486)
(1.35067e-13 -1.09073 11.5134)
(1.30325e-13 -0.931688 12.231)
(1.29855e-13 -0.763814 12.8059)
(1.02073e-13 -0.593667 13.2472)
(5.9e-14 -0.424589 13.5638)
(5.21591e-14 -0.253453 13.7627)
(6.33833e-15 -0.0895922 13.8596)
(-4.08449e-14 0.0504759 13.8798)
(-8.96143e-14 0.215493 13.8013)
(-1.32102e-13 0.41456 13.5675)
(-1.7258e-13 0.570006 13.1705)
(-2.07953e-13 0.521447 12.7608)
(-2.33234e-13 0.290635 12.5659)
(-2.43109e-13 0.0815051 12.5176)
(-2.36301e-13 -0.0463139 12.6)
(-2.08035e-13 -0.118023 12.712)
(-1.55364e-13 -0.15496 12.798)
(-7.39811e-14 -0.193372 12.853)
(4.15977e-14 -0.276884 12.9095)
(1.97107e-13 -0.405269 13.0311)
(3.96086e-13 -0.53683 13.2545)
(6.17056e-13 -0.640123 13.5692)
(8.57687e-13 -0.703089 13.9453)
(1.09622e-12 -0.724541 14.3599)
(1.31741e-12 -0.686787 14.784)
(1.48753e-12 -0.568858 15.1908)
(1.62277e-12 -0.333948 15.4821)
(1.71246e-12 0.0163195 15.5762)
(1.79288e-12 0.3603 15.4808)
(1.84522e-12 0.602253 15.146)
(1.865e-12 0.7953 14.6908)
(1.869e-12 0.953003 14.1091)
(1.84555e-12 1.07255 13.4377)
(1.811e-12 1.14149 12.7381)
(1.77607e-12 1.14453 12.0629)
(1.74396e-12 1.08055 11.4514)
(1.70965e-12 0.965261 10.9275)
(1.6853e-12 0.822017 10.4971)
(1.66318e-12 0.673547 10.1488)
(1.65267e-12 0.540915 9.85807)
(1.6591e-12 0.44541 9.59678)
(1.67646e-12 0.404422 9.34426)
(1.68781e-12 0.418533 9.0927)
(1.67913e-12 0.467813 8.84168)
(1.65405e-12 0.526301 8.58841)
(1.62348e-12 0.577757 8.32516)
(1.60352e-12 0.611178 8.05321)
(1.59265e-12 0.624454 7.78979)
(1.60057e-12 0.616443 7.55235)
(1.64385e-12 0.573738 7.36372)
(1.70255e-12 0.503078 7.21026)
(1.7248e-12 0.445676 6.98399)
(1.66914e-12 0.422628 6.58876)
(1.55948e-12 0.382501 6.09477)
(1.50437e-12 0.220473 5.64124)
(1.67252e-12 -0.154417 5.48601)
(1.9918e-12 -0.624293 5.8307)
(2.21438e-12 -1.02194 6.54492)
(2.28467e-12 -1.31196 7.35312)
(2.27575e-12 -1.55805 8.33603)
(2.26635e-12 -1.80179 9.01887)
(2.24057e-12 -2.02336 10.2415)
(-1.20177e-14 0.236009 -8.79787)
(1.18952e-14 0.0549271 -9.55391)
(1.75393e-14 -0.0853713 -9.6853)
(-2.70678e-16 -0.190287 -9.54044)
(-9.10423e-15 -0.309018 -9.26458)
(2.78004e-15 -0.43028 -8.76925)
(2.94013e-14 -0.502001 -8.15139)
(1.22264e-14 -0.660906 -7.49837)
(1.7149e-14 -0.897187 -6.67246)
(3.70206e-14 -1.12252 -5.62476)
(3.3614e-14 -1.27427 -4.38249)
(2.71022e-14 -1.25124 -2.95407)
(2.77415e-14 -1.06671 -1.48932)
(2.84764e-14 -0.979379 -0.309564)
(2.62608e-14 -1.00722 0.563571)
(3.67305e-14 -0.859673 1.53676)
(-3.00439e-14 -0.803501 1.6857)
(-6.94986e-14 -0.148684 5.6166)
(-2.65248e-14 0.0205147 1.16415)
(-2.68835e-14 0.669358 -1.03838)
(-1.07707e-13 1.21541 -1.87712)
(-1.1931e-13 1.44654 -1.9979)
(-1.15039e-13 1.28079 -2.0268)
(2.34234e-14 0.423584 -1.76384)
(1.1287e-13 -0.430091 -1.66371)
(9.8904e-14 -0.528197 -1.63101)
(1.2354e-13 -0.641284 -1.16614)
(1.20537e-13 -0.892521 -0.729677)
(1.21441e-13 -1.11265 -0.0502537)
(1.59396e-13 -1.29697 0.833346)
(1.30467e-13 -1.42389 2.05275)
(1.22585e-13 -1.50287 3.3569)
(1.26243e-13 -1.57816 4.60019)
(1.22028e-13 -1.65865 5.83348)
(1.17654e-13 -1.69958 7.09133)
(1.25071e-13 -1.67086 8.31802)
(1.41113e-13 -1.57713 9.44536)
(1.40888e-13 -1.43684 10.4345)
(1.36489e-13 -1.26649 11.2719)
(1.33685e-13 -1.07884 11.9581)
(1.45063e-13 -0.883439 12.5002)
(1.32005e-13 -0.687177 12.9121)
(1.41549e-13 -0.493898 13.2087)
(1.0831e-13 -0.300438 13.4024)
(7.33045e-14 -0.11477 13.5099)
(3.02553e-14 0.0462444 13.5632)
(-2.14103e-14 0.245874 13.5282)
(-1.02295e-13 0.482213 13.3385)
(-1.56475e-13 0.654464 12.983)
(-2.08186e-13 0.574629 12.6315)
(-2.18476e-13 0.299614 12.4649)
(-2.07441e-13 0.0684654 12.4243)
(-1.73686e-13 -0.0672721 12.4939)
(-1.51727e-13 -0.138513 12.5705)
(-1.03953e-13 -0.169506 12.6088)
(-3.07478e-14 -0.204252 12.6095)
(7.63069e-14 -0.298341 12.6104)
(2.22834e-13 -0.452737 12.684)
(4.2891e-13 -0.613885 12.8701)
(6.59357e-13 -0.741703 13.155)
(9.04313e-13 -0.821126 13.5087)
(1.1277e-12 -0.852793 13.9141)
(1.31146e-12 -0.816305 14.3466)
(1.44305e-12 -0.682992 14.7811)
(1.54882e-12 -0.409366 15.0988)
(1.63212e-12 0.00232089 15.2062)
(1.71012e-12 0.41865 15.1262)
(1.78648e-12 0.719134 14.777)
(1.82607e-12 0.961106 14.2923)
(1.84823e-12 1.1542 13.665)
(1.83678e-12 1.29054 12.9524)
(1.82126e-12 1.35669 12.2394)
(1.79599e-12 1.34111 11.5873)
(1.76394e-12 1.24929 11.0292)
(1.72948e-12 1.10416 10.5729)
(1.69235e-12 0.935547 10.2053)
(1.66435e-12 0.77091 9.897)
(1.65132e-12 0.63289 9.60988)
(1.66083e-12 0.539683 9.31225)
(1.68008e-12 0.502061 8.99445)
(1.69703e-12 0.515316 8.67081)
(1.70561e-12 0.560353 8.36238)
(1.69725e-12 0.615293 8.07879)
(1.6843e-12 0.664624 7.81611)
(1.68137e-12 0.693443 7.57319)
(1.69078e-12 0.697952 7.35837)
(1.71826e-12 0.676209 7.1781)
(1.76692e-12 0.622826 7.04017)
(1.80994e-12 0.577686 6.87311)
(1.79249e-12 0.587844 6.51674)
(1.69399e-12 0.622419 5.95523)
(1.5728e-12 0.579823 5.34426)
(1.57763e-12 0.329339 4.8107)
(1.9453e-12 -0.249379 4.8662)
(2.37217e-12 -0.913071 5.59575)
(2.56307e-12 -1.38618 6.53975)
(2.57941e-12 -1.68664 7.39076)
(2.53361e-12 -1.92602 8.32081)
(2.49052e-12 -2.14476 8.95052)
(2.40507e-12 -2.34443 10.0826)
(2.04607e-14 0.302317 -8.03425)
(1.04246e-14 0.114526 -8.99295)
(2.23371e-14 -0.0685852 -9.24177)
(1.51913e-14 -0.199429 -9.15178)
(2.61512e-14 -0.338294 -8.88633)
(4.36216e-14 -0.480546 -8.38286)
(4.43447e-14 -0.558059 -7.75163)
(4.2666e-14 -0.731161 -7.12081)
(4.24272e-14 -0.993078 -6.359)
(5.18279e-14 -1.24572 -5.40358)
(4.1715e-14 -1.42585 -4.2826)
(3.73829e-14 -1.42179 -2.97621)
(3.73379e-14 -1.22823 -1.59273)
(3.6262e-14 -1.12093 -0.424528)
(2.55278e-14 -1.14577 0.481138)
(8.36473e-15 -0.946361 1.49734)
(-2.18153e-14 -1.01414 1.79521)
(-1.50311e-13 -0.0864171 4.90129)
(-7.63142e-14 0.400477 -0.146905)
(-3.18386e-14 0.867771 -1.79958)
(-1.01085e-13 1.26068 -2.55829)
(-9.89396e-14 1.42155 -2.57734)
(-6.49098e-14 1.24923 -2.34988)
(6.47171e-14 0.405072 -1.76981)
(9.63699e-14 -0.447371 -1.71387)
(9.13651e-14 -0.568843 -1.69961)
(1.09629e-13 -0.716549 -1.29994)
(5.47002e-14 -0.994545 -0.867479)
(1.04755e-13 -1.25604 -0.183066)
(1.07684e-13 -1.50581 0.719868)
(1.17281e-13 -1.67551 1.94223)
(1.16898e-13 -1.75173 3.23619)
(1.11592e-13 -1.82351 4.46911)
(1.12154e-13 -1.91238 5.69835)
(1.09314e-13 -1.95745 6.95379)
(1.31204e-13 -1.91894 8.17307)
(1.38805e-13 -1.80378 9.287)
(1.35304e-13 -1.63584 10.2582)
(1.33505e-13 -1.43549 11.0732)
(1.3856e-13 -1.21781 11.732)
(1.54432e-13 -0.994169 12.2418)
(1.67001e-13 -0.772276 12.6195)
(1.68596e-13 -0.556726 12.8849)
(1.42946e-13 -0.344189 13.0562)
(1.27591e-13 -0.140838 13.1528)
(1.00578e-13 0.0366787 13.2253)
(5.36931e-14 0.269123 13.2319)
(-9.25769e-15 0.54116 13.095)
(-9.41158e-14 0.730219 12.7806)
(-1.3893e-13 0.622686 12.4625)
(-1.48529e-13 0.309854 12.2953)
(-1.61405e-13 0.0601325 12.2507)
(-1.27673e-13 -0.0812509 12.3154)
(-9.33874e-14 -0.15062 12.3778)
(-4.56493e-14 -0.174303 12.3938)
(2.39096e-14 -0.203666 12.3636)
(1.38366e-13 -0.307745 12.324)
(2.66506e-13 -0.489021 12.3512)
(4.78742e-13 -0.680992 12.4913)
(7.138e-13 -0.835662 12.7384)
(9.47364e-13 -0.935411 13.0704)
(1.12352e-12 -0.98298 13.4758)
(1.24761e-12 -0.953562 13.9305)
(1.33163e-12 -0.807095 14.4063)
(1.39672e-12 -0.49287 14.7574)
(1.45946e-12 -0.0173766 14.8756)
(1.5424e-12 0.476396 14.8052)
(1.63172e-12 0.841341 14.4345)
(1.71876e-12 1.13726 13.9192)
(1.7846e-12 1.36644 13.2532)
(1.81396e-12 1.51435 12.511)
(1.82074e-12 1.56868 11.7915)
(1.80665e-12 1.52598 11.1551)
(1.78002e-12 1.40176 10.6245)
(1.74289e-12 1.22716 10.1955)
(1.70869e-12 1.03791 9.84575)
(1.67923e-12 0.864903 9.54016)
(1.66106e-12 0.730223 9.23964)
(1.66753e-12 0.646103 8.91702)
(1.69001e-12 0.614719 8.57175)
(1.72089e-12 0.625824 8.22773)
(1.74467e-12 0.661617 7.91106)
(1.7558e-12 0.70513 7.63287)
(1.76364e-12 0.743922 7.38673)
(1.77311e-12 0.762162 7.16728)
(1.79034e-12 0.75537 6.98102)
(1.81789e-12 0.72143 6.82973)
(1.86063e-12 0.675428 6.69491)
(1.87694e-12 0.690656 6.44638)
(1.81812e-12 0.785708 5.93144)
(1.69051e-12 0.864421 5.25676)
(1.56717e-12 0.800807 4.52777)
(1.7632e-12 0.39993 3.94617)
(2.50001e-12 -0.507914 4.52516)
(3.0035e-12 -1.32217 5.62635)
(3.14194e-12 -1.77432 6.62671)
(3.1127e-12 -2.03546 7.4165)
(3.02893e-12 -2.26253 8.26233)
(2.93676e-12 -2.46231 8.83396)
(2.74258e-12 -2.64438 9.908)
(2.86724e-14 0.356578 -7.31517)
(2.12813e-14 0.19126 -8.43022)
(1.26545e-14 -0.0414502 -8.77834)
(1.69438e-14 -0.2048 -8.73971)
(4.17429e-14 -0.367532 -8.46873)
(2.86788e-14 -0.531624 -7.94833)
(2.49856e-14 -0.611369 -7.29846)
(3.20191e-14 -0.793607 -6.6988)
(4.67058e-14 -1.07726 -6.01743)
(5.51283e-14 -1.35412 -5.16024)
(4.19452e-14 -1.56098 -4.15662)
(3.90016e-14 -1.57889 -2.96801)
(3.33275e-14 -1.3838 -1.66817)
(3.5384e-14 -1.26213 -0.510131)
(2.07436e-14 -1.28712 0.433236)
(1.20491e-14 -1.04919 1.42564)
(-6.55001e-15 -1.14374 2.0394)
(-9.85546e-14 0.0422594 3.37301)
(-6.12328e-14 0.773915 -1.03507)
(6.96665e-15 1.03581 -2.16218)
(-6.62154e-14 1.29748 -2.83546)
(-5.38935e-14 1.38104 -2.80676)
(1.92495e-14 1.18526 -2.54951)
(1.46531e-13 0.362393 -1.86296)
(6.69126e-14 -0.468744 -1.82491)
(6.33964e-14 -0.603565 -1.76741)
(5.6145e-14 -0.787577 -1.41444)
(8.23047e-14 -1.09815 -0.979661)
(8.34326e-14 -1.40283 -0.286095)
(9.38858e-14 -1.7156 0.630937)
(1.09525e-13 -1.92491 1.85694)
(1.04523e-13 -1.99861 3.14477)
(1.12947e-13 -2.06755 4.36896)
(1.18195e-13 -2.16513 5.59124)
(1.07e-13 -2.21388 6.83845)
(1.11622e-13 -2.16468 8.04546)
(1.24028e-13 -2.02736 9.14456)
(1.2973e-13 -1.83112 10.1)
(1.36274e-13 -1.59989 10.8978)
(1.48006e-13 -1.35105 11.536)
(1.58669e-13 -1.09808 12.0211)
(1.6552e-13 -0.850129 12.37)
(1.90963e-13 -0.612976 12.6056)
(1.78262e-13 -0.383507 12.7486)
(1.63288e-13 -0.167415 12.8185)
(1.44857e-13 0.0192085 12.8889)
(1.16276e-13 0.280476 12.9126)
(7.07178e-14 0.586735 12.8048)
(1.32084e-14 0.79531 12.5079)
(-3.25658e-14 0.664343 12.1963)
(-5.2679e-14 0.315277 12.0257)
(-4.81903e-14 0.0470676 11.9924)
(-2.81251e-14 -0.0985263 12.0756)
(-1.61071e-16 -0.163554 12.1467)
(3.75423e-14 -0.176733 12.1607)
(9.56073e-14 -0.196232 12.1156)
(1.93434e-13 -0.305805 12.0391)
(3.3254e-13 -0.511716 12.0105)
(5.30626e-13 -0.735795 12.0967)
(7.45807e-13 -0.922509 12.3119)
(9.13109e-13 -1.04915 12.6377)
(1.01709e-12 -1.11918 13.0566)
(1.08152e-12 -1.10215 13.5398)
(1.13555e-12 -0.94341 14.0607)
(1.19853e-12 -0.584401 14.4477)
(1.25114e-12 -0.0406769 14.5745)
(1.32905e-12 0.536724 14.4969)
(1.42759e-12 0.971359 14.0811)
(1.54975e-12 1.32373 13.5274)
(1.66815e-12 1.58703 12.8337)
(1.7488e-12 1.74153 12.0784)
(1.7914e-12 1.77888 11.3589)
(1.79774e-12 1.70591 10.7289)
(1.78701e-12 1.54851 10.2049)
(1.75985e-12 1.34539 9.77849)
(1.7218e-12 1.13734 9.42426)
(1.69265e-12 0.957922 9.10661)
(1.68011e-12 0.827735 8.79004)
(1.68404e-12 0.752141 8.455)
(1.70598e-12 0.724449 8.10928)
(1.74455e-12 0.729923 7.78004)
(1.78096e-12 0.753993 7.4881)
(1.80546e-12 0.786062 7.23557)
(1.82132e-12 0.816064 7.00889)
(1.83923e-12 0.824374 6.80604)
(1.85323e-12 0.805857 6.64392)
(1.87415e-12 0.767189 6.50983)
(1.90691e-12 0.751044 6.33259)
(1.90083e-12 0.852872 5.94759)
(1.81267e-12 1.02607 5.30147)
(1.65302e-12 1.15003 4.53507)
(1.59686e-12 1.04829 3.61049)
(2.24634e-12 0.307589 3.31415)
(3.17485e-12 -0.966754 4.56549)
(3.57189e-12 -1.77263 5.7641)
(3.63373e-12 -2.1336 6.65904)
(3.57996e-12 -2.35009 7.36933)
(3.48547e-12 -2.57086 8.15173)
(3.38694e-12 -2.76261 8.6619)
(3.13928e-12 -2.93679 9.70775)
(1.98155e-14 0.39273 -6.67003)
(1.52345e-14 0.281656 -7.89252)
(1.04541e-15 -0.00532276 -8.30331)
(4.10332e-15 -0.206469 -8.31422)
(1.32546e-14 -0.397075 -8.03937)
(-1.45904e-15 -0.583774 -7.51848)
(1.50879e-14 -0.662227 -6.86295)
(2.45981e-14 -0.848308 -6.30774)
(2.76824e-14 -1.15067 -5.71541)
(3.33894e-14 -1.45001 -4.94619)
(3.51884e-14 -1.68209 -4.03463)
(3.44829e-14 -1.72355 -2.94136)
(2.76692e-14 -1.53364 -1.72038)
(1.12047e-14 -1.40405 -0.571502)
(1.81994e-14 -1.42844 0.427934)