/*--------------------------------*- C++ -*----------------------------------*\
| =========                 |                                                 |
| \\      /  F ield         | OpenFOAM: The Open Source CFD Toolbox           |
|  \\    /   O peration     | Version:  4.1                                   |
|   \\  /    A nd           | Web:      www.OpenFOAM.org                      |
|    \\/     M anipulation  |                                                 |
\*---------------------------------------------------------------------------*/
FoamFile
{
    version     2.0;
    format      ascii;
    class       volScalarField;
    location    "1800";
    object      k;
}
// * * * * * * * * * * * * * * * * * * * * * * * * * * * * * * * * * * * * * //

dimensions      [0 2 -2 0 0 0 0];

internalField   nonuniform List<scalar> 
6820
(
0.257082
0.434211
0.59852
0.709382
0.778145
0.818049
0.838548
0.845896
0.844372
0.836964
0.825768
0.812248
0.797427
0.782016
0.7665
0.751203
0.736338
0.722039
0.708381
0.695404
0.683119
0.671519
0.660588
0.650299
0.640622
0.631525
0.622971
0.614932
0.607349
0.600306
0.593203
0.588706
0.574494
0.811277
1.44613
1.51874
1.38792
1.22323
1.07762
0.95922
0.864569
0.788642
0.727157
0.676842
0.635256
0.600578
0.571431
0.546763
0.525757
0.507776
0.49231
0.478953
0.467376
0.457309
0.448531
0.440858
0.434136
0.428239
0.423056
0.418498
0.41449
0.410963
0.407883
0.405153
0.402941
0.400686
0.368869
0.66416
0.797428
0.829397
0.816589
0.786285
0.750411
0.713991
0.679044
0.646311
0.616001
0.588103
0.562514
0.539088
0.517663
0.498078
0.480173
0.4638
0.44882
0.435107
0.422544
0.411025
0.400457
0.390751
0.381831
0.373626
0.366073
0.359115
0.352701
0.346787
0.341327
0.336302
0.331651
0.240027
0.336287
0.412169
0.460222
0.487105
0.500012
0.504036
0.502508
0.497533
0.490423
0.482012
0.472846
0.463295
0.453611
0.443967
0.434484
0.425242
0.416294
0.407675
0.399404
0.391489
0.383933
0.37673
0.369875
0.363356
0.357161
0.351278
0.345693
0.340392
0.335363
0.330591
0.326065
0.321765
0.214145
0.250649
0.284542
0.31208
0.332947
0.348027
0.358469
0.365345
0.369528
0.371681
0.372296
0.371744
0.370308
0.368202
0.365595
0.362616
0.359369
0.355933
0.352374
0.348742
0.345078
0.341412
0.337769
0.33417
0.330629
0.327158
0.323764
0.320456
0.317237
0.314109
0.311077
0.308139
0.305297
0.20564
0.221937
0.238617
0.25366
0.26644
0.276904
0.285272
0.29185
0.296934
0.300784
0.303614
0.305602
0.306896
0.307615
0.307861
0.307715
0.307247
0.306513
0.305564
0.304438
0.303172
0.301792
0.300324
0.298789
0.297204
0.295583
0.293939
0.292282
0.290622
0.288966
0.28732
0.28569
0.284081
0.202357
0.210378
0.219404
0.228106
0.235957
0.242783
0.248605
0.253514
0.257621
0.261026
0.263824
0.266096
0.267914
0.269339
0.270425
0.271218
0.271758
0.272079
0.272212
0.272182
0.272013
0.271724
0.271333
0.270855
0.270303
0.269689
0.269023
0.268315
0.267571
0.266799
0.266006
0.265197
0.264377
0.201008
0.2051
0.210232
0.215526
0.22054
0.225078
0.229098
0.232621
0.235689
0.238346
0.240635
0.242597
0.244268
0.245681
0.246865
0.247847
0.248647
0.249289
0.249788
0.250162
0.250425
0.25059
0.250667
0.250668
0.250602
0.250476
0.250298
0.250074
0.249811
0.249514
0.249187
0.248836
0.248464
0.200424
0.202508
0.205459
0.208754
0.21204
0.21513
0.217953
0.220495
0.222768
0.224789
0.226579
0.228159
0.229548
0.230765
0.231826
0.232746
0.23354
0.23422
0.234797
0.235281
0.235681
0.236006
0.236263
0.236458
0.236599
0.236691
0.236738
0.236746
0.236719
0.23666
0.236574
0.236463
0.236331
0.200163
0.201193
0.202864
0.204904
0.207067
0.20919
0.211193
0.213044
0.214736
0.216272
0.217659
0.218908
0.220029
0.221031
0.221926
0.222722
0.223428
0.224051
0.224599
0.225079
0.225496
0.225856
0.226164
0.226425
0.226643
0.226822
0.226965
0.227076
0.227158
0.227213
0.227245
0.227255
0.227247
0.200044
0.20052
0.201431
0.202661
0.20406
0.205505
0.206921
0.208268
0.209528
0.210694
0.211766
0.212747
0.213641
0.214454
0.215192
0.215859
0.21646
0.217002
0.217488
0.217924
0.218312
0.218657
0.218963
0.219231
0.219467
0.219671
0.219848
0.219999
0.220126
0.220232
0.220318
0.220387
0.220439
0.199989
0.200177
0.20064
0.201347
0.20222
0.203178
0.204159
0.205125
0.206054
0.206932
0.207754
0.208519
0.209226
0.209879
0.210478
0.211028
0.21153
0.211989
0.212406
0.212786
0.21313
0.213441
0.213722
0.213975
0.214201
0.214404
0.214584
0.214744
0.214885
0.215009
0.215117
0.21521
0.215291
0.199965
0.200004
0.200209
0.200585
0.201099
0.201706
0.202361
0.203034
0.203702
0.204351
0.204971
0.205558
0.206111
0.206627
0.207107
0.207553
0.207966
0.208347
0.208698
0.209021
0.209317
0.209589
0.209837
0.210063
0.21027
0.210457
0.210627
0.210781
0.21092
0.211045
0.211158
0.211259
0.211349
0.199954
0.199918
0.199979
0.20015
0.200426
0.200784
0.201198
0.201645
0.202107
0.20257
0.203025
0.203465
0.203886
0.204286
0.204664
0.205019
0.205352
0.205662
0.205951
0.20622
0.206469
0.2067
0.206913
0.20711
0.207291
0.207458
0.207611
0.207752
0.207881
0.207999
0.208107
0.208206
0.208296
0.199949
0.199877
0.199858
0.199907
0.20003
0.200217
0.200456
0.200733
0.201034
0.201348
0.201667
0.201984
0.202294
0.202594
0.202883
0.203158
0.203419
0.203665
0.203898
0.204116
0.204321
0.204512
0.20469
0.204857
0.205011
0.205155
0.205289
0.205413
0.205528
0.205634
0.205733
0.205824
0.205908
0.199947
0.199857
0.199796
0.199776
0.199803
0.199877
0.199994
0.200145
0.200323
0.20052
0.200729
0.200944
0.20116
0.201375
0.201586
0.201791
0.201988
0.202178
0.202358
0.20253
0.202693
0.202846
0.202991
0.203127
0.203256
0.203376
0.203488
0.203594
0.203693
0.203785
0.203872
0.203953
0.204029
0.199947
0.199847
0.199764
0.199706
0.199676
0.199679
0.199713
0.199776
0.199863
0.19997
0.200092
0.200224
0.200363
0.200506
0.200651
0.200794
0.200936
0.201074
0.201208
0.201337
0.201461
0.201579
0.201692
0.2018
0.201902
0.201999
0.202091
0.202177
0.202259
0.202337
0.20241
0.202479
0.202544
0.199946
0.199843
0.199749
0.199669
0.199608
0.199567
0.199548
0.19955
0.199573
0.199614
0.199669
0.199737
0.199814
0.199898
0.199986
0.200078
0.20017
0.200264
0.200356
0.200447
0.200536
0.200622
0.200705
0.200786
0.200863
0.200938
0.201009
0.201077
0.201142
0.201205
0.201264
0.201321
0.201375
0.199946
0.199841
0.199742
0.199651
0.199571
0.199505
0.199453
0.199417
0.199396
0.199389
0.199396
0.199415
0.199443
0.19948
0.199523
0.199572
0.199624
0.199678
0.199735
0.199792
0.199849
0.199907
0.199964
0.20002
0.200074
0.200128
0.20018
0.20023
0.200279
0.200326
0.200372
0.200416
0.200459
0.199946
0.19984
0.199739
0.199642
0.199553
0.199471
0.1994
0.19934
0.19929
0.199252
0.199225
0.199209
0.199201
0.199202
0.199209
0.199223
0.199242
0.199265
0.199291
0.19932
0.199351
0.199383
0.199416
0.19945
0.199485
0.199519
0.199554
0.199588
0.199622
0.199655
0.199688
0.199721
0.199753
0.199946
0.19984
0.199737
0.199638
0.199543
0.199454
0.199372
0.199297
0.19923
0.199172
0.199122
0.199081
0.199048
0.199022
0.199003
0.198991
0.198984
0.198982
0.198984
0.198989
0.198998
0.19901
0.199023
0.199039
0.199056
0.199074
0.199093
0.199113
0.199134
0.199155
0.199177
0.199199
0.199221
0.199946
0.19984
0.199736
0.199635
0.199538
0.199445
0.199356
0.199273
0.199196
0.199125
0.199061
0.199004
0.198954
0.198911
0.198873
0.198842
0.198817
0.198796
0.19878
0.198768
0.19876
0.198755
0.198753
0.198754
0.198757
0.198763
0.19877
0.198778
0.198788
0.198799
0.198812
0.198825
0.198839
0.199946
0.19984
0.199736
0.199634
0.199536
0.19944
0.199349
0.199261
0.199178
0.1991
0.199028
0.198962
0.198901
0.198846
0.198798
0.198754
0.198716
0.198683
0.198655
0.198631
0.198611
0.198595
0.198583
0.198573
0.198567
0.198562
0.198561
0.198561
0.198563
0.198567
0.198572
0.198578
0.198586
0.199946
0.19984
0.199735
0.199634
0.199534
0.199438
0.199345
0.199255
0.19917
0.199089
0.199013
0.198942
0.198876
0.198816
0.198761
0.198711
0.198667
0.198628
0.198593
0.198563
0.198537
0.198514
0.198496
0.198481
0.198468
0.198459
0.198452
0.198447
0.198445
0.198444
0.198446
0.198448
0.198452
0.199946
0.19984
0.199735
0.199633
0.199534
0.199437
0.199344
0.199254
0.199168
0.199087
0.19901
0.198939
0.198873
0.198812
0.198756
0.198706
0.198661
0.198621
0.198586
0.198554
0.198528
0.198505
0.198485
0.198469
0.198456
0.198446
0.198438
0.198433
0.198429
0.198428
0.198428
0.19843
0.198433
0.199946
0.19984
0.199735
0.199634
0.199534
0.199438
0.199346
0.199257
0.199174
0.199095
0.199022
0.198954
0.198892
0.198836
0.198785
0.19874
0.1987
0.198665
0.198635
0.198609
0.198587
0.198569
0.198554
0.198542
0.198533
0.198527
0.198523
0.198521
0.19852
0.198522
0.198524
0.198529
0.198534
0.199946
0.19984
0.199736
0.199635
0.199537
0.199442
0.199353
0.199269
0.19919
0.199118
0.199053
0.198995
0.198943
0.198898
0.198858
0.198825
0.198797
0.198774
0.198756
0.198741
0.19873
0.198723
0.198718
0.198716
0.198716
0.198718
0.198722
0.198728
0.198734
0.198742
0.19875
0.19876
0.19877
0.199946
0.19984
0.199737
0.199637
0.199542
0.199453
0.19937
0.199295
0.199228
0.19917
0.199121
0.199079
0.199046
0.19902
0.199001
0.198988
0.19898
0.198977
0.198978
0.198982
0.198989
0.198998
0.19901
0.199023
0.199037
0.199052
0.199068
0.199085
0.199102
0.199119
0.199136
0.199153
0.199171
0.199946
0.199841
0.19974
0.199645
0.199557
0.199478
0.19941
0.199354
0.199309
0.199277
0.199255
0.199244
0.199241
0.199247
0.199259
0.199277
0.199299
0.199325
0.199353
0.199384
0.199416
0.199448
0.199481
0.199514
0.199547
0.199579
0.199611
0.199642
0.199672
0.199701
0.199729
0.199756
0.199782
0.199947
0.199844
0.199749
0.199664
0.199592
0.199537
0.199499
0.19948
0.199477
0.19949
0.199516
0.199553
0.199599
0.199652
0.19971
0.199772
0.199836
0.199901
0.199965
0.20003
0.200092
0.200154
0.200213
0.20027
0.200324
0.200376
0.200426
0.200473
0.200518
0.20056
0.200599
0.200637
0.200672
0.199948
0.199852
0.19977
0.199711
0.199677
0.199673
0.199697
0.199746
0.199818
0.199907
0.20001
0.200122
0.200239
0.20036
0.200481
0.2006
0.200717
0.20083
0.200939
0.201043
0.201141
0.201234
0.201322
0.201405
0.201482
0.201554
0.201622
0.201685
0.201743
0.201797
0.201848
0.201894
0.201937
0.199951
0.199872
0.199828
0.199831
0.199884
0.199985
0.200128
0.200302
0.2005
0.200711
0.200928
0.201146
0.201361
0.201569
0.201768
0.201958
0.202136
0.202304
0.20246
0.202605
0.20274
0.202865
0.20298
0.203087
0.203184
0.203274
0.203356
0.203431
0.2035
0.203562
0.203619
0.203671
0.203718
0.19996
0.199932
0.199988
0.200141
0.200383
0.200695
0.201055
0.20144
0.201833
0.202222
0.202597
0.202954
0.203288
0.203598
0.203885
0.204149
0.20439
0.204611
0.204811
0.204994
0.205159
0.205309
0.205445
0.205567
0.205677
0.205777
0.205866
0.205946
0.206017
0.20608
0.206137
0.206186
0.20623
0.19999
0.200113
0.200438
0.200945
0.201582
0.202288
0.203012
0.20372
0.20439
0.205011
0.205578
0.206091
0.206552
0.206965
0.207333
0.207661
0.207953
0.208212
0.208442
0.208646
0.208826
0.208985
0.209126
0.209249
0.209357
0.209451
0.209533
0.209603
0.209664
0.209715
0.209757
0.209792
0.20982
0.200097
0.200698
0.201729
0.20303
0.20443
0.205804
0.207078
0.208222
0.20923
0.210107
0.210866
0.211521
0.212084
0.212568
0.212984
0.213341
0.213648
0.21391
0.214135
0.214327
0.21449
0.214628
0.214743
0.214839
0.214917
0.214979
0.215028
0.215064
0.215089
0.215104
0.215111
0.215109
0.2151
0.200521
0.202675
0.205525
0.20847
0.211189
0.21355
0.215527
0.217152
0.218476
0.219552
0.220424
0.221131
0.221704
0.222168
0.222543
0.222845
0.223087
0.223277
0.223425
0.223537
0.223618
0.223672
0.223702
0.223713
0.223707
0.223684
0.223649
0.223601
0.223542
0.223475
0.223398
0.223315
0.223225
0.202177
0.209422
0.217079
0.223316
0.228003
0.231437
0.233925
0.235719
0.237011
0.237936
0.238593
0.239054
0.239367
0.239569
0.239685
0.239733
0.239727
0.239676
0.239588
0.239469
0.239324
0.239157
0.238971
0.238768
0.23855
0.23832
0.23808
0.23783
0.237573
0.237308
0.237038
0.236764
0.236486
0.208503
0.227596
0.245316
0.25869
0.267554
0.272837
0.275658
0.27695
0.277338
0.277195
0.276744
0.276116
0.275385
0.274596
0.273774
0.272932
0.27208
0.271221
0.270359
0.269495
0.268631
0.267768
0.266908
0.266051
0.265198
0.264351
0.263511
0.262677
0.261853
0.261037
0.260232
0.259436
0.258653
0.248308
0.315061
0.348161
0.362157
0.367118
0.367958
0.366701
0.364185
0.360865
0.357053
0.352965
0.348753
0.344525
0.340356
0.336297
0.332382
0.328633
0.32506
0.321669
0.31846
0.315431
0.312577
0.309891
0.307366
0.304994
0.302768
0.30068
0.298722
0.296886
0.295167
0.293555
0.292046
0.290632
0.205354
0.221127
0.238043
0.254121
0.268995
0.282971
0.296258
0.308938
0.321054
0.332632
0.343696
0.354264
0.36435
0.37397
0.38314
0.391874
0.400187
0.408094
0.415611
0.422753
0.429534
0.435971
0.442077
0.447868
0.453358
0.45856
0.463488
0.468155
0.472574
0.476757
0.480716
0.484461
0.488008
0.618
0.695158
0.817486
0.966502
1.13129
1.29952
1.46253
1.61315
1.74548
1.85546
1.94155
2.00481
2.04826
2.07591
2.09189
2.09975
2.10218
2.10101
2.09734
2.0918
2.08477
2.07647
2.06712
2.0569
2.04596
2.0344
2.02228
2.00958
1.99624
1.98216
1.9672
1.95122
1.93406
1.91554
1.89553
1.87386
1.85041
1.82508
1.79778
1.76845
1.73708
1.70368
1.6683
1.63103
1.592
1.55139
1.50938
1.46624
1.42223
1.37766
1.33286
1.28817
1.24396
1.20058
1.15838
1.11768
1.0788
1.042
1.00753
0.975565
0.946268
0.91974
0.896047
0.875215
0.857234
0.84206
0.829624
0.819831
0.812564
0.807692
0.805072
0.804548
0.80596
0.809141
0.813918
0.820116
0.827553
0.836049
0.845418
0.855477
0.866043
0.876937
0.887984
0.899017
0.909877
0.920415
0.930493
0.939988
0.948788
0.956795
0.963925
0.970104
0.975277
0.979389
0.982421
0.984307
0.985148
0.984688
0.983739
0.980485
0.399156
0.404146
0.417442
0.441504
0.477032
0.524528
0.583906
0.654466
0.734884
0.823282
0.917271
1.01403
1.11046
1.20346
1.29018
1.36835
1.43647
1.49391
1.5408
1.57789
1.60628
1.62721
1.6419
1.65139
1.65655
1.65807
1.65648
1.65217
1.64545
1.63654
1.62561
1.61275
1.59804
1.58152
1.56321
1.54312
1.52125
1.49761
1.47223
1.44514
1.41638
1.38605
1.35424
1.32109
1.28675
1.2514
1.21525
1.17855
1.14153
1.10447
1.06766
1.03137
0.995895
0.961506
0.928466
0.897015
0.867366
0.839704
0.814176
0.790898
0.769952
0.751386
0.735221
0.721449
0.710039
0.700939
0.69408
0.689378
0.686737
0.686052
0.687212
0.690098
0.694589
0.700559
0.707876
0.716407
0.72601
0.736543
0.747856
0.759798
0.772214
0.78495
0.797852
0.810767
0.82355
0.836059
0.848161
0.859732
0.870659
0.880841
0.890185
0.898614
0.90606
0.912462
0.917792
0.921978
0.925101
0.926931
0.928099
0.927893
0.326703
0.321604
0.317077
0.313603
0.311904
0.312739
0.31664
0.324251
0.336452
0.354118
0.378072
0.408996
0.447297
0.492976
0.545511
0.603806
0.666236
0.73078
0.79525
0.857534
0.915824
0.968768
1.01553
1.05574
1.08944
1.11695
1.13872
1.15529
1.16719
1.1749
1.17885
1.17941
1.17689
1.17154
1.1636
1.15326
1.14068
1.12602
1.10943
1.09105
1.07102
1.04951
1.02666
1.00266
0.977692
0.951945
0.925633
0.898974
0.872193
0.845521
0.819188
0.793423
0.768443
0.744455
0.721648
0.700191
0.680229
0.661881
0.645243
0.630382
0.617344
0.606151
0.596807
0.589299
0.583599
0.579668
0.577455
0.576902
0.577945
0.580514
0.584535
0.58993
0.596619
0.604517
0.613535
0.623581
0.634552
0.646344
0.658844
0.671932
0.685483
0.699369
0.713457
0.727614
0.741705
0.7556
0.769171
0.782297
0.794864
0.806766
0.817906
0.828197
0.837566
0.845941
0.853282
0.859511
0.864691
0.868613
0.871728
0.874364
0.317033
0.311837
0.306763
0.301844
0.297175
0.292877
0.289096
0.285975
0.283651
0.282364
0.282422
0.284191
0.288096
0.294602
0.304181
0.317267
0.334197
0.355141
0.380049
0.408608
0.440237
0.474124
0.509294
0.544702
0.579332
0.612283
0.642824
0.670422
0.694739
0.715607
0.732998
0.746981
0.75769
0.7653
0.770002
0.771997
0.771484
0.76866
0.763717
0.756844
0.748226
0.738052
0.726508
0.713783
0.700069
0.685559
0.670448
0.654933
0.639207
0.623462
0.607885
0.592654
0.577936
0.563887
0.550644
0.538331
0.527052
0.516891
0.507916
0.500176
0.493705
0.488524
0.48464
0.482052
0.480748
0.480712
0.481919
0.484342
0.487948
0.492703
0.498566
0.5055
0.513458
0.522396
0.53226
0.542994
0.554533
0.566807
0.579735
0.59323
0.607196
0.621529
0.63612
0.650855
0.665614
0.680278
0.694727
0.708844
0.722517
0.735635
0.7481
0.759817
0.770703
0.780678
0.78969
0.797656
0.804613
0.810378
0.815227
0.820437
0.302099
0.298519
0.294964
0.291425
0.287902
0.284414
0.280992
0.277676
0.274505
0.271524
0.268796
0.266398
0.264427
0.263005
0.262276
0.262411
0.263599
0.266042
0.26994
0.275472
0.282773
0.291913
0.302877
0.315551
0.329726
0.345099
0.361299
0.377912
0.394512
0.410686
0.426066
0.440339
0.453257
0.464643
0.474382
0.482414
0.488731
0.493361
0.496365
0.497825
0.497844
0.49654
0.494039
0.490478
0.485998
0.480744
0.474865
0.468509
0.461823
0.454951
0.448032
0.4412
0.434578
0.428281
0.422413
0.417066
0.412318
0.408237
0.404878
0.402286
0.400495
0.399531
0.399413
0.400152
0.401756
0.404228
0.407567
0.411768
0.416826
0.422732
0.429474
0.437042
0.445419
0.454588
0.464527
0.475208
0.486597
0.498652
0.511323
0.524551
0.538267
0.552392
0.56684
0.581516
0.596319
0.611142
0.625877
0.640413
0.654639
0.668449
0.681737
0.694406
0.706366
0.717528
0.727829
0.737178
0.745592
0.752905
0.759231
0.76669
0.28223
0.280114
0.277971
0.275793
0.273573
0.271311
0.269018
0.266708
0.264395
0.262098
0.259834
0.257624
0.255492
0.253469
0.251589
0.249896
0.248444
0.247293
0.246514
0.246186
0.24639
0.247207
0.24871
0.25096
0.253997
0.25783
0.262439
0.267768
0.273725
0.280191
0.287021
0.294054
0.301124
0.308067
0.314733
0.320985
0.326713
0.331827
0.336266
0.339993
0.342993
0.345275
0.346865
0.347803
0.348146
0.347959
0.347317
0.346299
0.344989
0.343474
0.341838
0.340167
0.338541
0.337037
0.335727
0.334675
0.33394
0.333573
0.33362
0.33412
0.335104
0.336603
0.338638
0.341231
0.344398
0.348152
0.352507
0.357473
0.363057
0.369268
0.376111
0.383594
0.391719
0.400488
0.4099
0.419949
0.430623
0.441906
0.453771
0.466182
0.479097
0.492461
0.506209
0.520267
0.534554
0.548979
0.563446
0.577854
0.592099
0.606078
0.619687
0.632825
0.645398
0.65731
0.66849
0.678839
0.688352
0.696883
0.704396
0.713726
0.263408
0.262271
0.26109
0.259862
0.258579
0.257239
0.255846
0.254406
0.252927
0.251416
0.249883
0.248336
0.246784
0.245238
0.243707
0.242204
0.240745
0.239346
0.238031
0.236824
0.235755
0.234857
0.234165
0.233716
0.233543
0.233679
0.234148
0.234969
0.236147
0.237677
0.239541
0.241709
0.244137
0.246774
0.249562
0.252438
0.255339
0.258206
0.260982
0.263619
0.266079
0.268334
0.270363
0.272161
0.273729
0.275078
0.276229
0.277209
0.278051
0.278792
0.279473
0.280137
0.280827
0.281586
0.282456
0.283478
0.284689
0.286123
0.287813
0.289788
0.292073
0.294693
0.297668
0.301018
0.304762
0.308915
0.313493
0.318512
0.323984
0.329926
0.336351
0.343274
0.350709
0.358669
0.367165
0.376207
0.385799
0.39594
0.406624
0.417837
0.429556
0.441747
0.45437
0.46737
0.480686
0.494246
0.507968
0.521766
0.535547
0.549213
0.562666
0.575807
0.588538
0.600764
0.612403
0.623354
0.633591
0.642986
0.65137
0.662155
0.248006
0.247448
0.246847
0.246202
0.245507
0.244759
0.243959
0.24311
0.242216
0.241281
0.240311
0.239309
0.238282
0.237234
0.236169
0.235092
0.234008
0.232923
0.231844
0.23078
0.229741
0.228739
0.22779
0.226909
0.226113
0.225421
0.224851
0.22442
0.224142
0.224031
0.224094
0.224336
0.224756
0.225348
0.2261
0.226999
0.228025
0.229158
0.230375
0.231655
0.232975
0.234317
0.235666
0.237008
0.238336
0.239647
0.24094
0.242223
0.243502
0.244793
0.24611
0.247472
0.248898
0.250409
0.252028
0.253775
0.255671
0.257736
0.259991
0.262452
0.265138
0.268064
0.271246
0.274698
0.278435
0.282469
0.286814
0.291486
0.296496
0.301862
0.307599
0.313724
0.320256
0.327212
0.334611
0.342469
0.350801
0.35962
0.368933
0.37874
0.389036
0.399808
0.411032
0.422677
0.434699
0.447046
0.459656
0.472457
0.485371
0.498312
0.511189
0.52391
0.536381
0.548505
0.560197
0.571357
0.581941
0.591837
0.600768
0.612565
0.236152
0.235916
0.235644
0.235336
0.234987
0.234595
0.234159
0.233681
0.233161
0.232603
0.23201
0.231385
0.230732
0.230052
0.22935
0.228626
0.227884
0.227126
0.226354
0.225573
0.224785
0.223997
0.223213
0.222441
0.221688
0.220965
0.22028
0.219645
0.21907
0.218566
0.218142
0.217807
0.217569
0.217434
0.217404
0.217481
0.217666
0.217955
0.218345
0.218831
0.219407
0.220066
0.220805
0.221616
0.222498
0.223446
0.224461
0.225544
0.226697
0.227926
0.229236
0.230636
0.232134
0.23374
0.235464
0.237316
0.239308
0.241449
0.243751
0.246222
0.248872
0.251712
0.254748
0.257991
0.26145
0.265132
0.269048
0.273208
0.277624
0.282309
0.287278
0.292546
0.298132
0.304055
0.310335
0.316993
0.324048
0.331521
0.339426
0.347776
0.356579
0.365836
0.37554
0.385678
0.396224
0.407147
0.418401
0.429933
0.441683
0.453577
0.465541
0.477489
0.489335
0.500989
0.512366
0.523367
0.533938
0.543981
0.553137
0.565499
0.227214
0.227152
0.227062
0.226942
0.226792
0.226607
0.226387
0.226133
0.225844
0.225524
0.225173
0.224794
0.224389
0.22396
0.22351
0.223039
0.222549
0.222042
0.221519
0.220981
0.220431
0.21987
0.219301
0.218727
0.218153
0.217582
0.21702
0.216473
0.215948
0.215451
0.214989
0.21457
0.214202
0.213891
0.213643
0.213464
0.213359
0.213333
0.213387
0.213526
0.21375
0.214062
0.214461
0.214949
0.215528
0.216197
0.216958
0.217815
0.218768
0.219823
0.220981
0.222248
0.223628
0.225125
0.226745
0.228493
0.230374
0.232392
0.234552
0.236859
0.239315
0.241927
0.244697
0.247629
0.250727
0.253997
0.257443
0.261072
0.264893
0.268915
0.273149
0.277609
0.282312
0.287275
0.292517
0.29806
0.303926
0.310136
0.316711
0.32367
0.33103
0.338801
0.346991
0.355599
0.364617
0.374028
0.383808
0.39392
0.404321
0.414955
0.425762
0.436671
0.447607
0.458488
0.469236
0.479757
0.489991
0.499855
0.508933
0.521428
0.220482
0.22051
0.220517
0.220502
0.220462
0.220397
0.220304
0.220184
0.220036
0.219863
0.219664
0.219443
0.2192
0.218937
0.218656
0.218358
0.218044
0.217715
0.217373
0.217017
0.21665
0.216272
0.215885
0.215491
0.215091
0.214687
0.214284
0.213884
0.213491
0.21311
0.212745
0.212402
0.212086
0.211804
0.21156
0.211362
0.211213
0.211122
0.211091
0.211127
0.211234
0.211416
0.211678
0.212023
0.212455
0.212978
0.213595
0.21431
0.215126
0.216046
0.217074
0.218212
0.219465
0.220834
0.222322
0.223931
0.225663
0.227521
0.229504
0.231614
0.233852
0.236217
0.238711
0.241333
0.244084
0.246964
0.249977
0.253124
0.256411
0.259845
0.263432
0.267185
0.271116
0.275241
0.279576
0.284142
0.28896
0.294051
0.299437
0.305142
0.311185
0.317585
0.324357
0.331511
0.33905
0.346973
0.355268
0.363918
0.372894
0.38216
0.391669
0.401367
0.411194
0.42108
0.430955
0.440736
0.450362
0.459764
0.468496
0.480727
0.215369
0.215442
0.2155
0.21554
0.215562
0.215563
0.215544
0.215503
0.215441
0.215359
0.215257
0.215136
0.214998
0.214844
0.214676
0.214495
0.214301
0.214096
0.21388
0.213655
0.213422
0.21318
0.212932
0.212678
0.212419
0.212157
0.211894
0.211632
0.211373
0.211121
0.210879
0.21065
0.210438
0.210249
0.210087
0.209956
0.209863
0.209812
0.209808
0.209858
0.209966
0.210138
0.210378
0.210692
0.211084
0.21156
0.212123
0.212778
0.213529
0.214379
0.215331
0.216388
0.217553
0.218827
0.220211
0.221707
0.223314
0.225033
0.226861
0.228799
0.230844
0.232993
0.235246
0.237598
0.240049
0.242596
0.245239
0.247977
0.250814
0.253751
0.256796
0.259955
0.263238
0.266658
0.27023
0.273971
0.277899
0.282035
0.286401
0.29102
0.295913
0.301102
0.306606
0.312442
0.318623
0.325155
0.33204
0.339273
0.346841
0.354722
0.362886
0.371295
0.379902
0.388653
0.397489
0.406342
0.415152
0.423866
0.432031
0.443657
0.211442
0.211535
0.211616
0.211684
0.211738
0.211776
0.211799
0.211805
0.211795
0.211768
0.211726
0.21167
0.2116
0.211518
0.211425
0.211322
0.211211
0.211091
0.210964
0.210832
0.210694
0.210551
0.210405
0.210256
0.210105
0.209954
0.209803
0.209654
0.20951
0.209371
0.209242
0.209124
0.20902
0.208935
0.208871
0.208834
0.208827
0.208854
0.208922
0.209035
0.209197
0.209415
0.209692
0.210035
0.210448
0.210936
0.211503
0.212155
0.212894
0.213724
0.214649
0.21567
0.21679
0.218009
0.219329
0.220748
0.222266
0.223881
0.225592
0.227394
0.229286
0.231262
0.233319
0.235452
0.237658
0.239932
0.242272
0.244676
0.247144
0.249676
0.252275
0.254947
0.2577
0.260542
0.263485
0.266545
0.269737
0.273079
0.276592
0.280297
0.284214
0.288368
0.292777
0.297463
0.302442
0.307728
0.313332
0.319256
0.3255
0.332054
0.338903
0.346022
0.35338
0.360936
0.368647
0.376455
0.384311
0.392173
0.399606
0.410353
0.208391
0.20849
0.208579
0.208659
0.208728
0.208785
0.208831
0.208863
0.208883
0.208891
0.208887
0.208871
0.208846
0.208811
0.208769
0.208719
0.208663
0.208603
0.208538
0.20847
0.2084
0.208329
0.208257
0.208186
0.208116
0.208048
0.207983
0.207924
0.20787
0.207825
0.20779
0.207767
0.207759
0.207769
0.207799
0.207854
0.207936
0.208051
0.208201
0.208392
0.208628
0.208914
0.209254
0.209653
0.210116
0.210648
0.211252
0.211932
0.212693
0.213537
0.214467
0.215485
0.216592
0.217789
0.219076
0.22045
0.221912
0.223458
0.225084
0.226788
0.228563
0.230406
0.23231
0.234271
0.236282
0.238338
0.240436
0.242571
0.244741
0.246946
0.249186
0.251465
0.253788
0.256161
0.258595
0.261101
0.263693
0.266386
0.269198
0.272148
0.275256
0.278544
0.282031
0.285739
0.289687
0.293892
0.298368
0.303127
0.308173
0.313509
0.319129
0.325021
0.331165
0.337537
0.344102
0.350821
0.35765
0.364563
0.371154
0.380827
0.205999
0.206095
0.206184
0.206266
0.206339
0.206405
0.206461
0.206508
0.206545
0.206573
0.206591
0.206602
0.206605
0.206601
0.206592
0.206578
0.206561
0.206541
0.20652
0.206498
0.206477
0.206456
0.206439
0.206424
0.206414
0.206408
0.206409
0.206418
0.206436
0.206464
0.206505
0.20656
0.206631
0.206722
0.206834
0.20697
0.207134
0.20733
0.20756
0.207829
0.208141
0.208499
0.208909
0.209374
0.209898
0.210486
0.211141
0.211867
0.212667
0.213543
0.214498
0.215533
0.216648
0.217844
0.21912
0.220474
0.221903
0.223405
0.224974
0.226607
0.228297
0.230039
0.231827
0.233652
0.235511
0.237395
0.239299
0.241219
0.243151
0.245094
0.247046
0.249009
0.250986
0.252983
0.255006
0.257065
0.259172
0.261339
0.263582
0.265918
0.268364
0.270939
0.273664
0.276557
0.279639
0.282927
0.286439
0.290188
0.294186
0.29844
0.302952
0.307719
0.312734
0.317981
0.323439
0.329079
0.334869
0.340794
0.346492
0.354972
0.204111
0.204199
0.204282
0.204361
0.204433
0.204499
0.204559
0.204612
0.204657
0.204696
0.204728
0.204755
0.204776
0.204792
0.204805
0.204815
0.204824
0.204833
0.204841
0.204852
0.204865
0.204881
0.204903
0.20493
0.204963
0.205005
0.205055
0.205116
0.205188
0.205273
0.205373
0.20549
0.205626
0.205782
0.205962
0.206167
0.206401
0.206667
0.206968
0.207308
0.20769
0.208117
0.208593
0.209123
0.209709
0.210356
0.211066
0.211842
0.212687
0.213603
0.214592
0.215654
0.216789
0.217997
0.219275
0.220623
0.222036
0.223511
0.225042
0.226625
0.228253
0.229919
0.231616
0.233337
0.235074
0.236821
0.238572
0.24032
0.242062
0.243794
0.245514
0.247224
0.248923
0.250617
0.25231
0.254011
0.255727
0.257471
0.259255
0.261094
0.263003
0.265
0.267101
0.269326
0.271692
0.274217
0.276919
0.279814
0.282914
0.286232
0.289774
0.293544
0.297542
0.30176
0.306188
0.310806
0.315594
0.320544
0.325343
0.332583
0.202616
0.202694
0.202768
0.20284
0.202907
0.20297
0.203028
0.203082
0.20313
0.203174
0.203213
0.203249
0.20328
0.20331
0.203337
0.203363
0.20339
0.203417
0.203447
0.20348
0.203517
0.20356
0.203609
0.203666
0.203732
0.203808
0.203895
0.203995
0.204108
0.204237
0.204383
0.204548
0.204734
0.204943
0.205177
0.205438
0.20573
0.206055
0.206416
0.206816
0.207258
0.207746
0.208282
0.20887
0.209513
0.210214
0.210976
0.211801
0.212691
0.213648
0.214672
0.215764
0.216923
0.218147
0.219436
0.220785
0.222191
0.223649
0.225154
0.226701
0.228281
0.229888
0.231514
0.233151
0.234792
0.236429
0.238056
0.239666
0.241254
0.242816
0.244349
0.245854
0.24733
0.24878
0.250208
0.25162
0.253023
0.254427
0.255843
0.257282
0.258759
0.260288
0.261885
0.263565
0.265347
0.267246
0.26928
0.271463
0.273811
0.276336
0.279048
0.281954
0.28506
0.288365
0.291865
0.295549
0.299404
0.303429
0.307364
0.313379
0.201435
0.201501
0.201565
0.201627
0.201686
0.201744
0.201798
0.201849
0.201897
0.201942
0.201984
0.202023
0.202061
0.202097
0.202134
0.20217
0.202208
0.202249
0.202292
0.202341
0.202395
0.202456
0.202526
0.202604
0.202693
0.202794
0.202907
0.203036
0.20318
0.203341
0.203522
0.203724
0.203948
0.204198
0.204474
0.20478
0.205118
0.20549
0.2059
0.206349
0.206841
0.207379
0.207965
0.208603
0.209295
0.210043
0.210851
0.211719
0.212649
0.213642
0.214699
0.215818
0.217
0.218241
0.21954
0.220893
0.222295
0.223742
0.225227
0.226744
0.228286
0.229845
0.231413
0.232982
0.234544
0.23609
0.237615
0.239111
0.240573
0.241996
0.243378
0.244716
0.246011
0.247263
0.248477
0.249657
0.250808
0.251939
0.253059
0.254178
0.255308
0.256461
0.257652
0.258894
0.260203
0.261593
0.263081
0.26468
0.266405
0.268269
0.270284
0.272459
0.274801
0.277314
0.28
0.282853
0.285868
0.289045
0.292178
0.29703
0.200507
0.200561
0.200614
0.200666
0.200717
0.200766
0.200815
0.200861
0.200906
0.200949
0.200991
0.201032
0.201072
0.201113
0.201154
0.201197
0.201242
0.20129
0.201344
0.201402
0.201468
0.201542
0.201624
0.201718
0.201823
0.201941
0.202073
0.202222
0.202388
0.202574
0.20278
0.203008
0.203262
0.203542
0.20385
0.20419
0.204563
0.204971
0.205418
0.205906
0.206438
0.207015
0.207641
0.208319
0.20905
0.209837
0.210681
0.211584
0.212546
0.213569
0.214652
0.215794
0.216993
0.218248
0.219554
0.220909
0.222306
0.223741
0.225208
0.226699
0.228207
0.229724
0.231241
0.232751
0.234245
0.235714
0.237153
0.238553
0.23991
0.241217
0.242473
0.243674
0.24482
0.245912
0.246952
0.247944
0.248892
0.249803
0.250685
0.251547
0.252399
0.253251
0.254117
0.255007
0.255936
0.256916
0.257962
0.259087
0.260304
0.261625
0.263063
0.264627
0.266327
0.268168
0.270154
0.272286
0.274562
0.276985
0.279396
0.283178
0.199789
0.199831
0.199873
0.199915
0.199957
0.199998
0.20004
0.200081
0.200121
0.200161
0.200201
0.200241
0.200282
0.200324
0.200367
0.200413
0.200462
0.200515
0.200574
0.200639
0.200712
0.200794
0.200885
0.200988
0.201104
0.201233
0.201378
0.201541
0.201722
0.201923
0.202147
0.202394
0.202668
0.202969
0.2033
0.203664
0.204062
0.204497
0.204971
0.205488
0.206048
0.206655
0.20731
0.208017
0.208777
0.209592
0.210463
0.211391
0.212377
0.21342
0.214521
0.215678
0.216888
0.218149
0.219457
0.220808
0.222197
0.223618
0.225064
0.226528
0.228003
0.229479
0.230949
0.232405
0.233837
0.235238
0.236601
0.237918
0.239184
0.240393