/*--------------------------------*- C++ -*----------------------------------*\
| =========                 |                                                 |
| \\      /  F ield         | OpenFOAM: The Open Source CFD Toolbox           |
|  \\    /   O peration     | Version:  4.1                                   |
|   \\  /    A nd           | Web:      www.OpenFOAM.org                      |
|    \\/     M anipulation  |                                                 |
\*---------------------------------------------------------------------------*/
FoamFile
{
    version     2.0;
    format      ascii;
    class       volScalarField;
    location    "1800";
    object      nut;
}
// * * * * * * * * * * * * * * * * * * * * * * * * * * * * * * * * * * * * * //

dimensions      [0 2 -1 0 0 0 0];

internalField   nonuniform List<scalar> 
6820
(
3.5437e-05
5.0672e-05
6.21565e-05
6.89859e-05
7.29393e-05
7.51484e-05
7.62608e-05
7.66561e-05
7.65742e-05
7.61754e-05
7.5569e-05
7.48309e-05
7.40141e-05
7.31562e-05
7.22833e-05
7.14134e-05
7.0559e-05
6.97284e-05
6.89268e-05
6.81576e-05
6.74223e-05
6.67216e-05
6.60553e-05
6.54228e-05
6.48231e-05
6.42549e-05
6.37168e-05
6.32074e-05
6.27236e-05
6.22715e-05
6.18128e-05
6.15232e-05
6.06191e-05
0.00135033
0.000930454
0.000725657
0.000569941
0.000453328
0.000372218
0.000316223
0.000276488
0.000247303
0.000225195
0.000208006
0.000194348
0.000183294
0.000174213
0.000166657
0.000160305
0.000154915
0.000150308
0.000146344
0.000142913
0.000139929
0.000137323
0.000135038
0.000133027
0.000131253
0.000129683
0.000128289
0.000127048
0.000125939
0.000124948
0.00012404
0.000123268
0.000122383
0.0034439
0.00180034
0.00133708
0.00108081
0.000912409
0.000791563
0.000700948
0.00063099
0.000575611
0.000530789
0.000493806
0.000462783
0.000436392
0.00041367
0.000393906
0.000376563
0.000361228
0.000347582
0.000335367
0.00032438
0.000314453
0.000305449
0.000297253
0.00028977
0.000282917
0.000276626
0.000270836
0.000265495
0.000260557
0.000255983
0.00025173
0.000247782
0.000244054
0.00637392
0.00310291
0.00217847
0.00173334
0.00146616
0.00128428
0.00115082
0.00104807
0.000966257
0.000899457
0.000843822
0.00079673
0.000756324
0.000721254
0.000690513
0.000663333
0.000639119
0.000617404
0.000597815
0.000580049
0.000563862
0.000549049
0.000535443
0.000522902
0.000511304
0.000500548
0.000490546
0.000481221
0.000472506
0.000464342
0.000456675
0.000449462
0.000442637
0.00899737
0.00527271
0.00366202
0.00284163
0.00235737
0.00203856
0.00181195
0.00164188
0.00150906
0.00140219
0.00131419
0.00124038
0.00117752
0.00112331
0.00107604
0.00103445
0.000997549
0.000964584
0.000934944
0.000908144
0.000883789
0.000861554
0.000841171
0.000822414
0.000805094
0.000789049
0.00077414
0.000760249
0.000747272
0.000735116
0.000723699
0.000712953
0.000702793
0.0103765
0.00752965
0.00561349
0.00443387
0.0036773
0.00316202
0.00279169
0.00251363
0.0022974
0.00212446
0.001983
0.00186512
0.00176535
0.00167982
0.00160567
0.00154077
0.00148348
0.00143254
0.00138694
0.00134589
0.00130873
0.00127495
0.00124409
0.0012158
0.00118976
0.00116572
0.00114345
0.00112276
0.00110349
0.00108549
0.00106863
0.00105281
0.00103791
0.0109773
0.00922098
0.00752198
0.0062241
0.00528073
0.00458893
0.00406896
0.0036676
0.00335004
0.00309329
0.00288184
0.00270491
0.00255483
0.00242601
0.0023143
0.00221656
0.00213035
0.00205377
0.00198533
0.0019238
0.0018682
0.00181773
0.00177172
0.00172961
0.00169094
0.0016553
0.00162235
0.00159181
0.00156342
0.00153696
0.00151224
0.00148909
0.00146736
0.0112223
0.01026
0.00902119
0.00786209
0.00689742
0.00612296
0.00550365
0.00500431
0.00459663
0.00425931
0.00397662
0.00373691
0.00353146
0.0033537
0.00319855
0.0030621
0.00294127
0.00283359
0.0027371
0.00265018
0.00257152
0.00250002
0.00243478
0.00237504
0.00232015
0.00226955
0.00222278
0.00217943
0.00213914
0.00210161
0.00206658
0.0020338
0.00200308
0.0113196
0.0108286
0.0100355
0.0091472
0.00830321
0.00755759
0.00691829
0.00637539
0.00591434
0.00552103
0.00518335
0.0048914
0.00463719
0.00441434
0.00421772
0.00404321
0.00388745
0.00374773
0.0036218
0.0035078
0.00340419
0.00330967
0.00322315
0.00314369
0.00307049
0.00300288
0.00294027
0.00288214
0.00282806
0.00277762
0.00273049
0.00268638
0.00264502
0.0113579
0.0111187
0.0106546
0.0100468
0.00939296
0.00875749
0.00817148
0.00764509
0.00717794
0.0067652
0.00640062
0.00607796
0.00579148
0.00553617
0.00530774
0.00510254
0.00491748
0.00474996
0.00459775
0.004459
0.00433209
0.00421568
0.00410857
0.00400977
0.0039184
0.00383369
0.00375499
0.00368172
0.00361336
0.00354946
0.00348964
0.00343354
0.00338085
0.0113728
0.01126
0.0110057
0.0106242
0.0101642
0.00967403
0.00918759
0.0087244
0.00829365
0.0078983
0.00753798
0.00721062
0.00691349
0.00664366
0.00639827
0.00617471
0.00597058
0.00578377
0.0056124
0.00545482
0.00530958
0.00517541
0.0050512
0.00493596
0.00482884
0.00472906
0.00463596
0.00454893
0.00446745
0.00439105
0.0043193
0.00425183
0.00418831
0.0113787
0.0113266
0.011194
0.0109703
0.0106711
0.0103231
0.00995189
0.00957698
0.00921101
0.0088614
0.00853191
0.008224
0.00793771
0.00767227
0.00742651
0.00719905
0.00698846
0.00679334
0.00661238
0.00644433
0.00628806
0.00614254
0.00600683
0.00588009
0.00576155
0.00565052
0.00554639
0.0054486
0.00535664
0.00527006
0.00518846
0.00511146
0.00503873
0.0113809
0.0113572
0.0112906
0.0111664
0.010984
0.0107537
0.0104904
0.0102084
0.00991919
0.00963123
0.00935017
0.00907955
0.00882138
0.00857663
0.00834557
0.00812802
0.00792353
0.00773149
0.00755121
0.00738196
0.00722302
0.00707369
0.00693328
0.00680116
0.00667675
0.00655949
0.00644887
0.00634442
0.00624571
0.00615236
0.00606398
0.00598026
0.00590088
0.0113818
0.0113708
0.0113383
0.0112723
0.0111671
0.0110237
0.0108485
0.0106497
0.0104355
0.0102131
0.00998805
0.00976448
0.00954535
0.00933266
0.00912765
0.00893106
0.00874325
0.00856427
0.00839404
0.00823233
0.00807882
0.00793317
0.00779501
0.00766393
0.00753957
0.00742153
0.00730947
0.00720303
0.00710188
0.00700571
0.00691424
0.0068272
0.00674433
0.0113822
0.0113768
0.0113611
0.0113273
0.0112692
0.0111846
0.0110744
0.0109422
0.0107927
0.0106308
0.0104607
0.0102863
0.0101104
0.00993552
0.00976319
0.0095947
0.00943091
0.00927239
0.00911949
0.00897237
0.00883111
0.00869565
0.00856591
0.00844173
0.00832294
0.00820934
0.00810073
0.0079969
0.00789763
0.00780272
0.00771197
0.00762517
0.00754215
0.0113823
0.0113794
0.0113717
0.0113547
0.0113238
0.011276
0.0112101
0.0111268
0.0110279
0.0109162
0.0107945
0.0106655
0.0105317
0.0103951
0.0102574
0.0101201
0.00998406
0.00985025
0.00971925
0.0095915
0.0094673
0.00934687
0.00923031
0.00911768
0.00900899
0.0089042
0.00880325
0.00870607
0.00861254
0.00852257
0.00843604
0.00835285
0.00827286
0.0113824
0.0113805
0.0113765
0.0113679
0.0113519
0.0113259
0.0112881
0.0112379
0.0111757
0.0111025
0.0110197
0.010929
0.0108321
0.0107305
0.0106258
0.010519
0.0104112
0.0103034
0.0101961
0.01009
0.00998549
0.00988292
0.00978255
0.00968457
0.00958913
0.00949631
0.00940616
0.00931871
0.00923396
0.00915189
0.00907247
0.00899565
0.00892139
0.0113824
0.0113809
0.0113786
0.0113741
0.0113658
0.0113519
0.011331
0.0113021
0.0112646
0.0112187
0.011165
0.0111041
0.0110372
0.0109652
0.0108891
0.0108098
0.0107282
0.010645
0.010561
0.0104765
0.0103922
0.0103084
0.0102255
0.0101436
0.010063
0.00998397
0.00990651
0.00983075
0.00975677
0.00968461
0.00961432
0.00954591
0.00947936
0.0113824
0.0113811
0.0113795
0.0113769
0.0113724
0.0113651
0.0113537
0.0113375
0.0113158
0.0112882
0.0112548
0.0112157
0.0111715
0.0111227
0.0110698
0.0110135
0.0109543
0.0108929
0.0108297
0.0107652
0.0107
0.0106342
0.0105683
0.0105025
0.010437
0.0103722
0.010308
0.0102447
0.0101824
0.0101212
0.0100611
0.0100022
0.00994459
0.0113824
0.0113812
0.0113798
0.0113781
0.0113755
0.0113714
0.0113653
0.0113563
0.011344
0.011328
0.011308
0.0112839
0.0112559
0.0112241
0.0111889
0.0111505
0.0111093
0.0110657
0.0110202
0.0109729
0.0109243
0.0108746
0.0108242
0.0107732
0.010722
0.0106706
0.0106193
0.0105682
0.0105175
0.0104672
0.0104175
0.0103684
0.01032
0.0113824
0.0113812
0.01138
0.0113786
0.0113768
0.0113744
0.0113709
0.0113659
0.011359
0.0113499
0.0113382
0.0113238
0.0113067
0.0112868
0.0112641
0.011239
0.0112114
0.0111816
0.0111499
0.0111165
0.0110816
0.0110454
0.0110081
0.0109699
0.0109311
0.0108917
0.0108519
0.010812
0.0107719
0.0107318
0.0106918
0.010652
0.0106125
0.0113824
0.0113812
0.01138
0.0113788
0.0113774
0.0113757
0.0113735
0.0113706
0.0113666
0.0113614
0.0113547
0.0113463
0.011336
0.0113238
0.0113097
0.0112937
0.0112758
0.0112561
0.0112347
0.0112117
0.0111873
0.0111616
0.0111348
0.0111069
0.0110782
0.0110487
0.0110186
0.010988
0.010957
0.0109257
0.0108942
0.0108625
0.0108308
0.0113824
0.0113812
0.01138
0.0113789
0.0113776
0.0113763
0.0113747
0.0113728
0.0113703
0.0113672
0.0113632
0.0113582
0.0113521
0.0113447
0.011336
0.0113259
0.0113143
0.0113014
0.0112871
0.0112715
0.0112546
0.0112365
0.0112174
0.0111972
0.0111761
0.0111541
0.0111315
0.0111081
0.0110842
0.0110598
0.011035
0.0110099
0.0109845
0.0113824
0.0113812
0.01138
0.0113789
0.0113777
0.0113765
0.0113752
0.0113737
0.011372
0.0113699
0.0113673
0.0113642
0.0113603
0.0113555
0.0113499
0.0113432
0.0113355
0.0113267
0.0113167
0.0113057
0.0112936
0.0112805
0.0112663
0.0112512
0.0112351
0.0112182
0.0112006
0.0111822
0.0111632
0.0111436
0.0111235
0.0111029
0.011082
0.0113824
0.0113812
0.01138
0.0113789
0.0113777
0.0113766
0.0113753
0.011374
0.0113726
0.0113709
0.0113689
0.0113665
0.0113635
0.0113599
0.0113556
0.0113504
0.0113444
0.0113375
0.0113297
0.0113208
0.011311
0.0113002
0.0112885
0.0112759
0.0112624
0.011248
0.0112329
0.0112171
0.0112006
0.0111835
0.0111658
0.0111476
0.011129
0.0113824
0.0113812
0.01138
0.0113789
0.0113777
0.0113765
0.0113753
0.011374
0.0113725
0.0113707
0.0113686
0.0113661
0.011363
0.0113593
0.0113548
0.0113496
0.0113434
0.0113364
0.0113284
0.0113194
0.0113095
0.0112986
0.0112868
0.0112741
0.0112606
0.0112462
0.0112311
0.0112152
0.0111987
0.0111816
0.011164
0.0111458
0.0111272
0.0113824
0.0113812
0.01138
0.0113789
0.0113777
0.0113764
0.011375
0.0113734
0.0113715
0.0113691
0.0113662
0.0113626
0.0113583
0.011353
0.0113468
0.0113395
0.0113312
0.0113218
0.0113113
0.0112998
0.0112872
0.0112735
0.0112589
0.0112434
0.0112271
0.0112099
0.011192
0.0111734
0.0111542
0.0111344
0.0111142
0.0110935
0.0110725
0.0113824
0.0113812
0.01138
0.0113788
0.0113775
0.011376
0.0113742
0.0113718
0.0113688
0.0113648
0.0113599
0.0113537
0.0113462
0.0113373
0.011327
0.0113153
0.0113021
0.0112875
0.0112715
0.0112543
0.0112359
0.0112164
0.0111959
0.0111744
0.0111521
0.011129
0.0111053
0.011081
0.0110562
0.011031
0.0110054
0.0109795
0.0109535
0.0113824
0.0113812
0.01138
0.0113787
0.011377
0.0113748
0.0113718
0.0113676
0.0113618
0.0113543
0.0113449
0.0113333
0.0113196
0.0113037
0.0112857
0.0112656
0.0112436
0.0112198
0.0111944
0.0111675
0.0111393
0.01111
0.0110797
0.0110486
0.0110167
0.0109843
0.0109514
0.0109182
0.0108847
0.010851
0.0108173
0.0107836
0.0107499
0.0113824
0.0113813
0.0113799
0.0113781
0.0113755
0.0113714
0.0113652
0.0113564
0.0113446
0.0113295
0.0113109
0.0112888
0.0112634
0.0112347
0.0112031
0.0111689
0.0111323
0.0110938
0.0110535
0.0110117
0.0109688
0.010925
0.0108805
0.0108355
0.0107902
0.0107447
0.0106992
0.0106538
0.0106086
0.0105637
0.0105192
0.0104751
0.0104314
0.0113825
0.0113812
0.0113794
0.0113761
0.0113704
0.0113611
0.0113472
0.0113279
0.0113028
0.011272
0.0112356
0.011194
0.0111477
0.0110974
0.0110436
0.0109871
0.0109282
0.0108677
0.0108058
0.0107431
0.0106799
0.0106166
0.0105533
0.0104902
0.0104277
0.0103658
0.0103047
0.0102444
0.0101851
0.0101268
0.0100696
0.0100135
0.00995844
0.0113825
0.0113808
0.011377
0.0113691
0.0113545
0.0113315
0.0112988
0.011256
0.0112036
0.0111424
0.0110735
0.0109982
0.0109178
0.0108335
0.0107465
0.0106576
0.0105676
0.0104773
0.0103873
0.0102978
0.0102094
0.0101224
0.0100368
0.00995291
0.00987086
0.0097907
0.00971249
0.00963628
0.00956206
0.00948985
0.00941962
0.00935134
0.00928499
0.0113825
0.0113787
0.0113679
0.0113447
0.0113054
0.011248
0.0111728
0.0110816
0.0109771
0.0108621
0.0107396
0.0106119
0.0104814
0.0103497
0.0102183
0.0100882
0.00996015
0.00983484
0.00971263
0.00959381
0.00947855
0.00936694
0.00925902
0.00915477
0.00905414
0.00895706
0.00886344
0.00877318
0.00868617
0.0086023
0.00852145
0.0084435
0.00836834
0.011382
0.0113691
0.0113325
0.0112633
0.0111587
0.0110222
0.0108601
0.0106799
0.0104883
0.010291
0.0100925
0.00989597
0.00970363
0.00951703
0.00933709
0.00916431
0.0089989
0.00884088
0.00869011
0.00854639
0.00840945
0.008279
0.00815471
0.00803628
0.00792339
0.00781573
0.00771302
0.00761498
0.00752133
0.00743183
0.00734625
0.00726437
0.00718597
0.0113786
0.0113249
0.0111997
0.0110009
0.0107442
0.0104511
0.0101407
0.00982717
0.00952002
0.00922488
0.00894479
0.00868112
0.00843415
0.00820345
0.00798818
0.00778733
0.00759987
0.00742475
0.00726098
0.00710765
0.00696389
0.00682892
0.00670204
0.00658259
0.00646999
0.00636371
0.00626326
0.0061682
0.00607815
0.00599273
0.00591162
0.00583451
0.00576115
0.0113536
0.011126
0.0107259
0.0102229
0.00968832
0.00916705
0.00868064
0.00823688
0.00783646
0.00747677
0.00715407
0.00686443
0.00660376
0.00636828
0.00615475
0.0059604
0.00578286
0.00562012
0.00547044
0.00533237
0.00520463
0.00508615
0.00497596
0.00487325
0.0047773
0.00468748
0.00460323
0.00452407
0.00444956
0.00437931
0.00431297
0.00425024
0.00419083
0.0111683
0.0102731
0.00924316
0.00829367
0.00748992
0.00682636
0.00627847
0.00582284
0.00544041
0.00511624
0.00483928
0.00459995
0.00439098
0.00420686
0.00404337
0.00389717
0.00376565
0.00364667
0.00353852
0.00343977
0.00334924
0.00326594
0.00318905
0.00311784
0.00305171
0.00299014
0.00293267
0.0028789
0.0028285
0.00278115
0.0027366
0.0026946
0.00265493
0.00982658
0.0072389
0.00577405
0.00486951
0.00424873
0.00378755
0.00342701
0.00314024
0.00290887
0.00271813
0.00255776
0.00242093
0.00230279
0.00219976
0.00210909
0.00202868
0.00195686
0.0018923
0.00183394
0.00178091
0.0017325
0.0016881
0.00164724
0.0016095
0.00157452
0.001542
0.00151169
0.00148336
0.00145683
0.00143192
0.00140848
0.0013864
0.00136554
0.00414167
0.00254161
0.00204418
0.00174836
0.00154034
0.00137827
0.00124767
0.00114134
0.00105376
0.000980907
0.000919641
0.000867559
0.00082282
0.000784018
0.000750077
0.00072016
0.000693609
0.000669902
0.000648616
0.000629411
0.000612006
0.000596167
0.000581701
0.000568445
0.000556259
0.000545025
0.000534641
0.00052502
0.000516085
0.00050777
0.000500016
0.000492772
0.000485986
0.000119434
0.000124352
0.000129424
0.000134072
0.000138235
0.000142037
0.000145562
0.000148849
0.000151924
0.000154806
0.000157512
0.000160054
0.000162444
0.000164691
0.000166805
0.000168794
0.000170666
0.000172428
0.000174087
0.000175649
0.000177119
0.000178503
0.000179806
0.000181034
0.00018219
0.000183279
0.000184304
0.00018527
0.00018618
0.000187038
0.000187846
0.000188607
0.000189325
6.59366e-05
7.81664e-05
9.79876e-05
0.000124208
0.000156122
0.000192476
0.00023203
0.00027345
0.000315376
0.000356583
0.000396176
0.00043369
0.000469077
0.000502592
0.000534655
0.000565711
0.000596137
0.000626197
0.000656037
0.000685712
0.000715221
0.000744551
0.000773694
0.000802665
0.000831498
0.000860243
0.000888951
0.000917675
0.000946456
0.000975329
0.00100432
0.00103344
0.00106272
0.00109215
0.00112174
0.00115151
0.00118146
0.00121159
0.00124193
0.00127249
0.00130329
0.00133438
0.0013658
0.0013976
0.00142985
0.00146263
0.00149603
0.00153017
0.00156518
0.00160119
0.00163838
0.00167692
0.00171701
0.00175887
0.00180273
0.00184881
0.00189738
0.00194867
0.00200291
0.00206032
0.00212111
0.00218544
0.00225346
0.00232524
0.00240084
0.00248025
0.00256338
0.00265013
0.00274031
0.00283367
0.00292995
0.00302883
0.00312997
0.00323299
0.00333752
0.00344316
0.00354952
0.00365618
0.00376276
0.00386885
0.00397408
0.00407806
0.00418045
0.00428092
0.00437915
0.00447485
0.00456776
0.00465764
0.0047443
0.00482755
0.00490725
0.00498326
0.00505549
0.00512385
0.00518835
0.00524884
0.00530565
0.00535828
0.0054064
0.00547055
0.000121876
0.000121681
0.000123485
0.000128412
0.000136231
0.00014698
0.000160763
0.000177685
0.000197791
0.000221064
0.000247395
0.000276557
0.000308195
0.000341836
0.000376923
0.00041286
0.00044908
0.000485095
0.000520546
0.000555218
0.000589032
0.000622018
0.00065427
0.000685916
0.00071708
0.000747878
0.000778403
0.000808736
0.00083894
0.000869073
0.000899184
0.00092932
0.000959522
0.000989825
0.00102026
0.00105087
0.00108167
0.0011127
0.00114399
0.00117557
0.00120748
0.00123978
0.00127251
0.00130576
0.00133959
0.0013741
0.00140939
0.00144559
0.00148284
0.0015213
0.00156114
0.00160254
0.00164573
0.00169091
0.00173833
0.00178821
0.00184079
0.00189629
0.00195494
0.00201691
0.00208236
0.00215142
0.00222417
0.00230064
0.00238081
0.0024646
0.00255189
0.0026425
0.00273619
0.0028327
0.00293172
0.00303294
0.00313601
0.00324058
0.00334629
0.00345279
0.00355972
0.00366672
0.00377343
0.00387952
0.00398465
0.00408849
0.00419072
0.00429105
0.00438919
0.00448488
0.00457788
0.00466796
0.00475493
0.00483861
0.00491885
0.00499552
0.00506852
0.00513775
0.00520322
0.00526476
0.00532269
0.00537654
0.00542578
0.00549174
0.000240037
0.00023541
0.000230581
0.000226135
0.000222683
0.00022072
0.000220455
0.000222023
0.00022567
0.000231683
0.00024034
0.00025188
0.00026646
0.000284134
0.000304838
0.000328394
0.000354521
0.000382859
0.000413
0.000444513
0.000476979
0.000510016
0.000543301
0.00057658
0.00060968
0.000642501
0.000675006
0.000707205
0.000739142
0.000770874
0.000802471
0.000833997
0.000865517
0.00089709
0.00092877
0.00096061
0.000992663
0.00102498
0.00105761
0.00109061
0.00112405
0.00115799
0.0011925
0.00122768
0.00126362
0.00130043
0.00133824
0.00137718
0.00141741
0.0014591
0.00150244
0.00154762
0.00159486
0.00164438
0.00169639
0.00175113
0.00180879
0.00186956
0.00193361
0.00200108
0.00207205
0.00214658
0.00222467
0.00230628
0.00239131
0.00247961
0.002571
0.00266523
0.00276204
0.00286114
0.00296221
0.00306494
0.003169
0.00327406
0.00337983
0.00348599
0.00359224
0.00369828
0.00380383
0.00390861
0.00401234
0.00411474
0.00421555
0.00431453
0.00441141
0.00450597
0.00459799
0.00468725
0.00477357
0.00485678
0.00493673
0.00501328
0.00508633
0.00515577
0.00522159
0.00528362
0.00534215
0.00539673
0.00544666
0.00551388
0.00043515
0.000426896
0.000418782
0.000410903
0.000403385
0.000396322
0.000389783
0.000383865
0.000378654
0.000374202
0.00037063
0.000368141
0.000367021
0.000367624
0.000370332
0.000375513
0.00038347
0.000394399
0.000408366
0.000425305
0.000445033
0.000467278
0.000491718
0.000518005
0.000545801
0.00057479
0.000604698
0.000635296
0.000666406
0.000697896
0.000729681
0.00076171
0.000793967
0.000826459
0.000859209
0.000892258
0.000925652
0.000959447
0.000993708
0.0010285
0.00106391
0.00110001
0.0011369
0.00117468
0.00121348
0.00125341
0.00129462
0.00133726
0.00138151
0.00142753
0.00147552
0.00152567
0.00157818
0.00163326
0.00169108
0.00175184
0.00181567
0.00188272
0.00195306
0.00202676
0.00210382
0.00218421
0.00226784
0.00235457
0.00244425
0.00253664
0.00263152
0.0027286
0.00282758
0.00292817
0.00303006
0.00313295
0.00323655
0.0033406
0.00344484
0.00354903
0.00365295
0.00375636
0.00385908
0.00396088
0.00406156
0.00416092
0.00425875
0.00435486
0.00444903
0.00454107
0.00463078
0.00471797
0.00480247
0.00488411
0.00496274
0.00503822
0.00511043
0.00517926
0.00524467
0.00530649
0.00536498
0.00541971
0.00546981
0.00553758
0.000691641
0.000679395
0.000667519
0.000656159
0.000645403
0.000635239
0.000625617
0.000616477
0.00060781
0.000599571
0.000591708
0.000584195
0.00057705
0.000570347
0.000564222
0.000558877
0.000554575
0.000551629
0.000550377
0.000551155
0.000554266
0.000559944
0.000568342
0.000579514
0.000593422
0.00060995
0.000628922
0.000650128
0.000673341
0.000698338
0.00072491
0.000752874
0.000782076
0.000812394
0.000843738
0.000876048
0.000909292
0.000943463
0.000978577
0.00101467
0.0010518
0.00109002
0.00112944
0.00117015
0.00121227
0.00125591
0.00130123
0.00134837
0.00139748
0.00144874
0.0015023
0.00155834
0.00161702
0.00167848
0.00174285
0.00181024
0.00188073
0.00195435
0.00203112
0.00211098
0.00219385
0.00227961
0.00236808
0.00245907
0.00255233
0.0026476
0.00274459
0.00284301
0.00294254
0.0030429
0.00314381
0.003245
0.00334623
0.0034473
0.00354803
0.00364824
0.0037478
0.00384658
0.00394444
0.00404128
0.00413697
0.00423137
0.00432437
0.0044158
0.00450553
0.00459339
0.00467921
0.00476284
0.00484411
0.00492286
0.00499894
0.00507219
0.00514249
0.00520972
0.00527381
0.00533458
0.00539225
0.00544643
0.00549607
0.00556356
0.0010216
0.0010038
0.000986649
0.000970286
0.000954813
0.00094023
0.000926477
0.000913469
0.000901125
0.000889374
0.000878136
0.000867341
0.000856943
0.000846926
0.000837299
0.000828106
0.000819423
0.000811361
0.000804063
0.000797705
0.000792493
0.000788651
0.000786415
0.000786018
0.000787678
0.00079158
0.000797869
0.000806639
0.000817937
0.000831762
0.000848073
0.000866798
0.000887849
0.000911124
0.000936525
0.000963961
0.000993353
0.00102464
0.00105778
0.00109275
0.00112955
0.0011682
0.00120875
0.00125124
0.00129575
0.00134237
0.0013912
0.00144234
0.00149591
0.00155202
0.00161078
0.0016723
0.00173667
0.00180395
0.00187419
0.00194742
0.00202362
0.00210272
0.00218465
0.00226927
0.00235642
0.00244588
0.00253742
0.00263078
0.00272566
0.00282177
0.00291878
0.00301641
0.00311433
0.00321229
0.00331002
0.0034073
0.00350396
0.00359984
0.00369484
0.00378887
0.00388187
0.0039738
0.00406463
0.00415434
0.00424289
0.00433023
0.00441632
0.00450108
0.00458441
0.00466621
0.00474635
0.0048247
0.00490112
0.00497544
0.00504751
0.00511719
0.00518433
0.00524878
0.00531048
0.00536921
0.00542515
0.00547793
0.00552636
0.00559255
0.00144364
0.00141788
0.00139317
0.00136961
0.00134729
0.0013262
0.00130628
0.00128745
0.00126962
0.00125268
0.00123657
0.00122119
0.0012065
0.00119247
0.00117909
0.00116637
0.00115436
0.00114309
0.00113264
0.00112307
0.00111448
0.00110697
0.00110066
0.00109566
0.00109212
0.00109018
0.00109001
0.00109173
0.00109551
0.00110148
0.00110974
0.00112041
0.00113357
0.00114926
0.00116752
0.00118839
0.00121187
0.00123796
0.00126667
0.001298
0.00133195
0.00136854
0.00140778
0.00144969
0.00149432
0.00154171
0.00159189
0.00164493
0.00170087
0.00175976
0.00182162
0.0018865
0.00195439
0.00202528
0.00209912
0.00217585
0.00225536
0.00233751
0.00242213
0.002509
0.00259789
0.00268852
0.00278061
0.00287383
0.00296786
0.00306237
0.00315702
0.00325151
0.00334554
0.00343884
0.00353118
0.00362239
0.00371233
0.0038009
0.00388806
0.0039738
0.00405814
0.00414113
0.00422282
0.00430328
0.00438257
0.00446075
0.00453784
0.00461384
0.00468874
0.0047625
0.00483503
0.00490624
0.00497601
0.0050442
0.00511066
0.00517525
0.0052378
0.00529815
0.00535621
0.00541175
0.00546489
0.00551529
0.00556163
0.00562538
0.00196958
0.00193328
0.00189854
0.0018654
0.0018339
0.00180404
0.00177574
0.00174892
0.00172347
0.00169931
0.00167634
0.00165448
0.00163367
0.00161389
0.00159512
0.00157739
0.00156072
0.00154515
0.00153075
0.00151756
0.00150564
0.00149506
0.00148586
0.00147813
0.00147192
0.00146731
0.00146437
0.00146319
0.00146386
0.00146649
0.00147117
0.00147802
0.00148714
0.00149865
0.00151265
0.00152924
0.0015485
0.00157054
0.00159541
0.00162319
0.00165395
0.00168772
0.00172457
0.00176453
0.00180765
0.00185395
0.00190347
0.00195622
0.0020122
0.00207143
0.00213387
0.00219949
0.00226822
0.00233998
0.00241466
0.0024921
0.00257214
0.00265455
0.0027391
0.00282552
0.0029135
0.00300272
0.00309284
0.0031835
0.00327435
0.00336503
0.00345518
0.00354449
0.00363265
0.00371942
0.00380457
0.00388796
0.00396947
0.00404905
0.00412672
0.0042025
0.00427651
0.00434884
0.00441966
0.0044891
0.00455733
0.00462449
0.00469069
0.00475604
0.0048206
0.0048844
0.00494741
0.00500961
0.00507091
0.0051312
0.00519035
0.0052482
0.00530462
0.00535941
0.00541246
0.00546352
0.00551268
0.00555957
0.00560285
0.0056628
0.0025999
0.00255102
0.0025042
0.00245947
0.00241683
0.00237624
0.00233763
0.0023009
0.00226597
0.00223272
0.00220106
0.0021709
0.00214221
0.00211493
0.00208906
0.00206462
0.00204164
0.00202016
0.00200024
0.00198194
0.00196531
0.00195041
0.00193728
0.00192598
0.00191655
0.00190902
0.00190344
0.00189985
0.00189829
0.00189882
0.00190149
0.00190637
0.00191353
0.00192305
0.00193502
0.00194953
0.00196667
0.00198655
0.00200925
0.00203486
0.00206348
0.00209519
0.00213006
0.00216814
0.00220951
0.00225419
0.00230221
0.00235359
0.00240832
0.00246637
0.0025277
0.00259222
0.00265984
0.00273043
0.00280382
0.00287981
0.00295818
0.00303867
0.00312098
0.00320481
0.0032898
0.00337559
0.00346182
0.00354808
0.00363399
0.00371918
0.00380328
0.00388595
0.00396689
0.00404585
0.00412262
0.00419706
0.00426907
0.00433864
0.00440579
0.00447062
0.00453326
0.00459389
0.00465271
0.00470996
0.00476587
0.00482066
0.00487457
0.00492777
0.00498041
0.00503262
0.00508446
0.00513595
0.00518707
0.00523776
0.00528792
0.00533742
0.00538612
0.00543383
0.00548043
0.00552565
0.00556952
0.0056117
0.00565084
0.00570549
0.00332329
0.00326081
0.00320086
0.00314342
0.00308847
0.00303596
0.00298581
0.00293792
0.00289221
0.00284856
0.0028069
0.00276712
0.00272919
0.00269306
0.00265872
0.0026262
0.00259552
0.00256672
0.00253987
0.00251501
0.00249222
0.00247155
0.00245305
0.00243677
0.00242275
0.00241102
0.00240161
0.00239454
0.00238984
0.00238754
0.00238765
0.00239022
0.00239528
0.00240287
0.00241304
0.00242585
0.00244137
0.00245966
0.0024808
0.00250486
0.00253192
0.00256204
0.0025953
0.00263176
0.00267146
0.00271444
0.00276073
0.00281032
0.00286321
0.00291935
0.00297867
0.00304108
0.00310645
0.00317462
0.0032454
0.00331856
0.00339385
0.00347098
0.00354962
0.00362943
0.00371003
0.00379105
0.00387208
0.00395271
0.00403254
0.00411117
0.00418824
0.00426339
0.00433632
0.00440678
0.00447457
0.00453953
0.00460159
0.00466073
0.00471701
0.00477053
0.00482145
0.00487
0.00491641
0.00496098
0.005004
0.00504578
0.0050866
0.00512675
0.00516648
0.00520597
0.0052454
0.00528487
0.00532443
0.00536408
0.00540378
0.00544343
0.00548293
0.00552211
0.00556082
0.00559882
0.00563609
0.00567229
0.00570615
0.00575393
0.00411872
0.00404297
0.00397008
0.0039
0.00383269
0.0037681
0.00370616
0.00364677
0.00358985
0.00353532
0.00348308
0.00343307
0.00338522
0.00333951
0.00329593
0.00325449
0.00321523
0.00317819
0.00314342
0.00311099
0.00308096
0.00305339
0.00302833
0.00300584
0.00298596
0.00296872
0.00295416
0.0029423
0.00293315
0.00292673
0.00292306
0.00292215
0.00292401
0.00292866
0.00293613
0.00294645
0.00295964
0.00297575
0.00299481
0.00301688
0.00304199
0.00307019
0.00310152
0.00313602
0.00317372
0.00321463
0.00325876
0.0033061
0.0033566
0.00341022
0.00346685
0.0035264
0.00358871
0.0036536
0.00372086
0.00379025
0.00386148
0.00393426
0.00400823
0.00408303
0.00415829
0.00423361
0.00430856
0.00438273
0.00445572
0.00452712
0.00459655
0.00466368
0.00472819
0.00478984
0.00484841
0.00490377
0.00495583
0.00500459
0.0050501
0.00509246
0.00513186
0.00516852
0.00520272
0.00523476
0.00526499
0.00529375
0.00532141
0.0053483
0.00537475
0.00540104
0.00542742
0.00545409
0.00548119
0.00550879
0.00553692
0.00556555
0.00559461
0.00562398
0.00565353
0.00568304
0.00571245
0.00574144
0.0057689
0.0058082
0.00495879
0.00487146
0.0047871
0.00470566
0.00462712
0.00455142
0.0044785
0.00440829
0.00434073
0.00427574
0.00421326
0.00415321
0.00409557
0.0040403
0.00398741
0.00393692
0.00388884
0.00384324
0.00380017
0.00375968
0.00372186
0.00368675
0.00365442
0.00362493
0.00359833
0.00357465
0.00355393
0.0035362
0.00352148
0.00350979
0.00350113
0.00349551
0.00349294
0.00349343
0.00349699
0.00350362
0.00351333
0.00352614
0.00354206
0.00356111
0.0035833
0.00360865
0.00363717
0.00366888
0.00370375
0.0037418
0.00378299
0.00382729
0.00387463
0.00392493
0.00397809
0.00403396
0.00409238
0.00415315
0.00421604
0.00428079
0.00434711
0.00441467
0.00448313
0.00455211
0.00462123
0.00469007
0.00475823
0.00482529
0.00489084
0.00495448
0.00501584
0.00507459
0.00513042
0.00518309
0.00523239
0.0052782
0.00532042
0.00535905
0.00539413
0.00542577
0.00545415
0.00547949
0.00550206
0.00552219
0.00554022
0.00555653
0.0055715
0.00558553
0.00559899
0.00561224
0.00562559
0.00563931
0.00565363
0.00566872
0.00568468
0.00570156
0.00571934
0.00573798
0.00575736
0.00577733
0.0057978
0.00581848
0.00583852
0.00586782
0.00581329
0.0057172
0.00562396
0.00553355
0.00544595
0.00536113
0.00527905
0.00519967
0.00512296
0.00504885
0.0049773
0.00490828
0.00484176
0.00477773
0.00471621
0.00465721
0.00460078
0.00454696
0.00449582
0.00444742
0.00440183
0.00435912
0.00431936
0.00428261
0.00424892
0.00421835
0.00419093
0.00416671
0.00414569
0.00412792
0.00411339
0.00410213
0.00409413
0.00408941
0.00408796
0.00408977
0.00409486
0.00410322
0.00411483
0.00412971
0.00414783
0.0041692
0.0041938
0.0042216
0.00425259
0.00428672
0.00432394
0.00436418
0.00440736
0.00445336
0.00450206
0.00455329
0.00460687
0.00466258
0.00472017
0.00477937
0.00483987
0.00490134
0.00496343
0.00502576
0.00508795
0.00514958
0.00521025
0.00526955
0.00532708
0.00538245
0.00543532
0.00548535
0.00553225
0.0055758
0.00561579
0.0056521
0.00568466
0.00571344
0.0057385
0.00575993
0.0057779
0.00579262
0.00580435
0.0058134
0.00582011
0.00582487
0.00582805
0.00583007
0.00583133
0.00583222
0.0058331
0.00583432
0.00583616
0.00583887
0.00584262
0.00584755
0.00585372
0.00586113
0.00586976
0.00587948
0.00589023
0.00590175
0.00591356
0.00593155
0.00665246
0.00655121
0.00645248
0.00635627
0.00626259
0.00617144
0.00608281
0.00599669
0.00591308
0.00583194
0.00575327
0.00567705
0.00560329
0.00553199
0.00546318
0.0053969
0.0053332
0.00527213
0.00521376
0.00515817
0.00510543
0.00505562
0.00500881
0.00496507
0.00492446
0.00488705
0.00485288
0.00482199
0.00479443
0.00477022
0.00474938
0.00473192
0.00471787
0.00470722
0.00469997
0.00469613
0.00469568
0.00469862
0.00470493
0.00471459
0.00472759
0.00474389
0.00476346
0.00478626
0.00481225
0.00484135
0.00487349
0.00490857
0.0049465
0.00498712
0.0050303
0.00507584
0.00512354
0.00517316
0.00522445
0.00527712
0.00533084
0.00538529
0.00544012
0.00549493
0.00554936
0.00560299
0.00565544
0.00570631
0.00575521
0.00580178
0.00584568
0.0058866
0.00592429
0.0059585
0.00598909
0.00601591
0.00603891
0.00605808
0.00607345
0.00608512