/*--------------------------------*- C++ -*----------------------------------*\
| =========                 |                                                 |
| \\      /  F ield         | OpenFOAM: The Open Source CFD Toolbox           |
|  \\    /   O peration     | Version:  4.1                                   |
|   \\  /    A nd           | Web:      www.OpenFOAM.org                      |
|    \\/     M anipulation  |                                                 |
\*---------------------------------------------------------------------------*/
FoamFile
{
    version     2.0;
    format      ascii;
    class       volScalarField;
    location    "1800";
    object      omega;
}
// * * * * * * * * * * * * * * * * * * * * * * * * * * * * * * * * * * * * * //

dimensions      [0 0 -1 0 0 0 0];

internalField   nonuniform List<scalar> 
6820
(
7254.63
8569.06
9629.25
10283
10668.4
10885.8
10995.8
11035
11026.8
10987.3
10927.3
10854.4
10774
10689.7
10604.1
10519.1
10435.8
10355
10277.3
10202.9
10131.9
10064.5
10000.5
9939.94
9882.62
9828.42
9777.2
9728.8
9682.93
9640.14
9596.76
9568.85
9477.11
600.799
1554.22
2092.91
2435.19
2698.34
2895.12
3033.36
3126.97
3188.97
3229.02
3253.95
3268.66
3276.58
3280.07
3280.76
3279.74
3277.77
3275.34
3272.8
3270.36
3268.15
3266.25
3264.7
3263.51
3262.69
3262.24
3262.16
3262.46
3263.2
3264.43
3266.32
3268.82
3274.04
107.108
368.908
596.394
767.386
894.981
993.333
1070.57
1131.54
1179.69
1217.64
1247.46
1270.8
1289.01
1303.18
1314.18
1322.7
1329.28
1334.36
1338.29
1341.35
1343.74
1345.64
1347.19
1348.49
1349.62
1350.65
1351.64
1352.62
1353.64
1354.73
1355.93
1357.25
1358.92
37.6577
108.378
189.201
265.511
332.231
389.334
437.981
479.461
514.908
545.244
571.225
593.484
612.561
628.919
642.952
655.001
665.356
674.265
681.943
688.569
694.3
699.268
703.586
707.351
710.645
713.539
716.095
718.366
720.398
722.232
723.908
725.457
726.928
23.8008
47.5371
77.7008
109.824
141.237
170.722
197.836
222.517
244.873
265.071
283.289
299.702
314.481
327.785
339.76
350.541
360.251
369.002
376.894
384.017
390.453
396.274
401.547
406.328
410.672
414.623
418.225
421.514
424.526
427.292
429.842
432.201
434.406
19.8177
29.4751
42.5078
57.2096
72.4553
87.5719
102.186
116.107
129.248
141.581
153.108
163.852
173.844
183.124
191.733
199.715
207.112
213.966
220.315
226.199
231.652
236.709
241.401
245.756
249.802
253.563
257.064
260.325
263.367
266.208
268.867
271.359
273.705
18.4341
22.8152
29.1685
36.6489
44.6826
52.9063
61.0978
69.1227
76.9009
84.3846
91.5471
98.3753
104.866
111.022
116.85
122.36
127.565
132.478
137.112
141.482
145.602
149.485
153.147
156.599
159.854
162.925
165.823
168.559
171.145
173.589
175.902
178.093
180.172
17.9115
19.9902
23.3042
27.4134
31.9742
36.7598
41.6266
46.4842
51.2743
55.9588
60.5125
64.9192
69.1691
73.2569
77.1804
80.94
84.5374
87.9761
91.2602
94.3945
97.3843
100.235
102.953
105.543
108.011
110.364
112.606
114.743
116.781
118.725
120.58
122.35
124.041
17.7059
18.7013
20.4733
22.8216
25.5371
28.4654
31.5038
34.5854
37.6658
40.7151
43.7129
46.6449
49.5015
52.2761
54.9647
57.5648
60.0754
62.4965
64.8287
67.0735
69.2325
71.3078
73.3018
75.2169
77.0559
78.8213
80.5159
82.1425
83.7038
85.2025
86.6414
88.0227
89.3495
17.6233
18.0951
19.0401
20.3949
22.0449
23.887
25.8451
27.8668
29.9161
31.9683
34.006
36.0167
37.9918
39.9249
41.8117
43.6492
45.4354
47.1691
48.8498
50.4775
52.0524
53.5753
55.047
56.4684
57.8408
59.1653
60.4435
61.6766
62.8661
64.0133
65.1198
66.1868
67.2157
17.5896
17.8082
18.3025
19.0753
20.0762
21.243
22.5218
23.8719
25.2637
26.6759
28.0932
29.5047
30.9021
32.2796
33.6328
34.9585
36.2545
37.5191
38.7514
39.9507
41.1167
42.2492
43.3486
44.4151
45.4492
46.4514
47.4223
48.3627
49.2732
50.1547
51.0078
51.8333
52.6321
17.5758
17.6732
17.924
18.3539
18.9503
19.682
20.5146
21.4186
22.3704
23.3521
24.3503
25.3549
26.3585
27.3555
28.3415
29.3133
30.2685
31.2054
32.1225
33.0191
33.8944
34.748
35.5798
36.3897
37.1777
37.944
38.6889
39.4126
40.1156
40.7981
41.4606
42.1035
42.7271
17.5702
17.6104
17.7324
17.9633
18.3084
18.7568
19.2901
19.889
20.5362
21.2175
21.9217
22.6397
23.3649
24.0918
24.8164
25.5355
26.2466
26.9479
27.6377
28.3151
28.9792
29.6293
30.2652
30.8864
31.4928
32.0844
32.6611
33.2231
33.7704
34.3032
34.8217
35.3261
35.8165
17.5678
17.5817
17.6374
17.7559
17.9479
18.2137
18.5461
18.9343
19.3672
19.8343
20.3268
20.8373
21.3597
21.8894
22.4224
22.9557
23.4869
24.014
24.5354
25.05
25.5569
26.0551
26.5443
27.024
27.4938
27.9535
28.4031
28.8423
29.2713
29.69
30.0984
30.4966
30.8847
17.5669
17.5687
17.5913
17.6483
17.7501
17.9012
18.1009
18.3448
18.6268
18.9402
19.2785
19.6362
20.0084
20.3909
20.7804
21.1739
21.5694
21.9647
22.3585
22.7494
23.1365
23.5189
23.8959
24.2671
24.6321
24.9905
25.342
25.6865
26.024
26.3542
26.6771
26.9927
27.301
17.5665
17.563
17.5695
17.5941
17.6444
17.7258
17.8405
17.9877
18.1651
18.369
18.5955
18.8405
19.1005
19.3722
19.6527
19.9397
20.2311
20.5251
20.8203
21.1156
21.4097
21.7021
21.9918
22.2784
22.5614
22.8404
23.1151
23.3853
23.6507
23.9113
24.1668
24.4172
24.6624
17.5663
17.5605
17.5594
17.5675
17.5897
17.6303
17.6923
17.7769
17.8837
18.0113
18.1577
18.3205
18.4972
18.6856
18.8834
19.0888
19.2999
19.5153
19.7338
19.9541
20.1754
20.3967
20.6176
20.8373
21.0553
21.2713
21.4849
21.6959
21.9039
22.1088
22.3104
22.5086
22.7032
17.5662
17.5595
17.5549
17.5548
17.5621
17.5799
17.6107
17.6561
17.7169
17.7929
17.8836
17.9876
18.1036
18.2302
18.3657
18.5089
18.6583
18.8128
18.9713
19.1329
19.2967
19.4619
19.628
19.7943
19.9605
20.126
20.2906
20.4539
20.6157
20.7757
20.9338
21.0897
21.2435
17.5662
17.559
17.5529
17.5489
17.5487
17.5542
17.5672
17.5891
17.6211
17.6636
17.7166
17.7799
17.8528
17.9345
18.0241
18.1207
18.2233
18.3311
18.4432
18.559
18.6776
18.7985
18.9211
19.045
19.1696
19.2947
19.4198
19.5447
19.6691
19.7928
19.9155
20.0372
20.1576
17.5662
17.5588
17.552
17.5462
17.5424
17.5415
17.5447
17.5532
17.5679
17.5894
17.6181
17.6542
17.6975
17.7477
17.8043
17.8668
17.9347
18.0074
18.0842
18.1648
18.2484
18.3347
18.4233
18.5135
18.6053
18.698
18.7916
18.8857
18.98
19.0743
19.1685
19.2624
19.3558
17.5662
17.5588
17.5516
17.5451
17.5395
17.5354
17.5335
17.5346
17.5394
17.5483
17.562
17.5807
17.6044
17.6332
17.667
17.7055
17.7484
17.7954
17.8462
17.9004
17.9576
18.0175
18.0797
18.1441
18.2101
18.2776
18.3463
18.416
18.4865
18.5575
18.629
18.7006
18.7724
17.5662
17.5587
17.5515
17.5445
17.5381
17.5325
17.5281
17.5253
17.5246
17.5265
17.5312
17.5392
17.5506
17.5656
17.5843
17.6065
17.6322
17.6612
17.6934
17.7286
17.7666
17.807
17.8498
17.8946
17.9413
17.9896
18.0394
18.0905
18.1426
18.1956
18.2494
18.3038
18.3587
17.5662
17.5587
17.5514
17.5443
17.5376
17.5313
17.5256
17.5209
17.5174
17.5153
17.5151
17.517
17.5211
17.5277
17.5369
17.5487
17.5632
17.5804
17.6002
17.6225
17.6471
17.6741
17.7031
17.7342
17.7671
17.8017
17.8378
17.8753
17.914
17.9539
17.9947
18.0363
18.0788
17.5662
17.5587
17.5514
17.5442
17.5373
17.5307
17.5245
17.5189
17.514
17.5101
17.5074
17.506
17.5063
17.5083
17.5122
17.5181
17.5261
17.5363
17.5486
17.563
17.5795
17.5981
17.6186
17.6409
17.665
17.6907
17.718
17.7467
17.7767
17.8079
17.8402
17.8735
17.9077
17.5662
17.5587
17.5514
17.5442
17.5372
17.5306
17.5242
17.5183
17.513
17.5084
17.5048
17.5022
17.501
17.5012
17.503
17.5065
17.5117
17.5189
17.5279
17.5389
17.5517
17.5664
17.5829
17.6012
17.6212
17.6427
17.6657
17.6902
17.716
17.743
17.7711
17.8002
17.8303
17.5662
17.5587
17.5514
17.5442
17.5373
17.5307
17.5244
17.5187
17.5136
17.5094
17.5062
17.5041
17.5034
17.5042
17.5067
17.5108
17.5168
17.5246
17.5343
17.5459
17.5593
17.5746
17.5917
17.6104
17.6308
17.6528
17.6762
17.701
17.727
17.7543
17.7826
17.8119
17.8422
17.5662
17.5587
17.5514
17.5443
17.5376
17.5312
17.5255
17.5205
17.5166
17.5139
17.5127
17.5131
17.5153
17.5194
17.5256
17.5338
17.5442
17.5568
17.5714
17.5881
17.6068
17.6274
17.6498
17.674
17.6998
17.7271
17.7558
17.7858
17.817
17.8493
17.8826
17.9167
17.9517
17.5662
17.5587
17.5515
17.5446
17.5383
17.5328
17.5283
17.5254
17.5242
17.5251
17.5284
17.5344
17.543
17.5544
17.5687
17.5858
17.6056
17.6281
17.6531
17.6805
17.71
17.7417
17.7753
17.8106
17.8475
17.8859
17.9255
17.9663
18.0082
18.0509
18.0944
18.1386
18.1834
17.5662
17.5588
17.5518
17.5455
17.5403
17.5368
17.5355
17.5371
17.542
17.5507
17.5634
17.5803
17.6014
17.6267
17.656
17.689
17.7256
17.7655
17.8084
17.8539
17.902
17.9521
18.0042
18.0579
18.1131
18.1695
18.227
18.2853
18.3443
18.4039
18.4638
18.5241
18.5847
17.5663
17.5591
17.5527
17.548
17.5458
17.5473
17.5535
17.5653
17.5834
17.6079
17.6392
17.677
17.7211
17.771
17.8263
17.8865
17.9509
18.0192
18.0908
18.1652
18.2419
18.3207
18.4011
18.4827
18.5654
18.6488
18.7328
18.817
18.9014
18.9857
19.0699
19.1538
19.2372
17.5663
17.5598
17.5555
17.5552
17.5611
17.5751
17.5988
17.6332
17.6786
17.7349
17.8015
17.8776
17.9624
18.0547
18.1535
18.2578
18.3668
18.4796
18.5954
18.7136
18.8335
18.9548
19.0768
19.1992
19.3218
19.4441
19.566
19.6872
19.8076
19.927
20.0452
20.1623
20.278
17.5666
17.5622
17.5642
17.5767
17.6039
17.6486
17.7124
17.7951
17.896
18.0132
18.145
18.289
18.4433
18.606
18.7753
18.9497
19.1279
19.3087
19.4912
19.6746
19.8581
20.0413
20.2236
20.4047
20.5843
20.7619
20.9376
21.111
21.282
21.4506
21.6165
21.7799
21.9406
17.5674
17.5706
17.5924
17.6417
17.7245
17.8427
17.995
18.1778
18.3868
18.6172
18.8646
19.125
19.3951
19.6719
19.953
20.2365
20.5208
20.8047
21.0871
21.3673
21.6446
21.9185
22.1886
22.4546
22.7164
22.9737
23.2264
23.4745
23.7178
23.9564
24.1903
24.4195
24.644
17.5706
17.6016
17.687
17.8408
18.065
18.3527
18.6933
19.0751
19.4875
19.9213
20.3693
20.8257
21.2861
21.7468
22.2053
22.6598
23.1087
23.5511
23.9861
24.4133
24.8323
25.2428
25.6448
26.038
26.4227
26.7987
27.1661
27.5252
27.8759
28.2184
28.553
28.8797
29.1986
17.5854
17.7219
18.012
18.4558
19.0269
19.692
20.4205
21.1884
21.9779
22.7761
23.5742
24.3656
25.1458
25.912
26.6624
27.3959
28.112
28.8105
29.4912
30.1545
30.8004
31.4292
32.0415
32.6374
33.2175
33.7821
34.3316
34.8666
35.3873
35.8942
36.3878
36.8684
37.3363
17.6614
18.2163
19.1616
20.3924
21.7983
23.2954
24.8285
26.3634
27.8795
29.3645
30.811
32.2141
33.5724
34.8867
36.158
37.3876
38.5772
39.7282
40.8422
41.9207
42.9651
43.9766
44.9567
45.9064
46.827
47.7195
48.5851
49.4247
50.2392
51.0297
51.7969
52.5417
53.265
18.1027
20.3856
23.4854
26.9261
30.4414
33.9035
37.2583
40.4819
43.5648
46.506
49.3035
51.9688
54.5134
56.9473
59.2786
61.5147
63.6615
65.7245
67.7086
69.6179
71.4564
73.2276
74.9348
76.5811
78.1693
79.7022
81.1821
82.6114
83.9925
85.3273
86.6179
87.8661
89.074
21.2182
31.4407
42.4859
53.1245
62.9728
72.0352
80.437
88.1941
95.3422
101.98
108.198
114.053
119.587
124.83
129.807
134.537
139.039
143.329
147.42
151.324
155.054
158.621
162.033
165.3
168.431
171.434
174.315
177.082
179.742
182.299
184.76
187.13
189.415
59.9537
123.961
170.318
207.141
238.336
266.971
293.908
319.087
342.453
364.003
383.807
401.994
418.713
434.117
448.35
461.539
473.801
485.235
495.931
505.966
515.406
524.311
532.732
540.713
548.295
555.512
562.395
568.972
575.266
581.3
587.092
592.661
598.025
1719.4
1778.23
1839.24
1895.41
1945.93
1992.23
2035.28
2075.52
2113.26
2148.7
2182.04
2213.4
2242.93
2270.74
2296.93
2321.61
2344.85
2366.74
2387.37
2406.81
2425.12
2442.37
2458.63
2473.95
2488.38
2501.98
2514.8
2526.87
2538.26
2548.99
2559.1
2568.63
2577.62
9372.64
8893.31
8342.74
7781.32
7246.2
6751.58
6303.19
5899.24
5534.61
5203.45
4900.74
4622.68
4366.57
4130.41
3912.6
3711.7
3526.34
3355.18
3196.98
3050.56
2914.85
2788.89
2671.76
2562.59
2460.57
2364.92
2274.91
2189.86
2109.17
2032.3
1958.74
1888.08
1819.92
1753.92
1689.8
1627.31
1566.22
1506.35
1447.57
1389.76
1332.84
1276.75
1221.48
1167.02
1113.41
1060.68
1008.92
958.217
908.669
860.395
813.523
768.179
724.493
682.586
642.569
604.538
568.571
534.725
503.032
473.502
446.119
420.848
397.633
376.398
357.056
339.507
323.644
309.355
296.523
285.034
274.773
265.63
257.498
250.276
243.869
238.187
233.145
228.667
224.68
221.119
217.923
215.038
212.413
210.006
207.775
205.686
203.709
201.816
199.985
198.195
196.429
194.673
192.915
191.143
189.351
187.529
185.679
183.769
181.958
179.23
3275.1
3321.35
3380.52
3438.19
3501.64
3568.7
3632.09
3683.3
3715.46
3724.18
3707.72
3666.62
3603.12
3520.57
3422.92
3314.31
3198.7
3079.63
2959.97
2841.93
2726.98
2616.02
2509.51
2407.57
2310.13
2217.03
2128.04
2042.9
1961.34
1883.09
1807.87
1735.41
1665.46
1597.78
1532.16
1468.42
1406.39
1345.93
1286.93
1229.31
1173.01
1117.99
1064.23
1011.74
960.555
910.706
862.254
815.268
769.824
726.006
683.899
643.584
605.139
568.631
534.115
501.628
471.194
442.813
416.472
392.134
369.749
349.251
330.559
313.586
298.234
284.402
271.986
260.881
250.983
242.19
234.405
227.534
221.488
216.183
211.54
207.486
203.952
200.873
198.19
195.848
193.797
191.99
190.385
188.944
187.631
186.417
185.274
184.177
183.107
182.044
180.974
179.884
178.762
177.599
176.389
175.122
173.803
172.403
171.054
168.961
1361.05
1366.14
1375.12
1386.8
1400.67
1416.9
1436.3
1460.44
1490.9
1528.46
1573.07
1623.77
1678.66
1735.01
1789.51
1838.66
1879.25
1908.74
1925.55
1929.15
1920.05
1899.49
1869.18
1831.04
1786.91
1738.44
1686.98
1633.6
1579.12
1524.12
1469.03
1414.17
1359.75
1305.94
1252.84
1200.55
1149.11
1098.58
1049
1000.4
952.825
906.32
860.932
816.712
773.721
732.021
691.68
652.764
615.343
579.481
545.24
512.673
481.825
452.727
425.401
399.851
376.069
354.031
333.698
315.021
297.939
282.38
268.268
255.519
244.05
233.774
224.604
216.455
209.246
202.896
197.33
192.477
188.267
184.638
181.528
178.882
176.646
174.769
173.205
171.911
170.844
169.967
169.244
168.643
168.133
167.689
167.284
166.899
166.513
166.111
165.678
165.201
164.67
164.076
163.414
162.675
161.862
160.952
160.048
158.575
728.561
730.477
732.512
734.587
736.702
738.988
741.684
744.986
749.102
754.577
762.006
771.964
784.958
801.367
821.372
844.888
871.506
900.461
930.657
960.74
989.223
1014.65
1035.74
1051.54
1061.44
1065.23
1063.05
1055.29
1042.52
1025.38
1004.55
980.663
954.309
925.999
896.175
865.217
833.45
801.149
768.553
735.87
703.282
670.952
639.027
607.64
576.912
546.956
517.873
489.756
462.688
436.743
411.981
388.455
366.204
345.253
325.616
307.295
290.279
274.545
260.061
246.786
234.67
223.662
213.702
204.73
196.686
189.507
183.133
177.506
172.567
168.263
164.54
161.35
158.644
156.378
154.509
152.998
151.804
150.892
150.226
149.772
149.498
149.373
149.368
149.455
149.609
149.806
150.024
150.243
150.447
150.618
150.743
150.811
150.81
150.732
150.57
150.317
149.975
149.524
149.041
148.158
436.786
439.389
441.881
444.137
446.081
447.728
449.144
450.423
451.629
452.864
454.271
456.008
458.24
461.131
464.846
469.532
475.317
482.284
490.465
499.809
510.177
521.325
532.912
544.51
555.634
565.782
574.474
581.289
585.902
588.091
587.75
584.877
579.557
571.943
562.238
550.671
537.486
522.926
507.231
490.627
473.328
455.531
437.418
419.157
400.899
382.784
364.935
347.464
330.468
314.033
298.231
283.121
268.753
255.161
242.369
230.392
219.233
208.886
199.338
190.569
182.554
175.263
168.665
162.725
157.408
152.677
148.498
144.836
141.655
138.924
136.61
134.682
133.111
131.868
130.926
130.257
129.835
129.635
129.631
129.798
130.111
130.547
131.08
131.69
132.353
133.048
133.757
134.46
135.141
135.785
136.376
136.905
137.359
137.729
138.008
138.189
138.271
138.238
138.141
137.806
276.264
279.054
281.732
284.239
286.52
288.558
290.366
291.972
293.406
294.699
295.893
297.027
298.144
299.281
300.477
301.768
303.193
304.788
306.586
308.618
310.905
313.455
316.258
319.281
322.462
325.716
328.925
331.955
334.653
336.864
338.439
339.241
339.161
338.118
336.065
332.986
328.899
323.847
317.898
311.135
303.655
295.561
286.962
277.967
268.683
259.213
249.653
240.095
230.622
221.308
212.219
203.412
194.937
186.833
179.131
171.855
165.021
158.639
152.711
147.236
142.209
137.62
133.458
129.707
126.354
123.381
120.772
118.509
116.576
114.955
113.628
112.58
111.793
111.251
110.938
110.838
110.932
111.205
111.639
112.216
112.918
113.726
114.622
115.587
116.603
117.65
118.711
119.77
120.809
121.814
122.771
123.667
124.49
125.231
125.881
126.432
126.882
127.217
127.461
127.621
182.462
184.974
187.407
189.734
191.925
193.967
195.858
197.604
199.215
200.702
202.078
203.356
204.546
205.656
206.691
207.656
208.553
209.385
210.156
210.872
211.538
212.162
212.751
213.311
213.844
214.348
214.814
215.226
215.559
215.781
215.853
215.731
215.371
214.725
213.753
212.42
210.699
208.573
206.037
203.096
199.766
196.073
192.05
187.737
183.179
178.424
173.522
168.523
163.476
158.427
153.42
148.496
143.69
139.036
134.559
130.284
126.228
122.405
118.827
115.499
112.427
109.611
107.051
104.745
102.688
100.875
99.3004
97.9581
96.8408
95.9412
95.2518
94.7645
94.4714
94.3642
94.434
94.6718
95.0678
95.6116
96.2921
97.0973
98.0145
99.0299
100.129
101.297
102.519
103.779
105.06
106.347
107.626
108.88
110.096
111.262
112.364
113.391
114.335
115.185
115.938
116.582
117.119
117.709
125.918
127.993
130.02
131.984
133.871
135.673
137.385
139.006
140.539
141.987
143.354
144.643
145.857
146.995
148.057
149.039
149.936
150.744
151.458
152.073
152.587
152.997
153.305
153.511
153.618
153.629
153.548
153.377
153.117
152.767
152.324
151.782
151.133
150.367
149.473
148.439
147.255
145.91
144.399
142.715
140.86
138.837
136.652
134.318
131.849
129.263
126.58
123.822
121.013
118.176
115.335
112.513
109.733
107.013
104.374
101.831
99.4
97.0921
94.9182
92.8864
91.0033
89.2738
87.7013
86.288
85.035
83.9425
83.01
82.2363
81.6198
81.1585
80.8499
80.6913
80.6798
80.812
81.084
81.4916
82.0299
82.6933
83.4754
84.3686
85.3648
86.4544
87.6271
88.8715
90.1753
91.5254
92.9083
94.3102
95.7168
97.1141
98.4885
99.8266
101.116
102.344
103.501
104.577
105.564
106.454
107.225
108.174
90.831
92.4791
94.0996
95.6857
97.2297
98.7256
100.17
101.56
102.897
104.179
105.409
106.585
107.708
108.776
109.786
110.735
111.618
112.43
113.163
113.814
114.376
114.846
115.219
115.495
115.67
115.748
115.727
115.612
115.404
115.106
114.722
114.253
113.701
113.067
112.352
111.556
110.677
109.716
108.67
107.541
106.328
105.034
103.661
102.215
100.7
99.1251
97.4982
95.8299
94.131
92.4136
90.6898
88.9723
87.2735
85.6054
83.9796
82.4068
80.8969
79.4589
78.1006
76.8289
75.6497
74.5681
73.5881
72.713
71.9456
71.2877
70.7411
70.3068
69.9855
69.7776
69.6834
69.7027
69.8353
70.0807
70.4379
70.9057
71.4824
72.1656
72.9523
73.8385
74.8194
75.8891
77.0407
78.2663
79.5565
80.9015
82.2901
83.7106
85.1507
86.5976
88.0385
89.4605
90.8512
92.1981
93.4902
94.7159
95.8679
96.9369
97.8858
99.1148
68.3704
69.6612
70.9377
72.196
73.4317
74.6409
75.821
76.9703
78.0872
79.171
80.2213
81.2374
82.2182
83.1621
84.0665
84.9283
85.7436
86.508
87.2167
87.8648
88.4474
88.9602
89.3991
89.761
90.0434
90.2448
90.3645
90.4028
90.3606
90.2396
90.0419
89.7701
89.4268
89.0148
88.5368
87.9955
87.3933
86.7325
86.0156
85.2447
84.4224
83.5512
82.6344
81.6752
80.6778
79.6468
78.5874
77.5052
76.4067
75.2986
74.1879
73.082
71.9883
70.9141
69.8667
68.8531
67.8798
66.9529
66.0781
65.2606
64.505
63.8153
63.1952
62.6479
62.176
61.7821
61.4681
61.2359
61.087
61.0229
61.0447
61.1538
61.351
61.6372
62.0133
62.4795
63.0362
63.683
64.4191
65.2432
66.153
67.1455
68.2166
69.3613
70.5735
71.846
73.1703
74.5374
75.937
77.3582
78.7897
80.2198
81.6365
83.0278
84.3826
85.6889
86.9382
88.1223
89.1903
90.6212
53.5317
54.5416
55.5448
56.539
57.5216
58.4901
59.4427
60.3777
61.2939
62.1903
63.0661
63.9204
64.7521
65.5597
66.3412
67.0943
67.8159
68.5028
69.1515
69.7582
70.3191
70.8303
71.2886
71.6908
72.0341
72.3165
72.5363
72.6928
72.7855
72.8148
72.7815
72.6869
72.5327
72.321
72.054
71.7343
71.3645
70.9473
70.4855
69.9819
69.4394
68.861
68.2497
67.609
66.9421
66.2528
65.545
64.8227
64.0904
63.3526
62.6141
61.8796
61.1542
60.4427
59.75
59.0807
58.4395
57.8307
57.2582
56.726
56.2375
55.7958
55.4039
55.0645
54.7798
54.5522
54.3835
54.2756
54.2303
54.2491
54.3338
54.4857
54.7065
54.9977
55.3606
55.7966
56.307
56.8926
57.554
58.2915
59.1046
59.9925
60.9533
61.9843
63.0821
64.2418
65.458
66.7238
68.0316
69.3727
70.7377
72.1164
73.4982
74.8721
76.2275
77.5528
78.8387
80.0782
81.2106
82.767
43.4318
44.2254
45.0168
45.8044
46.5866
47.3618
48.1286
48.8859
49.6325
50.3676
51.0904
51.7999
52.4953
53.1753
53.8384
54.4829
55.1065
55.707
56.2818
56.828
57.3429
57.8234
58.267
58.6709
59.0328
59.3505
59.6225
59.8472
60.024
60.1521
60.2316
60.2629
60.2467
60.1841
60.0764
59.9255
59.7333
59.5018
59.2334
58.9305
58.5957
58.2316
57.841
57.4268
56.992
56.5396
56.0729
55.5951
55.1095
54.6197
54.1292
53.6416
53.1605
52.6894
52.2318
51.7912
51.3708
50.9739
50.6034
50.2622
49.9529
49.678
49.4397
49.2402
49.0813
48.965
48.8928
48.8665
48.8875
48.9576
49.0781
49.2507
49.4769
49.7585
50.0971
50.4943
50.9518
51.471
52.0534
52.7
53.4117
54.1888
55.0311
55.9377
56.9071
57.9367
59.0232
60.1622
61.3484
62.5753
63.8358
65.1216
66.424
67.7334
69.0402
70.3339
71.6051
72.8482
73.9966
75.6085
36.3722
36.9998
37.6276
38.2547
38.8799
39.5022
40.1207
40.7343
41.3423
41.9439
42.5384
43.1251
43.7032
44.2717
44.8295
45.3753
45.9076
46.4247
46.9246
47.4054
47.865
48.3013
48.7121
49.0953
49.449
49.7715
50.0611
50.3165
50.5367
50.7208
50.8684
50.9793
51.0535
51.0916
51.0943
51.0624
50.9972
50.9002
50.773
50.6174
50.4353
50.229
50.0006
49.7524
49.487
49.2068
48.9145
48.6128
48.3042
47.9917
47.6779
47.3658
47.0579
46.7572
46.4662
46.1876
45.9239
45.6776
45.4508
45.2457
45.0645
44.9089
44.7807
44.6816
44.6131
44.5767
44.5737
44.6054
44.6732
44.7784
44.9225
45.1066
45.3325
45.6015
45.9154
46.2757
46.6842
47.1426
47.6526
48.2156
48.8331
49.5063
50.2359
51.0222
51.865
52.7635
53.7161
54.7203
55.7729
56.8696
58.0052
59.1738
60.3684
61.5813
62.8045
64.0287
65.2454
66.4503
67.5745
69.1814
31.3254
31.8246
32.3254
32.8273
33.3293
33.8309
34.3313
34.8297
35.3257
35.8184
36.3075
36.7922
37.272
37.7461
38.2137
38.6738
39.1254
39.5671
39.9976
40.4156
40.8194
41.2074
41.5782
41.9301
42.2616
42.5712
42.8577
43.1199
43.3566
43.5672
43.751
43.9075
44.0366
44.1383
44.2128
44.2607
44.2825
44.2791
44.2517
44.2016
44.13
44.0385
43.929
43.8031
43.6628
43.5101
43.3471
43.1759
42.9987
42.8177
42.6351
42.4531
42.274
42.0998
41.9327
41.7748
41.6279
41.494
41.3749
41.2721
41.1873
41.1219
41.0773
41.0547
41.0553
41.0802
41.1305
41.2072
41.3114
41.4442
41.6067
41.8
42.0254
42.2843
42.578
42.9081
43.2762
43.6839
44.1329
44.6249
45.1615
45.7442
46.3743
47.0528
47.7804
48.5574
49.3833
50.2573
51.1776
52.1419
53.1468
54.1882
55.2612
56.3598
57.4779
58.6078
59.7421
60.878
61.9472
63.5008
27.6521
28.0507
28.4518
28.855
29.2596
29.6652
30.0713
30.4772
30.8825
31.2868
31.6896
32.0904
32.4887
32.8839
33.2755
33.6627
34.0447
34.4206
34.7894
35.1502
35.5018
35.843
36.1727
36.4897
36.7928
37.0809
37.353
37.6081
37.8452
38.0638
38.263
38.4425
38.602
38.7412
38.8601
38.9591
39.0383
39.0982
39.1396
39.1633
39.1703
39.1615
39.1384
39.1022
39.0544
38.9966
38.9303
38.8572
38.779
38.6976
38.6146
38.5318
38.4509
38.3737
38.3018
38.2368
38.1803
38.1336
38.0982
38.0754
38.0664
38.0722
38.0938
38.1323
38.1885
38.2632
38.3573
38.4715
38.6065
38.7634
38.9427
39.1457
39.3731
39.6261
39.906
40.2139
40.5514
40.9198
41.3207
41.7557
42.2265
42.7345
43.2813
43.8683
44.4966
45.1671
45.8803
46.6362
47.4343
48.2736
49.1522
50.0677
51.0168
51.9953
52.9987
54.0212
55.0566
56.1037
57.0971
58.5618
24.9424
25.2612
25.5831
25.9075
26.2343
26.5628
26.8929
27.224
27.5558
27.8879
28.22
28.5517
28.8825
29.2121
29.54
29.8657
30.1885
30.5079
30.8232
31.1335
31.4381
31.7362
32.0268
32.3092
32.5824
32.8456
33.0979
33.3387
33.5672
33.7827
33.9848
34.1729
34.3468
34.5061
34.6509
34.7811
34.8968
34.9984
35.0861
35.1607
35.2226
35.2728
35.312
35.3413
35.3617
35.3744
35.3806
35.3817
35.3789
35.3737
35.3674
35.3613
35.3568
35.3554
35.3582
35.3665
35.3815
35.4043
35.4361
35.4776
35.5299
35.5938
35.6699
35.7591
35.8618
35.9787
36.1104
36.2573
36.4202
36.5994
36.7957
37.0098
37.2424
37.4944
37.7667
38.0604
38.3765
38.7165
39.0815
39.4731
39.8926
40.3417
40.8217
41.3342
41.8805
42.4618
43.079
43.7329
44.4236
45.151
45.9145
46.7128
47.544
48.4055
49.2942
50.2059
51.1359
52.0841
52.99
54.3431
22.9262
23.1809
23.4389
23.6999
23.9636
24.2298
24.4981
24.7682
25.0399
25.3128
25.5867
25.8612
26.1362
26.4111
26.6858
26.9598
27.2326
27.5039
27.773
28.0395
28.3028
28.5623
28.8174
29.0673
29.3116
29.5494
29.7803
30.0037
30.2189
30.4255
30.6231
30.8112
30.9896
31.1581
31.3164
31.4645
31.6026
31.7307
31.849
31.958
32.0581
32.1498
32.2337
32.3106
32.3812
32.4465
32.5073
32.5647
32.6196
32.6732
32.7264
32.7804
32.8361
32.8947
32.9571
33.0242
33.097
33.1763
33.2629
33.3574
33.4607
33.5731
33.6952
33.8275
33.9703
34.1241
34.2892
34.466
34.6547
34.8558
35.0696
35.2967
35.5376
35.7929
36.0633
36.3497
36.6529
36.9739
37.3139
37.6741
38.0557
38.4601
38.8886
39.3427
39.8237
40.3329
40.8714
41.4402
42.0402
42.6716
43.3347
44.029
44.7536
45.5072
46.2878
47.0927
47.9184
48.7661
49.5803
50.8107
21.4202
21.6228
21.8289
22.0382
22.2506
22.4657
22.6835
22.9036
23.1258
23.3499
23.5757
23.8029
24.0313
24.2608
24.4909
24.7214
24.9521
25.1826
25.4124
25.6413
25.8688
26.0945
26.3179
26.5386
26.7561
26.97
27.1797
27.3849
27.5852
27.7801
27.9694
28.1527
28.3298
28.5005
28.6647
28.8223
28.9733
29.1178
29.2559
29.388
29.5143
29.6352
29.7511
29.8627
29.9704
30.075
30.1771
30.2775
30.3769
30.4762
30.5762
30.6777
30.7814
30.8882
30.9987
31.1138
31.234
31.36
31.4922
31.6313
31.7776
31.9315
32.0933
32.2632
32.4415
32.6283
32.8239
33.0283
33.2418
33.4645
33.6966
33.9385
34.1904
34.4529
34.7263
35.0113
35.3086
35.6189
35.9431
36.2822
36.6373
37.0095
37.3999
37.81
38.2408
38.6937
39.1698
39.6703
40.1961
40.7481
41.3266
41.9321
42.5642
43.2225
43.9059
44.6129
45.3411
46.0925
46.8172
47.9234
20.2966
20.4568
20.6205
20.7876
20.9578
21.1311
21.3072
21.4861
21.6675
21.8512
22.0372
22.2251
22.415
22.6064
22.7994
22.9936
23.1888
23.3849
23.5814
23.7783
23.9751
24.1717
24.3675
24.5625
24.7561
24.9481
25.1382
25.3261
25.5114
25.6939
25.8733
26.0495
26.2222
26.3914
26.5569
26.7186
26.8766
27.031
27.1819
27.3294
27.4738
27.6153
27.7544
27.8914
28.0268
28.1611
28.2947
28.4284
28.5626
28.698
28.8352
28.9747
29.1173
29.2634
29.4135
29.5683
29.7281
29.8933
30.0644
30.2416
30.4251
30.6151
30.8118
31.0152
31.2255
31.4426
31.6664
31.8971
32.1346
32.379
32.6303
32.8885
33.154
33.4268
33.7074
33.996
34.2933
34.5997
34.9159
35.2426
35.5808
35.9314
36.2953
36.6736
37.0675
37.4781
37.9065
38.3539
38.8211
39.3093
39.8191
40.3512
40.9058
41.483
42.0824
42.7033
43.3442
44.0077
44.6493
45.637
19.4642
19.5898
19.7189
19.8514
19.9872
20.1262
20.2682
20.4132
20.561
20.7115
20.8646
21.0201
21.1779
21.338
21.5
21.664
21.8297
21.997
22.1658
22.3357
22.5066
22.6784
22.8508
23.0236
23.1965
23.3694
23.542
23.7141
23.8856
24.0562
24.2258
24.3943
24.5614
24.7272
24.8917
25.0547
25.2163
25.3766
25.5356
25.6937
25.8508
26.0073
26.1635
26.3197
26.4762
26.6334
26.7917
26.9517
27.1136
27.2781
27.4455
27.6162
27.7908
27.9696
28.1531
28.3414
28.535
28.734
28.9387
29.1491
29.3655
29.5877
29.8159
30.0498
30.2895
30.5348
30.7856
31.0417
31.3029
31.5692
31.8405
32.1166
32.3977
32.6838
32.975
33.2716
33.5737
33.8819
34.1966
34.5183
34.8477
35.1855
35.5326
35.8899
36.2582
36.6386
37.032
37.4396
37.8624
38.3011
38.7569
39.2303
39.7221
40.2325
40.7617
41.3096
41.8753
42.4619
43.0296
43.9096
18.8562
18.954
19.0552
19.1598
19.2677
19.3789
19.4933
19.6107
19.7312
19.8546
19.9809
20.11
20.2417
20.376
20.5128
20.652
20.7936
20.9373
21.0831
21.2308
21.3804
21.5317
21.6845
21.8388
21.9944
22.1511
22.3089
22.4676
22.627
22.7872
22.9479
23.1091
23.2708
23.4329
23.5955
23.7585
23.9221
24.0862
24.251
24.4167
24.5834
24.7514
24.9209
25.0921
25.2654
25.441
25.6194
25.8008
25.9857
26.1743
26.3669
26.5641
26.7659
26.9728
27.1848
27.4024
27.6255
27.8544
28.089
28.3294
28.5755
28.8272
29.0844
29.3468
29.6143
29.8866
30.1634
30.4444
30.7295
31.0183
31.3105
31.6061
31.9049
32.2067
32.5117
32.8197
33.1311
33.4459
33.7646
34.0874
34.4148
34.7475
35.086
35.4311
35.7834
36.144
36.5136
36.8931
37.2835
37.6857
38.1006
38.5289
38.9715
39.4289
39.9016
40.3897
40.893
41.4146
41.9191
42.7053
18.4233
18.4993
18.5786
18.6613
18.7472
18.8365
18.929
19.0246
19.1235
19.2254
19.3304
19.4385
19.5495
19.6633
19.7801
19.8996
20.0219
20.1468
20.2744
20.4045
20.5371
20.672
20.8093
20.9489
21.0906
21.2344
21.3803
21.5282
21.678
21.8297
21.9832
22.1386
22.2959
22.4551
22.6162
22.7792
22.9444
23.1117
23.2813
23.4534
23.6281
23.8057
23.9863
24.1703
24.3578
24.5492
24.7447
24.9446
25.1492
25.3588
25.5737
25.7939
26.0199
26.2517
26.4894
26.7333
26.9833
27.2394
27.5015
27.7696
28.0435
28.323
28.6078
28.8975
29.192
29.4907
29.7934
30.0995
30.4089
30.721
31.0355
31.3521
31.6705
31.9906
32.3122
32.6352
32.9595
33.2853
33.6127
33.942
34.2733
34.6073
34.9442
35.2847
35.6294
35.9789
36.3341
36.6956
37.0643
37.4411
37.8268
38.2222
38.6281
39.0451
39.4739
39.915
40.3684
40.8374
41.2898
41.9978
18.1291
18.189
18.252
18.3183
18.3879
18.4607
18.5368
18.6161
18.6987
18.7845
18.8735
18.9657
19.0611
19.1596
19.2613
19.3661
19.4739
19.5848
19.6987
19.8156
19.9355
20.0583
20.1841
20.3127
20.4443
20.5787
20.7159
20.856
20.999
21.1449
21.2936
21.4453
21.6
21.7577
21.9186
22.0827
22.2502
22.4211
22.5957
22.7742
22.9566
23.1433
23.3344
23.5302
23.7309
23.9368
24.1481
24.3651
24.5879
24.8168
25.0521
25.2938
25.5421
25.7972
26.059
26.3276
26.603
26.885
27.1734
27.4682
27.769
28.0756
28.3875
28.7043
29.0257
29.3511
29.6801
30.0121
30.3467
30.6834
31.0218
31.3613
31.7017
32.0426
32.3836
32.7247
33.0657
33.4064
33.747
34.0874
34.4279
34.7688
35.1103
35.4529
35.797
36.1432
36.4921
36.8443
37.2007
37.5618
37.9285
38.3016
38.6819
39.07
39.4667
39.8726
40.288
40.7164
41.1276
41.7736
17.9486
17.9976
18.0498
18.1051
18.1637
18.2255
18.2905
18.3589
18.4305
18.5054
18.5837
18.6652
18.7501
18.8383
18.9299
19.0248
19.123
19.2246
19.3295
19.4378
19.5495
19.6645
19.7829
19.9048
20.03
20.1588
20.291
20.4268
20.5662
20.7093
20.8561
21.0067
21.1613
21.3199
21.4826
21.6496
21.8211
21.9971
22.178
22.3638
22.5549
22.7513
22.9534
23.1614
23.3755
23.5959
23.8229
24.0567
24.2975
24.5454
24.8008
25.0635
25.3339
25.6118
25.8973
26.1904
26.4909
26.7986
27.1134
27.4349
27.7629
28.0968
28.4364
28.781
29.1301
29.4832
29.8398
30.1991