/*--------------------------------*- C++ -*----------------------------------*\
| =========                 |                                                 |
| \\      /  F ield         | OpenFOAM: The Open Source CFD Toolbox           |
|  \\    /   O peration     | Version:  4.1                                   |
|   \\  /    A nd           | Web:      www.OpenFOAM.org                      |
|    \\/     M anipulation  |                                                 |
\*---------------------------------------------------------------------------*/
FoamFile
{
    version     2.0;
    format      ascii;
    class       volScalarField;
    location    "1800";
    object      p;
}
// * * * * * * * * * * * * * * * * * * * * * * * * * * * * * * * * * * * * * //

dimensions      [0 2 -2 0 0 0 0];

internalField   nonuniform List<scalar> 
6820
(
6.15733
-4.54158
-8.06821
-8.81345
-9.20605
-9.5373
-9.72567
-9.819
-9.88191
-9.93459
-9.97767
-10.0127
-10.0429
-10.0701
-10.0949
-10.1179
-10.1393
-10.1595
-10.1787
-10.197
-10.2146
-10.2316
-10.2481
-10.2641
-10.2797
-10.2947
-10.3093
-10.3233
-10.3366
-10.3489
-10.3593
-10.3695
-10.3662
-15.5619
-12.0147
-11.2128
-10.4085
-10.0254
-9.94316
-9.92924
-9.92438
-9.93639
-9.96148
-9.98959
-10.0166
-10.0425
-10.0674
-10.0912
-10.1136
-10.1348
-10.1551
-10.1744
-10.1929
-10.2108
-10.228
-10.2447
-10.2609
-10.2767
-10.292
-10.3069
-10.3213
-10.3351
-10.3484
-10.3603
-10.3728
-10.3785
-13.3715
-9.86351
-9.60142
-9.59117
-9.57849
-9.66903
-9.76222
-9.82446
-9.87509
-9.92226
-9.96375
-9.9992
-10.0304
-10.0586
-10.0844
-10.1082
-10.1303
-10.1511
-10.1708
-10.1896
-10.2076
-10.2249
-10.2417
-10.258
-10.2739
-10.2893
-10.3044
-10.319
-10.3332
-10.3471
-10.3602
-10.374
-10.385
-10.9446
-9.47365
-9.62412
-9.73444
-9.71456
-9.76368
-9.8278
-9.8714
-9.90762
-9.94367
-9.97735
-10.0076
-10.0351
-10.0608
-10.0849
-10.1074
-10.1287
-10.149
-10.1683
-10.1869
-10.2047
-10.222
-10.2388
-10.2552
-10.2711
-10.2867
-10.3019
-10.3169
-10.3316
-10.3461
-10.3604
-10.3753
-10.3897
-10.4923
-9.77771
-9.81636
-9.82727
-9.77776
-9.79967
-9.84617
-9.8824
-9.91478
-9.94796
-9.97975
-10.0089
-10.0358
-10.061
-10.0846
-10.1069
-10.128
-10.148
-10.1672
-10.1856
-10.2034
-10.2206
-10.2373
-10.2537
-10.2696
-10.2853
-10.3006
-10.3158
-10.3308
-10.3459
-10.361
-10.3768
-10.3931
-10.4116
-9.93187
-9.88383
-9.85784
-9.81398
-9.82728
-9.86377
-9.89581
-9.92576
-9.95642
-9.98608
-10.0136
-10.0394
-10.0636
-10.0865
-10.1081
-10.1286
-10.1483
-10.1671
-10.1853
-10.2028
-10.2199
-10.2365
-10.2527
-10.2686
-10.2843
-10.2997
-10.3151
-10.3304
-10.3458
-10.3616
-10.3781
-10.3955
-10.2886
-9.96223
-9.90794
-9.88249
-9.84927
-9.85729
-9.88514
-9.91241
-9.93917
-9.96684
-9.99401
-10.0197
-10.0441
-10.0672
-10.0891
-10.1101
-10.1301
-10.1492
-10.1677
-10.1855
-10.2028
-10.2197
-10.2361
-10.2522
-10.2681
-10.2837
-10.2993
-10.3147
-10.3302
-10.3459
-10.362
-10.3789
-10.397
-10.1797
-9.97419
-9.9295
-9.90726
-9.88137
-9.88563
-9.90657
-9.9294
-9.95303
-9.97786
-10.0027
-10.0266
-10.0495
-10.0715
-10.0926
-10.1127
-10.1321
-10.1508
-10.1688
-10.1863
-10.2033
-10.2199
-10.2362
-10.2522
-10.2679
-10.2835
-10.299
-10.3145
-10.3301
-10.346
-10.3623
-10.3793
-10.3974
-10.1087
-9.98498
-9.94745
-9.92754
-9.90769
-9.91015
-9.9263
-9.94561
-9.96656
-9.98893
-10.0116
-10.0339
-10.0554
-10.0763
-10.0964
-10.1158
-10.1346
-10.1527
-10.1703
-10.1875
-10.2042
-10.2205
-10.2366
-10.2524
-10.268
-10.2835
-10.2989
-10.3144
-10.33
-10.3459
-10.3622
-10.3792
-10.3971
-10.0643
-9.9916
-9.96044
-9.94342
-9.9289
-9.93088
-9.94389
-9.96056
-9.9793
-9.99957
-10.0204
-10.0411
-10.0614
-10.0812
-10.1005
-10.1191
-10.1373
-10.1549
-10.1721
-10.1888
-10.2052
-10.2213
-10.2371
-10.2527
-10.2681
-10.2835
-10.2988
-10.3142
-10.3297
-10.3455
-10.3617
-10.3784
-10.3959
-10.0366
-9.99495
-9.97025
-9.95639
-9.94623
-9.94832
-9.95928
-9.97398
-9.99093
-10.0095
-10.0287
-10.048
-10.0672
-10.086
-10.1044
-10.1224
-10.1399
-10.157
-10.1738
-10.1901
-10.2062
-10.222
-10.2376
-10.2529
-10.2682
-10.2834
-10.2986
-10.3138
-10.3292
-10.3448
-10.3607
-10.3771
-10.394
-10.0201
-9.99703
-9.97832
-9.96745
-9.96065
-9.96307
-9.97266
-9.98587
-10.0014
-10.0184
-10.0363
-10.0544
-10.0725
-10.0905
-10.1081
-10.1254
-10.1424
-10.159
-10.1753
-10.1913
-10.2071
-10.2226
-10.2379
-10.253
-10.2681
-10.283
-10.298
-10.3131
-10.3282
-10.3435
-10.3591
-10.3751
-10.3914
-10.0112
-9.99899
-9.98536
-9.97715
-9.97289
-9.97568
-9.98433
-9.99637
-10.0106
-10.0264
-10.0431
-10.0602
-10.0774
-10.0945
-10.1114
-10.1281
-10.1446
-10.1607
-10.1766
-10.1922
-10.2076
-10.2229
-10.2379
-10.2528
-10.2676
-10.2823
-10.2971
-10.3119
-10.3267
-10.3417
-10.3569
-10.3723
-10.388
-10.0075
-10.0013
-9.99177
-9.98586
-9.98351
-9.98665
-9.99461
-10.0057
-10.0189
-10.0336
-10.0492
-10.0653
-10.0816
-10.098
-10.1143
-10.1304
-10.1463
-10.162
-10.1775
-10.1928
-10.2079
-10.2228
-10.2375
-10.2521
-10.2667
-10.2812
-10.2956
-10.3101
-10.3247
-10.3393
-10.354
-10.3689
-10.3839
-10.0071
-10.0042
-9.99781
-9.99381
-9.99292
-9.99635
-10.0038
-10.014
-10.0262
-10.04
-10.0546
-10.0698
-10.0854
-10.101
-10.1167
-10.1322
-10.1476
-10.1629
-10.178
-10.1929
-10.2076
-10.2222
-10.2367
-10.251
-10.2653
-10.2795
-10.2936
-10.3078
-10.322
-10.3361
-10.3504
-10.3647
-10.379
-10.0088
-10.0077
-10.0036
-10.0012
-10.0014
-10.005
-10.012
-10.0215
-10.0329
-10.0457
-10.0594
-10.0738
-10.0886
-10.1036
-10.1186
-10.1336
-10.1485
-10.1633
-10.178
-10.1926
-10.207
-10.2212
-10.2354
-10.2494
-10.2634
-10.2773
-10.2911
-10.3049
-10.3186
-10.3323
-10.3461
-10.3598
-10.3735
-10.012
-10.0117
-10.0093
-10.008
-10.009
-10.0129
-10.0194
-10.0283
-10.0389
-10.0508
-10.0637
-10.0773
-10.0914
-10.1057
-10.1201
-10.1345
-10.149
-10.1634
-10.1776
-10.1918
-10.2058
-10.2198
-10.2336
-10.2473
-10.2609
-10.2745
-10.2879
-10.3013
-10.3146
-10.3279
-10.3411
-10.3542
-10.3673
-10.016
-10.0161
-10.0148
-10.0145
-10.0161
-10.02
-10.0262
-10.0344
-10.0443
-10.0555
-10.0676
-10.0804
-10.0937
-10.1074
-10.1212
-10.1351
-10.1491
-10.163
-10.1768
-10.1906
-10.2043
-10.2179
-10.2313
-10.2447
-10.258
-10.2711
-10.2842
-10.2972
-10.31
-10.3228
-10.3355
-10.3481
-10.3605
-10.0205
-10.0207
-10.0202
-10.0206
-10.0226
-10.0265
-10.0323
-10.04
-10.0492
-10.0596
-10.071
-10.0831
-10.0957
-10.1087
-10.122
-10.1353
-10.1488
-10.1622
-10.1757
-10.189
-10.2023
-10.2155
-10.2287
-10.2416
-10.2545
-10.2673
-10.28
-10.2925
-10.3049
-10.3172
-10.3293
-10.3413
-10.3531
-10.0253
-10.0255
-10.0256
-10.0264
-10.0286
-10.0324
-10.0379
-10.0451
-10.0536
-10.0633
-10.074
-10.0854
-10.0974
-10.1097
-10.1224
-10.1352
-10.1482
-10.1612
-10.1742
-10.1871
-10.2
-10.2128
-10.2256
-10.2382
-10.2507
-10.263
-10.2753
-10.2874
-10.2993
-10.3111
-10.3227
-10.3341
-10.3453
-10.0302
-10.0305
-10.0308
-10.0319
-10.0341
-10.0378
-10.0429
-10.0496
-10.0575
-10.0666
-10.0766
-10.0873
-10.0986
-10.1104
-10.1225
-10.1348
-10.1472
-10.1598
-10.1723
-10.1849
-10.1974
-10.2098
-10.2221
-10.2343
-10.2464
-10.2584
-10.2702
-10.2818
-10.2933
-10.3046
-10.3156
-10.3265
-10.3371
-10.0352
-10.0354
-10.0359
-10.0371
-10.0392
-10.0427
-10.0475
-10.0536
-10.0609
-10.0693
-10.0787
-10.0888
-10.0995
-10.1107
-10.1222
-10.134
-10.146
-10.158
-10.1702
-10.1823
-10.1944
-10.2064
-10.2183
-10.2301
-10.2418
-10.2533
-10.2647
-10.2759
-10.2869
-10.2977
-10.3082
-10.3185
-10.3286
-10.0402
-10.0404
-10.0409
-10.042
-10.044
-10.0471
-10.0514
-10.057
-10.0638
-10.0716
-10.0803
-10.0898
-10.0999
-10.1106
-10.1216
-10.1329
-10.1444
-10.156
-10.1677
-10.1794
-10.1911
-10.2027
-10.2142
-10.2256
-10.2369
-10.248
-10.2589
-10.2696
-10.2802
-10.2905
-10.3005
-10.3103
-10.3198
-10.0452
-10.0454
-10.0458
-10.0467
-10.0483
-10.0511
-10.0549
-10.06
-10.0661
-10.0733
-10.0815
-10.0904
-10.1
-10.1101
-10.1206
-10.1314
-10.1425
-10.1536
-10.1649
-10.1762
-10.1875
-10.1987
-10.2098
-10.2208
-10.2317
-10.2424
-10.2529
-10.2631
-10.2732
-10.283
-10.2926
-10.3019
-10.3109
-10.0502
-10.0504
-10.0506
-10.0511
-10.0523
-10.0545
-10.0578
-10.0623
-10.0679
-10.0745
-10.0821
-10.0904
-10.0995
-10.1091
-10.1191
-10.1295
-10.1401
-10.1509
-10.1618
-10.1727
-10.1836
-10.1944
-10.2052
-10.2158
-10.2262
-10.2365
-10.2466
-10.2564
-10.266
-10.2754
-10.2844
-10.2932
-10.3017
-10.0553
-10.0554
-10.0553
-10.0553
-10.056
-10.0576
-10.0602
-10.064
-10.069
-10.075
-10.082
-10.0899
-10.0985
-10.1076
-10.1172
-10.1272
-10.1374
-10.1478
-10.1584
-10.1689
-10.1794
-10.1899
-10.2003
-10.2105
-10.2205
-10.2304
-10.2401
-10.2495
-10.2586
-10.2675
-10.2761
-10.2845
-10.2925
-10.0606
-10.0607
-10.0601
-10.0594
-10.0593
-10.06
-10.0619
-10.0651
-10.0694
-10.0748
-10.0813
-10.0887
-10.0968
-10.1056
-10.1148
-10.1244
-10.1343
-10.1443
-10.1545
-10.1647
-10.1749
-10.185
-10.195
-10.2049
-10.2146
-10.2241
-10.2333
-10.2423
-10.2511
-10.2595
-10.2677
-10.2756
-10.2831
-10.0662
-10.0662
-10.065
-10.0633
-10.0622
-10.062
-10.063
-10.0653
-10.069
-10.0739
-10.0799
-10.0868
-10.0945
-10.1029
-10.1118
-10.1211
-10.1306
-10.1404
-10.1503
-10.1602
-10.17
-10.1798
-10.1895
-10.1991
-10.2084
-10.2175
-10.2264
-10.235
-10.2434
-10.2514
-10.2592
-10.2666
-10.2737
-10.0724
-10.0724
-10.0702
-10.0671
-10.0646
-10.0632
-10.0632
-10.0647
-10.0677
-10.072
-10.0775
-10.084
-10.0914
-10.0995
-10.1081
-10.1171
-10.1264
-10.1359
-10.1456
-10.1552
-10.1648
-10.1743
-10.1837
-10.1929
-10.2019
-10.2107
-10.2192
-10.2275
-10.2355
-10.2431
-10.2505
-10.2575
-10.2642
-10.0798
-10.0796
-10.0759
-10.0708
-10.0666
-10.0637
-10.0625
-10.063
-10.0653
-10.0691
-10.0741
-10.0803
-10.0875
-10.0953
-10.1037
-10.1125
-10.1216
-10.1309
-10.1403
-10.1497
-10.1591
-10.1683
-10.1774
-10.1864
-10.1951
-10.2036
-10.2118
-10.2197
-10.2273
-10.2346
-10.2416
-10.2483
-10.2546
-10.089
-10.0885
-10.0824
-10.0745
-10.0679
-10.0631
-10.0605
-10.06
-10.0616
-10.0648
-10.0696
-10.0755
-10.0824
-10.0901
-10.0984
-10.107
-10.116
-10.1251
-10.1344
-10.1436
-10.1528
-10.1618
-10.1707
-10.1794
-10.1879
-10.1961
-10.204
-10.2116
-10.2189
-10.2259
-10.2326
-10.2389
-10.2449
-10.1014
-10.1001
-10.09
-10.0779
-10.0682
-10.0611
-10.0569
-10.0554
-10.0562
-10.059
-10.0635
-10.0693
-10.0761
-10.0837
-10.0919
-10.1005
-10.1094
-10.1185
-10.1276
-10.1367
-10.1457
-10.1546
-10.1633
-10.1718
-10.1801
-10.188
-10.1957
-10.2031
-10.2102
-10.2169
-10.2233
-10.2293
-10.235
-10.1197
-10.1159
-10.0987
-10.0807
-10.0671
-10.0572
-10.0511
-10.0485
-10.0488
-10.0513
-10.0556
-10.0613
-10.0681
-10.0757
-10.084
-10.0926
-10.1015
-10.1106
-10.1197
-10.1287
-10.1377
-10.1465
-10.1551
-10.1635
-10.1716
-10.1794
-10.1869
-10.1941
-10.2009
-10.2074
-10.2136
-10.2194
-10.2248
-10.15
-10.1388
-10.1082
-10.0814
-10.063
-10.0499
-10.042
-10.0385
-10.0384
-10.0407
-10.045
-10.0509
-10.0578
-10.0656
-10.074
-10.0828
-10.0918
-10.1009
-10.1101
-10.1192
-10.1282
-10.137
-10.1456
-10.1539
-10.162
-10.1697
-10.1772
-10.1842
-10.191
-10.1974
-10.2034
-10.2091
-10.2144
-10.205
-10.1766
-10.1215
-10.0807
-10.0545
-10.0368
-10.0269
-10.023
-10.0229
-10.0256
-10.0306
-10.0371
-10.0448
-10.0532
-10.0622
-10.0715
-10.0809
-10.0904
-10.0998
-10.1091
-10.1183
-10.1272
-10.1359
-10.1442
-10.1523
-10.16
-10.1673
-10.1744
-10.181
-10.1873
-10.1932
-10.1987
-10.2038
-10.288
-10.2249
-10.1403
-10.0869
-10.0481
-10.0201
-10.0049
-9.99836
-9.9966
-9.9985
-10.0034
-10.0105
-10.019
-10.0284
-10.0384
-10.0489
-10.0595
-10.0701
-10.0806
-10.0909
-10.101
-10.1108
-10.1203
-10.1294
-10.1381
-10.1464
-10.1544
-10.1619
-10.169
-10.1756
-10.1819
-10.1877
-10.193
-10.4382
-10.2047
-10.0753
-10.062
-10.0472
-10.0297
-10.0238
-10.0234
-10.0236
-10.0251
-10.0283
-10.033
-10.0386
-10.045
-10.0521
-10.0597
-10.0677
-10.0759
-10.0843
-10.0927
-10.101
-10.1092
-10.1173
-10.1252
-10.1328
-10.1401
-10.1472
-10.1539
-10.1603
-10.1664
-10.1721
-10.1775
-10.1825
-11.3945
-10.1713
-9.58097
-9.5017
-9.51484
-9.55244
-9.60794
-9.66388
-9.71454
-9.76122
-9.80421
-9.84302
-9.87775
-9.9089
-9.93694
-9.96227
-9.98519
-10.006
-10.025
-10.0424
-10.0584
-10.0731
-10.0867
-10.0992
-10.1108
-10.1216
-10.1315
-10.1407
-10.1492
-10.157
-10.1642
-10.1707
-10.1766
-15.1636
-12.9607
-11.9296
-11.2932
-10.8661
-10.6153
-10.4534
-10.3303
-10.238
-10.1737
-10.1301
-10.1006
-10.0812
-10.0694
-10.0634
-10.0616
-10.0627
-10.066
-10.0709
-10.0768
-10.0835
-10.0907
-10.0981
-10.1057
-10.1132
-10.1206
-10.1278
-10.1348
-10.1415
-10.1479
-10.154
-10.1599
-10.1654
-1.2499
-5.34256
-7.46637
-8.23889
-8.67771
-9.04142
-9.30759
-9.48383
-9.6079
-9.70379
-9.7793
-9.83827
-9.885
-9.92316
-9.95509
-9.98222
-10.0056
-10.026
-10.0442
-10.0604
-10.0751
-10.0884
-10.1006
-10.1119
-10.1222
-10.1317
-10.1406
-10.1487
-10.1562
-10.1632
-10.1695
-10.1753
-10.1806
-10.35
-10.1325
-10.421
-10.69
-10.794
-10.826
-10.8371
-10.8345
-10.8246
-10.8169
-10.818
-10.8312
-10.8576
-10.8967
-10.9468
-11.0054
-11.0694
-11.1361
-11.2026
-11.2665
-11.3257
-11.3785
-11.4235
-11.4599
-11.487
-11.5043
-11.5118
-11.5093
-11.4969
-11.4745
-11.4424
-11.4003
-11.3485
-11.2867
-11.215
-11.1331
-11.0409
-10.9383
-10.8249
-10.7007
-10.5653
-10.4185
-10.2602
-10.0902
-9.90833
-9.71455
-9.50888
-9.29142
-9.0624
-8.82212
-8.57105
-8.30976
-8.03896
-7.7595
-7.47235
-7.17863
-6.87953
-6.57637
-6.27052
-5.9634
-5.65648
-5.35123
-5.04907
-4.7514
-4.45955
-4.17474
-3.89807
-3.63053
-3.37294
-3.12599
-2.89019
-2.66594
-2.45345
-2.25284
-2.06409
-1.88707
-1.72154
-1.56717
-1.42358
-1.29029
-1.16681
-1.05261
-0.947149
-0.84987
-0.760232
-0.677708
-0.601781
-0.53197
-0.467799
-0.408859
-0.354671
-0.304996
-0.259105
-0.217405
-0.17776
-0.143561
-0.106026
-0.0824349
-0.034102
-0.0420694
-10.3962
-10.3941
-10.5878
-10.7327
-10.7644
-10.7582
-10.7502
-10.7406
-10.7317
-10.73
-10.7396
-10.7617
-10.7959
-10.8411
-10.8954
-10.9565
-11.022
-11.0891
-11.1556
-11.2192
-11.2779
-11.3303
-11.3749
-11.411
-11.4378
-11.455
-11.4624
-11.4599
-11.4475
-11.4253
-11.3932
-11.3513
-11.2996
-11.238
-11.1665
-11.0848
-10.9928
-10.8904
-10.7774
-10.6535
-10.5186
-10.3724
-10.2148
-10.0456
-9.86468
-9.67202
-9.46764
-9.25166
-9.02429
-8.78586
-8.53683
-8.27776
-8.00935
-7.73244
-7.44798
-7.15705
-6.86082
-6.56058
-6.25766
-5.95346
-5.64939
-5.3469
-5.04738
-4.75219
-4.46265
-4.17994
-3.90516
-3.63928
-3.38313
-3.13738
-2.90257
-2.67908
-2.46716
-2.26692
-2.07836
-1.90137
-1.73573
-1.58113
-1.43719
-1.30347
-1.17948
-1.06472
-0.958642
-0.86072
-0.770416
-0.687211
-0.610595
-0.540092
-0.475227
-0.415596
-0.360714
-0.310355
-0.26376
-0.2214
-0.180985
-0.14629
-0.107636
-0.0845577
-0.0330376
-0.0472275
-10.4086
-10.4226
-10.5094
-10.6105
-10.667
-10.6955
-10.7144
-10.7245
-10.7279
-10.7312
-10.7396
-10.7561
-10.7821
-10.8183
-10.8639
-10.9176
-10.9771
-11.0399
-11.1034
-11.1651
-11.2227
-11.2744
-11.3187
-11.3547
-11.3816
-11.399
-11.4066
-11.4044
-11.3923
-11.3704
-11.3387
-11.2972
-11.2458
-11.1845
-11.1133
-11.032
-10.9405
-10.8385
-10.726
-10.6027
-10.4685
-10.3231
-10.1663
-9.99813
-9.81838
-9.62704
-9.42415
-9.20985
-8.98435
-8.74797
-8.50118
-8.24452
-7.97868
-7.70449
-7.42288
-7.13489
-6.84168
-6.54449
-6.24462
-5.94343
-5.64232
-5.34267
-5.04587
-4.75325
-4.46609
-4.18555
-3.91273
-3.64858
-3.39392
-3.14944
-2.91565
-2.69297
-2.48164
-2.28179
-2.09345
-1.9165
-1.75075
-1.5959
-1.45161
-1.31743
-1.19291
-1.07755
-0.970832
-0.872228
-0.781217
-0.697288
-0.619939
-0.548697
-0.483093
-0.422726
-0.367107
-0.316019
-0.26868
-0.225614
-0.184404
-0.14915
-0.109401
-0.0866961
-0.0321913
-0.0521451
-10.4124
-10.4365
-10.5041
-10.5976
-10.6608
-10.6904
-10.7048
-10.7116
-10.7141
-10.7176
-10.7268
-10.7441
-10.7705
-10.8058
-10.8493
-10.8993
-10.9539
-11.011
-11.0684
-11.1243
-11.1766
-11.2239
-11.2649
-11.2984
-11.3236
-11.34
-11.3471
-11.3448
-11.3328
-11.3112
-11.2798
-11.2387
-11.1877
-11.1269
-11.0562
-10.9754
-10.8844
-10.7831
-10.6713
-10.5487
-10.4153
-10.2708
-10.1151
-9.94809
-9.76966
-9.57982
-9.3786
-9.16613
-8.94266
-8.70849
-8.46408
-8.20998
-7.94686
-7.67552
-7.39687
-7.11194
-6.82185
-6.52781
-6.23108
-5.93301
-5.63494
-5.33824
-5.04425
-4.75429
-4.46959
-4.19132
-3.92055
-3.65821
-3.40513
-3.16197
-2.92929
-2.70747
-2.49679
-2.29738
-2.10928
-1.9324
-1.76655
-1.61147
-1.46681
-1.33217
-1.20711
-1.09112
-0.983729
-0.88441
-0.792654
-0.70796
-0.629835
-0.557812
-0.491424
-0.430275
-0.373874
-0.322011
-0.273886
-0.230069
-0.188032
-0.152168
-0.111323
-0.0888892
-0.031528
-0.0568691
-10.4164
-10.4472
-10.5032
-10.5754
-10.6281
-10.6562
-10.6732
-10.6854
-10.6945
-10.7037
-10.7167
-10.7357
-10.7616
-10.7948
-10.8347
-10.8804
-10.9303
-10.9827
-11.0355
-11.087
-11.1353
-11.179
-11.2166
-11.2472
-11.2699
-11.2843
-11.2898
-11.2862
-11.2734
-11.2512
-11.2196
-11.1784
-11.1275
-11.067
-10.9966
-10.9162
-10.8257
-10.725
-10.6138
-10.4921
-10.3595
-10.216
-10.0615
-9.89573
-9.71873
-9.53047
-9.33102
-9.1205
-8.89914
-8.66728
-8.42535
-8.1739
-7.91358
-7.64518
-7.3696
-7.08781
-6.80093
-6.51013
-6.21666
-5.92179
-5.62687
-5.33322
-5.04215
-4.75495
-4.47283
-4.19694
-3.92833
-3.66791
-3.4165
-3.17478
-2.94329
-2.72242
-2.51246
-2.31355
-2.12575
-1.94897
-1.78306
-1.62777
-1.48276
-1.34766
-1.22203
-1.10542
-0.997325
-0.897263
-0.80473
-0.719236
-0.640296
-0.567449
-0.500235
-0.438259
-0.381032
-0.328349
-0.279397
-0.234783
-0.191885
-0.155356
-0.113417
-0.0911395
-0.031072
-0.0613502
-10.4193
-10.4514
-10.4983
-10.5555
-10.6027
-10.6332
-10.6539
-10.6695
-10.6818
-10.6934
-10.7076
-10.7266
-10.7515
-10.7826
-10.8195
-10.8616
-10.9073
-10.9551
-11.0034
-11.0504
-11.0946
-11.1344
-11.1687
-11.1964
-11.2168
-11.2291
-11.2331
-11.2282
-11.2144
-11.1915
-11.1592
-11.1177
-11.0666
-11.006
-10.9356
-10.8555
-10.7653
-10.665
-10.5544
-10.4333
-10.3016
-10.1591
-10.0056
-9.84116
-9.6656
-9.47895
-9.28128
-9.07274
-8.85356
-8.62406
-8.38466
-8.13592
-7.87848
-7.61309
-7.34064
-7.06209
-6.77852
-6.49106
-6.20093
-5.90939
-5.61773
-5.32725
-5.03923
-4.75493
-4.47552
-4.20214
-3.93581
-3.67744
-3.42784
-3.18767
-2.95747
-2.73765
-2.52849
-2.33017
-2.14273
-1.96611
-1.80019
-1.64471
-1.49938
-1.36383
-1.23765
-1.12039
-1.01159
-0.91077
-0.817436
-0.731111
-0.651321
-0.577614
-0.509533
-0.446689
-0.388594
-0.335047
-0.285226
-0.239768
-0.195978
-0.158726
-0.115699
-0.0934439
-0.030855
-0.0655263
-10.4205
-10.452
-10.4927
-10.5403
-10.5824
-10.6129
-10.6349
-10.6523
-10.6668
-10.6807
-10.6964
-10.716
-10.7404
-10.7699
-10.8043
-10.8429
-10.8847
-10.9283
-10.9721
-11.0148
-11.0548
-11.0907
-11.1215
-11.1462
-11.1639
-11.174
-11.1761
-11.1698
-11.1548
-11.1309
-11.098
-11.0559
-11.0044
-10.9436
-10.8732
-10.7931
-10.7032
-10.6032
-10.4931
-10.3726
-10.2416
-10.1
-9.94759
-9.78434
-9.61018
-9.42513
-9.22926
-9.0227
-8.80571
-8.57859
-8.34178
-8.0958
-7.84128
-7.57899
-7.30975
-7.03453
-6.75435
-6.47034
-6.18368
-5.89559
-5.60732
-5.32014
-5.03531
-4.75403
-4.47748
-4.20675
-3.94284
-3.68665
-3.43897
-3.20047
-2.97168
-2.75302
-2.54477
-2.34711
-2.16011
-1.98373
-1.81784
-1.66222
-1.5166
-1.38062
-1.25391
-1.13602
-1.0265
-0.924908
-0.830754
-0.743574
-0.662906
-0.588305
-0.519321
-0.45557
-0.396567
-0.342114
-0.291384
-0.245036
-0.200323
-0.162287
-0.118184
-0.0958015
-0.0309026
-0.0693448
-10.4205
-10.4505
-10.4867
-10.5274
-10.5648
-10.5943
-10.6171
-10.6358
-10.6522
-10.6678
-10.6848
-10.7046
-10.7284
-10.7563
-10.7883
-10.8238
-10.862
-10.9016
-10.9413
-10.9798
-11.0158
-11.048
-11.0754
-11.0969
-11.1119
-11.1196
-11.1197
-11.1116
-11.0951
-11.0701
-11.0362
-10.9933
-10.9414
-10.8802
-10.8096
-10.7294
-10.6395
-10.5398
-10.43
-10.31
-10.1797
-10.0389
-9.88749
-9.72542
-9.55264
-9.36916
-9.17507
-8.9705
-8.75571
-8.531
-8.2968
-8.05363
-7.8021
-7.54296
-7.27701
-7.0052
-6.72852
-6.44806
-6.16496
-5.88043
-5.59567
-5.31192
-5.0304
-4.75228
-4.4787
-4.21074
-3.94938
-3.69549
-3.44986
-3.21314
-2.98587
-2.76846
-2.5612
-2.3643
-2.17781
-2.00173
-1.83593
-1.68023
-1.53436
-1.39799
-1.27075
-1.15224
-1.04202
-0.939643
-0.844657
-0.756607
-0.675037
-0.599515
-0.529596
-0.464904
-0.404954
-0.349556
-0.297879
-0.250597
-0.20493
-0.166047
-0.120882
-0.0982121
-0.0312346
-0.0727615
-10.4194
-10.4478
-10.4804
-10.5159
-10.5494
-10.5775
-10.6005
-10.6201
-10.6376
-10.6545
-10.6722
-10.6922
-10.7152
-10.7416
-10.7714
-10.804
-10.8388
-10.8747
-10.9105
-10.9451
-10.9773
-11.0059
-11.0298
-11.0483
-11.0605
-11.0658
-11.0637
-11.0538
-11.0358
-11.0095
-10.9745
-10.9307
-10.8781
-10.8163
-10.7453
-10.6649
-10.575
-10.4753
-10.3658
-10.2462
-10.1165
-9.97641
-9.82594
-9.665
-9.49355
-9.31161
-9.11927
-8.91668
-8.70409
-8.4818
-8.25023
-8.00989
-7.76139
-7.50544
-7.24284
-6.97449
-6.70137
-6.42453
-6.14509
-5.8642
-5.58304
-5.30281
-5.02468
-4.74982
-4.47932
-4.21423
-3.95551
-3.70403
-3.46053
-3.22569
-3.00002
-2.78395
-2.57778
-2.3817
-2.1958
-2.02007
-1.85443
-1.69869
-1.5526
-1.41586
-1.28813
-1.16901
-1.05809
-0.954942
-0.859119
-0.770184
-0.687696
-0.611229
-0.540349
-0.474684
-0.413756
-0.357374
-0.304715
-0.256456
-0.209807
-0.170015
-0.123802
-0.100676
-0.0318658
-0.0757396
-10.4174
-10.4441
-10.4738
-10.5053
-10.5355
-10.5621
-10.5849
-10.6049
-10.6231
-10.6407
-10.6589
-10.6788
-10.701
-10.726
-10.7536
-10.7835
-10.8151
-10.8475
-10.8797
-10.9105
-10.939
-10.964
-10.9847
-11.0002
-11.0096
-11.0125
-11.0082
-10.9965
-10.9768
-10.9491
-10.9129
-10.8682
-10.8148
-10.7524
-10.6809
-10.6002
-10.5101
-10.4105
-10.3011
-10.1819
-10.0526
-9.91323
-9.76364
-9.60377
-9.4336
-9.25317
-9.06256
-8.86193
-8.65151
-8.43163
-8.20269
-7.96519
-7.71972
-7.46698
-7.20775
-6.9429
-6.67338
-6.40021
-6.12446
-5.84726
-5.56976
-5.2931
-5.01844
-4.74689
-4.47954
-4.21739
-3.96139
-3.71237
-3.4711
-3.2382
-3.01421
-2.79954
-2.59451
-2.39932
-2.21406
-2.03875
-1.8733
-1.71756
-1.57129
-1.43422
-1.30602
-1.18631
-1.0747
-0.970773
-0.874111
-0.784283
-0.700862
-0.623432
-0.551568
-0.484903
-0.422966
-0.365568
-0.311893
-0.262616
-0.214958
-0.174194
-0.126949
-0.103193
-0.0328048
-0.0782513
-10.4146
-10.4397
-10.4669
-10.4952
-10.5227
-10.5478
-10.57
-10.5901
-10.6086
-10.6266
-10.6449
-10.6645
-10.6859
-10.7094
-10.735
-10.7623
-10.7909
-10.8199
-10.8486
-10.8759
-10.9008
-10.9224
-10.9399
-10.9523
-10.9591
-10.9595
-10.9531
-10.9394
-10.9181
-10.8889
-10.8516
-10.8058
-10.7515
-10.6885
-10.6165
-10.5355
-10.4452
-10.3455
-10.2362
-10.1173
-9.98849
-9.84977
-9.70103
-9.54221
-9.37331
-9.19435
-9.00545
-8.80676
-8.59851
-8.38103
-8.15471
-7.92005
-7.67762
-7.42809
-7.17223
-6.91089
-6.64497
-6.37548
-6.10345
-5.82997
-5.55614
-5.28309
-5.01193
-4.74375
-4.47958
-4.22042
-3.96718
-3.72068
-3.48167
-3.25076
-3.0285
-2.81529
-2.61145
-2.41719
-2.23262
-2.05776
-1.89254
-1.73683
-1.59042
-1.45304
-1.32438
-1.20409
-1.0918
-0.98711
-0.889606
-0.79888
-0.714514
-0.636106
-0.563237
-0.495548
-0.432576
-0.374131
-0.31941
-0.269077
-0.220384
-0.178587
-0.130328
-0.105763
-0.0340545
-0.080279
-10.411
-10.4345
-10.4596
-10.4854
-10.5107
-10.5342
-10.5557
-10.5755
-10.594
-10.6121
-10.6303
-10.6494
-10.6698
-10.6918
-10.7154
-10.7403
-10.7661
-10.792
-10.8173
-10.8411
-10.8627
-10.881
-10.8953
-10.9048
-10.9088
-10.9068
-10.8982
-10.8826
-10.8596
-10.8289
-10.7903
-10.7436
-10.6884
-10.6246
-10.5521
-10.4707
-10.3802
-10.2805
-10.1713
-10.0527
-9.92433
-9.78626
-9.63836
-9.48059
-9.31295
-9.13547
-8.94828
-8.75152
-8.54544
-8.33035
-8.10665
-7.87482
-7.63542
-7.3891
-7.13662
-6.87878
-6.61647
-6.35066
-6.08235
-5.8126
-5.54246
-5.27304
-5.00539
-4.74059
-4.47963
-4.22348
-3.97303
-3.72908
-3.49236
-3.26349
-3.04299
-2.83128
-2.62866
-2.43537
-2.25151
-2.07713
-1.91218
-1.75652
-1.60999
-1.47231
-1.34322
-1.22236
-1.10939
-1.00393
-0.905587
-0.813956
-0.728636
-0.649234
-0.575343
-0.506609
-0.442577
-0.383057
-0.327262
-0.275836
-0.226085
-0.183195
-0.133938
-0.108385
-0.0356109
-0.0818154
-10.4066
-10.4288
-10.452
-10.4757
-10.499
-10.5211
-10.5418
-10.561
-10.5793
-10.5971
-10.615
-10.6335
-10.6529
-10.6734
-10.6951
-10.7176
-10.7406
-10.7635
-10.7857
-10.8063
-10.8245
-10.8397
-10.8509
-10.8575
-10.8589
-10.8544
-10.8436
-10.8261
-10.8014
-10.7692
-10.7293
-10.6815
-10.6254
-10.5609
-10.4879
-10.4061
-10.3153
-10.2155
-10.1065
-9.98813
-9.86028
-9.72286
-9.57581
-9.4191
-9.25272
-9.07673
-8.89125
-8.69643
-8.49252
-8.27984
-8.05875
-7.82975
-7.59338
-7.35027
-7.10115
-6.84681
-6.58811
-6.32598
-6.06139
-5.79535
-5.52891
-5.26311
-4.99899
-4.73757
-4.47983
-4.22671
-3.97906
-3.73769
-3.50329
-3.27647
-3.05775
-2.84755
-2.64619
-2.45388
-2.27077
-2.09689
-1.93222
-1.77665
-1.62999
-1.49204
-1.36251
-1.2411
-1.12746
-1.02123
-0.92204
-0.829497
-0.743212
-0.662803
-0.587873
-0.518074
-0.45296
-0.392338
-0.335443
-0.282891
-0.232058
-0.188017
-0.137777
-0.11106
-0.0374641
-0.0828642
-10.4016
-10.4224
-10.444
-10.4659
-10.4875
-10.5083
-10.528
-10.5466
-10.5644
-10.5818
-10.5991
-10.6168
-10.6351
-10.6541
-10.6739
-10.6942
-10.7146
-10.7347
-10.7538
-10.7713
-10.7864
-10.7985
-10.8067
-10.8105
-10.8093
-10.8024
-10.7895
-10.77
-10.7435
-10.7099
-10.6687
-10.6197
-10.5627
-10.4975
-10.4239
-10.3417
-10.2507
-10.1509
-10.0419
-9.92385
-9.79648
-9.65972
-9.51354
-9.35789
-9.19279
-9.01831
-8.83455
-8.64168
-8.43995
-8.22967
-8.01121
-7.78503
-7.55169
-7.31178
-7.06603
-6.81518
-6.56008
-6.30161
-6.04073
-5.77841
-5.51565
-5.25347
-4.99287
-4.73483
-4.48031
-4.23022
-3.98539
-3.74659
-3.51452
-3.28977
-3.07285
-2.86419
-2.66409
-2.47279
-2.29043
-2.11708
-1.9527
-1.79721
-1.65046
-1.51223
-1.38228
-1.26031
-1.146
-1.039
-0.938957
-0.845492
-0.758231
-0.676802
-0.600816
-0.529932
-0.463715
-0.401967
-0.343947
-0.290236
-0.238299
-0.193051
-0.14184
-0.113787
-0.0395987
-0.0834394
-10.3958
-10.4154
-10.4356
-10.4559
-10.4761
-10.4956
-10.5143
-10.5321
-10.5493
-10.5661
-10.5827
-10.5995
-10.6166
-10.6341
-10.652
-10.6701
-10.688
-10.7054
-10.7217
-10.7362
-10.7483
-10.7574
-10.7628
-10.7639
-10.7601
-10.7509
-10.7357
-10.7143
-10.6861
-10.6509
-10.6084
-10.5583
-10.5004
-10.4345
-10.3603
-10.2777
-10.1865
-10.0866
-9.97777
-9.85998
-9.73309
-9.59702
-9.45171
-9.29714
-9.13334
-8.96037
-8.77835
-8.58745
-8.3879
-8.18003
-7.96419
-7.74085
-7.51052
-7.27382
-7.03141
-6.78405
-6.53253
-6.27772
-6.02053
-5.76191
-5.50282
-5.24424
-4.98715
-4.73249
-4.48118
-4.23411
-3.99209
-3.75587
-3.52613
-3.30346
-3.08835
-2.88122
-2.6824
-2.49212
-2.31053
-2.1377
-1.97362
-1.81823
-1.67138
-1.53289
-1.40252
-1.27999
-1.16501
-1.05724
-0.956329
-0.861935
-0.773686
-0.691221
-0.614163
-0.542175
-0.474833
-0.411937
-0.352768
-0.297867
-0.244805
-0.198294
-0.146122
-0.116568
-0.041994
-0.0835652
-10.3894
-10.4079
-10.4267
-10.4457
-10.4645
-10.4828
-10.5005
-10.5175
-10.5339
-10.5499
-10.5657
-10.5815
-10.5974
-10.6134
-10.6295
-10.6454
-10.661
-10.6758
-10.6893
-10.701
-10.7103
-10.7165
-10.7192
-10.7176
-10.7113
-10.6998
-10.6826
-10.6592
-10.6293
-10.5926
-10.5488
-10.4976
-10.4387
-10.372
-10.2972
-10.2142
-10.1228
-10.0229
-9.91419
-9.79671
-9.67032
-9.53494
-9.39052
-9.23705
-9.07456
-8.90312
-8.72284
-8.53391
-8.33657
-8.1311
-7.91789
-7.69737
-7.47006
-7.23655
-6.99748
-6.75358
-6.50562
-6.25445
-6.00094
-5.74599
-5.49055
-5.23556
-4.98195
-4.73064
-4.48254
-4.23848
-3.99926
-3.76561
-3.5382
-3.31759
-3.10429
-2.8987
-2.70116
-2.5119
-2.33108
-2.15878
-1.99502
-1.83972
-1.69278
-1.55402
-1.42323
-1.30014
-1.18448
-1.07593
-0.974152
-0.878816
-0.789566
-0.706052
-0.627905
-0.554795
-0.486308
-0.422239
-0.361899
-0.305778
-0.251568
-0.203743
-0.150615
-0.119403
-0.0446251
-0.0832742
-10.3823
-10.3998
-10.4175
-10.4352
-10.4528
-10.47
-10.4866
-10.5027
-10.5183
-10.5335
-10.5483
-10.563
-10.5776
-10.592
-10.6063
-10.6203
-10.6336
-10.646
-10.6569
-10.6659
-10.6724
-10.676
-10.676
-10.6719
-10.6632
-10.6494
-10.6301
-10.6048
-10.5733
-10.5351
-10.4899
-10.4376
-10.3778
-10.3103
-10.235
-10.1516
-10.06
-9.95995
-9.85142
-9.73426
-9.60838
-9.4737
-9.33018
-9.17783
-9.01666
-8.84676
-8.66824
-8.48129
-8.28614
-8.08309
-7.8725
-7.6548
-7.43049
-7.20015
-6.9644
-6.72394
-6.47953
-6.23196
-5.98209
-5.7308
-5.47898
-5.22754
-4.97739
-4.72941
-4.48448
-4.24341
-4.00697
-3.77588
-3.55078
-3.33223
-3.12073
-2.91668
-2.72041
-2.53216
-2.35211
-2.18034
-2.01688
-1.86169
-1.71466
-1.57563
-1.44441
-1.32076
-1.20441
-1.09507
-0.992415
-0.896127
-0.805864
-0.721284
-0.642032
-0.567781
-0.49813
-0.432866
-0.371332
-0.313963
-0.258584
-0.209394
-0.15531
-0.122295
-0.0474639
-0.0826062
-10.3748
-10.3912
-10.4078
-10.4244
-10.4408
-10.4569
-10.4726
-10.4877
-10.5024
-10.5166
-10.5305
-10.544
-10.5573
-10.5702
-10.5828
-10.5948
-10.6059
-10.6159
-10.6244
-10.6308
-10.6348
-10.6357
-10.6332
-10.6267
-10.6157
-10.5997
-10.5784
-10.5513
-10.5181
-10.4784
-10.432
-10.3786
-10.3178
-10.2496
-10.1737
-10.0899
-9.99809
-9.89805
-9.78967
-9.67284
-9.54748
-9.41353
-9.27093
-9.1197
-8.95987
-8.79151
-8.61476
-8.4298
-8.23684
-8.0362
-7.82822
-7.61333
-7.39201
-7.16482
-6.93236
-6.69532
-6.45441
-6.21042
-5.96416
-5.71648
-5.46824
-5.22032
-4.97359
-4.72891
-4.48712
-4.249
-4.01532
-3.78676
-3.56394
-3.34743
-3.13771
-2.93518
-2.74017
-2.55294
-2.37365
-2.2024
-2.03925
-1.88414
-1.73701
-1.59771
-1.46605
-1.34183
-1.22479
-1.11465
-1.01111
-0.913857
-0.822566
-0.736906
-0.656532
-0.581122
-0.510288
-0.443809
-0.381058
-0.322414
-0.265842
-0.215243
-0.160195
-0.125245
-0.0504791
-0.0816064
-10.3667
-10.3822
-10.3977
-10.4133
-10.4287
-10.4437
-10.4584
-10.4726
-10.4863
-10.4995
-10.5123
-10.5246
-10.5366
-10.548
-10.5589
-10.569
-10.578
-10.5858
-10.5919
-10.596
-10.5975
-10.596
-10.5911
-10.5822
-10.569
-10.5509
-10.5277
-10.4988
-10.464
-10.4229
-10.3752
-10.3207
-10.259
-10.1901
-10.1136
-10.0295
-9.93744
-9.83738
-9.72917
-9.6127
-9.48788
-9.35466
-9.213
-9.0629
-8.90442
-8.73762
-8.56264
-8.37966
-8.1889
-7.99066
-7.78528
-7.57318
-7.35483
-7.13076
-6.90157
-6.6679
-6.43047
-6.19001
-5.94731
-5.70319
-5.45848
-5.21403
-4.97068
-4.72925
-4.49055
-4.25536
-4.02439
-3.79832
-3.57776
-3.36326
-3.1553
-2.95427
-2.7605
-2.57425
-2.39571
-2.22498
-2.06211
-1.90708
-1.75984
-1.62025
-1.48816
-1.36336
-1.24561
-1.13466
-1.03022
-0.931989
-0.839657
-0.752902
-0.67139
-0.594805
-0.522768
-0.455053
-0.391065
-0.331121
-0.273333
-0.221281
-0.165256
-0.128256
-0.0536375
-0.0803225
-10.3581
-10.3727
-10.3874
-10.4019
-10.4163
-10.4303
-10.444
-10.4572
-10.4699
-10.4821
-10.4938
-10.505
-10.5156
-10.5255
-10.5347
-10.543
-10.5501
-10.5558