/*--------------------------------*- C++ -*----------------------------------*\
| =========                 |                                                 |
| \\      /  F ield         | OpenFOAM: The Open Source CFD Toolbox           |
|  \\    /   O peration     | Version:  4.1                                   |
|   \\  /    A nd           | Web:      www.OpenFOAM.org                      |
|    \\/     M anipulation  |                                                 |
\*---------------------------------------------------------------------------*/
FoamFile
{
    version     2.0;
    format      ascii;
    class       surfaceScalarField;
    location    "1800";
    object      phi;
}
// * * * * * * * * * * * * * * * * * * * * * * * * * * * * * * * * * * * * * //

dimensions      [0 3 -1 0 0 0 0];

internalField   nonuniform List<scalar> 
13452
(
6.28704e-05
-2.60189e-06
6.37403e-05
-8.69978e-07
6.46286e-05
-8.88284e-07
6.41051e-05
5.23566e-07
6.28898e-05
1.21528e-06
6.15446e-05
1.34522e-06
6.02726e-05
1.27201e-06
5.9114e-05
1.15859e-06
5.80687e-05
1.04526e-06
5.71284e-05
9.40317e-07
5.62816e-05
8.46808e-07
5.55162e-05
7.65367e-07
5.48214e-05
6.94769e-07
5.41882e-05
6.33223e-07
5.3609e-05
5.79183e-07
5.30776e-05
5.31451e-07
5.25885e-05
4.89065e-07
5.21373e-05
4.51235e-07
5.172e-05
4.17315e-07
5.13332e-05
3.86783e-07
5.0974e-05
3.59212e-07
5.06397e-05
3.34253e-07
5.03281e-05
3.11617e-07
5.0037e-05
2.91075e-07
4.97646e-05
2.72449e-07
4.9509e-05
2.5562e-07
4.92684e-05
2.40538e-07
4.90412e-05
2.2722e-07
4.88253e-05
2.15937e-07
4.86187e-05
2.06601e-07
4.84179e-05
2.00727e-07
4.82273e-05
1.90644e-07
1.79079e-07
4.80482e-05
6.30682e-05
-3.67972e-06
6.27994e-05
-6.01196e-07
6.21233e-05
-2.12207e-07
6.23359e-05
3.10953e-07
6.27935e-05
7.57651e-07
6.31929e-05
9.45844e-07
6.34611e-05
1.00379e-06
6.36058e-05
1.01392e-06
6.36526e-05
9.98453e-07
6.36274e-05
9.65568e-07
6.35508e-05
9.2334e-07
6.34383e-05
8.77862e-07
6.33009e-05
8.32204e-07
6.31465e-05
7.87658e-07
6.29808e-05
7.44874e-07
6.2808e-05
7.04221e-07
6.26312e-05
6.65854e-07
6.24527e-05
6.2978e-07
6.22741e-05
5.95934e-07
6.20966e-05
5.64223e-07
6.19213e-05
5.34541e-07
6.17488e-05
5.06777e-07
6.15795e-05
4.80832e-07
6.1414e-05
4.56616e-07
6.12524e-05
4.34065e-07
6.10949e-05
4.13141e-07
6.09415e-05
3.93863e-07
6.07925e-05
3.76248e-07
6.06479e-05
3.60584e-07
6.0508e-05
3.46447e-07
6.03731e-05
3.35619e-07
6.02416e-05
3.22185e-07
3.32505e-07
6.00882e-05
6.23306e-05
-2.24888e-06
6.26619e-05
-9.32553e-07
6.281e-05
-3.60291e-07
6.30954e-05
2.55454e-08
6.34246e-05
4.28504e-07
6.37126e-05
6.57833e-07
6.39516e-05
7.64731e-07
6.41451e-05
8.20432e-07
6.42964e-05
8.47197e-07
6.44106e-05
8.51309e-07
6.4494e-05
8.39988e-07
6.4552e-05
8.19843e-07
6.45894e-05
7.94831e-07
6.461e-05
7.67071e-07
6.46169e-05
7.37922e-07
6.46128e-05
7.08349e-07
6.45997e-05
6.78991e-07
6.45792e-05
6.50238e-07
6.45528e-05
6.22332e-07
6.45216e-05
5.95425e-07
6.44865e-05
5.6961e-07
6.44484e-05
5.44941e-07
6.44078e-05
5.21448e-07
6.43652e-05
4.99154e-07
6.43212e-05
4.78088e-07
6.4276e-05
4.5829e-07
6.42301e-05
4.39844e-07
6.41835e-05
4.2283e-07
6.41365e-05
4.07525e-07
6.40892e-05
3.93815e-07
6.40418e-05
3.83042e-07
6.39905e-05
3.73446e-07
3.77789e-07
6.39452e-05
6.47767e-05
-1.44247e-06
6.47349e-05
-8.90755e-07
6.47849e-05
-4.10338e-07
6.48931e-05
-8.26495e-08
6.5057e-05
2.64654e-07
6.52215e-05
4.93343e-07
6.53726e-05
6.1354e-07
6.55095e-05
6.83607e-07
6.56307e-05
7.25999e-07
6.57358e-05
7.46182e-07
6.58257e-05
7.50089e-07
6.59018e-05
7.437e-07
6.59658e-05
7.30839e-07
6.60192e-05
7.13691e-07
6.60634e-05
6.93747e-07
6.60996e-05
6.72123e-07
6.6129e-05
6.4961e-07
6.61525e-05
6.26746e-07
6.61709e-05
6.03904e-07
6.6185e-05
5.8135e-07
6.61953e-05
5.59276e-07
6.62024e-05
5.37821e-07
6.62068e-05
5.1709e-07
6.62088e-05
4.97172e-07
6.62087e-05
4.78147e-07
6.62069e-05
4.60105e-07
6.62036e-05
4.43161e-07
6.6199e-05
4.27438e-07
6.61933e-05
4.13184e-07
6.61866e-05
4.00497e-07
6.61794e-05
3.90305e-07
6.61704e-05
3.82389e-07
3.82265e-07
6.6166e-05
6.70079e-05
-9.93575e-07
6.68589e-05
-7.41787e-07
6.68315e-05
-3.82873e-07
6.68578e-05
-1.09016e-07
6.69422e-05
1.80283e-07
6.70457e-05
3.89796e-07
6.7148e-05
5.11313e-07
6.72451e-05
5.86512e-07
6.73358e-05
6.35295e-07
6.74189e-05
6.63049e-07
6.74941e-05
6.74934e-07
6.75615e-05
6.76231e-07
6.76219e-05
6.70477e-07
6.76758e-05
6.59802e-07
6.77238e-05
6.45697e-07
6.77666e-05
6.29298e-07
6.78048e-05
6.11435e-07
6.78389e-05
5.92696e-07
6.78693e-05
5.73507e-07
6.78964e-05
5.54185e-07
6.79207e-05
5.34967e-07
6.79425e-05
5.16037e-07
6.79621e-05
4.97535e-07
6.79797e-05
4.79583e-07
6.79955e-05
4.62291e-07
6.80099e-05
4.45767e-07
6.80229e-05
4.30137e-07
6.80348e-05
4.15536e-07
6.80458e-05
4.02172e-07
6.80561e-05
3.90209e-07
6.80662e-05
3.80226e-07
6.80762e-05
3.72322e-07
3.68501e-07
6.809e-05
6.90833e-05
-6.92872e-07
6.89333e-05
-5.91808e-07
6.88863e-05
-3.35816e-07
6.88865e-05
-1.09245e-07
6.8934e-05
1.32773e-07
6.90039e-05
3.19949e-07
6.90771e-05
4.38067e-07
6.91489e-05
5.14751e-07
6.9218e-05
5.66159e-07
6.92834e-05
5.97692e-07
6.93443e-05
6.1405e-07
6.94006e-05
6.19891e-07
6.94526e-05
6.18469e-07
6.95006e-05
6.11847e-07
6.95448e-05
6.01495e-07
6.95855e-05
5.88533e-07
6.96232e-05
5.73792e-07
6.9658e-05
5.57878e-07
6.96903e-05
5.41238e-07
6.97202e-05
5.2421e-07
6.97481e-05
5.07054e-07
6.97742e-05
4.89971e-07
6.97986e-05
4.73123e-07
6.98216e-05
4.56644e-07
6.98432e-05
4.40654e-07
6.98637e-05
4.25267e-07
6.98832e-05
4.10603e-07
6.9902e-05
3.96784e-07
6.99202e-05
3.83968e-07
6.99381e-05
3.72293e-07
6.99563e-05
3.62057e-07
6.99753e-05
3.53271e-07
3.46384e-07
6.99975e-05
7.11508e-05
-4.77352e-07
7.10202e-05
-4.61202e-07
7.09675e-05
-2.83118e-07
7.09558e-05
-9.75547e-08
7.09831e-05
1.0551e-07
7.10322e-05
2.70814e-07
7.10875e-05
3.828e-07
7.11435e-05
4.58716e-07
7.11988e-05
5.1084e-07
7.12523e-05
5.44275e-07
7.1303e-05
5.63324e-07
7.13508e-05
5.72082e-07
7.13957e-05
5.73523e-07
7.1438e-05
5.69633e-07
7.14776e-05
5.61852e-07
7.15149e-05
5.51276e-07
7.15499e-05
5.38727e-07
7.1583e-05
5.24815e-07
7.16142e-05
5.09998e-07
7.16438e-05
4.94624e-07
7.16719e-05
4.78964e-07
7.16986e-05
4.63229e-07
7.17242e-05
4.47587e-07
7.17486e-05
4.32179e-07
7.17722e-05
4.17127e-07
7.17949e-05
4.02538e-07
7.1817e-05
3.88518e-07
7.18386e-05
3.75163e-07
7.186e-05
3.62577e-07
7.18815e-05
3.50835e-07
7.19035e-05
3.40032e-07
7.19267e-05
3.30048e-07
3.2072e-07
7.19524e-05
7.32508e-05
-3.22852e-07
7.31391e-05
-3.49567e-07
7.30844e-05
-2.28397e-07
7.30656e-05
-7.87431e-08
7.30803e-05
9.08455e-08
7.31157e-05
2.35436e-07
7.31589e-05
3.3955e-07
7.32046e-05
4.13019e-07
7.32508e-05
4.64619e-07
7.32963e-05
4.9884e-07
7.334e-05
5.19528e-07
7.33819e-05
5.30256e-07
7.34217e-05
5.33717e-07
7.34595e-05
5.318e-07
7.34955e-05
5.25902e-07
7.35296e-05
5.17091e-07
7.35622e-05
5.06175e-07
7.35933e-05
4.93761e-07
7.36229e-05
4.8031e-07
7.36514e-05
4.66179e-07
7.36787e-05
4.51641e-07
7.3705e-05
4.36912e-07
7.37305e-05
4.22167e-07
7.37551e-05
4.07543e-07
7.37791e-05
3.93158e-07
7.38025e-05
3.79112e-07
7.38255e-05
3.65488e-07
7.38483e-05
3.52357e-07
7.38711e-05
3.39771e-07
7.38942e-05
3.27741e-07
7.3918e-05
3.16235e-07
7.3943e-05
3.05053e-07
2.93834e-07
7.39699e-05
7.5393e-05
-2.13415e-07
7.5299e-05
-2.55574e-07
7.5245e-05
-1.74408e-07
7.52219e-05
-5.56036e-08
7.5228e-05
8.47864e-08
7.52534e-05
2.09982e-07
7.52878e-05
3.05126e-07
7.5326e-05
3.74831e-07
7.53657e-05
4.24934e-07
7.54055e-05
4.59109e-07
7.54443e-05
4.80675e-07
7.54819e-05
4.9271e-07
7.55179e-05
4.97623e-07
7.55526e-05
4.97182e-07
7.55857e-05
4.92725e-07
7.56176e-05
4.8528e-07
7.56481e-05
4.75637e-07
7.56775e-05
4.64396e-07
7.57057e-05
4.52018e-07
7.57331e-05
4.38858e-07
7.57595e-05
4.25195e-07
7.57852e-05
4.11247e-07
7.58102e-05
3.97184e-07
7.58346e-05
3.83145e-07
7.58585e-05
3.6924e-07
7.5882e-05
3.55556e-07
7.59054e-05
3.42159e-07
7.59286e-05
3.29092e-07
7.5952e-05
3.16367e-07
7.59758e-05
3.03949e-07
7.60003e-05
2.91737e-07
7.60259e-05
2.79504e-07
2.66864e-07
7.60528e-05
7.75831e-05
-1.36896e-07
7.75059e-05
-1.78416e-07
7.74552e-05
-1.237e-07
7.74299e-05
-3.02923e-08
7.74298e-05
8.48523e-08
7.74477e-05
1.92101e-07
7.74752e-05
2.77656e-07
7.75074e-05
3.42584e-07
7.7542e-05
3.90367e-07
7.75773e-05
4.23793e-07
7.76124e-05
4.45607e-07
7.76467e-05
4.58413e-07
7.768e-05
4.64331e-07
7.77121e-05
4.64988e-07
7.77432e-05
4.61642e-07
7.77732e-05
4.55276e-07
7.78022e-05
4.46651e-07
7.78303e-05
4.36355e-07
7.78574e-05
4.24844e-07
7.78838e-05
4.12471e-07
7.79095e-05
3.99512e-07
7.79346e-05
3.86185e-07
7.79591e-05
3.72659e-07
7.79832e-05
3.59067e-07
7.80069e-05
3.45512e-07
7.80304e-05
3.3207e-07
7.80538e-05
3.18791e-07
7.80772e-05
3.05695e-07
7.81008e-05
2.92769e-07
7.81248e-05
2.79949e-07
7.81494e-05
2.67108e-07
7.81749e-05
2.54026e-07
2.40363e-07
7.82014e-05
7.98256e-05
-8.41793e-08
7.97641e-05
-1.16868e-07
7.97186e-05
-7.82554e-08
7.9693e-05
-4.72424e-09
7.96888e-05
8.90998e-08
7.97008e-05
1.80055e-07
7.97227e-05
2.5584e-07
7.975e-05
3.15279e-07
7.97803e-05
3.60064e-07
7.98119e-05
3.92128e-07
7.98439e-05
4.13638e-07
7.98756e-05
4.26744e-07
7.99066e-05
4.3328e-07
7.99369e-05
4.34712e-07
7.99663e-05
4.32206e-07
7.99949e-05
4.26685e-07
8.00227e-05
4.18878e-07
8.00497e-05
4.09352e-07
8.0076e-05
3.98552e-07
8.01016e-05
3.86825e-07
8.01267e-05
3.74445e-07
8.01513e-05
3.61624e-07
8.01754e-05
3.4853e-07
8.01992e-05
3.35289e-07
8.02227e-05
3.21996e-07
8.0246e-05
3.08719e-07
8.02693e-05
2.95495e-07
8.02927e-05
2.82329e-07
8.03163e-05
2.69193e-07
8.03402e-05
2.56012e-07
8.03647e-05
2.42659e-07
8.03897e-05
2.28941e-07
2.14581e-07
8.04155e-05
8.21247e-05
-4.84522e-08
8.2077e-05
-6.91597e-08
8.20381e-05
-3.93145e-08
8.20139e-05
1.94301e-08
8.20072e-05
9.58035e-08
8.20149e-05
1.72355e-07
8.20322e-05
2.38603e-07
8.20553e-05
2.9215e-07
8.20819e-05
3.33422e-07
8.21104e-05
3.63606e-07
8.21398e-05
3.84328e-07
8.21692e-05
3.97316e-07
8.21983e-05
4.0412e-07
8.2227e-05
4.06037e-07
8.22551e-05
4.04128e-07
8.22825e-05
3.9925e-07
8.23093e-05
3.92088e-07
8.23355e-05
3.83183e-07
8.23611e-05
3.72966e-07
8.23861e-05
3.61775e-07
8.24107e-05
3.49874e-07
8.24348e-05
3.37473e-07
8.24586e-05
3.24732e-07
8.24822e-05
3.11773e-07
8.25055e-05
2.98686e-07
8.25287e-05
2.85528e-07
8.25518e-05
2.72329e-07
8.25751e-05
2.59087e-07
8.25985e-05
2.45768e-07
8.26222e-05
2.32298e-07
8.26463e-05
2.18564e-07
8.26708e-05
2.04408e-07
1.89617e-07
8.26958e-05
8.4484e-05
-2.46559e-08
8.4448e-05
-3.32224e-08
8.44161e-05
-7.36488e-09
8.43946e-05
4.08793e-08
8.4387e-05
1.03437e-07
8.43917e-05
1.67634e-07
8.44054e-05
2.24944e-07
8.4425e-05
2.72503e-07
8.44485e-05
3.09934e-07
8.44743e-05
3.37837e-07
8.45013e-05
3.57363e-07
8.45287e-05
3.69861e-07
8.45562e-05
3.76617e-07
8.45835e-05
3.78755e-07
8.46104e-05
3.77221e-07
8.46369e-05
3.728e-07
8.46628e-05
3.66126e-07
8.46883e-05
3.57713e-07
8.47133e-05
3.47968e-07
8.47378e-05
3.37216e-07
8.4762e-05
3.25714e-07
8.47858e-05
3.13663e-07
8.48093e-05
3.01216e-07
8.48326e-05
2.88492e-07
8.48557e-05
2.75573e-07
8.48787e-05
2.62512e-07
8.49017e-05
2.49333e-07
8.49248e-05
2.36033e-07
8.4948e-05
2.22578e-07
8.49714e-05
2.08904e-07
8.4995e-05
1.94919e-07
8.50189e-05
1.805e-07
1.6549e-07
8.50431e-05
8.69066e-05
-9.09439e-09
8.68803e-05
-6.93191e-09
8.68552e-05
1.77421e-08
8.68373e-05
5.88058e-08
8.683e-05
1.10751e-07
8.68329e-05
1.64666e-07
8.6844e-05
2.13911e-07
8.68608e-05
2.55661e-07
8.68816e-05
2.89117e-07
8.6905e-05
3.14465e-07
8.69299e-05
3.32474e-07
8.69556e-05
3.44171e-07
8.69816e-05
3.50599e-07
8.70076e-05
3.52715e-07
8.70335e-05
3.51354e-07
8.70591e-05
3.47218e-07
8.70843e-05
3.40891e-07
8.71092e-05
3.32849e-07
8.71337e-05
3.23476e-07
8.71578e-05
3.13082e-07
8.71816e-05
3.01909e-07
8.72051e-05
2.9015e-07
8.72284e-05
2.77954e-07
8.72515e-05
2.6543e-07
8.72744e-05
2.52659e-07
8.72972e-05
2.39688e-07
8.732e-05
2.26541e-07
8.73428e-05
2.13215e-07
8.73657e-05
1.99683e-07
8.73887e-05
1.85894e-07
8.74119e-05
1.71778e-07
8.74351e-05
1.57246e-07
1.42185e-07
8.74584e-05
8.93956e-05
8.71461e-10
8.93769e-05
1.17058e-08
8.93581e-05
3.66046e-08
8.9344e-05
7.28636e-08
8.93379e-05
1.16835e-07
8.93402e-05
1.62413e-07
8.93495e-05
2.04618e-07
8.93642e-05
2.40956e-07
8.93828e-05
2.70482e-07
8.94041e-05
2.93135e-07
8.94272e-05
3.09403e-07
8.94513e-05
3.20051e-07
8.9476e-05
3.25916e-07
8.95009e-05
3.278e-07
8.95259e-05
3.26426e-07
8.95507e-05
3.2242e-07
8.95752e-05
3.16308e-07
8.95996e-05
3.08529e-07
8.96236e-05
2.99439e-07
8.96474e-05
2.89327e-07
8.96708e-05
2.78424e-07
8.96941e-05
2.66911e-07
8.97171e-05
2.5493e-07
8.97399e-05
2.42585e-07
8.97627e-05
2.29952e-07
8.97853e-05
2.17077e-07
8.98078e-05
2.03984e-07
8.98304e-05
1.90674e-07
8.98529e-05
1.77128e-07
8.98755e-05
1.6331e-07
8.98981e-05
1.49171e-07
8.99207e-05
1.34651e-07
1.19672e-07
8.99432e-05
9.19536e-05
7.08815e-09
9.19409e-05
2.44462e-08
9.19274e-05
5.00765e-08
9.19172e-05
8.31035e-08
9.19129e-05
1.21143e-07
9.19152e-05
1.60082e-07
9.19235e-05
1.96303e-07
9.19367e-05
2.27761e-07
9.19537e-05
2.5355e-07
9.19733e-05
2.73491e-07
9.19948e-05
2.87889e-07
9.20176e-05
2.97311e-07
9.2041e-05
3.02425e-07
9.20649e-05
3.039e-07
9.2089e-05
3.02354e-07
9.21131e-05
2.98338e-07
9.21371e-05
2.92324e-07
9.21609e-05
2.84709e-07
9.21845e-05
2.7582e-07
9.22079e-05
2.65925e-07
9.22311e-05
2.5524e-07
9.22541e-05
2.43936e-07
9.22769e-05
2.32144e-07
9.22995e-05
2.19964e-07
9.2322e-05
2.07468e-07
9.23444e-05
1.94703e-07
9.23666e-05
1.81692e-07
9.23889e-05
1.68444e-07
9.24111e-05
1.54948e-07
9.24332e-05
1.41181e-07
9.24552e-05
1.27114e-07
9.24772e-05
1.12709e-07
9.79181e-08
9.24989e-05
9.45834e-05
1.08235e-08
9.45751e-05
3.27592e-08
9.45661e-05
5.91062e-08
9.45593e-05
8.98596e-08
9.4557e-05
1.23456e-07
9.45599e-05
1.57149e-07
9.45679e-05
1.8837e-07
9.45801e-05
2.15534e-07
9.45958e-05
2.37872e-07
9.46141e-05
2.55184e-07
9.46343e-05
2.67668e-07
9.46559e-05
2.75756e-07
9.46783e-05
2.79984e-07
9.47013e-05
2.80907e-07
9.47246e-05
2.79057e-07
9.4748e-05
2.74913e-07
9.47715e-05
2.68893e-07
9.47948e-05
2.61354e-07
9.4818e-05
2.52595e-07
9.48411e-05
2.42861e-07
9.4864e-05
2.32351e-07
9.48867e-05
2.21223e-07
9.49092e-05
2.09602e-07
9.49316e-05
1.97581e-07
9.49539e-05
1.85229e-07
9.4976e-05
1.72592e-07
9.4998e-05
1.59698e-07
9.50199e-05
1.46557e-07
9.50416e-05
1.33171e-07
9.50633e-05
1.1953e-07
9.50848e-05
1.05616e-07
9.51061e-05
9.14131e-08
7.68917e-08
9.51271e-05
9.72874e-05
1.29368e-08
9.72823e-05
3.78322e-08
9.72768e-05
6.46252e-08
9.7273e-05
9.36371e-08
9.72727e-05
1.23823e-07
9.72765e-05
1.53344e-07
9.72844e-05
1.80412e-07
9.72961e-05
2.03852e-07
9.73109e-05
2.2307e-07
9.73282e-05
2.37901e-07
9.73474e-05
2.48496e-07
9.73679e-05
2.55199e-07
9.73895e-05
2.58451e-07
9.74117e-05
2.5872e-07
9.74343e-05
2.5646e-07
9.74571e-05
2.52089e-07
9.748e-05
2.45976e-07
9.75029e-05
2.3844e-07
9.75258e-05
2.29749e-07
9.75485e-05
2.20127e-07
9.75711e-05
2.09756e-07
9.75935e-05
1.98781e-07
9.76158e-05
1.87318e-07
9.76379e-05
1.75455e-07
9.76599e-05
1.63258e-07
9.76817e-05
1.50772e-07
9.77034e-05
1.38028e-07
9.77249e-05
1.25043e-07
9.77463e-05
1.11824e-07
9.77674e-05
9.83715e-08
9.77883e-05
8.46822e-08
9.7809e-05
7.07517e-08
5.65657e-08
9.78293e-05
0.000100068
1.40046e-08
0.000100065
4.05985e-08
0.000100062
6.74843e-08
0.000100061
9.50185e-08
0.000100062
1.22477e-07
0.000100067
1.48619e-07
0.000100075
1.72216e-07
0.000100087
1.92438e-07
0.000100101
2.08861e-07
0.000100117
2.21388e-07
0.000100136
2.3016e-07
0.000100155
2.35473e-07
0.000100176
2.377e-07
0.000100198
2.37243e-07
0.00010022
2.34495e-07
0.000100242
2.2982e-07
0.000100264
2.23542e-07
0.000100287
2.15947e-07
0.000100309
2.07273e-07
0.000100332
1.97723e-07
0.000100354
1.87461e-07
0.000100376
1.76621e-07
0.000100398
1.65309e-07
0.00010042
1.53608e-07
0.000100442
1.4158e-07
0.000100463
1.29271e-07
0.000100485
1.16713e-07
0.000100506
1.03926e-07
0.000100527
9.0926e-08
0.000100547
7.77197e-08
0.000100568
6.4315e-08
0.000100588
5.07147e-08
3.69178e-08
0.000100607
0.000102928
1.44146e-08
0.000102926
4.17827e-08
0.000102926
6.84287e-08
0.000102926
9.46014e-08
0.000102929
1.19772e-07
0.000102934
1.43095e-07
0.000102943
1.63743e-07
0.000102954
1.81158e-07
0.000102968
1.95077e-07
0.000102984
2.05476e-07
0.000103001
2.12511e-07
0.00010302
2.16452e-07
0.00010304
2.17633e-07
0.000103061
2.16404e-07
0.000103083
2.13109e-07
0.000103104
2.08069e-07
0.000103126
2.0157e-07
0.000103148
1.93864e-07
0.000103171
1.85165e-07
0.000103193
1.75654e-07
0.000103215
1.65478e-07
0.000103236
1.5476e-07
0.000103258
1.43597e-07
0.00010328
1.32064e-07
0.000103301
1.20222e-07
0.000103322
1.08114e-07
0.000103343
9.5775e-08
0.000103364
8.32284e-08
0.000103384
7.04932e-08
0.000103404
5.75839e-08
0.000103424
4.45133e-08
0.000103444
3.12927e-08
1.79277e-08
0.000103463
0.000105869
1.44296e-08
0.000105869
4.19465e-08
0.000105869
6.8098e-08
0.000105871
9.29628e-08
0.000105874
1.16129e-07
0.00010588
1.37018e-07
0.000105889
1.55095e-07
0.0001059
1.7002e-07
0.000105913
1.81668e-07
0.000105929
1.9009e-07
0.000105946
1.95468e-07
0.000105964
1.98067e-07
0.000105984
1.98192e-07
0.000106004
1.96158e-07
0.000106025
1.92274e-07
0.000106046
1.86821e-07
0.000106068
1.80054e-07
0.000106089
1.72195e-07
0.000106111
1.63435e-07
0.000106133
1.53935e-07
0.000106154
1.43827e-07
0.000106176
1.33221e-07
0.000106197
1.22204e-07
0.000106218
1.10848e-07
0.000106239
9.92074e-08
0.00010626
8.7326e-08
0.000106281
7.52363e-08
0.000106301
6.29666e-08
0.000106321
5.05366e-08
0.000106341
3.79674e-08
0.00010636
2.52738e-08
0.000106379
1.2474e-08
-4.24449e-10
0.000106397
0.000108894
1.42354e-08
0.000108894
4.15354e-08
0.000108895
6.7046e-08
0.000108897
9.06507e-08
0.000108901
1.12006e-07
0.000108908
1.30726e-07
0.000108916
1.46495e-07
0.000108927
1.59153e-07
0.00010894
1.68698e-07
0.000108955
1.75254e-07
0.000108971
1.79037e-07
0.000108989
1.80312e-07
0.000109008
1.79372e-07
0.000109028
1.76507e-07
0.000109048
1.71993e-07
0.000109069
1.66085e-07
0.00010909
1.59007e-07
0.000109111
1.50957e-07
0.000109132
1.42104e-07
0.000109154
1.32589e-07
0.000109175
1.2253e-07
0.000109196
1.12026e-07
0.000109217
1.01156e-07
0.000109238
8.99826e-08
0.000109259
7.85584e-08
0.000109279
6.69233e-08
0.000109299
5.51114e-08
0.000109319
4.31489e-08
0.000109339
3.10607e-08
0.000109358
1.88665e-08
0.000109376
6.58741e-09
0.000109395
-5.75958e-09
-1.81624e-08
0.000109412
0.000112005
1.39709e-08
0.000112005
4.09204e-08
0.000112007
6.57692e-08
0.000112009
8.81933e-08
0.000112013
1.0789e-07
0.000112019
1.24624e-07
0.000112028
1.3826e-07
0.000112038
1.48795e-07
0.00011205
1.5634e-07
0.000112064
1.61094e-07
0.00011208
1.63308e-07
0.000112097
1.63259e-07
0.000112115
1.61231e-07
0.000112134
1.57497e-07
0.000112154
1.5231e-07
0.000112174
1.45899e-07
0.000112195
1.38466e-07
0.000112216
1.30183e-07
0.000112236
1.21201e-07
0.000112257
1.11643e-07
0.000112278
1.01614e-07
0.000112299
9.12003e-08
0.00011232
8.04714e-08
0.00011234
6.94849e-08
0.000112361
5.8287e-08
0.000112381
4.69156e-08
0.0001124
3.54025e-08
0.00011242
2.37746e-08
0.000112439
1.20558e-08
0.000112457
2.67936e-10
0.000112475
-1.15685e-08
0.000112493
-2.34348e-08
-3.53186e-08
0.00011251
0.000115205
1.3755e-08
0.000115205
4.04407e-08
0.000115206
6.4747e-08
0.000115208
8.6128e-08
0.000115212
1.04309e-07
0.000115217
1.19189e-07
0.000115225
1.30799e-07
0.000115234
1.39283e-07
0.000115246
1.44869e-07
0.000115259
1.4783e-07
0.000115274
1.48458e-07
0.00011529
1.47048e-07
0.000115307
1.43883e-07
0.000115326
1.39222e-07
0.000115345
1.33302e-07
0.000115364
1.26329e-07
0.000115384
1.18483e-07
0.000115404
1.09918e-07
0.000115425
1.00763e-07
0.000115445
9.11271e-08
0.000115466
8.11008e-08
0.000115486
7.07587e-08
0.000115507
6.01611e-08
0.000115527
4.93586e-08
0.000115547
3.83913e-08
0.000115566
2.72946e-08
0.000115586
1.60964e-08
0.000115605
4.82295e-09
0.000115623
-6.50373e-09
0.000115641
-1.78617e-08
0.000115659
-2.92319e-08
0.000115676
-4.05954e-08
-5.19418e-08
0.000115693
0.000118496
1.37042e-08
0.000118496
4.04466e-08
0.000118496
6.44911e-08
0.000118497
8.5045e-08
0.0001185
1.01864e-07
0.000118504
1.14989e-07
0.00011851
1.2462e-07
0.000118518
1.31061e-07
0.000118529
1.34659e-07
0.000118541
1.35772e-07
0.000118554
1.34743e-07
0.000118569
1.31888e-07
0.000118586
1.27495e-07
0.000118603
1.21817e-07
0.000118621
1.15075e-07
0.00011864
1.07456e-07
0.00011866
9.91208e-08
0.000118679
9.02045e-08
0.000118699
8.08194e-08
0.000118719
7.10576e-08
0.00011874
6.09963e-08
0.00011876
5.0697e-08
0.00011878
4.02123e-08
0.000118799
2.95824e-08
0.000118819
1.88442e-08
0.000118838
8.0251e-09
0.000118857
-2.8478e-09
0.000118876
-1.37539e-08
0.000118894
-2.4671e-08
0.000118912
-3.55817e-08
0.000118929
-4.64662e-08
0.000118945
-5.731e-08
-6.81017e-08
0.000118962
0.000121881
1.39566e-08
0.00012188
4.13549e-08
0.000121879
6.56152e-08
0.000121878
8.56552e-08
0.000121879
1.01286e-07
0.000121881
1.12721e-07
0.000121886
1.20359e-07
0.000121892
1.24683e-07
0.0001219
1.26185e-07
0.000121911
1.25318e-07
0.000121923
1.22486e-07
0.000121937
1.18038e-07
0.000121952
1.1227e-07
0.000121969
1.05434e-07
0.000121986
9.77384e-08
0.000122004
8.93546e-08
0.000122023
8.04249e-08
0.000122042
7.1066e-08
0.000122061
6.13715e-08
0.000122081
5.1419e-08
0.000122101
4.12694e-08
0.00012212
3.09736e-08
0.00012214
2.05711e-08
0.000122159
1.00961e-08
0.000122179
-4.24925e-10
0.000122198
-1.09677e-08
0.000122216
-2.15133e-08
0.000122235
-3.20424e-08
0.000122253
-4.25393e-08
0.00012227
-5.29871e-08
0.000122287
-6.33718e-08
0.000122303
-7.36792e-08
-8.39025e-08
0.000122319
0.000125363
1.46992e-08
0.00012536
4.37272e-08
0.000125357
6.89324e-08
0.000125354
8.88872e-08
0.000125352
1.03517e-07
0.000125351
1.13276e-07
0.000125353
1.18814e-07
0.000125356
1.20842e-07
0.000125363
1.20024e-07
0.000125371
1.16936e-07
0.000125381
1.12055e-07
0.000125394
1.05775e-07
0.000125407
9.84085e-08
0.000125423
9.0208e-08
0.000125439
8.13724e-08
0.000125456
7.20589e-08
0.000125474
6.23914e-08
0.000125493
5.24664e-08
0.000125512
4.23601e-08
0.000125531
3.21312e-08
0.000125551
2.18258e-08
0.00012557
1.14799e-08
0.00012559
1.1216e-09
0.000125609
-9.22643e-09
0.000125628
-1.95458e-08
0.000125647
-2.98211e-08
0.000125666
-4.00387e-08
0.000125684
-5.01865e-08
0.000125701
-6.02525e-08
0.000125719
-7.02256e-08
0.000125735
-8.00948e-08
0.000125752
-8.98508e-08
-9.94892e-08
0.000125767
0.000128944
1.62192e-08
0.000128939
4.83965e-08
0.000128932
7.56107e-08
0.000128925
9.60327e-08
0.000128919
1.09831e-07
0.000128914
1.1782e-07
0.000128912
1.20997e-07
0.000128913
1.20373e-07
0.000128916
1.16841e-07
0.000128922
1.1113e-07
0.00012893
1.03814e-07
0.00012894
9.53398e-08
0.000128953
8.60475e-08
0.000128967
7.61919e-08
0.000128982
6.59632e-08
0.000128999
5.55016e-08
0.000129016
4.49108e-08
0.000129034
3.42651e-08
0.000129053
2.36193e-08
0.000129072
1.30112e-08
0.000129091
2.46914e-09
0.000129111
-7.98863e-09
0.00012913
-1.83477e-08
0.00012915
-2.85993e-08
0.000129169
-3.87355e-08
0.000129188
-4.87513e-08
0.000129206
-5.86412e-08
0.000129225
-6.84006e-08
0.000129242
-7.80242e-08
0.00012926
-8.75067e-08
0.000129276
-9.68425e-08
0.000129293
-1.06027e-07
-1.1506e-07
0.000129308
0.000132626
1.89941e-08
0.000132618
5.66866e-08
0.000132606
8.74179e-08
0.000132593
1.08961e-07
0.000132581
1.21992e-07
0.000132571
1.27888e-07
0.000132564
1.28159e-07
0.00013256
1.24241e-07
0.00013256
1.17334e-07
0.000132562
1.08362e-07
0.000132568
9.80257e-08
0.000132577
8.6838e-08
0.000132587
7.51662e-08
0.0001326
6.32677e-08
0.000132615
5.13183e-08
0.000132631
3.94368e-08
0.000132648
2.76985e-08
0.000132666
1.61516e-08
0.000132685
4.82134e-09
0.000132705
-6.27728e-09
0.000132724
-1.7142e-08
0.000132744
-2.77726e-08
0.000132764
-3.81757e-08
0.000132783
-4.8356e-08
0.000132803
-5.83221e-08
0.000132822
-6.80791e-08
0.000132841
-7.7634e-08
0.00013286
-8.69899e-08
0.000132878
-9.61512e-08
0.000132896
-1.05119e-07
0.000132913
-1.13894e-07
0.000132929
-1.22478e-07
-1.30877e-07
0.000132945
0.000136413
2.38791e-08
0.000136399
7.08099e-08
0.00013638
1.07122e-07
0.000136358
1.30428e-07
0.000136338
1.42439e-07
0.00013632
1.45451e-07
0.000136306
1.41763e-07
0.000136297
1.33438e-07
0.000136293
1.22088e-07
0.000136292
1.08893e-07
0.000136295
9.4696e-08
0.000136302
8.00825e-08
0.000136312
6.54395e-08
0.000136324
5.10137e-08
0.000136338
3.6953e-08
0.000136355
2.33393e-08
0.000136372
1.02094e-08
0.000136391
-2.42891e-09
0.00013641
-1.45852e-08
0.00013643
-2.62801e-08
0.00013645
-3.75391e-08
0.000136471
-4.83907e-08
0.000136492
-5.88623e-08
0.000136512
-6.8981e-08
0.000136533
-7.87705e-08
0.000136553
-8.8253e-08
0.000136573
-9.74467e-08
0.000136592
-1.06368e-07
0.000136611
-1.15029e-07
0.000136629
-1.23442e-07
0.000136647
-1.31614e-07
0.000136664
-1.39555e-07
-1.47273e-07
0.000136681
0.000140307
3.24929e-08
0.000140283
9.46013e-08
0.000140251
1.39128e-07
0.000140217
1.6448e-07
0.000140185
1.74449e-07
0.000140158
1.72869e-07
0.000140136
1.63297e-07
0.000140121
1.48722e-07
0.000140112
1.313e-07
0.000140108
1.12501e-07
0.00014011
9.33138e-08
0.000140115
7.43711e-08
0.000140125
5.6048e-08
0.000140137
3.85453e-08
0.000140152
2.19547e-08
0.000140169
6.29432e-09
0.000140188
-8.45773e-09
0.000140208
-2.23514e-08
0.000140229
-3.54451e-08
0.00014025
-4.78055e-08
0.000140272
-5.94955e-08
0.000140294
-7.0578e-08
0.000140317
-8.11082e-08
0.000140339
-9.11386e-08
0.000140361
-1.00713e-07
0.000140382
-1.09873e-07
0.000140404
-1.1865e-07
0.000140424
-1.27077e-07
0.000140444
-1.35175e-07
0.000140464
-1.42967e-07
0.000140483
-1.5047e-07
0.000140501
-1.57699e-07
-1.64672e-07
0.000140518
0.000144309
4.80857e-08
0.000144269
1.34869e-07
0.000144217
1.90436e-07
0.000144165
2.16882e-07
0.000144117
2.2212e-07
0.000144078
2.12553e-07
0.000144047
1.93775e-07
0.000144026
1.70093e-07
0.000144013
1.44282e-07
0.000144007
1.18066e-07
0.000144008
9.25067e-08
0.000144014
6.82073e-08
0.000144025
4.54522e-08
0.000144039
2.43355e-08
0.000144056
4.83771e-09
0.000144076
-1.31215e-08
0.000144097
-2.96575e-08
0.000144119
-4.4896e-08
0.000144143
-5.89663e-08
0.000144167
-7.19895e-08
0.000144192
-8.408e-08
0.000144216
-9.53388e-08
0.000144241
-1.05858e-07
0.000144266
-1.15717e-07
0.00014429
-1.24987e-07
0.000144314
-1.33727e-07
0.000144337
-1.41989e-07
0.00014436
-1.49818e-07
0.000144382
-1.57252e-07
0.000144403
-1.64321e-07
0.000144424
-1.71055e-07
0.000144444
-1.77476e-07
-1.83608e-07
0.000144463
0.000148418
7.75935e-08
0.000148349
2.03823e-07
0.000148268
2.71843e-07
0.00014819
2.95263e-07
0.000148122
2.89794e-07
0.000148069
2.66038e-07
0.00014803
2.32769e-07
0.000148004
1.95944e-07
0.000147989
1.58788e-07
0.000147984
1.23037e-07
0.000147987
8.96361e-08
0.000147996
5.89867e-08
0.000148011
3.11516e-08
0.000148029
6.01548e-09
0.00014805
-1.66191e-08
0.000148074
-3.69852e-08
0.0001481
-5.53233e-08
0.000148127
-7.18652e-08
0.000148155
-8.6825e-08
0.000148183
-1.00396e-07
0.000148212
-1.12749e-07
0.000148241
-1.24035e-07
0.000148269
-1.34384e-07
0.000148297
-1.43909e-07
0.000148325
-1.52708e-07
0.000148352
-1.60864e-07
0.000148379
-1.68447e-07
0.000148404
-1.7552e-07
0.000148429
-1.82132e-07
0.000148453
-1.88328e-07
0.000148476
-1.94145e-07
0.000148498
-1.99616e-07
-2.04772e-07
0.00014852
0.000152631
1.36092e-07
0.000152511
3.23586e-07
0.000152383
3.99232e-07
0.00015227
4.08254e-07
0.00015218
3.80276e-07
0.000152114
3.32065e-07
0.00015207
2.76807e-07
0.000152044
2.21874e-07
0.000152033
1.70154e-07
0.000152033
1.22818e-07
0.000152042
8.0328e-08
0.000152059
4.26248e-08
0.00015208
9.36125e-09
0.000152106
-1.99098e-08
0.000152135
-4.56436e-08
0.000152167
-6.82777e-08
0.000152199
-8.82141e-08
0.000152233
-1.05814e-07
0.000152268
-1.21394e-07
0.000152303
-1.3523e-07
0.000152338
-1.47558e-07
0.000152372
-1.58582e-07
0.000152406
-1.68476e-07
0.00015244
-1.77388e-07
0.000152472
-1.85445e-07
0.000152504
-1.92754e-07
0.000152535
-1.99406e-07
0.000152565
-2.05477e-07
0.000152594
-2.11035e-07
0.000152622
-2.16134e-07
0.000152649
-2.20822e-07
0.000152674
-2.25139e-07
-2.29124e-07
0.000152699
0.000156933
2.54127e-07
0.000156722
5.34896e-07
0.000156526
5.95126e-07
0.000156371
5.63193e-07
0.00015626
4.91343e-07
0.000156189
4.03381e-07
0.000156149
3.17017e-07
0.000156132
2.39031e-07
0.000156132
1.7005e-07
0.000156145
1.09722e-07
0.000156168
5.75587e-08
0.000156197
1.27192e-08
0.000156233
-2.57694e-08
0.000156271
-5.8804e-08
0.000156313
-8.71699e-08
0.000156356
-1.11548e-07
0.000156401
-1.32535e-07
0.000156445
-1.50637e-07
0.00015649
-1.66287e-07
0.000156535
-1.79847e-07
0.000156579
-1.91628e-07
0.000156622
-2.01887e-07
0.000156665
-2.10844e-07
0.000156706
-2.18684e-07
0.000156746
-2.25561e-07
0.000156785
-2.31607e-07
0.000156822
-2.36932e-07
0.000156859
-2.41629e-07
0.000156893
-2.45778e-07
0.000156927
-2.49445e-07
0.000156958
-2.52688e-07
0.000156989
-2.55555e-07
-2.58094e-07
0.000157018
0.00016129
5.02251e-07
0.000160918
9.06961e-07
0.00016063
8.83603e-07
0.000160432
7.6078e-07
0.000160312
6.11096e-07
0.000160253
4.62948e-07
0.000160234
3.36331e-07
0.000160241
2.31764e-07
0.000160267
1.44136e-07
0.000160306
7.0519e-08
0.000160354
9.11232e-09
0.000160409
-4.20213e-08
0.000160468
-8.46854e-08
0.00016053
-1.20341e-07
0.000160593
-1.50151e-07
0.000160656
-1.75083e-07
0.000160719
-1.95947e-07
0.000160782
-2.13418e-07
0.000160844
-2.28049e-07
0.000160904
-2.40302e-07
0.000160963
-2.50555e-07
0.000161021
-2.59127e-07
0.000161076
-2.66278e-07
0.00016113
-2.7223e-07
0.000161181
-2.77161e-07
0.000161231
-2.81226e-07
0.000161278
-2.8455e-07
0.000161324
-2.8724e-07
0.000161368
-2.89383e-07
0.000161409
-2.91054e-07
0.000161449
-2.92314e-07
0.000161487
-2.93213e-07
-2.93801e-07
0.000161522
0.000165509
1.14674e-06
0.000164895
1.52074e-06
0.000164546
1.23312e-06
0.000164348
9.58427e-07
0.000164265
6.94149e-07
0.000164259
4.69476e-07
0.000164294
3.006e-07
0.000164355
1.70966e-07
0.000164433
6.63505e-08
0.000164522
-1.86769e-08
0.000164618
-8.72058e-08
0.000164719
-1.42364e-07
0.000164821
-1.86861e-07
0.000164923
-2.22743e-07
0.000165025
-2.51587e-07
0.000165124
-2.74687e-07
0.000165222
-2.93107e-07
0.000165316
-3.07712e-07
0.000165407
-3.19197e-07
0.000165495
-3.28126e-07
0.000165579
-3.34958e-07
0.00016566
-3.40064e-07
0.000165738
-3.43748e-07
0.000165812
-3.46261e-07
0.000165882
-3.47804e-07
0.00016595
-3.48545e-07
0.000166014
-3.48622e-07