/*--------------------------------*- C++ -*----------------------------------*\
| =========                 |                                                 |
| \\      /  F ield         | OpenFOAM: The Open Source CFD Toolbox           |
|  \\    /   O peration     | Version:  4.1                                   |
|   \\  /    A nd           | Web:      www.OpenFOAM.org                      |
|    \\/     M anipulation  |                                                 |
\*---------------------------------------------------------------------------*/
FoamFile
{
    version     2.0;
    format      ascii;
    class       volVectorField;
    location    "1800";
    object      U;
}
// * * * * * * * * * * * * * * * * * * * * * * * * * * * * * * * * * * * * * //

dimensions      [0 1 -1 0 0 0 0];

internalField   nonuniform List<vector> 
6820
(
(7.12051 -2.89958 0)
(7.72183 -2.2784 0)
(7.93531 -1.28315 0)
(7.87961 -0.658566 0)
(7.73232 -0.320701 0)
(7.56973 -0.148362 0)
(7.41012 -0.0616843 0)
(7.26103 -0.0176571 0)
(7.12628 0.00481326 0)
(7.00568 0.016026 0)
(6.89737 0.0212388 0)
(6.79958 0.0232362 0)
(6.71096 0.0235132 0)
(6.63036 0.0228806 0)
(6.55678 0.0217879 0)
(6.48935 0.020489 0)
(6.42738 0.0191272 0)
(6.37027 0.0177818 0)
(6.31751 0.0164948 0)
(6.26866 0.0152871 0)
(6.22334 0.0141675 0)
(6.1812 0.0131377 0)
(6.14195 0.0121959 0)
(6.10532 0.0113388 0)
(6.07106 0.0105632 0)
(6.03895 0.00986692 0)
(6.00878 0.00925131 0)
(5.98031 0.00871962 0)
(5.95334 0.00829641 0)
(5.92746 0.00797265 0)
(5.90273 0.00791064 0)
(5.87672 0.00800404 0)
(5.85637 0.00690773 0)
(7.59884 0.654127 0)
(7.43304 0.77761 0)
(7.36112 0.527756 0)
(7.34933 0.342769 0)
(7.39535 0.234375 0)
(7.45299 0.166654 0)
(7.49513 0.123346 0)
(7.51886 0.0959953 0)
(7.52909 0.0783841 0)
(7.52978 0.0664988 0)
(7.52339 0.0581218 0)
(7.51187 0.0520212 0)
(7.49682 0.047434 0)
(7.47936 0.0438615 0)
(7.4603 0.0409829 0)
(7.44018 0.0385934 0)
(7.41942 0.0365594 0)
(7.39835 0.03479 0)
(7.37718 0.0332234 0)
(7.35608 0.0318163 0)
(7.33518 0.0305389 0)
(7.31458 0.02937 0)
(7.29435 0.0282947 0)
(7.27452 0.0273031 0)
(7.25515 0.0263897 0)
(7.23625 0.0255534 0)
(7.21784 0.0247993 0)
(7.1999 0.0241376 0)
(7.18249 0.0236035 0)
(7.16548 0.0232087 0)
(7.14927 0.0231931 0)
(7.13287 0.0232006 0)
(7.12002 0.025893 0)
(7.25567 -0.0497306 0)
(7.16457 -0.0746217 0)
(7.20132 -0.0871777 0)
(7.24037 -0.0571871 0)
(7.27477 -0.0216435 0)
(7.31088 0.0019591 0)
(7.34256 0.016624 0)
(7.36741 0.0264405 0)
(7.38684 0.0329434 0)
(7.40194 0.0369133 0)
(7.41321 0.0391172 0)
(7.42121 0.0401866 0)
(7.42657 0.0405282 0)
(7.42981 0.0403896 0)
(7.43131 0.0399356 0)
(7.43142 0.0392816 0)
(7.43037 0.0385059 0)
(7.42839 0.0376605 0)
(7.42566 0.03678 0)
(7.42232 0.0358883 0)
(7.41848 0.0350021 0)
(7.41425 0.034133 0)
(7.40969 0.0332896 0)
(7.40489 0.032479 0)
(7.39989 0.0317085 0)
(7.39474 0.030986 0)
(7.38948 0.0303241 0)
(7.38412 0.0297374 0)
(7.37871 0.0292643 0)
(7.37322 0.0289191 0)
(7.36782 0.0288821 0)
(7.36225 0.0290019 0)
(7.35758 0.0304066 0)
(7.29108 -0.0915081 0)
(7.22275 -0.063933 0)
(7.23474 -0.0294732 0)
(7.25082 -0.00392944 0)
(7.2644 0.0156007 0)
(7.28272 0.026992 0)
(7.30139 0.0329062 0)
(7.31764 0.0363608 0)
(7.3319 0.0384825 0)
(7.34452 0.0396044 0)
(7.35544 0.0400319 0)
(7.3647 0.0400413 0)
(7.37248 0.0397963 0)
(7.379 0.0393819 0)
(7.38442 0.0388527 0)
(7.38889 0.03825 0)
(7.39253 0.0376024 0)
(7.39546 0.0369291 0)
(7.39778 0.0362432 0)
(7.39958 0.0355546 0)
(7.40093 0.0348709 0)
(7.40189 0.0341983 0)
(7.40251 0.0335424 0)
(7.40285 0.0329088 0)
(7.40294 0.0323043 0)
(7.40282 0.0317375 0)
(7.40252 0.0312214 0)
(7.40205 0.0307724 0)
(7.40147 0.0304238 0)
(7.40077 0.0302001 0)
(7.40006 0.0302133 0)
(7.39931 0.0304041 0)
(7.39897 0.0312551 0)
(7.31214 -0.0522565 0)
(7.26645 -0.0334737 0)
(7.26326 -0.0148426 0)
(7.26623 -0.00265008 0)
(7.27139 0.0101294 0)
(7.28196 0.0195657 0)
(7.29393 0.0252584 0)
(7.3049 0.0290461 0)
(7.31503 0.0317838 0)
(7.32449 0.0336476 0)
(7.33312 0.0348192 0)
(7.34087 0.0355121 0)
(7.3478 0.0358719 0)
(7.35399 0.0359844 0)
(7.35952 0.0359109 0)
(7.36444 0.0357003 0)
(7.36883 0.0353899 0)
(7.37274 0.0350068 0)
(7.37623 0.0345713 0)
(7.37935 0.0340996 0)
(7.38214 0.0336042 0)
(7.38463 0.0330958 0)
(7.38687 0.0325835 0)
(7.38887 0.032076 0)
(7.39068 0.0315825 0)
(7.39231 0.0311135 0)
(7.39379 0.0306825 0)
(7.39514 0.0303062 0)
(7.39638 0.030011 0)
(7.39756 0.0298203 0)
(7.39873 0.0297953 0)
(7.39995 0.0299164 0)
(7.40145 0.0303585 0)
(7.32016 -0.0320515 0)
(7.28758 -0.0252465 0)
(7.28069 -0.0140971 0)
(7.27975 -0.00455792 0)
(7.28192 0.00650062 0)
(7.28854 0.0153369 0)
(7.29665 0.0211158 0)
(7.30442 0.025133 0)
(7.31183 0.0280981 0)
(7.31896 0.0301932 0)
(7.32565 0.0315961 0)
(7.33185 0.0325072 0)
(7.33757 0.0330681 0)
(7.34284 0.0333662 0)
(7.34771 0.0334643 0)
(7.35219 0.0334121 0)
(7.35632 0.0332474 0)
(7.36014 0.0329979 0)
(7.36368 0.032685 0)
(7.36696 0.0323254 0)
(7.37001 0.0319324 0)
(7.37286 0.0315171 0)
(7.37552 0.0310894 0)
(7.37801 0.0306583 0)
(7.38036 0.030233 0)
(7.38258 0.0298237 0)
(7.38469 0.0294426 0)
(7.38672 0.0291037 0)
(7.38868 0.0288262 0)
(7.39061 0.0286266 0)
(7.39257 0.0285348 0)
(7.39462 0.0285384 0)
(7.3969 0.0286844 0)
(7.32441 -0.0221714 0)
(7.30054 -0.020845 0)
(7.2931 -0.0128351 0)
(7.29071 -0.00453565 0)
(7.29137 0.00495519 0)
(7.29565 0.0128524 0)
(7.30141 0.0183631 0)
(7.30722 0.0223245 0)
(7.31294 0.0252838 0)
(7.31855 0.0274261 0)
(7.32392 0.0289186 0)
(7.32899 0.029937 0)
(7.33375 0.0306086 0)
(7.33822 0.0310165 0)
(7.34242 0.0312214 0)
(7.34637 0.0312706 0)
(7.35008 0.0312007 0)
(7.35357 0.031039 0)
(7.35687 0.0308067 0)
(7.35999 0.0305204 0)
(7.36295 0.0301938 0)
(7.36576 0.0298381 0)
(7.36844 0.029463 0)
(7.37101 0.0290775 0)
(7.37347 0.0286906 0)
(7.37584 0.0283114 0)
(7.37814 0.0279498 0)
(7.38039 0.0276168 0)
(7.38261 0.0273243 0)
(7.38484 0.0270816 0)
(7.38711 0.0268984 0)
(7.3895 0.0267593 0)
(7.39206 0.0266564 0)
(7.32735 -0.015398 0)
(7.30976 -0.0162707 0)
(7.30244 -0.0106197 0)
(7.29932 -0.00378713 0)
(7.29908 0.00415883 0)
(7.30187 0.0110814 0)
(7.30609 0.0162162 0)
(7.31062 0.0200384 0)
(7.31523 0.0229388 0)
(7.31983 0.0250845 0)
(7.32431 0.0266244 0)
(7.32859 0.027709 0)
(7.33267 0.0284518 0)
(7.33655 0.0289311 0)
(7.34023 0.0292054 0)
(7.34373 0.0293204 0)
(7.34706 0.0293113 0)
(7.35023 0.0292052 0)
(7.35326 0.0290231 0)
(7.35616 0.0287816 0)
(7.35894 0.0284945 0)
(7.36162 0.0281727 0)
(7.3642 0.0278261 0)
(7.3667 0.0274632 0)
(7.36912 0.027092 0)
(7.37149 0.0267204 0)
(7.37381 0.026356 0)
(7.37611 0.0260062 0)
(7.3784 0.0256773 0)
(7.38071 0.0253717 0)
(7.38308 0.0250872 0)
(7.38555 0.0248046 0)
(7.38818 0.0244962 0)
(7.32939 -0.0103229 0)
(7.31652 -0.0120778 0)
(7.30969 -0.00829786 0)
(7.30624 -0.00285224 0)
(7.30542 0.00374743 0)
(7.30719 0.00977226 0)
(7.31032 0.0144923 0)
(7.31393 0.018128 0)
(7.31775 0.0209359 0)
(7.32163 0.0230533 0)
(7.32546 0.0246086 0)
(7.32918 0.0257292 0)
(7.33276 0.0265155 0)
(7.33619 0.0270408 0)
(7.33948 0.0273606 0)
(7.34264 0.0275189 0)
(7.34566 0.0275497 0)
(7.34857 0.0274795 0)
(7.35137 0.0273291 0)
(7.35406 0.0271151 0)
(7.35667 0.0268508 0)
(7.3592 0.0265473 0)
(7.36166 0.0262138 0)
(7.36405 0.0258584 0)
(7.3664 0.0254882 0)
(7.3687 0.0251095 0)
(7.37098 0.0247277 0)
(7.37325 0.024347 0)
(7.37553 0.0239693 0)
(7.37784 0.0235921 0)
(7.3802 0.0232067 0)
(7.38266 0.0227921 0)
(7.38523 0.022316 0)
(7.33074 -0.00670202 0)
(7.32148 -0.00859991 0)
(7.31542 -0.00610334 0)
(7.31195 -0.0018097 0)
(7.31077 0.00363591 0)
(7.3118 0.00883444 0)
(7.31411 0.0131121 0)
(7.31701 0.0165174 0)
(7.32021 0.0191983 0)
(7.32353 0.0212574 0)
(7.32688 0.0227998 0)
(7.33016 0.0239317 0)
(7.33335 0.0247406 0)
(7.33645 0.0252934 0)
(7.33943 0.0256423 0)
(7.34232 0.0258289 0)
(7.3451 0.0258858 0)
(7.34779 0.0258388 0)
(7.35039 0.0257082 0)
(7.35292 0.0255102 0)
(7.35538 0.025258 0)
(7.35777 0.0249623 0)
(7.36011 0.0246318 0)
(7.36241 0.0242739 0)
(7.36466 0.0238948 0)
(7.36689 0.0234994 0)
(7.36911 0.0230911 0)
(7.37132 0.0226715 0)
(7.37355 0.0222395 0)
(7.37581 0.0217894 0)
(7.37812 0.0213096 0)
(7.3805 0.0207795 0)
(7.38297 0.0201686 0)
(7.33161 -0.00420208 0)
(7.32508 -0.00581056 0)
(7.31996 -0.00410097 0)
(7.31671 -0.000716999 0)
(7.31534 0.00374658 0)
(7.31583 0.00818966 0)
(7.31753 0.0120123 0)
(7.31985 0.0151532 0)
(7.32254 0.0176768 0)
(7.32541 0.0196505 0)
(7.32835 0.0211554 0)
(7.33128 0.0222775 0)
(7.33417 0.0230912 0)
(7.33698 0.0236564 0)
(7.33973 0.0240213 0)
(7.34239 0.0242245 0)
(7.34498 0.0242972 0)
(7.34749 0.0242639 0)
(7.34993 0.0241444 0)
(7.35232 0.0239544 0)
(7.35464 0.0237066 0)
(7.35692 0.0234113 0)
(7.35915 0.0230768 0)
(7.36135 0.0227097 0)
(7.36352 0.0223153 0)
(7.36568 0.021897 0)
(7.36782 0.0214571 0)
(7.36997 0.020995 0)
(7.37213 0.0205078 0)
(7.37432 0.0199882 0)
(7.37655 0.0194239 0)
(7.37884 0.018796 0)
(7.38118 0.018078 0)
(7.33217 -0.00250038 0)
(7.32765 -0.00362286 0)
(7.32352 -0.00234705 0)
(7.32064 0.000350481 0)
(7.31925 0.00400014 0)
(7.31938 0.00776832 0)
(7.3206 0.0111417 0)
(7.32247 0.0139973 0)
(7.32473 0.0163398 0)
(7.32722 0.0182047 0)
(7.32982 0.0196501 0)
(7.33245 0.020743 0)
(7.33507 0.0215455 0)
(7.33766 0.0221096 0)
(7.34019 0.0224788 0)
(7.34267 0.0226887 0)
(7.34509 0.0227684 0)
(7.34745 0.0227412 0)
(7.34976 0.0226258 0)
(7.35202 0.0224375 0)
(7.35423 0.0221883 0)
(7.3564 0.0218881 0)
(7.35854 0.0215444 0)
(7.36066 0.0211635 0)
(7.36275 0.0207494 0)
(7.36482 0.020305 0)
(7.3669 0.0198309 0)
(7.36897 0.0193259 0)
(7.37106 0.0187856 0)
(7.37317 0.0182023 0)
(7.37531 0.0175645 0)
(7.37749 0.0168557 0)
(7.37971 0.0160541 0)
(7.33251 -0.00135813 0)
(7.32945 -0.00195287 0)
(7.32626 -0.00087855 0)
(7.32385 0.00132655 0)
(7.32255 0.00432467 0)
(7.32248 0.00750755 0)
(7.32335 0.0104545 0)
(7.32485 0.0130173 0)
(7.32676 0.0151626 0)
(7.32892 0.0168998 0)
(7.33123 0.0182667 0)
(7.3336 0.0193133 0)
(7.33599 0.0200896 0)
(7.33838 0.02064 0)
(7.34073 0.0210029 0)
(7.34305 0.0212104 0)
(7.34532 0.0212893 0)
(7.34755 0.0212613 0)
(7.34974 0.0211441 0)
(7.35189 0.0209521 0)
(7.354 0.0206969 0)
(7.35609 0.0203875 0)
(7.35814 0.020031 0)
(7.36017 0.0196329 0)
(7.36218 0.0191967 0)
(7.36419 0.0187244 0)
(7.36619 0.0182159 0)
(7.36819 0.0176692 0)
(7.3702 0.0170796 0)
(7.37223 0.0164399 0)
(7.37427 0.0157396 0)
(7.37634 0.0149651 0)
(7.37844 0.0140991 0)
(7.33272 -0.000604729 0)
(7.33069 -0.000715037 0)
(7.32832 0.000297827 0)
(7.3264 0.00216551 0)
(7.3253 0.00465907 0)
(7.32514 0.00734967 0)
(7.32578 0.00990675 0)
(7.327 0.0121824 0)
(7.32862 0.0141226 0)
(7.33051 0.0157188 0)
(7.33256 0.0169918 0)
(7.33471 0.0179771 0)
(7.3369 0.0187139 0)
(7.3391 0.019239 0)
(7.34129 0.0195856 0)
(7.34346 0.0197822 0)
(7.34561 0.019853 0)
(7.34772 0.019818 0)
(7.3498 0.0196937 0)
(7.35185 0.0194935 0)
(7.35388 0.0192282 0)
(7.35587 0.0189062 0)
(7.35785 0.0185342 0)
(7.3598 0.0181168 0)
(7.36174 0.0176571 0)
(7.36367 0.0171565 0)
(7.3656 0.0166144 0)
(7.36753 0.0160286 0)
(7.36946 0.0153947 0)
(7.3714 0.014706 0)
(7.37335 0.0139537 0)
(7.37532 0.0131268 0)
(7.37729 0.012212 0)
(7.33284 -0.000117567 0)
(7.33153 0.000174906 0)
(7.32984 0.00119956 0)
(7.3284 0.00284322 0)
(7.32753 0.00495608 0)
(7.32738 0.00724392 0)
(7.32788 0.00945656 0)
(7.3289 0.0114612 0)
(7.33029 0.013197 0)
(7.33195 0.0146447 0)
(7.33379 0.0158126 0)
(7.33574 0.0167246 0)
(7.33775 0.0174104 0)
(7.33979 0.0178998 0)
(7.34183 0.018221 0)
(7.34387 0.0183988 0)
(7.3459 0.0184549 0)
(7.34791 0.0184072 0)
(7.34989 0.018271 0)
(7.35185 0.0180585 0)
(7.35379 0.0177797 0)
(7.35571 0.0174425 0)
(7.3576 0.0170527 0)
(7.35949 0.0166147 0)
(7.36136 0.016131 0)
(7.36322 0.0156025 0)
(7.36507 0.0150287 0)
(7.36692 0.0144072 0)
(7.36878 0.0137341 0)
(7.37063 0.0130038 0)
(7.37249 0.0122089 0)
(7.37435 0.011341 0)
(7.3762 0.01039 0)
(7.33292 0.000190162 0)
(7.33209 0.000793543 0)
(7.33093 0.00185872 0)
(7.32991 0.00335455 0)
(7.32929 0.00518423 0)
(7.32921 0.00714937 0)
(7.32965 0.00906611 0)
(7.33053 0.0108234 0)
(7.33176 0.0123629 0)
(7.33323 0.0136605 0)
(7.33489 0.0147166 0)
(7.33666 0.0155464 0)
(7.33851 0.0161718 0)
(7.34041 0.0166167 0)
(7.34232 0.0169044 0)
(7.34425 0.0170564 0)
(7.34617 0.0170915 0)
(7.34807 0.017026 0)
(7.34997 0.0168734 0)
(7.35184 0.016645 0)
(7.3537 0.0163499 0)
(7.35554 0.0159952 0)
(7.35737 0.0155862 0)
(7.35918 0.0151268 0)
(7.36098 0.0146192 0)
(7.36277 0.0140641 0)
(7.36455 0.0134609 0)
(7.36633 0.0128075 0)
(7.3681 0.0121006 0)
(7.36987 0.0113355 0)
(7.37164 0.0105066 0)
(7.3734 0.00960733 0)
(7.37514 0.00863028 0)
(7.33296 0.000378564 0)
(7.33245 0.00120628 0)
(7.33171 0.0023141 0)
(7.33104 0.00370895 0)
(7.33065 0.00532755 0)
(7.33067 0.00703677 0)
(7.3311 0.00870422 0)
(7.3319 0.0102416 0)
(7.33299 0.0115979 0)
(7.33432 0.0127489 0)
(7.33583 0.0136907 0)
(7.33746 0.0144327 0)
(7.33917 0.0149908 0)
(7.34094 0.015384 0)
(7.34274 0.0156315 0)
(7.34455 0.0157515 0)
(7.34637 0.0157603 0)
(7.34818 0.0156722 0)
(7.34999 0.0154994 0)
(7.35179 0.015252 0)
(7.35357 0.014938 0)
(7.35534 0.0145641 0)
(7.35709 0.014135 0)
(7.35884 0.013654 0)
(7.36057 0.0131231 0)
(7.36229 0.012543 0)
(7.364 0.0119131 0)
(7.3657 0.0112318 0)
(7.3674 0.0104962 0)
(7.36909 0.00970272 0)
(7.37076 0.00884719 0)
(7.37242 0.00792477 0)
(7.37407 0.00692999 0)
(7.33298 0.000488546 0)
(7.33269 0.00146664 0)
(7.33224 0.00260551 0)
(7.33185 0.00392535 0)
(7.33167 0.00538317 0)
(7.33179 0.00688886 0)
(7.33224 0.00834813 0)
(7.33298 0.00969316 0)
(7.33399 0.0108821 0)
(7.33521 0.0118935 0)
(7.3366 0.0127222 0)
(7.3381 0.0133737 0)
(7.3397 0.0138601 0)
(7.34135 0.0141963 0)
(7.34304 0.0143981 0)
(7.34475 0.014481 0)
(7.34648 0.0144588 0)
(7.34821 0.0143442 0)
(7.34994 0.0141479 0)
(7.35166 0.0138787 0)
(7.35337 0.0135441 0)
(7.35506 0.0131496 0)
(7.35675 0.0126997 0)
(7.35843 0.0121974 0)
(7.36009 0.0116443 0)
(7.36174 0.0110411 0)
(7.36338 0.0103874 0)
(7.36501 0.00968199 0)
(7.36663 0.00892264 0)
(7.36824 0.00810673 0)
(7.36982 0.00723112 0)
(7.37139 0.0062924 0)
(7.37294 0.0052867 0)
(7.33299 0.000547635 0)
(7.33284 0.0016171 0)
(7.33261 0.00277029 0)
(7.33242 0.00402763 0)
(7.3324 0.00535802 0)
(7.33261 0.00669916 0)
(7.33309 0.007984 0)
(7.33381 0.00916172 0)
(7.33476 0.0101997 0)
(7.33589 0.0110806 0)
(7.33717 0.0117995 0)
(7.33858 0.0123604 0)
(7.34006 0.0127726 0)
(7.34162 0.0130482 0)
(7.34321 0.0132004 0)
(7.34484 0.013242 0)
(7.34648 0.0131852 0)
(7.34813 0.0130408 0)
(7.34977 0.0128181 0)
(7.35142 0.0125251 0)
(7.35306 0.0121681 0)
(7.35469 0.0117523 0)
(7.35631 0.0112815 0)
(7.35792 0.0107583 0)
(7.35951 0.0101843 0)
(7.3611 0.00956021 0)
(7.36267 0.00888576 0)
(7.36423 0.00816005 0)
(7.36577 0.00738159 0)
(7.36729 0.00654845 0)
(7.3688 0.00565848 0)
(7.37028 0.00470934 0)
(7.37174 0.00369835 0)
(7.333 0.000574272 0)
(7.33294 0.00169073 0)
(7.33284 0.00284159 0)
(7.3328 0.0040413 0)
(7.3329 0.00526553 0)
(7.33318 0.00646984 0)
(7.33368 0.0076064 0)
(7.33439 0.00863786 0)
(7.33528 0.00953986 0)
(7.33635 0.0102996 0)
(7.33755 0.0109135 0)
(7.33886 0.0113852 0)
(7.34026 0.0117224 0)
(7.34172 0.0119352 0)
(7.34323 0.0120348 0)
(7.34477 0.0120322 0)
(7.34633 0.0119379 0)
(7.3479 0.011761 0)
(7.34948 0.0115099 0)
(7.35105 0.0111913 0)
(7.35262 0.0108109 0)
(7.35419 0.0103732 0)
(7.35574 0.00988156 0)
(7.35728 0.00933833 0)
(7.35881 0.00874498 0)
(7.36033 0.00810217 0)
(7.36183 0.0074099 0)
(7.36332 0.00666758 0)
(7.36478 0.00587425 0)
(7.36623 0.00502862 0)
(7.36766 0.00412929 0)
(7.36905 0.00317475 0)
(7.37042 0.00216324 0)
(7.333 0.000580883 0)
(7.33299 0.0017131 0)
(7.33299 0.00284796 0)
(7.33304 0.00399147 0)
(7.33321 0.00512292 0)
(7.33354 0.00620957 0)
(7.33405 0.00721715 0)
(7.33473 0.00811887 0)
(7.33559 0.00889751 0)
(7.33659 0.00954451 0)
(7.33772 0.0100584 0)
(7.33895 0.0104429 0)
(7.34027 0.0107052 0)
(7.34164 0.0108541 0)
(7.34307 0.0108992 0)
(7.34453 0.0108502 0)
(7.34601 0.010716 0)
(7.34751 0.0105047 0)
(7.34902 0.0102233 0)
(7.35052 0.0098779 0)
(7.35203 0.00947332 0)
(7.35352 0.00901349 0)
(7.35501 0.00850138 0)
(7.35649 0.00793909 0)
(7.35795 0.00732797 0)
(7.3594 0.00666871 0)
(7.36084 0.00596145 0)
(7.36225 0.00520594 0)
(7.36365 0.00440159 0)
(7.36502 0.00354769 0)
(7.36637 0.00264337 0)
(7.36769 0.00168778 0)
(7.36898 0.000679789 0)
(7.333 0.000576032 0)
(7.33302 0.00170416 0)
(7.33306 0.00281386 0)
(7.33316 0.00390194 0)
(7.33337 0.00494945 0)
(7.33372 0.00593155 0)
(7.33422 0.00682391 0)
(7.33487 0.00760812 0)
(7.33568 0.00827307 0)
(7.33662 0.00881421 0)
(7.33767 0.00923223 0)
(7.33883 0.00953164 0)
(7.34006 0.00971938 0)
(7.34136 0.00980361 0)
(7.34271 0.00979292 0)
(7.3441 0.00969573 0)
(7.3455 0.00951986 0)
(7.34693 0.00927237 0)
(7.34837 0.00895937 0)
(7.34981 0.00858606 0)
(7.35124 0.00815669 0)
(7.35268 0.00767464 0)
(7.3541 0.00714252 0)
(7.35551 0.00656218 0)
(7.35691 0.00593486 0)
(7.3583 0.00526126 0)
(7.35966 0.00454167 0)
(7.36101 0.00377605 0)
(7.36233 0.00296417 0)
(7.36363 0.00210568 0)
(7.36491 0.0012002 0)
(7.36615 0.000247301 0)
(7.36737 -0.000753692 0)
(7.333 0.00056593 0)
(7.33303 0.00168003 0)
(7.33309 0.00276069 0)
(7.3332 0.00379531 0)
(7.33341 0.00476556 0)
(7.33373 0.00565236 0)
(7.3342 0.00643905 0)
(7.33481 0.00711425 0)
(7.33556 0.00767229 0)
(7.33643 0.00811235 0)
(7.33741 0.0084374 0)
(7.33849 0.00865301 0)
(7.33964 0.00876627 0)
(7.34086 0.008785 0)
(7.34213 0.00871707 0)
(7.34344 0.00857002 0)
(7.34478 0.00835079 0)
(7.34613 0.00806552 0)
(7.3475 0.00771955 0)
(7.34887 0.00731735 0)
(7.35024 0.00686261 0)
(7.35161 0.00635824 0)
(7.35297 0.00580649 0)
(7.35432 0.00520899 0)
(7.35566 0.00456688 0)
(7.35698 0.00388083 0)
(7.35828 0.00315124 0)
(7.35956 0.00237824 0)
(7.36082 0.00156185 0)
(7.36205 0.000702005 0)
(7.36325 -0.000201355 0)
(7.36443 -0.00114836 0)
(7.36557 -0.00213936 0)
(7.333 0.000555513 0)
(7.33302 0.00165473 0)
(7.33307 0.00270823 0)
(7.33316 0.00369377 0)
(7.33333 0.00459299 0)
(7.33361 0.00539144 0)
(7.33402 0.00607902 0)
(7.33456 0.00665066 0)
(7.33523 0.0071058 0)
(7.33602 0.00744734 0)
(7.33691 0.0076806 0)
(7.33791 0.00781241 0)
(7.33898 0.00785032 0)
(7.34011 0.00780204 0)
(7.3413 0.00767498 0)
(7.34253 0.00747604 0)
(7.3438 0.00721141 0)
(7.34508 0.00688651 0)
(7.34638 0.00650596 0)
(7.34768 0.00607364 0)
(7.34899 0.00559271 0)
(7.35029 0.00506565 0)
(7.35159 0.00449439 0)
(7.35288 0.00388034 0)
(7.35416 0.0032245 0)
(7.35542 0.00252755 0)
(7.35666 0.0017899 0)
(7.35788 0.00101182 0)
(7.35907 0.000193466 0)
(7.36024 -0.000665005 0)
(7.36138 -0.00156348 0)
(7.36249 -0.00250185 0)
(7.36357 -0.00348031 0)
(7.333 0.000549293 0)
(7.333 0.00164179 0)
(7.333 0.00267646 0)
(7.33304 0.00362067 0)
(7.33314 0.00445572 0)
(7.33334 0.00517159 0)
(7.33365 0.0057644 0)
(7.3341 0.0062353 0)
(7.33467 0.00658894 0)
(7.33536 0.00683208 0)
(7.33616 0.00697259 0)
(7.33706 0.00701882 0)
(7.33804 0.006979 0)
(7.33909 0.00686094 0)
(7.34019 0.00667181 0)
(7.34134 0.00641803 0)
(7.34253 0.00610518 0)
(7.34374 0.00573808 0)
(7.34497 0.00532076 0)
(7.34621 0.00485653 0)
(7.34745 0.00434807 0)
(7.3487 0.00379746 0)
(7.34994 0.00320634 0)
(7.35117 0.00257588 0)
(7.35239 0.00190695 0)
(7.35359 0.00120015 0)
(7.35477 0.000455908 0)
(7.35594 -0.000325475 0)
(7.35708 -0.00114373 0)
(7.35819 -0.00199863 0)
(7.35927 -0.00288991 0)
(7.36032 -0.00381739 0)
(7.36134 -0.00478111 0)
(7.333 0.000552142 0)
(7.33297 0.0016562 0)
(7.3329 0.00268794 0)
(7.33283 0.00360277 0)
(7.33282 0.0043819 0)
(7.3329 0.00502027 0)
(7.33309 0.00552069 0)
(7.33341 0.00589107 0)
(7.33386 0.00614175 0)
(7.33443 0.00628375 0)
(7.33512 0.00632789 0)
(7.3359 0.00628429 0)
(7.33678 0.00616214 0)
(7.33774 0.0059696 0)
(7.33875 0.00571375 0)
(7.33982 0.00540068 0)
(7.34093 0.00503552 0)
(7.34207 0.00462253 0)
(7.34324 0.00416522 0)
(7.34441 0.00366639 0)
(7.3456 0.00312827 0)
(7.34679 0.00255256 0)
(7.34797 0.00194056 0)
(7.34915 0.00129322 0)
(7.35032 0.000611235 0)
(7.35147 -0.000104902 0)
(7.35261 -0.000854821 0)
(7.35372 -0.00163824 0)
(7.35481 -0.00245487 0)
(7.35587 -0.00330445 0)
(7.35691 -0.0041867 0)
(7.35791 -0.00510138 0)
(7.35888 -0.00604851 0)
(7.333 0.000570243 0)
(7.33291 0.00171695 0)
(7.33273 0.00277108 0)
(7.33252 0.00367362 0)
(7.33235 0.00440672 0)
(7.33226 0.00497183 0)
(7.33228 0.00537983 0)
(7.33244 0.00564659 0)
(7.33273 0.00578913 0)
(7.33316 0.00582349 0)
(7.33371 0.00576394 0)
(7.33438 0.00562285 0)
(7.33515 0.00541068 0)
(7.336 0.00513618 0)
(7.33693 0.00480653 0)
(7.33791 0.00442761 0)
(7.33895 0.00400419 0)
(7.34002 0.00354004 0)
(7.34113 0.00303817 0)
(7.34225 0.00250088 0)
(7.34338 0.00192994 0)
(7.34453 0.00132666 0)
(7.34567 0.000691993 0)
(7.3468 2.66149e-05 0)
(7.34793 -0.000669013 0)
(7.34904 -0.00139455 0)
(7.35014 -0.00214976 0)
(7.35121 -0.00293443 0)
(7.35226 -0.00374836 0)
(7.35328 -0.0045913 0)
(7.35428 -0.00546302 0)
(7.35524 -0.00636332 0)
(7.35617 -0.00729222 0)
(7.33299 0.000612545 0)
(7.33282 0.00185092 0)
(7.33248 0.00296512 0)
(7.33207 0.0038785 0)
(7.33167 0.00457677 0)
(7.33135 0.00507086 0)
(7.33115 0.00538228 0)
(7.3311 0.00553714 0)
(7.3312 0.00556077 0)
(7.33146 0.00547537 0)
(7.33186 0.00529954 0)
(7.33239 0.00504847 0)
(7.33304 0.00473429 0)
(7.3338 0.00436658 0)
(7.33464 0.00395282 0)
(7.33555 0.00349876 0)
(7.33652 0.00300882 0)
(7.33754 0.0024863 0)
(7.33859 0.00193369 0)
(7.33967 0.00135275 0)
(7.34077 0.000744745 0)
(7.34187 0.000110516 0)
(7.34298 -0.000549378 0)
(7.34409 -0.00123462 0)
(7.34519 -0.00194503 0)
(7.34627 -0.00268052 0)
(7.34734 -0.00344105 0)
(7.34839 -0.00422657 0)
(7.34941 -0.00503701 0)
(7.35041 -0.00587225 0)
(7.35138 -0.00673215 0)
(7.35232 -0.00761661 0)
(7.35322 -0.00852574 0)
(7.33298 0.000693335 0)
(7.33269 0.00209934 0)
(7.33211 0.00332798 0)
(7.33139 0.00428181 0)
(7.33067 0.00495596 0)
(7.33004 0.00537614 0)
(7.32955 0.00557908 0)
(7.32924 0.00560486 0)
(7.32912 0.00548982 0)
(7.32919 0.00526405 0)
(7.32943 0.00495164 0)
(7.32983 0.00457134 0)
(7.33037 0.00413742 0)
(7.33103 0.00366048 0)
(7.3318 0.00314835 0)
(7.33265 0.00260665 0)
(7.33357 0.00203937 0)
(7.33455 0.00144927 0)
(7.33558 0.000838138 0)
(7.33663 0.000207121 0)
(7.33771 -0.000443163 0)
(7.3388 -0.00111243 0)
(7.3399 -0.00180067 0)
(7.34099 -0.00250799 0)
(7.34208 -0.00323464 0)
(7.34316 -0.00398085 0)
(7.34422 -0.00474688 0)
(7.34526 -0.00553293 0)
(7.34628 -0.00633916 0)
(7.34727 -0.00716563 0)
(7.34823 -0.00801239 0)
(7.34915 -0.00887949 0)
(7.35005 -0.00976716 0)
(7.33297 0.000837168 0)
(7.33247 0.00252928 0)
(7.33152 0.00394887 0)
(7.33036 0.00497798 0)
(7.3292 0.00563333 0)
(7.32815 0.00596487 0)
(7.3273 0.00603254 0)
(7.32669 0.00589673 0)
(7.32631 0.00560885 0)
(7.32617 0.00520934 0)
(7.32625 0.00472924 0)
(7.32653 0.00419164 0)
(7.32698 0.00361314 0)
(7.32757 0.00300542 0)
(7.3283 0.00237643 0)
(7.32912 0.00173143 0)
(7.33003 0.00107368 0)
(7.331 0.000405092 0)
(7.33202 -0.000273457 0)
(7.33309 -0.000961712 0)
(7.33417 -0.00165991 0)
(7.33528 -0.00236853 0)
(7.33639 -0.00308825 0)
(7.3375 -0.00381981 0)
(7.33861 -0.00456397 0)
(7.3397 -0.00532144 0)
(7.34078 -0.00609289 0)
(7.34183 -0.00687885 0)
(7.34286 -0.00767981 0)
(7.34387 -0.00849611 0)
(7.34484 -0.00932803 0)
(7.34577 -0.0101758 0)
(7.34667 -0.01104 0)
(7.33294 0.00108902 0)
(7.33211 0.00325404 0)
(7.33057 0.00496826 0)
(7.32876 0.00610649 0)
(7.32698 0.00673168 0)
(7.3254 0.00693466 0)
(7.32411 0.00681282 0)
(7.32315 0.00645738 0)
(7.32251 0.00594056 0)
(7.32218 0.00531609 0)
(7.32213 0.00462327 0)
(7.32232 0.0038898 0)
(7.32273 0.00313435 0)
(7.3233 0.00236897 0)
(7.32403 0.00160107 0)
(7.32487 0.000834827 0)
(7.32581 7.22021e-05 0)
(7.32682 -0.000686348 0)
(7.32789 -0.00144128 0)
(7.329 -0.00219367 0)
(7.33014 -0.00294488 0)
(7.3313 -0.00369651 0)
(7.33246 -0.00445009 0)
(7.33363 -0.00520723 0)
(7.33478 -0.00596933 0)
(7.33592 -0.00673777 0)
(7.33704 -0.00751369 0)
(7.33814 -0.00829814 0)
(7.33921 -0.00909195 0)
(7.34024 -0.00989588 0)
(7.34125 -0.0107105 0)
(7.34222 -0.0115363 0)
(7.34314 -0.012374 0)
(7.33289 0.00153832 0)
(7.33145 0.00447279 0)
(7.32898 0.00660873 0)
(7.32621 0.00786876 0)
(7.32361 0.00841128 0)
(7.32136 0.00839653 0)
(7.31957 0.00798411 0)
(7.31826 0.00731209 0)
(7.31739 0.0064803 0)
(7.31693 0.00555774 0)
(7.31682 0.00459196 0)
(7.31701 0.00361411 0)
(7.31745 0.00264319 0)
(7.31809 0.00168992 0)
(7.31889 0.000759629 0)
(7.31983 -0.000145886 0)
(7.32087 -0.00102706 0)
(7.32198 -0.00188571 0)
(7.32316 -0.00272435 0)
(7.32437 -0.0035459 0)
(7.32562 -0.00435335 0)
(7.32687 -0.00514965 0)
(7.32813 -0.0059376 0)
(7.32939 -0.00671977 0)
(7.33063 -0.00749851 0)
(7.33185 -0.00827591 0)
(7.33306 -0.00905381 0)
(7.33423 -0.0098338 0)
(7.33537 -0.0106172 0)
(7.33647 -0.0114053 0)
(7.33754 -0.0121988 0)
(7.33856 -0.0129989 0)
(7.33955 -0.0138062 0)
(7.33277 0.00237449 0)
(7.33022 0.00655401 0)
(7.32624 0.00923169 0)
(7.3221 0.0105482 0)
(7.31842 0.010859 0)
(7.31541 0.0104448 0)
(7.31313 0.00956697 0)
(7.31155 0.00842979 0)
(7.31057 0.00716335 0)
(7.31011 0.00584919 0)
(7.31008 0.00453917 0)
(7.31039 0.00326355 0)
(7.31099 0.00203758 0)
(7.3118 0.000867404 0)
(7.3128 -0.000246289 0)
(7.31392 -0.00130598 0)
(7.31515 -0.00231597 0)
(7.31646 -0.00328139 0)
(7.31782 -0.00420767 0)
(7.31921 -0.00510015 0)
(7.32062 -0.00596391 0)
(7.32204 -0.00680363 0)
(7.32346 -0.00762359 0)
(7.32486 -0.0084276 0)
(7.32625 -0.00921908 0)
(7.3276 -0.010001 0)
(7.32893 -0.010776 0)
(7.33022 -0.0115462 0)
(7.33147 -0.0123138 0)
(7.33268 -0.0130802 0)
(7.33384 -0.0138468 0)
(7.33496 -0.014615 0)
(7.33603 -0.015386 0)
(7.33248 0.00396223 0)
(7.32783 0.0101557 0)
(7.32139 0.0134324 0)
(7.31537 0.0145612 0)
(7.31044 0.0142914 0)
(7.3067 0.0131276 0)
(7.30409 0.0114986 0)
(7.30245 0.0096852 0)
(7.30159 0.00783333 0)
(7.30136 0.00602219 0)
(7.30161 0.00429666 0)
(7.30225 0.00267658 0)
(7.30318 0.00116603 0)
(7.30434 -0.00023884 0)
(7.30567 -0.00154555 0)
(7.30713 -0.00276343 0)
(7.30867 -0.00390237 0)
(7.31029 -0.00497213 0)
(7.31194 -0.00598186 0)
(7.31361 -0.00693996 0)
(7.31528 -0.00785397 0)
(7.31695 -0.00873064 0)
(7.3186 -0.00957591 0)
(7.32023 -0.010395 0)
(7.32182 -0.0111924 0)
(7.32337 -0.0119722 0)
(7.32488 -0.0127377 0)
(7.32635 -0.0134919 0)
(7.32776 -0.0142372 0)
(7.32912 -0.0149758 0)
(7.33043 -0.0157096 0)
(7.33169 -0.0164401 0)
(7.33289 -0.0171688 0)
(7.33192 0.00692332 0)
(7.32311 0.0161358 0)
(7.31274 0.0198081 0)
(7.30432 0.0202545 0)
(7.29817 0.0188164 0)
(7.29399 0.0163576 0)
(7.29147 0.0135728 0)
(7.29022 0.0108082 0)
(7.28988 0.00818101 0)
(7.29022 0.00574031 0)
(7.29109 0.00350881 0)
(7.29235 0.00148473 0)
(7.29389 -0.000347598 0)
(7.29563 -0.00200796 0)
(7.29752 -0.0035163 0)
(7.29951 -0.00489175 0)
(7.30156 -0.00615213 0)
(7.30365 -0.00731348 0)
(7.30575 -0.00839004 0)
(7.30784 -0.00939425 0)
(7.30991 -0.010337 0)
(7.31196 -0.0112276 0)
(7.31396 -0.0120742 0)
(7.31591 -0.0128838 0)
(7.31782 -0.0136625 0)
(7.31966 -0.0144153 0)
(7.32145 -0.0151467 0)
(7.32317 -0.0158605 0)
(7.32482 -0.0165599 0)
(7.32641 -0.0172477 0)
(7.32794 -0.0179264 0)
(7.32939 -0.0185981 0)
(7.33078 -0.019265 0)
(7.33066 0.0138159 0)
(7.31338 0.0263445 0)
(7.29717 0.0284462 0)
(7.28625 0.0270592 0)
(7.27934 0.0238816 0)
(7.27544 0.0198551 0)
(7.27381 0.0158604 0)
(7.27367 0.0121992 0)
(7.2745 0.00887274 0)
(7.27603 0.00586379 0)
(7.27805 0.00316273 0)
(7.28042 0.000744063 0)
(7.28302 -0.00142464 0)
(7.28577 -0.00337364 0)
(7.28861 -0.00512973 0)
(7.29149 -0.00671722 0)
(7.29438 -0.0081583 0)
(7.29725 -0.00947263 0)
(7.30008 -0.0106775 0)
(7.30286 -0.0117879 0)
(7.30557 -0.0128171 0)
(7.30821 -0.0137764 0)
(7.31077 -0.0146756 0)
(7.31325 -0.0155234 0)
(7.31564 -0.016327 0)
(7.31793 -0.0170929 0)
(7.32014 -0.0178266 0)
(7.32226 -0.0185327 0)
(7.32428 -0.0192153 0)
(7.32622 -0.0198777 0)
(7.32806 -0.0205228 0)
(7.32982 -0.0211526 0)
(7.33148 -0.0217691 0)
(7.32447 0.0352528 0)
(7.28905 0.0484148 0)
(7.26649 0.039587 0)
(7.25598 0.0291981 0)
(7.2507 0.0198766 0)
(7.2489 0.0120319 0)
(7.24973 0.00591056 0)
(7.25205 0.00117313 0)
(7.25519 -0.00258566 0)
(7.25891 -0.00560189 0)
(7.26304 -0.00802898 0)
(7.26741 -0.010006 0)
(7.2719 -0.0116454 0)
(7.27643 -0.013028 0)
(7.28094 -0.0142117 0)
(7.28539 -0.0152402 0)
(7.28974 -0.016147 0)
(7.29397 -0.016958 0)
(7.29806 -0.0176931 0)
(7.30201 -0.0183676 0)
(7.30582 -0.0189936 0)
(7.30947 -0.0195808 0)
(7.31296 -0.0201366 0)
(7.31631 -0.0206671 0)
(7.3195 -0.0211772 0)
(7.32255 -0.0216709 0)
(7.32545 -0.0221514 0)
(7.3282 -0.0226214 0)
(7.33082 -0.0230831 0)
(7.33331 -0.0235388 0)
(7.33567 -0.0239904 0)
(7.33791 -0.0244401 0)
(7.34003 -0.0248909 0)
(7.29541 0.0831414 0)
(7.21833 0.128044 0)
(7.18707 0.129005 0)
(7.18632 0.113962 0)
(7.19295 0.0941328 0)
(7.20193 0.0760891 0)
(7.21231 0.0610597 0)
(7.22297 0.0481492 0)
(7.2335 0.0368352 0)
(7.24384 0.0270197 0)
(7.25389 0.0186054 0)
(7.26354 0.0114351 0)
(7.27271 0.00533952 0)
(7.28139 0.000167767 0)
(7.2896 -0.00421498 0)
(7.29732 -0.00793027 0)
(7.30459 -0.0110849 0)
(7.31143 -0.0137701 0)
(7.31785 -0.0160626 0)
(7.32387 -0.0180268 0)
(7.32953 -0.0197166 0)
(7.33484 -0.0211772 0)
(7.33982 -0.022446 0)
(7.3445 -0.0235542 0)
(7.34888 -0.024528 0)
(7.353 -0.0253889 0)
(7.35685 -0.0261551 0)
(7.36046 -0.0268416 0)
(7.36385 -0.0274609 0)
(7.36701 -0.0280232 0)
(7.36996 -0.0285369 0)
(7.37272 -0.0290081 0)
(7.37528 -0.0294439 0)
(7.32717 -0.156814 0)
(7.19692 -0.284093 0)
(7.13361 -0.280647 0)
(7.11314 -0.247167 0)
(7.11508 -0.214556 0)
(7.13554 -0.184255 0)
(7.16564 -0.157031 0)
(7.19803 -0.134037 0)
(7.22997 -0.115224 0)
(7.26032 -0.0998993 0)
(7.28836 -0.0873965 0)
(7.31374 -0.0772175 0)
(7.33647 -0.0689534 0)
(7.35673 -0.0622466 0)
(7.37472 -0.0567956 0)
(7.39067 -0.0523574 0)
(7.40478 -0.0487383 0)
(7.41726 -0.0457824 0)
(7.42829 -0.0433644 0)
(7.43804 -0.0413834 0)
(7.44666 -0.0397584 0)
(7.45426 -0.0384247 0)
(7.46097 -0.0373296 0)
(7.46687 -0.0364311 0)
(7.47207 -0.0356948 0)
(7.47663 -0.0350931 0)
(7.48061 -0.0346032 0)
(7.48409 -0.0342069 0)
(7.4871 -0.0338889 0)
(7.4897 -0.0336367 0)
(7.49194 -0.0334393 0)
(7.49383 -0.0332882 0)
(7.49546 -0.0331717 0)
(7.33086 1.21499 0)
(7.63822 1.23053 0)
(7.81865 0.920168 0)
(7.8759 0.647915 0)
(7.88919 0.449902 0)
(7.88325 0.310866 0)
(7.8619 0.213001 0)
(7.83006 0.143228 0)