/*--------------------------------*- C++ -*----------------------------------*\
| =========                 |                                                 |
| \\      /  F ield         | OpenFOAM: The Open Source CFD Toolbox           |
|  \\    /   O peration     | Version:  4.1                                   |
|   \\  /    A nd           | Web:      www.OpenFOAM.org                      |
|    \\/     M anipulation  |                                                 |
\*---------------------------------------------------------------------------*/
FoamFile
{
    version     2.0;
    format      ascii;
    class       volScalarField;
    location    "1900";
    object      p;
}
// * * * * * * * * * * * * * * * * * * * * * * * * * * * * * * * * * * * * * //

dimensions      [0 2 -2 0 0 0 0];

internalField   nonuniform List<scalar> 
6820
(
-6.86256
-7.0894
-7.16631
-7.17834
-7.1977
-7.21977
-7.23633
-7.24918
-7.26032
-7.26989
-7.27776
-7.28407
-7.28891
-7.2923
-7.2942
-7.29454
-7.29322
-7.29009
-7.28494
-7.27752
-7.26749
-7.2544
-7.23765
-7.21642
-7.18955
-7.15536
-7.11109
-7.05275
-6.97076
-6.85625
-6.64664
-6.39412
-5.33926
-6.93454
-7.07556
-7.13917
-7.15952
-7.18332
-7.20729
-7.22525
-7.2391
-7.2509
-7.26093
-7.26919
-7.27582
-7.28093
-7.28455
-7.28665
-7.28716
-7.28597
-7.28296
-7.27792
-7.27059
-7.26065
-7.24767
-7.23107
-7.2101
-7.18369
-7.15041
-7.10802
-7.05378
-6.98176
-6.89037
-6.7582
-6.63529
-6.54827
-6.99195
-7.07999
-7.14011
-7.1651
-7.1875
-7.20974
-7.22723
-7.24093
-7.25258
-7.26252
-7.27075
-7.27737
-7.28251
-7.28618
-7.28835
-7.28897
-7.28792
-7.28509
-7.28027
-7.27325
-7.26371
-7.25125
-7.23538
-7.21542
-7.1905
-7.15947
-7.12075
-7.0727
-7.01245
-6.94189
-6.85736
-6.80509
-6.79102
-7.03071
-7.08909
-7.1433
-7.16969
-7.19056
-7.21141
-7.22855
-7.24214
-7.25365
-7.2635
-7.27169
-7.27832
-7.28349
-7.28723
-7.2895
-7.29024
-7.28938
-7.28678
-7.28228
-7.27566
-7.26666
-7.25493
-7.24004
-7.22148
-7.19858
-7.17056
-7.13652
-7.09587
-7.04804
-6.99657
-6.94455
-6.92096
-6.93047
-7.06185
-7.10167
-7.14756
-7.17381
-7.19371
-7.21331
-7.22999
-7.24341
-7.25478
-7.26453
-7.27271
-7.27937
-7.28461
-7.28845
-7.29087
-7.29182
-7.29122
-7.28896
-7.2849
-7.27884
-7.27057
-7.25982
-7.24625
-7.2295
-7.20913
-7.18476
-7.15608
-7.12334
-7.08744
-7.05244
-7.02367
-7.01959
-7.0488
-7.08798
-7.11548
-7.15324
-7.17851
-7.19754
-7.21585
-7.2319
-7.24509
-7.25628
-7.26593
-7.27408
-7.28078
-7.2861
-7.29009
-7.2927
-7.29391
-7.29365
-7.29182
-7.2883
-7.28294
-7.27558
-7.26602
-7.25403
-7.23939
-7.22193
-7.20156
-7.17848
-7.15348
-7.12824
-7.10671
-7.09433
-7.10284
-7.13941
-7.11014
-7.12944
-7.16016
-7.18378
-7.20187
-7.21893
-7.23425
-7.24714
-7.25814
-7.26766
-7.27578
-7.28252
-7.28796
-7.29211
-7.29496
-7.29648
-7.29662
-7.2953
-7.29243
-7.2879
-7.2816
-7.2734
-7.2632
-7.25091
-7.23655
-7.22032
-7.20273
-7.1849
-7.16876
-7.15782
-7.15671
-7.17275
-7.21081
-7.12926
-7.14311
-7.16799
-7.18952
-7.20658
-7.22247
-7.23702
-7.24954
-7.26032
-7.26972
-7.27781
-7.28461
-7.29017
-7.29452
-7.29765
-7.29953
-7.30013
-7.2994
-7.29727
-7.29368
-7.28856
-7.28187
-7.27359
-7.26377
-7.25259
-7.24043
-7.228
-7.21653
-7.20794
-7.20511
-7.21167
-7.23212
-7.26955
-7.14603
-7.15624
-7.17637
-7.19567
-7.21164
-7.22644
-7.2402
-7.2523
-7.26285
-7.27211
-7.28017
-7.28703
-7.29274
-7.29731
-7.30076
-7.30305
-7.30418
-7.3041
-7.30279
-7.30022
-7.29639
-7.2913
-7.28502
-7.27771
-7.26966
-7.26136
-7.25362
-7.24764
-7.24515
-7.24843
-7.26015
-7.28309
-7.31903
-7.16099
-7.16872
-7.18507
-7.20216
-7.21699
-7.23078
-7.24376
-7.25541
-7.26571
-7.27483
-7.28286
-7.2898
-7.29568
-7.3005
-7.3043
-7.30704
-7.30874
-7.30938
-7.30895
-7.30748
-7.30498
-7.30154
-7.29729
-7.29245
-7.2874
-7.28267
-7.27908
-7.27773
-7.28007
-7.28788
-7.30304
-7.32722
-7.3614
-7.1745
-7.18049
-7.19387
-7.20891
-7.22259
-7.23544
-7.24766
-7.25885
-7.26889
-7.27789
-7.28589
-7.29292
-7.29898
-7.30408
-7.30825
-7.31149
-7.3138
-7.3152
-7.31571
-7.31537
-7.31425
-7.31247
-7.31022
-7.30776
-7.3055
-7.30399
-7.30399
-7.30647
-7.31261
-7.32373
-7.34111
-7.36576
-7.39814
-7.18682
-7.19159
-7.20265
-7.21583
-7.22839
-7.24036
-7.25187
-7.2626
-7.27238
-7.28125
-7.28925
-7.29638
-7.30263
-7.30804
-7.31262
-7.31638
-7.31934
-7.32153
-7.323
-7.32382
-7.32408
-7.32394
-7.32362
-7.3234
-7.3237
-7.32504
-7.32811
-7.33371
-7.34278
-7.35627
-7.37505
-7.39968
-7.43033
-7.19816
-7.20205
-7.21129
-7.22285
-7.23435
-7.24549
-7.25635
-7.26664
-7.27617
-7.28493
-7.29292
-7.30016
-7.30664
-7.31237
-7.31738
-7.32169
-7.32532
-7.32833
-7.33078
-7.33275
-7.33438
-7.33583
-7.33732
-7.33918
-7.34178
-7.34561
-7.35124
-7.35936
-7.37066
-7.38583
-7.40543
-7.42975
-7.4588
-7.20868
-7.21191
-7.21972
-7.2299
-7.24041
-7.25081
-7.26107
-7.27094
-7.28023
-7.28889
-7.2969
-7.30427
-7.31098
-7.31705
-7.32251
-7.32738
-7.33171
-7.33554
-7.33896
-7.34208
-7.34503
-7.34799
-7.35119
-7.35493
-7.35957
-7.36553
-7.3733
-7.38341
-7.3964
-7.41272
-7.43273
-7.45657
-7.48415
-7.21848
-7.22121
-7.22791
-7.23692
-7.24654
-7.25626
-7.26597
-7.27547
-7.28454
-7.29311
-7.30116
-7.30867
-7.31563
-7.32206
-7.32798
-7.33343
-7.33845
-7.34311
-7.3475
-7.35172
-7.35593
-7.36031
-7.36508
-7.37051
-7.37693
-7.3847
-7.39423
-7.4059
-7.42013
-7.43722
-7.45738
-7.48063
-7.50686
-7.22764
-7.23
-7.23582
-7.24385
-7.25269
-7.2618
-7.27103
-7.28019
-7.28907
-7.29757
-7.30567
-7.31334
-7.32057
-7.32737
-7.33376
-7.33979
-7.3455
-7.35097
-7.3563
-7.36159
-7.36699
-7.37268
-7.37887
-7.38581
-7.39377
-7.40306
-7.41399
-7.42689
-7.44201
-7.45958
-7.47969
-7.50232
-7.52733
-7.23622
-7.23829
-7.24343
-7.25066
-7.25881
-7.26739
-7.2762
-7.28506
-7.29378
-7.30225
-7.31041
-7.31826
-7.32576
-7.33294
-7.33981
-7.34641
-7.35281
-7.35908
-7.3653
-7.3716
-7.37811
-7.385
-7.39247
-7.40072
-7.41
-7.42055
-7.43262
-7.44644
-7.4622
-7.48003
-7.49996
-7.52195
-7.54585
-7.24428
-7.24613
-7.25072
-7.25729
-7.26487
-7.27298
-7.28144
-7.29006
-7.29865
-7.3071
-7.31535
-7.32339
-7.33118
-7.33873
-7.34608
-7.35326
-7.36033
-7.36736
-7.37443
-7.38168
-7.38921
-7.39719
-7.40578
-7.41518
-7.42557
-7.43715
-7.45012
-7.46463
-7.48082
-7.49875
-7.51844
-7.53979
-7.56267
-7.25184
-7.25351
-7.25768
-7.26373
-7.27082
-7.27855
-7.28671
-7.29513
-7.30363
-7.31209
-7.32046
-7.32869
-7.33678
-7.34472
-7.35254
-7.36028
-7.36799
-7.37575
-7.38363
-7.39174
-7.40021
-7.40916
-7.41875
-7.42912
-7.44044
-7.45287
-7.46653
-7.48155
-7.49801
-7.51593
-7.5353
-7.55603
-7.578
-7.25891
-7.26045
-7.26428
-7.26992
-7.27663
-7.28404
-7.29197
-7.30024
-7.30868
-7.31718
-7.32568
-7.33413
-7.34252
-7.35085
-7.35914
-7.36742
-7.37575
-7.38419
-7.39282
-7.40173
-7.41104
-7.42086
-7.4313
-7.44251
-7.4546
-7.4677
-7.4819
-7.49728
-7.51388
-7.53171
-7.55074
-7.57087
-7.59201
-7.2655
-7.26694
-7.27053
-7.27584
-7.28224
-7.28941
-7.29717
-7.30533
-7.31376
-7.32233
-7.33098
-7.33966
-7.34836
-7.35708
-7.36582
-7.37462
-7.38354
-7.39262
-7.40194
-7.41159
-7.42165
-7.43222
-7.44341
-7.45532
-7.46804
-7.48167
-7.49626
-7.51188
-7.52854
-7.54622
-7.56488
-7.58445
-7.60482
-7.27161
-7.27297
-7.27638
-7.28145
-7.28763
-7.29462
-7.30226
-7.31038
-7.31883
-7.3275
-7.33632
-7.34525
-7.35426
-7.36335
-7.37253
-7.38184
-7.3913
-7.40098
-7.41094
-7.42124
-7.43197
-7.4432
-7.45502
-7.46752
-7.48075
-7.49479
-7.50967
-7.52543
-7.54207
-7.55957
-7.57786
-7.59689
-7.61656
-7.27723
-7.27854
-7.28181
-7.28672
-7.29275
-7.29963
-7.3072
-7.31532
-7.32383
-7.33263
-7.34164
-7.35083
-7.36015
-7.36962
-7.37923
-7.38901
-7.39899
-7.40922
-7.41976
-7.43065
-7.44196
-7.45377
-7.46612
-7.4791
-7.49274
-7.50709
-7.52217
-7.53801
-7.55457
-7.57185
-7.58978
-7.6083
-7.62733
-7.28232
-7.28359
-7.28679
-7.2916
-7.29754
-7.30438
-7.31195
-7.32011
-7.32872
-7.33767
-7.3469
-7.35636
-7.366
-7.37584
-7.38586
-7.39609
-7.40656
-7.41729
-7.42834
-7.43976
-7.45159
-7.46388
-7.47669
-7.49005
-7.50401
-7.51859
-7.53381
-7.54965
-7.56611
-7.58315
-7.60072
-7.61876
-7.6372
-7.28685
-7.28811
-7.29127
-7.29604
-7.30197
-7.30882
-7.31644
-7.3247
-7.33345
-7.34259
-7.35205
-7.36179
-7.37176
-7.38195
-7.39237
-7.40303
-7.41394
-7.42514
-7.43666
-7.44853
-7.46081
-7.47352
-7.4867
-7.50038
-7.51459
-7.52933
-7.54462
-7.56043
-7.57675
-7.59355
-7.61077
-7.62836
-7.64626
-7.29077
-7.29204
-7.29521
-7.3
-7.30598
-7.3129
-7.32063
-7.32903
-7.33796
-7.34732
-7.35704
-7.36707
-7.37736
-7.38791
-7.39871
-7.40977
-7.4211
-7.43271
-7.44465
-7.45694
-7.46959
-7.48266
-7.49615
-7.51008
-7.52447
-7.53933
-7.55464
-7.57039
-7.58655
-7.6031
-7.61999
-7.63716
-7.65456
-7.29402
-7.29531
-7.29853
-7.30342
-7.3095
-7.31656
-7.32446
-7.33305
-7.3422
-7.35182
-7.36182
-7.37214
-7.38277
-7.39367
-7.40484
-7.41627
-7.42798
-7.43998
-7.45229
-7.46493
-7.47792
-7.49128
-7.50502
-7.51915
-7.53368
-7.5486
-7.5639
-7.57957
-7.59557
-7.61187
-7.62843
-7.64521
-7.66216
-7.29652
-7.29785
-7.30118
-7.30621
-7.31248
-7.31975
-7.32787
-7.33671
-7.34613
-7.35603
-7.36633
-7.37697
-7.38793
-7.39918
-7.41069
-7.42248
-7.43455
-7.4469
-7.45955
-7.4725
-7.48577
-7.49938
-7.51332
-7.52761
-7.54223
-7.55718
-7.57245
-7.58801
-7.60384
-7.6199
-7.63616
-7.65257
-7.6691
-7.29817
-7.29957
-7.30305
-7.30831
-7.31484
-7.32239
-7.3308
-7.33995
-7.34968
-7.3599
-7.37053
-7.38151
-7.3928
-7.40439
-7.41625
-7.42837
-7.44077
-7.45344
-7.46638
-7.47961
-7.49313
-7.50694
-7.52104
-7.53544
-7.55013
-7.56508
-7.5803
-7.59574
-7.61139
-7.62722
-7.6432
-7.65927
-7.67542
-7.29885
-7.30034
-7.30404
-7.30962
-7.31651
-7.32442
-7.3332
-7.34271
-7.35281
-7.36339
-7.37437
-7.3857
-7.39734
-7.40926
-7.42145
-7.4339
-7.4466
-7.45956
-7.47277
-7.48624
-7.49996
-7.51395
-7.52819
-7.54267
-7.55739
-7.57233
-7.58748
-7.60281
-7.61829
-7.6339
-7.6496
-7.66537
-7.68116
-7.29841
-7.30002
-7.30403
-7.31004
-7.3174
-7.32577
-7.33501
-7.34495
-7.35547
-7.36646
-7.37782
-7.38952
-7.40151
-7.41377
-7.42628
-7.43903
-7.45202
-7.46524
-7.47869
-7.49237
-7.50627
-7.5204
-7.53474
-7.54928
-7.56402
-7.57893
-7.594
-7.60921
-7.62452
-7.63992
-7.65537
-7.67085
-7.68633
-7.29663
-7.29843
-7.30287
-7.30947
-7.31744
-7.32639
-7.33616
-7.34663
-7.35763
-7.36906
-7.38083
-7.39291
-7.40526
-7.41786
-7.43069
-7.44373
-7.45699
-7.47046
-7.48413
-7.49799
-7.51205
-7.5263
-7.54073
-7.55532
-7.57007
-7.58495
-7.59994
-7.61503
-7.63019
-7.6454
-7.66063
-7.67585
-7.69103
-7.29325
-7.29531
-7.30037
-7.30778
-7.31654
-7.32619
-7.33663
-7.34772
-7.35928
-7.3712
-7.38343
-7.39591
-7.40863
-7.42156
-7.43468
-7.44799
-7.46149
-7.47517
-7.48902
-7.50304
-7.51723
-7.53157
-7.54605
-7.56067
-7.5754
-7.59023
-7.60514
-7.62012
-7.63513
-7.65015
-7.66517
-7.68016
-7.69509
-7.28791
-7.29035
-7.29632
-7.30487
-7.31464
-7.32515
-7.33634
-7.34811
-7.36029
-7.37275
-7.38545
-7.39837
-7.41148
-7.42477
-7.43822
-7.45182
-7.46557
-7.47948
-7.49353
-7.50771
-7.52203
-7.53646
-7.55101
-7.56566
-7.58039
-7.59518
-7.61003
-7.6249
-7.63978
-7.65465
-7.66948
-7.68425
-7.69894
-7.28007
-7.28311
-7.29046
-7.3006
-7.31173
-7.32338
-7.33558
-7.34821
-7.36106
-7.37407
-7.38722
-7.40051
-7.41393
-7.42748
-7.44116
-7.45496
-7.46888
-7.48293
-7.4971
-7.51139
-7.52578
-7.54027
-7.55484
-7.56949
-7.58419
-7.59894
-7.61371
-7.62849
-7.64325
-7.65798
-7.67265
-7.68726
-7.70178
-7.26891
-7.27306
-7.28273
-7.2949
-7.30728
-7.31997
-7.33329
-7.34698
-7.36074
-7.37452
-7.38836
-7.40226
-7.4162
-7.43019
-7.44424
-7.45836
-7.47255
-7.48682
-7.50117
-7.51559
-7.53009
-7.54465
-7.55926
-7.57392
-7.58861
-7.60331
-7.61801
-7.63269
-7.64734
-7.66192
-7.67643
-7.69084
-7.70512
-7.253
-7.25877
-7.2734
-7.28976
-7.30427
-7.31816
-7.33237
-7.34663
-7.36069
-7.37465
-7.38862
-7.40263
-7.41667
-7.43075
-7.44491
-7.45913
-7.47343
-7.48781
-7.50226
-7.51678
-7.53135
-7.54598
-7.56065
-7.57535
-7.59006
-7.60476
-7.61945
-7.6341
-7.6487
-7.66324
-7.67769
-7.69205
-7.70631
-7.23152
-7.23822
-7.2567
-7.27642
-7.29416
-7.31154
-7.32883
-7.34545
-7.36133
-7.37672
-7.3918
-7.40662
-7.42125
-7.43576
-7.4502
-7.46461
-7.47902
-7.49345
-7.5079
-7.52239
-7.53691
-7.55146
-7.56603
-7.58062
-7.5952
-7.60977
-7.62431
-7.63881
-7.65324
-7.66758
-7.68182
-7.69593
-7.70987
-7.19845
-7.23339
-7.26243
-7.27801
-7.29146
-7.3072
-7.32343
-7.33893
-7.35402
-7.36907
-7.38412
-7.3991
-7.414
-7.42887
-7.44373
-7.45857
-7.47342
-7.48827
-7.50312
-7.51799
-7.53286
-7.54773
-7.56259
-7.57744
-7.59226
-7.60704
-7.62177
-7.63643
-7.65101
-7.6655
-7.6799
-7.69418
-7.70836
-7.0572
-7.16456
-7.23808
-7.26993
-7.29258
-7.31628
-7.3379
-7.35611
-7.37229
-7.38761
-7.4024
-7.41677
-7.43087
-7.44485
-7.45878
-7.47272
-7.4867
-7.50074
-7.51484
-7.529
-7.54322
-7.55749
-7.5718
-7.58613
-7.60047
-7.6148
-7.6291
-7.64336
-7.65756
-7.67168
-7.68571
-7.69961
-7.71339
-6.50005
-6.55484
-7.43742
-7.91222
-7.96654
-7.98847
-8.03749
-8.07783
-8.11008
-8.14235
-8.17538
-8.20846
-8.24172
-8.27536
-8.30933
-8.34353
-8.37786
-8.41219
-8.44639
-8.48034
-8.51389
-8.54691
-8.57928
-8.61087
-8.64155
-8.67122
-8.69976
-8.72707
-8.75304
-8.77759
-8.80061
-8.82202
-8.84173
-8.85966
-8.87573
-8.88985
-8.90194
-8.91191
-8.91968
-8.92516
-8.92826
-8.92887
-8.9269
-8.92222
-8.91472
-8.90427
-8.89072
-8.87392
-8.8537
-8.82988
-8.80228
-8.77067
-8.73484
-8.69456
-8.64959
-8.59967
-8.54454
-8.48395
-8.41762
-8.34528
-8.26666
-8.18147
-8.08941
-7.99017
-7.88343
-7.76886
-7.64611
-7.51487
-7.37481
-7.22566
-7.06717
-6.89915
-6.72146
-6.53405
-6.33694
-6.13024
-5.91418
-5.68909
-5.45541
-5.21371
-4.96466
-4.70906
-4.4478
-4.18187
-3.91233
-3.64031
-3.36695
-3.09345
-2.82095
-2.55057
-2.28336
-2.0203
-1.76213
-1.50968
-1.26294
-1.02311
-0.787345
-0.561017
-0.328314
-0.120568
-7.07029
-7.22807
-7.5668
-7.83545
-7.9089
-7.95162
-8.00779
-8.05439
-8.09136
-8.12662
-8.16179
-8.19648
-8.23092
-8.26543
-8.30004
-8.33471
-8.36937
-8.40393
-8.43828
-8.47231
-8.5059
-8.53893
-8.57127
-8.60281
-8.63344
-8.66303
-8.69148
-8.7187
-8.74458
-8.76902
-8.79194
-8.81324
-8.83285
-8.85067
-8.86663
-8.88063
-8.8926
-8.90245
-8.9101
-8.91544
-8.9184
-8.91886
-8.91673
-8.91188
-8.90421
-8.89356
-8.87981
-8.8628
-8.84236
-8.81831
-8.79046
-8.7586
-8.72251
-8.68197
-8.63672
-8.58653
-8.53113
-8.47026
-8.40366
-8.33106
-8.25218
-8.16673
-8.07442
-7.97495
-7.86799
-7.75323
-7.63032
-7.49895
-7.35882
-7.20965
-7.05121
-6.88332
-6.70584
-6.51873
-6.32201
-6.11581
-5.90034
-5.67595
-5.44307
-5.20226
-4.9542
-4.69965
-4.43951
-4.17475
-3.9064
-3.63558
-3.36341
-3.09105
-2.81962
-2.55022
-2.28387
-2.02152
-1.76389
-1.51181
-1.26514
-1.0253
-0.788803
-0.562751
-0.326324
-0.125933
-7.07986
-7.263
-7.49346
-7.74331
-7.86294
-7.92369
-7.98246
-8.03335
-8.0745
-8.11232
-8.14926
-8.1853
-8.22072
-8.25592
-8.29101
-8.32601
-8.36087
-8.39554
-8.42994
-8.46397
-8.49751
-8.53046
-8.56271
-8.59414
-8.62463
-8.65409
-8.68241
-8.70949
-8.73523
-8.75954
-8.78232
-8.80349
-8.82296
-8.84065
-8.85646
-8.87033
-8.88216
-8.89186
-8.89936
-8.90455
-8.90735
-8.90764
-8.90533
-8.90031
-8.89243
-8.88158
-8.86762
-8.85038
-8.8297
-8.8054
-8.77729
-8.74516
-8.7088
-8.66798
-8.62245
-8.57197
-8.51628
-8.45513
-8.38826
-8.31538
-8.23623
-8.15053
-8.05798
-7.95827
-7.8511
-7.73615
-7.61309
-7.48162
-7.34144
-7.19229
-7.03393
-6.8662
-6.68897
-6.50221
-6.30593
-6.10029
-5.88548
-5.66186
-5.42984
-5.19
-4.94299
-4.68958
-4.43063
-4.1671
-3.90002
-3.63046
-3.35953
-3.08836
-2.81805
-2.54968
-2.28423
-2.02262
-1.76555
-1.51384
-1.26727
-1.02741
-0.790197
-0.564401
-0.32434
-0.131187
-7.11053
-7.29248
-7.49189
-7.70378
-7.82842
-7.89728
-7.95843
-8.01301
-8.05804
-8.09834
-8.13693
-8.17421
-8.21053
-8.24634
-8.28183
-8.31707
-8.35207
-8.38678
-8.42116
-8.45511
-8.48854
-8.52135
-8.55344
-8.5847
-8.61503
-8.64431
-8.67245
-8.69936
-8.72492
-8.74906
-8.77167
-8.79267
-8.81198
-8.8295
-8.84515
-8.85886
-8.87053
-8.88007
-8.8874
-8.89242
-8.89503
-8.89515
-8.89265
-8.88742
-8.87933
-8.86826
-8.85406
-8.83658
-8.81565
-8.79109
-8.7627
-8.7303
-8.69365
-8.65253
-8.60671
-8.55594
-8.49996
-8.43852
-8.37136
-8.29821
-8.21879
-8.13283
-8.04003
-7.9401
-7.83273
-7.71761
-7.59442
-7.46287
-7.32267
-7.17355
-7.01532
-6.84779
-6.67086
-6.48449
-6.28873
-6.08369
-5.86961
-5.64681
-5.41574
-5.17693
-4.93105
-4.67884
-4.42116
-4.15894
-3.89318
-3.62495
-3.35532
-3.0854
-2.81626
-2.54895
-2.28442
-2.02359
-1.7671
-1.51577
-1.2693
-1.02943
-0.791526
-0.56596
-0.322399
-0.13625
-7.17335
-7.33396
-7.50321
-7.6754
-7.7953
-7.8716
-7.93597
-7.99319
-8.04136
-8.084
-8.12416
-8.16264
-8.19984
-8.23624
-8.27211
-8.30758
-8.34268
-8.3774
-8.41171
-8.44555
-8.47883
-8.51147
-8.54336
-8.57442
-8.60453
-8.6336
-8.66153
-8.68822
-8.71357
-8.73751
-8.75992
-8.78073
-8.79985
-8.81718
-8.83266
-8.84618
-8.85766
-8.86702
-8.87416
-8.879
-8.88142
-8.88133
-8.87862
-8.87318
-8.86487
-8.85356
-8.83912
-8.82138
-8.80018
-8.77534
-8.74668
-8.71398
-8.67703
-8.63561
-8.58949
-8.53841
-8.48213
-8.4204
-8.35295
-8.27952
-8.19984
-8.11362
-8.02059
-7.92044
-7.81289
-7.69761
-7.57432
-7.44271
-7.30251
-7.15347
-6.9954
-6.82812
-6.65154
-6.46562
-6.27041
-6.06605
-5.85275
-5.63086
-5.40079
-5.16309
-4.9184
-4.66747
-4.41112
-4.15027
-3.8859
-3.61906
-3.35078
-3.08215
-2.81423
-2.54802
-2.28445
-2.02442
-1.76853
-1.51759
-1.27124
-1.03136
-0.79279
-0.567419
-0.320546
-0.14104
-7.23335
-7.36818
-7.51211
-7.65619
-7.76923
-7.84942
-7.91566
-7.97424
-8.02467
-8.06932
-8.11092
-8.15049
-8.18851
-8.22548
-8.26172
-8.29739
-8.33257
-8.36728
-8.40151
-8.43521
-8.46832
-8.50075
-8.53242
-8.56324
-8.5931
-8.62193
-8.64962
-8.67607
-8.70119
-8.72489
-8.74708
-8.76767
-8.78657
-8.8037
-8.81897
-8.83229
-8.84357
-8.85273
-8.85967
-8.86429
-8.86651
-8.8662
-8.86327
-8.85759
-8.84905
-8.83749
-8.82279
-8.80478
-8.7833
-8.75818
-8.72922
-8.69621
-8.65896
-8.61723
-8.57079
-8.51941
-8.46283
-8.4008
-8.33306
-8.25935
-8.1794
-8.09294
-7.99968
-7.89933
-7.7916
-7.67619
-7.55281
-7.42118
-7.28102
-7.1321
-6.97422
-6.80723
-6.63105
-6.44563
-6.25104
-6.04741
-5.83496
-5.61403
-5.38504
-5.14851
-4.90509
-4.65549
-4.40053
-4.14112
-3.8782
-3.61279
-3.34592
-3.07864
-2.81196
-2.54689
-2.28431
-2.0251
-1.76983
-1.5193
-1.27308
-1.03319
-0.793993
-0.56877
-0.318823
-0.145482
-7.28686
-7.39953
-7.52306
-7.64638
-7.75053
-7.83074
-7.89752
-7.95664
-8.0085
-8.05471
-8.09747
-8.13795
-8.17668
-8.21415
-8.25071
-8.28656
-8.3218
-8.35648
-8.3906
-8.42414
-8.45704
-8.48924
-8.52066
-8.55121
-8.58081
-8.60936
-8.63678
-8.66296
-8.68782
-8.71126
-8.7332
-8.75355
-8.77221
-8.78911
-8.80415
-8.81724
-8.82831
-8.83724
-8.84396
-8.84836
-8.85035
-8.84981
-8.84664
-8.84072
-8.83191
-8.8201
-8.80512
-8.78683
-8.76506
-8.73964
-8.71037
-8.67705
-8.63948
-8.59744
-8.55068
-8.49899
-8.4421
-8.37977
-8.31174
-8.23775
-8.15754
-8.07084
-7.97736
-7.87683
-7.76894
-7.65342
-7.52998
-7.39835
-7.25826
-7.10949
-6.95185
-6.7852
-6.60946
-6.4246
-6.23068
-6.02784
-5.8163
-5.59639
-5.36853
-5.13324
-4.89114
-4.64294
-4.38944
-4.13152
-3.87011
-3.60618
-3.34076
-3.07486
-2.80947
-2.54556
-2.284
-2.02562
-1.77099
-1.52089
-1.27481
-1.03491
-0.795136
-0.570007
-0.317265
-0.149513
-7.33418
-7.42928
-7.53574
-7.64263
-7.73748
-7.81546
-7.88178
-7.94078
-7.99331
-8.04052
-8.08415
-8.12532
-8.1646
-8.20247
-8.23928
-8.27526
-8.31052
-8.34513
-8.37912
-8.41246
-8.44514
-8.47707
-8.50821
-8.53847
-8.56777
-8.59602
-8.62313
-8.64902
-8.67358
-8.69674
-8.71841
-8.73848
-8.75688
-8.77352
-8.78831
-8.80116
-8.81197
-8.82067
-8.82714
-8.8313
-8.83304
-8.83225
-8.82882
-8.82264
-8.81356
-8.80147
-8.78621
-8.76762
-8.74555
-8.71981
-8.69023
-8.65659
-8.6187
-8.57632
-8.52925
-8.47723
-8.42003
-8.3574
-8.28908
-8.21482
-8.13436
-8.04742
-7.95374
-7.85303
-7.74501
-7.6294
-7.50592
-7.37431
-7.23433
-7.08574
-6.92839
-6.76212
-6.58687
-6.40261
-6.20942
-6.00742
-5.79684
-5.57802
-5.35135
-5.11735
-4.87663
-4.62988
-4.37789
-4.1215
-3.86164
-3.59925
-3.33532
-3.07083
-2.80676
-2.54404
-2.28351
-2.026
-1.77201
-1.52234
-1.27643
-1.03651
-0.796219
-0.571125
-0.315897
-0.153087
-7.37563
-7.45704
-7.54927
-7.64288
-7.72902
-7.80352
-7.86848
-7.92676
-7.97933
-8.02704
-8.07121
-8.11283
-8.1525
-8.19065
-8.22763
-8.26366
-8.29889
-8.3334
-8.36721
-8.40034
-8.43275
-8.46441
-8.49524
-8.52517
-8.55414
-8.58206
-8.60884
-8.6344
-8.65865
-8.68149
-8.70285
-8.72263
-8.74074
-8.7571
-8.7716
-8.78418
-8.79473
-8.80315
-8.80936
-8.81325
-8.81472
-8.81366
-8.80996
-8.80349
-8.79413
-8.78174
-8.76618
-8.74728
-8.72489
-8.69883
-8.66892
-8.63495
-8.59672
-8.55402
-8.50661
-8.45427
-8.39675
-8.33382
-8.26522
-8.19069
-8.10997
-8.02281
-7.92893
-7.82806
-7.71992
-7.60424
-7.48075
-7.3492
-7.20934
-7.06098
-6.90394
-6.73809
-6.56337
-6.37977
-6.18734
-5.98623
-5.77667
-5.55898
-5.33355
-5.10089
-4.8616
-4.61635
-4.36591
-4.11111
-3.85283
-3.59201
-3.3296
-3.06656
-2.80383
-2.54232
-2.28285
-2.02621
-1.77289
-1.52366
-1.27793
-1.038
-0.797245
-0.572121
-0.314741
-0.156171
-7.41193
-7.48271
-7.56323
-7.64595
-7.72422
-7.79458
-7.85748
-7.91457
-7.96667
-8.01443
-8.05882
-8.10067
-8.14055
-8.17885
-8.2159
-8.25193
-8.28708
-8.32143
-8.35505
-8.38793
-8.42005
-8.45139
-8.48189
-8.51148
-8.54009
-8.56765
-8.59408
-8.61928
-8.64318
-8.66569
-8.68671
-8.70616
-8.72396
-8.74
-8.7542
-8.76648
-8.77673
-8.78487
-8.79078
-8.79439
-8.79557
-8.79421
-8.79021
-8.78344
-8.77378
-8.76107
-8.74519
-8.72597
-8.70325
-8.67685
-8.64659
-8.61228
-8.57371
-8.53067
-8.48292
-8.43025
-8.37242
-8.30918
-8.24029
-8.16549
-8.08453
-7.99715
-7.90308
-7.80206
-7.69381
-7.57808
-7.4546
-7.32313
-7.18344
-7.03533
-6.87864
-6.71325
-6.5391
-6.35618
-6.16456
-5.96439
-5.75589
-5.53936
-5.31522
-5.08394
-4.84612
-4.60241
-4.35356
-4.10037
-3.84372
-3.58449
-3.32363
-3.06206
-2.80069
-2.54042
-2.28202
-2.02625
-1.77361
-1.52483
-1.2793
-1.03937
-0.798213
-0.572997
-0.313805
-0.158752
-7.44388
-7.50633
-7.57728
-7.65094
-7.7222
-7.7882
-7.84858
-7.90411
-7.95534
-8.00277
-8.04709
-8.08896
-8.12887
-8.1672
-8.20423
-8.24017
-8.27519
-8.30936
-8.34274
-8.37534
-8.40716
-8.43816
-8.4683
-8.49753
-8.52576
-8.55294
-8.57899
-8.60382
-8.62734
-8.64948
-8.67014
-8.68924
-8.70669
-8.7224
-8.73628
-8.74823
-8.75816
-8.76598
-8.77159
-8.77487
-8.77574
-8.77407
-8.76976
-8.76266
-8.75267
-8.73964
-8.72341
-8.70385
-8.68078
-8.65404
-8.62343
-8.58876
-8.54984
-8.50644
-8.45835
-8.40535
-8.34719
-8.28364
-8.21446
-8.13939
-8.05819
-7.97059
-7.87635
-7.77519
-7.66685
-7.55109
-7.42764
-7.29627
-7.15676
-7.00893
-6.85262
-6.68772
-6.51417
-6.33197
-6.1412
-5.942
-5.73458
-5.51927
-5.29644
-5.06658
-4.83026
-4.58812
-4.34089
-4.08934
-3.83433
-3.57673
-3.31743
-3.05735
-2.79736
-2.53832
-2.28101
-2.02614
-1.77418
-1.52586
-1.28055
-1.04062
-0.799122
-0.573754
-0.313092
-0.16083
-7.47217
-7.52801
-7.59113
-7.65722
-7.72229
-7.78398
-7.84157
-7.89525
-7.94532
-7.99211
-8.03608
-8.07776
-8.11755
-8.15578
-8.19269
-8.22849
-8.26331
-8.29725
-8.33037
-8.36267
-8.39416
-8.4248
-8.45458
-8.48341
-8.51126
-8.53804
-8.56369
-8.58812
-8.61126
-8.63301
-8.65329
-8.67202
-8.6891
-8.70445
-8.71798
-8.72958
-8.73918
-8.74666
-8.75193
-8.75488
-8.75541
-8.75341
-8.74876
-8.74132
-8.73099
-8.7176
-8.70103
-8.68111
-8.65768
-8.63057
-8.59959
-8.56456
-8.52527
-8.48152
-8.43308
-8.37973
-8.32124
-8.25738
-8.18791
-8.11257
-8.03113
-7.94332
-7.8489
-7.74761
-7.6392
-7.52341
-7.40001
-7.26876
-7.12946
-6.98193
-6.82602
-6.66163
-6.48871
-6.30726
-6.11737
-5.91916
-5.71286
-5.49878
-5.2773
-5.04888
-4.81409
-4.57354
-4.32794
-4.07806
-3.82471
-3.56874
-3.31102
-3.05244
-2.79384
-2.53605
-2.27982
-2.02585
-1.77459
-1.52674
-1.28166
-1.04175
-0.79997
-0.574395
-0.312596
-0.162421
-7.49738
-7.54788
-7.60459
-7.66431
-7.72393
-7.78151
-7.83621
-7.88786
-7.93653
-7.98243
-8.02584
-8.06714
-8.10665
-8.14465
-8.18135
-8.21693
-8.25151
-8.28518
-8.318
-8.34997
-8.38111
-8.41139
-8.44078
-8.46922
-8.49666
-8.52304
-8.54827
-8.5723
-8.59502
-8.61637
-8.63626
-8.6546
-8.6713
-8.68628
-8.69943
-8.71067
-8.71991
-8.72703
-8.73195
-8.73455
-8.73473
-8.73237
-8.72736
-8.71958
-8.70888
-8.69513
-8.67819
-8.65789
-8.63409
-8.6066
-8.57525
-8.53984
-8.50018
-8.45606
-8.40726
-8.35356
-8.29474
-8.23057
-8.1608
-8.08519
-8.00351
-7.9155
-7.82091
-7.7195
-7.61102
-7.49522
-7.37187
-7.24076
-7.10168
-6.95447
-6.79898
-6.63512
-6.46285
-6.28218
-6.09317
-5.89598
-5.69083
-5.478
-5.25788
-5.03092
-4.79767
-4.55872
-4.31478
-4.06657
-3.81488
-3.56055
-3.30442
-3.04734
-2.79013
-2.5336
-2.27846
-2.0254
-1.77484
-1.52747
-1.28263
-1.04274
-0.800756
-0.574925
-0.312305
-0.163552
-7.51998
-7.56611
-7.61753
-7.67186
-7.7267
-7.78046
-7.83226
-7.88177
-7.9289
-7.9737
-8.01635
-8.05711
-8.09621
-8.13387
-8.17027
-8.20555
-8.23984
-8.2732
-8.30568
-8.3373
-8.36807
-8.39797
-8.42696
-8.45499
-8.48202
-8.50798
-8.5328
-8.5564
-8.57871
-8.59965
-8.61913
-8.63707
-8.65338
-8.66797
-8.68074
-8.6916
-8.70046
-8.70721
-8.71176
-8.71399
-8.71381
-8.71109
-8.70571
-8.69755
-8.68647
-8.67235
-8.65503
-8.63435
-8.61016
-8.58229
-8.55055
-8.51476
-8.47471
-8.43022
-8.38105
-8.327
-8.26785
-8.20335
-8.13328
-8.05741
-7.97548
-7.88727
-7.79252
-7.69099
-7.58245
-7.46665
-7.34337
-7.21241
-7.07357
-6.92668
-6.77163
-6.60832
-6.43671
-6.25683
-6.06873
-5.87257
-5.66857
-5.45701
-5.23826
-5.01277
-4.78106
-4.54373
-4.30144
-4.0549
-3.80489
-3.5522
-3.29766
-3.04208
-2.78626
-2.53098
-2.27694
-2.02478
-1.77492
-1.52804
-1.28347
-1.04361
-0.801476
-0.575349
-0.312198
-0.164261
-7.54035
-7.58284
-7.62986
-7.67963
-7.73028
-7.7805
-7.8295
-7.87684
-7.92231
-7.96588
-8.00762
-8.04769
-8.08625
-8.12346
-8.15947
-8.1944
-8.22833
-8.26133
-8.29345
-8.3247
-8.35508
-8.38458
-8.41316
-8.44078
-8.46739
-8.49292
-8.51731
-8.54049
-8.56238
-8.5829
-8.60197
-8.6195
-8.6354
-8.64959
-8.66197
-8.67244
-8.68091
-8.68729
-8.69145
-8.69331
-8.69275
-8.68965
-8.68389
-8.67535
-8.66389
-8.64938
-8.63167
-8.6106
-8.58602
-8.55775
-8.52562
-8.48943
-8.449
-8.40413
-8.35459
-8.30019
-8.24069
-8.17587
-8.10551
-8.02936
-7.9472
-7.85878
-7.76387
-7.66223
-7.55363
-7.43784
-7.31464
-7.18383
-7.04524
-6.8987
-6.74409
-6.58134
-6.41041
-6.23131
-6.04414
-5.84902
-5.64617
-5.43588
-5.21851
-4.99449
-4.76433
-4.52861
-4.28797
-4.0431
-3.79476
-3.54371
-3.29074
-3.03666
-2.78223
-2.5282
-2.27524
-2.02399
-1.77484
-1.52845
-1.28417
-1.04435
-0.802126
-0.575671
-0.312253
-0.164595
-7.55879
-7.59823
-7.64155
-7.68743
-7.7344
-7.7814
-7.82772
-7.8729
-7.91666
-7.9589
-7.99962
-8.03888
-8.07679
-8.11346
-8.149
-8.1835
-8.21702
-8.24963
-8.28135
-8.3122
-8.34217
-8.37126
-8.39942
-8.42661
-8.45279
-8.47789
-8.50185
-8.5246
-8.54606
-8.56616
-8.5848
-8.60192
-8.61741
-8.63119
-8.64317
-8.65325
-8.66133
-8.66732
-8.6711
-8.67257
-8.67162
-8.66813
-8.66199
-8.65306
-8.64121
-8.62631
-8.6082
-8.58674
-8.56175
-8.53309
-8.50055
-8.46398
-8.42316
-8.3779
-8.32799
-8.27323
-8.21339
-8.14825
-8.07759
-8.00117
-7.91877
-7.83015
-7.73509
-7.63334
-7.52469
-7.40891
-7.2858
-7.15516
-7.01682
-6.87063
-6.71647
-6.55429
-6.38404
-6.20574
-6.01948
-5.82541
-5.62372
-5.4147
-5.1987
-4.97614
-4.74752
-4.5134
-4.27441
-4.0312
-3.78451
-3.53509
-3.28369
-3.03109
-2.77804
-2.52525
-2.27338
-2.02303
-1.7746
-1.5287
-1.28472
-1.04496
-0.802702
-0.575899
-0.312442
-0.164602
-7.57555
-7.61239
-7.65258
-7.69512
-7.73886
-7.78294
-7.82674
-7.86981
-7.91185
-7.9527
-7.9923
-8.03066
-8.06784
-8.10388
-8.13888
-8.17288
-8.20595
-8.23812
-8.26941
-8.29983
-8.32938
-8.35803
-8.38576
-8.41252
-8.43826
-8.46292
-8.48645
-8.50876
-8.52979
-8.54946
-8.56768
-8.58438
-8.59946
-8.61283
-8.6244
-8.63408
-8.64177
-8.64735
-8.65074
-8.65182
-8.65048
-8.64661
-8.64007
-8.63075
-8.61851
-8.6032
-8.5847
-8.56283
-8.53745
-8.50838
-8.47545
-8.43848
-8.39726
-8.35162
-8.30134
-8.24622
-8.18604
-8.12058
-8.04962
-7.97294
-7.89031
-7.80149
-7.70628
-7.60443
-7.49573
-7.37997
-7.25695
-7.12648
-6.9884
-6.84256
-6.68887
-6.52725
-6.35768
-6.18019
-5.99485
-5.80181
-5.60128
-5.39352
-5.17888
-4.95778
-4.73069
-4.49816
-4.26079
-4.01924
-3.77419
-3.52637
-3.27653
-3.0254
-2.77371
-2.52215
-2.27136
-2.02191
-1.77418
-1.52879
-1.28513
-1.04544
-0.803199
-0.576037
-0.312737
-0.164337
-7.59083
-7.62543
-7.66295
-7.70261
-7.7435
-7.78495
-7.8264
-7.86745
-7.90778
-7.94721
-7.98564
-8.02303
-8.05938
-8.09474
-8.12912
-8.16258
-8.19514
-8.22683
-8.25766
-8.28763
-8.31673
-8.34494
-8.37222
-8.39853
-8.42383
-8.44805
-8.47113
-8.49301
-8.51361
-8.53284
-8.55064
-8.56691
-8.58157
-8.59454
-8.6057
-8.61497
-8.62226
-8.62745
-8.63044
-8.63113
-8.62939
-8.62512
-8.61819
-8.60847
-8.59583
-8.58013
-8.56123
-8.53896
-8.51318
-8.48371
-8.45038
-8.41301
-8.37141
-8.32538
-8.27473
-8.21926
-8.15874
-8.09296
-8.02171
-7.94476
-7.8619
-7.77289
-7.67752
-7.57558
-7.46684
-7.35111
-7.22818
-7.09789
-6.96007
-6.81459
-6.66136
-6.50031
-6.33143
-6.15473
-5.97031
-5.7783
-5.57891
-5.37241
-5.15912
-4.93946
-4.71389
-4.48293
-4.24716
-4.00723
-3.7638
-3.51758
-3.26927
-3.01959
-2.76925
-2.51891
-2.26917
-2.02062
-1.7736
-1.52871
-1.28538
-1.04579
-0.803613
-0.576091
-0.313108
-0.16385
-7.6048
-7.63746
-7.67268
-7.70983
-7.74822
-7.78728
-7.82656
-7.86568
-7.90435
-7.94235
-7.97957
-8.01594
-8.05143
-8.08602
-8.11974
-8.1526
-8.18461
-8.21579
-8.24612
-8.27562
-8.30425
-8.332
-8.35882
-8.38468
-8.40953
-8.4333
-8.45594
-8.47738
-8.49753
-8.51634
-8.53371
-8.54956
-8.5638
-8.57634
-8.5871
-8.59597
-8.60285
-8.60764
-8.61023
-8.61052
-8.6084
-8.60373
-8.5964
-8.58629
-8.57325
-8.55715
-8.53784
-8.51518
-8.48899
-8.45912
-8.42539
-8.38763
-8.34564
-8.29924
-8.24823
-8.1924
-8.13154
-8.06545
-7.99391
-7.9167
-7.83361
-7.74442
-7.64892
-7.54688
-7.43811
-7.3224
-7.19958
-7.06946
-6.93191
-6.7868
-6.63403
-6.47355
-6.30534
-6.12944
-5.94592
-5.75494
-5.55668
-5.35141
-5.13946
-4.92122
-4.69714
-4.46773
-4.23355
-3.99522
-3.75338
-3.50872
-3.26192
-3.01368
-2.76466
-2.51552
-2.26684
-2.01917
-1.77286
-1.52848
-1.2855
-1.04601
-0.803937
-0.576064
-0.313527
-0.163192
-7.61759
-7.64856
-7.68177
-7.71674
-7.75291
-7.78982
-7.8271
-7.86441
-7.90146
-7.93806
-7.97406
-8.00938
-8.04395
-8.07774
-8.11075
-8.14297
-8.1744
-8.20502
-8.23484
-8.26383
-8.29198
-8.31925
-8.3456
-8.371
-8.39539
-8.41871
-8.4409
-8.46189
-8.48161
-8.49998
-8.51692
-8.53234
-8.54616
-8.55829
-8.56864
-8.5771
-8.58357
-8.58796
-8.59016
-8.59006
-8.58753
-8.58247
-8.57475
-8.56424
-8.5508
-8.53431
-8.5146
-8.49154
-8.46495
-8.43469
-8.40056