/*--------------------------------*- C++ -*----------------------------------*\
| =========                 |                                                 |
| \\      /  F ield         | OpenFOAM: The Open Source CFD Toolbox           |
|  \\    /   O peration     | Version:  4.1                                   |
|   \\  /    A nd           | Web:      www.OpenFOAM.org                      |
|    \\/     M anipulation  |                                                 |
\*---------------------------------------------------------------------------*/
FoamFile
{
    version     2.0;
    format      ascii;
    class       surfaceScalarField;
    location    "1900";
    object      phi;
}
// * * * * * * * * * * * * * * * * * * * * * * * * * * * * * * * * * * * * * //

dimensions      [0 3 -1 0 0 0 0];

internalField   nonuniform List<scalar> 
13452
(
5.98811e-05
3.87334e-07
5.95252e-05
3.55937e-07
5.92696e-05
2.55585e-07
5.90615e-05
2.08068e-07
5.88793e-05
1.82251e-07
5.87167e-05
1.62632e-07
5.85688e-05
1.47864e-07
5.84321e-05
1.36719e-07
5.83044e-05
1.27687e-07
5.81843e-05
1.20051e-07
5.80708e-05
1.13552e-07
5.79628e-05
1.08021e-07
5.78594e-05
1.03318e-07
5.77601e-05
9.93439e-08
5.76641e-05
9.60333e-08
5.75707e-05
9.33481e-08
5.74794e-05
9.12725e-08
5.73896e-05
8.98148e-08
5.73006e-05
8.90099e-08
5.72117e-05
8.89257e-08
5.7122e-05
8.96747e-08
5.70306e-05
9.14337e-08
5.69361e-05
9.448e-08
5.68369e-05
9.92568e-08
5.67303e-05
1.06502e-07
5.66128e-05
1.17503e-07
5.64781e-05
1.34721e-07
5.63153e-05
1.62861e-07
5.61016e-05
2.13709e-07
5.57939e-05
3.07685e-07
5.52643e-05
5.29564e-07
5.4215e-05
1.04935e-06
1.53825e-06
5.26767e-05
6.20749e-05
3.02761e-07
6.19987e-05
4.3211e-07
6.18517e-05
4.02672e-07
6.16884e-05
3.7129e-07
6.15293e-05
3.41403e-07
6.13798e-05
3.12135e-07
6.12402e-05
2.87431e-07
6.11095e-05
2.67431e-07
6.09864e-05
2.50746e-07
6.087e-05
2.36516e-07
6.07592e-05
2.2431e-07
6.06534e-05
2.13817e-07
6.05519e-05
2.04801e-07
6.04542e-05
1.97098e-07
6.03596e-05
1.90601e-07
6.02677e-05
1.85245e-07
6.0178e-05
1.81002e-07
6.00899e-05
1.77885e-07
6.0003e-05
1.75949e-07
5.99166e-05
1.75301e-07
5.98302e-05
1.76121e-07
5.97429e-05
1.78685e-07
5.9654e-05
1.83416e-07
5.95623e-05
1.9097e-07
5.94664e-05
2.02395e-07
5.93645e-05
2.19385e-07
5.92542e-05
2.45029e-07
5.91328e-05
2.84267e-07
5.89971e-05
3.49329e-07
5.88509e-05
4.53977e-07
5.87172e-05
6.63235e-07
5.87641e-05
1.00247e-06
1.63626e-06
5.86661e-05
6.38373e-05
2.26834e-07
6.38685e-05
4.00966e-07
6.38445e-05
4.26692e-07
6.37851e-05
4.30684e-07
6.37048e-05
4.21708e-07
6.36142e-05
4.02681e-07
6.35198e-05
3.81813e-07
6.34248e-05
3.62428e-07
6.33308e-05
3.44801e-07
6.32384e-05
3.28906e-07
6.31479e-05
3.14753e-07
6.30595e-05
3.02264e-07
6.2973e-05
2.91331e-07
6.28882e-05
2.81873e-07
6.2805e-05
2.73838e-07
6.2723e-05
2.67209e-07
6.2642e-05
2.62001e-07
6.25616e-05
2.58271e-07
6.24814e-05
2.56127e-07
6.2401e-05
2.55742e-07
6.23197e-05
2.57381e-07
6.2237e-05
2.61435e-07
6.21519e-05
2.68485e-07
6.20635e-05
2.79394e-07
6.19704e-05
2.95499e-07
6.18709e-05
3.18847e-07
6.1763e-05
3.52908e-07
6.16445e-05
4.02808e-07
6.15146e-05
4.79239e-07
6.13757e-05
5.92839e-07
6.12583e-05
7.80685e-07
6.12264e-05
1.03433e-06
1.47465e-06
6.1388e-05
6.5637e-05
1.7289e-07
6.56889e-05
3.49049e-07
6.57122e-05
4.03389e-07
6.57127e-05
4.30227e-07
6.56932e-05
4.41244e-07
6.5658e-05
4.37834e-07
6.56121e-05
4.27722e-07
6.5559e-05
4.15497e-07
6.55012e-05
4.02588e-07
6.54404e-05
3.89748e-07
6.53776e-05
3.77551e-07
6.53135e-05
3.66314e-07
6.52487e-05
3.56193e-07
6.51833e-05
3.47292e-07
6.51174e-05
3.39699e-07
6.50511e-05
3.33501e-07
6.49843e-05
3.28804e-07
6.49168e-05
3.25743e-07
6.48485e-05
3.24506e-07
6.47789e-05
3.25348e-07
6.47076e-05
3.28628e-07
6.46342e-05
3.34845e-07
6.4558e-05
3.44711e-07
6.44781e-05
3.59246e-07
6.43937e-05
3.79953e-07
6.43035e-05
4.09027e-07
6.42065e-05
4.49888e-07
6.4102e-05
5.07268e-07
6.39919e-05
5.89413e-07
6.38809e-05
7.03861e-07
6.37918e-05
8.69774e-07
6.37498e-05
1.07626e-06
1.36364e-06
6.38609e-05
6.74946e-05
1.35101e-07
6.75432e-05
3.00462e-07
6.75779e-05
3.6861e-07
6.76013e-05
4.06837e-07
6.76127e-05
4.29922e-07
6.76119e-05
4.38597e-07
6.76009e-05
4.38743e-07
6.75815e-05
4.34829e-07
6.75555e-05
4.28606e-07
6.75242e-05
4.21095e-07
6.74886e-05
4.13143e-07
6.74496e-05
4.05326e-07
6.74077e-05
3.9802e-07
6.73635e-05
3.91498e-07
6.73172e-05
3.8599e-07
6.7269e-05
3.81698e-07
6.7219e-05
3.78828e-07
6.71672e-05
3.77605e-07
6.71134e-05
3.783e-07
6.70575e-05
3.81253e-07
6.69992e-05
3.86905e-07
6.69382e-05
3.95844e-07
6.6874e-05
4.08868e-07
6.68062e-05
4.27077e-07
6.67341e-05
4.52006e-07
6.66574e-05
4.85782e-07
6.65758e-05
5.3145e-07
6.64902e-05
5.9292e-07
6.64037e-05
6.75932e-07
6.63224e-05
7.85139e-07
6.62632e-05
9.28905e-07
6.6242e-05
1.09746e-06
1.29611e-06
6.63096e-05
6.94108e-05
1.08307e-07
6.9452e-05
2.5932e-07
6.94866e-05
3.33952e-07
6.95155e-05
3.77936e-07
6.95381e-05
4.07332e-07
6.95532e-05
4.23504e-07
6.95611e-05
4.30882e-07
6.95624e-05
4.33511e-07
6.95578e-05
4.33185e-07
6.9548e-05
4.30917e-07
6.95335e-05
4.27577e-07
6.9515e-05
4.23824e-07
6.94929e-05
4.20126e-07
6.94676e-05
4.16848e-07
6.94393e-05
4.14305e-07
6.94082e-05
4.12783e-07
6.93745e-05
4.12561e-07
6.93381e-05
4.13937e-07
6.92992e-05
4.17249e-07
6.92575e-05
4.229e-07
6.9213e-05
4.3139e-07
6.91655e-05
4.43362e-07
6.91148e-05
4.59647e-07
6.90605e-05
4.81343e-07
6.90026e-05
5.09903e-07
6.89411e-05
5.47223e-07
6.88768e-05
5.95788e-07
6.88112e-05
6.58521e-07
6.87481e-05
7.39013e-07
6.86937e-05
8.39561e-07
6.86601e-05
9.62504e-07
6.86579e-05
1.09966e-06
1.24524e-06
6.87088e-05
7.13857e-05
8.89853e-08
7.14198e-05
2.25201e-07
7.14515e-05
3.02224e-07
7.148e-05
3.49479e-07
7.1505e-05
3.82273e-07
7.15256e-05
4.02955e-07
7.15414e-05
4.1503e-07
7.15528e-05
4.22139e-07
7.15599e-05
4.26118e-07
7.15628e-05
4.27965e-07
7.15619e-05
4.28507e-07
7.15573e-05
4.28401e-07
7.15493e-05
4.28134e-07
7.1538e-05
4.28098e-07
7.15237e-05
4.28641e-07
7.15064e-05
4.30088e-07
7.14862e-05
4.32757e-07
7.14632e-05
4.36986e-07
7.14373e-05
4.4315e-07
7.14085e-05
4.51689e-07
7.13767e-05
4.63129e-07
7.1342e-05
4.78122e-07
7.13041e-05
4.97483e-07
7.12632e-05
5.22235e-07
7.12195e-05
5.53662e-07
7.11734e-05
5.93332e-07
7.11261e-05
6.43114e-07
7.10796e-05
7.04976e-07
7.10378e-05
7.8085e-07
7.1006e-05
8.71351e-07
7.09927e-05
9.75817e-07
7.10048e-05
1.08752e-06
1.19855e-06
7.10515e-05
7.34195e-05
7.47527e-08
7.34477e-05
1.97002e-07
7.34761e-05
2.73791e-07
7.35027e-05
3.22951e-07
7.35272e-05
3.57769e-07
7.35488e-05
3.81363e-07
7.35672e-05
3.9664e-07
7.35825e-05
4.0684e-07
7.35947e-05
4.13849e-07
7.3604e-05
4.18695e-07
7.36103e-05
4.22185e-07
7.36137e-05
4.24968e-07
7.36143e-05
4.27534e-07
7.36122e-05
4.30283e-07
7.36072e-05
4.3357e-07
7.35996e-05
4.37731e-07
7.35892e-05
4.431e-07
7.35762e-05
4.50026e-07
7.35605e-05
4.58898e-07
7.3542e-05
4.7016e-07
7.35208e-05
4.84332e-07
7.34969e-05
5.02037e-07
7.34703e-05
5.24026e-07
7.34414e-05
5.51198e-07
7.34104e-05
5.84612e-07
7.33783e-05
6.25472e-07
7.33463e-05
6.7506e-07
7.33168e-05
7.34526e-07
7.3293e-05
8.04627e-07
7.32794e-05
8.84913e-07
7.32818e-05
9.73433e-07
7.33046e-05
1.06471e-06
1.15166e-06
7.33515e-05
7.55132e-05
6.40164e-08
7.55366e-05
1.73646e-07
7.55619e-05
2.48461e-07
7.55863e-05
2.98522e-07
7.56095e-05
3.34609e-07
7.56306e-05
3.60224e-07
7.56494e-05
3.77877e-07
7.56658e-05
3.904e-07
7.568e-05
3.99671e-07
7.56919e-05
4.0677e-07
7.57016e-05
4.12502e-07
7.57091e-05
4.1752e-07
7.57143e-05
4.22327e-07
7.57172e-05
4.27328e-07
7.57179e-05
4.32883e-07
7.57163e-05
4.39332e-07
7.57124e-05
4.47008e-07
7.57062e-05
4.56261e-07
7.56976e-05
4.67473e-07
7.56867e-05
4.81069e-07
7.56735e-05
4.9754e-07
7.56581e-05
5.17451e-07
7.56406e-05
5.41453e-07
7.56215e-05
5.7029e-07
7.56014e-05
6.04779e-07
7.55811e-05
6.45765e-07
7.55621e-05
6.94025e-07
7.55466e-05
7.50067e-07
7.55373e-05
8.13877e-07
7.55378e-05
8.84414e-07
7.55519e-05
9.59337e-07
7.55824e-05
1.03424e-06
1.10357e-06
7.56305e-05
7.76679e-05
5.5712e-08
7.76873e-05
1.54198e-07
7.77099e-05
2.25938e-07
7.77323e-05
2.76065e-07
7.7754e-05
3.12885e-07
7.77743e-05
3.39934e-07
7.77928e-05
3.59439e-07
7.78093e-05
3.73842e-07
7.7824e-05
3.84948e-07
7.78369e-05
3.93866e-07
7.7848e-05
4.01407e-07
7.78573e-05
4.08229e-07
7.78648e-05
4.14846e-07
7.78705e-05
4.21676e-07
7.78743e-05
4.29083e-07
7.78762e-05
4.37408e-07
7.78762e-05
4.46982e-07
7.78743e-05
4.58146e-07
7.78705e-05
4.71263e-07
7.78649e-05
4.86727e-07
7.78574e-05
5.04981e-07
7.78484e-05
5.26512e-07
7.7838e-05
5.51858e-07
7.78267e-05
5.81595e-07
7.78151e-05
6.16303e-07
7.78044e-05
6.56507e-07
7.77959e-05
7.02578e-07
7.77914e-05
7.54562e-07
7.77933e-05
8.11979e-07
7.78041e-05
8.73526e-07
7.78266e-05
9.36915e-07
7.78622e-05
9.98655e-07
1.05459e-06
7.79111e-05
7.98849e-05
4.91246e-08
7.99012e-05
1.37872e-07
7.99213e-05
2.05908e-07
7.99419e-05
2.55412e-07
7.99623e-05
2.92519e-07
7.99817e-05
3.20542e-07
7.99996e-05
3.41493e-07
8.0016e-05
3.57461e-07
8.00308e-05
3.70129e-07
8.00441e-05
3.80604e-07
8.00558e-05
3.89694e-07
8.0066e-05
3.98052e-07
8.00746e-05
4.06203e-07
8.00817e-05
4.1457e-07
8.00873e-05
4.23522e-07
8.00913e-05
4.33399e-07
8.00937e-05
4.44525e-07
8.00947e-05
4.57226e-07
8.00941e-05
4.7184e-07
8.00921e-05
4.88722e-07
8.00888e-05
5.08254e-07
8.00845e-05
5.3084e-07
8.00795e-05
5.56899e-07
8.00742e-05
5.86842e-07
8.00695e-05
6.21038e-07
8.00662e-05
6.59747e-07
8.00658e-05
7.03034e-07
8.00697e-05
7.50638e-07
8.00798e-05
8.0183e-07
8.00981e-05
8.55259e-07
8.01262e-05
9.08875e-07
8.01649e-05
9.59948e-07
1.00544e-06
8.0214e-05
8.21658e-05
4.37695e-08
8.21796e-05
1.24028e-07
8.21975e-05
1.88063e-07
8.22165e-05
2.36392e-07
8.22356e-05
2.73394e-07
8.22542e-05
3.02005e-07
8.22716e-05
3.24046e-07
8.22878e-05
3.41307e-07
8.23026e-05
3.55317e-07
8.2316e-05
3.67152e-07
8.23281e-05
3.77606e-07
8.23389e-05
3.87319e-07
8.23482e-05
3.96813e-07
8.23563e-05
4.06513e-07
8.2363e-05
4.16788e-07
8.23685e-05
4.27969e-07
8.23726e-05
4.40372e-07
8.23755e-05
4.543e-07
8.23773e-05
4.70061e-07
8.23781e-05
4.87966e-07
8.2378e-05
5.08333e-07
8.23774e-05
5.31478e-07
8.23766e-05
5.57706e-07
8.23761e-05
5.87282e-07
8.23768e-05
6.20393e-07
8.23794e-05
6.57097e-07
8.23852e-05
6.97242e-07
8.23955e-05
7.40385e-07
8.24116e-05
7.85697e-07
8.2435e-05
8.31895e-07
8.24666e-05
8.77235e-07
8.25069e-05
9.19599e-07
9.56782e-07
8.25556e-05
8.45122e-05
3.93144e-08
8.45241e-05
1.12152e-07
8.45401e-05
1.72106e-07
8.45576e-05
2.1884e-07
8.45756e-05
2.55393e-07
8.45934e-05
2.84255e-07
8.46103e-05
3.07064e-07
8.46263e-05
3.25358e-07
8.46411e-05
3.40503e-07
8.46547e-05
3.5352e-07
8.46672e-05
3.65176e-07
8.46784e-05
3.76091e-07
8.46884e-05
3.86773e-07
8.46973e-05
3.97643e-07
8.4705e-05
4.0906e-07
8.47117e-05
4.21346e-07
8.47172e-05
4.34796e-07
8.47218e-05
4.49692e-07
8.47256e-05
4.66304e-07
8.47287e-05
4.84896e-07
8.47313e-05
5.05721e-07
8.47337e-05
5.29013e-07
8.47365e-05
5.54971e-07
8.474e-05
5.83735e-07
8.47451e-05
6.1535e-07
8.47524e-05
6.49724e-07
8.47631e-05
6.86568e-07
8.47782e-05
7.25346e-07
8.47986e-05
7.65225e-07
8.48255e-05
8.0505e-07
8.48593e-05
8.43383e-07
8.49003e-05
8.78592e-07
9.09085e-07
8.4948e-05
8.6926e-05
3.55278e-08
8.69363e-05
1.01832e-07
8.69506e-05
1.57758e-07
8.69669e-05
2.02592e-07
8.69839e-05
2.38395e-07
8.70009e-05
2.67212e-07
8.70175e-05
2.90496e-07
8.70333e-05
3.09571e-07
8.70481e-05
3.25645e-07
8.7062e-05
3.39667e-07
8.70748e-05
3.52366e-07
8.70865e-05
3.64333e-07
8.70973e-05
3.76058e-07
8.7107e-05
3.87946e-07
8.71157e-05
4.00342e-07
8.71235e-05
4.13552e-07
8.71304e-05
4.27848e-07
8.71366e-05
4.43482e-07
8.71422e-05
4.60688e-07
8.71475e-05
4.7968e-07
8.71525e-05
5.00648e-07
8.71578e-05
5.23751e-07
8.71637e-05
5.49097e-07
8.71707e-05
5.76724e-07
8.71795e-05
6.06571e-07
8.71907e-05
6.38444e-07
8.72053e-05
6.71978e-07
8.72241e-05
7.06608e-07
8.72477e-05
7.4155e-07
8.7277e-05
7.75805e-07
8.73122e-05
8.08206e-07
8.73532e-05
8.37508e-07
8.62562e-07
8.73998e-05
8.94088e-05
3.22453e-08
8.94179e-05
9.27441e-08
8.94309e-05
1.44763e-07
8.9446e-05
1.87485e-07
8.94621e-05
2.22282e-07
8.94785e-05
2.50791e-07
8.94948e-05
2.74282e-07
8.95104e-05
2.93897e-07
8.95254e-05
3.10694e-07
8.95395e-05
3.2554e-07
8.95528e-05
3.39119e-07
8.95651e-05
3.51986e-07
8.95766e-05
3.64603e-07
8.95871e-05
3.77357e-07
8.95969e-05
3.90573e-07
8.96059e-05
4.04533e-07
8.96143e-05
4.19486e-07
8.96221e-05
4.3565e-07
8.96296e-05
4.5322e-07
8.96369e-05
4.72363e-07
8.96444e-05
4.9321e-07
8.96522e-05
5.15855e-07
8.9661e-05
5.4033e-07
8.96711e-05
5.66596e-07
8.96832e-05
5.94516e-07
8.96978e-05
6.23834e-07
8.97156e-05
6.54155e-07
8.97373e-05
6.84925e-07
8.97634e-05
7.15439e-07
8.97944e-05
7.44854e-07
8.98303e-05
7.72239e-07
8.98712e-05
7.96646e-07
8.17247e-07
8.99165e-05
9.19628e-05
2.93468e-08
9.19709e-05
8.46274e-08
9.19827e-05
1.32891e-07
9.19969e-05
1.73359e-07
9.20122e-05
2.06931e-07
9.20281e-05
2.349e-07
9.2044e-05
2.58354e-07
9.20597e-05
2.78279e-07
9.20748e-05
2.95595e-07
9.20892e-05
3.11083e-07
9.2103e-05
3.25373e-07
9.2116e-05
3.38982e-07
9.21282e-05
3.52339e-07
9.21398e-05
3.65804e-07
9.21507e-05
3.79679e-07
9.2161e-05
3.9422e-07
9.21708e-05
4.09648e-07
9.21803e-05
4.26147e-07
9.21897e-05
4.43875e-07
9.21991e-05
4.62951e-07
9.22088e-05
4.83459e-07
9.22193e-05
5.05433e-07
9.22307e-05
5.28849e-07
9.22437e-05
5.5361e-07
9.22587e-05
5.79531e-07
9.22762e-05
6.06327e-07
9.22968e-05
6.33598e-07
9.23209e-05
6.60833e-07
9.23489e-05
6.87414e-07
9.23811e-05
7.12643e-07
9.24176e-05
7.35785e-07
9.24581e-05
7.56124e-07
7.73065e-07
9.25023e-05
9.45898e-05
2.67425e-08
9.45971e-05
7.72735e-08
9.46081e-05
1.21938e-07
9.46214e-05
1.60055e-07
9.46361e-05
1.92222e-07
9.46515e-05
2.19441e-07
9.46673e-05
2.42636e-07
9.46829e-05
2.62653e-07
9.46982e-05
2.80288e-07
9.4713e-05
2.96236e-07
9.47273e-05
3.11068e-07
9.47411e-05
3.25256e-07
9.47542e-05
3.39195e-07
9.47668e-05
3.53215e-07
9.47789e-05
3.67589e-07
9.47906e-05
3.82546e-07
9.48019e-05
3.98275e-07
9.48132e-05
4.1493e-07
9.48244e-05
4.32629e-07
9.48359e-05
4.51453e-07
9.48479e-05
4.71441e-07
9.48608e-05
4.92582e-07
9.48748e-05
5.14808e-07
9.48904e-05
5.37985e-07
9.49081e-05
5.61902e-07
9.49281e-05
5.86264e-07
9.4951e-05
6.10691e-07
9.49771e-05
6.34725e-07
9.50067e-05
6.57837e-07
9.50399e-05
6.79459e-07
9.50767e-05
6.99015e-07
9.51168e-05
7.15967e-07
7.29888e-07
9.516e-05
9.72919e-05
2.43635e-08
9.72987e-05
7.05128e-08
9.73089e-05
1.11718e-07
9.73215e-05
1.47424e-07
9.73357e-05
1.78029e-07
9.73508e-05
2.04311e-07
9.73664e-05
2.27043e-07
9.73821e-05
2.46947e-07
9.73977e-05
2.64708e-07
9.7413e-05
2.80934e-07
9.74279e-05
2.96137e-07
9.74425e-05
3.10743e-07
9.74565e-05
3.25107e-07
9.74702e-05
3.39525e-07
9.74836e-05
3.54241e-07
9.74967e-05
3.69454e-07
9.75096e-05
3.85322e-07
9.75226e-05
4.01967e-07
9.75357e-05
4.19474e-07
9.75493e-05
4.37888e-07
9.75635e-05
4.57212e-07
9.75787e-05
4.77401e-07
9.75952e-05
4.98357e-07
9.76132e-05
5.19922e-07
9.76333e-05
5.41876e-07
9.76556e-05
5.63932e-07
9.76805e-05
5.85742e-07
9.77084e-05
6.06903e-07
9.77392e-05
6.26973e-07
9.77732e-05
6.45494e-07
9.78102e-05
6.6202e-07
9.785e-05
6.76147e-07
6.87575e-07
9.78923e-05
0.000100071
2.21546e-08
0.000100078
6.42053e-08
0.000100087
1.0207e-07
0.000100099
1.35319e-07
0.000100113
1.64229e-07
0.000100128
1.89405e-07
0.000100144
2.11485e-07
0.000100159
2.31083e-07
0.000100175
2.48783e-07
0.000100191
2.65111e-07
0.000100207
2.80517e-07
0.000100222
2.95379e-07
0.000100237
3.10012e-07
0.000100252
3.24675e-07
0.000100267
3.3958e-07
0.000100281
3.54896e-07
0.000100296
3.70752e-07
0.000100311
3.8724e-07
0.000100326
4.04413e-07
0.000100341
4.22288e-07
0.000100358
4.40839e-07
0.000100375
4.59995e-07
0.000100394
4.7964e-07
0.000100414
4.99605e-07
0.000100436
5.19673e-07
0.000100461
5.39576e-07
0.000100487
5.59001e-07
0.000100517
5.77603e-07
0.000100549
5.95019e-07
0.000100583
6.10881e-07
0.00010062
6.24849e-07
0.00010066
6.3662e-07
6.45987e-07
0.000100702
0.00010293
2.00711e-08
0.000102936
5.82328e-08
0.000102945
9.28466e-08
0.000102957
1.23599e-07
0.000102971
1.50696e-07
0.000102985
1.7461e-07
0.000103001
1.95864e-07
0.000103017
2.14975e-07
0.000103033
2.32435e-07
0.00010305
2.48694e-07
0.000103066
2.6414e-07
0.000103083
2.79101e-07
0.000103099
2.93849e-07
0.000103115
3.08609e-07
0.000103131
3.23559e-07
0.000103147
3.38837e-07
0.000103163
3.54545e-07
0.00010318
3.70745e-07
0.000103196
3.87466e-07
0.000103214
4.04699e-07
0.000103233
4.22397e-07
0.000103252
4.40473e-07
0.000103273
4.588e-07
0.000103295
4.77209e-07
0.000103319
4.95492e-07
0.000103346
5.13406e-07
0.000103374
5.30677e-07
0.000103405
5.47016e-07
0.000103437
5.62124e-07
0.000103473
5.75714e-07
0.00010351
5.87524e-07
0.000103549
5.97332e-07
6.04997e-07
0.00010359
0.000105871
1.8075e-08
0.000105876
5.24934e-08
0.000105885
8.39142e-08
0.000105897
1.12129e-07
0.00010591
1.37305e-07
0.000105925
1.59812e-07
0.000105941
1.80079e-07
0.000105957
1.98532e-07
0.000105974
2.15583e-07
0.000105991
2.31608e-07
0.000106008
2.46935e-07
0.000106026
2.61843e-07
0.000106043
2.76562e-07
0.00010606
2.91278e-07
0.000106078
3.06137e-07
0.000106095
3.21249e-07
0.000106113
3.36686e-07
0.000106131
3.52488e-07
0.00010615
3.6866e-07
0.00010617
3.85174e-07
0.00010619
4.01968e-07
0.000106212
4.18944e-07
0.000106235
4.35972e-07
0.000106259
4.5289e-07
0.000106285
4.69506e-07
0.000106313
4.85602e-07
0.000106342
5.00944e-07
0.000106374
5.15291e-07
0.000106408
5.28403e-07
0.000106443
5.40056e-07
0.000106481
5.50051e-07
0.00010652
5.58228e-07
5.64493e-07
0.000106561
0.000108895
1.61332e-08
0.000108901
4.68963e-08
0.00010891
7.51496e-08
0.000108921
1.00778e-07
0.000108934
1.23927e-07
0.000108949
1.44892e-07
0.000108965
1.64019e-07
0.000108982
1.81655e-07
0.000109
1.98136e-07
0.000109018
2.13772e-07
0.000109036
2.28831e-07
0.000109054
2.43542e-07
0.000109072
2.58094e-07
0.000109091
2.72635e-07
0.00010911
2.8728e-07
0.000109129
3.0211e-07
0.000109149
3.17172e-07
0.000109169
3.32483e-07
0.000109189
3.48031e-07
0.000109211
3.63772e-07
0.000109233
3.79633e-07
0.000109256
3.95513e-07
0.000109281
4.11284e-07
0.000109307
4.26793e-07
0.000109335
4.41867e-07
0.000109364
4.56317e-07
0.000109395
4.69944e-07
0.000109428
4.82549e-07
0.000109462
4.93943e-07
0.000109498
5.03951e-07
0.000109536
5.12426e-07
0.000109575
5.19253e-07
5.24374e-07
0.000109615
0.000112006
1.42156e-08
0.000112012
4.13585e-08
0.000112021
6.64358e-08
0.000112032
8.94146e-08
0.000112046
1.10432e-07
0.000112061
1.29726e-07
0.000112077
1.47569e-07
0.000112095
1.64238e-07
0.000112113
1.80001e-07
0.000112131
1.95101e-07
0.00011215
2.09752e-07
0.00011217
2.24133e-07
0.00011219
2.3839e-07
0.00011221
2.52637e-07
0.00011223
2.66958e-07
0.000112251
2.81404e-07
0.000112272
2.96002e-07
0.000112293
3.10749e-07
0.000112316
3.25617e-07
0.000112339
3.40551e-07
0.000112363
3.55472e-07
0.000112389
3.7028e-07
0.000112415
3.84851e-07
0.000112443
3.99045e-07
0.000112472
4.12709e-07
0.000112502
4.25679e-07
0.000112535
4.37791e-07
0.000112568
4.48884e-07
0.000112603
4.58806e-07
0.00011264
4.67426e-07
0.000112678
4.74635e-07
0.000112717
4.80353e-07
4.84547e-07
0.000112756
0.000115206
1.22941e-08
0.000115212
3.58009e-08
0.000115221
5.76588e-08
0.000115232
7.79085e-08
0.000115246
9.66858e-08
0.000115262
1.14181e-07
0.000115278
1.30605e-07
0.000115297
1.46169e-07
0.000115315
1.61074e-07
0.000115335
1.75505e-07
0.000115355
1.89618e-07
0.000115376
2.03547e-07
0.000115397
2.17395e-07
0.000115418
2.31243e-07
0.00011544
2.45142e-07
0.000115462
2.5912e-07
0.000115485
2.73182e-07
0.000115509
2.87309e-07
0.000115533
3.01459e-07
0.000115558
3.15571e-07
0.000115584
3.29564e-07
0.000115611
3.43337e-07
0.000115639
3.56777e-07
0.000115668
3.69757e-07
0.000115698
3.82142e-07
0.00011573
3.93796e-07
0.000115764
4.0458e-07
0.000115798
4.14367e-07
0.000115834
4.23038e-07
0.000115871
4.30494e-07
0.000115909
4.36658e-07
0.000115948
4.41474e-07
4.4493e-07
0.000115987
0.000118498
1.03407e-08
0.000118503
3.01447e-08
0.000118512
4.87031e-08
0.000118524
6.61245e-08
0.000118538
8.25466e-08
0.000118554
9.81194e-08
0.000118572
1.12996e-07
0.000118591
1.27325e-07
0.000118611
1.41247e-07
0.000118631
1.54886e-07
0.000118653
1.68346e-07
0.000118674
1.81714e-07
0.000118697
1.95053e-07
0.00011872
2.08409e-07
0.000118743
2.21805e-07
0.000118767
2.35246e-07
0.000118791
2.48717e-07
0.000118816
2.62184e-07
0.000118842
2.75597e-07
0.000118869
2.88889e-07
0.000118897
3.01977e-07
0.000118925
3.14767e-07
0.000118955
3.27153e-07
0.000118985
3.39024e-07
0.000119017
3.50262e-07
0.00011905
3.60752e-07
0.000119085
3.70383e-07
0.00011912
3.79052e-07
0.000119156
3.86669e-07
0.000119194
3.9316e-07
0.000119232
3.9847e-07
0.000119271
4.02565e-07
4.05445e-07
0.00011931
0.000121883
8.3266e-09
0.000121889
2.43081e-08
0.000121898
3.94475e-08
0.000121911
5.39184e-08
0.000121925
6.78617e-08
0.000121942
8.13887e-08
0.00012196
9.45965e-08
0.00012198
1.07574e-07
0.000122001
1.204e-07
0.000122023
1.3314e-07
0.000122045
1.45847e-07
0.000122068
1.5856e-07
0.000122092
1.71306e-07
0.000122116
1.84094e-07
0.000122141
1.96922e-07
0.000122167
2.09772e-07
0.000122193
2.22613e-07
0.00012222
2.35398e-07
0.000122247
2.48069e-07
0.000122276
2.60556e-07
0.000122305
2.72777e-07
0.000122335
2.84644e-07
0.000122366
2.9606e-07
0.000122398
3.06926e-07
0.000122431
3.17144e-07
0.000122465
3.26617e-07
0.0001225
3.35255e-07
0.000122537
3.42978e-07
0.000122574
3.49716e-07
0.000122611
3.55416e-07
0.00012265
3.60042e-07
0.000122689
3.63573e-07
3.66018e-07
0.000122728
0.000125366
6.22018e-09
0.000125372
1.82013e-08
0.000125381
2.97582e-08
0.000125394
4.1131e-08
0.00012541
5.24623e-08
0.000125427
6.38219e-08
0.000125446
7.52488e-08
0.000125467
8.67698e-08
0.000125489
9.84022e-08
0.000125512
1.10154e-07
0.000125536
1.22024e-07
0.000125561
1.34007e-07
0.000125586
1.4609e-07
0.000125612
1.58252e-07
0.000125638
1.70464e-07
0.000125665
1.82687e-07
0.000125693
1.94874e-07
0.000125721
2.06969e-07
0.000125751
2.18908e-07
0.00012578
2.30617e-07
0.000125811
2.42018e-07
0.000125843
2.53028e-07
0.000125875
2.63561e-07
0.000125909
2.7353e-07
0.000125943
2.82851e-07
0.000125978
2.91444e-07
0.000126014
2.99237e-07
0.000126051
3.06167e-07
0.000126089
3.12184e-07
0.000126127
3.17249e-07
0.000126165
3.21339e-07
0.000126205
3.24444e-07
3.2658e-07
0.000126244
0.000128947
3.985e-09
0.000128954
1.17204e-08
0.000128964
1.94814e-08
0.000128978
2.75799e-08
0.000128994
3.61563e-08
0.000129013
4.52299e-08
0.000129033
5.47741e-08
0.000129055
6.47499e-08
0.000129078
7.51102e-08
0.000129103
8.58024e-08
0.000129128
9.67728e-08
0.000129154
1.07969e-07
0.000129181
1.1934e-07
0.000129208
1.30835e-07
0.000129236
1.42399e-07
0.000129265
1.53974e-07
0.000129294
1.655e-07
0.000129324
1.76912e-07
0.000129355
1.88139e-07
0.000129387
1.99109e-07
0.000129419
2.09746e-07
0.000129452
2.19972e-07
0.000129486
2.29711e-07
0.00012952
2.38886e-07
0.000129556
2.47427e-07
0.000129592
2.55269e-07
0.000129629
2.62353e-07
0.000129666
2.68633e-07
0.000129705
2.74069e-07
0.000129743
2.78637e-07
0.000129782
2.82324e-07
0.000129822
2.85126e-07
2.87063e-07
0.000129861
0.000132631
1.57647e-09
0.000132638
4.7385e-09
0.00013265
8.43054e-09
0.000132664
1.30477e-08
0.000132681
1.87187e-08
0.000132701
2.53942e-08
0.000132723
3.2969e-08
0.000132747
4.13305e-08
0.000132771
5.03626e-08
0.000132797
5.99481e-08
0.000132824
6.99773e-08
0.000132852
8.03518e-08
0.00013288
9.09829e-08
0.000132909
1.01789e-07
0.000132939
1.12691e-07
0.000132969
1.23615e-07
0.000133
1.34488e-07
0.000133032
1.45236e-07
0.000133064
1.55785e-07
0.000133097
1.66063e-07
0.000133131
1.75997e-07
0.000133165
1.85515e-07
0.0001332
1.94548e-07
0.000133236
2.03032e-07
0.000133273
2.10905e-07
0.00013331
2.18116e-07
0.000133348
2.24617e-07
0.000133386
2.30373e-07
0.000133425
2.35357e-07
0.000133464
2.39552e-07
0.000133503
2.42952e-07
0.000133543
2.45559e-07
2.47396e-07
0.000133582
0.000136421
-1.06305e-09
0.000136429
-2.9086e-09
0.000136441
-3.63126e-09
0.000136456
-2.7343e-09
0.000136475
-1.21637e-10
0.000136497
4.05659e-09
0.00013652
9.59615e-09
0.000136545
1.6301e-08
0.000136571
2.39773e-08
0.000136599
3.2437e-08
0.000136627
4.15107e-08
0.000136657
5.1053e-08
0.000136687
6.09377e-08
0.000136717
7.10532e-08
0.000136749
8.12993e-08
0.000136781
9.1585e-08
0.000136814
1.01826e-07
0.000136847
1.11941e-07
0.000136881
1.21856e-07
0.000136915
1.31497e-07
0.000136951
1.40794e-07
0.000136986
1.49682e-07
0.000137023
1.581e-07
0.00013706
1.6599e-07
0.000137097
1.73303e-07
0.000137136
1.79994e-07
0.000137174
1.86028e-07
0.000137213
1.91378e-07
0.000137252
1.96024e-07
0.000137292
1.99957e-07
0.000137332
2.03176e-07
0.000137372
2.05687e-07
2.07513e-07
0.000137412
0.000140319
-4.01242e-09
0.000140327
-1.14445e-08
0.000140341
-1.70187e-08
0.000140358
-2.011e-08
0.000140379
-2.06993e-08
0.000140402
-1.90934e-08
0.000140427
-1.56238e-08
0.000140454
-1.05831e-08
0.000140482
-4.25425e-09
0.000140511
3.09425e-09
0.000140542
1.12296e-08
0.000140573
1.99579e-08
0.000140605
2.91156e-08
0.000140637
3.85625e-08
0.00014067
4.81773e-08
0.000140704
5.78541e-08
0.000140738
6.74987e-08
0.000140773
7.70258e-08
0.000140809
8.63576e-08
0.000140845
9.54224e-08
0.000140881
1.04154e-07
0.000140919
1.12492e-07
0.000140956
1.20381e-07
0.000140995
1.27772e-07
0.000141033
1.34624e-07
0.000141072
1.409e-07
0.000141112
1.46573e-07
0.000141152
1.51622e-07
0.000141192
1.56035e-07
0.000141232
1.59805e-07
0.000141272
1.62937e-07
0.000141312
1.65438e-07
1.67329e-07
0.000141352
0.000144328
-7.38591e-09
0.000144338
-2.11911e-08
0.000144353
-3.21678e-08
0.000144372
-3.95323e-08
0.000144395
-4.34377e-08
0.00014442
-4.44374e-08
0.000144448
-4.30234e-08
0.000144477
-3.96015e-08
0.000144507
-3.45633e-08
0.000144538
-2.82701e-08
0.000144571
-2.10219e-08
0.000144604
-1.30604e-08
0.000144637
-4.58548e-09
0.000144672
4.23543e-09
0.000144707
1.32618e-08
0.000144742
2.23747e-08
0.000144778
3.14722e-08
0.000144815
4.0465e-08
0.000144852
4.92742e-08
0.000144889
5.78297e-08
0.000144928
6.60691e-08
0.000144966
7.39367e-08
0.000145005
8.13836e-08
0.000145044
8.83677e-08
0.000145084
9.48534e-08
0.000145124
1.00812e-07
0.000145165
1.06222e-07
0.000145205
1.11067e-07
0.000145246
1.15341e-07
0.000145287
1.19041e-07
0.000145327
1.22173e-07
0.000145368
1.24748e-07
1.26785e-07
0.000145409
0.000148452
-1.13592e-08
0.000148463
-3.26414e-08
0.000148481
-4.9706e-08
0.000148503
-6.16021e-08
0.000148528
-6.88746e-08
0.000148556
-7.24588e-08
0.000148586
-7.30247e-08
0.000148618
-7.1106e-08
0.000148651
-6.72333e-08
0.000148684
-6.18794e-08
0.000148719
-5.54155e-08
0.000148754
-4.81311e-08
0.000148789
-4.0261e-08
0.000148826
-3.19977e-08
0.000148862
-2.34979e-08
0.0001489
-1.48899e-08
0.000148937
-6.28132e-09
0.000148976
2.23685e-09
0.000149014
1.05865e-08
0.000149053
1.87001e-08
0.000149093
2.65193e-08
0.000149133
3.39937e-08
0.000149173
4.10799e-08
0.000149214
4.77417e-08
0.000149255
5.39495e-08
0.000149296
5.96798e-08
0.000149337
6.49159e-08
0.000149379
6.96469e-08
0.00014942
7.38678e-08
0.000149462
7.75791e-08
0.000149503
8.07862e-08
0.000149544
8.3498e-08
8.57335e-08
0.000149585
0.000152694
-1.62141e-08
0.000152708
-4.65947e-08
0.000152729
-7.05934e-08
0.000152754
-8.7146e-08
0.000152783
-9.76727e-08
0.000152814
-1.037e-07
0.000152847
-1.06073e-07
0.000152882
-1.0547e-07
0.000152917
-1.02591e-07
0.000152953
-9.80272e-08
0.00015299
-9.22162e-08
0.000153027
-8.54918e-08
0.000153065
-7.81229e-08
0.000153104
-7.03244e-08
0.000153142
-6.22663e-08
0.000153182
-5.40839e-08
0.000153221
-4.58877e-08
0.000153261
-3.77686e-08
0.000153302
-2.98024e-08
0.000153342
-2.20528e-08
0.000153383
-1.45733e-08
0.000153425
-7.40899e-09
0.000153467
-5.97521e-10
0.000153508
5.83032e-09
0.000153551
1.185e-08
0.000153593
1.74431e-08
0.000153635
2.25967e-08
0.000153677
2.73034e-08
0.00015372
3.15609e-08
0.000153762
3.53719e-08
0.000153804
3.87436e-08
0.000153846
4.16879e-08
4.42225e-08
0.000153887
0.000157058
-2.24708e-08
0.000157075
-6.43538e-08
0.000157101
-9.62549e-08
0.000157131
-1.17418e-07
0.000157165
-1.30955e-07
0.0001572
-1.39097e-07
0.000157237
-1.42853e-07
0.000157275
-1.43158e-07
0.000157313
-1.40952e-07
0.000157352
-1.3694e-07
0.000157391
-1.31602e-07
0.000157431
-1.25303e-07
0.000157471
-1.18332e-07
0.000157512
-1.10915e-07
0.000157553
-1.03225e-07
0.000157594
-9.53964e-08
0.000157636
-8.75392e-08
0.000157678
-7.97408e-08
0.00015772
-7.20729e-08
0.000157763
-6.45945e-08
0.000157805
-5.73544e-08
0.000157848
-5.0393e-08
0.000157891
-4.37431e-08
0.000157935
-3.74314e-08
0.000157978
-3.14784e-08
0.000158021
-2.58995e-08
0.000158065
-2.07051e-08
0.000158108
-1.59013e-08
0.000158151
-1.14898e-08
0.000158194
-7.46934e-09
0.000158236
-3.83576e-09
0.000158279
-5.83741e-10
2.30029e-09
0.000158321
0.000161547
-3.13515e-08
0.000161572
-8.85721e-08
0.000161604
-1.28385e-07
0.00016164
-1.53372e-07
0.000161678
-1.69781e-07
0.000161719
-1.79955e-07
0.000161761
-1.84814e-07
0.000161804
-1.85679e-07
0.000161847
-1.83808e-07
0.00016189
-1.80018e-07
0.000161933
-1.74833e-07
0.000161976
-1.68651e-07
0.00016202
-1.61786e-07
0.000162063
-1.54469e-07
0.000162107
-1.46874e-07
0.000162151
-1.39133e-07
0.000162194
-1.31351e-07
0.000162238
-1.23611e-07
0.000162282
-1.1598e-07
0.000162326
-1.08512e-07
0.00016237
-1.01251e-07
0.000162414
-9.42342e-08
0.000162458
-8.7491e-08
0.000162501
-8.10446e-08
0.000162545
-7.49133e-08
0.000162588
-6.91103e-08
0.000162631
-6.36444e-08
0.000162673
-5.85202e-08
0.000162716
-5.37383e-08
0.000162758
-4.92952e-08
0.000162799
-4.51839e-08
0.00016284
-4.13918e-08
-3.79087e-08
0.00016288
0.000166166
-4.41069e-08
0.000166205
-1.26809e-07
0.000166249
-1.7307e-07
0.000166295
-1.99459e-07
0.000166343
-2.17453e-07
0.000166392
-2.28634e-07
0.000166441
-2.33765e-07
0.00016649
-2.34603e-07
0.000166538
-2.32565e-07
0.000166587
-2.28445e-07
0.000166635
-2.22772e-07
0.000166682
-2.15985e-07
0.000166729
-2.08433e-07
0.000166775
-2.00375e-07
0.00016682
-1.92004e-07
0.000166864
-1.83471e-07
0.000166908
-1.74895e-07
0.00016695
-1.66369e-07
0.000166992
-1.57966e-07
0.000167034
-1.49744e-07
0.000167074
-1.41749e-07
0.000167114
-1.34015e-07
0.000167153
-1.2657e-07
0.000167191
-1.19436e-07
0.000167229
-1.12627e-07
0.000167266
-1.06153e-07
0.000167302
-1.0002e-07
0.000167338
-9.42303e-08
0.000167373
-8.87839e-08
0.000167408
-8.36787e-08