/*--------------------------------*- C++ -*----------------------------------*\
| =========                 |                                                 |
| \\      /  F ield         | OpenFOAM: The Open Source CFD Toolbox           |
|  \\    /   O peration     | Version:  4.1                                   |
|   \\  /    A nd           | Web:      www.OpenFOAM.org                      |
|    \\/     M anipulation  |                                                 |
\*---------------------------------------------------------------------------*/
FoamFile
{
    version     2.0;
    format      ascii;
    class       volVectorField;
    location    "1900";
    object      U;
}
// * * * * * * * * * * * * * * * * * * * * * * * * * * * * * * * * * * * * * //

dimensions      [0 1 -1 0 0 0 0];

internalField   nonuniform List<vector> 
6820
(
(7.30076 0.0105784 0)
(7.26066 0.0145399 0)
(7.22719 0.0116116 0)
(7.19817 0.00889175 0)
(7.17426 0.00729669 0)
(7.15367 0.00634273 0)
(7.13496 0.00573842 0)
(7.11768 0.00533704 0)
(7.10162 0.00504576 0)
(7.08659 0.00481619 0)
(7.07241 0.00462902 0)
(7.05895 0.0044763 0)
(7.04611 0.00435343 0)
(7.0338 0.00425743 0)
(7.02193 0.00418662 0)
(7.01042 0.00414044 0)
(6.99921 0.00411933 0)
(6.98821 0.00412486 0)
(6.97735 0.00415993 0)
(6.96655 0.0042292 0)
(6.95571 0.00433973 0)
(6.94472 0.00450216 0)
(6.93345 0.0047327 0)
(6.92172 0.00505689 0)
(6.90928 0.00551656 0)
(6.89577 0.00618504 0)
(6.88066 0.00719831 0)
(6.86282 0.0088302 0)
(6.84108 0.0117058 0)
(6.80907 0.0171957 0)
(6.77013 0.0286573 0)
(6.65293 0.070246 0)
(6.63986 -0.0294847 0)
(7.3396 0.0129479 0)
(7.34154 0.0168193 0)
(7.32732 0.0138363 0)
(7.30715 0.0119873 0)
(7.28756 0.0109488 0)
(7.26941 0.0100964 0)
(7.25237 0.00941844 0)
(7.23638 0.00890364 0)
(7.22139 0.00849463 0)
(7.20725 0.0081586 0)
(7.19383 0.00788316 0)
(7.18104 0.0076603 0)
(7.16879 0.00748358 0)
(7.15702 0.00734889 0)
(7.14566 0.00725429 0)
(7.13465 0.00719952 0)
(7.12392 0.00718597 0)
(7.11341 0.00721684 0)
(7.10308 0.00729755 0)
(7.09284 0.00743641 0)
(7.08264 0.00764576 0)
(7.07239 0.00794389 0)
(7.06199 0.00835832 0)
(7.05134 0.00893158 0)
(7.04028 0.00973277 0)
(7.02863 0.0108772 0)
(7.01617 0.0125822 0)
(7.00245 0.0152275 0)
(6.98758 0.0197907 0)
(6.96983 0.0276055 0)
(6.95497 0.0454624 0)
(6.93762 0.0768938 0)
(6.97923 0.170819 0)
(7.33613 0.0108741 0)
(7.34462 0.0173199 0)
(7.34579 0.0178696 0)
(7.34012 0.0178781 0)
(7.33147 0.0174236 0)
(7.3215 0.0166041 0)
(7.31078 0.0157929 0)
(7.29981 0.0151132 0)
(7.2889 0.0145454 0)
(7.27817 0.0140684 0)
(7.26765 0.0136722 0)
(7.25736 0.0133488 0)
(7.2473 0.0130912 0)
(7.23745 0.0128958 0)
(7.2278 0.0127614 0)
(7.2183 0.0126892 0)
(7.20894 0.0126824 0)
(7.19967 0.0127469 0)
(7.19045 0.0128919 0)
(7.18123 0.0131309 0)
(7.17194 0.0134832 0)
(7.16253 0.0139771 0)
(7.15291 0.0146536 0)
(7.14296 0.0155745 0)
(7.13257 0.0168357 0)
(7.12154 0.0185882 0)
(7.10969 0.0210967 0)
(7.0967 0.0247743 0)
(7.08257 0.0305513 0)
(7.06668 0.0394928 0)
(7.05207 0.0556629 0)
(7.03854 0.0799777 0)
(7.05087 0.1266 0)
(7.33465 0.00788232 0)
(7.34191 0.0151073 0)
(7.34712 0.0174406 0)
(7.34828 0.0186843 0)
(7.34686 0.0192152 0)
(7.3437 0.0191487 0)
(7.3391 0.0188428 0)
(7.33348 0.0184847 0)
(7.32722 0.0181224 0)
(7.32055 0.0177798 0)
(7.31362 0.0174766 0)
(7.30651 0.0172226 0)
(7.29929 0.0170229 0)
(7.29201 0.0168814 0)
(7.28466 0.0168031 0)
(7.27728 0.0167937 0)
(7.26984 0.0168611 0)
(7.26234 0.0170155 0)
(7.25475 0.0172712 0)
(7.24705 0.0176476 0)
(7.23918 0.0181714 0)
(7.23111 0.0188799 0)
(7.22277 0.0198264 0)
(7.21407 0.0210883 0)
(7.20491 0.0227817 0)
(7.19518 0.0250809 0)
(7.18476 0.0282693 0)
(7.1735 0.032762 0)
(7.16153 0.0393397 0)
(7.14887 0.0488215 0)
(7.13745 0.0634375 0)
(7.12824 0.0825409 0)
(7.13114 0.111086 0)
(7.334 0.00602358 0)
(7.33938 0.0130427 0)
(7.3447 0.0160233 0)
(7.34792 0.0178453 0)
(7.34963 0.019048 0)
(7.35018 0.0196458 0)
(7.34954 0.0198905 0)
(7.34784 0.0199704 0)
(7.34532 0.019958 0)
(7.34218 0.0198965 0)
(7.33852 0.0198221 0)
(7.33444 0.0197601 0)
(7.33004 0.0197269 0)
(7.32535 0.0197356 0)
(7.32043 0.0197985 0)
(7.31529 0.0199276 0)
(7.30995 0.0201362 0)
(7.30441 0.0204402 0)
(7.29867 0.0208592 0)
(7.29272 0.0214186 0)
(7.28652 0.0221518 0)
(7.28005 0.0231042 0)
(7.27326 0.0243384 0)
(7.2661 0.0259419 0)
(7.25852 0.0280408 0)
(7.25044 0.0308159 0)
(7.24185 0.0345382 0)
(7.23274 0.0395797 0)
(7.22333 0.0465317 0)
(7.21397 0.0559654 0)
(7.20604 0.0689972 0)
(7.20082 0.0849722 0)
(7.20245 0.105319 0)
(7.33365 0.00478 0)
(7.33758 0.0112543 0)
(7.34215 0.014522 0)
(7.34564 0.0166278 0)
(7.34826 0.0181729 0)
(7.35025 0.0191688 0)
(7.35148 0.0197983 0)
(7.35195 0.0202316 0)
(7.35176 0.0205411 0)
(7.35098 0.0207686 0)
(7.34969 0.0209522 0)
(7.34794 0.0211221 0)
(7.34578 0.0213004 0)
(7.34327 0.0215057 0)
(7.34043 0.0217552 0)
(7.33728 0.022066 0)
(7.33386 0.022456 0)
(7.33016 0.0229458 0)
(7.32618 0.0235598 0)
(7.32192 0.0243284 0)
(7.31738 0.0252903 0)
(7.31252 0.0264965 0)
(7.30734 0.0280147 0)
(7.30179 0.0299369 0)
(7.29587 0.0323891 0)
(7.28957 0.0355428 0)
(7.28291 0.039636 0)
(7.276 0.0449714 0)
(7.26911 0.0519604 0)
(7.26271 0.0609546 0)
(7.25779 0.072427 0)
(7.25546 0.0858106 0)
(7.25756 0.100976 0)
(7.33343 0.00388675 0)
(7.33634 0.00974915 0)
(7.34013 0.0131376 0)
(7.34337 0.0153881 0)
(7.34606 0.0170936 0)
(7.34839 0.0183084 0)
(7.35029 0.0191738 0)
(7.35169 0.0198409 0)
(7.35263 0.0203816 0)
(7.35314 0.0208348 0)
(7.35324 0.0212358 0)
(7.35295 0.0216143 0)
(7.3523 0.0219935 0)
(7.35131 0.0223936 0)
(7.34999 0.022834 0)
(7.34836 0.0233344 0)
(7.34644 0.0239155 0)
(7.34422 0.0246009 0)
(7.3417 0.0254182 0)
(7.3389 0.026401 0)
(7.33579 0.0275913 0)
(7.33238 0.0290426 0)
(7.32865 0.030824 0)
(7.32461 0.0330256 0)
(7.32026 0.0357653 0)
(7.31563 0.0391949 0)
(7.3108 0.0435087 0)
(7.30593 0.0489335 0)
(7.3013 0.0557315 0)
(7.29736 0.0640832 0)
(7.29484 0.0741098 0)
(7.29454 0.0853169 0)
(7.29732 0.0971359 0)
(7.3333 0.0032316 0)
(7.33547 0.00850287 0)
(7.33859 0.0118949 0)
(7.3415 0.0142191 0)
(7.34402 0.0160061 0)
(7.34631 0.0173492 0)
(7.34832 0.0183616 0)
(7.35001 0.0191769 0)
(7.35138 0.0198692 0)
(7.35246 0.0204783 0)
(7.35324 0.0210379 0)
(7.35372 0.0215767 0)
(7.35392 0.022118 0)
(7.35385 0.0226821 0)
(7.35349 0.0232892 0)
(7.35286 0.0239598 0)
(7.35197 0.024716 0)
(7.3508 0.0255827 0)
(7.34936 0.0265891 0)
(7.34766 0.0277702 0)
(7.34568 0.0291687 0)
(7.34342 0.0308381 0)
(7.3409 0.0328448 0)
(7.33813 0.0352726 0)
(7.33513 0.0382253 0)
(7.33196 0.0418293 0)
(7.32872 0.0462329 0)
(7.32559 0.0515926 0)
(7.32285 0.058057 0)
(7.32086 0.065688 0)
(7.32016 0.0744328 0)
(7.32128 0.0838716 0)
(7.32464 0.0934182 0)
(7.33321 0.00274268 0)
(7.33487 0.00747199 0)
(7.33744 0.0107865 0)
(7.34 0.0131403 0)
(7.34231 0.0149716 0)
(7.34445 0.0163964 0)
(7.3464 0.0175087 0)
(7.34812 0.0184249 0)
(7.3496 0.0192202 0)
(7.35087 0.0199369 0)
(7.35192 0.0206085 0)
(7.35275 0.021264 0)
(7.35337 0.021927 0)
(7.35377 0.0226184 0)
(7.35394 0.0233587 0)
(7.3539 0.0241687 0)
(7.35364 0.0250711 0)
(7.35314 0.0260912 0)
(7.35243 0.0272586 0)
(7.35148 0.0286079 0)
(7.35031 0.030181 0)
(7.34892 0.0320284 0)
(7.34732 0.0342115 0)
(7.34554 0.0368038 0)
(7.34362 0.0398925 0)
(7.34163 0.0435762 0)
(7.33969 0.0479608 0)
(7.33797 0.0531438 0)
(7.33669 0.0591933 0)
(7.33617 0.0660963 0)
(7.33678 0.0737256 0)
(7.33887 0.0817323 0)
(7.34262 0.0896262 0)
(7.33315 0.00236909 0)
(7.33444 0.00661515 0)
(7.33656 0.0098003 0)
(7.33882 0.0121489 0)
(7.34092 0.0140006 0)
(7.3429 0.0154786 0)
(7.34474 0.016664 0)
(7.3464 0.0176565 0)
(7.34787 0.0185289 0)
(7.34917 0.0193257 0)
(7.35031 0.020081 0)
(7.35127 0.0208239 0)
(7.35206 0.0215791 0)
(7.35269 0.0223682 0)
(7.35313 0.0232121 0)
(7.35341 0.0241321 0)
(7.3535 0.025151 0)
(7.35341 0.0262941 0)
(7.35315 0.0275902 0)
(7.3527 0.0290729 0)
(7.35208 0.0307814 0)
(7.3513 0.0327619 0)
(7.35037 0.0350683 0)
(7.34934 0.0377627 0)
(7.34825 0.0409141 0)
(7.34717 0.0445952 0)
(7.34623 0.048875 0)
(7.34556 0.0538052 0)
(7.34538 0.0594004 0)
(7.34592 0.0656054 0)
(7.34743 0.0722704 0)
(7.35012 0.0791098 0)
(7.35408 0.0857441 0)
(7.33312 0.00207627 0)
(7.33413 0.00589805 0)
(7.3359 0.0089235 0)
(7.33788 0.0112378 0)
(7.33979 0.0130907 0)
(7.34161 0.0146011 0)
(7.34333 0.0158408 0)
(7.34492 0.0168939 0)
(7.34635 0.0178288 0)
(7.34764 0.0186905 0)
(7.34878 0.0195131 0)
(7.34979 0.0203262 0)
(7.35065 0.021155 0)
(7.35138 0.0220218 0)
(7.35196 0.022948 0)
(7.3524 0.023955 0)
(7.3527 0.0250657 0)
(7.35285 0.0263048 0)
(7.35287 0.0277 0)
(7.35275 0.0292827 0)
(7.35251 0.0310887 0)
(7.35215 0.0331588 0)
(7.35172 0.0355385 0)
(7.35123 0.0382777 0)
(7.35076 0.0414282 0)
(7.35037 0.0450394 0)
(7.35017 0.0491511 0)
(7.35029 0.0537815 0)
(7.35089 0.0589119 0)
(7.35215 0.064467 0)
(7.35423 0.0702998 0)
(7.35727 0.0761802 0)
(7.36128 0.0818227 0)
(7.33309 0.00184096 0)
(7.33391 0.0052925 0)
(7.33539 0.00814313 0)
(7.33713 0.0103996 0)
(7.33886 0.0122372 0)
(7.34054 0.0137627 0)
(7.34216 0.0150407 0)
(7.34366 0.016142 0)
(7.34505 0.0171287 0)
(7.34631 0.018045 0)
(7.34745 0.0189248 0)
(7.34847 0.0197972 0)
(7.34937 0.0206877 0)
(7.35015 0.021619 0)
(7.35081 0.0226126 0)
(7.35135 0.0236899 0)
(7.35178 0.0248732 0)
(7.35209 0.0261865 0)
(7.3523 0.0276557 0)
(7.35241 0.0293095 0)
(7.35244 0.0311798 0)
(7.3524 0.033301 0)
(7.35233 0.0357104 0)
(7.35226 0.0384459 0)
(7.35225 0.0415441 0)
(7.35238 0.045035 0)
(7.35273 0.048936 0)
(7.35342 0.0532425 0)
(7.35456 0.0579171 0)
(7.35629 0.0628781 0)
(7.35871 0.0679929 0)
(7.36191 0.073078 0)
(7.36588 0.0779209 0)
(7.33307 0.00164734 0)
(7.33374 0.0047756 0)
(7.33499 0.00744658 0)
(7.33652 0.00962704 0)
(7.3381 0.0114348 0)
(7.33966 0.0129608 0)
(7.34117 0.0142628 0)
(7.34261 0.0154004 0)
(7.34395 0.0164293 0)
(7.34518 0.0173915 0)
(7.34631 0.0183202 0)
(7.34734 0.0192436 0)
(7.34826 0.0201869 0)
(7.34908 0.0211728 0)
(7.3498 0.0222224 0)
(7.35043 0.0233569 0)
(7.35095 0.0245977 0)
(7.35139 0.0259673 0)
(7.35176 0.0274896 0)
(7.35205 0.0291902 0)
(7.35229 0.0310964 0)
(7.3525 0.0332366 0)
(7.35272 0.0356396 0)
(7.35298 0.0383331 0)
(7.35334 0.04134 0)
(7.35386 0.0446755 0)
(7.35462 0.0483408 0)
(7.35571 0.0523167 0)
(7.35722 0.056557 0)
(7.35925 0.060982 0)
(7.36187 0.0654771 0)
(7.36511 0.069897 0)
(7.36896 0.0740837 0)
(7.33306 0.00148446 0)
(7.33362 0.004329 0)
(7.33469 0.00682192 0)
(7.33604 0.00891319 0)
(7.33747 0.0106785 0)
(7.33892 0.012192 0)
(7.34034 0.0135048 0)
(7.34172 0.0146675 0)
(7.34301 0.015729 0)
(7.34423 0.0167286 0)
(7.34535 0.0176981 0)
(7.34639 0.0186646 0)
(7.34734 0.0196527 0)
(7.3482 0.0206844 0)
(7.34897 0.0217803 0)
(7.34967 0.0229606 0)
(7.35029 0.0242457 0)
(7.35084 0.0256562 0)
(7.35134 0.0272135 0)
(7.35179 0.02894 0)
(7.35222 0.0308582 0)
(7.35265 0.0329907 0)
(7.35311 0.0353587 0)
(7.35364 0.0379805 0)
(7.3543 0.0408686 0)
(7.35513 0.0440265 0)
(7.3562 0.0474446 0)
(7.35758 0.0510956 0)
(7.35935 0.0549304 0)
(7.36157 0.058876 0)
(7.36428 0.0628357 0)
(7.36749 0.0666952 0)
(7.37119 0.0703366 0)
(7.33305 0.0013446 0)
(7.33353 0.00393807 0)
(7.33445 0.00625813 0)
(7.33565 0.00825103 0)
(7.33696 0.00996302 0)
(7.3383 0.0114526 0)
(7.33965 0.0127642 0)
(7.34096 0.013941 0)
(7.34223 0.0150255 0)
(7.34342 0.0160538 0)
(7.34454 0.0170559 0)
(7.34559 0.0180576 0)
(7.34657 0.0190823 0)
(7.34747 0.020151 0)
(7.34831 0.0212836 0)
(7.34908 0.022499 0)
(7.34979 0.0238159 0)
(7.35045 0.0252532 0)
(7.35108 0.0268294 0)
(7.35168 0.0285634 0)
(7.35228 0.0304733 0)
(7.3529 0.0325762 0)
(7.35357 0.0348865 0)
(7.35434 0.0374148 0)
(7.35524 0.0401654 0)
(7.35632 0.0431336 0)
(7.35763 0.046303 0)
(7.35924 0.0496424 0)
(7.36118 0.0531041 0)
(7.36351 0.0566232 0)
(7.36625 0.0601199 0)
(7.3694 0.0635041 0)
(7.37294 0.0666877 0)
(7.33304 0.00122221 0)
(7.33345 0.00359116 0)
(7.33426 0.00574521 0)
(7.33534 0.00763368 0)
(7.33654 0.00928322 0)
(7.33779 0.0107387 0)
(7.33907 0.0120382 0)
(7.34034 0.0132185 0)
(7.34156 0.0143163 0)
(7.34275 0.0153645 0)
(7.34387 0.0163907 0)
(7.34494 0.0174192 0)
(7.34595 0.0184719 0)
(7.3469 0.0195688 0)
(7.34779 0.0207283 0)
(7.34863 0.0219681 0)
(7.34944 0.0233051 0)
(7.3502 0.0247557 0)
(7.35095 0.026336 0)
(7.3517 0.0280613 0)
(7.35245 0.0299455 0)
(7.35325 0.0320006 0)
(7.35412 0.0342356 0)
(7.35508 0.0366548 0)
(7.35619 0.0392563 0)
(7.35747 0.04203 0)
(7.35898 0.0449557 0)
(7.36075 0.0480015 0)
(7.36282 0.0511229 0)
(7.36521 0.054264 0)
(7.36794 0.0573592 0)
(7.37102 0.060338 0)
(7.3744 0.0631338 0)
(7.33304 0.00111318 0)
(7.3334 0.00327894 0)
(7.33411 0.00527418 0)
(7.33508 0.00705441 0)
(7.33619 0.0086338 0)
(7.33737 0.0100462 0)
(7.33859 0.0113235 0)
(7.33981 0.0124971 0)
(7.34102 0.0135988 0)
(7.34219 0.0146578 0)
(7.34332 0.0156993 0)
(7.34441 0.016746 0)
(7.34545 0.017818 0)
(7.34644 0.0189339 0)
(7.3474 0.0201106 0)
(7.34832 0.0213641 0)
(7.34921 0.0227095 0)
(7.35008 0.024161 0)
(7.35095 0.0257317 0)
(7.35183 0.0274337 0)
(7.35274 0.0292772 0)
(7.35369 0.0312699 0)
(7.35473 0.0334161 0)
(7.35587 0.0357155 0)
(7.35715 0.0381617 0)
(7.3586 0.0407414 0)
(7.36026 0.0434327 0)
(7.36215 0.0462049 0)
(7.3643 0.0490179 0)
(7.36673 0.0518241 0)
(7.36944 0.0545703 0)
(7.37243 0.0572009 0)
(7.37566 0.0596658 0)
(7.33304 0.00101439 0)
(7.33335 0.00299388 0)
(7.334 0.00483706 0)
(7.33488 0.00650666 0)
(7.33591 0.00800941 0)
(7.33703 0.00937049 0)
(7.33819 0.0106164 0)
(7.33938 0.0117738 0)
(7.34056 0.01287 0)
(7.34173 0.0139307 0)
(7.34287 0.0149788 0)
(7.34398 0.0160348 0)
(7.34506 0.0171171 0)
(7.34611 0.0182426 0)
(7.34713 0.0194267 0)
(7.34812 0.0206836 0)
(7.3491 0.0220263 0)
(7.35007 0.0234667 0)
(7.35105 0.0250154 0)
(7.35206 0.0266814 0)
(7.3531 0.0284717 0)
(7.3542 0.0303902 0)
(7.35539 0.0324377 0)
(7.35668 0.0346104 0)
(7.35811 0.0368992 0)
(7.3597 0.0392889 0)
(7.36147 0.0417577 0)
(7.36346 0.0442767 0)
(7.36566 0.046811 0)
(7.3681 0.0493205 0)
(7.37078 0.051762 0)
(7.37368 0.0540919 0)
(7.37677 0.0562721 0)
(7.33303 0.000923398 0)
(7.33332 0.00272979 0)
(7.3339 0.00442671 0)
(7.33472 0.00598414 0)
(7.33569 0.00740467 0)
(7.33675 0.00870703 0)
(7.33787 0.00991297 0)
(7.33903 0.0110451 0)
(7.3402 0.0121266 0)
(7.34137 0.0131801 0)
(7.34252 0.0142258 0)
(7.34366 0.0152822 0)
(7.34477 0.0163658 0)
(7.34587 0.0174917 0)
(7.34695 0.0186736 0)
(7.34802 0.0199237 0)
(7.34908 0.0212531 0)
(7.35016 0.0226714 0)
(7.35124 0.024187 0)
(7.35236 0.025806 0)
(7.35353 0.0275325 0)
(7.35476 0.0293678 0)
(7.35608 0.0313098 0)
(7.35751 0.0333522 0)
(7.35906 0.0354844 0)
(7.36076 0.0376905 0)
(7.36262 0.0399497 0)
(7.36467 0.0422358 0)
(7.36691 0.0445187 0)
(7.36935 0.0467648 0)
(7.37198 0.0489393 0)
(7.3748 0.0510079 0)
(7.37777 0.0529415 0)
(7.33303 0.000838245 0)
(7.33329 0.00248149 0)
(7.33383 0.00403679 0)
(7.3346 0.00548078 0)
(7.33551 0.00681417 0)
(7.33653 0.00805098 0)
(7.33762 0.00920895 0)
(7.33876 0.0103071 0)
(7.33992 0.0113652 0)
(7.34109 0.0124026 0)
(7.34226 0.0134372 0)
(7.34342 0.0144852 0)
(7.34458 0.0155611 0)
(7.34572 0.0166782 0)
(7.34687 0.0178484 0)
(7.34801 0.0190821 0)
(7.34916 0.0203883 0)
(7.35032 0.0217747 0)
(7.35151 0.0232472 0)
(7.35273 0.0248098 0)
(7.35401 0.0264643 0)
(7.35536 0.0282096 0)
(7.35679 0.0300416 0)
(7.35833 0.0319526 0)
(7.35998 0.0339311 0)
(7.36177 0.0359617 0)
(7.36371 0.0380248 0)
(7.36581 0.0400972 0)
(7.36807 0.0421532 0)
(7.37049 0.044165 0)
(7.37307 0.0461045 0)
(7.37581 0.0479447 0)
(7.37867 0.0496633 0)
(7.33303 0.000757292 0)
(7.33327 0.00224457 0)
(7.33378 0.00366152 0)
(7.3345 0.00499077 0)
(7.33538 0.00623248 0)
(7.33636 0.00739734 0)
(7.33743 0.00849981 0)
(7.33855 0.00955578 0)
(7.3397 0.0105819 0)
(7.34088 0.0115947 0)
(7.34207 0.0126095 0)
(7.34327 0.0136404 0)
(7.34446 0.0146999 0)
(7.34566 0.0157994 0)
(7.34686 0.0169489 0)
(7.34808 0.0181571 0)
(7.3493 0.019431 0)
(7.35055 0.0207765 0)
(7.35183 0.0221974 0)
(7.35316 0.0236959 0)
(7.35454 0.0252718 0)
(7.35599 0.0269223 0)
(7.35752 0.028642 0)
(7.35915 0.0304224 0)
(7.36088 0.0322519 0)
(7.36274 0.0341157 0)
(7.36473 0.0359961 0)
(7.36686 0.0378729 0)
(7.36913 0.0397241 0)
(7.37153 0.0415269 0)
(7.37406 0.0432586 0)
(7.37672 0.044898 0)
(7.37948 0.046428 0)
(7.33303 0.000679133 0)
(7.33326 0.00201516 0)
(7.33374 0.00329563 0)
(7.33443 0.00450847 0)
(7.33528 0.00565409 0)
(7.33624 0.00674094 0)
(7.33728 0.00778075 0)
(7.3384 0.00878673 0)
(7.33956 0.00977276 0)
(7.34075 0.0107526 0)
(7.34196 0.0117393 0)
(7.34319 0.0127446 0)
(7.34443 0.0137793 0)
(7.34568 0.0148527 0)
(7.34694 0.0159731 0)
(7.34822 0.0171473 0)
(7.34952 0.0183808 0)
(7.35084 0.0196774 0)
(7.35221 0.0210396 0)
(7.35362 0.0224676 0)
(7.35509 0.02396 0)
(7.35663 0.0255127 0)
(7.35825 0.0271194 0)
(7.35995 0.0287715 0)
(7.36176 0.0304576 0)
(7.36367 0.0321638 0)
(7.3657 0.0338746 0)
(7.36785 0.0355722 0)
(7.37011 0.0372384 0)
(7.37249 0.0388543 0)
(7.37497 0.0404016 0)
(7.37755 0.0418636 0)
(7.38022 0.043227 0)
(7.33303 0.000602519 0)
(7.33325 0.00178978 0)
(7.33371 0.00293419 0)
(7.33438 0.00402835 0)
(7.33521 0.00507345 0)
(7.33615 0.00607638 0)
(7.33719 0.0070467 0)
(7.3383 0.00799522 0)
(7.33947 0.00893332 0)
(7.34068 0.0098723 0)
(7.34192 0.0108228 0)
(7.34318 0.0117946 0)
(7.34446 0.0127964 0)
(7.34576 0.0138358 0)
(7.34708 0.0149192 0)
(7.34842 0.0160518 0)
(7.34979 0.0172375 0)
(7.35119 0.0184785 0)
(7.35264 0.0197759 0)
(7.35413 0.0211286 0)
(7.35568 0.0225339 0)
(7.35729 0.0239872 0)
(7.35898 0.0254818 0)
(7.36075 0.0270088 0)
(7.36261 0.0285576 0)
(7.36457 0.0301157 0)
(7.36662 0.0316691 0)
(7.36877 0.0332029 0)
(7.37103 0.0347016 0)
(7.37337 0.0361497 0)
(7.37581 0.0375327 0)
(7.37832 0.0388371 0)
(7.3809 0.0400528 0)
(7.33302 0.000526298 0)
(7.33324 0.00156514 0)
(7.3337 0.00257243 0)
(7.33435 0.00354492 0)
(7.33517 0.00448484 0)
(7.3361 0.00539803 0)
(7.33714 0.00629226 0)
(7.33826 0.00717622 0)
(7.33944 0.00805899 0)
(7.34067 0.00894954 0)
(7.34194 0.00985632 0)
(7.34324 0.010787 0)
(7.34456 0.0117485 0)
(7.34591 0.0127464 0)
(7.34728 0.0137857 0)
(7.34869 0.0148698 0)
(7.35012 0.0160012 0)
(7.35159 0.017181 0)
(7.3531 0.0184086 0)
(7.35467 0.0196823 0)
(7.35628 0.0209985 0)
(7.35796 0.022352 0)
(7.35971 0.023736 0)
(7.36154 0.0251421 0)
(7.36344 0.0265602 0)
(7.36543 0.0279793 0)
(7.3675 0.029387 0)
(7.36965 0.0307707 0)
(7.37189 0.0321175 0)
(7.37421 0.0334147 0)
(7.37659 0.0346506 0)
(7.37904 0.0358144 0)
(7.38154 0.0368985 0)
(7.33302 0.000449355 0)
(7.33324 0.00133809 0)
(7.33369 0.00220564 0)
(7.33434 0.00305259 0)
(7.33515 0.00388231 0)
(7.33609 0.00469994 0)
(7.33714 0.00551168 0)
(7.33827 0.0063243 0)
(7.33947 0.00714476 0)
(7.34073 0.00797982 0)
(7.34202 0.0088358 0)
(7.34336 0.0097184 0)
(7.34473 0.0106326 0)
(7.34612 0.0115824 0)
(7.34755 0.0125711 0)
(7.34901 0.0136007 0)
(7.35051 0.0146724 0)
(7.35204 0.0157861 0)
(7.35362 0.0169403 0)
(7.35524 0.0181324 0)
(7.35692 0.0193583 0)
(7.35865 0.0206125 0)
(7.36045 0.0218884 0)
(7.36232 0.023178 0)
(7.36426 0.0244722 0)
(7.36626 0.025761 0)
(7.36834 0.0270339 0)
(7.3705 0.0282801 0)
(7.37271 0.0294888 0)
(7.375 0.0306498 0)
(7.37733 0.0317535 0)
(7.37972 0.0327914 0)
(7.38215 0.0337576 0)
(7.33302 0.000370564 0)
(7.33324 0.00110539 0)
(7.33369 0.00182896 0)
(7.33435 0.00254549 0)
(7.33517 0.00325953 0)
(7.33612 0.00397569 0)
(7.33718 0.00469873 0)
(7.33833 0.00543362 0)
(7.33955 0.00618525 0)
(7.34084 0.00695829 0)
(7.34217 0.00775699 0)
(7.34354 0.0085851 0)
(7.34496 0.00944579 0)
(7.3464 0.0103415 0)
(7.34788 0.011274 0)
(7.3494 0.012244 0)
(7.35095 0.0132514 0)
(7.35254 0.0142952 0)
(7.35417 0.0153732 0)
(7.35585 0.016482 0)
(7.35758 0.0176173 0)
(7.35936 0.0187737 0)
(7.3612 0.0199445 0)
(7.3631 0.0211225 0)
(7.36506 0.0222993 0)
(7.36709 0.0234663 0)
(7.36917 0.0246143 0)
(7.37131 0.0257343 0)
(7.37351 0.0268172 0)
(7.37576 0.0278548 0)
(7.37805 0.0288393 0)
(7.38038 0.0297639 0)
(7.38274 0.0306241 0)
(7.33302 0.000288726 0)
(7.33325 0.000863586 0)
(7.3337 0.00143717 0)
(7.33437 0.00201726 0)
(7.3352 0.00260962 0)
(7.33617 0.00321828 0)
(7.33726 0.00384662 0)
(7.33844 0.00449776 0)
(7.33969 0.00517461 0)
(7.34101 0.00587972 0)
(7.34238 0.00661534 0)
(7.3438 0.0073833 0)
(7.34525 0.00818504 0)
(7.34675 0.00902148 0)
(7.34828 0.00989291 0)
(7.34984 0.010799 0)
(7.35144 0.0117385 0)
(7.35309 0.0127095 0)
(7.35477 0.0137093 0)
(7.3565 0.0147341 0)
(7.35827 0.0157793 0)
(7.3601 0.0168396 0)
(7.36197 0.0179088 0)
(7.3639 0.0189801 0)
(7.36588 0.0200461 0)
(7.36791 0.0210991 0)
(7.36999 0.0221315 0)
(7.37212 0.0231355 0)
(7.3743 0.0241036 0)
(7.37651 0.0250291 0)
(7.37876 0.0259057 0)
(7.38104 0.026728 0)
(7.38334 0.0274927 0)
(7.33303 0.00020249 0)
(7.33325 0.00060881 0)
(7.33373 0.00102438 0)
(7.33441 0.00146076 0)
(7.33527 0.00192484 0)
(7.33627 0.00241992 0)
(7.33739 0.00294777 0)
(7.3386 0.00350964 0)
(7.33989 0.00410637 0)
(7.34125 0.00473839 0)
(7.34266 0.00540588 0)
(7.34412 0.00610885 0)
(7.34562 0.00684703 0)
(7.34716 0.00761986 0)
(7.34874 0.00842634 0)
(7.35035 0.00926501 0)
(7.352 0.0101338 0)
(7.35369 0.0110301 0)
(7.35542 0.0119506 0)
(7.35719 0.0128912 0)
(7.35901 0.0138475 0)
(7.36086 0.014814 0)
(7.36277 0.0157852 0)
(7.36471 0.0167547 0)
(7.3667 0.017716 0)
(7.36874 0.0186625 0)
(7.37082 0.0195875 0)
(7.37294 0.0204846 0)
(7.37509 0.0213476 0)
(7.37727 0.0221709 0)
(7.37948 0.0229495 0)
(7.38171 0.0236791 0)
(7.38395 0.024357 0)
(7.33303 0.000110246 0)
(7.33327 0.000336445 0)
(7.33376 0.000583676 0)
(7.33448 0.000867656 0)
(7.33537 0.00119628 0)
(7.33641 0.00157166 0)
(7.33756 0.00199362 0)
(7.33882 0.00246132 0)
(7.34015 0.00297338 0)
(7.34156 0.00352799 0)
(7.34301 0.00412324 0)
(7.34452 0.00475723 0)
(7.34607 0.0054281 0)
(7.34765 0.00613384 0)
(7.34928 0.00687227 0)
(7.35094 0.00764094 0)
(7.35264 0.00843702 0)
(7.35437 0.00925728 0)
(7.35614 0.010098 0)
(7.35795 0.0109552 0)
(7.35979 0.011824 0)
(7.36168 0.0126996 0)
(7.3636 0.0135765 0)
(7.36556 0.0144493 0)
(7.36757 0.015312 0)
(7.3696 0.0161589 0)
(7.37167 0.0169844 0)
(7.37377 0.017783 0)
(7.3759 0.0185496 0)
(7.37806 0.0192796 0)
(7.38022 0.0199691 0)
(7.38241 0.0206145 0)
(7.3846 0.0212138 0)
(7.33303 9.96248e-06 0)
(7.33328 4.07009e-05 0)
(7.33381 0.000106462 0)
(7.33457 0.000227858 0)
(7.33551 0.00041339 0)
(7.3366 0.000663109 0)
(7.3378 0.000974314 0)
(7.33911 0.00134373 0)
(7.3405 0.00176753 0)
(7.34195 0.00224149 0)
(7.34345 0.00276149 0)
(7.34501 0.00332374 0)
(7.3466 0.00392471 0)
(7.34824 0.00456105 0)
(7.34991 0.00522942 0)
(7.35161 0.00592645 0)
(7.35335 0.00664866 0)
(7.35512 0.00739233 0)
(7.35693 0.00815349 0)
(7.35877 0.00892793 0)
(7.36064 0.00971112 0)
(7.36255 0.0104983 0)
(7.3645 0.0112847 0)
(7.36647 0.012065 0)
(7.36848 0.0128344 0)
(7.37051 0.0135877 0)
(7.37258 0.0143202 0)
(7.37466 0.0150274 0)
(7.37677 0.0157049 0)
(7.37889 0.016349 0)
(7.38102 0.0169566 0)
(7.38317 0.0175249 0)
(7.38531 0.0180523 0)
(7.33303 -0.000101076 0)
(7.33331 -0.000286087 0)
(7.33388 -0.000418366 0)
(7.33469 -0.00047132 0)
(7.3357 -0.000436768 0)
(7.33685 -0.000318149 0)
(7.33812 -0.000121612 0)
(7.33948 0.000146595 0)
(7.34093 0.000479715 0)
(7.34244 0.000870756 0)
(7.344 0.00131327 0)
(7.3456 0.00180158 0)
(7.34725 0.00233066 0)
(7.34893 0.00289585 0)
(7.35064 0.00349283 0)
(7.35239 0.00411742 0)
(7.35417 0.00476556 0)
(7.35598 0.00543314 0)
(7.35782 0.006116 0)
(7.35969 0.00680986 0)
(7.36159 0.00751035 0)
(7.36352 0.00821299 0)
(7.36547 0.00891327 0)
(7.36746 0.00960667 0)
(7.36947 0.0102887 0)
(7.3715 0.0109551 0)
(7.37355 0.0116017 0)
(7.37562 0.0122248 0)
(7.37771 0.0128207 0)
(7.3798 0.0133866 0)
(7.3819 0.0139196 0)
(7.38401 0.0144177 0)
(7.38611 0.0148796 0)
(7.33303 -0.000226711 0)
(7.33334 -0.000654645 0)
(7.33397 -0.0010058 0)
(7.33487 -0.00124619 0)
(7.33596 -0.0013703 0)
(7.33718 -0.00138754 0)
(7.33853 -0.00130832 0)
(7.33997 -0.00114218 0)
(7.34148 -0.000899399 0)
(7.34305 -0.000590433 0)
(7.34467 -0.000224554 0)
(7.34633 0.00019043 0)
(7.34802 0.000647795 0)
(7.34975 0.00114162 0)
(7.35151 0.0016666 0)
(7.3533 0.00221795 0)
(7.35511 0.00279116 0)
(7.35696 0.00338192 0)
(7.35883 0.00398603 0)
(7.36073 0.0045993 0)
(7.36265 0.0052176 0)
(7.3646 0.00583681 0)
(7.36657 0.00645284 0)
(7.36856 0.0070617 0)
(7.37057 0.0076595 0)
(7.3726 0.00824254 0)
(7.37464 0.00880735 0)
(7.3767 0.00935073 0)
(7.37876 0.00986982 0)
(7.38084 0.0103621 0)
(7.38291 0.0108255 0)
(7.38498 0.0112582 0)
(7.38704 0.0116595 0)
(7.33304 -0.00037267 0)
(7.33339 -0.00108087 0)
(7.3341 -0.00167721 0)
(7.33511 -0.00211834 0)
(7.3363 -0.00240657 0)
(7.33763 -0.00256247 0)
(7.33907 -0.00260281 0)
(7.34059 -0.00254088 0)
(7.34218 -0.00239055 0)
(7.34382 -0.00216542 0)
(7.3455 -0.00187712 0)
(7.34722 -0.00153533 0)
(7.34897 -0.00114837 0)
(7.35074 -0.000723486 0)
(7.35255 -0.000267023 0)
(7.35438 0.000215431 0)
(7.35623 0.000718829 0)
(7.3581 0.00123851 0)
(7.36 0.00177011 0)
(7.36193 0.00230946 0)
(7.36387 0.00285259 0)
(7.36583 0.00339563 0)
(7.36782 0.0039349 0)
(7.36982 0.00446685 0)
(7.37183 0.00498811 0)
(7.37386 0.00549553 0)
(7.37589 0.00598619 0)
(7.37794 0.00645744 0)
(7.37999 0.00690694 0)
(7.38203 0.00733264 0)
(7.38408 0.00773282 0)
(7.38612 0.00810602 0)
(7.38816 0.00845155 0)
(7.33305 -0.000548067 0)
(7.33346 -0.00158878 0)
(7.3343 -0.00246383 0)
(7.33545 -0.00312026 0)
(7.33678 -0.00357511 0)
(7.33823 -0.00386335 0)
(7.33978 -0.00401026 0)
(7.3414 -0.00403731 0)
(7.34308 -0.00396635 0)
(7.3448 -0.00381632 0)
(7.34655 -0.00360166 0)
(7.34834 -0.00333351 0)
(7.35014 -0.00302107 0)
(7.35197 -0.00267202 0)
(7.35382 -0.00229279 0)
(7.3557 -0.00188889 0)
(7.35759 -0.0014652 0)
(7.3595 -0.00102614 0)
(7.36143 -0.000575835 0)
(7.36338 -0.000118122 0)
(7.36535 0.000343341 0)
(7.36733 0.000805079 0)
(7.36932 0.00126378 0)
(7.37133 0.00171632 0)
(7.37335 0.00215977 0)
(7.37537 0.00259139 0)
(7.3774 0.00300869 0)
(7.37944 0.00340944 0)
(7.38147 0.00379168 0)
(7.3835 0.00415373 0)
(7.38553 0.00449425 0)
(7.38754 0.00481218 0)
(7.38954 0.00510714 0)
(7.33306 -0.000769822 0)
(7.33358 -0.00221844 0)
(7.3346 -0.00340225 0)
(7.33596 -0.0042831 0)
(7.33747 -0.00492354 0)
(7.33908 -0.00537184 0)
(7.34077 -0.00564819 0)
(7.34252 -0.00577542 0)
(7.3443 -0.00578293 0)
(7.3461 -0.00569654 0)
(7.34793 -0.00553556 0)
(7.34978 -0.00531513 0)
(7.35165 -0.00504781 0)
(7.35353 -0.00474379 0)
(7.35544 -0.00441116 0)
(7.35736 -0.00405645 0)
(7.35929 -0.00368508 0)
(7.36125 -0.00330163 0)
(7.36321 -0.00291008 0)
(7.36519 -0.00251395 0)
(7.36719 -0.00211641 0)
(7.36919 -0.00172037 0)
(7.3712 -0.00132853 0)
(7.37322 -0.000943362 0)
(7.37524 -0.000567176 0)
(7.37726 -0.000202072 0)
(7.37929 0.000150043 0)
(7.38131 0.000487462 0)
(7.38332 0.000808683 0)
(7.38533 0.0011124 0)
(7.38732 0.0013975 0)
(7.3893 0.00166298 0)
(7.39127 0.00190828 0)
(7.33308 -0.00106652 0)
(7.33379 -0.00306795 0)
(7.3351 -0.00458451 0)
(7.33672 -0.00560785 0)
(7.33845 -0.00632164 0)
(7.34025 -0.00683601 0)
(7.34214 -0.00718591 0)
(7.34406 -0.00739908 0)
(7.34601 -0.00750601 0)
(7.34796 -0.00752918 0)
(7.34992 -0.00748307 0)
(7.35188 -0.00737889 0)
(7.35385 -0.00722642 0)
(7.35583 -0.00703393 0)
(7.35781 -0.00680834 0)
(7.35979 -0.00655562 0)
(7.36178 -0.00628102 0)
(7.36377 -0.00598923 0)
(7.36576 -0.00568445 0)
(7.36775 -0.00537047 0)
(7.36975 -0.00505073 0)
(7.37174 -0.00472836 0)
(7.37373 -0.00440622 0)
(7.37571 -0.00408692 0)
(7.37769 -0.00377279 0)
(7.37965 -0.00346595 0)
(7.38161 -0.00316826 0)
(7.38355 -0.00288137 0)
(7.38548 -0.00260666 0)
(7.38739 -0.00234528 0)
(7.38928 -0.00209813 0)
(7.39114 -0.0018658 0)
(7.39298 -0.00164847 0)
(7.3331 -0.00144795 0)
(7.33415 -0.00420793 0)
(7.33607 -0.00631338 0)
(7.33822 -0.00776542 0)
(7.34032 -0.00874948 0)
(7.34242 -0.00937481 0)
(7.34457 -0.00971929 0)
(7.34674 -0.00986544 0)
(7.3489 -0.00988008 0)
(7.35104 -0.00980552 0)
(7.35317 -0.00966872 0)
(7.35527 -0.00948876 0)
(7.35735 -0.00927906 0)
(7.35939 -0.00904849 0)
(7.3614 -0.00880287 0)
(7.36338 -0.00854626 0)
(7.36532 -0.00828165 0)
(7.36722 -0.00801136 0)
(7.36909 -0.00773733 0)
(7.37093 -0.00746124 0)
(7.37273 -0.0071847 0)
(7.3745 -0.00690921 0)
(7.37624 -0.00663623 0)
(7.37795 -0.00636717 0)
(7.37963 -0.00610339 0)
(7.38128 -0.00584616 0)
(7.3829 -0.00559666 0)
(7.38449 -0.00535601 0)
(7.38605 -0.00512518 0)
(7.38758 -0.00490511 0)
(7.38909 -0.00469665 0)
(7.39056 -0.00450069 0)
(7.39201 -0.00431793 0)
(7.33311 -0.00228415 0)
(7.33485 -0.00521424 0)
(7.33794 -0.00688081 0)
(7.34136 -0.00825341 0)
(7.34468 -0.00954424 0)
(7.34787 -0.0106134 0)
(7.35088 -0.011419 0)
(7.35363 -0.0120085 0)
(7.3561 -0.0124223 0)
(7.35832 -0.0126818 0)
(7.36029 -0.0128075 0)
(7.36204 -0.0128224 0)
(7.3636 -0.012748 0)
(7.36497 -0.0126025 0)
(7.36619 -0.012401 0)
(7.36727 -0.0121562 0)
(7.36823 -0.0118788 0)
(7.36909 -0.0115778 0)
(7.36986 -0.0112601 0)
(7.37056 -0.0109319 0)
(7.3712 -0.0105979 0)
(7.37178 -0.010262 0)
(7.37232 -0.00992764 0)
(7.37282 -0.00959734 0)
(7.37329 -0.00927329 0)
(7.37374 -0.00895727 0)
(7.37416 -0.00865066 0)
(7.37457 -0.00835459 0)
(7.37496 -0.00806989 0)
(7.37533 -0.00779716 0)
(7.3757 -0.00753679 0)
(7.37604 -0.00728899 0)
(7.37638 -0.00705363 0)
(7.3363 -0.00651746 0)
(7.34557 -0.0134874 0)
(7.35343 -0.0156876 0)
(7.35888 -0.0161919 0)
(7.36267 -0.0161562 0)
(7.36523 -0.0157424 0)
(7.36659 -0.0150799 0)
(7.36685 -0.014335 0)
(7.36623 -0.0136008 0)
(7.36494 -0.0129054 0)
(7.36313 -0.0122555 0)
(7.36094 -0.0116536 0)
(7.35847 -0.0110989 0)
(7.35582 -0.0105872 0)
(7.35304 -0.0101136 0)
(7.35021 -0.00967336 0)
(7.34735 -0.00926224 0)
(7.34452 -0.00887673 0)
(7.34172 -0.00851389 0)
(7.33899 -0.00817137 0)
(7.33634 -0.0078473 0)
(7.33377 -0.00754021 0)
(7.33129 -0.00724898 0)
(7.32891 -0.00697275 0)
(7.32662 -0.00671082 0)
(7.32444 -0.00646268 0)
(7.32236 -0.00622788 0)
(7.32037 -0.00600604 0)
(7.31848 -0.00579677 0)
(7.31668 -0.00559967 0)
(7.31497 -0.0054142 0)
(7.31335 -0.00523972 0)
(7.31181 -0.00507476 0)
(7.32508 -0.00547002 0)
(7.31334 -0.0121257 0)
(7.29927 -0.0150437 0)
(7.28288 -0.0161333 0)
(7.26681 -0.016313 0)
(7.25211 -0.0158771 0)
(7.23866 -0.0150375 0)
(7.22632 -0.0139938 0)
(7.21505 -0.0128818 0)
(7.20483 -0.0117757 0)
(7.19555 -0.0107166 0)
(7.18712 -0.00972767 0)
(7.17944 -0.00882009 0)
(7.17242 -0.00799663 0)
(7.16601 -0.00725494 0)
(7.16013 -0.00658996 0)