/*--------------------------------*- C++ -*----------------------------------*\
| =========                 |                                                 |
| \\      /  F ield         | OpenFOAM: The Open Source CFD Toolbox           |
|  \\    /   O peration     | Version:  4.1                                   |
|   \\  /    A nd           | Web:      www.OpenFOAM.org                      |
|    \\/     M anipulation  |                                                 |
\*---------------------------------------------------------------------------*/
FoamFile
{
    version     2.0;
    format      ascii;
    class       volScalarField;
    location    "1400";
    object      p;
}
// * * * * * * * * * * * * * * * * * * * * * * * * * * * * * * * * * * * * * //

dimensions      [0 2 -2 0 0 0 0];

internalField   nonuniform List<scalar> 
26785
(
318.703
311.707
308.825
309.17
312.337
317.935
324.974
332.382
339.156
344.63
348.502
350.686
351.216
350.191
347.741
343.981
338.936
332.565
324.599
314.209
300.454
283.456
264.075
242.928
220.511
197.437
174.262
151.107
127.652
103.631
79.3263
55.4173
32.5102
10.9153
-9.27617
-28.0149
-45.1778
-60.5649
-73.944
-85.0897
-93.803
-99.8989
-103.227
-103.649
-101.064
-95.4082
-86.6408
-74.7728
-59.7455
-41.1081
-17.7678
12.0735
50.7769
100.909
164.887
244.079
337.079
439.488
545.93
651.356
751.822
844.75
928.794
1003.46
1068.61
1124.12
1169.9
1206.19
1233.58
1252.85
1264.63
1269.12
1266.29
1256.48
1241.28
1223.13
1203.81
1182.83
1158.73
1127.8
1082.99
1019.19
936.619
839.346
734.686
634.706
551.04
484.393
431.604
389.504
352.634
316.597
279.807
242.289
204.257
165.971
128.139
91.0699
55.1228
18.2048
318.652
311.682
308.801
309.143
312.311
317.916
324.962
332.38
339.162
344.641
348.516
350.703
351.234
350.21
347.761
344.004
338.965
332.608
324.668
314.297
300.538
283.523
264.125
242.959
220.52
197.426
174.239
151.076
127.607
103.557
79.2177
55.2813
32.3578
10.7519
-9.45218
-28.2077
-45.3899
-60.7962
-74.1924
-85.3523
-94.0773
-100.182
-103.517
-103.944
-101.363
-95.7107
-86.9471
-75.093
-60.1048
-41.5437
-18.3215
11.3612
49.8755
99.8029
163.61
242.784
335.962
438.654
545.414
651.132
751.833
844.934
929.102
1003.87
1069.13
1124.75
1170.61
1206.95
1234.34
1253.61
1265.42
1269.94
1267.06
1257.07
1241.64
1223.36
1204.1
1183.34
1159.74
1129.53
1085.18
1021.18
937.923
839.595
733.6
632.572
548.975
482.789
430.447
388.971
352.591
316.791
280.114
242.677
204.664
166.315
128.422
91.3765
55.4087
18.509
318.584
311.641
308.757
309.094
312.264
317.878
324.94
332.376
339.173
344.663
348.544
350.736
351.269
350.247
347.802
344.051
339.024
332.698
324.812
314.471
300.7
283.651
264.216
243.011
220.527
197.394
174.186
151.012
127.517
103.412
79.0067
55.0193
32.0657
10.4385
-9.79111
-28.5812
-45.8037
-61.2498
-74.6815
-85.8705
-94.6196
-100.743
-104.093
-104.53
-101.956
-96.3099
-87.5534
-75.7268
-60.8179
-42.4103
-19.4255
9.93955
48.0762
97.6008
161.09
240.248
333.776
437.024
544.404
650.69
751.849
845.285
929.691
1004.65
1070.11
1125.93
1171.96
1208.36
1235.78
1255.05
1266.91
1271.49
1268.54
1258.22
1242.36
1223.84
1204.68
1184.3
1161.63
1132.71
1089.2
1024.9
940.413
840.186
731.735
628.664
544.994
479.589
428.16
387.946
352.539
317.201
280.749
243.473
205.488
167.008
128.996
92.0115
56.0731
19.1365
318.499
311.575
308.689
309.021
312.197
317.825
324.908
332.371
339.191
344.696
348.588
350.786
351.323
350.304
347.864
344.122
339.115
332.836
325.03
314.729
300.932
283.832
264.342
243.079
220.53
197.339
174.101
150.914
127.386
103.207
78.7112
54.6516
31.6515
9.98824
-10.2852
-29.133
-46.421
-61.931
-75.4181
-86.6517
-95.437
-101.587
-104.96
-105.412
-102.849
-97.2132
-88.4678
-76.6825
-61.8916
-43.7132
-21.0831
7.8052
45.3731
94.2937
157.332
236.486
330.541
434.617
542.913
650.034
751.865
845.791
930.536
1005.77
1071.5
1127.59
1173.82
1210.32
1237.75
1257.01
1268.93
1273.65
1270.65
1259.86
1243.38
1224.55
1205.52
1185.63
1164.16
1137
1094.72
1030.05
943.923
841.129
729.249
623.15
539.139
474.776
424.769
386.5
352.549
317.872
281.749
244.717
206.765
168.072
129.886
93.0111
57.2684
20.1423
318.397
311.493
308.606
308.933
312.113
317.757
324.868
332.367
339.216
344.741
348.647
350.854
351.396
350.382
347.947
344.22
339.24
333.027
325.318
315.07
301.235
284.069
264.506
243.166
220.532
197.268
173.993
150.793
127.227
102.958
78.3465
54.1909
31.1249
9.40597
-10.935
-29.8688
-47.2514
-62.8501
-76.4115
-87.7026
-96.5332
-102.717
-106.117
-106.588
-104.04
-98.4175
-89.6845
-77.9511
-63.3142
-45.4376
-23.2765
4.97843
41.7868
89.9039
152.364
231.531
326.277
431.44
540.934
649.142
751.85
846.411
931.585
1007.16
1073.23
1129.65
1176.12
1212.73
1240.17
1259.43
1271.41
1276.32
1273.34
1261.96
1244.66
1225.44
1206.57
1187.21
1167.09
1142.09
1101.41
1036.29
948.185
842.299
726.121
615.922
531.189
468.152
420.205
384.675
352.68
318.844
283.16
246.469
208.552
169.538
131.109
94.4082
59.211
21.5725
318.264
311.389
308.507
308.83
312.019
317.681
324.824
332.365
339.25
344.799
348.722
350.939
351.489
350.48
348.055
344.346
339.399
333.278
325.68
315.499
301.618
284.366
264.711
243.28
220.546
197.193
173.873
150.656
127.044
102.668
77.9166
53.6415
30.488
8.69009
-11.7473
-30.7994
-48.3058
-64.015
-77.6638
-89.0195
-97.901
-104.123
-107.557
-108.053
-105.525
-99.9202
-91.2007
-79.5289
-65.0804
-47.5747
-25.9919
1.47977
37.3449
84.467
146.246
225.458
321.065
427.568
538.523
648.054
751.829
847.154
932.83
1008.78
1075.24
1132.06
1178.82
1215.55
1242.99
1262.25
1274.29
1279.39
1276.54
1264.45
1246.14
1226.47
1207.78
1188.92
1170.19
1147.66
1108.99
1043.24
952.872
843.611
722.463
607.027
520.934
459.406
414.368
382.565
353.022
320.142
285.006
248.778
210.9
171.432
132.679
96.2503
62.2933
23.4766
318.123
311.273
308.397
308.715
311.912
317.595
324.776
332.368
339.295
344.873
348.815
351.045
351.604
350.602
348.188
344.502
339.598
333.597
326.128
316.023
302.09
284.729
264.966
243.432
220.584
197.126
173.747
150.504
126.839
102.337
77.4232
53.0051
29.7409
7.83679
-12.7298
-31.9333
-49.589
-65.4236
-79.1678
-90.5937
-99.5341
-105.805
-109.286
-109.817
-107.317
-101.733
-93.0231
-81.4171
-67.1872
-50.1196
-29.2237
-2.68699
32.0464
77.9779
138.985
218.304
314.958
423.062
535.734
646.811
751.833
848.041
934.274
1010.62
1077.5
1134.76
1181.85
1218.71
1246.14
1265.39
1277.54
1282.8
1280.15
1267.27
1247.76
1227.61
1209.1
1190.7
1173.28
1153.43
1117.19
1050.44
957.717
845.163
718.783
597.152
508.902
448.793
407.401
380.345
353.718
321.842
287.332
251.683
213.828
173.734
134.519
98.4552
66.5096
25.7143
317.986
311.137
308.271
308.585
311.792
317.497
324.722
332.373
339.348
344.961
348.925
351.172
351.741
350.75
348.351
344.694
339.841
333.991
326.673
316.647
302.654
285.163
265.278
243.631
220.654
197.071
173.618
150.339
126.609
101.964
76.8646
52.2809
28.8813
6.84035
-13.8906
-33.2764
-51.102
-67.0736
-80.9217
-92.4277
-101.442
-107.778
-111.323
-111.9
-109.433
-103.868
-95.1585
-83.6173
-69.6348
-53.0748
-32.9807
-7.5424
25.8523
70.3758
130.508
210.002
307.921
417.919
532.584
645.441
751.9
849.109
935.94
1012.7
1080
1137.72
1185.17
1222.17
1249.55
1268.78
1281.1
1286.56
1284.09
1270.29
1249.41
1228.82
1210.49
1192.45
1176.12
1159.16
1125.69
1057.69
962.869
847.637
716.484
587.978
496.092
437.235
400.317
378.547
354.855
323.907
290.145
255.216
217.377
176.505
136.669
101.393
71.5187
28.5112
317.846
310.979
308.13
308.444
311.662
317.392
324.665
332.382
339.413
345.063
349.055
351.321
351.904
350.926
348.547
344.926
340.136
334.451
327.316
317.373
303.31
285.669
265.651
243.881
220.76
197.035
173.489
150.16
126.351
101.545
76.239
51.4676
27.906
5.694
-15.2378
-34.8348
-52.8482
-68.9683
-82.932
-94.5335
-103.642
-110.065
-113.692
-114.322
-111.891
-106.339
-97.6111
-86.1287
-72.421
-56.4403
-37.2693
-13.1055
18.7211
61.5881
120.706
200.427
299.845
412.061
529.021
643.922
752.033
850.379
937.859
1015.01
1082.72
1140.92
1188.73
1225.85
1253.17
1272.33
1284.89
1290.66
1288.32
1273.37
1250.96
1230.05
1211.96
1194.27
1178.74
1164.5
1133.75
1064.92
968.92
852.144
717.708
582.791
484.803
425.687
394.041
378.105
356.873
326.335
293.272
259.145
221.255
179.421
138.636
105.261
75.8213
30.0527
317.699
310.802
307.973
308.288
311.521
317.278
324.607
332.397
339.488
345.182
349.205
351.493
352.094
351.133
348.779
345.201
340.486
334.971
328.044
318.196
304.055
286.248
266.086
244.184
220.907
197.019
173.361
149.967
126.064
101.076
75.5436
50.5621
26.8086
4.38755
-16.7824
-36.6171
-54.8341
-71.1149
-85.2092
-96.9258
-106.154
-112.684
-116.41
-117.099
-114.7
-109.151
-100.38
-88.9451
-75.538
-60.2092
-42.086
-19.3825
10.6256
51.558
109.482
189.455
290.613
405.379
524.95
642.183
752.194
851.845
940.044
1017.59
1085.69
1144.34
1192.51
1229.73
1256.92
1275.99
1288.82
1295.07
1292.79
1276.52
1252.43
1231.14
1213.17
1195.67
1180.64
1168.74
1140.63
1071.82
975.565
857.994
721.11
580.651
476.629
417.13
389.813
378.805
359.813
329.486
297.072
263.721
225.646
182.672
140.999
110.121
78.994
27.682
317.498
310.594
307.795
308.114
311.365
317.157
324.549
332.421
339.578
345.319
349.377
351.691
352.313
351.375
349.051
345.521
340.89
335.542
328.839
319.104
304.882
286.895
266.582
244.541
221.094
197.026
173.237
149.76
125.744
100.555
74.7741
49.5582
25.5789
2.90727
-18.537
-38.632
-57.0662
-73.521
-87.7642
-99.6188
-108.993
-115.653
-119.495
-120.242
-117.871
-112.309
-103.462
-92.0565
-78.9734
-64.3695
-47.4212
-26.3739
1.54396
40.2347
96.7514
176.988
280.131
397.777
520.268
640.133
752.315
853.462
942.483
1020.45
1088.9
1147.97
1196.47
1233.74
1260.75
1279.64
1292.76
1299.72
1297.39
1279.85
1254.5
1233.12
1215.15
1197.69
1182.52
1172.82
1147.56
1078.16
981.863
864.377
724.903
578.682
468.302
410.292
390.216
381.684
362.95
332.547
300.755
268.061
229.697
185.199
142.839
116.515
88.0478
31.5067
317.254
310.36
307.595
307.919
311.192
317.025
324.49
332.454
339.684
345.477
349.573
351.917
352.563
351.651
349.36
345.883
341.342
336.154
329.677
320.082
305.783
287.607
267.136
244.95
221.322
197.057
173.117
149.538
125.389
99.9752
73.9239
48.4457
24.2025
1.23838
-20.5119
-40.8855
-59.5499
-76.194
-90.6079
-102.627
-112.176
-118.989
-122.961
-123.764
-121.412
-115.816
-106.848
-95.4492
-82.7113
-68.9046
-53.2598
-34.0754
-8.54443
27.5648
82.4261
162.921
268.311
389.173
514.884
637.683
752.315
855.165
945.137
1023.58
1092.37
1151.83
1200.61
1237.86
1264.6
1283.23
1296.59
1304.5
1301.06
1281.28
1254.67
1233.9
1216.31
1198.88
1184.24
1176.23
1152.89
1084.12
987.178
871.2
733.505
586.209
462.108
406.641
390.519
387.485
368.542
337.949
307.331
275.001
235.329
188.934
147.385
117.877
84.4249
28.7121
316.973
310.095
307.372
307.706
311.004
316.88
324.428
332.495
339.808
345.657
349.795
352.17
352.844
351.96
349.705
346.284
341.83
336.789
330.538
321.114
306.747
288.379
267.746
245.408
221.591
197.112
173.002
149.3
124.994
99.3307
72.9833
47.2116
22.6642
-0.631552
-22.7142
-43.3815
-62.2897
-79.142
-93.752
-105.964
-115.72
-122.707
-126.824
-127.674
-125.33
-119.674
-110.529
-99.1042
-86.7288
-73.7886
-59.5731
-42.4666
-19.6436
13.5076
66.4167
147.142
255.063
379.488
508.721
634.762
752.118
856.877
947.948
1026.94
1096.1
1155.9
1204.9
1242.06
1268.42
1286.67
1300.13
1309.28
1305.11
1284.77
1256.96
1236.22
1219.1
1202.29
1187.35
1175.61
1148.36
1084.17
992.399
879.571
744.147
599.679
477.575
413.63
392.122
392.273
373.65
342.068
310.338
276.774
237.661
193.432
152.753
119.898
81.8249
27.7597
316.658
309.802
307.13
307.48
310.804
316.727
324.366
332.547
339.949
345.86
350.042
352.451
353.153
352.3
350.081
346.715
342.342
337.43
331.404
322.183
307.765
289.203
268.408
245.914
221.898
197.193
172.893
149.047
124.557
98.6127
71.9402
45.8411
20.9503
-2.71099
-25.1472
-46.1226
-65.2909
-82.3736
-97.2085
-109.644
-119.639
-126.823
-131.098
-131.983
-129.632
-123.881
-114.485
-102.993
-90.9908
-78.9784
-66.3064
-51.4925
-31.7155
-1.93166
48.6742
129.561
240.312
368.652
501.711
631.312
751.663
858.525
950.85
1030.51
1100.06
1160.19
1209.33
1246.31
1272.18
1289.92
1303.15
1312.32
1307.3
1288.25
1262.84
1242.52
1225.06
1208.27
1191.91
1175.53
1144.98
1084.1
997.247
888.978
758.259
615.956
492.886
428.439
406.115
401.083
379.542
347.431
314.662
279.073
238.824
195.058
154.041
119.604
81.0718
27.6234
316.306
309.487
306.876
307.245
310.596
316.566
324.304
332.609
340.108
346.085
350.315
352.758
353.489
352.665
350.481
347.171
342.873
338.066
332.257
323.276
308.828
290.075
269.117
246.464
222.242
197.299
172.792
148.777
124.07
97.8105
70.7809
44.3206
19.0508
-5.00439
-27.8125
-49.1114
-68.5593
-85.8982
-100.989
-113.681
-123.95
-131.355
-135.8
-136.701
-134.321
-128.426
-118.683
-107.07
-95.4452
-84.407
-73.3687
-61.0476
-44.6543
-18.6637
29.2433
110.169
224.032
356.612
493.793
627.285
750.896
860.042
953.777
1034.22
1104.23
1164.67
1213.9
1250.6
1275.88
1292.93
1305.44
1314.05
1309.72
1291.89
1267.85
1247.77
1230.23
1213.32
1195.53
1174.84
1141.96
1083.95
1001.89
898.726
774.685
638.823
515.438
444.054
417.126
409.771
387.011
354.444
320.575
283.473
242.091
197.938
156.04
119.533
80.2972
27.3979
315.859
309.156
306.612
307.004
310.384
316.4
324.246
332.684
340.286
346.334
350.611
353.09
353.848
353.054
350.901
347.645
343.414
338.691
333.082
324.378
309.927
290.989
269.87
247.056
222.622
197.43
172.699
148.489
123.527
96.9112
69.4921
42.6393
16.9597
-7.51348
-30.7112
-52.3512
-72.1015
-89.7253
-105.106
-118.089
-128.669
-136.319
-140.945
-141.831
-139.385
-133.279
-123.066
-111.272
-100.023
-89.9855
-80.6357
-70.9776
-58.2814
-36.4952
8.30483
89.0883
206.297
343.364
484.924
622.644
749.774
861.37
956.668
1038.02
1108.56
1169.32
1218.57
1254.91
1279.5
1295.86
1307.97
1315.6
1312.06
1296.62
1274.41
1254.36
1236.53
1219.21
1199.65
1175
1140.18
1084.56
1006.82
908.74
791.551
663.347
543.578
467.104
433.221
419.322
395.953
362.694
327.372
288.655
246.031
201.241
158.56
120.108
79.7223
27.2057
315.345
308.814
306.34
306.755
310.165
316.228
324.193
332.773
340.483
346.604
350.932
353.444
354.229
353.463
351.339
348.132
343.961
339.303
333.87
325.478
311.056
291.94
270.662
247.685
223.034
197.585
172.614
148.177
122.916
95.9018
68.0633
40.7907
14.6744
-10.2388
-33.8447
-55.8461
-75.9243
-93.864
-109.571
-122.882
-133.812
-141.733
-146.541
-147.358
-144.792
-138.383
-127.556
-115.523
-104.649
-95.6189
-87.9743
-81.1148
-72.3853
-55.1624
-13.8346
66.5979
187.31
328.98
475.099
617.37
748.259
862.461
959.468
1041.85
1113.02
1174.11
1223.32
1259.24
1283.2
1299.17
1311.11
1318.53
1315.89
1301.87
1281.51
1261.62
1243.26
1225.42
1204.28
1176.14
1139.5
1085.9
1012.03
919.028
808.863
688.888
575.096
496.902
456.482
433.627
407.268
372.162
334.839
294.172
250.042
204.373
160.82
120.719
79.2931
27.017
314.81
308.457
306.057
306.5
309.941
316.05
324.144
332.875
340.699
346.897
351.276
353.821
354.63
353.889
351.79
348.629
344.51
339.902
334.617
326.567
312.208
292.923
271.49
248.348
223.477
197.763
172.533
147.838
122.225
94.7709
66.4875
38.7713
12.1939
-13.1811
-37.2149
-59.6001
-80.0342
-98.3233
-114.394
-128.075
-139.398
-147.61
-152.584
-153.247
-150.481
-143.658
-132.058
-119.749
-109.261
-101.23
-95.2797
-91.3353
-86.8022
-74.4354
-36.8447
43.0773
167.397
313.616
464.366
611.468
746.326
863.277
962.132
1045.67
1117.55
1178.98
1228.12
1263.66
1287.24
1303.08
1315.18
1323.21
1321.36
1308.1
1289.25
1269.59
1250.49
1231.86
1209.49
1178.6
1140.02
1088.03
1017.48
929.103
825.452
713.434
606.787
529.686
483.519
452.196
421.129
383.116
343.122
300.195
254.423
207.678
163.038
121.298
78.8278
26.785
314.251
308.087
305.768
306.241
309.714
315.868
324.1
332.991
340.933
347.21
351.641
354.219
355.051
354.332
352.252
349.131
345.06
340.488
335.316
327.633
313.375
293.932
272.347
249.04
223.945
197.96
172.453
147.459
121.44
93.5104
64.761
36.5793
9.51704
-16.3413
-40.8238
-63.6171
-84.4375
-103.112
-119.589
-133.683
-145.441
-153.949
-159.043
-159.429
-156.367
-149.013
-136.485
-123.894
-113.822
-106.77
-102.491
-101.585
-101.467
-94.2296
-60.5308
18.8725
146.943
297.502
452.828
604.977
743.964
863.792
964.624
1049.43
1122.11
1183.9
1233.03
1268.41
1291.8
1307.86
1320.85
1329.63
1328.22
1315.66
1297.81
1278.3
1258.48
1238.72
1215.22
1182.44
1141.81
1090.88
1023.36
939.289
841.558
736.675
636.815
561.694
511.363
472.819
436.657
395.297
352.23
306.809
259.262
211.274
165.375
121.938
78.3073
26.5206
313.669
307.71
305.472
305.978
309.483
315.68
324.063
333.121
341.185
347.545
352.028
354.638
355.489
354.79
352.726
349.64
345.611
341.066
335.965
328.665
314.55
294.959
273.229
249.757
224.434
198.172
172.368
147.03
120.552
92.1161
62.882
34.2133
6.64268
-19.7204
-44.6732
-67.9011
-89.1404
-108.239
-125.167
-139.72
-151.943
-160.727
-165.859
-165.821
-162.367
-154.371
-140.768
-127.92
-118.298
-112.195
-109.567
-111.84
-116.363
-114.596
-84.8986
-5.82601
126.306
280.902
440.643
597.969
741.177
863.996
966.916
1053.09
1126.67
1188.91
1238.28
1273.78
1297.42
1314.39
1328.39
1337.61
1336.5
1324.58
1307.39
1287.98
1267.45
1246.26
1221.51
1187.6
1145.11
1094.35
1029.6
949.5
857.117
758.582
664.853
591.193
538.035
493.757
452.791
408.067
361.892
313.926
264.511
215.131
167.841
122.672
77.7758
26.2458
313.022
307.326
305.171
305.709
309.246
315.484
324.031
333.267
341.456
347.899
352.437
355.077
355.946
355.265
353.212
350.154
346.164
341.644
336.568
329.651
315.724
295.999
274.131
250.493
224.94
198.393
172.268
146.539
119.552
90.5857
60.8488
31.6712
3.56972
-23.3189
-48.7649
-72.4555
-94.1491
-113.715
-131.142
-146.192
-158.89
-167.895
-172.957
-172.344
-168.426
-159.68
-144.842
-131.782
-122.634
-117.436
-116.462
-122.073
-131.462
-135.6
-110.034
-30.9542
105.758
264.068
428.003
590.547
737.991
863.893
968.994
1056.62
1131.2
1194.24
1244.27
1280.32
1304.77
1322.85
1337.64
1347.14
1346.26
1334.84
1318.07
1298.67
1277.48
1254.77
1228.51
1193.9
1150.12
1098.72
1036.21
959.858
872.288
779.392
691.229
618.459
562.893
514.194
468.956
421.054
371.932
321.494
270.17
219.268
170.477
123.545
77.2999
25.9821
312.337
306.94
304.864
305.433
309.003
315.278
324.005
333.428
341.745
348.275
352.866
355.536
356.421
355.754
353.709
350.673
346.721
342.224
337.143
330.584
316.89
297.048
275.048
251.243
225.456
198.614
172.144
145.974
118.439
88.918
58.6594
28.9512
0.297647
-27.1371
-53.1002
-77.2842
-99.4701
-119.548
-137.52
-153.093
-166.24
-175.384
-180.263
-178.949
-174.524
-164.922
-148.641
-135.421
-126.746
-122.386
-123.128
-132.272
-146.771
-157.391
-136.093
-56.4951
85.4881
247.207
415.119
582.834
734.452
863.509
970.85
1060.02
1135.98
1200.33
1251.41
1288.35
1313.91
1333.14
1348.65
1358.3
1357.51
1346.47
1329.94
1310.41
1288.58
1264.43
1236.44
1201.15
1156.74
1104.41
1043.2
970.33
887.151
799.3
715.909
644.321
586.209
534.065
485.04
434.173
382.293
329.481
276.231
223.71
173.338
124.613
76.9516
25.7496
311.647
306.547
304.551
305.154
308.754
315.067
323.982
333.603
342.053
348.669
353.316
356.015
356.914
356.259
354.216
351.196
347.279
342.805
337.701
331.468
318.042
298.098
275.974
252.003
225.976
198.829
171.986
145.331
117.208
87.1111
56.3117
26.0521
-3.17327
-31.1748
-57.6807
-82.3912
-105.11
-125.748
-144.302
-160.392
-173.93
-183.122
-187.726
-185.621
-180.659
-170.112
-152.149
-138.865
-130.622
-126.971
-129.541
-142.484
-162.436
-180.411
-163.548
-82.67
65.5232
230.416
402.184
574.965
730.627
862.889
972.503
1063.42
1141.42
1207.54
1259.79
1297.84
1324.84
1345.38
1361.51
1371.08
1370.25
1359.5
1343.07
1323.28
1300.77
1275.34
1245.61
1209.36
1164.74
1111.81
1050.98
980.839
901.716
818.475
738.913
668.876
608.421
553.446
501.04
447.393
392.926
337.839
282.662
228.461
176.451
125.92
76.7894
25.5642
310.954
306.15
304.237
304.873
308.502
314.852
323.965
333.792
342.378
349.084
353.785
356.512
357.423
356.778
354.735
351.723
347.836
343.383
338.247
332.306
319.17
299.144
276.905
252.765
226.494
199.03
171.788
144.605
115.858
85.1636
53.8041
22.9739
-6.84233
-35.4322
-62.5085
-87.7808
-111.077
-132.317
-151.469
-168.036
-181.884
-191.056
-195.331
-192.365
-186.808
-175.172
-155.423
-142.32
-134.399
-131.261
-135.79
-152.807
-178.633
-205.082
-192.896
-109.911
45.6444
213.607
389.319
567.055
726.595
862.094
973.983
1067.13
1147.82
1215.85
1269.34
1308.86
1337.65
1359.53
1376.07
1385.39
1384.43
1373.91
1357.54
1337.39
1314.15
1287.52
1256.24
1218.76
1173.89
1120.87
1060.14
991.727
916.092
837.027
760.724
691.9
629.732
572.32
516.906
460.661
403.768
346.509
289.426
233.511
179.829
127.491
76.85
25.4369
310.258
305.755
303.922
304.591
308.244
314.635
323.958
333.996
342.721
349.517
354.274
357.027
357.949
357.312
355.263
352.253
348.394
343.959
338.785
333.09
320.26
300.178
277.837
253.527
227.006
199.215
171.547
143.792
114.387
83.0744
51.1363
19.7171
-10.7087
-39.9095
-67.5857
-93.4576
-117.373
-139.249
-158.981
-175.952
-190.035
-199.171
-203.089
-199.18
-192.901
-179.806
-158.138
-145.546
-138.033
-135.444
-142.111
-163.31
-195.317
-231.231
-223.733
-137.966
25.7478
196.577
376.545
559.164
722.433
861.193
975.486
1071.61
1155.35
1225.17
1280.09
1321.49
1352.23
1375.34
1392.11
1401.11
1400.04
1389.72
1373.36
1352.84
1328.81
1301.02
1268.36
1229.63
1184.17
1131.3
1070.88
1003.66
930.76
855.231
781.755
713.564
650.224
590.659
532.581
473.921
414.761
355.436
296.484
238.842
183.472
129.335
77.1497
25.3741
309.521
305.364
303.607
304.307
307.98
314.415
323.963
334.215
343.081
349.97
354.783
357.562
358.492
357.861
355.804
352.788
348.951
344.532
339.315
333.814
321.299
301.199
278.771
254.286
227.509
199.379
171.256
142.888
112.794
80.8434
48.3085
16.2826
-14.7718
-44.6074
-72.9151
-99.4253
-123.999
-146.517
-166.774
-184.063
-198.343
-207.479
-211
-206.019
-198.765
-183.754
-159.357
-147.566
-141.258
-139.633
-148.587
-173.882
-212.243
-258.438
-254.991
-165.541
6.24855
179.279
363.88
551.298
718.205
860.274
977.353
1077.16
1163.93
1235.51
1292.18
1335.72
1368.39
1392.56
1409.47
1418.19
1417.06
1406.94
1390.57
1369.65
1344.83
1315.9
1281.95
1242.06
1195.8
1142.89
1083.02
1016.95
946.236
873.501
802.168
734.266
669.968
608.489
548.041
487.143
425.863
364.573
303.799
244.433
187.371
131.453
77.693
25.3801
308.78
304.98
303.296
304.024
307.709
314.195
323.98
334.451
343.459
350.442
355.312
358.117
359.053
358.426
356.357
353.33
349.508
345.104
339.837
334.477
322.282
302.206
279.705
255.043
228.003
199.521
170.913
141.89
111.08
78.4712
45.3214
12.6713
-19.0311
-49.5271
-78.499
-105.685
-130.94
-154.075
-174.768
-192.307
-206.804
-216.004
-219.028
-212.715
-204.017
-186.953
-159.965
-149.616
-144.666
-144.023
-155.158
-184.323
-229.295
-286.755
-286.072
-191.4
-12.2378
161.964
351.463
543.454
713.952
859.501
979.994
1083.87
1173.48
1246.96
1305.69
1351.47
1385.92
1411.04
1428.1
1436.65
1435.53
1425.59
1409.18
1387.85
1362.25
1332.22
1297.05
1256.07
1208.99
1155.78
1096.42
1031.51
962.618
891.998
822.055
754.299
689.088
625.872
563.293
500.318
437.05
373.887
311.338
250.262
191.514
133.84
78.4841
25.4602
308.059
304.599
302.989
303.744
307.432
313.976
324.012
334.704
343.854
350.933
355.861
358.69
359.633
359.008
356.925
353.88
350.063
345.68
340.368
335.099
323.213
303.2
280.639
255.794
228.486
199.637
170.512
140.796
109.244
75.9587
42.1757
8.88422
-23.4867
-54.6697
-84.3389
-112.233
-138.169
-161.852
-182.883
-200.655
-215.442
-224.744
-227.079
-218.974
-208.44
-189.361
-162.482
-153.526
-148.906
-149.345
-162.319
-194.765
-246.646
-316.361
-316.545
-214.767
-29.3645
145.072
339.585
535.687
709.791
859.157
983.748
1091.68
1184.06
1259.65
1320.66
1368.65
1404.75
1430.72
1447.99
1456.5
1455.47
1445.69
1429.2
1407.44
1381.05
1349.97
1313.66
1271.65
1223.8
1170.21
1111.12
1047.2
979.757
910.646
841.584
773.811
707.707
642.889
578.367
513.454
448.31
383.354
319.079
256.312
195.888
136.495
79.5364
25.6231
307.362
304.228
302.691
303.47
307.149
313.759
324.06
334.974
344.267
351.442
356.429
359.283
360.231
359.608
357.507
354.438
350.618
346.259
340.929
335.7
324.1
304.178
281.57
256.538
228.953
199.721
170.049
139.607
107.288
73.3071
38.8725
4.92199
-28.1385
-60.0359
-90.4337
-119.052
-145.632
-169.764
-191.057
-209.108
-224.276
-233.655
-234.987
-224.594
-212.284
-191.937
-165.881
-157.908
-153.651
-155.39
-170.325
-205.695
-264.704
-347.07
-345.09
-234.231
-44.7128
129.219
328.616
528.122
705.917
859.603
988.721
1100.56
1195.73
1273.64
1337.05
1387.2
1424.82
1451.62
1469.2
1477.79
1476.89
1467.25
1450.64
1428.42
1401.24
1369.14
1331.75
1288.78
1240.19
1186.2
1127.22
1063.97
997.569
929.443
860.913
792.958
725.945
659.623
593.303
526.568
459.642
392.962
327.006
262.571
200.486
139.417
80.8742
25.8814
306.69
303.87
302.403
303.202
306.862
313.547
324.124
335.261
344.697
351.969
357.016
359.894
360.848
360.225
358.105
355.006
351.171
346.84
341.539
336.29
324.951
305.136
282.491
257.272
229.4
199.768
169.519
138.32
105.214
70.5179
35.4126
0.785314
-32.9866
-65.625
-96.7761
-126.113
-153.258
-177.729
-199.259
-217.686
-233.295
-242.634
-242.529
-229.559
-215.345
-195.822
-170.442
-162.137
-158.432
-161.372
-178.204
-217.032
-283.79
-378.627
-369.667
-247.597
-57.7743
115.074
318.905
521.046
702.66
861.177
994.88
1110.54
1208.56
1288.98
1354.86
1407.08
1446.13
1473.77
1491.78
1500.53
1499.79
1490.24
1473.47
1450.76
1422.8
1389.72
1351.3
1307.4
1258.09
1203.69
1144.68
1081.81
1016.05
948.5
880.183
811.876
743.915
676.153
608.143
539.679
471.048
402.704
335.109
269.034
205.3
142.607
82.5293
26.2507
306.002
303.526
302.127
302.941
306.574
313.339
324.203
335.564
345.143
352.514
357.622
360.525
361.482
360.861
358.719
355.585
351.724
347.413
342.19
336.86
325.774
306.072
283.402
257.995
229.825
199.773
168.918
136.935
103.022
67.5922
31.7974
-3.52478
-38.0298
-71.4334
-103.349
-133.363
-160.96
-185.678
-207.488
-226.4
-242.444
-251.52
-249.586
-234.031
-217.95
-199.668
-176.53
-167.9
-164.679
-167.999
-186.008
-228.024
-303.299
-409.414
-387.099
-251.951
-68.166
103.558
310.818
514.839
700.52
864.039
1002.21
1121.66
1222.6
1305.68
1374.04
1428.27
1468.71
1497.24
1515.75
1524.74
1524.15
1514.65
1497.67
1474.46
1445.72
1411.69
1372.28
1327.48
1277.45
1222.59
1163.42
1100.68
1035.21
967.889
899.503
830.678
761.714
692.55
622.93
552.812
482.54
412.58
343.385
275.695
210.326
146.066
84.5325
26.7465
305.346
303.199
301.864
302.686
306.283
313.135
324.297
335.882
345.606
353.077
358.247
361.174
362.135
361.514
359.349
356.176
352.28
347.96
342.896
337.363
326.544
306.979
284.296
258.702
230.224
199.733
168.242
135.45
100.713
64.53
28.028
-8.00654
-43.2657
-77.4519
-110.122
-140.728
-168.644
-193.571
-215.759
-235.228
-251.617
-260.133
-256.076
-238.196
-222.474
-203.853
-183.109
-173.925
-171.619
-175.296
-194.24
-238.741
-321.267
-429.694
-388.326
-250.065
-76.1639
95.2328
304.545
510.166
699.949
868.148
1010.73
1133.95
1237.9
1323.76
1394.6
1450.76
1492.56
1522.04
1541.13
1550.4
1549.95
1540.44
1523.22
1499.49
1469.99
1435.03
1394.67
1348.98
1298.22
1242.83
1183.37
1120.54
1055.07
987.665
918.963
849.462
779.434
708.886
637.712
565.997
494.134
422.599
351.837
282.555
215.558
149.782
86.8967
27.378
304.731
302.886
301.618
302.445
305.99
312.938
324.409
336.217
346.085
353.658
358.892
361.842
362.807
362.188
359.998
356.781
352.838
348.454
343.622
337.672
327.17
307.835
285.162
259.388
230.591
199.645
167.493
133.866
98.2837
61.3304
24.1053
-12.6572
-48.6882
-83.6626
-117.042
-148.116
-176.232
-201.402
-224.081
-244.108
-260.662
-268.345
-262.003
-242.525
-227.072
-209.49
-190.009
-180.77
-179.45
-183.306
-202.894
-249.367
-335.83
-436.388
-379.203
-251.422
-81.8937
90.5799
300.624
507.585
701.006
873.51
1020.47
1147.44
1254.48
1343.2
1416.5
1474.55
1517.74
1548.23
1567.94
1577.5
1577.14
1567.57
1550.08
1525.83
1495.58
1459.72
1418.41
1371.84
1320.33
1264.35
1204.46
1141.33
1075.61
1007.87
938.636
868.316
797.158
725.23
652.54
579.272
505.858
432.777
360.471
289.609
220.986
153.728
89.5861
28.1345
304.163
302.591
301.392
302.22
305.696
312.752
324.54
336.568
346.58
354.258
359.557
362.531
363.5
362.881
360.667
357.403
353.405
348.92
344.378
337.739
327.542
308.598
285.974
260.034
230.917
199.503
166.668
132.184
95.7362
57.9923
20.0295
-17.4734
-54.2867
-90.0344
-124.038
-155.43
-183.679
-209.195
-232.437
-252.928
-269.449
-276.004
-267.553
-247.946
-229.99
-215.174
-197.138
-188.364
-188.017
-191.923
-211.832
-259.371
-346.27
-435.503
-374.657
-255.89
-85.2979
89.1464
299.041
507.15
703.69
880.202
1031.45
1162.15
1272.37
1364
1439.73
1499.64
1544.27
1575.83
1596.18
1606.02
1605.71
1596.04
1578.24
1553.46
1522.47
1485.73
1443.49
1396.04
1343.74
1287.08
1226.64
1163.04
1096.84
1028.55
958.595
887.327
814.978
741.663
667.481
592.69
517.748
443.139
369.294
296.848
226.587
157.85
92.4781
28.9694
303.635
302.316
301.186
302.011
305.397
312.577
324.693
336.937
347.092
354.875
360.242
363.24
364.214
363.597
361.36
358.044
353.988
349.418
345.096
337.758
327.695
309.239
286.704
260.62
231.189
199.296
165.762
130.405
93.0719
54.5164
15.8016
-22.4497
-60.0438
-96.5189
-131.02
-162.589
-190.989
-216.966
-240.752
-261.58
-277.87
-283.085
-273.252
-253.562
-233.235
-220.205
-204.572
-196.671
-197.295
-201.098
-220.89
-268.344
-352.531
-428.702
-369.273
-257.747
-85.9075
90.3863
299.8
508.894
708.075
888.296
1043.7
1178.09
1291.57
1386.15
1464.28
1526.05
1572.17
1604.85
1625.85
1635.94
1635.63
1625.8
1607.68
1582.35
1550.63
1513.02
1469.87
1421.52
1368.39
1310.99
1249.88
1185.64
1118.79
1049.76
978.931
906.602
833.003
758.287
682.623
606.32
529.857
453.716
378.312
304.253
232.327
162.058
95.3567
29.8015
303.11
302.06
300.998
301.816
305.089
312.417
324.87
337.325
347.62
355.511
360.947
363.971
364.95
364.337
362.076
358.706
354.603
349.976
345.673
337.957
327.816
309.789
287.358
261.134
231.393
199.016
164.765
128.526
90.2931
50.9061
11.4261
-27.5767
-65.9308
-103.047
-137.89
-169.542
-198.174
-224.677
-248.953
-270.03
-285.951
-289.84
-279.719
-258.165
-239.084
-225.599
-212.472
-205.606
-207.231
-210.751
-229.903
-275.998
-354.867
-417.525
-359.731
-253.762
-83.2327
94.2908
302.998
512.861
714.226
897.824
1057.21
1195.3
1312.09
1409.63
1490.14
1553.79
1601.47
1635.31
1656.95
1667.23
1666.87
1656.85
1638.36
1612.49
1580.04
1541.58
1497.51
1448.26
1394.26
1336.05
1274.17
1209.17
1141.51
1071.6
999.762
926.277
851.371
775.232
698.075
620.251
542.247
464.54
387.528
311.799