/*--------------------------------*- C++ -*----------------------------------*\
| =========                 |                                                 |
| \\      /  F ield         | OpenFOAM: The Open Source CFD Toolbox           |
|  \\    /   O peration     | Version:  4.1                                   |
|   \\  /    A nd           | Web:      www.OpenFOAM.org                      |
|    \\/     M anipulation  |                                                 |
\*---------------------------------------------------------------------------*/
FoamFile
{
    version     2.0;
    format      ascii;
    class       surfaceScalarField;
    location    "1400";
    object      phi;
}
// * * * * * * * * * * * * * * * * * * * * * * * * * * * * * * * * * * * * * //

dimensions      [0 3 -1 0 0 0 0];

internalField   nonuniform List<scalar> 
52920
(
2784.57
-155.693
2922.25
-137.688
3036.53
-114.287
3118.06
-81.5415
3163.66
-45.6108
3176.78
-13.1381
3163.23
13.5404
3130.3
32.921
3084.13
46.1526
3028.44
55.6827
2965.15
63.2692
2895.16
69.9812
2818.89
76.2484
2737.14
81.741
2651.68
85.4428
2566
85.6644
2485.87
80.1159
2424.31
61.5458
2404.1
20.1827
2439.04
-34.9611
2516.58
-77.5537
2617.54
-100.978
2732.49
-114.968
2858.08
-125.61
2991.02
-132.955
3129.2
-138.197
3280.72
-151.541
3466.16
-185.456
3703.56
-237.411
3991.29
-287.746
4312.08
-320.799
4649.68
-337.612
4998.64
-348.973
5362.98
-364.347
5749.55
-386.587
6162.46
-412.917
6601.18
-438.729
7061.62
-460.451
7538.1
-476.489
8024.98
-486.886
8517.33
-492.361
9011.18
-493.86
9502.8
-491.623
9988.39
-485.592
10463.9
-475.534
10925.5
-461.571
11370.6
-445.173
11798.4
-427.795
12206.9
-408.493
12589.9
-382.94
12933.8
-343.967
13217.4
-283.583
13413.7
-196.319
13495.5
-81.7966
13445.5
50.0057
13271.1
174.374
12997
274.088
12651.3
345.751
12264
387.299
11862
402.006
11465.6
396.354
11087.5
378.161
10733.7
353.722
10409.6
324.198
10124.7
284.806
9894.79
229.954
9735.23
159.569
9655.77
79.4555
9658.85
-3.07371
9741.43
-82.5812
9897.85
-156.419
10119.2
-221.393
10386.3
-267.015
10662.4
-276.102
10904.6
-242.251
11085.3
-180.677
11208.5
-123.234
11289.2
-80.6828
11392.7
-103.499
11656.7
-264.009
12169.5
-512.748
12899.4
-729.934
13748.1
-848.749
14587.8
-839.664
15252.4
-664.568
15604.7
-352.332
15650
-45.2616
15401.5
248.501
14888.3
513.208
14206
682.293
13443.6
762.34
12664.9
778.703
11919.3
745.588
11249.8
669.561
10680.8
568.961
10211.1
469.728
9826.27
384.824
9525.3
300.973
9287.51
237.789
121.863
2784.72
-306.847
2917.99
-270.958
3027.68
-223.99
3106.01
-159.881
3150.65
-90.2677
3164.35
-26.8529
3151.76
26.1149
3119.64
65.0325
3073.82
91.963
3017.91
111.58
2953.85
127.306
2882.63
141.194
2804.86
153.999
2721.65
164.939
2635.25
171.827
2549.79
171.11
2471.97
157.914
2416.9
116.593
2408.2
28.8664
2452.78
-79.5609
2535.13
-159.921
2644.21
-210.077
2775.82
-246.606
2928.28
-278.086
3095.27
-299.953
3270.78
-313.729
3461.05
-341.823
3683.56
-407.98
3949.34
-503.203
4250.11
-588.524
4567.22
-637.922
4887.75
-658.153
5210.76
-671.999
5543.86
-697.455
5896.38
-739.118
6274.39
-790.941
6679.16
-843.505
7107.93
-889.232
7555.66
-924.225
8016.68
-947.915
8485.72
-961.41
8958.51
-966.66
9431.28
-964.393
9900.45
-954.774
10362.3
-937.415
10813.2
-912.436
11250.6
-882.563
11673.2
-850.427
12078.6
-813.875
12459.7
-764.094
12802.5
-686.721
13084.7
-565.843
13279.1
-390.657
13358
-160.71
13305.6
102.414
13129.6
350.308
12852.9
550.775
12503.6
695.081
12111.8
779.061
11704.5
809.308
11302
798.92
10916.5
763.692
10553.7
716.506
10217.9
659.92
9918.5
584.258
9670.42
478.032
9489.05
340.94
9383.5
185.01
9355.89
24.5324
9403.48
-130.165
9520.19
-273.131
9699.13
-400.333
9926.42
-494.301
10172.1
-521.813
10399.3
-469.418
10581.9
-363.291
10717
-258.371
10811
-174.639
10926.5
-219.026
11191.4
-528.886
11687.1
-1008.42
12394.3
-1437.11
13229.5
-1683.95
14076.2
-1686.4
14768.6
-1357
15152.1
-735.801
15204.7
-97.8897
14940.4
512.834
14409.1
1044.49
13714.3
1377.15
12948.7
1527.92
12176.2
1551.2
11445.8
1475.93
10799.4
1316
10258.5
1109.81
9818
910.275
9462.35
740.476
9190.29
573.033
8998.95
429.13
199.528
2766.85
-451.942
2893.67
-397.782
2996.68
-327.008
3069.89
-233.1
3111.8
-132.196
3124.43
-39.4962
3111.3
39.239
3078.57
97.7504
3031.82
138.702
2974.68
168.709
2909.22
192.752
2836.59
213.806
2757.71
232.867
2674.07
248.566
2588.51
257.372
2505.9
253.706
2434.06
229.736
2390.07
160.574
2395.75
23.1607
2454.02
-137.847
2555.22
-261.139
2697.52
-352.395
2874.32
-423.422
3073.12
-476.901
3277.34
-504.187
3476.14
-512.536
3673.38
-539.072
3884.55
-619.164
4122.04
-740.701
4383.7
-850.196
4658.15
-912.386
4937.1
-937.111
5221.13
-956.041
5518.02
-994.357
5837.95
-1059.06
6188.89
-1141.9
6573.74
-1228.36
6989.71
-1305.2
7430.05
-1364.58
7886.89
-1404.76
8353.14
-1427.67
8823.5
-1437.02
9293.73
-1434.63
9760.23
-1421.28
10219.3
-1396.51
10667.3
-1360.39
11101.6
-1316.91
11521.1
-1269.9
11923.2
-1215.98
12300.9
-1141.86
12640.1
-1025.87
12918.2
-843.943
13107.2
-579.628
13178.5
-232.067
13116.4
164.495
12928.7
538.014
12636.7
842.737
12268.9
1062.97
11855.8
1192.11
11425
1240.16
10996.8
1227.06
10583.5
1176.97
10190.2
1109.86
9820.18
1029.93
9482.28
922.16
9191.76
768.553
8964.17
568.527
8808.31
340.878
8725.87
106.971
8715.17
-119.466
8772.71
-330.667
8893.52
-521.138
9069.04
-669.829
9273.92
-726.686
9478.08
-673.578
9662.18
-547.387
9821.2
-417.397
9947.52
-300.957
10092.8
-364.303
10379.1
-815.237
10885.5
-1514.81
11600
-2151.61
12456.8
-2540.72
13352.7
-2582.29
14110.9
-2115.24
14546.1
-1170.98
14615.9
-167.68
14338.1
790.648
13785
1597.6
13074.5
2087.61
12304.7
2297.8
11537.7
2318.16
10822.3
2191.29
10201.3
1937.02
9694.6
1616.53
9290.97
1313.91
8971.96
1059.49
8734.93
810.058
8612.45
551.611
202.659
2730.29
-588.748
2848.39
-515.888
2943.65
-422.278
3011.87
-301.332
3051.98
-172.324
3064.84
-52.3612
3052.42
51.6412
3020.09
130.068
2973.09
185.687
2915.17
226.615
2848.7
259.207
2775.22
287.274
2696.11
311.959
2613.49
331.166
2531.01
339.843
2454.55
330.147
2393.1
291.17
2364.87
188.784
2388.99
-0.9771
2472.92
-221.802
2617.2
-405.439
2811.2
-546.404
3029.31
-641.55
3248
-695.608
3451.44
-707.638
3633.46
-694.57
3800.74
-706.368
3971.72
-790.153
4164.86
-933.855
4384.71
-1070.06
4623.19
-1150.87
4871.56
-1185.49
5128.71
-1213.2
5402.35
-1268.01
5705.11
-1361.82
6047.31
-1484.11
6431.14
-1612.2
6850.08
-1724.15
7293.12
-1807.63
7749.58
-1861.23
8211.38
-1889.47
8673.63
-1899.28
9133.43
-1894.44
9588.89
-1876.75
10037.8
-1845.47
10477.3
-1799.84
10904.9
-1744.53
11319.3
-1684.28
11717.8
-1614.48
12093.3
-1517.39
12431.5
-1364.07
12709.6
-1122.06
12898.9
-768.909
12969.7
-302.935
12905.9
228.315
12714.6
729.348
12415.2
1142.17
12035.4
1442.72
11606.2
1621.35
11155
1691.32
10702.5
1679.57
10260.3
1619.21
9831.94
1538.17
9419.68
1442.19
9032.54
1309.3
8688.1
1113
8404.62
852.003
8192.93
552.57
8054.68
245.219
7988.46
-53.2394
7994.16
-336.369
8067.74
-594.721
8201.53
-803.614
8365.8
-890.953
8531.7
-839.484
8689.72
-705.397
8841.37
-569.054
8968.98
-428.564
9116.76
-512.086
9410.42
-1108.89
9930.54
-2034.93
10674
-2895.11
11598.5
-3465.22
12600.5
-3584.28
13467.3
-2981.99
13968.3
-1671.98
14047.3
-246.66
13738.8
1099.06
13146.4
2190.09
12408.2
2825.8
11626.4
3079.54
10858.4
3086.19
10152.1
2897.6
9553.58
2535.52
9082.4
2087.71
8719.12
1677.19
8439.76
1338.86
8237.54
1012.27
8219.34
569.812
84.864
2671.66
-712.583
2779.32
-623.553
2867.81
-510.772
2932.94
-366.479
2973.1
-212.499
2988.11
-67.384
2978.67
61.0671
2949.08
159.655
2903.98
230.77
2847.15
283.436
2781.29
325.054
2708.47
360.082
2630.78
389.63
2551.28
410.655
2474.79
416.325
2408.55
396.366
2362.12
337.592
2355.18
195.701
2408.47
-54.2867
2535.84
-349.184
2730.78
-600.396
2955.35
-770.984
3175.2
-861.414
3375.03
-895.453
3550.53
-883.142
3701.53
-845.581
3835.49
-840.34
3971.53
-926.206
4131.44
-1093.78
4322.97
-1261.6
4538.27
-1366.18
4766.74
-1413.98
5006.45
-1452.91
5267.03
-1528.61
5563.45
-1658.25
5904.77
-1825.44
6288.02
-1995.46
6701.5
-2137.64
7132.12
-2238.26
7570.31
-2299.43
8010.97
-2330.13
8452.92
-2341.24
8896.51
-2338.03
9341.68
-2321.93
9785.89
-2289.68
10224
-2237.94
10651.3
-2171.82
11064.8
-2097.79
11461.3
-2011.04
11834.1
-1890.19
12169.3
-1699.27
12444.5
-1397.18
12630.5
-954.995
12697
-369.438
12628.4
296.956
12433.1
924.653
12129.7
1445.57
11745.5
1826.87
11310.9
2055.99
10852.6
2149.6
10390.4
2141.8
9934.11
2075.48
9484.44
1987.84
9040.46
1886.17
8610.83
1738.94
8216.26
1507.57
7879.49
1188.77
7614.77
817.292
7424.71
435.282
7308.37
63.1061
7269.16
-297.163
7307.6
-633.155
7414.75
-910.767
7549.42
-1025.62
7676.61
-966.674
7795.52
-824.299
7915.45
-688.988
8010.15
-523.267
8122.63
-624.563
8391.53
-1377.79
8922.15
-2565.55
9734.47
-3707.43
10781
-4511.8
11918.5
-4721.72
12898
-3961.54
13456.1
-2230.05
13525.6
-316.111
13164.8
1459.86
12513.9
2840.97
11736.4
3603.22
10937.1
3878.87
10163.5
3859.84
9462.24
3598.83
8885.44
3112.33
8453.21
2519.94
8135.42
1994.98
7898.43
1575.84
7725.42
1185.28
7858
437.24
-208.468
2588.25
-829.371
2693.97
-729.278
2783.08
-599.883
2850.09
-433.507
2892.31
-254.736
2909.22
-84.3092
2901.72
68.5576
2874.12
187.239
2831.11
273.768
2776.53
338.004
2713.22
388.353
2643.55
429.739
2570.28
462.876
2497.63
483.297
2431.94
482.001
2381.71
446.58
2356.71
362.576
2379.85
172.539
2473.08
-147.535
2640.59
-516.71
2856.17
-815.998
3070.76
-985.584
3262.16
-1052.83
3429.37
-1062.68
3575.66
-1029.44
3701.47
-971.407
3811.32
-950.196
3922.73
-1037.63
4059.38
-1230.44
4231.3
-1433.52
4430.42
-1565.32
4644.95
-1628.52
4873.23
-1681.19
5126.28
-1781.67
5418.03
-1950.01
5752.78
-2160.19
6122.64
-2365.33
6514.83
-2529.84
6919.32
-2642.76
7331.71
-2711.82
7751.95
-2750.37
8182.41
-2771.72
8624.09
-2779.71
9074.53
-2772.38
9526.78
-2741.93
9971.21
-2682.38
10400.6
-2601.25
10811.8
-2509
11202.9
-2402.08
11568.5
-2255.85
11896
-2026.79
12163
-1664.16
12339.4
-1131.37
12392.5
-422.546
12307.4
382.076
12095.3
1136.72
11776.8
1764.09
11381.4
2222.26
10940.3
2497.09
10480
2609.91
10018.9
2602.93
9563.84
2530.49
9110.32
2441.36
8651.42
2345.08
8193.16
2197.2
7758.97
1941.76
7376.93
1570.81
7065.43
1128.8
6829.18
671.529
6667.1
225.194
6587.01
-217.073
6598.91
-645.056
6696.27
-1008.13
6816.5
-1145.85
6915.02
-1065.19
6999.22
-908.502
7078.37
-768.134
7117.8
-562.694
7158.87
-665.642
7369.32
-1588.23
7931.74
-3127.97
8851.79
-4627.48
9987.37
-5647.37
11168.1
-5902.41
12191.3
-4984.75
12792.9
-2831.64
12862.8
-386.038
12462.6
1860.05
11765
3538.62
10962.3
4405.92
10162.3
4678.85
9398.75
4623.37
8716.49
4281.08
8175.88
3652.94
7798.54
2897.28
7541.39
2252.13
7349.73
1767.5
7210.33
1324.68
7493.83
153.74
-634.929
2515.33
-943.519
2621.72
-835.672
2713.7
-691.88
2785.21
-505.019
2832.72
-302.269
2853.95
-105.551
2848.2
74.2948
2820.05
215.387
2775.74
318.066
2720.75
392.975
2658.94
450.148
2593.26
495.412
2527.09
529.035
2465.62
544.75
2416.32
531.285
2387.83
475.062
2389.67
360.724
2444.22
117.971
2566.77
-270.104
2746.82
-696.777
2948.08
-1017.27
3131.65
-1169.16
3289.38
-1210.57
3427.92
-1201.22
3552.21
-1153.74
3660.44
-1079.64
3753.29
-1043.06
3846.48
-1130.83
3965.29
-1349.26
4121.68
-1589.92
4307.65
-1751.3
4510.9
-1831.79
4730.2
-1900.5
4976.58
-2028.06
5261.39
-2234.83
5584.82
-2483.62
5937.14
-2717.66
6307.87
-2900.58
6691.95
-3026.85
7090.09
-3109.96
7505.46
-3165.75
7940.63
-3206.9
8393.47
-3232.55
8856.79
-3235.7
9319.08
-3204.22
9767.94
-3131.25
10196
-3029.33
10601.7
-2914.7
10985.3
-2785.66
11343.3
-2613.88
11663.7
-2347.16
11923
-1923.5
12088.7
-1297.03
12124
-457.909
12012.4
493.702
11766.4
1382.67
11411.2
2119.35
10982.7
2650.77
10516.9
2962.83
10043
3083.82
9579.78
3066.18
9131.55
2978.73
8686.65
2886.26
8228.43
2803.3
7756.4
2669.23
7294.78
2403.38
6877.07
1988.53
6526.39
1479.47
6249.79
948.13
6045.4
429.583
5927.55
-99.2148
5919.5
-637.01
6029.83
-1118.45
6152.92
-1268.93
6237.58
-1149.86
6302.66
-973.576
6338.06
-803.533
6305.03
-529.663
6237.33
-597.947
6374.09
-1724.99
6989.13
-3743.01
7945.46
-5583.81
8978.9
-6680.81
10012.2
-6935.73
10986.5
-5959.05
11659.7
-3504.79
11801.2
-527.613
11438.5
2222.82
10756.8
4220.3
9972.2
5190.5
9209.15
5441.9
8491.32
5341.2
7862.36
4910.04
7392.14
4123.16
7101.76
3187.66
6936.36
2417.52
6778
1925.87
6735.12
1367.56
7178.36
-289.503
-1024.25
2441.93
-1058.07
2551.42
-945.168
2647.16
-787.635
2722.56
-580.424
2774.95
-354.682
2802.71
-133.32
2803.83
73.1561
2780.66
238.547
2739.09
359.625
2686.03
446.019
2627.27
508.896
2567.39
555.276
2511.04
585.365
2464.3
591.485
2434.61
560.95
2429.25
480.413
2456.04
333.915
2530.77
43.2184
2658.61
-397.956
2824.54
-862.724
2994.8
-1187.54
3144.51
-1318.9
3273.26
-1339.32
3389.71
-1317.69
3498.05
-1262.1
3593.93
-1175.54
3674.65
-1123.79
3753.85
-1210.04
3857.59
-1453.02
3999.59
-1731.92
4172.62
-1924.34
4364.95
-2024.13
4576.54
-2112.1
4818.88
-2270.4
5100.74
-2516.7
5418.41
-2801.31
5760.94
-3060.19
6120.47
-3260.12
6496.32
-3402.7
6892.65
-3506.3
7313.41
-3586.52
7759.26
-3652.75
8224.29
-3697.59
8697.8
-3709.22
9165.87
-3672.3
9615.14
-3580.53
10039.1
-3453.31
10438.2
-3313.74
10814.7
-3162.18
11166.9
-2966.12
11483.3
-2663.5
11739.1
-2179.36
11898.5
-1456.38
11919.7
-479.099
11781.5
631.852
11494.2
1669.94
11086.7
2526.86
10603.2
3134.28
10087.8
3478.2
9576.33
3595.32
9092.44
3550.07
8641.77
3429.4
8206.96
3321.06
7759
3251.27
7285.88
3142.36
6808.87
2880.38
6365.67
2431.73
5984.18
1860.97
5673.24
1259.07
5430.45
672.374
5276.65
54.5864
5254.66
-615.011
5404.87
-1268.66
5552.42
-1416.48
5643.34
-1240.78
5706.61
-1036.84
5694.86
-791.785
5576.75
-411.557
5364.7
-385.894
5427.33
-1787.62
6026.25
-4341.93
6805.64
-6363.2
7511.14
-7386.31
8248.52
-7673.1
9118.43
-6828.96
9911.49
-4297.85
10190.5
-806.645
9976.09
2437.25
9420.67
4775.72
8726.5
5884.68
8047.13
6121.27
7413.75
5974.59
6879.07
5444.73
6524.72
4477.51
6364.6
3347.78
6328.31
2453.82
6193.47
2060.71
6372.66
1188.37
6996.8
-913.638
-1199.04
2373.92
-1178.81
2491.04
-1062.29
2591.46
-888.067
2668.08
-657.052
2721.09
-407.712
2752.38
-164.621
2761
64.5283
2747.04
252.497
2714.01
392.646
2668.37
491.645
2617.11
560.144
2566.5
605.872
2522.57
629.288
2491.78
622.255
2480.56
572.165
2493.9
467.06
2536.88
290.923
2615.59
-35.5118
2727.51
-509.891
2863.79
-999.014
2999.84
-1323.6
3120.23
-1439.3
3226.76
-1445.86
3327.22
-1418.16
3424.38
-1359.27
3511.92
-1263.09
3584.15
-1196.02
3652.05
-1277.96
3741.87
-1542.85
3869.45
-1859.5
4029.39
-2084.3
4212.09
-2206.84
4420.37
-2320.39
4665.89
-2515.93
4952.67
-2803.5
5271.48
-3120.12
5610.39
-3399.11
5964.97
-3614.71
6338.67
-3776.4
6737.86
-3905.5
7166
-4014.66
7621.48
-4108.24
8095.44
-4171.55
8575.13
-4188.91
9045.34
-4142.52
9492.16
-4027.35
9910.01
-3871.17
10301.2
-3704.92
10670.4
-3531.38
11017.8
-3313.5
11332.5
-2978.2
11588.8
-2435.74
11747.4
-1614.95
11761
-492.658
11602.8
790.024
11278.4
1994.31
10818.1
2987.19
10271.8
3680.53
9691.09
4058.94
9119.89
4166.51
8590.93
4079.03
8117.01
3903.33
7680.83
3757.24
7242.56
3689.53
6775.25
3609.67
6292.56
3363.08
5833.55
2890.74
5429.81
2264.71
5090.91
1597.97
4813.12
950.165
4622.37
245.34
4595.53
-588.17
4815.85
-1488.98
5013.46
-1614.09
5137.83
-1365.14
5197.01
-1096.02
5124.02
-718.799
4929.67
-217.206
4580.42
-36.6434
4552.58
-1759.78
4939.87
-4729.22
5323.65
-6746.98
5619.51
-7682.17
6061.57
-8115.16
6835.73
-7603.13
7829.2
-5291.32
8246.13
-1223.58
8173.44
2509.94
7794.16
5155
7260.28
6418.57
6714.66
6666.88
6202
6487.25
5804.72
5842
5622.11
4660.12
5647.9
3321.98
5767.73
2333.99
5651.17
2177.27
5925.6
913.94
6587.09
-1575.13
-1180.13
2316.47
-1313.83
2447.85
-1193.67
2554.72
-994.947
2629.91
-732.249
2677.52
-455.344
2705.21
-192.325
2716.92
52.7985
2712.88
256.533
2692.86
412.648
2660.34
524.154
2621.66
598.808
2583.84
643.682
2553.68
659.426
2537.49
638.437
2540.2
569.444
2564.83
442.408
2613.01
242.725
2680.85
-103.37
2763.85
-592.905
2865.73
-1100.91
2971.44
-1429.33
3069.26
-1537.14
3159.64
-1536.25
3248.5
-1507.04
3337.63
-1448.41
3419.55
-1345.03
3485.76
-1262.24
3544.3
-1336.51
3621.67
-1620.23
3736.24
-1974.08
3885.23
-2233.3
4062.63
-2384.24
4274.38
-2532.15
4529.53
-2771.1
4824.35
-3098.33
5144.53
-3440.31
5479.78
-3734.37
5830.54
-3965.48
6203.94
-4149.81
6607.29
-4308.86
7042.6
-4449.98
7505.96
-4571.61
7986.2
-4651.8
8469.41
-4672.13
8939.55
-4612.67
9382.1
-4469.9
9792.37
-4281.45
10174.6
-4087.18
10536
-3892.78
10878.9
-3656.43
11193.5
-3292.81
11453.2
-2695.41
11614.9
-1776.65
11625.2
-502.91
11451.7
963.494
11096.1
2349.88
10589.6
3493.75
9985.08
4285
9337.85
4706.17
8697.62
4806.75
8105.94
4670.71
7586.58
4422.69
7129.42
4214.4
6690.02
4128.94
6227.18
4072.51
5743.63
3846.63
5276.31
3358.05
4858.18
2682.85
4497.56
1958.59
4186.46
1261.27
3951.91
479.894
3931.32
-567.571
4258.96
-1816.62
4544.59
-1899.71
4728.95
-1549.51
4774.17
-1141.23
4632.74
-577.366
4383.76
31.7795
3987.11
360.004
3806.12
-1578.79
3718.31
-4641.41
3656.76
-6685.43
3672.59
-7698.01
3954.46
-8397.02
4633.66
-8282.32
5820.81
-6478.47
6355.47
-1758.23
6371.84
2493.57
6074.77
5452.06
5683.49
6809.85
5291.97
7058.4
4923.88
6855.34
4709.97
6055.92
4776.21
4593.89
5053.07
3045.13
5247.78
2139.28
5209.62
2215.43
5849.78
273.785
6938.77
-2664.12
-1216.44
2271.96
-1481.02
2422.14
-1343.85
2535.33
-1108.15
2608.92
-805.85
2649.47
-495.915
2667.44
-210.301
2673.5
46.7213
2673.8
256.224
2666.89
419.545
2651.3
539.741
2629.66
620.428
2607.56
665.773
2591.44
675.54
2586.94
642.922
2597.85
558.527
2625.99
414.25
2668.94
199.763
2715.87
-150.312
2766.06
-643.108
2835.86
-1170.72
2917.38
-1510.85
2998.15
-1617.92
3076.1
-1614.21
3155.79
-1586.73
3238.82
-1531.46
3317.11
-1423.33
3379.55
-1324.69
3431.44
-1388.41
3499.68
-1688.48
3604.96
-2079.38
3747.56
-2375.9
3925.61
-2562.31
4146.19
-2752.73
4412.21
-3037.13
4711.96
-3398.08
5029.62
-3757.97
5359.52
-4064.27
5707.11
-4313.07
6081.67
-4524.37
6489.99
-4717.19
6931.99
-4891.98
7401.78
-5041.4
7886.59
-5136.61
8372.11
-5157.66
8841.58
-5082.14
9279.42
-4907.75
9681.56
-4683.6
10054.2
-4459.79
10407.2
-4245.78
10745.6
-3994.84
11061
-3608.21
11326
-2960.4
11493.7
-1944.45
11503.5
-512.689
11316.5
1150.56
10931.2
2735.13
10382.1
4042.9
9725.59
4941.48
9018.34
5413.41
8311.66
5513.43
7651.94
5330.42
7072.72
5001.91
6575.27
4711.85
6118.13
4586.09
5651.01
4539.62
5165.65
4331.99
4694.14
3829.57
4267.9
3109.08
3890.98
2335.52
3546.74
1605.5
3251.1
775.532
3250.9
-567.364
3707.38
-2273.1
4085.53
-2277.85
4354.27
-1818.25
4424.2
-1211.16
4229.92
-383.077
3964.31
297.39
3835.02
489.297
3436.94
-1180.71
2580.13
-3784.6
2005.5
-6110.8
1609.89
-7302.4
1600.22
-8387.35
2256.95
-8939.04
3843.16
-8064.69
4680.22
-2595.29
4829.25
2344.54
4355.85
5925.47
4036.35
7129.34
3892.98
7201.78
3815.44
6932.88
3990.76
5880.59
4538.26
4046.39
5136.53
2446.86
5150.09
2125.72
5032.8
2332.72
3256.82
2049.76
-1218.75
1811.45
1917.5
2243.42
-1667.96
2401.16
-1501.59
2515.9
-1222.9
2589.19
-879.15
2627.5
-534.236
2638.88
-221.699
2636.05
49.5357
2632.94
259.321
2632.75
419.717
2631.82
540.658
2627.8
624.442
2622.22
671.335
2619.29
678.456
2623.35
638.853
2637.27
544.587
2662.54
388.963
2693.53
168.763
2716.63
-173.432
2737.08
-663.578
2780.25
-1213.91
2842.76
-1573.37
2910.04
-1685.21
2978.02
-1682.2
3050.43
-1659.16
3129
-1610.05
3205.32
-1499.65
3266.23
-1385.62
3314.88
-1437.08
3378.34
-1751.95
3479.22
-2180.27
3621.06
-2517.75
3805.13
-2746.39
4036.33
-2983.94
4309.82
-3310.63
4608.99
-3697.26
4920.7
-4069.69
5244.99
-4388.57
5590.82
-4658.91
5967.8
-4901.36
6381.31
-5130.71
6829.22
-5339.9
7304.35
-5516.54
7793.08
-5625.34
8281.05
-5645.64
8750.21
-5551.31
9182.99
-5340.53
9575.57
-5076.19
9936.19
-4820.41
10278.1
-4587.73
10609.9
-4326.61
10925.4
-3923.74
11197.1
-3232.11
11374.5
-2121.78
11388.1
-526.372
11190.3
1348.36
10775.8
3149.68
10184.2
4634.51
9478.29
5647.37
8716.94
6174.76
7951.03
6279.35
7227.14
6054.31
6583.86
5645.2
6033.21
5262.5
5542
5077.3
5057.95
5023.67
4565.24
4824.71
4090.3
4304.51
3660.29
3539.1
3270.74
2725.07
2891.8
1984.44
2515.23
1152.1
2586.89
-639.019
2946.94
-2633.15
3176.03
-2506.93
3623.21
-2265.43
3807.1
-1395.06
3745.01
-320.983
3827.28
215.12
4020.48
296.097
2900.17
-60.3902
742.399
-1626.84
-526.222
-4842.18
-894.494
-6934.13
-920.073
-8361.78
-772.589
-9086.53
-274.599
-8562.68
2695.72
-5565.61
4172.37
867.89
3191.08
6906.77
2227.1
8093.32
1498.97
7929.91
825.536
7606.32
98.5163
6607.61
-492.812
4637.72
-662.272
2616.32
-685.817
2149.26
-1260.66
2907.57
-2858.99
3648.09
-4440.62
3393.08
2623.46
2211.84
-1866.72
2370.31
-1660.06
2483.39
-1336
2556.54
-952.309
2595.67
-573.378
2605.57
-231.614
2597.34
57.7533
2588.89
267.756
2589.36
419.243
2596.96
533.046
2606.42
614.965
2614.82
662.929
2622.77
670.486
2632.58
629.035
2646.25
530.908
2665.53
369.666
2684.06
150.227
2686.58
-175.97
2682.28
-659.29
2703.82
-1235.46
2751.29
-1620.85
2808.43
-1742.37
2869.36
-1743.13
2936.71
-1726.52
3012.15
-1685.5
3087.36
-1574.88
3148.26
-1446.53
3196.61
-1485.44
3259.56
-1814.91
3361.36
-2282.07
3508.01
-2664.41
3701.27
-2939.66
3941.12
-3223.8
4216.46
-3585.98
4510.31
-3991.12
4814.69
-4374.08
5134.4
-4708.28
5479.89
-5004.41
5859.92
-5281.4
6278.29
-5549.07
6731.31
-5792.93
7211.29
-5996.52
7704.07
-6118.12
8194.95
-6136.53
8663.28
-6019.64
9088.24
-5765.5
9466.3
-5454.25
9808.5
-5162.61
10132.7
-4911.96
10452.2
-4646.13
10764.7
-4236.21
11043.5
-3510.91
11234.7
-2312.95
11259.7
-551.376
11058.8
1549.28
10619.8
3588.62
9987.71
5266.61
9233.4
6401.67
8420.8
6987.35
7601.77
7098.38
6820.85
6835.22
6116.6
6349.45
5507.71
5871.39
4970.49
5614.53
4456.93
5537.23
3949.19
5332.45
3469.26
4784.43
3038.12
3970.24
2640.6
3122.59
2215.72
2409.33
1692.51
1675.31
684.125
369.368
-1049.88
-899.138
-2131.34
-1425.48
-2259.55
-2137.22
-2325.49
-1329.11
-2389.8
-256.673
-2482.91
308.226
-2635.27
448.463
-2353.51
-342.153
-1858.79
-2121.55
-2115.79
-4585.18
-2436.47
-6613.45
-2528.97
-8269.27
-2309.59
-9305.91
-2073.04
-8799.22
-1791.83
-5846.83
-431.186
-492.75
680.536
5795.04
2.20592
8771.65
-903.258
8835.37
-1570.48
8273.54
-2120.91
7158.05
-2638.24
5155.05
-3133.56
3111.64
-3634.24
2649.94
-4212.54
3485.87
-4722.79
4158.35
-4860.53
3530.82
2697.87
2177.32
-2069.1
2330.27
-1813.01
2438.57
-1444.3
2510.54
-1024.29
2551.28
-614.136
2562.63
-242.981
2552.78
67.5922
2540.07
280.454
2537.68
421.617
2547.51
523.203
2564.16
598.302
2581.63
645.441
2597.07
655.036
2610.4
615.69
2622.6
518.69
2635.97
356.284
2645.11
141.067
2632.08
-162.963
2607.19
-634.419
2610.95
-1239.24
2647.69
-1657.61
2698.89
-1793.59
2755.86
-1800.11
2819.68
-1790.36
2892.24
-1758.07
2966.28
-1648.94
3027.86
-1508.12
3078.24
-1535.84
3145.07
-1881.75
3253.41
-2390.42
3409.11
-2820.13
3611.27
-3141.82
3854.93
-3467.47
4126.57
-3857.63
4412.52
-4277.07
4710.01
-4671.58
5026.59
-5024.87
5372.67
-5350.5
5755.74
-5664.47
6178.34
-5971.68
6635.91
-6250.51
7120.8
-6481.42
7617.91
-6615.24
8110.78
-6629.4
8574.2
-6483.06
8983.37
-6174.67
9336.15
-5807.05
9648.06
-5474.52
9943.26
-5207.16
10241.3
-4944.19
10545.1
-4540.03
10830.3
-3796.13
11040.2
-2522.78
11086.7
-597.942
10895.9
1740.09
10445
4039.53
9780.89
5930.73
8982.13
7200.44
8120.37
7849.11
7252.09
7966.66
6420.78
7666.54
5661.82
7108.41
4995.6
6537.61
4405.87
6204.26
3852.86
6090.23
3322.6
5862.72
2835.34
5271.69
2405.67
4399.91
1997.53
3530.74
1518.57
2888.3
699.668
2494.21
-799.56
1868.6
-2293.34
594.642
-2763
-955.816
-3179.92
-1720.3
-3689.25
-819.776
-3925.77
-20.1606
-3896.23
278.688
-3684.52
236.759
-3392.55
-634.13
-3334.76
-2179.34
-3691.63
-4228.31
-4121.63
-6183.46
-4447.67
-7943.23
-4542.57
-9211.02
-4217.69
-9124.1
-3410.86
-6653.65
-2504.14
-1399.47
-1754.04
5044.94
-1843.65
8861.26
-2480.4
9472.11
-3054.71
8847.84
-3541.09
7644.43
-4109.1
5723.06
-4819.61
3822.15
-5368.66
3198.99
-5553.17
3670.38
-5420.56
4025.74
-5313.47
3423.73
2845.96
2141.07
-2267.87
2285.78
-1957.73
2388.04
-1546.58
2457.19
-1093.45
2497.67
-654.631
2509.88
-255.208
2500.05
77.407
2485.03
295.466
2479.21
427.428
2487.51
514.892
2506.04
579.763
2527.66
623.805
2547.06
635.62
2562.11
600.637
2572.54
508.251
2581
347.809
2583.12
138.928
2557.99
-137.843
2516.23
-592.677
2506.49
-1229.52
2537.44
-1688.57
2586.21
-1842.36
2640.64
-1854.56
2700.87
-1850.59
2770.06
-1827.27
2842.8
-1721.69
2905.71
-1571.04
2960.77
-1590.91
3036.72
-1957.71
3156.78
-2510.49
3322.74
-2986.1
3530.07
-3349.16
3771.89
-3709.3
4036.29
-4122.03
4314.04
-4554.82
4605.95
-4963.49
4920.5
-5339.44
5267.4
-5697.4
5653
-6050.08
6079.21
-6397.89
6541.28
-6712.58
7031.46
-6971.61
7531.7
-7115.49
8021.21
-7118.91
8468.91
-6930.76
8847.01
-6552.77
9157.68
-6117.73
9423.19
-5740.03
9675.58
-5459.55
9941.71
-5210.32
10230.7
-4828.99
10521.2
-4086.67
10754.2
-2755.77
10833.4
-677.132
10669.6
1903.87
10226.1
4482.99
9546.5
6610.37
8713.38
8033.56
7807.22
8755.27
6893.29
8880.59
6017
8542.83
5210.03
7915.37
4490.45
7257.19
3846.05
6848.67
3247.11
6689.17
2688.54
6421.29
2192.1
5768.13
1763.42
4828.6
1355.97
3938.19
836.524
3407.75
-11.652
3342.39
-1287.26
3144.21
-2488.45
1795.83
-3127.77
-316.497
-3701.26
-1146.8
-4179.37
-341.668
-4434.19
234.66
-4494.4
338.903
-4436.22
178.574
-4375.07
-695.274
-4449.7
-2104.71
-4777.45
-3900.55
-5233.68
-5727.23
-5740.27
-7436.64
-6208.48
-8742.81
-6366.36
-8966.22
-5910.27
-7109.75
-4991.36
-2318.37
-3973.71
4027.29
-3442.75
8330.3
-3602.83
9632.2
-3986.22
9231.23
-4424.77
8082.98
-4993.77
6292.05
-5681.23
4509.61
-6164.33
3682.09
-6269.49
3775.54
-6161.63
3917.87
-6206.75
3468.85
3081.46
2107.78
-2462.06
2245.13
-2095.08
2341.02
-1642.47
2405.79
-1158.23
2443.71
-692.568
2453.99
-265.507
2441.95
89.4304
2423.49
313.913
2413.14
437.761
2417.66
510.354
2434.74
562.667
2457.1
601.432
2477.86
614.848
2493.16
585.326
2501.42
499.966
2505.14
344.073
2500.38
143.678
2466.09
-103.576
2413.2
-539.813
2395.11
-1211.45
2423.6
-1717.07
2470.67
-1889.44
2521.99
-1905.9
2578.06
-1906.68
2644.11
-1893.33
2716.21
-1793.81
2781.68
-1636.53
2845.26
-1654.5
2936.19
-2048.66
3070.89
-2645.2
3244.59
-3159.81
3451.76
-3556.35
3687.72
-3945.26
3943.93
-4378.25
4214.47
-4825.38
4501.92
-5250.95
4814.83
-5652.35
5162.18
-6044.76
5549.72
-6437.62
5979.41
-6827.58
6446.45
-7179.63
6941.07
-7466.23
7438.37
-7612.8
7911.21
-7591.76
8324.1
-7343.65
8650.16
-6878.83
8899.86
-6367.43
9103.87
-5944.05
9302.56
-5658.25
9529.72
-5437.48
9800.3
-5099.58
10095.9
-4382.26
10354.9
-3014.76
10474.1
-796.37
10351.9
2026.07
9937.57
4897.33
9264.75
7283.19
8413.88
8884.42
7472.9
9696.25
6518.88
9834.61
5602.73
9458.99
4753.8
8764.3
3985.71
8025.28
3287.04
7547.34
2638.74
7337.47
2048.5
7011.53
1541.3
6275.34
1121.37
5248.53
720.471
4339.09
167.436
3960.78
-654.667
4164.49
-1710.67
4200.21
-2752.48
2837.65
-3598.68
529.705
-4308.96
-436.526
-4737.02
86.3922
-4982.19
479.832
-5112.06
468.778
-5131.26
197.771
-5149.77
-676.758
-5253.85
-2000.64
-5565.16
-3589.24
-6036.85
-5255.54
-6659.55
-6813.94
-7405.72
-7996.64
-8061.12
-8310.82
-8203.37
-6967.5
-7493.85
-3027.89
-6266.49
2799.93
-5230.22
7294.04
-4834.19
9236.17
-4919.86
9316.9
-5254.43
8417.55
-5772.12
6809.74
-6384.4
5121.89
-6848.98
4146.68
-7048.83
3975.39
-7107.5
3976.54
-7258.64
3619.99
3324.73
2080.71
-2647.3
2208.87
-2223.24
2296.97
-1730.58
2356.23
-1217.5
2390.89
-727.245
2398.63
-273.257
2383.32
104.728
2359.7
337.518
2342.46
454.991
2340.17
512.637
2352.39
550.426
2372.36
581.454
2392.16
595.036
2406.39
571.085
2412.1
494.244
2411.21
344.952
2400.67
154.2
2361.82
-64.7406
2303.26
-481.276
2279.45
-1187.65
2305.25
-1742.89
2349.33
-1933.53
2396.92
-1953.5
2449.47
-1959.24
2513.77
-1957.64
2586.33
-1866.38
2656.31
-1706.52
2733.52
-1731.71
2844.12
-2159.27
2992.47
-2793.55
3168.87
-3336.22
3371.67
-3759.15
3600.46
-4174.06
3849.2
-4626.99
4113.58
-5089.77
4397.01
-5534.38
4708.08
-5963.43
5055.42
-6392.11
5444.66
-6826.87
5878.3
-7261.22
6350.05
-7651.38
6843.71
-7959.9
7323.49
-8092.58
7757.61
-8025.88
8112.18
-7698.23
8366.75
-7133.41
8542.91
-6543.59
8679.03
-6080.18
8822.15
-5801.37
9011.03
-5626.36
9265.28
-5353.84
9568.05
-4685.02
9853.72
-3300.43
10012.1
-954.754
9934.26
2103.9
9563.26
5268.33
8919.19
7927.26
8070.98
9732.63
7109.26
10658
6123.71
10820.2
5173.49
10409.2
4288.06
9649.74
3476.06
8837.28
2724.72
8298.69
2026.16
8036.03
1402.83
7634.86
886.298
6791.87
470.821
5664.01
50.384
4759.52
-543.234
4554.4
-1355.38
4976.64
-2272.39
5117.22
-3173.17
3738.43
-4075.34
1431.87
-4841.05
329.187
-5260.27
505.619
-5500.29
719.849
-5657.44
625.927
-5708.23
248.558
-5760.53
-624.452
-5891.99
-1869.18
-6219.12
-3262.1
-6721.33
-4753.33
-7416.53
-6118.74
-8300.76
-7112.41
-9246.85
-7364.73
-9927.86
-6286.49
-9812.26
-3143.49
-8824.25
1811.92
-7594.29
6064.08
-6778.95
8420.83
-6493.16
9031.11
-6564.35
8488.75
-6877.85
7123.24
-7325.45
5569.49
-7734.87
4556.1
-7994.61
4235.12
-8147.95
4129.89
-8338.85
3810.89
3559.6
2053.26
-2822.35
2172.27
-2342.25
2252.58
-1810.91
2305.72
-1270.64
2336.14
-757.682
2340.92
-278.049
2323.18
122.443
2295.52
365.163
2271.43
479.065
2260.71
523.345
2265.16
545.962
2279.47
567.129
2295.65
578.834
2307.27
559.451
2310.09
491.407
2305.4
349.623
2291.23
168.359
2251.94
-25.4755
2190.04
-419.403
2159.59
-1157.22
2180.79
-1764.11
2220.99
-1973.75
2265.46
-1997.98
2316.08
-2009.88
2380.19
-2021.77
2454.25
-1940.46
2531.78
-1784.07
2627.79
-1827.73
2759.03
-2290.52
2916.27
-2950.8
3090.63
-3510.59
3287.59
-3956.12
3509.92
-4396.39
3752.14
-4869.22
4010.78
-5348.41
4290.12
-5813.73
4599.05
-6272.36
4946.12
-6739.18
5337.39
-7218.15
5775.27
-7699.11
6247.9
-8124.01
6727.08
-8439.09
7165.68
-8531.18
7535.58
-8395.79
7813.83
-7976.49
7989.48
-7309.07
8093.82
-6647.94
8168.86
-6155.22
8265.02
-5897.54
8423.92
-5785.26
8669.31
-5599.24
8984.31
-5000.02
9296.74
-3612.86
9485.45
-1143.47
9437.47
2151.87
9105.9
5599.9
8502.68
8530.48
7675.76
10559.6
6709.58
11624.1
5703.59
11826.2
4726.23
11386.6
3809.57
10566.4
2957.78
9689.07
2155.8
9100.67
1407.6
8784.23
752.058
8290.41
225.411
7318.51
-198.19
6087.61
-657.323
5218.66
-1301.68
5198.77
-2104.86
5779.82
-2895.16
5907.52
-3666.14
4509.41
-4524.41
2290.14
-5270.62
1075.4
-5706.17
941.176
-5957.71
971.391
-6122.03
790.247
-6198.1
324.629
-6279.86
-542.696
-6464.4
-1684.64
-6836.69
-2889.82
-7373.98