/*--------------------------------*- C++ -*----------------------------------*\
| =========                 |                                                 |
| \\      /  F ield         | OpenFOAM: The Open Source CFD Toolbox           |
|  \\    /   O peration     | Version:  4.1                                   |
|   \\  /    A nd           | Web:      www.OpenFOAM.org                      |
|    \\/     M anipulation  |                                                 |
\*---------------------------------------------------------------------------*/
FoamFile
{
    version     2.0;
    format      ascii;
    class       volVectorField;
    location    "1400";
    object      U;
}
// * * * * * * * * * * * * * * * * * * * * * * * * * * * * * * * * * * * * * //

dimensions      [0 1 -1 0 0 0 0];

internalField   nonuniform List<vector> 
26785
(
(-3.1165e-17 -0.0217928 22.0508)
(-2.49612e-17 -0.0136079 22.3836)
(-7.71495e-16 -0.00428384 22.5473)
(1.90127e-15 0.00808338 22.4788)
(5.18151e-15 0.0212671 22.1618)
(4.47597e-15 0.0328793 21.6194)
(1.25006e-14 0.0417701 20.9052)
(6.58755e-15 0.0475015 20.084)
(3.53546e-15 0.0508126 19.2115)
(-2.42685e-15 0.0527298 18.3226)
(4.27485e-15 0.0539408 17.434)
(4.44994e-15 0.0548349 16.5523)
(6.42994e-15 0.0555625 15.6799)
(5.66891e-15 0.0560158 14.819)
(2.51463e-15 0.0558929 13.9759)
(-2.00641e-15 0.0547474 13.1621)
(-6.70862e-15 0.0520292 12.3931)
(-1.00204e-14 0.0457199 11.6972)
(-1.36996e-14 0.0321133 11.1485)
(-1.08686e-14 0.013176 10.8473)
(-2.00836e-16 -0.00306328 10.7943)
(-3.84688e-15 -0.0130964 10.9151)
(-4.86666e-15 -0.018952 11.1248)
(3.82811e-15 -0.0226812 11.3938)
(1.31464e-14 -0.0247793 11.7129)
(2.3842e-14 -0.0257697 12.0628)
(1.59842e-14 -0.0289042 12.4378)
(9.93889e-15 -0.0390932 12.8919)
(1.65944e-14 -0.0570879 13.5153)
(1.68056e-14 -0.0768186 14.3412)
(7.80873e-15 -0.0917365 15.3112)
(-3.07037e-17 -0.100626 16.3388)
(-2.05785e-15 -0.106472 17.3749)
(-2.61339e-15 -0.11253 18.4191)
(-2.1282e-15 -0.119992 19.4952)
(-1.83498e-15 -0.128081 20.6229)
(-1.44289e-15 -0.135344 21.8046)
(1.34296e-15 -0.140668 23.0273)
(1.2514e-15 -0.143638 24.2706)
(1.78111e-15 -0.144414 25.5138)
(-9.93284e-15 -0.143384 26.7397)
(-1.48244e-14 -0.140978 27.9352)
(-1.52868e-14 -0.137332 29.0904)
(-6.58059e-15 -0.132433 30.1963)
(-5.64437e-15 -0.126189 31.2441)
(8.52776e-16 -0.118634 32.2251)
(8.10542e-15 -0.110243 33.133)
(1.08883e-14 -0.101428 33.9665)
(1.31104e-14 -0.0917431 34.7249)
(1.55522e-14 -0.0796335 35.3999)
(5.56419e-15 -0.0627394 35.966)
(1.41179e-15 -0.0386708 36.378)
(4.475e-15 -0.00613662 36.5763)
(4.08121e-15 0.0342008 36.4994)
(4.49504e-15 0.0784846 36.1058)
(4.18394e-15 0.120681 35.3948)
(1.09767e-14 0.156059 34.4032)
(1.27026e-14 0.182123 33.1995)
(5.61969e-15 0.197536 31.8636)
(4.68384e-15 0.203106 30.4734)
(1.37988e-14 0.200986 29.0923)
(1.39717e-14 0.19391 27.7632)
(8.41755e-15 0.184165 26.5082)
(1.14606e-14 0.172301 25.3366)
(2.56672e-14 0.156774 24.2609)
(1.9259e-14 0.13568 23.308)
(1.45237e-14 0.108963 22.5146)
(1.1203e-14 0.0786048 21.9103)
(1.09318e-14 0.0474171 21.5048)
(1.16416e-14 0.0177907 21.2909)
(1.9228e-14 -0.00948524 21.2502)
(3.0935e-14 -0.0331943 21.3594)
(1.89008e-14 -0.0499135 21.5884)
(1.62652e-14 -0.0537618 21.8833)
(1.61035e-14 -0.0415415 22.1608)
(1.83129e-14 -0.0183609 22.3308)
(1.0481e-14 0.004303 22.3622)
(1.56073e-14 0.0233337 22.2631)
(1.36669e-14 0.0216992 22.0806)
(1.12608e-14 -0.0263778 22.0106)
(1.12066e-14 -0.110034 22.3297)
(-2.54864e-15 -0.190851 23.1578)
(3.85831e-15 -0.242041 24.3697)
(7.46886e-15 -0.249564 25.7437)
(1.52573e-14 -0.196068 26.9997)
(3.29256e-14 -0.0863344 27.8057)
(3.3368e-14 0.0370417 27.957)
(3.2848e-14 0.154568 27.4225)
(3.62736e-14 0.251054 26.318)
(3.80913e-14 0.308599 24.8049)
(3.60926e-14 0.330643 23.0995)
(3.60124e-14 0.327666 21.3783)
(3.60567e-14 0.306848 19.7546)
(3.54835e-14 0.272691 18.2985)
(3.45199e-14 0.232868 17.0518)
(3.1296e-14 0.19594 16.0102)
(2.79065e-14 0.165081 15.1568)
(2.56105e-14 0.134662 14.4258)
(2.38609e-14 0.11132 13.9123)
(2.13715e-14 0.0665627 13.3366)
(4.48169e-17 -0.0508433 22.0722)
(-1.65622e-15 -0.0305173 22.3707)
(-2.27549e-16 -0.00528706 22.497)
(2.53663e-15 0.0289839 22.3983)
(4.75181e-15 0.0656592 22.0685)
(2.91746e-15 0.0983104 21.5301)
(9.69782e-15 0.123863 20.8255)
(5.85492e-15 0.140674 20.0136)
(8.23905e-15 0.150682 19.1475)
(1.04092e-14 0.156763 18.2615)
(6.89012e-15 0.160843 17.3723)
(5.87779e-15 0.163985 16.4871)
(5.24107e-15 0.166545 15.6093)
(3.72603e-15 0.16812 14.7427)
(7.51047e-16 0.167723 13.8953)
(2.87785e-15 0.163909 13.0816)
(-1.2596e-15 0.154921 12.3203)
(-7.90252e-15 0.134401 11.6445)
(-4.46128e-15 0.0917716 11.14)
(-1.82263e-15 0.0353541 10.8992)
(-4.23134e-15 -0.0107312 10.8788)
(7.34196e-15 -0.0393053 11.0326)
(-3.73046e-16 -0.0582067 11.3017)
(1.62994e-14 -0.074398 11.6737)
(1.56349e-14 -0.0872681 12.1292)
(1.98273e-14 -0.0969938 12.6255)
(2.5095e-14 -0.114309 13.1464)
(2.06903e-14 -0.15242 13.7426)
(1.7461e-14 -0.207512 14.4825)
(1.18264e-14 -0.257854 15.3659)
(4.76051e-15 -0.287387 16.3218)
(1.46184e-15 -0.298498 17.2773)
(6.36924e-15 -0.303699 18.2052)
(7.86128e-15 -0.313481 19.1227)
(1.45221e-14 -0.330797 20.0643)
(1.35482e-14 -0.352428 21.0569)
(6.93596e-15 -0.373279 22.1095)
(3.87014e-15 -0.389517 23.2141)
(2.44017e-15 -0.399525 24.3531)
(5.98416e-16 -0.403441 25.5058)
(2.01863e-15 -0.402127 26.6533)
(-7.67971e-15 -0.396691 27.7806)
(-9.17368e-15 -0.387572 28.8767)
(-1.58652e-14 -0.374973 29.9324)
(-1.97276e-14 -0.358898 30.9394)
(-2.18368e-14 -0.33959 31.8894)
(-9.0513e-15 -0.318389 32.7761)
(-5.89518e-15 -0.296231 33.5971)
(2.32406e-15 -0.271353 34.3504)
(-9.47483e-15 -0.238704 35.0257)
(-8.57166e-15 -0.190954 35.5954)
(1.46558e-16 -0.120865 36.0123)
(-3.40203e-15 -0.0246697 36.215)
(1.49335e-14 0.0954253 36.1401)
(1.66117e-14 0.22756 35.7456)
(1.35751e-15 0.353275 35.0335)
(9.61891e-15 0.458622 34.0359)
(2.12348e-14 0.535966 32.8245)
(9.43032e-15 0.581492 31.4798)
(-2.11355e-15 0.597824 30.0806)
(3.19576e-16 0.591586 28.6901)
(6.99582e-15 0.571067 27.3503)
(1.96824e-14 0.543183 26.0823)
(3.09076e-14 0.509562 24.8939)
(2.63039e-14 0.465418 23.7956)
(1.75769e-14 0.404858 22.8131)
(7.96671e-15 0.327631 21.9821)
(2.85299e-15 0.239822 21.3312)
(1.08912e-14 0.149482 20.8676)
(3.21019e-14 0.0636362 20.5856)
(9.06178e-15 -0.0146298 20.4679)
(2.53822e-15 -0.0832624 20.4919)
(1.46912e-14 -0.133102 20.6345)
(1.86587e-14 -0.146776 20.8566)
(1.44706e-14 -0.114186 21.091)
(1.19278e-16 -0.0489716 21.2552)
(1.86049e-14 0.0171099 21.3147)
(1.44173e-14 0.0744412 21.2524)
(1.49659e-14 0.0690976 21.1088)
(2.87697e-14 -0.07352 21.0696)
(3.06964e-14 -0.321139 21.3835)
(1.80073e-14 -0.562776 22.1942)
(1.66403e-14 -0.717951 23.3903)
(8.30562e-15 -0.743743 24.7666)
(-3.55582e-15 -0.587669 26.0519)
(2.21762e-15 -0.261608 26.9095)
(1.75778e-14 0.111177 27.1175)
(2.16097e-14 0.468443 26.583)
(2.34271e-14 0.757236 25.4784)
(1.98847e-14 0.92569 23.9593)
(2.01306e-14 0.986395 22.2568)
(2.23469e-14 0.972787 20.55)
(2.45854e-14 0.906681 18.9503)
(2.6487e-14 0.801705 17.5261)
(3.27082e-14 0.681231 16.3177)
(2.81771e-14 0.570745 15.3168)
(2.58269e-14 0.478305 14.5018)
(2.40545e-14 0.386778 13.8109)
(1.92468e-14 0.311503 13.3253)
(1.56732e-14 0.177507 12.8437)
(9.82936e-16 -0.0820719 21.9545)
(-7.94149e-16 -0.0501286 22.2092)
(-2.78165e-15 -0.00776358 22.2869)
(3.74839e-15 0.0484767 22.1491)
(2.03165e-15 0.107892 21.7992)
(1.28153e-15 0.161126 21.2589)
(6.76546e-15 0.203593 20.5592)
(-3.10067e-15 0.232037 19.753)
(-1.67481e-15 0.249318 18.8905)
(-2.11799e-15 0.260008 18.0059)
(-1.98323e-15 0.267251 17.1165)
(-1.27993e-15 0.272769 16.2307)
(2.60572e-16 0.2771 15.3531)
(2.0179e-15 0.279488 14.4892)
(6.65902e-16 0.278161 13.6493)
(2.43928e-16 0.270601 12.851)
(1.06749e-14 0.253666 12.1165)
(-7.97029e-16 0.215769 11.4854)
(-6.03052e-15 0.1408 11.0517)
(-2.69756e-14 0.0473064 10.8817)
(-1.78143e-14 -0.0269677 10.9359)
(-9.96706e-15 -0.0790897 11.2191)
(-7.39307e-15 -0.120878 11.6816)
(-4.76966e-16 -0.157004 12.2663)
(5.46527e-15 -0.181052 12.896)
(4.54813e-15 -0.194393 13.5008)
(1.34975e-14 -0.217329 14.0619)
(1.7193e-14 -0.270698 14.6256)
(1.37353e-14 -0.347099 15.2589)
(1.29666e-14 -0.413997 15.9827)
(1.24024e-14 -0.449952 16.7598)
(4.95171e-15 -0.461154 17.5427)
(6.03381e-15 -0.467331 18.3145)
(1.33447e-14 -0.483849 19.0919)
(1.15641e-14 -0.514297 19.9088)
(3.14775e-15 -0.553073 20.7965)
(-1.01131e-15 -0.591787 21.7704)
(-1.24275e-15 -0.623694 22.8246)
(-2.75594e-15 -0.645293 23.9366)
(-2.98973e-15 -0.656114 25.0773)
(-4.44824e-15 -0.65739 26.2201)
(-6.21431e-15 -0.651225 27.3455)
(-7.42578e-15 -0.638709 28.4399)
(-7.0875e-15 -0.620399 29.4937)
(-7.20993e-15 -0.59622 30.4987)
(-6.50073e-15 -0.566314 31.4468)
(-5.83873e-15 -0.532709 32.3314)
(-5.93654e-15 -0.496858 33.1503)
(-6.39183e-15 -0.45581 33.9019)
(-4.8188e-15 -0.401232 34.5756)
(-2.86001e-15 -0.321021 35.1442)
(4.23803e-16 -0.203147 35.5597)
(2.41014e-15 -0.0413287 35.7595)
(2.78466e-15 0.160885 35.6773)
(-2.33902e-16 0.383489 35.2681)
(8.14494e-15 0.594974 34.535)
(1.66004e-14 0.772252 33.5053)
(1.55037e-14 0.90191 32.2541)
(6.87723e-15 0.977801 30.8641)
(-3.91965e-15 1.00469 29.416)
(-9.28939e-15 0.993973 27.9739)
(-2.33979e-15 0.9597 26.5796)
(-1.54487e-15 0.913684 25.2533)
(-2.18216e-15 0.858825 24.0005)
(6.10904e-16 0.787069 22.8301)
(9.96061e-15 0.688472 21.7673)
(1.49067e-14 0.562685 20.8479)
(4.09551e-15 0.420317 20.1001)
(6.57295e-16 0.274074 19.5298)
(-9.42374e-16 0.13461 19.1309)
(4.86542e-16 0.00789846 18.8925)
(2.57925e-15 -0.105517 18.7959)
(4.44391e-15 -0.194449 18.8255)
(1.17577e-14 -0.229619 18.9547)
(9.08865e-15 -0.192956 19.1316)
(6.91045e-15 -0.103766 19.2858)
(1.19549e-14 -0.00781756 19.3911)
(1.74585e-14 0.0835387 19.4094)
(2.01112e-14 0.0768752 19.3542)
(1.9602e-14 -0.151562 19.3871)
(1.70436e-14 -0.552122 19.7443)
(1.5277e-14 -0.948688 20.5962)
(1.1264e-14 -1.20985 21.8436)
(1.70171e-14 -1.2637 23.3074)
(1.41357e-14 -1.01472 24.7171)
(1.79209e-14 -0.471273 25.6972)
(2.00249e-14 0.163797 26.0013)
(2.13681e-14 0.774659 25.4742)
(2.11426e-14 1.26023 24.363)
(2.5514e-14 1.53721 22.8244)
(2.73282e-14 1.63148 21.1149)
(2.6805e-14 1.60289 19.4183)
(2.9759e-14 1.48729 17.8409)
(3.15563e-14 1.30696 16.4508)
(2.98311e-14 1.10286 15.2894)
(2.76927e-14 0.919185 14.3426)
(2.71778e-14 0.766257 13.5786)
(2.48518e-14 0.614492 12.9396)
(2.04499e-14 0.473035 12.4856)
(1.61053e-14 0.24683 12.1561)
(2.83075e-16 -0.110242 21.694)
(3.13322e-15 -0.0654669 21.8887)
(-2.64938e-15 -0.00642998 21.9107)
(-7.01216e-15 0.0697491 21.7369)
(-6.12827e-15 0.149613 21.3772)
(-1.99132e-15 0.221943 20.8483)
(-4.53979e-15 0.280748 20.1669)
(-5.1693e-15 0.320727 19.3778)
(1.27736e-15 0.345365 18.5274)
(-2.81147e-15 0.360747 17.6503)
(-4.61154e-15 0.371163 16.7657)
(-4.91984e-15 0.378951 15.8842)
(-1.54169e-15 0.384765 15.0127)
(-4.94458e-15 0.3874 14.1595)
(-1.14338e-14 0.384194 13.3384)
(-6.66387e-15 0.371456 12.5708)
(-3.68588e-15 0.344382 11.8839)
(-8.82841e-18 0.285771 11.3226)
(-1.07473e-14 0.177767 10.9811)
(7.69846e-16 0.0467676 10.906)
(4.42445e-16 -0.0646926 11.1366)
(6.39096e-15 -0.152818 11.6669)
(7.38006e-15 -0.219653 12.3515)
(1.05749e-14 -0.264848 13.0568)
(8.68784e-15 -0.283722 13.6988)
(5.50112e-15 -0.28513 14.2388)
(4.67055e-15 -0.299968 14.6813)
(3.37636e-15 -0.357505 15.0825)
(4.12802e-15 -0.449753 15.5291)
(6.72483e-15 -0.534519 16.073)
(1.37914e-15 -0.582373 16.6975)
(9.85399e-16 -0.599669 17.3573)
(4.45645e-15 -0.611229 18.0268)
(-2.54917e-16 -0.637504 18.7163)
(6.85893e-15 -0.684568 19.4637)
(-9.46243e-15 -0.745826 20.3109)
(-1.46994e-14 -0.808864 21.2762)
(-6.35287e-15 -0.861943 22.3432)
(-1.72482e-14 -0.898224 23.4731)
(-1.1661e-14 -0.916632 24.6245)
(-6.87146e-15 -0.91956 25.7655)
(-1.56814e-14 -0.910915 26.8765)
(-1.48922e-14 -0.892931 27.9478)
(-6.27966e-16 -0.866926 28.9747)
(5.07164e-15 -0.833051 29.9547)
(8.21956e-15 -0.791529 30.8831)
(7.01315e-15 -0.745215 31.7541)
(-1.43222e-15 -0.696091 32.565)
(-6.15986e-15 -0.639904 33.3137)
(5.70992e-15 -0.564841 33.9891)
(1.18334e-14 -0.45373 34.5636)
(2.93535e-14 -0.289354 34.9884)
(4.35497e-14 -0.0624867 35.1993)
(2.31154e-14 0.22245 35.127)
(5.79734e-15 0.537261 34.7241)
(-1.27654e-15 0.837044 33.9923)
(7.73616e-15 1.0896 32.9519)
(1.14391e-14 1.27476 31.6798)
(7.53857e-15 1.38375 30.259)
(2.64505e-15 1.42358 28.7718)
(-5.25883e-15 1.41053 27.2831)
(-8.16767e-15 1.36476 25.8341)
(-2.05752e-14 1.30339 24.4426)
(-1.7397e-14 1.2306 23.1109)
(-1.30634e-14 1.13445 21.846)
(-1.7922e-14 1.00026 20.6763)
(-2.45599e-14 0.827635 19.644)
(2.22307e-15 0.63213 18.7818)
(1.29683e-14 0.431764 18.0994)
(6.40061e-15 0.239551 17.5861)
(4.42866e-15 0.0635715 17.2373)
(-8.63009e-15 -0.0946484 17.0391)
(1.02667e-14 -0.227142 16.9774)
(-9.82927e-15 -0.290623 17.0258)
(-7.13809e-15 -0.259913 17.1305)
(1.45191e-14 -0.162495 17.2253)
(8.21098e-15 -0.0544352 17.3094)
(1.38155e-14 0.0611898 17.3392)
(-1.98186e-14 0.0531711 17.3151)
(-4.58551e-16 -0.258453 17.3812)
(9.61952e-15 -0.813238 17.7705)
(1.55597e-14 -1.36837 18.6868)
(1.31878e-14 -1.74887 20.0635)
(1.36294e-14 -1.85049 21.7359)
(2.45567e-14 -1.51312 23.3811)
(2.38529e-14 -0.730915 24.5403)
(1.38844e-14 0.198242 24.9489)
(2.00078e-15 1.08607 24.3966)
(9.75629e-15 1.77484 23.2403)
(1.47691e-14 2.15486 21.6472)
(2.08821e-14 2.27383 19.9078)
(1.99894e-14 2.22348 18.2067)
(2.56582e-14 2.05205 16.6391)
(3.19022e-14 1.78907 15.2735)
(3.17537e-14 1.49587 14.1565)
(3.10764e-14 1.23875 13.266)
(2.60526e-14 1.0266 12.5551)
(2.7984e-14 0.816179 11.967)
(2.1819e-14 0.581895 11.5373)
(1.77592e-14 0.255812 11.4355)
(9.95827e-16 -0.135116 21.2661)
(-2.12499e-15 -0.0778528 21.3801)
(-6.46882e-15 -0.00434635 21.3541)
(-1.83733e-15 0.088941 21.1645)
(-5.08492e-15 0.186642 20.8142)
(-3.58978e-15 0.276503 20.3131)
(-1.19896e-17 0.351627 19.6683)
(-5.6411e-15 0.404134 18.9147)
(-4.05918e-15 0.437394 18.0932)
(-5.27507e-15 0.45847 17.2379)
(-3.47342e-15 0.472607 16.3698)
(-1.2461e-14 0.482737 15.5024)
(-1.6602e-14 0.489631 14.6463)
(-8.76251e-15 0.491609 13.8142)
(-9.30182e-15 0.485048 13.0247)
(-4.89972e-15 0.464936 12.3057)
(-2.973e-15 0.425117 11.6897)
(-3.06219e-15 0.342802 11.2201)
(2.62058e-15 0.19906 11)
(3.64815e-15 0.0204507 11.0995)
(1.11604e-15 -0.140462 11.5986)
(-3.65297e-15 -0.258685 12.3291)
(-6.79402e-15 -0.330314 13.0633)
(-3.10589e-15 -0.364912 13.6955)
(-2.47807e-15 -0.367206 14.2081)
(-3.58276e-15 -0.351753 14.607)
(2.81977e-15 -0.356137 14.9075)
(3.93604e-16 -0.417247 15.1628)
(-4.06631e-15 -0.527594 15.468)
(1.50296e-16 -0.634741 15.8911)
(-7.78033e-16 -0.699004 16.4217)
(-2.12798e-16 -0.725266 17.0072)
(1.19217e-15 -0.743839 17.613)
(-5.37131e-15 -0.782474 18.2507)
(-1.88422e-15 -0.851355 18.9692)
(-2.84273e-15 -0.941419 19.8135)
(-8.05416e-15 -1.03282 20.7875)
(-1.05308e-14 -1.10697 21.8535)
(-1.05565e-14 -1.15462 22.9603)
(-1.05615e-14 -1.17616 24.0673)
(-8.82093e-15 -1.17675 25.151)
(-6.18499e-15 -1.16315 26.2036)
(6.46966e-15 -1.1393 27.2265)
(1.4845e-14 -1.10738 28.2232)
(1.67876e-14 -1.06702 29.1926)
(1.97938e-14 -1.01733 30.1248)
(2.3517e-14 -0.961122 31.0059)
(2.79211e-14 -0.90062 31.827)
(2.83322e-14 -0.830398 32.5831)
(3.71987e-14 -0.735473 33.2636)
(4.13453e-14 -0.59386 33.8419)
(3.91343e-14 -0.383183 34.2707)
(4.03005e-14 -0.0911431 34.4853)
(4.19209e-14 0.27728 34.4146)
(4.62724e-14 0.685491 34.0101)
(3.42883e-14 1.07489 33.2772)
(2.8909e-14 1.40478 32.2321)
(2.84057e-14 1.64777 30.955)
(3.39618e-14 1.7924 29.528)
(3.36917e-14 1.84789 28.0328)
(3.21045e-14 1.83552 26.5319)
(2.58127e-14 1.78197 25.0641)
(1.40145e-14 1.7103 23.6417)
(1.16006e-14 1.62585 22.2594)
(1.89281e-15 1.51121 20.9193)
(6.14424e-15 1.34509 19.6534)
(3.09356e-14 1.1266 18.5139)
(1.11723e-14 0.876849 17.5426)
(5.27116e-15 0.621035 16.7546)
(4.86326e-15 0.373862 16.138)
(2.52034e-14 0.143889 15.6905)
(1.69539e-14 -0.06282 15.4079)
(2.09434e-14 -0.241247 15.2771)
(2.27449e-15 -0.332276 15.2716)
(-1.23602e-14 -0.304147 15.3172)
(3.66834e-15 -0.201324 15.335)
(-7.25014e-15 -0.0910369 15.3533)
(-1.00123e-14 0.0417189 15.3241)
(-2.86742e-14 0.027855 15.2584)
(9.14051e-15 -0.374699 15.2906)
(6.90572e-15 -1.09912 15.6565)
(1.3084e-14 -1.83772 16.6884)
(2.35147e-14 -2.3768 18.3306)
(-1.06873e-14 -2.5505 20.3052)
(-9.03864e-15 -2.11464 22.2028)
(-8.52182e-15 -1.05614 23.5245)
(-9.96349e-15 0.212849 24.0213)
(-7.46824e-15 1.413 23.4008)
(-3.76763e-15 2.31331 22.1542)
(2.72069e-15 2.78532 20.4689)
(6.53183e-15 2.91689 18.6792)
(1.35511e-14 2.83967 16.964)
(2.06969e-14 2.60764 15.3979)
(2.68141e-14 2.25292 14.0506)
(2.95649e-14 1.86178 12.979)
(3.41445e-14 1.52951 12.1494)
(2.97156e-14 1.25979 11.4945)
(2.50883e-14 0.995513 10.9491)
(1.99688e-14 0.607686 10.5294)
(1.9745e-14 0.168378 10.7584)
(-2.97801e-16 -0.160906 20.6012)
(1.08371e-15 -0.0922864 20.711)
(1.0137e-15 -0.00551785 20.7065)
(-2.93857e-15 0.10412 20.5509)
(-2.43763e-15 0.219283 20.2361)
(-1.71307e-15 0.326062 19.7664)
(-4.11552e-15 0.416721 19.1518)
(-4.65714e-15 0.481412 18.4273)
(-8.62346e-15 0.523558 17.6334)
(-1.02816e-14 0.55095 16.8049)
(-5.87888e-15 0.569459 15.9634)
(-8.62281e-15 0.582322 15.1234)
(-5.49804e-15 0.590178 14.298)
(2.75736e-16 0.590658 13.5041)
(3.91956e-15 0.578988 12.7677)
(4.86064e-15 0.548903 12.1239)
(3.77849e-15 0.493664 11.6075)
(7.25751e-15 0.383276 11.2612)
(1.43045e-14 0.195408 11.2153)
(-1.20421e-16 -0.0390219 11.5387)
(-1.03454e-14 -0.240678 12.2069)
(-6.32275e-15 -0.365473 12.9349)
(1.89375e-15 -0.423762 13.5463)
(-4.18511e-15 -0.441532 14.0182)
(-9.28736e-15 -0.428759 14.3847)
(-8.94405e-15 -0.399532 14.666)
(-7.77148e-15 -0.394772 14.8662)
(-4.12365e-15 -0.459636 15.0234)
(-4.28005e-15 -0.589545 15.2333)
(2.13216e-15 -0.722142 15.5767)
(-5.599e-16 -0.805697 16.0462)
(3.19028e-16 -0.842661 16.5827)
(7.27706e-17 -0.87007 17.1474)
(-1.8702e-15 -0.92454 17.757)
(1.6774e-15 -1.01925 18.4637)
(-6.52572e-15 -1.1393 19.3005)
(-1.11933e-14 -1.25582 20.2503)
(-9.61015e-15 -1.34535 21.2645)
(-5.64745e-15 -1.39943 22.2984)
(-4.18928e-15 -1.422 23.3272)
(4.28103e-15 -1.42163 24.3452)
(1.55761e-14 -1.40763 25.3582)
(2.06605e-14 -1.38436 26.3734)
(3.08905e-14 -1.3528 27.3899)
(3.26023e-14 -1.31003 28.3941)
(2.91551e-14 -1.25304 29.3612)
(2.8927e-14 -1.18533 30.2664)
(2.79496e-14 -1.11083 31.0979)
(2.47772e-14 -1.02421 31.8534)
(1.77931e-14 -0.907968 32.5274)
(9.8261e-15 -0.735315 33.0975)
(1.84148e-15 -0.478255 33.5176)
(-3.04348e-15 -0.120844 33.7214)
(-3.17541e-15 0.331939 33.6327)
(7.15641e-16 0.834041 33.2009)
(6.64971e-15 1.31189 32.4358)
(1.36086e-14 1.71713 31.3561)
(1.58929e-14 2.01563 30.0524)
(3.16875e-14 2.19413 28.6113)
(4.28033e-14 2.26462 27.115)
(4.05674e-14 2.25359 25.6235)
(4.90727e-14 2.19482 24.17)
(4.01884e-14 2.11832 22.7575)
(2.82547e-14 2.03051 21.3663)
(2.91452e-14 1.90626 19.987)
(4.81163e-14 1.71471 18.6522)
(4.53606e-14 1.45332 17.4256)
(4.64294e-14 1.1498 16.3609)
(4.98028e-14 0.83813 15.479)
(4.08652e-14 0.535426 14.7721)
(7.28161e-14 0.247506 14.2324)
(4.72997e-14 -0.0153041 13.8748)
(5.53051e-14 -0.244532 13.6935)
(4.52227e-14 -0.361618 13.6632)
(8.86482e-14 -0.327584 13.6773)
(5.02613e-14 -0.215374 13.6319)
(4.89575e-14 -0.103994 13.5775)
(3.94552e-14 0.0447379 13.4434)
(1.63318e-14 0.0240795 13.2889)
(2.47719e-14 -0.477144 13.2038)
(2.49473e-14 -1.41639 13.5066)
(2.75643e-14 -2.40647 14.8018)
(6.32524e-16 -3.13183 16.7472)
(-4.3466e-14 -3.35592 18.8463)
(-8.05212e-14 -2.79172 20.7892)
(-7.84082e-14 -1.42387 22.1859)
(-6.51501e-14 0.218148 22.8071)
(-6.21663e-14 1.76134 22.1562)
(-5.15592e-14 2.88715 20.8419)
(-3.76492e-14 3.43961 19.0758)
(-2.96787e-14 3.56436 17.2592)
(-1.88534e-14 3.44919 15.5623)
(-6.15116e-15 3.14901 14.0261)
(1.03884e-14 2.69206 12.7221)
(2.33772e-14 2.19446 11.7241)
(2.34259e-14 1.78896 10.98)
(2.0858e-14 1.4698 10.3994)
(2.0933e-14 1.17036 9.8726)
(2.28488e-14 0.547777 9.4871)
(1.99958e-14 -0.04036 10.013)
(-8.49836e-16 -0.182712 20.01)
(-2.97245e-16 -0.108947 20.1364)
(-4.72801e-17 -0.0111732 20.1674)
(-4.14472e-15 0.114278 20.0584)
(-4.36385e-15 0.247597 19.7965)
(-1.60908e-15 0.372942 19.3774)
(-1.43396e-16 0.480745 18.7967)
(-6.55194e-15 0.558293 18.0852)
(-1.50911e-15 0.608885 17.2931)
(5.58639e-15 0.641578 16.468)
(3.8228e-15 0.66342 15.6389)
(-4.69762e-15 0.678096 14.8236)
(-2.54393e-15 0.685874 14.0366)
(9.17392e-16 0.683256 13.2982)
(4.45175e-15 0.664012 12.6393)
(7.24667e-15 0.621034 12.0988)
(1.25408e-14 0.547035 11.7053)
(6.22292e-15 0.403781 11.5052)
(-4.70776e-15 0.16719 11.6246)
(6.24118e-16 -0.115098 12.0733)
(1.67872e-15 -0.337206 12.7183)
(8.24303e-15 -0.452953 13.3082)
(6.26819e-15 -0.493958 13.7518)
(-4.38025e-15 -0.498233 14.0767)
(-5.55337e-15 -0.475605 14.3324)
(-8.39597e-15 -0.43618 14.5343)
(-7.8885e-15 -0.422991 14.6695)
(-7.72941e-15 -0.491066 14.7595)
(-3.87549e-15 -0.641339 14.9008)
(-1.723e-15 -0.801661 15.1851)
(-7.58079e-16 -0.906585 15.6082)
(-1.26023e-15 -0.955697 16.1069)
(1.05509e-15 -0.993656 16.6416)
(2.40032e-15 -1.06583 17.2318)
(7.35572e-15 -1.18633 17.9258)
(1.79291e-15 -1.33296 18.7419)
(1.09769e-15 -1.46933 19.6503)
(5.68527e-15 -1.57028 20.6048)
(1.11217e-14 -1.63036 21.5755)
(1.20152e-14 -1.65747 22.5557)
(2.24434e-14 -1.66257 23.5532)
(2.15524e-14 -1.65563 24.5783)
(2.92386e-14 -1.63886 25.6318)
(2.92362e-14 -1.61024 26.6982)
(2.42891e-14 -1.56387 27.7485)
(2.00692e-14 -1.49576 28.7467)
(1.74999e-14 -1.41219 29.6647)
(1.1203e-14 -1.32036 30.4941)
(-2.2974e-15 -1.21562 31.2399)
(-2.44374e-14 -1.07769 31.9028)
(-4.28728e-14 -0.874198 32.4637)
(-5.89252e-14 -0.57049 32.8758)
(-6.1137e-14 -0.146034 33.0676)
(-5.37309e-14 0.394761 32.9529)
(-4.58066e-14 0.994822 32.4761)
(-3.70658e-14 1.56296 31.6425)
(-2.53653e-14 2.04189 30.4768)
(-2.43781e-14 2.39076 29.0902)
(-1.31642e-14 2.59628 27.5847)
(2.41736e-15 2.67503 26.0518)
(3.95153e-15 2.65994 24.5531)
(9.84572e-15 2.59351 23.1185)
(1.37276e-14 2.51474 21.7398)
(2.50588e-14 2.43166 20.3759)
(2.33502e-14 2.30863 18.9947)
(3.30889e-14 2.10071 17.6223)
(3.44759e-14 1.80145 16.3328)
(5.1885e-14 1.44608 15.1938)
(6.21727e-14 1.07887 14.2329)
(6.09193e-14 0.721571 13.4463)
(5.2246e-14 0.371886 12.821)
(1.41482e-15 0.0427178 12.3932)
(4.35325e-14 -0.251154 12.1863)
(5.81144e-14 -0.389075 12.1621)
(5.49234e-14 -0.336205 12.1787)
(6.7353e-14 -0.206671 12.0994)
(7.38409e-14 -0.0862913 11.9855)
(5.33183e-14 0.0889626 11.7103)
(3.55718e-14 0.0745262 11.435)
(4.56417e-14 -0.546334 11.1338)
(4.1623e-14 -1.79983 11.4339)
(-7.94307e-15 -3.09147 13.04)
(-3.4679e-14 -3.93254 14.9561)
(-7.53682e-14 -4.15162 16.7213)
(-1.08826e-13 -3.48929 18.3972)
(-1.08508e-13 -1.85314 19.7974)
(-1.10042e-13 0.191054 20.7105)
(-1.03332e-13 2.1076 20.2163)
(-9.39544e-14 3.4565 18.9891)
(-8.29157e-14 4.07496 17.2228)
(-7.14192e-14 4.18285 15.4419)
(-5.27549e-14 4.02856 13.8318)
(-2.79471e-14 3.65582 12.3908)
(-9.17847e-15 3.08429 11.1917)
(2.8904e-15 2.47008 10.3302)
(1.14067e-14 1.9929 9.72152)
(1.34634e-14 1.639 9.26493)
(1.98374e-14 1.29582 8.66242)
(1.5365e-14 0.361631 8.55129)
(1.31118e-14 -0.374259 9.13766)
(-2.4002e-15 -0.211483 19.4022)
(-2.32725e-15 -0.131986 19.5704)
(4.18851e-15 -0.0224556 19.6504)
(1.7862e-15 0.11862 19.5864)
(-1.32496e-15 0.269535 19.369)
(-1.99737e-15 0.413926 19.002)
(-5.81498e-15 0.541289 18.4828)
(-4.81313e-15 0.634872 17.8219)
(2.60388e-15 0.695869 17.0609)
(3.14235e-15 0.733919 16.2542)
(2.37543e-15 0.757734 15.4438)
(-1.73019e-16 0.772141 14.6578)
(-1.42997e-15 0.777368 13.918)
(9.30572e-16 0.768789 13.2491)
(4.24562e-15 0.73887 12.6836)
(1.0898e-14 0.680393 12.2556)
(1.00342e-14 0.585204 11.9806)
(8.51133e-15 0.408826 11.9032)
(5.367e-15 0.129248 12.0968)
(-9.15536e-17 -0.186191 12.5235)
(-5.0832e-15 -0.415215 13.0304)
(-6.60999e-15 -0.518106 13.4502)
(-6.64847e-15 -0.544712 13.7449)
(-7.00067e-15 -0.540621 13.957)
(-1.16716e-14 -0.512894 14.1345)
(-1.48037e-14 -0.466015 14.2834)
(-1.78114e-14 -0.444572 14.3766)
(-2.2007e-14 -0.514861 14.4209)
(-1.72495e-14 -0.685513 14.5097)
(-7.95016e-15 -0.874852 14.7433)
(2.67677e-16 -1.00264 15.1228)
(4.89493e-15 -1.06526 15.5851)
(1.00837e-14 -1.11529 16.0932)
(1.28741e-14 -1.2064 16.6718)
(1.3648e-14 -1.35224 17.3654)
(1.01837e-14 -1.52276 18.1775)
(1.3996e-14 -1.67575 19.0668)
(2.09735e-14 -1.7868 19.9915)
(2.38651e-14 -1.85469 20.9357)
(2.05378e-14 -1.89088 21.907)
(2.15103e-14 -1.90704 22.9195)
(2.37507e-14 -1.91171 23.9804)
(2.61172e-14 -1.90323 25.0797)
(1.79975e-14 -1.87648 26.1891)
(9.97576e-15 -1.82338 27.2708)
(6.81721e-15 -1.74027 28.2846)
(3.98844e-15 -1.63762 29.203)
(2.96394e-15 -1.52667 30.023)
(-3.79902e-15 -1.40345 30.7563)
(-1.37875e-14 -1.24445 31.4095)
(-1.33946e-14 -1.01083 31.9665)
(-2.20705e-14 -0.660174 32.3786)
(-2.43167e-14 -0.166022 32.5683)
(-1.94453e-14 0.46854 32.4359)
(-1.59937e-14 1.17466 31.919)
(-1.57948e-14 1.84113 31.0062)
(-1.15531e-14 2.39746 29.7237)
(-1.31102e-14 2.79387 28.2047)
(-1.2135e-14 3.01828 26.5747)
(-1.56575e-14 3.09402 24.9438)
(-2.59378e-14 3.06248 23.3854)
(-1.97243e-14 2.97782 21.9364)
(-1.51475e-14 2.89218 20.584)
(-1.0316e-14 2.81797 19.2637)
(-7.6114e-15 2.70666 17.91)
(-4.70491e-15 2.4931 16.5299)
(-3.86268e-15 2.16289 15.2029)
(2.31549e-14 1.75911 14.0103)
(4.3837e-14 1.33834 12.9871)
(5.35211e-14 0.92909 12.1297)
(4.14357e-14 0.515127 11.4292)
(-1.08652e-14 0.106912 10.9309)
(9.10005e-15 -0.276945 10.7217)
(1.76915e-14 -0.426808 10.7427)
(3.33052e-14 -0.334858 10.8093)
(1.45862e-14 -0.17563 10.7354)
(4.56601e-14 -0.0339768 10.57)
(4.20859e-14 0.166408 10.1335)
(7.2683e-15 0.166896 9.69138)
(2.61063e-14 -0.587504 9.10809)
(-1.1069e-14 -2.24339 9.47803)
(-4.61835e-14 -3.76455 11.051)
(-7.51245e-14 -4.58687 12.3939)
(-1.07392e-13 -4.79207 13.4416)
(-1.12183e-13 -4.146 14.638)
(-1.15135e-13 -2.39339 16.0029)
(-1.11813e-13 -0.014398 17.3782)
(-1.12746e-13 2.35984 17.2944)
(-1.11972e-13 3.9966 16.4075)
(-1.07319e-13 4.66496 14.8021)
(-1.00982e-13 4.72783 13.1525)
(-8.24368e-14 4.53375 11.703)
(-5.83656e-14 4.09313 10.4229)
(-2.74595e-14 3.40285 9.39994)
(-1.18737e-14 2.67595 8.75782)
(3.56825e-16 2.14697 8.35138)
(4.11243e-15 1.83918 8.06972)
(5.34608e-15 1.36792 7.30938)
(8.76739e-15 0.140762 7.69331)
(-2.91973e-15 -0.461482 8.14483)
(-4.48262e-15 -0.244394 18.8142)
(-4.27875e-15 -0.159253 19.0715)
(1.06096e-15 -0.0372507 19.2204)
(1.31297e-15 0.119736 19.1891)
(4.26818e-15 0.286836 18.9845)
(-1.42153e-15 0.447633 18.6383)
(-8.8296e-15 0.592933 18.1695)
(-7.01117e-15 0.703883 17.5778)
(3.5119e-16 0.778167 16.8826)
(-3.41008e-15 0.823886 16.129)
(-3.44323e-15 0.850373 15.3643)
(3.12763e-15 0.863592 14.6267)
(3.79352e-15 0.864169 13.9473)
(4.64308e-15 0.846989 13.3554)
(5.81447e-15 0.804116 12.881)
(7.24011e-15 0.72899 12.5474)
(6.4828e-15 0.612778 12.3559)
(9.41396e-15 0.408241 12.3423)
(1.30609e-14 0.0967707 12.5044)
(2.86193e-15 -0.240461 12.8055)
(-1.24167e-14 -0.47148 13.1381)
(-1.37617e-14 -0.563944 13.4042)
(-1.19648e-14 -0.58117 13.5848)
(-1.28652e-14 -0.573598 13.7177)
(-1.31536e-14 -0.544603 13.8425)
(-1.91058e-14 -0.492409 13.958)
(-1.72726e-14 -0.462651 14.0267)
(-1.10201e-14 -0.533525 14.0402)
(-1.74975e-15 -0.723279 14.0851)
(-8.30728e-16 -0.941751 14.27)
(6.60095e-15 -1.09344 14.6053)
(9.12761e-15 -1.17135 15.0323)
(1.33427e-14 -1.23644 15.5239)
(1.81466e-14 -1.34978 16.1135)
(1.64759e-14 -1.52196 16.8357)
(1.73159e-14 -1.71414 17.6691)
(2.52182e-14 -1.8805 18.5597)
(2.58678e-14 -2.00028 19.4735)
(2.14908e-14 -2.07746 20.4104)
(1.19812e-14 -2.1261 21.3892)
(5.4676e-15 -2.15671 22.4259)
(-1.9528e-15 -2.17498 23.5216)
(4.31408e-15 -2.1747 24.6569)
(4.44411e-15 -2.14811 25.7953)
(4.28343e-15 -2.0856 26.8948)
(3.04073e-15 -1.98448 27.9132)
(-1.48834e-15 -1.86043 28.8238)
(-7.17938e-15 -1.72937 29.6285)
(-1.21009e-14 -1.58808 30.3462)
(-1.56172e-14 -1.40947 30.9896)
(-1.85889e-14 -1.1474 31.5459)
(-2.11603e-14 -0.750468 31.9653)
(-2.28359e-14 -0.18463 32.164)
(-2.46741e-14 0.549434 32.0281)
(-2.49483e-14 1.37112 31.4871)
(-2.45979e-14 2.14811 30.508)
(-1.34133e-14 2.79148 29.1134)
(-8.8429e-15 3.23894 27.4509)
(4.3058e-16 3.47917 25.6662)
(7.01597e-15 3.54262 23.8892)
(1.99903e-14 3.48007 22.2127)
(1.14276e-14 3.36011 20.6923)
(-3.88718e-16 3.25397 19.3266)
(-1.11757e-14 3.18484 18.0379)
(-1.5489e-14 3.09171 16.7227)
(-1.55554e-14 2.88275 15.3568)
(-1.31992e-14 2.52957 14.0154)
(4.0688e-15 2.08216 12.7901)
(2.5282e-14 1.61167 11.7218)
(1.68729e-14 1.15429 10.8034)
(3.38827e-14 0.675955 10.034)
(2.11153e-14 0.173096 9.45917)
(1.46954e-14 -0.34056 9.2744)
(1.99269e-14 -0.503699 9.38643)
(-3.11903e-14 -0.354356 9.57116)
(4.39893e-14 -0.134145 9.54278)
(4.43518e-14 0.0914284 9.28637)
(-4.35281e-14 0.367727 8.69594)
(1.3678e-14 0.428346 8.05805)
(2.14233e-14 -0.569129 7.26713)
(-1.20471e-14 -2.68427 7.51572)
(-7.82474e-14 -4.23163 8.45228)
(-1.11963e-13 -4.94093 8.8876)
(-1.12765e-13 -5.1892 9.18449)
(-1.12432e-13 -4.68305 9.91926)
(-1.00735e-13 -2.93339 11.2312)
(-9.90636e-14 -0.290668 13.2582)
(-1.11032e-13 2.37539 13.6569)
(-1.13778e-13 4.35033 13.1631)
(-1.16941e-13 5.16284 11.841)
(-1.13142e-13 5.1905 10.437)
(-1.03965e-13 4.93662 9.22566)
(-7.98903e-14 4.40395 8.15681)
(-5.30149e-14 3.56627 7.37664)
(-3.78157e-14 2.71632 7.05136)
(-1.74918e-14 2.14736 6.94202)
(-9.51098e-15 1.9264 6.83534)
(-6.25387e-15 1.21668 5.94753)
(-6.92779e-15 -0.437937 6.45303)
(-2.94369e-14 -0.641117 6.7919)
(-7.8812e-16 -0.283925 18.2768)
(-1.47661e-15 -0.193034 18.6923)
(-2.64804e-15 -0.0542069 18.937)
(-2.45557e-15 0.122772 18.928)
(2.00929e-15 0.306437 18.6984)
(2.72315e-16 0.479983 18.3191)
(2.97539e-15 0.637867 17.8537)
(9.37935e-15 0.763448 17.3195)
(4.92505e-15 0.851685 16.7111)
(1.96321e-15 0.907101 16.045)
(1.96387e-15 0.937755 15.3583)
(-1.13537e-15 0.950024 14.6926)
(-3.75654e-16 0.945088 14.0851)
(5.26106e-15 0.918102 13.5679)
(2.42005e-15 0.86172 13.166)
(5.98192e-15 0.770529 12.8927)
(1.89183e-15 0.635616 12.7395)
(2.15673e-15 0.411471 12.7235)
(6.73509e-15 0.0803332 12.7742)
(-6.91892e-15 -0.27343 12.9037)
(-1.48273e-14 -0.508251 13.0718)
(-1.48811e-14 -0.595721 13.2189)
(-1.30876e-14 -0.608605 13.3196)
(-6.93889e-15 -0.601247 13.3983)
(-5.89203e-15 -0.573686 13.4875)
(-6.29012e-15 -0.51775 13.5826)
(-1.87839e-15 -0.479232 13.6387)