/*--------------------------------*- C++ -*----------------------------------*\
| =========                 |                                                 |
| \\      /  F ield         | OpenFOAM: The Open Source CFD Toolbox           |
|  \\    /   O peration     | Version:  4.1                                   |
|   \\  /    A nd           | Web:      www.OpenFOAM.org                      |
|    \\/     M anipulation  |                                                 |
\*---------------------------------------------------------------------------*/
FoamFile
{
    version     2.0;
    format      ascii;
    class       volScalarField;
    location    "400";
    object      p;
}
// * * * * * * * * * * * * * * * * * * * * * * * * * * * * * * * * * * * * * //

dimensions      [0 2 -2 0 0 0 0];

internalField   nonuniform List<scalar> 
26785
(
1915.77
1919.72
1932.81
1951.19
1969.11
1984.13
1996.61
2007.51
2017.62
2027.57
2037.71
2048.16
2058.93
2069.96
2081.17
2092.42
2103.57
2114.46
2124.98
2135.06
2144.65
2153.53
2161.3
2167.76
2173.01
2177.14
2180.06
2181.51
2181.29
2179.25
2175.32
2169.5
2161.91
2152.74
2142.31
2131
2119.17
2107.11
2094.93
2082.54
2069.88
2057.13
2044.61
2032.59
2021.28
2010.86
2001.42
1992.98
1985.5
1978.9
1973.03
1967.69
1962.68
1957.72
1952.54
1946.82
1940.24
1932.45
1923.11
1911.84
1898.27
1882.03
1862.75
1840.08
1813.71
1783.42
1749.1
1710.76
1668.57
1622.86
1574.03
1522.61
1469.13
1414.23
1358.56
1302.87
1247.98
1194.74
1144.04
1096.72
1053.49
1014.72
980.05
948.929
921.097
896.286
874.102
853.967
835.109
816.757
798.505
780.496
763.002
744.785
724.049
699.403
653.411
575.895
418.585
275.895
1915.61
1919.63
1932.75
1951.17
1969.12
1984.14
1996.62
2007.52
2017.61
2027.56
2037.69
2048.14
2058.91
2069.94
2081.15
2092.4
2103.55
2114.45
2124.97
2135.05
2144.65
2153.54
2161.31
2167.77
2173.02
2177.16
2180.08
2181.55
2181.34
2179.3
2175.37
2169.56
2161.97
2152.8
2142.37
2131.04
2119.21
2107.14
2094.96
2082.57
2069.89
2057.13
2044.59
2032.55
2021.23
2010.81
2001.36
1992.92
1985.44
1978.85
1972.98
1967.66
1962.66
1957.72
1952.56
1946.87
1940.31
1932.55
1923.23
1911.98
1898.43
1882.21
1862.93
1840.26
1813.89
1783.58
1749.23
1710.86
1668.64
1622.9
1574.04
1522.58
1469.08
1414.13
1358.42
1302.68
1247.72
1194.42
1143.65
1096.28
1053.02
1014.3
979.678
948.572
920.746
895.935
873.741
853.587
834.729
816.439
798.306
780.35
762.547
743.618
722.114
696.338
648.333
571.192
417.84
261.967
1915.33
1919.46
1932.63
1951.13
1969.14
1984.17
1996.64
2007.52
2017.6
2027.54
2037.66
2048.1
2058.87
2069.91
2081.12
2092.38
2103.53
2114.43
2124.95
2135.04
2144.65
2153.56
2161.34
2167.8
2173.05
2177.2
2180.14
2181.62
2181.42
2179.4
2175.48
2169.68
2162.09
2152.92
2142.48
2131.14
2119.29
2107.2
2095.02
2082.62
2069.92
2057.13
2044.56
2032.49
2021.14
2010.7
2001.24
1992.79
1985.32
1978.74
1972.89
1967.59
1962.62
1957.72
1952.6
1946.95
1940.45
1932.74
1923.47
1912.27
1898.76
1882.57
1863.31
1840.64
1814.25
1783.91
1749.51
1711.08
1668.8
1622.99
1574.06
1522.53
1468.95
1413.93
1358.12
1302.26
1247.16
1193.72
1142.81
1095.33
1052.02
1013.36
978.816
947.722
919.896
895.079
872.869
852.693
833.842
815.635
797.649
779.751
761.58
741.6
718.418
690.347
639.825
562.412
412.373
238.85
1914.92
1919.19
1932.46
1951.08
1969.17
1984.22
1996.67
2007.52
2017.58
2027.5
2037.62
2048.05
2058.82
2069.86
2081.07
2092.33
2103.49
2114.4
2124.93
2135.03
2144.66
2153.59
2161.39
2167.85
2173.1
2177.26
2180.23
2181.73
2181.56
2179.55
2175.64
2169.85
2162.27
2153.1
2142.65
2131.3
2119.43
2107.32
2095.11
2082.7
2069.97
2057.12
2044.5
2032.39
2021.01
2010.54
2001.06
1992.61
1985.14
1978.57
1972.74
1967.48
1962.55
1957.71
1952.65
1947.08
1940.65
1933.03
1923.84
1912.71
1899.27
1883.13
1863.9
1841.24
1814.82
1784.44
1749.97
1711.45
1669.06
1623.14
1574.11
1522.48
1468.79
1413.63
1357.67
1301.64
1246.34
1192.68
1141.57
1093.92
1050.53
1011.92
977.444
946.355
918.518
893.681
871.435
851.208
832.318
814.121
796.161
778.132
759.372
738.181
713.043
681.878
628.21
549.349
401.453
214.146
1914.39
1918.84
1932.23
1951
1969.2
1984.28
1996.7
2007.52
2017.55
2027.45
2037.55
2047.98
2058.75
2069.79
2081.01
2092.28
2103.45
2114.36
2124.91
2135.02
2144.67
2153.63
2161.45
2167.91
2173.16
2177.34
2180.34
2181.88
2181.73
2179.75
2175.86
2170.09
2162.52
2153.35
2142.89
2131.51
2119.62
2107.49
2095.26
2082.82
2070.03
2057.12
2044.43
2032.26
2020.83
2010.32
2000.82
1992.36
1984.9
1978.34
1972.55
1967.33
1962.46
1957.69
1952.72
1947.24
1940.92
1933.4
1924.33
1913.31
1899.96
1883.9
1864.72
1842.06
1815.63
1785.18
1750.62
1711.98
1669.46
1623.39
1574.22
1522.44
1468.59
1413.27
1357.11
1300.84
1245.28
1191.33
1139.94
1092.06
1048.55
1009.96
975.518
944.421
916.567
891.702
869.411
849.124
830.175
811.928
793.868
775.515
755.948
733.344
706.012
671.222
614.007
532.696
386.279
190.68
1913.73
1918.39
1931.93
1950.91
1969.25
1984.35
1996.74
2007.53
2017.51
2027.39
2037.47
2047.89
2058.66
2069.7
2080.93
2092.21
2103.39
2114.32
2124.87
2135
2144.68
2153.69
2161.53
2168
2173.25
2177.44
2180.48
2182.07
2181.96
2180
2176.14
2170.39
2162.83
2153.67
2143.19
2131.8
2119.88
2107.73
2095.46
2082.97
2070.12
2057.12
2044.35
2032.1
2020.61
2010.05
2000.52
1992.04
1984.58
1978.05
1972.29
1967.13
1962.34
1957.65
1952.79
1947.43
1941.25
1933.87
1924.94
1914.06
1900.84
1884.87
1865.76
1843.13
1816.68
1786.16
1751.49
1712.7
1670
1623.75
1574.4
1522.43
1468.4
1412.87
1356.46
1299.91
1244.02
1189.73
1138
1089.84
1046.16
1007.52
973.058
941.932
914.043
889.127
866.764
846.383
827.328
808.95
790.659
771.804
751.25
727.074
697.362
658.667
597.734
513.337
368.165
169.755
1912.92
1917.87
1931.58
1950.8
1969.31
1984.44
1996.79
2007.53
2017.47
2027.32
2037.38
2047.79
2058.55
2069.59
2080.83
2092.12
2103.32
2114.26
2124.83
2134.98
2144.7
2153.75
2161.63
2168.1
2173.35
2177.56
2180.66
2182.3
2182.23
2180.31
2176.47
2170.74
2163.21
2154.05
2143.57
2132.16
2120.22
2108.03
2095.71
2083.17
2070.23
2057.12
2044.24
2031.91
2020.34
2009.72
2000.15
1991.66
1984.2
1977.69
1971.98
1966.89
1962.18
1957.6
1952.87
1947.66
1941.63
1934.43
1925.67
1914.96
1901.89
1886.05
1867.03
1844.44
1817.97
1787.39
1752.58
1713.61
1670.71
1624.24
1574.67
1522.5
1468.25
1412.48
1355.8
1298.92
1242.66
1187.97
1135.86
1087.34
1043.41
1004.61
970.064
938.87
910.915
885.916
863.444
842.927
823.71
805.117
786.471
766.959
745.265
719.382
687.159
644.539
579.986
492.124
348.267
151.477
1912
1917.25
1931.17
1950.67
1969.38
1984.54
1996.85
2007.53
2017.42
2027.23
2037.26
2047.66
2058.42
2069.46
2080.71
2092.02
2103.23
2114.19
2124.78
2134.96
2144.72
2153.84
2161.75
2168.23
2173.48
2177.7
2180.86
2182.56
2182.54
2180.66
2176.86
2171.16
2163.65
2154.5
2144.01
2132.58
2120.62
2108.4
2096.04
2083.41
2070.35
2057.12
2044.13
2031.68
2020.02
2009.34
1999.72
1991.2
1983.75
1977.27
1971.61
1966.59
1961.98
1957.53
1952.95
1947.91
1942.07
1935.08
1926.53
1916.02
1903.14
1887.45
1868.54
1846.01
1819.54
1788.87
1753.91
1714.73
1671.59
1624.87
1575.07
1522.67
1468.2
1412.18
1355.21
1297.98
1241.32
1186.19
1133.62
1084.66
1040.33
1001.22
966.485
935.164
907.092
881.962
859.333
838.626
819.178
800.278
781.159
760.858
737.912
710.238
675.458
629.098
561.247
469.826
327.528
135.467
1910.96
1916.55
1930.7
1950.51
1969.45
1984.66
1996.91
2007.53
2017.36
2027.13
2037.13
2047.51
2058.26
2069.32
2080.57
2091.9
2103.13
2114.11
2124.72
2134.93
2144.75
2153.94
2161.9
2168.37
2173.62
2177.87
2181.08
2182.87
2182.91
2181.07
2177.31
2171.64
2164.15
2155.02
2144.53
2133.09
2121.1
2108.84
2096.43
2083.7
2070.5
2057.12
2043.99
2031.42
2019.65
2008.89
1999.22
1990.67
1983.22
1976.77
1971.16
1966.23
1961.74
1957.43
1953.02
1948.18
1942.57
1935.81
1927.5
1917.24
1904.57
1889.07
1870.3
1847.85
1821.37
1790.61
1755.48
1716.07
1672.66
1625.68
1575.63
1523.01
1468.32
1412.06
1354.8
1297.21
1240.11
1184.47
1131.33
1081.8
1036.86
997.248
962.204
930.686
902.439
877.125
854.289
833.34
813.598
794.307
774.611
753.415
729.132
699.62
662.307
612.501
541.765
447.197
306.757
121.363
1909.81
1915.76
1930.16
1950.34
1969.54
1984.79
1996.98
2007.53
2017.3
2027.01
2036.99
2047.35
2058.09
2069.15
2080.41
2091.76
2103.02
2114.02
2124.66
2134.89
2144.77
2154.05
2162.06
2168.54
2173.79
2178.06
2181.34
2183.21
2183.31
2181.53
2177.81
2172.18
2164.73
2155.61
2145.13
2133.67
2121.66
2109.36
2096.89
2084.03
2070.68
2057.13
2043.84
2031.12
2019.24
2008.38
1998.64
1990.06
1982.61
1976.19
1970.65
1965.81
1961.45
1957.31
1953.09
1948.48
1943.12
1936.63
1928.6
1918.61
1906.2
1890.92
1872.31
1849.95
1823.48
1792.63
1757.32
1717.65
1673.95
1626.69
1576.41
1523.59
1468.72
1412.25
1354.69
1296.71
1239.09
1182.81
1128.94
1078.63
1032.87
992.539
957.051
925.271
896.793
871.246
848.154
826.914
806.818
787.063
766.706
744.536
718.87
687.52
647.761
594.855
521.652
424.717
286.376
109.465
1908.51
1914.88
1929.56
1950.14
1969.64
1984.93
1997.05
2007.53
2017.22
2026.88
2036.82
2047.16
2057.89
2068.95
2080.23
2091.6
2102.89
2113.92
2124.58
2134.85
2144.81
2154.18
2162.25
2168.73
2173.97
2178.27
2181.62
2183.59
2183.76
2182.04
2178.37
2172.79
2165.37
2156.28
2145.81
2134.33
2122.3
2109.97
2097.42
2084.42
2070.87
2057.13
2043.67
2030.79
2018.77
2007.8
1997.99
1989.38
1981.92
1975.53
1970.06
1965.33
1961.11
1957.15
1953.15
1948.79
1943.71
1937.53
1929.82
1920.13
1908.02
1892.99
1874.58
1852.34
1825.88
1794.93
1759.42
1719.48
1675.48
1627.96
1577.48
1524.53
1469.52
1412.86
1354.98
1296.51
1238.23
1181.12
1126.3
1074.98
1028.22
986.948
950.857
918.76
890.003
864.177
840.79
819.213
798.713
778.432
757.35
734.158
707.098
673.955
631.901
576.279
501.078
402.587
266.389
99.5609
1907.06
1913.91
1928.89
1949.92
1969.76
1985.09
1997.13
2007.52
2017.13
2026.73
2036.63
2046.95
2057.67
2068.73
2080.03
2091.42
2102.74
2113.81
2124.5
2134.81
2144.84
2154.33
2162.46
2168.93
2174.18
2178.52
2181.92
2184.01
2184.26
2182.6
2178.99
2173.45
2166.07
2157.02
2146.56
2135.08
2123.02
2110.66
2098.02
2084.85
2071.09
2057.15
2043.49
2030.43
2018.25
2007.16
1997.26
1988.6
1981.14
1974.78
1969.39
1964.78
1960.72
1956.96
1953.2
1949.12
1944.36
1938.51
1931.15
1921.82
1910.03
1895.3
1877.11
1855
1828.57
1797.53
1761.8
1721.57
1677.29
1629.55
1578.93
1525.92
1470.83
1413.96
1355.68
1296.56
1237.4
1179.22
1123.22
1070.67
1022.74
980.342
943.491
911.007
881.927
855.787
832.066
810.116
789.168
768.317
746.471
722.239
693.812
658.967
614.82
556.891
480.189
380.925
247.1
91.0926
1905.49
1912.84
1928.15
1949.67
1969.89
1985.27
1997.22
2007.51
2017.03
2026.57
2036.43
2046.72
2057.43
2068.49
2079.8
2091.22
2102.57
2113.68
2124.41
2134.77
2144.89
2154.5
2162.69
2169.17
2174.41
2178.78
2182.25
2184.46
2184.8
2183.21
2179.66
2174.18
2166.85
2157.84
2147.39
2135.91
2123.84
2111.44
2098.69
2085.33
2071.33
2057.16
2043.28
2030.02
2017.67
2006.45
1996.46
1987.74
1980.27
1973.95
1968.64
1964.15
1960.27
1956.72
1953.23
1949.46
1945.04
1939.57
1932.6
1923.66
1912.25
1897.83
1879.9
1857.95
1831.56
1800.43
1764.48
1723.97
1679.43
1631.53
1580.88
1527.87
1472.71
1415.56
1356.72
1296.73
1236.45
1176.97
1119.56
1065.57
1016.27
972.596
934.844
901.882
872.439
845.952
821.868
799.514
778.087
756.637
734.012
708.754
679.026
642.616
596.628
536.821
459.139
359.802
228.705
83.6894
1903.77
1911.69
1927.32
1949.4
1970.03
1985.46
1997.3
2007.49
2016.92
2026.4
2036.21
2046.46
2057.16
2068.22
2079.54
2090.99
2102.39
2113.54
2124.31
2134.72
2144.94
2154.69
2162.95
2169.42
2174.66
2179.08
2182.62
2184.95
2185.39
2183.87
2180.38
2174.96
2167.7
2158.73
2148.31
2136.82
2124.74
2112.31
2099.43
2085.86
2071.6
2057.18
2043.06
2029.58
2017.04
2005.66
1995.57
1986.79
1979.31
1973.02
1967.79
1963.44
1959.75
1956.44
1953.24
1949.81
1945.77
1940.71
1934.17
1925.66
1914.66
1900.61
1882.97
1861.21
1834.87
1803.64
1767.48
1726.7
1681.96
1634
1583.42
1530.46
1475.17
1417.61
1358
1296.9
1235.25
1174.24
1115.19
1059.57
1008.72
963.614
924.803
891.255
861.414
834.555
810.082
787.301
765.377
743.321
719.928
693.693
662.767
624.973
577.436
516.198
438.066
339.285
211.351
77.1396
1901.91
1910.43
1926.41
1949.09
1970.2
1985.68
1997.39
2007.47
2016.8
2026.2
2035.96
2046.18
2056.86
2067.91
2079.25
2090.73
2102.18
2113.39
2124.21
2134.67
2145
2154.9
2163.24
2169.69
2174.94
2179.4
2183.02
2185.49
2186.02
2184.58
2181.16
2175.81
2168.61
2159.7
2149.31
2137.83
2125.74
2113.28
2100.24
2086.43
2071.9
2057.21
2042.83
2029.1
2016.36
2004.81
1994.59
1985.74
1978.24
1971.99
1966.86
1962.65
1959.16
1956.11
1953.23
1950.16
1946.54
1941.93
1935.86
1927.82
1917.27
1903.62
1886.31
1864.76
1838.5
1807.19
1770.82
1729.81
1684.95
1637.06
1586.62
1533.7
1478.19
1420.02
1359.39
1296.94
1233.69
1170.91
1110.03
1052.57
999.989
953.306
913.266
878.998
848.728
821.48
796.599
773.378
750.954
728.303
704.181
677.05
645.07
606.111
557.352
495.146
417.085
319.432
195.11
71.299
1899.85
1909.09
1925.41
1948.76
1970.38
1985.91
1997.49
2007.44
2016.66
2025.99
2035.7
2045.88
2056.54
2067.58
2078.93
2090.45
2101.95
2113.21
2124.1
2134.62
2145.06
2155.14
2163.55
2169.99
2175.23
2179.75
2183.46
2186.06
2186.69
2185.34
2182
2176.72
2169.59
2160.75
2150.4
2138.92
2126.83
2114.34
2101.13
2087.05
2072.22
2057.24
2042.58
2028.59
2015.61
2003.88
1993.53
1984.6
1977.07
1970.86
1965.82
1961.77
1958.49
1955.73
1953.18
1950.52
1947.34
1943.22
1937.66
1930.14
1920.08
1906.88
1889.93
1868.63
1842.46
1811.09
1774.54
1733.36
1688.51
1640.79
1590.52
1537.58
1481.69
1422.68
1360.79
1296.76
1231.69
1166.92
1103.97
1044.47
989.952
941.558
900.121
864.992
834.256
806.606
781.307
757.646
734.734
711.523
686.739
658.827
625.972
586.105
536.48
473.776
396.293
300.288
180.008
66.0623
1897.59
1907.65
1924.32
1948.38
1970.59
1986.17
1997.59
2007.41
2016.52
2025.76
2035.42
2045.55
2056.18
2067.22
2078.58
2090.13
2101.69
2113.03
2123.98
2134.58
2145.14
2155.39
2163.89
2170.3
2175.55
2180.13
2183.94
2186.67
2187.41
2186.14
2182.88
2177.68
2170.64
2161.87
2151.58
2140.11
2128.02
2115.49
2102.09
2087.72
2072.57
2057.29
2042.31
2028.03
2014.81
2002.87
1992.37
1983.35
1975.8
1969.61
1964.67
1960.79
1957.74
1955.28
1953.1
1950.86
1948.17
1944.58
1939.58
1932.62
1923.1
1910.39
1893.84
1872.82
1846.77
1815.35
1778.66
1737.42
1692.7
1645.24
1595.12
1542.05
1485.58
1425.49
1362.13
1296.31
1229.2
1162.2
1096.95
1035.16
978.501
928.226
885.23
849.119
817.871
789.813
764.095
740.006
716.635
692.921
667.571
639.027
605.508
565.023
514.914
452.186
375.765
281.886
166.027
61.347
1895.18
1906.1
1923.13
1947.96
1970.82
1986.46
1997.69
2007.37
2016.35
2025.52
2035.11
2045.21
2055.81
2066.83
2078.19
2089.78
2101.4
2112.82
2123.86
2134.54
2145.24
2155.67
2164.25
2170.64
2175.88
2180.55
2184.47
2187.32
2188.16
2187
2183.82
2178.7
2171.75
2163.08
2152.84
2141.39
2129.3
2116.73
2103.12
2088.44
2072.96
2057.34
2042.02
2027.44
2013.94
2001.79
1991.12
1982
1974.41
1968.26
1963.41
1959.7
1956.9
1954.76
1952.97
1951.2
1949.03
1946
1941.6
1935.25
1926.32
1914.15
1898.05
1877.34
1851.45
1820.02
1783.25
1742.05
1697.59
1650.42
1600.4
1547.06
1489.79
1428.4
1363.37
1295.56
1226.17
1156.7
1088.87
1024.54
965.496
913.146
868.435
831.243
799.438
770.973
744.849
720.357
696.577
672.44
646.649
617.652
583.716
542.93
492.736
430.458
355.559
264.247
153.13
57.0871
1892.7
1904.44
1921.83
1947.49
1971.07
1986.78
1997.8
2007.32
2016.18
2025.26
2034.79
2044.84
2055.41
2066.4
2077.77
2089.4
2101.08
2112.59
2123.73
2134.52
2145.36
2155.98
2164.63
2170.98
2176.24
2181
2185.03
2188
2188.96
2187.89
2184.8
2179.78
2172.92
2164.36
2154.19
2142.76
2130.69
2118.04
2104.23
2089.2
2073.37
2057.4
2041.73
2026.8
2013.02
2000.62
1989.77
1980.54
1972.9
1966.77
1962.03
1958.5
1955.96
1954.16
1952.79
1951.51
1949.9
1947.49
1943.74
1938.04
1929.75
1918.16
1902.56
1882.21
1856.5
1825.11
1788.34
1747.32
1703.21
1656.33
1606.32
1552.55
1494.26
1431.39
1364.5
1294.48
1222.57
1150.33
1079.64
1012.47
950.776
896.134
849.559
811.2
778.811
749.956
723.452
698.599
674.478
650.024
623.945
594.707
560.63
519.887
470.024
408.665
335.719
247.385
141.273
53.2298
1890.28
1902.68
1920.39
1946.98
1971.34
1987.14
1997.91
2007.27
2015.98
2024.97
2034.45
2044.45
2054.98
2065.96
2077.32
2088.98
2100.73
2112.34
2123.6
2134.51
2145.51
2156.32
2165.04
2171.34
2176.61
2181.49
2185.65
2188.73
2189.8
2188.83
2185.83
2180.9
2174.16
2165.71
2155.63
2144.23
2132.19
2119.42
2105.39
2090.02
2073.83
2057.47
2041.41
2026.13
2012.03
1999.37
1988.32
1978.96
1971.27
1965.17
1960.53
1957.18
1954.91
1953.47
1952.55
1951.79
1950.78
1949.03
1945.97
1940.98
1933.38
1922.44
1907.38
1887.44
1861.96
1830.66
1794
1753.28
1709.59
1662.94
1612.86
1558.47
1498.97
1434.44
1365.51
1293.06
1218.34
1143.02
1069.12
998.796
934.154
876.978
828.397
788.806
755.836
726.627
699.787
674.626
650.25
625.611
599.427
570.193
536.282
495.948
446.847
386.867
316.28
231.31
130.426
49.7351
1888.42
1900.85
1918.79
1946.42
1971.66
1987.54
1998.03
2007.2
2015.77
2024.68
2034.1
2044.05
2054.54
2065.48
2076.84
2088.52
2100.34
2112.06
2123.46
2134.52
2145.69
2156.69
2165.47
2171.71
2177
2182.02
2186.31
2189.5
2190.7
2189.83
2186.91
2182.07
2175.45
2167.14
2157.16
2145.79
2133.8
2120.89
2106.63
2090.89
2074.32
2057.55
2041.09
2025.43
2010.98
1998.04
1986.78
1977.27
1969.51
1963.43
1958.89
1955.74
1953.75
1952.69
1952.23
1952.04
1951.66
1950.61
1948.3
1944.07
1937.22
1926.97
1912.51
1893.03
1867.85
1836.71
1800.27
1759.97
1716.71
1670.25
1620
1564.79
1503.9
1437.58
1366.4
1291.26
1213.43
1134.68
1057.19
983.34
915.419
855.437
804.729
763.886
730.366
700.862
673.744
648.344
623.818
599.143
573.065
544.108
510.698
471.165
423.267
365.123
297.272
216.035
120.58
46.5748
1886.64
1898.97
1916.97
1945.77
1972.03
1987.98
1998.14
2007.13
2015.55
2024.36
2033.72
2043.63
2054.08
2064.99
2076.33
2088.04
2099.92
2111.76
2123.32
2134.55
2145.92
2157.1
2165.91
2172.09
2177.42
2182.61
2187.04
2190.33
2191.66
2190.88
2188.04
2183.29
2176.79
2168.63
2158.78
2147.45
2135.5
2122.45
2107.93
2091.82
2074.85
2057.66
2040.76
2024.68
2009.88
1996.63
1985.12
1975.45
1967.62
1961.54
1957.11
1954.15
1952.46
1951.79
1951.84
1952.23
1952.54
1952.23
1950.71
1947.31
1941.27
1931.78
1917.97
1899.01
1874.17
1843.28
1807.19
1767.41
1724.56
1678.26
1627.7
1571.5
1509.09
1440.81
1367.18
1289.06
1207.78
1125.2
1043.7
965.904
894.341
831.266
778.325
736.286
702.304
672.597
645.275
619.718
595.154
570.603
544.851
516.459
483.907
445.584
399.344
343.485
278.725
201.578
111.752
43.7314
1885.63
1897.08
1914.9
1944.95
1972.41
1988.47
1998.26
2007.05
2015.3
2024.02
2033.33
2043.19
2053.61
2064.47
2075.8
2087.53
2099.48
2111.43
2123.16
2134.61
2146.22
2157.55
2166.39
2172.48
2177.85
2183.25
2187.84
2191.24
2192.69
2192.02
2189.25
2184.56
2178.17
2170.18
2160.47
2149.2
2137.29
2124.1
2109.31
2092.8
2075.43
2057.78
2040.41
2023.91
2008.71
1995.13
1983.37
1973.52
1965.59
1959.52
1955.18
1952.43
1951.04
1950.78
1951.35
1952.36
1953.38
1953.87
1953.21
1950.68
1945.51
1936.84
1923.76
1905.38
1880.97
1850.42
1814.8
1775.59
1733.15
1686.96
1635.95
1578.59
1514.56
1444.15
1367.83
1286.44
1201.31
1114.45
1028.47
946.274
870.682
804.241
748.995
705.94
671.705
641.945
614.519
588.898
564.399
540.108
514.873
487.314
455.961
419.256
375.133
322.007
260.672
187.967
103.993
41.1976
1885.5
1895.3
1912.67
1943.98
1972.77
1989.04
1998.39
2006.95
2015.03
2023.66
2032.93
2042.75
2053.12
2063.95
2075.25
2086.99
2099
2111.07
2122.99
2134.69
2146.57
2158.05
2166.91
2172.9
2178.32
2183.95
2188.68
2192.2
2193.79
2193.22
2190.53
2185.9
2179.59
2171.77
2162.24
2151.04
2139.15
2125.83
2110.76
2093.86
2076.05
2057.92
2040.06
2023.09
2007.48
1993.54
1981.5
1971.46
1963.42
1957.34
1953.1
1950.54
1949.47
1949.64
1950.75
1952.42
1954.2
1955.53
1955.77
1954.19
1949.95
1942.17
1929.89
1912.16
1888.24
1858.16
1823.12
1784.53
1742.47
1696.35
1644.73
1586.11
1520.33
1447.62
1368.37
1283.36
1193.95
1102.32
1011.33
924.235
844.237
774.233
716.752
673.08
638.993
609.436
582.057
556.473
532.096
508.114
483.478
456.911
427.015
392.279
350.704
300.743
243.145
175.241
97.3811
38.976
1885.64
1894.05
1910.46
1942.98
1973.12
1989.71
1998.51
2006.85
2014.75
2023.29
2032.51
2042.29
2052.62
2063.41
2074.68
2086.43
2098.5
2110.69
2122.8
2134.78
2146.95
2158.59
2167.5
2173.38
2178.82
2184.65
2189.52
2193.16
2194.88
2194.46
2191.88
2187.32
2181.08
2173.41
2164.07
2152.97
2141.09
2127.65
2112.29
2094.98
2076.73
2058.08
2039.71
2022.25
2006.19
1991.87
1979.53
1969.27
1961.11
1955
1950.85
1948.49
1947.74
1948.35
1950.03
1952.39
1954.96
1957.19
1958.39
1957.81
1954.58
1947.76
1936.35
1919.35
1896.03
1866.51
1832.16
1794.22
1752.54
1706.41
1654.04
1594.07
1526.43
1451.24
1368.79
1279.78
1185.62
1088.65
992.084
899.626
814.959
741.437
682.125
638.601
605.31
576.357
549.247
523.792
499.502
475.707
451.531
425.873
397.471
364.885
326.184
279.768
226.185
163.447
92.0334
37.0815
1885.69
1893.76
1908.56
1942.03
1973.61
1990.48
1998.63
2006.72
2014.44
2022.89
2032.07
2041.82
2052.12
2062.86
2074.1
2085.85
2097.98
2110.28
2122.6
2134.87
2147.34
2159.15
2168.14
2173.94
2179.35
2185.34
2190.31
2194.05
2195.91
2195.68
2193.27
2188.83
2182.65
2175.11
2165.95
2154.98
2143.08
2129.56
2113.88
2096.18
2077.45
2058.28
2039.36
2021.38
2004.85
1990.12
1977.45
1966.94
1958.64
1952.51
1948.43
1946.27
1945.85
1946.91
1949.17
1952.25
1955.66
1958.82
1961.05
1961.53
1959.38
1953.61
1943.15
1926.97
1904.33
1875.5
1841.94
1804.66
1763.37
1717.15
1663.92
1602.52
1532.89
1455.03
1369.09
1275.67
1176.21
1073.3
970.613
872.45
783.174
706.714
646.594
604.44
572.784
544.876
518.274
492.998
468.648
444.732
420.601
395.426
368.184
337.597
301.847
259.215
209.846
152.638
88.1174
35.5445
1885.44
1894.11
1907.48
1941.14
1974.47
1991.35
1998.76
2006.58
2014.1
2022.46
2031.62
2041.34
2051.61
2062.31
2073.52
2085.27
2097.44
2109.85
2122.36
2134.92
2147.69
2159.69
2168.82
2174.56
2179.92
2186.01
2191.03
2194.86
2196.86
2196.83
2194.66
2190.4
2184.33
2176.91
2167.89
2157.05
2145.11
2131.55
2115.56
2097.46
2078.23
2058.5
2039
2020.48
2003.45
1988.29
1975.26
1964.49
1956.03
1949.84
1945.83
1943.87
1943.77
1945.3
1948.17
1951.99
1956.27
1960.43
1963.73
1965.36
1964.36
1959.71
1950.29
1935.02
1913.18
1885.15
1852.45
1815.85
1774.95
1728.54
1674.37
1611.48
1539.75
1459
1369.25
1270.97
1165.63
1056.17
946.913
843.052
749.883
671.94
612.769
573.345
543.968
517.213
491.205
466.088
441.535
417.2
392.639
367.318
340.556
311.384
278.256
239.357
194.229
142.875
85.8858
34.4161
1885.16
1894.62
1907.65
1940.45
1975.68
1992.31
1998.92
2006.42
2013.74
2022.02
2031.15
2040.86
2051.11
2061.75
2072.93
2084.68
2096.89
2109.41
2122.1
2134.93
2147.97
2160.17
2169.45
2175.17
2180.51
2186.68
2191.75
2195.65
2197.77
2197.93
2196
2192.01
2186.12
2178.83
2169.94
2159.18
2147.16
2133.61
2117.32
2098.82
2079.08
2058.75
2038.66
2019.56
2002
1986.38
1972.96
1961.9
1953.25
1946.99
1943.04
1941.27
1941.5
1943.5
1946.99
1951.58
1956.78
1961.98
1966.42
1969.25
1969.49
1966.05
1957.77
1943.5
1922.56
1895.47
1863.7
1827.81
1787.3
1740.61
1685.43
1620.99
1547.02
1463.18
1369.29
1265.65
1153.81
1037.23
921.246
812.364
716.989
639.844
583.491
547.231
519.912
493.835
468.313
443.35
418.654
393.927
368.829
343.019
316.126
287.581
256.341
220.713
179.546
134.236
85.7107
33.7612
1884.89
1895.12
1908.73
1940.36
1976.81
1993.4
1999.09
2006.23
2013.35
2021.54
2030.67
2040.37
2050.6
2061.21
2072.34
2084.08
2096.34
2108.95
2121.81
2134.88
2148.17
2160.57
2170
2175.72
2181.12
2187.39
2192.52
2196.51
2198.73
2199.04
2197.34
2193.63
2187.99
2180.88
2172.14
2161.36
2149.28
2135.75
2119.18
2100.26
2079.99
2059.05
2038.32
2018.62
2000.5
1984.39
1970.56
1959.18
1950.32
1943.97
1940.06
1938.47
1939.02
1941.5
1945.63
1951.02
1957.17
1963.45
1969.1
1973.21
1974.76
1972.63
1965.57
1952.41
1932.5
1906.45
1875.69
1840.54
1800.4
1753.36
1697.15
1631.09
1554.75
1467.59
1369.19
1259.67
1140.71
1016.62
894.313
782.043
686.924
612.62
559.685
525.364
498.874
473.036
447.902
423.216
398.683
373.961
348.712
322.663
295.598
267.256
237.164
204.047
166.187
126.839
88.0345
33.6156
1884.62
1895.63
1910.09
1941.16
1977.62
1994.56
1999.24
2006.02
2012.93
2021.04
2030.18
2039.88
2050.1
2060.67
2071.76
2083.5
2095.79
2108.49
2121.5
2134.77
2148.28
2160.88
2170.45
2176.23
2181.75
2188.18
2193.39
2197.48
2199.75
2200.21
2198.71
2195.25
2189.91
2183.05
2174.49
2163.63
2151.46
2137.98
2121.14
2101.8
2080.97
2059.38
2038
2017.66
1998.96
1982.32
1968.05
1956.32
1947.22
1940.76
1936.88
1935.45
1936.32
1939.28
1944.06
1950.27
1957.41
1964.83
1971.74
1977.2
1980.16
1979.42
1973.69
1961.76
1943
1918.11
1888.41
1854.04
1814.27
1766.82
1709.54
1641.81
1562.97
1472.26
1368.98
1253.02
1126.37
994.744
867.37
754.132
661.281
590.031
539.23
505.198
478.479
452.869
428.143
403.939
379.91
355.664
330.836
305.13
278.366
250.421
221.244
190.049
154.695
120.841
93.013
33.8625
1884.31
1896.12
1911.38
1942.45
1978.24
1995.67
1999.35
2005.77
2012.48
2020.51
2029.67
2039.39
2049.62
2060.15
2071.2
2082.93
2095.25
2108.03
2121.18
2134.62
2148.31
2161.09
2170.81
2176.7
2182.45
2189.03
2194.33
2198.54
2200.87
2201.48
2200.16
2196.93
2191.88
2185.29
2176.94
2166.04
2153.71
2140.33
2123.21
2103.44
2082.03
2059.77
2037.69
2016.7
1997.39
1980.19
1965.45
1953.33
1943.97
1937.37
1933.49
1932.21
1933.39
1936.83
1942.27
1949.32
1957.48
1966.08
1974.31
1981.21
1985.66
1986.41
1982.13
1971.54
1954.05
1930.44
1901.87
1868.33
1828.9
1781
1722.66
1653.2
1571.73
1477.22
1368.65
1245.7
1110.98
972.419
842.042
729.983
639.524
569.733
519.259
484.816
457.903
432.71
408.569
385.033
361.675
338.111
314.026
289.137
263.229
236.167
208.128
178.736
145.411
116.287
99.5929
34.0535
1884.04
1896.55
1912.54
1943.62
1978.95
1996.6
1999.41
2005.5
2011.99
2019.94
2029.14
2038.9
2049.15
2059.65
2070.66
2082.38
2094.73
2107.58
2120.85
2134.43
2148.27
2161.22
2171.11
2177.2
2183.24
2189.97
2195.36
2199.7
2202.09
2202.88
2201.74
2198.7
2193.88
2187.59
2179.44
2168.62
2156.06
2142.79
2125.39
2105.17
2083.17
2060.2
2037.41
2015.74
1995.78
1978
1962.75
1950.21
1940.55
1933.78
1929.88
1928.74
1930.22
1934.14
1940.23
1948.14
1957.35
1967.18
1976.8
1985.2
1991.23
1993.59
1990.86
1981.73
1965.66
1943.43
1916.07
1883.41
1844.29
1795.95
1736.55
1665.29
1581.06
1482.52
1368.25
1237.8
1094.95
950.781
819.649
709.381
619.923
549.788
498.517
463.788
437.315
412.877
389.658
367.05
344.51
321.65
298.252
274.178
249.311
223.497
196.907
169.423
138.041
112.714
104.571
33.4921
1883.75
1896.92
1913.55
1944.39
1979.73
1997.23
1999.35
2005.18
2011.47
2019.35
2028.6
2038.41
2048.7
2059.17
2070.15
2081.86
2094.25
2107.17
2120.54
2134.23
2148.18
2161.29
2171.38
2177.75
2184.15
2190.98
2196.48
2200.92
2203.44
2204.41
2203.47
2200.6
2195.94
2189.91
2181.97
2171.32
2158.6
2145.31
2127.69
2107.02
2084.4
2060.69
2037.16
2014.78
1994.15
1975.76
1959.96
1946.96
1936.96
1930
1926.05
1925.02
1926.79
1931.17
1937.93
1946.71
1957
1968.1
1979.17
1989.15
1996.85
2000.92
1999.86
1992.33
1977.81
1957.09
1930.99
1899.26
1860.46
1811.68
1751.23
1678.15
1591.03
1488.21
1367.83
1229.5
1078.93
931.012
800.551
691.182
601.201
529.32
476.983
442.311
416.685
393.342
371.458
350.196
328.836
306.913
284.243
260.816
236.718
211.997
186.874
161.377
131.957
109.264
103.991
31.943
1883.43
1897.2
1914.38
1944.71
1980.22
1997.48
1999.14
2004.78
2010.91
2018.72
2028.04
2037.92
2048.26
2058.73
2069.67
2081.39
2093.8
2106.79
2120.25
2134.04
2148.07
2161.32
2171.66
2178.41
2185.18
2192.08
2197.66
2202.18
2204.89
2206.08
2205.35
2202.63
2198.08
2192.21
2184.46
2174.04
2161.33
2147.88
2130.12
2108.96
2085.72
2061.24
2036.95
2013.83
1992.51
1973.47
1957.08
1943.59
1933.22
1926.02
1922
1921.06
1923.09
1927.92
1935.34
1945
1956.39
1968.81
1981.38
1993.03
2002.5
2008.38
2009.12
2003.32
1990.49
1971.38
1946.65
1915.9
1877.42
1828.25
1766.78
1691.82
1601.7
1494.35
1367.5
1221.1
1063.73
913.903
784.188
674.376
582.395
507.818
454.577
420.087
395.308
373.33
353.187
333.771
314.13
293.641
272.09
249.522
226.135
202.18
178.026
154.215
126.733
105.782
97.6518
30.3758
1883.08
1897.4
1915.05
1944.67
1980.12
1997.39
1998.75
2004.27
2010.32
2018.06
2027.47
2037.43
2047.85
2058.32
2069.24
2080.96
2093.41
2106.47
2120.02
2133.87
2147.96
2161.34
2171.96
2179.19
2186.35
2193.23
2198.91
2203.51
2206.45
2207.84
2207.33
2204.78
2200.28
2194.45
2186.87
2176.67
2164.23
2150.5
2132.68
2111.02
2087.14
2061.86
2036.78
2012.91
1990.87
1971.14
1954.13
1940.11
1929.31
1921.85
1917.72
1916.84
1919.11
1924.38
1932.45
1942.99
1955.51
1969.28
1983.41
1996.8
2008.13
2015.94
2018.61
2014.69
2003.69
1986.32
1963.03
1933.33
1895.19
1845.69
1783.23
1706.37
1613.13
1501.02
1367.39
1213.02
1050.13
899.601
769.711
658.186
562.555
484.76
430.689
396.366
372.427
352.048
333.978
316.836
299.42
280.929
261.037
239.777
217.431
194.412
170.989
148.336
122.239
102.75
90.2991
30.3211
1882.69
1897.51
1915.54
1944.36
1979.36
1997.05
1998.16
2003.62
2009.69
2017.37
2026.89
2036.95
2047.46
2057.93
2068.84
2080.58
2093.09
2106.22
2119.86
2133.77
2147.89
2161.36
2172.31
2180.11
2187.63
2194.41
2200.21
2204.93
2208.07
2209.67
2209.39
2207
2202.5
2196.61
2189.11
2179.14
2167.2
2153.18
2135.39
2113.19
2088.66
2062.55
2036.65
2012.02
1989.23
1968.8
1951.12
1936.51
1925.25
1917.48
1913.22
1912.37
1914.84
1920.51
1929.22
1940.65
1954.3
1969.47
1985.22
2000.42
2013.72
2023.57
2028.29
2026.4
2017.39
2001.88
1980.14
1951.55
1913.81
1864.05
1800.65
1721.87
1625.42
1508.35
1367.74
1205.77
1038.7
887.726
756.449
641.772
540.996
459.691
404.831
370.735
347.85
329.32
313.592
298.995
284.09
267.955
250.181
230.714
209.778
187.961
165.499
144.211
119.062
100.781
86.2722
31.7385
1882.35
1897.54
1915.88
1943.85
1978.03
1996.4
1997.36
2002.83
2009.02
2016.65
2026.29
2036.46
2047.08
2057.58
2068.47
2080.25
2092.83
2106.05
2119.79
2133.75
2147.88
2161.42
2172.69
2181.14
2188.97
2195.59
2201.55
2206.42
2209.75
2211.56
2211.5
2209.26
2204.75
2198.67
2191.16
2181.4
2170.13
2155.96
2138.29
2115.48
2090.29
2063.32
2036.59
2011.17
1987.62
1966.44
1948.06
1932.81
1921.04
1912.92
1908.48
1907.62
1910.26
1916.32
1925.64
1937.95
1952.75
1969.34
1986.77
2003.86
2019.21
2031.23
2038.15
2038.44
2031.57
2018.04
1997.97
1970.57
1933.31
1883.4
1819.1
1738.41
1638.65
1516.45
1368.8
1199.86
1029.66
877.71
743.888
624.338
517.426
432.448
376.968
343.257
321.763
305.374
292.28
280.458
268.211
254.527
239.005
221.605
202.454
182.114
160.566
140.741