/*--------------------------------*- C++ -*----------------------------------*\
| =========                 |                                                 |
| \\      /  F ield         | OpenFOAM: The Open Source CFD Toolbox           |
|  \\    /   O peration     | Version:  4.1                                   |
|   \\  /    A nd           | Web:      www.OpenFOAM.org                      |
|    \\/     M anipulation  |                                                 |
\*---------------------------------------------------------------------------*/
FoamFile
{
    version     2.0;
    format      ascii;
    class       surfaceScalarField;
    location    "400";
    object      phi;
}
// * * * * * * * * * * * * * * * * * * * * * * * * * * * * * * * * * * * * * //

dimensions      [0 3 -1 0 0 0 0];

internalField   nonuniform List<scalar> 
52920
(
-2595.18
223.673
-2736.73
141.551
-2821.4
84.6562
-2874.23
52.8085
-2925.93
51.6647
-2990.49
64.5412
-3067.78
77.2649
-3153.73
85.9242
-3245.33
91.576
-3340.94
95.5898
-3441.53
100.557
-3548.88
107.322
-3664.2
115.288
-3787.45
123.23
-3917.16
129.68
-4050.52
133.346
-4183.44
132.897
-4310.16
126.693
-4422.92
112.745
-4512.56
89.6114
-4571.48
58.8961
-4599.49
27.993
-4605.27
5.75428
-4597.43
-7.86783
-4576.56
-20.8908
-4537.44
-39.1429
-4474.86
-62.6035
-4386.32
-88.5671
-4271.5
-114.839
-4132
-139.519
-3971.98
-160.044
-3798.99
-173.015
-3624.42
-174.6
-3462.53
-161.913
-3327.43
-135.134
-3228.64
-98.8132
-3168.5
-60.1725
-3143.65
-24.8907
-3146.69
3.01432
-3172.04
25.3078
-3217.42
45.3542
-3278.36
60.9042
-3349.09
70.6939
-3426.03
76.9121
-3507.17
81.1157
-3590.8
83.5948
-3675.57
84.7271
-3760.42
84.8303
-3844.53
84.0646
-3927.11
82.5611
-4007.62
80.4791
-4085.74
78.1019
-4161.7
75.9302
-4236.48
74.7597
-4312.21
75.703
-4392.36
80.1385
-4481.94
89.5608
-4587.31
105.356
-4715.85
128.526
-4875.29
159.434
-5072.92
197.615
-5314.63
241.71
-5604.18
289.535
-5942.47
338.293
-6327.36
384.872
-6753.56
426.205
-7213.21
459.641
-7696.52
483.315
-8192.96
496.432
-8692.32
499.359
-9185.73
493.408
-9666.11
480.377
-10128.1
461.986
-10567.5
439.389
-10980.3
412.796
-11361.6
381.284
-11704.4
342.874
-11999.6
295.105
-12235.6
236.086
-12400.9
165.255
-12483.2
82.3292
-12465.8
-17.4715
-12335.5
-130.24
-12084.6
-250.871
-11703.9
-380.767
-11183.6
-520.272
-10513.5
-670.069
-9681.73
-831.808
-8674.28
-1007.45
-7476.54
-1197.74
-6076.34
-1400.2
-4470.15
-1606.18
-2659.29
-1810.86
-569.655
-2089.63
1759.96
-2329.61
4039.79
-2279.83
6450.89
-2411.1
9114.2
-2663.31
13045.9
-3931.73
-7481.84
-2574.3
447.176
-2714.6
281.847
-2797.15
167.192
-2848.05
103.696
-2898.32
101.9
-2962.23
128.423
-3039.62
154.625
-3126.36
172.646
-3219.37
184.558
-3316.81
193.004
-3419.41
203.126
-3528.77
216.652
-3645.97
232.459
-3770.97
248.208
-3902.39
261.072
-4037.64
268.577
-4172.92
268.156
-4302.88
256.625
-4420.25
230.089
-4516.32
185.662
-4583.82
126.37
-4622.49
66.6404
-4640.5
23.7416
-4645.63
-2.76225
-4637.6
-28.9429
-4610.93
-65.8425
-4560.63
-112.922
-4484.31
-164.914
-4381.34
-217.835
-4252.57
-268.308
-4100.93
-311.712
-3932.3
-341.671
-3756.33
-350.59
-3586.25
-332.025
-3436.65
-284.764
-3319.45
-216.043
-3240.18
-139.472
-3197.78
-67.3188
-3186.94
-7.86526
-3200.88
39.2091
-3235.18
79.6273
-3286.52
112.211
-3349.92
134.059
-3421.7
148.657
-3499.58
158.973
-3581.84
165.824
-3667.19
170.03
-3754.67
172.281
-3843.6
172.962
-3933.44
172.379
-4023.87
170.872
-4114.78
168.997
-4206.58
167.695
-4300.26
168.433
-4397.82
173.235
-4502.28
184.588
-4617.93
205.185
-4750.11
237.531
-4905.08
283.477
-5089.42
343.764
-5309.49
417.671
-5570.64
502.861
-5876.58
595.464
-6228.68
690.395
-6625.68
781.862
-7063.47
863.994
-7535.38
931.549
-8032.73
980.661
-8545.78
1009.48
-9064.82
1018.4
-9581.1
1009.69
-10087.3
986.574
-10577.4
952.096
-11046.2
908.194
-11488.5
855.047
-11897.9
790.754
-12266.6
711.48
-12583.9
612.41
-12837.4
489.629
-13013.8
341.632
-13099
167.515
-13078.2
-38.2089
-12941.2
-267.316
-12678.9
-513.08
-12282.7
-777.011
-11745.5
-1057.48
-11062.4
-1353.16
-10230.1
-1664.11
-9245.44
-1992.1
-8103.62
-2339.55
-6796.05
-2707.77
-5308.59
-3093.64
-3625.47
-3493.97
-1777.71
-3937.39
214.757
-4322.08
2444.64
-4509.71
5117.28
-5083.74
7964
-5510.03
12046.9
-8014.6
-13469.7
-2545.94
667.786
-2684.51
420.407
-2763.41
246.076
-2811.01
151.284
-2858.72
149.567
-2921.12
190.805
-2998.05
231.531
-3085.32
259.9
-3179.77
278.977
-3279.35
292.56
-3384.52
308.277
-3496.63
328.736
-3616.53
352.327
-3744.03
375.684
-3877.74
394.762
-4015.23
406.045
-4152.95
405.856
-4285.9
389.555
-4407.18
351.35
-4508.35
286.811
-4582.19
200.188
-4628.38
112.807
-4654.98
50.3154
-4669.51
11.7445
-4671.19
-27.2783
-4654.16
-82.9009
-4613.63
-153.475
-4547.65
-230.909
-4455.85
-309.661
-4338.96
-385.216
-4199.37
-451.323
-4041.91
-499.154
-3874.66
-517.86
-3709.05
-497.666
-3558.24
-435.592
-3433.87
-340.444
-3342.58
-230.785
-3285.22
-124.713
-3259.36
-33.7584
-3259.36
39.1799
-3279.7
99.9318
-3317.39
149.868
-3368.7
185.341
-3430.52
210.444
-3500.59
229.025
-3577.31
242.509
-3659.54
252.219
-3746.53
259.251
-3837.89
264.277
-3933.35
267.825
-4032.94
270.429
-4136.85
272.884
-4245.67
276.485
-4360.46
283.208
-4483.01
295.763
-4615.9
317.462
-4762.63
351.893
-4927.51
402.404
-5115.54
471.493
-5331.98
560.201
-5581.97
667.647
-5869.91
790.8
-6199.01
924.55
-6570.68
1062.07
-6984.21
1195.39
-7436.42
1316.2
-7921.66
1416.78
-8432.16
1491.16
-8958.77
1536.09
-9492
1551.62
-10022.9
1540.62
-10543.8
1507.42
-11047.9
1456.21
-11529.3
1389.58
-11981.9
1307.63
-12398.7
1207.56
-12771.1
1083.91
-13088.5
929.809
-13338.5
739.641
-13508.1
511.201
-13583.2
242.64
-13551.6
-69.8342
-13404
-414.86
-13130.7
-786.382
-12723.8
-1183.94
-12177.9
-1603.4
-11489.5
-2041.52
-10656.9
-2496.72
-9679.27
-2969.75
-8555.92
-3462.9
-7285.03
-3978.66
-5861.69
-4516.99
-4278.16
-5077.49
-2542.26
-5673.29
-621.146
-6243.2
1586.98
-6717.84
4144.5
-7641.25
7067.73
-8433.27
10890.4
-11837.3
-17996.2
-2515.22
884.724
-2651.13
556.312
-2725.33
320.264
-2768.42
194.356
-2812.5
193.613
-2872.56
250.844
-2948.37
307.309
-3035.66
347.174
-3131.25
374.531
-3232.92
394.204
-3340.91
416.243
-3456.3
444.1
-3579.66
475.652
-3710.56
506.565
-3847.51
531.685
-3988.11
546.62
-4129.02
546.746
-4265.54
526.057
-4391.05
476.832
-4497.16
392.901
-4576.47
279.48
-4628.51
164.813
-4661.44
83.2212
-4682.81
33.0957
-4691.67
-18.4409
-4681.76
-92.8385
-4648.29
-186.97
-4589.79
-289.438
-4506.27
-393.195
-4398.65
-492.864
-4269.16
-580.837
-4122.18
-646.16
-3965.02
-675.041
-3808.07
-654.638
-3663.35
-580.332
-3541.41
-462.421
-3448.22
-324.002
-3384.84
-188.121
-3349.69
-68.9416
-3338.99
28.4477
-3347.83
108.732
-3372.67
174.676
-3411.04
223.68
-3460.93
260.308
-3520.62
288.686
-3588.85
310.704
-3664.85
328.184
-3748.23
342.599
-3838.91
354.922
-3937.01
365.906
-4042.88
376.266
-4156.99
386.979
-4280.12
399.587
-4413.34
416.411
-4558.23
440.626
-4716.9
476.124
-4892.16
527.126
-5087.35
597.593
-5306.37
690.5
-5553.31
807.129
-5832.18
946.509
-6146.52
1105.14
-6499.01
1277.03
-6890.98
1454.03
-7322
1626.4
-7789.47
1783.67
-8288.42
1915.73
-8811.6
2014.34
-9350.11
2074.59
-9894.34
2095.85
-10435.1
2081.34
-10964.1
2036.41
-11474.2
1966.3
-11958.8
1874.21
-12411.3
1760.09
-12823.9
1620.17
-13187.3
1447.39
-13490.6
1233.09
-13721.4
970.379
-13867.2
657.065
-13915.6
290.997
-13857.5
-127.894
-13686.1
-586.282
-13392.3
-1080.24
-12970.2
-1605.95
-12416.9
-2156.71
-11730.6
-2727.86
-10910.6
-3316.7
-9957.05
-3923.31
-8870.12
-4549.82
-7649.28
-5199.5
-6291.26
-5875
-4788.48
-6580.28
-3135.1
-7326.67
-1288.99
-8089.3
843.79
-8850.62
3273.69
-10071.2
6133.21
-11292.8
9474.1
-15178.2
-21346.6
-2484.86
1097.78
-2617.22
688.675
-2685.72
388.741
-2723.02
231.643
-2762.29
232.843
-2818.98
307.518
-2892.76
381.067
-2979.31
433.707
-3075.46
470.654
-3178.92
497.637
-3289.77
527.073
-3408.88
563.186
-3536.51
603.257
-3671.94
641.968
-3813.39
673.115
-3958.36
691.568
-4103.55
691.926
-4244.46
666.939
-4374.57
606.925
-4485.46
503.77
-4569.44
363.438
-4625.96
221.312
-4663.7
120.944
-4690.49
59.858
-4705.2
-3.75272
-4701.11
-96.9485
-4673.2
-214.901
-4620.43
-342.227
-4543.31
-470.342
-4442.91
-593.282
-4321.47
-702.295
-4183.13
-784.525
-4034.79
-823.395
-3886.4
-803.054
-3749.47
-717.282
-3633.87
-578.049
-3544.69
-413.207
-3482.26
-250.58
-3444.42
-106.805
-3428.71
12.7018
-3430.93
110.921
-3446.75
190.472
-3474.63
251.53
-3513.7
299.346
-3562.99
337.954
-3621.86
369.544
-3690.1
396.385
-3767.79
420.267
-3855.33
442.424
-3953.24
463.8
-4062.25
485.242
-4183.12
507.838
-4316.83
533.264
-4464.47
564.032
-4627.45
603.59
-4807.52
656.179
-5006.84
726.423
-5227.94
818.687
-5473.74
936.284
-5747.31
1080.7
-6051.77
1250.96
-6389.95
1443.33
-6764.17
1651.23
-7175.68
1865.54
-7624.33
2075.04
-8107.89
2267.23
-8621.72
2429.56
-9158.64
2551.26
-9709.43
2625.38
-10263.9
2650.28
-10811.9
2629.35
-11344.3
2568.89
-11853.3
2475.22
-12331.2
2352.15
-12770.6
2199.45
-13162.9
2012.52
-13498.6
1783.08
-13767
1501.49
-13957.5
1160.92
-14061.4
760.922
-14071.3
300.911
-13983.1
-216.132
-13791.1
-778.264
-13487.4
-1383.89
-13067.9
-2025.53
-12529.6
-2694.97
-11870.5
-3386.96
-11088.8
-4098.39
-10183.1
-4828.99
-9152.24
-5580.72
-7994.44
-6357.31
-6705.92
-7163.51
-5278.81
-8007.39
-3702.4
-8903.08
-1942.07
-9849.64
84.161
-10876.8
2375.26
-12362.3
5066.71
-13984.2
7900.51
-18012
-23814.2
-2457.8
1312.85
-2584.59
815.461
-2646.63
450.772
-2676.84
261.829
-2709.99
265.958
-2762.1
359.61
-2832.71
451.649
-2917.44
518.412
-3013.23
566.416
-3117.81
602.187
-3231.23
640.467
-3354.23
686.159
-3486.8
735.8
-3627.84
782.981
-3775.16
820.407
-3925.9
842.289
-4076.6
842.61
-4222.72
813.037
-4357.79
741.969
-4473.25
619.21
-4561.17
451.335
-4621.14
281.259
-4662.71
162.493
-4694.17
91.2946
-4714.07
16.1224
-4715.13
-95.9204
-4691.87
-238.18
-4643.73
-390.394
-4571.67
-542.419
-4477.05
-687.925
-4362.16
-817.21
-4230.97
-915.736
-4090.14
-964.249
-3949.37
-943.847
-3820.05
-846.628
-3711.75
-686.369
-3628.94
-496.054
-3571.12
-308.422
-3535.25
-142.713
-3519.44
-3.14136
-3519.73
111.18
-3531
201.716
-3552.29
272.787
-3583.52
330.545
-3624.39
378.802
-3674.9
420.024
-3735.47
456.909
-3806.75
491.524
-3889.69
525.324
-3985.3
559.39
-4094.73
594.641
-4219.11
632.202
-4359.65
673.782
-4517.59
721.951
-4694.28
780.255
-4891.18
853.077
-5110.01
945.226
-5352.59
1061.27
-5621.03
1204.71
-5917.54
1377.21
-6244.5
1577.9
-6604.18
1803
-6998.6
2045.65
-7429.05
2295.99
-7895.53
2541.51
-8396
2767.7
-8925.78
2959.34
-9477.22
3102.69
-10040.1
3188.25
-10602.8
3212.95
-11153.5
3180.13
-11681.7
3097.09
-12177.9
2971.39
-12633.5
2807.71
-13040.2
2606.16
-13389.9
2362.19
-13674.6
2067.79
-13887.4
1714.29
-14023.6
1297.14
-14081.8
819.107
-14063
282.096
-13965.7
-313.421
-13781.6
-962.381
-13501.3
-1664.13
-13118.9
-2407.99
-12628.6
-3185.26
-12025.5
-3990.08
-11305.1
-4818.74
-10464
-5670.06
-9499.48
-6545.28
-8408.81
-7447.97
-7188.1
-8384.23
-5830.34
-9365.15
-4325.07
-10408.3
-2645.4
-11529.3
-730.816
-12791.4
1402.03
-14495.1
3859.66
-16441.9
6233.22
-20385.5
-25640.3
-2433.67
1521.93
-2555.07
936.849
-2609.74
505.426
-2631.66
283.734
-2657.4
291.664
-2703.64
405.831
-2769.74
517.727
-2851.28
599.933
-2945.42
660.535
-3050.03
706.767
-3165.27
755.681
-3291.89
812.759
-3429.7
873.587
-3577.2
930.461
-3731.65
974.835
-3889.61
1000.23
-4047.14
1000.13
-4199.43
965.309
-4339.88
882.393
-4459.77
739.085
-4551
542.548
-4613.57
343.801
-4658.28
207.191
-4694.12
127.112
-4719.01
40.9873
-4724.93
-90.026
-4705.85
-257.283
-4661.62
-434.641
-4593.67
-610.391
-4503.67
-777.942
-4394.09
-926.805
-4268.87
-1040.98
-4134.48
-1098.66
-4000.5
-1077.85
-3878.31
-968.839
-3777.39
-787.315
-3701.68
-571.787
-3650.04
-360.089
-3618.69
-174.084
-3605.98
-15.8845
-3607.61
112.786
-3617.92
211.999
-3636.3
291.142
-3663.1
357.311
-3698.38
414.068
-3742.65
464.26
-3796.85
511.071
-3862.2
556.851
-3940.18
603.27
-4032.32
651.519
-4140.26
702.546
-4265.53
757.458
-4409.7
817.923
-4574.22
886.46
-4760.56
966.57
-4970.08
1062.59
-5204.18
1179.31
-5464.21
1321.28
-5751.59
1492.08
-6067.87
1693.48
-6414.75
1924.78
-6794.07
2182.32
-7207.58
2459.16
-7656.52
2744.93
-8140.94
3025.92
-8658.73
3285.49
-9204.76
3505.36
-9770.26
3668.19
-10343.2
3761.2
-10909.6
3779.29
-11455
3725.55
-11966.3
3608.41
-12432.2
3437.32
-12843.5
3218.96
-13193
2955.67
-13476.4
2645.62
-13692.8
2284.19
-13844.9
1866.33
-13938
1390.29
-13978.5
859.544
-13971.3
274.935
-13910.2
-374.54
-13778.1
-1094.48
-13560.7
-1881.46
-13247.3
-2721.43
-12828.2
-3604.39
-12295.6
-4522.66
-11643.6
-5470.74
-10868
-6445.62
-9966.24
-7447.08
-8936.19
-8478.02
-7775.22
-9545.2
-6478.63
-10661.7
-5038.82
-11848.2
-3437.55
-13130.6
-1637.99
-14591
326.632
-16459.7
2522.61
-18637.8
4501.91
-22364.9
-27002.5
-2414.07
1725.42
-2529.91
1052.68
-2576.48
551.981
-2589.1
296.338
-2606.23
308.758
-2645.34
444.922
-2705.54
577.895
-2782.34
676.71
-2873.23
751.402
-2976.33
809.844
-3092.11
871.431
-3221.52
942.14
-3364.33
1016.36
-3518.7
1084.81
-3681.29
1137.4
-3847.84
1166.77
-4013.64
1165.91
-4173.24
1124.89
-4319.65
1028.78
-4443.92
863.334
-4537.85
636.454
-4602.16
408.095
-4649.48
254.484
-4689.65
167.255
-4719.69
71.0095
-4730.59
-79.1578
-4715.65
-272.244
-4675.05
-475.264
-4610.59
-674.881
-4524.31
-864.246
-4418.98
-1032.15
-4298.67
-1161.3
-4169.82
-1227.53
-4041.94
-1205.76
-3926.47
-1084.33
-3832.86
-880.953
-3764.55
-640.122
-3719.72
-404.948
-3694.18
-199.658
-3686.3
-23.7956
-3691.15
117.612
-3702.86
223.68
-3721.08
309.333
-3746.3
382.494
-3778.71
446.458
-3819.1
504.618
-3868.8
560.728
-3929.44
617.47
-4002.97
676.767
-4091.39
739.924
-4196.79
807.917
-4321.17
881.817
-4466.49
963.215
-4634.56
1054.51
-4827.07
1159.06
-5045.47
1280.99
-5291.05
1424.87
-5564.84
1595.06
-5867.82
1795.05
-6200.98
2026.64
-6565.52
2289.31
-6962.83
2579.62
-7394.38
2890.71
-7861.28
3211.83
-8363.41
3528.05
-8898.31
3820.39
-9459.91
4066.96
-10037.6
4245.89
-10616.5
4340.08
-11178.8
4341.6
-11706.3
4253.02
-12182.5
4084.63
-12594.8
3849.64
-12936
3560.11
-13205.5
3225.17
-13410.5
2850.67
-13564.8
2438.5
-13684.7
1986.16
-13782.9
1488.49
-13863.3
939.944
-13922.1
333.752
-13941.3
-355.376
-13894.2
-1141.59
-13760.7
-2014.87
-13526.5
-2955.68
-13180.2
-3950.66
-12714
-4988.91
-12122.5
-6062.19
-11403
-7165.13
-10554.2
-8295.88
-9575.73
-9456.49
-8466.89
-10654
-7225.82
-11902.8
-5848.97
-13225
-4326.74
-14652.8
-2646.22
-16271.5
-850.545
-18255.4
1083.38
-20571.8
2732.59
-24014.1
-28023
-2400.11
1924.68
-2510.04
1162.6
-2548.07
589.998
-2550.57
298.814
-2558.08
316.237
-2588.96
475.779
-2641.91
630.818
-2712.35
747.135
-2798.19
837.221
-2897.92
909.551
-3012.47
985.955
-3143.22
1072.86
-3290.11
1163.23
-3451.16
1245.84
-3622.43
1308.65
-3798.75
1343.07
-3974.29
1341.42
-4142.54
1293.13
-4295.73
1181.96
-4424.42
992.007
-4520.38
732.394
-4585.52
473.219
-4634.92
303.863
-4679.56
211.873
-4715.23
106.651
-4731.55
-62.8586
-4721.17
-282.642
-4684.37
-512.085
-4623.21
-736.062
-4540.05
-947.421
-4438.06
-1134.16
-4321.68
-1277.71
-4197.5
-1351.72
-4075.11
-1328.17
-3966.03
-1193.42
-3879.66
-967.342
-3818.92
-700.886
-3781.22
-442.672
-3762.19
-218.709
-3760.12
-25.8984
-3769.19
126.655
-3783.71
238.176
-3803.58
329.173
-3829.25
408.145
-3860.93
478.11
-3899.51
543.172
-3946.55
607.731
-4003.96
674.861
-4074.01
746.788
-4159.07
824.972
-4261.63
910.445
-4384.09
1004.27
-4528.87
1107.97
-4698.17
1223.8
-4894.04
1354.9
-5118.14
1505.09
-5371.84
1678.54
-5656.05
1879.28
-5971.52
2110.5
-6318.84
2373.95
-6698.8
2669.26
-7112.4
2993.22
-7560.8
3339.11
-8044.82
3695.85
-8564.01
4047.23
-9115.17
4371.56
-9690.71
4642.49
-10277.2
4832.39
-10855.4
4918.28
-11402.1
4888.32
-11893.8
4744.74
-12311.2
4501.97
-12643.5
4181.95
-12892.8
3809.4
-13075.5
3407.9
-13219.7
2994.87
-13356.5
2575.24
-13508.1
2137.85
-13679.6
1659.9
-13856.6
1116.94
-14016.3
493.452
-14132.5
-239.162
-14175.4
-1098.62
-14121.5
-2068.83
-13956.2
-3120.98
-13669.9
-4236.9
-13256.8
-5402.09
-12713.6
-6605.4
-12039.5
-7839.22
-11235.2
-9100.18
-10302.1
-10389.6
-9241.61
-11714.5
-8054.81
-13089.6
-6742.28
-14537.5
-5302.64
-16092.5
-3740.76
-17833.4
-2108
-19888.1
-427.609
-22252.1
952.684
-25394.4
-28803
-2392.27
2121.74
-2496.27
1266.6
-2525.52
619.225
-2517.28
290.559
-2514.38
313.292
-2536.13
497.51
-2580.66
675.32
-2643.21
809.666
-2722.15
916.131
-2816.42
1003.79
-2927.57
1097.08
-3057.64
1202.9
-3207.01
1312.57
-3373.81
1412.62
-3553.68
1488.51
-3740.54
1529.91
-3927.18
1528.04
-4105.6
1471.53
-4266.66
1343
-4400.01
1125.33
-4497.34
829.702
-4562.28
538.14
-4613.2
354.758
-4662.52
261.167
-4704.43
148.534
-4726.9
-40.4107
-4721.85
-287.725
-4689.4
-544.556
-4631.84
-793.644
-4551.64
-1027.64
-4452.32
-1233.49
-4338.89
-1391.16
-4218.47
-1472.16
-4100.95
-1445.72
-3997.98
-1296.41
-3918.85
-1046.5
-3865.8
-753.956
-3835.4
-473.104
-3823.4
-230.735
-3827.8
-21.5343
-3841.62
140.447
-3859.79
256.314
-3882.46
351.821
-3909.99
435.647
-3942.46
510.55
-3980.82
581.51
-4026.75
653.619
-4082.3
730.392
-4149.96
814.41
-4232.33
907.327
-4332.2
1010.28
-4452.34
1124.39
-4595.54
1251.14
-4764.44
1392.69
-4961.49
1551.93
-5188.68
1732.28
-5447.6
1937.44
-5739.25
2170.92
-6064.27
2435.51
-6423.08
2732.76
-6816.17
3062.34
-7244.21
3421.25
-7708.01
3802.9
-8207.99
4195.83
-8743.12
4582.35
-9309.05
4937.49
-9895.84
5229.28
-10485.9
5422.44
-11053.7
5486.09
-11568.7
5403.34
-12001.7
5177.73
-12333.6
4833.87
-12564.6
4412.9
-12719
3963.82
-12841.5
3530.37
-12981.6
3135.02
-13174.3
2767.97
-13427
2390.46
-13719.7
1952.6
-14016.3
1413.62
-14278
755.148
-14480.2
-36.9836
-14597.6
-981.229
-14605.8
-2060.63
-14493
-3233.81
-14252.4
-4477.48
-13880.5
-5773.97
-13376.4
-7109.49
-12741.1
-8474.53
-11976.9
-9864.4
-11086.9
-11279.6
-10074.6
-12726.8
-8943.76
-14220.4
-7699.09
-15782.2
-6346.4
-17445.1
-4903
-19276.8
-3425.73
-21365.4
-1975.34
-23702.5
-828.079
-26541.6
-29401.2
-2390.98
2316.49
-2489.21
1364.82
-2509.68
639.679
-2490.29
271.151
-2476.39
299.358
-2488.36
509.461
-2523.54
710.472
-2576.85
862.955
-2647.12
986.378
-2733.8
1090.45
-2839.17
1202.43
-2966.11
1329.82
-3115.72
1462.16
-3286.54
1583.42
-3474.14
1676.09
-3671.65
1727.41
-3870.46
1726.83
-4060.62
1661.68
-4230.95
1513.31
-4369.5
1263.87
-4467.68
927.859
-4531.37
601.812
-4583.21
406.578
-4637.43
315.368
-4686.27
197.356
-4715.72
-10.984
-4716.89
-286.58
-4689.55
-571.914
-4636.3
-846.912
-4559.37
-1104.59
-4462.44
-1330.44
-4351.16
-1502.46
-4233.51
-1589.82
-4120.09
-1559.17
-4022.91
-1393.61
-3951.04
-1118.39
-3905.88
-799.142
-3882.87
-496.138
-3878.33
-235.296
-3889.72
-10.1732
-3908.62
159.324
-3930.99
278.665
-3957.3
378.099
-3987.64
465.963
-4021.97
544.866
-4061.3
620.813
-4107.31
699.598
-4162.16
785.22
-4228.42
880.64
-4308.85
987.746
-4406.44
1107.84
-4524.21
1242.15
-4665.3
1392.21
-4832.73
1560.12
-5029.36
1748.54
-5257.59
1960.5
-5519.29
2199.13
-5815.71
2467.33
-6147.59
2767.37
-6515.29
3100.47
-6919.15
3466.2
-7359.58
3861.68
-7837.04
4280.35
-8351.46
4710.24
-8900.94
5131.83
-9479.43
5515.97
-10073.6
5823.41
-10659.7
6008.59
-11203.7
6030.13
-11666.3
5865.86
-12014.6
5526.06
-12239.2
5058.44
-12366.6
4540.28
-12457.5
4054.74
-12584.2
3657.06
-12798.3
3349.13
-13111.5
3081.15
-13499.4
2778.38
-13919
2372.22
-14323.7
1818.35
-14670.9
1102.3
-14938.8
230.888
-15109.6
-810.387
-15164
-2006.22
-15091.3
-3306.51
-14887.1
-4681.74
-14549.7
-6111.29
-14080.1
-7579.14
-13480.6
-9074.05
-12755
-10590
-11908
-12126.6
-10945.1
-13689.7
-9872.86
-15292.6
-8699.71
-16955.4
-7437.69
-18707.2
-6112.61
-20601.9
-4784
-22694
-3530
-24956.5
-2569.42
-27502.2
-29876.1
-2395.45
2509.78
-2489.26
1458.63
-2501.28
651.686
-2470.5
240.353
-2445.32
274.134
-2447.07
511.191
-2472.2
735.572
-2515.15
905.886
-2575.18
1046.38
-2652.25
1167.48
-2749.41
1299.57
-2870.52
1450.9
-3017.62
1609.22
-3190.01
1755.79
-3383.57
1869.63
-3591.05
1934.87
-3802.53
1938.28
-4005.87
1865.01
-4187.14
1694.56
-4331.89
1408.6
-4430.71
1026.66
-4492.21
663.287
-4544.4
458.742
-4603.77
374.72
-4660.24
253.801
-4697.38
26.1333
-4705.53
-278.456
-4683.95
-593.52
-4635.94
-894.953
-4563.01
-1177.54
-4468.69
-1424.77
-4359.13
-1612.04
-4243.37
-1705.6
-4133.17
-1669.39
-4041.29
-1485.51
-3976.64
-1183.05
-3939.52
-836.294
-3923.92
-511.762
-3927.29
-231.954
-3946.14
8.64215
-3970.33
183.484
-3997.35
305.663
-4027.91
408.626
-4061.76
499.787
-4098.76
581.841
-4139.93
661.95
-4186.95
746.582
-4242.01
840.259
-4307.73
946.332
-4386.95
1066.95
-4482.75
1203.62
-4598.35
1357.73
-4737.14
1530.96
-4902.46
1725.43
-5097.56
1943.62
-5325.24
2188.16
-5587.75
2461.63
-5886.65
2766.23
-6222.9
3103.62
-6596.99
3474.56
-7009.23
3878.42
-7459.85
4312.3
-7948.98
4769.48
-8475.95
5237.21
-9037.7
5693.58
-9625.74
6104.01
-10221.8
6419.47
-10793.9
6580.71
-11297
6533.17
-11683.1
6252
-11924
5766.96
-12036.5
5170.9
-12091
4594.83
-12185.7
4149.42
-12396.5
3867.81
-12744
3696.64
-13199.9
3537.04
-13714.6
3293.11
-14238
2895.67
-14725.6
2305.94
-15139.3
1516.03
-15458
549.59
-15669.3
-599.159
-15760.6
-1914.88
-15721.8
-3345.35
-15549.4
-4854.08
-15243.7
-6417.06
-14806.5
-8016.32
-14241.7
-9638.89
-13554.3
-11277.4
-12750.6
-12930.2
-11838.3
-14602
-10826.5
-16304.4
-9727.22
-18054.7
-8557.51
-19876.9
-7348.83
-21810.5
-6160.92
-23881.9
-5075.31
-26042.1
-4262.43
-28315.1
-30274.9
-2405.16
2701.48
-2496.02
1549.48
-2500.7
656.35
-2458.55
198.191
-2422.13
237.675
-2413.54
502.581
-2428.16
750.168
-2459.93
937.634
-2508.42
1094.86
-2574.05
1233.09
-2660.69
1386.18
-2773.21
1563.41
-2914.75
1750.74
-3085.67
1926.69
-3282.59
2066.53
-3498.37
2150.63
-3722.2
2162.11
-3939.81
2082.6
-4133.9
1888.63
-4286.43
1561.12
-4386.27
1126.48
-4444.92
721.911
-4496.92
510.727
-4561.67
439.444
-4626.39
318.503
-4671.65
71.3781
-4687.18
-262.949
-4671.72
-608.998
-4629.81
-936.889
-4561.85
-1245.52
-4470.86
-1515.78
-4363.1
-1719.82
-4248.67
-1820.06
-4140.88
-1777.19
-4053.76
-1572.65
-3996.24
-1240.59
-3967.23
-865.327
-3958.83
-520.185
-3970.51
-220.295
-3997.24
35.3454
-4026.84
213.059
-4058.87
337.674
-4094.18
443.91
-4132.08
537.666
-4172.35
622.088
-4216.02
705.598
-4264.76
795.288
-4320.76
896.25
-4386.67
1012.22
-4465.34
1145.6
-4559.89
1298.14
-4673.64
1471.47
-4810.16
1667.46
-4973.06
1888.32
-5165.91
2136.44
-5391.88
2414.12
-5653.62
2723.36
-5953.07
3065.67
-6291.5
3442.04
-6669.63
3852.69
-7087.86
4296.64
-7546.35
4770.79
-8044.94
5268.06
-8582.25
5774.53
-9153.69
6265.01
-9747.35
6697.67
-10338.3
7010.38
-10883.4
7125.88
-11325.3
6975.05
-11612.4
6539.06
-11736.2
5890.76
-11760.9
5195.65
-11807.3
4641.19
-11985.8
4327.98
-12337.5
4219.47
-12833.2
4192.3
-13414.7
4118.55
-14027.4
3905.85
-14627.6
3495.85
-15177.7
2855.99
-15644.6
1982.92
-16006
911.022
-16252.7
-352.401
-16377.5
-1790.1
-16370.2
-3352.63
-16228.1
-4996.24
-15952.6
-6692.57
-15546.9
-8422.03
-15015.9
-10169.8
-14366.2
-11927.1
-13605.8
-13690.6
-12744.2
-15463.6
-11793.2
-17255.4
-10768.1
-19079.8
-9689.83
-20955.1
-8593.28
-22907.1
-7536.4
-24938.8
-6595.86
-26982.7
-5903.53
-29007.4
-30621.2
-2420.51
2890.17
-2508.56
1637.52
-2507.96
655.732
-2454.89
145.101
-2407.42
190.166
-2388.79
483.93
-2392.81
754.154
-2412.86
957.662
-2448.83
1130.8
-2501.51
1285.74
-2575.53
1460.17
-2676.83
1664.68
-2809.68
1883.56
-2975.7
2092.69
-3172.65
2263.46
-3394.07
2372.04
-3628.96
2396.97
-3861.27
2314.89
-4070.08
2097.43
-4232.63
1723.64
-4334.62
1228.45
-4390.11
777.385
-4441.41
561.996
-4511.6
509.612
-4585
391.873
-4638.46
124.815
-4661.28
-240.154
-4652.01
-618.294
-4616.77
-972.152
-4554.77
-1307.54
-4468.17
-1602.39
-4362.89
-1825.13
-4249.7
-1933.26
-4143.71
-1883.2
-4060.83
-1655.55
-4010.36
-1291.08
-3989.53
-886.188
-3988.4
-521.337
-4008.73
-199.997
-4043.11
69.6953
-4078.15
248.071
-4115.49
374.991
-4155.95
484.341
-4198.33
580.022
-4242.34
666.068
-4289.02
752.258
-4340.03
846.259
-4397.57
953.769
-4464.27
1078.88
-4542.95
1224.27
-4636.76
1391.92
-4749.06
1583.75
-4883.5
1801.88
-5043.91
2048.72
-5234.09
2326.61
-5457.56
2637.59
-5717.35
2983.13
-6015.77
3364.09
-6354.48
3780.74
-6734.5
4232.71
-7156.42
4718.56
-7620.43
5234.79
-8126.09
5773.72
-8671.24
6319.67
-9249.24
6843
-9843.63
7292.07
-10420.5
7587.25
-10923.5
7628.82
-11283.7
7335.27
-11457.3
6712.68
-11477.8
5911.24
-11470.7
5188.61
-11587.4
4757.87
-11907.6
4648.17
-12412.5
4724.33
-13034.7
4814.5
-13710.5
4794.35
-14394.6
4590.01
-15052.9
4154.14
-15654
3457.11
-16168.3
2497.15
-16569.1
1311.81
-16850.2
-71.279
-17008
-1632.28
-17031.5
-3329.15
-16918.7
-5109.07
-16672.5
-6938.75
-16297.2
-8797.27
-15799.1
-10667.9
-15186.1
-12540.1
-14467.9
-14408.9
-13656
-16275.5
-12764.7
-18146.7
-11811.9
-20032.6
-10821.7
-21945.2
-9830.76
-23898.1
-8893.7
-25875.9
-8078.57
-27797.8
-7486.73
-29599.3
-30927.5
-2440.77
3073.19
-2526.06
1722.8
-2522.62
652.278
-2460.01
82.4665
-2401.32
131.447
-2373.25
455.836
-2367.15
748.027
-2375.32
965.824
-2398.19
1153.64
-2436.79
1324.32
-2496.47
1519.84
-2584.18
1752.36
-2705.33
2004.69
-2862.88
2250.24
-3056.02
2456.58
-3279.57
2595.57
-3523.09
2640.48
-3769.62
2561.41
-3994.82
2322.61
-4170.13
1898.94
-4276.21
1334.51
-4328.74
829.898
-4378.79
612.033
-4454.31
585.108
-4536.49
474.034
-4598.01
186.318
-4627.66
-210.524
-4624.2
-621.777
-4595.72
-1000.65
-4540.41
-1362.87
-4459.42
-1683.39
-4357.78
-1926.79
-4246.35
-2044.71
-4141.86
-1987.7
-4062.7
-1734.73
-4019.16
-1334.63
-4006.54
-898.825
-4013.61
-514.3
-4042.83
-170.794
-4083.65
110.489
-4124.16
288.56
-4167.17
417.978
-4213.11
530.257
-4260.29
627.178
-4308.39
714.154
-4358.48
802.321
-4412.17
899.919
-4471.69
1013.28
-4539.65
1146.82
-4618.86
1303.46
-4712.41
1485.45
-4823.66
1694.98
-4956.32
1934.52
-5114.32
2206.71
-5301.67
2513.95
-5522.15
2858.06
-5779.12
3240.08
-6075.28
3660.24
-6412.67
4118.12
-6792.67
4612.71
-7216.13
5142.02
-7683.34
5702
-8193.62
6283.99
-8743.84
6869.89
-9324.8
7423.96
-9914.06
7881.33
-10466.4
8139.62
-10910.9
8073.26
-11173.1
7597.52
-11235.5
6775.03
-11194.1
5869.84
-11228.4
5222.93
-11477
5006.43
-11954
5125.2
-12588.8
5359.13
-13303.9
5529.63
-14047.5
5537.96
-14786.6
5329.1
-15493.8
4861.34
-16141.4
4104.72
-16701
3056.73
-17143.4
1754.15
-17461
246.315
-17650.8
-1442.43
-17704.2
-3275.75
-17619.8
-5193.43
-17401.8
-7156.76
-17055.7
-9143.44
-16588.9
-11134.7
-16010.9
-13118.1
-15333
-15086.8
-14568.7
-17039.8
-13734.5
-18980.9
-12850.6
-20916.5
-11943.2
-22852.6
-11049.3
-24791.9
-10219.7
-26705.5
-9512.51
-28504.9
-9005.2
-30106.6
-31200.8
-2471.06
3244.9
-2547.17
1798.91
-2544.04
649.125
-2474.3
12.7022
-2403.64
60.7535
-2366.62
418.786
-2351.58
732.959
-2348.21
962.435
-2357.88
1163.28
-2381.77
1348.18
-2425.86
1563.9
-2498.05
1824.52
-2604.81
2111.42
-2750.46
2395.87
-2935.74
2641.85
-3157.21
2817.01
-3405.88
2889.14
-3664.98
2820.49
-3907.56
2565.17
-4098.66
2090.02
-4211.61
1447.44
-4261.98
880.246
-4310.39
660.424
-4390.94
665.632
-4481.76
564.826
-4550.95
255.482
-4586.71
-174.792
-4588.27
-620.245
-4566.1
-1022.84
-4517.75
-1411.24
-4443.37
-1757.79
-4346.76
-2023.42
-4238.19
-2153.3
-4135.41
-2090.51
-4059.49
-1810.67
-4022.58
-1371.57
-4018.1
-903.331
-4034.13
-498.298
-4072.47
-132.479
-4118.86
156.851
-4164.82
334.487
-4213.83
466.962
-4265.52
581.929
-4317.73
679.364
-4370.22
766.614
-4423.98
856.054
-4480.65
956.558
-4542.49
1075.09
-4612.09
1216.39
-4692.22
1383.58
-4785.93
1579.14
-4896.53
1805.57
-5027.74
2065.71
-5183.54
2362.49
-5368.07
2698.45
-5585.31
3075.3
-5838.89
3493.66
-6131.87
3953.21
-6466.65
4452.9
-6844.99
4991.04
-7268.05
5565.06
-7736.24
6170.19
-8248.67
6796.41
-8801.07
7422.29
-9380.94
8003.83
-9958.31
8458.7
-10474.8
8656.11
-10845.9
8444.4
-11003.7
7755.26
-10978.5
6749.87
-10936.8
5828.15
-11078.1
5364.17
-11482.7
5411
-12095.8
5738.33
-12824.7
6088.06
-13604.6
6309.52
-14400.1
6333.42
-15186.7
6115.74
-15940.4
5615
-16634.5
4798.85
-17240.1
3662.37
-17727.9
2241.89
-18084.8
603.217
-18305.9
-1221.3
-18388.1
-3193.59
-18331
-5250.51
-18139.6
-7348.23
-17820.6
-9462.4
-17383
-11572.3
-16837.7
-13663.4
-16197.6
-15726.9
-15478.2
-17759.2
-14697.5
-19761.6
-13877.8
-21736.3
-13046.4
-23684
-12240
-25598.3
-11504.7
-27440.8
-10889.6
-29120.1
-10453.1
-30543
-31445.7
-2515.76
3450.55
-2572.55
1855.68
-2568.99
645.557
-2495.41
-60.8995
-2413.01
-21.6814
-2368.05
373.814
-2345.78
710.661
-2331.78
948.419
-2328.66
1160.13
-2337.79
1357.28
-2365.66
1591.75
-2420.98
1879.82
-2511.2
2201.62
-2641.87
2526.53
-2815.36
2815.31
-3030.19
3031.83
-3279.6
3138.54
-3548.35
3089.23
-3808.25
2825.05
-4017.98
2299.74
-4141.31
1570.75
-4191.05
929.976
-4237.62
706.973
-4322.8
750.789
-4421.89
663.904
-4498.07
331.642
-4538.89
-133.998
-4544.41
-614.743
-4527.84
-1039.43
-4486.46
-1452.63
-4419.38
-1824.89
-4329.05
-2113.76
-4224.69
-2257.68
-4124.34
-2190.87
-4051.54
-1883.49
-4020.82
-1402.31
-4024.02
-900.154
-4049.12
-473.213
-4096.6
-85.0289
-4148.52
208.756
-4200.15
386.09
-4255.43
522.229
-4313.09
639.563
-4370.54
736.79
-4427.6
823.657
-4485.22
913.655
-4545.08
1016.39
-4609.45
1139.45
-4680.95
1287.86
-4762.32
1464.93
-4856.53
1673.33
-4966.84
1915.87
-5096.93
2195.78
-5250.78
2516.33
-5432.61
2880.27
-5646.54
3289.22
-5896.42
3743.53
-6185.58
4242.36
-6516.76
4784.07
-6892.08
5366.36
-7313.02
5985.99
-7780.16
6637.34
-8292.35
7308.6
-8843.93
7973.87
-9418.34
8578.23
-9976.52
9016.88
-10445.9
9125.53
-10733.7
8732.13
-10794.7
7816.28
-10725.6
6680.76
-10748.1
5850.62
-11033.4
5649.56
-11582
5959.56
-12295
6451.32
-13087
6880.01
-13914.4
7136.99
-14755
7174
-15588.2
6948.93
-16390
6416.79
-17133.3
5542.12
-17787.9
4316.96
-18323.1
2777.17
-18720.6
1000.69
-18973.3
-968.565
-19083.1
-3083.82
-19051.7
-5281.94
-18884.7
-7515.21
-18590.6
-9756.53
-18179.5
-11983.3
-17664
-14179
-17058.6
-16332.3
-16380.3
-18437.5
-15648.9
-20492.9
-14887.9
-22497.4
-14125.2
-24446.7
-13396.2
-26327.3
-12742.4
-28094.6
-12204.6
-29658
-11826.9
-30920.7
-31665.5
-2567.56
3748.33
-2605.95
1894.07
-2592.31
631.895
-2519.42
-133.811
-2428.4
-112.732
-2376.48
321.862
-2348.75
682.903
-2325.59
925.239
-2310.61
1145.12
-2305.5
1352.15
-2317.2
1603.41
-2355.05
1917.65
-2427.27
2273.81
-2540.54
2639.78
-2698.7
2973.45
-2902.38
3235.49
-3147.55
3383.69
-3421.77
3363.44