/*--------------------------------*- C++ -*----------------------------------*\
| =========                 |                                                 |
| \\      /  F ield         | OpenFOAM: The Open Source CFD Toolbox           |
|  \\    /   O peration     | Version:  4.1                                   |
|   \\  /    A nd           | Web:      www.OpenFOAM.org                      |
|    \\/     M anipulation  |                                                 |
\*---------------------------------------------------------------------------*/
FoamFile
{
    version     2.0;
    format      ascii;
    class       volVectorField;
    location    "400";
    object      U;
}
// * * * * * * * * * * * * * * * * * * * * * * * * * * * * * * * * * * * * * //

dimensions      [0 1 -1 0 0 0 0];

internalField   nonuniform List<vector> 
26785
(
(-1.80154e-13 0.0414133 -20.0989)
(-1.92533e-13 0.0188746 -20.7227)
(-2.08272e-13 -0.00260948 -20.8103)
(-2.29214e-13 -0.0145347 -20.5537)
(-2.21286e-13 -0.0154379 -20.2148)
(-2.66302e-13 -0.0109314 -19.9479)
(-2.47704e-13 -0.00633188 -19.7879)
(-2.64839e-13 -0.00328927 -19.7043)
(-2.46949e-13 -0.00149133 -19.6652)
(-3.07045e-13 -0.00039958 -19.649)
(-2.76399e-13 0.000971107 -19.6511)
(-2.80668e-13 0.00301295 -19.6804)
(-2.76638e-13 0.00558199 -19.7459)
(-2.72838e-13 0.00826299 -19.8512)
(-2.67524e-13 0.0105072 -19.9923)
(-2.6095e-13 0.0118153 -20.1577)
(-2.52125e-13 0.0116886 -20.3307)
(-2.4112e-13 0.00955255 -20.4884)
(-2.29505e-13 0.00473944 -20.6009)
(-2.37757e-13 -0.00321503 -20.6307)
(-2.04067e-13 -0.0137499 -20.5395)
(-1.90414e-13 -0.0243687 -20.3115)
(-1.95401e-13 -0.0319387 -19.9748)
(-1.64001e-13 -0.0361707 -19.5806)
(-1.73052e-13 -0.0397725 -19.1558)
(-1.46531e-13 -0.0449882 -18.6895)
(-1.42576e-13 -0.0519359 -18.16)
(-1.26581e-13 -0.059655 -17.555)
(-1.25836e-13 -0.0672809 -16.8729)
(-1.14777e-13 -0.0740407 -16.1197)
(-1.20091e-13 -0.0789716 -15.3091)
(-8.89594e-14 -0.0809248 -14.4647)
(-1.18556e-13 -0.078766 -13.6221)
(-6.605e-14 -0.071877 -12.8267)
(-1.57884e-13 -0.0607868 -12.1274)
(-1.06152e-13 -0.0473644 -11.5618)
(-1.09937e-13 -0.0340274 -11.1433)
(-1.06058e-13 -0.0223777 -10.8602)
(-1.14839e-13 -0.013195 -10.686)
(-1.34959e-13 -0.0060352 -10.5953)
(-1.01391e-13 -0.000426183 -10.5661)
(-1.48286e-13 0.0029066 -10.5807)
(-1.1786e-13 0.00408687 -10.6171)
(-1.37932e-13 0.00424206 -10.6601)
(-6.60288e-14 0.00398131 -10.7042)
(-9.76487e-14 0.00335725 -10.7462)
(-3.33e-14 0.00251811 -10.7832)
(-3.70959e-14 0.00159131 -10.8141)
(-3.96431e-14 0.000641545 -10.8387)
(-6.17125e-14 -0.000275664 -10.8574)
(-4.33638e-14 -0.00109572 -10.8709)
(-9.7108e-14 -0.00171258 -10.8808)
(-9.22442e-14 -0.00194614 -10.8896)
(-9.89459e-14 -0.00151527 -10.9013)
(-9.97741e-14 -2.94361e-05 -10.9223)
(-9.0994e-14 0.00299062 -10.9615)
(-1.15485e-13 0.00805387 -11.0312)
(-6.29985e-14 0.0156054 -11.1461)
(-5.37499e-14 0.0259133 -11.3229)
(-7.56705e-14 0.0389649 -11.5784)
(-3.84964e-14 0.0544042 -11.9275)
(-4.40601e-14 0.0715325 -12.3814)
(-3.33853e-14 0.0893736 -12.9456)
(-4.59761e-14 0.106788 -13.619)
(-8.26502e-15 0.122606 -14.3932)
(-1.06027e-14 0.135763 -15.2532)
(-8.51071e-15 0.145418 -16.1784)
(-1.12917e-14 0.151058 -17.1443)
(-1.5433e-14 0.15257 -18.1249)
(-1.57652e-14 0.150254 -19.0956)
(-3.19807e-14 0.144736 -20.0352)
(-1.2322e-14 0.1368 -20.9274)
(-1.25206e-14 0.127198 -21.7607)
(-1.41562e-14 0.116465 -22.5274)
(-1.9222e-14 0.104776 -23.2214)
(-5.44299e-15 0.0918668 -23.8365)
(-1.80479e-14 0.0770885 -24.3633)
(-1.78364e-14 0.0596492 -24.7882)
(-1.81113e-14 0.0390353 -25.0938)
(-1.74483e-14 0.0152705 -25.261)
(-1.65785e-14 -0.0114999 -25.2735)
(-2.50697e-14 -0.042572 -25.1131)
(-1.91588e-14 -0.0781136 -24.7642)
(-1.57966e-14 -0.117232 -24.2058)
(-2.16508e-14 -0.159975 -23.4254)
(-1.75998e-14 -0.207054 -22.4114)
(-2.20689e-14 -0.259741 -21.1519)
(-2.69294e-14 -0.319492 -19.6353)
(-3.89293e-14 -0.386373 -17.8494)
(-3.5065e-14 -0.457227 -15.781)
(-4.5031e-14 -0.525033 -13.414)
(-5.51933e-14 -0.582012 -10.7301)
(-6.64917e-14 -0.63772 -7.71204)
(-7.69693e-14 -0.764485 -4.42519)
(-9.09012e-14 -0.970038 -0.567337)
(-1.53951e-13 -1.03074 4.01609)
(-1.34119e-13 -1.02953 6.31835)
(-1.2368e-13 -1.01956 13.2322)
(-1.06941e-13 -1.29707 13.6834)
(-7.25871e-14 -2.89864 30.6127)
(-1.09487e-13 0.139454 -19.9586)
(-1.35116e-13 0.0528773 -20.5758)
(-1.48205e-13 -0.00825843 -20.6426)
(-1.78267e-13 -0.043872 -20.3719)
(-2.04046e-13 -0.0457593 -20.0258)
(-2.51269e-13 -0.0315626 -19.7587)
(-1.991e-13 -0.0172116 -19.6038)
(-2.36177e-13 -0.00764834 -19.5294)
(-2.57674e-13 -0.00193902 -19.5031)
(-2.33427e-13 0.00147963 -19.5022)
(-2.41357e-13 0.00558281 -19.5205)
(-2.41326e-13 0.0116185 -19.566)
(-2.35544e-13 0.0192279 -19.6465)
(-2.26268e-13 0.0272368 -19.7654)
(-2.39047e-13 0.0340612 -19.9187)
(-2.07129e-13 0.0382515 -20.0959)
(-1.81913e-13 0.0383495 -20.2811)
(-1.94348e-13 0.0326629 -20.4532)
(-1.82245e-13 0.0192024 -20.5841)
(-1.54634e-13 -0.00346566 -20.6383)
(-1.83574e-13 -0.0337938 -20.5794)
(-1.30879e-13 -0.0645268 -20.3924)
(-1.58761e-13 -0.0865854 -20.1039)
(-1.23213e-13 -0.0993936 -19.7617)
(-1.13498e-13 -0.11101 -19.3881)
(-1.21726e-13 -0.127677 -18.9695)
(-9.47021e-14 -0.149519 -18.4843)
(-8.6482e-14 -0.173832 -17.9214)
(-7.52452e-14 -0.198348 -17.2786)
(-8.8661e-14 -0.221031 -16.56)
(-4.5175e-14 -0.239216 -15.7758)
(-5.59097e-14 -0.249448 -14.9447)
(-4.14012e-14 -0.24787 -14.0965)
(-3.74359e-14 -0.231575 -13.2729)
(-3.82538e-14 -0.20075 -12.5228)
(-4.25009e-14 -0.1601 -11.8912)
(-4.80083e-14 -0.117356 -11.4034)
(-5.09868e-14 -0.0790055 -11.0576)
(-5.64454e-14 -0.0486312 -10.8304)
(-7.09525e-14 -0.0255977 -10.6999)
(-9.5661e-14 -0.00774789 -10.6322)
(-7.80439e-14 0.00410849 -10.6127)
(-1.56904e-13 0.00977092 -10.6234)
(-1.20259e-13 0.0119425 -10.6488)
(-1.63754e-13 0.0125312 -10.6817)
(-1.305e-13 0.0119285 -10.7182)
(-1.51103e-13 0.010632 -10.7551)
(-9.71649e-14 0.00907108 -10.7916)
(-1.49374e-13 0.00748316 -10.8275)
(-5.03803e-14 0.00605652 -10.8636)
(-1.26917e-13 0.00498856 -10.9014)
(-6.02092e-14 0.00457999 -10.9429)
(-6.17328e-14 0.00532718 -10.9908)
(-1.03078e-13 0.00799252 -11.0494)
(-2.79645e-14 0.0136205 -11.1245)
(-6.27759e-14 0.0234743 -11.2241)
(-7.88421e-14 0.0388778 -11.3582)
(-4.38551e-14 0.0609811 -11.5389)
(-1.76104e-14 0.0904899 -11.7793)
(-4.97495e-14 0.127422 -12.0928)
(-3.54517e-14 0.170952 -12.4914)
(-5.23063e-14 0.219385 -12.9847)
(-2.44804e-14 0.270266 -13.578)
(-1.31932e-14 0.320608 -14.2716)
(-4.41362e-14 0.367203 -15.0598)
(-4.51957e-14 0.406964 -15.9311)
(-4.6505e-14 0.437302 -16.8682)
(-3.65355e-14 0.456484 -17.8497)
(-4.06526e-14 0.463924 -18.8518)
(-1.84224e-14 0.460248 -19.8511)
(-1.86713e-14 0.447043 -20.8268)
(-2.76603e-14 0.426333 -21.7619)
(-1.05262e-14 0.399985 -22.6438)
(-1.53266e-14 0.36921 -23.4625)
(-2.04576e-15 0.334209 -24.2096)
(-2.92004e-14 0.294023 -24.8757)
(-1.48184e-14 0.246651 -25.4492)
(-1.38467e-14 0.189695 -25.9143)
(-1.88362e-14 0.12152 -26.2517)
(-1.30891e-14 0.0421686 -26.4398)
(-1.14108e-14 -0.047553 -26.4586)
(-1.86427e-14 -0.149635 -26.285)
(-1.86191e-14 -0.263336 -25.912)
(-1.96372e-14 -0.386886 -25.3194)
(-3.13952e-14 -0.519556 -24.4947)
(-3.85832e-14 -0.66029 -23.4292)
(-3.94804e-14 -0.808425 -22.1178)
(-3.89557e-14 -0.964243 -20.5605)
(-4.1633e-14 -1.12848 -18.7612)
(-6.02103e-14 -1.30039 -16.7217)
(-7.32184e-14 -1.47592 -14.4347)
(-8.80745e-14 -1.64774 -11.875)
(-1.02573e-13 -1.81948 -9.0003)
(-1.19161e-13 -2.05484 -5.82123)
(-9.99347e-14 -2.36496 -2.37254)
(-1.1371e-13 -2.5605 1.5516)
(-1.6604e-13 -2.86279 4.77224)
(-1.39336e-13 -2.95691 11.0685)
(-1.19169e-13 -4.28209 13.0758)
(-8.38398e-14 -7.71281 27.4698)
(1.04133e-14 0.232055 -19.7496)
(1.35006e-15 0.0880615 -20.3693)
(-7.80421e-14 -0.0148877 -20.4067)
(-9.02389e-14 -0.0732756 -20.1138)
(-1.29707e-13 -0.075576 -19.7544)
(-1.95626e-13 -0.0510323 -19.483)
(-1.52664e-13 -0.0264166 -19.3313)
(-1.97771e-13 -0.00988207 -19.2662)
(-1.99903e-13 0.000116242 -19.2547)
(-2.10241e-13 0.00610204 -19.2727)
(-2.18323e-13 0.0130021 -19.3123)
(-2.22728e-13 0.0229166 -19.3798)
(-2.22028e-13 0.0352988 -19.4817)
(-2.17286e-13 0.0482827 -19.6202)
(-2.12375e-13 0.0593385 -19.7908)
(-2.2728e-13 0.0661601 -19.9833)
(-1.7404e-13 0.066418 -20.1831)
(-2.01951e-13 0.0573848 -20.3703)
(-1.44378e-13 0.0358189 -20.5187)
(-1.77203e-13 -0.000659177 -20.5941)
(-1.52666e-13 -0.0495862 -20.5608)
(-1.13455e-13 -0.0991262 -20.4038)
(-1.38649e-13 -0.134538 -20.1497)
(-1.39851e-13 -0.155257 -19.845)
(-1.10476e-13 -0.174765 -19.51)
(-1.43049e-13 -0.203035 -19.129)
(-1.35366e-13 -0.239803 -18.6797)
(-9.69649e-14 -0.280503 -18.1525)
(-1.01806e-13 -0.3217 -17.5464)
(-1.06453e-13 -0.360381 -16.8657)
(-1.09823e-13 -0.392575 -16.1195)
(-8.53093e-14 -0.412956 -15.3235)
(-1.08692e-13 -0.415248 -14.5031)
(-7.20591e-14 -0.394128 -13.6942)
(-7.17772e-14 -0.348611 -12.9409)
(-7.50674e-14 -0.284836 -12.2861)
(-8.42924e-14 -0.214702 -11.758)
(-9.877e-14 -0.149618 -11.3622)
(-1.10086e-13 -0.0965116 -11.0813)
(-1.15615e-13 -0.0563987 -10.9024)
(-1.19746e-13 -0.0258908 -10.7881)
(-1.21621e-13 -0.00436598 -10.7224)
(-1.22253e-13 0.00768109 -10.6922)
(-1.19419e-13 0.0137208 -10.6847)
(-1.09878e-13 0.0167249 -10.6918)
(-9.61902e-14 0.0176518 -10.7094)
(-8.53344e-14 0.017428 -10.7347)
(-7.93483e-14 0.0168451 -10.7667)
(-7.62202e-14 0.0163826 -10.8059)
(-7.00639e-14 0.0164082 -10.8539)
(-6.30991e-14 0.0172713 -10.9126)
(-5.79309e-14 0.01945 -10.9849)
(-5.48858e-14 0.0236922 -11.0741)
(-4.36521e-14 0.0311174 -11.1842)
(-1.94836e-14 0.0432365 -11.3207)
(-2.97069e-14 0.061857 -11.4901)
(1.06617e-14 0.0888612 -11.7001)
(2.15124e-14 0.125883 -11.9597)
(-2.93403e-14 0.173942 -12.2786)
(-5.63346e-15 0.233104 -12.6663)
(-3.91e-14 0.302252 -13.1317)
(-3.18022e-14 0.379015 -13.6818)
(-3.19319e-14 0.459869 -14.3208)
(-2.94488e-14 0.540409 -15.0493)
(-4.47518e-14 0.61574 -15.8633)
(-1.99625e-14 0.680971 -16.7539)
(-6.3483e-15 0.731791 -17.7068)
(-2.20634e-14 0.765103 -18.7032)
(-1.26141e-14 0.779576 -19.7214)
(-8.2489e-15 0.775853 -20.7388)
(-4.80643e-15 0.756195 -21.7345)
(-4.72478e-15 0.72364 -22.6907)
(-1.30468e-14 0.681017 -23.5933)
(-5.29073e-15 0.630133 -24.4309)
(-1.80634e-14 0.571251 -25.1931)
(-1.60879e-14 0.502865 -25.8691)
(-1.64017e-14 0.421889 -26.446)
(-1.73271e-14 0.324538 -26.9076)
(-1.94071e-14 0.208043 -27.2342)
(-2.29261e-14 0.0720969 -27.405)
(-2.64181e-14 -0.0825494 -27.4007)
(-2.97371e-14 -0.257554 -27.1958)
(-4.17013e-14 -0.450667 -26.7925)
(-4.276e-14 -0.660214 -26.1655)
(-5.05979e-14 -0.884971 -25.3051)
(-6.09854e-14 -1.12235 -24.2055)
(-7.34298e-14 -1.37038 -22.8641)
(-8.56021e-14 -1.62814 -21.2832)
(-9.62167e-14 -1.8957 -19.4677)
(-1.14322e-13 -2.17266 -17.423)
(-1.20452e-13 -2.45734 -15.149)
(-1.33437e-13 -2.74764 -12.6345)
(-1.38613e-13 -3.04828 -9.86061)
(-1.28858e-13 -3.39023 -6.83832)
(-1.4263e-13 -3.7727 -3.56039)
(-1.46053e-13 -4.11777 0.21671)
(-1.73551e-13 -4.71252 3.67869)
(-1.51934e-13 -5.05264 9.22845)
(-1.42308e-13 -7.16841 12.6045)
(-1.05459e-13 -11.3166 23.7233)
(1.38324e-13 0.322546 -19.5211)
(9.98075e-14 0.122449 -20.1384)
(3.12642e-14 -0.0232098 -20.1413)
(-5.17586e-14 -0.103476 -19.8184)
(-1.05628e-13 -0.105105 -19.439)
(-1.07483e-13 -0.0691426 -19.1584)
(-1.58733e-13 -0.0333704 -19.0064)
(-1.92085e-13 -0.0090891 -18.9485)
(-1.6908e-13 0.0058706 -18.9509)
(-1.75469e-13 0.0149099 -18.9883)
(-1.77669e-13 0.0248728 -19.0513)
(-1.82909e-13 0.0387059 -19.1446)
(-1.88563e-13 0.0556936 -19.2728)
(-1.71136e-13 0.0733474 -19.4365)
(-1.95002e-13 0.0882967 -19.6303)
(-1.88168e-13 0.0975004 -19.8437)
(-1.79515e-13 0.0978585 -20.0628)
(-1.42032e-13 0.0856536 -20.269)
(-1.58941e-13 0.0563515 -20.4376)
(-1.23185e-13 0.00649735 -20.5354)
(-1.19062e-13 -0.0606834 -20.5261)
(-9.52259e-14 -0.128778 -20.3939)
(-1.08312e-13 -0.177258 -20.1656)
(-1.0126e-13 -0.205623 -19.8885)
(-9.81925e-14 -0.232894 -19.5816)
(-9.42921e-14 -0.272894 -19.2283)
(-9.02153e-14 -0.32474 -18.8059)
(-8.60425e-14 -0.381676 -18.3046)
(-8.50176e-14 -0.439139 -17.7256)
(-9.32929e-14 -0.493336 -17.0741)
(-9.27567e-14 -0.539218 -16.3591)
(-1.10379e-13 -0.569875 -15.5952)
(-1.34771e-13 -0.576923 -14.8056)
(-1.25744e-13 -0.552897 -14.0233)
(-1.46742e-13 -0.495718 -13.289)
(-3.70689e-14 -0.412668 -12.6422)
(-1.0806e-13 -0.319062 -12.1088)
(-4.86074e-14 -0.230312 -11.6942)
(5.78262e-15 -0.155962 -11.3839)
(-8.11106e-14 -0.0989743 -11.1681)
(-5.10001e-14 -0.0559492 -11.0167)
(-3.49879e-14 -0.024682 -10.9089)
(-6.00366e-14 -0.00517283 -10.8361)
(-6.24084e-14 0.00644762 -10.7896)
(-6.02883e-15 0.0136808 -10.763)
(-3.267e-14 0.0180244 -10.7527)
(-1.83507e-14 0.0208788 -10.7567)
(-3.55455e-14 0.023417 -10.7747)
(-5.94345e-14 0.0264029 -10.808)
(-6.63509e-14 0.0304097 -10.8589)
(1.86896e-15 0.0359349 -10.9303)
(-4.08313e-14 0.0435893 -11.0256)
(3.45437e-14 0.0542784 -11.1485)
(2.25471e-14 0.0693335 -11.3031)
(-2.0508e-15 0.0905428 -11.4939)
(1.5361e-14 0.120045 -11.7259)
(-1.19378e-14 0.160073 -12.0049)
(5.24426e-14 0.212576 -12.337)
(2.0196e-15 0.278789 -12.7285)
(1.61886e-14 0.358825 -13.1861)
(-2.45293e-14 0.451388 -13.7156)
(-2.02126e-14 0.553655 -14.322)
(-1.71025e-14 0.661356 -15.0082)
(-1.31353e-14 0.769031 -15.7749)
(-1.85383e-14 0.870442 -16.6189)
(-5.9621e-15 0.959128 -17.5331)
(-3.72866e-14 1.02914 -18.5051)
(-2.46848e-14 1.07592 -19.5181)
(-8.12882e-15 1.09718 -20.5513)
(-9.79393e-15 1.09332 -21.5825)
(2.68503e-15 1.06702 -22.5903)
(-1.42514e-14 1.0222 -23.556)
(-1.157e-15 0.962523 -24.4645)
(-2.38288e-14 0.890335 -25.3033)
(-2.03889e-14 0.805893 -26.061)
(2.20257e-15 0.707125 -26.7254)
(-1.39466e-14 0.589884 -27.2825)
(-1.26661e-14 0.449117 -27.7147)
(-2.43247e-14 0.281137 -28.0023)
(-3.04019e-14 0.0856018 -28.1251)
(-3.94375e-14 -0.136685 -28.0652)
(-4.86703e-14 -0.386166 -27.7998)
(-5.76108e-14 -0.659008 -27.3407)
(-7.27901e-14 -0.954006 -26.661)
(-7.79211e-14 -1.26841 -25.7563)
(-9.37145e-14 -1.59766 -24.6246)
(-1.13511e-13 -1.93836 -23.2669)
(-1.31481e-13 -2.28847 -21.6871)
(-1.46268e-13 -2.64761 -19.8907)
(-1.67604e-13 -3.01619 -17.8826)
(-1.71952e-13 -3.39491 -15.6637)
(-1.994e-13 -3.78556 -13.2273)
(-1.91222e-13 -4.19657 -10.563)
(-1.74051e-13 -4.6518 -7.67478)
(-1.74646e-13 -5.15213 -4.5356)
(-1.78169e-13 -5.66828 -0.945043)
(-1.93775e-13 -6.47544 2.55992)
(-1.77095e-13 -7.13103 7.58091)
(-1.7256e-13 -9.71298 11.5258)
(-1.26048e-13 -14.0392 19.8053)
(2.3523e-13 0.416782 -19.2968)
(1.76218e-13 0.154817 -19.9051)
(8.67404e-14 -0.0335809 -19.8681)
(3.69765e-14 -0.135212 -19.5061)
(-3.37486e-14 -0.135035 -19.0985)
(-1.00315e-13 -0.0864729 -18.8021)
(-6.89525e-14 -0.0385839 -18.6445)
(-1.22064e-13 -0.00571521 -18.5896)
(-1.33893e-13 0.0149847 -18.6028)
(-1.49681e-13 0.0277181 -18.6583)
(-1.61621e-13 0.0412089 -18.7452)
(-1.52247e-13 0.0592095 -18.8668)
(-1.92203e-13 0.0807991 -19.026)
(-1.7523e-13 0.102886 -19.2213)
(-1.93674e-13 0.121339 -19.4455)
(-1.98826e-13 0.13251 -19.6871)
(-1.66828e-13 0.132664 -19.9319)
(-1.53912e-13 0.117171 -20.1623)
(-1.38614e-13 0.0801772 -20.3544)
(-1.31044e-13 0.0170217 -20.4752)
(-1.30423e-13 -0.0684382 -20.4878)
(-1.09648e-13 -0.155108 -20.3754)
(-1.18895e-13 -0.216418 -20.1664)
(-9.9028e-14 -0.252087 -19.9107)
(-7.98652e-14 -0.286914 -19.6264)
(-6.62333e-14 -0.338662 -19.2958)
(-8.16757e-14 -0.405696 -18.8954)
(-4.6745e-14 -0.478826 -18.4144)
(-7.01985e-14 -0.552213 -17.8563)
(-7.44427e-14 -0.621476 -17.2275)
(-8.78577e-14 -0.680646 -16.5371)
(-1.08855e-13 -0.721393 -15.7995)
(-1.34219e-13 -0.73335 -15.0364)
(-1.14878e-13 -0.706974 -14.2795)
(-1.58927e-13 -0.639157 -13.5681)
(-1.56219e-13 -0.538437 -12.9403)
(-1.46897e-13 -0.423597 -12.4197)
(-1.27833e-13 -0.313766 -12.0089)
(-1.10506e-13 -0.220736 -11.6924)
(-9.58017e-14 -0.148627 -11.4588)
(-8.32707e-14 -0.0944723 -11.2867)
(-7.28724e-14 -0.0549027 -11.15)
(-1.07919e-13 -0.0284491 -11.0433)
(-5.6584e-14 -0.0108391 -10.9619)
(-6.54162e-14 0.00151923 -10.9018)
(-7.29244e-14 0.0105088 -10.8613)
(-8.16436e-14 0.0179853 -10.8395)
(-7.8372e-14 0.0254692 -10.8375)
(-5.97762e-14 0.0340039 -10.8578)
(-7.67558e-14 0.0443602 -10.9036)
(-1.40989e-14 0.057156 -10.9789)
(-4.98996e-14 0.0730736 -11.0878)
(-5.09422e-15 0.093075 -11.2344)
(-1.43375e-14 0.11856 -11.4227)
(-1.74215e-14 0.151422 -11.6566)
(2.34061e-15 0.193943 -11.9398)
(-4.15781e-14 0.248534 -12.276)
(-2.72957e-14 0.317328 -12.6689)
(-4.50811e-14 0.401705 -13.1224)
(-9.43989e-15 0.50184 -13.6402)
(-3.91259e-14 0.616357 -14.226)
(3.48641e-15 0.742174 -14.8829)
(-3.06167e-14 0.874521 -15.6131)
(-3.15344e-14 1.00715 -16.4171)
(-3.84084e-14 1.13273 -17.2927)
(-7.21462e-14 1.24336 -18.2337)
(-3.00392e-14 1.33147 -19.2292)
(-2.83202e-14 1.39091 -20.2632)
(-2.63681e-14 1.41821 -21.3147)
(-2.25798e-14 1.41328 -22.3607)
(-2.2765e-14 1.37915 -23.3781)
(-2.78386e-14 1.3205 -24.3466)
(-1.70184e-14 1.2419 -25.2495)
(-2.58438e-14 1.14619 -26.0727)
(-2.13489e-14 1.0336 -26.8032)
(-3.47185e-14 0.901439 -27.4276)
(-4.05251e-14 0.744587 -27.9305)
(-2.51685e-14 0.556945 -28.2948)
(-4.87475e-14 0.334334 -28.5028)
(-5.21847e-14 0.0770093 -28.5398)
(-7.51753e-14 -0.213371 -28.3952)
(-9.77595e-14 -0.535494 -28.0573)
(-1.01655e-13 -0.884983 -27.5449)
(-1.25194e-13 -1.26138 -26.8298)
(-1.39334e-13 -1.66018 -25.9122)
(-1.48176e-13 -2.0754 -24.7906)
(-1.65328e-13 -2.50297 -23.4654)
(-1.80754e-13 -2.94024 -21.9379)
(-1.9497e-13 -3.38646 -20.2101)
(-2.04179e-13 -3.84219 -18.2833)
(-2.25695e-13 -4.30953 -16.1559)
(-2.34037e-13 -4.79308 -13.8222)
(-2.38126e-13 -5.30385 -11.2754)
(-2.17158e-13 -5.86279 -8.51567)
(-2.10449e-13 -6.47863 -5.5095)
(-2.07747e-13 -7.16355 -2.12622)
(-2.24702e-13 -8.15974 1.32183)
(-2.20799e-13 -9.12573 5.88539)
(-1.98117e-13 -11.8992 9.87943)
(-1.48188e-13 -16.056 15.9949)
(3.35286e-13 0.502085 -19.1147)
(2.77525e-13 0.185732 -19.6813)
(2.1114e-13 -0.0472698 -19.603)
(1.58755e-13 -0.169565 -19.1921)
(6.94722e-14 -0.166309 -18.7471)
(2.24593e-15 -0.103705 -18.4268)
(-3.05195e-14 -0.042527 -18.2565)
(-7.77663e-14 -1.61982e-05 -18.1981)
(-1.27557e-13 0.027454 -18.2169)
(-1.68644e-13 0.0448075 -18.2865)
(-1.59743e-13 0.0626094 -18.3955)
(-1.58147e-13 0.085355 -18.5463)
(-1.93101e-13 0.111838 -18.7399)
(-1.89581e-13 0.138334 -18.9728)
(-1.82905e-13 0.159985 -19.235)
(-1.69294e-13 0.172657 -19.5129)
(-1.53074e-13 0.172129 -19.7907)
(-1.56243e-13 0.152979 -20.0507)
(-1.30919e-13 0.108041 -20.2692)
(-1.15554e-13 0.0313244 -20.4136)
(-1.12934e-13 -0.0727944 -20.4459)
(-1.20389e-13 -0.178331 -20.3491)
(-8.91734e-14 -0.25228 -20.1548)
(-7.87375e-14 -0.294837 -19.917)
(-1.01304e-13 -0.337025 -19.653)
(-6.98385e-14 -0.400536 -19.3427)
(-6.47524e-14 -0.482997 -18.9612)
(-5.63255e-14 -0.572413 -18.4972)
(-4.79197e-14 -0.661472 -17.9559)
(-5.70362e-14 -0.74538 -17.345)
(-3.40231e-14 -0.817398 -16.6746)
(-5.48416e-14 -0.867935 -15.9586)
(-4.5509e-14 -0.884707 -15.218)
(-6.73907e-14 -0.856085 -14.4834)
(-1.03819e-13 -0.777921 -13.7939)
(-1.02412e-13 -0.660157 -13.1874)
(-1.68428e-13 -0.525317 -12.6861)
(-1.91983e-13 -0.396291 -12.2902)
(-2.0852e-13 -0.286964 -11.9817)
(-1.96744e-13 -0.201685 -11.7466)
(-2.10591e-13 -0.138077 -11.5688)
(-1.82754e-13 -0.0920767 -11.4173)
(-1.20505e-13 -0.0599528 -11.2895)
(-1.43979e-13 -0.0368786 -11.1829)
(-8.90214e-14 -0.0193567 -11.096)
(-9.05794e-14 -0.00520847 -11.0285)
(-7.74504e-14 0.00784939 -10.9816)
(-6.51056e-14 0.0216446 -10.9578)
(-5.13912e-14 0.0374678 -10.9611)
(-3.95125e-14 0.0562511 -10.9962)
(-3.24639e-14 0.0786826 -11.0682)
(-3.20925e-14 0.105442 -11.1819)
(-3.6922e-14 0.137444 -11.3422)
(-4.66814e-14 0.176023 -11.5533)
(-5.6373e-14 0.223014 -11.8184)
(-6.5808e-14 0.280679 -12.1406)
(-6.52499e-14 0.351446 -12.5219)
(-4.87051e-14 0.43751 -12.9641)
(-5.53327e-14 0.540335 -13.4688)
(-2.01215e-14 0.660173 -14.0376)
(-3.36459e-14 0.79568 -14.6721)
(-2.9689e-14 0.943683 -15.3741)
(-6.34191e-14 1.09914 -16.1451)
(-5.89058e-14 1.25522 -16.9857)
(-7.17914e-14 1.40365 -17.894)
(-6.35108e-14 1.53517 -18.8649)
(-5.97122e-14 1.64047 -19.8879)
(-5.46541e-14 1.71158 -20.9466)
(-3.04237e-14 1.74356 -22.0187)
(-3.7238e-14 1.73564 -23.0785)
(-9.65648e-15 1.69104 -24.0999)
(-2.2719e-14 1.61532 -25.0594)
(-2.20866e-14 1.51395 -25.9374)
(-2.56691e-14 1.39035 -26.7176)
(-1.93302e-14 1.24477 -27.3856)
(-3.52794e-14 1.07412 -27.9277)
(-4.52043e-14 0.872704 -28.331)
(-5.32347e-14 0.634146 -28.5839)
(-7.0255e-14 0.354895 -28.6785)
(-8.43718e-14 0.0370715 -28.6137)
(-1.0387e-13 -0.315671 -28.3921)
(-1.22387e-13 -0.701468 -28.0163)
(-1.48452e-13 -1.11823 -27.5015)
(-1.67394e-13 -1.56632 -26.8136)
(-2.01371e-13 -2.03962 -25.9508)
(-2.12004e-13 -2.53176 -24.9054)
(-2.19585e-13 -3.0384 -23.6719)
(-2.3236e-13 -3.55667 -22.2456)
(-2.44246e-13 -4.08558 -20.6239)
(-2.5558e-13 -4.62578 -18.8043)
(-2.65288e-13 -5.18019 -16.7841)
(-2.75675e-13 -5.75515 -14.5588)
(-2.78272e-13 -6.36337 -12.1249)
(-2.57537e-13 -7.0248 -9.48213)
(-2.42206e-13 -7.75489 -6.60044)
(-2.36354e-13 -8.5932 -3.40391)
(-2.48838e-13 -9.74688 -0.0820189)
(-2.39373e-13 -10.9768 4.03618)
(-2.12558e-13 -13.7486 7.80519)
(-1.75754e-13 -17.5665 12.3513)
(4.16656e-13 0.594773 -18.9471)
(3.27718e-13 0.212121 -19.4846)
(2.40663e-13 -0.0647819 -19.3578)
(1.54138e-13 -0.207711 -18.8894)
(6.25241e-14 -0.2 -18.3977)
(-3.91139e-14 -0.121821 -18.0447)
(-7.07295e-14 -0.0460835 -17.8532)
(-1.11386e-13 0.0072384 -17.783)
(-1.50024e-13 0.0426947 -17.7996)
(-1.6123e-13 0.0658529 -17.877)
(-1.38181e-13 0.0890872 -18.0036)
(-1.83624e-13 0.11755 -18.1815)
(-1.80507e-13 0.149614 -18.4109)
(-1.74081e-13 0.180817 -18.6856)
(-1.63512e-13 0.20553 -18.9927)
(-1.71367e-13 0.219196 -19.3149)
(-1.45214e-13 0.217264 -19.6337)
(-1.35386e-13 0.193689 -19.9295)
(-1.65117e-13 0.140076 -20.1781)
(-1.49013e-13 0.0490614 -20.3467)
(-1.77143e-13 -0.074494 -20.3969)
(-1.52872e-13 -0.199383 -20.3122)
(-1.39805e-13 -0.285675 -20.1291)
(-1.56042e-13 -0.334455 -19.9073)
(-1.45539e-13 -0.383728 -19.6635)
(-1.31214e-13 -0.459055 -19.373)
(-1.32262e-13 -0.557347 -19.0088)
(-1.16674e-13 -0.663266 -18.5599)
(-7.27744e-14 -0.767892 -18.0325)
(-1.00502e-13 -0.866111 -17.4361)
(-7.33552e-14 -0.950559 -16.7817)
(-6.82304e-14 -1.01055 -16.0835)
(-6.02996e-14 -1.03195 -15.362)
(-5.39514e-14 -1.00098 -14.6472)
(-5.48056e-14 -0.912364 -13.9783)
(-2.50907e-14 -0.777522 -13.3932)
(-7.43889e-14 -0.623008 -12.9134)
(-8.06504e-14 -0.475651 -12.5368)
(-8.44313e-14 -0.351497 -12.2436)
(-6.73907e-14 -0.254608 -12.0173)
(-8.28989e-14 -0.183265 -11.8438)
(-1.43618e-14 -0.132784 -11.6885)
(-3.65854e-14 -0.096544 -11.5508)
(3.96211e-14 -0.0691137 -11.4298)
(6.33167e-14 -0.0471327 -11.3248)
(9.54949e-14 -0.0280872 -11.2372)
(1.19639e-13 -0.00924454 -11.1694)
(1.63998e-13 0.0115205 -11.1257)
(1.36544e-13 0.0357293 -11.1116)
(1.29397e-13 0.0644399 -11.1332)
(6.84228e-14 0.0983597 -11.1968)
(-1.40473e-14 0.138097 -11.3086)
(-6.36088e-14 0.184423 -11.4741)
(-5.88829e-14 0.238489 -11.698)
(-6.24483e-14 0.301937 -11.9836)
(-6.35338e-14 0.376848 -12.3335)
(-6.42866e-14 0.465521 -12.7486)
(-3.37785e-14 0.570085 -13.2295)
(-7.78894e-14 0.692016 -13.7758)
(-4.44001e-14 0.831645 -14.3874)
(-5.50143e-14 0.987734 -15.0644)
(-5.87402e-14 1.15717 -15.8072)
(-5.59357e-14 1.33482 -16.6167)
(-4.85597e-14 1.51346 -17.4932)
(-4.35088e-14 1.68395 -18.4354)
(-2.35341e-14 1.83562 -19.4383)
(-4.54543e-14 1.95725 -20.4911)
(-2.81625e-14 2.0387 -21.5759)
(6.62132e-15 2.07317 -22.6674)
(-5.33558e-15 2.05892 -23.7353)
(8.54869e-15 1.9993 -24.7485)
(-7.44275e-16 1.90079 -25.6782)
(9.74355e-15 1.77004 -26.5008)
(-2.4278e-16 1.6114 -27.1977)
(-1.22117e-14 1.42575 -27.7554)
(-1.55791e-14 1.21053 -28.1659)
(-4.76898e-14 0.96087 -28.4278)
(-7.7378e-14 0.67175 -28.5471)
(-1.05503e-13 0.341587 -28.5363)
(-1.31529e-13 -0.0254885 -28.4125)
(-1.51494e-13 -0.424992 -28.186)
(-1.8125e-13 -0.858871 -27.8601)
(-2.00078e-13 -1.33098 -27.4304)
(-2.24301e-13 -1.84174 -26.8514)
(-2.46925e-13 -2.38351 -26.1113)
(-2.59011e-13 -2.94958 -25.193)
(-2.67105e-13 -3.53473 -24.0847)
(-2.72581e-13 -4.13516 -22.7779)
(-2.79949e-13 -4.74889 -21.268)
(-2.89227e-13 -5.37593 -19.5527)
(-2.90356e-13 -6.01911 -17.631)
(-2.9852e-13 -6.68538 -15.5019)
(-2.99734e-13 -7.38822 -13.1665)
(-2.88491e-13 -8.14753 -10.6268)
(-2.82809e-13 -8.98428 -7.8616)
(-2.64557e-13 -9.95402 -4.83707)
(-2.67371e-13 -11.2276 -1.67801)
(-2.57166e-13 -12.6634 2.00686)
(-2.38255e-13 -15.3166 5.41948)
(-2.04175e-13 -18.7153 8.84244)
(4.85003e-13 0.681254 -18.8142)
(3.6737e-13 0.23477 -19.3235)
(2.80888e-13 -0.0874043 -19.1429)
(1.9131e-13 -0.250853 -18.6091)
(9.04348e-14 -0.237361 -18.062)
(1.79403e-14 -0.141992 -17.6678)
(-3.88094e-14 -0.0503979 -17.4462)
(-1.00225e-13 0.0149633 -17.3547)
(-9.36223e-14 0.0597658 -17.3597)
(-1.21835e-13 0.0901517 -17.4358)
(-1.42928e-13 0.120287 -17.5724)
(-1.5025e-13 0.155887 -17.7724)
(-1.4534e-13 0.194714 -18.0355)
(-1.4199e-13 0.231387 -18.3537)
(-1.4016e-13 0.259365 -18.7107)
(-1.29006e-13 0.273645 -19.0848)
(-1.64807e-13 0.26947 -19.4528)
(-1.76666e-13 0.240387 -19.7915)
(-1.80461e-13 0.176964 -20.075)
(-1.7295e-13 0.0705436 -20.2694)
(-1.69693e-13 -0.0734804 -20.3359)
(-1.83652e-13 -0.218261 -20.2596)
(-1.90772e-13 -0.316411 -20.0847)
(-2.05567e-13 -0.37048 -19.8782)
(-2.22241e-13 -0.426485 -19.6556)
(-2.15825e-13 -0.513878 -19.3859)
(-2.28177e-13 -0.628529 -19.0392)
(-1.66104e-13 -0.751362 -18.6057)
(-1.93302e-13 -0.871676 -18.0908)
(-1.73963e-13 -0.984018 -17.5062)
(-1.58242e-13 -1.08051 -16.8644)
(-1.44321e-13 -1.14953 -16.1805)
(-1.28636e-13 -1.17524 -15.4752)
(-1.05452e-13 -1.14168 -14.7782)
(-8.69778e-14 -1.04233 -14.1286)
(-4.01174e-14 -0.890184 -13.5649)
(-7.02363e-14 -0.716135 -13.1078)
(-6.13362e-14 -0.551076 -12.753)
(-5.34407e-14 -0.413121 -12.4782)
(-2.1035e-14 -0.305767 -12.2666)
(-9.58259e-15 -0.228097 -12.1028)
(4.00498e-14 -0.174704 -11.9506)
(6.38027e-14 -0.135693 -11.8112)
(1.2245e-13 -0.105082 -11.6845)
(1.36515e-13 -0.0796428 -11.5697)
(1.50739e-13 -0.0564088 -11.4692)
(1.46698e-13 -0.0321277 -11.3864)
(1.17211e-13 -0.00434425 -11.3268)
(1.03033e-13 0.028716 -11.2972)
(4.14267e-14 0.0682307 -11.305)
(-3.69621e-14 0.114901 -11.3579)
(-1.98848e-14 0.169215 -11.4633)
(-6.71674e-14 0.231736 -11.6277)
(-5.64631e-14 0.303338 -11.8564)
(-5.12998e-14 0.38535 -12.1534)
(-4.20047e-14 0.47954 -12.521)
(-6.27093e-14 0.587932 -12.9599)
(-3.56718e-14 0.712459 -13.4698)
(-4.595e-14 0.854519 -14.0491)
(-2.85109e-14 1.01449 -14.6963)
(-5.95549e-14 1.19128 -15.41)
(-5.08622e-14 1.38194 -16.1898)
(-4.39265e-14 1.58138 -17.0356)
(-3.80505e-14 1.78211 -17.9475)
(-3.42385e-14 1.97416 -18.9239)
(-2.69079e-14 2.14538 -19.9596)
(-2.34378e-14 2.28228 -21.0425)
(9.6927e-15 2.37211 -22.152)
(1.48474e-14 2.40565 -23.2579)
(1.17918e-14 2.37982 -24.3228)
(7.10677e-15 2.29802 -25.3074)
(3.20043e-15 2.16793 -26.1757)
(-1.74331e-15 1.99811 -26.8996)
(-1.67008e-14 1.79507 -27.4616)
(-3.90874e-14 1.56209 -27.8578)
(-6.78484e-14 1.29951 -28.0997)
(-9.21917e-14 1.00555 -28.2141)
(-1.29291e-13 0.677784 -28.2372)
(-1.7382e-13 0.315388 -28.203)
(-2.03701e-13 -0.07969 -28.1318)
(-2.31675e-13 -0.50691 -28.0167)
(-2.51189e-13 -0.975985 -27.8359)
(-2.57988e-13 -1.49689 -27.5637)
(-2.78385e-13 -2.06823 -27.1431)
(-2.84939e-13 -2.67974 -26.5518)
(-2.98248e-13 -3.32301 -25.7683)
(-3.02814e-13 -3.99072 -24.7799)
(-3.06401e-13 -4.6773 -23.579)
(-3.08318e-13 -5.37925 -22.1636)
(-3.11433e-13 -6.09569 -20.5345)
(-3.13384e-13 -6.82917 -18.6943)
(-3.09311e-13 -7.58683 -16.6465)
(-3.10544e-13 -8.38229 -14.3971)
(-3.0012e-13 -9.23519 -11.9515)
(-2.92529e-13 -10.17 -9.29998)
(-2.87998e-13 -11.2473 -6.43838)
(-2.82851e-13 -12.6009 -3.46526)
(-2.82062e-13 -14.1707 -0.177875)
(-2.53971e-13 -16.6446 2.82692)
(-2.2997e-13 -19.6084 5.43624)
(5.70647e-13 0.761141 -18.7285)
(4.71372e-13 0.253189 -19.2043)
(3.98587e-13 -0.116134 -18.9671)
(3.23933e-13 -0.300147 -18.361)
(1.96649e-13 -0.279633 -17.7507)
(1.30826e-13 -0.165465 -17.3077)
(9.10972e-14 -0.0567807 -17.0475)
(6.56811e-15 0.0218018 -16.9249)
(-3.95837e-14 0.077359 -16.9074)
(-5.83374e-14 0.116551 -16.9714)
(-1.0772e-13 0.15535 -17.1076)
(-1.14878e-13 0.199943 -17.321)
(-1.2526e-13 0.247267 -17.6121)
(-1.37842e-13 0.290765 -17.972)
(-1.55443e-13 0.322725 -18.3813)
(-1.74651e-13 0.337557 -18.8131)
(-1.8688e-13 0.330324 -19.2385)
(-2.05801e-13 0.294363 -19.6285)
(-2.21418e-13 0.21948 -19.9529)
(-1.8024e-13 0.0959454 -20.1755)
(-2.19419e-13 -0.0700718 -20.2568)
(-2.34471e-13 -0.235451 -20.1852)
(-2.22437e-13 -0.344706 -20.0151)
(-2.77122e-13 -0.402708 -19.8238)
(-2.27739e-13 -0.464924 -19.6248)
(-2.4485e-13 -0.564718 -19.3783)
(-2.47918e-13 -0.696373 -19.0512)
(-2.74573e-13 -0.836732 -18.6348)
(-2.42095e-13 -0.973155 -18.1329)
(-2.3115e-13 -1.0997 -17.559)
(-2.48173e-13 -1.20797 -16.9272)
(-2.03537e-13 -1.28559 -16.2545)
(-2.09258e-13 -1.31514 -15.5624)
(-1.99949e-13 -1.27854 -14.8811)
(-1.43062e-13 -1.16795 -14.2498)
(-8.74558e-14 -0.998003 -13.7074)
(-9.3984e-14 -0.804283 -13.274)
(-5.06836e-14 -0.621944 -12.9426)
(-1.25317e-14 -0.470955 -12.6881)
(1.71996e-14 -0.354094 -12.4948)
(3.86363e-14 -0.271329 -12.3433)
(5.83245e-14 -0.21624 -12.1983)
(3.23482e-14 -0.175543 -12.0628)
(7.64262e-14 -0.142808 -11.9363)
(6.28989e-14 -0.114936 -11.8182)
(5.02206e-14 -0.0883878 -11.7109)
(2.74389e-14 -0.0593167 -11.6187)
(-1.52619e-15 -0.0248796 -11.5476)
(-2.96319e-14 0.0169992 -11.5056)
(-4.83419e-14 0.067641 -11.5011)
(-5.62898e-14 0.127748 -11.543)
(-5.97038e-14 0.197679 -11.6397)
(-5.96025e-14 0.277753 -11.7987)
(-5.70159e-14 0.368512 -12.0264)
(-5.93253e-14 0.470887 -12.3274)
(-5.94086e-14 0.586222 -12.7045)
(-8.776e-14 0.716139 -13.1586)
(-6.73487e-14 0.862245 -13.6888)
(-9.47598e-14 1.02575 -14.2931)
(-7.84419e-14 1.20702 -14.969)
(-6.98353e-14 1.4051 -15.7141)
(-4.23821e-14 1.61727 -16.5269)
(-4.04663e-14 1.83854 -17.4065)
(-3.36943e-14 2.06122 -18.3524)
(-3.78955e-14 2.27454 -19.3625)
(-9.6814e-15 2.46464 -20.4303)
(-4.68804e-15 2.61538 -21.542)
(8.58951e-15 2.71068 -22.6723)
(1.71242e-14 2.73818 -23.7833)
(7.1501e-15 2.69288 -24.8272)
(-8.5944e-15 2.57824 -25.7531)
(-2.34915e-14 2.40409 -26.5163)
(-3.80993e-14 2.18279 -27.0876)
(-5.5641e-14 1.92609 -27.462)
(-9.22643e-14 1.64358 -27.6645)
(-1.10474e-13 1.34183 -27.7483)
(-1.54735e-13 1.02311 -27.7821)