/*--------------------------------*- C++ -*----------------------------------*\
| =========                 |                                                 |
| \\      /  F ield         | OpenFOAM: The Open Source CFD Toolbox           |
|  \\    /   O peration     | Version:  4.1                                   |
|   \\  /    A nd           | Web:      www.OpenFOAM.org                      |
|    \\/     M anipulation  |                                                 |
\*---------------------------------------------------------------------------*/
FoamFile
{
    version     2.0;
    format      ascii;
    class       volScalarField;
    location    "1400";
    object      p;
}
// * * * * * * * * * * * * * * * * * * * * * * * * * * * * * * * * * * * * * //

dimensions      [0 2 -2 0 0 0 0];

internalField   nonuniform List<scalar> 
26785
(
105.284
101.738
99.1681
95.3301
89.2197
82.4017
76.4959
71.888
68.6986
66.881
66.1471
65.9454
65.4833
63.7401
59.9235
54.2183
47.5498
40.6536
33.5249
25.7514
17.3186
8.77689
0.713621
-6.12338
-10.6113
-12.4201
-11.755
-9.189
-5.89354
-2.80585
-0.323483
1.49817
2.7564
3.59687
4.16727
4.59956
5.00214
5.45551
6.00982
6.68456
7.47093
8.3377
9.23879
10.122
10.9389
11.6604
12.3101
13.0046
13.9874
15.5296
17.7609
20.4788
23.3084
26.0385
28.3739
30.806
31.6641
29.3737
25.5197
22.3918
20.0744
18.3374
16.9914
15.9233
15.0715
14.4044
13.9068
13.57
13.3847
13.3467
13.4695
13.7821
14.3115
15.0672
16.0314
17.1577
18.3897
19.6841
21.0254
22.4184
23.8735
25.4016
27.0178
28.7394
30.5694
32.4618
34.3235
36.0303
37.4806
38.5168
38.9339
38.4096
36.5412
32.9021
27.2047
19.6919
10.9485
3.61963
-4.11625
3.18554
105.238
101.724
99.1628
95.3218
89.1964
82.368
76.4594
71.8514
68.6663
66.8556
66.1312
65.9424
65.4947
63.7598
59.9362
54.2149
47.5355
40.6405
33.5178
25.7438
17.3014
8.74732
0.669685
-6.19036
-10.6916
-12.5032
-11.8388
-9.25833
-5.94367
-2.84196
-0.351573
1.47403
2.73402
3.57524
4.14604
4.57877
4.98211
5.43672
5.99284
6.66991
7.45891
8.32833
9.23176
10.1167
10.9337
11.6518
12.2915
12.9677
13.9281
15.4522
17.6764
20.3942
23.2145
25.9205
28.2184
30.56
31.3491
29.0052
25.2417
22.234
19.9825
18.2798
16.9523
15.8945
15.0485
14.3849
13.8893
13.5536
13.3687
13.3303
13.452
13.7625
14.2893
15.0434
16.0082
17.1382
18.3753
19.672
21.01
22.3968
23.8494
25.382
27.0029
28.7122
30.5014
32.3413
34.1677
35.8489
37.2384
38.1932
38.5005
37.839
35.8073
31.9801
26.0767
18.3467
9.43123
1.95574
-4.9716
1.22104
105.16
101.696
99.1524
95.3053
89.1478
82.2965
76.3817
71.7735
68.598
66.8021
66.0984
65.937
65.5197
63.8027
59.9656
54.212
47.5113
40.6189
33.5089
25.7348
17.2752
8.7
0.599183
-6.30793
-10.8565
-12.6904
-12.0301
-9.41609
-6.05719
-2.92277
-0.413131
1.42257
2.68761
3.53142
4.10377
4.53786
4.94287
5.3998
5.95907
6.64004
7.43349
8.30754
9.21539
10.1038
10.9216
11.6336
12.2541
12.8939
13.81
15.2985
17.5091
20.2272
23.0301
25.6909
27.9311
30.0687
30.633
28.2277
24.7512
21.9588
19.8242
18.1819
16.8871
15.8481
15.0137
14.3574
13.8661
13.5323
13.3468
13.3046
13.4197
13.7229
14.2434
14.9929
15.9563
17.0897
18.3328
19.6329
20.9676
22.3464
23.7923
25.3206
26.93
28.6062
30.345
32.1373
33.9051
35.4981
36.7711
37.5753
37.6917
36.7995
34.5019
30.3801
24.1684
16.1163
6.96327
-0.764812
-6.55711
-1.41294
105.052
101.648
99.1316
95.2765
89.0698
82.184
76.2609
71.6541
68.4945
66.7218
66.0495
65.9292
65.557
63.8671
60.0111
54.2114
47.4807
40.5935
33.5035
25.7312
17.2498
8.64878
0.522865
-6.44137
-11.0577
-12.9255
-12.2824
-9.63368
-6.22004
-3.04265
-0.506237
1.34462
2.61807
3.46659
4.04169
4.47762
4.88442
5.34381
5.90673
6.59278
7.39247
8.27344
9.18812
10.0821
10.9015
11.6051
12.1976
12.784
13.6352
15.0719
17.2635
19.983
22.7618
25.3604
27.5232
29.3777
29.6682
27.2567
24.1676
21.6251
19.6286
18.0591
16.8046
15.7889
14.9683
14.3203
13.8338
13.5021
13.316
13.2696
13.3762
13.6696
14.1813
14.9245
15.8855
17.0212
18.2697
19.5735
20.9062
22.2778
23.7142
25.2289
26.8115
28.44
30.1172
31.8349
33.5064
34.9781
36.1009
36.7139
36.5905
35.4104
32.7857
28.3085
21.7311
13.2937
3.84352
-4.26771
-8.8217
-4.3293
104.918
101.582
99.1008
95.2351
88.9623
82.0307
76.0975
71.4944
68.3573
66.616
65.9854
65.9192
65.6067
63.9536
60.0746
54.2165
47.4481
40.5688
33.5059
25.7375
17.2304
8.60029
0.449717
-6.57765
-11.2817
-13.193
-12.5787
-9.89603
-6.42115
-3.19397
-0.625532
1.24417
2.52846
3.38306
3.96138
4.399
4.80712
5.26857
5.83522
6.52709
7.33455
8.2246
9.14858
10.0506
10.8731
11.567
12.124
12.6412
13.4077
14.777
16.9445
19.6677
22.4176
24.9392
26.9898
28.5546
28.5765
26.2647
23.5654
21.266
19.409
17.9162
16.7055
15.7162
14.9117
14.2739
13.7935
13.4642
13.2768
13.2237
13.3182
13.5977
14.0975
14.8323
15.7889
16.9248
18.1765
19.4829
20.8134
22.1764
23.5996
25.0954
26.645
28.2218
29.8309
31.4613
33.0154
34.3398
35.2841
35.6774
35.2842
33.7822
30.7949
25.9295
18.9588
10.1083
0.314471
-8.30955
-11.6869
-7.24324
104.728
101.496
99.0589
95.1794
88.8233
81.8357
75.8921
71.2964
68.1891
66.4874
65.9081
65.9079
65.6683
64.0615
60.1561
54.2285
47.4157
40.5475
33.5192
25.7572
17.2213
8.56028
0.388427
-6.70133
-11.5056
-13.4681
-12.8935
-10.1804
-6.64315
-3.36457
-0.76273
1.12685
2.42257
3.28327
3.8642
4.30244
4.71063
5.17316
5.74319
6.44148
7.25825
8.15969
9.09573
10.0087
10.8363
11.5201
12.0355
12.4685
13.1318
14.4188
16.558
19.2895
22.0073
24.4393
26.3287
27.6554
27.4285
25.3229
22.9712
20.8931
19.1688
17.7532
16.5894
15.6295
14.8441
14.219
13.7469
13.421
13.232
13.1707
13.2499
13.5118
13.997
14.7211
15.6712
16.8048
18.0573
19.3649
20.6917
22.0427
23.4465
24.9183
26.4332
27.956
29.4894
31.0179
32.4377
33.6005
34.3538
34.5155
33.8393
32.0005
28.6363
23.3723
16.0023
6.73791
-3.44611
-12.7375
-15.1398
-10.0529
104.481
101.392
99.0054
95.1087
88.6529
81.6006
75.6477
71.0638
67.9939
66.3391
65.8196
65.8957
65.7411
64.1902
60.2558
54.2488
47.3855
40.5319
33.5457
25.7928
17.2253
8.53185
0.342814
-6.80554
-11.7166
-13.7371
-13.2116
-10.4719
-6.87341
-3.54467
-0.910617
0.997889
2.30412
3.16978
3.75185
4.18896
4.59551
5.05778
5.63059
6.33565
7.16305
8.07805
9.02888
9.95566
10.7913
11.4658
11.9347
12.2698
12.8122
14.0031
16.1117
18.8578
21.541
23.8703
25.5729
26.7096
26.297
24.4471
22.3903
20.5099
18.9101
17.5715
16.4569
15.5296
14.7662
14.1564
13.6939
13.3711
13.1787
13.1072
13.1682
13.4088
13.8761
14.5874
15.5286
16.657
17.9075
19.2141
20.5356
21.8712
23.2506
24.695
26.1767
27.6481
29.1026
30.5186
31.7945
32.7881
33.3441
33.2686
32.3047
30.1265
26.3875
20.7342
12.9804
3.33492
-7.27884
-17.4191
-19.1366
-12.6235
104.205
101.269
98.9383
95.0215
88.4508
81.3268
75.3667
70.7999
67.775
66.174
65.7216
65.8831
65.8246
64.3388
60.3734
54.2777
47.3588
40.5237
33.5874
25.8462
17.2445
8.51752
0.315924
-6.88391
-11.9031
-13.9874
-13.5187
-10.7564
-7.1001
-3.72512
-1.06236
0.862268
2.17668
3.04507
3.62597
4.0596
4.46233
4.92266
5.49742
6.20944
7.04871
7.97936
8.94764
9.89142
10.7382
11.4057
11.8247
12.0495
12.4543
13.5364
15.613
18.3802
21.0312
23.2327
24.7861
25.7311
25.2332
23.6321
21.8226
20.1185
18.635
17.3724
16.309
15.4172
14.6787
14.0866
13.6353
13.3151
13.1176
13.0339
13.074
13.2894
13.7356
14.4316
15.3615
16.4819
17.7272
19.0295
20.3424
21.659
23.0098
24.4239
25.8742
27.2994
28.6748
29.9716
31.0995
31.9216
32.2781
31.9637
30.7133
28.2033
24.1082
18.0973
10.0055
0.0675539
-10.9762
-22.1295
-23.5571
-14.5309
103.901
101.124
98.8565
94.9174
88.2171
81.016
75.0523
70.5088
67.5364
65.9952
65.6159
65.8705
65.9176
64.5063
60.5079
54.3154
47.3362
40.5239
33.6456
25.9189
17.2805
8.51891
0.309193
-6.93339
-12.0582
-14.2106
-13.8042
-11.0227
-7.31328
-3.89803
-1.21197
0.724432
2.04353
2.91154
3.48832
3.91568
4.31208
4.76857
5.34426
6.06328
6.91546
7.86366
8.8519
9.81582
10.6776
11.3415
11.7089
11.8124
12.0632
13.0222
15.0651
17.8631
20.4859
22.5358
24.0028
24.7473
24.2513
22.8679
21.2675
19.7209
18.3457
17.1577
16.147
15.2933
14.5823
14.0098
13.5702
13.2514
13.0456
12.9471
12.9645
13.1515
13.573
14.2515
15.1679
16.2777
17.5145
18.8091
20.1099
21.4041
22.7233
24.1045
25.5235
26.9086
28.2096
29.387
30.3661
31.0165
31.1728
30.6195
29.0883
26.2645
21.85
15.5415
7.21265
-2.79697
-14.0098
-25.813
-27.2259
-16.0849
103.573
100.961
98.76
94.795
87.9517
80.6704
74.708
70.1943
67.2819
65.8057
65.5043
65.858
66.0192
64.6912
60.6584
54.3614
47.318
40.5334
33.7213
26.0118
17.3341
8.53717
0.323669
-6.95203
-12.1775
-14.4005
-14.0591
-11.2611
-7.5045
-4.05665
-1.3543
0.58831
1.90765
2.77153
3.3408
3.75874
4.14607
4.59659
5.17198
5.8978
6.76376
7.73118
8.74166
9.72877
10.6098
11.2749
11.591
11.5632
11.6436
12.4647
14.472
17.3123
19.8925
21.8279
23.2062
23.795
23.345
22.1463
20.7249
19.3189
18.0445
16.9292
15.972
15.1584
14.477
13.9255
13.4978
13.1787
12.961
12.8442
12.8371
12.9936
13.3872
14.0461
14.9467
16.0435
17.2686
18.5517
19.8366
21.1057
22.3917
23.7374
25.1222
26.4706
27.7066
28.7719
29.6039
30.0834
30.0397
29.251
27.4516
24.3441
19.668
13.1604
4.79072
-4.80573
-15.3655
-26.4326
-28.0079
-18.8139
103.194
100.78
98.6485
94.6536
87.6552
80.2925
74.3376
69.861
67.0157
65.6084
65.3883
65.8456
66.1276
64.8914
60.8231
54.4151
47.3044
40.5527
33.8151
26.1256
17.406
8.57296
0.359726
-6.93893
-12.2584
-14.5526
-14.2764
-11.4636
-7.66666
-4.19529
-1.48487
0.457406
1.77187
2.62738
3.1854
3.59056
3.96584
4.40805
4.98165
5.71386
6.59419
7.58227
8.61697
9.63017
10.5349
11.2072
11.4738
11.3067
11.2034
11.8726
13.8377
16.7205
19.2427
21.1387
22.3919
22.893
22.5027
21.461
20.1945
18.9143
17.7336
16.6884
15.785
15.0128
14.3625
13.8326
13.4166
13.0954
12.8618
12.7221
12.6885
12.8135
13.1769
13.8141
14.6969
15.7783
16.989
18.2568
19.5222
20.764
22.0166
23.3253
24.671
25.9806
27.1604
28.1279
28.8196
29.1301
28.8895
27.8747
25.8295
22.4833
17.6283
11.0654
2.96366
-5.5961
-14.8713
-24.4421
-26.293
-17.9438
102.781
100.584
98.5213
94.4921
87.3282
79.8852
73.9452
69.5133
66.7417
65.4065
65.2697
65.8332
66.2411
65.1046
61
54.4754
47.2949
40.5817
33.9271
26.2605
17.4966
8.62658
0.417524
-6.89378
-12.3
-14.6641
-14.45
-11.6234
-7.79386
-4.30916
-1.59986
0.334863
1.63886
2.48144
3.02426
3.41307
3.77314
4.20445
4.77452
5.51239
6.40742
7.41729
8.47787
9.51977
10.453
11.1397
11.3608
11.0495
10.7492
11.2402
13.1521
16.0716
18.5832
20.4388
21.5834
22.0436
21.7142
20.8075
19.6761
18.5084
17.4146
16.4369
15.5867
14.8566
14.2381
13.73
13.3248
12.9996
12.7463
12.579
12.5163
12.6097
12.9412
13.5548
14.418
15.4819
16.6754
17.9247
19.1669
20.3798
21.6002
22.8721
24.1743
25.4379
26.5637
27.45
28.0164
28.1639
27.7343
26.5111
24.2538
20.7305
15.8067
9.3675
1.8389
-5.55303
-13.4276
-20.5766
-22.2303
-14.824
102.355
100.37
98.376
94.3095
86.9717
79.452
73.5353
69.1558
66.464
65.2028
65.1499
65.8206
66.3576
65.3281
61.1867
54.5409
47.289
40.6202
34.0572
26.4164
17.6057
8.69807
0.496862
-6.81682
-12.3015
-14.7328
-14.5749
-11.735
-7.88132
-4.39437
-1.69602
0.223513
1.51119
2.33608
2.8596
3.22834
3.56983
3.9874
4.5519
5.29442
6.20421
7.23669
8.3244
9.39703
10.3634
11.0737
11.256
10.7965
10.2699
10.5502
12.4282
15.4072
17.9408
19.7202
20.8016
21.2425
20.9717
20.182
19.1691
18.1023
17.089
16.1757
15.3776
14.6894
14.1029
13.6163
13.2207
12.8895
12.6131
12.4138
12.319
12.3807
12.6799
13.2678
14.1095
15.1539
16.3279
17.5558
18.772
19.9549
21.1447
22.3816
23.6387
24.8499
25.9159
26.729
27.1909
27.1926
26.589
25.1837
22.7598
19.1391
14.2758
8.12208
1.29006
-5.08501
-11.7245
-17.2047
-18.687
-12.7608
101.918
100.136
98.2126
94.1055
86.5872
78.9963
73.1122
68.7927
66.1862
65
65.0302
65.8074
66.4749
65.5591
61.3804
54.6099
47.2856
40.6677
34.2049
26.593
17.7332
8.78729
0.597164
-6.70841
-12.2631
-14.7575
-14.6469
-11.7937
-7.92526
-4.44779
-1.7706
0.125896
1.39125
2.19361
2.69362
3.03842
3.35777
3.75852
4.31514
5.06105
5.98541
7.04102
8.15654
9.2612
10.2656
11.0097
11.1612
10.5474
9.76799
9.86707
11.769
14.8036
17.301
19.009
20.0531
20.4841
20.2686
19.5811
18.6725
17.6967
16.7579
15.9055
15.1577
14.5108
13.9561
13.4903
13.1026
12.7634
12.461
12.2259
12.0964
12.126
12.3925
12.953
13.7716
14.7947
15.9472
17.1513
18.3391
19.4912
20.6523
21.8564
23.0697
24.2265
25.2269
25.9646
26.3351
26.2178
25.4693
23.9184
21.3836
17.7565
13.06
7.2732
1.15467
-4.40625
-10.1226
-14.6128
-16.1581
-11.6504
101.471
99.8861
98.0297
93.8791
86.1761
78.5217
72.6798
68.4279
65.9112
64.8
64.9116
65.7932
66.5911
65.7949
61.5786
54.6807
47.2837
40.7235
34.3699
26.7902
17.8788
8.89398
0.717735
-6.56926
-12.1842
-14.7383
-14.6631
-11.7962
-7.92287
-4.467
-1.82131
0.044272
1.28129
2.05625
2.52847
2.84536
3.13881
3.51945
4.06566
4.81348
5.75202
6.83098
7.97418
9.11157
10.158
10.9451
11.0798
10.3182
9.32829
9.34595
11.2767
14.272
16.6789
18.3242
19.3372
19.7634
19.5995
19.0018
18.1858
17.2922
16.4223
15.627
14.9273
14.3205
13.7968
13.3508
12.9693
12.6197
12.289
12.0153
11.8488
11.8453
12.0789
12.6104
13.4047
14.4049
15.5342
16.7127
17.8704
18.9912
20.1249
21.2978
22.4693
23.5732
24.5073
25.1661
25.4476
25.2321
24.3784
22.7294
20.1426
16.5802
12.1002
6.72698
1.27646
-3.58281
-8.36174
-12.128
-13.7042
-10.3043
100.99
99.6189
97.8272
93.6302
85.74
78.0313
72.2414
68.0642
65.6413
64.6044
64.7947
65.7776
66.7044
66.0333
61.7791
54.7517
47.2819
40.7868
34.5518
27.0078
18.0425
9.01792
0.857839
-6.40025
-12.0628
-14.6747
-14.6214
-11.7399
-7.87214
-4.45019
-1.8463
-0.0193839
1.18339
1.92608
2.36622
2.65111
2.9148
3.27185
3.80495
4.55306
5.5053
6.6073
7.77749
8.94672
10.0383
10.8816
11.0171
10.1386
9.03455
9.03759
10.9615
13.8158
16.0923
17.6689
18.6512
19.0758
18.9597
18.4414
17.708
16.8892
16.0827
15.3409
14.6868
14.1183
13.6245
13.1971
12.82
12.4577
12.0965
11.7821
11.5765
11.5387
11.7391
12.2408
13.0097
13.9858
15.0906
16.242
17.3684
18.4577
19.5647
20.7067
21.8378
22.8911
23.7618
24.3436
24.5365
24.2304
23.2975
21.5905
19.0002
15.5536
11.3245
6.41467
1.60871
-2.63464
-6.56607
-9.67763
-11.1759
-8.58122
100.498
99.3364
97.6039
93.3576
85.2802
77.5276
71.7992
67.7034
65.3775
64.4137
64.6796
65.7603
66.8137
66.2729
61.98
54.8214
47.2789
40.8571
34.7505
27.246
18.2243
9.15896
1.01666
-6.20214
-11.8981
-14.5667
-14.5199
-11.6229
-7.77173
-4.39608
-1.84409
-0.0633686
1.09938
1.80505
2.20884
2.45762
2.68757
3.01748
3.53469
4.28142
5.24669
6.371
7.56661
8.7651
9.9071
10.816
10.9359
9.96865
8.85706
8.92903
10.784
13.417
15.5375
17.0402
17.9922
18.4176
18.3454
17.8977
17.2386
16.4877
15.7397
15.0477
14.4366
13.9045
13.439
13.0289
12.6543
12.2771
11.8831
11.5261
11.2795
11.2065
11.3739
11.8452
12.5885
13.5397
14.619
15.7421
16.8359
17.8935
18.9736
20.0837
21.1748
22.1797
22.9908
23.5012
23.6121
23.224
22.2262
20.4855
17.9294
14.6397
10.716
6.3354
2.13348
-1.59679
-4.92979
-7.49803
-8.91466
-6.84447
100.007
99.0341
97.3582
93.061
84.7976
77.012
71.3544
67.3462
65.1202
64.2277
64.5659
65.7406
66.9184
66.5129
62.1804
54.8887
47.2736
40.9338
34.9663
27.5053
18.4243
9.31708
1.19329
-5.9757
-11.6898
-14.4143
-14.3566
-11.4436
-7.62081
-4.30383
-1.81354
-0.0862315
1.03096
1.69499
2.05823
2.26682
2.45906
2.75825
3.25679
4.00045
4.97782
6.12348
7.34062
8.56807
9.75778
10.7002
10.7422
9.756
8.7651
8.93064
10.6593
13.0442
15.006
16.4349
17.3573
17.7851
17.7532
17.3689
16.7769
16.0881
15.3939
14.7484
14.1775
13.6798
13.2405
12.846
12.4723
12.078
11.6494
11.2475
10.9579
10.8492
10.9845
11.4263
12.1442
13.0701
14.123
15.2168
16.2766
17.3017
18.3533
19.4294
20.4805
21.4392
22.1952
22.6409
22.6798
22.2251
21.1824
19.4334
16.9489
13.8591
10.2897
6.45074
2.79517
-0.474086
-3.42196
-5.64679
-7.0211
-5.20852
99.5193
98.7141
97.0896
92.7396
84.2925
76.4854
70.9073
66.9928
64.869
64.0459
64.4528
65.718
67.0184
66.7535
62.3796
54.9531
47.2652
41.017
35.1996
27.786
18.6426
9.49229
1.38663
-5.72221
-11.4368
-14.2161
-14.1291
-11.2008
-7.41906
-4.173
-1.7538
-0.0867349
0.979645
1.59763
1.91628
2.08068
2.23133
2.49632
2.97345
3.71223
4.70081
5.86555
7.10102
8.35296
9.5602
10.4621
10.4125
9.49583
8.68686
8.93657
10.5266
12.6772
14.4915
15.85
16.7442
17.1755
17.1805
16.8534
16.3224
15.6904
15.046
14.4437
13.9106
13.445
13.0299
12.6488
12.2741
11.861
11.3958
10.9466
10.6117
10.4679
10.5734
10.9875
11.681
12.5819
13.6079
14.671
15.6949
16.6856
17.7056
18.7446
19.7554
20.6708
21.3777
21.7668
21.7452
21.2412
20.1768
18.4504
16.0749
13.2181
10.0271
6.70063
3.53747
0.662039
-1.97751
-4.02355
-5.36917
-3.63315
99.0348
98.3768
96.7975
92.3923
83.7649
75.948
70.458
66.6429
64.6234
63.8674
64.3394
65.6917
67.1136
66.995
62.5778
55.0146
47.2533
41.1068
35.4503
28.0878
18.8789
9.68442
1.59526
-5.44387
-11.138
-13.9701
-13.8345
-10.8941
-7.16671
-4.00355
-1.66429
-0.0638108
0.946865
1.51467
1.7849
1.9013
2.00665
2.2341
2.68712
3.41917
4.41787
5.59775
6.85105
8.09949
9.28489
10.0876
9.97721
9.18949
8.57518
8.89901
10.3621
12.3073
13.9899
15.2829
16.1507
16.5862
16.625
16.3499
15.8746
15.2951
14.6969
14.1351
13.6373
13.2012
12.8079
12.438
12.0601
11.6266
11.1229
10.6239
10.2422
10.065
10.1443
10.5336
11.2045
12.0812
13.0798
14.1108
15.0959
16.0488
17.0323
18.0298
19.0002
19.8762
20.5415
20.8845
20.816
20.281
19.2179
17.544
15.3092
12.709
9.89999
7.03072
4.29761
1.72109
-0.63091
-2.58308
-3.87352
-2.14328
98.5278
98.0209
96.4821
92.0183
83.2144
75.3995
70.0062
66.2966
64.3831
63.6915
64.2247
65.6608
67.2042
67.2377
62.7752
55.0736
47.2382
41.2034
35.718
28.4097
19.1323
9.89295
1.81723
-5.14424
-10.7954
-13.6759
-13.4709
-10.5234
-6.86457
-3.79576
-1.54462
-0.0165133
0.933989
1.4478
1.66607
1.73094
1.7875
1.97427
2.40046
3.12403
4.13017
5.32474
6.5788
7.79311
8.92189
9.60021
9.47921
8.84774
8.41783
8.80638
10.161
11.9317
13.4988
14.7316
15.5748
16.015
16.0852
15.8576
15.4334
14.9025
14.3476
13.8238
13.3589
12.9495
12.5754
12.2143
11.8312
11.3755
10.8319
10.2809
9.85141
9.64395
9.70145
10.0697
10.7205
11.5746
12.546
13.5429
14.4855
15.3956
16.3355
17.2862
18.2158
19.0569
19.6898
19.9993
19.9
19.3537
18.3155
16.7223
14.6532
12.3216
9.8767
7.39871
5.0107
2.66197
0.554315
-1.34648
-2.539
-0.808032
98.0252
97.6486
96.1424
91.616
82.6405
74.8403
69.5526
65.9545
64.1481
63.5178
64.1079
65.6246
67.2905
67.4817
62.9719
55.1313
47.2207
41.3068
36.0009
28.7497
19.4018
10.1171
2.05017
-4.82848
-10.4107
-13.3335
-13.0378
-10.0904
-6.51416
-3.55029
-1.3946
0.056027
0.942376
1.39877
1.56189
1.57201
1.57662
1.71967
2.11641
2.829
3.84063
5.04632
6.26444
7.43817
8.46752
9.0427
8.95285
8.48055
8.21577
8.66088
9.92553
11.5495
13.0163
14.1942
15.0149
15.4604
15.5596
15.3756
14.9988
14.5133
13.9993
13.5114
13.077
12.6917
12.3339
11.9789
11.5885
11.109
10.5239
9.91899
9.44183
9.20863
9.24923
9.60048
10.2344
11.0685
12.0134
12.9747
13.8699
14.7302
15.6178
16.5156
17.4039
18.2151
18.8257
19.1163
19.0044
18.4672
17.4767
15.9891
14.1029
12.0401
9.92826
7.7847
5.63286
3.47989
1.55703
-0.318383
-1.38298
0.330396
97.5255
97.2578
95.7784
91.1844
82.0426
74.2708
69.0982
65.6179
63.9193
63.3467
63.989
65.5823
67.3722
67.726
63.1676
55.189
47.2026
41.4171
36.297
29.1065
19.687
10.3559
2.29164
-4.50173
-9.98135
-12.9419
-12.5371
-9.59779
-6.11765
-3.26807
-1.21411
0.154646
0.97339
1.36938
1.47455
1.4271
1.3768
1.47325
1.83777
2.53577
3.55316
4.74123
5.91387
7.02782
7.94238
8.45221
8.41686
8.09393
7.9738
8.46866
9.65972
11.1612
12.541
13.6693
14.4697
14.9209
15.0473
14.9037
14.5709
14.1283
13.6533
13.1993
12.793
12.4287
12.0841
11.733
11.3336
10.8288
10.2009
9.54045
9.01638
8.76311
8.79178
9.12997
9.75034
10.5681
11.4884
12.4131
13.2556
14.0571
14.882
15.7205
16.5669
17.3533
17.953
18.2411
18.1361
17.6284
16.7066
15.344
13.6502
11.8452
10.0248
8.15962
6.15904
4.18401
2.39203
0.529307
-0.400308
1.26572
97.0297
96.8518
95.3904
90.722
81.4208
73.6924
68.645
65.2889
63.6983
63.1794
63.8684
65.5333
67.4487
67.9677
63.3606
55.248
47.1864
41.5343
36.6048
29.4803
19.9891
10.6088
2.53906
-4.16657
-9.50561
-12.4997
-11.9725
-9.04999
-5.6778
-2.95025
-1.00316
0.280157
1.02844
1.3615
1.40635
1.29878
1.19082
1.23813
1.56659
2.24822
3.25621
4.4014
5.53445
6.55679
7.3754
7.85103
7.87916
7.69136
7.6972
8.2362
9.36759
10.767
12.0717
13.1557
13.9382
14.3956
14.5475
14.4415
14.15
13.7485
13.3112
12.8889
12.5076
12.1616
11.8276
11.4786
11.0683
10.537
9.86557
9.14815
8.57797
8.31138
8.33314
8.66158
9.27174
10.0772
10.9761
11.8643
12.6486
13.3811
14.1319
14.9044
15.7083
16.4753
17.0761
17.3795
17.3018
16.8437
16.0083
14.7837
13.2844
11.7175
10.1443
8.47691
6.59441
4.77993
3.07978
1.22815
0.423639
2.00824
96.5327
96.432
94.9788
90.2281
80.7752
73.107
68.1958
64.9706
63.4875
63.0179
63.7474
65.4773
67.518
68.2019
63.5466
55.3089
47.1743
41.6584
36.9242
29.8739
20.31
10.876
2.78886
-3.82693
-8.98642
-12.0047
-11.3497
-8.45223
-5.19772
-2.59816
-0.761716
0.433453
1.10902
1.37705
1.35948
1.18964
1.0218
1.01661
1.30512
1.96257
2.93183
4.04232
5.11192
6.03957
6.78897
7.24964
7.34241
7.27503
7.39061
7.96916
9.05262
10.3673
11.6076
12.6523
13.4194
13.8836
14.0597
13.989
13.7367
13.375
12.974
12.5811
12.2217
11.8914
11.5666
11.2179
10.795
10.2364
9.52146
8.74547
8.12978
7.85827
7.87856
8.19965
8.80182
9.59867
10.4801
11.3336
12.0548
12.707
13.3719
14.0722
14.8331
15.586
16.2002
16.5373
16.5076
16.1181
15.3823
14.302
12.9929
11.6378
10.2685
8.71404
6.94496
5.27008
3.63535
1.79877
1.10082
2.57338
96.0136
96.0005
94.5449
89.7021
80.1068
72.5173
67.7539
64.6664
63.2898
62.865
63.6282
65.4146
67.5759
68.4201
63.7175
55.371
47.1671
41.7888
37.2568
30.2911
20.6519
11.1587
3.0378
-3.49251
-8.43641
-11.4547
-10.6747
-7.8104
-4.68073
-2.21299
-0.489635
0.615459
1.21655
1.41776
1.33618
1.10247
0.871764
0.809796
1.05352
1.6648
2.59061
3.65945
4.64702
5.49594
6.19585
6.65214
6.80708
6.84646
7.05792
7.67227
8.71773
9.96249
11.1479
12.1584
12.9126
13.3843
13.5837
13.5463
13.3315
13.0086
12.6428
12.2767
11.9365
11.62
11.3031
10.9528
10.5159
9.92984
9.17245
8.33643
7.67645
7.41145
7.43665
7.75132
8.34528
9.1352
10.0027
10.8249
11.4797
12.0405
12.6082
13.2308
13.9485
14.6926
15.332
15.7206
15.759
15.4549
14.8272
13.8905
12.762
11.5891
10.3726
8.87801
7.21857
5.65768
4.07087
2.2547
1.64144
2.97968
95.4889
95.5604
94.0899
89.1446
79.417
71.9266
67.3232
64.3801
63.1085
62.7243
63.5139
65.3454
67.6158
68.61
63.8607
55.4316
47.1632
41.9237
37.6044
30.7346
21.0175
11.4592
3.28584
-3.16655
-7.8793
-10.8484
-9.95384
-7.13042
-4.13
-1.79599
-0.186981
0.826914
1.35244
1.48563
1.33874
1.03871
0.741064
0.618283
0.802766
1.35807
2.24503
3.2482
4.15434
4.93999
5.60221
6.05971
6.27286
6.40675
6.70231
7.34942
8.36531
9.55285
10.692
11.6731
12.4173
12.8972
13.1192
13.1134
12.9349
12.65
12.3178
11.9762
11.6523
11.3478
11.0384
10.6846
10.2337
9.62064
8.82287
7.92615
7.22609
6.98401
7.0217
7.32841
7.90969
8.69032
9.54546
10.3411
10.9287
11.388
11.8488
12.3894
13.0644
13.8047
14.4798
14.9363
15.0607
14.8558
14.3393
13.5389
12.577
11.5594
10.4298
8.97803
7.41982
5.94796
4.39802
2.60759
2.05671
3.24807
94.958
95.1121
93.616
88.5569
78.7078
71.3385
66.9078
64.116
62.9473
62.5999
63.4086
65.2698
67.6297
68.7552
63.9607
55.4883
47.1591
42.0603
37.9665
31.2042
21.4112
11.7811
3.53196
-2.84197
-7.35124
-10.1879
-9.19337
-6.41838
-3.549
-1.3484
0.146758
1.06928
1.51844
1.58205
1.36758
0.998491
0.631255
0.437749
0.552266
1.05893
1.89477
2.81769
3.64799
4.37952
5.01066
5.47229
5.73919
5.95675
6.32643
7.00381
7.99735
9.13863
10.2393
11.1959
11.9327
12.4219
12.6659
12.6905
12.5475
12.2998
11.9991
11.6787
11.3686
11.0745
10.7721
10.4154
9.95075
9.31236
8.47764
7.52205
6.7932
6.5966
6.65506
6.94838
7.50608
8.26898
9.10919
9.8836
10.4075
10.7578
11.1049
11.5607
12.1941
12.9348
13.654
14.1913
14.4161
14.3199
13.9134
13.2362
12.4214
11.5305
10.4269
9.02137
7.55251
6.14802
4.62847
2.86845
2.35879
3.39965
94.4231
94.6581
93.1261
87.9415
77.9818
70.7567
66.5119
63.8783
62.8106
62.4974
63.3177
65.1873
67.6133
68.8333
64.0052
55.5403
47.153
42.1968
38.3397
31.6971
21.8403
12.1309
3.77094
-2.50957
-6.89623
-9.48236
-8.40063
-5.67969
-2.93946
-0.869893
0.512175
1.34251
1.71424
1.70693
1.42343
0.9834
0.539581
0.263447
0.315976
0.778185
1.54482
2.37919
3.13622
3.81824
4.42212
4.88934
5.20542
5.49714
5.93243
6.63808
7.61552
8.72002
9.78932
10.7261
11.4583
11.9578
12.2236
12.2779
12.1697
11.9581
11.6866
11.3853
11.0872
10.8014
10.5048
10.1473
9.66959
9.00907
8.14235
7.13479
6.40077
6.2764
6.36252
6.63199
7.14759
7.87755
8.69451
9.45154
9.92168
10.1606
10.3915
10.7616
11.3545
12.0986
12.8669
13.4931
13.8272
13.8439
13.5424
12.9719
12.283
11.48
10.369
9.01407
7.62064
6.26602
4.77372
3.04769
2.56016
3.45408
93.8819
94.2001
92.6233
87.3013
77.2416
70.1854
66.1403
63.6722
62.7042
62.4239
63.2499
65.0977
67.5722
68.8142
63.9948
55.5894
47.1474
42.3336
38.7186
32.2098
22.3117
12.5161
4.00899
-2.16613
-6.54564
-8.75015
-7.58248
-4.9195
-2.30575
-0.364087
0.90737
1.64741
1.94328
1.86362
1.50542
0.98767
0.458244
0.109914
0.114565
0.52102
1.19946
1.93834
2.6229
3.25772
3.83668
4.31011
4.6709
5.02842
5.52209
6.25443
7.22117
8.29717
9.34163
10.2632
10.9934
11.5044
11.792
11.8756
11.8019
11.625
11.3801
11.096
10.809
10.5308
10.2399
9.88289
9.39338
8.71526
7.82331
6.77876
6.07968
6.0451
6.1603
6.3916
6.84528
7.52248
8.30225
9.04206
9.47621
9.61098
9.72923
10.0143
10.5664
11.3144
12.1324
12.849
13.2945
13.422
13.2176
12.7357
12.1534
11.3831
10.2622
8.96007
7.62766
6.31038
4.8446
3.15515
2.67343
3.42884
93.3214
93.7396
92.1108
86.6391
76.4902
69.629
65.7984
63.5046
62.6363
62.3903
63.221
65.0089
67.5188
68.6732
63.9455
55.6391
47.1501
42.4722
39.0985
32.7394
22.8272
12.9393
4.27411
-1.8154
-6.26168
-8.02654
-6.74834
-4.13584
-1.6377
0.184171
1.34873
1.99393
2.20487
2.04929
1.61224
1.00826
0.401672
-0.000805371
-0.0461523
0.283503
0.857643
1.49687
2.10954
2.69846
3.25406
3.73374
4.13494
4.55095
5.09683
5.85463
6.8154
7.87017
8.89576
9.8064
10.5375
11.0611
11.371
11.4838
11.4441
11.3002
11.0791
10.8103
10.5351
10.2669
9.98224
9.62403
9.12496
8.43523
7.527
6.46938
5.85378
5.89511
6.03657
6.21786
6.60156
7.20839
7.93411
8.65117
9.07267
9.12689
9.14449
9.34765
9.85512
10.6022
11.4643
12.2651
12.8161
13.0456
12.9287
12.5172
12.0241
11.2298
10.1081
8.86169
7.57687
6.28911
4.85091
3.2003
2.71121
3.33917
92.7554
93.2774
91.5908
85.9576
75.7307
69.0926
65.4939
63.3848
62.617
62.4107
63.2529
64.9517
67.4475
68.4318
63.8779
55.6949
47.1703
42.6138
39.4765
33.2822
23.3855
13.4042
4.60129
-1.46554
-5.9829
-7.3103
-5.86635
-3.29946
-0.912298
0.790291
1.84485
2.39011
2.5082
2.26472
1.73959
1.05547
0.388676
-0.0647785
-0.176635
0.056234
0.516481
1.05498
1.59655
2.14045
2.67375
3.1593
3.59682
4.06492
4.65779
5.44013
6.3991
7.43902
8.45125
9.35514
10.0897
10.6274
10.9601
11.1023
11.0964
10.9834
10.7829
10.528
10.2655
10.0094
9.73157
9.37166
8.86797
8.17269
7.25887
6.21592
5.72033
5.7928
5.95453
6.08827
6.40779
6.93647
7.59296
8.27679
8.70585
8.72496
8.6652
8.79437
9.24838
9.98232
10.8751
11.7455
12.3876
12.7038
12.6629
12.3049
11.8746
11.0282
9.91365
8.72029
7.47242
6.20972
4.80152
3.19225
2.68576
3.1981
92.1861
92.8124
91.0646
85.2588
74.9663
68.5827
65.2359
63.3213
62.6497
62.4847
63.3437
64.9502
67.342
68.1621
63.8035
55.7625
47.2145
42.7588
39.8513
33.8338
23.9918
13.9313
5.02135
-1.16963
-5.61654
-6.52039
-4.88882
-2.3703
-0.105581
1.46238
2.39274
2.82932
2.84817
2.5106
1.9005
1.14626
0.420905
-0.0956242
-0.292095
-0.168981
0.173686
0.612377
1.08384
1.58338
2.09509
2.58579
3.05579
3.57037
4.20582
5.01205
5.97292
7.00369
8.00762
8.90873
9.6494
10.2027
10.559
10.731
10.7583
10.6743
10.4918
10.2492
9.99865
9.75335
9.48395
9.12815
8.62616
7.92984
7.02169
6.01455
5.63133
5.71295
5.88201
5.98465
6.25021
6.70439
7.28207
7.92078
8.36503
8.40544
8.30616
8.37895
8.76968
9.47072
10.3729
11.2906
12.0022
12.3847
12.4074
12.0909
11.6761
10.7804
9.68406
8.53767
7.31918
6.07959
4.7046
3.13977
2.60878
3.01668
91.6182
92.3449
90.5324
84.544
74.2005
68.1066
65.033
63.3126
62.7165
62.5882
63.4666
64.9784
67.2207
67.8987
63.7279
55.8467
47.2871
42.9082
40.221
34.3897
24.6569
14.548
5.54076
-0.944958
-5.0189
-5.57057
-3.80466
-1.35228
0.779293
2.20145
2.99929
3.32097
3.23601
2.80401
2.10985
1.2809
0.485415
-0.109405
-0.403783
-0.397022
-0.172091
0.168661
0.571065
1.02678
1.51728
2.01214
2.51104
3.06722
3.74153
4.57125
5.53737
6.56404
7.56436
8.46652
9.21595
9.78638
10.1672
10.3693
10.4291
10.3725
10.2061
9.97431
9.73399
9.49833
9.2411
8.89648
8.4005
7.70735
6.81582
5.85131
5.52761
5.64298
5.80932
5.89581
6.11692
6.50678
7.00354
7.58661
8.04051
8.14242
8.05018
8.09487
8.42348
9.07207
9.95798
10.8956
11.65
12.076
12.1521
11.8803
11.4225
10.4902
9.42289
8.3167
7.12263
5.90606
4.56795
3.05142
2.49151
2.80432
91.0509
91.8741
89.9935
83.8139
73.4371
67.6716
64.8867
63.3404
62.7971
62.7137
63.6021
65.007
67.089
67.6427
63.6574
55.951
47.3918
43.0642
40.5837
34.9479
25.3818
15.2442
6.19699
-0.60775
-4.16694
-4.44308
-2.61066
-0.242722
1.74574
3.01652
3.67836
3.88109
3.68822
3.15515
2.3656
1.44845
0.568876
-0.116941
-0.517855
-0.630218
-0.521553
-0.276585
0.057785
0.470057
0.939449
1.43727
1.96175
2.55527
3.26536
4.11838
5.09277
6.11991
7.12098
8.02787
8.78868
9.3779
9.78421
10.0166
10.1079
10.0767
9.92537
9.70433
9.47477
9.24941
9.0079
8.67858
8.19007
7.50487
6.63967
5.72034
5.41772
5.5804
5.73763
5.81595
6.00008
6.33648
6.75726
7.27653
7.7254
7.89877
7.85302
7.89918
8.18389
8.77244
9.61999
10.5504
11.3191
11.7641
11.8798
11.664
11.1286
10.1677
9.13336
8.06106
6.88886
5.69651
4.39919
2.93564
2.34477
2.56926
90.4695
91.3995
89.4466
83.0684
72.6803
67.2816
64.7947
63.3844
62.8861
62.8373
63.7094
65.0278
66.9542
67.3994
63.5981
56.0786
47.5316
43.2289
40.9375
35.509
26.1553
16.0011
6.88723
-0.0535035
-3.07622
-3.15031
-1.30583
0.960909
2.79924
3.91782
4.44254
4.52097
4.20922
3.55918
2.65794
1.63857
0.662673
-0.123974
-0.637084
-0.869476
-0.875067
-0.723784
-0.456533
-0.0874687
0.360644
0.860101
1.40708
2.03427
2.77757
3.6539
4.63934
5.6711
6.67702
7.59217
8.36694
8.97653
9.40922
9.67181
9.79305
9.78569
9.65012
9.44252
9.22636
9.01305
8.78638
8.47267
7.99338
7.32144
6.49159
5.6252
5.34053
5.52769
5.67244
5.74257
5.89474
6.18611
6.5406
6.99273
7.41782
7.64769
7.67001
7.7409
8.00663
8.54236
9.3394
10.2412
10.9974
11.4383
11.5729
11.409
10.7982
9.81975
8.81772
7.77475
6.62422
5.4582
4.20566
2.80058
2.17938
2.31911
89.892
90.9207
88.8894
82.3075
71.9337
66.9389
64.7484
63.4234
62.9711
62.9353
63.7908
65.046
66.8218
67.1733
63.5547
56.2326
47.708
43.404
41.2814
36.0731
26.9803
16.869
7.62529
0.787174
-1.79817
-1.71067
0.108024
2.26027
3.94662