/*--------------------------------*- C++ -*----------------------------------*\
| =========                 |                                                 |
| \\      /  F ield         | OpenFOAM: The Open Source CFD Toolbox           |
|  \\    /   O peration     | Version:  4.1                                   |
|   \\  /    A nd           | Web:      www.OpenFOAM.org                      |
|    \\/     M anipulation  |                                                 |
\*---------------------------------------------------------------------------*/
FoamFile
{
    version     2.0;
    format      ascii;
    class       surfaceScalarField;
    location    "1400";
    object      phi;
}
// * * * * * * * * * * * * * * * * * * * * * * * * * * * * * * * * * * * * * //

dimensions      [0 3 -1 0 0 0 0];

internalField   nonuniform List<scalar> 
52920
(
1061.86
-154.794
1219.63
-157.765
1404.3
-184.678
1624.69
-220.394
1866.34
-241.649
2111.57
-245.23
2349.72
-238.151
2574.96
-225.239
2786.61
-211.657
2987.58
-200.963
3184.4
-196.824
3387.36
-202.963
3609.02
-221.657
3857.94
-248.922
4131.52
-273.588
4419.38
-287.858
4712.08
-292.704
5006.5
-294.418
5303.74
-297.243
5602.54
-298.798
5895.32
-292.781
6167.49
-272.173
6395.82
-228.33
6552.02
-156.195
6616.49
-64.4718
6581.31
35.1763
6455.54
125.772
6269.38
186.156
6054.1
215.279
5830.6
223.497
5610.32
220.278
5398.83
211.494
5198.75
200.081
5011.52
187.228
4838.22
173.301
4679.81
158.406
4537.07
142.736
4410.29
126.782
4298.82
111.467
4200.68
98.1389
4112.35
88.3314
4029.1
83.2458
3945.94
83.167
3858.72
87.2092
3765
93.7214
3663.54
101.465
3552.35
111.188
3425.63
126.721
3273.28
152.344
3082.95
190.334
2845.94
237.004
2564.16
281.783
2238.14
326.016
1858.41
379.726
1414.62
443.792
826.675
587.947
38.7271
787.946
-729.847
768.574
-1224.86
495.016
-1542.11
317.246
-1770.07
227.956
-1949.89
179.823
-2099.73
149.842
-2226.92
127.189
-2333.57
106.645
-2419.81
86.243
-2485.83
66.0188
-2532.58
46.7489
-2561.37
28.7879
-2572.9
11.5324
-2567.06
-5.83658
-2543.49
-23.5747
-2501.74
-41.7453
-2442.15
-59.5906
-2367.1
-75.0507
-2280.95
-86.1491
-2189.08
-91.8722
-2096.35
-92.7326
-2005.12
-91.2323
-1913.35
-91.7672
-1813.58
-99.7679
-1693.77
-119.813
-1540.42
-153.345
-1342.27
-198.154
-1089.1
-253.166
-771.124
-317.98
-371.811
-399.313
148.679
-520.491
812.231
-663.552
1618.21
-805.981
2571.45
-953.233
3680.65
-1109.2
4945.95
-1265.3
6350.34
-1404.39
7856.82
-1506.48
9410.17
-1553.35
10959.1
-1548.94
12401.9
-1442.79
13901.6
-1499.69
-1194.83
1135.89
-321.98
1307.83
-329.71
1507.91
-384.757
1744.08
-456.569
2001.37
-498.937
2261.52
-505.381
2513.42
-490.053
2751.13
-462.955
2973.89
-434.41
3184.46
-411.54
3389.26
-401.625
3598.23
-411.934
3823.26
-446.686
4072.05
-497.712
4341.48
-543.018
4621.18
-567.562
4902.08
-573.607
5181.41
-573.748
5460.52
-576.351
5738.57
-576.851
6009.56
-563.775
6262.89
-525.497
6481.21
-446.649
6638.3
-313.289
6706.37
-132.548
6667.64
73.9145
6529.31
264.098
6325.34
390.124
6091.38
449.243
5851.34
463.534
5618.27
453.346
5398.38
431.379
5194.36
404.099
5007.27
374.321
4837.39
343.181
4684.5
311.296
4547.85
279.381
4426.08
248.559
4317.05
220.49
4217.85
197.339
4124.73
181.449
4033.42
174.555
3939.76
176.825
3840.6
186.371
3734.39
199.928
3620.75
215.112
3498.31
233.625
3361.55
263.476
3200.4
313.491
3001.97
388.77
2756.84
482.132
2466.7
571.922
2130.69
662.027
1744.48
765.937
1301.63
886.637
677.854
1211.72
-115.883
1581.68
-751.208
1403.9
-1148.09
891.895
-1415.05
584.207
-1606.27
419.179
-1753.64
327.194
-1872.43
268.625
-1969.31
224.067
-2047.05
184.388
-2107.1
146.294
-2150.69
109.61
-2178.97
75.0282
-2192.82
42.637
-2192.62
11.3361
-2177.68
-20.7776
-2145.93
-55.3326
-2095.77
-91.9024
-2027.34
-128.021
-1942.69
-159.703
-1845.97
-182.865
-1742.49
-195.353
-1637.04
-198.178
-1531.88
-196.393
-1424.85
-198.797
-1308.13
-216.497
-1168.2
-259.74
-987.782
-333.761
-749.354
-436.582
-434.347
-568.173
-11.2035
-741.123
533.191
-943.707
1166.39
-1153.69
1872.3
-1369.46
2665.25
-1598.93
3562.02
-1850.01
4572.24
-2119.42
5694.82
-2387.89
6913.65
-2623.22
8194.72
-2787.55
9484.21
-2842.83
10729.8
-2794.56
11836
-2548.95
12878.6
-2542.26
-2019.49
1197.59
-498.034
1377.89
-510.011
1585.32
-592.188
1828.18
-699.429
2091.61
-762.372
2356.9
-770.669
2612.35
-745.498
2851.71
-702.321
3074.01
-656.709
3281.81
-619.34
3481.22
-601.041
3681.81
-612.521
3895.05
-659.934
4128.5
-731.161
4379.19
-793.704
4637.11
-825.487
4893.58
-830.08
5146.18
-826.344
5396.73
-826.898
5645.26
-825.385
5887.59
-806.103
6116.78
-754.688
6321.65
-651.521
6482.53
-474.171
6572.04
-222.054
6562.42
83.5319
6448.34
378.174
6259.6
578.864
6033.59
675.249
5797.53
699.598
5567.23
683.641
5350.7
647.911
5151.42
603.376
4970.43
555.31
4807.33
506.284
4660.74
457.882
4528.59
411.531
4408.31
368.836
4297.07
331.731
4191.87
302.536
4089.56
283.762
3986.82
277.294
3880.48
283.16
3768.2
298.656
3649.05
319.077
3523.23
340.934
3389.89
366.959
3243.75
409.612
3074.67
482.576
2868.7
594.743
2615.21
735.618
2315.97
871.161
1971.66
1006.34
1585.15
1152.44
1121.03
1350.75
444.458
1888.3
-262.585
2288.73
-719.895
1861.21
-1022.23
1194.23
-1238.68
800.654
-1400.2
580.692
-1527.93
454.926
-1633.43
374.127
-1722.44
313.073
-1797.34
259.293
-1858.42
207.369
-1904.76
155.953
-1935.61
105.88
-1951.45
58.4757
-1953.57
13.4565
-1942.09
-32.2603
-1915.09
-82.3331
-1870.07
-136.926
-1805.7
-192.39
-1722.94
-242.462
-1625.02
-280.78
-1516.76
-303.617
-1403.18
-311.757
-1287.72
-311.857
-1169.74
-316.771
-1041.34
-344.897
-885.626
-415.458
-680.168
-539.22
-403.865
-712.885
-39.3079
-932.731
409.25
-1189.68
918.336
-1452.79
1482.04
-1717.39
2107.59
-1995.02
2805.27
-2296.61
3585.11
-2629.84
4454.78
-2989.09
5415.87
-3348.97
6457.57
-3664.92
7551.59
-3881.58
8647.01
-3938.25
9685.97
-3833.52
10568.5
-3431.51
11310.9
-3284.66
-2558.46
1237.36
-675.818
1419.65
-692.308
1629.6
-802.139
1875.63
-945.457
2141.92
-1028.67
2408.46
-1037.21
2662.72
-999.758
2898.26
-937.868
3114.16
-872.612
3313.02
-818.198
3500.9
-788.921
3687.26
-798.882
3883.68
-856.358
4098.1
-945.578
4327.91
-1023.52
4563.37
-1060.94
4795.88
-1062.6
5023.24
-1053.7
5247.64
-1051.29
5469.59
-1047.34
5685.69
-1022.21
5890.95
-959.945
6078.41
-838.982
6234.67
-630.434
6336.59
-323.974
6352.47
67.6546
6266.42
464.22
6102.33
742.952
5896.34
881.24
5676.5
919.439
5459.91
900.225
5255.53
852.288
5067.27
791.641
4896.04
726.538
4740.96
661.363
4600
598.836
4470.49
541.042
4349.48
489.846
4234.08
447.129
4121.61
415.007
4009.52
395.847
3895.33
391.486
3776.7
401.788
3652.03
423.328
3521.06
450.048
3384.61
477.381
3242.43
509.135
3089.47
562.572
2915.11
656.935
2703.4
806.457
2442.18
996.832
2135.29
1178.05
1789.73
1351.9
1404.06
1538.11
890.566
1864.24
203.267
2575.6
-347.313
2839.3
-649.233
2163.13
-880.921
1425.92
-1063.99
983.725
-1211.59
728.294
-1334.69
578.025
-1440.7
480.135
-1533.34
405.713
-1613.09
339.044
-1678.02
272.296
-1725.9
203.836
-1756.88
136.853
-1774.02
75.6174
-1780.71
20.1508
-1776.9
-36.0708
-1758.92
-100.315
-1722.52
-173.326
-1665.15
-249.758
-1586.76
-320.854
-1489.74
-377.798
-1378.5
-414.86
-1258.43
-431.821
-1134.34
-435.949
-1007.11
-444.005
-868.678
-483.328
-699.737
-584.398
-477.441
-761.516
-183.125
-1007.2
185.111
-1300.97
609.476
-1614.05
1079.45
-1922.77
1594.3
-2232.24
2155.22
-2555.93
2767.8
-2909.19
3439.76
-3301.81
4179.17
-3728.5
4990.98
-4160.78
5870.68
-4544.62
6797.26
-4808.16
7725.75
-4866.75
8592.08
-4699.85
9286.61
-4126.04
9771.19
-3769.24
-2824.24
1260.83
-856.226
1445.1
-876.581
1656.88
-1013.91
1904.45
-1193.03
2170.85
-1295.06
2435.04
-1301.4
2684.16
-1248.88
2911.96
-1165.67
3117.83
-1078.49
3304.55
-1004.91
3478.19
-962.564
3648.25
-968.939
3826.63
-1034.75
4021.95
-1140.89
4231.97
-1233.54
4446.92
-1275.9
4658.12
-1273.8
4863.41
-1259
5065.33
-1253.22
5264.71
-1246.72
5458.45
-1215.95
5642.53
-1144.02
5812.71
-1009.16
5960.33
-778.059
6066.78
-430.42
6099.67
34.7652
6035.72
528.165
5894.42
884.253
5710.07
1065.59
5510.07
1119.44
5311.33
1098.96
5122.71
1040.91
4947.96
966.398
4787.74
886.756
4640.89
808.21
4505.17
734.553
4377.81
668.403
4255.92
611.737
4136.79
566.263
4017.98
533.811
3897.31
516.513
3772.77
516.032
3642.65
531.905
3506.16
559.818
3363.93
592.276
3217.76
623.546
3068.41
658.486
2911.09
719.889
2733.94
834.092
2518.14
1022.25
2250.59
1264.39
1940.04
1488.6
1600.75
1691.19
1204.68
1934.18
629.702
2439.23
-0.698876
3206
-366.3
3204.9
-563.227
2360.06
-750.383
1613.08
-915.134
1148.48
-1057.6
870.762
-1181.36
701.786
-1290.47
589.239
-1386.75
501.991
-1469.13
421.43
-1534.77
337.933
-1582.14
251.211
-1613.86
168.567
-1635.34
97.0971
-1650.17
34.9834
-1656.66
-29.586
-1649.16
-107.817
-1622.01
-200.472
-1571.75
-300.022
-1497.64
-394.963
-1401.59
-473.846
-1287.88
-528.574
-1162.41
-557.286
-1031.35
-567.012
-897.14
-578.216
-752.143
-628.326
-576.318
-760.223
-346.04
-991.794
-50.8652
-1302.38
299.1
-1650.93
690.557
-2005.5
1118.92
-2351.13
1581.36
-2694.68
2077.75
-3052.32
2611.92
-3443.37
3189.47
-3879.36
3816.79
-4355.82
4499
-4843
5235.19
-5280.81
6010.59
-5583.55
6789.1
-5645.26
7501.88
-5412.62
8024.4
-4648.57
8251.47
-3996.31
-2804.64
1278.47
-1036.68
1461.55
-1059.67
1671.67
-1224.03
1917.27
-1438.63
2180.46
-1558.26
2439.33
-1560.27
2680.71
-1490.26
2898.56
-1383.52
3092.66
-1272.58
3265.95
-1178.21
3424.56
-1121.18
3578.07
-1122.44
3738.87
-1195.55
3916.35
-1318.38
4108.56
-1425.75
4305.44
-1472.78
4497.96
-1466.32
4684.04
-1445.07
4866.59
-1435.77
5046.7
-1426.83
5221.29
-1390.54
5386.73
-1309.45
5540.57
-1163.01
5677.95
-915.439
5784.71
-537.175
5829.24
-9.76724
5782.31
575.087
5660.26
1006.31
5495.9
1229.96
5315.52
1299.81
5135.12
1279.36
4962.83
1213.2
4801.88
1127.35
4652.63
1036
4513.76
947.076
4383.04
865.28
4257.81
793.633
4135.4
734.14
4013.34
688.32
3889.4
657.758
3761.5
644.408
3627.82
649.709
3487.1
672.625
3339.32
707.602
3186.19
745.399
3031.02
778.719
2876.06
813.447
2716.58
879.366
2538.86
1011.81
2321.17
1239.94
2049.79
1535.76
1740.83
1797.57
1409.36
2022.66
981.828
2361.71
370.854
3050.2
-139.556
3716.41
-344.705
3410.05
-482.75
2498.1
-642.739
1773.06
-796.022
1301.76
-934.85
1009.59
-1058.52
825.451
-1168.8
699.521
-1266.31
599.507
-1349.33
504.449
-1415.07
403.667
-1463.31
299.455
-1498.83
204.087
-1528.15
126.408
-1553.64
60.4806
-1571.61
-11.6213
-1574.62
-104.804
-1555.92
-219.178
-1511.39
-344.543
-1440.1
-466.256
-1343.88
-570.065
-1227.25
-645.203
-1096.9
-687.634
-960.517
-703.399
-822.392
-716.342
-676.058
-774.66
-501.709
-934.573
-276.592
-1216.91
5.09242
-1584.06
330.043
-1975.88
686.911
-2362.37
1071.9
-2736.12
1482.83
-3105.6
1921.07
-3490.57
2390.6
-3912.9
2894.7
-4383.46
3435.5
-4896.62
4013.83
-5421.32
4627.58
-5894.56
5265.13
-6221.1
5901.86
-6281.99
6468.4
-5979.16
6821.98
-5002.15
6750.52
-3924.85
-2450.57
1287.61
-1214.54
1466.97
-1239.04
1672.87
-1429.93
1914.69
-1680.45
2173.44
-1817.01
2425.88
-1812.71
2658.39
-1722.77
2865.27
-1590.4
3046.82
-1454.14
3206.26
-1337.64
3349.75
-1264.68
3486.99
-1259.68
3630.96
-1339.51
3791.94
-1479.36
3968.11
-1601.92
4148.92
-1653.59
4324.86
-1642.26
4493.93
-1614.14
4659.59
-1601.43
4823.2
-1590.45
4981.55
-1548.89
5130.93
-1458.83
5269.91
-1302
5396.51
-1042.04
5500.71
-641.375
5552.8
-61.864
5518.82
609.067
5412.77
1112.36
5266.16
1376.56
5103.99
1461.98
4940.97
1442.38
4784.21
1369.95
4636.33
1275.23
4497.35
1174.99
4365.87
1078.55
4239.76
991.384
4116.62
916.777
3994.03
856.73
3869.73
812.617
3741.58
785.909
3607.48
778.51
3465.59
791.595
3314.95
823.266
3156.28
866.269
2992.65
909.027
2829.35
942.02
2670.45
972.347
2511.16
1038.66
2335.6
1187.36
2118.35
1457.19
1845.85
1808.26
1543.62
2099.8
1211.52
2354.76
732.584
2840.64
138.291
3644.49
-214.042
4068.74
-310.687
3506.7
-417.939
2605.35
-558.554
1913.68
-701.401
1444.61
-835.029
1143.22
-956.376
946.798
-1065.69
808.83
-1162.93
696.749
-1246.28
587.8
-1313.36
470.752
-1365.14
351.233
-1407.85
246.798
-1448.02
166.576
-1485.86
98.3254
-1515.39
17.9061
-1527.77
-92.4294
-1515.66
-231.284
-1474.73
-385.474
-1404.34
-536.646
-1306.71
-667.693
-1186.93
-764.991
-1052.67
-821.892
-913.34
-842.728
-775.304
-854.377
-633.35
-916.614
-467.824
-1100.1
-257.358
-1427.38
1.85245
-1843.27
297.211
-2271.24
617.441
-2682.6
958.913
-3077.6
1322.31
-3469
1712.05
-3880.3
2132.55
-4333.39
2583.77
-4834.68
3061.37
-5374.22
3558.42
-5918.36
4067.18
-6403.32
4573.63
-6727.55
5063.28
-6771.64
5470.05
-6385.93
5626.53
-5158.63
5144.11
-3442.43
-1643.44
1289.08
-1387.07
1462.04
-1412
1662.34
-1630.23
1900.06
-1918.18
2154.03
-2070.98
2399.23
-2057.91
2621.88
-1945.43
2816.92
-1785.44
2985.37
-1622.59
3130.72
-1482.99
3259.15
-1393.11
3380.42
-1380.96
3508.16
-1467.25
3653.64
-1624.84
3815.11
-1763.4
3981.38
-1819.86
4142.34
-1803.22
4296.13
-1767.94
4446.93
-1752.22
4596.43
-1739.95
4741.15
-1693.61
4877.08
-1594.75
5003.23
-1428.15
5119.64
-1158.45
5219.76
-741.502
5276.35
-118.458
5251.86
633.558
5158.9
1205.32
5027.83
1507.63
4882.14
1607.66
4735.03
1589.49
4592.52
1512.46
4456.54
1411.21
4326.85
1304.67
4202.08
1203.33
4080.26
1113.2
3959.25
1037.79
3836.86
979.124
3710.91
938.56
3579.2
917.62
3439.44
918.268
3289.73
941.307
3129.37
983.623
2959.97
1035.67
2786.27
1082.72
2615.91
1112.37
2455.01
1133.24
2298.73
1194.94
2128
1358.1
1913.38
1671.81
1645.59
2076.04
1354.44
2390.95
999.861
2709.34
465.487
3375.01
-50.344
4160.32
-243.132
4261.53
-281.366
3544.93
-369.844
2693.83
-493.339
2037.17
-624.806
1576.07
-751.408
1269.82
-868.603
1063.99
-975.594
915.82
-1072.1
793.258
-1156.52
672.22
-1226.96
541.186
-1285.19
409.459
-1338.11
299.718
-1391.23
219.695
-1441.97
149.069
-1481.94
57.8789
-1501.64
-72.7304
-1493.64
-239.288
-1453.96
-425.153
-1382.87
-607.731
-1283.28
-767.287
-1160.92
-887.352
-1024.5
-958.307
-885.25
-981.982
-751.649
-987.978
-619.46
-1048.8
-468.84
-1250.72
-279.675
-1616.54
-48.2697
-2074.68
215.081
-2534.59
498.905
-2966.43
800.588
-3379.28
1124.37
-3792.79
1476.68
-4232.61
1860.43
-4717.14
2270.78
-5245.03
2696.22
-5799.66
3121.45
-6343.6
3529.54
-6811.41
3894.02
-7092.03
4195.88
-7073.5
4357.64
-6547.7
4166.95
-4967.93
3033.72
-2309.2
-108.281
1282.36
-1551.56
1447.61
-1577.25
1642.43
-1825.05
1876.21
-2151.96
2124.82
-2319.59
2361.75
-2294.84
2573.54
-2157.21
2756.05
-1967.95
2911.07
-1777.61
3042.27
-1614.19
3155.78
-1506.62
3261.32
-1486.51
3373.19
-1579.11
3503.82
-1755.47
3651.57
-1911.14
3804.49
-1972.78
3951.81
-1950.54
4091.88
-1908.02
4229.69
-1890.03
4367.3
-1877.56
4500.8
-1827.12
4625.65
-1719.6
4741
-1543.5
4848.33
-1265.78
4943.87
-837.039
5002.86
-177.452
4985.03
651.392
4902.57
1287.78
4784.94
1625.26
4653.96
1738.65
4521.18
1722.26
4391.49
1642.16
4266.2
1536.49
4144.92
1425.96
4026.33
1321.92
3908.7
1230.82
3790.06
1156.42
3668.32
1100.87
3541.19
1065.68
3406.2
1052.61
3260.79
1063.68
3103.02
1099.08
2932.63
1154.02
2752.4
1215.9
2569.14
1265.99
2392.95
1288.56
2232.23
1293.96
2081.76
1345.41
1918.81
1521.05
1714.09
1876.52
1464.83
2325.3
1178.82
2676.96
764.5
3123.66
202.614
3936.9
-181.975
4544.91
-250.901
4330.46
-262.687
3556.72
-335.518
2766.66
-442.457
2144.11
-561.652
1695.27
-679.895
1388.06
-791.694
1175.79
-895.648
1019.77
-991.505
889.114
-1078.05
758.766
-1153.85
616.985
-1221.07
476.679
-1286.35
364.997
-1353.27
286.613
-1416.25
212.055
-1464.84
106.468
-1489.57
-48.0046
-1483.13
-245.727
-1442.96
-465.318
-1370.58
-680.113
-1269.54
-868.327
-1146.06
-1010.84
-1009.73
-1094.64
-873.616
-1118.09
-748.224
-1113.37
-629.646
-1167.38
-497.278
-1383.09
-332.648
-1781.17
-131.828
-2275.5
98.7281
-2765.15
349.18
-3216.88
618.257
-3648.36
911.923
-4086.46
1235.28
-4555.97
1586.82
-5068.68
1955.94
-5614.15
2324.72
-6168.44
2670.02
-6688.89
2959.9
-7101.3
3135.49
-7267.62
3129.06
-7067.07
2792.28
-6210.92
1868.13
-4043.79
11.8814
-452.948
1752.8
1267.8
-1706.11
1425.61
-1735.07
1615.32
-2014.76
1844.79
-2381.43
2087.14
-2561.94
2314.76
-2522.46
2514.84
-2357.3
2684.29
-2137.4
2825.63
-1918.95
2942.67
-1731.23
3041.29
-1605.25
3131.14
-1576.36
3227.21
-1675.18
3343.35
-1871.61
3478.1
-2045.9
3618.74
-2113.42
3753.71
-2085.52
3881.59
-2035.89
4008.29
-2016.73
4136.24
-2005.51
4260.88
-1951.76
4376.91
-1835.63
4483.37
-1649.96
4582.82
-1365.23
4673.73
-927.953
4733.72
-237.435
4720.28
664.826
4646.1
1361.96
4539.98
1731.39
4422.01
1856.62
4302.07
1842.2
4183.89
1760.33
4068.3
1652.08
3954.77
1539.49
3842.12
1434.56
3728.78
1344.17
3612.84
1272.36
3492.09
1221.62
3363.96
1193.82
3225.51
1191.05
3073.92
1215.27
2907.33
1265.66
2726.25
1335.1
2535.14
1407.01
2342.89
1458.24
2162.06
1469.39
2003.58
1452.45
1862.4
1486.58
1715.9
1667.55
1539.81
2052.62
1320.32
2544.79
1004.24
2993.04
495.419
3632.48
-34.9536
4467.27
-261.335
4771.29
-254.644
4323.76
-254.265
3556.34
-311.856
2824.25
-402.891
2235.15
-509.342
1801.72
-618.255
1496.97
-723.777
1281.31
-824.313
1120.31
-919.79
984.592
-1009.45
848.42
-1092.23
699.766
-1170.22
554.67
-1248.85
443.627
-1329.13
366.895
-1402.82
285.747
-1457.98
161.628
-1485.4
-20.5917
-1478.65
-252.476
-1437.48
-506.484
-1364.42
-753.175
-1263.32
-969.433
-1140.51
-1133.64
-1006.42
-1228.72
-876.057
-1248.46
-761.733
-1227.69
-659.012
-1270.1
-545.743
-1496.36
-404.418
-1922.5
-232.62
-2447.29
-34.1068
-2963.66
187.146
-3438.13
431.408
-3892.62
701.895
-4356.94
998.858
-4852.93
1314.63
-5384.45
1632.73
-5932.24
1929.06
-6464.78
2170.38
-6930.21
2297.42
-7228.33
2186.89
-7157.09
1658.89
-6539.07
498.549
-5050.58
-1275.64
-2269.59
-2686.11
957.522
2313.34
1246.75
-1853.38
1397.89
-1886.2
1582.09
-2198.96
1806.59
-2605.93
2041.77
-2797.12
2259.1
-2739.8
2446.67
-2544.86
2602.55
-2293.28
2729.99
-2046.39
2832.8
-1834.03
2916.51
-1688.96
2990.57
-1650.41
3070.77
-1755.39
3172.73
-1973.57
3295.32
-2168.49
3424.89
-2242.99
3548.93
-2209.56
3666.17
-2153.14
3783.62
-2134.18
3904.03
-2125.93
4021.99
-2069.72
4131.21
-1944.86
4230.47
-1749.22
4323.17
-1457.93
4409.66
-1014.45
4469.64
-297.41
4458.77
675.694
4390.98
1429.75
4294.69
1827.68
4188.27
1963.04
4079.87
1950.6
3972.16
1868.04
3865.53
1758.72
3759.37
1645.64
3652.59
1541.35
3543.66
1453.09
3430.61
1385.41
3310.92
1341.31
3181.49
1323.24
3038.92
1333.62
2880.14
1374.05
2703.68
1442.13
2511.31
1527.47
2309.44
1608.87
2108.7
1658.98
1924.17
1653.91
1770.81
1605.8
1647.84
1609.55
1537.91
1777.48
1409.48
2181.05
1196.44
2757.83
785.012
3404.47
199.091
4218.4
-222.11
4888.47
-306.35
4855.53
-262.416
4279.83
-253.964
3547.89
-296.964
2867.25
-373.052
2311.24
-466.519
1895.18
-565.298
1595.75
-663.809
1379.82
-760.648
1217.15
-856.001
1079.95
-949.472
941.89
-1040.2
790.499
-1129.73
644.196
-1221.58
535.475
-1313.99
459.306
-1396.55
368.308
-1456.25
221.322
-1484.39
7.55469
-1476.68
-260.188
-1435.29
-547.876
-1362.97
-825.488
-1263.43
-1068.97
-1142.95
-1254.13
-1012.87
-1358.8
-890.272
-1371.06
-788.917
-1329.05
-702.721
-1356.3
-607.078
-1592
-485.463
-2044.11
-338.116
-2594.64
-167.263
-3134.52
29.5003
-3634.89
253.364
-4116.48
501.988
-4605.57
769.071
-5120.02
1040.86
-5656.24
1294.72
-6186.11
1498.24
-6668.3
1601.29
-7033.26
1501.1
-7128.14
993.064
-6649.06
-145.02
-5400.98
-1744.77
-3450.83
-3103.87
-910.492
-3701.49
1555.14
2708.34
1221.83
-1992.63
1365.04
-2029.42
1543.15
-2377.07
1762.16
-2824.94
1989.24
-3024.2
2195.3
-2945.85
2369.7
-2719.27
2511.73
-2435.32
2625.24
-2159.9
2713.85
-1922.65
2782.65
-1757.77
2840.8
-1708.56
2905.07
-1819.66
2993.25
-2061.76
3104.72
-2279.96
3224.72
-2362.99
3339.41
-2324.24
3447.61
-2261.34
3557.53
-2244.1
3672.28
-2240.68
3785.35
-2182.79
3889.33
-2048.84
3982.63
-1842.52
4069.47
-1544.78
4151.78
-1096.76
4210.98
-356.607
4201.2
685.476
4138.3
1492.65
4050.51
1915.46
3954.45
2059.09
3856.58
2048.48
3758.56
1966.05
3660.37
1856.91
3561.33
1744.68
3460.35
1642.33
3355.84
1557.6
3245.57
1495.68
3126.53
1460.35
2995.04
1454.73
2847.21
1481.45
2679.95
1541.31
2492.56
1629.51
2288.65
1731.38
2076.29
1821.23
1867.23
1868.04
1680.68
1840.46
1540.26
1746.22
1454.79
1695.02
1402.41
1829.85
1303.84
2279.61
1019.51
3042.16
470.936
3953.04
-98.8199
4788.15
-349.922
5139.57
-335.923
4841.53
-276.105
4220.01
-260.149
3531.93
-289.956
2897.06
-352.104
2373.38
-432.446
1975.53
-520.4
1683.71
-611.218
1470.64
-703.988
1309.92
-799.204
1175.16
-896.787
1039.47
-995.86
889.573
-1096.88
745.212
-1201
639.597
-1303.85
562.155
-1393.31
457.774
-1455.7
283.709
-1483.62
35.4745
-1475.65
-268.163
-1435.56
-587.966
-1365.54
-895.509
-1268.94
-1165.57
-1152.09
-1370.98
-1027.47
-1483.43
-914.176
-1484.35
-826.831
-1416.39
-756.575
-1426.56
-676.048
-1672.53
-569.807
-2150.35
-439.698
-2724.75
-288.845
-3285.37
-113.262
-3810.48
89.3685
-4319.11
312.198
-4828.4
542.67
-5350.49
761.563
-5875.13
938.904
-6363.45
1029.98
-6759.37
960.578
-6963.86
585.089
-6752.65
-297.433
-5766.54
-1657.52
-4040.9
-3011.67
-2096.68
-3919.57
-2.5911
-4328.69
1964.26
3003
1191.92
-2122.71
1326.98
-2164.47
1499.11
-2549.2
1711.98
-3037.81
1929.95
-3242.18
2124.08
-3139.99
2285.17
-2880.36
2413.5
-2563.65
2513.29
-2259.68
2587.88
-1997.24
2641.81
-1811.69
2683.9
-1750.65
2732.18
-1867.94
2807.21
-2136.79
2908.96
-2381.71
3021.18
-2475.21
3128.24
-2431.31
3228.95
-2362.05
3332.84
-2347.99
3443.39
-2351.23
3552.82
-2292.21
3652.49
-2148.51
3740.53
-1930.56
3822.02
-1626.26
3900.22
-1174.97
3957.92
-414.299
3948.01
695.381
3888.9
1551.76
3808.66
1995.69
3722.12
2145.64
3634.02
2136.57
3545.11
2054.96
3454.96
1947.06
3362.78
1836.87
3267.4
1737.71
3167.02
1657.97
3059.01
1603.7
2939.75
1579.6
2804.98
1589.51
2650.46
1635.96
2473.36
1718.4
2274.39
1828.48
2059.14
1946.63
1836.36
2044.02
1619.68
2084.72
1436.89
2023.25
1326.1
1857
1298.98
1722.14
1288.16
1840.68
1132.08
2435.69
689.253
3484.99
73.5946
4568.7
-347.519
5209.27
-429.867
5221.92
-361.841
4773.5
-295.122
4153.29
-272.045
3508.85
-290.374
2915.39
-339.484
2422.49
-406.671
2042.71
-483.244
1760.28
-565.715
1553.11
-653.838
1398.04
-748.455
1269.78
-849.895
1140.91
-957.143
996.821
-1069.05
857.119
-1184.04
754.585
-1295.44
673.556
-1389.95
552.283
-1453.81
347.569
-1481.75
63.4175
-1475.26
-274.65
-1438.02
-625.207
-1371.46
-962.071
-1278.83
-1258.2
-1166.72
-1483.09
-1048.84
-1601.31
-946.079
-1587.11
-873.11
-1489.36
-817.376
-1482.29
-748.956
-1740.95
-653.95
-2245.36
-535.711
-2842.99
-398.04
-3423.04
-239.712
-3968.81
-61.198
-4497.63
129.498
-5019.09
316.557
-5537.55
475.132
-6033.71
566.339
-6454.66
530.56
-6723.59
272.002
-6705.31
-347.991
-6132.65
-1392.46
-4722.06
-2630.84
-2802.52
-3691.3
-1036.22
-4384.03
690.142
-4747.22
2327.45
3280.95
1157.3
-2242.67
1284.53
-2291.7
1450.46
-2715.13
1656.28
-3243.63
1864.61
-3450.51
2046.94
-3322.32
2195.21
-3028.63
2310.4
-2678.85
2396.95
-2346.23
2457.81
-2058.1
2496.94
-1850.83
2522.92
-1776.63
2555.33
-1900.35
2618.17
-2199.63
2712.05
-2475.59
2818.62
-2581.77
2919.8
-2532.5
3014.27
-2456.52
3113.13
-2446.85
3220.29
-2458.39
3326.55
-2398.47
3422.12
-2244.08
3505
-2013.44
3581.22
-1702.49
3655.18
-1248.93
3710.57
-469.688
3699.52
706.429
3643.46
1607.82
3570.2
2068.96
3492.59
2223.25
3413.73
2215.43
3333.44
2135.25
3250.92
2029.58
3165.22
1922.56
3074.99
1827.93
2978.11
1754.85
2871.42
1710.39
2750.68
1700.34
2611.09
1729.09
2448.36
1798.69
2260.39
1906.37
2049.81
2039.06
1823.53
2172.91
1590.59
2276.95
1370.18
2305.13
1203.87
2189.56
1140.46
1920.41
1158.19
1704.41
1093.92
1904.94
759.309
2770.3
187.456
4056.84
-320.095
5076.25
-518.723
5407.89
-481.911
5185.11
-388.997
4680.59
-318.583
4082.88
-289.323
3479.59
-297.785
2923.85
-334.692
2459.4
-388.889
2096.91
-453.74
1825.13
-527.205
1626.58
-609.801
1480.64
-702.874
1362.85
-807.314
1245.35
-921.988
1111.5
-1043.87
979.003
-1168.26
878.969
-1286.38
791.674
-1384.52
650.429
-1449.74
412.784
-1478.94
92.6178
-1475.6
-277.992
-1442.18
-658.627
-1379.8
-1024.45
-1291.98
-1346.02
-1185.76
-1589.31
-1075.91
-1711.16
-984.752
-1678.27
-926.13
-1547.99
-883.206
-1525.21
-824.241
-1799.91
-737.615
-2331.99
-628.135
-2952.47
-500.383
-3550.79
-356.769
-4112.42
-202.824
-4651.57
-48.3269
-5173.59
90.2387
-5676.11
183.408
-6126.88
182.848
-6454.1
16.88
-6557.62
-410.88
-6277.55
-1188.28
-5355.25
-2248.83
-3661.51
-3311.77
-1739.59
-4157.02
-190.971
-4730.01
1263.14
-5089.74
2687.17
3560.51
1118.17
-2351.78
1238.28
-2411.81
1397.38
-2874.23
1595.63
-3441.88
1794.65
-3649.53
1966.08
-3493.74
2102.61
-3165.16
2205.67
-2781.91
2279.74
-2420.3
2327.39
-2105.75
2352
-1875.44
2361.93
-1786.56
2378.81
-1917.24
2430.82
-2251.64
2519.09
-2563.86
2622.29
-2684.98
2719.14
-2629.34
2808.05
-2545.43
2902.06
-2540.86
3005.67
-2562.01
3108.35
-2501.15
3199.29
-2335.03
3276.6
-2090.75
3347.29
-1773.18
3416.72
-1318.36
3468.96
-521.932
3455.91
719.475
3402.47
1661.26
3335.88
2135.54
3266.86
2292.27
3196.78
2285.5
3124.63
2207.41
3049.23
2104.97
2969.44
2002.36
2883.63
1913.74
2789.27
1849.2
2682.61
1817.05
2558.84
1824.11
2412.87
1875.07
2240.63
1970.93
2041.37
2105.63
1819.7
2260.72
1582.65
2409.96
1341.98
2517.62
1127.27
2519.85
989.158
2327.66
957.424
1952.14
921.5
1740.33
656.759
2169.68
145.566
3281.5
-353.354
4555.76
-613.012
5335.91
-622.568
5417.45
-521.4
5083.94
-418.538
4577.73
-345.932
4010.27
-311.692
3445.35
-311.645
2923.8
-337.221
2484.98
-378.888
2138.58
-431.939
1878.18
-495.689
1690.33
-571.527
1556.47
-661.606
1452.93
-767.608
1351.35
-888.474
1232.36
-1019.37
1109.9
-1152.06
1011.66
-1275.51
915.118
-1376.44
751.364
-1443.65
479.992
-1475.63
124.596
-1476.24
-277.376
-1446.89
-687.98
-1389.15
-1082.19
-1307.08
-1428.08
-1208.11
-1688.27
-1107.81
-1811.47
-1029.35
-1756.73
-984.924
-1592.41
-953.259
-1556.88
-901.917
-1851.25
-822.23
-2411.67
-720.442
-3054.26
-601.93
-3669.3
-472.208
-4242.14
-341.369
-4782.41
-222.677
-5292.28
-134.366
-5764.42
-108.79
-6152.45
-200.8
-6362.09
-488.904
-6269.52
-1061.89
-5704.56
-1943.01
-4474.14
-2956.41
-2648.11
-3835.81
-860.188
-4511.71
484.933
-5025.95
1777.38
-5391.69
3052.91
3829.55
1075.35
-2457.66
1188.72
-2525.18
1340.18
-3025.69
1531.15
-3632.85
1722.06
-3840.44
1884.18
-3655.86
2010.59
-3291.58
2102.93
-2874.24
2165.64
-2483.02
2200.85
-2140.96
2211.39
-1885.98
2205.52
-1780.69
2207.4
-1919.12
2250.22
-2294.46
2335.36
-2649
2437.42
-2787.04
2530.94
-2722.86
2614.09
-2628.59
2702.31
-2629.07
2801.18
-2660.88
2899.01
-2598.98
2984.26
-2420.27
3055.28
-2161.77
3120.07
-1837.97
3184.7
-1383
3232.94
-570.175
3217.17
735.253
3166.14
1712.28
3106.14
2195.55
3045.42
2352.98
2983.7
2347.23
2919.11
2271.99
2850.19
2173.9
2775.51
2077.03
2693.14
1996.1
2600.06
1942.29
2491.93
1925.18
2363.54
1952.5
2209.79
2028.82
2027.31
2153.41
1817.16
2315.78
1585
2492.88
1338.26
2656.7
1097.13
2758.75
896.83
2720.15
766.433
2458.06
665.672
2052.9
413.997
1992.01
-46.2749
2629.95
-497.911
3733.13
-752.756
4810.6
-786.213
5369.37
-684.953
5316.19
-556.45
4955.44
-450.397
4471.67
-376.825
3936.7
-338.725
3407.25
-331.31
2916.39
-346.514
2500.18
-376.333
2168.39
-417.628
1919.47
-470.945
1743.65
-538.701
1624.23
-624.009
1538.24
-729.554
1456.9
-854.865
1357.67
-993.709
1248.74
-1134.08
1152.04
-1262.18
1043.22
-1365.69
854.872
-1435.76
550.063
-1471.42
160.256
-1475.89
-272.913
-1450.34
-713.53
-1397.63
-1134.9
-1322.46
-1503.25
-1232.48
-1778.25
-1143.59
-1900.36
-1079.11
-1821.21
-1048.77
-1622.74
-1027.16
-1578.49
-982.501
-1895.91
-909.454
-2484.72
-815.412
-3148.3
-706.548
-3778.17
-591.134
-4357.56
-482.731
-4890.82
-397.509
-5377.5
-356.666
-5805.27
-397.132
-6111.99
-581.158
-6178.06
-991.982
-5858.7
-1692.2
-5004.35
-2617.52
-3548.81
-3526.34
-1739.29
-4234.18
-152.345
-4797.95
1048.7
-5281.29
2260.73
-5633.14
3404.75
4070.23
1031.14
-2555.5
1135.52
-2629.56
1279.52
-3169.69
1464.46
-3817.79
1649.09
-4025.07
1803.95
-3810.73
1922.19
-3409.82
2005.46
-2957.51
2058.13
-2535.69
2081.92
-2164.75
2079.12
-1883.18
2057.88
-1759.46
2045.44
-1906.68
2080.9
-2329.92
2165.42
-2733.53
2268.11
-2889.73
2358.42
-2813.17
2434.4
-2704.57
2514.66
-2709.34
2606.66
-2752.88
2697.92
-2690.24
2776.28
-2498.64
2840.33
-2225.83
2899
-1896.64
2958.82
-1442.82
3002.21
-613.565
2983.04
754.421
2934.38
1760.95
2880.95
2248.97
2828.3
2405.63
2774.42
2401.1
2716.76
2329.65
2653.51
2237.15
2582.99
2147.55
2502.88
2076.22
2409.64
2035.53
2298.51
2036.31
2164.11
2086.9
2001.68
2191.25
1809.07
2346.02
1588.95
2535.9
1346.83
2735
1094.9
2908.63
863.03
2990.62
662.046
2921.13
453.053
2667.05
144.629
2361.33
-283.969
2420.61
-684.986
3030.97
-926.339
3974.48
-974.34
4858.6
-876.401
5271.43
-726.745
5166.53
-590.382
4819.07
-484.361
4365.65
-410.906
3863.25
-369.848
3366.19
-356.056
2902.6
-361.884
2506.01
-380.557
2187.07
-410.127
1949.04
-452.436
1785.95
-511.036
1682.83
-589.806
1617.01
-692.459
1559.55
-819.795
1485.01
-965.132
1394.08
-1112.94
1299.84
-1245.88
1176.16
-1352.28
961.266
-1425.74
623.52
-1464.96
199.484
-1472.4
-265.474
-1450.15
-735.779
-1402.91
-1182.15
-1336
-1570.16
-1257.11
-1857.14
-1181.95
-1975.52
-1133.08
-1870.09
-1116.87
-1638.95
-1104.47
-1590.89
-1066.17
-1934.21
-999.934
-2550.95
-913.903
-3234.33
-815.099
-3876.97
-714.538
-4458.12
-629.112
-4976.24
-577.924
-5428.69
-585.358
-5797.83
-693.932
-6003.41
-972.824
-5899.17
-1498.05
-5333.47
-2282.1
-4220.3
-3183.63
-2647.28
-3963.3
-959.626
-4536.81
421.173
-5027.75
1539.63
-5468.91
2701.89
-5777.8
3713.65
4268.51
982.973
-2644.6
1079.22
-2725.81
1216.87
-3307.33
1397.27
-3998.19
1577.71
-4205.51
1727.51
-3960.53
1839.52
-3521.84
1915.39
-3033.38
1959.46
-2579.76
1973.08
-2178.37
1957.96
-1868.07
1922.07
-1723.56
1896.16
-1880.77
1926.14
-2359.91
2012.21
-2819.59
2116.43
-2993.95
2202.41
-2899.15
2268.48
-2770.64
2337.58
-2778.45
2420.18
-2835.48
2503.34
-2773.4
2574.05
-2569.34
2630.79
-2282.57
2683.38
-1949.23
2738.59
-1498.03
2776.29
-651.265
2753.13
777.578
2706.83
1807.25
2659.98
2295.82
2615.1
2450.51
2568.52
2447.68
2517.05
2381.12
2458.58
2295.62
2391.12
2215.01
2311.94
2155.4
2217.09
2130.38
2101.58
2151.82
1960.22
2228.26
1789.02
2362.45
1587.22
2547.82
1357.95
2765.17
1107.74
2985.2
860.299
3156.07
634.647
3216.27
374.011
3181.76
14.025
3027.04
-411.03
2786.38
-794
2803.58
-1045.81
3282.78
-1137.45
4066.12
-1075.8
4796.95
-922.547
5118.18
-759.711
5003.7
-624.325
4683.69
-520.234
4261.56
-447.694
3790.71
-404.378
3322.87
-385.095
2883.31