/*--------------------------------*- C++ -*----------------------------------*\
| =========                 |                                                 |
| \\      /  F ield         | OpenFOAM: The Open Source CFD Toolbox           |
|  \\    /   O peration     | Version:  4.1                                   |
|   \\  /    A nd           | Web:      www.OpenFOAM.org                      |
|    \\/     M anipulation  |                                                 |
\*---------------------------------------------------------------------------*/
FoamFile
{
    version     2.0;
    format      ascii;
    class       volVectorField;
    location    "1400";
    object      U;
}
// * * * * * * * * * * * * * * * * * * * * * * * * * * * * * * * * * * * * * //

dimensions      [0 1 -1 0 0 0 0];

internalField   nonuniform List<vector> 
26785
(
(-2.10773e-15 -0.0455096 8.1175)
(-2.53063e-15 -0.0418025 9.06283)
(-2.63933e-15 -0.0482666 10.0157)
(-4.48068e-15 -0.0578832 11.1474)
(-3.50441e-15 -0.0623496 12.4339)
(-4.62919e-15 -0.0608636 13.7189)
(-3.85422e-15 -0.0561628 14.8891)
(-4.04669e-15 -0.0498319 15.9087)
(-3.41889e-15 -0.043633 16.7786)
(-3.48951e-15 -0.038809 17.5194)
(-1.07666e-15 -0.0365955 18.1706)
(-1.08934e-15 -0.0381905 18.7891)
(-8.42467e-16 -0.0442493 19.4448)
(-6.69925e-16 -0.053216 20.1989)
(-4.53974e-16 -0.0611621 21.0634)
(-3.05372e-16 -0.0653421 21.9917)
(-3.13382e-16 -0.0661204 22.9197)
(-3.91539e-16 -0.0657786 23.8117)
(-7.35143e-16 -0.0658845 24.6695)
(-4.28281e-16 -0.0656188 25.5026)
(3.57032e-16 -0.0626268 26.2975)
(-1.72266e-17 -0.0540373 27.01)
(1.6975e-15 -0.0365159 27.5571)
(2.37909e-15 -0.00927177 27.8293)
(2.82146e-15 0.0234318 27.7376)
(4.48139e-15 0.0572367 27.2346)
(5.40809e-15 0.0864032 26.3421)
(5.38649e-15 0.104974 25.176)
(6.31293e-15 0.113164 23.8877)
(7.93208e-15 0.114479 22.5875)
(9.02587e-15 0.112053 21.334)
(7.89463e-15 0.10782 20.1524)
(7.45167e-15 0.102739 19.0515)
(7.12492e-15 0.0971826 18.0332)
(6.50985e-15 0.0912366 17.0973)
(6.28607e-15 0.0848842 16.2431)
(5.68964e-15 0.078136 15.4698)
(5.44408e-15 0.071131 14.7755)
(5.39674e-15 0.06421 14.1564)
(5.43146e-15 0.05792 13.6049)
(5.58954e-15 0.0529048 13.1092)
(5.38254e-15 0.0496742 12.6532)
(5.5953e-15 0.0483694 12.2194)
(4.94133e-15 0.0486807 11.7919)
(4.52909e-15 0.0500243 11.3604)
(3.00594e-15 0.0519847 10.9198)
(2.21104e-15 0.0548541 10.4671)
(1.30937e-15 0.0599573 9.9931)
(4.09123e-16 0.0686789 9.47569)
(-1.0607e-15 0.0815761 8.88309)
(-4.4977e-16 0.0971087 8.18562)
(-7.69943e-16 0.111625 7.3694)
(-2.20626e-15 0.12544 6.46167)
(-4.12178e-15 0.142573 5.46744)
(-5.01175e-15 0.163809 4.28292)
(-7.87207e-15 0.207325 3.15783)
(-3.5325e-14 0.260449 1.40208)
(-1.74664e-14 0.272535 -1.29535)
(-1.09658e-14 0.171064 -2.63153)
(-3.58645e-15 0.108338 -3.50089)
(3.21637e-15 0.0774096 -4.08303)
(4.79566e-15 0.0608287 -4.50992)
(5.89679e-15 0.0505517 -4.84345)
(6.57588e-15 0.0427263 -5.11177)
(8.26058e-15 0.0353974 -5.32563)
(7.20966e-15 0.0278098 -5.488)
(6.88955e-15 0.0200581 -5.60018)
(6.64838e-15 0.0126168 -5.66507)
(6.64159e-15 0.00580845 -5.68739)
(6.69056e-15 -0.00046392 -5.67114)
(7.75416e-15 -0.00644673 -5.61764)
(7.93748e-15 -0.012261 -5.52701)
(5.39725e-15 -0.018075 -5.39971)
(2.54796e-15 -0.0237658 -5.23548)
(-8.80398e-16 -0.0285712 -5.03841)
(-4.82184e-15 -0.0317346 -4.81739)
(-9.14201e-15 -0.0328529 -4.58424)
(-1.03827e-14 -0.0321952 -4.3502)
(-1.16954e-14 -0.0308791 -4.12216)
(-1.2462e-14 -0.0305591 -3.89984)
(-1.31539e-14 -0.03272 -3.67415)
(-1.18461e-14 -0.0377865 -3.4271)
(-8.34708e-15 -0.0447778 -3.13481)
(-1.49644e-14 -0.0527177 -2.77299)
(-1.91749e-14 -0.0651304 -2.32112)
(-1.41142e-14 -0.0907373 -1.7586)
(-1.23891e-14 -0.131025 -1.07087)
(-8.76152e-15 -0.17951 -0.25127)
(-7.32495e-15 -0.228059 0.841166)
(-6.24657e-15 -0.283045 2.17979)
(-4.30387e-15 -0.342111 3.74626)
(-2.49627e-15 -0.404998 5.55653)
(-6.29438e-16 -0.468706 7.61793)
(6.40632e-16 -0.526733 9.91017)
(1.85695e-15 -0.571326 12.378)
(2.6172e-15 -0.595747 14.9473)
(3.37572e-15 -0.601571 17.4723)
(4.33976e-15 -0.568031 20.0072)
(5.06513e-15 -0.602999 21.9012)
(6.6783e-15 -0.483734 25.0604)
(-2.51547e-15 -0.128317 8.6639)
(-4.74863e-15 -0.124846 9.68305)
(-3.57986e-15 -0.148295 10.7227)
(-3.06331e-15 -0.179539 11.9458)
(-4.73736e-16 -0.194376 13.3182)
(-2.02448e-15 -0.190436 14.6794)
(7.22889e-16 -0.176024 15.9156)
(-7.59696e-16 -0.156308 16.9899)
(-1.01323e-15 -0.136752 17.9027)
(-2.34259e-16 -0.121179 18.675)
(-2.0047e-16 -0.113311 19.3467)
(-8.25381e-17 -0.116666 19.9743)
(-5.06071e-17 -0.133016 20.6261)
(-2.00729e-16 -0.157556 21.3603)
(-2.16389e-16 -0.178731 22.1855)
(9.38359e-16 -0.188697 23.055)
(-4.27682e-16 -0.18878 23.9074)
(-1.37225e-15 -0.185781 24.7103)
(-1.83866e-15 -0.184167 25.4682)
(-3.4085e-15 -0.181388 26.192)
(-3.50699e-15 -0.170987 26.872)
(-3.47435e-15 -0.145943 27.475)
(-2.84955e-15 -0.0972312 27.9425)
(-2.00956e-15 -0.0194624 28.1892)
(-2.47387e-15 0.0797523 28.1142)
(-1.2841e-15 0.187621 27.6107)
(4.54781e-16 0.281037 26.6766)
(1.63419e-15 0.338789 25.4398)
(2.10276e-15 0.361844 24.0722)
(4.02074e-15 0.362222 22.6995)
(4.02732e-15 0.350589 21.3881)
(3.26764e-15 0.333477 20.1663)
(3.87081e-15 0.314119 19.0429)
(4.42938e-15 0.293825 18.0185)
(5.204e-15 0.273018 17.0898)
(5.29021e-15 0.251853 16.2521)
(4.95133e-15 0.230578 15.4995)
(4.77105e-15 0.209734 14.8244)
(4.52569e-15 0.190261 14.2174)
(4.31763e-15 0.173471 13.6673)
(4.01122e-15 0.160808 13.1609)
(4.15392e-15 0.153335 12.6831)
(3.92908e-15 0.151167 12.2192)
(4.35726e-15 0.153242 11.7567)
(4.50095e-15 0.157782 11.2882)
(4.82976e-15 0.163562 10.8114)
(3.57117e-15 0.171568 10.3258)
(3.22469e-15 0.186019 9.82307)
(6.76902e-16 0.211271 9.28154)
(1.12268e-15 0.249285 8.66889)
(-9.22947e-16 0.295655 7.95245)
(-2.97697e-15 0.339156 7.11701)
(-3.74908e-15 0.382226 6.19001)
(-1.01515e-14 0.434166 5.16732)
(-6.24787e-15 0.491709 3.99006)
(-8.52053e-15 0.647275 2.83962)
(-3.81848e-14 0.82851 0.790225)
(-1.48388e-14 0.755352 -1.42866)
(-5.23458e-15 0.47089 -2.50493)
(-4.63101e-15 0.301466 -3.23652)
(5.21932e-16 0.211975 -3.72484)
(2.77259e-15 0.161629 -4.07518)
(5.36084e-15 0.128975 -4.33898)
(2.82475e-15 0.103653 -4.54077)
(9.51966e-17 0.0807066 -4.69146)
(9.28493e-16 0.058367 -4.79664)
(2.27184e-15 0.0367199 -4.86065)
(4.76603e-15 0.0163984 -4.88768)
(7.91865e-15 -0.00240944 -4.88143)
(1.31047e-14 -0.0203051 -4.84437)
(1.40478e-14 -0.0381937 -4.7773)
(1.54388e-14 -0.0566605 -4.67787)
(1.59429e-14 -0.0756515 -4.54134)
(1.2612e-14 -0.0941132 -4.36762)
(8.3972e-15 -0.10994 -4.15988)
(2.50112e-15 -0.1208 -3.92643)
(-2.77621e-16 -0.1254 -3.67907)
(-7.54623e-15 -0.124619 -3.42922)
(-1.38541e-14 -0.122155 -3.18356)
(-1.61673e-14 -0.12342 -2.94087)
(-1.82652e-14 -0.133159 -2.69114)
(-1.05326e-14 -0.153613 -2.41537)
(3.1631e-15 -0.184966 -2.08677)
(3.37115e-15 -0.228251 -1.67317)
(-8.8056e-15 -0.288992 -1.13987)
(-1.37811e-14 -0.373459 -0.450526)
(-8.82432e-15 -0.480885 0.455053)
(-4.07891e-15 -0.6008 1.55348)
(2.72231e-17 -0.721099 2.76875)
(1.9055e-15 -0.848861 4.10498)
(3.41194e-15 -0.98797 5.59133)
(5.67121e-15 -1.13669 7.24912)
(8.02828e-15 -1.284 9.08355)
(7.80416e-15 -1.41181 11.0755)
(9.41288e-15 -1.49949 13.176)
(1.12836e-14 -1.52787 15.3158)
(1.23587e-14 -1.5017 17.3567)
(1.31587e-14 -1.3697 19.3265)
(1.37552e-14 -1.39307 20.6896)
(1.42801e-14 -1.08558 22.7761)
(-2.8487e-15 -0.222092 9.12822)
(-1.95735e-15 -0.218632 10.1901)
(-1.14428e-15 -0.256631 11.2677)
(-3.36595e-16 -0.307379 12.5235)
(2.43782e-15 -0.330932 13.9231)
(7.11665e-16 -0.323013 15.3044)
(2.12585e-15 -0.29737 16.5513)
(7.5508e-16 -0.262902 17.6247)
(1.11066e-15 -0.228742 18.5239)
(7.20757e-16 -0.201216 19.2699)
(4.4974e-16 -0.186468 19.9023)
(2.05817e-16 -0.190229 20.4765)
(-4.39481e-17 -0.215237 21.0598)
(-4.11422e-16 -0.253387 21.7098)
(-1.1674e-15 -0.285661 22.4365)
(-8.57048e-16 -0.29942 23.1956)
(-1.28774e-15 -0.297153 23.9285)
(-2.26238e-15 -0.29023 24.6054)
(-2.50216e-15 -0.286063 25.2327)
(-3.9106e-15 -0.280674 25.8246)
(-2.31282e-15 -0.264405 26.3766)
(-4.62275e-15 -0.22777 26.8667)
(-7.06547e-15 -0.157358 27.2566)
(-5.93074e-15 -0.0406018 27.4901)
(-6.11251e-15 0.118314 27.4875)
(-6.32712e-15 0.302428 27.1179)
(-3.62036e-15 0.467405 26.3111)
(-1.19587e-15 0.570952 25.1603)
(4.70634e-18 0.612556 23.8404)
(1.15012e-15 0.612995 22.492)
(2.11562e-15 0.591358 21.195)
(1.61367e-15 0.559596 19.9867)
(2.46007e-15 0.523844 18.8808)
(4.305e-15 0.486848 17.8787)
(4.62175e-15 0.449786 16.9757)
(4.32589e-15 0.413321 16.1634)
(3.92045e-15 0.378128 15.4314)
(3.46734e-15 0.345128 14.7679)
(3.01006e-15 0.315587 14.1606)
(2.59099e-15 0.291096 13.5975)
(2.24901e-15 0.273358 13.0669)
(2.05705e-15 0.263577 12.5571)
(1.95569e-15 0.261686 12.0569)
(1.98146e-15 0.265925 11.5569)
(2.08054e-15 0.273432 11.0516)
(2.30471e-15 0.28227 10.5407)
(2.38944e-15 0.294278 10.0249)
(2.43022e-15 0.316823 9.49717)
(1.92466e-15 0.357434 8.93593)
(1.60461e-15 0.42003 8.30786)
(5.97734e-16 0.497444 7.57504)
(-1.28458e-15 0.570305 6.72049)
(-3.40572e-15 0.643474 5.77357)
(-1.02075e-14 0.725302 4.73552)
(-8.45737e-15 0.821937 3.58985)
(-1.8948e-14 1.12095 2.2876)
(-3.55707e-14 1.39003 0.0827931)
(-9.0355e-15 1.14711 -1.46217)
(-2.69242e-15 0.714357 -2.26486)
(3.89816e-15 0.463675 -2.84584)
(6.73914e-15 0.325943 -3.25143)
(9.99012e-15 0.247028 -3.55128)
(1.03886e-14 0.195642 -3.78292)
(9.06149e-15 0.156189 -3.96628)
(9.11352e-15 0.12131 -4.11126)
(1.2551e-14 0.0883164 -4.2218)
(1.24802e-14 0.0568793 -4.29779)
(1.35347e-14 0.0272517 -4.33764)
(1.70235e-14 -0.000661146 -4.34203)
(1.98932e-14 -0.0276889 -4.31475)
(2.29973e-14 -0.0554169 -4.25915)
(2.61984e-14 -0.0851917 -4.17382)
(2.80273e-14 -0.116614 -4.05387)
(2.49706e-14 -0.147648 -3.89536)
(2.18998e-14 -0.174764 -3.69907)
(1.65451e-14 -0.194099 -3.47108)
(9.48332e-15 -0.203426 -3.22189)
(4.51037e-15 -0.20375 -2.96309)
(-1.53841e-15 -0.200311 -2.70301)
(-1.00969e-14 -0.201591 -2.44327)
(-1.88073e-14 -0.217117 -2.17554)
(-2.20159e-14 -0.255113 -1.87796)
(-2.08394e-14 -0.321014 -1.51592)
(-1.22762e-14 -0.416809 -1.05137)
(-3.31687e-15 -0.543016 -0.444013)
(-1.32774e-15 -0.697764 0.336762)
(1.834e-15 -0.856482 1.23018)
(1.57173e-15 -1.01332 2.2076)
(1.40683e-15 -1.17858 3.27801)
(-1.80166e-15 -1.36041 4.45255)
(2.25021e-15 -1.56246 5.74627)
(6.9917e-15 -1.77978 7.17203)
(8.22943e-15 -1.99531 8.73758)
(9.46683e-15 -2.18112 10.4323)
(1.11544e-14 -2.30406 12.2194)
(1.28863e-14 -2.32992 14.0362)
(1.4293e-14 -2.263 15.7529)
(1.5585e-14 -2.02294 17.3507)
(1.65231e-14 -1.96986 18.3972)
(1.673e-14 -1.51994 19.7369)
(-2.64116e-15 -0.315124 9.44255)
(-9.36625e-17 -0.31099 10.5007)
(1.4057e-15 -0.363764 11.5811)
(2.37571e-15 -0.434995 12.8485)
(1.71097e-15 -0.467969 14.2617)
(2.50256e-15 -0.455994 15.648)
(1.7247e-15 -0.418351 16.8856)
(1.77557e-15 -0.36805 17.9338)
(1.81875e-15 -0.318081 18.7929)
(6.81984e-16 -0.277296 19.4856)
(2.3405e-16 -0.254243 20.0525)
(-1.70178e-16 -0.256843 20.5496)
(-4.23814e-16 -0.288894 21.0447)
(-1.08374e-15 -0.339208 21.5979)
(-2.11282e-15 -0.381416 22.2221)
(-2.03788e-15 -0.398093 22.8751)
(-1.79557e-15 -0.392826 23.4993)
(-3.12089e-15 -0.381535 24.0656)
(-2.03286e-15 -0.374669 24.5818)
(-4.03174e-16 -0.366983 25.0642)
(-2.68673e-16 -0.345974 25.5106)
(-1.07069e-15 -0.300686 25.9037)
(-2.02874e-15 -0.215408 26.2172)
(-2.46122e-15 -0.0721795 26.4165)
(-3.47036e-15 0.130978 26.4501)
(-4.66901e-15 0.382129 26.1909)
(-5.12379e-15 0.620402 25.5206)
(-4.61911e-15 0.77656 24.4935)
(-3.59486e-15 0.84356 23.2732)
(-2.13361e-15 0.84902 22.0035)
(-1.68749e-15 0.820351 20.7706)
(-2.19132e-15 0.775483 19.617)
(-1.41329e-15 0.724137 18.5593)
(-4.31689e-16 0.671111 17.5999)
(6.08062e-16 0.618799 16.7331)
(3.98138e-16 0.568624 15.9487)
(4.98518e-16 0.521711 15.2344)
(1.13248e-15 0.479164 14.5771)
(2.41672e-16 0.442209 13.9644)
(-4.40426e-16 0.41231 13.3852)
(-2.6566e-16 0.39111 12.8297)
(-2.25033e-16 0.379856 12.2893)
(6.70512e-17 0.378432 11.7557)
(-9.26906e-17 0.384598 11.2219)
(4.36631e-16 0.394551 10.6847)
(5.15211e-16 0.405629 10.1454)
(1.24614e-15 0.420526 9.60648)
(2.36379e-15 0.449952 9.0621)
(3.02189e-15 0.504859 8.49062)
(1.47892e-15 0.591931 7.85558)
(1.35662e-15 0.701268 7.11062)
(-1.93383e-15 0.803898 6.23866)
(-2.44439e-15 0.904732 5.27994)
(-5.3014e-15 1.01039 4.25816)
(-8.79977e-15 1.17527 3.1206)
(-2.80378e-14 1.61427 1.54489)
(-3.34742e-14 1.85334 -0.441717)
(3.47968e-16 1.41578 -1.372)
(5.96436e-15 0.901508 -1.96653)
(1.74439e-14 0.599927 -2.43907)
(1.89645e-14 0.428815 -2.80177)
(2.16104e-14 0.328511 -3.0881)
(1.74513e-14 0.262685 -3.32155)
(1.51638e-14 0.212325 -3.516)
(1.13703e-14 0.167674 -3.67715)
(7.70729e-15 0.124127 -3.80372)
(4.37546e-15 0.0803788 -3.89064)
(7.34912e-15 0.0374114 -3.93554)
(8.69221e-15 -0.00284575 -3.94416)
(9.22526e-15 -0.0398937 -3.92701)
(1.09136e-14 -0.0764736 -3.88952)
(1.21777e-14 -0.116517 -3.82692)
(1.57472e-14 -0.160564 -3.72997)
(1.64992e-14 -0.205519 -3.5918)
(2.1762e-14 -0.246116 -3.41096)
(1.94323e-14 -0.276908 -3.1915)
(1.22293e-14 -0.294518 -2.94282)
(8.66466e-15 -0.299449 -2.67674)
(-1.05835e-15 -0.297384 -2.40377)
(-9.45827e-15 -0.299236 -2.12878)
(-2.23946e-14 -0.320304 -1.84494)
(-1.97619e-14 -0.376633 -1.52806)
(-2.65256e-15 -0.478041 -1.13984)
(-5.76544e-15 -0.622807 -0.647788)
(-1.53904e-16 -0.80166 -0.0107662)
(-2.64109e-15 -0.996527 0.743636)
(7.35578e-17 -1.18919 1.5696)
(-3.13088e-15 -1.383 2.46717)
(-3.13133e-15 -1.58679 3.43315)
(-1.40058e-15 -1.81047 4.47078)
(4.66837e-15 -2.05983 5.59031)
(7.26929e-15 -2.33022 6.80335)
(6.8687e-15 -2.60155 8.12206)
(6.66247e-15 -2.83781 9.54504)
(7.75289e-15 -2.99328 11.0502)
(9.96008e-15 -3.01677 12.584)
(1.21301e-14 -2.90396 14.0333)
(1.35801e-14 -2.54529 15.3165)
(1.47756e-14 -2.36786 16.1145)
(1.53071e-14 -1.76991 16.7753)
(-2.40016e-15 -0.405024 9.62361)
(1.47859e-16 -0.403936 10.6868)
(-7.82976e-17 -0.473416 11.7724)
(8.6483e-16 -0.565623 13.0475)
(2.00077e-15 -0.607292 14.4627)
(1.20642e-15 -0.589668 15.836)
(1.81451e-15 -0.53811 17.0433)
(1.03026e-15 -0.47022 18.0457)
(1.02432e-15 -0.40298 18.8466)
(4.40141e-16 -0.347674 19.4713)
(6.07272e-17 -0.315161 19.9618)
(1.03471e-15 -0.315533 20.3745)
(-2.76199e-16 -0.353813 20.7784)
(-5.21876e-16 -0.415884 21.2373)
(-1.2757e-15 -0.467844 21.768)
(-4.98569e-16 -0.487254 22.329)
(5.43419e-16 -0.478724 22.8618)
(1.01619e-15 -0.462847 23.3366)
(1.73253e-15 -0.453266 23.7624)
(2.10206e-15 -0.443473 24.1573)
(2.22173e-15 -0.418214 24.52)
(1.18888e-15 -0.365672 24.8351)
(-3.32609e-17 -0.269149 25.0827)
(-7.76421e-16 -0.106371 25.2427)
(-1.58011e-15 0.131192 25.2869)
(-3.36915e-15 0.440235 25.1022)
(-2.8929e-15 0.748549 24.5395)
(-4.03166e-15 0.957927 23.624)
(-4.99412e-15 1.05248 22.5081)
(-4.31255e-15 1.06541 21.3324)
(-3.65666e-15 1.03197 20.1826)
(-3.22472e-15 0.976017 19.1015)
(-2.69481e-15 0.910987 18.106)
(-3.06205e-15 0.843885 17.1982)
(-2.6951e-15 0.778423 16.3719)
(-2.18575e-15 0.716787 15.6166)
(-2.13105e-15 0.660481 14.92)
(-2.16108e-15 0.610684 14.2696)
(-2.43511e-15 0.56849 13.6537)
(-2.6217e-15 0.535137 13.0625)
(-2.75843e-15 0.512094 12.4878)
(-2.58763e-15 0.50051 11.9223)
(-2.42782e-15 0.500119 11.3597)
(-1.69894e-15 0.50817 10.7955)
(-9.05173e-16 0.519938 10.2292)
(-3.11373e-16 0.53208 9.66473)
(-5.95712e-18 0.548229 9.10735)
(8.83063e-17 0.582787 8.55359)
(9.2145e-16 0.650872 7.98084)
(-2.43404e-16 0.763177 7.34578)
(6.96988e-16 0.906162 6.59273)
(-2.66602e-15 1.03774 5.70848)
(-3.50794e-15 1.15978 4.75557)
(-3.70268e-15 1.29277 3.77399)
(-1.12953e-14 1.56754 2.55979)
(-3.24536e-14 2.09077 0.735482)
(-2.57875e-14 2.17166 -0.698816)
(2.87011e-15 1.58819 -1.21063)
(8.02497e-15 1.04884 -1.6724)
(1.84704e-14 0.720691 -2.08227)
(1.94197e-14 0.527841 -2.42802)
(2.18788e-14 0.411273 -2.71616)
(1.2914e-14 0.333476 -2.95965)
(8.07324e-15 0.273221 -3.16711)
(1.69497e-15 0.218499 -3.34032)
(-8.94626e-16 0.163262 -3.47464)
(2.42931e-15 0.10675 -3.5644)
(2.05652e-15 0.0523697 -3.61142)
(4.19634e-15 0.0039881 -3.62834)
(6.92119e-15 -0.0388627 -3.62903)
(1.42807e-14 -0.0823646 -3.61586)
(1.88521e-14 -0.132771 -3.57914)
(2.28833e-14 -0.190474 -3.50624)
(2.04551e-14 -0.250967 -3.388)
(1.79009e-14 -0.30711 -3.22148)
(1.33429e-14 -0.351732 -3.00949)
(1.12182e-14 -0.380011 -2.76096)
(7.7584e-15 -0.391521 -2.48819)
(-1.35803e-15 -0.392028 -2.20404)
(-5.50234e-15 -0.395356 -1.9168)
(-2.09467e-14 -0.424063 -1.62171)
(-2.30375e-14 -0.502599 -1.29382)
(3.23918e-15 -0.642364 -0.895989)
(9.59062e-15 -0.834381 -0.391606)
(5.26095e-16 -1.0555 0.230318)
(-5.23997e-15 -1.28278 0.929235)
(-6.8794e-15 -1.50405 1.68663)
(-6.48828e-15 -1.72383 2.49745)
(-3.91487e-15 -1.95332 3.35624)
(1.02619e-15 -2.20564 4.26485)
(5.27335e-15 -2.48853 5.23093)
(5.98642e-15 -2.79828 6.26251)
(3.80335e-15 -3.1136 7.37087)
(3.70013e-15 -3.39284 8.55746)
(5.95365e-15 -3.57891 9.81168)
(8.81479e-15 -3.60344 11.0893)
(1.04295e-14 -3.44388 12.3038)
(1.11456e-14 -2.95718 13.3018)
(1.17363e-14 -2.60605 13.8752)
(1.16236e-14 -1.85214 13.8359)
(-2.04094e-15 -0.508938 9.76947)
(3.24583e-16 -0.499457 10.8162)
(5.41651e-16 -0.583172 11.8843)
(2.14577e-15 -0.696005 13.1435)
(1.63804e-15 -0.745697 14.5396)
(1.59523e-15 -0.721247 15.8825)
(1.62368e-15 -0.654501 17.0454)
(1.27373e-15 -0.567957 17.9912)
(7.60784e-16 -0.482648 18.7263)
(1.83206e-16 -0.41212 19.2788)
(7.46016e-16 -0.369442 19.6917)
(7.5775e-16 -0.366907 20.0217)
(2.48346e-16 -0.411015 20.3395)
(6.7871e-16 -0.484898 20.7132)
(6.90409e-16 -0.546799 21.1633)
(1.19243e-15 -0.568968 21.6477)
(1.07341e-15 -0.557006 22.1052)
(1.00894e-15 -0.53642 22.5047)
(1.8209e-15 -0.524253 22.8566)
(4.62999e-16 -0.512664 23.1809)
(-1.18162e-15 -0.483559 23.4769)
(-1.34037e-15 -0.424636 23.7289)
(-1.90452e-15 -0.31946 23.9202)
(-3.49781e-15 -0.142962 24.0408)
(-1.58181e-15 0.120295 24.0829)
(-1.12275e-15 0.478793 23.9515)
(-2.8408e-15 0.853788 23.4748)
(-4.24611e-15 1.11589 22.6547)
(-5.15283e-15 1.23872 21.635)
(-4.21516e-15 1.26054 20.5524)
(-3.6291e-15 1.22419 19.4889)
(-2.64481e-15 1.15929 18.4846)
(-2.08022e-15 1.08289 17.5547)
(-2.57937e-15 1.00412 16.7005)
(-3.39469e-15 0.927965 15.9156)
(-4.56484e-15 0.857287 15.19)
(-5.00917e-15 0.793892 14.5121)
(-4.82464e-15 0.738974 13.8705)
(-4.69386e-15 0.693457 13.2549)
(-4.64271e-15 0.658353 12.6567)
(-4.53315e-15 0.63495 12.0683)
(-4.3664e-15 0.624245 11.4831)
(-3.96541e-15 0.625686 10.896)
(-3.87348e-15 0.63582 10.3046)
(-3.0022e-15 0.648889 9.71121)
(-2.08142e-15 0.660747 9.12352)
(-1.42159e-15 0.67595 8.55163)
(-1.44712e-15 0.713411 7.99518)
(-1.38909e-15 0.793731 7.42852)
(-2.02345e-15 0.932384 6.80002)
(-1.75335e-15 1.11044 6.04558)
(-3.90204e-15 1.26818 5.1572)
(-4.66076e-15 1.40448 4.2308)
(-4.49072e-15 1.58615 3.27784)
(-1.60016e-14 1.991 1.88263)
(-3.4963e-14 2.49897 0.0597484)
(-1.94871e-14 2.3603 -0.752854)
(-2.05495e-15 1.70435 -1.04099)
(-1.1949e-16 1.17222 -1.42246)
(1.07213e-14 0.832969 -1.79495)
(1.07493e-14 0.625778 -2.13006)
(8.81013e-15 0.496107 -2.41919)
(-1.61687e-15 0.407422 -2.66835)
(-6.2467e-15 0.337165 -2.88256)
(-9.06367e-15 0.271398 -3.06142)
(-6.65609e-15 0.203044 -3.19933)
(-5.42627e-15 0.132707 -3.2921)
(-4.42067e-15 0.0670056 -3.34624)
(4.03929e-16 0.0116309 -3.37902)
(4.78852e-15 -0.0356511 -3.40409)
(1.22568e-14 -0.0849901 -3.41855)
(1.8222e-14 -0.145638 -3.40791)
(2.95787e-14 -0.217932 -3.35729)
(3.54626e-14 -0.295508 -3.2557)
(3.31842e-14 -0.369158 -3.09961)
(2.08868e-14 -0.429838 -2.8916)
(1.32833e-14 -0.470968 -2.64084)
(4.30485e-15 -0.490642 -2.36067)
(-4.69548e-15 -0.493978 -2.06666)
(-1.15415e-14 -0.49744 -1.77114)
(-1.6615e-14 -0.531663 -1.47247)
(-1.08565e-14 -0.630609 -1.14633)
(7.45444e-15 -0.806737 -0.756882)
(1.86028e-14 -1.03972 -0.268389)
(8.81245e-16 -1.29291 0.316646)
(-8.03066e-15 -1.54482 0.95814)
(-7.74289e-15 -1.78829 1.64348)
(-6.67294e-15 -2.02839 2.36653)
(-2.21685e-15 -2.27817 3.12515)
(4.8873e-16 -2.55299 3.9241)
(4.31519e-15 -2.8614 4.7699)
(3.99116e-15 -3.20026 5.6642)
(1.60126e-15 -3.54788 6.61042)
(3.51088e-15 -3.85963 7.60362)
(7.63305e-15 -4.06984 8.63744)
(9.6657e-15 -4.09664 9.67427)
(9.68132e-15 -3.88903 10.6654)
(8.69668e-15 -3.26113 11.3864)
(7.36606e-15 -2.66699 11.7307)
(6.63054e-15 -1.73934 10.8618)
(-1.47288e-15 -0.598147 9.85693)
(-4.61036e-16 -0.590596 10.8709)
(1.36853e-15 -0.691574 11.9028)
(1.93681e-15 -0.825918 13.1329)
(8.83323e-16 -0.883326 14.5039)
(-9.29761e-16 -0.851012 15.8127)
(-9.78e-17 -0.767836 16.9272)
(-2.90341e-16 -0.661584 17.8129)
(6.65426e-17 -0.557456 18.4802)
(9.31685e-16 -0.471093 18.9603)
(1.5735e-15 -0.417677 19.2975)
(9.79505e-16 -0.411756 19.5486)
(8.86964e-16 -0.461607 19.7862)
(3.18892e-16 -0.547762 20.0833)
(-1.96208e-16 -0.620116 20.4638)
(2.04312e-16 -0.645203 20.8838)
(4.87017e-16 -0.629649 21.2783)
(-1.48793e-15 -0.604239 21.6146)
(-2.29053e-15 -0.58967 21.9049)
(-3.86233e-15 -0.576595 22.1721)
(-3.75084e-15 -0.543849 22.4153)
(-1.45043e-15 -0.478803 22.6175)
(-2.75671e-15 -0.366219 22.7627)
(-3.5206e-15 -0.179658 22.8468)
(-2.35809e-15 0.102599 22.8788)
(-2.0231e-15 0.502786 22.7843)
(-2.12006e-15 0.940532 22.3762)
(-1.1498e-15 1.25365 21.6373)
(-3.65563e-15 1.40422 20.704)
(-4.71916e-15 1.43533 19.7089)
(-4.43475e-15 1.39731 18.7286)
(-3.7984e-15 1.32532 17.7992)
(-3.24491e-15 1.23977 16.9335)
(-3.24526e-15 1.15172 16.1315)
(-3.77014e-15 1.06724 15.3869)
(-4.61209e-15 0.989778 14.6904)
(-5.3468e-15 0.921357 14.0317)
(-5.47063e-15 0.863152 13.4006)
(-5.45984e-15 0.815941 12.7882)
(-5.46096e-15 0.780583 12.1867)
(-5.31694e-15 0.758261 11.5889)
(-4.80244e-15 0.749796 10.9883)
(-4.7479e-15 0.754141 10.3801)
(-4.25543e-15 0.766854 9.76378)
(-3.7175e-15 0.780849 9.14496)
(-3.15703e-15 0.790793 8.53625)
(-2.92921e-15 0.802287 7.95419)
(-2.04777e-15 0.840082 7.40151)
(-1.28975e-15 0.931592 6.84895)
(-7.69683e-17 1.0978 6.23524)
(7.80674e-16 1.31258 5.48499)
(7.45218e-16 1.492 4.60227)
(-3.39416e-15 1.64096 3.72034)
(-6.33181e-15 1.90714 2.73301)
(-2.18737e-14 2.41766 1.11116)
(-3.40021e-14 2.80196 -0.379172)
(-1.86488e-14 2.45617 -0.711327)
(-1.13207e-14 1.79141 -0.901011)
(-1.5403e-14 1.28004 -1.2273)
(-2.32993e-15 0.938418 -1.56923)
(-1.36166e-15 0.721499 -1.89031)
(-2.12924e-15 0.580951 -2.1747)
(-2.89144e-15 0.482253 -2.42344)
(-1.10204e-15 0.402258 -2.63924)
(-2.03093e-15 0.325526 -2.82091)
(-6.29891e-16 0.244468 -2.963)
(-4.37871e-15 0.161886 -3.06311)
(-3.01542e-15 0.0880632 -3.13132)
(-4.35341e-15 0.02928 -3.18718)
(-7.30205e-15 -0.0206041 -3.24153)
(-4.85976e-15 -0.076187 -3.28507)
(-1.13188e-15 -0.148835 -3.29813)
(1.21709e-14 -0.237842 -3.2658)
(2.05604e-14 -0.33482 -3.17575)
(2.5456e-14 -0.42819 -3.02509)
(2.3736e-14 -0.506964 -2.8172)
(1.51713e-14 -0.562682 -2.56219)
(5.201e-15 -0.591726 -2.27478)
(-3.10596e-15 -0.598147 -1.97363)
(-1.30597e-14 -0.600709 -1.67567)
(-2.38032e-14 -0.638378 -1.38299)
(-2.35182e-14 -0.755453 -1.07126)
(4.93903e-15 -0.965137 -0.704102)
(1.10329e-14 -1.23392 -0.250765)
(1.36099e-15 -1.5138 0.284555)
(-5.85822e-15 -1.7852 0.865032)
(-8.35315e-15 -2.04528 1.47598)
(-6.5663e-15 -2.30125 2.11478)
(-1.39918e-15 -2.56883 2.7864)
(1.96754e-15 -2.86438 3.49988)
(3.47285e-15 -3.1947 4.25955)
(2.29236e-15 -3.55496 5.05751)
(2.63445e-15 -3.92247 5.88413)
(6.67737e-15 -4.25195 6.72108)
(9.87831e-15 -4.47282 7.55735)
(1.02727e-14 -4.49815 8.35372)
(8.19495e-15 -4.24136 9.101)
(5.75251e-15 -3.45904 9.51275)
(4.40742e-15 -2.50965 9.55253)
(3.50738e-15 -1.40344 7.55254)
(-4.12969e-17 -0.691803 9.89439)
(-1.1784e-16 -0.682599 10.8534)
(9.29058e-16 -0.79881 11.8355)
(1.57956e-15 -0.95506 13.0354)
(4.74009e-16 -1.02001 14.3835)
(-6.23151e-16 -0.978654 15.6569)
(-1.31062e-15 -0.87768 16.7191)
(-1.22348e-15 -0.750723 17.5409)
(-1.24384e-16 -0.627231 18.1385)
(-2.40389e-16 -0.524673 18.5466)
(-2.08351e-16 -0.460186 18.8103)
(-4.62641e-16 -0.450628 18.9862)
(-6.95527e-16 -0.506404 19.1482)
(-9.77806e-16 -0.605603 19.3751)
(-1.26561e-15 -0.689138 19.6943)
(-2.55425e-15 -0.717369 20.0593)
(-3.33457e-15 -0.698041 20.4002)
(-3.23674e-15 -0.667725 20.6825)
(-3.07072e-15 -0.651108 20.921)
(-2.91797e-15 -0.637079 21.142)
(-2.61264e-15 -0.601024 21.3445)
(-1.51583e-15 -0.529993 21.5092)
(-2.57415e-15 -0.41067 21.6193)
(-4.7833e-15 -0.216508 21.6731)
(-5.72241e-15 0.0795145 21.6929)
(-5.73778e-15 0.514625 21.6239)
(-3.96479e-15 1.01139 21.2696)
(-4.11164e-15 1.37343 20.599)
(-5.71998e-15 1.55061 19.7427)
(-6.33276e-15 1.59096 18.8283)
(-6.32564e-15 1.55221 17.9261)
(-5.6152e-15 1.47479 17.0674)
(-5.00128e-15 1.38216 16.262)
(-4.83475e-15 1.28707 15.5092)
(-4.89672e-15 1.19647 14.8029)
(-5.78291e-15 1.11426 14.1347)
(-6.43254e-15 1.04263 13.4956)
(-6.30225e-15 0.982741 12.8767)
(-6.22282e-15 0.93528 12.2702)
(-6.11267e-15 0.901055 11.6684)
(-5.96385e-15 0.88124 11.064)
(-5.41831e-15 0.876432 10.4501)
(-5.12276e-15 0.884877 9.82243)
(-4.59004e-15 0.900792 9.18227)
(-4.2101e-15 0.915255 8.53907)
(-3.93591e-15 0.921274 7.912)
(-3.88782e-15 0.925778 7.32446)
(-3.91279e-15 0.960832 6.78291)
(-2.69264e-15 1.06249 6.25406)
(-7.60669e-16 1.2584 5.66124)
(5.70349e-16 1.51101 4.92173)
(2.45893e-15 1.70575 4.0703)
(-2.0474e-15 1.88059 3.23068)
(-9.5751e-15 2.26172 2.09178)
(-2.68368e-14 2.81175 0.343128)
(-3.25276e-14 2.98221 -0.594161)
(-2.69607e-14 2.49709 -0.654673)
(-2.24814e-14 1.86203 -0.800753)
(-2.40302e-14 1.37502 -1.0798)
(-9.11709e-15 1.03637 -1.39007)
(-9.08109e-15 0.813395 -1.69227)
(-4.08476e-15 0.664204 -1.96669)
(1.25538e-15 0.55674 -2.2106)
(4.42252e-15 0.467874 -2.42531)
(2.74706e-15 0.381001 -2.60967)
(-2.14424e-15 0.288215 -2.75884)
(-8.14527e-15 0.194805 -2.87189)
(-1.17294e-14 0.114745 -2.96109)
(-1.87548e-14 0.0539698 -3.04582)
(-2.32375e-14 0.00143343 -3.13182)
(-2.28011e-14 -0.0615402 -3.20331)
(-1.87171e-14 -0.147853 -3.23576)
(-8.64318e-15 -0.25552 -3.21598)
(2.16614e-15 -0.37385 -3.13159)
(1.05507e-14 -0.488469 -2.98166)
(1.14361e-14 -0.586447 -2.77131)
(9.01371e-15 -0.657339 -2.51181)
(4.29304e-15 -0.695595 -2.21922)
(-1.21232e-15 -0.703811 -1.91525)
(-1.34675e-14 -0.70284 -1.6218)
(-3.13455e-14 -0.74053 -1.34475)
(-2.26274e-14 -0.872386 -1.05855)
(4.41941e-15 -1.11187 -0.724768)
(6.27526e-15 -1.41212 -0.318359)
(2.34914e-16 -1.715 0.159978)
(-8.47711e-15 -2.00178 0.678201)
(-9.32075e-15 -2.27506 1.21845)
(-5.43292e-15 -2.5461 1.78455)
(-1.86052e-15 -2.83286 2.38813)
(2.7142e-15 -3.15036 3.03885)
(2.84722e-15 -3.50092 3.73508)
(2.37084e-15 -3.8757 4.45764)
(4.98551e-15 -4.2501 5.18328)
(9.78032e-15 -4.57927 5.87858)
(1.13909e-14 -4.78932 6.51715)
(9.36519e-15 -4.79885 7.03687)
(5.25302e-15 -4.48572 7.43565)
(2.56266e-15 -3.53077 7.34489)
(-6.43002e-16 -2.06497 6.73222)
(-1.81919e-15 -0.673322 3.10272)
(-1.01755e-16 -0.779255 9.87424)
(-5.37113e-16 -0.769332 10.7631)
(-8.66603e-17 -0.903786 11.6963)
(9.32828e-16 -1.08397 12.8718)
(-1.02781e-15 -1.15603 14.1978)
(-8.96696e-16 -1.10402 15.4315)
(1.86492e-17 -0.983821 16.4362)
(-7.99179e-16 -0.835358 17.1907)
(-1.29921e-16 -0.69222 17.7178)
(-2.61273e-16 -0.573316 18.0552)
(-1.14339e-15 -0.49756 18.2479)
(-1.20244e-15 -0.484205 18.3516)
(-1.50329e-15 -0.546218 18.4416)
(-2.19832e-15 -0.659455 18.6026)
(-2.55341e-15 -0.755097 18.8663)
(-2.85303e-15 -0.786801 19.1834)
(-3.42996e-15 -0.763546 19.4784)
(-2.25941e-15 -0.728291 19.7147)
(-7.92086e-16 -0.71011 19.9102)
(-1.25389e-15 -0.695796 20.0953)
(-2.24653e-15 -0.656814 20.2682)
(-1.58179e-15 -0.579848 20.4065)
(-3.10696e-15 -0.45402 20.4916)
(-2.55698e-16 -0.253717 20.5225)
(7.85761e-16 0.0524162 20.5311)
(-2.59806e-15 0.51689 20.4809)
(-5.95318e-15 1.06912 20.1688)
(-5.65138e-15 1.47747 19.5552)
(-5.94115e-15 1.67962 18.7669)
(-7.45096e-15 1.72878 17.9262)
(-5.99693e-15 1.69001 17.0962)
(-5.65474e-15 1.60866 16.303)
(-5.23833e-15 1.51086 15.5538)
(-4.54604e-15 1.41072 14.847)
(-4.76826e-15 1.31592 14.1771)
(-5.7861e-15 1.23072 13.5369)
(-6.20489e-15 1.15744 12.9183)
(-6.10787e-15 1.09728 12.3138)
(-6.09601e-15 1.05094 11.7154)
(-6.03838e-15 1.01929 11.1153)
(-5.84084e-15 1.00353 10.5054)
(-5.18104e-15 1.00393 9.87839)
(-4.84317e-15 1.01774 9.23073)
(-4.36693e-15 1.03741 8.56625)
(-4.13653e-15 1.05156 7.89965)
(-4.11834e-15 1.05119 7.25722)
(-4.31714e-15 1.04482 6.66921)
(-4.97253e-15 1.07361 6.14694)
(-5.55925e-15 1.18472 5.65028)
(-3.86956e-15 1.41176 5.08703)
(-9.38447e-16 1.69917 4.39035)
(2.06325e-15 1.90865 3.61354)
(-2.506e-15 2.14559 2.73975)
(-1.39867e-14 2.64081 1.32172)
(-2.88418e-14 3.12685 -0.268682)
(-3.19046e-14 3.06056 -0.672488)
(-3.62424e-14 2.51103 -0.619825)
(-3.20943e-14 1.9202 -0.734921)
(-3.11692e-14 1.4577 -0.968877)
(-1.89766e-14 1.12595 -1.24566)
(-1.57321e-14 0.900248 -1.52538)
(-4.8899e-15 0.744703 -1.78602)
(5.72263e-16 0.63007 -2.02227)
(2.49668e-15 0.533783 -2.23474)
(-1.43773e-16 0.438359 -2.4228)
(-3.30057e-15 0.335696 -2.58244)
(-1.16975e-14 0.233754 -2.71369)
(-1.41131e-14 0.150041 -2.82951)
(-1.91504e-14 0.088859 -2.94644)
(-2.22106e-14 0.0329853 -3.06355)
(-2.15346e-14 -0.039878 -3.15931)
(-2.05527e-14 -0.142382 -3.20688)
(-1.5482e-14 -0.271111 -3.19312)
(-1.00885e-14 -0.412658 -3.10938)
(-3.42686e-16 -0.549596 -2.95745)
(9.35455e-15 -0.667328 -2.74445)
(4.9347e-15 -0.753496 -2.48242)
(8.55175e-16 -0.800407 -2.18825)
(-1.19287e-15 -0.808666 -1.88648)
(-8.60201e-15 -0.801041 -1.60411)
(-2.45888e-14 -0.835094 -1.35026)
(-2.25905e-14 -0.978326 -1.09661)
(3.1477e-15 -1.24378 -0.801484)
(7.11705e-15 -1.5719 -0.447037)
(-3.04796e-15 -1.89602 -0.0300755)
(-8.50065e-15 -2.19637 0.427715)
(-8.90468e-15 -2.48213 0.907676)
(-3.75889e-15 -2.76966 1.41828)
(2.79462e-16 -3.07747 1.97227)
(3.16259e-15 -3.4168 2.57321)
(3.05421e-15 -3.78374 3.20973)
(4.15146e-15 -4.16457 3.85203)
(7.32963e-15 -4.53205 4.46581)
(1.07563e-14 -4.83973 5.00194)
(1.01191e-14 -5.00507 5.39926)
(6.60111e-15 -4.95504 5.52711)
(1.15244e-15 -4.52357 5.28142)
(-2.63787e-15 -3.28881 4.11528)
(-5.67989e-15 -1.11248 1.98471)
(-5.99762e-15 0.640824 -2.27661)
(-1.10381e-15 -0.861935 9.79066)
(-7.63174e-16 -0.853814 10.611)
(-2.66929e-16 -1.00829 11.5031)
(-2.0311e-16 -1.21298 12.656)
(-9.56719e-16 -1.29101 13.9564)
(-1.10326e-15 -1.22665 15.1448)
(-1.08233e-15 -1.08602 16.0873)
(4.3112e-16 -0.915523 16.7722)
(1.11006e-16 -0.752691 17.2285)
(1.1791e-18 -0.617439 17.4965)