/*--------------------------------*- C++ -*----------------------------------*\
| =========                 |                                                 |
| \\      /  F ield         | OpenFOAM: The Open Source CFD Toolbox           |
|  \\    /   O peration     | Version:  4.1                                   |
|   \\  /    A nd           | Web:      www.OpenFOAM.org                      |
|    \\/     M anipulation  |                                                 |
\*---------------------------------------------------------------------------*/
FoamFile
{
    version     2.0;
    format      ascii;
    class       volScalarField;
    location    "900";
    object      p;
}
// * * * * * * * * * * * * * * * * * * * * * * * * * * * * * * * * * * * * * //

dimensions      [0 2 -2 0 0 0 0];

internalField   nonuniform List<scalar> 
26785
(
-52.9862
-48.6448
-45.3595
-42.7485
-40.3858
-38.309
-36.4893
-34.9278
-33.7
-32.8727
-32.3071
-31.9924
-32.1353
-32.8299
-34.2077
-36.1097
-38.4481
-41.2203
-44.4789
-48.2647
-52.5417
-57.1816
-61.9433
-66.4924
-70.5567
-74.187
-77.8998
-82.5914
-89.1927
-97.9389
-108.19
-118.652
-127.615
-134.084
-138.167
-140.545
-142.091
-143.592
-145.572
-148.258
-151.667
-155.775
-160.35
-164.937
-169.159
-172.802
-175.827
-178.36
-180.671
-183.155
-186.218
-190.04
-194.481
-199.219
-203.945
-208.491
-212.852
-217.102
-221.214
-224.948
-227.876
-229.491
-229.347
-227.118
-222.466
-215.043
-204.47
-190.549
-173.965
-155.986
-137.814
-120.287
-103.89
-88.8685
-75.3229
-63.261
-52.6235
-43.2942
-35.104
-27.8343
-21.3232
-15.5532
-10.6588
-6.89469
-4.37883
-2.74049
-1.30127
0.327444
2.03523
3.26444
3.40909
2.24938
0.0313206
-2.69904
-5.07316
-6.24354
-5.91725
-4.6931
-2.51849
-1.5149
-52.982
-48.6417
-45.361
-42.7505
-40.3892
-38.314
-36.4953
-34.9341
-33.7052
-32.8756
-32.3054
-31.9857
-32.1281
-32.8221
-34.2047
-36.1112
-38.4539
-41.2304
-44.4935
-48.2835
-52.5644
-57.2081
-61.9732
-66.5229
-70.5802
-74.1938
-77.8856
-82.5663
-89.181
-97.9552
-108.233
-118.723
-127.71
-134.182
-138.254
-140.605
-142.117
-143.587
-145.547
-148.223
-151.63
-155.749
-160.347
-164.955
-169.191
-172.839
-175.859
-178.38
-180.674
-183.144
-186.209
-190.052
-194.525
-199.294
-204.043
-208.602
-212.975
-217.241
-221.377
-225.138
-228.09
-229.724
-229.594
-227.385
-222.765
-215.388
-204.868
-190.944
-174.296
-156.228
-137.972
-120.374
-103.922
-88.8586
-75.2807
-63.1962
-52.5457
-43.209
-35.0078
-27.722
-21.1943
-15.421
-10.5471
-6.81956
-4.34889
-2.76552
-1.36667
0.263346
2.02144
3.33078
3.52672
2.36012
0.0743606
-2.77911
-5.26756
-6.47046
-6.10461
-4.81924
-2.59857
-1.51683
-52.9852
-48.6386
-45.3662
-42.7559
-40.3967
-38.3248
-36.5079
-34.947
-33.7156
-32.8821
-32.3029
-31.9739
-32.1159
-32.8074
-34.1997
-36.1178
-38.4717
-41.2579
-44.5287
-48.3247
-52.6099
-57.2573
-62.0261
-66.5761
-70.6221
-74.2079
-77.8648
-82.525
-89.1536
-97.9573
-108.259
-118.794
-127.847
-134.347
-138.409
-140.716
-142.163
-143.574
-145.493
-148.153
-151.563
-155.707
-160.349
-164.997
-169.258
-172.915
-175.928
-178.427
-180.69
-183.135
-186.205
-190.089
-194.625
-199.458
-204.256
-208.85
-213.246
-217.538
-221.708
-225.507
-228.492
-230.149
-230.034
-227.856
-223.316
-216.064
-205.675
-191.756
-174.979
-156.726
-138.294
-120.552
-103.987
-88.8345
-75.1884
-63.055
-52.3759
-43.032
-34.8366
-27.5576
-21.0319
-15.2596
-10.3808
-6.62489
-4.12056
-2.55622
-1.2188
0.377226
2.1481
3.53717
3.78485
2.58092
0.153512
-2.94569
-5.65857
-6.92132
-6.47401
-5.06619
-2.75611
-1.52795
-52.9936
-48.6304
-45.3718
-42.7631
-40.4076
-38.3405
-36.5263
-34.9659
-33.7312
-32.8936
-32.3032
-31.9604
-32.1025
-32.7895
-34.1988
-36.1372
-38.508
-41.3063
-44.585
-48.3851
-52.6711
-57.3181
-62.0879
-66.6382
-70.673
-74.2282
-77.8437
-82.4764
-89.117
-97.9465
-108.256
-118.825
-127.964
-134.513
-138.586
-140.853
-142.223
-143.555
-145.419
-148.057
-151.474
-155.659
-160.361
-165.063
-169.361
-173.033
-176.039
-178.511
-180.731
-183.141
-186.22
-190.166
-194.794
-199.722
-204.597
-209.239
-213.665
-217.982
-222.188
-226.027
-229.045
-230.724
-230.622
-228.474
-224.026
-216.926
-206.718
-192.838
-175.91
-157.421
-138.754
-120.813
-104.088
-88.8108
-75.0705
-62.8744
-52.1678
-42.8329
-34.671
-27.4168
-20.8868
-15.0938
-10.1833
-6.36954
-3.79641
-2.20706
-0.89492
0.686436
2.45443
3.90242
4.18424
2.90812
0.2697
-3.1961
-6.24017
-7.58482
-7.01105
-5.42086
-2.97227
-1.56001
-53.0111
-48.6238
-45.3807
-42.7732
-40.4225
-38.3616
-36.5507
-34.9909
-33.7522
-32.9112
-32.3092
-31.9498
-32.0928
-32.7747
-34.2083
-36.1726
-38.5632
-41.3742
-44.6593
-48.46
-52.7413
-57.3814
-62.1471
-66.6965
-70.7224
-74.2506
-77.8277
-82.4353
-89.0878
-97.9333
-108.228
-118.807
-128.04
-134.662
-138.764
-141
-142.287
-143.528
-145.325
-147.938
-151.371
-155.61
-160.388
-165.16
-169.509
-173.204
-176.202
-178.637
-180.8
-183.162
-186.251
-190.277
-195.031
-200.091
-205.072
-209.778
-214.234
-218.573
-222.811
-226.687
-229.734
-231.426
-231.327
-229.2
-224.852
-217.934
-207.953
-194.15
-177.059
-158.29
-139.338
-121.154
-104.234
-88.802
-74.9446
-62.6713
-51.9315
-42.6097
-34.5016
-27.3064
-20.7841
-14.9592
-9.99175
-6.07753
-3.3816
-1.71817
-0.402317
1.16882
2.9501
4.44322
4.73369
3.34615
0.428567
-3.53346
-7.01648
-8.45641
-7.70545
-5.87488
-3.22812
-1.6357
-53.0184
-48.6184
-45.3942
-42.7874
-40.4423
-38.3887
-36.5816
-35.0223
-33.779
-32.9356
-32.324
-31.9466
-32.0874
-32.767
-34.2313
-36.2246
-38.6346
-41.4558
-44.7437
-48.5402
-52.8101
-57.4347
-62.1883
-66.734
-70.7558
-74.2694
-77.8257
-82.4255
-89.0935
-97.9375
-108.183
-118.734
-128.047
-134.772
-138.919
-141.137
-142.346
-143.49
-145.214
-147.802
-151.259
-155.567
-160.438
-165.299
-169.712
-173.434
-176.418
-178.804
-180.891
-183.191
-186.292
-190.427
-195.351
-200.586
-205.696
-210.469
-214.943
-219.29
-223.548
-227.455
-230.526
-232.226
-232.121
-230.001
-225.744
-219.01
-209.279
-195.601
-178.355
-159.287
-140.022
-121.567
-104.425
-88.8172
-74.8251
-62.4625
-51.6863
-42.3845
-34.3488
-27.2452
-20.7523
-14.8818
-9.83436
-5.79111
-2.92848
-1.13534
0.231771
1.80445
3.61769
5.14627
5.42125
3.89023
0.629409
-3.97355
-8.00035
-9.53009
-8.53825
-6.40485
-3.50287
-1.75073
-53.0093
-48.6118
-45.41
-42.8042
-40.4664
-38.4215
-36.619
-35.0603
-33.812
-32.9669
-32.349
-31.9541
-32.087
-32.7742
-34.2706
-36.2905
-38.7152
-41.5419
-44.8287
-48.6166
-52.8685
-57.4688
-62.2008
-66.7363
-70.759
-74.2792
-77.8488
-82.4731
-89.1608
-97.9764
-108.132
-118.613
-127.969
-134.823
-139.029
-141.249
-142.393
-143.441
-145.086
-147.649
-151.14
-155.536
-160.524
-165.497
-169.985
-173.731
-176.691
-179.01
-181
-183.223
-186.344
-190.627
-195.774
-201.222
-206.473
-211.301
-215.771
-220.104
-224.371
-228.304
-231.399
-233.104
-232.987
-230.863
-226.68
-220.121
-210.646
-197.13
-179.75
-160.38
-140.789
-122.045
-104.665
-88.862
-74.7178
-62.2516
-51.431
-42.1517
-34.2022
-27.2198
-20.801
-14.8758
-9.72165
-5.52663
-2.4633
-0.493286
0.966836
2.56995
4.42608
5.98686
6.22633
4.52825
0.858488
-4.54956
-9.22353
-10.817
-9.50708
-7.00013
-3.80396
-1.88112
-53.0022
-48.6099
-45.4305
-42.824
-40.4946
-38.4598
-36.6628
-35.1051
-33.8519
-33.0051
-32.3849
-31.9699
-32.094
-32.8086
-34.3294
-36.3688
-38.8017
-41.6296
-44.9124
-48.6888
-52.9192
-57.4907
-62.1943
-66.7127
-70.7388
-74.284
-77.9006
-82.5843
-89.2961
-98.0551
-108.087
-118.453
-127.795
-134.79
-139.079
-141.327
-142.42
-143.377
-144.943
-147.484
-151.019
-155.529
-160.672
-165.777
-170.339
-174.098
-177.019
-179.254
-181.126
-183.256
-186.417
-190.899
-196.321
-202.008
-207.396
-212.255
-216.693
-220.99
-225.255
-229.215
-232.335
-234.047
-233.915
-231.776
-227.647
-221.248
-212.014
-198.678
-181.188
-161.531
-141.616
-122.58
-104.95
-88.9387
-74.6266
-62.042
-51.1684
-41.9137
-34.0648
-27.233
-20.9318
-14.9597
-9.66705
-5.29585
-2.00947
0.174631
1.76602
3.42919
5.33177
6.92715
7.11942
5.23808
1.09415
-5.30747
-10.7315
-12.322
-10.5871
-7.63801
-4.14027
-2.01275
-52.9957
-48.6086
-45.4546
-42.8472
-40.5269
-38.5031
-36.7128
-35.1569
-33.8992
-33.0511
-32.4326
-31.9944
-32.114
-32.8762
-34.4118
-36.4622
-38.897
-41.7217
-44.9975
-48.7593
-52.9652
-57.5039
-62.1742
-66.6731
-70.7092
-74.2979
-77.9849
-82.7495
-89.4856
-98.1706
-108.058
-118.263
-127.532
-134.664
-139.069
-141.364
-142.423
-143.299
-144.785
-147.311
-150.904
-155.577
-160.912
-166.153
-170.776
-174.534
-177.399
-179.532
-181.266
-183.294
-186.526
-191.268
-197.007
-202.942
-208.451
-213.313
-217.689
-221.929
-226.184
-230.17
-233.322
-235.045
-234.899
-232.741
-228.642
-222.385
-213.368
-200.202
-182.624
-162.703
-142.481
-123.159
-105.277
-89.0476
-74.5529
-61.8343
-50.8963
-41.6664
-33.9329
-27.2794
-21.1339
-15.1543
-9.68522
-5.10645
-1.58804
0.835267
2.59127
4.33226
6.28387
7.9201
8.06051
6.00158
1.29736
-6.3572
-12.6446
-14.1001
-11.7467
-8.26507
-4.50249
-2.10691
-52.9943
-48.6109
-45.4824
-42.8738
-40.5633
-38.5514
-36.7689
-35.2159
-33.9542
-33.1065
-32.4942
-32.0379
-32.1605
-32.9791
-34.5236
-36.5774
-39.008
-41.8247
-45.0888
-48.832
-53.0095
-57.5096
-62.1379
-66.6102
-70.6611
-74.3144
-78.0976
-82.9557
-89.7125
-98.3174
-108.049
-118.065
-127.224
-134.434
-138.986
-141.345
-142.393
-143.202
-144.614
-147.134
-150.817
-155.722
-161.266
-166.629
-171.294
-175.032
-177.828
-179.844
-181.419
-183.342
-186.694
-191.754
-197.837
-204.017
-209.62
-214.452
-218.739
-222.905
-227.143
-231.157
-234.349
-236.091
-235.935
-233.757
-229.672
-223.529
-214.698
-201.672
-184.018
-163.865
-143.364
-123.771
-105.642
-89.1879
-74.4975
-61.6282
-50.6124
-41.4059
-33.8044
-27.3597
-21.4082
-15.4713
-9.79426
-4.96721
-1.20915
1.45747
3.40113
5.22617
7.23109
8.91535
9.00015
6.81317
1.3826
-7.84379
-15.0945
-16.2296
-13.0309
-8.88639
-4.8773
-2.18355
-52.9801
-48.6207
-45.5162
-42.9044
-40.604
-38.6045
-36.831
-35.2821
-34.0177
-33.1744
-32.5761
-32.1104
-32.2384
-33.1166
-34.6643
-36.7138
-39.1345
-41.9383
-45.1861
-48.9063
-53.0516
-57.5093
-62.0925
-66.5374
-70.6036
-74.3262
-78.2186
-83.1774
-89.9584
-98.4827
-108.054
-117.882
-126.903
-134.098
-138.818
-141.272
-142.335
-143.088
-144.435
-146.96
-150.809
-156.003
-161.742
-167.201
-171.885
-175.587
-178.302
-180.185
-181.585
-183.411
-186.947
-192.373
-198.81
-205.215
-210.882
-215.656
-219.831
-223.905
-228.121
-232.166
-235.404
-237.177
-237.018
-234.822
-230.742
-224.686
-216.008
-203.073
-185.341
-164.988
-144.243
-124.405
-106.039
-89.3586
-74.4606
-61.4234
-50.3139
-41.127
-33.6747
-27.4718
-21.7541
-15.8973
-10.0119
-4.88586
-0.87263
2.01516
4.14032
6.04444
8.12194
9.86132
9.91384
7.61068
1.26677
-9.68115
-17.815
-18.3825
-14.2231
-9.4376
-5.27615
-2.28167
-52.9402
-48.6322
-45.554
-42.9391
-40.6494
-38.6625
-36.899
-35.3553
-34.0922
-33.2592
-32.684
-32.2105
-32.3487
-33.2897
-34.8337
-36.8699
-39.2737
-42.0596
-45.2864
-48.9796
-53.0881
-57.4995
-62.0368
-66.4569
-70.542
-74.3395
-78.3478
-83.4116
-90.2196
-98.6559
-108.05
-117.673
-126.53
-133.682
-138.558
-141.156
-142.252
-142.957
-144.246
-146.823
-150.953
-156.429
-162.332
-167.855
-172.538
-176.194
-178.815
-180.555
-181.762
-183.519
-187.309
-193.131
-199.914
-206.516
-212.217
-216.909
-220.952
-224.922
-229.11
-233.186
-236.478
-238.292
-238.141
-235.933
-231.854
-225.872
-217.303
-204.399
-186.575
-166.052
-145.104
-125.052
-106.464
-89.5589
-74.4429
-61.2194
-49.9977
-40.8238
-33.5379
-27.6151
-22.1742
-16.4255
-10.3591
-4.86995
-0.578865
2.49972
4.75552
6.74357
8.91754
10.6945
10.7992
8.33311
1.09403
-11.5194
-20.2713
-20.1325
-15.041
-9.67433
-5.41685
-2.30079
-52.9021
-48.649
-45.5947
-42.9771
-40.6993
-38.7254
-36.9729
-35.4365
-34.1803
-33.3658
-32.8177
-32.3382
-32.4926
-33.4976
-35.032
-37.0456
-39.4259
-42.1888
-45.3904
-49.052
-53.1187
-57.4793
-61.9695
-66.3667
-70.474
-74.351
-78.4803
-83.6525
-90.4857
-98.8317
-108.048
-117.441
-126.091
-133.163
-138.156
-140.998
-142.151
-142.824
-144.063
-146.807
-151.274
-156.989
-163.018
-168.58
-173.245
-176.844
-179.363
-180.951
-181.951
-183.693
-187.799
-194.025
-201.131
-207.899
-213.608
-218.197
-222.095
-225.95
-230.103
-234.211
-237.562
-239.428
-239.296
-237.085
-233.007
-227.099
-218.588
-205.644
-187.706
-167.043
-145.935
-125.703
-106.914
-89.7886
-74.4456
-61.0169
-49.6612
-40.4901
-33.3874
-27.7897
-22.671
-17.0595
-10.8348
-4.94136
-0.334904
2.91568
5.24684
7.33107
9.58586
11.3652
11.598
9.08629
1.10919
-13.0135
-21.9421
-21.2375
-15.4711
-9.77967
-5.6784
-2.60776
-52.8676
-48.6697
-45.6384
-43.0184
-40.7537
-38.7935
-37.0527
-35.5285
-34.2843
-33.4974
-32.9757
-32.4965
-32.6726
-33.7373
-35.2566
-37.2389
-39.5892
-42.3245
-45.497
-49.1225
-53.1424
-57.4492
-61.8923
-66.2679
-70.3994
-74.3584
-78.6112
-83.8915
-90.7435
-98.9979
-108.048
-117.223
-125.649
-132.564
-137.583
-140.698
-142.003
-142.712
-143.957
-146.978
-151.746
-157.658
-163.782
-169.362
-173.999
-177.534
-179.941
-181.371
-182.158
-183.96
-188.427
-195.041
-202.438
-209.342
-215.038
-219.514
-223.256
-226.986
-231.097
-235.234
-238.648
-240.575
-240.475
-238.269
-234.193
-228.371
-219.866
-206.802
-188.727
-167.951
-146.729
-126.355
-107.388
-90.0488
-74.4717
-60.8179
-49.3029
-40.1195
-33.2172
-27.9957
-23.25
-17.7975
-11.4116
-5.11402
-0.157884
3.22946
5.60402
7.77291
10.0431
11.7722
12.1088
9.66542
1.27106
-13.4086
-22.2453
-21.5182
-15.5994
-9.56903
-5.08249
-2.4213
-52.8386
-48.6941
-45.6847
-43.0628
-40.8123
-38.8665
-37.1397
-35.6333
-34.4077
-33.6528
-33.1563
-32.686
-32.8886
-34.005
-35.504
-37.4464
-39.7607
-42.464
-45.6034
-49.1884
-53.1577
-57.4095
-61.8064
-66.1616
-70.3179
-74.3594
-78.7352
-84.1195
-90.9827
-99.1435
-108.036
-117.016
-125.25
-132
-136.924
-140.134
-141.784
-142.639
-144.016
-147.316
-152.339
-158.414
-164.609
-170.193
-174.791
-178.255
-180.545
-181.811
-182.397
-184.347
-189.192
-196.163
-203.813
-210.827
-216.497
-220.851
-224.431
-228.028
-232.089
-236.251
-239.726
-241.724
-241.668
-239.48
-235.4
-229.674
-221.131
-207.867
-189.634
-168.774
-147.482
-127.005
-107.884
-90.342
-74.5257
-60.6268
-48.9233
-39.7067
-33.0214
-28.2306
-23.9103
-18.6396
-12.0904
-5.39393
-0.102524
3.38515
5.81805
8.08073
10.3527
11.9084
12.1427
9.70841
1.52043
-12.1655
-20.8317
-20.6972
-15.3829
-9.67383
-5.08933
-2.44054
-52.805
-48.7266
-45.7347
-43.1105
-40.8751
-38.9447
-37.2368
-35.7525
-34.5512
-33.828
-33.3562
-32.9047
-33.1366
-34.2954
-35.7696
-37.6643
-39.9373
-42.6047
-45.7072
-49.2476
-53.1634
-57.36
-61.7124
-66.0481
-70.2288
-74.3504
-78.8434
-84.3237
-91.1929
-99.2618
-108.003
-116.81
-124.896
-131.518
-136.36
-139.647
-141.541
-142.6
-144.26
-147.799
-153.025
-159.236
-165.487
-171.062
-175.615
-178.999
-181.168
-182.266
-182.689
-184.872
-190.083
-197.37
-205.235
-212.339
-217.977
-222.207
-225.62
-229.076
-233.078
-237.257
-240.791
-242.865
-242.865
-240.71
-236.626
-230.984
-222.37
-208.83
-190.424
-169.512
-148.194
-127.651
-108.403
-90.6723
-74.615
-60.4515
-48.5261
-39.2485
-32.7923
-28.4925
-24.6729
-19.6192
-12.8786
-5.77418
-0.178304
3.38827
5.87403
8.19892
10.4233
11.8152
11.95
9.37528
1.66022
-10.1575
-17.8563
-18.4173
-14.4074
-9.49263
-5.24573
-2.5762
-52.7516
-48.7637
-45.7884
-43.1617
-40.9425
-39.029
-37.346
-35.8874
-34.7132
-34.0187
-33.5715
-33.1505
-33.4143
-34.6034
-36.0483
-37.8886
-40.1161
-42.7439
-45.8061
-49.2983
-53.1589
-57.3013
-61.6107
-65.9277
-70.1321
-74.3293
-78.9302
-84.495
-91.3665
-99.3519
-107.954
-116.6
-124.558
-131.111
-135.951
-139.311
-141.363
-142.657
-144.61
-148.362
-153.775
-160.113
-166.406
-171.961
-176.461
-179.758
-181.808
-182.73
-183.062
-185.542
-191.086
-198.64
-206.688
-213.87
-219.473
-223.577
-226.821
-230.128
-234.061
-238.248
-241.834
-243.992
-244.06
-241.952
-237.868
-232.283
-223.566
-209.682
-191.099
-170.167
-148.866
-128.296
-108.949
-91.0453
-74.7494
-60.3039
-48.1211
-38.7443
-32.5312
-28.7962
-25.5123
-20.6337
-13.6903
-6.22407
-0.411412
3.22883
5.85714
8.29156
10.459
11.7414
11.6447
8.83476
1.57616
-8.54239
-15.1728
-16.0125
-13.0051
-8.83396
-4.98933
-2.5719
-52.7049
-48.8059
-45.8448
-43.2166
-41.0145
-39.122
-37.4682
-36.0377
-34.891
-34.2211
-33.7989
-33.4204
-33.7188
-34.9238
-36.3347
-38.1157
-40.2943
-42.8797
-45.8981
-49.3394
-53.144
-57.2333
-61.5013
-65.8005
-70.0277
-74.296
-78.9947
-84.6323
-91.5025
-99.4116
-107.889
-116.392
-124.23
-130.719
-135.585
-139.015
-141.207
-142.762
-145.011
-148.983
-154.58
-161.033
-167.357
-172.881
-177.321
-180.522
-182.459
-183.203
-183.545
-186.35
-192.183
-199.954
-208.158
-215.411
-220.981
-224.96
-228.033
-231.184
-235.035
-239.219
-242.849
-245.097
-245.248
-243.2
-239.123
-233.544
-224.693
-210.414
-191.662
-170.745
-149.501
-128.939
-109.523
-91.4684
-74.9422
-60.2026
-47.7233
-38.2037
-32.2339
-29.0662
-26.3956
-21.8525
-14.7442
-6.86011
-0.830503
2.97856
5.84441
8.37568
10.4683
11.5685
11.1503
8.1421
1.38931
-7.23463
-12.9162
-13.9003
-11.6186
-8.09206
-4.68523
-2.48563
-52.6686
-48.853
-45.9038
-43.2765
-41.0913
-39.2263
-37.6034
-36.202
-35.0821
-34.4323
-34.0352
-33.7092
-34.0437
-35.2509
-36.6239
-38.3426
-40.4702
-43.0105
-45.9824
-49.3706
-53.1189
-57.1563
-61.3841
-65.666
-69.9152
-74.2503
-79.0382
-84.7395
-91.6054
-99.4442
-107.81
-116.185
-123.906
-130.332
-135.224
-138.734
-141.082
-142.912
-145.454
-149.649
-155.426
-161.986
-168.33
-173.812
-178.183
-181.283
-183.116
-183.693
-184.154
-187.283
-193.354
-201.298
-209.635
-216.957
-222.495
-226.352
-229.254
-232.241
-235.997
-240.165
-243.828
-246.176
-246.426
-244.453
-240.405
-234.753
-225.706
-211.014
-192.115
-171.253
-150.103
-129.584
-110.129
-91.9498
-75.2101
-60.1724
-47.3603
-37.6428
-31.8782
-29.4489
-27.6368
-23.3833
-15.9673
-7.68492
-1.43087
2.6523
5.73192
8.27867
10.2213
11.0624
10.3636
7.27956
1.16906
-6.0682
-10.8339
-11.8646
-10.1815
-7.32715
-4.52129
-2.38439
-52.6421
-48.9046
-45.9651
-43.3414
-41.1753
-39.3428
-37.7503
-36.3782
-35.2837
-34.65
-34.2774
-34.0106
-34.3814
-35.5792
-36.9122
-38.5675
-40.6426
-43.1355
-46.0583
-49.3918
-53.0839
-57.0702
-61.2586
-65.5237
-69.7939
-74.1919
-79.0619
-84.8201
-91.6806
-99.4537
-107.717
-115.977
-123.594
-129.97
-134.892
-138.483
-140.996
-143.1
-145.928
-150.35
-156.304
-162.963
-169.312
-174.742
-179.037
-182.032
-183.774
-184.218
-184.894
-188.321
-194.582
-202.659
-211.111
-218.501
-224.013
-227.751
-230.483
-233.299
-236.946
-241.085
-244.766
-247.225
-247.6
-245.701
-241.731
-235.903
-226.552
-211.467
-192.464
-171.697
-150.676
-130.232
-110.77
-92.4983
-75.5737
-60.2484
-47.0884
-37.1393
-31.6582
-29.8032
-28.4032
-24.4333
-17.0474
-8.73358
-2.36333
1.99004
5.23553
7.78147
9.54443
10.1386
9.24482
6.24461
0.915117
-5.02538
-8.94473
-9.94525
-8.74287
-6.54958
-4.40787
-2.26944
-52.6204
-48.9635
-46.0313
-43.4095
-41.27
-39.471
-37.9073
-36.5637
-35.4934
-34.8724
-34.5232
-34.3191
-34.7255
-35.9036
-37.1972
-38.789
-40.8106
-43.2542
-46.1257
-49.4033
-53.0392
-56.9751
-61.1245
-65.3729
-69.6633
-74.1203
-79.066
-84.8754
-91.7296
-99.4414
-107.611
-115.765
-123.29
-129.626
-134.583
-138.261
-140.947
-143.32
-146.427
-151.077
-157.206
-163.954
-170.294
-175.662
-179.872
-182.767
-184.428
-184.8
-185.756
-189.444
-195.854
-204.028
-212.58
-220.038
-225.528
-229.152
-231.718
-234.357
-237.882
-241.975
-245.655
-248.238
-248.781
-246.934
-243.09
-236.989
-227.208
-211.767
-192.714
-172.083
-151.222
-130.883
-111.449
-93.1248
-76.0552
-60.4683
-46.9663
-36.718
-31.2854
-29.8069
-28.7604
-24.8406
-17.7471
-9.84877
-3.53941
0.996214
4.38048
6.90387
8.49441
8.9038
7.92283
5.15193
0.641982
-4.15259
-7.3375
-8.26746
-7.4317
-5.81032
-4.24342
-2.12993
-52.5893
-49.0276
-46.1037
-43.4825
-41.3777
-39.6094
-38.0725
-36.7561
-35.7088
-35.0982
-34.7707
-34.6292
-35.07
-36.2206
-37.4776
-39.006
-40.9735
-43.366
-46.1844
-49.4052
-52.985
-56.8708
-60.9815
-65.2133
-69.5225
-74.0349
-79.0503
-84.9058
-91.753
-99.4081
-107.493
-115.55
-122.992
-129.302
-134.299
-138.07
-140.935
-143.568
-146.947
-151.824
-158.124
-164.948
-171.266
-176.561
-180.68
-183.486
-185.079
-185.464
-186.724
-190.634
-197.156
-205.396
-214.034
-221.56
-227.036
-230.552
-232.957
-235.415
-238.805
-242.833
-246.487
-249.204
-249.985
-248.162
-244.413
-237.998
-227.668
-211.92
-192.876
-172.416
-151.742
-131.537
-112.167
-93.8314
-76.6773
-60.9288
-47.0722
-36.6049
-31.1096
-29.3739
-28.0936
-24.2445
-17.7696
-10.5675
-4.54657
-0.0127838
3.38381
5.82192
7.25965
7.55701
6.59187
4.13725
0.396823
-3.44473
-6.02611
-6.86864
-6.30333
-5.14046
-4.01173
-1.96943
-52.5702
-49.097
-46.1781
-43.5649
-41.4986
-39.7562
-38.2442
-36.9535
-35.9283
-35.3264
-35.0185
-34.9366
-35.4098
-36.5304
-37.7519
-39.2179
-41.1308
-43.4707
-46.2345
-49.3977
-52.9215
-56.7574
-60.8294
-65.0444
-69.371
-73.9349
-79.0146
-84.9115
-91.7514
-99.3544
-107.362
-115.332
-122.702
-128.996
-134.041
-137.913
-140.956
-143.841
-147.482
-152.584
-159.048
-165.936
-172.216
-177.431
-181.456
-184.194
-185.736
-186.223
-187.779
-191.874
-198.48
-206.759
-215.466
-223.061
-228.531
-231.95
-234.198
-236.473
-239.711
-243.654
-247.256
-250.112
-251.221
-249.435
-245.598
-238.908
-227.944
-211.937
-192.959
-172.703
-152.238
-132.189
-112.918
-94.629
-77.4391
-61.528
-47.5359
-36.9589
-31.1015
-28.8672
-27.1235
-23.3134
-17.4076
-10.9019
-5.28486
-0.906746
2.38983
4.70549
6.02073
6.26818
5.3876
3.27522
0.207501
-2.8693
-4.96794
-5.71936
-5.35026
-4.54344
-3.73886
-1.79877
-52.5677
-49.1753
-46.2512
-43.6605
-41.6312
-39.9099
-38.4208
-37.1542
-36.1504
-35.5564
-35.2656
-35.2388
-35.7423
-36.8349
-38.0194
-39.4239
-41.2821
-43.568
-46.2761
-49.3812
-52.8489
-56.6347
-60.6679
-64.8657
-69.2081
-73.8197
-78.9582
-84.8925
-91.7253
-99.2808
-107.218
-115.111
-122.42
-128.709
-133.809
-137.787
-141.009
-144.137
-148.03
-153.353
-159.972
-166.906
-173.136
-178.266
-182.204
-184.898
-186.416
-187.078
-188.903
-193.152
-199.819
-208.11
-216.87
-224.532
-230.009
-233.342
-235.441
-237.528
-240.598
-244.437
-247.942
-250.921
-252.432
-250.839
-246.617
-239.666
-228.054
-211.85
-192.978
-172.936
-152.696
-132.842
-113.699
-95.4675
-78.2719
-62.3398
-48.3367
-37.5868
-31.426
-28.6262
-26.3077
-22.4301
-16.9513
-11.0367
-5.82891
-1.67215
1.4753
3.66346
4.8878
5.12708
4.36391
2.58068
0.0785546
-2.39267
-4.10751
-4.77175
-4.54485
-4.01134
-3.45012
-1.62712
-52.58
-49.2612
-46.326
-43.7717
-41.7734
-40.0693
-38.6008
-37.3566
-36.3738
-35.7874
-35.5113
-35.5344
-36.067
-37.1342
-38.2794
-39.6236
-41.4269
-43.6578
-46.3092
-49.3558
-52.7672
-56.5028
-60.4969
-64.677
-69.0333
-73.6887
-78.8807
-84.8487
-91.6749
-99.1876
-107.062
-114.887
-122.146
-128.439
-133.6
-137.693
-141.092
-144.451
-148.588
-154.124
-160.886
-167.851
-174.018
-179.064
-182.929
-185.607
-187.14
-188.025
-190.082
-194.459
-201.168
-209.448
-218.24
-225.967
-231.463
-234.724
-236.683
-238.579
-241.471
-245.177
-248.514
-251.594
-253.455
-252.343
-247.581
-240.224
-227.998
-211.647
-192.922
-173.121
-153.11
-133.445
-114.454
-96.331
-79.1966
-63.3443
-49.2562
-38.4453
-32.0218
-28.5921
-25.6867
-21.6798
-16.5142
-11.0759
-6.23634
-2.31145
0.676525
2.74695
3.90545
4.15976
3.5238
2.03913
0.00436131
-1.98779
-3.39674
-3.98193
-3.85914
-3.53487
-3.16029
-1.46005
-52.6057
-49.3481
-46.4079
-43.8979
-41.9233
-40.2332
-38.783
-37.5597
-36.5973
-36.0189
-35.7555
-35.823
-36.3832
-37.426
-38.5314
-39.8165
-41.5651
-43.7402
-46.3341
-49.3218
-52.6768
-56.3616
-60.3161
-64.4778
-68.8461
-73.5413
-78.7819
-84.7801
-91.6003
-99.0749
-106.895
-114.66
-121.88
-128.186
-133.415
-137.627
-141.201
-144.781
-149.153
-154.894
-161.784
-168.762
-174.86
-179.826
-183.642
-186.335
-187.926
-189.053
-191.305
-195.788
-202.522
-210.767
-219.571
-227.358
-232.885
-236.092
-237.92
-239.623
-242.331
-245.854
-248.963
-252.285
-254.384
-253.707
-248.587
-240.524
-227.762
-211.312
-192.733
-173.185
-153.437
-133.999
-115.199
-97.2158
-80.2181
-64.3438
-50.2123
-39.4412
-32.7205
-28.6746
-25.2262
-21.067
-16.127
-11.0629
-6.53803
-2.8308
0.00482318
1.97112
3.0812
3.36199
2.85131
1.62969
-0.0214978
-1.63358
-2.79822
-3.31458
-3.26936
-3.1058
-2.87693
-1.30042
-52.6342
-49.4283
-46.5024
-44.0371
-42.0792
-40.4006
-38.9666
-37.7624
-36.8198
-36.2503
-35.9985
-36.1042
-36.6891
-37.7083
-38.7751
-40.0024
-41.6965
-43.8152
-46.351
-49.2795
-52.5776
-56.2112
-60.1256
-64.268
-68.6461
-73.377
-78.6613
-84.6867
-91.5018
-98.943
-106.715
-114.43
-121.622
-127.948
-133.251
-137.588
-141.334
-145.126
-149.721
-155.655
-162.658
-169.634
-175.661
-180.561
-184.358
-187.096
-188.785
-190.151
-192.563
-197.135
-203.879
-212.067
-220.858
-228.696
-234.266
-237.44
-239.146
-240.661
-243.177
-246.451
-249.334
-253.055
-255.414
-254.528
-249.494
-240.496
-227.226
-210.765
-192.414
-173.158
-153.695
-134.515
-115.932
-98.124
-81.1943
-65.2182
-51.16
-40.4342
-33.4035
-28.8011
-24.8733
-20.5617
-15.7824
-11.0101
-6.74868
-3.23673
-0.540363
1.3348
2.40834
2.72074
2.32791
1.33428
-0.00330304
-1.31332
-2.28304
-2.74167
-2.75582
-2.71699
-2.60407
-1.14942
-52.6864
-49.5015
-46.613
-44.1865
-42.2398
-40.5707
-39.1508
-37.964
-37.0403
-36.4807
-36.24
-36.3783
-36.9839
-37.9794
-39.0104
-40.1811
-41.8209
-43.8829
-46.3602
-49.2291
-52.4699
-56.0516
-59.9252
-64.0472
-68.4327
-73.1953
-78.5187
-84.5686
-91.3794
-98.7919
-106.523
-114.196
-121.372
-127.726
-133.107
-137.571
-141.487
-145.482
-150.29
-156.405
-163.501
-170.462
-176.423
-181.277
-185.088
-187.903
-189.724
-191.31
-193.849
-198.495
-205.236
-213.345
-222.099
-229.977
-235.599
-238.761
-240.356
-241.693
-244.005
-246.972
-249.7
-253.601
-256.004
-254.603
-249.857
-239.981
-226.413
-210.067
-191.994
-173.051
-153.893
-134.997
-116.641
-98.9788
-81.9642
-65.9459
-52.0222
-41.3221
-34.0017
-28.9159
-24.5774
-20.1257
-15.4607
-10.9164
-6.87475
-3.53494
-0.963757
0.831637
1.87693
2.22249
1.93738
1.13871
0.0564329
-1.01368
-1.82867
-2.24081
-2.30219
-2.36202
-2.34381
-1.00726
-52.7603
-49.5745
-46.7395
-44.3437
-42.404
-40.7427
-39.3351
-38.1639
-37.2581
-36.7094
-36.4801
-36.6453
-37.2668
-38.2381
-39.2375
-40.3526
-41.9384
-43.9434
-46.3619
-49.171
-52.3539
-55.883
-59.715
-63.8154
-68.2057
-72.9959
-78.354
-84.4257
-91.2333
-98.6216
-106.318
-113.96
-121.128
-127.519
-132.981
-137.575
-141.658
-145.848
-150.857
-157.137
-164.31
-171.247
-177.152
-181.985
-185.844
-188.766
-190.742
-192.519
-195.159
-199.868
-206.592
-214.604
-223.295
-231.197
-236.875
-240.049
-241.547
-242.719
-244.806
-247.44
-250.079
-254.03
-256.38
-254.055
-249.171
-239.042
-225.418
-209.265
-191.487
-172.871
-154.044
-135.436
-117.288
-99.6191
-82.4766
-66.504
-52.7327
-42.0492
-34.4756
-28.9801
-24.2985
-19.7243
-15.1411
-10.777
-6.91908
-3.73022
-1.27086
0.454468
1.47725
1.85508
1.66593
1.03179
0.156084
-0.724171
-1.4175
-1.79405
-1.895
-2.03515
-2.09681
-0.873517
-52.8438
-49.6555
-46.8804
-44.5065
-42.571
-40.916
-39.5189
-38.3618
-37.4727
-36.9359
-36.7184
-36.9055
-37.5379
-38.4835
-39.4568
-40.517
-42.0492
-43.9971
-46.3566
-49.1053
-52.2298
-55.7055
-59.495
-63.5722
-67.9647
-72.7784
-78.167
-84.2581
-91.0635
-98.4322
-106.102
-113.72
-120.891
-127.325
-132.873
-137.596
-141.844
-146.221
-151.42
-157.849
-165.081
-171.989
-177.855
-182.696
-186.635
-189.689
-191.835
-193.772
-196.489
-201.251
-207.947
-215.842
-224.442
-232.346
-238.085
-241.293
-242.711
-243.732
-245.573
-247.86
-250.424
-254.024
-256.346
-253.513
-248.083
-237.854
-224.3
-208.376
-190.907
-172.641
-154.156
-135.81
-117.743
-99.9407
-82.731
-66.8655
-53.2537
-42.5894
-34.8047
-28.9694
-24.007
-19.3289
-14.8056
-10.5858
-6.88288
-3.82646
-1.4669
0.196401
1.2003
1.60761
1.50174
1.00437
0.294435
-0.436648
-1.03578
-1.38707
-1.52326
-1.73123
-1.8626
-0.747362
-52.9332
-49.7516
-47.0331
-44.6734
-42.7401
-41.0899
-39.702
-38.5575
-37.6837
-37.1594
-36.9544
-37.1591
-37.797
-38.7159
-39.6676
-40.6744
-42.1533
-44.0442
-46.3444
-49.0325
-52.0979
-55.5193
-59.2652
-63.3177
-67.7095
-72.5426
-77.9574
-84.0658
-90.8702
-98.2234
-105.872
-113.477
-120.66
-127.143
-132.782
-137.634
-142.041
-146.597
-151.975
-158.538
-165.814
-172.694
-178.54
-183.418
-187.467
-190.675
-192.997
-195.061
-197.837
-202.647
-209.3
-217.055
-225.533
-233.413
-239.211
-242.474
-243.834
-244.722
-246.309
-248.27
-250.747
-253.799
-255.683
-252.774
-246.796
-236.53
-223.101
-207.426
-190.292
-172.392
-154.214
-136.021
-117.868
-99.928
-82.7316
-67.0164
-53.5698
-42.9349
-34.9811
-28.8691
-23.6808
-18.9173
-14.4396
-10.3374
-6.7666
-3.82689
-1.55673
0.0509008
1.03773
1.47022
1.43457
1.04896
0.470518
-0.144768
-0.672731
-1.00846
-1.17797
-1.44568
-1.64002
-0.627761
-53.0114
-49.8662
-47.1951
-44.8431
-42.9106
-41.264
-39.8839
-38.7507
-37.8911
-37.3793
-37.1873
-37.4058
-38.0442
-38.936
-39.868
-40.825
-42.2511
-44.085
-46.3258
-48.9528
-51.9583
-55.3244
-59.0257
-63.0517
-67.4398
-72.2882
-77.7253
-83.8489
-90.6534
-97.9954
-105.63
-113.229
-120.433
-126.974
-132.706
-137.687
-142.25
-146.975
-152.518
-159.198
-166.504
-173.362
-179.214
-184.158
-188.341
-191.722
-194.217
-196.377
-199.201
-204.054
-210.649
-218.248
-226.586
-234.415
-240.259
-243.585
-244.903
-245.689
-247.017
-248.692
-251.06
-253.58
-254.671
-251.809
-245.402
-235.133
-221.855
-206.46
-189.683
-172.116
-154.139
-135.92
-117.609
-99.6027
-82.4908
-66.9559
-53.6802
-43.0882
-35.0044
-28.6714
-23.3041
-18.4722
-14.0311
-10.0272
-6.57037
-3.73428
-1.54489
0.011778
0.981779
1.43406
1.45565
1.15943
0.683552
0.156417
-0.31988
-0.649089
-0.851802
-1.17448
-1.42758
-0.513612
-53.1035
-50.0002
-47.3641
-45.0148
-43.0819
-41.4377
-40.0643
-38.9414
-38.0946
-37.5952
-37.4165
-37.6457
-38.2795
-39.1439
-40.0573
-40.9682
-42.3427
-44.12
-46.3012
-48.8666
-51.8114
-55.1213
-58.7765
-62.7741
-67.1554
-72.0151
-77.4707
-83.6074
-90.4131
-97.7477
-105.374
-112.976
-120.21
-126.814
-132.644
-137.754
-142.469
-147.359
-153.053
-159.832
-167.156
-173.998
-179.879
-184.918
-189.258
-192.821
-195.484
-197.714
-200.582
-205.47
-211.991
-219.434
-227.624
-235.383
-241.266
-244.646
-245.935
-246.637
-247.723
-249.155
-251.316
-253.381
-253.544
-250.721
-243.961
-233.707
-220.616
-205.53
-189.079
-171.735
-153.781
-135.418
-116.99
-99.0004
-82.0266
-66.6915
-53.5927
-43.0576
-34.8783
-28.3723
-22.8653
-17.9804
-13.571
-9.65114
-6.29423
-3.55118
-1.43566
0.0732343
1.02538
1.49131
1.55753
1.33074
0.932891
0.47077
0.0294571