/*--------------------------------*- C++ -*----------------------------------*\
| =========                 |                                                 |
| \\      /  F ield         | OpenFOAM: The Open Source CFD Toolbox           |
|  \\    /   O peration     | Version:  4.1                                   |
|   \\  /    A nd           | Web:      www.OpenFOAM.org                      |
|    \\/     M anipulation  |                                                 |
\*---------------------------------------------------------------------------*/
FoamFile
{
    version     2.0;
    format      ascii;
    class       surfaceScalarField;
    location    "900";
    object      phi;
}
// * * * * * * * * * * * * * * * * * * * * * * * * * * * * * * * * * * * * * //

dimensions      [0 3 -1 0 0 0 0];

internalField   nonuniform List<scalar> 
52920
(
1230.89
26.5406
1203.71
27.1806
1168.93
34.7771
1124.33
44.608
1068.44
55.8907
999.73
68.7155
918.247
81.4866
824.671
93.58
724.295
100.38
631.554
92.7465
574.393
57.1693
576.952
-2.55056
634.198
-57.2387
730.506
-96.3008
847.903
-117.39
988.472
-140.563
1156.59
-168.109
1353.04
-196.451
1574.52
-221.474
1814.04
-239.514
2061.69
-247.651
2305.36
-243.661
2533.28
-227.925
2740.19
-206.906
2934.37
-194.176
3139.33
-204.959
3386.49
-247.152
3698.89
-312.399
4070.08
-371.187
4458.34
-388.263
4798.44
-340.096
5024.49
-226.052
5103.1
-78.6041
5047.86
55.2364
4903.71
144.151
4723.74
179.977
4549.27
174.469
4402.91
146.365
4294.42
108.486
4229.59
64.8358
4214.59
15.0024
4248.35
-33.7625
4319.62
-71.2631
4415.36
-95.7449
4524.87
-109.51
4642.7
-117.82
4769.52
-126.823
4911.88
-142.36
5081.73
-169.847
5293.06
-211.33
5554.81
-261.752
5867.25
-312.436
6224.86
-357.61
6621.81
-396.947
7055.55
-433.742
7526.38
-470.825
8033.06
-506.683
8567.35
-534.286
9111.79
-544.447
9642.65
-530.853
10135
-492.335
10566.7
-431.676
10918.7
-352.007
11172.2
-253.53
11307.4
-135.186
11305.3
2.12463
11159.2
146.045
10892.4
266.772
10548.4
344.079
10170.6
377.715
9792.06
378.58
9433.45
358.611
9106.61
326.84
8817.6
289.015
8569.37
248.225
8364
205.371
8204.91
159.09
8099.98
104.935
8064.88
35.0973
8123.47
-58.5855
8304.06
-180.597
8628.55
-324.483
9090.59
-462.046
9632.15
-541.556
10143.4
-511.27
10503.3
-359.922
10637.4
-134.058
10550.4
87.0176
10315.2
235.173
10023.7
291.511
9743.58
280.121
9509.4
234.171
9330.99
178.41
9197.13
133.869
9082.78
114.345
8968.29
114.487
8848.75
119.544
8728.79
119.955
8610.68
118.115
94.2338
1233.94
54.731
1205.2
55.9249
1168.65
71.3236
1122.23
91.0394
1064.5
113.619
993.751
139.469
909.675
165.567
813.663
189.595
713.381
200.668
623.326
182.808
564.86
115.643
559.309
3.0097
606.928
-104.85
697.912
-187.276
817.26
-236.732
968.03
-291.327
1151.86
-351.935
1365.29
-409.877
1601.66
-457.834
1852.12
-489.975
2106.11
-501.64
2351.68
-489.225
2577.47
-453.713
2777.51
-406.948
2956.88
-373.539
3133.36
-381.435
3333.4
-447.188
3581.73
-560.732
3884.14
-673.6
4219.73
-723.848
4543.04
-663.4
4791.17
-474.181
4909.36
-196.793
4888.57
76.0273
4767.15
265.569
4601.38
345.749
4436.77
339.082
4298.45
284.69
4197.18
209.758
4137.02
125.001
4120.25
31.7732
4144.02
-57.5292
4197.72
-124.963
4269.86
-167.886
4353.4
-193.05
4448.15
-212.56
4559.9
-238.572
4698.68
-281.143
4877.66
-348.821
5109.15
-442.825
5397.22
-549.813
5735.59
-650.81
6113.82
-735.841
6524.82
-807.946
6967.97
-876.888
7446.34
-949.196
7960.27
-1020.61
8501.29
-1075.31
9050.94
-1094.1
9584.91
-1064.82
10078.7
-986.133
10512
-864.922
10869.4
-709.479
11137.1
-521.166
11294.8
-292.945
11315.8
-18.8859
11184.6
277.31
10922.3
529.037
10576.2
690.161
10194.5
759.426
9813
760.092
9453.96
717.646
9129.72
651.078
8846.64
572.096
8608.05
486.821
8415.74
397.679
8269.61
305.217
8165.5
209.044
8095.45
105.153
8054.81
-17.9536
8054.44
-180.22
8127.68
-397.727
8316.34
-650.703
8632.65
-857.867
9028.98
-907.597
9405.73
-736.672
9653.69
-382.017
9709.97
30.7326
9599.99
345.153
9406.98
484.521
9204.12
482.985
9032.72
405.567
8907.46
303.674
8817.65
223.676
8736.44
195.556
8644.37
206.553
8539.19
224.733
8427.97
231.173
8315.89
230.189
186.16
1231.59
86.8872
1198.31
89.2125
1156.63
112.996
1104.95
142.728
1042.17
176.406
966.653
214.984
878.069
254.155
778.919
288.748
678.463
301.128
589.251
272.024
527.324
177.578
510.703
19.6403
536.319
-130.458
599.255
-250.204
694.297
-331.768
829.075
-426.1
1001.46
-524.311
1203.75
-612.165
1427.82
-681.903
1665.13
-727.28
1905.88
-742.394
2138.63
-721.965
2351.35
-666.433
2535.26
-590.859
2690.21
-528.482
2828.46
-519.682
2975.38
-594.105
3161.96
-747.314
3404.05
-915.682
3692.24
-1012.04
3996.42
-967.586
4268.5
-746.253
4451.15
-379.449
4508.43
18.7491
4452.03
321.978
4332.61
465.17
4199.91
471.779
4084
400.607
3998.72
295.038
3948.07
175.647
3931.2
48.6493
3943.32
-69.6475
3976.5
-158.138
4025.76
-217.15
4092.03
-259.311
4180.11
-300.641
4295.58
-354.042
4443.89
-429.456
4631.8
-536.727
4865.06
-676.087
5142.52
-827.273
5457.15
-965.431
5803.67
-1082.36
6183.13
-1187.41
6600.76
-1294.52
7060.31
-1408.74
7558.78
-1519.08
8083.75
-1600.28
8614.95
-1625.3
9129.23
-1579.09
9605.37
-1462.27
10026.9
-1286.41
10382.2
-1064.78
10661.5
-800.452
10850.1
-481.625
10921.4
-90.1267
10846.4
352.329
10632.9
742.513
10324.8
998.287
9971.73
1112.44
9612.03
1119.79
9269.58
1060.1
8957.44
963.222
8681.75
847.783
8444.33
724.247
8243.55
598.454
8073.99
474.779
7925.01
358.026
7781.3
248.864
7632.31
131.036
7487.88
-35.7963
7386.9
-296.742
7384.61
-648.416
7517.49
-990.749
7775.34
-1165.44
8100.84
-1062.18
8403.11
-684.287
8586.22
-152.371
8615.65
315.717
8545.64
554.527
8445.56
583.066
8360.71
490.426
8310.41
353.972
8283.23
250.851
8248.78
230.004
8188.13
267.205
8103.75
309.12
8006.36
328.561
7908.03
328.514
269.634
1224.09
124.254
1184.98
128.322
1136.67
161.311
1078.03
201.368
1008.26
246.181
925.95
297.295
831.291
348.818
728.251
391.791
626.76
402.624
537.639
361.15
472.232
242.993
434.032
57.8526
412.704
-109.12
432.841
-270.33
504.842
-403.761
625.782
-547.033
780.644
-679.168
959.197
-790.714
1156.07
-878.775
1366.42
-937.618
1583.55
-959.52
1797.79
-936.206
1996.84
-865.481
2168.84
-762.857
2308.03
-667.668
2421.18
-632.822
2533.58
-706.504
2682.91
-896.648
2890.36
-1123.13
3148.01
-1269.68
3431.53
-1251.11
3706.41
-1021.13
3926.95
-599.983
4046.42
-100.722
4052.34
316.068
3983.16
534.348
3887.91
567.031
3799.64
488.882
3734.82
359.852
3697.74
212.735
3684.57
61.8153
3689.08
-74.1472
3708.87
-177.932
3748.73
-257.007
3815.79
-326.368
3912.67
-397.514
4037.24
-478.611
4187.71
-579.923
4367.04
-716.055
4580.59
-889.637
4831.01
-1077.69
5120.44
-1254.86
5453.43
-1415.35
5833.2
-1567.18
6257.15
-1718.47
6717.18
-1868.78
7202
-2003.9
7697.47
-2095.75
8187.03
-2114.86
8653.89
-2045.95
9083.79
-1892.17
9466.69
-1669.31
9796.95
-1395.05
10070.4
-1073.86
10276.1
-687.371
10386
-199.992
10358
380.261
10186.1
914.487
9910.93
1273.41
9583.76
1439.62
9244.08
1459.47
8916.11
1388.06
8612.47
1266.86
8338.44
1121.82
8094.67
968.018
7878.56
814.562
7685.01
668.329
7506.47
536.562
7331.85
423.484
7149.11
313.784
6958.86
154.447
6787.66
-125.538
6685.4
-546.158
6695.87
-1001.22
6827.72
-1297.29
7052.6
-1287.06
7310.45
-942.134
7520.66
-362.581
7623.16
213.216
7641.13
536.557
7629.12
595.074
7627.94
491.608
7656.61
325.3
7697.37
210.094
7712.65
214.73
7685.1
294.755
7624.64
369.579
7547.16
406.039
7472.57
403.101
338.598
1211
167.521
1165.58
173.743
1110.28
216.614
1044.35
267.306
966.858
323.674
876.585
387.571
774.798
450.608
667.191
499.401
564.196
505.622
475.769
449.582
406.382
312.387
340.546
123.701
275.247
-43.8046
274.965
-270.037
340.006
-468.794
442.515
-649.537
563.799
-800.447
698.684
-925.594
847.276
-1027.36
1010.01
-1100.35
1185.28
-1134.78
1367.46
-1118.39
1545.87
-1043.89
1706.12
-923.101
1835.57
-797.12
1933.97
-731.221
2027.28
-799.805
2160.17
-1029.54
2354.91
-1317.86
2599.48
-1514.25
2870.94
-1522.57
3144.96
-1295.15
3390.44
-845.468
3557.69
-267.962
3617.97
255.786
3595.9
556.424
3537.12
625.804
3476.91
549.102
3434.04
402.723
3412.71
234.063
3405.79
68.7389
3407.53
-75.8863
3426.82
-197.216
3479.64
-309.826
3571.08
-417.805
3691.29
-517.723
3827.63
-614.953
3975.2
-727.489
4139.35
-880.199
4332.13
-1082.41
4568.13
-1313.7
4861.76
-1548.49
5218.1
-1771.69
5625.53
-1974.6
6062.46
-2155.4
6510.37
-2316.68
6958.82
-2452.35
7400.81
-2537.74
7827.48
-2541.53
8228.19
-2446.67
8593.58
-2257.56
8918.16
-1993.89
9201.35
-1678.23
9445.69
-1318.2
9648.11
-889.795
9783.78
-335.662
9797.94
366.106
9664.78
1047.65
9418.72
1519.47
9112.29
1746.04
8787.33
1784.43
8468.95
1706.44
8169.73
1566.08
7894.74
1396.81
7644.81
1217.95
7418.2
1041.17
7211.58
874.951
7020.25
727.889
6836.56
607.178
6647.68
502.663
6442.91
359.217
6233.73
83.6381
6063.48
-375.903
5983.91
-921.656
6018.37
-1331.75
6154.13
-1422.81
6350.53
-1138.53
6547.73
-559.787
6682.31
78.6367
6757.64
461.228
6815.32
537.399
6889.29
417.635
6994.64
219.948
7102.21
102.528
7166.54
150.402
7174.38
286.908
7142.99
400.972
7092.08
456.95
7041.02
454.162
400.01
1183.73
218.601
1131.78
225.699
1070.78
277.613
999.829
338.261
916.749
406.758
819.664
484.659
711.126
559.151
599.037
611.493
495.009
609.654
407.675
536.921
333.451
386.62
252.527
204.639
175.341
33.4098
164.904
-259.584
212.76
-516.641
281.443
-718.212
356.511
-875.51
435.656
-1004.73
522.027
-1113.73
620.025
-1198.34
732.943
-1247.7
861.213
-1246.65
999.915
-1182.59
1136.81
-1060
1255.89
-916.189
1351.72
-827.045
1449.12
-897.206
1590.25
-1170.67
1789.25
-1516.85
2031.23
-1756.23
2299.24
-1790.57
2577.97
-1573.87
2846.47
-1113.97
3057.01
-478.503
3170.18
142.621
3193.2
533.407
3169.13
649.868
3136.23
582.014
3115.72
423.226
3110.17
239.623
3109.48
69.4236
3116.78
-83.1758
3159.65
-240.087
3255.35
-405.521
3389.12
-551.576
3533.89
-662.493
3674.36
-755.419
3810.96
-864.089
3956.39
-1025.63
4134.14
-1260.16
4373.74
-1553.3
4694.67
-1869.42
5086.66
-2163.67
5513.97
-2401.92
5941.6
-2583.03
6353.18
-2728.26
6748.53
-2847.7
7130.34
-2919.55
7495.07
-2906.25
7833.82
-2785.42
8137.83
-2561.57
8402.98
-2259.04
8631.68
-1906.93
8832.46
-1518.98
9012.28
-1069.62
9155.56
-478.937
9201.47
320.197
9104.27
1144.84
8886.61
1737.14
8600.11
2032.54
8288.67
2095.88
7978.78
2016.33
7683.67
1861.19
7408.92
1671.56
7156.17
1470.7
6924.95
1272.39
6713.42
1086.48
6518.54
922.775
6334.59
791.129
6149.51
687.739
5946.09
562.643
5722.48
307.24
5508.62
-162.036
5359.42
-772.459
5312.54
-1284.87
5367.57
-1477.84
5498.1
-1269.06
5661.05
-722.739
5800.97
-61.278
5911.37
350.82
6023.9
424.87
6163.99
277.55
6341.64
42.2933
6515.28
-71.1107
6632.81
32.8668
6681.47
238.253
6678.58
403.861
6645.46
490.073
6594.03
505.594
476.351
1152.32
277.003
1092.32
285.707
1023.74
346.189
946.92
415.086
858.739
494.943
755.911
587.489
641.622
673.442
525.998
727.119
422.07
713.586
335.073
623.923
254.787
466.912
173.832
285.605
107.504
99.7718
75.5
-227.566
97.4285
-538.562
131.49
-752.267
164.381
-908.396
194.562
-1034.91
225.827
-1144.99
262.531
-1235.04
308.683
-1293.84
369.146
-1307.11
447.234
-1260.67
540.584
-1153.34
641.469
-1017.07
746.353
-931.925
867.648
-1018.5
1023.69
-1326.71
1217.65
-1710.8
1444.78
-1983.37
1703.15
-2048.94
1986.54
-1857.26
2279.89
-1407.32
2540.68
-739.294
2714.01
-30.7027
2784.6
462.818
2795.58
638.892
2790.08
587.522
2791.66
421.642
2798.94
232.344
2805.08
63.293
2836.91
-115.004
2935.23
-338.402
3091.06
-561.354
3260.57
-721.081
3413.42
-815.347
3544.95
-886.944
3664.31
-983.445
3790.91
-1152.23
3961.24
-1430.48
4218.38
-1810.44
4575.49
-2226.53
4996.08
-2584.26
5423.58
-2829.42
5821.51
-2980.96
6184.49
-3091.24
6524.74
-3187.96
6852.62
-3247.43
7166.52
-3220.15
7456.05
-3074.95
7710.27
-2815.79
7924.02
-2472.79
8100.66
-2083.57
8252.7
-1671.03
8396.32
-1213.24
8528.71
-611.325
8591.7
257.207
8523.64
1212.9
8332.57
1928.21
8066.42
2298.69
7769.67
2392.63
7469.79
2316.2
7180.72
2150.27
6908.74
1943.54
6656.49
1722.95
6424.77
1504.11
6213.03
1298.21
6019.4
1116.4
5839.29
971.239
5661.7
865.332
5468.7
755.642
5246.58
529.356
5008.79
75.7533
4807.26
-570.929
4690.63
-1168.24
4671.04
-1458.26
4733.85
-1331.87
4849.22
-838.107
4974.72
-186.776
5103.55
221.987
5259.02
269.407
5456.5
80.0622
5705.37
-206.568
5954.98
-320.722
6136.4
-148.558
6223.15
151.505
6230.92
396.087
6188.39
532.601
6104.32
589.666
587.849
1117.02
341.529
1049.74
352.993
973.23
422.699
889.387
498.931
795.227
589.108
686.691
696.028
567.539
792.598
449.775
844.886
347.197
816.168
258.079
713.046
165.375
559.625
73.6138
377.378
16.1979
157.217
-16.8695
-194.483
-11.873
-543.549
-0.404872
-763.728
7.99279
-916.787
13.5246
-1040.43
18.8335
-1150.29
24.8988
-1241.1
33.0149
-1301.96
49.0135
-1323.1
80.924
-1292.58
134.801
-1207.21
211.521
-1093.78
310.413
-1030.81
428.165
-1136.24
559.905
-1458.45
708.697
-1859.59
885.624
-2160.29
1105.6
-2268.9
1374.32
-2125.99
1682.97
-1715.96
1998.71
-1055.03
2243.26
-275.248
2370.89
335.19
2421.85
587.931
2445.55
563.823
2467.58
399.617
2482.73
217.197
2504.98
41.0486
2593.79
-203.815
2770.01
-514.618
2975.62
-766.961
3156.84
-902.297
3300.42
-958.927
3415.58
-1002.1
3515.53
-1083.4
3624.49
-1261.18
3795.34
-1601.34
4081.63
-2096.72
4477.15
-2622.06
4914.51
-3021.62
5325.49
-3240.4
5682.04
-3337.51
5992.9
-3402.09
6281.41
-3476.48
6563.38
-3529.39
6837.24
-3494
7089.66
-3327.37
7306.23
-3032.35
7479.22
-2645.79
7611.14
-2215.48
7716.11
-1776
7816.92
-1314.05
7923.21
-717.622
7986.56
193.862
7936.79
1262.67
7767.62
2097.38
7520.96
2545.35
7239.98
2673.61
6952.01
2604.18
6671.17
2431.11
6404.35
2210.36
6155.16
1972.14
5925.65
1733.62
5716.67
1507.19
5527.48
1305.6
5354.28
1144.44
5187.22
1032.4
5008.17
934.683
4795.36
742.167
4550.96
320.161
4313.47
-333.439
4137.16
-991.932
4048.55
-1369.64
4042.62
-1325.95
4101.26
-896.752
4196.95
-282.466
4331.11
87.8317
4518.07
82.4505
4764.61
-166.484
5099.41
-541.362
5455.16
-676.47
5707.33
-400.734
5806.47
52.3642
5788.41
414.151
5704.4
616.613
5565.9
728.162
742.509
1077.52
411.578
1003.91
426.6
920.218
506.394
829.159
589.992
728.128
690.142
613.433
810.724
490.096
915.938
371.882
963.102
271.171
916.882
174.226
809.996
64.3608
669.495
-31.6476
473.394
-86.6301
212.213
-110.89
-170.214
-117.05
-537.382
-117.564
-763.209
-117.822
-916.525
-117.113
-1041.14
-115.279
-1152.12
-114.28
-1242.1
-114.574
-1301.66
-111.434
-1326.24
-95.8657
-1308.14
-57.3637
-1245.71
8.99013
-1160.13
93.6504
-1115.46
178.086
-1220.67
253.962
-1534.32
333.388
-1939.01
431.888
-2258.79
576.034
-2413.05
789.46
-2339.41
1078.79
-2005.29
1429.36
-1405.6
1746.92
-592.799
1948.69
133.417
2049.68
486.942
2105.81
507.699
2144.03
361.402
2165.04
196.195
2232.61
-26.5267
2413.9
-385.095
2661.43
-762.145
2885.77
-991.3
3056.49
-1073.02
3182.57
-1085.01
3279.84
-1099.37
3359.71
-1163.27
3453.23
-1354.69
3635.14
-1783.25
3960.85
-2422.43
4390.98
-3052.19
4830.11
-3460.74
5210.71
-3621
5519.32
-3646.12
5778.12
-3660.89
6019.14
-3717.5
6262
-3772.24
6504.29
-3736.3
6729.29
-3552.37
6918.67
-3221.73
7061.5
-2788.61
7158.25
-2312.23
7222.61
-1840.36
7280.64
-1372.08
7351.29
-788.273
7399.33
145.822
7354.62
1307.39
7199.96
2252.04
6970.12
2775.18
6704.87
2938.86
6429.94
2879.11
6158.93
2702.12
5898.97
2470.31
5654.57
2216.55
5429.18
1959.01
5225.27
1711.09
5043.2
1487.67
4879.38
1308.26
4723.84
1187.93
4558.09
1100.44
4360.19
940.066
4122.76
557.589
3864.25
-74.9306
3640.01
-767.689
3488.67
-1218.3
3413.77
-1251.05
3408.11
-891.093
3460.93
-335.285
3589.02
-40.256
3794
-122.532
4094.39
-466.867
4561.56
-1008.54
5041.79
-1156.7
5319.06
-678.003
5363.36
8.05865
5270.51
507.009
5122.73
764.388
4929.71
921.187
930.623
1035.04
486.035
956.023
505.614
865.704
596.715
767.244
688.454
658.499
798.891
537.156
932.07
410.381
1042.72
293.926
1079.56
192.664
1018.15
80.5225
922.142
-37.9689
787.993
-125.788
561.221
-177.758
264.196
-206.215
-141.745
-219.943
-523.646
-225.474
-757.671
-226.55
-915.443
-223.549
-1044.13
-218.074
-1157.59
-212.604
-1247.56
-207.686
-1306.57
-200.88
-1333.04
-187.498
-1321.52
-161.518
-1271.68
-116.311
-1205.33
-50.9226
-1180.85
17.67
-1289.26
68.4739
-1585.12
102.556
-1973.09
132.923
-2289.15
191.933
-2472.05
319.283
-2466.76
539.194
-2225.19
866.329
-1732.73
1234.95
-961.413
1518.8
-150.432
1679.39
326.359
1770.29
416.805
1819.58
312.118
1863.92
151.853
2023.66
-186.256
2306.45
-667.886
2586.91
-1042.61
2799.62
-1204.01
2949.9
-1223.29
3058.18
-1193.29
3138.42
-1179.61
3197.78
-1222.62
3280.39
-1437.3
3485.61
-1988.47
3855.38
-2792.21
4308.32
-3505.13
4732.57
-3884.99
5072.82
-3961.25
5331.52
-3904.83
5540.9
-3870.27
5739.05
-3915.64
5948.32
-3981.51
6165.33
-3953.32
6369.97
-3757.01
6540.19
-3391.95
6661.79
-2910.21
6732.84
-2383.28
6765.41
-1872.93
6785.74
-1392.41
6817.49
-820.025
6837.99
125.319
6784.89
1360.49
6635.92
2401.01
6418.85
2992.25
6168.18
3189.53
5906.53
3140.76
5646.11
2962.54
5393.96
2722.46
5155.42
2455.09
4935.49
2178.94
4738.46
1908.13
4565.9
1660.23
4414.17
1459.99
4272.11
1329.99
4121.58
1250.97
3943.7
1117.95
3718.5
782.785
3451.78
191.794
3193.22
-509.135
2985.61
-1010.69
2840.64
-1106.08
2762.05
-812.507
2761.29
-334.519
2871.71
-150.679
3083.45
-334.273
3474.16
-857.579
4084.95
-1619.32
4593.62
-1665.38
4777.79
-862.167
4698.22
87.6278
4511.51
693.719
4315.34
960.551
4111.42
1125.11
1120.63
979.444
561.693
900.404
584.655
807.743
689.378
703.501
792.698
586.743
915.652
458.47
1060.34
329.792
1171.4
216.754
1192.6
106.926
1127.98
-19.7741
1048.85
-132.606
900.829
-211.834
640.454
-266.913
319.281
-302.766
-105.885
-323.714
-502.694
-333.359
-748.022
-335.225
-913.574
-331.351
-1048
-324.346
-1164.59
-316.336
-1255.57
-307.626
-1315.28
-296.788
-1343.87
-280.661
-1337.64
-254.878
-1297.46
-215.101
-1245.11
-160.978
-1234.96
-103.769
-1346.47
-64.9934
-1623.89
-54.2229
-1983.86
-61.3968
-2281.97
-55.8556
-2477.59
4.41249
-2527.02
137.077
-2357.86
372.609
-1968.26
731.531
-1320.33
1073.86
-492.753
1305.41
94.8104
1432.72
289.505
1495.39
249.446
1616.68
30.5744
1904.31
-473.89
2248.85
-1012.42
2518.23
-1311.98
2705.43
-1391.2
2835.69
-1353.55
2928.75
-1286.34
2992.49
-1243.35
3031
-1261.14
3109.88
-1516.18
3349.4
-2227.98
3759.6
-3202.4
4218.33
-3963.86
4613.56
-4280.22
4908.93
-4256.62
5119.89
-4115.78
5284.38
-4034.76
5444.28
-4075.55
5624.38
-4161.61
5820.45
-4149.39
6009.34
-3945.89
6165.63
-3548.24
6272.3
-3016.88
6325.29
-2436.27
6334.79
-1882.43
6325.28
-1382.9
6319.95
-814.69
6304.98
140.282
6231.81
1433.66
6079.86
2552.97
5871.04
3201.07
5633.15
3427.41
5384.3
3389.61
5134.55
3212.29
4890.52
2966.5
4658.34
2687.27
4444.7
2392.58
4255.85
2096.98
4094.96
1821.12
3958.71
1596.24
3834.4
1454.3
3703.64
1381.73
3545.85
1275.74
3335.61
993.03
3075.27
452.138
2795.91
-229.778
2538.16
-752.935
2318.89
-886.816
2154.84
-648.451
2092.27
-271.951
2169.05
-227.464
2398.6
-563.82
2880.65
-1339.63
3478.72
-2217.39
3829.14
-2015.8
3840.37
-873.397
3645.48
282.521
3420.16
919.041
3249.26
1131.45
3100.61
1273.76
1288.02
924.881
644.815
841.523
668.014
746.442
784.461
637.354
901.788
512.671
1040.34
377.942
1195.08
250.224
1299.12
137.782
1305.05
12.9292
1252.83
-118.343
1180.12
-217.732
1000.22
-293.531
716.258
-353.443
379.202
-396.771
-62.5455
-424.264
-475.193
-437.799
-734.481
-441.254
-910.113
-438.093
-1051.16
-431.509
-1171.17
-423.264
-1263.81
-413.367
-1325.17
-400.43
-1356.8
-381.63
-1356.44
-353.527
-1325.56
-313.128
-1285.5
-260.229
-1287.86
-204.205
-1402.49
-166.531
-1661.56
-160.456
-1989.93
-178.103
-2264.32
-199.922
-2455.77
-194.578
-2532.36
-138.592
-2413.84
5.50435
-2112.35
294.486
-1609.31
636.773
-835.031
931.709
-200.115
1085.86
135.357
1197.7
137.612
1464.03
-235.75
1862.76
-872.617
2203.16
-1352.82
2439.07
-1547.88
2601.8
-1553.94
2715.89
-1467.64
2795.58
-1366.03
2842.04
-1289.8
2860.07
-1279.17
2944.81
-1600.91
3225.7
-2508.87
3665.17
-3641.87
4112.1
-4410.78
4469.42
-4637.54
4720.61
-4507.81
4888.99
-4284.17
5014.25
-4160.01
5140.51
-4201.81
5294.89
-4316
5472.69
-4327.19
5648.13
-4121.33
5793.01
-3693.13
5888.08
-3111.95
5927.87
-2476.07
5921.24
-1875.8
5890.05
-1351.71
5852.25
-776.887
5798.12
194.403
5696.33
1535.46
5534.18
2715.12
5329.52
3405.73
5102.49
3654.45
4865.56
3626.53
4626.04
3451.81
4389.91
3202.63
4164.08
2913.09
3956.99
2599.66
3777.34
2276.64
3630.5
1967.95
3513.35
1713.39
3411.3
1556.36
3303.35
1489.67
3163.86
1415.23
2973.83
1183.06
2729.91
696.061
2443.81
56.3272
2142.08
-451.207
1843.32
-588.058
1581.69
-386.824
1443.08
-133.334
1482.85
-267.233
1731.97
-812.943
2145.63
-1753.3
2473.54
-2545.3
2595.38
-2137.63
2497.25
-775.273
2260.09
519.687
2057.48
1121.64
1953.42
1235.51
1926.7
1300.48
1383.67
872.111
733.037
783.025
757.101
683.632
883.855
568.843
1016.58
436.09
1173.09
296.743
1334.42
172.266
1423.6
53.0673
1424.25
-84.6843
1390.59
-207.653
1303.09
-294.864
1087.44
-370.378
791.775
-434.513
443.341
-484.095
-12.9572
-516.571
-442.714
-532.921
-718.128
-537.655
-905.376
-535.27
-1053.54
-529.236
-1177.2
-521.063
-1271.98
-510.547
-1335.68
-496.251
-1371.1
-475.64
-1377.04
-445.81
-1355.39
-404.23
-1327.08
-351.024
-1341.06
-295.273
-1458.24
-255.334
-1701.5
-241.385
-2003.88
-247.274
-2258.43
-266.844
-2436.2
-286.61
-2512.6
-281.835
-2418.61
-224.601
-2169.58
-48.8682
-1785.04
281.2
-1165.09
578.768
-497.67
736.981
-22.8454
999.868
-125.268
1430.41
-666.286
1849.37
-1291.58
2144.03
-1647.48
2347.66
-1751.5
2491.84
-1698.12
2592.44
-1568.24
2659.03
-1432.62
2686.49
-1317.26
2686.16
-1278.84
2787.84
-1702.59
3111.33
-2832.37
3563.98
-4094.51
3984.71
-4831.51
4301.16
-4954
4512.92
-4719.56
4645.77
-4417.02
4738.06
-4252.29
4835.1
-4298.85
4966.37
-4447.27
5127.01
-4487.83
5289.27
-4283.59
5422.87
-3826.72
5506.92
-3196.01
5535.57
-2504.72
5517.32
-1857.54
5471.51
-1305.9
5406.43
-711.811
5312.37
288.469
5176.82
1671
4999.65
2892.29
4796.19
3609.19
4578.37
3872.27
4352.33
3852.57
4122.26
3681.88
3893.4
3431.5
3673.39
3133.1
3472.66
2800.4
3303.1
2446.2
3172.94
2098.11
3078.35
1807.98
3001.4
1633.31
2916.21
1574.86
2795.2
1536.24
2625.46
1352.8
2399.5
922.021
2117.88
337.945
1772.35
-105.667
1382.24
-197.954
1025.59
-30.1707
796.044
96.21
814.52
-285.709
976.602
-975.025
1052.08
-1828.77
1002.86
-2496.08
1007.29
-2142.06
948.783
-716.77
829.437
639.033
786.129
1164.95
934.719
1086.92
1257.79
977.41
1323.59
820.146
824.653
725.64
851.609
620.375
989.122
498.151
1138.81
357.285
1313.96
216.326
1475.39
92.7593
1547.17
-38.2702
1555.28
-178.253
1530.57
-285.312
1410.15
-365.074
1167.2
-440.557
867.263
-507.295
510.085
-561.054
40.812
-596.447
-407.313
-614.043
-700.526
-619.031
-900.383
-616.587
-1055.98
-610.283
-1183.5
-601.403
-1280.86
-589.602
-1347.48
-573.408
-1387.29
-550.294
-1400.15
-517.435
-1388.24
-472.856
-1371.65
-417.977
-1395.94
-361.376
-1514.83
-316.084
-1746.79
-287.889
-2032.07
-273.525
-2272.79
-275.795
-2433.93
-294.664
-2493.72
-306.756
-2406.52
-292.198
-2184.14
-231.006
-1846.22
1.72875
-1397.82
288.38
-784.309
575.458
-309.91
987.985
-537.788
1464.18
-1142.48
1818.08
-1645.47
2067.23
-1896.63
2248.66
-1932.93
2378.29
-1827.75
2466.17
-1656.11
2518.77
-1485.22
2525.38
-1323.86
2511.51
-1264.97
2640.98
-1832.05
3001.58
-3192.97
3449.89
-4542.82
3835.52
-5217.14
4113.43
-5231.91
4292.97
-4899.1
4397.97
-4522.02
4463.49
-4317.81
4535.32
-4370.69
4645.17
-4557.12
4788.4
-4631.06
4936.16
-4431.34
5056.83
-3947.39
5128.39
-3267.57
5145.55
-2521.87
5117.9
-1829.89
5062.63
-1250.63
4974.52
-623.7
4841.55
421.436
4670.32
1842.24
4476.01
3086.6
4272.25
3812.94
4062.51
4082.01
3846.31
4068.77
3624.7
3903.5
3402.1
3654.09
3186.93
3348.27
2992.03
2995.3
2833.22
2605.01
2722.1
2209.23
2653.95
1876.12
2605.43
1681.83
2544.45
1635.84
2442.08
1638.61
2285.11
1509.76
2069.24
1137.89
1774.31
632.874
1374.02
294.63
904.432
271.629
480.991
393.27
265.389
311.812
179.175
-199.494
-49.0881
-746.761
-397.964
-1479.89
-728.906
-2165.14
-837.657
-2033.31
-837.002
-717.425
-808.201
610.232
-860.896
1217.65
-1136.58
1362.61
-1662.5
1503.33
1733.95
769.438
918.032
669.704
951.343
556.918
1101.91
425.312
1270.41
277.011
1462.27
136.288
1616.11
8.04679
1675.41
-131.728
1695.05
-261.336
1660.18
-352.583
1501.4
-427.956
1242.58
-502.605
941.914
-569.722
577.204
-624.82
95.9153
-660.948
-371.182
-678.104
-683.368
-682.116
-896.368
-678.529
-1059.57
-670.92
-1191.11
-660.326
-1291.45
-646.147
-1361.66
-626.725
-1406.71
-599.352
-1427.52
-561.104
-1426.49
-510.534
-1422.22
-449.921
-1456.55
-386.816
-1577.94
-331.093
-1802.51
-287.896
-2075.27
-256.67
-2304.02
-238.968
-2451.63
-234.095
-2498.59
-229.079
-2411.53
-211.526
-2201.69
-175.017
-1882.73
-77.6827
-1495.15
190.397
-1052.38
639.473
-758.979
1090.79
-989.103
1468.66
-1520.35
1757.69
-1934.5
1980.17
-2119.11
2146.1
-2098.86
2262.18
-1943.83
2337.02
-1730.95
2374.19
-1522.4
2358.86
-1308.53
2339.42
-1245.53
2505.12
-1997.75
2891.31
-3579.16
3319.76
-4971.28
3667.42
-5564.8
3912.79
-5477.28
4068.03
-5054.34
4152.13
-4606.12
4196.22
-4361.9
4246.1
-4420.56
4335.42
-4646.44
4460.21
-4755.85
4591.41
-4562.55
4696.71
-4052.69
4753.12
-3323.99
4756.56
-2525.3
4719.7
-1793.03
4657.7
-1188.63
4549.27
-515.269
4379.61
591.096
4173.46
2048.38
3962.48
3297.57
3758.5
4016.93
3556.27
4284.24
3348.93
4276.11
3134.61
4117.82
2916.98
3871.72
2705.34
3559.91
2515.33
3185.31
2367.21
2753.13
2277.44
2299
2241.42
1912.14
2227
1696.26
2193.41
1669.43
2107.1
1724.92
1946.14
1670.73
1700.96
1383.07
1358.09
975.744
881.437
771.286
286.348
866.717
-249.12
928.739
-588.789
651.482
-918.179
129.896
-1285
-379.936
-1773.07
-991.825
-2380.23
-1557.98
-2918.78
-1494.75
-3184.25
-451.957
-3323.57
749.55
-3576.91
1470.99
-3986.51
1772.21
-4424.51
1941.33
2010.12
713.514
1005.45
613.345
1051.51
492.899
1222.36
350.279
1413.03
195.52
1617.03
53.8495
1757.78
-81.6723
1810.93
-220.515
1833.9
-331.936
1771.61
-410.615
1580.09
-482.477
1314.44
-555.158
1014.6
-620.315
642.368
-674.079
149.689
-708.896
-336.358
-724.272
-667.987
-726.41
-894.225
-720.906
-1065.06
-711.197
-1200.82
-697.978
-1304.66
-680.297
-1379.33
-656.281
-1430.72
-623.131
-1460.67
-577.847
-1471.77
-518.962
-1481.1
-448.643
-1526.86
-374.035
-1652.54
-305.26
-1871.28
-248.927
-2131.6
-204.55
-2348.39
-168.892
-2487.28
-135.548
-2531.93
-98.3855
-2448.69
-52.8542
-2247.21
31.5982
-1967.18
178.554
-1642.1
405.473
-1279.3
744.599
-1098.1
1108.9
-1353.4
1422.46
-1833.91
1683.37
-2195.4
1889.68
-2325.42
2041.27
-2250.44
2143.41
-2045.96
2204.59
-1792.13
2224.74
-1542.54
2188.02
-1271.81
2173.83
-1231.34
2379.89
-2203.81
2776.19
-3975.46
3173.53
-5368.61
3485.35
-5876.62
3705.76
-5697.69
3843.66
-5192.23
3912.03
-4674.49
3938.4
-4388.27
3968.56
-4450.73
4037.8
-4715.69
4143.18
-4861.22
4256.29
-4675.66
4344.24
-4140.64
4382.61
-3362.35
4369
-2511.7
4321.26
-1745.28
4252.49
-1119.86
4124.6
-387.386
3920.9
794.795
3683.03
2286.25
3458.38
3522.23
3255.59
4219.71
3060.77
4479.06
2861.36
4475.52
2653.02
4326.16
2438.85
4085.89
2229.15
3769.61
2042.37
3372.09
1904.15
2891.35
1838.48
2364.67
1842.59
1908.02
1873.7
1665.15
1872.15
1670.98
1781.55
1815.51
1568.94
1883.34
1241.26
1710.74
792.447
1424.56
190.849
1372.88
-416.637
1474.2
-840.455
1352.56
-1209.59
1020.62
-1716.35
636.655
-2273.03
176.743
-2879.16
-385.688
-3606.46
-830.687
-4336.11
-765.103
-4818.06
29.991
-5048.63
980.119
-5205.58
1627.95
-5364.74
1931.37
-5494.08
2070.66
2128.51
659.473
1097.09
556.16
1154.83
427.285
1351.23
272.423
1567.9
111.402
1778.05
-33.147
1902.33
-171.636
1949.42
-298.616
1960.88
-390.717
1863.71
-459.758
1649.13
-527.916
1382.6
-597.421
1084.1
-658.868
703.816
-709.579
200.404
-741.22
-304.714
-754.241
-654.963
-754.342
-894.122
-746.801
-1072.6
-734.696
-1212.92
-718.32
-1321.04
-696.419
-1401.23
-667.072
-1460.06
-627.613
-1500.13
-575.124
-1524.26
-508.055
-1548.17
-428.502
-1606.41
-343.899
-1737.14
-265.267
-1949.91
-199.882
-2196.98
-146.263
-2402.01
-100.791
-2532.75
-58.7907
-2573.93
-9.27871
-2498.2
59.4146
-2315.91
155.028
-2062.79
281.219
-1768.29
476.18
-1474.25
763.652
-1385.57
1078.09
-1667.84
1363.35
-2119.16
1606.2
-2438.25
1797.11
-2516.33
1933.84
-2387.18
2021.57
-2133.69
2068.44
-1839
2070.19
-1544.29
2015.26
-1216.87
2018.92
-1235
2263.87
-2448.76
2653.59
-4365.18
3013.48
-5728.5
3294.55
-6157.69
3497.26
-5900.4
3622.85
-5317.82
3678.32
-4729.97
3688.76
-4398.7
3700.26
-4462.23
3749.64
-4765.07
3835.45
-4947.04
3930.6
-4770.81
4001.11
-4211.14
4019.38
-3380.63
3985.37
-2477.69
3923.38
-1683.3
3843.78
-1040.26
3695.13
-238.734
3461.04
1028.88
3196.82
2550.47
2963.47
3755.58
2764.24
4418.94
2576.99
4666.32
2384.57
4667.94
2180.82
4529.91
1968.51
4298.2
1758.79
3979.33
1572.75
3558.13
1442.68
3021.42
1404.18
2403.17
1461.22
1850.99
1548.02
1578.35
1564.08
1654.92
1437.66
1941.93
1149.06
2171.94
708.195
2151.61
143.11
1989.65
-465.905
1981.9
-955.848
1964.15
-1385.61
1782.32
-1924.52
1559.53
-2540.34
1252.47
-3149.99
786.396
-3783.15
247.467
-4475.02
-138.817
-5157.58
-82.5366
-5639.3
511.714
-5894.11
1234.93
-6036.57
1770.41
-6164.53
2059.32
-6293.09
2199.23
2257.92
607.921
1192.21
498.826
1263.92
359.191
1490.87
190.22
1736.87
23.2579
1945.02
-121.779
2047.37
-255.127
2082.78
-363.762
2069.52
-438.901
1938.85
-500.174
1710.4
-564.233
1446.66
-629.53
1149.41
-686.24
760.531
-732.878
247.051
-760.65
-276.934
-771.574
-644.033
-770.169
-895.521
-761.036
-1081.73
-746.728
-1227.22
-727.189
-1340.57
-701.078
-1427.34
-666.667
-1494.47
-621.649
-1545.14
-563.46
-1582.44
-490.883
-1620.74
-406.435
-1690.86
-317.92
-1825.65
-236.457
-2031.37
-169.386
-2264.05
-115.555
-2455.84
-70.9707
-2577.33
-29.6815
-2615.22
19.3772
-2547.26
86.3601
-2382.89
178.548
-2154.97
303.408
-1893.15
491.696
-1662.54
753.147
-1647.02
1036.77
-1951.46
1300.16
-2382.55
1526.26
-2664.34
1701.83
-2691.9
1823.36
-2508.7
1896.31
-2206.65
1928.22
-1870.9
1911.08
-1527.15
1844.55
-1150.33
1878.53
-1268.98
2154.95
-2725.18
2522.75
-4732.97
2843.07
-6048.82
3099.18
-6413.8
3289.87
-6091.09
3406.28
-5434.23
3449.86
-4773.54
3444.43
-4393.27
3437.14
-4454.94
3466.71
-4794.64
3533.99
-5014.31
3613.57
-4850.4
3669.28
-4266.85
3667.41
-3378.75
3610.38
-2420.66
3530.18
-1603.09
3431.42
-941.508
3258.11
-65.4214
2998.36
1288.64
2714.25
2834.58
2478.26
3991.58
2285.3
4611.89
2105.77
4845.85
1919.35
4854.36
1718.81
4730.46