/*--------------------------------*- C++ -*----------------------------------*\
| =========                 |                                                 |
| \\      /  F ield         | OpenFOAM: The Open Source CFD Toolbox           |
|  \\    /   O peration     | Version:  4.1                                   |
|   \\  /    A nd           | Web:      www.OpenFOAM.org                      |
|    \\/     M anipulation  |                                                 |
\*---------------------------------------------------------------------------*/
FoamFile
{
    version     2.0;
    format      ascii;
    class       volVectorField;
    location    "900";
    object      U;
}
// * * * * * * * * * * * * * * * * * * * * * * * * * * * * * * * * * * * * * //

dimensions      [0 1 -1 0 0 0 0];

internalField   nonuniform List<vector> 
26785
(
(1.73338e-15 0.0297521 10.1851)
(1.5965e-15 0.0278478 9.57472)
(1.37972e-15 0.0290242 8.98555)
(4.04268e-15 0.0311627 8.38893)
(4.70646e-15 0.0338881 7.75241)
(-4.62227e-15 0.0371329 7.06963)
(-1.00586e-14 0.0402676 6.34549)
(-9.8651e-15 0.0431531 5.58573)
(-6.68132e-15 0.0444025 4.79579)
(-1.28484e-14 0.040314 4.02854)
(-2.76046e-14 0.025251 3.43431)
(-2.27973e-14 0.00247873 3.18111)
(-1.49236e-14 -0.0156887 3.28485)
(-8.85e-15 -0.0261177 3.61726)
(-5.99583e-15 -0.0302637 4.06603)
(-4.05837e-15 -0.0350909 4.60357)
(-1.95673e-15 -0.0423615 5.24946)
(-1.07974e-15 -0.0511289 6.00943)
(-2.46692e-16 -0.0596191 6.86832)
(-1.17619e-15 -0.0661062 7.79421)
(-2.5211e-15 -0.069248 8.74292)
(-7.95367e-16 -0.0680433 9.66233)
(-3.33444e-15 -0.0624952 10.4987)
(-5.13291e-15 -0.0549383 11.2147)
(-3.66208e-15 -0.0504323 11.818)
(-3.30902e-15 -0.0547572 12.3792)
(-5.89106e-16 -0.0710688 13.0195)
(-3.42797e-16 -0.096002 13.8616)
(3.31722e-15 -0.117492 14.9458)
(2.46115e-15 -0.121119 16.1687)
(1.80591e-16 -0.098377 17.3028)
(-3.30651e-15 -0.0521715 18.0863)
(-1.16043e-15 0.00241053 18.3422)
(2.57553e-15 0.0489028 18.0531)
(5.73206e-15 0.0785043 17.3664)
(4.28639e-15 0.0898085 16.491)
(5.43771e-15 0.0872363 15.604)
(4.76477e-15 0.0769349 14.8095)
(3.85282e-15 0.0629784 14.1503)
(2.19678e-15 0.0463893 13.6436)
(9.32062e-16 0.0273726 13.3052)
(3.38989e-15 0.00883581 13.141)
(1.48677e-15 -0.00596408 13.1265)
(1.48516e-15 -0.0162461 13.2131)
(-6.02748e-15 -0.02256 13.3556)
(1.2645e-16 -0.0262609 13.5247)
(-4.20313e-15 -0.0289942 13.7114)
(-4.22535e-15 -0.0325016 13.9247)
(-5.5614e-15 -0.0386918 14.1893)
(-5.68513e-15 -0.0487022 14.5413)
(-9.05747e-15 -0.0616525 15.0126)
(-1.05761e-14 -0.075515 15.6121)
(-1.16758e-14 -0.0888463 16.3255)
(-1.02273e-14 -0.101458 17.1304)
(-8.59172e-15 -0.113984 18.0113)
(-7.78032e-15 -0.126849 18.9639)
(-4.27635e-15 -0.139203 19.9872)
(-4.92372e-15 -0.148556 21.0689)
(-3.67262e-15 -0.151778 22.1746)
(2.84139e-16 -0.146695 23.2507)
(5.21323e-16 -0.132846 24.2366)
(2.20448e-15 -0.110981 25.0783)
(2.60052e-15 -0.0817325 25.7332)
(5.76113e-15 -0.0451645 26.1641)
(5.39619e-15 -0.00222743 26.3356)
(6.03124e-15 0.0451895 26.2114)
(6.16452e-15 0.0929373 25.7646)
(6.23183e-15 0.13244 25.0182)
(6.28941e-15 0.157634 24.0604)
(6.1753e-15 0.168449 23.0001)
(7.88219e-15 0.1683 21.9266)
(7.65192e-15 0.161033 20.898)
(8.28195e-15 0.149682 19.9468)
(9.00581e-15 0.136331 19.0883)
(9.78349e-15 0.122279 18.3285)
(9.51484e-15 0.107976 17.669)
(1.04169e-14 0.0924299 17.1118)
(1.06299e-14 0.0723607 16.6638)
(1.06303e-14 0.0426025 16.3441)
(1.04277e-14 -0.00147655 16.1913)
(1.01493e-14 -0.0603523 16.2538)
(9.10233e-15 -0.126215 16.5832)
(7.91011e-15 -0.181118 17.1995)
(7.56228e-15 -0.201665 18.0379)
(7.45364e-15 -0.171987 18.9206)
(7.4846e-15 -0.0976506 19.6078)
(7.56596e-15 -0.00500683 19.9024)
(7.79108e-15 0.0758726 19.7428)
(7.63759e-15 0.12625 19.2309)
(7.55566e-15 0.143694 18.547)
(7.72645e-15 0.137593 17.8491)
(7.80428e-15 0.119637 17.2283)
(7.89736e-15 0.09854 16.7179)
(8.07317e-15 0.0814983 16.3127)
(8.29008e-15 0.0730304 15.9759)
(8.55959e-15 0.0713188 15.6548)
(8.71699e-15 0.0715356 15.3325)
(8.84938e-15 0.0703819 14.9845)
(8.99043e-15 0.0688599 14.7109)
(8.62678e-15 0.0592247 14.2708)
(2.13847e-15 0.080665 10.2164)
(2.47948e-15 0.0778742 9.59266)
(-1.42661e-16 0.0832715 8.9902)
(-2.44927e-15 0.0909171 8.38013)
(2.99333e-15 0.0999025 7.73098)
(1.36706e-15 0.110342 7.03649)
(-2.71562e-15 0.120584 6.29878)
(2.94632e-15 0.129713 5.52161)
(-3.54021e-15 0.132447 4.72234)
(-1.44613e-14 0.119215 3.97104)
(-1.43743e-14 0.0779232 3.39576)
(-8.29546e-15 0.0148052 3.10955)
(-1.60136e-15 -0.0400751 3.15584)
(3.90685e-15 -0.0783308 3.44854)
(4.07841e-15 -0.101737 3.89274)
(-6.05491e-16 -0.12689 4.47183)
(2.43383e-15 -0.155221 5.19544)
(5.03793e-15 -0.182639 6.0447)
(3.64031e-15 -0.20498 6.98366)
(5.22742e-15 -0.218912 7.96924)
(1.74726e-15 -0.221948 8.95338)
(5.40534e-16 -0.212313 9.88492)
(2.44733e-15 -0.190861 10.714)
(-1.90464e-16 -0.164431 11.4058)
(9.06957e-16 -0.146573 11.9626)
(7.43563e-16 -0.152226 12.4372)
(-1.56339e-15 -0.18969 12.9258)
(-8.78667e-16 -0.251552 13.5418)
(-6.98347e-16 -0.3089 14.3551)
(-3.24801e-15 -0.325844 15.3329)
(-4.25298e-15 -0.276095 16.3354)
(3.31237e-16 -0.156373 17.152)
(1.9877e-15 0.000881022 17.5628)
(3.26314e-15 0.145193 17.4346)
(5.5832e-15 0.238762 16.8588)
(3.53781e-15 0.27358 16.0516)
(3.75286e-15 0.264432 15.2096)
(3.08693e-15 0.231467 14.4492)
(2.43872e-15 0.188012 13.8198)
(2.07007e-15 0.138561 13.3392)
(1.50342e-15 0.0836866 13.0128)
(-1.28845e-17 0.0303321 12.834)
(5.63488e-15 -0.0114073 12.7815)
(-1.85711e-15 -0.0383017 12.8087)
(3.83388e-15 -0.0527752 12.8792)
(3.9273e-15 -0.061056 12.9789)
(5.10432e-15 -0.0704245 13.1149)
(-1.99311e-15 -0.0875461 13.3083)
(-2.60741e-15 -0.118079 13.5893)
(-9.01593e-15 -0.163465 13.992)
(-9.04115e-16 -0.217375 14.538)
(-5.6784e-15 -0.269895 15.2181)
(-5.90565e-15 -0.314666 16.0003)
(-2.10734e-15 -0.351597 16.854)
(-5.84318e-15 -0.384697 17.7664)
(-2.39782e-15 -0.417431 18.7418)
(1.13394e-16 -0.44844 19.7861)
(-8.55048e-16 -0.47038 20.8884)
(-2.74842e-15 -0.473699 22.0121)
(-9.6278e-16 -0.452012 23.101)
(-1.17099e-15 -0.404463 24.0943)
(2.13706e-15 -0.334557 24.9405)
(3.02911e-15 -0.246245 25.6032)
(2.28617e-15 -0.139872 26.0568)
(4.09658e-15 -0.0135227 26.2757)
(4.17331e-15 0.132595 26.2113)
(4.45217e-15 0.284914 25.8099)
(4.05155e-15 0.411647 25.0822)
(7.17963e-15 0.491051 24.1226)
(6.96904e-15 0.522996 23.052)
(7.44183e-15 0.51935 21.9689)
(9.06787e-15 0.493218 20.9359)
(8.63474e-15 0.454526 19.9868)
(8.85641e-15 0.409476 19.1372)
(8.49697e-15 0.361221 18.3935)
(9.45369e-15 0.310595 17.7578)
(8.6983e-15 0.256622 17.2301)
(8.71564e-15 0.196535 16.8048)
(7.84442e-15 0.125295 16.4657)
(6.29072e-15 0.0358183 16.1925)
(5.67528e-15 -0.0780856 15.9828)
(4.93677e-15 -0.215715 15.8775)
(5.06376e-15 -0.355844 15.961)
(6.27881e-15 -0.447678 16.2972)
(7.33196e-15 -0.432108 16.8494)
(7.03718e-15 -0.288207 17.4656)
(6.405e-15 -0.0582992 17.9309)
(6.53153e-15 0.174502 18.0597)
(7.12702e-15 0.332086 17.8185)
(7.64458e-15 0.391617 17.3486)
(8.11966e-15 0.377914 16.8159)
(8.51805e-15 0.326821 16.3264)
(8.93883e-15 0.265602 15.9251)
(8.80468e-15 0.217624 15.6125)
(8.55159e-15 0.197125 15.3498)
(8.74036e-15 0.197264 15.0816)
(8.86717e-15 0.202157 14.794)
(8.77805e-15 0.201698 14.4687)
(8.60471e-15 0.198926 14.21)
(7.58995e-15 0.172466 13.7842)
(1.56139e-15 0.137354 10.214)
(-2.0469e-16 0.13318 9.55698)
(4.05365e-15 0.141649 8.91908)
(5.11056e-15 0.153988 8.27279)
(8.90496e-15 0.16857 7.59017)
(1.32225e-15 0.185658 6.86736)
(8.35953e-16 0.202689 6.10437)
(3.72073e-15 0.217146 5.30543)
(-1.25628e-15 0.219073 4.50143)
(-2.54504e-15 0.195104 3.76669)
(-8.609e-16 0.129303 3.19635)
(3.05615e-15 0.0293851 2.87565)
(6.11066e-15 -0.0615555 2.83991)
(1.23931e-14 -0.127311 2.99091)
(1.57801e-14 -0.169892 3.29584)
(9.9288e-15 -0.217805 3.79059)
(5.19604e-15 -0.26961 4.47049)
(5.81597e-15 -0.316374 5.28559)
(2.25081e-15 -0.352056 6.18627)
(3.17271e-15 -0.372495 7.12897)
(-1.24603e-15 -0.374465 8.06944)
(2.4326e-15 -0.355498 8.96014)
(5.92037e-15 -0.316872 9.75166)
(4.02574e-15 -0.268722 10.403)
(8.39446e-16 -0.23137 10.8996)
(6.50895e-16 -0.228122 11.2697)
(-1.59439e-15 -0.27489 11.5927)
(-3.77288e-15 -0.366201 11.9954)
(-2.11708e-15 -0.462311 12.5889)
(-1.38707e-15 -0.509648 13.3809)
(-2.01849e-15 -0.463717 14.2764)
(-8.41876e-16 -0.304761 15.1254)
(2.15323e-15 -0.0651317 15.7447)
(1.34382e-15 0.179413 15.9408)
(-9.60735e-16 0.351506 15.6564)
(-1.2985e-15 0.423405 15.0603)
(-3.20769e-15 0.416911 14.3626)
(-4.40824e-15 0.367041 13.7024)
(-4.2036e-15 0.297804 13.1451)
(-3.15915e-15 0.219473 12.7164)
(-2.03577e-15 0.135207 12.417)
(-8.11094e-16 0.0551946 12.2279)
(4.98981e-16 -0.00598773 12.1316)
(1.54445e-15 -0.0453869 12.0966)
(2.10574e-15 -0.0696943 12.1125)
(1.45763e-15 -0.0900399 12.187)
(1.3588e-16 -0.116677 12.3329)
(-1.36102e-15 -0.157244 12.561)
(-2.84332e-15 -0.217825 12.8831)
(-4.51436e-15 -0.298203 13.3144)
(-5.26499e-15 -0.386088 13.859)
(-5.72182e-15 -0.465476 14.4991)
(-4.93733e-15 -0.529342 15.2104)
(-4.08897e-15 -0.58242 15.9847)
(-3.38424e-15 -0.634525 16.8311)
(-2.43387e-15 -0.691105 17.762)
(2.28511e-16 -0.747028 18.7773)
(-2.02894e-15 -0.787136 19.8542)
(-1.2057e-15 -0.794442 20.9476)
(-5.33321e-15 -0.759077 22.0009)
(-4.73788e-15 -0.680948 22.9597)
(-5.17094e-15 -0.567049 23.782)
(-4.56228e-15 -0.42534 24.4401)
(-3.74172e-15 -0.257222 24.9159)
(6.72345e-16 -0.0568428 25.1937)
(1.98147e-15 0.181874 25.2385)
(6.09114e-16 0.440979 24.9792)
(2.05293e-15 0.662217 24.3825)
(2.82151e-15 0.80282 23.526)
(4.00957e-15 0.860667 22.5329)
(4.87848e-15 0.856311 21.5086)
(5.51478e-15 0.812887 20.521)
(4.19708e-15 0.747819 19.6067)
(3.29316e-15 0.671901 18.7823)
(4.1108e-15 0.590881 18.0528)
(4.14554e-15 0.507453 17.4159)
(3.99519e-15 0.423414 16.8627)
(3.4705e-15 0.340965 16.3758)
(2.53712e-15 0.25972 15.9268)
(1.4589e-15 0.169455 15.4824)
(1.28106e-15 0.0472075 15.0311)
(3.45659e-15 -0.130105 14.619)
(7.38208e-15 -0.353938 14.3511)
(1.1937e-14 -0.555925 14.3284)
(1.48438e-14 -0.634096 14.5711)
(1.51157e-14 -0.523998 15.0083)
(1.36797e-14 -0.243746 15.4991)
(1.15227e-14 0.110646 15.8472)
(1.00141e-14 0.393002 15.8927)
(8.74639e-15 0.524156 15.6828)
(7.91282e-15 0.528066 15.3665)
(7.85072e-15 0.462042 15.0563)
(7.48814e-15 0.373303 14.8075)
(7.2272e-15 0.305692 14.6262)
(7.23454e-15 0.28528 14.4689)
(7.06214e-15 0.29825 14.2749)
(6.68363e-15 0.315679 14.036)
(6.24671e-15 0.32136 13.7449)
(5.90916e-15 0.319246 13.5094)
(5.27547e-15 0.279639 13.1196)
(1.41327e-15 0.197565 10.1751)
(3.66716e-16 0.192814 9.47587)
(1.09736e-15 0.203988 8.79367)
(2.88677e-15 0.220076 8.10144)
(5.89202e-15 0.239382 7.37475)
(8.71765e-15 0.262493 6.612)
(8.66301e-15 0.285731 5.81312)
(4.224e-16 0.304108 4.98826)
(-4.70106e-15 0.303378 4.18007)
(-1.80919e-15 0.268848 3.45592)
(7.00652e-16 0.181355 2.89308)
(5.97907e-15 0.052969 2.5431)
(1.0174e-14 -0.0624142 2.30247)
(2.18963e-14 -0.149563 2.16793)
(1.83749e-14 -0.220271 2.3251)
(4.88432e-15 -0.303389 2.77651)
(-2.56358e-16 -0.383448 3.41218)
(6.55357e-16 -0.449654 4.14928)
(-1.78591e-15 -0.498395 4.94932)
(-4.77581e-15 -0.52619 5.78828)
(-3.36903e-15 -0.528996 6.63852)
(2.26171e-15 -0.50291 7.46328)
(4.63973e-15 -0.44842 8.21561)
(2.15522e-15 -0.377385 8.8464)
(9.63191e-16 -0.315606 9.32172)
(4.52666e-16 -0.295291 9.64249)
(-9.92743e-16 -0.343699 9.87159)
(-8.49168e-16 -0.461524 10.1556)
(-7.83172e-16 -0.597774 10.6415)
(-8.0081e-16 -0.679874 11.3441)
(-3.64484e-15 -0.650097 12.1705)
(-1.06024e-15 -0.477276 13.0059)
(2.41805e-15 -0.186823 13.7257)
(2.39347e-15 0.141793 14.1625)
(1.78167e-15 0.400631 14.1498)
(-2.47854e-15 0.524543 13.7796)
(1.3876e-15 0.533393 13.25)
(-3.73353e-15 0.475669 12.713)
(-1.87727e-15 0.387128 12.2474)
(5.32133e-15 0.285982 11.8869)
(1.73381e-15 0.179993 11.6301)
(5.96139e-18 0.0814574 11.4446)
(6.79872e-15 0.00580114 11.3214)
(5.26289e-15 -0.0470095 11.2573)
(1.45744e-15 -0.0873641 11.2726)
(2.11536e-16 -0.127072 11.3794)
(-3.65386e-15 -0.174564 11.5699)
(-3.42577e-15 -0.236476 11.8291)
(-2.11174e-15 -0.320459 12.1537)
(-4.01327e-15 -0.426608 12.5545)
(-5.64593e-15 -0.538924 13.0398)
(-1.38148e-15 -0.639315 13.6112)
(-2.40021e-15 -0.724017 14.2766)
(-6.99876e-16 -0.802063 15.0472)
(2.70442e-15 -0.883436 15.9214)
(2.68563e-15 -0.969379 16.8795)
(6.45436e-15 -1.04889 17.8919)
(8.19166e-16 -1.1014 18.924)
(1.36043e-15 -1.10662 19.9366)
(-3.0278e-15 -1.05449 20.8883)
(-2.2496e-15 -0.94716 21.7426)
(-6.52469e-15 -0.794949 22.4738)
(-6.64826e-15 -0.608949 23.0687)
(-7.0458e-15 -0.391353 23.5214)
(-5.49669e-15 -0.132686 23.8266)
(-7.26491e-15 0.182635 23.9542)
(-3.76453e-15 0.543386 23.8176)
(3.61182e-16 0.864344 23.3374)
(2.80673e-15 1.0743 22.5744)
(3.37139e-15 1.16551 21.6546)
(8.75387e-16 1.16664 20.6887)
(2.16959e-15 1.11132 19.7469)
(1.20251e-16 1.02506 18.8656)
(1.15086e-15 0.923921 18.0604)
(1.52378e-15 0.817137 17.3343)
(5.78193e-19 0.710096 16.683)
(1.34609e-17 0.60693 16.0964)
(-1.17702e-15 0.51231 15.5604)
(-1.40396e-15 0.428109 15.0569)
(-2.17953e-15 0.342041 14.5619)
(-4.56847e-16 0.218602 14.0509)
(4.17652e-15 0.0146021 13.54)
(1.04451e-14 -0.272576 13.1151)
(1.54863e-14 -0.56429 12.8832)
(1.84784e-14 -0.732358 12.8907)
(1.93703e-14 -0.685201 13.1119)
(1.85679e-14 -0.416927 13.4696)
(1.63431e-14 -0.00776039 13.8211)
(1.37774e-14 0.370324 13.996)
(1.11762e-14 0.570562 13.9593)
(1.01436e-14 0.59858 13.8202)
(9.17712e-15 0.525229 13.6771)
(8.38411e-15 0.415469 13.585)
(8.26772e-15 0.337463 13.5461)
(7.92007e-15 0.329731 13.503)
(7.43052e-15 0.367325 13.3871)
(6.9856e-15 0.405159 13.2005)
(6.73246e-15 0.422059 12.9511)
(7.07368e-15 0.41926 12.7526)
(7.33403e-15 0.371149 12.4194)
(1.0687e-15 0.254396 10.0937)
(3.21203e-15 0.250358 9.34855)
(4.89202e-15 0.267259 8.62066)
(7.7346e-15 0.288877 7.88227)
(9.75457e-15 0.313481 7.10996)
(6.44956e-15 0.342337 6.3019)
(1.05499e-14 0.370723 5.46012)
(6.64983e-15 0.390966 4.60622)
(-6.10405e-16 0.385505 3.79223)
(2.15504e-15 0.33962 3.07801)
(2.50384e-15 0.233237 2.53397)
(1.38643e-14 0.0929683 2.14332)
(1.87512e-14 -0.0295387 1.64153)
(1.58895e-14 -0.14975 1.30646)
(9.39156e-15 -0.270232 1.47218)
(-1.41204e-15 -0.389009 1.89842)
(-2.6179e-15 -0.48837 2.41934)
(-3.61534e-15 -0.567815 2.9826)
(-3.92267e-15 -0.628298 3.58152)
(-1.03024e-15 -0.66625 4.21913)
(-2.66404e-18 -0.675635 4.89197)
(1.06659e-15 -0.649547 5.58322)
(4.84168e-15 -0.585669 6.25729)
(5.04338e-15 -0.495306 6.86165)
(2.69069e-15 -0.407827 7.33919)
(2.42576e-15 -0.36463 7.65351)
(5.48273e-16 -0.408971 7.84621)
(-2.32896e-15 -0.553102 8.09204)
(3.47614e-16 -0.73231 8.5656)
(-2.60007e-15 -0.850089 9.26183)
(-3.02517e-15 -0.838186 10.0737)
(-4.03119e-15 -0.660646 10.9072)
(-3.36421e-15 -0.338443 11.6873)
(-4.84076e-16 0.0531057 12.3017)
(-2.02556e-16 0.396909 12.5257)
(2.45628e-15 0.580693 12.3695)
(5.18685e-15 0.613846 12.0048)
(5.25512e-15 0.55548 11.5928)
(4.8956e-15 0.453046 11.2236)
(4.59522e-15 0.334133 10.9395)
(5.37357e-15 0.213202 10.7346)
(6.66025e-15 0.103719 10.5623)
(7.65838e-15 0.0167268 10.4368)
(1.98452e-15 -0.053754 10.4024)
(3.18152e-16 -0.117567 10.496)
(-2.15915e-15 -0.179498 10.6961)
(-3.43021e-15 -0.243474 10.9525)
(-3.2184e-15 -0.318226 11.233)
(-2.06393e-15 -0.416881 11.5375)
(1.04779e-15 -0.54249 11.8901)
(5.42678e-16 -0.678718 12.3251)
(2.3428e-15 -0.808492 12.8849)
(2.93854e-15 -0.928083 13.6016)
(5.87042e-15 -1.04073 14.4616)
(7.60685e-15 -1.1487 15.4067)
(5.68015e-15 -1.25019 16.3745)
(7.69263e-15 -1.33569 17.3276)
(6.38553e-15 -1.38593 18.2483)
(8.8666e-15 -1.38036 19.1201)
(6.32886e-15 -1.30887 19.92)
(8.2425e-15 -1.17506 20.6245)
(1.68688e-15 -0.991922 21.2188)
(-1.3577e-16 -0.773517 21.7003)
(-2.80672e-15 -0.522738 22.0754)
(-5.0303e-15 -0.224301 22.3547)
(2.15255e-15 0.151123 22.5254)
(2.54501e-15 0.607698 22.4956)
(8.18928e-15 1.03314 22.1293)
(7.20322e-15 1.31894 21.455)
(9.38931e-15 1.44823 20.5999)
(7.15277e-15 1.45824 19.6825)
(6.20106e-15 1.39427 18.7772)
(3.82061e-15 1.29055 17.9211)
(3.72546e-15 1.16843 17.1296)
(2.73424e-15 1.04029 16.4056)
(2.17496e-15 0.91344 15.7459)
(1.12303e-15 0.793171 15.1434)
(-9.67842e-16 0.685294 14.5889)
(3.42856e-16 0.594344 14.071)
(1.3281e-15 0.510887 13.5729)
(4.99566e-15 0.39619 13.0644)
(8.26746e-15 0.188025 12.5208)
(1.16191e-14 -0.141313 12)
(1.50609e-14 -0.510522 11.6184)
(1.713e-14 -0.766221 11.4518)
(1.85119e-14 -0.790955 11.4999)
(1.82858e-14 -0.557844 11.719)
(1.66654e-14 -0.136346 12.0095)
(1.41569e-14 0.302807 12.2285)
(1.24196e-14 0.555673 12.2967)
(1.111e-14 0.602559 12.2907)
(1.05012e-14 0.521533 12.2925)
(9.63501e-15 0.392949 12.35)
(8.31086e-15 0.3141 12.4512)
(7.31469e-15 0.334031 12.5206)
(7.05173e-15 0.40839 12.4835)
(7.63955e-15 0.472072 12.3567)
(8.67894e-15 0.5012 12.158)
(9.73909e-15 0.495077 12.0108)
(9.04306e-15 0.446236 11.7158)
(1.27008e-15 0.326947 9.9004)
(5.00834e-15 0.315966 9.10573)
(4.49693e-15 0.334593 8.34081)
(6.41305e-15 0.359892 7.57486)
(7.67605e-15 0.389657 6.77779)
(4.24193e-15 0.424595 5.93825)
(1.62121e-14 0.457532 5.05911)
(2.27652e-14 0.477731 4.17869)
(1.82106e-14 0.46525 3.36032)
(9.65804e-15 0.406397 2.66283)
(-3.06097e-15 0.287202 2.13762)
(1.98825e-14 0.146677 1.6985)
(1.85961e-14 0.0285288 1.10342)
(2.53696e-15 -0.143315 0.707727)
(2.32623e-15 -0.317213 0.86455)
(-1.79737e-16 -0.457059 1.16944)
(-1.77045e-16 -0.565947 1.50139)
(-2.2788e-15 -0.653962 1.8305)
(-6.29809e-15 -0.725294 2.16619)
(9.60129e-16 -0.776473 2.53008)
(6.19659e-16 -0.799647 2.93975)
(8.84731e-16 -0.784347 3.40157)
(5.66798e-15 -0.723535 3.90691)
(6.85353e-15 -0.624248 4.42058)
(3.50735e-15 -0.515327 4.88023)
(3.03992e-16 -0.447475 5.22052)
(1.04214e-15 -0.486783 5.46414)
(-7.69077e-16 -0.66101 5.79052)
(-8.3729e-16 -0.884647 6.34382)
(-4.093e-15 -1.0347 7.08389)
(-4.27774e-15 -1.03853 7.9174)
(-3.36673e-15 -0.861418 8.78168)
(-5.05671e-15 -0.520855 9.63237)
(-3.033e-15 -0.0821001 10.3964)
(-3.29606e-15 0.342346 10.8532)
(3.51411e-15 0.593423 10.9071)
(5.57493e-15 0.659482 10.7023)
(6.80721e-15 0.60703 10.4113)
(7.48627e-15 0.495291 10.1392)
(9.47796e-15 0.36349 9.93448)
(1.18375e-14 0.234626 9.7793)
(7.93405e-15 0.119251 9.62439)
(3.02669e-15 0.0157489 9.54846)
(4.49751e-15 -0.0851241 9.64291)
(-2.69383e-15 -0.178267 9.89583)
(-1.26828e-15 -0.255205 10.2106)
(-5.40058e-16 -0.322059 10.5127)
(1.20542e-15 -0.397173 10.7848)
(2.83155e-15 -0.502441 11.0484)
(3.50824e-15 -0.646676 11.3502)
(4.25354e-15 -0.816385 11.7654)
(5.51941e-15 -0.992246 12.377)
(6.91467e-15 -1.15779 13.2009)
(8.84914e-15 -1.29993 14.1535)
(1.06851e-14 -1.41607 15.1189)
(1.17617e-14 -1.51233 16.0258)
(1.28674e-14 -1.58887 16.8621)
(1.19855e-14 -1.62936 17.6414)
(1.43428e-14 -1.61061 18.3671)
(1.30038e-14 -1.52005 19.0236)
(1.27028e-14 -1.36176 19.5887)
(7.87767e-15 -1.15165 20.049)
(6.62229e-15 -0.907648 20.4069)
(2.16501e-15 -0.635663 20.6778)
(7.50693e-16 -0.316816 20.8886)
(4.33395e-16 0.0952992 21.0546)
(3.72478e-15 0.632191 21.0968)
(8.38815e-15 1.16326 20.8349)
(9.99355e-15 1.53286 20.2485)
(1.43712e-14 1.70744 19.4577)
(1.2989e-14 1.73143 18.5874)
(1.28086e-14 1.66275 17.7166)
(1.12512e-14 1.54509 16.8849)
(9.67758e-15 1.40532 16.1084)
(6.33026e-15 1.25875 15.3918)
(7.15678e-15 1.11434 14.7339)
(6.46919e-15 0.978342 14.1309)
(7.0639e-15 0.8573 13.5769)
(8.01624e-15 0.757755 13.0637)
(9.58199e-15 0.674853 12.5788)
(1.1751e-14 0.571854 12.0934)
(1.2969e-14 0.374677 11.5606)
(1.38258e-14 0.0262314 10.9952)
(1.6493e-14 -0.404044 10.5058)
(1.76254e-14 -0.742404 10.1979)
(1.68862e-14 -0.843974 10.0975)
(1.65034e-14 -0.662224 10.1814)
(1.54104e-14 -0.255007 10.3843)
(1.32119e-14 0.214046 10.5945)
(1.08919e-14 0.499296 10.7197)
(1.01955e-14 0.553007 10.8121)
(9.58717e-15 0.457998 10.9399)
(7.49047e-15 0.309179 11.1349)
(5.78044e-15 0.237241 11.3682)
(6.4692e-15 0.297405 11.5545)
(8.94371e-15 0.416731 11.6085)
(1.0705e-14 0.510256 11.5481)
(1.11217e-14 0.55451 11.3896)
(1.04948e-14 0.553124 11.2751)
(7.00742e-15 0.515859 10.9516)
(1.77782e-15 0.391802 9.67597)
(2.23689e-15 0.379075 8.82668)
(3.88845e-16 0.401227 8.01004)
(3.30854e-15 0.430133 7.20621)
(5.79558e-15 0.465458 6.38626)
(3.79552e-15 0.507516 5.52423)
(1.03107e-14 0.545153 4.61667)
(2.33396e-14 0.563811 3.71668)
(2.68724e-14 0.54176 2.90123)
(5.4351e-15 0.469432 2.22892)
(3.39331e-15 0.343095 1.70631)
(2.04524e-14 0.19454 1.22007)
(5.78472e-15 0.0928883 0.731808)
(4.08623e-15 -0.131827 0.254196)
(2.3054e-15 -0.34892 0.329381)
(3.83337e-15 -0.500457 0.489455)
(-1.91834e-15 -0.612723 0.641571)
(-9.02732e-15 -0.703745 0.761908)
(-5.02368e-15 -0.781711 0.867902)
(6.97008e-15 -0.84399 0.983219)
(5.42874e-15 -0.882011 1.1256)
(3.71109e-15 -0.883841 1.30925)
(9.17148e-15 -0.838368 1.55799)
(1.6316e-15 -0.745982 1.87551)
(1.22516e-15 -0.631181 2.24475)
(3.67333e-15 -0.552046 2.62325)
(2.81592e-15 -0.596797 3.01582)
(-5.05546e-16 -0.802682 3.50027)
(-5.09364e-15 -1.06212 4.11989)
(-2.68604e-15 -1.23633 4.85081)
(-2.44703e-15 -1.25502 5.66938)
(7.32538e-17 -1.08507 6.55928)
(3.79866e-16 -0.736054 7.49108)
(6.40538e-17 -0.25809 8.41486)
(-7.66652e-17 0.23736 9.13652)
(-1.73225e-15 0.563841 9.41958)
(2.36364e-15 0.671828 9.37963)
(2.99329e-15 0.631234 9.20927)
(4.2131e-15 0.514133 9.03562)
(5.25048e-15 0.375169 8.90635)
(7.9184e-15 0.244374 8.78558)
(6.6486e-16 0.119437 8.6696)
(1.08154e-15 -0.018406 8.74534)
(-1.95253e-15 -0.160552 9.06299)
(-2.24268e-16 -0.272459 9.48048)
(1.0439e-15 -0.344672 9.8586)
(1.80567e-15 -0.399242 10.1557)
(1.76276e-15 -0.466637 10.3914)
(4.87148e-15 -0.576306 10.6048)
(1.63805e-15 -0.745364 10.8633)
(3.3387e-15 -0.964196 11.2915)
(5.08093e-15 -1.201 11.9958)
(1.02135e-14 -1.41175 12.9311)
(1.15773e-14 -1.56611 13.9319)
(1.37904e-14 -1.66888 14.8562)
(1.49613e-14 -1.74467 15.6568)
(1.72174e-14 -1.80588 16.3591)
(1.51664e-14 -1.8362 17.0048)
(1.9943e-14 -1.80577 17.6085)
(1.89854e-14 -1.69709 18.1528)
(1.92421e-14 -1.51435 18.6092)
(1.8618e-14 -1.27745 18.9597)
(1.81181e-14 -1.0097 19.2066)
(1.23291e-14 -0.72232 19.3703)
(9.46585e-15 -0.396044 19.4898)
(-1.02193e-15 0.0318453 19.6093)
(-3.95285e-15 0.629251 19.6798)
(1.80601e-15 1.26054 19.5)
(4.13792e-15 1.71824 18.9944)
(1.24916e-14 1.94392 18.2681)
(1.26753e-14 1.98657 17.4473)
(1.48679e-14 1.91683 16.6144)
(1.30991e-14 1.7883 15.8108)
(1.33183e-14 1.63343 15.0544)
(1.14167e-14 1.47028 14.3515)
(1.0406e-14 1.30919 13.7034)
(1.08544e-14 1.15729 13.1091)
(1.19835e-14 1.02189 12.5656)
(1.15671e-14 0.911566 12.0667)
(1.1981e-14 0.826705 11.6017)
(1.20635e-14 0.734011 11.1456)
(1.33195e-14 0.555404 10.6503)
(1.36711e-14 0.211863 10.0797)
(1.63007e-14 -0.259301 9.52084)
(1.77723e-14 -0.670204 9.09655)
(1.77763e-14 -0.847265 8.86366)
(1.77293e-14 -0.724788 8.81607)
(1.63833e-14 -0.34877 8.91625)
(1.4739e-14 0.122002 9.0803)
(1.20347e-14 0.416301 9.22658)
(1.01019e-14 0.459671 9.39094)
(8.35837e-15 0.341573 9.6291)
(7.12315e-15 0.16792 9.94397)
(9.50349e-15 0.107384 10.3166)
(1.29048e-14 0.215902 10.6472)
(1.36914e-14 0.390206 10.8037)
(1.1967e-14 0.525834 10.7904)
(8.3958e-15 0.597366 10.6286)
(4.82726e-15 0.618038 10.4981)
(-5.2555e-16 0.599679 10.0844)
(2.26823e-15 0.462164 9.41478)
(1.25541e-15 0.447398 8.52205)
(2.40306e-15 0.471632 7.65684)
(5.35828e-15 0.50206 6.80835)
(6.70469e-15 0.54151 5.95746)
(3.37089e-15 0.590529 5.07108)
(2.8678e-15 0.632629 4.13992)
(1.77762e-14 0.648153 3.22939)
(2.66223e-14 0.614246 2.42724)
(-2.91879e-15 0.5295 1.78639)
(7.71801e-15 0.39969 1.23111)
(1.1111e-14 0.24635 0.660475)
(1.13417e-15 0.157357 0.182874)
(4.91566e-15 -0.12839 -0.203016)
(6.18321e-16 -0.370188 -0.190506)
(-9.22909e-16 -0.527055 -0.132194)
(-3.64488e-15 -0.637884 -0.0941183)
(-1.39018e-14 -0.727932 -0.0839231)
(-8.86176e-17 -0.807964 -0.0819256)
(1.57298e-14 -0.874797 -0.0799671)
(7.20346e-15 -0.920207 -0.0785304)
(6.39023e-15 -0.935002 -0.0699132)
(8.6398e-15 -0.907822 -0.0132469)
(-1.70657e-14 -0.834695 0.123321)
(7.87978e-15 -0.735241 0.378054)
(1.06494e-14 -0.668307 0.740786)
(6.98751e-15 -0.728173 1.19971)
(-3.74348e-15 -0.953715 1.69384)
(-5.59471e-15 -1.2331 2.20638)
(-1.98138e-15 -1.42879 2.77909)
(-3.17629e-15 -1.47394 3.45516)
(-3.94208e-16 -1.3283 4.28102)
(4.99483e-16 -0.985692 5.24649)
(-6.99366e-16 -0.488278 6.30933)
(-4.22843e-16 0.0660202 7.33171)
(-1.85626e-15 0.484886 7.89724)
(2.10317e-15 0.648969 8.04927)
(6.55251e-16 0.62773 8.00899)
(4.82484e-16 0.510673 7.93624)
(6.93298e-16 0.372302 7.86724)
(4.80468e-15 0.241012 7.76442)
(1.50997e-15 0.0872995 7.76822)
(-5.59671e-16 -0.10704 8.12165)
(-1.40693e-15 -0.280884 8.67038)
(6.38435e-16 -0.385045 9.17419)
(1.04894e-15 -0.433722 9.54534)
(1.12341e-15 -0.468415 9.80363)
(1.15113e-15 -0.525541 9.99347)
(-9.4636e-16 -0.64041 10.1543)
(1.13439e-15 -0.844277 10.3787)
(6.36524e-15 -1.13038 10.8541)
(5.76803e-15 -1.43781 11.6791)
(1.18367e-14 -1.683 12.7088)
(1.47806e-14 -1.82755 13.7111)
(1.79384e-14 -1.89833 14.5533)
(2.02447e-14 -1.94458 15.2287)
(2.63873e-14 -1.9897 15.799)
(2.52015e-14 -2.01326 16.3275)
(2.94783e-14 -1.97474 16.834)
(2.75688e-14 -1.84955 17.2951)
(2.96817e-14 -1.6417 17.6731)
(2.98916e-14 -1.37601 17.9415)
(2.98326e-14 -1.0826 18.099)
(2.88452e-14 -0.780344 18.1667)
(2.66085e-14 -0.453636 18.1897)
(1.95253e-14 -0.0269161 18.2352)
(1.21944e-14 0.609782 18.2903)
(5.6478e-15 1.33078 18.1601)
(3.44564e-15 1.87687 17.7194)
(8.69036e-15 2.15735 17.0527)
(1.14039e-14 2.22243 16.2827)
(1.43516e-14 2.15502 15.4915)
(1.53808e-14 2.01858 14.7208)
(1.57653e-14 1.85107 13.9895)
(1.36666e-14 1.67309 13.3055)
(1.34799e-14 1.49622 12.6727)
(1.30102e-14 1.32846 12.0929)
(1.28515e-14 1.17796 11.5658)
(1.29686e-14 1.05532 11.0876)
(1.27016e-14 0.96587 10.6483)
(1.25183e-14 0.881456 10.2264)
(1.12006e-14 0.725499 9.77521)
(1.28944e-14 0.405478 9.22931)
(1.51283e-14 -0.0848087 8.63851)
(1.58058e-14 -0.555506 8.12006)
(1.60168e-14 -0.8042 7.76837)
(1.59767e-14 -0.744691 7.59401)
(1.58105e-14 -0.412742 7.58035)
(1.45043e-14 0.0382719 7.67148)
(1.35739e-14 0.316841 7.80891)
(1.21395e-14 0.330523 8.02546)
(1.04589e-14 0.177881 8.35174)
(1.23621e-14 -0.0301892 8.77546)
(1.56601e-14 -0.0838206 9.34461)
(1.52035e-14 0.0847757 9.86821)
(1.17626e-14 0.340513 10.1027)
(6.25905e-15 0.540739 10.0733)
(8.57655e-16 0.651772 9.84532)
(-3.85578e-15 0.708421 9.65193)
(-9.01914e-15 0.702267 9.12386)
(3.05483e-15 0.535359 9.11631)
(3.65821e-15 0.518932 8.18755)
(5.8259e-15 0.544757 7.28338)
(7.72115e-15 0.575866 6.39368)
(4.71194e-15 0.618528 5.50673)
(1.61993e-15 0.673818 4.59004)
(5.94773e-16 0.719273 3.63679)
(1.42239e-14 0.729737 2.72479)
(2.00845e-14 0.681824 1.94952)
(1.69793e-16 0.589327 1.3337)
(5.29924e-16 0.464392 0.684357)
(5.6663e-16 0.307654 0.0366705)
(1.6531e-15 0.164903 -0.390584)
(9.83263e-15 -0.129867 -0.662)
(-9.45764e-16 -0.387229 -0.698368)
(-3.62185e-15 -0.548059 -0.694194)
(-4.81864e-15 -0.65815 -0.696004)
(-9.75445e-15 -0.747366 -0.700918)
(5.72887e-15 -0.826841 -0.698593)
(1.91241e-14 -0.892044 -0.696902)
(4.86712e-15 -0.935838 -0.707641)
(5.13994e-15 -0.953065 -0.726164)
(1.71398e-15 -0.935367 -0.717396)
(-1.0533e-14 -0.880172 -0.640536)
(1.43508e-14 -0.805669 -0.445759)
(7.08605e-15 -0.763851 -0.136767)
(-3.45919e-15 -0.83366 0.236514)
(-8.74641e-15 -1.06172 0.56704)
(-9.94411e-15 -1.35132 0.855255)
(2.67681e-15 -1.57084 1.17067)
(4.75114e-15 -1.65765 1.56582)
(1.49272e-15 -1.5595 2.17142)
(3.44076e-15 -1.25435 3.02329)
(-3.40674e-15 -0.772572 4.12124)
(-1.71753e-15 -0.182776 5.38516)
(1.2516e-15 0.345156 6.31339)
(5.7105e-15 0.585958 6.70942)
(1.51661e-15 0.595259 6.82132)
(1.35358e-15 0.487641 6.84932)
(2.26103e-15 0.35788 6.80921)
(4.05464e-16 0.214621 6.74772)
(-1.09483e-15 -0.00398289 7.0416)
(-3.19443e-16 -0.255994 7.72362)
(-2.01943e-15 -0.426946 8.40252)
(-1.91744e-16 -0.497194 8.8981)
(4.46786e-16 -0.51365 9.22173)
(7.10654e-16 -0.527507 9.43331)
(1.50511e-15 -0.573521 9.57706)
(2.44694e-15 -0.695981 9.68263)
(3.9204e-15 -0.949764 9.88871)
(6.12628e-15 -1.32323 10.4531)
(9.80085e-15 -1.70302 11.4126)
(1.4603e-14 -1.96289 12.5021)
(1.97111e-14 -2.07439 13.4603)
(2.46536e-14 -2.09901 14.1934)
(2.87657e-14 -2.1117 14.7378)
(3.42584e-14 -2.1436 15.1839)
(3.84561e-14 -2.16617 15.6104)
(3.98643e-14 -2.12462 16.0394)
(4.26772e-14 -1.98536 16.4401)
(4.30514e-14 -1.75204 16.7642)
(4.05003e-14 -1.45498 16.9763)
(3.89431e-14 -1.13238 17.0685)
(3.84216e-14 -0.81212 17.0596)
(4.29955e-14 -0.486026 16.9953)
(3.91919e-14 -0.0697713 16.9559)
(2.82322e-14 0.587746 16.9609)
(1.71672e-14 1.38401 16.8432)
(8.04325e-15 2.01375 16.444)
(8.45483e-15 2.34926 15.8273)
(9.35851e-15 2.43876 15.1061)
(1.24888e-14 2.37627 14.3584)
(1.43145e-14 2.23463 13.6238)
(1.65445e-14 2.05686 12.9211)
(1.73832e-14 1.8658 12.2598)
(1.51267e-14 1.67395 11.6459)
(1.39735e-14 1.49005 11.0846)
(1.41604e-14 1.32338 10.5791)
(1.35913e-14 1.18677 10.127)
(1.36406e-14 1.09017 9.71756)
(1.14575e-14 1.01278 9.32952)
(1.16607e-14 0.879564 8.91853)
(1.29927e-14 0.588418 8.42058)
(1.50949e-14 0.106083 7.83052)
(1.61625e-14 -0.405357 7.2454)
(1.50024e-14 -0.717103 6.79043)
(1.37346e-14 -0.71979 6.49515)
(1.38663e-14 -0.439533 6.35826)
(1.41182e-14 -0.0257226 6.35477)
(1.38616e-14 0.210287 6.45739)
(1.36942e-14 0.174989 6.70883)
(1.43811e-14 -0.0249665 7.08625)
(1.7722e-14 -0.300803 7.67291)
(1.65407e-14 -0.368961 8.5402)
(1.04103e-14 -0.102664 9.21822)
(2.94761e-15 0.288457 9.41326)
(-3.46137e-15 0.585717 9.25758)
(-8.26266e-15 0.742523 8.90538)
(-1.20255e-14 0.833077 8.62973)
(-1.59503e-14 0.831868 8.01682)
(2.56429e-15 0.602551 8.78975)
(3.05094e-15 0.588875 7.83372)
(5.17642e-15 0.61957 6.89748)
(7.52012e-15 0.651902 5.96915)
(5.11125e-15 0.697255 5.04163)
(6.87799e-16 0.757709 4.08825)
(5.55873e-17 0.804616 3.11387)
(1.19499e-14 0.807145 2.21045)
(7.77364e-15 0.745437 1.48082)
(1.12874e-14 0.653472 0.841667)
(1.73328e-14 0.53307 0.0624726)
(1.69984e-14 0.357571 -0.523284)
(1.94972e-15 0.174663 -0.884)
(2.82437e-15 -0.127175 -1.13835)
(-2.18748e-15 -0.397323 -1.21332)
(-2.94391e-15 -0.563648 -1.23319)
(-7.16459e-15 -0.675704 -1.23609)
(-6.03295e-15 -0.766258 -1.22115)
(5.32021e-15 -0.845731 -1.19049)
(1.70229e-14 -0.908932 -1.15852)
(8.90504e-16 -0.950456 -1.13592)
(2.52666e-15 -0.968045 -1.11906)
(1.75127e-15 -0.95552 -1.0897)
(1.92055e-15 -0.911419 -1.02238)