/*--------------------------------*- C++ -*----------------------------------*\
| =========                 |                                                 |
| \\      /  F ield         | OpenFOAM: The Open Source CFD Toolbox           |
|  \\    /   O peration     | Version:  4.1                                   |
|   \\  /    A nd           | Web:      www.OpenFOAM.org                      |
|    \\/     M anipulation  |                                                 |
\*---------------------------------------------------------------------------*/
FoamFile
{
    version     2.0;
    format      ascii;
    class       volScalarField;
    location    "400";
    object      k;
}
// * * * * * * * * * * * * * * * * * * * * * * * * * * * * * * * * * * * * * //

dimensions      [0 2 -2 0 0 0 0];

internalField   nonuniform List<scalar> 
6820
(
0.257082
0.434211
0.598521
0.709384
0.77815
0.818058
0.838563
0.84592
0.844406
0.837012
0.825833
0.812333
0.797537
0.782155
0.766671
0.751413
0.736592
0.722342
0.70874
0.695826
0.683613
0.672094
0.661254
0.651067
0.641504
0.632535
0.624127
0.616252
0.608854
0.602023
0.595161
0.590947
0.577063
0.811276
1.44613
1.51873
1.38791
1.22323
1.07762
0.959228
0.864581
0.788655
0.72717
0.676853
0.635264
0.600581
0.571426
0.546748
0.525731
0.507734
0.49225
0.478872
0.467268
0.45717
0.448356
0.440639
0.433868
0.427911
0.422658
0.418018
0.413912
0.410267
0.407045
0.404142
0.401699
0.399202
0.368869
0.664162
0.797429
0.829393
0.816581
0.786275
0.750398
0.713976
0.679028
0.646293
0.615982
0.588085
0.562497
0.539071
0.517649
0.498065
0.480162
0.463792
0.448815
0.435104
0.422544
0.411029
0.400462
0.390758
0.381839
0.373634
0.36608
0.359119
0.352699
0.346776
0.341301
0.336252
0.331564
0.240027
0.336286
0.412167
0.460217
0.487097
0.5
0.50402
0.502487
0.497508
0.490394
0.481978
0.472808
0.463253
0.453564
0.443918
0.434431
0.425186
0.416237
0.407616
0.399343
0.391428
0.383871
0.376669
0.369814
0.363297
0.357104
0.351224
0.345643
0.340346
0.335321
0.330554
0.326034
0.321738
0.214145
0.250648
0.284539
0.312076
0.332942
0.348019
0.358458
0.36533
0.369509
0.371657
0.372268
0.371711
0.370269
0.368158
0.365545
0.36256
0.359306
0.355865
0.352299
0.348661
0.34499
0.341317
0.337668
0.334062
0.330515
0.327036
0.323636
0.320321
0.317094
0.313959
0.310918
0.307971
0.305119
0.205639
0.221936
0.238615
0.253656
0.266435
0.276898
0.285265
0.29184
0.296922
0.300768
0.303594
0.305579
0.306868
0.307583
0.307823
0.307672
0.307197
0.306458
0.305502
0.304369
0.303095
0.301707
0.300231
0.298687
0.297093
0.295462
0.293808
0.29214
0.290468
0.2888
0.28714
0.285495
0.283869
0.202357
0.210377
0.219402
0.228103
0.235953
0.242778
0.248599
0.253507
0.257612
0.261016
0.263811
0.266081
0.267895
0.269317
0.2704
0.271188
0.271724
0.27204
0.272168
0.272132
0.271957
0.271662
0.271263
0.270778
0.270218
0.269595
0.26892
0.268202
0.267447
0.266664
0.265859
0.265035
0.264201
0.201008
0.205099
0.210229
0.215523
0.220536
0.225074
0.229093
0.232615
0.235682
0.238338
0.240626
0.242586
0.244256
0.245667
0.246848
0.247827
0.248625
0.249263
0.249759
0.250129
0.250388
0.250548
0.250621
0.250616
0.250544
0.250412
0.250227
0.249997
0.249726
0.24942
0.249085
0.248724
0.248342
0.200424
0.202507
0.205457
0.208751
0.212036
0.215126
0.217948
0.22049
0.222762
0.224783
0.226572
0.228151
0.229539
0.230755
0.231814
0.232734
0.233526
0.234204
0.234778
0.23526
0.235658
0.23598
0.236234
0.236427
0.236564
0.236652
0.236696
0.2367
0.236668
0.236605
0.236513
0.236397
0.236259
0.200163
0.201192
0.202863
0.204901
0.207063
0.209186
0.211188
0.213039
0.214731
0.216266
0.217653
0.218902
0.220022
0.221024
0.221918
0.222714
0.223419
0.224041
0.224589
0.225067
0.225483
0.225842
0.226149
0.226409
0.226625
0.226803
0.226944
0.227054
0.227134
0.227187
0.227217
0.227226
0.227216
0.200044
0.20052
0.201429
0.202658
0.204056
0.205501
0.206916
0.208263
0.209523
0.210689
0.211761
0.212742
0.213636
0.214449
0.215186
0.215853
0.216455
0.216996
0.217483
0.217918
0.218306
0.218651
0.218957
0.219226
0.219461
0.219666
0.219843
0.219995
0.220122
0.220229
0.220316
0.220386
0.22044
0.199989
0.200177
0.200639
0.201345
0.202217
0.203174
0.204155
0.205121
0.206049
0.206927
0.207749
0.208514
0.209222
0.209874
0.210474
0.211024
0.211527
0.211986
0.212404
0.212784
0.213129
0.213441
0.213723
0.213977
0.214205
0.214409
0.214591
0.214753
0.214896
0.215023
0.215134
0.215231
0.215315
0.199965
0.200004
0.200208
0.200583
0.201096
0.201702
0.202357
0.20303
0.203698
0.204346
0.204966
0.205554
0.206106
0.206623
0.207104
0.207551
0.207964
0.208346
0.208698
0.209022
0.20932
0.209593
0.209843
0.210071
0.21028
0.21047
0.210643
0.2108
0.210943
0.211072
0.21119
0.211296
0.211391
0.199954
0.199918
0.199978
0.200148
0.200423
0.20078
0.201194
0.201641
0.202103
0.202566
0.203021
0.203461
0.203882
0.204283
0.204661
0.205017
0.205351
0.205662
0.205953
0.206223
0.206474
0.206707
0.206922
0.207122
0.207306
0.207476
0.207633
0.207778
0.207912
0.208035
0.208149
0.208254
0.208351
0.199949
0.199876
0.199857
0.199906
0.200027
0.200214
0.200453
0.200729
0.20103
0.201344
0.201663
0.20198
0.20229
0.202591
0.20288
0.203156
0.203418
0.203667
0.2039
0.204121
0.204327
0.204521
0.204702
0.204871
0.205029
0.205177
0.205315
0.205444
0.205564
0.205677
0.205782
0.205881
0.205973
0.199947
0.199856
0.199795
0.199774
0.199801
0.199875
0.199991
0.200142
0.200319
0.200516
0.200725
0.20094
0.201157
0.201372
0.201584
0.20179
0.201989
0.202179
0.202362
0.202535
0.2027
0.202857
0.203004
0.203144
0.203276
0.203401
0.203518
0.203629
0.203734
0.203833
0.203927
0.204016
0.2041
0.199947
0.199847
0.199764
0.199705
0.199675
0.199677
0.19971
0.199773
0.19986
0.199966
0.200088
0.200221
0.20036
0.200504
0.200649
0.200794
0.200936
0.201076
0.201212
0.201343
0.201469
0.201591
0.201707
0.201818
0.201925
0.202026
0.202123
0.202215
0.202304
0.202388
0.202469
0.202547
0.202621
0.199946
0.199843
0.199749
0.199669
0.199606
0.199565
0.199545
0.199548
0.19957
0.199611
0.199666
0.199734
0.199811
0.199895
0.199985
0.200077
0.200172
0.200266
0.20036
0.200454
0.200545
0.200634
0.200721
0.200806
0.200887
0.200967
0.201043
0.201117
0.201189
0.201259
0.201327
0.201392
0.201456
0.199946
0.199841
0.199742
0.199651
0.19957
0.199503
0.199451
0.199414
0.199393
0.199387
0.199394
0.199413
0.199441
0.199479
0.199523
0.199572
0.199625
0.199682
0.19974
0.199799
0.19986
0.19992
0.19998
0.20004
0.200099
0.200158
0.200215
0.200272
0.200328
0.200383
0.200437
0.200491
0.200543
0.199946
0.19984
0.199738
0.199642
0.199552
0.19947
0.199399
0.199338
0.199288
0.19925
0.199223
0.199207
0.1992
0.199201
0.199209
0.199224
0.199244
0.199269
0.199297
0.199328
0.199362
0.199397
0.199434
0.199472
0.199511
0.199551
0.199591
0.199632
0.199673
0.199714
0.199756
0.199798
0.199839
0.199946
0.19984
0.199737
0.199637
0.199542
0.199453
0.19937
0.199295
0.199228
0.19917
0.19912
0.199079
0.199047
0.199022
0.199004
0.198993
0.198987
0.198987
0.198991
0.198999
0.19901
0.199025
0.199042
0.199062
0.199083
0.199107
0.199132
0.199159
0.199187
0.199216
0.199247
0.199278
0.19931
0.199946
0.19984
0.199736
0.199635
0.199538
0.199444
0.199356
0.199272
0.199195
0.199124
0.199061
0.199004
0.198954
0.198911
0.198875
0.198845
0.198821
0.198802
0.198788
0.198778
0.198773
0.198772
0.198774
0.198779
0.198787
0.198797
0.19881
0.198825
0.198842
0.198862
0.198883
0.198905
0.198929
0.199946
0.19984
0.199735
0.199634
0.199535
0.19944
0.199348
0.19926
0.199177
0.1991
0.199028
0.198962
0.198902
0.198848
0.1988
0.198758
0.198721
0.19869
0.198664
0.198643
0.198626
0.198613
0.198605
0.198599
0.198597
0.198599
0.198603
0.198609
0.198619
0.198631
0.198645
0.19866
0.198678
0.199946
0.199839
0.199735
0.199633
0.199534
0.199438
0.199344
0.199255
0.199169
0.199088
0.199013
0.198942
0.198877
0.198818
0.198764
0.198716
0.198673
0.198636
0.198604
0.198576
0.198553
0.198534
0.198519
0.198508
0.198501
0.198497
0.198496
0.198498
0.198503
0.19851
0.19852
0.198532
0.198545
0.199946
0.199839
0.199735
0.199633
0.199534
0.199437
0.199343
0.199254
0.199168
0.199087
0.199011
0.19894
0.198875
0.198815
0.198761
0.198712
0.198669
0.198631
0.198598
0.19857
0.198546
0.198526
0.198511
0.198499
0.198491
0.198486
0.198484
0.198485
0.198489
0.198495
0.198503
0.198514
0.198527
0.199946
0.199839
0.199735
0.199633
0.199534
0.199438
0.199346
0.199257
0.199174
0.199096
0.199023
0.198956
0.198895
0.19884
0.198791
0.198748
0.19871
0.198677
0.198649
0.198626
0.198608
0.198593
0.198582
0.198575
0.19857
0.198569
0.198571
0.198575
0.198581
0.19859
0.1986
0.198613
0.198627
0.199946
0.19984
0.199736
0.199634
0.199536
0.199442
0.199353
0.199269
0.199191
0.19912
0.199056
0.198998
0.198948
0.198904
0.198866
0.198835
0.198809
0.198788
0.198772
0.198761
0.198753
0.198749
0.198749
0.198751
0.198755
0.198763
0.198772
0.198783
0.198796
0.198811
0.198827
0.198844
0.198862
0.199946
0.19984
0.199737
0.199637
0.199542
0.199453
0.199371
0.199296
0.19923
0.199173
0.199124
0.199085
0.199053
0.199029
0.199011
0.199
0.198994
0.198994
0.198997
0.199004
0.199014
0.199027
0.199042
0.199059
0.199078
0.199098
0.199119
0.199141
0.199164
0.199187
0.199211
0.199236
0.19926
0.199946
0.199841
0.19974
0.199645
0.199557
0.199479
0.199411
0.199356
0.199312
0.199281
0.199261
0.199251
0.19925
0.199258
0.199272
0.199292
0.199316
0.199345
0.199376
0.199409
0.199444
0.19948
0.199516
0.199553
0.19959
0.199626
0.199662
0.199698
0.199734
0.199768
0.199802
0.199836
0.199868
0.199947
0.199844
0.199749
0.199664
0.199593
0.199538
0.199502
0.199483
0.199481
0.199496
0.199523
0.199562
0.19961
0.199665
0.199726
0.19979
0.199856
0.199923
0.19999
0.200057
0.200123
0.200187
0.200249
0.20031
0.200368
0.200424
0.200477
0.200528
0.200578
0.200624
0.200669
0.200712
0.200753
0.199948
0.199851
0.19977
0.199711
0.199679
0.199675
0.1997
0.199751
0.199824
0.199915
0.20002
0.200134
0.200253
0.200376
0.200499
0.20062
0.20074
0.200855
0.200966
0.201072
0.201173
0.201269
0.20136
0.201445
0.201525
0.201601
0.201671
0.201738
0.2018
0.201858
0.201912
0.201963
0.20201
0.199951
0.199872
0.199829
0.199832
0.199886
0.199989
0.200133
0.200309
0.200508
0.200721
0.200941
0.201161
0.201377
0.201588
0.201789
0.20198
0.202161
0.20233
0.202489
0.202636
0.202773
0.2029
0.203017
0.203126
0.203226
0.203318
0.203402
0.20348
0.203552
0.203617
0.203677
0.203732
0.203782
0.19996
0.199932
0.199989
0.200143
0.200386
0.2007
0.201062
0.201449
0.201844
0.202235
0.202612
0.20297
0.203306
0.203619
0.203907
0.204173
0.204416
0.204638
0.20484
0.205024
0.205191
0.205342
0.20548
0.205604
0.205716
0.205817
0.205908
0.205989
0.206062
0.206128
0.206186
0.206238
0.206284
0.19999
0.200113
0.200439
0.200948
0.201587
0.202295
0.203021
0.203731
0.204403
0.205025
0.205594
0.206109
0.206572
0.206986
0.207356
0.207685
0.207978
0.208239
0.20847
0.208675
0.208856
0.209016
0.209157
0.209282
0.209391
0.209486
0.209569
0.209641
0.209702
0.209755
0.209799
0.209835
0.209865
0.200097
0.200699
0.201732
0.203034
0.204437
0.205813
0.207089
0.208235
0.209244
0.210123
0.210883
0.211539
0.212103
0.212588
0.213005
0.213364
0.213671
0.213935
0.21416
0.214353
0.214517
0.214655
0.214771
0.214867
0.214946
0.215009
0.215059
0.215096
0.215122
0.215138
0.215145
0.215144
0.215137
0.200521
0.202676
0.205528
0.208475
0.211197
0.21356
0.215539
0.217165
0.21849
0.219567
0.22044
0.221148
0.221722
0.222186
0.222562
0.222865
0.223107
0.223298
0.223446
0.223559
0.22364
0.223695
0.223726
0.223738
0.223732
0.22371
0.223676
0.223629
0.223571
0.223505
0.22343
0.223348
0.223259
0.202177
0.209425
0.217084
0.223323
0.228013
0.231448
0.233937
0.235733
0.237025
0.237951
0.238609
0.23907
0.239384
0.239586
0.239703
0.239752
0.239746
0.239695
0.239608
0.239491
0.239347
0.239181
0.238995
0.238794
0.238578
0.23835
0.238111
0.237863
0.237608
0.237346
0.237078
0.236806
0.236531
0.208502
0.227595
0.245315
0.258689
0.267553
0.272836
0.275656
0.276949
0.277337
0.277195
0.276745
0.276118
0.275388
0.274601
0.27378
0.272941
0.272091
0.271234
0.270375
0.269514
0.268653
0.267794
0.266937
0.266083
0.265234
0.264391
0.263555
0.262726
0.261905
0.261094
0.260293
0.259503
0.258724
0.248309
0.315064
0.348166
0.362164
0.367126
0.367964
0.366704
0.364184
0.36086
0.357042
0.352949
0.348733
0.3445
0.340327
0.336264
0.332347
0.328595
0.325022
0.32163
0.318423
0.315396
0.312544
0.309863
0.307343
0.304979
0.302762
0.300684
0.298737
0.296916
0.295211
0.293616
0.292126
0.290731
0.205355
0.221127
0.238043
0.254121
0.268995
0.28297
0.296257
0.308936
0.32105
0.332627
0.34369
0.354255
0.364339
0.373956
0.383123
0.391852
0.400161
0.408063
0.415574
0.422709
0.429483
0.435911
0.442008
0.447789
0.453267
0.458457
0.463371
0.468023
0.472426
0.476592
0.480532
0.484257
0.487782
0.62125
0.693812
0.808278
0.948893
1.10364
1.26063
1.4116
1.55048
1.67271
1.77543
1.85783
1.92101
1.96745
2.00022
2.02237
2.03644
2.0443
2.04719
2.04583
2.04063
2.03183
2.01958
2.00404
1.98539
1.96374
1.93922
1.91185
1.88158
1.84832
1.81185
1.77194
1.7283
1.68062
1.6286
1.57196
1.51046
1.44395
1.37239
1.2959
1.21477
1.12952
1.04098
0.950237
0.858744
0.768267
0.68086
0.59878
0.524339
0.459716
0.406736
0.366682
0.340205
0.327404
0.328096
0.342163
0.369842
0.411941
0.470193
0.547535
0.647249
0.770334
0.913027
1.06722
1.22358
1.37449
1.51516
1.64329
1.75822
1.86024
1.95008
2.02863
2.09685
2.15565
2.20588
2.24834
2.28378
2.31291
2.33637
2.35482
2.36886
2.37906
2.38594
2.39
2.39168
2.39134
2.38931
2.38586
2.38118
2.37546
2.3688
2.36132
2.35308
2.34415
2.33458
2.3244
2.31367
2.30243
2.29069
2.27838
2.26334
0.396961
0.401317
0.414026
0.436027
0.467982
0.510354
0.562591
0.623577
0.691904
0.765983
0.844089
0.924389
1.00495
1.0838
1.15896
1.22863
1.29126
1.3457
1.39126
1.42774
1.45529
1.47437
1.4856
1.48966
1.48717
1.4787
1.46473
1.44563
1.42171
1.39318
1.3602
1.32288
1.28133
1.23562
1.18585
1.13218
1.07481
1.01406
0.950344
0.884256
0.816545
0.748146
0.680183
0.613953
0.550885
0.492475
0.440188
0.395348
0.359022
0.331939
0.314479
0.306758
0.308804
0.320779
0.34317
0.376895
0.42343
0.485105
0.565284
0.667385
0.792328
0.936265
1.09115
1.24777
1.39867
1.53914
1.66694
1.78147
1.88303
1.97238
2.05045
2.1182
2.17656
2.22641
2.26855
2.30373
2.33265
2.35598
2.37436
2.38839
2.39864
2.40564
2.40987
2.41177
2.4117
2.40998
2.40686
2.40254
2.39719
2.39091
2.38381
2.37596
2.3674
2.35818
2.34835
2.33795
2.32702
2.31557
2.30354
2.28884
0.326543
0.321347
0.316736
0.313143
0.311123
0.311113
0.313595
0.319094
0.328172
0.341393
0.359285
0.38229
0.410696
0.44456
0.483628
0.527276
0.574491
0.6239
0.673876
0.722675
0.768607
0.810193
0.84627
0.87605
0.899102
0.915308
0.924783
0.927795
0.924699
0.915885
0.901753
0.882694
0.859091
0.831324
0.799786
0.764894
0.727106
0.686938
0.644973
0.601878
0.558401
0.515372
0.473683
0.434269
0.398059
0.365934
0.338671
0.316901
0.301087
0.291543
0.288496
0.292182
0.302966
0.321458
0.348596
0.3857
0.434606
0.497954
0.579282
0.682001
0.806982
0.95049
1.10472
1.26071
1.41109
1.55118
1.67871
1.79304
1.89445
1.9837
2.06171
2.12946
2.18787
2.23781
2.28009
2.31547
2.34464
2.36827
2.387
2.40141
2.41209
2.41955
2.42427
2.42668
2.42715
2.42598
2.42343
2.41968
2.41489
2.40918
2.40263
2.39531
2.38727
2.37856
2.36921
2.35926
2.34875
2.33771
2.32605
2.3118
0.317011
0.311826
0.306776
0.301903
0.297322
0.293039
0.289133
0.285719
0.282943
0.280983
0.280049
0.280383
0.282259
0.285971
0.291814
0.300059
0.310908
0.324453
0.340634
0.359201
0.379705
0.401506
0.423818
0.44577
0.466486
0.485151
0.501074
0.513724
0.522741
0.52793
0.529245
0.526762
0.520658
0.511187
0.498668
0.483471
0.466017
0.446768
0.426228
0.404935
0.38346
0.36239
0.342318
0.323824
0.307457
0.293717
0.283042
0.275814
0.272372
0.273046
0.278207
0.288326
0.304037
0.326203
0.355974
0.394841
0.444796
0.508607
0.589831
0.691783
0.815318
0.956947
1.10929
1.26371
1.41297
1.55236
1.67952
1.79372
1.89519
1.98462
2.06291
2.13103
2.18987
2.24032
2.28317
2.31916
2.34899
2.37332
2.39278
2.40795
2.41939
2.42764
2.43316
2.43637
2.43764
2.43726
2.43549
2.43252
2.42849
2.42352
2.41768
2.41106
2.40368
2.3956
2.38686
2.37748
2.36752
2.35699
2.34581
2.33209
0.301907
0.298308
0.294736
0.291185
0.287658
0.284162
0.280719
0.277356
0.274109
0.271019
0.268135
0.265514
0.263223
0.261342
0.259962
0.259185
0.259121
0.259879
0.261556
0.264229
0.267933
0.272651
0.2783
0.284722
0.291694
0.298929
0.306101
0.312866
0.31889
0.323873
0.327565
0.329785
0.330425
0.329455
0.326914
0.322913
0.317621
0.31126
0.304094
0.296424
0.288574
0.280887
0.273713
0.267402
0.262299
0.258744
0.25707
0.257617
0.260746
0.266861
0.276443
0.29008
0.308518
0.332703
0.363835
0.403439
0.453542
0.516927
0.597078
0.697166
0.818048
0.95657
1.1059
1.25783
1.40532
1.5436
1.6702
1.78425
1.88586
1.97565
2.05448
2.12326
2.18288
2.23418
2.27796
2.31493
2.34579
2.37118
2.39172
2.40798
2.42052
2.42986
2.43646
2.44074
2.44306
2.44371
2.44294
2.44094
2.43785
2.43379
2.42884
2.42306
2.41649
2.40918
2.40117
2.39249
2.38319
2.37327
2.36268
2.34959
0.281997
0.279852
0.277677
0.275468
0.273215
0.270919
0.268589
0.266238
0.263879
0.261529
0.259204
0.256924
0.25471
0.252585
0.250574
0.248706
0.247015
0.245534
0.244303
0.243359
0.242737
0.242465
0.242562
0.243031
0.243853
0.244989
0.246377
0.247933
0.249555
0.251132
0.252551
0.253704
0.254501
0.254874
0.254782
0.25422
0.253216
0.251834
0.250171
0.248353
0.246536
0.244901
0.243647
0.242996
0.243186
0.24448
0.247162
0.25155
0.258008
0.266959
0.278908
0.294466
0.314388
0.339612
0.371306
0.410957
0.460557
0.522834
0.60114
0.698485
0.815738
0.95013
1.09545
1.24404
1.38907
1.52578
1.65154
1.76531
1.86706
1.95732
2.03685
2.10651
2.16716
2.2196
2.26461
2.30288
2.33509
2.36187
2.3838
2.40147
2.41542
2.42614
2.43409
2.4397
2.4433
2.4452
2.44564
2.44481
2.44285
2.43987
2.43595
2.43116
2.42555
2.41914
2.41199
2.40413
2.3956
2.38641
2.3765
2.36414
0.263212
0.26205
0.260841
0.259584
0.25827
0.256897
0.255467
0.253987
0.252462
0.250902
0.249317
0.247716
0.246109
0.244506
0.242919
0.241357
0.239833
0.238358
0.236946
0.235613
0.234373
0.233242
0.232235
0.231365
0.230642
0.230071
0.229652
0.229375
0.229227
0.229185
0.229223
0.229313
0.229425
0.229534
0.229624
0.229688
0.229734
0.229787
0.229889
0.230106
0.230522
0.231245
0.232407
0.234165
0.236701
0.240231
0.245003
0.25131
0.259494
0.269963
0.283204
0.299808
0.320495
0.346151
0.377877
0.417085
0.465689
0.526313
0.602149
0.696037
0.808875
0.938296
1.07876
1.22321
1.36511
1.49973
1.62429
1.73758
1.83939
1.93012
2.01044
2.08113
2.143
2.19681
2.2433
2.28314
2.31697
2.34541
2.36903
2.38839
2.404
2.41637
2.42593
2.4331
2.43822
2.44158
2.44343
2.44395
2.44329
2.44156
2.43884
2.4352
2.43067
2.4253
2.41914
2.41221
2.40456
2.3962
2.38708
2.37554
0.24787
0.247295
0.246675
0.24601
0.245294
0.244523
0.243696
0.242816
0.241885
0.24091
0.239895
0.238846
0.237771
0.236675
0.235565
0.234447
0.233328
0.232212
0.231108
0.230022
0.228961
0.227934
0.226949
0.226016
0.225144
0.224343
0.22362
0.222984
0.22244
0.221994
0.221647
0.221402
0.221261
0.221228
0.221307
0.22151
0.221854
0.222365
0.22308
0.224052
0.225345
0.227046
0.22926
0.232117
0.235774
0.240418
0.246275
0.253613
0.262751
0.274071
0.28803
0.305178
0.326186
0.351872
0.383255
0.421653
0.468876
0.52741
0.600264
0.69012
0.797916
0.921683
1.05656
1.19615
1.33427
1.46627
1.58923
1.70175
1.80346
1.8946
1.97572
2.04751
2.11071
2.16605
2.2142
2.25581
2.2915
2.32183
2.34738
2.36867
2.3862
2.40045
2.41186
2.42081
2.42766
2.43269
2.43614
2.4382
2.43901
2.43869
2.43732
2.43496
2.43165
2.42746
2.4224
2.41653
2.40987
2.40246
2.39423
2.38361
0.236073
0.235827
0.235546
0.235228
0.234868
0.234464
0.234013
0.233515
0.232971
0.232385
0.231759
0.231098
0.230406
0.229688
0.228948
0.228192
0.227424
0.226648
0.22587
0.225093
0.224324
0.223566
0.222827
0.222113
0.221431
0.220789
0.220195
0.21966
0.219192
0.218803
0.218504
0.218305
0.218222
0.218268
0.218461
0.218822
0.219378
0.220161
0.221213
0.222585
0.224341
0.226561
0.229342
0.232805
0.237093
0.242379
0.248873
0.256823
0.266527
0.278338
0.29268
0.310061
0.331093
0.356524
0.387283
0.424588
0.470123
0.526214
0.595678
0.681044
0.783302
0.900875
1.02957
1.16365
1.29738
1.42619
1.5471
1.65853
1.75991
1.85131
1.93316
2.00605
2.07063
2.12758
2.17752
2.22105
2.25876
2.29118
2.31886
2.34228
2.36194
2.37829
2.39174
2.40269
2.41147
2.41835
2.42359
2.42735
2.4298
2.43104
2.43116
2.43023
2.42829
2.42539
2.42157
2.41686
2.41132
2.40496
2.39773
2.38812
0.227182
0.227116
0.227023
0.226902
0.226749
0.226562
0.226337
0.226075
0.225775
0.225438
0.225067
0.224664
0.224233
0.223777
0.2233
0.222806
0.2223
0.221786
0.221267
0.220748
0.220233
0.219727
0.219235
0.218763
0.218316
0.217901
0.217526
0.217201
0.216934
0.216738
0.216625
0.21661
0.21671
0.216943
0.217333
0.217904
0.218689
0.219724
0.221054
0.222732
0.224824
0.227408
0.230579
0.234452
0.239163
0.244877
0.251789
0.260133
0.270184
0.28227
0.29678
0.314177
0.335017
0.359975
0.389893
0.425879
0.469482
0.522853
0.588606
0.66913
0.765473
0.876434
0.998459
1.12648
1.25523
1.38031
1.4987
1.60864
1.70938
1.80083
1.88328
1.95719
2.02314
2.08171
2.1335
2.17904
2.21888
2.25353
2.28348
2.30921
2.33116
2.34978
2.36547
2.37859
2.38947
2.39839
2.40557
2.41121
2.41545
2.41841
2.42017
2.4208
2.42035
2.41887
2.41641
2.41299
2.40867
2.40347
2.39733
2.38884
0.220485
0.220515
0.220525
0.220514
0.220479
0.220418
0.220328
0.220209
0.22006
0.219882
0.219675
0.219442
0.219185
0.218907
0.218611
0.218302
0.217983
0.217658
0.217332
0.217008
0.21669
0.216385
0.216095
0.215827
0.215587
0.21538
0.215214
0.215098
0.215041
0.215054
0.215152
0.215348
0.21566
0.216109
0.216719
0.217517
0.218538
0.219819
0.221407
0.223356
0.225734
0.228616
0.232096
0.236285
0.241314
0.247339
0.254544
0.263146
0.273401
0.285612
0.300132
0.317382
0.33786
0.362172
0.391071
0.425558
0.467039
0.517477
0.579284
0.65471
0.744867
0.848908
0.963881
1.08538
1.20862
1.32944
1.44479
1.55282
1.65258
1.74381
1.82663
1.90142
1.96864
2.0288
2.08241
2.12999
2.17202
2.20897
2.2413
2.26945
2.29383
2.31487
2.33294
2.34839
2.36153
2.37263
2.38191
2.38957
2.39575
2.40056
2.40409
2.40642
2.4076
2.40767
2.40668
2.40466
2.40168
2.39774
2.39281
2.38554
0.215398
0.215478
0.215542
0.215591
0.215622
0.215633
0.215624
0.215592
0.215536
0.215458
0.215357
0.215235
0.215094
0.214937
0.214767
0.214586
0.2144
0.214211
0.214024
0.213844
0.213674
0.213521
0.213387
0.21328
0.213205
0.213169
0.213178
0.213241
0.213368
0.21357
0.213859
0.214252
0.214766
0.215421
0.216242
0.217257
0.2185
0.220011
0.221836
0.224029
0.226656
0.229792
0.233529
0.237973
0.243248
0.249503
0.25691
0.26567
0.276021
0.288237
0.302641
0.319608
0.339585
0.363107
0.390844
0.423688
0.462902
0.510258
0.567959
0.638122
0.721917
0.818828
0.926466
1.04105
1.15832
1.27436
1.38619
1.49184
1.59021
1.68088
1.76382
1.83927
1.90759
1.96922
2.0246
2.07418
2.11839
2.15766
2.19241
2.22304
2.24995
2.27351
2.29407
2.31197
2.32749
2.34091
2.35243
2.36224
2.37049
2.37729
2.38272
2.38687
2.38979
2.39153
2.39213
2.39163
2.39009
2.38752
2.3839
2.37795
0.211491
0.211593
0.211684
0.211763
0.21183
0.211883
0.21192
0.21194
0.211942
0.211927
0.211895
0.211847
0.211784
0.21171
0.211626
0.211536
0.211443
0.211352
0.211267
0.211192
0.211132
0.211093
0.211078
0.211095
0.211148
0.211246
0.211395
0.211604
0.211883
0.212242
0.212695
0.213258
0.213947
0.214783
0.215791
0.216999
0.218441
0.220155
0.222188
0.224593
0.227434
0.230784
0.23473
0.239375
0.244836
0.251253
0.258785
0.267619
0.277971
0.290091
0.304269
0.320838
0.340194
0.362806
0.389264
0.420354
0.457198
0.501377
0.554884
0.6197
0.697047
0.786711
0.886822
0.9942
1.10508
1.21587
1.32368
1.42647
1.52302
1.61274
1.69547
1.7713
1.84051
1.90343
1.96043
2.0119
2.05823
2.09979
2.13695
2.17009
2.19955
2.22568
2.24881
2.26925
2.28726
2.3031
2.31697
2.32905
2.33948
2.34838
2.35584
2.36193
2.3667
2.37022
2.37252
2.37365
2.37366
2.37257
2.37036
2.36583
0.208455
0.208564
0.208666
0.208759
0.208844
0.208918
0.208981
0.209032
0.20907
0.209095
0.209108
0.209109
0.209099
0.209081
0.209058
0.209032
0.209007
0.208987
0.208976
0.208979
0.209001
0.209046
0.209122
0.209233
0.209386
0.209588
0.209847
0.210171
0.210572
0.211059
0.211646
0.212348
0.213184
0.214172
0.215339
0.21671
0.21832
0.220207
0.222415
0.224996
0.228012
0.231534
0.235643
0.240437
0.246027
0.25254
0.260127
0.268956
0.279225
0.291158
0.305011
0.321081
0.339713
0.361315
0.386401
0.415657
0.450066
0.491022
0.540311
0.599772
0.670666
0.75305
0.845526
0.945477
1.04964
1.15475
1.25805
1.3575
1.45176
1.54012
1.62225
1.69814
1.76795
1.83191
1.89034
1.94354
1.99185
2.0356
2.07512
2.11072
2.14272
2.17144
2.19717
2.22019
2.24075
2.25908
2.27539
2.28983
2.30255
2.31365
2.32323
2.33136
2.3381
2.3435
2.3476
2.35046
2.35212
2.35261
2.35191
2.34892
0.206073
0.206181
0.206284
0.206381
0.206472
0.206557
0.206633
0.206702
0.206761
0.206811
0.206852
0.206886
0.206912
0.206934
0.206954
0.206974
0.206998
0.20703
0.207074
0.207134
0.207217
0.207327
0.20747
0.207653
0.207882
0.208165
0.208509
0.208924
0.20942
0.210009
0.210703
0.211518
0.212471
0.213584
0.214879
0.216383
0.21813
0.220156
0.222504
0.225224
0.228375
0.232025
0.23625
0.241142
0.246803
0.253352
0.260924
0.269676
0.279783
0.291444
0.304886
0.320368
0.338188
0.358698
0.382341
0.409708
0.44165
0.479381
0.524486
0.578656
0.643167
0.718314
0.803128
0.895511
0.992686
1.09174
1.19009
1.28572
1.37722
1.46375
1.54487
1.62044
1.69051
1.75522
1.81481
1.86952
1.91964
1.96542
2.00716
2.04513
2.07961
2.11087
2.13918
2.16479
2.18793
2.2088
2.22759
2.24446
2.25954
2.27293
2.28471
2.29498
2.30377
2.31115
2.31715
2.32183
2.32524
2.32741
2.32832
2.32696
0.204193
0.204294
0.204392
0.204487
0.204579
0.204666
0.204748
0.204824
0.204895
0.204961
0.20502
0.205075
0.205126
0.205176
0.205226
0.205279
0.205339
0.205409
0.205493
0.205597
0.205726
0.205884
0.206079
0.206316
0.206603
0.206947
0.207357
0.207842
0.208412
0.209079
0.209856
0.210759
0.211805
0.213014
0.214409
0.216017
0.217869
0.220001
0.222454
0.225276
0.228522
0.232255
0.236549
0.241487
0.247164
0.253688
0.261183
0.269788
0.279658
0.290971
0.303924
0.318741
0.335675
0.355029
0.377178
0.402626
0.4321
0.466645
0.507649
0.556651
0.614918
0.682943
0.760141
0.844893
0.934886
1.02757
1.12056
1.2119
1.30016
1.3844
1.46406
1.53889
1.60883
1.67395
1.73439
1.79034
1.842
1.88961
1.93339
1.97358
2.01041
2.04413
2.07496
2.10312
2.12881
2.15223
2.17353
2.19286
2.21034
2.22607
2.24013
2.2526
2.26352
2.27296
2.28095
2.28754
2.29279
2.29671
2.29932
2.29971
0.202704
0.202795
0.202886
0.202975
0.203062
0.203147
0.203229
0.203309
0.203385
0.203459
0.203529
0.203598
0.203666
0.203734
0.203806
0.203883
0.203968
0.204067
0.204181
0.204318
0.20448
0.204675
0.204908
0.205186
0.205517
0.205907
0.206366
0.206903
0.207529
0.208255
0.209095
0.210063
0.211178
0.212458
0.213927
0.21561
0.217538
0.219743
0.222267
0.225153
0.228454
0.232229
0.236545
0.241479
0.247118
0.253561
0.260916
0.269309
0.278877
0.289773
0.302168
0.316252
0.332242
0.350391
0.371014
0.394535
0.421566
0.452997
0.490026
0.534036
0.586261
0.647346
0.717043
0.794172
0.876859
0.962912
1.05018
1.13681
1.22136
1.30283
1.38056
1.45421
1.52361
1.58874
1.64967
1.70652
1.75944
1.8086
1.85419
1.89639
1.93541
1.97144
2.00467
2.03529
2.06348
2.08939
2.11318
2.13498
2.15488
2.17298
2.18936
2.20408
2.21719
2.22875
2.2388
2.24738
2.25453
2.2603
2.2647
2.26693
0.201527
0.201607
0.201688
0.201768
0.201848
0.201928
0.202008
0.202086
0.202164
0.202241
0.202318
0.202395
0.202473
0.202555
0.202641
0.202735
0.202839
0.202958
0.203095
0.203255
0.203443
0.203665
0.203926
0.204234
0.204596
0.20502
0.205514
0.206089
0.206754
0.207522
0.208406
0.20942
0.210582
0.211911
0.213429
0.215161
0.217134
0.219383
0.221944
0.224859
0.228177
0.231951
0.236245
0.241128
0.246679
0.252985
0.260144
0.268265
0.277469
0.287887
0.299665
0.312963
0.327963
0.344873
0.363955
0.385561
0.4102
0.438616
0.471831
0.51107
0.557506
0.611897
0.674275
0.743857
0.819186
0.898421
0.979661
1.06118
1.14158
1.2198
1.29514
1.36713
1.43554
1.50026
1.56128
1.61866
1.67249
1.72289
1.77
1.81397
1.85494
1.89308
1.92855
1.96149
1.99206
2.02039
2.04661
2.07083
2.09313
2.1136
2.13231
2.14931
2.16465
2.17838
2.19053
2.20115
2.21029
2.21797
2.22422
2.2284
0.200603
0.200671
0.200741
0.200811
0.200884
0.200957
0.201031
0.201106
0.201183
0.20126
0.201339
0.201421
0.201505
0.201595
0.201691
0.201797
0.201915
0.202048
0.202201
0.202378
0.202584
0.202825
0.203106
0.203435
0.203818
0.204265
0.204783
0.205382
0.206073
0.206867
0.207778
0.208821
0.21001
0.211367
0.212911
0.214666
0.216659
0.218922
0.221489
0.224398
0.227696
0.231431
0.235661
0.240447
0.245861
0.251981
0.258891
0.266688
0.275473
0.285361
0.296472
0.308941
0.322916
0.338569
0.356113
0.375833
0.398149
0.423672
0.453264
0.487988
0.528936
0.576931
0.632236
0.694415
0.762399
0.834696
0.909662
0.985728
1.06155
1.13608
1.20854
1.27841
1.34536
1.40922
1.4699
1.5274
1.58176
1.63304
1.68134
1.72676
1.76941
1.80942
1.8469
1.88198
1.91477
1.94539
1.97393
2.00049
2.02514
2.04794
2.06896
2.08823
2.10581
2.12173
2.13602
2.14873
2.15989
2.16953
2.1777
2.18392
0.199888
0.199944
0.200003
0.200064
0.200127
0.200192
0.20026
0.200331
0.200404
0.20048
0.200559
0.200642
0.200729
0.200824
0.200927
0.20104
0.201166
0.20131
0.201473
0.201661
0.201879
0.202132
0.202426
0.202768
0.203165
0.203625
0.204156
0.204769
0.205473
0.20628
0.207203
0.208257
0.209457
0.210821
0.212369
0.214124
0.216112
0.218361
0.220904
0.223777
0.22702
0.230679
0.234804
0.239453
0.244687
0.250573
0.257188
0.264612
0.272933
0.282246
0.292651
0.304258
0.317187
0.331577
0.347598
0.365479
0.385557
0.408329
0.434507
0.465
0.500798
0.542746
0.59128
0.646267
0.706989
0.772292
0.840798
0.911118
0.981995
1.05239
1.12151
1.18878
1.25381
1.31633
1.37623
1.43341
1.48788
1.53965
1.58876
1.63529
1.67929
1.72087
1.7601
1.79708
1.83189
1.86461
1.89533
1.9241
1.95099
1.97605
1.99932
2.02084
2.04063
2.05873
2.07517
2.08998
2.10319
2.11484
2.12497
2.13331
0.199348
0.199393
0.199441
0.199493
0.199547
0.199605
0.199667
0.199732
0.1998
0.199873
0.19995
0.200033
0.200121
0.200218
0.200324
0.200441
0.200573
0.200722
0.200892
0.201087
0.201312
0.201571
0.201872
0.20222
0.202623
0.203087
0.203623
0.204238
0.204944
0.205752
0.206674
0.207723
0.208916
0.21027
0.211803
0.213537
0.215496
0.217706
0.220197
0.223003
0.226159
0.229708
0.233693
0.238166
0.243179
0.248792