/*--------------------------------*- C++ -*----------------------------------*\
| =========                 |                                                 |
| \\      /  F ield         | OpenFOAM: The Open Source CFD Toolbox           |
|  \\    /   O peration     | Version:  4.1                                   |
|   \\  /    A nd           | Web:      www.OpenFOAM.org                      |
|    \\/     M anipulation  |                                                 |
\*---------------------------------------------------------------------------*/
FoamFile
{
    version     2.0;
    format      ascii;
    class       volScalarField;
    location    "400";
    object      nut;
}
// * * * * * * * * * * * * * * * * * * * * * * * * * * * * * * * * * * * * * //

dimensions      [0 2 -1 0 0 0 0];

internalField   nonuniform List<scalar> 
6820
(
3.5437e-05
5.0672e-05
6.21565e-05
6.8986e-05
7.29396e-05
7.51489e-05
7.62616e-05
7.66573e-05
7.65761e-05
7.6178e-05
7.55725e-05
7.48355e-05
7.40202e-05
7.31639e-05
7.22929e-05
7.14253e-05
7.05735e-05
6.97459e-05
6.89478e-05
6.81825e-05
6.74517e-05
6.67561e-05
6.60956e-05
6.54697e-05
6.48774e-05
6.43176e-05
6.3789e-05
6.32904e-05
6.28189e-05
6.23809e-05
6.19383e-05
6.16676e-05
6.0788e-05
0.00135033
0.000930454
0.000725657
0.000569947
0.00045334
0.000372235
0.000316245
0.000276513
0.000247333
0.000225229
0.000208046
0.000194392
0.000183345
0.00017427
0.000166721
0.000160376
0.000154995
0.000150397
0.000146443
0.000143023
0.000140053
0.000137461
0.000135193
0.000133201
0.000131449
0.000129903
0.000128538
0.000127332
0.000126262
0.00012532
0.000124469
0.000123775
0.000122971
0.0034439
0.00180035
0.00133709
0.00108081
0.000912414
0.000791571
0.00070096
0.000631008
0.000575636
0.000530821
0.000493847
0.000462835
0.000436455
0.000413746
0.000393997
0.00037667
0.000361355
0.000347729
0.000335538
0.000324576
0.000314678
0.000305706
0.000297546
0.000290102
0.000283294
0.000277052
0.000271318
0.00026604
0.000261173
0.000256681
0.000252521
0.000248681
0.000245078
0.00637392
0.00310291
0.00217848
0.00173335
0.00146617
0.00128428
0.00115083
0.00104809
0.000966283
0.000899492
0.000843868
0.000796788
0.000756397
0.000721345
0.000690623
0.000663465
0.000639277
0.00061759
0.000598032
0.000580303
0.000564157
0.000549391
0.000535837
0.000523354
0.000511823
0.000501143
0.000491226
0.000481998
0.000473394
0.000465357
0.000457836
0.000450792
0.000444164
0.00899736
0.00527271
0.00366203
0.00284165
0.00235739
0.00203859
0.00181199
0.00164193
0.00150913
0.00140228
0.0013143
0.00124051
0.00117768
0.00112349
0.00107626
0.0010347
0.000997848
0.000964931
0.000935345
0.000908606
0.00088432
0.000862163
0.000841866
0.000823208
0.000805998
0.000790078
0.000775311
0.000761581
0.000748786
0.00073684
0.000725664
0.000715195
0.000705356
0.0103765
0.00752964
0.0056135
0.0044339
0.00367734
0.00316208
0.00279177
0.00251374
0.00229753
0.00212463
0.00198321
0.00186537
0.00176565
0.00168017
0.00160608
0.00154124
0.00148402
0.00143316
0.00138766
0.00134671
0.00130967
0.00127601
0.00124529
0.00121716
0.0011913
0.00116746
0.00114541
0.00112498
0.001106
0.00108833
0.00107185
0.00105645
0.00104204
0.0109773
0.00922097
0.00752198
0.00622414
0.00528079
0.00458902
0.00406909
0.00366777
0.00335026
0.00309357
0.00288218
0.00270532
0.00255531
0.00242657
0.00231496
0.00221731
0.00213122
0.00205477
0.00198646
0.00192509
0.00186966
0.00181939
0.00177359
0.00173173
0.00169332
0.00165798
0.00162537
0.0015952
0.00156724
0.00154125
0.00151707
0.00149452
0.00147347
0.0112223
0.01026
0.00902119
0.00786212
0.00689749
0.00612306
0.00550381
0.00500454
0.00459693
0.00425969
0.00397709
0.00373748
0.00353214
0.00335449
0.00319948
0.00306318
0.00294251
0.00283501
0.00273872
0.00265202
0.0025736
0.00250237
0.00243744
0.00237803
0.00232351
0.00227333
0.00222702
0.00218418
0.00214447
0.00210759
0.00207327
0.0020413
0.00201146
0.0113196
0.0108286
0.0100354
0.00914721
0.00830326
0.0075577
0.00691846
0.00637565
0.00591469
0.00552148
0.00518392
0.0048921
0.00463804
0.00441535
0.0042189
0.00404458
0.00388904
0.00374956
0.0036239
0.00351019
0.0034069
0.00331274
0.00322661
0.00314759
0.00307488
0.00300781
0.00294579
0.00288833
0.00283497
0.00278535
0.00273913
0.00269602
0.00265576
0.0113579
0.0111187
0.0106546
0.0100468
0.00939299
0.00875758
0.00817164
0.00764534
0.0071783
0.00676568
0.00640125
0.00607874
0.00579244
0.00553733
0.00530912
0.00510416
0.00491937
0.00475214
0.00460026
0.00446186
0.00433536
0.00421938
0.00411277
0.00401451
0.00392373
0.00383968
0.00376171
0.00368924
0.00362177
0.00355885
0.00350011
0.0034452
0.00339381
0.0113728
0.01126
0.0110056
0.0106242
0.0101643
0.00967409
0.00918771
0.00872462
0.00829398
0.00789877
0.0075386
0.00721143
0.0069145
0.00664489
0.00639976
0.00617647
0.00597265
0.00578619
0.00561519
0.00545803
0.00531326
0.00517961
0.00505597
0.00494136
0.00483493
0.00473592
0.00464366
0.00455756
0.0044771
0.00440182
0.0043313
0.00426518
0.00420312
0.0113787
0.0113266
0.0111939
0.0109702
0.0106711
0.0103231
0.00995197
0.00957715
0.00921129
0.00886181
0.00853249
0.00822477
0.00793869
0.00767349
0.007428
0.00720084
0.00699059
0.00679585
0.00661531
0.00644772
0.00629197
0.00614702
0.00601195
0.0058859
0.00576813
0.00565796
0.00555476
0.00545799
0.00536716
0.00528181
0.00520155
0.00512602
0.00505488
0.0113809
0.0113571
0.0112905
0.0111663
0.010984
0.0107537
0.0104905
0.0102085
0.0099194
0.00963157
0.00935066
0.00908023
0.00882227
0.00857776
0.00834698
0.00812974
0.00792561
0.00773396
0.00755413
0.00738537
0.00722697
0.00707824
0.0069385
0.00680713
0.00668353
0.00656717
0.00645754
0.00635417
0.00625666
0.0061646
0.00607764
0.00599546
0.00591774
0.0113818
0.0113708
0.0113383
0.0112723
0.011167
0.0110237
0.0108485
0.0106498
0.0104357
0.0102134
0.00998844
0.00976503
0.00954611
0.00933365
0.00912891
0.00893263
0.00874516
0.00856658
0.00839679
0.00823557
0.00808262
0.00793759
0.0078001
0.00766978
0.00754625
0.00742913
0.00731807
0.00721274
0.0071128
0.00701796
0.00692793
0.00684244
0.00676125
0.0113822
0.0113768
0.0113611
0.0113272
0.0112692
0.0111845
0.0110744
0.0109422
0.0107928
0.0106309
0.010461
0.0102867
0.0101111
0.00993633
0.00976425
0.00959605
0.00943259
0.00927445
0.00912197
0.00897533
0.0088346
0.00869974
0.00857066
0.00844722
0.00832925
0.00821655
0.00810894
0.00800619
0.00790812
0.00781451
0.00772517
0.00763991
0.00755853
0.0113823
0.0113794
0.0113717
0.0113547
0.0113238
0.011276
0.0112101
0.0111267
0.0110279
0.0109163
0.0107947
0.0106658
0.0105321
0.0103957
0.0102583
0.0101212
0.00998547
0.00985201
0.0097214
0.00959409
0.00947039
0.00935052
0.00923458
0.00912265
0.00901474
0.00891081
0.0088108
0.00871465
0.00862227
0.00853354
0.00844836
0.00836663
0.0082882
0.0113824
0.0113805
0.0113765
0.0113679
0.0113519
0.0113258
0.0112881
0.0112379
0.0111757
0.0111025
0.0110198
0.0109292
0.0108324
0.010731
0.0106264
0.0105199
0.0104124
0.0103048
0.0101979
0.0100922
0.00998812
0.00988605
0.00978625
0.00968892
0.00959419
0.00950215
0.00941287
0.00932638
0.00924268
0.00916177
0.0090836
0.00900814
0.00893533
0.0113824
0.0113809
0.0113786
0.0113741
0.0113658
0.0113519
0.011331
0.011302
0.0112646
0.0112187
0.011165
0.0111043
0.0110374
0.0109655
0.0108896
0.0108105
0.0107291
0.0106462
0.0105624
0.0104783
0.0103944
0.010311
0.0102286
0.0101473
0.0100674
0.00998899
0.0099123
0.00983741
0.00976437
0.00969326
0.0096241
0.00955691
0.00949168
0.0113824
0.0113811
0.0113794
0.0113768
0.0113724
0.011365
0.0113537
0.0113375
0.0113157
0.0112882
0.0112548
0.0112158
0.0111717
0.0111229
0.0110701
0.011014
0.010955
0.0108937
0.0108308
0.0107667
0.0107017
0.0106363
0.0105708
0.0105055
0.0104406
0.0103764
0.0103129
0.0102504
0.0101889
0.0101286
0.0100695
0.0100117
0.0099552
0.0113824
0.0113812
0.0113798
0.011378
0.0113754
0.0113714
0.0113652
0.0113563
0.011344
0.011328
0.011308
0.0112839
0.011256
0.0112243
0.0111891
0.0111508
0.0111098
0.0110664
0.011021
0.010974
0.0109256
0.0108763
0.0108262
0.0107757
0.0107249
0.010674
0.0106233
0.0105729
0.0105229
0.0104734
0.0104245
0.0103764
0.010329
0.0113824
0.0113812
0.01138
0.0113786
0.0113768
0.0113744
0.0113708
0.0113659
0.011359
0.0113499
0.0113382
0.0113239
0.0113068
0.0112869
0.0112643
0.0112392
0.0112118
0.0111821
0.0111506
0.0111174
0.0110827
0.0110467
0.0110097
0.0109719
0.0109334
0.0108945
0.0108552
0.0108158
0.0107763
0.0107368
0.0106976
0.0106586
0.0106199
0.0113824
0.0113812
0.01138
0.0113788
0.0113774
0.0113757
0.0113735
0.0113706
0.0113666
0.0113614
0.0113547
0.0113463
0.0113361
0.0113239
0.0113099
0.0112939
0.0112761
0.0112565
0.0112352
0.0112124
0.0111882
0.0111627
0.0111361
0.0111085
0.0110801
0.011051
0.0110213
0.0109911
0.0109606
0.0109298
0.0108989
0.0108679
0.0108368
0.0113824
0.0113812
0.01138
0.0113788
0.0113776
0.0113763
0.0113747
0.0113727
0.0113703
0.0113672
0.0113632
0.0113583
0.0113521
0.0113448
0.0113361
0.011326
0.0113146
0.0113017
0.0112875
0.011272
0.0112553
0.0112374
0.0112184
0.0111985
0.0111776
0.011156
0.0111336
0.0111106
0.0110871
0.0110632
0.0110388
0.0110142
0.0109894
0.0113824
0.0113812
0.01138
0.0113789
0.0113777
0.0113765
0.0113752
0.0113737
0.011372
0.0113699
0.0113674
0.0113642
0.0113603
0.0113556
0.01135
0.0113434
0.0113357
0.011327
0.0113171
0.0113062
0.0112942
0.0112812
0.0112672
0.0112522
0.0112364
0.0112197
0.0112023
0.0111842
0.0111655
0.0111463
0.0111265
0.0111064
0.0110858
0.0113824
0.0113812
0.01138
0.0113789
0.0113777
0.0113765
0.0113753
0.011374
0.0113726
0.0113709
0.0113689
0.0113665
0.0113636
0.01136
0.0113557
0.0113506
0.0113447
0.0113378
0.01133
0.0113213
0.0113115
0.0113009
0.0112893
0.0112768
0.0112634
0.0112493
0.0112343
0.0112187
0.0112024
0.0111856
0.0111682
0.0111503
0.011132
0.0113824
0.0113812
0.01138
0.0113789
0.0113777
0.0113765
0.0113753
0.011374
0.0113725
0.0113708
0.0113687
0.0113662
0.0113631
0.0113594
0.011355
0.0113498
0.0113437
0.0113367
0.0113287
0.0113198
0.01131
0.0112992
0.0112875
0.0112749
0.0112614
0.0112472
0.0112322
0.0112165
0.0112001
0.0111832
0.0111657
0.0111477
0.0111293
0.0113824
0.0113812
0.01138
0.0113789
0.0113777
0.0113764
0.011375
0.0113734
0.0113715
0.0113692
0.0113663
0.0113627
0.0113584
0.0113531
0.0113469
0.0113397
0.0113314
0.0113221
0.0113117
0.0113001
0.0112876
0.011274
0.0112595
0.011244
0.0112277
0.0112106
0.0111927
0.0111742
0.0111551
0.0111354
0.0111153
0.0110947
0.0110737
0.0113824
0.0113812
0.01138
0.0113788
0.0113775
0.011376
0.0113742
0.0113718
0.0113688
0.0113649
0.0113599
0.0113538
0.0113463
0.0113375
0.0113272
0.0113155
0.0113023
0.0112878
0.0112719
0.0112547
0.0112363
0.0112168
0.0111962
0.0111748
0.0111525
0.0111294
0.0111057
0.0110813
0.0110565
0.0110313
0.0110057
0.0109798
0.0109536
0.0113824
0.0113812
0.01138
0.0113787
0.011377
0.0113749
0.0113718
0.0113676
0.0113619
0.0113544
0.011345
0.0113335
0.0113198
0.0113039
0.0112859
0.0112658
0.0112438
0.01122
0.0111946
0.0111677
0.0111395
0.0111102
0.0110798
0.0110486
0.0110167
0.0109842
0.0109513
0.0109179
0.0108843
0.0108506
0.0108167
0.0107828
0.0107489
0.0113824
0.0113812
0.0113799
0.0113781
0.0113755
0.0113714
0.0113652
0.0113565
0.0113447
0.0113296
0.0113111
0.011289
0.0112635
0.0112349
0.0112033
0.0111691
0.0111325
0.0110939
0.0110535
0.0110118
0.0109688
0.0109249
0.0108803
0.0108352
0.0107897
0.0107441
0.0106984
0.0106528
0.0106074
0.0105623
0.0105175
0.0104731
0.0104292
0.0113825
0.0113812
0.0113794
0.0113761
0.0113705
0.0113612
0.0113472
0.011328
0.011303
0.0112721
0.0112357
0.0111941
0.0111479
0.0110975
0.0110438
0.0109871
0.0109283
0.0108676
0.0108057
0.0107429
0.0106796
0.010616
0.0105526
0.0104894
0.0104266
0.0103645
0.0103031
0.0102426
0.010183
0.0101244
0.0100668
0.0100103
0.00995486
0.0113825
0.0113808
0.011377
0.0113691
0.0113546
0.0113315
0.0112989
0.0112562
0.0112038
0.0111425
0.0110736
0.0109983
0.0109179
0.0108336
0.0107464
0.0106575
0.0105674
0.010477
0.0103868
0.0102972
0.0102086
0.0101214
0.0100356
0.00995144
0.00986911
0.00978865
0.00971013
0.00963356
0.00955897
0.00948636
0.0094157
0.00934698
0.00928015
0.0113825
0.0113787
0.0113679
0.0113448
0.0113055
0.0112481
0.0111729
0.0110818
0.0109772
0.0108622
0.0107396
0.0106119
0.0104813
0.0103496
0.010218
0.0100878
0.00995967
0.0098342
0.00971182
0.0095928
0.00947733
0.00936548
0.00925729
0.00915274
0.0090518
0.00895438
0.0088604
0.00876976
0.00868234
0.00859803
0.00851672
0.00843828
0.00836261
0.011382
0.0113691
0.0113325
0.0112633
0.0111588
0.0110223
0.0108602
0.01068
0.0104883
0.010291
0.0100925
0.00989582
0.00970339
0.00951669
0.00933664
0.00916373
0.00899817
0.00883998
0.00868903
0.0085451
0.00840793
0.00827723
0.00815267
0.00803395
0.00792074
0.00781275
0.00770969
0.00761126
0.00751721
0.00742729
0.00734127
0.00725891
0.00718002
0.0113786
0.0113249
0.0111997
0.011001
0.0107443
0.0104512
0.0101407
0.00982718
0.00951996
0.00922474
0.00894457
0.00868081
0.00843378
0.008203
0.00798763
0.00778667
0.00759908
0.00742381
0.00725988
0.00710636
0.0069624
0.00682722
0.0067001
0.0065804
0.00646754
0.00636097
0.00626021
0.00616484
0.00607444
0.00598867
0.00590719
0.00582969
0.00575592
0.0113536
0.0111261
0.0107259
0.010223
0.00968838
0.00916707
0.00868061
0.00823678
0.00783628
0.00747653
0.00715378
0.00686415
0.00660345
0.00636793
0.00615434
0.00595992
0.00578229
0.00561944
0.00546965
0.00533146
0.00520358
0.00508495
0.0049746
0.00487172
0.00477558
0.00468557
0.00460111
0.00452173
0.00444699
0.00437649
0.0043099
0.00424691
0.00418723
0.0111683
0.0102731
0.00924322
0.00829372
0.00748995
0.00682636
0.0062784
0.00582273
0.00544026
0.00511616
0.00483926
0.00459994
0.00439096
0.00420683
0.0040433
0.00389707
0.0037655
0.00364647
0.00353826
0.00343945
0.00334885
0.00326547
0.00318849
0.00311719
0.00305097
0.00298929
0.00293171
0.00287783
0.0028273
0.00277983
0.00273514
0.002693
0.00265319
0.00982657
0.00723885
0.00577399
0.00486942
0.00424862
0.0037874
0.00342679
0.00314011
0.00290882
0.0027181
0.00255773
0.00242088
0.00230273
0.00219966
0.00210896
0.00202851
0.00195665
0.00189205
0.00183364
0.00178056
0.00173208
0.00168763
0.0016467
0.00160888
0.00157382
0.00154122
0.00151082
0.0014824
0.00145577
0.00143076
0.00140721
0.00138501
0.00136403
0.00414167
0.00254161
0.00204418
0.00174835
0.00154032
0.0013782
0.00124755
0.00114116
0.00105353
0.000980621
0.000919305
0.000867173
0.000822384
0.000783532
0.000749539
0.000719569
0.000692964
0.0006692
0.000647857
0.000628593
0.000611126
0.000595224
0.000580694
0.000567371
0.000555117
0.000543813
0.000533358
0.000523664
0.000514654
0.000506263
0.000498432
0.00049111
0.000484245
0.000119434
0.000124352
0.000129424
0.000134072
0.000138234
0.000142037
0.000145561
0.000148848
0.000151923
0.000154805
0.00015751
0.000160052
0.000162441
0.000164688
0.000166801
0.00016879
0.000170661
0.000172422
0.000174079
0.000175639
0.000177108
0.00017849
0.000179792
0.000181017
0.000182171
0.000183258
0.00018428
0.000185244
0.000186151
0.000187005
0.000187809
0.000188566
0.00018928
6.61906e-05
7.79357e-05
9.68101e-05
0.000122006
0.000152594
0.000187309
0.000224898
0.00026411
0.000303739
0.000342756
0.00038045
0.000416485
0.000450858
0.000483797
0.000515632
0.000546686
0.000577206
0.000607337
0.000637121
0.000666525
0.000695472
0.000723873
0.000751653
0.000778761
0.000805174
0.000830895
0.000855939
0.000880331
0.00090409
0.00092723
0.000949753
0.000971652
0.000992908
0.0010135
0.00103339
0.00105255
0.00107097
0.00108862
0.00110553
0.00112176
0.00113743
0.00115279
0.00116824
0.00118443
0.00120244
0.00122394
0.0012515
0.00128905
0.0013424
0.00141979
0.00153226
0.00169355
0.00191937
0.0022262
0.00263032
0.00314733
0.00379274
0.004585
0.00554762
0.00669774
0.00801516
0.00941995
0.0107936
0.0120292
0.0130656
0.0138888
0.014515
0.0149745
0.0153001
0.0155218
0.0156656
0.0157523
0.0157987
0.0158181
0.0158206
0.0158142
0.0158047
0.0157965
0.0157926
0.0157948
0.0158037
0.0158193
0.0158408
0.0158668
0.0158954
0.0159247
0.0159527
0.0159774
0.0159974
0.0160111
0.0160176
0.0160162
0.0160066
0.0159885
0.0159622
0.0159279
0.015886
0.0158369
0.0157805
0.0157071
0.000122633
0.000122785
0.000125098
0.000130017
0.000137553
0.000147851
0.000160961
0.000176891
0.000195638
0.000217172
0.000241415
0.000268219
0.000297349
0.000328477
0.000361199
0.000395052
0.000429554
0.000464242
0.000498708
0.000532628
0.000565774
0.000598013
0.000629287
0.000659595
0.000688967
0.00071745
0.000745092
0.000771939
0.000798031
0.000823405
0.000848089
0.000872114
0.000895505
0.00091829
0.000940502
0.000962188
0.000983414
0.00100428
0.00102495
0.00104567
0.00106682
0.00108896
0.00111296
0.00114008
0.0011722
0.00121205
0.00126347
0.00133178
0.00142399
0.00154889
0.00171686
0.00193935
0.00222845
0.00259663
0.00305669
0.00362196
0.00430727
0.00513193
0.00612076
0.00729048
0.00861835
0.0100222
0.0113839
0.0125997
0.0136119
0.0144096
0.0150112
0.0154478
0.0157529
0.0159566
0.0160847
0.0161581
0.0161933
0.0162034
0.0161986
0.0161864
0.0161728
0.0161619
0.0161566
0.0161584
0.016168
0.0161849
0.0162082
0.0162362
0.0162668
0.016298
0.0163275
0.0163534
0.0163739
0.0163875
0.0163934
0.0163908
0.0163794
0.0163591
0.0163302
0.0162928
0.0162475
0.0161948
0.0161346
0.0160569
0.000241244
0.000236969
0.000232719
0.000229025
0.00022649
0.000225301
0.000225632
0.000227661
0.000231577
0.000237575
0.000245847
0.000256567
0.000269873
0.000285844
0.000304488
0.000325723
0.000349383
0.000375215
0.000402894
0.00043205
0.000462284
0.000493203
0.000524441
0.00055568
0.000586666
0.000617211
0.000647194
0.00067655
0.000705264
0.000733351
0.000760857
0.000787844
0.000814391
0.000840598
0.000866589
0.000892524
0.000918616
0.000945154
0.000972534
0.0010013
0.00103223
0.00106636
0.00110516
0.00115062
0.00120542
0.0012731
0.00135817
0.00146624
0.00160392
0.00177876
0.00199908
0.00227379
0.00261244
0.00302533
0.00352359
0.00411947
0.00482752
0.00566762
0.00666509
0.00783622
0.00915772
0.0105484
0.0118927
0.0130892
0.0140822
0.0148616
0.0154461
0.0158672
0.0161582
0.0163495
0.0164666
0.0165305
0.0165577
0.0165611
0.0165508
0.0165345
0.0165179
0.0165052
0.016499
0.016501
0.0165114
0.0165299
0.0165551
0.0165853
0.0166182
0.0166514
0.0166828
0.0167101
0.0167315
0.0167456
0.0167514
0.0167481
0.0167355
0.0167136
0.0166825
0.0166427
0.0165946
0.0165388
0.0164751
0.0163937
0.000436953
0.000429094
0.000421488
0.000414282
0.000407614
0.000401779
0.000396826
0.000392745
0.000389514
0.000387125
0.000385613
0.000385065
0.00038563
0.000387521
0.000390996
0.000396339
0.000403822
0.000413666
0.000426017
0.000440915
0.000458297
0.000478004
0.000499804
0.000523414
0.000548536
0.000574875
0.000602164
0.000630176
0.000658733
0.000687715
0.000717059
0.000746762
0.000776884
0.00080755
0.000838956
0.000871384
0.000905217
0.000940969
0.000979314
0.00102114
0.00106759
0.00112016
0.00118074
0.00125171
0.00133603
0.00143726
0.00155961
0.00170795
0.00188777
0.0021052
0.00236701
0.00268063
0.00305434
0.00349723
0.00401939
0.00463217
0.00534975
0.00619204
0.00718422
0.0083421
0.0096433
0.0110101
0.0123313
0.0135081
0.0144853
0.0152517
0.0158254
0.0162369
0.0165194
0.0167031
0.0168134
0.0168712
0.0168931
0.016892
0.016878
0.0168588
0.0168403
0.0168264
0.01682
0.0168223
0.0168338
0.0168539
0.0168811
0.0169135
0.0169487
0.0169842
0.0170177
0.0170467
0.0170695
0.0170845
0.0170906
0.0170872
0.017074
0.017051
0.0170184
0.0169766
0.0169262
0.0168678
0.0168012
0.0167166
0.000694642
0.000683005
0.000671863
0.000661387
0.000651663
0.000642871
0.000635024
0.000628079
0.000621957
0.000616559
0.000611789
0.000607568
0.000603846
0.00060062
0.000597938
0.000595907
0.000594695
0.000594526
0.000595663
0.000598392
0.000602993
0.000609714
0.000618751
0.000630231
0.00064421
0.000660678
0.000679576
0.000700811
0.000724286
0.000749912
0.000777636
0.000807451
0.00083942
0.000873681
0.000910473
0.000950145
0.000993179
0.00104021
0.00109207
0.00114979
0.00121466
0.00128827
0.00137254
0.00146977
0.00158266
0.00171436
0.0018685
0.00204923
0.00226123
0.00250979
0.00280082
0.00314096
0.00353757
0.00399883
0.00453377
0.00515282
0.00586957
0.00670358
0.00767938
0.00881232
0.0100819
0.0114157
0.0127085
0.0138644
0.0148277
0.0155853
0.0161531
0.0165603
0.0168392
0.0170194
0.0171265
0.0171813
0.0172004
0.0171968
0.0171807
0.0171599
0.0171402
0.0171257
0.0171193
0.0171222
0.0171348
0.0171564
0.0171856
0.0172202
0.0172577
0.0172956
0.0173313
0.0173623
0.0173868
0.017403
0.01741
0.017407
0.0173937
0.0173702
0.0173366
0.0172934
0.0172413
0.0171807
0.0171117
0.0170243
0.00102638
0.00100946
0.000993368
0.000978255
0.000964235
0.000951419
0.0009398
0.000929322
0.000919896
0.000911415
0.000903765
0.000896843
0.000890565
0.000884871
0.000879737
0.000875174
0.000871234
0.000868012
0.000865643
0.000864302
0.000864198
0.000865564
0.00086865
0.000873714
0.000881005
0.000890757
0.000903186
0.000918481
0.000936815
0.000958346
0.000983235
0.00101166
0.00104382
0.00107999
0.00112049
0.00116576
0.00121632
0.00127287
0.00133623
0.00140744
0.00148772
0.00157857
0.00168173
0.00179929
0.00193365
0.00208761
0.00226439
0.00246768
0.00270168
0.00297114
0.00328137
0.0036383
0.00404849
0.00451912
0.00505817
0.0056751
0.00638277
0.00720011
0.00815067
0.00924938
0.0104783
0.0117715
0.0130308
0.014164
0.0151146
0.0158664
0.0164323
0.0168395
0.0171189
0.0172995
0.0174068
0.0174613
0.0174799
0.0174756
0.0174588
0.0174374
0.0174173
0.0174028
0.0173966
0.0174002
0.0174139
0.017437
0.0174679
0.0175046
0.0175444
0.0175847
0.0176227
0.0176559
0.0176823
0.0177002
0.0177085
0.0177063
0.0176935
0.0176699
0.0176359
0.0175919
0.0175385
0.0174764
0.0174055
0.0173158
0.00145064
0.00142607
0.00140277
0.00138086
0.00136045
0.00134161
0.00132432
0.00130851
0.00129408
0.00128091
0.0012689
0.00125794
0.00124794
0.00123884
0.00123061
0.00122326
0.00121683
0.00121138
0.00120702
0.00120388
0.0012021
0.00120188
0.0012034
0.00120689
0.00121258
0.00122071
0.00123155
0.00124537
0.00126244
0.00128306
0.00130753
0.00133619
0.0013694
0.00140755
0.00145111
0.00150061
0.00155666
0.00161998
0.00169143
0.00177203
0.00186295
0.00196559
0.0020816
0.00221287
0.00236163
0.00253043
0.00272223
0.00294038
0.00318869
0.00347146
0.00379343
0.00415984
0.00457639
0.00504931
0.00558554
0.00619357
0.00688545
0.00767928
0.0085975
0.00965468
0.0108358
0.0120821
0.0133034
0.0144116
0.0153494
0.0160975
0.0166648
0.0170756
0.0173591
0.0175437
0.0176541
0.0177111
0.0177313
0.0177281
0.017712
0.017691
0.0176713
0.0176571
0.0176513
0.0176556
0.0176703
0.0176947
0.0177272
0.0177658
0.0178078
0.0178503
0.0178906
0.0179262
0.0179547
0.0179746
0.0179845
0.0179837
0.0179718
0.0179487
0.0179148
0.0178706
0.0178165
0.0177533
0.017681
0.0175895
0.00197911
0.00194433
0.00191135
0.00188024
0.00185112
0.001824
0.00179884
0.00177557
0.00175407
0.00173423
0.00171593
0.00169906
0.00168353
0.0016693
0.00165633
0.00164464
0.00163428
0.00162531
0.00161785
0.00161203
0.00160799
0.00160591
0.00160596
0.00160835
0.00161329
0.00162101
0.00163174
0.00164575
0.00166333
0.00168478
0.00171044
0.00174068
0.00177592
0.00181662
0.00186329
0.00191652
0.00197697
0.00204542
0.00212274
0.00220994
0.00230819
0.00241886
0.0025435
0.00268393
0.00284223
0.00302079
0.00322233
0.00344994
0.00370707
0.00399755
0.00432558
0.00469571
0.00511283
0.00558223
0.00610989
0.00670339
0.00737396
0.00813871
0.0090189
0.0100288
0.0111566
0.0123508
0.0135298
0.0146104
0.015535
0.0162804
0.0168514
0.0172689
0.0175599
0.0177515
0.0178679
0.0179298
0.0179538
0.0179534
0.0179394
0.0179198
0.0179011
0.0178876
0.0178826
0.0178876
0.0179031
0.0179286
0.0179625
0.0180028
0.0180466
0.0180913
0.0181339
0.0181718
0.0182027
0.0182248
0.0182367
0.0182376
0.0182271
0.0182051
0.0181719
0.0181278
0.0180737
0.0180099
0.0179366
0.017844
0.00261205
0.00256499
0.00252028
0.00247797
0.00243811
0.00240072
0.00236573
0.00233305
0.00230257
0.00227416
0.00224772
0.00222312
0.00220029
0.00217918
0.00215975
0.00214203
0.00212607
0.00211195
0.00209979
0.00208973
0.00208192
0.00207654
0.00207378
0.00207384
0.00207693
0.00208326
0.00209307
0.0021066
0.00212414
0.00214599
0.00217245
0.00220392
0.00224079
0.00228354
0.00233268
0.00238881
0.00245261
0.00252484
0.00260639
0.00269826
0.0028016
0.00291773
0.00304816
0.00319463
0.00335909
0.00354379
0.00375123
0.00398423
0.00424589
0.00453961
0.00486903
0.00523805
0.0056508
0.00611173
0.00662594
0.00720018
0.00784482
0.00857593
0.00941356
0.0103718
0.0114419
0.0125799
0.0137128
0.014763
0.015673
0.016416
0.0169923
0.0174189
0.0177202
0.0179216
0.0180469
0.018116
0.0181459
0.0181501
0.0181395
0.0181224
0.0181054
0.0180932
0.0180891
0.0180948
0.0181111
0.0181375
0.0181725
0.0182141
0.0182597
0.0183063
0.0183511
0.0183914
0.0184247
0.0184492
0.0184634
0.0184664
0.0184578
0.0184373
0.0184052
0.0183619
0.0183081
0.0182444
0.0181707
0.0180773
0.00333788
0.00327751
0.00321996
0.00316528
0.00311349
0.00306456
0.00301843
0.002975
0.00293417
0.00289583
0.00285984
0.00282611
0.00279457
0.00276515
0.00273785
0.00271268
0.00268969
0.00266898
0.00265067
0.00263489
0.00262183
0.00261165
0.00260456
0.00260076
0.00260046
0.00260388
0.00261127
0.00262285
0.00263892
0.00265974
0.00268564
0.00271697
0.00275414
0.00279758
0.00284782
0.00290543
0.00297106
0.00304547
0.00312952
0.00322418
0.00333057
0.00344995
0.00358378
0.00373367
0.00390149
0.00408929
0.00429937
0.00453428
0.00479676
0.00508978
0.00541647
0.00578011
0.00618414
0.00663226
0.00712879
0.00767972
0.0082946
0.00898838
0.0097799
0.0106832
0.0116924
0.0127708
0.0138542
0.014871
0.0157645
0.0165046
0.0170871
0.0175246
0.0178385
0.0180525
0.018189
0.0182679
0.0183058
0.0183163
0.0183105
0.018297
0.0182826
0.0182722
0.0182693
0.0182759
0.0182929
0.0183199
0.0183558
0.0183985
0.0184455
0.0184938
0.0185406
0.0185832
0.018619
0.018646
0.0186628
0.0186682
0.0186618
0.0186433
0.0186128
0.0185709
0.018518
0.0184548
0.0183813
0.0182877
0.00413536
0.00406195
0.00399171
0.00392465
0.00386079
0.00380007
0.00374244
0.00368782
0.00363612
0.00358722
0.00354102
0.00349743
0.00345639
0.00341784
0.00338179
0.00334824
0.00331727
0.00328896
0.00326344
0.00324086
0.00322138
0.00320519
0.0031925
0.00318352
0.00317846
0.00317755
0.00318104
0.00318916
0.00320218
0.0032204
0.00324412
0.00327368
0.00330948
0.00335194
0.00340156
0.0034589
0.00352457
0.00359932
0.00368396
0.00377941
0.00388675
0.00400717
0.00414203
0.00429285
0.00446134
0.00464938
0.00485906
0.00509261
0.00535246
0.00564115
0.00596131
0.00631568
0.00670707
0.00713852
0.00761369
0.00813788
0.00871981
0.00937331
0.010116
0.0109618
0.0119079
0.0129241
0.013955
0.0149352
0.0158097
0.0165459
0.0171346
0.0175843
0.0179129
0.0181416
0.0182919
0.0183828
0.0184307
0.0184494
0.01845
0.0184414
0.0184305
0.0184226
0.0184213
0.0184289
0.0184466
0.0184742
0.0185107
0.0185542
0.0186023
0.0186521
0.0187007
0.0187455
0.0187837
0.0188134
0.0188329
0.018841
0.0188372
0.018821
0.0187927
0.0187526
0.0187012
0.0186391
0.0185662
0.018473
0.0049769
0.00489206
0.00481053
0.00473231
0.00465739
0.00458574
0.00451733
0.00445209
0.00438993
0.00433078
0.00427456
0.0042212
0.00417064
0.00412286
0.00407785
0.00403566
0.00399634
0.00396
0.00392675
0.00389676
0.0038702
0.00384725
0.00382813
0.00381304
0.00380222
0.00379589
0.0037943
0.00379771
0.00380637
0.00382058
0.00384064
0.0038669
0.00389974
0.00393956
0.00398685
0.00404214
0.00410603
0.00417921
0.00426246
0.00435667
0.00446281
0.00458202
0.00471555
0.00486481
0.00503133
0.00521682
0.00542312
0.0056522
0.00590613
0.00618705
0.00649717
0.0068387
0.00721392
0.0076253
0.00807592
0.00857047
0.00911685
0.00972776
0.0104197
0.0112064
0.0120876
0.0130397
0.0140153
0.0149559
0.0158086
0.0165389
0.0171334
0.0175958
0.0179405
0.0181861
0.0183523
0.0184575
0.0185177
0.0185465
0.0185552
0.0185528
0.0185465
0.0185418
0.0185427
0.0185517
0.0185702
0.0185983
0.0186353
0.0186793
0.0187282
0.0187792
0.0188295
0.0188762
0.0189168
0.0189492
0.0189715
0.0189826
0.0189816
0.0189683
0.0189425
0.0189047
0.0188553
0.0187948
0.0187232
0.0186308
0.00583218
0.00573868
0.00564836
0.00556124
0.00547735
0.00539666
0.00531917
0.00524482
0.00517358
0.00510539
0.0050402
0.00497796
0.00491867
0.00486229
0.00480886
0.00475843
0.00471106
0.00466686
0.00462597
0.00458855
0.00455477
0.00452483
0.00449893
0.0044773
0.00446016
0.00444777
0.00444035
0.00443818
0.00444152
0.00445066
0.00446592
0.00448762
0.00451614
0.00455189
0.00459532
0.00464696
0.00470737
0.0047772
0.00485719
0.00494816
0.00505104
0.00516685
0.00529675
0.005442
0.00560399
0.00578422
0.00598429
0.0062059
0.00645079
0.00672075
0.00701757
0.00734302
0.00769892
0.00808725
0.00851061
0.00897311
0.00948189
0.0100485
0.0106883
0.0114148
0.0122303
0.0131168
0.0140349
0.0149327
0.0157604
0.0164823
0.0170812
0.0175564
0.0179181
0.0181823
0.0183666
0.0184882
0.0185628
0.0186038
0.0186223
0.0186277
0.0186273
0.0186269
0.0186306
0.0186415
0.0186611
0.0186898
0.0187271
0.0187716
0.018821
0.018873
0.0189246
0.0189732
0.0190161
0.0190511
0.0190763
0.0190905
0.0190927
0.0190825
0.0190597
0.0190246
0.0189777
0.0189194
0.0188495
0.0187586
0.00667143
0.00657278
0.00647697
0.00638406
0.00629406
0.00620702
0.00612293
0.00604179
0.0059636
0.00588833
0.00581597
0.00574651
0.00567995
0.00561633
0.00555566
0.00549804
0.00544353
0.00539227
0.0053444
0.00530008
0.00525949
0.00522283
0.00519033
0.0051622
0.00513869
0.00512003
0.00510647
0.00509829
0.00509576
0.00509917
0.00510883
0.00512508
0.00514828
0.00517883
0.00521717
0.0052638
0.00531926
0.00538418
0.00545922
0.00554517
0.00564285
0.00575323
0.00587732
0.00601627
0.00617129
0.00634369
0.00653485
0.00674619
0.00697917
0.00723524
0.00751583
0.00782232
0.00815615
0.00851889
0.00891272
0.00934125
0.00981087
0.0103321
0.0109189
0.0115849
0.0123342
0.0131541
0.0140126
0.0148645
0.0156638
0.0163742
0.0169757
0.0174629
0.0178421
0.018126
0.0183302
0.0184705
0.0185617
0.0186169
0.0186472
0.0186621
0.0186691
0.0186741
0.0186817
0.0186951
0.0187162
0.0187458
0.0187835
0.0188283
0.0188782
0.0189309
0.0189837
0.0190339
0.0190789
0.0191165
0.0191447
0.0191621
0.0191677
0.0191609
0.0191415
0.0191096
0.0190656
0.01901
0.0189425
0.0188536
0.00746807
0.00736815
0.00727054
0.00717533
0.00708258
0.00699233
0.00690465
0.00681956
0.00673708
0.00665723
0.00658005
0.00650555
0.00643377
0.00636477
0.0062986
0.00623536
0.00617516
0.00611814
0.00606443
0.00601423
0.00596773
0.00592512
0.00588664
0.00585251
0.00582297