/*--------------------------------*- C++ -*----------------------------------*\
| =========                 |                                                 |
| \\      /  F ield         | OpenFOAM: The Open Source CFD Toolbox           |
|  \\    /   O peration     | Version:  4.1                                   |
|   \\  /    A nd           | Web:      www.OpenFOAM.org                      |
|    \\/     M anipulation  |                                                 |
\*---------------------------------------------------------------------------*/
FoamFile
{
    version     2.0;
    format      ascii;
    class       volScalarField;
    location    "400";
    object      omega;
}
// * * * * * * * * * * * * * * * * * * * * * * * * * * * * * * * * * * * * * //

dimensions      [0 0 -1 0 0 0 0];

internalField   nonuniform List<scalar> 
6820
(
7254.63
8569.05
9629.25
10283
10668.4
10885.8
10995.9
11035.1
11027
10987.6
10927.7
10854.9
10774.6
10690.4
10605.1
10520.3
10437.2
10356.8
10279.4
10205.4
10134.9
10067.9
10004.5
9944.55
9887.95
9834.56
9784.25
9736.9
9692.21
9650.76
9608.93
9582.79
9493.05
600.799
1554.22
2092.9
2435.15
2698.26
2895
3033.18
3126.72
3188.64
3228.58
3253.39
3267.95
3275.69
3278.98
3279.43
3278.12
3275.82
3273.01
3270.03
3267.08
3264.27
3261.69
3259.34
3257.23
3255.34
3253.63
3252.09
3250.66
3249.33
3248.06
3246.93
3245.39
3246.32
107.108
368.907
596.39
767.379
894.968
993.31
1070.53
1131.48
1179.61
1217.54
1247.31
1270.62
1288.78
1302.9
1313.84
1322.28
1328.78
1333.77
1337.6
1340.53
1342.78
1344.52
1345.88
1346.97
1347.86
1348.61
1349.26
1349.87
1350.44
1351
1351.58
1352.14
1352.89
37.6577
108.378
189.199
265.508
332.224
389.322
437.962
479.433
514.868
545.189
571.153
593.392
612.446
628.776
642.778
654.791
665.105
673.969
681.595
688.163
693.828
698.721
702.954
706.623
709.808
712.579
714.995
717.104
718.95
720.568
721.993
723.246
724.368
23.8008
47.5368
77.7
109.822
141.233
170.716
197.825
222.5
244.85
265.039
283.245
299.644
314.407
327.691
339.644
350.4
360.081
368.798
376.652
383.732
390.119
395.885
401.095
405.806
410.069
413.929
417.428
420.6
423.477
426.088
428.46
430.611
432.575
19.8177
29.475
42.5074
57.2085
72.4533
87.5684
102.181
116.098
129.235
141.562
153.082
163.817
173.799
183.066
191.661
199.626
207.003
213.833
220.157
226.01
231.429
236.447
241.093
245.398
249.386
253.082
256.508
259.684
262.629
265.36
267.892
270.239
272.418
18.4341
22.8151
29.1681
36.6482
44.6813
52.9042
61.0944
69.1175
76.8931
84.3736
91.5318
98.3548
104.839
110.987
116.805
122.305
127.497
132.395
137.011
141.361
145.458
149.315
152.946
156.363
159.579
162.605
165.452
168.13
170.649
173.018
175.245
177.338
179.305
17.9115
19.9902
23.304
27.4129
31.9734
36.7584
41.6244
46.4809
51.2695
55.9519
60.503
64.9065
69.1524
73.2352
77.1528
80.9052
84.4942
87.9231
91.1957
94.3166
97.291
100.124
102.821
105.388
107.83
110.152
112.36
114.458
116.451
118.344
120.141
121.846
123.463
17.7059
18.7012
20.4732
22.8212
25.5365
28.4645
31.5023
34.5831
37.6625
40.7106
43.7067
46.6366
49.4906
52.262
54.9466
57.542
60.0471
62.4616
64.7862
67.022
69.1707
71.2341
73.2143
75.1137
76.9346
78.6794
80.3506
81.9505
83.4816
84.946
86.3461
87.6836
88.9611
17.6233
18.095
19.04
20.3946
22.0444
23.8863
25.844
27.8652
29.9139
31.9652
34.0017
36.011
37.9843
39.9153
41.7994
43.6337
45.4161
47.1454
48.8208
50.4424
52.0103
53.5249
54.9871
56.3977
57.7576
59.068
60.3301
61.5448
62.7135
63.8373
64.9173
65.9545
66.9501
17.5896
17.8081
18.3024
19.0751
20.0759
21.2424
22.521
23.8707
25.262
26.6736
28.0902
29.5006
30.8968
32.2728
33.6241
34.9476
36.241
37.5025
38.7311
39.9261
41.0871
42.2139
43.3066
44.3655
45.3909
46.3831
47.3427
48.2702
49.1663
50.0314
50.8661
51.671
52.4468
17.5758
17.6732
17.9239
18.3537
18.95
19.6815
20.514
21.4177
22.3691
23.3504
24.348
25.352
26.3547
27.3506
28.3352
29.3054
30.2588
31.1934
32.108
33.0014
33.8732
34.7227
35.5497
36.3541
37.1359
37.8951
38.6319
39.3465
40.0391
40.7101
41.3596
41.988
42.5955
17.5702
17.6104
17.7324
17.9632
18.3082
18.7564
19.2896
19.8883
20.5353
21.2163
21.92
22.6375
23.3621
24.0882
24.8119
25.5298
26.2395
26.9391
27.6271
28.3022
28.9637
29.6109
30.2432
30.8605
31.4624
32.0488
32.6197
33.1751
33.7149
34.2394
34.7486
35.2426
35.7216
17.5678
17.5817
17.6374
17.7558
17.9477
18.2135
18.5457
18.9338
19.3665
19.8334
20.3255
20.8356
21.3576
21.8867
22.419
22.9515
23.4816
24.0075
24.5276
25.0405
25.5455
26.0415
26.5282
27.0049
27.4714
27.9274
28.3727
28.8071
29.2307
29.6433
30.0449
30.4357
30.8155
17.5669
17.5687
17.5913
17.6483
17.7499
17.901
18.1006
18.3444
18.6263
18.9394
19.2776
19.635
20.0068
20.3889
20.7778
21.1708
21.5655
21.96
22.3527
22.7424
23.1281
23.5088
23.884
24.2531
24.6156
24.9712
25.3196
25.6606
25.9941
26.3199
26.6379
26.9481
27.2504
17.5665
17.563
17.5695
17.594
17.6443
17.7257
17.8402
17.9874
18.1647
18.3685
18.5948
18.8396
19.0993
19.3707
19.6509
19.9374
20.2283
20.5216
20.8161
21.1104
21.4036
21.6947
21.9831
22.2681
22.5493
22.8263
23.0987
23.3663
23.6288
23.8861
24.1381
24.3845
24.6254
17.5663
17.5605
17.5594
17.5674
17.5896
17.6302
17.6922
17.7767
17.8834
18.0109
18.1572
18.3198
18.4964
18.6845
18.8821
19.0871
19.2979
19.5128
19.7307
19.9504
20.1709
20.3914
20.6113
20.8298
21.0466
21.2611
21.473
21.6821
21.888
22.0905
22.2896
22.4849
22.6764
17.5662
17.5594
17.5548
17.5547
17.5621
17.5799
17.6106
17.6559
17.7166
17.7926
17.8832
17.9871
18.103
18.2294
18.3648
18.5077
18.6569
18.8111
18.9692
19.1303
19.2936
19.4582
19.6236
19.7891
19.9543
20.1188
20.2822
20.4442
20.6044
20.7628
20.919
21.0729
21.2244
17.5662
17.559
17.5528
17.5489
17.5487
17.5541
17.5671
17.589
17.6209
17.6633
17.7164
17.7796
17.8524
17.934
18.0235
18.1199
18.2224
18.3299
18.4418
18.5572
18.6755
18.796
18.9181
19.0414
19.1655
19.2898
19.4141
19.5381
19.6614
19.7839
19.9054
20.0257
20.1446
17.5662
17.5588
17.552
17.5462
17.5423
17.5414
17.5446
17.5531
17.5678
17.5892
17.618
17.654
17.6972
17.7473
17.8039
17.8663
17.9341
18.0066
18.0834
18.1637
18.2472
18.3332
18.4214
18.5113
18.6026
18.695
18.788
18.8815
18.9751
19.0687
19.1621
19.255
19.3474
17.5662
17.5587
17.5516
17.545
17.5394
17.5353
17.5335
17.5346
17.5393
17.5482
17.5619
17.5805
17.6042
17.633
17.6668
17.7052
17.7481
17.795
17.8457
17.8998
17.9569
18.0167
18.0788
18.1429
18.2087
18.276
18.3444
18.4138
18.4838
18.5544
18.6254
18.6965
18.7676
17.5662
17.5587
17.5515
17.5445
17.5381
17.5325
17.5281
17.5253
17.5246
17.5264
17.5312
17.5391
17.5506
17.5656
17.5842
17.6064
17.6321
17.6611
17.6933
17.7285
17.7664
17.8068
17.8495
17.8943
17.9409
17.9891
18.0388
18.0897
18.1416
18.1944
18.248
18.3021
18.3567
17.5662
17.5587
17.5514
17.5443
17.5375
17.5312
17.5256
17.5208
17.5173
17.5153
17.5151
17.5169
17.5211
17.5277
17.5369
17.5488
17.5633
17.5805
17.6003
17.6226
17.6473
17.6743
17.7034
17.7345
17.7674
17.802
17.8381
17.8757
17.9144
17.9542
17.9951
18.0367
18.0791
17.5662
17.5587
17.5514
17.5442
17.5373
17.5307
17.5245
17.5189
17.514
17.5101
17.5074
17.5061
17.5063
17.5084
17.5123
17.5183
17.5264
17.5366
17.5489
17.5634
17.58
17.5987
17.6193
17.6417
17.6659
17.6918
17.7192
17.748
17.7782
17.8096
17.842
17.8755
17.9098
17.5662
17.5587
17.5513
17.5442
17.5372
17.5305
17.5242
17.5183
17.513
17.5084
17.5048
17.5023
17.5011
17.5013
17.5032
17.5067
17.5121
17.5193
17.5285
17.5395
17.5525
17.5673
17.584
17.6025
17.6226
17.6443
17.6676
17.6923
17.7184
17.7456
17.7741
17.8035
17.8339
17.5662
17.5587
17.5514
17.5442
17.5373
17.5307
17.5244
17.5187
17.5137
17.5095
17.5063
17.5043
17.5036
17.5045
17.507
17.5112
17.5173
17.5252
17.535
17.5467
17.5604
17.5758
17.5931
17.6121
17.6328
17.655
17.6787
17.7039
17.7303
17.7579
17.7867
17.8165
17.8472
17.5662
17.5587
17.5514
17.5443
17.5375
17.5312
17.5255
17.5206
17.5167
17.514
17.5128
17.5133
17.5155
17.5197
17.526
17.5344
17.5449
17.5576
17.5724
17.5892
17.6081
17.629
17.6517
17.6761
17.7022
17.7299
17.759
17.7894
17.8211
17.8539
17.8877
17.9225
17.9581
17.5662
17.5587
17.5515
17.5446
17.5383
17.5328
17.5284
17.5254
17.5243
17.5253
17.5286
17.5346
17.5434
17.5549
17.5693
17.5865
17.6065
17.6292
17.6543
17.6819
17.7118
17.7437
17.7776
17.8133
17.8506
17.8894
17.9295
17.9708
18.0132
18.0566
18.1008
18.1457
18.1912
17.5662
17.5588
17.5518
17.5455
17.5403
17.5368
17.5356
17.5372
17.5422
17.5509
17.5637
17.5807
17.6019
17.6273
17.6568
17.69
17.7268
17.7669
17.81
17.8558
17.9042
17.9547
18.0071
18.0613
18.117
18.1739
18.2319
18.2909
18.3506
18.4109
18.4717
18.5329
18.5943
17.5662
17.5591
17.5527
17.548
17.5459
17.5474
17.5537
17.5655
17.5836
17.6083
17.6396
17.6776
17.7218
17.7719
17.8274
17.8878
17.9525
18.021
18.0929
18.1676
18.2448
18.3239
18.4048
18.487
18.5703
18.6543
18.739
18.824
18.9092
18.9944
19.0796
19.1645
19.2491
17.5663
17.5598
17.5555
17.5553
17.5612
17.5753
17.599
17.6335
17.679
17.7354
17.8021
17.8784
17.9634
18.0559
18.1549
18.2596
18.3689
18.482
18.5982
18.7168
18.8372
18.959
19.0816
19.2047
19.3279
19.451
19.5738
19.6959
19.8173
19.9378
20.0573
20.1756
20.2926
17.5666
17.5622
17.5642
17.5768
17.604
17.6488
17.7126
17.7955
17.8965
18.0139
18.1459
18.2901
18.4447
18.6077
18.7773
18.952
19.1306
19.3118
19.4948
19.6787
19.8629
20.0467
20.2298
20.4117
20.5921
20.7708
20.9475
21.122
21.2943
21.4642
21.6317
21.7966
21.9589
17.5674
17.5706
17.5924
17.6418
17.7247
17.843
17.9954
18.1784
18.3876
18.6182
18.8659
19.1266
19.397
19.6741
19.9556
20.2395
20.5244
20.8088
21.0918
21.3727
21.6507
21.9255
22.1965
22.4636
22.7265
22.985
23.2391
23.4886
23.7335
23.9739
24.2096
24.4408
24.6674
17.5706
17.6016
17.687
17.841
18.0652
18.3532
18.694
19.076
19.4886
19.9227
20.3711
20.8279
21.2886
21.7498
22.2088
22.6638
23.1134
23.5565
23.9923
24.4204
24.8403
25.2519
25.6551
26.0497
26.4358
26.8134
27.1826
27.5435
27.8963
28.2411
28.578
28.9073
29.229
17.5854
17.7219
18.0122
18.456
19.0274
19.6927
20.4215
21.1897
21.9795
22.7782
23.5767
24.3686
25.1492
25.9159
26.6669
27.4011
28.118
28.8174
29.4992
30.1636
30.8108
31.4411
32.0549
32.6526
33.2346
33.8013
34.3532
34.8907
35.4142
35.9241
36.4209
36.9049
37.3766
17.6614
18.2163
19.1618
20.3929
21.799
23.2964
24.8299
26.3652
27.8819
29.3675
30.8145
32.2178
33.5766
34.8915
36.1634
37.3939
38.5845
39.7367
40.852
41.932
42.9781
43.9916
44.9737
45.9259
46.8491
47.7446
48.6133
49.4564
50.2748
51.0693
51.841
52.5906
53.319
18.1027
20.3858
23.4857
26.9268
30.4425
33.9051
37.2607
40.4849
43.5686
46.5097
49.3069
51.9723
54.5174
56.9518
59.2839
61.5209
63.669
65.7335
67.7193
69.6306
71.4714
73.2454
74.9557
76.6054
78.1975
79.7346
81.2193
82.6538
84.0405
85.3815
86.6787
87.9341
89.1497
21.2182
31.4408
42.4862
53.1252
62.9741
72.0376
80.4415
88.1972
95.3436
101.981
108.2
114.056
119.592
124.838
129.818
134.552
139.059
143.355
147.452
151.365
155.104
158.68
162.104
165.384
168.529
171.546
174.444
177.23
179.908
182.487
184.971
187.365
189.676
59.9538
123.962
170.321
207.146
238.344
266.988
293.938
319.135
342.524
364.098
383.93
402.149
418.904
434.35
448.628
461.869
474.188
485.686
496.453
506.565
516.089
525.087
533.607
541.697
549.396
556.739
563.756
570.476
576.922
583.117
589.08
594.828
600.381
1719.4
1778.23
1839.24
1895.41
1945.93
1992.23
2035.27
2075.52
2113.25
2148.69
2182.02
2213.38
2242.9
2270.7
2296.88
2321.54
2344.77
2366.66
2387.27
2406.69
2424.98
2442.21
2458.44
2473.73
2488.14
2501.71
2514.49
2526.53
2537.87
2548.56
2558.62
2568.1
2577.04
9385.77
8902.36
8349.11
7777.46
7232.57
6730.18
6276.63
5870.58
5507.05
5179.86
4883.24
4612.45
4363.79
4134.42
3922.12
3725.06
3541.71
3370.76
3211.06
3061.6
2921.51
2789.96
2666.18
2549.42
2438.91
2333.89
2233.62
2137.36
2044.39
1954.05
1865.69
1778.72
1692.63
1606.92
1521.17
1435.04
1348.27
1260.67
1172.2
1082.91
993.047
903.007
813.395
725.025
638.92
556.286
478.449
406.763
342.458
286.477
239.309
200.882
170.579
147.38
130.084
117.51
108.613
102.55
98.6973
96.6369
96.1097
96.9248
98.8757
101.718
105.199
109.092
113.213
117.414
121.584
125.634
129.496
133.114
136.444
139.453
142.115
144.414
146.343
147.904
149.109
149.978
150.538
150.824
150.876
150.735
150.442
150.038
149.559
149.034
148.491
147.948
147.42
146.919
146.449
146.016
145.619
145.259
144.934
144.643
144.38
144.097
3236.99
3268.44
3309.61
3353.62
3402.19
3451.81
3495.21
3525.19
3536.65
3527.08
3496.42
3446.39
3379.71
3299.46
3208.65
3110.04
3006.04
2898.69
2789.74
2680.55
2572.2
2465.45
2360.77
2258.44
2158.54
2061.05
1965.83
1872.73
1781.52
1691.97
1603.84
1516.87
1430.85
1345.57
1260.87
1176.67
1092.94
1009.73
927.207
845.633
765.401
687.027
611.15
538.518
469.957
406.315
348.395
296.857
252.125
214.308
183.172
158.176
138.573
123.537
112.269
104.058
98.3058
94.5267
92.3551
91.5421
91.935
93.4191
95.8496
99.0323
102.753
106.813
111.047
115.322
119.536
123.609
127.478
131.092
134.411
137.404
140.046
142.325
144.233
145.773
146.959
147.811
148.357
148.635
148.682
148.543
148.259
147.87
147.411
146.914
146.403
145.898
145.413
144.957
144.535
144.151
143.805
143.496
143.223
142.982
142.771
142.546
1353.58
1356.07
1361.02
1367.29
1373.67
1380.87
1389.85
1401.62
1417.12
1436.99
1461.42
1490.02
1521.81
1555.25
1588.33
1618.79
1644.3
1662.78
1672.59
1672.66
1662.63
1642.72
1613.66
1576.54
1532.56
1482.97
1428.91
1371.36
1311.14
1248.9
1185.18
1120.39
1054.89
988.968
922.913
857.002
791.524
726.8
663.188
601.094
540.968
483.301
428.612
377.423
330.224
287.436
249.358
216.132
187.72
163.902
144.314
128.5
115.97
106.256
98.9318
93.6284
90.0266
87.8594
86.9129
87.0319
88.1205
90.1075
92.8912
96.3172
100.204
104.375
108.682
113.003
117.244
121.331
125.206
128.82
132.136
135.125
137.763
140.039
141.945
143.487
144.675
145.531
146.086
146.374
146.436
146.316
146.054
145.692
145.265
144.804
144.332
143.869
143.429
143.02
142.647
142.313
142.017
141.759
141.537
141.347
141.186
141.017
725.503
726.708
727.84
728.738
729.42
729.355
728.615
727.492
726.401
725.82
726.243
728.145
731.941
737.949
746.336
757.076
769.913
784.334
799.578
814.672
828.512
839.962
847.968
851.659
850.42
843.923
832.122
815.208
793.555
767.658
738.077
705.395
670.188
633.011
594.391
554.832
514.812
474.796
435.231
396.553
359.183
323.516
289.918
258.705
230.127
204.359
181.482
161.488
144.282
129.7
117.536
107.559
99.5426
93.2747
88.5642
85.2389
83.1435
82.1389
82.1009
82.9267
84.5476
86.9153
89.9572
93.5516
97.545
101.783
106.128
110.472
114.725
118.817
122.695
126.312
129.632
132.627
135.275
137.564
139.487
141.047
142.258
143.14
143.722
144.041
144.135
144.049
143.824
143.501
143.116
142.697
142.271
141.855
141.463
141.103
140.78
140.496
140.252
140.045
139.873
139.733
139.622
139.508
434.622
436.758
438.685
440.264
441.421
442.021
442.061
441.595
440.72
439.567
438.28
437.011
435.911
435.12
434.764
434.943
435.721
437.119
439.1
441.564
444.339
447.179
449.777
451.775
452.794
452.458
450.429
446.434
440.282
431.881
421.232
408.427
393.635
377.088
359.059
339.856
319.802
299.227
278.457
257.807
237.576
218.034
199.42
181.934
165.733
150.927
137.58
125.714
115.311
106.328
98.7007
92.354
87.2117
83.2002
80.25
78.2947
77.27
77.1121
77.7508
79.1127
81.1402
83.794
87.0203
90.7238
94.7762
99.0419
103.398
107.742
111.992
116.082
119.959
123.58
126.909
129.919
132.588
134.904
136.859
138.457
139.709
140.635
141.264
141.63
141.774
141.737
141.563
141.291
140.956
140.588
140.213
139.849
139.508
139.2
138.929
138.697
138.503
138.347
138.226
138.136
138.074
138.014
274.75
277.229
279.531
281.591
283.349
284.752
285.794
286.487
286.858
286.948
286.805
286.476
286.01
285.448
284.828
284.179
283.523
282.87
282.222
281.567
280.881
280.124
279.241
278.158
276.789
275.035
272.787
269.937
266.386
262.047
256.857
250.781
243.817
235.997
227.384
218.073
208.181
197.847
187.221
176.457
165.714
155.141
144.878
135.051
125.766
117.11
109.151
101.938
95.4991
89.8509
84.9974
80.9349
77.6557
75.1501
73.4072
72.414
72.1563
72.6147
73.7535
75.5169
77.8501
80.7143
84.0661
87.8309
91.9029
96.1646
100.505
104.831
109.065
113.143
117.015
120.639
123.98
127.011
129.711
132.066
134.067
135.718
137.027
138.014
138.707
139.138
139.346
139.374
139.263
139.053
138.778
138.47
138.152
137.844
137.559
137.305
137.087
136.908
136.766
136.661
136.59
136.55
136.538
136.531
181.446
183.756
185.947
187.987
189.841
191.483
192.904
194.104
195.09
195.877
196.482
196.922
197.213
197.368
197.397
197.306
197.096
196.765
196.307
195.712
194.969
194.065
192.982
191.703
190.208
188.473
186.473
184.182
181.574
178.624
175.31
171.617
167.537
163.073
158.24
153.063
147.582
141.845
135.914
129.854
123.74
117.646
111.648
105.819
100.228
94.9368
90.001
85.4685
81.3793
77.7663
74.6565
72.0721
70.0323
68.5541
67.6527
67.3416
67.6338
68.5368
70.0376
72.0932
74.6484
77.66
81.0892
84.8765
88.9356
93.1657
97.4688
101.758
105.961
110.018
113.879
117.505
120.86
123.917
126.654
129.056
131.115
132.831
134.212
135.276
136.048
136.559
136.848
136.954
136.919
136.781
136.576
136.335
136.081
135.834
135.608
135.411
135.249
135.124
135.035
134.982
134.962
134.972
135.009
135.054
125.243
127.188
129.058
130.84
132.511
134.059
135.474
136.754
137.9
138.915
139.805
140.576
141.233
141.781
142.221
142.552
142.771
142.873
142.849
142.691
142.39
141.935
141.317
140.526
139.556
138.397
137.044
135.49
133.732
131.764
129.585
127.193
124.59
121.78
118.772
115.579
112.219
108.713
105.091
101.384
97.6284
93.865
90.1357
86.484
82.9537
79.5877
76.4275
73.5122
70.8783
68.5596
66.5874
64.9908
63.7976
63.0343
62.7269
62.9014
63.5854
64.8026
66.5563
68.8136
71.5197
74.6255
78.0916
81.8693
85.8882
90.0634
94.3085
98.5445
102.704
106.729
110.573
114.196
117.564
120.648
123.427
125.884
128.009
129.801
131.266
132.42
133.284
133.89
134.272
134.469
134.522
134.467
134.342
134.175
133.992
133.812
133.649
133.513
133.409
133.339
133.305
133.305
133.336
133.397
133.483
133.581
90.3784
91.9409
93.4602
94.9277
96.3319
97.664
98.9178
100.09
101.179
102.185
103.109
103.952
104.716
105.401
106.007
106.531
106.969
107.317
107.568
107.714
107.749
107.663
107.45
107.102
106.615
105.983
105.202
104.272
103.191
101.959
100.579
99.0532
97.3859
95.5831
93.6522
91.6029
89.4468
87.198
84.8733
82.492
80.076
77.6497
75.2395
72.8738
70.5823
68.3955
66.3444
64.4599
62.7728
61.3132
60.1106
59.1939
58.5922
58.3343
58.4495
58.9691
59.9279
61.3594
63.2787
65.6629
68.4589
71.6124
75.081
78.8219
82.7779
86.8781
91.0473
95.2144
99.3167
103.3
107.119
110.733
114.11
117.221
120.043
122.558
124.756
126.632
128.191
129.445
130.414
131.126
131.613
131.914
132.065
132.105
132.067
131.983
131.877
131.77
131.675
131.603
131.559
131.548
131.57
131.624
131.708
131.819
131.955
132.106
68.0616
69.2954
70.505
71.6846
72.8279
73.9296
74.9851
75.9915
76.9467
77.8494
78.6992
79.4958
80.2388
80.9274
81.5603
82.1352
82.649
83.0974
83.4758
83.7785
83.9997
84.1334
84.1736
84.115
83.9528
83.6831
83.303
82.8108
82.2058
81.4886
80.6607
79.7249
78.6853
77.5467
76.3155
74.9992
73.6065
72.1478
70.6351
69.0817
67.5031
65.9162
64.3396
62.7938
61.3004
59.8826
58.5642
57.3703
56.3263
55.4582
54.7921
54.3548
54.1736
54.2765
54.6928
55.455
56.601
58.1699
60.1853
62.6341
65.4676
68.6281
72.069
75.7502
79.624
83.6319
87.7093
91.793
95.8253
99.7554
103.539
107.138
110.519
113.654
116.518
119.093
121.366
123.331
124.99
126.353
127.436
128.264
128.868
129.282
129.543
129.686
129.746
129.752
129.731
129.701
129.679
129.675
129.696
129.745
129.825
129.934
130.072
130.235
130.422
130.626
53.3169
54.288
55.2458
56.1868
57.1073
58.0036
58.8729
59.7125
60.5207
61.296
62.0372
62.7437
63.4144
64.0482
64.6437
65.199
65.7116
66.1784
66.5958
66.9599
67.2664
67.5106
67.6883
67.7951
67.8273
67.7816
67.6553
67.4465
67.1544
66.7788
66.3205
65.7815
65.1643
64.4728
63.7116
62.8864
62.004
61.0723
60.1003
59.0982
58.0777
57.0517
56.0345
55.0416
54.0901
53.1983
52.3854
51.6721
51.0796
50.6301
50.3466
50.253
50.3738
50.7349
51.3642
52.2934
53.5606
55.2076
57.2641
59.7264
62.5525
65.6841
69.0708
72.6723
76.4477
80.3486
84.3201
88.3069
92.2566
96.1217
99.8602
103.435
106.813
109.965
112.868
115.501
117.849
119.906
121.669
123.146
124.35
125.303
126.032
126.569
126.948
127.204
127.37
127.475
127.544
127.599
127.654
127.723
127.811
127.924
128.064
128.231
128.424
128.64
128.88
129.137
43.2796
44.0464
44.8063
45.5572
46.2967
47.0225
47.7326
48.4249
49.0979
49.7503
50.3811
50.9891
51.5735
52.1331
52.6666
53.1726
53.649
54.0937
54.5041
54.8773
55.2102
55.4995
55.742
55.9345
56.0739
56.1577
56.1836
56.1499
56.0555
55.8998
55.6832
55.4066
55.0719
54.6814
54.2388
53.7481
53.2145
52.6441
52.044
51.4221
50.7877
50.1509
49.5232
48.9172
48.3467
47.8266
47.373
47.003
46.7347
46.5872
46.5804
46.7353
47.0736
47.6188
48.3962
49.4358
50.7743
52.4538
54.5084
56.9428
59.7237
62.795
66.1037
69.6081
73.2713
77.0525
80.9059
84.7834
88.6382
92.4265
96.1086
99.6487
103.015
106.177
109.112
111.799
114.221
116.368
118.236
119.83
121.159
122.243
123.104
123.771
124.277
124.654
124.933
125.144
125.311
125.456
125.595
125.74
125.9
126.08
126.283
126.51
126.76
127.031
127.324
127.636
36.2627
36.8713
37.477
38.0784
38.6738
39.2618
39.8408
40.4093
40.9663
41.5105
42.0411
42.5569
43.0573
43.5412
44.0075
44.455
44.8824
45.2879
45.6698
46.0259
46.3541
46.6521
46.9174
47.1478
47.3409
47.4948
47.6077
47.6781
47.705
47.6877
47.6264
47.5213
47.3738
47.1855
46.9588
46.6971
46.4041
46.0846
45.7441
45.3892
45.0271
44.6662
44.3159
43.9866
43.6897
43.4376
43.244
43.1233
43.091
43.1635
43.3581
43.6929
44.1872
44.8614
45.7386
46.846
48.2181
49.8956
51.9151
54.289
56.9932
59.9772
63.1869
66.5788
70.1177
73.7687
77.4933
81.2504
84.9988
88.6986
92.3127
95.807
99.1502
102.314
105.273
108.006
110.495
112.729
114.701
116.412
117.868
119.085
120.083
120.887
121.527
122.031
122.431
122.755
123.027
123.268
123.496
123.723
123.958
124.209
124.478
124.767
125.076
125.404
125.752
126.12
31.2459
31.7314
32.2165
32.7001
33.181
33.6584
34.1309
34.5977
35.0577
35.5101
35.9541
36.3888
36.8135
37.2274
37.6297
38.0194
38.3955
38.7568
39.1019
39.4295
39.7379
40.0255
40.2906
40.5317
40.7469
40.9349
41.0942
41.2238
41.3229
41.3908
41.4275
41.4332
41.4087
41.3554
41.275
41.1699
41.0433
40.8989
40.7411
40.5752
40.4072
40.2441
40.0936
39.9645
39.8663
39.8097
39.8061
39.8679
40.0083
40.2416
40.5825
41.0468
41.6511
42.4134
43.3539
44.497
45.8742
47.5241
49.4839
51.7721
54.3746
57.2482
60.3404
63.6062
67.0106
70.5224
74.1092
77.7362
81.3674
84.9672
88.5015
91.9382
95.2471
98.4006
101.374
104.144
106.693
109.007
111.077
112.902
114.485
115.836
116.973
117.918
118.695
119.333
119.86
120.303
120.685
121.029
121.351
121.665
121.981
122.306
122.645
122.999
123.37
123.757
124.161
124.587
27.5939
27.9827
28.3725
28.7626
29.1522
29.5405
29.9267
30.3101
30.69
31.0656
31.4363
31.8014
32.1603
32.5125
32.8571
33.1936
33.521
33.8387
34.1456
34.4407
34.7229
34.9912
35.2443
35.481
35.7003
35.9011
36.0823
36.2432
36.3833
36.502
36.5994
36.6756
36.7313
36.7675
36.7857
36.7877
36.7761
36.754
36.725
36.6935
36.6645
36.6438
36.638
36.6545
36.7014
36.7878
36.9235
37.1191
37.3859
37.7361
38.1825
38.7385
39.4185
40.2378
41.214
42.3688
43.7302
45.3337
47.216
49.4004
51.8818
54.6262
57.5849
60.7127
63.9738
67.339
70.7804
74.2687
77.7731
81.2622
84.7051
88.0719
91.3341
94.4649
97.4396
100.236
102.834
105.22
107.381
109.314
111.019
112.503
113.779
114.865
115.783
116.559
117.218
117.786
118.285
118.736
119.158
119.564
119.965
120.369
120.78
121.203
121.638
122.087
122.55
123.037
24.8999
25.2117
25.5253
25.8404
26.1563
26.4725
26.7884
27.1034
27.417
27.7287
28.0378
28.3439
28.6466
28.9452
29.2393
29.5283
29.8118
30.089
30.3594
30.6221
30.8766
31.1219
31.3574
31.5822
31.7956
31.9969
32.1854
32.3606
32.5221
32.6698
32.8036
32.9239
33.0311
33.1261
33.2103
33.2852
33.353
33.4162
33.478
33.542
33.6126
33.6947
33.7938
33.9163
34.0693
34.2603
34.4979
34.7911
35.1498
35.5842
36.1052
36.7245
37.454
38.307
39.2984
40.447
41.7774
43.3216
45.1145
47.1825
49.529
52.1295
54.9415
57.9208
61.0309
64.2435
67.5335
70.8762
74.2454
77.6139
80.9541
84.2388
87.4414
90.5363
93.4995
96.3087
98.9443
101.39
103.632
105.665
107.485
109.097
110.509
111.736
112.796
113.712
114.507
115.203
115.823
116.388
116.915
117.418
117.908
118.395
118.884
119.378
119.881
120.393
120.918
121.469
22.8954
23.145
23.3971
23.6514
23.9074
24.1647
24.4229
24.6815
24.9402
25.1985
25.4561
25.7124
25.9671
26.2199
26.4703
26.7179
26.9625
27.2034
27.4403
27.6727
27.9001
28.122
28.3379
28.5474
28.7499
28.9449
29.1322
29.3115
29.4825
29.6453
29.8
29.9468
30.0865
30.2198
30.3478
30.472
30.5944
30.717
30.8427
30.9746
31.1165
31.2725
31.4477
31.6472
31.8773
32.1446
32.4563
32.8202
33.2447
33.7386
34.3112
34.9721
35.7316
36.6007
37.5921
38.7216
40.0104
41.4869
43.1834
45.1279
47.3305
49.7766
52.4312
55.2531
58.2059
61.2609
64.3949
67.5864
70.8133
74.0524
77.2795
80.4704
83.6004
86.6458
89.5834
92.3914
95.05
97.542
99.8536
101.975
103.901
105.633
107.176
108.54
109.741
110.797
111.729
112.557
113.303
113.986
114.622
115.227
115.811
116.385
116.955
117.525
118.099
118.678
119.267
119.886
21.3983
21.5973
21.7992
22.0038
22.2106
22.4195
22.6301
22.8421
23.0551
23.2689
23.4831
23.6974
23.9116
24.1253
24.3382
24.5501
24.7607
24.9696
25.1767
25.3816
25.5839
25.7835
25.9799
26.173
26.3625
26.548
26.7296
26.9071
27.0804
27.2498
27.4154
27.5776
27.7372
27.8949
28.0518
28.2092
28.3689
28.5328
28.7034
28.8834
29.0762
29.2855
29.5155
29.7708
30.0569
30.3793
30.7444
31.1589
31.6298
32.1646
32.7712
33.4577
34.2325
35.1048
36.0851
37.1865
38.4271
39.8312
41.4282
43.2462
45.3006
47.5856
50.0752
52.7328
55.5228
58.4163
61.3908
64.427
67.5059
70.6082
73.713
76.7989
79.844
82.826
85.7234
88.5152
91.1817
93.7054
96.0715
98.2685
100.289
102.131
103.796
105.292
106.63
107.825
108.893
109.855
110.729
111.532
112.282
112.993
113.676
114.341
114.996
115.646
116.294
116.943
117.599
118.289
20.2816
20.4393
20.6001
20.7638
20.9302
21.0992
21.2704
21.4436
21.6187
21.7953
21.9732
22.1522
22.3321
22.5127
22.6937
22.875
23.0564
23.2376
23.4186
23.5992
23.7791
23.9582
24.1364
24.3136
24.4897
24.6646
24.8383
25.0109
25.1825
25.3534
25.5239
25.6945
25.8659
26.0389
26.2146
26.3943
26.5795
26.7721
26.9742
27.1884
27.4176
27.6652
27.9347
28.2304
28.5568
28.9188
29.322
29.772
30.2748
30.8368
31.4645
32.1646
32.9441
33.8103
34.7719
35.8395
37.0281
38.3582
39.8559
41.5481
43.4539
45.5752
47.8949
50.3829
53.0059
55.7349
58.5476
61.4255
64.3525
67.3119
70.2864
73.2575
76.2057
79.1112
81.9539
84.7139
87.3724
89.9117
92.3165
94.574
96.6751
98.6147
100.392
102.011
103.479
104.808
106.011
107.106
108.109
109.035
109.902
110.722
111.507
112.268
113.012
113.745
114.471
115.194
115.92
116.685
19.4545
19.5785
19.7056
19.8359
19.9692
20.1053
20.244
20.3853
20.5288
20.6746
20.8223
20.9719
21.1231
21.2759
21.4301
21.5855
21.7421
21.8998
22.0584
22.218
22.3783
22.5395
22.7014
22.8641
23.0276
23.192
23.3573
23.5239
23.6918
23.8616
24.0336
24.2084
24.3866
24.5692
24.7573
24.9519
25.1547
25.3673
25.5918
25.8305
26.0859
26.361
26.6592
26.984
27.3395
27.73
28.16
28.6346
29.1588
29.7379
30.3773
31.0826
31.8592
32.7131
33.6511
34.6818
35.8171
37.0741
38.4752
40.0455
41.8057
43.7642
45.9125
48.2277
50.6805
53.2429
55.8921
58.6103
61.3825
64.1947
67.0325
69.8801
72.7209
75.5373
78.3111
81.0241
83.6582
86.1964
88.6229
90.9243
93.0901
95.1129
96.9894
98.7201
100.31
101.766
103.1
104.325
105.456
106.507
107.491
108.423
109.315
110.174
111.011
111.831
112.639
113.439
114.238
115.083
18.8507
18.9474
19.0475
19.1507
19.2571
19.3665
19.4788
19.594
19.7119
19.8323
19.9553
20.0807
20.2084
20.3383
20.4703
20.6043
20.7404
20.8785
21.0185
21.1605
21.3045
21.4504
21.5984
21.7486
21.9011
22.056
22.2137
22.3743
22.5382
22.7058
22.8777
23.0545
23.2368
23.4257
23.6221
23.8272
24.0425
24.2696
24.5104
24.7669
25.0416
25.337
25.6563
26.0024
26.3791
26.7899
27.239
27.7305
28.2686
28.8578
29.5026
30.2072
30.9762
31.814
32.726
33.7187
34.8015
35.9883
37.2978
38.7523
40.3731
42.173
44.1513
46.2929
48.5738
50.968
53.453
56.0106
58.6267
61.2889
63.985
66.7022
69.4263
72.1423
74.834
77.4851
80.0787
82.5985
85.0292
87.357
89.5702
91.66
93.6207
95.4501
97.1498
98.7247
100.182
101.533
102.789
103.963
105.066
106.112
107.111
108.073
109.005
109.916
110.809
111.688
112.564
113.496
18.4209
18.4964
18.5752
18.6572
18.7423
18.8307
18.9221
19.0166
19.1141
19.2145
19.3178
19.424
19.5329
19.6445
19.7589
19.8759
19.9957
20.1181
20.2433
20.3712
20.5021
20.6359
20.7728
20.913
21.0566
21.204
21.3553
21.5111
21.6716
21.8373
22.0089
22.187
22.3723
22.5659
22.7686
22.9818
23.2067
23.4449
23.6982
23.9685
24.258
24.5692
24.9045
25.2669
25.6595
26.0855
26.5483
27.0516
27.5988
28.1937
28.8397
29.5404
30.299
31.1192
32.0046
32.9601
33.9931
35.1141
36.3384
37.6855
39.1756
40.8242
42.637
44.6065
46.7153
48.9408
51.2612
53.6583
56.118
58.6287
61.1801
63.7614
66.3612
68.9668
71.5645
74.1396
76.6771
79.1617
81.5789
83.9148
86.1572
88.2963
90.3245
92.2374
94.0339
95.7159
97.288
98.7578
100.134
101.427
102.649
103.808
104.916
105.982
107.013
108.016
108.997
109.961
110.916
111.939
18.1294
18.1891
18.252
18.3182
18.3875
18.4601
18.5359
18.615
18.6972
18.7826
18.8711
18.9629
19.0577
19.1557
19.2569
19.3613
19.4689
19.5798
19.694
19.8117
19.933
20.058
20.1869
20.32
20.4575
20.5997
20.7469
20.8996
21.0583
21.2234
21.3955
21.5755
21.7641
21.9621
22.1707
22.391
22.6244
22.8723
23.1363
23.4183
23.7202
24.0443
24.393
24.7687
25.1742
25.6123
26.086
26.5982
27.1519
27.75
28.3954
29.0907
29.8385
30.641
31.5011
32.422
33.409
34.4701
35.6173
36.8668
38.2369
39.7443
41.3991
43.201
45.1394
47.1965
49.3525
51.5896
53.8932
56.2522
58.657
61.099
63.5686
66.0556
68.5486
71.035
73.5017
75.935
78.321
80.6466
82.8996
85.0693
87.147
89.1265
91.0044
92.7798
94.4549
96.0341
97.5239
98.932
100.267
101.539
102.756
103.926
105.058
106.157
107.228
108.278
109.316
110.437
17.9509
18.0002
18.0526
18.1082
18.167
18.2291
18.2945
18.3632
18.4353
18.5107
18.5895
18.6717
18.7573
18.8464
18.939
19.0352
19.1351
19.2387
19.3461
19.4576
19.5732
19.6931
19.8177
19.947
20.0815
20.2215
20.3674
20.5197
20.6788
20.8453
21.0199
21.2033
21.3964
21.6
21.8152
22.0432
22.2853
22.5427
22.8172
23.1104
23.4242
23.7605
24.1215
24.5095
24.9268
25.376
25.8594
26.3796
26.939
27.54
28.1848
28.8752
29.6131
30.3999
31.2374
32.1276
33.074
34.0823
35.1615
36.3244
37.587
38.9656
40.473
42.1146
43.8866
45.7769
47.7694
49.8471
51.9956
54.2034
56.4614
58.7618