/*--------------------------------*- C++ -*----------------------------------*\
| =========                 |                                                 |
| \\      /  F ield         | OpenFOAM: The Open Source CFD Toolbox           |
|  \\    /   O peration     | Version:  4.1                                   |
|   \\  /    A nd           | Web:      www.OpenFOAM.org                      |
|    \\/     M anipulation  |                                                 |
\*---------------------------------------------------------------------------*/
FoamFile
{
    version     2.0;
    format      ascii;
    class       volScalarField;
    location    "400";
    object      p;
}
// * * * * * * * * * * * * * * * * * * * * * * * * * * * * * * * * * * * * * //

dimensions      [0 2 -2 0 0 0 0];

internalField   nonuniform List<scalar> 
6820
(
8.4963
-2.20266
-5.7294
-6.47482
-6.86767
-7.19924
-7.38802
-7.48185
-7.54535
-7.59874
-7.64263
-7.67863
-7.7099
-7.73835
-7.76465
-7.78922
-7.81248
-7.83477
-7.85634
-7.87739
-7.89808
-7.91856
-7.93896
-7.95941
-7.98
-8.00085
-8.02201
-8.0436
-8.06559
-8.08819
-8.11067
-8.13543
-8.14922
-13.2229
-9.67575
-8.87402
-8.06983
-7.68695
-7.60508
-7.59156
-7.58719
-7.5998
-7.62558
-7.6545
-7.68247
-7.70945
-7.7356
-7.76074
-7.78479
-7.80787
-7.83019
-7.85188
-7.87308
-7.89394
-7.91458
-7.93513
-7.9557
-7.9764
-7.99733
-8.01858
-8.04027
-8.06241
-8.08536
-8.10851
-8.13432
-8.156
-11.0325
-7.52457
-7.26259
-7.2525
-7.24007
-7.33093
-7.42452
-7.48725
-7.53847
-7.58633
-7.62862
-7.665
-7.69726
-7.72672
-7.75392
-7.77929
-7.80322
-7.82607
-7.84809
-7.8695
-7.89048
-7.91118
-7.93176
-7.95233
-7.97302
-7.99392
-8.01516
-8.03683
-8.05902
-8.08201
-8.10554
-8.13118
-8.15505
-8.60559
-7.13471
-7.28528
-7.39578
-7.37613
-7.42557
-7.49009
-7.53417
-7.57097
-7.6077
-7.64217
-7.6733
-7.70195
-7.72885
-7.75428
-7.77841
-7.80148
-7.82373
-7.84534
-7.86645
-7.88723
-7.90779
-7.92825
-7.94874
-7.96935
-7.99019
-8.01136
-8.03299
-8.05516
-8.07811
-8.10177
-8.12697
-8.15201
-8.15326
-7.43875
-7.47751
-7.48858
-7.43932
-7.46154
-7.50842
-7.54513
-7.57808
-7.61193
-7.64451
-7.67453
-7.70248
-7.72886
-7.75387
-7.77768
-7.80049
-7.82251
-7.84391
-7.86483
-7.88542
-7.9058
-7.92609
-7.94639
-7.96682
-7.98748
-8.00846
-8.02989
-8.05188
-8.0746
-8.0981
-8.12286
-8.1483
-8.07257
-7.59289
-7.54496
-7.51914
-7.47552
-7.48912
-7.52601
-7.55852
-7.58902
-7.62034
-7.65076
-7.67922
-7.70596
-7.73134
-7.75553
-7.77866
-7.80091
-7.82246
-7.84345
-7.86402
-7.88429
-7.90438
-7.92439
-7.94443
-7.9646
-7.98499
-8.00571
-8.02686
-8.04855
-8.07093
-8.09409
-8.11835
-8.14366
-7.94956
-7.62323
-7.56905
-7.54377
-7.51079
-7.51911
-7.54734
-7.57508
-7.60239
-7.6307
-7.65862
-7.68522
-7.71054
-7.73478
-7.75803
-7.78041
-7.80204
-7.82306
-7.84359
-7.86376
-7.88367
-7.90342
-7.92312
-7.94285
-7.9627
-7.98277
-8.00314
-8.02392
-8.04521
-8.06713
-8.08979
-8.11342
-8.13813
-7.84059
-7.63515
-7.59057
-7.56851
-7.54287
-7.54743
-7.56875
-7.59203
-7.6162
-7.64166
-7.66721
-7.69198
-7.71587
-7.73894
-7.76124
-7.78282
-7.80378
-7.82423
-7.84426
-7.86398
-7.88348
-7.90285
-7.92217
-7.94153
-7.96101
-7.98069
-8.00065
-8.02098
-8.04178
-8.06313
-8.08514
-8.10799
-8.13178
-7.76955
-7.64589
-7.60847
-7.58875
-7.56914
-7.57191
-7.58843
-7.60819
-7.62967
-7.65265
-7.67606
-7.69912
-7.72162
-7.74354
-7.76488
-7.78565
-7.80592
-7.82576
-7.84526
-7.8645
-7.88355
-7.9025
-7.9214
-7.94035
-7.95941
-7.97865
-7.99814
-8.01795
-8.03817
-8.05886
-8.08012
-8.10205
-8.12474
-7.72515
-7.65245
-7.62141
-7.60457
-7.59029
-7.59257
-7.60595
-7.62306
-7.64232
-7.6632
-7.68472
-7.70622
-7.72743
-7.74826
-7.76866
-7.78863
-7.80821
-7.82745
-7.8464
-7.86514
-7.88372
-7.90221
-7.92067
-7.93917
-7.95776
-7.97651
-7.99548
-8.01471
-8.03428
-8.05424
-8.07465
-8.09557
-8.11706
-7.69737
-7.65573
-7.63114
-7.61746
-7.60754
-7.60993
-7.62125
-7.63639
-7.65385
-7.67295
-7.69286
-7.71296
-7.73299
-7.7528
-7.77232
-7.79152
-7.81043
-7.82906
-7.84747
-7.8657
-7.8838
-7.90182
-7.91981
-7.93783
-7.95593
-7.97415
-7.99254
-8.01115
-8.03001
-8.04918
-8.06867
-8.08853
-8.10876
-7.68076
-7.65772
-7.63911
-7.62842
-7.62185
-7.62456
-7.63452
-7.64815
-7.66413
-7.68175
-7.70026
-7.71914
-7.73809
-7.75696
-7.77565
-7.79413
-7.81239
-7.83044
-7.8483
-7.86602
-7.88362
-7.90116
-7.91867
-7.93619
-7.95376
-7.97142
-7.9892
-8.00714
-8.02526
-8.04359
-8.06213
-8.0809
-8.09986
-7.67179
-7.65958
-7.64605
-7.638
-7.63396
-7.63704
-7.64604
-7.65848
-7.67322
-7.68957
-7.70686
-7.72464
-7.74262
-7.76062
-7.77854
-7.79632
-7.81395
-7.83143
-7.84875
-7.86596
-7.88307
-7.90011
-7.91712
-7.93412
-7.95114
-7.96821
-7.98536
-8.0026
-8.01995
-8.03741
-8.05498
-8.07265
-8.09037
-7.66792
-7.66179
-7.65233
-7.64657
-7.64444
-7.64785
-7.65614
-7.66759
-7.68125
-7.69647
-7.71268
-7.72946
-7.74653
-7.76371
-7.7809
-7.79802
-7.81504
-7.83195
-7.84874
-7.86544
-7.88204
-7.89858
-7.91507
-7.93153
-7.94799
-7.96446
-7.98094
-7.99746
-8.01402
-8.03061
-8.04721
-8.06379
-8.0803
-7.66738
-7.66455
-7.65821
-7.65436
-7.65367
-7.65736
-7.66508
-7.67568
-7.68836
-7.70256
-7.71777
-7.73362
-7.74983
-7.76624
-7.78272
-7.79919
-7.81562
-7.83196
-7.84822
-7.8644
-7.88049
-7.89651
-7.91247
-7.92838
-7.94425
-7.96009
-7.97591
-7.9917
-8.00746
-8.02317
-8.03881
-8.05434
-8.0697
-7.66899
-7.66785
-7.66384
-7.66154
-7.66193
-7.66582
-7.67307
-7.68291
-7.6947
-7.70795
-7.72223
-7.73719
-7.75258
-7.76823
-7.78402
-7.79985
-7.81567
-7.83146
-7.84718
-7.86282
-7.87839
-7.89388
-7.9093
-7.92464
-7.93992
-7.95512
-7.97025
-7.9853
-8.00026
-8.0151
-8.0298
-8.04432
-8.05859
-7.67195
-7.67164
-7.6693
-7.66821
-7.66939
-7.67341
-7.68025
-7.6894
-7.70037
-7.71273
-7.72612
-7.74023
-7.75482
-7.76973
-7.78483
-7.80002
-7.81524
-7.83045
-7.84562
-7.86072
-7.87575
-7.8907
-7.90556
-7.92032
-7.93499
-7.94955
-7.96399
-7.9783
-7.99246
-8.00645
-8.02024
-8.03378
-8.04702
-7.67574
-7.6758
-7.67462
-7.67445
-7.67618
-7.68026
-7.68673
-7.69524
-7.70544
-7.71697
-7.72951
-7.74279
-7.75661
-7.77078
-7.78519
-7.79974
-7.81435
-7.82898
-7.84358
-7.85814
-7.87261
-7.887
-7.90129
-7.91546
-7.9295
-7.94341
-7.95716
-7.97073
-7.98412
-7.99728
-8.01018
-8.0228
-8.03507
-7.68002
-7.68022
-7.67983
-7.6803
-7.68239
-7.68645
-7.69255
-7.70048
-7.70995
-7.72069
-7.73242
-7.74491
-7.75796
-7.77142
-7.78514
-7.79904
-7.81304
-7.82708
-7.84111
-7.85509
-7.869
-7.88282
-7.89652
-7.91009
-7.92351
-7.93676
-7.94981
-7.96266
-7.97528
-7.98763
-7.99969
-8.01142
-8.02278
-7.68456
-7.6848
-7.68491
-7.6858
-7.68809
-7.69205
-7.69778
-7.70514
-7.71393
-7.72392
-7.73488
-7.7466
-7.75891
-7.77165
-7.7847
-7.79796
-7.81134
-7.82477
-7.83822
-7.85163
-7.86497
-7.87821
-7.89131
-7.90427
-7.91706
-7.92965
-7.94202
-7.95415
-7.96602
-7.97759
-7.98883
-7.99972
-8.01022
-7.68923
-7.68946
-7.68985
-7.69098
-7.69332
-7.69711
-7.70244
-7.70924
-7.71737
-7.72665
-7.73687
-7.74786
-7.75945
-7.77149
-7.78388
-7.79649
-7.80926
-7.8221
-7.83496
-7.84779
-7.86054
-7.8732
-7.88571
-7.89806
-7.91021
-7.92215
-7.93384
-7.94527
-7.9564
-7.96722
-7.97769
-7.98778
-7.99747
-7.69393
-7.69414
-7.69466
-7.69586
-7.69811
-7.70164
-7.70654
-7.71279
-7.72028
-7.72887
-7.73838
-7.74866
-7.75956
-7.77093
-7.78267
-7.79466
-7.80681
-7.81906
-7.83134
-7.84359
-7.85576
-7.86783
-7.87975
-7.89149
-7.90302
-7.91431
-7.92534
-7.93608
-7.94651
-7.95659
-7.96631
-7.97564
-7.98457
-7.69863
-7.69881
-7.69933
-7.70045
-7.70249
-7.70568
-7.71011
-7.71579
-7.72264
-7.73056
-7.73939
-7.74899
-7.75922
-7.76995
-7.78106
-7.79244
-7.804
-7.81567
-7.82737
-7.83905
-7.85065
-7.86214
-7.87347
-7.88461
-7.89552
-7.90619
-7.91657
-7.92664
-7.93638
-7.94577
-7.95477
-7.96338
-7.97158
-7.70329
-7.70345
-7.70386
-7.70477
-7.70648
-7.70923
-7.71313
-7.71821
-7.72443
-7.73169
-7.73986
-7.74881
-7.75841
-7.76852
-7.77902
-7.78982
-7.80081
-7.81192
-7.82306
-7.83418
-7.84523
-7.85615
-7.86691
-7.87746
-7.88778
-7.89782
-7.90757
-7.917
-7.92608
-7.9348
-7.94313
-7.95105
-7.95856
-7.70796
-7.70809
-7.7083
-7.70884
-7.71009
-7.71229
-7.71559
-7.72004
-7.72561
-7.73222
-7.73975
-7.74808
-7.75708
-7.7666
-7.77654
-7.78678
-7.79723
-7.8078
-7.81841
-7.829
-7.83951
-7.84988
-7.86008
-7.87007
-7.8798
-7.88926
-7.8984
-7.90721
-7.91566
-7.92374
-7.93141
-7.93869
-7.94554
-7.71269
-7.71279
-7.71267
-7.71269
-7.71332
-7.71486
-7.71747
-7.72124
-7.72614
-7.7321
-7.73902
-7.74676
-7.75518
-7.76416
-7.77357
-7.7833
-7.79324
-7.8033
-7.81341
-7.82349
-7.83349
-7.84334
-7.85301
-7.86246
-7.87164
-7.88052
-7.88909
-7.8973
-7.90515
-7.91262
-7.91968
-7.92633
-7.93257
-7.71759
-7.71766
-7.71707
-7.71635
-7.71618
-7.7169
-7.71872
-7.72174
-7.72595
-7.73128
-7.7376
-7.74478
-7.75268
-7.76115
-7.77008
-7.77933
-7.78881
-7.7984
-7.80804
-7.81765
-7.82717
-7.83654
-7.84571
-7.85464
-7.86329
-7.87164
-7.87965
-7.88731
-7.89459
-7.90148
-7.90795
-7.91402
-7.91967
-7.72283
-7.72287
-7.7216
-7.71987
-7.71864
-7.71837
-7.71927
-7.72148
-7.72497
-7.72965
-7.7354
-7.74207
-7.74949
-7.75752
-7.76601
-7.77484
-7.78389
-7.79307
-7.80229
-7.81147
-7.82054
-7.82946
-7.83816
-7.84661
-7.85477
-7.86262
-7.87012
-7.87725
-7.88399
-7.89033
-7.89626
-7.90177
-7.90687
-7.7287
-7.72868
-7.72642
-7.72327
-7.72068
-7.71918
-7.71901
-7.72032
-7.72306
-7.72713
-7.73234
-7.73854
-7.74554
-7.75318
-7.7613
-7.76977
-7.77846
-7.78727
-7.79611
-7.80491
-7.81358
-7.82208
-7.83036
-7.83837
-7.84608
-7.85345
-7.86047
-7.86711
-7.87335
-7.87919
-7.8846
-7.8896
-7.89418
-7.73567
-7.73552
-7.73174
-7.7266
-7.72222
-7.71919
-7.71778
-7.7181
-7.72009
-7.72355
-7.72828
-7.73407
-7.74073
-7.74805
-7.75586
-7.76403
-7.77243
-7.78093
-7.78945
-7.79791
-7.80623
-7.81436
-7.82226
-7.82987
-7.83717
-7.84412
-7.8507
-7.85689
-7.86267
-7.86804
-7.87298
-7.8775
-7.88159
-7.74451
-7.74407
-7.73786
-7.72985
-7.72309
-7.71818
-7.71532
-7.71459
-7.71581
-7.71871
-7.72303
-7.72851
-7.73489
-7.74198
-7.74957
-7.75752
-7.76568
-7.77394
-7.7822
-7.79038
-7.7984
-7.80622
-7.81378
-7.82105
-7.82798
-7.83455
-7.84074
-7.84653
-7.85191
-7.85685
-7.86137
-7.86545
-7.86911
-7.7566
-7.75532
-7.7451
-7.73293
-7.72305
-7.71579
-7.71126
-7.70942
-7.70992
-7.71234
-7.71634
-7.72159
-7.72781
-7.73476
-7.74222
-7.75003
-7.75803
-7.76612
-7.77419
-7.78216
-7.78995
-7.79752
-7.80481
-7.81178
-7.81841
-7.82467
-7.83053
-7.83597
-7.84099
-7.84558
-7.84972
-7.85343
-7.8567
-7.77456
-7.77077
-7.75352
-7.73541
-7.72157
-7.71149
-7.70509
-7.70215
-7.70198
-7.70401
-7.7078
-7.71295
-7.71912
-7.72604
-7.73347
-7.74124
-7.74919
-7.75721
-7.76518
-7.77302
-7.78068
-7.78808
-7.79518
-7.80195
-7.80835
-7.81437
-7.81997
-7.82515
-7.82989
-7.83418
-7.83802
-7.84141
-7.84436
-7.80465
-7.79337
-7.76271
-7.73582
-7.71712
-7.70384
-7.6956
-7.69175
-7.69115
-7.69299
-7.69675
-7.70197
-7.70824
-7.71526
-7.72279
-7.73064
-7.73865
-7.74669
-7.75467
-7.76249
-7.7701
-7.77744
-7.78446
-7.79113
-7.79741
-7.80329
-7.80874
-7.81376
-7.81832
-7.82243
-7.82607
-7.82926
-7.83199
-7.85935
-7.83097
-7.77579
-7.73479
-7.70838
-7.69042
-7.68017
-7.67583
-7.67529
-7.67751
-7.68188
-7.68778
-7.69471
-7.70233
-7.71039
-7.71869
-7.72708
-7.73542
-7.74362
-7.75161
-7.75933
-7.76672
-7.77375
-7.78039
-7.78661
-7.7924
-7.79773
-7.80261
-7.80701
-7.81095
-7.8144
-7.81739
-7.81991
-7.94217
-7.87905
-7.79439
-7.74073
-7.70179
-7.67342
-7.65791
-7.65096
-7.64872
-7.65008
-7.65439
-7.66076
-7.66847
-7.67706
-7.6862
-7.69562
-7.70512
-7.71455
-7.72379
-7.73275
-7.74137
-7.74959
-7.75738
-7.76471
-7.77156
-7.7779
-7.78374
-7.78906
-7.79385
-7.79812
-7.80186
-7.80506
-7.80774
-8.09222
-7.85869
-7.72918
-7.71571
-7.70071
-7.68294
-7.67668
-7.67578
-7.67553
-7.67646
-7.67908
-7.683
-7.68783
-7.69339
-7.69955
-7.70615
-7.71301
-7.72002
-7.72705
-7.73403
-7.74086
-7.74749
-7.75385
-7.7599
-7.76561
-7.77094
-7.77587
-7.78038
-7.78445
-7.78808
-7.79126
-7.794
-7.79633
-9.04846
-7.82516
-7.23475
-7.15531
-7.16822
-7.20554
-7.26065
-7.31614
-7.36631
-7.41241
-7.45475
-7.49283
-7.52675
-7.557
-7.58406
-7.60831
-7.63007
-7.64965
-7.6673
-7.68324
-7.69765
-7.7107
-7.7225
-7.73317
-7.74279
-7.75145
-7.7592
-7.76609
-7.77218
-7.7775
-7.78207
-7.78589
-7.78894
-12.8175
-10.6146
-9.58327
-8.94679
-8.51945
-8.26847
-8.10614
-7.98258
-7.88981
-7.8249
-7.78064
-7.7504
-7.73019
-7.71755
-7.71055
-7.7076
-7.70755
-7.70959
-7.71309
-7.71759
-7.72273
-7.72823
-7.73389
-7.73955
-7.74508
-7.75039
-7.75542
-7.7601
-7.7644
-7.7683
-7.77179
-7.77487
-7.77754
1.09626
-2.99635
-5.12004
-5.89237
-6.33089
-6.69422
-6.96001
-7.13582
-7.25936
-7.35463
-7.42944
-7.48763
-7.5335
-7.57071
-7.60159
-7.62758
-7.64972
-7.66883
-7.68551
-7.7002
-7.71322
-7.72481
-7.73516
-7.74441
-7.75267
-7.76002
-7.76655
-7.77229
-7.7773
-7.78162
-7.78528
-7.78828
-7.79069
-8.15881
-7.94698
-8.24171
-8.52537
-8.64549
-8.68899
-8.704
-8.69607
-8.67115
-8.63982
-8.61101
-8.59102
-8.58433
-8.59375
-8.62025
-8.66317
-8.72052
-8.78933
-8.86605
-8.94689
-9.02814
-9.10637
-9.17862
-9.24249
-9.29612
-9.33817
-9.36776
-9.38433
-9.3876
-9.37742
-9.35372
-9.31642
-9.26539
-9.20038
-9.12105
-9.02689
-8.91727
-8.79139
-8.64827
-8.48679
-8.30568
-8.10347
-7.87862
-7.62946
-7.35433
-7.0517
-6.72024
-6.35907
-5.96794
-5.54754
-5.09974
-4.62794
-4.1375
-3.63603
-3.13385
-2.64426
-2.1837
-1.77076
-1.42235
-1.14639
-0.935835
-0.771337
-0.631472
-0.501543
-0.375571
-0.25358
-0.138177
-0.0322845
0.0619028
0.143209
0.211393
0.266924
0.310747
0.344059
0.368166
0.384351
0.393823
0.397664
0.396828
0.392119
0.384226
0.373705
0.361027
0.346559
0.33061
0.313416
0.295173
0.276031
0.256112
0.235515
0.214302
0.192577
0.170298
0.147771
0.124506
0.101939
0.0771979
0.0575079
0.0276714
0.0224773
-8.19418
-8.20239
-8.40305
-8.56033
-8.60602
-8.61036
-8.60666
-8.59317
-8.57121
-8.54804
-8.52982
-8.5205
-8.523
-8.53936
-8.57041
-8.61571
-8.67369
-8.74183
-8.817
-8.89577
-8.97469
-9.05053
-9.12048
-9.1822
-9.23387
-9.27416
-9.30215
-9.31727
-9.31917
-9.30766
-9.28261
-9.24391
-9.19139
-9.12478
-9.04372
-8.9477
-8.83607
-8.70805
-8.56268
-8.39887
-8.21536
-8.01076
-7.78358
-7.53225
-7.25521
-6.95102
-6.61848
-6.25682
-5.86591
-5.44653
-5.00062
-4.53168
-4.04507
-3.54842
-3.05194
-2.56867
-2.11456
-1.70725
-1.36224
-1.08629
-0.872729
-0.704331
-0.562047
-0.432412
-0.309394
-0.192267
-0.0827521
0.0169609
0.105178
0.181011
0.244347
0.295679
0.335911
0.366169
0.387675
0.401633
0.409181
0.411339
0.409012
0.40297
0.393872
0.382258
0.368584
0.35321
0.336439
0.318504
0.299599
0.279869
0.259434
0.238387
0.216786
0.194731
0.172171
0.149407
0.125942
0.103186
0.0783178
0.0583175
0.0285935
0.0220816
-8.19363
-8.21816
-8.31219
-8.4243
-8.49346
-8.53093
-8.55246
-8.55825
-8.55008
-8.53492
-8.51971
-8.5096
-8.50861
-8.51972
-8.54457
-8.58332
-8.6348
-8.69681
-8.7664
-8.8402
-8.91479
-8.9869
-9.05366
-9.11267
-9.16205
-9.20039
-9.2267
-9.24034
-9.24088
-9.22808
-9.20174
-9.1617
-9.10776
-9.03962
-8.95691
-8.8591
-8.74556
-8.6155
-8.46799
-8.30197
-8.11621
-7.90939
-7.68008
-7.4268
-7.1481
-6.84265
-6.50938
-6.14767
-5.75753
-5.33985
-4.89671
-4.43168
-3.95015
-3.45964
-2.97008
-2.49411
-2.04703
-1.64553
-1.30384
-1.02775
-0.811075
-0.638627
-0.493683
-0.364023
-0.243617
-0.131044
-0.0271744
0.0665264
0.148873
0.219282
0.277782
0.324905
0.361522
0.388697
0.407573
0.419278
0.424878
0.425332
0.421497
0.414105
0.403787
0.391064
0.376377
0.360081
0.342472
0.32378
0.304196
0.283863
0.262895
0.241386
0.219383
0.196986
0.174134
0.151119
0.127449
0.104475
0.0794996
0.059096
0.0295978
0.0214993
-8.18722
-8.22252
-8.29858
-8.40159
-8.47471
-8.51092
-8.5266
-8.52885
-8.52075
-8.50789
-8.49614
-8.48976
-8.49181
-8.50447
-8.52888
-8.56506
-8.612
-8.6679
-8.73035
-8.79657
-8.86364
-8.92873
-8.98924
-9.0429
-9.08782
-9.12253
-9.14591
-9.15714
-9.15567
-9.14111
-9.11316
-9.07158
-9.01608
-8.94634
-8.86194
-8.76235
-8.64692
-8.51488
-8.36531
-8.19718
-8.00932
-7.80046
-7.56924
-7.31428
-7.03425
-6.72795
-6.39445
-6.03329
-5.64462
-5.2295
-4.79013
-4.33012
-3.85481
-3.37148
-2.88972
-2.42165
-1.98191
-1.5863
-1.24802
-0.972282
-0.753466
-0.578162
-0.431536
-0.30236
-0.184591
-0.0762382
0.0225327
0.110859
0.187983
0.253577
0.307795
0.351195
0.384623
0.409083
0.425648
0.435374
0.439262
0.438219
0.433055
0.424468
0.413063
0.399346
0.383745
0.366609
0.34823
0.328837
0.308619
0.287719
0.266248
0.244297
0.221911
0.199181
0.176048
0.152784
0.128917
0.105712
0.0806444
0.0597812
0.0305711
0.0207223
-8.18216
-8.22317
-8.28703
-8.3669
-8.42715
-8.46033
-8.47808
-8.48609
-8.4857
-8.48041
-8.47487
-8.47284
-8.47718
-8.49004
-8.51272
-8.5455
-8.58774
-8.63798
-8.69415
-8.75378
-8.81425
-8.87291
-8.92735
-8.9754
-9.01526
-9.04547
-9.0649
-9.07271
-9.06825
-9.05106
-9.02076
-8.97701
-8.91947
-8.84774
-8.76136
-8.65977
-8.54232
-8.40823
-8.2566
-8.08642
-7.89657
-7.68583
-7.45295
-7.19664
-6.91567
-6.609
-6.27586
-5.91594
-5.52956
-5.11791
-4.68326
-4.22922
-3.761
-3.28562
-2.81225
-2.35248
-1.92022
-1.53041
-1.19538
-0.920061
-0.699553
-0.522066
-0.374355
-0.245982
-0.130845
-0.0264475
0.0676478
0.151093
0.223496
0.28475
0.335114
0.375172
0.405741
0.427773
0.442275
0.450239
0.452604
0.450228
0.443877
0.43422
0.421838
0.40722
0.390785
0.372877
0.353784
0.333736
0.312921
0.291482
0.269531
0.247155
0.224398
0.201346
0.177937
0.154425
0.130364
0.106915
0.0817669
0.0603904
0.0315276
0.0197709
-8.17634
-8.21756
-8.27169
-8.33559
-8.38873
-8.42296
-8.44368
-8.45496
-8.45838
-8.45693
-8.45468
-8.45507
-8.46072
-8.47356
-8.49478
-8.52469
-8.56278
-8.6078
-8.65799
-8.71118
-8.76503
-8.8172
-8.86544
-8.90775
-8.94238
-8.96789
-8.98315
-8.98723
-8.97946
-8.95927
-8.92624
-8.87994
-8.81999
-8.74594
-8.6573
-8.5535
-8.43386
-8.29761
-8.14387
-7.97167
-7.77993
-7.56751
-7.33322
-7.07589
-6.79443
-6.48793
-6.15577
-5.7978
-5.41447
-5.00707
-4.57792
-4.13057
-3.67007
-3.20317
-2.73862
-2.28743
-1.86277
-1.47867
-1.14677
-0.871842
-0.649845
-0.470503
-0.321972
-0.194476
-0.0818341
0.0189142
0.108742
0.187754
0.25588
0.313208
0.360091
0.397133
0.425128
0.444979
0.457632
0.46402
0.465026
0.461459
0.454049
0.443432
0.430169
0.414734
0.397537
0.378918
0.359162
0.338502
0.317123
0.295173
0.272762
0.249977
0.22686
0.203492
0.179813
0.156051
0.131799
0.108091
0.0828738
0.0609315
0.0324764
0.018655
-8.16931
-8.20867
-8.2559
-8.30906
-8.35574
-8.38869
-8.41008
-8.42309
-8.42943
-8.43153
-8.4326
-8.43557
-8.44271
-8.45573
-8.47572
-8.50301
-8.53723
-8.57735
-8.62187
-8.66891
-8.7164
-8.7622
-8.80429
-8.84078
-8.87002
-8.89062
-8.90141
-8.90148
-8.89008
-8.8666
-8.83054
-8.78144
-8.71884
-8.64227
-8.55121
-8.44506
-8.32315
-8.18472
-8.02891
-7.85477
-7.6613
-7.44741
-7.21202
-6.95406
-6.67255
-6.36674
-6.03614
-5.68072
-5.30106
-4.89851
-4.47541
-4.03525
-3.58292
-3.12488
-2.66945
-2.22707
-1.81011
-1.43175
-1.10293
-0.828433
-0.605111
-0.424109
-0.274849
-0.148148
-0.0377529
0.0597183
0.145721
0.220765
0.285064
0.338883
0.382657
0.417012
0.442719
0.460637
0.471658
0.476658
0.476471
0.471861
0.463521
0.452059
0.438016
0.421853
0.403971
0.384706
0.364343
0.343115
0.321211
0.298779
0.275931
0.252754
0.22929
0.205614
0.18167
0.15766
0.13322
0.10924
0.0839623
0.0614063
0.0334163
0.0173812
-8.16129
-8.19814
-8.23997
-8.28513
-8.32596
-8.35689
-8.37847
-8.39287
-8.40156
-8.40649
-8.4102
-8.41517
-8.42339
-8.43638
-8.4551
-8.47992
-8.51054
-8.54613
-8.58538
-8.62665
-8.6681
-8.70782
-8.74394
-8.77472
-8.7986
-8.81422
-8.82045
-8.81635
-8.80113
-8.77415
-8.73487
-8.68276
-8.61735
-8.53812
-8.44452
-8.33596
-8.21175
-8.07115
-7.91334
-7.7374
-7.54237
-7.32727
-7.09108
-6.83283
-6.55169
-6.247
-5.91841
-5.56602
-5.19049
-4.79323
-4.37659
-3.944
-3.50015
-3.05125
-2.6052
-2.17179
-1.76266
-1.39009
-1.06441
-0.790451
-0.565951
-0.383401
-0.233385
-0.107282
0.00120055
0.0958192
0.178467
0.250018
0.310948
0.361676
0.402718
0.434716
0.458424
0.474661
0.48427
0.488078
0.486869
0.481367
0.47223
0.460044
0.445328
0.42853
0.410045
0.390205
0.369296
0.347551
0.325163
0.302283
0.279024
0.255475
0.231679
0.207705
0.183504
0.159247
0.134621
0.110359
0.0850283
0.0618164
0.0343435
0.0159583
-8.15248
-8.18662
-8.22393
-8.26296
-8.29884
-8.32757
-8.34888
-8.3641
-8.37443
-8.38143
-8.38717
-8.39368
-8.40268
-8.41548
-8.43295
-8.45542
-8.48268
-8.51402
-8.54832
-8.58415
-8.61988
-8.65378
-8.68416
-8.70939
-8.72801
-8.73871
-8.74037
-8.73206
-8.71297
-8.68242
-8.63982
-8.58463
-8.51633
-8.43438
-8.33822
-8.22724
-8.10076
-7.95807
-7.79835
-7.62076
-7.42438
-7.20829
-6.97157
-6.71337
-6.43293
-6.12973
-5.80353
-5.45454
-5.08351
-4.6919
-4.28204
-3.85728
-3.42218
-2.98264
-2.54613
-2.12188
-1.7207
-1.35405
-1.03163
-0.758351
-0.532814
-0.348761
-0.197865
-0.0720721
0.0349046
0.12714
0.206923
0.275465
0.33348
0.381535
0.420215
0.450184
0.472181
0.486989
0.495407
0.498216
0.496157
0.489917
0.480124
0.467336
0.452056
0.434722
0.41572
0.395381
0.37399
0.351784
0.328957
0.305666
0.282027
0.258129
0.234019
0.209759
0.18531
0.160808
0.135999
0.111446
0.0860687
0.0621654
0.035255
0.0143959
-8.143
-8.17446
-8.2079
-8.24208
-8.27384
-8.30034
-8.32098
-8.33652
-8.34791
-8.35641
-8.36363
-8.37126
-8.38074
-8.39319
-8.40937
-8.42958
-8.45365
-8.48099
-8.51064
-8.54133
-8.57162
-8.59996
-8.62481
-8.64466
-8.65814
-8.664
-8.66114
-8.64863
-8.62566
-8.59153
-8.5456
-8.48732
-8.41613
-8.33147
-8.23278
-8.11943
-7.99078
-7.8461
-7.68462
-7.50555
-7.30802
-7.09119
-6.85421
-6.59633
-6.31691
-6.01553
-5.69207
-5.34682
-4.9806
-4.59492
-4.19211
-3.77544
-3.34928
-2.91927
-2.49246
-2.0775
-1.68442
-1.32384
-1.00486
-0.732464
-0.506033
-0.320482
-0.16852
-0.0426764
0.0632616
0.153624
0.231054
0.297077
0.352631
0.398423
0.435108
0.463372
0.48394
0.497568
0.505015
0.507019
0.504284
0.497461
0.487149
0.473886
0.458156
0.440388
0.420959
0.400201
0.378397
0.355788
0.332574
0.308913
0.284926
0.260705
0.2363
0.211769
0.187081
0.162339
0.137352
0.112502
0.0870806
0.0624578
0.0361474
0.0127063
-8.13292
-8.16182
-8.19192
-8.22217
-8.25046
-8.27478
-8.2945
-8.31
-8.32198
-8.33145
-8.33969
-8.34804
-8.35771
-8.36964
-8.38448
-8.40248
-8.42352
-8.44707
-8.47231
-8.49813
-8.52325
-8.54629
-8.56582
-8.58047
-8.58894
-8.59005
-8.58274
-8.56609
-8.53927
-8.50156
-8.45233
-8.39097
-8.31693
-8.22961
-8.12845
-8.01284
-7.88211
-7.73558
-7.57252
-7.39216
-7.1937
-6.97637
-6.73941
-6.48215
-6.20406
-5.90482
-5.5844
-5.24319
-4.88208
-4.5026
-4.10707
-3.69868
-3.28163
-2.86129
-2.44431
-2.03876
-1.65393
-1.29959
-0.984298
-0.713012
-0.485847
-0.298789
-0.145539
-0.0192366
0.086176
0.175211
0.250822
0.314824
0.368373
0.412309
0.447361
0.474236
0.493656
0.506349
0.513042
0.514434
0.511196
0.503946
0.493257
0.479646
0.463582
0.445483
0.425722
0.404627
0.382485
0.359537
0.335988
0.312002
0.287704
0.26319
0.238513
0.213727
0.188811
0.163837
0.138675
0.113524
0.0880615
0.0626987
0.0370168
0.0109018
-8.1223
-8.14881
-8.17598
-8.20296
-8.22829
-8.25057
-8.26921
-8.28438
-8.29658
-8.30659
-8.31542
-8.32413
-8.33372
-8.34497
-8.3584
-8.37423
-8.39235
-8.4123
-8.43337
-8.45458
-8.47478
-8.49274
-8.50717
-8.5168
-8.52042
-8.5169
-8.50522
-8.48448
-8.45386
-8.41262
-8.36012
-8.29574
-8.21889
-8.12899
-8.02546
-7.90768
-7.77501
-7.6268
-7.46233
-7.28088
-7.08173
-6.86415
-6.62748
-6.37114
-6.09467
-5.79787
-5.48079
-5.14391
-4.78818
-4.41515
-4.02711
-3.62716
-3.21936
-2.8088
-2.40175
-2.00571
-1.62926
-1.28138
-0.970018
-0.700117
-0.472401
-0.283836
-0.129067
-0.00187758
0.103553
0.191837
0.266183
0.328675
0.380676
0.423164
0.45694
0.482742
0.501289
0.51329
0.519442
0.520415
0.516845
0.509323
0.498398
0.484568
0.468288
0.449965
0.429969
0.408625
0.38622
0.363001
0.339175
0.314913
0.290345
0.265569
0.240646
0.215624
0.190495
0.165296
0.139964
0.114513
0.0890089
0.0628944
0.0378598
0.00899786
-8.11116
-8.13546
-8.16006
-8.18427
-8.20706
-8.22744
-8.24491
-8.25952
-8.27162
-8.28181
-8.29087
-8.29963
-8.3089
-8.31929
-8.33125
-8.34493
-8.36023
-8.37676
-8.39386
-8.41069
-8.42623
-8.43935
-8.4489
-8.45369
-8.45261
-8.44459
-8.42865
-8.40391
-8.36955
-8.32485
-8.26914
-8.20179
-8.12221
-8.02981
-7.924
-7.80418
-7.66972
-7.51998
-7.3543
-7.17199
-6.97237
-6.75481
-6.5187
-6.26355
-5.98901
-5.69494
-5.38149
-5.04921
-4.6991
-4.33274
-3.95237
-3.56102
-3.16257
-2.76188
-2.36483
-1.97838
-1.61042
-1.26918
-0.962033
-0.693815
-0.465761
-0.275712
-0.119209
0.00929332
0.115298
0.203426
0.277081
0.338587
0.389507
0.430955
0.463812
0.488852
0.506799
0.518348
0.524173
0.524915
0.521184
0.513545
0.502526
0.488606
0.472228
0.453792
0.43366
0.412156
0.389569
0.366149
0.342109
0.317623
0.292828
0.267827
0.242685
0.217449
0.192124
0.166711
0.141216
0.115467
0.0899203
0.0630512
0.0386717
0.00700972
-8.09954
-8.12182
-8.14414
-8.16594
-8.18652
-8.20514
-8.22141
-8.2353
-8.24706
-8.25713
-8.2661
-8.27464
-8.28335
-8.29275
-8.30316
-8.31471
-8.32729
-8.34053
-8.35387
-8.36654
-8.37765
-8.38617
-8.39104
-8.3912
-8.3856
-8.37322
-8.35314
-8.3245
-8.28649
-8.2384
-8.17955
-8.10932
-8.0271
-7.9323
-7.82433
-7.7026
-7.5665
-7.41541
-7.2487
-7.06574
-6.8659
-6.6486
-6.41333
-6.15965
-5.88731
-5.59625
-5.28671
-4.95929
-4.61503
-4.25552
-3.88298
-3.50034
-3.11134
-2.72056
-2.33354
-1.95673
-1.59736
-1.26295
-0.960288
-0.694067
-0.465918
-0.274446
-0.116031
0.0141862
0.121315
0.209892
0.283448
0.344508
0.394823
0.435646
0.467945
0.492535
0.510153
0.521489
0.527196
0.527896
0.524172
0.51657
0.505597
0.491717
0.475361
0.456921
0.436754
0.415183
0.392497
0.368951
0.344761
0.320107
0.295133
0.269946
0.244617
0.219192
0.193688
0.168076
0.142424
0.116386
0.0907932
0.0631761
0.039449
0.00495596
-8.08747
-8.10789
-8.12817
-8.14789
-8.1665
-8.18349
-8.19854
-8.21159
-8.22281
-8.23251
-8.24115
-8.24922
-8.25719
-8.26546
-8.27427
-8.28371
-8.29364
-8.30374
-8.31349
-8.32223
-8.32912
-8.33327
-8.3337
-8.32942
-8.31947
-8.3029
-8.27882
-8.24639
-8.20484
-8.15346
-8.09157
-8.01855
-7.93378
-7.83669
-7.72669
-7.60319
-7.46561
-7.31334
-7.14581
-6.96241
-6.76258
-6.5458
-6.31161
-6.05968
-5.78981
-5.50203
-5.19664
-4.87431
-4.53611
-4.18362
-3.81905
-3.44521
-3.0657
-2.68486
-2.30787
-1.94071
-1.59
-1.26258
-0.96467
-0.700771
-0.472799
-0.28001
-0.119557
0.0127317
0.12151
0.211138
0.285195
0.346363
0.396563
0.437188
0.469295
0.493751
0.511314
0.522674
0.528475
0.529318
0.525771
0.518358
0.507571
0.49386
0.477646
0.459312
0.439212
0.417668
0.39497
0.371373
0.347101
0.32234
0.297237
0.271906
0.246425
0.220839
0.195177
0.169383
0.143584
0.117268
0.0916245
0.0632758
0.0401866
0.0028548
-8.075
-8.09371
-8.11216
-8.13002
-8.14688
-8.16235
-8.17619
-8.18832
-8.19883
-8.20797
-8.21606
-8.22346
-8.23053
-8.23756
-8.24472
-8.25205
-8.25941
-8.2665
-8.27285
-8.27785
-8.28076
-8.28075
-8.27696
-8.26846
-8.25436
-8.23376
-8.20583
-8.16975
-8.12478
-8.07022
-8.0054
-7.92969
-7.8425
-7.74324
-7.63133
-7.50621
-7.36731
-7.21406
-7.0459
-6.86228
-6.66269
-6.44666
-6.21382
-5.96388
-5.69674
-5.41249
-5.11149
-4.79445
-4.46248
-4.11717
-3.76066
-3.39569
-3.02568
-2.65477
-2.28778
-1.93025
-1.58823
-1.26793
-0.975022
-0.713769
-0.486272
-0.292323
-0.129771
0.00488466
0.115792
0.207054
0.282215
0.344058
0.394652
0.435518
0.467811
0.492457
0.510244
0.52187
0.527975
0.52915
0.525946
0.518875
0.508412
0.494999
0.479045
0.460929
0.440999
0.419576
0.396952
0.373385
0.349102
0.324293
0.299115
0.273687
0.248092
0.222375
0.19658
0.170623
0.144688
0.11811
0.0924116
0.0633575
0.0408811
0.00072803
-8.06216
-8.07931
-8.0961
-8.11229
-8.12755
-8.14161
-8.15424
-8.16539
-8.17509
-8.18351
-8.19087
-8.19744
-8.20347
-8.20917
-8.21464
-8.21989
-8.22476
-8.22896
-8.23207
-8.23353
-8.23267
-8.22874
-8.22094
-8.20843
-8.19037
-8.16593
-8.13431
-8.09474
-8.04649
-7.98887
-7.92124
-7.84298
-7.75349
-7.65219
-7.53853
-7.41194
-7.27189
-7.11783
-6.94924
-6.76561
-6.56648
-6.35145
-6.12019
-5.8725
-5.60832
-5.32782
-5.03142
-4.71987
-4.39429
-4.05627
-3.70789
-3.35181
-2.9913
-2.63025
-2.2732
-1.92524
-1.59191
-1.27882
-0.991142
-0.732853
-0.506149
-0.311248
-0.146608
-0.00936841
0.104086
0.197526
0.274384
0.337478
0.388988
0.430553
0.463426
0.488599
0.506896
0.519036
0.525661
0.527356
0.524665
0.518087
0.508089
0.495101
0.479526
0.461736
0.442079
0.420873
0.398411
0.374953
0.350731
0.325941
0.300744
0.275266
0.249597
0.223784
0.197881
0.171785
0.145729
0.118909
0.0931504
0.0634269
0.0415275
-0.0014033
-8.04902
-8.06471
-8.08
-8.09466
-8.10847
-8.12118
-8.13264
-8.14275
-8.15155
-8.15912
-8.16562
-8.17123
-8.17612
-8.18042
-8.18418
-8.18737
-8.18982
-8.19126
-8.19129
-8.1894
-8.18498
-8.17735
-8.16576
-8.14946
-8.12765
-8.09956
-8.06443
-8.02152
-7.97014
-7.90962
-7.83932
-7.75863
-7.66697
-7.56378
-7.44851
-7.32062
-7.17959
-7.02491
-6.85609
-6.67266
-6.47422
-6.26041
-6.03096
-5.78573
-5.52474
-5.24821
-4.9566
-4.65069
-4.33163
-4.00098
-3.66078
-3.31359
-2.96253
-2.61127
-2.26404
-1.92556
-1.60088
-1.29506
-1.0128
-0.757767
-0.532188
-0.336591
-0.169952
-0.0300009
0.0863368
0.182447
0.261566
0.326484
0.379445
0.422187
0.456052
0.482105
0.501216
0.514128
0.521495
0.523906
0.521899
0.515968
0.506572
0.494137
0.479058
0.461705
0.442423
0.421528
0.399315
0.376047
0.351959
0.327253
0.302096
0.276619
0.25092
0.225048
0.199067
0.172857
0.146695
0.119658
0.0938371
0.0634903
0.042123
-0.00351445
-8.03562
-8.04997
-8.06386
-8.07713
-8.08958
-8.10102
-8.11131
-8.12038
-8.1282
-8.13483
-8.14037
-8.14491
-8.14858
-8.15143
-8.15347
-8.15464
-8.15475
-8.15355
-8.15066
-8.1456
-8.13782
-8.1267
-8.11155
-8.09166
-8.06631
-8.03477
-7.99632
-7.95025
-7.8959
-7.83263
-7.7598
-7.67684
-7.58317
-7.47824
-7.36152
-7.2325
-7.09067
-6.93555
-6.76669
-6.58367
-6.38612
-6.17374
-5.94633
-5.70378
-5.44619
-5.1738
-4.88714
-4.58702
-4.27457
-3.95136
-3.61935
-3.28102
-2.93933
-2.59774
-2.26021
-1.93107
-1.61494
-1.31642
-1.03971
-0.788218
-0.564096
-0.3681
-0.199626
-0.056934
0.0625277
0.161721
0.243622
0.310922
0.365875
0.410286
0.445579
0.472886
0.49313
0.507087
0.515431
0.51876
0.517615
0.512488
0.503836
0.492081
0.477616
0.460809
0.442001
0.421512
0.399636
0.376638
0.352759
0.328204
0.303146
0.277722
0.252038
0.226145
0.200118
0.173825
0.147576
0.120352
0.0944659
0.0635514
0.0426631
-0.00558161
-8.02202
-8.03512
-8.04772
-8.05968
-8.07086
-8.08109
-8.09024
-8.09824
-8.10504
-8.11066
-8.11516
-8.11857
-8.12095
-8.12232
-8.12264
-8.12183
-8.11969
-8.11597
-8.11031
-8.10226
-8.09133
-8.07693
-8.05843
-8.03518
-8.00649
-7.9717
-7.93011
-7.88107
-7.82393