/*--------------------------------*- C++ -*----------------------------------*\
| =========                 |                                                 |
| \\      /  F ield         | OpenFOAM: The Open Source CFD Toolbox           |
|  \\    /   O peration     | Version:  4.1                                   |
|   \\  /    A nd           | Web:      www.OpenFOAM.org                      |
|    \\/     M anipulation  |                                                 |
\*---------------------------------------------------------------------------*/
FoamFile
{
    version     2.0;
    format      ascii;
    class       surfaceScalarField;
    location    "400";
    object      phi;
}
// * * * * * * * * * * * * * * * * * * * * * * * * * * * * * * * * * * * * * //

dimensions      [0 3 -1 0 0 0 0];

internalField   nonuniform List<scalar> 
13452
(
6.28704e-05
-2.60191e-06
6.37404e-05
-8.70052e-07
6.46289e-05
-8.88475e-07
6.41057e-05
5.23216e-07
6.28909e-05
1.21478e-06
6.15463e-05
1.34456e-06
6.02752e-05
1.27116e-06
5.91176e-05
1.15754e-06
5.80736e-05
1.04399e-06
5.71348e-05
9.38797e-07
5.62898e-05
8.45009e-07
5.55266e-05
7.63257e-07
5.48343e-05
6.92309e-07
5.42039e-05
6.30372e-07
5.3628e-05
5.75892e-07
5.31003e-05
5.27663e-07
5.26156e-05
4.84716e-07
5.21694e-05
4.46251e-07
5.17578e-05
4.1161e-07
5.13775e-05
3.80258e-07
5.10258e-05
3.5175e-07
5.07e-05
3.25716e-07
5.03982e-05
3.01841e-07
5.01183e-05
2.79859e-07
4.98588e-05
2.59548e-07
4.96181e-05
2.40723e-07
4.93948e-05
2.23245e-07
4.91878e-05
2.06998e-07
4.89958e-05
1.92064e-07
4.88178e-05
1.77991e-07
4.86517e-05
1.66063e-07
4.85049e-05
1.46837e-07
1.26598e-07
4.83783e-05
6.30682e-05
-3.67975e-06
6.27995e-05
-6.0135e-07
6.21235e-05
-2.12498e-07
6.23362e-05
3.10491e-07
6.2794e-05
7.56979e-07
6.31937e-05
9.44936e-07
6.34622e-05
1.00262e-06
6.36073e-05
1.01246e-06
6.36546e-05
9.96659e-07
6.363e-05
9.63408e-07
6.35542e-05
9.20771e-07
6.34427e-05
8.74835e-07
6.33063e-05
8.28664e-07
6.31531e-05
7.83543e-07
6.29889e-05
7.40112e-07
6.28179e-05
6.98732e-07
6.2643e-05
6.59546e-07
6.24667e-05
6.22548e-07
6.22907e-05
5.87658e-07
6.21162e-05
5.54764e-07
6.19442e-05
5.23737e-07
6.17755e-05
4.94441e-07
6.16106e-05
4.66741e-07
6.14499e-05
4.40505e-07
6.12939e-05
4.15611e-07
6.11426e-05
3.91945e-07
6.09965e-05
3.69424e-07
6.08555e-05
3.47913e-07
6.07201e-05
3.27489e-07
6.05907e-05
3.07363e-07
6.0468e-05
2.8885e-07
6.03501e-05
2.64664e-07
2.59983e-07
6.02167e-05
6.23306e-05
-2.24893e-06
6.2662e-05
-9.32791e-07
6.28103e-05
-3.60735e-07
6.30959e-05
2.48634e-08
6.34253e-05
4.27544e-07
6.37137e-05
6.56559e-07
6.39532e-05
7.63107e-07
6.41473e-05
8.18419e-07
6.42992e-05
8.44749e-07
6.44142e-05
8.48376e-07
6.44985e-05
8.36512e-07
6.45575e-05
8.1576e-07
6.45961e-05
7.90068e-07
6.46181e-05
7.61544e-07
6.46267e-05
7.31538e-07
6.46244e-05
7.01002e-07
6.46134e-05
6.70558e-07
6.45954e-05
6.40582e-07
6.45718e-05
6.11296e-07
6.45437e-05
5.82827e-07
6.45122e-05
5.5524e-07
6.44781e-05
5.28555e-07
6.44421e-05
5.0276e-07
6.44047e-05
4.77824e-07
6.43666e-05
4.53708e-07
6.43282e-05
4.3036e-07
6.42899e-05
4.07744e-07
6.4252e-05
3.85771e-07
6.4215e-05
3.64487e-07
6.4179e-05
3.43415e-07
6.41444e-05
3.23407e-07
6.41073e-05
3.01817e-07
2.90928e-07
6.40763e-05
6.47767e-05
-1.44255e-06
6.4735e-05
-8.91078e-07
6.47852e-05
-4.10946e-07
6.48936e-05
-8.35773e-08
6.50578e-05
2.63364e-07
6.52227e-05
4.91648e-07
6.53744e-05
6.11397e-07
6.55119e-05
6.80968e-07
6.56338e-05
7.22808e-07
6.57398e-05
7.42375e-07
6.58307e-05
7.45596e-07
6.59081e-05
7.3844e-07
6.59734e-05
7.24721e-07
6.60283e-05
7.06612e-07
6.60743e-05
6.85591e-07
6.61125e-05
6.62758e-07
6.61442e-05
6.38885e-07
6.61703e-05
6.14491e-07
6.61917e-05
5.89925e-07
6.62091e-05
5.65424e-07
6.62232e-05
5.41147e-07
6.62345e-05
5.17193e-07
6.62437e-05
4.93617e-07
6.6251e-05
4.70445e-07
6.62571e-05
4.47682e-07
6.62621e-05
4.25316e-07
6.62665e-05
4.03335e-07
6.62706e-05
3.81688e-07
6.62747e-05
3.60395e-07
6.62789e-05
3.39234e-07
6.62835e-05
3.18741e-07
6.62872e-05
2.98127e-07
2.82646e-07
6.62955e-05
6.70079e-05
-9.93675e-07
6.6859e-05
-7.42196e-07
6.68317e-05
-3.83647e-07
6.68583e-05
-1.10199e-07
6.69431e-05
1.78645e-07
6.70471e-05
3.87657e-07
6.71498e-05
5.0862e-07
6.72476e-05
5.83209e-07
6.73391e-05
6.31315e-07
6.74231e-05
6.58318e-07
6.74994e-05
6.69368e-07
6.75681e-05
6.69733e-07
6.76299e-05
6.62939e-07
6.76854e-05
6.511e-07
6.77353e-05
6.35694e-07
6.77802e-05
6.17836e-07
6.78207e-05
5.98336e-07
6.78575e-05
5.77759e-07
6.78909e-05
5.56503e-07
6.79215e-05
5.34853e-07
6.79496e-05
5.13009e-07
6.79757e-05
4.91107e-07
6.80001e-05
4.69235e-07
6.80231e-05
4.47447e-07
6.8045e-05
4.2577e-07
6.80661e-05
4.04211e-07
6.80867e-05
3.82766e-07
6.81069e-05
3.61405e-07
6.81272e-05
3.40131e-07
6.81476e-05
3.1885e-07
6.81685e-05
2.97847e-07
6.81897e-05
2.76875e-07
2.57823e-07
6.82146e-05
6.90834e-05
-6.93001e-07
6.89335e-05
-5.92311e-07
6.88866e-05
-3.36763e-07
6.88871e-05
-1.10689e-07
6.89349e-05
1.30778e-07
6.90052e-05
3.17351e-07
6.90791e-05
4.34807e-07
6.91515e-05
5.10762e-07
6.92215e-05
5.61367e-07
6.92878e-05
5.92009e-07
6.93498e-05
6.07379e-07
6.94074e-05
6.1212e-07
6.94608e-05
6.09474e-07
6.95104e-05
6.01485e-07
6.95565e-05
5.89606e-07
6.95994e-05
5.74937e-07
6.96395e-05
5.58286e-07
6.9677e-05
5.4023e-07
6.97123e-05
5.21187e-07
6.97457e-05
5.01461e-07
6.97775e-05
4.81269e-07
6.98078e-05
4.60765e-07
6.9837e-05
4.4005e-07
6.98652e-05
4.19192e-07
6.98928e-05
3.98227e-07
6.99198e-05
3.77168e-07
6.99466e-05
3.56014e-07
6.99732e-05
3.34738e-07
7.00001e-05
3.13327e-07
7.00272e-05
2.9172e-07
7.0055e-05
2.70013e-07
7.00839e-05
2.48024e-07
2.26189e-07
7.01155e-05
7.11509e-05
-4.77517e-07
7.10204e-05
-4.61811e-07
7.09678e-05
-2.84249e-07
7.09564e-05
-9.92708e-08
7.0984e-05
1.03149e-07
7.10337e-05
2.67746e-07
7.10895e-05
3.78959e-07
7.11462e-05
4.54027e-07
7.12024e-05
5.05217e-07
7.12568e-05
5.37622e-07
7.13086e-05
5.55529e-07
7.13577e-05
5.6302e-07
7.14041e-05
5.63052e-07
7.1448e-05
5.57593e-07
7.14896e-05
5.48063e-07
7.1529e-05
5.35535e-07
7.15665e-05
5.20807e-07
7.16022e-05
5.04459e-07
7.16365e-05
4.86916e-07
7.16695e-05
4.6849e-07
7.17013e-05
4.49406e-07
7.17323e-05
4.29825e-07
7.17625e-05
4.09859e-07
7.17921e-05
3.89579e-07
7.18213e-05
3.69024e-07
7.18502e-05
3.4821e-07
7.18791e-05
3.27131e-07
7.19081e-05
3.05759e-07
7.19374e-05
2.84061e-07
7.19671e-05
2.61967e-07
7.19977e-05
2.39446e-07
7.20294e-05
2.16285e-07
1.92375e-07
7.20632e-05
7.32508e-05
-3.2306e-07
7.31393e-05
-3.50295e-07
7.30848e-05
-2.29726e-07
7.30663e-05
-8.0745e-08
7.30813e-05
8.81031e-08
7.31172e-05
2.31884e-07
7.3161e-05
3.35115e-07
7.32074e-05
4.07616e-07
7.32545e-05
4.58153e-07
7.33009e-05
4.91203e-07
7.33458e-05
5.10596e-07
7.3389e-05
5.1989e-07
7.34303e-05
5.2176e-07
7.34698e-05
5.18075e-07
7.35076e-05
5.10211e-07
7.35439e-05
4.99211e-07
7.35789e-05
4.85856e-07
7.36126e-05
4.70723e-07
7.36453e-05
4.54239e-07
7.36771e-05
4.3672e-07
7.37081e-05
4.18396e-07
7.37385e-05
3.99434e-07
7.37684e-05
3.79948e-07
7.3798e-05
3.60011e-07
7.38273e-05
3.39666e-07
7.38566e-05
3.18926e-07
7.3886e-05
2.97782e-07
7.39155e-05
2.76201e-07
7.39454e-05
2.54133e-07
7.39759e-05
2.31491e-07
7.40072e-05
2.08173e-07
7.40395e-05
1.83949e-07
1.58562e-07
7.40733e-05
7.53931e-05
-2.13671e-07
7.52992e-05
-2.56436e-07
7.52454e-05
-1.75954e-07
7.52226e-05
-5.79085e-08
7.52291e-05
8.16472e-08
7.5255e-05
2.05932e-07
7.52901e-05
3.00082e-07
7.5329e-05
3.68701e-07
7.53695e-05
4.17612e-07
7.54102e-05
4.50476e-07
7.54502e-05
4.70596e-07
7.54891e-05
4.81034e-07
7.55267e-05
4.84177e-07
7.5563e-05
4.81775e-07
7.5598e-05
4.7514e-07
7.5632e-05
4.65278e-07
7.56649e-05
4.52948e-07
7.56969e-05
4.38719e-07
7.57281e-05
4.23018e-07
7.57587e-05
4.0616e-07
7.57887e-05
3.8838e-07
7.58183e-05
3.69845e-07
7.58476e-05
3.50672e-07
7.58766e-05
3.30937e-07
7.59056e-05
3.10683e-07
7.59346e-05
2.89921e-07
7.59638e-05
2.68642e-07
7.59932e-05
2.46807e-07
7.60229e-05
2.24356e-07
7.60532e-05
2.01194e-07
7.60842e-05
1.7719e-07
7.6116e-05
1.5213e-07
1.25768e-07
7.61488e-05
7.75831e-05
-1.37206e-07
7.75061e-05
-1.79426e-07
7.74556e-05
-1.2548e-07
7.74306e-05
-3.29191e-08
7.7431e-05
8.12981e-08
7.74494e-05
1.87535e-07
7.74775e-05
2.71988e-07
7.75105e-05
3.35712e-07
7.75459e-05
3.82177e-07
7.75822e-05
4.14155e-07
7.76184e-05
4.34375e-07
7.76541e-05
4.45423e-07
7.76888e-05
4.49398e-07
7.77227e-05
4.47905e-07
7.77557e-05
4.4218e-07
7.77878e-05
4.33178e-07
7.78191e-05
4.21632e-07
7.78497e-05
4.08097e-07
7.78797e-05
3.92993e-07
7.79092e-05
3.76637e-07
7.79384e-05
3.5926e-07
7.79672e-05
3.41034e-07
7.79958e-05
3.22075e-07
7.80243e-05
3.02462e-07
7.80527e-05
2.82237e-07
7.80812e-05
2.61415e-07
7.81099e-05
2.39982e-07
7.81388e-05
2.17903e-07
7.8168e-05
1.95113e-07
7.81977e-05
1.71519e-07
7.82279e-05
1.46993e-07
7.82587e-05
1.21358e-07
9.44385e-08
7.829e-05
7.98257e-05
-8.45452e-08
7.97643e-05
-1.18035e-07
7.97191e-05
-8.02851e-08
7.96938e-05
-7.69113e-09
7.969e-05
8.51124e-08
7.97026e-05
1.74957e-07
7.97251e-05
2.49533e-07
7.97531e-05
3.07653e-07
7.97843e-05
3.50995e-07
7.9817e-05
3.81477e-07
7.98501e-05
4.01248e-07
7.98831e-05
4.12441e-07
7.99156e-05
4.16867e-07
7.99476e-05
4.1597e-07
7.99788e-05
4.10891e-07
8.00095e-05
4.02529e-07
8.00395e-05
3.9158e-07
8.00691e-05
3.78581e-07
8.00981e-05
3.63943e-07
8.01268e-05
3.47975e-07
8.01551e-05
3.3091e-07
8.01832e-05
3.12917e-07
8.02112e-05
2.94116e-07
8.02391e-05
2.74584e-07
8.0267e-05
2.54368e-07
8.02949e-05
2.33482e-07
8.03229e-05
2.11917e-07
8.03512e-05
1.89638e-07
8.03797e-05
1.66589e-07
8.04086e-05
1.42686e-07
8.04377e-05
1.17822e-07
8.04672e-05
9.18679e-08
6.47358e-08
8.04969e-05
8.21248e-05
-4.88767e-08
8.20772e-05
-7.04922e-08
8.20386e-05
-4.1607e-08
8.20148e-05
1.61071e-08
8.20085e-05
9.1366e-08
8.20168e-05
1.66708e-07
8.20346e-05
2.31642e-07
8.20585e-05
2.83757e-07
8.20861e-05
3.23465e-07
8.21156e-05
3.51938e-07
8.21461e-05
3.70782e-07
8.21768e-05
3.81706e-07
8.22074e-05
3.8624e-07
8.22377e-05
3.85658e-07
8.22676e-05
3.80994e-07
8.22971e-05
3.73081e-07
8.23261e-05
3.62573e-07
8.23547e-05
3.49983e-07
8.23829e-05
3.35706e-07
8.24109e-05
3.20044e-07
8.24386e-05
3.03227e-07
8.2466e-05
2.85421e-07
8.24934e-05
2.66746e-07
8.25207e-05
2.47283e-07
8.2548e-05
2.27078e-07
8.25753e-05
2.06152e-07
8.26028e-05
1.84499e-07
8.26303e-05
1.62092e-07
8.2658e-05
1.38884e-07
8.26859e-05
1.14809e-07
8.27139e-05
8.97893e-08
8.2742e-05
6.37484e-08
3.66814e-08
8.27701e-05
8.4484e-05
-2.51394e-08
8.44483e-05
-3.47246e-08
8.44166e-05
-9.92848e-09
8.43955e-05
3.7189e-08
8.43883e-05
9.8537e-08
8.43936e-05
1.61427e-07
8.44079e-05
2.17319e-07
8.44284e-05
2.63337e-07
8.44527e-05
2.99086e-07
8.44795e-05
3.25152e-07
8.45076e-05
3.42667e-07
8.45364e-05
3.52959e-07
8.45653e-05
3.57293e-07
8.45942e-05
3.56769e-07
8.46229e-05
3.52312e-07
8.46513e-05
3.44677e-07
8.46794e-05
3.34472e-07
8.47072e-05
3.22181e-07
8.47347e-05
3.08179e-07
8.4762e-05
2.92759e-07
8.47891e-05
2.76142e-07
8.4816e-05
2.58494e-07
8.48429e-05
2.39934e-07
8.48696e-05
2.20543e-07
8.48963e-05
2.00372e-07
8.4923e-05
1.79445e-07
8.49497e-05
1.57763e-07
8.49765e-05
1.3531e-07
8.50034e-05
1.12052e-07
8.50302e-05
8.79448e-08
8.50571e-05
6.29413e-08
8.50838e-05
3.70151e-08
1.02336e-08
8.51102e-05
8.69067e-05
-9.63687e-09
8.68805e-05
-8.60504e-09
8.68557e-05
1.49037e-08
8.68382e-05
5.47421e-08
8.68313e-05
1.0538e-07
8.68349e-05
1.57891e-07
8.68466e-05
2.05617e-07
8.68642e-05
2.45719e-07
8.68859e-05
2.77381e-07
8.69103e-05
3.00771e-07
8.69363e-05
3.16642e-07
8.69632e-05
3.25997e-07
8.69907e-05
3.29861e-07
8.70183e-05
3.29168e-07
8.70459e-05
3.24726e-07
8.70733e-05
3.17214e-07
8.71006e-05
3.0719e-07
8.71277e-05
2.951e-07
8.71546e-05
2.813e-07
8.71813e-05
2.66069e-07
8.72078e-05
2.49619e-07
8.72342e-05
2.32112e-07
8.72604e-05
2.13666e-07
8.72866e-05
1.94364e-07
8.73127e-05
1.74259e-07
8.73388e-05
1.53381e-07
8.73648e-05
1.3174e-07
8.73908e-05
1.09329e-07
8.74167e-05
8.61317e-08
8.74425e-05
6.21246e-08
8.74682e-05
3.72915e-08
8.74935e-05
1.16504e-08
-1.46726e-08
8.75185e-05
8.93956e-05
2.71453e-10
8.93772e-05
9.86382e-09
8.93586e-05
3.3493e-08
8.93449e-05
6.84274e-08
8.93393e-05
1.10995e-07
8.93421e-05
1.55071e-07
8.9352e-05
1.95659e-07
8.93675e-05
2.30245e-07
8.9387e-05
2.57869e-07
8.94094e-05
2.78451e-07
8.94335e-05
2.92461e-07
8.94589e-05
3.00642e-07
8.94849e-05
3.03811e-07
8.95114e-05
3.02748e-07
8.95379e-05
2.98153e-07
8.95645e-05
2.90626e-07
8.9591e-05
2.80671e-07
8.96174e-05
2.68698e-07
8.96437e-05
2.55037e-07
8.96698e-05
2.39951e-07
8.96958e-05
2.23643e-07
8.97216e-05
2.06269e-07
8.97474e-05
1.87946e-07
8.9773e-05
1.68757e-07
8.97985e-05
1.48759e-07
8.98239e-05
1.27987e-07
8.98491e-05
1.06459e-07
8.98743e-05
8.41807e-08
8.98993e-05
6.11504e-08
8.9924e-05
3.7366e-08
8.99485e-05
1.28388e-08
8.99725e-05
-1.23756e-08
-3.81061e-08
8.99959e-05
9.19537e-05
6.4324e-09
9.19411e-05
2.244e-08
9.19279e-05
4.66982e-08
9.1918e-05
7.83022e-08
9.19142e-05
1.14842e-07
9.19171e-05
1.52185e-07
9.1926e-05
1.86692e-07
9.194e-05
2.16299e-07
9.19578e-05
2.40082e-07
9.19784e-05
2.57846e-07
9.2001e-05
2.69874e-07
9.20249e-05
2.76714e-07
9.20497e-05
2.79013e-07
9.2075e-05
2.77417e-07
9.21007e-05
2.72526e-07
9.21264e-05
2.64864e-07
9.21522e-05
2.54881e-07
9.2178e-05
2.4295e-07
9.22036e-05
2.29375e-07
9.22292e-05
2.144e-07
9.22546e-05
1.98218e-07
9.22799e-05
1.80978e-07
9.2305e-05
1.62794e-07
9.233e-05
1.43748e-07
9.23549e-05
1.23901e-07
9.23796e-05
1.03294e-07
9.24041e-05
8.19535e-08
9.24284e-05
5.98954e-08
9.24524e-05
3.71326e-08
9.24761e-05
1.36815e-08
9.24994e-05
-1.04225e-08
9.25221e-05
-3.50943e-08
-6.01289e-08
9.25441e-05
9.45835e-05
1.01149e-08
9.45753e-05
3.05963e-08
9.45665e-05
5.54723e-08
9.45601e-05
8.47075e-08
9.45583e-05
1.16712e-07
9.45617e-05
1.48716e-07
9.45703e-05
1.7813e-07
9.45832e-05
2.0335e-07
9.45997e-05
2.23587e-07
9.4619e-05
2.38623e-07
9.46402e-05
2.48635e-07
9.46629e-05
2.54036e-07
9.46866e-05
2.55342e-07
9.47109e-05
2.53089e-07
9.47356e-05
2.47785e-07
9.47606e-05
2.39889e-07
9.47857e-05
2.29798e-07
9.48108e-05
2.17848e-07
9.48358e-05
2.04316e-07
9.48608e-05
1.89427e-07
9.48857e-05
1.73362e-07
9.49104e-05
1.56261e-07
9.49349e-05
1.38236e-07
9.49593e-05
1.19368e-07
9.49835e-05
9.97213e-08
9.50075e-05
7.93404e-08
9.50312e-05
5.82594e-08
9.50545e-05
3.65047e-08
9.50776e-05
1.41017e-08
9.51002e-05
-8.91759e-09
9.51223e-05
-3.24986e-08
9.51437e-05
-5.65331e-08
-8.0793e-08
9.51644e-05
9.72875e-05
1.21787e-08
9.72825e-05
3.55222e-08
9.72772e-05
6.07513e-08
9.72738e-05
8.81551e-08
9.72739e-05
1.16661e-07
9.72782e-05
1.44408e-07
9.72867e-05
1.69582e-07
9.72991e-05
1.90991e-07
9.73146e-05
2.08019e-07
9.73328e-05
2.20484e-07
9.73529e-05
2.28516e-07
9.73745e-05
2.32441e-07
9.73972e-05
2.3268e-07
9.74206e-05
2.29681e-07
9.74445e-05
2.23879e-07
9.74687e-05
2.15671e-07
9.74931e-05
2.05409e-07
9.75175e-05
1.93392e-07
9.7542e-05
1.7987e-07
9.75664e-05
1.6505e-07
9.75906e-05
1.49099e-07
9.76147e-05
1.3215e-07
9.76387e-05
1.14309e-07
9.76624e-05
9.56575e-08
9.76858e-05
7.62597e-08
9.7709e-05
5.61651e-08
9.77318e-05
3.54138e-08
9.77543e-05
1.40407e-08
9.77763e-05
-7.91883e-09
9.77978e-05
-3.04199e-08
9.78187e-05
-5.33933e-08
9.78389e-05
-7.67139e-08
-1.00139e-07
9.78583e-05
0.000100068
1.32013e-08
0.000100065
3.8154e-08
0.000100063
6.33904e-08
0.000100062
8.92341e-08
0.000100063
1.14932e-07
0.000100069
1.3922e-07
0.000100077
1.60845e-07
0.000100089
1.78957e-07
0.000100104
1.93113e-07
0.000100122
2.03195e-07
0.000100141
2.09326e-07
0.000100161
2.11783e-07
0.000100183
2.10921e-07
0.000100206
2.07123e-07
0.000100229
2.00763e-07
0.000100252
1.9219e-07
0.000100276
1.81709e-07
0.0001003
1.6959e-07
0.000100324
1.56056e-07
0.000100347
1.41296e-07
0.000100371
1.25463e-07
0.000100395
1.08683e-07
0.000100418
9.10546e-08
0.000100441
7.26589e-08
0.000100463
5.356e-08
0.000100486
3.38104e-08
0.000100508
1.34551e-08
0.000100529
-7.46485e-09
0.00010055
-2.89056e-08
0.000100571
-5.08133e-08
0.00010059
-7.31078e-08
0.000100609
-9.56533e-08
-1.18199e-07
0.000100627
0.000102928
1.35709e-08
0.000102927
3.92181e-08
0.000102926
6.41389e-08
0.000102927
8.85479e-08
0.00010293
1.11887e-07
0.000102936
1.33285e-07
0.000102945
1.51893e-07
0.000102956
1.67131e-07
0.000102971
1.78715e-07
0.000102987
1.86604e-07
0.000103006
1.90933e-07
0.000103026
1.91957e-07
0.000103046
1.8999e-07
0.000103068
1.85366e-07
0.000103091
1.78413e-07
0.000103113
1.69436e-07
0.000103136
1.58706e-07
0.000103159
1.4646e-07
0.000103183
1.32902e-07
0.000103206
1.182e-07
0.000103229
1.02495e-07
0.000103251
8.59034e-08
0.000103274
6.85188e-08
0.000103296
5.04188e-08
0.000103318
3.16673e-08
0.00010334
1.23185e-08
0.000103361
-7.57962e-09
0.000103381
-2.79811e-08
0.000103401
-4.88369e-08
0.00010342
-7.00864e-08
0.000103439
-9.16428e-08
0.000103457
-1.13364e-07
-1.34997e-07
0.000103473
0.000105869
1.35514e-08
0.000105869
3.92791e-08
0.000105869
6.36407e-08
0.000105871
8.66797e-08
0.000105875
1.07954e-07
0.000105881
1.26861e-07
0.00010589
1.42841e-07
0.000105902
1.55533e-07
0.000105916
1.64793e-07
0.000105932
1.70653e-07
0.00010595
1.73278e-07
0.000105969
1.72915e-07
0.000105989
1.69853e-07
0.00010601
1.64393e-07
0.000106031
1.56825e-07
0.000106053
1.47421e-07
0.000106076
1.3642e-07
0.000106098
1.24035e-07
0.000106121
1.10446e-07
0.000106143
9.58049e-08
0.000106165
8.02407e-08
0.000106187
6.38593e-08
0.000106209
4.6749e-08
0.00010623
2.89836e-08
0.000106251
1.06254e-08
0.000106272
-8.27108e-09
0.000106292
-2.76563e-08
0.000106312
-4.74815e-08
0.00010633
-6.76944e-08
0.000106349
-8.82307e-08
0.000106366
-1.09e-07
0.000106382
-1.29858e-07
-1.50553e-07
0.000106398
0.000108894
1.33287e-08
0.000108894
3.87844e-08
0.000108895
6.24532e-08
0.000108898
8.41829e-08
0.000108902
1.036e-07
0.000108909
1.20292e-07
0.000108918
1.33922e-07
0.000108929
1.44307e-07
0.000108942
1.51426e-07
0.000108958
1.55386e-07
0.000108974
1.56386e-07
0.000108993
1.54675e-07
0.000109012
1.5053e-07
0.000109032
1.44227e-07
0.000109053
1.3603e-07
0.000109074
1.26181e-07
0.000109096
1.14895e-07
0.000109117
1.02359e-07
0.000109139
8.87349e-08
0.000109161
7.41597e-08
0.000109182
5.87487e-08
0.000109203
4.25988e-08
0.000109224
2.57917e-08
0.000109245
8.39645e-09
0.000109265
-9.52682e-09
0.000109285
-2.79249e-08
0.000109304
-4.6748e-08
0.000109322
-6.59468e-08
0.00010934
-8.54676e-08
0.000109357
-1.05245e-07
0.000109373
-1.25188e-07
0.000109389
-1.45153e-07
-1.64892e-07
0.000109403
0.000112005
1.30433e-08
0.000112005
3.81077e-08
0.000112007
6.10771e-08
0.000112009
8.15915e-08
0.000112014
9.93181e-08
0.00011202
1.13995e-07
0.000112028
1.25464e-07
0.000112039
1.33702e-07
0.000112052
1.38802e-07
0.000112066
1.40944e-07
0.000112082
1.40364e-07
0.0001121
1.37325e-07
0.000112118
1.32096e-07
0.000112137
1.24938e-07
0.000112157
1.16093e-07
0.000112178
1.05779e-07
0.000112198
9.41888e-08
0.000112219
8.14897e-08
0.00011224
6.78251e-08
0.000112261
5.3317e-08
0.000112282
3.80685e-08
0.000112302
2.2167e-08
0.000112322
5.68687e-09
0.000112342
-1.13079e-08
0.000112361
-2.8761e-08
0.00011238
-4.66214e-08
0.000112398
-6.4841e-08
0.000112415
-8.33712e-08
0.000112432
-1.02159e-07
0.000112448
-1.2114e-07
0.000112463
-1.40225e-07
0.000112477
-1.59274e-07
-1.78047e-07
0.00011249
0.000115205
1.28142e-08
0.000115205
3.75902e-08
0.000115206
5.99953e-08
0.000115208
7.94479e-08
0.000115212
9.56431e-08
0.000115218
1.08453e-07
0.000115225
1.17887e-07
0.000115235
1.24069e-07
0.000115246
1.27209e-07
0.00011526
1.27562e-07
0.000115275
1.25407e-07
0.000115291
1.21026e-07
0.000115309
1.14687e-07
0.000115327
1.06641e-07
0.000115346
9.71125e-08
0.000115365
8.63004e-08
0.000115385
7.43777e-08
0.000115405
6.1493e-08
0.000115425
4.77731e-08
0.000115445
3.33252e-08
0.000115465
1.82406e-08
0.000115485
2.59661e-09
0.000115504
-1.35403e-08
0.000115523
-3.01123e-08
0.000115541
-4.70679e-08
0.000115559
-6.43597e-08
0.000115576
-8.19426e-08
0.000115592
-9.97706e-08
0.000115608
-1.17793e-07
0.000115623
-1.35949e-07
0.000115636
-1.54152e-07
0.000115649
-1.72267e-07
-1.90066e-07
0.000115661
0.000118496
1.27591e-08
0.000118496
3.75845e-08
0.000118496
5.97235e-08
0.000118497
7.83476e-08
0.0001185
9.31826e-08
0.000118504
1.04243e-07
0.00011851
1.11708e-07
0.000118518
1.1586e-07
0.000118529
1.17031e-07
0.000118541
1.15563e-07
0.000118554
1.11784e-07
0.000118569
1.05999e-07
0.000118585
9.84853e-08
0.000118603
8.94849e-08
0.00011862
7.92101e-08
0.000118639
6.78432e-08
0.000118658
5.5539e-08
0.000118677
4.24289e-08
0.000118696
2.86233e-08
0.000118715
1.42152e-08
0.000118734
-7.16534e-10
0.000118753
-1.61053e-08
0.000118771
-3.18933e-08
0.000118789
-4.80301e-08
0.000118806
-6.44702e-08
0.000118823
-8.11716e-08
0.000118839
-9.80932e-08
0.000118855
-1.15193e-07
0.000118869
-1.32426e-07
0.000118883
-1.49733e-07
0.000118896
-1.67036e-07
0.000118908
-1.84206e-07
-2.01025e-07
0.000118919
0.000121881
1.30164e-08
0.00012188
3.85095e-08
0.000121879
6.08782e-08
0.000121878
7.90056e-08
0.000121879
9.26726e-08
0.000121881
1.02068e-07
0.000121885
1.07568e-07
0.000121891
1.09639e-07
0.0001219
1.08754e-07
0.00012191
1.05354e-07
0.000121922
9.98288e-08
0.000121935
9.25162e-08
0.00012195
8.37042e-08
0.000121966
7.36345e-08
0.000121983
6.25089e-08
0.000122
5.04946e-08
0.000122018
3.77298e-08
0.000122036
2.43288e-08
0.000122054
1.03855e-08
0.000122072
-4.02175e-09
0.00012209
-1.88278e-08
0.000122108
-3.39775e-08
0.000122126
-4.94233e-08
0.000122143
-6.51234e-08
0.00012216
-8.104e-08
0.000122175
-9.71374e-08
0.000122191
-1.13381e-07
0.000122205
-1.29735e-07
0.000122219
-1.46158e-07
0.000122232
-1.626e-07
0.000122244
-1.78987e-07
0.000122255
-1.95203e-07
-2.1104e-07
0.000122265
0.000125363
1.37743e-08
0.00012536
4.09287e-08
0.000125357
6.42761e-08
0.000125354
8.23547e-08
0.000125351
9.5061e-08
0.00012535
1.02825e-07
0.000125352
1.06275e-07
0.000125355
1.06104e-07
0.000125361
1.02963e-07
0.000125369
9.74111e-08
0.000125379
8.99168e-08
0.000125391
8.08614e-08
0.000125404
7.05513e-08
0.000125418
5.92307e-08
0.000125433
4.70933e-08
0.00012545
3.42924e-08
0.000125466
2.09493e-08
0.000125484
7.15993e-09
0.000125501
-6.999e-09
0.000125518
-2.1466e-08
0.000125536
-3.61909e-08
0.000125553
-5.11322e-08
0.00012557
-6.62542e-08
0.000125586
-8.1526e-08
0.000125602
-9.6919e-08
0.000125617
-1.12406e-07
0.000125632
-1.27961e-07
0.000125646
-1.43554e-07
0.000125659
-1.59152e-07
0.000125671
-1.74713e-07
0.000125682
-1.90172e-07
0.000125692
-2.05422e-07
-2.20271e-07
0.000125702
0.000128944
1.53198e-08
0.000128939
4.56767e-08
0.000128932
7.10875e-08
0.000128925
8.96903e-08
0.000128918
1.01626e-07
0.000128913
1.07684e-07
0.000128911
1.08843e-07
0.000128911
1.06098e-07
0.000128913
1.00326e-07
0.000128918
9.22426e-08
0.000128926
8.24144e-08
0.000128936
7.12782e-08
0.000128947
5.91664e-08
0.00012896
4.63281e-08
0.000128974
3.29492e-08
0.000128989
1.91674e-08
0.000129005
5.08445e-09
0.000129021
-9.22444e-09
0.000129038
-2.37033e-08
0.000129055
-3.83106e-08
0.000129072
-5.3014e-08
0.000129088
-6.77886e-08
0.000129105
-8.26136e-08
0.000129121
-9.7471e-08
0.000129136
-1.12344e-07
0.000129151
-1.27217e-07
0.000129165
-1.42072e-07
0.000129178
-1.5689e-07
0.000129191
-1.71647e-07
0.000129202
-1.86309e-07
0.000129213
-2.00822e-07
0.000129223
-2.15092e-07
-2.28943e-07
0.000129231
0.000132626
1.81316e-08
0.000132618
5.40787e-08
0.000132606
8.30823e-08
0.000132593
1.02884e-07
0.00013258
1.14133e-07
0.00013257
1.18183e-07
0.000132562
1.16526e-07
0.000132557
1.10584e-07
0.000132556
1.0154e-07
0.000132558
9.03107e-08
0.000132563
7.7585e-08
0.00013257
6.38689e-08
0.00013258
4.95236e-08
0.000132592
3.48017e-08
0.000132605
1.98761e-08
0.000132619
4.86314e-09
0.000132634
-1.01614e-08
0.00013265
-2.51492e-08
0.000132667
-4.00714e-08
0.000132683
-5.4911e-08
0.0001327
-6.96592e-08
0.000132716
-8.43114e-08
0.000132733
-9.88656e-08
0.000132748
-1.1332e-07
0.000132764
-1.27673e-07
0.000132778
-1.41922e-07
0.000132792
-1.56061e-07
0.000132806
-1.70082e-07
0.000132818
-1.83972e-07
0.000132829
-1.97708e-07
0.00013284
-2.11249e-07
0.000132849
-2.24514e-07
-2.37347e-07
0.000132858
0.000136413
2.30648e-08
0.000136399
6.83481e-08
0.000136379
1.03029e-07
0.000136357
1.24693e-07
0.000136336
1.35022e-07
0.000136318
1.36293e-07
0.000136304
1.30787e-07
0.000136294
1.20553e-07
0.000136288
1.07191e-07
0.000136287
9.18691e-08
0.000136289
7.54251e-08
0.000136294
5.84366e-08
0.000136303
4.12861e-08
0.000136313
2.42162e-08
0.000136326
7.37293e-09
0.00013634
-9.16291e-09
0.000136355
-2.53541e-08
0.000136371
-4.1191e-08
0.000136388
-5.66807e-08
0.000136405
-7.18397e-08
0.000136422
-8.66889e-08
0.000136439
-1.0125e-07
0.000136455
-1.15546e-07
0.000136472
-1.29593e-07
0.000136487
-1.4341e-07
0.000136502
-1.57009e-07
0.000136517
-1.70398e-07
0.00013653
-1.83585e-07
0.000136543
-1.96566e-07
0.000136554
-2.09334e-07
0.000136565
-2.21859e-07
0.000136575
-2.34079e-07
-2.45855e-07
0.000136583
0.000140307
3.17388e-08
0.000140283
9.23202e-08
0.000140251
1.35335e-07
0.000140216
1.59161e-07
0.000140184
1.67568e-07
0.000140156
1.6437e-07
0.000140133
1.53106e-07
0.000140117
1.36754e-07
0.000140107
1.1746e-07
0.000140102
9.6684e-08
0.000140102
7.54094e-08
0.000140106
5.42628e-08
0.000140114
3.36153e-08
0.000140125
1.36661e-08
0.000140137
-5.49569e-09
0.000140152
-2.38509e-08
0.000140168
-4.14219e-08
0.000140185
-5.8255e-08
0.000140203
-7.44074e-08
0.000140221
-8.994e-08
0.000140239
-1.04912e-07
0.000140257
-1.1938e-07
0.000140275
-1.33394e-07
0.000140293
-1.46998e-07
0.000140309
-1.6023e-07
0.000140326
-1.73123e-07
0.000140341
-1.85702e-07
0.000140355
-1.97987e-07
0.000140369
-2.09993e-07
0.000140381
-2.21723e-07
0.000140392
-2.33166e-07
0.000140403
-2.44275e-07
-2.54933e-07
0.000140412
0.000144309
4.74035e-08
0.000144268
1.32803e-07
0.000144217
1.86996e-07
0.000144164
2.12052e-07
0.000144116
2.15862e-07
0.000144075
2.04815e-07
0.000144044
1.84486e-07
0.000144021
1.59175e-07
0.000144007
1.31646e-07
0.000144
1.03617e-07
0.000144
7.61447e-08
0.000144004
4.98276e-08
0.000144013
2.4948e-08
0.000144025
1.59759e-09
0.000144039
-2.02431e-08
0.000144056
-4.06551e-08
0.000144075
-5.97513e-08
0.000144094
-7.76564e-08
0.000144114
-9.44955e-08
0.000144134
-1.10387e-07
0.000144155
-1.25439e-07
0.000144175
-1.39748e-07
0.000144195
-1.53401e-07
0.000144215
-1.6647e-07
0.000144234
-1.7902e-07
0.000144252
-1.91104e-07
0.000144269
-2.02767e-07
0.000144285
-2.14046e-07
0.0001443
-2.2497e-07
0.000144314
-2.35558e-07
0.000144326
-2.45814e-07
0.000144338
-2.55714e-07
-2.65163e-07
0.000144348
0.000148418
7.69951e-08
0.000148349
2.02004e-07
0.000148267
2.68804e-07
0.000148188
2.90983e-07
0.00014812
2.84236e-07
0.000148066
2.59148e-07
0.000148026
2.24482e-07
0.000147999
1.86186e-07
0.000147983
1.47479e-07
0.000147976
1.10093e-07
0.000147978
7.49668e-08
0.000147985
4.25009e-08
0.000147997
1.27552e-08
0.000148013
-1.43865e-08
0.000148032
-3.9122e-08
0.000148053
-6.16838e-08
0.000148076
-8.23109e-08
0.000148099
-1.01233e-07
0.000148123
-1.1866e-07
0.000148148
-1.34783e-07
0.000148172
-1.49768e-07
0.000148196
-1.6376e-07
0.00014822
-1.76885e-07
0.000148242
-1.89249e-07
0.000148264
-2.00946e-07
0.000148285
-2.12052e-07
0.000148305
-2.22632e-07
0.000148324
-2.32741e-07
0.000148341
-2.42425e-07
0.000148357
-2.51716e-07
0.000148372
-2.60638e-07
0.000148386
-2.69184e-07
-2.77288e-07
0.000148398
0.000152631
1.35588e-07
0.00015251
3.22041e-07
0.000152383
3.96633e-07
0.000152269
4.04572e-07
0.000152178
3.75471e-07
0.000152111
3.26087e-07
0.000152066
2.69596e-07
0.000152039
2.13363e-07
0.000152026
1.60271e-07
0.000152024
1.11489e-07
0.000152032
6.74766e-08
0.000152046
2.81713e-08
0.000152066
-6.77503e-09
0.000152089
-3.781e-08
0.000152115
-6.53897e-08
0.000152144
-8.99502e-08
0.000152173
-1.11892e-07
0.000152204
-1.31575e-07
0.000152234
-1.49312e-07
0.000152265
-1.65374e-07
0.000152295
-1.79996e-07
0.000152325
-1.93375e-07
0.000152354
-2.05681e-07
0.000152381
-2.17059e-07
0.000152408
-2.27627e-07
0.000152433
-2.37491e-07
0.000152458
-2.46734e-07
0.00015248
-2.55429e-07
0.000152501
-2.63638e-07
0.000152521
-2.71408e-07
0.000152539
-2.78778e-07
0.000152556
-2.85764e-07
-2.92326e-07
0.000152571
0.000156933
2.53726e-07
0.000156722
5.33642e-07
0.000156525
5.92987e-07
0.00015637
5.60132e-07
0.000156258
4.87323e-07
0.000156186
3.98358e-07
0.000156144
3.10936e-07
0.000156126
2.31831e-07
0.000156124
1.61668e-07
0.000156136
1.00098e-07
0.000156157
4.66289e-08
0.000156184
4.13443e-10
0.000156217
-3.95175e-08
0.000156253
-7.40637e-08
0.000156292
-1.04009e-07
0.000156332
-1.30035e-07
0.000156373
-1.52734e-07
0.000156414
-1.72613e-07
0.000156455
-1.901e-07
0.000156495
-2.05556e-07
0.000156534
-2.19287e-07
0.000156572
-2.31547e-07
0.000156609
-2.42551e-07
0.000156645
-2.52479e-07
0.000156679
-2.61483e-07
0.000156711
-2.69688e-07
0.000156741
-2.77202e-07
0.00015677
-2.84112e-07
0.000156797
-2.90495e-07
0.000156822
-2.96411e-07
0.000156845
-3.01913e-07
0.000156866
-3.07037e-07
-3.11776e-07
0.000156886
0.00016129
5.01955e-07
0.000160918
9.05997e-07
0.000160629
8.8192e-07
0.000160431
7.5834e-07
0.00016031
6.07869e-07
0.00016025
4.58904e-07
0.000160229
3.31419e-07
0.000160235
2.25924e-07
0.000160259
1.37314e-07
0.000160297
6.2672e-08
0.000160343
1.843e-10
0.000160396
-5.20861e-08
0.000160452
-9.5944e-08
0.000160511
-1.32849e-07
0.000160571
-1.63964e-07
0.000160631
-1.90257e-07
0.000160691
-2.12536e-07
0.00016075
-2.31473e-07
0.000160807
-2.47619e-07
0.000160863
-2.61434e-07
0.000160917
-2.73293e-07
0.000160969
-2.83511e-07
0.000161019
-2.92346e-07
0.000161067
-3.00013e-07
0.000161112
-3.0669e-07
0.000161155
-3.12526e-07
0.000161195
-3.17643e-07
0.000161233
-3.22143e-07
0.000161269
-3.26113e-07
0.000161302
-3.29622e-07
0.000161333
-3.32728e-07
0.000161361
-3.35477e-07
-3.37892e-07
0.000161387
0.000165509
1.14655e-06
0.000164895
1.52005e-06
0.000164545
1.23187e-06
0.000164347
9.56589e-07
0.000164263
6.91715e-07
0.000164255
4.66427e-07
0.00016429
2.96883e-07
0.000164349
1.66517e-07
0.000164426
6.11302e-08
0.000164513
-2.47073e-08
0.000164607
-9.40935e-08
0.000164705
-1.5015e-07
0.000164805
-1.95589e-07
0.000164904
-2.32458e-07
0.000165003
-2.62334e-07
0.000165099
-2.86509e-07
0.000165193
-3.06048e-07
0.000165283
-3.21812e-07
0.00016537
-3.34495e-07
0.000165453
-3.4466e-07
0.000165533
-3.52761e-07
0.000165608
-3.59169e-07
0.00016568
-3.64185e-07