/*--------------------------------*- C++ -*----------------------------------*\
| =========                 |                                                 |
| \\      /  F ield         | OpenFOAM: The Open Source CFD Toolbox           |
|  \\    /   O peration     | Version:  4.1                                   |
|   \\  /    A nd           | Web:      www.OpenFOAM.org                      |
|    \\/     M anipulation  |                                                 |
\*---------------------------------------------------------------------------*/
FoamFile
{
    version     2.0;
    format      ascii;
    class       volVectorField;
    location    "400";
    object      U;
}
// * * * * * * * * * * * * * * * * * * * * * * * * * * * * * * * * * * * * * //

dimensions      [0 1 -1 0 0 0 0];

internalField   nonuniform List<vector> 
6820
(
(7.12051 -2.89958 0)
(7.72183 -2.2784 0)
(7.93533 -1.28315 0)
(7.87966 -0.658573 0)
(7.73242 -0.320716 0)
(7.56991 -0.148383 0)
(7.41038 -0.0617121 0)
(7.26141 -0.0176919 0)
(7.1268 0.00477073 0)
(7.00637 0.0159747 0)
(6.89826 0.0211775 0)
(6.80071 0.0231634 0)
(6.71237 0.0234271 0)
(6.63209 0.022779 0)
(6.55888 0.0216685 0)
(6.49188 0.0203488 0)
(6.4304 0.0189629 0)
(6.37386 0.0175893 0)
(6.32175 0.0162694 0)
(6.27365 0.0150233 0)
(6.22917 0.0138587 0)
(6.188 0.0127759 0)
(6.14986 0.0117715 0)
(6.1145 0.0108399 0)
(6.08171 0.00997514 0)
(6.05128 0.00917101 0)
(6.02306 0.00842328 0)
(5.99686 0.0077269 0)
(5.97256 0.00709526 0)
(5.94984 0.00649529 0)
(5.92895 0.00608085 0)
(5.90751 0.00560857 0)
(5.89346 0.00402007 0)
(7.59884 0.654126 0)
(7.43305 0.777605 0)
(7.36114 0.527744 0)
(7.34936 0.342752 0)
(7.39539 0.23435 0)
(7.45306 0.166621 0)
(7.49524 0.123302 0)
(7.51901 0.0959382 0)
(7.5293 0.0783119 0)
(7.53006 0.0664093 0)
(7.52375 0.0580125 0)
(7.51233 0.0518891 0)
(7.49739 0.0472758 0)
(7.48008 0.0436734 0)
(7.46117 0.0407602 0)
(7.44124 0.038331 0)
(7.4207 0.036251 0)
(7.39988 0.0344286 0)
(7.37899 0.0328004 0)
(7.35822 0.031322 0)
(7.33769 0.0299616 0)
(7.31752 0.0286957 0)
(7.29776 0.0275066 0)
(7.27848 0.0263809 0)
(7.25973 0.0253082 0)
(7.24153 0.0242809 0)
(7.22391 0.0232952 0)
(7.20688 0.0223484 0)
(7.1905 0.0214569 0)
(7.17466 0.0205999 0)
(7.15978 0.0199829 0)
(7.14494 0.0191175 0)
(7.13375 0.020722 0)
(7.25567 -0.0497325 0)
(7.16458 -0.0746298 0)
(7.20134 -0.0871927 0)
(7.24041 -0.0572121 0)
(7.27484 -0.0216799 0)
(7.31099 0.0019098 0)
(7.34272 0.01656 0)
(7.36763 0.0263595 0)
(7.38712 0.032843 0)
(7.4023 0.0367905 0)
(7.41367 0.0389686 0)
(7.42179 0.0400082 0)
(7.42727 0.0403155 0)
(7.43066 0.0401374 0)
(7.43235 0.0396378 0)
(7.43265 0.0389311 0)
(7.43183 0.0380946 0)
(7.43012 0.0371789 0)
(7.42768 0.0362172 0)
(7.42468 0.0352314 0)
(7.42123 0.0342359 0)
(7.41743 0.0332395 0)
(7.41337 0.0322475 0)
(7.40913 0.0312624 0)
(7.40477 0.0302859 0)
(7.40035 0.0293184 0)
(7.39591 0.0283624 0)
(7.3915 0.027418 0)
(7.38716 0.0265035 0)
(7.3829 0.0256016 0)
(7.37889 0.0248462 0)
(7.37488 0.0239958 0)
(7.3719 0.0240559 0)
(7.29108 -0.0915109 0)
(7.22275 -0.0639445 0)
(7.23476 -0.0294951 0)
(7.25086 -0.00396309 0)
(7.26448 0.0155528 0)
(7.28284 0.0269273 0)
(7.30156 0.0328221 0)
(7.31787 0.0362544 0)
(7.33221 0.0383504 0)
(7.34492 0.0394427 0)
(7.35595 0.0398363 0)
(7.36532 0.0398066 0)
(7.37325 0.0395168 0)
(7.37993 0.0390507 0)
(7.38554 0.038462 0)
(7.39022 0.0377907 0)
(7.3941 0.0370641 0)
(7.3973 0.0362995 0)
(7.39993 0.0355082 0)
(7.40208 0.0346977 0)
(7.40382 0.0338727 0)
(7.40523 0.0330359 0)
(7.40636 0.0321886 0)
(7.40727 0.031331 0)
(7.408 0.0304629 0)
(7.4086 0.0295841 0)
(7.40911 0.0286958 0)
(7.40957 0.0277983 0)
(7.41001 0.0269028 0)
(7.41047 0.0260018 0)
(7.41104 0.0251642 0)
(7.41167 0.0242592 0)
(7.41279 0.0237147 0)
(7.31214 -0.0522602 0)
(7.26646 -0.0334888 0)
(7.26327 -0.0148715 0)
(7.26627 -0.00269518 0)
(7.27147 0.0100656 0)
(7.28208 0.0194804 0)
(7.2941 0.0251486 0)
(7.30514 0.0289083 0)
(7.31535 0.031614 0)
(7.3249 0.0334411 0)
(7.33364 0.0345707 0)
(7.34152 0.0352152 0)
(7.34859 0.0355196 0)
(7.35495 0.0355684 0)
(7.36066 0.0354216 0)
(7.3658 0.0351268 0)
(7.37043 0.0347195 0)
(7.37462 0.0342247 0)
(7.37842 0.0336605 0)
(7.38188 0.0330402 0)
(7.38506 0.032373 0)
(7.388 0.0316656 0)
(7.39073 0.030922 0)
(7.39329 0.030145 0)
(7.39572 0.029336 0)
(7.39805 0.0284959 0)
(7.40031 0.0276257 0)
(7.40252 0.0267259 0)
(7.40472 0.0258016 0)
(7.40695 0.024848 0)
(7.40927 0.0238915 0)
(7.41169 0.0228664 0)
(7.41443 0.0219209 0)
(7.32016 -0.0320562 0)
(7.28759 -0.0252652 0)
(7.28071 -0.014133 0)
(7.27979 -0.00461393 0)
(7.282 0.00642157 0)
(7.28866 0.0152317 0)
(7.29682 0.0209808 0)
(7.30466 0.024964 0)
(7.31215 0.0278905 0)
(7.31937 0.0299414 0)
(7.32617 0.0312936 0)
(7.3325 0.0321468 0)
(7.33836 0.0326414 0)
(7.3438 0.0328634 0)
(7.34885 0.0328742 0)
(7.35354 0.0327218 0)
(7.35791 0.0324419 0)
(7.36201 0.0320602 0)
(7.36585 0.0315951 0)
(7.36947 0.0310603 0)
(7.3729 0.0304653 0)
(7.37618 0.0298167 0)
(7.37931 0.029119 0)
(7.38234 0.0283744 0)
(7.38528 0.0275843 0)
(7.38816 0.0267488 0)
(7.391 0.0258674 0)
(7.39382 0.0249388 0)
(7.39666 0.0239627 0)
(7.39953 0.0229322 0)
(7.4025 0.0218504 0)
(7.40559 0.0206753 0)
(7.40891 0.0194386 0)
(7.32441 -0.0221773 0)
(7.30055 -0.0208677 0)
(7.29312 -0.0128784 0)
(7.29075 -0.00460291 0)
(7.29145 0.0048605 0)
(7.29577 0.0127266 0)
(7.30158 0.0182021 0)
(7.30746 0.0221234 0)
(7.31326 0.0250372 0)
(7.31896 0.0271276 0)
(7.32444 0.028561 0)
(7.32963 0.0295117 0)
(7.33453 0.030106 0)
(7.33917 0.0304255 0)
(7.34355 0.030529 0)
(7.34771 0.0304622 0)
(7.35165 0.0302593 0)
(7.35541 0.0299451 0)
(7.359 0.0295378 0)
(7.36245 0.0290507 0)
(7.36578 0.0284931 0)
(7.369 0.0278715 0)
(7.37213 0.0271899 0)
(7.3752 0.0264505 0)
(7.37822 0.0256538 0)
(7.3812 0.0247991 0)
(7.38417 0.0238845 0)
(7.38715 0.0229065 0)
(7.39016 0.0218606 0)
(7.39322 0.0207367 0)
(7.39636 0.0195252 0)
(7.39962 0.0181916 0)
(7.40306 0.0167211 0)
(7.32735 -0.0154056 0)
(7.30977 -0.016298 0)
(7.30247 -0.0106709 0)
(7.29937 -0.00386618 0)
(7.29916 0.00404796 0)
(7.30199 0.0109345 0)
(7.30627 0.0160285 0)
(7.31086 0.0198045 0)
(7.31555 0.0226526 0)
(7.32025 0.0247387 0)
(7.32483 0.0262109 0)
(7.32923 0.0272182 0)
(7.33345 0.0278728 0)
(7.33748 0.0282514 0)
(7.34134 0.0284106 0)
(7.34505 0.028394 0)
(7.3486 0.0282344 0)
(7.35203 0.0279563 0)
(7.35534 0.0275772 0)
(7.35856 0.0271103 0)
(7.36169 0.0265647 0)
(7.36475 0.0259467 0)
(7.36776 0.0252599 0)
(7.37073 0.0245061 0)
(7.37367 0.023685 0)
(7.3766 0.0227951 0)
(7.37953 0.021833 0)
(7.38248 0.0207933 0)
(7.38546 0.0196683 0)
(7.3885 0.0184457 0)
(7.39162 0.0171091 0)
(7.39484 0.0156277 0)
(7.39818 0.0139721 0)
(7.32939 -0.0103324 0)
(7.31653 -0.0121102 0)
(7.30972 -0.00835771 0)
(7.30629 -0.00294378 0)
(7.30551 0.00361973 0)
(7.30732 0.00960361 0)
(7.3105 0.0142775 0)
(7.31418 0.0178608 0)
(7.31807 0.0206095 0)
(7.32204 0.0226598 0)
(7.32598 0.0241387 0)
(7.32982 0.0251724 0)
(7.33353 0.0258598 0)
(7.33712 0.0262723 0)
(7.34058 0.0264636 0)
(7.34393 0.0264752 0)
(7.34717 0.0263387 0)
(7.35032 0.0260777 0)
(7.35339 0.0257095 0)
(7.35639 0.0252468 0)
(7.35933 0.0246985 0)
(7.36222 0.0240706 0)
(7.36507 0.0233664 0)
(7.36791 0.0225871 0)
(7.37072 0.0217319 0)
(7.37354 0.0207984 0)
(7.37637 0.019782 0)
(7.37922 0.018676 0)
(7.3821 0.0174707 0)
(7.38504 0.0161522 0)
(7.38804 0.0147022 0)
(7.39112 0.0130927 0)
(7.39428 0.0112937 0)
(7.33074 -0.00671353 0)
(7.32149 -0.00863816 0)
(7.31545 -0.00617257 0)
(7.31201 -0.00191451 0)
(7.31086 0.0034906 0)
(7.31193 0.00864334 0)
(7.3143 0.0128693 0)
(7.31726 0.0162163 0)
(7.32053 0.0188312 0)
(7.32395 0.0208155 0)
(7.32739 0.0222731 0)
(7.33079 0.0233087 0)
(7.33412 0.0240082 0)
(7.33736 0.0244365 0)
(7.34051 0.0246437 0)
(7.34358 0.0246691 0)
(7.34658 0.0245426 0)
(7.3495 0.0242869 0)
(7.35236 0.0239188 0)
(7.35517 0.0234506 0)
(7.35794 0.0228909 0)
(7.36067 0.0222453 0)
(7.36338 0.0215167 0)
(7.36607 0.020706 0)
(7.36876 0.0198119 0)
(7.37145 0.0188313 0)
(7.37415 0.0177589 0)
(7.37688 0.0165871 0)
(7.37963 0.0153053 0)
(7.38243 0.0138994 0)
(7.38528 0.012351 0)
(7.38817 0.0106361 0)
(7.39113 0.00872973 0)
(7.33161 -0.00421583 0)
(7.32509 -0.00585506 0)
(7.31999 -0.0041803 0)
(7.31676 -0.000835898 0)
(7.31543 0.00358284 0)
(7.31597 0.00797532 0)
(7.31771 0.0117409 0)
(7.32011 0.0148174 0)
(7.32287 0.0172684 0)
(7.32583 0.0191598 0)
(7.32887 0.0205716 0)
(7.33191 0.0215882 0)
(7.33492 0.0222822 0)
(7.33788 0.0227116 0)
(7.34079 0.0229222 0)
(7.34363 0.0229504 0)
(7.34641 0.0228244 0)
(7.34915 0.0225657 0)
(7.35183 0.0221904 0)
(7.35448 0.0217103 0)
(7.3571 0.0211336 0)
(7.35969 0.0204656 0)
(7.36226 0.0197089 0)
(7.36482 0.0188642 0)
(7.36738 0.0179296 0)
(7.36995 0.0169018 0)
(7.37252 0.015775 0)
(7.37511 0.0145412 0)
(7.37773 0.0131899 0)
(7.38037 0.0117076 0)
(7.38305 0.0100777 0)
(7.38576 0.00828003 0)
(7.38849 0.00629689 0)
(7.33217 -0.00251646 0)
(7.32766 -0.003674 0)
(7.32355 -0.0024371 0)
(7.3207 0.000216748 0)
(7.31934 0.0038172 0)
(7.31952 0.00752997 0)
(7.32079 0.0108409 0)
(7.32272 0.0136263 0)
(7.32506 0.0158895 0)
(7.32763 0.0176649 0)
(7.33033 0.0190091 0)
(7.33307 0.0199876 0)
(7.33581 0.0206604 0)
(7.33854 0.0210778 0)
(7.34122 0.0212808 0)
(7.34387 0.0213026 0)
(7.34648 0.0211692 0)
(7.34905 0.0209009 0)
(7.35159 0.0205129 0)
(7.35409 0.0200164 0)
(7.35657 0.0194192 0)
(7.35904 0.0187262 0)
(7.36148 0.0179398 0)
(7.36392 0.0170603 0)
(7.36636 0.0160858 0)
(7.3688 0.0150127 0)
(7.37125 0.0138351 0)
(7.37371 0.0125454 0)
(7.37618 0.0111334 0)
(7.37867 0.00958711 0)
(7.38118 0.00789202 0)
(7.38369 0.00603275 0)
(7.38621 0.00399859 0)
(7.33251 -0.0013766 0)
(7.32946 -0.00201088 0)
(7.32629 -0.000979763 0)
(7.3239 0.00117739 0)
(7.32265 0.00412186 0)
(7.32262 0.00724455 0)
(7.32354 0.0101238 0)
(7.3251 0.0126107 0)
(7.32708 0.0146702 0)
(7.32933 0.0163109 0)
(7.33173 0.0175687 0)
(7.33421 0.0184923 0)
(7.33672 0.0191294 0)
(7.33923 0.0195227 0)
(7.34173 0.019708 0)
(7.34421 0.019715 0)
(7.34666 0.0195675 0)
(7.34909 0.0192841 0)
(7.35149 0.0188791 0)
(7.35387 0.0183629 0)
(7.35623 0.0177427 0)
(7.35857 0.0170233 0)
(7.3609 0.0162067 0)
(7.36323 0.0152931 0)
(7.36555 0.0142806 0)
(7.36787 0.0131654 0)
(7.37019 0.0119422 0)
(7.37252 0.0106036 0)
(7.37485 0.00914061 0)
(7.37719 0.00754265 0)
(7.37953 0.0057981 0)
(7.38186 0.00389591 0)
(7.38418 0.00183193 0)
(7.33272 -0.000625584 0)
(7.3307 -0.000780035 0)
(7.32835 0.000185202 0)
(7.32646 0.00200054 0)
(7.32539 0.00443595 0)
(7.32528 0.00706158 0)
(7.32597 0.00954585 0)
(7.32725 0.0117398 0)
(7.32894 0.013588 0)
(7.33091 0.0150808 0)
(7.33305 0.0162372 0)
(7.3353 0.0170912 0)
(7.3376 0.0176799 0)
(7.33993 0.0180381 0)
(7.34226 0.0181965 0)
(7.34458 0.0181812 0)
(7.34689 0.0180134 0)
(7.34918 0.0177101 0)
(7.35146 0.0172843 0)
(7.35372 0.0167457 0)
(7.35597 0.0161011 0)
(7.3582 0.0153546 0)
(7.36042 0.0145083 0)
(7.36263 0.0135621 0)
(7.36484 0.0125144 0)
(7.36705 0.0113614 0)
(7.36925 0.0100983 0)
(7.37144 0.00871851 0)
(7.37364 0.0072142 0)
(7.37583 0.00557664 0)
(7.37801 0.00379689 0)
(7.38017 0.00186803 0)
(7.3823 -0.000208465 0)
(7.33285 -0.00014078 0)
(7.33154 0.000102944 0)
(7.32986 0.00107548 0)
(7.32845 0.00266233 0)
(7.32762 0.00471249 0)
(7.32751 0.0069306 0)
(7.32807 0.00906534 0)
(7.32914 0.0109827 0)
(7.3306 0.0126206 0)
(7.33234 0.0139583 0)
(7.33426 0.0150025 0)
(7.3363 0.0157754 0)
(7.33842 0.0163046 0)
(7.34058 0.016618 0)
(7.34275 0.0167412 0)
(7.34494 0.0166967 0)
(7.34712 0.0165032 0)
(7.34929 0.0161756 0)
(7.35145 0.015726 0)
(7.3536 0.015163 0)
(7.35573 0.0144928 0)
(7.35786 0.0137194 0)
(7.35997 0.0128444 0)
(7.36208 0.011868 0)
(7.36418 0.0107883 0)
(7.36627 0.00960231 0)
(7.36835 0.00830553 0)
(7.37042 0.00689233 0)
(7.37248 0.00535621 0)
(7.37453 0.00369026 0)
(7.37655 0.00188813 0)
(7.37855 -5.35062e-05 0)
(7.3805 -0.00212855 0)
(7.33292 0.000164656 0)
(7.3321 0.000714755 0)
(7.33096 0.00172336 0)
(7.32996 0.00315792 0)
(7.32938 0.00492037 0)
(7.32934 0.00681106 0)
(7.32983 0.00864492 0)
(7.33076 0.0103096 0)
(7.33205 0.0117454 0)
(7.3336 0.0129268 0)
(7.33533 0.0138525 0)
(7.3372 0.0145358 0)
(7.33915 0.0149969 0)
(7.34115 0.0152573 0)
(7.34319 0.0153383 0)
(7.34524 0.0152586 0)
(7.3473 0.0150344 0)
(7.34935 0.0146791 0)
(7.3514 0.014203 0)
(7.35345 0.013614 0)
(7.35548 0.0129179 0)
(7.3575 0.012118 0)
(7.35952 0.011216 0)
(7.36152 0.0102118 0)
(7.36351 0.00910412 0)
(7.36549 0.00789012 0)
(7.36745 0.00656602 0)
(7.3694 0.00512714 0)
(7.37133 0.00356828 0)
(7.37324 0.00188426 0)
(7.37512 7.10726e-05 0)
(7.37695 -0.00187155 0)
(7.37875 -0.00393386 0)
(7.33296 0.000350862 0)
(7.33246 0.00112092 0)
(7.33173 0.00216782 0)
(7.33109 0.00349705 0)
(7.33073 0.00504398 0)
(7.33079 0.00667416 0)
(7.33126 0.00825392 0)
(7.33211 0.00969361 0)
(7.33327 0.0109407 0)
(7.33466 0.0119696 0)
(7.33624 0.0127748 0)
(7.33796 0.0133636 0)
(7.33976 0.0137503 0)
(7.34163 0.0139516 0)
(7.34353 0.0139845 0)
(7.34546 0.0138646 0)
(7.34741 0.0136058 0)
(7.34935 0.0132195 0)
(7.3513 0.012715 0)
(7.35324 0.0120991 0)
(7.35517 0.0113769 0)
(7.3571 0.0105516 0)
(7.35901 0.00962445 0)
(7.36091 0.00859568 0)
(7.36279 0.00746404 0)
(7.36466 0.00622724 0)
(7.36651 0.00488216 0)
(7.36834 0.00342506 0)
(7.37014 0.00185195 0)
(7.37191 0.000159249 0)
(7.37365 -0.00165504 0)
(7.37534 -0.00358866 0)
(7.37698 -0.0056291 0)
(7.33298 0.000458771 0)
(7.3327 0.00137505 0)
(7.33227 0.00244887 0)
(7.33189 0.00369892 0)
(7.33174 0.00508082 0)
(7.3319 0.00650311 0)
(7.33238 0.00787011 0)
(7.33318 0.00911263 0)
(7.33424 0.0101873 0)
(7.33552 0.0110713 0)
(7.33698 0.0117576 0)
(7.33856 0.01225 0)
(7.34023 0.0125586 0)
(7.34197 0.0126963 0)
(7.34376 0.0126767 0)
(7.34558 0.0125129 0)
(7.34741 0.0122163 0)
(7.34925 0.0117968 0)
(7.3511 0.0112624 0)
(7.35294 0.0106191 0)
(7.35477 0.00987138 0)
(7.3566 0.0090219 0)
(7.35841 0.00807205 0)
(7.36021 0.00702195 0)
(7.36199 0.00587064 0)
(7.36375 0.00461631 0)
(7.36549 0.00325647 0)
(7.3672 0.00178827 0)
(7.36888 0.000208816 0)
(7.37052 -0.00148408 0)
(7.37212 -0.00329073 0)
(7.37368 -0.00520689 0)
(7.37517 -0.00721802 0)
(7.33299 0.000515942 0)
(7.33285 0.00151974 0)
(7.33263 0.00260404 0)
(7.33246 0.00378771 0)
(7.33246 0.00503822 0)
(7.33271 0.00629188 0)
(7.33322 0.00748022 0)
(7.33398 0.00855103 0)
(7.33498 0.00947015 0)
(7.33617 0.0102187 0)
(7.33751 0.0107902 0)
(7.33898 0.0111867 0)
(7.34054 0.0114157 0)
(7.34217 0.0114873 0)
(7.34384 0.0114125 0)
(7.34555 0.0112019 0)
(7.34729 0.0108654 0)
(7.34903 0.0104112 0)
(7.35078 0.00984619 0)
(7.35252 0.00917555 0)
(7.35426 0.0084031 0)
(7.35599 0.00753128 0)
(7.3577 0.00656131 0)
(7.3594 0.00549339 0)
(7.36107 0.0043268 0)
(7.36273 0.00306016 0)
(7.36435 0.00169159 0)
(7.36595 0.000219002 0)
(7.36751 -0.00135949 0)
(7.36903 -0.00304495 0)
(7.3705 -0.00483631 0)
(7.37192 -0.00672781 0)
(7.37328 -0.0087035 0)
(7.333 0.000540845 0)
(7.33294 0.00158816 0)
(7.33286 0.00266665 0)
(7.33283 0.00378919 0)
(7.33295 0.00492996 0)
(7.33326 0.00604313 0)
(7.33379 0.00707942 0)
(7.33454 0.00800005 0)
(7.33548 0.00877917 0)
(7.33659 0.00940236 0)
(7.33784 0.00986455 0)
(7.33921 0.0101674 0)
(7.34066 0.010317 0)
(7.34219 0.0103214 0)
(7.34376 0.0101898 0)
(7.34537 0.00993099 0)
(7.34701 0.00955324 0)
(7.34865 0.00906355 0)
(7.3503 0.00846771 0)
(7.35195 0.00777024 0)
(7.3536 0.00697439 0)
(7.35523 0.0060823 0)
(7.35684 0.00509508 0)
(7.35844 0.00401297 0)
(7.36001 0.0028355 0)
(7.36156 0.00156167 0)
(7.36308 0.000190133 0)
(7.36456 -0.00128052 0)
(7.36601 -0.00285137 0)
(7.36741 -0.00452253 0)
(7.36876 -0.00629188 0)
(7.37005 -0.00815255 0)
(7.37128 -0.0100877 0)
(7.333 0.000545936 0)
(7.333 0.00160595 0)
(7.333 0.00266542 0)
(7.33307 0.00372871 0)
(7.33326 0.00477362 0)
(7.33361 0.00576596 0)
(7.33414 0.00667006 0)
(7.33486 0.00745765 0)
(7.33575 0.00811003 0)
(7.33679 0.0086171 0)
(7.33795 0.00897576 0)
(7.33923 0.00918808 0)
(7.34059 0.00925937 0)
(7.34202 0.0091967 0)
(7.3435 0.00900774 0)
(7.34501 0.00870006 0)
(7.34655 0.00828055 0)
(7.3481 0.00775519 0)
(7.34966 0.00712891 0)
(7.35121 0.00640556 0)
(7.35276 0.00558793 0)
(7.3543 0.00467787 0)
(7.35582 0.00367639 0)
(7.35731 0.00258378 0)
(7.35879 0.00139977 0)
(7.36023 0.000123679 0)
(7.36164 -0.00124538 0)
(7.36302 -0.00270824 0)
(7.36435 -0.00426535 0)
(7.36563 -0.00591608 0)
(7.36686 -0.00765753 0)
(7.36804 -0.00948207 0)
(7.36915 -0.0113724 0)
(7.333 0.00053981 0)
(7.33303 0.00159318 0)
(7.33307 0.00262498 0)
(7.33319 0.00363033 0)
(7.33341 0.00458878 0)
(7.33377 0.00547404 0)
(7.33429 0.00626034 0)
(7.33497 0.00692783 0)
(7.3358 0.00746395 0)
(7.33677 0.00786261 0)
(7.33785 0.00812294 0)
(7.33904 0.00824782 0)
(7.34031 0.00824247 0)
(7.34164 0.0081133 0)
(7.34303 0.0078671 0)
(7.34444 0.00751038 0)
(7.34589 0.0070491 0)
(7.34734 0.00648834 0)
(7.34881 0.00583232 0)
(7.35027 0.0050843 0)
(7.35172 0.00424668 0)
(7.35317 0.00332106 0)
(7.35459 0.00230833 0)
(7.35599 0.00120882 0)
(7.35736 2.24262e-05 0)
(7.35871 -0.00125126 0)
(7.36001 -0.00261276 0)
(7.36128 -0.00406248 0)
(7.3625 -0.00560034 0)
(7.36368 -0.00722518 0)
(7.3648 -0.00893357 0)
(7.36586 -0.0107174 0)
(7.36686 -0.0125593 0)
(7.333 0.000528708 0)
(7.33303 0.00156608 0)
(7.33309 0.00256689 0)
(7.33321 0.00351688 0)
(7.33343 0.00439621 0)
(7.33377 0.00518431 0)
(7.33425 0.00586314 0)
(7.33488 0.00641986 0)
(7.33564 0.00684737 0)
(7.33653 0.0071434 0)
(7.33753 0.00730938 0)
(7.33863 0.00734931 0)
(7.3398 0.00726868 0)
(7.34104 0.00707364 0)
(7.34233 0.00677037 0)
(7.34365 0.00636469 0)
(7.345 0.00586177 0)
(7.34636 0.00526602 0)
(7.34773 0.00458104 0)
(7.3491 0.00380961 0)
(7.35046 0.00295377 0)
(7.35181 0.00201489 0)
(7.35314 0.000993768 0)
(7.35445 -0.000109251 0)
(7.35572 -0.00129416 0)
(7.35697 -0.00256117 0)
(7.35817 -0.00391051 0)
(7.35934 -0.00534225 0)
(7.36046 -0.00685596 0)
(7.36153 -0.00845012 0)
(7.36254 -0.0101209 0)
(7.3635 -0.0118601 0)
(7.36439 -0.0136504 0)
(7.333 0.000517598 0)
(7.33303 0.00153872 0)
(7.33307 0.0025111 0)
(7.33316 0.0034108 0)
(7.33334 0.00421794 0)
(7.33363 0.00491663 0)
(7.33405 0.00549537 0)
(7.33459 0.00594767 0)
(7.33527 0.0062716 0)
(7.33607 0.00646862 0)
(7.33697 0.0065426 0)
(7.33797 0.00649889 0)
(7.33905 0.00634351 0)
(7.34019 0.00608262 0)
(7.34138 0.00572206 0)
(7.3426 0.00526715 0)
(7.34386 0.00472248 0)
(7.34513 0.0040919 0)
(7.3464 0.00337851 0)
(7.34768 0.00258467 0)
(7.34895 0.0017121 0)
(7.35021 0.000761969 0)
(7.35144 -0.000265034 0)
(7.35265 -0.00136858 0)
(7.35384 -0.00254859 0)
(7.35499 -0.00380513 0)
(7.3561 -0.00513824 0)
(7.35717 -0.00654778 0)
(7.35819 -0.00803307 0)
(7.35916 -0.00959236 0)
(7.36007 -0.0112217 0)
(7.36093 -0.0129129 0)
(7.36173 -0.0146489 0)
(7.333 0.000511022 0)
(7.333 0.00152476 0)
(7.33301 0.00247774 0)
(7.33304 0.00333564 0)
(7.33314 0.00407825 0)
(7.33334 0.00469414 0)
(7.33366 0.00517803 0)
(7.3341 0.00552974 0)
(7.33467 0.00575254 0)
(7.33536 0.00585184 0)
(7.33616 0.00583414 0)
(7.33705 0.00570636 0)
(7.33802 0.00547532 0)
(7.33905 0.0051474 0)
(7.34014 0.00472832 0)
(7.34127 0.00422305 0)
(7.34243 0.00363576 0)
(7.3436 0.00296983 0)
(7.34479 0.00222795 0)
(7.34597 0.0014121 0)
(7.34715 0.00052373 0)
(7.34832 -0.000436209 0)
(7.34947 -0.00146715 0)
(7.35059 -0.0025688 0)
(7.35169 -0.00374109 0)
(7.35275 -0.00498398 0)
(7.35377 -0.00629743 0)
(7.35475 -0.00768117 0)
(7.35568 -0.00913439 0)
(7.35656 -0.0106553 0)
(7.35739 -0.0122399 0)
(7.35816 -0.0138802 0)
(7.35887 -0.0155596 0)
(7.333 0.000513879 0)
(7.33297 0.00153926 0)
(7.3329 0.0024895 0)
(7.33283 0.00331835 0)
(7.33281 0.00400554 0)
(7.33289 0.0045446 0)
(7.33307 0.00493702 0)
(7.33338 0.00518938 0)
(7.33382 0.00531074 0)
(7.33438 0.00531081 0)
(7.33505 0.0051991 0)
(7.33582 0.00498443 0)
(7.33667 0.00467466 0)
(7.3376 0.00427663 0)
(7.33858 0.00379612 0)
(7.3396 0.00323788 0)
(7.34067 0.00260578 0)
(7.34175 0.00190284 0)
(7.34284 0.00113134 0)
(7.34394 0.000292949 0)
(7.34504 -0.000611171 0)
(7.34612 -0.00158029 0)
(7.34719 -0.00261399 0)
(7.34824 -0.00371208 0)
(7.34925 -0.00487452 0)
(7.35023 -0.00610129 0)
(7.35117 -0.00739232 0)
(7.35207 -0.0087473 0)
(7.35292 -0.0101654 0)
(7.35373 -0.0116449 0)
(7.35447 -0.013182 0)
(7.35517 -0.0147689 0)
(7.3558 -0.0163898 0)
(7.333 0.000532383 0)
(7.33291 0.0016013 0)
(7.33273 0.00257494 0)
(7.33251 0.00339268 0)
(7.33233 0.00403523 0)
(7.33223 0.00450268 0)
(7.33224 0.0048046 0)
(7.33238 0.00495561 0)
(7.33265 0.00497151 0)
(7.33306 0.00486708 0)
(7.33358 0.0046554 0)
(7.33422 0.00434761 0)
(7.33494 0.00395296 0)
(7.33575 0.00347897 0)
(7.33663 0.00293165 0)
(7.33756 0.00231571 0)
(7.33853 0.00163475 0)
(7.33952 0.000891464 0)
(7.34053 8.7791e-05 0)
(7.34156 -0.00077494 0)
(7.34258 -0.00169588 0)
(7.34359 -0.00267456 0)
(7.34458 -0.00371075 0)
(7.34556 -0.00480444 0)
(7.3465 -0.00595569 0)
(7.34742 -0.00716457 0)
(7.34829 -0.00843108 0)
(7.34912 -0.00975498 0)
(7.34991 -0.0111356 0)
(7.35065 -0.0125712 0)
(7.35133 -0.0140584 0)
(7.35196 -0.0155897 0)
(7.35252 -0.0171503 0)
(7.33299 0.000575506 0)
(7.33282 0.00173782 0)
(7.33248 0.00277342 0)
(7.33205 0.00360408 0)
(7.33164 0.00421412 0)
(7.3313 0.00461316 0)
(7.33108 0.00482148 0)
(7.33101 0.00486396 0)
(7.33108 0.0047648 0)
(7.3313 0.00454504 0)
(7.33167 0.00422213 0)
(7.33216 0.00381015 0)
(7.33276 0.00332012 0)
(7.33345 0.00276053 0)
(7.33422 0.00213776 0)
(7.33506 0.00145655 0)
(7.33594 0.000720286 0)
(7.33686 -6.86795e-05 0)
(7.33781 -0.000908793 0)
(7.33876 -0.00179912 0)
(7.33972 -0.0027392 0)
(7.34068 -0.00372887 0)
(7.34162 -0.00476822 0)
(7.34254 -0.00585747 0)
(7.34343 -0.00699689 0)
(7.3443 -0.00818674 0)
(7.34512 -0.00942718 0)
(7.3459 -0.0107181 0)
(7.34664 -0.0120591 0)
(7.34732 -0.0134487 0)
(7.34796 -0.0148839 0)
(7.34854 -0.0163577 0)
(7.34906 -0.0178563 0)
(7.33298 0.000657557 0)
(7.33269 0.00199013 0)
(7.33209 0.00314295 0)
(7.33136 0.00401706 0)
(7.33063 0.00460626 0)
(7.32998 0.004935 0)
(7.32946 0.00503885 0)
(7.32912 0.00495674 0)
(7.32897 0.00472391 0)
(7.32899 0.00436942 0)
(7.32918 0.00391628 0)
(7.32952 0.00338224 0)
(7.33 0.00278054 0)
(7.33059 0.00212082 0)
(7.33127 0.00140994 0)
(7.33203 0.000652599 0)
(7.33285 -0.000148091 0)
(7.33372 -0.000990227 0)
(7.33461 -0.00187278 0)
(7.33553 -0.00279535 0)
(7.33645 -0.00375797 0)
(7.33737 -0.00476097 0)
(7.33828 -0.00580485 0)
(7.33917 -0.0068902 0)
(7.34003 -0.00801762 0)
(7.34086 -0.00918767 0)
(7.34166 -0.0104008 0)
(7.34241 -0.0116572 0)
(7.34312 -0.0129566 0)
(7.34378 -0.0142981 0)
(7.34438 -0.015679 0)
(7.34493 -0.0170933 0)
(7.34542 -0.0185281 0)
(7.33297 0.00080311 0)
(7.33247 0.00242534 0)
(7.3315 0.00377281 0)
(7.33032 0.00472614 0)
(7.32914 0.00530078 0)
(7.32807 0.00554548 0)
(7.32719 0.00551907 0)
(7.32654 0.0052809 0)
(7.32612 0.00488134 0)
(7.32593 0.0043599 0)
(7.32595 0.00374664 0)
(7.32616 0.00306372 0)
(7.32653 0.00232687 0)
(7.32704 0.00154687 0)
(7.32767 0.000730838 0)
(7.32839 -0.000116783 0)
(7.32918 -0.000993479 0)
(7.33002 -0.00189809 0)
(7.3309 -0.00283037 0)
(7.33181 -0.00379072 0)
(7.33272 -0.00477992 0)
(7.33364 -0.00579896 0)
(7.33454 -0.00684897 0)
(7.33543 -0.00793105 0)
(7.33629 -0.00904631 0)
(7.33712 -0.0101957 0)
(7.33792 -0.0113801 0)
(7.33867 -0.0126001 0)
(7.33937 -0.0138558 0)
(7.34002 -0.0151468 0)
(7.34062 -0.016471 0)
(7.34116 -0.0178232 0)
(7.34165 -0.0191918 0)
(7.33294 0.00105716 0)
(7.3321 0.00315678 0)
(7.33055 0.00480352 0)
(7.32872 0.00587082 0)
(7.32692 0.00642044 0)
(7.32531 0.00654209 0)
(7.32398 0.00633215 0)
(7.32297 0.00588083 0)
(7.32228 0.00525946 0)
(7.3219 0.00452089 0)
(7.32178 0.00370357 0)
(7.32189 0.00283439 0)
(7.32221 0.00193121 0)
(7.3227 0.00100532 0)
(7.32331 6.34047e-05 0)
(7.32404 -0.000891062 0)
(7.32485 -0.00185678 0)
(7.32572 -0.0028339 0)
(7.32663 -0.00382346 0)
(7.32757 -0.00482705 0)
(7.32853 -0.00584652 0)
(7.32948 -0.00688384 0)
(7.33042 -0.00794098 0)
(7.33134 -0.00901981 0)
(7.33224 -0.0101221 0)
(7.3331 -0.0112493 0)
(7.33393 -0.0124029 0)
(7.3347 -0.0135839 0)
(7.33543 -0.014793 0)
(7.33611 -0.0160303 0)
(7.33673 -0.0172945 0)
(7.33729 -0.0185814 0)
(7.33779 -0.0198807 0)
(7.33289 0.00150913 0)
(7.33144 0.00438364 0)
(7.32896 0.00645761 0)
(7.32617 0.00765242 0)
(7.32354 0.00812534 0)
(7.32126 0.00803561 0)
(7.31942 0.00754187 0)
(7.31806 0.00678132 0)
(7.31714 0.00585298 0)
(7.31661 0.00482508 0)
(7.31643 0.00374445 0)
(7.31654 0.00264151 0)
(7.31688 0.00153457 0)
(7.31742 0.000433696 0)
(7.3181 -0.000656407 0)
(7.31891 -0.00173454 0)
(7.31981 -0.00280171 0)
(7.32078 -0.00386024 0)
(7.32178 -0.00491313 0)
(7.32282 -0.00596373 0)
(7.32386 -0.00701543 0)
(7.3249 -0.00807151 0)
(7.32593 -0.00913508 0)
(7.32694 -0.010209 0)
(7.32791 -0.0112958 0)
(7.32885 -0.0123978 0)
(7.32974 -0.0135171 0)
(7.33058 -0.0146552 0)
(7.33137 -0.0158136 0)
(7.33211 -0.0169928 0)
(7.33278 -0.0181924 0)
(7.33339 -0.0194095 0)
(7.33394 -0.0206352 0)
(7.33277 0.00234846 0)
(7.33021 0.00647433 0)
(7.32621 0.00909637 0)
(7.32205 0.0103541 0)
(7.31835 0.010602 0)
(7.3153 0.0101198 0)
(7.31297 0.00916812 0)
(7.31133 0.00795047 0)
(7.31029 0.00659623 0)
(7.30976 0.0051863 0)
(7.30965 0.00377194 0)
(7.30988 0.00238277 0)
(7.31037 0.00103348 0)
(7.31108 -0.000270376 0)
(7.31195 -0.00152862 0)
(7.31295 -0.00274425 0)
(7.31403 -0.00392203 0)
(7.31517 -0.00506754 0)
(7.31636 -0.00618659 0)
(7.31756 -0.0072849 0)
(7.31877 -0.00836783 0)
(7.31997 -0.00944038 0)
(7.32114 -0.010507 0)
(7.32229 -0.0115719 0)
(7.32339 -0.0126385 0)
(7.32445 -0.01371 0)
(7.32546 -0.0147892 0)
(7.32642 -0.0158785 0)
(7.32731 -0.0169797 0)
(7.32814 -0.0180943 0)
(7.32891 -0.0192227 0)
(7.32961 -0.0203632 0)
(7.33024 -0.0215088 0)
(7.33248 0.00393981 0)
(7.32782 0.0100868 0)
(7.32137 0.0133148 0)
(7.31532 0.0143917 0)
(7.31036 0.0140662 0)
(7.30657 0.012842 0)
(7.30392 0.0111471 0)
(7.30222 0.00926193 0)
(7.3013 0.00733166 0)
(7.30099 0.00543507 0)
(7.30116 0.0036165 0)
(7.30171 0.00189524 0)
(7.30254 0.000274912 0)
(7.30358 -0.0012488 0)
(7.30479 -0.00268388 0)
(7.30611 -0.00404006 0)
(7.3075 -0.00532765 0)
(7.30895 -0.00655675 0)
(7.31042 -0.00773685 0)
(7.31189 -0.00887661 0)
(7.31336 -0.00998385 0)
(7.3148 -0.0110655 0)
(7.3162 -0.0121278 0)
(7.31756 -0.013176 0)
(7.31887 -0.0142149 0)
(7.32013 -0.0152485 0)
(7.32132 -0.0162805 0)
(7.32244 -0.0173137 0)
(7.3235 -0.0183509 0)
(7.32448 -0.019394 0)
(7.32539 -0.0204444 0)
(7.32622 -0.0215017 0)
(7.32698 -0.0225606 0)
(7.33191 0.00690493 0)
(7.3231 0.0160785 0)
(7.31272 0.0197094 0)
(7.30426 0.0201112 0)
(7.29808 0.0186249 0)
(7.29386 0.0161137 0)
(7.2913 0.0132716 0)
(7.28999 0.0104444 0)
(7.28958 0.0077489 0)
(7.28985 0.00523378 0)
(7.29064 0.00292133 0)
(7.2918 0.00080929 0)
(7.29323 -0.00111835 0)
(7.29485 -0.00288184 0)
(7.29661 -0.00450151 0)
(7.29846 -0.00599682 0)
(7.30036 -0.0073859 0)
(7.30228 -0.0086851 0)
(7.30419 -0.00990889 0)
(7.30609 -0.01107 0)
(7.30794 -0.0121794 0)
(7.30976 -0.0132467 0)
(7.31151 -0.0142801 0)
(7.3132 -0.0152869 0)
(7.31482 -0.016273 0)
(7.31636 -0.0172438 0)
(7.31783 -0.0182038 0)
(7.31921 -0.0191568 0)
(7.32051 -0.0201061 0)
(7.32172 -0.0210546 0)
(7.32284 -0.0220045 0)
(7.32388 -0.0229569 0)
(7.32483 -0.023909 0)
(7.33066 0.0138018 0)
(7.31337 0.0262993 0)
(7.29715 0.0283669 0)
(7.2862 0.0269426 0)
(7.27926 0.0237245 0)
(7.27532 0.0196541 0)
(7.27364 0.0156113 0)
(7.27344 0.0118973 0)
(7.27421 0.00851315 0)
(7.27565 0.0054414 0)
(7.27759 0.00267207 0)
(7.27987 0.000179108 0)
(7.28236 -0.00207001 0)
(7.28499 -0.00410583 0)
(7.2877 -0.00595547 0)
(7.29044 -0.00764357 0)
(7.29317 -0.00919255 0)
(7.29587 -0.0106223 0)
(7.29852 -0.0119504 0)
(7.30109 -0.013192 0)
(7.30359 -0.0143604 0)
(7.306 -0.0154671 0)
(7.30831 -0.0165221 0)
(7.31052 -0.0175341 0)
(7.31263 -0.0185104 0)
(7.31463 -0.0194576 0)
(7.31652 -0.0203811 0)
(7.3183 -0.0212858 0)
(7.31997 -0.0221756 0)
(7.32154 -0.0230541 0)
(7.32299 -0.023924 0)
(7.32433 -0.0247874 0)
(7.32557 -0.0256431 0)
(7.32446 0.0352428 0)
(7.28904 0.0483811 0)
(7.26646 0.0395263 0)
(7.25593 0.0291075 0)
(7.25062 0.019754 0)
(7.24878 0.0118744 0)
(7.24957 0.00571426 0)
(7.25183 0.000933885 0)
(7.2549 -0.00287169 0)
(7.25855 -0.00593805 0)
(7.26259 -0.00841998 0)
(7.26687 -0.0104565 0)
(7.27125 -0.0121608 0)
(7.27566 -0.0136137 0)
(7.28004 -0.0148734 0)
(7.28435 -0.0159837 0)
(7.28854 -0.0169783 0)
(7.2926 -0.0178834 0)
(7.29652 -0.0187188 0)
(7.30028 -0.0195001 0)
(7.30387 -0.0202396 0)
(7.30729 -0.0209467 0)
(7.31055 -0.0216294 0)
(7.31364 -0.0222935 0)
(7.31656 -0.0229441 0)
(7.31931 -0.0235851 0)
(7.32191 -0.0242199 0)
(7.32434 -0.024851 0)
(7.32662 -0.0254808 0)
(7.32876 -0.0261113 0)
(7.33074 -0.0267445 0)
(7.33258 -0.0273826 0)
(7.33429 -0.0280273 0)
(7.29541 0.0831349 0)
(7.21832 0.128021 0)
(7.18705 0.128962 0)
(7.18628 0.113898 0)
(7.19288 0.0940461 0)
(7.20181 0.0759803 0)
(7.21215 0.0609253 0)
(7.22276 0.0479831 0)
(7.23322 0.036634 0)
(7.2435 0.0267793 0)
(7.25347 0.018323 0)
(7.26303 0.0111075 0)
(7.27211 0.00496345 0)
(7.28069 -0.000260539 0)
(7.28877 -0.00469949 0)
(7.29637 -0.0084752 0)
(7.3035 -0.0116947 0)
(7.31019 -0.0144493 0)
(7.31644 -0.0168158 0)
(7.3223 -0.0188589 0)
(7.32777 -0.0206326 0)
(7.33288 -0.022182 0)
(7.33765 -0.0235448 0)
(7.3421 -0.0247521 0)
(7.34624 -0.0258301 0)
(7.3501 -0.0268005 0)
(7.35369 -0.0276814 0)
(7.35702 -0.0284878 0)
(7.36011 -0.0292322 0)
(7.36296 -0.029925 0)
(7.3656 -0.0305746 0)
(7.36801 -0.0311872 0)
(7.37022 -0.0317705 0)
(7.32717 -0.156818 0)
(7.19691 -0.284107 0)
(7.13359 -0.280675 0)
(7.11311 -0.247211 0)
(7.11502 -0.214623 0)
(7.13547 -0.184347 0)
(7.16555 -0.157149 0)
(7.19793 -0.134179 0)
(7.22985 -0.115392 0)
(7.26018 -0.100096 0)
(7.28818 -0.0876252 0)
(7.31353 -0.0774818 0)
(7.33622 -0.069257 0)
(7.35643 -0.0625931 0)
(7.37437 -0.0571887 0)
(7.39025 -0.052801 0)
(7.4043 -0.0492361 0)
(7.41671 -0.0463385 0)
(7.42767 -0.0439827 0)
(7.43734 -0.0420681 0)
(7.44586 -0.0405136 0)
(7.45337 -0.0392545 0)
(7.45997 -0.0382382 0)
(7.46576 -0.0374226 0)
(7.47084 -0.0367734 0)
(7.47526 -0.0362629 0)
(7.47911 -0.0358682 0)
(7.48244 -0.035571 0)
(7.4853 -0.0353558 0)
(7.48773 -0.03521 0)
(7.48979 -0.0351222 0)
(7.4915 -0.0350836 0)
(7.49292 -0.0350827 0)
(7.33086 1.21499 0)
(7.63821 1.23053 0)
(7.81863 0.920162 0)
(7.87585 0.647906 0)
(7.88912 0.449883 0)