/*--------------------------------*- C++ -*----------------------------------*\
| =========                 |                                                 |
| \\      /  F ield         | OpenFOAM: The Open Source CFD Toolbox           |
|  \\    /   O peration     | Version:  4.1                                   |
|   \\  /    A nd           | Web:      www.OpenFOAM.org                      |
|    \\/     M anipulation  |                                                 |
\*---------------------------------------------------------------------------*/
FoamFile
{
    version     2.0;
    format      ascii;
    class       volScalarField;
    location    "1000";
    object      p;
}
// * * * * * * * * * * * * * * * * * * * * * * * * * * * * * * * * * * * * * //

dimensions      [0 2 -2 0 0 0 0];

internalField   nonuniform List<scalar> 
26785
(
-472.908
-462.83
-451.3
-438.221
-424.482
-410.963
-398.506
-387.537
-378.164
-370.438
-364.218
-359.335
-355.64
-352.786
-350.606
-349.071
-348.125
-347.887
-348.8
-351.316
-355.787
-362.371
-371.021
-381.491
-393.423
-406.453
-420.299
-434.787
-449.811
-465.298
-481.177
-497.378
-513.841
-530.523
-547.402
-564.478
-581.763
-599.252
-616.841
-634.185
-650.419
-663.616
-669.931
-663.624
-640.358
-601.892
-553.886
-501.121
-448.035
-397.579
-351.357
-310.244
-274.453
-243.805
-217.919
-196.324
-178.533
-164.057
-152.408
-143.104
-135.679
-129.69
-124.723
-120.388
-116.314
-112.15
-107.56
-102.145
-95.3621
-86.6037
-75.5528
-62.5589
-48.8831
-36.9487
-28.6774
-23.6457
-21.3805
-21.8728
-24.282
-27.9002
-32.0989
-36.2212
-39.7118
-42.164
-43.3349
-43.1393
-41.6183
-38.9026
-35.1867
-30.7175
-25.7864
-20.7083
-15.8065
-11.3456
-7.58426
-4.52378
-2.61482
-0.776036
-2.15138
3.21094
-472.916
-462.864
-451.336
-438.259
-424.519
-410.997
-398.536
-387.566
-378.192
-370.465
-364.243
-359.355
-355.654
-352.795
-350.607
-349.068
-348.12
-347.883
-348.801
-351.326
-355.805
-362.398
-371.055
-381.532
-393.467
-406.499
-420.345
-434.832
-449.857
-465.347
-481.231
-497.44
-513.912
-530.605
-547.496
-564.587
-581.891
-599.404
-617.033
-634.44
-650.783
-664.152
-670.695
-664.55
-641.223
-602.564
-554.388
-501.449
-448.247
-397.712
-351.432
-310.279
-274.461
-243.795
-217.895
-196.291
-178.495
-164.019
-152.375
-143.081
-135.67
-129.699
-124.754
-120.445
-116.403
-112.28
-107.743
-102.4
-95.7168
-87.076
-76.1151
-63.1566
-49.5342
-37.6623
-29.2743
-24.1627
-21.8788
-22.3028
-24.6722
-28.2839
-32.479
-36.5939
-40.0705
-42.5016
-43.646
-43.4198
-41.8656
-39.1149
-35.3625
-30.8559
-25.8883
-20.7777
-15.8512
-11.375
-7.60855
-4.54671
-2.64253
-0.798161
-2.15972
3.16042
-472.955
-462.932
-451.409
-438.335
-424.592
-411.061
-398.592
-387.617
-378.239
-370.511
-364.285
-359.382
-355.661
-352.784
-350.581
-349.035
-348.09
-347.862
-348.797
-351.34
-355.838
-362.448
-371.12
-381.608
-393.551
-406.585
-420.432
-434.919
-449.947
-465.445
-481.342
-497.567
-514.06
-530.776
-547.695
-564.817
-582.159
-599.724
-617.432
-634.968
-651.526
-665.244
-672.245
-666.431
-642.986
-603.92
-555.373
-502.084
-448.655
-397.968
-351.58
-310.353
-274.483
-243.783
-217.859
-196.239
-178.434
-163.958
-152.324
-143.05
-135.668
-129.734
-124.832
-120.575
-116.596
-112.554
-108.123
-102.923
-96.4335
-88.0232
-77.2502
-64.3763
-50.8058
-38.9474
-30.4598
-25.1873
-22.7843
-23.1007
-25.4256
-29.0294
-33.2192
-37.3206
-40.7705
-43.1617
-44.2554
-43.9705
-42.3522
-39.5338
-35.7102
-31.1299
-26.09
-20.9143
-15.9376
-11.4295
-7.65
-4.58283
-2.68374
-0.828485
-2.17681
3.10021
-473.027
-463.033
-451.518
-438.448
-424.698
-411.152
-398.667
-387.683
-378.298
-370.567
-364.333
-359.408
-355.653
-352.738
-350.504
-348.943
-347.996
-347.785
-348.75
-351.325
-355.856
-362.497
-371.195
-381.704
-393.659
-406.7
-420.55
-435.042
-450.08
-465.594
-481.513
-497.766
-514.291
-531.044
-548.005
-565.177
-582.578
-600.226
-618.056
-635.791
-652.677
-666.921
-674.618
-669.305
-645.669
-605.963
-556.825
-502.999
-449.238
-398.333
-351.79
-310.46
-274.518
-243.769
-217.813
-196.169
-178.352
-163.878
-152.26
-143.017
-135.678
-129.798
-124.962
-120.782
-116.899
-112.977
-108.703
-103.715
-97.5116
-89.4371
-78.9491
-66.2282
-52.74
-40.8418
-32.1923
-26.7036
-24.1501
-24.3426
-26.602
-30.1795
-34.3496
-38.4232
-41.8292
-44.1589
-45.1757
-44.8019
-43.0864
-40.1652
-36.2336
-31.5414
-26.3919
-21.1175
-16.0645
-11.5078
-7.70784
-4.63201
-2.73855
-0.869522
-2.20625
3.03687
-473.134
-463.167
-451.663
-438.597
-424.836
-411.268
-398.76
-387.76
-378.363
-370.624
-364.379
-359.425
-355.62
-352.65
-350.37
-348.782
-347.823
-347.629
-348.63
-351.252
-355.832
-362.52
-371.259
-381.8
-393.776
-406.828
-420.686
-435.19
-450.248
-465.789
-481.743
-498.037
-514.609
-531.415
-548.436
-565.675
-583.161
-600.921
-618.921
-636.925
-654.255
-669.212
-677.856
-673.227
-649.315
-608.705
-558.723
-504.165
-449.977
-398.792
-352.057
-310.599
-274.568
-243.762
-217.764
-196.092
-178.262
-163.791
-152.195
-142.992
-135.711
-129.903
-125.154
-121.077
-117.318
-113.553
-109.484
-104.776
-98.9501
-91.3211
-81.2166
-68.7038
-55.2921
-43.3358
-34.4719
-28.7211
-25.9771
-26.021
-28.1943
-31.7293
-35.8672
-39.8995
-43.245
-45.4915
-46.4045
-45.9109
-44.0648
-41.0057
-36.9292
-32.087
-26.7906
-21.3838
-16.2286
-11.607
-7.77898
-4.69053
-2.80237
-0.915364
-2.24442
2.98061
-473.274
-463.334
-451.843
-438.781
-425.005
-411.407
-398.867
-387.844
-378.428
-370.678
-364.419
-359.428
-355.563
-352.526
-350.181
-348.553
-347.567
-347.386
-348.427
-351.105
-355.748
-362.499
-371.295
-381.878
-393.883
-406.953
-420.827
-435.352
-450.441
-466.025
-482.03
-498.383
-515.019
-531.896
-548.994
-566.323
-583.917
-601.824
-620.041
-638.389
-656.283
-672.149
-682.012
-678.266
-653.977
-612.159
-561.049
-505.551
-450.849
-399.332
-352.372
-310.768
-274.636
-243.764
-217.72
-196.016
-178.169
-163.703
-152.135
-142.984
-135.774
-130.056
-125.413
-121.461
-117.853
-114.279
-110.458
-106.091
-100.731
-93.6618
-84.0535
-71.8102
-58.4538
-46.4221
-37.2921
-31.2415
-28.2727
-28.1465
-30.2143
-33.6898
-37.7819
-41.7596
-45.0275
-47.1683
-47.9493
-47.3031
-45.2908
-42.0572
-37.7976
-32.7661
-27.2846
-21.7113
-16.4278
-11.7253
-7.86281
-4.75822
-2.87558
-0.96616
-2.29351
2.93316
-473.435
-463.534
-452.058
-439
-425.204
-411.569
-398.987
-387.933
-378.491
-370.725
-364.448
-359.415
-355.483
-352.375
-349.949
-348.262
-347.238
-347.062
-348.142
-350.881
-355.597
-362.423
-371.289
-381.927
-393.969
-407.062
-420.959
-435.516
-450.65
-466.293
-482.368
-498.8
-515.521
-532.489
-549.687
-567.128
-584.858
-602.945
-621.43
-640.2
-658.784
-675.768
-687.149
-684.51
-659.716
-616.344
-563.776
-507.122
-451.834
-399.937
-352.733
-310.969
-274.728
-243.786
-217.692
-195.952
-178.088
-163.629
-152.095
-143.004
-135.879
-130.265
-125.745
-121.937
-118.501
-115.141
-111.603
-107.628
-102.81
-96.4136
-87.4233
-75.5192
-62.1988
-50.0825
-40.6497
-34.2649
-31.0344
-30.7133
-32.6575
-36.0603
-40.0965
-44.0079
-47.1815
-49.193
-49.8119
-48.978
-46.7621
-43.3159
-38.8346
-33.574
-27.8696
-22.0956
-16.6582
-11.8599
-7.95771
-4.83364
-2.95714
-1.01926
-2.35278
2.89972
-473.626
-463.766
-452.307
-439.253
-425.434
-411.752
-399.12
-388.027
-378.55
-370.764
-364.466
-359.387
-355.388
-352.195
-349.684
-347.917
-346.846
-346.668
-347.785
-350.586
-355.38
-362.292
-371.237
-381.94
-394.025
-407.148
-421.074
-435.672
-450.866
-466.586
-482.751
-499.283
-516.113
-533.197
-550.518
-568.097
-585.992
-604.298
-623.104
-642.377
-661.783
-680.111
-693.345
-692.062
-666.603
-621.275
-566.863
-508.829
-452.902
-400.592
-353.135
-311.207
-274.854
-243.842
-217.696
-195.918
-178.036
-163.584
-152.089
-143.066
-136.035
-130.537
-126.15
-122.498
-119.245
-116.112
-112.874
-109.323
-105.109
-99.4928
-91.2563
-79.7826
-66.5348
-54.3097
-44.5398
-37.7894
-34.2622
-33.7231
-35.5288
-38.8488
-42.8206
-46.6547
-49.7168
-51.5735
-51.9974
-50.9377
-48.4777
-44.7793
-40.0367
-34.5068
-28.5417
-22.5334
-16.9168
-12.0091
-8.06398
-4.91752
-3.04886
-1.07441
-2.42511
2.88373
-473.846
-464.03
-452.59
-439.541
-425.694
-411.959
-399.266
-388.124
-378.604
-370.793
-364.472
-359.346
-355.285
-351.989
-349.388
-347.53
-346.404
-346.218
-347.367
-350.228
-355.103
-362.105
-371.136
-381.91
-394.045
-407.205
-421.167
-435.817
-451.083
-466.895
-483.172
-499.827
-516.791
-534.016
-551.489
-569.236
-587.329
-605.894
-625.077
-644.937
-665.305
-685.222
-700.686
-701.029
-674.689
-626.951
-570.226
-510.604
-454.014
-401.274
-353.576
-311.494
-275.036
-243.96
-217.761
-195.944
-178.042
-163.599
-152.143
-143.19
-136.254
-130.871
-126.616
-123.115
-120.039
-117.123
-114.176
-111.05
-107.473
-102.734
-95.4062
-84.4847
-71.4529
-59.1145
-48.9679
-41.8139
-37.9546
-37.1751
-38.8304
-42.0608
-45.9628
-49.7099
-52.6425
-54.3167
-54.5091
-53.1814
-50.4337
-46.4417
-41.3976
-35.5582
-29.2961
-23.0206
-17.2006
-12.1716
-8.18258
-5.01093
-3.15301
-1.13036
-2.51398
2.89252
-474.095
-464.326
-452.909
-439.864
-425.986
-412.189
-399.425
-388.225
-378.654
-370.813
-364.467
-359.294
-355.172
-351.769
-349.065
-347.109
-345.921
-345.72
-346.897
-349.815
-354.771
-361.863
-370.985
-381.835
-394.028
-407.23
-421.236
-435.946
-451.296
-467.217
-483.623
-500.425
-517.549
-534.944
-552.6
-570.547
-588.875
-607.745
-627.365
-647.903
-669.379
-691.151
-709.261
-711.503
-683.974
-633.343
-573.714
-512.353
-455.116
-401.961
-354.067
-311.861
-275.319
-244.189
-217.941
-196.082
-178.159
-163.721
-152.301
-143.409
-136.554
-131.266
-127.118
-123.737
-120.8
-118.056
-115.35
-112.605
-109.65
-105.861
-99.6235
-89.4863
-76.9017
-64.4812
-53.9337
-46.3373
-42.1113
-41.0716
-42.568
-45.7065
-49.536
-53.1873
-55.9711
-57.4316
-57.3513
-55.7087
-52.6253
-48.2959
-42.9099
-36.721
-30.1282
-23.5552
-17.5088
-12.3481
-8.31703
-5.11696
-3.27428
-1.18654
-2.62651
2.93677
-474.369
-464.654
-453.262
-440.223
-426.31
-412.443
-399.598
-388.33
-378.699
-370.824
-364.452
-359.239
-355.041
-351.539
-348.72
-346.662
-345.408
-345.186
-346.384
-349.354
-354.385
-361.567
-370.781
-381.712
-393.968
-407.22
-421.279
-436.058
-451.503
-467.547
-484.1
-501.07
-518.379
-535.974
-553.844
-572.029
-590.634
-609.859
-629.985
-651.295
-674.033
-697.946
-719.145
-723.492
-694.291
-640.306
-577.092
-513.987
-456.163
-402.656
-354.654
-312.378
-275.779
-244.6
-218.297
-196.391
-178.442
-164.004
-152.609
-143.761
-136.962
-131.737
-127.654
-124.345
-121.489
-118.847
-116.296
-113.827
-111.393
-108.542
-103.599
-94.7168
-82.8606
-70.3991
-59.4343
-51.3579
-46.7322
-45.4154
-46.7491
-49.7978
-53.5555
-57.1029
-59.7167
-60.9281
-60.5284
-58.5177
-55.0456
-50.3328
-44.5641
-37.9871
-31.0345
-24.1381
-17.8433
-12.5419
-8.47288
-5.2398
-3.4188
-1.24138
-2.77327
3.03563
-474.665
-465.014
-453.651
-440.618
-426.667
-412.724
-399.787
-388.441
-378.741
-370.827
-364.427
-359.186
-354.895
-351.3
-348.358
-346.196
-344.87
-344.62
-345.832
-348.847
-353.949
-361.217
-370.522
-381.538
-393.863
-407.174
-421.293
-436.15
-451.702
-467.881
-484.597
-501.756
-519.273
-537.097
-555.215
-573.676
-592.605
-612.242
-632.945
-655.13
-679.292
-705.645
-730.377
-736.867
-705.221
-647.587
-580.125
-515.476
-457.162
-403.415
-355.419
-313.13
-276.492
-245.249
-218.866
-196.893
-178.903
-164.454
-153.07
-144.248
-137.481
-132.287
-128.237
-124.968
-122.173
-119.615
-117.185
-114.918
-112.884
-110.855
-107.368
-100.207
-89.3003
-76.8545
-65.4634
-56.8728
-51.8178
-50.2112
-51.3842
-54.3508
-58.0407
-61.477
-63.8973
-64.819
-64.0458
-61.6067
-57.6866
-52.5411
-46.3496
-39.3475
-32.0146
-24.7757
-18.2097
-12.7574
-8.65714
-5.3843
-3.59399
-1.2918
-2.97016
3.21991
-474.99
-465.406
-454.076
-441.052
-427.06
-413.032
-399.994
-388.56
-378.781
-370.823
-364.391
-359.132
-354.744
-351.051
-347.985
-345.715
-344.314
-344.03
-345.248
-348.299
-353.463
-360.811
-370.205
-381.309
-393.711
-407.088
-421.276
-436.221
-451.888
-468.215
-485.109
-502.473
-520.222
-538.3
-556.701
-575.478
-594.779
-614.888
-636.247
-659.413
-685.168
-714.272
-742.953
-751.353
-716.186
-654.929
-582.68
-516.886
-458.173
-404.325
-356.439
-314.173
-277.484
-246.138
-219.633
-197.563
-179.513
-165.037
-153.652
-144.841
-138.089
-132.911
-128.885
-125.664
-122.948
-120.498
-118.201
-116.118
-114.438
-113.184
-111.237
-105.979
-96.1654
-83.8202
-72.009
-62.8769
-57.3683
-55.4658
-56.4869
-59.3856
-63.0161
-66.3346
-68.5349
-69.1198
-67.9107
-64.9738
-60.5391
-54.9082
-48.2541
-40.7929
-33.071
-25.4781
-18.6121
-12.9968
-8.87574
-5.5533
-3.80547
-1.3303
-3.23693
3.53321
-475.341
-465.833
-454.539
-441.525
-427.49
-413.372
-400.222
-388.688
-378.819
-370.815
-364.348
-359.069
-354.596
-350.796
-347.604
-345.225
-343.744
-343.419
-344.635
-347.712
-352.929
-360.35
-369.83
-381.023
-393.508
-406.961
-421.228
-436.27
-452.063
-468.546
-485.631
-503.216
-521.215
-539.573
-558.285
-577.416
-597.137
-617.778
-639.873
-664.131
-691.652
-723.83
-756.822
-766.577
-726.695
-662.047
-584.806
-518.339
-459.257
-405.431
-357.717
-315.476
-278.704
-247.206
-220.537
-198.34
-180.213
-165.699
-154.304
-145.497
-138.752
-133.596
-129.621
-126.479
-123.863
-121.534
-119.378
-117.477
-116.145
-115.639
-115.184
-111.897
-103.37
-91.2548
-79.0525
-69.3625
-63.3839
-61.1875
-62.0748
-64.9275
-68.5121
-71.7073
-73.6573
-73.8509
-72.1331
-68.6186
-63.5939
-57.4211
-50.2642
-42.3121
-34.206
-26.2528
-19.0491
-13.2589
-9.13152
-5.74423
-4.05306
-1.34328
-3.59144
4.01958
-475.721
-466.293
-455.04
-442.038
-427.96
-413.746
-400.474
-388.83
-378.858
-370.805
-364.306
-358.993
-354.45
-350.538
-347.219
-344.73
-343.165
-342.791
-343.996
-347.088
-352.348
-359.832
-369.394
-380.678
-393.252
-406.791
-421.147
-436.296
-452.224
-468.876
-486.161
-503.98
-522.245
-540.901
-559.95
-579.469
-599.652
-620.882
-643.789
-669.247
-698.71
-734.303
-771.907
-782.182
-736.664
-668.494
-586.63
-519.902
-460.431
-406.72
-359.185
-316.949
-280.059
-248.373
-221.514
-199.174
-180.961
-166.408
-155
-146.19
-139.461
-134.353
-130.445
-127.384
-124.871
-122.677
-120.681
-118.965
-117.961
-118.139
-119.071
-117.819
-110.816
-99.1031
-86.5664
-76.3178
-69.864
-67.3868
-68.1695
-71.0081
-74.5663
-77.6339
-79.2994
-79.0383
-76.7271
-72.5426
-66.8435
-60.0674
-52.3625
-43.8891
-35.415
-27.1069
-19.5237
-13.5516
-9.43427
-5.95905
-4.33714
-1.31911
-4.0396
4.69418
-476.125
-466.787
-455.579
-442.594
-428.471
-414.158
-400.754
-388.987
-378.899
-370.792
-364.269
-358.904
-354.304
-350.278
-346.833
-344.232
-342.58
-342.15
-343.334
-346.429
-351.718
-359.256
-368.894
-380.269
-392.94
-406.574
-421.031
-436.298
-452.372
-469.203
-486.701
-504.765
-523.309
-542.28
-561.687
-581.62
-602.3
-624.166
-647.951
-674.707
-706.283
-745.643
-788.075
-797.854
-746.575
-673.7
-588.284
-521.578
-461.691
-408.151
-360.769
-318.515
-281.483
-249.592
-222.535
-200.052
-181.757
-167.162
-155.732
-146.93
-140.244
-135.198
-131.361
-128.385
-125.982
-123.931
-122.113
-120.592
-119.889
-120.675
-122.865
-123.651
-118.402
-107.298
-94.5148
-83.7264
-76.8065
-74.0757
-74.7975
-77.666
-81.2252
-84.1624
-85.5047
-84.7156
-81.7122
-76.7512
-70.2844
-62.8342
-54.5288
-45.5052
-36.7014
-28.0833
-20.105
-13.9731
-9.86927
-6.25295
-4.68641
-1.26978
-4.56572
5.5109
-476.554
-467.317
-456.16
-443.195
-429.028
-414.61
-401.068
-389.165
-378.944
-370.777
-364.24
-358.805
-354.158
-350.019
-346.448
-343.736
-341.992
-341.497
-342.649
-345.735
-351.042
-358.623
-368.329
-379.795
-392.569
-406.31
-420.88
-436.278
-452.511
-469.533
-487.255
-505.576
-524.411
-543.711
-563.49
-583.858
-605.062
-627.598
-652.314
-680.444
-714.288
-757.757
-805.008
-812.958
-756.989
-677.26
-589.927
-523.318
-463.036
-409.685
-362.415
-320.125
-282.939
-250.841
-223.592
-200.976
-182.6
-167.952
-156.507
-147.737
-141.11
-136.137
-132.384
-129.503
-127.211
-125.304
-123.676
-122.372
-121.96
-123.298
-126.59
-129.328
-126.031
-115.765
-102.853
-91.5661
-84.2072
-81.2678
-81.9903
-84.9476
-88.5447
-91.3517
-92.3272
-90.9254
-87.1147
-81.2553
-73.918
-65.7089
-56.7557
-47.1643
-38.1468
-29.3598
-21.0901
-14.8328
-10.6348
-6.73936
-5.15755
-1.23641
-5.12688
6.35992
-477.011
-467.886
-456.787
-443.848
-429.637
-415.111
-401.42
-389.369
-378.996
-370.759
-364.219
-358.706
-354.01
-349.762
-346.066
-343.243
-341.403
-340.836
-341.945
-345.008
-350.319
-357.93
-367.698
-379.253
-392.135
-405.994
-420.691
-436.235
-452.64
-469.867
-487.828
-506.42
-525.558
-545.199
-565.366
-586.183
-607.929
-631.159
-656.837
-686.394
-722.629
-770.506
-822.15
-826.217
-767.993
-679.055
-591.776
-525.046
-464.447
-411.269
-364.077
-321.746
-284.406
-252.108
-224.68
-201.94
-183.473
-168.772
-157.333
-148.612
-142.061
-137.179
-133.52
-130.736
-128.55
-126.78
-125.346
-124.279
-124.168
-126.024
-130.274
-134.82
-133.614
-124.425
-111.53
-99.8086
-92.0585
-88.978
-89.785
-92.9083
-96.5921
-99.2726
-99.8327
-97.7206
-92.9681
-86.0722
-77.7493
-68.6924
-59.07
-48.949
-39.9603
-31.2602
-22.8995
-16.3821
-11.8352
-7.48648
-5.79136
-1.26985
-5.66637
7.10805
-477.503
-468.5
-457.469
-444.565
-430.31
-415.669
-401.82
-389.608
-379.057
-370.738
-364.205
-358.613
-353.863
-349.511
-345.691
-342.757
-340.817
-340.168
-341.223
-344.248
-349.549
-357.178
-366.998
-378.64
-391.636
-405.625
-420.464
-436.169
-452.763
-470.211
-488.425
-507.303
-526.761
-546.756
-567.323
-588.603
-610.902
-634.837
-661.492
-692.498
-731.215
-783.778
-838.969
-836.386
-778.964
-679.456
-593.85
-526.67
-465.879
-412.853
-365.727
-323.361
-285.873
-253.387
-225.801
-202.929
-184.356
-169.621
-158.21
-149.563
-143.109
-138.332
-134.772
-132.081
-129.991
-128.343
-127.095
-126.282
-126.489
-128.851
-133.959
-140.138
-141.09
-133.206
-120.487
-108.418
-100.349
-97.2209
-98.2237
-101.613
-105.447
-108.01
-108.1
-105.165
-99.3145
-91.2244
-81.7864
-71.8082
-61.522
-50.9934
-42.2371
-33.8475
-25.459
-18.4406
-13.378
-8.47402
-6.58284
-1.40639
-6.14912
7.66595
-478.034
-469.171
-458.216
-445.356
-431.06
-416.3
-402.281
-389.892
-379.135
-370.712
-364.194
-358.527
-353.718
-349.267
-345.324
-342.279
-340.235
-339.496
-340.484
-343.457
-348.733
-356.365
-366.227
-377.954
-391.069
-405.199
-420.196
-436.079
-452.879
-470.566
-489.052
-508.234
-528.027
-548.393
-569.373
-591.127
-613.986
-638.628
-666.257
-698.707
-739.981
-797.531
-855.149
-842.942
-788.021
-679.358
-596.019
-528.115
-467.285
-414.4
-367.356
-324.967
-287.338
-254.687
-226.941
-203.909
-185.242
-170.5
-159.147
-150.599
-144.261
-139.598
-136.14
-133.536
-131.526
-129.978
-128.901
-128.349
-128.899
-131.78
-137.689
-145.325
-148.423
-142.038
-129.663
-117.351
-109.06
-106.011
-107.354
-111.137
-115.202
-117.662
-117.224
-113.334
-106.204
-96.7349
-86.0396
-75.0739
-64.1204
-53.2866
-44.7095
-36.7383
-28.2521
-20.6455
-15.0672
-9.58979
-7.47011
-1.64638
-6.58922
8.04953
-478.63
-469.902
-459.032
-446.227
-431.893
-417.011
-402.814
-390.235
-379.237
-370.684
-364.187
-358.448
-353.577
-349.032
-344.967
-341.812
-339.66
-338.82
-339.73
-342.634
-347.87
-355.492
-365.386
-377.192
-390.43
-404.715
-419.886
-435.965
-452.991
-470.935
-489.713
-509.219
-529.367
-550.12
-571.529
-593.766
-617.19
-642.531
-671.117
-704.981
-748.874
-811.755
-870.794
-847.415
-793.126
-679.156
-598.065
-529.344
-468.629
-415.898
-368.965
-326.563
-288.809
-256
-228.061
-204.865
-186.135
-171.417
-160.152
-151.728
-145.524
-140.986
-137.626
-135.097
-133.145
-131.669
-130.737
-130.442
-131.366
-134.801
-141.506
-150.443
-155.61
-150.868
-138.995
-126.556
-118.165
-115.36
-117.229
-121.565
-125.965
-128.346
-127.312
-122.316
-113.691
-102.623
-90.5104
-78.4637
-66.808
-55.674
-47.0758
-39.539
-30.8547
-22.7156
-16.7136
-10.7123
-8.3837
-1.95321
-7.03918
8.38622
-479.265
-470.693
-459.907
-447.165
-432.797
-417.801
-403.426
-390.652
-379.377
-370.652
-364.184
-358.375
-353.439
-348.807
-344.622
-341.359
-339.093
-338.143
-338.961
-341.781
-346.96
-354.556
-364.47
-376.352
-389.718
-404.168
-419.531
-435.826
-453.096
-471.319
-490.41
-510.261
-530.785
-551.946
-573.798
-596.529
-620.518
-646.547
-676.057
-711.279
-757.831
-826.386
-886.556
-853.488
-794.011
-679.139
-599.766
-530.37
-469.89
-417.344
-370.552
-328.152
-290.288
-257.296
-229.136
-205.8
-187.038
-172.38
-161.234
-152.961
-146.909
-142.501
-139.233
-136.76
-134.834
-133.393
-132.57
-132.519
-133.852
-137.9
-145.439
-155.567
-162.674
-159.658
-148.422
-135.971
-127.629
-125.274
-127.906
-132.995
-137.858
-140.194
-138.491
-132.213
-121.836
-108.901
-95.1812
-81.9312
-69.5401
-58.0623
-49.2088
-42.0276
-33.1188
-24.5632
-18.2472
-11.7853
-9.27926
-2.26934
-7.55004
8.83859
-479.937
-471.531
-460.822
-448.145
-433.748
-418.652
-404.114
-391.151
-379.571
-370.624
-364.181
-358.306
-353.306
-348.594
-344.291
-340.92
-338.537
-337.466
-338.178
-340.897
-346.003
-353.558
-363.481
-375.432
-388.928
-403.556
-419.128
-435.659
-453.195
-471.719
-491.145
-511.366
-532.288
-553.876
-576.189
-599.424
-623.977
-650.674
-681.06
-717.556
-766.741
-840.926
-901.595
-862.746
-791.523
-679.477
-601.011
-531.212
-471.055
-418.738
-372.116
-329.743
-291.758
-258.536
-230.159
-206.715
-187.958
-173.396
-162.405
-154.311
-148.426
-144.153
-140.964
-138.519
-136.579
-135.123
-134.365
-134.533
-136.313
-141.061
-149.514
-160.775
-169.669
-168.388
-157.882
-145.523
-137.4
-135.756
-139.442
-145.531
-151.015
-153.354
-150.902
-143.138
-130.694
-115.573
-100.017
-85.4424
-72.2852
-60.437
-51.0798
-44.1453
-35.0726
-26.2026
-19.6583
-12.7894
-10.1326
-2.55332
-8.13966
9.49364
-480.629
-472.395
-461.752
-449.144
-434.723
-419.545
-404.868
-391.737
-379.836
-370.609
-364.175
-358.24
-353.178
-348.395
-343.975
-340.5
-337.994
-336.791
-337.383
-339.984
-344.999
-352.496
-362.416
-374.429
-388.057
-402.875
-418.674
-435.462
-453.286
-472.133
-491.919
-512.534
-533.88
-555.917
-578.708
-602.457
-627.57
-654.908
-686.109
-723.76
-775.456
-854.494
-913.256
-874.886
-787.036
-679.943
-601.809
-531.888
-472.118
-420.075
-373.662
-331.323
-293.171
-259.689
-231.129
-207.613
-188.901
-174.478
-163.678
-155.79
-150.089
-145.949
-142.821
-140.369
-138.363
-136.831
-136.082
-136.434
-138.705
-144.264
-153.756
-166.149
-176.667
-177.057
-167.316
-155.126
-147.409
-146.793
-151.899
-159.288
-165.587
-167.993
-164.705
-155.22
-140.315
-122.616
-105.039
-89.0401
-75.0715
-62.8668
-52.7594
-45.9474
-36.78
-27.6564
-20.9483
-13.7218
-10.9354
-2.79869
-8.78131
10.3164
-481.316
-473.268
-462.688
-450.154
-435.715
-420.47
-405.68
-392.41
-380.183
-370.618
-364.164
-358.175
-353.055
-348.212
-343.676
-340.099
-337.465
-336.119
-336.577
-339.04
-343.947
-351.37
-361.273
-373.342
-387.104
-402.121
-418.166
-435.232
-453.367
-472.562
-492.732
-513.766
-535.56
-558.07
-581.356
-605.628
-631.296
-659.244
-691.184
-729.852
-783.923
-866.683
-919.59
-887.194
-782.482
-680.354
-602.203
-532.398
-473.069
-421.358
-375.184
-332.86
-294.485
-260.753
-232.04
-208.495
-189.875
-175.634
-165.065
-157.414
-151.909
-147.901
-144.808
-142.303
-140.166
-138.482
-137.674
-138.163
-140.977
-147.494
-158.19
-171.772
-183.76
-185.683
-176.665
-164.678
-157.565
-158.359
-165.329
-174.379
-181.726
-184.288
-180.077
-168.592
-150.763
-130.094
-110.39
-92.8682
-77.9884
-65.3677
-54.4444
-47.6109
-38.319
-28.9457
-22.1226
-14.5869
-11.6847
-3.0184
-9.42107
11.2012
-481.969
-474.145
-463.637
-451.187
-436.735
-421.435
-406.549
-393.167
-380.617
-370.661
-364.148
-358.109
-352.937
-348.046
-343.397
-339.721
-336.953
-335.452
-335.759
-338.067
-342.847
-350.179
-360.052
-372.168
-386.064
-401.291
-417.6
-434.966
-453.435
-473.002
-493.583
-515.063
-537.332
-560.338
-584.137
-608.94
-635.153
-663.674
-696.27
-735.818
-792.224
-877.804
-920.324
-895.013
-778.339
-680.525
-602.243
-532.732
-473.909
-422.589
-376.659
-334.294
-295.674
-261.715
-232.889
-209.363
-190.885
-176.876
-166.58
-159.196
-153.903
-150.018
-146.928
-144.313
-141.967
-140.036
-139.086
-139.655
-143.073
-150.735
-162.85
-177.731
-191.054
-194.3
-185.871
-174.056
-167.742
-170.401
-179.767
-190.905
-199.577
-202.416
-197.211
-183.406
-162.115
-138.244
-116.211
-96.9863
-81.0241
-67.8529
-56.2317
-49.1559
-39.6675
-30.0631
-23.1785
-15.3868
-12.3778
-3.22737
-10.0116
12.0489
-482.609
-475.028
-464.614
-452.259
-437.801
-422.45
-407.479
-394.009
-381.144
-370.745
-364.128
-358.041
-352.824
-347.898
-343.137
-339.368
-336.46
-334.791
-334.932
-337.063
-341.699
-348.922
-358.751
-370.906
-384.936
-400.382
-416.971
-434.661
-453.488
-473.452
-494.471
-516.424
-539.194
-562.719
-587.048
-612.389
-639.136
-668.187
-701.347
-741.631
-800.406
-888.638
-918.006
-896.442
-774.01
-680.294
-601.959
-532.891
-474.644
-423.739
-378.024
-335.579
-296.727
-262.568
-233.672
-210.219
-191.938
-178.213
-168.236
-161.153
-156.083
-152.312
-149.184
-146.392
-143.742
-141.451
-140.26
-140.833
-144.936
-153.976
-167.781
-184.125
-198.674
-202.959
-194.871
-183.112
-177.777
-182.823
-195.207
-208.923
-219.242
-222.524
-216.285
-199.921
-174.613
-147.228
-122.468
-101.286
-84.0618
-70.2321
-57.9556
-50.3731
-40.6989
-30.982
-24.1119
-16.123
-13.0126
-3.43536
-10.5278
12.8003
-483.249
-475.923
-465.634
-453.38
-438.923
-423.525
-408.475
-394.937
-381.765
-370.875
-364.103
-357.97
-352.717
-347.77
-342.901
-339.041
-335.989
-334.139
-334.097
-336.031
-340.501
-347.598
-357.368
-369.553
-383.714
-399.388
-416.275
-434.311
-453.522
-473.91
-495.392
-517.845
-541.144
-565.212
-590.088
-615.97
-643.235
-672.769
-706.391
-747.242
-808.377
-900.106
-916.478
-893.338
-769.435
-679.562
-601.381
-532.885
-475.235
-424.745
-379.228
-336.699
-297.629
-263.304
-234.389
-211.064
-193.039
-179.656
-170.047
-163.298
-158.464
-154.793
-151.58
-148.53
-145.466
-142.678
-141.128
-141.612
-146.502
-157.215
-173.042
-191.069
-206.76
-211.725
-203.595
-191.666
-187.45
-195.459
-211.555
-228.394
-240.728
-244.688
-237.379
-218.305
-188.648
-157.034
-129.044
-105.66
-87.0401
-72.4534
-59.4879
-51.1052
-41.286
-31.6839
-24.9266
-16.7994
-13.5887
-3.64691
-10.9592
13.428
-483.898
-476.834
-466.703
-454.557
-440.106
-424.663
-409.542
-395.956
-382.489
-371.058
-364.07
-357.895
-352.614
-347.663
-342.688
-338.745
-335.54
-333.495
-333.253
-334.968
-339.254
-346.206
-355.902
-368.107
-382.398
-398.305
-415.508
-433.913
-453.534
-474.371
-496.343
-519.326
-543.179
-567.814
-593.251
-619.677
-647.44
-677.399
-711.375
-752.596
-815.852
-912.685
-918.292
-887.596
-764.701
-678.289
-600.525
-532.675
-475.603
-425.562
-380.244
-337.634
-298.369
-263.917
-235.036
-211.903
-194.196
-181.215
-172.025
-165.648
-161.062
-157.472
-154.119
-150.72
-147.113
-143.665
-141.617
-141.893
-147.705
-160.456
-178.716
-198.702
-215.475
-220.68
-211.966
-199.506
-196.472
-208.043
-228.578
-249.11
-263.875
-268.855
-260.577
-238.701
-204.327
-167.59
-135.861
-110.062
-89.952
-74.4765
-60.8379
-51.3317
-41.3742
-32.1731
-25.6345
-17.4228
-14.1085
-3.86423
-11.3011
13.9216
-484.568
-477.764
-467.825
-455.792
-441.354
-425.87
-410.685
-397.071
-383.32
-371.304
-364.027
-357.816
-352.518
-347.579
-342.501
-338.482
-335.118
-332.863
-332.401
-333.875
-337.956
-344.743
-354.352
-366.566
-380.984
-397.131
-414.664
-433.461
-453.517
-474.831
-497.322
-520.861
-545.296
-570.519
-596.532
-623.5
-651.736
-682.057
-716.265
-757.61
-822.025
-923.643
-922.474
-880.288
-759.986
-676.467
-599.341
-532.163
-475.696
-426.164
-381.052
-338.366
-298.933
-264.401
-235.612
-212.734
-195.413
-182.898
-174.183
-168.217
-163.892
-160.363
-156.808
-152.952
-148.657
-144.355
-141.648
-141.564
-148.475
-163.72
-184.912
-207.201
-225.016
-229.924
-219.903
-206.39
-204.488
-220.195
-245.863
-270.633
-288.285
-294.775
-285.968
-261.412
-221.461
-178.747
-142.842
-114.437
-92.7483
-76.2961
-62.0307
-51.1882
-40.9998
-32.4862
-26.2547
-18.0027
-14.578
-4.08951
-11.5547
14.2792
-485.244
-478.726
-469.001
-457.091
-442.673
-427.152
-411.909
-398.286
-384.264
-371.621
-363.973
-357.736
-352.428
-347.518
-342.342
-338.256
-334.724
-332.244
-331.544
-332.753
-336.607
-343.21
-352.716
-364.929
-379.468
-395.86
-413.739
-432.95
-453.468
-475.286
-498.323
-522.446
-547.489
-573.322
-599.921
-627.427
-656.107
-686.719
-721.021
-762.214
-826.132
-928.651
-928.655
-870.967
-755.19
-674.063
-597.739
-531.308
-475.503
-426.525
-381.629
-338.876
-299.309
-264.749
-236.113
-213.557
-196.69
-184.711
-176.531
-171.021
-166.97
-163.479
-159.653
-155.221
-150.074
-144.688
-141.133
-140.494
-148.74
-167.045
-191.774
-216.787
-235.616
-239.591
-227.329
-212.065
-211.11
-231.461
-262.854
-292.321
-313.303
-321.923
-313.417
-286.494
-239.817
-190.309
-149.857
-118.684
-95.3558
-77.9087
-63.0601
-50.9672
-40.3166
-32.6866
-26.8096
-18.5496
-15.0058
-4.32568
-11.7273
14.5045
-485.945
-479.725
-470.232
-458.456
-444.067
-428.513
-413.22
-399.604
-385.326
-372.026
-363.906
-357.658
-352.343
-347.484
-342.213
-338.068
-334.361
-331.641
-330.681
-331.6
-335.205
-341.604
-350.991
-363.192
-377.849
-394.489
-412.726
-432.375
-453.381
-475.731
-499.342
-524.077
-549.753
-576.216
-603.409
-631.444
-660.534
-691.361
-725.607
-766.47
-828.583
-924.338
-932.9
-860.71
-750.036
-671.132
-595.703
-530.107
-475.01
-426.624
-381.953
-339.146
-299.484
-264.953
-236.533
-214.367
-198.027
-186.657
-179.079
-174.072
-170.311
-166.836
-162.664
-157.522
-151.343
-144.601
-139.983
-138.537
-148.43
-170.491
-199.494
-227.74
-247.566
-249.855
-234.197
-216.31
-215.992
-241.445
-279.011
-313.494
-338.125
-349.56
-342.407
-313.517
-259.03
-201.994
-156.71
-122.678
-97.7141
-79.2993
-63.9063
-50.8565
-39.5193
-32.8445
-27.3246
-19.0754
-15.4024
-4.57661
-11.8305
14.6052
-486.675
-480.765
-471.518
-459.889
-445.537
-429.958
-414.623
-401.027
-386.507
-372.538
-363.827
-357.587
-352.264
-347.476
-342.117
-337.925
-334.033
-331.054
-329.813
-330.417
-333.75
-339.924
-349.177
-361.354
-376.124
-393.013
-411.621
-431.729
-453.25
-476.16
-500.373
-525.747
-552.08
-579.193
-606.986
-635.538
-664.998
-695.964
-729.997
-770.472
-830.667
-911.6
-930.652
-849.795
-744.458
-667.639
-593.23
-528.564
-474.209
-426.437
-382.001
-339.156
-299.446
-265.003
-236.862
-215.155
-199.418
-188.736
-181.832
-177.382
-173.933
-170.449
-165.853
-159.854
-152.447
-144.028
-138.107
-135.528
-147.484
-174.154
-208.317
-240.417
-261.23
-260.952
-240.508
-218.955
-218.897
-249.939
-294.003
-333.645
-362.005