/*--------------------------------*- C++ -*----------------------------------*\
| =========                 |                                                 |
| \\      /  F ield         | OpenFOAM: The Open Source CFD Toolbox           |
|  \\    /   O peration     | Version:  4.1                                   |
|   \\  /    A nd           | Web:      www.OpenFOAM.org                      |
|    \\/     M anipulation  |                                                 |
\*---------------------------------------------------------------------------*/
FoamFile
{
    version     2.0;
    format      ascii;
    class       surfaceScalarField;
    location    "1000";
    object      phi;
}
// * * * * * * * * * * * * * * * * * * * * * * * * * * * * * * * * * * * * * //

dimensions      [0 3 -1 0 0 0 0];

internalField   nonuniform List<scalar> 
52920
(
-2297.38
-18.5043
-2256.91
-40.4609
-2185.24
-71.6623
-2088.17
-97.0563
-1967.58
-120.57
-1829.11
-138.451
-1678.16
-150.931
-1517.91
-160.246
-1350.65
-167.236
-1182.16
-168.47
-1019.83
-162.303
-876.317
-143.487
-775.81
-100.476
-743.625
-32.1483
-784.637
41.0505
-884.346
99.7453
-1034.51
150.191
-1235.21
200.735
-1484.75
249.553
-1775.77
291.049
-2098.76
323.005
-2443.36
344.619
-2799.55
356.201
-3158.58
359.05
-3514.37
355.8
-3864.51
350.154
-4210.22
345.72
-4555.14
344.926
-4903.98
348.854
-5261.73
357.757
-5633.29
371.575
-6023.46
390.18
-6436.8
413.343
-6877.45
440.658
-7348.99
471.546
-7854.33
505.348
-8395.67
541.353
-8974.19
578.518
-9588.82
614.64
-10233.8
644.941
-10893.8
660.092
-11537.5
643.632
-12107.8
570.333
-12523.2
415.365
-12711.6
188.405
-12669.3
-42.2428
-12448.2
-221.098
-12095.6
-352.65
-11655.1
-440.431
-11162.5
-492.606
-10644.6
-517.947
-10121.8
-522.736
-9608.39
-513.443
-9112.97
-495.418
-8640.51
-472.454
-8193.75
-446.763
-7774.25
-419.492
-7382.75
-391.504
-7019.02
-363.725
-6681.85
-337.175
-6368.94
-312.903
-6077.09
-291.848
-5802.32
-274.775
-5539.98
-262.341
-5284.62
-255.354
-5029.5
-255.125
-4765.72
-263.773
-4481.28
-284.439
-4159.81
-321.475
-3779.98
-379.831
-3318.94
-461.032
-2764.72
-554.221
-2125.64
-639.08
-1405.81
-719.838
-479.257
-926.546
603.312
-1082.57
1687.78
-1084.47
2724.84
-1037.05
3697.4
-972.56
4583.14
-885.743
5373.83
-790.687
6068.87
-695.04
6673.09
-604.215
7195.89
-522.802
7650.43
-454.541
8052.72
-402.289
8420.76
-368.041
8773.78
-353.021
9131.28
-357.5
9511.35
-380.07
9928.4
-417.043
10391.1
-462.709
10901.2
-510.077
11453.9
-552.721
12039.7
-585.826
12647.6
-607.876
13266.2
-618.612
13885.6
-619.432
14504.4
-618.762
-593.431
-2370.89
-16.907
-2343.3
-68.0407
-2286.46
-128.487
-2205.01
-178.488
-2102.13
-223.434
-1984.37
-256.2
-1858.29
-276.994
-1727.67
-290.853
-1594.09
-300.793
-1460.42
-302.126
-1328.46
-294.235
-1200.99
-270.936
-1088.22
-213.226
-1011.26
-109.082
-991.475
21.2958
-1035.02
143.315
-1142.11
257.309
-1311.05
369.701
-1534.59
473.114
-1803.27
559.746
-2106.89
626.642
-2434.67
672.413
-2775.93
697.475
-3121.36
704.498
-3464.79
699.246
-3804.37
689.745
-4142.06
683.421
-4481.83
684.708
-4828
695.036
-5184.61
714.37
-5555.53
742.508
-5944.8
779.457
-6356.64
825.194
-6795.31
879.342
-7264.87
941.108
-7768.94
1009.43
-8310.6
1083.02
-8891.96
1159.89
-9513
1235.68
-10168.9
1300.86
-10845.3
1336.52
-11510.6
1308.93
-12106.2
1165.91
-12546.3
855.453
-12754.1
396.229
-12724.3
-72.0154
-12513.2
-432.236
-12171
-694.827
-11739.2
-872.224
-11251.3
-980.515
-10733.8
-1035.44
-10207.5
-1049.01
-9686.9
-1034.06
-9181.06
-1001.26
-8695.21
-958.305
-8232.29
-909.68
-7794.13
-857.648
-7381.79
-803.845
-6995.5
-750.005
-6634.6
-698.079
-6297.38
-650.124
-5981.17
-608.057
-5682.42
-573.518
-5396.8
-547.965
-5119.04
-533.113
-4842.55
-531.611
-4558.54
-547.783
-4254.59
-588.394
-3912.74
-663.32
-3508.57
-784.012
-3014.51
-955.091
-2409.03
-1159.7
-1679.76
-1368.35
-803.151
-1596.45
173.322
-1903.02
1182.68
-2091.93
2197.84
-2099.62
3178.81
-2018.03
4093.27
-1887.02
4927.23
-1719.7
5672.31
-1535.76
6326.32
-1349.05
6893.01
-1170.91
7381.2
-1010.99
7803.74
-877.073
8176.48
-775.035
8517.46
-709.015
8846.04
-681.601
9181.98
-693.445
9543.59
-741.682
9945.19
-818.639
10394.9
-912.407
10893.3
-1008.52
11434.4
-1093.84
12007.5
-1158.93
12600.7
-1201.06
13202.5
-1220.35
13803.1
-1220.09
14399.1
-1214.69
-1165.19
-2426.32
-2.78761
-2406.83
-87.5297
-2359.41
-175.9
-2287.62
-250.263
-2195.85
-315.187
-2091.66
-360.38
-1982.97
-385.668
-1874.88
-398.934
-1769.89
-405.772
-1671
-401.003
-1579.11
-386.102
-1493.88
-356.148
-1418.07
-289.02
-1360.62
-166.52
-1337.27
-2.03425
-1357.67
163.737
-1428.38
328.033
-1554.81
496.141
-1734.2
652.516
-1960.15
785.713
-2223.85
890.353
-2514.64
963.214
-2821.12
1003.97
-3133.23
1016.62
-3444.96
1010.98
-3755.87
1000.66
-4069.96
997.526
-4392.62
1007.38
-4728.13
1030.56
-5079.22
1065.46
-5447.88
1111.18
-5836.35
1167.94
-6247.59
1236.43
-6685.21
1316.97
-7153.31
1409.22
-7656.15
1512.27
-8197.83
1624.71
-8781.75
1743.8
-9409.24
1863.18
-10076.9
1968.5
-10771.3
2030.97
-11460.9
1998.52
-12084.7
1789.65
-12550.6
1321.45
-12774.9
620.513
-12751.7
-95.2043
-12544.8
-639.16
-12208.3
-1031.33
-11782.1
-1298.44
-11297.4
-1465.2
-10780.2
-1552.59
-10251.5
-1577.71
-9725.96
-1559.63
-9212.94
-1514.28
-8717.88
-1453.37
-8243.88
-1383.68
-7792.92
-1308.6
-7366.31
-1230.46
-6964.52
-1151.79
-6587.17
-1075.43
-6232.82
-1004.47
-5899.04
-941.843
-5582.43
-890.125
-5278.72
-851.668
-4982.66
-829.172
-4687.66
-826.613
-4385.03
-850.418
-4062.45
-910.97
-3701.7
-1024.07
-3276.9
-1208.81
-2756.68
-1475.31
-2113.32
-1803.07
-1335.38
-2146.29
-417.979
-2513.84
570.276
-2891.27
1565.22
-3086.88
2546.63
-3081.03
3488.59
-2959.98
4365.67
-2764.11
5163.79
-2517.82
5874.81
-2246.78
6497.08
-1971.31
7034.66
-1708.48
7496.36
-1472.7
7894.86
-1275.57
8245.78
-1125.96
8567.01
-1030.24
8878
-992.587
9198.87
-1014.32
9548.41
-1091.22
9941.13
-1211.35
10384.7
-1355.98
10878.6
-1502.42
11415.1
-1630.39
11982.2
-1725.96
12566.8
-1785.7
13157.2
-1810.74
13744.1
-1806.93
14323
-1793.66
-1719.16
-2465.52
17.6015
-2451.16
-101.887
-2409.29
-217.753
-2342.97
-316.569
-2257.46
-400.683
-2161.32
-456.507
-2063.84
-483.133
-1971.54
-491.226
-1888.11
-489.185
-1817.45
-471.65
-1760.86
-442.674
-1717.48
-399.503
-1687.69
-318.79
-1674.55
-179.646
-1683.88
7.31155
-1719.68
199.552
-1788.64
397.011
-1897.8
605.315
-2048.11
802.844
-2237.28
974.89
-2459.54
1112.63
-2706.02
1209.71
-2966.02
1263.98
-3229.91
1280.54
-3492.97
1274.05
-3757.41
1265.11
-4030.66
1270.79
-4320.82
1297.55
-4633.17
1342.92
-4969.67
1401.97
-5330.41
1471.93
-5715.35
1552.89
-6125.28
1646.37
-6562.21
1753.91
-7029.37
1876.39
-7531
2013.91
-8071.93
2165.65
-8656.92
2328.8
-9289.15
2495.42
-9967.22
2646.58
-10679.7
2743.43
-11395.6
2714.45
-12051.5
2445.6
-12547.3
1817.22
-12788
861.232
-12766.9
-116.386
-12557.9
-848.112
-12221.3
-1367.97
-11796.1
-1723.54
-11311.3
-1950.05
-10792
-2071.86
-10259.3
-2110.43
-9727.96
-2090.97
-9207.56
-2034.68
-8703.56
-1957.36
-8219.14
-1868.11
-7756.4
-1771.33
-7316.85
-1670.02
-6901.22
-1567.42
-6509.34
-1467.31
-6140
-1373.81
-5790.91
-1290.93
-5458.81
-1222.22
-5139.52
-1170.96
-4827.88
-1140.81
-4517.5
-1137
-4199.91
-1168.01
-3862.94
-1247.94
-3488.03
-1398.98
-3048.01
-1648.83
-2508.43
-2014.89
-1837.82
-2473.68
-1023.62
-2960.49
-83.9332
-3453.53
899.566
-3874.77
1879.84
-4067.15
2839.84
-4041.03
3754.77
-3874.9
4603.43
-3612.77
5372.83
-3287.22
6055.69
-2929.64
6650.87
-2566.49
7162.75
-2220.37
7600.34
-1910.29
7976.36
-1651.59
8306.51
-1456.11
8608.76
-1332.49
8902.89
-1286.71
9209.7
-1321.13
9548.8
-1430.32
9935.11
-1597.66
10375.9
-1796.74
10869.1
-1995.68
11405.2
-2166.45
11970
-2290.79
12549.6
-2365.3
13131.8
-2392.91
13707.7
-2382.8
14272.8
-2358.8
-2257.69
-2493.1
40.9572
-2482.11
-112.865
-2443.6
-256.259
-2380.3
-379.86
-2298.05
-482.911
-2206.42
-548.138
-2116
-573.54
-2034.71
-572.499
-1967.37
-556.521
-1918.65
-520.357
-1890.29
-471.017
-1881.51
-408.27
-1892.36
-307.922
-1923.84
-148.153
-1972.61
56.097
-2039.28
266.233
-2130.4
488.148
-2248.74
723.657
-2394.93
949.042
-2567.59
1147.57
-2762.55
1307.59
-2972.43
1419.6
-3187.91
1479.46
-3400.95
1493.58
-3609.22
1482.32
-3818.47
1474.37
-4040.12
1492.45
-4285.7
1543.13
-4562.52
1619.74
-4873.06
1712.53
-5216.7
1815.57
-5591.66
1927.86
-5996.55
2051.26
-6431.16
2188.53
-6896.98
2342.21
-7397.27
2514.21
-7936.94
2705.32
-8521.83
2913.7
-9157.16
3130.75
-9844.24
3333.67
-10574.5
3473.73
-11318.9
3458.84
-12011.5
3138.16
-12541.2
2346.98
-12798.1
1118.14
-12773.7
-140.875
-12555.5
-1066.3
-12211.8
-1711.66
-11782
-2153.3
-11292.1
-2439.93
-10766.8
-2597.21
-10227
-2650.18
-9687.79
-2630.21
-9158.63
-2563.83
-8644.89
-2471.09
-8149.66
-2363.35
-7675.11
-2245.87
-7222.91
-2122.21
-6794.03
-1996.3
-6388.53
-1872.81
-6005.37
-1756.97
-5642.41
-1653.88
-5296.5
-1568.13
-4963.56
-1503.9
-4638.58
-1465.78
-4315.49
-1460.09
-3986.32
-1497.18
-3639.33
-1594.92
-3255.87
-1782.43
-2807.47
-2097.23
-2256.15
-2566.21
-1567.41
-3162.42
-731.892
-3796.01
216.439
-4401.87
1195.9
-4854.23
2167.28
-5038.54
3112.06
-4985.81
4006.75
-4769.59
4832.46
-4438.48
5577.25
-4032.01
6234.83
-3587.22
6804.78
-3136.43
7291.95
-2707.54
7705.7
-2324.03
8058.99
-2004.88
8367.72
-1764.85
8650.15
-1614.92
8926.57
-1563.13
9218.82
-1613.38
9547.73
-1759.24
9928.93
-1978.85
10369.2
-2237.05
10865
-2491.41
11403.9
-2705.38
11969.7
-2856.61
12547.1
-2942.73
13123.6
-2969.37
13690.8
-2949.98
14244.5
-2912.47
-2782.94
-2511.48
61.6571
-2503.66
-120.682
-2466.99
-292.915
-2405.22
-441.619
-2324.28
-563.826
-2234.7
-637.71
-2148.4
-659.827
-2074.69
-646.195
-2019.31
-611.889
-1987.45
-552.202
-1980.86
-477.595
-1998.63
-390.481
-2041.2
-265.33
-2108.31
-81.0278
-2190.4
138.2
-2288.08
363.929
-2407.95
608.032
-2547.61
863.332
-2705.54
1106.98
-2878.88
1320.92
-3062.85
1491.58
-3250.25
1607.01
-3432.65
1661.87
-3603.77
1664.72
-3763.96
1642.52
-3922.21
1632.62
-4093.11
1663.37
-4290.95
1740.98
-4525.38
1854.19
-4800.76
1987.92
-5117.48
2132.3
-5473.68
2284.07
-5866.79
2444.37
-6294.69
2616.44
-6756.81
2804.33
-7254.74
3012.15
-7792.61
3243.2
-8376.72
3497.81
-9014.12
3768.14
-9709.22
4028.78
-10457.3
4221.86
-11232.3
4233.84
-11966.1
3871.96
-12534.3
2915.11
-12806.5
1390.35
-12771.5
-175.826
-12534.4
-1303.46
-12174.2
-2071.8
-11731.6
-2595.9
-11229.5
-2942.03
-10692.1
-3134.65
-10140.6
-3201.67
-9589.99
-3180.79
-9049.75
-3104.08
-8524.76
-2996.07
-8017.85
-2870.26
-7531.1
-2732.61
-7066.27
-2587.05
-6624.47
-2438.09
-6205.95
-2291.34
-5809.82
-2153.1
-5434.07
-2029.63
-5075.66
-1926.54
-4730.68
-1848.88
-4394.43
-1802.03
-4061.37
-1793.15
-3724.43
-1834.13
-3372.83
-1946.52
-2988.24
-2167.02
-2540.81
-2544.67
-1987.97
-3119.06
-1291.05
-3859.33
-443.77
-4643.29
506.662
-5352.3
1482.5
-5830.06
2447.3
-6003.33
3380.21
-5918.72
4258.4
-5647.78
5064.27
-5244.35
5786.75
-4754.5
6420.49
-4220.95
6965.76
-3681.71
7428.02
-3169.8
7817.08
-2713.09
8146.33
-2334.13
8432.04
-2050.55
8692.85
-1875.73
8949.83
-1820.11
9226.23
-1889.77
9544.61
-2077.62
9921.6
-2355.85
10363.6
-2679.06
10864.8
-2992.6
11409.8
-3250.43
11979.6
-3426.4
12557.5
-3520.56
13130.4
-3542.32
13690.9
-3510.48
14235
-3456.53
-3296.82
-2524.68
85.1889
-2517.99
-127.358
-2482.64
-328.265
-2421.31
-502.936
-2340.33
-644.791
-2251.01
-727.027
-2166.61
-744.216
-2097.86
-714.938
-2051.3
-658.434
-2032.32
-571.172
-2042.19
-467.704
-2079.7
-352.958
-2145.75
-199.27
-2236.5
9.73789
-2342.32
244.029
-2466.27
487.893
-2611.52
753.288
-2773.12
1024.94
-2947.25
1281.11
-3129.02
1502.69
-3312.22
1674.79
-3488.99
1783.79
-3651.29
1824.17
-3794.28
1807.72
-3920.41
1768.66
-4040.63
1752.85
-4170.94
1793.68
-4326.76
1896.8
-4519.44
2046.88
-4755.7
2224.19
-5038.37
2414.97
-5367.27
2612.98
-5740.32
2817.42
-6154.73
3030.86
-6608.41
3258.02
-7101.25
3504.99
-7636.07
3778.02
-8218.93
4080.68
-8858.15
4407.37
-9561.17
4731.8
-10327.7
4988.43
-11135.8
5041.9
-11915.4
4651.55
-12525.2
3524.95
-12808.6
1673.73
-12750.8
-233.588
-12479
-1575.32
-12087.1
-2463.63
-11617.8
-3065.27
-11090.8
-3468.97
-10530.5
-3694.96
-9958.66
-3773.51
-9390.37
-3749.07
-8834.6
-3659.85
-8295.51
-3535.16
-7775.3
-3390.47
-7275.8
-3232.11
-6798.68
-3064.17
-6345.05
-2891.71
-5915.17
-2721.22
-5508.17
-2560.1
-5122.12
-2415.68
-4754.11
-2294.55
-4400.54
-2202.45
-4057.25
-2145.32
-3719.66
-2130.75
-3382.11
-2171.67
-3035.55
-2293.08
-2662.36
-2540.21
-2230.75
-2976.27
-1691.46
-3658.35
-999.597
-4551.19
-149.854
-5493.03
798.065
-6300.22
1770.3
-6802.3
2730
-6963.03
3653.39
-6842.11
4517.59
-6511.98
5305.64
-6032.39
6007.13
-5455.99
6617.49
-4831.31
7137.74
-4201.96
7574.01
-3606.07
7936.75
-3075.83
8239.89
-2637.27
8500.21
-2310.87
8736.9
-2112.43
8971.99
-2055.2
9230.6
-2148.38
9537.62
-2384.65
9911.05
-2729.27
10356.8
-3124.83
10866.5
-3502.23
11420.8
-3804.8
11997.5
-4003.06
12578.2
-4101.24
13149.6
-4113.77
13705.3
-4066.14
14241.3
-3992.58
-3801.14
-2533.19
110.131
-2527.33
-133.204
-2492.7
-362.882
-2431.1
-564.524
-2349.04
-726.832
-2258.58
-817.484
-2174.33
-828.447
-2108.49
-780.769
-2068.3
-698.608
-2059.02
-580.437
-2081.03
-445.684
-2132.67
-301.299
-2215.77
-116.154
-2320.74
114.731
-2441.28
364.583
-2584.72
631.348
-2748.93
917.506
-2928.02
1204.05
-3116.46
1469.55
-3307.73
1693.97
-3494.36
1861.43
-3667.89
1957.32
-3820.49
1976.79
-3948.37
1935.6
-4055.09
1875.38
-4152.07
1849.85
-4254.92
1896.55
-4378.7
2020.59
-4535.39
2203.57
-4733.68
2422.49
-4979.21
2660.5
-5274.56
2908.35
-5619.69
3162.56
-6012.73
3423.9
-6451.36
3696.66
-6934.51
3988.14
-7463.81
4307.34
-8044.7
4661.57
-8686.1
5048.76
-9397.9
5443.61
-10184.4
5774.89
-11028
5885.6
-11856.8
5480.31
-12507.7
4175.9
-12789.9
1955.85
-12685.6
-337.881
-12351.1
-1909.79
-11900.5
-2914.2
-11378.5
-3587.25
-10802.6
-4044.88
-10198.3
-4299.25
-9588.84
-4382.99
-8989.46
-4348.46
-8408.22
-4241.09
-7847.88
-4095.5
-7309.63
-3928.71
-6794.83
-3746.91
-6304.95
-3554.06
-5840.99
-3355.67
-5403.08
-3159.13
-4990.26
-2972.91
-4600.61
-2805.33
-4231.48
-2663.68
-3879.8
-2554.13
-3542.28
-2482.84
-3215.66
-2457.36
-2896.23
-2491.1
-2577.06
-2612.25
-2241.07
-2876.2
-1852.63
-3364.71
-1351.66
-4159.32
-681.625
-5221.22
159.836
-6334.49
1098.99
-7239.37
2066.03
-7769.34
3021.66
-7918.67
3937.29
-7757.74
4789.25
-7363.94
5560.77
-6803.91
6241.88
-6137.1
6828.67
-5418.1
7322.92
-4696.21
7731.51
-4014.66
8065.65
-3409.97
8340.01
-2911.62
8571.96
-2542.83
8781.39
-2321.85
8991.45
-2265.26
9229.66
-2386.59
9523.94
-2678.92
9894.06
-3099.39
10345.5
-3576.26
10866.6
-4023.34
11433.6
-4371.84
12020.1
-4589.56
12606.2
-4687.27
13178.1
-4685.72
13730.8
-4618.81
14260.3
-4522.07
-4297.8
-2538.41
135.765
-2533.24
-138.368
-2498.92
-397.202
-2436.51
-626.922
-2352.53
-810.799
-2259.74
-910.269
-2174.18
-913.993
-2109.59
-845.356
-2073.82
-734.364
-2071.71
-582.533
-2102.41
-414.972
-2163.83
-239.865
-2257.27
-22.7
-2370.12
227.596
-2500.15
494.627
-2656.29
787.492
-2833.22
1094.44
-3024.48
1395.32
-3223.46
1668.54
-3422.68
1893.2
-3613.98
2052.74
-3788.65
2132
-3939.2
2127.35
-4062.33
2058.74
-4161.68
1974.74
-4247.83
1936
-4334.86
1983.58
-4436.5
2122.24
-4564.56
2331.64
-4728.93
2586.87
-4937.57
2869.14
-5196.02
3166.8
-5507.09
3473.64
-5871.18
3788
-6287.33
4112.81
-6754.74
4455.56
-7274.68
4827.28
-7852.02
5238.91
-8495.77
5692.52
-9217.54
6165.38
-10025.4
6582.78
-10906.5
6766.67
-11784.6
6358.4
-12467.6
4858.9
-12719.7
2207.99
-12525.6
-531.986
-12082.1
-2353.31
-11529.4
-3466.87
-10913.3
-4203.42
-10249.8
-4708.34
-9567.92
-4981.13
-8893.36
-5057.55
-8241.63
-5000.18
-7618.84
-4863.87
-7025.09
-4689.25
-6459.67
-4494.12
-5923.06
-4283.51
-5416.55
-4060.58
-4941.22
-3830.99
-4497.4
-3602.95
-4084.47
-3385.84
-3701.06
-3188.74
-3345.33
-3019.41
-3015.43
-2884.04
-2709.57
-2788.69
-2426.37
-2740.56
-2164.29
-2753.18
-1918.18
-2858.36
-1669.4
-3124.98
-1373.19
-3660.91
-951.469
-4581.05
-330.326
-5842.37
485.732
-7150.55
1411.82
-8165.46
2374
-8731.52
3326.35
-8871.02
4235.6
-8666.99
5076.67
-8205.01
5832.55
-7559.79
6493.47
-6798.02
7056.07
-5980.71
7522.87
-5163
7901.58
-4393.38
8204.35
-3712.74
8446.68
-3153.95
8646.7
-2742.85
8825.03
-2500.17
9006.12
-2446.36
9220.4
-2600.87
9499.69
-2958.21
9866.13
-3465.83
10325
-4035.09
10860.9
-4559.31
11444.5
-4955.46
12044.3
-5189.35
12638.4
-5281.37
13212.9
-5260.13
13764.3
-5170.27
14288.5
-5046.27
-4788.79
-2541.54
161.937
-2536.99
-142.909
-2502.7
-431.479
-2439.08
-690.527
-2352.45
-897.41
-2256.25
-1006.46
-2168.03
-1002.2
-2103.23
-910.146
-2070.3
-767.279
-2073.42
-579.395
-2110.44
-377.94
-2178.91
-171.378
-2276.41
74.8191
-2392.12
343.331
-2528.79
631.31
-2692.35
951.058
-2876.96
1279.06
-3075.83
1594.2
-3281.83
1874.56
-3487.1
2098.48
-3683.37
2249.01
-3862.13
2310.77
-4016.25
2281.48
-4142.43
2184.93
-4243.51
2075.83
-4328.28
2020.78
-4408.69
2064
-4496.78
2210.33
-4603.59
2438.46
-4739.4
2722.7
-4913.7
3043.45
-5134.51
3387.62
-5407.69
3746.83
-5736.73
4117.05
-6123.24
4499.33
-6568.17
4900.5
-7073.52
5332.64
-7644.14
5809.53
-8288.96
6337.35
-9020.53
6896.95
-9849.94
7412.2
-10767.6
7684.31
-11689.4
7280.21
-12381.4
5550.93
-12550.4
2377
-12200.6
-881.781
-11587.3
-2966.6
-10882.2
-4171.99
-10127.6
-4958.06
-9339.33
-5496.56
-8551
-5769.45
-7790.95
-5817.61
-7074.02
-5717.11
-6402.57
-5535.32
-5771.96
-5319.86
-5177.79
-5088.29
-4618.5
-4842.8
-4094.68
-4584.39
-3607.62
-4318.05
-3158.48
-4052.09
-2747.97
-3796.34
-2376.45
-3560.26
-2043.92
-3351.93
-1750.36
-3177.61
-1495.97
-3043.08
-1282.89
-2953.65
-1115.28
-2920.78
-993.504
-2980.14
-896.805
-3221.68
-761.056
-3796.66
-475.229
-4866.87
62.3066
-6379.9
834.616
-7922.86
1741.34
-9072.19
2697.48
-9687.65
3646.92
-9820.46
4550.85
-9570.92
5382.12
-9036.28
6123
-8300.66
6763.67
-7438.69
7301.18
-6518.22
7738.74
-5600.55
8085.02
-4739.66
8353.18
-3980.9
8559.76
-3360.52
8723.72
-2906.82
8866.39
-2642.84
9013.56
-2593.53
9199.09
-2786.4
9459.84
-3218.97
9821.65
-3827.64
10290.2
-4503.69
10845.9
-5114.92
11451.2
-5560.76
12068
-5806.22
12672.6
-5885.98
13250.9
-5838.38
13802.5
-5721.87
14322.2
-5565.94
-5276.32
-2543.53
188.341
-2539.57
-146.862
-2505.25
-465.798
-2440.13
-755.638
-2350.23
-987.293
-2249.57
-1107.12
-2157.37
-1094.4
-2091.02
-976.484
-2059.67
-798.619
-2066.64
-572.41
-2108.24
-336.332
-2181.78
-97.816
-2279.63
172.678
-2394.66
458.376
-2534.79
771.452
-2701.91
1118.18
-2890.41
1467.57
-3093.4
1797.2
-3303.66
2084.82
-3513.36
2308.19
-3714.61
2450.26
-3899.45
2495.61
-4061.09
2443.12
-4195.89
2319.75
-4305.3
2185.24
-4395.9
2111.4
-4477.37
2145.46
-4559.85
2292.82
-4653.18
2531.79
-4767.22
2836.75
-4912.06
3188.3
-5097.44
3573
-5331.93
3981.32
-5622.31
4407.44
-5973.57
4850.59
-6389.48
5316.42
-6873.91
5817.07
-7432.44
6368.06
-8074.11
6979.03
-8812.02
7634.86
-9659.45
8259.63
-10608.4
8633.27
-11560.3
8232.13
-12221.6
6212.22
-12228.4
2383.79
-11648.4
-1461.8
-10818.9
-3796.03
-9936.01
-5054.91
-9032.04
-5862.02
-8122.98
-6405.62
-7244.46
-6647.97
-6423.23
-6638.84
-5669.74
-6470.59
-4979.88
-6225.18
-4342.55
-5957.19
-3748.39
-5682.45
-3192.75
-5398.44
-2674.83
-5102.31
-2195.78
-4797.1
-1757.53
-4490.34
-1362.36
-4191.51
-1012.3
-3910.31
-708.761
-3655.47
-451.04
-3435.33
-235.885
-3258.23
-64.7375
-3124.79
48.4908
-3034.01
80.874
-3012.52
30.149
-3170.95
-27.0361
-3739.48
79.6939
-4973.6
500.692
-6800.9
1211.15
-8633.32
2091.05
-9952.08
3039
-10635.6
3985.44
-10766.9
4884.86
-10470.3
5707.23
-9858.65
6433.61
-9027.04
7053.83
-8058.92
7565.17
-7029.56
7971.52
-6006.9
8282.52
-5050.66
8512.53
-4210.91
8679.23
-3527.22
8802.48
-3030.07
8904.16
-2744.52
9011.13
-2700.5
9161.27
-2936.54
9398.95
-3456.65
9756.24
-4184.92
10239.6
-4987.06
10821.6
-5696.95
11453.5
-6192.57
12089.1
-6441.9
12704.2
-6501.08
13285.7
-6419.9
13837.9
-6274.06
14353.5
-6081.5
-5763.28
-2545.15
215.761
-2541.85
-150.149
-2507.51
-500.127
-2440.76
-822.378
-2347.11
-1080.92
-2241.02
-1213.21
-2143.46
-1191.94
-2074.25
-1045.69
-2043.43
-829.426
-2053.23
-562.595
-2097.9
-291.644
-2173.7
-21.9901
-2269.77
268.766
-2383.02
571.642
-2523.88
912.324
-2691.77
1286.09
-2881.4
1657.21
-3085.92
2001.73
-3298.3
2297.21
-3511.07
2520.97
-3717.01
2656.21
-3908.88
2687.5
-4080.29
2614.54
-4227.1
2466.57
-4349.18
2307.32
-4451
2213.24
-4540.11
2234.59
-4624.84
2377.55
-4713.39
2620.36
-4814.49
2937.85
-4937.81
3311.63
-5093.83
3729.03
-5293.03
4180.52
-5545.11
4659.53
-5858.53
5164.01
-6240.44
5698.34
-6697.31
6273.94
-7236.23
6906.99
-7866.84
7609.65
-8602.88
8370.9
-9459.55
9116.3
-10428.6
9602.34
-11388.4
9191.96
-11965.7
6789.44
-11726
2144.15
-10868.7
-2319.11
-9825.52
-4839.21
-8793.39
-6087.04
-7787.79
-6867.62
-6825.2
-7368.22
-5935.61
-7537.55
-5133.54
-7440.91
-4416.74
-7187.39
-3770.99
-6870.93
-3179.38
-6548.8
-2630.07
-6231.76
-2117.74
-5910.76
-1641.95
-5578.1
-1204.74
-5234.31
-809.204
-4885.87
-459.091
-4541.62
-157.471
-4211.94
95.5611
-3908.5
307.711
-3647.48
496.062
-3446.58
673.097
-3301.83
827.513
-3188.42
912.811
-3097.82
868.499
-3126.64
724.91
-3595.89
691.749
-4940.44
986.935
-7096.09
1618.7
-9265.08
2464.15
-10797.5
3400.73
-11572.2
4343.5
-11709.7
5238.9
-11365.7
6053.1
-10672.9
6765.41
-9739.35
7364.94
-8658.45
7849
-7513.62
8222.07
-6379.97
8494.84
-5323.43
8682.94
-4399.02
8805.38
-3649.66
8882.88
-3107.57
8937.38
-2799.01
8996.24
-2759.36
9103.02
-3043.32
9314.51
-3668.14
9671.4
-4541.81
10176.4
-5492.07
10787.7
-6308.24
11442.8
-6847.64
12091
-7090.17
12711.7
-7121.73
13294.4
-7002.62
13848.7
-6828.4
14363
-6595.74
-6255.33
-2546.84
244.387
-2544.34
-152.64
-2510.04
-534.421
-2441.68
-890.733
-2344.03
-1178.56
-2231.7
-1325.54
-2127.44
-1296.18
-2053.94
-1119.18
-2022.59
-860.768
-2034.38
-550.791
-2081.18
-244.824
-2156.35
53.1954
-2249.17
361.598
-2360.7
683.178
-2500.29
1051.93
-2666.98
1452.78
-2855.72
1845.96
-3059.85
2205.86
-3272.64
2510.01
-3487.18
2735.52
-3697.05
2866.09
-3895.88
2886.32
-4077.65
2796.32
-4237.74
2626.66
-4374.64
2444.22
-4491.08
2329.67
-4592.94
2336.45
-4686.99
2471.61
-4779.77
2713.14
-4878.26
3036.34
-4990.87
3424.24
-5127.66
3865.83
-5299.88
4352.74
-5519.14
4878.79
-5796.69
5441.57
-6142.82
6044.47
-6566.75
6697.88
-7077.56
7417.8
-7686.1
8218.2
-8407.47
9092.27
-9259.11
9967.95
-10231
10574.2
-11169
10129.9
-11603.2
7223.65
-11056.9
1597.88
-9933.52
-3442.51
-8732.2
-6040.53
-7617.76
-7201.48
-6589.3
-7896.08
-5665.06
-8292.45
-4857.82
-8344.78
-4156.73
-8142
-3537.78
-7806.34
-2974.94
-7433.77
-2449.76
-7073.97
-1954.47
-6727.06
-1488.9
-6376.33
-1056.88
-6010.12
-663.691
-5627.5
-314.926
-5234.64
-14.8828
-4841.66
236.464
-4463.28
445.737
-4117.77
627.599
-3829.34
804.66
-3623.64
1000.33
-3497.5
1218.27
-3406.36
1414.24
-3293.79
1494.51
-3206.91
1416.18
-3517.57
1335.91
-4860.16
1519.48
-7279.66
2062.13
-9807.74
2863.77
-11599.2
3784.52
-12492.9
4722.28
-12647.4
5613.8
-12257.3
6420.45
-11479.5
7119.09
-10438
7697.73
-9237.08
8153.44
-7969.33
8491.21
-6717.74
8722.78
-5555
8865.22
-4541.45
8938.96
-3723.4
8965.41
-3134.02
8965.7
-2799.3
8967.4
-2761.06
9024.16
-3100.08
9211.33
-3855.31
9572.38
-4902.86
10092.2
-6011.92
10711.6
-6927.58
11364.7
-7500.81
12007.9
-7733.28
12628.2
-7742.04
13215.7
-7590.21
13782.5
-7395.12
14308
-7121.22
-6765.24
-2548.71
274.424
-2547.03
-154.305
-2512.82
-568.621
-2442.99
-960.553
-2341.36
-1280.18
-2222.36
-1444.53
-2110.25
-1408.28
-2030.94
-1198.48
-1997.88
-893.817
-2011
-537.656
-2059.59
-196.209
-2132.72
126.348
-2221.2
450.094
-2330.25
792.245
-2467.19
1188.89
-2631.25
1616.85
-2817.66
2032.37
-3019.92
2408.14
-3231.72
2721.82
-3446.71
2950.52
-3659.34
3078.73
-3864.11
3091.09
-4055.45
2987.67
-4228.38
2799.6
-4380.26
2596.12
-4512.55
2461.97
-4630.08
2453.99
-4738.56
2580.1
-4843.1
2817.7
-4948.88
3142.13
-5062.46
3537.83
-5192.53
3995.92
-5349.81
4510.02
-5546.39
5075.38
-5794.95
5690.14
-6107.82
6357.34
-6496.43
7086.49
-6971.78
7893.16
-7546.56
8792.98
-8238.08
9783.8
-9067
10796.9
-10020.5
11527.7
-10902.9
11012.4
-11141.1
7461.81
-10269.9
726.743
-8930.77
-4781.67
-7637.02
-7334.28
-6504.82
-8333.68
-5520.79
-8880.11
-4701.19
-9112.05
-4028.4
-9017.58
-3457.91
-8712.49
-2943.09
-8321.15
-2451.64
-7925.22
-1971.21
-7554.4
-1504.41
-7193.86
-1060.36
-6820.38
-649.346
-6421.13
-280.898
-5995.94
39.107
-5554.64
310.57
-5113.12
540.123
-4692.84
739.353
-4317
920.391
-4010.38
1099.38
-3802.62
1301.42
-3699.55
1549.02
-3653.96
1826.04
-3570.8
2041.54
-3422.4
2085.42
-3561.44
2013.73
-4788.46
2101.09
-7367.03
2545.41
-10252.1
3292.68
-12346.4
4191.94
-13392.2
5122.61
-13578.1
6010.02
-13144.7
6809.6
-12279.1
7494.99
-11123.4
8052.61
-9794.7
8479.05
-8395.76
8779.65
-7018.35
8967.23
-5742.57
9060.4
-4634.62
9081.19
-3744.19
9051.31
-3104.14
8990
-2737.99
8926.66
-2697.72
8931.88
-3105.3
9096.3
-4019.72
9439.76
-5246.33
9915.23
-6487.39
10471.4
-7483.7
11073.2
-8102.63
11695.1
-8355.23
12325.4
-8372.31
12941.9
-8206.67
13550.3
-8003.58
14118
-7688.91
-7317.36
-2550.65
305.922
-2549.82
-155.134
-2515.83
-602.607
-2444.71
-1031.67
-2339.15
-1385.73
-2213.24
-1570.44
-2092.46
-1529.05
-2006
-1284.93
-1970.02
-929.792
-1983.89
-523.772
-2034.1
-145.986
-2104.43
196.699
-2187.9
533.577
-2293.6
897.947
-2426.92
1322.22
-2587.37
1777.3
-2770.38
2215.39
-2969.66
2607.43
-3179.26
2931.43
-3393.39
3164.65
-3607.34
3292.68
-3816.43
3300.19
-4015.63
3186.88
-4199.74
2983.72
-4365.3
2761.68
-4512.81
2609.49
-4646.52
2587.7
-4771.7
2705.28
-4892.57
2938.57
-5012.79
3262.35
-5137.03
3662.07
-5272.06
4130.96
-5427.04
4665.01
-5613.13
5261.48
-5842.78
5919.79
-6128.78
6643.34
-6483.54
7441.25
-6919.48
8329.11
-7451.22
9324.72
-8099.1
10431.7
-8887.85
11585.6
-9800.76
12440.6
-10591.4
11803
-10580
7450.47
-9387.98
-465.309
-7887.84
-6281.8
-6560.14
-8661.97
-5465.64
-9428.18
-4580.27
-9765.47
-3902.15
-9790.17
-3371.91
-9547.8
-2914.64
-9169.76
-2472.51
-8763.27
-2018.9
-8378.83
-1554.59
-8018.7
-1094.48
-7653.97
-656.415
-7258.44
-255.863
-6821.68
97.3885
-6349.19
401.379
-5858.63
662.857
-5374.6
892.136
-4922.12
1097.78
-4522.64
1286.88
-4199.48
1470.07
-3985.81
1670.04
-3899.53
1920.83
-3904.74
2237.56
-3887.53
2557.16
-3742
2732.71
-3737
2711.15
-4766.9
2727.94
-7383.82
3070.51
-10594.6
3753.04
-13029
4624.15
-14263.3
5544.91
-14498.9
6427.63
-14027.4
7220.49
-13071.9
7893.1
-11796
8429.75
-10331.3
8826.17
-8792.19
9087.98
-7280.16
9229.06
-5883.65
9269.73
-4675.3
9233.76
-3708.22
9142.62
-3013
9013.56
-2608.93
8882.19
-2566.35
8836.61
-3059.72
8950.85
-4133.97
9178.45
-5473.92
9465.29
-6774.24
9848.07
-7866.48
10362.3
-8616.87
10982.5
-8975.43
11666.2
-9055.98
12359.5
-8899.97
13055.2
-8699.29
13711.3
-8345.07
-7945.87
-2553.4
338.579
-2554.12
-154.396
-2521.09
-635.626
-2448.87
-1103.88
-2338.85
-1495.73
-2204.97
-1704.31
-2074.37
-1659.64
-1979.6
-1379.69
-1939.68
-969.705
-1953.78
-509.656
-2005.55
-94.1869
-2072.43
263.598
-2150.44
611.609
-2252.19
999.71
-2381.22
1451.27
-2537.38
1933.48
-2716.27
2394.29
-2911.73
2802.9
-3118.14
3137.85
-3330.17
3376.69
-3543.88
3506.39
-3755.41
3511.74
-3960.33
3391.8
-4153.38
3176.78
-4330.44
2938.75
-4491.26
2770.31
-4639.76
2736.22
-4781.21
2846.74
-4919.55
3076.92
-5057.46
3400.26
-5198.01
3802.63
-5346.03
4278.98
-5508.59
4827.58
-5694.93
5447.82
-5915.88
6140.75
-6183.18
6910.65
-6508.81
7766.89
-6905.62
8725.92
-7389.77
9808.88
-7984.78
11026.7
-8719.79
12320.6
-9571.99
13292.8
-10230.3
12461.3
-9903.37
7123.57
-8408.37
-1960.31
-6802.46
-7887.71
-5509.32
-9955.1
-4518.6
-10418.9
-3783.61
-10500.5
-3261.69
-10312.1
-2852.97
-9956.51
-2469.42
-9553.32
-2060.25
-9172.44
-1615.04
-8824.04
-1149.62
-8484.11
-688.553
-8115.05
-254.468
-7692.52
137.319
-7213.47
481.273
-6693.14
781.326
-6158.69
1044.85
-5638.12
1278.44
-5155.7
1489.75
-4733.95
1686.84
-4396.57
1878.47
-4177.43
2082.12
-4103.19
2332.42
-4155.04
2665.45
-4220.55
3054.47
-4131.03
3350.59
-4033.12
3410.26
-4826.57
3390.43
-7363.99
3636.54
-10840.7
4245.98
-13638.4
5081.79
-15099.1
5989.16
-15406.2
6866.23
-14904.5
7652.65
-13858.4
8313.04
-12456.4
8828.93
-10847.2
9194.88
-9158.14
9416.58
-7501.86
9509.02
-5976.09
9494.47
-4660.74
9398.52
-3612.27
9242.36
-2856.84
9043.34
-2409.9
8846.92
-2369.94
8736.06
-2948.87
8705.37
-4103.27
8628.51
-5397.06
8552.07
-6697.79
8707.46
-8021.87
9176.73
-9086.15
9858.67
-9657.37
10643.7
-9840.99
11446.7
-9703.04
12256.4
-9508.96
13035.4
-9124.05
-8680.57
-2560.04
374.403
-2564.95
-149.486
-2534.53
-666.033
-2461.54
-1176.86
-2345.59
-1611.67
-2200.75
-1849.15
-2057.09
-1803.3
-1951.96
-1484.81
-1907.29
-1014.37
-1921.33
-495.6
-1973.97
-41.5386
-2036.77
326.417
-2109.68
684.535
-2207.11
1097.15
-2331.41
1575.58
-2482.87
2084.94
-2657.15
2568.58
-2848.18
2993.94
-3050.6
3340.26
-3259.42
3585.51
-3471.4
3718.37
-3683.49
3723.83
-3891.9
3600.21
-4091.52
3376.4
-4277.66
3124.89
-4449.3
2941.96
-4610.09
2897.01
-4765.52
3002.19
-4919.75
3231.14
-5075.02
3555.54
-5233.3
3960.91
-5397.7
4443.39
-5573.2
5003.09
-5766.72
5641.33
-5986.74
6360.78
-6242.87
7166.78
-6545.52
8069.54
-6906.88
9087.28
-7343.8
10245.8
-7882.4
11565.3
-8555.73
12994
-9330.96
14068.1
-9813.9
12944.2
-9095.12
6404.79
-7340.56
-3714.86
-5711.16
-9517.11
-4544.52
-11121.7
-3729.29
-11234.1
-3174.51
-11055.2
-2790.72
-10695.9
-2459.9
-10287.3
-2104.59
-9908.63
-1694.94
-9582.08
-1239.14
-9279.83
-764.451
-8958.8
-299.968
-8579.53
132.322
-8124.81
521.778
-7602.93
868.037
-7039.39
1173.9
-6464.55
1442.08
-5906.31
1678.21
-5391.82
1892.09
-4947.83
2094.77
-4599.25
2296.07
-4378.73
2509.42
-4316.54
2764.63
-4410.25
3106.75
-4562.67
3539.98
-4564.26
3936.47
-4429.61
4095.48
-4985.58
4075.77
-7344.28
4239.64
-11004.6
4771.29
-14170.1
5564.77
-15892.6
6454.73
-16296.2
7324.87
-15774.6
8105.09
-14638.6
8753.99
-13105.3
9249.59
-11342.8
9584.9
-9493.45
9765.52
-7682.47
9807.61
-6018.19
9735.59
-4588.72
9577.22
-3453.91
9354.64
-2634.26
9089.46
-2144.72
8831.37
-2111.84
8609.56
-2727.05
8292.85
-3786.57
7748.27
-4852.47
7278.79
-6228.32
7318.96
-8062.04
7849.73
-9616.92
8618.63
-10426.3
9473.86
-10696.2
10342
-10571.2
11228.6
-10395.6
12115.2
-10010.7
-9525.17
-2576.48
418.12
-2589.57
-136.378
-2563.79
-691.807
-2490.54
-1250.1
-2367.17
-1735.04
-2207.24
-2009.06
-2044.43
-1966.1
-1923.95
-1605.28
-1872.87
-1065.43
-1886.88
-481.575
-1939.42
11.0212
-1997.8
384.826
-2066.32
753.07