/*--------------------------------*- C++ -*----------------------------------*\
| =========                 |                                                 |
| \\      /  F ield         | OpenFOAM: The Open Source CFD Toolbox           |
|  \\    /   O peration     | Version:  4.1                                   |
|   \\  /    A nd           | Web:      www.OpenFOAM.org                      |
|    \\/     M anipulation  |                                                 |
\*---------------------------------------------------------------------------*/
FoamFile
{
    version     2.0;
    format      ascii;
    class       volVectorField;
    location    "1000";
    object      U;
}
// * * * * * * * * * * * * * * * * * * * * * * * * * * * * * * * * * * * * * //

dimensions      [0 1 -1 0 0 0 0];

internalField   nonuniform List<vector> 
26785
(
(-7.33241e-14 -0.0398503 -18.7659)
(-7.03239e-14 -0.0482974 -17.9159)
(-7.12828e-14 -0.0580432 -16.7796)
(-5.98941e-14 -0.0657082 -15.5487)
(-6.17879e-14 -0.0726682 -14.2081)
(-4.75402e-14 -0.0776476 -12.8119)
(-4.4186e-14 -0.0808134 -11.4054)
(-3.39872e-14 -0.0829447 -10.0167)
(-5.21419e-14 -0.0843011 -8.6541)
(-3.69381e-14 -0.083709 -7.3317)
(-2.85562e-14 -0.0803452 -6.07186)
(-3.05943e-14 -0.071319 -4.90447)
(-2.75304e-14 -0.0511435 -3.90432)
(-2.60619e-14 -0.0198421 -3.20018)
(-2.37296e-14 0.0127067 -2.98169)
(-2.04455e-14 0.0386087 -3.26232)
(-1.81264e-14 0.0594477 -3.90072)
(-1.87798e-14 0.0769952 -4.8245)
(-2.9871e-14 0.0918274 -5.95835)
(-1.70253e-14 0.102943 -7.24083)
(1.08e-14 0.11015 -8.61515)
(5.38181e-15 0.113554 -10.0296)
(2.40067e-14 0.113514 -11.4371)
(2.76869e-14 0.110638 -12.7981)
(3.45527e-14 0.105909 -14.0847)
(3.60545e-14 0.10062 -15.2854)
(3.53402e-14 0.0960134 -16.4054)
(2.96438e-14 0.0929411 -17.4618)
(2.08723e-14 0.0917947 -18.4763)
(2.10374e-14 0.0926531 -19.4706)
(2.48335e-14 0.0954489 -20.4654)
(1.96137e-14 0.10006 -21.4795)
(1.63085e-14 0.106324 -22.53)
(6.17308e-15 0.114023 -23.6319)
(8.64068e-15 0.122893 -24.7975)
(3.1679e-15 0.132661 -26.0359)
(-1.45e-16 0.143035 -27.3536)
(-2.44167e-15 0.153605 -28.7539)
(-3.93959e-15 0.163548 -30.2352)
(-2.23493e-15 0.171157 -31.7865)
(-4.78275e-15 0.173194 -33.3766)
(-1.34891e-15 0.164074 -34.9368)
(-1.11535e-15 0.135515 -36.3316)
(3.51424e-15 0.0798298 -37.3407)
(1.22717e-15 0.000579004 -37.7235)
(6.08542e-15 -0.0804577 -37.3845)
(4.22991e-15 -0.143781 -36.4413)
(6.03617e-15 -0.188175 -35.0856)
(7.04375e-15 -0.215679 -33.4644)
(9.65327e-15 -0.229806 -31.6981)
(7.21961e-15 -0.234353 -29.8793)
(6.01934e-15 -0.23175 -28.0722)
(5.71849e-15 -0.224377 -26.3224)
(5.08855e-15 -0.214186 -24.6569)
(4.29995e-15 -0.202515 -23.0889)
(1.85598e-15 -0.190157 -21.624)
(4.82502e-15 -0.177542 -20.2632)
(6.88471e-15 -0.16501 -19.0052)
(3.32744e-15 -0.152926 -17.8466)
(6.92718e-15 -0.141673 -16.7816)
(9.06531e-15 -0.131619 -15.8022)
(6.41137e-15 -0.123072 -14.8984)
(3.58038e-15 -0.116262 -14.0585)
(7.74584e-15 -0.111392 -13.2698)
(9.88955e-15 -0.108736 -12.5184)
(5.69829e-15 -0.108748 -11.7894)
(2.58816e-15 -0.112108 -11.0652)
(-1.46679e-15 -0.119787 -10.3222)
(-5.46067e-15 -0.133336 -9.52561)
(-1.05692e-14 -0.155058 -8.62726)
(-6.72506e-15 -0.186453 -7.57255)
(-3.2483e-15 -0.224682 -6.31236)
(-9.78978e-15 -0.266904 -4.82576)
(-9.09969e-15 -0.324157 -3.17759)
(7.39719e-15 -0.41913 -1.48802)
(1.40323e-14 -0.447156 0.680189)
(6.28261e-15 -0.400595 2.87895)
(-1.38087e-14 -0.367418 4.98358)
(-1.8858e-14 -0.340924 6.95063)
(-1.74193e-14 -0.307533 8.71373)
(-1.21737e-14 -0.271186 10.2642)
(-1.67227e-14 -0.235037 11.6016)
(-2.01825e-14 -0.201077 12.7361)
(-1.63845e-14 -0.170819 13.6874)
(-1.92078e-14 -0.14547 14.4822)
(-2.06782e-14 -0.125954 15.1525)
(-2.11088e-14 -0.1129 15.7337)
(-2.29814e-14 -0.106643 16.2629)
(-2.72597e-14 -0.107154 16.7771)
(-2.89979e-14 -0.11382 17.3104)
(-2.74161e-14 -0.125289 17.8912)
(-2.75666e-14 -0.139585 18.538)
(-2.73687e-14 -0.154355 19.2563)
(-2.73666e-14 -0.167464 20.0418)
(-2.7525e-14 -0.177308 20.8747)
(-2.77722e-14 -0.183362 21.7477)
(-2.83902e-14 -0.185592 22.6042)
(-2.88308e-14 -0.184202 23.5303)
(-2.933e-14 -0.183064 24.2124)
(-2.70583e-14 -0.172181 25.4479)
(-6.47158e-14 -0.115942 -19.326)
(-4.82683e-14 -0.137952 -18.539)
(-3.98686e-14 -0.166986 -17.4965)
(-3.1293e-14 -0.189096 -16.3517)
(-3.69658e-14 -0.208233 -15.1061)
(-1.78816e-14 -0.220729 -13.8166)
(-2.91885e-14 -0.227112 -12.5358)
(-4.77413e-14 -0.230344 -11.2982)
(-2.92963e-14 -0.232322 -10.1119)
(-1.73043e-14 -0.23092 -8.98093)
(-2.00563e-14 -0.225076 -7.90901)
(-1.83302e-14 -0.209005 -6.89266)
(-1.57047e-14 -0.169466 -5.94653)
(-2.37262e-14 -0.100014 -5.12761)
(6.4308e-15 -0.0127612 -4.60196)
(3.6202e-14 0.0679701 -4.50362)
(-1.92397e-15 0.137849 -4.80451)
(-5.5151e-15 0.19945 -5.45491)
(7.25595e-15 0.251222 -6.37413)
(-6.22521e-15 0.290638 -7.48859)
(1.68385e-14 0.31743 -8.73186)
(1.98856e-14 0.331878 -10.0443)
(1.77195e-14 0.334976 -11.3713)
(2.61747e-14 0.328623 -12.6665)
(2.06118e-14 0.316052 -13.8977)
(3.22031e-14 0.301477 -15.0528)
(3.83363e-14 0.288793 -16.1389)
(3.67274e-14 0.28046 -17.1747)
(3.42788e-14 0.277453 -18.1808)
(3.21536e-14 0.27993 -19.1752)
(1.5938e-14 0.287803 -20.1738)
(1.42646e-14 0.300951 -21.1918)
(9.45715e-15 0.31915 -22.2443)
(1.57314e-15 0.341961 -23.3461)
(3.15911e-15 0.368734 -24.5105)
(-1.8687e-15 0.398705 -25.749)
(-3.5345e-15 0.431035 -27.0706)
(-3.64691e-15 0.464526 -28.4815)
(-2.50214e-15 0.496769 -29.983)
(-1.54208e-16 0.52265 -31.5667)
(4.38336e-15 0.532244 -33.2041)
(1.72932e-15 0.508133 -34.8275)
(1.34484e-14 0.424246 -36.2985)
(9.18305e-15 0.256103 -37.3866)
(1.70251e-14 0.0144769 -37.8336)
(1.40939e-14 -0.232263 -37.536)
(1.42225e-14 -0.422417 -36.6192)
(8.64514e-15 -0.556047 -35.2948)
(1.17052e-14 -0.641438 -33.702)
(3.83383e-15 -0.688028 -31.9528)
(8.18772e-15 -0.705877 -30.1381)
(7.00932e-15 -0.701912 -28.3233)
(7.18831e-15 -0.683221 -26.5551)
(1.32212e-14 -0.655675 -24.8624)
(1.12677e-14 -0.623384 -23.2598)
(8.85082e-15 -0.588772 -21.7535)
(1.29222e-14 -0.553086 -20.3456)
(1.65592e-14 -0.517239 -19.0356)
(1.31412e-14 -0.482192 -17.8214)
(1.07875e-14 -0.448986 -16.6986)
(8.0536e-15 -0.41868 -15.6607)
(1.10874e-14 -0.392217 -14.6991)
(1.51318e-14 -0.370359 -13.8034)
(8.28385e-15 -0.353776 -12.9616)
(2.86094e-15 -0.343328 -12.1604)
(1.20014e-15 -0.340495 -11.385)
(-2.11147e-15 -0.347759 -10.6182)
(-9.55176e-15 -0.368952 -9.83665)
(7.90612e-16 -0.409687 -9.0043)
(1.3341e-14 -0.476509 -8.06906)
(2.89497e-15 -0.571252 -6.96883)
(1.75965e-15 -0.682084 -5.64774)
(-6.53398e-15 -0.79262 -4.07651)
(-3.32597e-14 -0.918038 -2.29879)
(-2.57315e-14 -1.08364 -0.346229)
(-4.16371e-14 -1.13902 1.73133)
(-4.17911e-14 -1.09008 3.82207)
(-3.02567e-14 -1.03058 5.84625)
(-3.32311e-14 -0.957911 7.70764)
(-3.22836e-14 -0.866584 9.37556)
(-2.34803e-14 -0.765647 10.8407)
(-2.15128e-14 -0.662773 12.1004)
(-2.07882e-14 -0.564472 13.1632)
(-1.5886e-14 -0.476308 14.0479)
(-7.69943e-15 -0.402647 14.7806)
(-6.32387e-15 -0.34663 15.3934)
(-9.92226e-15 -0.310258 15.9216)
(-1.08888e-14 -0.294535 16.4026)
(-7.23814e-15 -0.299296 16.8736)
(-1.27762e-15 -0.322526 17.3695)
(3.41493e-15 -0.359887 17.9189)
(7.08012e-15 -0.405105 18.5397)
(1.10898e-14 -0.450831 19.2362)
(1.18177e-14 -0.490533 20.0019)
(1.14122e-14 -0.519556 20.8146)
(1.34714e-14 -0.536586 21.6652)
(1.45836e-14 -0.541895 22.4966)
(1.61442e-14 -0.536638 23.3927)
(1.82318e-14 -0.530892 24.0494)
(2.21114e-14 -0.498342 25.2297)
(-2.95822e-14 -0.179648 -19.7552)
(-3.49331e-14 -0.222972 -19.0022)
(-3.34917e-14 -0.26974 -18.0187)
(-1.65763e-14 -0.30632 -16.9245)
(-2.42917e-14 -0.336619 -15.7352)
(-7.40686e-15 -0.355005 -14.5113)
(-1.91468e-14 -0.362092 -13.3132)
(-2.21412e-14 -0.363188 -12.1834)
(-1.29296e-14 -0.362408 -11.1355)
(-1.09648e-14 -0.357678 -10.1755)
(-7.79794e-15 -0.349044 -9.30504)
(-5.7754e-15 -0.330113 -8.51114)
(-3.0293e-15 -0.282973 -7.78469)
(1.0537e-15 -0.194503 -7.13526)
(1.23396e-14 -0.0715857 -6.6455)
(4.48919e-14 0.0547939 -6.43077)
(1.39749e-14 0.171292 -6.50696)
(9.43452e-15 0.279116 -6.88289)
(8.60645e-15 0.371891 -7.52106)
(6.89638e-15 0.444653 -8.37426)
(3.42683e-14 0.496167 -9.38608)
(2.83994e-14 0.526246 -10.4976)
(5.6941e-15 0.536124 -11.6492)
(1.1668e-14 0.529092 -12.7874)
(1.77481e-14 0.511209 -13.8757)
(2.70675e-14 0.490313 -14.9037)
(3.30155e-14 0.473221 -15.8851)
(2.97034e-14 0.463594 -16.8448)
(2.76763e-14 0.462222 -17.8046)
(2.42463e-14 0.46875 -18.7775)
(2.14131e-14 0.482928 -19.7714)
(6.83925e-15 0.504862 -20.7933)
(5.76936e-17 0.534676 -21.8522)
(-7.31107e-16 0.572157 -22.9591)
(-5.31234e-15 0.616651 -24.1265)
(-6.15597e-15 0.667178 -25.3673)
(-5.7887e-15 0.722492 -26.6935)
(-3.76164e-15 0.780655 -28.1149)
(-8.25762e-16 0.837664 -29.6371)
(2.37267e-15 0.884942 -31.2558)
(4.51562e-15 0.905649 -32.9456)
(4.84243e-15 0.869889 -34.6406)
(2.68043e-15 0.732393 -36.1989)
(-1.61809e-15 0.449916 -37.3752)
(-6.78136e-15 0.0401804 -37.8853)
(-1.07202e-14 -0.377868 -37.615)
(-1.20378e-14 -0.695866 -36.7069)
(-1.24325e-14 -0.917952 -35.3988)
(-1.3193e-14 -1.06184 -33.8244)
(-1.39172e-14 -1.14307 -32.0875)
(-1.41909e-14 -1.17667 -30.2764)
(-1.43672e-14 -1.17356 -28.4567)
(-1.43386e-14 -1.14547 -26.6765)
(-1.35048e-14 -1.10214 -24.9656)
(-1.19927e-14 -1.05056 -23.3395)
(-3.89121e-15 -0.994831 -21.8053)
(3.53975e-15 -0.937045 -20.3654)
(4.30514e-15 -0.878674 -19.0202)
(6.11506e-15 -0.82126 -17.7683)
(6.21656e-15 -0.766503 -16.6061)
(4.95122e-15 -0.716172 -15.5279)
(8.12028e-15 -0.671907 -14.5256)
(7.88952e-15 -0.635108 -13.5894)
(6.27937e-15 -0.607049 -12.7077)
(1.17731e-14 -0.589261 -11.8672)
(1.8631e-14 -0.584121 -11.0529)
(1.03771e-14 -0.595505 -10.248)
(7.09346e-15 -0.629622 -9.42954)
(9.08233e-15 -0.696061 -8.56282)
(8.57423e-15 -0.806623 -7.59522)
(1.13804e-14 -0.966636 -6.45944)
(1.20275e-14 -1.16097 -5.0914)
(3.19074e-15 -1.36173 -3.46023)
(-5.47378e-14 -1.56948 -1.61539)
(-5.45275e-14 -1.76784 0.393727)
(-2.34055e-14 -1.83619 2.46531)
(-2.32569e-14 -1.79014 4.49842)
(-1.46848e-14 -1.69759 6.44496)
(-4.55683e-15 -1.56927 8.23393)
(4.70484e-15 -1.41345 9.83449)
(1.26506e-14 -1.24409 11.2347)
(2.05078e-14 -1.07312 12.433)
(2.06185e-14 -0.910831 13.4391)
(2.07465e-14 -0.765934 14.2721)
(2.52055e-14 -0.64529 14.9579)
(2.70344e-14 -0.553957 15.5281)
(2.86237e-14 -0.495286 16.0177)
(2.94812e-14 -0.471098 16.4639)
(3.17756e-14 -0.481311 16.9043)
(2.71275e-14 -0.522625 17.3749)
(2.41101e-14 -0.587587 17.9049)
(2.4213e-14 -0.665287 18.5122)
(2.0449e-14 -0.742956 19.1996)
(1.65239e-14 -0.809373 19.9581)
(1.42693e-14 -0.856892 20.7624)
(1.29211e-14 -0.883626 21.6015)
(1.10629e-14 -0.890559 22.4172)
(1.0172e-14 -0.880229 23.2921)
(1.05223e-14 -0.867316 23.93)
(1.12861e-14 -0.813565 25.0671)
(-7.20512e-16 -0.239224 -20.0598)
(-4.47499e-15 -0.305173 -19.3289)
(-1.63622e-14 -0.36919 -18.3797)
(-2.02144e-14 -0.420072 -17.313)
(-1.25964e-14 -0.460656 -16.153)
(-1.78006e-14 -0.483347 -14.9647)
(-2.85808e-14 -0.488649 -13.8161)
(-1.25975e-14 -0.48419 -12.7583)
(-4.91131e-15 -0.47642 -11.8111)
(-3.71272e-15 -0.463553 -10.9851)
(4.33093e-16 -0.44728 -10.2841)
(7.67408e-15 -0.421925 -9.6932)
(1.98126e-14 -0.367547 -9.19607)
(1.15378e-14 -0.267659 -8.78395)
(-1.59537e-15 -0.125136 -8.49252)
(8.33169e-15 0.0275193 -8.37307)
(1.8374e-14 0.17512 -8.43219)
(5.90718e-15 0.318688 -8.69896)
(1.18539e-14 0.446829 -9.16223)
(1.99473e-14 0.551571 -9.80348)
(3.11848e-14 0.629171 -10.5878)
(2.29621e-14 0.677545 -11.4691)
(1.2892e-14 0.697092 -12.393)
(1.64874e-14 0.692145 -13.307)
(1.98165e-14 0.672084 -14.1764)
(2.12678e-14 0.649278 -14.9978)
(2.24446e-14 0.633905 -15.7975)
(1.95887e-14 0.63024 -16.6121)
(1.55751e-14 0.637625 -17.4688)
(1.312e-14 0.654026 -18.3781)
(1.24037e-14 0.678461 -19.34)
(1.44162e-15 0.711291 -20.3515)
(-4.68599e-15 0.75339 -21.4119)
(-8.07611e-15 0.805347 -22.525)
(-9.39487e-15 0.867127 -23.6984)
(-1.5498e-14 0.938095 -24.9433)
(-6.44264e-15 1.01702 -26.2733)
(-6.29687e-15 1.10147 -27.7018)
(-9.82647e-15 1.18597 -29.2396)
(-3.67096e-15 1.2584 -30.8883)
(-4.06519e-15 1.29474 -32.6286)
(-7.449e-15 1.25171 -34.399)
(-1.03384e-14 1.06287 -36.0558)
(-1.36171e-14 0.663146 -37.3354)
(-1.96255e-14 0.0765978 -37.917)
(-1.71446e-14 -0.520914 -37.6668)
(-1.6043e-14 -0.968088 -36.7493)
(-1.56663e-14 -1.27729 -35.4394)
(-1.59919e-14 -1.47938 -33.8695)
(-1.44483e-14 -1.5967 -32.1349)
(-1.76915e-14 -1.64792 -30.3205)
(-1.62392e-14 -1.64743 -28.4918)
(-2.36497e-14 -1.61154 -26.6977)
(-2.88881e-14 -1.55386 -24.9686)
(-2.8155e-14 -1.48429 -23.3206)
(-3.05191e-14 -1.40865 -21.7611)
(-2.54803e-14 -1.32982 -20.2927)
(-2.11023e-14 -1.2498 -18.9166)
(-1.89115e-14 -1.17068 -17.632)
(-1.85903e-14 -1.09481 -16.4359)
(-1.80152e-14 -1.02468 -15.3233)
(-1.78406e-14 -0.962632 -14.2866)
(-2.01347e-14 -0.910701 -13.3164)
(-1.47952e-14 -0.870767 -12.4011)
(-1.02291e-14 -0.845041 -11.5278)
(-1.58895e-14 -0.836835 -10.6819)
(-1.50125e-14 -0.851542 -9.84695)
(-3.43896e-15 -0.898006 -9.0011)
(6.76436e-16 -0.990022 -8.11043)
(-2.80698e-15 -1.14448 -7.1213)
(-7.01205e-15 -1.36989 -5.96107)
(-1.11115e-14 -1.64762 -4.55889)
(-1.93696e-16 -1.93776 -2.88621)
(-5.36655e-14 -2.22496 -0.985048)
(-4.10501e-14 -2.45408 1.04566)
(-2.95963e-14 -2.52607 3.08896)
(-3.40854e-14 -2.46719 5.08022)
(-1.00233e-14 -2.33562 6.96953)
(8.71128e-15 -2.1526 8.70051)
(2.05801e-14 -1.9342 10.2445)
(2.7448e-14 -1.69832 11.5893)
(2.68716e-14 -1.46103 12.7345)
(2.71272e-14 -1.23636 13.6903)
(2.20823e-14 -1.03622 14.476)
(2.01322e-14 -0.870029 15.1178)
(2.10726e-14 -0.744842 15.6474)
(2.25348e-14 -0.66542 16.0998)
(2.10127e-14 -0.634532 16.5123)
(1.78902e-14 -0.652366 16.9237)
(1.09643e-14 -0.714369 17.3714)
(9.73228e-15 -0.809701 17.8858)
(6.64972e-15 -0.922282 18.485)
(-1.40713e-15 -1.03332 19.17)
(-4.99414e-15 -1.12655 19.9283)
(-7.56281e-15 -1.19145 20.7312)
(-7.64304e-15 -1.226 21.5649)
(-8.16724e-15 -1.23244 22.3702)
(-7.45508e-15 -1.2151 23.2286)
(-6.04669e-15 -1.19298 23.8513)
(-5.5888e-15 -1.11699 24.9516)
(-3.18052e-14 -0.296978 -20.2741)
(-3.42305e-14 -0.385039 -19.559)
(-2.60193e-14 -0.466176 -18.6303)
(-2.08889e-14 -0.531581 -17.5786)
(-2.30503e-14 -0.582074 -16.4322)
(-1.37955e-14 -0.60803 -15.261)
(-1.87496e-14 -0.60961 -14.1405)
(-1.08547e-14 -0.596765 -13.1303)
(-7.86769e-15 -0.578468 -12.2566)
(-6.18486e-15 -0.5534 -11.5339)
(5.06241e-15 -0.525127 -10.9672)
(5.86952e-15 -0.489009 -10.5405)
(5.92957e-15 -0.423771 -10.2353)
(-4.01403e-15 -0.311712 -10.0397)
(-2.39809e-14 -0.156062 -9.96615)
(9.37672e-16 0.0116531 -10.0005)
(8.94114e-15 0.178241 -10.1619)
(1.17421e-14 0.344626 -10.4597)
(1.16515e-14 0.496757 -10.8856)
(1.89748e-14 0.62474 -11.4288)
(2.41935e-14 0.722391 -12.0664)
(2.01212e-14 0.785205 -12.7636)
(1.48901e-14 0.812109 -13.475)
(1.76899e-14 0.808214 -14.1558)
(1.90321e-14 0.786603 -14.7804)
(2.04116e-14 0.764908 -15.358)
(2.40141e-14 0.756997 -15.9309)
(8.96066e-15 0.767181 -16.55)
(3.32182e-15 0.79207 -17.2514)
(-5.32895e-16 0.826603 -18.0483)
(-4.96506e-15 0.868089 -18.9375)
(-1.04408e-14 0.916652 -19.909)
(-1.5605e-14 0.973877 -20.953)
(-1.92492e-14 1.04148 -22.0636)
(-1.06149e-14 1.12062 -23.2405)
(-1.70718e-14 1.21173 -24.4898)
(-1.55248e-14 1.3143 -25.8232)
(-1.31724e-14 1.42604 -27.2564)
(-1.10994e-14 1.54043 -28.8052)
(-1.03567e-14 1.64208 -30.4787)
(-8.2717e-15 1.69961 -32.2667)
(-8.14006e-15 1.65546 -34.1158)
(-5.02934e-15 1.41923 -35.8829)
(-1.19601e-14 0.899291 -37.2824)
(-9.13167e-15 0.124214 -37.944)
(-8.225e-15 -0.664586 -37.7042)
(-9.24996e-15 -1.24356 -36.7565)
(-1.09575e-14 -1.638 -35.4241)
(-1.36071e-14 -1.89675 -33.8412)
(-1.32245e-14 -2.05058 -32.0951)
(-1.98826e-14 -2.12038 -30.2663)
(-2.08672e-14 -2.12339 -28.4203)
(-2.34765e-14 -2.08049 -26.6067)
(-2.71006e-14 -2.00915 -24.8565)
(-2.96958e-14 -1.92227 -23.1854)
(-3.55514e-14 -1.82739 -21.6005)
(-3.9508e-14 -1.7281 -20.1048)
(-4.35269e-14 -1.62686 -18.6996)
(-4.22663e-14 -1.5263 -17.3847)
(-4.14939e-14 -1.42945 -16.1581)
(-3.92922e-14 -1.33956 -15.015)
(-4.12989e-14 -1.25972 -13.9483)
(-4.84628e-14 -1.19267 -12.9489)
(-4.5294e-14 -1.1409 -12.0054)
(-4.44911e-14 -1.10726 -11.1052)
(-2.93773e-14 -1.09587 -10.2342)
(-1.63924e-14 -1.11343 -9.37671)
(-8.92673e-15 -1.17139 -8.51271)
(-3.71129e-15 -1.28819 -7.60979)
(-8.33168e-15 -1.48703 -6.61322)
(-1.02275e-14 -1.78136 -5.44356)
(-2.42307e-14 -2.14855 -4.02127)
(-8.5556e-15 -2.5319 -2.32072)
(-3.09043e-14 -2.88876 -0.391064)
(-2.25476e-14 -3.13729 1.64397)
(-3.57028e-14 -3.20681 3.66822)
(-3.09936e-14 -3.1295 5.62746)
(4.51317e-16 -2.95762 7.47243)
(1.65351e-14 -2.71938 9.15535)
(2.45312e-14 -2.43753 10.6496)
(2.5174e-14 -2.13468 11.9439)
(1.36247e-14 -1.83116 13.0389)
(8.66051e-15 -1.54467 13.9458)
(8.95628e-15 -1.29011 14.6845)
(4.30274e-15 -1.07938 15.2818)
(4.07409e-15 -0.921425 15.7694)
(5.90353e-15 -0.822439 16.1828)
(4.10527e-15 -0.786321 16.5599)
(-5.89511e-16 -0.813833 16.9408)
(-7.0593e-16 -0.899289 17.3653)
(-1.75846e-15 -1.02813 17.8656)
(-4.43392e-15 -1.17843 18.4601)
(-7.42e-15 -1.32458 19.1477)
(-9.03318e-15 -1.4448 19.9119)
(-8.36955e-15 -1.52585 20.719)
(-6.63802e-15 -1.56618 21.5524)
(-5.41311e-15 -1.56985 22.3515)
(-5.12363e-15 -1.5436 23.1974)
(-5.47635e-15 -1.51038 23.8076)
(-5.13936e-15 -1.41102 24.8763)
(-3.5218e-14 -0.352472 -20.4085)
(-4.36266e-14 -0.463014 -19.7217)
(-3.83036e-14 -0.561551 -18.8025)
(-3.51475e-14 -0.641588 -17.7592)
(-3.12545e-14 -0.701867 -16.6166)
(-2.26616e-14 -0.730237 -15.4502)
(-1.32588e-14 -0.726334 -14.3427)
(-1.30965e-14 -0.702423 -13.3628)
(-1.8728e-14 -0.670307 -12.5428)
(1.50101e-15 -0.629401 -11.8997)
(1.57123e-14 -0.585466 -11.4378)
(-4.18058e-15 -0.535029 -11.1372)
(-7.88131e-15 -0.455416 -10.9783)
(-2.37335e-15 -0.32905 -10.9528)
(-2.53785e-16 -0.162732 -11.058)
(2.9546e-15 0.0154851 -11.2337)
(5.80377e-15 0.196218 -11.525)
(1.90351e-14 0.376863 -11.9129)
(2.99238e-14 0.543241 -12.3821)
(2.65212e-14 0.684436 -12.9163)
(1.88612e-14 0.79271 -13.4922)
(2.21154e-14 0.861623 -14.078)
(2.01323e-14 0.888964 -14.6343)
(9.84026e-15 0.881007 -15.1247)
(8.5371e-15 0.855073 -15.5353)
(6.37804e-15 0.834546 -15.8895)
(1.78095e-15 0.837063 -16.2432)
(-2.82837e-15 0.866536 -16.6589)
(-6.52275e-15 0.916106 -17.1814)
(-5.7048e-15 0.976801 -17.8306)
(-1.74043e-14 1.04324 -18.6076)
(-2.02246e-14 1.11441 -19.5023)
(-2.42454e-14 1.19194 -20.5004)
(-2.54805e-14 1.27844 -21.5886)
(-2.22575e-14 1.37649 -22.7579)
(-1.91019e-14 1.48812 -24.0067)
(-1.807e-14 1.6144 -25.342)
(-1.34785e-14 1.75407 -26.7785)
(-9.26521e-15 1.90041 -28.3358)
(-7.21767e-15 2.0354 -30.0308)
(-4.25831e-15 2.12049 -31.8645)
(-3.2837e-15 2.08287 -33.7955)
(-5.54275e-15 1.80476 -35.685)
(-4.23689e-15 1.16136 -37.2219)
(-8.92957e-15 0.182653 -37.9717)
(-1.1046e-14 -0.813013 -37.7287)
(-1.28851e-14 -1.52752 -36.7232)
(-1.32814e-14 -2.00492 -35.3406)
(-1.40087e-14 -2.31774 -33.7202)
(-1.56581e-14 -2.50769 -31.9421)
(-1.87495e-14 -2.59619 -30.0819)
(-2.26268e-14 -2.60273 -28.2056)
(-2.62967e-14 -2.55288 -26.3637)
(-2.9654e-14 -2.46801 -24.5868)
(-3.31358e-14 -2.36417 -22.8897)
(-3.703e-14 -2.25049 -21.2786)
(-4.10112e-14 -2.13119 -19.756)
(-4.58738e-14 -2.00907 -18.3233)
(-4.61514e-14 -1.88726 -16.9808)
(-4.34983e-14 -1.76944 -15.7267)
(-4.42131e-14 -1.65965 -14.5567)
(-4.94592e-14 -1.56176 -13.4642)
(-5.57016e-14 -1.4792 -12.4401)
(-5.85347e-14 -1.41507 -11.4734)
(-5.90694e-14 -1.37281 -10.552)
(-4.5498e-14 -1.35719 -9.66251)
(-3.47097e-14 -1.37613 -8.79104)
(-1.49948e-14 -1.44364 -7.92009)
(7.3153e-16 -1.5831 -7.02006)
(2.88099e-15 -1.82493 -6.03563)
(-5.42167e-16 -2.1896 -4.87856)
(-3.55356e-14 -2.65038 -3.45635)
(-2.4372e-14 -3.12891 -1.7423)
(-2.90194e-14 -3.55195 0.199307)
(-3.08572e-14 -3.81685 2.23)
(-2.78852e-14 -3.87913 4.23807)
(-7.91292e-15 -3.77727 6.17098)
(1.23666e-14 -3.56182 7.97924)
(1.47118e-14 -3.26685 9.61991)
(8.19625e-15 -2.92094 11.0683)
(2.42447e-15 -2.55105 12.3144)
(1.62406e-15 -2.18153 13.36)
(-1.08415e-15 -1.83365 14.2174)
(8.55309e-15 -1.52534 14.9074)
(1.00129e-14 -1.27089 15.4574)
(-2.2178e-15 -1.08119 15.8998)
(-6.31331e-15 -0.963924 16.2707)
(-6.12809e-15 -0.924341 16.6088)
(-8.16539e-15 -0.964162 16.9563)
(-1.0217e-14 -1.0767 17.3559)
(-8.95049e-15 -1.2432 17.8426)
(-4.63707e-15 -1.43499 18.4354)
(-5.61194e-15 -1.61857 19.1305)
(-8.52775e-15 -1.76609 19.9062)
(-6.66508e-15 -1.86181 20.723)
(-4.68057e-15 -1.9055 21.5608)
(-5.91028e-15 -1.90374 22.3575)
(-7.01447e-15 -1.86638 23.1942)
(-6.7875e-15 -1.82002 23.7943)
(-6.77895e-15 -1.69596 24.8357)
(-5.30319e-14 -0.411003 -20.516)
(-4.82766e-14 -0.538924 -19.8278)
(-5.04679e-14 -0.65578 -18.9198)
(-5.65245e-14 -0.750741 -17.8791)
(-5.7148e-14 -0.82098 -16.734)
(-3.92905e-14 -0.851269 -15.5636)
(-2.9074e-14 -0.840453 -14.4577)
(-3.02151e-14 -0.803114 -13.4948)
(-1.37289e-14 -0.754285 -12.7134)
(1.516e-14 -0.694518 -12.1319)
(6.58411e-15 -0.632152 -11.7511)
(-3.8653e-15 -0.564781 -11.5449)
(-5.50099e-16 -0.467831 -11.4934)
(1.00682e-16 -0.325717 -11.5924)
(-1.25133e-15 -0.148795 -11.8115)
(1.73519e-14 0.0396129 -12.1055)
(3.07728e-14 0.232983 -12.5087)
(2.72774e-14 0.423631 -12.9901)
(2.77059e-14 0.598166 -13.5255)
(2.46332e-14 0.745011 -14.0901)
(1.49092e-14 0.85551 -14.6554)
(1.36835e-14 0.921984 -15.1874)
(6.77706e-15 0.941858 -15.6491)
(6.25708e-15 0.923349 -16.0108)
(-1.03629e-15 0.888596 -16.2689)
(-8.46516e-15 0.866863 -16.4576)
(-1.17985e-14 0.879313 -16.6402)
(-5.59719e-15 0.929296 -16.8834)
(-1.20277e-14 1.0066 -17.237)
(-1.69791e-14 1.09841 -17.7288)
(-2.59356e-14 1.19624 -18.3689)
(-2.9491e-14 1.29699 -19.1544)
(-3.1022e-14 1.40133 -20.0737)
(-3.07267e-14 1.51191 -21.1113)
(-2.62499e-14 1.63234 -22.2526)
(-1.97042e-14 1.76641 -23.4888)
(-1.70611e-14 1.9173 -24.8202)
(-1.03873e-14 2.08575 -26.2583)
(-5.07937e-15 2.26597 -27.8237)
(-3.65545e-15 2.43839 -29.5401)
(-2.20951e-15 2.55797 -31.4202)
(-6.33175e-15 2.536 -33.438)
(-6.71516e-15 2.22317 -35.4622)
(-1.51552e-14 1.45263 -37.1532)
(-1.90788e-14 0.250925 -37.9938)
(-2.0216e-14 -0.971955 -37.7202)
(-1.86816e-14 -1.82705 -36.6123)
(-1.97491e-14 -2.38423 -35.1355)
(-1.71726e-14 -2.7469 -33.4374)
(-1.82088e-14 -2.9712 -31.592)
(-2.34319e-14 -3.07701 -29.6703)
(-2.98783e-14 -3.08555 -27.74)
(-3.0074e-14 -3.02733 -25.853)
(-3.34683e-14 -2.92783 -24.0386)
(-3.679e-14 -2.80642 -22.3098)
(-4.00355e-14 -2.67373 -20.6705)
(-4.13581e-14 -2.53437 -19.1219)
(-4.68646e-14 -2.39137 -17.6651)
(-5.12755e-14 -2.24828 -16.3003)
(-5.22156e-14 -2.10941 -15.0255)
(-5.63546e-14 -1.97961 -13.8366)
(-5.71274e-14 -1.86353 -12.7269)
(-5.51972e-14 -1.76528 -11.6873)
(-5.69635e-14 -1.68849 -10.7076)
(-5.58275e-14 -1.63708 -9.77624)
(-5.51631e-14 -1.61626 -8.88153)
(-5.32864e-14 -1.63484 -8.01215)
(-2.92997e-14 -1.70931 -7.15475)
(-1.21695e-14 -1.86856 -6.28397)
(-6.17891e-15 -2.15164 -5.34416)
(-4.11033e-15 -2.58881 -4.23453)
(-3.53792e-14 -3.14925 -2.84249)
(-3.02483e-14 -3.72574 -1.13705)
(-4.04014e-14 -4.21108 0.801444)
(-5.38616e-14 -4.49054 2.82244)
(-3.96906e-14 -4.543 4.81646)
(-7.07684e-15 -4.41296 6.72741)
(7.08035e-15 -4.15154 8.50423)
(2.09596e-15 -3.79812 10.1067)
(-5.57554e-15 -3.38668 11.5116)
(-1.04551e-14 -2.9487 12.7103)
(-1.9055e-14 -2.51258 13.7057)
(-1.99222e-14 -2.10317 14.5114)
(-1.42581e-14 -1.74134 15.1493)
(-9.30661e-15 -1.44376 15.648)
(-8.96876e-15 -1.22319 16.0407)
(-9.02927e-15 -1.08887 16.3642)
(-8.91819e-15 -1.04764 16.6585)
(-9.09552e-15 -1.10273 16.9681)
(-7.43535e-15 -1.24666 17.3401)
(-4.60247e-15 -1.45588 17.8131)
(-3.30175e-15 -1.69379 18.4069)
(-7.61757e-15 -1.91767 19.1144)
(-1.23987e-14 -2.09288 19.9075)
(-1.48122e-14 -2.20152 20.7393)
(-1.50757e-14 -2.2458 21.5861)
(-1.45621e-14 -2.23566 22.3838)
(-1.43203e-14 -2.18487 23.2145)
(-1.47603e-14 -2.12324 23.8064)
(-1.52222e-14 -1.97332 24.8246)
(-6.22312e-14 -0.46634 -20.5851)
(-6.0753e-14 -0.61427 -19.8969)
(-6.25858e-14 -0.748898 -18.9968)
(-5.87567e-14 -0.859467 -17.9557)
(-5.50318e-14 -0.939973 -16.8035)
(-4.48797e-14 -0.971918 -15.6221)
(-3.82341e-14 -0.952954 -14.5089)
(-2.06088e-14 -0.899984 -13.5525)
(-5.96349e-15 -0.831791 -12.7978)
(-3.84868e-17 -0.75061 -12.2637)
(7.06318e-15 -0.667834 -11.9448)
(1.33834e-14 -0.58183 -11.8065)
(1.7427e-14 -0.465554 -11.831)
(2.1934e-14 -0.307528 -12.0199)
(2.97938e-14 -0.119241 -12.2989)
(1.90835e-14 0.0814348 -12.6815)
(1.88399e-14 0.28693 -13.1672)
(2.14846e-14 0.485884 -13.7231)
(1.7683e-14 0.665313 -14.3177)
(1.72116e-14 0.813097 -14.9196)
(1.19331e-14 0.919983 -15.4949)
(1.14632e-14 0.977584 -16.0073)
(5.49805e-15 0.983695 -16.4207)
(2.61608e-15 0.949181 -16.7105)
(-7.85037e-15 0.901325 -16.88)
(-1.77403e-14 0.875019 -16.9683)
(-1.67892e-14 0.894498 -17.0391)
(-1.26542e-14 0.962583 -17.1569)
(-2.088e-14 1.06644 -17.3718)
(-2.78873e-14 1.19023 -17.7176)
(-3.22641e-14 1.32265 -18.2147)
(-3.4457e-14 1.45813 -18.8709)
(-3.47932e-14 1.59542 -19.6831)
(-3.3751e-14 1.73617 -20.6401)
(-3.04456e-14 1.88412 -21.7269)
(-2.72202e-14 2.04437 -22.9309)
(-1.39745e-14 2.22236 -24.2472)
(-6.95417e-15 2.42146 -25.6828)
(-1.66157e-15 2.63794 -27.2573)
(-6.85486e-16 2.85202 -28.998)
(-2.57419e-15 3.01339 -30.9287)
(-8.83722e-15 3.01719 -33.0398)
(-1.29459e-14 2.6779 -35.2104)
(-1.77147e-14 1.77508 -37.0658)
(-1.49895e-14 0.325008 -37.9822)
(-1.28888e-14 -1.1512 -37.6187)
(-1.48771e-14 -2.15307 -36.3293)
(-1.74833e-14 -2.78543 -34.6821)
(-2.07676e-14 -3.19152 -32.8336)
(-2.22029e-14 -3.4462 -30.8544)
(-2.13842e-14 -3.56526 -28.813)
(-2.50475e-14 -3.57147 -26.7817)
(-2.85185e-14 -3.50082 -24.8149)
(-3.21816e-14 -3.38337 -22.9393)
(-3.63147e-14 -3.24203 -21.1636)
(-4.13528e-14 -3.08871 -19.4879)
(-4.01003e-14 -2.92812 -17.9112)
(-4.17074e-14 -2.76336 -16.4337)
(-4.57938e-14 -2.5983 -15.0549)
(-4.73882e-14 -2.43793 -13.7723)
(-5.27504e-14 -2.28782 -12.5813)
(-5.58322e-14 -2.15336 -11.4747)
(-6.26973e-14 -2.03921 -10.4437)
(-6.66313e-14 -1.94936 -9.47848)
(-6.77355e-14 -1.88799 -8.56917)
(-6.60629e-14 -1.8604 -7.70619)
(-6.18999e-14 -1.87581 -6.88166)
(-4.72107e-14 -1.95306 -6.08745)
(-2.92244e-14 -2.12748 -5.30319)
(-1.93404e-14 -2.44919 -4.47138)
(-1.17111e-14 -2.96236 -3.47048)
(-3.42069e-14 -3.63206 -2.15605)
(-3.67715e-14 -4.31875 -0.489352)
(-5.04752e-14 -4.86361 1.42966)
(-6.33931e-14 -5.15751 3.43342)
(-4.3069e-14 -5.1989 5.415)
(-1.5341e-14 -5.03735 7.30732)
(-8.42535e-15 -4.72698 9.05655)
(-1.03547e-14 -4.31269 10.6236)
(-1.49201e-14 -3.83378 11.9864)
(-2.25503e-14 -3.32627 13.1372)
(-3.236e-14 -2.82262 14.0804)
(-2.84158e-14 -2.35123 14.8311)
(-2.27972e-14 -1.93589 15.4126)
(-1.55354e-14 -1.59561 15.8548)
(-9.15981e-15 -1.34499 16.192)
(-7.94665e-15 -1.19483 16.4622)
(-6.79042e-15 -1.15395 16.7065)
(-6.43696e-15 -1.2278 16.9727)
(-6.04655e-15 -1.40842 17.3133)
(-5.14649e-15 -1.66661 17.7716)
(-1.13512e-14 -1.95639 18.3686)
(-1.83004e-14 -2.22407 19.0934)
(-2.19348e-14 -2.42745 19.9098)
(-2.09302e-14 -2.54693 20.7625)
(-2.0608e-14 -2.58863 21.6228)
(-2.03247e-14 -2.56676 22.4252)
(-2.07098e-14 -2.50005 23.2532)
(-2.12388e-14 -2.42074 23.8389)
(-2.10648e-14 -2.24395 24.8377)
(-7.96724e-14 -0.520615 -20.6263)
(-8.07746e-14 -0.68876 -19.9408)
(-7.90792e-14 -0.841353 -19.0461)
(-7.91833e-14 -0.96818 -18.0026)
(-7.81992e-14 -1.05949 -16.8394)
(-5.94901e-14 -1.09304 -15.6409)
(-5.49311e-14 -1.06487 -14.5125)
(-3.8249e-14 -0.994204 -13.5538)
(-2.31685e-14 -0.904196 -12.8164)
(-1.79192e-14 -0.799455 -12.3184)
(1.77659e-15 -0.694976 -12.0461)
(4.24281e-15 -0.589325 -11.955)
(4.8226e-15 -0.452624 -12.0314)
(7.11141e-15 -0.279214 -12.2721)
(8.61774e-15 -0.0785535 -12.5883)
(8.39748e-15 0.137014 -13.0284)
(1.28619e-15 0.35471 -13.5693)
(1.40071e-15 0.561482 -14.177)
(1.34752e-14 0.744257 -14.8153)
(1.9965e-14 0.890393 -15.4488)
(1.55077e-14 0.990223 -16.0403)
(1.56042e-14 1.03501 -16.5524)
(6.49531e-15 1.02339 -16.9504)
(6.09238e-16 0.969262 -17.2133)
(6.85165e-16 0.905001 -17.347)
(8.40685e-17 0.870645 -17.3898)
(-1.67679e-14 0.893057 -17.4002)
(-2.02386e-14 0.974739 -17.4367)
(-2.80237e-14 1.10111 -17.5472)
(-3.56266e-14 1.25441 -17.7688)
(-3.3424e-14 1.42128 -18.1298)
(-4.02631e-14 1.59385 -18.6491)
(-4.18796e-14 1.76852 -19.3347)
(-3.79373e-14 1.94512 -20.1843)
(-2.64663e-14 2.12654 -21.1887)
(-1.88635e-14 2.31838 -22.3365)
(-1.28296e-14 2.52789 -23.6211)
(-6.8552e-15 2.76121 -25.0463)
(-3.9175e-15 3.01744 -26.6289)
(-5.27305e-15 3.27794 -28.3979)
(-1.02205e-14 3.48867 -30.3847)
(-1.6386e-14 3.52884 -32.5954)
(-1.59254e-14 3.17136 -34.9191)
(-1.44887e-14 2.12744 -36.9346)
(-1.03032e-14 0.394203 -37.875)
(-1.19266e-14 -1.36893 -37.3032)
(-1.52196e-14 -2.52409 -35.6986)
(-1.59632e-14 -3.22432 -33.759)
(-1.52357e-14 -3.66458 -31.6443)
(-1.41285e-14 -3.94249 -29.4257)
(-1.30179e-14 -4.06649 -27.1724)
(-1.2774e-14 -4.06131 -24.9667)
(-1.37013e-14 -3.96967 -22.866)
(-1.72282e-14 -3.8272 -20.8919)
(-2.10993e-14 -3.66061 -19.0451)
(-2.80861e-14 -3.48256 -17.3179)
(-3.12569e-14 -3.29732 -15.7054)
(-3.2431e-14 -3.10772 -14.2061)
(-3.75342e-14 -2.91796 -12.819)
(-3.36803e-14 -2.73365 -11.5416)
(-2.89791e-14 -2.56113 -10.3693)
(-3.0058e-14 -2.40647 -9.29528)
(-4.00983e-14 -2.27464 -8.31188)
(-5.34283e-14 -2.1698 -7.41131)
(-5.32108e-14 -2.09623 -6.58616)
(-5.95237e-14 -2.05901 -5.83004)
(-5.57321e-14 -2.06735 -5.13929)
(-4.76632e-14 -2.1424 -4.51094)
(-3.0141e-14 -2.32746 -3.92738)
(-2.74682e-14 -2.68729 -3.32217)
(-7.89594e-15 -3.28503 -2.53526)
(-3.0757e-14 -4.07967 -1.37325)
(-3.38721e-14 -4.89055 0.208876)
(-4.8071e-14 -5.50356 2.08734)
(-6.46385e-14 -5.81699 4.07147)
(-3.70697e-14 -5.84711 6.04138)
(-1.8445e-14 -5.65135 7.9176)
(-2.15594e-14 -5.2891 9.64221)
(-2.42164e-14 -4.81117 11.1759)
(-2.22481e-14 -4.26232 12.4971)
(-2.094e-14 -3.68324 13.599)
(-2.62032e-14 -3.11054 14.4875)
(-2.55347e-14 -2.57622 15.179)
(-1.5616e-14 -2.10703 15.6988)
(-1.18742e-14 -1.72426 16.0782)
(-7.70684e-15 -1.44426 16.3533)
(-5.53515e-15 -1.27945 16.5631)
(-4.93858e-15 -1.24099 16.75)
(-6.0164e-15 -1.33755 16.9655)
(-8.61499e-15 -1.56114 17.2691)
(-1.29949e-14 -1.87584 17.7102)
(-1.93693e-14 -2.22448 18.312)
(-2.37204e-14 -2.54033 19.0591)
(-2.37979e-14 -2.77255 19.906)
(-2.53204e-14 -2.90044 20.7862)
(-2.55503e-14 -2.93594 21.6656)
(-2.35888e-14 -2.89857 22.4764)
(-2.31801e-14 -2.81331 23.305)
(-2.3055e-14 -2.71359 23.8862)
(-2.37624e-14 -2.50928 24.8696)