/*--------------------------------*- C++ -*----------------------------------*\
| =========                 |                                                 |
| \\      /  F ield         | OpenFOAM: The Open Source CFD Toolbox           |
|  \\    /   O peration     | Version:  4.1                                   |
|   \\  /    A nd           | Web:      www.OpenFOAM.org                      |
|    \\/     M anipulation  |                                                 |
\*---------------------------------------------------------------------------*/
FoamFile
{
    version     2.0;
    format      ascii;
    class       volScalarField;
    location    "1400";
    object      k;
}
// * * * * * * * * * * * * * * * * * * * * * * * * * * * * * * * * * * * * * //

dimensions      [0 2 -2 0 0 0 0];

internalField   nonuniform List<scalar> 
6820
(
0.241787
0.289665
0.336844
0.381951
0.423953
0.46211
0.495948
0.525265
0.550093
0.57064
0.587232
0.60026
0.610145
0.617305
0.622142
0.625026
0.626287
0.62622
0.625078
0.623081
0.620414
0.617234
0.613671
0.609833
0.605811
0.601678
0.597494
0.593307
0.589155
0.585071
0.581074
0.577259
0.574892
0.202474
0.204679
0.206995
0.209467
0.212041
0.214681
0.217362
0.220056
0.222733
0.22537
0.227954
0.230479
0.232942
0.235349
0.237707
0.240025
0.242313
0.244581
0.246837
0.249089
0.251344
0.253607
0.255883
0.258175
0.260482
0.262807
0.265146
0.2675
0.269864
0.272236
0.274614
0.276992
0.279891
0.199741
0.199215
0.198471
0.197596
0.196619
0.195573
0.194483
0.193366
0.192235
0.191099
0.18997
0.188855
0.187761
0.186695
0.185662
0.184667
0.183716
0.182812
0.181958
0.181158
0.180414
0.179725
0.179091
0.17851
0.177983
0.177509
0.177086
0.176713
0.176389
0.176112
0.175879
0.175696
0.175595
0.199153
0.198176
0.197113
0.195992
0.194809
0.193571
0.192297
0.191001
0.189694
0.188384
0.187078
0.185782
0.184501
0.183238
0.181997
0.180781
0.179591
0.178431
0.177301
0.176204
0.17514
0.17411
0.173114
0.172153
0.171225
0.170332
0.169471
0.168644
0.16785
0.167087
0.166355
0.165653
0.164982
0.198981
0.1979
0.196807
0.195699
0.194559
0.193388
0.192197
0.190994
0.189785
0.188574
0.187366
0.186167
0.184978
0.183802
0.182643
0.181503
0.180382
0.179283
0.178206
0.177153
0.176124
0.175121
0.174143
0.17319
0.172263
0.171361
0.170485
0.169633
0.168807
0.168005
0.167226
0.166471
0.165731
0.198926
0.197795
0.196678
0.195576
0.194473
0.193363
0.192249
0.191134
0.190019
0.188909
0.187806
0.186711
0.185628
0.184558
0.183504
0.182465
0.181444
0.180441
0.179457
0.178492
0.177548
0.176624
0.17572
0.174837
0.173974
0.173133
0.172312
0.171511
0.17073
0.169969
0.169228
0.168505
0.167791
0.198906
0.197755
0.196631
0.195537
0.194463
0.193399
0.192342
0.191294
0.190254
0.189222
0.188201
0.187192
0.186194
0.18521
0.184241
0.183286
0.182348
0.181426
0.180521
0.179633
0.178762
0.177909
0.177075
0.176258
0.175459
0.174677
0.173914
0.173168
0.17244
0.171729
0.171035
0.170356
0.169684
0.1989
0.19774
0.196611
0.195517
0.194452
0.193408
0.192382
0.191373
0.19038
0.189401
0.188437
0.187487
0.186552
0.185631
0.184727
0.183837
0.182964
0.182107
0.181266
0.180441
0.179633
0.178841
0.178066
0.177307
0.176564
0.175838
0.175127
0.174433
0.173754
0.173091
0.172443
0.171808
0.171178
0.198897
0.197734
0.196603
0.195508
0.194448
0.193415
0.192408
0.191424
0.19046
0.189517
0.188591
0.187683
0.186792
0.185919
0.185061
0.184221
0.183396
0.182588
0.181796
0.18102
0.18026
0.179516
0.178787
0.178074
0.177376
0.176694
0.176026
0.175373
0.174735
0.174111
0.173501
0.172903
0.17231
0.198896
0.197732
0.1966
0.195505
0.194445
0.193417
0.192417
0.191444
0.190496
0.189571
0.188668
0.187785
0.186923
0.186079
0.185254
0.184446
0.183657
0.182884
0.182128
0.181388
0.180664
0.179956
0.179264
0.178587
0.177925
0.177278
0.176645
0.176026
0.175422
0.174831
0.174253
0.173687
0.173124
0.198896
0.197731
0.196599
0.195504
0.194444
0.193417
0.192421
0.191454
0.190514
0.1896
0.18871
0.187844
0.186999
0.186175
0.185371
0.184587
0.183821
0.183073
0.182342
0.181629
0.180931
0.18025
0.179585
0.178935
0.1783
0.177679
0.177073
0.17648
0.175902
0.175336
0.174784
0.174242
0.173704
0.198896
0.19773
0.196599
0.195504
0.194444
0.193418
0.192423
0.191458
0.190521
0.189612
0.188729
0.18787
0.187035
0.186222
0.18543
0.184659
0.183908
0.183176
0.182462
0.181765
0.181086
0.180423
0.179777
0.179146
0.17853
0.177929
0.177342
0.176769
0.17621
0.175664
0.175131
0.174609
0.174091
0.198896
0.19773
0.196599
0.195504
0.194444
0.193418
0.192424
0.19146
0.190525
0.189618
0.188738
0.187884
0.187054
0.186247
0.185463
0.1847
0.183958
0.183235
0.182532
0.181847
0.181179
0.180529
0.179895
0.179277
0.178675
0.178088
0.177515
0.176956
0.176411
0.175879
0.17536
0.174852
0.174348
0.198896
0.19773
0.196599
0.195504
0.194445
0.193419
0.192425
0.191461
0.190527
0.189621
0.188743
0.18789
0.187062
0.186259
0.185478
0.184719
0.183981
0.183264
0.182567
0.181888
0.181227
0.180584
0.179958
0.179349
0.178755
0.178176
0.177612
0.177063
0.176528
0.176006
0.175496
0.174998
0.174504
0.198896
0.19773
0.196599
0.195505
0.194445
0.193419
0.192425
0.191462
0.190528
0.189623
0.188745
0.187893
0.187067
0.186265
0.185486
0.184729
0.183994
0.18328
0.182586
0.181911
0.181254
0.180616
0.179995
0.17939
0.178802
0.178229
0.177671
0.177127
0.176598
0.176082
0.17558
0.175088
0.174601
0.198896
0.19773
0.196599
0.195505
0.194446
0.19342
0.192426
0.191463
0.190529
0.189624
0.188747
0.187895
0.187069
0.186268
0.18549
0.184734
0.184
0.183288
0.182595
0.181922
0.181267
0.180631
0.180012
0.179411
0.178825
0.178255
0.177701
0.177161
0.176635
0.176123
0.175625
0.175137
0.174654
0.198896
0.19773
0.1966
0.195505
0.194446
0.19342
0.192426
0.191463
0.19053
0.189625
0.188748
0.187896
0.187071
0.18627
0.185492
0.184737
0.184004
0.183292
0.1826
0.181928
0.181275
0.18064
0.180023
0.179422
0.178838
0.17827
0.177718
0.17718
0.176657
0.176147
0.175651
0.175166
0.174686
0.198896
0.19773
0.1966
0.195505
0.194446
0.19342
0.192427
0.191464
0.19053
0.189626
0.188748
0.187897
0.187072
0.186271
0.185493
0.184739
0.184006
0.183294
0.182603
0.181931
0.181279
0.180644
0.180028
0.179428
0.178845
0.178278
0.177726
0.17719
0.176667
0.176159
0.175664
0.175181
0.174702
0.198896
0.197729
0.1966
0.195506
0.194446
0.193421
0.192427
0.191464
0.190531
0.189626
0.188749
0.187898
0.187073
0.186272
0.185494
0.18474
0.184007
0.183296
0.182605
0.181933
0.181281
0.180647
0.180031
0.179432
0.178849
0.178283
0.177732
0.177195
0.176674
0.176166
0.175672
0.17519
0.174712
0.198896
0.197729
0.1966
0.195506
0.194446
0.193421
0.192427
0.191464
0.190531
0.189627
0.188749
0.187899
0.187073
0.186272
0.185495
0.184741
0.184008
0.183297
0.182606
0.181935
0.181283
0.180649
0.180033
0.179434
0.178852
0.178285
0.177734
0.177199
0.176677
0.17617
0.175676
0.175194
0.174717
0.198896
0.197729
0.1966
0.195506
0.194447
0.193421
0.192427
0.191465
0.190532
0.189627
0.18875
0.187899
0.187074
0.186273
0.185496
0.184742
0.184009
0.183298
0.182607
0.181936
0.181284
0.18065
0.180034
0.179435
0.178853
0.178287
0.177737
0.177201
0.17668
0.176173
0.175679
0.175197
0.17472
0.198896
0.197729
0.1966
0.195506
0.194447
0.193421
0.192428
0.191465
0.190532
0.189627
0.18875
0.1879
0.187074
0.186274
0.185497
0.184742
0.18401
0.183299
0.182608
0.181937
0.181285
0.180651
0.180035
0.179437
0.178855
0.178288
0.177738
0.177202
0.176681
0.176174
0.175681
0.175199
0.174722
0.198896
0.197729
0.1966
0.195506
0.194447
0.193421
0.192428
0.191465
0.190532
0.189628
0.188751
0.1879
0.187075
0.186274
0.185497
0.184743
0.18401
0.183299
0.182608
0.181937
0.181285
0.180652
0.180036
0.179437
0.178855
0.178289
0.177739
0.177203
0.176683
0.176176
0.175682
0.1752
0.174723
0.198896
0.19773
0.1966
0.195506
0.194447
0.193421
0.192428
0.191465
0.190532
0.189628
0.188751
0.1879
0.187075
0.186274
0.185497
0.184743
0.184011
0.1833
0.182609
0.181938
0.181286
0.180652
0.180037
0.179438
0.178856
0.17829
0.17774
0.177204
0.176683
0.176176
0.175683
0.175201
0.174724
0.198896
0.197729
0.1966
0.195506
0.194447
0.193421
0.192428
0.191465
0.190532
0.189628
0.188751
0.1879
0.187075
0.186274
0.185497
0.184743
0.184011
0.1833
0.182609
0.181938
0.181286
0.180653
0.180037
0.179438
0.178856
0.17829
0.17774
0.177204
0.176683
0.176176
0.175683
0.175201
0.174724
0.198896
0.197729
0.1966
0.195506
0.194447
0.193421
0.192428
0.191465
0.190532
0.189628
0.188751
0.1879
0.187075
0.186274
0.185497
0.184743
0.184011
0.1833
0.182609
0.181938
0.181286
0.180653
0.180037
0.179438
0.178856
0.17829
0.17774
0.177204
0.176683
0.176177
0.175683
0.175201
0.174724
0.198896
0.197729
0.1966
0.195506
0.194447
0.193421
0.192428
0.191465
0.190532
0.189628
0.188751
0.1879
0.187075
0.186274
0.185497
0.184743
0.18401
0.183299
0.182608
0.181937
0.181285
0.180652
0.180036
0.179437
0.178855
0.178289
0.177738
0.177203
0.176682
0.176175
0.175681
0.175199
0.174722
0.198896
0.197729
0.1966
0.195506
0.194447
0.193421
0.192428
0.191465
0.190532
0.189628
0.188751
0.1879
0.187075
0.186274
0.185497
0.184743
0.18401
0.183299
0.182608
0.181937
0.181285
0.180652
0.180036
0.179437
0.178855
0.178289
0.177738
0.177203
0.176682
0.176175
0.175681
0.175199
0.174722
0.198896
0.197729
0.1966
0.195506
0.194447
0.193421
0.192428
0.191465
0.190532
0.189627
0.18875
0.187899
0.187074
0.186273
0.185496
0.184741
0.184009
0.183297
0.182606
0.181935
0.181283
0.180649
0.180033
0.179434
0.178852
0.178285
0.177735
0.177199
0.176678
0.176171
0.175677
0.175195
0.174718
0.198896
0.197729
0.1966
0.195506
0.194447
0.193421
0.192427
0.191465
0.190532
0.189627
0.18875
0.187899
0.187074
0.186273
0.185496
0.184742
0.184009
0.183298
0.182607
0.181936
0.181283
0.18065
0.180034
0.179435
0.178852
0.178286
0.177735
0.177199
0.176678
0.176171
0.175677
0.175195
0.174717
0.198896
0.197729
0.1966
0.195506
0.194447
0.193421
0.192427
0.191464
0.190531
0.189626
0.188749
0.187898
0.187072
0.186271
0.185493
0.184738
0.184005
0.183294
0.182602
0.181931
0.181278
0.180644
0.180028
0.179428
0.178846
0.178279
0.177728
0.177192
0.17667
0.176162
0.175668
0.175185
0.174708
0.198896
0.197729
0.1966
0.195506
0.194446
0.193421
0.192427
0.191464
0.190531
0.189627
0.18875
0.187899
0.187074
0.186273
0.185496
0.184741
0.184008
0.183297
0.182605
0.181934
0.181281
0.180646
0.18003
0.17943
0.178847
0.17828
0.177728
0.177191
0.176669
0.176161
0.175666
0.175182
0.174704
0.198896
0.19773
0.1966
0.195505
0.194446
0.19342
0.192426
0.191462
0.190528
0.189623
0.188745
0.187893
0.187067
0.186265
0.185487
0.184732
0.183998
0.183286
0.182594
0.181921
0.181267
0.180632
0.180014
0.179413
0.178829
0.178261
0.177708
0.17717
0.176646
0.176136
0.175639
0.175154
0.174674
0.198896
0.19773
0.1966
0.195506
0.194447
0.193422
0.192429
0.191467
0.190534
0.18963
0.188753
0.187901
0.187075
0.186274
0.185495
0.184739
0.184004
0.183291
0.182597
0.181923
0.181267
0.180629
0.180009
0.179405
0.178818
0.178247
0.17769
0.177149
0.176621
0.176108
0.175607
0.175118
0.174633
0.198896
0.19773
0.1966
0.195504
0.194443
0.193416
0.192421
0.191457
0.190522
0.189617
0.188738
0.187885
0.187057
0.186253
0.185472
0.184713
0.183975
0.183258
0.18256
0.181881
0.181221
0.180578
0.179952
0.179343
0.17875
0.178172
0.177609
0.177061
0.176527
0.176007
0.175499
0.175004
0.174512
0.198897
0.197733
0.196606
0.195516
0.194462
0.193441
0.19245
0.191489
0.190556
0.18965
0.18877
0.187914
0.187082
0.186273
0.185486
0.18472
0.183974
0.183248
0.182541
0.181852
0.181181
0.180527
0.17989
0.17927
0.178665
0.178075
0.1775
0.17694
0.176393
0.17586
0.175341
0.174832
0.174328
0.1989
0.197735
0.196605
0.195515
0.194465
0.193449
0.192464
0.191508
0.190579
0.189676
0.188796
0.187939
0.187104
0.186291
0.185497
0.184724
0.18397
0.183235
0.182518
0.181819
0.181138
0.180473
0.179825
0.179193
0.178577
0.177976
0.177391
0.176819
0.176262
0.175719
0.175189
0.174672
0.174158
0.198944
0.197852
0.196795
0.195774
0.194787
0.193827
0.192894
0.191986
0.191101
0.190238
0.189397
0.188577
0.187778
0.186998
0.186237
0.185495
0.184771
0.184066
0.183378
0.182708
0.182054
0.181417
0.180797
0.180192
0.179603
0.179029
0.178471
0.177927
0.177397
0.176881
0.176379
0.175889
0.175406
0.199227
0.198572
0.198048
0.197613
0.197233
0.196892
0.196584
0.196305
0.196052
0.195821
0.19561
0.195418
0.195243
0.195084
0.194942
0.194813
0.194699
0.194597
0.194508
0.194431
0.194364
0.194308
0.194261
0.194224
0.194195
0.194174
0.194162
0.194156
0.194157
0.194164
0.194178
0.194197
0.194225
0.209515
0.220347
0.230808
0.24093
0.250733
0.260233
0.269438
0.278351
0.286978
0.295321
0.303382
0.311166
0.318675
0.325913
0.332885
0.339595
0.346049
0.352252
0.35821
0.363929
0.369416
0.374677
0.379719
0.38455
0.389175
0.393602
0.397838
0.401889
0.405764
0.409467
0.413007
0.416391
0.419648
0.644258
0.80508
0.98448
1.16997
1.33648
1.47317
1.57916
1.65838
1.71679
1.76018
1.79291
1.8177
1.83659
1.85097
1.86168
1.86908
1.87293
1.87358
1.87077
1.86483
1.85627
1.84555
1.83318
1.81966
1.80556
1.7914
1.77759
1.76445
1.75222
1.74109
1.7312
1.72267
1.71555
1.70985
1.70554
1.70254
1.70074
1.69999
1.70014
1.70097
1.70231
1.70392
1.70561
1.70715
1.70833
1.70896
1.70883
1.70777
1.70561
1.7022
1.69741
1.69112
1.68326
1.67375
1.66255
1.64962
1.63498
1.61864
1.60063
1.58103
1.55992
1.53738
1.51355
1.48856
1.46255
1.43568
1.40813
1.38006
1.35166
1.32311
1.29459
1.26628
1.23836
1.21099
1.18433
1.15851
1.13366
1.10987
1.0872
1.06571
1.04541
1.02631
1.00839
0.991623
0.97597
0.961372
0.947761
0.935055
0.923166
0.911996
0.901445
0.891409
0.881792
0.8725
0.863505
0.854772
0.846579
0.839097
0.833748
0.830634
0.287841
0.307519
0.342161
0.396111
0.46865
0.556217
0.65297
0.752607
0.849877
0.941067
1.02403
1.09793
1.16295
1.2199
1.26978
1.31346
1.35141
1.38398
1.41193
1.4356
1.45527
1.47125
1.48385
1.49344
1.50045
1.50533
1.50849
1.51032
1.51116
1.51131
1.51106
1.51063
1.51022
1.50998
1.51001
1.51038
1.51111
1.51216
1.51351
1.51504
1.51667
1.51826
1.51967
1.52076
1.52137
1.52136
1.52057
1.51887
1.51612
1.51221
1.50704
1.50053
1.49261
1.48322
1.47235
1.45999
1.44613
1.43081
1.41408
1.396
1.37665
1.35613
1.33455
1.31204
1.28874
1.2648
1.24037
1.2156
1.19068
1.16575
1.14097
1.11651
1.09251
1.06911
1.04645
1.02462
1.00374
0.983876
0.965085
0.947396
0.930819
0.91535
0.900969
0.887644
0.87533
0.86397
0.853497
0.843832
0.834891
0.826583
0.818812
0.811481
0.8045
0.797781
0.791296
0.785012
0.779174
0.773927
0.770481
0.768791
0.175883
0.177379
0.180713
0.187103
0.197763
0.213718
0.236281
0.266322
0.303962
0.348549
0.399026
0.45403
0.512075
0.571715
0.631652
0.690745
0.747972
0.802289
0.853508
0.901426
0.945887
0.986774
1.02403
1.05767
1.0878
1.1146
1.13828
1.15908
1.17728
1.19316
1.20702
1.21912
1.22973
1.23909
1.24742
1.25488
1.26163
1.26777
1.27336
1.27845
1.28305
1.28713
1.29065
1.29355
1.29577
1.29723
1.29783
1.29749
1.29613
1.29366
1.29003
1.28517
1.27903
1.27158
1.26281
1.25271
1.2413
1.22861
1.21469
1.1996
1.18342
1.16625
1.14818
1.12936
1.10989
1.08991
1.06957
1.04901
1.02836
1.00778
0.987398
0.967346
0.94775
0.928728
0.910387
0.892822
0.876111
0.860319
0.845486
0.831638
0.818778
0.8069
0.795983
0.785996
0.776896
0.768631
0.761138
0.754346
0.74818
0.742553
0.737382
0.732575
0.728051
0.723729
0.719583
0.715582
0.711939
0.708769
0.707086
0.706686
0.164172
0.163488
0.163038
0.16304
0.163751
0.165459
0.168527
0.173354
0.180333
0.189997
0.202772
0.218998
0.238943
0.262765
0.290475
0.321907
0.356675
0.394154
0.433591
0.474396
0.515933
0.557557
0.598654
0.638674
0.677165
0.713775
0.74825
0.780429
0.810237
0.837671
0.862789
0.885692
0.906513
0.925405
0.942533
0.95806
0.972143
0.984922
0.996516
1.00702
1.01652
1.02505
1.03266
1.03934
1.0451
1.04992
1.05375
1.05657
1.05833
1.05898
1.0585
1.05683
1.05397
1.04989
1.04458
1.03806
1.03035
1.02148
1.01151
1.00049
0.988509
0.975646
0.962003
0.947687
0.932814
0.917502
0.901874
0.886054
0.870166
0.854329
0.838661
0.823273
0.808271
0.793754
0.779811
0.766521
0.753951
0.742155
0.731168
0.721013
0.711694
0.703206
0.695533
0.688647
0.682513
0.677085
0.67231
0.668127
0.664469
0.661262
0.65843
0.655893
0.653579
0.651414
0.649375
0.647433
0.645769
0.644469
0.644363
0.645096
0.164797
0.163875
0.162998
0.162212
0.161573
0.161149
0.161034
0.161341
0.162195
0.163748
0.16618
0.169687
0.174466
0.180726
0.188679
0.198534
0.210471
0.224617
0.240984
0.259609
0.280447
0.303371
0.328167
0.354542
0.38214
0.410567
0.439412
0.468275
0.496787
0.52463
0.551543
0.577326
0.601838
0.624993
0.646751
0.667109
0.686091
0.703739
0.720104
0.735242
0.749204
0.762037
0.773779
0.784457
0.794087
0.802676
0.810222
0.816714
0.822138
0.826475
0.829708
0.831823
0.832808
0.832662
0.831387
0.829
0.825525
0.820998
0.815466
0.808986
0.801626
0.793464
0.784586
0.775084
0.765057
0.754606
0.743837
0.732853
0.721759
0.710656
0.699643
0.688814
0.678259
0.66806
0.658294
0.649029
0.640324
0.632225
0.624768
0.617974
0.611852
0.606402
0.601614
0.597468
0.593937
0.590986
0.588573
0.586648
0.585154
0.584029
0.583208
0.582623
0.58221
0.581905
0.581687
0.581527
0.581579
0.581898
0.583145
0.584831
0.166889
0.165976
0.165066
0.164173
0.163312
0.162504
0.161777
0.16117
0.160729
0.160505
0.160562
0.160973
0.16182
0.163187
0.165168
0.167861
0.171369
0.175792
0.181213
0.187721
0.195405
0.204343
0.214596
0.2262
0.239156
0.253426
0.268931
0.285547
0.303112
0.321436
0.340309
0.359516
0.378842
0.398088
0.417077
0.435658
0.453706
0.471123
0.487834
0.503787
0.518942
0.533274
0.546763
0.559396
0.57116
0.582044
0.592034
0.601114
0.60927
0.616484
0.622742
0.628029
0.632336
0.63566
0.638003
0.639374
0.639793
0.639285
0.637887
0.635643
0.632608
0.628841
0.624412
0.619395
0.613869
0.607917
0.601623
0.595073
0.588353
0.581545
0.574733
0.567995
0.561406
0.555036
0.548952
0.543212
0.53787
0.53297
0.528545
0.52462
0.521208
0.518316
0.515942
0.514074
0.512696
0.511782
0.511302
0.511217
0.511482
0.512048
0.512859
0.513859
0.514994
0.516208
0.517482
0.518789
0.520257
0.52191
0.524256
0.526697
0.168835
0.167969
0.1671
0.16623
0.165369
0.16452
0.163693
0.162901
0.16216
0.161491
0.160916
0.160469
0.160182
0.160095
0.160251
0.160697
0.161481
0.162654
0.164261
0.166347
0.168961
0.17215
0.175962
0.180443
0.185633
0.191569
0.198275
0.205766
0.21404
0.223079
0.232847
0.24329
0.254336
0.265901
0.277888
0.290195
0.302717
0.315349
0.327993
0.340554
0.352947
0.365096
0.376932
0.388394
0.399427
0.409982
0.420014
0.429483
0.438349
0.446579
0.454139
0.461003
0.467147
0.472552
0.477207
0.481106
0.484251
0.486652
0.488325
0.489298
0.489601
0.489276
0.488369
0.486933
0.485025
0.482706
0.48004
0.477092
0.47393
0.470618
0.467222
0.463808
0.460435
0.457164
0.454051
0.451148
0.448501
0.446152
0.444134
0.442474
0.441191
0.440295
0.439792
0.439679
0.43995
0.440588
0.441572
0.442875
0.444464
0.446299
0.448336
0.45053
0.452834
0.455202
0.457617
0.460052
0.462611
0.465293
0.468469
0.471455
0.170384
0.169571
0.168753
0.16793
0.167106
0.166282
0.16546
0.164646
0.163847
0.16307
0.162326
0.161627
0.160989
0.16043
0.15997
0.159633
0.159443
0.159428
0.159616
0.160031
0.160701
0.161651
0.162908
0.164497
0.166443
0.168767
0.171493
0.174638
0.178218
0.182245
0.186727
0.191665
0.197055
0.202884
0.209133
0.215778
0.222785
0.230116
0.237726
0.245568
0.25359
0.261739
0.269962
0.278204
0.286412
0.294533
0.302517
0.310312
0.317872
0.32515
0.332103
0.33869
0.344875
0.350625
0.355911
0.360713
0.365014
0.368804
0.37208
0.374846
0.377114
0.378899
0.380227
0.381126
0.381631
0.381781
0.381617
0.381185
0.380533
0.379707
0.378758
0.377733
0.376683
0.375654
0.374692
0.373842
0.373144
0.372635
0.372347
0.372308
0.372537
0.373052
0.373862
0.374971
0.376379
0.378079
0.380058
0.382299
0.384777
0.387463
0.390323
0.39332
0.396417
0.399574
0.402776
0.405998
0.409321
0.412721
0.416457
0.419781
0.171562
0.170796
0.170024
0.169247
0.168465
0.167679
0.166891
0.166103
0.165316
0.164535
0.163764
0.163006
0.162269
0.161561
0.160892
0.160272
0.159716
0.159237
0.158851
0.158576
0.158426
0.158419
0.158571
0.158899
0.159418
0.160143
0.161088
0.162264
0.163684
0.165356
0.167289
0.16949
0.171962
0.174709
0.177731
0.181026
0.184589
0.188412
0.192484
0.196793
0.20132
0.206047
0.210952
0.216009
0.221191
0.226468
0.23181
0.237183
0.242553
0.247884
0.253142
0.258291
0.263297
0.268125
0.272746
0.277131
0.281255
0.285098
0.288644
0.291882
0.294806
0.297417
0.299718
0.30172
0.303437
0.304889
0.306098
0.307091
0.307897
0.308548
0.309076
0.309516
0.309903
0.310274
0.310664
0.311107
0.311639
0.312289
0.313088
0.31406
0.315226
0.316605
0.318209
0.320046
0.322122
0.324435
0.32698
0.329746
0.332716
0.335869
0.33918
0.34262
0.346159
0.349764
0.353422
0.357108
0.360884
0.364707
0.368746
0.372216
0.172416
0.17169
0.170959
0.170221
0.169479
0.168731
0.16798
0.167224
0.166466
0.165707
0.164948
0.164191
0.16344
0.162697
0.161967
0.161255
0.160569
0.159915
0.159302
0.158739
0.158237
0.157805
0.157456
0.157199
0.157045
0.157007
0.157092
0.157311
0.157673
0.158184
0.158852
0.159681
0.160677
0.161842
0.163181
0.164693
0.166381
0.168244
0.17028
0.172487
0.174861
0.177396
0.180086
0.182923
0.185897
0.188995
0.192205
0.195512
0.198898
0.202345
0.205832
0.209338
0.212841
0.216317
0.219744
0.223098
0.226358
0.229505
0.23252
0.235387
0.238096
0.240636
0.243002
0.245194
0.247212
0.249062
0.250755
0.252301
0.253716
0.255018
0.256227
0.257365
0.258456
0.259525
0.260597
0.2617
0.262858
0.264099
0.265445
0.266919
0.268541
0.270327
0.272293
0.274448
0.2768
0.279353
0.282105
0.28505
0.288179
0.291476
0.294925
0.2985
0.302181
0.305939
0.309762
0.313629
0.317582
0.321567
0.325681
0.329131
0.173028
0.172334
0.171635
0.170931
0.170221
0.169507
0.168787
0.168063
0.167336
0.166604
0.16587
0.165134
0.164396
0.16366
0.162925
0.162195
0.161473
0.160762
0.160068
0.159394
0.158747
0.158132
0.157558
0.15703
0.156556
0.156143
0.1558
0.155533
0.155349
0.155254
0.155254
0.155354
0.155558
0.15587
0.156294
0.156831
0.157483
0.158252
0.159138
0.160141
0.161261
0.162497
0.163847
0.165309
0.166879
0.168555
0.170331
0.172202
0.174159
0.176196
0.178303
0.180469
0.182683
0.184931
0.187201
0.189478
0.191749
0.193998
0.196213
0.19838
0.200489
0.202529
0.204492
0.206374
0.208169
0.209878
0.211502
0.213045
0.214513
0.215915
0.217263
0.218569
0.219848
0.221116
0.222392
0.223694
0.225041
0.226453
0.22795
0.22955
0.23127
0.233125
0.235131
0.237297
0.239632
0.242143
0.24483
0.247694
0.250727
0.253922
0.257263
0.260735
0.26432
0.267996
0.271752
0.275567
0.279471
0.283401
0.287406
0.290704
0.173439
0.172772
0.172099
0.171421
0.170738
0.170051
0.169359
0.168662
0.167961
0.167256
0.166547
0.165834
0.165117
0.164398
0.163677
0.162955
0.162234
0.161514
0.160799
0.160091
0.159393
0.158709
0.158042
0.157396
0.156777
0.156189
0.155638
0.155127
0.154663
0.154251
0.153894
0.153598
0.153366
0.153202
0.15311
0.153091
0.153148
0.153283
0.153497
0.153792
0.154167
0.154624
0.155162
0.15578
0.15648
0.157258
0.158114
0.159046
0.160052
0.161127
0.162269
0.163472
0.164731
0.166041
0.167394
0.168783
0.170199
0.171636
0.173084
0.174534
0.17598
0.177412
0.178826
0.180214
0.181574
0.182901
0.184195
0.185455
0.186685
0.187887
0.189068
0.190235
0.191396
0.192562
0.193745
0.194958
0.196216
0.197532
0.198923
0.200402
0.201985
0.203685
0.205515
0.207487
0.209608
0.211886
0.214326
0.216928
0.219691
0.222609
0.225673
0.228871
0.232189
0.235611
0.239127
0.242717
0.246401
0.250113
0.253868
0.256922
0.173715
0.173067
0.172414
0.171756
0.171094
0.170428
0.169757
0.169082
0.168403
0.16772
0.167032
0.166341
0.165645
0.164946
0.164243
0.163537
0.162829
0.162119
0.161408
0.160698
0.15999
0.159286
0.158588
0.157899
0.15722
0.156556
0.15591
0.155285
0.154683
0.15411
0.153568
0.153061
0.152591
0.152163
0.151779
0.151441
0.151152
0.150914
0.150729
0.150597
0.150521
0.150501
0.150538
0.150632
0.150783
0.150992
0.151259
0.151582
0.151961
0.152396
0.152884
0.153425
0.154015
0.154652
0.155333
0.156055
0.156813
0.157604
0.158422
0.159263
0.160122
0.160995
0.161876
0.162763
0.163651
0.164539
0.165423
0.166304
0.167182
0.168058
0.168936
0.169819
0.170712
0.171623
0.17256
0.173531
0.174547
0.175619
0.176758
0.177977
0.179288
0.180702
0.182231
0.183885
0.185674
0.187606
0.189685
0.191916
0.194299
0.196831
0.199508
0.202321
0.205261
0.208314
0.211473
0.214718
0.218064
0.221442
0.224855
0.227606
0.173885
0.17325
0.172612
0.171969
0.171323
0.170672
0.170018
0.16936
0.168698
0.168031
0.167362
0.166688
0.16601
0.165328
0.164642
0.163953
0.16326
0.162564
0.161865
0.161165
0.160462
0.15976
0.159058
0.158358
0.157662
0.156972
0.156288
0.155614
0.154952
0.154303
0.153671
0.153058
0.152465
0.151897
0.151353
0.150838
0.150353
0.1499
0.14948
0.149095
0.148747
0.148436
0.148163
0.14793
0.147737
0.147585
0.147473
0.147402
0.147373
0.147384
0.147436
0.147528
0.147659
0.147829
0.148036
0.148278
0.148555
0.148863
0.149201
0.149567
0.149957
0.150369
0.150802
0.151251
0.151716
0.152195
0.152686
0.153188
0.153702
0.154229
0.154769
0.155325
0.155901
0.156502
0.157132
0.157798
0.158508
0.15927
0.160093
0.160987
0.161961
0.163026
0.164193
0.16547
0.166867
0.168392
0.170052
0.171852
0.173795
0.175881
0.178107
0.180471
0.182964
0.185577
0.188305
0.19113
0.194061
0.197033
0.200044
0.202464
0.173991
0.173366
0.172737
0.172105
0.17147
0.170831
0.170188
0.169542
0.168892
0.168239
0.167582
0.166922
0.166257
0.16559
0.164918
0.164243
0.163564
0.162882
0.162196
0.161508
0.160816
0.160123
0.159428
0.158732
0.158035
0.15734
0.156647
0.155957
0.155272
0.154592
0.153921
0.153258
0.152607
0.151968
0.151343
0.150733
0.150142
0.149569
0.149016
0.148485
0.147977
0.147493
0.147034
0.146601
0.146195
0.145817
0.145466
0.145144
0.144851
0.144587
0.144352
0.144147
0.143971
0.143823
0.143705
0.143614
0.143551
0.143515
0.143504
0.143519
0.143556
0.143616
0.143698
0.143799
0.143919
0.144057
0.144212
0.144385
0.144574
0.14478
0.145005
0.145251
0.145519
0.145812
0.146135
0.146492
0.146888
0.147331
0.147826
0.148382
0.149006
0.149708
0.150496
0.15138
0.152368
0.153468
0.154689
0.156035
0.157513
0.159124
0.160871
0.16275
0.16476
0.166893
0.169146
0.171504
0.173974
0.176495
0.17907
0.181143
0.17405
0.173431
0.172809
0.172184
0.171556
0.170924
0.170289
0.169652
0.169011
0.168366
0.167719
0.167068
0.166415
0.165757
0.165097
0.164432
0.163765
0.163094
0.16242
0.161742
0.161061
0.160378
0.159692
0.159004
0.158314
0.157623
0.156932
0.156241
0.155551
0.154863
0.154177
0.153496
0.15282
0.152149
0.151486
0.150831
0.150185
0.14955
0.148926
0.148315
0.147718
0.147136
0.146569
0.146018
0.145485
0.14497
0.144473
0.143995
0.143537
0.143099
0.142681
0.142283
0.141906
0.141551
0.141215
0.140901
0.140608
0.140334
0.140081
0.139848
0.139634
0.139439
0.139262
0.139103
0.138961
0.138837
0.138729
0.138638
0.138563
0.138506
0.138467
0.138447
0.138448
0.138472
0.138522
0.1386
0.138712
0.138862
0.139054
0.139296
0.139593
0.139953
0.140383
0.140892
0.141487
0.142176
0.142968
0.143869
0.144886
0.146023
0.147284
0.148671
0.150183
0.151817
0.153573
0.155439
0.15742
0.159463
0.16158
0.163298
0.174085
0.17347
0.172852
0.172231
0.171608
0.170981
0.170352
0.16972
0.169084
0.168446
0.167805
0.167161
0.166514
0.165864
0.165211
0.164555
0.163896
0.163233
0.162568
0.161899
0.161227
0.160553
0.159875
0.159196
0.158513
0.157829
0.157144
0.156457
0.15577
0.155082
0.154395
0.153709
0.153025
0.152343
0.151664
0.150989
0.150318
0.149653
0.148994
0.148342
0.147698
0.147062
0.146435
0.145819
0.145212
0.144618
0.144034
0.143463
0.142905
0.14236
0.141829
0.141312
0.140809
0.14032
0.139846
0.139386
0.138942
0.138512
0.138097
0.137697
0.137311
0.13694
0.136583
0.136241
0.135912
0.135598
0.135297
0.13501
0.134737
0.134479
0.134235
0.134008
0.133797
0.133605
0.133434
0.133285
0.133161
0.133066
0.133004
0.132979
0.132996
0.13306
0.133179
0.133358
0.133604
0.133925
0.134328
0.13482
0.135408
0.136099
0.136897
0.137807
0.138831
0.139971
0.141227
0.142591
0.144072
0.145622
0.147268
0.148619
0.174103
0.17349
0.172875
0.172257
0.171636
0.171012
0.170386
0.169757
0.169125
0.168491
0.167854
0.167214
0.166572
0.165927
0.165279
0.164628
0.163974
0.163318
0.162659
0.161996
0.161331
0.160663
0.159993
0.15932
0.158645
0.157967
0.157288
0.156607
0.155924
0.155241
0.154556
0.153872
0.153187
0.152503
0.15182
0.151138
0.150458
0.14978
0.149106
0.148435
0.147767
0.147105
0.146448
0.145796
0.14515
0.144512
0.14388
0.143256
0.14264
0.142032
0.141434
0.140844
0.140264
0.139694
0.139133
0.138583
0.138043
0.137513
0.136995
0.136486
0.135988
0.135501
0.135025
0.134559
0.134103
0.133659
0.133224
0.132801
0.132388
0.131986
0.131595
0.131216
0.13085
0.130498
0.13016
0.129839
0.129535
0.129252
0.128992
0.128759
0.128555
0.128385
0.128253
0.128164
0.128125
0.128141
0.128217
0.128362
0.12858
0.128879
0.129265
0.129743
0.130318
0.130993
0.131773
0.132652
0.133642
0.134703
0.135874
0.136848
0.174113
0.173502
0.172888
0.172272
0.171652
0.171031
0.170406
0.169779
0.16915
0.168518
0.167883
0.167246
0.166607
0.165964
0.16532
0.164672
0.164022
0.16337
0.162715
0.162057
0.161396
0.160733
0.160068
0.1594
0.15873
0.158057
0.157383
0.156707
0.156029
0.15535
0.15467
0.153988
0.153306
0.152623
0.151941
0.151258
0.150576
0.149894
0.149214
0.148535
0.147858
0.147183
0.146511
0.145842
0.145177
0.144515
0.143857
0.143204
0.142556
0.141913
0.141276
0.140645
0.14002
0.139401
0.138789
0.138184
0.137586
0.136996
0.136412
0.135836
0.135268
0.134707
0.134154
0.133609
0.133071
0.132541
0.132018
0.131504
0.130997
0.130497
0.130006
0.129524
0.12905
0.128585
0.128131
0.127688
0.127256
0.126838
0.126436
0.12605
0.125684
0.125341
0.125023
0.124734
0.124479
0.12426
0.124084
0.123956
0.12388
0.123863
0.12391
0.124027
0.124219
0.12449
0.124847
0.125288
0.125825
0.126426
0.127142
0.127739
0.174119
0.173508
0.172895
0.172279
0.171661
0.17104
0.170417
0.169791
0.169163
0.168532
0.167899
0.167263
0.166625
0.165985
0.165342
0.164697
0.164049
0.163399
0.162746
0.162091
0.161433
0.160773
0.160111
0.159447
0.15878
0.158112
0.157441
0.156769
0.156095
0.155419
0.154742
0.154064
0.153385
0.152705
0.152024
0.151343
0.150661
0.149979
0.149298
0.148617
0.147937
0.147257
0.146579
0.145902
0.145228
0.144555
0.143885
0.143217
0.142552
0.141891
0.141233
0.140578
0.139928
0.139282
0.138641
0.138004
0.137372
0.136745
0.136123
0.135506
0.134895
0.134289
0.133689
0.133094
0.132505
0.131921
0.131343
0.13077
0.130202
0.12964
0.129084
0.128533
0.127989
0.12745
0.126917
0.126392
0.125874
0.125365
0.124865
0.124376
0.123899
0.123435
0.122988