/*--------------------------------*- C++ -*----------------------------------*\
| =========                 |                                                 |
| \\      /  F ield         | OpenFOAM: The Open Source CFD Toolbox           |
|  \\    /   O peration     | Version:  4.1                                   |
|   \\  /    A nd           | Web:      www.OpenFOAM.org                      |
|    \\/     M anipulation  |                                                 |
\*---------------------------------------------------------------------------*/
FoamFile
{
    version     2.0;
    format      ascii;
    class       volScalarField;
    location    "1400";
    object      nut;
}
// * * * * * * * * * * * * * * * * * * * * * * * * * * * * * * * * * * * * * //

dimensions      [0 2 -1 0 0 0 0];

internalField   nonuniform List<scalar> 
6820
(
4.53774e-05
4.96674e-05
5.35596e-05
5.7033e-05
6.00872e-05
6.27329e-05
6.49892e-05
6.68824e-05
6.84449e-05
6.97114e-05
7.07177e-05
7.14978e-05
7.20841e-05
7.25058e-05
7.27893e-05
7.29578e-05
7.30314e-05
7.30275e-05
7.29609e-05
7.28442e-05
7.26882e-05
7.25016e-05
7.22921e-05
7.20657e-05
7.18277e-05
7.15822e-05
7.13329e-05
7.10825e-05
7.08333e-05
7.05874e-05
7.03459e-05
7.01145e-05
6.99707e-05
0.000389004
0.000214804
0.000161971
0.000134577
0.000117082
0.000104841
9.58724e-05
8.91195e-05
8.39493e-05
7.99547e-05
7.68576e-05
7.44593e-05
7.26133e-05
7.12095e-05
7.01639e-05
6.94111e-05
6.88998e-05
6.85893e-05
6.84467e-05
6.84457e-05
6.85646e-05
6.87854e-05
6.90931e-05
6.94752e-05
6.99209e-05
7.04211e-05
7.09681e-05
7.15548e-05
7.21759e-05
7.28246e-05
7.35008e-05
7.41943e-05
7.51909e-05
0.000867009
0.000638273
0.00050769
0.000428082
0.000375014
0.000336916
0.000308048
0.000285295
0.000266813
0.00025144
0.000238413
0.00022721
0.000217458
0.00020889
0.000201303
0.000194545
0.000188496
0.000183062
0.000178166
0.00017375
0.000169743
0.000166041
0.000162606
0.000159413
0.000156443
0.00015368
0.000151107
0.000148711
0.000146478
0.000144399
0.000142458
0.000140657
0.000139055
0.000991214
0.000902164
0.000807377
0.000726622
0.000661863
0.000610175
0.000568431
0.000534166
0.000505567
0.000481331
0.000460513
0.000442414
0.000426509
0.0004124
0.00039978
0.000388413
0.000378111
0.000368724
0.000360134
0.000352242
0.000344971
0.00033822
0.000331916
0.000326008
0.000320452
0.000315214
0.000310264
0.000305579
0.000301136
0.000296916
0.000292902
0.000289081
0.000285433
0.00101005
0.00098739
0.000948626
0.000902916
0.000857083
0.00081444
0.000776076
0.000742011
0.000711858
0.000685132
0.000661359
0.000640115
0.000621037
0.000603821
0.00058821
0.00057399
0.000560984
0.000549041
0.000538035
0.000527861
0.000518429
0.000509658
0.000501477
0.000493823
0.000486643
0.000479889
0.000473523
0.000467508
0.000461815
0.000456416
0.000451288
0.000446407
0.000441712
0.00101185
0.00100724
0.000995356
0.000976942
0.000954121
0.000929118
0.000903659
0.000878801
0.000855099
0.000832805
0.000812001
0.000792668
0.000774737
0.000758113
0.000742692
0.000728374
0.00071506
0.000702662
0.000691095
0.000680287
0.00067017
0.000660683
0.000651773
0.000643389
0.000635487
0.000628027
0.000620973
0.000614293
0.000607959
0.000601943
0.000596222
0.000590768
0.0005855
0.00101178
0.00101089
0.00100777
0.00100182
0.000992905
0.000981471
0.000968242
0.00095392
0.000939072
0.000924117
0.000909347
0.000894953
0.000881053
0.000867715
0.00085497
0.000842827
0.00083128
0.000820311
0.000809899
0.000800017
0.000790637
0.000781725
0.000773254
0.0007652
0.000757539
0.000750246
0.0007433
0.00073668
0.000730366
0.000724339
0.000718581
0.000713066
0.000707706
0.00101168
0.00101136
0.00101047
0.00100868
0.00100565
0.0010012
0.000995412
0.000988494
0.000980691
0.000972245
0.000963375
0.000954264
0.000945058
0.000935871
0.000926788
0.00091787
0.000909162
0.000900694
0.000892486
0.000884548
0.000876885
0.000869497
0.00086238
0.000855529
0.000848937
0.000842597
0.000836499
0.000830636
0.000824999
0.000819577
0.00081436
0.000809329
0.000804393
0.00101165
0.00101137
0.00101095
0.0010103
0.00100928
0.00100769
0.00100543
0.00100251
0.000998941
0.000994803
0.000990178
0.00098516
0.000979838
0.000974296
0.000968606
0.00096283
0.000957019
0.000951215
0.00094545
0.00093975
0.000934136
0.000928624
0.000923226
0.000917951
0.000912805
0.000907792
0.000902914
0.000898172
0.000893566
0.000889095
0.000884756
0.000880532
0.000876338
0.00101164
0.00101135
0.00101102
0.00101063
0.00101016
0.00100951
0.0010086
0.00100738
0.00100583
0.00100394
0.00100172
0.000999201
0.000996409
0.000993382
0.000990158
0.000986773
0.000983263
0.000979658
0.000975986
0.000972273
0.000968538
0.0009648
0.000961074
0.000957374
0.000953709
0.000950089
0.000946521
0.000943011
0.000939564
0.000936182
0.000932867
0.000929606
0.000926318
0.00101163
0.00101134
0.00101103
0.0010107
0.00101036
0.00100998
0.00100952
0.00100894
0.00100823
0.00100736
0.00100632
0.00100511
0.00100373
0.00100219
0.00100049
0.000998656
0.000996699
0.000994636
0.000992481
0.00099025
0.000987958
0.000985618
0.000983241
0.000980839
0.000978421
0.000975996
0.000973572
0.000971156
0.000968753
0.000966369
0.000964005
0.000961652
0.000959227
0.00101163
0.00101134
0.00101103
0.00101072
0.00101041
0.0010101
0.00100977
0.00100939
0.00100897
0.00100849
0.00100793
0.0010073
0.00100658
0.00100577
0.00100487
0.00100388
0.00100282
0.00100167
0.00100045
0.000999166
0.000997824
0.00099643
0.000994992
0.000993517
0.00099201
0.000990479
0.000988927
0.000987362
0.000985787
0.000984206
0.000982622
0.000981024
0.000979332
0.00101163
0.00101133
0.00101104
0.00101073
0.00101043
0.00101014
0.00100984
0.00100953
0.00100921
0.00100886
0.0010085
0.0010081
0.00100766
0.00100719
0.00100667
0.00100611
0.00100551
0.00100486
0.00100416
0.00100342
0.00100265
0.00100183
0.00100098
0.0010001
0.000999189
0.000998253
0.000997294
0.000996317
0.000995323
0.000994316
0.000993296
0.00099225
0.000991102
0.00101163
0.00101133
0.00101104
0.00101074
0.00101045
0.00101016
0.00100987
0.00100958
0.00100929
0.00100899
0.00100869
0.00100837
0.00100804
0.0010077
0.00100734
0.00100696
0.00100657
0.00100615
0.0010057
0.00100524
0.00100476
0.00100425
0.00100372
0.00100317
0.00100261
0.00100202
0.00100142
0.00100081
0.00100018
0.000999537
0.000998884
0.000998207
0.000997426
0.00101163
0.00101133
0.00101104
0.00101075
0.00101046
0.00101018
0.00100989
0.00100961
0.00100933
0.00100905
0.00100877
0.00100848
0.0010082
0.00100791
0.00100761
0.00100732
0.00100701
0.0010067
0.00100638
0.00100604
0.0010057
0.00100536
0.001005
0.00100463
0.00100425
0.00100386
0.00100346
0.00100306
0.00100264
0.00100222
0.00100179
0.00100134
0.00100078
0.00101163
0.00101133
0.00101105
0.00101075
0.00101047
0.00101019
0.00100991
0.00100963
0.00100936
0.00100908
0.00100881
0.00100854
0.00100827
0.001008
0.00100773
0.00100746
0.00100719
0.00100692
0.00100665
0.00100637
0.0010061
0.00100582
0.00100553
0.00100525
0.00100496
0.00100467
0.00100437
0.00100407
0.00100377
0.00100346
0.00100315
0.00100282
0.0010024
0.00101163
0.00101133
0.00101105
0.00101076
0.00101048
0.0010102
0.00100992
0.00100965
0.00100938
0.00100911
0.00100884
0.00100858
0.00100831
0.00100805
0.0010078
0.00100754
0.00100729
0.00100704
0.00100679
0.00100654
0.00100629
0.00100605
0.0010058
0.00100556
0.00100531
0.00100507
0.00100483
0.00100458
0.00100434
0.0010041
0.00100385
0.00100359
0.00100323
0.00101163
0.00101133
0.00101105
0.00101076
0.00101048
0.00101021
0.00100994
0.00100966
0.0010094
0.00100913
0.00100887
0.00100861
0.00100835
0.00100809
0.00100784
0.00100759
0.00100735
0.00100711
0.00100687
0.00100663
0.00100639
0.00100616
0.00100593
0.00100571
0.00100548
0.00100526
0.00100504
0.00100482
0.00100461
0.00100439
0.00100418
0.00100395
0.00100363
0.00101163
0.00101133
0.00101105
0.00101077
0.00101049
0.00101022
0.00100994
0.00100968
0.00100941
0.00100915
0.00100889
0.00100863
0.00100838
0.00100812
0.00100788
0.00100763
0.00100739
0.00100716
0.00100692
0.00100669
0.00100647
0.00100624
0.00100602
0.00100581
0.00100559
0.00100538
0.00100517
0.00100497
0.00100477
0.00100457
0.00100437
0.00100416
0.00100386
0.00101163
0.00101133
0.00101105
0.00101077
0.00101049
0.00101022
0.00100995
0.00100969
0.00100942
0.00100916
0.0010089
0.00100865
0.0010084
0.00100815
0.00100791
0.00100767
0.00100743
0.0010072
0.00100697
0.00100674
0.00100652
0.0010063
0.00100608
0.00100587
0.00100567
0.00100546
0.00100526
0.00100506
0.00100487
0.00100468
0.00100449
0.00100428
0.00100399
0.00101163
0.00101133
0.00101105
0.00101077
0.0010105
0.00101023
0.00100996
0.00100969
0.00100943
0.00100917
0.00100892
0.00100867
0.00100842
0.00100817
0.00100793
0.00100769
0.00100746
0.00100723
0.001007
0.00100678
0.00100656
0.00100635
0.00100614
0.00100593
0.00100572
0.00100552
0.00100533
0.00100513
0.00100495
0.00100476
0.00100457
0.00100438
0.00100409
0.00101163
0.00101133
0.00101105
0.00101077
0.0010105
0.00101023
0.00100996
0.0010097
0.00100944
0.00100918
0.00100893
0.00100868
0.00100843
0.00100819
0.00100795
0.00100772
0.00100749
0.00100726
0.00100704
0.00100682
0.0010066
0.00100639
0.00100618
0.00100597
0.00100577
0.00100557
0.00100538
0.00100519
0.00100501
0.00100482
0.00100464
0.00100445
0.00100416
0.00101163
0.00101133
0.00101105
0.00101077
0.0010105
0.00101023
0.00100997
0.00100971
0.00100945
0.00100919
0.00100894
0.00100869
0.00100845
0.00100821
0.00100797
0.00100774
0.00100751
0.00100728
0.00100706
0.00100684
0.00100663
0.00100642
0.00100621
0.00100601
0.00100581
0.00100562
0.00100542
0.00100524
0.00100505
0.00100487
0.00100469
0.0010045
0.00100422
0.00101163
0.00101133
0.00101105
0.00101077
0.0010105
0.00101023
0.00100997
0.00100971
0.00100945
0.0010092
0.00100895
0.0010087
0.00100846
0.00100822
0.00100798
0.00100775
0.00100753
0.0010073
0.00100708
0.00100687
0.00100665
0.00100644
0.00100624
0.00100604
0.00100584
0.00100565
0.00100546
0.00100527
0.00100509
0.00100491
0.00100474
0.00100455
0.00100427
0.00101163
0.00101133
0.00101105
0.00101077
0.0010105
0.00101024
0.00100997
0.00100971
0.00100946
0.0010092
0.00100895
0.00100871
0.00100847
0.00100823
0.00100799
0.00100776
0.00100754
0.00100731
0.00100709
0.00100688
0.00100667
0.00100646
0.00100626
0.00100606
0.00100586
0.00100567
0.00100548
0.00100529
0.00100511
0.00100493
0.00100476
0.00100457
0.00100429
0.00101163
0.00101133
0.00101105
0.00101077
0.0010105
0.00101024
0.00100997
0.00100971
0.00100946
0.0010092
0.00100895
0.00100871
0.00100847
0.00100823
0.001008
0.00100777
0.00100754
0.00100732
0.0010071
0.00100689
0.00100668
0.00100647
0.00100627
0.00100607
0.00100588
0.00100568
0.0010055
0.00100531
0.00100513
0.00100496
0.00100478
0.00100459
0.00100432
0.00101163
0.00101133
0.00101105
0.00101077
0.0010105
0.00101024
0.00100997
0.00100971
0.00100946
0.0010092
0.00100896
0.00100871
0.00100847
0.00100823
0.001008
0.00100777
0.00100754
0.00100732
0.0010071
0.00100688
0.00100667
0.00100646
0.00100626
0.00100606
0.00100586
0.00100567
0.00100548
0.0010053
0.00100512
0.00100494
0.00100476
0.00100457
0.00100429
0.00101163
0.00101133
0.00101105
0.00101077
0.0010105
0.00101024
0.00100997
0.00100971
0.00100945
0.0010092
0.00100895
0.00100871
0.00100847
0.00100823
0.00100799
0.00100776
0.00100754
0.00100732
0.0010071
0.00100688
0.00100667
0.00100647
0.00100627
0.00100607
0.00100587
0.00100568
0.00100549
0.00100531
0.00100513
0.00100495
0.00100478
0.00100459
0.00100431
0.00101163
0.00101133
0.00101105
0.00101077
0.0010105
0.00101023
0.00100997
0.00100971
0.00100945
0.0010092
0.00100894
0.0010087
0.00100845
0.00100821
0.00100797
0.00100774
0.00100751
0.00100729
0.00100706
0.00100684
0.00100663
0.00100642
0.00100621
0.00100601
0.00100581
0.00100562
0.00100542
0.00100524
0.00100505
0.00100487
0.00100469
0.0010045
0.00100422
0.00101163
0.00101133
0.00101105
0.00101077
0.0010105
0.00101023
0.00100997
0.0010097
0.00100945
0.00100919
0.00100894
0.00100869
0.00100845
0.00100821
0.00100798
0.00100775
0.00100752
0.0010073
0.00100708
0.00100686
0.00100665
0.00100644
0.00100623
0.00100603
0.00100583
0.00100564
0.00100544
0.00100526
0.00100507
0.00100489
0.00100471
0.00100451
0.00100423
0.00101163
0.00101133
0.00101105
0.00101077
0.0010105
0.00101023
0.00100996
0.00100969
0.00100943
0.00100917
0.00100891
0.00100866
0.00100841
0.00100816
0.00100791
0.00100767
0.00100744
0.0010072
0.00100697
0.00100674
0.00100652
0.0010063
0.00100608
0.00100587
0.00100566
0.00100545
0.00100525
0.00100505
0.00100486
0.00100466
0.00100447
0.00100426
0.00100397
0.00101163
0.00101133
0.00101105
0.00101077
0.00101049
0.00101022
0.00100996
0.0010097
0.00100944
0.00100918
0.00100893
0.00100868
0.00100843
0.00100819
0.00100795
0.00100771
0.00100747
0.00100723
0.00100699
0.00100676
0.00100653
0.0010063
0.00100606
0.00100584
0.00100561
0.00100538
0.00100516
0.00100493
0.00100471
0.00100449
0.00100426
0.00100403
0.00100369
0.00101163
0.00101133
0.00101105
0.00101077
0.00101048
0.0010102
0.00100992
0.00100964
0.00100935
0.00100907
0.00100879
0.00100851
0.00100822
0.00100794
0.00100766
0.00100738
0.0010071
0.00100681
0.00100653
0.00100624
0.00100595
0.00100566
0.00100536
0.00100507
0.00100477
0.00100447
0.00100416
0.00100386
0.00100355
0.00100325
0.00100293
0.00100261
0.00100218
0.00101163
0.00101134
0.00101105
0.00101077
0.00101049
0.00101021
0.00100993
0.00100964
0.00100934
0.00100903
0.00100871
0.00100837
0.00100802
0.00100766
0.00100728
0.00100689
0.00100648
0.00100606
0.00100562
0.00100516
0.00100469
0.00100421
0.00100371
0.0010032
0.00100268
0.00100215
0.00100161
0.00100106
0.00100051
0.000999942
0.00099937
0.000998776
0.000998084
0.00101163
0.00101134
0.00101103
0.00101069
0.00101033
0.00100994
0.00100951
0.00100904
0.00100853
0.00100796
0.00100734
0.00100667
0.00100594
0.00100515
0.00100431
0.00100342
0.00100248
0.00100149
0.00100047
0.000999414
0.000998324
0.000997207
0.000996066
0.000994906
0.00099373
0.000992542
0.000991344
0.000990139
0.00098893
0.00098772
0.000986508
0.000985283
0.000983969
0.00101164
0.00101133
0.00101094
0.00101042
0.00100973
0.00100883
0.0010077
0.00100635
0.00100478
0.001003
0.00100104
0.000998909
0.000996631
0.000994228
0.000991719
0.000989125
0.000986463
0.00098375
0.000981
0.000978226
0.00097544
0.000972653
0.000969872
0.000967103
0.000964354
0.00096163
0.000958937
0.000956278
0.000953656
0.000951075
0.000948535
0.000946023
0.000943466
0.00101162
0.0010106
0.00100853
0.00100543
0.0010014
0.000996513
0.00099091
0.000984747
0.000978174
0.000971314
0.000964272
0.000957136
0.000949978
0.000942854
0.000935809
0.000928876
0.000922082
0.000915443
0.000908975
0.000902685
0.000896578
0.000890657
0.000884923
0.000879373
0.000874006
0.000868819
0.000863806
0.000858963
0.000854286
0.000849769
0.000845405
0.000841179
0.000837016
0.00100895
0.000995379
0.000976042
0.000953694
0.00093032
0.000907093
0.000884657
0.000863329
0.000843228
0.000824388
0.000806781
0.000790352
0.000775024
0.00076072
0.000747357
0.00073486
0.000723158
0.000712183
0.000701876
0.000692182
0.000683051
0.000674439
0.000666305
0.000658613
0.000651329
0.000644424
0.000637871
0.000631644
0.000625722
0.000620084
0.00061471
0.00060958
0.000604632
0.000892788
0.000742255
0.000649202
0.00058554
0.000538566
0.000502138
0.000472884
0.000448753
0.000428416
0.000410981
0.000395823
0.000382492
0.000370655
0.000360056
0.0003505
0.000341831
0.000333927
0.000326686
0.000320026
0.000313879
0.000308188
0.000302904
0.000297984
0.000293395
0.000289104
0.000285084
0.000281313
0.000277768
0.000274431
0.000271286
0.000268318
0.000265514
0.000262862
0.000126722
0.000129956
0.000133005
0.000135891
0.000138628
0.00014123
0.000143705
0.000146063
0.000148309
0.00015045
0.000152489
0.000154433
0.000156285
0.00015805
0.000159732
0.000161334
0.00016286
0.000164313
0.000165696
0.000167014
0.000168268
0.000169462
0.000170599
0.00017168
0.00017271
0.000173689
0.000174621
0.000175508
0.000176352
0.000177155
0.000177919
0.000178647
0.000179344
8.54723e-05
0.000115337
0.000145822
0.00017603
0.000203031
0.000226757
0.00024816
0.000268299
0.000288081
0.000308084
0.000328532
0.000349405
0.000370681
0.000392291
0.000414112
0.00043595
0.000457581
0.000479027
0.000500192
0.000521107
0.000541782
0.000562241
0.000582573
0.000602927
0.000623453
0.000644261
0.000665431
0.000687056
0.000709254
0.00073214
0.000755802
0.000780295
0.000805663
0.000831951
0.000859195
0.000887404
0.000916551
0.000946584
0.00097744
0.00100904
0.00104131
0.00107413
0.00110739
0.00114099
0.00117479
0.00120869
0.00124256
0.0012763
0.00130979
0.00134295
0.00137568
0.0014079
0.00143956
0.00147058
0.00150093
0.00153056
0.00155947
0.00158763
0.00161505
0.00164176
0.00166777
0.00169313
0.0017179
0.00174213
0.00176592
0.00178933
0.00181245
0.00183537
0.00185819
0.00188099
0.00190387
0.00192691
0.0019502
0.00197381
0.0019978
0.0020222
0.00204704
0.0020723
0.00209793
0.00212384
0.00214996
0.00217619
0.00220243
0.0022286
0.00225457
0.00228023
0.00230546
0.00233014
0.00235415
0.00237738
0.00239971
0.00242106
0.00244136
0.00246063
0.00247898
0.00249688
0.00251519
0.00253611
0.00256317
0.00261193
7.83548e-05
8.47448e-05
9.52613e-05
0.000110475
0.000129531
0.000151368
0.00017449
0.000197718
0.000220461
0.000242507
0.000263892
0.000284803
0.000305507
0.000326255
0.000347196
0.00036834
0.000389594
0.000410895
0.000432281
0.000453631
0.000474848
0.000495875
0.00051672
0.000537455
0.000558172
0.00057895
0.000599853
0.000620954
0.000642346
0.000664127
0.000686387
0.000709198
0.000732623
0.000756727
0.000781567
0.000807182
0.000833589
0.000860785
0.000888748
0.000917446
0.000946827
0.00097683
0.00100738
0.00103838
0.00106975
0.00110138
0.00113317
0.00116503
0.00119685
0.00122854
0.00126001
0.00129117
0.00132197
0.00135233
0.0013822
0.00141155
0.00144035
0.00146858
0.00149624
0.00152334
0.00154992
0.001576
0.00160164
0.00162689
0.00165183
0.00167653
0.00170106
0.0017255
0.00174993
0.00177444
0.00179909
0.00182396
0.00184912
0.00187463
0.00190054
0.00192686
0.00195362
0.00198077
0.00200828
0.00203606
0.00206401
0.00209205
0.00212006
0.00214796
0.00217562
0.00220294
0.00222979
0.00225605
0.00228161
0.00230636
0.00233018
0.002353
0.00237476
0.00239547
0.00241526
0.00243455
0.00245418
0.0024761
0.00250344
0.00254796
0.00013774
0.000137412
0.000137921
0.000139207
0.000141085
0.000143449
0.000147852
0.000155293
0.000165908
0.000179193
0.000194723
0.000212071
0.000230819
0.000250595
0.000271078
0.000291994
0.000313085
0.000334188
0.000355421
0.000376726
0.000398019
0.000419226
0.000440314
0.000461291
0.000482193
0.000503053
0.000523901
0.000544782
0.000565759
0.000586911
0.000608319
0.000630054
0.000652186
0.000674787
0.000697927
0.000721665
0.000746045
0.000771095
0.000796831
0.000823251
0.000850342
0.000878071
0.000906395
0.000935255
0.000964584
0.000994304
0.00102433
0.00105458
0.00108496
0.00111538
0.00114576
0.00117603
0.0012061
0.00123593
0.00126546
0.00129465
0.00132346
0.00135189
0.00137993
0.00140759
0.00143489
0.00146185
0.00148853
0.00151496
0.00154122
0.00156735
0.00159343
0.00161952
0.00164568
0.00167199
0.00169849
0.00172526
0.00175233
0.00177976
0.00180758
0.00183579
0.00186441
0.00189339
0.00192267
0.00195219
0.00198183
0.0020115
0.00204111
0.00207055
0.00209971
0.00212847
0.00215672
0.00218434
0.00221123
0.00223727
0.00226237
0.00228646
0.00230946
0.00233142
0.00235244
0.00237294
0.00239367
0.0024164
0.0024438
0.00248355
0.000281176
0.000277081
0.000273363
0.000270021
0.000266858
0.000263259
0.00025869
0.000253001
0.000246339
0.000240655
0.000236876
0.000235488
0.00023686
0.000241146
0.000248283
0.000258035
0.00027004
0.000283886
0.000299256
0.00031589
0.000333479
0.000351753
0.000370503
0.000389591
0.000408931
0.000428467
0.000448163
0.000468006
0.000488009
0.000508203
0.000528628
0.000549327
0.000570345
0.000591734
0.000613551
0.000635851
0.000658682
0.000682084
0.000706087
0.000730711
0.000755963
0.000781838
0.000808317
0.000835369
0.000862952
0.000891011
0.000919485
0.000948306
0.000977401
0.0010067
0.00103612
0.0010656
0.00109508
0.00112449
0.00115379
0.00118294
0.00121191
0.00124068
0.00126924
0.00129759
0.00132575
0.00135374
0.00138158
0.00140933
0.00143701
0.00146469
0.00149241
0.00152022
0.00154816
0.0015763
0.00160467
0.00163331
0.00166226
0.00169155
0.00172119
0.00175119
0.00178152
0.00181216
0.00184304
0.00187409
0.00190519
0.00193627
0.00196721
0.00199792
0.0020283
0.00205822
0.00208759
0.0021163
0.00214423
0.0021713
0.0021974
0.00222248
0.00224648
0.00226943
0.00229144
0.0023129
0.0023345
0.00235778
0.002385
0.00241948
0.000436014
0.000430299
0.000424734
0.000419453
0.000414492
0.000409768
0.000405051
0.000399965
0.000394012
0.000386881
0.00037873
0.000369952
0.000360885
0.000351986
0.000343798
0.000336873
0.000331692
0.000328578
0.000327813
0.000329531
0.000333677
0.000340091
0.000348567
0.000358874
0.000370774
0.000384033
0.000398435
0.000413794
0.000429964
0.000446839
0.000464345
0.000482434
0.000501075
0.000520261
0.000539995
0.000560292
0.000581171
0.00060265
0.000624747
0.000647477
0.00067085
0.000694869
0.000719527
0.000744809
0.00077069
0.000797136
0.000824103
0.000851543
0.000879397
0.000907608
0.000936115
0.000964857
0.000993779
0.00102283
0.00105196
0.00108112
0.0011103
0.00113946
0.00116859
0.00119769
0.00122676
0.00125581
0.00128485
0.00131392
0.00134304
0.00137225
0.00140158
0.00143106
0.00146072
0.00149059
0.00152071
0.00155109
0.00158175
0.00161271
0.00164396
0.00167549
0.00170729
0.0017393
0.00177147
0.00180372
0.00183596
0.00186808
0.00190001
0.00193164
0.00196287
0.0019936
0.00202373
0.00205317
0.00208181
0.00210956
0.00213635
0.00216211
0.00218679
0.00221044
0.00223315
0.00225531
0.0022775
0.00230105
0.00232781
0.00235658
0.000579025
0.000572595
0.000566233
0.000560009
0.000553989
0.000548199
0.000542661
0.00053735
0.000532144
0.000526846
0.000521229
0.000515222
0.000508625
0.000501294
0.000493146
0.000484183
0.000474523
0.000464377
0.000454133
0.000444283
0.000435302
0.000427621
0.000421595
0.000417494
0.000415486
0.000415638
0.000417931
0.000422282
0.000428569
0.000436646
0.00044636
0.000457558
0.0004701
0.000483865
0.000498754
0.000514687
0.000531601
0.00054945
0.000568197
0.000587815
0.000608282
0.000629577
0.000651679
0.000674566
0.00069821
0.000722579
0.000747633
0.000773331
0.000799622
0.000826457
0.000853781
0.000881539
0.000909679
0.000938149
0.000966903
0.000995899
0.0010251
0.00105448
0.00108401
0.00111368
0.00114348
0.0011734
0.00120346
0.00123366
0.00126401
0.00129452
0.00132521
0.0013561
0.00138719
0.0014185
0.00145004
0.00148181
0.00151381
0.00154604
0.00157848
0.00161113
0.00164394
0.00167688
0.00170988
0.00174287
0.00177576
0.00180846
0.00184091
0.00187299
0.00190463
0.00193574
0.00196621
0.00199597
0.00202493
0.00205299
0.0020801
0.00210619
0.00213123
0.00215526
0.00217836
0.0022009
0.00222338
0.0022469
0.00227294
0.00229567
0.000701047
0.000694453
0.00068796
0.000681542
0.00067528
0.000669198
0.000663319
0.00065767
0.000652234
0.00064699
0.000641889
0.000636896
0.000631935
0.000626897
0.000621644
0.000616021
0.000609863
0.000603011
0.000595343
0.000586855
0.000577616
0.000567787
0.000557624
0.000547451
0.000537636
0.00052855
0.00052054
0.000513905
0.000508882
0.000505641
0.000504285
0.000504857
0.000507349
0.000511717
0.000517894
0.000525796
0.000535336
0.000546423
0.000558973
0.000572907
0.000588154
0.00060465
0.000622335
0.000641156
0.00066106
0.000681993
0.000703905
0.000726739
0.000750441
0.000774954
0.000800219
0.000826177
0.00085277
0.000879943
0.000907642
0.000935816
0.00096442
0.000993414
0.00102276
0.00105243
0.0010824
0.00111265
0.00114316
0.00117393
0.00120494
0.00123619
0.00126766
0.00129937
0.00133129
0.00136341
0.00139574
0.00142826
0.00146095
0.0014938
0.00152678
0.00155988
0.00159306
0.00162627
0.00165946
0.00169255
0.00172549
0.00175819
0.00179058
0.00182259
0.00185412
0.00188511
0.00191547
0.00194512
0.00197398
0.00200197
0.00202904
0.00205512
0.00208019
0.00210428
0.00212748
0.00215011
0.00217259
0.00219579
0.00222086
0.0022374
0.000798149
0.000792013
0.000785946
0.000779924
0.000773977
0.000768116
0.000762357
0.00075673
0.000751261
0.000745971
0.000740873
0.000735978
0.000731287
0.000726784
0.000722433
0.00071818
0.000713947
0.000709632
0.000705107
0.000700249
0.000694934
0.000689069
0.000682576
0.000675442
0.000667721
0.000659533
0.000651056
0.000642517
0.000634177
0.000626309
0.000619179
0.000613037
0.000608101
0.00060455
0.000602523
0.000602118
0.000603397
0.000606387
0.000611092
0.000617494
0.000625562
0.000635256
0.000646525
0.000659317
0.000673575
0.000689239
0.000706249
0.000724539
0.000744047
0.000764706
0.000786448
0.000809205
0.000832911
0.000857497
0.0008829
0.000909054
0.000935901
0.000963383
0.000991448
0.00102005
0.00104913
0.00107866
0.00110861
0.00113893
0.00116959
0.00120057
0.00123184
0.00126337
0.00129513
0.0013271
0.00135925
0.00139155
0.00142399
0.00145653
0.00148915
0.00152183
0.00155452
0.00158718
0.00161978
0.00165225
0.00168454
0.00171658
0.00174831
0.00177967
0.00181058
0.00184098
0.00187079
0.00189993
0.00192834
0.00195593
0.00198265
0.00200845
0.00203329
0.0020572
0.00208026
0.00210276
0.00212502
0.00214769
0.00217162
0.00218206
0.000870887
0.000865604
0.000860342
0.000855102
0.000849871
0.000844671
0.000839517
0.000834429
0.000829427
0.000824528
0.000819745
0.000815085
0.000810568
0.000806214
0.000802037
0.000798044
0.000794231
0.000790585
0.00078707
0.000783626
0.000780196
0.000776708
0.000773083
0.000769244
0.000765122
0.000760672
0.000755874
0.000750744
0.000745343
0.000739722
0.000734001
0.000728336
0.000722904
0.000717894
0.000713493
0.000709878
0.000707213
0.000705645
0.0007053
0.000706279
0.000708662
0.000712509
0.000717858
0.00072473
0.000733132
0.000743055
0.00075448
0.000767377
0.000781708
0.000797427
0.000814479
0.000832809
0.000852353
0.000873047
0.000894822
0.000917611
0.000941344
0.000965953
0.000991373
0.00101754
0.00104438
0.00107185
0.00109988
0.00112842
0.00115742
0.00118683
0.0012166
0.00124668
0.00127703
0.00130762
0.0013384
0.00136934
0.00140041
0.00143157
0.0014628
0.00149407
0.00152535
0.00155661
0.00158782
0.00161893
0.00164989
0.00168067
0.0017112
0.00174143
0.0017713
0.00180075
0.0018297
0.00185808
0.00188582
0.00191284
0.00193907
0.00196446
0.00198898
0.00201263
0.00203547
0.00205775
0.0020797
0.00210176
0.00212454
0.00212934
0.000921864
0.000917653
0.000913422
0.000909175
0.000904908
0.000900622
0.000896334
0.000892053
0.000887789
0.000883555
0.000879362
0.000875223
0.000871153
0.000867167
0.000863285
0.000859524
0.000855902
0.000852437
0.000849141
0.000846016
0.000843065
0.000840271
0.000837613
0.000835063
0.000832586
0.000830143
0.000827694
0.000825205
0.000822653
0.000820023
0.000817317
0.000814561
0.000811802
0.000809118
0.000806559
0.000804223
0.000802227
0.000800695
0.000799751
0.000799516
0.000800108
0.000801633
0.000804188
0.000807857
0.00081271
0.000818804
0.00082618
0.000834868
0.000844882
0.000856226
0.000868889
0.000882852
0.000898085
0.000914551
0.000932202
0.000950986
0.000970847
0.000991722
0.00101355
0.00103626
0.00105978
0.00108406
0.00110902
0.00113461
0.00116074
0.00118738
0.00121445
0.0012419
0.00126969
0.00129776
0.00132607
0.00135458
0.00138326
0.00141208
0.00144101
0.00147004
0.00149914
0.00152829
0.00155747
0.00158665
0.00161581
0.0016449
0.00167388
0.00170271
0.00173134
0.00175969
0.0017877
0.00181529
0.00184239
0.00186889
0.00189473
0.00191984
0.00194417
0.0019677
0.00199048
0.00201268
0.00203448
0.00205608
0.00207792
0.00207804
0.000955744
0.000952591
0.000949392
0.000946151
0.000942872
0.000939552
0.000936196
0.000932812
0.000929409
0.000925994
0.000922575
0.00091916
0.000915755
0.000912367
0.000909011
0.000905702
0.000902459
0.000899301
0.000896244
0.000893305
0.000890507
0.000887867
0.000885396
0.000883107
0.000881003
0.000879084
0.000877345
0.000875776
0.000874364
0.000873097
0.000871963
0.000870953
0.000870067
0.000869318
0.00086872
0.000868302
0.000868089
0.000868119
0.000868452
0.000869161
0.000870323
0.000872021
0.000874338
0.000877355
0.000881149
0.000885794
0.000891354
0.000897886
0.000905439
0.000914049
0.000923745
0.000934543
0.000946448
0.000959457
0.000973553
0.000988715
0.00100491
0.0010221
0.00104023
0.00105926
0.00107913
0.00109979
0.00112117
0.00114321
0.00116585
0.00118905
0.00121273
0.00123684
0.00126135
0.00128619
0.00131134
0.00133675
0.00136241
0.00138829
0.00141437
0.00144064
0.0014671
0.00149374
0.00152055
0.00154753
0.00157465
0.00160189
0.00162923
0.00165663
0.00168403
0.00171139
0.00173861
0.00176563
0.00179234
0.00181864
0.00184445
0.00186967
0.00189422
0.00191806
0.0019412
0.00196376
0.00198582
0.00200741
0.00202881
0.00202579
0.000976687
0.000974454
0.000972165
0.000969824
0.000967435
0.000965
0.000962515
0.000959986
0.000957418
0.000954814
0.000952179
0.000949516
0.000946828
0.000944122
0.000941403
0.000938679
0.000935963
0.000933266
0.000930605
0.000927996
0.00092546
0.000923021
0.000920698
0.000918512
0.000916482
0.00091463
0.00091297
0.000911517
0.00091028
0.000909267
0.000908481
0.000907925
0.000907601
0.00090751
0.000907656
0.000908047
0.000908683
0.000909569
0.000910725
0.000912182
0.000913975
0.000916148
0.000918747
0.000921823
0.000925429
0.000929619
0.000934446
0.000939962
0.000946214
0.000953247
0.000961097
0.000969795
0.000979364
0.00098982
0.00100117
0.00101341
0.00102653
0.00104052
0.00105535
0.00107099
0.0010874
0.00110454
0.00112236
0.00114083
0.0011599
0.00117951
0.00119962
0.0012202
0.00124119
0.00126258
0.00128432
0.0013064
0.0013288
0.0013515
0.00137452
0.00139785
0.00142151
0.00144549
0.00146981
0.00149449
0.00151952
0.0015449
0.00157062
0.00159665
0.00162296
0.00164948
0.00167615
0.00170288
0.00172957
0.0017561
0.00178235
0.0018082
0.00183355
0.00185832
0.00188246
0.00190603
0.00192902
0.00195132
0.00197307
0.00196902
0.000989089
0.00098756
0.000985979
0.000984348
0.00098267
0.000980945
0.000979173
0.000977355
0.000975493
0.000973591
0.000971648
0.000969668
0.00096765
0.000965597
0.000963513
0.000961399
0.000959262
0.000957107
0.000954945
0.000952785
0.000950643
0.000948536
0.00094648
0.000944495
0.000942602
0.000940823
0.00093918
0.000937694
0.000936384
0.00093527
0.000934366
0.00093369
0.000933244
0.000933036
0.000933074
0.000933367
0.000933924
0.000934751
0.000935858
0.000937257
0.000938965
0.000941001
0.000943389
0.000946155
0.000949329
0.000952943