/*--------------------------------*- C++ -*----------------------------------*\
| =========                 |                                                 |
| \\      /  F ield         | OpenFOAM: The Open Source CFD Toolbox           |
|  \\    /   O peration     | Version:  4.1                                   |
|   \\  /    A nd           | Web:      www.OpenFOAM.org                      |
|    \\/     M anipulation  |                                                 |
\*---------------------------------------------------------------------------*/
FoamFile
{
    version     2.0;
    format      ascii;
    class       volScalarField;
    location    "1400";
    object      p;
}
// * * * * * * * * * * * * * * * * * * * * * * * * * * * * * * * * * * * * * //

dimensions      [0 2 -2 0 0 0 0];

internalField   nonuniform List<scalar> 
6820
(
-8.24317
-8.50073
-8.59835
-8.61907
-8.65231
-8.69764
-8.73927
-8.77546
-8.80919
-8.84133
-8.87141
-8.89932
-8.92532
-8.94966
-8.97253
-8.99408
-9.01449
-9.03389
-9.05244
-9.07024
-9.0874
-9.10402
-9.12017
-9.13595
-9.1514
-9.1666
-9.18161
-9.19647
-9.21128
-9.22592
-9.2413
-9.25517
-9.28529
-8.35596
-8.52201
-8.60074
-8.62163
-8.64857
-8.68384
-8.71547
-8.74241
-8.76773
-8.79249
-8.81638
-8.83929
-8.86137
-8.88276
-8.90354
-8.92372
-8.94337
-8.96252
-8.98123
-8.99953
-9.01746
-9.03506
-9.05236
-9.0694
-9.08622
-9.10285
-9.11932
-9.13568
-9.15198
-9.16821
-9.18459
-9.20111
-9.21781
-8.41222
-8.51692
-8.59495
-8.62687
-8.65508
-8.6883
-8.71876
-8.74509
-8.76973
-8.79368
-8.8167
-8.83869
-8.85978
-8.88011
-8.89975
-8.91874
-8.93715
-8.95504
-8.97246
-8.98945
-9.00607
-9.02237
-9.03837
-9.05412
-9.06967
-9.08504
-9.10028
-9.11541
-9.13051
-9.14554
-9.16072
-9.17561
-9.19114
-8.462
-8.537
-8.60965
-8.64482
-8.6723
-8.70388
-8.73392
-8.76027
-8.78468
-8.80811
-8.83049
-8.85175
-8.87204
-8.89154
-8.91033
-8.92848
-8.94606
-8.96315
-8.9798
-8.99606
-9.01198
-9.0276
-9.04297
-9.05811
-9.07307
-9.08788
-9.10258
-9.11719
-9.13176
-9.14631
-9.1609
-9.17549
-9.19014
-8.50349
-8.55472
-8.61494
-8.6498
-8.67705
-8.70731
-8.73656
-8.7626
-8.78675
-8.80997
-8.83225
-8.85354
-8.87395
-8.89363
-8.91264
-8.93103
-8.94888
-8.96622
-8.98312
-8.9996
-9.01573
-9.03153
-9.04705
-9.06231
-9.07737
-9.09224
-9.10696
-9.12157
-9.13611
-9.1506
-9.16509
-9.17961
-9.19421
-8.53828
-8.57414
-8.62498
-8.66027
-8.68793
-8.71699
-8.74535
-8.77107
-8.79504
-8.81805
-8.84013
-8.86122
-8.88144
-8.9009
-8.91967
-8.93781
-8.95538
-8.97244
-8.98905
-9.00524
-9.02108
-9.03659
-9.05181
-9.06679
-9.08155
-9.09614
-9.11057
-9.12489
-9.13913
-9.15332
-9.16751
-9.18173
-9.19607
-8.56812
-8.59368
-8.63558
-8.66876
-8.69524
-8.72234
-8.74925
-8.77418
-8.79756
-8.82004
-8.84167
-8.86243
-8.88239
-8.90166
-8.9203
-8.93837
-8.95591
-8.97298
-8.98961
-9.00586
-9.02174
-9.03732
-9.0526
-9.06764
-9.08245
-9.09707
-9.11152
-9.12584
-9.14005
-9.15419
-9.16828
-9.18238
-9.19654
-8.59406
-8.61264
-8.64706
-8.67791
-8.70364
-8.72952
-8.75544
-8.77984
-8.80287
-8.82502
-8.84639
-8.86696
-8.88676
-8.9059
-8.92441
-8.94236
-8.95978
-8.97671
-8.99321
-9.00931
-9.02504
-9.04045
-9.05555
-9.0704
-9.08501
-9.09941
-9.11363
-9.1277
-9.14164
-9.15548
-9.16925
-9.18297
-9.19667
-8.61691
-8.63075
-8.65905
-8.68715
-8.71161
-8.73592
-8.76039
-8.78381
-8.80609
-8.82759
-8.84841
-8.86852
-8.88794
-8.90675
-8.92499
-8.9427
-8.95992
-8.97669
-8.99304
-9.00902
-9.02465
-9.03996
-9.05498
-9.06975
-9.08427
-9.09858
-9.11271
-9.12666
-9.14047
-9.15415
-9.16772
-9.1812
-9.1946
-8.63729
-8.64783
-8.67118
-8.69649
-8.71958
-8.74252
-8.76577
-8.78839
-8.8101
-8.83114
-8.85158
-8.87138
-8.89057
-8.90919
-8.92726
-8.94483
-8.96193
-8.97859
-8.99483
-9.0107
-9.02622
-9.04141
-9.0563
-9.07092
-9.08528
-9.09942
-9.11334
-9.12707
-9.14063
-9.15402
-9.16727
-9.18036
-9.19329
-8.65562
-8.66383
-8.68324
-8.70588
-8.72748
-8.74905
-8.77102
-8.79264
-8.81359
-8.83397
-8.85383
-8.87315
-8.89192
-8.91016
-8.92791
-8.94519
-8.96203
-8.97845
-8.99448
-9.01014
-9.02547
-9.04048
-9.05519
-9.06963
-9.08382
-9.09777
-9.1115
-9.12503
-9.13836
-9.1515
-9.16446
-9.17724
-9.18982
-8.67224
-8.67875
-8.69504
-8.71521
-8.73529
-8.75553
-8.77628
-8.79695
-8.81718
-8.83696
-8.85633
-8.87524
-8.89367
-8.91163
-8.92915
-8.94622
-8.96288
-8.97914
-8.99502
-9.01055
-9.02574
-9.04061
-9.05519
-9.06948
-9.0835
-9.09728
-9.11081
-9.12412
-9.13721
-9.15007
-9.16272
-9.17514
-9.18729
-8.68737
-8.69263
-8.70642
-8.72439
-8.74296
-8.76194
-8.78151
-8.80122
-8.82067
-8.83979
-8.85859
-8.877
-8.895
-8.91258
-8.92975
-8.94652
-8.96289
-8.97889
-8.99452
-9.00982
-9.02478
-9.03943
-9.05378
-9.06784
-9.08164
-9.09518
-9.10847
-9.12151
-9.13432
-9.14689
-9.15921
-9.17128
-9.18309
-8.7012
-8.7055
-8.71731
-8.73333
-8.75047
-8.76823
-8.78669
-8.80544
-8.82412
-8.8426
-8.86083
-8.87877
-8.89636
-8.91359
-8.93045
-8.94695
-8.96309
-8.97887
-8.9943
-9.0094
-9.02418
-9.03865
-9.05283
-9.06671
-9.08032
-9.09366
-9.10673
-9.11954
-9.1321
-9.14439
-9.15642
-9.16816
-9.17959
-8.71386
-8.71742
-8.72762
-8.74197
-8.75775
-8.77436
-8.79176
-8.8096
-8.82751
-8.84533
-8.86299
-8.88043
-8.89758
-8.91442
-8.93093
-8.94711
-8.96294
-8.97845
-8.99362
-9.00847
-9.023
-9.03723
-9.05116
-9.0648
-9.07815
-9.09123
-9.10403
-9.11656
-9.12882
-9.1408
-9.15249
-9.16389
-9.17498
-8.72545
-8.72842
-8.73733
-8.75022
-8.76476
-8.7803
-8.7967
-8.81366
-8.83082
-8.84799
-8.86508
-8.88202
-8.89874
-8.91519
-8.93136
-8.94722
-8.96278
-8.97802
-8.99295
-9.00756
-9.02187
-9.03588
-9.04959
-9.06301
-9.07614
-9.08899
-9.10156
-9.11384
-9.12583
-9.13753
-9.14894
-9.16003
-9.17078
-8.73603
-8.73854
-8.74638
-8.75803
-8.77145
-8.78599
-8.80147
-8.81759
-8.83402
-8.85056
-8.8671
-8.88354
-8.89981
-8.91587
-8.93167
-8.94721
-8.96246
-8.97741
-8.99207
-9.00642
-9.02047
-9.03422
-9.04768
-9.06084
-9.07371
-9.08629
-9.09858
-9.11057
-9.12227
-9.13367
-9.14475
-9.15552
-9.16596
-8.74566
-8.74779
-8.75476
-8.76535
-8.77777
-8.79138
-8.80601
-8.82135
-8.83709
-8.85302
-8.86901
-8.88496
-8.9008
-8.91646
-8.93191
-8.94711
-8.96206
-8.97673
-8.99111
-9.0052
-9.019
-9.03251
-9.04572
-9.05864
-9.07127
-9.08359
-9.09563
-9.10736
-9.11879
-9.12991
-9.14071
-9.15119
-9.16133
-8.75438
-8.7562
-8.76245
-8.77214
-8.78366
-8.79645
-8.81029
-8.8249
-8.83999
-8.85533
-8.8708
-8.88627
-8.90168
-8.91696
-8.93205
-8.94692
-8.96156
-8.97593
-8.99003
-9.00386
-9.01739
-9.03064
-9.04359
-9.05625
-9.0686
-9.08066
-9.09242
-9.10388
-9.11502
-9.12585
-9.13636
-9.14654
-9.15639
-8.76221
-8.76376
-8.76943
-8.77835
-8.7891
-8.80113
-8.81426
-8.82821
-8.84269
-8.85748
-8.87244
-8.88746
-8.90246
-8.91735
-8.93209
-8.94663
-8.96096
-8.97504
-8.98887
-9.00242
-9.01569
-9.02868
-9.04137
-9.05377
-9.06587
-9.07767
-9.08917
-9.10036
-9.11124
-9.1218
-9.13203
-9.14194
-9.15151
-8.76915
-8.7705
-8.77567
-8.78394
-8.79402
-8.8054
-8.81789
-8.83124
-8.84515
-8.85943
-8.87392
-8.88851
-8.9031
-8.91762
-8.93202
-8.94624
-8.96027
-8.97406
-8.9876
-9.00088
-9.01389
-9.02661
-9.03904
-9.05118
-9.06302
-9.07456
-9.08579
-9.09671
-9.10732
-9.11761
-9.12757
-9.13722
-9.14652
-8.77521
-8.77638
-8.78115
-8.78889
-8.7984
-8.8092
-8.82113
-8.83393
-8.84734
-8.86114
-8.8752
-8.88938
-8.9036
-8.91777
-8.93183
-8.94574
-8.95946
-8.97297
-8.98624
-8.99925
-9.01199
-9.02445
-9.03663
-9.04851
-9.0601
-9.07138
-9.08235
-9.09301
-9.10336
-9.11338
-9.12309
-9.13248
-9.14153
-8.78037
-8.7814
-8.78585
-8.79315
-8.80218
-8.8125
-8.82394
-8.83626
-8.84922
-8.8626
-8.87625
-8.89006
-8.90392
-8.91776
-8.93151
-8.94512
-8.95855
-8.97178
-8.98478
-8.99752
-9.01001
-9.02221
-9.03413
-9.04576
-9.05709
-9.06812
-9.07884
-9.08925
-9.09934
-9.10912
-9.11858
-9.12772
-9.13652
-8.78461
-8.78553
-8.78972
-8.79668
-8.80532
-8.81523
-8.82626
-8.83819
-8.85075
-8.86375
-8.87705
-8.89051
-8.90405
-8.91758
-8.93103
-8.94435
-8.95751
-8.97047
-8.9832
-8.99569
-9.00791
-9.01987
-9.03154
-9.04292
-9.054
-9.06477
-9.07524
-9.0854
-9.09525
-9.10478
-9.11399
-9.12289
-9.13146
-8.78788
-8.78873
-8.79274
-8.79943
-8.80778
-8.81737
-8.82807
-8.83966
-8.85189
-8.86457
-8.87755
-8.89071
-8.90395
-8.91719
-8.93037
-8.94342
-8.95632
-8.96902
-8.9815
-8.99375
-9.00573
-9.01744
-9.02887
-9.04001
-9.05085
-9.06139
-9.07163
-9.08155
-9.09117
-9.10047
-9.10945
-9.11813
-9.12647
-8.79014
-8.79094
-8.79482
-8.80134
-8.80947
-8.81883
-8.82928
-8.84061
-8.85257
-8.86498
-8.87769
-8.89059
-8.90357
-8.91656
-8.92948
-8.94228
-8.95493
-8.96739
-8.97962
-8.99162
-9.00336
-9.01483
-9.02602
-9.03692
-9.04752
-9.05782
-9.06781
-9.07749
-9.08687
-9.09593
-9.10469
-9.11313
-9.12127
-8.79131
-8.79209
-8.7959
-8.80232
-8.81034
-8.81955
-8.82983
-8.84097
-8.85273
-8.86494
-8.87743
-8.89011
-8.90287
-8.91563
-8.92833
-8.94091
-8.95333
-8.96557
-8.97759
-8.98937
-9.00089
-9.01214
-9.02311
-9.0338
-9.04418
-9.05427
-9.06405
-9.07353
-9.0827
-9.09156
-9.10011
-9.10835
-9.11628
-8.79132
-8.79211
-8.79593
-8.80234
-8.81034
-8.8195
-8.8297
-8.84074
-8.85238
-8.86443
-8.87677
-8.88927
-8.90184
-8.9144
-8.92689
-8.93926
-8.95147
-8.96349
-8.97528
-8.98683
-8.99813
-9.00915
-9.01989
-9.03034
-9.0405
-9.05035
-9.05991
-9.06915
-9.07809
-9.08673
-9.09506
-9.10309
-9.11082
-8.79007
-8.79092
-8.79483
-8.80135
-8.80944
-8.81866
-8.82888
-8.83991
-8.8515
-8.86349
-8.87573
-8.88811
-8.90055
-8.91297
-8.92531
-8.93752
-8.94957
-8.96141
-8.97303
-8.98441
-8.99552
-9.00637
-9.01693
-9.02719
-9.03717
-9.04684
-9.05621
-9.06528
-9.07404
-9.08249
-9.09065
-9.09849
-9.10602
-8.78743
-8.78839
-8.79249
-8.79925
-8.80757
-8.81698
-8.82733
-8.83844
-8.85008
-8.86205
-8.87424
-8.88654
-8.89886
-8.91114
-8.92332
-8.93535
-8.94721
-8.95886
-8.97027
-8.98144
-8.99234
-9.00297
-9.01331
-9.02336
-9.03311
-9.04256
-9.05171
-9.06056
-9.0691
-9.07735
-9.0853
-9.09296
-9.10033
-8.78324
-8.78435
-8.78879
-8.79597
-8.80468
-8.81441
-8.82503
-8.83635
-8.84814
-8.86022
-8.87247
-8.88479
-8.89711
-8.90935
-8.92147
-8.93343
-8.94519
-8.95673
-8.96803
-8.97907
-8.98984
-9.00033
-9.01052
-9.02043
-9.03003
-9.03933
-9.04833
-9.05702
-9.06541
-9.0735
-9.08129
-9.08877
-9.09593
-8.77724
-8.77861
-8.78357
-8.7914
-8.8007
-8.8109
-8.8219
-8.8335
-8.84548
-8.85767
-8.86995
-8.88225
-8.89451
-8.90666
-8.91866
-8.93047
-8.94207
-8.95344
-8.96456
-8.97541
-8.98599
-8.99628
-9.00628
-9.01598
-9.02538
-9.03448
-9.04328
-9.05177
-9.05997
-9.06788
-9.07549
-9.08283
-9.08989
-8.76912
-8.77087
-8.77664
-8.78542
-8.79557
-8.80649
-8.81811
-8.83026
-8.84269
-8.85521
-8.86775
-8.88024
-8.89262
-8.90483
-8.91686
-8.92867
-8.94023
-8.95155
-8.96259
-8.97335
-8.98382
-8.994
-9.00388
-9.01346
-9.02273
-9.03169
-9.04036
-9.04871
-9.05676
-9.06451
-9.07196
-9.0791
-9.08592
-8.75842
-8.76077
-8.7678
-8.77795
-8.78913
-8.80077
-8.81294
-8.82552
-8.83825
-8.85096
-8.86361
-8.87615
-8.88853
-8.90071
-8.91267
-8.92439
-8.93584
-8.94702
-8.95792
-8.96854
-8.97885
-8.98887
-8.99858
-9.00799
-9.0171
-9.0259
-9.0344
-9.04259
-9.05049
-9.0581
-9.06542
-9.07248
-9.07926
-8.74441
-8.74773
-8.7568
-8.76914
-8.78207
-8.79513
-8.80851
-8.82206
-8.83548
-8.84869
-8.8617
-8.87447
-8.887
-8.89926
-8.91124
-8.92294
-8.93435
-8.94546
-8.95627
-8.96678
-8.97698
-8.98687
-8.99645
-9.00572
-9.01467
-9.02332
-9.03166
-9.03969
-9.04742
-9.05485
-9.06197
-9.06879
-9.07529
-8.72602
-8.73111
-8.7432
-8.7577
-8.77165
-8.78552
-8.7998
-8.81411
-8.82807
-8.84166
-8.85496
-8.86794
-8.8806
-8.89291
-8.90491
-8.91658
-8.92793
-8.93897
-8.94968
-8.96008
-8.97017
-8.97994
-8.98941
-8.99856
-9.0074
-9.01594
-9.02417
-9.0321
-9.03974
-9.04708
-9.05415
-9.06094
-9.06746
-8.70109
-8.71024
-8.72964
-8.74938
-8.76581
-8.78121
-8.79673
-8.81184
-8.82622
-8.84001
-8.8534
-8.8664
-8.879
-8.89123
-8.90311
-8.91465
-8.92585
-8.93671
-8.94725
-8.95746
-8.96735
-8.97691
-8.98616
-8.9951
-9.00372
-9.01203
-9.02003
-9.02773
-9.03514
-9.04225
-9.04907
-9.05559
-9.06182
-8.66615
-8.67981
-8.70544
-8.7287
-8.74765
-8.76567
-8.78331
-8.79976
-8.81497
-8.82935
-8.84312
-8.85632
-8.869
-8.88122
-8.89304
-8.9045
-8.9156
-8.92636
-8.9368
-8.94692
-8.95673
-8.96623
-8.97543
-8.98432
-8.99291
-9.0012
-9.00919
-9.01689
-9.02429
-9.03139
-9.03819
-9.04468
-9.05084
-8.61876
-8.66642
-8.7058
-8.72607
-8.74234
-8.76069
-8.77865
-8.7946
-8.80915
-8.82308
-8.83651
-8.8494
-8.86177
-8.87371
-8.88526
-8.89644
-8.90728
-8.91779
-8.92798
-8.93786
-8.94744
-8.95672
-8.9657
-8.97439
-8.98279
-8.99092
-8.99876
-9.00634
-9.01366
-9.02074
-9.0276
-9.0343
-9.04086
-8.48443
-8.60661
-8.68126
-8.70549
-8.72181
-8.74283
-8.76331
-8.78051
-8.79584
-8.81065
-8.82518
-8.83929
-8.85301
-8.86642
-8.87957
-8.89245
-8.90505
-8.91736
-8.92938
-8.9411
-8.95251
-8.96359
-8.97436
-8.98479
-8.99488
-9.00464
-9.01406
-9.02313
-9.03185
-9.04022
-9.04825
-9.0559
-9.0633
-9.33275
-9.48874
-9.70608
-9.81043
-9.92125
-10.0275
-10.1091
-10.1721
-10.2213
-10.2574
-10.2823
-10.2972
-10.3037
-10.3038
-10.2998
-10.2945
-10.289
-10.2809
-10.2765
-10.2795
-10.2912
-10.3115
-10.3394
-10.3728
-10.4094
-10.4473
-10.4853
-10.5227
-10.5589
-10.593
-10.6239
-10.6507
-10.6727
-10.6894
-10.7006
-10.7057
-10.7047
-10.6973
-10.6833
-10.6627
-10.6352
-10.6005
-10.5585
-10.509
-10.4519
-10.3869
-10.314
-10.2329
-10.1434
-10.0454
-9.93861
-9.82278
-9.69772
-9.56325
-9.41923
-9.26554
-9.10213
-8.92898
-8.74616
-8.55378
-8.35202
-8.14115
-7.9215
-7.6935
-7.45764
-7.21453
-6.96483
-6.70926
-6.44859
-6.18364
-5.91522
-5.64421
-5.37148
-5.098
-4.82473
-4.55273
-4.28309
-4.01698
-3.75561
-3.50017
-3.25167
-3.01077
-2.77786
-2.55326
-2.33729
-2.13023
-1.93228
-1.74357
-1.56411
-1.39384
-1.23244
-1.07978
-0.934754
-0.797828
-0.665097
-0.541362
-0.410658
-0.302199
-0.144514
-0.0949687
-9.24813
-9.30077
-9.39292
-9.439
-9.49246
-9.56022
-9.62672
-9.69007
-9.7505
-9.80562
-9.85378
-9.89443
-9.92766
-9.95423
-9.97576
-9.99483
-10.014
-10.0294
-10.0453
-10.0658
-10.0926
-10.126
-10.1652
-10.2085
-10.2538
-10.2995
-10.3445
-10.3881
-10.4295
-10.468
-10.5027
-10.5327
-10.5574
-10.5764
-10.5894
-10.596
-10.5961
-10.5896
-10.5763
-10.5562
-10.5289
-10.4945
-10.4526
-10.4032
-10.3462
-10.2813
-10.2084
-10.1274
-10.0381
-9.94033
-9.83381
-9.71836
-9.5938
-9.45995
-9.31669
-9.16391
-9.00157
-8.82967
-8.64827
-8.45749
-8.25753
-8.04864
-7.83116
-7.60552
-7.37221
-7.13181
-6.88498
-6.63242
-6.3749
-6.11319
-5.84812
-5.58052
-5.31127
-5.04129
-4.77154
-4.50304
-4.23685
-3.9741
-3.71596
-3.46356
-3.21787
-2.97954
-2.74898
-2.52653
-2.31251
-2.10718
-1.91075
-1.72336
-1.54501
-1.37566
-1.21499
-1.0629
-0.918298
-0.781699
-0.649232
-0.525863
-0.395738
-0.288576
-0.133535
-0.0881289
-9.20958
-9.23095
-9.27547
-9.30299
-9.32637
-9.35907
-9.39446
-9.42924
-9.46422
-9.49882
-9.53206
-9.56334
-9.59241
-9.6195
-9.64561
-9.67249
-9.70151
-9.73167
-9.76296
-9.79797
-9.83836
-9.88435
-9.93514
-9.98915
-10.0445
-10.0997
-10.1535
-10.2051
-10.2537
-10.2987
-10.3391
-10.3743
-10.4036
-10.4266
-10.4432
-10.453
-10.4558
-10.4517
-10.4406
-10.4222
-10.3966
-10.3636
-10.3231
-10.2749
-10.219
-10.1552
-10.0835
-10.0036
-9.91539
-9.81874
-9.71345
-9.59931
-9.47616
-9.34383
-9.20222
-9.05122
-8.89081
-8.72099
-8.54182
-8.35344
-8.15604
-7.94987
-7.73529
-7.51269
-7.28257
-7.04551
-6.80214
-6.55315
-6.29928
-6.0413
-5.78001
-5.51622
-5.25079
-4.98463
-4.71867
-4.4539
-4.19135
-3.93212
-3.67734
-3.42807
-3.18525
-2.94953
-2.72134
-2.50103
-2.28892
-2.08528
-1.89031
-1.70416
-1.52683
-1.35831
-1.19828
-1.04666
-0.902396
-0.766031
-0.633772
-0.510688
-0.381195
-0.275184
-0.123182
-0.0811546
-9.20746
-9.23051
-9.26683
-9.29495
-9.31387
-9.33445
-9.3549
-9.37225
-9.38754
-9.40165
-9.41452
-9.42626
-9.43733
-9.44851
-9.46097
-9.47629
-9.49586
-9.52011
-9.54806
-9.58118
-9.62072
-9.66675
-9.71836
-9.77401
-9.8319
-9.89037
-9.9481
-10.004
-10.0572
-10.1068
-10.1517
-10.1913
-10.225
-10.2522
-10.2727
-10.2861
-10.2925
-10.2916
-10.2834
-10.2678
-10.2447
-10.2141
-10.1758
-10.1298
-10.076
-10.0143
-9.94451
-9.8666
-9.7804
-9.68577
-9.58253
-9.4705
-9.34954
-9.2195
-9.08027
-8.93177
-8.77398
-8.60691
-8.43063
-8.24528
-8.05104
-7.84819
-7.63705
-7.41803
-7.19162
-6.95837
-6.7189
-6.47388
-6.22403
-5.97011
-5.71289
-5.45317
-5.1918
-4.92964
-4.66762
-4.4067
-4.14789
-3.89224
-3.64084
-3.39471
-3.15476
-2.92163
-2.69576
-2.47752
-2.26724
-2.06519
-1.87158
-1.68656
-1.51014
-1.34232
-1.1828
-1.03153
-0.887485
-0.751236
-0.619104
-0.496194
-0.367365
-0.262306
-0.113684
-0.0741926
-9.21181
-9.23387
-9.26162
-9.28524
-9.30209
-9.31894
-9.33602
-9.35081
-9.36328
-9.37389
-9.38244
-9.3889
-9.3937
-9.39762
-9.40186
-9.40792
-9.41729
-9.43083
-9.4487
-9.47196
-9.50166
-9.53799
-9.58032
-9.62744
-9.67789
-9.73021
-9.78308
-9.83539
-9.88608
-9.93409
-9.97843
-10.0182
-10.0526
-10.0812
-10.1033
-10.1188
-10.1272
-10.1286
-10.1227
-10.1094
-10.0886
-10.0603
-10.0243
-9.98058
-9.929
-9.86949
-9.80196
-9.7263
-9.64238
-9.55005
-9.44917
-9.33959
-9.22114
-9.09372
-8.95721
-8.81156
-8.65674
-8.49277
-8.31973
-8.13774
-7.94701
-7.74778
-7.54039
-7.32524
-7.10279
-6.87358
-6.63823
-6.39737
-6.15172
-5.90199
-5.64896
-5.3934
-5.13614
-4.87803
-4.61997
-4.3629
-4.1078
-3.85569
-3.60761
-3.36455
-3.12737
-2.89672
-2.67307
-2.45679
-2.24821
-2.04762
-1.85522
-1.67117
-1.49551
-1.32823
-1.16908
-1.018
-0.874028
-0.737752
-0.605642
-0.482773
-0.354594
-0.25028
-0.105229
-0.0675037
-9.21319
-9.23376
-9.25738
-9.27977
-9.29798
-9.31503
-9.33155
-9.34584
-9.35746
-9.36677
-9.3738
-9.37863
-9.38168
-9.38368
-9.38564
-9.38878
-9.39432
-9.40313
-9.41581
-9.43299
-9.45554
-9.48374
-9.51718
-9.55501
-9.59611
-9.63933
-9.68358
-9.72788
-9.77126
-9.81279
-9.85151
-9.88658
-9.91723
-9.9428
-9.96277
-9.97671
-9.98428
-9.98523
-9.97934
-9.96642
-9.94631
-9.91887
-9.88395
-9.84145
-9.79126
-9.73327
-9.66738
-9.59346
-9.5114
-9.42104
-9.32225
-9.21487
-9.09876
-8.97381
-8.83993
-8.69704
-8.54512
-8.38421
-8.21437
-8.03573
-7.84847
-7.65286
-7.44921
-7.2379
-7.01939
-6.7942
-6.56292
-6.32618
-6.08466
-5.83907
-5.59015
-5.33867
-5.08543
-4.83127
-4.57706
-4.32372
-4.0722
-3.82349
-3.57858
-3.33844
-3.10389
-2.87558
-2.65398
-2.43949
-2.23244
-2.03313
-1.84177
-1.65852
-1.48343
-1.31652
-1.15756
-1.0065
-0.862441
-0.725979
-0.593765
-0.470786
-0.34321
-0.239408
-0.0980044
-0.0612978
-9.21323
-9.23299
-9.25431
-9.27494
-9.29255
-9.30843
-9.32341
-9.33661
-9.3476
-9.35658
-9.36366
-9.36889
-9.37258
-9.37534
-9.37795
-9.38141
-9.3867
-9.39462
-9.4058
-9.42074
-9.44011
-9.46414
-9.49251
-9.52454
-9.55932
-9.59588
-9.63328
-9.67065
-9.70715
-9.74195
-9.77424
-9.80328
-9.82836
-9.84891
-9.8644
-9.87443
-9.87864
-9.87675
-9.86851
-9.85371
-9.83214
-9.80362
-9.76799
-9.72509
-9.6748
-9.61697
-9.55149
-9.4782
-9.39698
-9.30768
-9.21014
-9.10421
-8.98975
-8.86664
-8.73479
-8.59413
-8.44463
-8.28632
-8.11926
-7.94358
-7.75944
-7.5671
-7.36685
-7.15908
-6.94422
-6.72277
-6.49529
-6.26241
-6.02477
-5.78306
-5.53801
-5.29038
-5.04093
-4.79049
-4.53991
-4.29008
-4.04193
-3.7964
-3.55447
-3.31704
-3.08492
-2.85875
-2.63902
-2.42613
-2.22042
-2.02219
-1.83167
-1.64903
-1.47433
-1.3076
-1.14863
-0.997415
-0.853095
-0.716276
-0.583817
-0.460567
-0.333509
-0.22998
-0.0921633
-0.0557915
-9.21263
-9.23135
-9.25087
-9.26984
-9.28689
-9.30243
-9.31701
-9.33013
-9.34133
-9.35066
-9.35819
-9.364
-9.36839
-9.37188
-9.37517
-9.3791
-9.38453
-9.39217
-9.40262
-9.41638
-9.43393
-9.45543
-9.48063
-9.50895
-9.53961
-9.57178
-9.60459
-9.63723
-9.66891
-9.69885
-9.72633
-9.75065
-9.77118
-9.78736
-9.79873
-9.80489
-9.80551
-9.80033
-9.78911
-9.77161
-9.74766
-9.71706
-9.67964
-9.63526
-9.58375
-9.52499
-9.45883
-9.38512
-9.30372
-9.21448
-9.11724
-9.01186
-8.89818
-8.77609
-8.64549
-8.50631
-8.35853
-8.20214
-8.03723
-7.86389
-7.68229
-7.49267
-7.29532
-7.09059
-6.8789
-6.66074
-6.43665
-6.20721
-5.97307
-5.73489
-5.49337
-5.24925
-5.00329
-4.75627
-4.50904
-4.26245
-4.01741
-3.77482
-3.53562
-3.30067
-3.07077
-2.84653
-2.62847
-2.41698
-2.21241
-2.01508
-1.8252
-1.64297
-1.46847
-1.30173
-1.14257
-0.991016
-0.846265
-0.70892
-0.576068
-0.452381
-0.325731
-0.222228
-0.0878177
-0.0511585
-9.21017
-9.22809
-9.24639
-9.26421
-9.2807
-9.29583
-9.30984
-9.32248
-9.33343
-9.3427
-9.35039
-9.35663
-9.3617
-9.36605
-9.37027
-9.37507
-9.38113
-9.38911
-9.39951
-9.41281
-9.42933
-9.44922
-9.47226
-9.49797
-9.52567
-9.55464
-9.58409
-9.61326
-9.64142
-9.66783
-9.69181
-9.71269
-9.72988
-9.74286
-9.75115
-9.75439
-9.75223
-9.74442
-9.73072
-9.7109
-9.68479
-9.65219
-9.61296
-9.56693
-9.51396
-9.45392
-9.38667
-9.31207
-9.22997
-9.14024
-9.04271
-8.93726
-8.82373
-8.70202
-8.57203
-8.4337
-8.28699
-8.13191
-7.96852
-7.79693
-7.6173
-7.42984
-7.23484
-7.03263
-6.82362
-6.60827
-6.38711
-6.16069
-5.92964
-5.6946
-5.45625
-5.2153
-4.97249
-4.7286
-4.48443
-4.24081
-3.99861
-3.75872
-3.52201
-3.28933
-3.06143
-2.83894
-2.62235
-2.41208
-2.20848
-2.01185
-1.82245
-1.64046
-1.46597
-1.29904
-1.13954
-0.987464
-0.84212
-0.704089
-0.570701
-0.446414
-0.320039
-0.21632
-0.0850263
-0.0475296
-9.20811
-9.22518
-9.24238
-9.25919
-9.27492
-9.28952
-9.30305
-9.3154
-9.32634
-9.33584
-9.34397
-9.35085
-9.35672
-9.36195
-9.36706
-9.37262
-9.37924
-9.38747
-9.39779
-9.4106
-9.42616
-9.44461
-9.46576
-9.48918
-9.51431
-9.5405
-9.56705
-9.59325
-9.61841
-9.64186
-9.66293
-9.681
-9.69551
-9.70592
-9.7118
-9.71276
-9.70847
-9.69866
-9.68308
-9.6615
-9.63375
-9.59962
-9.55898
-9.51165
-9.4575
-9.39639
-9.3282
-9.25278
-9.16999
-9.07971
-8.98179
-8.8761
-8.76252
-8.64094
-8.51127
-8.37345
-8.22747
-8.07333
-7.91109
-7.74085
-7.56277
-7.37707
-7.18402
-6.98393
-6.77721
-6.56429
-6.34568
-6.12194
-5.89364
-5.66141
-5.42592
-5.18785
-4.94793
-4.7069
-4.46554
-4.22465
-3.98509
-3.74768
-3.51327
-3.28268
-3.05662
-2.83571
-2.62044
-2.41123
-2.20844
-2.01238
-1.8233
-1.6414
-1.46678
-1.29952
-1.13951
-0.986781
-0.840702
-0.701843
-0.567787
-0.442753
-0.316507
-0.212339
-0.0837832
-0.0449711
-9.20427
-9.22066
-9.23704
-9.25304
-9.26818
-9.28232
-9.29552
-9.30764
-9.31852
-9.32813
-9.33651
-9.3438
-9.35023
-9.35612
-9.36192
-9.36812
-9.37524
-9.38375
-9.39407
-9.40654
-9.42139
-9.43868
-9.45828
-9.4798
-9.50276
-9.52658
-9.55064
-9.57428
-9.59686
-9.61774
-9.6363
-9.65195
-9.66415
-9.6724
-9.67625
-9.67532
-9.66928
-9.65785
-9.64077
-9.61782
-9.58879
-9.5535
-9.51178
-9.46348
-9.40846
-9.34656
-9.27767
-9.20165
-9.11837
-9.02769
-8.92949
-8.82365
-8.71005
-8.5886
-8.45922
-8.32186
-8.1765
-8.02317
-7.86192
-7.69286
-7.51615
-7.33199
-7.14066
-6.94247
-6.7378
-6.52708
-6.3108
-6.08948
-5.8637
-5.63408
-5.40123
-5.16585
-4.92861
-4.69026
-4.45153
-4.21322
-3.97612
-3.74105
-3.50881
-3.28017
-3.05583
-2.83638
-2.62232
-2.41407
-2.21198
-2.01637
-1.8275
-1.64557
-1.47071
-1.30301
-1.14237
-0.988869
-0.841939
-0.702134
-0.567295
-0.441381
-0.315115
-0.210277
-0.0840182
-0.0434828
-9.20111
-9.21681
-9.23243
-9.24768
-9.26225
-9.27593
-9.28875
-9.3006
-9.31139
-9.32106
-9.32968
-9.33738
-9.34435
-9.35088
-9.35733
-9.36412
-9.37168
-9.38042
-9.3907
-9.40281
-9.41694
-9.43312
-9.45125
-9.47098
-9.4919
-9.51349
-9.53519
-9.55641
-9.57655
-9.59501
-9.61121
-9.6246
-9.63464
-9.64086
-9.64282
-9.64016
-9.63252
-9.61963
-9.60122
-9.57706
-9.54694
-9.51068
-9.46809
-9.41901
-9.36331
-9.30083
-9.23144
-9.15501
-9.0714
-8.98051
-8.88219
-8.77633
-8.66284
-8.54162
-8.4126
-8.27575
-8.13105
-7.97854
-7.81827
-7.65036
-7.47496
-7.29229
-7.1026
-6.90621
-6.70349
-6.49485
-6.28078
-6.06177
-5.8384
-5.61125
-5.38094
-5.14812
-4.91346
-4.67767
-4.44148
-4.20564
-3.97092
-3.73808
-3.50792
-3.28115
-3.05845
-2.8404
-2.62748
-2.42011
-2.21865
-2.02343
-1.83469
-1.65266
-1.47747
-1.30923
-1.1479
-0.993528
-0.845658
-0.704815
-0.569097
-0.442191
-0.315755
-0.210046
-0.0856013
-0.0429968
-9.19653
-9.21166
-9.22665
-9.24129
-9.25535
-9.26866
-9.28113
-9.29277
-9.30348
-9.31324
-9.32207
-9.33009
-9.33749
-9.3445
-9.35144
-9.35865
-9.36652
-9.37539
-9.38557
-9.39729
-9.41072
-9.4259
-9.44269
-9.46081
-9.47988
-9.49944
-9.519
-9.53801
-9.55592
-9.57217
-9.58621
-9.59752
-9.60559
-9.60995
-9.6102
-9.60595
-9.59686
-9.58266
-9.56306
-9.53783
-9.50676
-9.46964
-9.42631
-9.3766
-9.32034
-9.2574
-9.18765
-9.11093
-9.02714
-8.93614
-8.83782
-8.73207
-8.61878
-8.49789
-8.36933
-8.23306
-8.08909
-7.93745
-7.7782
-7.61147
-7.4374
-7.25621
-7.06816
-6.87355
-6.67274
-6.46616
-6.25425
-6.03751
-5.8165
-5.59177
-5.36394
-5.13363
-4.9015
-4.66823
-4.43452
-4.2011
-3.9687
-3.73807
-3.50993
-3.28499
-3.0639
-2.84721
-2.63539
-2.42888
-2.22801
-2.03313
-1.84448
-1.6623
-1.48673
-1.3179
-1.1558
-1.0005
-0.851625
-0.709676
-0.572999
-0.44501
-0.318254
-0.211487
-0.0883584
-0.0433907
-9.1925
-9.20708
-9.22149
-9.23557
-9.24913
-9.26204
-9.27419
-9.28557
-9.29616
-9.30595
-9.31493
-9.32321
-9.33094
-9.33835
-9.34569
-9.35326
-9.36136
-9.37031
-9.38034
-9.39167
-9.40441
-9.41861
-9.43412
-9.45071
-9.46801
-9.48564
-9.50315
-9.52005
-9.53581
-9.54993
-9.56188
-9.57117
-9.57731
-9.57987
-9.57843
-9.57263
-9.56214
-9.54664
-9.52589
-9.49963
-9.46764
-9.42973
-9.38571
-9.3354
-9.27866
-9.21533
-9.14527
-9.06835
-8.98444
-8.89343
-8.79518
-8.68961
-8.57662
-8.45614
-8.3281
-8.1925
-8.04932
-7.89861
-7.74043
-7.57492
-7.40222
-7.22255
-7.03615
-6.84334
-6.64446
-6.43993
-6.23018
-6.01571
-5.79705
-5.57474
-5.34937
-5.12156
-4.89195
-4.66118
-4.42994
-4.19892
-3.96884
-3.74039
-3.51427
-3.29116
-3.07166
-2.85632
-2.6456
-2.43993
-2.23964
-2.04508
-1.85649
-1.67413
-1.49815
-1.3287
-1.16578
-1.00952
-0.859585
-0.716476
-0.578774
-0.449622
-0.322399
-0.214402
-0.0920926
-0.0445077
-9.18754
-9.20161
-9.21551
-9.22909
-9.24221
-9.25476
-9.26664
-9.27781
-9.28827
-9.29804
-9.30714
-9.31562
-9.32362
-9.33133
-9.33897
-9.34678
-9.35502
-9.36395
-9.37377
-9.38466
-9.39671
-9.40993
-9.42422
-9.43934
-9.45499
-9.47081
-9.4864
-9.50131
-9.51505
-9.52716
-9.53714
-9.54453
-9.54886
-9.54971
-9.54669
-9.53943
-9.5276
-9.5109
-9.48906
-9.46184
-9.429
-9.39036
-9.3457
-9.29487
-9.2377
-9.17404
-9.10374
-9.02667
-8.94271
-8.85174
-8.75363
-8.6483
-8.53566
-8.41564
-8.2882
-8.1533
-8.01097
-7.86123
-7.70418
-7.53993
-7.36863
-7.1905
-7.00579
-6.8148
-6.61788
-6.41542
-6.20785
-5.99566
-5.77935
-5.55947
-5.33658
-5.11128
-4.88419
-4.65594
-4.42718
-4.19857
-3.97081
-3.74455
-3.52046
-3.29918
-3.08129
-2.86731
-2.65771
-2.45287
-2.25318
-2.05892
-1.8704
-1.68784
-1.51143
-1.34133
-1.17758
-1.02031
-0.869285
-0.724976
-0.58619
-0.455804
-0.327967
-0.218578
-0.0966056
-0.0461806
-9.18291
-9.19652
-9.20995
-9.22308
-9.23579
-9.248
-9.25961
-9.27059
-9.28092
-9.29062
-9.29975
-9.30836
-9.31654
-9.32446
-9.33229
-9.34025
-9.34855
-9.3574
-9.36696
-9.37739
-9.38874
-9.40101
-9.41411
-9.42783
-9.4419
-9.45599
-9.46974
-9.48274
-9.49455
-9.50471
-9.51278
-9.51831
-9.52087
-9.52004
-9.51545
-9.50674
-9.49358
-9.47568
-9.45275
-9.42457
-9.39088
-9.3515
-9.30622
-9.25487
-9.19728
-9.1333
-9.06278
-8.98559
-8.9016
-8.81069
-8.71276
-8.60771
-8.49546
-8.37594
-8.24912
-8.11498
-7.97353
-7.82481
-7.66891
-7.50595
-7.33609
-7.15954
-6.97654
-6.7874
-6.59245
-6.39208
-6.18672
-5.97682
-5.7629
-5.54546
-5.32507
-5.10231
-4.87776
-4.65204
-4.42578
-4.19961
-3.97418
-3.75013
-3.5281
-3.30867
-3.09242
-2.87983
-2.67136
-2.46739
-2.26829
-2.07437
-1.88591
-1.70315
-1.52631
-1.35554
-1.19094
-1.03264
-0.8805
-0.734957
-0.595031
-0.463348
-0.334744
-0.223816
-0.101718
-0.0482566
-9.17773
-9.19091
-9.2039
-9.21661
-9.22894
-9.24082
-9.25217
-9.26296
-9.27317
-9.2828
-9.29191
-9.30057
-9.30887
-9.31692
-9.32488
-9.33291
-9.34118
-9.34987
-9.35913
-9.36905
-9.37969
-9.39101
-9.40295
-9.41532
-9.42788
-9.44033
-9.45233
-9.46352
-9.47348
-9.48179
-9.48803
-9.49178
-9.49264
-9.4902
-9.4841
-9.474
-9.45956
-9.44049
-9.41652
-9.38741
-9.35292
-9.31283
-9.26696
-9.21511
-9.15714
-9.09286
-9.02215
-8.94486
-8.86088
-8.77007
-8.67234
-8.5676
-8.45576
-8.33678
-8.21061
-8.07725
-7.9367
-7.78903
-7.63431
-7.47266
-7.30426
-7.1293
-6.94804
-6.76076
-6.56781
-6.36955
-6.1664
-5.95882
-5.7473
-5.53233
-5.31446
-5.09425
-4.87227
-4.64911
-4.42538
-4.20167
-3.97861
-3.75681
-3.53685
-3.31932
-3.10473
-2.89357
-2.68626
-2.48319
-2.28472
-2.09114
-1.90276
-1.71982
-1.54254
-1.37111
-1.20565
-1.04632
-0.89303
-0.746228
-0.605109
-0.472071
-0.34255
-0.229945
-0.107285
-0.0506228
-9.17273
-9.18551
-9.1981
-9.21042
-9.2224
-9.23397
-9.24508
-9.25568
-9.26576
-9.27531
-9.28438
-9.29303
-9.30136
-9.30946
-9.31747
-9.32549
-9.33366
-9.34213
-9.35102
-9.36041
-9.3703
-9.38069
-9.39151
-9.4026
-9.41372
-9.4246
-9.43494
-9.44439
-9.45257
-9.45909
-9.46357
-9.46559
-9.46479
-9.46077
-9.45318
-9.44169
-9.42597
-9.40574
-9.38073
-9.35068
-9.31536
-9.27456
-9.22808
-9.17573
-9.11735
-9.05278
-8.98187
-8.90449
-8.8205
-8.7298
-8.63228
-8.52785
-8.41644
-8.298
-8.1725
-8.03993
-7.9003
-7.75368
-7.60015
-7.43984
-7.2729
-7.09955
-6.92004
-6.73463
-6.54368
-6.34754
-6.14663
-5.94138
-5.73227
-5.51979
-5.30446
-5.08682
-4.86744
-4.64686
-4.42568
-4.20446
-3.98381
-3.76428
-3.54644
-3.33083
-3.11794
-2.90824
-2.70214
-2.5
-2.30218
-2.10899
-1.9207
-1.7376
-1.55989
-1.38781
-1.22149
-1.06112
-0.906682
-0.758603
-0.616247
-0.481804
-0.35122
-0.23682
-0.113194
-0.0532062
-9.16747
-9.17986
-9.19206
-9.20401
-9.21565
-9.22692
-9.23777
-9.24817
-9.2581
-9.26756
-9.27657
-9.28518
-9.29346
-9.30153
-9.30949
-9.31743
-9.32545
-9.33366
-9.34214
-9.35095
-9.3601
-9.3696
-9.37935
-9.3892
-9.39894
-9.40832
-9.41706
-9.42485
-9.43133
-9.43614
-9.43891
-9.43928
-9.43686
-9.43131
-9.42228
-9.40944
-9.39248
-9.37111
-9.34507
-9.3141
-9.27797
-9.23647
-9.1894
-9.13657
-9.0778
-9.01295
-8.94185
-8.86438
-8.7804
-8.68981
-8.59251
-8.48841
-8.37743
-8.25955
-8.13471
-8.00293
-7.86424
-7.71867
-7.56634
-7.40736
-7.24189
-7.07015
-6.89237
-6.70885
-6.5199
-6.32588
-6.12721
-5.92429
-5.7176
-5.50762
-5.29484
-5.0798
-4.86302
-4.64505
-4.42645
-4.20775
-3.98952
-3.77229
-3.5566
-3.34295
-3.13181
-2.92361
-2.71874
-2.51758
-2.32044
-2.12765
-1.93949
-1.75624
-1.57814
-1.40541
-1.23824
-1.07684
-0.921242
-0.771878
-0.628249
-0.492362
-0.360584
-0.244297
-0.119336
-0.0559561
-9.16227
-9.1743
-9.18615
-9.19776
-9.20909
-9.22007
-9.23068
-9.24087
-9.25064
-9.25998
-9.2689
-9.27744
-9.28565
-9.29362
-9.30144
-9.30922
-9.317
-9.32488
-9.33292
-9.34116
-9.34961
-9.35824
-9.36696
-9.37562
-9.38404
-9.39199
-9.39921
-9.4054
-9.41025
-9.41341
-9.41454
-9.41329
-9.40932
-9.40227
-9.39181
-9.37764