/*--------------------------------*- C++ -*----------------------------------*\
| =========                 |                                                 |
| \\      /  F ield         | OpenFOAM: The Open Source CFD Toolbox           |
|  \\    /   O peration     | Version:  4.1                                   |
|   \\  /    A nd           | Web:      www.OpenFOAM.org                      |
|    \\/     M anipulation  |                                                 |
\*---------------------------------------------------------------------------*/
FoamFile
{
    version     2.0;
    format      ascii;
    class       volScalarField;
    location    "900";
    object      p;
}
// * * * * * * * * * * * * * * * * * * * * * * * * * * * * * * * * * * * * * //

dimensions      [0 2 -2 0 0 0 0];

internalField   nonuniform List<scalar> 
26785
(
72.4494
75.4156
78.2062
81.0831
81.4026
79.6468
78.9442
79.4495
80.4998
81.236
80.6802
78.7397
77.4068
77.2398
78.181
79.9352
81.9196
83.6175
84.8544
85.4585
85.1142
83.5321
80.4186
75.5141
68.6508
59.7769
48.9634
36.3482
22.0775
6.22019
-10.9866
-28.7774
-45.8307
-60.0614
-69.7867
-75.127
-77.1161
-77.2876
-76.8706
-76.372
-75.9424
-75.8136
-76.4111
-78.3287
-82.1649
-88.0072
-95.1922
-102.103
-106.743
-108.107
-105.945
-101.276
-95.6162
-89.9153
-84.5581
-79.6442
-75.1583
-71.05
-67.269
-63.7789
-60.5655
-57.6365
-55.02
-52.7649
-50.9033
-49.4293
-48.4572
-48.1373
-48.6119
-50.064
-52.6861
-56.6044
-61.7672
-67.8587
-74.265
-80.3208
-85.675
-90.2684
-94.0858
-97.0758
-99.1529
-100.192
-100.14
-99.1186
-97.3735
-95.026
-91.7737
-86.9605
-79.9147
-70.5351
-59.7161
-48.654
-38.2876
-29.1487
-21.4373
-15.148
-10.0801
-6.23371
-2.65193
-1.65655
72.4481
75.408
78.1923
81.0484
81.37
79.6194
78.9309
79.4372
80.4855
81.2178
80.6545
78.7105
77.3855
77.2185
78.1653
79.9305
81.9247
83.6281
84.8691
85.4752
85.1267
83.5361
80.4119
75.496
68.6219
59.7382
48.9178
36.2995
22.0292
6.17033
-11.0506
-28.8704
-45.9705
-60.2432
-69.9614
-75.2686
-77.2078
-77.3314
-76.8836
-76.3638
-75.9121
-75.7603
-76.3467
-78.273
-82.1463
-88.0411
-95.2843
-102.27
-106.964
-108.374
-106.206
-101.484
-95.7701
-90.0299
-84.6468
-79.7155
-75.2169
-71.0985
-67.3082
-63.8084
-60.5843
-57.6431
-55.0129
-52.7439
-50.8706
-49.383
-48.4009
-48.0791
-48.5618
-50.0319
-52.6809
-56.6373
-61.8515
-68.0037
-74.4549
-80.5209
-85.8655
-90.4498
-94.2644
-97.2613
-99.3519
-100.395
-100.327
-99.2816
-97.5253
-95.2069
-92.0308
-87.3184
-80.3459
-70.9442
-60.0372
-48.8698
-38.4107
-29.2022
-21.4443
-15.1293
-10.0529
-6.20985
-2.66452
-1.59568
72.4381
75.3913
78.1658
80.9824
81.3033
79.5693
78.9045
79.4117
80.4559
81.1805
80.6019
78.6493
77.338
77.1719
78.1316
79.9212
81.9379
83.6553
84.9074
85.5185
85.16
83.5504
80.4032
75.4637
68.567
59.6638
48.8309
36.2089
21.943
6.08489
-11.1606
-29.0357
-46.2284
-60.5916
-70.3144
-75.5666
-77.3996
-77.4178
-76.9042
-76.3518
-75.8732
-75.6912
-76.2621
-78.1932
-82.1039
-88.0488
-95.3526
-102.466
-107.29
-108.812
-106.666
-101.865
-96.0605
-90.2526
-84.8233
-79.8599
-75.3372
-71.1989
-67.3901
-63.8711
-60.6258
-57.6608
-55.0044
-52.7098
-50.8171
-49.3075
-48.3095
-47.9921
-48.4978
-50.0009
-52.6928
-56.713
-62.0181
-68.2805
-74.811
-80.8912
-86.2192
-90.7942
-94.6133
-97.6304
-99.7488
-100.794
-100.687
-99.5758
-97.7684
-95.4648
-92.3943
-87.8433
-81.0005
-71.5842
-60.5514
-49.2222
-38.6153
-29.2928
-21.4571
-15.0987
-10.0094
-6.17284
-2.69229
-1.50202
72.4205
75.3672
78.1273
80.8924
81.2069
79.4993
78.8641
79.372
80.4098
81.1237
80.5206
78.5531
77.2612
77.0985
78.08
79.9083
81.9602
83.6988
84.9659
85.5823
85.2073
83.5698
80.3886
75.4133
68.4832
59.5526
48.7045
36.0815
21.8274
5.977
-11.2986
-29.2502
-46.5781
-61.0811
-70.8212
-76.0003
-77.6813
-77.5505
-76.9498
-76.3611
-75.8521
-75.6312
-76.173
-78.0934
-82.035
-88.029
-95.3841
-102.629
-107.615
-109.282
-107.215
-102.356
-96.4539
-90.5655
-85.0775
-80.0709
-75.5147
-71.3482
-67.513
-63.9665
-60.6909
-57.6919
-54.9986
-52.67
-50.7563
-49.2172
-48.1993
-47.8966
-48.4368
-49.9801
-52.722
-56.8198
-62.2426
-68.6567
-75.2986
-81.4008
-86.7142
-91.2881
-95.1227
-98.1734
-100.33
-101.369
-101.185
-99.9565
-98.0508
-95.7376
-92.7786
-88.415
-81.7275
-72.3111
-61.1486
-49.6389
-38.8585
-29.396
-21.4614
-15.0468
-9.94164
-6.11589
-2.71941
-1.39031
72.3939
75.3338
78.0749
80.7824
81.0825
79.4134
78.8096
79.3178
80.3464
81.0468
80.4093
78.4214
77.1546
76.9983
78.0108
79.8916
81.9907
83.7558
85.0404
85.6625
85.2661
83.5916
80.3629
75.3377
68.3636
59.4007
48.5392
35.923
21.693
5.86214
-11.4443
-29.4888
-46.9904
-61.689
-71.4717
-76.5712
-78.0553
-77.7294
-77.0177
-76.39
-75.8558
-75.596
-76.1013
-77.9945
-81.9509
-87.9815
-95.3684
-102.733
-107.905
-109.726
-107.784
-102.899
-96.9117
-90.9447
-85.395
-80.3403
-75.7448
-71.544
-67.6761
-64.0952
-60.7816
-57.7403
-55.0005
-52.6313
-50.7011
-49.124
-48.0935
-47.8235
-48.4031
-49.9795
-52.7609
-56.9355
-62.497
-69.1099
-75.9046
-82.0439
-87.3492
-91.9283
-95.7811
-98.8683
-101.064
-102.079
-101.78
-100.382
-98.3302
-95.9778
-93.1268
-88.9624
-82.4323
-73.014
-61.7247
-50.0394
-39.0864
-29.48
-21.4406
-14.9666
-9.84751
-6.04082
-2.74182
-1.2805
72.3652
75.2893
78.0061
80.6548
80.9307
79.3147
78.7414
79.2492
80.2655
80.9496
80.2677
78.255
77.0186
76.8723
77.9255
79.8718
82.0279
83.8228
85.1253
85.7525
85.3288
83.6039
80.3109
75.2233
68.2006
59.2086
48.3431
35.7467
21.5561
5.75949
-11.5742
-29.7233
-47.4314
-62.3861
-72.2453
-77.2676
-78.5152
-77.9519
-77.1077
-76.4412
-75.895
-75.594
-76.0643
-77.9141
-81.865
-87.9169
-95.3088
-102.764
-108.134
-110.1
-108.316
-103.446
-97.3987
-91.3668
-85.7607
-80.6581
-76.0211
-71.7826
-67.8775
-64.257
-60.8994
-57.8088
-55.0133
-52.5989
-50.6617
-49.0397
-48.0203
-47.796
-48.4026
-49.9896
-52.7907
-57.0405
-62.7695
-69.6437
-76.6412
-82.8271
-88.1194
-92.6962
-96.5573
-99.6788
-101.918
-102.896
-102.446
-100.832
-98.5882
-96.1673
-93.4124
-89.444
-83.0565
-73.6233
-62.2123
-50.3693
-39.2605
-29.52
-21.3795
-14.8488
-9.72052
-5.94414
-2.7534
-1.18182
72.3367
75.2333
77.9195
80.5123
80.7537
79.205
78.6598
79.1663
80.1673
80.8324
80.0961
78.0554
76.8555
76.7231
77.8265
79.8494
82.0702
83.8954
85.2129
85.8441
85.3818
83.5879
80.2167
75.0623
67.9969
58.9881
48.1326
35.5694
21.4319
5.68497
-11.6682
-29.9277
-47.8672
-63.1433
-73.1214
-78.0792
-79.0552
-78.2146
-77.2178
-76.5123
-75.968
-75.628
-76.0747
-77.8687
-81.79
-87.8432
-95.2153
-102.732
-108.297
-110.391
-108.781
-103.962
-97.887
-91.8115
-86.1602
-81.0146
-76.3371
-72.0595
-68.1147
-64.451
-61.0454
-57.8997
-55.0394
-52.576
-50.6427
-48.9821
-48.0065
-47.8239
-48.4307
-49.9988
-52.7994
-57.1276
-63.0655
-70.28
-77.5298
-83.7539
-89.0089
-93.5608
-97.4118
-100.566
-102.859
-103.795
-103.164
-101.288
-98.8087
-96.2888
-93.6142
-89.8308
-83.5612
-74.0922
-62.566
-50.591
-39.3533
-29.4976
-21.2666
-14.6865
-9.55612
-5.82336
-2.75323
-1.09966
72.2995
75.1635
77.8146
80.3562
80.5554
79.0853
78.5653
79.0695
80.0522
80.6958
79.8954
77.8257
76.6684
76.5541
77.7166
79.825
82.1155
83.9667
85.2938
85.9224
85.3999
83.5228
80.0699
74.8571
67.766
58.7574
47.9244
35.4036
21.329
5.64734
-11.7119
-30.0795
-48.263
-63.9271
-74.0754
-78.991
-79.6664
-78.5118
-77.345
-76.5976
-76.0689
-75.7083
-76.135
-77.8727
-81.7383
-87.7694
-95.0953
-102.639
-108.376
-110.59
-109.158
-104.422
-98.3545
-92.2614
-86.5809
-81.4003
-76.686
-72.3705
-68.3852
-64.6765
-61.2204
-58.0149
-55.0804
-52.5653
-50.6423
-48.9733
-48.0659
-47.9024
-48.4761
-49.9964
-52.7824
-57.2033
-63.4073
-71.0515
-78.5889
-84.8122
-89.9844
-94.4783
-98.3002
-101.495
-103.866
-104.765
-103.93
-101.749
-98.9901
-96.3384
-93.7208
-90.0998
-83.9121
-74.3859
-62.7566
-50.6828
-39.3497
-29.4028
-21.0958
-14.4756
-9.3515
-5.67571
-2.74378
-1.03619
72.2537
75.079
77.6916
80.1856
80.3404
78.9562
78.4589
78.9594
79.921
80.541
79.6669
77.5693
76.4617
76.37
77.5998
79.7997
82.1609
84.0248
85.3559
85.9553
85.3568
83.3974
79.8723
74.6212
67.5246
58.5299
47.7268
35.2522
21.2464
5.64545
-11.6993
-30.1634
-48.5864
-64.6991
-75.0796
-79.9842
-80.3377
-78.836
-77.4846
-76.6917
-76.1931
-75.8382
-76.2315
-77.9342
-81.7208
-87.705
-94.9587
-102.495
-108.371
-110.701
-109.438
-104.81
-98.785
-92.703
-87.0116
-81.8069
-77.0615
-72.7109
-68.6861
-64.9322
-61.4251
-58.1552
-55.1369
-52.5683
-50.6527
-49.0355
-48.1977
-48.0201
-48.5298
-49.9841
-52.7575
-57.3008
-63.8388
-72.0019
-79.8362
-85.9855
-91.0134
-95.4126
-99.1902
-102.445
-104.937
-105.816
-104.758
-102.227
-99.1431
-96.3236
-93.7307
-90.2349
-84.0802
-74.4789
-62.7689
-50.6368
-39.2458
-29.234
-20.8665
-14.2159
-9.10638
-5.49842
-2.72576
-0.988728
72.198
74.9783
77.5526
79.9985
80.1133
78.8183
78.3416
78.8368
79.7748
80.3692
79.4124
77.2906
76.241
76.1767
77.4804
79.7737
82.1946
84.0572
85.3628
85.909
85.2468
83.2137
79.6358
74.3685
67.2815
58.3087
47.5382
35.1102
21.1753
5.66968
-11.634
-30.1728
-48.8105
-65.4154
-76.104
-81.0323
-81.0531
-79.1773
-77.6304
-76.7897
-76.3306
-76.0019
-76.3591
-78.0608
-81.7474
-87.6593
-94.8132
-102.307
-108.288
-110.732
-109.616
-105.115
-99.1672
-93.1258
-87.4433
-82.2268
-77.458
-73.0766
-69.0145
-65.2172
-61.6599
-58.3209
-55.2101
-52.587
-50.6713
-49.1809
-48.3891
-48.1658
-48.5956
-49.9906
-52.7719
-57.4721
-64.4141
-73.178
-81.2845
-87.2492
-92.0592
-96.3266
-100.051
-103.402
-106.076
-106.965
-105.673
-102.746
-99.2883
-96.2647
-93.6565
-90.2306
-84.0465
-74.3584
-62.6013
-50.4571
-39.0473
-28.997
-20.5842
-13.9114
-8.8237
-5.28883
-2.70467
-0.958447
72.1373
74.8592
77.3999
79.7935
79.8779
78.6722
78.2146
78.7029
79.6152
80.1822
79.1341
76.9955
76.0151
75.9848
77.3672
79.7483
82.198
84.0478
85.2758
85.801
85.0767
82.9828
79.3741
74.1068
67.0381
58.092
47.3553
34.9719
21.1066
5.70731
-11.5255
-30.1091
-48.9153
-66.0288
-77.1145
-82.0996
-81.7908
-79.5233
-77.7746
-76.8855
-76.4696
-76.1871
-76.5301
-78.2513
-81.8246
-87.6394
-94.6663
-102.083
-108.136
-110.689
-109.692
-105.331
-99.4944
-93.5224
-87.869
-82.6536
-77.8701
-73.4636
-69.3676
-65.5303
-61.9249
-58.5117
-55.3002
-52.6242
-50.722
-49.4024
-48.6232
-48.3383
-48.7036
-50.0655
-52.8715
-57.7586
-65.1764
-74.6086
-82.9163
-88.5472
-93.0613
-97.1641
-100.834
-104.331
-107.272
-108.217
-106.692
-103.325
-99.4472
-96.1873
-93.5244
-90.0946
-83.8071
-74.0277
-62.2665
-50.1597
-38.7695
-28.705
-20.26
-13.5711
-8.51122
-5.05436
-2.6761
-0.932174
72.0734
74.7222
77.237
79.5702
79.6373
78.5188
78.0795
78.5589
79.4438
79.982
78.8347
76.6928
75.8023
75.8248
77.2908
79.7242
82.153
83.9826
85.1595
85.6373
84.8565
82.7203
79.0972
73.8394
66.7949
57.88
47.1786
34.8369
21.0364
5.74895
-11.3834
-29.9753
-48.8863
-66.4909
-78.0673
-83.136
-82.523
-79.8587
-77.9079
-76.9734
-76.6023
-76.386
-76.7419
-78.4836
-81.9502
-87.6472
-94.5221
-101.834
-107.919
-110.577
-109.666
-105.457
-99.7634
-93.888
-88.2832
-83.0823
-78.2934
-73.8682
-69.7429
-65.8705
-62.22
-58.7291
-55.4093
-52.6702
-50.8488
-49.6801
-48.8867
-48.5553
-48.893
-50.2323
-53.0719
-58.1807
-66.1438
-76.2807
-84.6634
-89.7793
-93.9241
-97.8378
-101.466
-105.17
-108.471
-109.537
-107.808
-103.97
-99.6318
-96.1158
-93.362
-89.8399
-83.3723
-73.5073
-61.79
-49.768
-38.4323
-28.3759
-19.9114
-13.2098
-8.17447
-4.78989
-2.63384
-0.981366
71.9961
74.5673
77.0668
79.3292
79.3937
78.3591
77.9377
78.4066
79.2626
79.7707
78.5181
76.3981
75.6388
75.7503
77.2566
79.6939
82.0658
83.842
85.0064
85.4259
84.6031
82.4382
78.8103
73.5686
66.5541
57.676
47.0127
34.7097
20.9674
5.79189
-11.2134
-29.7718
-48.7133
-66.7464
-78.9169
-84.0819
-83.2186
-80.1671
-78.0205
-77.0465
-76.719
-76.5835
-76.9862
-78.7364
-82.1136
-87.6787
-94.3832
-101.567
-107.641
-110.4
-109.543
-105.497
-99.9745
-94.2203
-88.682
-83.5085
-78.7241
-74.2872
-70.138
-66.2367
-62.5446
-58.973
-55.5403
-52.7109
-51.0666
-49.9894
-49.1758
-48.8441
-49.1679
-50.4838
-53.3768
-58.7429
-67.3064
-78.14
-86.4117
-90.8111
-94.5326
-98.257
-101.878
-105.857
-109.607
-110.866
-108.984
-104.662
-99.8348
-96.0635
-93.1864
-89.4864
-82.7711
-72.8349
-61.2089
-49.3143
-38.0645
-28.0354
-19.5604
-12.848
-7.83714
-4.54021
-2.59654
-1.02626
71.9034
74.3959
76.8915
79.072
79.1485
78.1943
77.7909
78.2475
79.0738
79.5508
78.1897
76.1351
75.5578
75.764
77.2637
79.6635
81.9446
83.6717
84.8129
85.1773
84.3232
82.1415
78.5163
73.2966
66.3182
57.4838
46.8628
34.5967
20.9061
5.83937
-11.0173
-29.4976
-48.392
-66.7426
-79.6361
-84.88
-83.8459
-80.4316
-78.1023
-77.0978
-76.8117
-76.7684
-77.2498
-78.9851
-82.2942
-87.7259
-94.2529
-101.294
-107.303
-110.158
-109.33
-105.458
-100.131
-94.5189
-89.0631
-83.929
-79.1589
-74.7176
-70.5506
-66.6276
-62.8981
-59.2481
-55.6921
-52.7538
-51.3324
-50.292
-49.506
-49.2053
-49.5088
-50.8174
-53.7873
-59.4387
-68.6384
-80.1026
-88.0139
-91.5098
-94.8195
-98.4139
-102.104
-106.429
-110.687
-112.196
-110.197
-105.394
-100.053
-96.0303
-93.0022
-89.0453
-82.0444
-72.0606
-60.5648
-48.8296
-37.6908
-27.7093
-19.2415
-12.5257
-7.50968
-4.254
-2.53245
-1.2351
71.7928
74.2102
76.7114
78.801
78.9024
78.0256
77.6409
78.0835
78.8797
79.3248
77.8574
75.925
75.561
75.8252
77.3246
79.6349
81.8154
83.4827
84.5815
84.8921
84.015
81.8303
78.2169
73.0246
66.0887
57.3052
46.7324
34.5035
20.8598
5.89797
-10.7951
-29.152
-47.9286
-66.4568
-80.1915
-85.4675
-84.3705
-80.6347
-78.143
-77.1199
-76.875
-76.9286
-77.5016
-79.2042
-82.4703
-87.7818
-94.1365
-101.023
-106.904
-109.847
-109.034
-105.348
-100.238
-94.7847
-89.4251
-84.3415
-79.5954
-75.157
-70.9786
-67.0418
-63.2799
-59.5603
-55.8749
-52.8188
-51.5648
-50.5795
-49.8942
-49.6135
-49.9128
-51.2362
-54.3006
-60.2554
-70.0985
-82.0577
-89.3205
-91.8205
-94.8459
-98.4162
-102.246
-106.947
-111.69
-113.481
-111.419
-106.184
-100.332
-96.053
-92.8664
-88.5932
-81.273
-71.2465
-59.8979
-48.3457
-37.3463
-27.4365
-18.9829
-12.2505
-7.22507
-4.08813
-2.62016
-1.58395
71.6684
74.0121
76.5247
78.5199
78.6559
77.8542
77.4892
77.9164
78.6825
79.0956
77.5284
75.7771
75.6305
75.8947
77.3986
79.599
81.6752
83.2664
84.3193
84.5768
83.6793
81.4997
77.9098
72.7533
65.8653
57.1402
46.6236
34.4349
20.8365
5.97599
-10.5455
-28.7329
-47.3334
-65.8913
-80.5218
-85.7964
-84.7568
-80.7591
-78.1335
-77.1061
-76.9053
-77.0562
-77.7173
-79.3808
-82.6272
-87.8431
-94.0354
-100.755
-106.451
-109.463
-108.667
-105.181
-100.302
-95.0202
-89.7677
-84.7444
-80.0311
-75.6026
-71.4197
-67.4768
-63.6893
-59.9161
-56.1115
-52.9299
-51.7349
-50.9042
-50.3185
-50.0654
-50.3864
-51.7413
-54.9114
-61.1709
-71.6243
-83.881
-90.2375
-91.8126
-94.7565
-98.3637
-102.35
-107.331
-112.386
-114.483
-112.428
-106.898
-100.662
-96.1727
-92.7541
-88.0246
-80.3748
-70.329
-59.1722
-47.8506
-37.0271
-27.2255
-18.8519
-12.1824
-7.10792
-3.72548
-2.23171
-1.79883
71.535
73.8059
76.3286
78.2325
78.4094
77.6816
77.3376
77.7479
78.4844
78.8666
77.2033
75.7009
75.7172
75.9639
77.4518
79.5401
81.5162
83.0267
84.0309
84.238
83.3226
81.1506
77.5908
72.4813
65.6511
56.9896
46.5355
34.394
20.8432
6.08156
-10.2665
-28.2391
-46.6134
-65.0446
-80.5439
-85.9
-84.9946
-80.7929
-78.0671
-77.0515
-76.9006
-77.1488
-77.8875
-79.5169
-82.7598
-87.9063
-93.9431
-100.493
-105.978
-109.009
-108.245
-104.973
-100.331
-95.2279
-90.0909
-85.1366
-80.4647
-76.0531
-71.8726
-67.9316
-64.127
-60.3204
-56.4141
-53.0958
-51.8914
-51.2897
-50.7798
-50.5716
-50.9317
-52.3336
-55.6142
-62.1603
-73.146
-85.4556
-90.7384
-91.6322
-94.6647
-98.2892
-102.378
-107.467
-112.743
-115.093
-113.058
-107.41
-100.949
-96.2988
-92.4865
-87.0781
-79.0619
-69.1428
-58.305
-47.3086
-36.7599
-27.1777
-18.9342
-12.2556
-7.24094
-3.97208
-2.38451
-1.95987
71.3832
73.5956
76.1215
77.9419
78.1632
77.5089
77.1873
77.5796
78.2875
78.64
76.883
75.6898
75.7793
76.0439
77.4812
79.4638
81.339
82.7687
83.7202
83.8801
82.9509
80.7904
77.2636
72.207
65.4465
56.861
46.4733
34.3806
20.8828
6.21904
-9.95843
-27.6845
-45.7985
-63.9605
-80.089
-85.8124
-85.0738
-80.725
-77.9401
-76.9534
-76.8602
-77.2074
-78.0148
-79.6231
-82.8693
-87.9657
-93.8506
-100.255
-105.534
-108.491
-107.793
-104.738
-100.333
-95.4113
-90.3957
-85.5176
-80.8941
-76.505
-72.3328
-68.4013
-64.6007
-60.7863
-56.822
-53.447
-52.1305
-51.6691
-51.2947
-51.1461
-51.5469
-53
-56.3938
-63.1982
-74.6108
-86.6807
-90.8322
-91.4231
-94.5948
-98.1769
-102.258
-107.379
-112.975
-115.313
-113.22
-107.646
-101.129
-96.2509
-91.6928
-85.56
-77.3922
-67.7523
-57.3413
-46.7676
-36.5661
-27.211
-19.1413
-12.7296
-7.99097
-4.77098
-3.04937
-2.27581
71.2123
73.3836
75.9024
77.6507
77.918
77.3371
77.0396
77.4128
78.094
78.4158
76.5786
75.7255
75.7895
76.1248
77.492
79.3748
81.1453
82.4974
83.3935
83.5095
82.5696
80.4245
76.935
71.9357
65.2518
56.7577
46.4505
34.4097
20.9624
6.39139
-9.62252
-27.0872
-44.9129
-62.7164
-79.0851
-85.5292
-84.8869
-80.5216
-77.7469
-76.8114
-76.7852
-77.2352
-78.1092
-79.7082
-82.9579
-88.0183
-93.7764
-100.078
-105.16
-107.924
-107.339
-104.495
-100.321
-95.5827
-90.6965
-85.9062
-81.3434
-76.9872
-72.8316
-68.9255
-65.1616
-61.3459
-57.3601
-53.9902
-52.6083
-52.1856
-51.9112
-51.8237
-52.2631
-53.7509
-57.2239
-64.24
-75.9726
-87.5021
-90.6373
-91.225
-94.4773
-97.9773
-101.941
-107.032
-112.753
-115.094
-113.019
-107.396
-100.977
-95.6189
-90.282
-83.6949
-75.5771
-66.3114
-56.3717
-46.2242
-36.3582
-27.3039
-19.5604
-13.4303
-8.84494
-5.60508
-3.80068
-2.66379
71.0228
73.1715
75.6714
77.3603
77.6741
77.1671
76.8953
77.2484
77.9059
78.1916
76.3009
75.7965
75.7524
76.1915
77.4884
79.2725
80.9387
82.2177
83.058
83.1341
82.1862
80.0591
76.6101
71.6725
65.0722
56.6806
46.4716
34.5011
21.1123
6.62778
-9.23856
-26.4404
-43.9221
-61.3257
-77.6469
-85.1943
-84.3959
-80.1719
-77.4879
-76.628
-76.6781
-77.236
-78.1815
-79.7749
-83.0254
-88.0648
-93.7441
-99.9668
-104.878
-107.309
-106.904
-104.26
-100.314
-95.7655
-91.0223
-86.3384
-81.8539
-77.5434
-73.4186
-69.5643
-65.8493
-62.0342
-58.0995
-54.764
-53.2675
-52.847
-52.6343
-52.6008
-53.0771
-54.5938
-58.1076
-65.2453
-77.1577
-87.9785
-90.3348
-90.9808
-94.2425
-97.6187
-101.385
-106.299
-111.692
-113.87
-111.943
-106.483
-100.127
-94.3637
-88.5103
-81.7045
-73.7599
-64.8857
-55.3729
-45.6219
-36.1435
-27.4673
-20.0384
-14.1206
-9.62566
-6.35023
-4.47668
-3.01668
70.8246
72.9577
75.4296
77.0717
77.4321
76.9996
76.7549
77.0871
77.7255
77.9651
76.0552
75.9015
75.7037
76.2382
77.473
79.1581
80.7235
81.9342
82.7202
82.7607
81.808
79.7013
76.2952
71.4226
64.912
56.6329
46.5368
34.658
21.3498
6.95182
-8.78292
-25.7277
-42.8428
-59.8264
-75.9174
-84.8032
-83.7139
-79.7328
-77.1758
-76.408
-76.5406
-77.2117
-78.2366
-79.8231
-83.0763
-88.1141
-93.7194
-99.715
-104.615
-106.771
-106.455
-104.019
-100.316
-95.9749
-91.3935
-86.8352
-82.4422
-78.1854
-74.1043
-70.3113
-66.6307
-62.8269
-58.9738
-55.6622
-54.0883
-53.6465
-53.4642
-53.4731
-53.9797
-55.514
-59.0368
-66.1999
-78.104
-88.1753
-90.0022
-90.6655
-93.8701
-97.0884
-100.606
-105.211
-110.039
-111.912
-110.02
-104.83
-98.6614
-92.701
-86.5472
-79.6681
-71.9236
-63.3865
-54.2506
-44.894
-35.8235
-27.5418
-20.4518
-14.7586
-10.3281
-7.01013
-5.08091
-3.32367
70.6344
72.743
75.1786
76.7852
77.1926
76.8352
76.6189
76.9293
77.5541
77.7344
75.8395
76.0234
75.6772
76.2672
77.4464
79.0345
80.5039
81.651
82.3856
82.3949
81.4405
79.3571
75.9966
71.1919
64.7754
56.6169
46.6467
34.8821
21.6784
7.36998
-8.24482
-24.9346
-41.6981
-58.3123
-74.1037
-83.8986
-82.9349
-79.2431
-76.827
-76.1665
-76.3847
-77.1684
-78.2823
-79.8593
-83.1282
-88.1794
-93.7144
-99.4612
-104.196
-106.257
-105.99
-103.78
-100.335
-96.2178
-91.813
-87.3937
-83.0995
-78.9026
-74.8774
-71.1356
-67.4636
-63.6797
-59.8895
-56.64
-55.0492
-54.5713
-54.3954
-54.4324
-54.959
-56.4955
-59.9886
-67.0794
-78.7946
-88.1649
-89.6347
-90.2853
-93.3615
-96.3985
-99.6629
-103.884
-108.041
-109.564
-107.655
-102.749
-96.8079
-90.7609
-84.442
-77.5499
-69.9666
-61.6945
-52.8951
-43.9421
-35.3234
-27.4898
-20.7743
-15.3124
-10.9447
-7.60413
-5.63819
-3.5946
70.438
72.5274
74.9201
76.5008
76.9561
76.6743
76.4873
76.7754
77.3927
77.4992
75.6594
76.1266
75.6781
76.2833
77.4084
78.9045
80.2833
81.3716
82.0582
82.0408
81.088
79.031
75.719
70.9853
64.6671
56.6345
46.8007
35.1721
22.0989
7.88761
-7.60976
-24.0369
-40.4643
-56.7785
-72.171
-82.1028
-82.0576
-78.6732
-76.4713
-75.9077
-76.1914
-77.0831
-78.3139
-79.8623
-83.1479
-88.2188
-93.654
-99.202
-103.67
-105.713
-105.544
-103.57
-100.387
-96.4996
-92.2807
-88.0094
-83.8172
-79.6887
-75.7319
-72.0278
-68.3427
-64.5614
-60.8457
-57.7072
-56.1287
-55.6071
-55.4189
-55.4689
-56.0023
-57.5224
-60.9444
-67.8685
-79.2464
-87.9808
-89.2394
-89.8384
-92.7184
-95.5574
-98.5693
-102.397
-105.926
-107.069
-105.086
-100.428
-94.6797
-88.5978
-82.185
-75.2883
-67.819
-59.7782
-51.3343
-42.8395
-34.7203
-27.351
-21.0033
-15.7666
-11.4719
-8.13432
-6.14986
-3.83169
70.232
72.3094
74.6555
76.2186
76.7231
76.5171
76.3602
76.6255
77.241
77.2608
75.5272
76.1654
75.6891
76.289
77.3602
78.77
80.0645
81.0981
81.7409
81.7013
80.7535
78.7258
75.4655
70.8063
64.5902
56.6878
46.9979
35.5244
22.6055
8.50282
-6.86921
-23.0238
-39.1321
-55.1932
-70.1613
-79.8562
-80.8687
-77.9422
-76.049
-75.6485
-76.0208
-77.0254
-78.3374
-79.8246
-83.0971
-88.1766
-93.6195
-98.9707
-103.155
-105.186
-105.142
-103.403
-100.48
-96.8252
-92.7987
-88.6804
-84.5909
-80.542
-76.6652
-72.9854
-69.2719
-65.4911
-61.8729
-58.8633
-57.3079
-56.7384
-56.5235
-56.5716
-57.0969
-58.5797
-61.8895
-68.5594
-79.4828
-87.6607
-88.8086
-89.33
-91.9508
-94.5824
-97.3358
-100.753
-103.716
-104.484
-102.395
-97.9201
-92.3197
-86.2278
-79.7599
-72.87
-65.5226
-57.7475
-49.705
-41.696
-34.0731
-27.1459
-21.1427
-16.121
-11.908
-8.5932
-6.60423
-4.03213
70.0201
72.087
74.3865
75.9386
76.4942
76.364
76.2376
76.4799
77.0983
77.0218
75.4498
76.1138
75.6927
76.2846
77.3035
78.6332
79.849
80.832
81.4351
81.3776
80.4384
78.4434
75.238
70.6569
64.5468
56.7776
47.2375
35.9343
23.1885
9.20913
-6.01959
-21.8955
-37.7025
-53.5159
-68.0918
-77.5848
-79.4277
-77.0767
-75.4773
-75.2559
-75.7631
-76.8354
-78.1753
-79.8634
-83.2493
-88.2184
-93.5556
-98.6973
-102.682
-104.705
-104.796
-103.289
-100.622
-97.199
-93.3685
-89.4046
-85.4178
-81.4589
-77.6691
-74.0079
-70.2661
-66.5032
-62.985
-60.0989
-58.5685
-57.9498
-57.697
-57.7289
-58.2307
-59.6548
-62.8138
-69.1529
-79.5292
-87.2311
-88.3273
-88.7729
-91.0722
-93.4874
-95.9807
-98.9954
-101.435
-101.822
-99.6005
-95.2438
-89.7512
-83.6677
-77.1869
-70.3503
-63.1772
-55.7113
-48.0862
-40.5493
-33.393
-26.8769
-21.1948
-16.3779
-12.2525
-8.97511
-6.99069
-4.19386
69.8072
71.8584
74.1145
75.661
76.2695
76.2149
76.1192
76.3387
76.963
76.7852
75.4343
75.9794
75.6792
76.2692
77.2402
78.4954
79.638
80.5741
81.1416
81.0704
80.1431
78.1842
75.0372
70.538
64.5376
56.904
47.5182
36.3961
23.8356
9.99523
-5.06534
-20.6597
-36.187
-51.7423
-65.9295
-75.2367
-77.7498
-76.1246
-74.8429
-74.809
-75.4902
-76.6322
-78.0129
-79.9606
-83.4679
-88.3113
-93.5009
-98.4427
-102.262
-104.285
-104.516
-103.235
-100.816
-97.6235
-93.9901
-90.1791
-86.2964
-82.4359
-78.7349
-75.0979
-71.3443
-67.6097
-64.1824
-61.4029
-59.893
-59.226
-58.9269
-58.9298
-59.393
-60.7375
-63.7113
-69.6557
-79.409
-86.7089
-87.7835
-88.1894
-90.1044
-92.2871
-94.5156
-97.1468
-99.0891
-99.0802
-96.7132
-92.4234
-87.0106
-80.9599
-74.5195
-67.7977
-60.8483
-53.7123
-46.4946
-39.4011
-32.6779
-26.5435
-21.1616
-16.5406
-12.5083
-9.27867
-7.30402
-4.31681
69.6161
71.625
73.8405
75.3862
76.0496
76.0697
76.0049
76.2021
76.8331
76.5538
75.4817
75.7959
75.6499
76.2428
77.1715
78.3573
79.432
80.3248
80.8608
80.7797
79.8679
77.9483
74.8631
70.4497
64.5624
57.0665
47.8387
36.905
24.5353
10.8471
-4.02198
-19.337
-34.6001
-49.8682
-63.6753
-72.8408
-75.8818
-75.0448
-74.1239
-74.3139
-75.1927
-76.4443
-77.9387
-80.1487
-83.739
-88.4538
-93.4812
-98.2273
-101.903
-103.937
-104.307
-103.245
-101.067
-98.1004
-94.6628
-91.0019
-87.227
-83.4726
-79.8584
-76.2538
-72.5082
-68.8073
-65.4576
-62.7622
-61.2655
-60.5527
-60.2013
-60.164
-60.5745
-61.82
-64.5797
-70.0779
-79.142
-86.1014
-87.1754
-87.6002
-89.0721
-90.9986
-92.9684
-95.2338
-96.6854
-96.2808
-93.7593
-89.4988
-84.1501
-78.159
-71.8097
-65.2539
-58.5595
-51.7562
-44.9272
-38.248
-31.9273
-26.1481
-21.0472
-16.614
-12.6799
-9.50542
-7.54313
-4.40228
69.4177
71.3868
73.5654
75.1143
75.8346
75.9284
75.8943
76.0705
76.7062
76.3298
75.5866
75.6039
75.6111
76.2061
77.0986
78.2193
79.2313
80.0843
80.5927
80.5054
79.6122
77.7353
74.7154
70.3916
64.6207
57.2644
48.1983
37.4571
25.2795
11.7531
-2.90855
-17.9548
-32.9709
-47.9278
-61.3424
-70.4129
-73.9337
-73.8321
-73.3093
-73.732
-74.7978
-76.2051
-77.912
-80.3804
-84.0349
-88.6252
-93.4907
-98.0553
-101.612
-103.667
-104.175
-103.322
-101.377
-98.6315
-95.3868
-91.8727
-88.2117
-84.5691
-81.0394
-77.473
-73.7512
-70.088
-66.7997
-64.1643
-62.6712
-61.9166
-61.5093
-61.4225
-61.7677
-62.8971
-65.4193
-70.4323
-78.7469
-85.4077
-86.5159
-87.0049
-87.9992
-89.6364
-91.3706
-93.272
-94.2385
-93.4555
-90.771
-86.5116
-81.2174
-75.3088
-69.0905
-62.7369
-56.3144
-49.8389
-43.3797
-37.0891
-31.1437
-25.6952
-20.8574
-16.6043
-12.7728
-9.6585
-7.7092
-4.45239
69.2046
71.1424
73.2896
74.8458
75.6246
75.7909
75.7873
75.9439
76.5795
76.1138
75.7404
75.4364
75.5691
76.1611
77.0226
78.0818
79.0362
79.8527
80.3371
80.2472
79.3758
77.5446
74.5934
70.3628
64.7113
57.4968
48.5958
38.0501
26.0639
12.707
-1.73906
-16.5327
-31.3197
-45.9618
-58.9816
-67.9626
-71.9363
-72.5006
-72.4096
-73.0739
-74.3231
-75.9207
-77.8877
-80.6028
-84.3217
-88.809
-93.526
-97.9311
-101.393
-103.477
-104.12
-103.468
-101.747
-99.2186
-96.1626
-92.793
-89.2523
-85.7251
-82.2784
-78.7543
-75.0665
-71.4412
-68.197
-65.5972
-64.0975
-63.3059
-62.8412
-62.6976
-62.967
-63.9655
-66.2322
-70.733
-78.2449
-84.6172
-85.8249
-86.3685
-86.9133
-88.2237
-89.7528
-91.2652
-91.7561
-90.6175
-87.7659
-83.4868
-78.2421
-72.435
-66.3793
-60.2539
-54.1119
-47.9571
-41.8506
-35.9257
-30.3303
-25.1896
-20.5982
-16.5183
-12.7931
-9.74212
-7.8048
-4.46976
68.9823
70.8916
73.0137
74.581
75.4196
75.6571
75.6836
75.8225
76.4504
75.9014
75.9186
75.3113
75.527
76.1094
76.9441
77.9453
78.8468
79.63
80.094
80.0046
79.1581
77.3756
74.4963
70.3625
64.8333
57.7628
49.0304
38.6818
26.8861
13.7056
-0.521433
-15.0804
-29.6548
-43.9911
-56.6409
-65.5362
-69.909
-71.0715
-71.429
-72.3513
-73.8006
-75.6169
-77.8526
-80.7971
-84.5847
-88.9958
-93.5861
-97.8576
-101.247
-103.368
-104.143
-103.683
-102.179
-99.863
-96.9914
-93.7658
-90.3509
-86.9399
-83.5735
-80.0945
-76.4459
-72.8553
-69.6378
-67.0504
-65.5339
-64.7112
-64.1892
-63.9835
-64.1682
-65.0238
-67.0219
-70.9953
-77.6623
-83.7085
-85.1079
-85.6401
-85.8522
-86.8145
-88.1339
-89.2163
-89.2405
-87.7667
-84.746
-80.4333
-75.2388
-69.5533
-63.6878
-57.8099
-51.9521
-46.11
-40.3401
-34.759
-29.49
-24.6361
-20.2758
-16.3626
-12.7468
-9.76121
-7.83386
-4.45733
68.752
70.6354
72.738
74.32
75.2196
75.5267
75.5829
75.7063
76.3171
75.6936
76.084
75.2241
75.4843
76.0526
76.8631
77.8099
78.6633
79.416
79.8629
79.7773
78.9584
77.2274
74.4233
70.3896
64.9855
58.0614
49.5011
39.3504
27.7448
14.7472
0.739262
-13.6034
-27.9804
-42.0267
-54.3416
-63.1682
-67.8925
-69.5811
-70.3798
-71.5734
-73.2432
-75.2996
-77.8007
-80.9571
-84.8188
-89.181
-93.6702
-97.8343
-101.172
-103.336
-104.241
-103.968
-102.674
-100.566
-97.875
-94.7946
-91.5092
-88.2126
-84.9225
-81.4895
-77.8811
-74.3194
-71.1114
-68.5158
-66.9733
-66.1255
-65.5477
-65.2761
-65.3688
-66.0719
-67.7929
-71.2347
-77.0313
-82.6574
-84.3291
-84.7954
-84.8462
-85.4881
-86.5226
-87.1352
-86.7008
-84.9018
-81.7084
-77.3549
-72.2189
-66.6783
-61.0285
-55.4112
-49.837
-44.2978
-38.8483
-33.5898
-28.6248
-24.0383
-19.8956
-16.1436
-12.6394
-9.72122
-7.80246
-4.41838
68.5321
70.3749
72.463
74.063
75.0244
75.3996
75.4851
75.5953
76.1785
75.5059
76.1888
75.1541
75.4388
75.9916
76.7793
77.6757
78.486
79.2106
79.6435
79.5645
78.7759
77.0993
74.3733
70.443
65.1667
58.3917
50.0069
40.0546
28.6389
15.8302
2.03989
-12.1019
-26.2958
-40.0747
-52.0954
-60.8713
-65.9085
-68.0577
-69.2784
-70.7525
-72.6588
-74.9676
-77.7272
-81.0818
-85.0247
-89.3633
-93.7768
-97.858
-101.162
-103.379
-104.414
-104.323
-103.233
-101.327
-98.8154
-95.8828
-92.7288
-89.5426
-86.3237
-82.936
-79.3657
-75.8246
-72.61
-69.9893
-68.4122
-67.5444
-66.9132
-66.5731
-66.5677
-67.1109
-68.5501
-71.4666
-76.3888
-81.4602
-83.4009
-83.8419
-83.8753
-84.2648
-84.9084
-85.0269
-84.1432
-82.022
-78.652
-74.2586
-69.1979
-63.8289
-58.4155
-53.0646
-47.7681
-42.5203
-37.374
-32.4176
-27.7361
-23.3996
-19.4624
-15.8668
-12.4764
-9.62789
-7.71963
-4.3566
68.3012
70.111
72.189
73.8101
74.8339
75.2757
75.3899
75.4894
76.0342
75.3528
76.1953
75.0816
75.388
75.9269
76.6926
77.5434
78.3147
79.0134
79.4352
79.3657
78.61
76.9904
74.3454
70.5216
65.3756
58.7526
50.5465
40.7931
29.5682
16.9535
3.37768
-10.5762
-24.598
-38.1334
-49.9028
-58.6479
-63.9666
-66.5217
-68.1392
-69.8986
-72.0532
-74.6195
-77.6299
-81.1738
-85.2058
-89.5427
-93.9039
-97.9256
-101.216
-103.494
-104.661
-104.747
-103.856
-102.149
-99.8149
-97.0326
-94.0107
-90.929
-87.7759
-84.4312
-80.8942
-77.3641
-74.1292
-71.4702
-69.8508
-68.9663
-68.2841
-67.8735
-67.7647
-68.1421
-69.2985
-71.7045
-75.7732
-80.1574
-82.2343
-82.753
-82.8496
-83.0432
-83.2405
-82.8755
-81.5562
-79.1178
-75.5758
-71.1572
-66.1986
-61.0274
-55.863
-50.7751
-45.7459
-40.7754
-35.9149
-31.2408
-26.8238
-22.7218
-18.9799
-15.537
-12.2617
-9.48688
-7.59726
-4.27594
68.0538
69.8444
71.9162
73.5612
74.6477
75.1549
75.2976
75.3885
75.8845
75.2413
76.0913
74.9968
75.3303
75.8591
76.6034
77.4131
78.1491
78.824
79.2374
79.18
78.4597
76.8996
74.3385
70.6241
65.611
59.143
51.1188
41.5645
30.5319
18.1159
4.75073
-9.02608
-22.8852
-36.2007
-47.7595
-56.493
-62.0662
-64.9807
-66.9733
-69.0186
-71.4291
-74.2539
-77.5084
-81.2368
-85.3659
-89.72
-94.0503
-98.035
-101.329
-103.679
-104.98
-105.24
-104.544
-103.032
-100.875
-98.246
-95.3553
-92.3714
-89.2775
-85.9716
-82.4614
-78.9334
-75.6677
-72.9612
-71.2927
-70.3917
-69.6603
-69.1769
-68.9598
-69.1669
-70.0424
-71.9595
-75.2187
-78.831
-80.8258
-81.4511
-81.6289
-81.6582
-81.4395
-80.6321
-78.9049
-76.1718
-72.484
-68.0732
-63.2495
-58.2957
-53.3805
-48.5441
-43.7681
-39.0595
-34.4668
-30.0564
-25.8866
-22.0055