/*--------------------------------*- C++ -*----------------------------------*\
| =========                 |                                                 |
| \\      /  F ield         | OpenFOAM: The Open Source CFD Toolbox           |
|  \\    /   O peration     | Version:  4.1                                   |
|   \\  /    A nd           | Web:      www.OpenFOAM.org                      |
|    \\/     M anipulation  |                                                 |
\*---------------------------------------------------------------------------*/
FoamFile
{
    version     2.0;
    format      ascii;
    class       surfaceScalarField;
    location    "900";
    object      phi;
}
// * * * * * * * * * * * * * * * * * * * * * * * * * * * * * * * * * * * * * //

dimensions      [0 3 -1 0 0 0 0];

internalField   nonuniform List<scalar> 
52920
(
563.618
63.8072
492.773
70.8435
390.659
102.11
179.519
211.135
-70.3767
249.885
-215.47
145.084
-230.657
15.1728
-175.193
-55.4742
-56.5161
-118.688
143.8
-200.326
364.095
-220.303
532.02
-167.932
644.915
-112.901
699.255
-54.3464
710.34
-11.0913
706.499
3.83392
713.636
-7.14423
747.509
-33.8787
826.907
-79.4036
968.132
-141.23
1173.08
-204.948
1436.44
-263.369
1749.6
-313.165
2102.78
-353.176
2486.11
-383.336
2889.96
-403.855
3305.75
-415.791
3726.62
-420.874
4147.28
-420.66
4559.32
-412.038
4946.55
-387.228
5283.65
-337.108
5534.99
-251.335
5673.19
-138.201
5701.14
-27.9506
5642.88
58.258
5542.49
100.39
5441.33
101.153
5364.36
76.9734
5331.41
32.9423
5369.8
-38.3869
5512.49
-142.69
5784.72
-272.238
6186.89
-402.167
6679.94
-493.048
7189.88
-509.943
7622.69
-432.807
7888.93
-266.25
7939.3
-50.3645
7776.38
162.917
7461.69
314.69
7075.99
385.696
6675.31
400.681
6288.22
387.095
5926.65
361.565
5594.27
332.376
5291.13
303.141
5015.99
275.141
4767.52
248.467
4545.06
222.462
4348.89
196.171
4180.18
168.712
4041.64
138.535
3939.88
101.764
3889.4
50.4789
3915.95
-26.5539
4038.55
-122.594
4260.48
-221.929
4577.52
-317.044
4981.23
-403.711
5457.66
-476.426
5986.84
-529.178
6544.28
-557.445
7102.66
-558.38
7638.33
-535.672
8138.44
-500.109
8601.16
-462.722
9033.31
-432.142
9448.22
-414.919
9860.56
-412.333
10279.9
-419.39
10710.3
-430.356
11152
-441.674
11599.9
-447.957
12034.6
-434.681
12410.9
-376.288
12659.9
-248.984
12712.4
-52.5004
12539.2
173.216
12175.1
364.073
11687.2
487.909
11141.2
546.017
10586.2
554.968
10053.5
532.71
9560.54
492.958
9115.38
445.156
8719.65
395.73
8375.22
344.427
8061.01
314.211
228.052
565.406
126.564
496.645
139.602
391.345
207.406
169.338
433.137
-77.9136
497.13
-205.387
272.548
-230.96
40.7307
-171.291
-115.152
-42.5326
-247.456
155.596
-398.463
374.195
-438.909
546.052
-339.795
664.783
-231.639
728.163
-117.733
751.876
-34.8109
764.828
-9.12621
793.164
-35.4865
852.88
-93.6007
961.116
-187.645
1129.4
-309.523
1355.8
-431.344
1633.67
-541.242
1955.51
-635.01
2313.99
-711.664
2701.28
-770.625
3108.29
-810.866
3525.78
-833.281
3945.79
-840.884
4361.93
-836.806
4765.35
-815.453
5140.38
-762.262
5463.62
-660.355
5703.37
-491.083
5834.69
-269.522
5856.77
-50.0341
5791.97
123.056
5686.85
205.508
5582.31
205.698
5497.83
161.448
5442.19
88.581
5432.39
-28.582
5497.52
-207.823
5666.24
-440.96
5951.37
-687.296
6334.36
-876.045
6767.38
-942.967
7179.31
-844.731
7481.59
-568.534
7594.83
-163.605
7487.2
270.547
7208.97
592.916
6846.19
748.478
6461.52
785.35
6087.23
761.383
5736.81
711.983
5414.47
654.724
5120.41
597.197
4853.49
542.059
4612.45
489.511
4396.62
438.283
4206.34
386.456
4043.18
331.868
3910.61
271.112
3813.78
198.594
3761.28
102.978
3773.85
-39.1267
3875.64
-224.381
4085.7
-431.994
4410.95
-642.29
4837.35
-830.119
5335.93
-975.006
5874.82
-1068.06
6424.91
-1107.54
6959.15
-1092.61
7457.06
-1033.59
7911.41
-954.455
8327.61
-878.921
8719.86
-824.392
9106.29
-801.356
9500.41
-806.45
9904.04
-823.017
10309.9
-836.22
10708.7
-840.435
11092.3
-831.586
11450.6
-793.031
11762
-687.642
11983.4
-470.391
12052
-121.07
11919.9
305.33
11601.6
682.344
11154.8
934.722
10643.8
1057.01
10119.3
1079.45
9614.24
1037.77
9147.17
960.022
8726.77
865.557
8354.79
767.716
8033
666.217
7743.06
604.15
438.361
564.679
188.682
497.279
207.001
377.718
326.964
138.213
672.639
-93.5482
728.886
-202.182
381.176
-232.04
70.5742
-167.519
-179.681
-33.603
-381.377
163.984
-596.055
382.746
-657.675
558.507
-515.56
681.988
-355.124
752.219
-187.97
785.977
-68.575
812.388
-35.5432
855.975
-79.0791
929.656
-167.287
1046.96
-304.951
1216.54
-479.107
1436.02
-650.824
1702.1
-807.326
2013.51
-946.42
2367.47
-1065.63
2755.92
-1159.08
3166.12
-1221.06
3584.83
-1252
4001.65
-1257.7
4409.46
-1244.62
4800.19
-1206.18
5160.01
-1122.09
5468.25
-968.598
5696.19
-719.018
5819.68
-393.011
5835.72
-66.0759
5763.79
194.982
5649.07
320.225
5529.97
324.794
5421.22
270.204
5324
185.793
5246.84
48.5835
5218.24
-179.225
5276.8
-499.525
5448.81
-859.306
5726.99
-1154.23
6076.18
-1292.16
6446.33
-1214.88
6770.6
-892.803
6965
-358.005
6956.87
278.675
6759.82
789.962
6455.4
1052.9
6112.54
1128.21
5769.21
1104.71
5442.59
1038.61
5139.1
958.215
4860.36
875.938
4606.14
796.28
4375.81
719.836
4169.14
644.953
3986.74
568.859
3830.87
487.733
3705.69
396.292
3613.32
290.964
3553.3
163
3547.5
-33.3281
3643.46
-320.338
3879.01
-667.542
4246.32
-1009.61
4701.29
-1285.08
5200.23
-1473.95
5714.53
-1582.36
6224.66
-1617.68
6712.29
-1580.25
7165
-1486.3
7583.08
-1372.54
7975.87
-1271.7
8354.96
-1203.49
8729.43
-1175.83
9100.33
-1177.34
9459.17
-1181.85
9795.09
-1172.14
10102
-1147.4
10380
-1109.5
10630.8
-1043.91
10851.3
-908.072
11020.6
-639.716
11088.2
-188.674
10994.7
398.816
10733.6
943.452
10347.3
1321.01
9893.41
1510.91
9420.85
1552.02
8962.82
1495.79
8538.71
1384.14
8157.96
1246.3
7822.98
1102.7
7535.33
953.868
7280.01
859.471
623.699
562.446
250.094
494.256
275.19
351.072
470.146
97.6806
926.027
-109.235
935.797
-201.699
473.633
-232.039
100.9
-165.369
-246.358
-29.8082
-516.943
166.873
-792.742
385.053
-875.859
562.261
-692.772
687.426
-480.295
759.986
-260.535
797.422
-106.018
828.762
-66.8911
876.617
-126.939
950.967
-241.642
1063.25
-417.241
1220.12
-635.973
1420.94
-851.647
1672.19
-1058.58
1981.54
-1255.77
2344.86
-1428.95
2745.44
-1559.66
3162.75
-1638.38
3580.32
-1669.56
3988.23
-1665.61
4381.75
-1638.14
4755.77
-1580.2
5099.3
-1465.62
5394.4
-1263.7
5614.49
-939.11
5733.79
-512.313
5744.06
-76.3497
5661.41
277.63
5533.4
448.233
5399.97
458.223
5274.48
395.691
5152.56
307.714
5030.35
170.795
4930.44
-79.3222
4901.41
-470.489
4984.18
-942.076
5179.17
-1349.22
5453.87
-1566.86
5768.17
-1529.19
6074.37
-1199
6302.37
-586.012
6363.26
217.791
6236.11
917.111
5990.42
1298.58
5694.65
1423.98
5388.59
1410.77
5091.41
1335.79
4811.3
1238.33
4551.32
1135.92
4312.4
1035.21
4094.78
937.451
3898.83
840.903
3725.61
742.08
3578.28
635.06
3461.24
513.331
3371.46
380.742
3300.5
233.969
3287.84
-20.6704
3411.33
-443.834
3695.63
-951.843
4089.53
-1403.51
4531.4
-1726.95
4990.81
-1933.36
5457.72
-2049.27
5925.13
-2085.08
6381.13
-2036.25
6816.35
-1921.52
7229.9
-1786.09
7622.99
-1664.79
7994.39
-1574.89
8341.69
-1523.13
8660.49
-1496.14
8943.77
-1465.14
9187.6
-1415.97
9395.23
-1355.03
9575.36
-1289.63
9737.32
-1205.87
9884.9
-1055.65
10006.2
-760.999
10057.9
-240.432
9979.4
477.359
9756.57
1166.28
9422.21
1655.37
9025.71
1907.41
8610.71
1967.01
8207.68
1898.83
7834.99
1756.83
7501.99
1579.3
7211.61
1393.08
6964.61
1200.87
6748.74
1075.34
780.58
559.657
310.333
487.851
346.994
316.045
641.949
56.7314
1185.34
-121.018
1113.54
-202.506
555.116
-231.675
130.057
-164.534
-313.504
-29.4799
-652.001
165.112
-987.337
381.193
-1091.94
557.253
-868.836
681.072
-604.117
751.965
-331.433
787.821
-141.879
817.576
-96.652
862.293
-171.662
929.768
-309.121
1028.07
-515.544
1161.33
-769.242
1339.96
-1030.28
1587.89
-1306.51
1912.46
-1580.35
2293.67
-1810.16
2701.85
-1967.85
3113.66
-2050.19
3516.19
-2072.09
3904.49
-2053.91
4277.99
-2011.65
4634.67
-1936.88
4965.41
-1796.36
5253.62
-1551.91
5473.4
-1158.89
5595.33
-634.25
5604.91
-85.9286
5514.38
368.164
5375.01
587.598
5230.1
603.133
5093.3
532.489
4957.22
443.795
4807.76
320.256
4655.03
73.4039
4552.71
-368.176
4560.65
-950.017
4687.55
-1476.12
4899.18
-1778.49
5158.25
-1788.26
5430.62
-1471.37
5664.59
-819.988
5769.05
113.332
5694.55
991.614
5498.46
1494.67
5246.25
1676.19
4976.97
1680.04
4710.09
1602.67
4454.65
1493.76
4214.78
1375.78
3992.43
1257.56
3788.71
1141.17
3604.54
1025.08
3441.54
905.082
3303.88
772.721
3194.9
622.311
3104.85
470.79
3023.81
315.007
3024.96
-21.8166
3195.74
-614.619
3511.37
-1267.47
3889.13
-1781.27
4284.05
-2121.86
4692.16
-2341.47
5118.62
-2475.73
5563.58
-2530.04
6015.51
-2488.18
6459.19
-2365.19
6883.09
-2209.99
7274.96
-2056.67
7623.12
-1923.04
7922.29
-1822.3
8171.86
-1745.72
8371.25
-1664.52
8523.89
-1568.61
8640.64
-1471.78
8737.21
-1386.19
8828.22
-1296.88
8920.42
-1147.85
9003.51
-844.094
9035.32
-272.241
8955.93
556.748
8753.12
1369.1
8457.18
1951.31
8111.15
2253.45
7751.97
2326.2
7405.31
2245.49
7087.06
2075.07
6805.47
1860.9
6563.51
1635.04
6360.59
1403.79
6185.91
1250.02
908.42
555.696
368.625
477.344
425.345
276.43
842.861
19.7257
1442.04
-128.758
1262.02
-203.923
630.276
-231.132
157.251
-164.62
-380.022
-31.6872
-784.938
159.51
-1178.54
371.896
-1304.33
544.42
-1041.36
664.061
-723.762
729.69
-397.068
759.415
-171.61
782.249
-119.493
818.655
-208.074
872.942
-363.414
944.61
-587.217
1044.16
-868.792
1210.85
-1196.97
1476.65
-1572.32
1823.26
-1926.96
2208.42
-2195.32
2600.74
-2360.17
2985.96
-2435.41
3360.22
-2446.35
3724.11
-2417.8
4079.7
-2367.24
4426.05
-2283.24
4753.99
-2124.3
5046.6
-1844.53
5277.18
-1389.47
5411.02
-768.086
5426.54
-101.452
5331.98
462.724
5183.86
735.714
5030.22
756.774
4885.68
677.028
4742.06
587.413
4581.6
480.718
4397.81
257.193
4238.83
-209.198
4184.8
-895.996
4254.42
-1545.74
4411.5
-1935.57
4618.69
-1995.46
4849.96
-1702.64
5070.79
-1040.81
5197.96
-13.8449
5159.95
1029.63
5002.97
1651.65
4788.3
1890.86
4552.66
1915.68
4314.62
1840.71
4083.38
1725.01
3863.7
1595.46
3658.36
1462.9
3469.15
1330.37
3297.41
1196.82
3145.45
1057.05
3018.16
900.004
2916.1
724.369
2823.61
563.28
2738.91
399.713
2773.4
-56.3117
2988.74
-829.955
3303.12
-1581.86
3636.67
-2114.81
3977.29
-2462.49
4341.79
-2705.97
4744.7
-2878.65
5190.32
-2975.65
5659.71
-2957.57
6121.96
-2827.44
6551.01
-2639.05
6925.51
-2431.16
7232.07
-2229.61
7470.21
-2060.44
7645.95
-1921.45
7763.52
-1782.09
7830.8
-1635.9
7864.45
-1505.42
7887.28
-1409.02
7920.07
-1329.68
7971.54
-1199.32
8028.05
-900.603
8041.51
-285.702
7952.33
645.923
7756.66
1564.77
7488.18
2219.79
7185.52
2556.11
6878.47
2633.24
6586.85
2537.11
6323.19
2338.73
6093.93
2090.16
5901.75
1827.22
5744.43
1561.11
5610.86
1383.59
1008.43
552.051
425.582
462.709
514.686
235.196
1070.37
-11.6343
1688.87
-133.947
1384.33
-205.484
701.809
-230.378
182.134
-165.295
-445.109
-35.7903
-914.446
150.8
-1365.13
358.02
-1511.55
524.867
-1208.21
637.698
-836.596
694.726
-454.1
714.058
-190.948
725.316
-130.758
749.346
-232.11
778.623
-392.696
803.97
-612.568
873.222
-938.048
1056.46
-1380.21
1351.48
-1867.34
1699.16
-2274.64
2054.58
-2550.74
2403.45
-2709.04
2746.74
-2778.7
3088.23
-2787.84
3430.67
-2760.25
3776.14
-2712.71
4123.07
-2630.17
4460.98
-2462.21
4771.58
-2155.14
5026.43
-1644.32
5184.06
-925.708
5214.42
-131.819
5120.86
556.285
4966.84
889.731
4806.99
916.625
4657.78
826.231
4511.45
733.746
4349.19
642.974
4153.38
453
3956.96
-12.7791
3851.23
-790.263
3870.05
-1564.56
3978.28
-2043.8
4138.61
-2155.79
4329.32
-1893.35
4526.99
-1238.49
4660.26
-147.108
4643.92
1045.96
4515.93
1779.64
4332.43
2074.36
4126.53
2121.58
3915.02
2052.22
3706.67
1933.35
3506.62
1795.52
3318.22
1651.29
3143.73
1504.87
2984.74
1355.8
2844.32
1197.47
2727.45
1016.88
2630.47
821.348
2535.44
658.309
2458.25
476.9
2538.92
-136.979
2781.66
-1072.7
3065.89
-1866.09
3340.35
-2389.27
3624.41
-2746.55
3951.11
-3032.66
4345.38
-3272.92
4811.52
-3441.8
5310.96
-3457.01
5789.66
-3306.14
6211.29
-3060.67
6554.95
-2774.83
6813.07
-2487.73
6992.17
-2239.53
7102.57
-2031.85
7148.34
-1827.87
7137.64
-1625.19
7091.47
-1459.26
7041.64
-1359.19
7018.78
-1306.82
7035.99
-1216.52
7074.56
-939.175
7074.22
-285.36
6972.74
747.395
6777.98
1759.53
6530.89
2466.89
6266.99
2820
6008.85
2891.39
5770.08
2775.88
5559.72
2549.08
5382.05
2267.83
5239.38
1969.89
5128.25
1672.24
5034.78
1477.06
1082.97
548.344
481.387
443.646
619.382
194.389
1319.63
-36.85
1920.11
-137.888
1485.36
-206.811
770.727
-229.302
204.611
-166.266
-508.15
-41.2571
-1039.46
139.689
-1546.08
340.442
-1712.31
499.627
-1367.4
603.043
-940.016
648.142
-499.205
652.74
-195.553
648.363
-126.39
651.768
-235.522
628.141
-369.075
594.392
-578.824
670.867
-1014.53
899.154
-1608.5
1201.89
-2170.08
1509.8
-2582.56
1805.39
-2846.33
2097.47
-3001.12
2396.8
-3078.03
2708.6
-3099.64
3034.56
-3086.2
3375.93
-3054.08
3730.89
-2985.12
4088.06
-2819.38
4427.58
-2494.66
4718.84
-1935.59
4912.96
-1119.83
4969.5
-188.357
4884.38
641.4
4728.67
1045.43
4565.8
1079.5
4414.99
977.042
4268.9
879.835
4108.78
803.085
3915.37
646.415
3700.3
202.286
3551.27
-641.238
3523.75
-1537.04
3587.23
-2107.27
3705.2
-2273.76
3858.31
-2046.47
4029.29
-1409.48
4157.49
-275.3
4150.99
1052.46
4043.34
1887.28
3885.25
2232.46
3705.27
2301.56
3517.75
2239.73
3330.73
2120.38
3149.44
1976.81
2977.63
1823.1
2817.74
1664.75
2671.56
1501.98
2542.84
1326.19
2435.64
1124.08
2341.79
915.202
2246.33
753.768
2191.09
532.139
2321.82
-267.712
2564.87
-1315.75
2789.59
-2090.8
2986.84
-2586.52
3208.03
-2967.75
3507.07
-3331.7
3917.26
-3683.12
4428.21
-3952.75
4966.93
-3995.74
5456.47
-3795.68
5861.47
-3465.66
6171.15
-3084.51
6387.41
-2703.99
6522.76
-2374.88
6587.47
-2096.57
6579.06
-1819.45
6500.59
-1546.72
6374.96
-1333.63
6244.77
-1229
6155.77
-1217.82
6130.91
-1191.66
6148.58
-956.842
6132.71
-269.492
6016.5
863.609
5820.17
1955.86
5592.43
2694.63
5365.26
3047.17
5153.67
3102.98
4965.32
2964.23
4806.07
2708.33
4678.23
2395.67
4583.58
2064.55
4519.02
1736.8
4464.96
1531.12
1134.54
543.833
536.906
419.797
743.418
155.11
1584.31
-56.1316
2131.35
-141.286
1570.52
-207.602
837.039
-227.763
224.763
-167.264
-568.652
-47.6091
-1159.12
126.854
-1720.55
319.987
-1905.44
469.414
-1516.83
560.254
-1030.86
589.419
-528.374
574.22
-180.36
547.371
-99.5492
500.055
-188.213
385.491
-254.521
334.013
-527.352
483.067
-1163.58
743.839
-1869.28
1007.72
-2433.96
1248.04
-2822.88
1479.99
-3078.28
1723
-3244.14
1986.59
-3341.62
2272.48
-3385.54
2581.18
-3394.9
2915.41
-3388.32
3275.88
-3345.6
3652.32
-3195.82
4023.59
-2865.93
4356.82
-2268.82
4596.63
-1359.64
4690.46
-282.186
4623.23
708.63
4471.81
1196.86
4310.04
1241.27
4160.76
1126.32
4017.7
1022.89
3864.68
956.104
3684.02
827.079
3463.98
422.318
3278.73
-455.984
3209.49
-1467.81
3232.27
-2130.05
3311.65
-2353.14
3429.39
-2164.21
3572.2
-1552.28
3687.59
-390.698
3682.02
1058.03
3587.95
1981.35
3450.52
2369.89
3293.06
2459.02
3127.14
2405.66
2959.82
2287.69
2796.31
2140.31
2640.55
1978.86
2494.92
1810.38
2361.37
1635.53
2244.14
1443.42
2145.12
1223.1
2052.85
1007.47
1960.59
846.028
1942.87
549.861
2114.63
-439.467
2317.07
-1518.19
2445.2
-2218.94
2549.04
-2690.35
2720.94
-3139.65
3029.82
-3640.58
3494.21
-4147.5
4068.37
-4526.91
4642.26
-4569.63
5128.38
-4281.8
5506.18
-3843.46
5781.55
-3359.88
5966.67
-2889.12
6078.12
-2486.32
6122.24
-2140.69
6083.92
-1781.13
5955.16
-1417.96
5756
-1134.48
5539.14
-1012.13
5369.44
-1048.12
5285.7
-1107.92
5267.68
-938.825
5223.33
-225.138
5084.79
1002.15
4884.97
2155.68
4676.89
2902.71
4486.01
3238.05
4319.1
3269.88
4178.43
3104.9
4067.23
2819.54
3987.01
2475.88
3937.78
2113.78
3919.51
1755.08
3906.86
1543.77
1163.1
537.827
593.693
391.193
890.05
118.119
1857.39
-70.0285
2319.49
-144.394
1644.88
-207.632
900.272
-225.614
242.733
-168.041
-626.23
-54.404
-1272.76
112.933
-1887.89
297.335
-2089.85
434.073
-1653.57
506.651
-1103.44
512.384
-534.113
467.194
-135.179
390.859
-23.2275
223.552
-20.923
51.3818
-82.371
110.659
-586.637
342.199
-1395.13
574.574
-2101.65
772.351
-2631.74
953.437
-3003.97
1143.15
-3267.99
1355.38
-3456.37
1592.09
-3578.33
1851.18
-3644.63
2134.08
-3677.8
2448.41
-3702.65
2801.2
-3698.38
3186.11
-3580.73
3581.37
-3261.2
3952.14
-2639.59
4239.18
-1646.67
4377.26
-420.274
4337.58
748.311
4197.42
1337.02
4041.68
1397.01
3897.78
1270.23
3761.39
1159.27
3619.39
1098.1
3454.66
991.809
3240.8
636.18
3031.8
-246.992
2927.3
-1363.31
2912.95
-2115.7
2956.01
-2396.2
3039.69
-2247.9
3153.32
-1665.92
3248.95
-486.327
3236.75
1070.23
3150.96
2067.14
3030.41
2490.43
2892.59
2596.84
2746.08
2552.17
2596.93
2436.84
2450.2
2287.04
2309.81
2119.26
2177.92
1942.27
2056.64
1756.81
1950.19
1549.87
1857.44
1315.84
1766.13
1098.78
1683.33
928.827
1715.28
517.911
1895.77
-619.953
2001.07
-1623.49
2005.61
-2223.48
2040.29
-2725.03
2221.47
-3320.84
2590.52
-4009.63
3124.4
-4681.39
3747.16
-5149.68
4328.8
-5151.27
4785.11
-4738.11
5118.53
-4176.88
5353.92
-3595.27
5513.51
-3048.7
5617.02
-2589.84
5665.42
-2189.09
5626.8
-1742.52
5476.33
-1267.49
5224.25
-882.394
4929.21
-717.1
4675.06
-793.969
4519.3
-952.157
4446.73
-866.262
4352.46
-130.867
4179.25
1175.36
3974.06
2360.87
3787.25
3089.51
3632.85
3392.45
3508.59
3394.14
3412.25
3201.24
3345.27
2886.52
3310.07
2511.08
3303.71
2120.14
3329.86
1728.93
3362.91
1510.71
1164.67
528.605
653.001
358.081
1060.57
84.065
2131.4
-79.3322
2482.89
-147.198
1712.74
-206.75
959.822
-222.724
258.698
-168.371
-680.587
-61.2297
-1379.9
98.5003
-2047.62
272.836
-2264.19
391.25
-1771.99
431.419
-1143.61
392.912
-495.611
288.736
-31.0168
103.83
161.665
-183.988
266.881
-221.267
-45.1095
14.8524
-822.762
217.866
-1598.15
387.19
-2270.98
534.607
-2779.16
685.247
-3154.61
855.648
-3438.4
1049.83
-3650.56
1263.96
-3792.45
1493.6
-3874.27
1741.4
-3925.6
2020.65
-3981.9
2347.24
-4024.97
2722.28
-3955.78
3125.52
-3664.43
3521.09
-3035.17
3848.14
-1973.72
4032.06
-604.198
4028.75
751.621
3906.71
1459.05
3762.29
1541.42
3628.31
1404.2
3502.37
1285.21
3373.08
1227.39
3223.06
1141.83
3025.96
833.276
2811.79
-32.8311
2680.39
-1231.91
2631.12
-2066.43
2637.88
-2402.96
2687.43
-2297.45
2771.08
-1749.57
2840.06
-555.31
2814.45
1095.84
2732.82
2148.77
2626.22
2597.02
2505.62
2717.44
2376.57
2681.23
2244.15
2569.25
2113.19
2418.01
1987.37
2245.08
1868.58
2061.05
1758.99
1866.39
1662.02
1646.84
1572.99
1404.87
1483.44
1188.33
1425.13
987.136
1502.27
440.774
1625.75
-743.432
1587.9
-1585.64
1502.59
-2138.18
1553.2
-2775.63
1803.85
-3571.48
2234.55
-4440.32
2803.81
-5250.65
3435.47
-5781.34
3988.87
-5704.66
4383.2
-5132.45
4646.46
-4440.14
4824.8
-3773.61
4953.18
-3177.08
5057.53
-2694.19
5134.36
-2265.92
5130
-1738.16
4996.52
-1134.01
4727.55
-613.43
4382.71
-372.256
4059.92
-471.178
3831.71
-723.955
3688.12
-722.663
3519.64
37.6077
3299.2
1395.81
3088.77
2571.3
2925.94
3252.34
2808.02
3510.38
2723.61
3478.54
2667.36
3257.5
2640.38
2913.5
2646.85
2504.61
2681.74
2085.25
2748
1662.67
2830.33
1428.38
1130.34
516.234
719.026
321.355
1255.45
53.5187
2399.24
-85.0347
2621.44
-149.568
1777.27
-204.867
1015.12
-218.989
272.807
-168.053
-731.527
-67.709
-1480.25
84.0358
-2199.36
246.131
-2426.28
333.633
-1859.49
305.964
-1115.95
173.722
-363.378
-29.9025
172.588
-247.215
378.963
-345.771
365.426
-223.527
-167.367
-58.5031
-987.791
83.2063
-1739.86
209.271
-2397.05
333.132
-2903.02
470.685
-3292.16
629.59
-3597.3
809.297
-3830.27
1003.94
-3987.1
1206.45
-4076.79
1417.25
-4136.4
1651.62
-4216.26
1933.99
-4307.35
2277.43
-4299.22
2668.44
-4055.44
3073.06
-3439.79
3430.34
-2331
3658.96
-832.823
3699.12
711.461
3601.3
1556.87
3473.49
1669.23
3353.99
1523.7
3241.79
1397.42
3126.84
1342.33
2994.09
1274.58
2823.68
1003.68
2620.75
170.103
2471.44
-1082.61
2387.84
-1982.83
2356.21
-2371.32
2370.39
-2311.63
2423.57
-1802.76
2459.13
-590.873
2414.12
1140.84
2333.61
2229.29
2238.73
2691.89
2133.29
2822.88
2019.97
2794.55
1902.94
2686.28
1786.67
2534.27
1674.55
2357.2
1568.07
2167.53
1469.26
1965.21
1379.86
1736.23
1291.94
1492.79
1207.22
1273.06
1194.73
999.617
1277.63
357.874
1267.48
-733.277
1111.22
-1429.39
1046.32
-2073.27
1183.02
-2912.33
1486.79
-3875.26
1927.19
-4880.73
2488.89
-5812.35
3099.26
-6391.7
3593.4
-6198.81
3888.75
-5427.8
4044.47
-4595.86
4136.07
-3865.2
4221.34
-3262.35
4338.66
-2811.51
4474.66
-2401.92
4540.25
-1803.75
4460.11
-1053.87
4211.81
-365.13
3856.63
-17.0734
3499.07
-113.616
3211.16
-436.047
2982.17
-493.67
2716.49
303.283
2441.4
1670.9
2230.12
2782.57
2094.82
3387.64
2012.56
3592.64
1964.18
3526.92
1942.8
3278.87
1950.78
2905.52
1993.73
2461.65
2069.88
2009.11
2176.83
1555.72
2310.96
1294.25
1065.46
499.949
795.24
282.289
1473.11
27.0003
2654.52
-88.2115
2736.65
-151.353
1840.41
-201.948
1065.71
-214.344
285.194
-166.929
-778.945
-73.5112
-1573.67
69.8765
-2342.75
215.45
-2571.86
245.548
-1889.59
88.8611
-959.266
-151.364
-123.164
-340.38
361.595
-457.678
496.256
-402.852
310.593
-252.411
-317.815
-145.487
-1094.72
-38.6007
-1846.75
63.3065
-2498.96
171.904
-3011.62
296.462
-3416.72
441.781
-3742.62
607.212
-3995.7
786.76
-4166.65
969.877
-4259.91
1150.33
-4316.86
1338.19
-4404.12
1562.2
-4531.36
1851.53
-4588.55
2207.87
-4411.77
2605.17
-3837.09
2984.95
-2710.78
3257.91
-1105.79
3349.86
619.511
3282.76
1623.96
3176.84
1775.15
3076.19
1624.34
2980.83
1492.78
2882.52
1440.64
2770.95
1386.14
2635.65
1138.98
2459.06
346.689
2300.77
-924.319
2182.23
-1864.3
2108.6
-2297.7
2085.16
-2288.18
2107.74
-1825.34
2103.59
-586.73
2034.47
1209.96
1953.19
2310.56
1868.39
2776.7
1776.35
2914.92
1677.16
2893.74
1574.2
2789.24
1471.54
2636.93
1372.13
2456.61
1276.97
2262.69
1187.6
2054.58
1103.35
1820.47
1014.26
1581.88
940.833
1346.49
978.473
961.977
992.621
343.726
833.824
-574.48
679.433
-1275
720.75
-2114.59
911.695
-3103.28
1206.56
-4170.12
1621.38
-5295.55
2160.56
-6351.52
2732.54
-6963.68
3136.49
-6602.76
3289.83
-5581.13
3296.04
-4602.07
3279.52
-3848.69
3335.25
-3318.08
3503.91
-2980.17
3733.5
-2631.5
3883
-1953.25
3862.19
-1033.06
3648.64
-151.572
3313.64
317.921
2960.83
239.2
2634.35
-109.571
2305.2
-164.522
1926.42
682.063
1601.12
1996.2
1399.14
2984.55
1295.07
3491.71
1246.24
3641.46
1228.35
3544.81
1234.99
3272.24
1272.32
2868.2
1349.05
2384.92
1471.93
1886.23
1617.8
1409.85
1784.45
1127.59
983.346
479.059
885.343
242.271
1709.9
4.90112
2891.89
-89.8797
2831.43
-152.422
1902.95
-198.012
1111.29
-208.78
295.949
-164.891
-822.839
-78.368
-1660.19
56.1461
-2477.27
176.617
-2692.33
108.109
-1821.09
-183.542
-667.622
-437.585
130.867
-522.131
446.133
-530.462
504.58
-428.967
209.088
-314.772
-432.02
-223.66
-1185.83
-137.956
-1932.46
-55.4892
-2581.43
35.2348
-3102.35
142.539
-3524.03
271.118
-3871.21
421.577
-4146.16
589.036
-4334.11
760.634
-4431.51
921.599
-4477.83
1069.36
-4551.88
1228.79
-4690.8
1444.35
-4804.11
1741.18
-4708.61
2110.9
-4206.81
2503.3
-3103.17
2821.94
-1424.44
2979.33
462.119
2951.98
1651.32
2873.74
1853.38
2796.34
1701.75
2721.32
1567.8
2643.34
1518.63
2558.72
1470.76
2465.04
1232.66
2325.83
485.892
2165.79
-764.28
2011.83
-1710.33
1892.3
-2178.18
1827.85
-2223.74
1819.41
-1816.9
1770.08
-537.406
1674.06
1305.98
1591.35
2393.28
1515.41
2852.64
1435.2
2995.13
1348.66
2980.28
1258.44
2879.46
1168.18
2727.19
1080.43
2544.35
995.499
2347.63
913.89
2136.19
832.178
1902.18
740.977
1673.08
686.482
1400.98
747.041
901.418
626.697
464.07
414.135
-361.918
373.822
-1234.68
484.251
-2225.02
660.86
-3279.89
924.886
-4434.15
1313.95
-5684.62
1825.96
-6863.53
2339.7
-7477.43
2621.4
-6884.46
2595.23
-5554.97
2438.57
-4445.4
2354
-3764.12
2451.73
-3415.81
2714.71
-3243.15
3024.87
-2941.66
3216.38
-2144.76
3219.63
-1036.32
3026.27
41.7965
2721.14
623.048
2393.8
566.535
2046.38
237.858
1609.58
272.275
1125.93
1165.71
776.357
2345.77
598.258
3162.65
526.113
3563.86
505.04
3662.54
510.593
3539.26
540.401
3242.43
603.419
2805.18
705.404
2282.93
853.182
1738.45
1012.9
1250.13
1258.77
881.726
859.31
453.61
992.704
202.833
1960.68
-12.5731
3107.3
-90.8294
2909.69
-152.691
1964.81
-193.126
1151.73
-202.344
305.159
-161.892
-863.294
-82.0854
-1740
42.6441
-2602
122.839
-2772.53
-68.9859
-1629.27
-404.514
-332.099
-580.736
307.083
-601.3
466.693
-548.59
451.865
-457.298
117.788
-374.798
-514.524
-295.648
-1264.99
-225.674
-2002.43
-159.681
-2647.42
-86.9134
-3175.12
1.55598
-3612.5
111.323
-3980.97
244.718
-4279.56
399.323
-4488.71
562.92
-4595.11
714.317
-4629.23
835.007
-4672.57
936.342
-4792.13
1068.28
-4936.05
1281.25
-4921.58
1595.66
-4521.23
1983.63
-3491.15
2347.4
-1788.2
2585.39
224.123
2609.47
1627.24
2565.65
1897.2
2515.85
1751.54
2464.91
1618.73
2411.58
1571.96
2358.87
1523.47
2309.43
1282.1
2213.92
581.398
2059.99
-610.359
1873.79
-1524.13
1706.18
-2010.58
1596.07
-2113.62
1554.16
-1774.99
1454.85
-438.098
1331.57
1429.26
1247.84
2477.01
1179.85
2920.63
1109.98
3064.99
1034.59
3055.67
955.744
2958.31
876.679
2806.26
799.58
2621.45
723.743
2423.46
647.818
2212.11
565.213
1984.79
475.509
1762.78
439.63
1436.86
461.836
879.213
225.595
700.308
99.4303
-235.754
157.239
-1292.49
258.157
-2325.94
408.284
-3430.02
650.953
-4676.82
1014.68
-6048.35
1487.06
-7335.91
1919.76
-7910.13
2056.49
-7021.18
1843.81
-5342.29
1588.38
-4189.97
1553.52
-3729.25
1750.47
-3612.77
2054.57
-3547.25
2341.52
-3228.61
2498.21
-2301.45
2493.02
-1031.13
2316.55
218.267
2044.28
895.319
1745.19
865.629
1389.22
593.828
867.735
793.758
314.996
1718.45
-28.9802
2689.75
-169.757
3303.43
-207.435
3601.54
-202.835
3657.94
-179.181
3515.61
-139.512
3202.76
-75.2542
2740.92
42.4006
2165.28
286.876
1493.98
719.741
817.264
1061.74
539.726
921.945
422.84
1118.65
165.191
2218.32
-25.5399
3298.03
-91.5096
2975.66
-152.119
2025.41
-187.398
1187
-195.141
312.888
-157.952
-900.487
-84.5486
-1813.41
28.6722
-2715.22
48.9124
-2792.77
-239.44
-1340.92
-556.325
-15.2221
-643.663
394.414
-626.145
449.169
-571.771
397.483
-500.917
46.9218
-429.457
-585.991
-364.747
-1329.7
-308.582
-2058.6
-256.195
-2699.81
-198.238
-3233.08
-127.108
-3683.63
-36.6727
-4071.41
77.2933
-4393.53
215.476
-4626.9
369.327
-4748.96
516.296
-4776.2
625.165
-4781.44
687.575
-4854.55
743.432
-4991.91
858.716
-5036.86
1086.13
-4748.65
1441.53
-3846.54
1842.68
-2189.36
2168.9
-102.098
2256.41
1539.73
2254.22
1899.39
2235.95
1769.82
2212.05
1642.63
2186.49
1597.52
2167.84
1542.11
2160.79
1289.15
2110.81
631.372
1973.43
-472.986
1765.6
-1316.3
1552.54
-1797.52
1391.13
-1952.21
1308.32
-1692.19
1154.34
-284.116
1005.99
1577.6
922.493
2560.5
861.57
2981.55
800.565
3125.99
734.819
3121.41
665.948
3027.18
596.998
2875.21
529.638
2688.81
461.606
2491.49
388.763
2284.96
303.58
2069.97
221.451
1844.91
187.092
1471.21
100.772
965.533
-136.242
937.318
-119.631
-252.366
-52.8601
-1359.26
30.1293
-2408.93
168.41
-3568.3
390.989
-4899.39
721.272
-6378.63
1138.72
-7753.36
1473.41
-8244.82
1462.21
-7009.98
1111.81
-4991.88
888.86
-3967.03
977.604
-3818
1194.44
-3829.6
1403.87
-3756.68
1563.45
-3388.19
1638.75
-2376.74
1618.69
-1011.07
1480.7
356.254
1271.43
1104.59
1047.29
1089.77
660.512
980.603
16.5909
1437.68
-528.342
2263.39
-781.742
2943.15
-858.446
3380.13
-860.906
3604
-841.267
3638.3
-816.637
3490.98
-770.135
3156.26
-654.799
2625.59
-454.93
1965.41
-375.249
1414.3
-732.394
1174.41
-1441.03
1248.36
1394.13
388.041
1266.61
130.314
2476.05
-34.5083
3462.85
-92.1349
3033.28
-150.713
2083.99
-180.973
1217.26
-187.324
319.231
-153.151
-934.663
-85.7312
-1880.83
12.9291
-2813.89
-38.006
-2741.83
-371.457
-1007.47
-629.173
242.488
-660.405
425.643
-636.514
425.274
-600.586
361.551
-544.503
-9.16829
-480.87
-649.627
-428.69
-1381.88
-384.778
-2102.52
-344.881
-2739.71
-300.535
-3277.42
-245.014
-3739.15
-172.869
-4143.56
-79.1491
-4487.25
39.4279
-4745.48
178.847
-4888.38
320.4
-4917.75
428.182
-4889.22
475.333
-4901.7
480.627
-4997.2
507.276
-5063.51
627.974
-4869.34
906.931
-4125.5
1319.62
-2602.05
1725.78
-508.265
1892.64
1372.87
1940.93
1851.09
1957.58
1753.17
1962.63
1637.58
1966.15
1593.99
1980.43
1527.84
2008.82
1260.75
2000.5
639.689
1891.72
-364.209
1682.13
-1106.71
1436.37
-1551.77
1220.44
-1736.28
1079.96
-1551.7
865.567
-69.7297
696.77
1746.39
615.082
2642.19
560.209
3036.42
506.545
3179.66
448.966
3178.99
388.855
3087.29
329.246
2934.81
270.785
2747.27
209.352
2552.93
137.174
2357.14
49.1107
2158.03
-24.4075
1918.43
-124.113
1570.92
-442.96
1284.38
-514.659
1009.01
-327.722
-439.304
-266.469
-1420.52
-187.229
-2488.17
-59.8252
-3695.7
139.093
-5098.31
428.816
-6668.35
778.911
-8103.45
1009.09
-8475
872.273
-6873.16
482.566
-4602.18
375.574
-3860.04
514.126
-3956.55
624.467
-3939.94
684.029
-3816.24
700.839
-3405
686.987
-2362.89
628.571
-952.658
555.171
429.654
472.244
1187.52
247.457
1314.56
-307.532
1535.59
-948.809
2078.96
-1330.62
2645.2
-1478.09
3090.61
-1504.45
3406.49
-1486.62
3586.18
-1453.76
3605.43
-1398.2
3435.42
-1308
3066.06
-1261.41
2579
-1470.84
2174.84
-2029.72
1973.18
-2721.25
1865.94
-3258.17
1785.29
1681.92
350.196
1436.86
98.9376
2727.31
-40.2894
3602.07
-92.7852
3085.78
-148.516
2139.72
-174.022
1242.76
-179.082
324.277
-147.628
-966.121
-85.7335
-1942.72
-6.25599
-2893.37
-124.132
-2623.96
-460.644
-670.964
-652.426
434.263
-663.946
437.156
-652.741
414.062
-629.935
338.737
-580.592
-58.5219
-526.352
-703.873
-483.779
-1424.46
-450.391
-2135.91
-422.248
-2767.86
-391.665
-3308.01
-352.201
-3778.62
-298.329
-4197.43
-224.854
-4560.72
-127.455
-4842.88
-6.38275
-5009.45
125.073
-5049.21
233.798
-4997.95
282.941
-4950.84
269.998
-4984.26
240.358
-5033.87
266.328
-4895.32
432.472
-4291.65
811.692
-2981.27
1249.5
-946.082
1518.85
1103.53
1627.48
1742.46
1681.68
1698.96
1716.81
1602.45
1749.29
1561.5
1792.11
1485.02
1844.72
1208.14
1867.07
617.331
1793.09
-290.224
1606.65
-920.283
1359.49
-1304.6
1102.59
-1479.38
874.416
-1323.54
586.723
217.96
403.932
1929.18
325.495
2720.63
275.411
3086.5
227.575
3227.49
176.743
3229.82
124.247
3139.79
73.3784
2985.68
23.0868
2797.56
-33.6443
2609.66
-110.508
2434
-191.648
2239.17
-237.349
1964.13
-348.527
1682.09
-468.721
1404.57
-461.348
1001.64
-471.769
-428.883
-436.302
-1455.99
-374.881
-2549.59
-272.184
-3798.4
-106.795
-5263.7
135.143
-6910.29
409.923
-8378.23
540.909
-8605.99
322.06
-6654.32
-19.8934
-4260.22
-44.608
-3835.32
30.7604
-4031.92
15.1154
-3924.29
-45.6711
-3755.46
-143.79
-3306.88