/*--------------------------------*- C++ -*----------------------------------*\
| =========                 |                                                 |
| \\      /  F ield         | OpenFOAM: The Open Source CFD Toolbox           |
|  \\    /   O peration     | Version:  4.1                                   |
|   \\  /    A nd           | Web:      www.OpenFOAM.org                      |
|    \\/     M anipulation  |                                                 |
\*---------------------------------------------------------------------------*/
FoamFile
{
    version     2.0;
    format      ascii;
    class       volVectorField;
    location    "900";
    object      U;
}
// * * * * * * * * * * * * * * * * * * * * * * * * * * * * * * * * * * * * * //

dimensions      [0 1 -1 0 0 0 0];

internalField   nonuniform List<vector> 
26785
(
(1.49613e-15 0.0344015 4.89419)
(7.5675e-16 0.034014 4.16465)
(4.31073e-15 0.043099 3.43923)
(-9.97521e-15 0.0773524 2.55462)
(-4.17601e-14 0.0877854 0.162361)
(-4.87209e-14 0.0485815 -1.3165)
(2.13955e-15 0.000194808 -1.58635)
(-3.43223e-15 -0.0227301 -1.31411)
(1.01274e-15 -0.0439004 -0.69577)
(-3.94652e-14 -0.0744054 0.275134)
(-2.97443e-14 -0.0777337 1.55416)
(-2.18001e-14 -0.0543554 2.67568)
(-1.64132e-14 -0.0322121 3.40489)
(-1.28625e-14 -0.0103029 3.74934)
(-1.11189e-14 0.00569591 3.79686)
(-1.10077e-14 0.0110431 3.6826)
(-1.08058e-14 0.00731327 3.56126)
(-1.02054e-14 -0.00165856 3.54006)
(-8.77624e-15 -0.0166209 3.6963)
(-1.34469e-14 -0.0370588 4.10682)
(-1.07665e-14 -0.0585863 4.79664)
(-6.52291e-15 -0.0785768 5.73494)
(-6.71062e-15 -0.0955858 6.87214)
(-4.74727e-15 -0.108944 8.15568)
(-6.63795e-15 -0.118495 9.5354)
(-5.08269e-15 -0.124348 10.9658)
(-3.01857e-15 -0.12699 12.4065)
(-9.08556e-16 -0.127173 13.8252)
(3.24261e-16 -0.125601 15.2016)
(3.47759e-16 -0.121196 16.5145)
(1.23642e-15 -0.111254 17.7246)
(3.03966e-15 -0.0923904 18.7667)
(5.80181e-15 -0.060426 19.5341)
(6.70191e-15 -0.0186468 19.9154)
(8.81652e-15 0.0222248 19.873)
(8.96519e-15 0.0530654 19.467)
(9.21023e-15 0.0675323 18.8479)
(9.52793e-15 0.06727 18.1853)
(1.00483e-14 0.0572841 17.5907)
(1.11146e-14 0.0388302 17.1257)
(1.12374e-14 0.00967295 16.8563)
(1.29207e-14 -0.031474 16.8726)
(1.25398e-14 -0.0811679 17.2613)
(1.36028e-14 -0.12933 18.0552)
(1.11843e-14 -0.160331 19.1814)
(1.14097e-14 -0.160555 20.4519)
(1.06213e-14 -0.123844 21.6009)
(1.11062e-14 -0.0565727 22.3568)
(1.15552e-14 0.0231404 22.5224)
(1.19839e-14 0.0966691 22.0384)
(1.03745e-14 0.146735 21.0392)
(1.09143e-14 0.169277 19.7697)
(9.96856e-15 0.17283 18.4366)
(9.34937e-15 0.166486 17.1511)
(8.41556e-15 0.155888 15.958)
(7.49454e-15 0.14395 14.87)
(6.36958e-15 0.132008 13.8856)
(3.69486e-15 0.120583 12.9981)
(4.13213e-15 0.109748 12.1998)
(3.33623e-15 0.0992745 11.4843)
(1.60755e-15 0.0888048 10.8482)
(2.85091e-15 0.078051 10.2906)
(2.71172e-15 0.066475 9.81321)
(1.44378e-15 0.0523317 9.42247)
(-1.9137e-15 0.0320492 9.14053)
(-2.65143e-15 0.00243896 9.01696)
(-4.36697e-15 -0.0331597 9.10331)
(-5.83847e-15 -0.0680475 9.41223)
(-6.79567e-15 -0.0984283 9.92925)
(-7.44688e-15 -0.124037 10.6332)
(-7.96377e-15 -0.145497 11.4944)
(-1.06872e-14 -0.162005 12.4714)
(-1.14908e-14 -0.171669 13.513)
(-1.18968e-14 -0.17274 14.5623)
(-1.19357e-14 -0.166004 15.5634)
(-1.22643e-14 -0.154874 16.4773)
(-1.26449e-14 -0.142596 17.2916)
(-1.26149e-14 -0.131254 18.0168)
(-1.25162e-14 -0.122488 18.6788)
(-1.20201e-14 -0.117197 19.3102)
(-1.14781e-14 -0.115279 19.9383)
(-9.29351e-15 -0.116579 20.5756)
(-5.98514e-15 -0.12076 21.2248)
(-3.49325e-15 -0.125182 21.8829)
(-1.2944e-15 -0.122221 22.5306)
(6.08099e-16 -0.0999958 23.1103)
(1.6538e-15 -0.0498597 23.5149)
(1.50622e-15 0.0245443 23.6071)
(2.97497e-15 0.105172 23.2883)
(2.75654e-15 0.171042 22.5758)
(2.38802e-15 0.212716 21.585)
(1.6416e-15 0.231464 20.452)
(9.34146e-16 0.233163 19.2852)
(4.64114e-16 0.223964 18.1558)
(1.99929e-16 0.208574 17.1037)
(3.08561e-16 0.190297 16.1465)
(2.32706e-16 0.171409 15.297)
(3.1238e-16 0.151817 14.5207)
(3.24651e-16 0.140127 13.936)
(7.78059e-16 0.107909 13.117)
(2.65022e-15 0.0928029 4.90158)
(-2.71871e-15 0.0963915 4.18495)
(-2.80349e-15 0.127166 3.47915)
(-9.67237e-15 0.240163 2.47753)
(-3.08516e-14 0.267899 0.0339706)
(-3.68383e-14 0.142673 -1.24272)
(1.006e-14 0.00966848 -1.55589)
(-3.05735e-14 -0.0692826 -1.32625)
(-2.8774e-14 -0.13535 -0.671849)
(-1.42819e-14 -0.213769 0.33366)
(-1.07638e-14 -0.226452 1.61015)
(-8.02239e-15 -0.163953 2.73624)
(-6.30375e-15 -0.101851 3.48816)
(-3.25181e-15 -0.0390255 3.87377)
(-1.07311e-14 0.00727661 3.97673)
(-1.16043e-14 0.0225465 3.93318)
(-3.78505e-15 0.010449 3.90045)
(8.53146e-16 -0.0186176 3.98736)
(1.21047e-15 -0.0664554 4.27065)
(1.00957e-14 -0.129126 4.80864)
(3.60978e-15 -0.192472 5.60162)
(7.56801e-15 -0.24906 6.60714)
(5.29375e-15 -0.295584 7.77765)
(7.13399e-15 -0.331103 9.07209)
(6.02126e-15 -0.355861 10.4529)
(3.1318e-15 -0.370319 11.8808)
(2.31916e-15 -0.375667 13.3147)
(2.08924e-15 -0.373784 14.7186)
(1.98219e-15 -0.366381 16.0679)
(1.34092e-15 -0.350251 17.339)
(1.08582e-15 -0.317775 18.4929)
(1.81515e-15 -0.259852 19.4686)
(2.52253e-15 -0.16608 20.17)
(2.95018e-15 -0.0458077 20.5037)
(5.17628e-15 0.0728013 20.4339)
(5.78868e-15 0.163328 19.9948)
(7.07173e-15 0.204237 19.347)
(8.193e-15 0.201275 18.6646)
(9.11876e-15 0.172397 18.0507)
(9.72035e-15 0.123949 17.5392)
(9.78571e-15 0.0487425 17.1558)
(7.95325e-15 -0.0582857 16.9713)
(7.13819e-15 -0.189696 17.0727)
(3.79393e-15 -0.321353 17.5207)
(2.52428e-15 -0.4145 18.2955)
(1.26912e-15 -0.433531 19.2814)
(1.87417e-15 -0.354762 20.2914)
(1.67907e-15 -0.180191 21.0969)
(4.54008e-15 0.0517874 21.4523)
(3.34187e-15 0.281224 21.1664)
(7.40681e-15 0.439516 20.3048)
(6.92029e-15 0.509199 19.1203)
(8.13105e-15 0.518192 17.8443)
(8.90487e-15 0.496563 16.6028)
(7.47669e-15 0.462613 15.4473)
(8.17902e-15 0.425437 14.3927)
(7.87448e-15 0.388956 13.4383)
(4.38909e-15 0.354512 12.5779)
(4.23363e-15 0.32214 11.804)
(4.73792e-15 0.291053 11.1106)
(3.7042e-15 0.260098 10.4941)
(3.41181e-15 0.228081 9.95402)
(8.30792e-16 0.193098 9.49402)
(2.8491e-15 0.15098 9.12216)
(5.50203e-15 0.0932949 8.85245)
(3.14681e-15 0.0100056 8.71503)
(1.74375e-15 -0.0901249 8.75662)
(8.63817e-16 -0.192216 9.01978)
(-3.35052e-15 -0.290923 9.53275)
(-1.01311e-14 -0.38176 10.2806)
(-1.44644e-14 -0.456381 11.2019)
(-1.92482e-14 -0.506849 12.2204)
(-2.17081e-14 -0.528835 13.2684)
(-2.21272e-14 -0.520627 14.287)
(-2.39432e-14 -0.487337 15.2253)
(-2.07651e-14 -0.441329 16.0539)
(-2.05734e-14 -0.394993 16.7745)
(-1.886e-14 -0.358101 17.4141)
(-1.4318e-14 -0.337963 18.0123)
(-1.06097e-14 -0.335384 18.6061)
(-5.64269e-15 -0.343478 19.2126)
(2.4924e-16 -0.354285 19.8231)
(6.45175e-15 -0.3629 20.4179)
(8.92516e-15 -0.3641 20.9799)
(1.13491e-14 -0.34471 21.4942)
(1.30484e-14 -0.280558 21.936)
(1.50799e-14 -0.147543 22.2541)
(1.57328e-14 0.0575553 22.3513)
(1.29096e-14 0.29405 22.1086)
(1.11327e-14 0.494722 21.4925)
(8.73501e-15 0.623901 20.5911)
(6.68448e-15 0.682126 19.534)
(4.82731e-15 0.687056 18.4321)
(4.56024e-15 0.658213 17.3603)
(3.63028e-15 0.61063 16.3612)
(2.96526e-15 0.554668 15.4537)
(2.64053e-15 0.497386 14.6516)
(2.30788e-15 0.438522 13.9205)
(2.21836e-15 0.402306 13.3751)
(2.6463e-15 0.30803 12.6142)
(1.78905e-15 0.153816 4.88865)
(8.15621e-16 0.159583 4.18395)
(-1.00147e-14 0.218281 3.49051)
(-4.94718e-15 0.413969 2.2281)
(-1.88191e-14 0.44143 -0.191203)
(-3.64086e-14 0.221639 -1.20377)
(3.12603e-15 0.0221073 -1.56306)
(-2.17271e-14 -0.120261 -1.33419)
(-8.64956e-15 -0.232144 -0.651968)
(-1.597e-14 -0.352177 0.370693)
(-1.12683e-14 -0.37593 1.65327)
(-3.48519e-15 -0.277855 2.79078)
(1.11908e-16 -0.175645 3.56162)
(2.804e-15 -0.0728888 3.97771)
(6.52383e-15 0.00136742 4.12311)
(-6.0196e-16 0.0236818 4.13729)
(5.07136e-15 0.000624192 4.1753)
(-2.57625e-15 -0.0503164 4.33345)
(8.43854e-15 -0.130484 4.66977)
(5.37838e-15 -0.231417 5.22684)
(2.18178e-16 -0.330571 5.9985)
(6.01716e-15 -0.417881 6.94898)
(6.52962e-15 -0.490377 8.05782)
(2.49506e-15 -0.547833 9.31353)
(1.64577e-15 -0.589683 10.6867)
(4.30136e-16 -0.614571 12.1245)
(-3.37694e-16 -0.623008 13.5664)
(2.2432e-16 -0.617826 14.9629)
(6.3832e-16 -0.602249 16.2847)
(8.96718e-16 -0.571768 17.5097)
(9.18469e-16 -0.514702 18.6049)
(2.45867e-16 -0.417189 19.5184)
(7.90256e-16 -0.263315 20.1651)
(9.34763e-16 -0.067152 20.4615)
(8.6838e-16 0.128376 20.3713)
(1.77355e-15 0.279393 19.9124)
(2.77208e-15 0.34728 19.2395)
(3.745e-15 0.343468 18.5208)
(4.63203e-15 0.302022 17.8491)
(5.07253e-15 0.237108 17.2394)
(4.67576e-15 0.135849 16.6917)
(3.17332e-15 -0.0167063 16.2572)
(9.28004e-16 -0.216314 16.0444)
(-8.04375e-16 -0.429927 16.1582)
(-1.42137e-15 -0.59748 16.6182)
(-1.36155e-15 -0.663943 17.3376)
(-1.19763e-15 -0.589115 18.1729)
(-1.06123e-15 -0.359139 18.9641)
(-3.93105e-16 -0.00797788 19.5147)
(8.85836e-16 0.381677 19.5493)
(2.39257e-15 0.669238 18.9711)
(3.98494e-15 0.804606 17.9908)
(5.39912e-15 0.831244 16.8593)
(6.19567e-15 0.801961 15.7238)
(6.73206e-15 0.749592 14.6492)
(6.39792e-15 0.690552 13.6585)
(4.03423e-15 0.631952 12.7561)
(4.16624e-15 0.576295 11.9388)
(5.88835e-15 0.523775 11.2016)
(5.35194e-15 0.473198 10.5398)
(6.89677e-15 0.422679 9.95064)
(5.87096e-15 0.369885 9.43466)
(4.36802e-15 0.311398 8.99819)
(3.64975e-15 0.242604 8.65001)
(2.8262e-15 0.154575 8.38916)
(2.9591e-16 0.0286522 8.22098)
(8.58067e-16 -0.133284 8.22009)
(-1.95324e-15 -0.318351 8.50577)
(-1.14487e-14 -0.50729 9.1149)
(-2.01776e-14 -0.669776 9.95781)
(-2.55393e-14 -0.785613 10.915)
(-2.80643e-14 -0.850824 11.9059)
(-2.92178e-14 -0.867839 12.8841)
(-2.92206e-14 -0.83804 13.812)
(-2.78816e-14 -0.772061 14.6562)
(-2.56027e-14 -0.692622 15.4037)
(-2.11684e-14 -0.62114 16.0693)
(-1.48489e-14 -0.571847 16.682)
(-7.46534e-15 -0.551467 17.2681)
(-1.97034e-16 -0.553907 17.8403)
(6.08778e-15 -0.562555 18.3906)
(1.02536e-14 -0.564605 18.8966)
(1.48671e-14 -0.556802 19.3407)
(1.70089e-14 -0.538082 19.7187)
(1.91232e-14 -0.497228 20.0352)
(2.04705e-14 -0.405584 20.2927)
(2.05626e-14 -0.225235 20.4807)
(1.97077e-14 0.0674011 20.5431)
(1.78222e-14 0.431705 20.3623)
(1.6998e-14 0.758667 19.8587)
(1.4101e-14 0.978272 19.0824)
(1.16634e-14 1.08254 18.1447)
(1.02852e-14 1.09714 17.1511)
(8.16152e-15 1.05388 16.1766)
(6.67025e-15 0.978175 15.2654)
(5.54806e-15 0.88766 14.438)
(4.83603e-15 0.794562 13.7097)
(4.43315e-15 0.698833 13.0476)
(4.26342e-15 0.637914 12.5603)
(4.63358e-15 0.488318 11.8808)
(3.04083e-16 0.214922 4.86155)
(5.85656e-15 0.222907 4.17378)
(3.97276e-15 0.32289 3.45424)
(1.4821e-15 0.594721 1.84433)
(-6.06171e-15 0.596639 -0.40145)
(-1.18374e-14 0.287868 -1.19448)
(-2.15071e-14 0.0368438 -1.56704)
(-2.43216e-14 -0.172608 -1.33683)
(-1.36639e-14 -0.33084 -0.644326)
(-1.92268e-14 -0.491463 0.381518)
(-8.15012e-15 -0.526092 1.6642)
(4.08222e-15 -0.393731 2.80531)
(5.55435e-15 -0.251602 3.58148)
(1.4402e-14 -0.109985 4.00865)
(1.19194e-14 -0.00964247 4.17008)
(1.01012e-14 0.0178722 4.20679)
(4.86536e-15 -0.0165731 4.27012)
(8.48182e-15 -0.0871835 4.44219)
(-3.02586e-15 -0.195229 4.76849)
(-5.06507e-15 -0.328952 5.28528)
(-4.83233e-15 -0.458997 5.97752)
(1.40326e-15 -0.576149 6.83976)
(1.82e-15 -0.679928 7.91052)
(1.64992e-15 -0.76746 9.1945)
(2.41675e-15 -0.831799 10.627)
(3.21675e-15 -0.867384 12.1122)
(3.36006e-15 -0.875311 13.5674)
(3.8653e-15 -0.861813 14.9418)
(4.13019e-15 -0.833522 16.2157)
(3.99871e-15 -0.78574 17.3793)
(3.14677e-15 -0.703119 18.4113)
(2.62151e-15 -0.567276 19.2702)
(2.72152e-15 -0.356405 19.8793)
(1.35512e-15 -0.0873611 20.16)
(9.25336e-16 0.184143 20.0643)
(-1.12157e-15 0.397092 19.5814)
(-1.46533e-16 0.493819 18.8717)
(-7.00107e-16 0.492 18.1122)
(-2.91353e-15 0.44308 17.3971)
(-7.86955e-17 0.371021 16.7325)
(-1.15407e-15 0.259355 16.0913)
(-4.04239e-15 0.0763632 15.4805)
(-3.05103e-15 -0.183567 15.023)
(-1.70861e-15 -0.47942 14.8733)
(-6.45095e-16 -0.72527 15.0912)
(1.2364e-15 -0.846458 15.5969)
(2.2004e-16 -0.795366 16.2555)
(-3.43693e-16 -0.548838 16.9475)
(-1.58963e-15 -0.125263 17.5433)
(1.72029e-16 0.403188 17.7792)
(1.57973e-16 0.828395 17.4347)
(3.07954e-15 1.04447 16.6528)
(1.42791e-15 1.10124 15.6798)
(2.5824e-15 1.07344 14.67)
(4.50502e-15 1.00922 13.6948)
(5.11294e-15 0.933111 12.7834)
(5.6328e-15 0.855942 11.9448)
(4.94421e-15 0.781737 11.1799)
(7.12254e-15 0.711096 10.4864)
(8.33888e-15 0.642626 9.86195)
(1.06703e-14 0.573824 9.30495)
(1.06046e-14 0.500931 8.81725)
(9.0139e-15 0.41916 8.40861)
(6.85991e-15 0.32692 8.08558)
(6.51987e-15 0.218084 7.82465)
(8.70351e-15 0.0540351 7.62237)
(3.70824e-15 -0.188019 7.63715)
(-1.3376e-14 -0.483131 8.03695)
(-2.47537e-14 -0.762787 8.75475)
(-2.94187e-14 -0.971505 9.61292)
(-2.81638e-14 -1.10213 10.5054)
(-2.53391e-14 -1.1676 11.3994)
(-2.38091e-14 -1.17627 12.2826)
(-2.05377e-14 -1.12842 13.1364)
(-1.63545e-14 -1.03827 13.9364)
(-1.26883e-14 -0.937004 14.671)
(-4.50417e-15 -0.849997 15.3452)
(7.80407e-16 -0.789954 15.9644)
(7.87379e-15 -0.760324 16.5272)
(1.22032e-14 -0.750516 17.0283)
(1.41633e-14 -0.740249 17.4578)
(1.54495e-14 -0.718233 17.8047)
(1.55116e-14 -0.686163 18.0694)
(1.7805e-14 -0.646903 18.2667)
(1.89366e-14 -0.589917 18.4162)
(2.14418e-14 -0.48296 18.5318)
(2.0727e-14 -0.277206 18.6167)
(2.08205e-14 0.0727327 18.6332)
(1.9071e-14 0.537896 18.4722)
(1.83396e-14 0.97506 18.0395)
(1.43661e-14 1.279 17.365)
(1.2452e-14 1.4292 16.5428)
(1.11017e-14 1.45604 15.6663)
(9.65561e-15 1.40178 14.8037)
(8.14175e-15 1.30138 13.9968)
(6.80148e-15 1.17942 13.2654)
(5.9626e-15 1.05315 12.6255)
(5.32728e-15 0.9235 12.0463)
(5.35751e-15 0.838548 11.6266)
(5.46805e-15 0.641372 11.0389)
(-2.56201e-16 0.271241 4.8263)
(8.24724e-15 0.285624 4.16348)
(5.46729e-15 0.445582 3.36537)
(6.25738e-15 0.778167 1.39487)
(1.58404e-16 0.730029 -0.545797)
(-1.76862e-15 0.344592 -1.20279)
(3.07323e-14 0.051204 -1.56774)
(-1.22094e-14 -0.225674 -1.33884)
(-1.62395e-14 -0.43 -0.647071)
(-2.07377e-14 -0.630105 0.3711)
(-3.92447e-15 -0.675873 1.64487)
(8.54621e-15 -0.51057 2.7789)
(5.6379e-15 -0.328758 3.54626)
(9.42421e-15 -0.148401 3.96701)
(5.10112e-15 -0.0224754 4.12227)
(-3.15922e-15 0.00981505 4.15366)
(-4.78886e-15 -0.0352344 4.20932)
(-6.4899e-15 -0.123228 4.36017)
(-7.53053e-15 -0.255918 4.64584)
(-5.37083e-15 -0.417842 5.0768)
(-9.1896e-16 -0.576801 5.64404)
(1.89237e-15 -0.731249 6.44363)
(1.53441e-15 -0.879169 7.56539)
(2.70557e-15 -1.00386 8.94875)
(3.59942e-15 -1.08821 10.4484)
(4.71219e-15 -1.12673 11.9395)
(4.13596e-15 -1.12631 13.351)
(5.73447e-15 -1.0992 14.6558)
(6.38177e-15 -1.05591 15.8541)
(6.50063e-15 -0.991125 16.9503)
(6.25816e-15 -0.885017 17.9312)
(5.93623e-15 -0.714309 18.7602)
(5.56319e-15 -0.450665 19.3628)
(3.26459e-15 -0.11084 19.659)
(3.12469e-15 0.238839 19.5833)
(8.1527e-16 0.518308 19.093)
(-6.04519e-16 0.645748 18.3556)
(-1.7086e-15 0.645444 17.5645)
(-2.56804e-15 0.588664 16.8203)
(-3.06661e-15 0.513112 16.1258)
(-3.48636e-15 0.403099 15.4383)
(-3.91172e-15 0.208715 14.7174)
(-1.94386e-15 -0.0991798 14.0623)
(3.10954e-16 -0.477718 13.6898)
(4.51956e-15 -0.808329 13.71)
(7.22606e-15 -0.990342 14.0439)
(7.9459e-15 -0.972002 14.5469)
(7.08799e-15 -0.727281 15.1174)
(4.81492e-15 -0.261327 15.6847)
(4.31352e-15 0.377231 16.0356)
(1.68709e-15 0.934798 15.8651)
(3.23658e-15 1.23588 15.2481)
(1.97695e-15 1.32924 14.4197)
(2.28072e-15 1.30944 13.5328)
(2.41444e-15 1.23923 12.6596)
(3.7828e-15 1.15092 11.8316)
(6.1172e-15 1.05908 11.0615)
(7.22408e-15 0.969342 10.3533)
(7.89239e-15 0.882883 9.70759)
(7.80031e-15 0.798342 9.12408)
(8.1498e-15 0.712691 8.60237)
(7.46425e-15 0.62035 8.14629)
(9.61035e-15 0.516082 7.76902)
(7.91465e-15 0.405783 7.46853)
(9.74061e-15 0.28458 7.19621)
(3.56614e-15 0.0737348 6.97871)
(-1.05733e-14 -0.276128 7.08393)
(-2.14084e-14 -0.684406 7.61082)
(-2.78494e-14 -1.02378 8.34839)
(-2.65634e-14 -1.24953 9.12453)
(-2.09164e-14 -1.38517 9.90475)
(-1.58187e-14 -1.45505 10.7018)
(-1.3031e-14 -1.46578 11.5231)
(-8.57543e-15 -1.41206 12.3582)
(-4.56664e-15 -1.30897 13.176)
(2.96701e-16 -1.19238 13.9445)
(7.16821e-15 -1.08702 14.6414)
(9.63417e-15 -1.00355 15.2464)
(1.25866e-14 -0.946913 15.744)
(1.18505e-14 -0.908081 16.1326)
(1.15266e-14 -0.866788 16.416)
(1.36199e-14 -0.814683 16.5984)
(1.37329e-14 -0.758317 16.6949)
(1.48145e-14 -0.703605 16.735)
(1.60015e-14 -0.63946 16.7501)
(1.69616e-14 -0.528993 16.7603)
(1.9583e-14 -0.312355 16.7711)
(2.21837e-14 0.0778617 16.7481)
(2.27428e-14 0.626483 16.5852)
(1.92214e-14 1.15799 16.1879)
(1.46097e-14 1.53472 15.5851)
(1.13686e-14 1.72477 14.8609)
(1.04717e-14 1.76239 14.0954)
(8.86834e-15 1.6986 13.3461)
(7.71889e-15 1.57632 12.6484)
(6.50713e-15 1.42621 12.0197)
(6.02929e-15 1.26978 11.4752)
(5.68966e-15 1.11004 10.986)
(5.67267e-15 1.00312 10.6394)
(5.41621e-15 0.767448 10.1455)
(-4.65239e-16 0.334064 4.77665)
(9.25008e-15 0.353582 4.14838)
(6.04671e-15 0.587789 3.21756)
(4.90293e-15 0.959807 0.940406)
(4.02566e-15 0.841747 -0.626246)
(1.75811e-14 0.395353 -1.22128)
(2.80057e-14 0.0644852 -1.56603)
(-9.14545e-15 -0.278508 -1.34045)
(-1.60922e-14 -0.528356 -0.657823)
(-1.57276e-14 -0.767326 0.343381)
(3.68436e-16 -0.824341 1.59934)
(5.49793e-15 -0.626713 2.71597)
(-2.05967e-16 -0.405162 3.46112)
(-1.84549e-15 -0.185804 3.85954)
(-1.61863e-15 -0.0344049 3.9891)
(-2.9434e-15 0.00246728 3.99178)
(-3.17632e-15 -0.0525705 4.01371)
(-9.37135e-15 -0.155986 4.1225)
(-6.06147e-15 -0.307912 4.33342)
(7.45522e-16 -0.492062 4.60036)
(1.22054e-15 -0.686101 5.03646)
(-3.02293e-15 -0.896804 5.88441)
(2.17458e-15 -1.10007 7.14373)
(6.16613e-15 -1.25682 8.60353)
(4.30063e-15 -1.34911 10.0771)
(4.78207e-15 -1.38108 11.4766)
(5.27496e-15 -1.36834 12.7786)
(5.72655e-15 -1.32799 13.9859)
(6.64185e-15 -1.27254 15.1126)
(7.2388e-15 -1.19478 16.1679)
(7.19346e-15 -1.06938 17.138)
(8.02453e-15 -0.868067 17.9835)
(7.97071e-15 -0.555528 18.6262)
(7.05429e-15 -0.145762 18.9789)
(4.68002e-15 0.285514 18.9552)
(3.6257e-15 0.637657 18.4778)
(9.26682e-16 0.798735 17.7244)
(-1.58755e-15 0.800071 16.9116)
(-3.14936e-15 0.735237 16.1499)
(-4.05003e-15 0.657693 15.4404)
(-3.69026e-15 0.55526 14.7379)
(-2.17108e-15 0.367478 13.9793)
(-1.97491e-15 0.0263807 13.1864)
(4.62011e-15 -0.433771 12.6333)
(9.16518e-15 -0.853979 12.4888)
(1.22034e-14 -1.09967 12.678)
(1.27433e-14 -1.11815 13.0441)
(1.14412e-14 -0.888206 13.4896)
(9.11604e-15 -0.406841 13.9831)
(6.28331e-15 0.314644 14.3816)
(4.15903e-15 0.998167 14.3313)
(3.11633e-15 1.38561 13.8436)
(2.62602e-15 1.51905 13.1389)
(2.20401e-15 1.5117 12.3642)
(1.95328e-15 1.44011 11.588)
(2.69915e-15 1.34383 10.842)
(3.66603e-15 1.24085 10.1406)
(4.96046e-15 1.13841 9.49038)
(5.61495e-15 1.03836 8.89442)
(5.44954e-15 0.939588 8.35402)
(6.52094e-15 0.838441 7.86964)
(8.41712e-15 0.727225 7.4479)
(1.12292e-14 0.602513 7.10367)
(1.18389e-14 0.481205 6.81948)
(1.0641e-14 0.351068 6.52996)
(4.23837e-15 0.0725514 6.33687)
(-1.08827e-14 -0.403544 6.57805)
(-2.18134e-14 -0.899946 7.17477)
(-2.17065e-14 -1.26431 7.84679)
(-1.68553e-14 -1.49466 8.50461)
(-1.08987e-14 -1.64054 9.17927)
(-6.38853e-15 -1.72698 9.90801)
(-4.38564e-15 -1.7548 10.7125)
(-8.91364e-16 -1.70811 11.5818)
(1.35155e-15 -1.59752 12.455)
(6.06603e-15 -1.46123 13.2616)
(9.11477e-15 -1.32408 13.9548)
(8.85048e-15 -1.1994 14.5057)
(9.8648e-15 -1.09964 14.9044)
(1.04016e-14 -1.02048 15.1637)
(1.14684e-14 -0.941572 15.3007)
(1.18188e-14 -0.857287 15.3285)
(1.28212e-14 -0.779211 15.2711)
(1.06082e-14 -0.716117 15.171)
(1.09608e-14 -0.655081 15.0731)
(1.58183e-14 -0.552307 15.0048)
(1.44647e-14 -0.335177 14.9687)
(1.59957e-14 0.0862003 14.9204)
(1.92627e-14 0.708077 14.7468)
(1.95752e-14 1.32017 14.3612)
(1.52338e-14 1.75572 13.8066)
(1.14261e-14 1.97565 13.1642)
(9.69007e-15 2.01925 12.5008)
(7.65804e-15 1.94515 11.8609)
(5.69624e-15 1.80243 11.272)
(4.88629e-15 1.6267 10.7474)
(4.70762e-15 1.44273 10.3007)
(4.9074e-15 1.25662 9.90391)
(4.96753e-15 1.13093 9.63315)
(4.79709e-15 0.866148 9.23024)
(-5.56874e-17 0.388573 4.73354)
(6.46121e-15 0.426351 4.13143)
(6.29728e-15 0.747709 3.0074)
(7.19186e-15 1.13506 0.527557)
(6.4854e-15 0.93343 -0.667061)
(8.82358e-16 0.442727 -1.24471)
(-4.56094e-15 0.0762969 -1.56182)
(-1.44408e-14 -0.330494 -1.3409)
(-1.10749e-14 -0.624903 -0.674544)
(-3.69114e-15 -0.902208 0.301825)
(8.74927e-16 -0.970458 1.53202)
(-2.07891e-15 -0.740757 2.622)
(-2.60345e-15 -0.4793 3.33245)
(-1.98408e-15 -0.220383 3.69376)
(-5.46179e-16 -0.0431573 3.77956)
(-5.70589e-15 -0.00153187 3.73156)
(-5.53252e-15 -0.0664515 3.69882)
(8.49399e-16 -0.181238 3.74983)
(-2.1289e-15 -0.342337 3.79227)
(-1.13853e-16 -0.548797 3.81058)
(-6.5686e-15 -0.802585 4.24348)
(-5.463e-15 -1.08945 5.28137)
(1.57743e-15 -1.34025 6.64192)
(4.07098e-15 -1.51005 8.03389)
(3.40226e-15 -1.59795 9.34425)
(3.02737e-15 -1.62135 10.5702)
(2.56519e-15 -1.60073 11.7345)
(3.8709e-15 -1.55389 12.8536)
(5.73934e-15 -1.49318 13.9406)
(6.78619e-15 -1.40866 15.0003)
(7.36038e-15 -1.26897 16.0121)
(7.91225e-15 -1.041 16.9298)
(8.29248e-15 -0.682267 17.6678)
(7.78417e-15 -0.200982 18.1262)
(6.63027e-15 0.318257 18.1958)
(4.48554e-15 0.752153 17.7577)
(2.14519e-15 0.951008 17.0018)
(1.64984e-16 0.954083 16.1765)
(-1.27439e-15 0.880165 15.4071)
(-2.71021e-15 0.799586 14.6952)
(-2.7671e-15 0.706567 13.9975)
(-3.9452e-15 0.535875 13.2443)
(2.06075e-15 0.180978 12.3879)
(6.05905e-15 -0.354745 11.694)
(1.14296e-14 -0.867338 11.405)
(1.36491e-14 -1.17861 11.464)
(1.41827e-14 -1.23517 11.7085)
(1.10766e-14 -1.02553 12.0393)
(7.97321e-15 -0.544198 12.4459)
(2.09191e-15 0.234098 12.8433)
(-6.73602e-17 1.03193 12.8644)
(1.26293e-15 1.50219 12.472)
(3.14189e-15 1.6758 11.8696)
(3.31389e-15 1.68323 11.1942)
(3.14619e-15 1.61356 10.5076)
(2.58889e-15 1.5127 9.83933)
(2.03624e-15 1.40161 9.20463)
(2.27523e-15 1.28893 8.61203)
(3.59074e-15 1.17732 8.06646)
(2.98403e-15 1.0661 7.57011)
(5.45307e-15 0.950649 7.1242)
(7.50192e-15 0.821358 6.73847)
(8.04536e-15 0.679798 6.42651)
(1.02303e-14 0.554362 6.15114)
(1.23772e-14 0.411797 5.84922)
(1.35006e-15 0.0392305 5.73126)
(-1.17285e-14 -0.561369 6.10986)
(-1.75019e-14 -1.10722 6.70083)
(-1.43954e-14 -1.47282 7.2561)
(-7.83825e-15 -1.70791 7.78289)
(-4.44293e-15 -1.87499 8.35657)
(-8.53846e-16 -1.99422 9.03905)
(1.48306e-15 -2.05717 9.86928)
(5.50773e-15 -2.02675 10.8144)
(8.61462e-15 -1.9038 11.7548)
(9.88458e-15 -1.7334 12.5791)
(1.0109e-14 -1.54706 13.2367)
(8.75945e-15 -1.36605 13.7112)
(9.74888e-15 -1.21315 14.007)
(1.15837e-14 -1.08808 14.1499)
(1.21107e-14 -0.968011 14.1619)
(1.78236e-14 -0.850088 14.0539)
(2.22105e-14 -0.752738 13.8531)
(2.58067e-14 -0.689273 13.6155)
(3.0016e-14 -0.64439 13.4063)
(3.06874e-14 -0.563454 13.2672)
(2.59218e-14 -0.355792 13.1993)
(1.95772e-14 0.0937259 13.1407)
(1.42653e-14 0.786457 12.9583)
(1.58122e-14 1.46889 12.5738)
(1.37265e-14 1.94879 12.0546)
(1.09398e-14 2.18675 11.484)
(9.16859e-15 2.22977 10.9158)
(6.72e-15 2.14329 10.3806)
(5.24049e-15 1.98063 9.8974)
(3.89376e-15 1.78126 9.47547)
(3.76508e-15 1.57205 9.12542)
(3.85966e-15 1.36305 8.82101)
(4.07224e-15 1.22293 8.62824)
(3.97563e-15 0.939547 8.31021)
(3.57913e-15 0.443487 4.69666)
(4.85327e-15 0.508325 4.10731)
(5.66962e-15 0.921871 2.73553)
(8.60338e-15 1.29984 0.186134)
(5.60511e-15 1.00837 -0.690835)
(-1.02872e-14 0.487948 -1.26868)
(-8.94259e-15 0.0865702 -1.55459)
(-1.141e-14 -0.381117 -1.33923)
(-2.52278e-15 -0.718808 -0.695309)
(1.99772e-16 -1.03399 0.249793)
(-3.65915e-15 -1.11333 1.44744)
(-1.35503e-15 -0.85141 2.50259)
(-8.20482e-16 -0.54963 3.16594)
(-1.79767e-16 -0.250251 3.47532)
(-9.54351e-16 -0.0463078 3.49936)
(3.98207e-15 0.000179376 3.37807)
(1.549e-15 -0.0745751 3.27654)
(-3.354e-15 -0.189286 3.20448)
(-1.08081e-14 -0.348019 2.87886)
(-6.94996e-15 -0.601096 2.73968)
(-3.668e-15 -0.952003 3.43994)
(-3.10429e-15 -1.30766 4.66295)
(-8.80955e-17 -1.57624 5.93822)
(-1.01307e-15 -1.74073 7.0974)
(-1.9646e-15 -1.82298 8.16428)
(-7.2606e-16 -1.84613 9.20155)
(3.00958e-16 -1.82847 10.2443)
(2.70164e-15 -1.78529 11.3014)
(4.24711e-15 -1.72809 12.378)
(5.37763e-15 -1.64436 13.4748)
(6.47499e-15 -1.49626 14.566)
(7.88128e-15 -1.24601 15.5995)
(9.28596e-15 -0.8436 16.4804)
(1.00643e-14 -0.288024 17.0916)
(9.78414e-15 0.327717 17.303)
(6.02144e-15 0.856266 16.9411)
(3.93619e-15 1.09942 16.2022)
(1.69826e-15 1.10498 15.3764)
(-1.75749e-16 1.02088 14.6103)
(-2.51796e-15 0.935965 13.9068)
(-2.1586e-15 0.852683 13.2234)
(-2.75865e-15 0.70041 12.495)
(2.25565e-15 0.350941 11.6468)
(7.2501e-15 -0.246674 10.8489)
(1.03515e-14 -0.851019 10.4291)
(1.1072e-14 -1.22964 10.3675)
(1.13064e-14 -1.32665 10.5021)
(1.17852e-14 -1.14246 10.7298)
(8.64487e-15 -0.670685 11.0508)
(7.39132e-15 0.145282 11.4198)
(3.77576e-15 1.04622 11.4743)
(1.25072e-15 1.59303 11.1484)
(4.07499e-15 1.80443 10.6292)
(5.25956e-15 1.82725 10.0408)
(5.49321e-15 1.7617 9.43557)
(4.70916e-15 1.65888 8.83993)
(2.69488e-15 1.54211 8.26903)
(1.26351e-15 1.42126 7.73277)
(3.08296e-15 1.29992 7.23733)
(3.89642e-15 1.17792 6.78503)
(6.93351e-15 1.04924 6.37799)
(7.17589e-15 0.903127 6.02872)
(8.30046e-15 0.749431 5.74578)
(1.09236e-14 0.624184 5.4734)
(7.50623e-15 0.458864 5.17408)
(-6.15122e-15 -0.0325787 5.18302)
(-1.57224e-14 -0.734227 5.6601)
(-1.42735e-14 -1.28872 6.16632)
(-8.89441e-15 -1.64143 6.55453)
(-3.50519e-15 -1.88694 6.92267)
(-5.0632e-16 -2.09188 7.39773)
(3.91079e-15 -2.26832 8.07736)
(7.8686e-15 -2.3876 8.99631)
(1.05838e-14 -2.37549 10.0572)
(1.11862e-14 -2.2249 11.0641)
(1.35531e-14 -2.00165 11.884)
(1.25477e-14 -1.75159 12.49)
(9.68838e-15 -1.50541 12.8917)
(1.14838e-14 -1.29501 13.1086)
(1.49118e-14 -1.1209 13.1727)
(2.35351e-14 -0.954252 13.0992)
(3.44315e-14 -0.796299 12.8841)
(4.05448e-14 -0.676502 12.55)
(4.7457e-14 -0.617146 12.1653)
(4.89638e-14 -0.601713 11.8233)
(5.36747e-14 -0.560328 11.593)
(5.12393e-14 -0.375885 11.4821)
(3.79526e-14 0.098736 11.4103)
(2.26516e-14 0.862954 11.216)
(1.41127e-14 1.60733 10.827)
(1.24442e-14 2.11717 10.3388)
(1.06064e-14 2.36091 9.83632)
(8.18645e-15 2.39647 9.35906)
(5.91634e-15 2.29521 8.92407)
(3.26254e-15 2.11269 8.54219)
(2.58128e-15 1.89136 8.21914)
(2.72868e-15 1.65878 7.9633)
(2.98886e-15 1.42925 7.74832)
(3.11711e-15 1.28007 7.637)
(3.26652e-15 0.989303 7.39754)
(1.04047e-14 0.49907 4.6651)
(9.07589e-15 0.602543 4.06489)
(8.30629e-15 1.10593 2.40778)
(1.14789e-14 1.4515 -0.0741568)
(2.2967e-15 1.07016 -0.710583)
(-6.03046e-15 0.531328 -1.28971)
(1.52909e-14 0.0953627 -1.5436)
(-5.22025e-15 -0.429956 -1.33442)
(-4.68108e-15 -0.809371 -0.718231)
(-3.05212e-15 -1.16199 0.190557)
(-2.88702e-15 -1.25213 1.35012)
(8.74696e-16 -0.957379 2.36282)
(3.15411e-16 -0.614577 2.96435)
(1.27494e-15 -0.273594 3.20293)
(-1.11838e-16 -0.0413622 3.14422)
(-1.55677e-15 0.00923311 2.92382)
(-1.34685e-15 -0.0678583 2.7166)
(-1.56568e-14 -0.162056 2.26031)
(-2.4336e-14 -0.325366 1.47097)
(-6.97387e-15 -0.692473 1.67952)
(-5.8011e-15 -1.14358 2.76115)
(-6.39336e-15 -1.52297 3.93819)
(-3.03724e-15 -1.78079 4.94413)
(-8.94594e-15 -1.93725 5.8205)
(-5.86774e-15 -2.02384 6.67389)
(-3.10134e-15 -2.05878 7.56966)
(-5.1634e-16 -2.05446 8.52206)
(4.94247e-16 -2.0239 9.52576)
(3.08271e-15 -1.97897 10.5859)
(5.20923e-15 -1.90496 11.7111)
(7.02012e-15 -1.75659 12.8804)
(8.33045e-15 -1.49057 14.0399)
(9.78181e-15 -1.04886 15.0835)
(1.10011e-14 -0.417371 15.8737)
(1.18729e-14 0.303219 16.2685)
(1.1154e-14 0.942798 16.0266)
(8.06221e-15 1.23983 15.3318)
(4.73433e-15 1.24989 14.5217)
(1.98746e-15 1.15519 13.7714)
(-5.32857e-16 1.06494 13.0858)
(-2.20405e-15 0.989676 12.4261)
(-1.23146e-15 0.855056 11.7431)
(6.21904e-15 0.52818 10.9494)
(6.92336e-15 -0.113801 10.0788)
(6.85049e-15 -0.807366 9.54233)
(5.79349e-15 -1.25491 9.37093)
(6.03311e-15 -1.39423 9.40635)
(7.17275e-15 -1.23865 9.5396)
(8.11084e-15 -0.784031 9.77611)
(7.22043e-15 0.055149 10.1006)
(5.01893e-15 1.04904 10.1603)
(4.25556e-15 1.66423 9.87837)
(5.17452e-15 1.90919 9.42687)
(6.84052e-15 1.94681 8.91464)
(7.63349e-15 1.88669 8.38323)
(7.37759e-15 1.78385 7.85496)
(6.33542e-15 1.66332 7.34459)
(3.49277e-15 1.53599 6.86293)
(4.57986e-15 1.40659 6.41667)
(5.49376e-15 1.27535 6.00774)
(4.43942e-15 1.13439 5.63928)
(2.98813e-15 0.973506 5.32565)
(5.58132e-15 0.813133 5.06617)
(7.3065e-15 0.688631 4.79471)
(-2.17782e-15 0.484128 4.5208)
(-1.41088e-14 -0.142492 4.69797)
(-1.36794e-14 -0.899852 5.19161)
(-1.10877e-14 -1.42335 5.5139)
(-5.10238e-15 -1.75665 5.67131)
(1.41015e-16 -2.02975 5.87632)
(4.81753e-15 -2.30566 6.31929)
(8.70818e-15 -2.57381 7.09325)
(1.01693e-14 -2.76531 8.16744)
(1.0452e-14 -2.7591 9.35446)
(1.30865e-14 -2.55573 10.4003)
(1.25233e-14 -2.26089 11.1841)
(8.37455e-15 -1.93845 11.7258)
(9.359e-15 -1.62527 12.0664)
(1.14226e-14 -1.35856 12.2367)
(1.90085e-14 -1.13449 12.2687)
(2.94624e-14 -0.91324 12.1608)
(3.73166e-14 -0.702059 11.8814)
(4.50742e-14 -0.54757 11.4372)
(4.44774e-14 -0.488879 10.9032)
(5.02332e-14 -0.512584 10.4043)
(6.04282e-14 -0.530083 10.0482)
(6.52819e-14 -0.387017 9.8614)
(5.40112e-14 0.106708 9.74989)
(3.18859e-14 0.941129 9.52365)
(1.66647e-14 1.73727 9.12214)
(1.00832e-14 2.26184 8.66461)
(8.57729e-15 2.49947 8.23046)
(7.62282e-15 2.52136 7.84169)
(6.32997e-15 2.40329 7.50207)
(5.11125e-15 2.20097 7.2162)
(3.3273e-15 1.95881 6.98616)
(2.64081e-15 1.70471 6.82247)
(2.69951e-15 1.45515 6.68985)
(2.73413e-15 1.30359 6.66468)
(2.8483e-15 1.01847 6.50568)
(6.9171e-15 0.5519 4.63929)
(9.75224e-15 0.709875 3.9925)
(8.29169e-15 1.29503 2.03661)
(1.26866e-14 1.58818 -0.255229)
(-2.84076e-15 1.12254 -0.73225)
(-9.48273e-15 0.572722 -1.30535)
(-2.34064e-14 0.102834 -1.52808)
(-5.40533e-15 -0.476643 -1.32551)
(-3.97175e-15 -0.89601 -0.741465)
(-6.38353e-15 -1.28566 0.127255)
(-2.254e-15 -1.38605 1.24428)
(7.6292e-16 -1.05714 2.20633)
(-1.91726e-16 -0.67216 2.72214)
(9.56903e-16 -0.289037 2.85241)
(-1.88075e-15 -0.0279134 2.67246)
(-1.22827e-15 0.028627 2.29737)
(-7.40786e-15 -0.0218538 1.78593)
(-3.94296e-14 -0.0821573 0.459555)
(-2.93148e-14 -0.34392 0.0227136)
(-1.04159e-14 -0.860319 1.00655)
(-1.00146e-14 -1.34184 2.13286)
(-1.00389e-14 -1.7027 3.03592)
(-6.52372e-15 -1.94574 3.76094)
(-9.9577e-15 -2.10519 4.44604)
(-8.87995e-15 -2.20678 5.18233)
(-6.57891e-15 -2.25981 5.99469)