/*--------------------------------*- C++ -*----------------------------------*\
| =========                 |                                                 |
| \\      /  F ield         | OpenFOAM: The Open Source CFD Toolbox           |
|  \\    /   O peration     | Version:  4.1                                   |
|   \\  /    A nd           | Web:      www.OpenFOAM.org                      |
|    \\/     M anipulation  |                                                 |
\*---------------------------------------------------------------------------*/
FoamFile
{
    version     2.0;
    format      ascii;
    class       volScalarField;
    location    "800";
    object      p;
}
// * * * * * * * * * * * * * * * * * * * * * * * * * * * * * * * * * * * * * //

dimensions      [0 2 -2 0 0 0 0];

internalField   nonuniform List<scalar> 
26785
(
62.0661
45.7949
35.1644
26.9213
20.4088
16.7346
17.1289
21.5902
30.4452
43.3752
58.7758
75.3508
92.4598
109.75
126.951
143.821
160.152
175.746
190.418
203.959
216.117
226.72
235.415
242.493
248.179
251.537
252.563
253.266
254.015
255.092
256.194
257.092
257.51
257.063
255.413
252.305
247.625
241.441
233.939
225.294
215.528
204.441
192.025
178.886
166.168
156.01
150.266
149.283
152.36
157.369
162.474
166.884
170.408
173.009
174.562
174.796
173.34
170.192
166.421
163.42
161.783
161.55
161.907
162.045
161.602
160.512
158.837
156.68
154.144
151.317
148.276
145.083
141.79
138.443
135.086
131.752
128.458
125.218
122.036
118.856
115.551
112.179
108.879
105.595
102.075
98.0776
93.6711
89.0368
84.1759
79.0278
73.6033
67.9111
61.9425
55.709
49.1689
42.1616
34.3153
25.3442
14.5655
5.07461
61.8136
45.7377
35.125
26.8826
20.3703
16.6843
17.068
21.5128
30.3586
43.2967
58.7074
75.2881
92.4001
109.693
126.895
143.765
160.098
175.692
190.367
203.91
216.074
226.685
235.38
242.449
248.093
251.445
252.523
253.261
254.006
255.074
256.173
257.068
257.472
257.01
255.347
252.225
247.53
241.336
233.828
225.186
215.428
204.345
191.91
178.736
165.953
155.731
149.977
149.014
152.177
157.284
162.454
166.905
170.462
173.096
174.669
174.898
173.415
170.203
166.347
163.3
161.627
161.408
161.804
161.976
161.557
160.482
158.816
156.666
154.136
151.314
148.278
145.088
141.798
138.454
135.099
131.767
128.474
125.235
122.058
118.887
115.572
112.185
108.888
105.628
102.124
98.1069
93.6735
89.0337
84.1687
79.0084
73.576
67.8774
61.8984
55.6636
49.1396
42.1648
34.3571
25.3461
14.4566
4.78255
61.4795
45.6707
35.0674
26.8233
20.3085
16.5922
16.9463
21.3535
30.1788
43.1332
58.5642
75.1566
92.2748
109.571
126.777
143.649
159.984
175.58
190.258
203.808
215.983
226.609
235.305
242.364
247.956
251.304
252.483
253.25
253.974
255.034
256.126
257.004
257.382
256.897
255.21
252.065
247.348
241.136
233.621
224.987
215.248
204.178
191.718
178.485
165.585
155.208
149.392
148.444
151.787
157.1
162.412
166.944
170.553
173.229
174.829
175.068
173.579
170.307
166.328
163.206
161.447
161.217
161.654
161.869
161.481
160.426
158.776
156.638
154.118
151.306
148.279
145.096
141.814
138.474
135.124
131.797
128.506
125.269
122.105
118.95
115.613
112.193
108.899
105.679
102.208
98.1487
93.6632
89.0184
84.1504
78.9695
73.527
67.8196
61.8213
55.5845
49.0887
42.1688
34.4348
25.3544
14.2321
4.24796
61.0696
45.5536
34.968
26.7359
20.2242
16.4643
16.7722
21.1206
29.9116
42.8878
58.3479
74.9569
92.0842
109.387
126.596
143.472
159.809
175.409
190.091
203.649
215.841
226.488
235.185
242.237
247.788
251.131
252.443
253.22
253.917
254.966
256.039
256.891
257.237
256.722
255.007
251.834
247.091
240.856
233.333
224.709
215.002
203.959
191.475
178.176
165.124
154.521
148.613
147.664
151.24
156.835
162.336
166.973
170.638
173.364
175.003
175.275
173.812
170.502
166.398
163.195
161.323
161.045
161.504
161.754
161.396
160.364
158.731
156.608
154.102
151.303
148.287
145.115
141.841
138.508
135.163
131.845
128.557
125.322
122.179
119.046
115.672
112.202
108.901
105.735
102.313
98.1943
93.6376
88.9975
84.1303
78.9221
73.4719
67.7526
61.719
55.4718
49.0038
42.1454
34.5194
25.3796
13.9424
3.46668
60.5995
45.4218
34.858
26.6448
20.1362
16.3163
16.5568
20.8237
29.5636
42.565
58.0612
74.6907
91.8291
109.139
126.354
143.235
159.575
175.178
189.865
203.433
215.644
226.316
235.015
242.064
247.593
250.921
252.4
253.166
253.833
254.864
255.907
256.728
257.039
256.49
254.745
251.544
246.771
240.513
232.981
224.371
214.703
203.703
191.205
177.844
164.624
153.727
147.683
146.707
150.557
156.496
162.227
166.987
170.709
173.48
175.167
175.484
174.086
170.778
166.565
163.277
161.296
160.944
161.397
161.663
161.324
160.309
158.693
156.585
154.093
151.308
148.306
145.146
141.882
138.557
135.22
131.912
128.627
125.391
122.283
119.178
115.749
112.207
108.882
105.776
102.433
98.2404
93.6028
88.9855
84.121
78.8768
73.4245
67.6937
61.6106
55.3464
48.906
42.1072
34.6022
25.4615
14.006
2.99763
59.9693
45.2606
34.7348
26.5514
20.0509
16.1613
16.3135
20.4759
29.144
42.1705
57.7078
74.3606
91.5112
108.83
126.051
142.936
159.281
174.888
189.581
203.159
215.39
226.091
234.792
241.843
247.371
250.686
252.355
253.089
253.722
254.726
255.732
256.518
256.791
256.207
254.433
251.204
246.406
240.123
232.581
223.983
214.361
203.423
190.925
177.516
164.131
152.889
146.663
145.627
149.776
156.106
162.093
166.987
170.764
173.569
175.309
175.671
174.37
171.112
166.819
163.454
161.381
160.944
161.362
161.619
161.282
160.276
158.671
156.576
154.098
151.329
148.34
145.193
141.941
138.624
135.293
132.001
128.718
125.477
122.424
119.346
115.84
112.212
108.832
105.788
102.56
98.2888
93.5681
88.9948
84.133
78.8416
73.3937
67.6503
61.5073
55.218
48.7851
42.082
34.7755
25.7473
15.0337
3.73899
59.2563
45.0934
34.6067
26.4593
19.9691
16.0029
16.0519
20.0931
28.6686
41.7171
57.2974
73.9736
91.1358
108.462
125.69
142.58
158.929
174.54
189.24
202.828
215.08
225.809
234.515
241.577
247.122
250.447
252.3
252.98
253.582
254.552
255.516
256.264
256.498
255.88
254.077
250.825
246.004
239.7
232.146
223.558
213.984
203.123
190.645
177.209
163.68
152.054
145.589
144.471
148.934
155.686
161.942
166.975
170.807
173.632
175.42
175.83
174.637
171.476
167.149
163.727
161.585
161.058
161.414
161.637
161.285
160.275
158.675
156.59
154.125
151.369
148.395
145.259
142.018
138.71
135.385
132.113
128.833
125.577
122.61
119.55
115.937
112.225
108.761
105.774
102.691
98.3452
93.5349
89.0225
84.1561
78.8055
73.3666
67.5924
61.4112
55.1781
48.788
42.249
35.277
26.3982
15.6795
4.26825
58.5568
44.9082
34.4663
26.37
19.8953
15.8467
15.7738
19.6755
28.1384
41.2088
56.8355
73.5357
90.7088
108.042
125.275
142.168
158.521
174.136
188.842
202.44
214.713
225.471
234.185
241.27
246.843
250.197
252.218
252.836
253.408
254.341
255.264
255.972
256.165
255.512
253.683
250.413
245.574
239.253
231.686
223.104
213.577
202.807
190.373
176.934
163.298
151.264
144.502
143.286
148.07
155.261
161.788
166.959
170.844
173.676
175.499
175.961
174.864
171.847
167.54
164.09
161.905
161.288
161.562
161.726
161.34
160.315
158.712
156.633
154.177
151.433
148.472
145.349
142.118
138.818
135.496
132.248
128.972
125.688
122.839
119.796
116.031
112.236
108.701
105.751
102.8
98.4057
93.4993
89.0558
84.1475
78.7541
73.4157
67.631
61.4478
55.444
49.2249
42.4215
35.1385
26.6255
16.6535
4.99769
57.8659
44.7023
34.3213
26.2912
19.8361
15.7028
15.491
19.2354
27.5614
40.6509
56.3268
73.0518
90.2353
107.574
124.811
141.707
158.062
173.68
188.39
201.997
214.289
225.076
233.805
240.925
246.536
249.935
252.107
252.659
253.194
254.091
254.981
255.646
255.796
255.108
253.255
249.97
245.121
238.787
231.209
222.629
213.148
202.484
190.116
176.703
163.007
150.554
143.446
142.121
147.223
154.857
161.646
166.946
170.882
173.716
175.553
176.058
175.041
172.205
167.971
164.516
162.33
161.627
161.803
161.889
161.452
160.401
158.788
156.709
154.26
151.526
148.576
145.463
142.241
138.948
135.628
132.408
129.142
125.809
123.096
120.094
116.139
112.23
108.651
105.715
102.886
98.4164
93.4351
89.1584
84.2001
78.7625
73.6807
68.1275
61.7237
55.4186
49.1477
42.4757
35.1188
26.6831
17.0746
5.09748
57.1893
44.497
34.1811
26.2273
19.7949
15.5773
15.2095
18.7819
26.9446
40.0481
55.7754
72.5257
89.7193
107.063
124.303
141.2
157.556
173.175
187.888
201.502
213.812
224.628
233.38
240.548
246.206
249.668
251.972
252.445
252.938
253.797
254.663
255.29
255.396
254.673
252.797
249.503
244.65
238.311
230.724
222.144
212.707
202.159
189.884
176.526
162.83
149.964
142.451
141.014
146.431
154.5
161.529
166.945
170.928
173.76
175.594
176.136
175.183
172.538
168.433
164.98
162.835
162.062
162.131
162.123
161.623
160.535
158.905
156.822
154.375
151.649
148.709
145.604
142.389
139.103
135.78
132.584
129.337
125.946
123.346
120.391
116.205
112.186
108.655
105.762
103.105
98.4375
93.3829
89.4299
84.7326
78.9737
73.6023
68.0331
61.9087
55.6749
49.258
42.414
34.9689
26.7213
17.4279
5.22845
56.4283
44.2839
34.0464
26.1783
19.7726
15.4768
14.9379
18.3273
26.2977
39.4065
55.185
71.9603
89.1636
106.513
123.755
140.653
157.008
172.626
187.34
200.958
213.284
224.13
232.916
240.142
245.848
249.39
251.81
252.199
252.643
253.458
254.305
254.904
254.97
254.211
252.313
249.013
244.164
237.829
230.24
221.66
212.267
201.842
189.683
176.411
162.791
149.537
141.547
140.008
145.728
154.212
161.452
166.964
170.987
173.817
175.635
176.204
175.308
172.845
168.941
165.492
163.403
162.577
162.535
162.424
161.851
160.719
159.067
156.974
154.527
151.805
148.873
145.774
142.563
139.284
135.96
132.785
129.574
126.137
123.592
120.669
116.157
111.886
108.455
105.862
103.467
98.8898
93.5736
89.3358
84.5532
79.1276
73.8248
68.1488
62.005
55.725
49.2152
42.2523
34.7236
26.625
17.5972
5.30196
55.68
44.0778
33.9186
26.1432
19.7654
15.3994
14.6757
17.8787
25.6319
38.735
54.5618
71.3598
88.5716
105.925
123.17
140.068
156.422
172.038
186.751
200.37
212.71
223.585
232.416
239.712
245.468
249.107
251.617
251.924
252.318
253.076
253.903
254.483
254.52
253.727
251.809
248.507
243.669
237.347
229.764
221.187
211.837
201.54
189.518
176.364
162.911
149.326
140.779
139.164
145.155
154.014
161.426
167.013
171.067
173.895
175.69
176.273
175.424
173.116
169.484
166.065
164.023
163.155
163.002
162.784
162.132
160.951
159.271
157.166
154.715
151.995
149.072
145.977
142.767
139.49
136.161
132.974
129.79
126.362
123.844
121.047
116.633
112.012
108.438
105.777
103.071
98.7475
93.8964
89.5421
84.6206
79.2328
73.8732
68.163
62.0263
55.6915
49.0736
41.9852
34.3679
26.3769
17.5637
5.29701
54.9947
43.8618
33.797
26.1265
19.7789
15.352
14.4249
17.4373
24.9508
38.0405
53.9128
70.7302
87.9475
105.304
122.551
139.449
155.803
171.416
186.125
199.743
212.095
223
231.887
239.261
245.082
248.826
251.378
251.621
251.979
252.658
253.46
254.023
254.041
253.225
251.289
247.989
243.17
236.873
229.304
220.734
211.429
201.258
189.391
176.392
163.198
149.376
140.208
138.561
144.752
153.926
161.463
167.098
171.173
173.999
175.774
176.357
175.53
173.356
170.028
166.685
164.679
163.775
163.518
163.194
162.462
161.228
159.518
157.398
154.94
152.22
149.301
146.207
142.994
139.722
136.422
133.262
130.151
126.862
124.041
120.986
116.818
112.637
108.976
105.975
102.816
98.5863
93.9597
89.5203
84.6029
79.286
73.8659
68.1012
61.9428
55.5394
48.8265
41.6383
33.9585
26.0463
17.4039
5.29293
54.3782
43.6479
33.6911
26.1315
19.8143
15.3392
14.1947
17.0131
24.2616
37.329
53.245
70.078
87.2972
104.654
121.901
138.799
155.153
170.763
185.468
199.083
211.445
222.381
231.332
238.792
244.691
248.534
251.075
251.294
251.627
252.207
252.983
253.525
253.529
252.704
250.76
247.466
242.672
236.41
228.869
220.312
211.054
201.004
189.305
176.495
163.63
149.723
139.888
138.271
144.56
153.961
161.568
167.227
171.311
174.135
175.892
176.466
175.656
173.592
170.531
167.332
165.35
164.423
164.071
163.647
162.836
161.55
159.808
157.669
155.202
152.483
149.581
146.509
143.3
140.011
136.666
133.404
130.208
127.04
124.239
121.074
117.045
113.007
109.323
106.121
102.718
98.4893
93.9745
89.451
84.5174
79.2269
73.7525
67.9375
61.7464
55.2724
48.4714
41.2046
33.4942
25.6521
17.1587
5.31676
53.8257
43.4456
33.6023
26.1566
19.8705
15.3629
13.9934
16.6145
23.5704
36.6049
52.5634
69.4094
86.6272
103.981
121.226
138.123
154.476
170.084
184.785
198.396
210.768
221.735
230.757
238.31
244.292
248.212
250.717
250.949
251.251
251.73
252.478
252.997
252.987
252.158
250.221
246.943
242.181
235.965
228.464
219.93
210.718
200.787
189.265
176.666
164.185
150.403
139.868
138.359
144.612
154.13
161.748
167.403
171.484
174.302
176.044
176.614
175.843
173.87
170.965
167.933
165.997
165.07
164.638
164.124
163.239
161.903
160.134
157.985
155.518
152.799
149.899
146.837
143.618
140.286
136.925
133.629
130.312
127.131
124.287
121.089
117.238
113.305
109.591
106.221
102.643
98.4027
93.9173
89.3284
84.37
79.0766
73.5479
67.6805
61.4475
54.9067
48.0282
40.7012
32.9808
25.2003
16.8505
5.35315
53.2388
43.2501
33.5321
26.2007
19.9453
15.4237
13.8271
16.248
22.8839
35.8715
51.8711
68.7289
85.9432
103.291
120.53
137.423
153.776
169.384
184.08
197.688
210.071
221.069
230.168
237.815
243.879
247.852
250.318
250.591
250.847
251.233
251.952
252.448
252.422
251.589
249.668
246.422
241.703
235.544
228.096
219.594
210.433
200.619
189.269
176.899
164.871
151.429
140.111
138.834
144.926
154.433
162.003
167.629
171.693
174.501
176.226
176.796
176.079
174.17
171.334
168.474
166.656
165.762
165.271
164.678
163.726
162.34
160.538
158.373
155.902
153.18
150.258
147.174
143.945
140.585
137.199
133.882
130.518
127.322
124.39
121.132
117.385
113.537
109.811
106.301
102.575
98.3109
93.8124
89.1587
84.1658
78.8499
73.2653
67.342
61.0594
54.457
47.5178
40.1556
32.4457
24.7234
16.5242
5.40474
52.7236
43.0697
33.4807
26.2631
20.0369
15.5202
13.6967
15.9152
22.2087
35.1326
51.1706
68.0393
85.2494
102.589
119.821
136.707
153.058
168.666
183.36
196.965
209.359
220.39
229.567
237.307
243.444
247.453
249.888
250.225
250.415
250.724
251.413
251.886
251.844
251.008
249.104
245.898
241.24
235.153
227.77
219.31
210.21
200.514
189.31
177.198
165.674
152.66
140.475
139.594
145.486
154.865
162.333
167.904
171.938
174.726
176.427
176.996
176.334
174.461
171.692
169.026
167.354
166.523
165.993
165.328
164.307
162.866
161.024
158.829
156.336
153.598
150.657
147.544
144.283
140.902
137.511
134.17
130.789
127.583
124.557
121.223
117.518
113.716
109.973
106.347
102.498
98.1995
93.6677
88.9474
83.9095
78.5555
72.9114
66.9292
60.5945
53.9389
46.9584
39.5878
31.9098
24.2524
16.2204
5.47772
52.2945
42.8944
33.4501
26.3453
20.146
15.6533
13.6038
15.6157
21.5502
34.3929
50.4645
67.3423
84.5484
101.88
119.102
135.979
152.326
167.935
182.627
196.231
208.638
219.702
228.957
236.787
242.981
247.02
249.434
249.857
249.964
250.209
250.871
251.318
251.261
250.423
248.537
245.376
240.791
234.795
227.49
219.083
210.06
200.476
189.381
177.572
166.55
153.827
140.935
140.449
146.254
155.412
162.73
168.223
172.214
174.974
176.645
177.22
176.594
174.743
172.093
169.671
168.175
167.371
166.777
166.022
164.919
163.414
161.523
159.293
156.773
154.014
151.062
147.942
144.666
141.275
137.88
134.508
131.108
127.877
124.751
121.345
117.651
113.862
110.091
106.359
102.403
98.0612
93.4835
88.6951
83.6036
78.2005
72.4952
66.4548
60.0713
53.3739
46.3709
39.0146
31.3856
23.8037
15.9575
5.56825
51.9578
42.7367
33.4422
26.4445
20.2701
15.8202
13.551
15.3502
20.915
33.6581
49.7566
66.6403
83.8422
101.167
118.379
135.245
151.588
167.196
181.889
195.492
207.914
219.011
228.343
236.253
242.488
246.559
248.963
249.481
249.502
249.695
250.332
250.754
250.681
249.842
247.977
244.864
240.36
234.471
227.26
218.925
209.999
200.504
189.493
178.05
167.51
154.922
141.739
141.438
147.222
156.067
163.193
168.587
172.522
175.237
176.878
177.468
176.859
175.049
172.595
170.457
169.108
168.305
167.636
166.786
165.596
164.02
162.077
159.809
157.264
154.487
151.523
148.395
145.109
141.71
138.3
134.889
131.467
128.192
124.962
121.489
117.785
113.988
110.176
106.345
102.291
97.8974
93.2648
88.4065
83.2551
77.7964
72.0307
65.9362
59.511
52.7846
45.7764
38.4522
30.8837
23.3873
15.7411
5.67007
51.6955
42.5986
33.4534
26.5576
20.406
16.0169
13.5402
15.1172
20.3081
32.934
49.0521
65.9367
83.1327
100.451
117.653
134.509
150.846
166.455
181.148
194.753
207.192
218.32
227.724
235.704
241.961
246.073
248.479
249.082
249.036
249.187
249.801
250.2
250.112
249.273
247.43
244.369
239.955
234.184
227.084
218.85
210.046
200.613
189.687
178.667
168.53
156.042
143.195
142.715
148.452
156.839
163.714
168.98
172.839
175.505
177.138
177.746
177.144
175.435
173.249
171.372
170.136
169.321
168.575
167.633
166.356
164.708
162.71
160.403
157.83
155.034
152.053
148.91
145.609
142.197
138.761
135.308
131.86
128.528
125.195
121.654
117.924
114.102
110.238
106.313
102.167
97.7144
93.0205
88.0909
82.8755
77.3577
71.5337
65.3905
58.9318
52.1892
45.1909
37.9126
30.4122
23.0092
15.5715
5.77813
51.4201
42.4765
33.4827
26.6825
20.5506
16.2386
13.5694
14.9153
19.7362
32.226
48.3565
65.236
82.4231
99.7348
116.929
133.774
150.106
165.716
180.411
194.018
206.474
217.633
227.101
235.136
241.404
245.56
247.975
248.655
248.573
248.687
249.282
249.659
249.559
248.722
246.902
243.895
239.578
233.937
226.963
218.869
210.215
200.823
190.01
179.441
169.588
157.26
145.168
144.422
149.948
157.771
164.347
169.451
173.215
175.836
177.453
178.047
177.505
175.972
174.049
172.39
171.238
170.402
169.581
168.546
167.184
165.465
163.41
161.061
158.459
155.64
152.64
149.479
146.161
142.731
139.262
135.767
132.285
128.887
125.456
121.845
118.075
114.212
110.288
106.271
102.036
97.5192
92.7595
87.7575
82.4755
76.8973
71.0181
64.8324
58.3488
51.6012
44.6252
37.4024
29.9747
22.6708
15.4454
5.88765
51.2147
42.3732
33.5269
26.817
20.7016
16.4815
13.6369
14.7505
19.2129
31.5399
47.675
64.5433
81.7175
99.0209
116.207
133.043
149.371
164.984
179.681
193.291
205.765
216.952
226.475
234.549
240.823
245.02
247.453
248.209
248.116
248.201
248.778
249.136
249.026
248.192
246.398
243.449
239.235
233.728
226.897
218.982
210.498
201.147
190.498
180.366
170.695
158.618
147.439
146.474
151.638
158.818
165.054
169.985
173.668
176.251
177.85
178.461
178.013
176.665
174.973
173.492
172.403
171.539
170.642
169.517
168.071
166.281
164.17
161.778
159.143
156.3
153.28
150.1
146.763
143.31
139.805
136.267
132.743
129.271
125.746
122.064
118.243
114.327
110.334
106.226
101.905
97.318
92.4886
87.4137
82.0642
76.4259
70.4957
64.2741
57.7741
51.0309
44.086
36.9244
29.5715
22.3697
15.3548
5.99373
51.0618
42.2847
33.5843
26.9596
20.8579
16.7441
13.7485
14.6319
18.7511
30.8806
47.0116
63.8631
81.0202
98.313
115.491
132.318
148.642
164.26
178.961
192.576
205.066
216.277
225.846
233.945
240.222
244.457
246.918
247.758
247.665
247.728
248.291
248.631
248.514
247.686
245.919
243.032
238.925
233.557
226.886
219.182
210.881
201.594
191.177
181.443
171.865
160.088
149.832
148.73
153.416
159.942
165.822
170.574
174.17
176.738
178.375
179.035
178.675
177.492
176.001
174.667
173.625
172.727
171.753
170.54
169.012
167.153
164.988
162.554
159.887
157.018
153.976
150.773
147.414
143.934
140.388
136.806
133.232
129.683
126.068
122.313
118.432
114.454
110.384
106.185
101.777
97.1161
92.2141
87.0658
81.6492
75.9529
69.9765
63.7256
57.2162
50.4847
43.5766
36.4782
29.1999
22.0997
15.2837
6.09094
50.9568
42.2147
33.651
27.1084
21.0188
17.0237
13.9142
14.5641
18.3589
30.2514
46.3683
63.1989
80.3353
97.6147
114.783
131.601
147.924
163.549
178.256
191.875
204.381
215.612
225.214
233.326
239.6
243.879
246.376
247.309
247.222
247.272
247.822
248.148
248.025
247.206
245.469
242.646
238.649
233.422
226.927
219.458
211.349
202.17
192.059
182.683
173.154
161.694
152.23
151.034
155.235
161.197
166.749
171.33
174.857
177.422
179.077
179.762
179.471
178.435
177.12
175.908
174.897
173.958
172.907
171.61
170.004
168.082
165.865
163.39
160.691
157.796
154.728
151.499
148.113
144.601
141.012
137.382
133.752
130.124
126.422
122.593
118.644
114.596
110.445
106.154
101.657
96.9189
91.9419
86.7203
81.2377
75.4862
69.4682
63.1935
56.6802
49.965
43.0964
36.0601
28.8551
21.8515
15.2088
6.17251
50.8775
42.1602
33.7238
27.262
21.1831
17.3151
14.1388
14.548
18.0431
29.6558
45.7468
62.5527
79.666
96.9297
114.086
130.895
147.217
162.851
177.567
191.191
203.71
214.955
224.58
232.696
238.962
243.293
245.834
246.868
246.792
246.831
247.372
247.685
247.559
246.75
245.046
242.291
238.406
233.323
227.019
219.798
211.885
202.869
193.128
184.088
174.638
163.575
154.793
153.472
157.202
162.685
167.936
172.348
175.787
178.306
179.932
180.617
180.387
179.487
178.322
177.207
176.212
175.227
174.1
172.723
171.047
169.065
166.801
164.288
161.558
158.634
155.537
152.278
148.86
145.311
141.677
137.995
134.304
130.596
126.809
122.903
118.883
114.759
110.523
106.138
101.551
96.7322
91.6782
86.3835
80.8362
75.0319
68.976
62.6814
56.1673
49.4707
42.6416
35.6646
28.5306
21.6154
15.1105
6.23199
50.7774
42.1187
33.8008
27.4182
21.3492
17.6134
14.4144
14.5767
17.807
29.0973
45.1485
61.9259
79.0143
96.2608
113.404
130.203
146.525
162.17
176.895
190.525
203.057
214.308
223.949
232.054
238.316
242.703
245.296
246.44
246.381
246.408
246.944
247.245
247.117
246.32
244.651
241.966
238.193
233.256
227.155
220.188
212.477
203.677
194.346
185.623
176.323
165.79
157.697
156.227
159.461
164.47
169.393
173.592
176.9
179.337
180.913
181.59
181.417
180.635
179.596
178.553
177.56
176.527
175.33
173.881
172.14
170.105
167.797
165.248
162.486
159.532
156.403
153.11
149.656
146.066
142.382
138.646
134.889
131.1
127.228
123.245
119.15
114.946
110.621
106.142
101.464
96.5615
91.4288
86.0608
80.4497
74.5943
68.5027
62.1903
55.6768
48.9991
42.2084
35.2875
28.2223
21.388
14.9873
6.26707
50.6898
42.0886
33.8793
27.5733
21.5157
17.9132
14.7349
14.6379
17.6488
28.5797
44.5758
61.32
78.3817
95.61
112.74
129.527
145.849
161.507
176.244
189.879
202.421
213.671
223.321
231.402
237.668
242.113
244.764
246.026
245.988
246.003
246.536
246.826
246.698
245.915
244.283
241.671
238.009
233.22
227.33
220.617
213.115
204.576
195.672
187.251
178.166
168.243
160.846
159.265
162.004
166.505
171.056
175.004
178.154
180.491
182.007
182.671
182.548
181.867
180.927
179.936
178.937
177.857
176.597
175.084
173.286
171.201
168.853
166.269
163.474
160.488
157.326
153.995
150.5
146.865
143.129
139.334
135.507
131.636
127.682
123.619
119.445
115.158
110.743
106.169
101.399
96.411
91.1981
85.7566
80.082
74.1763
68.0503
61.7209
55.2083
48.5494
41.7962
34.9292
27.9306
21.1732
14.8561
6.28088
50.6053
42.0674
33.9566
27.7241
21.6837
18.2134
15.1003
14.7125
17.5619
28.1052
44.0316
60.737
77.7695
94.9786
112.095
128.87
145.191
160.864
175.614
189.257
201.803
213.049
222.691
230.746
237.023
241.527
244.238
245.626
245.608
245.617
246.149
246.429
246.302
245.534
243.941
241.404
237.852
233.213
227.539
221.074
213.79
205.549
197.072
188.943
180.131
170.836
164.081
162.419
164.708
168.704
172.868
176.551
179.528
181.755
183.202
183.848
183.766
183.166
182.304
181.35
180.342
179.22
177.905
176.335
174.484
172.355
169.969
167.351
164.523
161.504
158.305
154.933
151.395
147.71
143.917
140.059
136.16
132.207
128.168
124.024
119.77
115.397
110.89
106.221
101.359
96.2834
90.9893
85.4739
79.7362
73.7808
67.621
61.2753
54.7639
48.124
41.4083
34.5942
27.6595
20.9795
14.7445
6.28051
50.526
42.0531
34.0302
27.8697
21.86
18.5212
15.497
14.764
17.5345
27.6757
43.519
60.1797
77.1796
94.3679
111.47
128.234
144.555
160.242
175.007
188.657
201.207
212.44
222.059
230.091
236.385
240.947
243.722
245.24
245.237
245.254
245.785
246.054
245.928
245.176
243.625
241.163
237.721
233.233
227.775
221.551
214.495
206.577
198.514
190.676
182.191
173.518
167.331
165.598
167.485
171.006
174.791
178.205
181.003
183.109
184.482
185.105
185.055
184.521
183.72
182.795
181.777
180.621
179.257
177.636
175.738
173.567
171.145
168.493
165.632
162.577
159.339
155.924
152.338
148.601
144.749
140.824
136.848
132.811
128.687
124.46
120.122
115.662
111.063
106.298
101.343
96.1799
90.8043
85.2153
79.415
73.4109
67.2184
60.8575
54.3484
47.7287
41.0512
34.2892
27.4149
20.8167
14.6818
6.27463
50.4436
42.0422
34.0986
28.0123
22.056
18.8443
15.9134
14.8017
17.5633
27.2926
43.0408
59.651
76.6139
93.7791
110.867
127.62
143.942
159.644
174.426
188.082
200.637
211.839
221.428
229.44
235.755
240.377
243.22
244.866
244.871
244.92
245.442
245.699
245.576
244.841
243.333
240.947
237.613
233.277
228.033
222.042
215.222
207.642
199.976
192.428
184.309
176.247
170.561
168.766
170.288
173.369
176.79
179.938
182.552
184.534
185.831
186.429
186.404
185.924
185.173
184.272
183.248
182.061
180.655
178.989
177.047
174.839
172.382
169.697
166.801
163.709
160.43
156.969
153.332
149.539
145.624
141.628
137.572
133.449
129.239
124.926
120.501
115.952
111.259
106.4
101.351
96.1008
90.6441
84.9826
79.1212
73.0702
66.8472
60.4732
53.9684
47.3702
40.7316
34.0201
27.2013
20.6913
14.6841
6.26945
50.3373
42.0305
34.1606
28.155
22.2774
19.1853
16.3476
14.8773
17.6564
26.9548
42.5993
59.1538
76.0751
93.2139
110.286
127.029
143.353
159.073
173.871
187.539
200.088
211.243
220.801
228.796
235.134
239.818
242.731
244.49
244.515
244.625
245.12
245.364
245.243
244.527
243.063
240.753
237.526
233.344
228.308
222.541
215.965
208.726
201.435
194.179
186.451
178.973
173.726
171.886
173.073
175.752
178.829
181.72
184.154
186.014
187.236
187.809
187.805
187.371
186.665
185.787
184.758
183.546
182.103
180.396
178.416
176.172
173.682
170.963
168.032
164.901
161.577
158.068
154.378
150.525
146.544
142.474
138.335
134.124
129.824
125.423
120.908
116.266
111.479
106.524
101.384
96.0463
90.5099
84.7779
78.858
72.763
66.5125
60.1282
53.6298
47.0539
40.4526
33.7875
27.0186
20.5998
14.7347
6.26393
50.2278
42.0151
34.2155
28.2979
22.5172
19.5344
16.7865
14.9866
17.8095
26.6584
42.1961
58.6906
75.5657
92.6742
109.729
126.462
142.79
158.531
173.346
187.034
199.556
210.654
220.178
228.16
234.523
239.269
242.253
244.102
244.184
244.37
244.819
245.048
244.93
244.232
242.814
240.58
237.46
233.431
228.597
223.047
216.718
209.817
202.877
195.913
188.586
181.653
176.785
174.915
175.803
178.12
180.881
183.53
185.792
187.535
188.688
189.24
189.255
188.864
188.198
187.341
186.31
185.077
183.603
181.86
179.846
177.569
175.046
172.294
169.326
166.154
162.784
159.222
155.476
151.561
147.511
143.363
139.138
134.835
130.443
125.949
121.341
116.605
111.722
106.672
101.44
96.0171
90.403
84.6034
78.6284
72.4931
66.2183
59.826
53.3346
46.7794
40.2111
33.5852
26.8605
20.5261
14.7825
6.24775
50.1142
41.9956
34.2658
28.4409
22.7621
19.8691
17.2051
15.1129
18.0082
26.3979
41.8327
58.2636
75.0878
92.1617
109.197
125.921
142.255
158.015
172.861
186.561
199.036
210.071
219.562
227.531
233.922
238.729
241.783
243.709
243.881
244.142
244.536
244.75
244.634
243.957
242.585
240.426
237.413
233.535
228.896
223.555
217.476
210.903
204.29
197.618
190.688
184.253
179.71
177.822
178.45
180.448
182.924
185.353
187.456
189.092
190.183
190.718
190.754
190.402
189.774
188.938
187.908
186.658
185.157
183.384
181.339
179.032
176.479
173.693
170.687
167.471
164.053
160.436
156.629
152.649
148.527
144.298
139.984
135.587
131.099
126.509
121.804
116.97
111.989
106.844
101.522
96.0147
90.3254
84.4614
78.4348
72.2623
65.9653
59.5651
53.0785
46.5396
39.9968
33.4007
26.7141
20.4469
14.7729
6.2076
49.9995
41.9722
34.3146
28.5854
23.0083
20.1788
17.5873
15.2922
18.2391
26.1669
41.5105
57.8744
74.6435
91.6785
108.691
125.406
141.75
157.534
172.422
186.114
198.525
209.494
218.952
226.91
233.33
238.198
241.319
243.317
243.604
243.936
244.268
244.467
244.354
243.698
242.373
240.289
237.382
233.655
229.203
224.066
218.236
211.977
205.67
199.284
192.742
186.754
182.492
180.594
181.003
182.725
184.949
187.181
189.142
190.681
191.72
192.243
192.301
191.987
191.395
190.581
189.553
188.291
186.768
184.97
182.898
180.564
177.981
175.162
172.118
168.857
165.387
161.713
157.843
153.794
149.596
145.283
140.877
136.382
131.794
127.103
122.298
117.364
112.284
107.043
101.631
96.0413
90.2791
84.3532
78.2773
72.0688
65.7491
59.3382
52.8514
46.3218
39.7956
33.2207
26.5669
20.3473
14.6894
6.13931
49.8793
41.9457
34.3626
28.7287
23.2556
20.4787
17.9387
15.541
18.4842
25.9622
41.2318
57.5243
74.2341
91.2264
108.214
124.922
141.274
157.101
172.025
185.685
198.021
208.922
218.347
226.297
232.746
237.674
240.861
242.93
243.35
243.744
244.015
244.199
244.089
243.456
242.178
240.167
237.366
233.787
229.516
224.578
218.995
213.034
207.014
200.911
194.737
189.143
185.127
183.233
183.46
184.948
186.954
189.012
190.846
192.302
193.298
193.815
193.896
193.62
193.063
192.27
191.248
189.977
188.438
186.62
184.525
182.165
179.554
176.703
173.621
170.315
166.792
163.058
159.122
155.001
150.724
146.323
141.821
137.225
132.534
127.739
122.829
117.791
112.611
107.273
101.77
96.0992
90.265
84.2781
78.1529
71.9071
65.5613
59.1345
52.6413
46.1143
39.5981
33.0388
26.4146
20.228
14.5566
6.05022
49.7388
41.9166
34.4109
28.8681
23.5004
20.7856
18.2767
15.8517
18.7255
25.7897
41.0002
57.2147
73.8614
90.8067
107.767
124.468
140.84
156.722
171.661
185.268
197.521
208.354
217.747
225.691
232.17
237.156
240.411
242.553
243.117
243.561
243.772
243.944
243.839
243.228
241.997
240.06
237.364
233.93
229.833
225.09
219.748
214.071
208.323
202.496
196.67
191.423
187.621
185.745
185.829
187.12
188.94
190.846
192.57
193.954
194.916
195.433
195.54
195.301
194.779
194.009
192.994
191.72
190.169
188.334
186.22
183.838
181.2
178.318
175.198
171.847
168.271
164.475
160.47
156.274
151.915
147.424
142.823
138.122
133.324
128.42
123.402
118.258
112.974
107.538
101.944
96.1899
90.2829
84.2336
78.0567
71.7699
65.3935
58.9458
52.4414
45.9129
39.4028
32.8566
26.2595
20.0975
14.4071
5.95069
49.5941
41.885
34.4597
29.0036
23.7429
21.0969
18.6098
16.2238
18.9531
25.6707
40.8208
56.9471
73.5255
90.4214
107.352
124.046
140.461
156.395
171.321
184.858
197.024
207.79
217.152
225.093
231.601
236.644
239.969
242.188
242.904
243.38
243.539
243.701
243.6
243.013
241.829
239.965
237.373
234.081
230.151
225.6
220.495
215.086
209.595
204.042
198.538
193.596
189.978
188.143
188.119
189.247
190.908
192.684
194.313
195.638
196.574
197.097
197.232
197.03
196.543
195.797
194.795
193.521
191.963
190.115
187.984
185.582
182.92
180.007
176.851
173.455
169.824
165.966
161.892
157.619
153.175
148.59
143.887
139.079
134.169
129.153
124.023
118.769
113.378
107.841
102.153
96.3144
90.3318
84.2169
77.9848
71.6532
65.2424