/*--------------------------------*- C++ -*----------------------------------*\
| =========                 |                                                 |
| \\      /  F ield         | OpenFOAM: The Open Source CFD Toolbox           |
|  \\    /   O peration     | Version:  4.1                                   |
|   \\  /    A nd           | Web:      www.OpenFOAM.org                      |
|    \\/     M anipulation  |                                                 |
\*---------------------------------------------------------------------------*/
FoamFile
{
    version     2.0;
    format      ascii;
    class       surfaceScalarField;
    location    "800";
    object      phi;
}
// * * * * * * * * * * * * * * * * * * * * * * * * * * * * * * * * * * * * * //

dimensions      [0 3 -1 0 0 0 0];

internalField   nonuniform List<scalar> 
52920
(
2929.13
-336.048
3222.59
-293.468
3478.28
-255.685
3686.04
-207.758
3833.16
-147.131
3908.58
-75.4148
3913.13
-4.55128
3853.42
59.7052
3745
108.416
3610.33
134.677
3463.44
146.881
3309.27
154.173
3148.7
160.57
2981.32
167.379
2806.33
174.984
2622.78
183.555
2429.66
193.114
2226.09
203.571
2011.82
214.262
1787.6
224.218
1557.02
230.581
1326.17
230.845
1099.22
226.949
860.059
239.156
517.611
342.444
105.736
411.868
-165.941
271.665
-156.508
-9.45441
-19.8056
-136.713
181.389
-201.202
454.52
-273.136
796.286
-341.77
1191.25
-394.97
1629.77
-438.518
2104.89
-475.124
2607.77
-502.886
3127.95
-520.176
3656.11
-528.164
4186.92
-530.813
4720.42
-533.498
5258.39
-537.973
5794.12
-535.726
6305.6
-511.48
6756.02
-450.423
7091.77
-335.751
7267.16
-175.391
7269.79
-2.63742
7121.12
148.672
6889.36
231.758
6642.62
246.741
6421.81
220.814
6251.35
170.458
6157.11
94.2407
6174.25
-17.1407
6333.91
-159.669
6635.77
-301.852
7024.31
-388.544
7390.65
-366.344
7619.11
-228.461
7641.98
-22.8606
7454.81
187.168
7124.52
330.286
6727.26
397.263
6312.34
414.918
5905.15
407.192
5516.59
388.56
5150.23
366.357
4806.42
343.81
4484.4
322.025
4183.36
301.038
3902.95
280.41
3643.39
259.562
3405.49
237.9
3189.95
215.541
2997.56
192.389
2828.7
168.854
2683.1
145.608
2565.98
117.12
2493.84
72.1356
2476.19
17.6495
2486.04
-9.85162
2496.08
-10.0343
2512.92
-16.8419
2561.08
-48.1554
2652.69
-91.6099
2772.13
-119.442
2907.65
-135.522
3064.53
-156.878
3245.65
-181.126
3449
-203.35
3675.36
-226.361
3925.32
-249.953
4198.53
-273.217
4498.77
-300.238
4835.85
-337.075
5221.77
-385.924
5674.73
-452.956
6174.45
-499.724
6691.56
-517.107
-367.715
2975.93
-664.771
3263.43
-580.974
3512.9
-505.151
3717.53
-412.393
3867.11
-296.707
3948.9
-157.21
3958.4
-14.0556
3899.44
118.663
3788.65
219.211
3650.15
273.178
3498.86
298.16
3340.04
312.992
3174.67
325.947
3002.33
339.716
2822.21
355.095
2633.3
372.463
2434.5
391.915
2224.74
413.332
2003.49
435.506
1771.17
456.534
1531.18
470.569
1289.4
472.629
1049.78
466.561
785.409
503.526
427.717
700.133
107.568
732.011
-31.1853
410.408
-12.2437
-28.4121
104.91
-253.875
336.284
-432.583
645.19
-582.047
1006.08
-702.667
1410.47
-799.363
1853.75
-881.797
2329.9
-951.277
2830.45
-1003.44
3345.46
-1035.18
3866.15
-1048.85
4387.55
-1052.22
4909.77
-1055.72
5434.45
-1062.65
5955.05
-1056.33
6450.53
-1006.96
6887.81
-887.709
7219.89
-667.828
7398.68
-354.19
7399.21
-3.16731
7236.91
310.976
6986.26
482.41
6721.26
511.734
6483.2
458.878
6288.59
365.065
6145.64
237.193
6072.05
56.4422
6099.69
-187.305
6252.5
-454.662
6514.7
-650.742
6816.08
-667.731
7053.69
-466.07
7133.45
-102.622
7008.46
312.163
6728.64
610.104
6370.25
755.651
5986.38
798.794
5605.25
788.318
5239.41
754.4
4893.31
712.454
4567.82
669.298
4262.55
627.302
3977
586.589
3711.12
546.285
3465.45
505.237
3241.07
462.274
3038.9
417.709
2859.97
371.322
2705.06
323.761
2573.52
277.152
2469.21
221.423
2409.34
132.011
2403.07
23.9237
2417.86
-24.6483
2423.75
-15.9174
2426.61
-19.7024
2455.41
-76.9612
2532.31
-168.512
2645.47
-232.596
2782.64
-272.692
2947.79
-322.034
3139.7
-373.035
3351.69
-415.335
3581.71
-456.379
3827.92
-496.166
4087.95
-533.249
4364.99
-577.279
4668.82
-640.907
5014.04
-731.139
5427.16
-866.074
5900.37
-972.935
6397.18
-1013.92
-701.485
2952.45
-984.49
3230.99
-859.516
3472.07
-746.232
3672.69
-613.01
3825
-449.019
3915.5
-247.715
3935.22
-33.769
3883.84
170.038
3777.12
325.925
3640.31
409.996
3489.2
449.262
3329.52
472.669
3162.51
492.961
2987.92
514.305
2805.04
537.971
2612.89
564.612
2410.3
594.51
2195.96
627.665
1968.86
662.607
1728.72
696.673
1478.26
721.027
1223.35
727.533
965.724
724.185
661.499
807.748
289.153
1072.48
48.159
973.001
-27.0008
485.559
-1.98252
-53.4426
139.438
-395.302
376.696
-669.846
673.957
-879.31
1017.92
-1046.64
1402.91
-1184.35
1824.32
-1303.21
2276.24
-1403.2
2750.65
-1477.85
3238.24
-1522.77
3730.9
-1541.51
4224.47
-1545.8
4720.29
-1551.54
5221.67
-1564.03
5723.95
-1558.61
6207.97
-1490.98
6643.73
-1323.47
6988.22
-1012.32
7194.61
-560.578
7231.11
-39.6662
7097.65
444.435
6863.73
716.322
6604.57
770.901
6361.21
702.23
6146.21
580.068
5958
425.4
5800.26
214.183
5703.38
-90.4254
5713.59
-464.876
5848.33
-785.478
6070.34
-889.738
6298.56
-694.289
6431.71
-235.779
6380.28
363.592
6167.74
822.647
5864.9
1058.49
5526.83
1136.87
5184.36
1130.79
4851.93
1086.83
4535.28
1029.1
4236.15
968.43
3954.77
908.677
3691.19
850.174
3445.8
791.676
3219.54
731.498
3013.88
667.932
2829.92
601.668
2668.85
532.397
2531.78
460.827
2416.74
392.198
2325.68
312.479
2279.65
178.039
2288.84
14.7388
2311.13
-46.9458
2311.02
-15.8001
2295.46
-4.14741
2310.35
-91.8515
2392.46
-250.616
2518.33
-358.464
2660.65
-415.014
2817.22
-478.608
2982.42
-538.236
3148.89
-581.806
3319.57
-627.055
3497.51
-674.11
3683.72
-719.459
3885.76
-779.311
4116.38
-871.525
4394.15
-1008.91
4756.24
-1228.16
5205.43
-1422.12
5692.13
-1500.62
-993.855
2881.33
-1292.91
3147.47
-1125.66
3377.79
-976.548
3573.32
-808.546
3728.63
-604.329
3829.73
-348.812
3863.08
-67.1252
3823.25
209.865
3724.19
424.987
3592.2
541.986
3444.03
597.433
3285.84
630.85
3119.16
659.646
2943.94
689.514
2759.7
722.217
2565.59
758.718
2360.52
799.575
2143.13
845.061
1911.9
893.825
1665.75
942.823
1406.25
980.528
1138.87
994.911
860.126
1002.93
518.015
1149.86
166.075
1424.41
-6.01108
1145.08
-50.478
530.016
-20.5857
-83.3494
123.805
-539.698
347.984
-894.03
625.134
-1156.46
945.513
-1367.02
1304.11
-1542.95
1696.75
-1695.85
2117.93
-1824.38
2559.94
-1919.86
3013.7
-1976.53
3471.44
-1999.26
3929.95
-2004.3
4392.55
-2014.14
4865.47
-2036.95
5346.95
-2040.09
5819.78
-1963.8
6256.37
-1760.07
6616.21
-1372.16
6851.46
-795.828
6923.75
-111.959
6818.35
549.831
6602.33
932.344
6352.92
1020.31
6111.37
943.785
5889.54
801.891
5683.19
631.754
5485.76
411.613
5314.18
81.147
5221.82
-372.509
5252.84
-816.503
5394.43
-1031.33
5585.12
-884.977
5732.87
-383.532
5725.01
371.449
5564.1
983.566
5311.49
1311.09
5019.44
1428.92
4718.18
1432.05
4422.4
1382.6
4138.42
1313.08
3868.61
1238.24
3613.81
1163.48
3374.6
1089.38
3151.89
1014.38
2947.08
936.312
2762.04
852.971
2598.01
765.695
2456.24
674.168
2338.33
578.736
2240.26
490.273
2161.69
391.048
2131.68
208.051
2160.38
-13.9595
2190.73
-77.3021
2185.92
-10.9835
2154.25
27.5178
2155.71
-93.3136
2229.99
-324.897
2327.94
-456.408
2413.88
-500.953
2498.8
-563.534
2586.27
-625.703
2674.83
-670.367
2776.53
-728.752
2896.52
-794.103
3030.61
-853.553
3182.21
-930.911
3353.29
-1042.6
3547.44
-1203.06
3796.3
-1477.02
4102.17
-1728
4419
-1817.45
-1125.48
2777.76
-1582.17
3029.2
-1377.09
3248.46
-1195.81
3437.69
-997.783
3593.61
-760.25
3704.12
-459.325
3753.21
-116.217
3729.23
233.842
3642.04
512.179
3518.35
665.672
3375.84
739.948
3221.23
785.458
3056.4
824.471
2881.63
864.282
2696.68
907.169
2500.98
954.419
2293.66
1006.89
2073.5
1065.22
1838.82
1128.5
1587.82
1193.82
1320.72
1247.63
1041.79
1273.84
741.337
1303.38
374.803
1516.39
74.1236
1725.09
-38.7979
1258
-79.116
570.327
-52.9912
-109.486
80.8815
-673.576
283.734
-1096.89
535.03
-1407.76
826.756
-1658.75
1154.71
-1870.91
1515.46
-2056.61
1903.92
-2212.84
2312.3
-2328.24
2731.08
-2395.31
3152.1
-2420.28
3572.69
-2424.89
3998.43
-2439.88
4439.26
-2477.78
4897.24
-2498.07
5357.46
-2424.02
5794.37
-2196.99
6169.33
-1747.11
6433.72
-1060.21
6543.51
-221.75
6466.69
626.648
6268.05
1130.99
6029.48
1258.87
5793.8
1179.47
5573.37
1022.32
5364.05
841.073
5154.95
620.715
4945.36
290.73
4780.89
-208.038
4728.31
-763.922
4797.45
-1100.47
4942.26
-1029.79
5082.09
-523.358
5093.35
360.186
4966.29
1110.63
4753.75
1523.64
4502.95
1679.72
4241.15
1693.85
3981.72
1642.03
3730.71
1564.09
3490.75
1478.2
3263.1
1391.13
3048.83
1303.66
2849.33
1213.88
2666.46
1119.18
2502.53
1016.9
2358.89
909.334
2236.71
796.351
2138.53
676.911
2057.73
571.075
1990.7
458.076
1980.24
218.512
2032.4
-66.1205
2072.64
-117.537
2072.68
-11.0301
2019.92
80.2767
1972.14
-45.5318
1993.31
-346.063
2028.3
-491.402
2045.73
-518.385
2078.69
-596.488
2130.86
-677.873
2191.18
-730.689
2270.66
-808.235
2363.06
-886.495
2446.04
-936.536
2513.07
-997.947
2547.64
-1077.17
2539.93
-1195.35
2501.28
-1438.38
2419.44
-1646.15
2343.57
-1741.58
-895.9
2652.04
-1866.71
2899.73
-1624.79
3113.19
-1409.27
3296.33
-1180.92
3447.87
-911.787
3558.7
-570.154
3615.05
-172.575
3603.07
245.823
3528.04
587.211
3415.26
778.453
3281.89
873.316
3134.42
932.918
2974.72
984.174
2803.15
1035.85
2619.64
1090.67
2423.84
1150.22
2215.14
1215.59
1992.64
1287.71
1754.84
1366.3
1499.64
1449.02
1226.01
1521.26
936.461
1563.38
617.619
1622.22
246.247
1887.76
8.32337
1963.01
-55.1925
1321.51
-103.938
619.064
-93.9474
-119.491
20.7308
-788.26
197.445
-1273.6
419.477
-1629.8
680.327
-1919.6
976.74
-2167.32
1306.1
-2385.98
1663.66
-2570.41
2041.34
-2705.92
2428.59
-2782.56
2815.84
-2807.54
3199.85
-2808.9
3587.76
-2827.8
3993.38
-2883.4
4423.52
-2928.22
4866.45
-2866.95
5298.67
-2629.21
5682.96
-2131.4
5971.1
-1348.36
6116.89
-367.542
6070.27
673.274
5890.7
1310.55
5665.38
1484.19
5439.22
1405.63
5225.35
1236.19
5020.67
1045.75
4814
827.381
4593.7
511.03
4385.58
0.0859377
4266.21
-644.555
4272.25
-1106.52
4370.45
-1127.99
4488.95
-641.861
4501.08
348.062
4392.59
1219.12
4210.37
1705.85
3995.27
1894.82
3769.85
1919.27
3545.04
1866.84
3326
1783.13
3115.25
1688.95
2914.31
1592.07
2724.63
1493.34
2548.05
1390.46
2386.9
1280.33
2243.96
1159.83
2120.67
1032.63
2017.95
899.066
1940.17
754.695
1877.05
634.195
1820.06
515.062
1834.78
203.797
1916.28
-147.623
1969.8
-171.061
1984.43
-25.6577
1906.27
158.437
1783.14
77.5963
1750.25
-313.174
1760.24
-501.392
1756.15
-514.291
1782.87
-623.205
1827.07
-722.079
1859.55
-763.168
1897.99
-846.67
1926.15
-914.658
1910.1
-920.486
1852.63
-940.478
1735.72
-960.251
1571.6
-1031.23
1355.32
-1222.09
903.74
-1194.58
-147.507
-690.332
20.0159
2544.07
-2144.91
2783.89
-1864.61
2988.68
-1614.06
3165.39
-1357.63
3314.06
-1060.46
3425.55
-681.639
3484.36
-231.385
3475.17
255.013
3403.47
658.906
3295.87
886.051
3169.12
1000.07
3028.58
1073.45
2875.24
1137.51
2708.92
1202.18
2529.2
1270.39
2335.55
1343.87
2127.31
1423.83
1903.76
1511.27
1663.65
1606.4
1405.04
1707.63
1125.96
1800.33
827.411
1861.93
497.607
1952.02
141.465
2243.9
-45.5094
2149.98
-83.0137
1359.01
-130.689
666.733
-134.711
-115.478
-45.9488
-877.026
101.157
-1420.71
293.131
-1821.77
523.612
-2150.08
790.091
-2433.8
1090.64
-2686.52
1421.01
-2900.78
1773.09
-3058
2135.17
-3144.64
2495.22
-3167.59
2847.42
-3161.1
3198.6
-3178.98
3565.78
-3250.59
3961.96
-3324.39
4380.53
-3285.52
4800.72
-3049.4
5185.99
-2516.67
5488.16
-1650.54
5662.5
-541.876
5644.34
691.428
5484.72
1470.17
5275.23
1693.68
5061.95
1618.9
4858.12
1440.02
4662.1
1241.77
4465.06
1024.42
4252.74
723.346
4025.43
227.392
3854.75
-473.875
3807.73
-1059.5
3861.71
-1181.96
3951.02
-731.177
3950.6
348.485
3848.79
1320.93
3689.12
1865.52
3504.88
2079.06
3312.68
2111.47
3120.32
2059.21
2931.68
1971.76
2748.98
1871.65
2573.79
1767.26
2407.88
1659.26
2253.5
1544.84
2113.51
1420.32
1991.17
1282.17
1888.04
1135.77
1804.78
982.333
1748.15
811.323
1702.72
679.619
1654.8
562.985
1697.05
161.544
1813.39
-263.965
1880.17
-237.837
1904.59
-50.0751
1850.57
212.458
1690.04
238.122
1612.34
-235.469
1627.66
-516.718
1608.86
-495.487
1622.72
-637.071
1640.59
-739.94
1621.03
-743.612
1609.79
-835.434
1577.64
-882.501
1504.94
-847.787
1465.43
-900.972
1382.69
-877.507
932.131
-580.675
93.987
-383.95
-700.916
-399.673
-1284.3
-106.947
442.415
2430.24
-2413.73
2658.71
-2093.07
2852.82
-1808.18
3022.74
-1527.56
3169.76
-1207.48
3284.89
-796.776
3350.35
-296.846
3346.5
258.863
3277.04
728.365
3171.47
991.621
3048.05
1123.49
2912.03
1209.47
2763.79
1285.75
2602.59
1363.37
2427.53
1445.45
2237.58
1533.81
2031.68
1629.74
1808.85
1734.1
1567.94
1847.31
1307.24
1968.33
1024.37
2083.2
719.745
2166.56
389.219
2282.54
65.4125
2567.7
-86.8662
2302.26
-119.037
1391.18
-162.438
710.127
-178.899
-99.0293
-113.545
-942.385
4.79516
-1539.06
167.556
-1984.54
369.597
-2352.13
608.534
-2672.74
882.89
-2960.88
1189.16
-3207.04
1519.89
-3388.74
1862.76
-3487.52
2202.68
-3507.51
2529.1
-3487.51
2845.53
-3495.41
3170.77
-3575.83
3525.53
-3679.16
3911.68
-3671.67
4312.94
-3450.67
4692.8
-2896.53
5000.47
-1958.2
5194.29
-735.7
5199.91
685.814
5059.09
1610.99
4867.13
1885.64
4669.71
1816.33
4479.75
1629.98
4297.38
1424.13
4115.9
1205.91
3920.15
919.089
3692.6
454.946
3491.32
-272.592
3403.45
-971.63
3416.65
-1195.16
3467.41
-781.939
3440.3
375.593
3335.75
1425.48
3193
2008.27
3035.84
2236.22
2874.05
2273.26
2711.93
2221.32
2551.97
2131.73
2395.88
2027.74
2245.24
1917.9
2102
1802.5
1968.87
1677.97
1849.28
1539.91
1747.08
1384.37
1664.16
1218.69
1600.77
1045.72
1565.69
846.397
1538.49
706.823
1501.08
600.399
1563.84
98.7787
1711.13
-411.254
1791.72
-318.421
1810.06
-68.4155
1782.84
239.672
1640.79
380.179
1566.04
-160.72
1579.48
-530.158
1530.02
-446.026
1523.05
-630.107
1503.28
-720.173
1426.88
-667.203
1410.37
-818.929
1443.98
-916.108
1257.38
-661.19
652.741
-296.333
-67.7792
-156.986
-516.46
-131.995
-865.055
-35.3549
-1347.23
82.5013
-1823.6
369.427
746.538
2308.76
-2668.48
2523.31
-2307.63
2706.36
-1991.22
2869.22
-1690.42
3014.12
-1352.38
3133.52
-916.183
3208.43
-371.751
3213.82
253.467
3149.06
793.129
3045.88
1094.79
2924.75
1244.62
2791.56
1342.65
2646.74
1430.56
2489.43
1520.69
2318.5
1616.38
2132.61
1719.7
1930.21
1832.14
1709.83
1954.48
1470.01
2087.13
1209.22
2229.11
925.167
2367.26
619.052
2472.67
298.727
2602.87
19.1455
2847.28
-103.688
2425.09
-143.997
1431.48
-194.564
760.689
-224.83
-68.772
-177.804
-989.414
-85.2821
-1631.58
50.1127
-2119.93
225.822
-2527.84
439.04
-2885.96
688.471
-3210.31
971.417
-3489.99
1281.87
-3699.18
1608.1
-3813.75
1932.6
-3832.02
2238.77
-3793.68
2523.51
-3780.15
2804.57
-3856.89
3110.71
-3985.29
3455.87
-4016.84
3831.65
-3826.44
4202.39
-3267.28
4511.7
-2267.52
4719.3
-943.298
4744.12
660.995
4620.01
1735.1
4446.78
2058.87
4268.36
1994.74
4096.5
1801.84
3931.57
1589.06
3766.98
1370.5
3588.67
1097.4
3378.21
665.415
3173.26
-67.6495
3059.21
-857.574
3038.1
-1174.06
3037.63
-781.463
2967.07
446.148
2852.43
1540.13
2722.92
2137.77
2590.15
2368.99
2456.35
2407.06
2322.4
2355.28
2189.33
2264.79
2058.36
2158.71
1930.88
2045.39
1809.04
1924.33
1696.06
1790.95
1596.08
1639.9
1513.68
1466.76
1451.38
1281
1408.75
1088.35
1395.27
859.873
1388.89
713.205
1367.97
621.319
1436.03
30.7202
1595.18
-570.402
1711.38
-434.619
1719.61
-76.652
1636.1
323.18
1537.26
479.021
1541.41
-164.866
1535.24
-523.986
1458.06
-368.855
1430.5
-602.542
1492.39
-782.065
1330.64
-505.449
697.658
-185.949
-71.4341
-147.016
-482.223
-250.4
-637.651
-140.905
-832.424
37.7868
-1151.13
186.713
-1524.73
338.243
-1939.69
497.464
-2323.61
753.341
1024.52
2177.85
-2904.2
2383.18
-2512.96
2559.52
-2167.57
2715.98
-1846.88
2855.61
-1492.01
2975.02
-1035.59
3058.07
-454.809
3075.42
236.114
3018.86
849.695
2920.22
1193.43
2801.98
1362.85
2671.15
1473.48
2528.68
1573.03
2373.99
1675.38
2206.17
1784.19
2023.92
1901.95
1825.47
2030.59
1608.9
2171.05
1372.23
2323.8
1113.97
2487.37
832.426
2648.8
530.906
2774.19
230.288
2903.48
-1.00919
3078.58
-100.207
2524.29
-159.852
1491.12
-229.119
829.95
-272.497
-25.4072
-239.412
-1022.5
-166.444
-1704.55
-55.1818
-2231.2
95.1874
-2678.21
283.579
-3074.36
507.978
-3434.72
766.362
-3748.38
1054.6
-3987.43
1363.05
-4122.2
1673.71
-4142.68
1964.35
-4084.32
2222.79
-4038.6
2461.26
-4095.36
2713.88
-4237.91
3008.9
-4311.86
3350.37
-4167.91
3707.18
-3624.09
4016.57
-2576.91
4236.09
-1162.82
4279.39
617.697
4171.46
1843.02
4018.74
2211.59
3862.52
2150.96
3711.79
1952.57
3565.53
1735.32
3417.88
1518.14
3260.24
1255.03
3080.48
845.182
2889.66
123.163
2758.81
-726.725
2709.77
-1125.02
2649.15
-720.835
2525.21
570.089
2396.84
1668.49
2278.97
2255.65
2168.73
2479.23
2060.87
2514.92
1953.11
2463.03
1845.21
2372.69
1737.77
2266.16
1631.95
2151.2
1530.11
2026.17
1436.09
1884.97
1355.02
1720.96
1292.56
1529.22
1251.93
1321.63
1232.94
1107.34
1242.31
850.5
1259.22
696.296
1278.53
602.01
1345.33
-36.0833
1467.9
-692.963
1622.26
-588.98
1616.56
-70.9503
1499.48
440.25
1510.07
468.431
1509.17
-163.965
1528.83
-543.638
1426.25
-266.275
694.262
129.442
-182.407
94.6043
-522.881
-164.975
-586.37
-122.46
-697.232
-36.1537
-949.697
2.0643
-1238.93
148.327
-1538.09
336.946
-1867.06
515.69
-2219.95
691.125
-2594.94
872.453
-2949.8
1108.21
1298.85
2044.84
-3147.08
2250.44
-2718.56
2422.11
-2339.24
2573
-1997.77
2706.74
-1625.75
2821.33
-1150.18
2905
-538.483
2930.21
210.908
2882.81
897.096
2791.63
1284.61
2678.8
1475.68
2551.66
1600.62
2411.78
1712.91
2259.26
1827.9
2093.79
1949.66
1914.6
2081.14
1720.17
2225.01
1508.46
2382.75
1277.05
2555.21
1024.41
2740.02
750.002
2923.2
460.004
3064.19
185.989
3177.5
0.0176391
3264.55
-87.2149
2611.52
-172.36
1576.26
-266.327
923.913
-322.105
30.3613
-298.955
-1045.66
-241.413
-1762.1
-149.011
-2323.6
-21.7037
-2805.52
142.02
-3238.08
340.942
-3633.64
573.124
-3980.56
836.224
-4250.53
1123.62
-4409.6
1419.31
-4438.36
1697.79
-4362.8
1937.19
-4278
2139.55
-4297.72
2338.27
-4436.63
2574.3
-4547.89
2868.91
-4462.52
3202.33
-3957.51
3508.6
-2883.17
3739.82
-1394.05
3805.32
552.198
3715.81
1932.54
3586.46
2340.93
3455.15
2282.26
3327.13
2080.6
3200.39
1862.06
3072.64
1645.88
2942.42
1385.26
2800.77
986.838
2628.97
294.958
2480.25
-578.006
2402.1
-1046.87
2279.47
-598.207
2106.71
742.851
1966.66
1808.54
1860.77
2361.54
1771.85
2568.15
1688.15
2598.63
1604.83
2546.35
1520.43
2457.09
1434.93
2351.66
1349.17
2236.96
1265.74
2109.6
1189.38
1961.33
1126.55
1783.8
1084.02
1571.75
1065.53
1340.12
1074.04
1098.83
1103.85
820.693
1147.63
652.518
1261.82
487.819
1339.31
-113.574
1328.5
-682.155
1535.28
-795.759
1564.23
-99.9096
1441.55
562.935
1171.15
738.831
398.937
608.248
-333.431
188.73
-605.747
6.0412
-677.947
201.642
-701.928
118.585
-851.046
-15.8571
-1063.14
89.6327
-1295.62
196.328
-1586.38
292.825
-1893.51
455.46
-2204.46
647.888
-2533.98
845.217
-2884.95
1042.09
-3244.36
1231.86
-3567.98
1431.84
1552.68
1923.94
-3383.73
2118.66
-2913.29
2280.65
-2501.23
2426.64
-2143.75
2559.49
-1758.6
2675.03
-1265.73
2759.37
-622.825
2786.55
183.73
2743.03
940.612
2658.23
1369.41
2552.47
1581.44
2431.3
1721.78
2295.77
1848.44
2146.3
1977.38
1983.36
2112.59
1807.08
2257.42
1616.79
2415.3
1410.87
2588.67
1186.79
2779.28
943.15
2983.66
680.89
3185.46
409.143
3335.93
165.633
3421
17.9129
3412.27
-64.233
2693.66
-172.715
1684.74
-304.227
1055.42
-376.21
102.329
-354.891
-1066.98
-311.372
-1805.62
-234.217
-2400.76
-126.279
-2913.46
14.0545
-3378.42
187.389
-3806.98
392.498
-4185.67
628.138
-4486.17
890.751
-4672.21
1168.22
-4715.83
1435.29
-4629.87
1662.35
-4505.06
1838.63
-4474
1989.01
-4587.01
2160.25
-4719.14
2393.21
-4695.47
2688.39
-4252.7
2984.76
-3179.54
3226.85
-1636.14
3321.35
457.695
3254.68
1999.21
3152.37
2443.24
3048.35
2386.28
2944.71
2184.24
2840.59
1966.18
2738.62
1747.86
2640.32
1483.56
2534.73
1092.43
2387.29
442.394
2227.76
-418.476
2111.88
-930.99
1920.98
-407.31
1706.48
957.348
1560.65
1954.37
1468.46
2453.72
1400.16
2636.46
1339.14
2659.64
1278.68
2606.81
1216.25
2519.51
1151.16
2416.75
1083.82
2304.29
1016.96
2176.47
956.396
2021.89
911.642
1828.55
892.595
1590.79
906.151
1326.57
966.89
1038.09
1046.72
740.868
1161.02
538.216
1392.31
256.525
1206.52
72.2145
450.64
73.7294
-215.428
-129.692
-319.808
4.47128
-205.065
448.191
-280.677
814.443
-465.878
793.45
-641.94
364.792
-836.506
200.607
-948.116
313.252
-1093.08
263.549
-1343.19
234.255
-1598.91
345.355
-1865.86
463.273
-2163.68
590.646
-2478.47
770.253
-2805.99
975.406
-3144.92
1184.15
-3485.67
1382.84
-3813.8
1559.99
-4097.87
1715.9
1782.77
1793.82
-3608.06
1974.81
-3094.29
2126.72
-2653.14
2267.87
-2284.9
2400.76
-1891.49
2520.77
-1385.74
2611.28
-713.344
2643.46
151.547
2602.05
982.024
2521.08
1450.38
2421.9
1680.62
2308.12
1835.56
2179.11
1977.45
2034.67
2121.82
1875.59
2271.66
1702.96
2430.06
1517.33
2600.92
1318.16
2787.84
1103.39
2994.05
872.028
3215.02
626.573
3430.91
378.459
3584.04
166.438
3633.02
47.8845
3530.82
-32.357
2773.9
-163.873
1816.26
-317.668
1209.21
-408.306
192.96
-404.289
-1071
-375.087
-1834.82
-312.219
-2463.63
-220.685
-3004.99
-101.203
-3497.9
47.4282
-3955.61
225.406
-4363.65
432.33
-4693.09
666.956
-4906.84
921.725
-4970.6
1175.05
-4883.2
1393.69
-4723.7
1554.66
-4634.97
1667.75
-4700.1
1775.47
-4826.85
1934.22
-4854.23
2171.18
-4489.66
2445.57
-3453.94
2695.61
-1886.19
2828
325.304
2789.75
2037.46
2718.74
2514.25
2644.76
2460.26
2568.43
2260.57
2491.31
2043.3
2417.84
1821.33
2348.17
1553.22
2276.38
1164.22
2176.74
542.034
2033.45
-275.195
1854.46
-751.994
1572.17
-125.022
1322.95
1206.57
1178.27
2099.05
1101.27
2530.72
1052.35
2685.38
1012.08
2699.91
972.434
2646.46
929.951
2562
883.263
2463.44
832.425
2355.13
781.81
2227.08
741.094
2062.61
721.046
1848.6
719.051
1592.79
711.739
1333.88
642.073
1107.76
440.82
942.121
173.689
805.346
-150.144
580.358
-446.387
368.457
-566.276
193.618
-717.73
21.761
-842.957
129.698
-829.688
434.923
-789.997
774.752
-788.071
791.523
-925.176
501.897
-1132.74
408.171
-1304.03
484.542
-1527.89
487.407
-1805.03
511.399
-2081.32
621.639
-2370.96
752.912
-2685.36
905.055
-3011.63
1096.52
-3342.78
1306.56
-3671.6
1512.98
-3987.22
1698.46
-4277.58
1850.35
-4524.59
1962.92
1989.67
1657.03
-3816.22
1826.26
-3263.52
1970.84
-2797.72
2107.27
-2421.33
2238.06
-2022.28
2360.81
-1508.49
2459.2
-811.742
2500.34
110.403
2462.23
1020.14
2383.31
1529.3
2288.86
1775.06
2182.12
1942.3
2060.83
2098.74
1923.47
2259.17
1770.35
2424.79
1602.98
2597.43
1423.16
2780.74
1231.83
2979.17
1028.08
3197.8
811.751
3431.34
586.646
3656.02
365.372
3805.32
183.366
3815.03
84.5357
3629.65
-0.238591
2858.67
-157.827
1973.84
-318.445
1369.82
-421.541
296.046
-444.66
-1047.89
-429.819
-1849.67
-381.786
-2511.67
-306.015
-3080.77
-205.023
-3598.89
-79.4085
-4081.22
71.902
-4514.96
249.698
-4870.89
454.173
-5111.32
681.865
-5198.3
917.205
-5118.54
1128.01
-4934.5
1282.02
-4788.98
1371.64
-4789.72
1427.47
-4882.68
1507.67
-4934.43
1661.93
-4643.91
1894.08
-3686.1
2145.67
-2137.78
2327.06
143.913
2323.46
2041.07
2288.41
2549.3
2247.75
2500.93
2201.88
2306.44
2153.34
2091.83
2105.58
1869.09
2063.25
1595.55
2037.98
1189.48
2011.8
568.215
1906.09
-169.493
1626.28
-472.183
1224.69
276.572
952.978
1478.28
818.569
2233.46
759.095
2590.19
729.605
2714.87
709.67
2719.84
690.366
2665.77
667.324
2585.04
638.418
2492.34
602.546
2391
552.683
2276.95
483.748
2131.54
403.159
1929.19
309.136
1686.81
192.675
1450.34
48.4922
1251.94
-113.431
1104.04
-238.785
930.7
-367.149
708.723
-508.362
509.67
-620.834
306.09
-776.981
177.907
-915.37
268.087
-994.303
513.856
-1017.75
798.198
-1066.52
840.296
-1240.84
676.213
-1468.79
636.122
-1687.2
702.95
-1939.61
739.824
-2225.23
797.013
-2517.88
914.292
-2823.38
1058.41
-3144.31
1225.99
-3469.09
1421.3
-3787.79
1625.26
-4091.24
1816.42
-4370.95
1978.17
-4619.57
2098.97
-4829.74
2173.09
2172.06
1516.38
-4007.19
1679.99
-3427.13
1820.46
-2938.19
1952.63
-2553.51
2079.06
-2148.71
2200.62
-1630.05
2304.97
-916.089
2357.43
57.9403
2325.31
1052.25
2248.28
1606.33
2156.71
1866.63
2055.36
2043.65
1941.5
2212.59
1812.37
2388.3
1667.2
2569.96
1507.18
2757.44
1334.86
2953.07
1152.66
3161.37
961.278
3389.18
761.78
3630.84
558.915
3858.88
365.227
3999
209.945
3970.31
122.093
3717.5
23.936
2956.83
-159.69
2157.47
-328.691
1538.82
-435.291
402.643
-474.871
-1008.31
-473.428
-1851.11
-440.274
-2544.82
-381.047
-3140
-298.242
-3681.7
-193.933
-4185.53
-68.3558
-4640.54
80.2572
-5019.51
253.557
-5284.62
450.961
-5395.7
663.587
-5331.17
864.279
-5135.2
1015.22
-4939.93
1093.76
-4868.27
1117.06
-4905.98
1126.81
-4944.19
1179.25
-4696.35
1341.79
-3848.64
1580.38
-2376.37
1822.25
-97.9592
1859.28
2004.03
1864.81
2543.76
1860.29
2505.45
1845.52
2321.2
1823.25
2114.1
1800.63
1891.71
1794.06
1602.13
1819.75
1163.8
1838.4
549.562
1715.64
-46.7337
1332.08
-88.6315
874.046
734.611
608.847
1743.47
493.081
2349.23
451.271
2632
439.943
2726.2
438.105
2721.68
433.669
2670.2
419.366
2599.34
390.337
2521.37
340.715
2440.63
263.736
2353.93
160.102
2235.18
45.9392
2043.35
-58.3643
1791.11
-152.619
1544.6
-252.862
1352.18
-339.068
1190.25
-384.518
976.149
-442.457
766.661
-540.735
607.948
-664.513
429.868
-828.044
341.438
-999.459
439.503
-1142.83
657.231
-1239.29
894.655
-1355.59
956.596
-1557.46
878.084
-1796.82
875.479
-2037.67
943.801
-2302.47
1004.62
-2592.13
1086.67
-2891.95
1214.11
-3201.57
1368.03
-3517.51
1541.92
-3827.69
1731.48
-4120.92
1918.48
-4388.72
2084.23
-4626.18
2215.63
-4830.96
2303.75
-5004.08
2346.2
2329.55
1377.01
-4208.63
1536.53
-3586.65
1670.95
-3072.62
1800.12
-2682.68
1924.42
-2273.02
2044.19
-1749.81
2151.44
-1023.35
2214.87
-5.48932
2191.44
1075.68
2117.9
1679.87
2028.59
1955.94
1930.85
2141.38
1823
2320.45
1701.98
2509.32
1565.96
2705.97
1415.21
2908.19
1252.24
3116.04
1080.55
3333.06
902.468
3567.27
720.479
3812.83
539.926
4039.43
372.341
4166.59
239.305
4103.34
154.769
3802.03
35.902
3075.69
-167.682
2361.05
-338.38
1709.52
-444.91
509.166
-494.92
-958.304
-505.215
-1840.82
-486.12
-2563.92
-443.49
-3182.63
-379.723
-3745.47
-296.8
-4268.46
-195.823
-4741.52
-75.9116
-5139.42
65.735
-5426.26
230.975
-5560.94
416.43
-5516.63
602.406
-5321.17
749.634
-5087.15
824.411
-4943.05
832.758
-4914.33
793.889
-4905.32
755.781
-4658.24
821.736
-3914.59
1009.71
-2564.35
1317.3
-405.551
1400.7
1920.62
1451.09
2493.37
1483.41
2473.14
1497.78
2306.82
1500.95
2110.93
1507.91
1884.75
1536.42
1573.62
1584.32
1115.89
1587.77
546.112
1398.46
142.57
949.248
360.582
483.84
1200.02
219.93
2007.38
112.103
2457.06
81.7687
2662.33
82.7336
2725.23
93.2607
2711.15
101.362
2662.1
99.1256
2601.58
80.3494
2540.15
39.7673
2481.21
-26.0072
2419.7
-115.115
2324.28
-213.765
2142
-302.862
1880.21
-381.285
1623.02
-448.907
1419.8
-482.196
1223.54
-500.058
994.011
-553.86
820.464
-647.156
701.245
-785.181
567.893
-971.625
527.882
-1169.93
637.81
-1346.17
833.468
-1486.97
1035.46
-1642.46
1112.08
-1855.74
1091.37
-2096.98
1116.72
-2344.81
1191.62
-2612.02
1271.84
-2899.11
1373.76
-3195.82
1510.83
-3497.53
1669.74
-3796.71
1841.11
-4081.03
2015.8
-4340
2177.45
-4567.49
2311.72
-4762.27
2410.41
-4926.34
2467.82
-5066.67
2486.53
2464.41
1243.24
-4395.88
1387.32
-3730.73
1513.69
-3198.98
1641.94
-2810.93
1768.23
-2399.31
1889.76
-1871.34
1999.95
-1133.54
2073.19
-78.7385
2059.72
1089.15
1991.95
1747.64
1905.94
2041.94
1811.08
2236.25
1707.67
2423.85
1593.66
2623.33
1466.9
2832.73
1326.6
3048.49
1174.55
3268.09
1014.59
3493.01
850.306
3731.55
685.456
3977.68
525.691
4199.2
381.081
4311.2
265.213
4219.21
177.253
3889.99
33.4301
3219.52
-181.012
2575.49
-345.049
1873.55
-449.215
613.33
-505.868
-901.652
-525.848
-1820.84
-519.403
-2570.36
-492.503
-3209.53
-447.666
-3790.31
-386.897
-4329.23
-310.941
-4817.48
-219.039
-5231.32
-108.816
-5536.49
23.0587
-5692.82
177.604
-5671.17
342.9
-5486.47
482.749
-5227
556.174
-5016.47
559.781
-4917.94
501.837
-4847.38
418.047
-4574.45
380.104
-3876.65
466.002
-2650.25
817.086
-756.639
950.719
1786.98
1049.09
2395
1117
2405.23
1159.27
2264.55
1188.83
2081.37
1223.06
1850.52
1274
1522.68
1325.81
1064.09
1284.81
587.109
985.99
441.389
451.763
894.807
13.6542
1638.13
-182.896
2203.93
-249.116
2523.28
-257.87
2671.09
-241.801
2709.17
-218.515
2687.86
-198.574
2642.16
-188.856
2591.86
-193.888
2545.18
-216.927
2504.25
-261.31
2464.08
-328.619
2391.59
-413.259
2226.64
-500.113
1967.06
-571.318
1694.23
-610.282
1458.77
-623.195
1236.45
-657.413
1028.23
-733.399
896.45
-838.619
806.464
-991.629
720.903
-1188.11
724.362
-1391.55
841.248
-1577.55
1019.47
-1739.45
1197.36
-1912.96
1285.59
-2126.98
1305.4
-2363.47
1353.2
-2609.35
1437.51
-2871.5
1533.99
-3149.02
1651.28
-3433.14
1794.94
-3716.5
1953.1
-3989.64
2114.25
-4241.16
2267.33
-4462.71
2398.99
-4651.13
2500.14
-4808.29
2567.57
-4939.27
2598.8
-5054.12
2601.38
2580.41
1104.6
-4563.99
1235.43
-3861.56
1356.14
-3319.7
1483.52
-2938.3
1611.24
-2527.04
1735.07
-1995.17
1848.53
-1247
1931.28
-161.49
1928.64
1091.79
1868.7
1807.58
1788.22
2122.41
1697.02
2327.44
1597.33
2523.54
1489.04
2731.62
1370.75
2951.02
1241.04
3178.19
1100.72
3408.41
953.269
3640.46
802.834
3881.98
653.954
4126.56
512.347
4340.8
386.706
4436.84
282.741
4323.17
185.014
3987.72
15.5563
3388.97
-200.009
2791.05
-348.565
2022.11
-447.339
712.098
-509.491
-839.506
-536.973
-1793.36
-541.479
-2565.86
-528.874
-3222.14
-501.915
-3817.27
-462.888
-4368.26
-412.524
-4867.84
-349.429
-5294.42
-270.534
-5615.38
-172.155
-5791.2
-50.9653
-5792.36
87.9944
-5625.43
215.725
-5354.74
289.064
-5089.81
293.992
-4922.86
234.968
-4788.35
135.881
-4475.37
42.7339
-3783.5
55.6243
-2663.14
329.551
-1030.57
513.643
1602.89
660.665
2247.98
762.516
2303.37
831.113
2195.96
883.786
2028.69
941.047
1793.26
1013.72
1450
1051.12
1026.69
891.29
746.941
426.498
906.181
-100.695
1422
-407.633
1945.06
-533.243
2329.54
-570.09
2560.12
-561.867
2662.86
-532.292
2679.59
-496.249
2651.82
-463.982
2609.89
-442.467
2570.34
-435.759
2538.48
-445.817
2514.3
-474.54
2492.81
-525.265
2442.32
-599.841
2301.22
-683.489
2050.71
-745.324
1756.06
-775.553
1489
-806.549
1267.45
-874.038
1095.72
-969.95
992.363
-1086.48
922.99
-1243.64
878.065
-1433.19
913.912
-1628.08
1036.14
-1811.9
1203.28
-1981.08
1366.54
-2160.31
1464.82
-2369.24
1514.33
-2597.21
1581.16
-2835.71
1676.01
-3087.47
1785.74
-3349.85
1913.66