/*--------------------------------*- C++ -*----------------------------------*\
| =========                 |                                                 |
| \\      /  F ield         | OpenFOAM: The Open Source CFD Toolbox           |
|  \\    /   O peration     | Version:  4.1                                   |
|   \\  /    A nd           | Web:      www.OpenFOAM.org                      |
|    \\/     M anipulation  |                                                 |
\*---------------------------------------------------------------------------*/
FoamFile
{
    version     2.0;
    format      ascii;
    class       volVectorField;
    location    "800";
    object      U;
}
// * * * * * * * * * * * * * * * * * * * * * * * * * * * * * * * * * * * * * //

dimensions      [0 1 -1 0 0 0 0];

internalField   nonuniform List<vector> 
26785
(
(1.77132e-15 -0.101045 22.6427)
(1.82995e-15 -0.0741282 24.2966)
(1.68144e-15 -0.0551601 25.5082)
(1.6909e-15 -0.0342957 26.3219)
(1.79237e-15 -0.00973103 26.7021)
(4.04638e-15 0.0170691 26.5934)
(4.80522e-15 0.0413236 26.013)
(4.17468e-15 0.0617462 25.0355)
(2.82252e-15 0.076217 23.7679)
(2.3661e-15 0.0831128 22.354)
(4.68312e-15 0.0852595 20.9165)
(4.47198e-15 0.0856909 19.5094)
(4.45277e-15 0.0858113 18.1421)
(4.65363e-15 0.0860862 16.8106)
(4.87307e-15 0.0866448 15.5081)
(4.85242e-15 0.0875362 14.2282)
(4.65009e-15 0.0887523 12.965)
(4.0967e-15 0.0902476 11.7121)
(4.30107e-15 0.0917868 10.4668)
(-1.31583e-15 0.0930962 9.22929)
(8.12686e-16 0.0932343 7.99993)
(-1.33812e-15 0.0914084 6.81702)
(-9.4781e-15 0.0879974 5.6648)
(-7.18018e-15 0.0878126 4.61957)
(-1.25583e-14 0.119143 3.52373)
(5.98178e-15 0.149214 1.67633)
(-1.65639e-14 0.0904986 -0.0406456)
(-2.74523e-14 -0.0140872 -0.534976)
(-2.51838e-14 -0.0530916 -0.0620654)
(-2.97342e-14 -0.0565407 0.534839)
(-5.59427e-14 -0.0724729 1.38204)
(-3.35207e-14 -0.0993499 2.47894)
(-2.17547e-14 -0.121765 3.74731)
(-5.14629e-15 -0.138886 5.14319)
(-1.33978e-14 -0.152196 6.63782)
(-1.74127e-15 -0.161555 8.19879)
(-5.40604e-15 -0.166668 9.78839)
(-6.0622e-15 -0.168155 11.3704)
(-6.2256e-15 -0.167572 12.9188)
(-5.18341e-15 -0.167002 14.426)
(-1.69494e-15 -0.167203 15.9017)
(-5.12579e-15 -0.165128 17.3427)
(-3.36019e-15 -0.155392 18.7091)
(-3.28827e-15 -0.132132 19.9182)
(9.83015e-16 -0.0887578 20.8318)
(3.74902e-15 -0.0298545 21.3051)
(7.66229e-15 0.0315963 21.2608)
(6.07827e-15 0.0829605 20.7208)
(6.23213e-15 0.110531 19.8463)
(6.61891e-15 0.1152 18.8655)
(6.72002e-15 0.105517 17.9408)
(3.89276e-15 0.0857534 17.1502)
(3.45676e-15 0.0542226 16.5473)
(2.52182e-15 0.0086764 16.2079)
(2.27876e-15 -0.0471457 16.222)
(2.3968e-15 -0.099763 16.6327)
(1.11909e-15 -0.126939 17.3564)
(4.74285e-15 -0.109471 18.1571)
(4.11318e-15 -0.0494656 18.7301)
(4.62318e-15 0.0309345 18.8254)
(6.69763e-15 0.105469 18.3575)
(5.95792e-15 0.153577 17.4555)
(6.03157e-15 0.174997 16.3341)
(3.84437e-15 0.179371 15.1545)
(4.86084e-15 0.174955 14.0002)
(4.96948e-15 0.166735 12.9066)
(5.39205e-15 0.157263 11.8847)
(5.25542e-15 0.147667 10.935)
(4.79678e-15 0.138325 10.0542)
(4.56142e-15 0.129237 9.23864)
(2.28817e-15 0.12025 8.48567)
(4.08901e-15 0.111187 7.79407)
(1.47991e-15 0.101903 7.16397)
(4.7889e-16 0.0924981 6.59546)
(-8.21271e-16 0.0829608 6.08838)
(1.80165e-15 0.0733825 5.64255)
(-1.79452e-15 0.0636367 5.25616)
(-3.07936e-17 0.0519926 4.93034)
(-4.67366e-16 0.035952 4.68297)
(-2.20043e-15 0.017934 4.54128)
(-4.95621e-15 0.00824478 4.48376)
(-1.62441e-14 0.00659914 4.44979)
(-1.78932e-14 0.00285368 4.41592)
(-2.26614e-14 -0.00897804 4.41341)
(-2.7215e-14 -0.0257855 4.48661)
(-3.29734e-14 -0.0378623 4.64155)
(-3.73282e-14 -0.0442615 4.8473)
(-3.92572e-14 -0.0502217 5.08517)
(-3.98269e-14 -0.0564849 5.35916)
(-3.93111e-14 -0.0621078 5.67191)
(-3.71302e-14 -0.068166 6.02091)
(-3.35756e-14 -0.075138 6.4054)
(-2.96172e-14 -0.0828547 6.82506)
(-2.59342e-14 -0.0922765 7.2815)
(-2.24814e-14 -0.105357 7.78041)
(-2.09501e-14 -0.122631 8.34426)
(-1.73916e-14 -0.146623 8.97679)
(-1.50126e-14 -0.163448 9.75259)
(-1.33458e-14 -0.171788 10.4404)
(-1.16595e-14 -0.120582 11.4256)
(2.04528e-15 -0.242997 23.0529)
(1.98368e-15 -0.184479 24.6404)
(2.48547e-15 -0.138728 25.7884)
(2.70113e-15 -0.0845577 26.553)
(2.60842e-15 -0.0184913 26.9212)
(5.12794e-15 0.0568161 26.8443)
(3.65524e-15 0.128499 26.3033)
(6.67199e-16 0.190809 25.3337)
(2.85869e-15 0.234927 24.0472)
(3.60571e-15 0.255546 22.6028)
(2.3972e-15 0.261543 21.132)
(2.34621e-15 0.262325 19.6916)
(2.50809e-15 0.262236 18.2918)
(3.09222e-15 0.262709 16.9284)
(1.79795e-15 0.264136 15.5947)
(3.33159e-15 0.266666 14.2838)
(4.32065e-15 0.270284 12.9894)
(2.09815e-15 0.274861 11.7044)
(1.22896e-15 0.279724 10.425)
(4.39531e-15 0.284012 9.14971)
(-5.03559e-15 0.284762 7.87885)
(5.79412e-15 0.27963 6.65018)
(-7.73075e-15 0.269261 5.45018)
(-3.93416e-15 0.27879 4.34337)
(-4.43855e-15 0.385899 3.04749)
(-6.0209e-15 0.420116 1.19197)
(-1.04201e-14 0.248071 0.199823)
(-1.56221e-14 -0.00751329 0.00132678)
(-1.109e-14 -0.125349 0.26779)
(-3.06898e-14 -0.198241 0.947795)
(-1.01223e-15 -0.271432 1.96529)
(-4.42333e-15 -0.339096 3.16184)
(-5.74051e-15 -0.391885 4.47942)
(-9.61457e-15 -0.433858 5.89971)
(-1.92297e-14 -0.46696 7.40104)
(-1.70847e-14 -0.489551 8.95388)
(-1.34039e-14 -0.500409 10.5232)
(-9.88385e-15 -0.501157 12.0756)
(-7.70018e-15 -0.496144 13.5875)
(-6.10574e-15 -0.491055 15.0528)
(-4.44216e-15 -0.487596 16.4813)
(-1.47279e-15 -0.476665 17.8703)
(-3.74347e-15 -0.442819 19.181)
(-1.6759e-15 -0.371085 20.3356)
(-2.37696e-15 -0.244526 21.2129)
(-1.64995e-15 -0.0716992 21.6883)
(-6.45561e-16 0.115467 21.6519)
(2.04373e-15 0.275274 21.0813)
(3.00928e-15 0.359056 20.1503)
(5.23711e-15 0.369396 19.111)
(3.28073e-15 0.335962 18.1361)
(7.02345e-15 0.277776 17.2948)
(5.5043e-15 0.195141 16.6059)
(4.8489e-15 0.0792205 16.0873)
(4.91803e-15 -0.0669735 15.8015)
(1.30227e-15 -0.214125 15.8311)
(3.10448e-15 -0.306869 16.1835)
(8.94955e-15 -0.28889 16.7346)
(9.15542e-15 -0.149569 17.2567)
(4.07129e-15 0.0700753 17.4819)
(4.15652e-15 0.29322 17.1965)
(4.86083e-15 0.441857 16.449)
(7.45058e-15 0.508534 15.4449)
(6.78426e-15 0.522245 14.3568)
(5.86892e-15 0.508965 13.2775)
(7.51089e-15 0.484358 12.2481)
(6.85853e-15 0.456275 11.2827)
(6.28255e-15 0.428062 10.3834)
(1.62816e-16 0.400754 9.54798)
(6.12251e-15 0.374249 8.77368)
(3.4706e-15 0.348009 8.05858)
(-1.873e-15 0.321457 7.40212)
(-1.38021e-15 0.294137 6.8051)
(-3.7341e-15 0.266359 6.26813)
(-1.18273e-15 0.238055 5.79139)
(-8.39215e-15 0.209476 5.37517)
(-4.60697e-15 0.180562 5.01778)
(-6.70494e-15 0.146588 4.7182)
(-1.46708e-14 0.0996506 4.49191)
(-1.48628e-14 0.0470197 4.37078)
(-1.86834e-14 0.0207493 4.32675)
(-2.09386e-14 0.0193579 4.29448)
(-2.54135e-14 0.012364 4.24612)
(-2.82297e-14 -0.0182404 4.21312)
(-2.75203e-14 -0.0649059 4.2563)
(-3.03875e-14 -0.0996471 4.40002)
(-3.04118e-14 -0.121147 4.61262)
(-2.54409e-14 -0.145598 4.86913)
(-1.56e-14 -0.172901 5.16863)
(-1.28501e-14 -0.19779 5.50575)
(-8.29104e-15 -0.222271 5.87022)
(-4.82994e-15 -0.246743 6.25676)
(-2.08785e-15 -0.270097 6.66235)
(-2.89269e-15 -0.295491 7.08713)
(-2.00176e-15 -0.328942 7.53725)
(-1.59137e-15 -0.372776 8.03639)
(-1.89935e-15 -0.436102 8.59871)
(-3.42289e-16 -0.481802 9.31034)
(6.90429e-17 -0.498301 9.97791)
(1.24885e-15 -0.335566 10.8937)
(2.45361e-15 -0.400558 22.9015)
(1.46309e-15 -0.312454 24.4193)
(1.30815e-15 -0.235106 25.5031)
(2.33118e-15 -0.146056 26.2279)
(8.95027e-16 -0.039807 26.6006)
(1.47452e-15 0.0832359 26.579)
(1.94771e-16 0.204884 26.1193)
(-1.30504e-15 0.31374 25.2152)
(8.01101e-17 0.391299 23.9656)
(4.67243e-16 0.427817 22.5375)
(6.7405e-16 0.438845 21.0715)
(7.89792e-16 0.440678 19.629)
(9.68576e-16 0.440844 18.2223)
(1.28783e-15 0.441848 16.8484)
(1.55062e-15 0.444409 15.5016)
(2.18278e-15 0.448832 14.1757)
(5.38577e-15 0.455174 12.8641)
(-3.60303e-16 0.463292 11.5593)
(4.76001e-15 0.472204 10.2561)
(-2.50775e-15 0.48045 8.9498)
(1.43544e-16 0.482911 7.63915)
(1.14694e-14 0.475509 6.35892)
(3.91558e-15 0.46072 5.10063)
(-3.33513e-15 0.494134 3.89674)
(-6.77748e-15 0.66382 2.33938)
(-5.08393e-14 0.625013 0.646795)
(-8.63242e-14 0.330895 0.218038)
(-1.99834e-14 -0.0187216 -0.0372628)
(-1.14532e-14 -0.207208 0.326133)
(-1.25916e-14 -0.357564 1.07156)
(-1.28347e-14 -0.479092 2.06564)
(-2.26735e-15 -0.577695 3.21047)
(-1.3015e-14 -0.656153 4.46819)
(-1.92419e-14 -0.720886 5.82044)
(-1.83551e-14 -0.772453 7.24599)
(-1.55866e-14 -0.807468 8.71719)
(-1.11978e-14 -0.823844 10.2013)
(-9.56027e-15 -0.824177 11.6676)
(-7.50907e-15 -0.815571 13.0946)
(-5.44552e-15 -0.807327 14.4796)
(-4.22827e-15 -0.802205 15.8371)
(-3.7551e-15 -0.785141 17.17)
(-3.46139e-15 -0.730798 18.4439)
(-2.75763e-15 -0.616552 19.5873)
(-2.21846e-15 -0.415838 20.4883)
(-1.49446e-15 -0.136245 21.032)
(-5.57204e-16 0.17792 21.1099)
(4.95396e-16 0.455151 20.6495)
(1.82502e-15 0.602856 19.7893)
(2.71103e-15 0.623599 18.785)
(3.86568e-15 0.571219 17.8159)
(4.5139e-15 0.484741 16.9472)
(4.78901e-15 0.372975 16.1821)
(5.33343e-15 0.221179 15.5049)
(6.76369e-15 0.0152314 14.9431)
(9.16061e-15 -0.218119 14.6171)
(1.39228e-14 -0.399622 14.6169)
(1.30165e-14 -0.432829 14.9035)
(9.76925e-15 -0.277193 15.3249)
(8.49177e-15 0.0373161 15.6479)
(4.51087e-15 0.404 15.5668)
(5.11081e-15 0.665906 15.0193)
(5.60527e-15 0.791648 14.1791)
(6.36665e-15 0.825056 13.224)
(4.47936e-15 0.8101 12.2551)
(8.50123e-15 0.774138 11.3195)
(8.74313e-15 0.731097 10.4355)
(6.55294e-15 0.687028 9.60794)
(7.26922e-15 0.643899 8.83658)
(6.12342e-15 0.601664 8.12006)
(5.19469e-15 0.559487 7.45769)
(4.03417e-15 0.516449 6.84992)
(4.20314e-15 0.471828 6.29855)
(2.54507e-15 0.426254 5.8048)
(5.56778e-16 0.379616 5.36907)
(1.90263e-15 0.332323 4.99211)
(3.79974e-16 0.285323 4.67146)
(-9.5189e-16 0.231248 4.40178)
(-1.2326e-15 0.154171 4.19793)
(2.14396e-16 0.0670387 4.10364)
(1.61047e-15 0.0285633 4.07808)
(1.57227e-15 0.0350557 4.04865)
(-9.40307e-15 0.032865 3.97756)
(-1.04795e-14 -0.0160756 3.91561)
(-1.41396e-14 -0.105189 3.96404)
(-1.22793e-14 -0.177167 4.14832)
(-8.09374e-15 -0.222167 4.39581)
(-2.99808e-15 -0.266246 4.65564)
(5.82479e-16 -0.307903 4.92174)
(2.93505e-15 -0.339529 5.18974)
(2.44194e-15 -0.367786 5.45471)
(2.03531e-16 -0.395095 5.72207)
(-3.15791e-15 -0.420454 5.9996)
(-2.51125e-15 -0.450942 6.29499)
(-1.98794e-15 -0.497802 6.62059)
(-3.49834e-16 -0.56763 7.00476)
(5.23874e-18 -0.681366 7.47239)
(3.00656e-15 -0.780938 8.12146)
(4.81216e-15 -0.82266 8.78608)
(6.79302e-15 -0.534029 9.65573)
(2.32622e-15 -0.552633 22.3751)
(2.15976e-15 -0.431466 23.8091)
(1.39417e-15 -0.323757 24.8198)
(-4.90229e-17 -0.205183 25.5062)
(-6.14824e-16 -0.0652586 25.8942)
(-1.28859e-15 0.100552 25.9467)
(-2.59496e-15 0.270406 25.599)
(-1.7015e-15 0.427209 24.7969)
(-8.5897e-16 0.540486 23.6174)
(-1.11859e-15 0.594598 22.2339)
(-1.0269e-15 0.611875 20.797)
(-8.40353e-16 0.615736 19.3729)
(-3.50805e-16 0.616967 17.9765)
(8.06134e-16 0.619164 16.6066)
(-4.91429e-16 0.623391 15.259)
(5.85637e-16 0.630163 13.9286)
(1.03065e-15 0.639694 12.61)
(4.82723e-15 0.651955 11.2955)
(-2.91737e-15 0.665888 9.97937)
(5.99258e-16 0.679576 8.65358)
(-1.78167e-15 0.685805 7.31365)
(6.71903e-15 0.678079 5.98864)
(7.8368e-15 0.663899 4.67299)
(3.54893e-15 0.735423 3.34681)
(-1.47221e-14 0.930443 1.59402)
(-8.99196e-14 0.76723 0.30947)
(-7.61185e-14 0.367523 0.108349)
(-2.32363e-14 -0.0281992 -0.143031)
(-1.4322e-14 -0.302479 0.258658)
(-1.43585e-14 -0.518027 0.973614)
(-8.79169e-15 -0.677893 1.90502)
(-1.17139e-14 -0.805149 2.97423)
(-1.52825e-14 -0.908541 4.14839)
(-1.17904e-14 -0.9949 5.41019)
(-1.5737e-14 -1.06378 6.74029)
(-9.72379e-15 -1.1104 8.11267)
(-1.37885e-14 -1.13189 9.49561)
(-6.76488e-15 -1.13186 10.8591)
(-2.72026e-15 -1.12044 12.1836)
(-6.97118e-15 -1.11105 13.4708)
(-4.6785e-15 -1.10797 14.7437)
(-3.19367e-15 -1.09011 16.0145)
(-5.87276e-15 -1.02174 17.2548)
(-3.77501e-15 -0.873017 18.3986)
(-6.93072e-16 -0.607921 19.3385)
(-3.45038e-16 -0.232076 19.9635)
(-2.37277e-15 0.202023 20.1622)
(-4.40439e-15 0.601356 19.8147)
(-3.0438e-15 0.821853 19.0307)
(2.04127e-16 0.861875 18.0739)
(2.35911e-15 0.799631 17.1298)
(1.66683e-15 0.694877 16.263)
(4.62992e-15 0.566976 15.4748)
(4.48149e-15 0.399116 14.7395)
(8.15206e-15 0.158848 14.0415)
(1.36358e-14 -0.145798 13.4802)
(1.66907e-14 -0.419545 13.2136)
(2.00521e-14 -0.526412 13.2679)
(1.6426e-14 -0.39362 13.546)
(1.61602e-14 -0.0291683 13.864)
(9.08965e-15 0.461171 13.8936)
(8.44663e-15 0.835666 13.4941)
(5.67318e-15 1.02589 12.7975)
(6.61929e-15 1.08486 11.9733)
(7.48679e-15 1.07332 11.1206)
(9.67235e-15 1.03023 10.2872)
(4.54627e-15 0.975735 9.49306)
(6.45392e-15 0.918717 8.74501)
(7.68714e-15 0.862189 8.04453)
(6.82655e-15 0.806225 7.39178)
(8.43621e-15 0.749737 6.78743)
(4.23965e-15 0.691508 6.23311)
(1.36577e-14 0.630593 5.73177)
(5.77512e-15 0.56813 5.28521)
(2.65223e-15 0.504003 4.89386)
(9.48207e-15 0.438748 4.55909)
(8.38961e-15 0.37575 4.27725)
(1.71275e-14 0.304807 4.0364)
(1.12472e-14 0.197171 3.85419)
(8.21819e-15 0.0745014 3.7931)
(2.7532e-15 0.0303216 3.78698)
(-4.51134e-15 0.0541061 3.76065)
(-1.08497e-14 0.060728 3.67474)
(-1.96037e-14 -0.0180274 3.59862)
(-1.03798e-14 -0.164748 3.64812)
(-6.21214e-15 -0.267708 3.81104)
(-2.22135e-16 -0.313825 3.97977)
(-3.39598e-15 -0.354281 4.10973)
(-2.01249e-15 -0.391137 4.22631)
(-7.6096e-15 -0.416292 4.34776)
(3.03966e-16 -0.444767 4.48019)
(-2.54782e-15 -0.480051 4.63863)
(-3.07319e-15 -0.51703 4.8309)
(4.50564e-16 -0.565092 5.05318)
(2.23288e-15 -0.638644 5.3044)
(6.39421e-15 -0.746184 5.58744)
(7.12383e-15 -0.922035 5.9051)
(8.11489e-15 -1.08842 6.33849)
(5.10649e-15 -1.17058 6.73989)
(4.12966e-15 -0.750687 7.24663)
(2.25972e-15 -0.698642 21.6005)
(2.03635e-15 -0.547202 22.927)
(1.60486e-15 -0.414205 23.8728)
(1.75223e-15 -0.271804 24.5276)
(1.00407e-15 -0.104638 24.9244)
(2.67073e-15 0.0982633 25.0414)
(2.91791e-15 0.314504 24.8168)
(7.27036e-16 0.522883 24.1503)
(-4.59319e-16 0.67693 23.0766)
(-1.53909e-15 0.752281 21.7669)
(-1.98025e-15 0.77819 20.3816)
(-2.02229e-15 0.785766 18.9935)
(-1.9501e-15 0.789342 17.6207)
(-7.4266e-16 0.793714 16.2646)
(-2.13753e-15 0.80034 14.9232)
(-2.86237e-15 0.809982 13.5934)
(-7.26152e-16 0.823076 12.2713)
(3.7065e-16 0.839826 10.9505)
(4.91329e-16 0.859392 9.62564)
(-3.12744e-17 0.879707 8.28667)
(-2.28016e-15 0.891772 6.92572)
(5.51548e-15 0.886254 5.56387)
(8.08453e-15 0.879818 4.19256)
(7.63613e-16 0.995841 2.74169)
(-1.96717e-14 1.16293 0.927588)
(-9.62484e-14 0.862886 0.170961)
(-1.14228e-13 0.40089 -0.0203945)
(5.35963e-15 -0.0239725 -0.264819)
(-1.6169e-14 -0.397301 0.114297)
(-1.24066e-14 -0.669521 0.76089)
(-1.63877e-14 -0.864065 1.60721)
(-1.51605e-14 -1.01847 2.58177)
(-1.46944e-14 -1.14555 3.65635)
(-9.93467e-15 -1.25271 4.8163)
(-1.45206e-14 -1.33846 6.04452)
(-1.11293e-14 -1.39634 7.31557)
(-8.83298e-15 -1.42253 8.59658)
(-6.51605e-15 -1.42182 9.85574)
(-6.04157e-15 -1.40796 11.0731)
(-6.06674e-15 -1.39952 12.2543)
(-5.46109e-15 -1.40302 13.4334)
(-5.57193e-15 -1.39113 14.6348)
(-6.21935e-15 -1.31659 15.8382)
(-5.61401e-16 -1.1426 16.9834)
(2.56883e-16 -0.823183 17.965)
(1.30267e-15 -0.35891 18.672)
(1.6472e-15 0.192148 18.9981)
(1.55718e-15 0.721354 18.7725)
(1.19854e-15 1.02237 18.0661)
(2.72598e-15 1.08637 17.1584)
(4.96542e-15 1.01813 16.2485)
(2.83088e-15 0.899 15.4021)
(7.9379e-15 0.760136 14.6216)
(9.59722e-15 0.586652 13.8829)
(1.20816e-14 0.335824 13.1455)
(1.77916e-14 -0.0182653 12.4416)
(1.62773e-14 -0.380781 11.9718)
(1.82611e-14 -0.573784 11.8301)
(1.77705e-14 -0.487816 11.9637)
(1.71868e-14 -0.106977 12.229)
(1.23814e-14 0.485872 12.3012)
(1.24809e-14 0.964619 11.9966)
(6.20053e-15 1.21796 11.4114)
(6.93776e-15 1.30424 10.7023)
(7.67589e-15 1.29924 9.95963)
(2.30826e-15 1.25255 9.22687)
(8.07799e-15 1.18994 8.5231)
(5.86578e-15 1.12293 7.85574)
(8.23031e-15 1.05552 7.22746)
(5.00117e-16 0.987916 6.63968)
(5.31875e-15 0.918797 6.09441)
(4.73996e-15 0.846698 5.59441)
(9.38734e-15 0.770517 5.14394)
(5.92015e-15 0.692122 4.74533)
(4.91342e-15 0.61147 4.39877)
(3.92584e-15 0.528956 4.10673)
(4.74923e-17 0.452505 3.86458)
(1.00374e-14 0.368559 3.65062)
(1.54524e-15 0.227768 3.48889)
(-3.86369e-15 0.0685053 3.46725)
(-5.90288e-15 0.0270534 3.47917)
(-2.55583e-14 0.0724884 3.46932)
(-1.50197e-14 0.091102 3.38327)
(-1.49054e-14 -0.0121418 3.24974)
(5.74553e-16 -0.203879 3.19097)
(-3.39257e-15 -0.313583 3.23328)
(-7.78768e-15 -0.341963 3.27574)
(-7.67758e-15 -0.380235 3.28592)
(-5.9894e-15 -0.425603 3.3225)
(2.69661e-15 -0.459622 3.40132)
(2.5502e-15 -0.505259 3.50584)
(7.90942e-15 -0.560541 3.63707)
(7.44441e-15 -0.610031 3.77876)
(7.35738e-15 -0.666307 3.89776)
(6.34133e-15 -0.741004 3.97086)
(6.90827e-15 -0.847482 3.96424)
(4.34043e-15 -1.04159 3.88655)
(-1.41617e-15 -1.21937 3.70881)
(-8.0255e-15 -1.28043 3.33797)
(-9.39706e-15 -0.805063 2.91507)
(2.12926e-15 -0.860858 20.5907)
(2.02413e-15 -0.668174 21.927)
(1.7866e-15 -0.506912 22.8713)
(5.32185e-16 -0.340786 23.5157)
(-5.28213e-16 -0.148999 23.9058)
(6.54078e-16 0.0855036 24.0359)
(3.87328e-16 0.341831 23.8679)
(-2.91717e-15 0.599592 23.3018)
(-3.59841e-15 0.796444 22.3329)
(-2.05066e-15 0.895958 21.1147)
(-1.78148e-15 0.933267 19.8058)
(-2.54321e-15 0.947002 18.4789)
(-2.99777e-15 0.955009 17.1525)
(-2.59306e-15 0.963289 15.8296)
(-2.19855e-15 0.973713 14.5099)
(-1.62654e-15 0.987305 13.1921)
(-1.12428e-15 1.00474 11.8739)
(-1.16679e-15 1.02649 10.5511)
(2.7568e-15 1.05217 9.22039)
(1.29598e-15 1.07995 7.87158)
(-4.67832e-16 1.09966 6.49504)
(1.76658e-15 1.09927 5.1028)
(1.32239e-14 1.10734 3.67925)
(3.52566e-15 1.26265 2.13436)
(-2.69855e-14 1.34918 0.404456)
(-6.75335e-14 0.926274 0.11962)
(-7.62456e-14 0.445489 -0.107405)
(-2.09483e-14 -0.00983592 -0.394653)
(-2.11646e-14 -0.485865 -0.080502)
(-1.85081e-14 -0.807106 0.476874)
(-1.81176e-14 -1.03389 1.22363)
(-1.93964e-14 -1.21484 2.09359)
(-1.29185e-14 -1.36552 3.06377)
(-1.22415e-14 -1.49381 4.12228)
(-1.11747e-14 -1.59689 5.25397)
(-7.2526e-15 -1.66618 6.43341)
(-6.45814e-15 -1.69659 7.62513)
(-5.62993e-15 -1.6941 8.79259)
(-5.40906e-15 -1.67693 9.91134)
(-5.16563e-15 -1.67031 10.9882)
(-5.8207e-15 -1.68426 12.0671)
(-3.64867e-15 -1.68524 13.1873)
(-2.5753e-15 -1.61299 14.3401)
(-1.34728e-15 -1.42337 15.4738)
(2.25612e-15 -1.06017 16.483)
(2.95092e-15 -0.517456 17.2532)
(4.10404e-15 0.142998 17.6956)
(4.94563e-15 0.809764 17.5988)
(5.29548e-15 1.20064 16.9771)
(6.28682e-15 1.29381 16.125)
(7.07511e-15 1.22306 15.2589)
(8.28827e-15 1.0922 14.4461)
(9.52174e-15 0.944648 13.6907)
(1.08757e-14 0.770174 12.9735)
(1.17341e-14 0.522379 12.2504)
(1.21658e-14 0.144744 11.4927)
(1.32457e-14 -0.294558 10.8722)
(1.45083e-14 -0.57932 10.5656)
(1.69793e-14 -0.555478 10.5662)
(1.922e-14 -0.180877 10.7578)
(1.49108e-14 0.494778 10.8244)
(1.01516e-14 1.06584 10.5699)
(6.54976e-15 1.37612 10.0661)
(7.64889e-15 1.48785 9.45496)
(3.96986e-15 1.49038 8.81276)
(6.32324e-15 1.44244 8.17541)
(5.81712e-15 1.37448 7.55895)
(3.92131e-15 1.30015 6.97036)
(8.11266e-15 1.22424 6.41288)
(3.62567e-15 1.14701 5.88895)
(5.96042e-15 1.0669 5.4017)
(2.02969e-15 0.982209 4.95501)
(3.86106e-15 0.891718 4.55459)
(4.33368e-15 0.79832 4.20328)
(1.61424e-14 0.702173 3.90056)
(1.05422e-14 0.602638 3.65114)
(5.30064e-15 0.51538 3.45047)
(4.45065e-15 0.423064 3.25952)
(-4.23772e-15 0.244573 3.1178)
(-1.70056e-15 0.0469724 3.14362)
(1.28168e-16 0.0162746 3.17772)
(1.28107e-14 0.0856916 3.20034)
(1.65748e-14 0.138379 3.0989)
(2.95955e-14 0.0419162 2.85541)
(-5.80318e-16 -0.194471 2.61946)
(-1.37907e-14 -0.322176 2.60221)
(-9.43938e-15 -0.343706 2.63173)
(-2.29074e-15 -0.400336 2.62855)
(1.45131e-15 -0.46562 2.66901)
(4.8076e-15 -0.504685 2.73645)
(1.01937e-14 -0.558031 2.78714)
(1.34961e-14 -0.612904 2.82505)
(6.42701e-15 -0.643977 2.81155)
(2.89822e-15 -0.681924 2.71327)
(4.55869e-15 -0.723472 2.50999)
(8.69816e-16 -0.774335 2.17802)
(-4.66782e-15 -0.914824 1.76593)
(-1.14633e-14 -1.00354 0.954947)
(-1.3605e-14 -0.783004 -0.194116)
(-1.5748e-14 -0.241078 -2.12708)
(1.83858e-15 -1.00237 19.7443)
(1.81466e-15 -0.786521 21.049)
(5.31861e-16 -0.599993 21.9571)
(-5.74198e-16 -0.411149 22.5762)
(-1.34861e-15 -0.195916 22.9645)
(-2.05355e-16 0.0682738 23.119)
(1.22273e-15 0.361835 22.9947)
(5.87221e-16 0.665506 22.4735)
(3.95155e-16 0.903358 21.5465)
(2.24772e-15 1.02625 20.3763)
(1.61112e-15 1.07529 19.1236)
(-1.32575e-15 1.09642 17.8546)
(-2.1391e-15 1.11057 16.5818)
(-2.67305e-15 1.12463 15.3044)
(-2.09961e-15 1.1407 14.0208)
(-2.47276e-15 1.15995 12.729)
(-1.16106e-15 1.1832 11.4269)
(4.64011e-15 1.21108 10.1111)
(3.08451e-15 1.2437 8.78026)
(6.42926e-15 1.27974 7.42579)
(-2.31113e-15 1.30867 6.03865)
(1.59932e-15 1.31629 4.62243)
(1.45678e-14 1.34241 3.1562)
(-2.38699e-15 1.52162 1.57693)
(-2.11905e-14 1.49131 0.0448523)
(-4.25204e-14 0.962412 0.0164746)
(-8.21239e-14 0.486831 -0.231594)
(-4.8418e-14 -0.00540655 -0.520405)
(-1.11501e-14 -0.561891 -0.292856)
(-2.20006e-14 -0.926944 0.160994)
(-2.13584e-14 -1.1856 0.802358)
(-1.64643e-14 -1.39344 1.56751)
(-1.22265e-14 -1.56837 2.43752)
(-1.29169e-14 -1.71887 3.40221)
(-1.14405e-14 -1.84051 4.44823)
(-1.43984e-15 -1.9221 5.55108)
(-3.93114e-15 -1.95659 6.67325)
(-4.82072e-15 -1.95069 7.77149)
(-3.82008e-15 -1.92772 8.81136)
(-3.23704e-15 -1.92139 9.79341)
(-3.53892e-15 -1.94726 10.7672)
(-1.50069e-15 -1.96658 11.789)
(-1.6362e-15 -1.90466 12.8685)
(-2.03677e-16 -1.70888 13.9687)
(2.88029e-17 -1.31177 14.9837)
(1.56324e-15 -0.700378 15.7883)
(3.90749e-15 0.0582631 16.3165)
(7.01971e-15 0.866993 16.34)
(4.37281e-15 1.35582 15.8045)
(4.30554e-15 1.48238 15.0143)
(2.00743e-15 1.41191 14.2015)
(3.30711e-16 1.27172 13.433)
(-2.47421e-17 1.11718 12.7127)
(3.54341e-15 0.94314 12.0291)
(4.93248e-15 0.702256 11.3481)
(7.50003e-15 0.326249 10.608)
(1.1962e-14 -0.170904 9.88471)
(1.78401e-14 -0.548861 9.44398)
(1.57925e-14 -0.596045 9.32767)
(1.86286e-14 -0.240739 9.43731)
(1.36324e-14 0.50064 9.46429)
(9.75736e-15 1.15005 9.22476)
(8.04508e-15 1.50754 8.7789)
(1.13698e-14 1.6402 8.25109)
(7.6028e-15 1.64965 7.70011)
(1.24612e-14 1.60189 7.15188)
(7.39488e-15 1.53079 6.61827)
(7.53378e-15 1.45148 6.10509)
(1.29227e-14 1.36927 5.61572)
(5.28887e-15 1.28434 5.15325)
(9.28267e-15 1.19481 4.72182)
(2.99896e-15 1.09872 4.32639)
(8.79367e-15 0.994794 3.97433)
(9.94901e-15 0.887235 3.66899)
(1.17436e-14 0.776585 3.4086)
(1.91746e-14 0.659687 3.20221)
(2.14125e-14 0.564936 3.04501)
(1.84739e-14 0.4706 2.87)
(1.7745e-14 0.247472 2.75617)
(1.93421e-14 0.0045633 2.82362)
(2.82946e-14 -0.00562926 2.89779)
(1.43212e-14 0.10228 2.94796)
(1.95345e-14 0.210182 2.80948)
(1.07566e-14 0.148328 2.5687)
(-1.31577e-14 -0.161181 2.15577)
(-4.96595e-15 -0.337568 2.19389)
(5.34441e-15 -0.349802 2.27154)
(5.95241e-15 -0.423581 2.24411)
(9.383e-15 -0.491342 2.2512)
(8.49298e-15 -0.512606 2.24091)
(1.57511e-14 -0.574529 2.17671)
(1.0697e-14 -0.626917 2.08354)
(-3.94407e-15 -0.612465 1.88655)
(-4.98443e-15 -0.616231 1.63962)
(-4.24528e-15 -0.63465 1.34043)
(-1.84909e-15 -0.544156 0.926703)
(-5.94319e-15 -0.50013 -0.0923682)
(-9.37079e-15 -0.423157 -1.57631)
(-1.24684e-14 -0.085166 -2.45017)
(-1.28375e-14 0.232941 -3.25886)
(1.62637e-15 -1.15728 18.8649)
(1.37101e-15 -0.91076 20.109)
(1.93937e-16 -0.695282 20.9615)
(-1.89727e-15 -0.485283 21.5497)
(-1.30128e-15 -0.24967 21.9423)
(-4.44749e-16 0.0422179 22.1375)
(-8.74026e-16 0.373557 22.0852)
(3.65272e-16 0.725292 21.6385)
(1.44275e-15 1.005 20.757)
(2.28012e-15 1.14977 19.6185)
(2.52686e-15 1.20871 18.4016)
(1.7826e-15 1.23622 17.1749)
(1.90662e-16 1.25641 15.947)
(-8.82865e-16 1.27684 14.7135)
(-9.81749e-16 1.29963 13.47)
(1.19746e-16 1.32597 12.2124)
(-8.29267e-16 1.35664 10.9369)
(1.2792e-15 1.3922 9.63845)
(2.62501e-15 1.43303 8.31628)
(3.21019e-15 1.47836 6.96301)
(7.7245e-16 1.51802 5.57203)
(2.93705e-16 1.53596 4.14096)
(1.57617e-14 1.5788 2.65061)
(4.53199e-16 1.76052 1.11039)
(-1.81711e-14 1.60347 -0.155471)
(-2.50495e-14 0.978753 -0.146896)
(-6.16799e-14 0.513169 -0.36838)
(9.33853e-15 0.011361 -0.660926)
(-1.89713e-14 -0.62371 -0.511689)
(-1.75924e-14 -1.02785 -0.15384)
(-2.29847e-14 -1.3186 0.382495)
(-1.52824e-14 -1.55451 1.04849)
(-1.05508e-14 -1.7548 1.8261)
(-1.294e-14 -1.92897 2.70541)
(-1.14796e-14 -2.07104 3.67472)
(-1.57547e-15 -2.16685 4.71222)
(-4.47283e-15 -2.20637 5.78112)
(-3.73863e-15 -2.19571 6.83203)
(-1.47429e-15 -2.16294 7.81567)
(-7.47139e-16 -2.15205 8.71647)
(-1.17317e-15 -2.18753 9.5807)
(-3.56632e-15 -2.22837 10.4829)
(-3.12883e-15 -2.1846 11.4611)
(-1.9788e-15 -1.99258 12.5039)
(-2.32605e-15 -1.57128 13.5068)
(-7.92962e-16 -0.899874 14.3238)
(1.67336e-15 -0.0537149 14.9067)
(4.86796e-15 0.895871 15.0318)
(7.41256e-15 1.4878 14.5755)
(2.20443e-15 1.65026 13.8495)
(9.23105e-16 1.58237 13.0979)
(9.12415e-16 1.43525 12.3835)
(-1.82018e-16 1.27466 11.7107)
(2.17296e-15 1.10051 11.0756)
(4.73692e-15 0.86799 10.4521)
(8.16954e-15 0.509234 9.76181)
(1.2554e-14 -0.0214705 8.99823)
(1.63737e-14 -0.488538 8.46255)
(1.43129e-14 -0.609927 8.2482)
(1.61307e-14 -0.282307 8.26588)
(1.01983e-14 0.512617 8.21422)
(9.35925e-15 1.2251 7.96045)
(7.86148e-15 1.61757 7.55511)
(7.16666e-15 1.76498 7.09966)
(7.89944e-15 1.7798 6.63189)
(9.57508e-15 1.73307 6.16656)
(6.20483e-15 1.66062 5.7109)
(6.57493e-15 1.57839 5.26918)
(6.09838e-15 1.49188 4.84455)
(4.50964e-15 1.40103 4.44047)
(1.13745e-14 1.30352 4.06194)
(5.86929e-15 1.19706 3.71509)
(5.41024e-15 1.08037 3.40923)
(3.77803e-15 0.959332 3.14831)
(9.04097e-15 0.834978 2.92898)
(5.07206e-15 0.699234 2.76653)
(1.54774e-14 0.600009 2.65346)
(2.61096e-14 0.509767 2.48978)
(2.13898e-14 0.233828 2.41856)
(1.33993e-14 -0.0609655 2.49724)
(-9.41017e-15 -0.0443578 2.64278)
(-2.43865e-14 0.111735 2.7356)
(-6.68633e-15 0.278741 2.57117)
(-2.40637e-14 0.27183 2.36777)
(-8.68321e-15 -0.131655 1.91072)
(-3.00299e-15 -0.354499 1.99329)
(2.91842e-15 -0.332108 2.07692)
(-1.19439e-15 -0.442305 1.97296)
(2.03704e-15 -0.52413 1.9044)
(1.11602e-14 -0.497114 1.76178)
(7.84838e-15 -0.54749 1.55726)
(-9.26466e-16 -0.628043 1.32695)
(-1.21973e-14 -0.532751 1.08285)
(-3.89758e-15 -0.383926 0.523744)
(-7.11024e-16 -0.288013 -0.583235)
(-6.29174e-15 -0.181048 -1.38137)
(-8.33458e-15 -0.145413 -1.83816)
(-1.12666e-14 -0.161178 -2.55907)
(-1.059e-14 0.021442 -3.34655)
(-1.16347e-14 0.316556 -3.96477)
(2.0656e-15 -1.30641 17.9386)
(1.63298e-15 -1.02985 19.092)
(1.57958e-15 -0.789631 19.8858)
(9.88142e-17 -0.563287 20.4457)
(1.03236e-15 -0.311989 20.8415)
(2.62521e-15 0.00340126 21.0777)
(4.12419e-16 0.370561 21.1099)
(-2.16229e-15 0.772614 20.766)
(-1.7351e-15 1.09831 19.954)
(-2.52059e-15 1.26656 18.8553)
(-1.5707e-15 1.33522 17.6712)
(1.31219e-16 1.36849 16.4782)
(2.91314e-16 1.39423 15.2857)
(3.30811e-16 1.42084 14.0885)
(2.35962e-16 1.45055 12.8812)
(6.18619e-16 1.48459 11.6585)
(1.35889e-15 1.52377 10.4146)
(-2.57435e-15 1.56842 9.1419)
(-1.40352e-15 1.61895 7.83805)
(3.97425e-15 1.67479 6.49535)
(-3.15769e-16 1.72654 5.11031)
(-3.97983e-16 1.75609 3.67865)
(1.64678e-14 1.8095 2.19179)
(-1.10294e-14 1.97038 0.758733)
(-8.92222e-15 1.69592 -0.214935)
(-5.48788e-15 1.00058 -0.25292)
(4.75774e-15 0.541983 -0.477637)
(-4.32326e-14 0.0418175 -0.812504)
(-1.93044e-14 -0.674126 -0.727414)
(-1.76135e-14 -1.11162 -0.448643)
(-3.16531e-14 -1.43352 -0.00998966)
(-1.35192e-14 -1.69861 0.564253)
(-1.36372e-14 -1.92545 1.25605)
(-1.70742e-14 -2.12465 2.05478)
(-1.07711e-14 -2.28908 2.9497)
(-8.39492e-16 -2.40179 3.92314)
(-4.16192e-15 -2.44874 4.94299)
(-2.53676e-15 -2.43323 5.95791)
(2.65058e-16 -2.38627 6.90324)
(8.48569e-16 -2.36309 7.73852)
(1.36717e-15 -2.40162 8.49428)
(-1.74823e-15 -2.46421 9.25869)
(-4.41592e-15 -2.4464 10.1061)
(-4.3072e-15 -2.26973 11.066)
(-4.85667e-15 -1.83529 12.043)
(-3.3519e-15 -1.11104 12.8632)
(-1.10019e-15 -0.185127 13.485)
(2.91654e-15 0.901348 13.6963)
(5.40622e-15 1.59829 13.309)
(5.72579e-15 1.79659 12.6469)
(6.34161e-15 1.73231 11.9635)
(5.68785e-15 1.57977 11.3142)
(6.23449e-15 1.41351 10.7017)
(7.8007e-15 1.23915 10.1231)
(1.02205e-14 1.01675 9.55499)
(1.2443e-14 0.678206 8.92511)
(1.15268e-14 0.137157 8.20183)
(1.20263e-14 -0.406925 7.61859)
(1.29807e-14 -0.597829 7.33014)
(1.30499e-14 -0.298712 7.24753)
(1.27599e-14 0.54166 7.06493)
(1.18781e-14 1.29754 6.77162)
(8.22576e-15 1.71017 6.39522)
(7.56808e-15 1.86518 6.00451)
(2.53232e-15 1.88335 5.61333)
(8.53876e-15 1.83811 5.22512)
(7.96891e-15 1.76581 4.84252)
(6.8256e-15 1.68249 4.46811)
(6.82848e-15 1.59357 4.1045)
(4.39818e-15 1.49852 3.75528)
(8.34738e-15 1.39438 3.4263)
(6.6842e-15 1.27837 3.12489)
(5.69615e-15 1.14941 2.86281)
(-1.98696e-15 1.0152 2.64505)
(-1.45513e-14 0.878068 2.46575)
(6.77813e-15 0.723806 2.34739)
(2.36574e-14 0.62452 2.27938)
(1.57408e-14 0.539668 2.12852)
(2.40252e-14 0.214903 2.11449)
(-5.00933e-15 -0.133668 2.16992)
(-1.94323e-14 -0.0826146 2.4165)
(-2.70548e-14 0.117833 2.62083)
(-3.21556e-14 0.328658 2.39063)
(-1.74669e-14 0.345242 2.1078)
(-2.19201e-14 -0.15632 1.82114)
(-5.79173e-15 -0.40979 1.79776)
(-1.1813e-15 -0.319116 1.86096)
(-4.1594e-15 -0.430382 1.66447)
(6.32034e-15 -0.562059 1.34277)
(5.61255e-15 -0.437536 1.22231)
(1.46866e-15 -0.322033 0.652475)
(-4.0226e-16 -0.298908 -0.586491)
(-5.97022e-15 -0.226553 -1.39419)
(-1.18177e-14 -0.103987 -1.67839)
(-1.2377e-14 -0.0478433 -1.90073)
(-5.97022e-15 -0.0457034 -2.33621)
(-8.56942e-15 0.0247946 -2.90992)
(-1.08046e-14 0.129016 -3.53581)
(-1.03214e-14 0.295259 -4.12773)
(-1.09336e-14 0.49019 -4.71863)
(2.01513e-15 -1.45122 16.9209)
(2.06502e-15 -1.14863 18.0151)
(1.80723e-15 -0.885706 18.7974)
(1.32851e-15 -0.644286 19.3493)
(1.19148e-15 -0.380151 19.7372)
(1.24408e-15 -0.0465998 19.9818)
(3.70084e-15 0.351875 20.0745)
(4.69422e-15 0.804733 19.844)
(2.08675e-15 1.18121 19.1284)
(-4.08356e-16 1.37601 18.0881)
(-2.76964e-15 1.45537 16.9441)
(-4.42172e-15 1.49451 15.7845)
(-2.6842e-15 1.52561 14.6224)
(-8.18105e-16 1.55812 13.4547)
(-6.7985e-16 1.59447 12.2775)
(1.14931e-15 1.63616 11.086)
(1.56066e-15 1.68417 9.87405)
(1.05407e-15 1.73874 8.6323)
(1.3836e-15 1.80018 7.35577)
(-1.12404e-16 1.8677 6.03477)
(9.73342e-16 1.93248 4.66891)
(-7.64194e-16 1.9736 3.25691)
(1.31357e-14 2.02821 1.80759)