/*--------------------------------*- C++ -*----------------------------------*\
| =========                 |                                                 |
| \\      /  F ield         | OpenFOAM: The Open Source CFD Toolbox           |
|  \\    /   O peration     | Version:  4.1                                   |
|   \\  /    A nd           | Web:      www.OpenFOAM.org                      |
|    \\/     M anipulation  |                                                 |
\*---------------------------------------------------------------------------*/
FoamFile
{
    version     2.0;
    format      ascii;
    class       volScalarField;
    location    "1300";
    object      p;
}
// * * * * * * * * * * * * * * * * * * * * * * * * * * * * * * * * * * * * * //

dimensions      [0 2 -2 0 0 0 0];

internalField   nonuniform List<scalar> 
26785
(
1268.9
1278.06
1287.11
1296.14
1305.14
1313.54
1320.85
1326.55
1330.28
1331.84
1331.34
1329.19
1326.14
1322.8
1319.82
1317.79
1316.85
1316.57
1317.4
1320.43
1326.24
1336.19
1351.38
1369.19
1387.99
1408.97
1433.69
1460.47
1489.3
1521.86
1550.76
1572.4
1590.34
1607.46
1621.33
1631.53
1638.14
1641.23
1640.83
1636.76
1628.83
1616.88
1600.8
1580.51
1556
1527.4
1494.9
1458.79
1419.47
1377.47
1334.29
1288.44
1236.74
1156.22
1036.97
931.002
854.47
807.118
777.156
746.864
720.209
697.034
675.479
650.483
654.048
658.742
633.876
624.308
626.994
624.533
621.906
613.542
598.993
584.545
571.84
559.825
548.109
536.698
525.596
514.734
503.981
493.153
482.031
470.372
457.913
444.38
429.496
412.982
394.569
374.001
351.046
325.51
297.221
266.104
232.004
195.21
154.973
113.737
65.1523
29.7129
1268.88
1278.04
1287.09
1296.13
1305.13
1313.53
1320.85
1326.57
1330.3
1331.87
1331.36
1329.21
1326.15
1322.81
1319.8
1317.76
1316.83
1316.54
1317.35
1320.36
1326.12
1336.02
1351.26
1369.13
1387.95
1408.81
1433.07
1460.01
1489.41
1521.95
1550.7
1572.46
1590.63
1607.72
1621.4
1631.5
1638.19
1641.39
1641.04
1637
1629.08
1617.13
1601.05
1580.75
1556.23
1527.62
1495.13
1459.05
1419.76
1377.8
1334.77
1288.71
1234.05
1149.06
1031.9
929.145
853.099
806.627
777.867
747.155
718.802
695.146
674.511
650.699
655.114
655.005
634.513
627.256
627.706
624.318
620.78
612.346
598.181
583.884
571.156
559.13
547.445
536.091
525.055
514.26
503.569
492.8
481.733
470.124
457.712
444.222
429.377
412.897
394.514
373.971
351.035
325.512
297.229
266.113
232.004
195.2
154.938
113.702
65.1045
29.634
1268.84
1278
1287.05
1296.09
1305.1
1313.52
1320.86
1326.59
1330.34
1331.92
1331.41
1329.25
1326.17
1322.81
1319.78
1317.7
1316.77
1316.49
1317.26
1320.22
1325.91
1335.75
1351.03
1368.91
1387.62
1408.49
1432.87
1460.14
1489.62
1521.9
1550.71
1572.71
1591.08
1608.13
1621.56
1631.54
1638.37
1641.75
1641.49
1637.5
1629.6
1617.65
1601.56
1581.26
1556.73
1528.12
1495.68
1459.63
1420.32
1378.44
1335.46
1288.89
1231.29
1140.62
1025.27
925.442
850.14
805.122
777.222
746.774
718.51
694.443
673.772
651.999
656.793
655.624
638.087
629.14
626.537
623.35
619.127
610.401
596.736
582.682
569.895
557.852
546.235
534.99
524.076
513.405
502.836
492.182
481.224
469.719
457.403
444.003
429.24
412.834
394.513
374.023
351.127
325.631
297.36
266.242
232.115
195.288
154.975
113.73
65.0571
29.6232
1268.78
1277.95
1286.99
1296.02
1305.05
1313.49
1320.86
1326.63
1330.4
1332
1331.49
1329.3
1326.21
1322.82
1319.74
1317.61
1316.67
1316.4
1317.13
1320.01
1325.61
1335.37
1350.72
1368.52
1387.19
1408.07
1432.48
1460.03
1489.77
1522
1550.81
1572.83
1591.31
1608.37
1621.74
1631.71
1638.73
1642.3
1642.18
1638.26
1630.39
1618.44
1602.34
1582.05
1557.53
1528.92
1496.6
1460.5
1421.08
1379.26
1336.35
1289.18
1229.1
1133.32
1018.33
920.29
845.693
802.645
776.008
745.516
717.099
693.259
673.269
654.76
657.833
655.06
639.012
629.45
625.942
622.272
616.843
607.559
594.363
580.681
567.999
556.044
544.554
533.458
522.703
512.193
501.784
491.287
480.484
469.129
456.957
443.693
429.056
412.765
394.545
374.139
351.309
325.858
297.61
266.495
232.343
195.484
155.094
113.829
64.9959
29.7046
1268.7
1277.87
1286.9
1295.94
1304.99
1313.46
1320.87
1326.68
1330.48
1332.1
1331.59
1329.38
1326.26
1322.84
1319.7
1317.49
1316.53
1316.27
1316.98
1319.75
1325.25
1334.96
1350.36
1368.13
1386.78
1407.75
1432.16
1459.88
1489.88
1522.07
1550.79
1572.8
1591.52
1608.74
1622.16
1632.19
1639.33
1643.09
1643.12
1639.28
1631.44
1619.5
1603.41
1583.14
1558.63
1530.07
1497.88
1461.65
1422.02
1380.22
1337.43
1289.51
1226.68
1126.57
1011.28
913.923
839.758
798.771
773.91
743.805
715.505
692.015
672.749
656.946
657.879
654.188
639.477
629.457
624.997
620.332
613.848
604.205
591.485
578.218
565.699
553.856
542.504
531.57
520.991
510.664
500.441
490.134
479.522
468.356
456.372
443.29
428.826
412.694
394.617
374.332
351.599
326.218
298.008
266.902
232.722
195.822
155.329
114.032
64.9458
29.9081
1268.62
1277.77
1286.8
1295.84
1304.9
1313.41
1320.87
1326.74
1330.59
1332.23
1331.71
1329.48
1326.33
1322.86
1319.65
1317.35
1316.34
1316.1
1316.78
1319.44
1324.85
1334.55
1350.08
1367.75
1386.37
1407.37
1431.77
1459.68
1489.95
1522.03
1550.65
1572.79
1591.85
1609.25
1622.78
1632.9
1640.18
1644.12
1644.32
1640.58
1632.77
1620.85
1604.78
1584.54
1560.05
1531.58
1499.45
1463.02
1423.13
1381.3
1338.66
1289.8
1223.84
1119.84
1004.09
906.645
832.611
793.667
770.844
741.432
713.475
690.525
672.148
658.4
657.338
653.215
639.675
629.206
623.572
617.842
610.522
600.619
588.271
575.371
563.035
551.328
540.13
529.37
518.979
508.849
498.831
488.734
478.337
467.392
455.629
442.767
428.517
412.588
394.695
374.572
351.971
326.688
298.537
267.454
233.247
196.3
155.679
114.341
64.9053
30.2232
1268.51
1277.66
1286.67
1295.71
1304.8
1313.35
1320.87
1326.8
1330.72
1332.39
1331.87
1329.6
1326.41
1322.9
1319.61
1317.18
1316.1
1315.87
1316.53
1319.1
1324.47
1334.23
1349.98
1367.45
1385.96
1406.9
1431.31
1459.41
1489.92
1521.88
1550.47
1572.88
1592.31
1609.88
1623.55
1633.83
1641.29
1645.43
1645.79
1642.15
1634.4
1622.5
1606.47
1586.25
1561.79
1533.51
1501.25
1464.55
1424.4
1382.49
1340.01
1290.04
1220.76
1113.18
996.841
898.813
824.701
787.837
767.099
738.617
711.201
688.875
671.414
659.142
656.593
652.018
639.402
628.607
621.741
615.003
606.97
596.84
584.77
572.191
560.052
548.5
537.47
526.897
516.706
506.785
496.982
487.109
476.943
466.236
454.718
442.105
428.102
412.413
394.745
374.823
352.392
327.241
299.175
268.132
233.905
196.912
156.143
114.756
64.8811
30.6422
1268.39
1277.52
1286.52
1295.56
1304.68
1313.29
1320.87
1326.88
1330.86
1332.58
1332.07
1329.75
1326.51
1322.94
1319.57
1317.01
1315.81
1315.58
1316.21
1318.78
1324.26
1334.36
1350.08
1367.16
1385.42
1406.29
1430.75
1459.06
1489.8
1521.68
1550.29
1573.06
1592.86
1610.61
1624.51
1635.01
1642.68
1647.03
1647.56
1644.02
1636.33
1624.47
1608.47
1588.29
1563.87
1535.88
1503.31
1466.22
1425.79
1383.81
1341.43
1290.21
1217.49
1106.67
989.673
890.917
816.702
781.532
762.933
735.489
708.782
687.134
670.524
659.281
655.574
650.369
638.506
627.489
619.52
611.862
603.203
592.868
581.004
568.704
556.77
545.393
534.548
524.179
514.203
504.504
494.929
485.289
475.364
464.907
453.647
441.298
427.564
412.141
394.729
375.043
352.816
327.83
299.878
268.898
234.663
197.629
156.697
115.26
64.8703
31.1427
1268.24
1277.36
1286.35
1295.39
1304.54
1313.2
1320.87
1326.97
1331.04
1332.81
1332.3
1329.93
1326.63
1323
1319.54
1316.83
1315.49
1315.23
1315.85
1318.5
1324.28
1335.12
1350.24
1366.77
1384.7
1405.51
1430.07
1458.6
1489.56
1521.42
1550.13
1573.31
1593.52
1611.49
1625.66
1636.46
1644.37
1648.93
1649.62
1646.2
1638.58
1626.75
1610.81
1590.66
1566.29
1538.67
1505.66
1468.09
1427.3
1385.23
1342.86
1290.26
1214.03
1100.42
982.81
883.256
808.9
774.492
758.574
732.284
706.391
685.422
669.48
658.872
654.241
648.331
636.975
625.792
616.905
608.438
599.233
588.708
576.993
564.934
553.205
542.019
531.38
521.232
511.49
502.031
492.7
483.307
473.632
463.431
452.436
440.361
426.905
411.762
394.625
375.198
353.202
328.409
300.597
269.705
235.476
198.415
157.311
115.831
64.8772
31.6929
1268.08
1277.19
1286.15
1295.19
1304.38
1313.11
1320.87
1327.07
1331.23
1333.07
1332.57
1330.14
1326.77
1323.08
1319.52
1316.66
1315.14
1314.83
1315.46
1318.32
1324.55
1335.99
1350.24
1366.16
1383.77
1404.55
1429.26
1458.03
1489.22
1521.11
1549.98
1573.63
1594.27
1612.52
1627.04
1638.18
1646.36
1651.14
1652
1648.7
1641.15
1629.37
1613.48
1593.36
1569.04
1541.84
1508.29
1470.17
1428.94
1386.76
1344.23
1290.11
1210.37
1094.49
976.457
875.949
801.338
767.371
754.29
729.232
704.115
683.744
668.295
657.983
652.519
645.883
634.819
623.514
613.897
604.74
595.057
584.353
572.742
560.89
549.365
538.385
527.97
518.065
508.579
499.383
490.317
481.188
471.779
461.846
451.123
439.325
426.152
411.294
394.437
375.28
353.529
328.948
301.295
270.511
236.303
199.23
157.958
116.444
64.9179
32.2394
1267.9
1276.99
1285.93
1294.98
1304.21
1313
1320.86
1327.17
1331.45
1333.36
1332.88
1330.39
1326.94
1323.17
1319.51
1316.49
1314.74
1314.38
1315.09
1318.43
1325.45
1336.33
1349.87
1365.22
1382.61
1403.39
1428.3
1457.32
1488.77
1520.75
1549.85
1574.03
1595.15
1613.72
1628.63
1640.16
1648.64
1653.65
1654.7
1651.52
1644.05
1632.32
1616.5
1596.4
1572.15
1545.34
1511.22
1472.45
1430.77
1388.42
1345.48
1289.72
1206.52
1088.92
970.759
869.495
795.075
762.28
750.617
726.461
702.007
682.022
666.895
656.628
650.327
642.955
632.06
620.669
610.494
600.76
590.661
579.788
568.246
556.573
545.252
534.49
524.318
514.68
505.475
496.567
487.79
478.95
469.829
460.181
449.744
438.232
425.345
410.773
394.198
375.31
353.807
329.444
301.96
271.298
237.124
200.054
158.621
117.08
65.0211
32.7138
1267.71
1276.77
1285.69
1294.73
1304.01
1312.88
1320.85
1327.29
1331.68
1333.69
1333.24
1330.68
1327.13
1323.27
1319.52
1316.31
1314.29
1313.79
1314.66
1318.66
1326.42
1335.87
1348.95
1363.93
1381.19
1402.03
1427.17
1456.47
1488.19
1520.34
1549.73
1574.49
1596.13
1615.1
1630.46
1642.41
1651.22
1656.49
1657.72
1654.68
1647.29
1635.62
1619.87
1599.8
1575.61
1549.12
1514.47
1474.93
1432.79
1390.27
1346.6
1289.08
1202.57
1083.85
966.071
865.067
790.194
759.171
747.559
723.901
699.944
680.184
665.181
654.73
647.606
639.571
628.728
617.286
606.691
596.481
586.023
574.992
563.496
551.981
540.861
530.333
520.424
511.075
502.176
493.584
485.125
476.602
467.794
458.457
448.326
437.116
424.528
410.247
393.954
375.333
354.076
329.929
302.615
272.079
237.944
200.886
159.301
117.727
65.2109
33.0587
1267.49
1276.53
1285.43
1294.47
1303.79
1312.75
1320.83
1327.41
1331.94
1334.05
1333.64
1331.01
1327.36
1323.4
1319.53
1316.13
1313.78
1313.02
1313.94
1318.43
1325.98
1334.65
1347.5
1362.27
1379.5
1400.43
1425.84
1455.45
1487.48
1519.87
1549.64
1575.02
1597.23
1616.67
1632.51
1644.93
1654.1
1659.65
1661.09
1658.19
1650.9
1639.29
1623.61
1603.56
1579.44
1553.1
1518.04
1477.63
1435.03
1392.35
1347.62
1288.21
1198.63
1079.35
962.271
862.259
785.296
757.178
745.033
721.47
697.791
678.058
663.067
652.302
644.372
635.732
624.855
613.389
602.48
591.882
581.115
569.939
558.475
547.105
536.189
525.906
516.281
507.245
498.679
490.43
482.318
474.142
465.679
456.682
446.884
436.001
423.73
409.756
393.754
375.405
354.391
330.458
303.309
272.897
238.798
201.752
160.013
118.39
65.4938
33.2655
1267.26
1276.27
1285.14
1294.18
1303.55
1312.6
1320.81
1327.54
1332.23
1334.45
1334.09
1331.39
1327.62
1323.55
1319.56
1315.96
1313.24
1312.13
1312.95
1317.46
1324.25
1332.85
1345.58
1360.25
1377.51
1398.59
1424.3
1454.25
1486.64
1519.34
1549.55
1575.6
1598.45
1618.42
1634.81
1647.73
1657.3
1663.14
1664.8
1662.05
1654.86
1643.32
1627.72
1607.7
1583.67
1557.25
1521.9
1480.56
1437.51
1394.68
1348.61
1287.21
1194.81
1075.46
959.308
860.57
780.304
756.787
743.365
719.033
695.529
675.616
660.492
649.344
640.626
631.416
620.481
609.004
597.855
586.937
575.906
564.603
553.164
541.932
531.226
521.206
511.885
503.187
494.979
487.1
479.365
471.566
463.478
454.852
445.421
434.895
422.97
409.328
393.637
375.574
354.813
331.095
304.109
273.817
239.742
202.701
160.796
119.096
65.8604
33.3864
1267
1275.99
1284.82
1293.86
1303.29
1312.44
1320.79
1327.68
1332.53
1334.89
1334.58
1331.81
1327.91
1323.73
1319.63
1315.84
1312.75
1311.2
1311.73
1315.94
1322.03
1330.64
1343.23
1357.88
1375.22
1396.48
1422.53
1452.85
1485.65
1518.73
1549.46
1576.25
1599.79
1620.36
1637.34
1650.81
1660.81
1666.97
1668.87
1666.29
1659.21
1647.73
1632.22
1612.22
1588.34
1561.59
1526.05
1483.73
1440.25
1397.27
1349.65
1286.16
1191.2
1072.21
957.284
860.271
780.497
757.377
739.905
716.31
693.068
672.874
657.475
645.882
636.404
626.664
615.657
604.157
592.812
581.627
570.37
558.955
547.542
536.45
525.963
516.223
507.229
498.893
491.069
483.587
476.255
468.863
461.181
452.959
443.927
433.793
422.25
408.973
393.624
375.873
355.384
331.895
305.075
274.902
240.841
203.793
161.694
119.894
66.2911
33.5159
1266.74
1275.69
1284.49
1293.52
1303
1312.27
1320.77
1327.83
1332.86
1335.36
1335.13
1332.29
1328.26
1323.93
1319.72
1315.78
1312.42
1310.46
1310.58
1314.28
1319.68
1328.14
1340.53
1355.16
1372.61
1394.09
1420.51
1451.24
1484.5
1518.04
1549.37
1576.95
1601.25
1622.48
1640.12
1654.17
1664.64
1671.15
1673.3
1670.9
1663.94
1652.54
1637.11
1617.14
1593.46
1566.27
1530.5
1487.15
1443.29
1400.09
1350.83
1285.16
1187.86
1069.58
956.18
861.067
784.987
757.736
736.124
713.298
690.341
669.852
654.055
641.962
631.764
621.53
610.42
598.869
587.353
575.937
564.482
552.972
541.591
530.645
520.391
510.95
502.307
494.356
486.941
479.881
472.977
466.018
458.771
450.985
442.386
432.682
421.559
408.686
393.718
376.314
356.124
332.886
306.245
276.198
242.141
205.083
162.752
120.84
66.7595
33.7646
1266.46
1275.37
1284.13
1293.16
1302.7
1312.07
1320.73
1327.99
1333.21
1335.88
1335.73
1332.82
1328.65
1324.18
1319.84
1315.77
1312.23
1309.96
1309.66
1312.7
1317.29
1325.4
1337.51
1352.1
1369.68
1391.41
1418.22
1449.4
1483.18
1517.27
1549.27
1577.7
1602.83
1624.8
1643.14
1657.83
1668.8
1675.68
1678.12
1675.9
1669.07
1657.74
1642.4
1622.46
1599.03
1571.38
1535.28
1490.87
1446.66
1403.13
1352.21
1284.25
1184.81
1067.5
955.868
862.466
790.083
755.942
733.817
710.706
687.273
666.529
650.249
637.618
626.743
616.045
604.795
593.162
581.482
569.857
558.225
546.633
535.293
524.502
514.498
505.38
497.112
489.571
482.587
475.97
469.518
463.015
456.23
448.909
440.777
431.538
420.874
408.446
393.898
376.878
357.022
334.062
307.621
277.716
243.661
206.599
163.989
121.98
67.2377
34.2346
1266.17
1275.03
1283.74
1292.77
1302.37
1311.87
1320.7
1328.16
1333.59
1336.43
1336.39
1333.42
1329.1
1324.47
1319.99
1315.8
1312.1
1309.55
1308.77
1310.99
1314.82
1322.43
1334.19
1348.72
1366.43
1388.41
1415.64
1447.32
1481.67
1516.38
1549.15
1578.49
1604.52
1627.3
1646.4
1661.77
1673.28
1680.58
1683.31
1681.3
1674.6
1663.35
1648.1
1628.2
1605.03
1576.93
1540.39
1494.94
1450.41
1406.36
1353.82
1283.44
1182.08
1065.87
956.157
864.19
794.477
753.919
732.675
707.933
683.763
662.864
646.058
632.874
621.361
610.226
598.8
587.049
575.203
563.381
551.586
539.922
528.63
518.008
508.275
499.504
491.638
484.531
477.999
471.846
465.865
459.84
453.54
446.711
439.076
430.335
420.165
408.219
394.129
377.528
358.038
335.387
309.169
279.431
245.383
208.34
165.403
123.339
67.7026
34.9972
1265.86
1274.66
1283.33
1292.35
1302.02
1311.64
1320.66
1328.33
1333.98
1337.02
1337.1
1334.08
1329.6
1324.8
1320.18
1315.85
1312
1309.16
1307.83
1309.15
1312.22
1319.24
1330.58
1345
1362.82
1385.08
1412.77
1444.97
1479.98
1515.39
1549
1579.32
1606.32
1629.99
1649.92
1666.01
1678.11
1685.85
1688.9
1687.12
1680.56
1669.38
1654.22
1634.36
1611.45
1582.94
1545.84
1499.4
1454.53
1409.75
1355.65
1282.71
1179.68
1064.61
956.853
866.162
798.133
754.633
731.423
704.641
679.96
658.846
641.48
627.74
615.628
604.08
592.446
580.543
568.519
556.503
544.552
532.823
521.59
511.153
501.713
493.318
485.88
479.232
473.174
467.503
462.011
456.484
450.689
444.374
437.261
429.045
419.399
407.966
394.366
378.217
359.122
336.809
310.839
281.297
247.268
210.279
166.972
124.927
68.1443
36.081
1265.53
1274.27
1282.89
1291.9
1301.64
1311.4
1320.61
1328.51
1334.41
1337.66
1337.87
1334.8
1330.18
1325.19
1320.41
1315.94
1311.88
1308.71
1306.75
1307.14
1309.43
1315.81
1326.68
1340.95
1358.86
1381.41
1409.57
1442.35
1478.07
1514.26
1548.8
1580.19
1608.23
1632.87
1653.68
1670.55
1683.28
1691.5
1694.9
1693.35
1686.94
1675.84
1660.77
1640.95
1618.28
1589.42
1551.66
1504.25
1458.99
1413.24
1357.62
1282.01
1177.6
1063.69
957.814
868.367
801.318
756.933
728.206
702.777
676.661
654.454
636.509
622.218
609.547
597.611
585.744
573.653
561.433
549.219
537.113
525.323
514.159
503.924
494.804
486.815
479.836
473.673
468.112
462.942
457.956
452.942
447.672
441.891
435.32
427.653
418.554
407.659
394.575
378.903
360.228
338.277
312.579
283.26
249.269
212.38
168.668
126.734
68.5677
37.4781
1265.2
1273.86
1282.42
1291.43
1301.24
1311.14
1320.56
1328.71
1334.86
1338.34
1338.7
1335.59
1330.81
1325.63
1320.68
1316.04
1311.75
1308.18
1305.52
1304.99
1306.45
1312.11
1322.46
1336.54
1354.53
1377.37
1406.04
1439.43
1475.93
1513
1548.56
1581.08
1610.24
1635.92
1657.68
1675.39
1688.79
1697.53
1701.31
1700.01
1693.77
1682.74
1667.75
1647.97
1625.52
1596.39
1557.84
1509.5
1463.71
1416.78
1359.65
1281.34
1175.86
1063.09
958.981
870.805
804.274
759.584
726.139
701.36
672.546
649.487
631.148
616.306
603.125
590.828
578.704
566.385
553.944
541.521
529.257
517.41
506.324
496.312
487.541
479.992
473.505
467.856
462.815
458.166
453.704
449.223
444.495
439.267
433.258
426.158
417.628
407.293
394.748
379.574
361.338
339.766
314.357
285.287
251.352
214.609
170.463
128.747
68.9879
39.1604
1264.85
1273.43
1281.93
1290.92
1300.8
1310.86
1320.5
1328.91
1335.33
1339.06
1339.59
1336.45
1331.52
1326.14
1321
1316.16
1311.6
1307.57
1304.16
1302.66
1303.25
1308.15
1317.92
1331.76
1349.8
1372.93
1402.14
1436.2
1473.56
1511.57
1548.24
1581.98
1612.35
1639.16
1661.93
1680.54
1694.66
1703.95
1708.14
1707.12
1701.06
1690.09
1675.17
1655.43
1633.16
1603.85
1564.39
1515.12
1468.64
1420.32
1361.67
1280.71
1174.49
1062.86
960.368
873.472
807.235
761.928
725.901
698.341
669.328
644.145
625.405
610.026
596.381
583.745
571.337
558.746
546.053
533.404
520.975
509.072
498.075
488.309
479.921
472.849
466.889
461.783
457.287
453.18
449.263
445.335
441.171
436.518
431.093
424.581
416.641
406.888
394.904
380.248
362.465
341.285
316.174
287.369
253.505
216.947
172.343
130.953
69.4263
41.0946
1264.48
1272.98
1281.41
1290.38
1300.34
1310.56
1320.44
1329.11
1335.83
1339.82
1340.55
1337.37
1332.3
1326.71
1321.36
1316.31
1311.43
1306.87
1302.65
1300.14
1299.81
1303.89
1313.04
1326.59
1344.66
1368.1
1397.87
1432.64
1470.92
1509.98
1547.85
1582.89
1614.55
1642.57
1666.43
1685.99
1700.89
1710.78
1715.41
1714.69
1708.81
1697.91
1683.04
1663.34
1641.21
1611.82
1571.32
1521.07
1473.73
1423.87
1363.62
1280.21
1173.54
1063.06
962.037
876.365
810.349
763.998
726.578
694.183
666.604
637.981
619.341
603.413
589.34
576.386
563.657
550.743
537.761
524.864
512.258
500.299
489.404
479.91
471.94
465.385
459.988
455.458
451.531
447.99
444.642
441.29
437.715
433.664
428.848
422.95
415.624
406.478
395.079
380.958
363.642
342.861
318.056
289.524
255.74
219.391
174.311
133.348
69.9074
43.2464
1264.09
1272.5
1280.86
1289.81
1299.84
1310.24
1320.36
1329.33
1336.35
1340.63
1341.56
1338.37
1333.15
1327.34
1321.76
1316.47
1311.24
1306.09
1301
1297.43
1296.11
1299.32
1307.79
1321
1339.07
1362.82
1393.2
1428.72
1468.02
1508.19
1547.37
1583.8
1616.83
1646.15
1671.16
1691.75
1707.48
1718.02
1723.12
1722.72
1717.04
1706.21
1691.37
1671.7
1649.64
1620.32
1578.62
1527.34
1478.99
1427.44
1365.5
1279.93
1173.1
1063.75
964.052
879.49
813.675
765.978
727.354
690.866
663.322
632.214
613.21
596.487
582.055
568.785
555.678
542.382
529.069
515.896
503.101
491.085
480.306
471.113
463.602
457.606
452.811
448.885
445.554
442.601
439.845
437.097
434.141
430.719
426.542
421.284
414.6
406.086
395.297
381.729
364.893
344.52
320.026
291.774
258.079
221.947
176.386
135.927
70.4574
45.5726
1263.68
1271.99
1280.28
1289.2
1299.32
1309.89
1320.27
1329.55
1336.9
1341.48
1342.64
1339.43
1334.08
1328.05
1322.22
1316.65
1311.03
1305.23
1299.22
1294.52
1292.15
1294.41
1302.15
1314.98
1333.02
1357.1
1388.12
1424.45
1464.84
1506.21
1546.79
1584.69
1619.18
1649.88
1676.12
1697.8
1714.42
1725.66
1731.28
1731.23
1725.76
1715
1700.18
1680.52
1658.46
1629.34
1586.29
1533.91
1484.43
1431.05
1367.32
1279.95
1173.22
1064.98
966.459
882.861
817.173
767.993
727.844
688.32
658.027
627.708
606.858
589.248
574.605
560.983
547.412
533.675
519.981
506.501
493.5
481.427
470.782
461.923
454.914
449.522
445.365
442.073
439.36
437.018
434.878
432.762
430.454
427.694
424.183
419.594
413.578
405.723
395.566
382.568
366.226
346.27
322.099
294.131
260.533
224.614
178.589
138.684
71.1029
48.0099
1263.26
1271.46
1279.66
1288.56
1298.75
1309.52
1320.18
1329.77
1337.47
1342.37
1343.78
1340.57
1335.08
1328.83
1322.73
1316.86
1310.8
1304.31
1297.32
1291.4
1287.92
1289.15
1296.1
1308.49
1326.48
1350.9
1382.61
1419.81
1461.37
1504.03
1546.1
1585.55
1621.59
1653.76
1681.3
1704.15
1721.72
1733.71
1739.89
1740.23
1734.99
1724.31
1709.47
1689.81
1667.67
1638.9
1594.32
1540.79
1490.06
1434.74
1369.14
1280.33
1173.92
1066.74
969.263
886.462
820.757
770.012
727.93
686.449
651.81
624.025
599.911
581.761
567.018
552.959
538.859
524.632
510.507
496.683
483.457
471.329
460.837
452.35
445.891
441.148
437.664
435.031
432.956
431.245
429.745
428.289
426.661
424.592
421.777
417.882
412.558
405.383
395.879
383.465
367.631
348.105
324.269
296.589
263.1
227.379
180.943
141.583
71.8688
50.4827
1262.81
1270.91
1279.01
1287.88
1298.15
1309.11
1320.06
1330
1338.07
1343.31
1344.98
1341.78
1336.16
1329.68
1323.29
1317.09
1310.55
1303.31
1295.27
1288.08
1283.39
1283.52
1289.61
1301.5
1319.41
1344.21
1376.68
1414.79
1457.62
1501.65
1545.3
1586.38
1624.04
1657.74
1686.67
1710.77
1729.36
1742.17
1748.96
1749.72
1744.74
1734.14
1719.26
1699.58
1677.25
1649
1602.72
1547.95
1495.93
1438.57
1371.01
1281.08
1175.17
1069.01
972.428
890.237
824.32
771.921
727.667
684.614
646.493
620.394
592.054
574.014
559.186
544.672
530.037
515.273
500.661
486.452
472.983
460.801
450.484
442.41
436.551
432.5
429.722
427.768
426.348
425.286
424.451
423.684
422.766
421.42
419.328
416.15
411.54
405.065
396.229
384.411
369.1
350.015
326.527
299.129
265.762
230.22
183.459
144.556
72.7772
52.9529
1262.34
1270.33
1278.33
1287.15
1297.51
1308.68
1319.94
1330.24
1338.69
1344.3
1346.26
1343.07
1337.33
1330.61
1323.91
1317.36
1310.28
1302.24
1293.09
1284.55
1278.55
1277.5
1282.64
1293.98
1311.81
1337.03
1370.34
1409.44
1453.62
1499.09
1544.4
1587.15
1626.49
1661.81
1692.19
1717.61
1737.31
1751.01
1758.48
1759.72
1755.03
1744.51
1729.56
1709.84
1687.2
1659.62
1611.46
1555.41
1502.06
1442.59
1373
1282.22
1176.91
1071.71
975.883
894.107
827.752
773.635
727.087
682.723
642.059
615.365
584.637
566.256
551.087
536.15
520.972
505.62
490.463
475.827
462.093
449.861
439.746
432.127
426.917
423.598
421.551
420.292
419.54
419.145
418.998
418.95
418.777
418.185
416.843
414.406
410.53
404.77
396.616
385.403
370.631
351.993
328.859
301.73
268.502
233.112
186.13
147.493
73.8512
55.4758
1261.85
1269.72
1277.61
1286.39
1296.83
1308.21
1319.79
1330.48
1339.34
1345.33
1347.6
1344.44
1338.57
1331.62
1324.6
1317.66
1310
1301.1
1290.78
1280.8
1273.4
1271.06
1275.19
1285.92
1303.66
1329.39
1363.64
1403.84
1449.45
1496.42
1543.42
1587.85
1628.9
1665.88
1697.79
1724.64
1745.52
1760.21
1768.44
1770.21
1765.85
1755.44
1740.39
1720.62
1697.54
1670.77
1620.52
1563.16
1508.52
1446.89
1375.18
1283.72
1179.06
1074.75
979.54
897.977
830.963
775.104
726.27
680.619
638.068
608.997
578.435
558.743
542.759
527.435
511.695
495.704
479.942
464.832
450.813
438.537
428.653
421.533
417.014
414.46
413.159
412.604
412.531
412.82
413.388
414.094
414.7
414.898
414.334
412.66
409.537
404.507
397.047
386.451
372.23
354.038
331.258
304.376
271.305
236.025
188.924
150.263
75.1298
58.1248
1261.34
1269.08
1276.86
1285.58
1296.1
1307.7
1319.63
1330.72
1340.01
1346.42
1349.02
1345.89
1339.91
1332.71
1325.35
1318
1309.71
1299.91
1288.35
1276.84
1267.92
1264.18
1267.22
1277.31
1295.02
1321.38
1356.73
1398.13
1445.27
1493.74
1542.39
1588.47
1631.23
1669.91
1703.43
1731.8
1753.97
1769.76
1778.83
1781.21
1777.22
1766.96
1751.78
1731.95
1708.29
1682.42
1629.9
1571.25
1515.36
1451.54
1377.65
1285.57
1181.55
1078.02
983.307
901.76
833.892
776.302
725.291
678.192
634.425
602.376
573.565
551.546
534.254
518.577
502.247
485.559
469.13
453.503
439.18
426.871
417.247
410.662
406.869
405.096
404.548
404.701
405.316
406.308
407.621
409.117
410.544
411.567
411.812
410.925
408.574
404.287
397.537
387.569
373.907
356.153
333.721
307.057
274.162
238.921
191.786
152.743
76.6996
60.6876
1260.81
1268.42
1276.06
1284.72
1295.32
1307.16
1319.45
1330.96
1340.7
1347.55
1350.5
1347.43
1341.33
1333.89
1326.19
1318.38
1309.42
1298.67
1285.8
1272.67
1262.11
1256.88
1258.77
1268.2
1285.98
1313.19
1349.87
1392.58
1441.23
1491.12
1541.34
1589
1633.44
1673.86
1709.08
1739.06
1762.64
1779.63
1789.65
1792.73
1789.17
1779.07
1763.76
1743.85
1719.42
1694.51
1639.6
1579.72
1522.67
1456.61
1380.46
1287.77
1184.31
1081.47
987.102
905.386
836.509
777.227
724.166
675.599
631.071
596.182
569.515
544.407
525.689
509.63
492.671
475.226
458.07
441.881
427.243
414.914
405.577
399.554
396.502
395.51
395.71
396.57
397.883
399.601
401.692
404.022
406.314
408.204
409.29
409.214
407.655
404.128
398.104
388.775
375.674
358.342
336.249
309.77
277.063
241.744
194.644
154.817
78.7265
62.4022
1260.26
1267.72
1275.23
1283.82
1294.5
1306.58
1319.25
1331.21
1341.41
1348.72
1352.06
1349.05
1342.85
1335.15
1327.1
1318.81
1309.14
1297.4
1283.14
1268.29
1255.98
1249.17
1249.88
1258.73
1276.81
1305.19
1343.33
1387.24
1437.09
1488.29
1540.08
1589.41
1635.57
1677.76
1714.76
1746.45
1771.54
1789.86
1800.92
1804.78
1801.7
1791.82
1776.35
1756.36
1730.94
1706.89
1649.65
1588.67
1530.51
1462.18
1383.71
1290.33
1187.31
1085.01
990.864
908.81
838.81
777.888
722.947
672.951
627.944
590.942
565.156
537.245
517.345
500.652
483.013
464.746
446.805
430.018
415.057
402.726
393.696
388.239
385.917
385.689
386.624
388.192
390.217
392.688
395.598
398.81
402.016
404.819
406.779
407.538
406.79
404.042
398.765
390.08
377.533
360.602
338.842
312.508
279.979
244.419
197.41
156.372
81.4032
62.2134
1259.69
1267
1274.35
1282.87
1293.62
1305.95
1319.03
1331.45
1342.15
1349.95
1353.69
1350.76
1344.46
1336.52
1328.1
1319.3
1308.86
1296.1
1280.38
1263.72
1249.57
1241.15
1240.74
1249.22
1267.95
1297.71
1337.02
1381.76
1432.64
1485.13
1538.49
1589.61
1637.64
1681.7
1720.56
1754.04
1780.75
1800.49
1812.68
1817.4
1814.87
1805.23
1789.6
1769.5
1742.84
1719.34
1660.13
1598.19
1538.97
1468.3
1387.46
1293.28
1190.54
1088.63
994.555
912.009
840.814
778.31
721.696
670.316
624.905
586.414
559.811
530.641
509.495
491.687
473.31
454.158
435.382
417.968
402.683
390.366
381.647
376.731
375.098
375.6
377.258
379.539
382.297
385.557
389.333
393.482
397.659
401.423
404.29
405.905
405.989
404.036
399.525
391.483
379.474
362.924
341.487
315.24
282.844
246.849
199.978
157.312
84.7532
59.4655
1259.09
1266.25
1273.44
1281.86
1292.68
1305.28
1318.77
1331.69
1342.91
1351.22
1355.4
1352.57
1346.17
1337.98
1329.2
1319.85
1308.61
1294.78
1277.56
1259.01
1242.97
1232.99
1231.69
1240.16
1259.73
1290.43
1330.4
1375.92
1427.92
1481.77
1536.75
1589.67
1639.67
1685.75
1726.58
1761.93
1790.36
1811.61
1825.01
1830.66
1828.72
1819.37
1803.57
1783.33
1755.15
1731.53
1671.13
1608.41
1548.12
1475.03
1391.76
1296.65
1194
1092.31
998.16
914.983
842.55
778.531
720.433
667.792
621.85
582.337
553.857
524.812
502.219
482.731
463.591
443.501
423.846
405.786
390.18
377.885
369.457
365.018
364.006
365.199
367.572
370.582
374.104
378.195
382.894
388.043
393.249
398.028
401.83
404.32
405.252
404.107
400.371
392.96
381.465
365.277
344.139
317.897
285.541
248.911
202.193
157.576
88.4393
54.3899
1258.47
1265.47
1272.47
1280.79
1291.69
1304.55
1318.49
1331.93
1343.69
1352.53
1357.18
1354.46
1347.97
1339.54
1330.39
1320.46
1308.37
1293.46
1274.71
1254.26
1236.38
1225.06
1223.25
1231.64
1251.53
1282.77
1323.36
1369.6
1422.76
1478.07
1534.82
1589.66
1641.74
1689.97
1732.89
1770.21
1800.46
1823.31
1837.99
1844.63
1843.33
1834.28
1818.32
1797.88
1767.99
1742.97
1682.76
1619.48
1558.03
1482.41
1396.66
1300.46
1197.7
1096.06
1001.68
917.752
844.055
778.591
719.17
665.417
618.801
578.603
547.634
519.879
495.349
473.791
453.872
432.805
412.235
393.518
377.595
365.312
357.121
353.059
352.581
354.43
357.525
361.29
365.62
370.596
376.279
382.497
388.799
394.646
399.402
402.781
404.571
404.234
401.269
394.459
383.451
367.599
346.708
320.353
287.902
250.455
203.842
157.115
91.7812
48.0099
1257.84
1264.66
1271.47
1279.67
1290.63
1303.77
1318.18
1332.16
1344.48
1353.89
1359.02
1356.44
1349.86
1341.21
1331.68
1321.14
1308.17
1292.15
1271.9
1249.67
1230.12
1217.5
1214.78
1222.74
1242.8
1274.48
1315.9
1362.75
1417.07
1473.87
1532.57
1589.51
1643.82
1694.39
1739.54
1778.94
1811.15
1835.69
1851.7
1859.39
1858.77
1850.05
1833.92
1813.22
1781.59
1753.92
1695.13
1631.51
1568.73
1490.47
1402.22
1304.76
1201.67
1099.9
1005.14
920.346
845.37
778.529
717.924
663.192
615.812
575.062
541.778
515.361
488.331
465.003
444.17
422.088
400.578
381.202
364.956
352.651
344.608
340.793
340.76
343.241
347.079
351.643
356.834
362.757
369.496
376.858
384.323
391.286
397.004
401.275
403.925
404.382
402.157
395.9
385.345
369.791
349.052
322.439
289.731
251.313
204.681
155.856
93.9976
41.552
1257.19
1263.81
1270.41
1278.49
1289.5
1302.93
1317.83
1332.39
1345.29
1355.29
1360.94
1358.5
1351.84
1342.98
1333.08
1321.9
1308
1290.85
1269.11
1245.12
1223.76
1209.53
1205.6
1213.1
1233.48
1265.63
1307.94
1355.41
1410.97
1469.29
1530
1589.17
1645.91
1699
1746.53
1788.17
1822.5
1848.84
1866.25
1875.03
1875.12
1866.74
1850.45
1829.43
1796.21
1765.66
1708.35
1644.54
1580.24
1499.25
1408.44
1309.58
1205.96
1103.85
1008.57
922.803
846.539
778.385
716.711
661.127
612.924
571.61
536.589
510.227
481.205
456.57
434.478
411.353
388.893
368.857
352.268
339.878
331.868
328.158
328.483
331.59
336.208
341.624
347.741
354.681
362.557
371.144
379.84
387.965
394.63
399.786
403.279
404.491
402.946
397.182
387.04
371.717
350.992
323.967
290.838
251.322
204.496
153.71
94.5524
35.8063
1256.52
1262.93
1269.31