/*--------------------------------*- C++ -*----------------------------------*\
| =========                 |                                                 |
| \\      /  F ield         | OpenFOAM: The Open Source CFD Toolbox           |
|  \\    /   O peration     | Version:  4.1                                   |
|   \\  /    A nd           | Web:      www.OpenFOAM.org                      |
|    \\/     M anipulation  |                                                 |
\*---------------------------------------------------------------------------*/
FoamFile
{
    version     2.0;
    format      ascii;
    class       surfaceScalarField;
    location    "1300";
    object      phi;
}
// * * * * * * * * * * * * * * * * * * * * * * * * * * * * * * * * * * * * * //

dimensions      [0 3 -1 0 0 0 0];

internalField   nonuniform List<scalar> 
52920
(
-2072.33
-7.79155
-2045.9
-26.4339
-2009.75
-36.1569
-1964.91
-44.8444
-1911.66
-53.2665
-1851.35
-60.3228
-1786.56
-64.802
-1720.49
-66.0766
-1655.9
-64.6077
-1593.98
-61.9241
-1534.87
-59.1253
-1476.43
-58.461
-1414.98
-61.4617
-1353.68
-61.318
-1302.63
-51.0616
-1275.11
-27.535
-1284.32
9.191
-1343.7
59.3702
-1449.24
105.525
-1574.21
124.949
-1698.79
124.572
-1769.01
70.2044
-1735.56
-33.456
-1720.45
-15.1255
-1819.21
98.7409
-1987.77
168.55
-2207.97
220.186
-1901.64
-306.346
-724.062
-1177.59
421.536
-1145.61
943.388
-521.862
1158.32
-214.943
1503.48
-345.168
1862.22
-358.753
2059.84
-197.634
2135.29
-75.4573
2182.2
-46.9179
2271.33
-89.1373
2420.58
-149.262
2610.82
-190.254
2822.78
-211.969
3048.29
-225.529
3285.13
-236.851
3531.06
-245.931
3779.38
-248.337
4026.2
-246.829
4280.02
-253.831
4530.59
-250.582
4744.26
-213.68
4903.71
-159.458
5184.92
-281.22
5451.22
-266.297
3818.4
1632.81
392.597
3425.8
-1756.64
2149.23
-2621.69
865.051
-2964.41
342.72
-2574.35
-390.058
-1875.26
-699.099
-1507.38
-367.877
-1325.02
-182.365
-741.137
-583.885
565.327
-1306.47
2314.11
-1748.78
1367.11
946.995
-830.977
2198.08
-699.64
-131.339
603.714
-1303.35
1860.88
-1257.17
3051.51
-1190.63
3260.16
-208.654
2978.08
282.077
2977.81
0.271486
3380.79
-402.987
3988.98
-608.192
4677.13
-688.153
5397.2
-720.064
6129.17
-731.973
6864.26
-735.097
7598.51
-734.249
8330.41
-731.899
9059.99
-729.58
9788.32
-728.331
10517.2
-728.848
11248.7
-731.541
11985.3
-736.581
12729.2
-743.927
13482.6
-753.368
14247.1
-764.53
15024
-776.919
15813.9
-789.906
16616.8
-802.821
17431.6
-814.834
18256.9
-825.292
19089.9
-833.067
19928
-838.093
20766.5
-838.492
21602
-835.46
22432.7
-830.739
-808.512
-2027.11
-25.3731
-1996.75
-56.7981
-1955.5
-77.4178
-1905.08
-95.2662
-1845.04
-113.322
-1776.31
-129.062
-1701.01
-140.114
-1622.28
-144.817
-1543.79
-143.12
-1469.06
-136.66
-1401.37
-126.834
-1340.55
-119.303
-1282.21
-119.813
-1227.32
-116.227
-1184.32
-94.079
-1165.77
-46.1014
-1180.19
23.6023
-1235.85
115.004
-1328.25
197.916
-1431.7
228.382
-1535.42
228.278
-1584.36
119.132
-1534.36
-83.4667
-1528.68
-20.8248
-1651.58
221.63
-1509.04
25.9948
-691.534
-597.334
79.4557
-1077.35
357.382
-1455.53
508.301
-1296.54
735.526
-749.098
1041.28
-520.713
1344.14
-648.032
1564.96
-579.583
1747.59
-380.283
1920.29
-248.166
2086.17
-212.803
2267.42
-270.401
2471.75
-353.61
2695
-413.508
2933.77
-450.75
3183.62
-475.39
3435.72
-488.963
3682.44
-492.668
3917.94
-483.838
4148.25
-477.156
4394.35
-499.939
4608.92
-465.166
4730.72
-335.49
4791.56
-220.299
4762.91
-252.585
4270.46
226.149
2731.14
3172.13
693.432
5463.5
-870.506
3713.16
-1930.97
1925.51
-2390.51
802.262
-2029.38
-751.198
-1261.42
-1467.06
-333.017
-1296.28
943.795
-1459.18
1788.41
-1428.5
1882.22
-1400.29
2710.28
-2576.84
2697.76
959.517
1660.56
3235.29
3374.28
-1845.06
3320.67
-1249.75
2697.99
-634.489
2383.77
-876.414
2694.34
-519.224
3416.55
-440.142
4222.95
-806.123
4954.02
-1134.07
5625.66
-1279.84
6278.91
-1341.4
6934.13
-1375.28
7597.39
-1395.24
8268.16
-1405.87
8943.69
-1409.78
9621.25
-1409.45
10299.1
-1407.41
10976.7
-1405.99
11655
-1407.11
12335.6
-1412.15
13020.9
-1421.88
13713.5
-1436.53
14415.9
-1455.78
15130.3
-1478.9
15858.2
-1504.8
16600.4
-1532.13
17356.9
-1559.39
18126.9
-1584.84
18908.7
-1607.07
19699.5
-1623.85
20496.4
-1634.97
21294.5
-1636.56
22090.9
-1631.88
22879.1
-1619
-1578.91
-1994.79
-47.3963
-1962.88
-88.7137
-1919.21
-121.099
-1865.8
-148.681
-1801.46
-177.669
-1727.01
-203.528
-1644.75
-222.383
-1558.47
-231.103
-1472.46
-229.141
-1390.7
-218.437
-1317.37
-200.175
-1253.98
-182.71
-1196.59
-177.224
-1143.91
-168.927
-1100.37
-137.634
-1076.51
-69.9765
-1079.43
26.5107
-1116.76
152.316
-1195
276.138
-1294.96
328.329
-1399.91
333.211
-1422.92
142.129
-1336.19
-170.211
-1319.27
-37.756
-1145.48
47.8227
-598.205
-521.291
-101.592
-1093.95
161.916
-1340.86
329.037
-1622.65
492.502
-1460.01
674.586
-931.191
940.218
-786.356
1231.19
-939.019
1458.93
-807.328
1647.98
-569.341
1842.05
-442.251
2060.25
-431.008
2301.34
-511.502
2553.24
-605.524
2808.46
-668.736
3062.9
-705.206
3311.69
-724.19
3550.15
-727.425
3776.47
-719
3990.92
-698.298
4207.64
-693.885
4446.08
-738.39
4611.25
-630.344
4644.72
-368.967
4554.77
-130.356
4274.15
28.0254
3640.15
860.149
2382.29
4429.97
844.845
7000.95
-453.441
5011.44
-1522.97
2995.04
-2040.77
1320.06
-1622.16
-1169.81
-571.781
-2517.44
434.553
-2302.61
1126.24
-2150.87
1571.48
-1873.74
1952.56
-1781.37
2813.68
-3437.96
3619.3
153.89
3297.99
3556.59
2536.75
-1083.82
2244.16
-957.155
2475.17
-865.501
2811.56
-1212.8
3489.82
-1197.49
4233.46
-1183.77
4867.91
-1440.58
5428.54
-1694.69
5985.83
-1837.13
6566.69
-1922.26
7176.16
-1984.75
7812.74
-2031.82
8472.2
-2065.32
9149.26
-2086.84
9838.58
-2098.78
10535.5
-2104.31
11236.4
-2106.92
11939.2
-2109.89
12643
-2115.97
13348.3
-2127.12
14056.1
-2144.41
14768.4
-2168.06
15487
-2197.44
16213.5
-2231.33
16949.3
-2267.9
17695
-2305.07
18450.4
-2340.27
19214.7
-2371.39
19985.9
-2395.07
20761.8
-2410.89
21538.1
-2412.82
22312.8
-2406.57
23077.1
-2383.28
-2327.64
-1970.91
-71.1825
-1938.21
-121.415
-1893.25
-166.067
-1837.52
-204.423
-1768.98
-246.223
-1687.76
-284.753
-1595.95
-314.207
-1498.4
-328.668
-1402.03
-325.524
-1313.59
-306.893
-1238.34
-275.437
-1177.2
-243.866
-1124.54
-229.91
-1076.38
-217.102
-1033.14
-180.889
-1003.18
-99.9522
-994.278
17.5888
-1012.62
170.644
-1081.52
345.012
-1184.16
430.96
-1275.42
424.449
-1235.33
102.022
-1094.87
-310.682
-919.978
-212.659
-563.746
-308.419
-160.543
-924.502
73.7386
-1328.24
228.437
-1495.57
353.671
-1747.9
499.971
-1606.32
717.398
-1148.63
976.115
-1045.08
1213.24
-1176.15
1443.47
-1037.58
1668.84
-794.722
1894.21
-667.631
2140.72
-677.529
2401.78
-772.574
2662.23
-865.988
2917.24
-923.755
3164.02
-951.999
3398.9
-959.072
3621.26
-949.802
3832.06
-929.809
4033.99
-900.227
4245.91
-905.82
4463.95
-956.441
4563.99
-730.39
4499.43
-304.424
4273.73
95.3457
3918.76
382.984
3325.18
1453.73
2220.03
5535.12
901.008
8319.97
-263.006
6175.45
-1276.05
4008.08
-1787.63
1831.64
-1393.69
-1563.75
-368.272
-3542.86
597.171
-3268.06
1231.36
-2785.07
1606.94
-2249.32
1845.19
-2019.63
1417.56
-3010.32
1672.4
-100.946
3064.86
2164.13
2442.4
-461.36
2477.74
-992.499
2962.21
-1349.97
3455.07
-1705.66
4007.04
-1749.47
4590.8
-1767.53
5120.49
-1970.27
5614.53
-2188.73
6116.53
-2339.13
6644.75
-2450.48
7204.78
-2544.78
7798.57
-2625.61
8425.58
-2692.33
9083.07
-2744.33
9766.58
-2782.29
10470.6
-2808.32
11189.3
-2825.67
11917.6
-2838.18
12651.3
-2849.7
13387.8
-2863.61
14125.8
-2882.36
14865.1
-2907.35
15606.4
-2938.81
16351
-2975.93
17100.1
-3016.92
17854.4
-3059.44
18614.5
-3100.34
19380
-3136.89
20149.6
-3164.69
20921.9
-3183.12
21693
-3183.95
22461.7
-3175.23
23219
-3140.64
-3068.93
-1952.26
-95.4037
-1920.15
-153.527
-1875.78
-210.444
-1820.17
-260.032
-1750.62
-315.793
-1666.31
-369.068
-1568.07
-412.458
-1459.97
-436.778
-1350.23
-435.271
-1249.66
-407.484
-1167.95
-357.156
-1107.27
-304.563
-1058.95
-278.255
-1015.27
-260.798
-974.023
-222.149
-942.088
-131.903
-927.079
2.56469
-931.09
174.638
-986.477
400.38
-1077.34
521.807
-1124.27
471.355
-997.731
-24.528
-801.671
-506.752
-583.526
-430.816
-274.66
-617.292
-38.4796
-1160.69
108.952
-1475.68
263.591
-1650.21
409.562
-1893.87
579.053
-1775.82
815.248
-1384.83
1057.46
-1287.31
1249.85
-1368.55
1454.85
-1242.58
1699.48
-1039.36
1963.52
-931.679
2236.3
-950.32
2503.2
-1039.48
2758.38
-1121.18
3003.65
-1169.03
3238.01
-1186.36
3460.14
-1181.22
3671.07
-1160.74
3871.54
-1130.28
4065.99
-1094.68
4280.77
-1120.61
4468.21
-1143.9
4484.83
-747.019
4333.99
-153.593
4047.92
381.408
3731.75
699.152
3193.29
1992.19
2144.98
6583.42
955.883
9509.07
-127.496
7258.82
-1096.12
4976.71
-1607.32
2342.83
-1263.61
-1907.46
-304.729
-4501.74
600.497
-4173.28
1153.24
-3337.82
1478.38
-2574.45
1673.07
-2214.32
1323.32
-2660.57
1555.01
-332.64
2454.58
1264.55
2473.5
-480.277
2876.18
-1395.18
3382.96
-1856.75
3830.16
-2152.86
4299.89
-2219.21
4799.43
-2267.07
5269.58
-2440.42
5716.22
-2635.38
6167.98
-2790.89
6639.89
-2922.39
7139.6
-3044.49
7672.98
-3158.99
8244.27
-3263.62
8855.48
-3355.54
9505.95
-3432.76
10192.4
-3494.82
10909.7
-3542.9
11651.1
-3579.64
12410.1
-3608.68
13180.5
-3634.01
13957.5
-3659.31
14737.6
-3687.48
15518.9
-3720.15
16300.7
-3757.7
17082.9
-3799.08
17865.8
-3842.34
18649.6
-3884.21
19434.6
-3921.8
20219.7
-3949.84
21004.3
-3967.7
21785.4
-3965.02
22562.1
-3951.93
23326.7
-3905.28
-3814.67
-1936.69
-115.53
-1904.21
-186.011
-1861.14
-253.523
-1806.42
-314.754
-1737.47
-384.757
-1652.99
-453.56
-1552.98
-512.478
-1440.28
-549.491
-1322.17
-553.392
-1210.29
-519.379
-1117.65
-449.811
-1050.31
-371.927
-1000.16
-328.424
-957.234
-303.74
-916.805
-262.597
-883.969
-164.756
-866.582
-14.8392
-863.798
171.836
-902.656
439.219
-965.845
584.974
-944.357
449.849
-747.301
-221.598
-548.637
-705.427
-366.488
-612.974
-132.346
-851.44
24.3183
-1317.36
166.263
-1617.63
341.816
-1825.77
508.43
-2060.49
688.292
-1955.69
914.244
-1610.79
1140.23
-1513.3
1322.73
-1551.06
1518.45
-1438.31
1765.22
-1286.15
2043.58
-1210.04
2323.06
-1229.82
2586.3
-1302.73
2834.03
-1368.91
3069.89
-1404.91
3294.55
-1411.04
3507.94
-1394.61
3711.32
-1364.14
3904.46
-1323.43
4093.92
-1284.15
4321.77
-1348.47
4467.28
-1289.42
4393.27
-673.014
4192.37
47.3026
3907.94
665.831
3664.26
942.827
3135
2521.44
2099.18
7619.25
1033.96
10574.3
24.9687
8267.81
-907.041
5908.71
-1434.17
2869.95
-1167.59
-2174.05
-301.723
-5367.61
531.53
-5006.54
1022.79
-3829.08
1322.13
-2873.79
1502.35
-2394.55
1275.45
-2433.67
1552.08
-609.267
2351.51
465.123
2725.56
-854.335
3169.42
-1839.04
3624.35
-2311.68
4041.65
-2570.16
4476.78
-2654.34
4933.26
-2723.55
5370.02
-2877.18
5787
-3052.35
6202.6
-3206.5
6628.61
-3348.4
7072.97
-3488.85
7543.58
-3629.6
8048.18
-3768.24
8593.5
-3900.86
9184.17
-4023.42
9821.98
-4132.63
10505.6
-4226.52
11230.8
-4304.83
11991.1
-4369
12778.9
-4421.8
13586.4
-4466.81
14406.6
-4507.65
15233.7
-4547.29
16063.6
-4587.59
16893.4
-4628.93
17721.6
-4670.51
18547.1
-4709.71
19369.5
-4744.17
20187.8
-4768.17
21001.7
-4781.55
21808.4
-4771.82
22607.7
-4751.16
23393.1
-4690.7
-4575.12
-1920.64
-136.948
-1889.05
-217.608
-1846.75
-295.822
-1792.81
-368.705
-1724.37
-453.202
-1640.01
-537.926
-1539.37
-613.131
-1424.62
-664.253
-1302.05
-675.973
-1182.48
-638.958
-1079.64
-552.67
-1002.83
-448.746
-946.91
-384.366
-901.837
-348.83
-860.176
-304.274
-823.943
-201.005
-802.142
-36.6552
-795.051
164.728
-819.113
463.263
-849.221
615.058
-749.504
350.116
-523.099
-448.015
-354.188
-874.345
-217.817
-749.353
-47.7823
-1021.48
85.0968
-1450.24
243.078
-1775.62
433.757
-2016.45
609.029
-2235.77
790.928
-2137.59
1008.75
-1828.61
1225.99
-1730.55
1411.58
-1736.66
1608.54
-1635.28
1850.88
-1528.49
2124.49
-1483.66
2398.12
-1503.46
2655.09
-1559.7
2896.41
-1610.24
3125.46
-1633.97
3343.39
-1628.97
3550.63
-1601.86
3748.55
-1562.06
3935.99
-1510.87
4120.57
-1468.74
4352.31
-1580.21
4446.18
-1383.3
4309.38
-536.226
4086.5
270.177
3832.16
920.165
3659.89
1115.09
3101.84
3079.49
2078.1
8642.99
1146.06
11506.3
217.752
9196.12
-668.444
6794.91
-1221.54
3423.05
-1067.34
-2328.25
-342.846
-6092.11
393.798
-5743.18
824.807
-4260.1
1107.27
-3156.26
1280.51
-2567.79
1194.4
-2347.56
1537.64
-952.509
2308.54
-305.776
2837.71
-1383.51
3292.69
-2294.02
3728
-2746.99
4140.17
-2982.33
4565.91
-3080.08
5004.9
-3162.55
5428.1
-3300.38
5832.46
-3456.71
6229.23
-3603.27
6626.9
-3746.07
7032.21
-3894.16
7452.81
-4050.2
7897.43
-4212.85
8375.21
-4378.64
8894.72
-4542.94
9462.88
-4700.8
10084
-4847.62
10759
-4979.85
11485.5
-5095.49
12258
-5194.29
13068.8
-5277.64
13909.2
-5348.07
14770.5
-5408.52
15644.6
-5461.7
16524.9
-5509.28
17406.5
-5552.08
18285.5
-5588.74
19159.6
-5618.23
20026.4
-5634.95
20884.7
-5639.93
21731.6
-5618.73
22566.5
-5586
23384.5
-5508.68
-5358.98
-1905.18
-159.467
-1874.29
-248.497
-1832.54
-337.588
-1779.04
-422.206
-1710.78
-521.481
-1626.22
-622.487
-1524.78
-714.583
-1408.35
-780.698
-1282.83
-801.503
-1158.39
-763.405
-1048.15
-662.933
-962.543
-534.369
-899.179
-447.751
-850.128
-397.901
-806.694
-347.728
-766.829
-240.888
-739.292
-64.2098
-727.351
152.77
-732.634
468.528
-720.14
602.541
-549.167
179.127
-336.09
-661.103
-236.027
-974.416
-124.894
-860.494
13.4669
-1159.85
153.696
-1590.48
330.993
-1952.92
529.086
-2214.55
708.777
-2415.47
892.501
-2321.32
1105
-2041.12
1315.33
-1940.89
1504.75
-1926.08
1706.99
-1837.53
1943.81
-1765.32
2205.39
-1745.25
2468.38
-1766.45
2718.2
-1809.54
2953.77
-1845.82
3177.21
-1857.41
3389.79
-1841.57
3592.21
-1804.28
3785.78
-1755.64
3968.53
-1693.63
4147.6
-1647.82
4367
-1799.62
4406.47
-1422.79
4241.06
-370.824
4014.47
496.76
3806.44
1128.19
3690.04
1231.49
3084.88
3684.65
2091.65
9636.21
1298.61
12299.4
465.432
10029.3
-362.109
7622.45
-944.588
4005.52
-944.544
-2328.3
-421.494
-6615.16
179.959
-6344.63
538.183
-4618.32
816.722
-3434.8
1009.87
-2760.94
1050.77
-2388.46
1472.49
-1374.23
2221.96
-1055.24
2800.37
-1961.93
3272.19
-2765.84
3712.82
-3187.62
4137.55
-3407.06
4571.07
-3513.61
5010.93
-3602.41
5436.05
-3725.5
5842.13
-3862.79
6235.72
-3996.86
6622.7
-4133.04
7008.21
-4279.68
7398.54
-4440.53
7801.46
-4615.77
8225.98
-4803.16
8681.85
-4998.81
9178.7
-5197.64
9725.06
-5393.98
10327.3
-5582.12
10988.9
-5757.04
11709.5
-5914.94
12485.6
-6053.68
13310.3
-6172.79
14174.9
-6273.12
15069.6
-6356.45
15984.8
-6424.44
16911.6
-6478.89
17842.4
-6519.55
18771.3
-6547.14
19692.9
-6556.53
20603.8
-6550.83
21499.3
-6514.22
22377.8
-6464.51
23236.6
-6367.46
-6173.15
-1890.34
-182.901
-1859.93
-278.919
-1818.43
-379.087
-1765.07
-475.575
-1696.67
-589.888
-1611.67
-707.499
-1509.15
-817.103
-1390.72
-899.134
-1262.16
-930.075
-1133.65
-891.932
-1017.99
-778.607
-925.61
-626.761
-855.263
-518.117
-801.671
-451.51
-756.817
-392.599
-715.174
-282.546
-684.429
-94.9696
-673.163
141.487
-664.469
459.817
-609.452
547.503
-397.328
-33.0082
-200.465
-857.975
-167.977
-1006.91
-65.5475
-962.929
76.2072
-1301.61
234.625
-1748.9
423.04
-2141.34
623.991
-2415.51
806.741
-2598.22
991.752
-2506.34
1200.27
-2249.64
1405.92
-2146.55
1597.9
-2118.07
1803.18
-2042.82
2034.63
-1996.79
2284.74
-1995.37
2536.94
-2018.66
2779.28
-2051.88
3009.21
-2075.76
3227.71
-2075.92
3435.88
-2049.75
3634.39
-2002.79
3824.37
-1945.63
4003.11
-1872.38
4177.14
-1821.86
4382.2
-2004.68
4368.94
-1409.53
4188.45
-190.346
3972.56
712.642
3821.51
1279.25
3740.51
1312.47
3087.26
4337.9
2140.81
10582.7
1475.02
12965.2
748.231
10756.1
-8.82117
8379.51
-604.247
4600.94
-798.157
-2134.39
-529.161
-6884.16
-99.0961
-6774.7
165.485
-4882.9
420.883
-3690.19
667.19
-3007.25
840.009
-2561.28
1316.88
-1851.1
2037.9
-1776.27
2633.91
-2557.94
3127.36
-3259.29
3588.27
-3648.53
4037.63
-3856.41
4491.52
-3967.5
4945.97
-4056.85
5385.01
-4164.54
5803.99
-4281.77
6206.62
-4399.49
6597.07
-4523.49
6979.34
-4661.95
7358.36
-4819.56
7740.36
-4997.77
8132.9
-5195.7
8544.69
-5410.6
8985.33
-5638.28
9464.7
-5873.35
9992.17
-6109.59
10575.6
-6340.49
11220.5
-6559.79
11928.9
-6762.07
12699.3
-6943.22
13526.7
-7100.54
14403.2
-7232.89
15318.6
-7339.9
16262.3
-7422.6
17223.3
-7480.55
18191.8
-7515.63
19158.3
-7522.97
20115.7
-7508.31
21057
-7455.46
21978.1
-7385.64
22879.9
-7269.21
-7021.84
-1875.92
-207.261
-1845.48
-309.355
-1803.9
-420.674
-1750.32
-529.17
-1681.6
-658.617
-1596.13
-792.98
-1492.64
-920.596
-1372.25
-1019.54
-1240.41
-1061.92
-1107.55
-1024.81
-986.944
-899.227
-889.263
-724.461
-813.221
-594.179
-755.612
-509.141
-710.446
-437.785
-669.588
-323.424
-637.177
-127.397
-625.682
129.975
-593.872
427.991
-505.392
459.003
-315.087
-223.323
-155.822
-1017.25
-121.954
-1040.79
-0.128812
-1084.76
150.337
-1452.08
319.909
-1918.48
514.494
-2335.93
717.028
-2618.05
902.153
-2783.35
1088.07
-2692.26
1293.24
-2454.81
1495.4
-2348.71
1688.74
-2311.42
1894.99
-2249.07
2121.16
-2222.96
2361.22
-2235.44
2603.65
-2261.1
2838.9
-2287.13
3063.66
-2300.53
3277.95
-2290.22
3482.54
-2254.34
3677.87
-2198.14
3864.88
-2132.65
4040.28
-2047.78
4210.6
-1992.18
4398.72
-2192.82
4339.56
-1350.39
4155.37
-6.15387
3956.87
911.127
3866.72
1369.4
3797.85
1381.33
3104.19
5031.56
2218.64
11468.2
1663.21
13520.6
1043.18
11376.1
376.281
9046.4
-212.477
5189.7
-626.407
-1720.46
-647.244
-6863.32
-413.977
-7007.96
-228.794
-5068.09
-2.0456
-3916.94
285.078
-3294.38
584.719
-2860.92
1098.69
-2365.07
1774.5
-2452.07
2370.56
-3154.01
2883.65
-3772.38
3370.12
-4135
3849.46
-4335.75
4330.79
-4448.84
4808.51
-4534.57
5269.65
-4625.69
5709.41
-4721.53
6129.71
-4819.8
6533.69
-4927.47
6924.72
-5052.98
7306.89
-5201.72
7685.17
-5376.06
8065.55
-5576.07
8455
-5800.06
8861.59
-6044.86
9294.25
-6306.01
9762.55
-6577.9
10276.1
-6854.02
10843.6
-7127.28
11471.9
-7390.4
12165.1
-7636.44
12923.7
-7859.15
13744.4
-8053.54
14620.1
-8215.64
15541.3
-8343.77
16496.1
-8435.4
17472.7
-8492.15
18457.9
-8508.26
19441.4
-8491.77
20413.3
-8427.32
21365.8
-8338.19
22304.5
-8207.94
-7904.22
-1861.66
-229.526
-1829.77
-341.252
-1787.92
-462.533
-1733.81
-583.278
-1664.76
-727.677
-1579.05
-878.699
-1475.05
-1024.6
-1353.22
-1141.38
-1218.39
-1196.76
-1080.98
-1162.23
-955.145
-1025.07
-852.571
-827.05
-771.699
-675.07
-710.73
-570.127
-667.081
-481.452
-632.883
-357.637
-604.275
-156.02
-587.42
113.104
-520.691
361.248
-411.333
349.627
-254.486
-380.178
-142.514
-1129.23
-63.6116
-1119.7
76.4478
-1224.83
229.339
-1604.97
405.433
-2094.58
604.241
-2534.74
807.827
-2821.63
994.757
-2970.28
1181.14
-2878.64
1383.15
-2656.84
1582.34
-2547.91
1775.92
-2505.01
1981.53
-2454.69
2202.66
-2444.1
2434.28
-2467.06
2668.34
-2495.17
2897.28
-2516.08
3117.52
-2520.78
3328.34
-2501.05
3530.09
-2456.09
3722.92
-2390.98
3907.5
-2317.24
4080.34
-2220.63
4248.92
-2160.77
4418.89
-2362.8
4322.84
-1254.34
4140.93
175.746
3963.27
1088.78
3931.15
1401.51
3845.61
1466.86
3119.02
5758.16
2314.74
12272.5
1869.99
13965.3
1383.89
11862.2
999.629
9430.67
411.306
5778.02
-387.793
-921.359
-737.297
-6513.82
-706.619
-7038.64
-578.88
-5195.83
-366.778
-4129.05
-65.4773
-3595.68
299.031
-3225.43
837.248
-2903.29
1477.6
-3092.43
2057.97
-3734.38
2580.7
-4295.11
3087.6
-4641.9
3593.56
-4841.71
4101.85
-4957.12
4604.97
-5037.7
5091.31
-5112.03
5555.63
-5185.85
5998.45
-5262.61
6422.09
-5351.11
6829.5
-5460.38
7224.24
-5596.47
7610.54
-5762.36
7993.22
-5958.75
8377.82
-6184.66
8770.69
-6437.74
9179.19
-6714.51
9611.64
-7010.35
10077.2
-7319.59
10585.4
-7635.46
11145.2
-7950.24
11764.3
-8255.49
12447.5
-8542.35
13196.3
-8802.38
14008.3
-9027.58
14877.1
-9212.65
15793.2
-9351.5
16745.1
-9444.02
17718.9
-9482.05
18701.7
-9474.56
19682
-9407.63
20647.6
-9303.75
21608
-9168.36
-8811.26
-1844.78
-254.224
-1812
-374.04
-1769.38
-505.164
-1714.81
-637.854
-1645.66
-796.837
-1560.19
-964.175
-1456.37
-1128.43
-1333.91
-1263.85
-1196.77
-1333.91
-1055
-1304.01
-923.618
-1156.47
-815.943
-934.743
-730.241
-760.793
-665.263
-635.128
-622.602
-524.133
-601.529
-378.73
-591.74
-165.826
-576.677
98.0237
-488.139
272.695
-351.217
212.69
-171.107
-560.295
-87.6571
-1212.69
16.2902
-1223.65
155.42
-1363.96
309.269
-1758.83
490.368
-2275.68
692.194
-2736.57
896.304
-3025.75
1084.47
-3158.46
1270.82
-3065
1469.65
-2855.67
1665.96
-2744.22
1858.81
-2697.86
2062.69
-2658.57
2279.08
-2660.5
2503.69
-2691.68
2730.78
-2722.27
2954.37
-2739.68
3170.84
-2737.25
3378.92
-2709.14
3578.52
-2655.7
3769.45
-2581.92
3952.14
-2499.93
4123.34
-2391.85
4293.12
-2330.56
4444.14
-2513.82
4316.96
-1127.17
4140.4
352.303
3988.72
1240.45
4003.04
1387.19
3865.66
1604.23
3109.84
6513.98
2407.46
12974.9
2069.85
14302.9
1696.43
12235.6
1593.91
9533.19
1088.5
6283.42
-68.1048
235.242
-746.728
-5835.2
-909.55
-6875.82
-809.632
-5295.75
-619.035
-4319.64
-320.65
-3894.07
73.3557
-3619.44
607.409
-3437.35
1199.96
-3684.98
1749.32
-4283.74
2266.77
-4812.56
2780.89
-5156.02
3301.92
-5362.74
3828.66
-5483.87
4351.87
-5560.9
4860.19
-5620.35
5347.62
-5673.29
5813.3
-5728.29
6258.61
-5796.42
6685.94
-5887.72
7098.4
-6008.92
7499.62
-6163.58
7893.7
-6352.84
8285.25
-6576.21
8679.53
-6832.02
9082.67
-7117.65
9501.81
-7429.49
9945.1
-7762.89
10421.5
-8111.86
10940.2
-8468.91
11509.7
-8824.98
12136.9
-9169.56
12826
-9491.51
13577.8
-9779.42
14389.7
-10024.5
15255
-10216.8
16165
-10354
17106.9
-10423.9
18067.4
-10435.1
19034.6
-10374.8
19992.6
-10261.8
20952.2
-10127.9
-9725.39
-1825.06
-282.115
-1791.22
-407.881
-1747.93
-548.459
-1693.23
-692.561
-1624.52
-865.558
-1540
-1048.7
-1437.18
-1231.26
-1314.97
-1386.06
-1176.32
-1472.58
-1030.6
-1449.74
-893.481
-1293.6
-780.357
-1047.88
-689.521
-851.647
-618.839
-705.828
-571.707
-571.283
-557.415
-393.038
-574.665
-148.592
-584.795
108.138
-487.427
175.315
-282.109
7.36098
-72.8951
-769.516
-3.93224
-1281.66
100.843
-1328.43
233.864
-1496.99
389.612
-1914.58
574.499
-2460.57
778.347
-2940.42
982.553
-3229.96
1171.41
-3347.32
1357.18
-3250.77
1552.6
-3051.09
1745.85
-2937.48
1937.16
-2889.18
2138.6
-2860.01
2350.57
-2872.48
2569.36
-2910.48
2790.75
-2943.67
3009.94
-2958.87
3223.42
-2950.74
3429.5
-2915.23
3627.63
-2853.84
3817.26
-2771.55
3998.57
-2681.25
4169.04
-2562.32
4344.44
-2505.97
4473.68
-2643.06
4320.19
-973.695
4152.36
520.128
4028.54
1364.26
4065.98
1349.76
3839.64
1830.56
3059.24
7294.38
2478.7
13555.4
2255.49
14526.1
2001.79
12489.3
2002.17
9532.81
1754.16
6531.43
466.316
1523.08
-636.928
-4731.96
-1008.77
-6503.98
-921.019
-5383.5
-742.262
-4498.4
-463.8
-4172.53
-80.3109
-4002.93
426.192
-3943.85
971.895
-4230.68
1486.14
-4797.98
1984.84
-5311.26
2490.86
-5662.04
3011.46
-5883.34
3542.83
-6015.24
4074.65
-6092.72
4595.63
-6141.33
5099.03
-6176.68
5582.74
-6212
6047.12
-6260.81
6493.83
-6334.42
6925.32
-6440.41
7344.61
-6582.87
7755.25
-6763.48
8161.31
-6982.27
8567.55
-7238.27
8979.59
-7529.69
9403.99
-7853.89
9848.24
-8207.13
10320.5
-8584.09
10829.1
-8977.5
11381.9
-9377.79
11985.5
-9773.14
12644.3
-10150.4
13360.3
-10495.4
14132.4
-10796.7
14956.6
-11041
15826.6
-11224
16731.8
-11329.1
17660.1
-11363.4
18599.7
-11314.5
19533.9
-11196
20470.3
-11064.2
-10626.4
-1802.05
-313.939
-1767.49
-442.448
-1724.02
-591.937
-1669.83
-746.753
-1602.28
-933.119
-1519.46
-1131.53
-1418.42
-1332.31
-1297.26
-1507.22
-1157.86
-1611.98
-1008.69
-1598.92
-865.761
-1436.54
-746.843
-1166.81
-650.926
-947.585
-574.364
-782.413
-518.062
-627.608
-491.26
-419.859
-499.559
-140.311
-503.924
112.485
-396.451
67.8283
-176.501
-212.6
3.31486
-949.338
75.805
-1354.15
181.295
-1433.92
312.113
-1627.81
470.102
-2072.57
657.729
-2648.2
862.901
-3145.6
1066.83
-3433.89
1255.79
-3536.28
1440.34
-3435.33
1632.03
-3242.78
1821.88
-3127.34
2010.96
-3078.27
2209.45
-3058.51
2417.29
-3080.31
2631.22
-3124.42
2848.02
-3160.48
3063.74
-3174.6
3275
-3162
3479.78
-3120
3677.1
-3051.17
3866.01
-2960.47
4046.46
-2861.7
4216.83
-2732.7
4401.81
-2690.95
4504.54
-2745.8
4332.5
-801.663
4175.69
676.93
4076.28
1463.67
4103.35
1322.68
3755.26
2178.65
2963.04
8086.59
2521.61
13996.8
2421.03
14626.7
2313.96
12596.4
2366.5
9480.27
3131.85
5766.08
1938.67
2716.26
-360.886
-2432.41
-997.611
-5867.26
-950.247
-5430.87
-786.245
-4662.4
-526.378
-4432.4
-165.977
-4363.33
303.11
-4412.94
807.304
-4734.88
1287.8
-5278.48
1760.75
-5784.21
2247.63
-6148.92
2754.39
-6390.1
3276.27
-6537.12
3802.88
-6619.33
4323.46
-6661.91
4831.19
-6684.42
5323.36
-6704.17
5799.65
-6737.1
6261.01
-6795.79
6709.2
-6888.59
7146.56
-7020.23
7576.05
-7192.97
8001.37
-7407.59
8427.07
-7663.97
8858.65
-7961.27
9302.52
-8297.76
9765.77
-8670.38
10255.8
-9074.12
10779.8
-9501.47
11344
-9942.05
11953.6
-10382.7
12611.8
-10808.5
13319.7
-11203.3
14076.7
-11553.7
14879.7
-11844
15724.1
-12068.4
16600.8
-12205.8
17499.8
-12262.4
18409.3
-12223.9
19314.7
-12101.5
20215.9
-11965.4
-11500.7
-1776.27
-349.81
-1741.6
-477.122
-1698.75
-634.795
-1645.83
-799.682
-1580.12
-998.836
-1499.56
-1212.09
-1400.8
-1431.08
-1281.26
-1626.77
-1141.79
-1751.45
-989.778
-1750.94
-841.187
-1585.14
-716.116
-1291.9
-615.044
-1048.67
-533.925
-863.549
-470.92
-690.631
-425.796
-465
-391.402
-174.72
-348.551
69.6176
-238.706
-42.0289
-61.5712
-389.743
70.4391
-1081.35
151.246
-1434.97
258.699
-1541.38
389.903
-1759.02
550.434
-2233.11
740.203
-2837.98
946.196
-3351.59
1149.45
-3637.15
1337.87
-3724.7
1520.52
-3617.99
1708.05
-3430.31
1894.07
-3313.37
2080.27
-3264.47
2275.47
-3253.72
2479.4
-3284.25
2689.23
-3334.25
2902.38
-3373.63
3115.46
-3387.69
3325.24
-3371.79
3529.38
-3324.15
3726.54
-3248.33
3915.33
-3149.26
4095.38
-3041.75
4265.87
-2903.21
4453.41
-2878.49
4526.35
-2818.75
4355.13
-630.449
4207.65
824.408
4123.64
1547.67
4102.39
1343.92
3612.01
2669.03
2833.41
8865.19
2543.46
14286.8
2572.54
14597.7
2615.93
12553
2694.26
9401.94
3019.82
5440.51
2218.62
3517.46
30.6255
-244.412
-877.138
-4959.49
-924.048
-5383.96
-777.275
-4809.18
-534.688
-4674.99
-195.348
-4702.67
237.866
-4846.15
703.476
-5200.48
1153.21
-5728.21
1600.58
-6231.58
2064.65
-6612.99
2550.54
-6875.99
3053.23
-7039.81
3562.99
-7129.09
4070.3
-7169.22
4569.26
-7183.38
5057.63
-7192.54
5535.26
-7214.73
6003
-7263.53
6462.17
-7347.77
6914.54
-7472.6
7362.46
-7640.89
7809.15
-7854.28
8258.83
-8113.65
8716.76
-8419.2
9189.01
-8770.02
9682.1
-9163.47
10202.4
-9594.45
10755.8
-10054.8
11346.8
-10533.1
11979
-11014.9
12654
-11483.6
13372.3
-11921.6
14133
-12314.3
14933.1
-12644.2
15769.3
-12904.5
16632.8
-13069.3
17515.8
-13145.4
18405.2
-13113.4
19290.6
-12986.9
20161
-12835.8
-12347
-1750.21
-381.726
-1714.95
-512.385
-1673.67
-676.078
-1622.5
-850.861
-1558.97
-1062.37
-1480.84
-1290.23
-1384.47
-1527.45
-1266.77
-1744.48
-1127.72
-1890.51
-973.577
-1905.1
-819.86
-1738.87
-688.538
-1423.23
-581.693
-1155.54
-495.58
-949.686
-427.704
-758.529
-376.205
-516.521
-330.825
-220.119
-272.688
11.4618
-157.212
-157.518
17.9485
-564.913
138.199
-1201.61
224.081
-1520.85
333.889
-1651.19
467.033
-1892.17
630.542
-2396.62
822.203
-3029.64
1028.62
-3558.01
1230.76
-3839.29
1417.92
-3911.86
1597.92
-3798
1780.8
-3613.19
1962.47
-3495.04
2145.21
-3447.21
2336.83
-3445.35
2537.03
-3484.45
2743.36
-3540.59
2953.61
-3583.88
3164.81
-3598.9
3373.79
-3580.78
3577.95
-3528.31
3775.56
-3445.96
3964.79
-3338.5
4144.92
-3221.89
4315.54
-3073.84
4497.8
-3060.75
4544.03
-2864.99
4386.87
-473.298
4245.07
966.204
4163.83
1628.91
4057.3
1450.45
3422.98
3303.34
2694.46
9593.71
2560.48
14420.7
2714.98
14443.1
2888.74
12379.2
3010.92
9279.76
2966.81
5484.63
2374.21
4110.05
580.201
1549.59
-628.27
-3751.03
-858.374
-5153.85
-739.941
-4927.61
-516.339
-4898.59
-193.912
-5025.1
210.293
-5250.36
644.067
-5634.26
1069.2
-6153.34
1495.91
-6658.29
1939.92
-7057
2404.88
-7340.94
2885.26
-7520.2
3371.96
-7615.79
3857
-7654.27
4336.23
-7662.61
4808.98
-7665.29
5276.44
-7682.19
5740.26
-7727.35
6202.03
-7809.53
6663.26
-7933.84
7125.81
-8103.44
7592.19
-8320.66
8065.88
-8587.35
8551.32
-8904.64
9053.61
-9272.3
9578.05
-9687.92
10129.7
-10146.1
10712.9
-10638
11331
-11151.2
11986.5
-11670.3
12680.7
-12177.7
13413.9
-12654.8
14185.5
-13085.9
14993.2
-13451.9
15834.3
-13745.6
16699.9
-13934.9
17584.1
-14029.6
18470.9
-14000.1
19354.1
-13870.1
20210.9
-13692.6
-13176.3
-1723.2
-415.836
-1689.69
-545.896
-1650.05
-715.727
-1600.76
-900.155
-1539.29
-1123.85
-1463.34
-1366.19
-1369.12
-1621.68
-1253.16
-1860.44
-1114.75
-2028.93
-959.126
-2060.73
-801.145
-1896.86
-664.054
-1560.34
-551.173
-1268.43
-459.255
-1041.62
-385.978
-831.825
-330.292
-572.225
-281.618
-268.809
-207.97
-62.2006
-77.4663
-288.031
91.9409
-734.327
202.617
-1312.29
293.846
-1612.09
407.054
-1764.41
543.514
-2028.63
710.578
-2563.69
904.073
-3223.14
1110.57
-3764.51
1311.08
-4039.81
1496.18
-4096.96
1672.72
-3974.54
1850.38
-3790.85
2027.16
-3671.82
2205.87
-3625.93
2393.67
-3633.16
2590.27
-3681.05
2793.54
-3743.87
3001.54
-3791.89
3211.52
-3808.88
3420.32
-3789.59
3625.1
-3733.09
3823.77
-3644.63
4014.01
-3528.74
4194.71
-3402.6
4365.59
-3244.72
4542.6
-3237.77
4570.69
-2893.08
4426.69
-329.307
4285.92
1106.97
4193.72
1721.1
3973.54
1670.63
3214.77
4062.11
2573.25
10235.2
2587.83
14406.2
2847.01
14184
3112.73
12113.5
3264.68
9127.81
3192.86
5556.45
3176.31
4126.6
1754.24
2971.65
-225.202
-1771.59
-750.542
-4628.52
-685.211
-4992.94
-482.626
-5101.18
-175.539
-5332.19
204.528
-5630.43
612.736
-6042.47
1019.44
-6560.05
1431.82
-7070.67
1861.79
-7486.97
2310.56
-7789.71
2771.24
-7980.88
3234.66
-8079.2
3694.08
-8113.68
4147.32
-8115.85
4596.02
-8113.99
5043.56
-8129.73
5493.31
-8177.11
5947.89
-8264.11
6409.13
-8395.07
6878.53
-8572.84
7357.82
-8799.95
7849.31
-9078.84
8355.97
-9411.29
8881.21
-9797.54
9428.64
-10235.3
10001.7
-10719.2
10603.6
-11239.9
11237.3
-11784.9
11905.2
-12338.3
12609.4
-12882
13351.3
-13396.7
14131.6
-13866.2
14949
-14269.3
15801.8
-14598.4
16680.8
-14813.9
17581.1
-14929.9
18482.8
-14901.9
19383.4
-14770.6
20249.3
-14558.5
-14007.9
-1697.93
-450.84
-1666.64
-577.189
-1628.54
-753.834
-1580.84
-947.859
-1521.01
-1183.69
-1446.77
-1440.43
-1354.25
-1714.22
-1239.71
-1974.98
-1101.91
-2166.73
-945.277
-2217.38
-783.965
-2058.18
-642.029
-1702.29
-523.377
-1387.11
-425.079
-1139.94
-345.262
-911.666
-283.742
-633.768
-231.543
-321.029
-138.554
-155.207
5.29161
-431.888
159.391
-888.434
264.376
-1417.28
361.118
-1708.83
478.471
-1881.76
619.466
-2169.63
790.758
-2734.99
986.144
-3418.53
1192.36
-3970.73
1390.64
-4238.09
1572.82
-4279.15
1745.02