/*--------------------------------*- C++ -*----------------------------------*\
| =========                 |                                                 |
| \\      /  F ield         | OpenFOAM: The Open Source CFD Toolbox           |
|  \\    /   O peration     | Version:  4.1                                   |
|   \\  /    A nd           | Web:      www.OpenFOAM.org                      |
|    \\/     M anipulation  |                                                 |
\*---------------------------------------------------------------------------*/
FoamFile
{
    version     2.0;
    format      ascii;
    class       volVectorField;
    location    "1300";
    object      U;
}
// * * * * * * * * * * * * * * * * * * * * * * * * * * * * * * * * * * * * * //

dimensions      [0 1 -1 0 0 0 0];

internalField   nonuniform List<vector> 
26785
(
(-2.46155e-13 -0.0353164 -16.8584)
(-2.24729e-13 -0.0397963 -16.0223)
(-2.16213e-13 -0.0404551 -15.1485)
(-1.97468e-13 -0.0404553 -14.2709)
(-1.61381e-13 -0.0401124 -13.4231)
(-1.37156e-13 -0.0388285 -12.5996)
(-8.29841e-14 -0.0364008 -11.8245)
(-8.3678e-14 -0.0332804 -11.1142)
(-3.32e-14 -0.0305524 -10.478)
(-1.05356e-13 -0.029385 -9.90937)
(-5.56842e-14 -0.0299471 -9.39182)
(-5.91639e-14 -0.0316733 -8.90275)
(-5.67464e-14 -0.0339808 -8.41447)
(-5.94501e-14 -0.0348731 -7.91831)
(-6.66259e-14 -0.0332335 -7.43551)
(-8.37481e-14 -0.0286186 -7.00456)
(-1.126e-13 -0.01895 -6.69911)
(-1.47628e-13 -0.00182546 -6.61795)
(-1.53276e-13 0.013087 -6.77254)
(-1.41013e-13 0.014881 -7.0515)
(-1.01272e-13 0.00217862 -7.31568)
(-1.17954e-13 -0.0323837 -7.35481)
(-8.45188e-14 -0.0745705 -6.89533)
(-6.67851e-14 -0.0626783 -6.20832)
(-1.55481e-13 -0.0128719 -5.83183)
(-7.60755e-14 0.00506549 -5.63018)
(-9.72976e-14 -0.0129261 -5.24956)
(-1.08031e-13 -0.282821 -5.17667)
(-1.00172e-13 -0.728635 -2.09474)
(-1.14952e-13 -0.685162 1.7898)
(-4.30654e-14 -0.209698 4.57988)
(1.35506e-14 0.0296874 5.10949)
(-3.57005e-14 -0.0929988 6.00836)
(1.08349e-14 -0.16912 7.27029)
(-5.40332e-14 -0.0962632 7.92506)
(-4.79664e-15 -0.00910778 8.038)
(-3.52692e-14 0.0256473 7.88623)
(-4.06226e-14 0.0169067 7.75927)
(-3.30995e-14 -0.00562446 7.78977)
(-3.27013e-14 -0.0189357 7.93513)
(6.98153e-14 -0.0209309 8.11916)
(2.60708e-14 -0.0207804 8.31836)
(3.89382e-14 -0.0251571 8.54354)
(-7.34166e-14 -0.0336091 8.80806)
(-2.86086e-14 -0.0424505 9.10385)
(-8.69588e-14 -0.0507484 9.42615)
(-8.23691e-14 -0.0575821 9.77913)
(-1.02936e-13 -0.0526365 10.1259)
(-1.02242e-13 -0.0345071 10.3166)
(-1.10117e-13 -0.000779255 10.2642)
(-5.04453e-14 -0.0127695 9.94055)
(-7.04011e-14 0.028569 9.68713)
(-7.84462e-14 0.707854 8.59606)
(-4.87063e-14 1.0931 -0.00805283)
(-6.85873e-14 0.573251 -6.47286)
(-6.23014e-14 0.162205 -8.19715)
(-7.09272e-14 0.0852405 -9.56273)
(-5.87836e-14 -0.0925501 -9.05428)
(-8.05496e-14 -0.122647 -7.32075)
(-1.03325e-13 0.0609681 -5.69125)
(-7.17215e-14 -0.0224364 -5.01088)
(-6.49312e-14 -0.629999 -4.20654)
(-4.31324e-14 -1.2764 -2.05171)
(-6.08279e-14 -1.36984 -1.23038)
(-1.26073e-13 -1.40941 -3.87861)
(-9.555e-14 0.744807 -1.99431)
(-6.68081e-14 -0.784907 -5.24025)
(-6.11791e-14 -1.54986 0.511994)
(-1.32674e-13 -1.0793 -0.787632)
(-1.33087e-13 -0.641523 0.643857)
(-2.57511e-13 0.0874019 1.14074)
(-2.32303e-13 0.477138 1.21502)
(-1.71427e-13 0.174722 2.90547)
(-1.30601e-13 -0.145199 4.64049)
(-9.97463e-14 -0.283253 6.29739)
(-5.11369e-14 -0.321854 7.93785)
(-5.39993e-14 -0.324575 9.54724)
(-4.3161e-14 -0.315878 11.1048)
(-3.30593e-14 -0.304764 12.6075)
(-2.76205e-14 -0.294242 14.0568)
(-2.14043e-14 -0.285156 15.4562)
(-3.40595e-14 -0.277617 16.8104)
(-3.73342e-14 -0.271513 18.1249)
(-3.43711e-14 -0.266675 19.4057)
(-4.08388e-14 -0.262935 20.6591)
(-4.77949e-14 -0.260146 21.8912)
(-5.03252e-14 -0.25818 23.1078)
(-4.93579e-14 -0.256926 24.3143)
(-5.88841e-14 -0.256268 25.5147)
(-5.91362e-14 -0.256083 26.7125)
(-5.34274e-14 -0.256219 27.9097)
(-4.77339e-14 -0.256502 29.1073)
(-4.30876e-14 -0.256696 30.3038)
(-4.05418e-14 -0.256602 31.4999)
(-3.85651e-14 -0.25585 32.6853)
(-3.9022e-14 -0.254371 33.874)
(-3.82212e-14 -0.25164 35.0092)
(-3.8836e-14 -0.247582 36.227)
(-3.96478e-14 -0.244245 37.1131)
(-4.23499e-14 -0.233169 38.7409)
(-1.7811e-13 -0.102847 -16.499)
(-1.83363e-13 -0.118606 -15.6553)
(-1.57575e-13 -0.12372 -14.7563)
(-1.64613e-13 -0.126212 -13.8559)
(-1.60589e-13 -0.127156 -12.9787)
(-1.73239e-13 -0.125542 -12.1177)
(-1.26461e-13 -0.120684 -11.2941)
(-1.38507e-13 -0.112917 -10.5242)
(-1.00025e-13 -0.103696 -9.82241)
(-1.94645e-14 -0.0951271 -9.19396)
(9.05253e-15 -0.0883708 -8.63924)
(4.41701e-14 -0.0848658 -8.14782)
(7.0475e-14 -0.0863128 -7.68993)
(1.1496e-13 -0.0870654 -7.24357)
(1.10989e-13 -0.08141 -6.81659)
(1.68086e-13 -0.0665971 -6.44153)
(1.03878e-13 -0.0387442 -6.18888)
(-2.89149e-15 0.00900219 -6.12675)
(-3.5061e-14 0.0503069 -6.24321)
(-5.55589e-14 0.057326 -6.44414)
(-1.19393e-13 0.0335025 -6.59664)
(-6.01885e-14 -0.0394721 -6.53217)
(-1.28144e-13 -0.141219 -5.98564)
(-1.12885e-13 -0.125156 -5.29574)
(-1.74324e-13 -0.0415026 -4.91483)
(-2.52589e-13 -0.05818 -4.53171)
(-8.09236e-14 -0.203867 -2.50226)
(-5.3165e-14 -0.428028 0.903245)
(-3.35653e-14 -0.839383 2.60069)
(-6.50319e-14 -0.848994 3.07088)
(8.95537e-15 -0.339188 3.79443)
(1.68675e-14 -0.0475909 4.66506)
(2.84272e-14 -0.15318 5.74898)
(1.46995e-14 -0.189454 6.43876)
(-4.03983e-14 -0.107005 6.7916)
(-9.6004e-15 -0.00739034 7.1305)
(8.90951e-15 0.0452627 7.38588)
(1.97949e-14 0.0282675 7.62449)
(2.04061e-14 -0.0167522 7.89171)
(2.4144e-14 -0.0515939 8.16956)
(1.05573e-14 -0.0738221 8.46364)
(5.11447e-14 -0.0922003 8.79361)
(2.76716e-14 -0.107548 9.14199)
(1.21573e-13 -0.11748 9.4783)
(7.06588e-14 -0.121773 9.77885)
(7.4238e-14 -0.128546 10.0514)
(1.8346e-14 -0.135695 10.3376)
(2.75109e-14 -0.105467 10.5979)
(-8.11295e-14 -0.0332553 10.582)
(-1.91137e-15 0.0506287 10.2706)
(-1.23313e-13 0.0732749 9.79628)
(-9.16502e-14 0.367909 8.56471)
(-8.99619e-14 2.06165 6.13889)
(-7.23527e-14 3.07023 0.494057)
(-9.53999e-16 1.81303 -3.89925)
(-1.36461e-14 0.659112 -6.49944)
(1.39773e-14 0.221276 -8.1817)
(2.3787e-14 -0.405472 -7.69785)
(3.05886e-14 -0.671875 -5.9531)
(-1.09233e-15 -0.438996 -4.06672)
(-4.67903e-14 -0.39469 -1.52744)
(-5.95014e-14 -0.661212 1.48379)
(-1.71069e-14 -1.09232 2.13159)
(9.39477e-14 -1.8908 -0.33438)
(3.39078e-15 -8.50001 -8.12546)
(-2.79675e-14 2.06522 -1.54499)
(-2.92608e-14 0.726116 5.76755)
(1.56832e-14 -0.314587 7.735)
(-1.36796e-13 -0.661982 4.4318)
(-1.61158e-13 -0.543199 2.53067)
(-1.19528e-13 -0.14242 2.96688)
(-1.33253e-13 -0.11869 4.76208)
(-1.12074e-13 -0.41932 7.027)
(-8.60765e-14 -0.670524 8.87244)
(-3.84816e-14 -0.767446 10.3591)
(-4.81902e-14 -0.785815 11.7164)
(-5.28302e-14 -0.778464 13.0334)
(-4.92895e-14 -0.76304 14.3316)
(-5.90289e-14 -0.745413 15.6137)
(-5.84668e-14 -0.727668 16.8755)
(-4.81491e-14 -0.710888 18.1123)
(-5.13703e-14 -0.695923 19.3207)
(-5.12893e-14 -0.683479 20.5002)
(-3.00817e-14 -0.674076 21.6528)
(-1.78586e-14 -0.668005 22.7822)
(-2.64703e-14 -0.665314 23.8935)
(-4.05228e-14 -0.665827 24.9925)
(-3.97115e-14 -0.669166 26.0845)
(-2.66506e-14 -0.674778 27.1745)
(-1.91578e-14 -0.681981 28.2662)
(-1.17691e-14 -0.689971 29.3617)
(-6.81529e-15 -0.697918 30.4624)
(-2.43062e-15 -0.704868 31.5665)
(-9.80911e-15 -0.71006 32.6742)
(-1.2387e-14 -0.712341 33.7754)
(-1.07095e-14 -0.711524 34.8829)
(-1.21651e-14 -0.705949 35.9415)
(-1.11901e-14 -0.69624 37.0802)
(-9.28634e-15 -0.685457 37.9074)
(-5.37233e-15 -0.654325 39.4221)
(-1.14722e-13 -0.183714 -16.2376)
(-8.65206e-14 -0.199346 -15.3993)
(-1.14457e-13 -0.207595 -14.4925)
(-6.22124e-14 -0.210846 -13.5846)
(-9.73498e-14 -0.212862 -12.6917)
(-1.51732e-13 -0.210905 -11.8054)
(-6.27424e-14 -0.203692 -10.9472)
(-1.06486e-13 -0.191529 -10.1381)
(-7.91022e-14 -0.176611 -9.39984)
(-5.47755e-14 -0.161907 -8.742)
(-2.21049e-14 -0.148681 -8.16694)
(8.22939e-15 -0.139538 -7.66958)
(2.76221e-14 -0.13874 -7.22552)
(3.22882e-14 -0.138035 -6.80668)
(5.90524e-14 -0.128296 -6.40127)
(6.43706e-14 -0.104936 -6.02084)
(1.40694e-13 -0.0647162 -5.73444)
(8.67995e-14 0.00354138 -5.60967)
(9.36358e-14 0.0640561 -5.64001)
(-5.5339e-14 0.0700443 -5.80176)
(3.27112e-14 0.0250158 -5.96649)
(3.382e-14 -0.104752 -5.87006)
(-1.59659e-13 -0.271572 -5.17242)
(-1.82652e-13 -0.237427 -4.37419)
(-8.15556e-14 -0.156551 -3.84983)
(-1.57839e-13 -0.454425 -1.89645)
(-1.4575e-13 -0.847719 0.227038)
(-7.85486e-14 -0.921127 1.4525)
(-5.8377e-14 -1.0083 2.34537)
(-6.37105e-14 -0.875316 3.05809)
(-5.26844e-14 -0.40652 3.63659)
(-1.67291e-14 -0.268759 4.33225)
(-1.12511e-14 -0.430425 5.31348)
(-5.67359e-14 -0.384989 6.05475)
(-5.77728e-14 -0.242121 6.47609)
(-5.56413e-14 -0.113748 6.83191)
(-4.20118e-14 -0.0464952 7.21314)
(-4.62677e-14 -0.0600515 7.64975)
(-3.89907e-14 -0.102368 8.09108)
(-3.74725e-14 -0.135892 8.5063)
(-4.60629e-14 -0.161019 8.9039)
(-4.95078e-14 -0.180838 9.28139)
(-4.5754e-14 -0.190984 9.61815)
(-5.45322e-14 -0.19134 9.90108)
(-6.34349e-14 -0.187055 10.1332)
(-6.63251e-14 -0.195285 10.344)
(-6.04995e-14 -0.203618 10.596)
(-4.89072e-14 -0.129768 10.7874)
(-3.7865e-14 0.0207636 10.5886)
(-3.74069e-14 0.172679 10.1024)
(-3.04828e-14 0.330394 9.203)
(-4.84943e-14 0.891894 7.54274)
(-7.945e-14 3.08869 5.3438)
(-5.88993e-14 4.47085 1.00781)
(-4.46418e-15 2.87502 -2.39537)
(-5.62292e-14 1.36911 -5.34496)
(-3.71857e-14 0.511878 -7.26126)
(-4.31602e-14 -0.667583 -6.83336)
(-4.17024e-14 -1.30585 -4.76598)
(3.05618e-14 -1.26118 -2.00714)
(-4.26163e-14 -1.39969 0.0324041)
(2.59945e-14 -1.3701 1.17993)
(3.01305e-15 -1.29474 1.82002)
(-4.34666e-14 -1.95506 0.540926)
(-6.06634e-13 -8.77923 -6.77671)
(-1.42625e-13 0.124818 0.580196)
(9.21078e-15 -2.55373 2.56737)
(-2.42514e-14 -1.37587 2.0278)
(-6.29902e-14 -0.417167 2.59041)
(-8.86572e-14 -0.670303 3.94272)
(-8.1051e-14 -0.732435 5.6512)
(-7.71363e-14 -0.776127 7.38422)
(-5.06239e-14 -0.972708 8.93802)
(-2.20515e-14 -1.13518 10.1932)
(-2.74295e-14 -1.19719 11.322)
(-4.03589e-14 -1.21187 12.4575)
(-5.3567e-14 -1.21142 13.63)
(-5.86627e-14 -1.20388 14.8356)
(-5.68628e-14 -1.19129 16.0644)
(-5.31467e-14 -1.17482 17.3047)
(-5.02311e-14 -1.15592 18.5451)
(-4.4203e-14 -1.13642 19.776)
(-5.55706e-14 -1.11818 20.9896)
(-5.95195e-14 -1.10281 22.1815)
(-5.69565e-14 -1.09151 23.3498)
(-5.50428e-14 -1.08497 24.4952)
(-5.16237e-14 -1.08337 25.6202)
(-4.76681e-14 -1.08642 26.7287)
(-4.23813e-14 -1.0934 27.8247)
(-4.57813e-14 -1.10334 28.9121)
(-4.14523e-14 -1.11495 29.9941)
(-3.46551e-14 -1.1269 31.073)
(-3.57171e-14 -1.13761 32.1487)
(-3.82505e-14 -1.14579 33.2229)
(-3.73499e-14 -1.14954 34.2869)
(-3.54252e-14 -1.14848 35.3548)
(-3.62612e-14 -1.13961 36.3733)
(-3.39578e-14 -1.12491 37.4695)
(-3.11921e-14 -1.10428 38.2634)
(-2.77475e-14 -1.05652 39.7157)
(2.5038e-14 -0.254444 -16.0452)
(2.63634e-14 -0.278008 -15.2111)
(-1.80399e-14 -0.291291 -14.3048)
(2.89294e-15 -0.297632 -13.3933)
(-2.54344e-14 -0.302525 -12.4856)
(-1.92059e-14 -0.301882 -11.5692)
(-1.02625e-13 -0.293309 -10.6622)
(-1.05812e-13 -0.276248 -9.78914)
(-4.99297e-14 -0.253479 -8.98736)
(-3.43136e-14 -0.229908 -8.2893)
(-7.31043e-15 -0.207666 -7.70885)
(1.16933e-14 -0.190082 -7.23424)
(1.77048e-14 -0.184648 -6.82799)
(6.4543e-14 -0.182551 -6.45006)
(-6.07675e-15 -0.172452 -6.07196)
(5.96017e-14 -0.145625 -5.6839)
(1.02831e-13 -0.0972348 -5.35313)
(1.90645e-13 -0.0122698 -5.16449)
(8.85497e-14 0.0783499 -5.11306)
(1.11713e-13 0.0985399 -5.27607)
(1.00783e-13 0.0404468 -5.46591)
(4.90128e-14 -0.155462 -5.19218)
(-7.50009e-14 -0.377216 -4.19166)
(-6.61741e-14 -0.321307 -3.33249)
(-6.2126e-14 -0.303184 -2.05775)
(-3.47717e-14 -0.646263 -0.170152)
(-8.59773e-14 -0.93958 1.01909)
(-9.36289e-14 -1.00044 1.73956)
(-6.67431e-14 -1.10396 2.46839)
(-7.40709e-14 -0.986244 3.00843)
(-7.48708e-14 -0.588053 3.61104)
(-3.425e-14 -0.473349 4.50888)
(-7.10275e-14 -0.584691 5.25945)
(-5.76563e-14 -0.463222 5.90675)
(-9.37533e-14 -0.258815 6.49186)
(1.4184e-14 -0.130721 6.98164)
(-1.20325e-13 -0.101916 7.45163)
(-6.53947e-14 -0.140346 7.95762)
(-3.9749e-14 -0.189771 8.43908)
(-1.00395e-13 -0.224289 8.87933)
(-7.84597e-14 -0.246263 9.27966)
(-8.99788e-15 -0.256815 9.62871)
(-4.70375e-14 -0.255001 9.91934)
(-1.26489e-13 -0.245084 10.1534)
(-9.28554e-14 -0.235955 10.3395)
(-1.02343e-13 -0.250337 10.5215)
(-5.19388e-14 -0.254009 10.7646)
(-2.59394e-15 -0.114979 10.8441)
(1.76104e-14 0.129807 10.4947)
(-2.98051e-14 0.391071 9.77776)
(-3.69367e-14 0.650611 8.5991)
(-7.23835e-14 1.34824 7.1135)
(-3.04367e-14 3.84524 5.15021)
(-1.97773e-14 5.49532 1.30083)
(-2.58622e-14 3.79028 -1.56799)
(-6.88932e-14 2.08942 -4.57807)
(-8.19548e-14 0.793253 -6.54584)
(-5.21369e-14 -1.03281 -6.11338)
(-6.54179e-14 -2.06792 -4.11204)
(5.96069e-15 -1.90467 -1.31053)
(-5.70372e-14 -1.76971 0.490342)
(2.95658e-14 -1.56118 1.52413)
(-1.97012e-14 -1.43941 1.91415)
(-3.32635e-14 -1.90592 1.0416)
(-4.12412e-14 -0.913446 -0.169411)
(5.39575e-14 -0.207176 1.00628)
(-8.65251e-14 -1.18982 2.73267)
(-1.67947e-13 -0.952652 3.23132)
(-1.55722e-13 -0.972422 4.54403)
(-1.42533e-13 -1.20535 5.9408)
(-9.51271e-14 -1.22179 7.216)
(-8.54491e-14 -1.2236 8.48449)
(-4.44811e-14 -1.35111 9.67712)
(-5.40064e-14 -1.47747 10.7238)
(-8.36412e-14 -1.54627 11.7125)
(-7.51087e-14 -1.58252 12.7218)
(-7.82427e-14 -1.60462 13.775)
(-5.91012e-14 -1.61721 14.8747)
(-4.9648e-14 -1.62111 16.019)
(-4.35181e-14 -1.6168 17.2018)
(-4.02656e-14 -1.60545 18.4143)
(-4.34144e-14 -1.58904 19.6454)
(-4.47787e-14 -1.5701 20.8833)
(-5.59991e-14 -1.55126 22.1172)
(-5.72121e-14 -1.53489 23.3386)
(-5.92818e-14 -1.52279 24.5416)
(-5.13875e-14 -1.51606 25.7233)
(-4.79291e-14 -1.51504 26.8833)
(-4.3942e-14 -1.51938 28.0232)
(-4.48252e-14 -1.52811 29.1455)
(-3.68073e-14 -1.53977 30.253)
(-3.52788e-14 -1.55261 31.3487)
(-3.83548e-14 -1.56452 32.4333)
(-4.22245e-14 -1.57366 33.5097)
(-4.27666e-14 -1.57733 34.5705)
(-4.19915e-14 -1.57493 35.6312)
(-4.04225e-14 -1.56206 36.6395)
(-3.65105e-14 -1.54196 37.7239)
(-3.56115e-14 -1.51051 38.5069)
(-3.63176e-14 -1.44638 39.9385)
(2.69115e-14 -0.336784 -15.8915)
(2.72682e-14 -0.357419 -15.0689)
(-1.01433e-14 -0.375578 -14.1742)
(6.07652e-15 -0.38466 -13.2725)
(-6.08485e-15 -0.393721 -12.3681)
(-4.34197e-14 -0.396619 -11.4435)
(-1.26102e-14 -0.389553 -10.5097)
(-9.06062e-14 -0.369606 -9.58394)
(-1.00873e-13 -0.337733 -8.70601)
(-9.26879e-14 -0.300009 -7.93096)
(-7.5204e-14 -0.262484 -7.30727)
(-3.85515e-14 -0.233011 -6.83846)
(-7.01578e-14 -0.22307 -6.46827)
(-5.01726e-14 -0.221461 -6.12879)
(-8.39348e-14 -0.213934 -5.77752)
(-3.09997e-14 -0.187581 -5.39643)
(6.10275e-14 -0.135854 -5.04475)
(7.68224e-14 -0.0417191 -4.81575)
(9.25043e-14 0.0841769 -4.694)
(1.01807e-13 0.12082 -4.82482)
(1.06714e-13 0.0278987 -4.93316)
(1.00024e-13 -0.259191 -4.3264)
(-2.95113e-14 -0.547434 -3.00499)
(-8.89702e-14 -0.50911 -2.21802)
(-6.02663e-14 -0.501004 -0.856833)
(-3.52838e-14 -0.85415 0.416773)
(-1.06217e-13 -1.07645 1.14137)
(-1.10862e-13 -1.10666 1.81152)
(-7.02852e-14 -1.19447 2.58955)
(-8.86671e-14 -1.11183 3.17251)
(-8.86681e-14 -0.768375 3.86496)
(-1.00095e-13 -0.615726 4.78803)
(-9.41259e-14 -0.67039 5.43041)
(-9.17697e-14 -0.551037 5.90349)
(-7.56484e-14 -0.350703 6.51204)
(-4.87248e-14 -0.226893 7.15393)
(-3.07485e-14 -0.2056 7.74269)
(-3.05575e-14 -0.242012 8.2878)
(-4.15476e-14 -0.284185 8.76768)
(-4.19498e-14 -0.31136 9.19261)
(-4.71466e-14 -0.323404 9.56376)
(-6.57551e-14 -0.322483 9.87564)
(-1.4951e-13 -0.310211 10.1303)
(-1.22561e-13 -0.291716 10.3328)
(-1.35869e-13 -0.280059 10.4879)
(-1.32034e-13 -0.301497 10.6598)
(-1.26853e-13 -0.284657 10.9124)
(-1.19678e-13 -0.0559293 10.836)
(-8.81529e-14 0.292341 10.3263)
(-1.35628e-13 0.654872 9.44756)
(-9.39918e-14 0.942106 8.27909)
(-1.16417e-13 1.7379 7.1445)
(-6.62628e-14 4.54873 5.14823)
(-1.23977e-14 6.3765 1.54831)
(-3.73919e-14 4.61651 -0.963737)
(-3.73e-14 2.80305 -3.97824)
(-5.45032e-14 1.09577 -5.95198)
(-5.5432e-14 -1.37656 -5.55906)
(-6.39607e-14 -2.83678 -3.70788)
(-1.67642e-14 -2.63481 -0.996685)
(-6.26718e-14 -2.24662 0.587108)
(9.66191e-15 -1.81605 1.45403)
(-3.82957e-14 -1.54574 1.80133)
(-2.92432e-14 -1.7042 1.30692)
(-3.1168e-14 -0.212774 0.876616)
(-1.95731e-13 0.422998 1.79841)
(-1.56786e-13 -0.637513 3.47927)
(-1.65971e-13 -1.10601 4.75294)
(-1.23324e-13 -1.36689 5.9736)
(-1.39589e-13 -1.54051 7.05052)
(-1.04787e-13 -1.55383 8.06064)
(-8.04159e-14 -1.56785 9.10627)
(-4.47184e-14 -1.67376 10.118)
(-5.52266e-14 -1.78624 11.0383)
(-5.25706e-14 -1.8618 11.9163)
(-4.71159e-14 -1.91473 12.8058)
(-5.20856e-14 -1.95776 13.7298)
(-1.8564e-14 -1.9936 14.699)
(-7.24297e-15 -2.02144 15.7209)
(1.92178e-15 -2.03988 16.7992)
(-2.37839e-16 -2.0483 17.933)
(-2.02074e-14 -2.04729 19.1164)
(-2.02757e-14 -2.03862 20.3396)
(-1.94325e-14 -2.02493 21.5896)
(-2.50167e-14 -2.00922 22.8529)
(-2.80573e-14 -1.9944 24.1168)
(-2.62371e-14 -1.98282 25.3713)
(-2.18784e-14 -1.97601 26.609)
(-1.8513e-14 -1.97455 27.8258)
(-1.11403e-14 -1.97812 29.0202)
(-8.27472e-15 -1.98552 30.1921)
(-4.17491e-15 -1.995 31.3432)
(-8.8332e-15 -2.00414 32.4738)
(-1.06533e-14 -2.01075 33.5874)
(-1.24378e-14 -2.01143 34.6774)
(-1.22694e-14 -2.00536 35.7611)
(-1.18948e-14 -1.98681 36.7866)
(-1.46778e-14 -1.96005 37.8861)
(-1.94232e-14 -1.91722 38.6781)
(-2.11609e-14 -1.83543 40.1226)
(3.11615e-14 -0.404661 -15.7755)
(3.91768e-14 -0.434424 -14.9395)
(9.73072e-16 -0.457052 -14.0636)
(-1.58453e-15 -0.470149 -13.1738)
(3.45917e-15 -0.484144 -12.2798)
(3.97772e-15 -0.491924 -11.3608)
(1.3205e-14 -0.488852 -10.424)
(-4.39828e-14 -0.469914 -9.47998)
(-1.16425e-13 -0.432877 -8.56132)
(-1.31587e-13 -0.381751 -7.72439)
(-1.09518e-13 -0.324576 -7.03733)
(-1.23239e-13 -0.276365 -6.53154)
(-1.60256e-13 -0.257428 -6.15782)
(-1.27439e-13 -0.255265 -5.83123)
(-9.56631e-14 -0.250927 -5.49405)
(-4.80821e-14 -0.226067 -5.12053)
(2.50728e-14 -0.172794 -4.75809)
(6.53519e-14 -0.076519 -4.50997)
(1.51998e-13 0.0763198 -4.35029)
(2.23901e-13 0.120391 -4.41316)
(2.10408e-13 -0.0214789 -4.31808)
(1.12929e-13 -0.370282 -3.31959)
(9.48427e-14 -0.645157 -1.88956)
(-8.79103e-14 -0.593071 -1.3898)
(-6.26551e-14 -0.653501 -0.204291)
(-2.20577e-14 -0.98421 0.656304)
(-6.5471e-14 -1.17246 1.28167)
(-9.91704e-14 -1.22768 2.04139)
(-6.56816e-14 -1.32222 2.85714)
(-1.06679e-13 -1.23787 3.50155)
(-8.70135e-14 -0.911143 4.18112)
(-1.18677e-13 -0.744167 5.0308)
(-7.84749e-14 -0.755814 5.65947)
(-7.10415e-14 -0.643152 6.09046)
(-5.37257e-14 -0.464872 6.67642)
(1.02054e-14 -0.346293 7.37036)
(-1.89275e-14 -0.317526 8.01459)
(-3.2693e-14 -0.342572 8.56538)
(-5.18794e-14 -0.372859 9.03326)
(-5.10757e-14 -0.389223 9.43727)
(-8.8275e-14 -0.390498 9.7819)
(-1.63778e-13 -0.378985 10.0675)
(-1.43342e-13 -0.357527 10.2993)
(-2.22194e-13 -0.330891 10.4814)
(-1.79965e-13 -0.319044 10.6126)
(-1.75915e-13 -0.351502 10.7885)
(-1.63106e-13 -0.294456 11.0704)
(-1.49969e-13 0.0541516 10.7819)
(-1.37923e-13 0.49047 10.1529)
(-1.28976e-13 0.913424 9.21576)
(-1.28163e-13 1.17995 8.20681)
(-1.36896e-13 2.10921 7.38836)
(-8.40541e-14 5.26386 5.122)
(-1.89443e-14 7.18475 1.801)
(-3.79252e-14 5.38791 -0.401942)
(-1.78502e-14 3.50625 -3.37623)
(-1.9304e-14 1.41571 -5.3488)
(-2.57323e-14 -1.67242 -5.04179)
(-5.17249e-14 -3.53299 -3.44684)
(-1.38691e-14 -3.26912 -0.901285)
(-4.92498e-14 -2.60899 0.480383)
(-3.92991e-14 -2.02008 1.24855)
(-5.18382e-14 -1.66048 1.58385)
(-1.52323e-14 -1.5584 1.39543)
(-1.22298e-13 -0.234238 1.35052)
(-1.02011e-13 0.280955 2.68086)
(-8.95977e-14 -0.702901 4.42081)
(-1.28665e-13 -1.36124 5.71134)
(-9.96453e-14 -1.67841 6.73179)
(-1.11317e-13 -1.82675 7.65316)
(-6.36178e-14 -1.85224 8.55844)
(-4.81974e-14 -1.87831 9.49724)
(-4.32889e-14 -1.9666 10.4122)
(-4.18532e-14 -2.06457 11.2582)
(-3.78931e-15 -2.14143 12.0619)
(7.23334e-15 -2.20518 12.8604)
(7.52804e-15 -2.26476 13.6743)
(2.22569e-14 -2.3221 14.518)
(1.63369e-14 -2.37564 15.4054)
(2.98118e-15 -2.42264 16.349)
(-4.9565e-15 -2.46046 17.3581)
(9.87137e-16 -2.48735 18.437)
(9.82506e-16 -2.50291 19.5841)
(1.77165e-14 -2.50816 20.7918)
(4.54359e-15 -2.50529 22.0479)
(-2.2314e-14 -2.49725 23.3374)
(-2.27433e-14 -2.48716 24.6447)
(-1.89461e-14 -2.47777 25.9556)
(-1.40429e-14 -2.47099 27.2582)
(-1.26122e-14 -2.46772 28.5439)
(-6.1536e-15 -2.4677 29.807)
(-4.73612e-15 -2.46982 31.0448)
(-9.5326e-15 -2.47185 32.255)
(-1.63665e-14 -2.47169 33.4399)
(-1.58912e-14 -2.46547 34.5923)
(-1.4375e-14 -2.45239 35.7307)
(-1.62222e-14 -2.42538 36.8023)
(-1.93208e-14 -2.38956 37.9446)
(-2.02942e-14 -2.33412 38.7671)
(-2.15289e-14 -2.23096 40.2539)
(-6.43737e-15 -0.480226 -15.6421)
(-5.33326e-16 -0.51173 -14.8201)
(-9.00461e-15 -0.537814 -13.9549)
(-3.31188e-15 -0.554511 -13.0763)
(-3.1802e-14 -0.573435 -12.1911)
(-4.73239e-14 -0.586376 -11.2776)
(-3.7349e-14 -0.587949 -10.3417)
(-5.42699e-14 -0.571375 -9.39067)
(-7.20455e-14 -0.531431 -8.45234)
(-8.08086e-14 -0.469202 -7.57839)
(-9.02516e-14 -0.392619 -6.83978)
(-1.8797e-13 -0.322899 -6.28548)
(-1.92708e-13 -0.291727 -5.88511)
(-1.96764e-13 -0.287378 -5.55344)
(-1.59956e-13 -0.286151 -5.2196)
(-8.60551e-14 -0.26351 -4.84427)
(7.46586e-14 -0.209004 -4.45702)
(1.61914e-13 -0.113223 -4.18324)
(1.57542e-13 0.0596252 -4.01162)
(2.64666e-13 0.09842 -4.00808)
(5.44286e-14 -0.123743 -3.64425)
(9.9613e-14 -0.488038 -2.26657)
(4.5418e-14 -0.710246 -1.09316)
(-1.04476e-13 -0.641261 -0.724275)
(-1.32696e-14 -0.798233 0.166829)
(-2.26012e-14 -1.10179 0.829741)
(-4.54889e-14 -1.2856 1.49956)
(-7.24254e-14 -1.36091 2.33234)
(-4.04637e-14 -1.44437 3.16257)
(-8.1787e-14 -1.34898 3.81703)
(-7.94441e-14 -1.04329 4.48352)
(-7.90754e-14 -0.877358 5.27742)
(-7.35389e-14 -0.850538 5.91416)
(-7.19461e-14 -0.730197 6.36473)
(-8.32053e-14 -0.56961 6.93284)
(-6.72835e-14 -0.46267 7.61712)
(-4.86351e-14 -0.429371 8.25828)
(-4.94881e-14 -0.440221 8.79865)
(-6.21393e-14 -0.457129 9.25369)
(-6.56513e-14 -0.462582 9.64221)
(-1.01238e-13 -0.453632 9.96893)
(-8.17272e-14 -0.432023 10.2369)
(-1.79976e-13 -0.401447 10.4535)
(-1.60751e-13 -0.365969 10.6201)
(-1.68755e-13 -0.355225 10.731)
(-1.57028e-13 -0.402042 10.9193)
(-1.55391e-13 -0.274329 11.1884)
(-1.08449e-13 0.202012 10.7124)
(-8.25658e-14 0.703388 10.0369)
(-1.53174e-14 1.15061 9.07156)
(2.9756e-14 1.36357 8.29423)
(-1.83443e-14 2.49293 7.67649)
(-8.04684e-14 5.98502 5.06043)
(-3.21508e-14 7.90953 2.11013)
(-3.66011e-14 6.10604 0.176183)
(2.3941e-16 4.18035 -2.6862)
(-2.62133e-15 1.74936 -4.64608)
(-2.77514e-14 -1.86772 -4.45522)
(-3.93711e-14 -4.1512 -3.28338)
(-2.70201e-14 -3.86088 -0.998303)
(-7.20886e-14 -2.94655 0.172367)
(-7.29417e-14 -2.22427 0.853)
(-5.01703e-14 -1.78199 1.18539)
(-1.2942e-14 -1.51062 1.22509)
(-4.37994e-14 -0.512807 1.60329)
(1.57923e-14 -0.23025 3.10078)
(-6.45458e-14 -1.0284 4.86095)
(-1.18257e-13 -1.66541 6.10751)
(-1.07126e-13 -1.97132 7.06326)
(-1.08079e-13 -2.10515 7.94001)
(-6.06275e-14 -2.14019 8.81496)
(-5.98004e-14 -2.17182 9.71182)
(-4.86978e-14 -2.24506 10.5851)
(-3.61179e-14 -2.32835 11.3989)
(-3.43726e-14 -2.40066 12.1666)
(-2.47481e-14 -2.46715 12.9126)
(-7.09575e-15 -2.53503 13.6534)
(1.09215e-15 -2.60653 14.403)
(-7.18604e-15 -2.68052 15.1767)
(-1.51497e-14 -2.75405 15.9911)
(-1.03884e-14 -2.82338 16.8624)
(-2.76304e-14 -2.88481 17.8041)
(-4.28301e-14 -2.93541 18.8252)
(-4.31443e-14 -2.97345 19.9287)
(-3.91959e-14 -2.99874 21.1108)
(-3.95202e-14 -3.01255 22.3617)
(-4.16776e-14 -3.01721 23.6668)
(-4.5781e-14 -3.01562 25.0091)
(-3.89577e-14 -3.01056 26.3712)
(-3.80087e-14 -3.00422 27.7374)
(-3.74986e-14 -2.99769 29.0943)
(-3.60556e-14 -2.99114 30.4322)
(-4.24353e-14 -2.98323 31.7432)
(-4.75302e-14 -2.97263 33.0254)
(-4.83682e-14 -2.95543 34.2686)
(-4.36208e-14 -2.93133 35.4905)
(-3.91299e-14 -2.89202 36.6355)
(-3.58726e-14 -2.84351 37.8463)
(-3.50677e-14 -2.77302 38.7187)
(-3.37765e-14 -2.64218 40.2737)
(4.52779e-14 -0.550086 -15.5138)
(-1.22661e-14 -0.586257 -14.7047)
(-2.44499e-14 -0.616605 -13.8484)
(-1.98875e-14 -0.637371 -12.9786)
(-1.09057e-14 -0.661639 -12.0993)
(-1.43002e-14 -0.680157 -11.189)
(-1.14931e-14 -0.687026 -10.2522)
(-3.60467e-14 -0.673853 -9.29424)
(1.14959e-14 -0.63264 -8.34168)
(-3.69965e-14 -0.561455 -7.4445)
(-9.24659e-14 -0.466909 -6.6725)
(-1.37346e-13 -0.374408 -6.0792)
(-1.81715e-13 -0.327776 -5.64597)
(-2.02997e-13 -0.318553 -5.29768)
(-2.05519e-13 -0.319703 -4.9612)
(-1.05511e-13 -0.300275 -4.58465)
(-8.97254e-14 -0.244321 -4.17025)
(2.67383e-14 -0.147741 -3.86058)
(8.58166e-14 0.0420872 -3.67806)
(6.28557e-14 0.0793212 -3.55865)
(3.86776e-14 -0.144445 -2.91141)
(5.16772e-14 -0.394302 -1.20077)
(7.53382e-14 -0.741833 -0.6558)
(-1.20041e-13 -0.695805 -0.311472)
(-2.03761e-14 -0.9198 0.386152)
(-3.48453e-14 -1.21137 1.01503)
(-3.24194e-14 -1.40756 1.77676)
(-3.13103e-14 -1.49856 2.64901)
(-6.05305e-14 -1.56716 3.47341)
(-4.39993e-14 -1.46382 4.1342)
(-7.79758e-14 -1.17568 4.79458)
(-8.15624e-14 -1.00419 5.54879)
(-7.59461e-14 -0.942811 6.17972)
(-8.35424e-14 -0.814133 6.66464)
(-1.0061e-13 -0.668112 7.23057)
(-4.24528e-14 -0.572884 7.88041)
(-5.34814e-14 -0.536212 8.49173)
(-6.00037e-14 -0.534582 9.01455)
(-7.19325e-14 -0.538901 9.45722)
(-6.96236e-14 -0.533115 9.83259)
(-1.35195e-13 -0.513246 10.1452)
(-1.42733e-13 -0.481036 10.3998)
(-2.09854e-13 -0.441176 10.6052)
(-1.69438e-13 -0.396371 10.7585)
(-1.64069e-13 -0.387332 10.8511)
(-1.57761e-13 -0.446963 11.0576)
(-1.50521e-13 -0.220401 11.2481)
(-1.49626e-13 0.366373 10.653)
(-1.05463e-13 0.917744 9.97168)
(-6.62627e-14 1.35791 9.00637)
(-4.1905e-14 1.5015 8.50004)
(-6.43381e-15 2.90584 7.93837)
(-6.26068e-14 6.69925 5.03111)
(-4.01916e-14 8.54295 2.49639)
(-3.7385e-14 6.76782 0.807241)
(-7.9483e-15 4.84332 -1.84955)
(-4.97387e-14 2.16532 -3.80489)
(-4.002e-14 -1.94941 -3.74512)
(-3.61733e-14 -4.63256 -3.18651)
(-3.71462e-14 -4.36588 -1.28335)
(-8.26204e-14 -3.23331 -0.360469)
(-6.78838e-14 -2.42209 0.231306)
(-3.6661e-14 -1.92623 0.614649)
(-6.91567e-14 -1.58188 0.844297)
(-8.38931e-14 -0.850052 1.54921)
(-7.96569e-14 -0.73418 3.15905)
(-1.04404e-13 -1.41684 4.86647)
(-1.42118e-13 -1.98681 6.10279)
(-1.34575e-13 -2.26803 7.06913)
(-1.24292e-13 -2.38941 7.96389)
(-9.16339e-14 -2.4289 8.85552)
(-7.68704e-14 -2.46145 9.75527)
(-6.45222e-14 -2.5209 10.6272)
(-5.95593e-14 -2.58902 11.4427)
(-6.53637e-14 -2.65228 12.2074)
(-7.74307e-14 -2.71484 12.9371)
(-5.14357e-14 -2.78318 13.6445)
(-2.18556e-14 -2.86029 14.3411)
(-1.1412e-14 -2.94613 15.0407)
(-1.48431e-14 -3.03854 15.7592)
(-3.56092e-14 -3.13394 16.5144)
(-6.17099e-14 -3.22799 17.3241)
(-6.56618e-14 -3.31616 18.2048)
(-7.13319e-14 -3.39435 19.1689)
(-6.12987e-14 -3.45949 20.2238)
(-6.11455e-14 -3.50994 21.37)
(-6.2023e-14 -3.54558 22.6015)
(-6.10385e-14 -3.56767 23.906)
(-6.0696e-14 -3.5783 25.2669)
(-5.1322e-14 -3.57991 26.6657)
(-4.90033e-14 -3.5745 28.0833)
(-5.18097e-14 -3.56363 29.503)
(-5.81951e-14 -3.54722 30.9093)
(-5.54442e-14 -3.52537 32.2936)
(-4.74269e-14 -3.49463 33.6392)
(-3.99082e-14 -3.45593 34.9604)
(-3.38716e-14 -3.4 36.1951)
(-3.19055e-14 -3.33422 37.4923)
(-2.91899e-14 -3.24537 38.4268)
(-2.74031e-14 -3.0784 40.0724)
(5.35607e-15 -0.622838 -15.3916)
(-4.859e-14 -0.660668 -14.5932)
(-4.06537e-14 -0.694792 -13.7437)
(-6.59191e-14 -0.71946 -12.8801)
(-8.44564e-14 -0.749169 -12.0043)
(-6.02949e-14 -0.773502 -11.0953)
(-1.03168e-14 -0.7861 -10.1559)
(-2.53161e-14 -0.776891 -9.18944)
(-1.30733e-14 -0.735004 -8.22111)
(7.68348e-15 -0.655549 -7.30211)
(-4.95937e-14 -0.54391 -6.50509)
(-9.52632e-14 -0.428852 -5.88602)
(-1.47956e-13 -0.365804 -5.42692)
(-2.06853e-13 -0.349893 -5.05971)
(-2.76538e-13 -0.352043 -4.7183)
(-2.79533e-13 -0.336084 -4.34625)
(-2.14455e-13 -0.27789 -3.91685)
(-1.00273e-13 -0.176936 -3.58473)
(3.76882e-14 0.0227602 -3.42306)
(1.0512e-13 0.026238 -3.16859)
(1.16691e-14 -0.213372 -2.2973)
(-2.44173e-15 -0.371112 -0.446071)
(-4.35881e-14 -0.75956 -0.413654)
(-1.16147e-13 -0.781617 -0.0986097)
(-2.6069e-14 -1.03862 0.569428)
(-2.1289e-14 -1.33365 1.2705)
(-2.81517e-14 -1.53936 2.08608)
(-6.68456e-14 -1.63693 2.96961)
(-4.43476e-14 -1.68991 3.78574)
(-3.96195e-14 -1.57638 4.45016)
(-1.04166e-13 -1.30119 5.10673)
(-6.07337e-14 -1.12354 5.83121)
(-8.15849e-14 -1.03538 6.45503)
(-9.64401e-14 -0.901811 6.96379)
(-9.39691e-14 -0.767258 7.52676)
(-6.3496e-14 -0.680382 8.14362)
(-8.87909e-14 -0.640309 8.72291)
(-8.60822e-14 -0.627173 9.22558)
(-8.36698e-14 -0.618656 9.65463)
(-7.26073e-14 -0.600844 10.0177)
(-8.67385e-14 -0.569686 10.3188)
(-8.7156e-14 -0.526864 10.5628)
(-1.62861e-13 -0.477707 10.7599)
(-1.40484e-13 -0.423015 10.9011)
(-1.55668e-13 -0.415432 10.9766)
(-1.57072e-13 -0.481972 11.2104)
(-1.5493e-13 -0.138442 11.2966)
(-1.54092e-13 0.543883 10.6093)
(-1.45954e-13 1.12263 9.94518)
(-1.38069e-13 1.52671 9.01917)
(-1.20408e-13 1.60669 8.79219)
(-3.85107e-14 3.35236 8.155)
(-5.34877e-14 7.39541 5.09128)
(-4.41203e-14 9.08641 2.94337)
(-4.14263e-14 7.36459 1.48139)
(-3.17904e-14 5.45692 -0.909418)
(-9.43071e-14 2.56415 -2.86515)
(-8.59585e-14 -1.98762 -2.91562)
(-4.86044e-14 -4.95313 -3.12643)
(-6.5602e-14 -4.76433 -1.74253)
(-9.20756e-14 -3.46811 -1.07783)
(-6.36481e-14 -2.62059 -0.589832)
(-2.94527e-14 -2.10825 -0.121126)
(-7.67984e-14 -1.75162 0.329468)
(-9.4415e-14 -1.24994 1.24072)
(-7.15708e-14 -1.25983 2.88185)
(-9.4135e-14 -1.83953 4.53023)
(-1.39889e-13 -2.33079 5.77976)
(-1.16761e-13 -2.58239 6.79586)
(-1.03681e-13 -2.69254 7.74613)
(-6.61906e-14 -2.7328 8.68743)
(-5.40792e-14 -2.76217 9.62344)
(-4.36636e-14 -2.80714 10.5249)
(-4.33315e-14 -2.8585 11.3689)
(-9.06278e-14 -2.90865 12.1565)
(-7.60853e-14 -2.96176 12.8988)
(-2.65069e-14 -3.02408 13.6055)
(-1.83573e-14 -3.0993 14.2864)
(-1.5329e-14 -3.18844 14.9528)
(-3.04808e-14 -3.29046 15.6182)
(-5.52176e-14 -3.40267 16.2982)
(-7.85136e-14 -3.52117 17.0103)
(-8.30357e-14 -3.64122 17.7723)
(-6.14313e-14 -3.75766 18.6016)
(-6.02356e-14 -3.86549 19.5132)
(-6.26711e-14 -3.96041 20.5177)
(-5.5976e-14 -4.03927 21.62)
(-5.04569e-14 -4.10039 22.8181)
(-4.69617e-14 -4.14343 24.1034)
(-4.30926e-14 -4.1693 25.4615)
(-3.91302e-14 -4.17937 26.8738)
(-4.06413e-14 -4.17557 28.3205)
(-4.62418e-14 -4.15862 29.7801)
(-4.04777e-14 -4.13006 31.2371)
(-3.82069e-14 -4.0872 32.6664)
(-3.17244e-14 -4.03284 34.0768)