/*--------------------------------*- C++ -*----------------------------------*\
| =========                 |                                                 |
| \\      /  F ield         | OpenFOAM: The Open Source CFD Toolbox           |
|  \\    /   O peration     | Version:  4.1                                   |
|   \\  /    A nd           | Web:      www.OpenFOAM.org                      |
|    \\/     M anipulation  |                                                 |
\*---------------------------------------------------------------------------*/
FoamFile
{
    version     2.0;
    format      ascii;
    class       volScalarField;
    location    "300";
    object      p;
}
// * * * * * * * * * * * * * * * * * * * * * * * * * * * * * * * * * * * * * //

dimensions      [0 2 -2 0 0 0 0];

internalField   nonuniform List<scalar> 
26785
(
-34.2333
-40.9917
-42.4343
-41.7047
-39.9646
-37.5518
-34.921
-32.3929
-30.0993
-28.0759
-26.3036
-24.7456
-23.373
-22.165
-21.101
-20.1593
-19.3193
-18.5625
-17.8718
-17.2318
-16.6283
-16.0489
-15.4829
-14.9215
-14.3584
-13.7895
-13.2134
-12.6306
-12.043
-11.4535
-10.8651
-10.2809
-9.70367
-9.13593
-8.57984
-8.0372
-7.50945
-6.9977
-6.50275
-6.02522
-5.56566
-5.12453
-4.70224
-4.29912
-3.91567
-3.55254
-3.21027
-2.88909
-2.58907
-2.31027
-2.05276
-1.8167
-1.6022
-1.40926
-1.23761
-1.0866
-0.955172
-0.841879
-0.744909
-0.66219
-0.591493
-0.530559
-0.477229
-0.429549
-0.38587
-0.344902
-0.305734
-0.267827
-0.230962
-0.19518
-0.160698
-0.127837
-0.096946
-0.0683449
-0.0422826
-0.0189121
0.00171742
0.019655
0.0350325
0.0480485
0.0589425
0.0679609
0.0753434
0.0813386
0.0861711
0.0899023
0.0924519
0.0937488
0.0937585
0.0924648
0.0898784
0.0860053
0.0809341
0.0745945
0.0673728
0.0584694
0.0501484
0.0366163
0.0321639
-0.0023301
-34.3639
-41.0375
-42.4535
-41.7232
-39.9791
-37.5607
-34.9264
-32.3968
-30.1024
-28.0787
-26.3063
-24.7483
-23.3759
-22.1683
-21.1046
-20.1634
-19.3239
-18.5675
-17.8772
-17.2375
-16.6343
-16.0551
-15.4891
-14.9277
-14.3644
-13.7952
-13.2187
-12.6355
-12.0474
-11.4574
-10.8685
-10.2838
-9.70617
-9.13805
-8.58162
-8.03868
-7.51068
-6.99871
-6.50357
-6.02589
-5.56621
-5.12497
-4.7026
-4.2994
-3.91586
-3.55269
-3.21043
-2.88934
-2.5895
-2.31095
-2.05378
-1.81811
-1.60406
-1.41159
-1.2404
-1.08981
-0.95873
-0.845689
-0.748861
-0.666165
-0.595378
-0.534252
-0.480646
-0.432629
-0.388576
-0.347217
-0.307665
-0.269394
-0.232198
-0.196124
-0.161394
-0.128328
-0.0972725
-0.068547
-0.0423974
-0.0189734
0.00168061
0.0196196
0.034983
0.0479773
0.0588499
0.0678531
0.0752291
0.0812309
0.0860971
0.0898845
0.092488
0.0938257
0.0938642
0.0925892
0.0900129
0.0861428
0.08107
0.0747244
0.0675005
0.0585835
0.050313
0.0366916
0.0328946
-0.0032761
-34.5367
-41.0973
-42.4814
-41.7563
-40.0073
-37.5801
-34.9397
-32.407
-30.1113
-28.0868
-26.3139
-24.7558
-23.3838
-22.1767
-21.1138
-20.1733
-19.3346
-18.5789
-17.8892
-17.25
-16.6471
-16.0679
-15.5019
-14.9402
-14.3764
-13.8065
-13.2291
-12.6449
-12.0559
-11.4648
-10.875
-10.2894
-9.7109
-9.14206
-8.58501
-8.04155
-7.5131
-7.00077
-6.50534
-6.0274
-5.56747
-5.12602
-4.70346
-4.30013
-3.91657
-3.55352
-3.21152
-2.89081
-2.59146
-2.31351
-2.05701
-1.82207
-1.60878
-1.41709
-1.24664
-1.09671
-0.966171
-0.853493
-0.756823
-0.674068
-0.603005
-0.541409
-0.487167
-0.438396
-0.393518
-0.351314
-0.310943
-0.271919
-0.234065
-0.197445
-0.162287
-0.128906
-0.0976383
-0.068785
-0.0425731
-0.0191327
0.00150986
0.0194254
0.0347669
0.0477515
0.0586347
0.0676723
0.0751034
0.0811771
0.0861334
0.0900146
0.0926948
0.0940864
0.0941549
0.0928882
0.0903032
0.0864125
0.081314
0.0749395
0.0676979
0.0587499
0.0505475
0.0367982
0.0338451
-0.00450024
-34.7525
-41.184
-42.527
-41.8066
-40.0487
-37.6085
-34.9596
-32.4228
-30.1252
-28.0996
-26.3263
-24.7682
-23.3966
-22.1903
-21.1282
-20.1887
-19.3509
-18.596
-17.9071
-17.2684
-16.6658
-16.0868
-15.5206
-14.9584
-14.3939
-13.823
-13.2444
-12.6588
-12.0683
-11.4758
-10.8845
-10.2976
-9.71793
-9.14805
-8.5901
-8.04588
-7.5168
-7.00394
-6.50808
-6.02977
-5.5695
-5.12773
-4.70487
-4.30134
-3.91775
-3.55488
-3.21326
-2.89316
-2.59463
-2.31765
-2.06225
-1.82849
-1.6164
-1.42584
-1.25642
-1.10735
-0.977423
-0.865081
-0.768438
-0.685394
-0.613745
-0.551303
-0.496017
-0.446071
-0.399963
-0.356548
-0.315048
-0.275027
-0.236337
-0.199055
-0.163403
-0.129679
-0.0981926
-0.0692157
-0.0429474
-0.0194925
0.00114401
0.0190509
0.0343952
0.0474038
0.0583377
0.0674532
0.0749838
0.0811681
0.0862399
0.0902323
0.0930062
0.0944622
0.0945639
0.0933032
0.0907031
0.0867828
0.0816482
0.0752338
0.067964
0.0589736
0.0508336
0.0369576
0.0346947
-0.00545891
-35.007
-41.2793
-42.5766
-41.8654
-40.0983
-37.6441
-34.9859
-32.4444
-30.1447
-28.118
-26.3441
-24.7861
-23.4151
-22.2097
-21.1487
-20.2102
-19.3734
-18.6194
-17.9311
-17.2929
-16.6905
-16.1114
-15.5448
-14.982
-14.4164
-13.8442
-13.2639
-12.6765
-12.084
-11.4896
-10.8965
-10.308
-9.72689
-9.15575
-8.59674
-8.05162
-7.52179
-7.00832
-6.51194
-6.03318
-5.57249
-5.1303
-4.7071
-4.3034
-3.91991
-3.55741
-3.21645
-2.89728
-2.59991
-2.32429
-2.07034
-1.83808
-1.62744
-1.43822
-1.26994
-1.12173
-0.992336
-0.880143
-0.783251
-0.699568
-0.626929
-0.563211
-0.506448
-0.454921
-0.407226
-0.362309
-0.319464
-0.278302
-0.2387
-0.200732
-0.164602
-0.130573
-0.0989148
-0.0698599
-0.04357
-0.0201188
0.000513359
0.0184335
0.0338201
0.0469052
0.0579483
0.0672
0.0748825
0.0812131
0.0864106
0.0905159
0.0933924
0.0949223
0.095064
0.0938118
0.0911949
0.0872394
0.0820602
0.0755945
0.0682828
0.0592369
0.0511368
0.0371486
0.0353296
-0.00607056
-35.3508
-41.3887
-42.6283
-41.9284
-40.1515
-37.6838
-35.0174
-32.4716
-30.1699
-28.1422
-26.3679
-24.81
-23.4398
-22.2354
-21.1754
-20.238
-19.402
-18.6488
-17.961
-17.323
-16.7206
-16.1412
-15.574
-15.0103
-14.4434
-13.8694
-13.2872
-12.6975
-12.1027
-11.5061
-10.9109
-10.3205
-9.73772
-9.16517
-8.60497
-8.05886
-7.52821
-7.01405
-6.51707
-6.03776
-5.57655
-5.13391
-4.71036
-4.30654
-3.92325
-3.5613
-3.22125
-2.90331
-2.60744
-2.3335
-2.08134
-1.85085
-1.64188
-1.45412
-1.28699
-1.13954
-1.01047
-0.898131
-0.800628
-0.715903
-0.641858
-0.576465
-0.517868
-0.464465
-0.414961
-0.368392
-0.324117
-0.281784
-0.241275
-0.202649
-0.166074
-0.131769
-0.0999593
-0.0708325
-0.044513
-0.0210445
-0.000384918
0.0175876
0.0330596
0.0462641
0.0574554
0.0668764
0.074738
0.0812355
0.0865603
0.0907717
0.0937554
0.0953768
0.0955798
0.0943562
0.0917393
0.0877612
0.082545
0.0760309
0.0686733
0.0595687
0.0514888
0.0374043
0.0358171
-0.0063873
-35.7466
-41.4964
-42.6766
-41.9909
-40.2033
-37.7228
-35.0495
-32.5006
-30.1978
-28.1697
-26.3954
-24.8382
-23.4691
-22.266
-21.2074
-20.271
-19.436
-18.6834
-17.996
-17.358
-16.7554
-16.1756
-15.6076
-15.0426
-14.4741
-13.8982
-13.3137
-12.7214
-12.1241
-11.525
-10.9275
-10.335
-9.7505
-9.17645
-8.615
-8.06786
-7.53634
-7.02142
-6.52375
-6.0438
-5.582
-5.13884
-4.71497
-4.31114
-3.92825
-3.56713
-3.2283
-2.91192
-2.61785
-2.34585
-2.09568
-1.86709
-1.65982
-1.47346
-1.30733
-1.1604
-1.03134
-0.918486
-0.819969
-0.733799
-0.657972
-0.590577
-0.529883
-0.474409
-0.422968
-0.374679
-0.328951
-0.285454
-0.244065
-0.204813
-0.167825
-0.133272
-0.101328
-0.0721355
-0.0457806
-0.0222774
-0.00156311
0.0164963
0.0320924
0.0454556
0.0568316
0.066453
0.0745198
0.0812065
0.08667
0.0909815
0.0940652
0.09579
0.0960769
0.0949058
0.0923101
0.0883267
0.083086
0.0765301
0.0691263
0.0599641
0.0518879
0.0377102
0.0362122
-0.00654214
-36.1393
-41.6016
-42.7261
-42.0545
-40.2542
-37.7623
-35.085
-32.534
-30.2306
-28.2023
-26.4281
-24.8716
-23.5036
-22.3019
-21.2446
-20.3093
-19.475
-18.7228
-18.0355
-17.3975
-16.7944
-16.2139
-15.6449
-15.0787
-14.5084
-13.9303
-13.3432
-12.7482
-12.1481
-11.5463
-10.9464
-10.3518
-9.7654
-9.1898
-8.62704
-8.0788
-7.54634
-7.03058
-6.53213
-6.05144
-5.58896
-5.14527
-4.72114
-4.31745
-3.93519
-3.57517
-3.23786
-2.92332
-2.63131
-2.36146
-2.11339
-1.88673
-1.6811
-1.49597
-1.33058
-1.18386
-1.05443
-0.940665
-0.840753
-0.752789
-0.674885
-0.605257
-0.542302
-0.484658
-0.431234
-0.381216
-0.334052
-0.289421
-0.247183
-0.207331
-0.169947
-0.135149
-0.103062
-0.0737853
-0.0473682
-0.0237983
-0.00299522
0.0151848
0.030936
0.0444852
0.0560688
0.0659081
0.074193
0.0810817
0.086702
0.091116
0.0942875
0.0961161
0.096507
0.095417
0.0928717
0.0889099
0.0836674
0.0770865
0.0696468
0.0604381
0.0523583
0.0380849
0.0365995
-0.00661104
-36.5332
-41.7093
-42.776
-42.114
-40.2972
-37.7952
-35.1176
-32.5673
-30.2646
-28.2369
-26.4636
-24.9083
-23.542
-22.3419
-21.286
-20.3517
-19.5181
-18.7662
-18.0789
-17.4405
-16.8369
-16.2556
-15.6856
-15.1179
-14.5458
-13.9654
-13.3756
-12.7778
-12.1747
-11.5702
-10.9678
-10.3709
-9.78264
-9.20543
-8.64132
-8.09192
-7.55844
-7.04174
-6.5424
-6.06087
-5.59766
-5.15347
-4.7292
-4.32587
-3.94451
-3.58589
-3.2504
-2.93795
-2.64816
-2.38053
-2.13453
-1.90968
-1.70549
-1.52131
-1.35633
-1.20943
-1.07925
-0.964215
-0.862576
-0.772542
-0.692347
-0.620335
-0.555029
-0.495172
-0.439756
-0.388024
-0.339449
-0.29371
-0.250643
-0.210205
-0.172428
-0.137379
-0.105135
-0.0757525
-0.0492475
-0.0255828
-0.0046621
0.0136662
0.0295976
0.0433546
0.0551644
0.0652371
0.0737512
0.0808525
0.0866475
0.0911817
0.094437
0.0963539
0.0968514
0.0958633
0.0933955
0.0894831
0.0842638
0.0776783
0.0702184
0.0609787
0.0528912
0.0385128
0.0370126
-0.00667552
-36.9278
-41.8084
-42.8209
-42.1675
-40.3332
-37.8234
-35.1499
-32.6026
-30.3013
-28.2746
-26.5023
-24.9485
-23.584
-22.3857
-21.3312
-20.3979
-19.5648
-18.813
-18.1254
-17.4866
-16.8824
-16.3002
-15.7292
-15.1601
-14.5862
-14.0035
-13.411
-12.8102
-12.2042
-11.5967
-10.9917
-10.3926
-9.80239
-9.22351
-8.65798
-8.10736
-7.57277
-7.05502
-6.55466
-6.0722
-5.60825
-5.16362
-4.73939
-4.33667
-3.95651
-3.5996
-3.26617
-2.95598
-2.66848
-2.40303
-2.15898
-1.93572
-1.73266
-1.54909
-1.38414
-1.23669
-1.10541
-0.988779
-0.885149
-0.79284
-0.710212
-0.635733
-0.568037
-0.505963
-0.448574
-0.395154
-0.345197
-0.29837
-0.254487
-0.213461
-0.175278
-0.139956
-0.107526
-0.0780059
-0.05138
-0.0275893
-0.00652349
0.011976
0.0281058
0.0420841
0.0541301
0.0644437
0.0731926
0.0805102
0.0864889
0.091164
0.0945182
0.0965129
0.0970996
0.0962189
0.0938519
0.0900179
0.0848511
0.0782878
0.0708327
0.0615859
0.0534889
0.0389932
0.0374893
-0.00676747
-37.3729
-41.902
-42.8554
-42.207
-40.3534
-37.8387
-35.1754
-32.6357
-30.338
-28.3135
-26.5429
-24.9912
-23.6288
-22.4324
-21.3794
-20.447
-19.6143
-18.8625
-18.1746
-17.5352
-16.9304
-16.3475
-15.7755
-15.2052
-14.6296
-14.0446
-13.4493
-12.8455
-12.2365
-11.6262
-11.0185
-10.4171
-9.82485
-9.24425
-8.67723
-8.12528
-7.58947
-7.07054
-6.56906
-6.08561
-5.62092
-5.17599
-4.75201
-4.3502
-3.97154
-3.6166
-3.28541
-2.97754
-2.6923
-2.42888
-2.18653
-1.96455
-1.76227
-1.57893
-1.41363
-1.26528
-1.13258
-1.01409
-0.908267
-0.813544
-0.728398
-0.651413
-0.581322
-0.517048
-0.457712
-0.402632
-0.351311
-0.303407
-0.258704
-0.217077
-0.178464
-0.14284
-0.11019
-0.0804978
-0.053719
-0.0297744
-0.00854054
0.0101477
0.0264881
0.0406958
0.0529831
0.0635409
0.0725271
0.0800633
0.0862305
0.0910586
0.094532
0.0966146
0.0972753
0.0964831
0.0942216
0.0904893
0.0854021
0.0788881
0.0714667
0.0622369
0.0541288
0.0394996
0.0380268
-0.00691719
-37.825
-41.9809
-42.8811
-42.2362
-40.3618
-37.8437
-35.194
-32.6651
-30.3727
-28.3514
-26.5834
-25.0344
-23.6747
-22.4807
-21.4294
-20.498
-19.6657
-18.9139
-18.2257
-17.5859
-16.9806
-16.3971
-15.8244
-15.253
-14.6758
-14.0887
-13.4907
-12.8839
-12.2718
-11.6586
-11.0483
-10.4445
-9.85014
-9.26774
-8.69914
-8.14575
-7.60858
-7.08835
-6.58566
-6.10119
-5.63584
-5.19078
-4.76733
-4.36672
-3.98984
-3.63707
-3.30821
-3.00264
-2.7195
-2.45787
-2.2169
-1.99584
-1.79395
-1.61046
-1.44445
-1.29488
-1.1605
-1.03995
-0.931792
-0.834567
-0.746862
-0.667363
-0.594895
-0.528449
-0.467195
-0.410479
-0.357808
-0.308826
-0.263289
-0.221034
-0.181956
-0.145989
-0.113079
-0.0831758
-0.056211
-0.0320859
-0.010665
0.0082239
0.0247809
0.039219
0.0517455
0.0625442
0.0717645
0.0795174
0.0858738
0.0908596
0.0944628
0.0966516
0.0973969
0.0966809
0.0945062
0.0908765
0.0858901
0.0794586
0.0721085
0.0629115
0.0547883
0.0400153
0.0386204
-0.00712485
-38.2479
-42.0526
-42.9019
-42.2546
-40.3573
-37.8379
-35.206
-32.6923
-30.407
-28.3894
-26.6244
-25.0783
-23.7216
-22.5301
-21.4806
-20.5503
-19.7185
-18.9667
-18.2783
-17.6382
-17.0326
-16.4489
-15.8757
-15.3036
-14.725
-14.1358
-13.5353
-12.9256
-12.3104
-11.6942
-11.0811
-10.4748
-9.87835
-9.29406
-8.72377
-8.16882
-7.63016
-7.10852
-6.60455
-6.11909
-5.65323
-5.20829
-4.78568
-4.38656
-4.01167
-3.66117
-3.33462
-3.0312
-2.7499
-2.48974
-2.24978
-2.02924
-1.82735
-1.64334
-1.47631
-1.32525
-1.18898
-1.06622
-0.955632
-0.855857
-0.765582
-0.683584
-0.608767
-0.540181
-0.477037
-0.418702
-0.364683
-0.314611
-0.268214
-0.225294
-0.185709
-0.149351
-0.116137
-0.0859838
-0.058801
-0.0344724
-0.0128501
0.00624571
0.0230188
0.0376822
0.05044
0.0614708
0.0709168
0.0788807
0.0854245
0.0905697
0.0943069
0.0966104
0.0974561
0.0968284
0.0947377
0.0912004
0.0863152
0.0799852
0.0727228
0.0635551
0.0554193
0.0405097
0.0392409
-0.0073855
-38.6479
-42.1172
-42.9145
-42.2582
-40.3364
-37.818
-35.2073
-32.7134
-30.4378
-28.4253
-26.6641
-25.1216
-23.7684
-22.5798
-21.5323
-20.6032
-19.772
-19.0205
-18.3321
-17.6919
-17.0863
-16.5026
-15.9294
-15.3568
-14.7771
-14.1862
-13.5831
-12.9704
-12.3521
-11.7329
-11.117
-10.5082
-9.90948
-9.3232
-8.7511
-8.19445
-7.65418
-7.13103
-6.62578
-6.13944
-5.67329
-5.22878
-4.80732
-4.40995
-4.03719
-3.68894
-3.36455
-3.06302
-2.78325
-2.52416
-2.28482
-2.0644
-1.86215
-1.67729
-1.50897
-1.35619
-1.21787
-1.0928
-0.979727
-0.877383
-0.784548
-0.700079
-0.622946
-0.552252
-0.487243
-0.427298
-0.371927
-0.320744
-0.273451
-0.22982
-0.189675
-0.152876
-0.119308
-0.0888652
-0.0614337
-0.0368816
-0.0150484
0.0042546
0.0212367
0.0361132
0.0490876
0.0603353
0.0699932
0.0781572
0.0848823
0.0901861
0.0940596
0.0964813
0.0974335
0.0969073
0.0949186
0.0914804
0.0866918
0.0804578
0.0732714
0.0641279
0.0559952
0.0409665
0.0398603
-0.00767822
-39.0269
-42.1642
-42.9137
-42.2452
-40.2997
-37.7859
-35.1997
-32.7291
-30.4659
-28.4594
-26.7025
-25.1641
-23.8147
-22.6293
-21.584
-20.6564
-19.826
-19.0748
-18.3867
-17.7468
-17.1415
-16.5582
-15.9853
-15.4126
-14.8322
-14.2396
-13.6342
-13.0186
-12.3972
-11.7748
-11.156
-10.5446
-9.94353
-9.35513
-8.78109
-8.22261
-7.68061
-7.15589
-6.6494
-6.16235
-5.6962
-5.25246
-4.83245
-4.43702
-4.06642
-3.72031
-3.39784
-3.09787
-2.81923
-2.56081
-2.32168
-2.10101
-1.89806
-1.71207
-1.54222
-1.38757
-1.24708
-1.11963
-1.00403
-0.899126
-0.803754
-0.716848
-0.637435
-0.564665
-0.497807
-0.436257
-0.379519
-0.327194
-0.278962
-0.234568
-0.193807
-0.156512
-0.122541
-0.0917671
-0.0640579
-0.0392656
-0.0172169
0.00228768
0.0194653
0.0345363
0.0477062
0.0591498
0.069001
0.0773501
0.0842466
0.0897047
0.0937154
0.0962594
0.0973235
0.0969036
0.0950207
0.0916864
0.0869975
0.0808558
0.0737421
0.0646267
0.0565074
0.0413741
0.0404472
-0.00798232
-39.4349
-42.197
-42.8973
-42.2122
-40.243
-37.7369
-35.1779
-32.7342
-30.4878
-28.4896
-26.7384
-25.2049
-23.8598
-22.678
-21.6353
-20.7092
-19.8798
-19.1293
-18.4417
-17.8025
-17.198
-16.6156
-16.0434
-15.471
-14.8902
-14.2962
-13.6885
-13.07
-12.4454
-11.8199
-11.1981
-10.584
-9.98043
-9.38979
-8.81367
-8.25322
-7.70939
-7.1831
-6.67547
-6.18793
-5.72209
-5.27946
-4.86116
-4.46778
-4.09929
-3.75511
-3.43423
-3.13543
-2.8575
-2.59935
-2.36004
-2.13878
-1.93484
-1.74749
-1.57592
-1.41926
-1.27652
-1.14664
-1.02853
-0.92107
-0.823193
-0.733887
-0.652231
-0.577409
-0.508717
-0.445558
-0.387434
-0.333932
-0.284714
-0.2395
-0.198062
-0.160212
-0.125788
-0.0946424
-0.0666281
-0.0415821
-0.0193174
0.000377903
0.0177316
0.0329721
0.0463106
0.0579238
0.0679447
0.0764601
0.0835149
0.0891199
0.0932656
0.0959347
0.0971163
0.096809
0.095036
0.0918078
0.0872196
0.0811686
0.0741256
0.0650412
0.0569424
0.0417216
0.0409746
-0.00827678
-39.8242
-42.2092
-42.8687
-42.1642
-40.1717
-37.6759
-35.1455
-32.7296
-30.5022
-28.5141
-26.7695
-25.2419
-23.9021
-22.7244
-21.6849
-20.761
-19.9331
-19.1836
-18.497
-17.8588
-17.2555
-16.6744
-16.1035
-15.5319
-14.9509
-14.3558
-13.746
-13.1246
-12.4967
-11.868
-11.2432
-10.6262
-10.0201
-9.42709
-8.84875
-8.28622
-7.74051
-7.21268
-6.70408
-6.21633
-5.75112
-5.30988
-4.89346
-4.50214
-4.1356
-3.79306
-3.47339
-3.17535
-2.89773
-2.63945
-2.39962
-2.17747
-1.97228
-1.78336
-1.60994
-1.45117
-1.30613
-1.17381
-1.05318
-0.943201
-0.842855
-0.751186
-0.667319
-0.590469
-0.519952
-0.455178
-0.395644
-0.340927
-0.29067
-0.244578
-0.202403
-0.163939
-0.12901
-0.0974528
-0.0691073
-0.0437963
-0.0213182
-0.00144689
0.0160589
0.0314393
0.0449143
0.0566661
0.0668293
0.0754888
0.0826859
0.0884284
0.0927052
0.0954994
0.0968016
0.0966114
0.0949523
0.0918329
0.0873459
0.081384
0.0744103
0.065361
0.0572877
0.0419983
0.0414174
-0.00854448
-40.1729
-42.2101
-42.83
-42.0997
-40.0842
-37.6021
-35.1024
-32.7154
-30.5096
-28.5341
-26.7972
-25.2759
-23.9417
-22.7687
-21.7326
-20.8113
-19.9852
-19.2372
-18.552
-17.9152
-17.3137
-16.7345
-16.1653
-15.5949
-15.0143
-14.4183
-13.8064
-13.1822
-12.5511
-11.9191
-11.2911
-10.6712
-10.0624
-9.46691
-8.88625
-8.32159
-7.77401
-7.24478
-6.73544
-6.24778
-5.7835
-5.34383
-4.92934
-4.53995
-4.17511
-3.83384
-3.51499
-3.21729
-2.93957
-2.68081
-2.44015
-2.21685
-2.01022
-1.81957
-1.64418
-1.48324
-1.33586
-1.2011
-1.07797
-0.965501
-0.862723
-0.768729
-0.682681
-0.603823
-0.531487
-0.465088
-0.404119
-0.348146
-0.296801
-0.249772
-0.206799
-0.167664
-0.132179
-0.100171
-0.0714681
-0.0458812
-0.0231936
-0.00316272
0.0144689
0.0299564
0.0435324
0.0553881
0.0656625
0.0744406
0.0817613
0.0876294
0.0920315
0.0949494
0.0963734
0.0963027
0.0947602
0.0917519
0.0873673
0.0814948
0.0745903
0.0655803
0.0575348
0.0421978
0.0417565
-0.00877023
-40.4832
-42.1952
-42.7768
-42.0162
-39.9797
-37.5148
-35.0478
-32.6903
-30.5071
-28.5471
-26.8198
-25.3059
-23.9781
-22.8103
-21.7782
-20.8598
-20.036
-19.2899
-18.6065
-17.9718
-17.3724
-16.7956
-16.2287
-15.66
-15.0801
-14.4835
-13.8698
-13.2427
-12.6083
-11.9729
-11.3417
-10.7188
-10.1072
-9.50913
-8.92607
-8.35925
-7.80991
-7.2795
-6.76975
-6.2825
-5.81937
-5.38135
-4.96868
-4.581
-4.2175
-3.87711
-3.55865
-3.26089
-2.98272
-2.72317
-2.48142
-2.25674
-2.04849
-1.856
-1.67857
-1.5154
-1.36567
-1.22847
-1.10288
-0.987948
-0.882775
-0.786491
-0.698291
-0.617443
-0.543291
-0.475255
-0.412825
-0.355559
-0.303077
-0.255057
-0.211229
-0.171368
-0.135278
-0.10278
-0.0736935
-0.0478185
-0.0249235
-0.00474827
0.0129833
0.0285446
0.0421845
0.0541071
0.0644586
0.0733269
0.0807495
0.0867283
0.0912468
0.0942847
0.0958301
0.0958805
0.0944562
0.0915605
0.0872787
0.0814952
0.0746595
0.065693
0.0576758
0.0423137
0.0419768
-0.00894289
-40.7594
-42.1577
-42.7064
-41.913
-39.8586
-37.415
-34.9826
-32.6556
-30.4956
-28.5529
-26.8374
-25.3319
-24.011
-22.8489
-21.8212
-20.9063
-20.0852
-19.3414
-18.6603
-18.028
-17.4313
-16.8574
-16.2933
-15.7269
-15.1482
-14.5513
-13.9358
-13.3059
-12.6682
-12.0293
-11.3948
-10.7688
-10.1543
-9.55354
-8.96805
-8.39914
-7.84823
-7.31696
-6.80715
-6.32061
-5.85878
-5.42236
-5.01131
-4.62499
-4.26242
-3.9225
-3.60402
-3.30584
-3.0269
-2.76629
-2.52322
-2.297
-2.087
-1.89257
-1.71303
-1.54761
-1.39553
-1.25591
-1.12787
-1.01052
-0.902986
-0.804445
-0.714118
-0.631295
-0.55533
-0.485647
-0.421733
-0.363138
-0.309474
-0.260414
-0.21568
-0.175042
-0.138301
-0.105274
-0.0757764
-0.0495977
-0.0264928
-0.00618382
0.0116256
0.0272298
0.0408972
0.0528483
0.0632407
0.0721673
0.0796664
0.0857374
0.0903603
0.0935111
0.0951748
0.0953453
0.0940397
0.091257
0.0870781
0.0813835
0.074616
0.0656969
0.0577067
0.0423432
0.0420689
-0.0090542
-41.0492
-42.1014
-42.6187
-41.79
-39.7206
-37.3015
-34.905
-32.6087
-30.4725
-28.5483
-26.8471
-25.3523
-24.0395
-22.8838
-21.8612
-20.9502
-20.1323
-19.3914
-18.7129
-18.0835
-17.4901
-16.9196
-16.3589
-15.7953
-15.2182
-14.6213
-14.0042
-13.3715
-12.7305
-12.0881
-11.4502
-10.8209
-10.2035
-9.59997
-9.01204
-8.44115
-7.88892
-7.35714
-6.84765
-6.36208
-5.90161
-5.46667
-5.05693
-4.67157
-4.30952
-3.96964
-3.65078
-3.35185
-3.07186
-2.80996
-2.56539
-2.33749
-2.12564
-1.9292
-1.74751
-1.57983
-1.42539
-1.28337
-1.15291
-1.03318
-0.923323
-0.822557
-0.730129
-0.645345
-0.56757
-0.49623
-0.43081
-0.370856
-0.315973
-0.265829
-0.220145
-0.178686
-0.141252
-0.107659
-0.0777194
-0.051216
-0.0278917
-0.00745136
0.0104215
0.0260431
0.0397046
0.0516465
0.0620414
0.0709913
0.0785371
0.0846773
0.0893881
0.0926411
0.0944166
0.094704
0.0935152
0.0908445
0.0867672
0.0811603
0.0744597
0.065591
0.0576253
0.0422847
0.0420273
-0.00909898
-41.3027
-42.0228
-42.5174
-41.6515
-39.5699
-37.1782
-34.8182
-32.5527
-30.4404
-28.535
-26.8491
-25.3662
-24.0624
-22.9139
-21.897
-20.9906
-20.1764
-19.4389
-18.7637
-18.1377
-17.5481
-16.9816
-16.4249
-15.8647
-15.2897
-14.6932
-14.0747
-13.4394
-12.795
-12.1491
-11.5076
-10.8751
-10.2546
-9.64828
-9.05795
-8.48525
-7.93199
-7.40006
-6.8912
-6.40678
-5.94766
-5.51397
-5.10519
-4.72038
-4.35842
-4.0182
-3.69862
-3.39866
-3.11739
-2.85401
-2.6078
-2.37811
-2.16433
-1.96583
-1.78196
-1.61201
-1.45523
-1.31083
-1.17799
-1.05589
-0.943753
-0.840793
-0.746287
-0.659556
-0.579975
-0.506971
-0.440028
-0.378689
-0.322558
-0.271296
-0.224624
-0.182307
-0.144143
-0.109948
-0.0795336
-0.0526784
-0.0291163
-0.00853692
0.00939488
0.0250173
0.0386453
0.0505427
0.0609015
0.0698365
0.0773949
0.0835759
0.088353
0.0916927
0.0935697
0.0939672
0.092891
0.0903291
0.0863507
0.0808291
0.0741931
0.065377
0.0574321
0.0421387
0.0418506
-0.00907438
-41.5083
-41.9301
-42.4028
-41.4955
-39.4054
-37.0445
-34.7219
-32.4871
-30.3992
-28.5134
-26.8436
-25.374
-24.0807
-22.9399
-21.9291
-21.0277
-20.2178
-19.484
-18.8126
-18.1905
-17.6051
-17.0433
-16.4912
-15.935
-15.3627
-14.7669
-14.1472
-13.5092
-12.8615
-12.212
-11.5671
-10.9312
-10.3075
-9.69845
-9.10582
-8.53152
-7.97753
-7.44576
-6.93774
-6.45452
-5.99662
-5.5639
-5.1557
-4.77102
-4.40876
-4.06785
-3.74726
-3.44604
-3.16331
-2.8983
-2.65033
-2.41877
-2.20299
-2.00239
-1.81633
-1.64411
-1.485
-1.33824
-1.20305
-1.07864
-0.96424
-0.859115
-0.762554
-0.673892
-0.592509
-0.517837
-0.44936
-0.386618
-0.329214
-0.27681
-0.229123
-0.185917
-0.146991
-0.11216
-0.0812366
-0.0539973
-0.03017
-0.00943256
0.00856573
0.0241831
0.0377585
0.0495814
0.0598666
0.0687466
0.0762792
0.0824674
0.0872833
0.090689
0.0926526
0.09315
0.0921788
0.0897202
0.0858358
0.0803957
0.0738207
0.0650583
0.0571298
0.0419073
0.0415407
-0.00897965
-41.6656
-41.8176
-42.271
-41.3212
-39.2275
-36.9007
-34.6161
-32.4121
-30.3489
-28.4835
-26.8306
-25.3751
-24.0933
-22.9614
-21.9573
-21.0613
-20.256
-19.5265
-18.8592
-18.2416
-17.661
-17.1043
-16.5574
-16.0059
-15.4368
-14.8421
-14.2214
-13.5809
-12.9298
-12.2767
-11.6282
-10.9889
-10.3622
-9.75045
-9.15574
-8.58013
-8.0257
-7.49429
-6.98718
-6.50508
-6.04815
-5.61606
-5.20805
-4.82312
-4.46022
-4.11832
-3.79648
-3.4938
-3.20945
-2.94271
-2.69289
-2.45937
-2.24156
-2.03884
-1.85058
-1.67609
-1.51467
-1.36557
-1.22806
-1.10136
-0.984746
-0.877487
-0.778894
-0.688316
-0.60514
-0.528799
-0.45878
-0.394625
-0.335933
-0.282368
-0.233645
-0.189527
-0.149812
-0.114315
-0.0828485
-0.0551895
-0.0310629
-0.0101389
0.0079449
0.0235634
0.0370776
0.0488035
0.0589818
0.0677669
0.0752324
0.0813893
0.0862113
0.0896569
0.0916874
0.0922702
0.0913935
0.0890298
0.0852323
0.0798679
0.0733491
0.0646404
0.0567233
0.0415943
0.0411027
-0.00881593
-41.7814
-41.6822
-42.1218
-41.1293
-39.037
-36.7473
-34.5011
-32.3277
-30.2897
-28.4455
-26.8103
-25.3695
-24.0999
-22.9777
-21.9813
-21.0912
-20.291
-19.5661
-18.9033
-18.2905
-17.7151
-17.1641
-16.6232
-16.077
-15.5117
-14.9185
-14.297
-13.6541
-12.9997
-12.3429
-11.6908
-11.0482
-10.4185
-9.80423
-9.20775
-8.63118
-8.07658
-7.54564
-7.03939
-6.55818
-6.10191
-5.67007
-5.26187
-4.87634
-4.51249
-4.16937
-3.84608
-3.54178
-3.25569
-2.98711
-2.73537
-2.49986
-2.27998
-2.07512
-1.88465
-1.7079
-1.54419
-1.39279
-1.25299
-1.12404
-1.00524
-0.895871
-0.795272
-0.702795
-0.617835
-0.53983
-0.468268
-0.402693
-0.342705
-0.287967
-0.238195
-0.193149
-0.152623
-0.116433
-0.0843898
-0.0562744
-0.0318105
-0.0106636
0.00753481
0.0231721
0.0366282
0.0482442
0.0582888
0.0669417
0.0742976
0.0803812
0.0851714
0.0886256
0.0906985
0.0913481
0.0905518
0.0882716
0.0845516
0.0792555
0.0727866
0.0641304
0.0562195
0.041205
0.0405444
-0.00858612
-41.9001
-41.5282
-41.9564
-40.9214
-38.8355
-36.5851
-34.377
-32.234
-30.2215
-28.3992
-26.7824
-25.357
-24.1
-22.9881
-21.9999
-21.1165
-20.3218
-19.602
-18.9442
-18.3366
-17.7669
-17.2222
-16.6878
-16.1476
-15.5867
-14.9956
-14.3737
-13.7284
-13.0706
-12.4102
-11.7546
-11.1086
-10.4761
-9.85965
-9.26178
-8.6846
-8.13008
-7.59966
-7.09409
-6.61348
-6.1575
-5.72555
-5.31682
-4.93039
-4.56533
-4.22078
-3.89587
-3.58984
-3.30192
-3.03143
-2.77772
-2.54017
-2.3182
-2.11119
-1.91851
-1.73952
-1.57353
-1.41986
-1.2778
-1.14663
-1.02567
-0.914235
-0.811654
-0.717297
-0.630566
-0.550904
-0.477803
-0.410808
-0.349521
-0.293605
-0.242775
-0.196789
-0.155436
-0.118529
-0.0858798
-0.0572722
-0.0324314
-0.0110215
0.0073277
0.0230116
0.0364237
0.0479283
0.0578212
0.0663101
0.0735155
0.0794817
0.0841985
0.0876253
0.0897118
0.0904057
0.0896721
0.0874614
0.0838071
0.0785697
0.0721431
0.0635372
0.0556269
0.040746
0.039876
-0.00829468
-41.9724
-41.3542
-41.7779
-40.7004
-38.6256
-36.4161
-34.2455
-32.1325
-30.1458
-28.3459
-26.7481
-25.3386
-24.0946
-22.9933
-22.0138
-21.1375
-20.3488
-19.6342
-18.9817
-18.3796
-17.8161
-17.2782
-16.7509
-16.2175
-15.6618
-15.0732
-14.4511
-13.8036
-13.1425
-12.4785
-11.8192
-11.1701
-10.5348
-9.91653
-9.31765
-8.74023
-8.18596
-7.65603
-7.15094
-6.6706
-6.21456
-5.78215
-5.37257
-4.98498
-4.61852
-4.27237
-3.94573
-3.63786
-3.34803
-3.07557
-2.81985
-2.58024
-2.35616
-2.14699
-1.95212
-1.77089
-1.60266
-1.44674
-1.30245
-1.16911
-1.04603
-0.932547
-0.82801
-0.731794
-0.643309
-0.562002
-0.487368
-0.418957
-0.356372
-0.299278
-0.247386
-0.200452
-0.158259
-0.120617
-0.087336
-0.0582034
-0.0329468
-0.0112322
0.00730889
0.0230753
0.0364674
0.0478701
0.057604
0.0659045
0.0729223
0.0787272
0.0833267
0.0866866
0.0887539
0.0894659
0.0887742
0.086616
0.0830131
0.0778231
0.07143
0.0628707
0.0549555
0.0402251
0.0391097
-0.00794745
-41.9949
-41.166
-41.5853
-40.465
-38.4065
-36.2399
-34.1063
-32.0231
-30.0626
-28.2859
-26.7077
-25.3144
-24.0839
-22.9936
-22.023
-21.1542
-20.3719
-19.663
-19.016
-18.4198
-17.8628
-17.3322
-16.8127
-16.2866
-15.7367
-15.1513
-14.5292
-13.8796
-13.2152
-12.5475
-11.8847
-11.2324
-10.5947
-9.97482
-9.37526
-8.79784
-8.24391
-7.71438
-7.20953
-6.72915
-6.27271
-5.83953
-5.42886
-5.03991
-4.67187
-4.32399
-3.99552
-3.68574
-3.39394
-3.11948
-2.86171
-2.62002
-2.39382
-2.18249
-1.98543
-1.80199
-1.63154
-1.4734
-1.32693
-1.19144
-1.06627
-0.95078
-0.844315
-0.746264
-0.656042
-0.573103
-0.496948
-0.427128
-0.363251
-0.30498
-0.252025
-0.204138
-0.161097
-0.122705
-0.0887717
-0.0590855
-0.0333774
-0.0113174
0.00745946
0.0233501
0.0367538
0.048074
0.0576523
0.06575
0.072549
0.0781512
0.0825883
0.0858395
0.0878515
0.0885523
0.0878785
0.0857532
0.0821854
0.0770296
0.0706598
0.0621425
0.0542166
0.039651
0.0382592
-0.00755134
-41.9652
-40.958
-41.3763
-40.2152
-38.1792
-36.0566
-33.9595
-31.9059
-29.9722
-28.2192
-26.6612
-25.2846
-24.0678
-22.9887
-22.0274
-21.1663
-20.3907
-19.6879
-19.0467
-18.4566
-17.9065
-17.3836
-16.8725
-16.3546
-15.8113
-15.2295
-14.6078
-13.9562
-13.2886
-12.6174
-11.9511
-11.2958
-10.6558
-10.0345
-9.4345
-8.85719
-8.30359
-7.7743
-7.26945
-6.78873
-6.33161
-5.89742
-5.48545
-5.09497
-4.72523
-4.37552
-4.04514
-3.73339
-3.43958
-3.16307
-2.90324
-2.65945
-2.43112
-2.21764
-2.0184
-1.83278
-1.66013
-1.49982
-1.35119
-1.2136
-1.08638
-0.968912
-0.860549
-0.760687
-0.668749
-0.584194
-0.50653
-0.435311
-0.370148
-0.310704
-0.256687
-0.207845
-0.163949
-0.124797
-0.0901944
-0.05993
-0.0337385
-0.0112961
0.00775858
0.0238173
0.0372686
0.0485336
0.0579706
0.0658613
0.0724192
0.0777819
0.0820132
0.0851124
0.087031
0.0876886
0.0870064
0.0848917
0.0813404
0.076204
0.069846
0.0613649
0.0534224
0.0390331
0.0373391
-0.00711406
-41.8925
-40.73
-41.1518
-39.9527
-37.9445
-35.8668
-33.8054
-31.7813
-29.8749
-28.1462
-26.6089
-25.2493
-24.0463
-22.9787
-22.0268
-21.1737
-20.4049
-19.7084
-19.0733
-18.4896
-17.9466
-17.4319
-16.9297
-16.4209
-15.8849
-15.3074
-14.6865
-14.033
-13.3624
-12.6877
-12.0181
-11.36
-10.7181
-10.0957
-9.49527
-8.91805
-8.36465
-7.83541
-7.33031
-6.84901
-6.39098
-5.95558
-5.54215
-5.15
-4.77847
-4.42686
-4.0945
-3.78073
-3.48488
-3.2063
-2.94438
-2.69849
-2.46804
-2.25241
-2.05101
-1.86322
-1.68841
-1.52596
-1.37522
-1.23556
-1.10634
-0.986927
-0.876696
-0.775048
-0.681415
-0.595262
-0.516102
-0.443495
-0.377054
-0.316442
-0.261366
-0.211566
-0.166812
-0.126893
-0.0916066
-0.0607434
-0.034042
-0.0111839
0.00818951
0.0244594
0.0379961
0.0492391
0.0585568
0.0662466
0.07255
0.0776429
0.0816278
0.0845323
0.0863182
0.0868987
0.0861792
0.0840507
0.0804954
0.0753617
0.069003
0.0605508
0.0525856
0.0383812
0.0363648
-0.00664377
-41.8174
-40.4867
-40.9137
-39.6794
-37.7038
-35.6711
-33.6444
-31.6499
-29.7713
-28.0676
-26.5512
-25.2088
-24.0199
-22.9639
-22.0216
-21.1766
-20.4148
-19.7246
-19.0959
-18.5185
-17.9828
-17.4765
-16.9839
-16.4847
-15.957
-15.3844
-14.7647
-14.1097
-13.4361
-12.7581
-12.0856
-11.4251
-10.7815
-10.1582
-9.55737
-8.98011
-8.42673
-7.89732
-7.39176
-6.90969
-6.45056
-6.0138
-5.59879
-5.20489
-4.83147
-4.4779
-4.14352
-3.82769
-3.52977
-3.24911
-2.98509
-2.73709
-2.50452
-2.28676
-2.08323
-1.8933
-1.71637
-1.55181
-1.39901
-1.25732
-1.12613
-1.00481
-0.892742
-0.789336
-0.694029
-0.606295
-0.525653
-0.45167
-0.38396
-0.322185
-0.266051
-0.215295
-0.169679
-0.128986
-0.0930067
-0.0615297
-0.0342961
-0.0109928
0.00873769
0.0252547
0.0389131
0.0501723
0.0594009
0.0669051
0.072951
0.0777518
0.0814548
0.084124
0.0857377
0.0862059
0.0854185
0.0832499
0.0796679
0.0745188
0.0681454
0.0597136
0.0517193
0.0377054
0.0353516
-0.00614877
-41.6948
-40.2278
-40.6642
-39.3966
-37.4581
-35.4701
-33.4772
-31.5124
-29.6621
-27.9838