/*--------------------------------*- C++ -*----------------------------------*\
| =========                 |                                                 |
| \\      /  F ield         | OpenFOAM: The Open Source CFD Toolbox           |
|  \\    /   O peration     | Version:  4.1                                   |
|   \\  /    A nd           | Web:      www.OpenFOAM.org                      |
|    \\/     M anipulation  |                                                 |
\*---------------------------------------------------------------------------*/
FoamFile
{
    version     2.0;
    format      ascii;
    class       surfaceScalarField;
    location    "300";
    object      phi;
}
// * * * * * * * * * * * * * * * * * * * * * * * * * * * * * * * * * * * * * //

dimensions      [0 3 -1 0 0 0 0];

internalField   nonuniform List<scalar> 
52920
(
3151.55
-195.354
3287.07
-135.515
3374.63
-87.5612
3422.58
-47.9503
3442.97
-20.3865
3447.27
-4.30483
3443.67
3.59733
3436.83
6.84139
3428.93
7.90094
3420.62
8.31132
3411.65
8.97215
3401.3
10.3483
3388.7
12.6028
3373
15.692
3353.57
19.4387
3329.98
23.5879
3302.13
27.85
3270.19
31.9366
3234.6
35.5896
3196
38.6053
3155.15
40.8462
3112.91
42.2426
3070.13
42.7808
3027.64
42.487
2986.23
41.4128
2946.6
39.629
2909.37
37.2271
2875.05
34.3187
2844.02
31.0314
2816.52
27.4999
2792.67
23.8568
2772.44
20.2251
2755.73
16.7129
2742.32
13.4104
2731.93
10.3889
2724.23
7.69981
2718.85
5.37473
2715.43
3.42379
2713.6
1.83399
2713.02
0.573874
2713.42
-0.393498
2714.51
-1.09216
2716.01
-1.50228
2717.54
-1.52563
2718.51
-0.969637
2718.09
0.414881
2715.25
2.84466
2708.81
6.43372
2697.64
11.1711
2680.72
16.9259
2657.25
23.4691
2626.74
30.5042
2589.05
37.6973
2544.34
44.7039
2493.15
51.1932
2436.28
56.8687
2374.79
61.4851
2309.93
64.8606
2243.05
66.8817
2175.55
67.5035
2108.8
66.7443
2044.13
64.6791
1982.69
61.4316
1925.53
57.1672
1873.44
52.086
1827.03
46.4151
1786.62
40.4008
1752.33
34.2973
1723.97
28.3554
1701.16
22.809
1683.3
17.8616
1669.63
13.6724
1659.28
10.3448
1651.37
7.91744
1645.01
6.35952
1639.43
5.57308
1634.03
5.40165
1628.39
5.64588
1622.3
6.08426
1615.81
6.49619
1609.12
6.68508
1602.62
6.49874
1596.78
5.84368
1592.08
4.69526
1588.98
3.10556
1587.76
1.21521
1588.53
-0.770348
1591.19
-2.65569
1595.48
-4.29466
1601.07
-5.5874
1607.55
-6.48316
1614.53
-6.97802
1621.64
-7.11037
1628.58
-6.93969
1635.14
-6.56131
1641.14
-6.00098
1646.64
-5.49223
1651.22
-4.57983
1656.08
-4.86461
-2.43044
3236.17
-390.154
3373.1
-272.437
3461.85
-176.312
3510.65
-96.7515
3530.86
-40.6022
3533.34
-6.7757
3526.32
10.6113
3514.98
18.1808
3501.86
21.0194
3487.86
22.3168
3472.92
23.9109
3456.54
26.7278
3438.06
31.0839
3416.86
36.8954
3392.47
43.8277
3364.65
51.4039
3333.42
59.0849
3299.02
66.3362
3261.92
72.6858
3222.76
77.7705
3182.24
81.3598
3141.13
83.353
3100.16
83.7538
3060.01
82.6333
3021.32
80.1017
2984.65
76.298
2950.49
71.3954
2919.2
65.6039
2891.07
59.1633
2866.24
52.3263
2844.76
45.3413
2826.55
38.437
2811.45
31.8124
2799.23
25.631
2789.6
20.0186
2782.23
15.0618
2776.8
10.8068
2772.97
7.25351
2770.46
4.35059
2769.03
2.00185
2768.53
0.108682
2768.79
-1.35378
2769.54
-2.25228
2770.24
-2.23048
2770.02
-0.748947
2767.7
2.73577
2761.95
8.59432
2751.44
16.9434
2735
27.6131
2711.75
40.1743
2681.2
54.0178
2643.26
68.444
2598.22
82.7393
2546.7
96.2271
2489.59
108.302
2428.01
118.453
2363.21
126.279
2296.57
131.5
2229.49
133.961
2163.36
133.632
2099.51
130.598
2039.13
125.056
1983.27
117.298
1932.73
107.707
1888.08
96.7381
1849.59
84.9015
1817.25
72.7365
1790.77
60.7805
1769.59
49.5354
1752.97
39.4333
1740.02
30.8064
1729.83
23.8636
1721.5
18.6789
1714.22
15.1904
1707.37
13.2126
1700.49
12.4571
1693.33
12.5621
1685.84
13.1272
1678.18
13.7512
1670.6
14.0704
1663.5
13.7935
1657.26
12.7301
1652.3
10.8068
1648.92
8.07182
1647.34
4.69222
1647.6
0.952196
1649.62
-2.79047
1653.17
-6.19993
1657.89
-9.02444
1663.42
-11.1105
1669.34
-12.4041
1675.3
-12.9371
1681
-12.8115
1686.22
-12.1589
1690.82
-11.1605
1694.7
-9.8803
1697.89
-8.68627
1700.22
-6.9098
1702.2
-6.84617
-2.76274
3250.24
-588.443
3392.61
-414.806
3487.55
-271.253
3542.5
-151.705
3567.52
-65.6162
3572.45
-11.7145
3565.56
17.5078
3552.47
31.2682
3536.18
37.3102
3517.93
40.5656
3497.99
43.8512
3476.16
48.5583
3452.1
55.148
3425.5
63.4945
3396.2
73.1224
3364.24
83.3701
3329.82
93.5046
3293.34
102.815
3255.33
110.694
3216.4
116.698
3177.19
120.571
3138.31
122.238
3100.31
121.751
3063.7
119.238
3028.95
114.86
2996.44
108.808
2966.51
101.318
2939.44
92.6777
2915.38
83.2264
2894.38
73.3259
2876.39
63.3338
2861.24
53.5778
2848.72
44.3381
2838.51
35.8376
2830.29
28.2375
2823.72
21.6363
2818.46
16.0676
2814.22
11.4906
2810.79
7.78256
2808.04
4.75549
2805.91
2.23208
2804.36
0.197504
2803.14
-1.02855
2801.64
-0.72814
2798.84
2.04395
2793.43
8.15051
2783.89
18.1353
2768.74
32.0881
2746.77
49.5845
2717.19
69.7545
2679.76
91.452
2634.76
113.443
2582.94
134.556
2525.4
153.768
2463.46
170.24
2398.58
183.329
2332.28
192.58
2266.07
197.717
2201.38
198.647
2139.57
195.443
2081.82
188.347
2029.11
177.763
1982.17
164.238
1941.43
148.451
1906.99
131.178
1878.64
113.25
1855.88
95.5029
1837.94
78.7168
1823.91
63.5604
1812.81
50.5425
1803.63
39.9787
1795.52
31.9772
1787.75
26.4448
1779.83
23.1119
1771.48
21.5694
1762.62
21.314
1753.38
21.7967
1744.04
22.4719
1734.95
22.8444
1726.5
22.5126
1719.1
21.2015
1713.04
18.7846
1708.56
15.288
1705.76
10.8751
1704.63
5.81948
1705.09
0.488186
1706.98
-4.67693
1710.03
-9.24881
1713.92
-12.9149
1718.31
-15.5021
1722.88
-16.9688
1727.32
-17.3815
1731.4
-16.8912
1734.92
-15.6832
1737.76
-13.997
1739.82
-11.939
1741.06
-9.92374
1741.44
-7.28829
1740.88
-6.2889
-1.04033
3216.51
-790.699
3364.86
-563.157
3467.67
-374.057
3531.47
-215.504
3564.67
-98.8221
3575.66
-22.7006
3572.22
20.9459
3560.38
43.1103
3543.57
54.1154
3523.44
60.6957
3500.6
66.6938
3475.18
73.9828
3447.16
83.1666
3416.58
94.0745
3383.6
106.097
3348.56
118.414
3311.92
130.146
3274.25
140.478
3236.2
148.752
3198.36
154.537
3161.29
157.635
3125.48
158.051
3091.31
155.919
3059.12
151.432
3029.18
144.796
3001.75
136.241
2977.01
126.056
2955.08
114.606
2935.98
102.332
2919.6
89.707
2905.74
77.1934
2894.11
65.2049
2884.37
54.0783
2876.15
44.0606
2869.08
35.3084
2862.82
27.89
2857.11
21.7847
2851.73
16.8711
2846.59
12.9188
2841.72
9.62789
2837.18
6.7687
2832.95
4.42822
2828.69
3.23449
2823.62
4.33847
2816.58
9.08404
2806.13
18.6056
2790.72
33.5433
2768.96
53.8482
2739.82
78.7203
2702.83
106.744
2658.12
136.163
2606.4
165.17
2548.82
192.135
2486.86
215.727
2422.16
234.94
2356.4
249.084
2291.24
257.745
2228.19
260.76
2168.65
258.195
2113.75
250.34
2064.4
237.698
2021.18
220.976
1984.37
201.056
1953.86
178.961
1929.24
155.793
1909.83
132.662
1894.72
110.609
1882.91
90.5291
1873.36
73.1138
1865.1
58.8034
1857.3
47.7716
1849.35
39.9316
1840.82
34.9681
1831.55
32.385
1821.56
31.565
1811.04
31.8321
1800.32
32.5139
1789.79
32.9981
1779.86
32.781
1770.87
31.5053
1763.09
28.9808
1756.68
25.1876
1751.71
20.2623
1748.12
14.4601
1745.84
8.10511
1744.76
1.56301
1744.81
-4.7226
1745.84
-10.277
1747.66
-14.737
1750.06
-17.899
1752.8
-19.7078
1755.64
-20.229
1758.37
-19.623
1760.78
-18.0932
1762.69
-15.9026
1763.94
-13.1897
1764.38
-10.3669
1763.96
-6.8659
1762.36
-4.68999
1.75174
3152.96
-990.366
3303.47
-713.663
3412.55
-483.138
3485.38
-288.336
3528.38
-141.824
3547.83
-42.1437
3550.39
18.3792
3542.2
51.3039
3527.16
69.1565
3507.37
80.4845
3483.85
90.2163
3457.08
100.754
3427.37
112.874
3395.07
126.377
3360.63
140.539
3324.64
154.403
3287.79
166.991
3250.82
177.445
3214.43
185.143
3179.23
189.743
3145.69
191.178
3114.15
189.583
3084.87
185.201
3058
178.3
3033.66
169.135
3011.92
157.981
2992.79
145.185
2976.2
131.202
2961.96
116.57
2949.81
101.861
2939.39
87.6143
2930.31
74.2843
2922.18
62.2106
2914.63
51.6103
2907.35
42.5878
2900.09
35.1455
2892.7
29.1797
2885.11
24.4596
2877.4
20.6267
2869.74
17.2895
2862.24
14.2636
2854.78
11.8885
2846.81
11.2056
2837.34
13.8079
2825.03
21.4017
2808.31
35.3166
2785.72
56.1376
2756.08
83.4873
2718.78
116.025
2673.83
151.692
2621.89
188.099
2564.14
222.917
2502.13
254.147
2437.61
280.253
2372.37
300.174
2308.18
313.279
2246.62
319.306
2189.07
318.306
2136.65
310.62
2090.14
296.85
2049.99
277.85
2016.28
254.684
1988.75
228.586
1966.82
200.883
1949.7
172.915
1936.42
145.946
1925.95
121.078
1917.3
99.1828
1909.56
80.853
1901.98
66.3762
1894.02
55.7364
1885.31
48.6408
1875.71
44.5679
1865.26
42.8331
1854.16
42.6626
1842.73
43.2692
1831.32
43.9215
1820.32
44.0031
1810.04
43.055
1800.74
40.8016
1792.57
37.1534
1785.57
32.1907
1779.7
26.1335
1774.87
19.2897
1770.98
11.9963
1767.96
4.57586
1765.83
-2.59216
1764.59
-9.03372
1764.19
-14.3326
1764.52
-18.2326
1765.45
-20.6356
1766.79
-21.5729
1768.35
-21.18
1769.9
-19.6456
1771.22
-17.2238
1772.1
-14.0641
1772.28
-10.5529
1771.63
-6.21371
1769.82
-2.87738
4.96329
3063.28
-1188.73
3216.24
-866.617
3329.6
-596.502
3408.57
-367.308
3459.14
-192.395
3486.49
-69.4886
3496
8.86748
3493.19
54.118
3482.08
80.2616
3465.09
97.4713
3443.58
111.731
3418.34
125.996
3389.96
141.249
3359.04
157.295
3326.27
173.318
3292.41
188.259
3258.32
201.079
3224.82
210.946
3192.63
217.339
3162.28
220.085
3134.16
219.304
3108.44
215.303
3085.18
208.455
3064.37
199.113
3045.92
187.586
3029.71
174.194
3015.55
159.337
3003.22
143.537
2992.39
127.402
2982.7
111.554
2973.76
96.5509
2965.21
82.8305
2956.74
70.6838
2948.09
60.2628
2939.07
51.6033
2929.58
44.6376
2919.59
39.1718
2909.19
34.8551
2898.6
31.2178
2888.03
27.8603
2877.52
24.7776
2866.73
22.6765
2854.87
23.067
2840.69
27.9894
2822.63
39.4541
2799.11
58.84
2768.79
86.4623
2730.88
121.391
2685.33
161.576
2632.78
204.246
2574.46
246.419
2512.02
285.356
2447.32
318.845
2382.27
345.306
2318.67
363.768
2258.16
373.793
2202.09
375.38
2151.49
368.903
2107.05
355.058
2069.08
334.825
2037.5
309.426
2011.92
280.264
1991.66
248.844
1975.86
216.687
1963.54
185.235
1953.72
155.768
1945.46
129.334
1937.95
106.693
1930.51
88.2894
1922.65
74.24
1914.04
64.3489
1904.53
58.1452
1894.16
54.9427
1883.07
53.9174
1871.54
54.1924
1859.89
54.922
1848.45
55.364
1837.52
54.9351
1827.33
53.2436
1818.03
50.1002
1809.68
45.5045
1802.25
39.6143
1795.69
32.7026
1789.87
25.1036
1784.72
17.1525
1780.16
9.12984
1776.25
1.32244
1773.07
-5.86161
1770.72
-11.9783
1769.19
-16.7048
1768.44
-19.879
1768.34
-21.4746
1768.73
-21.5753
1769.41
-20.3274
1770.14
-17.948
1770.64
-14.5699
1770.63
-10.5387
1769.85
-5.43032
1768.04
-1.0735
8.34005
2988.56
-1384.19
3140.52
-1018.58
3254.59
-710.574
3336.36
-449.08
3391.48
-247.516
3424.1
-102.102
3438.41
-5.44899
3439.46
53.069
3431.42
88.2983
3416.93
111.97
3397.54
131.113
3374.31
149.233
3348.03
167.523
3319.52
185.806
3289.64
203.199
3259.31
218.591
3229.43
230.955
3200.82
239.564
3174.07
244.087
3149.57
244.582
3127.48
241.392
3107.78
235.007
3090.31
225.924
3074.86
214.564
3061.18
201.264
3049.02
186.358
3038.09
170.268
3028.08
153.539
3018.68
136.804
3009.55
120.688
3000.37
105.726
2990.9
92.3042
2980.93
80.6499
2970.34
70.8515
2959.06
62.8872
2947.08
56.6207
2934.49
51.7593
2921.51
47.8384
2908.39
44.3336
2895.31
40.9439
2882.12
37.9652
2868.23
36.5699
2852.51
38.7838
2833.44
47.0638
2809.3
63.5902
2778.57
89.565
2740.27
124.771
2694.15
167.503
2640.85
214.884
2581.65
263.437
2518.37
309.706
2453
350.721
2387.59
384.256
2324.03
408.872
2263.95
423.848
2208.68
429.062
2159.18
424.878
2116.03
412.057
2079.4
391.686
2049.11
365.113
2024.66
333.873
2005.32
299.609
1990.18
263.979
1978.31
228.565
1968.74
194.798
1960.63
163.881
1953.22
136.746
1945.9
114.015
1938.21
95.9782
1929.85
82.5974
1920.68
73.5231
1910.68
68.1413
1899.98
65.6419
1888.79
65.1061
1877.38
65.5989
1866.05
66.2565
1855.06
66.3579
1844.62
65.3719
1834.89
62.9785
1825.92
59.0658
1817.72
53.7044
1810.23
47.1063
1803.35
39.5754
1797
31.455
1791.09
23.0694
1785.54
14.674
1780.38
6.48058
1775.74
-1.21917
1771.78
-8.02122
1768.63
-13.5488
1766.31
-17.5634
1764.8
-19.9638
1763.99
-20.7617
1763.7
-20.0361
1763.69
-17.9409
1763.68
-14.5619
1763.33
-10.1914
1762.32
-4.41282
1760.45
0.789031
11.8665
2912.73
-1575.66
3062.54
-1168.39
3176.36
-824.387
3260.11
-532.832
3319.17
-306.578
3356.9
-139.83
3376.33
-24.8838
3381.75
47.6512
3377.37
92.6734
3366.05
123.293
3349.59
147.573
3329.24
169.589
3306
190.763
3280.85
210.952
3254.8
229.245
3228.86
244.533
3203.93
255.888
3180.71
262.781
3159.65
265.144
3140.93
263.308
3124.47
257.851
3110.05
249.427
3097.35
238.625
3086.02
225.895
3075.71
211.567
3066.12
195.951
3056.94
179.451
3047.87
162.605
3038.64
146.031
3029
130.331
3018.74
115.991
3007.7
103.339
2995.81
92.5397
2983.03
83.6335
2969.37
76.5463
2954.93
71.0639
2939.9
66.7866
2924.58
63.1626
2909.22
59.6926
2893.87
56.2952
2878.14
53.6956
2861.08
53.6261
2841.22
58.6446
2816.76
71.5225
2785.96
94.386
2747.57
127.961
2701.12
171.217
2647.13
221.501
2586.92
275.085
2522.46
327.904
2455.94
376.225
2389.58
417.083
2325.38
448.45
2265.04
469.208
2209.87
479.022
2160.75
478.181
2118.16
467.466
2082.18
448.037
2052.53
421.336
2028.64
389.004
2009.73
352.789
1994.88
314.452
1983.17
275.688
1973.69
238.045
1965.63
202.865
1958.27
171.234
1951.07
143.95
1943.59
121.494
1935.55
104.017
1926.8
91.3461
1917.32
83.0043
1907.2
78.268
1896.6
76.2411
1885.75
75.9489
1874.92
76.4358
1864.32
76.8511
1854.16
76.5154
1844.58
74.9578
1835.63
71.9266
1827.32
67.3746
1819.6
61.4245
1812.39
54.3224
1805.57
46.3867
1799.07
37.9555
1792.81
29.3358
1786.72
20.7636
1780.79
12.4098
1775.11
4.46025
1769.88
-2.79403
1765.32
-8.98661
1761.56
-13.8068
1758.67
-17.0664
1756.59
-18.6875
1755.21
-18.6589
1754.32
-17.0453
1753.61
-13.855
1752.74
-9.31504
1751.3
-2.9797
1749.2
2.88977
15.6364
2835.16
-1761.03
2980.76
-1313.98
3093.2
-936.831
3178.56
-618.185
3241.51
-369.536
3284.55
-182.863
3309.55
-49.8878
3319.94
37.2607
3319.91
92.7007
3312.53
130.678
3299.83
160.273
3283.25
186.165
3263.97
210.041
3243.1
231.826
3221.72
250.629
3200.84
265.414
3181.29
275.433
3163.64
280.427
3148.15
280.64
3134.77
276.69
3123.25
269.37
3113.21
259.465
3104.22
247.615
3095.85
234.263
3087.72
219.695
3079.51
204.167
3070.93
188.032
3061.75
171.788
3051.76
156.013
3040.83
141.262
3028.86
127.963
3015.81
116.387
3001.7
106.658
2986.55
98.7793
2970.47
92.6257
2953.64
87.8952
2936.34
84.0858
2918.9
80.6066
2901.51
77.0814
2884.02
73.7796
2865.74
71.9834
2845.31
74.0566
2820.9
83.0512
2790.55
101.873
2752.64
132.291
2706.39
174.217
2652.06
225.549
2590.96
282.599
2525.16
340.88
2457.11
395.954
2389.26
444.081
2323.79
482.55
2262.5
509.736
2206.72
524.989
2157.3
528.444
2114.64
520.842
2078.73
503.374
2049.22
477.548
2025.48
445.082
2006.68
407.805
1991.91
367.561
1980.23
326.13
1970.76
285.157
1962.71
246.094
1955.41
210.163
1948.33
178.317
1941.06
151.217
1933.34
129.214
1925.02
112.335
1916.08
100.29
1906.58
92.5042
1896.67
88.1754
1886.56
86.3563
1876.45
86.0527
1866.57
86.3198
1857.08
86.3441
1848.09
85.5008
1839.67
83.3817
1831.8
79.7959
1824.43
74.7462
1817.46
68.3898
1810.79
60.9892
1804.32
52.8613
1797.95
44.328
1791.61
35.6721
1785.27
27.1058
1778.9
18.7746
1772.56
10.8065
1766.39
3.3755
1760.65
-3.24974
1755.59
-8.74372
1751.35
-12.8296
1747.99
-15.3242
1745.43
-16.1035
1743.5
-15.1153
1741.91
-12.2603
1740.28
-7.69088
1738.22
-0.913911
1735.65
5.45872
19.8044
2751.06
-1934.55
2890.03
-1452.95
2999.9
-1046.7
3086.26
-704.547
3153.4
-436.68
3202.95
-232.407
3235.29
-82.233
3252.47
20.0821
3258.31
86.865
3256.12
132.866
3248.26
168.134
3236.42
198.009
3221.95
224.511
3206.07
247.699
3189.93
266.773
3174.49
280.852
3160.48
289.444
3148.29
292.62
3137.97
290.957
3129.32
285.345
3121.93
276.761
3115.31
266.079
3108.97
253.953
3102.45
240.783
3095.37
226.776
3087.44
212.098
3078.45
197.02
3068.27
181.975
3056.8
167.483
3044.02
154.041
3029.95
142.026
3014.67
131.673
2998.24
123.085
2980.78
116.243
2962.44
110.965
2943.47
106.858
2924.22
103.342
2904.97
99.8564
2885.79
96.2641
2866.24
93.3228
2845.25
92.9793
2821.06
98.2475
2791.56
112.55
2754.78
138.654
2709.45
177.615
2655.46
228.205
2593.93
287.085
2526.96
349.564
2457.24
410.606
2387.5
465.696
2320.2
511.377
2257.32
545.426
2200.28
566.782
2149.92
575.344
2106.62
571.75
2070.29
557.173
2040.51
533.154
2016.59
501.464
1997.68
463.992
1982.83
422.649
1971.11
379.284
1961.62
335.617
1953.59
293.191
1946.35
253.331
1939.39
217.123
1932.32
185.385
1924.89
158.651
1916.96
137.148
1908.49
120.795
1899.58
109.208
1890.34
101.737
1880.99
97.5338
1871.71
95.6352
1862.7
95.0608
1854.11
94.905
1846.05
94.4105
1838.53
93.0156
1831.54
90.3727
1825
86.3409
1818.78
80.9572
1812.78
74.3954
1806.85
66.9166
1800.89
58.8211
1794.82
50.4034
1788.58
41.9137
1782.15
33.5353
1775.53
25.3887
1768.77
17.5683
1761.96
10.1825
1755.32
3.39026
1749.14
-2.55759
1743.66
-7.34808
1739.02
-10.687
1735.23
-12.3132
1732.14
-12.0281
1729.48
-9.59607
1726.88
-5.09599
1723.96
2.01184
1720.67
8.73991
24.5478
2661.63
-2106.14
2798.84
-1590.16
2906.04
-1153.91
2990.19
-788.697
3056.75
-503.24
3108.2
-283.855
3145.16
-119.193
3168.71
-3.4686
3181.48
74.1017
3186.32
128.025
3185.44
169.012
3180.5
202.951
3172.85
232.16
3163.71
256.84
3154.18
276.306
3145.15
289.881
3137.22
297.372
3130.63
299.204
3125.31
296.28
3120.92
289.738
3116.98
280.7
3112.97
270.091
3108.38
258.542
3102.79
246.375
3095.87
233.687
3087.45
220.525
3077.41
207.059
3065.74
193.64
3052.5
180.73
3037.76
168.779
3021.65
158.136
3004.3
149.024
2985.84
141.547
2966.41
135.665
2946.25
131.133
2925.63
127.472
2904.91
124.068
2884.27
120.493
2863.54
116.992
2841.92
114.947
2817.86
117.035
2789.27
126.841
2753.91
147.911
2710.06
182.505
2657.08
230.588
2595.73
289.554
2528.01
354.807
2456.73
420.849
2384.93
482.408
2315.4
535.221
2250.4
576.38
2191.5
604.326
2139.63
618.649
2095.15
619.823
2057.95
608.956
2027.54
587.585
2003.18
557.513
1983.97
520.673
1968.93
479.026
1957.11
434.476
1947.59
388.804
1939.58
343.624
1932.42
300.346
1925.6
260.156
1918.72
224.001
1911.54
192.568
1903.92
166.267
1895.86
145.217
1887.41
129.24
1878.74
117.876
1870.05
110.43
1861.54
106.039
1853.42
103.759
1845.83
102.654
1838.85
101.886
1832.49
100.768
1826.7
98.8075
1821.36
95.711
1816.33
91.3745
1811.43
85.8514
1806.51
79.3121
1801.43
71.9978
1796.08
64.1765
1790.38
56.1034
1784.3
47.9886
1777.86
39.9801
1771.08
32.171
1764.02
24.6267
1756.78
17.4185
1749.52
10.6484
1742.48
4.48342
1735.94
-0.806892
1730.12
-4.86479
1725.09
-7.2826
1720.75
-7.68792
1716.84
-5.68796
1713.06
-1.31179
1709.05
6.01609
1704.82
12.97
30.048
2589.35
-2274.07
2722.87
-1723.68
2826.91
-1257.94
2909.23
-871.02
2975.47
-569.476
3028.08
-336.473
3067.57
-158.682
3094.53
-30.4231
3111.18
57.4458
3120.42
118.784
3124.45
164.986
3124.88
202.524
3122.98
234.056
3119.85
259.968
3116.41
279.746
3113.34
292.953
3111
299.711
3109.44
300.769
3108.41
297.311
3107.49
290.659
3106.17
282.02
3103.93
272.325
3100.33
262.145
3095.01
251.697
3087.75
240.947
3078.47
229.807
3067.19
218.334
3054.03
206.804
3039.13
195.63
3022.67
185.236
3004.84
175.967
2985.8
168.061
2965.73
161.626
2944.8
156.59
2923.3
152.636
2901.55
149.221
2879.84
145.777
2858.18
142.152
2836.03
139.137
2812.12
138.864
2784.43
144.725
2750.6
160.672
2708.52
189.99
2657.04
233.986
2596.43
291.199
2528.42
357.556
2455.86
427.376
2382.01
494.697
2310.03
554.39
2242.49
602.754
2181.24
637.633
2127.34
658.228
2081.2
664.791
2042.69
658.328
2011.3
640.345
1986.24
612.649
1966.55
577.204
1951.21
536.009
1939.23
491.011
1929.66
444.041
1921.7
396.768
1914.65
350.667
1908
307.005
1901.33
266.826
1894.39
230.94
1887.05
199.909
1879.28
174.028
1871.19
153.312
1862.93
137.501
1854.72
126.081
1846.82
118.337
1839.43
113.425
1832.74
110.452
1826.83
108.565
1821.7
107.011
1817.28
105.192
1813.4
102.683
1809.88
99.2394
1806.47
94.7764
1802.98
89.343
1799.21
83.0842
1795.01
76.2009
1790.27
68.9124
1784.95
61.4224
1779.05
53.8935
1772.59
46.4346
1765.66
39.108
1758.33
31.9515
1750.74
25.0056
1743.05
18.3427
1735.44
12.0949
1728.13
6.50014
1721.33
1.93726
1715.13
-1.08193
1709.47
-2.03037
1704.17
-0.387377
1699.02
3.83358
1693.77
11.2723
1688.39
18.3487
36.4655
2515.36
-2436.62
2643.94
-1852.26
2744.53
-1358.52
2825.46
-951.95
2892.19
-636.207
2946.99
-391.281
2990.31
-201.995
3022.1
-62.2188
3043.76
35.7872
3057.93
104.615
3066.85
156.064
3072.23
197.147
3075.39
230.895
3077.4
257.955
3079.08
278.074
3080.91
291.118
3083.08
297.542
3085.45
298.399
3087.67
295.093
3089.26
289.071
3089.7
281.574
3088.53
273.497
3085.34
265.332
3079.87
257.174
3071.97
248.841
3061.68
240.099
3049.13
230.89
3034.52
221.415
3018.09
212.052
3000.1
203.225
2980.77
195.299
2960.29
188.539
2938.87
183.05
2916.75
178.712
2894.25
175.134
2871.71
171.755
2849.32
168.176
2826.78
164.687
2803.11
162.806
2776.49
165.487
2744.48
176.73
2704.64
200.516
2655.25
239.381
2596.02
293.218
2528.3
358.914
2454.84
431.021
2379.1
503.118
2304.57
569.224
2234.22
624.735
2170.21
666.766
2113.82
694.025
2065.57
706.481
2025.36
705
1992.65
691.032
1966.62
666.378
1946.26
633.014
1930.49
592.967
1918.28
548.22
1908.65
500.642
1900.74
451.948
1893.85
403.663
1887.4
357.115
1880.98
313.423
1874.32
273.494
1867.25
238.006
1859.76
207.402
1851.92
181.864
1843.92
161.315
1835.99
145.423
1828.43
133.639
1821.52
125.256
1815.46
119.48
1810.4
115.508
1806.38
112.594
1803.29
110.101
1800.95
107.529
1799.11
104.522
1797.48
100.872
1795.76
96.4955
1793.69
91.4126
1791.05
85.7186
1787.7
79.5521
1783.55
73.066
1778.57
66.4012
1772.8
59.6669
1766.3
52.93
1759.19
46.2211
1751.59
39.5503
1743.66
32.9325
1735.58
26.4224
1727.53
20.1521
1719.64
14.3837
1712.04
9.53491
1704.79
6.17179
1697.86
4.89701
1691.19
6.29015
1684.66
10.3568
1678.09
17.8425
1671.45
24.9902
43.9108
2438.72
-2591.12
2560.33
-1973.88
2656.72
-1454.91
2736.4
-1031.63
2804.24
-704.049
2861.94
-448.974
2909.63
-249.69
2946.92
-99.5081
2974.43
8.27865
2994.28
84.7644
3008.67
141.671
3019.34
186.48
3027.63
222.608
3034.57
251.012
3040.89
271.752
3046.97
285.038
3052.86
291.658
3058.32
292.937
3062.95
290.458
3066.28
285.746
3067.81
280.044
3067.11
274.194
3063.85
268.589
3057.84
263.193
3049.01
257.661
3037.51
251.602
3023.57
244.834
3007.49
237.493
2989.6
229.944
2970.19
222.635
2949.51
215.977
2927.79
210.265
2905.24
205.591
2882.19
201.769
2858.98
198.346
2835.91
194.823
2812.97
191.114
2789.51
188.145
2764.02
188.302
2734.13
195.37
2697.13
213.731
2650.71
246.938
2593.85
296.241
2527.33
359.735
2453.65
432.597
2376.39
508.283
2299.4
580.108
2226.09
642.533
2159.01
691.814
2099.74
726.037
2048.96
744.801
2006.66
748.782
1972.31
739.356
1945.03
718.307
1923.79
687.621
1907.46
649.344
1894.94
605.488
1885.2
557.953
1877.36
508.487
1870.65
458.659
1864.47
409.843
1858.37
363.216
1852.04
319.755
1845.29
280.235
1838.09
245.21
1830.49
215.005
1822.66
189.696
1814.85
169.118
1807.4
152.88
1800.62
140.416
1794.82
131.052
1790.23
124.077
1786.93
118.809
1784.88
114.642
1783.9
111.076
1783.71
107.72
1783.94
104.29
1784.22
100.599
1784.17
96.5461
1783.48
92.0956
1781.94
87.2665
1779.38
82.1119
1775.74
76.7008
1771.04
71.1004
1765.35
65.3608
1758.77
59.5052
1751.46
53.532
1743.58
47.428
1735.32
41.1956
1726.85
34.8933
1718.32
28.6787
1709.85
22.8541
1701.51
17.8799
1693.32
14.3581
1685.3
12.9146
1677.44
14.1583
1669.66
18.1316
1661.83
25.6717
1653.92
32.9038
52.4264
2356.59
-2733.25
2471.13
-2088.42
2563.1
-1546.88
2640.46
-1108.99
2708.29
-771.882
2768.43
-509.117
2820.93
-302.191
2864.83
-143.409
2899.58
-26.4663
2926.29
58.0517
2947.03
120.937
2963.56
169.947
2977.28
208.891
2989.19
239.101
2999.94
261.002
3009.82
275.161
3018.79
282.679
3026.62
285.108
3032.92
284.162
3037.25
281.413
3039.21
278.085
3038.44
274.96
3034.7
272.333
3027.86
270.031
3017.98
267.544
3005.26
264.318
2990.05
260.051
2972.71
254.827
2953.63
249.022
2933.13
243.139
2911.46
237.651
2888.84
232.88
2865.55
228.886
2841.91
225.408
2818.28
221.969
2794.87
218.235
2771.38
214.605
2746.71
212.816
2718.8
216.215
2684.86
229.306
2642.11
256.483
2588.71
300.337
2524.62
360.335
2451.79
432.559
2373.75
510.635
2294.66
587.374
2218.43
656.345
2148.09
712.867
2085.63
754.281
2031.96
779.701
1987.21
789.555
1950.87
785.118
1922.08
768.15
1899.74
740.647
1882.68
704.68
1869.74
662.28
1859.85
615.377
1852.06
565.746
1845.56
514.989
1839.7
464.516
1834
415.549
1828.09
369.122
1821.77
326.079
1814.93
287.067
1807.62
252.523
1799.97
222.656
1792.23
197.441
1784.72
176.629
1777.81
159.783
1771.89
146.338
1767.27
135.675
1764.15
127.193
1762.6
120.358
1762.51
114.734
1763.61
109.976
1765.51
105.817
1767.76
102.046
1769.87
98.4876
1771.42
94.999
1772.05
91.4652
1771.51
87.8007
1769.68
83.949
1766.5
79.8779
1762.03
75.57
1756.38
71.0105
1749.71
66.1768
1742.2
61.0388
1734.06
55.5715
1725.47
49.7825
1716.61
43.7528
1707.61
37.6761
1698.57
31.8957
1689.54
26.9085
1680.56
23.345
1671.62
21.8498
1662.72
23.055
1653.82
27.033
1644.82
34.6758
1635.68
42.0463
62.0056
2273.65
-2877
2387.3
-2202.07
2475.88
-1635.46
2549.1
-1182.2
2613.12
-835.908
2670.66
-566.649
2722.65
-354.185
2768.93
-189.691
2808.78
-66.3111
2842.1
24.7255
2869.91
93.1268
2893.42
146.44
2913.66
188.65
2931.42
221.346
2947.18
245.237
2961.18
261.162
2973.41
270.453
2983.69
274.829
2991.75
276.101
2997.28
275.881
2999.98
275.388
2999.58
275.363
2995.89
276.023
2988.85
277.065
2978.58
277.815
2965.35
277.547
2949.56
275.843
2931.65
272.742
2912.01
268.656
2890.99
264.162
2868.84
259.801
2845.81
255.909
2822.2
252.496
2798.37
249.242
2774.61
245.725
2750.92
241.927
2726.61
238.918
2700.04
239.382
2668.67
247.588
2629.5
268.472
2580.06
305.93
2519.35
361.04
2448.54
431.145
2370.75
510.354
2290.24
591.148
2211.37
666.239
2137.77
729.945
2071.9
778.738
2015.04
811.138
1967.5
827.243
1928.87
828.189
1898.28
815.709
1874.61
791.818
1856.64
758.613
1843.17
718.156
1833.05
672.401
1825.27
623.151
1818.99
572.029
1813.5
520.479
1808.26
469.755
1802.87
420.934
1797.08
374.915
1790.74
332.417
1783.84
293.969
1776.47
259.892
1768.84
230.283
1761.26
205.021
1754.11
183.781
1747.8
166.091
1742.74
151.403
1739.24
139.171
1737.51
128.922
1737.58
120.294
1739.28
113.036
1742.27
106.981
1746.09
101.999
1750.18
97.953
1753.99
94.6767
1757.02
91.9695
1758.88
89.6122
1759.29
87.3894
1758.12
85.1116
1755.38
82.6266
1751.13
79.8204
1745.53
76.607
1738.79
72.9189
1731.12
68.7043
1722.75
63.9385
1713.89
58.6486
1704.69
52.9494
1695.29
47.0775
1685.77
41.4194
1676.17
36.5099
1666.5
33.008
1656.78
31.577
1646.97
32.8637
1637.04
36.9602
1626.94
44.7734
1616.63
52.3554
72.6107
2203.09
-3017.31
2312.48
-2311.46
2397.3
-1720.28
2467.89
-1252.8
2530.12
-898.133
2586.43
-622.962
2637.91
-405.667
2684.75
-236.533
2726.44
-107.996
2762.66
-11.4973
2794.07
61.7198
2821.66
118.846
2846.22
164.095
2868.23
199.336
2887.94
225.519
2905.44
243.67
2920.63
255.256
2933.37
262.092
2943.42
266.051
2950.53
268.773
2954.44
271.48
2954.92
274.883
2951.81
279.126
2945.1
283.777
2934.93
287.983
2921.64
290.837
2905.69
291.793
2887.57
290.866
2867.71
288.519
2846.45
285.415
2824.1
282.153
2800.94
279.069
2777.32
276.121
2753.57
272.991
2729.84
269.449
2705.77
266.002
2680.11
264.574
2650.66
268.836
2614.49
283.758
2568.75
314.206
2511.72
362.96
2443.65
429.108
2367.01
507.792
2285.87
591.496
2204.87
672.141
2128.19
742.926
2058.84
799.291
1998.56
839.012
1947.95
861.756
1906.72
868.471
1874.06
860.852
1848.82
840.94
1829.76
810.879
1815.6
772.772
1805.15
728.607
1797.34
680.21
1791.26
629.23
1786.16
577.132
1781.44
525.197
1776.66
474.534
1771.51
426.085
1765.8
380.625
1759.47
338.757
1752.54
300.896
1745.18
267.25
1737.65
237.812
1730.3
212.367
1723.56
190.529
1717.84
171.805
1713.57
155.674
1711.06
141.678
1710.51
129.48
1711.9
118.895
1715.07
109.869
1719.63
102.422
1725.06
96.5738
1730.73
92.2764
1736.04
89.3743
1740.4
87.604
1743.39
86.626
1744.7
86.0737
1744.21
85.6016
1741.92
84.9185
1737.94
83.7996
1732.47
82.0815
1725.73
79.6518
1717.99
76.4437
1709.49
72.4425
1700.43
67.7052
1690.99
62.3895
1681.29
56.7816
1671.39
51.3166
1661.33
46.5713
1651.1
43.2351
1640.69
41.9884
1630.07
43.4835
1619.21
47.8203
1608.11
55.8807
1596.71
63.7537
84.1794
2129.4
-3151.34
2232.64
-2414.71
2313.19
-1800.83
2381.72
-1321.32
2443.41
-959.826
2500.09
-679.637
2552.57
-458.144
2601.18
-285.147
2645.71
-152.527
2685.63
-51.4174
2720.95
26.4068
2752.35
87.4427
2780.52
135.929
2805.87
173.978
2828.63
202.766
2848.81
223.486
2866.35
237.716
2881.09
247.351
2892.83
254.317
2901.31
260.287
2906.3
266.489
2907.58
273.604
2905.01
281.702
2898.57
290.209
2888.48
298.075
2875.13
304.193
2859.03
307.893
2840.72
309.174
2820.67
308.571
2799.25
306.831
2776.8
304.599
2753.68
302.188
2730.27
299.537
2706.83
296.434
2683.23
293.049
2658.58
290.646
2631
292.159
2597.68
302.153
2555.56
325.875
2502.32
367.446
2437.41
427.874
2362.55
503.967
2281.46
588.879
2198.88
674.081
2119.4
751.625
2046.62
815.705
1982.79
863.119
1928.86
892.94
1884.77
905.848
1849.77
903.469
1822.74
887.881
1802.39
861.295
1787.39
825.88
1776.49
783.671
1768.57
736.528
1762.65
686.126
1757.93
633.947
1753.77
581.296
1749.66
529.304
1745.25
478.945
1740.3
431.038
1734.68
386.245
1728.38
345.06
1721.49
307.786
1714.21
274.525
1706.85
245.169
1699.8
219.424
1693.47
196.857
1688.31
176.968
1684.7
159.28
1682.96
143.421
1683.25
129.189
1685.58
116.567
1689.76
105.689
1695.41
96.7638
1702.01
89.9738
1708.91
85.3765
1715.44
82.8463
1720.98
82.0676
1725.03
82.5793
1727.25
83.8502
1727.49
85.3591
1725.76
86.6546
1722.17
87.3847
1716.95
87.2989
1710.37
86.2375
1702.69
84.1217
1694.18
80.9536
1685.06
76.828
1675.49
71.9534
1665.6
66.6728
1655.44
61.4764
1645.02
56.9878
1634.33
53.928
1623.33
52.9925
1611.98
54.8275
1600.28
59.528
1588.24
67.9131
1575.84
76.1524
96.6294
2052.62
-3276.22
2148.2
-2510.28
2223.9
-1876.54
2290.13
-1387.55
2351.4
-1021.09
2408.91
-737.148
2462.99
-512.232
2513.78
-335.93
2561.23
-199.975
2605.01
-95.2007
2644.72
-13.3065
2680.44
51.7221
2712.57
103.8
2741.43
145.123
2767.19
177.007
2789.91
200.763
2809.56
218.063
2826.04
230.875
2839.17
241.186
2848.75
250.71
2854.55
260.685
2856.38
271.769
2854.13
283.954
2847.82
296.518
2837.7
308.197
2824.22
317.672
2807.96
324.152
2789.5
327.64
2769.32
328.753
2747.83
328.321
2725.42
327.004
2702.52
325.089
2679.51
322.548
2656.51
319.432
2633.01
316.548
2607.5
316.161
2577.37
322.289