/*--------------------------------*- C++ -*----------------------------------*\
| =========                 |                                                 |
| \\      /  F ield         | OpenFOAM: The Open Source CFD Toolbox           |
|  \\    /   O peration     | Version:  4.1                                   |
|   \\  /    A nd           | Web:      www.OpenFOAM.org                      |
|    \\/     M anipulation  |                                                 |
\*---------------------------------------------------------------------------*/
FoamFile
{
    version     2.0;
    format      ascii;
    class       volVectorField;
    location    "300";
    object      U;
}
// * * * * * * * * * * * * * * * * * * * * * * * * * * * * * * * * * * * * * //

dimensions      [0 1 -1 0 0 0 0];

internalField   nonuniform List<vector> 
26785
(
(-1.04169e-14 -0.0380748 25.0449)
(-9.77897e-15 -0.010954 25.4123)
(-9.24178e-15 0.00802339 25.3142)
(-7.58569e-15 0.022442 24.8918)
(-6.94903e-15 0.0318247 24.2681)
(-5.34275e-15 0.036595 23.5416)
(-4.421e-15 0.0382302 22.7868)
(-3.36833e-15 0.0381987 22.0474)
(-3.57757e-15 0.0374655 21.3419)
(-2.51919e-15 0.0365915 20.6748)
(-2.12688e-15 0.0358885 20.0432)
(-1.41383e-15 0.0355079 19.4408)
(-9.17045e-16 0.0354915 18.8602)
(-6.30771e-16 0.0358067 18.2952)
(-4.8486e-16 0.036374 17.7405)
(-4.07021e-16 0.0370898 17.1925)
(-3.66679e-16 0.0378436 16.6495)
(-3.35604e-16 0.0385301 16.1113)
(-3.97353e-16 0.0390586 15.5791)
(-1.39408e-16 0.0393593 15.0551)
(-2.55644e-16 0.0393864 14.5421)
(-3.71597e-16 0.0391182 14.043)
(-1.87013e-16 0.0385527 13.5608)
(-4.62134e-16 0.0377023 13.0982)
(-2.79385e-16 0.0365888 12.6572)
(-5.41416e-16 0.0352417 12.2397)
(-6.82575e-16 0.0336977 11.847)
(-9.48776e-16 0.0320009 11.48)
(-9.03908e-16 0.0302007 11.1388)
(-1.0898e-15 0.0283484 10.8234)
(-1.42705e-15 0.0264939 10.5328)
(-1.7332e-15 0.0246831 10.266)
(-2.07268e-15 0.0229555 10.0215)
(-2.56115e-15 0.0213431 9.79748)
(-2.33907e-15 0.0198704 9.59206)
(-2.69276e-15 0.018554 9.40325)
(-2.82882e-15 0.017403 9.22902)
(-3.10233e-15 0.0164192 9.06745)
(-3.3947e-15 0.0155977 8.9167)
(-3.70193e-15 0.0149274 8.77515)
(-4.01192e-15 0.0143928 8.64139)
(-4.14211e-15 0.0139762 8.51422)
(-4.38229e-15 0.0136637 8.39253)
(-4.52428e-15 0.0134597 8.27514)
(-4.81434e-15 0.0134092 8.16048)
(-4.93327e-15 0.013595 8.04636)
(-5.20247e-15 0.0141036 7.92996)
(-5.20677e-15 0.0149932 7.80813)
(-5.21887e-15 0.0162806 7.67773)
(-5.2515e-15 0.0179393 7.53601)
(-5.173e-15 0.0199036 7.38087)
(-4.99993e-15 0.0220773 7.21107)
(-4.93391e-15 0.0243444 7.02629)
(-4.81229e-15 0.0265794 6.82714)
(-4.70328e-15 0.0286582 6.6151)
(-4.53901e-15 0.0304677 6.39241)
(-4.53965e-15 0.0319135 6.1619)
(-4.53752e-15 0.032925 5.92679)
(-4.31052e-15 0.0334576 5.69053)
(-4.16705e-15 0.0334929 5.4566)
(-4.13133e-15 0.0330363 5.22833)
(-3.99823e-15 0.0321141 5.0088)
(-3.81578e-15 0.0307695 4.80071)
(-3.77204e-15 0.0290599 4.60626)
(-3.72105e-15 0.0270533 4.42716)
(-3.57887e-15 0.0248266 4.26452)
(-3.45623e-15 0.0224623 4.11887)
(-3.3348e-15 0.0200469 3.99016)
(-3.22526e-15 0.0176676 3.87773)
(-3.06703e-15 0.0154086 3.78044)
(-3.09048e-15 0.0133476 3.69672)
(-3.04112e-15 0.0115503 3.62464)
(-2.86259e-15 0.0100665 3.56209)
(-2.70064e-15 0.00892418 3.50688)
(-2.58883e-15 0.00812595 3.45689)
(-2.3513e-15 0.00764736 3.41025)
(-2.17966e-15 0.00743832 3.36541)
(-2.07502e-15 0.00742805 3.32126)
(-1.9711e-15 0.00753265 3.27716)
(-1.87735e-15 0.00766421 3.23296)
(-1.76044e-15 0.00774031 3.18893)
(-1.77218e-15 0.00769243 3.14566)
(-1.69398e-15 0.00747194 3.10399)
(-1.54667e-15 0.00705591 3.06485)
(-1.5236e-15 0.00645586 3.02909)
(-1.48255e-15 0.00572677 2.99737)
(-1.43064e-15 0.00494866 2.96994)
(-1.35601e-15 0.00419273 2.94666)
(-1.32056e-15 0.00351363 2.9271)
(-1.2749e-15 0.00295179 2.91057)
(-1.22032e-15 0.00253179 2.89633)
(-1.17774e-15 0.00226147 2.88356)
(-1.14125e-15 0.002132 2.87158)
(-1.12016e-15 0.00212462 2.85967)
(-1.08502e-15 0.00220476 2.84762)
(-1.15684e-15 0.00236284 2.83453)
(-1.17865e-15 0.00250613 2.82175)
(-1.18911e-15 0.00281597 2.80542)
(-1.1998e-15 0.00264918 2.79516)
(-1.25176e-15 0.00351521 2.769)
(-1.22096e-14 -0.0776138 25.7349)
(-1.11592e-14 -0.00876781 26.0832)
(-1.06288e-14 0.0415623 25.9702)
(-9.65569e-15 0.0809406 25.5334)
(-9.74805e-15 0.10705 24.8919)
(-7.79055e-15 0.120518 24.1385)
(-7.40607e-15 0.125008 23.3464)
(-6.58641e-15 0.124494 22.5637)
(-5.02925e-15 0.121783 21.8121)
(-4.27227e-15 0.118554 21.0982)
(-3.63018e-15 0.115747 20.4201)
(-3.08752e-15 0.113826 19.7728)
(-2.55341e-15 0.11294 19.1501)
(-2.14583e-15 0.113023 18.5464)
(-1.22623e-15 0.11387 17.9576)
(-1.0996e-15 0.115199 17.3805)
(-1.15927e-15 0.116695 16.8138)
(-9.87375e-16 0.118051 16.2573)
(-8.66019e-16 0.119 15.7123)
(-1.20537e-15 0.119335 15.1805)
(-7.95489e-16 0.118926 14.6643)
(-1.28842e-15 0.117716 14.1661)
(-9.63938e-16 0.115708 13.6879)
(-1.17762e-15 0.112944 13.2316)
(-1.23675e-15 0.10949 12.7988)
(-1.18722e-15 0.10543 12.3903)
(-1.62517e-15 0.100866 12.007)
(-1.78593e-15 0.0959167 11.6491)
(-1.95787e-15 0.090715 11.3165)
(-2.26684e-15 0.0853977 11.0084)
(-2.70389e-15 0.0800968 10.7241)
(-2.5824e-15 0.0749321 10.462)
(-2.76494e-15 0.0700063 10.2206)
(-2.96726e-15 0.0654029 9.99822)
(-3.01915e-15 0.0611848 9.79283)
(-3.49467e-15 0.0573943 9.60256)
(-3.64229e-15 0.0540534 9.42554)
(-3.82458e-15 0.0511611 9.25999)
(-4.03159e-15 0.0486923 9.10435)
(-4.2531e-15 0.0466 8.95731)
(-4.46688e-15 0.0448368 8.81788)
(-4.75483e-15 0.0433816 8.68528)
(-4.84746e-15 0.0422702 8.55866)
(-5.03842e-15 0.0416339 8.43664)
(-4.99632e-15 0.0417023 8.31692)
(-5.08246e-15 0.0427305 8.19624)
(-5.13644e-15 0.0449086 8.07089)
(-5.30237e-15 0.0483117 7.93714)
(-5.2718e-15 0.0528821 7.79168)
(-5.30706e-15 0.0584388 7.63204)
(-5.08502e-15 0.0647067 7.45688)
(-5.07575e-15 0.0713527 7.26602)
(-4.90476e-15 0.0780181 7.06035)
(-4.92121e-15 0.0843457 6.8417)
(-4.89219e-15 0.0900018 6.61258)
(-4.61475e-15 0.094696 6.37601)
(-4.62277e-15 0.0981956 6.13535)
(-4.55859e-15 0.100337 5.8941)
(-4.2657e-15 0.101028 5.65576)
(-3.99937e-15 0.100248 5.42372)
(-3.81055e-15 0.0980424 5.20109)
(-3.77047e-15 0.0945128 4.99062)
(-3.7692e-15 0.0898111 4.79459)
(-3.51195e-15 0.0841309 4.61469)
(-3.31162e-15 0.0776999 4.45202)
(-3.17554e-15 0.0707721 4.30698)
(-3.06571e-15 0.0636168 4.17928)
(-2.90714e-15 0.0565074 4.068)
(-3.07363e-15 0.0497067 3.97164)
(-3.14491e-15 0.0434529 3.88825)
(-2.97505e-15 0.0379444 3.81563)
(-3.00729e-15 0.0333264 3.75143)
(-2.94974e-15 0.0296799 3.69342)
(-2.82975e-15 0.0270149 3.63958)
(-2.56715e-15 0.0252697 3.58828)
(-2.48624e-15 0.0243158 3.53828)
(-2.41606e-15 0.0239708 3.48884)
(-2.26846e-15 0.0240151 3.43966)
(-2.14205e-15 0.024215 3.39084)
(-2.04412e-15 0.0243453 3.34281)
(-1.89997e-15 0.0242126 3.29622)
(-1.87805e-15 0.0236756 3.25182)
(-1.81467e-15 0.0226557 3.21035)
(-1.57135e-15 0.021145 3.17244)
(-1.37981e-15 0.019216 3.13853)
(-1.3116e-15 0.017028 3.10875)
(-1.27068e-15 0.0147906 3.08294)
(-1.17016e-15 0.0127001 3.06069)
(-9.65227e-16 0.0109061 3.04137)
(-8.28688e-16 0.0095065 3.0242)
(-7.2462e-16 0.0085436 3.0084)
(-6.69474e-16 0.00800959 2.99323)
(-5.95344e-16 0.00785397 2.97813)
(-7.30929e-16 0.0080061 2.96254)
(-7.78891e-16 0.00836378 2.9464)
(-7.74211e-16 0.00889259 2.92891)
(-8.67553e-16 0.00936913 2.91164)
(-9.1721e-16 0.0102154 2.89042)
(-9.46538e-16 0.00996411 2.8762)
(-1.03842e-15 0.012159 2.84252)
(-1.24501e-14 -0.129577 25.8345)
(-1.31373e-14 -0.0202242 26.2136)
(-1.23227e-14 0.0643942 26.1405)
(-1.24051e-14 0.131752 25.7455)
(-1.1671e-14 0.177364 25.1379)
(-1.0025e-14 0.202128 24.4018)
(-9.85258e-15 0.211588 23.6089)
(-9.00645e-15 0.212107 22.812)
(-8.08992e-15 0.208503 22.0371)
(-7.11596e-15 0.203712 21.2937)
(-6.19438e-15 0.199361 20.5825)
(-5.34361e-15 0.196235 19.9004)
(-4.58181e-15 0.194576 19.2432)
(-3.89553e-15 0.194282 18.6071)
(-3.39516e-15 0.195036 17.9891)
(-2.49991e-15 0.19641 17.3877)
(-2.5573e-15 0.197936 16.8022)
(-1.73293e-15 0.199162 16.2331)
(-1.88898e-15 0.199699 15.6815)
(-1.46515e-15 0.199262 15.1489)
(-1.43358e-15 0.197681 14.6371)
(-2.02043e-15 0.194899 14.1475)
(-2.05292e-15 0.190947 13.6813)
(-2.02703e-15 0.185903 13.2394)
(-2.36539e-15 0.179877 12.8223)
(-2.37009e-15 0.172995 12.4302)
(-2.3553e-15 0.165408 12.0632)
(-2.43141e-15 0.157298 11.7211)
(-2.46905e-15 0.148866 11.4033)
(-2.61656e-15 0.140323 11.1089)
(-2.75804e-15 0.131874 10.8365)
(-2.9333e-15 0.123702 10.5846)
(-3.11612e-15 0.115964 10.3514)
(-3.00635e-15 0.108782 10.1349)
(-3.47514e-15 0.102246 9.93322)
(-3.77832e-15 0.0964081 9.74441)
(-4.03519e-15 0.0912887 9.56667)
(-4.24527e-15 0.0868638 9.39842)
(-4.45767e-15 0.0830634 9.23835)
(-4.67204e-15 0.079781 9.08552)
(-4.87419e-15 0.0769157 8.93936)
(-5.0547e-15 0.074446 8.79949)
(-5.20959e-15 0.0725162 8.66536)
(-5.33676e-15 0.0714908 8.53552)
(-5.43632e-15 0.0718752 8.40732)
(-5.5043e-15 0.074136 8.2771)
(-5.53879e-15 0.0785605 8.14071)
(-5.52981e-15 0.08519 7.99395)
(-5.4804e-15 0.093793 7.83329)
(-5.38299e-15 0.103904 7.65637)
(-5.25066e-15 0.114912 7.46242)
(-5.09291e-15 0.126151 7.25219)
(-4.9198e-15 0.136976 7.02779)
(-4.761e-15 0.146808 6.79228)
(-4.56475e-15 0.155155 6.54932)
(-4.53341e-15 0.161624 6.30285)
(-4.52047e-15 0.165927 6.05684)
(-4.23842e-15 0.167881 5.81513)
(-3.97103e-15 0.16741 5.58126)
(-3.73932e-15 0.164541 5.35844)
(-3.53371e-15 0.159399 5.14939)
(-3.48165e-15 0.1522 4.95626)
(-3.38984e-15 0.143244 4.78057)
(-3.27179e-15 0.132904 4.62311)
(-3.19977e-15 0.121611 4.4839)
(-3.17079e-15 0.109839 4.3622)
(-2.92029e-15 0.0980737 4.25659)
(-2.76087e-15 0.0867838 4.16508)
(-2.70509e-15 0.0763904 4.08533)
(-2.61345e-15 0.0672347 4.01479)
(-2.49937e-15 0.0595534 3.95096)
(-2.40552e-15 0.0534636 3.8916)
(-2.21704e-15 0.0489588 3.83484)
(-1.94236e-15 0.0459171 3.77931)
(-1.7676e-15 0.0441194 3.72415)
(-1.64144e-15 0.0432737 3.66901)
(-1.50935e-15 0.0430444 3.61396)
(-1.37635e-15 0.0430822 3.55944)
(-1.24423e-15 0.0430559 3.50607)
(-1.10926e-15 0.0426811 3.45464)
(-9.72406e-16 0.0417465 3.40587)
(-7.98233e-16 0.0401334 3.36039)
(-7.35679e-16 0.0378241 3.31866)
(-5.99616e-16 0.0348983 3.28089)
(-4.2189e-16 0.031525 3.24707)
(-2.66772e-16 0.0279525 3.21698)
(-1.25053e-16 0.0244777 3.19029)
(-1.1456e-17 0.0213762 3.16651)
(1.02612e-16 0.0188476 3.14501)
(9.51312e-17 0.0170024 3.12511)
(1.38575e-16 0.0158655 3.10617)
(2.16763e-16 0.0153905 3.08757)
(1.62332e-16 0.0154763 3.06888)
(1.59718e-16 0.0159992 3.0496)
(1.73319e-16 0.0168026 3.02973)
(1.97236e-16 0.0178173 3.00844)
(1.14302e-16 0.0187679 2.98737)
(6.81335e-17 0.020113 2.96194)
(4.93481e-17 0.0202757 2.9444)
(-5.88952e-17 0.0232528 2.90377)
(-1.23347e-14 -0.186597 25.543)
(-1.27484e-14 -0.0365624 25.9686)
(-1.36838e-14 0.0822046 25.9572)
(-1.39e-14 0.177872 25.633)
(-1.31388e-14 0.244362 25.0925)
(-1.39852e-14 0.282457 24.4082)
(-1.31857e-14 0.298769 23.6458)
(-1.14182e-14 0.301692 22.8619)
(-1.01828e-14 0.298118 22.087)
(-8.95795e-15 0.29233 21.3343)
(-7.82585e-15 0.286703 20.6074)
(-6.79974e-15 0.282377 19.9056)
(-5.76895e-15 0.27972 19.2268)
(-5.23465e-15 0.278615 18.5692)
(-4.53203e-15 0.278668 17.9316)
(-4.04795e-15 0.279344 17.3139)
(-3.51881e-15 0.280063 16.7166)
(-3.61665e-15 0.28028 16.141)
(-3.11615e-15 0.279546 15.5885)
(-3.01657e-15 0.277547 15.0606)
(-2.77201e-15 0.274122 14.5583)
(-3.00775e-15 0.269246 14.0823)
(-2.96767e-15 0.262986 13.6328)
(-3.06744e-15 0.255456 13.2098)
(-3.15094e-15 0.246788 12.8129)
(-3.26359e-15 0.237128 12.4415)
(-3.37573e-15 0.226658 12.0952)
(-3.49249e-15 0.215601 11.7731)
(-3.62921e-15 0.204217 11.4742)
(-3.75752e-15 0.192785 11.1968)
(-4.01983e-15 0.181575 10.9394)
(-4.02124e-15 0.170831 10.6998)
(-4.38616e-15 0.160753 10.4761)
(-4.56073e-15 0.151492 10.266)
(-4.262e-15 0.143144 10.0676)
(-4.72989e-15 0.135758 9.87903)
(-4.43381e-15 0.129326 9.6988)
(-4.84415e-15 0.123782 9.52566)
(-5.04641e-15 0.118995 9.3588)
(-5.10522e-15 0.114785 9.19781)
(-5.45778e-15 0.110995 9.04266)
(-5.72239e-15 0.107628 8.89331)
(-5.54441e-15 0.104992 8.74909)
(-5.61214e-15 0.103728 8.60813)
(-5.77868e-15 0.104617 8.46726)
(-5.7847e-15 0.108334 8.32252)
(-5.84459e-15 0.115275 8.16958)
(-5.65942e-15 0.125438 8.00439)
(-5.52637e-15 0.138375 7.82386)
(-5.4208e-15 0.153264 7.62644)
(-5.35879e-15 0.169076 7.41234)
(-5.15577e-15 0.18474 7.18342)
(-5.16496e-15 0.199281 6.94286)
(-4.76705e-15 0.211891 6.6947)
(-4.40813e-15 0.22195 6.4434)
(-4.16276e-15 0.229018 6.19343)
(-4.12149e-15 0.23282 5.94906)
(-3.92836e-15 0.233231 5.71412)
(-3.72239e-15 0.230265 5.49192)
(-3.4782e-15 0.224069 5.28516)
(-3.27762e-15 0.21492 5.09583)
(-3.03834e-15 0.203216 4.92512)
(-2.85363e-15 0.189467 4.77343)
(-2.77862e-15 0.174275 4.64031)
(-2.75111e-15 0.158306 4.52452)
(-2.52954e-15 0.142244 4.4242)
(-2.39856e-15 0.126753 4.33697)
(-2.51173e-15 0.112423 4.26021)
(-2.47437e-15 0.0997293 4.19125)
(-2.37e-15 0.0889973 4.12758)
(-2.21361e-15 0.0803876 4.06706)
(-2.08403e-15 0.0738933 4.008)
(-1.8124e-15 0.0693555 3.94924)
(-1.66262e-15 0.06649 3.89014)
(-1.68917e-15 0.0649226 3.83059)
(-1.4832e-15 0.0642273 3.77086)
(-1.30886e-15 0.0639641 3.71151)
(-1.06261e-15 0.063717 3.65329)
(-8.65863e-16 0.0631274 3.597)
(-7.25136e-16 0.0619236 3.54335)
(-5.84327e-16 0.0599403 3.49291)
(-4.58591e-16 0.0571277 3.44602)
(-3.37828e-16 0.0535489 3.40276)
(-3.08453e-16 0.0493588 3.36305)
(-2.65771e-16 0.0447747 3.32667)
(-2.34025e-16 0.040066 3.2933)
(-1.28846e-16 0.035561 3.26272)
(-1.07962e-16 0.0315857 3.23466)
(-7.91799e-17 0.0283752 3.20875)
(-1.86002e-16 0.026054 3.18456)
(-9.74139e-17 0.0246455 3.16162)
(-7.60373e-17 0.0240904 3.13948)
(-1.23254e-16 0.0242662 3.11774)
(-9.54589e-17 0.0250224 3.0959)
(-6.03526e-17 0.0261728 3.07389)
(9.16643e-17 0.0276145 3.05075)
(1.51476e-16 0.0290655 3.02807)
(3.52614e-16 0.0309122 3.0008)
(4.46497e-16 0.0317913 2.98198)
(5.00829e-16 0.0354079 2.93798)
(-1.2031e-14 -0.249278 25.0282)
(-1.31103e-14 -0.0611896 25.4688)
(-1.32314e-14 0.0884162 25.5091)
(-1.36592e-14 0.210474 25.2607)
(-1.33456e-14 0.297836 24.8032)
(-1.15931e-14 0.350988 24.1938)
(-1.1958e-14 0.376691 23.4863)
(-1.09667e-14 0.384421 22.7374)
(-9.93904e-15 0.382892 21.9821)
(-8.89431e-15 0.377751 21.2381)
(-7.77498e-15 0.372163 20.5123)
(-7.31616e-15 0.367656 19.8068)
(-6.42383e-15 0.364721 19.1218)
(-6.26716e-15 0.363232 18.4572)
(-5.50037e-15 0.362721 17.8137)
(-4.60216e-15 0.362568 17.1924)
(-4.10651e-15 0.362129 16.595)
(-3.71886e-15 0.360829 16.0233)
(-3.47335e-15 0.358229 15.4792)
(-3.31985e-15 0.354063 14.9639)
(-3.1647e-15 0.348238 14.4779)
(-3.41185e-15 0.340801 14.0213)
(-3.33035e-15 0.331877 13.5934)
(-3.3745e-15 0.321617 13.1933)
(-3.41039e-15 0.310171 12.8198)
(-3.51047e-15 0.297703 12.4718)
(-3.31613e-15 0.284421 12.148)
(-3.82504e-15 0.270594 11.8467)
(-3.77506e-15 0.256546 11.5664)
(-3.92625e-15 0.242623 11.3049)
(-4.04213e-15 0.229154 11.06)
(-4.19048e-15 0.216422 10.8294)
(-4.33278e-15 0.204644 10.6109)
(-4.80965e-15 0.193962 10.4025)
(-4.69528e-15 0.184447 10.2025)
(-4.62192e-15 0.176105 10.0095)
(-4.68628e-15 0.168876 9.82251)
(-4.87256e-15 0.162626 9.64078)
(-5.07377e-15 0.15714 9.46413)
(-5.26858e-15 0.152163 9.29276)
(-5.4368e-15 0.147528 9.12705)
(-5.56195e-15 0.143367 8.96689)
(-5.64398e-15 0.140256 8.81106)
(-5.85852e-15 0.139138 8.65701)
(-5.87165e-15 0.14105 8.50105)
(-5.89192e-15 0.146814 8.33882)
(-5.86804e-15 0.156826 8.16596)
(-5.80933e-15 0.17091 7.97892)
(-5.66306e-15 0.188299 7.77566)
(-5.58372e-15 0.207765 7.55597)
(-5.46348e-15 0.227852 7.32151)
(-5.27737e-15 0.247119 7.07546)
(-5.17965e-15 0.264312 6.82203)
(-4.88911e-15 0.278458 6.56599)
(-4.63334e-15 0.28887 6.31219)
(-4.32535e-15 0.295127 6.0652)
(-4.00151e-15 0.297032 5.82908)
(-3.72122e-15 0.294582 5.60722)
(-3.60943e-15 0.287948 5.40225)
(-3.49732e-15 0.277464 5.21593)
(-3.4406e-15 0.263622 5.04913)
(-3.337e-15 0.247054 4.90179)
(-3.13416e-15 0.228511 4.77303)
(-3.07276e-15 0.208824 4.6612)
(-2.95326e-15 0.188851 4.56408)
(-3.12366e-15 0.169426 4.4791)
(-3.15335e-15 0.151292 4.40354)
(-3.18471e-15 0.135059 4.33478)
(-3.16451e-15 0.121158 4.27044)
(-3.12145e-15 0.109824 4.20855)
(-3.09473e-15 0.101088 4.14759)
(-3.05136e-15 0.0947939 4.08654)
(-2.76129e-15 0.0906275 4.02488)
(-2.6186e-15 0.0881563 3.96254)
(-2.56243e-15 0.0868778 3.8998)
(-2.45686e-15 0.086268 3.83725)
(-2.44875e-15 0.0858275 3.77559)
(-2.22473e-15 0.0851215 3.7156)
(-2.04743e-15 0.0838123 3.65794)
(-1.78697e-15 0.0816809 3.60314)
(-1.52509e-15 0.0786347 3.55151)
(-1.57664e-15 0.0747019 3.50315)
(-1.5504e-15 0.0700168 3.45796)
(-1.48738e-15 0.0647844 3.41571)
(-1.49339e-15 0.0592363 3.37613)
(-1.43227e-15 0.0536139 3.33896)
(-1.35605e-15 0.0482195 3.30407)
(-1.23723e-15 0.0434064 3.27145)
(-1.13381e-15 0.0394501 3.24104)
(-9.58386e-16 0.0365069 3.21262)
(-8.59592e-16 0.0346224 3.18591)
(-7.73895e-16 0.0337515 3.16059)
(-8.0523e-16 0.0337781 3.13629)
(-8.22603e-16 0.0345495 3.11253)
(-8.44538e-16 0.0358728 3.08915)
(-7.99088e-16 0.0376221 3.06508)
(-7.02776e-16 0.0395331 3.04181)
(-5.94232e-16 0.0418967 3.01396)
(-7.12621e-16 0.04357 2.9949)
(-4.78662e-16 0.0479512 2.94983)
(-1.18404e-14 -0.327299 24.2945)
(-1.28577e-14 -0.0973787 24.7703)
(-1.30569e-14 0.0835043 24.8608)
(-1.35179e-14 0.231868 24.6743)
(-1.30427e-14 0.340566 24.2866)
(-1.2483e-14 0.410161 23.7492)
(-1.24343e-14 0.447199 23.1067)
(-1.23512e-14 0.461583 22.4089)
(-1.15192e-14 0.463546 21.6919)
(-9.77043e-15 0.46009 20.976)
(-8.59333e-15 0.455237 20.2712)
(-7.90544e-15 0.450969 19.582)
(-7.02138e-15 0.44797 18.9105)
(-6.23193e-15 0.446146 18.2584)
(-5.51211e-15 0.444985 17.6277)
(-4.86216e-15 0.443806 17.0205)
(-4.43226e-15 0.441925 16.4394)
(-3.64333e-15 0.438769 15.8866)
(-3.32017e-15 0.433951 15.364)
(-3.45266e-15 0.427296 14.8726)
(-3.65871e-15 0.418812 14.4123)
(-3.55989e-15 0.40864 13.9825)
(-3.80959e-15 0.396973 13.5815)
(-4.05914e-15 0.384003 13.2078)
(-3.95267e-15 0.369901 12.8594)
(-3.8577e-15 0.35485 12.5343)
(-3.85724e-15 0.339089 12.2306)
(-3.89987e-15 0.322933 11.9463)
(-3.9414e-15 0.306758 11.6791)
(-3.96501e-15 0.290952 11.4267)
(-4.06633e-15 0.275873 11.187)
(-4.1763e-15 0.261803 10.9578)
(-4.20027e-15 0.248937 10.7373)
(-4.32566e-15 0.237377 10.5241)
(-4.53145e-15 0.227149 10.3169)
(-4.83421e-15 0.218211 10.1151)
(-4.90584e-15 0.210446 9.91806)
(-5.11767e-15 0.203645 9.72567)
(-5.28745e-15 0.197509 9.53826)
(-5.40393e-15 0.19175 9.3564)
(-5.38194e-15 0.186283 9.18043)
(-5.36919e-15 0.181459 9.00973)
(-5.65648e-15 0.178148 8.84234)
(-5.68123e-15 0.177586 8.67493)
(-5.90457e-15 0.18103 8.50316)
(-5.93631e-15 0.189387 8.32233)
(-5.94403e-15 0.202942 8.1283)
(-5.87382e-15 0.221217 7.91844)
(-5.73531e-15 0.243014 7.69217)
(-5.57247e-15 0.26664 7.45101)
(-5.38534e-15 0.290224 7.19828)
(-5.20115e-15 0.312013 6.93851)
(-5.0069e-15 0.330566 6.6768)
(-4.81066e-15 0.344837 6.41832)
(-4.62121e-15 0.354166 6.1679)
(-4.41117e-15 0.358229 5.92971)
(-4.1854e-15 0.356982 5.70717)
(-3.93426e-15 0.350609 5.50275)
(-3.88541e-15 0.339505 5.31795)
(-3.81253e-15 0.324245 5.15331)
(-3.70486e-15 0.305569 5.00839)
(-3.52477e-15 0.284352 4.8819)
(-3.37674e-15 0.261555 4.77191)
(-3.31018e-15 0.238174 4.67598)
(-3.28204e-15 0.215175 4.59144)
(-3.40114e-15 0.193432 4.51563)
(-3.50761e-15 0.173675 4.44604)
(-3.56096e-15 0.15645 4.38047)
(-3.45716e-15 0.142091 4.31711)
(-3.47492e-15 0.13071 4.2546)
(-3.42613e-15 0.122207 4.192)
(-3.24112e-15 0.116294 4.12883)
(-3.08099e-15 0.11253 4.06498)
(-2.98833e-15 0.110372 4.00069)
(-2.64736e-15 0.109235 3.93644)
(-2.38388e-15 0.108541 3.87286)
(-2.26896e-15 0.107772 3.81063)
(-2.02489e-15 0.106508 3.75038)
(-1.83233e-15 0.104455 3.69259)
(-1.67388e-15 0.101456 3.6376)
(-1.50587e-15 0.0974828 3.58551)
(-1.33063e-15 0.0926259 3.53628)
(-1.04999e-15 0.0870632 3.48971)
(-5.61766e-16 0.081025 3.44555)
(-2.85782e-16 0.0747434 3.40356)
(-2.64124e-16 0.0684184 3.36351)
(-9.23531e-17 0.0622872 3.32526)
(1.31962e-16 0.0566881 3.28897)
(3.31395e-16 0.0519386 3.25478)
(4.81568e-16 0.0482435 3.22273)
(6.22752e-16 0.0456903 3.19271)
(7.27499e-16 0.04427 3.1645)
(6.81075e-16 0.0438955 3.13786)
(6.28656e-16 0.0444341 3.1123)
(6.53221e-16 0.045709 3.08767)
(6.52903e-16 0.0475898 3.06278)
(5.55596e-16 0.0498424 3.0391)
(4.03001e-16 0.0526825 3.01098)
(3.54121e-16 0.0550769 2.99193)
(3.43892e-16 0.0603664 2.94668)
(-1.19063e-14 -0.392448 23.6967)
(-1.22638e-14 -0.132962 24.176)
(-1.31638e-14 0.0744572 24.2852)
(-1.36877e-14 0.246121 24.1329)
(-1.36308e-14 0.373896 23.7909)
(-1.23597e-14 0.458873 23.3054)
(-1.15595e-14 0.50755 22.712)
(-1.0817e-14 0.529638 22.0539)
(-9.4612e-15 0.536253 21.3687)
(-7.66466e-15 0.535548 20.6786)
(-6.91122e-15 0.532332 19.9953)
(-6.01049e-15 0.529021 19.3251)
(-5.30205e-15 0.526488 18.6716)
(-4.63198e-15 0.524678 18.0376)
(-4.10818e-15 0.523054 17.4263)
(-3.31648e-15 0.520899 16.8405)
(-2.89278e-15 0.517525 16.2831)
(-2.99534e-15 0.512412 15.7564)
(-2.77593e-15 0.505276 15.2617)
(-2.9921e-15 0.496073 14.7992)
(-2.53044e-15 0.484949 14.368)
(-2.50126e-15 0.472153 13.9663)
(-2.74179e-15 0.457955 13.5918)
(-2.74719e-15 0.442587 13.242)
(-2.88104e-15 0.426235 12.9143)
(-2.97533e-15 0.409092 12.6065)
(-2.94574e-15 0.391413 12.3161)
(-3.29875e-15 0.373537 12.0412)
(-3.51367e-15 0.355863 11.7795)
(-3.49729e-15 0.338791 11.529)
(-3.75988e-15 0.322672 11.2879)
(-3.89796e-15 0.307762 11.0547)
(-4.01592e-15 0.294215 10.828)
(-4.17809e-15 0.282092 10.607)
(-4.37373e-15 0.271379 10.391)
(-4.84366e-15 0.261995 10.1796)
(-4.79015e-15 0.253764 9.97283)
(-4.95032e-15 0.246398 9.77085)
(-5.12852e-15 0.239545 9.57433)
(-5.30112e-15 0.232948 9.38389)
(-5.2983e-15 0.226695 9.19944)
(-5.60471e-15 0.221412 9.01965)
(-5.63448e-15 0.218299 8.84162)
(-5.88821e-15 0.218876 8.6611)
(-5.8986e-15 0.224554 8.47311)
(-5.89765e-15 0.23619 8.27291)
(-5.89855e-15 0.253783 8.05709)
(-5.77862e-15 0.2764 7.82449)
(-5.58764e-15 0.302318 7.57638)
(-5.35833e-15 0.329374 7.31622)
(-4.80769e-15 0.355349 7.04897)
(-4.2203e-15 0.378293 6.78024)
(-4.00378e-15 0.39671 6.51566)
(-3.99915e-15 0.409605 6.26035)
(-3.91453e-15 0.416445 6.01864)
(-3.81772e-15 0.41709 5.79389)
(-3.74872e-15 0.41171 5.58841)
(-3.60916e-15 0.400738 5.40345)
(-3.61482e-15 0.384818 5.23918)
(-3.54684e-15 0.36478 5.09486)
(-3.40164e-15 0.341593 4.9689)
(-3.30116e-15 0.316317 4.85913)
(-3.25582e-15 0.290051 4.763)
(-3.07418e-15 0.26386 4.67783)
(-2.95672e-15 0.238725 4.60099)
(-2.77272e-15 0.215488 4.53012)
(-2.65155e-15 0.194809 4.46315)
(-2.66484e-15 0.177142 4.39843)
(-2.46201e-15 0.162716 4.33469)
(-2.33701e-15 0.151533 4.27106)
(-2.02913e-15 0.14338 4.20705)
(-1.79713e-15 0.137859 4.14252)
(-1.6573e-15 0.134434 4.07761)
(-1.43508e-15 0.132483 4.01272)
(-1.21376e-15 0.131364 3.94838)
(-9.6161e-16 0.130476 3.88516)
(-5.99372e-16 0.129306 3.82364)
(-2.92106e-16 0.127466 3.76427)
(-1.02215e-16 0.12471 3.70735)
(2.53127e-17 0.120938 3.65304)
(3.03243e-16 0.116178 3.60131)
(5.26826e-16 0.110565 3.55202)
(7.17534e-16 0.104303 3.50495)
(1.10917e-15 0.0976364 3.45985)
(1.33827e-15 0.0907935 3.41648)
(1.42546e-15 0.0839489 3.37467)
(1.48517e-15 0.0772699 3.33426)
(1.46642e-15 0.0710199 3.29534)
(1.51752e-15 0.0655283 3.25823)
(1.50584e-15 0.0610532 3.22316)
(1.47728e-15 0.0577373 3.19023)
(1.4916e-15 0.0556218 3.15936)
(1.41505e-15 0.0546664 3.13041)
(1.41764e-15 0.0547775 3.10299)
(1.44336e-15 0.0558135 3.07696)
(1.63536e-15 0.0576622 3.05109)
(1.75718e-15 0.0601291 3.02683)
(1.91362e-15 0.0633831 2.99832)
(1.88765e-15 0.0663804 2.97915)
(1.83651e-15 0.0726728 2.93384)
(-1.22129e-14 -0.465863 23.0944)
(-1.27088e-14 -0.175433 23.568)
(-1.3774e-14 0.0602549 23.6887)
(-1.42836e-14 0.255522 23.5648)
(-1.44724e-14 0.402167 23.2641)
(-1.40025e-14 0.502654 22.8282)
(-1.34797e-14 0.563615 22.2861)
(-1.17348e-14 0.594202 21.6716)
(-1.05638e-14 0.606054 21.0224)
(-9.30903e-15 0.608466 20.3626)
(-8.09374e-15 0.607068 19.7058)
(-6.91029e-15 0.604738 19.0597)
(-5.8145e-15 0.602557 18.4294)
(-4.87013e-15 0.600534 17.8189)
(-3.98987e-15 0.598132 17.2319)
(-3.90069e-15 0.594644 16.672)
(-3.20445e-15 0.589435 16.1422)
(-2.89727e-15 0.582094 15.6443)
(-2.62981e-15 0.572485 15.179)
(-2.4811e-15 0.560724 14.7454)
(-2.42319e-15 0.547091 14.3418)
(-2.38189e-15 0.531935 13.9653)
(-2.70602e-15 0.515574 13.613)
(-3.0353e-15 0.498255 13.2819)
(-3.06426e-15 0.480156 12.9692)
(-3.2423e-15 0.461453 12.6726)
(-3.27698e-15 0.442395 12.3897)
(-3.58727e-15 0.423322 12.1186)
(-3.68663e-15 0.404635 11.8575)
(-3.97927e-15 0.38673 11.6049)
(-4.19185e-15 0.369936 11.3593)
(-4.37492e-15 0.354475 11.1198)
(-4.55354e-15 0.340465 10.8855)
(-4.74305e-15 0.327933 10.6561)
(-4.91075e-15 0.316836 10.4312)
(-5.37222e-15 0.307048 10.2108)
(-5.3498e-15 0.298327 9.99511)
(-5.4531e-15 0.290319 9.78477)
(-5.52719e-15 0.282665 9.58058)
(-5.61319e-15 0.275218 9.38291)
(-5.68137e-15 0.268305 9.19108)
(-5.73501e-15 0.262893 9.00277)
(-5.56702e-15 0.26052 8.81398)
(-5.7875e-15 0.262944 8.6195)
(-5.84488e-15 0.271604 8.41395)
(-5.90546e-15 0.287129 8.19309)
(-5.89031e-15 0.309064 7.95487)
(-5.81669e-15 0.335893 7.7001)
(-5.60266e-15 0.365338 7.43225)
(-5.30325e-15 0.394811 7.15666)
(-4.93393e-15 0.421861 6.8796)
(-4.4677e-15 0.444488 6.6073)
(-4.01661e-15 0.461281 6.34535)
(-3.75461e-15 0.471418 6.09832)
(-3.52261e-15 0.474591 5.86958)
(-3.30655e-15 0.470911 5.6613)
(-3.34923e-15 0.460812 5.47447)
(-3.23576e-15 0.444988 5.30897)
(-3.02636e-15 0.424331 5.16376)
(-2.86313e-15 0.399883 5.03703)
(-2.72336e-15 0.37278 4.92641)
(-2.69643e-15 0.34419 4.82927)
(-2.67212e-15 0.315258 4.74291)
(-2.62927e-15 0.287048 4.66475)
(-2.58562e-15 0.260496 4.5925)
(-2.50762e-15 0.236368 4.52421)
(-2.42997e-15 0.215237 4.4583)
(-2.51645e-15 0.19746 4.39358)
(-2.51089e-15 0.183167 4.32923)
(-2.44228e-15 0.172264 4.26475)
(-2.1813e-15 0.164443 4.19998)
(-1.95891e-15 0.159223 4.13501)
(-1.81482e-15 0.155998 4.07013)
(-1.65181e-15 0.154096 4.00579)
(-1.33742e-15 0.152852 3.94249)
(-1.09275e-15 0.151662 3.88072)
(-8.02631e-16 0.150038 3.8209)
(-4.8757e-16 0.147629 3.76331)
(-2.78434e-16 0.144238 3.70809)
(-9.64587e-17 0.139811 3.65524)
(-6.47221e-17 0.134419 3.60463)
(-1.12781e-16 0.128223 3.55606)
(-1.06787e-17 0.121443 3.50928)
(2.31228e-17 0.114321 3.46405)
(1.75517e-17 0.107078 3.42017)
(-6.55072e-17 0.0998778 3.37747)
(-2.0035e-16 0.0928417 3.33584)
(-3.40932e-16 0.0861362 3.29526)
(-5.04247e-16 0.0800328 3.25599)
(-5.53589e-16 0.0748254 3.21846)
(-6.24653e-16 0.0707189 3.18295)
(-7.24935e-16 0.0678172 3.14958)
(-8.44892e-16 0.0661417 3.11834)
(-7.73989e-16 0.0656559 3.08895)
(-5.64267e-16 0.0662732 3.06131)
(-3.03172e-16 0.0679232 3.03421)
(2.67415e-17 0.0704609 3.00906)
(2.989e-16 0.0740361 2.97988)
(6.083e-16 0.077496 2.96034)
(1.04868e-15 0.0848177 2.91474)
(-1.24193e-14 -0.538671 22.4875)
(-1.26044e-14 -0.219232 22.9362)
(-1.34004e-14 0.0418536 23.0572)
(-1.37049e-14 0.258213 22.9584)
(-1.31066e-14 0.422021 22.6994)
(-1.28404e-14 0.537247 22.3146)
(-1.33563e-14 0.610674 21.8272)
(-1.28903e-14 0.650626 21.261)
(-1.19861e-14 0.668609 20.6528)
(-1.13758e-14 0.674893 20.0282)
(-1.02461e-14 0.675921 19.4031)
(-8.96913e-15 0.675051 18.7866)
(-7.76738e-15 0.67358 18.1849)
(-6.73354e-15 0.671586 17.6028)
(-5.82711e-15 0.668547 17.0448)
(-5.07998e-15 0.663796 16.5146)
(-4.53597e-15 0.656802 16.0149)
(-3.82722e-15 0.647315 15.5471)
(-3.18896e-15 0.635387 15.1109)
(-3.50224e-15 0.621312 14.7046)
(-3.09678e-15 0.605507 14.3256)
(-3.01546e-15 0.588399 13.9704)
(-3.39592e-15 0.57034 13.6358)
(-2.80523e-15 0.551568 13.3186)
(-3.42569e-15 0.532235 13.0161)
(-3.64943e-15 0.512485 12.7257)
(-3.74223e-15 0.492542 12.4458)
(-3.69674e-15 0.472732 12.1745)
(-3.97686e-15 0.453444 11.9106)
(-4.11208e-15 0.435054 11.6529)
(-3.72919e-15 0.417859 11.4007)
(-4.27895e-15 0.402052 11.1535)
(-4.17852e-15 0.387719 10.9109)
(-4.43885e-15 0.374866 10.6728)
(-4.53662e-15 0.36342 10.4392)
(-4.81939e-15 0.353202 10.2103)
(-5.14766e-15 0.343904 9.98669)
(-5.33678e-15 0.335132 9.76917)
(-5.44181e-15 0.32658 9.55853)
(-5.54931e-15 0.318294 9.3547)
(-5.6731e-15 0.31093 9.15615)
(-5.79158e-15 0.305844 8.95939)
(-5.77174e-15 0.304901 8.75923)
(-5.88984e-15 0.309991 8.54969)
(-5.92367e-15 0.322396 8.32542)
(-5.95728e-15 0.342304 8.08322)
(-5.88607e-15 0.368625 7.823)
(-5.73218e-15 0.399193 7.54795)
(-5.51374e-15 0.431209 7.26375)
(-5.26996e-15 0.461794 6.97736)
(-4.98832e-15 0.488434 6.69585)
(-4.64781e-15 0.509244 6.42547)
(-4.2989e-15 0.523034 6.17121)
(-3.95972e-15 0.52926 5.9366)
(-3.66574e-15 0.527904 5.72373)
(-3.37917e-15 0.519364 5.53339)
(-3.29415e-15 0.504343 5.36523)
(-3.1852e-15 0.483775 5.21791)
(-3.11563e-15 0.458752 5.08942)
(-3.1374e-15 0.43046 4.97723)
(-3.21731e-15 0.400123 4.87861)
(-3.2054e-15 0.368943 4.7908)
(-3.15763e-15 0.338047 4.71126)
(-3.10426e-15 0.308445 4.63769)
(-3.21856e-15 0.280995 4.56821)
(-3.27299e-15 0.25638 4.50128)
(-3.34602e-15 0.235081 4.43576)
(-3.38802e-15 0.217365 4.37086)
(-3.3188e-15 0.203276 4.30609)
(-3.27426e-15 0.192637 4.24128)
(-3.10235e-15 0.185067 4.17647)
(-2.87582e-15 0.180024 4.11193)
(-2.63741e-15 0.176853 4.04803)
(-2.48028e-15 0.17486 3.98522)
(-2.45516e-15 0.173375 3.92392)
(-2.24851e-15 0.171813 3.86451)
(-1.76235e-15 0.169714 3.80722)
(-1.4898e-15 0.16677 3.75217)
(-1.26551e-15 0.162827 3.69935)
(-1.10496e-15 0.157867 3.64861)
(-1.06514e-15 0.151991 3.59975)
(-1.17594e-15 0.145375 3.5525)
(-1.23531e-15 0.138242 3.50661)
(-1.2057e-15 0.130824 3.46185)
(-1.34951e-15 0.123329 3.41804)
(-1.55963e-15 0.115912 3.37505)
(-1.68376e-15 0.108674 3.3328)
(-1.77109e-15 0.101717 3.29127)
(-1.84734e-15 0.0952082 3.25058)
(-1.91726e-15 0.0894052 3.21112)
(-1.95825e-15 0.0845646 3.17339)
(-2.04141e-15 0.0808621 3.13769)
(-2.1618e-15 0.0783932 3.1042)
(-2.19454e-15 0.0771961 3.07273)
(-2.17778e-15 0.0772591 3.04329)
(-2.00746e-15 0.0785764 3.01467)
(-1.70036e-15 0.08106 2.98831)
(-1.42114e-15 0.0848609 2.95809)
(-1.01713e-15 0.0886496 2.93788)
(-3.11612e-16 0.09696 2.89155)
(-1.14306e-14 -0.609612 21.8403)
(-1.16847e-14 -0.264288 22.2396)
(-1.18976e-14 0.0187739 22.3523)
(-1.21586e-14 0.253437 22.2744)
(-1.18512e-14 0.432584 22.058)
(-1.14134e-14 0.561971 21.7326)
(-9.95156e-15 0.64859 21.3126)
(-9.27993e-15 0.699386 20.809)
(-8.70886e-15 0.724866 20.2532)