/*--------------------------------*- C++ -*----------------------------------*\
| =========                 |                                                 |
| \\      /  F ield         | OpenFOAM: The Open Source CFD Toolbox           |
|  \\    /   O peration     | Version:  4.1                                   |
|   \\  /    A nd           | Web:      www.OpenFOAM.org                      |
|    \\/     M anipulation  |                                                 |
\*---------------------------------------------------------------------------*/
FoamFile
{
    version     2.0;
    format      ascii;
    class       volScalarField;
    location    "600";
    object      epsilon;
}
// * * * * * * * * * * * * * * * * * * * * * * * * * * * * * * * * * * * * * //

dimensions      [0 2 -3 0 0 0 0];

internalField   nonuniform List<scalar> 
6820
(
105.266
143.991
186.348
230.922
275.886
319.398
359.83
395.945
426.989
452.666
473.054
488.506
499.543
506.77
510.807
512.248
511.63
509.424
506.028
501.773
496.929
491.712
486.289
480.795
475.328
469.965
464.76
459.762
454.958
450.584
445.576
445.259
423.811
8.29011
15.9003
22.4184
28.6687
35.0357
41.4782
47.8159
53.8798
59.5369
64.6934
69.2983
73.3419
76.8456
79.8526
82.4179
84.6009
86.4609
88.0527
89.4256
90.622
91.6775
92.6215
93.4775
94.2638
94.9943
95.6791
96.3248
96.9355
97.5093
98.0603
98.5249
99.1509
99.2477
3.96314
5.25657
6.61244
7.86034
8.98633
10.02
10.9814
11.8766
12.7062
13.4706
14.1709
14.8095
15.3898
15.9163
16.3941
16.8288
17.2258
17.5905
17.9278
18.2425
18.5386
18.8196
19.0887
19.3484
19.6009
19.848
20.0908
20.3304
20.5671
20.8018
21.0329
21.2605
21.489
3.56001
3.77406
4.11206
4.49695
4.88093
5.24453
5.58216
5.89296
6.17759
6.43725
6.67339
6.88758
7.08141
7.25652
7.41453
7.55703
7.68553
7.80151
7.90635
8.00135
8.08771
8.16655
8.23891
8.30571
8.36781
8.42598
8.4809
8.5332
8.58342
8.6321
8.67962
8.72664
8.77331
3.52137
3.52456
3.57972
3.67702
3.8
3.93473
4.072
4.20644
4.3351
4.45643
4.56972
4.67473
4.7715
4.86025
4.94131
5.0151
5.08205
5.14262
5.19729
5.24651
5.29075
5.33044
5.366
5.39783
5.4263
5.45176
5.47454
5.49494
5.51323
5.52966
5.54447
5.55788
5.57008
3.5192
3.48502
3.46593
3.46518
3.48166
3.51175
3.55133
3.59673
3.64514
3.69452
3.74346
3.79099
3.83648
3.87953
3.91991
3.95749
3.99225
4.02421
4.05346
4.08007
4.10419
4.12594
4.14547
4.16291
4.17841
4.19211
4.20415
4.21466
4.22375
4.23154
4.23814
4.24361
4.24809
3.51939
3.47993
3.44464
3.41561
3.39411
3.3804
3.37385
3.37335
3.37763
3.38549
3.39589
3.40797
3.42103
3.43455
3.4481
3.4614
3.4742
3.48634
3.49773
3.50828
3.51795
3.52673
3.53461
3.54162
3.54776
3.55307
3.55758
3.56134
3.56437
3.56672
3.56841
3.56949
3.56999
3.51947
3.47945
3.44133
3.40568
3.37315
3.34425
3.31922
3.29806
3.28052
3.26626
3.25482
3.24577
3.23868
3.23318
3.22892
3.22562
3.22304
3.22098
3.21927
3.2178
3.21644
3.21513
3.21378
3.21236
3.21082
3.20914
3.20729
3.20527
3.20305
3.20065
3.19804
3.19524
3.19224
3.51948
3.47942
3.4409
3.40399
3.36885
3.33565
3.30457
3.27571
3.24914
3.22481
3.20264
3.18249
3.1642
3.14758
3.13245
3.11864
3.10598
3.09432
3.08353
3.07348
3.06407
3.05522
3.04683
3.03884
3.0312
3.02385
3.01675
3.00986
3.00315
2.9966
2.99017
2.98385
2.97762
3.51948
3.47942
3.44085
3.40374
3.36808
3.33388
3.30115
3.26994
3.24026
3.21213
3.18553
3.16045
3.13683
3.1146
3.0937
3.07403
3.05552
3.03808
3.02161
3.00605
2.99131
2.97732
2.96403
2.95136
2.93926
2.92768
2.91659
2.90592
2.89566
2.88577
2.87621
2.86695
2.85798
3.51948
3.47941
3.44083
3.40369
3.36795
3.33354
3.30044
3.26862
3.23804
3.20871
3.18058
3.15365
3.1279
3.10327
3.07975
3.0573
3.03586
3.01539
2.99584
2.97717
2.95932
2.94226
2.92593
2.91028
2.89529
2.8809
2.86708
2.8538
2.84101
2.8287
2.81683
2.80538
2.79431
3.51948
3.47941
3.44082
3.40367
3.36791
3.33347
3.30029
3.26833
3.23753
3.20787
3.17929
3.15178
3.12529
3.0998
3.07527
3.05167
3.02898
3.00715
2.98616
2.96598
2.94656
2.92789
2.90992
2.89263
2.87598
2.85994
2.84449
2.8296
2.81524
2.80138
2.788
2.77507
2.76258
3.51948
3.47941
3.44081
3.40366
3.36789
3.33343
3.30024
3.26824
3.2374
3.20765
3.17896
3.15128
3.12458
3.09881
3.07394
3.04995
3.02679
3.00444
2.98286
2.96204
2.94194
2.92254
2.90381
2.88571
2.86824
2.85136
2.83506
2.8193
2.80406
2.78933
2.77509
2.7613
2.74796
3.51948
3.4794
3.44081
3.40365
3.36787
3.33341
3.30021
3.2682
3.23734
3.20757
3.17885
3.15113
3.12436
3.09851
3.07355
3.04943
3.02612
3.00359
2.98181
2.96075
2.94039
2.92069
2.90165
2.88322
2.86539
2.84813
2.83143
2.81526
2.7996
2.78444
2.76975
2.75552
2.74172
3.51948
3.4794
3.4408
3.40364
3.36786
3.33339
3.30018
3.26817
3.2373
3.20752
3.17879
3.15105
3.12427
3.0984
3.0734
3.04924
3.02588
3.00329
2.98144
2.96031
2.93985
2.92006
2.90089
2.88234
2.86436
2.84696
2.83009
2.81375
2.79791
2.78255
2.76767
2.75323
2.73922
3.51948
3.4794
3.4408
3.40363
3.36785
3.33338
3.30016
3.26814
3.23727
3.20748
3.17874
3.15099
3.1242
3.09832
3.07331
3.04913
3.02576
3.00315
2.98128
2.96012
2.93963
2.9198
2.90059
2.88199
2.86396
2.8465
2.82957
2.81316
2.79725
2.78181
2.76684
2.75232
2.73822
3.51948
3.47939
3.44079
3.40362
3.36784
3.33336
3.30014
3.26812
3.23724
3.20745
3.1787
3.15094
3.12414
3.09825
3.07323
3.04905
3.02567
3.00305
2.98117
2.95999
2.93949
2.91964
2.90042
2.8818
2.86375
2.84626
2.82931
2.81287
2.79693
2.78146
2.76646
2.7519
2.73776
3.51947
3.47939
3.44079
3.40362
3.36783
3.33335
3.30012
3.2681
3.23721
3.20741
3.17866
3.1509
3.12409
3.09819
3.07317
3.04898
3.02559
3.00296
2.98107
2.95989
2.93938
2.91952
2.90029
2.88165
2.8636
2.8461
2.82913
2.81268
2.79672
2.78124
2.76622
2.75164
2.73748
3.51947
3.47939
3.44078
3.40361
3.36782
3.33334
3.30011
3.26808
3.23718
3.20738
3.17862
3.15086
3.12404
3.09814
3.07311
3.04891
3.02551
3.00288
2.98098
2.95979
2.93928
2.91941
2.90017
2.88153
2.86346
2.84595
2.82898
2.81251
2.79655
2.78106
2.76602
2.75143
2.73727
3.51947
3.47939
3.44078
3.40361
3.36781
3.33333
3.3001
3.26806
3.23716
3.20736
3.17859
3.15082
3.124
3.09809
3.07306
3.04885
3.02545
3.00281
2.9809
2.95971
2.93918
2.91931
2.90006
2.88141
2.86334
2.84582
2.82884
2.81237
2.79639
2.78089
2.76585
2.75125
2.73708
3.51947
3.47939
3.44078
3.4036
3.36781
3.33332
3.30008
3.26804
3.23714
3.20733
3.17856
3.15079
3.12396
3.09805
3.07301
3.0488
3.02539
3.00274
2.98083
2.95963
2.9391
2.91922
2.89996
2.88131
2.86323
2.8457
2.82871
2.81223
2.79625
2.78074
2.76569
2.75108
2.7369
3.51947
3.47939
3.44078
3.4036
3.3678
3.33331
3.30007
3.26803
3.23713
3.20731
3.17854
3.15076
3.12393
3.09801
3.07296
3.04875
3.02533
3.00268
2.98076
2.95955
2.93902
2.91913
2.89987
2.88121
2.86312
2.84559
2.82859
2.81211
2.79611
2.7806
2.76554
2.75093
2.73674
3.51947
3.47939
3.44077
3.4036
3.3678
3.3333
3.30006
3.26802
3.23711
3.20729
3.17852
3.15073
3.1239
3.09798
3.07292
3.0487
3.02528
3.00263
2.9807
2.95949
2.93895
2.91905
2.89979
2.88112
2.86302
2.84549
2.82848
2.81199
2.79599
2.78047
2.76541
2.75079
2.73659
3.51947
3.47939
3.44077
3.4036
3.36779
3.3333
3.30006
3.26801
3.2371
3.20728
3.1785
3.15071
3.12387
3.09794
3.07289
3.04866
3.02524
3.00258
2.98065
2.95943
2.93888
2.91898
2.89971
2.88103
2.86294
2.84539
2.82838
2.81188
2.79588
2.78035
2.76528
2.75066
2.73645
3.51947
3.47938
3.44077
3.40359
3.36779
3.33329
3.30005
3.268
3.23709
3.20726
3.17848
3.15069
3.12385
3.09792
3.07285
3.04863
3.0252
3.00253
2.9806
2.95937
2.93882
2.91892
2.89964
2.88096
2.86286
2.84531
2.82829
2.81179
2.79578
2.78024
2.76517
2.75054
2.73633
3.51947
3.47938
3.44077
3.40359
3.36779
3.33329
3.30004
3.26799
3.23708
3.20725
3.17847
3.15067
3.12383
3.09789
3.07283
3.0486
3.02516
3.00249
2.98056
2.95932
2.93877
2.91886
2.89958
2.88089
2.86278
2.84523
2.82821
2.8117
2.79568
2.78014
2.76506
2.75043
2.73621
3.51947
3.47938
3.44077
3.40359
3.36778
3.33329
3.30004
3.26799
3.23707
3.20724
3.17845
3.15066
3.12381
3.09787
3.0728
3.04857
3.02513
3.00246
2.98052
2.95928
2.93872
2.91881
2.89952
2.88083
2.86272
2.84516
2.82813
2.81162
2.7956
2.78006
2.76497
2.75033
2.73611
3.51947
3.47938
3.44077
3.40359
3.36778
3.33328
3.30004
3.26798
3.23706
3.20723
3.17844
3.15064
3.1238
3.09785
3.07278
3.04854
3.0251
3.00243
2.98048
2.95925
2.93868
2.91877
2.89947
2.88078
2.86266
2.8451
2.82807
2.81155
2.79553
2.77998
2.76489
2.75024
2.73602
3.51947
3.47938
3.44077
3.40359
3.36778
3.33328
3.30003
3.26798
3.23706
3.20723
3.17844
3.15063
3.12378
3.09784
3.07277
3.04853
3.02508
3.0024
2.98046
2.95921
2.93865
2.91873
2.89943
2.88074
2.86261
2.84505
2.82801
2.81149
2.79546
2.77991
2.76482
2.75017
2.73594
3.51947
3.47938
3.44077
3.40359
3.36778
3.33328
3.30003
3.26797
3.23706
3.20722
3.17843
3.15063
3.12377
3.09783
3.07275
3.04851
3.02507
3.00238
2.98044
2.95919
2.93862
2.9187
2.8994
2.8807
2.86258
2.84501
2.82797
2.81144
2.79541
2.77986
2.76476
2.75011
2.73588
3.51947
3.47938
3.44077
3.40359
3.36778
3.33328
3.30003
3.26797
3.23705
3.20722
3.17842
3.15062
3.12377
3.09782
3.07274
3.0485
3.02505
3.00237
2.98042
2.95917
2.9386
2.91868
2.89938
2.88068
2.86255
2.84498
2.82794
2.81141
2.79538
2.77983
2.76473
2.75008
2.73585
3.51947
3.47938
3.44077
3.40359
3.36778
3.33328
3.30003
3.26797
3.23705
3.20722
3.17842
3.15062
3.12377
3.09782
3.07275
3.0485
3.02506
3.00238
2.98043
2.95919
2.93862
2.9187
2.8994
2.88071
2.86259
2.84502
2.82799
2.81147
2.79545
2.7799
2.76482
2.75018
2.73596
3.51947
3.47938
3.44077
3.40359
3.36778
3.33328
3.30003
3.26797
3.23705
3.20722
3.17843
3.15063
3.12378
3.09785
3.07278
3.04855
3.02512
3.00246
2.98053
2.95931
2.93877
2.91888
2.89962
2.88097
2.86289
2.84537
2.82839
2.81192
2.79595
2.78047
2.76544
2.75087
2.73672
3.51947
3.47938
3.44077
3.40359
3.36778
3.33329
3.30005
3.26801
3.23712
3.20732
3.17858
3.15083
3.12404
3.09818
3.0732
3.04906
3.02574
3.0032
2.98141
2.96034
2.93996
2.92024
2.90117
2.88271
2.86484
2.84754
2.83079
2.81457
2.79885
2.78362
2.76886
2.75455
2.74068
3.51947
3.47938
3.44078
3.40362
3.36785
3.33343
3.30029
3.26839
3.23768
3.20811
3.17965
3.15224
3.12585
3.10044
3.07597
3.05239
3.02968
3.00781
2.98672
2.9664
2.94681
2.92792
2.9097
2.89212
2.87516
2.85879
2.84298
2.82771
2.81296
2.7987
2.78492
2.7716
2.75871
3.51947
3.47942
3.44096
3.40413
3.36894
3.33533
3.30327
3.27269
3.24354
3.21576
3.1893
3.1641
3.1401
3.11725
3.09548
3.07475
3.05499
3.03615
3.01818
3.00102
2.98464
2.96898
2.95401
2.93967
2.92594
2.91278
2.90016
2.88804
2.8764
2.86521
2.85444
2.84407
2.83408
3.5195
3.48076
3.44539
3.41321
3.38398
3.35748
3.33355
3.312
3.29267
3.27534
3.25985
3.246
3.23362
3.22255
3.21264
3.20375
3.19576
3.18856
3.18205
3.17615
3.17077
3.16586
3.16134
3.15717
3.1533
3.1497
3.14632
3.14314
3.14012
3.13725
3.13451
3.13188
3.12934
3.52507
3.51485
3.52106
3.53658
3.55849
3.58526
3.61586
3.64937
3.68497
3.72199
3.75986
3.79815
3.8365
3.87462
3.91228
3.94933
3.98562
4.02105
4.05557
4.0891
4.12164
4.15314
4.18362
4.21307
4.2415
4.26892
4.29535
4.32083
4.34536
4.36898
4.39171
4.41359
4.43465
3.842
4.3878
4.87743
5.34253
5.79464
6.23526
6.66236
7.07459
7.47195
7.85505
8.22464
8.58149
8.92638
9.26002
9.58306
9.89606
10.1995
10.4938
10.7794
11.0566
11.3257
11.5869
11.8406
12.0869
12.3261
12.5583
12.7839
13.0029
13.2156
13.4222
13.6228
13.8176
14.0068
30.2673
32.7691
35.3054
37.8487
40.3863
42.91
45.4131
47.8885
50.3296
52.7305
55.0859
57.3912
59.6424
61.8362
63.9699
66.0414
68.0491
69.9918
71.869
73.6802
75.4257
77.1057
78.721
80.2724
81.761
83.1881
84.5551
85.8635
87.1149
88.3109
89.4535
90.544
91.5855
487.134
554.916
605.694
643.544
673.055
695.242
709.044
713.314
707.842
693.749
673.137
648.448
621.917
595.24
569.489
545.177
522.414
501.076
480.95
461.827
443.558
426.061
409.315
393.328
378.122
363.708
350.081
337.218
325.083
313.629
302.805
292.56
282.845
273.61
264.807
256.388
248.306
240.514
232.966
225.619
218.434
211.372
204.403
197.499
190.638
183.803
176.983
170.173
163.373
156.59
149.835
143.122
136.472
129.909
123.456
117.141
110.991
105.033
99.2916
93.7895
88.5467
83.5791
78.8988
74.5136
70.4271
66.6388
63.1441
59.9354
57.0018
54.3301
51.9052
49.7106
47.7289
45.9423
44.3327
42.8824
41.574
40.3908
39.3169
38.3373
37.4381
36.6064
35.8305
35.0997
34.4047
33.7372
33.09
32.4568
31.8326
31.2128
30.5939
29.9732
29.3483
28.7173
28.0793
27.432
26.7792
26.1027
25.4839
24.4856
100.038
103.293
108.909
116.983
127.842
141.781
158.89
178.961
201.421
225.364
249.652
273.064
294.447
312.839
327.566
338.286
344.984
347.933
347.611
344.614
339.566
333.042
325.524
317.38
308.869
300.163
291.373
282.574
273.822
265.161
256.63
248.262
240.081
232.099
224.32
216.74
209.347
202.125
195.055
188.117
181.293
174.566
167.92
161.343
154.825
148.363
141.953
135.599
129.308
123.089
116.957
110.929
105.024
99.264
93.67
88.2644
83.0683
78.1011
73.3799
68.919
64.7291
60.8174
57.1871
53.8381
50.7665
47.9654
45.4252
43.134
41.078
39.2425
37.6115
36.1688
34.8979
33.7826
32.8069
31.9553
31.2129
30.5654
29.9994
29.5021
29.0617
28.667
28.3081
27.9757
27.6615
27.3581
27.0592
26.759
26.4531
26.1373
25.8086
25.4643
25.1026
24.722
24.3217
23.9
23.4603
22.988
22.5485
21.8041
21.7327
22.0583
22.5151
23.0961
23.882
24.9729
26.4872
28.5664
31.3729
35.0816
39.8658
45.8776
53.2254
61.9496
72.0015
83.228
95.3656
108.049
120.834
133.234
144.774
155.035
163.703
170.592
175.651
178.947
180.638
180.932
180.057
178.231
175.649
172.472
168.83
164.824
160.532
156.015
151.324
146.495
141.561
136.548
131.476
126.365
121.228
116.08
110.934
105.804
100.703
95.648
90.6545
85.7405
80.9247
76.2266
71.6658
67.2616
63.0324
58.995
55.1641
51.5519
48.1677
45.0177
42.1049
39.429
36.9871
34.7733
32.7797
30.9965
29.4125
28.0155
26.7928
25.7313
24.8181
24.0404
23.3855
22.8416
22.3968
22.0402
21.7608
21.5485
21.3933
21.2857
21.2166
21.1775
21.16
21.1567
21.1603
21.1644
21.1632
21.1515
21.1248
21.0792
21.0116
20.9193
20.8004
20.6533
20.477
20.2702
20.0354
19.7616
19.4966
19.0056
8.83112
8.90053
8.97631
9.06149
9.15093
9.25115
9.37336
9.53245
9.74748
10.0422
10.4456
10.9928
11.7256
12.6934
13.953
15.5678
17.6052
20.1312
23.2021
26.8541
31.0916
35.8783
41.1309
46.7201
52.4779
58.2118
63.7228
68.8245
73.3604
77.2149
80.3186
82.6465
84.212
85.0571
85.2426
84.8392
83.92
82.5557
80.8123
78.749
76.4191
73.8696
71.1426
68.2761
65.3045
62.2597
59.1713
56.067
52.9729
49.9137
46.9123
43.99
41.1658
38.4571
35.8783
33.4417
31.1563
29.0288
27.0628
25.2595
23.6176
22.1337
20.8026
19.6178
18.572
17.657
16.8644
16.1858
15.6129
15.1376
14.7525
14.4503
14.2242
14.0679
13.9751
13.9401
13.9569
14.0199
14.1233
14.2612
14.4277
14.6169
14.8227
15.0392
15.2604
15.4806
15.6944
15.8967
16.0828
16.2485
16.3902
16.5046
16.5893
16.6419
16.6611
16.645
16.5949
16.5032
16.3991
16.1497
5.58312
5.5971
5.61054
5.62393
5.63602
5.64706
5.65805
5.67059
5.68699
5.71034
5.74459
5.79465
5.86651
5.96735
6.1057
6.29153
6.53643
6.85358
7.25779
7.76522
8.39295
9.15826
10.0774
11.1638
12.4258
13.864
15.4686
17.2174
19.0757
20.997
22.9258
24.8021
26.5658
28.1619
29.5436
30.6759
31.5362
32.1144
32.4115
32.4383
32.2125
31.7574
31.0993
30.2665
29.2876
28.191
27.0042
25.753
24.4616
23.1522
21.8448
20.557
19.3042
18.0992
16.9523
15.8716
14.8629
13.9298
13.0741
12.2961
11.5946
10.9675
10.412
9.9247
9.50205
9.14036
8.83606
8.58577
8.38636
8.23503
8.12926
8.06687
8.04589
8.06457
8.1213
8.21448
8.34247
8.50346
8.69541
8.91594
9.16229
9.43127
9.71923
10.0222
10.3356
10.6549
10.9753
11.2917
11.5994
11.8936
12.1699
12.4244
12.6533
12.8535
13.0224
13.1573
13.2576
13.3185
13.3508
13.3161
4.25202
4.25511
4.25689
4.25749
4.25673
4.25464
4.25136
4.24713
4.24229
4.23738
4.23308
4.2303
4.23019
4.23412
4.24376
4.26106
4.28825
4.32785
4.38267
4.45575
4.55035
4.66985
4.81765
4.9971
5.21127
5.46271
5.75321
6.08339
6.45236
6.8574
7.29361
7.75385
8.22869
8.70668
9.17486
9.61945
10.0267
10.3839
10.6798
10.906
11.0567
11.1292
11.1239
11.044
10.8948
10.6838
10.4195
10.1113
9.76893
9.40196
9.01949
8.62989
8.24061
7.85805
7.48756
7.1334
6.79882
6.48619
6.19705
5.93227
5.69222
5.47683
5.28575
5.11845
4.9743
4.85265
4.75291
4.67455
4.61718
4.58055
4.56458
4.56932
4.59502
4.64201
4.71076
4.80181
4.91567
5.05283
5.21362
5.39814
5.60619
5.83714
6.08989
6.36279
6.6536
6.9595
7.27714
7.60266
7.93185
8.26024
8.58323
8.89622
9.19476
9.4746
9.73193
9.96306
10.1653
10.3359
10.4688
10.6049
3.5698
3.56863
3.56648
3.56333
3.55916
3.55397
3.5478
3.54071
3.53276
3.52408
3.51483
3.50519
3.49544
3.4859
3.47697
3.4691
3.46286
3.45887
3.45784
3.46055
3.46784
3.48056
3.49959
3.52577
3.55987
3.60256
3.65433
3.71546
3.78594
3.86545
3.95327
4.04828
4.1489
4.25313
4.35856
4.46248
4.56189
4.65376
4.73508
4.80308
4.85537
4.89008
4.90596
4.90244
4.87962
4.83829
4.77976
4.70585
4.61873
4.52076
4.41444
4.30221
4.18644
4.06929
3.95271
3.83839
3.72775
3.62195
3.5219
3.42832
3.34173
3.26251
3.19092
3.12716
3.07135
3.02364
2.98413
2.953
2.93046
2.91679
2.91234
2.91758
2.93306
2.95946
2.99756
3.04824
3.11248
3.19131
3.28583
3.3971
3.52612
3.67375
3.84064
4.02709
4.23301
4.45783
4.7004
4.95897
5.23119
5.51412
5.8043
6.09787
6.39065
6.67829
6.95647
7.22089
7.46732
7.69422
7.8828
8.13004
3.18844
3.18364
3.17826
3.17226
3.16562
3.15834
3.1504
3.14181
3.1326
3.12279
3.11242
3.10154
3.09022
3.07854
3.06661
3.05454
3.04247
3.03059
3.01908
3.00816
2.99808
2.98911
2.98151
2.97557
2.97155
2.96971
2.97023
2.97328
2.9789
2.98709
2.99771
3.01052
3.02515
3.04112
3.05783
3.07458
3.0906
3.10507
3.11716
3.12606
3.13104
3.13146
3.12683
3.11679
3.10119
3.08004
3.05353
3.02199
2.98592
2.94591
2.9026
2.85671
2.80896
2.76005
2.71064
2.66137
2.61277
2.56534
2.51951
2.47561
2.43396
2.39478
2.3583
2.32467
2.29407
2.26663
2.24251
2.22187
2.20492
2.19188
2.18303
2.17869
2.17927
2.18524
2.19714
2.21561
2.24139
2.27529
2.31823
2.3712
2.43524
2.51144
2.60088
2.7046
2.82349
2.95829
3.10942
3.27696
3.46055
3.6593
3.87177
4.09594
4.32926
4.56863
4.81058
5.05138
5.28654
5.51579
5.71314
6.0033
2.97043
2.96209
2.95348
2.94457
2.93533
2.92574
2.91579
2.90545
2.89474
2.88365
2.87218
2.86034
2.84816
2.83565
2.82283
2.80974
2.79641
2.78288
2.7692
2.75544
2.74166
2.72793
2.71435
2.70099
2.68796
2.67534
2.66323
2.6517
2.64081
2.63059
2.62104
2.61213
2.60378
2.59588
2.58828
2.58079
2.57317
2.5652
2.55659
2.54711
2.53649
2.52452
2.511
2.49578
2.47877
2.45993
2.43928
2.41689
2.39287
2.36741
2.3407
2.31295
2.28443
2.25537
2.22601
2.19659
2.16733
2.13842
2.11005
2.08237
2.05552
2.02962
2.00476
1.98105
1.95857
1.9374
1.91763
1.89935
1.88268
1.86775
1.85472
1.84376
1.83511
1.82904
1.82587
1.82597
1.82978
1.8378
1.85062
1.86888
1.89333
1.92474
1.964
2.01199
2.06967
2.13796
2.21772
2.30972
2.41455
2.53258
2.66384
2.80798
2.96419
3.1312
3.30721
3.49004
3.6763
3.86707
4.0359
4.30694
2.84783
2.83632
2.82475
2.81307
2.80127
2.78932
2.77721
2.76493
2.75246
2.73979
2.72691
2.71384
2.70055
2.68705
2.67336
2.65946
2.64537
2.63109
2.61664
2.60202
2.58724
2.57233
2.5573
2.54217
2.52698
2.51174
2.4965
2.48127
2.4661
2.451
2.43598
2.42107
2.40625
2.39151
2.37682
2.36213
2.3474
2.33255
2.31751
2.3022
2.28654
2.27046
2.25388
2.23676
2.21905
2.20073
2.1818
2.16226
2.14217
2.12156
2.10051
2.07909
2.05738
2.03547
2.01346
1.99144
1.96947
1.94765
1.92604
1.90471
1.8837
1.86308
1.84287
1.82313
1.80388
1.78516
1.76702
1.74949
1.73264
1.71652
1.70123
1.68684
1.67349
1.66132
1.65049
1.64122
1.63375
1.62836
1.62538
1.6252
1.62827
1.63506
1.64615
1.66214
1.6837
1.71153
1.74636
1.78894
1.83997
1.90012
1.96993
2.04979
2.13986
2.24003
2.34985
2.46861
2.59441
2.72933
2.8515
3.06395
2.78184
2.76781
2.7538
2.73979
2.72578
2.71174
2.69765
2.68352
2.66931
2.65504
2.64068
2.62623
2.61169
2.59705
2.58232
2.56747
2.55252
2.53747
2.52231
2.50703
2.49164
2.47615
2.46053
2.44481
2.42898
2.41304
2.39701
2.38088
2.36467
2.34839
2.33204
2.31564
2.29919
2.28269
2.26615
2.24956
2.23291
2.2162
2.19941
2.18252
2.16552
2.14839
2.13111
2.11366
2.09604
2.07824
2.06026
2.0421
2.02379
2.00532
1.98674
1.96805
1.9493
1.9305
1.9117
1.89292
1.87418
1.85552
1.83695
1.8185
1.80017
1.78199
1.76395
1.74608
1.72839
1.71088
1.69356
1.67646
1.6596
1.64301
1.62672
1.61079
1.59526
1.58022
1.56576
1.55197
1.53901
1.52701
1.51616
1.50668
1.49881
1.49284
1.48911
1.48797
1.48986
1.49521
1.50454
1.51838
1.53726
1.56175
1.59239
1.62968
1.67405
1.72581
1.78509
1.85195
1.92559
2.0082
2.08447
2.22766
2.74851
2.7327
2.71692
2.70119
2.68549
2.66981
2.65415
2.63849
2.62283
2.60717
2.59149
2.57579
2.56007
2.54432
2.52854
2.51273
2.49688
2.481
2.46507
2.4491
2.43309
2.41702
2.4009
2.38472
2.36848
2.35218
2.33581
2.31938
2.30287
2.2863
2.26967
2.25298
2.23622
2.21942
2.20257
2.18567
2.16873
2.15176
2.13475
2.1177
2.10063
2.08352
2.06638
2.04921
2.03202
2.0148
1.99755
1.98029
1.96302
1.94574
1.92846
1.91119
1.89393
1.8767
1.8595
1.84233
1.8252
1.80811
1.79106
1.77406
1.75709
1.74015
1.72325
1.70637
1.68952
1.67269
1.65589
1.63911
1.62237
1.60567
1.58903
1.57248
1.55604
1.53975
1.52365
1.50781
1.4923
1.47719
1.46258
1.44859
1.43536
1.42305
1.41183
1.40194
1.3936
1.38709
1.38273
1.38084
1.38179
1.38597
1.39379
1.40565
1.42193
1.443
1.46914
1.50063
1.53722
1.58065
1.6216
1.70514
2.73291
2.71598
2.69908
2.68222
2.66539
2.64859
2.63182
2.61507
2.59834
2.58162
2.56492
2.54824
2.53156
2.51489
2.49823
2.48158
2.46493
2.44828
2.43165
2.41501
2.39838
2.38174
2.3651
2.34846
2.33181
2.31514
2.29846
2.28177
2.26505
2.24832
2.23156
2.21479
2.19799
2.18118
2.16435
2.14751
2.13066
2.11381
2.09696
2.08012
2.06329
2.04647
2.02967
2.0129
1.99616
1.97945
1.96278
1.94615
1.92956
1.91302
1.89652
1.88006
1.86365
1.84729
1.83096
1.81467
1.7984
1.78216
1.76593
1.7497
1.73347
1.71722
1.70094
1.68463
1.66827
1.65185
1.63538
1.61885
1.60226
1.5856
1.5689
1.55215
1.53538
1.51859
1.50182
1.48511
1.46847
1.45197
1.43565
1.41958
1.40384
1.3885
1.37368
1.35949
1.34607
1.33357
1.32217
1.31208
1.30351
1.29672
1.29196
1.28951
1.28967
1.29272
1.29891
1.30853
1.32158
1.33916
1.35647
1.39683
2.72615
2.7086
2.69106
2.67355
2.65605
2.63858
2.62112
2.60368
2.58625
2.56885
2.55146
2.53409
2.51674
2.49941
2.4821
2.46481
2.44754
2.4303
2.41308
2.39589
2.37873
2.3616
2.34449
2.32741
2.31036
2.29333
2.27633
2.25936
2.2424
2.22547
2.20856
2.19167
2.17481
2.15796
2.14115
2.12435
2.10759
2.09086
2.07417
2.05751
2.0409
2.02434
2.00783
1.99137
1.97497
1.95863
1.94235
1.92614
1.90999
1.89391
1.87788
1.86192
1.846
1.83014
1.81431
1.79851
1.78273
1.76696
1.75118
1.73539
1.71957
1.70371
1.68779
1.6718
1.65574
1.63958
1.62333
1.60698
1.59052
1.57396
1.55729
1.54052
1.52366
1.50672
1.48971
1.47266
1.45558
1.4385
1.42145
1.40448
1.38761
1.37091
1.35443
1.33824
1.32241
1.30703
1.29219
1.27802
1.26464
1.25219
1.24085
1.23077
1.22215
1.21518
1.21006
1.207
1.2061
1.2079
1.21068
1.2228
2.7234
2.70554
2.68769
2.66983
2.65199
2.63415
2.61631
2.59848
2.58066
2.56285
2.54505
2.52727
2.5095
2.49174
2.47401
2.4563
2.43861
2.42095
2.40333
2.38574
2.36818
2.35066
2.33319
2.31576
2.29837
2.28103
2.26374
2.24649
2.2293
2.21215
2.19506
2.17802
2.16103
2.14409
2.12721
2.11039
2.09363
2.07693
2.0603
2.04373
2.02723
2.0108
1.99445
1.97817
1.96197
1.94585
1.9298
1.91383
1.89794
1.88212
1.86637
1.85068
1.83504
1.81945
1.8039
1.78837
1.77286
1.75735
1.74183
1.72628
1.71069
1.69505
1.67933
1.66354
1.64765
1.63166
1.61556
1.59934
1.58299
1.56651
1.54991
1.53319
1.51634
1.49938
1.48231
1.46516
1.44793
1.43064
1.41332
1.39598
1.37866
1.36139
1.34419
1.32712
1.31021
1.29351
1.27708
1.26099
1.2453
1.23009
1.21547
1.20153
1.18838
1.17615
1.16496
1.15495
1.14625
1.13898
1.13338
1.12831
2.72228
2.70429
2.68629
2.66828
2.65026
2.63224
2.61422
2.5962
2.57817
2.56015
2.54213
2.52412
2.50612
2.48812
2.47014
2.45218
2.43424
2.41633
2.39845
2.38059
2.36278
2.345
2.32727
2.30959
2.29195
2.27437
2.25685
2.23938
2.22198
2.20464
2.18737
2.17017
2.15304
2.13598
2.119
2.10209
2.08527
2.06852
2.05186
2.03529
2.0188
2.00241
1.9861
1.96989
1.95376
1.93773
1.92179
1.90593
1.89016
1.87446
1.85884
1.84328
1.82778
1.81233
1.79692
1.78153
1.76615
1.75077
1.73538
1.71996
1.70449
1.68897
1.67337
1.65769
1.64191
1.62602
1.61001
1.59388
1.57761
1.56121
1.54468
1.52801
1.51121
1.49428
1.47723
1.46008
1.44282
1.42549
1.40809
1.39064
1.37316
1.35568
1.33821
1.32078
1.30342
1.28616
1.26904
1.25209
1.23536
1.21889
1.20272
1.18693
1.17158
1.15673
1.14247
1.12887
1.11606
1.10388
1.09372
1.07882
2.72177
2.70372
2.68566
2.66758
2.64949
2.63139
2.61328
2.59516
2.57704
2.55892
2.54079
2.52267
2.50454
2.48643
2.46832
2.45023
2.43215
2.41409
2.39606
2.37805
2.36008
2.34215
2.32425
2.3064
2.28861
2.27086
2.25317
2.23555
2.21799
2.20049
2.18307
2.16573
2.14847
2.13128
2.11419
2.09718
2.08026
2.06343
2.0467
2.03007
2.01354
1.99711
1.98078
1.96455
1.94842
1.93239
1.91646
1.90062
1.88487
1.86921
1.85362
1.83811
1.82265
1.80725
1.79188
1.77655
1.76122
1.7459
1.73056
1.7152
1.69979
1.68432
1.66878
1.65315
1.63743
1.6216
1.60566
1.58958
1.57338
1.55704
1.54056
1.52395
1.5072
1.49033
1.47333
1.45621
1.43899
1.42167
1.40428
1.38682
1.36932
1.35178
1.33423
1.31669
1.29917
1.28171
1.26432
1.24702
1.22985
1.21283
1.19599
1.17937
1.16301
1.14694
1.13121
1.11586
1.10102
1.08633
1.07386
1.05367
2.72147
2.70339
2.6853
2.66719
2.64906
2.63093
2.61278
2.59462
2.57646
2.55828
2.54011
2.52193
2.50375
2.48557
2.4674
2.44924
2.43109
2.41296
2.39485
2.37676
2.3587
2.34067
2.32268
2.30473
2.28683
2.26898
2.25118
2.23344
2.21577
2.19817
2.18063
2.16318
2.1458
2.12851
2.11131
2.0942
2.07718
2.06027
2.04345
2.02674
2.01013
1.99363
1.97723
1.96095
1.94477
1.92869
1.91272
1.89685
1.88107
1.86538
1.84978
1.83424
1.81877
1.80336
1.78799
1.77265
1.75733
1.74201
1.72668
1.71133
1.69593
1.68049
1.66497
1.64937
1.63368
1.61789
1.60198
1.58595
1.56979
1.55349
1.53707
1.52051
1.50381
1.48699
1.47004
1.45298
1.4358
1.41854
1.40118
1.38376
1.36628
1.34876
1.33122
1.31367
1.29612
1.2786
1.26113
1.24372
1.22639
1.20917
1.19206
1.1751
1.15831
1.14171
1.12533
1.10918
1.09339
1.07751
1.06392
1.04106
2.72124
2.70315
2.68504
2.66691
2.64876
2.63061
2.61244
2.59426
2.57607
2.55788
2.53968
2.52147
2.50326
2.48506
2.46686
2.44866
2.43048
2.4123
2.39415
2.37602
2.35791
2.33983
2.32178
2.30377
2.2858
2.26788
2.25001
2.2322
2.21445
2.19676
2.17914
2.1616
2.14414
2.12676
2.10947
2.09227
2.07516
2.05816
2.04125
2.02446
2.00777
1.99118
1.97471
1.95835
1.9421
1.92595
1.90992
1.89398
1.87814
1.8624
1.84674
1.83116
1.81564
1.80019
1.78478
1.76941
1.75406
1.73872
1.72337
1.708
1.6926
1.67715
1.66163
1.64604
1.63036
1.61459
1.5987
1.5827
1.56657
1.55032
1.53393
1.51742
1.50077
1.484
1.4671
1.45009
1.43298
1.41577
1.39847
1.3811
1.36367
1.3462
1.32869
1.31117
1.29365
1.27615
1.25868
1.24126
1.2239
1.20662
1.18943
1.17235
1.1554
1.13859
1.12195
1.10546
1.08926
1.07285
1.05877
1.03465
2.72104
2.70294
2.68481
2.66667
2.64851
2.63034
2.61216
2.59397
2.57577
2.55756
2.53934
2.52112
2.5029
2.48467
2.46645
2.44824
2.43003
2.41184
2.39366
2.3755
2.35736
2.33925
2.32116
2.30311
2.2851
2.26714
2.24922
2.23135
2.21354
2.1958
2.17812
2.16051
2.14297
2.12552
2.10816
2.09088
2.0737
2.05661
2.03963
2.02275
2.00598
1.98931
1.97276
1.95632
1.93998
1.92376
1.90765
1.89164
1.87573
1.85991
1.84419
1.82854
1.81297
1.79746
1.782
1.76658
1.75118
1.7358
1.72042
1.70502
1.68959
1.67413
1.6586
1.643
1.62733
1.61156
1.59568
1.5797
1.5636
1.54738
1.53103
1.51455
1.49795
1.48123
1.46438
1.44743
1.43037
1.41321
1.39598
1.37866
1.36129
1.34388
1.32643
1.30896
1.29149
1.27403
1.2566
1.2392
1.22187
1.2046
1.18741
1.17031
1.15332
1.13646
1.11973
1.10312
1.08677
1.07014
1.05586
1.03119
2.72086
2.70274
2.6846
2.66645
2.64829
2.6301
2.61191
2.59371
2.57549
2.55727
2.53905
2.52081
2.50258
2.48434
2.46611
2.44788
2.42966
2.41145
2.39326
2.37507
2.35691
2.33878
2.32067
2.30259
2.28455
2.26655
2.24859
2.23068
2.21283
2.19504
2.1773
2.15964
2.14205
2.12454
2.10711
2.08976
2.07251
2.05536
2.0383
2.02134
2.00449
1.98775
1.97112
1.9546
1.93819
1.92189
1.90569
1.88961
1.87362
1.85773
1.84193
1.82622
1.81058
1.795
1.77948
1.764
1.74856
1.73313
1.71771
1.70227
1.68682
1.67132
1.65578
1.64017
1.62449
1.60872
1.59286
1.57689
1.5608
1.54461
1.52829
1.51185
1.49529
1.47861
1.46182
1.44492
1.42791
1.41082
1.39364
1.37639
1.35908
1.34172
1.32433
1.30692
1.28951
1.27211
1.25473
1.23738
1.22009
1.20285
1.1857
1.16863
1.15166
1.13479
1.11805
1.10142
1.08503
1.06833
1.05399
1.0291
2.72069
2.70256
2.68442
2.66625
2.64808
2.62988
2.61168
2.59347
2.57524
2.55701
2.53877
2.52053
2.50229
2.48404
2.4658
2.44756
2.42933
2.4111
2.39289
2.37469
2.35652
2.33836
2.32023
2.30213
2.28406
2.26603
2.24804
2.2301
2.21221
2.19437
2.1766
2.15889
2.14125
2.12368
2.10619
2.08879
2.07148
2.05426
2.03713
2.02011
2.00319
1.98637
1.96967
1.95307
1.93658
1.92021
1.90394
1.88777
1.87171
1.85575
1.83988
1.82409
1.80838
1.79274
1.77716
1.76162
1.74612
1.73064
1.71517
1.6997
1.68421
1.66869
1.65313
1.6375
1.62181
1.60604
1.59018
1.57422
1.55816
1.54198
1.52569
1.50929
1.49277
1.47613
1.45939
1.44254
1.42559
1.40855
1.39143
1.37424
1.35699
1.3397
1.32237
1.30503
1.28768
1.27033
1.25301
1.23572
1.21848
1.2013
1.18419
1.16716
1.15023
1.13339
1.11668
1.10007
1.08368
1.06698
1.05263
1.02768
2.72053
2.70239
2.68424
2.66607
2.64788
2.62968
2.61147
2.59324
2.57501
2.55677
2.53852
2.52027
2.50202
2.48376
2.46551
2.44726
2.42901
2.41077
2.39255
2.37434
2.35614
2.33797
2.31982
2.3017
2.2836
2.26555
2.24753
2.22956
2.21163
2.19376
2.17595
2.15819
2.14051
2.1229
2.10536
2.0879
2.07053
2.05325
2.03607
2.01898
2.00199
1.98511
1.96833
1.95167
1.93511
1.91866
1.90231
1.88608
1.86994
1.85391
1.83796
1.82211
1.80633
1.79063
1.77498
1.75939
1.74383
1.72831
1.71279
1.69728
1.68175
1.6662
1.65062
1.63498
1.61928
1.6035
1.58764
1.57169
1.55564
1.53949
1.52323
1.50686
1.49038
1.47379
1.45709
1.44029
1.4234
1.40642
1.38936
1.37223
1.35505
1.33782
1.32056
1.30328
1.28599
1.26871
1.25145
1.23422
1.21704
1.19991
1.18286
1.16588
1.14899
1.1322
1.11552
1.09894
1.08258
1.06589
1.05157
1.02661
2.72038
2.70224
2.68408
2.6659
2.6477
2.62949
2.61127
2.59304
2.5748
2.55655
2.53829
2.52003
2.50176
2.4835
2.46523
2.44697
2.42871
2.41047
2.39223
2.374
2.35579
2.3376
2.31943
2.30129
2.28318
2.2651
2.24705
2.22905
2.2111
2.19319
2.17534
2.15755
2.13982
2.12216
2.10458
2.08707
2.06965
2.05232
2.03507
2.01793
2.00088
1.98393
1.96709
1.95036
1.93373
1.91721
1.9008
1.88449
1.86829
1.85218
1.83617
1.82025
1.80441
1.78864
1.77294
1.75729
1.74168
1.7261
1.71055
1.69499
1.67943
1.66386
1.64825
1.63259
1.61688
1.6011
1.58525
1.56931
1.55328
1.53715
1.52092
1.50459
1.48815