/*--------------------------------*- C++ -*----------------------------------*\
| =========                 |                                                 |
| \\      /  F ield         | OpenFOAM: The Open Source CFD Toolbox           |
|  \\    /   O peration     | Version:  4.1                                   |
|   \\  /    A nd           | Web:      www.OpenFOAM.org                      |
|    \\/     M anipulation  |                                                 |
\*---------------------------------------------------------------------------*/
FoamFile
{
    version     2.0;
    format      ascii;
    class       volScalarField;
    location    "600";
    object      k;
}
// * * * * * * * * * * * * * * * * * * * * * * * * * * * * * * * * * * * * * //

dimensions      [0 2 -2 0 0 0 0];

internalField   nonuniform List<scalar> 
6820
(
0.226697
0.279347
0.331744
0.382734
0.43093
0.475126
0.51442
0.54829
0.576587
0.599476
0.617344
0.630716
0.64018
0.64634
0.649768
0.650989
0.650466
0.648594
0.645709
0.642084
0.637945
0.633472
0.628806
0.624061
0.619321
0.614654
0.610107
0.605726
0.601498
0.597637
0.593201
0.592919
0.573722
0.207938
0.216621
0.219548
0.220394
0.221057
0.222078
0.223474
0.22514
0.226961
0.228846
0.230731
0.232584
0.234394
0.236162
0.237902
0.239628
0.241358
0.243107
0.244886
0.246707
0.248574
0.250492
0.252461
0.254478
0.256539
0.258638
0.260766
0.262915
0.265066
0.267234
0.269308
0.271642
0.273194
0.201064
0.204896
0.206826
0.206612
0.205168
0.203176
0.200968
0.198675
0.196348
0.194008
0.19167
0.189349
0.187063
0.184828
0.182661
0.180578
0.178592
0.176713
0.174949
0.173308
0.171791
0.170401
0.169138
0.167998
0.166981
0.166081
0.165293
0.164613
0.164033
0.163547
0.163144
0.162821
0.162547
0.199585
0.199595
0.199834
0.199709
0.199082
0.198053
0.196754
0.195281
0.193696
0.192037
0.19033
0.188591
0.186834
0.18507
0.183308
0.181557
0.179825
0.178118
0.176444
0.174806
0.17321
0.171659
0.170156
0.168704
0.167303
0.165957
0.164664
0.163426
0.162242
0.161112
0.160036
0.159013
0.15804
0.199411
0.198486
0.19779
0.197167
0.196484
0.195676
0.194737
0.193687
0.19255
0.191348
0.190098
0.188816
0.187511
0.186191
0.184864
0.183536
0.182211
0.180895
0.17959
0.1783
0.177029
0.175777
0.174549
0.173345
0.172168
0.171018
0.169896
0.168804
0.167742
0.166711
0.165711
0.164743
0.163807
0.199395
0.198258
0.197235
0.196308
0.195431
0.194563
0.193675
0.192755
0.191799
0.190812
0.189799
0.188765
0.187716
0.186657
0.185592
0.184526
0.183461
0.182401
0.181348
0.180303
0.17927
0.17825
0.177243
0.176253
0.175279
0.174322
0.173384
0.172466
0.171567
0.170689
0.169832
0.168996
0.168182
0.199395
0.198217
0.197099
0.196044
0.195047
0.194092
0.193165
0.192252
0.191343
0.190435
0.189525
0.188612
0.187697
0.186781
0.185867
0.184955
0.184048
0.183146
0.182252
0.181366
0.180489
0.179623
0.178769
0.177926
0.177097
0.176282
0.17548
0.174694
0.173922
0.173166
0.172426
0.171702
0.170995
0.199395
0.198211
0.19707
0.195974
0.194924
0.193917
0.192948
0.19201
0.191097
0.190204
0.189326
0.188462
0.187608
0.186764
0.185929
0.185103
0.184287
0.18348
0.182683
0.181896
0.181119
0.180354
0.179599
0.178857
0.178126
0.177408
0.176702
0.176009
0.17533
0.174663
0.17401
0.17337
0.172744
0.199395
0.19821
0.197064
0.195957
0.194889
0.19386
0.192867
0.191909
0.190981
0.190082
0.189208
0.188355
0.187523
0.186708
0.18591
0.185127
0.184358
0.183603
0.182862
0.182133
0.181417
0.180714
0.180023
0.179345
0.178679
0.178026
0.177385
0.176756
0.17614
0.175536
0.174945
0.174365
0.173798
0.199395
0.19821
0.197062
0.195953
0.19488
0.193843
0.19284
0.191871
0.190934
0.190027
0.189147
0.188294
0.187465
0.186659
0.185874
0.185108
0.184361
0.183631
0.182918
0.182221
0.181539
0.180871
0.180218
0.179579
0.178953
0.17834
0.177741
0.177154
0.17658
0.176018
0.175468
0.17493
0.174403
0.199395
0.198209
0.197062
0.195951
0.194877
0.193838
0.192832
0.191858
0.190916
0.190004
0.189121
0.188264
0.187434
0.186628
0.185846
0.185085
0.184345
0.183625
0.182925
0.182242
0.181576
0.180927
0.180293
0.179675
0.179072
0.178483
0.177908
0.177346
0.176797
0.176261
0.175738
0.175226
0.174727
0.199395
0.198209
0.197061
0.195951
0.194876
0.193836
0.192829
0.191854
0.19091
0.189995
0.189109
0.188251
0.187418
0.186611
0.185828
0.185068
0.18433
0.183613
0.182916
0.182239
0.181579
0.180938
0.180314
0.179706
0.179114
0.178537
0.177974
0.177426
0.176892
0.176371
0.175862
0.175367
0.174883
0.199395
0.198209
0.197061
0.19595
0.194875
0.193834
0.192827
0.191851
0.190907
0.189991
0.189104
0.188244
0.187411
0.186603
0.185818
0.185058
0.184319
0.183603
0.182907
0.18223
0.181573
0.180934
0.180313
0.17971
0.179122
0.17855
0.177994
0.177452
0.176925
0.176411
0.175911
0.175423
0.174948
0.199395
0.198209
0.197061
0.19595
0.194874
0.193833
0.192826
0.19185
0.190905
0.189989
0.189101
0.188241
0.187407
0.186598
0.185813
0.185051
0.184313
0.183595
0.182899
0.182223
0.181566
0.180928
0.180307
0.179705
0.179119
0.178549
0.177994
0.177455
0.176931
0.17642
0.175923
0.175439
0.174968
0.199395
0.198209
0.19706
0.195949
0.194874
0.193833
0.192825
0.191849
0.190903
0.189987
0.189099
0.188238
0.187404
0.186594
0.185809
0.185047
0.184308
0.18359
0.182893
0.182217
0.18156
0.180921
0.180301
0.179698
0.179112
0.178543
0.177989
0.17745
0.176927
0.176417
0.175921
0.175438
0.174968
0.199395
0.198209
0.19706
0.195949
0.194873
0.193832
0.192824
0.191848
0.190902
0.189985
0.189097
0.188236
0.187401
0.186591
0.185806
0.185044
0.184304
0.183586
0.182889
0.182212
0.181554
0.180916
0.180295
0.179692
0.179106
0.178536
0.177982
0.177444
0.17692
0.17641
0.175914
0.175432
0.174962
0.199395
0.198209
0.19706
0.195949
0.194873
0.193832
0.192823
0.191847
0.190901
0.189984
0.189095
0.188234
0.187399
0.186589
0.185803
0.185041
0.184301
0.183582
0.182885
0.182207
0.18155
0.180911
0.18029
0.179686
0.1791
0.17853
0.177976
0.177437
0.176912
0.176403
0.175907
0.175424
0.174954
0.199395
0.198208
0.19706
0.195948
0.194873
0.193831
0.192823
0.191846
0.1909
0.189983
0.189094
0.188232
0.187397
0.186587
0.185801
0.185038
0.184298
0.183579
0.182881
0.182204
0.181545
0.180906
0.180285
0.179681
0.179094
0.178524
0.177969
0.17743
0.176906
0.176395
0.175899
0.175416
0.174946
0.199395
0.198208
0.19706
0.195948
0.194872
0.193831
0.192822
0.191845
0.190899
0.189982
0.189093
0.188231
0.187395
0.186585
0.185798
0.185035
0.184295
0.183576
0.182878
0.1822
0.181542
0.180902
0.18028
0.179676
0.179089
0.178519
0.177964
0.177424
0.176899
0.176389
0.175892
0.175408
0.174938
0.199395
0.198208
0.19706
0.195948
0.194872
0.19383
0.192821
0.191844
0.190898
0.189981
0.189092
0.18823
0.187394
0.186583
0.185796
0.185033
0.184292
0.183573
0.182875
0.182197
0.181538
0.180898
0.180276
0.179672
0.179085
0.178514
0.177958
0.177418
0.176893
0.176382
0.175885
0.175401
0.174931
0.199395
0.198208
0.19706
0.195948
0.194872
0.19383
0.192821
0.191844
0.190897
0.18998
0.189091
0.188228
0.187392
0.186581
0.185795
0.185031
0.18429
0.183571
0.182872
0.182194
0.181535
0.180895
0.180273
0.179668
0.17908
0.178509
0.177953
0.177413
0.176888
0.176376
0.175879
0.175395
0.174924
0.199395
0.198208
0.19706
0.195948
0.194872
0.19383
0.192821
0.191843
0.190897
0.189979
0.18909
0.188227
0.187391
0.18658
0.185793
0.185029
0.184288
0.183568
0.18287
0.182191
0.181532
0.180891
0.180269
0.179664
0.179076
0.178505
0.177949
0.177408
0.176883
0.176371
0.175873
0.175389
0.174918
0.199395
0.198208
0.197059
0.195948
0.194871
0.193829
0.19282
0.191843
0.190896
0.189978
0.189089
0.188226
0.18739
0.186579
0.185791
0.185028
0.184286
0.183566
0.182867
0.182189
0.181529
0.180888
0.180266
0.179661
0.179073
0.178501
0.177945
0.177404
0.176878
0.176366
0.175868
0.175383
0.174912
0.199395
0.198208
0.197059
0.195947
0.194871
0.193829
0.19282
0.191843
0.190896
0.189978
0.189088
0.188225
0.187389
0.186577
0.18579
0.185026
0.184284
0.183564
0.182865
0.182186
0.181527
0.180886
0.180263
0.179658
0.179069
0.178497
0.177941
0.1774
0.176873
0.176361
0.175863
0.175378
0.174906
0.199395
0.198208
0.197059
0.195947
0.194871
0.193829
0.19282
0.191842
0.190895
0.189977
0.189087
0.188225
0.187388
0.186576
0.185789
0.185025
0.184283
0.183563
0.182864
0.182184
0.181525
0.180883
0.18026
0.179655
0.179066
0.178494
0.177937
0.177396
0.17687
0.176357
0.175859
0.175374
0.174902
0.199395
0.198208
0.197059
0.195947
0.194871
0.193829
0.19282
0.191842
0.190895
0.189977
0.189087
0.188224
0.187387
0.186576
0.185788
0.185024
0.184282
0.183561
0.182862
0.182183
0.181523
0.180881
0.180258
0.179652
0.179064
0.178491
0.177934
0.177393
0.176866
0.176353
0.175855
0.17537
0.174897
0.199395
0.198208
0.197059
0.195947
0.194871
0.193829
0.192819
0.191842
0.190895
0.189976
0.189086
0.188224
0.187387
0.186575
0.185787
0.185023
0.184281
0.18356
0.18286
0.182181
0.181521
0.180879
0.180256
0.17965
0.179061
0.178488
0.177931
0.17739
0.176863
0.17635
0.175851
0.175366
0.174893
0.199395
0.198208
0.197059
0.195947
0.194871
0.193829
0.192819
0.191842
0.190894
0.189976
0.189086
0.188223
0.187386
0.186574
0.185786
0.185022
0.18428
0.183559
0.182859
0.18218
0.181519
0.180878
0.180254
0.179648
0.179059
0.178486
0.177929
0.177387
0.17686
0.176347
0.175848
0.175362
0.17489
0.199395
0.198208
0.197059
0.195947
0.194871
0.193829
0.192819
0.191842
0.190894
0.189976
0.189086
0.188223
0.187386
0.186574
0.185786
0.185021
0.184279
0.183558
0.182858
0.182178
0.181518
0.180876
0.180253
0.179647
0.179057
0.178484
0.177927
0.177385
0.176858
0.176345
0.175845
0.17536
0.174887
0.199395
0.198208
0.197059
0.195947
0.194871
0.193829
0.192819
0.191841
0.190894
0.189976
0.189086
0.188223
0.187385
0.186573
0.185785
0.185021
0.184278
0.183557
0.182857
0.182178
0.181517
0.180875
0.180252
0.179645
0.179056
0.178483
0.177925
0.177383
0.176856
0.176342
0.175843
0.175357
0.174884
0.199395
0.198208
0.197059
0.195947
0.194871
0.193829
0.192819
0.191841
0.190894
0.189976
0.189086
0.188222
0.187385
0.186573
0.185785
0.18502
0.184278
0.183557
0.182857
0.182177
0.181516
0.180874
0.180251
0.179644
0.179055
0.178481
0.177924
0.177382
0.176854
0.176341
0.175841
0.175355
0.174882
0.199395
0.198208
0.197059
0.195947
0.194871
0.193829
0.192819
0.191841
0.190894
0.189976
0.189086
0.188222
0.187385
0.186573
0.185785
0.18502
0.184278
0.183557
0.182857
0.182177
0.181516
0.180874
0.180251
0.179644
0.179054
0.178481
0.177923
0.177381
0.176853
0.17634
0.17584
0.175354
0.174881
0.199395
0.198208
0.197059
0.195947
0.194871
0.193829
0.192819
0.191841
0.190894
0.189976
0.189086
0.188223
0.187386
0.186573
0.185786
0.185021
0.184278
0.183558
0.182858
0.182178
0.181517
0.180875
0.180251
0.179644
0.179055
0.178481
0.177923
0.177381
0.176852
0.176339
0.175839
0.175352
0.174878
0.199395
0.198208
0.197059
0.195947
0.194871
0.193829
0.19282
0.191843
0.190896
0.189978
0.189089
0.188226
0.18739
0.186578
0.185791
0.185026
0.184284
0.183563
0.182863
0.182183
0.181522
0.180879
0.180255
0.179647
0.179056
0.178481
0.177922
0.177378
0.176848
0.176333
0.17583
0.175342
0.174865
0.199395
0.198208
0.197059
0.195948
0.194872
0.193831
0.192824
0.191848
0.190902
0.189986
0.189098
0.188236
0.1874
0.186589
0.185801
0.185036
0.184293
0.183571
0.182869
0.182186
0.181522
0.180877
0.180248
0.179636
0.179041
0.178461
0.177897
0.177347
0.176811
0.176289
0.175781
0.175285
0.174802
0.199395
0.198209
0.197062
0.195955
0.194886
0.193853
0.192854
0.191885
0.190945
0.190033
0.189146
0.188284
0.187446
0.186631
0.185838
0.185066
0.184314
0.183582
0.182869
0.182174
0.181497
0.180837
0.180194
0.179567
0.178956
0.17836
0.177779
0.177212
0.176659
0.176119
0.175593
0.175079
0.174577
0.199395
0.198223
0.197106
0.196032
0.194988
0.19397
0.192977
0.192008
0.191061
0.190136
0.189233
0.188352
0.187492
0.186652
0.185833
0.185034
0.184253
0.183492
0.182748
0.182022
0.181314
0.180622
0.179947
0.179288
0.178644
0.178015
0.1774
0.1768
0.176214
0.175641
0.175082
0.174535
0.174001
0.19941
0.198319
0.197296
0.196301
0.19531
0.194319
0.193329
0.192346
0.191374
0.190417
0.189479
0.188561
0.187664
0.186788
0.185934
0.185101
0.184288
0.183495
0.182721
0.181966
0.18123
0.180511
0.179809
0.179123
0.178454
0.1778
0.177161
0.176537
0.175927
0.175331
0.174749
0.17418
0.173624
0.199716
0.199139
0.19847
0.197764
0.197072
0.196419
0.195812
0.195251
0.194735
0.194262
0.193831
0.193441
0.193089
0.192773
0.192493
0.192245
0.192027
0.191839
0.191676
0.191539
0.191425
0.191332
0.191258
0.191203
0.191164
0.191141
0.191132
0.191136
0.191152
0.191179
0.191217
0.191264
0.191319
0.205424
0.216593
0.227629
0.238434
0.248976
0.259243
0.269229
0.278926
0.288326
0.297424
0.306216
0.314701
0.322877
0.330747
0.338313
0.345577
0.352546
0.359225
0.365619
0.371736
0.377584
0.383171
0.388503
0.393591
0.398442
0.403065
0.407469
0.411661
0.415651
0.419447
0.423057
0.426489
0.429753
0.66007
0.768132
0.874151
0.981719
1.09239
1.20233
1.30503
1.39455
1.46735
1.52305
1.56382
1.59317
1.6147
1.63136
1.64511
1.65695
1.66722
1.67585
1.68264
1.68749
1.69042
1.69161
1.69133
1.68992
1.68767
1.68483
1.68162
1.67817
1.67459
1.67095
1.6673
1.66366
1.66003
1.65639
1.65266
1.64876
1.64456
1.63992
1.63467
1.62864
1.62165
1.61352
1.60407
1.59315
1.5806
1.56631
1.55018
1.53216
1.51221
1.49034
1.46663
1.44115
1.41404
1.38549
1.35569
1.32488
1.29333
1.26131
1.22911
1.19704
1.16537
1.13437
1.10432
1.07543
1.04792
1.02195
0.997653
0.97513
0.954442
0.935617
0.918651
0.903509
0.890132
0.878438
0.868326
0.85968
0.852371
0.846263
0.841212
0.837072
0.833697
0.830942
0.828667
0.82674
0.825032
0.823428
0.821818
0.820105
0.818202
0.81603
0.813521
0.810615
0.807262
0.803412
0.799036
0.794075
0.788567
0.782266
0.776011
0.765377
0.276539
0.284722
0.29801
0.317403
0.344421
0.380582
0.426976
0.483939
0.550787
0.625779
0.706318
0.789307
0.871555
0.950161
1.02282
1.08798
1.14492
1.19364
1.23467
1.26891
1.29736
1.321
1.34062
1.35684
1.3701
1.38071
1.38893
1.395
1.39913
1.40158
1.40256
1.40227
1.40087
1.39847
1.39514
1.39092
1.38578
1.3797
1.37262
1.36446
1.35515
1.3446
1.33272
1.31943
1.30466
1.28837
1.27052
1.25111
1.23016
1.20774
1.18393
1.15887
1.13271
1.10563
1.07786
1.04962
1.02117
0.992763
0.964664
0.937125
0.910389
0.884682
0.860206
0.837135
0.815615
0.795758
0.777645
0.761328
0.746825
0.734129
0.723208
0.714007
0.706454
0.700456
0.695912
0.692707
0.690716
0.68981
0.689852
0.690704
0.692226
0.694281
0.696732
0.699449
0.702306
0.705186
0.707979
0.710583
0.712909
0.714873
0.716403
0.717435
0.717913
0.717787
0.717021
0.715558
0.713422
0.710415
0.70713
0.700703
0.162234
0.162075
0.162291
0.163025
0.16457
0.167276
0.171574
0.177999
0.187196
0.199895
0.216879
0.238915
0.266667
0.300589
0.34082
0.387097
0.438707
0.494492
0.552925
0.612245
0.670643
0.726453
0.778328
0.825341
0.867012
0.903261
0.934309
0.960561
0.982501
1.00061
1.01531
1.02699
1.03592
1.04237
1.04653
1.04857
1.04863
1.04682
1.04324
1.03796
1.03104
1.02251
1.01242
1.00079
0.987657
0.973065
0.957068
0.939737
0.921164
0.90146
0.880763
0.859228
0.837035
0.814379
0.791469
0.768524
0.745764
0.723411
0.701674
0.680754
0.66083
0.642063
0.624587
0.608513
0.593924
0.58088
0.569415
0.55954
0.55125
0.544518
0.539305
0.535557
0.533211
0.532191
0.532414
0.533789
0.536219
0.539596
0.543812
0.54875
0.554291
0.560312
0.566693
0.573309
0.580043
0.586779
0.593407
0.599822
0.605928
0.611638
0.616871
0.621556
0.625629
0.629033
0.631722
0.633641
0.634791
0.635027
0.634664
0.63249
0.156976
0.15582
0.154717
0.153683
0.152725
0.151877
0.151188
0.150724
0.150572
0.150846
0.151687
0.153274
0.155823
0.159602
0.164924
0.172152
0.181688
0.193948
0.209326
0.228137
0.250555
0.276552
0.305854
0.337934
0.372038
0.407251
0.442585
0.47708
0.509885
0.540321
0.567909
0.592367
0.613578
0.631559
0.646412
0.658291
0.667372
0.673834
0.677852
0.679587
0.67919
0.6768
0.67255
0.666569
0.658983
0.649922
0.63952
0.627917
0.615263
0.601714
0.587437
0.572608
0.557405
0.542014
0.526615
0.511389
0.496506
0.482128
0.468398
0.455446
0.443382
0.432296
0.422259
0.413325
0.405529
0.398894
0.39343
0.389134
0.385998
0.384005
0.383135
0.38336
0.38465
0.386968
0.390275
0.394522
0.399658
0.405619
0.412338
0.419736
0.427727
0.436218
0.445109
0.454295
0.463667
0.473116
0.482532
0.491808
0.500842
0.509534
0.517795
0.52554
0.532692
0.539181
0.544948
0.549929
0.5541
0.557365
0.55974
0.561694
0.162755
0.161579
0.160413
0.159263
0.158129
0.157014
0.155926
0.154875
0.153875
0.152943
0.152104
0.151387
0.150827
0.150471
0.150373
0.150597
0.151224
0.152346
0.154071
0.156526
0.159849
0.164189
0.169699
0.176519
0.184764
0.194504
0.205739
0.21839
0.232283
0.24716
0.262685
0.278475
0.294129
0.309254
0.323496
0.336557
0.348207
0.358282
0.366686
0.373378
0.378368
0.381698
0.383445
0.383704
0.382585
0.380213
0.37672
0.372245
0.366931
0.360924
0.354371
0.347416
0.340202
0.332863
0.325529
0.318315
0.311329
0.304665
0.298401
0.292607
0.287335
0.28263
0.278525
0.275044
0.272208
0.270028
0.268517
0.267684
0.267536
0.268083
0.269332
0.271294
0.273977
0.277389
0.281535
0.286417
0.292032
0.29837
0.30541
0.313125
0.321473
0.3304
0.339844
0.349726
0.359961
0.370452
0.381099
0.391795
0.402432
0.412902
0.423101
0.432929
0.44229
0.451095
0.459266
0.466722
0.473407
0.47927
0.484015
0.489727
0.167258
0.166213
0.165165
0.164117
0.163068
0.162022
0.160979
0.159943
0.158915
0.157901
0.156905
0.155935
0.155
0.154111
0.153281
0.152526
0.151866
0.151321
0.150917
0.150682
0.150647
0.150845
0.151314
0.152092
0.153218
0.154732
0.156669
0.159056
0.161913
0.165242
0.16903
0.173241
0.177816
0.182674
0.187716
0.192826
0.197881
0.202757
0.207335
0.21151
0.215196
0.218325
0.220856
0.222767
0.224059
0.224751
0.224878
0.22449
0.223644
0.222404
0.220839
0.21902
0.217014
0.214887
0.212702
0.210513
0.208373
0.206324
0.204407
0.202652
0.201089
0.199741
0.19863
0.197773
0.197188
0.196892
0.196902
0.197235
0.197912
0.198954
0.200384
0.20223
0.204519
0.20728
0.210546
0.214345
0.218709
0.223664
0.229232
0.235427
0.242256
0.249713
0.257782
0.26643
0.27561
0.285262
0.29531
0.305667
0.316236
0.326912
0.337585
0.348145
0.358479
0.368481
0.378048
0.38708
0.395484
0.403243
0.409763
0.418539
0.170189
0.169272
0.168348
0.167417
0.166481
0.165539
0.164594
0.163646
0.162696
0.161745
0.160795
0.159849
0.15891
0.15798
0.157064
0.156168
0.155299
0.154462
0.153668
0.152925
0.152243
0.151635
0.151112
0.150685
0.150368
0.150171
0.150107
0.150186
0.150414
0.150799
0.151341
0.152041
0.15289
0.153877
0.154986
0.156194
0.157475
0.158796
0.160126
0.161429
0.162673
0.163826
0.164861
0.165756
0.166495
0.16707
0.167476
0.167717
0.167801
0.167741
0.167552
0.167254
0.166867
0.16641
0.165905
0.165371
0.164828
0.164293
0.163781
0.163309
0.16289
0.162536
0.16226
0.162075
0.161993
0.162026
0.162188
0.162496
0.162964
0.163613
0.164462
0.165537
0.166862
0.168467
0.170383
0.172644
0.175287
0.178348
0.181865
0.185874
0.19041
0.195501
0.201169
0.207427
0.214277
0.221706
0.229686
0.238175
0.247113
0.256426
0.266026
0.275815
0.285685
0.295525
0.30522
0.314658
0.323713
0.332393
0.339862
0.350638
0.172029
0.171215
0.170391
0.169559
0.16872
0.167873
0.167019
0.166159
0.165293
0.164422
0.163547
0.162669
0.161788
0.160907
0.160027
0.15915
0.158279
0.157418
0.156568
0.155735
0.154924
0.154138
0.153383
0.152666
0.15199
0.151363
0.150788
0.150272
0.149819
0.149431
0.149111
0.14886
0.148679
0.148564
0.148513
0.148521
0.14858
0.148682
0.148817
0.148976
0.149147
0.149319
0.149483
0.149628
0.149746
0.149831
0.149878
0.149884
0.149847
0.149768
0.149649
0.149493
0.149305
0.149089
0.148851
0.148596
0.148331
0.148062
0.147793
0.147532
0.147283
0.147053
0.146848
0.146673
0.146536
0.146443
0.146403
0.146426
0.146522
0.146702
0.146982
0.147375
0.147902
0.148581
0.149436
0.150492
0.151778
0.153324
0.155163
0.157331
0.159864
0.162799
0.166171
0.170015
0.174359
0.179226
0.18463
0.190574
0.197046
0.204021
0.211458
0.219301
0.227476
0.235897
0.244467
0.253083
0.261611
0.270083
0.277523
0.288922
0.17315
0.172412
0.171665
0.170909
0.170146
0.169375
0.168596
0.16781
0.167017
0.166217
0.165411
0.1646
0.163784
0.162963
0.16214
0.161314
0.160487
0.159661
0.158837
0.158017
0.157204
0.1564
0.155608
0.15483
0.15407
0.15333
0.152614
0.151925
0.151265
0.150637
0.150044
0.149486
0.148965
0.148482
0.148036
0.147626
0.147251
0.146907
0.146594
0.146306
0.14604
0.145791
0.145557
0.145331
0.145112
0.144894
0.144674
0.144451
0.144222
0.143985
0.143739
0.143485
0.143221
0.14295
0.14267
0.142383
0.142091
0.141795
0.141496
0.141195
0.140895
0.140598
0.140306
0.140021
0.139746
0.139486
0.139243
0.139024
0.138834
0.138681
0.138571
0.138515
0.138524
0.13861
0.138789
0.139076
0.139491
0.140055
0.140792
0.141727
0.142888
0.144306
0.146012
0.14804
0.150421
0.153187
0.156368
0.159989
0.164067
0.168614
0.17363
0.179101
0.185002
0.19129
0.197911
0.204796
0.211839
0.219096
0.225598
0.236178
0.173803
0.173118
0.172426
0.171727
0.17102
0.170306
0.169585
0.168856
0.168121
0.167378
0.16663
0.165875
0.165115
0.164349
0.163578
0.162804
0.162026
0.161246
0.160464
0.159682
0.158901
0.158122
0.157347
0.156577
0.155815
0.155061
0.154318
0.153588
0.152873
0.152174
0.151493
0.150832
0.150192
0.149574
0.148978
0.148406
0.147857
0.147331
0.146828
0.146345
0.145883
0.145439
0.145012
0.144599
0.1442
0.143812
0.143432
0.14306
0.142694
0.142331
0.141971
0.141613
0.141255
0.140897
0.140537
0.140175
0.13981
0.139443
0.139072
0.138698
0.13832
0.137939
0.137554
0.137168
0.13678
0.136392
0.136005
0.135623
0.135248
0.134884
0.134535
0.134206
0.133905
0.133638
0.133415
0.133246
0.133143
0.133119
0.133189
0.133372
0.133686
0.134152
0.134793
0.135635
0.136703
0.138026
0.13963
0.141542
0.143788
0.146392
0.149369
0.152734
0.156489
0.160629
0.165136
0.169985
0.175108
0.180587
0.185591
0.194248
0.174157
0.173509
0.172855
0.172194
0.171527
0.170854
0.170174
0.169488
0.168796
0.168097
0.167392
0.166682
0.165965
0.165244
0.164517
0.163786
0.163051
0.162313
0.161572
0.160828
0.160083
0.159338
0.158594
0.15785
0.15711
0.156372
0.15564
0.154914
0.154196
0.153486
0.152785
0.152097
0.15142
0.150757
0.150107
0.149473
0.148855
0.148252
0.147666
0.147095
0.146541
0.146002
0.145477
0.144967
0.14447
0.143986
0.143512
0.143048
0.142593
0.142146
0.141705
0.141269
0.140836
0.140407
0.139978
0.13955
0.139121
0.138689
0.138255
0.137816
0.137373
0.136924
0.136469
0.136007
0.135539
0.135064
0.134584
0.134098
0.133609
0.133118
0.132627
0.132139
0.131658
0.131187
0.130733
0.130302
0.1299
0.129535
0.129219
0.12896
0.128772
0.12867
0.128667
0.128783
0.129034
0.129443
0.130029
0.130814
0.131822
0.133074
0.134591
0.136391
0.138489
0.140895
0.143613
0.146641
0.149949
0.153622
0.157035
0.163316
0.174332
0.173707
0.173077
0.172441
0.1718
0.171154
0.170502
0.169845
0.169183
0.168515
0.167842
0.167164
0.16648
0.165792
0.165099
0.164402
0.163701
0.162996
0.162288
0.161578
0.160865
0.160151
0.159435
0.15872
0.158005
0.157291
0.15658
0.155871
0.155166
0.154465
0.153771
0.153082
0.152401
0.151729
0.151065
0.150412
0.149768
0.149136
0.148515
0.147906
0.14731
0.146725
0.146152
0.145591
0.145041
0.144502
0.143974
0.143455
0.142944
0.142442
0.141946
0.141457
0.140972
0.14049
0.14001
0.139532
0.139053
0.138573
0.13809
0.137603
0.13711
0.136612
0.136106
0.135592
0.13507
0.134539
0.133998
0.133449
0.13289
0.132323
0.131749
0.131169
0.130586
0.130001
0.129417
0.128838
0.128269
0.127713
0.127177
0.126668
0.126193
0.125762
0.125383
0.12507
0.124833
0.124687
0.124647
0.12473
0.124951
0.125329
0.125881
0.126624
0.127574
0.128745
0.130148
0.131792
0.133665
0.13584
0.137899
0.141951
0.174408
0.173795
0.173178
0.172557
0.171932
0.171303
0.170669
0.17003
0.169387
0.16874
0.168088
0.167432
0.166771
0.166106
0.165437
0.164764
0.164088
0.163408
0.162725
0.16204
0.161352
0.160662
0.159971
0.15928
0.158587
0.157895
0.157204
0.156513
0.155825
0.155139
0.154457
0.153779
0.153105
0.152436
0.151774
0.151118
0.150469
0.149829
0.149196
0.148572
0.147957
0.147351
0.146755
0.146168
0.14559
0.145021
0.144461
0.143909
0.143365
0.142828
0.142297
0.141772
0.141251
0.140734
0.140218
0.139704
0.13919
0.138674
0.138156
0.137634
0.137106
0.136573
0.136032
0.135483
0.134925
0.134356
0.133778
0.133188
0.132588
0.131977
0.131355
0.130723
0.130082
0.129433
0.128778
0.128118
0.127457
0.126797
0.126141
0.125494
0.12486
0.124245
0.123655
0.123096
0.122578
0.122109
0.121699
0.12136
0.121102
0.120939
0.120884
0.12095
0.121152
0.121502
0.122011
0.122691
0.123541
0.124612
0.125659
0.127924
0.174433
0.173826
0.173216
0.172603
0.171986
0.171366
0.170742
0.170114
0.169483
0.168848
0.168209
0.167566
0.16692
0.16627
0.165617
0.164961
0.164301
0.163638
0.162973
0.162305
0.161635
0.160964
0.160291
0.159616
0.158941
0.158266
0.157591
0.156916
0.156243
0.155571
0.154901
0.154233
0.153569
0.152908
0.152252
0.1516
0.150953
0.150312
0.149677
0.149049
0.148427
0.147813
0.147206
0.146606
0.146013
0.145428
0.144851
0.14428
0.143715
0.143156
0.142603
0.142055
0.14151
0.140968
0.140429
0.13989
0.139351
0.13881
0.138267
0.137721
0.137169
0.136612
0.136047
0.135474
0.134892
0.1343
0.133697
0.133083
0.132457
0.13182
0.13117
0.130509
0.129836
0.129152
0.128459
0.127756
0.127046
0.126331
0.125612
0.124891
0.124172
0.123458
0.122753
0.122061
0.121387
0.120737
0.120117
0.119534
0.118996
0.118513
0.118092
0.117744
0.117479
0.117308
0.11724
0.117286
0.117449
0.11776
0.118105
0.119065
0.174435
0.173831
0.173224
0.172614
0.172002
0.171386
0.170767
0.170145
0.169519
0.168891
0.168259
0.167625
0.166987
0.166346
0.165702
0.165055
0.164406
0.163754
0.1631
0.162444
0.161786
0.161126
0.160465
0.159803
0.15914
0.158476
0.157813
0.157149
0.156487
0.155825
0.155165
0.154506
0.15385
0.153197
0.152546
0.151899
0.151256
0.150618
0.149984
0.149355
0.148732
0.148114
0.147502
0.146896
0.146296
0.145702
0.145114
0.144532
0.143955
0.143383
0.142816
0.142252
0.141692
0.141134
0.140578
0.140023
0.139467
0.13891
0.13835
0.137787
0.137219
0.136645
0.136064
0.135475
0.134877
0.13427
0.133652
0.133023
0.132382
0.131729
0.131064
0.130386
0.129696
0.128994
0.12828
0.127556
0.126821
0.126077
0.125325
0.124567
0.123805
0.12304
0.122275
0.121513
0.120756
0.120009
0.119275
0.118558
0.117864
0.117199
0.116567
0.115977
0.115434
0.114948
0.114524
0.114171
0.113896
0.11371
0.113593
0.113656
0.174429
0.173826
0.17322
0.172611
0.172
0.171386
0.170769
0.170149
0.169527
0.168901
0.168273
0.167642
0.167009
0.166373
0.165734
0.165093
0.164449
0.163804
0.163156
0.162506
0.161855
0.161202
0.160549
0.159894
0.159238
0.158582
0.157926
0.15727
0.156614
0.15596
0.155306
0.154653
0.154003
0.153355
0.152709
0.152066
0.151426
0.15079
0.150157
0.149529
0.148905
0.148286
0.147672
0.147063
0.146459
0.145859
0.145265
0.144676
0.144091
0.143511
0.142934
0.142361
0.14179
0.141222
0.140655
0.140088
0.139521
0.138952
0.138381
0.137806
0.137227
0.136642
0.13605
0.135451
0.134844
0.134226
0.133599
0.132961
0.132311
0.131649
0.130975
0.130289
0.12959
0.128878
0.128154
0.127419
0.126672
0.125915
0.125147
0.124371
0.123588
0.122798
0.122004
0.121207
0.120408
0.119611
0.118818
0.118031
0.117254
0.11649
0.115743
0.115017
0.114317
0.113648
0.113016
0.112425
0.111883
0.111388
0.110982
0.110458
0.174421
0.173818
0.173212
0.172603
0.171992
0.171378
0.170762
0.170143
0.169521
0.168897
0.16827
0.167641
0.167009
0.166375
0.165739
0.1651
0.16446
0.163817
0.163173
0.162527
0.161879
0.16123
0.16058
0.159929
0.159278
0.158626
0.157973
0.157321
0.156669
0.156018
0.155368
0.154719
0.154072
0.153426
0.152783
0.152142
0.151504
0.150869
0.150237
0.149609
0.148984
0.148364
0.147748
0.147137
0.146529
0.145927
0.145328
0.144734
0.144144
0.143558
0.142975
0.142394
0.141817
0.141241
0.140666
0.140091
0.139516
0.138939
0.13836
0.137778
0.137191
0.136599
0.136
0.135394
0.13478
0.134157
0.133523
0.13288
0.132225
0.131558
0.13088
0.130189
0.129485
0.128769
0.128041
0.127301
0.126549
0.125786
0.125012
0.124228
0.123435
0.122634
0.121827
0.121013
0.120195
0.119374
0.118552
0.11773
0.116911
0.116096
0.115288
0.114491
0.113706
0.112937
0.112188
0.111462
0.110765
0.110087
0.10951
0.108622
0.174413
0.173809
0.173202
0.172593
0.171982
0.171368
0.170751
0.170132
0.169511
0.168887
0.168261
0.167632
0.167001
0.166368
0.165732
0.165094
0.164455
0.163813
0.16317
0.162526
0.161879
0.161232
0.160584
0.159934
0.159284
0.158634
0.157984
0.157333
0.156683
0.156033
0.155384
0.154736
0.15409
0.153445
0.152802
0.152162
0.151524
0.150888
0.150256
0.149627
0.149002
0.14838
0.147762
0.147148
0.146538
0.145932
0.14533
0.144732
0.144137
0.143546
0.142958
0.142373
0.14179
0.141208
0.140627
0.140047
0.139466
0.138883
0.138299
0.137711
0.137118
0.136521
0.135917
0.135307
0.134688
0.134061
0.133425
0.132778
0.13212
0.131451
0.13077
0.130077
0.129372
0.128654
0.127925
0.127183
0.126429
0.125664
0.124888
0.124102
0.123306
0.122501
0.121687
0.120867
0.120041
0.119209
0.118374
0.117536
0.116696
0.115857
0.11502
0.114186
0.113357
0.112536
0.111725
0.110925
0.110143
0.109362
0.108689
0.107586
0.174404
0.1738
0.173193
0.172584
0.171972
0.171357
0.170741
0.170121
0.1695
0.168875
0.168249
0.16762
0.166989
0.166356
0.16572
0.165083
0.164444
0.163802
0.163159
0.162515
0.161869
0.161222
0.160574
0.159925
0.159275
0.158625
0.157975
0.157324
0.156674
0.156024
0.155375
0.154727
0.15408
0.153435
0.152791
0.15215
0.15151
0.150874
0.15024
0.149609
0.148981
0.148357
0.147737
0.14712
0.146507
0.145898
0.145292
0.14469
0.144092
0.143496
0.142904
0.142314
0.141726
0.14114
0.140555
0.13997
0.139384
0.138797
0.138208
0.137615
0.137019
0.136418
0.135811
0.135197
0.134576
0.133946
0.133307
0.132658
0.131999
0.131328
0.130647
0.129953
0.129247
0.12853
0.1278
0.127058
0.126305
0.12554
0.124764
0.123977
0.123181
0.122375
0.12156
0.120738
0.119909
0.119073
0.118233
0.117388
0.116539
0.115689
0.114837
0.113986
0.113136
0.112288
0.111446
0.110608
0.109781
0.108944
0.108219
0.106995
0.174397
0.173792
0.173184
0.172575
0.171962
0.171347
0.17073
0.17011
0.169488
0.168864
0.168237
0.167608
0.166976
0.166343
0.165707
0.16507
0.16443
0.163789
0.163145
0.162501
0.161855
0.161207
0.160559
0.159909
0.159259
0.158608
0.157957
0.157306
0.156655
0.156004
0.155354
0.154704
0.154056
0.153409
0.152764
0.15212
0.151479
0.15084
0.150204
0.149571
0.148941
0.148314
0.14769
0.14707
0.146454
0.145841
0.145232
0.144626
0.144024
0.143424
0.142828
0.142234
0.141642
0.141051
0.140462
0.139872
0.139282
0.138691
0.138098
0.137503
0.136903
0.136298
0.135689
0.135072
0.134449
0.133817
0.133176
0.132526
0.131866
0.131195