/*--------------------------------*- C++ -*----------------------------------*\
| =========                 |                                                 |
| \\      /  F ield         | OpenFOAM: The Open Source CFD Toolbox           |
|  \\    /   O peration     | Version:  4.1                                   |
|   \\  /    A nd           | Web:      www.OpenFOAM.org                      |
|    \\/     M anipulation  |                                                 |
\*---------------------------------------------------------------------------*/
FoamFile
{
    version     2.0;
    format      ascii;
    class       volScalarField;
    location    "600";
    object      nut;
}
// * * * * * * * * * * * * * * * * * * * * * * * * * * * * * * * * * * * * * //

dimensions      [0 2 -1 0 0 0 0];

internalField   nonuniform List<scalar> 
6820
(
4.39385e-05
4.87747e-05
5.31526e-05
5.70915e-05
6.05796e-05
6.36103e-05
6.61884e-05
6.83326e-05
7.00738e-05
7.14511e-05
7.25081e-05
7.32892e-05
7.3837e-05
7.41914e-05
7.43879e-05
7.44577e-05
7.44278e-05
7.43206e-05
7.41551e-05
7.39467e-05
7.3708e-05
7.34491e-05
7.31781e-05
7.29015e-05
7.26241e-05
7.23499e-05
7.20818e-05
7.18226e-05
7.15715e-05
7.13414e-05
7.10761e-05
7.10592e-05
6.98995e-05
0.00046941
0.000265606
0.000193508
0.000152487
0.000125527
0.000107012
9.39993e-05
8.46683e-05
7.7868e-05
7.28566e-05
6.91405e-05
6.63822e-05
6.4345e-05
6.286e-05
6.18041e-05
6.10864e-05
6.06383e-05
6.04078e-05
6.03544e-05
6.04464e-05
6.06585e-05
6.09703e-05
6.13654e-05
6.18299e-05
6.23524e-05
6.29232e-05
6.35341e-05
6.41784e-05
6.48491e-05
6.55437e-05
6.62513e-05
6.69791e-05
6.76808e-05
0.000918058
0.000718795
0.000582223
0.000488778
0.00042158
0.000370785
0.000331008
0.000299115
0.000273073
0.000251474
0.00023332
0.000217887
0.000204638
0.000193169
0.000183167
0.000174389
0.000166642
0.000159772
0.000153652
0.000148182
0.000143274
0.00013886
0.00013488
0.000131283
0.000128026
0.000125074
0.000122393
0.000119957
0.000117741
0.000115725
0.00011389
0.000112225
0.000110658
0.00100704
0.000950024
0.000874018
0.000798213
0.000730805
0.000673128
0.000624146
0.000582408
0.000546591
0.000515599
0.00048855
0.000464749
0.000443645
0.000424802
0.00040787
0.000392571
0.000378677
0.000366
0.000354388
0.00034371
0.000333858
0.00032474
0.000316277
0.0003084
0.000301051
0.000294179
0.000287739
0.000281691
0.000276
0.000270635
0.000265569
0.000260773
0.000256221
0.00101631
0.001006
0.000983563
0.000951519
0.000914347
0.000875791
0.000838168
0.000802653
0.000769714
0.000739438
0.000711722
0.000686378
0.000663192
0.000641951
0.000622452
0.000604513
0.000587969
0.000572677
0.000558508
0.00054535
0.000533104
0.000521682
0.000511007
0.000501011
0.000491634
0.000482822
0.000474527
0.000466707
0.000459325
0.000452347
0.000445743
0.000439488
0.000433556
0.00101678
0.00101508
0.00101017
0.0010009
0.00098729
0.000970152
0.000950606
0.000929706
0.000908287
0.000886944
0.000866075
0.000845923
0.000826628
0.000808259
0.000790837
0.000774352
0.000758777
0.000744075
0.000730199
0.000717105
0.000704744
0.00069307
0.00068204
0.000671611
0.000661744
0.000652402
0.000643553
0.000635164
0.000627209
0.00061966
0.000612497
0.0006057
0.000599246
0.00101672
0.00101615
0.001015
0.00101271
0.00100877
0.00100297
0.000995342
0.000986101
0.000975569
0.000964085
0.000951964
0.000939473
0.000926828
0.000914198
0.00090171
0.000889458
0.000877506
0.000865902
0.000854673
0.000843837
0.000833402
0.000823369
0.000813735
0.000804492
0.000795631
0.000787142
0.000779012
0.000771229
0.000763782
0.000756659
0.000749849
0.000743343
0.000737127
0.0010167
0.00101622
0.00101568
0.00101493
0.00101376
0.00101199
0.00100945
0.00100608
0.00100186
0.000996852
0.000991145
0.00098485
0.000978082
0.000970952
0.000963562
0.000956001
0.000948345
0.000940658
0.000932995
0.000925397
0.000917899
0.000910529
0.000903307
0.000896249
0.000889369
0.000882674
0.00087617
0.000869862
0.000863752
0.000857842
0.000852131
0.00084662
0.000841306
0.0010167
0.00101622
0.00101574
0.00101525
0.00101469
0.001014
0.00101308
0.00101187
0.00101031
0.00100837
0.00100603
0.0010033
0.0010002
0.000996763
0.000993031
0.000989044
0.000984846
0.000980478
0.000975978
0.000971382
0.00096672
0.000962021
0.00095731
0.000952607
0.000947932
0.000943299
0.000938723
0.000934215
0.000929785
0.00092544
0.000921188
0.000917034
0.000912983
0.0010167
0.00101621
0.00101574
0.00101529
0.00101483
0.00101436
0.00101385
0.00101326
0.00101258
0.00101176
0.00101079
0.00100964
0.00100831
0.00100679
0.00100508
0.0010032
0.00100114
0.000998935
0.000996592
0.000994128
0.000991561
0.000988907
0.000986182
0.000983401
0.000980579
0.000977728
0.000974859
0.000971985
0.000969115
0.000966258
0.000963422
0.000960613
0.000957839
0.0010167
0.00101621
0.00101574
0.00101529
0.00101484
0.00101441
0.00101398
0.00101354
0.00101308
0.0010126
0.00101208
0.0010115
0.00101085
0.00101013
0.00100932
0.00100843
0.00100745
0.00100639
0.00100524
0.001004
0.00100269
0.00100131
0.000999857
0.000998351
0.000996794
0.000995193
0.000993554
0.000991886
0.000990193
0.000988483
0.000986761
0.000985032
0.000983302
0.0010167
0.00101621
0.00101574
0.00101528
0.00101484
0.00101441
0.00101399
0.00101358
0.00101317
0.00101277
0.00101237
0.00101195
0.00101153
0.00101108
0.00101061
0.00101011
0.00100958
0.00100901
0.0010084
0.00100776
0.00100707
0.00100635
0.00100558
0.00100479
0.00100395
0.00100309
0.00100219
0.00100127
0.00100033
0.000999364
0.000998381
0.000997383
0.000996373
0.0010167
0.00101621
0.00101574
0.00101528
0.00101484
0.00101441
0.00101399
0.00101358
0.00101318
0.0010128
0.00101242
0.00101204
0.00101167
0.00101131
0.00101094
0.00101057
0.00101019
0.0010098
0.00100941
0.001009
0.00100858
0.00100815
0.0010077
0.00100724
0.00100676
0.00100626
0.00100575
0.00100523
0.00100469
0.00100414
0.00100357
0.001003
0.00100242
0.0010167
0.00101621
0.00101574
0.00101528
0.00101484
0.0010144
0.00101398
0.00101358
0.00101318
0.00101279
0.00101242
0.00101205
0.0010117
0.00101135
0.00101101
0.00101067
0.00101034
0.00101001
0.00100968
0.00100936
0.00100904
0.00100871
0.00100838
0.00100805
0.00100772
0.00100739
0.00100705
0.0010067
0.00100636
0.00100601
0.00100565
0.00100529
0.00100493
0.0010167
0.00101621
0.00101574
0.00101528
0.00101484
0.0010144
0.00101398
0.00101357
0.00101318
0.00101279
0.00101242
0.00101205
0.0010117
0.00101135
0.00101101
0.00101068
0.00101036
0.00101005
0.00100974
0.00100944
0.00100915
0.00100886
0.00100857
0.00100829
0.00100801
0.00100773
0.00100746
0.00100719
0.00100692
0.00100665
0.00100638
0.00100612
0.00100585
0.0010167
0.00101621
0.00101574
0.00101528
0.00101483
0.0010144
0.00101398
0.00101357
0.00101317
0.00101279
0.00101241
0.00101205
0.00101169
0.00101135
0.00101101
0.00101068
0.00101036
0.00101005
0.00100975
0.00100945
0.00100917
0.00100888
0.00100861
0.00100834
0.00100808
0.00100782
0.00100757
0.00100732
0.00100708
0.00100684
0.00100661
0.00100638
0.00100615
0.0010167
0.00101621
0.00101574
0.00101528
0.00101483
0.0010144
0.00101398
0.00101357
0.00101317
0.00101278
0.00101241
0.00101204
0.00101169
0.00101134
0.001011
0.00101068
0.00101036
0.00101005
0.00100974
0.00100945
0.00100916
0.00100888
0.00100861
0.00100835
0.00100809
0.00100783
0.00100759
0.00100735
0.00100711
0.00100688
0.00100666
0.00100644
0.00100623
0.0010167
0.00101621
0.00101574
0.00101528
0.00101483
0.0010144
0.00101398
0.00101357
0.00101317
0.00101278
0.0010124
0.00101204
0.00101168
0.00101134
0.001011
0.00101067
0.00101035
0.00101004
0.00100974
0.00100944
0.00100915
0.00100887
0.0010086
0.00100834
0.00100808
0.00100783
0.00100758
0.00100734
0.00100711
0.00100688
0.00100666
0.00100644
0.00100623
0.0010167
0.00101621
0.00101574
0.00101528
0.00101483
0.0010144
0.00101398
0.00101357
0.00101317
0.00101278
0.0010124
0.00101204
0.00101168
0.00101133
0.00101099
0.00101066
0.00101034
0.00101003
0.00100973
0.00100943
0.00100915
0.00100887
0.00100859
0.00100833
0.00100807
0.00100782
0.00100757
0.00100733
0.0010071
0.00100687
0.00100665
0.00100643
0.00100622
0.0010167
0.00101621
0.00101574
0.00101528
0.00101483
0.0010144
0.00101397
0.00101356
0.00101317
0.00101278
0.0010124
0.00101203
0.00101168
0.00101133
0.00101099
0.00101066
0.00101034
0.00101003
0.00100972
0.00100943
0.00100914
0.00100886
0.00100859
0.00100832
0.00100806
0.00100781
0.00100756
0.00100732
0.00100709
0.00100686
0.00100664
0.00100642
0.00100621
0.0010167
0.00101621
0.00101574
0.00101528
0.00101483
0.0010144
0.00101397
0.00101356
0.00101316
0.00101278
0.0010124
0.00101203
0.00101167
0.00101132
0.00101099
0.00101066
0.00101034
0.00101002
0.00100972
0.00100942
0.00100913
0.00100885
0.00100858
0.00100831
0.00100805
0.0010078
0.00100755
0.00100731
0.00100708
0.00100685
0.00100662
0.00100641
0.00100619
0.0010167
0.00101621
0.00101574
0.00101528
0.00101483
0.00101439
0.00101397
0.00101356
0.00101316
0.00101277
0.0010124
0.00101203
0.00101167
0.00101132
0.00101098
0.00101065
0.00101033
0.00101002
0.00100971
0.00100942
0.00100913
0.00100885
0.00100857
0.0010083
0.00100804
0.00100779
0.00100754
0.0010073
0.00100706
0.00100684
0.00100661
0.00100639
0.00100618
0.0010167
0.00101621
0.00101574
0.00101528
0.00101483
0.00101439
0.00101397
0.00101356
0.00101316
0.00101277
0.00101239
0.00101203
0.00101167
0.00101132
0.00101098
0.00101065
0.00101033
0.00101001
0.00100971
0.00100941
0.00100912
0.00100884
0.00100856
0.0010083
0.00100804
0.00100778
0.00100753
0.00100729
0.00100706
0.00100683
0.0010066
0.00100638
0.00100617
0.0010167
0.00101621
0.00101574
0.00101528
0.00101483
0.00101439
0.00101397
0.00101356
0.00101316
0.00101277
0.00101239
0.00101202
0.00101167
0.00101132
0.00101098
0.00101065
0.00101032
0.00101001
0.00100971
0.00100941
0.00100912
0.00100883
0.00100856
0.00100829
0.00100803
0.00100777
0.00100753
0.00100728
0.00100705
0.00100682
0.00100659
0.00100637
0.00100616
0.0010167
0.00101621
0.00101574
0.00101528
0.00101483
0.00101439
0.00101397
0.00101356
0.00101316
0.00101277
0.00101239
0.00101202
0.00101166
0.00101131
0.00101097
0.00101064
0.00101032
0.00101001
0.0010097
0.0010094
0.00100911
0.00100883
0.00100855
0.00100829
0.00100802
0.00100777
0.00100752
0.00100728
0.00100704
0.00100681
0.00100658
0.00100636
0.00100615
0.0010167
0.00101621
0.00101574
0.00101528
0.00101483
0.00101439
0.00101397
0.00101356
0.00101316
0.00101277
0.00101239
0.00101202
0.00101166
0.00101131
0.00101097
0.00101064
0.00101032
0.00101
0.0010097
0.0010094
0.00100911
0.00100883
0.00100855
0.00100828
0.00100802
0.00100776
0.00100751
0.00100727
0.00100703
0.0010068
0.00100657
0.00100635
0.00100614
0.0010167
0.00101621
0.00101574
0.00101528
0.00101483
0.00101439
0.00101397
0.00101356
0.00101316
0.00101277
0.00101239
0.00101202
0.00101166
0.00101131
0.00101097
0.00101064
0.00101032
0.00101
0.0010097
0.0010094
0.00100911
0.00100882
0.00100855
0.00100828
0.00100801
0.00100776
0.00100751
0.00100726
0.00100703
0.00100679
0.00100657
0.00100635
0.00100613
0.0010167
0.00101621
0.00101574
0.00101528
0.00101483
0.00101439
0.00101397
0.00101356
0.00101316
0.00101277
0.00101239
0.00101202
0.00101166
0.00101131
0.00101097
0.00101064
0.00101032
0.00101
0.00100969
0.00100939
0.0010091
0.00100882
0.00100854
0.00100827
0.00100801
0.00100775
0.0010075
0.00100726
0.00100702
0.00100679
0.00100656
0.00100634
0.00100612
0.0010167
0.00101621
0.00101574
0.00101528
0.00101483
0.00101439
0.00101397
0.00101356
0.00101316
0.00101277
0.00101239
0.00101202
0.00101166
0.00101131
0.00101097
0.00101064
0.00101031
0.00101
0.00100969
0.00100939
0.0010091
0.00100882
0.00100854
0.00100827
0.00100801
0.00100775
0.0010075
0.00100725
0.00100702
0.00100678
0.00100656
0.00100633
0.00100612
0.0010167
0.00101621
0.00101574
0.00101528
0.00101483
0.00101439
0.00101397
0.00101356
0.00101316
0.00101277
0.00101239
0.00101202
0.00101166
0.00101131
0.00101097
0.00101064
0.00101031
0.00101
0.00100969
0.00100939
0.0010091
0.00100881
0.00100854
0.00100827
0.001008
0.00100775
0.00100749
0.00100725
0.00100701
0.00100678
0.00100655
0.00100633
0.00100611
0.0010167
0.00101621
0.00101574
0.00101528
0.00101483
0.00101439
0.00101397
0.00101356
0.00101316
0.00101277
0.00101239
0.00101202
0.00101166
0.00101131
0.00101097
0.00101064
0.00101031
0.00101
0.00100969
0.00100939
0.0010091
0.00100881
0.00100853
0.00100826
0.001008
0.00100774
0.00100749
0.00100724
0.001007
0.00100677
0.00100654
0.00100632
0.0010061
0.0010167
0.00101621
0.00101574
0.00101528
0.00101483
0.00101439
0.00101397
0.00101356
0.00101316
0.00101277
0.00101239
0.00101202
0.00101166
0.00101131
0.00101097
0.00101064
0.00101031
0.00101
0.00100969
0.00100939
0.00100909
0.00100881
0.00100853
0.00100825
0.00100798
0.00100772
0.00100747
0.00100722
0.00100697
0.00100673
0.0010065
0.00100627
0.00100604
0.0010167
0.00101621
0.00101574
0.00101528
0.00101483
0.00101439
0.00101397
0.00101356
0.00101316
0.00101277
0.00101239
0.00101202
0.00101166
0.00101131
0.00101096
0.00101063
0.0010103
0.00100997
0.00100966
0.00100935
0.00100905
0.00100875
0.00100845
0.00100817
0.00100788
0.0010076
0.00100732
0.00100705
0.00100678
0.00100651
0.00100625
0.00100599
0.00100573
0.0010167
0.00101621
0.00101574
0.00101528
0.00101483
0.00101439
0.00101397
0.00101356
0.00101316
0.00101276
0.00101237
0.00101199
0.00101162
0.00101125
0.00101088
0.00101051
0.00101015
0.00100979
0.00100942
0.00100906
0.00100869
0.00100833
0.00100796
0.00100759
0.00100721
0.00100684
0.00100646
0.00100608
0.00100569
0.00100531
0.00100492
0.00100453
0.00100413
0.0010167
0.00101621
0.00101574
0.00101527
0.00101482
0.00101438
0.00101394
0.0010135
0.00101305
0.00101259
0.00101213
0.00101165
0.00101115
0.00101063
0.00101008
0.00100952
0.00100893
0.00100832
0.00100769
0.00100703
0.00100635
0.00100565
0.00100493
0.00100419
0.00100343
0.00100265
0.00100186
0.00100105
0.00100023
0.000999396
0.000998554
0.000997702
0.000996844
0.0010167
0.00101621
0.00101571
0.00101519
0.00101464
0.00101403
0.00101334
0.00101256
0.00101168
0.00101069
0.00100958
0.00100837
0.00100706
0.00100563
0.00100411
0.0010025
0.0010008
0.000999029
0.000997185
0.00099528
0.00099332
0.000991313
0.000989266
0.000987185
0.000985077
0.000982947
0.000980801
0.000978645
0.000976482
0.000974316
0.000972153
0.000969995
0.000967846
0.00101669
0.00101596
0.00101486
0.00101328
0.00101118
0.00100855
0.00100542
0.00100182
0.000997785
0.000993377
0.000988643
0.000983636
0.000978404
0.000972993
0.000967446
0.0009618
0.000956089
0.000950342
0.000944585
0.00093884
0.000933125
0.000927458
0.000921851
0.000916315
0.00091086
0.000905493
0.00090022
0.000895046
0.000889975
0.000885008
0.000880147
0.000875395
0.00087075
0.00101524
0.00100708
0.00099496
0.000980623
0.000964776
0.000947876
0.000930305
0.000912411
0.000894487
0.000876761
0.000859397
0.000842509
0.000826171
0.000810426
0.000795297
0.000780791
0.000766901
0.000753616
0.000740916
0.000728781
0.000717187
0.000706109
0.000695524
0.000685406
0.000675732
0.00066648
0.000657627
0.000649152
0.000641036
0.000633259
0.000625804
0.000618655
0.000611793
0.000934352
0.00081341
0.000726844
0.000658858
0.000603206
0.000556872
0.000517958
0.000484986
0.000456769
0.000432384
0.000411125
0.000392442
0.000375907
0.00036118
0.00034799
0.000336116
0.000325379
0.000315631
0.00030675
0.000298632
0.000291189
0.000284347
0.000278042
0.000272218
0.000266828
0.000261829
0.000257185
0.000252864
0.000248836
0.000245076
0.000241562
0.000238273
0.00023519
0.000125479
0.000128845
0.000132086
0.000135185
0.000138141
0.000140961
0.00014365
0.000146214
0.000148657
0.000150984
0.0001532
0.000155308
0.000157312
0.000159218
0.000161029
0.000162748
0.000164381
0.000165931
0.000167401
0.000168796
0.000170118
0.000171372
0.000172561
0.000173687
0.000174754
0.000175765
0.000176722
0.000177629
0.000178488
0.000179301
0.000180071
0.0001808
0.00018149
8.0496e-05
9.56944e-05
0.000113544
0.000134784
0.00015957
0.000187135
0.000216176
0.000245375
0.000273763
0.000300931
0.000326975
0.000352283
0.000377308
0.000402393
0.000427706
0.000453237
0.000478867
0.000504437
0.000529816
0.000554938
0.000579803
0.000604462
0.00062899
0.00065346
0.000677928
0.000702432
0.000726992
0.000751629
0.000776362
0.000801222
0.00082624
0.000851445
0.000876856
0.000902475
0.000928284
0.000954242
0.000980289
0.00100634
0.00103231
0.00105808
0.00108352
0.00110852
0.00113293
0.00115662
0.00117945
0.00120129
0.00122202
0.00124153
0.00125975
0.00127659
0.00129202
0.00130603
0.00131863
0.00132987
0.00133983
0.00134861
0.00135634
0.0013632
0.00136935
0.001375
0.00138037
0.00138566
0.00139111
0.00139693
0.00140333
0.00141051
0.00141863
0.00142786
0.00143831
0.0014501
0.0014633
0.00147795
0.00149407
0.00151165
0.00153068
0.00155109
0.00157282
0.00159577
0.00161985
0.00164492
0.00167088
0.00169757
0.00172485
0.00175257
0.0017806
0.00180877
0.00183695
0.00186499
0.00189274
0.00192009
0.0019469
0.00197306
0.00199843
0.00202291
0.00204639
0.00206875
0.00208988
0.00210991
0.00212673
0.00215319
6.88006e-05
7.06336e-05
7.33902e-05
7.75069e-05
8.35119e-05
9.19434e-05
0.000103265
0.000117778
0.000135552
0.000156387
0.000179849
0.000205338
0.00023218
0.000259726
0.000287435
0.000314922
0.000341977
0.000368546
0.000394684
0.000420503
0.00044611
0.000471573
0.000496904
0.000522062
0.000546982
0.000571599
0.000595875
0.000619806
0.000643419
0.000666762
0.00068989
0.000712848
0.000735668
0.000758364
0.000780931
0.00080335
0.000825588
0.0008476
0.00086933
0.000890711
0.000911666
0.00093211
0.000951953
0.000971098
0.000989453
0.00100692
0.00102343
0.0010389
0.00105327
0.00106652
0.00107862
0.0010896
0.00109948
0.00110833
0.00111625
0.00112336
0.0011298
0.00113573
0.00114135
0.00114683
0.00115238
0.00115822
0.00116453
0.0011715
0.00117933
0.00118816
0.00119814
0.00120939
0.001222
0.00123603
0.00125155
0.00126857
0.00128709
0.00130711
0.00132857
0.00135145
0.00137565
0.00140111
0.00142772
0.00145537
0.00148395
0.00151332
0.00154334
0.00157389
0.0016048
0.00163593
0.00166713
0.00169825
0.00172916
0.0017597
0.00178976
0.00181918
0.00184785
0.00187564
0.00190244
0.00192812
0.00195255
0.0019759
0.00199583
0.00202662
0.000108996
0.000107177
0.000105283
0.000103565
0.000102064
0.000100842
0.000100025
9.98216e-05
0.000100526
0.00010251
0.000106188
0.000111977
0.000120243
0.000131265
0.000145195
0.000162037
0.000181635
0.000203676
0.000227712
0.000253208
0.000279598
0.000306356
0.000333051
0.000359377
0.000385161
0.00041034
0.000434925
0.000458963
0.000482502
0.000505577
0.0005282
0.000550367
0.000572069
0.00059329
0.000614024
0.000634263
0.000654002
0.000673233
0.000691941
0.000710103
0.000727687
0.000744654
0.000760959
0.000776553
0.000791391
0.000805426
0.000818624
0.000830958
0.000842416
0.000853002
0.000862739
0.000871673
0.000879869
0.000887419
0.000894431
0.000901036
0.00090738
0.000913624
0.000919935
0.000926486
0.000933446
0.000940981
0.000949245
0.000958377
0.000968501
0.000979723
0.00099213
0.00100579
0.00102075
0.00103706
0.00105473
0.00107377
0.00109419
0.00111597
0.00113908
0.0011635
0.00118919
0.00121608
0.00124412
0.00127322
0.00130329
0.00133422
0.00136591
0.00139821
0.00143101
0.00146415
0.00149749
0.00153089
0.0015642
0.00159726
0.00162994
0.00166209
0.00169357
0.00172425
0.00175399
0.00178267
0.00181011
0.00183655
0.00185939
0.00189438
0.000251128
0.000245514
0.000240005
0.000234582
0.000229403
0.000224405
0.000219473
0.000214487
0.000209334
0.000203931
0.000198248
0.000192341
0.000186369
0.00018061
0.000175446
0.000171333
0.000168753
0.000168167
0.000169965
0.000174431
0.000181721
0.000191851
0.000204693
0.00021999
0.000237378
0.000256422
0.000276657
0.000297633
0.000318951
0.000340286
0.000361397
0.00038212
0.000402354
0.000422046
0.000441169
0.000459708
0.000477653
0.000494995
0.000511723
0.000527822
0.000543279
0.000558081
0.000572219
0.000585685
0.000598478
0.000610602
0.000622072
0.000632908
0.000643146
0.000652833
0.000662031
0.000670816
0.000679279
0.000687522
0.000695659
0.000703813
0.000712109
0.000720672
0.000729625
0.000739081
0.00074914
0.000759892
0.000771407
0.000783744
0.000796944
0.000811039
0.000826049
0.00084199
0.000858875
0.000876717
0.00089553
0.000915333
0.000936147
0.000957996
0.000980904
0.00100489
0.00102998
0.00105617
0.00108346
0.00111183
0.00114124
0.00117164
0.00120295
0.00123508
0.00126791
0.00130134
0.00133521
0.00136939
0.00140373
0.00143806
0.00147223
0.00150608
0.00153946
0.0015722
0.00160416
0.0016352
0.00166511
0.00169416
0.00171947
0.00175824
0.000427008
0.000419806
0.000412781
0.000405914
0.000399294
0.000392915
0.000386736
0.000380695
0.000374709
0.000368672
0.000362464
0.000355951
0.000348998
0.000341482
0.000333308
0.00032443
0.000314878
0.000304779
0.000294362
0.000283964
0.000273999
0.000264923
0.000257189
0.000251195
0.000247259
0.000245589
0.000246278
0.00024931
0.000254565
0.000261843
0.000270887
0.000281402
0.000293085
0.00030564
0.000318799
0.000332325
0.000346025
0.000359743
0.000373363
0.000386797
0.000399987
0.000412894
0.000425499
0.000437797
0.000449795
0.000461515
0.000472987
0.000484254
0.000495367
0.000506387
0.000517381
0.000528424
0.00053959
0.000550955
0.00056259
0.00057456
0.00058692
0.00059971
0.000612959
0.000626678
0.000640863
0.000655498
0.000670558
0.00068601
0.00070182
0.000717955
0.000734391
0.000751115
0.000768127
0.000785443
0.000803098
0.000821144
0.000839649
0.000858696
0.000878378
0.000898795
0.000920046
0.000942229
0.000965429
0.000989716
0.00101514
0.00104173
0.00106947
0.00109834
0.00112828
0.00115919
0.00119098
0.00122349
0.00125659
0.0012901
0.00132386
0.00135769
0.0013914
0.00142481
0.00145774
0.00149003
0.00152142
0.00155221
0.00157925
0.00162097
0.000592136
0.000584334
0.000576748
0.000569369
0.00056222
0.000555301
0.000548599
0.000542096
0.000535762
0.000529558
0.000523431
0.00051732
0.000511148
0.000504831
0.000498273
0.000491376
0.000484041
0.000476179
0.000467716
0.000458612
0.000448867
0.000438533
0.000427725
0.000416616
0.000405435
0.000394453
0.000383969
0.000374281
0.000365667
0.000358365
0.000352557
0.000348358
0.000345821
0.00034494
0.000345657
0.000347875
0.000351473
0.000356315
0.000362262
0.000369181
0.000376951
0.000385467
0.000394642
0.000404407
0.000414711
0.000425519
0.000436809
0.000448569
0.000460795
0.000473488
0.000486646
0.000500269
0.000514349
0.000528869
0.000543805
0.00055912
0.000574766
0.000590682
0.000606803
0.000623051
0.000639348
0.000655616
0.000671777
0.000687763
0.000703514
0.000718985
0.000734144
0.000748981
0.0007635
0.00077773
0.000791717
0.000805531
0.00081926
0.000833015
0.000846922
0.000861125
0.000875779
0.000891047
0.000907094
0.000924081
0.000942156
0.000961447
0.000982059
0.00100406
0.00102749
0.00105233
0.00107855
0.00110605
0.00113473
0.00116442
0.00119497
0.00122619
0.00125786
0.00128977
0.00132171
0.00135348
0.00138477
0.00141589
0.00144348
0.00148665
0.000730233
0.000722623
0.000715185
0.000707923
0.000700846
0.000693955
0.000687245
0.00068071
0.000674341
0.000668124
0.000662042
0.000656073
0.00065019
0.000644362
0.000638553
0.000632721
0.00062682
0.000620802
0.000614615
0.000608208
0.000601535
0.000594557
0.000587248
0.000579601
0.000571633
0.000563385
0.00055493
0.00054637
0.000537832
0.000529466
0.000521437
0.000513915
0.000507068
0.000501052
0.000496004
0.000492036
0.000489236
0.000487662
0.000487347
0.000488301
0.000490513
0.000493959
0.000498601
0.000504392
0.000511282
0.000519215
0.000528132
0.000537971
0.000548668
0.000560155
0.000572359
0.000585201
0.0005986
0.000612467
0.000626709
0.00064123
0.000655932
0.000670714
0.00068548
0.000700135
0.000714591
0.000728767
0.000742592
0.000756006
0.000768958
0.000781414
0.000793348
0.000804751
0.000815624
0.000825984
0.00083586
0.000845296
0.000854349
0.000863093
0.000871617
0.000880029
0.000888453
0.000897034
0.000905931
0.000915321
0.000925391
0.000936332
0.000948335
0.000961576
0.000976212
0.000992368
0.00101013
0.00102954
0.00105059
0.00107323
0.00109734
0.00112279
0.00114941
0.00117697
0.00120526
0.00123404
0.00126299
0.00129236
0.00131877
0.00136103
0.00083535
0.000828704
0.000822143
0.000815674
0.00080931
0.000803055
0.000796911
0.00079088
0.00078496
0.000779151
0.000773448
0.000767845
0.000762338
0.000756917
0.000751573
0.000746298
0.00074108
0.000735905
0.000730761
0.000725631
0.0007205
0.000715351
0.00071017
0.000704944
0.000699665
0.000694331
0.000688951
0.000683542
0.000678137
0.00067278
0.00066753
0.000662458
0.000657647
0.000653187
0.000649173
0.000645701
0.000642863
0.000640746
0.000639424
0.000638963
0.000639412
0.000640805
0.000643161
0.000646485
0.000650766
0.000655981
0.000662091
0.00066905
0.0006768
0.000685271
0.000694391
0.000704076
0.000714242
0.000724797
0.000735651
0.000746712
0.000757889
0.000769097
0.000780254
0.000791283
0.000802116
0.000812692
0.00082296
0.000832877
0.000842409
0.00085153
0.000860224
0.000868481
0.000876301
0.000883688
0.000890654
0.000897215
0.000903394
0.000909222
0.000914735
0.000919975
0.000925
0.000929874
0.000934679
0.000939516
0.000944503
0.00094978
0.000955508
0.000961868
0.00096905
0.000977252
0.000986664
0.000997462
0.00100979
0.00102375
0.0010394
0.00105674
0.00107572
0.00109623
0.00111811
0.00114119
0.00116516
0.00119023
0.00121329
0.00125145
0.000908385
0.000903187
0.000897986
0.000892794
0.000887622
0.000882476
0.000877365
0.000872294
0.000867266
0.000862286
0.000857357
0.000852479
0.000847655
0.000842887
0.000838177
0.000833526
0.000828936
0.000824412
0.000819954
0.000815567
0.000811254
0.000807017
0.000802859
0.000798783
0.000794792
0.000790891
0.000787085
0.000783383
0.000779797
0.000776344
0.000773045
0.000769927
0.000767023
0.000764371
0.000762016
0.000760002
0.00075838
0.000757198
0.000756503
0.00075634
0.000756745
0.000757752
0.000759382
0.00076165
0.000764558
0.000768101
0.000772261
0.000777012
0.000782318
0.000788137
0.000794417
0.000801101
0.00080813
0.000815439
0.000822965
0.000830641
0.000838405
0.000846196
0.000853957
0.000861637
0.000869188
0.00087657
0.00088375
0.000890698
0.000897394
0.000903821
0.000909971
0.000915839
0.000921425
0.000926734
0.000931772
0.000936552
0.000941085
0.000945386
0.00094947
0.000953356
0.00095706
0.000960604
0.00096401
0.000967307
0.000970532
0.000973733
0.000976972
0.00098033
0.000983912
0.000987845
0.000992279
0.000997384
0.00100334
0.00101034
0.00101855
0.00102812
0.00103917
0.00105176
0.00106591
0.00108157
0.00109861
0.0011172
0.00113494
0.00116561
0.000954645
0.000950982
0.000947262
0.000943494
0.000939685
0.000935845
0.000931978
0.000928093
0.000924195
0.00092029
0.000916381
0.000912475
0.000908576
0.000904689
0.000900818
0.000896971
0.000893153
0.000889371
0.000885635
0.000881951
0.000878331
0.000874784
0.000871319
0.000867949
0.000864684
0.000861533
0.00085851
0.000855624
0.000852887
0.000850314
0.000847916
0.000845709
0.00084371
0.000841938
0.000840413
0.000839155
0.000838188
0.000837534
0.000837216
0.000837255
0.00083767
0.000838477
0.000839688
0.00084131
0.000843346
0.000845791
0.000848636
0.000851865
0.000855456
0.000859382
0.000863613
0.000868113
0.000872843
0.000877763
0.000882832
0.000888006
0.000893247
0.000898513
0.000903768
0.000908978
0.000914112
0.000919143
0.000924051
0.000928815
0.000933423
0.000937864
0.000942134
0.000946231
0.000950157
0.000953917
0.00095752
0.000960976
0.000964299
0.000967502
0.000970601
0.000973612
0.000976549
0.000979428
0.000982262
0.000985062
0.000987839
0.000990602
0.000993363
0.000996134
0.000998935
0.0010018
0.00100476
0.0010079
0.0010113
0.00101506
0.00101933
0.00102425
0.00102997
0.00103666
0.00104445
0.00105344
0.00106369
0.00107538
0.00108713
0.00110834
0.000981282
0.00097893
0.000976503
0.000974007
0.000971446
0.000968826
0.000966149
0.000963423
0.00096065
0.000957836
0.000954986
0.000952104
0.000949194
0.000946263
0.000943314
0.000940355
0.000937392
0.000934431
0.000931482
0.000928554
0.000925655
0.000922798
0.000919992
0.00091725
0.000914584
0.000912006
0.000909529
0.000907166
0.00090493
0.000902832
0.000900886
0.000899104
0.000897499
0.000896083
0.000894868
0.000893868
0.000893093
0.000892557
0.000892269
0.000892239
0.000892476
0.000892987
0.000893776
0.000894844
0.000896191
0.000897811
0.000899699
0.000901842
0.000904226
0.000906834
0.000909645
0.000912638
0.000915787
0.000919067
0.000922451
0.000925911
0.000929422
0.000932958
0.000936493
0.000940005
0.000943475
0.000946883
0.000950214
0.000953455
0.000956597
0.000959633
0.000962559
0.000965372
0.000968076
0.000970675
0.000973174
0.000975585
0.000977918
0.000980187
0.000982409
0.000984599
0.000986777
0.000988961
0.00099117
0.000993421
0.000995732
0.000998116
0.00100058
0.00100314
0.00100579
0.00100854
0.00101138
0.00101432
0.00101736
0.00102052
0.00102383
0.00102733
0.00103111
0.00103524
0.00103984
0.00104502
0.00105091
0.00105765
0.00106472
0.00107759
0.000995179
0.00099377
0.000992296
0.000990758
0.000989157
0.000987496
0.000985776
0.000983999
0.000982168
0.000980285
0.000978353
0.000976376
0.000974357
0.000972298
0.000970205
0.000968082
0.000965933
0.000963764
0.000961583
0.000959395
0.00095721
0.000955034
0.000952879
0.000950752
0.000948666
0.000946631
0.000944658
0.000942759
0.000940945
0.000939227
0.000937619
0.000936129
0.000934771
0.000933553
0.000932486
0.00093158
0.000930843
0.000930283
0.000929906
0.00092972
0.000929728
0.000929934
0.000930339
0.000930943
0.000931745
0.000932739
0.000933921
0.000935282
0.000936813
0.000938501
0.000940333
0.000942294
0.000944368
0.000946538
0.000948785
0.000951093
0.000953442
0.000955815
0.000958195
0.000960568
0.000962917
0.00096523
0.000967495
0.000969702
0.000971844
0.000973914
0.000975908
0.000977825
0.000979663
0.000981426
0.000983118
0.000984744
0.000986313
0.000987836
0.000989325
0.000990796
0.000992264
0.00099375
0.000995271
0.000996852
0.000998512
0.00100028
0.00100216
0.00100419
0.00100638
0.00100874
0.00101128
0.00101401
0.00101691
0.00101998
0.00102321
0.00102659
0.00103012
0.0010338
0.00103766
0.00104171
0.00104603
0.00105066
0.00105541
0.00106355
0.00100172
0.0010009
0.00100003
0.000999113
0.00099815
0.000997139
0.000996081
0.000994976
0.000993824
0.000992627
0.000991385
0.000990099
0.000988772
0.000987404
0.000985999
0.000984558
0.000983085
0.000981584
0.000980059
0.000978514
0.000976955
0.000975387
0.000973818
0.000972254
0.000970704
0.000969175
0.000967676
0.000966216
0.000964804
0.00096345
0.000962164
0.000960954
0.00095983
0.000958801