/*--------------------------------*- C++ -*----------------------------------*\
| =========                 |                                                 |
| \\      /  F ield         | OpenFOAM: The Open Source CFD Toolbox           |
|  \\    /   O peration     | Version:  4.1                                   |
|   \\  /    A nd           | Web:      www.OpenFOAM.org                      |
|    \\/     M anipulation  |                                                 |
\*---------------------------------------------------------------------------*/
FoamFile
{
    version     2.0;
    format      ascii;
    class       volScalarField;
    location    "600";
    object      p;
}
// * * * * * * * * * * * * * * * * * * * * * * * * * * * * * * * * * * * * * //

dimensions      [0 2 -2 0 0 0 0];

internalField   nonuniform List<scalar> 
6820
(
-7.89343
-8.69317
-9.15367
-9.2985
-9.37706
-9.45137
-9.51121
-9.55681
-9.59552
-9.631
-9.66381
-9.69414
-9.72248
-9.74923
-9.77467
-9.79896
-9.82228
-9.84481
-9.8667
-9.8881
-9.90916
-9.93003
-9.95085
-9.97178
-9.993
-10.0147
-10.037
-10.0603
-10.0846
-10.1109
-10.1376
-10.1714
-10.1866
-9.56713
-9.73292
-9.71851
-9.63894
-9.59669
-9.59345
-9.6035
-9.61707
-9.63437
-9.65517
-9.67786
-9.70125
-9.72482
-9.74832
-9.77155
-9.79439
-9.81679
-9.83875
-9.86032
-9.88157
-9.90258
-9.92347
-9.94434
-9.96532
-9.98657
-10.0082
-10.0305
-10.0536
-10.0778
-10.1037
-10.1314
-10.1647
-10.2061
-9.54556
-9.3575
-9.33889
-9.37337
-9.41517
-9.46344
-9.50996
-9.55046
-9.58697
-9.62134
-9.65375
-9.68415
-9.71277
-9.73988
-9.76568
-9.79033
-9.81398
-9.8368
-9.85893
-9.88052
-9.90172
-9.92267
-9.9435
-9.96437
-9.98543
-10.0068
-10.0288
-10.0514
-10.0751
-10.1002
-10.127
-10.1578
-10.1895
-9.46343
-9.36105
-9.41048
-9.47113
-9.50455
-9.53506
-9.56661
-9.59543
-9.62223
-9.64849
-9.6743
-9.6994
-9.72375
-9.74745
-9.77052
-9.793
-9.81494
-9.8364
-9.85747
-9.87822
-9.89875
-9.91916
-9.93955
-9.96003
-9.98072
-10.0018
-10.0233
-10.0454
-10.0684
-10.0924
-10.1176
-10.1446
-10.1712
-9.4559
-9.41601
-9.44818
-9.48593
-9.50813
-9.53301
-9.56218
-9.59051
-9.61744
-9.64396
-9.67012
-9.6956
-9.72033
-9.74436
-9.76771
-9.79042
-9.81253
-9.83412
-9.85527
-9.87606
-9.89658
-9.91693
-9.93721
-9.95752
-9.97796
-9.99866
-10.0197
-10.0412
-10.0634
-10.0862
-10.1097
-10.1338
-10.1572
-9.46509
-9.44499
-9.46091
-9.49068
-9.51461
-9.54
-9.56832
-9.59599
-9.62235
-9.64817
-9.67358
-9.69833
-9.72238
-9.74575
-9.7685
-9.79066
-9.81227
-9.8334
-9.85413
-9.87452
-9.89467
-9.91465
-9.93456
-9.95447
-9.97448
-9.99467
-10.0151
-10.0359
-10.057
-10.0786
-10.1003
-10.1221
-10.143
-9.47452
-9.46335
-9.47447
-9.50076
-9.52474
-9.54867
-9.5748
-9.60097
-9.62627
-9.65113
-9.67565
-9.69965
-9.72304
-9.74585
-9.7681
-9.78982
-9.81105
-9.83184
-9.85225
-9.87234
-9.8922
-9.91188
-9.93146
-9.95101
-9.9706
-9.99029
-10.0101
-10.0301
-10.0503
-10.0706
-10.0908
-10.1107
-10.1295
-9.48462
-9.47954
-9.48919
-9.51165
-9.53406
-9.55642
-9.58073
-9.60556
-9.62991
-9.65389
-9.6776
-9.70089
-9.72367
-9.74593
-9.76769
-9.78897
-9.80979
-9.83021
-9.85026
-9.87002
-9.88952
-9.90885
-9.92805
-9.94718
-9.96628
-9.98541
-10.0046
-10.0238
-10.043
-10.0621
-10.0809
-10.0991
-10.1163
-9.4955
-9.49416
-9.50295
-9.52206
-9.54281
-9.56393
-9.58671
-9.61024
-9.63358
-9.65667
-9.67955
-9.70211
-9.72424
-9.74593
-9.76717
-9.78797
-9.80836
-9.82837
-9.84804
-9.86742
-9.88655
-9.90549
-9.92427
-9.94293
-9.96152
-9.98005
-9.99852
-10.0169
-10.0352
-10.0532
-10.0707
-10.0876
-10.1035
-9.50667
-9.50737
-9.51564
-9.53223
-9.55139
-9.57133
-9.5927
-9.61494
-9.63725
-9.65944
-9.6815
-9.70331
-9.72478
-9.74587
-9.76657
-9.78688
-9.80682
-9.82639
-9.84565
-9.86462
-9.88334
-9.90185
-9.92018
-9.93835
-9.95639
-9.9743
-9.99206
-10.0096
-10.027
-10.044
-10.0604
-10.0761
-10.0909
-9.51776
-9.51953
-9.52744
-9.54214
-9.55976
-9.57851
-9.59859
-9.61961
-9.6409
-9.6622
-9.68343
-9.7045
-9.7253
-9.74578
-9.76592
-9.78572
-9.80517
-9.8243
-9.84311
-9.86165
-9.87993
-9.89798
-9.91582
-9.93347
-9.95094
-9.96821
-9.98527
-10.0021
-10.0185
-10.0346
-10.05
-10.0647
-10.0785
-9.52857
-9.53086
-9.53845
-9.55166
-9.56786
-9.58546
-9.60435
-9.62422
-9.64451
-9.66492
-9.68534
-9.70566
-9.72579
-9.74565
-9.76523
-9.78449
-9.80345
-9.82209
-9.84044
-9.85852
-9.87633
-9.8939
-9.91123
-9.92834
-9.94522
-9.96185
-9.97821
-9.99424
-10.0099
-10.025
-10.0396
-10.0534
-10.0664
-9.53897
-9.54146
-9.54872
-9.56074
-9.57566
-9.59216
-9.60995
-9.62873
-9.64804
-9.66758
-9.6872
-9.70678
-9.72623
-9.74547
-9.76447
-9.78319
-9.80163
-9.81978
-9.83765
-9.85524
-9.87257
-9.88963
-9.90644
-9.92299
-9.93927
-9.95526
-9.97093
-9.98622
-10.0011
-10.0154
-10.0292
-10.0422
-10.0545
-9.54889
-9.55141
-9.55831
-9.56935
-9.58312
-9.59858
-9.61533
-9.6331
-9.65147
-9.67015
-9.68898
-9.70784
-9.72661
-9.74523
-9.76363
-9.78181
-9.79972
-9.81736
-9.83473
-9.85182
-9.86864
-9.88519
-9.90146
-9.91744
-9.93312
-9.94848
-9.96347
-9.97806
-9.99219
-10.0058
-10.0188
-10.0311
-10.0427
-9.55826
-9.56073
-9.56725
-9.57746
-9.59022
-9.60469
-9.62048
-9.63729
-9.65476
-9.67262
-9.69067
-9.70881
-9.72691
-9.7449
-9.76272
-9.78033
-9.7977
-9.81482
-9.83168
-9.84826
-9.86456
-9.88058
-9.8963
-9.91172
-9.9268
-9.94154
-9.95588
-9.9698
-9.98323
-9.99614
-10.0084
-10.0201
-10.0311
-9.56706
-9.56943
-9.57557
-9.58506
-9.59691
-9.61047
-9.62536
-9.64127
-9.65789
-9.67494
-9.69224
-9.70967
-9.72711
-9.74448
-9.7617
-9.77875
-9.79558
-9.81217
-9.8285
-9.84456
-9.86034
-9.87582
-9.89099
-9.90584
-9.92034
-9.93446
-9.94817
-9.96144
-9.97423
-9.98648
-9.99816
-10.0092
-10.0196
-9.57526
-9.57751
-9.58329
-9.59212
-9.60318
-9.6159
-9.62994
-9.64501
-9.66081
-9.67709
-9.69366
-9.7104
-9.72719
-9.74394
-9.76058
-9.77706
-9.79334
-9.8094
-9.8252
-9.84073
-9.85598
-9.87092
-9.88554
-9.89983
-9.91374
-9.92727
-9.94038
-9.95303
-9.9652
-9.97685
-9.98794
-9.99844
-10.0083
-9.58285
-9.58498
-9.59039
-9.59865
-9.60899
-9.62094
-9.63419
-9.64847
-9.6635
-9.67904
-9.69491
-9.71098
-9.72713
-9.74327
-9.75932
-9.77524
-9.79098
-9.8065
-9.82177
-9.83677
-9.85149
-9.86589
-9.87997
-9.89369
-9.90704
-9.91999
-9.93251
-9.94458
-9.95616
-9.96724
-9.97777
-9.98775
-9.99715
-9.58981
-9.59181
-9.5969
-9.60463
-9.61432
-9.62556
-9.63809
-9.65163
-9.66593
-9.68076
-9.69596
-9.71138
-9.72691
-9.74245
-9.75793
-9.77329
-9.78848
-9.80347
-9.81821
-9.83269
-9.84687
-9.86074
-9.87428
-9.88745
-9.90025
-9.91264
-9.9246
-9.9361
-9.94713
-9.95766
-9.96767
-9.97715
-9.98608
-9.59612
-9.59801
-9.60279
-9.61005
-9.61915
-9.62974
-9.64159
-9.65445
-9.66807
-9.68224
-9.69679
-9.71158
-9.72651
-9.74147
-9.75638
-9.7712
-9.78585
-9.80031
-9.81453
-9.82848
-9.84214
-9.85548
-9.86849
-9.88113
-9.89338
-9.90523
-9.91665
-9.92762
-9.93812
-9.94813
-9.95765
-9.96665
-9.97514
-9.60178
-9.60356
-9.60805
-9.61488
-9.62345
-9.63346
-9.64469
-9.65691
-9.66989
-9.68342
-9.69736
-9.71156
-9.72591
-9.7403
-9.75467
-9.76895
-9.78308
-9.79701
-9.81071
-9.82415
-9.8373
-9.85012
-9.86261
-9.87473
-9.88646
-9.89778
-9.90868
-9.91914
-9.92914
-9.93866
-9.9477
-9.95626
-9.96432
-9.60677
-9.60845
-9.61268
-9.61911
-9.6272
-9.63668
-9.64734
-9.65897
-9.67135
-9.6843
-9.69766
-9.7113
-9.72509
-9.73894
-9.75278
-9.76654
-9.78015
-9.79358
-9.80678
-9.81971
-9.83235
-9.84468
-9.85665
-9.86827
-9.87949
-9.89032
-9.90072
-9.91068
-9.9202
-9.92926
-9.93785
-9.94597
-9.95362
-9.61107
-9.61265
-9.61664
-9.62272
-9.63038
-9.63937
-9.64951
-9.66061
-9.67244
-9.68485
-9.69767
-9.71077
-9.72403
-9.73737
-9.7507
-9.76396
-9.77707
-9.79001
-9.80272
-9.81516
-9.82732
-9.83915
-9.85064
-9.86176
-9.87251
-9.88284
-9.89277
-9.90226
-9.91132
-9.91993
-9.92809
-9.9358
-9.94306
-9.61466
-9.61616
-9.61993
-9.62569
-9.63296
-9.64151
-9.65118
-9.66179
-9.67313
-9.68503
-9.69735
-9.70995
-9.72272
-9.73558
-9.74842
-9.7612
-9.77384
-9.7863
-9.79854
-9.81051
-9.82219
-9.83356
-9.84458
-9.85523
-9.86551
-9.87538
-9.88485
-9.89389
-9.90251
-9.9107
-9.91844
-9.92575
-9.93263
-9.61753
-9.61895
-9.62252
-9.62799
-9.63491
-9.64307
-9.65232
-9.66249
-9.67338
-9.68482
-9.69668
-9.70882
-9.72114
-9.73354
-9.74593
-9.75826
-9.77045
-9.78246
-9.79424
-9.80576
-9.817
-9.82791
-9.83848
-9.84869
-9.85851
-9.86795
-9.87698
-9.8856
-9.8938
-9.90157
-9.90892
-9.91585
-9.92236
-9.61964
-9.62099
-9.62439
-9.62959
-9.63619
-9.64401
-9.65289
-9.66267
-9.67316
-9.6842
-9.69565
-9.70737
-9.71928
-9.73125
-9.74323
-9.75513
-9.76689
-9.77848
-9.78984
-9.80093
-9.81173
-9.82222
-9.83236
-9.84214
-9.85154
-9.86056
-9.86918
-9.87739
-9.88518
-9.89257
-9.89954
-9.90611
-9.91226
-9.62098
-9.62227
-9.62549
-9.63045
-9.63678
-9.64429
-9.65286
-9.6623
-9.67245
-9.68313
-9.69422
-9.70558
-9.71711
-9.7287
-9.74029
-9.75181
-9.76318
-9.77437
-9.78533
-9.79602
-9.80642
-9.8165
-9.82624
-9.83562
-9.84463
-9.85324
-9.86147
-9.86929
-9.87672
-9.88373
-9.89034
-9.89655
-9.90237
-9.62152
-9.62274
-9.6258
-9.63053
-9.63661
-9.64388
-9.65218
-9.66135
-9.67121
-9.6816
-9.69238
-9.70342
-9.71462
-9.72589
-9.73713
-9.74829
-9.75931
-9.77013
-9.78072
-9.79104
-9.80106
-9.81076
-9.82012
-9.82912
-9.83775
-9.84599
-9.85385
-9.8613
-9.86837
-9.87503
-9.8813
-9.88718
-9.89266
-9.62123
-9.62238
-9.62527
-9.62978
-9.63565
-9.64271
-9.65081
-9.65977
-9.66941
-9.67957
-9.69011
-9.70089
-9.71182
-9.7228
-9.73375
-9.7446
-9.7553
-9.7658
-9.77606
-9.78604
-9.79573
-9.80508
-9.81409
-9.82275
-9.83103
-9.83892
-9.84643
-9.85355
-9.86028
-9.86662
-9.87256
-9.87812
-9.88329
-9.62009
-9.62116
-9.62385
-9.62814
-9.63382
-9.64074
-9.64871
-9.65753
-9.66702
-9.67702
-9.68738
-9.69796
-9.70866
-9.7194
-9.73008
-9.74066
-9.75107
-9.76127
-9.77122
-9.78089
-9.79025
-9.79928
-9.80797
-9.81629
-9.82425
-9.83182
-9.83901
-9.84581
-9.85222
-9.85824
-9.86388
-9.86915
-9.87404
-9.6181
-9.61905
-9.62148
-9.6255
-9.63104
-9.63789
-9.6458
-9.65457
-9.664
-9.67394
-9.68422
-9.6947
-9.70528
-9.71587
-9.72639
-9.73678
-9.74698
-9.75695
-9.76666
-9.77607
-9.78517
-9.79392
-9.80232
-9.81036
-9.81802
-9.8253
-9.8322
-9.8387
-9.84482
-9.85056
-9.85591
-9.86088
-9.86547
-9.61527
-9.61604
-9.61806
-9.62175
-9.6272
-9.6341
-9.64206
-9.65084
-9.66026
-9.67014
-9.68033
-9.69068
-9.70111
-9.71153
-9.72185
-9.73203
-9.74201
-9.75175
-9.76122
-9.77039
-9.77923
-9.78773
-9.79588
-9.80366
-9.81106
-9.81809
-9.82472
-9.83098
-9.83685
-9.84233
-9.84745
-9.85219
-9.85658
-9.61169
-9.61211
-9.61346
-9.61669
-9.62209
-9.62915
-9.63738
-9.6465
-9.65632
-9.66656
-9.67703
-9.68759
-9.69815
-9.70863
-9.71896
-9.72908
-9.73896
-9.74855
-9.75785
-9.76681
-9.77543
-9.7837
-9.79159
-9.79911
-9.80624
-9.81299
-9.81935
-9.82532
-9.8309
-9.83611
-9.84092
-9.84536
-9.84941
-9.6076
-9.60725
-9.60739
-9.61023
-9.61582
-9.62288
-9.63079
-9.63959
-9.64916
-9.65921
-9.66954
-9.67999
-9.69047
-9.70089
-9.71117
-9.72125
-9.73109
-9.74065
-9.7499
-9.75882
-9.76738
-9.77558
-9.78341
-9.79085
-9.7979
-9.80456
-9.81083
-9.81671
-9.8222
-9.82731
-9.83205
-9.83643
-9.84047
-9.60368
-9.60148
-9.59869
-9.60109
-9.60866
-9.6183
-9.62855
-9.63926
-9.65028
-9.66135
-9.67233
-9.68315
-9.69377
-9.70415
-9.71426
-9.72407
-9.73357
-9.74275
-9.75158
-9.76006
-9.76817
-9.77591
-9.78328
-9.79026
-9.79686
-9.80307
-9.8089
-9.81435
-9.81941
-9.82409
-9.82839
-9.83231
-9.83582
-9.60112
-9.59603
-9.58854
-9.58631
-9.589
-9.59467
-9.60287
-9.61306
-9.62429
-9.63595
-9.64778
-9.65963
-9.67135
-9.68284
-9.69403
-9.70487
-9.71534
-9.72542
-9.73508
-9.74432
-9.75314
-9.76152
-9.76947
-9.77699
-9.78407
-9.79072
-9.79696
-9.80277
-9.80817
-9.81318
-9.8178
-9.82206
-9.82599
-9.60156
-9.58167
-9.5845
-9.60433
-9.62112
-9.63208
-9.64195
-9.6524
-9.66273
-9.67257
-9.68209
-9.69144
-9.70062
-9.70959
-9.71835
-9.72688
-9.73516
-9.74319
-9.75094
-9.7584
-9.76555
-9.77239
-9.77889
-9.78506
-9.7909
-9.79638
-9.80152
-9.8063
-9.81073
-9.81481
-9.81853
-9.82188
-9.82485
-9.63902
-9.51578
-9.4527
-9.45637
-9.47876
-9.5005
-9.52184
-9.5436
-9.56474
-9.58462
-9.60323
-9.62069
-9.63706
-9.6524
-9.66681
-9.68034
-9.69308
-9.70506
-9.71633
-9.72693
-9.7369
-9.74625
-9.75502
-9.76323
-9.7709
-9.77804
-9.78467
-9.79082
-9.79649
-9.8017
-9.80648
-9.81083
-9.81479
-9.79893
-9.81208
-9.77077
-9.72861
-9.70464
-9.69413
-9.68962
-9.68768
-9.68781
-9.69001
-9.69384
-9.69875
-9.70436
-9.71049
-9.71696
-9.72365
-9.73043
-9.73722
-9.74394
-9.75054
-9.75698
-9.76321
-9.76922
-9.77496
-9.78042
-9.7856
-9.79047
-9.79502
-9.79927
-9.80319
-9.80678
-9.81006
-9.81301
-8.63467
-8.935
-9.20004
-9.32597
-9.39095
-9.44705
-9.49658
-9.53494
-9.56463
-9.58953
-9.61137
-9.63065
-9.6478
-9.6633
-9.67748
-9.69057
-9.7027
-9.71399
-9.72453
-9.73437
-9.74358
-9.75219
-9.76024
-9.76774
-9.77473
-9.78122
-9.78723
-9.79277
-9.79787
-9.80253
-9.80676
-9.81059
-9.81401
-10.2746
-10.1765
-10.2263
-10.2808
-10.3054
-10.3207
-10.3317
-10.3365
-10.3357
-10.3318
-10.3269
-10.3229
-10.3217
-10.3245
-10.3326
-10.3467
-10.3669
-10.3931
-10.4247
-10.4609
-10.5006
-10.5425
-10.5855
-10.6282
-10.6695
-10.7083
-10.7434
-10.774
-10.7992
-10.818
-10.8296
-10.8331
-10.8279
-10.8131
-10.7881
-10.752
-10.7043
-10.6443
-10.5715
-10.4855
-10.3858
-10.2721
-10.1444
-10.0023
-9.84606
-9.6756
-9.49114
-9.29299
-9.08157
-8.85744
-8.62128
-8.37388
-8.11616
-7.84915
-7.57399
-7.29189
-7.00414
-6.71209
-6.41711
-6.1206
-5.82394
-5.52849
-5.23559
-4.94647
-4.66233
-4.38424
-4.11319
-3.85005
-3.59557
-3.35036
-3.11494
-2.88967
-2.67482
-2.47054
-2.2769
-2.09386
-1.92131
-1.75906
-1.60686
-1.46438
-1.33127
-1.20712
-1.09153
-0.984028
-0.884193
-0.791563
-0.705703
-0.626167
-0.552543
-0.48441
-0.421373
-0.363053
-0.309009
-0.258993
-0.212175
-0.169129
-0.126609
-0.0908572
-0.0435836
-0.0296995
-10.2713
-10.2658
-10.294
-10.3136
-10.3093
-10.2996
-10.2919
-10.285
-10.2784
-10.2732
-10.2702
-10.2701
-10.2736
-10.2816
-10.2946
-10.3128
-10.3363
-10.3648
-10.3977
-10.4343
-10.4737
-10.5149
-10.5567
-10.598
-10.638
-10.6753
-10.7092
-10.7385
-10.7624
-10.78
-10.7904
-10.7928
-10.7865
-10.7708
-10.7448
-10.7079
-10.6596
-10.5991
-10.526
-10.4399
-10.3402
-10.2269
-10.0996
-9.95831
-9.80296
-9.63366
-9.45059
-9.25406
-9.0445
-8.82243
-8.58854
-8.34359
-8.0885
-7.82428
-7.55202
-7.27291
-6.98822
-6.69926
-6.40736
-6.1139
-5.82022
-5.52765
-5.23748
-4.95096
-4.66922
-4.39334
-4.12428
-3.86291
-3.60996
-3.36606
-3.13171
-2.90729
-2.69307
-2.48922
-2.29582
-2.11284
-1.94019
-1.7777
-1.62512
-1.48216
-1.34846
-1.22365
-1.10733
-0.99905
-0.898394
-0.804912
-0.718179
-0.637755
-0.563233
-0.494196
-0.430248
-0.371012
-0.316042
-0.265097
-0.217314
-0.173351
-0.129691
-0.093402
-0.0436475
-0.033168
-10.2296
-10.2357
-10.2409
-10.2537
-10.261
-10.2652
-10.2692
-10.2716
-10.2713
-10.2691
-10.2663
-10.2643
-10.2646
-10.2685
-10.2772
-10.2911
-10.3108
-10.3361
-10.3665
-10.4013
-10.4394
-10.4798
-10.5212
-10.5621
-10.6016
-10.6383
-10.6713
-10.6996
-10.7223
-10.7387
-10.7478
-10.7491
-10.7417
-10.7249
-10.6981
-10.6605
-10.6115
-10.5507
-10.4774
-10.3912
-10.2918
-10.1788
-10.0522
-9.91175
-9.75752
-9.58957
-9.4081
-9.2134
-9.0059
-8.78613
-8.55474
-8.31249
-8.06026
-7.79904
-7.52991
-7.25401
-6.97258
-6.68689
-6.39826
-6.10799
-5.81743
-5.52786
-5.24055
-4.9567
-4.67745
-4.40384
-4.13683
-3.87727
-3.62589
-3.38331
-3.15004
-2.92647
-2.71289
-2.50946
-2.31627
-2.13333
-1.96054
-1.79776
-1.64476
-1.50125
-1.36692
-1.24138
-1.12426
-1.01514
-0.91359
-0.819187
-0.731511
-0.65013
-0.57464
-0.504631
-0.439704
-0.379487
-0.323528
-0.271589
-0.222786
-0.177834
-0.133018
-0.0960366
-0.0440059
-0.0362978
-10.2026
-10.2194
-10.2306
-10.2478
-10.2602
-10.2652
-10.2668
-10.2663
-10.2638
-10.2607
-10.2582
-10.2575
-10.2595
-10.2651
-10.2749
-10.2891
-10.3079
-10.3312
-10.3585
-10.3893
-10.4228
-10.4583
-10.4948
-10.5312
-10.5666
-10.5998
-10.63
-10.656
-10.677
-10.6919
-10.6999
-10.7002
-10.6919
-10.6744
-10.6469
-10.6088
-10.5594
-10.4983
-10.425
-10.3389
-10.2399
-10.1275
-10.0017
-9.86239
-9.70947
-9.54308
-9.36342
-9.17077
-8.96556
-8.74829
-8.5196
-8.28025
-8.03108
-7.77306
-7.50722
-7.2347
-6.95668
-6.67441
-6.38917
-6.10223
-5.8149
-5.52844
-5.24409
-4.96301
-4.68634
-4.41509
-4.1502
-3.89253
-3.64278
-3.40159
-3.16947
-2.9468
-2.73388
-2.53089
-2.33795
-2.15505
-1.98213
-1.81905
-1.6656
-1.52153
-1.38652
-1.26022
-1.14226
-1.03223
-0.929743
-0.834361
-0.745681
-0.663281
-0.58676
-0.515714
-0.449745
-0.388483
-0.331472
-0.278476
-0.228597
-0.182588
-0.136592
-0.0987783
-0.0446692
-0.0390495
-10.1831
-10.2024
-10.2148
-10.228
-10.2379
-10.2424
-10.2446
-10.2459
-10.2463
-10.2461
-10.2463
-10.2477
-10.2512
-10.2574
-10.2672
-10.2808
-10.2985
-10.3203
-10.3459
-10.3748
-10.4062
-10.4394
-10.4732
-10.5069
-10.5392
-10.5693
-10.5961
-10.6188
-10.6365
-10.6484
-10.6536
-10.6514
-10.6411
-10.6218
-10.593
-10.5538
-10.5038
-10.4423
-10.3688
-10.283
-10.1843
-10.0727
-9.94786
-9.80971
-9.65826
-9.49359
-9.31589
-9.12545
-8.92268
-8.70807
-8.48224
-8.24593
-7.99996
-7.74527
-7.48287
-7.21385
-6.93938
-6.66066
-6.37893
-6.09545
-5.81149
-5.52826
-5.24699
-4.96883
-4.69486
-4.4261
-4.16348
-3.90781
-3.65983
-3.42015
-3.18927
-2.96761
-2.75545
-2.553
-2.36036
-2.17757
-2.00457
-1.84123
-1.68737
-1.54275
-1.40707
-1.28
-1.16118
-1.05023
-0.946762
-0.850363
-0.760634
-0.677165
-0.599561
-0.527423
-0.460356
-0.39799
-0.33987
-0.285758
-0.234749
-0.187614
-0.14042
-0.101632
-0.0456738
-0.0413522
-10.1654
-10.1848
-10.1984
-10.2109
-10.2212
-10.2278
-10.232
-10.2348
-10.2364
-10.2372
-10.2382
-10.2402
-10.2441
-10.2505
-10.2601
-10.2731
-10.2898
-10.3101
-10.3337
-10.3601
-10.3887
-10.4188
-10.4494
-10.4798
-10.5089
-10.5358
-10.5597
-10.5796
-10.5946
-10.604
-10.607
-10.6027
-10.5903
-10.5693
-10.5389
-10.4984
-10.4473
-10.385
-10.3111
-10.225
-10.1266
-10.0154
-9.89132
-9.75426
-9.60418
-9.44118
-9.26544
-9.07721
-8.87691
-8.665
-8.4421
-8.20891
-7.96623
-7.71496
-7.4561
-7.1907
-6.91989
-6.64485
-6.36677
-6.08689
-5.80643
-5.52659
-5.24855
-4.97345
-4.70233
-4.43621
-4.17599
-3.92248
-3.67639
-3.43835
-3.20886
-2.98832
-2.77704
-2.57523
-2.38301
-2.20042
-2.02742
-1.8639
-1.70969
-1.56457
-1.42826
-1.30045
-1.1808
-1.06894
-0.964488
-0.867059
-0.776262
-0.691696
-0.612974
-0.539704
-0.471494
-0.407977
-0.348697
-0.293415
-0.241229
-0.192907
-0.144496
-0.104595
-0.0470453
-0.0431453
-10.1496
-10.1683
-10.1826
-10.1949
-10.2052
-10.2125
-10.2174
-10.2209
-10.2234
-10.2254
-10.2275
-10.2306
-10.2352
-10.2421
-10.2516
-10.2642
-10.2799
-10.2987
-10.3204
-10.3446
-10.3706
-10.3979
-10.4255
-10.4528
-10.4787
-10.5025
-10.5232
-10.5401
-10.5522
-10.5589
-10.5592
-10.5525
-10.538
-10.515
-10.4829
-10.4411
-10.3889
-10.3258
-10.2514
-10.1651
-10.0668
-9.95602
-9.83267
-9.69664
-9.5479
-9.38653
-9.21271
-9.02669
-8.82885
-8.61967
-8.39972
-8.16969
-7.93035
-7.68258
-7.42734
-7.16565
-6.8986
-6.62733
-6.35302
-6.07685
-5.80001
-5.52368
-5.24899
-4.97706
-4.70892
-4.44554
-4.18782
-3.93656
-3.69247
-3.45616
-3.22813
-3.0088
-2.79848
-2.59738
-2.40564
-2.22332
-2.05039
-1.88675
-1.73226
-1.58669
-1.44981
-1.32131
-1.20086
-1.08811
-0.982707
-0.884263
-0.792403
-0.706736
-0.626884
-0.552463
-0.483083
-0.418381
-0.357905
-0.301411
-0.248008
-0.198445
-0.148803
-0.107666
-0.0487901
-0.0443949
-10.1347
-10.1526
-10.167
-10.1792
-10.1895
-10.1973
-10.2031
-10.2075
-10.2109
-10.2139
-10.217
-10.2209
-10.2261
-10.2332
-10.2425
-10.2545
-10.2692
-10.2866
-10.3065
-10.3284
-10.352
-10.3765
-10.4013
-10.4255
-10.4484
-10.4691
-10.4868
-10.5007
-10.51
-10.5138
-10.5116
-10.5025
-10.4858
-10.4609
-10.427
-10.3837
-10.3303
-10.2663
-10.1912
-10.1047
-10.0063
-9.89587
-9.77317
-9.63811
-9.49067
-9.3309
-9.15898
-8.97517
-8.77981
-8.57337
-8.3564
-8.12957
-7.89362
-7.6494
-7.39784
-7.13992
-6.87671
-6.60929
-6.33881
-6.06642
-5.79326
-5.52049
-5.24921
-4.9805
-4.71537
-4.45479
-4.19961
-3.95063
-3.70856
-3.474
-3.24746
-3.02936
-2.82001
-2.61964
-2.4284
-2.24636
-2.07351
-1.90977
-1.755
-1.60902
-1.47158
-1.3424
-1.22118
-1.10757
-1.00123
-0.90179
-0.808882
-0.722126
-0.641149
-0.565573
-0.495015
-0.429114
-0.36742
-0.309687
-0.255037
-0.204193
-0.153308
-0.110831
-0.0508879
-0.0451026
-10.1205
-10.1375
-10.1518
-10.1639
-10.1742
-10.1825
-10.1889
-10.194
-10.1983
-10.2021
-10.2059
-10.2104
-10.216
-10.2232
-10.2324
-10.2437
-10.2575
-10.2735
-10.2916
-10.3114
-10.3326
-10.3545
-10.3765
-10.3978
-10.4178
-10.4355
-10.4502
-10.4612
-10.4677
-10.469
-10.4642
-10.4528
-10.434
-10.4071
-10.3716
-10.3268
-10.2722
-10.2072
-10.1316
-10.0447
-9.94632
-9.83621
-9.71415
-9.58004
-9.43387
-9.2757
-9.10567
-8.92405
-8.73116
-8.52746
-8.31348
-8.08985
-7.8573
-7.61664
-7.36876
-7.11461
-6.85523
-6.59166
-6.32501
-6.05639
-5.78692
-5.5177
-5.24982
-4.98433
-4.72221
-4.4644
-4.21175
-3.96506
-3.725
-3.49219
-3.26714
-3.05025
-2.84187
-2.64222
-2.45148
-2.26971
-2.09693
-1.93308
-1.77804
-1.63162
-1.49362
-1.36376
-1.24175
-1.12728
-1.02
-0.919559
-0.825601
-0.737754
-0.655651
-0.57892
-0.50718
-0.440073
-0.377151
-0.318165
-0.262251
-0.210099
-0.157968
-0.114068
-0.0532893
-0.0453116
-10.1067
-10.123
-10.137
-10.1489
-10.1592
-10.1678
-10.1747
-10.1804
-10.1854
-10.1899
-10.1944
-10.1993
-10.2052
-10.2125
-10.2213
-10.2321
-10.2448
-10.2594
-10.2758
-10.2937
-10.3126
-10.3319
-10.3512
-10.3698
-10.3868
-10.4017
-10.4135
-10.4218
-10.4256
-10.4242
-10.417
-10.4033
-10.3824
-10.3537
-10.3165
-10.2703
-10.2146
-10.1488
-10.0725
-9.98537
-9.88703
-9.77726
-9.65586
-9.52273
-9.37784
-9.22127
-9.05314
-8.87371
-8.68329
-8.48232
-8.2713
-8.05086
-7.82168
-7.58455
-7.34032
-7.08992
-6.83434
-6.57459
-6.31173
-6.04685
-5.78103
-5.51534
-5.25083
-4.98853
-4.72939
-4.47434
-4.22422
-3.97979
-3.74175
-3.51068
-3.2871
-3.07144
-2.86403
-2.66511
-2.47487
-2.29338
-2.12068
-1.95671
-1.80139
-1.65454
-1.51596
-1.38541
-1.26262
-1.14726
-1.03903
-0.937576
-0.842553
-0.7536
-0.670356
-0.592455
-0.51952
-0.451193
-0.387031
-0.326776
-0.269587
-0.216107
-0.162729
-0.117346
-0.0559127
-0.0451061
-10.0934
-10.1089
-10.1225
-10.1343
-10.1445
-10.1533
-10.1606
-10.1668
-10.1723
-10.1773
-10.1823
-10.1877
-10.1937
-10.2009
-10.2094
-10.2195
-10.2312
-10.2445
-10.2593
-10.2752
-10.2918
-10.3088
-10.3255
-10.3413
-10.3556
-10.3676
-10.3768
-10.3823
-10.3834
-10.3796
-10.37
-10.3541
-10.3311
-10.3006
-10.2618
-10.2143
-10.1574
-10.0908
-10.014
-9.92663
-9.82835
-9.71894
-9.59822
-9.46608
-9.32249
-9.16752
-9.00129
-8.82404
-8.63608
-8.43781
-8.22974
-8.01246
-7.78662
-7.55298
-7.31237
-7.06568
-6.81386
-6.55788
-6.29879
-6.03761
-5.77541
-5.51321
-5.25205
-4.99291
-4.73675
-4.48444
-4.23683
-3.99466
-3.75862
-3.5293
-3.30721
-3.09278
-2.88634
-2.68817
-2.49843
-2.31723
-2.14462
-1.98055
-1.82496
-1.67769
-1.53855
-1.40732
-1.28373
-1.1675
-1.05831
-0.955834
-0.859736
-0.769664
-0.685264
-0.606176
-0.532028
-0.462461
-0.39704
-0.335498
-0.277016
-0.222188
-0.16756
-0.120643
-0.0586668
-0.0446093
-10.0804
-10.0951
-10.1083
-10.1199
-10.1301
-10.139
-10.1466
-10.1532
-10.159
-10.1645
-10.1698
-10.1754
-10.1816
-10.1886
-10.1967
-10.2061
-10.2168
-10.2288
-10.2419
-10.2559
-10.2705
-10.2851
-10.2993
-10.3125
-10.3241
-10.3335
-10.3399
-10.3428
-10.3414
-10.3351
-10.3232
-10.3051
-10.2802
-10.2479
-10.2075
-10.1587
-10.1008
-10.0334
-9.95605
-9.86844
-9.77024
-9.66121
-9.54117
-9.41002
-9.26773
-9.11435
-8.95001
-8.77492
-8.5894
-8.39382
-8.18867
-7.97451
-7.75198
-7.5218
-7.28477
-7.04175
-6.79364
-6.54141
-6.28603
-6.02852
-5.7699
-5.51117
-5.25333
-4.99734
-4.74412
-4.49455
-4.24944
-4.00953
-3.7755
-3.54792
-3.32732
-3.11413
-2.90868
-2.71126
-2.52204
-2.34115
-2.16864
-2.00449
-1.84864
-1.70096
-1.56127
-1.42937
-1.30501
-1.1879
-1.07776
-0.974272
-0.877101
-0.785908
-0.700347
-0.620064
-0.544691
-0.473872
-0.407176
-0.34433
-0.284538
-0.22834
-0.172454
-0.123964
-0.0614789
-0.0439709
-10.0677
-10.0818
-10.0945
-10.1058
-10.1159
-10.1248
-10.1326
-10.1394
-10.1456
-10.1513
-10.1569
-10.1626
-10.1688
-10.1756
-10.1833
-10.1919
-10.2016
-10.2123
-10.2239
-10.2361
-10.2485
-10.2609
-10.2727
-10.2834
-10.2924
-10.2992
-10.303
-10.3033
-10.2994
-10.2907
-10.2766
-10.2564
-10.2296
-10.1955
-10.1537
-10.1036
-10.0446
-9.97645
-9.89863
-9.81081
-9.7127
-9.60405
-9.48469
-9.35453
-9.21352
-9.06173
-8.89925
-8.72632
-8.5432
-8.35028
-8.14802
-7.93694
-7.71768
-7.49092
-7.25743
-7.01803
-6.7736
-6.52506
-6.27337
-6.0195
-5.76442
-5.50913
-5.25458
-5.00172
-4.75144
-4.50459
-4.26197
-4.02432
-3.79229
-3.56646
-3.34736
-3.13542
-2.93097
-2.73431
-2.54562
-2.36505
-2.19266
-2.02845
-1.87236
-1.72428
-1.58406
-1.4515
-1.32636
-1.2084
-1.09732
-0.992818
-0.894578
-0.802268
-0.715548
-0.634069
-0.557469
-0.485393
-0.417415
-0.353255
-0.292145
-0.234564
-0.177414
-0.127322
-0.0643018
-0.0433354
-10.0553
-10.0687
-10.0809
-10.0919
-10.1019
-10.1107
-10.1186
-10.1256
-10.132
-10.1379
-10.1436
-10.1494
-10.1554
-10.162
-10.1691
-10.177
-10.1857
-10.1952
-10.2052
-10.2156
-10.2261
-10.2363
-10.2458
-10.2541
-10.2606
-10.2648
-10.2661
-10.264
-10.2577
-10.2467
-10.2303
-10.2081
-10.1794
-10.1437
-10.1003
-10.0489
-9.98901
-9.92009
-9.84179
-9.75377
-9.65575
-9.54748
-9.42881
-9.29962
-9.15989
-9.00965
-8.84903
-8.67821
-8.49748
-8.30718
-8.10776
-7.89974
-7.6837
-7.46031
-7.23031
-6.99449
-6.7537
-6.50882
-6.26077
-6.01049
-5.75893
-5.50705
-5.25577
-5.00601
-4.75864
-4.5145
-4.27437
-4.03897
-3.80894
-3.58488
-3.36728
-3.15659
-2.95315
-2.75727
-2.56913
-2.3889
-2.21664
-2.05237
-1.89605
-1.74759
-1.60685
-1.47364
-1.34775
-1.22893
-1.11692
-1.01141
-0.912112
-0.818688
-0.730811
-0.648138
-0.57031
-0.496976
-0.427715
-0.362239
-0.299807
-0.240838
-0.182419
-0.130716
-0.0670944
-0.0428048
-10.0431
-10.0558
-10.0676
-10.0783
-10.088
-10.0968
-10.1047
-10.1117
-10.1182
-10.1242
-10.13
-10.1357
-10.1415
-10.1477
-10.1543
-10.1615
-10.1692
-10.1773
-10.1859
-10.1946
-10.2032
-10.2113
-10.2186
-10.2245
-10.2286
-10.2304
-10.2293
-10.2247
-10.2161
-10.2028
-10.1844
-10.1602
-10.1296
-10.0922
-10.0475
-9.99489
-9.93397
-9.86432
-9.78556
-9.69735
-9.59942
-9.49154
-9.37354
-9.24532
-9.10685
-8.95815
-8.79935
-8.63062
-8.45223
-8.26452
-8.06791
-7.86289
-7.65003
-7.42997
-7.20342
-6.97113
-6.73393
-6.49266
-6.2482
-6.00148
-5.75341
-5.50489
-5.25686
-5.01018
-4.76571
-4.52426
-4.28661
-4.05345
-3.82542
-3.60312
-3.38703
-3.1776
-2.97519
-2.78009
-2.59252
-2.41263
-2.24052
-2.07622
-1.91969
-1.77086
-1.6296
-1.49576
-1.36913
-1.24947
-1.13653
-1.03002
-0.929664
-0.835129
-0.746098
-0.662231
-0.583177
-0.508584
-0.438038
-0.371245
-0.307489
-0.247133
-0.187439
-0.13413
-0.0698175
-0.0424288
-10.031
-10.0432
-10.0545
-10.0649
-10.0743
-10.083
-10.0907
-10.0978
-10.1043
-10.1103
-10.116
-10.1216
-10.1272
-10.1329
-10.139
-10.1453
-10.152
-10.1589
-10.166
-10.1731
-10.1798
-10.1859
-10.1911
-10.1948
-10.1966
-10.196
-10.1925
-10.1856
-10.1747
-10.1593
-10.1388
-10.1126
-10.0803
-10.0414
-9.99522
-9.94143
-9.87956
-9.8092
-9.73
-9.64161
-9.54378
-9.43628
-9.31895
-9.19168
-9.05444
-8.90727
-8.75026
-8.58358
-8.4075
-8.22234
-8.02848
-7.82642
-7.61669
-7.39991
-7.17675
-6.94795
-6.71428
-6.47657
-6.23567
-5.99246
-5.74783
-5.50266
-5.25783
-5.0142
-4.77261
-4.53384
-4.29865
-4.06773
-3.8417
-3.62116
-3.40658
-3.19843
-2.99705
-2.80275
-2.61575
-2.43623
-2.26428
-2.09995
-1.94322
-1.79404
-1.65229
-1.51783
-1.39046
-1.26997
-1.15611
-1.04862
-0.947203
-0.851563
-0.76138
-0.676321
-0.59604
-0.520189
-0.448357
-0.380247
-0.315167
-0.253422
-0.192447
-0.137546
-0.072442
-0.0422197
-10.0191
-10.0308
-10.0416
-10.0516
-10.0608
-10.0692
-10.0769
-10.0838
-10.0902
-10.0961
-10.1017
-10.1071
-10.1124
-10.1177
-10.1231
-10.1286
-10.1343
-10.14
-10.1457
-10.1511
-10.1561
-10.1603
-10.1633
-10.1649
-10.1645
-10.1617
-10.1559
-10.1468
-10.1337
-10.1162
-10.0936
-10.0656
-10.0316
-9.99107
-9.94356
-9.88862
-9.82583
-9.75479
-9.67516
-9.5866
-9.48887
-9.38175
-9.26507
-9.13874
-9.00272
-8.85703
-8.70178
-8.53713
-8.36332
-8.18065
-7.98951
-7.79036
-7.58371
-7.37015
-7.15033
-6.92495
-6.69477
-6.46057
-6.22318
-5.98343
-5.7422
-5.50032
-5.25867
-5.01807
-4.77933
-4.54322
-4.31048
-4.08178
-3.85775
-3.63896
-3.42591
-3.21903
-3.01869
-2.8252
-2.6388
-2.45965
-2.28788
-2.12354
-1.96663
-1.81711
-1.67488
-1.5398
-1.41171
-1.2904
-1.17564
-1.06716
-0.964704
-0.867963
-0.776633
-0.690385
-0.60888
-0.53177
-0.458654
-0.389226
-0.322821
-0.259691
-0.197426
-0.14095
-0.0749559
-0.0421704
-10.0074
-10.0185
-10.0289
-10.0385
-10.0474
-10.0556
-10.063
-10.0698
-10.0761
-10.0818
-10.0872
-10.0923
-10.0972
-10.102
-10.1067
-10.1114
-10.1161
-10.1206
-10.1249
-10.1288
-10.1321
-10.1344
-10.1355
-10.1349
-10.1324
-10.1274
-10.1195
-10.1082
-10.093
-10.0734
-10.049
-10.0191
-9.98344
-9.94141
-9.89259
-9.83654
-9.77285
-9.70115
-9.6211
-9.53238
-9.43475
-9.328
-9.21197
-9.08656
-8.95173
-8.80751
-8.65399
-8.49132
-8.31973
-8.13951
-7.95104
-7.75473
-7.55111
-7.34071
-7.12418
-6.90217
-6.67541
-6.44467
-6.21072
-5.9744
-5.73651
-5.4979
-5.25938
-5.02177
-4.78585
-4.55238
-4.32207
-4.09559
-3.87355
-3.65651
-3.44498
-3.23938
-3.04009
-2.84742
-2.66161
-2.48286
-2.31128
-2.14694
-1.98987
-1.84002
-1.69733
-1.56166
-1.43286
-1.31074
-1.19508
-1.08563
-0.982139
-0.884306
-0.791833
-0.704402
-0.621675
-0.543311
-0.468912
-0.398168
-0.330438
-0.265926
-0.202363
-0.144336
-0.0773612
-0.0422642
-9.99587
-10.0064
-10.0163
-10.0256
-10.0341
-10.042
-10.0492
-10.0558
-10.0618
-10.0673
-10.0724
-10.0772
-10.0816
-10.0859
-10.0899
-10.0938
-10.0975
-10.1008
-10.1038
-10.1062
-10.1078
-10.1083
-10.1075
-10.105
-10.1004
-10.0933
-10.0833
-10.0699
-10.0527
-10.0311
-10.0048
-9.97324
-9.93594
-9.89246
-9.84236
-9.78524
-9.72068
-9.64834
-9.56789
-9.47902
-9.38149
-9.2751
-9.1597
-9.03519
-8.90154
-8.75875
-8.60692
-8.44619
-8.27678
-8.09896
-7.9131
-7.71959
-7.51893
-7.31164
-7.09832
-6.87962
-6.65623
-6.42888
-6.19833
-5.96536
-5.73078
-5.49538
-5.25995
-5.0253
-4.79217
-4.56131
-4.33341
-4.10913
-3.88907
-3.67378
-3.46376
-3.25944
-3.06121
-2.86936
-2.68417
-2.50581
-2.33444
-2.17013
-2.0129
-1.86275
-1.7196
-1.58336
-1.45386
-1.33095
-1.21441
-1.104
-0.99948
-0.900562
-0.806956
-0.718348
-0.634406
-0.554792
-0.479114
-0.407059
-0.338007
-0.27212
-0.207251
-0.147698
-0.0796671
-0.0424789
-9.98445
-9.9945
-10.0039
-10.0128
-10.0209
-10.0285
-10.0354
-10.0417
-10.0475
-10.0527
-10.0575
-10.0618
-10.0658
-10.0695
-10.0728
-10.0758
-10.0785
-10.0807
-10.0824