/*--------------------------------*- C++ -*----------------------------------*\
| =========                 |                                                 |
| \\      /  F ield         | OpenFOAM: The Open Source CFD Toolbox           |
|  \\    /   O peration     | Version:  4.1                                   |
|   \\  /    A nd           | Web:      www.OpenFOAM.org                      |
|    \\/     M anipulation  |                                                 |
\*---------------------------------------------------------------------------*/
FoamFile
{
    version     2.0;
    format      ascii;
    class       surfaceScalarField;
    location    "600";
    object      phi;
}
// * * * * * * * * * * * * * * * * * * * * * * * * * * * * * * * * * * * * * //

dimensions      [0 3 -1 0 0 0 0];

internalField   nonuniform List<scalar> 
13452
(
6.0292e-05
-2.35469e-08
5.98975e-05
3.94465e-07
5.93096e-05
5.87967e-07
5.85579e-05
7.51663e-07
5.76907e-05
8.67227e-07
5.67838e-05
9.06881e-07
5.58834e-05
9.00364e-07
5.501e-05
8.73446e-07
5.41737e-05
8.36287e-07
5.33807e-05
7.93057e-07
5.26341e-05
7.46593e-07
5.19351e-05
6.9897e-07
5.12835e-05
6.5157e-07
5.06782e-05
6.05302e-07
5.01174e-05
5.60774e-07
4.95991e-05
5.18382e-07
4.91207e-05
4.78356e-07
4.86799e-05
4.40798e-07
4.82742e-05
4.05713e-07
4.79012e-05
3.73038e-07
4.75585e-05
3.42661e-07
4.72441e-05
3.14432e-07
4.69559e-05
2.88178e-07
4.66922e-05
2.63704e-07
4.64514e-05
2.40801e-07
4.62321e-05
2.19238e-07
4.60334e-05
1.98789e-07
4.58542e-05
1.79111e-07
4.56939e-05
1.60306e-07
4.55529e-05
1.41082e-07
4.5427e-05
1.25808e-07
4.53152e-05
1.11843e-07
9.69855e-08
4.52182e-05
6.22178e-05
-2.50968e-07
6.23093e-05
3.02881e-07
6.24257e-05
4.71617e-07
6.25748e-05
6.02578e-07
6.27368e-05
7.05201e-07
6.2882e-05
7.61708e-07
6.29926e-05
7.89721e-07
6.30622e-05
8.03858e-07
6.30904e-05
8.08067e-07
6.308e-05
8.03488e-07
6.30349e-05
7.91691e-07
6.29595e-05
7.74357e-07
6.28582e-05
7.52872e-07
6.27352e-05
7.28346e-07
6.25942e-05
7.01705e-07
6.24389e-05
6.73718e-07
6.22722e-05
6.45003e-07
6.2097e-05
6.16041e-07
6.19155e-05
5.87192e-07
6.17298e-05
5.58717e-07
6.15417e-05
5.30793e-07
6.13526e-05
5.03524e-07
6.11638e-05
4.76954e-07
6.09765e-05
4.51074e-07
6.07914e-05
4.25828e-07
6.06096e-05
4.01104e-07
6.04316e-05
3.76775e-07
6.02582e-05
3.52548e-07
6.009e-05
3.28456e-07
5.99278e-05
3.0325e-07
5.97746e-05
2.79095e-07
5.96398e-05
2.46607e-07
2.14847e-07
5.95219e-05
6.36312e-05
-1.2075e-07
6.36862e-05
2.47917e-07
6.3757e-05
4.00817e-07
6.38541e-05
5.05478e-07
6.39621e-05
5.97106e-07
6.40655e-05
6.58387e-07
6.41601e-05
6.95096e-07
6.42461e-05
7.17818e-07
6.43236e-05
7.30645e-07
6.43922e-05
7.34887e-07
6.44519e-05
7.31966e-07
6.45028e-05
7.23414e-07
6.45452e-05
7.10492e-07
6.45794e-05
6.94195e-07
6.46057e-05
6.75348e-07
6.46248e-05
6.54647e-07
6.46371e-05
6.32661e-07
6.46433e-05
6.09843e-07
6.4644e-05
5.86545e-07
6.46397e-05
5.63028e-07
6.4631e-05
5.39481e-07
6.46185e-05
5.16023e-07
6.46027e-05
4.92717e-07
6.45842e-05
4.69569e-07
6.45635e-05
4.46539e-07
6.45411e-05
4.23523e-07
6.45175e-05
4.00382e-07
6.44932e-05
3.76833e-07
6.4469e-05
3.52682e-07
6.44453e-05
3.26963e-07
6.44246e-05
2.99722e-07
6.44052e-05
2.65999e-07
2.2958e-07
6.43905e-05
6.54961e-05
-3.37286e-08
6.55391e-05
2.04901e-07
6.55809e-05
3.58974e-07
6.56298e-05
4.56626e-07
6.5686e-05
5.40906e-07
6.57429e-05
6.0147e-07
6.57988e-05
6.39166e-07
6.58539e-05
6.62772e-07
6.59076e-05
6.76892e-07
6.59595e-05
6.83032e-07
6.6009e-05
6.82442e-07
6.60559e-05
6.76488e-07
6.61001e-05
6.66329e-07
6.61414e-05
6.52875e-07
6.61799e-05
6.36877e-07
6.62155e-05
6.18967e-07
6.62485e-05
5.99668e-07
6.6279e-05
5.79394e-07
6.63071e-05
5.58467e-07
6.6333e-05
5.37128e-07
6.63569e-05
5.1555e-07
6.63791e-05
4.9384e-07
6.63997e-05
4.72052e-07
6.64191e-05
4.50187e-07
6.64375e-05
4.28193e-07
6.6455e-05
4.05962e-07
6.64721e-05
3.83332e-07
6.64889e-05
3.60022e-07
6.65058e-05
3.3573e-07
6.65231e-05
3.09684e-07
6.65414e-05
2.81455e-07
6.6559e-05
2.48426e-07
2.11667e-07
6.65769e-05
6.74175e-05
5.53178e-09
6.74377e-05
1.84681e-07
6.74637e-05
3.32987e-07
6.74953e-05
4.25068e-07
6.75353e-05
5.00864e-07
6.75787e-05
5.58096e-07
6.76225e-05
5.95339e-07
6.76663e-05
6.19047e-07
6.77096e-05
6.3356e-07
6.77522e-05
6.40458e-07
6.77937e-05
6.40913e-07
6.7834e-05
6.36192e-07
6.78729e-05
6.2739e-07
6.79104e-05
6.1537e-07
6.79465e-05
6.00834e-07
6.79811e-05
5.84374e-07
6.80143e-05
5.66479e-07
6.80461e-05
5.47536e-07
6.80767e-05
5.27845e-07
6.81062e-05
5.07632e-07
6.81347e-05
4.87055e-07
6.81624e-05
4.66212e-07
6.81893e-05
4.4515e-07
6.82156e-05
4.23861e-07
6.82415e-05
4.02289e-07
6.82671e-05
3.80321e-07
6.82927e-05
3.5779e-07
6.83183e-05
3.34432e-07
6.83441e-05
3.09923e-07
6.83701e-05
2.83678e-07
6.83963e-05
2.5521e-07
6.84216e-05
2.23128e-07
1.8786e-07
6.84454e-05
6.9364e-05
2.55297e-08
6.93757e-05
1.73005e-07
6.94e-05
3.0867e-07
6.94282e-05
3.96862e-07
6.94623e-05
4.66744e-07
6.94994e-05
5.21013e-07
6.95371e-05
5.57712e-07
6.95747e-05
5.81373e-07
6.96123e-05
5.95967e-07
6.96496e-05
6.03193e-07
6.96863e-05
6.04207e-07
6.97223e-05
6.00204e-07
6.97575e-05
5.92224e-07
6.97917e-05
5.81088e-07
6.98251e-05
5.67464e-07
6.98576e-05
5.51914e-07
6.98891e-05
5.34898e-07
6.99199e-05
5.16781e-07
6.99499e-05
4.97848e-07
6.99792e-05
4.78311e-07
7.0008e-05
4.58319e-07
7.00362e-05
4.37962e-07
7.00641e-05
4.17283e-07
7.00917e-05
3.9627e-07
7.01191e-05
3.74868e-07
7.01464e-05
3.52969e-07
7.01738e-05
3.30412e-07
7.02013e-05
3.06963e-07
7.02289e-05
2.82336e-07
7.02564e-05
2.56103e-07
7.02838e-05
2.27877e-07
7.03099e-05
1.96962e-07
1.63634e-07
7.03342e-05
7.13552e-05
3.67102e-08
7.13652e-05
1.63e-07
7.13891e-05
2.8475e-07
7.14162e-05
3.69744e-07
7.14474e-05
4.35581e-07
7.14812e-05
4.87178e-07
7.15157e-05
5.23169e-07
7.15504e-05
5.46701e-07
7.15851e-05
5.61297e-07
7.16195e-05
5.68728e-07
7.16536e-05
5.70146e-07
7.16871e-05
5.66676e-07
7.172e-05
5.59309e-07
7.17523e-05
5.48835e-07
7.17839e-05
5.35893e-07
7.18148e-05
5.21019e-07
7.1845e-05
5.0465e-07
7.18747e-05
4.87136e-07
7.19038e-05
4.68747e-07
7.19324e-05
4.49685e-07
7.19606e-05
4.30092e-07
7.19885e-05
4.10056e-07
7.20162e-05
3.89615e-07
7.20437e-05
3.68761e-07
7.20711e-05
3.47444e-07
7.20985e-05
3.25568e-07
7.21259e-05
3.02991e-07
7.21534e-05
2.79523e-07
7.21808e-05
2.54932e-07
7.2208e-05
2.28928e-07
7.22346e-05
2.01258e-07
7.22599e-05
1.71614e-07
1.4026e-07
7.22833e-05
7.33998e-05
4.21405e-08
7.34094e-05
1.53454e-07
7.34317e-05
2.62415e-07
7.34579e-05
3.43582e-07
7.34875e-05
4.05978e-07
7.35197e-05
4.54968e-07
7.35528e-05
4.90068e-07
7.35861e-05
5.13433e-07
7.36193e-05
5.28047e-07
7.36524e-05
5.35676e-07
7.36851e-05
5.37461e-07
7.37173e-05
5.34469e-07
7.37489e-05
5.27644e-07
7.378e-05
5.17745e-07
7.38105e-05
5.05391e-07
7.38404e-05
4.91094e-07
7.38698e-05
4.75272e-07
7.38987e-05
4.58262e-07
7.39271e-05
4.40324e-07
7.39552e-05
4.21651e-07
7.39829e-05
4.02382e-07
7.40103e-05
3.82604e-07
7.40376e-05
3.62355e-07
7.40647e-05
3.41636e-07
7.40917e-05
3.20404e-07
7.41187e-05
2.98582e-07
7.41457e-05
2.76057e-07
7.41725e-05
2.52682e-07
7.41991e-05
2.28291e-07
7.42254e-05
2.02704e-07
7.42508e-05
1.75786e-07
7.4275e-05
1.47442e-07
1.17943e-07
7.42973e-05
7.55007e-05
4.38652e-08
7.55101e-05
1.44136e-07
7.55306e-05
2.41836e-07
7.55558e-05
3.18386e-07
7.55843e-05
3.77486e-07
7.56154e-05
4.23895e-07
7.56476e-05
4.57878e-07
7.56801e-05
4.80939e-07
7.57126e-05
4.95521e-07
7.5745e-05
5.03312e-07
7.5777e-05
5.05436e-07
7.58086e-05
5.02894e-07
7.58396e-05
4.96579e-07
7.58702e-05
4.87223e-07
7.59001e-05
4.7542e-07
7.59296e-05
4.61661e-07
7.59585e-05
4.46349e-07
7.59869e-05
4.29809e-07
7.6015e-05
4.1229e-07
7.60426e-05
3.93983e-07
7.607e-05
3.75024e-07
7.60971e-05
3.55499e-07
7.6124e-05
3.35454e-07
7.61508e-05
3.14895e-07
7.61774e-05
2.93797e-07
7.62038e-05
2.72102e-07
7.62302e-05
2.49728e-07
7.62563e-05
2.26575e-07
7.6282e-05
2.02538e-07
7.63072e-05
1.77519e-07
7.63315e-05
1.51475e-07
7.63545e-05
1.24427e-07
9.66439e-08
7.63758e-05
7.766e-05
4.33976e-08
7.76693e-05
1.34868e-07
7.76884e-05
2.22768e-07
7.77125e-05
2.94241e-07
7.774e-05
3.50042e-07
7.777e-05
3.93876e-07
7.78014e-05
4.26497e-07
7.78333e-05
4.4904e-07
7.78653e-05
4.63467e-07
7.78973e-05
4.71337e-07
7.7929e-05
4.73734e-07
7.79603e-05
4.71595e-07
7.79911e-05
4.65756e-07
7.80214e-05
4.56914e-07
7.80512e-05
4.45639e-07
7.80805e-05
4.32402e-07
7.81092e-05
4.17588e-07
7.81375e-05
4.01511e-07
7.81654e-05
3.84413e-07
7.81929e-05
3.6648e-07
7.82201e-05
3.47846e-07
7.8247e-05
3.28604e-07
7.82736e-05
3.08803e-07
7.83001e-05
2.88463e-07
7.83263e-05
2.67572e-07
7.83523e-05
2.46096e-07
7.8378e-05
2.23986e-07
7.84034e-05
2.01183e-07
7.84283e-05
1.77632e-07
7.84526e-05
1.53301e-07
7.84758e-05
1.28208e-07
7.84978e-05
1.02435e-07
7.6237e-08
7.85182e-05
7.988e-05
4.16866e-08
7.98893e-05
1.25596e-07
7.99071e-05
2.04971e-07
7.99301e-05
2.71204e-07
7.99565e-05
3.23633e-07
7.99855e-05
3.6488e-07
8.00161e-05
3.95935e-07
8.00474e-05
4.17736e-07
8.0079e-05
4.31854e-07
8.01107e-05
4.39686e-07
8.01421e-05
4.42261e-07
8.01733e-05
4.4045e-07
8.0204e-05
4.35031e-07
8.02343e-05
4.26663e-07
8.0264e-05
4.15887e-07
8.02933e-05
4.03152e-07
8.0322e-05
3.88828e-07
8.03503e-05
3.73215e-07
8.03782e-05
3.56547e-07
8.04057e-05
3.39009e-07
8.04328e-05
3.20734e-07
8.04596e-05
3.01817e-07
8.0486e-05
2.82317e-07
8.05122e-05
2.62264e-07
8.05381e-05
2.41664e-07
8.05637e-05
2.20507e-07
8.0589e-05
1.9877e-07
8.06137e-05
1.76433e-07
8.06379e-05
1.53481e-07
8.06612e-05
1.2993e-07
8.06836e-05
1.05835e-07
8.07047e-05
8.13093e-08
5.65849e-08
8.07244e-05
8.21628e-05
3.9298e-08
8.21721e-05
1.16363e-07
8.21888e-05
1.88248e-07
8.22107e-05
2.49267e-07
8.22361e-05
2.98236e-07
8.22641e-05
3.36876e-07
8.22939e-05
3.66209e-07
8.23245e-05
3.87069e-07
8.23557e-05
4.00719e-07
8.2387e-05
4.08385e-07
8.24182e-05
4.11028e-07
8.24492e-05
4.09456e-07
8.24798e-05
4.04387e-07
8.25101e-05
3.96439e-07
8.25398e-05
3.86122e-07
8.25691e-05
3.73863e-07
8.25979e-05
3.60015e-07
8.26263e-05
3.44863e-07
8.26542e-05
3.28637e-07
8.26817e-05
3.11515e-07
8.27088e-05
2.93633e-07
8.27355e-05
2.75088e-07
8.27619e-05
2.55948e-07
8.27879e-05
2.36254e-07
8.28135e-05
2.1603e-07
8.28387e-05
1.95285e-07
8.28635e-05
1.74024e-07
8.28877e-05
1.52253e-07
8.29112e-05
1.29993e-07
8.29338e-05
1.07288e-07
8.29554e-05
8.42191e-08
8.29758e-05
6.0908e-08
3.7565e-08
8.29948e-05
8.45105e-05
3.6569e-08
8.45196e-05
1.0724e-07
8.45354e-05
1.72432e-07
8.45563e-05
2.28373e-07
8.45808e-05
2.7382e-07
8.46078e-05
3.09826e-07
8.46367e-05
3.37324e-07
8.46667e-05
3.57074e-07
8.46973e-05
3.70106e-07
8.47282e-05
3.77481e-07
8.47591e-05
3.80082e-07
8.47899e-05
3.78654e-07
8.48205e-05
3.73858e-07
8.48506e-05
3.66269e-07
8.48804e-05
3.56366e-07
8.49097e-05
3.44551e-07
8.49386e-05
3.3116e-07
8.4967e-05
3.16465e-07
8.49949e-05
3.00688e-07
8.50224e-05
2.84002e-07
8.50495e-05
2.66545e-07
8.50762e-05
2.48417e-07
8.51024e-05
2.29693e-07
8.51283e-05
2.10427e-07
8.51536e-05
1.90656e-07
8.51785e-05
1.70408e-07
8.52028e-05
1.49709e-07
8.52265e-05
1.28589e-07
8.52494e-05
1.07091e-07
8.52714e-05
8.528e-08
8.52924e-05
6.32492e-08
8.53122e-05
4.11202e-08
1.90806e-08
8.53307e-05
8.6925e-05
3.36979e-08
8.6934e-05
9.8293e-08
8.6949e-05
1.57395e-07
8.69689e-05
2.08447e-07
8.69924e-05
2.50345e-07
8.70186e-05
2.83688e-07
8.70466e-05
3.09267e-07
8.70759e-05
3.27767e-07
8.7106e-05
3.40044e-07
8.71365e-05
3.47012e-07
8.71671e-05
3.49466e-07
8.71976e-05
3.48091e-07
8.7228e-05
3.43493e-07
8.72581e-05
3.36201e-07
8.72878e-05
3.26664e-07
8.73171e-05
3.1526e-07
8.73459e-05
3.02305e-07
8.73743e-05
2.8806e-07
8.74023e-05
2.72736e-07
8.74298e-05
2.56506e-07
8.74568e-05
2.39503e-07
8.74834e-05
2.21833e-07
8.75095e-05
2.03577e-07
8.75351e-05
1.848e-07
8.75602e-05
1.6555e-07
8.75848e-05
1.45872e-07
8.76087e-05
1.25807e-07
8.76319e-05
1.05404e-07
8.76542e-05
8.4722e-08
8.76757e-05
6.38364e-08
8.76961e-05
4.28454e-08
8.77153e-05
2.18656e-08
1.06287e-09
8.77334e-05
8.94084e-05
3.0798e-08
8.94172e-05
8.95716e-08
8.94315e-05
1.43043e-07
8.94505e-05
1.89408e-07
8.94731e-05
2.27762e-07
8.94984e-05
2.5842e-07
8.95257e-05
2.82011e-07
8.95543e-05
2.99148e-07
8.95838e-05
3.10553e-07
8.96138e-05
3.17005e-07
8.9644e-05
3.19215e-07
8.96743e-05
3.17807e-07
8.97045e-05
3.13334e-07
8.97344e-05
3.06281e-07
8.9764e-05
2.97065e-07
8.97932e-05
2.8604e-07
8.9822e-05
2.73501e-07
8.98504e-05
2.59698e-07
8.98783e-05
2.44833e-07
8.99057e-05
2.29073e-07
8.99327e-05
2.12551e-07
8.99591e-05
1.95377e-07
8.99851e-05
1.77637e-07
9.00105e-05
1.59402e-07
9.00353e-05
1.40733e-07
9.00595e-05
1.21685e-07
9.00829e-05
1.02314e-07
9.01057e-05
8.268e-08
9.01275e-05
6.28511e-08
9.01485e-05
4.29095e-08
9.01684e-05
2.29527e-08
9.01871e-05
3.0895e-09
-1.65341e-08
9.02047e-05
9.19627e-05
2.79319e-08
9.19712e-05
8.11071e-08
9.19849e-05
1.293e-07
9.20032e-05
1.71177e-07
9.20249e-05
2.0602e-07
9.20494e-05
2.33974e-07
9.20758e-05
2.55526e-07
9.21038e-05
2.71209e-07
9.21327e-05
2.81638e-07
9.21622e-05
2.87476e-07
9.21921e-05
2.89355e-07
9.2222e-05
2.87835e-07
9.2252e-05
2.83419e-07
9.22817e-05
2.7655e-07
9.23111e-05
2.67613e-07
9.23403e-05
2.56935e-07
9.2369e-05
2.44795e-07
9.23972e-05
2.31427e-07
9.2425e-05
2.17025e-07
9.24524e-05
2.01751e-07
9.24792e-05
1.85737e-07
9.25055e-05
1.69093e-07
9.25312e-05
1.5191e-07
9.25563e-05
1.34265e-07
9.25808e-05
1.16227e-07
9.26047e-05
9.78612e-08
9.26277e-05
7.92308e-08
9.265e-05
6.04037e-08
9.26714e-05
4.14545e-08
9.26919e-05
2.24665e-08
9.27113e-05
3.53363e-09
9.27296e-05
-1.52444e-08
-3.37392e-08
9.27468e-05
9.459e-05
2.51321e-08
9.45981e-05
7.29145e-08
9.46113e-05
1.1611e-07
9.46288e-05
1.5368e-07
9.46498e-05
1.85062e-07
9.46735e-05
2.10305e-07
9.46992e-05
2.29777e-07
9.47265e-05
2.43933e-07
9.47548e-05
2.53296e-07
9.47839e-05
2.58434e-07
9.48133e-05
2.59901e-07
9.4843e-05
2.58197e-07
9.48726e-05
2.53777e-07
9.49021e-05
2.47041e-07
9.49314e-05
2.38343e-07
9.49603e-05
2.27986e-07
9.49889e-05
2.16229e-07
9.5017e-05
2.03291e-07
9.50447e-05
1.89358e-07
9.50719e-05
1.74585e-07
9.50985e-05
1.59102e-07
9.51246e-05
1.43019e-07
9.51501e-05
1.2643e-07
9.51749e-05
1.09417e-07
9.51991e-05
9.20533e-08
9.52225e-05
7.44104e-08
9.52452e-05
5.65576e-08
9.5267e-05
3.8567e-08
9.5288e-05
2.05151e-08
9.5308e-05
2.48395e-09
9.53269e-05
-1.54379e-08
9.53449e-05
-3.31602e-08
-5.05698e-08
9.53617e-05
9.72922e-05
2.24135e-08
9.73002e-05
6.49966e-08
9.73128e-05
1.03423e-07
9.73297e-05
1.3685e-07
9.73499e-05
1.6483e-07
9.73728e-05
1.87363e-07
9.73979e-05
2.04724e-07
9.74245e-05
2.17293e-07
9.74523e-05
2.25516e-07
9.74809e-05
2.29879e-07
9.75099e-05
2.30861e-07
9.75392e-05
2.28909e-07
9.75685e-05
2.24428e-07
9.75978e-05
2.1778e-07
9.76269e-05
2.09287e-07
9.76556e-05
1.99226e-07
9.7684e-05
1.87838e-07
9.7712e-05
1.75327e-07
9.77395e-05
1.61868e-07
9.77664e-05
1.47611e-07
9.77929e-05
1.32681e-07
9.78187e-05
1.17188e-07
9.78439e-05
1.01226e-07
9.78684e-05
8.48799e-08
9.78923e-05
6.82272e-08
9.79153e-05
5.13415e-08
9.79376e-05
3.42956e-08
9.7959e-05
1.7163e-08
9.79795e-05
1.96227e-11
9.7999e-05
-1.70556e-08
9.80176e-05
-3.39804e-08
9.80351e-05
-5.06737e-08
-6.7036e-08
9.80516e-05
0.000100072
1.97811e-08
0.000100079
5.7347e-08
0.000100092
9.11976e-08
0.000100108
1.20625e-07
0.000100127
1.45267e-07
0.00010015
1.651e-07
0.000100174
1.80327e-07
0.0001002
1.91262e-07
0.000100227
1.98282e-07
0.000100255
2.01803e-07
0.000100284
2.02237e-07
0.000100313
1.99979e-07
0.000100342
1.95387e-07
0.000100371
1.88787e-07
0.0001004
1.80468e-07
0.000100428
1.70683e-07
0.000100457
1.59652e-07
0.000100484
1.47565e-07
0.000100512
1.34588e-07
0.000100538
1.2086e-07
0.000100564
1.06504e-07
0.00010059
9.16259e-08
0.000100615
7.63205e-08
0.000100639
6.06725e-08
0.000100663
4.47608e-08
0.000100685
2.86603e-08
0.000100707
1.24441e-08
0.000100728
-3.81477e-09
0.000100748
-2.00427e-08
0.000100767
-3.61653e-08
0.000100785
-5.2107e-08
0.000100803
-6.77953e-08
-8.31426e-08
0.000100819
0.000102931
1.72343e-08
0.000102938
4.99531e-08
0.00010295
7.93941e-08
0.000102965
1.04949e-07
0.000102984
1.26317e-07
0.000103006
1.43465e-07
0.00010303
1.56541e-07
0.000103055
1.65804e-07
0.000103082
1.7157e-07
0.00010311
1.74191e-07
0.000103138
1.74024e-07
0.000103166
1.71409e-07
0.000103195
1.66663e-07
0.000103224
1.60075e-07
0.000103252
1.51903e-07
0.000103281
1.42376e-07
0.000103309
1.31693e-07
0.000103336
1.20031e-07
0.000103363
1.07541e-07
0.00010339
9.43564e-08
0.000103416
8.05931e-08
0.000103441
6.63539e-08
0.000103466
5.17307e-08
0.000103489
3.68076e-08
0.000103513
2.16625e-08
0.000103535
6.36984e-09
0.000103556
-8.99859e-09
0.000103577
-2.43721e-08
0.000103596
-3.96807e-08
0.000103615
-5.4855e-08
0.000103633
-6.98266e-08
0.00010365
-8.45308e-08
-9.88907e-08
0.000103665
0.000105871
1.47692e-08
0.000105878
4.27988e-08
0.00010589
6.79754e-08
0.000105905
8.97687e-08
0.000105923
1.07924e-07
0.000105944
1.22404e-07
0.000105968
1.3332e-07
0.000105993
1.4088e-07
0.000106019
1.45349e-07
0.000106046
1.47024e-07
0.000106074
1.46207e-07
0.000106102
1.43192e-07
0.00010613
1.38255e-07
0.000106159
1.31649e-07
0.000106187
1.23602e-07
0.000106215
1.14319e-07
0.000106243
1.03979e-07
0.00010627
9.27417e-08
0.000106297
8.07474e-08
0.000106323
6.81193e-08
0.000106349
5.49666e-08
0.000106374
4.13871e-08
0.000106398
2.74691e-08
0.000106422
1.32939e-08
0.000106444
-1.06263e-09
0.000106466
-1.55287e-08
0.000106487
-3.00349e-08
0.000106507
-4.45143e-08
0.000106527
-5.89013e-08
0.000106545
-7.31321e-08
0.000106562
-8.7145e-08
0.000106579
-1.00883e-07
-1.14278e-07
0.000106594
0.000108896
1.23803e-08
0.000108903
3.58654e-08
0.000108914
5.69056e-08
0.000108929
7.50342e-08
0.000108946
9.00327e-08
0.000108967
1.01864e-07
0.00010899
1.10613e-07
0.000109014
1.16446e-07
0.00010904
1.19583e-07
0.000109067
1.20271e-07
0.000109094
1.18765e-07
0.000109122
1.15314e-07
0.00010915
1.10155e-07
0.000109178
1.03507e-07
0.000109206
9.55681e-08
0.000109234
8.65182e-08
0.000109261
7.65175e-08
0.000109289
6.57087e-08
0.000109315
5.42187e-08
0.000109341
4.21606e-08
0.000109366
2.96357e-08
0.000109391
1.67355e-08
0.000109415
3.54339e-09
0.000109438
-9.86337e-09
0.00010946
-2.34126e-08
0.000109482
-3.7036e-08
0.000109503
-5.06682e-08
0.000109522
-6.42465e-08
0.000109541
-7.77103e-08
0.000109559
-9.10018e-08
0.000109576
-1.04066e-07
0.000109592
-1.16852e-07
-1.293e-07
0.000109607
0.000112007
1.00615e-08
0.000112014
2.91336e-08
0.000112024
4.61498e-08
0.000112039
6.06969e-08
0.000112056
7.25867e-08
0.000112076
8.1787e-08
0.000112098
8.83633e-08
0.000112122
9.245e-08
0.000112148
9.42263e-08
0.000112174
9.38952e-08
0.000112201
9.16677e-08
0.000112229
8.77522e-08
0.000112257
8.23472e-08
0.000112284
7.5638e-08
0.000112312
6.77948e-08
0.00011234
5.89725e-08
0.000112367
4.93109e-08
0.000112394
3.89358e-08
0.00011242
2.79603e-08
0.000112446
1.64862e-08
0.000112471
4.60589e-09
0.000112495
-7.5965e-09
0.000112519
-2.00436e-08
0.000112541
-3.26633e-08
0.000112563
-4.53885e-08
0.000112585
-5.81551e-08
0.000112605
-7.09028e-08
0.000112624
-8.35736e-08
0.000112643
-9.61126e-08
0.00011266
-1.08468e-07
0.000112677
-1.2059e-07
0.000112692
-1.32435e-07
-1.43951e-07
0.000112707
0.000115207
7.80639e-09
0.000115213
2.25841e-08
0.000115224
3.56744e-08
0.000115238
4.67095e-08
0.000115255
5.55295e-08
0.000115274
6.21115e-08
0.000115296
6.65103e-08
0.00011532
6.88338e-08
0.000115345
6.92256e-08
0.000115371
6.78493e-08
0.000115398
6.48754e-08
0.000115425
6.0473e-08
0.000115453
5.48041e-08
0.00011548
4.80216e-08
0.000115508
4.02672e-08
0.000115535
3.1671e-08
0.000115562
2.23522e-08
0.000115589
1.24189e-08
0.000115615
1.9698e-09
0.00011564
-8.90522e-09
0.000115665
-2.01238e-08
0.000115689
-3.16101e-08
0.000115712
-4.32937e-08
0.000115734
-5.5109e-08
0.000115756
-6.69942e-08
0.000115777
-7.8891e-08
0.000115797
-9.07442e-08
0.000115815
-1.02501e-07
0.000115833
-1.14113e-07
0.000115851
-1.25533e-07
0.000115867
-1.36719e-07
0.000115882
-1.47631e-07
-1.58225e-07
0.000115896
0.000118498
5.60908e-09
0.000118504
1.61993e-08
0.000118515
2.54478e-08
0.000118528
3.30256e-08
0.000118545
3.88025e-08
0.000118564
4.27719e-08
0.000118586
4.49853e-08
0.000118609
4.55295e-08
0.000118634
4.45168e-08
0.00011866
4.20748e-08
0.000118686
3.83359e-08
0.000118713
3.34315e-08
0.000118741
2.74882e-08
0.000118768
2.06265e-08
0.000118795
1.29597e-08
0.000118822
4.59331e-09
0.000118849
-4.37502e-09
0.000118875
-1.3855e-08
0.000118901
-2.37632e-08
0.000118926
-3.40225e-08
0.000118951
-4.45612e-08
0.000118974
-5.53127e-08
0.000118997
-6.62145e-08
0.000119019
-7.7208e-08
0.000119041
-8.82378e-08
0.000119061
-9.92516e-08
0.00011908
-1.102e-07
0.000119099
-1.21037e-07
0.000119117
-1.31717e-07
0.000119133
-1.42202e-07
0.000119149
-1.52452e-07
0.000119164
-1.62436e-07
-1.72114e-07
0.000119178
0.000121883
3.46498e-09
0.00012189
9.96481e-09
0.0001219
1.54417e-08
0.000121913
1.95994e-08
0.00012193
2.23438e-08
0.000121949
2.36955e-08
0.00012197
2.37101e-08
0.000121993
2.24578e-08
0.000122017
2.0023e-08
0.000122043
1.64996e-08
0.000122069
1.19838e-08
0.000122096
6.56963e-09
0.000122123
3.48605e-10
0.000122151
-6.59096e-09
0.000122178
-1.41645e-08
0.000122205
-2.22918e-08
0.000122231
-3.08969e-08
0.000122257
-3.9908e-08
0.000122283
-4.92576e-08
0.000122308
-5.8882e-08
0.000122332
-6.8721e-08
0.000122355
-7.87178e-08
0.000122378
-8.88186e-08
0.0001224
-9.89723e-08
0.00012242
-1.09131e-07
0.00012244
-1.19248e-07
0.000122459
-1.2928e-07
0.000122478
-1.39188e-07
0.000122495
-1.48932e-07
0.000122511
-1.58478e-07
0.000122526
-1.67793e-07
0.000122541
-1.7685e-07
-1.85614e-07
0.000122554
0.000125366
1.37201e-09
0.000125372
3.87293e-09
0.000125381
5.63444e-09
0.000125395
6.38712e-09
0.000125411
6.0877e-09
0.00012543
4.80066e-09
0.000125451
2.59439e-09
0.000125474
-4.74734e-10
0.000125498
-4.34816e-09
0.000125524
-8.96385e-09
0.00012555
-1.4262e-08
0.000125577
-2.01858e-08
0.000125604
-2.66797e-08
0.000125631
-3.36881e-08
0.000125658
-4.11557e-08
0.000125685
-4.9028e-08
0.000125711
-5.72514e-08
0.000125737
-6.57733e-08
0.000125762
-7.45426e-08
0.000125787
-8.35098e-08
0.000125811
-9.26266e-08
0.000125834
-1.01847e-07
0.000125856
-1.11125e-07
0.000125877
-1.2042e-07
0.000125898
-1.29689e-07
0.000125918
-1.38895e-07
0.000125936
-1.47998e-07
0.000125954
-1.56966e-07
0.000125971
-1.65766e-07
0.000125987
-1.74367e-07
0.000126002
-1.82742e-07
0.000126016
-1.90868e-07
-1.98716e-07
0.000126029
0.000128947
-6.67022e-10
0.000128953
-2.07136e-09
0.000128963
-3.98421e-09
0.000128976
-6.65201e-09
0.000128992
-1.00378e-08
0.000129011
-1.40062e-08
0.000129032
-1.84679e-08
0.000129055
-2.33801e-08
0.000129079
-2.87087e-08
0.000129104
-3.44231e-08
0.000129131
-4.05011e-08
0.000129157
-4.69252e-08
0.000129184
-5.36774e-08
0.000129211
-6.0736e-08
0.000129238
-6.80759e-08
0.000129265
-7.56694e-08
0.000129291
-8.34857e-08
0.000129317
-9.14924e-08
0.000129342
-9.9655e-08
0.000129367
-1.07939e-07
0.00012939
-1.16307e-07
0.000129413
-1.24726e-07
0.000129435
-1.3316e-07
0.000129456
-1.41574e-07
0.000129477
-1.49935e-07
0.000129496
-1.58211e-07
0.000129514
-1.66371e-07
0.000129532
-1.74387e-07
0.000129548
-1.82231e-07
0.000129564
-1.89879e-07
0.000129578
-1.97308e-07
0.000129592
-2.045e-07
-2.11431e-07
0.000129605
0.000132631
-2.63986e-09
0.000132637
-7.83874e-09
0.000132646
-1.34031e-08
0.000132659
-1.95535e-08
0.000132675
-2.61135e-08
0.000132694
-3.28353e-08
0.000132715
-3.96039e-08
0.000132738
-4.63931e-08
0.000132763
-5.31942e-08
0.000132788
-6.00092e-08
0.000132815
-6.68569e-08
0.000132841
-7.3763e-08
0.000132869
-8.07489e-08
0.000132896
-8.78287e-08
0.000132923
-9.50093e-08
0.000132949
-1.02291e-07
0.000132975
-1.09666e-07
0.000133001
-1.17124e-07
0.000133026
-1.24646e-07
0.00013305
-1.32214e-07
0.000133074
-1.39804e-07
0.000133096
-1.47393e-07
0.000133118
-1.54954e-07
0.000133139
-1.62463e-07
0.000133159
-1.69893e-07
0.000133178
-1.77219e-07
0.000133196
-1.84417e-07
0.000133213
-1.91465e-07
0.000133229
-1.9834e-07
0.000133244
-2.05022e-07
0.000133259
-2.11493e-07
0.000133272
-2.17736e-07
-2.23731e-07
0.000133284
0.00013642
-4.51521e-09
0.000136426
-1.3353e-08
0.000136435
-2.25738e-08
0.000136448
-3.23444e-08
0.000136464
-4.22327e-08
0.000136483
-5.18208e-08
0.000136504
-6.09718e-08
0.000136527
-6.96827e-08
0.000136552
-7.797e-08
0.000136578
-8.58744e-08
0.000136605
-9.34655e-08
0.000136632
-1.00819e-07
0.000136659
-1.07999e-07
0.000136686
-1.15059e-07
0.000136713
-1.22038e-07
0.00013674
-1.28965e-07
0.000136766
-1.35859e-07
0.000136792
-1.42727e-07
0.000136817
-1.49572e-07
0.000136841
-1.56387e-07
0.000136864
-1.63165e-07
0.000136887
-1.69891e-07
0.000136908
-1.7655e-07
0.000136929
-1.83125e-07
0.000136949
-1.89598e-07
0.000136967
-1.95952e-07
0.000136985
-2.02168e-07
0.000137002
-2.08228e-07
0.000137018
-2.14117e-07
0.000137032
-2.19819e-07
0.000137046
-2.25322e-07
0.000137059
-2.30615e-07
-2.35682e-07
0.000137071
0.000140317
-6.22166e-09
0.000140323
-1.84438e-08
0.000140331
-3.13847e-08
0.000140344
-4.50462e-08
0.00014036
-5.85062e-08
0.00014038
-7.11182e-08
0.000140401
-8.27616e-08
0.000140425
-9.34665e-08
0.000140451
-1.03268e-07
0.000140477
-1.1225e-07
0.000140504
-1.20547e-07
0.000140531
-1.28294e-07
0.000140559
-1.35606e-07
0.000140587
-1.42578e-07
0.000140614
-1.49289e-07
0.000140641
-1.55799e-07
0.000140667
-1.6215e-07
0.000140693
-1.68374e-07
0.000140718
-1.74488e-07
0.000140742
-1.80505e-07
0.000140765
-1.86425e-07
0.000140787
-1.92249e-07
0.000140809
-1.9797e-07
0.000140829
-2.03579e-07
0.000140849
-2.09067e-07
0.000140867
-2.14421e-07
0.000140885
-2.1963e-07
0.000140901
-2.24681e-07
0.000140916
-2.29563e-07
0.000140931
-2.34264e-07
0.000140944
-2.38773e-07
0.000140957
-2.43079e-07
-2.47167e-07
0.000140968
0.000144326
-7.60218e-09
0.00014433
-2.27465e-08
0.000144339
-3.96083e-08
0.000144351
-5.76889e-08
0.000144368
-7.51104e-08
0.000144388
-9.09456e-08
0.00014441
-1.05181e-07
0.000144434
-1.17914e-07
0.00014446
-1.29215e-07
0.000144487
-1.39238e-07
0.000144515
-1.48195e-07
0.000144543
-1.56284e-07
0.000144571
-1.63672e-07
0.000144599
-1.70499e-07
0.000144627
-1.76882e-07
0.000144654
-1.82914e-07
0.00014468
-1.88664e-07
0.000144706
-1.94186e-07
0.000144731
-1.99516e-07
0.000144755
-2.0468e-07
0.000144779
-2.09695e-07
0.000144801
-2.14571e-07
0.000144822
-2.19311e-07
0.000144843
-2.23915e-07
0.000144862
-2.2838e-07
0.00014488
-2.32701e-07
0.000144897
-2.36873e-07
0.000144914
-2.40888e-07
0.000144929
-2.4474e-07
0.000144943
-2.48424e-07
0.000144956
-2.51935e-07
0.000144968
-2.55272e-07
-2.58428e-07
0.00014498
0.000148449
-8.29822e-09
0.000148451
-2.55396e-08
0.000148459
-4.68223e-08
0.000148471
-7.0205e-08
0.000148488
-9.22194e-08
0.000148509
-1.1174e-07
0.000148533
-1.28884e-07
0.000148559
-1.43751e-07
0.000148586
-1.5648e-07
0.000148614
-1.67384e-07
0.000148643
-1.76814e-07
0.000148671
-1.85058e-07
0.0001487
-1.92349e-07
0.000148728
-1.98879e-07
0.000148756
-2.04806e-07
0.000148784
-2.10252e-07
0.00014881
-2.15312e-07
0.000148836
-2.20057e-07
0.000148861
-2.2454e-07
0.000148885
-2.28801e-07
0.000148909
-2.32866e-07
0.000148931
-2.36756e-07
0.000148952
-2.40482e-07
0.000148972
-2.44052e-07
0.000148991
-2.47469e-07
0.000149009
-2.50735e-07
0.000149026
-2.53848e-07
0.000149042
-2.56806e-07
0.000149057
-2.59606e-07
0.000149071
-2.62243e-07
0.000149084
-2.6471e-07
0.000149095
-2.66997e-07
-2.69097e-07
0.000149106
0.000152688
-7.29865e-09
0.000152688
-2.53869e-08
0.000152694
-5.28074e-08
0.000152706
-8.26754e-08
0.000152724
-1.09414e-07
0.000152745
-1.3273e-07
0.000152769
-1.53097e-07
0.000152795
-1.70413e-07
0.000152824
-1.84799e-07
0.000152853
-1.96725e-07
0.000152883
-2.06684e-07
0.000152913
-2.15069e-07
0.000152943
-2.22197e-07
0.000152972
-2.28332e-07
0.000153001
-2.33688e-07
0.000153029
-2.38429e-07
0.000153057
-2.42679e-07
0.000153083
-2.46533e-07
0.000153109
-2.50064e-07
0.000153133
-2.53326e-07
0.000153157
-2.56357e-07
0.000153179
-2.59186e-07
0.000153201
-2.61834e-07
0.000153221
-2.64313e-07
0.00015324
-2.66635e-07
0.000153258
-2.68805e-07
0.000153275
-2.70826e-07
0.000153291
-2.72702e-07
0.000153306
-2.74434e-07
0.00015332
-2.76025e-07
0.000153332
-2.7748e-07
0.000153344
-2.78811e-07
-2.80013e-07
0.000153355
0.000157046
-2.1315e-09
0.000157039
-1.80003e-08
0.000157043
-5.71434e-08
0.000157058
-9.77294e-08
0.00015708
-1.30725e-07
0.000157105
-1.57889e-07
0.000157132
-1.80668e-07
0.000157161
-1.99313e-07
0.000157191
-2.1437e-07
0.000157221
-2.26608e-07
0.000157251
-2.3663e-07
0.00015728
-2.44871e-07
0.00015731
-2.5169e-07
0.000157339
-2.57383e-07
0.000157367
-2.62187e-07
0.000157395
-2.66279e-07
0.000157422
-2.69798e-07
0.000157449
-2.72852e-07
0.000157474
-2.75523e-07
0.000157499
-2.77873e-07
0.000157522
-2.79952e-07
0.000157545
-2.81795e-07
0.000157567
-2.8343e-07
0.000157587
-2.84878e-07
0.000157607
-2.86154e-07
0.000157625
-2.87268e-07
0.000157643
-2.8823e-07
0.000157659
-2.89044e-07
0.000157674
-2.89714e-07
0.000157688
-2.9024e-07
0.000157702
-2.90617e-07
0.000157714
-2.90833e-07
-2.90891e-07
0.000157724
0.000161526
1.02906e-08
0.000161506
2.31157e-09
0.000161498
-4.99277e-08
0.000161503
-1.02486e-07
0.000161519
-1.46347e-07
0.000161544
-1.82794e-07
0.000161575
-2.11688e-07
0.000161609
-2.33528e-07
0.000161645
-2.49988e-07
0.000161681
-2.62632e-07
0.000161716
-2.72453e-07
0.000161752
-2.80119e-07
0.000161786
-2.86149e-07
0.00016182
-2.90942e-07
0.000161852
-2.94785e-07
0.000161884
-2.97883e-07
0.000161915
-3.00387e-07
0.000161944
-3.02411e-07
0.000161973
-3.0404e-07
0.000162
-3.05339e-07
0.000162026
-3.06354e-07
0.000162052
-3.07125e-07
0.000162076
-3.07678e-07
0.000162099
-3.08037e-07
0.000162121
-3.08219e-07
0.000162142
-3.08238e-07
0.000162162
-3.08105e-07
0.000162181
-3.07832e-07
0.000162199
-3.07428e-07
0.000162215
-3.06903e-07
0.000162231
-3.06273e-07
0.000162246
-3.05559e-07
-3.04757e-07
0.00016226
0.0001661
6.40845e-08
0.000166096
5.6329e-09
0.000166114
-6.7279e-08
0.00016613
-1.18972e-07
0.000166147
-1.62709e-07
0.000166166
-2.01972e-07
0.000166188
-2.34286e-07
0.000166214
-2.59449e-07
0.000166243
-2.79045e-07
0.000166275
-2.94442e-07
0.000166309
-3.06492e-07
0.000166345
-3.15863e-07
0.000166382
-3.23123e-07
0.00016642
-3.28721e-07
0.000166458
-3.32993e-07
0.000166496
-3.36191e-07
0.000166534
-3.38518e-07
0.000166572
-3.40128e-07
0.000166609
-3.41147e-07
0.000166646