/*--------------------------------*- C++ -*----------------------------------*\
| =========                 |                                                 |
| \\      /  F ield         | OpenFOAM: The Open Source CFD Toolbox           |
|  \\    /   O peration     | Version:  4.1                                   |
|   \\  /    A nd           | Web:      www.OpenFOAM.org                      |
|    \\/     M anipulation  |                                                 |
\*---------------------------------------------------------------------------*/
FoamFile
{
    version     2.0;
    format      ascii;
    class       volScalarField;
    location    "200";
    object      p;
}
// * * * * * * * * * * * * * * * * * * * * * * * * * * * * * * * * * * * * * //

dimensions      [0 2 -2 0 0 0 0];

internalField   nonuniform List<scalar> 
26785
(
-0.651057
-0.56392
-0.526843
-0.49881
-0.463134
-0.413807
-0.355877
-0.295684
-0.234675
-0.173618
-0.114438
-0.0596731
-0.0122893
0.0247024
0.0492895
0.0621037
0.0660854
0.0647139
0.0611554
0.0575859
0.0546321
0.0522562
0.0510011
0.0514456
0.0534974
0.0567285
0.0606839
0.065031
0.0695942
0.0743391
0.0793407
0.0847701
0.0908657
0.0978422
0.105869
0.1152
0.125952
0.137549
0.149195
0.160499
0.171294
0.18142
0.190707
0.198998
0.206163
0.212112
0.216797
0.220203
0.222351
0.22328
0.22305
0.221724
0.219373
0.216068
0.211882
0.206885
0.201146
0.194733
0.187715
0.180157
0.17213
0.163703
0.154947
0.145935
0.136743
0.127444
0.118116
0.108833
0.0996699
0.0906968
0.0819815
0.0735864
0.065568
0.0579757
0.0508512
0.0442279
0.0381303
0.032574
0.0275657
0.0231033
0.0191768
0.0157686
0.0128541
0.010403
0.00838018
0.00674619
0.00545891
0.00447404
0.00374636
0.0032302
0.00288085
0.00265392
0.00250928
0.00240246
0.00230999
0.00216045
0.00202633
0.00159093
0.00161113
-0.000286383
-0.645539
-0.563776
-0.526869
-0.498793
-0.463213
-0.413914
-0.355978
-0.295761
-0.23472
-0.173631
-0.114423
-0.0596381
-0.0122442
0.0247376
0.0492802
0.0620196
0.065935
0.0645344
0.0609952
0.0574942
0.0546263
0.0523014
0.0510584
0.0514956
0.0535308
0.0567433
0.0606826
0.0650176
0.0695719
0.0743091
0.0793016
0.0847183
0.0907969
0.0977527
0.105756
0.11507
0.125826
0.13744
0.149091
0.16039
0.171179
0.181299
0.190582
0.198868
0.20603
0.211976
0.216657
0.220061
0.222208
0.223137
0.222908
0.221585
0.219238
0.215938
0.211759
0.206768
0.201036
0.194631
0.187619
0.180068
0.172046
0.163623
0.154871
0.145862
0.13667
0.127372
0.118043
0.108758
0.0995923
0.0906159
0.0818969
0.0734977
0.0654752
0.0578788
0.0507508
0.0441242
0.0380241
0.0324659
0.0274565
0.0229939
0.0190681
0.0156615
0.0127495
0.0103017
0.00828289
0.00665366
0.00537175
0.00439277
0.00367138
0.00316183
0.0028193
0.00259933
0.00246168
0.00236182
0.00227618
0.00213338
0.00200593
0.00157693
0.00160781
-0.000297432
-0.637364
-0.56344
-0.526989
-0.498851
-0.463428
-0.414156
-0.356196
-0.295929
-0.234826
-0.173679
-0.114417
-0.0595812
-0.0121607
0.0247671
0.0491769
0.061761
0.0655765
0.0641651
0.060703
0.0573378
0.0545806
0.0522941
0.0510702
0.0515172
0.0535504
0.0567497
0.0606695
0.0649835
0.0695177
0.0742354
0.0792067
0.084598
0.0906464
0.097568
0.105533
0.114813
0.125568
0.137196
0.148842
0.160121
0.17089
0.180994
0.190264
0.198542
0.205696
0.211637
0.216315
0.219718
0.221866
0.2228
0.222578
0.221265
0.21893
0.215645
0.211481
0.206507
0.200792
0.194403
0.187407
0.17987
0.171861
0.163449
0.154705
0.145702
0.136514
0.127216
0.117886
0.108598
0.0994275
0.0904449
0.0817187
0.0733119
0.0652816
0.0576777
0.0505427
0.0439101
0.0378051
0.0322435
0.0272323
0.0227696
0.0188455
0.0154422
0.0125354
0.0100944
0.00808392
0.00646441
0.00519343
0.00422641
0.00351782
0.0030217
0.00269305
0.0024872
0.00236377
0.00227805
0.0022064
0.00207716
0.00196354
0.00154665
0.00159698
-0.00031372
-0.626628
-0.563004
-0.527372
-0.499109
-0.463864
-0.414589
-0.356572
-0.296223
-0.235025
-0.173791
-0.114452
-0.0595337
-0.0120605
0.0247751
0.0489732
0.0613243
0.0649927
0.0635657
0.0602396
0.0571138
0.0545215
0.0522831
0.0510958
0.0515629
0.0535906
0.0567643
0.0606499
0.06493
0.0694335
0.0741215
0.0790598
0.0844116
0.0904131
0.0972819
0.10519
0.114423
0.125177
0.136822
0.148459
0.15971
0.170449
0.180528
0.189778
0.198038
0.205179
0.211108
0.215779
0.219178
0.221327
0.222268
0.222057
0.220759
0.218444
0.215181
0.211042
0.206095
0.200407
0.194044
0.187072
0.179558
0.17157
0.163174
0.154443
0.14545
0.136267
0.126972
0.117641
0.108349
0.0991712
0.0901797
0.0814432
0.0730252
0.0649834
0.0573684
0.0502232
0.0435817
0.0374697
0.0319031
0.0268894
0.0224268
0.0185054
0.0151075
0.0122087
0.00977822
0.00778058
0.00617597
0.00492173
0.00397299
0.00328394
0.00280829
0.00250078
0.00231642
0.00221459
0.00215032
0.00209985
0.00199122
0.00189807
0.00150009
0.00157361
-0.00032927
-0.612607
-0.562199
-0.528003
-0.49962
-0.46456
-0.415233
-0.357119
-0.296656
-0.235337
-0.173997
-0.114565
-0.0595364
-0.0120165
0.0246411
0.0485264
0.0606037
0.0641431
0.0627648
0.059691
0.0569034
0.0544612
0.052247
0.0510977
0.0515895
0.0536125
0.0567587
0.0606081
0.0648527
0.0693227
0.0739756
0.0788723
0.0841723
0.0901118
0.0969101
0.10474
0.113909
0.124651
0.136301
0.147912
0.159119
0.169816
0.179859
0.18908
0.197316
0.204437
0.210352
0.215013
0.218409
0.220562
0.221514
0.221322
0.220048
0.217763
0.214534
0.210432
0.205522
0.199873
0.193547
0.186611
0.179129
0.171168
0.162796
0.154084
0.145104
0.135931
0.126639
0.117307
0.108009
0.0988229
0.0898199
0.0810699
0.0726372
0.0645804
0.0569508
0.0497921
0.043139
0.0370177
0.0314448
0.0264278
0.0219654
0.0180477
0.0146572
0.0117692
0.00935289
0.0073725
0.00578795
0.00455622
0.00363206
0.00296925
0.00252113
0.00224201
0.00208653
0.00201371
0.00197828
0.0019562
0.00187527
0.00180919
0.00143714
0.00153687
-0.000342532
-0.595457
-0.560912
-0.528849
-0.500427
-0.465529
-0.416071
-0.357804
-0.297197
-0.235737
-0.174283
-0.114741
-0.0595674
-0.0120471
0.0243274
0.0477962
0.0595828
0.0630317
0.0617987
0.0591253
0.0567322
0.0543718
0.0521631
0.051059
0.051584
0.053607
0.0567291
0.0605465
0.0647593
0.0691978
0.0738147
0.0786649
0.0839039
0.0897682
0.0964786
0.10421
0.113297
0.124013
0.135653
0.14722
0.158366
0.169006
0.179
0.188181
0.196384
0.203478
0.209372
0.21402
0.217412
0.219572
0.220539
0.220371
0.219131
0.216885
0.213702
0.209648
0.204788
0.199189
0.192911
0.186021
0.17858
0.170656
0.162315
0.153628
0.144665
0.135503
0.126217
0.116883
0.10758
0.0983828
0.0893657
0.0805991
0.0721482
0.0640728
0.0564251
0.0492496
0.0425821
0.0364493
0.0308684
0.0258475
0.0213853
0.0174725
0.0140912
0.0112168
0.00881826
0.00685955
0.0053002
0.00409674
0.00320346
0.00257363
0.00216008
0.00191662
0.00179742
0.00176104
0.00176181
0.00177535
0.00172923
0.0016967
0.00135771
0.00148672
-0.000354035
-0.577309
-0.559816
-0.530124
-0.501586
-0.466738
-0.417042
-0.358569
-0.297795
-0.236187
-0.174618
-0.11494
-0.059605
-0.0121979
0.02377
0.0467486
0.0582614
0.0616943
0.0607483
0.0586269
0.0565874
0.0542124
0.0520029
0.0509581
0.0515285
0.053561
0.0566687
0.0604634
0.0646527
0.0690654
0.0736487
0.0784509
0.0836233
0.0894028
0.0960106
0.103625
0.112611
0.123282
0.134888
0.146387
0.15745
0.168014
0.177945
0.187074
0.195233
0.202292
0.20816
0.212792
0.216181
0.218349
0.219337
0.219202
0.218004
0.21581
0.212683
0.208689
0.203892
0.198355
0.192138
0.185304
0.177915
0.170036
0.161732
0.153075
0.144135
0.134987
0.125707
0.116373
0.107062
0.0978527
0.0888189
0.0800324
0.0715599
0.0634622
0.0557927
0.0485972
0.0419124
0.0357657
0.0301752
0.0251494
0.0206875
0.0167803
0.01341
0.0105518
0.00817466
0.00624196
0.00471285
0.00354336
0.0026872
0.00209704
0.0017251
0.00152456
0.00144902
0.00145652
0.00150087
0.00155726
0.00155306
0.0015606
0.00126184
0.00142367
-0.000364641
-0.56044
-0.55938
-0.53181
-0.503063
-0.468152
-0.418112
-0.35938
-0.298419
-0.236663
-0.174974
-0.115119
-0.0596486
-0.0124866
0.0229431
0.0453972
0.0566769
0.0601931
0.0597157
0.0582505
0.0564082
0.0539512
0.0517566
0.0507909
0.0514194
0.0534716
0.056576
0.0603595
0.0645352
0.0689299
0.0734843
0.0782397
0.0833431
0.0890312
0.0955243
0.103004
0.111873
0.122481
0.134027
0.145431
0.156388
0.166856
0.176706
0.185768
0.193872
0.200886
0.206721
0.211334
0.214719
0.216898
0.217913
0.217818
0.216672
0.214539
0.211481
0.207561
0.202839
0.197376
0.19123
0.184464
0.177135
0.16931
0.161051
0.15243
0.143516
0.134384
0.125112
0.115777
0.106459
0.0972351
0.0881818
0.0793723
0.0708745
0.0627507
0.0550558
0.0478368
0.0411314
0.0349684
0.0293664
0.0243347
0.0198729
0.015972
0.0126143
0.00977499
0.00742253
0.00552006
0.00402618
0.00289629
0.00208345
0.00153962
0.00121628
0.00106592
0.00104145
0.00110024
0.00119559
0.00130206
0.00134691
0.00140108
0.00114966
0.00134847
-0.00037531
-0.545139
-0.560056
-0.534083
-0.50491
-0.469761
-0.41925
-0.360204
-0.299039
-0.237142
-0.17532
-0.115241
-0.0597353
-0.0129482
0.02182
0.04376
0.054876
0.058619
0.0588261
0.057988
0.0561289
0.0535729
0.051424
0.0505557
0.051252
0.0533339
0.0564467
0.0602313
0.0644049
0.068791
0.0733234
0.0780358
0.0830707
0.0886638
0.0950332
0.102365
0.111103
0.121628
0.133086
0.144364
0.155188
0.165538
0.17529
0.184269
0.192305
0.199265
0.205061
0.209652
0.213032
0.215226
0.216273
0.216226
0.215141
0.213081
0.210103
0.206268
0.201633
0.196256
0.190194
0.183505
0.176247
0.168483
0.160276
0.151696
0.142812
0.1337
0.124437
0.115102
0.105774
0.0965336
0.087458
0.078622
0.070095
0.0619412
0.0542169
0.0469706
0.0402415
0.0340593
0.0284438
0.0234049
0.0189428
0.0150487
0.011705
0.00888689
0.00656241
0.00469427
0.00324048
0.00215575
0.00139236
0.000901471
0.000633725
0.000540788
0.00057478
0.000692327
0.000846079
0.00100989
0.00111096
0.00121838
0.00102136
0.00126191
-0.000386874
-0.531493
-0.561777
-0.536843
-0.507059
-0.471502
-0.420402
-0.360994
-0.299621
-0.237592
-0.175602
-0.115273
-0.0599016
-0.0136196
0.0204073
0.0418749
0.0529236
0.0571025
0.0581691
0.0577286
0.0557069
0.0530816
0.0510123
0.0502533
0.0510234
0.0531434
0.056276
0.060074
0.0642574
0.0686454
0.0731643
0.0778398
0.0828093
0.0883068
0.0945459
0.101719
0.110316
0.12074
0.132079
0.1432
0.153865
0.164074
0.173707
0.182587
0.190542
0.197437
0.203188
0.207753
0.211129
0.21334
0.214425
0.214433
0.21342
0.211443
0.208556
0.204818
0.200282
0.195004
0.189036
0.182434
0.175256
0.167561
0.159413
0.150879
0.142029
0.132939
0.123686
0.11435
0.105012
0.0957525
0.0866515
0.0777853
0.0692251
0.061037
0.0532791
0.0460016
0.0392451
0.0330407
0.0274093
0.0223617
0.0178986
0.0140115
0.0106831
0.0078883
0.00559487
0.00376501
0.00235605
0.00132194
0.000614086
0.000182711
-2.24719e-05
-5.07409e-05
4.91258e-05
0.000232896
0.000452501
0.000680957
0.000845407
0.00101281
0.000877176
0.00116473
-0.000399997
-0.521099
-0.564562
-0.540022
-0.509485
-0.473334
-0.421522
-0.361709
-0.300133
-0.237978
-0.175761
-0.115218
-0.0601667
-0.0145385
0.0187241
0.0397871
0.0509135
0.0557934
0.0577412
0.0573517
0.0551315
0.0524914
0.050528
0.0498823
0.0507287
0.052894
0.056057
0.0598804
0.0640857
0.0684872
0.0730028
0.0776495
0.0825591
0.0879628
0.0940676
0.101075
0.109524
0.11983
0.131018
0.141948
0.152427
0.162472
0.171967
0.180731
0.188591
0.195412
0.201111
0.205648
0.20902
0.211252
0.212379
0.212452
0.211518
0.209634
0.206851
0.203221
0.198796
0.193626
0.187763
0.181259
0.174169
0.166552
0.158468
0.149985
0.141173
0.132107
0.122865
0.113527
0.104177
0.0948966
0.0857669
0.0768666
0.0682689
0.060042
0.052246
0.0449329
0.0381451
0.0319152
0.0262651
0.0212069
0.0167417
0.0128617
0.00954951
0.00677993
0.00452044
0.00273264
0.00137315
0.000395028
-0.000251287
-0.000616603
-0.000752268
-0.000708619
-0.000535444
-0.000277948
1.49938e-05
0.000315437
0.000550484
0.000784671
0.000717338
0.00105759
-0.000415173
-0.514909
-0.568679
-0.543605
-0.512102
-0.475169
-0.422546
-0.36231
-0.300553
-0.238266
-0.17575
-0.115113
-0.0605181
-0.0157069
0.0168077
0.0375575
0.0489782
0.054828
0.0574106
0.0567984
0.0544206
0.0518192
0.0499745
0.0494399
0.0503629
0.0525791
0.0557818
0.059642
0.0638813
0.0683083
0.0728321
0.0774599
0.0823175
0.0876314
0.0936002
0.100437
0.108738
0.118909
0.129912
0.140618
0.150884
0.160743
0.170079
0.178711
0.186462
0.1932
0.19884
0.203347
0.206717
0.208972
0.210149
0.210292
0.209448
0.207667
0.204997
0.201487
0.197183
0.192133
0.186385
0.179988
0.172994
0.165461
0.157448
0.149022
0.14025
0.13121
0.121979
0.11264
0.103276
0.0939713
0.0848093
0.0758706
0.0672308
0.0589602
0.0511212
0.0437678
0.0369444
0.0306851
0.0250135
0.0199423
0.0154738
0.0116005
0.00830513
0.00556247
0.00333959
0.00159748
0.000291944
-0.000624916
-0.00120374
-0.00149649
-0.00155569
-0.00143286
-0.00117891
-0.000840144
-0.000466336
-8.65059e-05
0.000226388
0.000534251
0.000542084
0.000941009
-0.000432748
-0.511717
-0.574035
-0.547555
-0.514869
-0.476973
-0.423443
-0.362776
-0.300871
-0.238418
-0.175555
-0.115034
-0.0609898
-0.0171099
0.0146991
0.0352637
0.0472925
0.0542555
0.0569733
0.056057
0.0536
0.0510755
0.0493515
0.0489224
0.0499209
0.0521922
0.0554426
0.0593497
0.0636345
0.0680997
0.0726439
0.0772642
0.0820797
0.0873099
0.093143
0.0998087
0.107963
0.117984
0.128769
0.139218
0.149244
0.158894
0.168053
0.176536
0.184166
0.190811
0.196388
0.200862
0.20423
0.206514
0.207745
0.207966
0.20722
0.205552
0.203006
0.199626
0.195453
0.190533
0.184909
0.178628
0.17174
0.164298
0.156361
0.147995
0.139268
0.130255
0.121036
0.111694
0.102314
0.0929823
0.0837842
0.0748025
0.0661156
0.0577961
0.0499087
0.04251
0.0356462
0.0293534
0.0236566
0.0185699
0.0140963
0.0102289
0.00695083
0.00423652
0.0020527
0.000359724
-0.000887503
-0.00173792
-0.00224337
-0.00245707
-0.00243285
-0.00222355
-0.00188133
-0.0014537
-0.000991439
-0.000524762
-0.000126722
0.000261786
0.000351622
0.000815416
-0.000452949
-0.511452
-0.580902
-0.551867
-0.517713
-0.478672
-0.424157
-0.363073
-0.301053
-0.238372
-0.175187
-0.115025
-0.0616539
-0.0187416
0.012433
0.0330205
0.0460555
0.0539065
0.0563051
0.0551461
0.0526896
0.0502642
0.0486573
0.0483273
0.0493992
0.0517281
0.055032
0.0589947
0.063336
0.0678515
0.0724292
0.0770546
0.0818392
0.0869933
0.0926931
0.0991918
0.107206
0.117058
0.127591
0.13775
0.147513
0.156934
0.165896
0.174214
0.181712
0.188255
0.193765
0.198206
0.201574
0.203889
0.205181
0.205487
0.204847
0.203302
0.200888
0.197648
0.193617
0.188837
0.183346
0.17719
0.170413
0.16307
0.155215
0.146913
0.138233
0.129249
0.120042
0.110696
0.101298
0.0919357
0.0826972
0.0736678
0.0649283
0.0565542
0.0486128
0.0411631
0.0342537
0.0279227
0.0221968
0.0170914
0.0126107
0.00874827
0.00548739
0.00280256
0.000660029
-0.000980567
-0.00216527
-0.00294417
-0.0033704
-0.00349858
-0.003384
-0.0030809
-0.00264286
-0.00211871
-0.00156034
-0.000999283
-0.000508738
-3.25438e-05
0.000146123
0.000681122
-0.000475918
-0.513818
-0.588925
-0.556383
-0.520561
-0.480216
-0.424652
-0.363179
-0.301057
-0.238067
-0.174694
-0.11506
-0.0625378
-0.0205855
0.0100526
0.0310241
0.0453544
0.0534322
0.0553882
0.0541025
0.0517047
0.0493882
0.047893
0.0476554
0.048797
0.0511836
0.0545447
0.0585697
0.0629769
0.0675546
0.0721786
0.0768226
0.0815889
0.0866756
0.0922462
0.0985863
0.10647
0.11613
0.126378
0.136219
0.145695
0.154867
0.163616
0.171756
0.179109
0.185545
0.190983
0.195389
0.198759
0.20111
0.202468
0.202867
0.202341
0.200926
0.198655
0.195564
0.191684
0.187053
0.181705
0.175681
0.169024
0.161785
0.154017
0.145783
0.137152
0.128199
0.119004
0.109653
0.100234
0.0908379
0.0815545
0.072472
0.0636741
0.0552393
0.0472376
0.0397309
0.0327702
0.0263959
0.0206364
0.0155088
0.0110184
0.00715941
0.00391546
0.00126094
-0.000838329
-0.00242348
-0.00354157
-0.00424396
-0.0045852
-0.00462142
-0.00440949
-0.00400524
-0.00346376
-0.00283535
-0.00217315
-0.0015101
-0.00091962
-0.000348622
-7.42904e-05
0.000538348
-0.000501733
-0.520084
-0.59783
-0.560951
-0.523343
-0.481558
-0.424904
-0.363082
-0.300837
-0.237455
-0.17416
-0.115125
-0.0636198
-0.0226188
0.00765762
0.0295207
0.0449716
0.0526274
0.054247
0.0529536
0.0506538
0.0484523
0.0470641
0.0469115
0.048117
0.0505585
0.0539773
0.0580688
0.0625498
0.0672003
0.0718835
0.0765595
0.0813209
0.0863498
0.0917967
0.0979923
0.105759
0.115198
0.125125
0.134623
0.143794
0.152699
0.16122
0.169168
0.176368
0.182689
0.188053
0.192425
0.195799
0.19819
0.19962
0.200118
0.199714
0.198438
0.196318
0.193384
0.189665
0.185191
0.179994
0.17411
0.16758
0.160451
0.152775
0.144614
0.136035
0.127113
0.11793
0.108572
0.0991295
0.0896954
0.0803622
0.0712209
0.0623585
0.0538563
0.0457877
0.0382173
0.031199
0.0247756
0.0189776
0.0138238
0.00932068
0.00546324
0.00223553
-0.000388145
-0.00244243
-0.00396926
-0.00501682
-0.00563781
-0.00588831
-0.00582613
-0.00550985
-0.00499703
-0.00434442
-0.00360394
-0.00283007
-0.00205732
-0.0013594
-0.000686402
-0.000309542
0.000387238
-0.000530432
-0.530487
-0.607563
-0.565485
-0.525993
-0.482669
-0.424919
-0.362802
-0.300377
-0.23657
-0.173651
-0.115269
-0.0648998
-0.0248216
0.0054385
0.0286311
0.0444591
0.0514914
0.0529411
0.0517241
0.0495479
0.0474667
0.0461807
0.0461047
0.0473657
0.0498558
0.0533297
0.0574888
0.0620488
0.0667812
0.0715355
0.0762573
0.0810273
0.0860081
0.0913391
0.0974096
0.105076
0.114269
0.123832
0.132964
0.141811
0.150435
0.158713
0.166459
0.173497
0.179698
0.184986
0.189325
0.192706
0.195141
0.196648
0.197252
0.196976
0.195847
0.193886
0.191119
0.187568
0.18326
0.178222
0.172487
0.16609
0.159077
0.151498
0.143413
0.134888
0.125999
0.116827
0.10746
0.0979914
0.0885151
0.0791268
0.0699207
0.0609869
0.0524102
0.0442673
0.0366261
0.0295434
0.0230646
0.0172226
0.012038
0.00751865
0.00366048
0.000447955
-0.00214468
-0.00415252
-0.00561837
-0.0065916
-0.00712637
-0.00728045
-0.00711343
-0.00668575
-0.00605688
-0.00528536
-0.00442489
-0.00353142
-0.00264116
-0.00182819
-0.00104591
-0.000559611
0.000227867
-0.000562032
-0.542806
-0.617901
-0.569965
-0.528489
-0.483527
-0.424693
-0.362325
-0.299628
-0.235473
-0.173198
-0.115569
-0.0663917
-0.0271347
0.00365881
0.0281958
0.0435412
0.0500725
0.0515121
0.0504321
0.0484022
0.0464472
0.0452583
0.0452481
0.0465532
0.0490824
0.0526047
0.0568293
0.0614707
0.066292
0.0711278
0.0759084
0.0807004
0.0856428
0.0908681
0.0968367
0.104411
0.113338
0.122497
0.131242
0.13975
0.148078
0.156102
0.163636
0.170505
0.176583
0.181794
0.186101
0.189491
0.191975
0.193564
0.19428
0.194139
0.193164
0.19137
0.188778
0.185404
0.18127
0.176399
0.170818
0.164562
0.157671
0.150194
0.142188
0.13372
0.124864
0.115703
0.106326
0.0968267
0.0873037
0.0778547
0.0685772
0.0595648
0.050906
0.042681
0.0349612
0.0278066
0.0212655
0.0153735
0.0101529
0.00561336
0.0017517
-0.00144711
-0.00400882
-0.00596903
-0.00737144
-0.0082667
-0.00871055
-0.00876253
-0.0084842
-0.00793804
-0.00718554
-0.00628724
-0.00529874
-0.00427762
-0.00326192
-0.00232618
-0.00142723
-0.000824527
6.02572e-05
-0.000596538
-0.557066
-0.628917
-0.57433
-0.530771
-0.484098
-0.42421
-0.361615
-0.298559
-0.234266
-0.172719
-0.116055
-0.0681152
-0.0294263
0.00253385
0.0277428
0.042198
0.0484456
0.0499942
0.0490984
0.0472371
0.045414
0.0443156
0.0443582
0.0456929
0.0482479
0.0518086
0.0560928
0.0608147
0.0657292
0.0706552
0.0755066
0.0803331
0.0852459
0.090379
0.096275
0.10375
0.112388
0.121113
0.129453
0.13761
0.145632
0.153392
0.160705
0.167401
0.173353
0.178487
0.182763
0.186166
0.188702
0.190378
0.191211
0.191213
0.190399
0.18878
0.186369
0.18318
0.179228
0.174532
0.169114
0.163004
0.156241
0.14887
0.140948
0.132538
0.123716
0.114565
0.105175
0.095643
0.0860683
0.0765526
0.0671967
0.058098
0.0493488
0.0410332
0.0332264
0.0259918
0.019381
0.0134322
0.00817001
0.00360568
-0.00026272
-0.00344968
-0.00598095
-0.00789262
-0.00922934
-0.0100431
-0.0103914
-0.0103357
-0.00993955
-0.00926774
-0.00838396
-0.00735088
-0.00622619
-0.00506922
-0.00392
-0.00285365
-0.00183055
-0.00110437
-0.000115617
-0.000633954
-0.573152
-0.640268
-0.578448
-0.532806
-0.484381
-0.423472
-0.360618
-0.297129
-0.233073
-0.1722
-0.116725
-0.0700741
-0.0314432
0.00207892
0.0268408
0.0404863
0.0466684
0.0484162
0.0477481
0.0460776
0.0443906
0.0433738
0.0434538
0.0448007
0.0473651
0.0509504
0.0552846
0.060083
0.0650919
0.0701144
0.075047
0.079919
0.0848105
0.0898698
0.0957286
0.103091
0.111405
0.11967
0.127594
0.13539
0.143097
0.150586
0.157674
0.164193
0.170019
0.175076
0.179322
0.182741
0.185333
0.187102
0.188058
0.188208
0.187561
0.186123
0.183903
0.180906
0.177144
0.172629
0.167381
0.161425
0.154795
0.147535
0.139699
0.13135
0.122563
0.113422
0.104017
0.0944475
0.084816
0.0752271
0.0657854
0.0565921
0.0477437
0.0393285
0.0314256
0.0241023
0.0174136
0.0114005
0.00609049
0.00149632
-0.00238254
-0.00555997
-0.00806164
-0.00992414
-0.0111932
-0.0119221
-0.0121703
-0.0120012
-0.0114808
-0.0106761
-0.00965324
-0.00847724
-0.00720804
-0.00590688
-0.00461591
-0.00341096
-0.00225608
-0.00139928
-0.000299819
-0.000674285
-0.591853
-0.651559
-0.582173
-0.534574
-0.48441
-0.422507
-0.359309
-0.295387
-0.23193
-0.171715
-0.11762
-0.0721896
-0.0328393
0.00187408
0.0253988
0.0385039
0.0447913
0.0468097
0.0464103
0.0449503
0.043401
0.042455
0.0425551
0.0438944
0.0464486
0.0500415
0.0544126
0.0592798
0.0643813
0.069504
0.0745263
0.0794527
0.0843304
0.0893385
0.0951906
0.102415
0.110373
0.11816
0.125661
0.13309
0.140477
0.14769
0.15455
0.16089
0.166588
0.171569
0.175788
0.179226
0.181878
0.183743
0.184827
0.185131
0.184659
0.183409
0.181386
0.178589
0.175024
0.170699
0.165627
0.159831
0.153341
0.146197
0.138451
0.130165
0.121414
0.11228
0.102858
0.0932476
0.0835539
0.073885
0.0643495
0.0550528
0.0460958
0.0375712
0.0295625
0.022141
0.0153656
0.00928041
0.00391551
-0.000714144
-0.00460774
-0.00777839
-0.0102517
-0.0120647
-0.0132642
-0.0139051
-0.0140486
-0.0137606
-0.0131093
-0.0121645
-0.0109947
-0.00966748
-0.00824527
-0.00679138
-0.00535028
-0.00399857
-0.00270415
-0.00170945
-0.000492447
-0.000717543
-0.613389
-0.662708
-0.585451
-0.536085
-0.484257
-0.421379
-0.357693
-0.293441
-0.230846
-0.171359
-0.118794
-0.0742683
-0.0334785
0.00122755
0.0234816
0.0363406
0.0428573
0.0452077
0.0451142
0.043881
0.0424686
0.0415813
0.0416828
0.0429931
0.0455152
0.0490954
0.053487
0.0584116
0.0636005
0.0688247
0.0739427
0.0789298
0.0838018
0.088791
0.0946588
0.101703
0.109265
0.11657
0.123647
0.130708
0.137772
0.144708
0.151338
0.157498
0.163071
0.167977
0.172171
0.17563
0.178346
0.180312
0.181529
0.181992
0.1817
0.180646
0.178826
0.176237
0.172877
0.168748
0.163861
0.158231
0.151886
0.144863
0.13721
0.12899
0.120275
0.111149
0.101707
0.0920509
0.0822891
0.072533
0.0628953
0.0534858
0.0444102
0.0357658
0.0276409
0.0201112
0.0132394
0.0070734
0.00164608
-0.00302533
-0.00693844
-0.0101055
-0.012552
-0.0143156
-0.0154439
-0.0159938
-0.0160283
-0.0156157
-0.014827
-0.0137345
-0.0124097
-0.0109229
-0.00933899
-0.00772366
-0.00612382
-0.00461702
-0.00317513
-0.00203509
-0.000693632
-0.000763748
-0.635812
-0.673429
-0.58824
-0.537316
-0.483929
-0.420095
-0.355796
-0.291422
-0.229697
-0.171205
-0.120285
-0.0760161
-0.0336337
-0.000160484
0.0211759
0.034054
0.0409015
0.0436408
0.0438859
0.042892
0.0416141
0.040773
0.0408573
0.0421163
0.0445829
0.0481276
0.0525199
0.0574873
0.062755
0.0680786
0.0732957
0.0783462
0.0832219
0.0882311
0.0941257
0.100952
0.108071
0.114893
0.121549
0.128244
0.134986
0.141645
0.148044
0.154027
0.159474
0.164307
0.168479
0.171963
0.174745
0.176816
0.178171
0.178798
0.178692
0.177839
0.176231
0.173856
0.170708
0.166784
0.162087
0.156631
0.150437
0.14354
0.135985
0.127833
0.119155
0.110035
0.100571
0.0908648
0.0810288
0.071178
0.0614292
0.051897
0.042692
0.0339169
0.0256646
0.0180157
0.0110373
0.00478106
-0.000716941
-0.00543699
-0.00937499
-0.0125422
-0.014964
-0.0166783
-0.0177343
-0.0181901
-0.0181113
-0.0175686
-0.0166357
-0.0153881
-0.0139001
-0.012245
-0.0104905
-0.00870477
-0.00693738
-0.00526694
-0.00366947
-0.00237651
-0.000903531
-0.000812928
-0.659429
-0.68372
-0.590505
-0.53824
-0.483417
-0.418609
-0.353619
-0.289502
-0.22847
-0.171289
-0.121997
-0.077052
-0.0338974
-0.00214973
0.0186412
0.0317087
0.0389622
0.042138
0.0427478
0.0420019
0.040855
0.0400479
0.0400969
0.0412829
0.04367
0.0471549
0.0515258
0.056518
0.0618525
0.0672705
0.0725865
0.0777002
0.0825933
0.0876624
0.0935624
0.100139
0.106782
0.113124
0.119364
0.125696
0.13212
0.138504
0.144676
0.150483
0.155806
0.160569
0.16472
0.168231
0.171083
0.173263
0.174759
0.175556
0.175642
0.174997
0.173606
0.171453
0.168525
0.164812
0.160315
0.155039
0.149003
0.142236
0.134783
0.126701
0.118061
0.108947
0.0994574
0.0896968
0.0797803
0.0698267
0.0599574
0.0502921
0.0409465
0.0320287
0.0236372
0.0158575
0.00876145
0.00240484
-0.0031728
-0.00794903
-0.0119179
-0.0150895
-0.0174889
-0.0191548
-0.0201371
-0.0204963
-0.0202998
-0.0196214
-0.0185377
-0.0171272
-0.0154677
-0.0136354
-0.0117012
-0.0097359
-0.00779191
-0.00594906
-0.00418768
-0.00273402
-0.00112233
-0.000865124
-0.684505
-0.693506
-0.592212
-0.538827
-0.482698
-0.416894
-0.351212
-0.287694
-0.227271
-0.171705
-0.123724
-0.0772418
-0.0347878
-0.0046088
0.0159673
0.0293455
0.0370694
0.0407221
0.0417165
0.0412246
0.0402047
0.0394205
0.0394176
0.0405098
0.0427936
0.046194
0.0505196
0.0555161
0.0609023
0.0664066
0.0718171
0.0769912
0.0819235
0.0870907
0.0929529
0.0992293
0.10538
0.111254
0.117089
0.123067
0.129177
0.135291
0.141239
0.146872
0.152074
0.156768
0.160902
0.164442
0.167367
0.169659
0.171301
0.172273
0.172555
0.172124
0.170958
0.169034
0.166333
0.16284
0.158549
0.153461
0.147589
0.140959
0.133612
0.125602
0.117001
0.107893
0.0983743
0.0885545
0.0785508
0.0684861
0.0584865
0.0486769
0.0391788
0.0301059
0.0215624
0.0136395
0.00641401
-5.38978e-05
-0.00572088
-0.0105615
-0.0145678
-0.0177486
-0.0201286
-0.0217469
-0.0226549
-0.0229147
-0.0225965
-0.0217767
-0.0205353
-0.0189542
-0.0171145
-0.015096
-0.0129727
-0.0108184
-0.00868849
-0.00666421
-0.00473036
-0.00310802
-0.00135025
-0.000920384
-0.711004
-0.702542
-0.593384
-0.539116
-0.481764
-0.414898
-0.348671
-0.285992
-0.226213
-0.172494
-0.12515
-0.0770649
-0.0364598
-0.00739562
0.01322
0.0269998
0.0352486
0.03941
0.0408042
0.0405701
0.0396736
0.0389023
0.0388326
0.0398116
0.0419694
0.0452605
0.0495162
0.0544948
0.0599153
0.065495
0.0709912
0.0762217
0.0812214
0.0864997
0.0922727
0.0981967
0.103859
0.10928
0.114723
0.120355
0.126161
0.13201
0.137739
0.143201
0.148285
0.152913
0.157031
0.160602
0.163603
0.16601
0.167802
0.168952
0.169437
0.169226
0.168292
0.166604
0.164138
0.160873
0.156796
0.151903
0.146202
0.139714
0.132478
0.124544
0.115983
0.106879
0.0973294
0.0874453
0.0773475
0.067163
0.0570228
0.0470573
0.037394
0.0281529
0.0194441
0.0113647
0.00399706
-0.00259387
-0.00836067
-0.0132747
-0.0173255
-0.0205209
-0.0228848
-0.0244569
-0.02529
-0.0254481
-0.025004
-0.0240372
-0.0226312
-0.0208715
-0.018843
-0.0166288
-0.0143069
-0.0119538
-0.00962833
-0.00741329
-0.00529817
-0.00349894
-0.00158752
-0.000978768
-0.739479
-0.711047
-0.594263
-0.539274
-0.480716
-0.412701
-0.346103
-0.28429
-0.225418
-0.173595
-0.125861
-0.0772179
-0.0387742
-0.0103652
0.0104531
0.0247012
0.0335182
0.0382125
0.0400174
0.0400445
0.0392685
0.0385022
0.0383527
0.0392011
0.0412115
0.044369
0.0485298
0.0534669
0.0589026
0.0645438
0.0701124
0.0753998
0.0805041
0.0858708
0.0914935
0.0970182
0.102206
0.107197
0.112265
0.117565
0.123075
0.128666
0.134181
0.139477
0.144445
0.149008
0.153112
0.156718
0.159797
0.162322
0.164267
0.165601
0.166293
0.166309
0.165612
0.164168
0.161946
0.158917
0.155062
0.150372
0.144849
0.13851
0.131388
0.123534
0.115015
0.105914
0.0963301
0.0863768
0.0761778
0.0658645
0.0555728
0.0454393
0.0355976
0.0261742
0.0172859
0.009036
0.00151266
-0.00521387
-0.0110918
-0.0160889
-0.0201922
-0.023408
-0.0257597
-0.0272875
-0.0280453
-0.0280994
-0.0275254
-0.0264061
-0.0248285
-0.022882
-0.0206555
-0.0182362
-0.0157056
-0.0131436
-0.0106127
-0.00819735
-0.00589185
-0.00390725
-0.00183442
-0.00104034
-0.768785
-0.718642
-0.594909
-0.539351
-0.479527
-0.410338
-0.343687
-0.282534
-0.224962
-0.174826
-0.125723
-0.0781124
-0.0415422
-0.0134214
0.00770094
0.0224699
0.0318888
0.0371337
0.0393581
0.0396498
0.0389934
0.0382266
0.037987
0.0386895
0.0405326
0.0435333
0.0475741
0.0524452
0.0578757
0.0635615
0.069186
0.0745379
0.0797763
0.0851792
0.0905883
0.0956896
0.100422
0.105005
0.109718
0.1147
0.119924
0.125265
0.130571
0.135704
0.140559
0.14506
0.149152
0.152794
0.155953
0.158599
0.160701
0.162222
0.163128
0.163375
0.162924
0.161732
0.159761
0.156976
0.153352
0.148873
0.143535
0.137352
0.130351
0.122579
0.114103
0.105004
0.0953841
0.0853566
0.0750491
0.0645974
0.0541432
0.0438289
0.0337948
0.0241744
0.0150915
0.00665623
-0.00103717
-0.00791271
-0.0139138
-0.0190045
-0.023169
-0.0264117
-0.0287557
-0.0302412
-0.0309239
-0.030872
-0.0301642
-0.0288866
-0.0271302
-0.0249887
-0.022555
-0.0199206
-0.017171
-0.0143898
-0.0116432
-0.0090175
-0.00651222
-0.00433349
-0.00209124
-0.00110519
-0.79952
-0.725177
-0.595416
-0.539428
-0.478201
-0.407831
-0.341472
-0.280844
-0.224919
-0.175851
-0.125217
-0.0798231
-0.0445972
-0.0165077
0.00498628
0.0203182
0.030364
0.036172
0.0388229
0.0393833
0.038848
0.0380781
0.0377413
0.0382855
0.0399438
0.0427659
0.0466622
0.0514426
0.056846
0.0625555
0.0682197
0.0736544
0.079026
0.0843948
0.0895252
0.0942024
0.0985056
0.102707
0.107084
0.111763
0.116713
0.121812
0.126914
0.131888
0.136633
0.141074
0.145155
0.148834
0.152076
0.154845
0.157107
0.158821
0.159944
0.16043
0.160231
0.159298
0.157587
0.155055
0.151671
0.147411
0.142268
0.136246
0.129371
0.121686
0.113255
0.104159
0.0944991
0.0843921
0.0739687
0.0633691
0.0527406
0.0422321
0.031991
0.0221583
0.012865
0.00422838
-0.00365036
-0.0106893
-0.0168266
-0.0220222
-0.0262572
-0.0295341
-0.0318752
-0.0333213
-0.0339291
-0.0337694
-0.0329238
-0.0314823
-0.02954
-0.0271948
-0.0245444
-0.0216847
-0.0187055
-0.0156943
-0.0127213
-0.00987498
-0.00716018
-0.00477826
-0.00235832
-0.00117338
-0.832286
-0.730625
-0.595781
-0.539497
-0.476711
-0.405264
-0.33945
-0.279368
-0.225284
-0.176234
-0.125036
-0.082187
-0.0477893
-0.0195834
0.00232616
0.0182527
0.0289424
0.0353221
0.0384051
0.0392394
0.0388285
0.0380561
0.0376182
0.0379952
0.0394542
0.0420782
0.0458064
0.0504714
0.0558248
0.061533
0.0672258
0.072763
0.0782262
0.0834857
0.0882913
0.0925572
0.0964604
0.100307
0.104368
0.10876
0.113447