/*--------------------------------*- C++ -*----------------------------------*\
| =========                 |                                                 |
| \\      /  F ield         | OpenFOAM: The Open Source CFD Toolbox           |
|  \\    /   O peration     | Version:  4.1                                   |
|   \\  /    A nd           | Web:      www.OpenFOAM.org                      |
|    \\/     M anipulation  |                                                 |
\*---------------------------------------------------------------------------*/
FoamFile
{
    version     2.0;
    format      ascii;
    class       surfaceScalarField;
    location    "200";
    object      phi;
}
// * * * * * * * * * * * * * * * * * * * * * * * * * * * * * * * * * * * * * //

dimensions      [0 3 -1 0 0 0 0];

internalField   nonuniform List<scalar> 
52920
(
446.705
35.4548
438.582
8.12368
448.221
-9.63886
467.454
-19.2323
489.863
-22.4084
512.036
-22.1735
532.637
-20.6006
551.378
-18.7403
568.378
-17.0001
583.763
-15.3847
597.408
-13.6447
608.818
-11.4096
617.177
-8.35869
621.624
-4.44603
621.672
-0.0484947
617.63
4.04282
610.676
6.95426
602.541
8.13486
595.068
7.47325
589.837
5.23126
587.926
1.91183
589.861
-1.93476
595.733
-5.87117
605.266
-9.53326
617.859
-12.5921
632.704
-14.8449
648.938
-16.2344
665.745
-16.8062
682.397
-16.6513
698.263
-15.8666
712.804
-14.5405
725.561
-12.7569
736.173
-10.6112
744.403
-8.23031
750.192
-5.7887
753.688
-3.49538
755.194
-1.5054
754.98
0.213854
753.189
1.79117
749.911
3.27834
745.247
4.66396
739.314
5.93399
732.233
7.08117
724.129
8.1038
715.127
9.00295
705.346
9.78053
694.908
10.4387
683.928
10.9801
672.52
11.4084
660.792
11.7287
648.844
11.9475
636.772
12.073
624.658
12.1141
612.577
12.0807
600.595
11.9828
588.764
11.8303
577.132
11.6327
565.733
11.3991
554.595
11.1377
543.739
10.8561
533.178
10.5611
522.92
10.2586
512.966
9.95374
503.315
9.65084
493.962
9.3533
484.898
9.0636
476.115
8.78335
467.602
8.5133
459.349
8.25342
451.346
8.00305
443.585
7.76106
436.059
7.52602
428.762
7.29639
421.692
7.0707
414.844
6.84768
408.218
6.62635
401.812
6.4061
395.625
6.18668
389.657
5.96819
383.906
5.75101
378.37
5.53574
373.047
5.32312
367.933
5.11391
363.024
4.90887
358.316
4.70862
353.802
4.51367
349.478
4.32432
345.337
4.14066
341.375
3.96259
337.585
3.78981
333.963
3.62186
330.505
3.45811
327.207
3.29778
324.067
3.14004
321.083
2.98361
318.255
2.82813
315.586
2.66908
313.074
2.51213
310.742
2.33254
2.11517
462.703
59.4381
462.093
8.73354
476.048
-23.5928
497.672
-40.8565
521.143
-45.8792
543.5
-44.5304
563.726
-40.8265
581.702
-36.7154
597.647
-32.9445
611.825
-29.5622
624.339
-26.1593
634.953
-22.0225
642.979
-16.3847
647.436
-8.90264
647.614
-0.22598
643.718
7.93906
636.907
13.7651
628.862
16.1802
621.332
15.0039
615.811
10.7524
613.422
4.30164
614.978
-3.49078
620.825
-11.7176
630.606
-19.3142
643.437
-25.4223
658.238
-29.6456
674.003
-31.999
689.915
-32.7187
705.357
-32.0932
719.866
-30.3748
733.085
-27.7593
744.733
-24.4041
754.585
-20.4638
762.487
-16.1319
768.376
-11.6776
772.315
-7.43376
774.455
-3.64474
774.914
-0.244826
773.735
2.97018
770.951
6.06227
766.629
8.98675
760.867
11.6965
753.788
14.1603
745.53
16.3617
736.24
18.2935
726.066
19.9546
715.157
21.3479
703.657
22.4802
691.704
23.3623
679.424
24.0089
666.934
24.4379
654.337
24.6698
641.725
24.7266
629.174
24.631
616.752
24.4054
604.511
24.0713
592.495
23.6488
580.738
23.1567
569.264
22.6118
558.091
22.0293
547.23
21.4225
536.685
20.8032
526.458
20.1813
516.544
19.5649
506.937
18.9605
497.628
18.3726
488.607
17.8042
479.863
17.2565
471.388
16.7293
463.17
16.221
455.202
15.7294
447.476
15.2517
439.987
14.7849
432.732
14.3261
425.707
13.8729
418.91
13.4235
412.339
12.9766
405.994
12.5319
399.873
12.0895
393.973
11.6503
388.294
11.2152
382.831
10.7859
377.582
10.3636
372.541
9.9499
367.703
9.54594
363.064
9.15265
358.618
8.77059
354.359
8.39992
350.281
8.04043
346.379
7.69151
342.649
7.3522
339.086
7.02129
335.687
6.69716
332.448
6.37831
329.37
6.06191
326.45
5.74775
323.693
5.42689
321.097
5.10811
318.661
4.76816
4.28948
476.347
72.3135
485.859
-0.7777
508.011
-45.7449
534.735
-67.5806
560.609
-71.7526
583.609
-67.53
603.42
-60.6379
620.286
-53.5809
634.571
-47.2285
646.6
-41.5918
656.552
-36.1109
664.307
-29.7773
669.335
-21.4117
670.821
-10.3885
668.319
2.2761
662.351
13.9072
654.269
21.8478
645.816
24.6337
638.76
22.0596
634.613
14.8997
634.498
4.41732
639.048
-8.04057
648.087
-20.7567
660.584
-31.8109
675.164
-40.0022
690.588
-45.069
705.951
-47.3621
720.673
-47.4396
734.396
-45.8163
746.898
-42.877
758.026
-38.8866
767.66
-34.0383
775.709
-28.5121
782.111
-22.5333
786.858
-16.425
790.014
-10.5894
791.67
-5.29984
791.847
-0.422266
790.504
4.31334
787.606
8.96131
783.158
13.4344
777.216
17.6389
769.874
21.5023
761.26
24.9759
751.524
28.0296
740.831
30.6481
729.35
32.8293
717.248
34.5824
704.684
35.9266
691.804
36.8895
678.737
37.5047
665.598
37.8098
652.481
37.8435
639.467
37.6447
626.622
37.2508
613.997
36.6964
601.633
36.0138
589.558
35.2316
577.794
34.3756
566.355
33.4686
555.247
32.5302
544.473
31.5776
534.029
30.6248
523.911
29.6836
514.109
28.7627
504.613
27.8684
495.413
27.0043
486.497
26.1719
477.857
25.3702
469.481
24.597
461.362
23.8486
453.493
23.1208
445.868
22.4092
438.485
21.7098
431.338
21.0191
424.427
20.3345
417.75
19.6545
411.303
18.9786
405.086
18.307
399.095
17.641
393.328
16.9823
387.781
16.3328
382.45
15.6948
377.33
15.0702
372.415
14.4606
367.7
13.8674
363.18
13.2913
358.847
12.7323
354.697
12.1902
350.725
11.6639
346.925
11.1519
343.294
10.6524
339.828
10.1631
336.525
9.6815
333.383
9.20379
330.403
8.72849
327.582
8.24724
324.933
7.75753
322.416
7.28449
6.50144
489.513
74.2173
508.349
-19.6136
537.065
-74.4607
567.14
-97.6547
594.221
-98.8339
617.298
-90.606
636.568
-79.9084
652.457
-69.4694
665.364
-60.1356
675.607
-51.8336
683.332
-43.8356
688.379
-34.8247
690.182
-23.2137
688.036
-8.24278
682.012
8.30047
673.32
22.6001
663.747
31.4208
655.208
33.1729
649.443
27.8253
647.782
16.5607
651.052
1.14734
659.282
-16.2696
671.438
-32.913
685.884
-46.2559
701.113
-55.2307
716.102
-60.0584
730.292
-61.5515
743.421
-60.5687
755.381
-57.7755
766.117
-53.6127
775.586
-48.3551
783.738
-42.1909
790.525
-35.298
795.905
-27.9136
799.874
-20.3933
802.463
-13.1782
803.698
-6.53452
803.526
-0.250284
801.856
5.98345
798.626
12.1914
793.824
18.237
787.489
23.9738
779.71
29.2821
770.613
34.0733
760.355
38.2874
749.113
41.8901
737.072
44.871
724.414
47.2409
711.311
49.0293
697.922
50.2793
684.383
51.0436
670.813
51.3798
657.31
51.3467
643.953
51.0016
630.806
50.3984
617.916
49.5864
605.32
48.6102
593.043
47.509
581.101
46.3174
569.504
45.0654
558.256
43.7788
547.354
42.4795
536.794
41.1854
526.566
39.911
516.662
38.667
507.07
37.4607
497.778
36.2961
488.776
35.1741
480.053
34.0932
471.6
33.0498
463.41
32.039
455.475
31.0551
447.792
30.0926
440.356
29.1462
433.163
28.2116
426.212
27.2859
419.499
26.3673
413.023
25.4551
406.78
24.5503
400.766
23.6542
394.979
22.7693
389.414
21.8981
384.066
21.0433
378.929
20.2073
373.997
19.3922
369.265
18.5994
364.727
17.8297
360.376
17.0831
356.207
16.3588
352.216
15.6555
348.396
14.9711
344.746
14.3031
341.261
13.6482
337.939
13.0033
334.779
12.3636
331.782
11.7257
328.945
11.0843
326.283
10.4194
323.746
9.82103
8.7201
502.232
66.0134
528.676
-46.0571
561.455
-107.239
592.706
-128.905
619.593
-125.721
641.975
-112.988
660.347
-98.2799
675.185
-84.3076
686.879
-71.829
695.706
-60.6605
701.722
-49.8509
704.584
-37.6872
703.514
-22.143
697.968
-2.69625
688.751
17.5172
677.844
33.5072
667.465
41.8006
659.645
40.9935
655.977
31.4937
657.456
15.0811
664.363
-5.7591
675.848
-27.7541
690.065
-47.1299
705.142
-61.3331
719.826
-69.9139
733.515
-73.7474
746.03
-74.0661
757.381
-71.9193
767.628
-68.0225
776.817
-62.8013
784.957
-56.495
792.025
-49.2586
797.976
-41.249
802.763
-32.6998
806.352
-23.9821
808.725
-15.5517
809.831
-7.63978
809.534
0.0473322
807.688
7.82925
804.208
15.6721
799.075
23.3697
792.339
30.71
784.104
37.518
774.515
43.6621
763.751
49.052
752.005
53.6362
739.478
57.3985
726.364
60.3553
712.844
62.5491
699.081
64.0425
685.215
64.9098
671.363
65.2315
657.623
65.0878
644.068
64.5561
630.759
63.7075
617.74
62.6064
605.04
61.3096
592.682
59.8671
580.678
58.3218
569.033
56.7107
557.746
55.0651
546.815
53.4112
536.23
51.7703
525.982
50.1589
516.06
48.5892
506.452
47.0688
497.146
45.6018
488.132
44.1882
479.4
42.8255
470.941
41.5088
462.748
40.2318
454.816
38.9875
447.139
37.7692
439.714
36.5709
432.538
35.3878
425.608
34.2164
418.92
33.0552
412.471
31.9037
406.259
30.7631
400.277
29.6355
394.523
28.5238
388.99
27.431
383.673
26.3602
378.566
25.3143
373.663
24.2955
368.957
23.3052
364.443
22.3441
360.114
21.4118
355.966
20.5073
351.992
19.6287
348.191
18.7731
344.556
17.9373
341.087
17.1174
337.781
16.3091
334.638
15.5071
331.658
14.7058
328.838
13.9038
326.196
13.062
323.68
12.337
10.9169
515.303
48.6852
546.549
-77.3023
580.683
-141.374
611.476
-159.697
637.328
-151.573
658.56
-134.219
675.762
-115.481
689.421
-97.9666
699.924
-82.3316
707.513
-68.2491
712.106
-54.4436
713.081
-38.6623
709.404
-18.4655
700.925
5.7832
689.329
29.1137
677.213
45.623
667.085
51.9291
660.967
47.1123
660.198
32.2627
665.341
9.93887
675.863
-16.2815
689.912
-41.8024
705.132
-62.3501
719.831
-76.0314
733.234
-83.3163
745.194
-85.7077
755.847
-84.7183
765.388
-81.4604
773.98
-76.6145
781.722
-70.5431
788.652
-63.424
794.757
-55.3639
799.996
-46.4873
804.31
-37.0134
807.642
-27.3138
809.925
-17.8348
811.029
-8.7434
810.731
0.346057
808.818
9.74193
805.171
19.3198
799.766
28.7754
792.666
37.8095
784.006
46.1791
773.962
53.706
762.742
60.2721
750.564
65.8143
737.645
70.3182
724.189
73.8119
710.381
76.3572
696.384
78.0397
682.335
78.9587
668.348
79.2189
654.512
78.9234
640.899
78.1695
627.561
77.0458
614.536
75.6311
601.852
73.9947
589.523
72.196
577.559
70.2862
565.961
68.3087
554.726
66.2996
543.849
64.2889
533.318
62.3006
523.125
60.3528
513.255
58.4584
503.699
56.6253
494.444
54.8568
485.48
53.152
476.799
51.507
468.392
49.9156
460.254
48.3701
452.379
46.8627
444.763
45.3854
437.402
43.9319
430.293
42.4969
423.432
41.0772
416.816
39.6711
410.441
38.2789
404.302
36.9021
398.394
35.5434
392.712
34.2061
387.249
32.8937
382
31.6096
376.957
30.3569
372.115
29.1377
367.467
27.9533
363.007
26.8041
358.729
25.6894
354.629
24.6075
350.702
23.5558
346.944
22.5309
343.353
21.5288
339.926
20.5447
336.661
19.5734
333.559
18.6091
330.621
17.6439
327.845
16.6802
325.246
15.6611
322.778
14.8048
13.069
525.519
25.3979
559.964
-111.746
594.842
-176.251
625.001
-189.857
649.702
-176.274
669.606
-154.124
685.428
-131.303
697.723
-110.261
706.913
-91.5213
713.198
-74.5336
716.308
-57.554
715.299
-37.6528
709.054
-12.2207
698.104
16.7342
685.001
42.2162
672.762
57.8623
663.995
60.6967
660.582
50.525
663.516
29.3295
672.728
0.727525
686.6
-30.1534
702.371
-57.5738
717.65
-77.6285
731.253
-89.6341
742.964
-95.0276
753.028
-95.7715
761.799
-93.4885
769.582
-89.2434
776.593
-83.6249
782.955
-76.9056
788.722
-69.1901
793.889
-60.5307
798.416
-51.0147
802.243
-40.8403
805.298
-30.3683
807.475
-20.0117
808.572
-9.8403
808.277
0.641578
806.306
11.7132
802.499
23.1265
796.828
34.447
789.375
45.2627
780.307
55.2478
769.84
64.1731
758.215
71.8969
745.677
78.3532
732.456
83.5392
718.764
87.5037
704.787
90.3344
690.683
92.1445
676.581
93.0607
662.587
93.2132
648.783
92.7277
635.231
91.7213
621.978
90.299
609.056
88.5536
596.485
86.5653
584.279
84.4028
572.441
82.1244
560.97
79.7792
549.862
77.4078
539.108
75.0431
528.697
72.7112
518.619
70.4314
508.86
68.2168
499.411
66.0749
490.26
64.0079
481.398
62.014
472.817
60.0878
464.511
58.2217
456.474
56.4071
448.702
54.6349
441.191
52.8969
433.936
51.1863
426.935
49.4979
420.184
47.8287
413.677
46.1775
407.411
44.5451
401.38
42.9335
395.578
41.3459
389.998
39.786
384.634
38.2577
379.479
36.7645
374.526
35.3093
369.77
33.8943
365.203
32.5203
360.82
31.1873
356.615
29.894
352.585
28.638
348.724
27.4162
345.031
26.2243
341.502
25.0576
338.136
23.9104
334.933
22.7768
331.892
21.6503
329.015
20.5208
326.301
19.3945
323.764
18.198
321.364
17.2048
15.1587
535.345
-2.94994
572.116
-148.517
607.116
-211.251
636.222
-218.963
659.414
-199.466
677.654
-172.362
691.792
-145.441
702.482
-120.951
710.178
-99.2172
714.991
-79.3458
716.389
-58.9517
713.068
-34.3317
704.137
-3.28927
691.103
29.7683
677.28
56.0397
665.91
69.2331
659.537
67.0694
659.785
50.278
667.142
21.9732
680.534
-12.6648
697.11
-46.7287
713.626
-74.0893
728.14
-92.1426
740.159
-101.652
749.977
-104.846
758.12
-103.914
765.07
-100.438
771.185
-95.3582
776.701
-89.14
781.751
-81.9552
786.393
-73.8325
790.632
-64.7687
794.43
-54.8128
797.729
-44.1395
800.452
-33.0901
802.462
-22.022
803.494
-10.8714
803.145
0.990568
801.061
13.7969
797.048
27.1406
791.071
40.4236
783.24
53.0943
773.759
64.7293
762.886
75.0459
750.898
83.8856
738.061
91.1903
724.62
96.9806
710.788
101.336
696.746
104.377
682.643
106.248
668.599
107.106
654.706
107.106
641.038
106.396
627.648
105.112
614.574
103.374
601.841
101.286
589.466
98.9402
577.457
96.4122
565.815
93.7668
554.536
91.058
543.614
88.3299
533.039
85.618
522.801
82.9499
512.887
80.3453
503.287
77.8172
493.989
75.3722
484.986
73.0115
476.268
70.7318
467.829
68.5266
459.664
66.3869
451.768
64.3033
444.137
62.2661
436.767
60.2668
429.654
58.2987
422.795
56.3569
416.185
54.4389
409.819
52.5441
403.69
50.6737
397.793
48.8305
392.121
47.0179
386.667
45.2401
381.424
43.501
376.384
41.8042
371.541
40.1522
366.889
38.5468
362.421
36.9885
358.131
35.4765
354.016
34.009
350.072
32.5828
346.294
31.194
342.681
29.8377
339.23
28.5083
335.941
27.1994
332.814
25.9042
329.848
24.6157
327.047
23.322
324.409
22.032
321.949
20.6584
319.631
19.5234
17.1727
544.991
-35.7082
583.406
-186.932
617.927
-245.772
645.517
-246.552
666.833
-220.782
683.105
-188.634
695.328
-157.664
704.258
-129.881
710.376
-105.335
713.645
-82.6137
713.165
-58.4721
707.297
-28.4634
695.752
8.25596
681.191
44.3293
667.481
69.7505
657.943
78.7707
654.945
70.0684
659.705
45.5182
671.946
9.73246
689.173
-29.892
707.45
-65.0052
723.709
-90.3484
736.816
-105.25
746.968
-111.803
754.842
-112.72
761.128
-110.2
766.362
-105.672
770.916
-99.912
775.028
-93.2517
778.834
-85.761
782.396
-77.3944
785.722
-68.0944
788.781
-57.8721
791.52
-46.8781
793.858
-35.4283
795.639
-23.8022
796.531
-11.7636
796.048
1.47352
793.77
16.0761
789.47
31.4406
783.123
46.7705
774.869
61.3485
764.957
74.6417
753.688
86.3152
741.371
96.2032
728.292
104.269
714.703
110.57
700.815
115.224
686.798
118.394
672.789
120.257
658.893
121.002
645.192
120.807
631.745
119.843
618.595
118.261
605.775
116.195
593.301
113.76
581.186
111.055
569.433
108.165
558.042
105.159
547.005
102.094
536.316
99.0189
525.965
95.9697
515.94
92.9751
506.23
90.0549
496.826
87.2214
487.718
84.4803
478.898
81.8314
470.36
79.2702
462.098
76.7887
454.107
74.3773
446.385
72.0257
438.927
69.7242
431.729
67.4644
424.788
65.2398
418.099
63.0462
411.656
60.8816
405.454
58.7463
399.486
56.642
393.744
54.572
388.222
52.5401
382.912
50.5505
377.806
48.607
372.897
46.713
368.179
44.8707
363.644
43.0812
359.288
41.3444
355.106
39.6588
351.093
38.0218
347.247
36.4294
343.564
34.8771
340.042
33.359
336.682
31.869
333.481
30.4
330.441
28.9441
327.563
27.4942
324.848
26.0365
322.298
24.5821
319.925
23.0319
317.697
21.751
19.1019
554.745
-72.4853
593.938
-226.125
627.155
-278.988
652.708
-272.105
671.85
-239.924
685.985
-202.769
696.191
-167.871
703.3
-136.989
707.787
-109.822
709.422
-84.2479
706.889
-55.9386
698.405
-19.9794
684.617
22.0442
669.294
59.6522
656.64
82.4056
649.926
85.4844
651.246
68.7493
661.26
35.504
678.406
-7.41281
698.559
-50.045
717.334
-83.7793
732.465
-105.48
743.748
-116.532
751.932
-119.987
757.924
-118.712
762.474
-114.749
766.121
-109.318
769.229
-103.02
772.03
-96.0525
774.662
-88.392
777.189
-79.9216
779.626
-70.5311
781.948
-60.1942
784.109
-49.0379
786.027
-37.3466
787.524
-25.2983
788.204
-12.4442
787.498
2.18014
784.926
18.6485
780.247
36.1203
773.452
53.5651
764.724
70.0769
754.36
85.0062
742.703
97.972
730.092
108.815
716.826
117.535
703.158
124.238
689.288
129.094
675.375
132.307
661.538
134.095
647.867
134.673
634.428
134.247
621.269
133.002
608.423
131.107
595.914
128.705
583.753
125.921
571.946
122.862
560.495
119.616
549.395
116.259
538.64
112.85
528.22
109.439
518.126
106.064
508.347
102.754
498.873
99.5286
489.696
96.3988
480.807
93.369
472.201
90.4379
463.872
87.5994
455.816
84.8449
448.029
82.1641
440.508
79.5465
433.25
76.9824
426.25
74.4639
419.505
71.9852
413.008
69.5429
406.754
67.1358
400.736
64.7648
394.946
62.4323
389.376
60.1418
384.019
57.8975
378.866
55.7033
373.91
53.563
369.143
51.4793
364.56
49.4538
360.154
47.4871
355.921
45.5781
351.855
43.7245
347.954
41.923
344.215
40.1687
340.635
38.4564
337.215
36.7795
333.953
35.1311
330.849
33.5036
327.905
31.8883
325.122
30.2775
322.502
28.6564
320.046
27.0375
317.767
25.3117
315.636
23.8819
20.9407
564.644
-111.743
603.06
-264.541
634.275
-310.203
657.59
-295.42
674.524
-256.858
686.56
-214.804
694.829
-176.14
700.181
-142.341
703.023
-112.664
702.866
-84.0908
697.988
-51.061
686.868
-8.85861
671.382
37.5299
656.176
74.8589
645.576
93.0064
642.693
88.3675
649.248
62.1937
664.993
19.76
686.468
-28.8878
708.217
-71.7942
726.326
-101.888
739.706
-118.859
748.975
-125.802
755.237
-126.249
759.484
-122.958
762.453
-117.719
764.657
-111.522
766.438
-104.801
768.022
-97.6362
769.548
-89.9172
771.087
-81.4609
772.662
-72.1059
774.257
-61.7889
775.832
-50.6128
777.309
-38.823
778.48
-26.4689
778.881
-12.8452
777.858
3.20323
774.888
21.619
769.728
41.2805
762.405
60.8882
753.152
79.3298
742.32
95.8388
730.291
110.001
717.425
121.681
704.029
130.932
690.346
137.921
676.565
142.876
662.824
146.048
649.225
147.694
635.84
148.058
622.721
147.366
609.903
145.821
597.409
143.6
585.254
140.86
573.445
137.73
561.984
134.323
550.867
130.733
540.09
127.036
529.645
123.295
519.522
119.562
509.711
115.875
500.204
112.262
490.991
108.742
482.065
105.324
473.421
102.013
465.053
98.8058
456.957
95.6948
449.132
92.6708
441.573
89.7233
434.277
86.8421
427.241
84.0181
420.461
81.244
413.931
78.5151
407.646
75.8287
401.597
73.1846
395.777
70.5843
390.179
68.0308
384.793
65.5277
379.611
63.0791
374.626
60.6889
369.829
58.3601
365.213
56.0948
360.773
53.8941
356.503
51.7573
352.398
49.6827
348.456
47.667
344.673
45.706
341.047
43.7943
337.578
41.9256
334.265
40.0929
331.107
38.2886
328.107
36.5043
325.264
34.7311
322.581
32.9605
320.061
31.1767
317.704
29.3936
315.523
27.4934
313.491
25.9132
22.6863
572.5
-152.646
610.221
-302.262
639.621
-339.602
660.74
-316.539
675.429
-271.547
685.363
-224.738
691.779
-182.555
695.505
-146.067
696.756
-113.914
694.655
-81.9895
687.101
-43.5064
673.357
4.88494
656.777
54.1109
642.563
89.0726
635.009
100.561
636.98
86.3967
649.619
49.5555
671.044
-1.66482
695.622
-53.4661
717.484
-93.6553
733.994
-118.397
745.278
-130.143
752.537
-133.061
757.022
-130.734
759.706
-125.642
761.27
-119.283
762.182
-112.433
762.76
-105.379
763.224
-98.0999
763.716
-90.409
764.318
-82.0625
765.062
-72.8497
765.944
-62.6709
766.936
-51.6042
767.958
-39.8449
768.769
-27.2795
768.824
-12.8998
767.388
4.63951
763.91
25.0975
758.167
47.0236
750.238
68.8177
740.418
89.1498
729.112
107.146
716.735
122.378
703.662
134.754
690.194
144.4
676.563
151.553
662.934
156.505
649.426
159.556
636.121
161
623.073
161.106
610.318
160.121
597.881
158.258
585.774
155.707
574.005
152.628
562.577
149.159
551.486
145.414
540.729
141.49
530.297
137.468
520.182
133.41
510.376
129.369
500.868
125.382
491.652
121.478
482.72
117.674
474.067
113.978
465.687
110.393
457.578
106.915
449.738
103.535
442.163
100.245
434.852
97.0345
427.801
93.8931
421.007
90.8129
414.463
87.7876
408.165
84.8136
402.104
81.8893
396.273
79.0153
390.664
76.1937
385.267
73.4277
380.074
70.7211
375.075
68.0776
370.264
65.5006
365.631
62.9924
361.172
60.5544
356.879
58.1865
352.75
55.8872
348.779
53.6537
344.964
51.482
341.303
49.3668
337.795
47.302
334.44
45.2807
331.238
43.2953
328.189
41.3375
325.294
39.3987
322.556
37.4691
319.977
35.54
317.559
33.5947
315.304
31.6481
313.223
29.5752
311.292
27.8441
24.3379
580.005
-194.751
616.715
-338.971
644.007
-366.894
662.638
-335.17
674.84
-283.749
682.541
-232.438
687.105
-187.119
689.306
-148.268
689.052
-113.66
684.923
-77.8608
674.569
-33.1519
658.474
20.9807
641.5
71.0843
629.2
101.373
625.732
104.03
633.595
78.5334
652.868
30.2834
679.135
-27.9325
705.05
-79.3807
725.652
-114.257
739.962
-132.706
749.068
-139.248
754.462
-138.455
757.384
-133.655
758.713
-126.971
759.056
-119.626
758.831
-112.207
758.335
-104.883
757.783
-97.5473
757.322
-89.9479
757.045
-81.7852
756.997
-72.8019
757.19
-62.8637
757.609
-52.0225
758.172
-40.4079
758.593
-27.7004
758.232
-12.538
756.278
6.59308
752.178
29.1984
745.75
53.4514
737.144
77.4236
726.727
99.5671
714.954
118.92
702.267
135.065
689.041
147.981
675.565
157.876
662.047
165.071
648.631
169.921
635.411
172.777
622.446
173.964
609.775
173.778
597.419
172.476
585.392
170.286
573.697
167.402
562.338
163.989
551.309
160.187
540.607
156.116
530.225
151.873
520.153
147.539
510.384
143.179
500.908
138.844
491.719
134.571
482.809
130.388
474.174
126.309
465.809
122.343
457.711
118.491
449.879
114.746
442.311
111.103
435.005
107.551
427.959
104.081
421.169
100.683
414.63
97.3517
408.337
94.081
402.282
90.8686
396.457
87.7141
390.854
84.6187
385.462
81.5851
380.273
78.6165
375.278
75.7165
370.467
72.8884
365.833
70.1347
361.369
67.4569
357.068
64.8553
352.926
62.3287
348.939
59.8746
345.103
57.4891
341.418
55.1673
337.881
52.9031
334.494
50.6898
331.255
48.5197
328.165
46.3847
325.227
44.2762
322.44
42.185
319.809
40.1008
317.334
38.0148
315.019
35.9095
312.867
33.8006
310.885
31.5567
309.054
29.6752
25.8962
587.204
-237.693
622.535
-374.301
647.361
-391.72
663.21
-351.019
672.72
-293.258
678.067
-237.785
680.747
-189.799
681.466
-148.987
679.746
-111.941
673.518
-71.6324
660.478
-20.1112
642.658
38.8008
626.221
87.5214
616.885
110.709
618.606
102.31
633.277
63.863
658.957
4.60365
688.342
-57.3167
713.726
-104.765
732.081
-132.611
743.956
-144.581
751.014
-146.306
754.787
-142.228
756.392
-135.26
756.59
-127.169
755.9
-118.935
754.695
-111.003
753.256
-103.443
751.795
-96.0855
750.467
-88.6197
749.377
-80.6954
748.587
-72.011
748.123
-62.4003
747.989
-51.8879
748.098
-40.5165
748.104
-27.7055
747.25
-11.6839
744.665
9.17784
739.823
34.0414
732.613
60.6618
723.272
86.7644
712.243
110.596
700.026
131.137
687.077
148.014
673.76
161.298
660.341
171.296
647
178.413
633.851
183.07
620.965
185.664
608.38
186.55
596.117
186.041
584.186
184.408
572.589
181.883
561.325
178.666
550.388
174.926
539.772
170.803
529.47
166.419
519.472
161.871
509.77
157.241
500.356
152.594
491.222
147.978
482.362
143.432
473.77
138.979
465.444
134.635
457.381
130.406
449.58
126.292
442.039
122.287
434.759
118.384
427.736
114.574
420.968
110.849
414.451
107.2
408.18
103.623
402.147
100.114
396.344
96.6714
390.762
93.2957
385.392
89.9889
380.224
86.7538
375.246
83.5936
370.452
80.5114
365.83
77.5096
361.375
74.5899
357.08
71.7526
352.938
68.9969
348.947
66.3202
345.102
63.7191
341.403
61.1885
337.847
58.7227
334.436
56.3147
331.168
53.9573
328.046
51.6422
325.07
49.3609
322.242
47.1043
319.564
44.8629
317.038
42.6263
314.668
40.3851
312.456
38.1214
310.405
35.8518
308.523
33.4389
306.79
31.4083
27.3627
594.239
-281.202
627.617
-407.68
649.582
-413.685
662.508
-363.945
669.325
-300.076
672.337
-240.796
673.107
-190.569
672.269
-148.148
668.95
-108.621
660.432
-63.1147
644.981
-4.66016
626.371
57.411
611.59
102.303
606.366
115.933
614.363
94.3138
636.37
41.8563
667.225
-26.2517
697.425
-87.5165
720.74
-128.08
736.344
-148.215
745.855
-154.093
751.13
-151.58
753.57
-144.668
754.119
-135.809
753.406
-126.456
751.87
-117.399
749.844
-108.976
747.593
-101.192
745.33
-93.8231
743.224
-86.5131
741.392
-78.8638
739.913
-70.5315
738.834
-61.3208
738.173
-51.2268
737.835
-40.1778
737.396
-27.267
735.966
-10.2535
732.63
12.5138
726.929
39.7433
718.85
68.7407
708.734
96.8803
697.099
122.232
684.479
143.757
671.329
161.165
657.99
174.637
644.695
184.592
631.588
191.519
618.756
195.902
606.243
198.177
594.069
198.724
582.239
197.871
570.751
195.896
559.599
193.036
548.774
189.491
538.268
185.432
528.071
181
518.174
176.316
508.567
171.479
499.24
166.568
490.187
161.646
481.402
156.764
472.879
151.955
464.615
147.243
456.608
142.642
448.859
138.156
441.365
133.785
434.129
129.524
427.147
125.366
420.419
121.303
413.94
117.327
407.706
113.434
401.711
109.619
395.945
105.88
390.401
102.216
385.067
98.6298
379.933
95.1229
374.989
91.698
370.224
88.3582
365.63
85.1056
361.198
81.9418
356.921
78.8671
352.792
75.8807
348.809
72.9803
344.967
70.1623
341.264
67.4219
337.7
64.753
334.273
62.1491
330.985
59.6026
327.837
57.1054
324.83
54.6491
321.967
52.2247
319.248
49.8228
316.677
47.4337
314.257
45.0465
311.99
42.652
309.88
40.2317
307.928
37.8032
306.144
35.2236
304.506
33.0456
28.7395
601.006
-323.633
631.583
-438.256
650.529
-432.63
660.657
-374.073
665.018
-304.436
665.932
-241.71
664.917
-189.553
662.434
-145.665
657.209
-103.396
646.141
-52.0465
628.639
12.8423
610.2
75.85
598.214
114.29
598.263
115.884
613.51
79.0675
642.472
12.8945
676.306
-60.0852
705.167
-116.377
725.48
-148.392
738.267
-161.002
745.68
-161.505
749.492
-155.391
750.889
-146.065
750.63
-135.55
749.219
-125.044
747.02
-115.201
744.329
-106.285
741.399
-98.2608
738.447
-90.8704
735.652
-83.7179
733.151
-76.3628
731.042
-68.4218
729.392
-59.6711
728.235
-50.0687
727.447
-39.3899
726.51
-26.3294
724.402
-8.1453
720.2
16.7155
713.537
46.4067
704.526
77.7524
693.621
107.786
681.409
134.444
668.444
156.722
655.165
174.444
641.876
187.927
628.769
197.699
615.952
204.336
603.481
208.374
591.374
210.284
579.634
210.464
568.254
209.252
557.22
206.93
546.52
203.735
536.141
199.87
526.07
195.503
516.294
190.776
506.803
185.807
497.588
180.694
488.64
175.516
479.952
170.335
471.519
165.196
463.339
160.135
455.41
155.173
447.731
150.32
440.304
145.583
433.129
140.961
426.205
136.448
419.532
132.039
413.108
127.727
406.926
123.508
400.983
119.378
395.269
115.333
389.775
111.373
384.491
107.5
379.406
103.715
374.508
100.02
369.788
96.4183
365.235
92.9114
360.84
89.501
356.594
86.1871
352.493
82.9689
348.53
79.8439
344.701
76.8085
341.006
73.8577
337.442
70.9856
334.01
68.1852
330.711
65.449
327.544
62.7688
324.513
60.1363
321.62
57.5424
318.867
54.9781
316.256
52.4336
313.791
49.899
311.474
47.3635
309.308
44.8176
307.297
42.2426
305.443
39.6572
303.754
36.913
302.21
34.5896
30.0288
606.235
-365.117
634.375
-466.397
650.431
-448.686
657.803
-381.444
659.837
-306.47
658.908
-240.781
656.378
-187.023
652.357
-141.643
645.022
-96.0607
631.206
-38.2305
612.06
31.9881
594.719
93.1919
586.646
122.362
593.126
109.405
616.224
55.9695
650.65
-21.5306
684.771
-94.2061
710.704
-142.311
727.674
-165.363
737.874
-171.202
743.541
-167.171
746.211
-158.061
746.832
-146.685
745.987
-134.706
744.071
-123.127
741.382
-112.512
738.182
-103.084
734.709
-94.7873
731.182
-87.3437
727.794
-80.3298
724.701
-73.2695
722.024
-65.7443
719.856
-57.5035
718.24
-48.4521
717.005
-38.155
715.501
-24.8248
712.596
-5.24044
707.407
21.9048
699.686
54.1281
689.696
87.7422
678.011
119.472
665.273
147.182
652.038
169.957
638.709
187.773
625.544
201.092
612.688
210.555
600.211
216.813
588.136
220.449
576.462
221.958
565.175
221.752
554.255
220.172
543.682
217.502
533.438
213.98
523.504
209.804
513.866
205.141
504.51
200.132
495.426
194.892
486.602
189.518
478.032
184.086
469.71
178.656
461.634
173.273
453.801
167.968
446.212
162.761
438.868
157.664
431.771
152.681
424.921
147.81
418.319
143.05
411.962
138.396
405.847
133.842
399.968
129.387
394.319
125.027
388.889
120.763
383.668
116.594
378.645
112.523
373.808
108.552
369.146
104.683
364.647
100.917
360.302
97.2567
356.102
93.7012
352.039
90.2496
348.109
86.8992
344.307
83.6461
340.63
80.4851
337.078
77.4101
333.65
74.4137
330.347
71.4882
327.17
68.6254
324.123
65.8165
321.206
63.0528
318.424
60.3249
315.778
57.6236
313.273
54.9392
310.91
52.2616
308.694
49.5798
306.627
46.8844
304.713
44.1566
302.954
41.416
301.358
38.5096
299.904
36.043
31.233
611.153
-405.403
636.59
-491.834
649.464
-461.559
653.856
-385.837
653.492
-306.105
650.829
-238.118
647.013
-183.207
641.613
-136.243
632.104
-86.5508
615.698
-21.8238
595.656
52.0296
580.441
108.408
577.439
125.364
591.373
95.4715
621.914
25.4285
659.327
-58.943
691.388
-126.267
713.572
-164.494
727.316
-179.107
735.311
-179.196
739.598
-171.458
741.42
-159.883
741.495
-146.76
740.257
-133.468
738.006
-120.875
734.984
-109.49
731.419
-99.519
727.536
-90.904
723.554
-83.3612
719.674
-76.4497
716.072
-69.6666
712.894
-62.566
710.264
-54.8737
708.233
-46.4209
706.564
-36.4856
704.432
-22.6922
700.601
-1.40923
694.286
28.2201
685.413
63.0017
674.417
98.7388
661.982
131.907
648.789
160.375
635.369
183.377
622.074
201.069
609.105
214.062
596.558
223.103
584.463
228.909
572.815
232.097
561.594
233.179
550.771
232.575
540.318
230.626
530.207
227.613
520.417
223.771
510.927
219.295
501.719
214.349
492.779
209.071
484.097
203.575
475.662
197.953
467.469
192.279
459.514
186.611
451.795
180.992
444.313
175.45
437.069
170.005
430.066
164.668
423.304
159.442
416.786
154.329
410.51
149.326
404.474
144.432
398.673
139.643
393.101
134.96
387.747
130.381
382.601
125.908
377.653
121.543
372.889
117.287
368.297
113.144
363.866
109.114
359.584
105.199
355.442
101.399
351.431
97.7115
347.547
94.1344
343.783
90.6633
340.136
87.2924
336.606
84.0152
333.192
80.824
329.895
77.7107
326.717
74.6664
323.66
71.6823
320.728
68.7494
317.922
65.8583
315.247
62.9999
312.706
60.1646
310.302
57.3428
308.04
54.5243
305.921
51.6982
303.951
48.8552
302.131
45.9762
300.465
43.0825
298.958
40.0159
297.593
37.4083
32.3543
615.759
-444.251
638.207
-514.282
647.642
-470.994
648.882
-387.077
646.027
-303.25
641.63
-233.721
636.619
-178.196
629.941
-129.565
618.226
-74.8349
599.663
-3.26097
579.816
71.8766
567.905
120.319
571.111
122.159
593.126
73.4563
629.553
-10.9975
667.037
-96.4276
695.441
-154.67
713.703
-182.756
724.595