/*--------------------------------*- C++ -*----------------------------------*\
| =========                 |                                                 |
| \\      /  F ield         | OpenFOAM: The Open Source CFD Toolbox           |
|  \\    /   O peration     | Version:  4.1                                   |
|   \\  /    A nd           | Web:      www.OpenFOAM.org                      |
|    \\/     M anipulation  |                                                 |
\*---------------------------------------------------------------------------*/
FoamFile
{
    version     2.0;
    format      ascii;
    class       volVectorField;
    location    "200";
    object      U;
}
// * * * * * * * * * * * * * * * * * * * * * * * * * * * * * * * * * * * * * //

dimensions      [0 1 -1 0 0 0 0];

internalField   nonuniform List<vector> 
26785
(
(-2.69741e-15 0.0226952 3.74308)
(-2.64282e-15 0.00935027 3.43499)
(-2.58382e-15 0.00206567 3.33175)
(-2.53307e-15 -0.00143833 3.3363)
(-2.46737e-15 -0.00246257 3.37923)
(-2.40865e-15 -0.00225707 3.42434)
(-2.29897e-15 -0.0016093 3.45779)
(-2.17888e-15 -0.000901281 3.47724)
(-1.95641e-15 -0.000258757 3.48422)
(-1.85373e-15 0.000350668 3.48093)
(-1.70295e-15 0.00104308 3.46852)
(-1.52168e-15 0.00194515 3.44603)
(-1.33738e-15 0.00312215 3.41035)
(-1.15374e-15 0.00452436 3.35738)
(-9.83149e-16 0.00596979 3.28416)
(-8.29656e-16 0.00718777 3.19148)
(-6.88684e-16 0.00790863 3.08477)
(-5.70937e-16 0.00796918 2.97274)
(-4.38996e-16 0.00735512 2.86487)
(-4.53091e-16 0.00620006 2.76928)
(-4.08049e-16 0.00475126 2.69128)
(-3.03179e-16 0.0032545 2.63318)
(-3.60148e-16 0.0018492 2.59506)
(-3.14077e-16 0.000613284 2.57526)
(-2.57883e-16 -0.00039092 2.57068)
(-2.4033e-16 -0.00112187 2.57733)
(-2.40549e-16 -0.00156425 2.59105)
(-2.07121e-16 -0.00172509 2.60803)
(-2.76587e-16 -0.00162484 2.62507)
(-3.9749e-16 -0.0012896 2.63958)
(-4.82512e-16 -0.000748144 2.64953)
(-4.56629e-16 -3.39146e-05 2.6533)
(-4.75462e-16 0.000809401 2.64974)
(-3.32866e-16 0.00172188 2.63811)
(-5.31374e-16 0.0026245 2.61824)
(-6.28912e-16 0.00342936 2.59073)
(-6.78346e-16 0.00408216 2.55687)
(-7.34653e-16 0.00460678 2.51801)
(-7.63815e-16 0.00506003 2.47503)
(-8.51786e-16 0.00546807 2.42844)
(-6.65709e-16 0.00583332 2.37871)
(-6.25053e-16 0.00615501 2.32631)
(-5.84301e-16 0.00643342 2.27173)
(-8.63907e-16 0.00666987 2.21545)
(-8.9675e-16 0.00686596 2.1579)
(-1.18909e-15 0.00702302 2.09951)
(-1.31117e-15 0.00714208 2.04065)
(-1.34528e-15 0.00722407 1.98168)
(-1.35884e-15 0.00727014 1.92294)
(-1.45372e-15 0.00728184 1.86471)
(-1.23209e-15 0.00726124 1.80728)
(-1.218e-15 0.00721094 1.75088)
(-1.26433e-15 0.00713392 1.6957)
(-1.29793e-15 0.00703346 1.6419)
(-1.34182e-15 0.00691297 1.58963)
(-1.29957e-15 0.00677582 1.53897)
(-1.62271e-15 0.00662531 1.49)
(-1.72843e-15 0.00646451 1.44275)
(-1.71822e-15 0.00629628 1.39726)
(-1.78901e-15 0.00612321 1.35351)
(-1.83279e-15 0.0059476 1.3115)
(-1.90714e-15 0.00577149 1.27118)
(-1.86143e-15 0.00559663 1.23253)
(-2.17638e-15 0.00542446 1.19548)
(-2.26056e-15 0.00525613 1.15997)
(-2.25742e-15 0.00509246 1.12596)
(-2.27039e-15 0.00493397 1.09336)
(-2.28117e-15 0.00478091 1.06211)
(-2.33924e-15 0.00463323 1.03216)
(-2.31466e-15 0.0044907 1.00344)
(-2.72021e-15 0.00435292 0.975899)
(-2.94022e-15 0.00421942 0.949477)
(-3.04068e-15 0.00408968 0.92413)
(-3.14001e-15 0.00396326 0.899814)
(-3.33228e-15 0.00383975 0.876489)
(-3.17292e-15 0.00371889 0.85412)
(-3.21506e-15 0.00360053 0.832673)
(-3.33519e-15 0.00348464 0.812114)
(-3.46636e-15 0.00337129 0.792412)
(-3.60229e-15 0.00326066 0.773535)
(-3.6228e-15 0.00315296 0.755453)
(-4.06101e-15 0.00304842 0.738132)
(-4.30922e-15 0.00294728 0.721541)
(-4.34471e-15 0.00284972 0.705648)
(-4.78135e-15 0.00275588 0.69042)
(-4.9847e-15 0.0026658 0.675824)
(-5.09963e-15 0.00257945 0.66183)
(-5.18932e-15 0.00249673 0.648407)
(-5.29246e-15 0.00241744 0.635528)
(-5.41725e-15 0.00234131 0.623165)
(-5.50821e-15 0.00226803 0.611294)
(-5.5801e-15 0.0021972 0.599892)
(-5.65341e-15 0.00212844 0.588944)
(-5.78249e-15 0.00206125 0.578417)
(-5.83131e-15 0.00199519 0.568344)
(-6.29332e-15 0.00192972 0.55858)
(-6.50501e-15 0.00186378 0.549494)
(-6.64793e-15 0.00179792 0.540025)
(-6.75985e-15 0.00172548 0.533186)
(-6.94848e-15 0.00163366 0.521018)
(-2.73954e-15 0.0560439 3.83568)
(-2.66667e-15 0.0262228 3.59914)
(-2.65955e-15 0.00776499 3.53083)
(-2.64872e-15 -0.00224375 3.55143)
(-2.61414e-15 -0.00552332 3.59829)
(-2.59664e-15 -0.00516507 3.63971)
(-2.48749e-15 -0.00339386 3.66528)
(-2.31159e-15 -0.00135623 3.6745)
(-2.21343e-15 0.000493257 3.66977)
(-2.0753e-15 0.00212867 3.654)
(-1.90678e-15 0.0037996 3.62946)
(-1.72316e-15 0.00590579 3.59674)
(-1.53299e-15 0.00882784 3.55391)
(-1.31106e-15 0.0126744 3.49672)
(-1.21713e-15 0.0170396 3.42059)
(-1.07793e-15 0.0210246 3.32526)
(-7.90731e-16 0.0236883 3.2161)
(-6.06872e-16 0.0244874 3.10163)
(-4.82612e-16 0.0233563 2.99101)
(-3.23016e-16 0.0206196 2.89184)
(-3.60004e-16 0.0168188 2.80921)
(-1.66926e-16 0.0124596 2.74617)
(-1.38426e-16 0.00798416 2.70473)
(-9.0077e-17 0.00384374 2.68342)
(-2.25995e-17 0.000432485 2.67801)
(1.59132e-17 -0.00202621 2.68316)
(2.6466e-17 -0.00349408 2.69383)
(2.6287e-17 -0.00405512 2.70607)
(4.68841e-17 -0.00384035 2.71704)
(-6.3606e-17 -0.00297894 2.72478)
(-9.26566e-17 -0.00158096 2.72798)
(-9.52948e-17 0.000257387 2.72574)
(-1.20876e-16 0.00243643 2.71743)
(-1.24366e-16 0.00483098 2.70268)
(-2.45632e-16 0.00726908 2.68138)
(-2.9628e-16 0.00953925 2.65387)
(-3.30118e-16 0.0114928 2.62097)
(-3.70589e-16 0.0131701 2.58336)
(-4.12939e-16 0.0146889 2.54151)
(-4.47687e-16 0.0160918 2.49572)
(-5.50419e-16 0.0173671 2.44631)
(-3.72046e-16 0.0185005 2.39369)
(-3.77437e-16 0.0194854 2.33838)
(-3.06306e-16 0.0203215 2.28087)
(-3.38946e-16 0.0210121 2.2217)
(-3.55917e-16 0.0215617 2.16137)
(-6.57006e-16 0.0219752 2.10036)
(-7.70518e-16 0.0222582 2.03913)
(-1.15608e-15 0.0224174 1.97807)
(-9.57816e-16 0.0224607 1.91757)
(-1.19951e-15 0.0223976 1.85792)
(-1.3461e-15 0.0222384 1.79939)
(-1.3084e-15 0.0219945 1.74221)
(-1.66759e-15 0.0216775 1.68654)
(-1.51448e-15 0.021299 1.63251)
(-1.33679e-15 0.0208701 1.58022)
(-1.59159e-15 0.0204012 1.52973)
(-1.80988e-15 0.0199022 1.48108)
(-1.54362e-15 0.0193817 1.43426)
(-1.50076e-15 0.0188475 1.38927)
(-1.4513e-15 0.0183067 1.34609)
(-1.75336e-15 0.0177651 1.30467)
(-1.94667e-15 0.017228 1.26497)
(-1.68099e-15 0.0166994 1.22692)
(-1.61393e-15 0.0161828 1.19047)
(-1.62247e-15 0.0156804 1.15554)
(-1.67323e-15 0.0151938 1.12206)
(-1.55267e-15 0.0147237 1.08998)
(-2.24853e-15 0.0142698 1.05923)
(-2.50904e-15 0.0138316 1.02974)
(-2.48974e-15 0.0134079 1.00146)
(-2.89745e-15 0.0129974 0.974328)
(-3.0249e-15 0.0125985 0.948305)
(-3.15967e-15 0.01221 0.923343)
(-2.83926e-15 0.0118306 0.899401)
(-3.16292e-15 0.0114596 0.876442)
(-3.33355e-15 0.0110964 0.854429)
(-3.35676e-15 0.0107411 0.833328)
(-3.45575e-15 0.0103937 0.813107)
(-3.62436e-15 0.0100546 0.793732)
(-3.66604e-15 0.00972457 0.77517)
(-4.04359e-15 0.00940414 0.757388)
(-4.29521e-15 0.00909397 0.740352)
(-4.06238e-15 0.00879463 0.724029)
(-3.97224e-15 0.00850647 0.708386)
(-4.30959e-15 0.00822968 0.69339)
(-4.81209e-15 0.00796417 0.679009)
(-5.06178e-15 0.00770964 0.665213)
(-4.8389e-15 0.00746555 0.651973)
(-4.8197e-15 0.00723112 0.639262)
(-4.8619e-15 0.00700543 0.627055)
(-4.98018e-15 0.00678736 0.615329)
(-4.9321e-15 0.00657568 0.604068)
(-5.67355e-15 0.00636909 0.59324)
(-5.96277e-15 0.00616598 0.582877)
(-6.02318e-15 0.00596523 0.572835)
(-6.45082e-15 0.00576314 0.563478)
(-6.64143e-15 0.00556093 0.553747)
(-6.75249e-15 0.00535053 0.546677)
(-6.92404e-15 0.00505336 0.534148)
(-2.77146e-15 0.0827968 3.90302)
(-2.7985e-15 0.0366816 3.749)
(-2.84999e-15 0.00856717 3.74846)
(-2.84626e-15 -0.00540242 3.8099)
(-2.80013e-15 -0.00864128 3.8725)
(-2.75472e-15 -0.00660413 3.91366)
(-2.60121e-15 -0.00284062 3.9304)
(-2.45928e-15 0.00101104 3.9262)
(-2.31505e-15 0.00436675 3.9052)
(-2.1413e-15 0.00722099 3.871)
(-1.9511e-15 0.0099425 3.82637)
(-1.75106e-15 0.0131663 3.77257)
(-1.54533e-15 0.017606 3.70855)
(-1.33671e-15 0.0235809 3.63096)
(-1.09741e-15 0.0304617 3.53609)
(-1.02339e-15 0.0367007 3.42536)
(-7.32843e-16 0.0407395 3.30531)
(-6.35898e-16 0.0417292 3.18464)
(-4.58428e-16 0.0396043 3.07228)
(-3.86961e-16 0.0349131 2.97563)
(-3.39579e-16 0.0284449 2.89956)
(6.14711e-18 0.0208838 2.8468)
(1.97734e-16 0.0131224 2.81758)
(1.71763e-16 0.00620386 2.80731)
(2.39857e-16 0.000878156 2.80911)
(2.08308e-16 -0.00260054 2.81652)
(9.87234e-17 -0.00436186 2.82482)
(8.7044e-17 -0.00470475 2.83112)
(1.05121e-16 -0.00393757 2.83381)
(1.18033e-16 -0.00230815 2.83207)
(1.14429e-16 3.19545e-06 2.82548)
(1.42993e-16 0.00285983 2.81381)
(9.15526e-17 0.00613471 2.79696)
(4.99396e-18 0.00967405 2.7749)
(-3.7117e-17 0.0132623 2.74774)
(-7.50131e-17 0.0166299 2.71586)
(-1.22486e-16 0.0195982 2.67988)
(-1.66361e-16 0.0222473 2.64014)
(-1.99909e-16 0.0247401 2.59673)
(-2.35145e-16 0.0271134 2.54968)
(-2.82793e-16 0.029325 2.4991)
(-3.2662e-16 0.0313294 2.44524)
(-3.76888e-16 0.0330957 2.38849)
(-4.25581e-16 0.0346068 2.32931)
(-4.7556e-16 0.0358564 2.26822)
(-5.15363e-16 0.036845 2.20579)
(-5.66713e-16 0.0375786 2.14255)
(-6.1228e-16 0.0380677 2.07903)
(-6.79357e-16 0.0383272 2.0157)
(-7.28747e-16 0.038375 1.95299)
(-7.91069e-16 0.038232 1.89124)
(-8.65542e-16 0.0379204 1.83075)
(-9.21454e-16 0.0374632 1.77176)
(-1.00842e-15 0.0368829 1.71443)
(-1.01422e-15 0.0362014 1.65889)
(-1.30935e-15 0.0354386 1.60524)
(-1.47906e-15 0.0346133 1.55351)
(-1.23477e-15 0.0337418 1.50373)
(-1.21648e-15 0.0328391 1.45589)
(-1.15258e-15 0.0319179 1.40996)
(-1.13709e-15 0.0309896 1.36592)
(-1.18021e-15 0.0300637 1.3237)
(-1.2308e-15 0.0291482 1.28325)
(-1.2636e-15 0.0282496 1.2445)
(-1.28789e-15 0.0273729 1.20739)
(-1.34737e-15 0.0265215 1.17183)
(-1.1207e-15 0.0256974 1.13776)
(-1.08212e-15 0.0249013 1.10512)
(-1.15974e-15 0.0241329 1.07382)
(-1.24319e-15 0.0233907 1.04382)
(-1.31261e-15 0.0226729 1.01505)
(-1.48317e-15 0.021977 0.987453)
(-1.41247e-15 0.0213008 0.960991)
(-1.1892e-15 0.0206421 0.935615)
(-1.19819e-15 0.019999 0.911282)
(-1.33049e-15 0.0193704 0.887954)
(-1.49889e-15 0.0187555 0.865593)
(-1.66732e-15 0.0181542 0.844164)
(-1.84857e-15 0.0175668 0.823632)
(-2.0365e-15 0.016994 0.803963)
(-2.2304e-15 0.0164369 0.78512)
(-2.32743e-15 0.0158963 0.76707)
(-2.80899e-15 0.0153733 0.749778)
(-3.05442e-15 0.0148688 0.733208)
(-3.17461e-15 0.0143832 0.717327)
(-3.2803e-15 0.0139168 0.702101)
(-3.3837e-15 0.0134693 0.687498)
(-3.52408e-15 0.0130403 0.673487)
(-3.55923e-15 0.0126287 0.660038)
(-3.96291e-15 0.0122332 0.647125)
(-4.17437e-15 0.0118522 0.634722)
(-4.22746e-15 0.011484 0.622806)
(-4.64584e-15 0.0111264 0.611362)
(-4.84271e-15 0.0107774 0.600357)
(-5.00258e-15 0.0104341 0.589823)
(-5.05594e-15 0.0100946 0.579616)
(-5.5151e-15 0.00975468 0.570101)
(-5.72811e-15 0.00940864 0.560211)
(-5.85014e-15 0.00907875 0.553011)
(-6.04103e-15 0.0085409 0.540252)
(-2.82212e-15 0.102408 3.96766)
(-2.89233e-15 0.0410433 3.89397)
(-2.9662e-15 0.00534173 3.95128)
(-2.98284e-15 -0.0101506 4.03981)
(-2.93971e-15 -0.0116224 4.10826)
(-2.83697e-15 -0.00694646 4.14473)
(-2.69935e-15 -0.000669377 4.15209)
(-2.56942e-15 0.00533531 4.13608)
(-2.40913e-15 0.0104813 4.10147)
(-2.21927e-15 0.0148255 4.05204)
(-2.02077e-15 0.0188469 3.99056)
(-1.80448e-15 0.0233871 3.91823)
(-1.60405e-15 0.0294595 3.83388)
(-1.28308e-15 0.0375145 3.73413)
(-1.01272e-15 0.046588 3.61674)
(-7.88642e-16 0.0544394 3.48725)
(-6.12173e-16 0.0590495 3.35482)
(-3.22858e-16 0.059387 3.22913)
(-2.63119e-16 0.055439 3.11882)
(-1.57325e-16 0.0480194 3.03031)
(-5.84041e-17 0.0381889 2.96689)
(1.63303e-16 0.0270463 2.92949)
(2.76556e-16 0.0161981 2.91435)
(3.21047e-16 0.00722373 2.91332)
(3.44244e-16 0.000926372 2.91829)
(3.57381e-16 -0.00270323 2.9236)
(3.4503e-16 -0.00411395 2.9262)
(3.3766e-16 -0.00384241 2.92478)
(3.37524e-16 -0.00233238 2.91899)
(3.18396e-16 0.000106721 2.90881)
(3.81791e-16 0.00327307 2.89433)
(4.87831e-16 0.00702429 2.87561)
(4.88975e-16 0.0112286 2.85269)
(5.12987e-16 0.0157183 2.82561)
(3.78452e-16 0.0202464 2.79445)
(5.69909e-16 0.0245044 2.75952)
(3.84099e-16 0.0283115 2.72124)
(1.91659e-16 0.031801 2.67961)
(3.9937e-16 0.0351732 2.63449)
(2.5969e-16 0.0384547 2.58581)
(1.28241e-16 0.0415726 2.5336)
(1.92793e-16 0.0444468 2.47806)
(1.95692e-16 0.0470141 2.41954)
(-1.09543e-16 0.0492314 2.3585)
(-2.55098e-16 0.0510729 2.29548)
(-4.06754e-16 0.052528 2.23107)
(-2.98669e-16 0.0535988 2.16585)
(-7.8996e-17 0.0542992 2.10039)
(-3.24297e-17 0.054652 2.03522)
(-3.69501e-16 0.0546874 1.97077)
(-4.62786e-16 0.0544402 1.90743)
(-8.40644e-16 0.053947 1.8455)
(-7.52009e-16 0.053245 1.78521)
(-5.14357e-16 0.0523697 1.72675)
(-4.9165e-16 0.0513545 1.67022)
(-4.84565e-16 0.0502296 1.61569)
(-9.07951e-16 0.0490221 1.5632)
(-7.24082e-16 0.0477559 1.51276)
(-7.71795e-16 0.0464516 1.46434)
(-5.2332e-16 0.0451272 1.41791)
(-5.83685e-16 0.0437979 1.37341)
(-3.51688e-16 0.0424765 1.33079)
(-3.24325e-16 0.0411736 1.28997)
(-3.78312e-16 0.0398975 1.25088)
(-5.02803e-16 0.0386544 1.21345)
(-2.65056e-16 0.0374485 1.1776)
(-2.6738e-16 0.0362821 1.14325)
(-6.83858e-16 0.0351556 1.11034)
(-8.05061e-16 0.034068 1.0788)
(-9.34303e-16 0.0330174 1.04856)
(-7.19702e-16 0.0320008 1.01957)
(-7.88828e-16 0.0310149 0.991784)
(-4.66393e-16 0.0300566 0.965141)
(-6.93696e-16 0.029123 0.939599)
(-1.28029e-15 0.0282117 0.915118)
(-1.07139e-15 0.0273212 0.891658)
(-1.05447e-15 0.0264506 0.86918)
(-9.23288e-16 0.0255998 0.847646)
(-1.033e-15 0.0247694 0.827021)
(-1.1705e-15 0.0239603 0.807267)
(-1.30207e-15 0.0231739 0.788348)
(-1.43597e-15 0.0224116 0.770228)
(-1.58932e-15 0.0216746 0.752869)
(-1.8182e-15 0.020964 0.736236)
(-1.98434e-15 0.0202804 0.720294)
(-2.18783e-15 0.0196239 0.705008)
(-2.02507e-15 0.0189942 0.690344)
(-2.14171e-15 0.0183904 0.676273)
(-2.20625e-15 0.017811 0.662765)
(-2.78061e-15 0.0172542 0.649792)
(-2.66804e-15 0.0167178 0.637331)
(-2.95881e-15 0.0161991 0.625358)
(-3.49866e-15 0.0156952 0.613859)
(-3.72993e-15 0.015203 0.6028)
(-4.00891e-15 0.0147192 0.592214)
(-3.84344e-15 0.0142398 0.581958)
(-4.0864e-15 0.0137635 0.572398)
(-3.61883e-15 0.013269 0.562463)
(-3.63869e-15 0.012833 0.555228)
(-3.89362e-15 0.012036 0.542408)
(-2.88729e-15 0.115777 4.03263)
(-2.98865e-15 0.0403153 4.03131)
(-3.07668e-15 -0.0008004 4.12823)
(-3.09988e-15 -0.0157049 4.22606)
(-3.04324e-15 -0.0142408 4.28934)
(-2.99772e-15 -0.00643925 4.31599)
(-2.84348e-15 0.00255855 4.31247)
(-2.68399e-15 0.0108557 4.28528)
(-2.50362e-15 0.0179369 4.23921)
(-2.30802e-15 0.0239418 4.17792)
(-2.10898e-15 0.029483 4.10391)
(-1.8716e-15 0.0356599 4.01767)
(-1.62173e-15 0.0437769 3.91687)
(-1.34504e-15 0.0542065 3.79723)
(-1.02843e-15 0.0652813 3.65963)
(-8.52947e-16 0.0740098 3.51447)
(-6.43822e-16 0.0781473 3.37354)
(-4.40018e-16 0.0767236 3.24728)
(-2.83539e-16 0.0699945 3.14368)
(-1.48035e-16 0.0591637 3.06741)
(-4.94494e-17 0.0455755 3.01946)
(1.52857e-16 0.0310081 2.99756)
(2.71403e-16 0.0178112 2.99321)
(3.42397e-16 0.00776372 2.99619)
(3.70107e-16 0.00135985 2.9992)
(4.04885e-16 -0.00184121 2.99864)
(2.87554e-16 -0.00260609 2.99342)
(3.54631e-16 -0.00163646 2.98366)
(3.88549e-16 0.000565581 2.96985)
(3.7568e-16 0.00368699 2.95245)
(3.60116e-16 0.00754218 2.93176)
(3.42776e-16 0.0120061 2.90792)
(3.00652e-16 0.0169567 2.88096)
(4.04023e-16 0.0222237 2.85087)
(3.08346e-16 0.0275419 2.81762)
(2.60258e-16 0.0325831 2.78134)
(2.62361e-16 0.0371825 2.7422)
(2.78246e-16 0.0415224 2.69987)
(3.11569e-16 0.045812 2.65396)
(3.43511e-16 0.0500454 2.6043)
(3.41757e-16 0.0541092 2.55088)
(3.75833e-16 0.0578844 2.49392)
(1.5644e-16 0.0612743 2.43383)
(4.56425e-17 0.0642091 2.37112)
(-1.90076e-17 0.0666439 2.30641)
(-1.02629e-16 0.0685571 2.24034)
(-1.71862e-16 0.069948 2.17354)
(-2.32267e-16 0.0708347 2.10661)
(-2.04781e-16 0.0712503 2.04011)
(-5.11018e-16 0.0712389 1.97449)
(-5.62614e-16 0.0708512 1.91013)
(-8.63549e-16 0.0701403 1.84734)
(-9.64016e-16 0.0691588 1.78634)
(-9.64721e-16 0.0679565 1.72728)
(-1.02103e-15 0.0665789 1.67028)
(-7.45405e-16 0.0650669 1.61538)
(-6.87723e-16 0.0634561 1.5626)
(-6.37173e-16 0.0617777 1.51194)
(-9.55408e-16 0.060058 1.46336)
(-9.44193e-16 0.0583196 1.4168)
(-1.24238e-15 0.0565815 1.37222)
(-1.11679e-15 0.0548592 1.32953)
(-9.48795e-16 0.0531654 1.28866)
(-8.85669e-16 0.0515098 1.24953)
(-6.95634e-16 0.0498994 1.21207)
(-1.24956e-15 0.0483388 1.17619)
(-1.26109e-15 0.0468299 1.14182)
(-1.43988e-15 0.0453728 1.10889)
(-1.38859e-15 0.0439658 1.07734)
(-1.72324e-15 0.0426058 1.0471)
(-1.76481e-15 0.0412891 1.01811)
(-1.82357e-15 0.0400115 0.990335)
(-1.35547e-15 0.0387691 0.963712)
(-1.55062e-15 0.0375585 0.938202)
(-1.81348e-15 0.0363768 0.913761)
(-1.89803e-15 0.0352225 0.89035)
(-2.27818e-15 0.0340946 0.86793)
(-1.98128e-15 0.0329932 0.846461)
(-1.95919e-15 0.0319192 0.825904)
(-1.67292e-15 0.030874 0.806222)
(-1.46294e-15 0.029859 0.787376)
(-2.15164e-15 0.0288762 0.769328)
(-2.40303e-15 0.0279268 0.75204)
(-2.44248e-15 0.0270122 0.735474)
(-2.83844e-15 0.0261328 0.719594)
(-2.96942e-15 0.0252888 0.704366)
(-2.99407e-15 0.0244793 0.689756)
(-2.99219e-15 0.0237031 0.675733)
(-3.06151e-15 0.0229583 0.662269)
(-2.77932e-15 0.0222422 0.649336)
(-2.77346e-15 0.021552 0.636912)
(-2.76832e-15 0.0208841 0.624974)
(-3.18582e-15 0.020235 0.613507)
(-3.36617e-15 0.0196006 0.60248)
(-3.55589e-15 0.0189769 0.591926)
(-3.40364e-15 0.0183576 0.581702)
(-3.17753e-15 0.0177453 0.572174)
(-2.99902e-15 0.0171016 0.562274)
(-3.86076e-15 0.0165611 0.555069)
(-3.3096e-15 0.0155019 0.542307)
(-2.98645e-15 0.123797 4.10948)
(-3.10562e-15 0.0358828 4.16176)
(-3.19589e-15 -0.0080626 4.274)
(-3.20297e-15 -0.0208087 4.36656)
(-3.1387e-15 -0.0159333 4.41847)
(-3.04404e-15 -0.00499081 4.43312)
(-2.93671e-15 0.00665144 4.41819)
(-2.76343e-15 0.0171841 4.38023)
(-2.54261e-15 0.0261795 4.32396)
(-2.39514e-15 0.0338674 4.25298)
(-2.22864e-15 0.0410458 4.16935)
(-1.91354e-15 0.0491623 4.07238)
(-1.61146e-15 0.0597636 3.95782)
(-1.31066e-15 0.0728292 3.82079)
(-1.00686e-15 0.0855946 3.66758)
(-7.47859e-16 0.0944464 3.51248)
(-5.10365e-16 0.0971445 3.36909)
(-4.24448e-16 0.0929967 3.24796)
(-3.19503e-16 0.082732 3.15586)
(-1.01452e-16 0.0679933 3.09531)
(1.42763e-16 0.0505531 3.06463)
(2.37169e-16 0.0331465 3.05662)
(3.59075e-16 0.0186228 3.05889)
(5.005e-16 0.00848682 3.06134)
(4.49575e-16 0.00265351 3.05897)
(4.19731e-16 0.000224933 3.0506)
(3.91966e-16 0.000202397 3.03687)
(3.43989e-16 0.00181409 3.01886)
(3.39823e-16 0.00456831 2.99759)
(2.18906e-16 0.00819043 2.97372)
(2.12866e-16 0.0125354 2.94764)
(1.42706e-16 0.0175101 2.91951)
(1.15549e-16 0.0230127 2.88933)
(8.03818e-17 0.0288785 2.857)
(1.52613e-16 0.0348332 2.8224)
(2.83799e-16 0.0405441 2.7855)
(3.08243e-16 0.0458802 2.74623)
(3.28225e-16 0.0510752 2.7039)
(3.45451e-16 0.0563303 2.65785)
(4.08842e-16 0.0615845 2.60776)
(2.61025e-16 0.0666653 2.55358)
(1.18309e-17 0.0714012 2.49557)
(3.75428e-17 0.0756553 2.43421)
(-1.79837e-16 0.0793291 2.37013)
(-2.51089e-16 0.0823608 2.30405)
(-2.61353e-16 0.0847211 2.23668)
(-2.83872e-16 0.0864106 2.16872)
(-3.29452e-16 0.0874558 2.10081)
(-3.69715e-16 0.0879031 2.03349)
(-4.41202e-16 0.0878134 1.96723)
(-5.09699e-16 0.0872549 1.9024)
(-6.03157e-16 0.0862985 1.83928)
(-7.08463e-16 0.0850131 1.77808)
(-8.07981e-16 0.0834629 1.71893)
(-9.05899e-16 0.0817059 1.66192)
(-9.44253e-16 0.0797932 1.60709)
(-9.72521e-16 0.0777691 1.55443)
(-8.99666e-16 0.0756714 1.50392)
(-1.20211e-15 0.073532 1.45552)
(-1.25941e-15 0.0713777 1.40917)
(-1.34582e-15 0.0692308 1.36479)
(-1.05872e-15 0.0671091 1.32232)
(-9.63131e-16 0.0650271 1.28166)
(-9.54252e-16 0.0629955 1.24274)
(-9.77276e-16 0.0610216 1.20547)
(-1.23551e-15 0.05911 1.16979)
(-1.52667e-15 0.0572622 1.1356)
(-1.94971e-15 0.0554776 1.10285)
(-1.92064e-15 0.0537535 1.07147)
(-2.25502e-15 0.052086 1.0414)
(-2.23838e-15 0.0504703 1.01259)
(-2.2646e-15 0.0489017 0.984987)
(-2.27544e-15 0.0473755 0.958542)
(-2.47476e-15 0.0458878 0.933213)
(-1.88222e-15 0.0444359 0.908958)
(-1.76037e-15 0.043018 0.885735)
(-1.97304e-15 0.0416335 0.863505)
(-1.77961e-15 0.0402826 0.842226)
(-1.86173e-15 0.0389667 0.821859)
(-1.96919e-15 0.0376873 0.802363)
(-2.00536e-15 0.0364465 0.783699)
(-2.09835e-15 0.0352462 0.765825)
(-2.02898e-15 0.034088 0.748704)
(-1.39652e-15 0.032973 0.732297)
(-1.55344e-15 0.0319018 0.716568)
(-2.42252e-15 0.030874 0.701481)
(-2.71681e-15 0.0298886 0.687003)
(-2.83001e-15 0.0289437 0.673104)
(-2.92902e-15 0.0280367 0.659756)
(-2.96519e-15 0.0271644 0.646933)
(-2.95399e-15 0.026323 0.634612)
(-2.88737e-15 0.0255083 0.622772)
(-3.25774e-15 0.0247159 0.6114)
(-3.4422e-15 0.0239408 0.600465)
(-3.22461e-15 0.0231784 0.590001)
(-2.8779e-15 0.0224203 0.579866)
(-2.82331e-15 0.0216728 0.570426)
(-2.92033e-15 0.0208807 0.560619)
(-2.58499e-15 0.0202343 0.553485)
(-1.63448e-15 0.0189166 0.540863)
(-3.0726e-15 0.124017 4.17147)
(-3.22981e-15 0.0288707 4.26079)
(-3.3231e-15 -0.0155529 4.38231)
(-3.30309e-15 -0.0252668 4.46905)
(-3.21247e-15 -0.0167873 4.51025)
(-3.12443e-15 -0.00272019 4.51313)
(-3.00733e-15 0.0115033 4.48659)
(-2.84943e-15 0.0241925 4.43764)
(-2.67429e-15 0.0350175 4.37133)
(-2.52119e-15 0.0443312 4.29122)
(-2.32273e-15 0.0532211 4.19874)
(-2.07118e-15 0.0635821 4.09161)
(-1.78605e-15 0.077047 3.96354)
(-1.45667e-15 0.0927757 3.81116)
(-1.09301e-15 0.106701 3.64699)
(-8.96715e-16 0.114828 3.48796)
(-7.12688e-16 0.115147 3.34836)
(-4.26584e-16 0.107446 3.23804)
(-2.54818e-16 0.0930833 3.16215)
(3.23854e-17 0.0741438 3.12057)
(1.22394e-16 0.0532333 3.10782)
(1.8429e-16 0.0340164 3.11073)
(3.14894e-16 0.0193212 3.11528)
(3.72367e-16 0.00994489 3.11362)
(3.73882e-16 0.00513159 3.1038)
(3.71279e-16 0.00362361 3.08684)
(2.65093e-16 0.00431337 3.06461)
(1.07691e-16 0.00644594 3.03879)
(1.93034e-16 0.00958851 3.01061)
(1.26509e-16 0.0135286 2.98084)
(1.02588e-16 0.0181727 2.94986)
(1.04791e-16 0.0234659 2.91781)
(1.03266e-16 0.0293315 2.88468)
(1.0555e-16 0.035617 2.85031)
(9.96441e-17 0.0420493 2.8145)
(1.23716e-16 0.0483097 2.77711)
(1.43411e-16 0.0543216 2.73788)
(1.65672e-16 0.0603767 2.69574)
(1.84111e-16 0.0666509 2.64977)
(2.83667e-16 0.0730035 2.59948)
(1.07232e-16 0.0791796 2.54474)
(1.05211e-16 0.0849392 2.48586)
(-7.53009e-17 0.0900954 2.42344)
(-1.56898e-16 0.0945202 2.35823)
(-1.75808e-16 0.0981379 2.29105)
(-1.78975e-16 0.100918 2.22272)
(-2.60764e-16 0.10287 2.15399)
(-1.02853e-16 0.104033 2.08551)
(7.58379e-17 0.104472 2.01783)
(4.60088e-16 0.104267 1.95139)
(7.83335e-16 0.103506 1.88656)
(1.17693e-15 0.102279 1.82357)
(1.05061e-15 0.100669 1.76261)
(7.86257e-16 0.0987556 1.70379)
(5.28741e-16 0.0966088 1.64717)
(3.02535e-16 0.0942892 1.59276)
(6.04354e-17 0.0918489 1.54056)
(7.54357e-17 0.0893321 1.49053)
(-3.39969e-16 0.0867755 1.4426)
(-5.60618e-16 0.0842098 1.39671)
(-7.01876e-16 0.0816599 1.35279)
(-7.46198e-16 0.0791459 1.31075)
(-8.34834e-16 0.0766832 1.27052)
(-5.46188e-16 0.0742833 1.23199)
(-5.69581e-16 0.0719536 1.19511)
(-3.01208e-16 0.0696982 1.15978)
(-6.4162e-16 0.067518 1.12595)
(-9.82229e-16 0.0654116 1.09353)
(-8.60505e-16 0.0633752 1.06247)
(-1.0613e-15 0.061404 1.03272)
(-8.16394e-16 0.0594926 1.00421)
(-9.64996e-16 0.0576354 0.976911)
(-9.07472e-16 0.0558275 0.950768)
(-8.58057e-16 0.0540649 0.92574)
(-7.77592e-16 0.0523447 0.901783)
(-5.93097e-16 0.0506654 0.878857)
(-1.31567e-16 0.0490267 0.856919)
(7.43537e-17 0.0474294 0.835927)
(-1.09743e-16 0.045875 0.815841)
(-4.22291e-16 0.0443656 0.796617)
(-3.17885e-16 0.0429035 0.778214)
(-5.42486e-16 0.0414906 0.760591)
(-6.20578e-16 0.0401287 0.743709)
(-1.35744e-17 0.0388187 0.727528)
(7.56443e-17 0.037561 0.712012)
(-1.11588e-16 0.0363547 0.697126)
(-3.43331e-16 0.0351983 0.682837)
(-6.71401e-16 0.0340894 0.669117)
(-5.89939e-16 0.0330245 0.655937)
(-7.46039e-16 0.0319998 0.643273)
(-9.0227e-16 0.0310107 0.631104)
(-9.72081e-16 0.0300522 0.619409)
(-1.50968e-15 0.029119 0.608178)
(-1.74914e-15 0.0282051 0.597379)
(-2.03387e-15 0.0273058 0.587047)
(-1.54299e-15 0.0264101 0.577044)
(-1.32757e-15 0.0255283 0.56773)
(-7.03833e-16 0.0245893 0.558059)
(-8.68771e-16 0.0238345 0.551028)
(-8.0192e-17 0.0222637 0.538604)
(-3.18468e-15 0.121234 4.2343)
(-3.34602e-15 0.0201637 4.35278)
(-3.42185e-15 -0.0232579 4.47808)
(-3.38546e-15 -0.029046 4.556)
(-3.30395e-15 -0.0166376 4.58444)
(-3.19889e-15 0.000609443 4.57376)
(-3.04592e-15 0.0173528 4.53405)
(-2.91566e-15 0.0320782 4.47299)
(-2.73124e-15 0.044595 4.39602)
(-2.50483e-15 0.0554487 4.3065)
(-2.26754e-15 0.0661388 4.20477)
(-2.01681e-15 0.07903 4.08651)
(-1.73715e-15 0.0955797 3.94347)
(-1.42353e-15 0.113631 3.77724)
(-1.13018e-15 0.127907 3.60606)
(-7.72221e-16 0.134358 3.44845)
(-5.36436e-16 0.131387 3.31825)
(-3.32197e-16 0.11944 3.22399)
(-1.48228e-16 0.100619 3.16863)
(1.42665e-17 0.0774912 3.14855)
(1.41515e-16 0.0539934 3.15218)
(1.92735e-16 0.0342722 3.16161)
(3.045e-16 0.02049 3.16419)
(3.96774e-16 0.0124918 3.15577)
(3.68634e-16 0.0089334 3.13737)
(3.32342e-16 0.00835559 3.1117)
(1.95044e-16 0.00965901 3.08134)
(2.39332e-16 0.0121688 3.04826)
(2.24556e-16 0.0155394 3.01374)
(1.72474e-16 0.0196311 2.97853)
(1.12735e-16 0.0244056 2.94302)
(7.09419e-17 0.0298476 2.90731)
(4.17984e-17 0.0359074 2.87136)
(3.26473e-17 0.0424473 2.83498)
(8.04263e-18 0.0492024 2.79793)
(1.33376e-16 0.0558843 2.76001)
(2.0651e-16 0.0624959 2.72074)
(2.4284e-16 0.0693992 2.67875)
(2.58876e-16 0.0767323 2.63282)
(3.36226e-16 0.0842502 2.58228)
(1.72537e-16 0.091592 2.52698)
(3.50307e-17 0.0984299 2.46727)
(-2.09661e-16 0.104517 2.40387)
(-2.60128e-16 0.109694 2.33767)
(-2.56217e-16 0.113876 2.26962)
(-2.46446e-16 0.117039 2.2006)
(-2.4997e-16 0.119207 2.13142)
(-2.86131e-16 0.120441 2.06273)
(-3.20406e-17 0.120829 1.99508)
(3.21104e-16 0.120472 1.92887)
(3.8582e-16 0.11948 1.86442)
(5.66541e-16 0.117959 1.80195)
(7.33806e-16 0.116011 1.7416)
(8.11091e-16 0.113726 1.68345)
(8.21184e-16 0.111186 1.62753)
(8.74215e-16 0.10846 1.57385)
(5.26904e-16 0.105608 1.52238)
(6.96229e-16 0.102678 1.47306)
(5.9951e-16 0.0997132 1.42583)
(7.41397e-16 0.0967461 1.38062)
(6.75071e-16 0.0938042 1.33735)
(5.3306e-16 0.0909091 1.29593)
(3.80869e-16 0.0880772 1.25627)
(2.95388e-16 0.0853201 1.21831)
(1.95212e-16 0.082645 1.18195)
(2.07247e-16 0.0800555 1.14712)
(-2.06946e-17 0.0775516 1.11376)
(-4.92398e-16 0.0751309 1.08179)
(-6.45689e-16 0.0727887 1.05118)
(-7.66549e-16 0.0705194 1.02185)
(-4.35122e-16 0.0683168 0.993763)
(-3.66743e-16 0.0661751 0.966872)
(-4.11676e-16 0.0640892 0.941132)
(-5.52553e-16 0.0620551 0.9165)
(-3.17855e-16 0.0600703 0.892933)
(-3.72067e-16 0.0581336 0.870388)
(-1.99403e-16 0.0562451 0.848823)
(1.83974e-16 0.054406 0.828195)
(2.60789e-16 0.0526184 0.808458)
(2.32583e-16 0.0508846 0.789572)
(-6.16687e-17 0.0492071 0.771492)
(-5.68526e-16 0.0475879 0.754177)
(-3.67812e-16 0.0460287 0.737586)
(-2.8355e-16 0.0445302 0.721681)
(-2.05394e-16 0.0430922 0.706426)
(-1.41392e-16 0.0417135 0.691785)
(-1.49701e-16 0.0403919 0.677728)
(-1.81044e-16 0.0391241 0.664226)
(-2.91347e-16 0.0379062 0.651254)
(-4.95533e-17 0.0367335 0.638786)
(4.54598e-17 0.0356005 0.626806)
(-2.00076e-16 0.0345015 0.615291)
(-7.65994e-16 0.0334304 0.604233)
(-7.23357e-16 0.0323802 0.593603)
(-5.49235e-16 0.0313458 0.583436)
(-3.70845e-16 0.0303144 0.573595)
(-1.1429e-16 0.0292992 0.564437)
(-1.93275e-16 0.0282153 0.554934)
(-9.01159e-17 0.0273496 0.548028)
(2.99538e-16 0.0255324 0.535842)
(-3.28597e-15 0.115549 4.2987)
(-3.45685e-15 0.0106186 4.44059)
(-3.53004e-15 -0.0302764 4.56468)
(-3.48794e-15 -0.031548 4.63032)
(-3.40347e-15 -0.0151222 4.64359)
(-3.25748e-15 0.00522197 4.61757)
(-3.11819e-15 0.024332 4.56343)
(-2.92309e-15 0.0408985 4.48958)
(-2.72718e-15 0.0549152 4.4018)
(-2.44797e-15 0.0672264 4.30308)
(-2.16564e-15 0.0798821 4.19213)
(-1.87608e-15 0.0956404 4.06183)
(-1.56436e-15 0.115355 3.9031)
(-1.25304e-15 0.135068 3.7256)
(-9.70532e-16 0.148676 3.55176)
(-7.11586e-16 0.1524 3.40067)
(-4.64346e-16 0.145241 3.28508)
(-3.3341e-16 0.128503 3.21168)
(-3.01883e-16 0.104983 3.18035)
(-6.04827e-17 0.0782208 3.1824)
(1.20781e-16 0.0534818 3.19836)
(1.84909e-16 0.034619 3.20912)
(3.6234e-16 0.0226061 3.20608)
(1.93273e-16 0.0163427 3.18918)
(1.91167e-16 0.0140937 3.16184)
(2.60661e-16 0.0143627 3.12775)
(2.87418e-16 0.0161468 3.08984)
(1.814e-16 0.0188878 3.05009)
(8.66988e-17 0.0223389 3.00977)
(4.42636e-17 0.0264353 2.96958)
(-1.31045e-16 0.0311932 2.92986)
(-1.76891e-16 0.0366361 2.89071)
(-2.59807e-16 0.0427415 2.85205)
(-3.81814e-16 0.0493874 2.81369)
(-4.44495e-16 0.056322 2.77535)
(-3.15334e-16 0.0633048 2.73678)
(-2.43857e-16 0.0704441 2.69735)
(-2.00804e-16 0.0781855 2.65535)
(-1.34859e-16 0.0866152 2.60928)
(-2.82365e-17 0.0953581 2.55834)
(6.44429e-17 0.103923 2.50234)
(1.91872e-16 0.111877 2.44173)
(7.54546e-18 0.118904 2.37735)
(-2.90641e-17 0.124814 2.31025)
(-2.94511e-17 0.129519 2.24149)
(-4.96648e-17 0.133011 2.17202)
(-7.51802e-17 0.135338 2.10267)
(-1.19888e-16 0.13659 2.03409)
(-1.37572e-16 0.13688 1.96679)
(-1.11466e-16 0.136334 1.90114)
(-8.36401e-17 0.135082 1.83741)
(-2.71903e-17 0.13325 1.77576)
(5.84655e-17 0.130952 1.71631)
(1.73644e-16 0.128292 1.6591)
(2.75473e-16 0.125361 1.60414)
(4.69944e-16 0.122235 1.55142)
(2.57881e-16 0.11898 1.50089)
(3.73491e-16 0.115649 1.45248)
(2.77391e-16 0.112289 1.40614)
(1.10714e-16 0.108934 1.36177)
(-7.07638e-17 0.105615 1.31929)
(6.06406e-17 0.102353 1.27862)
(2.19763e-16 0.0991662 1.23969)
(4.12592e-16 0.0960654 1.20239)
(1.86185e-16 0.0930575 1.16667)
(2.04376e-16 0.0901452 1.13245)
(6.95186e-17 0.0873276 1.09967)
(-3.66226e-16 0.0846013 1.06826)
(-4.8182e-16 0.0819609 1.03818)
(-5.94166e-16 0.0794001 1.00938)
(-2.86318e-16 0.0769122 0.981798)
(-2.33408e-16 0.0744914 0.955403)
(-2.4084e-16 0.0721325 0.930148)
(-5.20896e-16 0.069832 0.90599)
(-9.88478e-16 0.0675876 0.882886)
(-9.86172e-16 0.0653989 0.860791)
(-3.33226e-16 0.0632664 0.839663)
(-1.8314e-16 0.0611919 0.819456)
(2.04016e-16 0.0591778 0.800125)
(2.79079e-16 0.0572266 0.781626)
(1.74011e-16 0.055341 0.763915)
(-3.13546e-16 0.0535229 0.746951)
(-5.45348e-16 0.0517738 0.730692)