/*--------------------------------*- C++ -*----------------------------------*\
| =========                 |                                                 |
| \\      /  F ield         | OpenFOAM: The Open Source CFD Toolbox           |
|  \\    /   O peration     | Version:  4.1                                   |
|   \\  /    A nd           | Web:      www.OpenFOAM.org                      |
|    \\/     M anipulation  |                                                 |
\*---------------------------------------------------------------------------*/
FoamFile
{
    version     2.0;
    format      ascii;
    class       volScalarField;
    location    "1500";
    object      p;
}
// * * * * * * * * * * * * * * * * * * * * * * * * * * * * * * * * * * * * * //

dimensions      [0 2 -2 0 0 0 0];

internalField   nonuniform List<scalar> 
6820
(
-6.88398
-7.11082
-7.18773
-7.19976
-7.21912
-7.24119
-7.25775
-7.27059
-7.28174
-7.29131
-7.29918
-7.30548
-7.31033
-7.31372
-7.31562
-7.31596
-7.31464
-7.31151
-7.30636
-7.29894
-7.28891
-7.27582
-7.25907
-7.23784
-7.21098
-7.17679
-7.13252
-7.07417
-6.99219
-6.87768
-6.66807
-6.41555
-5.3607
-6.95596
-7.09698
-7.16059
-7.18094
-7.20474
-7.22871
-7.24667
-7.26052
-7.27232
-7.28235
-7.29061
-7.29724
-7.30235
-7.30597
-7.30807
-7.30858
-7.3074
-7.30438
-7.29934
-7.29201
-7.28207
-7.26909
-7.2525
-7.23152
-7.20512
-7.17183
-7.12944
-7.0752
-7.00319
-6.9118
-6.77963
-6.65672
-6.5697
-7.01337
-7.1014
-7.16153
-7.18652
-7.20892
-7.23116
-7.24864
-7.26234
-7.274
-7.28394
-7.29217
-7.29879
-7.30393
-7.3076
-7.30977
-7.31039
-7.30934
-7.30651
-7.3017
-7.29467
-7.28513
-7.27268
-7.2568
-7.23685
-7.21192
-7.1809
-7.14218
-7.09413
-7.03388
-6.96332
-6.87879
-6.82652
-6.81245
-7.05212
-7.11051
-7.16472
-7.1911
-7.21198
-7.23283
-7.24997
-7.26356
-7.27507
-7.28492
-7.29311
-7.29974
-7.30491
-7.30865
-7.31092
-7.31166
-7.3108
-7.3082
-7.3037
-7.29708
-7.28808
-7.27635
-7.26147
-7.2429
-7.22
-7.19198
-7.15795
-7.11729
-7.06947
-7.018
-6.96598
-6.94239
-6.95191
-7.08327
-7.12309
-7.16898
-7.19523
-7.21513
-7.23472
-7.2514
-7.26483
-7.2762
-7.28595
-7.29413
-7.30079
-7.30603
-7.30987
-7.31229
-7.31324
-7.31264
-7.31039
-7.30632
-7.30026
-7.292
-7.28124
-7.26768
-7.25092
-7.23055
-7.20618
-7.17751
-7.14477
-7.10887
-7.07387
-7.0451
-7.04102
-7.07023
-7.1094
-7.13689
-7.17466
-7.19993
-7.21896
-7.23727
-7.25332
-7.26651
-7.2777
-7.28735
-7.2955
-7.3022
-7.30752
-7.31151
-7.31412
-7.31533
-7.31507
-7.31324
-7.30972
-7.30436
-7.297
-7.28744
-7.27545
-7.26082
-7.24335
-7.22299
-7.19991
-7.17491
-7.14967
-7.12814
-7.11576
-7.12427
-7.16084
-7.13156
-7.15086
-7.18158
-7.2052
-7.22329
-7.24035
-7.25567
-7.26856
-7.27955
-7.28908
-7.2972
-7.30394
-7.30938
-7.31353
-7.31638
-7.3179
-7.31804
-7.31672
-7.31385
-7.30932
-7.30302
-7.29483
-7.28462
-7.27233
-7.25797
-7.24174
-7.22415
-7.20632
-7.19019
-7.17925
-7.17814
-7.19417
-7.23224
-7.15067
-7.16453
-7.1894
-7.21094
-7.228
-7.24389
-7.25844
-7.27096
-7.28174
-7.29114
-7.29923
-7.30603
-7.31159
-7.31594
-7.31907
-7.32095
-7.32155
-7.32082
-7.31869
-7.3151
-7.30998
-7.30329
-7.29501
-7.28519
-7.27401
-7.26185
-7.24942
-7.23796
-7.22936
-7.22654
-7.23309
-7.25355
-7.29098
-7.16745
-7.17766
-7.19779
-7.21709
-7.23306
-7.24786
-7.26162
-7.27372
-7.28427
-7.29353
-7.30159
-7.30845
-7.31416
-7.31873
-7.32218
-7.32447
-7.3256
-7.32552
-7.32421
-7.32165
-7.31781
-7.31272
-7.30644
-7.29913
-7.29108
-7.28278
-7.27504
-7.26907
-7.26657
-7.26986
-7.28158
-7.30452
-7.34046
-7.18241
-7.19014
-7.20649
-7.22358
-7.23841
-7.2522
-7.26517
-7.27683
-7.28713
-7.29625
-7.30428
-7.31122
-7.3171
-7.32192
-7.32572
-7.32846
-7.33016
-7.3308
-7.33037
-7.3289
-7.3264
-7.32296
-7.31871
-7.31388
-7.30882
-7.30409
-7.3005
-7.29915
-7.3015
-7.30931
-7.32446
-7.34865
-7.38282
-7.19591
-7.20191
-7.21529
-7.23033
-7.24401
-7.25685
-7.26908
-7.28027
-7.29031
-7.2993
-7.30731
-7.31434
-7.3204
-7.3255
-7.32967
-7.33291
-7.33522
-7.33662
-7.33713
-7.33679
-7.33567
-7.33389
-7.33164
-7.32918
-7.32692
-7.32541
-7.32542
-7.3279
-7.33404
-7.34515
-7.36253
-7.38719
-7.41956
-7.20824
-7.21301
-7.22406
-7.23725
-7.24981
-7.26177
-7.27329
-7.28402
-7.2938
-7.30267
-7.31067
-7.31779
-7.32405
-7.32946
-7.33404
-7.3378
-7.34076
-7.34295
-7.34442
-7.34524
-7.3455
-7.34536
-7.34504
-7.34482
-7.34512
-7.34646
-7.34953
-7.35513
-7.3642
-7.37769
-7.39647
-7.42111
-7.45176
-7.21958
-7.22347
-7.2327
-7.24427
-7.25577
-7.26691
-7.27777
-7.28806
-7.29759
-7.30635
-7.31434
-7.32158
-7.32806
-7.33379
-7.3388
-7.34311
-7.34674
-7.34975
-7.3522
-7.35417
-7.3558
-7.35725
-7.35875
-7.3606
-7.3632
-7.36703
-7.37267
-7.38078
-7.39208
-7.40725
-7.42685
-7.45117
-7.48022
-7.2301
-7.23333
-7.24114
-7.25132
-7.26183
-7.27223
-7.28248
-7.29236
-7.30165
-7.3103
-7.31832
-7.32568
-7.3324
-7.33847
-7.34393
-7.3488
-7.35313
-7.35696
-7.36038
-7.3635
-7.36645
-7.36941
-7.37261
-7.37635
-7.38099
-7.38695
-7.39472
-7.40484
-7.41782
-7.43414
-7.45416
-7.478
-7.50557
-7.23989
-7.24263
-7.24933
-7.25834
-7.26796
-7.27768
-7.28739
-7.29689
-7.30596
-7.31453
-7.32258
-7.33008
-7.33705
-7.34348
-7.3494
-7.35485
-7.35987
-7.36453
-7.36892
-7.37314
-7.37735
-7.38173
-7.3865
-7.39193
-7.39835
-7.40613
-7.41565
-7.42733
-7.44155
-7.45864
-7.4788
-7.50206
-7.52829
-7.24905
-7.25142
-7.25724
-7.26527
-7.2741
-7.28322
-7.29245
-7.30161
-7.31049
-7.31899
-7.32709
-7.33476
-7.34199
-7.34878
-7.35518
-7.36121
-7.36692
-7.37239
-7.37772
-7.38301
-7.38841
-7.3941
-7.40029
-7.40723
-7.41519
-7.42448
-7.43542
-7.44831
-7.46344
-7.481
-7.50111
-7.52374
-7.54875
-7.25764
-7.25971
-7.26485
-7.27208
-7.28023
-7.2888
-7.29762
-7.30648
-7.3152
-7.32367
-7.33183
-7.33967
-7.34718
-7.35436
-7.36123
-7.36783
-7.37423
-7.3805
-7.38672
-7.39302
-7.39953
-7.40642
-7.41389
-7.42214
-7.43142
-7.44197
-7.45404
-7.46786
-7.48362
-7.50145
-7.52139
-7.54337
-7.56727
-7.2657
-7.26754
-7.27214
-7.27871
-7.28629
-7.2944
-7.30286
-7.31148
-7.32006
-7.32852
-7.33677
-7.3448
-7.3526
-7.36015
-7.3675
-7.37468
-7.38175
-7.38878
-7.39585
-7.40309
-7.41063
-7.41861
-7.4272
-7.4366
-7.44699
-7.45857
-7.47154
-7.48605
-7.50224
-7.52018
-7.53986
-7.56121
-7.58409
-7.27326
-7.27493
-7.27909
-7.28514
-7.29224
-7.29997
-7.30813
-7.31655
-7.32504
-7.33351
-7.34187
-7.35011
-7.3582
-7.36614
-7.37396
-7.3817
-7.38941
-7.39717
-7.40505
-7.41316
-7.42163
-7.43058
-7.44017
-7.45054
-7.46186
-7.47429
-7.48795
-7.50297
-7.51943
-7.53735
-7.55672
-7.57745
-7.59942
-7.28033
-7.28186
-7.2857
-7.29134
-7.29804
-7.30546
-7.31339
-7.32165
-7.3301
-7.3386
-7.3471
-7.35555
-7.36394
-7.37227
-7.38056
-7.38884
-7.39717
-7.40561
-7.41424
-7.42315
-7.43246
-7.44228
-7.45272
-7.46393
-7.47602
-7.48912
-7.50332
-7.5187
-7.5353
-7.55313
-7.57216
-7.59229
-7.61343
-7.28692
-7.28836
-7.29194
-7.29726
-7.30366
-7.31083
-7.31858
-7.32675
-7.33518
-7.34375
-7.3524
-7.36108
-7.36978
-7.3785
-7.38724
-7.39604
-7.40496
-7.41404
-7.42336
-7.433
-7.44306
-7.45364
-7.46483
-7.47674
-7.48946
-7.50308
-7.51768
-7.5333
-7.54996
-7.56764
-7.5863
-7.60587
-7.62624
-7.29303
-7.29439
-7.2978
-7.30287
-7.30905
-7.31604
-7.32368
-7.3318
-7.34024
-7.34891
-7.35774
-7.36666
-7.37568
-7.38477
-7.39395
-7.40326
-7.41272
-7.4224
-7.43236
-7.44266
-7.45339
-7.46462
-7.47644
-7.48894
-7.50217
-7.51621
-7.53109
-7.54685
-7.56349
-7.58098
-7.59928
-7.61831
-7.63798
-7.29865
-7.29995
-7.30323
-7.30814
-7.31417
-7.32105
-7.32862
-7.33674
-7.34525
-7.35404
-7.36306
-7.37224
-7.38157
-7.39104
-7.40065
-7.41043
-7.42041
-7.43064
-7.44117
-7.45206
-7.46338
-7.47518
-7.48754
-7.50052
-7.51416
-7.52851
-7.54359
-7.55942
-7.57599
-7.59327
-7.6112
-7.62972
-7.64875
-7.30374
-7.30501
-7.30821
-7.31302
-7.31896
-7.32579
-7.33337
-7.34153
-7.35014
-7.35909
-7.36832
-7.37777
-7.38742
-7.39726
-7.40728
-7.41751
-7.42798
-7.43871
-7.44976
-7.46118
-7.473
-7.4853
-7.49811
-7.51147
-7.52543
-7.54001
-7.55523
-7.57107
-7.58753
-7.60457
-7.62214
-7.64018
-7.65862
-7.30827
-7.30953
-7.31269
-7.31746
-7.32339
-7.33024
-7.33786
-7.34611
-7.35486
-7.36401
-7.37347
-7.3832
-7.39318
-7.40337
-7.41379
-7.42445
-7.43536
-7.44656
-7.45807
-7.46995
-7.48222
-7.49493
-7.50812
-7.5218
-7.53601
-7.55075
-7.56603
-7.58185
-7.59817
-7.61497
-7.63219
-7.64978
-7.66768
-7.31219
-7.31346
-7.31662
-7.32142
-7.3274
-7.33432
-7.34205
-7.35045
-7.35938
-7.36874
-7.37846
-7.38848
-7.39878
-7.40933
-7.42013
-7.43119
-7.44251
-7.45413
-7.46607
-7.47835
-7.49101
-7.50407
-7.51756
-7.5315
-7.54589
-7.56074
-7.57605
-7.5918
-7.60797
-7.62452
-7.6414
-7.65858
-7.67598
-7.31544
-7.31673
-7.31995
-7.32483
-7.33092
-7.33798
-7.34588
-7.35447
-7.36362
-7.37324
-7.38323
-7.39356
-7.40419
-7.41509
-7.42625
-7.43769
-7.4494
-7.4614
-7.47371
-7.48635
-7.49934
-7.5127
-7.52644
-7.54057
-7.5551
-7.57002
-7.58532
-7.60098
-7.61698
-7.63329
-7.64985
-7.66663
-7.68358
-7.31794
-7.31927
-7.32259
-7.32763
-7.3339
-7.34116
-7.34929
-7.35812
-7.36755
-7.37744
-7.38774
-7.39839
-7.40935
-7.42059
-7.43211
-7.4439
-7.45597
-7.46832
-7.48096
-7.49392
-7.50719
-7.5208
-7.53474
-7.54902
-7.56365
-7.5786
-7.59386
-7.60942
-7.62525
-7.64131
-7.65757
-7.67399
-7.69052
-7.31959
-7.32099
-7.32447
-7.32973
-7.33626
-7.34381
-7.35222
-7.36136
-7.3711
-7.38132
-7.39194
-7.40293
-7.41422
-7.42581
-7.43767
-7.44979
-7.46219
-7.47485
-7.4878
-7.50103
-7.51454
-7.52836
-7.54246
-7.55686
-7.57154
-7.5865
-7.60171
-7.61716
-7.63281
-7.64864
-7.66461
-7.68069
-7.69683
-7.32027
-7.32176
-7.32546
-7.33104
-7.33793
-7.34584
-7.35462
-7.36413
-7.37423
-7.38481
-7.39579
-7.40712
-7.41876
-7.43068
-7.44287
-7.45532
-7.46802
-7.48098
-7.49419
-7.50765
-7.52138
-7.53536
-7.5496
-7.56409
-7.57881
-7.59375
-7.6089
-7.62423
-7.63971
-7.65532
-7.67102
-7.68678
-7.70258
-7.31982
-7.32144
-7.32545
-7.33146
-7.33882
-7.34719
-7.35642
-7.36637
-7.37689
-7.38787
-7.39924
-7.41094
-7.42293
-7.43519
-7.4477
-7.46045
-7.47344
-7.48666
-7.50011
-7.51378
-7.52769
-7.54181
-7.55615
-7.5707
-7.58543
-7.60035
-7.61542
-7.63062
-7.64594
-7.66134
-7.67679
-7.69227
-7.70774
-7.31805
-7.31984
-7.32429
-7.33089
-7.33886
-7.34781
-7.35758
-7.36805
-7.37905
-7.39047
-7.40225
-7.41433
-7.42668
-7.43928
-7.45211
-7.46515
-7.47841
-7.49187
-7.50554
-7.51941
-7.53347
-7.54772
-7.56215
-7.57674
-7.59148
-7.60636
-7.62136
-7.63645
-7.65161
-7.66682
-7.68204
-7.69726
-7.71244
-7.31467
-7.31673
-7.32179
-7.3292
-7.33795
-7.34761
-7.35805
-7.36913
-7.3807
-7.39262
-7.40484
-7.41733
-7.43005
-7.44297
-7.4561
-7.46941
-7.48291
-7.49659
-7.51044
-7.52446
-7.53865
-7.55298
-7.56747
-7.58208
-7.59682
-7.61165
-7.62656
-7.64153
-7.65654
-7.67157
-7.68659
-7.70157
-7.7165
-7.30932
-7.31176
-7.31774
-7.32629
-7.33606
-7.34657
-7.35776
-7.36953
-7.3817
-7.39416
-7.40687
-7.41979
-7.4329
-7.44619
-7.45963
-7.47324
-7.48699
-7.5009
-7.51494
-7.52913
-7.54344
-7.55788
-7.57243
-7.58707
-7.6018
-7.6166
-7.63144
-7.64631
-7.6612
-7.67606
-7.69089
-7.70566
-7.72035
-7.30149
-7.30453
-7.31188
-7.32202
-7.33315
-7.34479
-7.357
-7.36963
-7.38248
-7.39548
-7.40864
-7.42193
-7.43535
-7.4489
-7.46257
-7.47637
-7.4903
-7.50435
-7.51852
-7.5328
-7.54719
-7.56168
-7.57626
-7.5909
-7.60561
-7.62036
-7.63513
-7.6499
-7.66466
-7.67939
-7.69407
-7.70867
-7.72319
-7.29032
-7.29448
-7.30415
-7.31632
-7.3287
-7.34139
-7.35471
-7.36839
-7.38215
-7.39594
-7.40978
-7.42368
-7.43762
-7.45161
-7.46566
-7.47978
-7.49397
-7.50824
-7.52258
-7.53701
-7.5515
-7.56606
-7.58068
-7.59533
-7.61002
-7.62472
-7.63942
-7.65411
-7.66875
-7.68334
-7.69785
-7.71225
-7.72654
-7.27442
-7.28019
-7.29481
-7.31117
-7.32568
-7.33958
-7.35379
-7.36804
-7.38211
-7.39607
-7.41004
-7.42404
-7.43808
-7.45217
-7.46632
-7.48055
-7.49485
-7.50923
-7.52368
-7.53819
-7.55277
-7.5674
-7.58207
-7.59676
-7.61147
-7.62618
-7.64087
-7.65552
-7.67012
-7.68465
-7.6991
-7.71346
-7.72773
-7.25294
-7.25964
-7.27812
-7.29784
-7.31558
-7.33296
-7.35024
-7.36687
-7.38275
-7.39814
-7.41322
-7.42804
-7.44267
-7.45717
-7.47161
-7.48603
-7.50044
-7.51486
-7.52932
-7.54381
-7.55833
-7.57288
-7.58745
-7.60204
-7.61662
-7.63119
-7.64573
-7.66022
-7.67465
-7.689
-7.70324
-7.71734
-7.73129
-7.21986
-7.2548
-7.28385
-7.29943
-7.31288
-7.32862
-7.34485
-7.36035
-7.37543
-7.39049
-7.40554
-7.42051
-7.43542
-7.45029
-7.46514
-7.47999
-7.49483
-7.50968
-7.52454
-7.5394
-7.55427
-7.56915
-7.58401
-7.59885
-7.61367
-7.62845
-7.64318
-7.65784
-7.67242
-7.68692
-7.70131
-7.7156
-7.72978
-7.07861
-7.18598
-7.2595
-7.29135
-7.314
-7.33769
-7.35931
-7.37752
-7.3937
-7.40902
-7.42382
-7.43819
-7.45229
-7.46626
-7.4802
-7.49414
-7.50812
-7.52215
-7.53625
-7.55041
-7.56463
-7.5789
-7.59321
-7.60754
-7.62188
-7.63621
-7.65052
-7.66478
-7.67898
-7.6931
-7.70712
-7.72102
-7.7348
-6.52149
-6.57627
-7.45886
-7.93366
-7.98798
-8.00991
-8.05893
-8.09927
-8.13152
-8.16379
-8.19682
-8.22989
-8.26316
-8.2968
-8.33077
-8.36497
-8.39929
-8.43362
-8.46782
-8.50176
-8.53531
-8.56833
-8.60069
-8.63227
-8.66294
-8.6926
-8.72113
-8.74842
-8.77438
-8.7989
-8.8219
-8.84328
-8.86296
-8.88086
-8.89689
-8.91097
-8.92302
-8.93294
-8.94067
-8.9461
-8.94914
-8.9497
-8.94766
-8.94293
-8.93537
-8.92487
-8.91127
-8.89442
-8.87417
-8.85033
-8.82271
-8.79112
-8.75532
-8.71509
-8.6702
-8.62039
-8.56542
-8.50501
-8.43891
-8.36685
-8.28856
-8.20375
-8.11213
-8.0134
-7.90722
-7.79327
-7.67121
-7.54071
-7.40144
-7.25311
-7.09546
-6.92828
-6.75141
-6.56477
-6.36836
-6.16225
-5.94666
-5.72187
-5.4883
-5.24649
-4.99711
-4.74092
-4.47883
-4.21181
-3.94093
-3.66734
-3.39222
-3.11676
-2.84218
-2.56963
-2.30019
-2.0349
-1.77454
-1.51999
-1.27125
-1.02958
-0.792077
-0.564315
-0.329899
-0.12175
-7.09172
-7.2495
-7.58824
-7.85689
-7.93034
-7.97306
-8.02923
-8.07583
-8.1128
-8.14806
-8.18323
-8.21791
-8.25236
-8.28687
-8.32148
-8.35615
-8.3908
-8.42536
-8.45971
-8.49374
-8.52732
-8.56035
-8.59268
-8.62421
-8.65482
-8.6844
-8.71285
-8.74005
-8.76591
-8.79033
-8.81323
-8.8345
-8.85408
-8.87187
-8.88779
-8.90175
-8.91368
-8.92348
-8.93108
-8.93638
-8.93928
-8.93969
-8.9375
-8.9326
-8.92487
-8.91417
-8.90037
-8.88332
-8.86285
-8.83878
-8.81092
-8.77908
-8.74302
-8.70253
-8.65738
-8.6073
-8.55205
-8.49138
-8.42501
-8.35269
-8.27414
-8.18907
-8.09721
-7.99824
-7.89184
-7.77769
-7.65547
-7.52483
-7.38547
-7.23711
-7.0795
-6.91242
-6.73574
-6.54938
-6.35334
-6.14771
-5.93268
-5.70857
-5.47578
-5.23485
-4.98644
-4.7313
-4.47032
-4.20446
-3.93479
-3.6624
-3.38847
-3.11418
-2.84068
-2.56913
-2.30058
-2.03602
-1.77622
-1.52203
-1.27338
-1.03171
-0.793477
-0.565987
-0.327853
-0.12704
-7.1013
-7.28443
-7.5149
-7.76475
-7.88437
-7.94513
-8.0039
-8.05479
-8.09594
-8.13376
-8.1707
-8.20674
-8.24216
-8.27735
-8.31245
-8.34744
-8.3823
-8.41697
-8.45137
-8.48539
-8.51893
-8.55188
-8.58411
-8.61553
-8.64602
-8.67547
-8.70378
-8.73084
-8.75656
-8.78085
-8.8036
-8.82475
-8.84419
-8.86184
-8.87762
-8.89145
-8.90324
-8.9129
-8.92034
-8.92549
-8.92823
-8.92847
-8.92611
-8.92103
-8.9131
-8.90221
-8.8882
-8.87092
-8.85021
-8.8259
-8.79779
-8.76567
-8.72935
-8.68859
-8.64315
-8.59279
-8.53726
-8.47631
-8.40966
-8.33707
-8.25825
-8.17293
-8.08082
-7.98162
-7.87501
-7.76067
-7.63828
-7.50753
-7.36811
-7.21975
-7.0622
-6.89527
-6.71882
-6.53278
-6.33716
-6.13205
-5.91767
-5.69429
-5.46236
-5.22237
-4.975
-4.72099
-4.46119
-4.19657
-3.92816
-3.65705
-3.38438
-3.1113
-2.83895
-2.56844
-2.3008
-2.03701
-1.77779
-1.52399
-1.27545
-1.03376
-0.794821
-0.567584
-0.325829
-0.132222
-7.13197
-7.31391
-7.51332
-7.72522
-7.84985
-7.91871
-7.97986
-8.03444
-8.07947
-8.11978
-8.15836
-8.19565
-8.23197
-8.26777
-8.30326
-8.33851
-8.3735
-8.40821
-8.44258
-8.47653
-8.50995
-8.54276
-8.57484
-8.6061
-8.63641
-8.66568
-8.69381
-8.7207
-8.74624
-8.77036
-8.79295
-8.81392
-8.8332
-8.85069
-8.86631
-8.87998
-8.8916
-8.9011
-8.90839
-8.91336
-8.91593
-8.91599
-8.91343
-8.90815
-8.90002
-8.88891
-8.87467
-8.85715
-8.83619
-8.81162
-8.78324
-8.75085
-8.71424
-8.67319
-8.62746
-8.57681
-8.52099
-8.45975
-8.39283
-8.31996
-8.24088
-8.1553
-8.06294
-7.96351
-7.85669
-7.74218
-7.61965
-7.48881
-7.34935
-7.20101
-7.04356
-6.87681
-6.70063
-6.51496
-6.31982
-6.1153
-5.90161
-5.67905
-5.44803
-5.20907
-4.96281
-4.70999
-4.45145
-4.18814
-3.92107
-3.6513
-3.37994
-3.10812
-2.83696
-2.56754
-2.30086
-2.03786
-1.77924
-1.52585
-1.27743
-1.03574
-0.796109
-0.5691
-0.323866
-0.137221
-7.19479
-7.35539
-7.52464
-7.69683
-7.81673
-7.89304
-7.9574
-8.01463
-8.06279
-8.10543
-8.14559
-8.18407
-8.22127
-8.25767
-8.29354
-8.32901
-8.3641
-8.39882
-8.43313
-8.46696
-8.50024
-8.53287
-8.56476
-8.59581
-8.62591
-8.65496
-8.68288
-8.70956
-8.7349
-8.75881
-8.7812
-8.80198
-8.82107
-8.83838
-8.85381
-8.8673
-8.87874
-8.88806
-8.89516
-8.89995
-8.90232
-8.90218
-8.89943
-8.89393
-8.88558
-8.87423
-8.85975
-8.84198
-8.82076
-8.79591
-8.76725
-8.73458
-8.69768
-8.65633
-8.6103
-8.55935
-8.50323
-8.4417
-8.37449
-8.30134
-8.22199
-8.13616
-8.04356
-7.94391
-7.8369
-7.72222
-7.59958
-7.46866
-7.32919
-7.18091
-7.0236
-6.85707
-6.68122
-6.49597
-6.30136
-6.09749
-5.88456
-5.66287
-5.43283
-5.19496
-4.94988
-4.69833
-4.44113
-4.17919
-3.91351
-3.64514
-3.37516
-3.10466
-2.83474
-2.56644
-2.30075
-2.03857
-1.78058
-1.52761
-1.27931
-1.03762
-0.797341
-0.570524
-0.322003
-0.141955
-7.25478
-7.38962
-7.53354
-7.67762
-7.79067
-7.87085
-7.93709
-7.99568
-8.0461
-8.09076
-8.13235
-8.17192
-8.20994
-8.2469
-8.28314
-8.31882
-8.354
-8.38871
-8.42293
-8.45663
-8.48973
-8.52215
-8.55381
-8.58462
-8.61448
-8.64329
-8.67097
-8.6974
-8.72251
-8.74619
-8.76835
-8.78892
-8.8078
-8.82489
-8.84013
-8.85341
-8.86466
-8.87377
-8.88067
-8.88525
-8.88742
-8.88707
-8.88409
-8.87837
-8.86978
-8.85818
-8.84345
-8.82541
-8.80392
-8.77879
-8.74984
-8.71686
-8.67966
-8.638
-8.59167
-8.54041
-8.48399
-8.42216
-8.35467
-8.28124
-8.20163
-8.11554
-8.02272
-7.92285
-7.81566
-7.70085
-7.5781
-7.44714
-7.30769
-7.1595
-7.00236
-6.83611
-6.66062
-6.47585
-6.28182
-6.07866
-5.86655
-5.6458
-5.41681
-5.1801
-4.93627
-4.68604
-4.43024
-4.16974
-3.90552
-3.63861
-3.37005
-3.10092
-2.83227
-2.56514
-2.30046
-2.03914
-1.78179
-1.52925
-1.2811
-1.03941
-0.798517
-0.571847
-0.320278
-0.146347
-7.30829
-7.42096
-7.54449
-7.66781
-7.77196
-7.85217
-7.91895
-7.97807
-8.02994
-8.07614
-8.1189
-8.15938
-8.19811
-8.23558
-8.27214
-8.30799
-8.34322
-8.3779
-8.41202
-8.44555
-8.47845
-8.51064
-8.54205
-8.5726
-8.60218
-8.63072
-8.65812
-8.68429
-8.70913
-8.73256
-8.75448
-8.7748
-8.79344
-8.8103
-8.82531
-8.83837
-8.8494
-8.85829
-8.86497
-8.86933
-8.87127
-8.87069
-8.86748
-8.86151
-8.85267
-8.84082
-8.82581
-8.8075
-8.78572
-8.7603
-8.73104
-8.69776
-8.66024
-8.61827
-8.57162
-8.52006
-8.46333
-8.40121
-8.33342
-8.25972
-8.17984
-8.09351
-8.00046
-7.90041
-7.79305
-7.67811
-7.55529
-7.42431
-7.28491
-7.13685
-6.97993
-6.81398
-6.63891
-6.45466
-6.26128
-6.05887
-5.84765
-5.6279
-5.40002
-5.16453
-4.92201
-4.67318
-4.41882
-4.15982
-3.89712
-3.63171
-3.36462
-3.0969
-2.82957
-2.56363
-2.3
-2.03955
-1.78286
-1.53076
-1.28279
-1.0411
-0.799639
-0.573062
-0.318725
-0.150334
-7.35561
-7.45071
-7.55717
-7.66406
-7.75891
-7.83689
-7.90321
-7.96221
-8.01474
-8.06195
-8.10558
-8.14674
-8.18603
-8.2239
-8.26071
-8.29668
-8.33194
-8.36654
-8.40053
-8.43387
-8.46654
-8.49847
-8.5296
-8.55985
-8.58914
-8.61738
-8.64448
-8.67035
-8.6949
-8.71804
-8.73968
-8.75974
-8.77811
-8.79472
-8.80948
-8.82229
-8.83307
-8.84173
-8.84817
-8.85228
-8.85398
-8.85315
-8.84969
-8.84346
-8.83435
-8.82222
-8.80694
-8.78833
-8.76625
-8.74052
-8.71095
-8.67736
-8.63952
-8.59723
-8.55026
-8.49837
-8.44134
-8.37891
-8.31084
-8.23687
-8.15673
-8.07017
-7.9769
-7.87666
-7.76916
-7.65411
-7.53124
-7.40028
-7.26096
-7.11306
-6.95639
-6.79079
-6.61618
-6.43251
-6.23982
-6.03822
-5.82793
-5.60924
-5.38253
-5.14831
-4.90716
-4.65978
-4.40693
-4.14948
-3.88833
-3.62447
-3.3589
-3.09262
-2.82664
-2.56193
-2.29936
-2.0398
-1.78379
-1.53215
-1.28436
-1.04267
-0.800706
-0.574164
-0.317369
-0.153872
-7.39706
-7.47847
-7.5707
-7.66431
-7.75045
-7.82495
-7.88991
-7.94819
-8.00076
-8.04847
-8.09263
-8.13426
-8.17393
-8.21208
-8.24905
-8.28508
-8.32031
-8.35481
-8.38862
-8.42175
-8.45416
-8.4858
-8.51662
-8.54655
-8.57551
-8.60342
-8.63019
-8.65573
-8.67996
-8.70279
-8.72413
-8.74388
-8.76197
-8.7783
-8.79278
-8.80532
-8.81583
-8.82423
-8.8304
-8.83425
-8.83568
-8.83459
-8.83085
-8.82434
-8.81495
-8.80253
-8.78695
-8.76804
-8.74564
-8.71959
-8.6897
-8.65578
-8.61761
-8.57499
-8.52769
-8.47549
-8.41814
-8.35541
-8.28705
-8.2128
-8.13241
-8.04562
-7.95215
-7.85174
-7.74411
-7.62898
-7.50608
-7.37515
-7.23594
-7.08824
-6.93185
-6.76665
-6.59253
-6.40948
-6.21753
-6.0168
-5.80749
-5.5899
-5.36441
-5.13152
-4.89179
-4.6459
-4.39461
-4.13874
-3.8792
-3.61693
-3.3529
-3.0881
-2.82349
-2.56002
-2.29855
-2.03989
-1.78457
-1.5334
-1.28581
-1.04414
-0.80172
-0.57515
-0.316227
-0.156927
-7.43336
-7.50414
-7.58466
-7.66737
-7.74565
-7.816
-7.87891
-7.936
-7.9881
-8.03586
-8.08024
-8.1221
-8.16198
-8.20028
-8.23732
-8.27335
-8.30849
-8.34285
-8.37646
-8.40933
-8.44145
-8.47279
-8.50327
-8.53286
-8.56146
-8.58901
-8.61542
-8.64061
-8.66449
-8.68698
-8.70798
-8.72742
-8.74519
-8.76121
-8.77538
-8.78763
-8.79785
-8.80595
-8.81183
-8.8154
-8.81655
-8.81516
-8.81113
-8.80433
-8.79463
-8.7819
-8.766
-8.74677
-8.72405
-8.69767
-8.66744
-8.63317
-8.59467
-8.55171
-8.50408
-8.45155
-8.39388
-8.33085
-8.2622
-8.18768
-8.10704
-8.02002
-7.92636
-7.82579
-7.71804
-7.60284
-7.47993
-7.34906
-7.20999
-7.06251
-6.90645
-6.74167
-6.5681
-6.3857
-6.19453
-5.9947
-5.78642
-5.56998
-5.34575
-5.11422
-4.87595
-4.6316
-4.3819
-4.12766
-3.86975
-3.6091
-3.34664
-3.08334
-2.82013
-2.55793
-2.29756
-2.03981
-1.7852
-1.53451
-1.28714
-1.04548
-0.802678
-0.576019
-0.315308
-0.159486
-7.46531
-7.52776
-7.59871
-7.67237
-7.74363
-7.80963
-7.87001
-7.92553
-7.97677
-8.0242
-8.06851
-8.11038
-8.1503
-8.18862
-8.22564
-8.26159
-8.2966
-8.33077
-8.36414
-8.39674
-8.42855
-8.45955
-8.48969
-8.5189
-8.54713
-8.5743
-8.60033
-8.62515
-8.64865
-8.67078
-8.69142
-8.7105
-8.72793
-8.74361
-8.75746
-8.76939
-8.77929
-8.78708
-8.79265
-8.79591
-8.79674
-8.79504
-8.7907
-8.78358
-8.77356
-8.76051
-8.74427
-8.7247
-8.70164
-8.67491
-8.64433
-8.60972
-8.57086
-8.52755
-8.47958
-8.42672
-8.36873
-8.30539
-8.23645
-8.16166
-8.08077
-7.99353
-7.89968
-7.79896
-7.69111
-7.57586
-7.45296
-7.32217
-7.18326
-7.03603
-6.88032
-6.716
-6.54299
-6.36129
-6.17093
-5.97204
-5.76482
-5.54956
-5.32664
-5.09651
-4.85973
-4.61694
-4.36886
-4.11627
-3.86002
-3.60101
-3.34015
-3.07836
-2.81657
-2.55564
-2.29639
-2.03957
-1.78568
-1.53548
-1.28834
-1.04671
-0.80358
-0.576773
-0.314614
-0.161548
-7.4936
-7.54943
-7.61256
-7.67865
-7.74371
-7.80541
-7.863
-7.91667
-7.96675
-8.01353
-8.05751
-8.09918
-8.13897
-8.1772
-8.2141
-8.2499
-8.28472
-8.31866
-8.35177
-8.38407
-8.41555
-8.44619
-8.47596
-8.50479
-8.53263
-8.5594
-8.58503
-8.60945
-8.63257
-8.65431
-8.67457
-8.69328
-8.71034
-8.72567
-8.73917
-8.75075
-8.76032
-8.76777
-8.77301
-8.77593
-8.77644
-8.77441
-8.76973
-8.76227
-8.75191
-8.73851
-8.72193
-8.70201
-8.67859
-8.6515
-8.62056
-8.58558
-8.54636
-8.5027
-8.45438
-8.40118
-8.34286
-8.27921
-8.20997
-8.13491
-8.05377
-7.96632
-7.87229
-7.77143
-7.66348
-7.54819
-7.42532
-7.29463
-7.1559
-7.00894
-6.8536
-6.68976
-6.51735
-6.33636
-6.14685
-5.94892
-5.7428
-5.52875
-5.30715
-5.07844
-4.84318
-4.60198
-4.35554
-4.10462
-3.85006
-3.5927
-3.33344
-3.07318
-2.81281
-2.55317
-2.29504
-2.03916
-1.78599
-1.53629
-1.28942
-1.04781
-0.804424
-0.577414
-0.314137
-0.163129
-7.51881
-7.56931
-7.62602
-7.68573
-7.74535
-7.80294
-7.85764
-7.90928
-7.95796
-8.00385
-8.04726
-8.08856
-8.12807
-8.16607
-8.20277
-8.23834
-8.27292
-8.30659
-8.3394
-8.37137
-8.4025
-8.43278
-8.46216
-8.49059
-8.51803
-8.54439
-8.56962
-8.59363
-8.61634
-8.63767
-8.65755
-8.67587
-8.69255
-8.7075
-8.72064
-8.73185
-8.74106
-8.74816
-8.75305
-8.75562
-8.75578
-8.7534
-8.74836
-8.74056
-8.72984
-8.71608
-8.69914
-8.67885
-8.65506
-8.6276
-8.59628
-8.56093
-8.52134
-8.47732
-8.42864
-8.37509
-8.31644
-8.25246
-8.18293
-8.10759
-8.02621
-7.93855
-7.84434
-7.74334
-7.63531
-7.52
-7.39716
-7.26658
-7.12805
-6.98139
-6.82644
-6.6631
-6.49131
-6.31105
-6.1224
-5.92546
-5.72045
-5.50763
-5.28737
-5.06011
-4.82638
-4.58678
-4.342
-4.09276
-3.83988
-3.58419
-3.32655
-3.06782
-2.80887
-2.55052
-2.29352
-2.03858
-1.78615
-1.53695
-1.29035
-1.04879
-0.805207
-0.577946
-0.313864
-0.164255
-7.54141
-7.58753
-7.63896
-7.69329
-7.74813
-7.80188
-7.85369
-7.90319
-7.95032
-7.99512
-8.03777
-8.07853
-8.11763
-8.15528
-8.19168
-8.22696
-8.26124
-8.2946
-8.32708
-8.3587
-8.38947
-8.41936
-8.44834
-8.47637
-8.50339
-8.52933
-8.55414
-8.57773
-8.60003
-8.62096
-8.64042
-8.65834
-8.67463
-8.6892
-8.70195
-8.71279
-8.72162
-8.72835
-8.73288
-8.73509
-8.73488
-8.73214
-8.72674
-8.71856
-8.70748
-8.69335
-8.67602
-8.65536
-8.63119
-8.60334
-8.57165
-8.53591
-8.49595
-8.45155
-8.4025
-8.3486
-8.28962
-8.22532
-8.15549
-8.07988
-7.99825
-7.91037
-7.81599
-7.71487
-7.60676
-7.49142
-7.36864
-7.23818
-7.09986
-6.9535
-6.79896
-6.63613
-6.46497
-6.28547
-6.0977
-5.90176
-5.69787
-5.4863
-5.26739
-5.04159
-4.8094
-4.57141
-4.32828
-4.08073
-3.82954
-3.57551
-3.31948
-3.06229
-2.80477
-2.54771
-2.29183
-2.03783
-1.78614
-1.53746
-1.29115
-1.04964
-0.805924
-0.578374
-0.313775
-0.164963
-7.56178
-7.60427
-7.65129
-7.70106
-7.7517
-7.80192
-7.85092
-7.89826
-7.94373
-7.9873
-8.02904
-8.06911
-8.10766
-8.14488
-8.18088
-8.21581
-8.24973
-8.28274
-8.31485
-8.3461
-8.37647
-8.40597
-8.43454
-8.46215
-8.48875
-8.51427
-8.53865
-8.56182
-8.5837
-8.60421
-8.62326
-8.64077
-8.65666
-8.67083
-8.68319
-8.69364
-8.70209
-8.70844
-8.71259
-8.71443
-8.71384
-8.71073
-8.70495
-8.6964
-8.68493
-8.67042
-8.65271
-8.63166
-8.6071
-8.57886
-8.54678
-8.51065
-8.47031
-8.42553
-8.37612
-8.32186
-8.26253
-8.19791
-8.12778
-8.05189
-7.97002
-7.88193
-7.78738
-7.68613
-7.57795
-7.46261
-7.33988
-7.20956
-7.07145
-6.92541
-6.77128
-6.60899
-6.43847
-6.25973
-6.07284
-5.87791
-5.67516
-5.46483
-5.24728
-5.02293
-4.79228
-4.5559
-4.31443
-4.06857
-3.81906
-3.56669
-3.31226
-3.0566
-2.8005
-2.54472
-2.28997
-2.03692
-1.78597
-1.5378
-1.29181
-1.05036
-0.806571
-0.578702
-0.313846
-0.165299
-7.58022
-7.61965
-7.66298
-7.70885
-7.75582
-7.80282
-7.84914
-7.89432
-7.93808
-7.98032
-8.02103
-8.06029
-8.0982
-8.13488
-8.17041
-8.2049
-8.23843
-8.27103
-8.30275
-8.33359
-8.36356
-8.39264
-8.42079
-8.44798
-8.47415
-8.49924
-8.52319
-8.54593
-8.56738
-8.58747
-8.6061
-8.6232
-8.63868
-8.65244
-8.6644
-8.67446
-8.68253
-8.68849
-8.69225
-8.69371
-8.69274
-8.68924
-8.68308
-8.67415
-8.66229
-8.64739
-8.62929
-8.60784
-8.58289
-8.55426
-8.52178
-8.48526
-8.44453
-8.39937
-8.34959
-8.29497
-8.2353
-8.17036
-8.09992
-8.02376
-7.94165
-7.85335
-7.75863
-7.65726
-7.54901
-7.43366
-7.311
-7.18082
-7.04295
-6.89722
-6.74352
-6.58176
-6.41189
-6.23392
-6.04792
-5.85401
-5.65238
-5.4433
-5.22711
-5.00421
-4.7751
-4.54032
-4.30049
-4.0563
-3.80846
-3.55774
-3.30492
-3.05077
-2.79608
-2.54158
-2.28795
-2.03583
-1.78563
-1.53799
-1.29232
-1.05095
-0.807145
-0.578935
-0.31405
-0.165312
-7.59697
-7.63381
-7.674
-7.71654
-7.76028
-7.80436
-7.84817
-7.89123
-7.93327
-7.97412
-8.01372
-8.05208
-8.08925
-8.1253
-8.16029
-8.19429
-8.22735
-8.25952
-8.29081
-8.32123
-8.35077
-8.37942
-8.40714
-8.43389
-8.45962
-8.48428
-8.50779
-8.5301
-8.55112
-8.57077
-8.58898
-8.60567
-8.62073
-8.63409
-8.64565
-8.65531
-8.66298
-8.66855
-8.67192
-8.67299
-8.67163
-8.66774
-8.6612
-8.65187
-8.63963
-8.62433
-8.60584
-8.58399
-8.55864
-8.52961
-8.49673
-8.45983
-8.4187
-8.37316
-8.32301
-8.26803
-8.20802
-8.14276
-8.07202
-7.99559
-7.91324
-7.82473
-7.72985
-7.62836
-7.52005
-7.4047
-7.28211
-7.15208
-7.01444
-6.86904
-6.71577
-6.55455
-6.38533
-6.20813
-6.02302
-5.83012
-5.62962
-5.42178
-5.20693
-4.98548
-4.75789
-4.5247
-4.28651
-4.04397
-3.79779
-3.5487
-3.29746
-3.04481
-2.79152
-2.53829
-2.28577
-2.03458
-1.78512
-1.53801
-1.29269
-1.05141
-0.807638
-0.579079
-0.314358
-0.165053
-7.61225
-7.64686
-7.68437
-7.72403
-7.76492
-7.80637
-7.84782
-7.88887
-7.9292
-7.96863
-8.00705
-8.04444
-8.0808
-8.11615
-8.15053
-8.18398
-8.21654
-8.24823
-8.27905
-8.30902
-8.33812
-8.36632
-8.3936
-8.4199
-8.44519
-8.46941
-8.49248
-8.51435
-8.53493
-8.55416
-8.57195
-8.58821
-8.60286
-8.6158
-8.62695
-8.63621
-8.64348
-8.64866
-8.65164
-8.65231
-8.65057
-8.64629
-8.63935
-8.62963
-8.617
-8.6013
-8.58241
-8.56017
-8.53442
-8.50499
-8.47172
-8.43442
-8.39291
-8.34699
-8.29647
-8.24113
-8.18078
-8.1152
-8.04417
-7.96746
-7.88487
-7.79616
-7.70112
-7.59953
-7.49116
-7.37582
-7.2533
-7.12342
-6.98602
-6.84095
-6.68812
-6.52743
-6.35886
-6.18244
-5.99821
-5.80631
-5.60693
-5.40033
-5.18682
-4.96679
-4.7407
-4.50908
-4.27251
-4.03161
-3.78706
-3.53959
-3.2899
-3.03874
-2.78682
-2.53484
-2.28342
-2.03316
-1.78444
-1.53787
-1.2929
-1.05174
-0.808047
-0.579137
-0.31474
-0.164574
-7.62622
-7.65888
-7.6941
-7.73125
-7.76964
-7.8087
-7.84798
-7.8871
-7.92577
-7.96377
-8.00099
-8.03736
-8.07284
-8.10743
-8.14115
-8.17401
-8.20602
-8.23719
-8.26752
-8.29701
-8.32564
-8.35338
-8.3802
-8.40606
-8.4309
-8.45466
-8.47729
-8.49872
-8.51887
-8.53766
-8.55502
-8.57086
-8.58509
-8.59762
-8.60836
-8.61722
-8.62409
-8.62887
-8.63145
-8.63173
-8.6296
-8.62492
-8.6176
-8.60748
-8.59445
-8.57836
-8.55908
-8.53644
-8.51029
-8.48047
-8.4468
-8.40911
-8.36721
-8.32091
-8.27003
-8.21434
-8.15365
-8.08775
-8.01643
-7.93946
-7.85663
-7.76773
-7.67253
-7.57083
-7.46242
-7.34709
-7.22465
-7.09493
-6.95777
-6.81304
-6.66063
-6.50048
-6.33257
-6.1569
-5.97356
-5.78265
-5.58439
-5.379
-5.1668
-4.94818
-4.72358
-4.49351
-4.25852
-4.01924
-3.77631
-3.53041
-3.28226
-3.03256
-2.78201
-2.53126
-2.28093
-2.03159
-1.7836
-1.53757
-1.29297
-1.05194
-0.808366
-0.579115
-0.315168
-0.163924
-7.63901
-7.66998
-7.70319
-7.73816
-7.77433
-7.81124
-7.84852
-7.88583
-7.92288
-7.95948
-7.99548
-8.03079
-8.06536
-8.09915
-8.13216
-8.16438
-8.1958
-8.22642
-8.25623
-8.28522
-8.31336
-8.34063
-8.36698
-8.39238
-8.41676
-8.44007
-8.46226
-8.48324
-8.50295
-8.52131
-8.53824
-8.55365
-8.56746
-8.57958
-8.58992
-8.59837
-8.60483
-8.60921
-8.6114
-8.61129
-8.60876
-8.60369
-8.59597
-8.58547
-8.57204
-8.55556
-8.53588
-8.51284
-8.4863
-8.45608
-8.42203
-8.38395
-8.34167