/*--------------------------------*- C++ -*----------------------------------*\
| =========                 |                                                 |
| \\      /  F ield         | OpenFOAM: The Open Source CFD Toolbox           |
|  \\    /   O peration     | Version:  4.1                                   |
|   \\  /    A nd           | Web:      www.OpenFOAM.org                      |
|    \\/     M anipulation  |                                                 |
\*---------------------------------------------------------------------------*/
FoamFile
{
    version     2.0;
    format      ascii;
    class       volScalarField;
    location    "1800";
    object      p;
}
// * * * * * * * * * * * * * * * * * * * * * * * * * * * * * * * * * * * * * //

dimensions      [0 2 -2 0 0 0 0];

internalField   nonuniform List<scalar> 
26785
(
457.737
460.931
460.703
460.099
457.968
454.628
449.85
443.594
435.763
426.287
415.082
402.051
387.065
369.954
350.502
328.455
303.545
275.539
244.322
210.013
173.14
134.889
97.3771
63.9934
39.7256
30.6289
41.962
76.6193
134.953
215.276
315.253
431.26
559.03
693.895
830.256
961.099
1077.68
1170.08
1226.41
1233.31
1192.58
1110.45
1001.54
899.04
831.355
793.624
777.283
765.789
754.369
746.625
743.828
744.574
747.226
750.093
752.262
753.852
754.87
755.237
755.662
755.767
755.587
755.291
754.496
752.898
750.136
745.758
739.42
730.933
720.217
707.272
692.186
675.118
656.277
635.912
614.291
591.69
568.385
544.64
520.702
496.793
473.111
449.823
427.064
404.936
383.508
362.809
342.834
323.532
304.806
286.512
268.424
250.287
231.624
212.166
190.62
167.751
138.367
111.651
60.7208
47.4431
457.782
460.942
460.713
460.11
457.98
454.642
449.865
443.611
435.781
426.306
415.102
402.072
387.086
369.976
350.524
328.476
303.563
275.551
244.323
209.994
173.087
134.782
97.1872
63.6859
39.2707
30.0265
41.2392
75.7969
134.043
214.271
314.149
430.027
557.632
692.296
828.431
959.051
1075.46
1167.66
1223.7
1230.91
1189.83
1107.74
999.71
897.262
829.937
792.462
776.835
765.557
754.038
746.208
743.432
744.208
746.916
749.824
751.995
753.59
754.695
755.224
755.677
755.745
755.552
755.271
754.495
752.874
750.065
745.642
739.268
730.749
720.004
707.035
691.929
674.843
655.991
635.617
613.99
591.387
568.083
544.341
520.407
496.506
472.834
449.557
426.812
404.7
383.289
362.612
342.66
323.386
304.695
286.442
268.405
250.335
231.754
212.406
190.984
168.294
138.989
112.691
61.0516
50.0676
457.858
460.965
460.734
460.133
458.005
454.671
449.898
443.648
435.822
426.35
415.148
402.12
387.137
370.028
350.577
328.529
303.611
275.587
244.335
209.96
172.974
134.543
96.7577
62.9865
38.2375
28.666
39.6303
74.0223
132.154
212.232
311.925
427.569
554.862
689.151
824.871
955.098
1071.22
1163.22
1219.03
1226.49
1185.47
1103.72
996.49
894.297
827.676
790.483
776.003
765.21
753.669
745.726
742.949
743.694
746.385
749.3
751.507
753.158
754.333
755.011
755.537
755.668
755.488
755.193
754.406
752.736
749.853
745.363
738.931
730.361
719.568
706.557
691.417
674.305
655.432
635.045
613.411
590.806
567.505
543.771
519.85
495.966
472.314
449.061
426.343
404.262
382.887
362.25
342.345
323.126
304.5
286.327
268.389
250.443
232.02
212.878
191.69
169.339
140.169
114.624
61.4595
55.373
457.945
461.002
460.766
460.167
458.045
454.716
449.949
443.704
435.883
426.415
415.218
402.193
387.213
370.107
350.657
328.607
303.682
275.639
244.349
209.906
172.803
134.184
96.1149
61.9423
36.6943
26.6298
37.2107
71.3337
129.271
209.128
308.545
423.833
550.653
684.369
819.455
949.079
1064.77
1156.55
1212.35
1220.38
1179.81
1098.41
991.943
890.293
824.629
787.645
774.839
764.939
753.457
745.224
742.302
742.982
745.661
748.59
750.822
752.471
753.641
754.493
755.197
755.465
755.318
755.006
754.188
752.461
749.494
744.92
738.41
729.767
718.91
705.844
690.659
673.512
654.614
634.209
612.567
589.961
566.666
542.945
519.044
495.184
471.562
448.344
425.666
403.63
382.307
361.728
341.891
322.751
304.22
286.163
268.367
250.602
232.405
213.559
192.717
170.852
141.913
117.399
61.8657
63.3742
458.021
461.051
460.81
460.215
458.098
454.777
450.018
443.78
435.966
426.504
415.312
402.292
387.315
370.212
350.764
328.71
303.773
275.704
244.36
209.822
172.558
133.681
95.2247
60.5049
34.5786
23.8482
33.9201
67.6965
125.382
204.972
304.034
418.863
545.062
678.019
812.26
941.081
1056.19
1147.71
1203.72
1212.72
1173.15
1092.4
986.6
885.706
821.068
784.171
773.504
764.6
753.228
744.651
741.518
742.141
744.831
747.686
749.787
751.345
752.55
753.691
754.681
755.076
755.003
754.682
753.825
752.029
748.966
744.292
737.687
728.959
718.026
704.897
689.659
672.472
653.545
633.122
611.472
588.868
565.584
541.882
518.007
494.181
470.599
447.428
424.803
402.827
381.571
361.069
341.319
322.282
303.873
285.964
268.352
250.817
232.911
214.444
194.057
172.799
144.271
120.959
62.7645
72.8557
458.074
461.118
460.865
460.276
458.166
454.854
450.104
443.876
436.07
426.615
415.428
402.413
387.44
370.34
350.892
328.834
303.882
275.778
244.368
209.71
172.244
133.044
94.0991
58.6873
31.8996
20.3225
29.7493
63.093
120.466
199.748
298.375
412.638
538.063
670.064
803.232
931.019
1045.36
1136.59
1193.02
1203.43
1165.49
1085.91
980.671
880.829
817.091
780.157
772.049
763.811
752.477
743.673
740.617
741.281
743.822
746.377
748.265
749.759
751.142
752.665
753.981
754.487
754.508
754.192
753.294
751.418
748.252
743.466
736.757
727.935
716.919
703.718
688.424
671.194
652.236
631.796
610.14
587.541
564.273
540.596
516.755
492.971
469.439
446.325
423.765
401.862
380.687
360.278
340.634
321.721
303.459
285.729
268.336
251.078
233.521
215.51
195.682
175.137
147.297
125.261
65.264
81.7176
458.2
461.191
460.933
460.35
458.248
454.948
450.208
443.99
436.193
426.746
415.565
402.554
387.585
370.487
351.039
328.974
304.003
275.858
244.367
209.564
171.854
132.262
92.7267
56.4747
28.6379
16.0307
24.6785
57.5099
114.524
193.465
291.586
405.187
529.691
660.539
792.395
918.893
1032.25
1123.09
1180.09
1192.34
1156.71
1079
974.473
876.04
812.836
775.752
770.584
762.9
751.634
742.741
739.864
740.317
742.443
744.611
746.324
747.835
749.49
751.419
753.047
753.682
753.806
753.509
752.571
750.613
747.336
742.434
735.614
726.691
715.587
702.312
686.959
669.685
650.697
630.241
608.582
585.993
562.745
539.101
515.302
491.569
468.097
445.051
422.567
400.749
379.67
359.368
339.848
321.079
302.988
285.464
268.325
251.384
234.231
216.747
197.567
177.851
150.993
130.353
70.2816
88.0885
458.332
461.279
461.013
460.436
458.345
455.056
450.329
444.123
436.335
426.895
415.72
402.714
387.748
370.651
351.202
329.129
304.135
275.94
244.354
209.382
171.385
131.335
91.1051
53.8617
24.7808
10.9511
18.6801
50.9191
107.536
186.116
283.666
396.515
519.955
649.454
779.752
904.682
1016.78
1107.07
1164.72
1179.17
1146.55
1071.55
968.337
871.508
808.107
770.896
769.241
762.663
751.382
742.319
739.103
739.09
740.708
742.514
744.089
745.66
747.65
749.987
751.859
752.643
752.876
752.612
751.638
749.597
746.209
741.187
734.252
725.226
714.032
700.683
685.271
667.953
648.937
628.468
606.809
584.234
561.014
537.408
513.658
489.985
466.582
443.614
421.218
399.497
378.526
358.347
338.966
320.359
302.461
285.169
268.312
251.725
235.026
218.128
199.674
180.931
155.236
136.535
77.6704
91.285
458.468
461.378
461.104
460.535
458.455
455.18
450.466
444.272
436.494
427.062
415.893
402.89
387.926
370.83
351.377
329.293
304.272
276.019
244.324
209.158
170.835
130.259
89.2311
50.8412
20.3117
5.05609
11.721
43.2885
99.4862
177.701
274.627
386.645
508.889
636.85
765.342
888.407
998.935
1088.44
1146.71
1163.62
1134.67
1063.38
962.654
867.091
802.27
765.162
768.134
762.729
751.499
741.997
738.21
737.61
738.712
740.183
741.619
743.287
745.671
748.409
750.423
751.361
751.705
751.484
750.48
748.358
744.858
739.718
732.668
723.539
712.256
698.834
683.364
666.004
646.963
626.484
604.83
582.275
559.088
535.528
511.836
488.231
464.906
442.027
419.728
398.116
377.266
357.222
337.996
319.568
301.881
284.844
268.296
252.096
235.898
219.627
201.982
184.357
159.866
144.259
86.1899
91.7644
458.6
461.489
461.208
460.647
458.579
455.319
450.619
444.437
436.67
427.245
416.08
403.08
388.117
371.019
351.561
329.463
304.41
276.093
244.274
208.891
170.2
129.032
87.1006
47.404
15.209
-1.6901
3.75747
34.575
90.3476
168.213
264.48
375.602
496.532
622.778
749.226
870.128
978.749
1067.16
1125.89
1145.4
1120.69
1054.28
957.659
862.323
794.65
758.421
767.319
761.967
751.134
741.358
737.069
735.893
736.508
737.652
738.942
740.748
743.544
746.657
748.741
749.829
750.282
750.111
749.084
746.884
743.276
738.02
730.859
721.63
710.261
696.768
681.244
663.846
644.783
624.298
602.655
580.125
556.978
533.471
509.844
486.316
463.079
440.296
418.106
396.613
375.894
355.999
336.94
318.707
301.25
284.488
268.272
252.491
236.831
221.208
204.474
188.041
164.892
153.624
94.29
90.4942
458.726
461.613
461.322
460.771
458.716
455.472
450.787
444.618
436.861
427.443
416.282
403.282
388.318
371.217
351.751
329.637
304.547
276.156
244.2
208.576
169.477
127.652
84.7098
43.5391
9.44626
-9.33108
-5.26125
24.7294
80.088
157.643
253.24
363.42
482.936
607.311
731.497
849.953
956.324
1043.28
1102.21
1124.28
1104.25
1043.94
953.141
856.713
785.353
750.857
766.373
759.723
749.93
740.18
735.615
733.95
734.121
734.936
736.072
738.047
741.233
744.658
746.814
748.04
748.599
748.485
747.441
745.168
741.457
736.091
728.823
719.498
708.048
694.489
678.914
661.482
642.402
621.917
600.289
577.791
554.691
531.244
507.691
484.248
461.106
438.431
416.358
394.994
374.419
354.683
335.804
317.778
300.569
284.099
268.233
252.905
237.808
222.845
207.141
191.81
170.638
164.033
100.902
88.4077
458.908
461.744
461.449
460.907
458.867
455.638
450.969
444.814
437.067
427.654
416.495
403.494
388.526
371.419
351.944
329.808
304.677
276.204
244.098
208.21
168.665
126.114
82.0535
39.233
2.99144
-17.9187
-15.3939
13.696
68.6661
145.977
240.925
350.137
468.165
590.545
712.289
828.051
931.849
1016.98
1075.73
1100.14
1085.02
1031.97
948.487
850.015
775.466
742.708
764.978
756.172
748.01
738.487
733.844
731.789
731.56
732.042
733.024
735.19
738.734
742.381
744.636
745.993
746.654
746.6
745.543
743.202
739.396
733.926
726.559
717.145
705.619
691.999
676.379
658.918
639.826
619.346
597.741
575.281
552.234
528.856
505.384
482.034
458.997
436.437
414.491
393.266
372.843
353.277
334.59
316.785
299.837
283.673
268.176
253.333
238.803
224.522
209.952
195.448
177.584
174.387
105.651
86.1655
459.093
461.887
461.586
461.055
459.03
455.819
451.166
445.024
437.285
427.878
416.718
403.714
388.74
371.624
352.134
329.975
304.796
276.234
243.964
207.789
167.759
124.418
79.126
34.4699
-4.19318
-27.5132
-26.7069
1.41252
56.0324
133.196
227.563
335.807
452.305
572.608
691.781
804.663
905.621
988.556
1046.7
1073.04
1062.8
1017.9
942.899
842.471
766.623
734.376
763.067
751.687
745.586
736.347
731.777
729.419
728.831
728.978
729.82
732.215
736.087
739.85
742.21
743.688
744.446
744.454
743.389
740.985
737.09
731.525
724.067
714.571
702.976
689.301
673.642
656.158
637.06
616.592
595.015
572.601
549.615
526.312
502.929
479.681
456.758
434.322
412.511
391.433
371.172
351.786
333.3
315.726
299.054
283.207
268.094
253.769
239.792
226.243
212.844
198.807
186.005
183.638
108.663
84.13
459.282
462.039
461.735
461.214
459.206
456.012
451.376
445.246
437.517
428.112
416.95
403.94
388.956
371.828
352.32
330.132
304.901
276.24
243.794
207.311
166.757
122.559
75.9204
29.231
-12.1518
-38.1845
-39.2745
-12.1873
42.1331
119.283
213.193
320.503
435.471
553.668
670.217
780.12
878.062
958.505
1015.57
1043.27
1037.56
1001.32
935.585
834.759
760.195
726.197
760.633
746.559
742.802
733.823
729.44
726.852
725.937
725.75
726.485
729.156
733.338
737.089
739.543
741.131
741.979
742.049
740.976
738.514
734.539
728.888
721.347
711.778
700.122
686.399
670.707
653.207
634.109
613.659
592.118
569.756
546.839
523.62
500.335
477.196
454.394
432.09
410.423
389.501
369.409
350.211
331.935
314.602
298.217
282.694
267.984
254.202
240.751
228.017
215.712
201.888
195.651
191.15
110.279
82.4319
459.467
462.2
461.895
461.385
459.393
456.218
451.598
445.482
437.759
428.355
417.189
404.169
389.172
372.027
352.498
330.275
304.986
276.219
243.583
206.771
165.657
120.533
72.4285
23.4942
-20.9359
-50.0129
-53.1771
-27.1665
26.9276
104.239
197.886
304.327
417.815
533.943
647.898
754.832
849.704
927.467
983.03
1011.41
1009.58
982.018
925.908
827.398
756.661
718.421
757.765
741.054
739.749
730.967
726.858
724.097
722.88
722.364
723.031
725.994
730.457
734.118
736.645
738.331
739.264
739.391
738.31
735.791
731.744
726.016
718.401
708.767
697.058
683.294
667.577
650.067
630.978
610.552
589.054
566.753
543.912
520.785
497.604
474.584
451.91
429.747
408.23
387.472
367.558
348.556
330.497
313.413
297.324
282.129
267.841
254.618
241.663
229.86
218.443
204.892
205.72
196.693
110.851
81.0538
459.653
462.373
462.065
461.568
459.593
456.437
451.833
445.728
438.011
428.607
417.433
404.4
389.385
372.219
352.662
330.401
305.047
276.166
243.328
206.166
164.455
118.337
68.641
17.2342
-30.6047
-63.0867
-68.4919
-43.5625
10.423
88.1109
181.742
287.415
399.524
513.681
625.158
729.244
821.135
896.181
949.942
978.336
979.471
960.053
913.331
820.681
755.885
711.309
754.547
735.338
736.483
727.826
724.057
721.168
719.666
718.828
719.467
722.706
727.371
730.954
733.535
735.304
736.313
736.489
735.395
732.821
728.71
722.912
715.232
705.542
693.787
679.991
664.256
646.744
627.67
607.277
585.83
563.597
540.841
517.812
494.745
471.849
449.312
427.296
405.939
385.35
365.62
346.821
328.984
312.157
296.371
281.503
267.661
254.998
242.52
231.777
220.938
208.149
215.151
200.284
110.655
79.9065
459.886
462.551
462.246
461.761
459.805
456.667
452.079
445.985
438.273
428.865
417.68
404.629
389.593
372.4
352.812
330.505
305.08
276.076
243.025
205.493
163.147
115.966
64.5473
10.4218
-41.2248
-77.4984
-85.2806
-61.3668
-7.30369
70.9939
164.891
269.929
380.797
493.133
602.312
703.763
792.885
865.341
917.174
945.039
948.136
935.859
897.458
814.69
757.676
705.264
751.067
729.504
733.034
724.438
721.065
718.081
716.306
715.161
715.811
719.312
724.065
727.612
730.233
732.071
733.147
733.361
732.242
729.613
725.441
719.582
711.844
702.106
690.314
676.493
660.747
643.241
624.19
603.838
582.45
560.292
537.628
514.707
491.76
468.998
446.605
424.743
403.55
383.138
363.598
345.008
327.398
310.833
295.352
280.812
267.437
255.319
243.324
233.769
223.141
212.006
223.07
202.114
109.895
78.8832
460.119
462.739
462.437
461.964
460.027
456.908
452.336
446.252
438.542
429.129
417.929
404.857
389.793
372.568
352.941
330.584
305.081
275.946
242.668
204.747
161.731
113.414
60.1351
3.02391
-52.8686
-93.3375
-103.574
-80.5074
-26.0922
53.039
147.492
252.038
361.82
472.504
579.591
678.658
765.298
835.419
885.397
912.437
916.593
910.165
878.095
809.336
761.974
700.09
747.376
723.6
729.418
720.842
717.905
714.855
712.817
711.388
712.096
715.856
720.598
724.122
726.772
728.663
729.794
730.025
728.866
726.176
721.947
716.03
708.242
698.464
686.642
672.804
657.056
639.564
620.543
600.24
578.918
556.844
534.281
511.475
488.656
466.034
443.791
422.091
401.07
380.839
361.495
343.116
325.737
309.438
294.262
280.048
267.156
255.558
244.078
235.821
225.074
216.693
229.114
202.526
108.736
77.8941
460.353
462.935
462.638
462.178
460.26
457.16
452.603
446.529
438.819
429.396
418.178
405.079
389.982
372.719
353.048
330.633
305.044
275.77
242.255
203.925
160.203
110.677
55.3904
-4.99567
-65.6119
-110.681
-123.354
-100.834
-45.6976
34.452
129.703
233.892
342.733
451.915
557.096
654.012
738.46
806.56
854.912
881.116
885.698
883.833
855.345
804.385
767.829
695.211
743.411
717.643
725.638
717.071
714.603
711.512
709.223
707.552
708.406
712.425
717.041
720.528
723.193
725.121
726.291
726.507
725.282
722.524
718.237
712.265
704.433
694.62
682.775
668.929
653.186
635.715
616.733
596.487
575.24
553.258
530.803
508.119
485.437
462.961
440.877
419.343
398.499
378.455
359.311
341.148
324.001
307.97
293.095
279.205
266.806
255.688
244.791
237.876
226.784
222.208
233.399
201.943
107.332
76.8798
460.584
463.139
462.85
462.403
460.505
457.422
452.88
446.813
439.102
429.667
418.426
405.295
390.159
372.851
353.128
330.648
304.967
275.545
241.78
203.024
158.559
107.748
50.2981
-13.676
-79.5298
-129.583
-144.543
-122.123
-65.8254
15.4694
111.665
215.602
323.614
431.405
534.812
629.751
712.24
778.613
825.637
851.227
855.926
857.623
829.624
799.525
772.667
690.459
739.008
711.644
721.689
713.161
711.187
708.079
705.559
703.716
704.821
709.079
713.462
716.889
719.552
721.495
722.679
722.836
721.511
718.673
714.323
708.297
700.423
690.581
678.721
664.872
649.142
631.7
612.765
592.584
571.42
549.539
527.199
504.646
482.107
459.785
437.865
416.504
395.842
375.99
357.048
339.104
322.189
306.427
291.844
278.277
266.366
255.686
245.45
239.858
228.347
228.301
236.304
200.777
105.819
75.8108
460.818
463.351
463.07
462.637
460.759
457.695
453.167
447.106
439.39
429.939
418.671
405.502
390.32
372.96
353.178
330.626
304.844
275.265
241.24
202.038
156.794
104.619
44.8415
-23.0575
-94.6933
-150.063
-166.997
-144.114
-86.2004
-3.68848
93.4873
197.238
304.491
410.954
512.665
605.732
686.417
751.287
797.261
822.576
827.328
832.035
801.539
794.16
772.602
685.636
733.888
705.616
717.557
709.146
707.684
704.587
701.865
699.936
701.36
705.791
709.93
713.278
715.917
717.848
718.998
719.036
717.574
714.642
710.22
704.137
696.222
686.355
674.485
660.64
644.93
627.525
608.645
588.537
567.464
545.69
523.475
501.06
478.67
456.51
434.759
413.577
393.101
373.444
354.709
336.983
320.301
304.804
290.505
277.256
265.817
255.531
246.019
241.668
229.876
234.556
238.246
199.344
104.301
74.6779
461.094
463.569
463.301
462.881
461.023
457.977
453.462
447.405
439.683
430.212
418.912
405.699
390.464
373.044
353.194
330.562
304.671
274.927
240.63
200.965
154.905
101.284
39.0026
-33.1814
-111.164
-172.103
-190.521
-166.559
-106.635
-22.846
75.2348
178.838
285.362
390.531
490.586
581.84
660.813
724.327
769.458
794.84
799.675
807.268
771.684
787.283
762.794
680.26
727.668
699.572
713.225
705.067
704.129
701.069
698.189
696.297
698.102
702.573
706.524
709.782
712.365
714.243
715.281
715.126
713.494
710.451
705.944
699.798
691.842
681.951
670.074
656.24
640.556
623.196
604.378
584.35
563.376
541.719
519.635
497.365
475.132
453.139
431.563
410.565
390.28
370.821
352.293
334.786
318.336
303.1
289.073
276.136
265.138
255.203
246.443
243.129
231.365
240.452
239.459
197.802
102.837
73.4821
461.367
463.794
463.541
463.135
461.298
458.269
453.765
447.711
439.979
430.484
419.147
405.884
390.588
373.1
353.174
330.453
304.444
274.525
239.946
199.8
152.888
97.7343
32.763
-44.0877
-128.991
-195.637
-214.885
-189.272
-127.037
-41.8759
56.9319
160.424
266.227
370.126
468.556
558.039
635.361
697.612
742.027
767.76
772.672
783.317
740.496
777.761
739.564
673.723
719.895
693.523
708.674
700.966
700.558
697.574
694.615
692.955
695.209
699.543
703.339
706.491
708.977
710.73
711.549
711.128
709.3
706.122
701.514
695.295
687.293
677.379
665.498
651.678
636.027
618.718
599.969
580.03
559.162
537.629
515.684
493.567
471.498
449.677
428.283
407.471
387.381
368.122
349.804
332.514
316.294
301.311
287.545
274.91
264.31
254.687
246.668
244.06
232.649
245.429
239.952
196.166
101.438
72.2272
461.639
464.026
463.791
463.398
461.582
458.57
454.077
448.023
440.278
430.755
419.375
406.055
390.691
373.126
353.114
330.294
304.159
274.056
239.183
198.539
150.736
93.9611
26.1034
-55.8137
-148.205
-220.552
-239.85
-212.143
-147.395
-60.7356
38.5927
142.013
247.1
349.763
446.605
534.369
610.095
671.156
714.922
741.218
746.108
760.1
708.248
764.74
702.265
665.422
710.123
687.493
703.892
696.894
697.021
694.168
691.255
690.072
692.783
696.856
700.469
703.485
705.81
707.323
707.808
707.07
705.02
701.679
696.949
690.644
682.589
672.649
660.766
646.964
631.35
614.098
595.425
575.582
554.829
533.427
511.628
489.67
467.771
446.129
424.92
404.301
384.407
365.352
347.242
330.169
314.175
299.436
285.917
273.571
263.318
253.973
246.631
244.426
233.563
249.024
239.678
194.389
100.087
70.9162
461.907
464.266
464.05
463.67
461.876
458.879
454.396
448.34
440.579
431.024
419.594
406.21
390.77
373.118
353.011
330.082
303.811
273.514
238.337
197.177
148.445
89.9552
19.0047
-68.3925
-168.812
-246.69
-265.192
-235.134
-167.753
-79.4762
20.24
123.63
228.019
329.497
424.807
510.918
585.116
645.056
688.206
715.214
719.908
737.536
675.164
747.875
652.918
654.801
698.05
681.531
698.888
692.913
693.574
690.919
688.223
687.779
690.792
694.601
697.98
700.8
702.852
703.989
704.065
702.986
700.682
697.146
692.269
685.863
677.745
667.775
655.888
642.106
626.534
609.344
590.754
571.013
550.381
529.118
507.472
485.68
463.957
442.499
421.481
401.057
381.363
362.511
344.611
327.751
311.979
297.473
284.189
272.114
262.153
253.056
246.266
244.244
233.986
251.007
238.639
192.405
98.7473
69.5505
462.181
464.513
464.319
463.952
462.179
459.197
454.722
448.662
440.881
431.289
419.805
406.349
390.822
373.074
352.861
329.813
303.396
272.896
237.403
195.711
146.01
85.707
11.4484
-81.8505
-190.797
-273.862
-290.731
-258.242
-188.15
-98.1804
1.90388
105.318
209.045
309.406
403.256
487.797
560.543
619.442
661.992
689.816
694.103
715.542
641.55
727.357
594.667
641.295
683.664
675.732
693.697
689.091
690.274
687.908
685.663
686.127
689.169
692.747
695.861
698.374
700.021
700.697
700.345
698.905
696.311
692.547
687.497
680.97
672.777
662.769
650.875
637.114
621.587
604.463
585.962
566.33
545.826
524.708
503.223
481.603
460.061
438.792
417.968
397.743
378.25
359.604
341.911
325.262
309.708
295.423
282.361
270.535
260.81
251.937
245.545
243.47
233.847
251.375
236.849
190.146
97.3796
68.1311
462.492
464.764
464.596
464.244
462.491
459.523
455.055
448.988
441.184
431.551
420.005
406.469
390.848
372.992
352.662
329.484
302.91
272.197
236.377
194.134
143.424
81.2065
3.4171
-96.2064
-214.119
-301.876
-316.366
-281.466
-208.605
-116.907
-16.3705
87.1306
190.254
289.58
382.054
465.121
536.5
594.445
636.406
665.107
668.803
694.016
607.901
703.82
530.821
624.266
667.307
670.221
688.392
685.501
687.196
685.252
683.732
685.042
687.925
691.213
693.992
696.079
697.253
697.465
696.68
694.851
691.933
687.906
682.655
675.985
667.7
657.645
645.741
631.999
616.518
599.464
581.057
561.54
541.171
520.204
498.886
477.444
456.089
435.013
414.387
394.363
375.074
356.632
339.146
322.704
307.362
293.286
280.433
268.833
259.292
250.62
244.475
242.103
233.137
250.246
234.332
187.567
95.9509
66.6596
462.8
465.023
464.884
464.544
462.812
459.858
455.394
449.318
441.488
431.807
420.193
406.57
390.843
372.87
352.411
329.091
302.349
271.412
235.254
192.443
140.681
76.4437
-5.10492
-111.471
-238.723
-330.563
-342.06
-304.773
-229.134
-135.668
-34.5213
69.1368
171.732
270.115
361.303
442.999
513.105
570.192
611.572
641.175
644.177
672.815
574.937
678.064
464.321
602.926
649.64
665.13
683.079
682.23
684.435
683.069
682.477
684.278
686.977
689.863
692.225
693.846
694.559
694.316
693.085
690.843
687.568
683.247
677.764
670.927
662.533
652.419
640.498
626.773
611.338
594.357
576.047
556.65
536.421
515.613
494.467
473.208
452.046
431.168
410.743
390.922
371.837
353.6
336.318
320.079
304.943
291.063
278.409
267.011
257.603
249.114
243.082
240.257
231.934
247.836
231.146
184.659
94.441
65.1396
463.106
465.288
465.18
464.854
463.142
460.2
455.739
449.651
441.791
432.058
420.369
406.649
390.808
372.705
352.105
328.631
301.709
270.538
234.031
190.631
137.774
71.4083
-14.1312
-127.644
-264.541
-359.787
-367.818
-328.075
-249.683
-154.423
-52.4769
51.4138
153.568
251.105
341.105
421.54
490.466
546.794
587.616
618.1
620.437
651.782
543.587
650.577
396.836
576.507
631.575
660.569
677.907
679.355
682.056
681.394
681.736
683.668
686.134
688.58
690.5
691.678
691.95
691.252
689.566
686.892
683.236
678.589
672.846
665.816
657.294
647.107
635.159
621.446
606.057
589.151
570.941
551.669
531.586
510.941
489.973
468.903
447.937
427.26
407.04
387.424
368.543
350.511
333.43
317.391
302.455
288.758
276.29
265.071
255.755
247.434
241.401
238.104
230.451
244.452
227.398
181.445
92.8442
63.5768
463.408
465.56
465.487
465.172
463.482
460.55
456.09
449.988
442.093
432.303
420.532
406.707
390.74
372.495
351.742
328.1
300.986
269.57
232.701
188.693
134.695
66.0905
-23.6726
-144.72
-291.5
-389.459
-393.655
-351.243
-270.101
-173.098
-70.159
34.0427
135.855
232.643
321.553
400.837
468.682
524.354
564.658
595.954
597.837
630.786
514.956
621.243
327.913
544.659
614.172
656.6
673.062
676.954
680.163
680.253
681.278
683.145
685.292
687.317
688.816
689.572
689.409
688.262
686.121
683.009
678.95
673.952
667.92
660.671
651.999
641.724
629.739
616.033
600.686
583.855
565.748
546.605
526.672
506.196
485.411
464.534
443.769
423.296
403.282
383.872
365.197
347.368
330.486
314.641
299.898
286.374
274.08
263.019
253.758
245.594
239.46
235.74
228.787
240.325
223.215
177.977
91.1681
61.9793
463.718
465.839
465.802
465.501
463.83
460.907
456.448
450.327
442.394
432.541
420.681
406.741
390.637
372.238
351.318
327.495
300.177
268.503
231.26
186.624
131.437
60.4806
-33.7367
-162.679
-319.524
-419.521
-419.568
-374.146
-290.268
-191.598
-87.4882
17.1043
118.677
214.813
302.729
380.975
447.833
502.953
542.809
574.804
576.646
609.757
490.247
589.417
256.283
507.909
598.512
653.247
668.763
675.06
678.716
679.505
680.89
682.626
684.434
686.062
687.159
687.502
686.917
685.335
682.75
679.197
674.722
669.35
663.004
655.511
646.668
636.287
624.253
610.546
595.238
578.48
560.478
541.466
521.688
501.385
480.787
460.108
439.546
419.281
399.475
380.272
361.801
344.175
327.489
311.834
297.277
283.915
271.784
260.861
251.625
243.607
237.291
233.205
226.816
235.562
218.737
174.327
89.4319
60.3579
464.063
466.123
466.128
465.838
464.187
461.273
456.81
450.67
442.693
432.771
420.814
406.751
390.5
371.933
350.831
326.813
299.277
267.334
229.704
184.416
127.992
54.5692
-44.3275
-181.495
-348.539
-449.937
-445.545
-396.737
-310.153
-209.823
-104.387
0.673599
102.11
197.684
284.702
362.017
427.987
482.654
522.168
554.71
557.126
588.715
470.635
554.422
183.232
467.961
585.579
650.523
665.219
673.66
677.608
679.022
680.533
682.073
683.544
684.8
685.504
685.447
684.458
682.46
679.443
675.455
670.558
664.796
658.113
650.353
641.315
630.81
618.715
604.997
589.723
573.037
555.14
536.262
516.642
496.515
476.108
455.63
435.275
415.219
395.623
376.628
358.361
340.935
324.442
308.972
294.595
281.385
269.405
258.606
249.371
241.485
234.921
230.517
224.514
230.323
214.09
170.569
87.6633
58.7257
464.404
466.415
466.464
466.185
464.553
461.645
457.178
451.014
442.991
432.994
420.933
406.736
390.325
371.578
350.28
326.052
298.284
266.059
228.026
182.063
124.351
48.3479
-55.4455
-201.137
-378.475
-480.677
-471.577
-419.034
-329.712
-227.7
-120.782
-15.1842
86.217
181.314
267.521
344.01
409.19
463.5
502.811
535.724
539.494
567.787
457.044
516.218
114.249
427.798
576.109
648.47
662.604
672.718
676.602
678.603
680.111
681.489
682.615
683.51
683.836
683.395
682.019
679.622
676.192
671.777
666.459
660.297
653.259
645.21
635.957
625.31
613.138
599.4
584.154
567.537
549.744
531.001
511.541
491.595
471.382
451.107
430.961
411.116
391.731
372.944
354.879
337.651
321.348
306.058
291.855
278.788
266.95
256.261
247.007
239.239
232.383
227.674
221.976
224.756
209.343
166.77
85.8972
57.0978
464.745
466.713
466.809
466.542
464.929
462.026
457.552
451.361
443.286
433.209
421.036
406.696
390.113
371.172
349.662
325.208
297.193
264.672
226.222
179.558
120.505
41.8085
-67.0879
-221.566
-409.264
-511.697
-497.642
-441.065
-348.866
-245.179
-136.61
-30.4166
71.0472
165.741
251.22
326.984
391.472
445.512
484.792
517.902
523.897
547.232
449.501
476.127
57.3402
391.363
570.505
647.181
660.956
671.945
675.555
678.13
679.571
680.835
681.635
682.182
682.144
681.331
679.585
676.808
672.981
668.156
662.422
655.857
648.452
640.096
630.609
619.801
607.537
593.768
578.542
561.99
544.301
525.692
506.394
486.63
466.614
446.546
426.61
406.978
387.803
369.223
351.36
334.328
318.21
303.096
289.06
276.13
264.423
253.834
244.547
236.881
229.709
224.677
219.239
218.92
204.535
163
84.1743
55.4912
465.082
467.019
467.165
466.908
465.313
462.413
457.931
451.71
443.579
433.415
421.122
406.629
389.862
370.712
348.974
324.279
296.002
263.17
224.286
176.893
116.444
34.9436
-79.2488
-242.744
-440.839
-542.928
-523.708
-462.904
-367.581
-262.208
-151.826
-44.984
56.6349
150.991
235.82
310.951
374.846
428.698
468.141
501.302
510.381
527.533
447.549
436.003
20.6474
362.605
568.937
646.724
660.149
671.216
674.679
677.593
678.918
680.087
680.591
680.803
680.415
679.245
677.141
674.002
669.799
664.581
658.443
651.476
643.698
635.02
625.28
614.295
601.925
588.114
572.9
556.408
538.819
520.345
501.209
481.629
461.811
441.951
422.228
402.808
383.843
365.47
347.807
330.967
315.033
300.089
286.214
273.414
261.829
251.334
242.003
234.423
226.929
221.515
216.32
212.865
199.704
159.332
82.5392
53.9236
465.431
467.333
467.532
467.284
465.707
462.809
458.315
452.06
443.87
433.612
421.192
406.535
389.572
370.198
348.217
323.263
294.707
261.549
222.212
174.059
112.159
27.7462
-91.9194
-264.627
-473.124
-574.263
-549.75
-484.657
-385.867
-278.746
-166.394
-58.8586
43.0042
137.078
221.329
295.915
359.314
413.052
452.856
485.987
498.897
509.377
451.281
397.125
10.9541
345.122
571.452
647.089
659.864
670.165
673.82
676.97
678.175
679.234
679.473
679.366
678.641
677.124
674.677
671.191
666.632
661.04
654.512
647.152
638.998
629.99
619.983
608.805
596.314
582.448
567.238
550.8
533.308
514.968
495.995
476.599
456.98
437.328
417.818
398.611
379.856
361.688
344.223
327.573
311.818
297.04
283.321
270.646
259.173
248.768
239.388
231.877
224.076
218.163
213.235
206.647
194.897
155.843
81.0376
52.4128
465.811
467.653
467.91
467.671
466.11
463.211
458.704
452.413
444.157
433.801
421.245
406.415
389.243
369.629
347.387
322.156
293.305
259.803
219.992
171.047
107.637
20.21
-105.088
-287.173
-506.037
-605.581
-575.747
-506.437
-403.751
-294.771
-180.29
-72.0205
30.1717
124.012
207.75
281.87
344.87
398.563
438.917
472.025
489.301
493.481
461.112
360.797
32.0236
342.194
577.822
648.139
659.654
668.738
672.788
676.199
677.321
678.279
678.273
677.86
676.811
674.96
672.182
668.364
663.466
657.52
650.621
642.879
634.353
625.009
614.724
603.339
590.714
576.782
561.567
545.177