/*--------------------------------*- C++ -*----------------------------------*\
| =========                 |                                                 |
| \\      /  F ield         | OpenFOAM: The Open Source CFD Toolbox           |
|  \\    /   O peration     | Version:  4.1                                   |
|   \\  /    A nd           | Web:      www.OpenFOAM.org                      |
|    \\/     M anipulation  |                                                 |
\*---------------------------------------------------------------------------*/
FoamFile
{
    version     2.0;
    format      ascii;
    class       surfaceScalarField;
    location    "1800";
    object      phi;
}
// * * * * * * * * * * * * * * * * * * * * * * * * * * * * * * * * * * * * * //

dimensions      [0 3 -1 0 0 0 0];

internalField   nonuniform List<scalar> 
52920
(
-5447.87
141.606
-5595.62
147.747
-5741.63
146.016
-5888.25
146.619
-6036.84
148.595
-6189.63
152.788
-6349.18
159.553
-6518.36
169.19
-6700.3
181.934
-6898.22
197.93
-7115.46
217.242
-7355.3
239.844
-7620.91
265.607
-7915.18
294.279
-8240.64
325.458
-8599.19
358.554
-8991.93
392.741
-9418.82
426.896
-9878.32
459.499
-10366.8
488.492
-10877.8
511.002
-11400.8
522.961
-11919.6
518.87
-12411.5
491.822
-12845.7
434.248
-13187.3
341.573
-13404.4
217.133
-13474.5
70.1083
-13382.1
-92.3925
-13116.5
-265.606
-12667.9
-448.571
-12029.7
-638.247
-11194.2
-835.48
-10150.8
-1043.39
-8887.02
-1263.8
-7390.39
-1496.63
-5654.51
-1735.88
-3690.57
-1963.94
-1519.66
-2170.91
808.892
-2328.55
2894.9
-2086.01
4580.99
-1686.09
5811.55
-1230.56
6380.57
-569.02
6423.34
-42.7614
6106.9
316.434
5855.83
251.075
5815.25
40.5847
5791.5
23.7524
5594.64
196.862
5185.82
408.818
4606.85
578.973
3938.43
668.427
3257.96
680.471
2593.77
664.196
1925.08
668.692
1279.61
645.475
834.83
444.781
594.877
239.966
434.572
160.327
453.297
-18.7151
650.179
-196.878
997.67
-347.486
1471.26
-473.593
2040.83
-569.56
2682.99
-642.16
3379.41
-696.418
4115.75
-736.344
4880.13
-764.377
5662.38
-782.244
6453.71
-791.332
7246.54
-792.824
8034.3
-787.761
8811.36
-777.061
9572.9
-761.536
10314.8
-741.898
11033.6
-718.77
11726.3
-692.701
12390.4
-664.178
13024.1
-633.638
13625.6
-601.483
14193.7
-568.088
14727.5
-533.82
15226.5
-499.044
15690.7
-464.15
16120.2
-429.569
16516
-395.808
16879.5
-363.5
17213
-333.458
17519.8
-306.811
17804.8
-285.018
18075.1
-270.249
18340
-264.949
18614.6
-274.574
18914.7
-300.112
19275.3
-360.554
19694.1
-418.845
20311.1
-617.035
20924.1
-612.92
-1276.66
-5509.08
288.054
-5662.79
301.46
-5815.19
298.417
-5968.98
300.415
-6125.49
305.111
-6287
314.296
-6456.07
328.628
-6635.6
348.724
-6828.72
375.058
-7038.73
407.945
-7269.05
447.556
-7523.09
493.897
-7804.27
546.781
-8115.77
605.787
-8460.5
670.191
-8840.83
738.883
-9258.34
810.257
-9713.52
882.072
-10205.3
951.258
-10730.4
1013.61
-11282.6
1063.25
-11851.5
1091.82
-12420.6
1087.96
-12966.1
1037.35
-13456.1
924.218
-13853.3
738.793
-14123.6
487.451
-14242.8
189.322
-14196.8
-138.417
-13978.7
-483.71
-13580.2
-847.034
-12993.6
-1224.86
-12211.2
-1617.89
-11222.6
-2032.03
-10016.4
-2469.94
-8583.34
-2929.71
-6921.64
-3397.59
-5043.68
-3841.9
-2981.02
-4233.57
-808.832
-4500.73
1388.44
-4283.27
3292.63
-3590.28
4649.28
-2587.2
5358.97
-1278.71
5514.3
-198.089
5211.68
619.06
4911.3
551.457
4852.82
99.062
4882.67
-6.09594
4787.35
292.192
4497.58
698.585
4033.55
1043
3458.76
1243.23
2826.88
1312.35
2153.91
1337.17
1464.18
1358.43
839.773
1269.89
340.504
944.054
-43.9077
624.392
-45.9346
162.378
193.535
-258.173
499.955
-503.293
910.912
-758.439
1420.46
-983.144
2009.87
-1158.96
2660.54
-1292.83
3358.28
-1394.15
4091.08
-1469.15
4848.31
-1521.61
5620.53
-1554.45
6399.42
-1570.23
7177.81
-1571.21
7949.46
-1559.41
8709.04
-1536.63
9451.94
-1504.44
10174.2
-1464.2
10872.6
-1417.12
11544.2
-1364.3
12186.7
-1306.68
12798.2
-1245.17
13377.3
-1180.56
13922.9
-1113.64
14434.2
-1045.14
14910.9
-975.812
15353.2
-906.443
15761.6
-837.915
16137
-771.253
16481.3
-707.743
16796.8
-649.018
17087.4
-597.325
17357.9
-555.559
17615.6
-527.92
17869.9
-519.304
18135.7
-540.309
18429.3
-593.783
18781.8
-713.029
19195.2
-832.227
19815
-1236.83
20409
-1206.91
-2582.54
-5589.56
446.916
-5748.6
460.495
-5908.63
458.454
-6070.47
462.259
-6235.93
470.569
-6407.19
485.561
-6586.84
508.284
-6777.75
539.635
-6983.01
580.32
-7205.89
630.821
-7449.75
691.422
-7718.02
762.173
-8014.09
842.854
-8341.19
932.888
-8702.24
1031.24
-9099.64
1136.28
-9534.94
1245.57
-10008.6
1355.69
-10519.2
1461.93
-11063.5
1557.87
-11634.7
1634.53
-12222.2
1679.26
-12809.2
1674.93
-13371.8
1599.99
-13878.4
1430.81
-14292.5
1152.89
-14581.3
776.307
-14722.6
330.572
-14703.1
-157.93
-14515
-671.753
-14150
-1212.08
-13600.3
-1774.5
-12858.4
-2359.83
-11913.7
-2976.76
-10754.6
-3628.99
-9371.53
-4312.8
-7762.5
-5006.62
-5940.81
-5663.58
-3946.54
-6227.84
-1855.83
-6591.44
279.416
-6418.52
2238.6
-5549.47
3715.2
-4063.8
4556
-2119.51
4814.38
-456.464
4541.23
892.207
4225.19
867.503
4144.96
179.294
4168.86
-29.9866
4079.99
381.061
3830.11
948.47
3421.03
1452.09
2864.31
1799.94
2185.46
1991.2
1434.16
2088.47
722.671
2069.92
185.41
1807.15
-149.047
1278.52
-269.503
744.859
-161.152
54.038
73.2003
-492.518
421.012
-851.103
862.695
-1200.12
1388.65
-1509.1
1985.21
-1755.52
2638.4
-1946.02
3335.48
-2091.23
4064.88
-2198.55
4816.23
-2272.96
5580.37
-2318.6
6349.33
-2339.19
7116.21
-2338.09
7875.06
-2318.27
8620.77
-2282.34
9348.94
-2232.6
10055.8
-2171.05
10738.1
-2099.47
11393.3
-2019.47
12019.1
-1932.47
12613.7
-1839.81
13175.9
-1742.71
13704.6
-1642.31
14199.2
-1539.75
14659.5
-1436.14
15085.7
-1332.69
15478.5
-1230.71
15839
-1131.74
16169
-1037.73
16471.1
-951.113
16749
-875.201
17007.7
-814.248
17254.1
-774.325
17497.8
-763.029
17752.9
-795.361
18035.5
-876.412
18371.1
-1048.63
18784
-1245.15
19392.8
-1845.64
19926.8
-1740.89
-3973.73
-5669.33
616.132
-5832.77
623.939
-5999.13
624.81
-6167.54
630.679
-6340.26
643.294
-6519.39
664.688
-6707.49
696.389
-6907.38
739.524
-7122.07
795.012
-7354.73
863.485
-7608.63
945.329
-7887.09
1040.63
-8193.38
1149.14
-8530.63
1270.14
-8901.7
1402.31
-9308.91
1543.5
-9753.84
1690.5
-10236.9
1838.75
-10757
1981.99
-11310.8
2111.66
-11892.1
2215.86
-12490.7
2277.82
-13090.4
2274.72
-13668.2
2177.71
-14192.3
1954.95
-14626
1586.63
-14936
1086.22
-15099.4
493.985
-15103.9
-153.422
-14943.3
-832.331
-14610.6
-1544.75
-14098.2
-2286.9
-13398.4
-3059.66
-12500.1
-3875.05
-11390.7
-4738.42
-10058.4
-5645.09
-8498.12
-6566.9
-6719.53
-7442.17
-4762.23
-8185.13
-2705.19
-8648.48
-615.983
-8507.73
1364.27
-7529.71
2949.66
-5649.19
3892.13
-3061.98
4248.08
-812.411
4021.19
1119.1
3685.44
1203.27
3574.83
289.906
3640.11
-95.2622
3593.98
427.19
3316.87
1225.59
2810.77
1958.18
2112.49
2498.23
1296.53
2807.16
499.876
2885.13
-92.7939
2662.59
-401.782
2116.15
-514.151
1390.89
-458.981
689.696
-268.345
-136.593
-4.40303
-756.454
362.225
-1217.73
821.54
-1659.43
1358.1
-2045.65
1960.25
-2357.67
2615.44
-2601.2
3311.49
-2787.28
4037.25
-2924.3
4782.73
-3018.44
5539.15
-3075.02
6298.86
-3098.9
7055.24
-3094.46
7802.57
-3065.59
8535.91
-3015.69
9251.02
-2947.72
9944.28
-2864.31
10612.6
-2767.81
11253.5
-2660.32
11864.8
-2543.76
12444.8
-2419.89
12992.5
-2290.33
13506.8
-2156.62
13987.3
-2020.25
14433.8
-1882.7
14846.7
-1745.58
15226.7
-1610.64
15574.8
-1479.92
15893.1
-1355.98
16184
-1242.02
16451.2
-1142.35
16699.3
-1062.44
16935.3
-1010.23
17168.4
-996.166
17410.8
-1037.73
17677.5
-1143.13
17996.4
-1367.51
18414.3
-1663.06
18959.1
-2390.5
19436.3
-2218.04
-5581.84
-5740.79
791.83
-5907.58
790.735
-6078.47
795.697
-6251.59
803.805
-6429.49
821.195
-6614.19
849.388
-6808.25
890.448
-7014.41
945.688
-7235.62
1016.23
-7474.97
1102.83
-7735.61
1205.98
-8020.77
1325.79
-8333.63
1462
-8677.27
1613.79
-9054.54
1779.58
-9467.83
1956.79
-9918.85
2141.51
-10408.2
2328.15
-10935.2
2508.95
-11496.9
2673.32
-12087.5
2806.51
-12697.3
2887.57
-13310.4
2887.9
-13903.8
2771.08
-14445.5
2496.63
-14898
2039.1
-15227.4
1415.64
-15411.6
678.205
-15439.7
-125.354
-15307
-964.986
-15008.3
-1843.41
-14536.1
-2759.11
-13882.7
-3713.09
-13036.3
-4721.42
-11982.6
-5792.09
-10706.9
-6920.84
-9198.97
-8074.81
-7462.19
-9178.95
-5529.91
-10117.4
-3477.17
-10701.2
-1383.99
-10600.9
627.204
-9540.91
2305.69
-7327.67
3336.93
-4093.22
3776.76
-1252.24
3576.82
1319.03
3260.06
1520.03
3217.7
332.268
3363.3
-240.862
3250.67
539.828
2759.34
1716.92
1992.22
2725.31
1083.73
3406.73
224.032
3666.86
-388.286
3497.45
-698.771
2973.08
-793.485
2210.86
-776.564
1373.97
-619.051
532.191
-377.64
-377.999
-76.927
-1057.16
310.444
-1605.1
783.482
-2132.46
1329.17
-2591.34
1936.16
-2964.67
2592.69
-3257.73
3287.21
-3481.8
4009.05
-3646.14
4748.64
-3758.03
5497.58
-3823.95
6248.51
-3849.83
6995.09
-3841.03
7731.77
-3802.28
8453.78
-3737.7
9157.02
-3650.95
9837.96
-3545.25
10493.7
-3423.51
11121.7
-3288.34
11720.1
-3142.13
12287.2
-2987.06
12822
-2825.15
13323.7
-2658.32
13791.9
-2488.41
14226.5
-2317.29
14627.8
-2146.91
14996.7
-1979.47
15334.2
-1817.46
15642.3
-1664.04
15923.4
-1523.12
16180.8
-1399.83
16419.2
-1300.81
16645
-1236.07
16867.1
-1218.19
17093.7
-1264.33
17342.3
-1391.8
17651.8
-1677
18052.9
-2064.16
18467.4
-2804.94
19002.5
-2753.18
-7582.83
-5799.31
955.028
-5972.17
963.602
-6145.28
968.806
-6321.78
980.312
-6503.15
1002.56
-6691.64
1037.88
-6889.74
1088.55
-7100.18
1156.13
-7325.84
1241.9
-7569.75
1346.75
-7835.02
1471.24
-8124.8
1615.57
-8442.25
1779.46
-8790.46
1962.01
-9172.34
2161.46
-9590.39
2374.85
-10046.5
2597.63
-10541.6
2823.22
-11075
3042.43
-11644.3
3242.63
-12244
3406.19
-12864.5
3508.03
-13490.3
3513.72
-14098.4
3379.22
-14657
3055.22
-15128.2
2510.28
-15478
1765.4
-15684.6
884.884
-15738.4
-71.6119
-15636.2
-1067.11
-15375
-2104.65
-14947.4
-3186.69
-14346
-4314.53
-13558.4
-5509
-12568.6
-6781.9
-11358.3
-8131.12
-9911.43
-9521.7
-8222.49
-10867.9
-6313.88
-12026
-4250.63
-12764.5
-2121.13
-12730.4
-54.1374
-11607.9
1736.42
-9118.22
2859.52
-5216.31
3373.96
-1766.68
3206.56
1486.44
2962.31
1764.29
2987.95
306.625
3090.51
-343.415
2698.09
932.247
1843.2
2571.82
827.131
3741.37
-73.9677
4307.83
-677.625
4270.52
-981.325
3801.15
-1081.52
3073.27
-1062.08
2191.43
-973.614
1285.5
-753.058
311.64
-477.316
-653.739
-144.29
-1390.19
263.07
-2012.46
748.276
-2617.67
1302.15
-3145.21
1913.26
-3575.77
2570.56
-3915.03
3263.16
-4174.39
3980.88
-4363.86
4714.63
-4491.78
5456.35
-4565.67
6198.99
-4592.48
6936.43
-4578.46
7663.29
-4529.14
8374.94
-4449.35
9067.37
-4343.38
9737.17
-4215.06
10381.5
-4067.84
10998
-3904.86
11584.8
-3728.94
12140.5
-3542.72
12663.9
-3348.59
13154.4
-3148.84
13611.7
-2945.67
14035.7
-2741.28
14426.8
-2538.02
14785.8
-2338.45
15113.8
-2145.52
15412.7
-1962.93
15684.8
-1795.23
15933.2
-1648.18
16162.1
-1529.69
16378
-1452.05
16587.5
-1427.62
16795.1
-1471.97
17028.8
-1625.49
17331.3
-1979.5
17662.4
-2395.3
17929.6
-3072.12
18742.2
-3565.72
-10091
-5852.17
1125.07
-6026.35
1137.78
-6201.45
1143.9
-6380.12
1158.99
-6563.83
1186.27
-6754.89
1228.95
-6955.77
1289.43
-7169.18
1369.54
-7397.98
1470.7
-7645.17
1593.94
-7913.83
1739.9
-8207.09
1908.83
-8528.11
2100.48
-8880.02
2313.92
-9265.77
2547.21
-9688
2797.07
-10148.7
3058.34
-10648.9
3323.46
-11188.3
3581.81
-11764.4
3818.75
-12372.1
4013.85
-13002.1
4138.02
-13639.5
4151.17
-14262.1
4001.76
-14838.3
3631.39
-15330
3002.03
-15702.8
2138.25
-15935.1
1117.17
-16017.6
10.8131
-15948.8
-1135.87
-15728
-2325.44
-15348.6
-3566.09
-14803.5
-4859.68
-14080
-6232.42
-13161
-7700.97
-12024.9
-9267.22
-10649.5
-10897.1
-9019.37
-12498
-7142.58
-13902.8
-5068.1
-14839
-2882.34
-14916.2
-723.192
-13767
1201.06
-11042.5
2437.74
-6452.99
3038.2
-2367.15
2921.36
1603.28
2801.86
1883.8
2800.04
308.442
2579.4
-122.764
1672.04
1839.61
525.821
3718.04
-394.814
4662.01
-962.586
4875.6
-1245.85
4553.79
-1351.19
3906.49
-1347.83
3069.91
-1270.41
2114.01
-1128.92
1144.02
-868.284
51.0056
-566.825
-955.196
-207.503
-1749.51
219.035
-2438.99
716.306
-3114.94
1277.55
-3706.46
1892.09
-4190.32
2549.64
-4572.58
3239.97
-4864.72
3953.47
-5077.37
4681.49
-5219.8
5416.35
-5300.53
6151.28
-5327.4
6880.31
-5307.5
7598.24
-5247.06
8300.5
-5151.62
8983.21
-5026.08
9643.03
-4874.88
10277.2
-4702.01
10883.4
-4511.1
11460
-4305.47
12005.4
-4088.13
12518.7
-3861.9
12999.2
-3629.4
13446.8
-3393.19
13861.3
-3155.81
14243.3
-2919.96
14593.4
-2688.57
14912.8
-2464.97
15203.3
-2253.41
15466.9
-2058.88
15706.5
-1887.69
15926.1
-1749.35
16132.1
-1658.04
16326.5
-1622.05
16513.9
-1659.28
16739.3
-1850.94
17021.6
-2261.76
17222.2
-2595.93
17424.1
-3273.98
18750.8
-4892.45
-13073.5
-5897.91
1299.45
-6072.58
1312.45
-6249.18
1320.51
-6429.25
1339.06
-6614.55
1371.58
-6807.37
1421.76
-7010.17
1492.24
-7225.68
1585.05
-7456.75
1701.77
-7706.37
1843.56
-7977.6
2011.14
-8273.58
2204.82
-8597.48
2424.39
-8952.44
2668.88
-9341.47
2936.23
-9767.23
3222.84
-10231.8
3522.94
-10736.4
3828.04
-11280.7
4126.1
-11862.5
4400.55
-12477
4628.31
-13115.5
4776.56
-13764.2
4799.88
-14401.8
4639.36
-14997.6
4227.16
-15513.1
3517.53
-15912.8
2537.94
-16174.2
1378.59
-16287.9
124.572
-16254.3
-1169.54
-16075.3
-2504.43
-15745.4
-3896.02
-15258
-5347.06
-14600.9
-6889.48
-13756.2
-8545.64
-12700.5
-10323
-11406.1
-12191.4
-9847.9
-14056.2
-8017.63
-15733.1
-5943.32
-16913.3
-3698.66
-17160.8
-1424.06
-16041.6
652.674
-13119.2
2056.72
-7857.03
2782.16
-3092.58
2702.21
1683.23
2713.32
1872.7
2516.05
505.715
1585.47
807.821
238.462
3186.62
-703.087
4659.59
-1237.34
5196.26
-1495.93
5134.2
-1598.03
4655.89
-1611.19
3919.66
-1556.57
3015.29
-1442.23
1999.68
-1257.47
959.262
-970.371
-236.087
-645.842
-1279.72
-264.603
-2130.74
179.471
-2883.07
688.164
-3623.63
1255.95
-4274.24
1873.22
-4807.59
2530.5
-5229.86
3218.27
-5552.5
3927.53
-5786.63
4650.07
-5942.34
5378.54
-6029
6106.39
-6055.25
6827.81
-6028.92
7537.69
-5956.94
8231.56
-5845.48
8905.57
-5700.09
9556.47
-5525.78
10181.6
-5327.11
10778.7
-5108.19
11346
-4872.81
11882.3
-4624.41
12386.5
-4366.16
12858.2
-4101.07
13297
-3832.01
13703.1
-3561.86
14076.8
-3293.65
14418.8
-3030.65
14730.4
-2776.55
15013.1
-2536.04
15268.7
-2314.48
15499.6
-2118.61
15710.4
-1960.12
15905.8
-1853.51
16082.6
-1798.82
16251.4
-1828.06
16474.4
-2073.92
16706
-2493.39
16741.8
-2631.7
17056.1
-3588.32
19041.4
-6877.72
-16362
-5937.79
1476.65
-6112.86
1487.52
-6290.45
1498.1
-6471.42
1520.04
-6657.77
1557.93
-6851.74
1615.74
-7055.84
1696.34
-7272.79
1802
-7505.45
1934.44
-7756.81
2094.92
-8029.94
2284.27
-8327.98
2502.86
-8654.09
2750.51
-9011.43
3026.22
-9403.03
3327.83
-9831.58
3651.4
-10299.2
3990.61
-10807.2
4336.02
-11355.4
4674.26
-11941.8
4986.95
-12562.1
5248.63
-13208.7
5423.13
-13868.9
5460.12
-14523.1
5293.54
-15141.3
4845.4
-15684.4
4060.6
-16114.8
2968.3
-16408.3
1672.11
-16554.9
271.23
-16556.4
-1168.04
-16418.4
-2642.48
-16136.5
-4177.94
-15704.9
-5778.63
-15112.3
-7482.08
-14341.2
-9316.75
-13367.4
-11296.8
-12160.3
-13398.6
-10686
-15530.5
-8920.13
-17498.9
-6866.36
-18967
-4575.99
-19451.2
-2181.82
-18435.8
60.5116
-15361.5
1705.99
-9502.51
2613.83
-4000.42
2559.23
1737.83
2564.9
1867.04
1691.25
1379.37
171.739
2327.34
-911.003
4269.36
-1455.32
5203.9
-1716.35
5457.3
-1821.56
5239.41
-1845.8
4680.13
-1815.59
3889.45
-1729.44
2929.14
-1591.24
1861.48
-1365.15
733.181
-1058.33
-542.902
-714.144
-1623.91
-314.302
-2530.58
145.459
-3342.83
664.584
-4142.75
1237.99
-4847.64
1857.24
-5426.84
2513.74
-5886.36
3198.74
-6237.5
3903.82
-6491.7
4621.18
-6659.7
5343.77
-6751.59
6065.22
-6776.7
6779.8
-6743.51
7482.48
-6659.61
8168.82
-6531.83
8835.06
-6366.32
9477.98
-6168.71
10094.9
-5944.07
10683.8
-5697.07
11242.9
-5431.92
11771
-5152.47
12267.1
-4862.3
12730.8
-4564.74
13161.8
-4263.01
13560.2
-3960.27
13926.5
-3659.88
14261.2
-3365.43
14565.6
-3080.89
14840.9
-2811.36
15088.8
-2562.38
15311.5
-2341.3
15513.7
-2162.39
15697.7
-2037.47
15854.7
-1955.79
16010
-1983.36
16230.3
-2294.21
16372.2
-2635.32
16261.1
-2520.56
16903
-4230.3
19535.8
-9510.46
-19737.7
-5973.32
1655.82
-6148.55
1662.75
-6326.76
1676.32
-6508.25
1701.53
-6695.2
1744.87
-6889.84
1810.38
-7094.7
1901.2
-7312.52
2019.82
-7546.17
2168.09
-7798.65
2347.4
-8073.03
2558.65
-8372.45
2802.29
-8700.1
3078.15
-9059.11
3385.24
-9452.53
3721.25
-9883.09
4081.95
-10353
4460.48
-10863.4
4846.5
-11414.5
5225.37
-12004.7
5577.1
-12630.2
5874.18
-13284.7
6077.61
-13957.3
6132.7
-14630.1
5966.31
-15274
5489.38
-15848.6
4635.12
-16313.1
3432.81
-16640.9
1999.92
-16820.8
451.168
-16855.9
-1133
-16755.5
-2742.83
-16517
-4416.46
-16135.3
-6160.29
-15600.6
-8016.81
-14896.9
-10020.4
-14001.5
-12192.2
-12882.7
-14517.4
-11501.2
-16912
-9817.74
-19182.4
-7810.36
-20974.4
-5499.98
-21761.6
-2999.33
-20936.5
-579.73
-17781.1
1372.8
-11455
2512.16
-5139.79
2327.66
1922.33
1935.95
2258.75
524.4
2790.92
-845.118
3696.86
-1539.43
4963.68
-1861.4
5525.88
-2003.11
5599.01
-2048.85
5285.15
-2040.64
4671.93
-1985.38
3834.19
-1876.17
2819.93
-1717.76
1703.07
-1453.39
468.817
-1132.34
-863.954
-771.346
-1984.9
-355.513
-2946.41
118.073
-3816.41
646.389
-4671.07
1224.37
-5425.62
1844.79
-6047.26
2500.01
-6541.58
3182.06
-6919.54
3883.05
-7192.7
4595.59
-7372.24
5312.81
-7468.81
6028.47
-7492.35
6736.9
-7451.94
7433.09
-7355.8
8112.66
-7211.4
8771.87
-7025.53
9407.58
-6804.41
10017.2
-6553.69
10598.6
-6278.52
11150.3
-5983.57
11671
-5673.13
12159.8
-5351.12
12616.2
-5021.22
13040.2
-4686.95
13431.7
-4351.79
13791.2
-4019.37
14119.3
-3693.56
14417
-3378.59
14685.5
-3079.85
14926.1
-2802.98
15141
-2556.2
15335.1
-2356.46
15506.1
-2208.52
15642.7
-2092.33
15791.6
-2132.26
16000.5
-2503.09
16017.1
-2651.91
15837.4
-2340.93
16982.2
-5375.04
20111.2
-12639.5
-23015.4
-6003.73
1827.23
-6180.95
1839.97
-6359.06
1854.43
-6540.83
1883.3
-6727.98
1932.03
-6922.86
2005.27
-7128.01
2106.35
-7346.17
2237.98
-7580.24
2402.17
-7833.24
2600.39
-8108.24
2833.65
-8408.39
3102.44
-8736.88
3406.65
-9096.87
3745.23
-9491.39
4115.77
-9923.2
4513.76
-10394.5
4931.79
-10906.7
5358.68
-11460
5778.65
-12053.2
6170.32
-12683.6
6504.57
-13346.2
6740.19
-14032.2
6818.69
-14725.8
6659.96
-15398.9
6162.46
-16008.6
5244.86
-16510.3
3934.54
-16873.9
2363.47
-17086.2
663.463
-17151
-1068.17
-17082.1
-2811.72
-16878.6
-4619.96
-16536.4
-6502.49
-16047.8
-8505.42
-15399.9
-10668.3
-14573.2
-13018.9
-13538.5
-15552.2
-12254
-18196.4
-10669.2
-20767.2
-8736.89
-22906.7
-6441.72
-24056.7
-3861.64
-23516.5
-1256.44
-20386.3
1027.6
-13739.1
2363.74
-6475.93
1837.13
2448.94
1044.45
3051.44
-414.4
4249.77
-1385.1
4667.57
-1871.53
5450.1
-2102.79
5757.15
-2201.75
5697.96
-2226.16
5309.56
-2202.07
4647.84
-2129.43
3761.55
-2001.4
2691.9
-1818.53
1520.21
-1524.91
175.202
-1192.63
-1196.23
-816.841
-2360.69
-387.131
-3376.12
98.4424
-4301.99
634.478
-5207.1
1215.83
-6006.97
1836.55
-6667.98
2489.98
-7195.02
3168.9
-7598.45
3865.92
-7889.72
4573.94
-8080.26
5286.25
-8181.12
5996.63
-8202.74
6699.47
-8154.78
7389.76
-8046.09
8063.15
-7884.79
8715.94
-7678.32
9345.04
-7433.52
9947.94
-7156.58
10522.6
-6853.18
11067.5
-6528.44
11581.4
-6187.05
12063.6
-5833.29
12513.5
-5471.17
12931.1
-5104.53
13316.4
-4737.09
13669.8
-4372.77
13991.9
-4015.66
14283.5
-3670.18
14545.6
-3341.96
14779.3
-3036.71
14987
-2763.89
15173
-2542.5
15329.7
-2365.16
15447.2
-2209.87
15596.7
-2281.75
15778
-2684.36
15647
-2520.95
15524.4
-2218.26
17253
-7103.67
20657.8
-16044.3
-26079.6
-6032.83
2001.63
-6210.08
2017.22
-6388.11
2032.46
-6569.84
2065.03
-6756.86
2119.05
-6951.6
2200.01
-7156.59
2311.35
-7374.61
2456
-7608.58
2636.13
-7861.51
2853.33
-8136.53
3108.67
-8436.78
3402.7
-8765.48
3735.34
-9125.77
4105.53
-9520.72
4510.73
-9953.1
4946.15
-10425.2
5403.86
-10938.4
5871.9
-11493.2
6333.46
-12088.9
6766.08
-12723.9
7139.56
-13394.9
7411.19
-14095.6
7519.33
-14812.5
7376.83
-15518
6868.02
-16166.6
5893.5
-16708.3
4476.21
-17108.1
2763.21
-17349.7
905.122
-17437.4
-980.473
-17389.7
-2859.43
-17208.2
-4801.48
-16889.9
-6820.8
-16430.2
-8965.08
-15820.8
-11277.7
-15047.7
-13792
-14087
-16512.9
-12899
-19384.4
-11426.1
-22240.1
-9598.62
-24734.2
-7361.32
-26294
-4742.71
-26135.1
-1964.78
-23164.3
638.216
-16342.1
2086.43
-7924.14
1148.4
3386.97
198.236
4001.61
-988.69
5436.7
-1683.38
5362.26
-2075.39
5842.11
-2271.97
5953.73
-2356.75
5782.75
-2372.7
5325.51
-2338.26
4613.4
-2251.51
3674.8
-2106.17
2546.57
-1898.28
1312.32
-1583.55
-139.524
-1238.78
-1541
-849.739
-2749.73
-407.928
-3817.93
87.7828
-4797.7
629.828
-5749.14
1213.19
-6590.33
1833.24
-7288.03
2484.34
-7846.11
3159.93
-8274.04
3853.06
-8582.85
4556.8
-8784
5264.52
-8888.84
5970.03
-8908.25
6667.69
-8852.44
7352.51
-8730.9
8020.16
-8552.44
8667
-8325.16
9289.99
-8056.51
9886.67
-7753.26
10455.1
-7421.59
10993.7
-7067.08
11501.5
-6694.8
11977.6
-6309.4
12421.6
-5915.22
12833.4
-5516.34
13213.1
-5116.77
13561
-4720.65
13877.6
-4332.28
14163.6
-3956.19
14419.8
-3598.18
14647.2
-3264.07
14848.3
-2964.95
15026.2
-2720.42
15167.2
-2506.18
15269.3
-2312.02
15424.4
-2436.8
15558.2
-2818.17
15276.4
-2239.17
15353.8
-2295.62
17640
-9389.95
21106.3
-19510.6
-28881.6
-6059.77
2178.08
-6236.47
2193.92
-6414.38
2210.38
-6595.77
2246.41
-6782.37
2305.65
-6976.61
2394.26
-7181.05
2515.79
-7398.49
2673.44
-7631.86
2869.5
-7884.21
3105.68
-8158.67
3383.14
-8458.44
3702.47
-8786.72
4063.62
-9146.71
4465.52
-9541.47
4905.49
-9973.8
5378.47
-10446
5876.05
-10959.6
6385.52
-11515.4
6889.23
-12113.2
7363.95
-12752.7
7779.03
-13432.5
8091.04
-14149.1
8235.89
-14891.6
8119.32
-15633.1
7609.52
-16324.2
6584.62
-16907.8
5059.76
-17342
3197.46
-17606.4
1169.54
-17705.5
-881.343
-17663.8
-2901.2
-17486.1
-4979.14
-17171.1
-7135.8
-16718.3
-9417.93
-16125
-11871
-15385.1
-14531.9
-14483.2
-17414.8
-13386
-20481.6
-12034.3
-23591.7
-10340.7
-26427.8
-8209.71
-28425
-5607.64
-28737.2
-2693.74
-26078.2
188.468
-19224.3
1691.59
-9427.26
458.256
4620.3
-458.847
4918.71
-1336.05
6313.91
-1879.58
5905.78
-2224.17
6186.71
-2406.15
6135.72
-2485.78
5862.37
-2497.04
5336.77
-2453.93
4570.29
-2353.36
3574.23
-2190.67
2383.88
-1956.72
1078.37
-1627.18
-469.055
-1269.78
-1898.4
-868.796
-3150.71
-416.511
-4270.22
87.3765
-5301.58
633.472
-6295.24
1217.28
-7174.14
1835.62
-7906.38
2483.78
-8494.28
3155.8
-8946.05
3845.02
-9272.06
4544.62
-9483.6
5247.97
-9592.19
5948.85
-9609.13
6641.61
-9545.2
7321.26
-9410.55
7983.5
-9214.69
8624.74
-8966.4
9241.99
-8673.76
9832.86
-8344.13
10395.4
-7984.18
10928.3
-7599.94
11430.4
-7196.88
11901
-6779.98
12339.6
-6353.88
12746.2
-5922.94
13120.8
-5491.37
13463.7
-5063.56
13775.4
-4643.94
14056.3
-4237.09
14307.1
-3848.96
14528.6
-3485.58
14723.6
-3160
14893.1
-2889.91
15018
-2631.08
15110
-2404.02
15272.3
-2599.07
15339.7
-2885.53
14925.3
-1824.8
15330.5
-2700.83
18063.1
-12122.5
21428
-22875.5
-31419.3
-6084.44
2355.88
-6260.57
2370.05
-6438.17
2387.98
-6618.99
2427.23
-6804.9
2491.57
-6998.35
2587.7
-7201.88
2719.32
-7418.33
2889.89
-7650.65
3101.82
-7901.92
3356.96
-8175.32
3656.53
-8474.05
4001.2
-8801.36
4390.93
-9160.46
4824.62
-9554.44
5299.48
-9986.13
5810.17
-10457.9
6347.79
-10971.3
6898.99
-11527.6
7445.44
-12127.2
7963.56
-12771
8422.86
-13460.1
8780.15
-14193.9
8969.66
-14964.5
8889.92
-15745.4
8390.49
-16482.2
7321.4
-17107.6
5685.14
-17570.6
3660.45
-17845.7
1444.67
-17939.5
-787.596
-17883.5
-2957.21
-17687.1
-5175.53
-17351
-7471.9
-16879.5
-9889.4
-16277
-12473.5
-15546.2
-15262.6
-14683.1
-18278
-13665.1
-21499.5
-12438.1
-24818.8
-10903.9
-27962
-8930.27
-30398.6
-6412.86
-31254.6
-3425.01
-29066
-322.977
-22326.3
1219.2
-10969.4
-110.793
5950.29
-894.612
5702.53
-1567.3
6986.6
-2029.5
6367.98
-2345.73
6502.94
-2519.59
6309.57
-2595.95
5938.73
-2602.9
5343.72
-2550.93
4518.33
-2435.8
3459.11
-2257.76
2205.84
-1994.14
814.746
-1653.18
-810.01
-1284.02
-2267.56
-872.351
-3562.38
-411.274
-4731.29
98.5736
-5811.43
646.483
-6843.15
1229
-7756.66
1844.49
-8521.86
2489.03
-9138.82
3157.13
-9614.16
3842.32
-9957.25
4537.78
-10179.1
5236.84
-10291.2
5933.21
-10305.5
6621.21
-10233.2
7295.86
-10085.2
7952.9
-9871.73
8588.77
-9602.27
9200.57
-9285.55
9785.94
-8929.51
10343.1
-8541.31
10870.6
-8127.42
11367.4
-7693.71
11832.9
-7245.47
12266.6
-6787.62
12668.5
-6324.78
13038.5
-5861.38
13376.9
-5401.98
13684.1
-4951.12
13960.3
-4513.37
14206.2
-4094.8
14422.4
-3701.83
14612
-3349.55
14772.6
-3050.55
14881.9
-2740.4
14969.8
-2491.92
15137.3
-2766.51
15123.2
-2871.5
14615.6
-1317.2
15434.9
-3520.09
18458.6
-15146.2
21621.5
-26038.3
-33717
-6107.14
2534.55
-6282.61
2545.52
-6459.75
2565.13
-6639.8
2607.28
-6824.81
2676.59
-7017.18
2780.07
-7219.49
2921.64
-7434.58
3104.98
-7665.45
3332.69
-7915.21
3606.72
-8187.05
3928.37
-8484.23
4298.38
-8810.02
4716.73
-9167.69
5182.28
-9560.35
5692.13
-9990.84
6240.67
-10461.6
6818.53
-10974.4
7411.78
-11530.6
8001.63
-12131.5
8564.55
-12779.7
9070.97
-13478.5
9478.95
-14230.8
9721.99
-15032.1
9691.27
-15856.1
9214.47
-16640.5
8105.8
-17304.1
6348.68
-17783.8
4140.18
-18050.7
1711.57
-18117.4
-720.899
-18023.9
-3050.7
-17784.2
-5415.21
-17402
-7854.11
-16886.7
-10404.7
-16249.6
-13110.6
-15503.3
-16009
-14655.7
-19125.6
-13699.1
-22456.1
-12591.2
-25926.7
-11232.9
-29320.3
-9463.73
-32167.8
-7106.84
-33611.5
-4132.02
-32040.8
-863.936
-25594.4
772.009
-12605.4
-545.412
7267.72
-1177.23
6334.35
-1739.05
7548.43
-2154.58
6783.51
-2450.76
6799.13
-2618.05
6476.86
-2690.4
6011.08
-2691.59
5344.91
-2628.83
4455.57
-2498.09
3328.37
-2304.44
2012.19
-2008.66
518.974
-1659.04
-1159.63
-1279.25
-2647.35
-858.271
-3983.35
-390.365
-5199.2
122.808
-6324.6
669.975
-7390.31
1249.3
-8335.99
1860.65
-9133.2
2500.8
-9778.97
3164.53
-10277.9
3845.43
-10638.1
4536.62
-10870.2
5231.31
-10985.9
5923.16
-10997.3
6606.43
-10916.5
7276.15
-10754.9
7928.09
-10523.7
8558.75
-10232.9
9165.27
-9892.08
9745.39
-9509.63
10297.3
-9093.25
10819.8
-8649.84
11311.7
-8185.63
11772.4
-7706.24
12201.7
-7216.85
12599.2
-6722.31
12965.1
-6227.23
13299.4
-5736.37
13602.6
-5254.26
13874.7
-4785.47
14116.1
-4336.19
14327.6
-3913.39
14512.1
-3534.03
14663.6
-3202
14758.9
-2835.74
14848.6
-2581.64
15015.8
-2933.65
14909.4
-2765.17
14364.5
-772.278
15629.2
-4784.75
18787.1
-18304.1
21700.6
-28951.9
-35809.2
-6126.99
2707.56
-6303.02
2721.55
-6479.3
2741.41
-6658.48
2786.46
-6842.37
2860.48
-7033.43
2971.13
-7234.23
3122.44
-7447.65
3318.4
-7676.7
3561.74
-7924.52
3854.55
-8194.36
4198.22
-8489.51
4593.54
-8813.29
5040.51
-9168.99
5537.99
-9559.78
6082.92
-9988.54
6669.43
-10457.8
7287.73
-10969.4
7923.39
-11525.1
8557.34
-12127.1
9166.57
-12779.4
9723.25
-13488.3
10187.9
-14260.6
10494.3
-15095.5
10526.2
-15965.6
10084.6
-16797.5
8937.63
-17490.5
7041.68
-17967.7
4617.41
-18200.7
1944.58
-18215.5
-706.051
-18061.7
-3204.52
-17756.8
-5720.11
-17308
-8302.95
-16729.4
-10983.3
-16038.7
-13801.3
-15255.9
-16791.7
-14400.9
-19980.6
-13481.8
-23375.2
-12474.5
-26934
-11291.7
-30503.1
-9759.31
-33700.2
-7634.65
-35736.2
-4772.67
-34902.8
-1408.34
-28958.7
377.467
-14391.2
-867.031
8512.22
-1374.13
6841.45
-1876.69
8051
-2263.86
7170.68
-2543.89
7079.16
-2704.4
6637.37
-2770.93
6077.61
-2763.76
5337.75
-2686.88
4378.69
-2537.81
3179.3
-2323.5
1797.89
-1999.74
195.213
-1641.99
-1517.37
-1252.48
-3036.86
-823.92
-4411.91
-351.719
-5671.4
161.523
-6837.84
705.057
-7933.85
1279.13
-8910.06
1884.96
-9739.03
2519.81
-10413.8
3178.59
-10936.7
3854.8
-11314.4
4541.43
-11556.9
5231.56
-11676.1
5918.73
-11684.5
6597.18
-11594.9
7261.92
-11419.7
7908.77
-11170.5
8534.28
-10858.4
9135.65
-10493.4
9710.67
-10084.6
10257.6
-9640.2
10775.2
-9167.44
11262.5
-8672.93
11718.9
-8162.61
12144
-7641.92
12537.5
-7115.89
12899.6
-6589.34
13230.4
-6067.13
13529.9
-5553.8
13798.3
-5053.85
14035.8
-4573.62
14243.2
-4120.85
14423
-3713.78
14565.1
-3344.17
14649
-2919.6
14745.3
-2677.99
14904.6
-3092.87
14699
-2559.58
14183.2
-256.523
15870.2
-6471.69
19030.2
-21464.2
21684.7
-31606.3
-37731.4
-6146.13
2882.21
-6321.68
2897.11
-6497.09
2916.82
-6675.25
2964.62
-6857.86
3043.09
-7047.38
3160.65
-7246.43
3321.49
-7457.88
3529.85
-7684.77
3788.63
-7930.28
4100.06
-8197.7
4465.63
-8490.36
4886.2
-8811.64
5361.79
-9164.87
5891.22
-9553.26
6471.32
-9979.77
7095.94
-10446.9
7754.9
-10956.9
8433.32
-11511.6
9112.11
-12114.3
9769.24
-12770.6
10379.6
-13490.1
10907.4
-14284
11288.2
-15155.2
11397.4
-16073.6
11003
-16949.5
9813.51
-17657.4
7749.6
-18106.2
5066.19
-18275.3
2113.74
-18214.4
-766.976
-17983
-3435.98
-17599.4
-6103.64
-17074.3
-8828.12
-16425.5
-11632.1
-15674
-14552.8
-14844.4
-17621.3
-13963.9
-20861.1
-13055
-24284.2
-12115.8
-27873.2
-11083.4
-31535.4
-9791.65
-34992
-7950.38
-37577.4
-5299.69
-37553.5
-1923.24
-32335.2
44.3211
-16358.7
-1093.49
9650.02
-1522.91
7270.87
-1991.62
8519.72
-2361.87
7540.92
-2627.56
7344.85
-2780.27
6790.08
-2838.31
6135.65
-2819.3
5318.75
-2724.38
4283.76
-2552.77
3007.69
-2312.88
1558
-1966.07
-151.59
-1598.12
-1885.32
-1200.02
-3434.96
-766.185
-4845.74
-293.111
-6144.47
216.139
-7347.09
752.82
-8470.53
1319.46
-9476.7
1918.27
-10337.8
2546.8
-11042.4
3199.89
-11589.8
3870.87
-11985.3
4552.51
-12238.5
5237.73
-12361.3
5919.95
-12366.7
6593.37
-12268.3
7253
-12079.3
7894.68
-11812.2
8515
-11478.8
9111.24
-11089.7
9681.24
-10654.6
10223.3
-10182.3
10736.3
-9680.39
11219.2
-9155.83
11671.4
-8614.84
12092.6
-8063.11
12482.6
-7505.86
12841.3
-6948.04
13168.8
-6394.64
13465.1
-5850.15
13730.3
-5318.97
13964.2
-4807.59
14168.2
-4324.78
14343.5
-3889.11
14476.6
-3477.31
14552.2
-2995.18
14657.9
-2783.71
14800.1
-3235.04
14492.6
-2252.1
14076.5
159.547
16119.1
-8514.25
19184.8
-24529.9
21593.3
-34014.9
-39515.2
-6164.12
3057.95
-6338.75
3071.74
-6513.33
3091.4
-6690.33
3141.62
-6871.49
3224.26
-7059.3
3348.47
-7256.36
3518.55
-7465.57
3739.07
-7690
4013.06
-7932.85
4342.92
-8197.45
4730.24
-8487.19
5175.94
-8805.49
5680.1
-9155.76
6241.48
-9541.25
6856.81
-9964.98
7519.68
-10429.6
8219.5
-10937.4
8941.09
-11490.7
9665.49
-12093.7
10372.2
-12753.9
11039.8
-13484.5
11637.9
-14301.6
12105.3
-15211.4
12307.2
-16178.5
11970
-17090.9
10725.9
-17793.1
8451.83
-18182.7
5455.74
-18258.8
2189.89
-18105.5
-920.248
-17790.3
-3751.2
-17328.2
-6565.71
-16732.3
-9424.08
-16022.2
-12342.1
-15218.7
-15356.4
-14345.6
-18494.3
-13432
-21774.7
-12508.8
-25207.5
-11595.3
-28786.6
-10662.9
-32467.9
-9577.49
-36077.4