/*--------------------------------*- C++ -*----------------------------------*\
| =========                 |                                                 |
| \\      /  F ield         | OpenFOAM: The Open Source CFD Toolbox           |
|  \\    /   O peration     | Version:  4.1                                   |
|   \\  /    A nd           | Web:      www.OpenFOAM.org                      |
|    \\/     M anipulation  |                                                 |
\*---------------------------------------------------------------------------*/
FoamFile
{
    version     2.0;
    format      ascii;
    class       volVectorField;
    location    "1800";
    object      U;
}
// * * * * * * * * * * * * * * * * * * * * * * * * * * * * * * * * * * * * * //

dimensions      [0 1 -1 0 0 0 0];

internalField   nonuniform List<vector> 
26785
(
(-2.19905e-13 -0.0235626 -43.835)
(-2.13875e-13 -0.022643 -43.4329)
(-2.07631e-13 -0.0221343 -42.9271)
(-2.00168e-13 -0.0213754 -42.4962)
(-1.91078e-13 -0.0200984 -42.0871)
(-1.85178e-13 -0.0181681 -41.7293)
(-1.73082e-13 -0.0154376 -41.4271)
(-1.72063e-13 -0.0118296 -41.1948)
(-1.72663e-13 -0.00727862 -41.0436)
(-1.74552e-13 -0.00175507 -40.9859)
(-1.61684e-13 0.0047442 -41.0331)
(-1.63237e-13 0.0121904 -41.1956)
(-1.63068e-13 0.0205206 -41.4825)
(-1.64639e-13 0.0296308 -41.9012)
(-1.67254e-13 0.0393675 -42.4571)
(-1.71021e-13 0.0495154 -43.1524)
(-1.75496e-13 0.0597823 -43.986)
(-1.80018e-13 0.0697795 -44.9522)
(-1.83983e-13 0.0789927 -46.0396)
(-1.86907e-13 0.0867349 -47.2295)
(-1.86171e-13 0.0920607 -48.4935)
(-1.85931e-13 0.093645 -49.7901)
(-1.82777e-13 0.0897061 -51.0605)
(-1.76117e-13 0.0780162 -52.2226)
(-1.67788e-13 0.05616 -53.1666)
(-1.56089e-13 0.0227335 -53.7622)
(-1.42065e-13 -0.0211122 -53.888)
(-1.26552e-13 -0.0724566 -53.4625)
(-1.10488e-13 -0.129084 -52.4482)
(-9.43296e-14 -0.189328 -50.8302)
(-7.91617e-14 -0.252168 -48.5994)
(-6.35759e-14 -0.316427 -45.7606)
(-5.68719e-14 -0.382705 -42.3207)
(-4.88652e-14 -0.452466 -38.2772)
(-3.95067e-14 -0.52709 -33.6175)
(-1.09263e-14 -0.60776 -28.3269)
(-1.17966e-14 -0.69452 -22.3965)
(-1.20845e-14 -0.787885 -15.8261)
(-1.53536e-14 -0.9044 -8.70485)
(-4.56113e-15 -1.04229 -1.36454)
(8.7978e-14 -0.903529 5.40946)
(1.19703e-13 -0.654954 11.2726)
(1.22137e-13 -0.442243 15.9437)
(5.65391e-14 -0.199484 18.691)
(2.9295e-14 -0.0135689 19.4375)
(-4.47094e-14 0.102578 18.5985)
(-8.78494e-14 0.0826837 17.3108)
(-1.19381e-13 0.0303126 16.6586)
(-1.52895e-13 0.0470139 16.5079)
(-2.18541e-13 0.116141 16.0613)
(-2.75928e-13 0.183001 15.0127)
(-3.43496e-13 0.2331 13.4434)
(-3.56904e-13 0.264256 11.5591)
(-2.72477e-13 0.270771 9.59433)
(-2.05056e-13 0.254337 7.71938)
(-1.86374e-13 0.2346 5.95055)
(-5.99919e-13 0.219072 4.16894)
(-8.48056e-13 0.167492 2.5334)
(-5.89976e-13 0.15635 1.97152)
(-8.3953e-13 0.073296 1.25986)
(-4.66602e-13 0.0265773 1.12667)
(-1.84525e-13 -0.0144629 1.42105)
(-7.00903e-15 -0.0771378 2.07787)
(-3.22874e-14 -0.13324 3.04479)
(4.60665e-14 -0.175898 4.22727)
(9.68157e-14 -0.207136 5.57187)
(1.02678e-13 -0.229139 7.03018)
(9.83994e-14 -0.244144 8.56236)
(8.19797e-14 -0.253709 10.137)
(6.51522e-14 -0.258919 11.7289)
(3.10334e-14 -0.260566 13.3171)
(-2.11103e-15 -0.259258 14.8842)
(-2.49481e-14 -0.255477 16.4156)
(-4.91028e-14 -0.249625 17.8994)
(-7.21769e-14 -0.242045 19.3262)
(-8.06347e-14 -0.233032 20.6883)
(-8.92271e-14 -0.22284 21.9799)
(-9.83358e-14 -0.211686 23.1965)
(-1.13438e-13 -0.199753 24.3347)
(-1.30134e-13 -0.187202 25.3925)
(-1.43877e-13 -0.174174 26.3684)
(-1.67042e-13 -0.160799 27.2619)
(-1.86278e-13 -0.147204 28.0734)
(-2.05274e-13 -0.133516 28.8037)
(-2.35379e-13 -0.119869 29.4545)
(-2.63552e-13 -0.106415 30.028)
(-2.95611e-13 -0.0933256 30.5274)
(-3.29672e-13 -0.0808188 30.9567)
(-3.6972e-13 -0.0691743 31.321)
(-4.10661e-13 -0.0587827 31.6274)
(-4.48437e-13 -0.0501505 31.8839)
(-4.84454e-13 -0.0440425 32.1045)
(-5.16263e-13 -0.0413291 32.2987)
(-5.42745e-13 -0.043933 32.5025)
(-5.61912e-13 -0.0520833 32.7066)
(-5.76734e-13 -0.0726821 33.0425)
(-5.82424e-13 -0.0930398 33.328)
(-5.75864e-13 -0.160591 34.1482)
(-5.76444e-13 -0.158342 34.3882)
(-5.29359e-13 -0.387761 36.6351)
(-1.93203e-13 -0.0757477 -44.3138)
(-1.86869e-13 -0.0662024 -43.937)
(-1.80421e-13 -0.0657995 -43.4592)
(-1.76556e-13 -0.0629158 -43.0594)
(-1.74706e-13 -0.0588474 -42.6846)
(-1.75267e-13 -0.0527167 -42.3643)
(-1.60989e-13 -0.0441987 -42.1025)
(-1.68491e-13 -0.0330237 -41.9134)
(-1.60526e-13 -0.0189855 -41.8082)
(-1.50258e-13 -0.00196544 -41.7992)
(-1.50395e-13 0.0180849 -41.8978)
(-1.4972e-13 0.0411303 -42.1151)
(-1.49616e-13 0.0670411 -42.4609)
(-1.49304e-13 0.0955686 -42.9438)
(-1.47467e-13 0.126311 -43.5703)
(-1.43256e-13 0.158669 -44.3444)
(-1.4487e-13 0.191789 -45.2668)
(-1.45697e-13 0.22449 -46.3335)
(-1.39996e-13 0.25517 -47.5344)
(-1.32407e-13 0.281647 -48.852)
(-1.23121e-13 0.300882 -50.2585)
(-1.06009e-13 0.308598 -51.7121)
(-9.03226e-14 0.299038 -53.1525)
(-7.05993e-14 0.265046 -54.4946)
(-5.25768e-14 0.199 -55.6235)
(-3.74798e-14 0.0966423 -56.4014)
(-2.65607e-14 -0.0379796 -56.6971)
(-2.0703e-14 -0.19454 -56.4206)
(-2.00681e-14 -0.364156 -55.5316)
(-2.29123e-14 -0.541517 -54.0301)
(-2.50852e-14 -0.725928 -51.9246)
(-3.36922e-14 -0.914881 -49.2115)
(-3.99695e-14 -1.10882 -45.8974)
(-4.74205e-14 -1.31084 -41.9795)
(-5.71671e-14 -1.52253 -37.4475)
(-5.95613e-14 -1.74314 -32.2932)
(-6.90022e-14 -1.96558 -26.5211)
(-7.9112e-14 -2.17544 -20.1613)
(-8.95006e-14 -2.37201 -13.3244)
(-9.10277e-14 -2.53686 -6.2809)
(-6.96203e-14 -2.35516 0.721078)
(4.29567e-14 -1.86115 7.17317)
(-5.3752e-15 -1.29122 12.1312)
(3.00565e-15 -0.578865 15.2996)
(1.66502e-14 0.00585874 16.5812)
(3.70607e-14 0.410147 16.0182)
(-8.11067e-15 0.361211 14.6609)
(-9.97126e-15 0.134732 13.8633)
(-5.70303e-14 0.0996784 13.8047)
(-7.76865e-14 0.267653 13.6426)
(-2.58674e-13 0.486003 12.9485)
(-3.97897e-13 0.663166 11.7354)
(-3.71576e-13 0.751112 10.1651)
(-3.63071e-13 0.754165 8.42209)
(-2.07086e-13 0.727129 6.60829)
(-1.83329e-13 0.7225 4.75474)
(-6.46673e-13 0.700544 2.98197)
(-4.11293e-13 0.544109 1.53165)
(4.18453e-13 0.370877 0.760714)
(3.52581e-13 0.343387 0.132365)
(7.56012e-16 -0.0113965 0.420427)
(-4.70901e-14 -0.186153 0.959316)
(1.51953e-13 -0.349329 1.78541)
(3.25186e-13 -0.483942 2.85641)
(2.47413e-13 -0.582189 4.10763)
(1.62921e-13 -0.652375 5.48842)
(1.1291e-13 -0.702497 6.9616)
(8.5733e-14 -0.737392 8.49496)
(1.71055e-15 -0.759611 10.0612)
(-5.08246e-14 -0.77092 11.6374)
(-8.27722e-14 -0.772825 13.204)
(-1.35856e-13 -0.766666 14.7447)
(-1.5161e-13 -0.753636 16.2461)
(-1.62028e-13 -0.734789 17.6972)
(-1.45753e-13 -0.71105 19.089)
(-1.47789e-13 -0.683222 20.4145)
(-1.54284e-13 -0.652003 21.6683)
(-1.63335e-13 -0.618007 22.8461)
(-1.8537e-13 -0.581777 23.945)
(-1.95398e-13 -0.543803 24.9631)
(-1.98821e-13 -0.504529 25.8994)
(-2.14303e-13 -0.464373 26.7535)
(-2.29265e-13 -0.423731 27.5262)
(-2.3699e-13 -0.382997 28.2186)
(-2.51238e-13 -0.342586 28.8328)
(-2.73898e-13 -0.302955 29.3713)
(-2.96172e-13 -0.264636 29.8376)
(-3.19268e-13 -0.228301 30.2363)
(-3.3699e-13 -0.194804 30.5728)
(-3.52278e-13 -0.165327 30.8546)
(-3.68152e-13 -0.141405 31.09)
(-3.84731e-13 -0.125287 31.2932)
(-3.9785e-13 -0.119545 31.4736)
(-4.1504e-13 -0.129787 31.6678)
(-4.23866e-13 -0.157349 31.8639)
(-4.25537e-13 -0.22144 32.2008)
(-4.26077e-13 -0.283246 32.4671)
(-4.08169e-13 -0.492318 33.3121)
(-4.00366e-13 -0.484144 33.5226)
(-2.80814e-13 -1.19451 35.8041)
(-1.52875e-13 -0.12432 -44.9618)
(-1.52195e-13 -0.110708 -44.5808)
(-1.51605e-13 -0.109132 -44.1393)
(-1.45633e-13 -0.104025 -43.7707)
(-1.51518e-13 -0.0967929 -43.4324)
(-1.48803e-13 -0.0861558 -43.1516)
(-1.39358e-13 -0.0715497 -42.9325)
(-1.48604e-13 -0.0525299 -42.7886)
(-1.44221e-13 -0.0287441 -42.731)
(-1.42608e-13 2.62212e-05 -42.7713)
(-1.40998e-13 0.033895 -42.9209)
(-1.39127e-13 0.0728484 -43.1903)
(-1.37073e-13 0.116725 -43.5893)
(-1.34629e-13 0.165166 -44.1264)
(-1.31661e-13 0.217554 -44.8082)
(-1.25667e-13 0.272925 -45.6387)
(-1.16583e-13 0.329864 -46.6185)
(-1.10943e-13 0.386382 -47.7431)
(-9.37112e-14 0.439745 -49.0018)
(-8.1119e-14 0.486223 -50.3759)
(-6.13495e-14 0.520622 -51.8363)
(-4.39179e-14 0.535644 -53.3399)
(-3.07399e-14 0.521457 -54.8251)
(-1.99989e-14 0.465831 -56.2066)
(-1.62025e-14 0.355723 -57.3704)
(-1.91638e-14 0.183773 -58.1805)
(-2.71271e-14 -0.0431936 -58.5106)
(-3.67368e-14 -0.307154 -58.2774)
(-4.52979e-14 -0.59168 -57.4473)
(-5.22491e-14 -0.887192 -56.0189)
(-5.83587e-14 -1.19401 -53.9948)
(-6.3467e-14 -1.50919 -51.3731)
(-7.2902e-14 -1.83297 -48.1594)
(-7.31729e-14 -2.17035 -44.3507)
(-7.25394e-14 -2.52345 -39.9358)
(-7.79409e-14 -2.8901 -34.9051)
(-8.36075e-14 -3.25758 -29.262)
(-8.44862e-14 -3.59892 -23.0409)
(-9.96977e-14 -3.88782 -16.363)
(-1.11447e-13 -4.07567 -9.49464)
(-8.1463e-14 -3.9208 -2.64898)
(-6.60929e-14 -3.3166 3.84893)
(-9.21304e-14 -2.35595 9.0797)
(-1.11444e-13 -1.17313 12.6123)
(-9.85336e-14 -0.174858 14.3564)
(-6.76989e-14 0.598736 14.0452)
(-6.99996e-14 0.554432 12.735)
(-5.55794e-14 0.1432 11.8385)
(-1.0462e-14 0.0417258 11.7807)
(-1.39853e-14 0.312328 11.6401)
(-1.5598e-13 0.674837 11.0271)
(-3.05496e-13 0.97315 10.0005)
(-3.11689e-13 1.14248 8.58641)
(-3.03624e-13 1.20293 6.82304)
(-1.35825e-13 1.2335 4.82296)
(-1.97392e-13 1.25729 2.79934)
(-2.01538e-13 1.153 1.14156)
(2.01339e-13 0.825312 0.0506791)
(3.54436e-13 0.487537 -0.41285)
(4.97e-13 0.131604 -0.443332)
(-7.40816e-14 -0.216091 0.00954981)
(3.13998e-13 -0.4353 0.692006)
(2.45362e-13 -0.654509 1.61356)
(1.42555e-13 -0.842808 2.74105)
(2.25877e-14 -0.986893 4.0215)
(1.10173e-14 -1.0939 5.41683)
(3.34972e-14 -1.17214 6.89551)
(-2.44598e-14 -1.22669 8.4274)
(-6.97887e-14 -1.26079 9.98608)
(-1.06566e-13 -1.27717 11.5494)
(-1.29361e-13 -1.27829 13.0987)
(-1.48051e-13 -1.26639 14.6185)
(-1.33694e-13 -1.2434 16.0961)
(-1.18838e-13 -1.21102 17.5213)
(-1.11335e-13 -1.17075 18.8855)
(-1.14214e-13 -1.12385 20.1824)
(-1.19115e-13 -1.07147 21.4066)
(-1.23411e-13 -1.01461 22.5544)
(-1.25944e-13 -0.954153 23.6231)
(-1.28043e-13 -0.890915 24.611)
(-1.31059e-13 -0.825636 25.5173)
(-1.32352e-13 -0.759009 26.3422)
(-1.4223e-13 -0.6917 27.0862)
(-1.46969e-13 -0.62437 27.751)
(-1.50848e-13 -0.557718 28.3385)
(-1.54529e-13 -0.492518 28.8517)
(-1.56942e-13 -0.429669 29.2943)
(-1.58621e-13 -0.370295 29.6708)
(-1.57585e-13 -0.315822 29.9868)
(-1.6078e-13 -0.2682 30.25)
(-1.62411e-13 -0.229952 30.4685)
(-1.58285e-13 -0.204659 30.6566)
(-1.58271e-13 -0.19667 30.8226)
(-1.54754e-13 -0.214996 31.0047)
(-1.47185e-13 -0.262819 31.1857)
(-1.34832e-13 -0.366021 31.5128)
(-1.21684e-13 -0.473976 31.7346)
(-9.9787e-14 -0.830699 32.6545)
(-6.69339e-14 -0.789537 32.7051)
(1.48273e-14 -2.01926 35.0885)
(-1.29702e-13 -0.16847 -45.6059)
(-1.30608e-13 -0.155936 -45.2167)
(-1.34433e-13 -0.151681 -44.8021)
(-1.37491e-13 -0.144151 -44.4552)
(-1.40115e-13 -0.133279 -44.1434)
(-1.39576e-13 -0.117717 -43.8911)
(-1.42226e-13 -0.0966239 -43.7028)
(-1.36105e-13 -0.0694023 -43.5915)
(-1.28586e-13 -0.0355645 -43.5677)
(-1.27574e-13 0.00520033 -43.6425)
(-1.23877e-13 0.0530668 -43.8265)
(-1.2023e-13 0.108042 -44.1297)
(-1.1577e-13 0.16993 -44.5612)
(-1.11376e-13 0.238264 -45.1291)
(-1.0713e-13 0.3122 -45.8397)
(-9.58346e-14 0.390391 -46.6966)
(-8.32689e-14 0.470834 -47.7004)
(-6.92857e-14 0.550694 -48.8467)
(-5.56439e-14 0.626086 -50.1252)
(-3.71141e-14 0.691732 -51.5181)
(-2.39549e-14 0.740354 -52.9974)
(-1.50488e-14 0.761778 -54.5223)
(-1.31589e-14 0.742339 -56.0336)
(-1.67919e-14 0.66503 -57.4489)
(-2.53264e-14 0.511705 -58.6555)
(-3.48598e-14 0.272135 -59.5168)
(-4.18776e-14 -0.0439979 -59.903)
(-4.45266e-14 -0.411339 -59.7285)
(-4.36234e-14 -0.80692 -58.959)
(-4.13958e-14 -1.21738 -57.5979)
(-4.05403e-14 -1.643 -55.6571)
(-4.28698e-14 -2.08062 -53.133)
(-4.61844e-14 -2.53047 -50.031)
(-4.96338e-14 -2.9996 -46.347)
(-5.51077e-14 -3.49094 -42.0664)
(-5.35665e-14 -4.00117 -37.1739)
(-7.5952e-14 -4.51261 -31.6643)
(-6.28763e-14 -4.98808 -25.5626)
(-7.6996e-14 -5.38026 -18.9781)
(-1.17716e-13 -5.60633 -12.1627)
(-9.89898e-14 -5.43828 -5.38164)
(-7.25019e-14 -4.72143 1.09966)
(-1.32927e-13 -3.44422 6.60131)
(-1.54708e-13 -1.80387 10.4408)
(-1.0535e-13 -0.379699 12.4814)
(-5.45179e-14 0.794787 12.4988)
(-2.30372e-15 0.811752 11.2833)
(3.87314e-14 0.292688 10.1959)
(9.11512e-14 0.13094 10.1646)
(7.39663e-14 0.439984 10.2659)
(-3.9953e-14 0.875253 9.70744)
(-2.56016e-13 1.27471 8.50904)
(-2.10746e-13 1.56318 6.77539)
(-1.45673e-13 1.73529 4.6193)
(-4.03196e-14 1.81914 2.34912)
(-1.01204e-13 1.75283 0.412732)
(8.96047e-14 1.42018 -0.718136)
(2.70994e-13 0.924645 -1.14735)
(3.58329e-14 0.481346 -1.13709)
(1.35418e-13 -0.0364083 -0.84935)
(-9.82751e-14 -0.407248 -0.260965)
(3.32248e-13 -0.69031 0.497798)
(1.342e-13 -0.970329 1.47709)
(8.54534e-14 -1.21174 2.63953)
(7.71421e-14 -1.40043 3.94157)
(4.11239e-14 -1.54218 5.3486)
(-5.45722e-14 -1.64559 6.83088)
(-1.2491e-13 -1.71686 8.35973)
(-1.32243e-13 -1.76042 9.90987)
(-1.50061e-13 -1.77997 11.4602)
(-1.2886e-13 -1.77885 12.9929)
(-1.28365e-13 -1.76004 14.4933)
(-8.704e-14 -1.72617 15.9495)
(-7.62149e-14 -1.67953 17.3514)
(-9.48488e-14 -1.62213 18.6913)
(-7.86338e-14 -1.55572 19.9629)
(-7.82684e-14 -1.48183 21.1613)
(-7.28651e-14 -1.40185 22.283)
(-7.05922e-14 -1.31702 23.3256)
(-6.6473e-14 -1.22846 24.2876)
(-6.52596e-14 -1.13719 25.1685)
(-6.86639e-14 -1.0442 25.9685)
(-6.92942e-14 -0.950394 26.6885)
(-7.73322e-14 -0.856713 27.3302)
(-7.73678e-14 -0.764129 27.8959)
(-7.4272e-14 -0.673722 28.3885)
(-6.19776e-14 -0.586744 28.8117)
(-5.54003e-14 -0.504766 29.1702)
(-4.56224e-14 -0.429761 29.4696)
(-4.33538e-14 -0.36441 29.7175)
(-2.74778e-14 -0.312141 29.9215)
(-1.8394e-14 -0.277792 30.0956)
(-1.55175e-14 -0.267757 30.2475)
(-9.14929e-15 -0.293686 30.4161)
(-1.91668e-15 -0.36037 30.5749)
(9.29021e-15 -0.49861 30.8819)
(1.74616e-14 -0.672282 31.0668)
(3.84414e-14 -1.15314 32.0809)
(7.58032e-14 -1.05203 31.7371)
(8.31696e-14 -2.93173 34.5481)
(-1.30848e-13 -0.210752 -46.1826)
(-1.30567e-13 -0.20214 -45.7862)
(-1.32985e-13 -0.193708 -45.3868)
(-1.30086e-13 -0.183792 -45.0517)
(-1.34606e-13 -0.168856 -44.7551)
(-1.3012e-13 -0.14807 -44.5196)
(-1.17233e-13 -0.120191 -44.3499)
(-1.21327e-13 -0.0845165 -44.2583)
(-1.16409e-13 -0.0404286 -44.2549)
(-1.13297e-13 0.0124642 -44.3503)
(-1.08555e-13 0.0743919 -44.5544)
(-1.04646e-13 0.145383 -44.8767)
(-1.02234e-13 0.225219 -45.326)
(-9.36907e-14 0.313339 -45.9098)
(-8.6193e-14 0.408706 -46.6345)
(-7.00704e-14 0.509634 -47.5039)
(-5.2246e-14 0.613585 -48.519)
(-3.82398e-14 0.716954 -49.6765)
(-2.49927e-14 0.814784 -50.9675)
(-1.5175e-14 0.900346 -52.3755)
(-1.14776e-14 0.964348 -53.8746)
(-1.34403e-14 0.993748 -55.4256)
(-2.12508e-14 0.970903 -56.971)
(-2.97167e-14 0.873673 -58.4288)
(-3.58437e-14 0.678222 -59.6855)
(-3.64239e-14 0.370891 -60.6012)
(-3.2278e-14 -0.0356952 -61.0429)
(-2.59572e-14 -0.507819 -60.925)
(-2.17239e-14 -1.0146 -60.2175)
(-2.07948e-14 -1.53829 -58.9286)
(-2.17575e-14 -2.08024 -57.0791)
(-2.35211e-14 -2.6381 -54.6656)
(-2.5479e-14 -3.21201 -51.6928)
(-3.03243e-14 -3.81161 -48.1552)
(-4.42808e-14 -4.44116 -44.0336)
(-4.48899e-14 -5.09688 -39.3043)
(-5.08683e-14 -5.75657 -33.9489)
(-5.65568e-14 -6.37221 -27.9747)
(-6.46853e-14 -6.87433 -21.4678)
(-7.94996e-14 -7.15012 -14.651)
(-1.06352e-13 -6.97545 -7.80929)
(-1.04012e-13 -6.17086 -1.23491)
(-1.4445e-13 -4.63198 4.48941)
(-1.0663e-13 -2.52764 8.6803)
(-6.34029e-14 -0.687311 10.8855)
(-1.3145e-15 0.929996 11.2153)
(4.7874e-14 1.07034 10.0458)
(2.37188e-16 0.404076 9.00882)
(-5.28973e-14 0.076416 9.31642)
(-4.49806e-14 0.468222 9.53151)
(-5.30754e-14 1.10094 8.52925)
(-2.17443e-13 1.69839 6.62988)
(-1.35161e-13 2.14376 4.23098)
(-7.6048e-14 2.37041 1.67305)
(-3.56671e-14 2.33159 -0.378364)
(-2.18459e-14 2.02133 -1.52455)
(-5.80743e-14 1.50834 -1.94704)
(-1.16172e-13 0.924425 -1.93124)
(-3.30716e-13 0.396847 -1.66714)
(-7.42593e-14 -0.204617 -1.18869)
(-1.57746e-13 -0.624256 -0.502813)
(1.79834e-13 -0.964976 0.332774)
(6.64323e-14 -1.30159 1.35616)
(8.38198e-14 -1.5909 2.54808)
(4.36293e-14 -1.81933 3.86866)
(-4.23105e-14 -1.99217 5.2849)
(-5.33382e-14 -2.11828 6.76874)
(-1.06141e-13 -2.20458 8.29308)
(-1.06293e-13 -2.25631 9.8339)
(-1.28348e-13 -2.27799 11.3711)
(-1.06306e-13 -2.27377 12.8877)
(-6.63081e-14 -2.24739 14.3699)
(-7.93238e-15 -2.20214 15.806)
(-1.23275e-14 -2.14086 17.1867)
(-7.12299e-15 -2.06607 18.5044)
(-1.52619e-14 -1.97996 19.7531)
(-3.54459e-14 -1.88449 20.9283)
(-3.58933e-14 -1.78141 22.0266)
(-3.92248e-14 -1.67229 23.046)
(-3.10884e-14 -1.55858 23.9851)
(-3.21683e-14 -1.44158 24.8436)
(-5.23356e-14 -1.32253 25.6219)
(-5.35362e-14 -1.20261 26.3211)
(-5.38028e-14 -1.08301 26.9429)
(-5.0911e-14 -0.964973 27.4898)
(-3.80993e-14 -0.849869 27.9648)
(-2.46673e-14 -0.73929 28.3715)
(-1.15049e-14 -0.635231 28.7147)
(9.83947e-16 -0.540187 28.9998)
(1.73079e-14 -0.457481 29.2342)
(3.34535e-14 -0.391354 29.4249)
(4.71689e-14 -0.34799 29.5854)
(5.59973e-14 -0.335783 29.7233)
(6.61583e-14 -0.367084 29.8755)
(7.44627e-14 -0.449724 30.0036)
(8.2918e-14 -0.626523 30.2903)
(9.41001e-14 -0.877492 30.463)
(1.12469e-13 -1.40794 31.4754)
(1.26357e-13 -1.30134 30.5909)
(6.07237e-14 -4.06128 34.391)
(-1.16457e-13 -0.254339 -46.6178)
(-1.14344e-13 -0.247595 -46.2894)
(-1.16004e-13 -0.235691 -45.8801)
(-1.11506e-13 -0.222856 -45.5531)
(-1.13171e-13 -0.203607 -45.2628)
(-1.07599e-13 -0.177294 -45.0359)
(-1.06028e-13 -0.142365 -44.8759)
(-1.15113e-13 -0.0980091 -44.7952)
(-1.1436e-13 -0.0434968 -44.8033)
(-1.07943e-13 0.0216367 -44.9105)
(-9.6057e-14 0.097673 -45.1263)
(-9.04058e-14 0.184665 -45.46)
(-8.60014e-14 0.282382 -45.9199)
(-7.23676e-14 0.390196 -46.5136)
(-5.86027e-14 0.506908 -47.2476)
(-4.31501e-14 0.630536 -48.1263)
(-2.92094e-14 0.758059 -49.1514)
(-1.75285e-14 0.885141 -50.3204)
(-7.9982e-15 1.00579 -51.6255)
(-8.01616e-15 1.11183 -53.0515)
(-1.40062e-14 1.19196 -54.5734)
(-2.25329e-14 1.23023 -56.1529)
(-2.84139e-14 1.20497 -57.7335)
(-3.07715e-14 1.08885 -59.2338)
(-2.73875e-14 0.852237 -60.5406)
(-2.02768e-14 0.477985 -61.5126)
(-1.44774e-14 -0.0180961 -62.0147)
(-1.42114e-14 -0.59354 -61.962)
(-1.91728e-14 -1.20938 -61.3272)
(-2.61101e-14 -1.84339 -60.1221)
(-3.26071e-14 -2.49763 -58.3777)
(-3.83052e-14 -3.17168 -56.0916)
(-3.98095e-14 -3.86576 -53.2683)
(-4.27249e-14 -4.5926 -49.9012)
(-4.48343e-14 -5.35866 -45.9663)
(-5.31842e-14 -6.16082 -41.4311)
(-5.9855e-14 -6.97405 -36.2613)
(-5.85335e-14 -7.74085 -30.4409)
(-6.11947e-14 -8.36983 -24.0223)
(-7.19209e-14 -8.716 -17.1854)
(-1.01459e-13 -8.54458 -10.2075)
(-8.39709e-14 -7.65454 -3.43372)
(-9.76617e-14 -5.88701 2.56633)
(-8.6649e-14 -3.2899 7.21793)
(-7.38931e-14 -1.0142 9.48934)
(-1.13739e-14 1.07736 10.1222)
(6.03402e-14 1.32027 9.0978)
(9.07225e-14 0.37657 8.25123)
(4.7047e-14 -0.0953054 8.75682)
(-6.21146e-14 0.553452 8.51826)
(-1.10289e-13 1.53964 6.46836)
(-2.04928e-13 2.35103 3.67555)
(-7.94262e-14 2.82499 0.889248)
(-8.35527e-14 2.87483 -1.19021)
(-8.89807e-14 2.59547 -2.29721)
(-1.20616e-13 2.10867 -2.71887)
(-2.16684e-13 1.49282 -2.74092)
(-2.65866e-13 0.852084 -2.50458)
(-2.77918e-13 0.229248 -2.09648)
(-7.33505e-14 -0.402111 -1.48324)
(-6.49514e-14 -0.866171 -0.720549)
(6.76136e-14 -1.25589 0.184292)
(4.04121e-14 -1.64283 1.24726)
(7.37226e-14 -1.97677 2.46583)
(5.94377e-15 -2.24209 3.80222)
(2.42404e-14 -2.44381 5.22555)
(-2.87792e-14 -2.5908 6.70939)
(-1.03488e-13 -2.69055 8.22816)
(-9.152e-14 -2.74911 9.75918)
(-9.50367e-14 -2.77186 11.2833)
(-1.335e-14 -2.76373 12.7845)
(2.3075e-14 -2.72915 14.2494)
(3.62792e-14 -2.672 15.667)
(2.37939e-14 -2.5957 17.0281)
(3.30823e-14 -2.50321 18.3256)
(1.17692e-14 -2.3972 19.5537)
(-1.38996e-14 -2.28001 20.708)
(-2.63952e-14 -2.15377 21.7855)
(-4.01253e-14 -2.02038 22.7841)
(-5.14762e-14 -1.88159 23.7029)
(-6.08312e-14 -1.739 24.5416)
(-5.77247e-14 -1.59409 25.3008)
(-5.19021e-14 -1.44831 25.9817)
(-3.37351e-14 -1.30306 26.5861)
(-2.49725e-14 -1.15988 27.1165)
(-2.26879e-14 -1.0204 27.5759)
(-1.21874e-14 -0.886524 27.9682)
(-1.7492e-16 -0.760659 28.2977)
(1.14769e-14 -0.645767 28.57)
(2.14401e-14 -0.545687 28.7917)
(3.78674e-14 -0.46548 28.9694)
(4.99819e-14 -0.412896 29.1165)
(5.42906e-14 -0.397346 29.2403)
(5.84818e-14 -0.429828 29.3702)
(6.43065e-14 -0.528413 29.4618)
(6.76012e-14 -0.753156 29.7428)
(7.41153e-14 -1.05699 29.8997)
(7.65582e-14 -1.55701 30.7252)
(4.55557e-14 -1.65113 29.4581)
(-1.5049e-14 -5.53833 34.7476)
(-1.18302e-13 -0.307119 -47.0483)
(-1.20794e-13 -0.290991 -46.7074)
(-1.22452e-13 -0.278186 -46.2979)
(-1.25746e-13 -0.261546 -45.9716)
(-1.2887e-13 -0.237911 -45.6831)
(-1.2613e-13 -0.205798 -45.4594)
(-1.1758e-13 -0.163608 -45.3039)
(-1.14223e-13 -0.110373 -45.2287)
(-1.06506e-13 -0.0452713 -45.2432)
(-9.24437e-14 0.0322317 -45.3574)
(-8.15015e-14 0.122467 -45.5807)
(-7.73738e-14 0.225517 -45.922)
(-6.37345e-14 0.341155 -46.3897)
(-5.00579e-14 0.468704 -46.9913)
(-3.62984e-14 0.606837 -47.7336)
(-2.29475e-14 0.753306 -48.6213)
(-1.09099e-14 0.904638 -49.6566)
(-7.11822e-15 1.05579 -50.8377)
(-8.28011e-15 1.19974 -52.1574)
(-1.35147e-14 1.32688 -53.6009)
(-2.19524e-14 1.42389 -55.1441)
(-2.57858e-14 1.47198 -56.7497)
(-2.60105e-14 1.44547 -58.363)
(-2.11565e-14 1.3118 -59.9052)
(-1.47649e-14 1.03537 -61.2653)
(-1.27853e-14 0.595175 -62.3016)
(-1.8965e-14 0.0102007 -62.8763)
(-3.12759e-14 -0.667862 -62.9032)
(-4.30212e-14 -1.39138 -62.3554)
(-5.27412e-14 -2.1332 -61.2468)
(-5.8149e-14 -2.89582 -59.6192)
(-6.23647e-14 -3.68198 -57.4738)
(-6.41242e-14 -4.4921 -54.8148)
(-6.40268e-14 -5.34257 -51.6357)
(-6.35644e-14 -6.24282 -47.909)
(-6.33588e-14 -7.19167 -43.5946)
(-6.95007e-14 -8.16312 -38.643)
(-6.81079e-14 -9.09244 -33.0126)
(-6.78415e-14 -9.86845 -26.7153)
(-6.86017e-14 -10.3144 -19.8759)
(-7.496e-14 -10.1732 -12.7368)
(-6.50675e-14 -9.21507 -5.66773)
(-9.7416e-14 -7.23976 0.724525)
(-2.6152e-14 -4.10995 5.89323)
(-6.15368e-14 -1.36976 8.30755)
(-3.78421e-14 1.20796 9.20148)
(2.88324e-14 1.46979 8.5059)
(1.38695e-13 0.279504 7.89597)
(1.39047e-13 -0.164519 8.02606)
(2.7236e-14 0.951547 6.33525)
(-5.02874e-14 2.29472 2.97249)
(-8.58804e-14 3.0676 -0.0414689)
(-6.45213e-14 3.29915 -2.02251)
(-8.8959e-14 3.11527 -3.0475)
(-9.15806e-14 2.68029 -3.44961)
(-1.12246e-13 2.09842 -3.50576)
(-1.357e-13 1.42458 -3.33241)
(-1.29407e-13 0.742159 -2.9647)
(-2.87532e-13 0.0311791 -2.44375)
(-1.37163e-13 -0.620801 -1.7418)
(-1.10179e-13 -1.1258 -0.914664)
(-2.27279e-14 -1.56076 0.0487932)
(3.04407e-14 -1.99374 1.15014)
(5.73133e-14 -2.36906 2.39271)
(3.53967e-14 -2.66828 3.74268)
(5.54024e-14 -2.89644 5.17124)
(-3.60367e-14 -3.06239 6.65371)
(-1.06035e-13 -3.17412 8.16613)
(-5.17014e-14 -3.23841 9.68711)
(-2.38473e-14 -3.2614 11.1985)
(4.02395e-14 -3.24873 12.6851)
(3.42336e-14 -3.20548 14.1341)
(3.19589e-14 -3.1361 15.5347)
(6.5419e-15 -3.0445 16.8781)
(-2.45487e-14 -2.93414 18.1574)
(-4.59686e-14 -2.80811 19.367)
(-5.97658e-14 -2.66915 20.5027)
(-6.63281e-14 -2.51976 21.5616)
(-7.07068e-14 -2.36219 22.5419)
(-7.49096e-14 -2.19847 23.4427)
(-6.96599e-14 -2.03047 24.2639)
(-7.24816e-14 -1.85994 25.0061)
(-6.63945e-14 -1.68855 25.6708)
(-5.39994e-14 -1.51798 26.2597)
(-4.56781e-14 -1.34998 26.7754)
(-3.81987e-14 -1.18646 27.2211)
(-2.98767e-14 -1.02961 27.6002)
(-2.31277e-14 -0.882223 27.9173)
(-1.09545e-14 -0.747641 28.1776)
(-7.17665e-15 -0.630103 28.3871)
(1.65461e-15 -0.535663 28.5517)
(7.42482e-15 -0.473674 28.6856)
(5.47936e-15 -0.452269 28.7939)
(2.9411e-15 -0.481392 28.894)
(-6.03364e-15 -0.602251 28.9513)
(-8.41692e-15 -0.876845 29.246)
(-1.35625e-14 -1.16667 29.325)
(-3.68277e-14 -1.62295 29.8035)
(-7.67907e-14 -2.27593 28.669)
(-5.44389e-14 -7.39205 35.5544)
(-1.24221e-13 -0.355044 -47.4262)
(-1.28488e-13 -0.335943 -47.0634)
(-1.28616e-13 -0.320535 -46.6549)
(-1.30228e-13 -0.30024 -46.3253)
(-1.28911e-13 -0.271964 -46.0358)
(-1.20781e-13 -0.23386 -45.8121)
(-1.13787e-13 -0.184213 -45.6577)
(-1.0343e-13 -0.121913 -45.5848)
(-8.40407e-14 -0.0460568 -45.6026)
(-7.46135e-14 0.0439598 -45.7209)
(-6.38018e-14 0.148516 -45.949)
(-5.22855e-14 0.267728 -46.2958)
(-3.84753e-14 0.401381 -46.7694)
(-2.6035e-14 0.548766 -47.3777)
(-1.48351e-14 0.708445 -48.1272)
(-7.92729e-15 0.877927 -49.023)
(-8.14365e-15 1.0533 -50.0675)
(-9.59133e-15 1.22883 -51.2592)
(-1.39923e-14 1.39647 -52.5913)
(-1.88696e-14 1.54522 -54.0495)
(-2.24116e-14 1.65982 -55.6106)
(-2.16171e-14 1.71872 -57.2394)
(-1.71314e-14 1.69241 -58.8843)
(-1.30298e-14 1.54313 -60.4709)
(-1.43477e-14 1.22905 -61.892)
(-2.51282e-14 0.724739 -63.0057)
(-4.22411e-14 0.0521337 -63.6696)
(-5.77081e-14 -0.72754 -63.7926)
(-6.76185e-14 -1.55753 -63.3452)
(-7.25982e-14 -2.4048 -62.3419)
(-7.46538e-14 -3.27179 -60.8368)
(-7.42286e-14 -4.16557 -58.8376)
(-7.15153e-14 -5.08702 -56.3481)
(-6.69643e-14 -6.05659 -53.3635)
(-6.23235e-14 -7.08743 -49.8549)
(-6.02727e-14 -8.1816 -45.7773)
(-6.67031e-14 -9.31435 -41.0696)
(-6.70904e-14 -10.4167 -35.6665)
(-7.0491e-14 -11.3613 -29.5371)
(-7.14218e-14 -11.9416 -22.742)
(-7.23953e-14 -11.8691 -15.4646)
(-6.37679e-14 -10.8737 -8.06044)
(-7.03491e-14 -8.70423 -1.17662)
(-1.77941e-14 -5.02192 4.55051)
(-7.93955e-14 -1.78712 7.39061)
(-7.78711e-14 1.31801 8.48036)
(-6.26057e-15 1.51154 8.10977)
(3.3753e-14 0.421248 7.80205)
(9.62519e-14 0.19947 6.4602)
(6.15009e-14 1.84774 2.3199)
(-2.71571e-14 3.04471 -0.960993)
(-1.71066e-14 3.50495 -2.85521)
(-7.65008e-14 3.50517 -3.783)
(-9.04367e-14 3.18681 -4.14582)
(-1.04478e-13 2.67593 -4.21529)
(-1.50048e-13 2.04128 -4.10364)
(-2.2016e-13 1.32896 -3.81006)
(-1.8819e-13 0.612278 -3.34124)
(-2.76745e-13 -0.177819 -2.73727)
(-1.63516e-13 -0.857143 -1.96769)
(-1.42306e-13 -1.40169 -1.08551)
(-1.50984e-14 -1.87853 -0.0719278)
(2.5752e-14 -2.3534 1.06537)
(-1.69314e-15 -2.76671 2.32944)
(1.83345e-14 -3.09708 3.6908)
(5.07475e-16 -3.34951 5.12281)
(-4.4648e-14 -3.53276 6.60273)
(-8.36046e-14 -3.65522 8.10822)
(-2.95903e-14 -3.72431 9.61923)
(5.15017e-15 -3.74687 11.1186)
(2.81294e-14 -3.72918 12.5916)
(1.39409e-14 -3.67689 14.026)
(-1.7584e-14 -3.59498 15.4113)
(-4.7884e-14 -3.48786 16.7389)
(-7.81975e-14 -3.35947 18.002)
(-1.07819e-13 -3.2133 19.1951)
(-1.05451e-13 -3.05252 20.3142)
(-8.62621e-14 -2.87997 21.3566)
(-6.98776e-14 -2.69825 22.3206)
(-5.93856e-14 -2.50967 23.2054)
(-6.37514e-14 -2.31638 24.011)
(-7.4159e-14 -2.12039 24.7382)
(-6.95784e-14 -1.9236 25.3883)
(-6.98929e-14 -1.72791 25.9634)
(-6.11885e-14 -1.53531 26.466)
(-5.83266e-14 -1.34797 26.8992)
(-5.56701e-14 -1.16833 27.2664)
(-5.15987e-14 -0.999509 27.572)
(-4.825e-14 -0.845164 27.8208)
(-3.86997e-14 -0.709844 28.0184)
(-3.65967e-14 -0.600951 28.17)
(-3.83986e-14 -0.528861 28.2912)
(-4.55556e-14 -0.497229 28.3811)
(-5.13936e-14 -0.520432 28.444)
(-5.88026e-14 -0.675172 28.4798)
(-6.92874e-14 -0.978706 28.7955)
(-8.86681e-14 -1.17044 28.6819)
(-1.17424e-13 -1.69611 28.8043)
(-1.08931e-13 -3.33326 28.4874)
(-3.95799e-14 -9.53103 36.5982)
(-1.14421e-13 -0.401357 -47.7544)
(-1.20796e-13 -0.381665 -47.3751)
(-1.15901e-13 -0.363112 -46.9647)
(-1.10164e-13 -0.339111 -46.6301)
(-1.03765e-13 -0.306014 -46.3374)
(-8.90376e-14 -0.261749 -46.1114)
(-7.94027e-14 -0.204465 -45.9558)
(-7.62325e-14 -0.132923 -45.8828)
(-6.33257e-14 -0.046138 -45.9013)
(-5.59139e-14 0.0565568 -46.0214)
(-4.87062e-14 0.175587 -46.2521)
(-3.53439e-14 0.311104 -46.6022)
(-2.53609e-14 0.462908 -47.08)
(-1.71849e-14 0.630265 -47.693)
(-1.20025e-14 0.811637 -48.4479)
(-1.05901e-14 1.0043 -49.3498)
(-1.22994e-14 1.20393 -50.4012)
(-1.47357e-14 1.40409 -51.601)
(-1.59245e-14 1.59576 -52.9424)
(-1.6937e-14 1.7666 -54.412)
(-1.84379e-14 1.89955 -55.9882)
(-1.52365e-14 1.97053 -57.6385)
(-1.33333e-14 1.94635 -59.3158)
(-1.78693e-14 1.78412 -60.9523)
(-3.09438e-14 1.43535 -62.4457)
(-4.94825e-14 0.869266 -63.6528)
(-6.60716e-14 0.110166 -64.4235)
(-7.59219e-14 -0.770862 -64.6576)
(-7.87344e-14 -1.70715 -64.3202)
(-7.81842e-14 -2.65839 -63.4257)
(-7.75935e-14 -3.62605 -62.0411)
(-7.38995e-14 -4.623 -60.1843)
(-7.20227e-14 -5.65088 -57.8581)
(-6.48094e-14 -6.73437 -55.061)
(-5.79069e-14 -7.89088 -51.7651)
(-5.62208e-14 -9.12681 -47.9252)
(-5.762e-14 -10.4208 -43.4738)
(-5.69891e-14 -11.7033 -38.3277)
(-6.41435e-14 -12.8358 -32.4163)
(-6.95191e-14 -13.5861 -25.7318)
(-6.71357e-14 -13.63 -18.3789)
(-4.72903e-14 -12.6422 -10.6589)
(-5.76418e-14 -10.2925 -3.22914)
(-8.80806e-15 -6.09697 3.09407)
(-9.02407e-14 -2.3573 6.75376)
(-1.06816e-13 1.33006 7.99643)
(-4.256e-14 1.47637 7.95647)
(2.80599e-14 0.748547 7.11371)
(7.77299e-14 1.12589 2.38431)
(3.79907e-14 2.69233 -1.52813)
(-1.66479e-14 3.46624 -3.51034)
(-4.45807e-14 3.69454 -4.43783)
(-1.13238e-13 3.56591 -4.79923)
(-1.21405e-13 3.18242 -4.874)
(-1.63579e-13 2.63048 -4.79918)
(-2.35533e-13 1.95684 -4.592)
(-3.31829e-13 1.2116 -4.20726)
(-3.12564e-13 0.462351 -3.66574)
(-3.61342e-13 -0.401223 -2.98287)
(-2.49415e-13 -1.10866 -2.16214)
(-1.76172e-13 -1.6914 -1.23253)
(-2.62853e-14 -2.20783 -0.175797)
(1.60107e-14 -2.72097 0.994262)
(-7.73456e-15 -3.1689 2.27715)
(2.63326e-14 -3.52779 3.64762)
(-8.39257e-15 -3.80246 5.08133)
(-4.13465e-14 -4.00154 6.55763)
(-3.93464e-14 -4.13367 8.05583)
(2.05568e-14 -4.20683 9.55712)
(2.23222e-14 -4.22845 11.0452)
(2.64753e-14 -4.20536 12.5059)
(-7.93012e-15 -4.14373 13.9271)
(-3.61941e-14 -4.04907 15.2987)
(-6.18328e-14 -3.92626 16.6121)
(-1.11065e-13 -3.77968 17.8607)
(-1.11618e-13 -3.61328 19.039)
(-7.2858e-14 -3.43063 20.1433)
(-5.42565e-14 -3.23493 21.171)
(-4.08574e-14 -3.02909 22.1203)
(-4.33091e-14 -2.81574 22.9907)
(-5.70427e-14 -2.59729 23.7824)
(-7.16309e-14 -2.37599 24.496)
(-7.83511e-14 -2.15398 25.1332)
(-7.38979e-14 -1.93337 25.6959)
(-7.58915e-14 -1.71638 26.1867)
(-7.73384e-14 -1.50539 26.6085)
(-7.02079e-14 -1.30309 26.9648)
(-6.16589e-14 -1.11289 27.2597)
(-5.30241e-14 -0.938628 27.4977)
(-4.61476e-14 -0.785198 27.6835)
(-4.21866e-14 -0.661768 27.8225)
(-4.27935e-14 -0.578137 27.9311)
(-5.04113e-14 -0.530669 27.9985)
(-5.9502e-14 -0.550128 28.02)
(-7.21792e-14 -0.749969 28.0554)
(-8.60864e-14 -1.03186 28.3721)
(-1.11315e-13 -1.06586 27.9378)
(-1.14563e-13 -1.91787 27.9172)
(-6.99605e-14 -4.88034 28.9432)
(-1.80107e-14 -11.7996 37.641)