/*--------------------------------*- C++ -*----------------------------------*\
| =========                 |                                                 |
| \\      /  F ield         | OpenFOAM: The Open Source CFD Toolbox           |
|  \\    /   O peration     | Version:  4.1                                   |
|   \\  /    A nd           | Web:      www.OpenFOAM.org                      |
|    \\/     M anipulation  |                                                 |
\*---------------------------------------------------------------------------*/
FoamFile
{
    version     2.0;
    format      ascii;
    class       volScalarField;
    location    "400";
    object      k;
}
// * * * * * * * * * * * * * * * * * * * * * * * * * * * * * * * * * * * * * //

dimensions      [0 2 -2 0 0 0 0];

internalField   nonuniform List<scalar> 
6820
(
0.226697
0.279347
0.331744
0.382734
0.43093
0.475126
0.514421
0.54829
0.576587
0.599477
0.617345
0.630716
0.640181
0.646341
0.649769
0.650991
0.650468
0.648597
0.645711
0.642087
0.637949
0.633476
0.628811
0.624066
0.619327
0.614661
0.610115
0.605734
0.601508
0.597648
0.593213
0.592931
0.57374
0.207938
0.216621
0.219548
0.220394
0.221056
0.222078
0.223474
0.22514
0.226961
0.228846
0.230731
0.232584
0.234393
0.236162
0.237901
0.239628
0.241357
0.243105
0.244885
0.246705
0.248572
0.25049
0.252458
0.254475
0.256536
0.258634
0.260762
0.262909
0.26506
0.267227
0.2693
0.271632
0.273183
0.201064
0.204896
0.206826
0.206612
0.205168
0.203176
0.200968
0.198675
0.196348
0.194008
0.19167
0.189349
0.187063
0.184828
0.182661
0.180578
0.178592
0.176713
0.174949
0.173308
0.171791
0.170401
0.169137
0.167998
0.166981
0.16608
0.165293
0.164612
0.164032
0.163546
0.163143
0.162819
0.162545
0.199585
0.199595
0.199834
0.199709
0.199082
0.198053
0.196754
0.195281
0.193696
0.192037
0.19033
0.188591
0.186834
0.18507
0.183308
0.181557
0.179825
0.178119
0.176444
0.174806
0.17321
0.171659
0.170156
0.168704
0.167304
0.165957
0.164664
0.163426
0.162242
0.161113
0.160036
0.159014
0.158041
0.199411
0.198486
0.19779
0.197167
0.196484
0.195676
0.194737
0.193687
0.19255
0.191348
0.190099
0.188816
0.187511
0.186191
0.184864
0.183536
0.182211
0.180895
0.17959
0.1783
0.177029
0.175778
0.174549
0.173345
0.172168
0.171018
0.169896
0.168804
0.167742
0.166711
0.165711
0.164743
0.163807
0.199395
0.198258
0.197235
0.196308
0.195431
0.194563
0.193675
0.192755
0.191799
0.190812
0.189799
0.188765
0.187716
0.186657
0.185592
0.184526
0.183461
0.182401
0.181348
0.180304
0.17927
0.17825
0.177244
0.176253
0.175279
0.174322
0.173385
0.172466
0.171567
0.170689
0.169832
0.168996
0.168182
0.199395
0.198217
0.197099
0.196044
0.195047
0.194092
0.193165
0.192252
0.191343
0.190435
0.189525
0.188612
0.187697
0.186781
0.185867
0.184955
0.184048
0.183146
0.182252
0.181366
0.180489
0.179623
0.178769
0.177926
0.177097
0.176282
0.17548
0.174694
0.173922
0.173166
0.172427
0.171703
0.170995
0.199395
0.198211
0.19707
0.195974
0.194924
0.193917
0.192948
0.19201
0.191097
0.190204
0.189326
0.188462
0.187608
0.186764
0.185929
0.185103
0.184287
0.18348
0.182683
0.181896
0.181119
0.180354
0.179599
0.178857
0.178126
0.177408
0.176702
0.17601
0.17533
0.174663
0.17401
0.173371
0.172744
0.199395
0.19821
0.197064
0.195957
0.194889
0.19386
0.192867
0.191909
0.190981
0.190082
0.189208
0.188355
0.187523
0.186708
0.18591
0.185127
0.184358
0.183603
0.182862
0.182133
0.181417
0.180714
0.180024
0.179345
0.17868
0.178026
0.177385
0.176757
0.17614
0.175537
0.174945
0.174366
0.173798
0.199395
0.19821
0.197062
0.195953
0.19488
0.193843
0.19284
0.191871
0.190934
0.190027
0.189147
0.188294
0.187466
0.186659
0.185874
0.185108
0.184361
0.183631
0.182918
0.182221
0.181539
0.180871
0.180218
0.179579
0.178953
0.178341
0.177741
0.177154
0.17658
0.176018
0.175468
0.17493
0.174404
0.199395
0.198209
0.197062
0.195951
0.194877
0.193838
0.192832
0.191858
0.190916
0.190004
0.189121
0.188264
0.187434
0.186628
0.185846
0.185085
0.184345
0.183626
0.182925
0.182242
0.181576
0.180927
0.180293
0.179675
0.179072
0.178483
0.177908
0.177346
0.176797
0.176262
0.175738
0.175227
0.174727
0.199395
0.198209
0.197061
0.195951
0.194876
0.193836
0.192829
0.191854
0.19091
0.189995
0.189109
0.188251
0.187418
0.186611
0.185828
0.185068
0.18433
0.183613
0.182916
0.182239
0.181579
0.180938
0.180314
0.179706
0.179114
0.178537
0.177974
0.177426
0.176892
0.176371
0.175863
0.175367
0.174883
0.199395
0.198209
0.197061
0.19595
0.194875
0.193834
0.192827
0.191851
0.190907
0.189991
0.189104
0.188244
0.187411
0.186603
0.185819
0.185058
0.184319
0.183603
0.182907
0.18223
0.181573
0.180935
0.180314
0.17971
0.179122
0.17855
0.177994
0.177452
0.176925
0.176411
0.175911
0.175423
0.174948
0.199395
0.198209
0.197061
0.19595
0.194874
0.193833
0.192826
0.19185
0.190905
0.189989
0.189101
0.188241
0.187407
0.186598
0.185813
0.185051
0.184313
0.183595
0.182899
0.182223
0.181566
0.180928
0.180308
0.179705
0.179119
0.178549
0.177995
0.177455
0.176931
0.17642
0.175923
0.175439
0.174968
0.199395
0.198209
0.19706
0.195949
0.194874
0.193833
0.192825
0.191849
0.190903
0.189987
0.189099
0.188238
0.187404
0.186594
0.185809
0.185047
0.184308
0.18359
0.182893
0.182217
0.18156
0.180921
0.180301
0.179698
0.179112
0.178543
0.177989
0.17745
0.176927
0.176417
0.175921
0.175438
0.174969
0.199395
0.198209
0.19706
0.195949
0.194873
0.193832
0.192824
0.191848
0.190902
0.189985
0.189097
0.188236
0.187401
0.186591
0.185806
0.185044
0.184304
0.183586
0.182889
0.182212
0.181554
0.180916
0.180295
0.179692
0.179106
0.178536
0.177982
0.177444
0.17692
0.17641
0.175914
0.175432
0.174962
0.199395
0.198209
0.19706
0.195949
0.194873
0.193832
0.192823
0.191847
0.190901
0.189984
0.189095
0.188234
0.187399
0.186589
0.185803
0.185041
0.184301
0.183582
0.182885
0.182207
0.18155
0.180911
0.18029
0.179686
0.1791
0.17853
0.177976
0.177437
0.176913
0.176403
0.175907
0.175424
0.174954
0.199395
0.198208
0.19706
0.195948
0.194873
0.193831
0.192823
0.191846
0.1909
0.189983
0.189094
0.188232
0.187397
0.186587
0.185801
0.185038
0.184298
0.183579
0.182881
0.182204
0.181545
0.180906
0.180285
0.179681
0.179094
0.178524
0.177969
0.17743
0.176906
0.176395
0.175899
0.175416
0.174946
0.199395
0.198208
0.19706
0.195948
0.194872
0.193831
0.192822
0.191845
0.190899
0.189982
0.189093
0.188231
0.187395
0.186585
0.185798
0.185035
0.184295
0.183576
0.182878
0.1822
0.181542
0.180902
0.18028
0.179676
0.179089
0.178519
0.177964
0.177424
0.176899
0.176389
0.175892
0.175409
0.174938
0.199395
0.198208
0.19706
0.195948
0.194872
0.19383
0.192821
0.191844
0.190898
0.189981
0.189092
0.18823
0.187394
0.186583
0.185796
0.185033
0.184292
0.183573
0.182875
0.182197
0.181538
0.180898
0.180276
0.179672
0.179085
0.178514
0.177958
0.177418
0.176893
0.176382
0.175885
0.175402
0.174931
0.199395
0.198208
0.19706
0.195948
0.194872
0.19383
0.192821
0.191844
0.190897
0.18998
0.189091
0.188228
0.187392
0.186581
0.185795
0.185031
0.18429
0.183571
0.182872
0.182194
0.181535
0.180895
0.180273
0.179668
0.17908
0.178509
0.177953
0.177413
0.176888
0.176376
0.175879
0.175395
0.174924
0.199395
0.198208
0.19706
0.195948
0.194872
0.19383
0.192821
0.191843
0.190897
0.189979
0.18909
0.188227
0.187391
0.18658
0.185793
0.185029
0.184288
0.183568
0.18287
0.182191
0.181532
0.180891
0.180269
0.179664
0.179076
0.178505
0.177949
0.177408
0.176883
0.176371
0.175873
0.175389
0.174918
0.199395
0.198208
0.197059
0.195948
0.194871
0.193829
0.19282
0.191843
0.190896
0.189978
0.189089
0.188226
0.18739
0.186579
0.185791
0.185028
0.184286
0.183566
0.182867
0.182189
0.181529
0.180889
0.180266
0.179661
0.179073
0.178501
0.177945
0.177404
0.176878
0.176366
0.175868
0.175384
0.174912
0.199395
0.198208
0.197059
0.195947
0.194871
0.193829
0.19282
0.191843
0.190896
0.189978
0.189088
0.188225
0.187389
0.186577
0.18579
0.185026
0.184284
0.183565
0.182865
0.182186
0.181527
0.180886
0.180263
0.179658
0.179069
0.178497
0.177941
0.1774
0.176874
0.176361
0.175863
0.175378
0.174907
0.199395
0.198208
0.197059
0.195947
0.194871
0.193829
0.19282
0.191842
0.190895
0.189977
0.189087
0.188225
0.187388
0.186576
0.185789
0.185025
0.184283
0.183563
0.182864
0.182184
0.181525
0.180883
0.18026
0.179655
0.179066
0.178494
0.177937
0.177396
0.17687
0.176357
0.175859
0.175374
0.174902
0.199395
0.198208
0.197059
0.195947
0.194871
0.193829
0.19282
0.191842
0.190895
0.189977
0.189087
0.188224
0.187387
0.186576
0.185788
0.185024
0.184282
0.183561
0.182862
0.182183
0.181523
0.180881
0.180258
0.179652
0.179064
0.178491
0.177934
0.177393
0.176866
0.176354
0.175855
0.17537
0.174897
0.199395
0.198208
0.197059
0.195947
0.194871
0.193829
0.192819
0.191842
0.190895
0.189976
0.189086
0.188224
0.187387
0.186575
0.185787
0.185023
0.184281
0.18356
0.18286
0.182181
0.181521
0.180879
0.180256
0.17965
0.179061
0.178488
0.177931
0.17739
0.176863
0.17635
0.175851
0.175366
0.174893
0.199395
0.198208
0.197059
0.195947
0.194871
0.193829
0.192819
0.191842
0.190894
0.189976
0.189086
0.188223
0.187386
0.186574
0.185786
0.185022
0.18428
0.183559
0.182859
0.18218
0.181519
0.180878
0.180254
0.179648
0.179059
0.178486
0.177929
0.177387
0.17686
0.176347
0.175848
0.175362
0.17489
0.199395
0.198208
0.197059
0.195947
0.194871
0.193829
0.192819
0.191842
0.190894
0.189976
0.189086
0.188223
0.187386
0.186574
0.185786
0.185021
0.184279
0.183558
0.182858
0.182178
0.181518
0.180876
0.180253
0.179647
0.179057
0.178484
0.177927
0.177385
0.176858
0.176345
0.175845
0.17536
0.174887
0.199395
0.198208
0.197059
0.195947
0.194871
0.193829
0.192819
0.191841
0.190894
0.189976
0.189086
0.188223
0.187385
0.186573
0.185785
0.185021
0.184278
0.183557
0.182857
0.182178
0.181517
0.180875
0.180251
0.179645
0.179056
0.178483
0.177925
0.177383
0.176856
0.176342
0.175843
0.175357
0.174884
0.199395
0.198208
0.197059
0.195947
0.194871
0.193829
0.192819
0.191841
0.190894
0.189976
0.189086
0.188222
0.187385
0.186573
0.185785
0.18502
0.184278
0.183557
0.182857
0.182177
0.181516
0.180874
0.180251
0.179644
0.179055
0.178481
0.177924
0.177382
0.176854
0.176341
0.175841
0.175355
0.174882
0.199395
0.198208
0.197059
0.195947
0.194871
0.193829
0.192819
0.191841
0.190894
0.189976
0.189086
0.188222
0.187385
0.186573
0.185785
0.18502
0.184278
0.183557
0.182857
0.182177
0.181516
0.180874
0.18025
0.179644
0.179054
0.178481
0.177923
0.177381
0.176853
0.17634
0.17584
0.175354
0.174881
0.199395
0.198208
0.197059
0.195947
0.194871
0.193829
0.192819
0.191841
0.190894
0.189976
0.189086
0.188223
0.187386
0.186573
0.185786
0.185021
0.184278
0.183558
0.182858
0.182178
0.181517
0.180875
0.180251
0.179644
0.179055
0.178481
0.177923
0.17738
0.176852
0.176339
0.175839
0.175352
0.174878
0.199395
0.198208
0.197059
0.195947
0.194871
0.193829
0.19282
0.191843
0.190896
0.189978
0.189089
0.188226
0.18739
0.186578
0.185791
0.185026
0.184284
0.183563
0.182863
0.182183
0.181522
0.180879
0.180255
0.179647
0.179056
0.178481
0.177922
0.177378
0.176848
0.176333
0.17583
0.175341
0.174865
0.199395
0.198208
0.197059
0.195948
0.194872
0.193831
0.192824
0.191848
0.190902
0.189986
0.189098
0.188236
0.1874
0.186589
0.185801
0.185036
0.184293
0.183571
0.182869
0.182186
0.181522
0.180876
0.180248
0.179636
0.179041
0.178461
0.177897
0.177347
0.176811
0.176289
0.175781
0.175285
0.174802
0.199395
0.198209
0.197062
0.195955
0.194886
0.193853
0.192854
0.191885
0.190945
0.190033
0.189146
0.188284
0.187446
0.186631
0.185838
0.185066
0.184314
0.183582
0.182868
0.182174
0.181497
0.180837
0.180194
0.179567
0.178956
0.17836
0.177779
0.177212
0.176659
0.176119
0.175593
0.175079
0.174577
0.199395
0.198223
0.197106
0.196032
0.194988
0.19397
0.192977
0.192008
0.191061
0.190136
0.189233
0.188352
0.187492
0.186652
0.185833
0.185034
0.184253
0.183492
0.182748
0.182022
0.181314
0.180622
0.179947
0.179288
0.178644
0.178015
0.1774
0.1768
0.176214
0.175641
0.175082
0.174535
0.174001
0.19941
0.198319
0.197296
0.196301
0.19531
0.194319
0.193329
0.192346
0.191374
0.190417
0.189479
0.188561
0.187664
0.186788
0.185934
0.185101
0.184288
0.183495
0.182721
0.181966
0.18123
0.180511
0.179809
0.179123
0.178454
0.1778
0.177161
0.176537
0.175927
0.175331
0.174749
0.17418
0.173624
0.199716
0.199139
0.19847
0.197764
0.197072
0.196419
0.195812
0.195251
0.194735
0.194262
0.193831
0.193441
0.193089
0.192773
0.192493
0.192245
0.192028
0.191839
0.191677
0.19154
0.191425
0.191332
0.191259
0.191204
0.191165
0.191142
0.191134
0.191138
0.191154
0.191182
0.191219
0.191266
0.191322
0.205424
0.216593
0.227629
0.238434
0.248976
0.259243
0.269229
0.278926
0.288326
0.297424
0.306216
0.314701
0.322877
0.330747
0.338313
0.345577
0.352546
0.359224
0.365619
0.371736
0.377584
0.38317
0.388503
0.39359
0.398441
0.403064
0.407468
0.41166
0.41565
0.419446
0.423056
0.426487
0.429751
0.660071
0.768113
0.8741
0.981605
1.09218
1.202
1.30456
1.39396
1.46663
1.52221
1.56285
1.59204
1.61338
1.62982
1.64331
1.65489
1.66488
1.67323
1.67977
1.68439
1.68713
1.68817
1.68779
1.68632
1.68405
1.68123
1.67807
1.6747
1.67122
1.66769
1.66416
1.66063
1.65711
1.65354
1.64987
1.64599
1.64178
1.63707
1.63171
1.62551
1.61828
1.60985
1.60004
1.58867
1.57562
1.56076
1.544
1.52529
1.50462
1.48203
1.45758
1.4314
1.40365
1.37453
1.34429
1.31319
1.28153
1.24962
1.21776
1.18628
1.15547
1.12561
1.09693
1.06966
1.04395
1.01993
0.997681
0.977218
0.958529
0.941553
0.926195
0.912326
0.899792
0.888422
0.878035
0.868446
0.85947
0.850934
0.842677
0.834557
0.826451
0.81826
0.80991
0.801348
0.792544
0.783486
0.774181
0.764651
0.75493
0.745062
0.735099
0.725103
0.71514
0.705286
0.695636
0.686281
0.677405
0.669111
0.661727
0.654931
0.276525
0.284703
0.297985
0.317369
0.344371
0.380505
0.426859
0.483769
0.550549
0.625458
0.7059
0.788775
0.870887
0.949329
1.02179
1.08672
1.14339
1.19181
1.23253
1.26646
1.29461
1.31796
1.33731
1.3533
1.36636
1.37682
1.38492
1.39089
1.39497
1.39738
1.39834
1.39804
1.39663
1.3942
1.39084
1.38655
1.38132
1.37511
1.36786
1.35949
1.34991
1.33903
1.32677
1.31304
1.29777
1.28093
1.26248
1.24243
1.22083
1.19775
1.1733
1.14763
1.12092
1.0934
1.0653
1.03689
1.00844
0.980245
0.952575
0.925701
0.89987
0.875305
0.852193
0.830687
0.810898
0.792895
0.776706
0.762317
0.749676
0.738699
0.729269
0.721245
0.714466
0.708757
0.703935
0.699816
0.696217
0.692966
0.689903
0.686885
0.683791
0.680519
0.676992
0.673156
0.668978
0.664445
0.659562
0.65435
0.648843
0.643087
0.637135
0.63105
0.624905
0.618779
0.612772
0.606987
0.601595
0.596781
0.592525
0.590452
0.162232
0.162072
0.162287
0.163021
0.164564
0.167268
0.171562
0.177983
0.187171
0.199859
0.216824
0.238833
0.266545
0.300405
0.340547
0.386695
0.438128
0.493681
0.551825
0.610804
0.668819
0.724222
0.775685
0.822298
0.863596
0.899506
0.930255
0.956244
0.977955
0.995861
1.01039
1.0219
1.03069
1.03699
1.04101
1.04289
1.04279
1.04079
1.037
1.03147
1.02427
1.01542
1.00496
0.992923
0.979345
0.964272
0.947766
0.929908
0.910801
0.890574
0.869381
0.8474
0.82483
0.801892
0.778816
0.755844
0.733217
0.71117
0.689928
0.669695
0.650653
0.632956
0.616725
0.602051
0.588989
0.577563
0.567766
0.559561
0.552884
0.547648
0.543745
0.541046
0.539411
0.538687
0.538714
0.539329
0.54037
0.54168
0.543112
0.544533
0.545825
0.546889
0.547648
0.548044
0.548039
0.547617
0.546777
0.545535
0.543921
0.541977
0.539755
0.537318
0.534736
0.532091
0.529482
0.527019
0.524852
0.523248
0.521836
0.524028
0.156977
0.155821
0.154718
0.153684
0.152726
0.151878
0.151188
0.150723
0.150571
0.150844
0.151684
0.153268
0.155814
0.159586
0.164895
0.172103
0.181605
0.193813
0.209111
0.227807
0.250064
0.275846
0.304878
0.336631
0.370359
0.405158
0.440057
0.47411
0.506482
0.536507
0.563713
0.587819
0.60871
0.626395
0.640973
0.652589
0.661414
0.667621
0.671379
0.672845
0.672164
0.669476
0.664911
0.658598
0.650665
0.641247
0.630481
0.618517
0.605513
0.591639
0.577074
0.562007
0.546633
0.53115
0.515755
0.50064
0.485985
0.471959
0.458712
0.446372
0.435046
0.42482
0.415755
0.407891
0.401246
0.395823
0.391606
0.388562
0.386648
0.385806
0.385964
0.387042
0.388945
0.391571
0.394807
0.398535
0.402632
0.406975
0.411441
0.415916
0.420293
0.424479
0.428396
0.431982
0.435191
0.437998
0.44039
0.442374
0.443968
0.445205
0.446129
0.446792
0.447261
0.447611
0.447936
0.448346
0.448966
0.450127
0.451136
0.456932
0.162756
0.16158
0.160414
0.159264
0.15813
0.157015
0.155927
0.154876
0.153875
0.152944
0.152105
0.151387
0.150827
0.15047
0.15037
0.150593
0.151215
0.15233
0.154045
0.156483
0.15978
0.164082
0.169536
0.176279
0.184421
0.194025
0.205089
0.21753
0.231178
0.245773
0.260989
0.276448
0.291757
0.306532
0.320426
0.333146
0.344464
0.35422
0.362317
0.368716
0.373422
0.37648
0.377963
0.377966
0.376603
0.373997
0.370284
0.365608
0.360115
0.353958
0.347288
0.340258
0.333015
0.3257
0.318446
0.311374
0.304593
0.298198
0.29227
0.286874
0.282063
0.277878
0.274349
0.271496
0.269331
0.267862
0.267089
0.267009
0.267614
0.268889
0.270816
0.273367
0.276509
0.280197
0.284378
0.288991
0.293963
0.299217
0.304667
0.310229
0.315817
0.321348
0.326751
0.331958
0.33692
0.341595
0.34596
0.350002
0.353723
0.35714
0.360279
0.363179
0.365891
0.368479
0.371022
0.373621
0.376373
0.379654
0.382502
0.390991
0.167259
0.166213
0.165166
0.164117
0.163069
0.162023
0.16098
0.159944
0.158916
0.157902
0.156906
0.155936
0.155001
0.154112
0.153282
0.152527
0.151866
0.151321
0.150915
0.150678
0.150639
0.150831
0.151291
0.152057
0.153165
0.154654
0.156558
0.158902
0.161703
0.164963
0.168667
0.172776
0.177234
0.181958
0.186851
0.191799
0.196682
0.201378
0.205772
0.209761
0.213262
0.216212
0.218568
0.220313
0.22145
0.221998
0.221996
0.221493
0.220548
0.21923
0.217606
0.215749
0.213728
0.21161
0.209458
0.207329
0.205273
0.203335
0.201553
0.199961
0.198586
0.197452
0.196581
0.19599
0.195696
0.195716
0.196063
0.196753
0.197799
0.199214
0.201007
0.203187
0.205758
0.208716
0.212054
0.215755
0.219794
0.22414
0.228749
0.233575
0.238563
0.243656
0.248798
0.253934
0.259012
0.263991
0.268836
0.273521
0.278032
0.282367
0.286534
0.290553
0.294456
0.298288
0.302108
0.306002
0.310032
0.314595
0.318547
0.328559
0.170189
0.169273
0.168348
0.167418
0.166481
0.16554
0.164595
0.163647
0.162696
0.161746
0.160796
0.15985
0.158911
0.157981
0.157066
0.15617
0.155301
0.154464
0.15367
0.152927
0.152246
0.151637
0.151112
0.150683
0.150363
0.150162
0.150092
0.150161
0.150378
0.150748
0.151272
0.151948
0.15277
0.153724
0.154794
0.155959
0.15719
0.158457
0.159728
0.160969
0.162147
0.163232
0.164199
0.165027
0.1657
0.166211
0.166557
0.166743
0.166777
0.166672
0.166447
0.166119
0.16571
0.16524
0.16473
0.164201
0.163671
0.163159
0.162681
0.162253
0.161887
0.161599
0.161401
0.161306
0.161326
0.161476
0.161768
0.162218
0.162841
0.163652
0.164668
0.165903
0.167373
0.16909
0.171064
0.173301
0.175803
0.178567
0.181582
0.184832
0.188297
0.19195
0.195759
0.199692
0.203715
0.207797
0.211906
0.21602
0.220118
0.224189
0.22823
0.232246
0.236254
0.24028
0.244365
0.248575
0.252942
0.257849
0.262101
0.2723
0.17203
0.171215
0.170391
0.16956
0.16872
0.167873
0.16702
0.16616
0.165294
0.164423
0.163548
0.16267
0.161789
0.160908
0.160029
0.159152
0.158282
0.15742
0.156571
0.155739
0.154928
0.154142
0.153388
0.152671
0.151995
0.151368
0.150792
0.150275
0.149819
0.149428
0.149104
0.148848
0.14866
0.148537
0.148476
0.148472
0.148517
0.148603
0.148722
0.148862
0.149013
0.149164
0.149305
0.149427
0.149522
0.149584
0.149609
0.149593
0.149535
0.149437
0.149301
0.14913
0.148929
0.148702
0.148457
0.148197
0.147931
0.147663
0.147399
0.147146
0.146909
0.146696
0.146511
0.146362
0.146255
0.1462
0.146204
0.146277
0.14643
0.146673
0.147019
0.147481
0.148072
0.148805
0.149692
0.150745
0.151973
0.153385
0.154983
0.156769
0.15874
0.16089
0.163209
0.165685
0.168301
0.171043
0.173895
0.176841
0.179869
0.18297
0.18614
0.18938
0.192699
0.196114
0.199652
0.203362
0.207257
0.211678
0.215513
0.224647
0.173151
0.172412
0.171665
0.17091
0.170146
0.169375
0.168596
0.16781
0.167017
0.166218
0.165412
0.164601
0.163785
0.162965
0.162141
0.161315
0.160489
0.159663
0.15884
0.158021
0.157208
0.156405
0.155613
0.154836
0.154077
0.153338
0.152622
0.151933
0.151274
0.150646
0.150052
0.149494
0.148972
0.148487
0.148039
0.147626
0.147248
0.146901
0.146582
0.146289
0.146017
0.145763
0.145521
0.145289
0.145062
0.144837
0.14461
0.14438
0.144143
0.1439
0.143648
0.143388
0.14312
0.142844
0.14256
0.142271
0.141976
0.141678
0.141377
0.141076
0.140777
0.140481
0.140191
0.139909
0.13964
0.139387
0.139154
0.138948
0.138773
0.138638
0.13855
0.138517
0.138549
0.138655
0.138847
0.139133
0.139524
0.140028
0.140654
0.141407
0.142292
0.143311
0.144465
0.145752
0.147168
0.14871
0.15037
0.152144
0.154027
0.156016
0.15811
0.160312
0.162628
0.165071
0.167661
0.170437
0.1734
0.176828
0.179808
0.187036
0.173803
0.173119
0.172427
0.171727
0.171021
0.170306
0.169585
0.168857
0.168121
0.167379
0.166631
0.165876
0.165116
0.16435
0.16358
0.162806
0.162028
0.161248
0.160467
0.159685
0.158905
0.158127
0.157352
0.156583
0.155821
0.155069
0.154327
0.153597
0.152883
0.152185
0.151505
0.150844
0.150205
0.149587
0.148992
0.148421
0.147872
0.147346
0.146842
0.146359
0.145896
0.145451
0.145023
0.14461
0.144209
0.14382
0.143439
0.143066
0.142698
0.142335
0.141974
0.141615
0.141256
0.140897
0.140536
0.140173
0.139808
0.139439
0.139066
0.13869
0.138309
0.137925
0.137537
0.137146
0.136754
0.136362
0.135973
0.135588
0.135211
0.134846
0.134498
0.134171
0.133873
0.133609
0.133387
0.133214
0.133098
0.133047
0.133067
0.133166
0.13335
0.133623
0.133991
0.134455
0.135017
0.135679
0.136439
0.137298
0.138256
0.139312
0.140468
0.141728
0.143098
0.144589
0.146215
0.148003
0.149954
0.152272
0.154292
0.159367
0.174158
0.17351
0.172855
0.172195
0.171528
0.170854
0.170175
0.169489
0.168796
0.168098
0.167393
0.166682
0.165966
0.165245
0.164519
0.163788
0.163053
0.162315
0.161574
0.160831
0.160087
0.159342
0.158598
0.157856
0.157116
0.156379
0.155648
0.154923
0.154205
0.153496
0.152797
0.152109
0.151434
0.150772
0.150124
0.149491
0.148873
0.148272
0.147687
0.147117
0.146564
0.146026
0.145503
0.144995
0.144499
0.144016
0.143544
0.143081
0.142628
0.142182
0.141742
0.141308
0.140877
0.140448
0.14002
0.139592
0.139163
0.13873
0.138294
0.137853
0.137407
0.136954
0.136493
0.136026
0.135551
0.135069
0.13458
0.134086
0.133588
0.133089
0.13259
0.132095
0.131608
0.131132
0.130672
0.130234
0.129823
0.129444
0.129104
0.128808
0.128562
0.128371
0.12824
0.128173
0.128174
0.128245
0.128389
0.128608
0.128903
0.129277
0.129732
0.130271
0.130901
0.131627
0.132461
0.133422
0.134509
0.135859
0.137039
0.140191
0.174333
0.173707
0.173077
0.172441
0.1718
0.171154
0.170503
0.169846
0.169184
0.168516
0.167843
0.167165
0.166481
0.165793
0.165101
0.164404
0.163703
0.162998
0.16229
0.16158
0.160868
0.160154
0.15944
0.158725
0.15801
0.157297
0.156586
0.155878
0.155174
0.154475
0.153781
0.153094
0.152414
0.151743
0.151081
0.150428
0.149786
0.149156
0.148537
0.14793
0.147335
0.146752
0.146181
0.145622
0.145075
0.144538
0.144012
0.143496
0.142988
0.142488
0.141995
0.141507
0.141024
0.140545
0.140067
0.139589
0.139111
0.13863
0.138146
0.137657
0.137161
0.136659
0.136148
0.135628
0.135098
0.134558
0.134008
0.133449
0.13288
0.132302
0.131717
0.131127
0.130534
0.129939
0.129347
0.12876
0.128182
0.127618
0.12707
0.126544
0.126044
0.125575
0.125141
0.124745
0.124393
0.124086
0.123829
0.123623
0.123473
0.12338
0.123347
0.123377
0.123474
0.123645
0.123895
0.124237
0.124671
0.12528
0.125816
0.127475
0.174408
0.173795
0.173178
0.172557
0.171932
0.171303
0.170669
0.170031
0.169388
0.168741
0.168089
0.167433
0.166772
0.166107
0.165438
0.164766
0.164089
0.16341
0.162727
0.162042
0.161355
0.160666
0.159975
0.159284
0.158592
0.1579
0.15721
0.15652
0.155833
0.155148
0.154466
0.153789
0.153116
0.152449
0.151788
0.151133
0.150486
0.149847
0.149216
0.148594
0.147981
0.147377
0.146783
0.146198
0.145623
0.145057
0.144499
0.14395
0.143409
0.142875
0.142347
0.141824
0.141306
0.14079
0.140277
0.139764
0.13925
0.138735
0.138216
0.137692
0.137162
0.136625
0.136079
0.135524
0.134958
0.134382
0.133794
0.133195
0.132583
0.131961
0.131328
0.130684
0.130032
0.129373
0.128709
0.128041
0.127372
0.126705
0.126042
0.125387
0.124743
0.124114
0.123502
0.122911
0.122345
0.121807
0.121299
0.120825
0.120387
0.119987
0.11963
0.119317
0.119052
0.118838
0.11868
0.118587
0.118559
0.118639
0.118716
0.11931
0.174433
0.173826
0.173216
0.172603
0.171986
0.171366
0.170742
0.170115
0.169483
0.168848
0.16821
0.167567
0.166921
0.166271
0.165618
0.164962
0.164302
0.16364
0.162975
0.162307
0.161638
0.160967
0.160294
0.15962
0.158946
0.158271
0.157596
0.156922
0.156249
0.155578
0.154909
0.154242
0.153579
0.152919
0.152264
0.151613
0.150968
0.150328
0.149695
0.149068
0.148449
0.147836
0.147231
0.146634
0.146044
0.145461
0.144886
0.144318
0.143756
0.143201
0.14265
0.142104
0.141562
0.141023
0.140485
0.139947
0.139409
0.138869
0.138326
0.137778
0.137224
0.136663
0.136094
0.135515
0.134927
0.134327
0.133716
0.133092
0.132456
0.131808
0.131147
0.130475
0.129791
0.129098
0.128395
0.127684
0.126967
0.126245
0.125521
0.124797
0.124074
0.123356
0.122645
0.121944
0.121254
0.12058
0.119922
0.119284
0.118669
0.118078
0.117514
0.116979
0.116476
0.116008
0.115578
0.11519
0.114849
0.114568
0.114332
0.114201
0.174435
0.173831
0.173225
0.172615
0.172002
0.171386
0.170767
0.170145
0.16952
0.168891
0.16826
0.167625
0.166987
0.166347
0.165703
0.165057
0.164407
0.163756
0.163102
0.162446
0.161788
0.161129
0.160468
0.159806
0.159143
0.15848
0.157817
0.157155
0.156493
0.155832
0.155172
0.154514
0.153859
0.153206
0.152557
0.151911
0.15127
0.150632
0.15
0.149373
0.148751
0.148135
0.147525
0.146922
0.146324
0.145732
0.145147
0.144567
0.143993
0.143424
0.142859
0.142298
0.14174
0.141185
0.14063
0.140076
0.139522
0.138965
0.138405
0.13784
0.13727
0.136693
0.136108
0.135515
0.134911
0.134297
0.133671
0.133033
0.132383
0.13172
0.131044
0.130356
0.129656
0.128945
0.128222
0.127489
0.126748
0.125999
0.125243
0.124483
0.12372
0.122955
0.122191
0.12143
0.120672
0.119921
0.119178
0.118446
0.117725
0.117019
0.116329
0.115657
0.115005
0.114376
0.113771
0.113193
0.112647
0.11213
0.111687
0.111082
0.17443
0.173826
0.17322
0.172612
0.172
0.171386
0.170769
0.170149
0.169527
0.168902
0.168274
0.167643
0.16701
0.166373
0.165735
0.165094
0.16445
0.163805
0.163157
0.162508
0.161857
0.161205
0.160551
0.159897
0.159242
0.158586
0.15793
0.157275
0.15662
0.155965
0.155312
0.154661
0.154011
0.153363
0.152718
0.152076
0.151438
0.150803
0.150172
0.149545
0.148923
0.148305
0.147693
0.147086
0.146484
0.145887
0.145295
0.144708
0.144126
0.143548
0.142974
0.142403
0.141834
0.141268
0.140703
0.140137
0.139571
0.139003
0.138431
0.137855
0.137274
0.136687
0.136092
0.135488
0.134875
0.134252
0.133617
0.132971
0.132313
0.131642
0.130958
0.130262
0.129554
0.128834
0.128102
0.127359
0.126606
0.125844
0.125074
0.124296
0.123513
0.122725
0.121934
0.121141
0.120348
0.119557
0.118767
0.117982
0.117203
0.116431
0.115668
0.114915
0.114174
0.113446
0.112733
0.112037
0.111362
0.110696
0.110122
0.109218
0.174421
0.173818
0.173212
0.172603
0.171992
0.171378
0.170762
0.170143
0.169521
0.168897
0.168271
0.167642
0.16701
0.166376
0.16574
0.165101
0.164461
0.163819
0.163174
0.162528
0.161881
0.161232
0.160582
0.159932
0.159281
0.158629
0.157977
0.157326
0.156674
0.156024
0.155374
0.154726
0.154079
0.153434
0.152792
0.152152
0.151514
0.15088
0.15025
0.149623
0.149
0.148382
0.147767
0.147158
0.146552
0.145952
0.145355
0.144763
0.144175
0.143591
0.143011
0.142433
0.141857
0.141283
0.14071
0.140137
0.139562
0.138986
0.138407
0.137823
0.137235
0.13664
0.136039
0.135429
0.13481
0.134181
0.133541
0.13289
0.132227
0.131552
0.130865
0.130166
0.129454
0.12873
0.127994
0.127247
0.12649
0.125722
0.124946
0.124161
0.123369
0.12257
0.121767
0.120959
0.120149
0.119336
0.118523
0.117711
0.1169
0.116092
0.115288
0.114489
0.113696
0.112911
0.112135
0.111368
0.110615
0.109858
0.109204
0.108117
0.174413
0.173809
0.173202
0.172593
0.171982
0.171368
0.170752
0.170133
0.169511
0.168887
0.168261
0.167632
0.167001
0.166368
0.165733
0.165095
0.164456
0.163815
0.163172
0.162527
0.161881
0.161234
0.160586
0.159937
0.159287
0.158637
0.157987
0.157337
0.156687
0.156038
0.15539
0.154742
0.154097
0.153453
0.152811
0.152171
0.151534
0.150899
0.150268
0.14964
0.149016
0.148396
0.147779
0.147167
0.146559
0.145955
0.145355
0.144759
0.144166
0.143577
0.142991
0.142408
0.141827
0.141247
0.140668
0.140089
0.139509
0.138927
0.138342
0.137753
0.137159
0.13656
0.135953
0.135339
0.134716
0.134084
0.133441
0.132788
0.132123
0.131446
0.130758
0.130057
0.129344
0.128619
0.127883
0.127135
0.126376
0.125607
0.124829
0.124042
0.123247
0.122444
0.121636
0.120822
0.120003
0.119181
0.118357
0.117531
0.116704
0.115877
0.115051
0.114227
0.113406
0.112589
0.111776
0.110968
0.110171
0.10936
0.108658
0.107463
0.174404
0.1738
0.173193
0.172584
0.171972
0.171358
0.170741
0.170122
0.1695
0.168876
0.168249
0.167621
0.16699
0.166356
0.165721
0.165084
0.164445
0.163803
0.163161
0.162516
0.161871
0.161224
0.160576
0.159927
0.159278
0.158628
0.157978
0.157328
0.156678
0.156029
0.15538
0.154732
0.154086
0.153441
0.152798
0.152158
0.151519
0.150884
0.150251
0.149621
0.148995
0.148372
0.147753
0.147138
0.146526
0.145919
0.145315
0.144715
0.144118
0.143525
0.142935
0.142347
0.141761
0.141176
0.140592
0.140008
0.139424
0.138837
0.138248
0.137655
0.137057
0.136454
0.135844
0.135227
0.134602
0.133967
0.133323
0.132668
0.132002
0.131325
0.130636
0.129936
0.129223
0.128499
0.127763
0.127016
0.126258
0.125489
0.124711
0.123924
0.123129
0.122326
0.121516
0.120699
0.119878
0.119052
0.118222
0.11739
0.116555
0.115719
0.114882
0.114045
0.113208
0.112373
0.11154
0.110709
0.109886
0.109045
0.108315
0.107056
0.174397
0.173792
0.173185
0.172575
0.171962
0.171348
0.17073
0.170111
0.169489
0.168864
0.168237
0.167608
0.166977
0.166344
0.165708
0.16507
0.164431
0.16379
0.163147
0.162502
0.161856
0.161209
0.16056
0.159911
0.159261
0.158611
0.15796
0.157309
0.156658
0.156008
0.155358
0.154709
0.154061
0.153415
0.152771
0.152128
0.151488
0.15085
0.150214
0.149582
0.148953
0.148327
0.147705
0.147087
0.146472
0.145861
0.145253
0.144649
0.144048
0.143451
0.142856
0.142264
0.141674
0.141085
0.140497
0.139908
0.139319
0.138729
0.138136
0.137539
0.136938
0.136332
0.13572
0.135101
0.134473
0.133837
0.133192
0.132536
0.13187