/*--------------------------------*- C++ -*----------------------------------*\
| =========                 |                                                 |
| \\      /  F ield         | OpenFOAM: The Open Source CFD Toolbox           |
|  \\    /   O peration     | Version:  4.1                                   |
|   \\  /    A nd           | Web:      www.OpenFOAM.org                      |
|    \\/     M anipulation  |                                                 |
\*---------------------------------------------------------------------------*/
FoamFile
{
    version     2.0;
    format      ascii;
    class       volScalarField;
    location    "400";
    object      nut;
}
// * * * * * * * * * * * * * * * * * * * * * * * * * * * * * * * * * * * * * //

dimensions      [0 2 -1 0 0 0 0];

internalField   nonuniform List<scalar> 
6820
(
4.39385e-05
4.87747e-05
5.31526e-05
5.70915e-05
6.05796e-05
6.36103e-05
6.61884e-05
6.83326e-05
7.00738e-05
7.14511e-05
7.25081e-05
7.32892e-05
7.3837e-05
7.41914e-05
7.43879e-05
7.44578e-05
7.44279e-05
7.43208e-05
7.41553e-05
7.39469e-05
7.37082e-05
7.34493e-05
7.31784e-05
7.29018e-05
7.26244e-05
7.23503e-05
7.20823e-05
7.1823e-05
7.1572e-05
7.1342e-05
7.10768e-05
7.10599e-05
6.99004e-05
0.00046941
0.000265607
0.000193508
0.000152487
0.000125527
0.000107012
9.39994e-05
8.46684e-05
7.78681e-05
7.28567e-05
6.91406e-05
6.63823e-05
6.43451e-05
6.286e-05
6.18041e-05
6.10864e-05
6.06384e-05
6.04078e-05
6.03544e-05
6.04463e-05
6.06584e-05
6.09702e-05
6.13652e-05
6.18296e-05
6.23521e-05
6.29229e-05
6.35337e-05
6.41779e-05
6.48485e-05
6.55431e-05
6.62506e-05
6.69784e-05
6.76799e-05
0.000918058
0.000718795
0.000582223
0.000488778
0.00042158
0.000370785
0.000331008
0.000299115
0.000273073
0.000251474
0.00023332
0.000217887
0.000204638
0.000193169
0.000183167
0.00017439
0.000166643
0.000159772
0.000153653
0.000148182
0.000143275
0.000138861
0.00013488
0.000131283
0.000128027
0.000125074
0.000122394
0.000119958
0.000117743
0.000115726
0.000113891
0.000112226
0.00011066
0.00100704
0.000950024
0.000874018
0.000798213
0.000730805
0.000673128
0.000624146
0.000582408
0.000546591
0.000515598
0.00048855
0.000464749
0.000443645
0.000424801
0.00040787
0.000392571
0.000378676
0.000366
0.000354387
0.000343709
0.000333857
0.000324739
0.000316276
0.0003084
0.000301051
0.000294179
0.000287739
0.00028169
0.000276
0.000270635
0.000265569
0.000260773
0.000256221
0.00101631
0.001006
0.000983563
0.000951519
0.000914347
0.000875791
0.000838168
0.000802653
0.000769714
0.000739438
0.000711721
0.000686378
0.000663192
0.000641951
0.000622452
0.000604513
0.000587969
0.000572677
0.000558509
0.000545351
0.000533104
0.000521682
0.000511008
0.000501012
0.000491635
0.000482823
0.000474528
0.000466708
0.000459326
0.000452348
0.000445745
0.00043949
0.000433558
0.00101678
0.00101508
0.00101017
0.0010009
0.00098729
0.000970152
0.000950606
0.000929706
0.000908287
0.000886945
0.000866075
0.000845923
0.000826628
0.000808259
0.000790837
0.000774352
0.000758778
0.000744075
0.0007302
0.000717106
0.000704745
0.000693071
0.000682041
0.000671612
0.000661746
0.000652405
0.000643555
0.000635167
0.000627212
0.000619664
0.000612501
0.000605705
0.000599251
0.00101672
0.00101615
0.001015
0.00101271
0.00100877
0.00100297
0.000995342
0.000986101
0.000975569
0.000964085
0.000951964
0.000939473
0.000926828
0.000914199
0.000901711
0.000889458
0.000877507
0.000865903
0.000854674
0.000843838
0.000833403
0.000823371
0.000813737
0.000804494
0.000795634
0.000787144
0.000779015
0.000771232
0.000763786
0.000756664
0.000749854
0.000743349
0.000737133
0.0010167
0.00101622
0.00101568
0.00101493
0.00101376
0.00101199
0.00100945
0.00100608
0.00100186
0.000996852
0.000991145
0.00098485
0.000978082
0.000970953
0.000963562
0.000956001
0.000948345
0.000940659
0.000932996
0.000925398
0.0009179
0.00091053
0.000903308
0.000896251
0.000889371
0.000882676
0.000876173
0.000869865
0.000863756
0.000857846
0.000852136
0.000846626
0.000841312
0.0010167
0.00101622
0.00101574
0.00101525
0.00101469
0.001014
0.00101308
0.00101187
0.00101031
0.00100837
0.00100603
0.0010033
0.0010002
0.000996763
0.000993031
0.000989044
0.000984847
0.000980479
0.000975979
0.000971382
0.000966721
0.000962022
0.000957311
0.000952609
0.000947933
0.000943301
0.000938725
0.000934218
0.000929787
0.000925443
0.000921191
0.000917038
0.000912987
0.0010167
0.00101621
0.00101574
0.00101529
0.00101483
0.00101436
0.00101385
0.00101326
0.00101258
0.00101176
0.00101079
0.00100964
0.00100831
0.00100679
0.00100508
0.0010032
0.00100114
0.000998936
0.000996592
0.000994129
0.000991562
0.000988908
0.000986183
0.000983402
0.00098058
0.000977729
0.000974861
0.000971987
0.000969117
0.00096626
0.000963424
0.000960616
0.000957842
0.0010167
0.00101621
0.00101574
0.00101529
0.00101484
0.00101441
0.00101398
0.00101354
0.00101308
0.0010126
0.00101208
0.0010115
0.00101085
0.00101013
0.00100932
0.00100843
0.00100746
0.00100639
0.00100524
0.001004
0.00100269
0.00100131
0.000999857
0.000998351
0.000996794
0.000995193
0.000993555
0.000991887
0.000990195
0.000988485
0.000986763
0.000985034
0.000983305
0.0010167
0.00101621
0.00101574
0.00101528
0.00101484
0.00101441
0.00101399
0.00101358
0.00101317
0.00101277
0.00101237
0.00101195
0.00101153
0.00101108
0.00101061
0.00101011
0.00100958
0.00100901
0.0010084
0.00100776
0.00100707
0.00100635
0.00100559
0.00100479
0.00100395
0.00100309
0.0010022
0.00100127
0.00100033
0.000999365
0.000998382
0.000997384
0.000996375
0.0010167
0.00101621
0.00101574
0.00101528
0.00101484
0.00101441
0.00101399
0.00101358
0.00101318
0.0010128
0.00101242
0.00101204
0.00101167
0.00101131
0.00101094
0.00101057
0.00101019
0.0010098
0.00100941
0.001009
0.00100858
0.00100815
0.0010077
0.00100724
0.00100676
0.00100626
0.00100575
0.00100523
0.00100469
0.00100414
0.00100358
0.001003
0.00100242
0.0010167
0.00101621
0.00101574
0.00101528
0.00101484
0.0010144
0.00101398
0.00101358
0.00101318
0.00101279
0.00101242
0.00101205
0.0010117
0.00101135
0.00101101
0.00101067
0.00101034
0.00101001
0.00100968
0.00100936
0.00100904
0.00100871
0.00100838
0.00100805
0.00100772
0.00100739
0.00100705
0.00100671
0.00100636
0.00100601
0.00100565
0.00100529
0.00100493
0.0010167
0.00101621
0.00101574
0.00101528
0.00101484
0.0010144
0.00101398
0.00101357
0.00101318
0.00101279
0.00101242
0.00101205
0.0010117
0.00101135
0.00101101
0.00101068
0.00101036
0.00101005
0.00100974
0.00100944
0.00100915
0.00100886
0.00100857
0.00100829
0.00100801
0.00100773
0.00100746
0.00100719
0.00100692
0.00100665
0.00100638
0.00100612
0.00100585
0.0010167
0.00101621
0.00101574
0.00101528
0.00101483
0.0010144
0.00101398
0.00101357
0.00101317
0.00101279
0.00101241
0.00101205
0.00101169
0.00101135
0.00101101
0.00101068
0.00101036
0.00101005
0.00100975
0.00100945
0.00100917
0.00100888
0.00100861
0.00100834
0.00100808
0.00100782
0.00100757
0.00100732
0.00100708
0.00100684
0.00100661
0.00100638
0.00100615
0.0010167
0.00101621
0.00101574
0.00101528
0.00101483
0.0010144
0.00101398
0.00101357
0.00101317
0.00101278
0.00101241
0.00101204
0.00101169
0.00101134
0.001011
0.00101068
0.00101036
0.00101005
0.00100974
0.00100945
0.00100916
0.00100888
0.00100861
0.00100835
0.00100809
0.00100783
0.00100759
0.00100735
0.00100711
0.00100688
0.00100666
0.00100644
0.00100623
0.0010167
0.00101621
0.00101574
0.00101528
0.00101483
0.0010144
0.00101398
0.00101357
0.00101317
0.00101278
0.0010124
0.00101204
0.00101168
0.00101134
0.001011
0.00101067
0.00101035
0.00101004
0.00100974
0.00100944
0.00100915
0.00100888
0.0010086
0.00100834
0.00100808
0.00100783
0.00100758
0.00100734
0.00100711
0.00100688
0.00100666
0.00100644
0.00100623
0.0010167
0.00101621
0.00101574
0.00101528
0.00101483
0.0010144
0.00101398
0.00101357
0.00101317
0.00101278
0.0010124
0.00101204
0.00101168
0.00101133
0.00101099
0.00101066
0.00101034
0.00101003
0.00100973
0.00100943
0.00100915
0.00100887
0.00100859
0.00100833
0.00100807
0.00100782
0.00100757
0.00100733
0.0010071
0.00100687
0.00100665
0.00100643
0.00100622
0.0010167
0.00101621
0.00101574
0.00101528
0.00101483
0.0010144
0.00101397
0.00101356
0.00101317
0.00101278
0.0010124
0.00101203
0.00101168
0.00101133
0.00101099
0.00101066
0.00101034
0.00101003
0.00100972
0.00100943
0.00100914
0.00100886
0.00100859
0.00100832
0.00100806
0.00100781
0.00100756
0.00100732
0.00100709
0.00100686
0.00100664
0.00100642
0.00100621
0.0010167
0.00101621
0.00101574
0.00101528
0.00101483
0.0010144
0.00101397
0.00101356
0.00101316
0.00101278
0.0010124
0.00101203
0.00101167
0.00101132
0.00101099
0.00101066
0.00101034
0.00101002
0.00100972
0.00100942
0.00100913
0.00100885
0.00100858
0.00100831
0.00100805
0.0010078
0.00100755
0.00100731
0.00100708
0.00100685
0.00100662
0.00100641
0.00100619
0.0010167
0.00101621
0.00101574
0.00101528
0.00101483
0.00101439
0.00101397
0.00101356
0.00101316
0.00101277
0.0010124
0.00101203
0.00101167
0.00101132
0.00101098
0.00101065
0.00101033
0.00101002
0.00100971
0.00100942
0.00100913
0.00100885
0.00100857
0.0010083
0.00100804
0.00100779
0.00100754
0.0010073
0.00100706
0.00100684
0.00100661
0.00100639
0.00100618
0.0010167
0.00101621
0.00101574
0.00101528
0.00101483
0.00101439
0.00101397
0.00101356
0.00101316
0.00101277
0.00101239
0.00101203
0.00101167
0.00101132
0.00101098
0.00101065
0.00101033
0.00101001
0.00100971
0.00100941
0.00100912
0.00100884
0.00100856
0.0010083
0.00100804
0.00100778
0.00100753
0.00100729
0.00100706
0.00100683
0.0010066
0.00100638
0.00100617
0.0010167
0.00101621
0.00101574
0.00101528
0.00101483
0.00101439
0.00101397
0.00101356
0.00101316
0.00101277
0.00101239
0.00101202
0.00101167
0.00101132
0.00101098
0.00101065
0.00101032
0.00101001
0.00100971
0.00100941
0.00100912
0.00100883
0.00100856
0.00100829
0.00100803
0.00100777
0.00100753
0.00100728
0.00100705
0.00100682
0.00100659
0.00100637
0.00100616
0.0010167
0.00101621
0.00101574
0.00101528
0.00101483
0.00101439
0.00101397
0.00101356
0.00101316
0.00101277
0.00101239
0.00101202
0.00101166
0.00101131
0.00101097
0.00101064
0.00101032
0.00101001
0.0010097
0.0010094
0.00100911
0.00100883
0.00100855
0.00100829
0.00100802
0.00100777
0.00100752
0.00100728
0.00100704
0.00100681
0.00100658
0.00100636
0.00100615
0.0010167
0.00101621
0.00101574
0.00101528
0.00101483
0.00101439
0.00101397
0.00101356
0.00101316
0.00101277
0.00101239
0.00101202
0.00101166
0.00101131
0.00101097
0.00101064
0.00101032
0.00101
0.0010097
0.0010094
0.00100911
0.00100883
0.00100855
0.00100828
0.00100802
0.00100776
0.00100751
0.00100727
0.00100703
0.0010068
0.00100657
0.00100635
0.00100614
0.0010167
0.00101621
0.00101574
0.00101528
0.00101483
0.00101439
0.00101397
0.00101356
0.00101316
0.00101277
0.00101239
0.00101202
0.00101166
0.00101131
0.00101097
0.00101064
0.00101032
0.00101
0.0010097
0.0010094
0.00100911
0.00100882
0.00100855
0.00100828
0.00100801
0.00100776
0.00100751
0.00100726
0.00100703
0.00100679
0.00100657
0.00100635
0.00100613
0.0010167
0.00101621
0.00101574
0.00101528
0.00101483
0.00101439
0.00101397
0.00101356
0.00101316
0.00101277
0.00101239
0.00101202
0.00101166
0.00101131
0.00101097
0.00101064
0.00101032
0.00101
0.00100969
0.00100939
0.0010091
0.00100882
0.00100854
0.00100827
0.00100801
0.00100775
0.0010075
0.00100726
0.00100702
0.00100679
0.00100656
0.00100634
0.00100612
0.0010167
0.00101621
0.00101574
0.00101528
0.00101483
0.00101439
0.00101397
0.00101356
0.00101316
0.00101277
0.00101239
0.00101202
0.00101166
0.00101131
0.00101097
0.00101064
0.00101031
0.00101
0.00100969
0.00100939
0.0010091
0.00100882
0.00100854
0.00100827
0.00100801
0.00100775
0.0010075
0.00100725
0.00100702
0.00100678
0.00100656
0.00100633
0.00100612
0.0010167
0.00101621
0.00101574
0.00101528
0.00101483
0.00101439
0.00101397
0.00101356
0.00101316
0.00101277
0.00101239
0.00101202
0.00101166
0.00101131
0.00101097
0.00101064
0.00101031
0.00101
0.00100969
0.00100939
0.0010091
0.00100881
0.00100854
0.00100827
0.001008
0.00100775
0.00100749
0.00100725
0.00100701
0.00100678
0.00100655
0.00100633
0.00100611
0.0010167
0.00101621
0.00101574
0.00101528
0.00101483
0.00101439
0.00101397
0.00101356
0.00101316
0.00101277
0.00101239
0.00101202
0.00101166
0.00101131
0.00101097
0.00101064
0.00101031
0.00101
0.00100969
0.00100939
0.0010091
0.00100881
0.00100853
0.00100826
0.001008
0.00100774
0.00100749
0.00100724
0.001007
0.00100677
0.00100654
0.00100632
0.0010061
0.0010167
0.00101621
0.00101574
0.00101528
0.00101483
0.00101439
0.00101397
0.00101356
0.00101316
0.00101277
0.00101239
0.00101202
0.00101166
0.00101131
0.00101097
0.00101064
0.00101031
0.00101
0.00100969
0.00100939
0.00100909
0.00100881
0.00100853
0.00100825
0.00100798
0.00100772
0.00100747
0.00100722
0.00100697
0.00100673
0.0010065
0.00100627
0.00100604
0.0010167
0.00101621
0.00101574
0.00101528
0.00101483
0.00101439
0.00101397
0.00101356
0.00101316
0.00101277
0.00101239
0.00101202
0.00101166
0.00101131
0.00101096
0.00101063
0.0010103
0.00100997
0.00100966
0.00100935
0.00100905
0.00100875
0.00100845
0.00100817
0.00100788
0.0010076
0.00100732
0.00100705
0.00100678
0.00100651
0.00100625
0.00100599
0.00100573
0.0010167
0.00101621
0.00101574
0.00101528
0.00101483
0.00101439
0.00101397
0.00101356
0.00101316
0.00101276
0.00101237
0.00101199
0.00101162
0.00101125
0.00101088
0.00101051
0.00101015
0.00100979
0.00100942
0.00100906
0.00100869
0.00100833
0.00100796
0.00100759
0.00100721
0.00100684
0.00100646
0.00100608
0.00100569
0.00100531
0.00100492
0.00100453
0.00100413
0.0010167
0.00101621
0.00101574
0.00101527
0.00101482
0.00101438
0.00101394
0.0010135
0.00101305
0.00101259
0.00101213
0.00101165
0.00101115
0.00101063
0.00101008
0.00100952
0.00100893
0.00100832
0.00100769
0.00100703
0.00100635
0.00100565
0.00100493
0.00100419
0.00100343
0.00100265
0.00100186
0.00100105
0.00100023
0.000999396
0.000998554
0.000997702
0.000996844
0.0010167
0.00101621
0.00101571
0.00101519
0.00101464
0.00101403
0.00101334
0.00101256
0.00101168
0.00101069
0.00100958
0.00100837
0.00100706
0.00100563
0.00100411
0.0010025
0.0010008
0.000999029
0.000997186
0.00099528
0.00099332
0.000991313
0.000989266
0.000987185
0.000985077
0.000982948
0.000980802
0.000978646
0.000976483
0.000974317
0.000972154
0.000969996
0.000967847
0.00101669
0.00101596
0.00101486
0.00101328
0.00101118
0.00100855
0.00100542
0.00100182
0.000997786
0.000993377
0.000988644
0.000983636
0.000978404
0.000972994
0.000967446
0.000961801
0.00095609
0.000950343
0.000944586
0.000938841
0.000933127
0.00092746
0.000921853
0.000916318
0.000910863
0.000905496
0.000900224
0.00089505
0.000889979
0.000885012
0.000880152
0.0008754
0.000870756
0.00101524
0.00100708
0.00099496
0.000980623
0.000964777
0.000947876
0.000930306
0.000912411
0.000894487
0.000876762
0.000859398
0.00084251
0.000826172
0.000810427
0.000795298
0.000780792
0.000766903
0.000753617
0.000740918
0.000728783
0.000717189
0.000706111
0.000695526
0.000685408
0.000675735
0.000666483
0.00065763
0.000649155
0.000641039
0.000633262
0.000625807
0.000618658
0.000611797
0.000934352
0.00081341
0.000726843
0.000658858
0.000603205
0.000556871
0.000517957
0.000484985
0.000456768
0.000432383
0.000411123
0.00039244
0.000375905
0.000361178
0.000347987
0.000336112
0.000325375
0.000315627
0.000306746
0.000298627
0.000291184
0.000284342
0.000278037
0.000272213
0.000266822
0.000261823
0.000257179
0.000252857
0.000248829
0.000245069
0.000241554
0.000238265
0.000235181
0.000125479
0.000128845
0.000132086
0.000135185
0.000138141
0.000140961
0.00014365
0.000146214
0.000148657
0.000150984
0.0001532
0.000155308
0.000157312
0.000159218
0.000161029
0.000162748
0.000164381
0.000165931
0.000167401
0.000168796
0.000170118
0.000171372
0.00017256
0.000173687
0.000174754
0.000175765
0.000176722
0.000177629
0.000178488
0.000179301
0.000180071
0.000180799
0.00018149
8.04957e-05
9.56922e-05
0.000113537
0.000134768
0.000159538
0.000187081
0.000216095
0.000245263
0.000273617
0.000300747
0.000326745
0.000351998
0.000376954
0.000401957
0.000427174
0.000452598
0.00047811
0.000503554
0.000528804
0.000553795
0.000578532
0.000603069
0.000627483
0.000651849
0.000676224
0.000700648
0.000725143
0.000749726
0.000774419
0.000799247
0.000824241
0.000849425
0.000874815
0.000900409
0.000926184
0.000952096
0.000978079
0.00100405
0.0010299
0.00105552
0.00108079
0.00110556
0.0011297
0.00115307
0.00117554
0.00119696
0.00121723
0.00123625
0.00125392
0.00127021
0.00128509
0.00129856
0.00131066
0.00132147
0.0013311
0.0013397
0.00134742
0.00135446
0.00136105
0.00136741
0.00137377
0.00138037
0.00138743
0.00139514
0.00140369
0.00141322
0.00142383
0.00143558
0.0014485
0.00146253
0.00147762
0.00149365
0.00151045
0.00152785
0.00154565
0.00156364
0.00158159
0.00159931
0.00161659
0.00163327
0.00164921
0.00166431
0.00167849
0.00169172
0.00170402
0.00171543
0.00172603
0.00173594
0.00174529
0.00175427
0.00176308
0.00177194
0.00178114
0.001791
0.0018019
0.00181435
0.00182891
0.00184711
0.00186512
0.00191336
6.87996e-05
7.06325e-05
7.33883e-05
7.75036e-05
8.35056e-05
9.19319e-05
0.000103245
0.000117746
0.000135503
0.000156316
0.000179751
0.000205206
0.000232006
0.0002595
0.000287144
0.000314552
0.000341513
0.000367972
0.000393988
0.000419672
0.000445136
0.000470452
0.000495634
0.000520645
0.000545423
0.000569907
0.000594059
0.000617877
0.000641387
0.000664635
0.000687674
0.000710547
0.000733283
0.000755893
0.00077837
0.000800691
0.000822817
0.0008447
0.000866278
0.00088748
0.000908225
0.000928423
0.00094798
0.000966799
0.000984783
0.00100184
0.00101789
0.00103287
0.00104673
0.00105945
0.00107102
0.00108149
0.0010909
0.00109936
0.00110698
0.00111393
0.00112037
0.0011265
0.00113254
0.0011387
0.0011452
0.00115227
0.00116008
0.00116883
0.00117865
0.00118966
0.00120194
0.00121551
0.00123037
0.00124646
0.00126371
0.00128197
0.00130109
0.00132088
0.00134115
0.00136168
0.00138225
0.00140266
0.00142271
0.00144223
0.00146108
0.00147916
0.00149637
0.0015127
0.00152813
0.00154272
0.00155654
0.00156969
0.00158232
0.0015946
0.00160673
0.00161895
0.00163153
0.0016448
0.00165918
0.00167516
0.00169331
0.00171529
0.00173676
0.00179079
0.000108997
0.000107176
0.000105284
0.000103567
0.000102068
0.000100847
0.00010003
9.98257e-05
0.000100528
0.000102508
0.000106179
0.000111958
0.00012021
0.00013121
0.000145108
0.000161906
0.000181443
0.000203403
0.000227337
0.000252709
0.000278957
0.000305559
0.000332089
0.000358245
0.000383858
0.000408867
0.000433286
0.00045716
0.00048054
0.000503459
0.000525931
0.000547952
0.000569509
0.000590587
0.000611176
0.000631266
0.000650847
0.000669908
0.000688428
0.000706382
0.000723733
0.000740439
0.000756452
0.000771723
0.000786202
0.000799848
0.000812625
0.000824515
0.000835511
0.00084563
0.000854909
0.000863412
0.000871225
0.000878462
0.000885259
0.000891773
0.000898178
0.000904659
0.000911408
0.000918613
0.000926459
0.000935112
0.000944722
0.000955412
0.000967277
0.000980383
0.000994761
0.00101041
0.0010273
0.00104536
0.00106451
0.00108462
0.00110555
0.00112713
0.00114919
0.00117153
0.00119398
0.00121632
0.0012384
0.00126004
0.00128111
0.0013015
0.00132113
0.00133995
0.00135797
0.00137521
0.00139174
0.00140765
0.00142307
0.00143818
0.00145315
0.00146822
0.00148367
0.00149981
0.00151705
0.0015359
0.00155688
0.00158177
0.00160573
0.00166383
0.000251128
0.000245513
0.000240004
0.000234583
0.000229407
0.000224412
0.000219482
0.000214497
0.000209345
0.000203942
0.00019826
0.000192351
0.000186379
0.000180621
0.000175459
0.000171346
0.000168765
0.00016817
0.000169947
0.000174376
0.000181608
0.000191653
0.000204382
0.000219539
0.00023676
0.000255617
0.00027565
0.000296416
0.000317521
0.000338646
0.000359551
0.000380073
0.000400113
0.000419614
0.000438545
0.000456892
0.000474642
0.000491782
0.000508299
0.000524177
0.000539399
0.000553952
0.000567823
0.000581006
0.000593499
0.000605309
0.000616451
0.000626955
0.000636861
0.000646227
0.000655128
0.000663653
0.00067191
0.000680019
0.000688112
0.000696329
0.000704811
0.000713698
0.000723122
0.000733202
0.000744042
0.000755725
0.000768314
0.00078185
0.000796355
0.000811831
0.000828266
0.000845631
0.000863886
0.000882978
0.000902843
0.000923404
0.000944572
0.000966245
0.00098831
0.00101064
0.0010331
0.00105555
0.00107786
0.00109989
0.00112153
0.00114268
0.00116325
0.00118321
0.00120253
0.00122122
0.00123934
0.00125695
0.00127417
0.00129115
0.00130805
0.00132509
0.00134252
0.00136065
0.00137985
0.00140063
0.00142344
0.00145016
0.00147548
0.00153566
0.000427011
0.000419809
0.000412784
0.000405918
0.0003993
0.000392923
0.000386746
0.000380706
0.00037472
0.000368683
0.000362474
0.000355961
0.000349009
0.000341496
0.000333327
0.000324461
0.000314927
0.000304853
0.00029447
0.000284112
0.000274189
0.000265155
0.000257452
0.000251475
0.000247534
0.000245833
0.000246463
0.000249404
0.000254539
0.000261671
0.000270546
0.000280875
0.00029236
0.00030471
0.000317659
0.000330978
0.000344472
0.000357989
0.00037141
0.000384651
0.00039765
0.000410372
0.000422795
0.000434915
0.000446744
0.000458303
0.000469627
0.000480764
0.000491771
0.000502714
0.000513669
0.000524718
0.000535941
0.000547422
0.000559238
0.000571455
0.00058413
0.000597302
0.000610995
0.000625214
0.000639948
0.000655173
0.000670853
0.000686947
0.000703411
0.000720206
0.000737295
0.000754653
0.000772261
0.000790111
0.000808199
0.000826528
0.000845096
0.0008639
0.000882925
0.000902146
0.000921525
0.000941008
0.000960531
0.000980023
0.000999409
0.00101862
0.00103758
0.00105626
0.00107461
0.00109264
0.00111037
0.00112784
0.00114513
0.00116235
0.00117964
0.00119718
0.00121519
0.00123395
0.00125378
0.00127516
0.00129847
0.00132559
0.00135095
0.00141079
0.000592142
0.000584341
0.000576756
0.000569378
0.00056223
0.000555312
0.000548611
0.000542109
0.000535775
0.000529571
0.000523444
0.000517333
0.000511162
0.000504846
0.000498292
0.000491403
0.00048408
0.000476236
0.000467801
0.000458734
0.000449039
0.000438768
0.000428035
0.000417013
0.000405929
0.000395051
0.00038467
0.000375082
0.000366559
0.000359333
0.000353582
0.000349422
0.000346904
0.000346022
0.00034672
0.000348905
0.00035246
0.000357252
0.000363148
0.000370017
0.000377744
0.000386226
0.000395381
0.000405141
0.00041546
0.000426304
0.000437654
0.0004495
0.00046184
0.000474674
0.000488002
0.000501821
0.000516121
0.000530882
0.000546073
0.000561651
0.000577559
0.000593732
0.000610091
0.000626554
0.000643036
0.000659453
0.000675725
0.000691783
0.000707569
0.000723039
0.000738167
0.000752945
0.000767381
0.0007815
0.000795343
0.000808961
0.000822417
0.000835775
0.000849103
0.000862461
0.000875902
0.000889468
0.000903185
0.000917064
0.000931104
0.000945291
0.000959607
0.00097403
0.000988542
0.00100314
0.00101782
0.00103261
0.00104756
0.00106274
0.00107825
0.00109423
0.00111085
0.00112833
0.00114697
0.00116716
0.0011892
0.00121493
0.00123874
0.00129528
0.00073024
0.000722631
0.000715194
0.000707933
0.000700857
0.000693967
0.000687259
0.000680725
0.000674356
0.000668139
0.000662058
0.000656089
0.000650207
0.000644382
0.000638576
0.00063275
0.000626858
0.000620852
0.000614682
0.000608299
0.000601657
0.000594719
0.00058746
0.000579874
0.000571979
0.000563819
0.000555465
0.000547019
0.000538607
0.000530379
0.000522497
0.000515128
0.000508439
0.000502581
0.000497692
0.000493881
0.000491236
0.000489814
0.000489649
0.000490752
0.000493114
0.000496712
0.000501509
0.000507461
0.000514519
0.000522627
0.000531726
0.000541756
0.000552649
0.000564336
0.00057674
0.00058978
0.000603369
0.000617413
0.000631814
0.000646469
0.000661276
0.000676128
0.000690925
0.00070557
0.000719971
0.000734049
0.000747732
0.000760963
0.000773694
0.000785895
0.000797545
0.000808639
0.000819182
0.000829192
0.0008387
0.000847744
0.000856373
0.000864646
0.000872627
0.000880387
0.000888001
0.000895544
0.00090309
0.000910709
0.000918466
0.000926416
0.000934607
0.000943079
0.000951867
0.000961001
0.000970513
0.000980442
0.000990834
0.00100175
0.00101327
0.0010255
0.00103858
0.00105269
0.00106805
0.00108501
0.00110378
0.00112605
0.00114657
0.00119645
0.000835356
0.000828712
0.000822151
0.000815684
0.00080932
0.000803066
0.000796923
0.000790893
0.000784975
0.000779166
0.000773464
0.000767863
0.000762357
0.000756938
0.000751598
0.000746328
0.000741117
0.000735952
0.00073082
0.000725706
0.000720596
0.000715472
0.000710322
0.000705134
0.000699899
0.000694618
0.0006893
0.000683963
0.00067864
0.000673377
0.000668232
0.000663276
0.000658593
0.000654271
0.000650405
0.000647089
0.000644416
0.00064247
0.000641327
0.000641048
0.000641683
0.000643266
0.000645814
0.000649331
0.000653806
0.000659213
0.000665514
0.000672659
0.000680588
0.000689231
0.00069851
0.000708341
0.000718635
0.000729297
0.000740235
0.000751353
0.000762558
0.000773764
0.000784886
0.000795848
0.000806582
0.000817029
0.000827139
0.000836872
0.000846196
0.000855089
0.000863538
0.000871536
0.000879083
0.000886185
0.000892851
0.000899096
0.000904937
0.000910393
0.000915488
0.00092025
0.00092471
0.000928906
0.000932882
0.000936689
0.000940385
0.000944032
0.0009477
0.00095146
0.000955386
0.000959555
0.000964041
0.000968925
0.000974286
0.000980214
0.000986805
0.000994171
0.00100244
0.00101178
0.00102239
0.00103455
0.00104843
0.00106546
0.00108125
0.00112138
0.00090839
0.000903193
0.000897993
0.000892802
0.00088763
0.000882486
0.000877376
0.000872305
0.000867279
0.0008623
0.000857371
0.000852495
0.000847673
0.000842908
0.0008382
0.000833554
0.00082897
0.000824453
0.000820005
0.00081563
0.000811332
0.000807112
0.000802975
0.000798924
0.000794962
0.000791094
0.000787326
0.000783668
0.000780132
0.000776735
0.000773499
0.000770451
0.000767625
0.00076506
0.000762799
0.000760888
0.000759375
0.00075831
0.000757739
0.000757706
0.000758247
0.000759393
0.000761166
0.000763578
0.000766632
0.000770319
0.000774621
0.00077951
0.000784948
0.000790889
0.000797281
0.000804066
0.00081118
0.000818559
0.000826134
0.000833841
0.000841614
0.000849392
0.000857119
0.000864741
0.000872214
0.000879499
0.000886562
0.000893378
0.000899928
0.0009062
0.000912185
0.000917883
0.000923295
0.000928426
0.000933284
0.000937875
0.000942208
0.00094629
0.000950126
0.000953719
0.000957072
0.000960184
0.000963058
0.000965699
0.000968115
0.000970325
0.000972353
0.000974236
0.000976022
0.000977771
0.000979554
0.000981453
0.000983558
0.000985972
0.000988807
0.000992188
0.000996254
0.00100117
0.00100712
0.00101436
0.00102305
0.00103431
0.00104491
0.00107379
0.000954649
0.000950986
0.000947267
0.000943499
0.000939692
0.000935852
0.000931986
0.000928102
0.000924205
0.0009203
0.000916393
0.000912489
0.000908591
0.000904706
0.000900839
0.000896995
0.000893181
0.000889406
0.000885676
0.000882002
0.000878392
0.000874858
0.000871409
0.000868056
0.00086481
0.000861682
0.000858684
0.000855826
0.000853121
0.000850583
0.000848224
0.000846061
0.00084411
0.00084239
0.000840922
0.000839726
0.000838826
0.000838244
0.000838003
0.000838123
0.000838623
0.000839519
0.000840822
0.000842539
0.000844669
0.000847209
0.000850148
0.000853468
0.000857146
0.000861155
0.000865461
0.000870028
0.000874816
0.000879782
0.000884884
0.000890079
0.000895324
0.000900581
0.000905812
0.000910981
0.000916061
0.000921024
0.00092585
0.000930522
0.000935028
0.000939361
0.000943517
0.000947497
0.000951306
0.000954951
0.00095844
0.000961783
0.000964992
0.000968077
0.000971045
0.000973902
0.000976651
0.000979288
0.000981809
0.000984202
0.000986458
0.000988563
0.000990506
0.000992283
0.000993895
0.000995352
0.00099668
0.000997914
0.000999107
0.00100033
0.00100166
0.00100319
0.00100506
0.0010074
0.00101037
0.00101419
0.00101901
0.00102565
0.00103198
0.0010508
0.000981284
0.000978932
0.000976507
0.000974011
0.000971451
0.00096883
0.000966155
0.000963429
0.000960657
0.000957844
0.000954995
0.000952114
0.000949206
0.000946276
0.00094333
0.000940374
0.000937414
0.000934458
0.000931515
0.000928593
0.000925702
0.000922853
0.000920058
0.000917328
0.000914676
0.000912114
0.000909655
0.000907311
0.000905096
0.000903022
0.000901102
0.000899348
0.000897774
0.000896391
0.000895213
0.000894252
0.00089352
0.000893028
0.000892788
0.00089281
0.000893101
0.000893668
0.000894514
0.000895642
0.00089705
0.000898732
0.00090068
0.000902883
0.000905325
0.000907988
0.00091085
0.000913889
0.000917078
0.00092039
0.000923797
0.000927273
0.000930789
0.000934319
0.000937839
0.000941324
0.000944756
0.000948115
0.000951388
0.000954562
0.000957629
0.000960583
0.000963423
0.000966147
0.000968762
0.000971271
0.000973686
0.000976014
0.000978269
0.000980464
0.00098261
0.000984719
0.000986802
0.000988866
0.000990913
0.000992944
0.000994953
0.000996931
0.000998866
0.00100074
0.00100255
0.00100426
0.00100589
0.00100741
0.00100885
0.00101022
0.00101157
0.00101293
0.00101437
0.001016
0.00101792
0.00102028
0.0010232
0.00102726
0.00103107
0.00104303
0.000995181
0.000993772
0.000992298
0.00099076
0.00098916
0.000987499
0.000985779
0.000984003
0.000982172
0.00098029
0.00097836
0.000976383
0.000974365
0.000972308
0.000970217
0.000968095
0.000965949
0.000963784
0.000961607
0.000959424
0.000957243
0.000955074
0.000952926
0.000950808
0.000948732
0.000946708
0.000944747
0.000942861
0.000941062
0.000939361
0.00093777
0.0009363
0.000934962
0.000933767
0.000932724
0.000931844
0.000931135
0.000930605
0.000930261
0.000930108
0.000930152
0.000930395
0.000930838
0.000931482
0.000932324
0.00093336
0.000934583
0.000935985
0.000937555
0.000939282
0.00094115
0.000943144
0.000945246
0.00094744
0.000949706
0.000952026
0.00095438
0.000956752
0.000959123
0.000961477
0.0009638
0.000966078
0.000968299
0.000970456
0.000972539
0.000974545
0.00097647
0.000978314
0.000980078
0.000981766
0.000983384
0.00098494
0.000986444
0.000987907
0.000989342
0.00099076
0.000992177
0.000993603
0.00099505
0.000996527
0.00099804
0.000999592
0.00100118
0.00100281
0.00100445
0.00100612
0.00100779
0.00100945
0.0010111
0.00101273
0.00101435
0.00101597
0.00101762
0.00101935
0.00102121
0.0010233
0.00102567
0.00102874
0.00103147
0.00103977
0.00100173
0.0010009
0.00100003
0.000999115
0.000998151
0.000997141
0.000996083
0.000994978
0.000993827
0.00099263
0.000991389
0.000990104
0.000988778
0.000987411
0.000986007
0.000984568
0.000983097
0.000981598
0.000980075
0.000978534
0.000976978
0.000975415
0.000973851
0.000972293
0.000970749
0.000969228
0.000967737
0.000966286
0.000964885
0.000963543
0.000962268
0.000961072