/*--------------------------------*- C++ -*----------------------------------*\
| =========                 |                                                 |
| \\      /  F ield         | OpenFOAM: The Open Source CFD Toolbox           |
|  \\    /   O peration     | Version:  4.1                                   |
|   \\  /    A nd           | Web:      www.OpenFOAM.org                      |
|    \\/     M anipulation  |                                                 |
\*---------------------------------------------------------------------------*/
FoamFile
{
    version     2.0;
    format      ascii;
    class       volScalarField;
    location    "400";
    object      p;
}
// * * * * * * * * * * * * * * * * * * * * * * * * * * * * * * * * * * * * * //

dimensions      [0 2 -2 0 0 0 0];

internalField   nonuniform List<scalar> 
6820
(
-7.96199
-8.76173
-9.22223
-9.36707
-9.44563
-9.51995
-9.57979
-9.62539
-9.6641
-9.69959
-9.7324
-9.76274
-9.79108
-9.81785
-9.84329
-9.86759
-9.89092
-9.91346
-9.93536
-9.95678
-9.97785
-9.99873
-10.0196
-10.0405
-10.0618
-10.0834
-10.1058
-10.1291
-10.1535
-10.1797
-10.2065
-10.2404
-10.2557
-9.6357
-9.80148
-9.78708
-9.70751
-9.66526
-9.66202
-9.67208
-9.68565
-9.70296
-9.72376
-9.74646
-9.76985
-9.79342
-9.81693
-9.84018
-9.86303
-9.88543
-9.9074
-9.92898
-9.95024
-9.97127
-9.99217
-10.0131
-10.0341
-10.0553
-10.077
-10.0993
-10.1225
-10.1467
-10.1726
-10.2003
-10.2336
-10.2751
-9.61412
-9.42606
-9.40746
-9.44194
-9.48374
-9.53201
-9.57853
-9.61904
-9.65555
-9.68992
-9.72235
-9.75275
-9.78138
-9.80849
-9.8343
-9.85896
-9.88262
-9.90545
-9.92759
-9.9492
-9.97041
-9.99137
-10.0122
-10.0331
-10.0542
-10.0756
-10.0976
-10.1203
-10.1439
-10.1691
-10.1959
-10.2267
-10.2584
-9.53199
-9.42961
-9.47905
-9.53969
-9.57312
-9.60364
-9.63518
-9.66401
-9.69081
-9.71708
-9.7429
-9.768
-9.79236
-9.81606
-9.83915
-9.86164
-9.88358
-9.90505
-9.92613
-9.94689
-9.96744
-9.98786
-10.0083
-10.0288
-10.0495
-10.0705
-10.092
-10.1142
-10.1372
-10.1613
-10.1865
-10.2135
-10.2402
-9.52446
-9.48457
-9.51675
-9.55449
-9.5767
-9.60158
-9.63075
-9.65909
-9.68602
-9.71255
-9.73871
-9.7642
-9.78894
-9.81297
-9.83633
-9.85905
-9.88117
-9.90277
-9.92393
-9.94473
-9.96526
-9.98563
-10.0059
-10.0262
-10.0467
-10.0674
-10.0885
-10.11
-10.1322
-10.155
-10.1785
-10.2026
-10.2261
-9.53365
-9.51355
-9.52948
-9.55925
-9.58317
-9.60857
-9.6369
-9.66457
-9.69094
-9.71676
-9.74217
-9.76693
-9.79098
-9.81437
-9.83713
-9.85929
-9.88091
-9.90205
-9.92279
-9.94319
-9.96335
-9.98335
-10.0033
-10.0232
-10.0432
-10.0634
-10.0839
-10.1047
-10.1259
-10.1474
-10.1692
-10.191
-10.2118
-9.54308
-9.53191
-9.54303
-9.56933
-9.5933
-9.61724
-9.64337
-9.66954
-9.69486
-9.71972
-9.74424
-9.76825
-9.79165
-9.81446
-9.83672
-9.85845
-9.87969
-9.90049
-9.92091
-9.94101
-9.96088
-9.98057
-10.0002
-10.0197
-10.0393
-10.059
-10.0789
-10.0989
-10.1191
-10.1394
-10.1597
-10.1795
-10.1984
-9.55318
-9.5481
-9.55775
-9.58021
-9.60262
-9.62499
-9.6493
-9.67414
-9.69849
-9.72248
-9.74619
-9.76949
-9.79227
-9.81454
-9.83631
-9.85759
-9.87843
-9.89885
-9.91892
-9.93868
-9.9582
-9.97754
-9.99675
-10.0159
-10.035
-10.0542
-10.0733
-10.0926
-10.1118
-10.1309
-10.1497
-10.168
-10.1852
-9.56406
-9.56272
-9.57151
-9.59062
-9.61137
-9.6325
-9.65528
-9.67882
-9.70216
-9.72525
-9.74814
-9.77071
-9.79285
-9.81454
-9.83578
-9.8566
-9.877
-9.89702
-9.9167
-9.93608
-9.95523
-9.97417
-9.99297
-10.0116
-10.0303
-10.0488
-10.0673
-10.0857
-10.104
-10.122
-10.1395
-10.1564
-10.1723
-9.57523
-9.57593
-9.5842
-9.60079
-9.61996
-9.6399
-9.66127
-9.68352
-9.70583
-9.72802
-9.75009
-9.77191
-9.79338
-9.81448
-9.83519
-9.8555
-9.87545
-9.89503
-9.9143
-9.93328
-9.95202
-9.97053
-9.98887
-10.0071
-10.0251
-10.043
-10.0608
-10.0784
-10.0958
-10.1127
-10.1292
-10.145
-10.1597
-9.58632
-9.58809
-9.596
-9.6107
-9.62832
-9.64708
-9.66716
-9.68818
-9.70948
-9.73078
-9.75202
-9.77309
-9.7939
-9.81439
-9.83454
-9.85434
-9.8738
-9.89293
-9.91176
-9.93031
-9.9486
-9.96666
-9.98451
-10.0022
-10.0197
-10.0369
-10.054
-10.0708
-10.0873
-10.1033
-10.1188
-10.1335
-10.1474
-9.59713
-9.59942
-9.60701
-9.62022
-9.63642
-9.65403
-9.67292
-9.69279
-9.71308
-9.7335
-9.75392
-9.77425
-9.79438
-9.81425
-9.83383
-9.85311
-9.87207
-9.89072
-9.90909
-9.92717
-9.94499
-9.96257
-9.97992
-9.99704
-10.0139
-10.0306
-10.0469
-10.063
-10.0786
-10.0938
-10.1084
-10.1222
-10.1352
-9.60753
-9.61002
-9.61728
-9.6293
-9.64422
-9.66072
-9.67851
-9.6973
-9.71662
-9.73616
-9.75578
-9.77537
-9.79482
-9.81407
-9.83307
-9.8518
-9.87025
-9.88841
-9.90628
-9.92389
-9.94122
-9.9583
-9.97512
-9.99168
-10.008
-10.024
-10.0397
-10.055
-10.0698
-10.0842
-10.0979
-10.111
-10.1233
-9.61744
-9.61997
-9.62687
-9.63791
-9.65168
-9.66714
-9.6839
-9.70167
-9.72004
-9.73873
-9.75756
-9.77642
-9.7952
-9.81382
-9.83224
-9.85041
-9.86833
-9.88598
-9.90336
-9.92046
-9.93729
-9.95385
-9.97013
-9.98612
-10.0018
-10.0172
-10.0322
-10.0468
-10.0609
-10.0745
-10.0876
-10.0999
-10.1115
-9.62681
-9.62929
-9.63581
-9.64602
-9.65878
-9.67325
-9.68905
-9.70586
-9.72333
-9.74119
-9.75925
-9.77739
-9.7955
-9.81349
-9.83132
-9.84893
-9.86631
-9.88344
-9.9003
-9.91689
-9.93321
-9.94923
-9.96496
-9.98039
-9.99548
-10.0102
-10.0246
-10.0385
-10.052
-10.0649
-10.0772
-10.0889
-10.0999
-9.63561
-9.63798
-9.64413
-9.65361
-9.66547
-9.67903
-9.69392
-9.70984
-9.72645
-9.74351
-9.76082
-9.77825
-9.79569
-9.81306
-9.8303
-9.84735
-9.86419
-9.88078
-9.89712
-9.91319
-9.92898
-9.94447
-9.95965
-9.9745
-9.98901
-10.0031
-10.0169
-10.0301
-10.0429
-10.0552
-10.0669
-10.078
-10.0884
-9.64381
-9.64607
-9.65184
-9.66068
-9.67173
-9.68445
-9.6985
-9.71357
-9.72937
-9.74565
-9.76223
-9.77898
-9.79577
-9.81252
-9.82916
-9.84565
-9.86194
-9.878
-9.89381
-9.90935
-9.92461
-9.93956
-9.95419
-9.96848
-9.9824
-9.99594
-10.0091
-10.0217
-10.0339
-10.0456
-10.0567
-10.0672
-10.0771
-9.6514
-9.65353
-9.65894
-9.66721
-9.67754
-9.68949
-9.70275
-9.71703
-9.73206
-9.7476
-9.76348
-9.77955
-9.7957
-9.81185
-9.82791
-9.84383
-9.85957
-9.87509
-9.89037
-9.90538
-9.92011
-9.93452
-9.9486
-9.96233
-9.97569
-9.98864
-10.0012
-10.0133
-10.0248
-10.0359
-10.0465
-10.0565
-10.0659
-9.65836
-9.66036
-9.66544
-9.67318
-9.68287
-9.69411
-9.70664
-9.72019
-9.73449
-9.74932
-9.76452
-9.77995
-9.79548
-9.81102
-9.82651
-9.84187
-9.85707
-9.87206
-9.88681
-9.90129
-9.91548
-9.92936
-9.9429
-9.95608
-9.96888
-9.98128
-9.99325
-10.0048
-10.0158
-10.0263
-10.0364
-10.0458
-10.0548
-9.66467
-9.66656
-9.67133
-9.67859
-9.68769
-9.69829
-9.71014
-9.723
-9.73662
-9.75079
-9.76534
-9.78014
-9.79507
-9.81003
-9.82495
-9.83977
-9.85443
-9.86889
-9.88311
-9.89707
-9.91074
-9.92408
-9.93709
-9.94974
-9.962
-9.97385
-9.98528
-9.99626
-10.0068
-10.0168
-10.0263
-10.0353
-10.0438
-9.67032
-9.6721
-9.67659
-9.68342
-9.69199
-9.702
-9.71323
-9.72545
-9.73843
-9.75198
-9.76591
-9.78012
-9.79446
-9.80886
-9.82324
-9.83751
-9.85165
-9.86558
-9.87929
-9.89273
-9.90588
-9.91871
-9.9312
-9.94333
-9.95506
-9.96639
-9.9773
-9.98776
-9.99776
-10.0073
-10.0163
-10.0249
-10.033
-9.67531
-9.67699
-9.68122
-9.68765
-9.69574
-9.70522
-9.71588
-9.72751
-9.7399
-9.75285
-9.76621
-9.77985
-9.79364
-9.8075
-9.82134
-9.8351
-9.84871
-9.86214
-9.87534
-9.88828
-9.90093
-9.91325
-9.92524
-9.93685
-9.94808
-9.95891
-9.96932
-9.97929
-9.98881
-9.99787
-10.0065
-10.0146
-10.0223
-9.6796
-9.68119
-9.68518
-9.69126
-9.69892
-9.70791
-9.71805
-9.72914
-9.74098
-9.75339
-9.76621
-9.77931
-9.79258
-9.80592
-9.81925
-9.83251
-9.84563
-9.85856
-9.87127
-9.88372
-9.89588
-9.90771
-9.91921
-9.93033
-9.94108
-9.95142
-9.96135
-9.97084
-9.9799
-9.98852
-9.99668
-10.0044
-10.0117
-9.68319
-9.6847
-9.68847
-9.69423
-9.7015
-9.71005
-9.71972
-9.73032
-9.74166
-9.75357
-9.76588
-9.77849
-9.79126
-9.80412
-9.81696
-9.82974
-9.84238
-9.85484
-9.86708
-9.87906
-9.89074
-9.90211
-9.91313
-9.92378
-9.93406
-9.94394
-9.95341
-9.96246
-9.97108
-9.97926
-9.98701
-9.99432
-10.0012
-9.68606
-9.68748
-9.69105
-9.69652
-9.70344
-9.7116
-9.72085
-9.73102
-9.74191
-9.75335
-9.76521
-9.77736
-9.78967
-9.80207
-9.81447
-9.82679
-9.83898
-9.85099
-9.86277
-9.8743
-9.88553
-9.89644
-9.90701
-9.91722
-9.92705
-9.93649
-9.94552
-9.95414
-9.96234
-9.97011
-9.97746
-9.98439
-9.9909
-9.68817
-9.68952
-9.69291
-9.69811
-9.70472
-9.71253
-9.72142
-9.7312
-9.74169
-9.75272
-9.76417
-9.7759
-9.7878
-9.79978
-9.81175
-9.82365
-9.83542
-9.847
-9.85836
-9.86945
-9.88025
-9.89074
-9.90088
-9.91066
-9.92006
-9.92908
-9.93769
-9.9459
-9.9537
-9.96108
-9.96806
-9.97462
-9.98077
-9.6895
-9.69079
-9.69401
-9.69897
-9.7053
-9.71281
-9.72138
-9.73082
-9.74097
-9.75165
-9.76274
-9.7741
-9.78562
-9.79722
-9.80881
-9.82032
-9.83169
-9.84288
-9.85384
-9.86453
-9.87493
-9.88501
-9.89474
-9.90412
-9.91312
-9.92174
-9.92996
-9.93779
-9.9452
-9.95222
-9.95883
-9.96504
-9.97085
-9.69004
-9.69126
-9.69432
-9.69905
-9.70513
-9.71239
-9.7207
-9.72987
-9.73973
-9.75011
-9.76089
-9.77194
-9.78313
-9.79439
-9.80564
-9.81679
-9.82781
-9.83863
-9.84922
-9.85953
-9.86955
-9.87925
-9.88861
-9.8976
-9.90623
-9.91447
-9.92232
-9.92977
-9.93683
-9.94349
-9.94975
-9.95562
-9.96111
-9.68975
-9.6909
-9.69378
-9.6983
-9.70416
-9.71123
-9.71933
-9.72829
-9.73792
-9.74808
-9.75861
-9.7694
-9.78032
-9.7913
-9.80225
-9.8131
-9.82379
-9.83429
-9.84454
-9.85453
-9.8642
-9.87356
-9.88256
-9.89121
-9.89948
-9.90738
-9.91488
-9.922
-9.92872
-9.93505
-9.94098
-9.94654
-9.9517
-9.68861
-9.68967
-9.69237
-9.69665
-9.70233
-9.70925
-9.71722
-9.72604
-9.73553
-9.74552
-9.75588
-9.76646
-9.77716
-9.78789
-9.79857
-9.80915
-9.81955
-9.82975
-9.83969
-9.84936
-9.85871
-9.86774
-9.87642
-9.88474
-9.89268
-9.90025
-9.90743
-9.91422
-9.92063
-9.92664
-9.93228
-9.93753
-9.94241
-9.68661
-9.68756
-9.68999
-9.69401
-9.69955
-9.7064
-9.71431
-9.72307
-9.7325
-9.74243
-9.75271
-9.76319
-9.77377
-9.78436
-9.79487
-9.80526
-9.81545
-9.82542
-9.83512
-9.84453
-9.85361
-9.86236
-9.87076
-9.87879
-9.88644
-9.89371
-9.9006
-9.9071
-9.91321
-9.91893
-9.92427
-9.92923
-9.93381
-9.68378
-9.68454
-9.68657
-9.69026
-9.6957
-9.7026
-9.71056
-9.71933
-9.72875
-9.73863
-9.74881
-9.75917
-9.76959
-9.78
-9.79032
-9.8005
-9.81047
-9.8202
-9.82967
-9.83883
-9.84766
-9.85616
-9.8643
-9.87207
-9.87946
-9.88648
-9.8931
-9.89935
-9.90521
-9.91068
-9.91578
-9.92051
-9.92489
-9.6802
-9.68062
-9.68196
-9.68519
-9.69059
-9.69765
-9.70587
-9.715
-9.7248
-9.73504
-9.74551
-9.75607
-9.76663
-9.7771
-9.78742
-9.79753
-9.8074
-9.817
-9.82628
-9.83524
-9.84385
-9.85211
-9.85999
-9.8675
-9.87462
-9.88136
-9.8877
-9.89366
-9.89924
-9.90443
-9.90923
-9.91366
-9.91769
-9.6761
-9.67575
-9.67589
-9.67872
-9.68432
-9.69137
-9.69928
-9.70808
-9.71764
-9.72769
-9.73801
-9.74846
-9.75894
-9.76935
-9.77963
-9.7897
-9.79953
-9.80908
-9.81832
-9.82723
-9.83579
-9.84398
-9.85179
-9.85922
-9.86626
-9.87291
-9.87917
-9.88503
-9.89051
-9.89561
-9.90033
-9.90469
-9.90872
-9.67218
-9.66998
-9.66719
-9.66959
-9.67715
-9.68679
-9.69703
-9.70774
-9.71876
-9.72983
-9.7408
-9.75161
-9.76223
-9.7726
-9.7827
-9.79251
-9.80201
-9.81117
-9.81999
-9.82846
-9.83657
-9.8443
-9.85165
-9.85862
-9.86521
-9.87141
-9.87722
-9.88265
-9.8877
-9.89237
-9.89665
-9.90055
-9.90404
-9.66962
-9.66452
-9.65703
-9.65481
-9.65749
-9.66315
-9.67135
-9.68154
-9.69277
-9.70442
-9.71625
-9.72809
-9.73981
-9.75129
-9.76247
-9.77331
-9.78377
-9.79383
-9.80349
-9.81272
-9.82152
-9.82989
-9.83783
-9.84533
-9.8524
-9.85904
-9.86526
-9.87106
-9.87644
-9.88143
-9.88603
-9.89027
-9.89419
-9.67005
-9.65016
-9.65299
-9.67282
-9.68961
-9.70056
-9.71043
-9.72088
-9.73121
-9.74104
-9.75055
-9.7599
-9.76907
-9.77804
-9.78678
-9.7953
-9.80358
-9.8116
-9.81934
-9.82679
-9.83393
-9.84075
-9.84724
-9.8534
-9.85922
-9.86469
-9.86981
-9.87457
-9.87899
-9.88305
-9.88675
-9.89008
-9.89303
-9.70751
-9.58427
-9.52118
-9.52485
-9.54724
-9.56899
-9.59032
-9.61207
-9.63321
-9.65309
-9.67169
-9.68914
-9.70551
-9.72084
-9.73524
-9.74876
-9.76149
-9.77346
-9.78472
-9.79531
-9.80526
-9.8146
-9.82336
-9.83155
-9.83921
-9.84633
-9.85295
-9.85907
-9.86473
-9.86992
-9.87468
-9.87901
-9.88295
-9.86741
-9.88057
-9.83926
-9.7971
-9.77313
-9.76261
-9.7581
-9.75615
-9.75628
-9.75848
-9.7623
-9.7672
-9.77281
-9.77892
-9.78539
-9.79207
-9.79884
-9.80561
-9.81233
-9.81892
-9.82534
-9.83157
-9.83755
-9.84328
-9.84873
-9.85389
-9.85874
-9.86328
-9.8675
-9.8714
-9.87498
-9.87824
-9.88116
-8.70316
-9.00349
-9.26852
-9.39446
-9.45943
-9.51553
-9.56505
-9.60341
-9.63309
-9.65799
-9.67982
-9.69909
-9.71624
-9.73173
-9.74591
-9.75898
-9.7711
-9.78238
-9.7929
-9.80274
-9.81193
-9.82053
-9.82856
-9.83605
-9.84302
-9.84949
-9.85548
-9.86101
-9.86608
-9.87072
-9.87494
-9.87874
-9.88214
-10.3437
-10.2454
-10.2951
-10.3496
-10.3741
-10.3893
-10.4003
-10.4051
-10.4044
-10.4007
-10.3962
-10.3928
-10.3922
-10.3959
-10.4047
-10.4194
-10.4402
-10.4669
-10.4988
-10.5351
-10.5748
-10.6165
-10.6592
-10.7015
-10.7424
-10.7806
-10.8153
-10.8455
-10.8702
-10.8885
-10.8997
-10.903
-10.8974
-10.8824
-10.857
-10.8207
-10.7727
-10.7124
-10.6393
-10.5529
-10.4528
-10.3386
-10.2102
-10.0673
-9.91008
-9.73845
-9.55261
-9.35286
-9.13962
-8.91343
-8.67498
-8.42508
-8.16468
-7.89486
-7.61679
-7.33175
-7.04109
-6.74624
-6.44865
-6.14979
-5.85113
-5.55411
-5.26011
-4.97044
-4.68633
-4.40887
-4.13906
-3.87776
-3.62567
-3.38337
-3.1513
-2.92974
-2.71887
-2.51872
-2.32926
-2.15032
-1.98169
-1.82305
-1.67406
-1.53429
-1.40332
-1.28066
-1.16587
-1.05846
-0.957977
-0.863972
-0.776023
-0.693716
-0.616672
-0.544526
-0.476924
-0.413559
-0.354025
-0.29819
-0.245149
-0.195873
-0.146408
-0.104923
-0.0491136
-0.0338297
-10.3403
-10.3346
-10.3628
-10.3824
-10.3781
-10.3683
-10.3606
-10.3537
-10.3473
-10.3423
-10.3397
-10.3401
-10.3443
-10.3529
-10.3666
-10.3855
-10.4096
-10.4385
-10.4717
-10.5085
-10.5478
-10.5887
-10.6302
-10.6713
-10.7107
-10.7476
-10.781
-10.8099
-10.8333
-10.8505
-10.8605
-10.8626
-10.856
-10.8399
-10.8136
-10.7765
-10.7279
-10.6671
-10.5937
-10.5071
-10.4071
-10.2932
-10.1652
-10.0231
-9.86674
-9.69627
-9.51183
-9.31371
-9.10233
-8.87822
-8.64206
-8.39466
-8.13693
-7.86992
-7.5948
-7.3128
-7.02525
-6.73354
-6.43908
-6.14332
-5.84768
-5.55357
-5.26234
-4.97528
-4.69359
-4.41835
-4.15054
-3.891
-3.64045
-3.39946
-3.16847
-2.94777
-2.73755
-2.53787
-2.34869
-2.16988
-2.00121
-1.84242
-1.69314
-1.55298
-1.42152
-1.2983
-1.18287
-1.07477
-0.973551
-0.878762
-0.789992
-0.706832
-0.628905
-0.555848
-0.487306
-0.422971
-0.36243
-0.305555
-0.251409
-0.201042
-0.150217
-0.107975
-0.0492194
-0.0376146
-10.2986
-10.3046
-10.3097
-10.3225
-10.3298
-10.3339
-10.338
-10.3404
-10.3403
-10.3383
-10.3358
-10.3343
-10.3352
-10.3398
-10.3491
-10.3637
-10.3839
-10.4096
-10.4402
-10.4752
-10.5133
-10.5535
-10.5946
-10.6352
-10.6742
-10.7105
-10.743
-10.7708
-10.7931
-10.809
-10.8178
-10.8187
-10.811
-10.7939
-10.7668
-10.7289
-10.6797
-10.6185
-10.5448
-10.4582
-10.3583
-10.2448
-10.1175
-9.97623
-9.82101
-9.65189
-9.46905
-9.27278
-9.06349
-8.8417
-8.60808
-8.36341
-8.1086
-7.84467
-7.57273
-7.29401
-7.00979
-6.72142
-6.43029
-6.13779
-5.84532
-5.55426
-5.26592
-4.98157
-4.70237
-4.4294
-4.16363
-3.90589
-3.65689
-3.4172
-3.18726
-2.9674
-2.75779
-2.55852
-2.36956
-2.19079
-2.02202
-1.86298
-1.71333
-1.57269
-1.44067
-1.3168
-1.20066
-1.09179
-0.989757
-0.894116
-0.804459
-0.720386
-0.641518
-0.567497
-0.497964
-0.432613
-0.371023
-0.313068
-0.257788
-0.206283
-0.154125
-0.110991
-0.0496201
-0.0409337
-10.2716
-10.2883
-10.2994
-10.3166
-10.329
-10.334
-10.3356
-10.3351
-10.3329
-10.33
-10.3278
-10.3275
-10.3301
-10.3363
-10.3466
-10.3614
-10.3807
-10.4043
-10.4319
-10.4628
-10.4964
-10.5317
-10.568
-10.6041
-10.6391
-10.6719
-10.7016
-10.7272
-10.7477
-10.7622
-10.7698
-10.7697
-10.7611
-10.7432
-10.7154
-10.677
-10.6273
-10.5659
-10.4922
-10.4057
-10.3062
-10.1932
-10.0667
-9.92652
-9.77261
-9.60506
-9.42404
-9.22983
-9.02285
-8.8036
-8.57274
-8.33102
-8.07933
-7.81866
-7.5501
-7.27484
-6.99412
-6.70926
-6.4216
-6.13251
-5.84335
-5.55545
-5.27011
-4.98857
-4.71196
-4.44136
-4.1777
-3.92181
-3.67441
-3.43606
-3.20721
-2.98819
-2.77919
-2.58032
-2.39155
-2.21279
-2.04387
-1.88452
-1.73444
-1.59326
-1.4606
-1.33602
-1.2191
-1.1094
-1.00648
-0.909927
-0.819327
-0.734286
-0.654428
-0.579396
-0.508831
-0.442423
-0.379751
-0.320681
-0.264248
-0.211572
-0.15811
-0.113977
-0.0503343
-0.0437398
-10.252
-10.2713
-10.2836
-10.2969
-10.3067
-10.3112
-10.3135
-10.3149
-10.3154
-10.3155
-10.316
-10.3178
-10.3217
-10.3285
-10.3387
-10.3528
-10.371
-10.3931
-10.419
-10.4479
-10.4794
-10.5124
-10.5461
-10.5794
-10.6114
-10.6411
-10.6675
-10.6898
-10.7071
-10.7185
-10.7234
-10.7208
-10.7101
-10.6905
-10.6613
-10.6218
-10.5715
-10.5096
-10.4357
-10.3494
-10.2503
-10.138
-10.0124
-9.87343
-9.72098
-9.55514
-9.3761
-9.18412
-8.9796
-8.76305
-8.5351
-8.29649
-8.04807
-7.79082
-7.52579
-7.25413
-6.97706
-6.69584
-6.4118
-6.12627
-5.84055
-5.55597
-5.27378
-4.99519
-4.72132
-4.45321
-4.19179
-3.93788
-3.69219
-3.45527
-3.2276
-3.0095
-2.80117
-2.60273
-2.41419
-2.23546
-2.06639
-1.90673
-1.75621
-1.61446
-1.48113
-1.3558
-1.23806
-1.12748
-1.02365
-0.926138
-0.834553
-0.748504
-0.667618
-0.591538
-0.519907
-0.452412
-0.388629
-0.328421
-0.270819
-0.216945
-0.162212
-0.11698
-0.0514378
-0.0459758
-10.2343
-10.2536
-10.2672
-10.2797
-10.2901
-10.2967
-10.3009
-10.3038
-10.3056
-10.3066
-10.3079
-10.3103
-10.3146
-10.3215
-10.3314
-10.3449
-10.362
-10.3826
-10.4064
-10.4329
-10.4615
-10.4915
-10.5219
-10.552
-10.5808
-10.6073
-10.6308
-10.6503
-10.6649
-10.6739
-10.6765
-10.6718
-10.6591
-10.6377
-10.607
-10.5661
-10.5147
-10.452
-10.3776
-10.2911
-10.1921
-10.0803
-9.95546
-9.81753
-9.66645
-9.50228
-9.32519
-9.13545
-8.93343
-8.71963
-8.49466
-8.25923
-8.01419
-7.76045
-7.49906
-7.23112
-6.95782
-6.6804
-6.40012
-6.11828
-5.83616
-5.55505
-5.27616
-5.00067
-4.72968
-4.46421
-4.20518
-3.95339
-3.70954
-3.47419
-3.24781
-3.03073
-2.82317
-2.62525
-2.43701
-2.25837
-2.08919
-1.92926
-1.77831
-1.63602
-1.50202
-1.37594
-1.25737
-1.1459
-1.04113
-0.942642
-0.85005
-0.762969
-0.681031
-0.60388
-0.531161
-0.462557
-0.397645
-0.33628
-0.277501
-0.222414
-0.166446
-0.120024
-0.0529756
-0.0476161
-10.2184
-10.2372
-10.2515
-10.2638
-10.2741
-10.2815
-10.2864
-10.29
-10.2926
-10.2948
-10.2972
-10.3006
-10.3056
-10.3129
-10.3229
-10.3358
-10.3519
-10.3709
-10.3928
-10.4171
-10.4431
-10.4702
-10.4977
-10.5247
-10.5503
-10.5738
-10.5941
-10.6106
-10.6223
-10.6286
-10.6285
-10.6214
-10.6065
-10.5832
-10.5508
-10.5086
-10.456
-10.3925
-10.3176
-10.2308
-10.1319
-10.0205
-9.89638
-9.75947
-9.60971
-9.44718
-9.27202
-9.08451
-8.88499
-8.67396
-8.452
-8.21981
-7.97818
-7.72804
-7.47037
-7.20625
-6.93683
-6.6633
-6.38689
-6.10886
-5.83047
-5.55293
-5.27746
-5.00519
-4.7372
-4.47448
-4.21793
-3.96835
-3.72643
-3.49273
-3.26771
-3.05173
-2.845
-2.64767
-2.45978
-2.28128
-2.11204
-1.95188
-1.80054
-1.65772
-1.52308
-1.39626
-1.27686
-1.16451
-1.05879
-0.959325
-0.865717
-0.777594
-0.694592
-0.616359
-0.542538
-0.472814
-0.406763
-0.344231
-0.284274
-0.227964
-0.1708
-0.123114
-0.0549404
-0.0486684
-10.2035
-10.2215
-10.2359
-10.2481
-10.2584
-10.2663
-10.2721
-10.2766
-10.2802
-10.2834
-10.2868
-10.2909
-10.2964
-10.3038
-10.3136
-10.3259
-10.3409
-10.3585
-10.3785
-10.4006
-10.4241
-10.4486
-10.4732
-10.4972
-10.5197
-10.5401
-10.5574
-10.571
-10.5798
-10.5833
-10.5807
-10.5712
-10.5542
-10.5289
-10.4947
-10.4509
-10.3971
-10.3327
-10.2571
-10.17
-10.0711
-9.95997
-9.8365
-9.70055
-9.55208
-9.39116
-9.21792
-9.03263
-8.83563
-8.62739
-8.40847
-8.17955
-7.9414
-7.6949
-7.44102
-7.18078
-6.91529
-6.64572
-6.37325
-6.0991
-5.82448
-5.55058
-5.27857
-5.00956
-4.74461
-4.48467
-4.23064
-3.9833
-3.74333
-3.5113
-3.28767
-3.07279
-2.86692
-2.67018
-2.48265
-2.3043
-2.13501
-1.97462
-1.82289
-1.67955
-1.54427
-1.41671
-1.29649
-1.18325
-1.07659
-0.976129
-0.881499
-0.792326
-0.708251
-0.628926
-0.553996
-0.483143
-0.415946
-0.352242
-0.291107
-0.233569
-0.175245
-0.126236
-0.0572738
-0.0491758
-10.1893
-10.2064
-10.2207
-10.2328
-10.2431
-10.2514
-10.2579
-10.2631
-10.2676
-10.2716
-10.2756
-10.2804
-10.2863
-10.2938
-10.3033
-10.3149
-10.3289
-10.3451
-10.3633
-10.3833
-10.4045
-10.4263
-10.4481
-10.4692
-10.4888
-10.5062
-10.5207
-10.5313
-10.5374
-10.5383
-10.5331
-10.5213
-10.5021
-10.4749
-10.4389
-10.3938
-10.3387
-10.2733
-10.1972
-10.1098
-10.0108
-9.89996
-9.77712
-9.64212
-9.49493
-9.3356
-9.16428
-8.9812
-8.78672
-8.58126
-8.36539
-8.13974
-7.90507
-7.66222
-7.41211
-7.15575
-6.8942
-6.62858
-6.36005
-6.08976
-5.8189
-5.54863
-5.28007
-5.01432
-4.75238
-4.49522
-4.2437
-3.99859
-3.76057
-3.5302
-3.30795
-3.09418
-2.88914
-2.693
-2.50583
-2.32761
-2.15826
-1.99764
-1.84551
-1.70163
-1.5657
-1.43738
-1.31633
-1.20217
-1.09455
-0.99309
-0.89742
-0.807181
-0.722018
-0.641585
-0.565531
-0.493536
-0.425182
-0.360297
-0.297981
-0.239208
-0.17975
-0.129367
-0.059878
-0.0492212
-10.1756
-10.1918
-10.2058
-10.2178
-10.2282
-10.2368
-10.2438
-10.2496
-10.2547
-10.2593
-10.264
-10.2692
-10.2754
-10.2829
-10.2921
-10.3031
-10.316
-10.3308
-10.3473
-10.3652
-10.3841
-10.4034
-10.4225
-10.4408
-10.4576
-10.4722
-10.4837
-10.4916
-10.495
-10.4933
-10.4857
-10.4716
-10.4504
-10.4212
-10.3837
-10.337
-10.2809
-10.2146
-10.1378
-10.0501
-9.95117
-9.84068
-9.71849
-9.58446
-9.43856
-9.28084
-9.11143
-8.93057
-8.73859
-8.53592
-8.32307
-8.10068
-7.86946
-7.63022
-7.38386
-7.13135
-6.8737
-6.612
-6.34735
-6.0809
-5.81377
-5.54709
-5.28195
-5.01942
-4.76048
-4.50608
-4.25705
-4.01416
-3.77808
-3.54937
-3.3285
-3.11584
-2.91165
-2.7161
-2.52929
-2.35121
-2.18181
-2.02094
-1.86842
-1.72401
-1.58741
-1.45833
-1.33642
-1.22135
-1.11275
-1.01027
-0.913537
-0.822212
-0.73594
-0.654379
-0.577181
-0.504025
-0.434497
-0.368415
-0.304906
-0.244885
-0.184306
-0.132499
-0.062647
-0.0489267
-10.1623
-10.1777
-10.1913
-10.2032
-10.2135
-10.2223
-10.2297
-10.236
-10.2416
-10.2468
-10.252
-10.2575
-10.2638
-10.2712
-10.28
-10.2903
-10.3022
-10.3156
-10.3305
-10.3464
-10.3631
-10.3799
-10.3965
-10.4121
-10.4261
-10.4379
-10.4467
-10.4519
-10.4527
-10.4484
-10.4385
-10.4222
-10.3989
-10.3679
-10.3287
-10.2808
-10.2235
-10.1564
-10.0791
-9.99109
-9.89217
-9.78205
-9.66052
-9.52748
-9.38288
-9.22677
-9.05928
-8.88063
-8.69114
-8.49123
-8.28138
-8.06221
-7.83441
-7.59876
-7.35611
-7.10739
-6.8536
-6.59577
-6.33498
-6.07232
-5.80888
-5.54576
-5.28402
-5.02468
-4.76873
-4.51706
-4.27051
-4.02984
-3.7957
-3.56865
-3.34917
-3.13762
-2.93428
-2.73934
-2.5529
-2.37498
-2.20554
-2.04444
-1.89153
-1.74659
-1.60934
-1.4795
-1.35674
-1.24075
-1.13117
-1.02765
-0.929856
-0.837432
-0.750037
-0.667334
-0.588974
-0.51464
-0.443921
-0.376625
-0.311911
-0.250624
-0.188926
-0.135651
-0.0654992
-0.0484431
-10.1493
-10.164
-10.1772
-10.1888
-10.1991
-10.208
-10.2156
-10.2223
-10.2283
-10.2339
-10.2394
-10.2452
-10.2516
-10.2588
-10.2671
-10.2767
-10.2876
-10.2997
-10.3129
-10.3269
-10.3414
-10.356
-10.37
-10.383
-10.3944
-10.4035
-10.4096
-10.4121
-10.4104
-10.4037
-10.3915
-10.373
-10.3477
-10.315
-10.2742
-10.2249
-10.1666
-10.0987
-10.0208
-9.93261
-9.83376
-9.724
-9.60315
-9.4711
-9.32779
-9.17329
-9.00771
-8.83126
-8.64424
-8.44706
-8.24019
-8.02422
-7.7998
-7.56768
-7.3287
-7.08375
-6.83377
-6.57977
-6.32279
-6.06387
-5.80409
-5.5445
-5.28612
-5.02996
-4.77697
-4.52803
-4.28396
-4.04549
-3.81329
-3.58791
-3.36982
-3.15939
-2.95692
-2.7626
-2.57655
-2.3988
-2.22932
-2.06802
-1.91474
-1.76927
-1.63138
-1.50079
-1.3772
-1.26029
-1.14973
-1.04519
-0.946323
-0.852799
-0.764278
-0.680425
-0.600897
-0.525375
-0.453455
-0.384935
-0.319005
-0.256438
-0.19362
-0.138841
-0.0683795
-0.0479144
-10.1366
-10.1506
-10.1633
-10.1747
-10.1848
-10.1938
-10.2016
-10.2086
-10.2149
-10.2207
-10.2265
-10.2324
-10.2387
-10.2457
-10.2535
-10.2623
-10.2722
-10.283
-10.2946
-10.3068
-10.3192
-10.3315
-10.3432
-10.3537
-10.3625
-10.369
-10.3725
-10.3725
-10.3682
-10.3592
-10.3447
-10.3241
-10.2969
-10.2624
-10.2202
-10.1696
-10.1102
-10.0415
-9.96312
-9.87469
-9.77591
-9.66653
-9.54636
-9.41529
-9.27329
-9.12038
-8.95668
-8.78241
-8.59784
-8.40336
-8.19943
-7.98661
-7.76553
-7.53692
-7.30156
-7.06032
-6.81412
-6.56391
-6.31069
-6.05549
-5.79933
-5.54323
-5.28819
-5.03519
-4.78514
-4.53891
-4.2973
-4.06104
-3.83078
-3.60706
-3.39037
-3.18108
-2.97949
-2.7858
-2.60015
-2.42258
-2.25309
-2.09159
-1.93795
-1.79198
-1.65346
-1.52213
-1.39771
-1.27989
-1.16836
-1.0628
-0.962873
-0.868252
-0.778604
-0.693601
-0.612903
-0.536191
-0.463067
-0.393317
-0.326169
-0.262317
-0.198375
-0.142074
-0.0712431
-0.0474444
-10.1241
-10.1375
-10.1498
-10.1608
-10.1708
-10.1797
-10.1877
-10.1947
-10.2012
-10.2072
-10.2131
-10.219
-10.2252
-10.2319
-10.2392
-10.2473
-10.2561
-10.2656
-10.2756
-10.2861
-10.2965
-10.3066
-10.316
-10.3241
-10.3304
-10.3343
-10.3354
-10.3329
-10.3262
-10.3149
-10.2982
-10.2756
-10.2465
-10.2103
-10.1666
-10.1147
-10.0543
-9.98486
-9.906
-9.81737
-9.71867
-9.60967
-9.49017
-9.36009
-9.21936
-9.06803
-8.9062
-8.73407
-8.55193
-8.36012
-8.15909
-7.94938
-7.7316
-7.50644
-7.27466
-7.03709
-6.7946
-6.54814
-6.29865
-6.04712
-5.79454
-5.5419
-5.29018
-5.0403
-4.79317
-4.54964
-4.31049
-4.07643
-3.84811
-3.62606
-3.41078
-3.20263
-3.00192
-2.80888
-2.62364
-2.44628
-2.27679
-2.11511
-1.96112
-1.81466
-1.67552
-1.54347
-1.41823
-1.29951
-1.18702
-1.08044
-0.979455
-0.883739
-0.792967
-0.706816
-0.624948
-0.547045
-0.472716
-0.401737
-0.333369
-0.26823
-0.203159
-0.145335
-0.074047
-0.0470867
-10.1119
-10.1246
-10.1364
-10.1472
-10.157
-10.1658
-10.1737
-10.1808
-10.1874
-10.1935
-10.1994
-10.2052
-10.2112
-10.2175
-10.2243
-10.2315
-10.2393
-10.2475
-10.2561
-10.2648
-10.2733
-10.2814
-10.2885
-10.2942
-10.2982
-10.2997
-10.2983
-10.2934
-10.2844
-10.2708
-10.252
-10.2274
-10.1965
-10.1587
-10.1135
-10.0604
-9.99901
-9.92883
-9.8495
-9.76067
-9.66206
-9.55344
-9.43462
-9.3055
-9.16604
-9.01626
-8.85628
-8.68627
-8.50651
-8.31733
-8.11916
-7.91252
-7.69799
-7.47623
-7.24798
-7.01403
-6.77522
-6.53244
-6.28663
-6.03873
-5.7897
-5.54049
-5.29204
-5.04527
-4.80105
-4.5602
-4.3235
-4.09163
-3.86524
-3.64487
-3.431
-3.224
-3.0242
-2.83181
-2.64701
-2.46986
-2.30038
-2.13853
-1.98421
-1.83728
-1.69754
-1.56477
-1.43871
-1.31911
-1.20566
-1.09808
-0.996034
-0.899226
-0.807333
-0.720034
-0.636997
-0.557904
-0.482371
-0.410162
-0.340575
-0.27415
-0.207943
-0.148604
-0.0767582
-0.04686
-10.0998
-10.112
-10.1233
-10.1337
-10.1433
-10.1519
-10.1598
-10.1669
-10.1734
-10.1795
-10.1853
-10.191
-10.1967
-10.2026
-10.2087
-10.2152
-10.2219
-10.2289
-10.236
-10.243
-10.2497
-10.2557
-10.2607
-10.2643
-10.2659
-10.2651
-10.2613
-10.2541
-10.2429
-10.2271
-10.2062
-10.1797
-10.147
-10.1076
-10.061
-10.0067
-9.94435
-9.87346
-9.79367
-9.70466
-9.60614
-9.49789
-9.37974
-9.25158
-9.11336
-8.96512
-8.80695
-8.63903
-8.46161
-8.27502
-8.07968
-7.87605
-7.66472
-7.44632
-7.22154
-6.99115
-6.75596
-6.51683
-6.27465
-6.03033
-5.7848
-5.53898
-5.29378
-5.05008
-4.80874
-4.57056
-4.33629
-4.10661
-3.88215
-3.66346
-3.451
-3.24516
-3.04627
-2.85456
-2.67019
-2.49327
-2.32383
-2.16183
-2.0072
-1.8598
-1.71947
-1.58599
-1.45914
-1.33866
-1.22427
-1.11567
-1.01258
-0.914688
-0.821676
-0.733232
-0.649027
-0.568746
-0.492008
-0.418572
-0.347765
-0.280057
-0.212702
-0.151867
-0.0793582
-0.0467633
-10.0879
-10.0996
-10.1104
-10.1205
-10.1297
-10.1381
-10.1458
-10.1529
-10.1593
-10.1653
-10.171
-10.1764
-10.1818
-10.1872
-10.1927
-10.1983
-10.204
-10.2098
-10.2154
-10.2209
-10.2258
-10.2298
-10.2328
-10.2341
-10.2335
-10.2305
-10.2245
-10.215
-10.2016
-10.1837
-10.1608
-10.1324
-10.098
-10.057
-10.0091
-9.95368
-9.89037
-9.81879
-9.73856
-9.64938
-9.55096
-9.44308
-9.32559
-9.19837
-9.06138
-8.91465
-8.75826
-8.5924
-8.41728
-8.23324
-8.04066
-7.84
-7.63182
-7.41671
-7.19535
-6.96846
-6.73684
-6.5013
-6.26269
-6.02191
-5.77984
-5.53737
-5.29537
-5.05472
-4.81623
-4.5807
-4.34884
-4.12134
-3.89881
-3.68179
-3.47075
-3.26608
-3.06811
-2.87708
-2.69318
-2.5165
-2.3471
-2.18497
-2.03003
-1.88219
-1.74128
-1.60712
-1.47949
-1.35813
-1.2428
-1.13321
-1.02908
-0.930104
-0.835977
-0.746391
-0.661021
-0.579553
-0.501614
-0.426951
-0.354925
-0.285937
-0.217424
-0.155113
-0.0818436
-0.046787
-10.0762
-10.0873
-10.0977
-10.1073
-10.1162
-10.1245
-10.132
-10.1388
-10.1451
-10.1509
-10.1564
-10.1615
-10.1665
-10.1714
-10.1762
-10.1809
-10.1856
-10.1902
-10.1945
-10.1983
-10.2015
-10.2037
-10.2046
-10.2039
-10.2012
-10.196
-10.1878
-10.1762
-10.1607
-10.1408
-10.1159
-10.0857
-10.0496
-10.0072
-9.95788
-9.90135
-9.83715
-9.7649
-9.68425
-9.59489
-9.49657
-9.38907
-9.27222
-9.14593
-9.01015
-8.8649
-8.71026
-8.54641
-8.37356
-8.19201
-8.00215
-7.80441
-7.59931
-7.38743
-7.16943
-6.94599
-6.71787
-6.48586
-6.25078
-6.01347
-5.77481
-5.53564
-5.29682
-5.05917
-4.82351
-4.59059
-4.36113
-4.1358
-3.91519
-3.69984
-3.49022
-3.28673
-3.08969
-2.89935
-2.71591
-2.5395
-2.37016
-2.20791
-2.05269
-1.90442
-1.76295
-1.62812
-1.49971
-1.3775
-1.26124
-1.15067
-1.0455
-0.945451
-0.850216
-0.759493
-0.672962
-0.590311
-0.511172
-0.435287
-0.362042
-0.291781
-0.222099
-0.158335
-0.084219
-0.0469149
-10.0646
-10.0752
-10.0851
-10.0943
-10.1029
-10.1108
-10.1181
-10.1247
-10.1308
-10.1364
-10.1415
-10.1463
-10.1508
-10.1551
-10.1592
-10.1631
-10.1668
-10.1702
-10.1731
-10.1754
-10.177
-10.1774
-10.1764
-10.1737
-10.1689
-10.1616
-10.1514
-10.1377
-10.1201
-10.0983
-10.0716
-10.0396
-10.0019
-9.95798
-9.90742
-9.84981
-9.78473
-9.71184
-9.63078
-9.54127
-9.44305
-9.33592
-9.21971
-9.09433
-8.95973
-8.81593
-8.66301
-8.50112
-8.33049
-8.15139
-7.96418
-7.7693
-7.56723
-7.35853
-7.14381
-6.92375
-6.69907
-6.47053
-6.23891
-6.00503
-5.76972
-5.5338
-5.2981
-5.06343
-4.83056
-4.60023
-4.37315
-4.14997
-3.93127
-3.71759
-3.50939
-3.30707
-3.11096
-2.92133
-2.73838
-2.56223
-2.39297
-2.23062
-2.07514
-1.92645
-1.78444
-1.64895
-1.51978
-1.39673
-1.27956
-1.16802
-1.06182
-0.960706
-0.864371
-0.772518
-0.684832
-0.601003
-0.52067
-0.443568
-0.369107
-0.297578
-0.226718
-0.161527
-0.0864938
-0.0471291
-10.0531
-10.0632
-10.0727
-10.0815
-10.0897
-10.0973
-10.1043
-10.1106
-10.1164
-10.1217
-10.1265
-10.1309
-10.1349
-10.1386
-10.142
-10.145
-10.1477
-10.1499
-10.1515
-10.1524
-10.1523
-10.151
-10.1482
-10.1436