/*--------------------------------*- C++ -*----------------------------------*\
| =========                 |                                                 |
| \\      /  F ield         | OpenFOAM: The Open Source CFD Toolbox           |
|  \\    /   O peration     | Version:  4.1                                   |
|   \\  /    A nd           | Web:      www.OpenFOAM.org                      |
|    \\/     M anipulation  |                                                 |
\*---------------------------------------------------------------------------*/
FoamFile
{
    version     2.0;
    format      ascii;
    class       surfaceScalarField;
    location    "400";
    object      phi;
}
// * * * * * * * * * * * * * * * * * * * * * * * * * * * * * * * * * * * * * //

dimensions      [0 3 -1 0 0 0 0];

internalField   nonuniform List<scalar> 
13452
(
6.0292e-05
-2.35474e-08
5.98975e-05
3.94463e-07
5.93096e-05
5.87963e-07
5.85579e-05
7.51658e-07
5.76907e-05
8.67221e-07
5.67838e-05
9.06873e-07
5.58835e-05
9.00355e-07
5.501e-05
8.73435e-07
5.41738e-05
8.36274e-07
5.33807e-05
7.93042e-07
5.26342e-05
7.46576e-07
5.19352e-05
6.98951e-07
5.12837e-05
6.51549e-07
5.06784e-05
6.05279e-07
5.01176e-05
5.60748e-07
4.95993e-05
5.18354e-07
4.91209e-05
4.78326e-07
4.86802e-05
4.40765e-07
4.82745e-05
4.05677e-07
4.79015e-05
3.72999e-07
4.75589e-05
3.42618e-07
4.72445e-05
3.14386e-07
4.69564e-05
2.88127e-07
4.66927e-05
2.63648e-07
4.6452e-05
2.4074e-07
4.62328e-05
2.1917e-07
4.60341e-05
1.98712e-07
4.58551e-05
1.79024e-07
4.56949e-05
1.60205e-07
4.55539e-05
1.40961e-07
4.54283e-05
1.25661e-07
4.53166e-05
1.11649e-07
9.67453e-08
4.52199e-05
6.22178e-05
-2.50969e-07
6.23093e-05
3.02879e-07
6.24257e-05
4.71613e-07
6.25748e-05
6.02572e-07
6.27368e-05
7.05194e-07
6.2882e-05
7.61698e-07
6.29926e-05
7.89708e-07
6.30622e-05
8.03843e-07
6.30904e-05
8.0805e-07
6.308e-05
8.03468e-07
6.30349e-05
7.91668e-07
6.29595e-05
7.74331e-07
6.28583e-05
7.52843e-07
6.27352e-05
7.28313e-07
6.25943e-05
7.01669e-07
6.2439e-05
6.73678e-07
6.22723e-05
6.44959e-07
6.20971e-05
6.15992e-07
6.19156e-05
5.87138e-07
6.173e-05
5.58659e-07
6.15419e-05
5.30729e-07
6.13528e-05
5.03454e-07
6.11641e-05
4.76878e-07
6.09767e-05
4.5099e-07
6.07917e-05
4.25736e-07
6.06099e-05
4.01003e-07
6.04319e-05
3.76662e-07
6.02585e-05
3.52421e-07
6.00904e-05
3.28312e-07
5.99283e-05
3.03083e-07
5.97751e-05
2.78896e-07
5.96404e-05
2.46359e-07
2.14528e-07
5.95226e-05
6.36312e-05
-1.20751e-07
6.36862e-05
2.47913e-07
6.3757e-05
4.00811e-07
6.38541e-05
5.0547e-07
6.39622e-05
5.97095e-07
6.40655e-05
6.58373e-07
6.41601e-05
6.95079e-07
6.42462e-05
7.17799e-07
6.43236e-05
7.30623e-07
6.43922e-05
7.3486e-07
6.44519e-05
7.31936e-07
6.45029e-05
7.2338e-07
6.45453e-05
7.10454e-07
6.45794e-05
6.94153e-07
6.46058e-05
6.75301e-07
6.46249e-05
6.54594e-07
6.46372e-05
6.32603e-07
6.46434e-05
6.0978e-07
6.46441e-05
5.86475e-07
6.46398e-05
5.62952e-07
6.46311e-05
5.39398e-07
6.46187e-05
5.15932e-07
6.46029e-05
4.92617e-07
6.45845e-05
4.69461e-07
6.45638e-05
4.4642e-07
6.45414e-05
4.23392e-07
6.45178e-05
4.00237e-07
6.44936e-05
3.76671e-07
6.44694e-05
3.52498e-07
6.44457e-05
3.26753e-07
6.44251e-05
2.99477e-07
6.44058e-05
2.65706e-07
2.29226e-07
6.43911e-05
6.54961e-05
-3.37299e-08
6.55391e-05
2.04897e-07
6.55809e-05
3.58967e-07
6.56298e-05
4.56615e-07
6.5686e-05
5.40892e-07
6.57429e-05
6.01453e-07
6.57988e-05
6.39145e-07
6.58539e-05
6.62747e-07
6.59076e-05
6.76863e-07
6.59595e-05
6.82999e-07
6.6009e-05
6.82404e-07
6.6056e-05
6.76445e-07
6.61001e-05
6.66281e-07
6.61415e-05
6.52822e-07
6.618e-05
6.36817e-07
6.62156e-05
6.18901e-07
6.62487e-05
5.99596e-07
6.62791e-05
5.79314e-07
6.63072e-05
5.5838e-07
6.63331e-05
5.37033e-07
6.63571e-05
5.15446e-07
6.63793e-05
4.93727e-07
6.64e-05
4.71929e-07
6.64194e-05
4.50053e-07
6.64378e-05
4.28046e-07
6.64553e-05
4.05801e-07
6.64724e-05
3.83154e-07
6.64893e-05
3.59825e-07
6.65063e-05
3.3551e-07
6.65236e-05
3.09436e-07
6.65419e-05
2.81172e-07
6.65595e-05
2.48099e-07
2.11288e-07
6.65774e-05
6.74175e-05
5.53011e-09
6.74377e-05
1.84676e-07
6.74637e-05
3.32977e-07
6.74953e-05
4.25055e-07
6.75353e-05
5.00847e-07
6.75787e-05
5.58074e-07
6.76226e-05
5.95312e-07
6.76663e-05
6.19016e-07
6.77096e-05
6.33524e-07
6.77522e-05
6.40417e-07
6.77937e-05
6.40866e-07
6.7834e-05
6.36139e-07
6.7873e-05
6.27332e-07
6.79105e-05
6.15304e-07
6.79466e-05
6.00761e-07
6.79812e-05
5.84294e-07
6.80144e-05
5.66391e-07
6.80463e-05
5.4744e-07
6.80769e-05
5.2774e-07
6.81064e-05
5.07517e-07
6.81349e-05
4.8693e-07
6.81626e-05
4.66076e-07
6.81895e-05
4.45002e-07
6.82159e-05
4.23699e-07
6.82418e-05
4.02113e-07
6.82675e-05
3.80129e-07
6.8293e-05
3.5758e-07
6.83187e-05
3.342e-07
6.83445e-05
3.09667e-07
6.83706e-05
2.83393e-07
6.83968e-05
2.54892e-07
6.84222e-05
2.2277e-07
1.87457e-07
6.8446e-05
6.9364e-05
2.55276e-08
6.93757e-05
1.72998e-07
6.94e-05
3.08658e-07
6.94282e-05
3.96845e-07
6.94624e-05
4.66723e-07
6.94994e-05
5.20987e-07
6.95371e-05
5.5768e-07
6.95748e-05
5.81335e-07
6.96124e-05
5.95924e-07
6.96496e-05
6.03144e-07
6.96863e-05
6.04151e-07
6.97223e-05
6.00141e-07
6.97575e-05
5.92154e-07
6.97918e-05
5.8101e-07
6.98252e-05
5.67378e-07
6.98577e-05
5.51819e-07
6.98893e-05
5.34793e-07
6.992e-05
5.16667e-07
6.99501e-05
4.97724e-07
6.99794e-05
4.78175e-07
7.00082e-05
4.58171e-07
7.00364e-05
4.37802e-07
7.00643e-05
4.17109e-07
7.00919e-05
3.96081e-07
7.01194e-05
3.74663e-07
7.01468e-05
3.52745e-07
7.01742e-05
3.30168e-07
7.02017e-05
3.06697e-07
7.02293e-05
2.82045e-07
7.02569e-05
2.55782e-07
7.02843e-05
2.27524e-07
7.03105e-05
1.96573e-07
1.63207e-07
7.03347e-05
7.13552e-05
3.67078e-08
7.13652e-05
1.62992e-07
7.13891e-05
2.84736e-07
7.14162e-05
3.69725e-07
7.14474e-05
4.35556e-07
7.14812e-05
4.87147e-07
7.15158e-05
5.23131e-07
7.15504e-05
5.46657e-07
7.15851e-05
5.61246e-07
7.16196e-05
5.6867e-07
7.16537e-05
5.7008e-07
7.16872e-05
5.66602e-07
7.17201e-05
5.59227e-07
7.17524e-05
5.48744e-07
7.1784e-05
5.35793e-07
7.18149e-05
5.20909e-07
7.18451e-05
5.04529e-07
7.18748e-05
4.87004e-07
7.19039e-05
4.68603e-07
7.19326e-05
4.49528e-07
7.19608e-05
4.29922e-07
7.19888e-05
4.09871e-07
7.20165e-05
3.89414e-07
7.2044e-05
3.68544e-07
7.20714e-05
3.47209e-07
7.20989e-05
3.25312e-07
7.21263e-05
3.02714e-07
7.21538e-05
2.79222e-07
7.21812e-05
2.54605e-07
7.22085e-05
2.28572e-07
7.22351e-05
2.00872e-07
7.22605e-05
1.71194e-07
1.39807e-07
7.22839e-05
7.33998e-05
4.21376e-08
7.34094e-05
1.53445e-07
7.34317e-05
2.62399e-07
7.34579e-05
3.4356e-07
7.34875e-05
4.05949e-07
7.35197e-05
4.54932e-07
7.35528e-05
4.90026e-07
7.35861e-05
5.13383e-07
7.36194e-05
5.27989e-07
7.36524e-05
5.35609e-07
7.36851e-05
5.37386e-07
7.37173e-05
5.34385e-07
7.3749e-05
5.2755e-07
7.37801e-05
5.17641e-07
7.38106e-05
5.05276e-07
7.38406e-05
4.90968e-07
7.387e-05
4.75134e-07
7.38988e-05
4.58111e-07
7.39273e-05
4.40159e-07
7.39553e-05
4.21472e-07
7.39831e-05
4.02188e-07
7.40106e-05
3.82394e-07
7.40378e-05
3.62128e-07
7.4065e-05
3.4139e-07
7.40921e-05
3.20138e-07
7.41191e-05
2.98295e-07
7.41461e-05
2.75746e-07
7.41729e-05
2.52347e-07
7.41996e-05
2.2793e-07
7.42259e-05
2.02313e-07
7.42514e-05
1.75366e-07
7.42756e-05
1.46991e-07
1.17461e-07
7.42979e-05
7.55007e-05
4.3862e-08
7.55101e-05
1.44125e-07
7.55306e-05
2.41818e-07
7.55558e-05
3.18361e-07
7.55843e-05
3.77454e-07
7.56154e-05
4.23854e-07
7.56476e-05
4.5783e-07
7.56801e-05
4.80882e-07
7.57126e-05
4.95455e-07
7.5745e-05
5.03237e-07
7.57771e-05
5.05351e-07
7.58086e-05
5.02799e-07
7.58397e-05
4.96473e-07
7.58703e-05
4.87106e-07
7.59002e-05
4.7529e-07
7.59297e-05
4.61518e-07
7.59586e-05
4.46194e-07
7.59871e-05
4.29639e-07
7.60152e-05
4.12105e-07
7.60428e-05
3.93782e-07
7.60702e-05
3.74806e-07
7.60974e-05
3.55263e-07
7.61243e-05
3.35199e-07
7.61511e-05
3.14621e-07
7.61777e-05
2.93501e-07
7.62042e-05
2.71783e-07
7.62306e-05
2.49385e-07
7.62567e-05
2.26206e-07
7.62825e-05
2.02141e-07
7.63077e-05
1.77094e-07
7.63321e-05
1.51021e-07
7.63551e-05
1.23944e-07
9.61319e-08
7.63764e-05
7.766e-05
4.33941e-08
7.76693e-05
1.34856e-07
7.76884e-05
2.22748e-07
7.77125e-05
2.94212e-07
7.774e-05
3.50005e-07
7.777e-05
3.93831e-07
7.78014e-05
4.26443e-07
7.78333e-05
4.48976e-07
7.78654e-05
4.63393e-07
7.78973e-05
4.71253e-07
7.79291e-05
4.7364e-07
7.79604e-05
4.71489e-07
7.79912e-05
4.65638e-07
7.80215e-05
4.56784e-07
7.80513e-05
4.45495e-07
7.80806e-05
4.32244e-07
7.81094e-05
4.17416e-07
7.81377e-05
4.01322e-07
7.81656e-05
3.84207e-07
7.81931e-05
3.66257e-07
7.82203e-05
3.47605e-07
7.82472e-05
3.28343e-07
7.82739e-05
3.08522e-07
7.83004e-05
2.8816e-07
7.83266e-05
2.67246e-07
7.83527e-05
2.45746e-07
7.83784e-05
2.23611e-07
7.84039e-05
2.0078e-07
7.84288e-05
1.77201e-07
7.84531e-05
1.52842e-07
7.84764e-05
1.2772e-07
7.84984e-05
1.01919e-07
7.56923e-08
7.85188e-05
7.988e-05
4.16827e-08
7.98893e-05
1.25583e-07
7.99071e-05
2.04949e-07
7.99301e-05
2.71173e-07
7.99566e-05
3.23593e-07
7.99856e-05
3.6483e-07
8.00161e-05
3.95875e-07
8.00474e-05
4.17666e-07
8.00791e-05
4.31773e-07
8.01107e-05
4.39594e-07
8.01422e-05
4.42156e-07
8.01733e-05
4.40333e-07
8.02041e-05
4.34901e-07
8.02344e-05
4.26519e-07
8.02641e-05
4.15729e-07
8.02934e-05
4.02979e-07
8.03222e-05
3.88638e-07
8.03505e-05
3.73007e-07
8.03784e-05
3.56322e-07
8.04059e-05
3.38764e-07
8.0433e-05
3.20469e-07
8.04598e-05
3.01531e-07
8.04863e-05
2.82009e-07
8.05125e-05
2.61933e-07
8.05385e-05
2.41309e-07
8.05641e-05
2.20126e-07
8.05893e-05
1.98363e-07
8.06141e-05
1.75997e-07
8.06383e-05
1.53018e-07
8.06617e-05
1.29437e-07
8.06841e-05
1.05313e-07
8.07053e-05
8.07583e-08
5.60059e-08
8.0725e-05
8.21628e-05
3.92937e-08
8.21721e-05
1.16349e-07
8.21888e-05
1.88223e-07
8.22107e-05
2.49233e-07
8.22361e-05
2.98192e-07
8.22641e-05
3.36821e-07
8.22939e-05
3.66144e-07
8.23245e-05
3.86993e-07
8.23557e-05
4.00631e-07
8.2387e-05
4.08285e-07
8.24182e-05
4.10914e-07
8.24492e-05
4.09328e-07
8.24799e-05
4.04245e-07
8.25101e-05
3.96282e-07
8.25399e-05
3.85949e-07
8.25692e-05
3.73674e-07
8.25981e-05
3.59808e-07
8.26264e-05
3.44638e-07
8.26544e-05
3.28392e-07
8.26819e-05
3.1125e-07
8.2709e-05
2.93346e-07
8.27357e-05
2.74778e-07
8.27621e-05
2.55614e-07
8.27882e-05
2.35896e-07
8.28138e-05
2.15646e-07
8.28391e-05
1.94874e-07
8.28639e-05
1.73585e-07
8.28881e-05
1.51785e-07
8.29116e-05
1.29496e-07
8.29343e-05
1.06761e-07
8.29559e-05
8.36626e-08
8.29764e-05
6.03221e-08
3.69504e-08
8.29954e-05
8.45105e-05
3.65643e-08
8.45196e-05
1.07224e-07
8.45354e-05
1.72405e-07
8.45563e-05
2.28336e-07
8.45808e-05
2.73772e-07
8.46078e-05
3.09767e-07
8.46367e-05
3.37253e-07
8.46667e-05
3.56991e-07
8.46973e-05
3.7001e-07
8.47282e-05
3.77372e-07
8.47592e-05
3.79959e-07
8.479e-05
3.78516e-07
8.48206e-05
3.73705e-07
8.48507e-05
3.66099e-07
8.48805e-05
3.56179e-07
8.49098e-05
3.44347e-07
8.49387e-05
3.30936e-07
8.49671e-05
3.16221e-07
8.49951e-05
3.00423e-07
8.50226e-05
2.83716e-07
8.50497e-05
2.66236e-07
8.50764e-05
2.48084e-07
8.51027e-05
2.29335e-07
8.51286e-05
2.10042e-07
8.5154e-05
1.90244e-07
8.51789e-05
1.69968e-07
8.52032e-05
1.4924e-07
8.52269e-05
1.2809e-07
8.52498e-05
1.06562e-07
8.52719e-05
8.472e-08
8.52929e-05
6.26584e-08
8.53127e-05
4.04992e-08
1.84297e-08
8.53312e-05
8.6925e-05
3.36928e-08
8.6934e-05
9.82763e-08
8.6949e-05
1.57367e-07
8.6969e-05
2.08407e-07
8.69924e-05
2.50293e-07
8.70186e-05
2.83625e-07
8.70466e-05
3.0919e-07
8.70759e-05
3.27677e-07
8.7106e-05
3.39941e-07
8.71365e-05
3.46894e-07
8.71671e-05
3.49333e-07
8.71977e-05
3.47943e-07
8.72281e-05
3.43328e-07
8.72582e-05
3.36019e-07
8.72879e-05
3.26464e-07
8.73172e-05
3.15041e-07
8.7346e-05
3.02065e-07
8.73745e-05
2.87799e-07
8.74024e-05
2.72453e-07
8.743e-05
2.56199e-07
8.7457e-05
2.39172e-07
8.74836e-05
2.21476e-07
8.75098e-05
2.03195e-07
8.75354e-05
1.8439e-07
8.75605e-05
1.65111e-07
8.75851e-05
1.45404e-07
8.7609e-05
1.25309e-07
8.76323e-05
1.04875e-07
8.76547e-05
8.41611e-08
8.76761e-05
6.32437e-08
8.76966e-05
4.22209e-08
8.77159e-05
2.12095e-08
3.75268e-10
8.77339e-05
8.94084e-05
3.07926e-08
8.94172e-05
8.95538e-08
8.94315e-05
1.43013e-07
8.94506e-05
1.89365e-07
8.94731e-05
2.27707e-07
8.94984e-05
2.58352e-07
8.95257e-05
2.81929e-07
8.95543e-05
2.99053e-07
8.95838e-05
3.10443e-07
8.96138e-05
3.16879e-07
8.96441e-05
3.19074e-07
8.96744e-05
3.17649e-07
8.97045e-05
3.13158e-07
8.97345e-05
3.06087e-07
8.97641e-05
2.96852e-07
8.97933e-05
2.85806e-07
8.98221e-05
2.73246e-07
8.98505e-05
2.5942e-07
8.98784e-05
2.44531e-07
8.99059e-05
2.28747e-07
8.99329e-05
2.122e-07
8.99593e-05
1.94999e-07
8.99853e-05
1.77231e-07
9.00107e-05
1.58967e-07
9.00356e-05
1.40268e-07
9.00598e-05
1.2119e-07
9.00833e-05
1.01788e-07
9.01061e-05
8.21212e-08
9.0128e-05
6.22596e-08
9.01489e-05
4.22851e-08
9.01688e-05
2.22951e-08
9.01876e-05
2.39881e-09
-1.7258e-08
9.02053e-05
9.19627e-05
2.79262e-08
9.19712e-05
8.10882e-08
9.19849e-05
1.29268e-07
9.20032e-05
1.71132e-07
9.20249e-05
2.05961e-07
9.20494e-05
2.33902e-07
9.20759e-05
2.55439e-07
9.21038e-05
2.71108e-07
9.21327e-05
2.81521e-07
9.21623e-05
2.87343e-07
9.21921e-05
2.89205e-07
9.22221e-05
2.87668e-07
9.2252e-05
2.83233e-07
9.22818e-05
2.76345e-07
9.23112e-05
2.67387e-07
9.23404e-05
2.56687e-07
9.23691e-05
2.44525e-07
9.23974e-05
2.31133e-07
9.24252e-05
2.16707e-07
9.24525e-05
2.01407e-07
9.24794e-05
1.85366e-07
9.25057e-05
1.68694e-07
9.25314e-05
1.51482e-07
9.25566e-05
1.33807e-07
9.25811e-05
1.15738e-07
9.2605e-05
9.73403e-08
9.26281e-05
7.86772e-08
9.26504e-05
5.98168e-08
9.26718e-05
4.08337e-08
9.26923e-05
2.18114e-08
9.27117e-05
2.84399e-09
9.27301e-05
-1.59687e-08
-3.44985e-08
9.27473e-05
9.459e-05
2.51261e-08
9.45982e-05
7.28946e-08
9.46113e-05
1.16076e-07
9.46288e-05
1.53632e-07
9.46498e-05
1.85e-07
9.46735e-05
2.10229e-07
9.46992e-05
2.29685e-07
9.47265e-05
2.43826e-07
9.47549e-05
2.53173e-07
9.47839e-05
2.58294e-07
9.48134e-05
2.59743e-07
9.4843e-05
2.58021e-07
9.48727e-05
2.53581e-07
9.49022e-05
2.46825e-07
9.49315e-05
2.38105e-07
9.49604e-05
2.27726e-07
9.4989e-05
2.15945e-07
9.50172e-05
2.02982e-07
9.50448e-05
1.89023e-07
9.5072e-05
1.74223e-07
9.50987e-05
1.58713e-07
9.51248e-05
1.42601e-07
9.51503e-05
1.25981e-07
9.51752e-05
1.08937e-07
9.51993e-05
9.15413e-08
9.52228e-05
7.38654e-08
9.52455e-05
5.59788e-08
9.52674e-05
3.79537e-08
9.52884e-05
1.98666e-08
9.53084e-05
1.79984e-09
9.53274e-05
-1.61581e-08
9.53453e-05
-3.39166e-08
-5.1363e-08
9.53622e-05
9.72922e-05
2.24071e-08
9.73002e-05
6.49757e-08
9.73128e-05
1.03388e-07
9.73297e-05
1.368e-07
9.73499e-05
1.64765e-07
9.73729e-05
1.87283e-07
9.73979e-05
2.04628e-07
9.74246e-05
2.17181e-07
9.74523e-05
2.25387e-07
9.74809e-05
2.29732e-07
9.751e-05
2.30696e-07
9.75392e-05
2.28724e-07
9.75686e-05
2.24223e-07
9.75979e-05
2.17554e-07
9.76269e-05
2.09038e-07
9.76557e-05
1.98954e-07
9.76841e-05
1.87541e-07
9.77121e-05
1.75004e-07
9.77396e-05
1.61519e-07
9.77666e-05
1.47233e-07
9.7793e-05
1.32275e-07
9.78189e-05
1.16751e-07
9.78441e-05
1.00758e-07
9.78687e-05
8.43799e-08
9.78925e-05
6.76939e-08
9.79156e-05
5.07742e-08
9.79379e-05
3.36934e-08
9.79593e-05
1.65251e-08
9.79798e-05
-6.54657e-10
9.79994e-05
-1.77668e-08
9.8018e-05
-3.47291e-08
9.80355e-05
-5.14602e-08
-6.78611e-08
9.8052e-05
0.000100072
1.97745e-08
0.000100079
5.73251e-08
0.000100092
9.11606e-08
0.000100108
1.20573e-07
0.000100127
1.45199e-07
0.00010015
1.65017e-07
0.000100174
1.80227e-07
0.0001002
1.91145e-07
0.000100227
1.98148e-07
0.000100255
2.0165e-07
0.000100284
2.02065e-07
0.000100313
1.99787e-07
0.000100342
1.95174e-07
0.000100371
1.88552e-07
0.0001004
1.80209e-07
0.000100428
1.704e-07
0.000100457
1.59343e-07
0.000100484
1.4723e-07
0.000100512
1.34225e-07
0.000100538
1.20468e-07
0.000100565
1.06082e-07
0.00010059
9.11729e-08
0.000100615
7.58354e-08
0.000100639
6.01542e-08
0.000100663
4.42083e-08
0.000100686
2.80727e-08
0.000100707
1.18206e-08
0.000100728
-4.47507e-09
0.000100749
-2.07405e-08
0.000100768
-3.69012e-08
0.000100786
-5.28817e-08
0.000100803
-6.86093e-08
-8.39969e-08
0.000100819
0.000102931
1.72274e-08
0.000102938
4.99304e-08
0.00010295
7.93557e-08
0.000102965
1.04895e-07
0.000102984
1.26247e-07
0.000103006
1.43378e-07
0.00010303
1.56438e-07
0.000103055
1.65683e-07
0.000103082
1.71431e-07
0.00010311
1.74033e-07
0.000103138
1.73846e-07
0.000103166
1.7121e-07
0.000103195
1.66442e-07
0.000103224
1.59831e-07
0.000103252
1.51635e-07
0.000103281
1.42083e-07
0.000103309
1.31374e-07
0.000103336
1.19684e-07
0.000103363
1.07166e-07
0.00010339
9.39517e-08
0.000103416
8.01576e-08
0.000103441
6.58864e-08
0.000103466
5.12303e-08
0.00010349
3.62731e-08
0.000103513
2.10931e-08
0.000103535
5.76438e-09
0.000103556
-9.64094e-09
0.000103577
-2.50522e-08
0.000103597
-4.03993e-08
0.000103615
-5.56129e-08
0.000103633
-7.06244e-08
0.00010365
-8.53693e-08
-9.97708e-08
0.000103666
0.000105871
1.47621e-08
0.000105878
4.27754e-08
0.00010589
6.79358e-08
0.000105905
8.97128e-08
0.000105923
1.07852e-07
0.000105944
1.22315e-07
0.000105968
1.33214e-07
0.000105993
1.40755e-07
0.000106019
1.45206e-07
0.000106046
1.46861e-07
0.000106074
1.46023e-07
0.000106102
1.42987e-07
0.00010613
1.38028e-07
0.000106159
1.31398e-07
0.000106187
1.23327e-07
0.000106215
1.14017e-07
0.000106243
1.03651e-07
0.00010627
9.23856e-08
0.000106297
8.03621e-08
0.000106323
6.77036e-08
0.000106349
5.45195e-08
0.000106374
4.09074e-08
0.000106398
2.69557e-08
0.000106422
1.27458e-08
0.000106444
-1.64654e-09
0.000106466
-1.61493e-08
0.000106487
-3.06933e-08
0.000106508
-4.52112e-08
0.000106527
-5.96376e-08
0.000106545
-7.39087e-08
0.000106562
-8.79625e-08
0.000106579
-1.01742e-07
-1.1518e-07
0.000106594
0.000108896
1.23731e-08
0.000108903
3.58414e-08
0.000108914
5.6865e-08
0.000108929
7.49769e-08
0.000108946
8.99585e-08
0.000108967
1.01773e-07
0.00010899
1.10504e-07
0.000109014
1.16318e-07
0.00010904
1.19436e-07
0.000109067
1.20104e-07
0.000109094
1.18577e-07
0.000109122
1.15104e-07
0.00010915
1.09923e-07
0.000109178
1.0325e-07
0.000109206
9.52864e-08
0.000109234
8.62102e-08
0.000109262
7.61822e-08
0.000109289
6.53448e-08
0.000109315
5.38251e-08
0.000109341
4.17362e-08
0.000109366
2.91793e-08
0.000109391
1.62459e-08
0.000109415
3.01957e-09
0.000109438
-1.04225e-08
0.000109461
-2.40081e-08
0.000109482
-3.76689e-08
0.000109503
-5.13394e-08
0.000109522
-6.49568e-08
0.000109541
-7.84607e-08
0.000109559
-9.17932e-08
0.000109576
-1.04899e-07
0.000109592
-1.17727e-07
-1.3022e-07
0.000109607
0.000112007
1.00542e-08
0.000112014
2.91091e-08
0.000112024
4.61084e-08
0.000112039
6.06385e-08
0.000112056
7.25112e-08
0.000112076
8.16938e-08
0.000112098
8.8252e-08
0.000112122
9.232e-08
0.000112148
9.40768e-08
0.000112174
9.37254e-08
0.000112201
9.14767e-08
0.000112229
8.75389e-08
0.000112257
8.21107e-08
0.000112285
7.53771e-08
0.000112312
6.75084e-08
0.00011234
5.86596e-08
0.000112367
4.89702e-08
0.000112394
3.85662e-08
0.00011242
2.75606e-08
0.000112446
1.60553e-08
0.000112471
4.1426e-09
0.000112495
-8.09331e-09
0.000112519
-2.0575e-08
0.000112542
-3.32305e-08
0.000112564
-4.59923e-08
0.000112585
-5.87968e-08
0.000112605
-7.15831e-08
0.000112624
-8.42936e-08
0.000112643
-9.68732e-08
0.00011266
-1.0927e-07
0.000112677
-1.21434e-07
0.000112692
-1.33323e-07
-1.44883e-07
0.000112707
0.000115207
7.79896e-09
0.000115213
2.25594e-08
0.000115224
3.56325e-08
0.000115238
4.66504e-08
0.000115255
5.54531e-08
0.000115274
6.20173e-08
0.000115296
6.63978e-08
0.00011532
6.87023e-08
0.000115345
6.90744e-08
0.000115371
6.76776e-08
0.000115398
6.46823e-08
0.000115425
6.02574e-08
0.000115453
5.45651e-08
0.00011548
4.7758e-08
0.000115508
3.99779e-08
0.000115535
3.13549e-08
0.000115562
2.20081e-08
0.000115589
1.20458e-08
0.000115615
1.56639e-09
0.00011564
-9.34006e-09
0.000115665
-2.05912e-08
0.000115689
-3.21112e-08
0.000115712
-4.38296e-08
0.000115734
-5.56808e-08
0.000115756
-6.7603e-08
0.000115777
-7.95377e-08
0.000115797
-9.14298e-08
0.000115816
-1.03227e-07
0.000115834
-1.14879e-07
0.000115851
-1.26341e-07
0.000115867
-1.37569e-07
0.000115882
-1.48525e-07
-1.59163e-07
0.000115896
0.000118498
5.6016e-09
0.000118504
1.61744e-08
0.000118515
2.54057e-08
0.000118528
3.29661e-08
0.000118545
3.87256e-08
0.000118564
4.26772e-08
0.000118586
4.48722e-08
0.000118609
4.53973e-08
0.000118634
4.43648e-08
0.00011866
4.19022e-08
0.000118686
3.81419e-08
0.000118713
3.3215e-08
0.000118741
2.72481e-08
0.000118768
2.03618e-08
0.000118795
1.26694e-08
0.000118822
4.27614e-09
0.000118849
-4.72016e-09
0.000118875
-1.42293e-08
0.000118901
-2.41677e-08
0.000118926
-3.44584e-08
0.000118951
-4.50297e-08
0.000118974
-5.58149e-08
0.000118997
-6.67515e-08
0.000119019
-7.77808e-08
0.000119041
-8.88475e-08
0.000119061
-9.98992e-08
0.000119081
-1.10887e-07
0.000119099
-1.21763e-07
0.000119117
-1.32484e-07
0.000119133
-1.4301e-07
0.000119149
-1.53304e-07
0.000119164
-1.63331e-07
-1.73052e-07
0.000119178
0.000121883
3.45752e-09
0.00012189
9.93996e-09
0.0001219
1.53996e-08
0.000121913
1.954e-08
0.00012193
2.2267e-08
0.000121949
2.36009e-08
0.00012197
2.35972e-08
0.000121993
2.23259e-08
0.000122017
1.98714e-08
0.000122043
1.63276e-08
0.000122069
1.17903e-08
0.000122096
6.35374e-09
0.000122123
1.09298e-10
0.000122151
-6.85474e-09
0.000122178
-1.44539e-08
0.000122205
-2.26078e-08
0.000122231
-3.12407e-08
0.000122257
-4.02808e-08
0.000122283
-4.96605e-08
0.000122308
-5.9316e-08
0.000122332
-6.91874e-08
0.000122355
-7.92176e-08
0.000122378
-8.93529e-08
0.000122399
-9.95422e-08
0.00012242
-1.09737e-07
0.00012244
-1.19892e-07
0.000122459
-1.29963e-07
0.000122478
-1.3991e-07
0.000122495
-1.49694e-07
0.000122511
-1.59281e-07
0.000122526
-1.68639e-07
0.000122541
-1.77738e-07
-1.86546e-07
0.000122554
0.000125366
1.36463e-09
0.000125372
3.84831e-09
0.000125381
5.59275e-09
0.000125395
6.32835e-09
0.000125411
6.01166e-09
0.00012543
4.70699e-09
0.000125451
2.4826e-09
0.000125474
-6.05266e-10
0.000125498
-4.49817e-09
0.000125524
-9.13414e-09
0.00012555
-1.44534e-08
0.000125577
-2.03994e-08
0.000125604
-2.69164e-08
0.000125631
-3.3949e-08
0.000125658
-4.14418e-08
0.000125685
-4.93405e-08
0.000125711
-5.75912e-08
0.000125737
-6.61417e-08
0.000125762
-7.49408e-08
0.000125787
-8.39386e-08
0.000125811
-9.30873e-08
0.000125834
-1.0234e-07
0.000125856
-1.11653e-07
0.000125877
-1.20983e-07
0.000125898
-1.30288e-07
0.000125918
-1.3953e-07
0.000125936
-1.48672e-07
0.000125954
-1.57679e-07
0.000125971
-1.66518e-07
0.000125987
-1.7516e-07
0.000126002
-1.83576e-07
0.000126016
-1.91745e-07
-1.99635e-07
0.000126029
0.000128947
-6.74269e-10
0.000128953
-2.09553e-09
0.000128963
-4.02515e-09
0.000128976
-6.70971e-09
0.000128992
-1.01125e-08
0.000129011
-1.40981e-08
0.000129032
-1.85777e-08
0.000129055
-2.35082e-08
0.000129079
-2.88559e-08
0.000129104
-3.45902e-08
0.000129131
-4.06889e-08
0.000129157
-4.71347e-08
0.000129184
-5.39096e-08
0.000129211
-6.09918e-08
0.000129238
-6.83565e-08
0.000129265
-7.59757e-08
0.000129291
-8.38189e-08
0.000129317
-9.18535e-08
0.000129342
-1.00045e-07
0.000129366
-1.08359e-07
0.00012939
-1.16759e-07
0.000129413
-1.2521e-07
0.000129435
-1.33677e-07
0.000129456
-1.42125e-07
0.000129476
-1.50521e-07
0.000129496
-1.58833e-07
0.000129514
-1.6703e-07
0.000129531
-1.75084e-07
0.000129548
-1.82967e-07
0.000129563
-1.90654e-07
0.000129578
-1.98124e-07
0.000129592
-2.05357e-07
-2.12329e-07
0.000129604
0.000132631
-2.6469e-09
0.000132637
-7.86225e-09
0.000132646
-1.3443e-08
0.000132659
-1.96096e-08
0.000132675
-2.61861e-08
0.000132694
-3.29247e-08
0.000132715
-3.97106e-08
0.000132738
-4.65176e-08
0.000132763
-5.33372e-08
0.000132788
-6.01715e-08
0.000132815
-6.70394e-08
0.000132841
-7.39665e-08
0.000132868
-8.09744e-08
0.000132896
-8.80772e-08
0.000132922
-9.52818e-08
0.000132949
-1.02588e-07
0.000132975
-1.0999e-07
0.000133001
-1.17474e-07
0.000133026
-1.25025e-07
0.00013305
-1.32622e-07
0.000133074
-1.40242e-07
0.000133096
-1.47862e-07
0.000133118
-1.55455e-07
0.000133139
-1.62997e-07
0.000133159
-1.70461e-07
0.000133178
-1.77822e-07
0.000133196
-1.85057e-07
0.000133213
-1.92141e-07
0.000133229
-1.99053e-07
0.000133244
-2.05773e-07
0.000133258
-2.12283e-07
0.000133272
-2.18566e-07
-2.24601e-07
0.000133284
0.00013642
-4.52198e-09
0.000136426
-1.33756e-08
0.000136435
-2.26121e-08
0.000136448
-3.23983e-08
0.000136464
-4.23025e-08
0.000136483
-5.19067e-08
0.000136504
-6.10744e-08
0.000136527
-6.98024e-08
0.000136552
-7.81074e-08
0.000136578
-8.60304e-08
0.000136605
-9.36409e-08
0.000136632
-1.01014e-07
0.000136659
-1.08216e-07
0.000136686
-1.15297e-07
0.000136713
-1.22299e-07
0.00013674
-1.29251e-07
0.000136766
-1.36169e-07
0.000136792
-1.43064e-07
0.000136816
-1.49935e-07
0.000136841
-1.56779e-07
0.000136864
-1.63585e-07
0.000136886
-1.70341e-07
0.000136908
-1.77031e-07
0.000136929
-1.83638e-07
0.000136948
-1.90144e-07
0.000136967
-1.96531e-07
0.000136985
-2.02781e-07
0.000137002
-2.08876e-07
0.000137017
-2.14801e-07
0.000137032
-2.2054e-07
0.000137046
-2.26079e-07
0.000137059
-2.3141e-07
-2.36516e-07
0.000137071
0.000140317
-6.22808e-09
0.000140323
-1.84653e-08
0.000140331
-3.1421e-08
0.000140344
-4.50974e-08
0.00014036
-5.85724e-08
0.00014038
-7.11997e-08
0.000140401
-8.28589e-08
0.000140425
-9.358e-08
0.00014045
-1.03398e-07
0.000140477
-1.12398e-07
0.000140504
-1.20714e-07
0.000140531
-1.28479e-07
0.000140559
-1.35811e-07
0.000140586
-1.42805e-07
0.000140614
-1.49538e-07
0.000140641
-1.5607e-07
0.000140667
-1.62445e-07
0.000140692
-1.68693e-07
0.000140717
-1.74833e-07
0.000140741
-1.80876e-07
0.000140765
-1.86824e-07
0.000140787
-1.92676e-07
0.000140808
-1.98426e-07
0.000140829
-2.04066e-07
0.000140848
-2.09584e-07
0.000140867
-2.1497e-07
0.000140884
-2.20211e-07
0.000140901
-2.25295e-07
0.000140916
-2.30211e-07
0.00014093
-2.34946e-07
0.000140944
-2.3949e-07
0.000140956
-2.43831e-07
-2.47955e-07
0.000140968
0.000144326
-7.60818e-09
0.00014433
-2.27666e-08
0.000144338
-3.96422e-08
0.000144351
-5.77368e-08
0.000144368
-7.51723e-08
0.000144388
-9.10218e-08
0.00014441
-1.05272e-07
0.000144434
-1.1802e-07
0.00014446
-1.29336e-07
0.000144487
-1.39376e-07
0.000144515
-1.4835e-07
0.000144543
-1.56457e-07
0.000144571
-1.63864e-07
0.000144599
-1.7071e-07
0.000144626
-1.77114e-07
0.000144654
-1.83167e-07
0.00014468
-1.8894e-07
0.000144706
-1.94484e-07
0.000144731
-1.99838e-07
0.000144755
-2.05027e-07
0.000144778
-2.10068e-07
0.000144801
-2.1497e-07
0.000144822
-2.19737e-07
0.000144842
-2.24369e-07
0.000144861
-2.28863e-07
0.00014488
-2.33214e-07
0.000144897
-2.37415e-07
0.000144913
-2.41461e-07
0.000144928
-2.45345e-07
0.000144942
-2.49061e-07
0.000144955
-2.52604e-07
0.000144968
-2.55974e-07
-2.59163e-07
0.000144979
0.000148449
-8.30372e-09
0.000148451
-2.5558e-08
0.000148459
-4.68534e-08
0.000148471
-7.02489e-08
0.000148488
-9.22761e-08
0.000148509
-1.1181e-07
0.000148533
-1.28967e-07
0.000148559
-1.43848e-07
0.000148586
-1.56591e-07
0.000148614
-1.67511e-07
0.000148643
-1.76956e-07
0.000148671
-1.85217e-07
0.0001487
-1.92525e-07
0.000148728
-1.99073e-07
0.000148756
-2.05019e-07
0.000148784
-2.10485e-07
0.00014881
-2.15565e-07
0.000148836
-2.20331e-07
0.000148861
-2.24836e-07
0.000148885
-2.29119e-07
0.000148908
-2.33208e-07
0.00014893
-2.37122e-07
0.000148952
-2.40873e-07
0.000148972
-2.44468e-07
0.000148991
-2.47912e-07
0.000149009
-2.51205e-07
0.000149026
-2.54346e-07
0.000149042
-2.57332e-07
0.000149056
-2.60161e-07
0.00014907
-2.62827e-07
0.000149083
-2.65323e-07
0.000149094
-2.67641e-07
-2.69771e-07
0.000149105
0.000152688
-7.30357e-09
0.000152688
-2.54033e-08
0.000152694
-5.28353e-08
0.000152706
-8.27146e-08
0.000152724
-1.09465e-07
0.000152745
-1.32793e-07
0.000152769
-1.53171e-07
0.000152795
-1.705e-07
0.000152824
-1.84899e-07
0.000152853
-1.96838e-07
0.000152883
-2.06812e-07
0.000152913
-2.15212e-07
0.000152943
-2.22355e-07
0.000152972
-2.28506e-07
0.000153001
-2.33879e-07
0.000153029
-2.38637e-07
0.000153057
-2.42905e-07
0.000153083
-2.46778e-07
0.000153108
-2.50329e-07
0.000153133
-2.53611e-07
0.000153156
-2.56663e-07
0.000153179
-2.59514e-07
0.0001532
-2.62184e-07
0.00015322
-2.64687e-07
0.000153239
-2.67032e-07
0.000153257
-2.69226e-07
0.000153274
-2.71272e-07
0.00015329
-2.73173e-07
0.000153305
-2.74931e-07
0.000153319
-2.76548e-07
0.000153331
-2.7803e-07
0.000153343
-2.79388e-07
-2.80617e-07
0.000153354
0.000157046
-2.13577e-09
0.000157039
-1.80146e-08
0.000157043
-5.71676e-08
0.000157058
-9.77634e-08
0.00015708
-1.30769e-07
0.000157105
-1.57943e-07
0.000157132
-1.80732e-07
0.000157161
-1.99389e-07
0.000157191
-2.14457e-07
0.000157221
-2.26706e-07
0.000157251
-2.36741e-07
0.00015728
-2.44995e-07
0.00015731
-2.51827e-07
0.000157339
-2.57534e-07
0.000157367
-2.62352e-07
0.000157395
-2.6646e-07
0.000157422
-2.69995e-07
0.000157449
-2.73065e-07
0.000157474
-2.75753e-07
0.000157498
-2.78122e-07
0.000157522
-2.80219e-07
0.000157545
-2.82081e-07
0.000157566
-2.83736e-07
0.000157587
-2.85203e-07
0.000157606
-2.865e-07
0.000157625
-2.87635e-07
0.000157642
-2.88619e-07
0.000157658
-2.89455e-07
0.000157673
-2.90147e-07
0.000157687
-2.90696e-07
0.000157701
-2.91096e-07
0.000157713
-2.91336e-07
-2.91417e-07
0.000157723
0.000161526
1.0287e-08
0.000161506
2.29972e-09
0.000161498
-4.99478e-08
0.000161503
-1.02514e-07
0.000161519
-1.46383e-07
0.000161544
-1.82839e-07
0.000161575
-2.11741e-07
0.000161609
-2.3359e-07
0.000161645
-2.5006e-07
0.000161681
-2.62714e-07
0.000161716
-2.72545e-07
0.000161752
-2.80221e-07
0.000161786
-2.86263e-07
0.00016182
-2.91068e-07
0.000161852
-2.94923e-07
0.000161884
-2.98034e-07
0.000161914
-3.00551e-07
0.000161944
-3.02589e-07
0.000161972
-3.04233e-07
0.000162
-3.05546e-07
0.000162026
-3.06578e-07
0.000162051
-3.07364e-07
0.000162076
-3.07934e-07
0.000162099
-3.0831e-07
0.000162121
-3.08509e-07
0.000162142
-3.08546e-07
0.000162161
-3.08432e-07
0.00016218
-3.08177e-07
0.000162198
-3.07792e-07
0.000162214
-3.07287e-07
0.00016223
-3.06676e-07
0.000162245
-3.05982e-07
-3.05201e-07
0.000162258
0.0001661
6.40817e-08
0.000166096
5.62372e-09
0.000166114
-6.72945e-08
0.00016613
-1.18993e-07
0.000166147
-1.62737e-07
0.000166166
-2.02007e-07
0.000166188
-2.34328e-07
0.000166214
-2.59497e-07
0.000166243
-2.79102e-07
0.000166275
-2.94505e-07
0.000166309
-3.06565e-07
0.000166345
-3.15943e-07
0.000166382
-3.23213e-07
0.00016642
-3.28821e-07
0.000166458
-3.33102e-07
0.000166496
-3.36311e-07
0.000166534
-3.38648e-07
0.000166572
-3.4027e-07