/*--------------------------------*- C++ -*----------------------------------*\
| =========                 |                                                 |
| \\      /  F ield         | OpenFOAM: The Open Source CFD Toolbox           |
|  \\    /   O peration     | Version:  4.1                                   |
|   \\  /    A nd           | Web:      www.OpenFOAM.org                      |
|    \\/     M anipulation  |                                                 |
\*---------------------------------------------------------------------------*/
FoamFile
{
    version     2.0;
    format      ascii;
    class       volVectorField;
    location    "400";
    object      U;
}
// * * * * * * * * * * * * * * * * * * * * * * * * * * * * * * * * * * * * * //

dimensions      [0 1 -1 0 0 0 0];

internalField   nonuniform List<vector> 
6820
(
(7.316 -0.463593 0)
(7.31112 -0.449228 0)
(7.26524 -0.315605 0)
(7.17901 -0.205425 0)
(7.0746 -0.128572 0)
(6.9648 -0.0771033 0)
(6.8544 -0.0428604 0)
(6.74604 -0.019975 0)
(6.64165 -0.00469271 0)
(6.54234 0.00538027 0)
(6.44859 0.0118372 0)
(6.36061 0.0157716 0)
(6.27844 0.0179449 0)
(6.20199 0.0188939 0)
(6.13109 0.0190006 0)
(6.06548 0.0185387 0)
(6.00489 0.0177042 0)
(5.94903 0.0166369 0)
(5.89759 0.0154357 0)
(5.85027 0.0141698 0)
(5.80678 0.0128864 0)
(5.76686 0.0116166 0)
(5.73024 0.01038 0)
(5.69671 0.00918695 0)
(5.66605 0.00804152 0)
(5.6381 0.00694199 0)
(5.6127 0.00588384 0)
(5.58971 0.00485225 0)
(5.56914 0.0038551 0)
(5.55058 0.00283426 0)
(5.53529 0.00183454 0)
(5.51806 0.00203058 0)
(5.51431 -0.00579047 0)
(7.3428 0.124512 0)
(7.36544 0.2109 0)
(7.37961 0.198761 0)
(7.39309 0.16575 0)
(7.41115 0.13635 0)
(7.43029 0.112976 0)
(7.44612 0.0949385 0)
(7.45691 0.0813148 0)
(7.46262 0.0710188 0)
(7.46358 0.0631078 0)
(7.46021 0.0569102 0)
(7.45298 0.0519644 0)
(7.44242 0.0479418 0)
(7.42905 0.0446047 0)
(7.41334 0.0417818 0)
(7.39573 0.0393492 0)
(7.37661 0.0372166 0)
(7.35633 0.0353172 0)
(7.33517 0.033601 0)
(7.3134 0.0320298 0)
(7.29125 0.030574 0)
(7.2689 0.0292096 0)
(7.24652 0.0279168 0)
(7.22424 0.0266779 0)
(7.2022 0.0254766 0)
(7.18047 0.0242958 0)
(7.15918 0.0231198 0)
(7.13837 0.0219213 0)
(7.11817 0.0207074 0)
(7.09856 0.019352 0)
(7.07998 0.0182336 0)
(7.06225 0.0161578 0)
(7.04825 0.0172264 0)
(7.32611 0.0048487 0)
(7.3195 -0.0105568 0)
(7.32606 -0.0225818 0)
(7.33745 -0.0194464 0)
(7.34972 -0.00944236 0)
(7.36205 0.000515912 0)
(7.37361 0.00882129 0)
(7.38404 0.0156172 0)
(7.39342 0.0210842 0)
(7.40181 0.0253617 0)
(7.4092 0.0286261 0)
(7.41557 0.0310582 0)
(7.42093 0.032812 0)
(7.42532 0.0340134 0)
(7.4288 0.0347674 0)
(7.4314 0.0351615 0)
(7.4332 0.0352681 0)
(7.43425 0.035146 0)
(7.43463 0.0348426 0)
(7.43441 0.0343956 0)
(7.43365 0.0338342 0)
(7.43242 0.0331804 0)
(7.43078 0.03245 0)
(7.4288 0.031653 0)
(7.42654 0.0307943 0)
(7.42405 0.0298725 0)
(7.42139 0.0288829 0)
(7.41863 0.0278082 0)
(7.41583 0.0266397 0)
(7.41305 0.0253094 0)
(7.41049 0.0238421 0)
(7.40808 0.0218532 0)
(7.40624 0.0193626 0)
(7.32909 -0.0052906 0)
(7.32382 0.0029904 0)
(7.32882 0.0147697 0)
(7.33556 0.0244176 0)
(7.34147 0.0307502 0)
(7.34759 0.0341972 0)
(7.35397 0.0359693 0)
(7.36023 0.0369621 0)
(7.36631 0.0375291 0)
(7.37221 0.037784 0)
(7.3779 0.0377983 0)
(7.3833 0.0376327 0)
(7.3884 0.03733 0)
(7.39318 0.03692 0)
(7.39764 0.0364252 0)
(7.40179 0.0358638 0)
(7.40563 0.0352506 0)
(7.40918 0.0345966 0)
(7.41245 0.0339097 0)
(7.41546 0.0331952 0)
(7.41824 0.0324557 0)
(7.42082 0.0316918 0)
(7.42321 0.0309011 0)
(7.42545 0.0300789 0)
(7.42756 0.0292177 0)
(7.42956 0.0283057 0)
(7.43149 0.0273279 0)
(7.43338 0.0262591 0)
(7.43526 0.0250744 0)
(7.43717 0.0237007 0)
(7.43916 0.0221058 0)
(7.44115 0.0199699 0)
(7.44321 0.0173659 0)
(7.3315 -0.00137225 0)
(7.32877 0.00833381 0)
(7.33145 0.0159151 0)
(7.33547 0.0198337 0)
(7.33934 0.0227647 0)
(7.34375 0.0252325 0)
(7.34857 0.0271994 0)
(7.3534 0.0287953 0)
(7.35813 0.0301002 0)
(7.36279 0.0311229 0)
(7.36738 0.0318786 0)
(7.37183 0.0323994 0)
(7.37614 0.0327175 0)
(7.3803 0.0328598 0)
(7.3843 0.0328503 0)
(7.38814 0.0327108 0)
(7.39183 0.0324608 0)
(7.39536 0.0321162 0)
(7.39876 0.0316903 0)
(7.40203 0.0311931 0)
(7.40518 0.0306318 0)
(7.40823 0.0300107 0)
(7.41119 0.0293309 0)
(7.41408 0.0285905 0)
(7.41692 0.0277841 0)
(7.41972 0.0269017 0)
(7.42251 0.0259288 0)
(7.42528 0.0248422 0)
(7.42808 0.0236128 0)
(7.43089 0.0221829 0)
(7.43374 0.0205014 0)
(7.43656 0.0184041 0)
(7.43928 0.0159262 0)
(7.33229 0.000733189 0)
(7.33091 0.00775913 0)
(7.33278 0.0134442 0)
(7.33607 0.017192 0)
(7.33943 0.0206252 0)
(7.34313 0.0236309 0)
(7.34713 0.0259306 0)
(7.35116 0.0276674 0)
(7.35514 0.0290065 0)
(7.35909 0.0300125 0)
(7.363 0.0307252 0)
(7.36685 0.0311893 0)
(7.37062 0.0314451 0)
(7.37429 0.031525 0)
(7.37787 0.0314557 0)
(7.38135 0.0312606 0)
(7.38473 0.0309591 0)
(7.38803 0.0305672 0)
(7.39124 0.0300975 0)
(7.39437 0.029559 0)
(7.39744 0.0289577 0)
(7.40045 0.0282968 0)
(7.40342 0.0275763 0)
(7.40635 0.0267927 0)
(7.40926 0.0259395 0)
(7.41215 0.0250058 0)
(7.41505 0.023976 0)
(7.41795 0.0228274 0)
(7.42086 0.0215308 0)
(7.42378 0.0200407 0)
(7.42669 0.0183117 0)
(7.42954 0.0162542 0)
(7.43224 0.0138742 0)
(7.3326 0.00133008 0)
(7.33197 0.00685627 0)
(7.33361 0.0121645 0)
(7.33658 0.0161353 0)
(7.33969 0.0195051 0)
(7.34299 0.0223124 0)
(7.34652 0.0244501 0)
(7.35012 0.0260684 0)
(7.35369 0.0273194 0)
(7.35724 0.0282639 0)
(7.36076 0.028937 0)
(7.36424 0.0293778 0)
(7.36766 0.0296228 0)
(7.37101 0.0297008 0)
(7.37429 0.029636 0)
(7.3775 0.029449 0)
(7.38064 0.0291572 0)
(7.38372 0.0287746 0)
(7.38674 0.028312 0)
(7.38971 0.0277772 0)
(7.39263 0.0271752 0)
(7.39551 0.0265081 0)
(7.39837 0.0257752 0)
(7.4012 0.0249727 0)
(7.40403 0.0240936 0)
(7.40685 0.0231272 0)
(7.40967 0.0220585 0)
(7.41249 0.0208674 0)
(7.41531 0.0195281 0)
(7.41812 0.0180065 0)
(7.4209 0.0162682 0)
(7.42359 0.0142653 0)
(7.42612 0.0120047 0)
(7.3328 0.00159486 0)
(7.33264 0.00641848 0)
(7.33413 0.0113097 0)
(7.33679 0.0151145 0)
(7.33969 0.0182309 0)
(7.34276 0.0208407 0)
(7.34603 0.0228954 0)
(7.34938 0.0244783 0)
(7.35271 0.0257038 0)
(7.35602 0.0266302 0)
(7.35931 0.0272926 0)
(7.36256 0.027728 0)
(7.36575 0.0279703 0)
(7.36889 0.0280474 0)
(7.37197 0.0279821 0)
(7.37499 0.0277939 0)
(7.37795 0.0274991 0)
(7.38086 0.0271108 0)
(7.38372 0.0266393 0)
(7.38654 0.0260916 0)
(7.38933 0.0254724 0)
(7.39209 0.0247834 0)
(7.39482 0.0240237 0)
(7.39754 0.0231895 0)
(7.40024 0.0222742 0)
(7.40295 0.0212679 0)
(7.40564 0.0201571 0)
(7.40833 0.0189248 0)
(7.41101 0.0175501 0)
(7.41366 0.0160083 0)
(7.41625 0.0142766 0)
(7.41875 0.0123308 0)
(7.42109 0.010182 0)
(7.33292 0.00172117 0)
(7.33306 0.00605189 0)
(7.33442 0.0104459 0)
(7.3368 0.0140144 0)
(7.33951 0.0169481 0)
(7.3424 0.0194251 0)
(7.34548 0.0214149 0)
(7.34865 0.0229611 0)
(7.35182 0.0241558 0)
(7.35497 0.0250579 0)
(7.3581 0.0257036 0)
(7.3612 0.0261274 0)
(7.36424 0.0263612 0)
(7.36723 0.0264316 0)
(7.37017 0.0263606 0)
(7.37306 0.0261664 0)
(7.3759 0.0258646 0)
(7.37868 0.0254675 0)
(7.38143 0.0249846 0)
(7.38413 0.0244225 0)
(7.38681 0.0237853 0)
(7.38945 0.0230747 0)
(7.39208 0.0222896 0)
(7.39468 0.0214266 0)
(7.39728 0.0204796 0)
(7.39986 0.0194398 0)
(7.40242 0.018296 0)
(7.40498 0.0170343 0)
(7.4075 0.0156389 0)
(7.40998 0.014093 0)
(7.4124 0.0123827 0)
(7.41471 0.010498 0)
(7.41688 0.00845217 0)
(7.33299 0.00174119 0)
(7.33329 0.005672 0)
(7.33456 0.00962134 0)
(7.3367 0.0129613 0)
(7.33922 0.0157348 0)
(7.34195 0.0180768 0)
(7.34486 0.0199808 0)
(7.34787 0.0214749 0)
(7.3509 0.0226318 0)
(7.35393 0.0235062 0)
(7.35694 0.0241331 0)
(7.35992 0.024544 0)
(7.36285 0.0247687 0)
(7.36574 0.0248322 0)
(7.36858 0.0247551 0)
(7.37137 0.0245548 0)
(7.37411 0.0242459 0)
(7.3768 0.02384 0)
(7.37946 0.0233459 0)
(7.38207 0.0227698 0)
(7.38466 0.0221156 0)
(7.38721 0.0213849 0)
(7.38974 0.0205767 0)
(7.39225 0.0196882 0)
(7.39474 0.0187141 0)
(7.39721 0.0176472 0)
(7.39965 0.0164785 0)
(7.40207 0.0151973 0)
(7.40445 0.0137925 0)
(7.40678 0.0122534 0)
(7.40903 0.0105731 0)
(7.41118 0.00874926 0)
(7.4132 0.00679637 0)
(7.33302 0.00169422 0)
(7.33342 0.00529019 0)
(7.33461 0.00885756 0)
(7.33655 0.0119633 0)
(7.33889 0.0145704 0)
(7.34145 0.0167721 0)
(7.3442 0.0185797 0)
(7.34705 0.020013 0)
(7.34996 0.0211269 0)
(7.35287 0.0219697 0)
(7.35577 0.0225743 0)
(7.35865 0.0229697 0)
(7.36149 0.0231832 0)
(7.36429 0.0232381 0)
(7.36705 0.0231539 0)
(7.36976 0.0229467 0)
(7.37242 0.0226304 0)
(7.37504 0.0222156 0)
(7.37762 0.0217107 0)
(7.38016 0.0211217 0)
(7.38267 0.0204522 0)
(7.38514 0.0197039 0)
(7.38759 0.0188762 0)
(7.39001 0.0179667 0)
(7.39241 0.0169714 0)
(7.39477 0.0158847 0)
(7.39711 0.0146996 0)
(7.39941 0.0134087 0)
(7.40166 0.0120046 0)
(7.40385 0.0104816 0)
(7.40596 0.0088372 0)
(7.40796 0.0070738 0)
(7.40985 0.0052057 0)
(7.33304 0.00161039 0)
(7.33348 0.00491124 0)
(7.3346 0.00814346 0)
(7.33637 0.0110121 0)
(7.33854 0.0134488 0)
(7.34094 0.0155106 0)
(7.34353 0.0172159 0)
(7.34624 0.01858 0)
(7.34901 0.0196441 0)
(7.35181 0.0204494 0)
(7.3546 0.0210267 0)
(7.35738 0.0214025 0)
(7.36014 0.0216016 0)
(7.36286 0.0216454 0)
(7.36554 0.021552 0)
(7.36817 0.0213368 0)
(7.37077 0.0210122 0)
(7.37332 0.0205885 0)
(7.37583 0.0200736 0)
(7.37831 0.019473 0)
(7.38074 0.0187903 0)
(7.38315 0.0180273 0)
(7.38552 0.017184 0)
(7.38786 0.0162586 0)
(7.39017 0.0152482 0)
(7.39244 0.0141487 0)
(7.39467 0.0129553 0)
(7.39686 0.0116633 0)
(7.399 0.0102684 0)
(7.40106 0.00876828 0)
(7.40304 0.00716376 0)
(7.40493 0.00545958 0)
(7.4067 0.00366938 0)
(7.33304 0.00150742 0)
(7.3335 0.0045366 0)
(7.33455 0.00746968 0)
(7.33618 0.0101057 0)
(7.33819 0.0123703 0)
(7.34045 0.0142925 0)
(7.34288 0.0158905 0)
(7.34545 0.0171777 0)
(7.34809 0.0181851 0)
(7.35077 0.0189472 0)
(7.35346 0.0194921 0)
(7.35614 0.0198439 0)
(7.35881 0.0200247 0)
(7.36144 0.0200544 0)
(7.36405 0.0199497 0)
(7.36661 0.0197246 0)
(7.36914 0.0193909 0)
(7.37162 0.018958 0)
(7.37407 0.0184334 0)
(7.37648 0.0178224 0)
(7.37885 0.0171286 0)
(7.38118 0.0163539 0)
(7.38348 0.0154987 0)
(7.38574 0.0145622 0)
(7.38797 0.0135423 0)
(7.39015 0.0124367 0)
(7.39229 0.0112422 0)
(7.39438 0.0099563 0)
(7.3964 0.00857731 0)
(7.39836 0.0071053 0)
(7.40023 0.00554312 0)
(7.402 0.00389671 0)
(7.40367 0.00217871 0)
(7.33305 0.00139549 0)
(7.3335 0.00416849 0)
(7.33449 0.00683046 0)
(7.33599 0.0092418 0)
(7.33786 0.0113338 0)
(7.33997 0.0131159 0)
(7.34227 0.014603 0)
(7.3447 0.015807 0)
(7.34721 0.0167516 0)
(7.34977 0.0174652 0)
(7.35236 0.0179728 0)
(7.35494 0.0182961 0)
(7.35752 0.0184551 0)
(7.36007 0.0184676 0)
(7.36259 0.018349 0)
(7.36508 0.0181122 0)
(7.36754 0.0177682 0)
(7.36995 0.0173258 0)
(7.37233 0.0167919 0)
(7.37467 0.0161716 0)
(7.37698 0.0154685 0)
(7.37924 0.0146849 0)
(7.38147 0.0138214 0)
(7.38365 0.0128781 0)
(7.3858 0.011854 0)
(7.38789 0.0107479 0)
(7.38994 0.00955837 0)
(7.39193 0.00828461 0)
(7.39386 0.00692674 0)
(7.39571 0.00548656 0)
(7.39748 0.00396813 0)
(7.39916 0.00237784 0)
(7.40074 0.000727252 0)
(7.33305 0.0012805 0)
(7.33348 0.00380906 0)
(7.33441 0.00622141 0)
(7.3358 0.0084171 0)
(7.33754 0.010337 0)
(7.33952 0.0119787 0)
(7.34169 0.0133523 0)
(7.34399 0.0144683 0)
(7.34638 0.0153448 0)
(7.34883 0.016005 0)
(7.35131 0.0164709 0)
(7.35379 0.0167617 0)
(7.35628 0.0168952 0)
(7.35874 0.0168875 0)
(7.36119 0.0167526 0)
(7.3636 0.0165025 0)
(7.36598 0.0161471 0)
(7.36833 0.0156947 0)
(7.37064 0.0151517 0)
(7.37291 0.0145232 0)
(7.37514 0.0138127 0)
(7.37733 0.0130225 0)
(7.37949 0.0121542 0)
(7.38159 0.0112081 0)
(7.38366 0.0101843 0)
(7.38567 0.00908271 0)
(7.38763 0.00790322 0)
(7.38953 0.00664635 0)
(7.39136 0.00531359 0)
(7.39312 0.00390782 0)
(7.3948 0.00243378 0)
(7.39639 0.000897902 0)
(7.39789 -0.000689378 0)
(7.33304 0.0011658 0)
(7.33346 0.00345981 0)
(7.33433 0.0056391 0)
(7.33563 0.00762816 0)
(7.33724 0.00937781 0)
(7.3391 0.0108789 0)
(7.34114 0.0121373 0)
(7.34332 0.0131612 0)
(7.3456 0.0139651 0)
(7.34794 0.0145677 0)
(7.35031 0.0149877 0)
(7.3527 0.0152422 0)
(7.35509 0.015347 0)
(7.35748 0.0153164 0)
(7.35984 0.0151631 0)
(7.36217 0.014898 0)
(7.36448 0.0145303 0)
(7.36676 0.0140676 0)
(7.36899 0.0135159 0)
(7.37119 0.0128802 0)
(7.37335 0.0121639 0)
(7.37547 0.0113698 0)
(7.37755 0.0104995 0)
(7.37958 0.0095542 0)
(7.38156 0.00853478 0)
(7.38349 0.00744195 0)
(7.38537 0.00627668 0)
(7.38718 0.0050405 0)
(7.38892 0.00373582 0)
(7.3906 0.00236622 0)
(7.39219 0.000936713 0)
(7.3937 -0.000546482 0)
(7.39512 -0.00207396 0)
(7.33304 0.0010532 0)
(7.33343 0.00312153 0)
(7.33425 0.00508085 0)
(7.33546 0.00687175 0)
(7.33697 0.00845375 0)
(7.33871 0.00981462 0)
(7.34064 0.0109563 0)
(7.34271 0.0118853 0)
(7.34487 0.0126128 0)
(7.3471 0.0131539 0)
(7.34938 0.0135243 0)
(7.35167 0.0137392 0)
(7.35397 0.0138122 0)
(7.35627 0.0137562 0)
(7.35855 0.0135826 0)
(7.36081 0.0133012 0)
(7.36304 0.0129203 0)
(7.36524 0.0124471 0)
(7.36741 0.0118872 0)
(7.36954 0.0112453 0)
(7.37162 0.010525 0)
(7.37367 0.00972911 0)
(7.37567 0.0088597 0)
(7.37762 0.00791849 0)
(7.37953 0.00690692 0)
(7.38137 0.00582646 0)
(7.38317 0.00467885 0)
(7.38489 0.00346637 0)
(7.38656 0.00219202 0)
(7.38815 0.000859755 0)
(7.38966 -0.000525385 0)
(7.39109 -0.00195752 0)
(7.39244 -0.0034282 0)
(7.33304 0.000943572 0)
(7.33341 0.00279451 0)
(7.33418 0.00454448 0)
(7.33531 0.00614493 0)
(7.33672 0.00756238 0)
(7.33836 0.00878361 0)
(7.34018 0.00980778 0)
(7.34213 0.0106395 0)
(7.34419 0.0112874 0)
(7.34632 0.0117636 0)
(7.3485 0.0120813 0)
(7.3507 0.0122535 0)
(7.35292 0.0122922 0)
(7.35513 0.0122086 0)
(7.35733 0.0120129 0)
(7.35951 0.011714 0)
(7.36167 0.0113193 0)
(7.36379 0.0108356 0)
(7.36589 0.010268 0)
(7.36794 0.00962104 0)
(7.36995 0.00889835 0)
(7.37193 0.00810283 0)
(7.37385 0.00723688 0)
(7.37573 0.00630261 0)
(7.37755 0.00530195 0)
(7.37932 0.00423693 0)
(7.38104 0.00310985 0)
(7.38268 0.00192346 0)
(7.38427 0.000681135 0)
(7.38578 -0.000613032 0)
(7.38722 -0.00195412 0)
(7.38858 -0.00333666 0)
(7.38986 -0.00475308 0)
(7.33304 0.000837301 0)
(7.33338 0.0024786 0)
(7.33411 0.00402813 0)
(7.33516 0.00544498 0)
(7.33649 0.00670119 0)
(7.33803 0.00778373 0)
(7.33975 0.00868986 0)
(7.34161 0.00942244 0)
(7.34357 0.00998818 0)
(7.3456 0.0103967 0)
(7.34768 0.0106589 0)
(7.3498 0.0107858 0)
(7.35192 0.0107878 0)
(7.35405 0.0106747 0)
(7.35617 0.0104555 0)
(7.35828 0.010138 0)
(7.36036 0.00972921 0)
(7.36241 0.00923495 0)
(7.36443 0.00866027 0)
(7.36641 0.00800941 0)
(7.36835 0.00728591 0)
(7.37025 0.00649278 0)
(7.3721 0.00563264 0)
(7.37391 0.00470788 0)
(7.37565 0.00372082 0)
(7.37735 0.00267387 0)
(7.37898 0.00156969 0)
(7.38055 0.000411322 0)
(7.38206 -0.000797681 0)
(7.3835 -0.00205323 0)
(7.38487 -0.00335063 0)
(7.38616 -0.00468485 0)
(7.38738 -0.00604911 0)
(7.33304 0.000734455 0)
(7.33336 0.0021734 0)
(7.33404 0.0035301 0)
(7.33503 0.00476944 0)
(7.33628 0.00586774 0)
(7.33773 0.00681276 0)
(7.33936 0.00760063 0)
(7.34112 0.0082328 0)
(7.34299 0.0087143 0)
(7.34493 0.00905272 0)
(7.34692 0.00925698 0)
(7.34895 0.00933628 0)
(7.35099 0.00929959 0)
(7.35304 0.00915537 0)
(7.35509 0.00891141 0)
(7.35712 0.00857469 0)
(7.35912 0.00815138 0)
(7.3611 0.00764686 0)
(7.36305 0.00706576 0)
(7.36496 0.00641209 0)
(7.36683 0.0056893 0)
(7.36865 0.00490045 0)
(7.37043 0.00404826 0)
(7.37216 0.00313533 0)
(7.37383 0.00216422 0)
(7.37545 0.00113758 0)
(7.37701 5.8285e-05 0)
(7.37851 -0.00107047 0)
(7.37995 -0.00224511 0)
(7.38131 -0.00346165 0)
(7.38261 -0.0047157 0)
(7.38384 -0.00600265 0)
(7.385 -0.00731644 0)
(7.33303 0.000634937 0)
(7.33334 0.00187827 0)
(7.33398 0.0030488 0)
(7.33491 0.00411599 0)
(7.33609 0.00505959 0)
(7.33746 0.00586841 0)
(7.339 0.00653804 0)
(7.34068 0.00706883 0)
(7.34245 0.00746444 0)
(7.34431 0.00773079 0)
(7.34622 0.00787507 0)
(7.34816 0.0079049 0)
(7.35013 0.00782784 0)
(7.3521 0.00765111 0)
(7.35407 0.00738143 0)
(7.35602 0.00702491 0)
(7.35796 0.00658699 0)
(7.35986 0.00607251 0)
(7.36174 0.00548572 0)
(7.36358 0.00483037 0)
(7.36537 0.00410979 0)
(7.36713 0.00332697 0)
(7.36884 0.0024847 0)
(7.37049 0.00158569 0)
(7.3721 0.000632596 0)
(7.37364 -0.00037178 0)
(7.37513 -0.00142447 0)
(7.37656 -0.00252228 0)
(7.37792 -0.00366168 0)
(7.37923 -0.0048389 0)
(7.38046 -0.00604984 0)
(7.38163 -0.00729034 0)
(7.38273 -0.00855497 0)
(7.33303 0.000538558 0)
(7.33332 0.00159251 0)
(7.33392 0.00258271 0)
(7.3348 0.00348248 0)
(7.33591 0.00427434 0)
(7.33721 0.00494832 0)
(7.33867 0.00549987 0)
(7.34027 0.00592859 0)
(7.34197 0.00623702 0)
(7.34374 0.0064297 0)
(7.34557 0.00651234 0)
(7.34744 0.00649114 0)
(7.34932 0.00637235 0)
(7.35122 0.00616205 0)
(7.35312 0.00586592 0)
(7.355 0.00548924 0)
(7.35686 0.00503676 0)
(7.3587 0.00451276 0)
(7.3605 0.0039211 0)
(7.36227 0.00326521 0)
(7.364 0.00254826 0)
(7.36569 0.00177314 0)
(7.36732 0.000942628 0)
(7.36891 5.94105e-05 0)
(7.37044 -0.00087379 0)
(7.37192 -0.00185417 0)
(7.37334 -0.00287876 0)
(7.3747 -0.00394443 0)
(7.376 -0.00504782 0)
(7.37724 -0.00618537 0)
(7.37841 -0.00735332 0)
(7.37952 -0.00854794 0)
(7.38057 -0.00976434 0)
(7.33303 0.000445083 0)
(7.3333 0.00131533 0)
(7.33387 0.00213037 0)
(7.3347 0.00286681 0)
(7.33575 0.0035096 0)
(7.33699 0.00405002 0)
(7.33838 0.00448374 0)
(7.3399 0.00480988 0)
(7.34152 0.00503012 0)
(7.34322 0.00514786 0)
(7.34497 0.00516753 0)
(7.34677 0.00509405 0)
(7.34858 0.0049325 0)
(7.35041 0.00468783 0)
(7.35223 0.0043648 0)
(7.35405 0.00396784 0)
(7.35584 0.00350101 0)
(7.35761 0.00296806 0)
(7.35935 0.0023724 0)
(7.36105 0.00171716 0)
(7.36271 0.00100525 0)
(7.36433 0.00023944 0)
(7.3659 -0.000577619 0)
(7.36742 -0.00144329 0)
(7.36889 -0.0023549 0)
(7.3703 -0.00330971 0)
(7.37165 -0.00430484 0)
(7.37295 -0.0053373 0)
(7.37419 -0.00640392 0)
(7.37536 -0.00750141 0)
(7.37648 -0.00862636 0)
(7.37753 -0.0097754 0)
(7.37852 -0.0109442 0)
(7.33303 0.000354262 0)
(7.33329 0.00104594 0)
(7.33382 0.00169034 0)
(7.33461 0.00226696 0)
(7.33561 0.00276294 0)
(7.33678 0.00317089 0)
(7.33811 0.003487 0)
(7.33956 0.00371017 0)
(7.34112 0.00384143 0)
(7.34275 0.00388323 0)
(7.34443 0.00383891 0)
(7.34616 0.00371224 0)
(7.3479 0.00350717 0)
(7.34966 0.00322766 0)
(7.35142 0.00287752 0)
(7.35317 0.00246037 0)
(7.3549 0.00197961 0)
(7.3566 0.00143842 0)
(7.35827 0.000839747 0)
(7.35991 0.000186373 0)
(7.36151 -0.000519058 0)
(7.36306 -0.001274 0)
(7.36457 -0.00207595 0)
(7.36602 -0.0029224 0)
(7.36742 -0.0038108 0)
(7.36877 -0.00473854 0)
(7.37007 -0.0057029 0)
(7.3713 -0.00670107 0)
(7.37248 -0.00773011 0)
(7.37359 -0.00878702 0)
(7.37465 -0.00986872 0)
(7.37565 -0.0109722 0)
(7.37659 -0.0120936 0)
(7.33303 0.000265853 0)
(7.33327 0.00078357 0)
(7.33378 0.00126126 0)
(7.33453 0.00168094 0)
(7.33548 0.00203185 0)
(7.3366 0.00230815 0)
(7.33787 0.00250674 0)
(7.33926 0.00262658 0)
(7.34075 0.0026682 0)
(7.34232 0.00263329 0)
(7.34394 0.00252423 0)
(7.3456 0.00234375 0)
(7.34729 0.00209475 0)
(7.34899 0.00178019 0)
(7.35068 0.00140301 0)
(7.35237 0.000966016 0)
(7.35403 0.000471933 0)
(7.35567 -7.66501e-05 0)
(7.35728 -0.000677252 0)
(7.35886 -0.00132748 0)
(7.36039 -0.00202501 0)
(7.36188 -0.00276756 0)
(7.36333 -0.00355282 0)
(7.36472 -0.00437848 0)
(7.36606 -0.00524217 0)
(7.36735 -0.00614146 0)
(7.36859 -0.00707383 0)
(7.36976 -0.00803667 0)
(7.37088 -0.00902734 0)
(7.37194 -0.0100431 0)
(7.37294 -0.0110812 0)
(7.37389 -0.012139 0)
(7.37478 -0.013213 0)
(7.33303 0.000179647 0)
(7.33326 0.000527558 0)
(7.33374 0.000841866 0)
(7.33445 0.00110679 0)
(7.33536 0.00131375 0)
(7.33643 0.00145873 0)
(7.33765 0.00153967 0)
(7.33899 0.00155572 0)
(7.34043 0.00150712 0)
(7.34194 0.00139492 0)
(7.34351 0.00122063 0)
(7.34511 0.000986006 0)
(7.34674 0.000692951 0)
(7.34838 0.000343469 0)
(7.35001 -6.03995e-05 0)
(7.35164 -0.000516616 0)
(7.35325 -0.00102316 0)
(7.35483 -0.00157803 0)
(7.35638 -0.00217925 0)
(7.3579 -0.00282485 0)
(7.35937 -0.00351286 0)
(7.36081 -0.00424129 0)
(7.36219 -0.00500811 0)
(7.36353 -0.00581124 0)
(7.36481 -0.00664853 0)
(7.36604 -0.00751778 0)
(7.36722 -0.00841669 0)
(7.36834 -0.00934293 0)
(7.3694 -0.0102941 0)
(7.37041 -0.0112678 0)
(7.37136 -0.0122615 0)
(7.37225 -0.013273 0)
(7.37309 -0.0142992 0)
(7.33302 9.5512e-05 0)
(7.33325 0.000277422 0)
(7.3337 0.00043107 0)
(7.33438 0.00054257 0)
(7.33525 0.000605862 0)
(7.33629 0.000619247 0)
(7.33746 0.000581995 0)
(7.33875 0.000493638 0)
(7.34014 0.000354232 0)
(7.3416 0.000164298 0)
(7.34312 -7.54556e-05 0)
(7.34467 -0.000364235 0)
(7.34625 -0.000701137 0)
(7.34784 -0.00108513 0)
(7.34942 -0.00151508 0)
(7.35099 -0.00198975 0)
(7.35255 -0.00250782 0)
(7.35408 -0.00306792 0)
(7.35557 -0.00366859 0)
(7.35703 -0.00430831 0)
(7.35846 -0.00498548 0)
(7.35983 -0.00569845 0)
(7.36116 -0.00644548 0)
(7.36244 -0.00722476 0)
(7.36367 -0.00803439 0)
(7.36485 -0.00887242 0)
(7.36597 -0.00973682 0)
(7.36704 -0.0106255 0)
(7.36805 -0.0115364 0)
(7.369 -0.0124673 0)
(7.36991 -0.0134161 0)
(7.37075 -0.0143807 0)
(7.37155 -0.0153585 0)
(7.33302 1.34603e-05 0)
(7.33323 3.30468e-05 0)
(7.33367 2.8133e-05 0)
(7.33432 -1.35429e-05 0)
(7.33515 -9.47807e-05 0)
(7.33615 -0.000214139 0)
(7.33729 -0.000370657 0)
(7.33854 -0.000564334 0)
(7.33989 -0.000795226 0)
(7.34131 -0.00106328 0)
(7.34279 -0.00136854 0)
(7.3443 -0.00171117 0)
(7.34583 -0.00209124 0)
(7.34737 -0.00250871 0)
(7.34891 -0.00296333 0)
(7.35043 -0.00345472 0)
(7.35194 -0.00398232 0)
(7.35341 -0.00454542 0)
(7.35486 -0.00514312 0)
(7.35627 -0.00577442 0)
(7.35764 -0.00643815 0)
(7.35896 -0.00713303 0)
(7.36024 -0.00785767 0)
(7.36147 -0.00861056 0)
(7.36265 -0.0093901 0)
(7.36377 -0.0101946 0)
(7.36484 -0.0110224 0)
(7.36586 -0.0118715 0)
(7.36682 -0.0127403 0)
(7.36773 -0.0136267 0)
(7.36859 -0.0145291 0)
(7.36939 -0.0154456 0)
(7.37013 -0.0163739 0)
(7.33302 -6.62116e-05 0)
(7.33322 -0.000205001 0)
(7.33363 -0.000367081 0)
(7.33425 -0.00056323 0)
(7.33506 -0.000791469 0)
(7.33603 -0.00104593 0)
(7.33714 -0.00132358 0)
(7.33836 -0.00162387 0)
(7.33968 -0.00194691 0)
(7.34107 -0.0022932 0)
(7.34251 -0.00266381 0)
(7.34398 -0.00306007 0)
(7.34548 -0.00348319 0)
(7.34698 -0.00393412 0)
(7.34847 -0.00441355 0)
(7.34996 -0.0049219 0)
(7.35142 -0.0054593 0)
(7.35285 -0.00602565 0)
(7.35425 -0.00662059 0)
(7.35561 -0.00724358 0)
(7.35693 -0.00789387 0)
(7.35821 -0.00857055 0)
(7.35944 -0.00927256 0)
(7.36062 -0.00999873 0)
(7.36175 -0.0107478 0)
(7.36282 -0.0115183 0)
(7.36385 -0.0123088 0)
(7.36482 -0.0131178 0)
(7.36573 -0.0139437 0)
(7.3666 -0.014785 0)
(7.36741 -0.01564 0)
(7.36816 -0.0165073 0)
(7.36887 -0.0173847 0)
(7.33302 -0.000142646 0)
(7.3332 -0.000434839 0)
(7.33359 -0.000753656 0)
(7.33418 -0.00110796 0)
(7.33496 -0.00148784 0)
(7.33591 -0.00188124 0)
(7.337 -0.00228311 0)
(7.33821 -0.0026924 0)
(7.3395 -0.00310879 0)
(7.34087 -0.00353288 0)
(7.34228 -0.00396659 0)
(7.34373 -0.00441256 0)
(7.34519 -0.0048734 0)
(7.34666 -0.00535145 0)
(7.34812 -0.00584865 0)
(7.34956 -0.00636656 0)
(7.35098 -0.0069063 0)
(7.35238 -0.00746858 0)
(7.35374 -0.00805375 0)
(7.35506 -0.00866182 0)
(7.35633 -0.00929253 0)
(7.35757 -0.00994539 0)
(7.35875 -0.0106197 0)
(7.35989 -0.0113146 0)
(7.36097 -0.0120291 0)
(7.362 -0.012762 0)
(7.36298 -0.0135121 0)
(7.36391 -0.0142783 0)
(7.36478 -0.0150591 0)
(7.3656 -0.0158533 0)
(7.36637 -0.0166596 0)
(7.36709 -0.0174767 0)
(7.36775 -0.0183031 0)
(7.33302 -0.000213842 0)
(7.33318 -0.000651961 0)
(7.33353 -0.00112873 0)
(7.33409 -0.00164918 0)
(7.33485 -0.00218886 0)
(7.33579 -0.0027263 0)
(7.33687 -0.00325519 0)
(7.33807 -0.0037758 0)
(7.33935 -0.004289 0)
(7.34071 -0.00479653 0)
(7.34211 -0.00530144 0)
(7.34354 -0.00580715 0)
(7.34498 -0.00631692 0)
(7.34642 -0.00683363 0)
(7.34786 -0.00735989 0)
(7.34927 -0.00789789 0)
(7.35066 -0.00844936 0)
(7.35202 -0.00901564 0)
(7.35334 -0.00959767 0)
(7.35462 -0.010196 0)
(7.35586 -0.010811 0)
(7.35705 -0.0114427 0)
(7.35819 -0.0120907 0)
(7.35929 -0.0127547 0)
(7.36033 -0.0134341 0)
(7.36132 -0.0141282 0)
(7.36226 -0.0148361 0)
(7.36314 -0.0155569 0)
(7.36397 -0.0162896 0)
(7.36475 -0.0170332 0)
(7.36548 -0.0177865 0)
(7.36616 -0.0185485 0)
(7.36678 -0.0193175 0)
(7.33301 -0.000275421 0)
(7.33315 -0.000846985 0)
(7.33345 -0.0014855 0)
(7.33397 -0.00218635 0)
(7.33471 -0.00290122 0)
(7.33565 -0.00359533 0)
(7.33673 -0.00425711 0)
(7.33793 -0.00488328 0)
(7.33921 -0.00547428 0)
(7.34056 -0.0060355 0)
(7.34195 -0.00657516 0)
(7.34337 -0.00710128 0)
(7.3448 -0.00762061 0)
(7.34622 -0.00813876 0)
(7.34763 -0.00866031 0)
(7.34903 -0.00918882 0)
(7.35039 -0.00972697 0)
(7.35172 -0.0102767 0)
(7.35301 -0.0108392 0)
(7.35426 -0.0114153 0)
(7.35546 -0.0120055 0)
(7.35662 -0.0126098 0)
(7.35773 -0.0132281 0)
(7.35879 -0.01386 0)
(7.35979 -0.0145049 0)
(7.36075 -0.0151622 0)
(7.36165 -0.0158312 0)
(7.3625 -0.0165111 0)
(7.36329 -0.017201 0)
(7.36404 -0.0179 0)
(7.36473 -0.0186075 0)
(7.36537 -0.0193227 0)
(7.36596 -0.0200446 0)
(7.33301 -0.00031701 0)
(7.33308 -0.0010022 0)
(7.3333 -0.00181682 0)
(7.33377 -0.00271594 0)
(7.3345 -0.00361295 0)
(7.33545 -0.00447944 0)
(7.33656 -0.00531744 0)
(7.33779 -0.00612075 0)
(7.33911 -0.00687951 0)
(7.34049 -0.00759149 0)
(7.34189 -0.00826108 0)
(7.34331 -0.00889471 0)
(7.34474 -0.00949902 0)
(7.34615 -0.0100807 0)
(7.34754 -0.010646 0)
(7.3489 -0.0112006 0)
(7.35024 -0.0117493 0)
(7.35154 -0.0122959 0)
(7.35279 -0.0128436 0)
(7.35401 -0.0133949 0)
(7.35517 -0.0139517 0)
(7.35629 -0.0145152 0)
(7.35736 -0.0150865 0)
(7.35838 -0.015666 0)
(7.35935 -0.0162539 0)
(7.36026 -0.0168505 0)
(7.36113 -0.0174554 0)
(7.36194 -0.0180683 0)
(7.3627 -0.0186888 0)
(7.3634 -0.0193163 0)
(7.36406 -0.0199502 0)
(7.36466 -0.0205896 0)
(7.36521 -0.0212331 0)
(7.33299 -0.000312491 0)
(7.33294 -0.00106889 0)
(7.33303 -0.00211897 0)
(7.33344 -0.00329619 0)
(7.33417 -0.00437871 0)
(7.33511 -0.00530765 0)
(7.33621 -0.00611462 0)
(7.33743 -0.00683323 0)
(7.33876 -0.00748707 0)
(7.34015 -0.00809638 0)
(7.34158 -0.00867729 0)
(7.34302 -0.00924076 0)
(7.34446 -0.00979415 0)
(7.34588 -0.0103427 0)
(7.34729 -0.0108901 0)
(7.34866 -0.0114387 0)
(7.34999 -0.0119903 0)
(7.35128 -0.012546 0)
(7.35253 -0.0131066 0)
(7.35373 -0.0136726 0)
(7.35489 -0.0142442 0)
(7.35599 -0.0148215 0)
(7.35704 -0.0154046 0)
(7.35803 -0.0159933 0)
(7.35898 -0.0165875 0)
(7.35987 -0.0171869 0)
(7.36071 -0.0177912 0)
(7.3615 -0.0183999 0)
(7.36223 -0.0190129 0)
(7.36292 -0.0196297 0)
(7.36355 -0.02025 0)
(7.36414 -0.0208738 0)
(7.36468 -0.0215008 0)
(7.33295 -0.000217759 0)
(7.33262 -0.00093782 0)
(7.33243 -0.00220884 0)
(7.33281 -0.00383609 0)
(7.33371 -0.00557868 0)
(7.33485 -0.0072868 0)
(7.3361 -0.00884868 0)
(7.33743 -0.0102024 0)
(7.3388 -0.0113465 0)
(7.34019 -0.0123103 0)
(7.34159 -0.0131266 0)
(7.34299 -0.0138245 0)
(7.34437 -0.0144301 0)
(7.34574 -0.0149667 0)
(7.34708 -0.0154533 0)
(7.3484 -0.0159049 0)
(7.34968 -0.016333 0)
(7.35093 -0.0167467 0)
(7.35214 -0.0171528 0)
(7.3533 -0.0175563 0)
(7.35442 -0.017961 0)
(7.3555 -0.0183694 0)
(7.35653 -0.0187834 0)
(7.35752 -0.0192042 0)
(7.35845 -0.0196325 0)
(7.35933 -0.0200685 0)
(7.36017 -0.0205125 0)
(7.36095 -0.0209642 0)
(7.36169 -0.0214233 0)
(7.36238 -0.0218894 0)
(7.36301 -0.0223618 0)
(7.3636 -0.0228398 0)
(7.36413 -0.0233221 0)
(7.3329 0.0001136 0)
(7.33207 -0.000906668 0)
(7.33126 -0.00222382 0)
(7.33111 -0.00290018 0)
(7.33162 -0.00318832 0)
(7.33258 -0.00354878 0)
(7.33387 -0.00409339 0)
(7.33538 -0.00476047 0)
(7.33698 -0.00550346 0)
(7.33862 -0.00630313 0)
(7.34026 -0.00714059 0)
(7.34187 -0.00799538 0)
(7.34346 -0.00885188 0)
(7.345 -0.00970015 0)
(7.3465 -0.010534 0)
(7.34796 -0.0113495 0)
(7.34937 -0.0121446 0)
(7.35073 -0.0129189 0)
(7.35205 -0.0136725 0)
(7.35332 -0.0144063 0)
(7.35454 -0.0151213 0)
(7.35571 -0.0158189 0)
(7.35684 -0.0165005 0)
(7.35791 -0.0171672 0)
(7.35894 -0.0178204 0)
(7.35991 -0.0184612 0)
(7.36084 -0.0190906 0)
(7.36171 -0.0197096 0)
(7.36254 -0.020319 0)
(7.36331 -0.0209197 0)
(7.36404 -0.0215123 0)
(7.36473 -0.0220977 0)
(7.36537 -0.0226761 0)
(7.33241 0.00206608 0)
(7.33046 -0.000597596 0)
(7.33031 -0.0073131 0)
(7.33141 -0.0137505 0)
(7.33241 -0.0184521 0)
(7.33315 -0.0216202 0)
(7.33399 -0.0236722 0)
(7.33505 -0.0249137 0)
(7.33628 -0.0255829 0)
(7.33763 -0.0258695 0)
(7.33909 -0.0259128 0)
(7.34063 -0.0258104 0)
(7.34224 -0.0256295 0)
(7.34389 -0.0254155 0)
(7.34557 -0.0251979 0)
(7.34726 -0.0249954 0)
(7.34895 -0.0248196 0)
(7.35062 -0.024677 0)
(7.35227 -0.0245707 0)
(7.3539 -0.0245015 0)
(7.35548 -0.0244692 0)
(7.35702 -0.0244722 0)
(7.35851 -0.0245087 0)
(7.35995 -0.0245765 0)
(7.36134 -0.0246735 0)
(7.36268 -0.0247973 0)
(7.36395 -0.0249456 0)
(7.36517 -0.0251164 0)
(7.36633 -0.0253077 0)
(7.36743 -0.0255177 0)
(7.36847 -0.0257448 0)
(7.36944 -0.0259878 0)
(7.37035 -0.0262457 0)
(7.32878 0.00627813 0)
(7.31725 0.0179458 0)
(7.31242 0.0251461 0)
(7.31395 0.0271884 0)
(7.3178 0.0258664 0)
(7.32198 0.0230375 0)
(7.32619 0.0196584 0)
(7.33041 0.0160865 0)
(7.33455 0.0125039 0)
(7.33854 0.00904948 0)
(7.34239 0.00580777 0)
(7.34611 0.00281101 0)
(7.34968 6.19685e-05 0)
(7.35312 -0.00244858 0)
(7.35643 -0.00473539 0)
(7.35961 -0.00681648 0)
(7.36267 -0.00871114 0)
(7.36561 -0.0104383 0)
(7.36843 -0.0120158 0)
(7.37113 -0.01346 0)
(7.37372 -0.0147856 0)
(7.3762 -0.0160059 0)
(7.37856 -0.0171325 0)
(7.38081 -0.0181761 0)
(7.38296 -0.0191456 0)
(7.385 -0.0200492 0)
(7.38695 -0.020894 0)
(7.38879 -0.0216863 0)
(7.39053 -0.0224313 0)
(7.39218 -0.0231338 0)
(7.39373 -0.0237977 0)
(7.3952 -0.0244257 0)
(7.39659 -0.0250212 0)
(7.33379 -0.0332978 0)
(7.333 -0.0723048 0)
(7.32812 -0.0856777 0)
(7.32657 -0.087115 0)
(7.33014 -0.0847278 0)
(7.33737 -0.0807692 0)
(7.34634 -0.0759411 0)
(7.35584 -0.0708992 0)
(7.36534 -0.0661002 0)
(7.37458 -0.0617164 0)
(7.3834 -0.0577763 0)
(7.3917 -0.0542705 0)
(7.39945 -0.0511769 0)
(7.40663 -0.0484619 0)
(7.41327 -0.0460865 0)
(7.41939 -0.044012 0)
(7.42501 -0.042203 0)
(7.43017 -0.0406273 0)
(7.43488 -0.0392563 0)
(7.43919 -0.0380648 0)
(7.44311 -0.0370307 0)
(7.44667 -0.0361347 0)
(7.4499 -0.0353601 0)
(7.45281 -0.0346921 0)
(7.45543 -0.0341182 0)
(7.45778 -0.0336271 0)
(7.45986 -0.0332093 0)
(7.46171 -0.0328562 0)
(7.46333 -0.0325607 0)
(7.46475 -0.0323163 0)
(7.46596 -0.0321175 0)
(7.46699 -0.0319601 0)