/*--------------------------------*- C++ -*----------------------------------*\
| =========                 |                                                 |
| \\      /  F ield         | OpenFOAM: The Open Source CFD Toolbox           |
|  \\    /   O peration     | Version:  4.1                                   |
|   \\  /    A nd           | Web:      www.OpenFOAM.org                      |
|    \\/     M anipulation  |                                                 |
\*---------------------------------------------------------------------------*/
FoamFile
{
    version     2.0;
    format      ascii;
    class       volScalarField;
    location    "1200";
    object      k;
}
// * * * * * * * * * * * * * * * * * * * * * * * * * * * * * * * * * * * * * //

dimensions      [0 2 -2 0 0 0 0];

internalField   nonuniform List<scalar> 
6820
(
0.257082
0.434211
0.59852
0.709382
0.778145
0.818049
0.838548
0.845896
0.844371
0.836964
0.825767
0.812247
0.797427
0.782016
0.7665
0.751203
0.736339
0.722039
0.708382
0.695404
0.68312
0.671521
0.66059
0.650301
0.640625
0.631528
0.622975
0.614937
0.607354
0.600312
0.59321
0.588718
0.574509
0.811277
1.44613
1.51874
1.38792
1.22323
1.07762
0.95922
0.864569
0.788642
0.727157
0.676842
0.635256
0.600578
0.571431
0.546763
0.525757
0.507776
0.49231
0.478953
0.467376
0.457309
0.44853
0.440857
0.434136
0.428238
0.423055
0.418497
0.414488
0.41096
0.40788
0.405151
0.402937
0.400682
0.368869
0.66416
0.797428
0.829397
0.816589
0.786286
0.750411
0.713991
0.679044
0.646311
0.616001
0.588103
0.562514
0.539088
0.517663
0.498077
0.480172
0.463799
0.44882
0.435106
0.422543
0.411025
0.400456
0.390751
0.381831
0.373626
0.366073
0.359115
0.352701
0.346787
0.341328
0.336302
0.331651
0.240027
0.336287
0.412169
0.460222
0.487105
0.500012
0.504037
0.502508
0.497533
0.490423
0.482012
0.472846
0.463295
0.45361
0.443967
0.434483
0.425241
0.416294
0.407675
0.399404
0.391489
0.383932
0.37673
0.369874
0.363355
0.357161
0.351278
0.345693
0.340392
0.335363
0.330591
0.326065
0.321765
0.214145
0.250649
0.284542
0.31208
0.332947
0.348027
0.358469
0.365345
0.369528
0.371681
0.372296
0.371744
0.370308
0.368202
0.365595
0.362616
0.359368
0.355933
0.352374
0.348742
0.345077
0.341411
0.337769
0.33417
0.330628
0.327157
0.323764
0.320455
0.317236
0.314109
0.311076
0.308139
0.305297
0.20564
0.221937
0.238617
0.25366
0.26644
0.276904
0.285273
0.29185
0.296934
0.300784
0.303614
0.305602
0.306896
0.307615
0.307861
0.307715
0.307246
0.306513
0.305564
0.304438
0.303171
0.301792
0.300324
0.298789
0.297203
0.295582
0.293938
0.292282
0.290622
0.288965
0.28732
0.285689
0.284081
0.202357
0.210378
0.219404
0.228106
0.235957
0.242783
0.248605
0.253515
0.257621
0.261026
0.263824
0.266096
0.267914
0.269339
0.270425
0.271218
0.271758
0.272079
0.272212
0.272182
0.272013
0.271724
0.271333
0.270855
0.270303
0.269689
0.269023
0.268314
0.267571
0.266799
0.266006
0.265196
0.264376
0.201008
0.2051
0.210232
0.215526
0.22054
0.225078
0.229098
0.232621
0.235689
0.238346
0.240635
0.242597
0.244268
0.245681
0.246865
0.247846
0.248647
0.249289
0.249788
0.250162
0.250425
0.25059
0.250667
0.250668
0.250602
0.250476
0.250297
0.250074
0.249811
0.249513
0.249187
0.248835
0.248464
0.200424
0.202508
0.205459
0.208754
0.21204
0.21513
0.217953
0.220495
0.222768
0.224789
0.226579
0.228159
0.229548
0.230765
0.231826
0.232746
0.23354
0.23422
0.234797
0.235281
0.235681
0.236006
0.236262
0.236458
0.236599
0.236691
0.236738
0.236746
0.236719
0.23666
0.236574
0.236463
0.236331
0.200163
0.201193
0.202864
0.204904
0.207067
0.20919
0.211193
0.213044
0.214736
0.216272
0.217659
0.218908
0.220028
0.221031
0.221926
0.222722
0.223428
0.224051
0.224599
0.225079
0.225496
0.225856
0.226164
0.226425
0.226643
0.226822
0.226965
0.227076
0.227157
0.227213
0.227244
0.227255
0.227246
0.200044
0.20052
0.201431
0.202661
0.20406
0.205505
0.206921
0.208268
0.209528
0.210694
0.211766
0.212747
0.213641
0.214454
0.215192
0.215858
0.21646
0.217002
0.217488
0.217924
0.218312
0.218657
0.218962
0.219231
0.219467
0.219671
0.219848
0.219999
0.220126
0.220232
0.220318
0.220386
0.220439
0.199989
0.200177
0.20064
0.201347
0.20222
0.203178
0.204159
0.205125
0.206054
0.206932
0.207754
0.208519
0.209226
0.209879
0.210478
0.211028
0.21153
0.211989
0.212406
0.212786
0.21313
0.213441
0.213722
0.213974
0.214201
0.214403
0.214584
0.214744
0.214885
0.215008
0.215116
0.21521
0.21529
0.199965
0.200004
0.200209
0.200585
0.201099
0.201706
0.202361
0.203034
0.203702
0.204351
0.204971
0.205558
0.206111
0.206627
0.207107
0.207553
0.207966
0.208347
0.208698
0.209021
0.209317
0.209589
0.209837
0.210063
0.21027
0.210457
0.210627
0.210781
0.21092
0.211045
0.211158
0.211259
0.211349
0.199954
0.199918
0.199979
0.20015
0.200426
0.200783
0.201198
0.201645
0.202107
0.20257
0.203025
0.203465
0.203886
0.204286
0.204664
0.205019
0.205352
0.205662
0.205951
0.20622
0.206469
0.2067
0.206913
0.20711
0.207291
0.207458
0.207611
0.207752
0.207881
0.207999
0.208107
0.208206
0.208296
0.199949
0.199877
0.199858
0.199907
0.20003
0.200217
0.200456
0.200733
0.201034
0.201348
0.201667
0.201984
0.202294
0.202594
0.202883
0.203158
0.203419
0.203665
0.203898
0.204116
0.204321
0.204512
0.20469
0.204857
0.205011
0.205155
0.205289
0.205413
0.205528
0.205634
0.205733
0.205824
0.205908
0.199947
0.199857
0.199796
0.199776
0.199803
0.199877
0.199994
0.200145
0.200323
0.20052
0.200729
0.200944
0.20116
0.201375
0.201586
0.201791
0.201988
0.202178
0.202358
0.20253
0.202693
0.202846
0.202991
0.203127
0.203256
0.203376
0.203488
0.203594
0.203693
0.203785
0.203872
0.203953
0.204028
0.199947
0.199847
0.199764
0.199706
0.199676
0.199679
0.199713
0.199776
0.199863
0.19997
0.200092
0.200224
0.200363
0.200506
0.200651
0.200794
0.200936
0.201074
0.201208
0.201337
0.201461
0.201579
0.201692
0.2018
0.201902
0.201999
0.202091
0.202177
0.202259
0.202337
0.20241
0.202479
0.202544
0.199946
0.199843
0.199749
0.199669
0.199608
0.199567
0.199548
0.19955
0.199573
0.199614
0.199669
0.199737
0.199814
0.199898
0.199986
0.200078
0.20017
0.200264
0.200356
0.200447
0.200536
0.200622
0.200705
0.200786
0.200863
0.200938
0.201009
0.201077
0.201142
0.201205
0.201264
0.201321
0.201375
0.199946
0.199841
0.199742
0.199651
0.199571
0.199505
0.199453
0.199417
0.199396
0.199389
0.199396
0.199415
0.199443
0.19948
0.199523
0.199572
0.199624
0.199678
0.199735
0.199792
0.199849
0.199907
0.199964
0.20002
0.200074
0.200128
0.20018
0.20023
0.200279
0.200326
0.200372
0.200416
0.200459
0.199946
0.19984
0.199739
0.199642
0.199553
0.199471
0.1994
0.19934
0.19929
0.199252
0.199225
0.199209
0.199201
0.199202
0.199209
0.199223
0.199242
0.199265
0.199291
0.19932
0.199351
0.199383
0.199416
0.19945
0.199485
0.199519
0.199554
0.199588
0.199622
0.199655
0.199688
0.199721
0.199753
0.199946
0.19984
0.199737
0.199638
0.199543
0.199454
0.199372
0.199297
0.19923
0.199172
0.199122
0.199081
0.199048
0.199022
0.199003
0.198991
0.198984
0.198982
0.198984
0.198989
0.198998
0.19901
0.199023
0.199039
0.199056
0.199074
0.199093
0.199113
0.199134
0.199155
0.199177
0.199199
0.199221
0.199946
0.19984
0.199736
0.199635
0.199538
0.199445
0.199356
0.199273
0.199196
0.199125
0.199061
0.199004
0.198954
0.198911
0.198873
0.198842
0.198817
0.198796
0.19878
0.198768
0.19876
0.198755
0.198753
0.198754
0.198757
0.198763
0.19877
0.198778
0.198788
0.198799
0.198811
0.198825
0.198839
0.199946
0.19984
0.199736
0.199634
0.199536
0.19944
0.199349
0.199261
0.199178
0.1991
0.199028
0.198962
0.198901
0.198846
0.198798
0.198754
0.198716
0.198683
0.198655
0.198631
0.198611
0.198595
0.198583
0.198573
0.198567
0.198562
0.198561
0.198561
0.198563
0.198567
0.198572
0.198578
0.198586
0.199946
0.19984
0.199735
0.199634
0.199534
0.199438
0.199345
0.199255
0.19917
0.199089
0.199013
0.198942
0.198876
0.198816
0.198761
0.198711
0.198667
0.198628
0.198593
0.198563
0.198537
0.198514
0.198496
0.198481
0.198468
0.198459
0.198452
0.198447
0.198445
0.198444
0.198446
0.198448
0.198452
0.199946
0.19984
0.199735
0.199633
0.199534
0.199437
0.199344
0.199254
0.199168
0.199087
0.19901
0.198939
0.198873
0.198812
0.198756
0.198706
0.198661
0.198621
0.198586
0.198555
0.198528
0.198505
0.198485
0.198469
0.198456
0.198446
0.198438
0.198433
0.198429
0.198428
0.198428
0.19843
0.198433
0.199946
0.19984
0.199735
0.199634
0.199534
0.199438
0.199346
0.199257
0.199174
0.199095
0.199022
0.198954
0.198892
0.198836
0.198785
0.19874
0.1987
0.198665
0.198635
0.198609
0.198587
0.198569
0.198554
0.198542
0.198533
0.198527
0.198523
0.198521
0.19852
0.198522
0.198524
0.198529
0.198534
0.199946
0.19984
0.199736
0.199635
0.199537
0.199442
0.199353
0.199269
0.19919
0.199118
0.199053
0.198995
0.198943
0.198898
0.198858
0.198825
0.198797
0.198774
0.198756
0.198741
0.19873
0.198723
0.198718
0.198716
0.198716
0.198718
0.198722
0.198728
0.198734
0.198742
0.19875
0.19876
0.19877
0.199946
0.19984
0.199737
0.199637
0.199542
0.199453
0.19937
0.199295
0.199228
0.19917
0.199121
0.199079
0.199046
0.19902
0.199001
0.198988
0.19898
0.198977
0.198978
0.198982
0.198989
0.198998
0.19901
0.199023
0.199037
0.199052
0.199068
0.199085
0.199102
0.199119
0.199136
0.199153
0.199171
0.199946
0.199841
0.19974
0.199645
0.199557
0.199478
0.19941
0.199354
0.199309
0.199277
0.199255
0.199244
0.199241
0.199247
0.199259
0.199277
0.199299
0.199325
0.199353
0.199384
0.199416
0.199448
0.199481
0.199514
0.199547
0.199579
0.199611
0.199642
0.199672
0.199701
0.199729
0.199756
0.199782
0.199947
0.199844
0.199749
0.199664
0.199592
0.199537
0.199499
0.19948
0.199477
0.19949
0.199516
0.199553
0.199599
0.199652
0.19971
0.199772
0.199836
0.199901
0.199966
0.20003
0.200092
0.200154
0.200213
0.20027
0.200324
0.200376
0.200426
0.200473
0.200518
0.20056
0.200599
0.200637
0.200672
0.199948
0.199852
0.19977
0.199711
0.199677
0.199673
0.199697
0.199746
0.199818
0.199907
0.20001
0.200122
0.200239
0.20036
0.200481
0.2006
0.200717
0.20083
0.200939
0.201043
0.201141
0.201234
0.201322
0.201405
0.201482
0.201554
0.201622
0.201685
0.201743
0.201797
0.201848
0.201894
0.201937
0.199951
0.199872
0.199828
0.199831
0.199884
0.199985
0.200128
0.200302
0.2005
0.200711
0.200928
0.201146
0.201361
0.201569
0.201768
0.201958
0.202136
0.202304
0.20246
0.202606
0.20274
0.202865
0.202981
0.203087
0.203184
0.203274
0.203356
0.203431
0.2035
0.203563
0.203619
0.203671
0.203718
0.19996
0.199932
0.199988
0.200141
0.200383
0.200695
0.201055
0.20144
0.201833
0.202222
0.202597
0.202954
0.203288
0.203599
0.203885
0.204149
0.20439
0.204611
0.204811
0.204994
0.205159
0.205309
0.205445
0.205567
0.205677
0.205777
0.205866
0.205946
0.206017
0.20608
0.206137
0.206186
0.20623
0.19999
0.200113
0.200438
0.200945
0.201582
0.202288
0.203012
0.20372
0.20439
0.205011
0.205578
0.206091
0.206552
0.206965
0.207333
0.207661
0.207953
0.208212
0.208442
0.208646
0.208826
0.208985
0.209126
0.209249
0.209357
0.209451
0.209533
0.209603
0.209664
0.209715
0.209757
0.209792
0.209821
0.200097
0.200698
0.201729
0.20303
0.20443
0.205804
0.207078
0.208222
0.20923
0.210107
0.210866
0.211521
0.212084
0.212568
0.212984
0.213341
0.213648
0.213911
0.214135
0.214327
0.21449
0.214628
0.214743
0.214839
0.214917
0.214979
0.215028
0.215064
0.215089
0.215105
0.215111
0.215109
0.2151
0.200521
0.202675
0.205525
0.20847
0.211189
0.21355
0.215527
0.217152
0.218476
0.219552
0.220424
0.221131
0.221704
0.222168
0.222543
0.222845
0.223087
0.223277
0.223425
0.223537
0.223618
0.223672
0.223703
0.223713
0.223707
0.223684
0.223649
0.223601
0.223542
0.223475
0.223398
0.223315
0.223225
0.202177
0.209422
0.217079
0.223316
0.228003
0.231437
0.233925
0.235719
0.237011
0.237936
0.238593
0.239054
0.239367
0.239569
0.239685
0.239733
0.239727
0.239676
0.239588
0.239469
0.239325
0.239157
0.238971
0.238768
0.23855
0.23832
0.23808
0.23783
0.237573
0.237309
0.237039
0.236764
0.236486
0.208503
0.227596
0.245316
0.25869
0.267554
0.272837
0.275658
0.27695
0.277338
0.277195
0.276744
0.276116
0.275385
0.274596
0.273774
0.272932
0.27208
0.271221
0.270359
0.269495
0.268631
0.267769
0.266908
0.266051
0.265198
0.264351
0.263511
0.262678
0.261853
0.261037
0.260232
0.259437
0.258653
0.248308
0.315061
0.34816
0.362157
0.367118
0.367958
0.366701
0.364185
0.360865
0.357053
0.352965
0.348753
0.344525
0.340356
0.336297
0.332382
0.328633
0.32506
0.321669
0.31846
0.315431
0.312577
0.309891
0.307365
0.304994
0.302768
0.30068
0.298722
0.296886
0.295167
0.293555
0.292046
0.290632
0.205354
0.221127
0.238043
0.254121
0.268995
0.282971
0.296258
0.308938
0.321054
0.332632
0.343696
0.354264
0.36435
0.37397
0.38314
0.391874
0.400187
0.408094
0.415611
0.422753
0.429534
0.435971
0.442077
0.447868
0.453358
0.45856
0.463488
0.468155
0.472574
0.476756
0.480715
0.48446
0.488007
0.618264
0.694237
0.81621
0.965428
1.13041
1.29876
1.46179
1.61238
1.74469
1.85468
1.94082
2.00414
2.04765
2.07537
2.0914
2.09931
2.10178
2.10064
2.097
2.09148
2.08444
2.07615
2.06679
2.05657
2.04564
2.03411
2.02202
2.00936
1.99607
1.98204
1.96714
1.95121
1.93408
1.91559
1.89559
1.87394
1.8505
1.82516
1.79786
1.76853
1.73716
1.70375
1.66837
1.63109
1.59205
1.55143
1.50941
1.46626
1.42224
1.37767
1.33287
1.28819
1.24398
1.2006
1.1584
1.1177
1.07881
1.04201
1.00752
0.975552
0.946246
0.919713
0.89602
0.875191
0.857217
0.842053
0.829627
0.819844
0.812586
0.807721
0.805104
0.804579
0.805985
0.809154
0.813917
0.820098
0.82752
0.836003
0.845364
0.855419
0.865986
0.876883
0.887936
0.898975
0.90984
0.920383
0.930466
0.939965
0.94877
0.956781
0.963916
0.970101
0.975279
0.979397
0.982434
0.984325
0.985169
0.984711
0.983763
0.98051
0.399161
0.404143
0.417411
0.441444
0.476941
0.52439
0.583703
0.654187
0.73453
0.822864
0.916797
1.0135
1.10988
1.20283
1.28952
1.36769
1.43584
1.49331
1.54023
1.57735
1.60576
1.62672
1.64142
1.65094
1.65614
1.65771
1.65618
1.65194
1.64529
1.63645
1.62557
1.61276
1.59809
1.5816
1.56331
1.54322
1.52135
1.49771
1.47232
1.44522
1.41646
1.38613
1.35431
1.32115
1.2868
1.25144
1.21528
1.17857
1.14155
1.10449
1.06767
1.03139
0.995913
0.961526
0.928486
0.897032
0.867378
0.839707
0.814169
0.790882
0.76993
0.751361
0.735197
0.72143
0.710027
0.700936
0.694086
0.689392
0.686759
0.686079
0.68724
0.690123
0.694607
0.700566
0.70787
0.716385
0.725976
0.736498
0.747805
0.759745
0.772163
0.784903
0.79781
0.810731
0.823519
0.836032
0.848138
0.859712
0.870643
0.880829
0.890178
0.898612
0.906064
0.912472
0.917806
0.921996
0.925123
0.926954
0.928123
0.927917
0.326703
0.321608
0.317081
0.313604
0.311899
0.312728
0.316615
0.32421
0.336392
0.354036
0.377965
0.408855
0.447113
0.492738
0.545213
0.60345
0.665828
0.730334
0.794777
0.857046
0.915331
0.968279
1.01505
1.0553
1.08904
1.1166
1.13844
1.15508
1.16705
1.17483
1.17884
1.17944
1.17696
1.17164
1.16371
1.15337
1.14079
1.12612
1.10953
1.09114
1.0711
1.04958
1.02673
1.00272
0.97774
0.951985
0.925664
0.898998
0.872211
0.845536
0.819203
0.793438
0.768459
0.744471
0.721663
0.700202
0.680234
0.66188
0.645233
0.630366
0.617324
0.60613
0.596789
0.589286
0.583593
0.579669
0.577464
0.576918
0.577966
0.580538
0.584558
0.58995
0.596631
0.604519
0.613526
0.623558
0.634519
0.646303
0.658798
0.671885
0.685438
0.699329
0.713422
0.727583
0.741679
0.755578
0.769152
0.782281
0.79485
0.806756
0.8179
0.828197
0.837571
0.845951
0.853297
0.85953
0.864713
0.868636
0.871753
0.874388
0.317033
0.311838
0.306763
0.301845
0.297176
0.292878
0.289097
0.285974
0.283648
0.282359
0.282413
0.284176
0.288073
0.294565
0.304126
0.31719
0.334093
0.355009
0.379887
0.408416
0.440019
0.473884
0.509041
0.544446
0.579086
0.612061
0.642637
0.670279
0.694644
0.715562
0.732997
0.747017
0.757755
0.765384
0.770097
0.772096
0.771582
0.768754
0.763804
0.756922
0.748298
0.738116
0.726564
0.713831
0.700109
0.685592
0.670474
0.654953
0.639223
0.623476
0.607898
0.592666
0.577949
0.563898
0.550654
0.538337
0.527053
0.516886
0.507906
0.500162
0.493689
0.488508
0.484628
0.482044
0.480747
0.480717
0.481931
0.484358
0.487968
0.492723
0.498585
0.505514
0.513466
0.522394
0.532248
0.542972
0.554502
0.566769
0.579694
0.593189
0.607157
0.621495
0.636091
0.650829
0.665592
0.680259
0.694711
0.70883
0.722505
0.735627
0.748096
0.759817
0.770708
0.780688
0.789705
0.797674
0.804634
0.810401
0.81525
0.82046
0.302099
0.298518
0.294964
0.291424
0.287901
0.284413
0.280991
0.277675
0.274503
0.271523
0.268794
0.266395
0.264424
0.263
0.262268
0.262398
0.263581
0.266017
0.269906
0.275428
0.282718
0.291847
0.302801
0.315468
0.329639
0.345015
0.361224
0.377851
0.39447
0.410666
0.426068
0.440361
0.453297
0.464696
0.474443
0.48248
0.488797
0.493425
0.496425
0.49788
0.497894
0.496584
0.494078
0.490511
0.486026
0.480767
0.474883
0.468523
0.461835
0.454961
0.448042
0.441209
0.434586
0.428288
0.422418
0.417067
0.412316
0.408231
0.404869
0.402275
0.400484
0.399522
0.399407
0.400151
0.40176
0.404237
0.40758
0.411785
0.416844
0.422749
0.429489
0.437052
0.445423
0.454584
0.464514
0.475187
0.486568
0.498619
0.511288
0.524516
0.538234
0.552363
0.566815
0.581495
0.596301
0.611127
0.625864
0.640402
0.65463
0.668442
0.681734
0.694407
0.706371
0.717538
0.727843
0.737196
0.745612
0.752927
0.759253
0.766711
0.28223
0.280113
0.27797
0.275792
0.273572
0.271309
0.269016
0.266705
0.264393
0.262095
0.259831
0.257621
0.25549
0.253466
0.251586
0.249893
0.248439
0.247287
0.246507
0.246176
0.246377
0.247191
0.248692
0.25094
0.253974
0.257807
0.262417
0.267749
0.273712
0.280185
0.287022
0.294063
0.30114
0.308091
0.314761
0.321017
0.326745
0.33186
0.336298
0.340023
0.343021
0.3453
0.346886
0.347822
0.348162
0.347972
0.347328
0.346308
0.344997
0.34348
0.341844
0.340172
0.338546
0.337041
0.335728
0.334674
0.333937
0.333568
0.333614
0.334113
0.335099
0.3366
0.338638
0.341235
0.344406
0.348164
0.352521
0.357488
0.363072
0.369281
0.376122
0.3836
0.391719
0.400482
0.409886
0.419928
0.430598
0.441877
0.45374
0.466153
0.47907
0.492437
0.506189
0.520251
0.534541
0.548967
0.563436
0.577845
0.592092
0.606073
0.619685
0.632827
0.645403
0.65732
0.668503
0.678856
0.688371
0.696904
0.704416
0.713746
0.263408
0.26227
0.261089
0.259861
0.258577
0.257237
0.255844
0.254404
0.252924
0.251413
0.24988
0.248333
0.246782
0.245235
0.243704
0.242202
0.240742
0.239344
0.238028
0.236821
0.235752
0.234853
0.23416
0.23371
0.233537
0.233672
0.234142
0.234963
0.236143
0.237675
0.239542
0.241711
0.244142
0.246782
0.249572
0.25245
0.255352
0.258219
0.260995
0.263632
0.266092
0.268345
0.270374
0.27217
0.273736
0.275085
0.276235
0.277214
0.278055
0.278796
0.279476
0.28014
0.280829
0.281587
0.282456
0.283477
0.284686
0.28612
0.28781
0.289785
0.292073
0.294695
0.297673
0.301027
0.304773
0.308928
0.313507
0.318526
0.323997
0.329937
0.336358
0.343277
0.350707
0.358661
0.367152
0.376188
0.385776
0.395914
0.406598
0.417812
0.429533
0.441728
0.454354
0.467358
0.480676
0.494237
0.50796
0.521759
0.535541
0.549209
0.562664
0.575808
0.588544
0.600773
0.612415
0.623369
0.633608
0.643004
0.651389
0.662173
0.248006
0.247447
0.246846
0.246201
0.245506
0.244758
0.243958
0.243109
0.242214
0.241279
0.240308
0.239307
0.23828
0.237232
0.236167
0.23509
0.234006
0.232921
0.231842
0.230778
0.229739
0.228737
0.227788
0.226907
0.226111
0.225419
0.224848
0.224417
0.22414
0.224029
0.224093
0.224336
0.224757
0.22535
0.226103
0.227003
0.22803
0.229163
0.23038
0.23166
0.23298
0.234322
0.23567
0.237012
0.23834
0.23965
0.240943
0.242225
0.243505
0.244795
0.246112
0.247473
0.248898
0.250409
0.252027
0.253773
0.255669
0.257735
0.25999
0.262453
0.265141
0.26807
0.271254
0.274709
0.278447
0.282482
0.286828
0.291498
0.296506
0.301869
0.307603
0.313724
0.320251
0.327203
0.334597
0.342451
0.350781
0.359598
0.368911
0.378719
0.389018
0.399792
0.41102
0.422667
0.434691
0.44704
0.459651
0.472453
0.485367
0.498309
0.511189
0.523912
0.536386
0.548513
0.560208
0.571371
0.581956
0.591853
0.600785
0.612581
0.236151
0.235915
0.235644
0.235335
0.234986
0.234594
0.234158
0.233679
0.233159
0.232601
0.232008
0.231383
0.230729
0.23005
0.229347
0.228624
0.227882
0.227124
0.226353
0.225571
0.224784
0.223995
0.223211
0.222439
0.221686
0.220963
0.220278
0.219643
0.219069
0.218564
0.218141
0.217807
0.217569
0.217434
0.217405
0.217482
0.217667
0.217957
0.218347
0.218833
0.219408
0.220068
0.220806
0.221618
0.222499
0.223448
0.224463
0.225546
0.226699
0.227927
0.229237
0.230636
0.232134
0.233739
0.235463
0.237315
0.239308
0.24145
0.243753
0.246226
0.248879
0.25172
0.254759
0.258003
0.261462
0.265145
0.26906
0.273218
0.277632
0.282314
0.287279
0.292543
0.298125
0.304044
0.310321
0.316976
0.32403
0.331502
0.339407
0.347759
0.356564
0.365824
0.375531
0.385671
0.396219
0.407142
0.418397
0.42993
0.44168
0.453576
0.465541
0.477491
0.48934
0.500996
0.512376
0.523379
0.533952
0.543996
0.553151
0.565513
0.227214
0.227151
0.227061
0.226942
0.226791
0.226606
0.226386
0.226131
0.225843
0.225522
0.225171
0.224792
0.224387
0.223958
0.223508
0.223037
0.222547
0.22204
0.221517
0.22098
0.220429
0.219868
0.219299
0.218726
0.218151
0.21758
0.217018
0.216472
0.215946
0.215449
0.214988
0.21457
0.214202
0.213891
0.213643
0.213464
0.21336
0.213333
0.213388
0.213527
0.213751
0.214062
0.214462
0.21495
0.215528
0.216198
0.216959
0.217816
0.218769
0.219823
0.220981
0.222248
0.223627
0.225125
0.226745
0.228494
0.230375
0.232395
0.234557
0.236865
0.239324
0.241937
0.244708
0.247641
0.25074
0.254009
0.257453
0.26108
0.264898
0.268916
0.273147
0.277604
0.282304
0.287264
0.292504
0.298045
0.30391
0.31012
0.316695
0.323656
0.331018
0.338792
0.346984
0.355594
0.364613
0.374026
0.383806
0.393919
0.40432
0.414955
0.425763
0.436674
0.447611
0.458495
0.469245
0.479768
0.490003
0.499868
0.508946
0.52144
0.220482
0.22051
0.220517
0.220501
0.220462
0.220396
0.220303
0.220182
0.220035
0.219861
0.219663
0.219441
0.219198
0.218935
0.218654
0.218356
0.218042
0.217714
0.217371
0.217016
0.216649
0.216271
0.215884
0.215489
0.215089
0.214686
0.214282
0.213882
0.21349
0.213108
0.212744
0.212401
0.212086
0.211803
0.21156
0.211362
0.211214
0.211122
0.211091
0.211127
0.211234
0.211416
0.211678
0.212023
0.212456
0.212979
0.213596
0.214311
0.215127
0.216047
0.217074
0.218212
0.219465
0.220834
0.222322
0.223932
0.225666
0.227525
0.22951
0.231622
0.233862
0.236229
0.238723
0.241345
0.244096
0.246975
0.249985
0.25313
0.256414
0.259844
0.263429
0.267179
0.271107
0.275229
0.279563
0.284128
0.288945
0.294036
0.299424
0.30513
0.311176
0.317578
0.324352
0.331507
0.339048
0.346972
0.355268
0.363918
0.372895
0.38216
0.39167
0.40137
0.411198
0.421085
0.430962
0.440744
0.450372
0.459774
0.468507
0.480737
0.215369
0.215442
0.215499
0.215539
0.215561
0.215562
0.215543
0.215502
0.21544
0.215358
0.215255
0.215134
0.214996
0.214843
0.214675
0.214493
0.214299
0.214094
0.213879
0.213654
0.21342
0.213179
0.212931
0.212676
0.212418
0.212156
0.211893
0.211631
0.211372
0.21112
0.210878
0.210649
0.210438
0.210249
0.210087
0.209956
0.209863
0.209812
0.209808
0.209858
0.209966
0.210138
0.210378
0.210692
0.211085
0.211561
0.212124
0.212779
0.21353
0.214379
0.215331
0.216389
0.217553
0.218828
0.220213
0.22171
0.223318
0.225038
0.226869
0.228808
0.230855
0.233005
0.235258
0.23761
0.24006
0.242605
0.245246
0.247982
0.250815
0.25375
0.256791
0.259947
0.263228
0.266646
0.270217
0.273957
0.277885
0.282022
0.286389
0.29101
0.295905
0.301096
0.306602
0.31244
0.318622
0.325155
0.332041
0.339275
0.346843
0.354724
0.362888
0.371297
0.379905
0.388658
0.397496
0.406349
0.41516
0.423874
0.43204
0.443665
0.211442
0.211535
0.211616
0.211683
0.211737
0.211776
0.211798
0.211804
0.211794
0.211767
0.211725
0.211669
0.211599
0.211517
0.211424
0.211321
0.211209
0.21109
0.210963
0.210831
0.210693
0.21055
0.210404
0.210255
0.210104
0.209952
0.209802
0.209653
0.209509
0.20937
0.209241
0.209123
0.20902
0.208934
0.208871
0.208833
0.208826
0.208854
0.208922
0.209035
0.209197
0.209415
0.209693
0.210035
0.210449
0.210937
0.211504
0.212156
0.212895
0.213725
0.21465
0.215671
0.216791
0.218011
0.219331
0.220751
0.222271
0.223888
0.2256
0.227404
0.229297
0.231274
0.233331
0.235464
0.237668
0.23994
0.242278
0.244679
0.247144
0.249672
0.252269
0.254939
0.257689
0.26053
0.263473
0.266532
0.269724
0.273067
0.276582
0.280288
0.284208
0.288363
0.292775
0.297462
0.302442
0.30773
0.313333
0.319258
0.325502
0.332056
0.338905
0.346025
0.353383
0.360941
0.368652
0.376462
0.384318
0.392181
0.399613
0.41036
0.208391
0.20849
0.208579
0.208658
0.208727
0.208785
0.20883
0.208862
0.208882
0.20889
0.208886
0.20887
0.208845
0.20881
0.208767
0.208718
0.208662
0.208601
0.208537
0.208469
0.208399
0.208328
0.208256
0.208185
0.208114
0.208046
0.207982
0.207923
0.207869
0.207824
0.207789
0.207767
0.207759
0.207768
0.207799
0.207854
0.207936
0.208051
0.208201
0.208392
0.208628
0.208914
0.209254
0.209654
0.210117
0.210648
0.211253
0.211933
0.212694
0.213538
0.214468
0.215486
0.216594
0.217791
0.219079
0.220455
0.221918
0.223465
0.225093
0.226798
0.228575
0.230418
0.232322
0.234282
0.236291
0.238345
0.24044
0.242572
0.24474
0.246942
0.249179
0.251456
0.253777
0.256149
0.258583
0.261089
0.263681
0.266375
0.269189
0.27214
0.275251
0.27854
0.282029
0.285739
0.289688
0.293894
0.298371
0.303129
0.308176
0.313512
0.319132
0.325024
0.331169
0.337541
0.344107
0.350826
0.357655
0.364568
0.37116
0.380832
0.205999
0.206095
0.206184
0.206265
0.206339
0.206404
0.20646
0.206507
0.206544
0.206572
0.20659
0.206601
0.206604
0.2066
0.206591
0.206577
0.20656
0.20654
0.206519
0.206497
0.206476
0.206455
0.206438
0.206423
0.206412
0.206407
0.206408
0.206417
0.206435
0.206464
0.206504
0.206559
0.206631
0.206721
0.206833
0.20697
0.207134
0.20733
0.20756
0.207829
0.208141
0.2085
0.20891
0.209375
0.209899
0.210487
0.211142
0.211868
0.212668
0.213544
0.214499
0.215534
0.21665
0.217847
0.219124
0.220479
0.22191
0.223413
0.224984
0.226618
0.228309
0.230051
0.231838
0.233663
0.235519
0.237401
0.239303
0.24122
0.24315
0.245089
0.247039
0.249
0.250975
0.252971
0.254994
0.257053
0.259161
0.261329
0.263574
0.265911
0.268359
0.270936
0.273662
0.276557
0.27964
0.282929
0.286442
0.290191
0.294189
0.298443
0.302955
0.307723
0.312738
0.317985
0.323443
0.329083
0.334874
0.340799
0.346497
0.354976
0.204111
0.204199
0.204282
0.20436
0.204433
0.204499
0.204558
0.204611
0.204656
0.204695
0.204727
0.204754
0.204775
0.204791
0.204804
0.204814
0.204823
0.204832
0.204841
0.204851
0.204864
0.204881
0.204902
0.204929
0.204962
0.205004
0.205054
0.205115
0.205187
0.205273
0.205373
0.20549
0.205625
0.205782
0.205961
0.206167
0.206401
0.206667
0.206969
0.207308
0.20769
0.208117
0.208594
0.209124
0.20971
0.210357
0.211067
0.211843
0.212688
0.213605
0.214593
0.215656
0.216791
0.218
0.21928
0.220629
0.222043
0.223519
0.225052
0.226636
0.228264
0.22993
0.231626
0.233346
0.235082
0.236827
0.238575
0.24032
0.242059
0.243789
0.245507
0.247214
0.248913
0.250605
0.252298
0.253999
0.255716
0.257461
0.259247
0.261088
0.262999
0.264997
0.2671
0.269326
0.271693
0.274219
0.276922
0.279817
0.282918
0.286235
0.289778
0.293548
0.297545
0.301763
0.306191
0.31081
0.315598
0.320547
0.325347
0.332586
0.202616
0.202694
0.202768
0.202839
0.202906
0.202969
0.203028
0.203081
0.20313
0.203173
0.203213
0.203248
0.20328
0.203309
0.203336
0.203362
0.203389
0.203416
0.203446
0.203479
0.203517
0.203559
0.203609
0.203666
0.203731
0.203807
0.203894
0.203994
0.204107
0.204236
0.204383
0.204548
0.204734
0.204943
0.205177
0.205438
0.20573
0.206055
0.206416
0.206816
0.207258
0.207746
0.208283
0.208871
0.209514
0.210215
0.210977
0.211803
0.212693
0.21365
0.214674
0.215766
0.216926
0.218151
0.21944
0.220791
0.222198
0.223658
0.225164
0.226711
0.228292
0.229898
0.231524
0.23316
0.234799
0.236435
0.238059
0.239666
0.241251
0.24281
0.244342
0.245845
0.24732
0.248769
0.250196
0.251609
0.253013
0.254418
0.255835
0.257276
0.258754
0.260285
0.261883
0.263566
0.265348
0.267249
0.269283
0.271466
0.273814
0.276339
0.279051
0.281958
0.285064
0.288368
0.291868
0.295552
0.299408
0.303432
0.307367
0.313382
0.201434
0.2015
0.201564
0.201626
0.201686
0.201743
0.201797
0.201848
0.201896
0.201941
0.201983
0.202022
0.20206
0.202097
0.202133
0.202169
0.202207
0.202248
0.202292
0.20234
0.202395
0.202456
0.202525
0.202603
0.202692
0.202793
0.202907
0.203035
0.203179
0.203341
0.203522
0.203723
0.203948
0.204198
0.204474
0.20478
0.205118
0.20549
0.2059
0.206349
0.206842
0.20738
0.207966
0.208604
0.209296
0.210045
0.210852
0.21172
0.212651
0.213644
0.214701
0.215821
0.217003
0.218245
0.219545
0.220899
0.222302
0.22375
0.225236
0.226754
0.228296
0.229855
0.231423
0.23299
0.23455
0.236095
0.237617
0.239111
0.24057
0.241991
0.24337
0.244707
0.246
0.247252
0.248466
0.249646
0.250798
0.25193
0.253051
0.254172
0.255303
0.256458
0.25765
0.258894
0.260204
0.261595
0.263084
0.264683
0.266409
0.268273
0.270288
0.272462
0.274804
0.277318
0.280003
0.282856
0.285871
0.289048
0.292181
0.297032
0.200507
0.200561
0.200613
0.200666
0.200716
0.200766
0.200814
0.200861
0.200906
0.200949
0.200991
0.201031
0.201072
0.201112
0.201153
0.201196
0.201241
0.20129
0.201343
0.201402
0.201467
0.201541
0.201624
0.201717
0.201822
0.20194
0.202073
0.202221
0.202388
0.202573
0.202779
0.203008
0.203261
0.203541
0.20385
0.20419
0.204563
0.204971
0.205418
0.205906
0.206438
0.207016
0.207642
0.20832
0.209051
0.209838
0.210682
0.211585
0.212548
0.213571
0.214654
0.215796
0.216996
0.218252
0.219559
0.220914
0.222313
0.22375
0.225217
0.226709
0.228217
0.229734
0.23125
0.232759
0.234251
0.235719
0.237155
0.238553
0.239907
0.241212
0.242466
0.243666
0.244811
0.245902
0.246941
0.247933
0.248882
0.249794
0.250677
0.251541
0.252394
0.253248
0.254115
0.255007
0.255936
0.256918
0.257964
0.25909
0.260307
0.261628
0.263066
0.264631
0.26633
0.268171
0.270157
0.272289
0.274565
0.276987
0.279398
0.283179
0.199789
0.199831
0.199872
0.199914
0.199956
0.199998
0.200039
0.20008
0.200121
0.200161
0.200201
0.200241
0.200281
0.200323
0.200366
0.200412
0.200461
0.200515
0.200574
0.200639
0.200711
0.200793
0.200884
0.200987
0.201103
0.201233
0.201378
0.20154
0.201721
0.201923
0.202146
0.202394
0.202667
0.202969
0.2033
0.203664
0.204062
0.204497
0.204972
0.205488
0.206048
0.206655
0.207311
0.208018
0.208778
0.209593
0.210464
0.211392
0.212378
0.213422
0.214523
0.21568
0.216891
0.218153
0.219462
0.220814
0.222204
0.223626
0.225073
0.226538
0.228012
0.229489
0.230958
0.232413
0.233844
0.235243
0.236603
0.237918
0.239182
0.240389
0.241536
0.24262
0.243642
0.2446