/*--------------------------------*- C++ -*----------------------------------*\
| =========                 |                                                 |
| \\      /  F ield         | OpenFOAM: The Open Source CFD Toolbox           |
|  \\    /   O peration     | Version:  4.1                                   |
|   \\  /    A nd           | Web:      www.OpenFOAM.org                      |
|    \\/     M anipulation  |                                                 |
\*---------------------------------------------------------------------------*/
FoamFile
{
    version     2.0;
    format      ascii;
    class       volScalarField;
    location    "1200";
    object      nut;
}
// * * * * * * * * * * * * * * * * * * * * * * * * * * * * * * * * * * * * * //

dimensions      [0 2 -1 0 0 0 0];

internalField   nonuniform List<scalar> 
6820
(
3.5437e-05
5.0672e-05
6.21565e-05
6.89859e-05
7.29393e-05
7.51484e-05
7.62608e-05
7.66561e-05
7.65742e-05
7.61754e-05
7.5569e-05
7.48308e-05
7.40141e-05
7.31562e-05
7.22833e-05
7.14134e-05
7.0559e-05
6.97284e-05
6.89269e-05
6.81576e-05
6.74223e-05
6.67216e-05
6.60554e-05
6.54229e-05
6.48233e-05
6.42551e-05
6.3717e-05
6.32076e-05
6.27239e-05
6.22719e-05
6.18132e-05
6.15241e-05
6.06216e-05
0.00135033
0.000930454
0.000725657
0.000569941
0.000453328
0.000372218
0.000316223
0.000276488
0.000247303
0.000225195
0.000208006
0.000194348
0.000183294
0.000174213
0.000166657
0.000160305
0.000154915
0.000150308
0.000146344
0.000142913
0.000139929
0.000137323
0.000135038
0.000133028
0.000131254
0.000129684
0.00012829
0.000127049
0.00012594
0.000124949
0.000124041
0.00012327
0.000122384
0.0034439
0.00180034
0.00133708
0.00108081
0.000912409
0.000791562
0.000700947
0.00063099
0.000575611
0.000530789
0.000493805
0.000462783
0.000436392
0.00041367
0.000393906
0.000376563
0.000361229
0.000347582
0.000335368
0.000324381
0.000314454
0.00030545
0.000297254
0.000289771
0.000282918
0.000276627
0.000270837
0.000265497
0.000260559
0.000255985
0.000251733
0.000247785
0.000244057
0.00637392
0.00310291
0.00217847
0.00173334
0.00146616
0.00128428
0.00115082
0.00104807
0.000966257
0.000899457
0.000843822
0.000796729
0.000756324
0.000721254
0.000690513
0.000663333
0.000639119
0.000617404
0.000597815
0.00058005
0.000563862
0.00054905
0.000535444
0.000522903
0.000511306
0.00050055
0.000490549
0.000481224
0.000472509
0.000464346
0.000456679
0.000449467
0.000442642
0.00899737
0.00527271
0.00366202
0.00284163
0.00235737
0.00203856
0.00181195
0.00164188
0.00150906
0.00140219
0.00131419
0.00124038
0.00117752
0.00112331
0.00107604
0.00103445
0.00099755
0.000964584
0.000934945
0.000908145
0.00088379
0.000861556
0.000841173
0.000822417
0.000805097
0.000789052
0.000774145
0.000760254
0.000747277
0.000735122
0.000723706
0.000712961
0.000702802
0.0103765
0.00752965
0.00561349
0.00443387
0.0036773
0.00316202
0.00279169
0.00251363
0.0022974
0.00212446
0.001983
0.00186512
0.00176535
0.00167982
0.00160567
0.00154077
0.00148348
0.00143254
0.00138694
0.00134589
0.00130874
0.00127495
0.0012441
0.0012158
0.00118976
0.00116572
0.00114345
0.00112277
0.0011035
0.0010855
0.00106865
0.00105282
0.00103792
0.0109773
0.00922098
0.00752197
0.0062241
0.00528073
0.00458893
0.00406896
0.0036676
0.00335004
0.00309329
0.00288184
0.00270491
0.00255483
0.00242601
0.0023143
0.00221656
0.00213035
0.00205378
0.00198533
0.0019238
0.0018682
0.00181774
0.00177173
0.00172962
0.00169095
0.00165531
0.00162237
0.00159182
0.00156343
0.00153698
0.00151226
0.00148911
0.00146738
0.0112223
0.01026
0.00902119
0.00786209
0.00689742
0.00612296
0.00550365
0.00500431
0.00459663
0.00425931
0.00397662
0.00373691
0.00353147
0.0033537
0.00319855
0.00306211
0.00294128
0.0028336
0.00273711
0.00265019
0.00257152
0.00250003
0.00243479
0.00237505
0.00232016
0.00226956
0.00222279
0.00217944
0.00213916
0.00210163
0.0020666
0.00203383
0.00200311
0.0113196
0.0108286
0.0100355
0.0091472
0.00830321
0.00755759
0.00691829
0.00637539
0.00591434
0.00552103
0.00518335
0.0048914
0.0046372
0.00441435
0.00421773
0.00404321
0.00388746
0.00374774
0.00362181
0.00350781
0.00340421
0.00330969
0.00322316
0.0031437
0.00307051
0.0030029
0.00294029
0.00288217
0.00282808
0.00277765
0.00273053
0.00268642
0.00264506
0.0113579
0.0111187
0.0106546
0.0100468
0.00939296
0.00875749
0.00817148
0.00764509
0.00717794
0.0067652
0.00640062
0.00607796
0.00579148
0.00553618
0.00530775
0.00510255
0.00491749
0.00474997
0.00459776
0.00445901
0.00433211
0.00421569
0.00410859
0.00400979
0.00391842
0.00383372
0.00375502
0.00368175
0.00361339
0.0035495
0.00348968
0.00343358
0.0033809
0.0113728
0.01126
0.0110057
0.0106242
0.0101642
0.00967403
0.00918759
0.0087244
0.00829365
0.0078983
0.00753798
0.00721063
0.0069135
0.00664366
0.00639828
0.00617472
0.00597059
0.00578378
0.00561241
0.00545483
0.00530959
0.00517543
0.00505122
0.00493598
0.00482886
0.00472909
0.00463599
0.00454896
0.00446749
0.00439109
0.00431934
0.00425187
0.00418836
0.0113787
0.0113266
0.011194
0.0109703
0.0106711
0.0103231
0.00995189
0.00957698
0.00921101
0.0088614
0.00853191
0.00822401
0.00793771
0.00767228
0.00742652
0.00719905
0.00698847
0.00679335
0.00661239
0.00644434
0.00628807
0.00614255
0.00600685
0.00588011
0.00576157
0.00565055
0.00554642
0.00544863
0.00535668
0.0052701
0.0051885
0.0051115
0.00503878
0.0113809
0.0113572
0.0112906
0.0111664
0.010984
0.0107537
0.0104904
0.0102084
0.00991919
0.00963123
0.00935017
0.00907955
0.00882139
0.00857664
0.00834558
0.00812803
0.00792354
0.0077315
0.00755122
0.00738198
0.00722304
0.0070737
0.0069333
0.00680118
0.00667677
0.00655951
0.00644889
0.00634445
0.00624575
0.00615239
0.00606402
0.0059803
0.00590093
0.0113818
0.0113708
0.0113383
0.0112723
0.0111671
0.0110237
0.0108485
0.0106497
0.0104355
0.0102131
0.00998805
0.00976448
0.00954535
0.00933266
0.00912766
0.00893107
0.00874325
0.00856428
0.00839405
0.00823234
0.00807884
0.00793319
0.00779502
0.00766395
0.00753959
0.00742156
0.0073095
0.00720306
0.00710191
0.00700575
0.00691428
0.00682724
0.00674437
0.0113822
0.0113768
0.0113611
0.0113273
0.0112692
0.0111846
0.0110744
0.0109422
0.0107927
0.0106308
0.0104607
0.0102863
0.0101105
0.00993552
0.00976319
0.0095947
0.00943092
0.0092724
0.0091195
0.00897238
0.00883112
0.00869567
0.00856592
0.00844175
0.00832296
0.00820936
0.00810075
0.00799692
0.00789766
0.00780275
0.007712
0.00762521
0.00754219
0.0113823
0.0113794
0.0113717
0.0113547
0.0113238
0.011276
0.0112101
0.0111268
0.0110279
0.0109162
0.0107945
0.0106655
0.0105317
0.0103951
0.0102574
0.0101201
0.00998406
0.00985026
0.00971926
0.00959151
0.00946732
0.00934688
0.00923032
0.0091177
0.00900901
0.00890422
0.00880327
0.00870609
0.00861256
0.0085226
0.00843607
0.00835288
0.00827289
0.0113824
0.0113805
0.0113765
0.0113679
0.0113519
0.0113259
0.0112881
0.0112379
0.0111757
0.0111025
0.0110197
0.010929
0.0108321
0.0107305
0.0106258
0.010519
0.0104112
0.0103034
0.0101961
0.01009
0.0099855
0.00988293
0.00978256
0.00968459
0.00958914
0.00949632
0.00940617
0.00931873
0.00923398
0.00915191
0.00907249
0.00899568
0.00892141
0.0113824
0.0113809
0.0113786
0.0113741
0.0113658
0.0113519
0.011331
0.0113021
0.0112646
0.0112187
0.011165
0.0111041
0.0110372
0.0109652
0.0108891
0.0108098
0.0107282
0.0106451
0.010561
0.0104765
0.0103922
0.0103084
0.0102255
0.0101436
0.0100631
0.00998399
0.00990652
0.00983076
0.00975678
0.00968463
0.00961434
0.00954593
0.00947938
0.0113824
0.0113811
0.0113795
0.0113769
0.0113724
0.0113651
0.0113537
0.0113375
0.0113158
0.0112882
0.0112548
0.0112157
0.0111715
0.0111227
0.0110698
0.0110135
0.0109543
0.0108929
0.0108297
0.0107653
0.0107
0.0106342
0.0105683
0.0105025
0.010437
0.0103722
0.010308
0.0102447
0.0101824
0.0101212
0.0100611
0.0100022
0.0099446
0.0113824
0.0113812
0.0113798
0.0113781
0.0113755
0.0113714
0.0113653
0.0113563
0.011344
0.011328
0.011308
0.0112839
0.0112559
0.0112241
0.0111889
0.0111505
0.0111093
0.0110657
0.0110202
0.0109729
0.0109243
0.0108746
0.0108242
0.0107732
0.010722
0.0106706
0.0106193
0.0105682
0.0105175
0.0104672
0.0104175
0.0103684
0.01032
0.0113824
0.0113812
0.01138
0.0113786
0.0113768
0.0113744
0.0113709
0.0113659
0.011359
0.0113499
0.0113382
0.0113238
0.0113067
0.0112868
0.0112641
0.011239
0.0112114
0.0111816
0.0111499
0.0111165
0.0110816
0.0110454
0.0110081
0.0109699
0.0109311
0.0108917
0.0108519
0.010812
0.0107719
0.0107318
0.0106918
0.010652
0.0106125
0.0113824
0.0113812
0.01138
0.0113788
0.0113774
0.0113757
0.0113735
0.0113706
0.0113666
0.0113614
0.0113547
0.0113463
0.011336
0.0113238
0.0113097
0.0112937
0.0112758
0.0112561
0.0112347
0.0112117
0.0111873
0.0111616
0.0111348
0.0111069
0.0110782
0.0110487
0.0110186
0.010988
0.010957
0.0109257
0.0108942
0.0108625
0.0108308
0.0113824
0.0113812
0.01138
0.0113789
0.0113776
0.0113763
0.0113747
0.0113728
0.0113703
0.0113672
0.0113632
0.0113582
0.0113521
0.0113447
0.011336
0.0113259
0.0113143
0.0113014
0.0112871
0.0112715
0.0112546
0.0112365
0.0112174
0.0111972
0.0111761
0.0111541
0.0111315
0.0111081
0.0110842
0.0110598
0.011035
0.0110099
0.0109845
0.0113824
0.0113812
0.01138
0.0113789
0.0113777
0.0113765
0.0113752
0.0113737
0.011372
0.0113699
0.0113673
0.0113642
0.0113603
0.0113555
0.0113499
0.0113432
0.0113355
0.0113267
0.0113167
0.0113057
0.0112936
0.0112805
0.0112663
0.0112512
0.0112351
0.0112182
0.0112006
0.0111822
0.0111632
0.0111436
0.0111235
0.0111029
0.011082
0.0113824
0.0113812
0.01138
0.0113789
0.0113777
0.0113766
0.0113753
0.011374
0.0113726
0.0113709
0.0113689
0.0113665
0.0113635
0.0113599
0.0113556
0.0113504
0.0113444
0.0113375
0.0113297
0.0113208
0.011311
0.0113002
0.0112885
0.0112759
0.0112624
0.011248
0.0112329
0.0112171
0.0112006
0.0111835
0.0111658
0.0111476
0.011129
0.0113824
0.0113812
0.01138
0.0113789
0.0113777
0.0113765
0.0113753
0.011374
0.0113725
0.0113707
0.0113686
0.0113661
0.011363
0.0113593
0.0113548
0.0113496
0.0113434
0.0113364
0.0113284
0.0113194
0.0113095
0.0112986
0.0112868
0.0112741
0.0112606
0.0112462
0.0112311
0.0112152
0.0111987
0.0111816
0.011164
0.0111458
0.0111272
0.0113824
0.0113812
0.01138
0.0113789
0.0113777
0.0113764
0.011375
0.0113734
0.0113715
0.0113691
0.0113662
0.0113626
0.0113583
0.011353
0.0113468
0.0113395
0.0113312
0.0113218
0.0113113
0.0112998
0.0112872
0.0112735
0.0112589
0.0112434
0.0112271
0.0112099
0.011192
0.0111734
0.0111542
0.0111344
0.0111142
0.0110935
0.0110725
0.0113824
0.0113812
0.01138
0.0113788
0.0113775
0.011376
0.0113742
0.0113718
0.0113688
0.0113648
0.0113599
0.0113537
0.0113462
0.0113373
0.011327
0.0113153
0.0113021
0.0112875
0.0112715
0.0112543
0.0112359
0.0112164
0.0111959
0.0111744
0.0111521
0.011129
0.0111053
0.011081
0.0110562
0.011031
0.0110054
0.0109795
0.0109535
0.0113824
0.0113812
0.01138
0.0113787
0.011377
0.0113748
0.0113718
0.0113676
0.0113618
0.0113543
0.0113449
0.0113333
0.0113196
0.0113037
0.0112857
0.0112656
0.0112436
0.0112198
0.0111944
0.0111675
0.0111393
0.01111
0.0110797
0.0110486
0.0110167
0.0109843
0.0109514
0.0109182
0.0108847
0.010851
0.0108173
0.0107836
0.0107498
0.0113824
0.0113813
0.0113799
0.0113781
0.0113755
0.0113714
0.0113652
0.0113564
0.0113446
0.0113295
0.0113109
0.0112888
0.0112634
0.0112347
0.0112031
0.0111689
0.0111323
0.0110938
0.0110535
0.0110117
0.0109688
0.010925
0.0108805
0.0108355
0.0107902
0.0107447
0.0106992
0.0106538
0.0106086
0.0105637
0.0105192
0.0104751
0.0104314
0.0113825
0.0113812
0.0113794
0.0113761
0.0113704
0.0113611
0.0113472
0.0113279
0.0113028
0.011272
0.0112356
0.011194
0.0111477
0.0110974
0.0110436
0.0109871
0.0109282
0.0108677
0.0108058
0.0107431
0.0106799
0.0106166
0.0105532
0.0104902
0.0104277
0.0103658
0.0103047
0.0102444
0.0101851
0.0101268
0.0100696
0.0100135
0.00995843
0.0113825
0.0113808
0.011377
0.0113691
0.0113545
0.0113315
0.0112988
0.011256
0.0112036
0.0111424
0.0110735
0.0109982
0.0109178
0.0108335
0.0107465
0.0106576
0.0105676
0.0104773
0.0103873
0.0102978
0.0102094
0.0101223
0.0100368
0.00995291
0.00987085
0.00979069
0.00971248
0.00963627
0.00956205
0.00948984
0.00941961
0.00935133
0.00928498
0.0113825
0.0113787
0.0113679
0.0113447
0.0113054
0.011248
0.0111728
0.0110816
0.0109771
0.0108621
0.0107396
0.0106119
0.0104814
0.0103497
0.0102183
0.0100882
0.00996015
0.00983483
0.00971263
0.00959381
0.00947855
0.00936694
0.00925901
0.00915476
0.00905413
0.00895705
0.00886343
0.00877317
0.00868616
0.00860229
0.00852144
0.00844349
0.00836833
0.011382
0.0113691
0.0113325
0.0112633
0.0111587
0.0110222
0.0108601
0.0106799
0.0104883
0.010291
0.0100925
0.00989597
0.00970363
0.00951703
0.00933708
0.0091643
0.0089989
0.00884087
0.00869011
0.00854639
0.00840945
0.00827899
0.0081547
0.00803627
0.00792338
0.00781572
0.00771301
0.00761496
0.00752132
0.00743182
0.00734624
0.00726435
0.00718595
0.0113786
0.0113249
0.0111997
0.0110009
0.0107442
0.0104511
0.0101407
0.00982717
0.00952002
0.00922488
0.00894479
0.00868112
0.00843415
0.00820345
0.00798818
0.00778733
0.00759987
0.00742474
0.00726098
0.00710764
0.00696388
0.00682891
0.00670203
0.00658258
0.00646998
0.0063637
0.00626325
0.00616819
0.00607814
0.00599272
0.00591161
0.0058345
0.00576113
0.0113536
0.011126
0.0107259
0.0102229
0.00968832
0.00916705
0.00868064
0.00823688
0.00783646
0.00747677
0.00715407
0.00686443
0.00660376
0.00636828
0.00615475
0.0059604
0.00578286
0.00562011
0.00547044
0.00533237
0.00520463
0.00508614
0.00497595
0.00487324
0.00477729
0.00468747
0.00460323
0.00452406
0.00444955
0.0043793
0.00431296
0.00425023
0.00419082
0.0111683
0.0102731
0.00924316
0.00829367
0.00748992
0.00682636
0.00627847
0.00582284
0.00544041
0.00511624
0.00483928
0.00459995
0.00439098
0.00420686
0.00404337
0.00389717
0.00376565
0.00364667
0.00353852
0.00343977
0.00334924
0.00326594
0.00318905
0.00311784
0.00305171
0.00299013
0.00293266
0.0028789
0.00282849
0.00278115
0.00273659
0.00269459
0.00265493
0.00982659
0.0072389
0.00577405
0.00486951
0.00424873
0.00378755
0.00342701
0.00314024
0.00290887
0.00271813
0.00255776
0.00242093
0.00230279
0.00219976
0.00210909
0.00202868
0.00195685
0.0018923
0.00183394
0.00178091
0.00173249
0.0016881
0.00164724
0.0016095
0.00157452
0.001542
0.00151169
0.00148336
0.00145683
0.00143191
0.00140848
0.00138639
0.00136553
0.00414167
0.00254161
0.00204418
0.00174836
0.00154034
0.00137827
0.00124767
0.00114134
0.00105377
0.000980908
0.000919642
0.000867559
0.000822819
0.000784018
0.000750077
0.000720159
0.000693608
0.0006699
0.000648615
0.000629409
0.000612003
0.000596165
0.000581699
0.000568442
0.000556256
0.000545022
0.000534638
0.000525017
0.000516082
0.000507766
0.000500011
0.000492768
0.000485982
0.000119434
0.000124352
0.000129424
0.000134072
0.000138235
0.000142037
0.000145562
0.000148849
0.000151924
0.000154806
0.000157512
0.000160054
0.000162444
0.000164691
0.000166805
0.000168794
0.000170666
0.000172428
0.000174087
0.000175649
0.000177119
0.000178503
0.000179806
0.000181034
0.00018219
0.000183279
0.000184304
0.00018527
0.00018618
0.000187038
0.000187846
0.000188607
0.000189325
6.59693e-05
7.808e-05
9.78493e-05
0.00012408
0.000156004
0.000192363
0.000231907
0.000273308
0.000315214
0.000356406
0.000395989
0.000433499
0.000468883
0.000502399
0.000534465
0.000565526
0.00059596
0.000626028
0.000655875
0.000685555
0.000715068
0.0007444
0.000773546
0.000802522
0.000831365
0.000860124
0.000888853
0.000917601
0.000946409
0.00097531
0.00100433
0.00103347
0.00106276
0.00109221
0.00112181
0.00115157
0.00118152
0.00121165
0.00124198
0.00127253
0.00130333
0.00133441
0.00136582
0.00139761
0.00142985
0.00146263
0.00149602
0.00153016
0.00156515
0.00160116
0.00163835
0.00167689
0.00171699
0.00175885
0.00180271
0.0018488
0.00189737
0.00194866
0.00200291
0.00206033
0.00212113
0.00218549
0.00225352
0.00232533
0.00240096
0.00248039
0.00256354
0.00265029
0.00274046
0.00283382
0.00293007
0.00302891
0.00313
0.00323297
0.00333744
0.00344304
0.00354935
0.00365599
0.00376256
0.00386867
0.00397392
0.00407794
0.00418037
0.00428086
0.00437911
0.00447483
0.00456775
0.00465765
0.00474432
0.00482758
0.00490729
0.00498331
0.00505556
0.00512393
0.00518845
0.00524894
0.00530575
0.00535838
0.00540648
0.00547061
0.000121876
0.000121675
0.000123471
0.000128392
0.000136208
0.000146952
0.000160729
0.000177643
0.000197741
0.000221004
0.000247322
0.000276467
0.000308085
0.000341703
0.00037677
0.000412692
0.000448904
0.000484918
0.000520371
0.000555048
0.000588868
0.00062186
0.00065412
0.000685776
0.000716954
0.000747771
0.000778319
0.000808678
0.000838909
0.000869068
0.000899203
0.000929359
0.000959575
0.000989887
0.00102033
0.00105094
0.00108173
0.00111275
0.00114403
0.0011756
0.00120751
0.0012398
0.00127253
0.00130576
0.00133959
0.00137409
0.00140938
0.00144557
0.00148282
0.00152127
0.00156111
0.00160252
0.0016457
0.00169089
0.00173831
0.00178819
0.00184077
0.00189628
0.00195493
0.00201691
0.00208238
0.00215146
0.00222424
0.00230074
0.00238094
0.00246475
0.00255205
0.00264266
0.00273635
0.00283284
0.00293183
0.00303301
0.00313603
0.00324054
0.0033462
0.00345265
0.00355954
0.00366652
0.00377324
0.00387935
0.00398451
0.00408838
0.00419065
0.00429101
0.00438917
0.00448488
0.00457789
0.00466798
0.00475495
0.00483864
0.00491889
0.00499558
0.00506859
0.00513784
0.00520332
0.00526486
0.00532279
0.00537663
0.00542586
0.0054918
0.00024004
0.000235414
0.000230586
0.000226142
0.000222693
0.000220736
0.000220475
0.000222045
0.000225691
0.000231699
0.000240351
0.00025188
0.000266446
0.000284101
0.000304784
0.000328318
0.000354425
0.000382747
0.000412875
0.00044438
0.000476842
0.000509879
0.000543166
0.000576454
0.000609567
0.000642406
0.000674933
0.000707156
0.000739118
0.000770875
0.000802493
0.000834037
0.00086557
0.00089715
0.000928833
0.000960673
0.00099272
0.00102503
0.00105765
0.00109065
0.00112408
0.00115801
0.00119251
0.00122769
0.00126362
0.00130042
0.00133822
0.00137716
0.00141739
0.00145907
0.00150241
0.00154759
0.00159483
0.00164435
0.00169637
0.0017511
0.00180876
0.00186954
0.0019336
0.00200107
0.00207207
0.00214662
0.00222474
0.00230638
0.00239144
0.00247977
0.00257116
0.0026654
0.0027622
0.00286128
0.00296231
0.003065
0.003169
0.00327401
0.00337973
0.00348584
0.00359205
0.00369809
0.00380365
0.00390845
0.00401221
0.00411465
0.00421551
0.00431451
0.00441141
0.00450598
0.00459801
0.00468727
0.0047736
0.00485682
0.00493678
0.00501335
0.00508642
0.00515587
0.0052217
0.00528373
0.00534225
0.00539683
0.00544675
0.00551394
0.000435155
0.000426902
0.00041879
0.000410914
0.000403401
0.000396343
0.000389811
0.000383904
0.0003787
0.000374253
0.000370682
0.000368192
0.00036707
0.000367666
0.000370364
0.000375531
0.000383472
0.000394383
0.000408334
0.000425257
0.000444971
0.000467207
0.00049164
0.000517926
0.000545724
0.000574722
0.000604644
0.000635259
0.000666388
0.000697897
0.000729699
0.000761744
0.000794012
0.00082651
0.000859263
0.000892311
0.0009257
0.00095949
0.000993742
0.00102853
0.00106393
0.00110002
0.0011369
0.00117468
0.00121347
0.00125339
0.0012946
0.00133724
0.00138148
0.0014275
0.00147549
0.00152564
0.00157815
0.00163323
0.00169105
0.00175181
0.00181564
0.00188269
0.00195304
0.00202676
0.00210384
0.00218426
0.00226792
0.00235469
0.00244439
0.00253681
0.0026317
0.00272877
0.00282774
0.0029283
0.00303015
0.00313299
0.00323654
0.00334054
0.00344473
0.00354888
0.00365276
0.00375617
0.0038589
0.00396073
0.00406145
0.00416085
0.00425872
0.00435485
0.00444904
0.00454109
0.00463081
0.004718
0.00480251
0.00488416
0.0049628
0.00503829
0.00511052
0.00517936
0.00524478
0.0053066
0.00536509
0.00541981
0.0054699
0.00553764
0.000691651
0.000679406
0.000667533
0.000656177
0.000645426
0.000635269
0.000625654
0.000616522
0.000607862
0.000599629
0.00059177
0.00058426
0.000577116
0.000570413
0.000564286
0.000558938
0.000554632
0.000551679
0.00055042
0.000551189
0.00055429
0.00055996
0.000568348
0.000579512
0.000593413
0.000609936
0.000628907
0.000650115
0.000673334
0.000698338
0.000724918
0.00075289
0.000782099
0.000812422
0.000843768
0.000876078
0.000909319
0.000943485
0.000978593
0.00101468
0.0010518
0.00109002
0.00112943
0.00117014
0.00121225
0.00125589
0.0013012
0.00134833
0.00139745
0.0014487
0.00150227
0.00155831
0.00161698
0.00167844
0.00174281
0.0018102
0.00188069
0.00195432
0.0020311
0.00211098
0.00219388
0.00227967
0.00236818
0.00245921
0.0025525
0.00264778
0.00274478
0.00284318
0.0029427
0.00304302
0.00314389
0.00324503
0.00334621
0.00344723
0.0035479
0.00364808
0.00374762
0.00384639
0.00394427
0.00404114
0.00413687
0.00423132
0.00432435
0.00441581
0.00450555
0.00459342
0.00467925
0.00476288
0.00484416
0.00492291
0.00499899
0.00507226
0.00514258
0.00520982
0.00527392
0.00533469
0.00539236
0.00544653
0.00549615
0.00556361
0.00102162
0.00100382
0.000986673
0.000970314
0.000954848
0.000940273
0.000926529
0.000913527
0.00090119
0.000889445
0.00087821
0.000867416
0.000857019
0.000847001
0.000837373
0.000828178
0.000819493
0.000811428
0.000804127
0.000797767
0.000792552
0.000788706
0.000786466
0.000786064
0.000787716
0.000791609
0.000797888
0.00080665
0.000817941
0.00083176
0.000848066
0.00086679
0.000887839
0.000911115
0.000936516
0.000963952
0.000993342
0.00102463
0.00105776
0.00109273
0.00112953
0.00116818
0.00120871
0.0012512
0.00129571
0.00134233
0.00139116
0.0014423
0.00149587
0.00155198
0.00161074
0.00167226
0.00173662
0.0018039
0.00187415
0.00194738
0.00202357
0.00210269
0.00218464
0.00226929
0.00235647
0.00244597
0.00253755
0.00263094
0.00272584
0.00282196
0.00291898
0.00301658
0.00311448
0.0032124
0.00331008
0.00340731
0.00350392
0.00359975
0.00369471
0.0037887
0.00388169
0.00397362
0.00406448
0.00415422
0.00424281
0.00433019
0.00441632
0.0045011
0.00458445
0.00466625
0.0047464
0.00482475
0.00490116
0.00497549
0.00504757
0.00511726
0.00518442
0.00524888
0.00531059
0.00536932
0.00542526
0.00547803
0.00552644
0.00559261
0.00144366
0.00141791
0.0013932
0.00136965
0.00134734
0.00132626
0.00130635
0.00128753
0.0012697
0.00125277
0.00123665
0.00122128
0.00120659
0.00119255
0.00117917
0.00116645
0.00115443
0.00114316
0.0011327
0.00112314
0.00111454
0.00110703
0.00110071
0.00109571
0.00109216
0.00109022
0.00109003
0.00109174
0.00109551
0.00110146
0.00110972
0.00112038
0.00113353
0.00114921
0.00116747
0.00118834
0.00121182
0.00123791
0.00126662
0.00129795
0.0013319
0.00136848
0.00140772
0.00144964
0.00149427
0.00154165
0.00159184
0.00164488
0.00170082
0.00175971
0.00182157
0.00188645
0.00195434
0.00202522
0.00209907
0.0021758
0.00225532
0.00233749
0.00242213
0.00250904
0.00259796
0.00268864
0.00278076
0.00287401
0.00296806
0.00306257
0.00315722
0.00325168
0.00334567
0.00343893
0.00353122
0.00362238
0.00371227
0.0038008
0.00388792
0.00397364
0.00405797
0.00414096
0.00422268
0.00430317
0.00438251
0.00446072
0.00453785
0.00461388
0.0046888
0.00476256
0.00483509
0.0049063
0.00497607
0.00504426
0.00511073
0.00517532
0.00523788
0.00529825
0.00535632
0.00541186
0.005465
0.00551538
0.00556171
0.00562542
0.00196961
0.00193332
0.00189858
0.00186545
0.00183396
0.00180411
0.00177582
0.00174901
0.00172357
0.00169941
0.00167644
0.00165458
0.00163377
0.00161398
0.00159521
0.00157747
0.00156079
0.00154523
0.00153082
0.00151762
0.0015057
0.00149511
0.00148591
0.00147817
0.00147195
0.00146733
0.00146437
0.00146318
0.00146384
0.00146645
0.00147112
0.00147796
0.00148708
0.00149858
0.00151258
0.00152916
0.00154843
0.00157046
0.00159533
0.00162311
0.00165387
0.00168764
0.00172449
0.00176446
0.00180758
0.00185388
0.0019034
0.00195615
0.00201215
0.00207137
0.00213381
0.00219943
0.00226816
0.00233992
0.00241461
0.00249206
0.00257211
0.00265455
0.00273913
0.00282558
0.0029136
0.00300286
0.00309302
0.00318371
0.00327457
0.00336524
0.00345537
0.00354465
0.00363277
0.00371949
0.00380459
0.00388792
0.00396939
0.00404893
0.00412657
0.00420234
0.00427634
0.00434869
0.00441953
0.00448901
0.00455728
0.00462448
0.00469072
0.00475609
0.00482066
0.00488446
0.00494748
0.00500968
0.00507097
0.00513126
0.00519041
0.00524828
0.0053047
0.00535951
0.00541256
0.00546363
0.00551278
0.00555967
0.00560293
0.00566284
0.00259995
0.00255106
0.00250426
0.00245953
0.0024169
0.00237632
0.00233772
0.002301
0.00226607
0.00223282
0.00220116
0.00217101
0.00214231
0.00211502
0.00208915
0.0020647
0.00204171
0.00202023
0.00200031
0.001982
0.00196536
0.00195045
0.00193732
0.001926
0.00191656
0.00190902
0.00190343
0.00189982
0.00189825
0.00189876
0.00190142
0.00190629
0.00191345
0.00192296
0.00193493
0.00194944
0.00196658
0.00198645
0.00200915
0.00203477
0.00206339
0.0020951
0.00212997
0.00216806
0.00220943
0.00225411
0.00230214
0.00235352
0.00240825
0.00246631
0.00252763
0.00259216
0.00265978
0.00273037
0.00280377
0.00287978
0.00295817
0.00303869
0.00312104
0.0032049
0.00328994
0.00337577
0.00346202
0.0035483
0.00363421
0.00371939
0.00380346
0.00388609
0.00396699
0.00404589
0.00412261
0.004197
0.00426898
0.00433851
0.00440564
0.00447046
0.0045331
0.00459375
0.0046526
0.00470988
0.00476583
0.00482067
0.00487461
0.00492783
0.00498049
0.0050327
0.00508453
0.00513602
0.00518714
0.00523783
0.00528799
0.0053375
0.00538621
0.00543393
0.00548053
0.00552575
0.00556962
0.00561179
0.00565091
0.00570554
0.00332334
0.00326086
0.00320092
0.00314349
0.00308855
0.00303605
0.00298591
0.00293802
0.00289231
0.00284867
0.002807
0.00276723
0.00272929
0.00269315
0.00265881
0.00262628
0.00259559
0.00256678
0.00253992
0.00251506
0.00249226
0.00247158
0.00245307
0.00243678
0.00242275
0.002411
0.00240158
0.0023945
0.00238979
0.00238747
0.00238758
0.00239014
0.00239519
0.00240277
0.00241294
0.00242575
0.00244127
0.00245956
0.0024807
0.00250476
0.00253182
0.00256195
0.00259521
0.00263167
0.00267138
0.00271436
0.00276066
0.00281025
0.00286314
0.00291928
0.0029786
0.00304101
0.00310638
0.00317456
0.00324536
0.00331854
0.00339386
0.00347102
0.0035497
0.00362955
0.0037102
0.00379125
0.0038723
0.00395294
0.00403276
0.00411137
0.00418841
0.00426351
0.0043364
0.00440681
0.00447454
0.00453945
0.00460148
0.00466059
0.00471685
0.00477037
0.0048213
0.00486987
0.00491632
0.00496092
0.00500398
0.00504579
0.00508665
0.00512683
0.00516656
0.00520606
0.00524549
0.00528495
0.0053245
0.00536415
0.00540385
0.00544351
0.00548302
0.0055222
0.00556091
0.00559892
0.00563618
0.00567237
0.00570622
0.00575397
0.00411877
0.00404303
0.00397014
0.00390007
0.00383277
0.00376819
0.00370625
0.00364687
0.00358996
0.00353543
0.00348319
0.00343317
0.00338532
0.0033396
0.00329601
0.00325457
0.0032153
0.00317825
0.00314347
0.00311103
0.00308099
0.0030534
0.00302833
0.00300583
0.00298594
0.00296869
0.00295411
0.00294224
0.00293308
0.00292665
0.00292297
0.00292206
0.00292391
0.00292856
0.00293603
0.00294635
0.00295954
0.00297565
0.00299471
0.00301678
0.00304189
0.00307009
0.00310143
0.00313593
0.00317364
0.00321455
0.00325869
0.00330603
0.00335653
0.00341015
0.00346679
0.00352634
0.00358865
0.00365355
0.00372083
0.00379024
0.00386151
0.00393432
0.00400833
0.00408318
0.00415848
0.00423382
0.00430879
0.00438296
0.00445594
0.00452731
0.00459671
0.00466378
0.00472825
0.00478984
0.00484836
0.00490367
0.0049557
0.00500444
0.00504994
0.00509231
0.00513172
0.00516841
0.00520264
0.00523472
0.00526498
0.00529378
0.00532147
0.00534838
0.00537484
0.00540113
0.00542752
0.00545418
0.00548127
0.00550886
0.00553699
0.00556563
0.0055947
0.00562407
0.00565362
0.00568313
0.00571253
0.00574151
0.00576896
0.00580823
0.00495884
0.00487152
0.00478716
0.00470573
0.0046272
0.0045515
0.00447859
0.00440839
0.00434083
0.00427584
0.00421335
0.0041533
0.00409566
0.00404038
0.00398749
0.00393698
0.0038889
0.00384329
0.00380021
0.00375971
0.00372187
0.00368675
0.00365441
0.00362491
0.00359829
0.0035746
0.00355388
0.00353614
0.00352141
0.0035097
0.00350104
0.00349541
0.00349284
0.00349333
0.00349689
0.00350352
0.00351323
0.00352604
0.00354196
0.00356101
0.00358321
0.00360856
0.00363709
0.00366879
0.00370368
0.00374173
0.00378293
0.00382722
0.00387457
0.00392487
0.00397803
0.0040339
0.00409233
0.00415311
0.00421603
0.0042808
0.00434716
0.00441476
0.00448326
0.00455228
0.00462143
0.00469029
0.00475846
0.00482552
0.00489104
0.00495465
0.00501597
0.00507467
0.00513045
0.00518307
0.00523232
0.00527809
0.00532028
0.00535889
0.00539397
0.00542562
0.00545402
0.00547938
0.00550199
0.00552216
0.00554023
0.00555657
0.00557157
0.00558562
0.00559909
0.00561234
0.00562568
0.0056394
0.00565372
0.0056688
0.00568476
0.00570163
0.00571942
0.00573806
0.00575745
0.00577741
0.00579788
0.00581855
0.00583858
0.00586785
0.00581334
0.00571725
0.00562402
0.00553361
0.00544602
0.0053612
0.00527913
0.00519976
0.00512304
0.00504893
0.00497738
0.00490836
0.00484184
0.0047778
0.00471627
0.00465727
0.00460082
0.004547
0.00449585
0.00444744
0.00440184
0.00435912
0.00431935
0.00428258
0.00424888
0.0042183
0.00419087
0.00416663
0.00414561
0.00412783
0.0041133
0.00410203
0.00409404
0.00408931
0.00408786
0.00408967
0.00409476
0.00410312
0.00411474
0.00412961
0.00414774
0.00416911
0.00419372
0.00422153
0.00425252
0.00428665
0.00432387
0.00436412
0.0044073
0.0044533
0.004502
0.00455324
0.00460683
0.00466256
0.00472017
0.0047794
0.00483994
0.00490145
0.00496358
0.00502595
0.00508816
0.00514981
0.00521048
0.00526977
0.00532727
0.00538261
0.00543543
0.00548541
0.00553226
0.00557576
0.00561571
0.00565198
0.00568451
0.00571328
0.00573834
0.00575978
0.00577777
0.00579252
0.00580429
0.00581337
0.00582013
0.00582491
0.00582812
0.00583016
0.00583143
0.00583232
0.00583321
0.00583442
0.00583625
0.00583895
0.0058427
0.00584762
0.00585379
0.00586121
0.00586983
0.00587955
0.0058903
0.00590181
0.00591361
0.00593158
0.00665251
0.00655127
0.00645254
0.00635633
0.00626265
0.0061715
0.00608288
0.00599677
0.00591315
0.00583202
0.00575334
0.00567712
0.00560335
0.00553205
0.00546323
0.00539695
0.00533323
0.00527215
0.00521378
0.00515818
0.00510543
0.00505561
0.00500878
0.00496503
0.00492442
0.00488699
0.00485281
0.00482192
0.00479435
0.00477013
0.00474928
0.00473183
0.00471777
0.00470712
0.00469987
0.00469603
0.00469558
0.00469852
0.00470484
0.0047145
0.0047275
0.00474381
0.00476338
0.00478619
0.00481218
0.00484128
0.00487342
0.00490851
0.00494644
0.00498707
0.00503025
0.0050758
0.00512351
0.00517316
0.00522447
0.00527717
0.00533093
0.00538542
0.00544028
0.00549513
0.00554957
0.00560322
0.00565567
0.00570652
0.00575539
0.00580192
0.00584577
0.00588665
0.00592428
0.00595845
0.00598899
0.00601578
0.00603876
0.00605791
0.00607329
0.00608498