/*--------------------------------*- C++ -*----------------------------------*\
| =========                 |                                                 |
| \\      /  F ield         | OpenFOAM: The Open Source CFD Toolbox           |
|  \\    /   O peration     | Version:  4.1                                   |
|   \\  /    A nd           | Web:      www.OpenFOAM.org                      |
|    \\/     M anipulation  |                                                 |
\*---------------------------------------------------------------------------*/
FoamFile
{
    version     2.0;
    format      ascii;
    class       volScalarField;
    location    "1200";
    object      p;
}
// * * * * * * * * * * * * * * * * * * * * * * * * * * * * * * * * * * * * * //

dimensions      [0 2 -2 0 0 0 0];

internalField   nonuniform List<scalar> 
6820
(
6.1578
-4.54112
-8.06774
-8.81297
-9.20558
-9.53682
-9.72519
-9.81851
-9.88141
-9.93409
-9.97715
-10.0122
-10.0424
-10.0696
-10.0944
-10.1173
-10.1387
-10.1589
-10.1781
-10.1964
-10.214
-10.2311
-10.2475
-10.2635
-10.279
-10.2941
-10.3087
-10.3227
-10.3359
-10.3482
-10.3586
-10.3686
-10.3651
-15.5614
-12.0142
-11.2124
-10.408
-10.0249
-9.94268
-9.92876
-9.92388
-9.93589
-9.96097
-9.98908
-10.0161
-10.042
-10.0669
-10.0906
-10.113
-10.1343
-10.1545
-10.1738
-10.1924
-10.2102
-10.2274
-10.2441
-10.2603
-10.2761
-10.2914
-10.3062
-10.3206
-10.3344
-10.3476
-10.3595
-10.372
-10.3776
-13.371
-9.86304
-9.60095
-9.59069
-9.57801
-9.66854
-9.76173
-9.82397
-9.87459
-9.92176
-9.96323
-9.99868
-10.0299
-10.0581
-10.0839
-10.1076
-10.1298
-10.1505
-10.1702
-10.189
-10.207
-10.2244
-10.2411
-10.2574
-10.2733
-10.2887
-10.3037
-10.3184
-10.3325
-10.3464
-10.3595
-10.3732
-10.3842
-10.9441
-9.47318
-9.62365
-9.73397
-9.71408
-9.76319
-9.82731
-9.87091
-9.90712
-9.94316
-9.97684
-10.007
-10.0346
-10.0603
-10.0844
-10.1069
-10.1282
-10.1484
-10.1677
-10.1863
-10.2041
-10.2214
-10.2382
-10.2545
-10.2705
-10.286
-10.3013
-10.3162
-10.3309
-10.3454
-10.3597
-10.3746
-10.3889
-10.4918
-9.77724
-9.81589
-9.82679
-9.77729
-9.79919
-9.84568
-9.88191
-9.91428
-9.94745
-9.97924
-10.0084
-10.0353
-10.0604
-10.0841
-10.1064
-10.1274
-10.1475
-10.1666
-10.185
-10.2028
-10.22
-10.2367
-10.253
-10.269
-10.2846
-10.3
-10.3152
-10.3302
-10.3452
-10.3603
-10.3761
-10.3924
-10.4111
-9.9314
-9.88336
-9.85737
-9.81351
-9.82679
-9.86329
-9.89532
-9.92526
-9.95592
-9.98557
-10.0131
-10.0388
-10.0631
-10.0859
-10.1075
-10.1281
-10.1477
-10.1665
-10.1847
-10.2022
-10.2193
-10.2359
-10.2521
-10.268
-10.2836
-10.2991
-10.3144
-10.3297
-10.3452
-10.3609
-10.3774
-10.3949
-10.2881
-9.96177
-9.90748
-9.88201
-9.8488
-9.85681
-9.88465
-9.91192
-9.93867
-9.96633
-9.9935
-10.0192
-10.0436
-10.0667
-10.0886
-10.1095
-10.1295
-10.1487
-10.1671
-10.1849
-10.2022
-10.2191
-10.2355
-10.2516
-10.2675
-10.2831
-10.2986
-10.3141
-10.3296
-10.3453
-10.3614
-10.3783
-10.3963
-10.1792
-9.97373
-9.92903
-9.90678
-9.8809
-9.88515
-9.90608
-9.92891
-9.95253
-9.97736
-10.0022
-10.0261
-10.049
-10.071
-10.092
-10.1122
-10.1316
-10.1502
-10.1683
-10.1857
-10.2028
-10.2194
-10.2356
-10.2516
-10.2673
-10.2829
-10.2984
-10.3139
-10.3295
-10.3453
-10.3616
-10.3787
-10.3968
-10.1082
-9.98451
-9.94698
-9.92707
-9.90722
-9.90967
-9.92582
-9.94513
-9.96607
-9.98843
-10.0111
-10.0333
-10.0549
-10.0758
-10.0959
-10.1153
-10.134
-10.1522
-10.1698
-10.1869
-10.2036
-10.2199
-10.236
-10.2518
-10.2674
-10.2829
-10.2983
-10.3138
-10.3294
-10.3452
-10.3616
-10.3786
-10.3965
-10.0638
-9.99113
-9.95998
-9.94295
-9.92843
-9.9304
-9.9434
-9.96007
-9.97881
-9.99907
-10.0199
-10.0406
-10.0609
-10.0807
-10.0999
-10.1186
-10.1367
-10.1543
-10.1715
-10.1882
-10.2046
-10.2207
-10.2365
-10.2521
-10.2675
-10.2829
-10.2982
-10.3136
-10.3291
-10.3449
-10.3611
-10.3778
-10.3954
-10.0361
-9.99448
-9.96979
-9.95592
-9.94576
-9.94785
-9.9588
-9.9735
-9.99044
-10.009
-10.0282
-10.0475
-10.0667
-10.0855
-10.1039
-10.1219
-10.1394
-10.1565
-10.1732
-10.1896
-10.2056
-10.2214
-10.237
-10.2524
-10.2676
-10.2828
-10.298
-10.3132
-10.3286
-10.3442
-10.3601
-10.3765
-10.3935
-10.0196
-9.99657
-9.97786
-9.96698
-9.96018
-9.96259
-9.97219
-9.98539
-10.0009
-10.0179
-10.0358
-10.0539
-10.072
-10.09
-10.1076
-10.1249
-10.1419
-10.1585
-10.1748
-10.1908
-10.2065
-10.222
-10.2373
-10.2524
-10.2675
-10.2825
-10.2974
-10.3125
-10.3276
-10.3429
-10.3586
-10.3745
-10.3909
-10.0108
-9.99853
-9.9849
-9.97669
-9.97242
-9.97521
-9.98386
-9.99589
-10.0101
-10.0259
-10.0426
-10.0597
-10.0769
-10.094
-10.1109
-10.1276
-10.144
-10.1602
-10.1761
-10.1917
-10.2071
-10.2223
-10.2373
-10.2522
-10.267
-10.2818
-10.2965
-10.3113
-10.3261
-10.3412
-10.3564
-10.3718
-10.3875
-10.007
-10.0009
-9.99131
-9.9854
-9.98305
-9.98619
-9.99414
-10.0052
-10.0184
-10.0331
-10.0487
-10.0648
-10.0811
-10.0975
-10.1138
-10.1299
-10.1458
-10.1615
-10.177
-10.1922
-10.2073
-10.2222
-10.237
-10.2516
-10.2661
-10.2806
-10.2951
-10.3096
-10.3241
-10.3387
-10.3535
-10.3684
-10.3834
-10.0066
-10.0038
-9.99735
-9.99335
-9.99246
-9.99588
-10.0033
-10.0135
-10.0258
-10.0395
-10.0541
-10.0694
-10.0849
-10.1005
-10.1162
-10.1317
-10.1471
-10.1624
-10.1775
-10.1924
-10.2071
-10.2217
-10.2361
-10.2505
-10.2647
-10.2789
-10.2931
-10.3072
-10.3214
-10.3356
-10.3499
-10.3642
-10.3786
-10.0084
-10.0073
-10.0032
-10.0007
-10.0009
-10.0046
-10.0115
-10.021
-10.0324
-10.0452
-10.059
-10.0734
-10.0881
-10.1031
-10.1181
-10.1331
-10.148
-10.1628
-10.1775
-10.192
-10.2064
-10.2207
-10.2348
-10.2489
-10.2628
-10.2767
-10.2905
-10.3043
-10.3181
-10.3318
-10.3456
-10.3593
-10.373
-10.0115
-10.0112
-10.0088
-10.0076
-10.0086
-10.0124
-10.019
-10.0278
-10.0384
-10.0504
-10.0633
-10.0769
-10.0909
-10.1052
-10.1196
-10.134
-10.1485
-10.1628
-10.1771
-10.1913
-10.2053
-10.2193
-10.2331
-10.2468
-10.2604
-10.2739
-10.2874
-10.3008
-10.3141
-10.3274
-10.3406
-10.3538
-10.3668
-10.0155
-10.0156
-10.0144
-10.0141
-10.0156
-10.0195
-10.0257
-10.034
-10.0438
-10.055
-10.0671
-10.08
-10.0933
-10.1069
-10.1207
-10.1346
-10.1486
-10.1625
-10.1763
-10.1901
-10.2038
-10.2174
-10.2308
-10.2442
-10.2575
-10.2706
-10.2837
-10.2967
-10.3096
-10.3224
-10.335
-10.3476
-10.36
-10.0201
-10.0203
-10.0198
-10.0202
-10.0221
-10.026
-10.0319
-10.0396
-10.0487
-10.0592
-10.0705
-10.0826
-10.0953
-10.1082
-10.1215
-10.1349
-10.1483
-10.1618
-10.1752
-10.1886
-10.2018
-10.215
-10.2282
-10.2411
-10.254
-10.2668
-10.2795
-10.292
-10.3045
-10.3168
-10.3289
-10.3409
-10.3527
-10.0249
-10.0251
-10.0251
-10.0259
-10.0281
-10.0319
-10.0375
-10.0446
-10.0532
-10.0629
-10.0735
-10.0849
-10.0969
-10.1093
-10.1219
-10.1347
-10.1477
-10.1607
-10.1737
-10.1866
-10.1995
-10.2124
-10.2251
-10.2377
-10.2502
-10.2626
-10.2748
-10.2869
-10.2989
-10.3107
-10.3223
-10.3337
-10.3449
-10.0298
-10.03
-10.0304
-10.0314
-10.0337
-10.0373
-10.0425
-10.0491
-10.0571
-10.0661
-10.0761
-10.0868
-10.0982
-10.1099
-10.122
-10.1343
-10.1468
-10.1593
-10.1718
-10.1844
-10.1969
-10.2093
-10.2216
-10.2338
-10.2459
-10.2579
-10.2697
-10.2814
-10.2928
-10.3041
-10.3152
-10.3261
-10.3368
-10.0348
-10.035
-10.0355
-10.0366
-10.0388
-10.0422
-10.047
-10.0531
-10.0605
-10.0689
-10.0782
-10.0883
-10.099
-10.1102
-10.1217
-10.1335
-10.1455
-10.1576
-10.1697
-10.1818
-10.1939
-10.2059
-10.2179
-10.2297
-10.2414
-10.2529
-10.2643
-10.2755
-10.2865
-10.2973
-10.3078
-10.3182
-10.3283
-10.0398
-10.04
-10.0405
-10.0415
-10.0435
-10.0467
-10.051
-10.0566
-10.0634
-10.0712
-10.0799
-10.0894
-10.0995
-10.1101
-10.1211
-10.1324
-10.1439
-10.1556
-10.1672
-10.179
-10.1906
-10.2023
-10.2138
-10.2252
-10.2364
-10.2476
-10.2585
-10.2692
-10.2798
-10.2901
-10.3001
-10.3099
-10.3195
-10.0448
-10.0449
-10.0453
-10.0462
-10.0479
-10.0506
-10.0545
-10.0595
-10.0657
-10.0729
-10.081
-10.09
-10.0995
-10.1096
-10.1201
-10.131
-10.142
-10.1532
-10.1645
-10.1758
-10.1871
-10.1983
-10.2094
-10.2204
-10.2313
-10.242
-10.2525
-10.2627
-10.2728
-10.2826
-10.2922
-10.3015
-10.3105
-10.0498
-10.0499
-10.0501
-10.0507
-10.0519
-10.0541
-10.0574
-10.0619
-10.0674
-10.0741
-10.0816
-10.09
-10.099
-10.1087
-10.1187
-10.1291
-10.1397
-10.1505
-10.1614
-10.1723
-10.1832
-10.194
-10.2048
-10.2154
-10.2258
-10.2361
-10.2462
-10.256
-10.2656
-10.275
-10.2841
-10.2929
-10.3014
-10.0549
-10.055
-10.0549
-10.0549
-10.0556
-10.0571
-10.0598
-10.0636
-10.0685
-10.0746
-10.0816
-10.0895
-10.098
-10.1072
-10.1168
-10.1268
-10.137
-10.1474
-10.1579
-10.1685
-10.179
-10.1895
-10.1998
-10.2101
-10.2201
-10.23
-10.2397
-10.2491
-10.2583
-10.2672
-10.2758
-10.2841
-10.2922
-10.0602
-10.0602
-10.0597
-10.059
-10.0588
-10.0596
-10.0615
-10.0646
-10.069
-10.0744
-10.0809
-10.0883
-10.0964
-10.1051
-10.1144
-10.124
-10.1339
-10.1439
-10.1541
-10.1643
-10.1745
-10.1846
-10.1946
-10.2045
-10.2142
-10.2237
-10.233
-10.242
-10.2507
-10.2592
-10.2674
-10.2753
-10.2828
-10.0658
-10.0658
-10.0646
-10.0629
-10.0617
-10.0615
-10.0626
-10.0649
-10.0686
-10.0735
-10.0794
-10.0864
-10.0941
-10.1025
-10.1114
-10.1207
-10.1302
-10.14
-10.1499
-10.1598
-10.1696
-10.1795
-10.1891
-10.1987
-10.208
-10.2171
-10.226
-10.2347
-10.243
-10.2511
-10.2588
-10.2663
-10.2734
-10.072
-10.072
-10.0698
-10.0667
-10.0642
-10.0628
-10.0628
-10.0643
-10.0673
-10.0716
-10.0771
-10.0836
-10.091
-10.0991
-10.1077
-10.1167
-10.126
-10.1355
-10.1452
-10.1548
-10.1644
-10.1739
-10.1833
-10.1925
-10.2015
-10.2103
-10.2189
-10.2271
-10.2351
-10.2428
-10.2502
-10.2572
-10.2639
-10.0793
-10.0792
-10.0755
-10.0704
-10.0662
-10.0633
-10.0621
-10.0626
-10.0649
-10.0686
-10.0737
-10.0799
-10.0871
-10.0949
-10.1033
-10.1121
-10.1212
-10.1305
-10.1399
-10.1493
-10.1587
-10.1679
-10.1771
-10.186
-10.1947
-10.2032
-10.2114
-10.2194
-10.227
-10.2343
-10.2413
-10.248
-10.2543
-10.0885
-10.0881
-10.082
-10.074
-10.0674
-10.0627
-10.0601
-10.0596
-10.0612
-10.0644
-10.0692
-10.0751
-10.082
-10.0897
-10.098
-10.1066
-10.1156
-10.1248
-10.134
-10.1432
-10.1524
-10.1614
-10.1703
-10.179
-10.1875
-10.1957
-10.2037
-10.2113
-10.2186
-10.2256
-10.2323
-10.2386
-10.2446
-10.101
-10.0997
-10.0895
-10.0775
-10.0678
-10.0607
-10.0565
-10.0549
-10.0558
-10.0586
-10.0631
-10.0689
-10.0757
-10.0833
-10.0915
-10.1001
-10.109
-10.1181
-10.1272
-10.1363
-10.1453
-10.1542
-10.163
-10.1715
-10.1797
-10.1877
-10.1954
-10.2028
-10.2099
-10.2166
-10.223
-10.229
-10.2347
-10.1192
-10.1155
-10.0983
-10.0803
-10.0667
-10.0568
-10.0507
-10.0481
-10.0484
-10.0509
-10.0552
-10.0609
-10.0677
-10.0754
-10.0836
-10.0922
-10.1011
-10.1102
-10.1193
-10.1284
-10.1373
-10.1461
-10.1548
-10.1631
-10.1712
-10.1791
-10.1866
-10.1938
-10.2006
-10.2072
-10.2133
-10.2191
-10.2246
-10.1496
-10.1384
-10.1078
-10.081
-10.0625
-10.0495
-10.0416
-10.0381
-10.038
-10.0403
-10.0446
-10.0505
-10.0575
-10.0652
-10.0736
-10.0824
-10.0914
-10.1006
-10.1097
-10.1189
-10.1278
-10.1367
-10.1452
-10.1536
-10.1616
-10.1694
-10.1768
-10.1839
-10.1907
-10.1971
-10.2031
-10.2088
-10.2141
-10.2046
-10.1762
-10.1211
-10.0803
-10.0541
-10.0364
-10.0265
-10.0226
-10.0225
-10.0252
-10.0302
-10.0368
-10.0444
-10.0529
-10.0618
-10.0711
-10.0805
-10.09
-10.0995
-10.1088
-10.1179
-10.1269
-10.1355
-10.1439
-10.1519
-10.1597
-10.167
-10.1741
-10.1807
-10.187
-10.1929
-10.1984
-10.2036
-10.2876
-10.2245
-10.1399
-10.0865
-10.0477
-10.0197
-10.0045
-9.99797
-9.99621
-9.99812
-10.003
-10.0101
-10.0186
-10.028
-10.0381
-10.0485
-10.0591
-10.0697
-10.0802
-10.0906
-10.1007
-10.1105
-10.12
-10.1291
-10.1378
-10.1461
-10.1541
-10.1616
-10.1687
-10.1754
-10.1816
-10.1874
-10.1928
-10.4378
-10.2043
-10.0749
-10.0616
-10.0468
-10.0293
-10.0234
-10.023
-10.0232
-10.0247
-10.028
-10.0326
-10.0382
-10.0446
-10.0517
-10.0594
-10.0674
-10.0756
-10.0839
-10.0923
-10.1007
-10.1089
-10.117
-10.1248
-10.1325
-10.1398
-10.1469
-10.1536
-10.16
-10.1661
-10.1718
-10.1772
-10.1823
-11.3941
-10.1709
-9.58057
-9.5013
-9.51444
-9.55205
-9.60755
-9.66349
-9.71416
-9.76084
-9.80383
-9.84265
-9.87738
-9.90853
-9.93658
-9.96191
-9.98484
-10.0057
-10.0247
-10.0421
-10.0581
-10.0728
-10.0864
-10.0989
-10.1105
-10.1213
-10.1312
-10.1404
-10.1489
-10.1568
-10.164
-10.1705
-10.1763
-15.1632
-12.9603
-11.9292
-11.2928
-10.8657
-10.6149
-10.453
-10.3299
-10.2376
-10.1733
-10.1297
-10.1002
-10.0808
-10.0691
-10.0631
-10.0612
-10.0623
-10.0656
-10.0705
-10.0765
-10.0832
-10.0904
-10.0978
-10.1053
-10.1129
-10.1203
-10.1275
-10.1345
-10.1412
-10.1477
-10.1538
-10.1596
-10.1652
-1.2495
-5.34216
-7.46597
-8.23849
-8.67732
-9.04103
-9.3072
-9.48345
-9.60752
-9.70341
-9.77892
-9.83789
-9.88463
-9.9228
-9.95473
-9.98186
-10.0052
-10.0257
-10.0438
-10.0601
-10.0748
-10.0881
-10.1003
-10.1116
-10.1219
-10.1315
-10.1403
-10.1484
-10.156
-10.1629
-10.1692
-10.1751
-10.1803
-10.3494
-10.1319
-10.4208
-10.6902
-10.7942
-10.8264
-10.8374
-10.8347
-10.8246
-10.8167
-10.8177
-10.831
-10.8574
-10.8966
-10.9468
-11.0054
-11.0695
-11.1362
-11.2028
-11.2667
-11.3259
-11.3786
-11.4236
-11.4599
-11.4868
-11.5041
-11.5115
-11.509
-11.4966
-11.4742
-11.4421
-11.4001
-11.3483
-11.2866
-11.2149
-11.133
-11.0409
-10.9382
-10.8249
-10.7006
-10.5653
-10.4185
-10.2602
-10.0902
-9.90835
-9.71456
-9.50889
-9.29143
-9.0624
-8.82213
-8.57107
-8.30979
-8.039
-7.75956
-7.47244
-7.17873
-6.87964
-6.57647
-6.2706
-5.96346
-5.65651
-5.35123
-5.04904
-4.75135
-4.45948
-4.17465
-3.89798
-3.63044
-3.37286
-3.12591
-2.89013
-2.66588
-2.45341
-2.25281
-2.06406
-1.88704
-1.72152
-1.56716
-1.42356
-1.29028
-1.1668
-1.0526
-0.947136
-0.849857
-0.760221
-0.677698
-0.601774
-0.531966
-0.467798
-0.408861
-0.354675
-0.305003
-0.259113
-0.217413
-0.177767
-0.143568
-0.106031
-0.082438
-0.0341055
-0.0420667
-10.3955
-10.3935
-10.5876
-10.7326
-10.7644
-10.7584
-10.7504
-10.7408
-10.7317
-10.7298
-10.7394
-10.7614
-10.7957
-10.8409
-10.8953
-10.9565
-11.022
-11.0893
-11.1558
-11.2194
-11.2781
-11.3304
-11.3749
-11.4109
-11.4376
-11.4548
-11.4621
-11.4596
-11.4472
-11.425
-11.393
-11.3511
-11.2995
-11.2379
-11.1663
-11.0847
-10.9927
-10.8904
-10.7774
-10.6535
-10.5186
-10.3724
-10.2148
-10.0456
-9.8647
-9.67204
-9.46765
-9.25167
-9.0243
-8.78587
-8.53684
-8.27778
-8.00939
-7.7325
-7.44806
-7.15714
-6.86092
-6.56068
-6.25774
-5.95351
-5.64942
-5.34689
-5.04734
-4.75214
-4.46257
-4.17985
-3.90507
-3.63919
-3.38305
-3.13731
-2.90251
-2.67903
-2.46711
-2.26688
-2.07833
-1.90135
-1.73571
-1.58111
-1.43717
-1.30345
-1.17947
-1.0647
-0.958628
-0.860707
-0.770405
-0.687201
-0.610588
-0.540087
-0.475225
-0.415597
-0.360717
-0.31036
-0.263766
-0.221407
-0.180992
-0.146295
-0.107641
-0.0845603
-0.033041
-0.0472242
-10.4079
-10.4221
-10.509
-10.6103
-10.667
-10.6956
-10.7145
-10.7246
-10.7279
-10.731
-10.7394
-10.7559
-10.782
-10.8182
-10.8639
-10.9176
-10.9771
-11.04
-11.1035
-11.1652
-11.2228
-11.2745
-11.3188
-11.3546
-11.3814
-11.3987
-11.4063
-11.4041
-11.392
-11.3702
-11.3385
-11.297
-11.2456
-11.1844
-11.1132
-11.0319
-10.9404
-10.8385
-10.726
-10.6027
-10.4685
-10.3231
-10.1663
-9.99814
-9.81839
-9.62705
-9.42417
-9.20986
-8.98435
-8.74798
-8.50119
-8.24454
-7.97872
-7.70455
-7.42296
-7.13498
-6.84177
-6.54457
-6.24469
-5.94348
-5.64234
-5.34267
-5.04584
-4.7532
-4.46601
-4.18547
-3.91265
-3.6485
-3.39384
-3.14937
-2.91559
-2.69292
-2.4816
-2.28176
-2.09342
-1.91648
-1.75073
-1.59589
-1.45159
-1.31742
-1.1929
-1.07754
-0.970818
-0.872215
-0.781205
-0.697278
-0.619931
-0.548692
-0.483091
-0.422726
-0.367109
-0.316023
-0.268685
-0.225619
-0.184409
-0.149155
-0.109405
-0.0866982
-0.0321946
-0.0521413
-10.4117
-10.4359
-10.5037
-10.5974
-10.6608
-10.6905
-10.7049
-10.7117
-10.7141
-10.7175
-10.7266
-10.744
-10.7704
-10.8057
-10.8492
-10.8993
-10.9539
-11.0111
-11.0686
-11.1244
-11.1768
-11.224
-11.2649
-11.2983
-11.3235
-11.3398
-11.3469
-11.3445
-11.3326
-11.3109
-11.2796
-11.2385
-11.1876
-11.1268
-11.0561
-10.9753
-10.8844
-10.7831
-10.6712
-10.5487
-10.4153
-10.2708
-10.1151
-9.9481
-9.76968
-9.57983
-9.37861
-9.16614
-8.94266
-8.7085
-8.46409
-8.21
-7.94689
-7.67557
-7.39694
-7.11202
-6.82193
-6.52788
-6.23115
-5.93306
-5.63496
-5.33824
-5.04422
-4.75424
-4.46952
-4.19125
-3.92047
-3.65813
-3.40505
-3.16191
-2.92923
-2.70743
-2.49675
-2.29735
-2.10926
-1.93238
-1.76653
-1.61145
-1.4668
-1.33216
-1.20709
-1.09111
-0.983715
-0.884397
-0.792643
-0.707951
-0.629827
-0.557806
-0.491421
-0.430274
-0.373875
-0.322014
-0.27389
-0.230074
-0.188036
-0.152172
-0.111327
-0.088891
-0.0315313
-0.0568648
-10.4158
-10.4467
-10.5028
-10.5751
-10.628
-10.6562
-10.6732
-10.6854
-10.6945
-10.7037
-10.7166
-10.7356
-10.7615
-10.7947
-10.8347
-10.8805
-10.9304
-10.9828
-11.0357
-11.0872
-11.1355
-11.1791
-11.2166
-11.2472
-11.2698
-11.2841
-11.2896
-11.286
-11.2732
-11.251
-11.2193
-11.1781
-11.1273
-11.0668
-10.9964
-10.9161
-10.8257
-10.7249
-10.6138
-10.492
-10.3595
-10.216
-10.0615
-9.89574
-9.71874
-9.53049
-9.33103
-9.1205
-8.89915
-8.66729
-8.42537
-8.17392
-7.91362
-7.64523
-7.36966
-7.08789
-6.80101
-6.5102
-6.21671
-5.92184
-5.62689
-5.33321
-5.04213
-4.7549
-4.47277
-4.19687
-3.92825
-3.66784
-3.41643
-3.17472
-2.94323
-2.72238
-2.51242
-2.31353
-2.12572
-1.94895
-1.78304
-1.62775
-1.48274
-1.34764
-1.22202
-1.1054
-0.99731
-0.89725
-0.804719
-0.719226
-0.640288
-0.567443
-0.500231
-0.438257
-0.381032
-0.328351
-0.2794
-0.234787
-0.191889
-0.15536
-0.113421
-0.091141
-0.0310752
-0.0613453
-10.4187
-10.4509
-10.4979
-10.5553
-10.6026
-10.6331
-10.6539
-10.6695
-10.6817
-10.6933
-10.7075
-10.7265
-10.7514
-10.7825
-10.8196
-10.8616
-10.9073
-10.9552
-11.0035
-11.0505
-11.0947
-11.1345
-11.1687
-11.1964
-11.2167
-11.229
-11.2329
-11.228
-11.2142
-11.1912
-11.159
-11.1174
-11.0664
-11.0058
-10.9355
-10.8554
-10.7652
-10.665
-10.5544
-10.4333
-10.3016
-10.1591
-10.0056
-9.84116
-9.6656
-9.47896
-9.28129
-9.07275
-8.85357
-8.62406
-8.38468
-8.13594
-7.87851
-7.61314
-7.3407
-7.06216
-6.77858
-6.49112
-6.20098
-5.90943
-5.61775
-5.32725
-5.03921
-4.75488
-4.47547
-4.20208
-3.93574
-3.67737
-3.42777
-3.18761
-2.95742
-2.73761
-2.52846
-2.33014
-2.1427
-1.9661
-1.80017
-1.64469
-1.49936
-1.36381
-1.23763
-1.12038
-1.01158
-0.910757
-0.817425
-0.731102
-0.651314
-0.577608
-0.509529
-0.446687
-0.388593
-0.335048
-0.285229
-0.239771
-0.195982
-0.158729
-0.115703
-0.0934451
-0.0308582
-0.065521
-10.4199
-10.4515
-10.4923
-10.54
-10.5823
-10.6128
-10.6349
-10.6523
-10.6668
-10.6806
-10.6964
-10.716
-10.7403
-10.7699
-10.8043
-10.843
-10.8848
-10.9284
-10.9723
-11.0149
-11.0549
-11.0908
-11.1216
-11.1462
-11.1638
-11.1739
-11.176
-11.1696
-11.1546
-11.1307
-11.0977
-11.0556
-11.0043
-10.9435
-10.8731
-10.793
-10.7031
-10.6032
-10.493
-10.3726
-10.2416
-10.1
-9.94758
-9.78434
-9.61019
-9.42514
-9.22926
-9.02271
-8.80571
-8.5786
-8.34179
-8.09582
-7.84131
-7.57902
-7.3098
-7.03458
-6.75441
-6.4704
-6.18372
-5.89562
-5.60733
-5.32014
-5.03529
-4.75399
-4.47743
-4.20669
-3.94278
-3.68659
-3.43891
-3.20042
-2.97163
-2.75298
-2.54474
-2.34708
-2.16009
-1.98371
-1.81782
-1.66221
-1.51658
-1.38061
-1.25389
-1.136
-1.02649
-0.924895
-0.830742
-0.743565
-0.662898
-0.588299
-0.519317
-0.455568
-0.396566
-0.342114
-0.291386
-0.245039
-0.200326
-0.162289
-0.118187
-0.0958024
-0.0309058
-0.0693391
-10.4199
-10.45
-10.4863
-10.5271
-10.5646
-10.5942
-10.617
-10.6358
-10.6521
-10.6678
-10.6847
-10.7046
-10.7283
-10.7563
-10.7883
-10.8239
-10.862
-10.9017
-10.9414
-10.9799
-11.0159
-11.0481
-11.0754
-11.0969
-11.1118
-11.1195
-11.1195
-11.1114
-11.0949
-11.0698
-11.036
-10.9931
-10.9412
-10.88
-10.8094
-10.7293
-10.6394
-10.5397
-10.4299
-10.31
-10.1797
-10.0389
-9.88748
-9.72541
-9.55264
-9.36916
-9.17507
-8.97051
-8.75571
-8.53101
-8.29681
-8.05365
-7.80213
-7.54299
-7.27705
-7.00524
-6.72856
-6.4481
-6.165
-5.88045
-5.59568
-5.31192
-5.03037
-4.75224
-4.47866
-4.21069
-3.94932
-3.69544
-3.44981
-3.21309
-2.98582
-2.76842
-2.56117
-2.36427
-2.17779
-2.00171
-1.83592
-1.68021
-1.53434
-1.39797
-1.27073
-1.15222
-1.042
-0.93963
-0.844647
-0.756597
-0.67503
-0.599509
-0.529592
-0.464901
-0.404953
-0.349556
-0.29788
-0.250599
-0.204933
-0.16605
-0.120885
-0.0982129
-0.0312379
-0.0727554
-10.4188
-10.4473
-10.48
-10.5156
-10.5491
-10.5773
-10.6004
-10.6201
-10.6376
-10.6545
-10.6722
-10.6922
-10.7152
-10.7416
-10.7714
-10.8041
-10.8389
-10.8748
-10.9106
-10.9452
-10.9774
-11.0059
-11.0299
-11.0483
-11.0605
-11.0657
-11.0636
-11.0537
-11.0356
-11.0092
-10.9743
-10.9305
-10.8779
-10.8162
-10.7452
-10.6648
-10.5749
-10.4752
-10.3657
-10.2462
-10.1164
-9.97638
-9.82592
-9.66499
-9.49354
-9.31161
-9.11927
-8.91669
-8.70409
-8.4818
-8.25024
-8.0099
-7.76141
-7.50546
-7.24287
-6.97452
-6.70141
-6.42457
-6.14512
-5.86422
-5.58305
-5.3028
-5.02466
-4.74979
-4.47928
-4.21419
-3.95546
-3.70397
-3.46049
-3.22564
-2.99998
-2.78392
-2.57775
-2.38167
-2.19578
-2.02005
-1.85441
-1.69867
-1.55258
-1.41585
-1.28811
-1.169
-1.05808
-0.954929
-0.859109
-0.770176
-0.687689
-0.611223
-0.540345
-0.474681
-0.413754
-0.357374
-0.304716
-0.256457
-0.209809
-0.170017
-0.123804
-0.100676
-0.031869
-0.0757331
-10.4168
-10.4436
-10.4734
-10.5049
-10.5353
-10.5619
-10.5848
-10.6048
-10.6231
-10.6407
-10.6589
-10.6788
-10.701
-10.726
-10.7537
-10.7836
-10.8152
-10.8476
-10.8797
-10.9106
-10.9391
-10.9641
-10.9847
-11.0001
-11.0096
-11.0124
-11.0081
-10.9963
-10.9767
-10.9489
-10.9127
-10.868
-10.8146
-10.7522
-10.6808
-10.6001
-10.51
-10.4104
-10.301
-10.1818
-10.0526
-9.91319
-9.76361
-9.60375
-9.43359
-9.25316
-9.06255
-8.86193
-8.65151
-8.43164
-8.2027
-7.9652
-7.71974
-7.46701
-7.20778
-6.94293
-6.67341
-6.40023
-6.12448
-5.84727
-5.56976
-5.29309
-5.01842
-4.74687
-4.47951
-4.21735
-3.96134
-3.71233
-3.47105
-3.23816
-3.01417
-2.79951
-2.59448
-2.39929
-2.21404
-2.03873
-1.87328
-1.71754
-1.57127
-1.4342
-1.306
-1.18629
-1.07468
-0.97076
-0.8741
-0.784275
-0.700855
-0.623427
-0.551564
-0.4849
-0.422964
-0.365567
-0.311894
-0.262617
-0.21496
-0.174196
-0.126952
-0.103193
-0.0328081
-0.0782446
-10.414
-10.4392
-10.4665
-10.4949
-10.5225
-10.5476
-10.5699
-10.59
-10.6086
-10.6266
-10.6449
-10.6645
-10.6859
-10.7094
-10.735
-10.7624
-10.791
-10.82
-10.8487
-10.8759
-10.9009
-10.9225
-10.9399
-10.9523
-10.959
-10.9594
-10.953
-10.9393
-10.9179
-10.8887
-10.8514
-10.8056
-10.7514
-10.6883
-10.6164
-10.5353
-10.4451
-10.3454
-10.2361
-10.1172
-9.98844
-9.84973
-9.701
-9.54219
-9.37329
-9.19435
-9.00545
-8.80676
-8.59851
-8.38103
-8.15472
-7.92006
-7.67763
-7.42811
-7.17225
-6.91091
-6.645
-6.3755
-6.10347
-5.82998
-5.55614
-5.28309
-5.01192
-4.74372
-4.47955
-4.22038
-3.96714
-3.72064
-3.48163
-3.25073
-3.02847
-2.81526
-2.61142
-2.41717
-2.2326
-2.05774
-1.89252
-1.73681
-1.5904
-1.45302
-1.32436
-1.20408
-1.09179
-0.987098
-0.889596
-0.798872
-0.714508
-0.636101
-0.563234
-0.495546
-0.432575
-0.374131
-0.319411
-0.269078
-0.220386
-0.178589
-0.130331
-0.105763
-0.0340577
-0.080272
-10.4105
-10.4341
-10.4592
-10.4851
-10.5104
-10.534
-10.5556
-10.5754
-10.594
-10.612
-10.6303
-10.6494
-10.6698
-10.6919
-10.7155
-10.7404
-10.7661
-10.792
-10.8173
-10.8412
-10.8627
-10.881
-10.8953
-10.9048
-10.9088
-10.9067
-10.8981
-10.8825
-10.8595
-10.8288
-10.7902
-10.7434
-10.6882
-10.6245
-10.552
-10.4706
-10.3801
-10.2804
-10.1712
-10.0526
-9.92428
-9.78622
-9.63833
-9.48057
-9.31293
-9.13546
-8.94827
-8.75152
-8.54544
-8.33035
-8.10666
-7.87482
-7.63543
-7.38912
-7.13663
-6.87879
-6.61649
-6.35068
-6.08236
-5.8126
-5.54246
-5.27303
-5.00538
-4.74056
-4.4796
-4.22345
-3.97299
-3.72905
-3.49233
-3.26346
-3.04296
-2.83124
-2.62863
-2.43534
-2.25149
-2.07711
-1.91215
-1.7565
-1.60996
-1.47229
-1.3432
-1.22235
-1.10938
-1.00392
-0.905577
-0.813948
-0.72863
-0.649229
-0.57534
-0.506607
-0.442576
-0.383057
-0.327263
-0.275837
-0.226086
-0.183197
-0.13394
-0.108385
-0.0356141
-0.0818082
-10.4061
-10.4283
-10.4516
-10.4754
-10.4988
-10.521
-10.5416
-10.5609
-10.5793
-10.5971
-10.615
-10.6334
-10.6529
-10.6734
-10.6951
-10.7176
-10.7407
-10.7636
-10.7857
-10.8063
-10.8246
-10.8397
-10.8509
-10.8575
-10.8589
-10.8544
-10.8435
-10.826
-10.8012
-10.7691
-10.7292
-10.6813
-10.6252
-10.5608
-10.4877
-10.4059
-10.3152
-10.2154
-10.1064
-9.98806
-9.86022
-9.72282
-9.57578
-9.41907
-9.2527
-9.07672
-8.89124
-8.69643
-8.49252
-8.27983
-8.05875
-7.82975
-7.59338
-7.35028
-7.10116
-6.84682
-6.58812
-6.32599
-6.0614
-5.79536
-5.52891
-5.2631
-4.99898
-4.73755
-4.47981
-4.22668
-3.97903
-3.73765
-3.50325
-3.27644
-3.05772
-2.84752
-2.64616
-2.45386
-2.27075
-2.09687
-1.9322
-1.77662
-1.62997
-1.49202
-1.3625
-1.24109
-1.12745
-1.02122
-0.922031
-0.829489
-0.743206
-0.662799
-0.58787
-0.518072
-0.452959
-0.392338
-0.335444
-0.282892
-0.232059
-0.188018
-0.137779
-0.11106
-0.0374674
-0.0828568
-10.4011
-10.422
-10.4436
-10.4656
-10.4873
-10.5081
-10.5278
-10.5465
-10.5644
-10.5818
-10.5991
-10.6168
-10.6351
-10.6541
-10.6739
-10.6942
-10.7146
-10.7347
-10.7538
-10.7713
-10.7864
-10.7985
-10.8067
-10.8105
-10.8093
-10.8024
-10.7894
-10.7698
-10.7434
-10.7097
-10.6685
-10.6195
-10.5625
-10.4973
-10.4237
-10.3415
-10.2506
-10.1508
-10.0419
-9.92378
-9.79642
-9.65967
-9.5135
-9.35786
-9.19277
-9.01829
-8.83453
-8.64167
-8.43995
-8.22966
-8.01121
-7.78503
-7.55169
-7.31179
-7.06603
-6.81518
-6.56008
-6.30162
-6.04073
-5.77841
-5.51565
-5.25346
-4.99285
-4.73481
-4.48029
-4.23019
-3.98536
-3.74656
-3.51449
-3.28974
-3.07282
-2.86416
-2.66406
-2.47276
-2.29041
-2.11705
-1.95267
-1.79719
-1.65044
-1.51221
-1.38226
-1.2603
-1.14599
-1.03899
-0.938947
-0.845485
-0.758226
-0.676798
-0.600813
-0.52993
-0.463714
-0.401967
-0.343948
-0.290237
-0.238301
-0.193052
-0.141842
-0.113787
-0.0396019
-0.083432
-10.3954
-10.415
-10.4352
-10.4556
-10.4758
-10.4954
-10.5141
-10.532
-10.5492
-10.566
-10.5827
-10.5994
-10.6166
-10.6341
-10.652
-10.6701
-10.6881
-10.7054
-10.7217
-10.7362
-10.7483
-10.7574
-10.7628
-10.7639
-10.76
-10.7508
-10.7356
-10.7142
-10.686
-10.6508
-10.6083
-10.5582
-10.5003
-10.4343
-10.3601
-10.2775
-10.1864
-10.0865
-9.97769
-9.85991
-9.73303
-9.59697
-9.45166
-9.29711
-9.13331
-8.96035
-8.77833
-8.58744
-8.3879
-8.18002
-7.96419
-7.74085
-7.51052
-7.27382
-7.03141
-6.78405
-6.53253
-6.27772
-6.02053
-5.76191
-5.50282
-5.24424
-4.98714
-4.73247
-4.48116
-4.23409
-3.99207
-3.75585
-3.5261
-3.30343
-3.08832
-2.88119
-2.68237
-2.49209
-2.3105
-2.13767
-1.9736
-1.81821
-1.67136
-1.53287
-1.4025
-1.27998
-1.16499
-1.05722
-0.95632
-0.861927
-0.77368
-0.691217
-0.61416
-0.542173
-0.474833
-0.411936
-0.352769
-0.297868
-0.244806
-0.198295
-0.146124
-0.116568
-0.0419971
-0.0835577
-10.389
-10.4075
-10.4264
-10.4454
-10.4643
-10.4826
-10.5004
-10.5174
-10.5338
-10.5499
-10.5657
-10.5815
-10.5973
-10.6134
-10.6295
-10.6455
-10.661
-10.6758
-10.6893
-10.701
-10.7103
-10.7165
-10.7192
-10.7176
-10.7113
-10.6997
-10.6825
-10.6591
-10.6292
-10.5925
-10.5487
-10.4974
-10.4386
-10.3719
-10.2971
-10.2141
-10.1227
-10.0228
-9.91411
-9.79664
-9.67026
-9.53488
-9.39047
-9.23701
-9.07453
-8.90309
-8.72283
-8.5339
-8.33656
-8.13109
-7.91788
-7.69737
-7.47006
-7.23654
-6.99748
-6.75357
-6.50562
-6.25445
-6.00093
-5.74599
-5.49055
-5.23555
-4.98194
-4.73063
-4.48252
-4.23846
-3.99924
-3.76559
-3.53817
-3.31756
-3.10426
-2.89867
-2.70113
-2.51187
-2.33105
-2.15875
-1.99499
-1.8397
-1.69276
-1.554
-1.42321
-1.30013
-1.18447
-1.07591
-0.974143
-0.878809
-0.789561
-0.706048
-0.627902
-0.554793
-0.486308
-0.422239
-0.361899
-0.305779
-0.25157
-0.203744
-0.150617
-0.119403
-0.0446281
-0.0832668
-10.3819
-10.3994
-10.4171
-10.4349
-10.4525
-10.4698
-10.4865
-10.5026
-10.5182
-10.5334
-10.5482
-10.5629
-10.5775
-10.592
-10.6063
-10.6203
-10.6336
-10.646
-10.6569
-10.6659
-10.6724
-10.676
-10.6759
-10.6718
-10.6631
-10.6493
-10.63
-10.6047
-10.5731
-10.5349
-10.4898
-10.4374
-10.3777
-10.3102
-10.2349
-10.1515
-10.0598
-9.95984
-9.85133
-9.73418
-9.60831
-9.47364
-9.33014
-9.17779
-9.01663
-8.84673
-8.66822
-8.48127
-8.28613
-8.08308
-7.87249
-7.65479
-7.43049
-7.20014
-6.9644
-6.72394
-6.47952
-6.23196
-5.98209
-5.73079
-5.47897
-5.22753
-4.97738
-4.7294
-4.48447
-4.24339
-4.00695
-3.77586
-3.55075
-3.3322
-3.1207
-2.91665
-2.72038
-2.53213
-2.35208
-2.18032
-2.01686
-1.86167
-1.71463
-1.57561
-1.44439
-1.32074
-1.2044
-1.09506
-0.992407
-0.896121
-0.805859
-0.721281
-0.642029
-0.56778
-0.49813
-0.432866
-0.371332
-0.313964
-0.258585
-0.209396
-0.155312
-0.122295
-0.0474667
-0.0825989
-10.3744
-10.3908
-10.4075
-10.4241
-10.4406
-10.4567
-10.4724
-10.4876
-10.5023
-10.5165
-10.5304
-10.5439
-10.5572
-10.5702
-10.5828
-10.5948
-10.6059
-10.6159
-10.6244
-10.6308
-10.6348
-10.6357
-10.6332
-10.6266
-10.6156
-10.5997
-10.5783
-10.5512
-10.518
-10.4783
-10.4319
-10.3784
-10.3177
-10.2495
-10.1736
-10.0898
-9.99798
-9.89794
-9.78958
-9.67277
-9.54742
-9.41347
-9.27088
-9.11966
-8.95983
-8.79148
-8.61474
-8.42977
-8.23683
-8.03618
-7.82821
-7.61332
-7.392
-7.16481
-6.93236
-6.69531
-6.45441
-6.21042
-5.96416
-5.71647
-5.46823
-5.22031
-4.97358
-4.7289
-4.4871
-4.24899
-4.0153
-3.78674
-3.56392
-3.34741
-3.13768
-2.93515
-2.74015
-2.55291
-2.37362
-2.20238
-2.03922
-1.88412
-1.73699
-1.59769
-1.46604
-1.34182
-1.22478
-1.11464
-1.0111
-0.91385
-0.822561
-0.736903
-0.65653
-0.581121
-0.510288
-0.443809
-0.381059
-0.322415
-0.265844
-0.215244
-0.160197
-0.125245
-0.0504818
-0.0815993
-10.3663
-10.3818
-10.3974
-10.413
-10.4284
-10.4435
-10.4582
-10.4724
-10.4861
-10.4994
-10.5122
-10.5246
-10.5365
-10.548
-10.5588
-10.5689
-10.578
-10.5858
-10.5919
-10.5959
-10.5974
-10.596
-10.591
-10.5822
-10.5689
-10.5508
-10.5276
-10.4987
-10.4638
-10.4227
-10.375
-10.3205
-10.2589
-10.19
-10.1135
-10.0294
-9.93733
-9.83728
-9.72908
-9.61262
-9.48781
-9.3546
-9.21294
-9.06286
-8.90438
-8.73759
-8.56262
-8.37963
-8.18888
-7.99064
-7.78527
-7.57317
-7.35482
-7.13075
-6.90156
-6.66789
-6.43046
-6.19
-5.9473
-5.70318
-5.45848
-5.21402
-4.97067
-4.72924
-4.49054
-4.25534
-4.02437
-3.7983
-3.57774
-3.36324
-3.15527
-2.95424
-2.76047
-2.57423
-2.39568
-2.22495
-2.06208
-1.90706
-1.75982
-1.62023
-1.48814
-1.36334
-1.2456
-1.13465
-1.03021
-0.931983
-0.839652
-0.752899
-0.671388
-0.594804
-0.522768
-0.455053
-0.391066
-0.331122
-0.273335
-0.221283
-0.165258
-0.128256
-0.05364
-0.0803157
-10.3578
-10.3724
-10.3871
-10.4016
-10.416
-10.4301
-10.4438
-10.457
-10.4698
-10.482
-10.4937
-10.5049
-10.5155
-10.5255
-10.5347
-10.543
-10.5501
-10.5557
-10.5596
-10.5614