/*--------------------------------*- C++ -*----------------------------------*\
| =========                 |                                                 |
| \\      /  F ield         | OpenFOAM: The Open Source CFD Toolbox           |
|  \\    /   O peration     | Version:  4.1                                   |
|   \\  /    A nd           | Web:      www.OpenFOAM.org                      |
|    \\/     M anipulation  |                                                 |
\*---------------------------------------------------------------------------*/
FoamFile
{
    version     2.0;
    format      ascii;
    class       surfaceScalarField;
    location    "1200";
    object      phi;
}
// * * * * * * * * * * * * * * * * * * * * * * * * * * * * * * * * * * * * * //

dimensions      [0 3 -1 0 0 0 0];

internalField   nonuniform List<scalar> 
13452
(
6.28704e-05
-2.60189e-06
6.37403e-05
-8.69977e-07
6.46286e-05
-8.88281e-07
6.4105e-05
5.2357e-07
6.28898e-05
1.21528e-06
6.15445e-05
1.34522e-06
6.02725e-05
1.27201e-06
5.91139e-05
1.15859e-06
5.80687e-05
1.04527e-06
5.71284e-05
9.40319e-07
5.62815e-05
8.46809e-07
5.55162e-05
7.65366e-07
5.48214e-05
6.94766e-07
5.41882e-05
6.33219e-07
5.3609e-05
5.79177e-07
5.30776e-05
5.31443e-07
5.25885e-05
4.89055e-07
5.21373e-05
4.51222e-07
5.172e-05
4.173e-07
5.13332e-05
3.86765e-07
5.0974e-05
3.59192e-07
5.06398e-05
3.34229e-07
5.03282e-05
3.11589e-07
5.00372e-05
2.91043e-07
4.97648e-05
2.72412e-07
4.95092e-05
2.55578e-07
4.92687e-05
2.4049e-07
4.90415e-05
2.27167e-07
4.88257e-05
2.15881e-07
4.86191e-05
2.06547e-07
4.84184e-05
2.00667e-07
4.82281e-05
1.90363e-07
1.78839e-07
4.80492e-05
6.30682e-05
-3.67972e-06
6.27994e-05
-6.01194e-07
6.21233e-05
-2.12203e-07
6.23359e-05
3.10959e-07
6.27935e-05
7.57658e-07
6.31929e-05
9.45852e-07
6.34611e-05
1.0038e-06
6.36058e-05
1.01393e-06
6.36526e-05
9.98459e-07
6.36273e-05
9.65573e-07
6.35508e-05
9.23343e-07
6.34383e-05
8.77863e-07
6.33009e-05
8.32204e-07
6.31464e-05
7.87656e-07
6.29807e-05
7.44869e-07
6.2808e-05
7.04213e-07
6.26312e-05
6.65843e-07
6.24526e-05
6.29766e-07
6.2274e-05
5.95917e-07
6.20966e-05
5.64202e-07
6.19213e-05
5.34515e-07
6.17487e-05
5.06747e-07
6.15795e-05
4.80796e-07
6.1414e-05
4.56575e-07
6.12524e-05
4.34018e-07
6.10949e-05
4.13087e-07
6.09416e-05
3.93801e-07
6.07926e-05
3.76179e-07
6.06479e-05
3.60504e-07
6.05081e-05
3.46349e-07
6.03733e-05
3.35463e-07
6.02418e-05
3.21879e-07
3.32412e-07
6.00883e-05
6.23306e-05
-2.24888e-06
6.26619e-05
-9.32549e-07
6.281e-05
-3.60284e-07
6.30954e-05
2.55541e-08
6.34246e-05
4.28514e-07
6.37126e-05
6.57843e-07
6.39516e-05
7.64741e-07
6.41451e-05
8.20442e-07
6.42964e-05
8.47205e-07
6.44106e-05
8.51316e-07
6.4494e-05
8.39993e-07
6.4552e-05
8.19845e-07
6.45894e-05
7.94831e-07
6.46099e-05
7.67068e-07
6.46169e-05
7.37916e-07
6.46128e-05
7.0834e-07
6.45996e-05
6.78977e-07
6.45792e-05
6.5022e-07
6.45528e-05
6.22309e-07
6.45216e-05
5.95398e-07
6.44865e-05
5.69577e-07
6.44484e-05
5.44902e-07
6.44078e-05
5.21402e-07
6.43652e-05
4.99102e-07
6.43212e-05
4.78028e-07
6.42761e-05
4.58222e-07
6.42301e-05
4.39766e-07
6.41836e-05
4.2274e-07
6.41367e-05
4.07422e-07
6.40893e-05
3.9369e-07
6.40419e-05
3.82875e-07
6.39906e-05
3.73233e-07
3.77708e-07
6.39453e-05
6.47767e-05
-1.44247e-06
6.47349e-05
-8.9075e-07
6.47849e-05
-4.10329e-07
6.48931e-05
-8.26382e-08
6.5057e-05
2.64667e-07
6.52214e-05
4.93356e-07
6.53726e-05
6.13552e-07
6.55095e-05
6.83618e-07
6.56307e-05
7.26009e-07
6.57358e-05
7.46189e-07
6.58257e-05
7.50094e-07
6.59018e-05
7.43702e-07
6.59658e-05
7.30837e-07
6.60192e-05
7.13686e-07
6.60634e-05
6.93738e-07
6.60996e-05
6.7211e-07
6.6129e-05
6.49592e-07
6.61525e-05
6.26723e-07
6.61709e-05
6.03875e-07
6.6185e-05
5.81315e-07
6.61953e-05
5.59235e-07
6.62025e-05
5.37772e-07
6.62068e-05
5.17034e-07
6.62088e-05
4.97106e-07
6.62088e-05
4.78073e-07
6.6207e-05
4.6002e-07
6.62037e-05
4.43064e-07
6.61991e-05
4.27328e-07
6.61935e-05
4.13058e-07
6.61868e-05
4.0035e-07
6.61796e-05
3.90131e-07
6.61706e-05
3.82205e-07
3.82149e-07
6.61661e-05
6.70079e-05
-9.93574e-07
6.68589e-05
-7.4178e-07
6.68314e-05
-3.82861e-07
6.68578e-05
-1.09003e-07
6.69422e-05
1.80297e-07
6.70457e-05
3.89811e-07
6.7148e-05
5.11326e-07
6.7245e-05
5.86524e-07
6.73358e-05
6.35304e-07
6.74189e-05
6.63055e-07
6.7494e-05
6.74938e-07
6.75615e-05
6.76231e-07
6.76219e-05
6.70473e-07
6.76758e-05
6.59794e-07
6.77238e-05
6.45684e-07
6.77667e-05
6.29281e-07
6.78048e-05
6.11412e-07
6.78389e-05
5.92666e-07
6.78693e-05
5.7347e-07
6.78965e-05
5.54141e-07
6.79208e-05
5.34916e-07
6.79426e-05
5.15977e-07
6.79622e-05
4.97467e-07
6.79798e-05
4.79505e-07
6.79956e-05
4.62201e-07
6.801e-05
4.45665e-07
6.8023e-05
4.30022e-07
6.80349e-05
4.15405e-07
6.8046e-05
4.02023e-07
6.80563e-05
3.9004e-07
6.80664e-05
3.80038e-07
6.80765e-05
3.72129e-07
3.68333e-07
6.80903e-05
6.90833e-05
-6.92871e-07
6.89333e-05
-5.918e-07
6.88863e-05
-3.35803e-07
6.88865e-05
-1.09229e-07
6.8934e-05
1.32789e-07
6.90039e-05
3.19965e-07
6.90771e-05
4.38082e-07
6.91489e-05
5.14763e-07
6.9218e-05
5.66168e-07
6.92834e-05
5.97697e-07
6.93443e-05
6.14051e-07
6.94006e-05
6.19888e-07
6.94526e-05
6.18462e-07
6.95006e-05
6.11835e-07
6.95448e-05
6.01478e-07
6.95855e-05
5.8851e-07
6.96232e-05
5.73763e-07
6.9658e-05
5.57842e-07
6.96903e-05
5.41194e-07
6.97203e-05
5.24158e-07
6.97482e-05
5.06993e-07
6.97743e-05
4.89901e-07
6.97987e-05
4.73042e-07
6.98217e-05
4.56551e-07
6.98433e-05
4.40548e-07
6.98638e-05
4.25148e-07
6.98834e-05
4.10468e-07
6.99022e-05
3.96633e-07
6.99204e-05
3.83798e-07
6.99383e-05
3.72103e-07
6.99565e-05
3.61848e-07
6.99756e-05
3.53053e-07
3.46163e-07
6.99978e-05
7.11508e-05
-4.77351e-07
7.10202e-05
-4.61193e-07
7.09675e-05
-2.83104e-07
7.09558e-05
-9.75375e-08
7.09831e-05
1.05528e-07
7.10322e-05
2.70831e-07
7.10875e-05
3.82814e-07
7.11435e-05
4.58727e-07
7.11988e-05
5.10847e-07
7.12523e-05
5.44279e-07
7.1303e-05
5.63323e-07
7.13508e-05
5.72077e-07
7.13957e-05
5.73512e-07
7.1438e-05
5.69617e-07
7.14776e-05
5.61829e-07
7.15149e-05
5.51247e-07
7.15499e-05
5.38691e-07
7.1583e-05
5.24772e-07
7.16143e-05
5.09946e-07
7.16439e-05
4.94563e-07
7.1672e-05
4.78893e-07
7.16987e-05
4.63147e-07
7.17243e-05
4.47494e-07
7.17487e-05
4.32073e-07
7.17723e-05
4.17007e-07
7.1795e-05
4.02403e-07
7.18171e-05
3.88365e-07
7.18388e-05
3.74992e-07
7.18602e-05
3.62386e-07
7.18817e-05
3.50623e-07
7.19037e-05
3.398e-07
7.1927e-05
3.298e-07
3.20455e-07
7.19527e-05
7.32508e-05
-3.2285e-07
7.31391e-05
-3.49557e-07
7.30844e-05
-2.28381e-07
7.30656e-05
-7.87248e-08
7.30803e-05
9.08639e-08
7.31156e-05
2.35452e-07
7.31589e-05
3.39564e-07
7.32046e-05
4.13029e-07
7.32508e-05
4.64625e-07
7.32963e-05
4.98841e-07
7.33401e-05
5.19523e-07
7.33819e-05
5.30246e-07
7.34217e-05
5.33701e-07
7.34595e-05
5.31779e-07
7.34955e-05
5.25875e-07
7.35297e-05
5.17056e-07
7.35622e-05
5.06132e-07
7.35933e-05
4.9371e-07
7.3623e-05
4.8025e-07
7.36514e-05
4.66109e-07
7.36788e-05
4.5156e-07
7.37051e-05
4.3682e-07
7.37305e-05
4.22061e-07
7.37552e-05
4.07424e-07
7.37792e-05
3.93024e-07
7.38026e-05
3.78961e-07
7.38257e-05
3.6532e-07
7.38485e-05
3.52169e-07
7.38713e-05
3.39562e-07
7.38944e-05
3.2751e-07
7.39182e-05
3.15982e-07
7.39433e-05
3.04777e-07
2.93534e-07
7.39702e-05
7.5393e-05
-2.13412e-07
7.5299e-05
-2.55563e-07
7.5245e-05
-1.74392e-07
7.52219e-05
-5.55845e-08
7.5228e-05
8.48051e-08
7.52534e-05
2.09998e-07
7.52878e-05
3.05139e-07
7.5326e-05
3.74839e-07
7.53657e-05
4.24937e-07
7.54055e-05
4.59107e-07
7.54443e-05
4.80667e-07
7.54819e-05
4.92697e-07
7.5518e-05
4.97603e-07
7.55526e-05
4.97156e-07
7.55858e-05
4.92691e-07
7.56176e-05
4.85239e-07
7.56481e-05
4.75588e-07
7.56775e-05
4.64338e-07
7.57058e-05
4.5195e-07
7.57331e-05
4.3878e-07
7.57596e-05
4.25106e-07
7.57853e-05
4.11145e-07
7.58103e-05
3.97068e-07
7.58347e-05
3.83015e-07
7.58586e-05
3.69094e-07
7.58822e-05
3.55392e-07
7.59055e-05
3.41977e-07
7.59288e-05
3.28889e-07
7.59522e-05
3.16143e-07
7.5976e-05
3.03702e-07
7.60005e-05
2.91467e-07
7.60261e-05
2.79207e-07
2.6654e-07
7.60531e-05
7.75831e-05
-1.36894e-07
7.75059e-05
-1.78405e-07
7.74552e-05
-1.23682e-07
7.74299e-05
-3.02728e-08
7.74298e-05
8.48709e-08
7.74477e-05
1.92116e-07
7.74752e-05
2.77667e-07
7.75074e-05
3.4259e-07
7.7542e-05
3.90368e-07
7.75773e-05
4.23788e-07
7.76124e-05
4.45596e-07
7.76467e-05
4.58396e-07
7.768e-05
4.64307e-07
7.77122e-05
4.64957e-07
7.77433e-05
4.61603e-07
7.77733e-05
4.55229e-07
7.78023e-05
4.46596e-07
7.78303e-05
4.36291e-07
7.78575e-05
4.24769e-07
7.78839e-05
4.12384e-07
7.79096e-05
3.99414e-07
7.79346e-05
3.86073e-07
7.79592e-05
3.72533e-07
7.79833e-05
3.58926e-07
7.8007e-05
3.45355e-07
7.80305e-05
3.31895e-07
7.80539e-05
3.18596e-07
7.80773e-05
3.0548e-07
7.81009e-05
2.92533e-07
7.81249e-05
2.7969e-07
7.81496e-05
2.66824e-07
7.81751e-05
2.53716e-07
2.40026e-07
7.82016e-05
7.98256e-05
-8.41763e-08
7.9764e-05
-1.16855e-07
7.97186e-05
-7.82373e-08
7.9693e-05
-4.70444e-09
7.96888e-05
8.91182e-08
7.97008e-05
1.8007e-07
7.97227e-05
2.5585e-07
7.975e-05
3.15283e-07
7.97803e-05
3.60062e-07
7.98119e-05
3.92119e-07
7.98439e-05
4.13623e-07
7.98756e-05
4.26723e-07
7.99066e-05
4.33252e-07
7.99369e-05
4.34676e-07
7.99664e-05
4.32162e-07
7.9995e-05
4.26633e-07
8.00227e-05
4.18817e-07
8.00497e-05
4.09281e-07
8.0076e-05
3.9847e-07
8.01017e-05
3.86732e-07
8.01268e-05
3.74339e-07
8.01513e-05
3.61505e-07
8.01755e-05
3.48396e-07
8.01993e-05
3.35139e-07
8.02228e-05
3.2183e-07
8.02461e-05
3.08535e-07
8.02695e-05
2.95291e-07
8.02928e-05
2.82105e-07
8.03164e-05
2.68948e-07
8.03404e-05
2.55744e-07
8.03648e-05
2.42368e-07
8.03899e-05
2.28625e-07
2.14239e-07
8.04157e-05
8.21247e-05
-4.84491e-08
8.2077e-05
-6.91466e-08
8.20381e-05
-3.9296e-08
8.20139e-05
1.94499e-08
8.20072e-05
9.58213e-08
8.20149e-05
1.72368e-07
8.20322e-05
2.3861e-07
8.20553e-05
2.92151e-07
8.20819e-05
3.33417e-07
8.21105e-05
3.63595e-07
8.21398e-05
3.8431e-07
8.21692e-05
3.9729e-07
8.21984e-05
4.04087e-07
8.2227e-05
4.05997e-07
8.22551e-05
4.0408e-07
8.22826e-05
3.99193e-07
8.23094e-05
3.92021e-07
8.23355e-05
3.83106e-07
8.23611e-05
3.72878e-07
8.23862e-05
3.61675e-07
8.24108e-05
3.49761e-07
8.24349e-05
3.37346e-07
8.24587e-05
3.2459e-07
8.24823e-05
3.11616e-07
8.25056e-05
2.98512e-07
8.25288e-05
2.85337e-07
8.25519e-05
2.72119e-07
8.25752e-05
2.58858e-07
8.25986e-05
2.45517e-07
8.26223e-05
2.32026e-07
8.26464e-05
2.18269e-07
8.2671e-05
2.04091e-07
1.89277e-07
8.26959e-05
8.4484e-05
-2.46525e-08
8.4448e-05
-3.32088e-08
8.44161e-05
-7.34595e-09
8.43946e-05
4.08992e-08
8.4387e-05
1.03455e-07
8.43917e-05
1.67647e-07
8.44054e-05
2.2495e-07
8.4425e-05
2.72503e-07
8.44485e-05
3.09926e-07
8.44743e-05
3.37822e-07
8.45013e-05
3.57341e-07
8.45287e-05
3.69832e-07
8.45562e-05
3.7658e-07
8.45835e-05
3.7871e-07
8.46104e-05
3.77168e-07
8.46369e-05
3.72737e-07
8.46629e-05
3.66054e-07
8.46883e-05
3.5763e-07
8.47133e-05
3.47874e-07
8.47379e-05
3.3711e-07
8.47621e-05
3.25595e-07
8.47859e-05
3.1353e-07
8.48094e-05
3.01069e-07
8.48327e-05
2.88329e-07
8.48558e-05
2.75394e-07
8.48788e-05
2.62316e-07
8.49018e-05
2.49119e-07
8.49249e-05
2.358e-07
8.49481e-05
2.22326e-07
8.49715e-05
2.08632e-07
8.49951e-05
1.94626e-07
8.5019e-05
1.80187e-07
1.65158e-07
8.50431e-05
8.69066e-05
-9.09105e-09
8.68803e-05
-6.91806e-09
8.68552e-05
1.77612e-08
8.68373e-05
5.88255e-08
8.683e-05
1.10767e-07
8.68329e-05
1.64677e-07
8.6844e-05
2.13915e-07
8.68608e-05
2.55658e-07
8.68816e-05
2.89106e-07
8.6905e-05
3.14446e-07
8.69299e-05
3.32449e-07
8.69556e-05
3.44137e-07
8.69816e-05
3.50558e-07
8.70077e-05
3.52666e-07
8.70335e-05
3.51296e-07
8.70591e-05
3.47151e-07
8.70844e-05
3.40814e-07
8.71092e-05
3.32761e-07
8.71337e-05
3.23378e-07
8.71579e-05
3.12971e-07
8.71817e-05
3.01785e-07
8.72052e-05
2.90013e-07
8.72285e-05
2.77802e-07
8.72515e-05
2.65263e-07
8.72744e-05
2.52476e-07
8.72973e-05
2.39489e-07
8.73201e-05
2.26325e-07
8.73429e-05
2.12981e-07
8.73658e-05
1.99431e-07
8.73888e-05
1.85624e-07
8.74119e-05
1.7149e-07
8.74352e-05
1.5694e-07
1.41864e-07
8.74585e-05
8.93956e-05
8.74969e-10
8.93769e-05
1.17199e-08
8.93581e-05
3.66238e-08
8.9344e-05
7.28832e-08
8.93379e-05
1.16851e-07
8.93402e-05
1.62423e-07
8.93495e-05
2.04621e-07
8.93642e-05
2.40951e-07
8.93828e-05
2.70469e-07
8.94042e-05
2.93114e-07
8.94272e-05
3.09374e-07
8.94514e-05
3.20015e-07
8.9476e-05
3.25871e-07
8.9501e-05
3.27747e-07
8.95259e-05
3.26364e-07
8.95507e-05
3.22349e-07
8.95753e-05
3.16227e-07
8.95996e-05
3.08437e-07
8.96236e-05
2.99336e-07
8.96474e-05
2.89212e-07
8.96709e-05
2.78296e-07
8.96941e-05
2.6677e-07
8.97172e-05
2.54775e-07
8.974e-05
2.42415e-07
8.97627e-05
2.29767e-07
8.97853e-05
2.16876e-07
8.98079e-05
2.03767e-07
8.98304e-05
1.90441e-07
8.9853e-05
1.76879e-07
8.98756e-05
1.63045e-07
8.98982e-05
1.4889e-07
8.99207e-05
1.34355e-07
1.19364e-07
8.99432e-05
9.19536e-05
7.09162e-09
9.19409e-05
2.44604e-08
9.19274e-05
5.00958e-08
9.19172e-05
8.31228e-08
9.19129e-05
1.21158e-07
9.19152e-05
1.60091e-07
9.19235e-05
1.96304e-07
9.19367e-05
2.27754e-07
9.19537e-05
2.53534e-07
9.19733e-05
2.73467e-07
9.19948e-05
2.87857e-07
9.20176e-05
2.97271e-07
9.20411e-05
3.02377e-07
9.2065e-05
3.03843e-07
9.2089e-05
3.02288e-07
9.21131e-05
2.98263e-07
9.21371e-05
2.92239e-07
9.21609e-05
2.84613e-07
9.21846e-05
2.75713e-07
9.2208e-05
2.65807e-07
9.22312e-05
2.55109e-07
9.22541e-05
2.43792e-07
9.22769e-05
2.31986e-07
9.22995e-05
2.19793e-07
9.2322e-05
2.07282e-07
9.23444e-05
1.94502e-07
9.23667e-05
1.81477e-07
9.23889e-05
1.68214e-07
9.24111e-05
1.54704e-07
9.24332e-05
1.40923e-07
9.24553e-05
1.26843e-07
9.24772e-05
1.12425e-07
9.76238e-08
9.24989e-05
9.45834e-05
1.0827e-08
9.45751e-05
3.27736e-08
9.45661e-05
5.91255e-08
9.45593e-05
8.98788e-08
9.4557e-05
1.23471e-07
9.45599e-05
1.57157e-07
9.45679e-05
1.88369e-07
9.45801e-05
2.15525e-07
9.45958e-05
2.37854e-07
9.46141e-05
2.55157e-07
9.46343e-05
2.67633e-07
9.46559e-05
2.75713e-07
9.46783e-05
2.79932e-07
9.47013e-05
2.80847e-07
9.47246e-05
2.78988e-07
9.47481e-05
2.74835e-07
9.47715e-05
2.68805e-07
9.47948e-05
2.61256e-07
9.48181e-05
2.52486e-07
9.48411e-05
2.4274e-07
9.4864e-05
2.32218e-07
9.48867e-05
2.21077e-07
9.49093e-05
2.09443e-07
9.49317e-05
1.97409e-07
9.49539e-05
1.85044e-07
9.4976e-05
1.72393e-07
9.4998e-05
1.59486e-07
9.50199e-05
1.46332e-07
9.50417e-05
1.32934e-07
9.50633e-05
1.1928e-07
9.50848e-05
1.05355e-07
9.51061e-05
9.11414e-08
7.66121e-08
9.51271e-05
9.72874e-05
1.29402e-08
9.72823e-05
3.78465e-08
9.72768e-05
6.46444e-08
9.7273e-05
9.3656e-08
9.72727e-05
1.23837e-07
9.72765e-05
1.53352e-07
9.72844e-05
1.8041e-07
9.72961e-05
2.03842e-07
9.73109e-05
2.2305e-07
9.73282e-05
2.37872e-07
9.73474e-05
2.48458e-07
9.73679e-05
2.55153e-07
9.73895e-05
2.58396e-07
9.74117e-05
2.58657e-07
9.74343e-05
2.56388e-07
9.74571e-05
2.52008e-07
9.748e-05
2.45885e-07
9.75029e-05
2.38339e-07
9.75258e-05
2.29637e-07
9.75485e-05
2.20004e-07
9.75711e-05
2.09621e-07
9.75936e-05
1.98634e-07
9.76158e-05
1.87159e-07
9.7638e-05
1.75284e-07
9.76599e-05
1.63074e-07
9.76818e-05
1.50576e-07
9.77034e-05
1.3782e-07
9.77249e-05
1.24824e-07
9.77463e-05
1.11593e-07
9.77674e-05
9.81302e-08
9.77883e-05
8.44315e-08
9.7809e-05
7.04926e-08
5.63009e-08
9.78293e-05
0.000100068
1.40081e-08
0.000100065
4.06128e-08
0.000100062
6.75034e-08
0.000100061
9.50372e-08
0.000100062
1.22491e-07
0.000100067
1.48626e-07
0.000100075
1.72214e-07
0.000100087
1.92426e-07
0.000100101
2.0884e-07
0.000100117
2.21357e-07
0.000100136
2.30121e-07
0.000100155
2.35424e-07
0.000100176
2.37643e-07
0.000100198
2.37177e-07
0.00010022
2.3442e-07
0.000100242
2.29736e-07
0.000100264
2.23449e-07
0.000100287
2.15843e-07
0.000100309
2.07159e-07
0.000100332
1.97598e-07
0.000100354
1.87325e-07
0.000100376
1.76474e-07
0.000100398
1.65151e-07
0.00010042
1.53438e-07
0.000100442
1.41399e-07
0.000100463
1.29079e-07
0.000100485
1.16509e-07
0.000100506
1.03713e-07
0.000100527
9.07025e-08
0.000100547
7.74876e-08
0.000100568
6.40749e-08
0.000100588
5.04685e-08
3.66676e-08
0.000100607
0.000102928
1.4418e-08
0.000102926
4.17968e-08
0.000102926
6.84476e-08
0.000102926
9.46198e-08
0.000102929
1.19785e-07
0.000102934
1.43101e-07
0.000102943
1.6374e-07
0.000102954
1.81145e-07
0.000102968
1.95054e-07
0.000102984
2.05444e-07
0.000103001
2.12469e-07
0.00010302
2.16402e-07
0.00010304
2.17573e-07
0.000103061
2.16336e-07
0.000103083
2.13032e-07
0.000103104
2.07983e-07
0.000103126
2.01475e-07
0.000103148
1.9376e-07
0.000103171
1.85051e-07
0.000103193
1.75529e-07
0.000103215
1.65343e-07
0.000103236
1.54614e-07
0.000103258
1.4344e-07
0.00010328
1.31897e-07
0.000103301
1.20044e-07
0.000103322
1.07926e-07
0.000103343
9.55769e-08
0.000103364
8.30212e-08
0.000103384
7.02775e-08
0.000103404
5.73609e-08
0.000103424
4.42843e-08
0.000103444
3.10593e-08
1.76916e-08
0.000103463
0.000105869
1.4433e-08
0.000105869
4.19605e-08
0.000105869
6.81167e-08
0.000105871
9.29811e-08
0.000105874
1.16142e-07
0.00010588
1.37024e-07
0.000105889
1.55092e-07
0.0001059
1.70007e-07
0.000105913
1.81644e-07
0.000105929
1.90056e-07
0.000105946
1.95425e-07
0.000105964
1.98015e-07
0.000105984
1.98131e-07
0.000106004
1.96089e-07
0.000106025
1.92195e-07
0.000106046
1.86734e-07
0.000106068
1.79958e-07
0.000106089
1.7209e-07
0.000106111
1.6332e-07
0.000106133
1.5381e-07
0.000106154
1.43692e-07
0.000106176
1.33076e-07
0.000106197
1.22049e-07
0.000106218
1.10683e-07
0.000106239
9.90331e-08
0.00010626
8.71421e-08
0.000106281
7.50439e-08
0.000106301
6.27658e-08
0.000106321
5.03292e-08
0.000106341
3.77537e-08
0.00010636
2.5056e-08
0.000106379
1.22527e-08
-6.47134e-10
0.000106397
0.000108894
1.42385e-08
0.000108894
4.15491e-08
0.000108895
6.70644e-08
0.000108897
9.06687e-08
0.000108901
1.12019e-07
0.000108908
1.30731e-07
0.000108916
1.46491e-07
0.000108927
1.59139e-07
0.00010894
1.68673e-07
0.000108955
1.7522e-07
0.000108971
1.78992e-07
0.000108989
1.80259e-07
0.000109008
1.7931e-07
0.000109028
1.76436e-07
0.000109048
1.71914e-07
0.000109069
1.65997e-07
0.00010909
1.58911e-07
0.000109111
1.50852e-07
0.000109132
1.41989e-07
0.000109154
1.32464e-07
0.000109175
1.22397e-07
0.000109196
1.11883e-07
0.000109217
1.01004e-07
0.000109238
8.98212e-08
0.000109259
7.83879e-08
0.000109279
6.67445e-08
0.000109299
5.49246e-08
0.000109319
4.29555e-08
0.000109339
3.08612e-08
0.000109358
1.86626e-08
0.000109376
6.37991e-09
0.000109395
-5.96911e-09
-1.83725e-08
0.000109412
0.000112005
1.3974e-08
0.000112005
4.09339e-08
0.000112007
6.57874e-08
0.000112009
8.82112e-08
0.000112013
1.07903e-07
0.000112019
1.2463e-07
0.000112028
1.38256e-07
0.000112038
1.48781e-07
0.00011205
1.56316e-07
0.000112064
1.61059e-07
0.00011208
1.63263e-07
0.000112097
1.63205e-07
0.000112115
1.61168e-07
0.000112134
1.57426e-07
0.000112154
1.52231e-07
0.000112174
1.45811e-07
0.000112195
1.38369e-07
0.000112216
1.30078e-07
0.000112236
1.21087e-07
0.000112257
1.1152e-07
0.000112278
1.01483e-07
0.000112299
9.10599e-08
0.00011232
8.03223e-08
0.00011234
6.93271e-08
0.000112361
5.81209e-08
0.000112381
4.6742e-08
0.0001124
3.52221e-08
0.00011242
2.35884e-08
0.000112439
1.18647e-08
0.000112457
7.31738e-11
0.000112475
-1.17658e-08
0.000112493
-2.36334e-08
-3.55173e-08
0.00011251
0.000115205
1.37579e-08
0.000115205
4.04539e-08
0.000115206
6.47648e-08
0.000115208
8.61457e-08
0.000115212
1.04323e-07
0.000115217
1.19195e-07
0.000115225
1.30796e-07
0.000115234
1.3927e-07
0.000115246
1.44845e-07
0.000115259
1.47795e-07
0.000115274
1.48413e-07
0.00011529
1.46994e-07
0.000115307
1.4382e-07
0.000115326
1.39151e-07
0.000115345
1.33223e-07
0.000115364
1.26242e-07
0.000115384
1.18387e-07
0.000115404
1.09814e-07
0.000115425
1.0065e-07
0.000115445
9.10064e-08
0.000115466
8.09718e-08
0.000115486
7.06212e-08
0.000115507
6.00154e-08
0.000115527
4.92048e-08
0.000115547
3.82303e-08
0.000115566
2.71267e-08
0.000115586
1.59227e-08
0.000115605
4.64407e-09
0.000115623
-6.68649e-09
0.000115641
-1.80475e-08
0.000115659
-2.94194e-08
0.000115676
-4.07837e-08
-5.21294e-08
0.000115693
0.000118496
1.37071e-08
0.000118496
4.04594e-08
0.000118496
6.45088e-08
0.000118497
8.50627e-08
0.0001185
1.01878e-07
0.000118504
1.14996e-07
0.00011851
1.24618e-07
0.000118518
1.31048e-07
0.000118529
1.34636e-07
0.000118541
1.35739e-07
0.000118554
1.34699e-07
0.000118569
1.31835e-07
0.000118586
1.27433e-07
0.000118603
1.21747e-07
0.000118621
1.14996e-07
0.00011864
1.07369e-07
0.00011866
9.90266e-08
0.000118679
9.01024e-08
0.000118699
8.07092e-08
0.000118719
7.09396e-08
0.00011874
6.08701e-08
0.00011876
5.05631e-08
0.00011878
4.00704e-08
0.000118799
2.94336e-08
0.000118819
1.86884e-08
0.000118838
7.86355e-09
0.000118857
-3.01491e-09
0.000118876
-1.39251e-08
0.000118894
-2.48458e-08
0.000118911
-3.57585e-08
0.000118929
-4.66445e-08
0.000118945
-5.74883e-08
-6.82793e-08
0.000118962
0.000121881
1.39593e-08
0.00012188
4.13674e-08
0.000121879
6.56324e-08
0.000121878
8.56729e-08
0.000121879
1.013e-07
0.000121881
1.12728e-07
0.000121886
1.20358e-07
0.000121892
1.24672e-07
0.0001219
1.26164e-07
0.000121911
1.25286e-07
0.000121923
1.22444e-07
0.000121937
1.17986e-07
0.000121952
1.1221e-07
0.000121969
1.05366e-07
0.000121986
9.76618e-08
0.000122004
8.92702e-08
0.000122023
8.03329e-08
0.000122042
7.09662e-08
0.000122061
6.12642e-08
0.000122081
5.13038e-08
0.000122101
4.11467e-08
0.00012212
3.08433e-08
0.00012214
2.0434e-08
0.000122159
9.95224e-09
0.000122179
-5.74698e-10
0.000122198
-1.11231e-08
0.000122216
-2.16732e-08
0.000122235
-3.22063e-08
0.000122252
-4.27059e-08
0.00012227
-5.31557e-08
0.000122287
-6.35411e-08
0.000122303
-7.38485e-08
-8.40705e-08
0.000122319
0.000125363
1.47019e-08
0.00012536
4.37394e-08
0.000125357
6.89494e-08
0.000125354
8.89047e-08
0.000125352
1.03531e-07
0.000125351
1.13284e-07
0.000125353
1.18814e-07
0.000125356
1.20832e-07
0.000125363
1.20004e-07
0.000125371
1.16906e-07
0.000125381
1.12016e-07
0.000125394
1.05726e-07
0.000125407
9.83506e-08
0.000125423
9.01418e-08
0.000125439
8.12983e-08
0.000125456
7.19772e-08
0.000125474
6.23021e-08
0.000125493
5.23698e-08
0.000125512
4.2256e-08
0.000125531
3.20198e-08
0.000125551
2.17072e-08
0.00012557
1.13543e-08
0.00012559
9.89547e-10
0.000125609
-9.36456e-09
0.000125628
-1.96895e-08
0.000125647
-2.99697e-08
0.000125665
-4.01916e-08
0.000125684
-5.03428e-08
0.000125701
-6.04113e-08
0.000125719
-7.03859e-08
0.000125735
-8.02556e-08
0.000125751
-9.00112e-08
-9.96483e-08
0.000125767
0.000128944
1.62217e-08
0.000128939
4.84084e-08
0.000128932
7.56274e-08
0.000128925
9.60503e-08
0.000128919
1.09846e-07
0.000128914
1.17829e-07
0.000128912
1.20998e-07
0.000128913
1.20365e-07
0.000128916
1.16824e-07
0.000128921
1.11102e-07
0.00012893
1.03777e-07
0.00012894
9.52936e-08
0.000128953
8.59927e-08
0.000128967
7.61289e-08
0.000128982
6.58924e-08
0.000128998
5.54233e-08
0.000129016
4.4825e-08
0.000129034
3.41722e-08
0.000129053
2.35191e-08
0.000129072
1.29042e-08
0.000129091
2.3553e-09
0.000129111
-8.10877e-09
0.00012913
-1.84741e-08
0.00012915
-2.87312e-08
0.000129169
-3.88727e-08
0.000129188
-4.8893e-08
0.000129206
-5.87868e-08
0.000129225
-6.85493e-08
0.000129242
-7.81751e-08
0.00012926
-8.76589e-08
0.000129276
-9.6995e-08
0.000129293
-1.06179e-07
-1.15211e-07
0.000129308
0.000132626
1.89965e-08
0.000132618
5.66981e-08
0.000132606
8.74342e-08
0.000132593
1.08979e-07
0.000132581
1.22008e-07
0.000132571
1.27899e-07
0.000132564
1.28162e-07
0.00013256
1.24236e-07
0.00013256
1.17319e-07
0.000132562
1.08338e-07
0.000132568
9.79922e-08
0.000132577
8.67955e-08
0.000132587
7.51153e-08
0.0001326
6.32086e-08
0.000132615
5.12516e-08
0.000132631
3.93625e-08
0.000132648
2.76171e-08
0.000132666
1.60629e-08
0.000132685
4.7262e-09
0.000132704
-6.37929e-09
0.000132724
-1.72501e-08
0.000132744
-2.7887e-08
0.000132764
-3.82955e-08
0.000132783
-4.84814e-08
0.000132803
-5.84521e-08
0.000132822
-6.82136e-08
0.000132841
-7.77718e-08
0.00013286
-8.71308e-08
0.000132878
-9.62939e-08
0.000132896
-1.05263e-07
0.000132913
-1.14039e-07
0.000132929
-1.22622e-07
-1.31019e-07
0.000132945
0.000136413
2.38813e-08
0.000136399
7.08209e-08
0.00013638
1.07138e-07
0.000136358
1.30446e-07
0.000136338
1.42455e-07
0.00013632
1.45463e-07
0.000136306
1.41768e-07
0.000136297
1.33436e-07
0.000136293
1.22077e-07
0.000136292
1.08872e-07
0.000136295
9.46667e-08
0.000136302
8.00445e-08
0.000136312
6.53932e-08
0.000136324
5.09593e-08
0.000136338
3.6891e-08
0.000136355
2.32699e-08
0.000136372
1.01329e-08
0.000136391
-2.51206e-09
0.00013641
-1.46749e-08
0.00013643
-2.63759e-08
0.00013645
-3.7641e-08
0.000136471
-4.84982e-08
0.000136492
-5.89753e-08
0.000136512
-6.90989e-08
0.000136533
-7.88931e-08
0.000136553
-8.83796e-08
0.000136573
-9.75768e-08
0.000136592
-1.06501e-07
0.000136611
-1.15164e-07
0.000136629
-1.23578e-07
0.000136647
-1.31751e-07
0.000136664
-1.3969e-07
-1.47408e-07
0.00013668
0.000140307
3.2495e-08
0.000140283
9.46118e-08
0.000140251
1.39144e-07
0.000140217
1.64497e-07
0.000140185
1.74466e-07
0.000140158
1.72882e-07
0.000140136
1.63304e-07
0.000140121
1.48722e-07
0.000140112
1.31292e-07
0.000140108
1.12485e-07
0.00014011
9.32892e-08
0.000140115
7.43382e-08
0.000140125
5.60068e-08
0.000140137
3.84965e-08
0.000140152
2.18981e-08
0.000140169
6.23089e-09
0.000140188
-8.52827e-09
0.000140208
-2.24281e-08
0.000140229
-3.55283e-08
0.00014025
-4.78944e-08
0.000140272
-5.95904e-08
0.000140294
-7.06781e-08
0.000140317
-8.12137e-08
0.000140339
-9.12486e-08
0.000140361
-1.00828e-07
0.000140382
-1.09991e-07
0.000140403
-1.18772e-07
0.000140424
-1.27201e-07
0.000140444
-1.35301e-07
0.000140464
-1.43094e-07
0.000140483
-1.50597e-07
0.000140501
-1.57827e-07
-1.64799e-07
0.000140518
0.000144309
4.80876e-08
0.000144269
1.34879e-07
0.000144217
1.90451e-07
0.000144165
2.16899e-07
0.000144117
2.22136e-07
0.000144078
2.12567e-07
0.000144047
1.93784e-07
0.000144026
1.70096e-07
0.000144013
1.44279e-07
0.000144007
1.18054e-07
0.000144008
9.24875e-08
0.000144014
6.818e-08
0.000144025
4.54172e-08
0.000144039
2.42927e-08
0.000144056
4.78791e-09
0.000144076
-1.31784e-08
0.000144097
-2.97208e-08
0.000144119
-4.49657e-08
0.000144143
-5.90418e-08
0.000144167
-7.20709e-08
0.000144192
-8.41667e-08
0.000144216
-9.54309e-08
0.000144241
-1.05955e-07
0.000144266
-1.15819e-07
0.00014429
-1.25093e-07
0.000144314
-1.33836e-07
0.000144337
-1.42102e-07
0.00014436
-1.49933e-07
0.000144382
-1.57369e-07
0.000144403
-1.6444e-07
0.000144424
-1.71174e-07
0.000144444
-1.77594e-07
-1.83726e-07
0.000144462
0.000148418
7.75953e-08
0.000148349
2.03833e-07
0.000148268
2.71857e-07
0.00014819
2.95279e-07
0.000148122
2.89811e-07
0.000148069
2.66053e-07
0.00014803
2.32781e-07
0.000148004
1.95951e-07
0.000147989
1.58789e-07
0.000147984
1.23031e-07
0.000147987
8.96224e-08
0.000147996
5.89657e-08
0.000148011
3.11231e-08
0.000148029
5.97992e-09
0.00014805
-1.66616e-08
0.000148074
-3.70342e-08
0.0001481
-5.53786e-08
0.000148127
-7.19266e-08
0.000148155
-8.68922e-08
0.000148183
-1.00469e-07
0.000148212
-1.12827e-07
0.00014824
-1.24118e-07
0.000148269
-1.34472e-07
0.000148297
-1.44001e-07
0.000148325
-1.52804e-07
0.000148352
-1.60963e-07
0.000148378
-1.6855e-07
0.000148404
-1.75625e-07
0.000148429
-1.82239e-07
0.000148453
-1.88437e-07
0.000148476
-1.94255e-07
0.000148498
-1.99726e-07
-2.04881e-07
0.000148519
0.000152631
1.36093e-07
0.000152511
3.23595e-07
0.000152383
3.99245e-07
0.00015227
4.08269e-07
0.00015218
3.80293e-07
0.000152114
3.3208e-07
0.00015207
2.7682e-07
0.000152044
2.21884e-07
0.000152033
1.70159e-07
0.000152033
1.22817e-07
0.000152042
8.032e-08
0.000152059
4.26104e-08
0.00015208
9.33999e-09
0.000152106
-1.99375e-08
0.000152135
-4.56779e-08
0.000152167
-6.83181e-08
0.000152199
-8.82606e-08
0.000152233
-1.05866e-07
0.000152268
-1.21452e-07
0.000152303
-1.35293e-07
0.000152338
-1.47626e-07
0.000152372
-1.58655e-07
0.000152406
-1.68553e-07
0.00015244
-1.7747e-07
0.000152472
-1.8553e-07
0.000152504
-1.92843e-07
0.000152535
-1.99497e-07
0.000152565
-2.05572e-07
0.000152594
-2.11131e-07
0.000152622
-2.16232e-07
0.000152648
-2.20921e-07
0.000152674
-2.25238e-07
-2.29222e-07
0.000152698
0.000156933
2.54128e-07
0.000156722
5.34903e-07
0.000156526
5.95138e-07
0.000156371
5.63207e-07
0.00015626
4.91359e-07
0.000156189
4.03397e-07
0.000156149
3.17031e-07
0.000156132
2.39042e-07
0.000156132
1.70057e-07
0.000156145
1.09725e-07
0.000156167
5.75566e-08
0.000156197
1.27111e-08
0.000156233
-2.5783e-08
0.000156271
-5.88238e-08
0.000156313
-8.71952e-08
0.000156356
-1.1158e-07
0.0001564
-1.32572e-07
0.000156445
-1.50679e-07
0.00015649
-1.66334e-07
0.000156535
-1.799e-07
0.000156579
-1.91685e-07
0.000156622
-2.01948e-07
0.000156665
-2.1091e-07
0.000156706
-2.18753e-07
0.000156746
-2.25634e-07
0.000156785
-2.31683e-07
0.000156822
-2.37011e-07
0.000156858
-2.41711e-07
0.000156893
-2.45862e-07
0.000156926
-2.49531e-07
0.000156958
-2.52775e-07
0.000156989
-2.55643e-07
-2.58182e-07
0.000157018
0.00016129
5.02252e-07
0.000160918
9.06967e-07
0.00016063
8.83613e-07
0.000160432
7.60793e-07
0.000160312
6.11111e-07
0.000160253
4.62964e-07
0.000160234
3.36346e-07
0.000160241
2.31777e-07
0.000160267
1.44145e-07
0.000160306
7.05256e-08
0.000160354
9.11465e-09
0.000160409
-4.20232e-08
0.000160468
-8.46924e-08
0.00016053
-1.20353e-07
0.000160593
-1.50168e-07
0.000160656
-1.75105e-07
0.000160719
-1.95974e-07
0.000160782
-2.1345e-07
0.000160844
-2.28086e-07
0.000160904
-2.40343e-07
0.000160963
-2.506e-07
0.000161021
-2.59176e-07
0.000161076
-2.66332e-07
0.00016113
-2.72287e-07
0.000161181
-2.77222e-07
0.000161231
-2.8129e-07
0.000161278
-2.84616e-07
0.000161324
-2.87308e-07
0.000161367
-2.89454e-07
0.000161409
-2.91127e-07
0.000161449
-2.92388e-07
0.000161486
-2.93288e-07
-2.93877e-07
0.000161522
0.000165509
1.14675e-06
0.000164895
1.52075e-06
0.000164546
1.23313e-06
0.000164348
9.58438e-07
0.000164265
6.94162e-07
0.000164259
4.69489e-07
0.000164294
3.00613e-07
0.000164355
1.70978e-07
0.000164433
6.63612e-08
0.000164522
-1.86686e-08
0.000164618
-8.72002e-08
0.000164719
-1.42362e-07
0.000164821
-1.86862e-07
0.000164923
-2.22748e-07
0.000165025
-2.51597e-07
0.000165124
-2.74701e-07
0.000165221
-2.93125e-07
0.000165316
-3.07734e-07
0.000165407
-3.19223e-07
0.000165495
-3.28156e-07
0.000165579
-3.34991e-07
0.00016566
-3.40101e-07
0.000165737
-3.43789e-07
0.000165812
-3.46305e-07
0.000165882
-3.47851e-07
0.000165949
-3.48595e-07
0.000166014