/*--------------------------------*- C++ -*----------------------------------*\
| =========                 |                                                 |
| \\      /  F ield         | OpenFOAM: The Open Source CFD Toolbox           |
|  \\    /   O peration     | Version:  4.1                                   |
|   \\  /    A nd           | Web:      www.OpenFOAM.org                      |
|    \\/     M anipulation  |                                                 |
\*---------------------------------------------------------------------------*/
FoamFile
{
    version     2.0;
    format      ascii;
    class       volVectorField;
    location    "1200";
    object      U;
}
// * * * * * * * * * * * * * * * * * * * * * * * * * * * * * * * * * * * * * //

dimensions      [0 1 -1 0 0 0 0];

internalField   nonuniform List<vector> 
6820
(
(7.12051 -2.89958 0)
(7.72183 -2.2784 0)
(7.93531 -1.28315 0)
(7.87961 -0.658565 0)
(7.73232 -0.320701 0)
(7.56973 -0.148361 0)
(7.41011 -0.0616842 0)
(7.26102 -0.017657 0)
(7.12627 0.00481334 0)
(7.00568 0.016026 0)
(6.89736 0.0212387 0)
(6.79957 0.0232362 0)
(6.71096 0.023513 0)
(6.63036 0.0228804 0)
(6.55677 0.0217876 0)
(6.48935 0.0204887 0)
(6.42738 0.0191268 0)
(6.37027 0.0177812 0)
(6.31752 0.0164941 0)
(6.26867 0.0152864 0)
(6.22335 0.0141666 0)
(6.18121 0.0131366 0)
(6.14196 0.0121946 0)
(6.10533 0.0113372 0)
(6.07108 0.0105613 0)
(6.03897 0.00986474 0)
(6.0088 0.00924873 0)
(5.98034 0.00871657 0)
(5.95338 0.00829293 0)
(5.9275 0.00796886 0)
(5.90277 0.00790676 0)
(5.87672 0.00799648 0)
(5.8566 0.00688235 0)
(7.59884 0.654127 0)
(7.43304 0.77761 0)
(7.36112 0.527756 0)
(7.34933 0.342769 0)
(7.39535 0.234375 0)
(7.45299 0.166654 0)
(7.49513 0.123346 0)
(7.51885 0.0959956 0)
(7.52909 0.0783843 0)
(7.52978 0.066499 0)
(7.52339 0.0581219 0)
(7.51187 0.0520212 0)
(7.49681 0.047434 0)
(7.47936 0.0438614 0)
(7.46029 0.0409826 0)
(7.44017 0.0385931 0)
(7.41942 0.0365588 0)
(7.39834 0.0347893 0)
(7.37717 0.0332225 0)
(7.35607 0.0318152 0)
(7.33518 0.0305376 0)
(7.31458 0.0293683 0)
(7.29434 0.0282927 0)
(7.27452 0.0273007 0)
(7.25515 0.0263869 0)
(7.23625 0.0255502 0)
(7.21784 0.0247956 0)
(7.19991 0.0241336 0)
(7.18249 0.0235993 0)
(7.16548 0.0232049 0)
(7.14927 0.0231909 0)
(7.13288 0.0232053 0)
(7.12009 0.0259431 0)
(7.25567 -0.0497305 0)
(7.16457 -0.0746214 0)
(7.20132 -0.0871774 0)
(7.24037 -0.0571867 0)
(7.27477 -0.021643 0)
(7.31088 0.00195963 0)
(7.34256 0.0166245 0)
(7.36741 0.026441 0)
(7.38684 0.0329439 0)
(7.40194 0.0369137 0)
(7.41321 0.0391175 0)
(7.42121 0.0401868 0)
(7.42657 0.0405283 0)
(7.4298 0.0403896 0)
(7.43131 0.0399355 0)
(7.43141 0.0392813 0)
(7.43037 0.0385055 0)
(7.42839 0.0376598 0)
(7.42566 0.036779 0)
(7.42232 0.0358871 0)
(7.41848 0.0350006 0)
(7.41425 0.0341311 0)
(7.40969 0.0332873 0)
(7.40489 0.0324764 0)
(7.39989 0.0317055 0)
(7.39475 0.0309826 0)
(7.38948 0.0303204 0)
(7.38413 0.0297335 0)
(7.37872 0.0292607 0)
(7.37323 0.0289166 0)
(7.36783 0.0288823 0)
(7.36226 0.0290094 0)
(7.35762 0.0304333 0)
(7.29108 -0.091508 0)
(7.22275 -0.0639327 0)
(7.23474 -0.0294728 0)
(7.25082 -0.00392889 0)
(7.2644 0.0156013 0)
(7.28272 0.0269927 0)
(7.30139 0.0329068 0)
(7.31764 0.0363614 0)
(7.33189 0.038483 0)
(7.34452 0.0396049 0)
(7.35544 0.0400323 0)
(7.36469 0.0400416 0)
(7.37248 0.0397965 0)
(7.379 0.0393819 0)
(7.38442 0.0388526 0)
(7.38889 0.0382496 0)
(7.39253 0.0376018 0)
(7.39546 0.0369282 0)
(7.39778 0.0362419 0)
(7.39958 0.035553 0)
(7.40093 0.0348689 0)
(7.40189 0.0341959 0)
(7.40251 0.0335395 0)
(7.40285 0.0329055 0)
(7.40295 0.0323005 0)
(7.40283 0.0317332 0)
(7.40253 0.0312167 0)
(7.40206 0.0307675 0)
(7.40148 0.0304191 0)
(7.40078 0.0301962 0)
(7.40007 0.0302115 0)
(7.39934 0.0304069 0)
(7.39901 0.0312648 0)
(7.31214 -0.0522564 0)
(7.26645 -0.0334734 0)
(7.26326 -0.014842 0)
(7.26622 -0.00264939 0)
(7.27139 0.0101302 0)
(7.28196 0.0195665 0)
(7.29393 0.0252591 0)
(7.3049 0.0290468 0)
(7.31503 0.0317844 0)
(7.32449 0.0336482 0)
(7.33312 0.0348196 0)
(7.34087 0.0355123 0)
(7.3478 0.035872 0)
(7.35399 0.0359843 0)
(7.35952 0.0359106 0)
(7.36444 0.0356997 0)
(7.36883 0.035389 0)
(7.37274 0.0350056 0)
(7.37624 0.0345698 0)
(7.37935 0.0340976 0)
(7.38214 0.0336018 0)
(7.38463 0.0330929 0)
(7.38687 0.0325801 0)
(7.38888 0.032072 0)
(7.39069 0.031578 0)
(7.39232 0.0311084 0)
(7.3938 0.0306769 0)
(7.39515 0.0303002 0)
(7.3964 0.030005 0)
(7.39758 0.0298147 0)
(7.39875 0.0297908 0)
(7.39998 0.0299139 0)
(7.4015 0.0303573 0)
(7.32016 -0.0320513 0)
(7.28758 -0.025246 0)
(7.28069 -0.0140964 0)
(7.27975 -0.00455711 0)
(7.28192 0.0065015 0)
(7.28854 0.0153378 0)
(7.29664 0.0211167 0)
(7.30442 0.0251338 0)
(7.31183 0.0280988 0)
(7.31895 0.0301938 0)
(7.32565 0.0315964 0)
(7.33185 0.0325074 0)
(7.33757 0.0330681 0)
(7.34284 0.0333659 0)
(7.34771 0.0334638 0)
(7.35219 0.0334113 0)
(7.35632 0.0332462 0)
(7.36014 0.0329964 0)
(7.36368 0.0326831 0)
(7.36697 0.0323229 0)
(7.37002 0.0319294 0)
(7.37286 0.0315136 0)
(7.37553 0.0310853 0)
(7.37802 0.0306535 0)
(7.38037 0.0302276 0)
(7.38259 0.0298176 0)
(7.38471 0.0294358 0)
(7.38673 0.0290964 0)
(7.3887 0.0288184 0)
(7.39063 0.0286187 0)
(7.3926 0.0285268 0)
(7.39466 0.0285304 0)
(7.39695 0.028675 0)
(7.32441 -0.0221712 0)
(7.30054 -0.0208445 0)
(7.2931 -0.0128343 0)
(7.29071 -0.00453475 0)
(7.29137 0.00495615 0)
(7.29565 0.0128534 0)
(7.3014 0.018364 0)
(7.30722 0.0223252 0)
(7.31294 0.0252845 0)
(7.31855 0.0274266 0)
(7.32392 0.0289189 0)
(7.32899 0.029937 0)
(7.33375 0.0306085 0)
(7.33822 0.0310161 0)
(7.34242 0.0312206 0)
(7.34637 0.0312695 0)
(7.35008 0.0311992 0)
(7.35358 0.0310371 0)
(7.35688 0.0308043 0)
(7.36 0.0305176 0)
(7.36296 0.0301903 0)
(7.36577 0.029834 0)
(7.36845 0.0294582 0)
(7.37102 0.029072 0)
(7.37348 0.0286843 0)
(7.37585 0.0283042 0)
(7.37816 0.0279418 0)
(7.38041 0.027608 0)
(7.38263 0.0273147 0)
(7.38486 0.0270712 0)
(7.38714 0.0268871 0)
(7.38953 0.0267464 0)
(7.3921 0.0266408 0)
(7.32735 -0.0153977 0)
(7.30976 -0.0162701 0)
(7.30244 -0.0106188 0)
(7.29932 -0.00378617 0)
(7.29908 0.00415984 0)
(7.30187 0.0110824 0)
(7.30609 0.016217 0)
(7.31062 0.0200391 0)
(7.31523 0.0229394 0)
(7.31983 0.0250848 0)
(7.32431 0.0266246 0)
(7.32859 0.0277089 0)
(7.33267 0.0284514 0)
(7.33655 0.0289305 0)
(7.34023 0.0292044 0)
(7.34373 0.029319 0)
(7.34706 0.0293095 0)
(7.35024 0.0292029 0)
(7.35327 0.0290203 0)
(7.35617 0.0287783 0)
(7.35895 0.0284904 0)
(7.36163 0.028168 0)
(7.36421 0.0278206 0)
(7.36671 0.0274569 0)
(7.36913 0.0270848 0)
(7.3715 0.0267122 0)
(7.37383 0.0263468 0)
(7.37612 0.0259959 0)
(7.37841 0.0256658 0)
(7.38073 0.0253588 0)
(7.38311 0.0250727 0)
(7.38558 0.0247877 0)
(7.38821 0.024476 0)
(7.32939 -0.0103227 0)
(7.31652 -0.0120771 0)
(7.30969 -0.00829698 0)
(7.30624 -0.00285123 0)
(7.30542 0.00374847 0)
(7.30719 0.00977323 0)
(7.31032 0.0144932 0)
(7.31393 0.0181287 0)
(7.31775 0.0209363 0)
(7.32163 0.0230536 0)
(7.32547 0.0246086 0)
(7.32918 0.0257289 0)
(7.33276 0.026515 0)
(7.33619 0.0270399 0)
(7.33949 0.0273594 0)
(7.34264 0.0275172 0)
(7.34567 0.0275475 0)
(7.34857 0.0274769 0)
(7.35137 0.0273259 0)
(7.35407 0.0271113 0)
(7.35668 0.0268463 0)
(7.35921 0.026542 0)
(7.36167 0.0262077 0)
(7.36406 0.0258514 0)
(7.36641 0.0254801 0)
(7.36872 0.0251003 0)
(7.371 0.0247173 0)
(7.37327 0.0243353 0)
(7.37555 0.0239561 0)
(7.37786 0.0235771 0)
(7.38023 0.0231896 0)
(7.38268 0.0227722 0)
(7.38526 0.0222926 0)
(7.33074 -0.00670173 0)
(7.32148 -0.00859923 0)
(7.31542 -0.00610241 0)
(7.31195 -0.00180865 0)
(7.31077 0.00363696 0)
(7.3118 0.00883541 0)
(7.31411 0.0131129 0)
(7.31701 0.016518 0)
(7.32021 0.0191987 0)
(7.32353 0.0212575 0)
(7.32688 0.0227996 0)
(7.33016 0.0239313 0)
(7.33335 0.0247399 0)
(7.33645 0.0252923 0)
(7.33944 0.0256408 0)
(7.34232 0.0258269 0)
(7.3451 0.0258833 0)
(7.34779 0.0258358 0)
(7.3504 0.0257046 0)
(7.35293 0.0255059 0)
(7.35538 0.025253 0)
(7.35778 0.0249564 0)
(7.36012 0.024625 0)
(7.36241 0.0242661 0)
(7.36467 0.0238859 0)
(7.3669 0.0234892 0)
(7.36912 0.0230796 0)
(7.37134 0.0226585 0)
(7.37357 0.0222248 0)
(7.37583 0.0217727 0)
(7.37814 0.0212905 0)
(7.38052 0.0207575 0)
(7.38299 0.0201431 0)
(7.33161 -0.00420177 0)
(7.32508 -0.00580984 0)
(7.31996 -0.00409999 0)
(7.31671 -0.000715923 0)
(7.31534 0.00374763 0)
(7.31583 0.0081906 0)
(7.31753 0.0120131 0)
(7.31985 0.0151537 0)
(7.32254 0.0176771 0)
(7.32541 0.0196505 0)
(7.32835 0.0211551 0)
(7.33129 0.0222768 0)
(7.33417 0.0230902 0)
(7.33699 0.023655 0)
(7.33973 0.0240195 0)
(7.34239 0.0242222 0)
(7.34498 0.0242944 0)
(7.34749 0.0242605 0)
(7.34994 0.0241404 0)
(7.35232 0.0239497 0)
(7.35465 0.0237011 0)
(7.35693 0.0234049 0)
(7.35916 0.0230694 0)
(7.36136 0.0227013 0)
(7.36353 0.0223056 0)
(7.36569 0.0218861 0)
(7.36783 0.0214446 0)
(7.36998 0.020981 0)
(7.37214 0.020492 0)
(7.37434 0.0199702 0)
(7.37657 0.0194034 0)
(7.37886 0.0187726 0)
(7.3812 0.0180515 0)
(7.33217 -0.00250005 0)
(7.32765 -0.0036221 0)
(7.32352 -0.00234605 0)
(7.32064 0.000351572 0)
(7.31925 0.00400118 0)
(7.31938 0.00776921 0)
(7.3206 0.0111424 0)
(7.32247 0.0139977 0)
(7.32473 0.0163399 0)
(7.32722 0.0182045 0)
(7.32982 0.0196496 0)
(7.33245 0.0207422 0)
(7.33507 0.0215442 0)
(7.33766 0.022108 0)
(7.34019 0.0224767 0)
(7.34267 0.0226862 0)
(7.34509 0.0227653 0)
(7.34745 0.0227375 0)
(7.34976 0.0226214 0)
(7.35202 0.0224323 0)
(7.35424 0.0221823 0)
(7.35641 0.0218811 0)
(7.35855 0.0215365 0)
(7.36066 0.0211544 0)
(7.36275 0.0207391 0)
(7.36483 0.0202933 0)
(7.36691 0.0198178 0)
(7.36898 0.019311 0)
(7.37107 0.0187688 0)
(7.37318 0.0181834 0)
(7.37533 0.0175432 0)
(7.37751 0.0168317 0)
(7.37972 0.0160272 0)
(7.33251 -0.00135778 0)
(7.32945 -0.00195209 0)
(7.32626 -0.000877522 0)
(7.32385 0.00132765 0)
(7.32255 0.0043257 0)
(7.32248 0.0075084 0)
(7.32335 0.0104551 0)
(7.32485 0.0130177 0)
(7.32676 0.0151626 0)
(7.32892 0.0168995 0)
(7.33123 0.018266 0)
(7.3336 0.0193123 0)
(7.336 0.0200882 0)
(7.33838 0.0206382 0)
(7.34073 0.0210006 0)
(7.34305 0.0212076 0)
(7.34532 0.0212859 0)
(7.34756 0.0212572 0)
(7.34975 0.0211394 0)
(7.3519 0.0209466 0)
(7.35401 0.0206904 0)
(7.35609 0.0203801 0)
(7.35815 0.0200226 0)
(7.36018 0.0196233 0)
(7.36219 0.0191859 0)
(7.3642 0.0187122 0)
(7.3662 0.0182022 0)
(7.3682 0.0176537 0)
(7.37021 0.0170623 0)
(7.37224 0.0164205 0)
(7.37428 0.015718 0)
(7.37636 0.014941 0)
(7.37845 0.0140725 0)
(7.33272 -0.000604367 0)
(7.33069 -0.000714228 0)
(7.32832 0.000298874 0)
(7.3264 0.00216661 0)
(7.3253 0.00466008 0)
(7.32514 0.00735047 0)
(7.32578 0.00990728 0)
(7.327 0.0121826 0)
(7.32862 0.0141224 0)
(7.33051 0.0157183 0)
(7.33256 0.0169909 0)
(7.33471 0.0179759 0)
(7.3369 0.0187122 0)
(7.3391 0.0192369 0)
(7.34129 0.019583 0)
(7.34347 0.0197791 0)
(7.34561 0.0198493 0)
(7.34772 0.0198136 0)
(7.34981 0.0196886 0)
(7.35186 0.0194876 0)
(7.35388 0.0192214 0)
(7.35588 0.0188985 0)
(7.35785 0.0185254 0)
(7.35981 0.0181068 0)
(7.36175 0.0176459 0)
(7.36368 0.0171438 0)
(7.36561 0.0166003 0)
(7.36754 0.0160128 0)
(7.36947 0.0153771 0)
(7.37141 0.0146864 0)
(7.37336 0.013932 0)
(7.37532 0.0131029 0)
(7.37729 0.0121859 0)
(7.33284 -0.000117194 0)
(7.33153 0.000175734 0)
(7.32984 0.00120062 0)
(7.3284 0.00284432 0)
(7.32753 0.00495707 0)
(7.32738 0.00724468 0)
(7.32788 0.00945702 0)
(7.3289 0.0114613 0)
(7.33029 0.0131968 0)
(7.33195 0.0146441 0)
(7.33379 0.0158116 0)
(7.33574 0.0167232 0)
(7.33775 0.0174085 0)
(7.33979 0.0178975 0)
(7.34184 0.0182182 0)
(7.34388 0.0183955 0)
(7.3459 0.0184509 0)
(7.34791 0.0184026 0)
(7.3499 0.0182656 0)
(7.35186 0.0180523 0)
(7.35379 0.0177726 0)
(7.35571 0.0174344 0)
(7.35761 0.0170436 0)
(7.35949 0.0166044 0)
(7.36136 0.0161194 0)
(7.36322 0.0155896 0)
(7.36508 0.0150143 0)
(7.36693 0.0143913 0)
(7.36878 0.0137165 0)
(7.37064 0.0129843 0)
(7.3725 0.0121876 0)
(7.37435 0.0113178 0)
(7.37621 0.0103649 0)
(7.33292 0.000190543 0)
(7.33209 0.000794385 0)
(7.33093 0.00185979 0)
(7.32991 0.00335565 0)
(7.32929 0.0051852 0)
(7.32921 0.00715008 0)
(7.32965 0.0090665 0)
(7.33053 0.0108234 0)
(7.33176 0.0123625 0)
(7.33323 0.0136597 0)
(7.33489 0.0147155 0)
(7.33666 0.0155448 0)
(7.33851 0.0161698 0)
(7.34041 0.0166142 0)
(7.34233 0.0169014 0)
(7.34425 0.0170528 0)
(7.34617 0.0170873 0)
(7.34808 0.0170211 0)
(7.34997 0.0168677 0)
(7.35184 0.0166385 0)
(7.3537 0.0163425 0)
(7.35554 0.0159868 0)
(7.35737 0.0155768 0)
(7.35918 0.0151163 0)
(7.36098 0.0146074 0)
(7.36277 0.014051 0)
(7.36456 0.0134464 0)
(7.36633 0.0127916 0)
(7.36811 0.0120831 0)
(7.36988 0.0113163 0)
(7.37164 0.0104857 0)
(7.3734 0.00958483 0)
(7.37515 0.00860622 0)
(7.33296 0.000378952 0)
(7.33245 0.00120713 0)
(7.33171 0.00231518 0)
(7.33104 0.00371005 0)
(7.33065 0.0053285 0)
(7.33067 0.00703744 0)
(7.3311 0.00870455 0)
(7.3319 0.0102416 0)
(7.33299 0.0115974 0)
(7.33432 0.012748 0)
(7.33583 0.0136894 0)
(7.33746 0.0144309 0)
(7.33917 0.0149886 0)
(7.34094 0.0153813 0)
(7.34274 0.0156283 0)
(7.34455 0.0157477 0)
(7.34637 0.0157559 0)
(7.34819 0.0156671 0)
(7.34999 0.0154935 0)
(7.35179 0.0152453 0)
(7.35357 0.0149305 0)
(7.35534 0.0145556 0)
(7.3571 0.0141254 0)
(7.35884 0.0136433 0)
(7.36057 0.0131113 0)
(7.36229 0.0125299 0)
(7.364 0.0118987 0)
(7.36571 0.0112159 0)
(7.3674 0.0104789 0)
(7.36909 0.00968402 0)
(7.37076 0.00882702 0)
(7.37242 0.00790315 0)
(7.37407 0.00690707 0)
(7.33298 0.000488938 0)
(7.33269 0.00146749 0)
(7.33224 0.00260659 0)
(7.33185 0.00392644 0)
(7.33167 0.0053841 0)
(7.33179 0.00688951 0)
(7.33224 0.0083484 0)
(7.33298 0.00969302 0)
(7.33399 0.0108815 0)
(7.33521 0.0118925 0)
(7.3366 0.0127207 0)
(7.3381 0.0133718 0)
(7.3397 0.0138577 0)
(7.34135 0.0141934 0)
(7.34304 0.0143947 0)
(7.34476 0.014477 0)
(7.34648 0.0144542 0)
(7.34821 0.0143389 0)
(7.34994 0.0141418 0)
(7.35166 0.0138719 0)
(7.35337 0.0135363 0)
(7.35507 0.0131409 0)
(7.35675 0.01269 0)
(7.35843 0.0121866 0)
(7.36009 0.0116324 0)
(7.36174 0.011028 0)
(7.36339 0.0103731 0)
(7.36502 0.00966642 0)
(7.36663 0.00890579 0)
(7.36824 0.00808857 0)
(7.36983 0.00721168 0)
(7.37139 0.00627173 0)
(7.37294 0.00526494 0)
(7.33299 0.000548029 0)
(7.33284 0.00161796 0)
(7.33261 0.00277137 0)
(7.33242 0.00402872 0)
(7.3324 0.00535893 0)
(7.33261 0.00669977 0)
(7.33309 0.00798422 0)
(7.33381 0.00916151 0)
(7.33476 0.010199 0)
(7.33589 0.0110794 0)
(7.33718 0.0117979 0)
(7.33858 0.0123584 0)
(7.34007 0.0127701 0)
(7.34162 0.0130452 0)
(7.34321 0.0131968 0)
(7.34484 0.0132378 0)
(7.34648 0.0131804 0)
(7.34813 0.0130353 0)
(7.34978 0.0128119 0)
(7.35142 0.0125181 0)
(7.35306 0.0121603 0)
(7.35469 0.0117436 0)
(7.35631 0.0112717 0)
(7.35792 0.0107475 0)
(7.35952 0.0101725 0)
(7.3611 0.00954727 0)
(7.36267 0.00887168 0)
(7.36423 0.00814482 0)
(7.36577 0.00736519 0)
(7.36729 0.0065309 0)
(7.3688 0.00563982 0)
(7.37028 0.00468964 0)
(7.37174 0.00367776 0)
(7.333 0.000574667 0)
(7.33294 0.00169159 0)
(7.33284 0.00284267 0)
(7.3328 0.00404238 0)
(7.3329 0.00526643 0)
(7.33318 0.00647043 0)
(7.33368 0.00760658 0)
(7.33439 0.00863759 0)
(7.33529 0.00953913 0)
(7.33635 0.0102984 0)
(7.33755 0.0109118 0)
(7.33886 0.011383 0)
(7.34026 0.0117197 0)
(7.34172 0.011932 0)
(7.34323 0.0120311 0)
(7.34477 0.012028 0)
(7.34633 0.011933 0)
(7.3479 0.0117554 0)
(7.34948 0.0115036 0)
(7.35105 0.0111842 0)
(7.35263 0.010803 0)
(7.35419 0.0103644 0)
(7.35574 0.00987182 0)
(7.35728 0.00932762 0)
(7.35881 0.00873326 0)
(7.36033 0.00808942 0)
(7.36183 0.0073961 0)
(7.36332 0.00665273 0)
(7.36478 0.00585835 0)
(7.36623 0.00501171 0)
(7.36765 0.00411143 0)
(7.36905 0.00315603 0)
(7.37042 0.00214379 0)
(7.333 0.000581277 0)
(7.33299 0.00171396 0)
(7.33299 0.00284903 0)
(7.33304 0.00399254 0)
(7.33321 0.00512381 0)
(7.33354 0.00621014 0)
(7.33405 0.00721731 0)
(7.33473 0.00811857 0)
(7.33559 0.00889672 0)
(7.33659 0.00954322 0)
(7.33772 0.0100566 0)
(7.33895 0.0104407 0)
(7.34027 0.0107024 0)
(7.34164 0.0108508 0)
(7.34307 0.0108954 0)
(7.34453 0.0108458 0)
(7.34601 0.010711 0)
(7.34751 0.010499 0)
(7.34902 0.0102169 0)
(7.35052 0.00987075 0)
(7.35203 0.00946537 0)
(7.35353 0.00900469 0)
(7.35501 0.0084917 0)
(7.35649 0.00792849 0)
(7.35796 0.00731642 0)
(7.3594 0.0066562 0)
(7.36084 0.00594798 0)
(7.36225 0.00519151 0)
(7.36365 0.00438624 0)
(7.36502 0.00353145 0)
(7.36636 0.00262633 0)
(7.36768 0.00167002 0)
(7.36897 0.000661437 0)
(7.333 0.000576423 0)
(7.33302 0.00170501 0)
(7.33306 0.00281492 0)
(7.33316 0.003903 0)
(7.33337 0.00495034 0)
(7.33372 0.00593211 0)
(7.33422 0.00682405 0)
(7.33487 0.00760779 0)
(7.33568 0.00827224 0)
(7.33662 0.00881287 0)
(7.33767 0.00923039 0)
(7.33883 0.0095293 0)
(7.34006 0.00971653 0)
(7.34136 0.00980024 0)
(7.34271 0.00978901 0)
(7.3441 0.00969125 0)
(7.34551 0.00951478 0)
(7.34693 0.00926663 0)
(7.34837 0.00895295 0)
(7.34981 0.0085789 0)
(7.35124 0.00814876 0)
(7.35268 0.00766591 0)
(7.3541 0.00713295 0)
(7.35551 0.00655174 0)
(7.35691 0.00592353 0)
(7.3583 0.00524904 0)
(7.35966 0.00452856 0)
(7.36101 0.00376208 0)
(7.36233 0.00294938 0)
(7.36363 0.00209013 0)
(7.3649 0.00118397 0)
(7.36615 0.00023047 0)
(7.36736 -0.00077101 0)
(7.333 0.000566316 0)
(7.33303 0.00168088 0)
(7.33309 0.00276174 0)
(7.3332 0.00379636 0)
(7.33341 0.00476644 0)
(7.33373 0.00565292 0)
(7.3342 0.00643919 0)
(7.33481 0.00711392 0)
(7.33556 0.00767144 0)
(7.33643 0.00811099 0)
(7.33741 0.00843553 0)
(7.33849 0.00865062 0)
(7.33964 0.00876337 0)
(7.34086 0.00878158 0)
(7.34213 0.00871311 0)
(7.34344 0.0085655 0)
(7.34478 0.00834567 0)
(7.34613 0.00805977 0)
(7.3475 0.00771313 0)
(7.34887 0.00731023 0)
(7.35024 0.00685475 0)
(7.35161 0.00634961 0)
(7.35297 0.00579706 0)
(7.35432 0.00519874 0)
(7.35565 0.00455579 0)
(7.35697 0.00386892 0)
(7.35828 0.00313852 0)
(7.35956 0.00236475 0)
(7.36081 0.00154764 0)
(7.36205 0.000687141 0)
(7.36325 -0.000216804 0)
(7.36442 -0.00116431 0)
(7.36556 -0.00215571 0)
(7.333 0.000555894 0)
(7.33302 0.00165556 0)
(7.33307 0.00270927 0)
(7.33316 0.00369482 0)
(7.33333 0.00459387 0)
(7.33361 0.00539201 0)
(7.33402 0.00607917 0)
(7.33456 0.00665033 0)
(7.33523 0.00710496 0)
(7.33602 0.00744597 0)
(7.33691 0.00767871 0)
(7.33791 0.00781 0)
(7.33898 0.0078474 0)
(7.34011 0.00779859 0)
(7.3413 0.007671 0)
(7.34253 0.00747151 0)
(7.34379 0.00720629 0)
(7.34508 0.00688077 0)
(7.34638 0.00649958 0)
(7.34768 0.00606659 0)
(7.34899 0.00558495 0)
(7.35029 0.00505715 0)
(7.35159 0.00448513 0)
(7.35288 0.00387031 0)
(7.35416 0.0032137 0)
(7.35541 0.00251599 0)
(7.35665 0.00177761 0)
(7.35787 0.000998831 0)
(7.35907 0.000179845 0)
(7.36024 -0.0006792 0)
(7.36138 -0.00157817 0)
(7.36249 -0.00251697 0)
(7.36356 -0.00349576 0)
(7.333 0.000549667 0)
(7.333 0.0016426 0)
(7.333 0.00267749 0)
(7.33304 0.00362172 0)
(7.33314 0.00445661 0)
(7.33334 0.00517217 0)
(7.33365 0.00576457 0)
(7.3341 0.00623499 0)
(7.33467 0.00658812 0)
(7.33536 0.00683073 0)
(7.33616 0.00697072 0)
(7.33706 0.00701643 0)
(7.33804 0.00697609 0)
(7.33909 0.0068575 0)
(7.34019 0.00666785 0)
(7.34134 0.00641351 0)
(7.34253 0.0061001 0)
(7.34374 0.00573241 0)
(7.34497 0.00531446 0)
(7.34621 0.00484958 0)
(7.34745 0.00434044 0)
(7.3487 0.00378914 0)
(7.34994 0.00319729 0)
(7.35117 0.00256611 0)
(7.35239 0.00189647 0)
(7.35359 0.00118897 0)
(7.35477 0.000444063 0)
(7.35593 -0.000337941 0)
(7.35707 -0.00115677 0)
(7.35818 -0.00201217 0)
(7.35927 -0.00290388 0)
(7.36032 -0.00383172 0)
(7.36133 -0.00479571 0)
(7.333 0.000552507 0)
(7.33297 0.001657 0)
(7.3329 0.00268895 0)
(7.33283 0.00360381 0)
(7.33282 0.00438279 0)
(7.3329 0.00502087 0)
(7.33309 0.00552089 0)
(7.33341 0.0058908 0)
(7.33386 0.00614098 0)
(7.33443 0.00628246 0)
(7.33512 0.00632607 0)
(7.3359 0.00628194 0)
(7.33678 0.00615927 0)
(7.33774 0.00596621 0)
(7.33875 0.00570984 0)
(7.33982 0.00539623 0)
(7.34093 0.00503052 0)
(7.34207 0.00461696 0)
(7.34323 0.00415904 0)
(7.34441 0.00365959 0)
(7.3456 0.00312081 0)
(7.34679 0.00254443 0)
(7.34797 0.00193176 0)
(7.34915 0.00128375 0)
(7.35032 0.000601105 0)
(7.35147 -0.000115671 0)
(7.3526 -0.000866199 0)
(7.35372 -0.00165018 0)
(7.35481 -0.00246732 0)
(7.35587 -0.00331735 0)
(7.3569 -0.00419998 0)
(7.3579 -0.00511497 0)
(7.35887 -0.00606233 0)
(7.333 0.0005706 0)
(7.33291 0.00171773 0)
(7.33273 0.00277207 0)
(7.33252 0.00367465 0)
(7.33235 0.00440762 0)
(7.33226 0.00497246 0)
(7.33228 0.00538008 0)
(7.33244 0.00564638 0)
(7.33273 0.00578843 0)
(7.33316 0.00582226 0)
(7.33371 0.00576219 0)
(7.33438 0.00562058 0)
(7.33515 0.0054079 0)
(7.336 0.00513288 0)
(7.33693 0.00480271 0)
(7.33791 0.00442327 0)
(7.33895 0.00399931 0)
(7.34002 0.0035346 0)
(7.34113 0.00303215 0)
(7.34225 0.00249426 0)
(7.34338 0.0019227 0)
(7.34452 0.00131879 0)
(7.34566 0.000683489 0)
(7.3468 1.74817e-05 0)
(7.34793 -0.000678758 0)
(7.34904 -0.00140489 0)
(7.35013 -0.00216066 0)
(7.3512 -0.00294585 0)
(7.35225 -0.00376024 0)
(7.35328 -0.00460358 0)
(7.35427 -0.00547564 0)
(7.35523 -0.0063762 0)
(7.35616 -0.0073053 0)
(7.33299 0.000612892 0)
(7.33282 0.00185168 0)
(7.33248 0.0029661 0)
(7.33207 0.00387952 0)
(7.33167 0.00457768 0)
(7.33135 0.00507152 0)
(7.33115 0.00538258 0)
(7.3311 0.005537 0)
(7.3312 0.00556016 0)
(7.33146 0.00547425 0)
(7.33186 0.0052979 0)
(7.33239 0.00504631 0)
(7.33304 0.00473162 0)
(7.3338 0.00436341 0)
(7.33464 0.00394914 0)
(7.33555 0.00349456 0)
(7.33652 0.0030041 0)
(7.33754 0.00248104 0)
(7.33859 0.00192787 0)
(7.33967 0.00134635 0)
(7.34077 0.000737756 0)
(7.34187 0.000102937 0)
(7.34298 -0.000557552 0)
(7.34409 -0.00124338 0)
(7.34518 -0.00195436 0)
(7.34627 -0.0026904 0)
(7.34734 -0.00345145 0)
(7.34839 -0.00423745 0)
(7.34941 -0.00504831 0)
(7.35041 -0.00588392 0)
(7.35137 -0.00674413 0)
(7.35231 -0.00762882 0)
(7.35321 -0.00853812 0)
(7.33298 0.00069367 0)
(7.33269 0.00210008 0)
(7.33211 0.00332893 0)
(7.33139 0.00428282 0)
(7.33067 0.00495688 0)
(7.33004 0.00537683 0)
(7.32955 0.00557945 0)
(7.32924 0.00560482 0)
(7.32912 0.00548931 0)
(7.32919 0.00526306 0)
(7.32943 0.00495014 0)
(7.32983 0.00456934 0)
(7.33037 0.00413492 0)
(7.33103 0.00365748 0)
(7.33179 0.00314485 0)
(7.33265 0.00260265 0)
(7.33357 0.00203486 0)
(7.33455 0.00144422 0)
(7.33557 0.000832556 0)
(7.33663 0.00020099 0)
(7.33771 -0.000449847 0)
(7.3388 -0.00111968 0)
(7.33989 -0.00180847 0)
(7.34099 -0.00251635 0)
(7.34208 -0.00324353 0)
(7.34316 -0.00399025 0)
(7.34422 -0.00475677 0)
(7.34526 -0.00554326 0)
(7.34627 -0.00634988 0)
(7.34726 -0.0071767 0)
(7.34822 -0.00802374 0)
(7.34915 -0.00889105 0)
(7.35004 -0.00977887 0)
(7.33297 0.000837491 0)
(7.33247 0.00252999 0)
(7.33152 0.00394979 0)
(7.33036 0.00497898 0)
(7.3292 0.00563427 0)
(7.32815 0.00596561 0)
(7.3273 0.00603298 0)
(7.32669 0.0058968 0)
(7.32631 0.00560848 0)
(7.32617 0.00520851 0)
(7.32625 0.00472792 0)
(7.32653 0.00418983 0)
(7.32698 0.00361085 0)
(7.32757 0.00300264 0)
(7.32829 0.00237316 0)
(7.32912 0.00172766 0)
(7.33002 0.00106941 0)
(7.331 0.000400311 0)
(7.33202 -0.000278746 0)
(7.33308 -0.000967524 0)
(7.33417 -0.00166624 0)
(7.33528 -0.00237539 0)
(7.33639 -0.00309564 0)
(7.3375 -0.00382772 0)
(7.33861 -0.00457238 0)
(7.3397 -0.00533034 0)
(7.34077 -0.00610224 0)
(7.34183 -0.00688862 0)
(7.34286 -0.00768995 0)
(7.34386 -0.00850657 0)
(7.34483 -0.00933875 0)
(7.34576 -0.0101868 0)
(7.34666 -0.011051 0)
(7.33294 0.00108933 0)
(7.33211 0.00325472 0)
(7.33057 0.00496916 0)
(7.32876 0.00610748 0)
(7.32698 0.00673263 0)
(7.3254 0.00693544 0)
(7.32411 0.00681335 0)
(7.32315 0.00645756 0)
(7.32251 0.00594034 0)
(7.32218 0.00531544 0)
(7.32213 0.00462216 0)
(7.32232 0.00388822 0)
(7.32273 0.00313229 0)
(7.3233 0.00236643 0)
(7.32403 0.00159806 0)
(7.32487 0.000831337 0)
(7.32581 6.82259e-05 0)
(7.32682 -0.000690805 0)
(7.32789 -0.00144623 0)
(7.329 -0.0021991 0)
(7.33014 -0.00295082 0)
(7.3313 -0.00370294 0)
(7.33246 -0.00445703 0)
(7.33362 -0.00521465 0)
(7.33477 -0.00597723 0)
(7.33591 -0.00674612 0)
(7.33703 -0.00752247 0)
(7.33813 -0.00830731 0)
(7.3392 -0.00910149 0)
(7.34024 -0.00990571 0)
(7.34124 -0.0107206 0)
(7.34221 -0.0115466 0)
(7.34314 -0.0123844 0)
(7.33289 0.00153861 0)
(7.33145 0.00447345 0)
(7.32898 0.0066096 0)
(7.32621 0.00786973 0)
(7.32361 0.00841223 0)
(7.32136 0.00839736 0)
(7.31957 0.00798472 0)
(7.31826 0.0073124 0)
(7.31739 0.00648025 0)
(7.31693 0.00555729 0)
(7.31682 0.00459108 0)
(7.31701 0.00361279 0)
(7.31745 0.00264141 0)
(7.31809 0.00168768 0)
(7.31889 0.00075693 0)
(7.31983 -0.000149045 0)
(7.32086 -0.00103069 0)
(7.32198 -0.00188979 0)
(7.32315 -0.0027289 0)
(7.32437 -0.00355092 0)
(7.32561 -0.00435884 0)
(7.32687 -0.00515561 0)
(7.32813 -0.00594403 0)
(7.32938 -0.00672666 0)
(7.33062 -0.00750585 0)
(7.33185 -0.00828368 0)
(7.33305 -0.00906199 0)
(7.33422 -0.00984235 0)
(7.33536 -0.0106261 0)
(7.33646 -0.0114144 0)
(7.33753 -0.0122083 0)
(7.33856 -0.0130085 0)
(7.33954 -0.013816 0)
(7.33277 0.00237477 0)
(7.33022 0.00655463 0)
(7.32624 0.00923252 0)
(7.3221 0.0105491 0)
(7.31843 0.01086 0)
(7.31541 0.0104456 0)
(7.31313 0.00956766 0)
(7.31155 0.00843024 0)
(7.31057 0.00716348 0)
(7.31011 0.00584896 0)
(7.31008 0.00453855 0)
(7.31039 0.00326251 0)
(7.31099 0.00203612 0)
(7.3118 0.000865504 0)
(7.31279 -0.000248625 0)
(7.31392 -0.00130875 0)
(7.31515 -0.00231918 0)
(7.31646 -0.00328504 0)
(7.31781 -0.00421177 0)
(7.31921 -0.00510469 0)
(7.32062 -0.0059689 0)
(7.32204 -0.00680906 0)
(7.32346 -0.00762946 0)
(7.32486 -0.00843391 0)
(7.32624 -0.00922581 0)
(7.3276 -0.0100081 0)
(7.32892 -0.0107835 0)
(7.33021 -0.0115541 0)
(7.33146 -0.012322 0)
(7.33267 -0.0130887 0)
(7.33383 -0.0138556 0)
(7.33495 -0.014624 0)
(7.33602 -0.0153951 0)
(7.33248 0.00396248 0)
(7.32783 0.0101563 0)
(7.32139 0.0134332 0)
(7.31537 0.0145621 0)
(7.31044 0.0142923 0)
(7.3067 0.0131285 0)
(7.30409 0.0114993 0)
(7.30245 0.00968577 0)
(7.30159 0.00783363 0)
(7.30135 0.00602219 0)
(7.30161 0.00429631 0)
(7.30225 0.00267585 0)
(7.30318 0.00116491 0)
(7.30434 -0.000240361 0)
(7.30567 -0.00154748 0)
(7.30712 -0.00276577 0)
(7.30867 -0.00390512 0)
(7.31028 -0.0049753 0)
(7.31193 -0.00598545 0)
(7.3136 -0.00694396 0)
(7.31528 -0.00785839 0)
(7.31695 -0.00873548 0)
(7.3186 -0.00958116 0)
(7.32022 -0.0104007 0)
(7.32181 -0.0111985 0)
(7.32337 -0.0119786 0)
(7.32488 -0.0127445 0)
(7.32634 -0.013499 0)
(7.32775 -0.0142446 0)
(7.32912 -0.0149836 0)
(7.33042 -0.0157176 0)
(7.33168 -0.0164483 0)
(7.33288 -0.0171771 0)
(7.33192 0.00692354 0)
(7.32311 0.0161363 0)
(7.31274 0.0198088 0)
(7.30432 0.0202554 0)
(7.29817 0.0188173 0)
(7.29399 0.0163585 0)
(7.29147 0.0135736 0)
(7.29022 0.0108089 0)
(7.28988 0.00818148 0)
(7.29022 0.00574052 0)
(7.29109 0.00350873 0)
(7.29235 0.00148433 0)
(7.29389 -0.000348351 0)
(7.29563 -0.00200907 0)
(7.29752 -0.00351779 0)
(7.2995 -0.00489362 0)
(7.30156 -0.00615437 0)
(7.30364 -0.00731611 0)
(7.30574 -0.00839306 0)
(7.30784 -0.00939765 0)
(7.30991 -0.0103408 0)
(7.31195 -0.0112318 0)
(7.31395 -0.0120788 0)
(7.31591 -0.0128888 0)
(7.31781 -0.0136678 0)
(7.31965 -0.014421 0)
(7.32144 -0.0151527 0)
(7.32316 -0.0158668 0)
(7.32481 -0.0165665 0)
(7.3264 -0.0172546 0)
(7.32793 -0.0179335 0)
(7.32938 -0.0186054 0)
(7.33077 -0.0192725 0)
(7.33066 0.0138161 0)
(7.31338 0.0263449 0)
(7.29717 0.0284468 0)
(7.28626 0.02706 0)
(7.27934 0.0238824 0)
(7.27544 0.019856 0)
(7.27381 0.0158612 0)
(7.27367 0.0121999 0)
(7.2745 0.00887333 0)
(7.27603 0.00586418 0)
(7.27805 0.00316289 0)
(7.28042 0.000743957 0)
(7.28302 -0.00142503 0)
(7.28577 -0.00337435 0)
(7.28861 -0.00513075 0)
(7.29149 -0.00671858 0)
(7.29438 -0.00816 0)
(7.29725 -0.00947468 0)
(7.30008 -0.0106799 0)
(7.30286 -0.0117907 0)
(7.30557 -0.0128202 0)
(7.30821 -0.0137798 0)
(7.31077 -0.0146794 0)
(7.31324 -0.0155275 0)
(7.31563 -0.0163315 0)
(7.31793 -0.0170978 0)
(7.32013 -0.0178317 0)
(7.32225 -0.0185381 0)
(7.32428 -0.019221 0)
(7.32621 -0.0198836 0)
(7.32805 -0.0205289 0)
(7.32981 -0.021159 0)
(7.33147 -0.0217757 0)
(7.32447 0.0352529 0)
(7.28905 0.0484152 0)
(7.26649 0.0395875 0)
(7.25598 0.0291987 0)
(7.2507 0.0198774 0)
(7.2489 0.0120327 0)
(7.24973 0.00591134 0)
(7.25205 0.00117386 0)
(7.25519 -0.00258502 0)
(7.25891 -0.00560138 0)
(7.26304 -0.00802865 0)
(7.26741 -0.0100058 0)
(7.2719 -0.0116455 0)
(7.27643 -0.0130283 0)
(7.28094 -0.0142123 0)
(7.28539 -0.0152411 0)
(7.28973 -0.0161482 0)
(7.29396 -0.0169595 0)
(7.29806 -0.0176949 0)
(7.30201 -0.0183697 0)
(7.30581 -0.018996 0)
(7.30946 -0.0195835 0)
(7.31296 -0.0201396 0)
(7.3163 -0.0206704 0)
(7.3195 -0.0211808 0)
(7.32254 -0.0216748 0)
(7.32544 -0.0221555 0)
(7.3282 -0.0226258 0)
(7.33082 -0.0230878 0)
(7.3333 -0.0235437 0)
(7.33566 -0.0239955 0)
(7.3379 -0.0244454 0)
(7.34001 -0.0248963 0)
(7.29541 0.0831415 0)
(7.21833 0.128044 0)
(7.18707 0.129005 0)
(7.18632 0.113963 0)
(7.19295 0.0941333 0)
(7.20193 0.0760897 0)
(7.21231 0.0610604 0)
(7.22297 0.0481499 0)
(7.2335 0.0368358 0)
(7.24384 0.0270202 0)
(7.25389 0.0186059 0)
(7.26354 0.0114354 0)
(7.27271 0.00533968 0)
(7.28139 0.000167754 0)
(7.2896 -0.00421518 0)
(7.29732 -0.00793069 0)
(7.30459 -0.0110856 0)
(7.31143 -0.013771 0)
(7.31785 -0.0160637 0)
(7.32387 -0.0180282 0)
(7.32953 -0.0197183 0)
(7.33484 -0.0211791 0)
(7.33982 -0.0224481 0)
(7.3445 -0.0235566 0)
(7.34888 -0.0245306 0)
(7.35299 -0.0253918 0)
(7.35685 -0.0261582 0)
(7.36046 -0.0268449 0)
(7.36384 -0.0274644 0)
(7.367 -0.0280269 0)
(7.36996 -0.0285409 0)
(7.37271 -0.0290122 0)
(7.37527 -0.0294482 0)
(7.32717 -0.156814 0)
(7.19692 -0.284093 0)
(7.13361 -0.280647 0)
(7.11315 -0.247166 0)
(7.11508 -0.214556 0)
(7.13554 -0.184255 0)
(7.16564 -0.157031 0)
(7.19803 -0.134037 0)
(7.22997 -0.115224 0)
(7.26033 -0.099899 0)
(7.28836 -0.0873964 0)
(7.31374 -0.0772174 0)
(7.33648 -0.0689535 0)
(7.35673 -0.0622469 0)
(7.37472 -0.056796 0)
(7.39067 -0.052358 0)
(7.40478 -0.048739 0)
(7.41726 -0.0457833 0)
(7.42829 -0.0433655 0)
(7.43805 -0.0413846 0)
(7.44666 -0.0397599 0)
(7.45426 -0.0384263 0)
(7.46097 -0.0373315 0)
(7.46688 -0.0364331 0)
(7.47207 -0.035697 0)
(7.47663 -0.0350954 0)
(7.48062 -0.0346057 0)
(7.48409 -0.0342095 0)
(7.4871 -0.0338916 0)
(7.4897 -0.0336395 0)
(7.49194 -0.0334422 0)
(7.49383 -0.0332912 0)
(7.49546 -0.0331748 0)
(7.33086 1.21499 0)
(7.63822 1.23053 0)
(7.81865 0.920168 0)
(7.8759 0.647915 0)
(7.88919 0.449902 0)
(7.88325 0.310866 0)
(7.8619 0.213001 0)
(7.83006 0.143228 0)
(7.79308 0.0928983 0)