/*--------------------------------*- C++ -*----------------------------------*\
| =========                 |                                                 |
| \\      /  F ield         | OpenFOAM: The Open Source CFD Toolbox           |
|  \\    /   O peration     | Version:  4.1                                   |
|   \\  /    A nd           | Web:      www.OpenFOAM.org                      |
|    \\/     M anipulation  |                                                 |
\*---------------------------------------------------------------------------*/
FoamFile
{
    version     2.0;
    format      ascii;
    class       volScalarField;
    location    "700";
    object      epsilon;
}
// * * * * * * * * * * * * * * * * * * * * * * * * * * * * * * * * * * * * * //

dimensions      [0 2 -3 0 0 0 0];

internalField   nonuniform List<scalar> 
6820
(
115.949
152.042
190.661
230.213
269.213
306.364
340.623
371.267
397.899
420.4
438.868
453.554
464.802
473.008
478.579
481.909
483.368
483.29
481.969
479.661
476.584
472.923
468.833
464.442
459.854
455.155
450.414
445.686
441.014
436.435
431.967
427.716
425.087
9.48476
17.5528
23.8082
29.343
34.5615
39.5639
44.3524
48.9032
53.1857
57.1732
60.8488
64.2075
67.2549
70.0054
72.4795
74.7014
76.6973
78.4933
80.1146
81.5846
82.9246
84.1541
85.29
86.347
87.3376
88.2721
89.1588
90.0051
90.8155
91.5969
92.3481
93.078
93.7788
4.14146
5.59602
6.98297
8.20862
9.27788
10.2173
11.0506
11.7953
12.4652
13.0716
13.6233
14.1277
14.5907
15.0172
15.4112
15.7762
16.1152
16.4306
16.7248
16.9995
17.2581
17.5083
17.7522
17.9907
18.2242
18.4531
18.678
18.8992
19.1169
19.3315
19.5431
19.7523
19.9571
3.60121
3.91796
4.33109
4.75787
5.16049
5.52671
5.85474
6.14666
6.40579
6.6357
6.83984
7.02136
7.18307
7.32748
7.45673
7.57271
7.67703
7.77106
7.85601
7.9329
8.00258
8.0666
8.12603
8.18166
8.23407
8.28375
8.3311
8.37647
8.42014
8.46235
8.50333
8.54322
8.58238
3.52798
3.56982
3.67476
3.81744
3.97488
4.1328
4.28383
4.42458
4.55377
4.67122
4.77737
4.87291
4.95865
5.03543
5.10409
5.1654
5.22009
5.26883
5.31222
5.35082
5.38509
5.41551
5.44254
5.46658
5.48801
5.50713
5.52424
5.53957
5.55335
5.56576
5.57698
5.58712
5.59642
3.5197
3.49572
3.49766
3.52374
3.56745
3.62175
3.681
3.74133
3.80034
3.85661
3.90933
3.95814
4.00291
4.04368
4.08059
4.11385
4.14366
4.17029
4.19396
4.21492
4.23339
4.24958
4.26371
4.27597
4.28654
4.2956
4.30328
4.30973
4.31509
4.31946
4.32295
4.32565
4.32768
3.51928
3.48173
3.4529
3.43487
3.42775
3.42982
3.4388
3.45249
3.46904
3.48707
3.50557
3.52383
3.54138
3.55792
3.57325
3.58728
3.59995
3.61129
3.62131
3.63006
3.63761
3.64407
3.64949
3.65396
3.65753
3.66027
3.66225
3.66354
3.6642
3.66428
3.66385
3.66293
3.66161
3.51938
3.47956
3.44297
3.41081
3.38393
3.36257
3.34634
3.33451
3.32623
3.32072
3.31725
3.31524
3.31422
3.31382
3.31376
3.31382
3.31384
3.31373
3.31338
3.31277
3.31185
3.31061
3.30906
3.30719
3.30501
3.30254
3.29979
3.29678
3.29352
3.29005
3.28637
3.2825
3.27847
3.51942
3.47931
3.44106
3.40504
3.37162
3.34118
3.31388
3.28963
3.26823
3.24937
3.23274
3.218
3.20484
3.19299
3.1822
3.17226
3.16303
3.15434
3.1461
3.13822
3.13062
3.12325
3.11606
3.10902
3.10209
3.09526
3.08852
3.08184
3.07522
3.06865
3.06213
3.05566
3.04924
3.51943
3.47931
3.44074
3.4038
3.36856
3.33518
3.30378
3.27441
3.24705
3.22164
3.19808
3.17623
3.15594
3.13705
3.11941
3.10289
3.08735
3.07269
3.0588
3.04559
3.03299
3.02092
3.00935
2.9982
2.98745
2.97705
2.96698
2.9572
2.94769
2.93844
2.92943
2.92063
2.91204
3.51944
3.47931
3.44068
3.40355
3.36786
3.33364
3.30091
3.26968
3.23994
3.2117
3.18491
3.15952
3.13547
3.1127
3.09111
3.07063
3.05118
3.03267
3.01505
2.99824
2.98217
2.96679
2.95204
2.93788
2.92427
2.91116
2.89853
2.88633
2.87454
2.86314
2.8521
2.84139
2.83101
3.51944
3.47931
3.44066
3.40348
3.3677
3.33326
3.30016
3.26835
3.23781
3.20852
3.18044
3.15355
3.12781
3.10317
3.0796
3.05704
3.03545
3.01477
2.99495
2.97596
2.95773
2.94023
2.92341
2.90724
2.89167
2.87667
2.86221
2.84827
2.8348
2.82179
2.80921
2.79703
2.78525
3.51944
3.47931
3.44064
3.40345
3.36764
3.33315
3.29995
3.26797
3.23718
3.20753
3.17899
3.15152
3.12508
3.09964
3.07516
3.05161
3.02896
3.00716
2.98618
2.96598
2.94653
2.9278
2.90975
2.89234
2.87556
2.85936
2.84373
2.82863
2.81404
2.79993
2.78629
2.77309
2.76031
3.51944
3.4793
3.44063
3.40343
3.36761
3.3331
3.29987
3.26785
3.23698
3.20723
3.17853
3.15087
3.12418
3.09844
3.07362
3.04966
3.02655
3.00426
2.98274
2.96196
2.94191
2.92255
2.90385
2.88578
2.86832
2.85145
2.83513
2.81935
2.80408
2.78931
2.775
2.76115
2.74773
3.51944
3.4793
3.44063
3.40341
3.36758
3.33307
3.29982
3.26778
3.23689
3.2071
3.17836
3.15063
3.12386
3.09801
3.07305
3.04894
3.02564
3.00313
2.98138
2.96035
2.94002
2.92035
2.90133
2.88294
2.86513
2.8479
2.83122
2.81507
2.79942
2.78427
2.76959
2.75535
2.74156
3.51944
3.4793
3.44062
3.4034
3.36756
3.33304
3.29979
3.26774
3.23684
3.20703
3.17827
3.15051
3.12371
3.09783
3.07282
3.04865
3.02529
3.00271
2.98087
2.95974
2.93929
2.91951
2.90035
2.88181
2.86385
2.84646
2.82961
2.81328
2.79745
2.78211
2.76723
2.75281
2.73881
3.51944
3.4793
3.44061
3.40339
3.36754
3.33302
3.29976
3.2677
3.23679
3.20698
3.17821
3.15044
3.12362
3.09772
3.07269
3.0485
3.02512
3.0025
2.98062
2.95945
2.93896
2.91912
2.89991
2.8813
2.86327
2.84581
2.82887
2.81246
2.79655
2.78111
2.76614
2.75161
2.73751
3.51944
3.47929
3.44061
3.40338
3.36753
3.333
3.29974
3.26767
3.23675
3.20693
3.17816
3.15038
3.12355
3.09764
3.07261
3.0484
3.02501
3.00237
2.98048
2.95929
2.93878
2.91892
2.89969
2.88106
2.863
2.84551
2.82854
2.8121
2.79615
2.78067
2.76566
2.75109
2.73695
3.51944
3.47929
3.44061
3.40337
3.36752
3.33299
3.29972
3.26765
3.23672
3.2069
3.17811
3.15033
3.1235
3.09758
3.07253
3.04832
3.02492
3.00228
2.98037
2.95917
2.93865
2.91878
2.89954
2.88089
2.86282
2.84531
2.82833
2.81187
2.7959
2.7804
2.76537
2.75078
2.73661
3.51944
3.47929
3.44061
3.40337
3.36752
3.33298
3.2997
3.26763
3.2367
3.20686
3.17807
3.15028
3.12345
3.09752
3.07247
3.04826
3.02484
3.00219
2.98028
2.95908
2.93855
2.91867
2.89942
2.88077
2.86269
2.84517
2.82818
2.81171
2.79573
2.78023
2.76519
2.75059
2.73641
3.51944
3.47929
3.4406
3.40337
3.36751
3.33297
3.29969
3.26761
3.23668
3.20684
3.17804
3.15025
3.1234
3.09747
3.07242
3.0482
3.02478
3.00212
2.98021
2.959
2.93846
2.91858
2.89932
2.88066
2.86258
2.84505
2.82806
2.81158
2.79559
2.78009
2.76504
2.75043
2.73625
3.51944
3.47929
3.4406
3.40336
3.36751
3.33296
3.29968
3.2676
3.23666
3.20682
3.17802
3.15022
3.12337
3.09743
3.07237
3.04815
3.02472
3.00206
2.98014
2.95892
2.93839
2.9185
2.89923
2.88057
2.86248
2.84495
2.82795
2.81147
2.79548
2.77997
2.76491
2.7503
2.73611
3.51944
3.47929
3.4406
3.40336
3.3675
3.33296
3.29967
3.26759
3.23665
3.2068
3.178
3.15019
3.12334
3.0974
3.07233
3.0481
3.02467
3.00201
2.98008
2.95886
2.93832
2.91843
2.89916
2.88049
2.8624
2.84487
2.82786
2.81138
2.79538
2.77986
2.76481
2.75019
2.736
3.51944
3.47929
3.4406
3.40336
3.3675
3.33295
3.29967
3.26758
3.23664
3.20678
3.17798
3.15017
3.12331
3.09737
3.0723
3.04807
3.02463
3.00197
2.98004
2.95881
2.93827
2.91837
2.8991
2.88043
2.86233
2.84479
2.82778
2.81129
2.79529
2.77977
2.76471
2.75009
2.7359
3.51944
3.47929
3.4406
3.40336
3.3675
3.33295
3.29966
3.26757
3.23663
3.20678
3.17797
3.15016
3.1233
3.09735
3.07228
3.04804
3.02461
3.00194
2.98001
2.95878
2.93823
2.91833
2.89906
2.88038
2.86228
2.84474
2.82773
2.81124
2.79524
2.77972
2.76465
2.75003
2.73584
3.51944
3.47929
3.4406
3.40336
3.3675
3.33295
3.29966
3.26757
3.23662
3.20677
3.17796
3.15015
3.12329
3.09734
3.07227
3.04803
3.02459
3.00192
2.97998
2.95875
2.9382
2.9183
2.89902
2.88034
2.86224
2.84469
2.82768
2.81118
2.79518
2.77965
2.76459
2.74996
2.73576
3.51944
3.47929
3.4406
3.40336
3.3675
3.33295
3.29966
3.26757
3.23662
3.20677
3.17796
3.15014
3.12328
3.09733
3.07226
3.04802
3.02458
3.00191
2.97998
2.95875
2.93819
2.91829
2.89902
2.88034
2.86224
2.84469
2.82768
2.81119
2.79518
2.77966
2.76459
2.74997
2.73577
3.51944
3.47929
3.4406
3.40336
3.3675
3.33295
3.29966
3.26757
3.23662
3.20677
3.17796
3.15014
3.12328
3.09733
3.07226
3.04801
3.02457
3.0019
2.97996
2.95873
2.93818
2.91827
2.89899
2.88031
2.86221
2.84466
2.82764
2.81114
2.79514
2.77961
2.76454
2.74991
2.73571
3.51944
3.47929
3.4406
3.40336
3.3675
3.33295
3.29966
3.26757
3.23663
3.20678
3.17797
3.15016
3.1233
3.09735
3.07228
3.04804
3.02461
3.00194
2.98001
2.95878
2.93823
2.91833
2.89906
2.88038
2.86228
2.84474
2.82773
2.81123
2.79523
2.77971
2.76464
2.75001
2.73582
3.51944
3.47929
3.4406
3.40336
3.3675
3.33296
3.29967
3.26758
3.23663
3.20678
3.17797
3.15016
3.1233
3.09735
3.07227
3.04803
3.02459
3.00192
2.97999
2.95875
2.9382
2.9183
2.89902
2.88034
2.86224
2.8447
2.82769
2.81119
2.79519
2.77967
2.76461
2.74999
2.73579
3.51944
3.47929
3.4406
3.40336
3.3675
3.33296
3.29968
3.26759
3.23666
3.20681
3.17802
3.15022
3.12337
3.09744
3.07238
3.04815
3.02473
3.00207
2.98015
2.95894
2.9384
2.91852
2.89925
2.88059
2.86251
2.84498
2.82799
2.81151
2.79553
2.78002
2.76498
2.75037
2.7362
3.51944
3.47929
3.4406
3.40337
3.36751
3.33297
3.29968
3.2676
3.23666
3.20681
3.178
3.1502
3.12335
3.09742
3.07236
3.04814
3.02472
3.00208
2.98018
2.95898
2.93847
2.91861
2.89938
2.88075
2.86271
2.84522
2.82827
2.81184
2.79591
2.78046
2.76547
2.75093
2.73681
3.51944
3.47929
3.44061
3.40337
3.36753
3.333
3.29975
3.26771
3.23682
3.20703
3.17829
3.15055
3.12378
3.09793
3.07296
3.04883
3.02551
3.00298
2.98118
2.96011
2.93972
2.92
2.90091
2.88242
2.86453
2.8472
2.83042
2.81415
2.79839
2.78311
2.7683
2.75394
2.74
3.51944
3.47929
3.44061
3.40338
3.36754
3.33305
3.29985
3.26787
3.23707
3.2074
3.1788
3.15124
3.12468
3.09906
3.07436
3.05054
3.02756
3.00539
2.98399
2.96333
2.94338
2.92411
2.9055
2.88751
2.87013
2.85332
2.83707
2.82135
2.80613
2.79141
2.77715
2.76335
2.74997
3.51943
3.4793
3.44066
3.40356
3.36794
3.33374
3.30092
3.26945
3.23927
3.21034
3.18261
3.15603
3.13055
3.10613
3.08271
3.06025
3.03869
3.018
2.99812
2.97902
2.96065
2.94298
2.92596
2.90957
2.89378
2.87855
2.86385
2.84966
2.83596
2.82272
2.80992
2.79753
2.78555
3.51942
3.47942
3.4412
3.4049
3.37061
3.33828
3.30787
3.27931
3.25251
3.22735
3.20374
3.18153
3.16063
3.14093
3.12231
3.1047
3.08799
3.07211
3.05699
3.04257
3.02878
3.01558
3.00292
2.99077
2.97909
2.96783
2.95699
2.94651
2.93639
2.9266
2.91712
2.90794
2.89902
3.5196
3.48203
3.4494
3.42177
3.39875
3.37983
3.36442
3.35191
3.34178
3.33354
3.32681
3.32126
3.31662
3.31268
3.30926
3.30623
3.30346
3.30088
3.29841
3.296
3.29362
3.29123
3.28881
3.28635
3.28383
3.28124
3.27859
3.27588
3.27309
3.27025
3.26734
3.26437
3.26135
3.53049
3.53942
3.57109
3.61695
3.67052
3.72753
3.78534
3.84241
3.89782
3.951
4.00161
4.0495
4.09463
4.13704
4.17681
4.21407
4.24892
4.28151
4.31198
4.34046
4.36707
4.39194
4.4152
4.43694
4.45727
4.4763
4.49411
4.51078
4.52639
4.54103
4.55475
4.56763
4.57976
4.00122
4.78106
5.43755
6.00229
6.50073
6.94822
7.35501
7.72857
8.07456
8.39728
8.70006
8.98558
9.25598
9.51299
9.75805
9.99234
10.2168
10.4324
10.6397
10.8394
11.032
11.218
11.3977
11.5715
11.7398
11.9028
12.0608
12.214
12.3626
12.5068
12.647
12.783
12.9157
31.176
33.6247
36.0474
38.4445
40.8147
43.1561
45.4659
47.7407
49.9772
52.1722
54.323
56.4269
58.4817
60.4855
62.4367
64.3341
66.1768
67.9641
69.6956
71.3714
72.9915
74.5564
76.0664
77.5224
78.9252
80.2758
81.5752
82.8245
84.0251
85.1781
86.2851
87.3476
88.3747
437.059
505.859
598.399
700.189
792.184
861.788
904.863
923.062
921.351
905.637
881.106
851.501
819.388
786.442
753.648
721.565
690.245
659.795
630.022
600.934
572.669
545.387
519.222
494.277
470.628
448.321
427.377
407.79
389.534
372.562
356.815
342.226
328.723
316.231
304.673
293.969
284.042
274.813
266.205
258.145
250.563
243.393
236.573
230.047
223.761
217.669
211.728
205.899
200.15
194.452
188.783
183.125
177.463
171.791
166.102
160.396
154.675
148.946
143.217
137.498
131.801
126.141
120.532
114.991
109.532
104.173
98.9283
93.8139
88.8444
84.034
79.396
74.9435
70.6881
66.6403
62.8089
59.2
55.8171
52.6602
49.7256
47.0063
44.4919
42.1701
40.0276
38.0511
36.2287
34.5503
33.0083
31.5984
30.3189
29.1699
28.153
27.2683
26.5145
25.8854
25.3738
24.9644
24.6533
24.4154
24.2838
24.2318
95.1837
100.466
110.663
127.908
152.72
184.097
220.102
258.065
295.158
329.01
357.999
381.293
398.774
410.862
418.278
421.828
422.164
419.798
415.328
409.172
401.659
393.067
383.636
373.577
363.082
352.327
341.466
330.637
319.951
309.5
299.352
289.557
280.146
271.137
262.537
254.34
246.533
239.096
232.003
225.223
218.724
212.473
206.436
200.582
194.88
189.302
183.821
178.416
173.067
167.757
162.474
157.209
151.954
146.707
141.468
136.239
131.024
125.831
120.667
115.542
110.468
105.455
100.517
95.6672
90.9176
86.2813
81.7707
77.3974
73.1725
69.1061
65.2076
61.4858
57.948
54.6007
51.4484
48.494
45.7376
43.1771
40.8074
38.6209
36.608
34.7575
33.058
31.4984
30.069
28.7621
27.5722
26.496
25.5324
24.6814
23.9433
23.3168
22.7987
22.3821
22.0588
21.8146
21.6454
21.53
21.4952
21.5378
20.214
20.6088
21.3121
22.6361
24.9554
28.6687
34.004
41.1373
50.1664
61.0792
73.6692
87.5753
102.346
117.5
132.582
147.181
160.944
173.471
184.602
194.269
202.451
209.16
214.431
218.323
220.916
222.309
222.616
221.963
220.478
218.287
215.512
212.262
208.639
204.731
200.612
196.347
191.988
187.573
183.134
178.693
174.262
169.851
165.463
161.099
156.756
152.43
148.118
143.814
139.513
135.213
130.91
126.602
122.291
117.978
113.665
109.359
105.065
100.792
96.5469
92.3409
88.1841
84.0876
80.0625
76.1202
72.2716
68.5273
64.8971
61.3901
58.0145
54.7776
51.6859
48.7452
45.9603
43.3348
40.871
38.57
36.4306
34.4499
32.6232
30.9436
29.403
27.9924
26.7025
25.525
24.4524
23.4791
22.6015
21.8176
21.1272
20.5304
20.0274
19.6166
19.2942
19.0532
18.8856
18.7784
18.7275
18.7147
18.7612
18.8844
8.6269
8.68157
8.75113
8.85945
9.04287
9.35919
9.88185
10.6923
11.8846
13.5063
15.6309
18.3415
21.7091
25.7873
30.607
36.1677
42.4271
49.2848
56.5785
64.1624
71.8833
79.5796
87.0883
94.2539
100.938
107.028
112.44
117.123
121.054
124.237
126.696
128.473
129.618
130.19
130.25
129.857
129.072
127.948
126.533
124.87
122.997
120.945
118.739
116.4
113.947
111.392
108.748
106.024
103.227
100.364
97.4425
94.4676
91.4463
88.3858
85.2936
82.1784
79.0493
75.916
72.7886
69.678
66.5947
63.5497
60.5535
57.6165
54.7484
51.9582
49.2542
46.6438
44.1335
41.7291
39.4355
37.2569
35.1968
33.2576
31.4411
29.7474
28.1757
26.7235
25.3873
24.1619
23.0413
22.0189
21.0882
20.2432
19.4789
18.7917
18.1792
17.6408
17.1767
16.7875
16.4737
16.2337
16.0646
15.9598
15.9125
15.9112
15.9522
16.02
16.13
16.3184
5.60584
5.61695
5.62973
5.64576
5.6684
5.70369
5.76194
5.8576
6.0094
6.23818
6.56355
7.0063
7.59303
8.35405
9.32264
10.5343
12.0243
13.8249
15.9505
18.4148
21.2218
24.3623
27.8111
31.5254
35.4459
39.4997
43.6056
47.6788
51.6373
55.4061
58.9213
62.1325
65.0037
67.5127
69.6504
71.4185
72.8272
73.8932
74.6371
75.0818
75.2509
75.1679
74.8551
74.3335
73.6223
72.7392
71.6997
70.5182
69.2073
67.7791
66.2443
64.6137
62.8973
61.1054
59.2483
57.3364
55.3801
53.3902
51.3773
49.3521
47.3251
45.3065
43.3062
41.3334
39.397
37.5048
35.6642
33.8816
32.1628
30.5128
28.9358
27.4356
26.0153
24.6771
23.4228
22.253
21.1675
20.1651
19.2436
18.3998
17.63
16.9301
16.2959
15.7238
15.211
14.7553
14.3561
14.0133
13.7277
13.5003
13.3317
13.2208
13.1653
13.16
13.1991
13.2732
13.379
13.5038
13.6578
13.8913
4.32914
4.33002
4.33081
4.33169
4.33297
4.33548
4.34064
4.35075
4.3693
4.40099
4.45161
4.52673
4.63389
4.78154
4.97934
5.23832
5.57079
5.99025
6.50906
7.13984
7.89569
8.78913
9.83098
11.0291
12.3871
13.903
15.5685
17.3683
19.2807
21.2779
23.3274
25.3941
27.4419
29.4359
31.344
33.1385
34.7964
36.3004
37.6383
38.8025
39.7899
40.6008
41.2382
41.707
42.0138
42.166
42.1717
42.0391
41.7765
41.3925
40.8954
40.2937
39.5959
38.8105
37.9465
37.0125
36.0178
34.9712
33.882
32.7592
31.6117
30.448
29.2766
28.1053
26.9415
25.792
24.6632
23.5607
22.4897
21.4546
20.4594
19.5078
18.6027
17.7466
16.9415
16.1886
15.4886
14.8414
14.2462
13.7016
13.2058
12.7565
12.3518
11.9898
11.6692
11.3895
11.1509
10.9541
10.8004
10.6909
10.6264
10.6065
10.6294
10.691
10.7868
10.9092
11.0555
11.2154
11.395
11.6534
3.65949
3.65646
3.65287
3.64902
3.64477
3.64025
3.6357
3.63154
3.62859
3.62785
3.63073
3.63887
3.65436
3.67976
3.71812
3.77299
3.8484
3.94888
4.07923
4.24401
4.44842
4.69773
4.99731
5.35235
5.76769
6.24746
6.79476
7.41134
8.0972
8.85034
9.6665
10.5391
11.4592
12.416
13.3969
14.3885
15.3765
16.3469
17.2864
18.1825
19.0242
19.8023
20.509
21.1385
21.6865
22.1502
22.5281
22.82
23.0264
23.1489
23.1899
23.1521
23.039
22.8547
22.6037
22.2909
21.9217
21.5015
21.0362
20.5319
19.9946
19.4303
18.8449
18.2442
17.6337
17.0187
16.4041
15.7944
15.1937
14.606
14.0347
13.483
12.9537
12.4493
11.9718
11.5229
11.1039
10.7153
10.3575
10.0302
9.73282
9.46475
9.22525
9.0138
8.83028
8.675
8.54881
8.45296
8.38894
8.35816
8.36155
8.39909
8.46959
8.57012
8.69719
8.84485
9.01084
9.1869
9.37583
9.64076
3.27353
3.26751
3.26104
3.25426
3.24715
3.23973
3.23204
3.22413
3.21616
3.20833
3.20099
3.1946
3.18976
3.18727
3.1881
3.19347
3.20478
3.22369
3.25203
3.29167
3.34465
3.4131
3.49929
3.60547
3.7338
3.88629
4.06479
4.27087
4.50574
4.77023
5.06461
5.38855
5.74103
6.12031
6.52387
6.94847
7.39021
7.84459
8.30663
8.77103
9.2323
9.68493
10.1235
10.543
10.9387
11.3062
11.6419
11.9424
12.2053
12.4285
12.6106
12.7505
12.8481
12.9035
12.9175
12.8913
12.8266
12.7256
12.5907
12.4246
12.2305
12.0114
11.7708
11.5121
11.2385
10.9534
10.66
10.3615
10.0608
9.76077
9.46397
9.17291
8.88992
8.61709
8.35631
8.10919
7.87706
7.66094
7.46156
7.27935
7.11453
6.9672
6.83746
6.72555
6.63196
6.5575
6.50333
6.4709
6.4618
6.47751
6.51911
6.58689
6.68021
6.79703
6.93479
7.08894
7.25765
7.43436
7.61942
7.87551
3.04176
3.03306
3.02409
3.01487
3.00545
2.99582
2.98595
2.97585
2.96553
2.95503
2.94446
2.93396
2.9237
2.91389
2.90484
2.89694
2.89067
2.88661
2.88549
2.88813
2.89535
2.90809
2.92732
2.95408
2.98939
3.03423
3.08952
3.1561
3.23464
3.3259
3.43033
3.54815
3.67939
3.82384
3.98107
4.15041
4.33095
4.52152
4.72072
4.92693
5.13831
5.35291
5.5686
5.7832
5.99447
6.20018
6.39813
6.5862
6.7624
6.92487
7.07193
7.20211
7.31419
7.4072
7.48044
7.5335
7.56628
7.57895
7.57198
7.54609
7.50224
7.44162
7.36558
7.27562
7.17335
7.06046
6.93869
6.80977
6.67547
6.53754
6.39766
6.25753
6.11874
5.98283
5.85124
5.72527
5.60607
5.49463
5.39174
5.29806
5.2141
5.14031
5.07713
5.02513
4.98504
4.95783
4.94471
4.94713
4.96661
5.00462
5.06229
5.14013
5.23793
5.35437
5.48765
5.6344
5.79316
5.95877
6.12995
6.36557
2.90224
2.89106
2.87975
2.8683
2.85674
2.84508
2.83328
2.82133
2.80924
2.79702
2.78467
2.77222
2.75974
2.74727
2.73492
2.72281
2.7111
2.69999
2.68974
2.68064
2.67304
2.66732
2.66393
2.66334
2.66605
2.67256
2.68336
2.69892
2.71968
2.74603
2.7783
2.81672
2.86144
2.9125
2.96998
3.03378
3.10363
3.1792
3.26006
3.34567
3.43544
3.52867
3.6246
3.72241
3.82122
3.92012
4.01817
4.1144
4.20786
4.29758
4.38263
4.46211
4.53518
4.60107
4.6591
4.70869
4.74938
4.78083
4.80286
4.81541
4.81857
4.81257
4.79776
4.77461
4.74371
4.70573
4.66142
4.6116
4.55714
4.49896
4.43799
4.37522
4.31161
4.24814
4.18576
4.12537
4.06782
4.01389
3.96423
3.91947
3.88014
3.84673
3.81978
3.79989
3.78781
3.78445
3.79092
3.80851
3.8386
3.88253
3.94142
4.01592
4.10614
4.2113
4.33025
4.46054
4.60106
4.74778
4.89848
5.10589
2.81925
2.80595
2.79261
2.77923
2.76579
2.75231
2.73878
2.72519
2.71153
2.6978
2.68398
2.67009
2.65614
2.64216
2.62816
2.61418
2.60027
2.58649
2.57293
2.55971
2.54695
2.53479
2.52342
2.51303
2.50385
2.49611
2.49006
2.48596
2.48406
2.48459
2.48778
2.49381
2.50284
2.51497
2.53028
2.54878
2.57048
2.59536
2.62329
2.65408
2.6875
2.7233
2.76116
2.80076
2.84175
2.88373
2.92631
2.96907
3.01159
3.05343
3.09415
3.13333
3.17052
3.20532
3.23733
3.26619
3.29157
3.31317
3.33078
3.3442
3.35332
3.35809
3.35852
3.3547
3.34676
3.33492
3.31945
3.30065
3.27892
3.25466
3.22834
3.20046
3.17156
3.14219
3.11291
3.0843
3.0569
3.03125
3.00784
2.98713
2.96957
2.95559
2.94566
2.94031
2.94016
2.94598
2.9587
2.9794
3.00923
3.04936
3.10085
3.1644
3.24036
3.32836
3.42775
3.53681
3.65476
3.77846
3.90533
4.08061
2.77193
2.75693
2.74194
2.72695
2.71196
2.69695
2.68195
2.66694
2.65192
2.63686
2.62179
2.60668
2.59154
2.57638
2.56121
2.54603
2.53086
2.51571
2.50062
2.48562
2.47075
2.45605
2.44159
2.42746
2.41373
2.40051
2.38792
2.37606
2.36508
2.35509
2.34622
2.33861
2.33236
2.32758
2.32434
2.32271
2.32274
2.32449
2.32793
2.33303
2.33971
2.34789
2.35743
2.36821
2.38007
2.39284
2.40636
2.42042
2.43483
2.4494
2.46391
2.47817
2.49196
2.50509
2.51735
2.52856
2.53853
2.54711
2.55413
2.55948
2.56304
2.56474
2.56452
2.56237
2.55829
2.55233
2.54457
2.53512
2.52411
2.51173
2.49819
2.48372
2.4686
2.45312
2.4376
2.42237
2.40776
2.39412
2.38177
2.37105
2.36227
2.35577
2.3519
2.35108
2.35379
2.36064
2.37232
2.3897
2.4137
2.4453
2.48543
2.53482
2.59392
2.6627
2.74087
2.8273
2.92148
3.02102
3.12335
3.2658
2.74589
2.72965
2.71343
2.69724
2.68106
2.66489
2.64874
2.63261
2.61649
2.60037
2.58425
2.56813
2.55201
2.53589
2.51977
2.50365
2.48754
2.47145
2.45537
2.43933
2.42333
2.40739
2.39152
2.37576
2.36013
2.34466
2.32941
2.31442
2.29975
2.28545
2.27159
2.25823
2.24547
2.23337
2.22199
2.2114
2.20163
2.19272
2.18471
2.1776
2.17138
2.16604
2.16154
2.15784
2.15488
2.15259
2.15089
2.14969
2.14892
2.14846
2.14823
2.14813
2.14805
2.1479
2.14757
2.14699
2.14605
2.14466
2.14276
2.14026
2.13711
2.13325
2.12864
2.12325
2.11706
2.11009
2.10234
2.09385
2.08466
2.07487
2.06454
2.05381
2.04279
2.03165
2.02054
2.00966
1.99921
1.98938
1.98039
1.97246
1.9658
1.96066
1.95728
1.95597
1.95708
1.96105
1.96839
1.97975
1.99583
2.01742
2.04531
2.08018
2.12255
2.1726
2.23031
2.29501
2.36642
2.44275
2.52175
2.63301
2.73258
2.7155
2.69845
2.68142
2.66441
2.64741
2.63043
2.61347
2.59653
2.57961
2.5627
2.54579
2.52891
2.51203
2.49517
2.47832
2.46149
2.44468
2.42789
2.41112
2.39438
2.37767
2.36099
2.34435
2.32775
2.31121
2.29475
2.27836
2.26209
2.24595
2.22997
2.21418
2.19863
2.18337
2.16845
2.15389
2.13972
2.12598
2.11268
2.09985
2.08749
2.07562
2.06423
2.05332
2.04286
2.03285
2.02324
2.01401
2.00511
1.99651
1.98816
1.98001
1.97202
1.96414
1.95632
1.94852
1.94068
1.93278
1.92476
1.91659
1.90824
1.89968
1.89088
1.88184
1.87253
1.86296
1.85312
1.84302
1.8327
1.82217
1.81147
1.80067
1.78982
1.779
1.76831
1.75784
1.7477
1.73802
1.72892
1.72055
1.71304
1.70656
1.70128
1.69741
1.69518
1.69491
1.69696
1.70177
1.70988
1.72188
1.7384
1.76004
1.78734
1.8206
1.85999
1.90517
1.9561
2.01145
2.06944
2.15252
2.72596
2.70839
2.69082
2.67326
2.65571
2.63818
2.62066
2.60315
2.58565
2.56817
2.5507
2.53325
2.51581
2.49839
2.48098
2.46359
2.44622
2.42887
2.41155
2.39424
2.37697
2.35971
2.34248
2.32528
2.3081
2.29095
2.27383
2.25674
2.2397
2.22272
2.20581
2.18899
2.17227
2.15567
2.13922
2.12293
2.10682
2.09092
2.07524
2.05979
2.04459
2.02964
2.01496
2.00055
1.98641
1.97254
1.95893
1.94557
1.93245
1.91954
1.90685
1.89434
1.88199
1.86979
1.8577
1.84572
1.83381
1.82196
1.81014
1.79835
1.78655
1.77475
1.76293
1.75107
1.73918
1.72725
1.71528
1.70328
1.69125
1.67921
1.66719
1.65519
1.64327
1.63145
1.61978
1.60832
1.59713
1.58628
1.57585
1.56592
1.55658
1.54793
1.54009
1.5332
1.52741
1.52292
1.51999
1.5189
1.52003
1.5238
1.5307
1.54121
1.55584
1.57492
1.59877
1.62728
1.6606
1.69776
1.73759
1.79604
2.72298
2.70512
2.68726
2.6694
2.65155
2.63369
2.61584
2.598
2.58015
2.56232
2.5445
2.52668
2.50888
2.49109
2.47331
2.45555
2.4378
2.42008
2.40238
2.38469
2.36704
2.3494
2.33179
2.3142
2.29663
2.27908
2.26155
2.24405
2.22656
2.2091
2.19168
2.17432
2.15703
2.13981
2.12266
2.10561
2.08865
2.0718
2.05506
2.03845
2.02196
2.00562
1.98943
1.97339
1.95751
1.94179
1.92624
1.91084
1.89561
1.88053
1.8656
1.85082
1.83617
1.82165
1.80726
1.79297
1.77878
1.76469
1.75068
1.73675
1.72288
1.70908
1.69533
1.68163
1.66799
1.65439
1.64085
1.62735
1.61391
1.60054
1.58724
1.57402
1.56092
1.54793
1.53509
1.52243
1.50998
1.49778
1.48587
1.4743
1.46313
1.45242
1.44223
1.43267
1.42383
1.41582
1.40882
1.403
1.3986
1.39592
1.39529
1.39708
1.4017
1.40949
1.42079
1.43568
1.45444
1.47637
1.501
1.53843
2.72157
2.70356
2.68555
2.66753
2.64951
2.63148
2.61344
2.59541
2.57737
2.55933
2.5413
2.52327
2.50525
2.48723
2.46922
2.45122
2.43324
2.41527
2.39732
2.37939
2.36147
2.34358
2.3257
2.30785
2.29002
2.27221
2.25441
2.23664
2.2189
2.2012
2.18352
2.16589
2.1483
2.13076
2.11327
2.09585
2.07849
2.06119
2.04397
2.02683
2.00976
1.99279
1.97591
1.95912
1.94244
1.92586
1.90939
1.89303
1.87678
1.86064
1.84461
1.8287
1.81289
1.7972
1.7816
1.76611
1.75072
1.73543
1.72022
1.70511
1.69008
1.67513
1.66027
1.64548
1.63078
1.61615
1.60159
1.58712
1.57273
1.55843
1.54421
1.53009
1.51608
1.50218
1.48841
1.47478
1.46131
1.44801
1.43492
1.42206
1.40946
1.39716
1.3852
1.37363
1.36251
1.35192
1.34194
1.33269
1.32431
1.31699
1.31092
1.30638
1.30364
1.303
1.30478
1.30911
1.31639
1.32607
1.33842
1.35828
2.72094
2.70288
2.68479
2.6667
2.64859
2.63047
2.61235
2.59421
2.57607
2.55793
2.53978
2.52163
2.50349
2.48534
2.4672
2.44907
2.43095
2.41283
2.39473
2.37664
2.35856
2.34051
2.32247
2.30445
2.28644
2.26846
2.25049
2.23254
2.21461
2.19671
2.17885
2.16104
2.14327
2.12555
2.10788
2.09026
2.07269
2.05518
2.03773
2.02034
2.00301
1.98574
1.96855
1.95143
1.93438
1.91741
1.90052
1.88372
1.86699
1.85036
1.83381
1.81736
1.80099
1.78472
1.76853
1.75244
1.73644
1.72053
1.70471
1.68898
1.67333
1.65778
1.64231
1.62692
1.61162
1.5964
1.58127
1.56623
1.55127
1.53639
1.52161
1.50692
1.49232
1.47782
1.46343
1.44915
1.43499
1.42096
1.40707
1.39334
1.37978
1.36641
1.35326
1.34036
1.32773
1.31542
1.30348
1.29198
1.28098
1.27059
1.26094
1.25217
1.24447
1.23804
1.23314
1.22987
1.22867
1.22905
1.23201
1.23765
2.72058
2.70248
2.68436
2.66623
2.64808
2.62992
2.61175
2.59356
2.57537
2.55717
2.53897
2.52076
2.50255
2.48434
2.46613
2.44792
2.42972
2.41153
2.39334
2.37516
2.357
2.33884
2.3207
2.30258
2.28448
2.26638
2.24831
2.23026
2.21224
2.19425
2.1763
2.15838
2.14051
2.12268
2.10489
2.08716
2.06947
2.05184
2.03425
2.01673
1.99926
1.98185
1.9645
1.94721
1.92999
1.91284
1.89575
1.87874
1.8618
1.84493
1.82814
1.81143
1.7948
1.77825
1.76179
1.74541
1.72911
1.7129
1.69677
1.68073
1.66478
1.64891
1.63313
1.61743
1.60182
1.58629
1.57085
1.55549
1.54021
1.52502
1.50992
1.4949
1.47997
1.46512
1.45036
1.4357
1.42113
1.40666
1.39229
1.37803
1.36389
1.34988
1.33602
1.32231
1.30877
1.29543
1.28231
1.26944
1.25687
1.24463
1.23281
1.22146
1.21071
1.20066
1.19148
1.18323
1.17632
1.1702
1.16652
1.16133
2.72037
2.70226
2.68412
2.66597
2.6478
2.62962
2.61143
2.59322
2.57501
2.55678
2.53855
2.52031
2.50207
2.48383
2.46558
2.44734
2.4291
2.41086
2.39263
2.37441
2.35619
2.33799
2.31979
2.30161
2.28345
2.26529
2.24715
2.22903
2.21094
2.19288
2.17486
2.15688
2.13894
2.12104
2.10319
2.08538
2.06763
2.04992
2.03227
2.01467
1.99712
1.97963
1.9622
1.94483
1.92753
1.91028
1.8931
1.87599
1.85894
1.84197
1.82507
1.80824
1.79149
1.77481
1.75821
1.74169
1.72526
1.7089
1.69263
1.67644
1.66034
1.64432
1.62839
1.61253
1.59677
1.58109
1.56549
1.54997
1.53454
1.51919
1.50392
1.48873
1.47362
1.45859
1.44363
1.42876
1.41397
1.39926
1.38463
1.37009
1.35564
1.34128
1.32702
1.31287
1.29883
1.28492
1.27114
1.25752
1.24407
1.23081
1.21777
1.20498
1.19251
1.18039
1.16874
1.15753
1.14715
1.13692
1.12905
1.11629
2.7202
2.70207
2.68393
2.66576
2.64759
2.62939
2.61119
2.59297
2.57474
2.5565
2.53826
2.52001
2.50175
2.48349
2.46523
2.44696
2.4287
2.41044
2.39219
2.37394
2.3557
2.33747
2.31925
2.30104
2.28284
2.26465
2.24648
2.22833
2.21021
2.19213
2.17407
2.15605
2.13808
2.12014
2.10224
2.0844
2.0666
2.04885
2.03115
2.0135
1.99591
1.97837
1.96089
1.94347
1.92611
1.90882
1.89159
1.87442
1.85732
1.84029
1.82333
1.80645
1.78963
1.7729
1.75624
1.73965
1.72315
1.70673
1.6904
1.67414
1.65797
1.64188
1.62588
1.60996
1.59413
1.57838
1.56271
1.54713
1.53162
1.5162
1.50086
1.48559
1.4704
1.45529
1.44025
1.42528
1.41039
1.39557
1.38082
1.36614
1.35154
1.33701
1.32256
1.30819
1.2939
1.27971
1.2656
1.2516
1.2377
1.22391
1.21024
1.19671
1.18334
1.17013
1.15716
1.14437
1.13209
1.11951
1.10929
1.09181
2.72006
2.70193
2.68377
2.66561
2.64742
2.62922
2.61101
2.59279
2.57455
2.55631
2.53805
2.51979
2.50153
2.48326
2.46499
2.44672
2.42845
2.41018
2.39191
2.37365
2.3554
2.33715
2.31891
2.30069
2.28247
2.26426
2.24607
2.2279
2.20976
2.19166
2.17358
2.15554
2.13754
2.11958
2.10166
2.08379
2.06596
2.04818
2.03046
2.01278
1.99516
1.9776
1.96009
1.94264
1.92525
1.90793
1.89067
1.87347
1.85634
1.83928
1.8223
1.80538
1.78854
1.77177
1.75509
1.73848
1.72195
1.7055
1.68914
1.67286
1.65666
1.64055
1.62453
1.60859
1.59273
1.57696
1.56127
1.54567
1.53015
1.51471
1.49934
1.48406
1.46885
1.45371
1.43865
1.42366
1.40874
1.39388
1.3791
1.36438
1.34972
1.33514
1.32062
1.30617
1.29179
1.27747
1.26323
1.24906
1.23496
1.22093
1.20698
1.19309
1.17929
1.16556
1.15195
1.13837
1.12514
1.11135
1.09996
1.07983
2.71994
2.7018
2.68365
2.66547
2.64728
2.62908
2.61086
2.59263
2.57439
2.55615
2.53789
2.51962
2.50135
2.48308
2.4648
2.44652
2.42825
2.40997
2.3917
2.37343
2.35517
2.33692
2.31867
2.30043
2.2822
2.26398
2.24578
2.22761
2.20946
2.19134
2.17326
2.15521
2.13719
2.11922
2.10129
2.0834
2.06556
2.04776
2.03002
2.01232
1.99468
1.9771
1.95957
1.9421
1.9247
1.90735
1.89008
1.87286
1.85572
1.83864
1.82164
1.80471
1.78786
1.77108
1.75439
1.73777
1.72123
1.70478
1.68841
1.67213
1.65594
1.63983
1.6238
1.60787
1.59202
1.57626
1.56058
1.54499
1.52948
1.51406
1.49871
1.48344
1.46825
1.45314
1.43809
1.42312
1.40822
1.39338
1.37862
1.36391
1.34927
1.3347
1.32019
1.30574
1.29135
1.27703
1.26276
1.24855
1.2344
1.22029
1.20624
1.19222
1.17824
1.16429
1.1504
1.13647
1.1228
1.10844
1.09654
1.07509
2.71983
2.70169
2.68353
2.66535
2.64716
2.62895
2.61073
2.5925
2.57425
2.556
2.53774
2.51947
2.50119
2.48292
2.46464
2.44635
2.42807
2.40979
2.39151
2.37324
2.35497
2.33671
2.31846
2.30021
2.28198
2.26376
2.24556
2.22739
2.20924
2.19112
2.17303
2.15497
2.13695
2.11897
2.10103
2.08313
2.06527
2.04747
2.02971
2.01201
1.99435
1.97676
1.95922
1.94174
1.92432
1.90697
1.88968
1.87246
1.85531
1.83823
1.82122
1.80429
1.78744
1.77066
1.75397
1.73735
1.72083
1.70438
1.68803
1.67176
1.65558
1.63949
1.62349
1.60758
1.59176
1.57603
1.56038
1.54483
1.52936
1.51397
1.49867
1.48345