/*--------------------------------*- C++ -*----------------------------------*\
| =========                 |                                                 |
| \\      /  F ield         | OpenFOAM: The Open Source CFD Toolbox           |
|  \\    /   O peration     | Version:  4.1                                   |
|   \\  /    A nd           | Web:      www.OpenFOAM.org                      |
|    \\/     M anipulation  |                                                 |
\*---------------------------------------------------------------------------*/
FoamFile
{
    version     2.0;
    format      ascii;
    class       volScalarField;
    location    "700";
    object      k;
}
// * * * * * * * * * * * * * * * * * * * * * * * * * * * * * * * * * * * * * //

dimensions      [0 2 -2 0 0 0 0];

internalField   nonuniform List<scalar> 
6820
(
0.241787
0.289665
0.336844
0.381951
0.423953
0.46211
0.495948
0.525265
0.550092
0.57064
0.587232
0.60026
0.610144
0.617304
0.622141
0.625025
0.626286
0.626218
0.625076
0.623079
0.620412
0.617231
0.613667
0.609829
0.605806
0.601672
0.597487
0.593298
0.589145
0.58506
0.58106
0.577242
0.574875
0.202474
0.204679
0.206995
0.209467
0.212041
0.214681
0.217362
0.220056
0.222733
0.22537
0.227954
0.230479
0.232942
0.235349
0.237707
0.240026
0.242314
0.244581
0.246837
0.24909
0.251345
0.253609
0.255885
0.258177
0.260485
0.26281
0.26515
0.267505
0.26987
0.272243
0.274624
0.277004
0.279907
0.199741
0.199215
0.198471
0.197596
0.196619
0.195573
0.194483
0.193366
0.192235
0.191099
0.18997
0.188855
0.187761
0.186695
0.185662
0.184667
0.183716
0.182812
0.181958
0.181159
0.180414
0.179725
0.179091
0.178511
0.177984
0.17751
0.177087
0.176715
0.176391
0.176114
0.175882
0.1757
0.1756
0.199153
0.198176
0.197113
0.195992
0.194809
0.193571
0.192297
0.191001
0.189694
0.188384
0.187078
0.185782
0.184501
0.183238
0.181997
0.180781
0.179591
0.178431
0.177301
0.176204
0.17514
0.17411
0.173114
0.172153
0.171226
0.170332
0.169472
0.168645
0.16785
0.167088
0.166356
0.165655
0.164984
0.198981
0.1979
0.196807
0.195699
0.194559
0.193388
0.192197
0.190994
0.189785
0.188574
0.187366
0.186167
0.184978
0.183802
0.182643
0.181503
0.180382
0.179283
0.178206
0.177153
0.176125
0.175121
0.174143
0.17319
0.172263
0.171361
0.170485
0.169634
0.168807
0.168005
0.167227
0.166471
0.165731
0.198926
0.197795
0.196678
0.195576
0.194473
0.193363
0.192249
0.191134
0.190019
0.188909
0.187806
0.186711
0.185628
0.184558
0.183504
0.182465
0.181444
0.180441
0.179457
0.178492
0.177548
0.176624
0.17572
0.174837
0.173975
0.173133
0.172312
0.171511
0.17073
0.16997
0.169228
0.168505
0.167791
0.198906
0.197755
0.196631
0.195537
0.194463
0.193399
0.192342
0.191294
0.190254
0.189222
0.188201
0.187192
0.186194
0.18521
0.184241
0.183286
0.182348
0.181426
0.180521
0.179633
0.178762
0.177909
0.177075
0.176258
0.175459
0.174678
0.173914
0.173168
0.17244
0.171729
0.171035
0.170356
0.169684
0.1989
0.19774
0.196611
0.195517
0.194452
0.193408
0.192382
0.191373
0.19038
0.189401
0.188437
0.187487
0.186552
0.185631
0.184727
0.183837
0.182964
0.182107
0.181266
0.180441
0.179633
0.178841
0.178066
0.177307
0.176564
0.175838
0.175127
0.174433
0.173754
0.173091
0.172443
0.171808
0.171178
0.198897
0.197734
0.196603
0.195508
0.194448
0.193415
0.192408
0.191424
0.19046
0.189517
0.188591
0.187683
0.186792
0.185919
0.185061
0.184221
0.183396
0.182588
0.181796
0.18102
0.18026
0.179516
0.178787
0.178074
0.177376
0.176694
0.176026
0.175373
0.174735
0.174111
0.173501
0.172904
0.17231
0.198896
0.197732
0.1966
0.195505
0.194445
0.193417
0.192417
0.191444
0.190496
0.189571
0.188668
0.187785
0.186923
0.186079
0.185254
0.184447
0.183657
0.182884
0.182128
0.181388
0.180664
0.179956
0.179264
0.178587
0.177925
0.177278
0.176645
0.176026
0.175422
0.174831
0.174253
0.173687
0.173124
0.198896
0.197731
0.196599
0.195504
0.194444
0.193417
0.192421
0.191454
0.190514
0.1896
0.18871
0.187844
0.186999
0.186175
0.185371
0.184587
0.183821
0.183073
0.182342
0.181629
0.180931
0.18025
0.179585
0.178935
0.1783
0.177679
0.177073
0.17648
0.175902
0.175336
0.174784
0.174242
0.173704
0.198896
0.19773
0.196599
0.195504
0.194444
0.193418
0.192423
0.191458
0.190521
0.189612
0.188729
0.18787
0.187035
0.186222
0.18543
0.184659
0.183908
0.183176
0.182462
0.181765
0.181086
0.180423
0.179777
0.179146
0.17853
0.177929
0.177342
0.176769
0.17621
0.175664
0.175131
0.174609
0.174091
0.198896
0.19773
0.196599
0.195504
0.194444
0.193418
0.192424
0.19146
0.190525
0.189618
0.188738
0.187884
0.187054
0.186247
0.185463
0.1847
0.183958
0.183235
0.182532
0.181847
0.181179
0.180529
0.179895
0.179277
0.178675
0.178088
0.177515
0.176956
0.176411
0.175879
0.17536
0.174852
0.174348
0.198896
0.19773
0.196599
0.195504
0.194445
0.193419
0.192425
0.191461
0.190527
0.189621
0.188743
0.18789
0.187062
0.186259
0.185478
0.184719
0.183981
0.183264
0.182567
0.181888
0.181227
0.180584
0.179958
0.179349
0.178755
0.178176
0.177612
0.177063
0.176528
0.176006
0.175496
0.174998
0.174504
0.198896
0.19773
0.196599
0.195505
0.194445
0.193419
0.192425
0.191462
0.190528
0.189623
0.188745
0.187893
0.187067
0.186265
0.185486
0.184729
0.183994
0.18328
0.182586
0.181911
0.181254
0.180616
0.179995
0.17939
0.178802
0.178229
0.177671
0.177127
0.176598
0.176082
0.17558
0.175088
0.174601
0.198896
0.19773
0.196599
0.195505
0.194446
0.19342
0.192426
0.191463
0.190529
0.189624
0.188747
0.187895
0.187069
0.186268
0.18549
0.184734
0.184
0.183288
0.182595
0.181922
0.181267
0.180631
0.180012
0.179411
0.178825
0.178255
0.177701
0.177161
0.176635
0.176123
0.175625
0.175137
0.174654
0.198896
0.19773
0.1966
0.195505
0.194446
0.19342
0.192426
0.191463
0.19053
0.189625
0.188748
0.187896
0.187071
0.18627
0.185492
0.184737
0.184004
0.183292
0.1826
0.181928
0.181275
0.18064
0.180023
0.179422
0.178838
0.17827
0.177718
0.17718
0.176657
0.176147
0.175651
0.175166
0.174686
0.198896
0.19773
0.1966
0.195505
0.194446
0.19342
0.192427
0.191464
0.19053
0.189626
0.188748
0.187897
0.187072
0.186271
0.185493
0.184739
0.184006
0.183294
0.182603
0.181931
0.181279
0.180644
0.180028
0.179428
0.178845
0.178278
0.177726
0.17719
0.176667
0.176159
0.175664
0.175181
0.174702
0.198896
0.197729
0.1966
0.195506
0.194446
0.193421
0.192427
0.191464
0.190531
0.189626
0.188749
0.187898
0.187073
0.186272
0.185494
0.18474
0.184007
0.183296
0.182605
0.181933
0.181281
0.180647
0.180031
0.179432
0.178849
0.178283
0.177732
0.177195
0.176674
0.176166
0.175672
0.17519
0.174712
0.198896
0.197729
0.1966
0.195506
0.194446
0.193421
0.192427
0.191464
0.190531
0.189627
0.188749
0.187899
0.187073
0.186272
0.185495
0.184741
0.184008
0.183297
0.182606
0.181935
0.181283
0.180649
0.180033
0.179434
0.178852
0.178285
0.177734
0.177199
0.176677
0.17617
0.175676
0.175194
0.174717
0.198896
0.197729
0.1966
0.195506
0.194447
0.193421
0.192427
0.191465
0.190532
0.189627
0.18875
0.187899
0.187074
0.186273
0.185496
0.184742
0.184009
0.183298
0.182607
0.181936
0.181284
0.18065
0.180034
0.179435
0.178853
0.178287
0.177737
0.177201
0.17668
0.176173
0.175679
0.175197
0.17472
0.198896
0.197729
0.1966
0.195506
0.194447
0.193421
0.192428
0.191465
0.190532
0.189627
0.18875
0.1879
0.187074
0.186274
0.185497
0.184742
0.18401
0.183299
0.182608
0.181937
0.181285
0.180651
0.180035
0.179437
0.178855
0.178288
0.177738
0.177202
0.176681
0.176174
0.175681
0.175199
0.174722
0.198896
0.197729
0.1966
0.195506
0.194447
0.193421
0.192428
0.191465
0.190532
0.189628
0.188751
0.1879
0.187075
0.186274
0.185497
0.184743
0.18401
0.183299
0.182608
0.181937
0.181285
0.180652
0.180036
0.179437
0.178855
0.178289
0.177739
0.177203
0.176683
0.176176
0.175682
0.1752
0.174723
0.198896
0.19773
0.1966
0.195506
0.194447
0.193421
0.192428
0.191465
0.190532
0.189628
0.188751
0.1879
0.187075
0.186274
0.185497
0.184743
0.184011
0.1833
0.182609
0.181938
0.181286
0.180652
0.180037
0.179438
0.178856
0.17829
0.17774
0.177204
0.176683
0.176176
0.175683
0.175201
0.174724
0.198896
0.197729
0.1966
0.195506
0.194447
0.193421
0.192428
0.191465
0.190532
0.189628
0.188751
0.1879
0.187075
0.186274
0.185497
0.184743
0.184011
0.1833
0.182609
0.181938
0.181286
0.180653
0.180037
0.179438
0.178856
0.17829
0.17774
0.177204
0.176683
0.176176
0.175683
0.175201
0.174724
0.198896
0.197729
0.1966
0.195506
0.194447
0.193421
0.192428
0.191465
0.190532
0.189628
0.188751
0.1879
0.187075
0.186274
0.185497
0.184743
0.184011
0.1833
0.182609
0.181938
0.181286
0.180653
0.180037
0.179438
0.178856
0.17829
0.17774
0.177204
0.176683
0.176177
0.175683
0.175201
0.174724
0.198896
0.197729
0.1966
0.195506
0.194447
0.193421
0.192428
0.191465
0.190532
0.189628
0.188751
0.1879
0.187075
0.186274
0.185497
0.184743
0.18401
0.183299
0.182608
0.181937
0.181285
0.180652
0.180036
0.179437
0.178855
0.178289
0.177738
0.177203
0.176682
0.176175
0.175681
0.175199
0.174722
0.198896
0.197729
0.1966
0.195506
0.194447
0.193421
0.192428
0.191465
0.190532
0.189628
0.188751
0.1879
0.187075
0.186274
0.185497
0.184743
0.18401
0.183299
0.182608
0.181937
0.181285
0.180652
0.180036
0.179437
0.178855
0.178289
0.177738
0.177203
0.176682
0.176175
0.175681
0.175199
0.174722
0.198896
0.197729
0.1966
0.195506
0.194447
0.193421
0.192428
0.191465
0.190532
0.189627
0.18875
0.187899
0.187074
0.186273
0.185496
0.184741
0.184009
0.183297
0.182606
0.181935
0.181283
0.180649
0.180033
0.179434
0.178852
0.178285
0.177735
0.177199
0.176678
0.176171
0.175677
0.175195
0.174718
0.198896
0.197729
0.1966
0.195506
0.194447
0.193421
0.192427
0.191465
0.190532
0.189627
0.18875
0.187899
0.187074
0.186273
0.185496
0.184742
0.184009
0.183298
0.182607
0.181936
0.181283
0.18065
0.180034
0.179435
0.178852
0.178286
0.177735
0.177199
0.176678
0.176171
0.175677
0.175195
0.174717
0.198896
0.197729
0.1966
0.195506
0.194447
0.193421
0.192427
0.191464
0.190531
0.189626
0.188749
0.187898
0.187072
0.186271
0.185493
0.184738
0.184005
0.183294
0.182602
0.181931
0.181278
0.180644
0.180028
0.179428
0.178846
0.178279
0.177728
0.177192
0.17667
0.176162
0.175668
0.175185
0.174708
0.198896
0.197729
0.1966
0.195506
0.194446
0.193421
0.192427
0.191464
0.190531
0.189627
0.18875
0.187899
0.187074
0.186273
0.185496
0.184741
0.184008
0.183297
0.182605
0.181934
0.181281
0.180646
0.18003
0.17943
0.178847
0.17828
0.177728
0.177191
0.176669
0.176161
0.175666
0.175182
0.174704
0.198896
0.19773
0.1966
0.195505
0.194446
0.19342
0.192426
0.191462
0.190528
0.189623
0.188745
0.187893
0.187067
0.186265
0.185487
0.184732
0.183998
0.183286
0.182594
0.181921
0.181267
0.180632
0.180014
0.179413
0.178829
0.178261
0.177708
0.17717
0.176646
0.176136
0.175639
0.175154
0.174674
0.198896
0.19773
0.1966
0.195506
0.194447
0.193422
0.192429
0.191467
0.190534
0.18963
0.188753
0.187901
0.187075
0.186274
0.185495
0.184739
0.184004
0.183291
0.182597
0.181923
0.181267
0.180629
0.180009
0.179405
0.178818
0.178247
0.17769
0.177149
0.176621
0.176108
0.175607
0.175118
0.174633
0.198896
0.19773
0.1966
0.195504
0.194443
0.193416
0.192421
0.191457
0.190522
0.189617
0.188738
0.187885
0.187057
0.186253
0.185472
0.184713
0.183975
0.183258
0.18256
0.181881
0.181221
0.180578
0.179952
0.179343
0.17875
0.178172
0.177609
0.177061
0.176527
0.176007
0.175499
0.175004
0.174512
0.198897
0.197733
0.196606
0.195516
0.194462
0.193441
0.19245
0.191489
0.190556
0.18965
0.18877
0.187914
0.187082
0.186273
0.185486
0.18472
0.183974
0.183248
0.182541
0.181852
0.181181
0.180527
0.17989
0.17927
0.178665
0.178075
0.1775
0.176939
0.176393
0.17586
0.175341
0.174832
0.174328
0.1989
0.197735
0.196605
0.195515
0.194465
0.193449
0.192464
0.191508
0.190579
0.189676
0.188796
0.187939
0.187104
0.186291
0.185497
0.184724
0.18397
0.183235
0.182518
0.181819
0.181138
0.180473
0.179825
0.179193
0.178577
0.177976
0.177391
0.176819
0.176262
0.175719
0.175189
0.174672
0.174158
0.198944
0.197852
0.196795
0.195774
0.194787
0.193827
0.192894
0.191986
0.191101
0.190238
0.189397
0.188577
0.187778
0.186998
0.186237
0.185495
0.184771
0.184066
0.183378
0.182707
0.182054
0.181417
0.180797
0.180192
0.179603
0.179029
0.178471
0.177926
0.177397
0.176881
0.176379
0.175889
0.175406
0.199227
0.198572
0.198048
0.197613
0.197233
0.196892
0.196584
0.196305
0.196052
0.195821
0.19561
0.195418
0.195243
0.195084
0.194942
0.194813
0.194699
0.194597
0.194508
0.19443
0.194364
0.194307
0.194261
0.194223
0.194195
0.194174
0.194161
0.194155
0.194156
0.194164
0.194177
0.194196
0.194224
0.209515
0.220347
0.230808
0.24093
0.250733
0.260233
0.269438
0.278351
0.286978
0.295321
0.303382
0.311166
0.318675
0.325913
0.332885
0.339596
0.346049
0.352252
0.35821
0.36393
0.369416
0.374677
0.37972
0.38455
0.389175
0.393602
0.397838
0.40189
0.405764
0.409468
0.413008
0.416392
0.419649
0.644305
0.805297
0.984907
1.17059
1.33723
1.474
1.58007
1.65937
1.71784
1.76125
1.79397
1.81874
1.83759
1.85192
1.86254
1.86984
1.8736
1.87418
1.87128
1.86519
1.85638
1.84541
1.83282
1.81915
1.80494
1.79067
1.77673
1.76349
1.75118
1.74001
1.73012
1.72162
1.71455
1.70893
1.70472
1.70183
1.70017
1.69957
1.69987
1.70087
1.70238
1.70417
1.70603
1.70775
1.70912
1.70993
1.70999
1.70913
1.70716
1.70395
1.69937
1.6933
1.68566
1.67637
1.6654
1.65271
1.63829
1.62216
1.60435
1.58491
1.5639
1.5414
1.51751
1.49234
1.466
1.43863
1.41038
1.38141
1.35188
1.32198
1.29191
1.26186
1.23203
1.20263
1.17384
1.14582
1.11871
1.0926
1.06758
1.04369
1.02097
0.999466
0.979244
0.960393
0.943042
0.927346
0.913479
0.901606
0.891848
0.884249
0.878734
0.8751
0.873024
0.872081
0.871864
0.871945
0.872246
0.872587
0.873937
0.875394
0.287871
0.307581
0.342257
0.396262
0.468876
0.556537
0.653398
0.753147
0.850516
0.94178
1.02479
1.09871
1.16373
1.22066
1.2705
1.31414
1.35205
1.38459
1.41249
1.43605
1.45556
1.47135
1.48378
1.49323
1.50013
1.50488
1.50792
1.50962
1.51036
1.51045
1.51015
1.5097
1.5093
1.5091
1.50919
1.50963
1.51046
1.51163
1.51311
1.51479
1.51657
1.51831
1.51989
1.52115
1.52194
1.5221
1.52149
1.51997
1.51741
1.51369
1.50872
1.50241
1.49469
1.48551
1.47486
1.4627
1.44905
1.43392
1.41736
1.3994
1.38013
1.3596
1.33793
1.3152
1.29154
1.26707
1.24193
1.21626
1.19022
1.16397
1.13769
1.11156
1.08575
1.06043
1.03576
1.01187
0.988876
0.966854
0.945866
0.925953
0.907152
0.889505
0.873082
0.85798
0.844331
0.832296
0.822045
0.813731
0.807456
0.80323
0.800941
0.800342
0.801073
0.802685
0.804755
0.806862
0.808909
0.81073
0.813161
0.815338
0.175892
0.177394
0.180737
0.18714
0.197817
0.213794
0.236383
0.266457
0.304133
0.34876
0.399273
0.454312
0.512386
0.57205
0.632004
0.691113
0.748354
0.802674
0.853872
0.901731
0.946099
0.986878
1.02403
1.05757
1.08761
1.1143
1.13786
1.15856
1.17666
1.19245
1.20624
1.21829
1.22888
1.23824
1.24658
1.25409
1.2609
1.26712
1.27282
1.27802
1.28274
1.28696
1.29062
1.29367
1.29605
1.29766
1.29843
1.29826
1.29707
1.29478
1.29133
1.28666
1.28071
1.27346
1.26488
1.25498
1.24375
1.23123
1.21746
1.20247
1.18634
1.16915
1.15098
1.13192
1.11209
1.0916
1.07057
1.04913
1.02743
1.00561
0.98382
0.962214
0.940943
0.920151
0.899969
0.880508
0.86186
0.844093
0.827257
0.811388
0.796521
0.782703
0.770004
0.758526
0.748401
0.739788
0.732851
0.727736
0.72453
0.723227
0.723699
0.725683
0.728806
0.732618
0.73669
0.740612
0.744269
0.747494
0.750994
0.753912
0.164174
0.163492
0.163044
0.163048
0.163763
0.165476
0.16855
0.173386
0.180374
0.190046
0.20283
0.219064
0.239019
0.262852
0.290576
0.322022
0.356804
0.39429
0.433721
0.4745
0.515996
0.55757
0.598613
0.638577
0.677005
0.713538
0.747925
0.780012
0.80973
0.837081
0.862125
0.884965
0.905738
0.9246
0.941716
0.957251
0.97136
0.984182
0.995838
1.00642
1.01601
1.02465
1.03237
1.03918
1.04507
1.05002
1.054
1.05697
1.05888
1.0597
1.05939
1.0579
1.05521
1.0513
1.04618
1.03983
1.03229
1.02357
1.01373
1.0028
0.990853
0.977961
0.964204
0.94967
0.934456
0.918663
0.9024
0.885782
0.86893
0.851969
0.835028
0.818239
0.80173
0.785623
0.770026
0.755036
0.740729
0.727164
0.714385
0.70243
0.691335
0.68115
0.671948
0.663831
0.656932
0.651404
0.647403
0.645066
0.644469
0.645601
0.648329
0.652396
0.657441
0.663028
0.668743
0.674191
0.679243
0.683726
0.688212
0.691853
0.164798
0.163876
0.162999
0.162214
0.161576
0.161153
0.16104
0.161349
0.162206
0.163762
0.166197
0.169705
0.174487
0.180749
0.188705
0.198562
0.210501
0.224646
0.241006
0.259616
0.280433
0.303332
0.328099
0.35444
0.381997
0.410372
0.439154
0.467947
0.496386
0.524156
0.550999
0.576716
0.60117
0.624278
0.646
0.666337
0.685313
0.702971
0.719361
0.734539
0.748557
0.761458
0.77328
0.784049
0.793781
0.802482
0.810148
0.816768
0.822326
0.826806
0.830187
0.832455
0.833597
0.83361
0.832496
0.830265
0.826938
0.822544
0.817122
0.810718
0.80339
0.795199
0.786217
0.77652
0.766189
0.755313
0.743984
0.732299
0.72036
0.708274
0.696149
0.684097
0.672225
0.660637
0.649425
0.638672
0.628445
0.618796
0.60977
0.601403
0.593736
0.586823
0.580739
0.575587
0.571496
0.568614
0.56709
0.567052
0.568573
0.571637
0.57612
0.58178
0.588279
0.595209
0.602181
0.608823
0.614996
0.620521
0.625837
0.630087
0.166889
0.165976
0.165067
0.164173
0.163313
0.162505
0.161778
0.161172
0.160732
0.160509
0.160566
0.160979
0.161827
0.163195
0.165176
0.167869
0.171377
0.175798
0.181214
0.187714
0.195388
0.204313
0.21455
0.226134
0.239064
0.253302
0.268766
0.285334
0.302847
0.321115
0.33993
0.359077
0.378346
0.397539
0.416482
0.435023
0.453042
0.470441
0.487147
0.503106
0.51828
0.532643
0.546177
0.558865
0.570697
0.581658
0.591736
0.600914
0.609175
0.616503
0.622881
0.628294
0.632733
0.636191
0.638668
0.640172
0.640716
0.640321
0.639016
0.636838
0.633829
0.630038
0.625521
0.62034
0.614558
0.608248
0.601483
0.594343
0.586911
0.579275
0.571525
0.563753
0.556049
0.5485
0.541186
0.534178
0.527535
0.521308
0.515538
0.510266
0.505535
0.501401
0.49794
0.495253
0.493465
0.492716
0.493149
0.494886
0.497997
0.502474
0.508207
0.514975
0.522472
0.530325
0.538174
0.545671
0.552674
0.558994
0.564947
0.569656
0.168835
0.167969
0.167099
0.16623
0.165368
0.16452
0.163693
0.162901
0.162161
0.161491
0.160918
0.16047
0.160184
0.160098
0.160254
0.1607
0.161484
0.162655
0.164261
0.166343
0.168952
0.172135
0.175939
0.180409
0.185586
0.191505
0.198189
0.205654
0.213897
0.222901
0.23263
0.243031
0.254034
0.265555
0.277499
0.289765
0.30225
0.314851
0.32747
0.340015
0.3524
0.364551
0.376399
0.387883
0.398948
0.409545
0.41963
0.429161
0.438098
0.446407
0.454055
0.461012
0.467255
0.472763
0.477523
0.481525
0.484769
0.48726
0.489008
0.490033
0.490358
0.490014
0.489038
0.48747
0.485358
0.482752
0.479707
0.476284
0.472546
0.468563
0.464405
0.460146
0.45586
0.451618
0.447488
0.44353
0.439798
0.436338
0.433193
0.430401
0.42801
0.426074
0.424669
0.423891
0.423855
0.424696
0.426547
0.429525
0.433701
0.439076
0.44556
0.452962
0.461012
0.469375
0.477725
0.485742
0.493276
0.500131
0.50651
0.511511
0.170384
0.169571
0.168753
0.16793
0.167106
0.166281
0.16546
0.164646
0.163847
0.16307
0.162326
0.161628
0.16099
0.160431
0.159971
0.159634
0.159444
0.159429
0.159615
0.160029
0.160697
0.161644
0.162897
0.164481
0.16642
0.168736
0.17145
0.174582
0.178145
0.182154
0.186614
0.191528
0.19689
0.202691
0.208911
0.215526
0.222504
0.229806
0.23739
0.245209
0.253213
0.261349
0.269565
0.277807
0.286022
0.294158
0.302164
0.30999
0.317589
0.324913
0.33192
0.338567
0.344817
0.350637
0.355996
0.360871
0.365243
0.369097
0.372428
0.375233
0.377516
0.379287
0.380562
0.381362
0.381711
0.381641
0.381186
0.380387
0.379288
0.377939
0.376391
0.3747
0.372924
0.371118
0.369338
0.367634
0.366052
0.364634
0.363419
0.362446
0.361761
0.361415
0.361481
0.362045
0.363216
0.365115
0.367867
0.371581
0.376331
0.382129
0.388906
0.396505
0.404694
0.413181
0.421673
0.42988
0.437649
0.444777
0.451366
0.456491
0.171562
0.170796
0.170024
0.169247
0.168464
0.167679
0.166891
0.166102
0.165316
0.164535
0.163763
0.163006
0.162269
0.161561
0.160892
0.160272
0.159716
0.159237
0.158851
0.158575
0.158424
0.158415
0.158566
0.158891
0.159407
0.160128
0.161067
0.162236
0.163647
0.165309
0.167231
0.169417
0.171875
0.174605
0.177609
0.180885
0.184428
0.188231
0.192284
0.196574
0.201085
0.205797
0.21069
0.215738
0.220915
0.226193
0.23154
0.236924
0.24231
0.247664
0.25295
0.258131
0.263174
0.268045
0.27271
0.277141
0.28131
0.285196
0.288777
0.292041
0.294975
0.297574
0.299836
0.301765
0.303368
0.304659
0.305653
0.306374
0.306846
0.307102
0.307176
0.307106
0.306933
0.3067
0.306447
0.306215
0.306042
0.305964
0.306014
0.30623
0.30665
0.307326
0.308318
0.309706
0.311586
0.314066
0.317258
0.321267
0.326166
0.331977
0.338654
0.346075
0.354045
0.362316
0.370632
0.378729
0.386455
0.393604
0.400194
0.405285
0.172416
0.17169
0.170959
0.170221
0.169479
0.168731
0.167979
0.167224
0.166466
0.165707
0.164948
0.164191
0.163439
0.162697
0.161967
0.161255
0.160569
0.159915
0.159301
0.158739
0.158236
0.157804
0.157453
0.157195
0.15704
0.156999
0.157082
0.157297
0.157654
0.15816
0.158821
0.159643
0.16063
0.161786
0.163114
0.164615
0.16629
0.16814
0.170163
0.172357
0.174718
0.177241
0.179921
0.182748
0.185715
0.188809
0.192017
0.195325
0.198715
0.20217
0.20567
0.209192
0.212713
0.216212
0.219663
0.223043
0.22633
0.229501
0.232537
0.23542
0.238133
0.240663
0.243002
0.245142
0.24708
0.248816
0.250355
0.251705
0.252879
0.253893
0.254768
0.255526
0.256196
0.256806
0.257386
0.257966
0.258574
0.25924
0.259993
0.260863
0.261885
0.263101
0.264566
0.266347
0.268525
0.271196
0.274459
0.278408
0.283118
0.28862
0.294889
0.301833
0.3093
0.31708
0.324954
0.332688
0.340133
0.34708
0.353484
0.358401
0.173028
0.172334
0.171635
0.170931
0.170221
0.169506
0.168787
0.168063
0.167335
0.166604
0.16587
0.165133
0.164396
0.163659
0.162925
0.162195
0.161473
0.160762
0.160067
0.159393
0.158746
0.158132
0.157556
0.157028
0.156553
0.156139
0.155795
0.155526
0.155339
0.155241
0.155238
0.155334
0.155533
0.15584
0.156257
0.156787
0.157432
0.158193
0.15907
0.160064
0.161175
0.162402
0.163744
0.165198
0.166762
0.168432
0.170204
0.172072
0.174029
0.176068
0.178179
0.180351
0.182573
0.184832
0.187114
0.189405
0.19169
0.193953
0.196179
0.198354
0.200464
0.202497
0.204441
0.206287
0.208028
0.209659
0.211177
0.212584
0.213883
0.215081
0.216189
0.21722
0.21819
0.219118
0.220024
0.220929
0.221855
0.222823
0.223856
0.22498
0.226223
0.22762
0.229216
0.231065
0.233237
0.235811
0.238874
0.24251
0.24679
0.251754
0.257397
0.263655
0.270412
0.2775
0.284734
0.291909
0.298881
0.305446
0.311512
0.316148
0.173439
0.172772
0.172099
0.171421
0.170738
0.170051
0.169359
0.168662
0.167961
0.167256
0.166546
0.165833
0.165117
0.164398
0.163677
0.162955
0.162233
0.161514
0.160799
0.160091
0.159393
0.158708
0.158041
0.157395
0.156776
0.156187
0.155635
0.155123
0.154658
0.154244
0.153886
0.153587
0.153353
0.153186
0.15309
0.153067
0.15312
0.15325
0.153458
0.153747
0.154117
0.154567
0.155099
0.155712
0.156406
0.157179
0.158031
0.15896
0.159962
0.161037
0.162178
0.163383
0.164645
0.165959
0.167317
0.168713
0.170137
0.17158
0.173033
0.174488
0.175933
0.17736
0.178761
0.180126
0.18145
0.182725
0.183949
0.185119
0.186233
0.187295
0.188309
0.189282
0.190222
0.191142
0.192054
0.192972
0.193913
0.194892
0.195927
0.197037
0.198245
0.19958
0.201075
0.202776
0.204738
0.207027
0.209715
0.212877
0.216579
0.220867
0.225749
0.231192
0.23711
0.243376
0.249836
0.256314
0.262677
0.268727
0.274344
0.278625
0.173715
0.173067
0.172414
0.171756
0.171094
0.170428
0.169757
0.169082
0.168403
0.16772
0.167032
0.16634
0.165645
0.164946
0.164243
0.163537
0.162829
0.162119
0.161408
0.160698
0.15999
0.159286
0.158587
0.157898
0.157219
0.156555
0.155909
0.155283
0.154681
0.154107
0.153564
0.153055
0.152584
0.152155
0.151768
0.151428
0.151137
0.150896
0.150707
0.150572
0.150492
0.150468
0.1505
0.15059
0.150738
0.150943
0.151205
0.151525
0.151902
0.152335
0.152821
0.153361
0.153951
0.154589
0.155272
0.155997
0.156758
0.157551
0.158372
0.159214
0.160073
0.160942
0.161815
0.162687
0.163553
0.164408
0.165248
0.16607
0.166872
0.167656
0.168421
0.169171
0.169912
0.17065
0.171393
0.172151
0.172934
0.173755
0.174628
0.175565
0.176586
0.177712
0.178969
0.180393
0.182027
0.183922
0.18614
0.188744
0.191794
0.195338
0.199399
0.203963
0.208978
0.21435
0.219958
0.225655
0.231321
0.236767
0.241862
0.245745
0.173885
0.17325
0.172612
0.171969
0.171323
0.170672
0.170018
0.16936
0.168697
0.168031
0.167361
0.166687
0.16601
0.165328
0.164642
0.163953
0.16326
0.162564
0.161865
0.161164
0.160462
0.159759
0.159058
0.158358
0.157662
0.156971
0.156287
0.155613
0.15495
0.154301
0.153669
0.153055
0.152462
0.151892
0.151348
0.150831
0.150345
0.14989
0.149468
0.149081
0.14873
0.148417
0.148142
0.147906
0.14771
0.147555
0.14744
0.147367
0.147335
0.147344
0.147394
0.147485
0.147615
0.147784
0.147991
0.148234
0.148511
0.14882
0.149159
0.149524
0.149914
0.150324
0.150751
0.151191
0.151643
0.152102
0.152565
0.153031
0.153498
0.153965
0.154433
0.154903
0.155377
0.15586
0.156357
0.156875
0.15742
0.158002
0.158629
0.159314
0.16007
0.160913
0.161863
0.162946
0.164195
0.165652
0.167363
0.169381
0.171761
0.174549
0.177777
0.181451
0.185544
0.189994
0.194714
0.199583
0.204498
0.209284
0.213814
0.21728
0.173991
0.173366
0.172737
0.172105
0.17147
0.17083
0.170188
0.169542
0.168892
0.168239
0.167582
0.166921
0.166257
0.16559
0.164918
0.164243
0.163564
0.162882
0.162196
0.161508
0.160816
0.160123
0.159427
0.158731
0.158035
0.15734
0.156646
0.155956
0.155271
0.154591
0.153919
0.153257
0.152605
0.151965
0.15134
0.15073
0.150137
0.149563
0.14901
0.148477
0.147968
0.147483
0.147022
0.146588
0.14618
0.145799
0.145447
0.145123
0.144828
0.144562
0.144326
0.144119
0.143941
0.143793
0.143673
0.143582
0.143519
0.143482
0.143471
0.143485
0.143522
0.14358
0.143658
0.143754
0.143866
0.143992
0.144132
0.144282
0.144444
0.144614
0.144795
0.144986
0.14519
0.145407
0.145643
0.145901
0.146186
0.146504
0.146862
0.147269
0.147735
0.148271
0.148892
0.149619
0.150474
0.151488
0.152699
0.154147
0.155879
0.157939
0.160363
0.163169
0.166355
0.169886
0.173706
0.177724
0.181855
0.185946
0.18988
0.192919
0.17405
0.173431
0.172809
0.172184
0.171556
0.170924
0.170289
0.169652
0.169011
0.168366
0.167719
0.167068
0.166414
0.165757
0.165096
0.164432
0.163765
0.163094
0.162419
0.161742
0.161061
0.160378
0.159692
0.159004
0.158314
0.157623
0.156931
0.15624
0.15555
0.154862
0.154177
0.153495
0.152818
0.152148
0.151484
0.150829
0.150182
0.149547
0.148923
0.148311
0.147713
0.14713
0.146562
0.146011
0.145476
0.14496
0.144462
0.143982
0.143523
0.143083
0.142664
0.142265
0.141887
0.141531
0.141194
0.140879
0.140585
0.140311
0.140057
0.139823
0.139608
0.139411
0.139232
0.13907
0.138924
0.138793
0.138676
0.138573
0.138482
0.138405
0.13834
0.138288
0.13825
0.138228
0.138224
0.13824
0.138281
0.138349
0.138451
0.138592
0.13878
0.139023
0.139331
0.139719
0.140204
0.140807
0.141555
0.142481
0.143621
0.145013
0.146692
0.148687
0.151009
0.15365
0.15658
0.15974
0.163067
0.166432
0.16974
0.172341
0.174085
0.17347
0.172852
0.172231
0.171608
0.170981
0.170352
0.169719
0.169084
0.168446
0.167805
0.167161
0.166514
0.165864
0.165211
0.164555
0.163896
0.163233
0.162568
0.161899
0.161227
0.160553
0.159875
0.159195
0.158513
0.157829
0.157144
0.156457
0.155769
0.155082
0.154395
0.153709
0.153024
0.152342
0.151663
0.150987
0.150317
0.149651
0.148992
0.14834
0.147695
0.147059
0.146432
0.145814
0.145208
0.144612
0.144028
0.143456
0.142897
0.142351
0.141819
0.141301
0.140797
0.140307
0.139832
0.139372
0.138926
0.138496
0.13808
0.137679
0.137292
0.13692
0.136562
0.136217
0.135886
0.135568
0.135262
0.134968
0.134687
0.134418
0.13416
0.133915
0.133683
0.133465
0.133262
0.133076
0.13291
0.132766
0.132648
0.132559
0.132506
0.132493
0.132528
0.132622
0.132784
0.133032
0.133382
0.133858
0.134487
0.1353
0.136328
0.137599
0.139136
0.140947
0.143027
0.145342
0.147858
0.150473
0.153126
0.155262
0.174103
0.17349
0.172875
0.172257
0.171636
0.171012
0.170386
0.169757
0.169125
0.168491
0.167854
0.167214
0.166572
0.165927
0.165279
0.164628
0.163974
0.163318
0.162658
0.161996
0.161331
0.160663
0.159993
0.15932
0.158645
0.157967
0.157288
0.156606
0.155924
0.15524
0.154556
0.153871
0.153187
0.152502
0.151819
0.151137
0.150457
0.149779
0.149105
0.148433
0.147766
0.147103
0.146446
0.145794
0.145148
0.144508
0.143876
0.143252
0.142635
0.142027
0.141428
0.140837
0.140257
0.139686
0.139125
0.138574
0.138033
0.137503
0.136983
0.136474
0.135975
0.135487
0.13501
0.134542
0.134085
0.133638
0.133201
0.132774
0.132357
0.131949
0.131551
0.131164
0.130786
0.13042
0.130066
0.129725
0.129398
0.129087
0.128796
0.128525
0.128279
0.128062
0.127878
0.127734
0.127638
0.127599
0.127629
0.127744
0.127963
0.128307
0.128801
0.12947
0.130337
0.131421
0.13273
0.134255
0.135984
0.137847
0.139819
0.141457
0.174113
0.173502
0.172888
0.172272
0.171652
0.171031
0.170406
0.169779
0.16915
0.168518
0.167883
0.167246
0.166607
0.165964
0.16532
0.164672
0.164022
0.16337
0.162714
0.162057
0.161396
0.160733
0.160068
0.1594
0.15873
0.158057
0.157383
0.156707
0.156029
0.15535
0.154669
0.153988
0.153306
0.152623
0.15194
0.151257
0.150575
0.149894
0.149213
0.148534
0.147857
0.147182
0.14651
0.145841
0.145175
0.144513
0.143855
0.143202
0.142554
0.14191
0.141273
0.140641
0.140016
0.139396
0.138784
0.138178
0.13758
0.136988
0.136405
0.135828
0.135259
0.134697
0.134144
0.133597
0.133058
0.132527
0.132003
0.131487
0.130977
0.130476
0.129981
0.129495
0.129016
0.128545
0.128082
0.127629
0.127186
0.126755
0.126336
0.125931
0.125543
0.125173
0.124826
0.124505
0.124215
0.123961
0.123752
0.123598
0.123509
0.1235
0.123588
0.123793
0.124134
0.124629
0.125294
0.126132
0.127151
0.128305
0.129606
0.130723
0.174119
0.173508
0.172895
0.172279
0.171661
0.17104
0.170417
0.169791
0.169163
0.168532
0.167899
0.167263
0.166625
0.165985
0.165342
0.164697
0.164049
0.163399
0.162746
0.162091
0.161433
0.160773
0.160111
0.159447
0.15878
0.158112
0.157441
0.156769
0.156095
0.155419
0.154742
0.154064
0.153385
0.152704
0.152024
0.151342
0.150661
0.149979
0.149297
0.148616
0.147936
0.147257
0.146578
0.145902
0.145227
0.144554
0.143883
0.143215
0.14255
0.141889
0.14123
0.140576
0.139925
0.139279
0.138637
0.138
0.137367
0.13674
0.136118
0.135501
0.134889
0.134282
0.133681
0.133086
0.132496
0.131911
0.131332
0.130759
0.13019
0.129627
0.12907
0.128517
0.127971
0.12743
0.126894
0.126365
0.125843
0.125328
0.124821
0.124323
0.123836
0.12336
0.122899
0.122453
0.122027
0.121623
0.121247
0.120903
0.120598
0.120342
0.120145