/*--------------------------------*- C++ -*----------------------------------*\
| =========                 |                                                 |
| \\      /  F ield         | OpenFOAM: The Open Source CFD Toolbox           |
|  \\    /   O peration     | Version:  4.1                                   |
|   \\  /    A nd           | Web:      www.OpenFOAM.org                      |
|    \\/     M anipulation  |                                                 |
\*---------------------------------------------------------------------------*/
FoamFile
{
    version     2.0;
    format      ascii;
    class       volScalarField;
    location    "700";
    object      nut;
}
// * * * * * * * * * * * * * * * * * * * * * * * * * * * * * * * * * * * * * //

dimensions      [0 2 -1 0 0 0 0];

internalField   nonuniform List<scalar> 
6820
(
4.53774e-05
4.96674e-05
5.35596e-05
5.7033e-05
6.00872e-05
6.27329e-05
6.49892e-05
6.68824e-05
6.84449e-05
6.97114e-05
7.07176e-05
7.14978e-05
7.20841e-05
7.25058e-05
7.27893e-05
7.29578e-05
7.30313e-05
7.30274e-05
7.29608e-05
7.28441e-05
7.26881e-05
7.25015e-05
7.22919e-05
7.20655e-05
7.18274e-05
7.15819e-05
7.13325e-05
7.1082e-05
7.08328e-05
7.05868e-05
7.03451e-05
7.01137e-05
6.99698e-05
0.000389004
0.000214804
0.000161971
0.000134577
0.000117082
0.000104841
9.58724e-05
8.91195e-05
8.39492e-05
7.99546e-05
7.68576e-05
7.44592e-05
7.26132e-05
7.12095e-05
7.01638e-05
6.9411e-05
6.88997e-05
6.85892e-05
6.84467e-05
6.84457e-05
6.85645e-05
6.87853e-05
6.90931e-05
6.94752e-05
6.99209e-05
7.04211e-05
7.0968e-05
7.15547e-05
7.21758e-05
7.28244e-05
7.35005e-05
7.41938e-05
7.51907e-05
0.000867009
0.000638273
0.00050769
0.000428082
0.000375014
0.000336916
0.000308048
0.000285295
0.000266813
0.00025144
0.000238413
0.00022721
0.000217459
0.00020889
0.000201303
0.000194545
0.000188496
0.000183062
0.000178166
0.00017375
0.000169743
0.000166042
0.000162606
0.000159413
0.000156444
0.00015368
0.000151107
0.000148711
0.000146479
0.0001444
0.00014246
0.00014066
0.000139058
0.000991214
0.000902164
0.000807377
0.000726622
0.000661863
0.000610175
0.000568431
0.000534166
0.000505567
0.000481332
0.000460513
0.000442414
0.000426509
0.0004124
0.000399781
0.000388414
0.000378112
0.000368725
0.000360135
0.000352243
0.000344972
0.000338221
0.000331918
0.00032601
0.000320454
0.000315216
0.000310267
0.000305582
0.000301139
0.00029692
0.000292907
0.000289087
0.000285441
0.00101005
0.00098739
0.000948626
0.000902916
0.000857083
0.00081444
0.000776076
0.000742011
0.000711858
0.000685132
0.000661359
0.000640115
0.000621037
0.000603821
0.00058821
0.000573991
0.000560984
0.000549041
0.000538036
0.000527862
0.000518429
0.000509659
0.000501478
0.000493824
0.000486644
0.00047989
0.000473524
0.00046751
0.000461816
0.000456418
0.00045129
0.00044641
0.000441714
0.00101185
0.00100724
0.000995356
0.000976942
0.000954121
0.000929118
0.000903659
0.000878801
0.000855099
0.000832805
0.000812001
0.000792668
0.000774737
0.000758113
0.000742692
0.000728374
0.000715061
0.000702662
0.000691095
0.000680287
0.00067017
0.000660684
0.000651773
0.000643389
0.000635487
0.000628027
0.000620973
0.000614293
0.000607959
0.000601943
0.000596222
0.000590767
0.000585499
0.00101178
0.00101089
0.00100777
0.00100182
0.000992905
0.000981471
0.000968242
0.00095392
0.000939072
0.000924117
0.000909347
0.000894953
0.000881053
0.000867715
0.00085497
0.000842827
0.00083128
0.000820311
0.000809899
0.000800017
0.000790637
0.000781725
0.000773254
0.0007652
0.000757539
0.000750246
0.0007433
0.00073668
0.000730365
0.000724338
0.00071858
0.000713064
0.000707703
0.00101168
0.00101136
0.00101047
0.00100868
0.00100565
0.0010012
0.000995412
0.000988494
0.000980691
0.000972245
0.000963375
0.000954264
0.000945058
0.000935871
0.000926788
0.00091787
0.000909162
0.000900694
0.000892486
0.000884548
0.000876885
0.000869497
0.00086238
0.000855529
0.000848937
0.000842597
0.000836499
0.000830636
0.000824998
0.000819576
0.000814359
0.000809327
0.00080439
0.00101165
0.00101137
0.00101095
0.0010103
0.00100928
0.00100769
0.00100543
0.00100251
0.000998941
0.000994803
0.000990178
0.00098516
0.000979838
0.000974296
0.000968606
0.00096283
0.000957019
0.000951215
0.00094545
0.00093975
0.000934136
0.000928624
0.000923227
0.000917951
0.000912805
0.000907792
0.000902914
0.000898172
0.000893566
0.000889095
0.000884755
0.000880531
0.000876336
0.00101164
0.00101135
0.00101102
0.00101063
0.00101016
0.00100951
0.0010086
0.00100738
0.00100583
0.00100394
0.00100172
0.000999201
0.000996409
0.000993382
0.000990158
0.000986773
0.000983263
0.000979658
0.000975987
0.000972273
0.000968538
0.0009648
0.000961074
0.000957374
0.000953709
0.000950089
0.000946521
0.000943011
0.000939563
0.000936181
0.000932866
0.000929605
0.000926316
0.00101163
0.00101134
0.00101103
0.0010107
0.00101036
0.00100998
0.00100952
0.00100894
0.00100823
0.00100736
0.00100632
0.00100511
0.00100373
0.00100219
0.00100049
0.000998656
0.000996699
0.000994636
0.000992481
0.000990251
0.000987958
0.000985618
0.000983241
0.000980839
0.000978421
0.000975996
0.000973572
0.000971156
0.000968753
0.000966369
0.000964005
0.000961651
0.000959226
0.00101163
0.00101134
0.00101103
0.00101072
0.00101041
0.0010101
0.00100977
0.00100939
0.00100897
0.00100849
0.00100793
0.0010073
0.00100658
0.00100577
0.00100487
0.00100388
0.00100282
0.00100167
0.00100045
0.000999166
0.000997824
0.00099643
0.000994993
0.000993517
0.00099201
0.000990479
0.000988927
0.000987362
0.000985787
0.000984206
0.000982622
0.000981024
0.000979332
0.00101163
0.00101133
0.00101104
0.00101073
0.00101043
0.00101014
0.00100984
0.00100953
0.00100921
0.00100886
0.0010085
0.0010081
0.00100766
0.00100719
0.00100667
0.00100611
0.00100551
0.00100486
0.00100416
0.00100342
0.00100265
0.00100183
0.00100098
0.0010001
0.000999189
0.000998253
0.000997294
0.000996317
0.000995323
0.000994316
0.000993295
0.00099225
0.000991101
0.00101163
0.00101133
0.00101104
0.00101074
0.00101045
0.00101016
0.00100987
0.00100958
0.00100929
0.00100899
0.00100869
0.00100837
0.00100804
0.0010077
0.00100734
0.00100696
0.00100657
0.00100615
0.0010057
0.00100524
0.00100476
0.00100425
0.00100372
0.00100317
0.00100261
0.00100202
0.00100142
0.00100081
0.00100018
0.000999537
0.000998884
0.000998206
0.000997425
0.00101163
0.00101133
0.00101104
0.00101075
0.00101046
0.00101018
0.00100989
0.00100961
0.00100933
0.00100905
0.00100877
0.00100848
0.0010082
0.00100791
0.00100761
0.00100732
0.00100701
0.0010067
0.00100638
0.00100604
0.0010057
0.00100536
0.001005
0.00100463
0.00100425
0.00100386
0.00100346
0.00100306
0.00100264
0.00100222
0.00100179
0.00100134
0.00100078
0.00101163
0.00101133
0.00101105
0.00101075
0.00101047
0.00101019
0.00100991
0.00100963
0.00100936
0.00100908
0.00100881
0.00100854
0.00100827
0.001008
0.00100773
0.00100746
0.00100719
0.00100692
0.00100665
0.00100637
0.0010061
0.00100582
0.00100553
0.00100525
0.00100496
0.00100467
0.00100437
0.00100407
0.00100377
0.00100346
0.00100315
0.00100282
0.0010024
0.00101163
0.00101133
0.00101105
0.00101076
0.00101048
0.0010102
0.00100992
0.00100965
0.00100938
0.00100911
0.00100884
0.00100858
0.00100831
0.00100805
0.0010078
0.00100754
0.00100729
0.00100704
0.00100679
0.00100654
0.00100629
0.00100605
0.0010058
0.00100556
0.00100531
0.00100507
0.00100483
0.00100458
0.00100434
0.0010041
0.00100385
0.00100359
0.00100323
0.00101163
0.00101133
0.00101105
0.00101076
0.00101048
0.00101021
0.00100994
0.00100966
0.0010094
0.00100913
0.00100887
0.00100861
0.00100835
0.00100809
0.00100784
0.00100759
0.00100735
0.00100711
0.00100687
0.00100663
0.00100639
0.00100616
0.00100593
0.00100571
0.00100548
0.00100526
0.00100504
0.00100482
0.0010046
0.00100439
0.00100418
0.00100395
0.00100363
0.00101163
0.00101133
0.00101105
0.00101077
0.00101049
0.00101022
0.00100994
0.00100968
0.00100941
0.00100915
0.00100889
0.00100863
0.00100838
0.00100812
0.00100788
0.00100763
0.00100739
0.00100716
0.00100692
0.00100669
0.00100647
0.00100624
0.00100602
0.00100581
0.00100559
0.00100538
0.00100517
0.00100497
0.00100477
0.00100457
0.00100437
0.00100416
0.00100386
0.00101163
0.00101133
0.00101105
0.00101077
0.00101049
0.00101022
0.00100995
0.00100969
0.00100942
0.00100916
0.0010089
0.00100865
0.0010084
0.00100815
0.00100791
0.00100767
0.00100743
0.0010072
0.00100697
0.00100674
0.00100652
0.0010063
0.00100608
0.00100587
0.00100566
0.00100546
0.00100526
0.00100506
0.00100487
0.00100468
0.00100449
0.00100428
0.00100399
0.00101163
0.00101133
0.00101105
0.00101077
0.0010105
0.00101023
0.00100996
0.00100969
0.00100943
0.00100917
0.00100892
0.00100867
0.00100842
0.00100817
0.00100793
0.00100769
0.00100746
0.00100723
0.001007
0.00100678
0.00100656
0.00100635
0.00100614
0.00100593
0.00100572
0.00100552
0.00100533
0.00100513
0.00100495
0.00100476
0.00100457
0.00100438
0.00100409
0.00101163
0.00101133
0.00101105
0.00101077
0.0010105
0.00101023
0.00100996
0.0010097
0.00100944
0.00100918
0.00100893
0.00100868
0.00100843
0.00100819
0.00100795
0.00100772
0.00100749
0.00100726
0.00100704
0.00100682
0.0010066
0.00100639
0.00100618
0.00100597
0.00100577
0.00100557
0.00100538
0.00100519
0.001005
0.00100482
0.00100464
0.00100445
0.00100416
0.00101163
0.00101133
0.00101105
0.00101077
0.0010105
0.00101023
0.00100997
0.00100971
0.00100945
0.00100919
0.00100894
0.00100869
0.00100845
0.00100821
0.00100797
0.00100774
0.00100751
0.00100728
0.00100706
0.00100684
0.00100663
0.00100642
0.00100621
0.00100601
0.00100581
0.00100561
0.00100542
0.00100524
0.00100505
0.00100487
0.00100469
0.0010045
0.00100422
0.00101163
0.00101133
0.00101105
0.00101077
0.0010105
0.00101023
0.00100997
0.00100971
0.00100945
0.0010092
0.00100895
0.0010087
0.00100846
0.00100822
0.00100798
0.00100775
0.00100753
0.0010073
0.00100708
0.00100687
0.00100665
0.00100644
0.00100624
0.00100604
0.00100584
0.00100565
0.00100546
0.00100527
0.00100509
0.00100491
0.00100474
0.00100455
0.00100427
0.00101163
0.00101133
0.00101105
0.00101077
0.0010105
0.00101024
0.00100997
0.00100971
0.00100946
0.0010092
0.00100895
0.00100871
0.00100847
0.00100823
0.00100799
0.00100776
0.00100754
0.00100731
0.00100709
0.00100688
0.00100667
0.00100646
0.00100626
0.00100606
0.00100586
0.00100567
0.00100548
0.00100529
0.00100511
0.00100493
0.00100476
0.00100457
0.00100429
0.00101163
0.00101133
0.00101105
0.00101077
0.0010105
0.00101024
0.00100997
0.00100971
0.00100946
0.0010092
0.00100895
0.00100871
0.00100847
0.00100823
0.001008
0.00100777
0.00100754
0.00100732
0.0010071
0.00100689
0.00100668
0.00100647
0.00100627
0.00100607
0.00100588
0.00100568
0.0010055
0.00100531
0.00100513
0.00100496
0.00100478
0.00100459
0.00100432
0.00101163
0.00101133
0.00101105
0.00101077
0.0010105
0.00101024
0.00100997
0.00100971
0.00100946
0.0010092
0.00100896
0.00100871
0.00100847
0.00100823
0.001008
0.00100777
0.00100754
0.00100732
0.0010071
0.00100688
0.00100667
0.00100646
0.00100626
0.00100606
0.00100586
0.00100567
0.00100548
0.0010053
0.00100512
0.00100494
0.00100476
0.00100457
0.00100429
0.00101163
0.00101133
0.00101105
0.00101077
0.0010105
0.00101024
0.00100997
0.00100971
0.00100945
0.0010092
0.00100895
0.00100871
0.00100847
0.00100823
0.00100799
0.00100776
0.00100754
0.00100732
0.0010071
0.00100688
0.00100667
0.00100647
0.00100627
0.00100607
0.00100587
0.00100568
0.00100549
0.00100531
0.00100513
0.00100495
0.00100478
0.00100459
0.00100431
0.00101163
0.00101133
0.00101105
0.00101077
0.0010105
0.00101023
0.00100997
0.00100971
0.00100945
0.0010092
0.00100894
0.0010087
0.00100845
0.00100821
0.00100797
0.00100774
0.00100751
0.00100729
0.00100706
0.00100684
0.00100663
0.00100642
0.00100621
0.00100601
0.00100581
0.00100562
0.00100542
0.00100524
0.00100505
0.00100487
0.00100469
0.0010045
0.00100422
0.00101163
0.00101133
0.00101105
0.00101077
0.0010105
0.00101023
0.00100997
0.0010097
0.00100945
0.00100919
0.00100894
0.00100869
0.00100845
0.00100821
0.00100798
0.00100775
0.00100752
0.0010073
0.00100708
0.00100686
0.00100665
0.00100644
0.00100623
0.00100603
0.00100583
0.00100564
0.00100544
0.00100526
0.00100507
0.00100489
0.00100471
0.00100451
0.00100423
0.00101163
0.00101133
0.00101105
0.00101077
0.0010105
0.00101023
0.00100996
0.00100969
0.00100943
0.00100917
0.00100891
0.00100866
0.00100841
0.00100816
0.00100791
0.00100767
0.00100744
0.0010072
0.00100697
0.00100674
0.00100652
0.0010063
0.00100608
0.00100587
0.00100566
0.00100545
0.00100525
0.00100505
0.00100485
0.00100466
0.00100447
0.00100426
0.00100397
0.00101163
0.00101133
0.00101105
0.00101077
0.00101049
0.00101022
0.00100996
0.0010097
0.00100944
0.00100918
0.00100893
0.00100868
0.00100843
0.00100819
0.00100795
0.00100771
0.00100747
0.00100723
0.00100699
0.00100676
0.00100653
0.0010063
0.00100606
0.00100584
0.00100561
0.00100538
0.00100516
0.00100493
0.00100471
0.00100449
0.00100426
0.00100403
0.00100369
0.00101163
0.00101133
0.00101105
0.00101077
0.00101048
0.0010102
0.00100992
0.00100964
0.00100935
0.00100907
0.00100879
0.00100851
0.00100822
0.00100794
0.00100766
0.00100738
0.0010071
0.00100681
0.00100653
0.00100624
0.00100595
0.00100566
0.00100536
0.00100507
0.00100477
0.00100447
0.00100416
0.00100386
0.00100355
0.00100325
0.00100293
0.00100261
0.00100218
0.00101163
0.00101134
0.00101105
0.00101077
0.00101049
0.00101021
0.00100993
0.00100964
0.00100934
0.00100903
0.00100871
0.00100837
0.00100802
0.00100766
0.00100728
0.00100689
0.00100648
0.00100606
0.00100562
0.00100516
0.00100469
0.00100421
0.00100371
0.0010032
0.00100268
0.00100215
0.00100161
0.00100106
0.00100051
0.000999942
0.00099937
0.000998776
0.000998083
0.00101163
0.00101134
0.00101103
0.00101069
0.00101033
0.00100994
0.00100951
0.00100904
0.00100853
0.00100796
0.00100734
0.00100667
0.00100594
0.00100515
0.00100431
0.00100342
0.00100248
0.00100149
0.00100047
0.000999414
0.000998324
0.000997207
0.000996066
0.000994906
0.00099373
0.000992542
0.000991343
0.000990139
0.00098893
0.00098772
0.000986508
0.000985283
0.000983968
0.00101164
0.00101133
0.00101094
0.00101042
0.00100973
0.00100883
0.0010077
0.00100635
0.00100478
0.001003
0.00100104
0.000998909
0.000996631
0.000994228
0.000991719
0.000989125
0.000986463
0.00098375
0.000981
0.000978226
0.00097544
0.000972653
0.000969871
0.000967103
0.000964354
0.00096163
0.000958936
0.000956277
0.000953656
0.000951075
0.000948534
0.000946022
0.000943465
0.00101162
0.0010106
0.00100853
0.00100543
0.0010014
0.000996513
0.00099091
0.000984747
0.000978174
0.000971314
0.000964272
0.000957136
0.000949978
0.000942854
0.000935809
0.000928876
0.000922081
0.000915443
0.000908975
0.000902684
0.000896577
0.000890657
0.000884922
0.000879373
0.000874006
0.000868818
0.000863805
0.000858962
0.000854285
0.000849768
0.000845404
0.000841177
0.000837014
0.00100895
0.000995379
0.000976042
0.000953694
0.00093032
0.000907093
0.000884657
0.000863329
0.000843228
0.000824388
0.000806781
0.000790351
0.000775024
0.000760719
0.000747357
0.00073486
0.000723157
0.000712183
0.000701876
0.000692181
0.000683051
0.000674439
0.000666305
0.000658612
0.000651329
0.000644424
0.00063787
0.000631644
0.000625721
0.000620083
0.000614709
0.000609579
0.00060463
0.000892788
0.000742255
0.000649202
0.00058554
0.000538566
0.000502138
0.000472884
0.000448753
0.000428416
0.000410981
0.000395823
0.000382493
0.000370655
0.000360057
0.0003505
0.000341832
0.000333927
0.000326687
0.000320027
0.000313881
0.000308189
0.000302905
0.000297986
0.000293396
0.000289106
0.000285086
0.000281315
0.00027777
0.000274433
0.000271288
0.00026832
0.000265516
0.000262865
0.000126722
0.000129956
0.000133005
0.000135891
0.000138628
0.00014123
0.000143705
0.000146063
0.000148309
0.00015045
0.000152489
0.000154433
0.000156285
0.00015805
0.000159732
0.000161334
0.00016286
0.000164313
0.000165696
0.000167014
0.000168268
0.000169462
0.000170599
0.00017168
0.00017271
0.000173689
0.000174621
0.000175508
0.000176352
0.000177155
0.000177919
0.000178647
0.000179344
8.54839e-05
0.000115379
0.000145896
0.000176131
0.000203154
0.000226901
0.000248321
0.00026847
0.000288257
0.000308269
0.000328734
0.000349621
0.000370895
0.000392482
0.000414273
0.000436091
0.000457714
0.000479133
0.000500223
0.000521027
0.000541594
0.000561983
0.000582273
0.000602572
0.000623003
0.000643698
0.000664778
0.000686356
0.00070853
0.000731389
0.000755013
0.000779479
0.000804847
0.000831162
0.000858445
0.000886697
0.000915892
0.000945988
0.00097692
0.00100861
0.00104097
0.00107389
0.00110726
0.00114097
0.0011749
0.00120893
0.00124295
0.00127684
0.0013105
0.00134383
0.00137675
0.00140917
0.00144103
0.00147226
0.00150281
0.00153264
0.00156172
0.00159001
0.00161751
0.00164421
0.00167009
0.00169519
0.0017195
0.00174306
0.00176591
0.00178809
0.00180966
0.00183071
0.00185135
0.00187171
0.00189193
0.00191218
0.00193259
0.00195331
0.00197443
0.00199597
0.00201793
0.00204024
0.00206281
0.00208558
0.00210856
0.00213194
0.00215608
0.00218159
0.00220928
0.00224014
0.00227518
0.00231532
0.00236109
0.00241244
0.0024685
0.00252755
0.00258709
0.00264424
0.00269621
0.00274094
0.00277744
0.0028067
0.00283065
0.00284619
7.83565e-05
8.47502e-05
9.52676e-05
0.000110487
0.000129557
0.00015142
0.000174572
0.000197821
0.000220573
0.000242624
0.000264017
0.000284938
0.000305647
0.000326388
0.000347319
0.00036846
0.000389718
0.000411005
0.000432338
0.0004536
0.000474725
0.000495687
0.000516491
0.000537178
0.000557818
0.000578496
0.000599306
0.00062034
0.000641685
0.000663427
0.000685646
0.000708423
0.000731832
0.000755939
0.000780796
0.000806439
0.000832884
0.000860128
0.000888153
0.000916923
0.000946386
0.000976477
0.00100712
0.00103823
0.00106971
0.00110147
0.0011334
0.00116541
0.00119738
0.00122924
0.00126088
0.00129223
0.00132322
0.00135377
0.00138383
0.00141336
0.0014423
0.00147064
0.00149835
0.00152541
0.00155183
0.00157761
0.00160275
0.00162729
0.00165125
0.00167467
0.00169762
0.00172016
0.0017424
0.00176446
0.00178646
0.00180857
0.0018309
0.00185358
0.00187668
0.00190023
0.00192421
0.00194855
0.00197316
0.00199801
0.00202314
0.00204876
0.00207528
0.00210333
0.00213377
0.00216759
0.00220578
0.00224918
0.00229821
0.00235262
0.00241135
0.00247244
0.00253324
0.0025908
0.00264234
0.00268593
0.00272067
0.00274758
0.00276857
0.0027779
0.000137747
0.000137425
0.000137946
0.000139243
0.000141126
0.000143491
0.000147891
0.000155332
0.000165942
0.000179226
0.000194759
0.000212114
0.00023087
0.000250653
0.000271143
0.000292071
0.000313173
0.000334268
0.000355461
0.000376698
0.000397919
0.000419074
0.000440127
0.000461066
0.000481905
0.000502679
0.000523439
0.000544245
0.000565165
0.000586269
0.000607629
0.000629323
0.000651426
0.000674013
0.000697153
0.000720901
0.000745303
0.000770387
0.000796169
0.000822646
0.000849803
0.000877609
0.000906019
0.000934975
0.00096441
0.000994246
0.0010244
0.00105478
0.00108531
0.00111588
0.00114643
0.00117687
0.00120712
0.00123712
0.00126682
0.00129616
0.00132511
0.00135363
0.00138169
0.00140928
0.00143639
0.00146302
0.00148917
0.00151487
0.00154012
0.00156496
0.00158945
0.00161364
0.00163762
0.0016615
0.0016854
0.00170944
0.00173375
0.00175843
0.00178353
0.00180909
0.00183506
0.00186138
0.00188798
0.00191482
0.00194198
0.00196969
0.00199837
0.0020287
0.00206153
0.00209785
0.00213864
0.00218465
0.00223622
0.00229295
0.0023536
0.00241609
0.00247765
0.0025353
0.00258632
0.00262885
0.0026621
0.00268704
0.00270555
0.00270882
0.000281188
0.0002771
0.000273392
0.000270063
0.00026691
0.000263314
0.00025874
0.000253046
0.000246379
0.000240672
0.000236876
0.000235477
0.000236845
0.000241134
0.000248279
0.000258044
0.000270059
0.000283897
0.000299234
0.000315817
0.000333355
0.000351592
0.000370318
0.000389377
0.000408667
0.000428133
0.000447751
0.000467523
0.000487466
0.000507607
0.000527982
0.000548634
0.000569615
0.000590978
0.000612781
0.000635078
0.000657916
0.000681337
0.00070537
0.000730035
0.000755339
0.000781276
0.000807828
0.000834963
0.00086264
0.000890803
0.000919392
0.000948337
0.000977566
0.001007
0.00103658
0.00106622
0.00109585
0.00112542
0.00115488
0.00118417
0.00121324
0.00124207
0.00127063
0.0012989
0.00132685
0.00135448
0.00138179
0.00140877
0.00143545
0.00146184
0.00148798
0.00151392
0.00153973
0.00156549
0.00159132
0.00161732
0.0016436
0.00167024
0.00169729
0.00172476
0.00175262
0.00178079
0.00180922
0.00183788
0.00186687
0.00189641
0.00192697
0.0019592
0.00199397
0.00203225
0.00207499
0.00212291
0.00217624
0.00223451
0.00229638
0.00235965
0.00242152
0.00247901
0.00252943
0.00257101
0.002603
0.0026263
0.00264273
0.00263993
0.000436017
0.000430303
0.000424741
0.000419465
0.00041451
0.000409791
0.000405078
0.000399996
0.000394045
0.000386912
0.000378746
0.000369952
0.000360871
0.000351962
0.00034377
0.000336844
0.000331659
0.000328531
0.000327734
0.000329411
0.000333519
0.000339907
0.000348365
0.000358648
0.000370507
0.00038371
0.000398047
0.000413342
0.000429456
0.000446279
0.000463736
0.000481778
0.000500379
0.000519532
0.000539243
0.000559526
0.000580399
0.000601883
0.000623996
0.000646752
0.000670162
0.000694228
0.000718944
0.000744294
0.000770255
0.000796791
0.00082386
0.00085141
0.000879384
0.000907724
0.000936366
0.000965249
0.000994313
0.0010235
0.00105276
0.00108205
0.00111131
0.00114051
0.00116962
0.00119861
0.00122745
0.00125613
0.00128463
0.00131294
0.00134107
0.00136902
0.00139681
0.00142447
0.00145207
0.00147966
0.00150734
0.00153519
0.0015633
0.00159174
0.00162055
0.00164972
0.00167922
0.00170898
0.00173895
0.00176913
0.0017996
0.00183062
0.00186263
0.0018963
0.00193247
0.0019721
0.00201609
0.00206514
0.00211942
0.0021784
0.0022407
0.00230411
0.00236581
0.00242285
0.00247259
0.00251332
0.00254427
0.00256625
0.00258097
0.00257217
0.000579023
0.000572591
0.000566228
0.000560004
0.000553985
0.000548197
0.000542661
0.000537353
0.000532151
0.000526855
0.000521237
0.000515227
0.000508625
0.000501288
0.000493134
0.000484165
0.000474493
0.000464327
0.000454055
0.00044417
0.000435158
0.000427453
0.000421409
0.000417285
0.000415242
0.000415346
0.000417585
0.000421883
0.00042812
0.000436149
0.000445815
0.000456968
0.000469469
0.000483198
0.000498057
0.000513967
0.000530865
0.000548707
0.000567456
0.000587085
0.000607573
0.000628899
0.000651043
0.000673982
0.000697688
0.000722131
0.000747269
0.000773061
0.000799456
0.000826401
0.000853842
0.000881721
0.000909983
0.000938572
0.000967436
0.000996523
0.00102579
0.00105518
0.00108467
0.00111421
0.00114377
0.00117332
0.00120284
0.00123229
0.00126167
0.00129098
0.0013202
0.00134936
0.00137849
0.00140764
0.00143688
0.00146626
0.00149587
0.00152574
0.00155591
0.00158637
0.00161709
0.001648
0.00167905
0.00171026
0.00174173
0.0017737
0.00180662
0.00184114
0.00187808
0.00191836
0.00196286
0.00201222
0.00206661
0.00212547
0.00218744
0.00225031
0.00231133
0.0023676
0.00241655
0.00245647
0.00248658
0.0025075
0.00252083
0.0025062
0.000701043
0.000694448
0.000687952
0.000681533
0.00067527
0.000669187
0.000663308
0.000657661
0.000652225
0.000646983
0.000641883
0.000636891
0.000631931
0.000626893
0.000621639
0.000616012
0.000609847
0.000602981
0.000595293
0.000586782
0.000577517
0.000567666
0.000557483
0.000547288
0.000537443
0.00052832
0.000520269
0.000513592
0.000508529
0.000505249
0.000503855
0.000504388
0.000506843
0.000511176
0.000517321
0.000525195
0.000534711
0.00054578
0.000558319
0.000572249
0.000587501
0.00060401
0.000621718
0.000640572
0.000660518
0.000681505
0.000703479
0.000726387
0.000750171
0.000774772
0.000800131
0.000826187
0.000852878
0.000880144
0.000907925
0.000936164
0.000964805
0.000993791
0.00102307
0.0010526
0.00108232
0.0011122
0.00114218
0.00117223
0.00120233
0.00123243
0.00126253
0.00129262
0.00132272
0.00135284
0.00138303
0.00141334
0.00144381
0.00147449
0.00150538
0.00153647
0.00156774
0.00159913
0.00163061
0.00166219
0.00169399
0.00172625
0.00175941
0.00179408
0.00183106
0.00187124
0.00191545
0.00196431
0.00201798
0.00207593
0.00213682
0.00219854
0.00225842
0.00231364
0.00236167
0.00240084
0.00243028
0.00245042
0.00246268
0.00244253
0.000798145
0.000792007
0.000785938
0.000779915
0.000773966
0.000768105
0.000762345
0.000756717
0.000751247
0.000745957
0.00074086
0.000735967
0.000731277
0.000726775
0.000722426
0.000718173
0.000713936
0.000709614
0.000705077
0.000700204
0.000694872
0.00068899
0.000682479
0.000675324
0.000667578
0.00065936
0.000650851
0.000642279
0.000633907
0.000626008
0.000618849
0.00061268
0.000607717
0.00060414
0.000602089
0.000601662
0.00060292
0.000605891
0.000610581
0.000616972
0.000625035
0.000634729
0.000646005
0.000658812
0.000673093
0.000688789
0.000705839
0.000724179
0.000743744
0.000764466
0.000786276
0.000809103
0.000832879
0.00085753
0.000882987
0.000909179
0.000936035
0.000963488
0.000991468
0.00101991
0.00104875
0.00107791
0.00110736
0.00113701
0.00116682
0.00119675
0.00122676
0.00125681
0.00128691
0.00131705
0.00134725
0.00137754
0.00140794
0.00143849
0.00146918
0.00150002
0.00153096
0.00156197
0.00159304
0.00162419
0.00165554
0.00168732
0.00171996
0.00175405
0.00179032
0.00182963
0.00187278
0.00192037
0.00197256
0.00202887
0.00208806
0.00214813
0.00220651
0.00226049
0.00230761
0.00234615
0.00237519
0.00239488
0.00240646
0.00238138
0.000870884
0.0008656
0.000860336
0.000855095
0.000849863
0.000844661
0.000839506
0.000834417
0.000829414
0.000824514
0.000819731
0.000815071
0.000810556
0.000806203
0.000802027
0.000798033
0.00079422
0.00079057
0.000787049
0.000783597
0.000780157
0.000776658
0.00077302
0.000769165
0.000765023
0.000760548
0.000755722
0.000750563
0.000745132
0.000739482
0.000733734
0.000728043
0.000722588
0.000717557
0.000713137
0.000709504
0.000706825
0.000705245
0.000704889
0.00070586
0.000708239
0.000712084
0.000717436
0.000724315
0.00073273
0.000742673
0.000754123
0.000767052
0.00078142
0.00079718
0.000814278
0.000832654
0.000852243
0.000872977
0.000894782
0.000917585
0.000941307
0.000965871
0.000991196
0.0010172
0.00104381
0.00107094
0.00109851
0.00112644
0.00115468
0.00118314
0.00121178
0.00124055
0.00126941
0.00129835
0.00132738
0.00135649
0.0013857
0.00141502
0.00144446
0.00147401
0.00150365
0.00153336
0.00156314
0.00159302
0.00162312
0.00165368
0.00168508
0.00171789
0.00175279
0.00179057
0.00183201
0.00187768
0.00192779
0.00198192
0.00203896
0.00209705
0.00215377
0.00220653
0.0022529
0.00229114
0.0023202
0.00233995
0.00235141
0.00232234
0.000921861
0.00091765
0.000913417
0.00090917
0.000904901
0.000900614
0.000896325
0.000892043
0.000887779
0.000883543
0.00087935
0.000875211
0.000871142
0.000867157
0.000863275
0.000859514
0.000855891
0.000852424
0.000849125
0.000845995
0.000843039
0.000840238
0.000837572
0.000835011
0.00083252
0.000830059
0.00082759
0.000825077
0.0008225
0.000819843
0.00081711
0.000814325
0.00081154
0.000808831
0.000806248
0.00080389
0.000801876
0.000800328
0.000799372
0.000799128
0.000799714
0.000801237
0.000803793
0.000807468
0.000812331
0.000818439
0.000825834
0.000834546
0.000844588
0.000855962
0.000868658
0.000882654
0.000897919
0.000914411
0.00093208
0.000950868
0.000970711
0.000991539
0.00101328
0.00103584
0.00105916
0.00108314
0.0011077
0.00113276
0.00115824
0.00118405
0.00121014
0.00123645
0.00126292
0.00128953
0.00131627
0.00134312
0.00137009
0.00139719
0.00142442
0.00145179
0.00147928
0.00150689
0.00153464
0.00156257
0.0015908
0.00161956
0.0016492
0.00168022
0.00171326
0.00174906
0.00178835
0.00183169
0.00187933
0.00193098
0.00198566
0.0020417
0.00209685
0.00214864
0.00219469
0.00223321
0.00226298
0.00228355
0.00229572
0.00226418
0.000955743
0.000952589
0.000949388
0.000946147
0.000942868
0.000939547
0.00093619
0.000932805
0.000929401
0.000925985
0.000922566
0.000919151
0.000915745
0.000912358
0.000909002
0.000905693
0.000902449
0.00089929
0.000896231
0.00089329
0.000890489
0.000887844
0.000885369
0.000883072
0.00088096
0.00087903
0.000877277
0.000875692
0.000874262
0.000872975
0.000871817
0.000870783
0.000869871
0.000869095
0.00086847
0.000868026
0.000867788
0.000867794
0.000868106
0.000868796
0.000869943
0.00087163
0.000873939
0.000876953
0.000880749
0.0008854
0.000890971
0.000897519
0.000905092
0.000913726
0.000923448
0.000934273
0.000946204
0.000959236
0.00097335
0.000988518
0.0010047
0.00102186
0.00103992
0.00105884
0.00107855
0.00109897
0.00112003
0.00114165
0.00116375
0.00118627
0.00120912
0.00123226
0.00125564
0.00127921
0.00130296
0.00132687
0.00135095
0.00137521
0.00139964
0.00142427
0.0014491
0.00147414
0.00149943
0.00152503
0.00155104
0.00157768
0.00160527
0.00163425
0.0016652
0.00169879
0.00173571
0.00177653
0.00182156
0.00187063
0.00192295
0.00197707
0.00203096
0.00208228
0.00212869
0.00216833
0.00219979
0.00222227
0.00223632
0.00220445
0.000976686
0.000974452
0.000972163
0.000969821
0.000967432
0.000964996
0.000962511
0.000959981
0.000957412
0.000954808
0.000952173
0.000949509
0.000946821
0.000944115
0.000941396
0.000938672
0.000935955
0.000933257
0.000930595
0.000927985
0.000925447
0.000923006
0.000920679
0.000918489
0.000916454
0.000914595
0.000912927
0.000911464
0.000910215
0.000909188
0.000908386
0.000907812
0.000907468
0.000907355
0.000907477
0.000907843
0.000908453
0.000909313
0.000910444
0.000911876
0.000913646
0.000915798
0.000918379
0.00092144
0.000925035
0.000929219
0.000934044
0.000939563
0.000945823
0.000952867
0.000960732
0.000969448
0.000979037
0.000989512
0.00100088
0.00101313
0.00102625
0.00104023
0.00105502
0.00107058
0.00108688
0.00110386
0.00112145
0.00113961
0.00115826
0.00117734
0.00119681
0.00121659
0.00123666
0.00125697
0.0012775
0.00129825
0.00131921
0.0013404
0.00136184
0.00138354
0.00140554
0.00142785
0.00145054
0.00147366
0.00149733
0.00152175
0.00154718
0.00157402
0.00160278
0.00163406
0.0016685
0.0017067
0.00174901
0.00179544
0.00184541
0.00189776
0.00195069
0.00200205
0.00204957
0.00209129
0.00212561
0.00215136
0.00216877
0.00213941
0.000989088
0.000987559
0.000985977
0.000984346
0.000982667
0.000980942
0.00097917
0.000977351
0.000975489
0.000973586
0.000971644
0.000969663
0.000967645
0.000965592
0.000963508
0.000961394
0.000959256
0.000957101
0.000954938
0.000952777
0.000950633
0.000948524
0.000946466
0.000944479
0.000942583
0.000940801
0.000939153
0.00093766
0.000936344
0.000935221
0.000934308
0.000933619
0.00093316
0.000932937
0.000932958
0.000933232
0.000933767
0.000934572
0.000935656
0.000937031
0.000938715
0.000940728
0.000943093
0.000945838
0.000948993
0.00095259
0.000956665