/*--------------------------------*- C++ -*----------------------------------*\
| =========                 |                                                 |
| \\      /  F ield         | OpenFOAM: The Open Source CFD Toolbox           |
|  \\    /   O peration     | Version:  4.1                                   |
|   \\  /    A nd           | Web:      www.OpenFOAM.org                      |
|    \\/     M anipulation  |                                                 |
\*---------------------------------------------------------------------------*/
FoamFile
{
    version     2.0;
    format      ascii;
    class       volScalarField;
    location    "700";
    object      p;
}
// * * * * * * * * * * * * * * * * * * * * * * * * * * * * * * * * * * * * * //

dimensions      [0 2 -2 0 0 0 0];

internalField   nonuniform List<scalar> 
6820
(
-8.28601
-8.54356
-8.64118
-8.6619
-8.69514
-8.74047
-8.7821
-8.81828
-8.85202
-8.88415
-8.91423
-8.94215
-8.96814
-8.99248
-9.01534
-9.03689
-9.05729
-9.0767
-9.09524
-9.11303
-9.13019
-9.1468
-9.16295
-9.17871
-9.19415
-9.20934
-9.22433
-9.23917
-9.25395
-9.26854
-9.28388
-9.29767
-9.32772
-8.39879
-8.56485
-8.64357
-8.66446
-8.6914
-8.72667
-8.7583
-8.78524
-8.81056
-8.83532
-8.85921
-8.88211
-8.90419
-8.92558
-8.94635
-8.96654
-8.98618
-9.00533
-9.02403
-9.04233
-9.06025
-9.07784
-9.09514
-9.11217
-9.12898
-9.14559
-9.16205
-9.17839
-9.19466
-9.21086
-9.22721
-9.24368
-9.26034
-8.45505
-8.55976
-8.63779
-8.6697
-8.69791
-8.73113
-8.76159
-8.78792
-8.81256
-8.8365
-8.85952
-8.88151
-8.9026
-8.92293
-8.94256
-8.96156
-8.97996
-8.99785
-9.01526
-9.03225
-9.04887
-9.06515
-9.08115
-9.09689
-9.11243
-9.12779
-9.14301
-9.15813
-9.17321
-9.18821
-9.20337
-9.21824
-9.23375
-8.50483
-8.57983
-8.65248
-8.68765
-8.71513
-8.74671
-8.77675
-8.8031
-8.8275
-8.85094
-8.87331
-8.89457
-8.91486
-8.93436
-8.95314
-8.97129
-8.98887
-9.00596
-9.0226
-9.03886
-9.05477
-9.07039
-9.08575
-9.10089
-9.11584
-9.13064
-9.14532
-9.15992
-9.17448
-9.18901
-9.20359
-9.21816
-9.23282
-8.54632
-8.59756
-8.65777
-8.69263
-8.71988
-8.75015
-8.7794
-8.80543
-8.82958
-8.8528
-8.87508
-8.89636
-8.91677
-8.93645
-8.95545
-8.97385
-8.99169
-9.00903
-9.02592
-9.0424
-9.05853
-9.07432
-9.08983
-9.10509
-9.12014
-9.135
-9.14971
-9.16431
-9.17884
-9.19332
-9.20781
-9.22233
-9.23694
-8.58111
-8.61697
-8.66781
-8.7031
-8.73077
-8.75983
-8.78818
-8.8139
-8.83787
-8.86087
-8.88295
-8.90405
-8.92426
-8.94372
-8.96248
-8.98062
-8.99819
-9.01525
-9.03185
-9.04805
-9.06388
-9.07938
-9.0946
-9.10957
-9.12433
-9.13891
-9.15334
-9.16765
-9.18188
-9.19607
-9.21025
-9.22449
-9.23885
-8.61096
-8.63652
-8.67841
-8.71159
-8.73807
-8.76517
-8.79208
-8.81701
-8.84039
-8.86286
-8.8845
-8.90525
-8.92522
-8.94448
-8.96312
-8.98119
-8.99873
-9.01579
-9.03242
-9.04866
-9.06455
-9.08011
-9.0954
-9.11043
-9.12523
-9.13985
-9.15429
-9.16861
-9.18282
-9.19696
-9.21106
-9.22517
-9.23934
-8.63689
-8.65547
-8.68989
-8.72074
-8.74647
-8.77235
-8.79827
-8.82267
-8.84569
-8.86784
-8.88922
-8.90978
-8.92959
-8.94872
-8.96723
-8.98517
-9.00259
-9.01952
-9.03602
-9.05211
-9.06784
-9.08325
-9.09835
-9.11319
-9.1278
-9.1422
-9.15642
-9.17048
-9.18442
-9.19827
-9.21204
-9.22578
-9.2395
-8.65975
-8.67358
-8.70188
-8.72998
-8.75444
-8.77875
-8.80322
-8.82664
-8.84892
-8.87042
-8.89124
-8.91135
-8.93077
-8.94957
-8.96781
-8.98551
-9.00273
-9.0195
-9.03585
-9.05183
-9.06745
-9.08276
-9.09778
-9.11254
-9.12707
-9.14138
-9.1555
-9.16946
-9.18327
-9.19695
-9.21053
-9.22403
-9.23746
-8.68012
-8.69066
-8.71402
-8.73933
-8.76241
-8.78535
-8.8086
-8.83122
-8.85293
-8.87397
-8.8944
-8.91421
-8.9334
-8.95201
-8.97008
-8.98765
-9.00475
-9.0214
-9.03765
-9.05351
-9.06903
-9.08421
-9.0991
-9.11372
-9.12809
-9.14222
-9.15615
-9.16988
-9.18344
-9.19684
-9.2101
-9.22321
-9.23616
-8.69846
-8.70666
-8.72608
-8.74871
-8.77031
-8.79188
-8.81385
-8.83547
-8.85642
-8.87679
-8.89666
-8.91597
-8.93474
-8.95298
-8.97073
-8.98801
-9.00485
-9.02127
-9.03729
-9.05296
-9.06828
-9.08329
-9.098
-9.11244
-9.12663
-9.14058
-9.15432
-9.16785
-9.18118
-9.19433
-9.20731
-9.2201
-9.23271
-8.71507
-8.72158
-8.73787
-8.75804
-8.77812
-8.79837
-8.81911
-8.83979
-8.86001
-8.87979
-8.89916
-8.91807
-8.9365
-8.95446
-8.97197
-8.98904
-9.0057
-9.02196
-9.03784
-9.05337
-9.06856
-9.08343
-9.098
-9.11229
-9.12632
-9.1401
-9.15364
-9.16695
-9.18004
-9.19292
-9.20558
-9.21801
-9.23019
-8.73021
-8.73546
-8.74926
-8.76722
-8.7858
-8.80477
-8.82435
-8.84405
-8.8635
-8.88262
-8.90141
-8.91983
-8.93782
-8.9554
-8.97257
-8.98934
-9.00571
-9.02171
-9.03734
-9.05263
-9.0676
-9.08224
-9.0966
-9.11066
-9.12446
-9.13801
-9.1513
-9.16435
-9.17716
-9.18974
-9.20208
-9.21416
-9.22598
-8.74404
-8.74834
-8.76014
-8.77617
-8.7933
-8.81106
-8.82952
-8.84827
-8.86695
-8.88543
-8.90366
-8.92159
-8.93919
-8.95642
-8.97328
-8.98978
-9.00591
-9.02169
-9.03712
-9.05223
-9.06701
-9.08148
-9.09565
-9.10954
-9.12315
-9.13649
-9.14957
-9.16239
-9.17495
-9.18725
-9.19929
-9.21104
-9.22249
-8.7567
-8.76026
-8.77046
-8.7848
-8.80059
-8.8172
-8.8346
-8.85243
-8.87034
-8.88816
-8.90582
-8.92325
-8.94041
-8.95724
-8.97376
-8.98993
-9.00577
-9.02127
-9.03644
-9.05129
-9.06583
-9.08006
-9.09399
-9.10763
-9.12098
-9.13406
-9.14687
-9.15941
-9.17167
-9.18366
-9.19537
-9.20678
-9.21788
-8.76828
-8.77126
-8.78016
-8.79305
-8.8076
-8.82313
-8.83954
-8.85649
-8.87365
-8.89082
-8.90792
-8.92485
-8.94157
-8.95802
-8.97419
-8.99005
-9.00561
-9.02085
-9.03577
-9.05039
-9.0647
-9.07871
-9.09242
-9.10585
-9.11898
-9.13183
-9.1444
-9.15669
-9.16869
-9.1804
-9.19182
-9.20292
-9.21369
-8.77887
-8.78137
-8.78922
-8.80086
-8.81429
-8.82882
-8.8443
-8.86042
-8.87685
-8.89339
-8.90993
-8.92637
-8.94264
-8.9587
-8.9745
-8.99004
-9.00529
-9.02024
-9.0349
-9.04925
-9.0633
-9.07706
-9.09051
-9.10368
-9.11655
-9.12914
-9.14143
-9.15343
-9.16513
-9.17654
-9.18764
-9.19842
-9.20886
-8.7885
-8.79062
-8.7976
-8.80819
-8.8206
-8.83422
-8.84884
-8.86418
-8.87992
-8.89585
-8.91184
-8.92779
-8.94363
-8.95929
-8.97474
-8.98995
-9.00489
-9.01956
-9.03394
-9.04804
-9.06184
-9.07535
-9.08856
-9.10148
-9.11411
-9.12644
-9.13848
-9.15022
-9.16165
-9.17278
-9.1836
-9.19409
-9.20423
-8.79722
-8.79903
-8.80529
-8.81497
-8.8265
-8.83928
-8.85312
-8.86774
-8.88282
-8.89817
-8.91363
-8.92911
-8.94452
-8.95979
-8.97488
-8.98975
-9.00439
-9.01876
-9.03287
-9.04669
-9.06023
-9.07348
-9.08643
-9.09909
-9.11145
-9.12352
-9.13528
-9.14674
-9.15789
-9.16872
-9.17924
-9.18944
-9.19929
-8.80505
-8.8066
-8.81227
-8.82118
-8.83193
-8.84397
-8.8571
-8.87105
-8.88552
-8.90031
-8.91528
-8.9303
-8.94529
-8.96018
-8.97492
-8.98947
-9.00379
-9.01788
-9.0317
-9.04526
-9.05853
-9.07152
-9.08421
-9.09662
-9.10872
-9.12053
-9.13203
-9.14322
-9.15411
-9.16467
-9.17492
-9.18484
-9.19441
-8.81199
-8.81333
-8.81851
-8.82678
-8.83686
-8.84824
-8.86073
-8.87407
-8.88799
-8.90226
-8.91675
-8.93134
-8.94594
-8.96046
-8.97485
-8.98908
-9.0031
-9.01689
-9.03044
-9.04372
-9.05673
-9.06945
-9.08189
-9.09403
-9.10588
-9.11742
-9.12865
-9.13958
-9.15019
-9.16048
-9.17046
-9.1801
-9.18941
-8.81805
-8.81922
-8.82399
-8.83173
-8.84124
-8.85204
-8.86397
-8.87677
-8.89018
-8.90398
-8.91803
-8.93222
-8.94643
-8.9606
-8.97467
-8.98858
-9.0023
-9.01581
-9.02908
-9.04209
-9.05483
-9.0673
-9.07948
-9.09136
-9.10295
-9.11423
-9.12521
-9.13587
-9.14623
-9.15626
-9.16597
-9.17536
-9.18442
-8.82321
-8.82424
-8.82869
-8.83599
-8.84502
-8.85533
-8.86677
-8.8791
-8.89206
-8.90544
-8.91909
-8.9329
-8.94676
-8.9606
-8.97434
-8.98796
-9.00139
-9.01462
-9.02762
-9.04037
-9.05285
-9.06506
-9.07698
-9.08861
-9.09995
-9.11098
-9.1217
-9.13212
-9.14221
-9.152
-9.16146
-9.1706
-9.17941
-8.82744
-8.82837
-8.83256
-8.83952
-8.84816
-8.85807
-8.8691
-8.88103
-8.89359
-8.90659
-8.91988
-8.93335
-8.94689
-8.96041
-8.97387
-8.98719
-9.00035
-9.01331
-9.02604
-9.03853
-9.05076
-9.06272
-9.07439
-9.08577
-9.09685
-9.10763
-9.1181
-9.12827
-9.13811
-9.14765
-9.15687
-9.16577
-9.17434
-8.83072
-8.83157
-8.83558
-8.84227
-8.85062
-8.86021
-8.87091
-8.8825
-8.89473
-8.90741
-8.92039
-8.93355
-8.94679
-8.96003
-8.97321
-8.98626
-8.99916
-9.01186
-9.02435
-9.03659
-9.04857
-9.06029
-9.07172
-9.08286
-9.09371
-9.10425
-9.11449
-9.12442
-9.13403
-9.14334
-9.15233
-9.161
-9.16935
-8.83298
-8.83378
-8.83766
-8.84418
-8.85231
-8.86167
-8.87212
-8.88344
-8.89541
-8.90782
-8.92053
-8.93343
-8.94641
-8.9594
-8.97232
-8.98512
-8.99777
-9.01023
-9.02247
-9.03447
-9.04621
-9.05768
-9.06887
-9.07977
-9.09037
-9.10067
-9.11067
-9.12036
-9.12974
-9.1388
-9.14756
-9.15601
-9.16414
-8.83415
-8.83493
-8.83874
-8.84516
-8.85318
-8.86239
-8.87267
-8.88381
-8.89557
-8.90777
-8.92027
-8.93295
-8.94571
-8.95847
-8.97117
-8.98375
-8.99618
-9.00841
-9.02043
-9.03221
-9.04374
-9.05499
-9.06597
-9.07665
-9.08704
-9.09713
-9.10691
-9.11639
-9.12556
-9.13443
-9.14298
-9.15122
-9.15915
-8.83416
-8.83495
-8.83877
-8.84518
-8.85318
-8.86234
-8.87254
-8.88358
-8.89522
-8.90727
-8.91961
-8.93211
-8.94468
-8.95724
-8.96974
-8.98211
-8.99432
-9.00633
-9.01813
-9.02968
-9.04098
-9.052
-9.06275
-9.0732
-9.08335
-9.09321
-9.10276
-9.11201
-9.12095
-9.12959
-9.13793
-9.14596
-9.15369
-8.83291
-8.83376
-8.83767
-8.84419
-8.85228
-8.8615
-8.87172
-8.88275
-8.89434
-8.90633
-8.91857
-8.93095
-8.94339
-8.95581
-8.96815
-8.98037
-8.99241
-9.00426
-9.01588
-9.02725
-9.03837
-9.04922
-9.05978
-9.07005
-9.08002
-9.0897
-9.09907
-9.10814
-9.1169
-9.12536
-9.13351
-9.14136
-9.14889
-8.83027
-8.83123
-8.83533
-8.8421
-8.85041
-8.85982
-8.87017
-8.88128
-8.89292
-8.90489
-8.91708
-8.92938
-8.9417
-8.95398
-8.96616
-8.9782
-8.99006
-9.0017
-9.01312
-9.02429
-9.03519
-9.04582
-9.05616
-9.06621
-9.07596
-9.08541
-9.09457
-9.10342
-9.11196
-9.12021
-9.12816
-9.13582
-9.1432
-8.82608
-8.8272
-8.83163
-8.83881
-8.84752
-8.85725
-8.86787
-8.87919
-8.89098
-8.90306
-8.91531
-8.92763
-8.93995
-8.95219
-8.96431
-8.97627
-8.98804
-8.99958
-9.01088
-9.02192
-9.03269
-9.04318
-9.05337
-9.06328
-9.07288
-9.08218
-9.09118
-9.09988
-9.10827
-9.11636
-9.12415
-9.13163
-9.13879
-8.82008
-8.82145
-8.82641
-8.83424
-8.84354
-8.85375
-8.86474
-8.87634
-8.88832
-8.90051
-8.91279
-8.9251
-8.93735
-8.9495
-8.9615
-8.97332
-8.98492
-8.99629
-9.00741
-9.01826
-9.02884
-9.03913
-9.04913
-9.05883
-9.06823
-9.07733
-9.08613
-9.09463
-9.10283
-9.11073
-9.11835
-9.12568
-9.13274
-8.81197
-8.81372
-8.81948
-8.82826
-8.83841
-8.84933
-8.86095
-8.8731
-8.88553
-8.89806
-8.9106
-8.92308
-8.93546
-8.94768
-8.9597
-8.97151
-8.98308
-8.99439
-9.00544
-9.0162
-9.02667
-9.03685
-9.04673
-9.05631
-9.06558
-9.07455
-9.08321
-9.09156
-9.09962
-9.10737
-9.11481
-9.12195
-9.12877
-8.80126
-8.80361
-8.81064
-8.8208
-8.83198
-8.84361
-8.85579
-8.86837
-8.88109
-8.89381
-8.90646
-8.919
-8.93138
-8.94356
-8.95552
-8.96723
-8.97869
-8.98987
-9.00077
-9.01138
-9.0217
-9.03172
-9.04143
-9.05084
-9.05995
-9.06875
-9.07725
-9.08544
-9.09334
-9.10095
-9.10827
-9.11533
-9.12211
-8.78725
-8.79057
-8.79964
-8.81198
-8.82491
-8.83797
-8.85136
-8.8649
-8.87833
-8.89154
-8.90454
-8.91732
-8.92985
-8.9421
-8.95409
-8.96578
-8.97719
-8.98831
-8.99912
-9.00963
-9.01983
-9.02972
-9.0393
-9.04857
-9.05752
-9.06617
-9.07451
-9.08254
-9.09027
-9.0977
-9.10482
-9.11164
-9.11813
-8.76886
-8.77395
-8.78604
-8.80054
-8.81449
-8.82836
-8.84265
-8.85696
-8.87092
-8.88451
-8.8978
-8.91079
-8.92344
-8.93576
-8.94775
-8.95943
-8.97078
-8.98181
-8.99253
-9.00293
-9.01302
-9.02279
-9.03226
-9.04141
-9.05025
-9.05879
-9.06702
-9.07495
-9.08259
-9.08993
-9.09699
-9.10379
-9.11031
-8.74393
-8.75308
-8.77248
-8.79222
-8.80866
-8.82405
-8.83957
-8.85469
-8.86906
-8.88286
-8.89624
-8.90924
-8.92185
-8.93408
-8.94596
-8.95749
-8.96869
-8.97956
-8.9901
-9.00031
-9.01019
-9.01976
-9.02901
-9.03794
-9.04656
-9.05487
-9.06288
-9.07058
-9.07799
-9.08509
-9.09191
-9.09844
-9.10466
-8.70899
-8.72265
-8.74828
-8.77154
-8.7905
-8.80852
-8.82615
-8.8426
-8.85782
-8.8722
-8.88596
-8.89916
-8.91184
-8.92407
-8.93589
-8.94734
-8.95845
-8.96921
-8.97965
-8.98977
-8.99958
-9.00908
-9.01828
-9.02717
-9.03576
-9.04405
-9.05204
-9.05973
-9.06713
-9.07424
-9.08104
-9.08753
-9.09368
-8.6616
-8.70926
-8.74864
-8.76891
-8.78518
-8.80353
-8.8215
-8.83744
-8.852
-8.86592
-8.87936
-8.89225
-8.90462
-8.91655
-8.9281
-8.93929
-8.95013
-8.96064
-8.97083
-8.98071
-8.99029
-8.99956
-9.00855
-9.01724
-9.02564
-9.03376
-9.04161
-9.04918
-9.0565
-9.06358
-9.07044
-9.07714
-9.0837
-8.52728
-8.64945
-8.72411
-8.74833
-8.76465
-8.78567
-8.80615
-8.82336
-8.83868
-8.8535
-8.86802
-8.88214
-8.89586
-8.90927
-8.92242
-8.9353
-8.9479
-8.96021
-8.97223
-8.98395
-8.99536
-9.00644
-9.01721
-9.02764
-9.03774
-9.04749
-9.05691
-9.06598
-9.0747
-9.08307
-9.0911
-9.09875
-9.10614
-9.37515
-9.53156
-9.74931
-9.85404
-9.96525
-10.0717
-10.1533
-10.2162
-10.2654
-10.3017
-10.3265
-10.3412
-10.3475
-10.3475
-10.3435
-10.3382
-10.3322
-10.3235
-10.3186
-10.3217
-10.3339
-10.3547
-10.3827
-10.4158
-10.4522
-10.4901
-10.5283
-10.5659
-10.6021
-10.636
-10.6666
-10.6933
-10.7152
-10.7317
-10.7426
-10.7476
-10.7464
-10.7389
-10.7249
-10.7041
-10.6765
-10.6418
-10.5998
-10.5503
-10.4932
-10.4282
-10.3553
-10.2742
-10.1847
-10.0867
-9.97985
-9.864
-9.73893
-9.60446
-9.46045
-9.30683
-9.14354
-8.97061
-8.78812
-8.59623
-8.39514
-8.18514
-7.9666
-7.73996
-7.50571
-7.26445
-7.01682
-6.76351
-6.50521
-6.24266
-5.97658
-5.70769
-5.43674
-5.16455
-4.89197
-4.61995
-4.3495
-4.08171
-3.81778
-3.55889
-3.30618
-3.06054
-2.82256
-2.59262
-2.37113
-2.1584
-1.95472
-1.76033
-1.57538
-1.40006
-1.23427
-1.0782
-0.930856
-0.793049
-0.660276
-0.538629
-0.408413
-0.306741
-0.142497
-0.11383
-9.29064
-9.34353
-9.43601
-9.48239
-9.53614
-9.60406
-9.67058
-9.73392
-9.7944
-9.84959
-9.89775
-9.93827
-9.97137
-9.99787
-10.0194
-10.0383
-10.057
-10.072
-10.0876
-10.1082
-10.1355
-10.1692
-10.2085
-10.2515
-10.2967
-10.3425
-10.3877
-10.4313
-10.4727
-10.5111
-10.5455
-10.5753
-10.5999
-10.6187
-10.6314
-10.6379
-10.6378
-10.6312
-10.6178
-10.5975
-10.5702
-10.5357
-10.4938
-10.4444
-10.3874
-10.3225
-10.2496
-10.1686
-10.0793
-9.98149
-9.87495
-9.75948
-9.63491
-9.50106
-9.35783
-9.20512
-9.04292
-8.87125
-8.6902
-8.49993
-8.30065
-8.09266
-7.87632
-7.65205
-7.42037
-7.18184
-6.93711
-6.68682
-6.43167
-6.17237
-5.90963
-5.64414
-5.37665
-5.10795
-4.83887
-4.57034
-4.30333
-4.03892
-3.77824
-3.52247
-3.27268
-3.02974
-2.79426
-2.56663
-2.34725
-2.13644
-1.93447
-1.74156
-1.55787
-1.38354
-1.21848
-1.06284
-0.915676
-0.777808
-0.644834
-0.522949
-0.392855
-0.291588
-0.130431
-0.103292
-9.25221
-9.27375
-9.31851
-9.34625
-9.36983
-9.40266
-9.43808
-9.47285
-9.50785
-9.54249
-9.57572
-9.60694
-9.63592
-9.66295
-9.68901
-9.71573
-9.74445
-9.77425
-9.80537
-9.84055
-9.88131
-9.92758
-9.9784
-10.0323
-10.0875
-10.1427
-10.1967
-10.2483
-10.297
-10.3417
-10.382
-10.4169
-10.4461
-10.4689
-10.4853
-10.4948
-10.4975
-10.4933
-10.482
-10.4636
-10.4379
-10.4048
-10.3642
-10.316
-10.2601
-10.1963
-10.1245
-10.0446
-9.95645
-9.85978
-9.75447
-9.64031
-9.51715
-9.38484
-9.24326
-9.09235
-8.93209
-8.76252
-8.58372
-8.39587
-8.19918
-7.99394
-7.7805
-7.55931
-7.33084
-7.09567
-6.85439
-6.60768
-6.35619
-6.1006
-5.84162
-5.57993
-5.31625
-5.05135
-4.78606
-4.52126
-4.25791
-3.99706
-3.7398
-3.48725
-3.24045
-3.00025
-2.76725
-2.54188
-2.32453
-2.11553
-1.91514
-1.72359
-1.54103
-1.3676
-1.20319
-1.04797
-0.900991
-0.763093
-0.63
-0.507919
-0.378148
-0.277199
-0.119665
-0.0934714
-9.25016
-9.27333
-9.30985
-9.33816
-9.35724
-9.37794
-9.39843
-9.41578
-9.43107
-9.44518
-9.45803
-9.46971
-9.48072
-9.49182
-9.5042
-9.51936
-9.53869
-9.56268
-9.59054
-9.6238
-9.66362
-9.70986
-9.76151
-9.81709
-9.87494
-9.93347
-9.99131
-10.0473
-10.1004
-10.1498
-10.1946
-10.234
-10.2675
-10.2945
-10.3148
-10.328
-10.3342
-10.3331
-10.3248
-10.3091
-10.2859
-10.2552
-10.2169
-10.1709
-10.117
-10.0552
-9.98546
-9.90753
-9.82132
-9.72667
-9.62341
-9.51138
-9.39041
-9.26039
-9.12121
-8.97281
-8.81519
-8.64839
-8.47251
-8.28771
-8.09421
-7.8923
-7.68234
-7.46474
-7.24
-7.00864
-6.77128
-6.52854
-6.28108
-6.02955
-5.77462
-5.51699
-5.25735
-4.99646
-4.73511
-4.47418
-4.2146
-3.95738
-3.70359
-3.4543
-3.2105
-2.97303
-2.74249
-2.51932
-2.30391
-2.09658
-1.89761
-1.70722
-1.52556
-1.35277
-1.18877
-1.03371
-0.886699
-0.748579
-0.615258
-0.492864
-0.36351
-0.262717
-0.109356
-0.0833918
-9.25458
-9.27673
-9.30464
-9.32842
-9.3454
-9.36235
-9.37947
-9.39427
-9.40674
-9.41733
-9.42586
-9.43229
-9.43702
-9.44088
-9.44501
-9.45092
-9.4601
-9.47347
-9.49129
-9.51465
-9.54454
-9.58103
-9.62341
-9.67051
-9.72096
-9.77333
-9.82629
-9.87863
-9.92926
-9.97715
-10.0213
-10.0609
-10.0952
-10.1235
-10.1454
-10.1607
-10.1689
-10.1701
-10.1641
-10.1506
-10.1298
-10.1014
-10.0653
-10.0215
-9.9699
-9.91036
-9.84281
-9.76712
-9.68318
-9.59083
-9.48994
-9.38034
-9.26191
-9.13451
-8.99807
-8.85254
-8.69791
-8.53423
-8.3616
-8.18019
-7.99021
-7.79195
-7.58576
-7.37204
-7.15127
-6.92397
-6.69073
-6.45215
-6.20886
-5.96151
-5.71077
-5.45728
-5.20174
-4.9449
-4.68752
-4.43047
-4.17464
-3.92103
-3.67065
-3.42454
-3.18366
-2.94882
-2.72062
-2.49951
-2.28589
-2.08008
-1.88237
-1.69298
-1.51206
-1.33976
-1.17603
-1.021
-0.87384
-0.73539
-0.601776
-0.478971
-0.350072
-0.249247
-0.100326
-0.0738689
-9.256
-9.27665
-9.3004
-9.32292
-9.34124
-9.35838
-9.37495
-9.38924
-9.40086
-9.41016
-9.41718
-9.42198
-9.42497
-9.4269
-9.42876
-9.43176
-9.43715
-9.44584
-9.45849
-9.47574
-9.49844
-9.52675
-9.56025
-9.59809
-9.63921
-9.68248
-9.7268
-9.77111
-9.81445
-9.85587
-9.89446
-9.92936
-9.95983
-9.9852
-10.005
-10.0187
-10.0261
-10.0268
-10.0208
-10.0077
-9.98748
-9.95994
-9.92494
-9.88238
-9.83213
-9.7741
-9.70817
-9.63422
-9.55213
-9.46175
-9.36294
-9.25555
-9.13946
-9.01455
-8.88073
-8.73798
-8.58627
-8.42567
-8.25626
-8.07821
-7.89174
-7.69711
-7.49467
-7.28481
-7.06798
-6.84471
-6.61554
-6.38106
-6.14189
-5.89866
-5.65201
-5.40258
-5.15106
-4.89815
-4.64464
-4.39135
-4.13916
-3.88902
-3.64193
-3.39887
-3.16076
-2.92839
-2.70236
-2.48314
-2.27111
-2.06662
-1.86994
-1.68131
-1.50089
-1.32886
-1.16515
-1.00995
-0.862456
-0.723518
-0.589512
-0.466192
-0.337779
-0.236774
-0.0924634
-0.0650025
-9.25608
-9.27591
-9.29732
-9.31807
-9.33578
-9.35173
-9.36675
-9.37996
-9.39095
-9.39992
-9.40698
-9.41218
-9.41584
-9.41852
-9.42105
-9.42439
-9.42956
-9.4374
-9.44855
-9.46355
-9.48301
-9.50713
-9.53556
-9.56763
-9.60244
-9.63905
-9.67649
-9.71387
-9.75033
-9.78505
-9.81723
-9.84612
-9.87104
-9.89139
-9.90669
-9.91651
-9.92053
-9.91846
-9.91006
-9.89511
-9.87341
-9.84477
-9.80905
-9.76607
-9.71571
-9.65783
-9.5923
-9.51897
-9.43771
-9.34838
-9.25082
-9.14488
-9.03043
-8.90737
-8.7756
-8.63509
-8.48581
-8.32783
-8.16122
-7.98615
-7.8028
-7.61146
-7.41243
-7.20611
-6.99293
-6.77338
-6.548
-6.31736
-6.08205
-5.84268
-5.59987
-5.35427
-5.10652
-4.85734
-4.60747
-4.35772
-4.10895
-3.86208
-3.61806
-3.37783
-3.14229
-2.9122
-2.68815
-2.47061
-2.25999
-2.05661
-1.86077
-1.6727
-1.4926
-1.32063
-1.15678
-1.00121
-0.853235
-0.713654
-0.579136
-0.455162
-0.327177
-0.225791
-0.0860446
-0.057025
-9.2555
-9.27428
-9.29389
-9.31294
-9.33008
-9.34568
-9.3603
-9.37343
-9.38464
-9.39396
-9.40147
-9.40726
-9.41161
-9.41504
-9.41825
-9.42209
-9.42742
-9.435
-9.44543
-9.45923
-9.47684
-9.49841
-9.52367
-9.55203
-9.58273
-9.61494
-9.64778
-9.68042
-9.71207
-9.74195
-9.76933
-9.79352
-9.81389
-9.8299
-9.84109
-9.84707
-9.84752
-9.84217
-9.83078
-9.81314
-9.78905
-9.75834
-9.72082
-9.67635
-9.62476
-9.56593
-9.49971
-9.42595
-9.34451
-9.25524
-9.15798
-9.05258
-8.93892
-8.81688
-8.68637
-8.54735
-8.3998
-8.24376
-8.07931
-7.90659
-7.7258
-7.53718
-7.34105
-7.13776
-6.92775
-6.71148
-6.48945
-6.26224
-6.03039
-5.79451
-5.55519
-5.31306
-5.06878
-4.82301
-4.5765
-4.33002
-4.08441
-3.84055
-3.59936
-3.36174
-3.12855
-2.90052
-2.67824
-2.46218
-2.25275
-2.05027
-1.85506
-1.66735
-1.48734
-1.31524
-1.15104
-0.994944
-0.846317
-0.70595
-0.570816
-0.446076
-0.318468
-0.21655
-0.0811839
-0.0502635
-9.25306
-9.27103
-9.2894
-9.3073
-9.32385
-9.33904
-9.35309
-9.36574
-9.3767
-9.38596
-9.39364
-9.39986
-9.40489
-9.40918
-9.41333
-9.41805
-9.42404
-9.43197
-9.44236
-9.45569
-9.47225
-9.49219
-9.51528
-9.54103
-9.56877
-9.59777
-9.62724
-9.65642
-9.68455
-9.7109
-9.73479
-9.75556
-9.77261
-9.78543
-9.79357
-9.79664
-9.79432
-9.78635
-9.7725
-9.75254
-9.7263
-9.69359
-9.65425
-9.60813
-9.55509
-9.49498
-9.42767
-9.35301
-9.27087
-9.1811
-9.08355
-8.97809
-8.86458
-8.74293
-8.61304
-8.47487
-8.32841
-8.17368
-8.01077
-7.83981
-7.66099
-7.47453
-7.28075
-7.07997
-6.87262
-6.65913
-6.44
-6.21576
-5.98696
-5.75416
-5.51796
-5.27897
-5.0378
-4.79514
-4.55168
-4.30819
-4.06547
-3.82438
-3.58578
-3.35055
-3.11949
-2.89332
-2.67262
-2.45785
-2.24943
-2.04768
-1.85292
-1.6654
-1.48533
-1.31293
-1.14822
-0.991431
-0.842007
-0.700711
-0.564834
-0.439196
-0.31185
-0.209222
-0.077896
-0.044749
-9.25102
-9.26813
-9.28539
-9.30226
-9.31805
-9.33269
-9.34626
-9.35862
-9.36957
-9.37907
-9.38719
-9.39405
-9.39988
-9.40506
-9.41011
-9.4156
-9.42217
-9.43036
-9.44067
-9.45349
-9.46909
-9.48758
-9.50876
-9.53223
-9.55739
-9.5836
-9.61017
-9.63637
-9.6615
-9.6849
-9.70589
-9.72386
-9.73823
-9.74851
-9.75424
-9.75505
-9.75062
-9.74066
-9.72493
-9.70323
-9.67535
-9.64112
-9.60038
-9.55296
-9.49874
-9.43756
-9.36931
-9.29383
-9.21101
-9.12069
-9.02276
-8.91707
-8.80351
-8.682
-8.55244
-8.4148
-8.26908
-8.1153
-7.95354
-7.78395
-7.60668
-7.42198
-7.23013
-7.03146
-6.82636
-6.61527
-6.39865
-6.17702
-5.95091
-5.72087
-5.48747
-5.2513
-5.01297
-4.77314
-4.53248
-4.29174
-4.05169
-3.81314
-3.57693
-3.34388
-3.11478
-2.8903
-2.67102
-2.4574
-2.24983
-2.04867
-1.85422
-1.66675
-1.48648
-1.31364
-1.1483
-0.990684
-0.840347
-0.698014
-0.561298
-0.434662
-0.307464
-0.203982
-0.0762534
-0.0406561
-9.24719
-9.26362
-9.28005
-9.29609
-9.31128
-9.32546
-9.33869
-9.35083
-9.36172
-9.37132
-9.37969
-9.38697
-9.39336
-9.39921
-9.40496
-9.4111
-9.41817
-9.42665
-9.43697
-9.44944
-9.46432
-9.48164
-9.50127
-9.52283
-9.54582
-9.56966
-9.59372
-9.61735
-9.63991
-9.66074
-9.67923
-9.69479
-9.70687
-9.71499
-9.7187
-9.71764
-9.71146
-9.6999
-9.68269
-9.65961
-9.63047
-9.59508
-9.55327
-9.50489
-9.44979
-9.38784
-9.31889
-9.24282
-9.1595
-9.0688
-8.97059
-8.86476
-8.7512
-8.62983
-8.50057
-8.3634
-8.21831
-8.06536
-7.9046
-7.73619
-7.56029
-7.37713
-7.18698
-6.99018
-6.7871
-6.57816
-6.36381
-6.14455
-5.92089
-5.69337
-5.46255
-5.22899
-4.9933
-4.7561
-4.51806
-4.27989
-4.04233
-3.80617
-3.5722
-3.3412
-3.11392
-2.89102
-2.67304
-2.46045
-2.25364
-2.05297
-1.85873
-1.67121
-1.49064
-1.31727
-1.1512
-0.992673
-0.841327
-0.697862
-0.560213
-0.432479
-0.305286
-0.200803
-0.0761278
-0.0379183
-9.24402
-9.25976
-9.27543
-9.29072
-9.30533
-9.31905
-9.33189
-9.34376
-9.35455
-9.36422
-9.37283
-9.38052
-9.38746
-9.39395
-9.40036
-9.4071
-9.41462
-9.42334
-9.43361
-9.44572
-9.45987
-9.47608
-9.49423
-9.51399
-9.53493
-9.55653
-9.57824
-9.59945
-9.61956
-9.63797
-9.65411
-9.6674
-9.67734
-9.68345
-9.68529
-9.6825
-9.67473
-9.66172
-9.64319
-9.61891
-9.58869
-9.55233
-9.50965
-9.46051
-9.40473
-9.34219
-9.27276
-9.19628
-9.11265
-9.02174
-8.92342
-8.81759
-8.70415
-8.58301
-8.45414
-8.31749
-8.17308
-8.02095
-7.86119
-7.69393
-7.51934
-7.33765
-7.14912
-6.95409
-6.75292
-6.54601
-6.3338
-6.11679
-5.89545
-5.67033
-5.44195
-5.21088
-4.97769
-4.74301
-4.50748
-4.27177
-4.0366
-3.80273
-3.5709
-3.34186
-3.11632
-2.89491
-2.67817
-2.46655
-2.26044
-2.06019
-1.8661
-1.67848
-1.49755
-1.3236
-1.15674
-0.997233
-0.844819
-0.700163
-0.561511
-0.432609
-0.305278
-0.199669
-0.0774541
-0.0365168
-9.23945
-9.25461
-9.26964
-9.28432
-9.29841
-9.31175
-9.32424
-9.33589
-9.34662
-9.35637
-9.36519
-9.3732
-9.38057
-9.38755
-9.39445
-9.40164
-9.40947
-9.41832
-9.42848
-9.44021
-9.45365
-9.46884
-9.48566
-9.5038
-9.52288
-9.54245
-9.56201
-9.58101
-9.59889
-9.6151
-9.62908
-9.6403
-9.64828
-9.65254
-9.65267
-9.6483
-9.6391
-9.62478
-9.60507
-9.57973
-9.54856
-9.51136
-9.46795
-9.41817
-9.36185
-9.29886
-9.22906
-9.15232
-9.0685
-8.9775
-8.87919
-8.77347
-8.66025
-8.53946
-8.41105
-8.27501
-8.13133
-7.98009
-7.82135
-7.65527
-7.482
-7.30178
-7.11487
-6.92158
-6.72228
-6.51736
-6.30725
-6.09242
-5.87335
-5.65056
-5.42457
-5.19593
-4.9652
-4.73298
-4.49989
-4.26658
-4.03376
-3.80211
-3.57237
-3.34525
-3.12141
-2.90146
-2.68592
-2.47524
-2.26979
-2.06994
-1.87599
-1.68823
-1.50693
-1.33235
-1.16467
-1.00416
-0.850634
-0.704743
-0.565028
-0.434893
-0.30727
-0.200411
-0.0800312
-0.0362781
-9.23543
-9.25003
-9.26447
-9.27858
-9.29217
-9.30511
-9.31727
-9.32866
-9.33927
-9.34905
-9.35803
-9.36629
-9.37401
-9.38139
-9.38869
-9.39623
-9.40431
-9.41324
-9.42326
-9.43459
-9.44734
-9.46155
-9.47708
-9.49368
-9.51099
-9.52863
-9.54613
-9.56302
-9.57875
-9.59282
-9.60472
-9.61393
-9.61999
-9.62245
-9.62091
-9.615
-9.6044
-9.5888
-9.56794
-9.54158
-9.5095
-9.47151
-9.42741
-9.37705
-9.32025
-9.25687
-9.18678
-9.10983
-9.02592
-8.9349
-8.83668
-8.73116
-8.61824
-8.49788
-8.37001
-8.23464
-8.09177
-7.94146
-7.78381
-7.61894
-7.44703
-7.2683
-7.08302
-6.89149
-6.69407
-6.49114
-6.28312
-6.07047
-5.85366
-5.63319
-5.40957
-5.18334
-4.95504
-4.72526
-4.49459
-4.26367
-4.03316
-3.80373
-3.57606
-3.35084
-3.12869
-2.91019
-2.69584
-2.48609
-2.28131
-2.08185
-1.88803
-1.70014
-1.51845
-1.34325
-1.17474
-1.01321
-0.858558
-0.711409
-0.570583
-0.439167
-0.311094
-0.202869
-0.0836959
-0.0370464
-9.23046
-9.24456
-9.25848
-9.27209
-9.28524
-9.2978
-9.3097
-9.32089
-9.33135
-9.34112
-9.35021
-9.35868
-9.36667
-9.37435
-9.38196
-9.38975
-9.39797
-9.40688
-9.41669
-9.42758
-9.43963
-9.45286
-9.46716
-9.48229
-9.49794
-9.51377
-9.52935
-9.54424
-9.55796
-9.57003
-9.57995
-9.58727
-9.59152
-9.59229
-9.58917
-9.58181
-9.56988
-9.55308
-9.53115
-9.50383
-9.47092
-9.43219
-9.38748
-9.33659
-9.27937
-9.21566
-9.14534
-9.06825
-8.98429
-8.89333
-8.79526
-8.68999
-8.57744
-8.45755
-8.33028
-8.19563
-8.05362
-7.9043
-7.74776
-7.58415
-7.41364
-7.23643
-7.05281
-6.86306
-6.66753
-6.4666
-6.26068
-6.05022
-5.83567
-5.61753
-5.39629
-5.17247
-4.94662
-4.71928
-4.49104
-4.26251
-4.03432
-3.8071
-3.58152
-3.35819
-3.13773
-2.92069
-2.70756
-2.49875
-2.29465
-2.0956
-1.90192
-1.71391
-1.53185
-1.35605
-1.18671
-1.02416
-0.86837
-0.719948
-0.577968
-0.445223
-0.316534
-0.206823
-0.0882422
-0.0386078
-9.22583
-9.23946
-9.25291
-9.26606
-9.2788
-9.29102
-9.30265
-9.31364
-9.32398
-9.33367
-9.3428
-9.3514
-9.35957
-9.36746
-9.37528
-9.38322
-9.3915
-9.40033
-9.40988
-9.4203
-9.43166
-9.44394
-9.45704
-9.47077
-9.48483
-9.49892
-9.51267
-9.52565
-9.53743
-9.54755
-9.55557
-9.56103
-9.56352
-9.56261
-9.55793
-9.54913
-9.53588
-9.51788
-9.49488
-9.4666
-9.43285
-9.3934
-9.34806
-9.29665
-9.23902
-9.175
-9.10446
-9.02726
-8.94328
-8.85239
-8.75451
-8.64953
-8.53738
-8.41801
-8.29138
-8.15749
-8.01637
-7.86807
-7.71269
-7.55037
-7.38127
-7.20562
-7.02367
-6.83573
-6.64211
-6.44321
-6.23941
-6.03116
-5.81889
-5.60309
-5.38425
-5.16287
-4.93947
-4.71459
-4.4888
-4.26268
-4.03682
-3.81184
-3.58835
-3.36694
-3.1482
-2.93264
-2.72074
-2.51291
-2.30951
-2.1109
-1.91739
-1.72928
-1.54688
-1.37049
-1.20035
-1.03679
-0.879868
-0.730169
-0.586994
-0.452876
-0.323401
-0.212084
-0.0935049
-0.0407808
-9.22065
-9.23385
-9.24686
-9.25958
-9.27193
-9.28382
-9.29519
-9.30599
-9.31621
-9.32584
-9.33494
-9.34359
-9.35188
-9.35992
-9.36785
-9.37586
-9.38412
-9.3928
-9.40205
-9.41197
-9.4226
-9.43392
-9.44586
-9.45824
-9.47079
-9.48324
-9.49523
-9.5064
-9.51633
-9.5246
-9.5308
-9.53449
-9.53528
-9.53277
-9.52659
-9.5164
-9.50187
-9.48272
-9.45868
-9.42949
-9.39493
-9.35478
-9.30885
-9.25696
-9.19895
-9.13465
-9.06392
-8.98663
-8.90266
-8.81188
-8.71421
-8.60955
-8.49782
-8.379
-8.25303
-8.11993
-7.97972
-7.83246
-7.67826
-7.51724
-7.34959
-7.17551
-6.99526
-6.80913
-6.61745
-6.42059
-6.21893
-6.01289
-5.80293
-5.5895
-5.37307
-5.15415
-4.93323
-4.71084
-4.48752
-4.26383
-4.04033
-3.81761
-3.59624
-3.37679
-3.15979
-2.94575
-2.73511
-2.52828
-2.32562
-2.12748
-1.93417
-1.746
-1.56329
-1.38634
-1.21543
-1.05089
-0.892854
-0.741884
-0.597481
-0.461953
-0.331521
-0.218477
-0.0993432
-0.0434125
-9.21565
-9.22844
-9.24105
-9.25338
-9.26538
-9.27696
-9.28808
-9.29869
-9.30877
-9.31833
-9.32739
-9.33603
-9.34435
-9.35244
-9.36043
-9.36844
-9.3766
-9.38505
-9.39394
-9.40331
-9.4132
-9.42359
-9.43441
-9.4455
-9.45661
-9.46749
-9.47782
-9.48724
-9.4954
-9.50188
-9.50631
-9.50829
-9.50742
-9.50333
-9.49567
-9.4841
-9.46831
-9.448
-9.42291
-9.39279
-9.35741
-9.31656
-9.27003
-9.21764
-9.15924
-9.09465
-9.02373
-8.94635
-8.86238
-8.77172
-8.67426
-8.56992
-8.45864
-8.34036
-8.21507
-8.08277
-7.94348
-7.79728
-7.64427
-7.48457
-7.31837
-7.14587
-6.96732
-6.78302
-6.59328
-6.39847
-6.19896
-5.99516
-5.78751
-5.57647
-5.36248
-5.14603
-4.92762
-4.70775
-4.48693
-4.26569
-4.04458
-3.82414
-3.60492
-3.38745
-3.17223
-2.95974
-2.75041
-2.54462
-2.34273
-2.14509
-1.95202
-1.76383
-1.58084
-1.40337
-1.23172
-1.06625
-0.907114
-0.754895
-0.609246
-0.472282
-0.340735
-0.225854
-0.105653
-0.0463998
-9.21038
-9.22278
-9.235
-9.24697
-9.25862
-9.2699
-9.28076
-9.29117
-9.3011
-9.31055
-9.31956
-9.32816
-9.33644
-9.3445
-9.35244
-9.36037
-9.36838
-9.37658
-9.38505
-9.39385
-9.403
-9.41249
-9.42224
-9.43208
-9.44182
-9.45119
-9.45992
-9.46768
-9.47414
-9.47891
-9.48164
-9.48196
-9.47949
-9.47387
-9.46477
-9.45186
-9.43483
-9.4134
-9.38729
-9.35626
-9.32007
-9.27853
-9.23141
-9.17854
-9.11975
-9.05488
-8.98378
-8.90632
-8.82238
-8.73184
-8.6346
-8.5306
-8.41976
-8.30204
-8.17743
-8.04593
-7.90757
-7.76243
-7.6106
-7.45222
-7.28746
-7.11654
-6.93971
-6.75723
-6.56944
-6.37667
-6.17931
-5.97776
-5.77244
-5.56379
-5.35226
-5.13831
-4.92242
-4.70508
-4.48678
-4.26803
-4.04934
-3.83122
-3.61418
-3.39872
-3.18531
-2.9744
-2.7664
-2.56169
-2.36061
-2.1635
-1.97069
-1.78251
-1.59927
-1.42132
-1.24897
-1.08259
-0.922397
-0.768959
-0.622059
-0.483651
-0.350855
-0.234052
-0.11233
-0.0496675
-9.20518
-9.21722
-9.22909
-9.24071
-9.25204
-9.26304
-9.27365
-9.28385
-9.29362
-9.30296
-9.31188
-9.32041
-9.32861
-9.33658
-9.34439
-9.35215
-9.35992
-9.3678
-9.37582
-9.38406
-9.3925
-9.40113
-9.40984
-9.41849
-9.42691
-9.43485
-9.44205
-9.44822
-9.45304
-9.45617
-9.45726
-9.45597
-9.45194
-9.44483