/*--------------------------------*- C++ -*----------------------------------*\
| =========                 |                                                 |
| \\      /  F ield         | OpenFOAM: The Open Source CFD Toolbox           |
|  \\    /   O peration     | Version:  4.1                                   |
|   \\  /    A nd           | Web:      www.OpenFOAM.org                      |
|    \\/     M anipulation  |                                                 |
\*---------------------------------------------------------------------------*/
FoamFile
{
    version     2.0;
    format      ascii;
    class       surfaceScalarField;
    location    "700";
    object      phi;
}
// * * * * * * * * * * * * * * * * * * * * * * * * * * * * * * * * * * * * * //

dimensions      [0 3 -1 0 0 0 0];

internalField   nonuniform List<scalar> 
13452
(
5.95313e-05
7.37189e-07
5.86592e-05
8.72056e-07
5.78162e-05
8.43024e-07
5.69811e-05
8.35094e-07
5.61551e-05
8.26047e-07
5.53509e-05
8.0414e-07
5.4576e-05
7.74949e-07
5.38328e-05
7.43209e-07
5.31224e-05
7.10334e-07
5.24455e-05
6.76904e-07
5.18019e-05
6.43574e-07
5.1191e-05
6.10919e-07
5.06117e-05
5.793e-07
5.00628e-05
5.48904e-07
4.9543e-05
5.19822e-07
4.90509e-05
4.92088e-07
4.85852e-05
4.65693e-07
4.81446e-05
4.40602e-07
4.77278e-05
4.16766e-07
4.73337e-05
3.94124e-07
4.69611e-05
3.72615e-07
4.66089e-05
3.52175e-07
4.62762e-05
3.32743e-07
4.59619e-05
3.14259e-07
4.56653e-05
2.96664e-07
4.53854e-05
2.79908e-07
4.51214e-05
2.63926e-07
4.48727e-05
2.48726e-07
4.46386e-05
2.34062e-07
4.4418e-05
2.20664e-07
4.42121e-05
2.05893e-07
4.40159e-05
1.96231e-07
1.68553e-07
4.38473e-05
6.23701e-05
3.5739e-07
6.26549e-05
5.87255e-07
6.28762e-05
6.21724e-07
6.30527e-05
6.58588e-07
6.31874e-05
6.91413e-07
6.32837e-05
7.07864e-07
6.33451e-05
7.13534e-07
6.33748e-05
7.13504e-07
6.33761e-05
7.09037e-07
6.33524e-05
7.00542e-07
6.33073e-05
6.8874e-07
6.32438e-05
6.74427e-07
6.31648e-05
6.58241e-07
6.30731e-05
6.40666e-07
6.29708e-05
6.22096e-07
6.286e-05
6.02857e-07
6.27425e-05
5.83211e-07
6.26197e-05
5.63366e-07
6.2493e-05
5.43486e-07
6.23634e-05
5.23698e-07
6.22319e-05
5.04104e-07
6.20993e-05
4.84779e-07
6.19663e-05
4.65781e-07
6.18334e-05
4.47153e-07
6.17012e-05
4.28923e-07
6.15699e-05
4.11115e-07
6.14401e-05
3.93729e-07
6.13121e-05
3.76807e-07
6.11859e-05
3.60233e-07
6.10622e-05
3.44342e-07
6.094e-05
3.28079e-07
6.08225e-05
3.13723e-07
2.97694e-07
6.06934e-05
6.38365e-05
2.82304e-07
6.38978e-05
5.25937e-07
6.39331e-05
5.86408e-07
6.39614e-05
6.30301e-07
6.39849e-05
6.67945e-07
6.40043e-05
6.88449e-07
6.40212e-05
6.9658e-07
6.40365e-05
6.98206e-07
6.40503e-05
6.95278e-07
6.40624e-05
6.8842e-07
6.40728e-05
6.78405e-07
6.40811e-05
6.66046e-07
6.40874e-05
6.51964e-07
6.40915e-05
6.36608e-07
6.40932e-05
6.20332e-07
6.40927e-05
6.03422e-07
6.40898e-05
5.86107e-07
6.40846e-05
5.68564e-07
6.40771e-05
5.50931e-07
6.40675e-05
5.33315e-07
6.40558e-05
5.15798e-07
6.40422e-05
4.98444e-07
6.40266e-05
4.813e-07
6.40094e-05
4.644e-07
6.39906e-05
4.47768e-07
6.39702e-05
4.31422e-07
6.39486e-05
4.15363e-07
6.39258e-05
3.99612e-07
6.39019e-05
3.84118e-07
6.38773e-05
3.68981e-07
6.38514e-05
3.53969e-07
6.38257e-05
3.39374e-07
3.25231e-07
6.37982e-05
6.5644e-05
2.21346e-07
6.57108e-05
4.59204e-07
6.57547e-05
5.42441e-07
6.57894e-05
5.95595e-07
6.5819e-05
6.3841e-07
6.58438e-05
6.6365e-07
6.5865e-05
6.75389e-07
6.58835e-05
6.79625e-07
6.59001e-05
6.78764e-07
6.59148e-05
6.73642e-07
6.59281e-05
6.65103e-07
6.59402e-05
6.5401e-07
6.59511e-05
6.41031e-07
6.59611e-05
6.2665e-07
6.59701e-05
6.11246e-07
6.59784e-05
5.95126e-07
6.5986e-05
5.78533e-07
6.59929e-05
5.61657e-07
6.59992e-05
5.44642e-07
6.60049e-05
5.27601e-07
6.60101e-05
5.10621e-07
6.60148e-05
4.93765e-07
6.6019e-05
4.77082e-07
6.60228e-05
4.60604e-07
6.60262e-05
4.44354e-07
6.60293e-05
4.28347e-07
6.60321e-05
4.12585e-07
6.60346e-05
3.97076e-07
6.60369e-05
3.81792e-07
6.60391e-05
3.66774e-07
6.60412e-05
3.51931e-07
6.60432e-05
3.37376e-07
3.23466e-07
6.60449e-05
6.75014e-05
1.76691e-07
6.75606e-05
4.00048e-07
6.7606e-05
4.97074e-07
6.76451e-05
5.56444e-07
6.76814e-05
6.02165e-07
6.77143e-05
6.30732e-07
6.77441e-05
6.4553e-07
6.77716e-05
6.52154e-07
6.77971e-05
6.53221e-07
6.7821e-05
6.49757e-07
6.78435e-05
6.42683e-07
6.78646e-05
6.32896e-07
6.78845e-05
6.21091e-07
6.79034e-05
6.07774e-07
6.79213e-05
5.9334e-07
6.79383e-05
5.78106e-07
6.79545e-05
5.62322e-07
6.797e-05
5.46185e-07
6.79848e-05
5.29844e-07
6.7999e-05
5.13418e-07
6.80126e-05
4.96995e-07
6.80257e-05
4.80641e-07
6.80384e-05
4.64408e-07
6.80507e-05
4.4833e-07
6.80626e-05
4.3243e-07
6.80742e-05
4.16722e-07
6.80856e-05
4.01211e-07
6.80968e-05
3.85898e-07
6.81078e-05
3.70769e-07
6.81187e-05
3.55829e-07
6.81296e-05
3.41051e-07
6.81405e-05
3.26446e-07
3.12177e-07
6.81518e-05
6.94169e-05
1.43865e-07
6.94686e-05
3.48322e-07
6.95132e-05
4.52413e-07
6.95533e-05
5.16342e-07
6.95912e-05
5.64293e-07
6.96263e-05
5.95621e-07
6.96587e-05
6.13129e-07
6.9689e-05
6.21909e-07
6.97175e-05
6.24726e-07
6.97444e-05
6.22792e-07
6.977e-05
6.17096e-07
6.97944e-05
6.08556e-07
6.98176e-05
5.97878e-07
6.98398e-05
5.85585e-07
6.9861e-05
5.72082e-07
6.98814e-05
5.57694e-07
6.99011e-05
5.4268e-07
6.992e-05
5.2724e-07
6.99383e-05
5.11532e-07
6.99561e-05
4.95677e-07
6.99733e-05
4.79769e-07
6.99901e-05
4.63878e-07
7.00064e-05
4.48058e-07
7.00224e-05
4.32344e-07
7.00381e-05
4.16763e-07
7.00535e-05
4.01329e-07
7.00686e-05
3.86046e-07
7.00836e-05
3.70915e-07
7.00985e-05
3.55924e-07
7.01132e-05
3.4106e-07
7.0128e-05
3.26304e-07
7.01428e-05
3.11605e-07
2.97027e-07
7.0158e-05
7.13907e-05
1.1945e-07
7.14348e-05
3.04265e-07
7.14764e-05
4.1082e-07
7.1515e-05
4.77782e-07
7.15522e-05
5.27088e-07
7.15874e-05
5.6034e-07
7.16206e-05
5.8e-07
7.16519e-05
5.90611e-07
7.16816e-05
5.94972e-07
7.171e-05
5.94421e-07
7.17371e-05
5.89985e-07
7.17631e-05
5.82587e-07
7.1788e-05
5.72945e-07
7.1812e-05
5.61594e-07
7.18351e-05
5.48951e-07
7.18575e-05
5.35348e-07
7.18791e-05
5.21052e-07
7.19001e-05
5.06267e-07
7.19205e-05
4.91157e-07
7.19403e-05
4.75848e-07
7.19596e-05
4.60435e-07
7.19785e-05
4.44993e-07
7.1997e-05
4.29576e-07
7.20151e-05
4.14224e-07
7.20329e-05
3.98963e-07
7.20504e-05
3.83808e-07
7.20677e-05
3.68765e-07
7.20848e-05
3.53831e-07
7.21017e-05
3.38994e-07
7.21185e-05
3.24235e-07
7.21353e-05
3.09527e-07
7.21521e-05
2.94798e-07
2.80054e-07
7.21691e-05
7.34237e-05
1.00988e-07
7.34611e-05
2.6688e-07
7.34997e-05
3.72241e-07
7.35369e-05
4.4055e-07
7.35736e-05
4.90388e-07
7.36091e-05
5.24889e-07
7.36428e-05
5.46285e-07
7.36749e-05
5.58503e-07
7.37056e-05
5.64269e-07
7.3735e-05
5.65005e-07
7.37632e-05
5.61764e-07
7.37904e-05
5.55466e-07
7.38165e-05
5.46835e-07
7.38417e-05
5.36416e-07
7.3866e-05
5.24632e-07
7.38895e-05
5.1182e-07
7.39123e-05
4.9825e-07
7.39344e-05
4.84132e-07
7.3956e-05
4.69632e-07
7.39769e-05
4.54879e-07
7.39974e-05
4.39972e-07
7.40174e-05
4.2499e-07
7.4037e-05
4.09988e-07
7.40562e-05
3.95008e-07
7.40751e-05
3.80079e-07
7.40937e-05
3.65217e-07
7.4112e-05
3.50428e-07
7.41301e-05
3.3571e-07
7.41481e-05
3.21051e-07
7.41659e-05
3.06429e-07
7.41836e-05
2.91814e-07
7.42013e-05
2.77145e-07
2.62414e-07
7.42189e-05
7.55168e-05
8.66841e-08
7.55485e-05
2.35121e-07
7.55839e-05
3.36842e-07
7.56193e-05
4.05171e-07
7.56547e-05
4.54958e-07
7.56895e-05
4.90141e-07
7.5723e-05
5.12817e-07
7.57551e-05
5.26336e-07
7.57861e-05
5.33291e-07
7.5816e-05
5.35153e-07
7.58447e-05
5.32984e-07
7.58725e-05
5.27693e-07
7.58993e-05
5.20001e-07
7.59253e-05
5.10455e-07
7.59505e-05
4.99481e-07
7.59749e-05
4.8742e-07
7.59986e-05
4.74544e-07
7.60216e-05
4.61066e-07
7.60441e-05
4.47156e-07
7.6066e-05
4.32945e-07
7.60875e-05
4.18536e-07
7.61084e-05
4.04009e-07
7.6129e-05
3.89424e-07
7.61492e-05
3.74823e-07
7.6169e-05
3.60236e-07
7.61886e-05
3.45682e-07
7.62078e-05
3.31169e-07
7.62268e-05
3.16696e-07
7.62456e-05
3.02251e-07
7.62643e-05
2.87813e-07
7.62827e-05
2.73353e-07
7.63011e-05
2.58803e-07
2.44148e-07
7.63193e-05
7.76709e-05
7.53137e-08
7.76981e-05
2.08017e-07
7.77304e-05
3.04523e-07
7.77639e-05
3.71681e-07
7.7798e-05
4.20812e-07
7.7832e-05
4.56096e-07
7.78653e-05
4.79569e-07
7.78976e-05
4.94073e-07
7.79288e-05
5.02006e-07
7.79592e-05
5.04845e-07
7.79885e-05
5.03641e-07
7.80169e-05
4.9928e-07
7.80444e-05
4.92472e-07
7.80711e-05
4.83762e-07
7.8097e-05
4.73575e-07
7.81222e-05
4.62253e-07
7.81467e-05
4.50067e-07
7.81705e-05
4.37234e-07
7.81937e-05
4.23922e-07
7.82164e-05
4.10268e-07
7.82386e-05
3.96374e-07
7.82603e-05
3.82324e-07
7.82815e-05
3.68177e-07
7.83024e-05
3.5398e-07
7.83228e-05
3.39765e-07
7.8343e-05
3.25551e-07
7.83628e-05
3.11349e-07
7.83823e-05
2.9716e-07
7.84016e-05
2.82976e-07
7.84206e-05
2.68779e-07
7.84394e-05
2.54547e-07
7.8458e-05
2.40238e-07
2.25861e-07
7.84763e-05
7.98876e-05
6.60393e-08
7.99109e-05
1.84699e-07
7.99404e-05
2.75074e-07
7.99719e-05
3.401e-07
8.00047e-05
3.88073e-07
8.00378e-05
4.23005e-07
8.00705e-05
4.46871e-07
8.01025e-05
4.62075e-07
8.01337e-05
4.70786e-07
8.01641e-05
4.74446e-07
8.01936e-05
4.74086e-07
8.02224e-05
4.70562e-07
8.02503e-05
4.64566e-07
8.02774e-05
4.56635e-07
8.03038e-05
4.47193e-07
8.03294e-05
4.36576e-07
8.03545e-05
4.25056e-07
8.03788e-05
4.12848e-07
8.04026e-05
4.00123e-07
8.04259e-05
3.87017e-07
8.04486e-05
3.73636e-07
8.04709e-05
3.60063e-07
8.04927e-05
3.46361e-07
8.05141e-05
3.32578e-07
8.05351e-05
3.18749e-07
8.05558e-05
3.04895e-07
8.05761e-05
2.91031e-07
8.05961e-05
2.77158e-07
8.06158e-05
2.63275e-07
8.06352e-05
2.49369e-07
8.06543e-05
2.35422e-07
8.06732e-05
2.21394e-07
2.0729e-07
8.06918e-05
8.21682e-05
5.82879e-08
8.21885e-05
1.64439e-07
8.22153e-05
2.48236e-07
8.2245e-05
3.10382e-07
8.22763e-05
3.56745e-07
8.23084e-05
3.90915e-07
8.23405e-05
4.14777e-07
8.23722e-05
4.30376e-07
8.24034e-05
4.39641e-07
8.24339e-05
4.43949e-07
8.24637e-05
4.443e-07
8.24927e-05
4.41511e-07
8.2521e-05
4.3625e-07
8.25486e-05
4.29042e-07
8.25755e-05
4.20301e-07
8.26017e-05
4.10361e-07
8.26273e-05
3.99488e-07
8.26522e-05
3.87896e-07
8.26766e-05
3.75756e-07
8.27004e-05
3.63203e-07
8.27237e-05
3.50345e-07
8.27465e-05
3.37265e-07
8.27688e-05
3.24028e-07
8.27907e-05
3.10685e-07
8.28122e-05
2.97271e-07
8.28333e-05
2.83811e-07
8.2854e-05
2.70321e-07
8.28744e-05
2.5681e-07
8.28944e-05
2.43279e-07
8.2914e-05
2.29721e-07
8.29333e-05
2.16131e-07
8.29522e-05
2.0249e-07
1.88832e-07
8.29707e-05
8.45144e-05
5.16653e-08
8.45322e-05
1.46642e-07
8.45567e-05
2.23725e-07
8.45846e-05
2.82438e-07
8.46146e-05
3.26799e-07
8.46456e-05
3.59859e-07
8.46771e-05
3.83376e-07
8.47083e-05
3.99097e-07
8.47393e-05
4.08715e-07
8.47697e-05
4.13517e-07
8.47995e-05
4.14456e-07
8.48287e-05
4.12308e-07
8.48573e-05
4.07709e-07
8.48852e-05
4.01167e-07
8.49124e-05
3.93086e-07
8.49389e-05
3.83791e-07
8.49649e-05
3.73543e-07
8.49902e-05
3.62553e-07
8.5015e-05
3.50989e-07
8.50392e-05
3.38987e-07
8.50629e-05
3.26654e-07
8.50861e-05
3.14074e-07
8.51088e-05
3.01314e-07
8.51311e-05
2.88425e-07
8.51529e-05
2.75446e-07
8.51743e-05
2.62404e-07
8.51953e-05
2.4932e-07
8.52159e-05
2.36204e-07
8.52361e-05
2.23063e-07
8.52559e-05
2.09899e-07
8.52754e-05
1.96711e-07
8.52944e-05
1.83483e-07
1.70243e-07
8.5313e-05
8.69279e-05
4.58962e-08
8.69437e-05
1.30832e-07
8.69662e-05
2.01259e-07
8.69925e-05
2.56152e-07
8.70211e-05
2.9818e-07
8.70511e-05
3.29831e-07
8.70818e-05
3.52698e-07
8.71126e-05
3.68279e-07
8.71433e-05
3.78046e-07
8.71736e-05
3.83178e-07
8.72035e-05
3.84573e-07
8.72329e-05
3.82959e-07
8.72616e-05
3.7894e-07
8.72898e-05
3.73e-07
8.73174e-05
3.6553e-07
8.73443e-05
3.56843e-07
8.73707e-05
3.47195e-07
8.73964e-05
3.3679e-07
8.74216e-05
3.25794e-07
8.74463e-05
3.14341e-07
8.74704e-05
3.02537e-07
8.7494e-05
2.90468e-07
8.75171e-05
2.782e-07
8.75397e-05
2.65786e-07
8.75619e-05
2.53268e-07
8.75837e-05
2.40675e-07
8.76049e-05
2.2803e-07
8.76258e-05
2.15349e-07
8.76462e-05
2.02644e-07
8.76662e-05
1.89923e-07
8.76857e-05
1.77193e-07
8.77047e-05
1.64457e-07
1.51759e-07
8.77232e-05
8.94106e-05
4.07849e-08
8.94249e-05
1.16629e-07
8.94455e-05
1.80571e-07
8.94703e-05
2.31393e-07
8.94977e-05
2.70814e-07
8.95267e-05
3.008e-07
8.95566e-05
3.2275e-07
8.9587e-05
3.37953e-07
8.96173e-05
3.47678e-07
8.96475e-05
3.52988e-07
8.96774e-05
3.54716e-07
8.97068e-05
3.53541e-07
8.97357e-05
3.50026e-07
8.97641e-05
3.44632e-07
8.97919e-05
3.37729e-07
8.98191e-05
3.29619e-07
8.98458e-05
3.20548e-07
8.98718e-05
3.10715e-07
8.98973e-05
3.00281e-07
8.99223e-05
2.89377e-07
8.99467e-05
2.78109e-07
8.99706e-05
2.6656e-07
8.9994e-05
2.548e-07
9.00169e-05
2.42881e-07
9.00394e-05
2.30846e-07
9.00613e-05
2.18728e-07
9.00828e-05
2.06553e-07
9.01038e-05
1.94341e-07
9.01243e-05
1.82109e-07
9.01444e-05
1.69868e-07
9.0164e-05
1.57633e-07
9.0183e-05
1.45405e-07
1.33225e-07
9.02015e-05
9.19645e-05
3.61892e-08
9.19774e-05
1.03731e-07
9.19965e-05
1.61413e-07
9.20199e-05
2.08019e-07
9.20461e-05
2.44616e-07
9.20742e-05
2.72717e-07
9.21034e-05
2.9352e-07
9.21332e-05
3.0813e-07
9.21633e-05
3.17632e-07
9.21933e-05
3.22972e-07
9.22231e-05
3.2491e-07
9.22526e-05
3.24073e-07
9.22816e-05
3.20983e-07
9.23102e-05
3.16071e-07
9.23382e-05
3.09687e-07
9.23657e-05
3.02118e-07
9.23927e-05
2.93598e-07
9.2419e-05
2.8432e-07
9.24449e-05
2.74438e-07
9.24702e-05
2.6408e-07
9.24949e-05
2.5335e-07
9.25192e-05
2.42332e-07
9.25429e-05
2.31091e-07
9.25661e-05
2.19685e-07
9.25888e-05
2.08156e-07
9.2611e-05
1.96539e-07
9.26326e-05
1.84864e-07
9.26538e-05
1.73155e-07
9.26745e-05
1.6143e-07
9.26947e-05
1.49708e-07
9.27143e-05
1.38008e-07
9.27334e-05
1.26342e-07
1.1476e-07
9.27518e-05
9.45913e-05
3.20027e-08
9.46032e-05
9.18951e-08
9.4621e-05
1.43563e-07
9.46432e-05
1.85883e-07
9.46683e-05
2.1949e-07
9.46955e-05
2.45521e-07
9.4724e-05
2.64978e-07
9.47534e-05
2.788e-07
9.47831e-05
2.87912e-07
9.48129e-05
2.93142e-07
9.48426e-05
2.95176e-07
9.48721e-05
2.94583e-07
9.49013e-05
2.91843e-07
9.493e-05
2.87355e-07
9.49582e-05
2.81446e-07
9.4986e-05
2.74386e-07
9.50132e-05
2.66396e-07
9.50398e-05
2.57658e-07
9.50659e-05
2.48323e-07
9.50915e-05
2.38513e-07
9.51165e-05
2.28328e-07
9.5141e-05
2.1785e-07
9.5165e-05
2.07147e-07
9.51884e-05
1.96273e-07
9.52112e-05
1.85273e-07
9.52336e-05
1.74185e-07
9.52554e-05
1.63039e-07
9.52767e-05
1.51862e-07
9.52975e-05
1.40677e-07
9.53177e-05
1.29505e-07
9.53373e-05
1.18368e-07
9.53564e-05
1.07278e-07
9.62813e-08
9.53749e-05
9.72934e-05
2.8144e-08
9.73043e-05
8.09264e-08
9.73211e-05
1.26822e-07
9.73421e-05
1.64839e-07
9.73663e-05
1.95331e-07
9.73927e-05
2.19139e-07
9.74206e-05
2.3708e-07
9.74494e-05
2.49944e-07
9.74788e-05
2.58512e-07
9.75085e-05
2.63501e-07
9.75381e-05
2.6552e-07
9.75676e-05
2.65081e-07
9.75969e-05
2.62618e-07
9.76257e-05
2.58496e-07
9.76541e-05
2.53017e-07
9.76821e-05
2.46431e-07
9.77095e-05
2.38947e-07
9.77365e-05
2.30736e-07
9.77628e-05
2.21939e-07
9.77887e-05
2.12675e-07
9.7814e-05
2.03039e-07
9.78387e-05
1.93111e-07
9.78629e-05
1.82958e-07
9.78865e-05
1.72633e-07
9.79096e-05
1.62183e-07
9.79322e-05
1.51646e-07
9.79542e-05
1.41055e-07
9.79756e-05
1.30437e-07
9.79964e-05
1.1982e-07
9.80167e-05
1.09226e-07
9.80364e-05
9.86797e-08
9.80555e-05
8.81999e-08
7.78349e-08
9.80739e-05
0.000100073
2.45486e-08
0.000100083
7.06637e-08
0.000100099
1.11011e-07
0.000100119
1.44742e-07
0.000100142
1.72031e-07
0.000100168
1.93489e-07
0.000100195
2.09769e-07
0.000100224
2.21524e-07
0.000100253
2.2941e-07
0.000100282
2.34038e-07
0.000100312
2.3594e-07
0.000100341
2.35569e-07
0.00010037
2.33314e-07
0.000100399
2.29504e-07
0.000100428
2.24413e-07
0.000100456
2.18272e-07
0.000100484
2.11273e-07
0.000100511
2.03575e-07
0.000100538
1.95312e-07
0.000100564
1.86595e-07
0.000100589
1.77514e-07
0.000100614
1.68148e-07
0.000100639
1.5856e-07
0.000100662
1.48804e-07
0.000100686
1.38926e-07
0.000100708
1.28964e-07
0.000100731
1.18953e-07
0.000100752
1.08922e-07
0.000100773
9.88982e-08
0.000100793
8.89071e-08
0.000100813
7.89742e-08
0.000100832
6.91175e-08
5.93824e-08
0.000100851
0.000102931
2.11641e-08
0.000102941
6.09716e-08
0.000102956
9.59704e-08
0.000102975
1.25449e-07
0.000102998
1.49474e-07
0.000103023
1.68479e-07
0.00010305
1.82974e-07
0.000103078
1.93492e-07
0.000103107
2.00573e-07
0.000103136
2.04731e-07
0.000103166
2.06423e-07
0.000103195
2.06042e-07
0.000103224
2.03931e-07
0.000103254
2.00381e-07
0.000103282
1.9564e-07
0.000103311
1.89914e-07
0.000103339
1.8338e-07
0.000103366
1.76184e-07
0.000103393
1.68449e-07
0.000103419
1.60278e-07
0.000103445
1.51759e-07
0.00010347
1.42964e-07
0.000103495
1.33955e-07
0.000103519
1.24785e-07
0.000103542
1.15497e-07
0.000103565
1.06131e-07
0.000103587
9.67219e-08
0.000103609
8.72993e-08
0.00010363
7.78917e-08
0.00010365
6.85249e-08
0.00010367
5.92255e-08
0.000103689
5.0013e-08
4.09324e-08
0.000103708
0.000105872
1.7946e-08
0.000105881
5.17328e-08
0.000105896
8.15523e-08
0.000105914
1.06819e-07
0.000105936
1.27538e-07
0.000105961
1.44007e-07
0.000105987
1.56616e-07
0.000106015
1.65786e-07
0.000106043
1.71956e-07
0.000106073
1.75548e-07
0.000106102
1.76944e-07
0.000106132
1.76483e-07
0.000106161
1.74458e-07
0.00010619
1.71123e-07
0.000106219
1.66695e-07
0.000106248
1.61359e-07
0.000106276
1.55273e-07
0.000106303
1.48569e-07
0.000106331
1.41358e-07
0.000106357
1.33737e-07
0.000106383
1.25786e-07
0.000106408
1.17574e-07
0.000106433
1.09158e-07
0.000106457
1.0059e-07
0.000106481
9.19126e-08
0.000106504
8.31641e-08
0.000106526
7.43784e-08
0.000106548
6.55863e-08
0.000106569
5.68158e-08
0.00010659
4.80931e-08
0.000106609
3.94442e-08
0.000106628
3.08885e-08
2.24679e-08
0.000106647
0.000108896
1.48549e-08
0.000108905
4.28425e-08
0.000108919
6.76191e-08
0.000108937
8.87144e-08
0.000108959
1.06097e-07
0.000108983
1.19964e-07
0.000109009
1.30601e-07
0.000109036
1.38331e-07
0.000109065
1.43498e-07
0.000109094
1.4644e-07
0.000109123
1.4747e-07
0.000109153
1.46866e-07
0.000109183
1.44876e-07
0.000109212
1.41715e-07
0.000109241
1.37571e-07
0.00010927
1.32603e-07
0.000109298
1.26951e-07
0.000109326
1.2073e-07
0.000109353
1.14043e-07
0.00010938
1.06975e-07
0.000109406
9.95995e-08
0.000109432
9.19806e-08
0.000109457
8.41727e-08
0.000109481
7.62233e-08
0.000109505
6.8174e-08
0.000109528
6.00616e-08
0.000109551
5.19192e-08
0.000109572
4.37768e-08
0.000109594
3.56621e-08
0.000109614
2.76005e-08
0.000109634
1.96176e-08
0.000109653
1.17318e-08
3.98272e-09
0.000109671
0.000112007
1.18543e-08
0.000112016
3.42023e-08
0.00011203
5.40378e-08
0.000112047
7.09919e-08
0.000112069
8.50148e-08
0.000112092
9.62277e-08
0.000112118
1.04823e-07
0.000112145
1.11037e-07
0.000112174
1.15127e-07
0.000112203
1.17351e-07
0.000112232
1.17953e-07
0.000112262
1.17155e-07
0.000112292
1.15158e-07
0.000112321
1.12139e-07
0.000112351
1.08252e-07
0.00011238
1.03635e-07
0.000112408
9.84054e-08
0.000112436
9.26642e-08
0.000112464
8.65002e-08
0.000112491
7.99897e-08
0.000112517
7.31989e-08
0.000112543
6.61853e-08
0.000112568
5.89992e-08
0.000112593
5.16848e-08
0.000112617
4.42811e-08
0.00011264
3.68232e-08
0.000112662
2.93425e-08
0.000112684
2.1868e-08
0.000112705
1.44263e-08
0.000112726
7.04198e-09
0.000112746
-2.60606e-10
0.000112765
-7.46318e-09
-1.45282e-08
0.000112784
0.000115207
8.90785e-09
0.000115216
2.57175e-08
0.000115229
4.06769e-08
0.000115247
5.3507e-08
0.000115268
6.41503e-08
0.000115291
7.26654e-08
0.000115317
7.91658e-08
0.000115344
8.38041e-08
0.000115372
8.67574e-08
0.000115402
8.82085e-08
0.000115431
8.8335e-08
0.000115461
8.73034e-08
0.000115491
8.52666e-08
0.000115521
8.23635e-08
0.00011555
7.87179e-08
0.000115579
7.44401e-08
0.000115608
6.96272e-08
0.000115637
6.43648e-08
0.000115664
5.8728e-08
0.000115691
5.27828e-08
0.000115718
4.65872e-08
0.000115744
4.01924e-08
0.000115769
3.36436e-08
0.000115794
2.69812e-08
0.000115818
2.02412e-08
0.000115842
1.3456e-08
0.000115864
6.65544e-09
0.000115886
-1.33508e-10
0.000115908
-6.88567e-09
0.000115928
-1.35781e-08
0.000115948
-2.01882e-08
0.000115967
-2.67004e-08
-3.30809e-08
0.000115986
0.000118499
5.97661e-09
0.000118507
1.72922e-08
0.00011852
2.74021e-08
0.000118538
3.61079e-08
0.000118559
4.33499e-08
0.000118582
4.91327e-08
0.000118608
5.34965e-08
0.000118635
5.65158e-08
0.000118664
5.82901e-08
0.000118693
5.89297e-08
0.000118723
5.85474e-08
0.000118753
5.72539e-08
0.000118783
5.51558e-08
0.000118813
5.23527e-08
0.000118843
4.89368e-08
0.000118872
4.4992e-08
0.000118901
4.05947e-08
0.00011893
3.58133e-08
0.000118958
3.07094e-08
0.000118985
2.53382e-08
0.000119012
1.97491e-08
0.000119038
1.39862e-08
0.000119064
8.08956e-09
0.000119089
2.09496e-09
0.000119113
-3.965e-09
0.000119136
-1.00606e-08
0.000119159
-1.61647e-08
0.000119181
-2.22521e-08
0.000119203
-2.82994e-08
0.000119223
-3.42852e-08
0.000119243
-4.0188e-08
0.000119263
-4.59914e-08
-5.16632e-08
0.000119281
0.000121884
3.02919e-09
0.000121893
8.83653e-09
0.000121906
1.40793e-08
0.000121923
1.86374e-08
0.000121944
2.24508e-08
0.000121968
2.54722e-08
0.000121994
2.76699e-08
0.000122021
2.90418e-08
0.00012205
2.96115e-08
0.00012208
2.94176e-08
0.00012211
2.85086e-08
0.00012214
2.694e-08
0.00012217
2.47716e-08
0.000122201
2.2064e-08
0.000122231
1.88771e-08
0.00012226
1.52687e-08
0.00012229
1.12934e-08
0.000122318
7.00252e-09
0.000122347
2.44362e-09
0.000122374
-2.33942e-09
0.000122401
-7.30625e-09
0.000122428
-1.24199e-08
0.000122454
-1.76463e-08
0.000122479
-2.29543e-08
0.000122503
-2.83153e-08
0.000122527
-3.37028e-08
0.00012255
-3.90923e-08
0.000122572
-4.44611e-08
0.000122593
-4.97882e-08
0.000122614
-5.50544e-08
0.000122634
-6.02413e-08
0.000122653
-6.53371e-08
-7.03146e-08
0.000122672
0.000125366
5.07164e-11
0.000125375
2.65039e-10
0.000125389
5.69345e-10
0.000125406
9.26768e-10
0.000125427
1.27456e-09
0.000125451
1.50872e-09
0.000125478
1.52206e-09
0.000125505
1.23412e-09
0.000125534
5.91146e-10
0.000125564
-4.41009e-10
0.000125595
-1.87892e-09
0.000125625
-3.72274e-09
0.000125656
-5.95964e-09
0.000125687
-8.56786e-09
0.000125717
-1.15198e-08
0.000125747
-1.47842e-08
0.000125777
-1.83278e-08
0.000125806
-2.21169e-08
0.000125834
-2.61179e-08
0.000125862
-3.02986e-08
0.00012589
-3.46277e-08
0.000125916
-3.90759e-08
0.000125942
-4.36152e-08
0.000125968
-4.82196e-08
0.000125992
-5.28645e-08
0.000126016
-5.75269e-08
0.000126039
-6.21853e-08
0.000126061
-6.68196e-08
0.000126083
-7.14107e-08
0.000126104
-7.59409e-08
0.000126124
-8.03921e-08
0.000126143
-8.47498e-08
-8.89865e-08
0.000126162
0.000128948
-3.00483e-09
0.000128957
-8.54727e-09
0.000128971
-1.33112e-08
0.000128989
-1.72376e-08
0.000129011
-2.03991e-08
0.000129035
-2.29704e-08
0.000129062
-2.5144e-08
0.00012909
-2.70838e-08
0.00012912
-2.89243e-08
0.00012915
-3.07756e-08
0.000129181
-3.27212e-08
0.000129212
-3.4818e-08
0.000129243
-3.71007e-08
0.000129274
-3.95867e-08
0.000129305
-4.2281e-08
0.000129335
-4.51787e-08
0.000129365
-4.82681e-08
0.000129395
-5.15329e-08
0.000129423
-5.49538e-08
0.000129452
-5.85097e-08
0.000129479
-6.21791e-08
0.000129506
-6.594e-08
0.000129532
-6.97708e-08
0.000129558
-7.36506e-08
0.000129582
-7.75591e-08
0.000129606
-8.14772e-08
0.00012963
-8.53864e-08
0.000129652
-8.92696e-08
0.000129674
-9.31107e-08
0.000129695
-9.68952e-08
0.000129715
-1.0061e-07
0.000129734
-1.04247e-07
-1.07787e-07
0.000129753
0.000132632
-6.20283e-09
0.000132641
-1.77702e-08
0.000132656
-2.78029e-08
0.000132675
-3.61272e-08
0.000132697
-4.28432e-08
0.000132723
-4.82242e-08
0.00013275
-5.25661e-08
0.000132779
-5.61259e-08
0.000132809
-5.9126e-08
0.00013284
-6.17575e-08
0.000132872
-6.41739e-08
0.000132903
-6.64894e-08
0.000132935
-6.87858e-08
0.000132967
-7.11199e-08
0.000132998
-7.35286e-08
0.000133029
-7.60331e-08
0.000133059
-7.86428e-08
0.000133089
-8.13586e-08
0.000133118
-8.41751e-08
0.000133147
-8.70828e-08
0.000133175
-9.00692e-08
0.000133202
-9.31201e-08
0.000133228
-9.62203e-08
0.000133254
-9.9354e-08
0.000133279
-1.02505e-07
0.000133303
-1.05659e-07
0.000133326
-1.088e-07
0.000133349
-1.11913e-07
0.000133371
-1.14984e-07
0.000133392
-1.17999e-07
0.000133412
-1.20944e-07
0.000133432
-1.23806e-07
-1.26561e-07
0.000133451
0.000136422
-9.62433e-09
0.000136432
-2.76267e-08
0.000136447
-4.32176e-08
0.000136467
-5.60862e-08
0.00013649
-6.63967e-08
0.000136517
-7.45681e-08
0.000136545
-8.10249e-08
0.000136575
-8.61291e-08
0.000136606
-9.02026e-08
0.000136638
-9.35281e-08
0.00013667
-9.63342e-08
0.000136703
-9.87947e-08
0.000136735
-1.01039e-07
0.000136767
-1.03163e-07
0.000136799
-1.05235e-07
0.00013683
-1.07301e-07
0.000136861
-1.09391e-07
0.000136891
-1.11521e-07
0.00013692
-1.137e-07
0.000136949
-1.15929e-07
0.000136977
-1.18205e-07
0.000137005
-1.20519e-07
0.000137031
-1.22864e-07
0.000137057
-1.25229e-07
0.000137082
-1.27601e-07
0.000137107
-1.2997e-07
0.00013713
-1.32324e-07
0.000137153
-1.34651e-07
0.000137175
-1.36941e-07
0.000137196
-1.39184e-07
0.000137216
-1.41372e-07
0.000137236
-1.43504e-07
-1.45565e-07
0.000137255
0.00014032
-1.33811e-08
0.00014033
-3.84259e-08
0.000140347
-5.99747e-08
0.000140369
-7.7556e-08
0.000140394
-9.14803e-08
0.000140421
-1.02396e-07
0.000140451
-1.1089e-07
0.000140483
-1.17441e-07
0.000140515
-1.22484e-07
0.000140548
-1.26403e-07
0.000140581
-1.29505e-07
0.000140614
-1.32023e-07
0.000140647
-1.34137e-07
0.00014068
-1.35979e-07
0.000140713
-1.37649e-07
0.000140744
-1.39219e-07
0.000140776
-1.40736e-07
0.000140806
-1.42233e-07
0.000140837
-1.43731e-07
0.000140866
-1.45241e-07
0.000140894
-1.46768e-07
0.000140922
-1.48311e-07
0.000140949
-1.49868e-07
0.000140975
-1.51433e-07
0.000141001
-1.52999e-07
0.000141025
-1.54556e-07
0.000141049
-1.56096e-07
0.000141072
-1.57611e-07
0.000141094
-1.5909e-07
0.000141116
-1.60523e-07
0.000141136
-1.61898e-07
0.000141156
-1.63204e-07
-1.64422e-07
0.000141175
0.000144329
-1.76365e-08
0.000144341
-5.06192e-08
0.00014436
-7.86634e-08
0.000144383
-1.0112e-07
0.00014441
-1.18604e-07
0.00014444
-1.32119e-07
0.000144472
-1.42458e-07
0.000144505
-1.50244e-07
0.000144538
-1.56052e-07
0.000144572
-1.60384e-07
0.000144606
-1.63629e-07
0.00014464
-1.66077e-07
0.000144674
-1.6795e-07
0.000144707
-1.69421e-07
0.00014474
-1.70614e-07
0.000144773
-1.71622e-07
0.000144805
-1.7251e-07
0.000144836
-1.73325e-07
0.000144866
-1.74099e-07
0.000144896
-1.74851e-07
0.000144925
-1.75595e-07
0.000144953
-1.76336e-07
0.00014498
-1.77076e-07
0.000145006
-1.77815e-07
0.000145032
-1.78548e-07
0.000145056
-1.79272e-07
0.00014508
-1.7998e-07
0.000145103
-1.80667e-07
0.000145126
-1.81327e-07
0.000145147
-1.81956e-07
0.000145168
-1.82552e-07
0.000145188
-1.83117e-07
-1.83642e-07
0.000145207
0.000148453
-2.26468e-08
0.000148467
-6.48886e-08
0.000148489
-1.0011e-07
0.000148515
-1.27572e-07
0.000148545
-1.48537e-07
0.000148577
-1.64517e-07
0.000148612
-1.76506e-07
0.000148647
-1.8528e-07
0.000148682
-1.91599e-07
0.000148718
-1.96106e-07
0.000148753
-1.99277e-07
0.000148789
-2.01461e-07
0.000148824
-2.02927e-07
0.000148858
-2.03879e-07
0.000148892
-2.0447e-07
0.000148925
-2.04808e-07
0.000148958
-2.04975e-07
0.000148989
-2.05027e-07
0.00014902
-2.05005e-07
0.00014905
-2.04937e-07
0.00014908
-2.04841e-07
0.000149108
-2.04728e-07
0.000149136
-2.04605e-07
0.000149162
-2.04473e-07
0.000149188
-2.04335e-07
0.000149213
-2.04186e-07
0.000149237
-2.04024e-07
0.00014926
-2.03845e-07
0.000149283
-2.03643e-07
0.000149304
-2.03411e-07
0.000149325
-2.0314e-07
0.000149344
-2.02818e-07
-2.02435e-07
0.000149363
0.000152695
-2.88636e-08
0.000152713
-8.23921e-08
0.000152738
-1.25504e-07
0.000152768
-1.577e-07
0.000152801
-1.81656e-07
0.000152837
-1.99656e-07
0.000152873
-2.12872e-07
0.00015291
-2.22252e-07
0.000152947
-2.28764e-07
0.000152984
-2.33191e-07
0.000153021
-2.36077e-07
0.000153057
-2.37818e-07
0.000153093
-2.38725e-07
0.000153128
-2.39031e-07
0.000153163
-2.38908e-07
0.000153196
-2.38481e-07
0.000153229
-2.37841e-07
0.000153261
-2.37057e-07
0.000153292
-2.36175e-07
0.000153323
-2.35229e-07
0.000153352
-2.34243e-07
0.000153381
-2.33232e-07
0.000153408
-2.32206e-07
0.000153435
-2.31171e-07
0.000153461
-2.3013e-07
0.000153486
-2.29084e-07
0.00015351
-2.28032e-07
0.000153533
-2.26972e-07
0.000153555
-2.25905e-07
0.000153576
-2.24829e-07
0.000153597
-2.23745e-07
0.000153617
-2.22663e-07
-2.21574e-07
0.000153636
0.00015706
-3.70373e-08
0.000157082
-1.05094e-07
0.000157114
-1.57057e-07
0.00015715
-1.93697e-07
0.000157188
-2.20147e-07
0.000157228
-2.39524e-07
0.000157269
-2.53173e-07
0.000157309
-2.62379e-07
0.000157348
-2.68428e-07
0.000157387
-2.72238e-07
0.000157426
-2.74398e-07
0.000157463
-2.7534e-07
0.0001575
-2.75401e-07
0.000157536
-2.7483e-07
0.000157571
-2.73807e-07
0.000157605
-2.72461e-07
0.000157638
-2.70889e-07
0.00015767
-2.69161e-07
0.000157701
-2.67327e-07
0.000157731
-2.65424e-07
0.00015776
-2.63477e-07
0.000157789
-2.61506e-07
0.000157816
-2.59521e-07
0.000157842
-2.57532e-07
0.000157868
-2.55542e-07
0.000157892
-2.53555e-07
0.000157916
-2.51571e-07
0.000157938
-2.49589e-07
0.00015796
-2.47606e-07
0.000157981
-2.4562e-07
0.000158001
-2.43625e-07
0.00015802
-2.41609e-07
-2.39573e-07
0.000158038
0.00016155
-4.90113e-08
0.000161581
-1.3563e-07
0.000161619
-1.95194e-07
0.00016166
-2.34428e-07
0.000161702
-2.62607e-07
0.000161746
-2.82831e-07
0.000161789
-2.96252e-07
0.000161831
-3.04648e-07
0.000161872
-3.09695e-07
0.000161912
-3.12424e-07
0.000161951
-3.13453e-07
0.000161989
-3.13244e-07
0.000162026
-3.12163e-07
0.000162062
-3.10468e-07
0.000162096
-3.08341e-07
0.00016213
-3.05911e-07
0.000162162
-3.03272e-07
0.000162193
-3.00494e-07
0.000162224
-2.97625e-07
0.000162253
-2.94701e-07
0.000162281
-2.91747e-07
0.000162309
-2.8878e-07
0.000162335
-2.85812e-07
0.00016236
-2.82851e-07
0.000162385
-2.79903e-07
0.000162408
-2.76971e-07
0.00016243
-2.74056e-07
0.000162452
-2.71159e-07
0.000162473
-2.6828e-07
0.000162492
-2.65423e-07
0.000162511
-2.62589e-07
0.00016253
-2.5979e-07
-2.57023e-07
0.000162547
0.000166174
-6.96575e-08
0.000166223
-1.84582e-07
0.000166276
-2.47757e-07
0.000166326
-2.84594e-07
0.000166374
-3.11054e-07
0.000166421
-3.29281e-07
0.000166465
-3.40214e-07
0.000166506
-3.46207e-07
0.000166546
-3.49155e-07
0.000166583
-3.5002e-07
0.000166619
-3.49352e-07
0.000166654
-3.47589e-07
0.000166687
-3.45073e-07
0.000166718
-3.4204e-07
0.000166748
-3.38649e-07
0.000166778
-3.35016e-07
0.000166805
-3.31222e-07
0.000166832
-3.27329e-07
0.000166858
-3.23379e-07
0.000166883
-3.19402e-07
0.000166906
-3.15421e-07
0.000166929