/*--------------------------------*- C++ -*----------------------------------*\
| =========                 |                                                 |
| \\      /  F ield         | OpenFOAM: The Open Source CFD Toolbox           |
|  \\    /   O peration     | Version:  4.1                                   |
|   \\  /    A nd           | Web:      www.OpenFOAM.org                      |
|    \\/     M anipulation  |                                                 |
\*---------------------------------------------------------------------------*/
FoamFile
{
    version     2.0;
    format      ascii;
    class       volSymmTensorField;
    location    "700";
    object      R;
}
// * * * * * * * * * * * * * * * * * * * * * * * * * * * * * * * * * * * * * //

dimensions      [0 2 -2 0 0 0 0];

internalField   nonuniform List<symmTensor> 
6820
(
(0.205732 -0.0655181 0 0.119059 0 0.158783)
(0.282327 -0.0957377 0 0.109535 0 0.187468)
(0.351932 -0.111301 0 0.106212 0 0.215544)
(0.414145 -0.120959 0 0.107184 0 0.242572)
(0.468925 -0.12821 0 0.110858 0 0.268123)
(0.516415 -0.134402 0 0.116011 0 0.291794)
(0.556894 -0.139947 0 0.121756 0 0.313246)
(0.590785 -0.144894 0 0.127486 0 0.332258)
(0.618629 -0.149196 0 0.132821 0 0.348735)
(0.641034 -0.152808 0 0.137552 0 0.362694)
(0.658635 -0.155725 0 0.141583 0 0.374247)
(0.672059 -0.157977 0 0.144898 0 0.383564)
(0.681902 -0.15962 0 0.147528 0 0.390858)
(0.688718 -0.160724 0 0.149532 0 0.396359)
(0.693004 -0.161361 0 0.15098 0 0.400299)
(0.6952 -0.161606 0 0.151946 0 0.402903)
(0.695689 -0.161526 0 0.152503 0 0.404379)
(0.694802 -0.161183 0 0.152719 0 0.404915)
(0.69282 -0.160628 0 0.152653 0 0.40468)
(0.689981 -0.159909 0 0.152358 0 0.403819)
(0.686482 -0.159064 0 0.151882 0 0.402459)
(0.68249 -0.158127 0 0.151263 0 0.400708)
(0.678141 -0.157124 0 0.150535 0 0.398658)
(0.673547 -0.156078 0 0.149726 0 0.396385)
(0.668801 -0.155008 0 0.148859 0 0.393952)
(0.663977 -0.153928 0 0.147953 0 0.391414)
(0.659136 -0.152851 0 0.147025 0 0.388813)
(0.654325 -0.151786 0 0.146088 0 0.386184)
(0.649581 -0.150742 0 0.145151 0 0.383557)
(0.644939 -0.149722 0 0.144224 0 0.380956)
(0.640412 -0.14874 0 0.143313 0 0.378395)
(0.636101 -0.147811 0 0.142458 0 0.375926)
(0.633169 -0.147808 0 0.142581 0 0.373999)
(0.141614 -0.00846611 0 0.126763 0 0.13657)
(0.150539 -0.0154135 0 0.119378 0 0.139441)
(0.159409 -0.0210922 0 0.112607 0 0.141974)
(0.168024 -0.0259312 0 0.106663 0 0.144249)
(0.176201 -0.0301002 0 0.101596 0 0.146285)
(0.183857 -0.0337139 0 0.097394 0 0.148111)
(0.190973 -0.0368714 0 0.0939941 0 0.149758)
(0.197552 -0.0396512 0 0.0913087 0 0.151252)
(0.20361 -0.0421152 0 0.0892405 0 0.152615)
(0.20918 -0.0443158 0 0.0876945 0 0.153866)
(0.214304 -0.046299 0 0.0865824 0 0.155023)
(0.219029 -0.0481054 0 0.0858255 0 0.156102)
(0.223409 -0.0497698 0 0.0853556 0 0.15712)
(0.227493 -0.0513218 0 0.0851152 0 0.158091)
(0.231331 -0.0527855 0 0.085057 0 0.159027)
(0.234967 -0.0541805 0 0.0851426 0 0.159941)
(0.238442 -0.0555222 0 0.0853413 0 0.160843)
(0.241791 -0.0568225 0 0.0856289 0 0.161742)
(0.245044 -0.0580903 0 0.0859862 0 0.162645)
(0.248224 -0.0593321 0 0.0863983 0 0.163558)
(0.251352 -0.0605526 0 0.0868535 0 0.164485)
(0.254444 -0.0617556 0 0.0873428 0 0.16543)
(0.257514 -0.0629432 0 0.0878591 0 0.166397)
(0.260571 -0.0641169 0 0.0883969 0 0.167386)
(0.26362 -0.0652773 0 0.0889517 0 0.168399)
(0.266666 -0.0664243 0 0.0895197 0 0.169435)
(0.26971 -0.0675579 0 0.0900979 0 0.170493)
(0.272753 -0.0686772 0 0.0906837 0 0.171573)
(0.275793 -0.0697821 0 0.0912749 0 0.172672)
(0.278828 -0.0708703 0 0.0918689 0 0.17379)
(0.281858 -0.0719459 0 0.0924667 0 0.174923)
(0.284876 -0.0729955 0 0.0930613 0 0.176071)
(0.288434 -0.0742638 0 0.0939469 0 0.177432)
(0.135647 -0.00198165 0 0.129365 0 0.13447)
(0.138143 -0.00333273 0 0.124875 0 0.135413)
(0.140543 -0.00436743 0 0.120286 0 0.136113)
(0.142758 -0.00525002 0 0.115857 0 0.136577)
(0.144727 -0.00600338 0 0.111694 0 0.136818)
(0.146449 -0.00665866 0 0.107826 0 0.136871)
(0.147943 -0.00725513 0 0.104253 0 0.136769)
(0.149225 -0.00782147 0 0.100966 0 0.136541)
(0.150314 -0.00837534 0 0.0979486 0 0.136207)
(0.151228 -0.00892806 0 0.0951834 0 0.135788)
(0.151988 -0.0094872 0 0.0926519 0 0.135301)
(0.152613 -0.0100574 0 0.0903353 0 0.134761)
(0.153125 -0.0106413 0 0.0882153 0 0.134182)
(0.15354 -0.0112398 0 0.0862747 0 0.133575)
(0.153876 -0.0118528 0 0.0844974 0 0.13295)
(0.15415 -0.0124796 0 0.0828684 0 0.132316)
(0.154376 -0.0131192 0 0.0813745 0 0.131681)
(0.154569 -0.0137699 0 0.0800035 0 0.131051)
(0.15474 -0.0144303 0 0.0787445 0 0.130433)
(0.154899 -0.0150986 0 0.0775877 0 0.12983)
(0.155056 -0.0157729 0 0.0765245 0 0.129248)
(0.155217 -0.0164512 0 0.0755464 0 0.128688)
(0.155385 -0.0171312 0 0.0746462 0 0.128151)
(0.155566 -0.0178112 0 0.0738173 0 0.127639)
(0.155762 -0.0184894 0 0.0730537 0 0.127153)
(0.155976 -0.0191644 0 0.0723504 0 0.126693)
(0.156211 -0.0198347 0 0.0717027 0 0.126261)
(0.156467 -0.0204992 0 0.0711063 0 0.125855)
(0.156747 -0.0211568 0 0.0705575 0 0.125477)
(0.157049 -0.0218066 0 0.0700531 0 0.125126)
(0.157374 -0.022447 0 0.0695886 0 0.124801)
(0.157728 -0.0230814 0 0.0691675 0 0.124505)
(0.158149 -0.0237211 0 0.068804 0 0.124247)
(0.134186 -0.000783012 0 0.130263 0 0.133857)
(0.135191 -0.00139797 0 0.126844 0 0.134317)
(0.136192 -0.00188094 0 0.123377 0 0.134657)
(0.13712 -0.00231652 0 0.120006 0 0.134859)
(0.137922 -0.00270631 0 0.116774 0 0.134922)
(0.138592 -0.0030531 0 0.11369 0 0.13486)
(0.139141 -0.00336936 0 0.110759 0 0.134693)
(0.139579 -0.00366508 0 0.107987 0 0.134437)
(0.139912 -0.00394647 0 0.105372 0 0.134105)
(0.14015 -0.00421839 0 0.10291 0 0.133709)
(0.140302 -0.00448512 0 0.100594 0 0.13326)
(0.140379 -0.00475018 0 0.0984175 0 0.132768)
(0.140389 -0.00501618 0 0.0963716 0 0.13224)
(0.140342 -0.00528505 0 0.0944483 0 0.131685)
(0.140246 -0.00555815 0 0.0926394 0 0.131109)
(0.140108 -0.00583641 0 0.0909372 0 0.130517)
(0.139935 -0.00612036 0 0.0893342 0 0.129914)
(0.139734 -0.00641029 0 0.0878235 0 0.129304)
(0.139512 -0.00670621 0 0.0863988 0 0.128692)
(0.139273 -0.00700801 0 0.0850542 0 0.128081)
(0.139023 -0.00731538 0 0.0837842 0 0.127474)
(0.138765 -0.00762777 0 0.082584 0 0.126872)
(0.138502 -0.00794457 0 0.0814488 0 0.126278)
(0.138238 -0.00826508 0 0.0803744 0 0.125693)
(0.137975 -0.00858864 0 0.0793568 0 0.125119)
(0.137715 -0.00891457 0 0.0783924 0 0.124557)
(0.13746 -0.00924221 0 0.077478 0 0.124006)
(0.137211 -0.00957089 0 0.0766104 0 0.123469)
(0.136969 -0.00990005 0 0.0757868 0 0.122945)
(0.136736 -0.010229 0 0.0750047 0 0.122435)
(0.136512 -0.0105574 0 0.0742616 0 0.121938)
(0.136298 -0.0108852 0 0.0735554 0 0.121456)
(0.136093 -0.0112157 0 0.07289 0 0.120985)
(0.133619 -0.000369895 0 0.1308 0 0.133544)
(0.133991 -0.00066344 0 0.128074 0 0.133735)
(0.134406 -0.00089273 0 0.12533 0 0.133878)
(0.134816 -0.00111606 0 0.122627 0 0.133954)
(0.135172 -0.0013308 0 0.119998 0 0.133949)
(0.135457 -0.00152941 0 0.117456 0 0.133864)
(0.135676 -0.00171502 0 0.115009 0 0.133709)
(0.135831 -0.00189194 0 0.112665 0 0.133493)
(0.135924 -0.00206239 0 0.110424 0 0.133222)
(0.135958 -0.00222797 0 0.108285 0 0.132904)
(0.135941 -0.00239028 0 0.106247 0 0.132546)
(0.135875 -0.00255077 0 0.104304 0 0.132153)
(0.135768 -0.00271055 0 0.102455 0 0.131733)
(0.135623 -0.00287047 0 0.100693 0 0.131289)
(0.135444 -0.00303116 0 0.0990167 0 0.130826)
(0.135238 -0.00319313 0 0.0974204 0 0.130347)
(0.135006 -0.0033567 0 0.0959003 0 0.129857)
(0.134754 -0.00352213 0 0.0944526 0 0.129359)
(0.134485 -0.00368953 0 0.0930734 0 0.128854)
(0.134201 -0.00385897 0 0.0917591 0 0.128346)
(0.133907 -0.00403044 0 0.0905061 0 0.127836)
(0.133603 -0.00420383 0 0.0893113 0 0.127327)
(0.133294 -0.004379 0 0.0881715 0 0.12682)
(0.13298 -0.00455572 0 0.0870838 0 0.126316)
(0.132663 -0.00473377 0 0.0860454 0 0.125817)
(0.132345 -0.00491289 0 0.0850537 0 0.125324)
(0.132027 -0.0050928 0 0.0841062 0 0.124836)
(0.131711 -0.00527324 0 0.0832007 0 0.124356)
(0.131397 -0.00545391 0 0.0823349 0 0.123883)
(0.131085 -0.00563455 0 0.0815068 0 0.123418)
(0.130778 -0.00581493 0 0.0807145 0 0.122962)
(0.130473 -0.00599516 0 0.0799562 0 0.122513)
(0.130167 -0.00617718 0 0.0792287 0 0.122066)
(0.133352 -0.000209946 0 0.131145 0 0.133354)
(0.133395 -0.000362814 0 0.128832 0 0.133363)
(0.133482 -0.000470624 0 0.126514 0 0.13336)
(0.133597 -0.000577737 0 0.124222 0 0.133333)
(0.1337 -0.000685302 0 0.121981 0 0.133264)
(0.133774 -0.00078667 0 0.119804 0 0.133149)
(0.133814 -0.000883009 0 0.117695 0 0.132989)
(0.133819 -0.000976816 0 0.115661 0 0.132788)
(0.133788 -0.00106883 0 0.113702 0 0.132549)
(0.133721 -0.00115931 0 0.11182 0 0.132277)
(0.133622 -0.00124873 0 0.110014 0 0.131975)
(0.133493 -0.00133767 0 0.108282 0 0.131648)
(0.133336 -0.0014266 0 0.106622 0 0.131298)
(0.133154 -0.00151591 0 0.105032 0 0.130931)
(0.13295 -0.00160589 0 0.10351 0 0.130548)
(0.132727 -0.00169678 0 0.102052 0 0.130152)
(0.132487 -0.00178878 0 0.100655 0 0.129746)
(0.132232 -0.00188199 0 0.0993185 0 0.129332)
(0.131964 -0.00197648 0 0.098038 0 0.128912)
(0.131686 -0.00207228 0 0.0968113 0 0.128487)
(0.131399 -0.00216937 0 0.0956359 0 0.12806)
(0.131105 -0.00226769 0 0.0945094 0 0.127632)
(0.130806 -0.00236717 0 0.0934294 0 0.127204)
(0.130503 -0.00246769 0 0.0923938 0 0.126777)
(0.130196 -0.00256911 0 0.0914003 0 0.126352)
(0.129888 -0.00267129 0 0.0904471 0 0.12593)
(0.129579 -0.00277404 0 0.0895323 0 0.125512)
(0.12927 -0.00287719 0 0.0886541 0 0.125098)
(0.128962 -0.00298056 0 0.0878109 0 0.124688)
(0.128655 -0.00308396 0 0.0870009 0 0.124284)
(0.128349 -0.00318722 0 0.0862229 0 0.123884)
(0.128045 -0.00329035 0 0.0854748 0 0.12349)
(0.127737 -0.00339428 0 0.0847507 0 0.123095)
(0.133205 -0.000140256 0 0.131382 0 0.133226)
(0.133061 -0.000232537 0 0.129345 0 0.133103)
(0.132946 -0.000282301 0 0.127332 0 0.132983)
(0.132865 -0.000325306 0 0.12535 0 0.13286)
(0.132794 -0.000369131 0 0.12341 0 0.132722)
(0.132719 -0.000411035 0 0.121516 0 0.132563)
(0.132633 -0.000451803 0 0.119673 0 0.132379)
(0.132532 -0.000493031 0 0.117884 0 0.132171)
(0.132415 -0.000534952 0 0.116153 0 0.13194)
(0.132278 -0.000577378 0 0.11448 0 0.131686)
(0.132123 -0.000620359 0 0.112867 0 0.131413)
(0.131951 -0.00066407 0 0.111311 0 0.131121)
(0.131761 -0.000708654 0 0.109813 0 0.130814)
(0.131557 -0.000754211 0 0.10837 0 0.130494)
(0.131338 -0.000800821 0 0.106982 0 0.130162)
(0.131106 -0.000848543 0 0.105647 0 0.12982)
(0.130864 -0.000897411 0 0.104362 0 0.12947)
(0.130611 -0.000947431 0 0.103127 0 0.129114)
(0.13035 -0.000998589 0 0.101938 0 0.128752)
(0.130082 -0.00105085 0 0.100795 0 0.128388)
(0.129808 -0.00110417 0 0.0996956 0 0.12802)
(0.12953 -0.00115847 0 0.0986378 0 0.127651)
(0.129247 -0.00121368 0 0.0976201 0 0.127282)
(0.128961 -0.00126969 0 0.0966409 0 0.126913)
(0.128673 -0.00132642 0 0.0956985 0 0.126546)
(0.128384 -0.00138373 0 0.0947914 0 0.12618)
(0.128094 -0.0014415 0 0.0939182 0 0.125816)
(0.127804 -0.00149959 0 0.0930775 0 0.125455)
(0.127515 -0.00155786 0 0.0922679 0 0.125098)
(0.127226 -0.00161614 0 0.0914883 0 0.124744)
(0.126939 -0.00167427 0 0.0907373 0 0.124394)
(0.126652 -0.00173216 0 0.090013 0 0.124047)
(0.126361 -0.00179015 0 0.089308 0 0.123698)
(0.133111 -0.000104768 0 0.131554 0 0.133134)
(0.132855 -0.00017196 0 0.12971 0 0.132914)
(0.132611 -0.000199606 0 0.12791 0 0.1327)
(0.132395 -0.000214159 0 0.126145 0 0.132493)
(0.132198 -0.000225691 0 0.124419 0 0.132287)
(0.132008 -0.000234577 0 0.122733 0 0.132075)
(0.131822 -0.000242254 0 0.121088 0 0.131854)
(0.131636 -0.000250584 0 0.119488 0 0.131623)
(0.131447 -0.000260203 0 0.117934 0 0.13138)
(0.13125 -0.000271124 0 0.116428 0 0.131125)
(0.131046 -0.000283379 0 0.114969 0 0.130858)
(0.130835 -0.000297029 0 0.113558 0 0.130581)
(0.130615 -0.000312091 0 0.112195 0 0.130294)
(0.130387 -0.000328548 0 0.110878 0 0.129998)
(0.130152 -0.000346372 0 0.109607 0 0.129695)
(0.12991 -0.000365532 0 0.10838 0 0.129385)
(0.129662 -0.000385988 0 0.107196 0 0.12907)
(0.129408 -0.000407692 0 0.106055 0 0.128751)
(0.12915 -0.000430585 0 0.104954 0 0.128428)
(0.128887 -0.000454603 0 0.103892 0 0.128103)
(0.128622 -0.00047967 0 0.102868 0 0.127776)
(0.128353 -0.000505708 0 0.10188 0 0.127449)
(0.128083 -0.000532627 0 0.100928 0 0.127121)
(0.127811 -0.000560334 0 0.100009 0 0.126794)
(0.127538 -0.000588726 0 0.0991226 0 0.126468)
(0.127265 -0.000617694 0 0.0982676 0 0.126143)
(0.126992 -0.000647123 0 0.0974428 0 0.12582)
(0.126719 -0.000676886 0 0.0966469 0 0.1255)
(0.126448 -0.000706845 0 0.0958788 0 0.125182)
(0.126177 -0.000736852 0 0.0951375 0 0.124868)
(0.125907 -0.000766732 0 0.094422 0 0.124556)
(0.125639 -0.000796347 0 0.09373 0 0.124247)
(0.125366 -0.000825783 0 0.0930537 0 0.123936)
(0.133044 -8.35381e-05 0 0.131686 0 0.133064)
(0.132713 -0.000139546 0 0.129983 0 0.132771)
(0.132385 -0.00016094 0 0.128336 0 0.132484)
(0.132077 -0.000165389 0 0.126731 0 0.132208)
(0.131788 -0.000162605 0 0.125168 0 0.131939)
(0.131512 -0.000154887 0 0.123645 0 0.131674)
(0.131246 -0.000144436 0 0.12216 0 0.13141)
(0.130988 -0.000133565 0 0.120715 0 0.131145)
(0.130735 -0.000123438 0 0.119308 0 0.130878)
(0.130484 -0.000114454 0 0.117942 0 0.130607)
(0.130234 -0.000106832 0 0.116616 0 0.130332)
(0.129983 -0.000100728 0 0.11533 0 0.130053)
(0.129732 -9.62063e-05 0 0.114083 0 0.12977)
(0.129478 -9.32653e-05 0 0.112876 0 0.129482)
(0.129223 -9.1874e-05 0 0.111708 0 0.129192)
(0.128966 -9.19843e-05 0 0.110577 0 0.128898)
(0.128707 -9.35342e-05 0 0.109484 0 0.128601)
(0.128447 -9.645e-05 0 0.108426 0 0.128303)
(0.128185 -0.000100651 0 0.107403 0 0.128004)
(0.127922 -0.000106049 0 0.106415 0 0.127704)
(0.127658 -0.000112552 0 0.105459 0 0.127403)
(0.127394 -0.000120066 0 0.104535 0 0.127102)
(0.12713 -0.00012849 0 0.103642 0 0.126803)
(0.126866 -0.000137723 0 0.102778 0 0.126504)
(0.126602 -0.000147656 0 0.101944 0 0.126206)
(0.126339 -0.000158181 0 0.101137 0 0.125911)
(0.126077 -0.00016918 0 0.100357 0 0.125617)
(0.125817 -0.00018053 0 0.0996035 0 0.125326)
(0.125558 -0.000192097 0 0.0988747 0 0.125038)
(0.1253 -0.000203734 0 0.09817 0 0.124752)
(0.125045 -0.00021527 0 0.0974884 0 0.124469)
(0.12479 -0.00022654 0 0.096828 0 0.124189)
(0.124533 -0.000237411 0 0.0961803 0 0.123906)
(0.132993 -6.90293e-05 0 0.131791 0 0.133009)
(0.132608 -0.000118693 0 0.130196 0 0.132659)
(0.132222 -0.00013968 0 0.128662 0 0.132315)
(0.13185 -0.000142977 0 0.127177 0 0.131982)
(0.131495 -0.000136649 0 0.125735 0 0.13166)
(0.131153 -0.000123585 0 0.124334 0 0.131346)
(0.130824 -0.00010612 0 0.12297 0 0.131039)
(0.130506 -8.66311e-05 0 0.121643 0 0.130738)
(0.130198 -6.66071e-05 0 0.120352 0 0.13044)
(0.129899 -4.68086e-05 0 0.119098 0 0.130145)
(0.129605 -2.77235e-05 0 0.117878 0 0.129852)
(0.129317 -9.69817e-06 0 0.116694 0 0.12956)
(0.129032 7.06054e-06 0 0.115545 0 0.129268)
(0.128751 2.24514e-05 0 0.11443 0 0.128977)
(0.128472 3.6436e-05 0 0.113349 0 0.128686)
(0.128196 4.90158e-05 0 0.112301 0 0.128396)
(0.127922 6.02215e-05 0 0.111286 0 0.128106)
(0.127649 7.0105e-05 0 0.110302 0 0.127817)
(0.127378 7.87325e-05 0 0.109349 0 0.127528)
(0.127109 8.61805e-05 0 0.108426 0 0.127241)
(0.126841 9.25327e-05 0 0.107533 0 0.126954)
(0.126575 9.78781e-05 0 0.106668 0 0.12667)
(0.126311 0.00010231 0 0.10583 0 0.126387)
(0.126049 0.000105927 0 0.105019 0 0.126106)
(0.125789 0.000108829 0 0.104234 0 0.125827)
(0.125531 0.000111121 0 0.103474 0 0.125551)
(0.125275 0.000112915 0 0.102738 0 0.125277)
(0.125021 0.000114328 0 0.102026 0 0.125006)
(0.12477 0.000115485 0 0.101336 0 0.124738)
(0.124521 0.000116524 0 0.100668 0 0.124472)
(0.124275 0.000117603 0 0.100021 0 0.12421)
(0.12403 0.00011889 0 0.099393 0 0.12395)
(0.123784 0.000120641 0 0.0987756 0 0.123689)
(0.132951 -5.82049e-05 0 0.131876 0 0.132965)
(0.132525 -0.000103078 0 0.130367 0 0.132569)
(0.132097 -0.000124984 0 0.128922 0 0.13218)
(0.131679 -0.000130302 0 0.127527 0 0.131802)
(0.131275 -0.000125147 0 0.126178 0 0.131436)
(0.130884 -0.000112274 0 0.12487 0 0.13108)
(0.130507 -9.38142e-05 0 0.123601 0 0.130734)
(0.130142 -7.19661e-05 0 0.122368 0 0.130397)
(0.129789 -4.83272e-05 0 0.121171 0 0.130068)
(0.129447 -2.38765e-05 0 0.120007 0 0.129746)
(0.129115 7.08738e-07 0 0.118877 0 0.129429)
(0.128791 2.49255e-05 0 0.117778 0 0.129118)
(0.128475 4.84301e-05 0 0.116712 0 0.128811)
(0.128166 7.10058e-05 0 0.115677 0 0.128508)
(0.127862 9.25203e-05 0 0.114672 0 0.128209)
(0.127564 0.000112901 0 0.113696 0 0.127913)
(0.127271 0.000132118 0 0.11275 0 0.12762)
(0.126983 0.000150178 0 0.111832 0 0.12733)
(0.126699 0.000167109 0 0.110941 0 0.127044)
(0.126419 0.000182958 0 0.110078 0 0.12676)
(0.126143 0.000197786 0 0.109241 0 0.126479)
(0.125871 0.000211664 0 0.108429 0 0.126201)
(0.125602 0.00022467 0 0.107641 0 0.125927)
(0.125336 0.000236889 0 0.106878 0 0.125655)
(0.125075 0.000248412 0 0.106138 0 0.125386)
(0.124816 0.000259333 0 0.105421 0 0.125121)
(0.124561 0.000269755 0 0.104726 0 0.124859)
(0.124309 0.000279784 0 0.104051 0 0.1246)
(0.124061 0.000289535 0 0.103398 0 0.124345)
(0.123816 0.000299131 0 0.102764 0 0.124093)
(0.123574 0.000308712 0 0.102149 0 0.123844)
(0.123335 0.000318438 0 0.101552 0 0.123598)
(0.123094 0.000328635 0 0.100963 0 0.123351)
(0.132917 -4.96889e-05 0 0.131946 0 0.132928)
(0.132457 -9.02743e-05 0 0.130509 0 0.132494)
(0.131996 -0.000112766 0 0.129133 0 0.132068)
(0.131544 -0.000120597 0 0.12781 0 0.131654)
(0.131103 -0.000118191 0 0.126533 0 0.131252)
(0.130676 -0.000107931 0 0.125298 0 0.130861)
(0.130261 -9.16273e-05 0 0.124103 0 0.130482)
(0.129859 -7.11566e-05 0 0.122943 0 0.130113)
(0.12947 -4.80123e-05 0 0.121818 0 0.129755)
(0.129093 -2.32073e-05 0 0.120726 0 0.129405)
(0.128728 2.52e-06 0 0.119666 0 0.129065)
(0.128373 2.85962e-05 0 0.118636 0 0.128732)
(0.128028 5.45964e-05 0 0.117636 0 0.128406)
(0.127691 8.02202e-05 0 0.116666 0 0.128087)
(0.127364 0.000105259 0 0.115723 0 0.127774)
(0.127044 0.000129572 0 0.114808 0 0.127467)
(0.126731 0.00015307 0 0.11392 0 0.127165)
(0.126425 0.000175706 0 0.113058 0 0.126868)
(0.126126 0.000197465 0 0.112221 0 0.126577)
(0.125832 0.000218355 0 0.111409 0 0.12629)
(0.125544 0.000238403 0 0.11062 0 0.126008)
(0.125262 0.000257651 0 0.109855 0 0.12573)
(0.124985 0.000276153 0 0.109113 0 0.125456)
(0.124712 0.000293971 0 0.108392 0 0.125187)
(0.124445 0.000311174 0 0.107693 0 0.124922)
(0.124182 0.000327841 0 0.107015 0 0.124661)
(0.123924 0.000344055 0 0.106356 0 0.124404)
(0.12367 0.000359904 0 0.105717 0 0.124151)
(0.123421 0.000375484 0 0.105097 0 0.123903)
(0.123175 0.000390899 0 0.104496 0 0.123658)
(0.122934 0.000406264 0 0.103911 0 0.123417)
(0.122697 0.000421723 0 0.103343 0 0.123179)
(0.122459 0.000437651 0 0.102781 0 0.122941)
(0.132888 -4.27627e-05 0 0.132006 0 0.132898)
(0.1324 -7.93104e-05 0 0.130628 0 0.132432)
(0.131913 -0.000101679 0 0.12931 0 0.131975)
(0.131433 -0.000111509 0 0.128045 0 0.131531)
(0.130964 -0.000111891 0 0.126825 0 0.131099)
(0.130508 -0.000104781 0 0.125649 0 0.13068)
(0.130065 -9.16601e-05 0 0.124511 0 0.130272)
(0.129634 -7.40576e-05 0 0.123409 0 0.129876)
(0.129216 -5.32781e-05 0 0.122342 0 0.129492)
(0.128811 -3.02754e-05 0 0.121308 0 0.129118)
(0.128418 -5.77357e-06 0 0.120304 0 0.128754)
(0.128037 1.96466e-05 0 0.119331 0 0.1284)
(0.127667 4.55322e-05 0 0.118386 0 0.128055)
(0.127307 7.15427e-05 0 0.117469 0 0.127718)
(0.126957 9.7425e-05 0 0.116579 0 0.12739)
(0.126616 0.000122993 0 0.115715 0 0.127069)
(0.126284 0.000148113 0 0.114877 0 0.126755)
(0.125961 0.000172698 0 0.114062 0 0.126448)
(0.125645 0.000196691 0 0.113271 0 0.126147)
(0.125337 0.000220067 0 0.112504 0 0.125853)
(0.125036 0.000242819 0 0.111758 0 0.125564)
(0.124742 0.000264961 0 0.111034 0 0.125282)
(0.124454 0.000286519 0 0.110331 0 0.125005)
(0.124173 0.000307531 0 0.109649 0 0.124733)
(0.123897 0.000328045 0 0.108986 0 0.124467)
(0.123627 0.000348118 0 0.108343 0 0.124205)
(0.123363 0.000367812 0 0.107718 0 0.123949)
(0.123104 0.000387197 0 0.107111 0 0.123697)
(0.122851 0.000406348 0 0.106521 0 0.12345)
(0.122602 0.000425345 0 0.105948 0 0.123208)
(0.122359 0.000444277 0 0.105392 0 0.12297)
(0.12212 0.000463268 0 0.10485 0 0.122735)
(0.121881 0.000482697 0 0.104314 0 0.122501)
(0.132863 -3.6998e-05 0 0.132057 0 0.132872)
(0.132351 -6.97369e-05 0 0.13073 0 0.132378)
(0.131841 -9.13463e-05 0 0.129461 0 0.131896)
(0.131339 -0.000102418 0 0.128243 0 0.131427)
(0.130848 -0.000105052 0 0.127071 0 0.13097)
(0.130369 -0.000100804 0 0.125942 0 0.130527)
(0.129903 -9.08805e-05 0 0.124851 0 0.130095)
(0.12945 -7.65133e-05 0 0.123796 0 0.129677)
(0.129009 -5.88056e-05 0 0.122775 0 0.12927)
(0.128581 -3.86095e-05 0 0.121787 0 0.128874)
(0.128166 -1.65893e-05 0 0.120829 0 0.12849)
(0.127763 6.71316e-06 0 0.1199 0 0.128117)
(0.127372 3.08619e-05 0 0.119 0 0.127753)
(0.126991 5.55161e-05 0 0.118126 0 0.127399)
(0.126622 8.04123e-05 0 0.117279 0 0.127055)
(0.126263 0.000105347 0 0.116456 0 0.126719)
(0.125913 0.000130167 0 0.115658 0 0.126392)
(0.125573 0.00015476 0 0.114883 0 0.126073)
(0.125242 0.000179046 0 0.11413 0 0.125761)
(0.124919 0.000202975 0 0.113399 0 0.125457)
(0.124605 0.000226517 0 0.11269 0 0.12516)
(0.124299 0.00024966 0 0.112001 0 0.12487)
(0.124 0.00027241 0 0.111331 0 0.124586)
(0.123708 0.000294783 0 0.110681 0 0.124308)
(0.123423 0.000316806 0 0.11005 0 0.124037)
(0.123145 0.000338514 0 0.109436 0 0.123772)
(0.122873 0.000359951 0 0.10884 0 0.123512)
(0.122607 0.000381164 0 0.108261 0 0.123258)
(0.122348 0.000402206 0 0.107698 0 0.123009)
(0.122094 0.000423135 0 0.107151 0 0.122765)
(0.121846 0.000444017 0 0.10662 0 0.122527)
(0.121603 0.000464955 0 0.106101 0 0.122293)
(0.121361 0.000486339 0 0.105588 0 0.122059)
(0.132842 -3.21121e-05 0 0.132101 0 0.132849)
(0.132309 -6.12905e-05 0 0.130818 0 0.132333)
(0.13178 -8.16872e-05 0 0.129591 0 0.131828)
(0.131259 -9.33076e-05 0 0.128413 0 0.131337)
(0.130749 -9.75378e-05 0 0.127281 0 0.13086)
(0.130252 -9.55876e-05 0 0.126191 0 0.130396)
(0.129767 -8.84341e-05 0 0.125139 0 0.129944)
(0.129295 -7.70663e-05 0 0.124123 0 0.129506)
(0.128836 -6.24006e-05 0 0.12314 0 0.12908)
(0.12839 -4.51766e-05 0 0.122189 0 0.128667)
(0.127957 -2.5984e-05 0 0.121269 0 0.128265)
(0.127536 -5.30993e-06 0 0.120377 0 0.127874)
(0.127127 1.64452e-05 0 0.119513 0 0.127494)
(0.12673 3.89601e-05 0 0.118675 0 0.127125)
(0.126344 6.19793e-05 0 0.117862 0 0.126766)
(0.125968 8.53004e-05 0 0.117074 0 0.126416)
(0.125604 0.000108765 0 0.116309 0 0.126076)
(0.125249 0.000132251 0 0.115567 0 0.125744)
(0.124904 0.000155668 0 0.114847 0 0.125421)
(0.124568 0.00017895 0 0.114147 0 0.125106)
(0.124242 0.000202053 0 0.113468 0 0.1248)
(0.123923 0.000224949 0 0.112808 0 0.1245)
(0.123613 0.000247627 0 0.112168 0 0.124209)
(0.123311 0.000270085 0 0.111545 0 0.123924)
(0.123017 0.000292335 0 0.110941 0 0.123646)
(0.12273 0.000314393 0 0.110353 0 0.123374)
(0.12245 0.000336286 0 0.109782 0 0.123109)
(0.122177 0.000358043 0 0.109228 0 0.12285)
(0.12191 0.000379698 0 0.108688 0 0.122598)
(0.12165 0.000401288 0 0.108164 0 0.122351)
(0.121397 0.000422856 0 0.107654 0 0.122109)
(0.121148 0.000444485 0 0.107156 0 0.121872)
(0.120901 0.000466543 0 0.106664 0 0.121637)
(0.132823 -2.7906e-05 0 0.13214 0 0.132829)
(0.132272 -5.37814e-05 0 0.130895 0 0.132293)
(0.131726 -7.26816e-05 0 0.129704 0 0.131769)
(0.131189 -8.4307e-05 0 0.128561 0 0.13126)
(0.130664 -8.95386e-05 0 0.127464 0 0.130764)
(0.130151 -8.92962e-05 0 0.126406 0 0.130282)
(0.12965 -8.43678e-05 0 0.125387 0 0.129814)
(0.129163 -7.55496e-05 0 0.124403 0 0.129359)
(0.128689 -6.35992e-05 0 0.123452 0 0.128917)
(0.128228 -4.91516e-05 0 0.122533 0 0.128488)
(0.127779 -3.27238e-05 0 0.121643 0 0.12807)
(0.127344 -1.47465e-05 0 0.120782 0 0.127665)
(0.12692 4.42168e-06 0 0.119947 0 0.127271)
(0.126509 2.44883e-05 0 0.119139 0 0.126888)
(0.126109 4.52171e-05 0 0.118355 0 0.126515)
(0.12572 6.64178e-05 0 0.117595 0 0.126153)
(0.125343 8.79385e-05 0 0.116858 0 0.1258)
(0.124975 0.000109659 0 0.116142 0 0.125457)
(0.124618 0.000131488 0 0.115448 0 0.125123)
(0.124271 0.000153354 0 0.114775 0 0.124798)
(0.123933 0.000175207 0 0.11412 0 0.124482)
(0.123604 0.000197011 0 0.113485 0 0.124173)
(0.123284 0.000218744 0 0.112868 0 0.123873)
(0.122972 0.000240396 0 0.112269 0 0.12358)
(0.122668 0.000261965 0 0.111687 0 0.123295)
(0.122373 0.000283456 0 0.111121 0 0.123017)
(0.122085 0.00030488 0 0.110571 0 0.122745)
(0.121804 0.000326254 0 0.110037 0 0.12248)
(0.12153 0.000347596 0 0.109518 0 0.122222)
(0.121264 0.000368925 0 0.109012 0 0.12197)
(0.121004 0.00039027 0 0.108521 0 0.121724)
(0.12075 0.000411697 0 0.108041 0 0.121483)
(0.120498 0.000433563 0 0.107567 0 0.121244)
(0.132807 -2.42336e-05 0 0.132174 0 0.132812)
(0.132239 -4.7057e-05 0 0.130962 0 0.132258)
(0.131678 -6.43038e-05 0 0.129803 0 0.131717)
(0.131128 -7.5536e-05 0 0.128692 0 0.131191)
(0.130589 -8.12857e-05 0 0.127623 0 0.13068)
(0.130062 -8.22352e-05 0 0.126595 0 0.130183)
(0.129549 -7.90141e-05 0 0.125604 0 0.1297)
(0.129048 -7.2264e-05 0 0.124647 0 0.129231)
(0.128561 -6.26082e-05 0 0.123723 0 0.128775)
(0.128087 -5.05868e-05 0 0.122831 0 0.128332)
(0.127627 -3.66486e-05 0 0.121967 0 0.127902)
(0.127179 -2.11704e-05 0 0.121131 0 0.127483)
(0.126743 -4.46886e-06 0 0.120322 0 0.127077)
(0.12632 1.31945e-05 0 0.119538 0 0.126681)
(0.125909 3.16059e-05 0 0.118778 0 0.126297)
(0.125509 5.05914e-05 0 0.118042 0 0.125924)
(0.12512 7.00099e-05 0 0.117327 0 0.12556)
(0.124742 8.97485e-05 0 0.116635 0 0.125207)
(0.124374 0.000109718 0 0.115963 0 0.124863)
(0.124017 0.000129849 0 0.11531 0 0.124529)
(0.123669 0.000150088 0 0.114677 0 0.124203)
(0.123331 0.000170397 0 0.114063 0 0.123886)
(0.123002 0.000190748 0 0.113466 0 0.123577)
(0.122681 0.000211124 0 0.112886 0 0.123277)
(0.12237 0.000231514 0 0.112323 0 0.122984)
(0.122066 0.000251917 0 0.111776 0 0.122699)
(0.121771 0.000272332 0 0.111244 0 0.122421)
(0.121483 0.000292765 0 0.110727 0 0.12215)
(0.121203 0.000313222 0 0.110225 0 0.121886)
(0.12093 0.00033371 0 0.109736 0 0.121628)
(0.120664 0.000354244 0 0.10926 0 0.121377)
(0.120404 0.000374876 0 0.108796 0 0.121132)
(0.120147 0.000395931 0 0.108337 0 0.120888)
(0.132792 -2.09846e-05 0 0.132204 0 0.132797)
(0.13221 -4.0989e-05 0 0.131023 0 0.132227)
(0.131636 -5.65114e-05 0 0.129892 0 0.131671)
(0.131073 -6.70714e-05 0 0.128807 0 0.131131)
(0.130522 -7.29656e-05 0 0.127764 0 0.130606)
(0.129984 -7.46868e-05 0 0.126761 0 0.130096)
(0.129459 -7.27305e-05 0 0.125794 0 0.1296)
(0.128947 -6.76119e-05 0 0.124862 0 0.129118)
(0.128449 -5.98416e-05 0 0.123961 0 0.12865)
(0.127965 -4.98749e-05 0 0.123091 0 0.128195)
(0.127493 -3.80987e-05 0 0.12225 0 0.127753)
(0.127035 -2.48409e-05 0 0.121436 0 0.127324)
(0.126589 -1.03796e-05 0 0.120648 0 0.126906)
(0.126156 5.05331e-06 0 0.119885 0 0.126501)
(0.125735 2.12665e-05 0 0.119145 0 0.126106)
(0.125325 3.8103e-05 0 0.118429 0 0.125723)
(0.124927 5.54342e-05 0 0.117734 0 0.12535)
(0.12454 7.31563e-05 0 0.117061 0 0.124988)
(0.124164 9.1186e-05 0 0.116407 0 0.124635)
(0.123798 0.000109457 0 0.115773 0 0.124292)
(0.123442 0.000127919 0 0.115158 0 0.123958)
(0.123095 0.000146531 0 0.11456 0 0.123633)
(0.122758 0.000165264 0 0.11398 0 0.123317)
(0.122431 0.000184098 0 0.113416 0 0.123009)
(0.122112 0.000203018 0 0.112869 0 0.122709)
(0.121801 0.000222016 0 0.112337 0 0.122417)
(0.121499 0.000241084 0 0.11182 0 0.122133)
(0.121205 0.000260222 0 0.111318 0 0.121856)
(0.120919 0.000279426 0 0.110829 0 0.121586)
(0.12064 0.000298697 0 0.110354 0 0.121324)
(0.120369 0.000318038 0 0.109892 0 0.121067)
(0.120104 0.000337493 0 0.109441 0 0.120817)
(0.119841 0.000357367 0 0.108994 0 0.120568)
(0.132779 -1.80743e-05 0 0.13223 0 0.132783)
(0.132184 -3.54685e-05 0 0.131076 0 0.132199)
(0.131598 -4.92494e-05 0 0.129971 0 0.13163)
(0.131024 -5.89478e-05 0 0.12891 0 0.131077)
(0.130462 -6.47054e-05 0 0.12789 0 0.13054)
(0.129914 -6.68672e-05 0 0.126909 0 0.130018)
(0.129379 -6.58156e-05 0 0.125964 0 0.129511)
(0.128858 -6.19609e-05 0 0.125052 0 0.129018)
(0.12835 -5.57175e-05 0 0.124172 0 0.128539)
(0.127856 -4.74657e-05 0 0.123322 0 0.128074)
(0.127376 -3.7535e-05 0 0.1225 0 0.127622)
(0.126908 -2.62084e-05 0 0.121705 0 0.127183)
(0.126454 -1.37276e-05 0 0.120935 0 0.126756)
(0.126012 -2.9624e-07 0 0.12019 0 0.126341)
(0.125582 1.39162e-05 0 0.119469 0 0.125938)
(0.125165 2.87694e-05 0 0.118769 0 0.125546)
(0.124759 4.4148e-05 0 0.118091 0 0.125165)
(0.124364 5.99574e-05 0 0.117434 0 0.124794)
(0.12398 7.61213e-05 0 0.116796 0 0.124434)
(0.123607 9.25782e-05 0 0.116177 0 0.124083)
(0.123243 0.000109279 0 0.115577 0 0.123742)
(0.12289 0.000126185 0 0.114994 0 0.12341)
(0.122547 0.000143267 0 0.114428 0 0.123087)
(0.122213 0.000160503 0 0.113878 0 0.122773)
(0.121887 0.000177873 0 0.113344 0 0.122467)
(0.121571 0.000195366 0 0.112825 0 0.122169)
(0.121263 0.000212972 0 0.112321 0 0.121879)
(0.120964 0.000230682 0 0.111831 0 0.121596)
(0.120672 0.000248488 0 0.111355 0 0.121321)
(0.120388 0.000266383 0 0.110891 0 0.121053)
(0.120112 0.000284367 0 0.11044 0 0.120792)
(0.119842 0.00030247 0 0.11 0 0.120537)
(0.119575 0.000320971 0 0.109564 0 0.120284)
(0.132767 -1.5436e-05 0 0.132254 0 0.132771)
(0.13216 -3.04027e-05 0 0.131125 0 0.132174)
(0.131564 -4.24571e-05 0 0.130042 0 0.131594)
(0.13098 -5.1169e-05 0 0.129002 0 0.131029)
(0.130409 -5.65819e-05 0 0.128003 0 0.130481)
(0.129851 -5.89277e-05 0 0.127042 0 0.129948)
(0.129307 -5.84945e-05 0 0.126116 0 0.129431)
(0.128778 -5.56039e-05 0 0.125223 0 0.128928)
(0.128262 -5.05886e-05 0 0.124361 0 0.12844)
(0.127759 -4.3761e-05 0 0.123528 0 0.127966)
(0.127271 -3.53981e-05 0 0.122723 0 0.127505)
(0.126796 -2.57408e-05 0 0.121944 0 0.127057)
(0.126334 -1.49972e-05 0 0.121191 0 0.126622)
(0.125884 -3.34417e-06 0 0.120461 0 0.126199)
(0.125448 9.0695e-06 0 0.119755 0 0.125788)
(0.125023 2.21197e-05 0 0.11907 0 0.125389)
(0.12461 3.57032e-05 0 0.118406 0 0.125)
(0.124209 4.97351e-05 0 0.117763 0 0.124623)
(0.123818 6.41457e-05 0 0.117139 0 0.124255)
(0.123439 7.88783e-05 0 0.116533 0 0.123898)
(0.123069 9.38868e-05 0 0.115945 0 0.123551)