/*--------------------------------*- C++ -*----------------------------------*\
| =========                 |                                                 |
| \\      /  F ield         | OpenFOAM: The Open Source CFD Toolbox           |
|  \\    /   O peration     | Version:  4.1                                   |
|   \\  /    A nd           | Web:      www.OpenFOAM.org                      |
|    \\/     M anipulation  |                                                 |
\*---------------------------------------------------------------------------*/
FoamFile
{
    version     2.0;
    format      ascii;
    class       volVectorField;
    location    "700";
    object      U;
}
// * * * * * * * * * * * * * * * * * * * * * * * * * * * * * * * * * * * * * //

dimensions      [0 1 -1 0 0 0 0];

internalField   nonuniform List<vector> 
6820
(
(7.2813 0.0192603 0)
(7.18936 0.0329224 0)
(7.0895 0.036069 0)
(6.98491 0.037473 0)
(6.88226 0.0387346 0)
(6.7831 0.0397557 0)
(6.68718 0.0405159 0)
(6.59472 0.0410298 0)
(6.50618 0.0412715 0)
(6.42176 0.0412189 0)
(6.34143 0.0408785 0)
(6.26512 0.0402774 0)
(6.19273 0.0394512 0)
(6.12411 0.0384374 0)
(6.05911 0.0372726 0)
(5.99758 0.0359908 0)
(5.93933 0.0346222 0)
(5.88422 0.0331931 0)
(5.83208 0.0317255 0)
(5.78277 0.0302378 0)
(5.73614 0.028745 0)
(5.69207 0.0272592 0)
(5.65042 0.0257897 0)
(5.61107 0.0243439 0)
(5.57392 0.0229271 0)
(5.53886 0.0215437 0)
(5.50578 0.0201956 0)
(5.47461 0.0188877 0)
(5.44522 0.0176115 0)
(5.4177 0.0163985 0)
(5.39131 0.0151831 0)
(5.3688 0.0139347 0)
(5.34219 0.0140214 0)
(7.35129 0.0206776 0)
(7.39587 0.0322614 0)
(7.42787 0.0326356 0)
(7.44987 0.0332018 0)
(7.46739 0.03436 0)
(7.48119 0.0351446 0)
(7.49064 0.0355191 0)
(7.49593 0.0356544 0)
(7.49763 0.0356106 0)
(7.49622 0.0354085 0)
(7.49207 0.0350816 0)
(7.48557 0.0346677 0)
(7.47707 0.0341966 0)
(7.46691 0.0336883 0)
(7.45537 0.0331569 0)
(7.44272 0.0326121 0)
(7.42918 0.0320604 0)
(7.41493 0.0315058 0)
(7.40014 0.0309506 0)
(7.38495 0.0303958 0)
(7.36949 0.0298419 0)
(7.35385 0.0292888 0)
(7.33812 0.0287361 0)
(7.32237 0.0281833 0)
(7.30667 0.0276297 0)
(7.29108 0.0270747 0)
(7.27563 0.0265166 0)
(7.26037 0.025959 0)
(7.24532 0.0253849 0)
(7.23053 0.0248539 0)
(7.21605 0.0241554 0)
(7.20162 0.0239178 0)
(7.18866 0.0220531 0)
(7.33498 0.0124973 0)
(7.34477 0.0201473 0)
(7.35181 0.0214421 0)
(7.35496 0.023312 0)
(7.35732 0.0252258 0)
(7.35979 0.0263817 0)
(7.362 0.027019 0)
(7.36384 0.0274554 0)
(7.36547 0.027792 0)
(7.36696 0.0280468 0)
(7.36826 0.0282378 0)
(7.36935 0.0283831 0)
(7.37019 0.0284915 0)
(7.37079 0.0285649 0)
(7.37113 0.0286033 0)
(7.3712 0.0286066 0)
(7.371 0.0285748 0)
(7.37054 0.0285082 0)
(7.36981 0.028407 0)
(7.36883 0.0282723 0)
(7.3676 0.0281049 0)
(7.36614 0.0279061 0)
(7.36446 0.0276772 0)
(7.36257 0.0274197 0)
(7.36049 0.0271347 0)
(7.35824 0.0268236 0)
(7.35582 0.0264871 0)
(7.35327 0.0261272 0)
(7.35058 0.0257423 0)
(7.34778 0.0253353 0)
(7.34488 0.0249055 0)
(7.34189 0.0244016 0)
(7.33893 0.0239844 0)
(7.3347 0.00985766 0)
(7.34304 0.0202392 0)
(7.35045 0.024738 0)
(7.35468 0.0280676 0)
(7.35778 0.0307886 0)
(7.36077 0.0326926 0)
(7.36343 0.0340312 0)
(7.36564 0.0350519 0)
(7.36756 0.0358232 0)
(7.3693 0.036355 0)
(7.37087 0.0366711 0)
(7.37228 0.0368051 0)
(7.37356 0.0367873 0)
(7.37473 0.036643 0)
(7.37579 0.0363947 0)
(7.37676 0.0360626 0)
(7.37765 0.0356639 0)
(7.37845 0.035213 0)
(7.37919 0.0347216 0)
(7.37986 0.0341991 0)
(7.38047 0.0336531 0)
(7.38102 0.0330894 0)
(7.38152 0.0325122 0)
(7.38196 0.031925 0)
(7.38237 0.0313299 0)
(7.38273 0.0307285 0)
(7.38305 0.030121 0)
(7.38335 0.0295088 0)
(7.38362 0.0288883 0)
(7.38387 0.0282663 0)
(7.38411 0.0276249 0)
(7.38433 0.0269922 0)
(7.38456 0.026366 0)
(7.33417 0.00784834 0)
(7.3405 0.0172867 0)
(7.34711 0.0212461 0)
(7.35171 0.023742 0)
(7.35548 0.0258497 0)
(7.3592 0.0273805 0)
(7.36268 0.0284142 0)
(7.36579 0.0291472 0)
(7.36865 0.0296703 0)
(7.37132 0.0300172 0)
(7.37384 0.0302228 0)
(7.3762 0.030323 0)
(7.37843 0.0303449 0)
(7.38054 0.0303068 0)
(7.38254 0.0302214 0)
(7.38443 0.0300985 0)
(7.38624 0.0299448 0)
(7.38796 0.029765 0)
(7.3896 0.0295621 0)
(7.39118 0.0293382 0)
(7.39269 0.0290946 0)
(7.39414 0.0288318 0)
(7.39554 0.0285503 0)
(7.3969 0.0282499 0)
(7.39821 0.0279304 0)
(7.39949 0.0275914 0)
(7.40074 0.027232 0)
(7.40196 0.0268514 0)
(7.40317 0.0264478 0)
(7.40436 0.0260214 0)
(7.40555 0.0255689 0)
(7.40673 0.0250941 0)
(7.40794 0.0246094 0)
(7.33381 0.0063082 0)
(7.33861 0.0150537 0)
(7.34442 0.0196756 0)
(7.34904 0.0229119 0)
(7.35294 0.0256595 0)
(7.35675 0.0277512 0)
(7.36037 0.0292584 0)
(7.36368 0.0303941 0)
(7.36676 0.0312707 0)
(7.36969 0.0319284 0)
(7.37246 0.0323994 0)
(7.3751 0.0327155 0)
(7.37761 0.0329019 0)
(7.38001 0.0329776 0)
(7.3823 0.0329579 0)
(7.3845 0.0328564 0)
(7.38662 0.032685 0)
(7.38865 0.0324535 0)
(7.39062 0.0321704 0)
(7.39252 0.0318427 0)
(7.39437 0.0314766 0)
(7.39617 0.0310767 0)
(7.39792 0.0306471 0)
(7.39962 0.0301908 0)
(7.40129 0.0297102 0)
(7.40293 0.0292067 0)
(7.40455 0.0286811 0)
(7.40614 0.0281339 0)
(7.40772 0.0275644 0)
(7.40928 0.0269723 0)
(7.41084 0.026356 0)
(7.4124 0.0257134 0)
(7.41398 0.0250532 0)
(7.33356 0.00519297 0)
(7.33722 0.0131531 0)
(7.34215 0.0178518 0)
(7.34647 0.0210125 0)
(7.35023 0.0235062 0)
(7.3539 0.0253486 0)
(7.35745 0.0266389 0)
(7.36077 0.0275709 0)
(7.36389 0.0282527 0)
(7.36687 0.0287278 0)
(7.36972 0.0290311 0)
(7.37245 0.0291979 0)
(7.37506 0.0292567 0)
(7.37757 0.0292287 0)
(7.37999 0.0291309 0)
(7.38232 0.0289767 0)
(7.38458 0.0287769 0)
(7.38677 0.0285398 0)
(7.38889 0.0282715 0)
(7.39096 0.0279767 0)
(7.39297 0.0276585 0)
(7.39493 0.0273193 0)
(7.39685 0.0269604 0)
(7.39873 0.0265825 0)
(7.40057 0.0261855 0)
(7.40239 0.025769 0)
(7.40418 0.025332 0)
(7.40594 0.0248731 0)
(7.40769 0.0243901 0)
(7.40942 0.0238807 0)
(7.41114 0.0233416 0)
(7.41287 0.0227667 0)
(7.4146 0.0221565 0)
(7.33341 0.00435416 0)
(7.33622 0.0115133 0)
(7.34039 0.0161816 0)
(7.34439 0.0194345 0)
(7.34802 0.0220419 0)
(7.35158 0.0240784 0)
(7.35506 0.0256029 0)
(7.35836 0.0267631 0)
(7.36149 0.0276584 0)
(7.36449 0.0283354 0)
(7.36736 0.0288296 0)
(7.37013 0.0291746 0)
(7.37278 0.0293966 0)
(7.37534 0.0295154 0)
(7.37782 0.0295462 0)
(7.3802 0.0295016 0)
(7.38252 0.0293918 0)
(7.38476 0.0292251 0)
(7.38694 0.0290082 0)
(7.38906 0.0287467 0)
(7.39113 0.0284451 0)
(7.39315 0.0281068 0)
(7.39513 0.0277346 0)
(7.39706 0.0273307 0)
(7.39897 0.0268964 0)
(7.40084 0.0264324 0)
(7.40268 0.0259389 0)
(7.4045 0.0254155 0)
(7.4063 0.0248609 0)
(7.40809 0.024273 0)
(7.40986 0.0236489 0)
(7.41163 0.0229827 0)
(7.41339 0.022272 0)
(7.3333 0.00371131 0)
(7.3355 0.0101277 0)
(7.33902 0.0146564 0)
(7.34267 0.017895 0)
(7.34609 0.0204496 0)
(7.34946 0.0224315 0)
(7.35279 0.0238996 0)
(7.356 0.0249875 0)
(7.35906 0.0257981 0)
(7.36201 0.0263856 0)
(7.36485 0.0267888 0)
(7.3676 0.0270422 0)
(7.37025 0.0271738 0)
(7.37281 0.0272049 0)
(7.37529 0.0271525 0)
(7.3777 0.0270307 0)
(7.38003 0.0268509 0)
(7.3823 0.026622 0)
(7.38452 0.0263513 0)
(7.38667 0.0260446 0)
(7.38878 0.025706 0)
(7.39084 0.0253388 0)
(7.39285 0.0249453 0)
(7.39483 0.0245268 0)
(7.39677 0.024084 0)
(7.39869 0.0236168 0)
(7.40057 0.0231245 0)
(7.40243 0.0226058 0)
(7.40426 0.0220586 0)
(7.40608 0.0214797 0)
(7.40788 0.0208656 0)
(7.40966 0.0202093 0)
(7.41144 0.0195077 0)
(7.33324 0.00320679 0)
(7.33498 0.00894638 0)
(7.33796 0.0132558 0)
(7.34125 0.0164318 0)
(7.34446 0.0189421 0)
(7.34766 0.0209251 0)
(7.35085 0.0224415 0)
(7.35396 0.0236001 0)
(7.35696 0.0244921 0)
(7.35986 0.0251686 0)
(7.36268 0.0256653 0)
(7.36541 0.0260139 0)
(7.36805 0.0262402 0)
(7.37061 0.0263643 0)
(7.37309 0.0264018 0)
(7.3755 0.0263654 0)
(7.37784 0.0262651 0)
(7.38012 0.0261093 0)
(7.38234 0.0259044 0)
(7.38451 0.0256554 0)
(7.38663 0.0253664 0)
(7.3887 0.0250404 0)
(7.39072 0.0246796 0)
(7.39271 0.0242854 0)
(7.39466 0.0238589 0)
(7.39658 0.0234002 0)
(7.39846 0.0229091 0)
(7.40032 0.0223844 0)
(7.40215 0.0218246 0)
(7.40396 0.0212271 0)
(7.40575 0.0205889 0)
(7.40751 0.0199043 0)
(7.40925 0.0191714 0)
(7.33319 0.00280019 0)
(7.3346 0.00793331 0)
(7.33714 0.0119803 0)
(7.3401 0.0150546 0)
(7.34309 0.0174946 0)
(7.3461 0.0194364 0)
(7.34913 0.0209357 0)
(7.35211 0.0220802 0)
(7.35502 0.0229516 0)
(7.35784 0.0236017 0)
(7.36059 0.0240675 0)
(7.36327 0.0243808 0)
(7.36587 0.0245679 0)
(7.36839 0.0246496 0)
(7.37085 0.0246422 0)
(7.37324 0.0245592 0)
(7.37557 0.0244116 0)
(7.37783 0.0242083 0)
(7.38004 0.0239563 0)
(7.3822 0.0236614 0)
(7.38431 0.0233282 0)
(7.38638 0.0229599 0)
(7.3884 0.0225592 0)
(7.39038 0.0221277 0)
(7.39233 0.0216664 0)
(7.39424 0.0211756 0)
(7.39612 0.020655 0)
(7.39797 0.0201036 0)
(7.3998 0.0195197 0)
(7.40159 0.0189009 0)
(7.40336 0.0182442 0)
(7.4051 0.0175449 0)
(7.40682 0.0168016 0)
(7.33316 0.00246426 0)
(7.33432 0.00705682 0)
(7.3365 0.0108183 0)
(7.33915 0.0137568 0)
(7.34192 0.0161066 0)
(7.34475 0.0179926 0)
(7.34762 0.0194705 0)
(7.35048 0.020614 0)
(7.35329 0.021496 0)
(7.35604 0.0221663 0)
(7.35873 0.0226603 0)
(7.36136 0.0230078 0)
(7.36392 0.0232334 0)
(7.36642 0.0233565 0)
(7.36885 0.0233925 0)
(7.37122 0.0233539 0)
(7.37353 0.023251 0)
(7.37578 0.0230918 0)
(7.37798 0.0228827 0)
(7.38013 0.022629 0)
(7.38223 0.0223346 0)
(7.38429 0.0220024 0)
(7.3863 0.0216346 0)
(7.38828 0.0212327 0)
(7.39021 0.0207974 0)
(7.39211 0.0203291 0)
(7.39398 0.0198273 0)
(7.39581 0.0192911 0)
(7.39761 0.0187193 0)
(7.39938 0.0181097 0)
(7.40112 0.0174603 0)
(7.40282 0.0167672 0)
(7.40449 0.0160304 0)
(7.33314 0.00218022 0)
(7.33411 0.00629047 0)
(7.33599 0.00975816 0)
(7.33838 0.0125367 0)
(7.34093 0.0147805 0)
(7.34358 0.0165956 0)
(7.3463 0.0180343 0)
(7.34903 0.0191565 0)
(7.35174 0.0200241 0)
(7.3544 0.0206832 0)
(7.35702 0.0211672 0)
(7.35958 0.0215039 0)
(7.36209 0.021717 0)
(7.36454 0.0218254 0)
(7.36693 0.0218444 0)
(7.36926 0.0217865 0)
(7.37154 0.0216619 0)
(7.37377 0.021479 0)
(7.37594 0.0212444 0)
(7.37806 0.0209636 0)
(7.38014 0.0206408 0)
(7.38218 0.0202793 0)
(7.38417 0.0198818 0)
(7.38612 0.0194498 0)
(7.38803 0.0189847 0)
(7.38991 0.0184868 0)
(7.39175 0.0179563 0)
(7.39355 0.0173927 0)
(7.39532 0.0167949 0)
(7.39706 0.0161617 0)
(7.39876 0.0154914 0)
(7.40043 0.0147815 0)
(7.40206 0.0140327 0)
(7.33312 0.00193507 0)
(7.33395 0.00561302 0)
(7.33559 0.00878819 0)
(7.33773 0.0113895 0)
(7.34009 0.0135131 0)
(7.34258 0.015244 0)
(7.34515 0.0166299 0)
(7.34775 0.0177206 0)
(7.35035 0.0185692 0)
(7.35293 0.0192183 0)
(7.35547 0.0196995 0)
(7.35797 0.0200392 0)
(7.36043 0.0202597 0)
(7.36283 0.0203791 0)
(7.36518 0.0204119 0)
(7.36748 0.02037 0)
(7.36973 0.0202631 0)
(7.37192 0.0200991 0)
(7.37407 0.0198844 0)
(7.37618 0.0196239 0)
(7.37823 0.0193217 0)
(7.38025 0.0189808 0)
(7.38222 0.0186034 0)
(7.38415 0.0181913 0)
(7.38604 0.0177452 0)
(7.38789 0.0172659 0)
(7.3897 0.0167532 0)
(7.39148 0.0162069 0)
(7.39322 0.0156262 0)
(7.39493 0.0150101 0)
(7.39659 0.0143577 0)
(7.39822 0.0136669 0)
(7.3998 0.0129395 0)
(7.33311 0.00171963 0)
(7.33382 0.00500741 0)
(7.33526 0.00789691 0)
(7.3372 0.01031 0)
(7.33938 0.0123019 0)
(7.34171 0.0139377 0)
(7.34413 0.015259 0)
(7.34662 0.0163073 0)
(7.34911 0.0171273 0)
(7.3516 0.0177563 0)
(7.35407 0.0182237 0)
(7.3565 0.0185535 0)
(7.35889 0.0187661 0)
(7.36124 0.0188785 0)
(7.36355 0.0189044 0)
(7.3658 0.0188551 0)
(7.36801 0.0187399 0)
(7.37018 0.0185665 0)
(7.37229 0.018341 0)
(7.37436 0.0180685 0)
(7.37639 0.0177529 0)
(7.37837 0.0173975 0)
(7.38031 0.0170046 0)
(7.38221 0.0165761 0)
(7.38407 0.0161132 0)
(7.38589 0.0156166 0)
(7.38767 0.0150868 0)
(7.38941 0.0145239 0)
(7.39111 0.0139277 0)
(7.39278 0.0132977 0)
(7.3944 0.0126336 0)
(7.39599 0.0119346 0)
(7.39753 0.0112027 0)
(7.3331 0.00152729 0)
(7.33372 0.00446009 0)
(7.335 0.0070737 0)
(7.33676 0.00929216 0)
(7.33877 0.0111432 0)
(7.34095 0.0126745 0)
(7.34325 0.013921 0)
(7.34561 0.0149172 0)
(7.34801 0.0157001 0)
(7.35041 0.0163028 0)
(7.35279 0.016752 0)
(7.35516 0.0170697 0)
(7.35749 0.0172749 0)
(7.35979 0.0173835 0)
(7.36205 0.0174084 0)
(7.36426 0.0173605 0)
(7.36644 0.0172486 0)
(7.36856 0.01708 0)
(7.37065 0.0168607 0)
(7.37269 0.0165953 0)
(7.37468 0.0162879 0)
(7.37663 0.0159414 0)
(7.37855 0.0155582 0)
(7.38042 0.0151401 0)
(7.38225 0.0146882 0)
(7.38404 0.0142036 0)
(7.38578 0.0136866 0)
(7.38749 0.0131375 0)
(7.38916 0.0125565 0)
(7.39079 0.0119433 0)
(7.39238 0.0112983 0)
(7.39392 0.0106206 0)
(7.39542 0.00991304 0)
(7.3331 0.00135319 0)
(7.33364 0.00396023 0)
(7.33479 0.00630888 0)
(7.33639 0.0083298 0)
(7.33826 0.0100331 0)
(7.3403 0.0114521 0)
(7.34247 0.0126151 0)
(7.34472 0.0135503 0)
(7.34702 0.0142886 0)
(7.34933 0.0148583 0)
(7.35164 0.0152832 0)
(7.35394 0.0155832 0)
(7.35622 0.0157753 0)
(7.35846 0.0158742 0)
(7.36067 0.0158917 0)
(7.36284 0.0158378 0)
(7.36497 0.0157209 0)
(7.36706 0.0155476 0)
(7.36911 0.0153237 0)
(7.37111 0.0150537 0)
(7.37307 0.0147413 0)
(7.37499 0.0143895 0)
(7.37687 0.0140006 0)
(7.3787 0.0135766 0)
(7.3805 0.0131187 0)
(7.38225 0.0126281 0)
(7.38396 0.0121055 0)
(7.38564 0.0115515 0)
(7.38727 0.0109665 0)
(7.38885 0.0103509 0)
(7.3904 0.00970525 0)
(7.3919 0.00902965 0)
(7.39336 0.00832701 0)
(7.33309 0.00119364 0)
(7.33358 0.00349908 0)
(7.33461 0.00559379 0)
(7.33608 0.0074167 0)
(7.33782 0.00896725 0)
(7.33973 0.0102674 0)
(7.34179 0.0113394 0)
(7.34394 0.012206 0)
(7.34614 0.0128925 0)
(7.34837 0.013423 0)
(7.35061 0.0138182 0)
(7.35284 0.0140961 0)
(7.35506 0.0142719 0)
(7.35725 0.0143588 0)
(7.35941 0.0143678 0)
(7.36153 0.0143082 0)
(7.36362 0.0141877 0)
(7.36567 0.0140127 0)
(7.36768 0.0137886 0)
(7.36965 0.0135197 0)
(7.37158 0.0132097 0)
(7.37346 0.0128614 0)
(7.37531 0.0124771 0)
(7.37711 0.0120587 0)
(7.37887 0.0116077 0)
(7.38059 0.0111253 0)
(7.38227 0.0106124 0)
(7.38391 0.0100698 0)
(7.3855 0.00949806 0)
(7.38705 0.0088979 0)
(7.38856 0.00827015 0)
(7.39002 0.00761511 0)
(7.39143 0.0069358 0)
(7.33309 0.00104577 0)
(7.33353 0.00306954 0)
(7.33447 0.00492066 0)
(7.33582 0.00654667 0)
(7.33744 0.00794096 0)
(7.33924 0.00911708 0)
(7.34119 0.0100916 0)
(7.34325 0.0108828 0)
(7.34536 0.0115111 0)
(7.34751 0.0119966 0)
(7.34968 0.0123573 0)
(7.35185 0.0126086 0)
(7.35401 0.0127642 0)
(7.35614 0.0128357 0)
(7.35826 0.0128332 0)
(7.36034 0.012765 0)
(7.36238 0.0126382 0)
(7.36439 0.0124586 0)
(7.36636 0.0122311 0)
(7.3683 0.0119599 0)
(7.37019 0.0116482 0)
(7.37204 0.011299 0)
(7.37385 0.0109143 0)
(7.37561 0.0104962 0)
(7.37734 0.010046 0)
(7.37902 0.00956513 0)
(7.38066 0.00905461 0)
(7.38226 0.00851538 0)
(7.38382 0.00794836 0)
(7.38533 0.00735442 0)
(7.3868 0.00673464 0)
(7.38822 0.00608973 0)
(7.38959 0.00542277 0)
(7.33308 0.000907283 0)
(7.33348 0.00266568 0)
(7.33435 0.00428255 0)
(7.3356 0.00571363 0)
(7.33712 0.00694933 0)
(7.33883 0.00799715 0)
(7.34068 0.00886892 0)
(7.34264 0.00957886 0)
(7.34468 0.0101432 0)
(7.34675 0.0105786 0)
(7.34885 0.0108999 0)
(7.35096 0.0111207 0)
(7.35306 0.0112527 0)
(7.35515 0.0113061 0)
(7.35721 0.0112899 0)
(7.35925 0.0112116 0)
(7.36125 0.0110775 0)
(7.36322 0.0108931 0)
(7.36515 0.0106628 0)
(7.36705 0.0103904 0)
(7.3689 0.0100792 0)
(7.37072 0.00973186 0)
(7.37249 0.0093505 0)
(7.37423 0.00893704 0)
(7.37592 0.00849303 0)
(7.37756 0.00801985 0)
(7.37917 0.00751868 0)
(7.38073 0.00699064 0)
(7.38225 0.00643678 0)
(7.38373 0.00585816 0)
(7.38516 0.00525602 0)
(7.38654 0.00463116 0)
(7.38788 0.00398662 0)
(7.33308 0.000776254 0)
(7.33345 0.00228243 0)
(7.33425 0.00367311 0)
(7.33542 0.00491159 0)
(7.33685 0.00598725 0)
(7.33847 0.00690335 0)
(7.34024 0.00766788 0)
(7.34212 0.00829149 0)
(7.34408 0.00878688 0)
(7.34608 0.00916726 0)
(7.34812 0.00944506 0)
(7.35017 0.00963151 0)
(7.35222 0.00973665 0)
(7.35425 0.00976932 0)
(7.35627 0.00973721 0)
(7.35826 0.00964692 0)
(7.36023 0.0095041 0)
(7.36216 0.00931355 0)
(7.36405 0.00907936 0)
(7.36591 0.00880499 0)
(7.36773 0.00849335 0)
(7.36951 0.00814693 0)
(7.37125 0.00776782 0)
(7.37294 0.00735781 0)
(7.3746 0.00691847 0)
(7.37621 0.00645118 0)
(7.37778 0.00595719 0)
(7.37931 0.00543769 0)
(7.38079 0.00489383 0)
(7.38223 0.00432678 0)
(7.38362 0.00373786 0)
(7.38497 0.00312806 0)
(7.38627 0.00250036 0)
(7.33308 0.00065103 0)
(7.33342 0.00191533 0)
(7.33417 0.00308649 0)
(7.33527 0.00413465 0)
(7.33663 0.00504936 0)
(7.33817 0.00583107 0)
(7.33986 0.00648465 0)
(7.34167 0.00701771 0)
(7.34356 0.0074398 0)
(7.3455 0.00776116 0)
(7.34748 0.0079917 0)
(7.34947 0.00814057 0)
(7.35147 0.00821606 0)
(7.35346 0.00822559 0)
(7.35543 0.00817567 0)
(7.35738 0.00807197 0)
(7.3593 0.00791939 0)
(7.3612 0.00772216 0)
(7.36305 0.00748391 0)
(7.36488 0.00720777 0)
(7.36666 0.0068964 0)
(7.3684 0.00655212 0)
(7.37011 0.00617691 0)
(7.37177 0.00577254 0)
(7.37339 0.00534054 0)
(7.37497 0.00488233 0)
(7.3765 0.00439921 0)
(7.37799 0.00389244 0)
(7.37944 0.00336326 0)
(7.38084 0.0028129 0)
(7.3822 0.00224274 0)
(7.38351 0.00165376 0)
(7.38478 0.00104883 0)
(7.33308 0.000530106 0)
(7.3334 0.00156031 0)
(7.3341 0.00251712 0)
(7.33515 0.0033768 0)
(7.33644 0.00412985 0)
(7.33792 0.00477488 0)
(7.33955 0.00531433 0)
(7.34129 0.00575316 0)
(7.34312 0.00609815 0)
(7.34501 0.00635686 0)
(7.34693 0.00653682 0)
(7.34887 0.00664516 0)
(7.35082 0.00668846 0)
(7.35277 0.00667271 0)
(7.3547 0.00660323 0)
(7.35661 0.00648472 0)
(7.35849 0.00632132 0)
(7.36034 0.0061166 0)
(7.36216 0.00587371 0)
(7.36395 0.00559536 0)
(7.3657 0.00528392 0)
(7.36741 0.00494147 0)
(7.36908 0.00456983 0)
(7.3707 0.00417064 0)
(7.37229 0.00374537 0)
(7.37383 0.00329539 0)
(7.37533 0.00282199 0)
(7.37679 0.00232642 0)
(7.3782 0.00180994 0)
(7.37957 0.00127379 0)
(7.3809 0.000719342 0)
(7.38217 0.000147657 0)
(7.38341 -0.000438507 0)
(7.33307 0.00041199 0)
(7.33338 0.00121343 0)
(7.33405 0.00195958 0)
(7.33506 0.00263221 0)
(7.3363 0.00322312 0)
(7.33772 0.00372983 0)
(7.33929 0.00415275 0)
(7.34098 0.00449455 0)
(7.34276 0.00475952 0)
(7.3446 0.00495275 0)
(7.34647 0.00507952 0)
(7.34837 0.00514501 0)
(7.35027 0.00515413 0)
(7.35217 0.00511146 0)
(7.35406 0.00502115 0)
(7.35593 0.00488695 0)
(7.35778 0.00471222 0)
(7.3596 0.00449992 0)
(7.36138 0.0042527 0)
(7.36313 0.0039729 0)
(7.36485 0.00366258 0)
(7.36652 0.0033236 0)
(7.36816 0.00295764 0)
(7.36975 0.00256621 0)
(7.3713 0.00215072 0)
(7.37281 0.00171248 0)
(7.37428 0.00125278 0)
(7.3757 0.000772834 0)
(7.37708 0.000273896 0)
(7.37841 -0.000242814 0)
(7.3797 -0.000775958 0)
(7.38095 -0.00132457 0)
(7.38215 -0.00188611 0)
(7.33307 0.000295154 0)
(7.33337 0.000870488 0)
(7.33402 0.00140768 0)
(7.33499 0.00189351 0)
(7.33619 0.00232132 0)
(7.33757 0.00268794 0)
(7.3391 0.00299213 0)
(7.34074 0.00323447 0)
(7.34248 0.00341694 0)
(7.34427 0.00354233 0)
(7.3461 0.00361375 0)
(7.34795 0.00363448 0)
(7.34982 0.00360776 0)
(7.35168 0.00353674 0)
(7.35353 0.00342436 0)
(7.35537 0.00327336 0)
(7.35718 0.00308626 0)
(7.35896 0.00286535 0)
(7.36071 0.00261272 0)
(7.36243 0.00233026 0)
(7.36411 0.0020197 0)
(7.36575 0.00168261 0)
(7.36735 0.00132047 0)
(7.36892 0.000934624 0)
(7.37044 0.000526371 0)
(7.37191 9.69438e-05 0)
(7.37335 -0.000352451 0)
(7.37474 -0.000820625 0)
(7.37608 -0.00130638 0)
(7.37739 -0.00180852 0)
(7.37865 -0.00232575 0)
(7.37986 -0.00285706 0)
(7.38104 -0.00339998 0)
(7.33307 0.000178636 0)
(7.33336 0.000529015 0)
(7.33399 0.000858068 0)
(7.33494 0.00115715 0)
(7.33611 0.00142122 0)
(7.33746 0.00164663 0)
(7.33896 0.00183064 0)
(7.34057 0.0019719 0)
(7.34226 0.00207021 0)
(7.34402 0.00212617 0)
(7.34581 0.00214081 0)
(7.34763 0.00211558 0)
(7.34946 0.00205214 0)
(7.35129 0.00195227 0)
(7.35311 0.00181781 0)
(7.35491 0.00165054 0)
(7.35668 0.00145221 0)
(7.35843 0.00122447 0)
(7.36015 0.000968899 0)
(7.36184 0.000686971 0)
(7.36348 0.00038007 0)
(7.36509 4.95055e-05 0)
(7.36666 -0.000303484 0)
(7.36819 -0.000677714 0)
(7.36968 -0.00107204 0)
(7.37112 -0.00148535 0)
(7.37252 -0.00191653 0)
(7.37388 -0.00236449 0)
(7.37519 -0.00282813 0)
(7.37646 -0.00330636 0)
(7.37769 -0.003798 0)
(7.37888 -0.00430223 0)
(7.38002 -0.00481689 0)
(7.33307 6.11116e-05 0)
(7.33336 0.000184495 0)
(7.33398 0.000303473 0)
(7.33491 0.000414042 0)
(7.33607 0.000512803 0)
(7.3374 0.000595569 0)
(7.33887 0.000658097 0)
(7.34045 0.00069708 0)
(7.34212 0.000710174 0)
(7.34385 0.000695719 0)
(7.34561 0.00065264 0)
(7.3474 0.000580429 0)
(7.3492 0.000479055 0)
(7.351 0.000348839 0)
(7.35279 0.000190359 0)
(7.35456 4.37738e-06 0)
(7.3563 -0.000208215 0)
(7.35802 -0.000446449 0)
(7.35971 -0.00070931 0)
(7.36136 -0.000995765 0)
(7.36298 -0.00130477 0)
(7.36456 -0.0016353 0)
(7.3661 -0.00198631 0)
(7.3676 -0.00235679 0)
(7.36906 -0.00274571 0)
(7.37047 -0.00315206 0)
(7.37184 -0.00357481 0)
(7.37317 -0.00401293 0)
(7.37446 -0.00446537 0)
(7.3757 -0.00493106 0)
(7.3769 -0.00540887 0)
(7.37806 -0.00589784 0)
(7.37918 -0.00639585 0)
(7.33307 -5.88975e-05 0)
(7.33336 -0.00016787 0)
(7.33398 -0.000263676 0)
(7.33491 -0.000345119 0)
(7.33606 -0.000414061 0)
(7.33738 -0.000475547 0)
(7.33884 -0.0005356 0)
(7.34041 -0.000599594 0)
(7.34206 -0.000672064 0)
(7.34377 -0.000756854 0)
(7.34551 -0.00085704 0)
(7.34728 -0.000974886 0)
(7.34905 -0.00111194 0)
(7.35082 -0.00126918 0)
(7.35258 -0.00144717 0)
(7.35432 -0.00164608 0)
(7.35604 -0.00186586 0)
(7.35773 -0.00210621 0)
(7.35938 -0.00236672 0)
(7.36101 -0.00264683 0)
(7.36259 -0.00294593 0)
(7.36414 -0.00326333 0)
(7.36565 -0.00359831 0)
(7.36711 -0.00395009 0)
(7.36854 -0.00431789 0)
(7.36992 -0.00470087 0)
(7.37127 -0.00509819 0)
(7.37256 -0.00550898 0)
(7.37382 -0.00593235 0)
(7.37503 -0.00636741 0)
(7.3762 -0.00681324 0)
(7.37733 -0.00726922 0)
(7.37842 -0.0077336 0)
(7.33307 -0.000183131 0)
(7.33336 -0.000532622 0)
(7.33399 -0.000849752 0)
(7.33494 -0.00112742 0)
(7.3361 -0.00136627 0)
(7.33743 -0.00157289 0)
(7.33889 -0.00175561 0)
(7.34046 -0.00192226 0)
(7.3421 -0.00208005 0)
(7.3438 -0.00223555 0)
(7.34553 -0.00239432 0)
(7.34728 -0.00256073 0)
(7.34903 -0.00273808 0)
(7.35078 -0.0029288 0)
(7.35252 -0.00313459 0)
(7.35424 -0.00335657 0)
(7.35593 -0.00359539 0)
(7.3576 -0.00385134 0)
(7.35923 -0.00412442 0)
(7.36083 -0.00441443 0)
(7.36239 -0.00472103 0)
(7.36391 -0.00504374 0)
(7.3654 -0.00538199 0)
(7.36684 -0.00573514 0)
(7.36824 -0.0061025 0)
(7.3696 -0.00648333 0)
(7.37091 -0.00687686 0)
(7.37219 -0.00728226 0)
(7.37342 -0.00769871 0)
(7.37461 -0.00812533 0)
(7.37575 -0.00856118 0)
(7.37685 -0.00900542 0)
(7.37791 -0.00945629 0)
(7.33307 -0.000314622 0)
(7.33338 -0.000918176 0)
(7.33403 -0.00146705 0)
(7.33501 -0.00194727 0)
(7.3362 -0.00235906 0)
(7.33755 -0.00271184 0)
(7.33903 -0.00301675 0)
(7.3406 -0.00328397 0)
(7.34225 -0.00352305 0)
(7.34395 -0.00374292 0)
(7.34567 -0.00395134 0)
(7.3474 -0.00415461 0)
(7.34914 -0.00435777 0)
(7.35087 -0.00456478 0)
(7.35259 -0.0047787 0)
(7.35428 -0.00500179 0)
(7.35595 -0.00523569 0)
(7.35759 -0.00548153 0)
(7.35919 -0.00574001 0)
(7.36076 -0.00601154 0)
(7.36229 -0.00629626 0)
(7.36379 -0.00659412 0)
(7.36524 -0.0069049 0)
(7.36665 -0.00722827 0)
(7.36802 -0.00756379 0)
(7.36935 -0.00791098 0)
(7.37064 -0.00826925 0)
(7.37188 -0.00863799 0)
(7.37308 -0.00901658 0)
(7.37424 -0.00940437 0)
(7.37536 -0.00980066 0)
(7.37644 -0.0102051 0)
(7.37748 -0.0106163 0)
(7.33308 -0.000457233 0)
(7.3334 -0.00133503 0)
(7.3341 -0.00213014 0)
(7.33512 -0.00282035 0)
(7.33636 -0.00340732 0)
(7.33776 -0.00390601 0)
(7.33927 -0.00433269 0)
(7.34087 -0.00470183 0)
(7.34254 -0.00502702 0)
(7.34425 -0.00532068 0)
(7.34598 -0.00559314 0)
(7.34772 -0.00585248 0)
(7.34945 -0.00610503 0)
(7.35118 -0.00635575 0)
(7.35288 -0.00660842 0)
(7.35457 -0.00686584 0)
(7.35622 -0.00713009 0)
(7.35784 -0.0074026 0)
(7.35943 -0.00768437 0)
(7.36098 -0.00797603 0)
(7.3625 -0.0082779 0)
(7.36397 -0.00859009 0)
(7.3654 -0.00891253 0)
(7.36679 -0.009245 0)
(7.36814 -0.00958718 0)
(7.36945 -0.00993867 0)
(7.37071 -0.010299 0)
(7.37193 -0.0106675 0)
(7.37311 -0.0110438 0)
(7.37425 -0.0114271 0)
(7.37534 -0.0118168 0)
(7.37639 -0.0122121 0)
(7.3774 -0.0126118 0)
(7.33308 -0.000616421 0)
(7.33344 -0.001798 0)
(7.3342 -0.00285935 0)
(7.33531 -0.00376897 0)
(7.33662 -0.00453299 0)
(7.33808 -0.00517331 0)
(7.33964 -0.00570986 0)
(7.34128 -0.00616003 0)
(7.34298 -0.00654163 0)
(7.3447 -0.00687165 0)
(7.34643 -0.00716428 0)
(7.34816 -0.00743071 0)
(7.34989 -0.00767986 0)
(7.3516 -0.00791884 0)
(7.35329 -0.00815314 0)
(7.35495 -0.00838688 0)
(7.35658 -0.00862317 0)
(7.35818 -0.00886425 0)
(7.35974 -0.00911176 0)
(7.36127 -0.00936681 0)
(7.36275 -0.00963013 0)
(7.3642 -0.00990215 0)
(7.3656 -0.0101831 0)
(7.36696 -0.0104729 0)
(7.36828 -0.0107715 0)
(7.36956 -0.0110788 0)
(7.37079 -0.0113942 0)
(7.37199 -0.0117176 0)
(7.37314 -0.0120484 0)
(7.37425 -0.0123863 0)
(7.37532 -0.0127308 0)
(7.37635 -0.0130817 0)
(7.37734 -0.013438 0)
(7.33308 -0.00080059 0)
(7.3335 -0.00232907 0)
(7.33436 -0.00368142 0)
(7.33559 -0.00481809 0)
(7.33701 -0.00576284 0)
(7.33856 -0.00655615 0)
(7.34021 -0.00722659 0)
(7.34192 -0.00779536 0)
(7.34367 -0.00828335 0)
(7.34544 -0.00870976 0)
(7.3472 -0.00908985 0)
(7.34896 -0.00943541 0)
(7.3507 -0.0097559 0)
(7.35242 -0.010059 0)
(7.3541 -0.0103505 0)
(7.35576 -0.0106353 0)
(7.35738 -0.0109167 0)
(7.35897 -0.0111975 0)
(7.36052 -0.0114796 0)
(7.36202 -0.0117645 0)
(7.36349 -0.0120532 0)
(7.36491 -0.0123465 0)
(7.36629 -0.0126447 0)
(7.36763 -0.012948 0)
(7.36893 -0.0132565 0)
(7.37018 -0.0135702 0)
(7.37139 -0.0138887 0)
(7.37256 -0.014212 0)
(7.37368 -0.0145397 0)
(7.37476 -0.0148713 0)
(7.3758 -0.0152065 0)
(7.3768 -0.0155449 0)
(7.37775 -0.0158856 0)
(7.33309 -0.00102336 0)
(7.3336 -0.00296471 0)
(7.33462 -0.00464224 0)
(7.33601 -0.0060037 0)
(7.33757 -0.0070935 0)
(7.33921 -0.00797098 0)
(7.34093 -0.00867682 0)
(7.3427 -0.0092454 0)
(7.34449 -0.00971069 0)
(7.34627 -0.0101009 0)
(7.34805 -0.0104367 0)
(7.34981 -0.010733 0)
(7.35154 -0.0110019 0)
(7.35325 -0.0112523 0)
(7.35492 -0.0114909 0)
(7.35656 -0.0117228 0)
(7.35815 -0.0119516 0)
(7.35971 -0.0121802 0)
(7.36123 -0.0124105 0)
(7.36271 -0.0126441 0)
(7.36414 -0.012882 0)
(7.36553 -0.0131249 0)
(7.36688 -0.0133732 0)
(7.36818 -0.0136274 0)
(7.36944 -0.0138874 0)
(7.37066 -0.0141533 0)
(7.37184 -0.0144249 0)
(7.37297 -0.0147022 0)
(7.37406 -0.0149848 0)
(7.37511 -0.0152725 0)
(7.37612 -0.015565 0)
(7.37709 -0.0158621 0)
(7.37802 -0.016163 0)
(7.33311 -0.00130858 0)
(7.33375 -0.00375365 0)
(7.33503 -0.0057979 0)
(7.33669 -0.00743427 0)
(7.33847 -0.00877464 0)
(7.3403 -0.00988947 0)
(7.34218 -0.0108052 0)
(7.34406 -0.011553 0)
(7.34593 -0.0121721 0)
(7.34777 -0.0126951 0)
(7.34958 -0.0131444 0)
(7.35135 -0.0135374 0)
(7.35308 -0.0138884 0)
(7.35478 -0.0142087 0)
(7.35643 -0.0145067 0)
(7.35803 -0.0147888 0)
(7.3596 -0.0150599 0)
(7.36112 -0.0153235 0)
(7.3626 -0.0155825 0)
(7.36403 -0.0158388 0)
(7.36542 -0.0160938 0)
(7.36676 -0.0163486 0)
(7.36806 -0.0166038 0)
(7.36931 -0.01686 0)
(7.37052 -0.0171174 0)
(7.37169 -0.0173763 0)
(7.37281 -0.0176367 0)
(7.37389 -0.0178987 0)
(7.37492 -0.0181621 0)
(7.37591 -0.018427 0)
(7.37686 -0.0186933 0)
(7.37777 -0.0189611 0)
(7.37863 -0.0192302 0)
(7.33314 -0.00171309 0)
(7.33403 -0.00480957 0)
(7.33564 -0.0071364 0)
(7.33755 -0.00877099 0)
(7.33947 -0.00999789 0)
(7.3414 -0.0109689 0)
(7.34337 -0.0117328 0)
(7.34532 -0.0123341 0)
(7.34722 -0.0128218 0)
(7.34907 -0.0132306 0)
(7.35086 -0.013581 0)
(7.35261 -0.0138874 0)
(7.35431 -0.0141619 0)
(7.35595 -0.0144133 0)
(7.35754 -0.0146485 0)
(7.35909 -0.0148724 0)
(7.36058 -0.015089 0)
(7.36203 -0.0153013 0)
(7.36343 -0.0155115 0)
(7.36478 -0.0157215 0)
(7.36608 -0.0159325 0)
(7.36735 -0.0161456 0)
(7.36856 -0.0163613 0)
(7.36973 -0.0165803 0)
(7.37086 -0.0168026 0)
(7.37194 -0.0170285 0)
(7.37299 -0.017258 0)
(7.37399 -0.0174909 0)
(7.37495 -0.017727 0)
(7.37586 -0.0179661 0)
(7.37674 -0.0182078 0)
(7.37759 -0.0184517 0)
(7.3784 -0.0186971 0)
(7.33321 -0.00230681 0)
(7.33467 -0.00642722 0)
(7.33707 -0.009515 0)
(7.33954 -0.0117565 0)
(7.34173 -0.0134585 0)
(7.34378 -0.0147548 0)
(7.34577 -0.0157242 0)
(7.34767 -0.0164585 0)
(7.34946 -0.0170345 0)
(7.35115 -0.0174997 0)
(7.35277 -0.0178844 0)
(7.35432 -0.0182114 0)
(7.3558 -0.0184977 0)
(7.35722 -0.0187552 0)
(7.35859 -0.0189919 0)
(7.3599 -0.0192133 0)
(7.36116 -0.0194236 0)
(7.36237 -0.0196256 0)
(7.36353 -0.0198213 0)
(7.36464 -0.0200122 0)
(7.36571 -0.0201995 0)
(7.36673 -0.0203838 0)
(7.36771 -0.020566 0)
(7.36865 -0.0207463 0)
(7.36954 -0.0209254 0)
(7.37039 -0.0211033 0)
(7.37121 -0.0212806 0)
(7.37198 -0.0214573 0)
(7.37271 -0.0216338 0)
(7.37341 -0.0218107 0)
(7.37407 -0.0219884 0)
(7.37469 -0.0221689 0)
(7.37527 -0.0223534 0)
(7.33323 -0.00330733 0)
(7.33508 -0.00748592 0)
(7.33785 -0.00963432 0)
(7.34039 -0.0111616 0)
(7.34248 -0.0124962 0)
(7.34435 -0.0135476 0)
(7.34606 -0.0143181 0)
(7.34756 -0.0149096 0)
(7.34888 -0.0153922 0)
(7.35005 -0.0157921 0)
(7.35112 -0.0161245 0)
(7.3521 -0.0164063 0)
(7.35301 -0.0166522 0)
(7.35385 -0.016873 0)
(7.35463 -0.0170759 0)
(7.35537 -0.0172668 0)
(7.35607 -0.01745 0)
(7.35674 -0.0176288 0)
(7.35737 -0.0178055 0)
(7.35796 -0.0179818 0)
(7.35853 -0.0181587 0)
(7.35907 -0.0183371 0)
(7.35958 -0.0185172 0)
(7.36007 -0.0186993 0)
(7.36052 -0.0188835 0)
(7.36096 -0.0190694 0)
(7.36136 -0.0192568 0)
(7.36175 -0.0194452 0)
(7.3621 -0.0196338 0)
(7.36244 -0.0198213 0)
(7.36274 -0.0200061 0)
(7.36302 -0.0201837 0)
(7.36327 -0.0203549 0)
(7.33597 -0.00734843 0)
(7.3463 -0.0150967 0)
(7.35617 -0.0177366 0)
(7.36436 -0.018897 0)
(7.37191 -0.019779 0)
(7.37926 -0.0203565 0)
(7.38624 -0.0206453 0)
(7.39271 -0.0207941 0)
(7.39874 -0.0209007 0)
(7.40441 -0.0209906 0)
(7.40977 -0.0210678 0)
(7.41483 -0.0211378 0)
(7.41962 -0.0212057 0)
(7.42415 -0.0212733 0)
(7.42845 -0.0213408 0)
(7.43253 -0.0214081 0)
(7.43639 -0.0214752 0)
(7.44005 -0.0215421 0)
(7.44352 -0.0216091 0)
(7.44681 -0.0216761 0)
(7.44992 -0.0217436 0)
(7.45287 -0.0218118 0)
(7.45565 -0.0218809 0)
(7.45828 -0.0219514 0)
(7.46076 -0.0220235 0)
(7.4631 -0.0220976 0)
(7.4653 -0.0221741 0)
(7.46738 -0.0222534 0)
(7.46933 -0.0223357 0)
(7.47118 -0.0224218 0)
(7.47292 -0.0225113 0)
(7.47457 -0.0226056 0)
(7.47615 -0.0227027 0)
(7.32333 -0.00889148 0)
(7.30978 -0.018185 0)
(7.29242 -0.022275 0)
(7.27081 -0.0243668 0)