/*--------------------------------*- C++ -*----------------------------------*\
| =========                 |                                                 |
| \\      /  F ield         | OpenFOAM: The Open Source CFD Toolbox           |
|  \\    /   O peration     | Version:  4.1                                   |
|   \\  /    A nd           | Web:      www.OpenFOAM.org                      |
|    \\/     M anipulation  |                                                 |
\*---------------------------------------------------------------------------*/
FoamFile
{
    version     2.0;
    format      ascii;
    class       volScalarField;
    location    "400";
    object      p;
}
// * * * * * * * * * * * * * * * * * * * * * * * * * * * * * * * * * * * * * //

dimensions      [0 2 -2 0 0 0 0];

internalField   nonuniform List<scalar> 
26785
(
-42.2653
-48.8772
-50.7102
-50.0036
-47.7464
-44.6508
-41.4311
-38.38
-35.6159
-33.1728
-31.0109
-29.0561
-27.247
-25.5601
-23.9931
-22.5374
-21.1791
-19.9107
-18.7231
-17.596
-16.5139
-15.4765
-14.506
-13.6038
-12.6708
-11.6537
-10.5232
-9.29169
-7.98687
-6.63046
-5.23803
-3.82083
-2.38638
-0.938578
0.521715
1.99529
3.4813
4.97352
6.45563
7.89822
9.25686
10.4706
11.4642
12.1519
12.4425
12.2405
11.4437
9.94113
7.61503
4.35114
0.056314
-5.31568
-11.7372
-19.0812
-27.0822
-35.3125
-43.1529
-49.7141
-54.1264
-55.9646
-55.2071
-52.2693
-47.9619
-43.1246
-38.3382
-33.9036
-29.9346
-26.443
-23.3941
-20.7363
-18.4161
-16.3843
-14.5981
-13.0215
-11.6246
-10.3827
-9.27509
-8.28488
-7.39781
-6.60183
-5.88668
-5.24348
-4.66445
-4.14273
-3.67217
-3.24721
-2.86281
-2.51437
-2.19768
-1.90893
-1.64462
-1.4018
-1.17737
-0.970001
-0.775177
-0.597919
-0.419712
-0.285876
-0.0704516
-0.157953
-42.4111
-48.9189
-50.7338
-50.0282
-47.7697
-44.6673
-41.4428
-38.3894
-35.6242
-33.1807
-31.0188
-29.0642
-27.255
-25.5679
-24.0005
-22.5444
-21.1852
-19.9159
-18.7272
-17.5988
-16.5153
-15.4765
-14.506
-13.6068
-12.676
-11.6606
-10.5305
-9.29958
-7.99554
-6.64005
-5.24861
-3.83248
-2.39917
-0.952582
0.506496
1.97896
3.46406
4.95572
6.43764
7.88039
9.23945
10.4537
11.4474
12.1345
12.4238
12.2198
11.4203
9.91445
7.58435
4.31566
0.0152328
-5.36312
-11.7913
-19.1432
-27.1569
-35.4081
-43.2849
-49.8995
-54.3593
-56.237
-55.4947
-52.532
-48.1745
-43.2861
-38.4591
-33.9956
-30.0064
-26.5009
-23.4419
-20.7767
-18.4507
-16.4143
-14.6244
-13.0449
-11.6455
-10.4016
-9.29237
-8.30087
-7.41275
-6.61595
-5.90012
-5.25635
-4.67682
-4.15464
-3.68362
-3.25819
-2.87328
-2.52428
-2.20698
-1.91757
-1.65254
-1.40896
-1.18373
-0.975551
-0.779856
-0.601878
-0.422724
-0.288608
-0.0737674
-0.156842
-42.6017
-48.9689
-50.772
-50.0753
-47.8162
-44.701
-41.4671
-38.4093
-35.6418
-33.1973
-31.0354
-29.0811
-27.2717
-25.584
-24.0158
-22.5585
-21.1976
-19.9262
-18.7354
-17.6049
-16.5183
-15.4754
-14.5008
-13.6051
-12.6794
-11.6685
-10.5404
-9.31109
-8.00908
-6.65581
-5.26663
-3.85279
-2.42187
-0.97781
0.478597
1.94833
3.43074
4.91987
6.39943
7.83997
9.19685
10.4086
11.3993
12.0824
12.3667
12.157
11.3517
9.8403
7.50537
4.23293
-0.0697519
-5.44846
-11.8741
-19.2214
-27.2356
-35.5019
-43.4362
-50.1832
-54.7749
-56.7515
-56.0522
-53.048
-48.5951
-43.6073
-38.7011
-34.1805
-30.1517
-26.6183
-23.5392
-20.8588
-18.5211
-16.4753
-14.6779
-13.0922
-11.6879
-10.4399
-9.3274
-8.33327
-7.44303
-6.64451
-5.92726
-5.28229
-4.7017
-4.17851
-3.70649
-3.28003
-2.89402
-2.54382
-2.22521
-1.93437
-1.6678
-1.42259
-1.19562
-0.985683
-0.788104
-0.608526
-0.42727
-0.292633
-0.0758972
-0.15706
-42.8272
-49.0289
-50.8247
-50.1417
-47.8829
-44.7495
-41.5023
-38.4381
-35.6674
-33.2214
-31.0596
-29.1056
-27.296
-25.6074
-24.038
-22.579
-21.216
-19.9424
-18.7493
-17.6151
-16.5216
-15.4732
-14.4967
-13.6102
-12.6921
-11.6869
-10.5618
-9.33489
-8.03502
-6.68364
-5.2963
-3.8845
-2.45596
-1.01468
0.438468
1.90448
3.38275
4.86743
6.34232
7.77802
9.12994
10.3364
11.3209
11.9967
12.2723
12.0527
11.237
9.71535
7.37117
4.0915
-0.215197
-5.59348
-12.0119
-19.3447
-27.3453
-35.6072
-43.5764
-50.4649
-55.239
-57.3697
-56.7794
-53.7596
-49.1944
-44.0738
-39.056
-34.4529
-30.3654
-26.7902
-23.6808
-20.9777
-18.6226
-16.5633
-14.755
-13.1606
-11.7493
-10.4956
-9.37859
-8.38077
-7.48754
-6.68653
-5.96719
-5.32037
-4.73808
-4.21326
-3.7396
-3.31142
-2.92359
-2.57143
-2.25071
-1.95761
-1.68864
-1.44092
-1.21135
-0.99883
-0.798545
-0.616706
-0.432485
-0.297264
-0.0764745
-0.159766
-43.0764
-49.0848
-50.8824
-50.2203
-47.9653
-44.8101
-41.547
-38.4754
-35.7006
-33.2527
-31.0909
-29.1374
-27.3274
-25.6375
-24.0666
-22.6058
-21.2404
-19.9643
-18.7683
-17.6303
-16.5324
-15.4813
-14.5051
-13.6286
-12.7178
-11.7184
-10.5945
-9.36699
-8.06695
-6.71633
-5.33058
-3.92104
-2.49541
-1.05772
0.391064
1.85188
3.3241
4.80193
6.26922
7.69664
9.03964
10.2363
11.2098
11.8727
12.1334
11.8977
11.0652
9.52767
7.16986
3.88059
-0.429603
-5.80352
-12.2066
-19.5111
-27.4793
-35.7151
-43.6911
-50.7125
-55.7178
-58.0251
-57.6051
-54.6119
-49.9342
-44.6597
-39.5065
-34.8007
-30.639
-27.0106
-23.8623
-21.1303
-18.753
-16.6763
-14.8544
-13.2491
-11.829
-10.5683
-9.4455
-8.44299
-7.54588
-6.7416
-6.01941
-5.37003
-4.78533
-4.25815
-3.7821
-3.35145
-2.961
-2.60606
-2.28239
-1.98619
-1.71397
-1.4629
-1.2299
-1.01402
-0.810265
-0.625544
-0.437553
-0.301659
-0.0747187
-0.164479
-43.3735
-49.1302
-50.9362
-50.304
-48.0593
-44.8805
-41.5998
-38.5199
-35.7406
-33.2906
-31.1288
-29.1758
-27.3652
-25.6737
-24.101
-22.6383
-21.2706
-19.9918
-18.7928
-17.6529
-16.5548
-15.505
-14.5308
-13.661
-12.7545
-11.7585
-10.6325
-9.40316
-8.10311
-6.75377
-5.37016
-3.96352
-2.54154
-1.10838
0.334857
1.78897
3.25321
4.72183
6.17866
7.59447
8.92484
10.1077
11.0657
11.711
11.9521
11.6951
10.841
9.283
6.90799
3.60715
-0.706137
-6.07235
-12.4535
-19.7184
-27.6376
-35.8267
-43.7748
-50.8898
-56.1523
-58.6488
-58.4503
-55.5429
-50.7715
-45.3356
-40.0325
-35.2098
-30.9623
-27.2716
-24.0777
-21.3116
-18.9083
-16.8115
-14.9736
-13.3557
-11.9254
-10.6564
-9.52689
-8.51881
-7.61699
-6.80865
-6.08284
-5.43013
-4.84224
-4.31192
-3.83269
-3.39873
-3.00484
-2.64631
-2.31887
-2.01875
-1.7425
-1.48734
-1.25022
-1.03034
-0.822547
-0.63449
-0.442155
-0.305609
-0.0706605
-0.171472
-43.6689
-49.1511
-50.977
-50.3797
-48.1537
-44.9534
-41.6562
-38.569
-35.7856
-33.3336
-31.1721
-29.22
-27.4087
-25.7155
-24.141
-22.6763
-21.3062
-20.0247
-18.8231
-17.6826
-16.5875
-15.5438
-14.5749
-13.7058
-12.8009
-11.8058
-10.675
-9.44314
-8.1429
-6.79482
-5.41351
-4.0101
-2.59232
-1.16448
0.272113
1.71806
3.17247
4.62958
6.07322
7.47432
8.78864
9.95397
10.8927
11.5162
11.7332
11.4505
10.5704
8.98799
6.59274
3.27889
-1.0365
-6.39107
-12.7437
-19.9585
-27.8133
-35.9391
-43.8319
-50.9906
-56.5063
-59.2237
-59.2623
-56.503
-51.6689
-46.0741
-40.6138
-35.6656
-31.3246
-27.5654
-24.3212
-21.5173
-19.0852
-16.966
-15.1106
-13.4786
-12.037
-10.7588
-9.62163
-8.60712
-7.69979
-6.88659
-6.15637
-5.49952
-4.90764
-4.37336
-3.89012
-3.45205
-3.05391
-2.69096
-2.35897
-2.05418
-1.77318
-1.51327
-1.27142
-1.047
-0.834684
-0.642907
-0.445793
-0.308577
-0.0641209
-0.180164
-43.9182
-49.152
-51.0155
-50.4548
-48.2507
-45.0277
-41.7143
-38.6207
-35.8338
-33.3804
-31.2197
-29.2688
-27.4571
-25.7622
-24.1859
-22.7194
-21.3469
-20.063
-18.8598
-17.7208
-16.6321
-15.5989
-14.6359
-13.7596
-12.8556
-11.8575
-10.7201
-9.48543
-8.18509
-6.83841
-5.45962
-4.05976
-2.6467
-1.22492
0.204011
1.64046
3.08333
4.52685
5.95487
7.33855
8.63393
9.77872
10.6949
11.2934
11.4829
11.171
10.2614
8.65154
6.23375
2.90597
-1.41041
-6.74959
-13.0678
-20.224
-28.0011
-36.0494
-43.8666
-51.0164
-56.7546
-59.7475
-59.9965
-57.4449
-52.5903
-46.8486
-41.231
-36.1538
-31.7154
-27.8843
-24.5867
-21.7429
-19.2802
-17.1372
-15.263
-13.616
-12.1622
-10.8738
-9.72826
-8.70653
-7.7929
-6.97404
-6.23861
-5.57682
-4.98014
-4.44109
-3.95302
-3.51004
-3.10685
-2.73874
-2.40147
-2.09134
-1.80497
-1.53975
-1.2927
-1.06336
-0.846219
-0.650503
-0.44843
-0.310572
-0.0557413
-0.190168
-44.1267
-49.1323
-51.0468
-50.5229
-48.3462
-45.1009
-41.7723
-38.6734
-35.8837
-33.4293
-31.2701
-29.3209
-27.5092
-25.813
-24.2351
-22.7669
-21.3923
-20.1069
-18.9036
-17.7675
-16.6874
-15.6682
-14.7096
-13.8184
-12.9178
-11.9109
-10.7667
-9.5297
-8.2294
-6.88418
-5.508
-4.11193
-2.70394
-1.28879
0.131647
1.55748
2.98736
4.41553
5.82589
7.18987
8.46393
9.58571
10.4768
11.0476
11.2069
10.8632
9.92175
8.28221
5.84047
2.49849
-1.8174
-7.13741
-13.4157
-20.5063
-28.195
-36.1542
-43.8832
-50.9811
-56.8898
-60.1927
-60.6103
-58.3241
-53.5022
-47.6345
-41.866
-36.6612
-32.1248
-28.2208
-24.8688
-21.9839
-19.4898
-17.3222
-15.4285
-13.7657
-12.299
-10.9999
-9.84515
-8.81548
-7.89479
-7.06951
-6.32808
-5.66056
-5.05828
-4.51365
-4.01999
-3.57132
-3.16236
-2.78839
-2.44521
-2.12915
-1.83692
-1.56598
-1.31341
-1.0789
-0.856805
-0.657056
-0.450035
-0.311532
-0.0461123
-0.200647
-44.2936
-49.0842
-51.0672
-50.5802
-48.4376
-45.1713
-41.829
-38.7261
-35.9342
-33.4793
-31.3221
-29.3753
-27.5641
-25.867
-24.288
-22.8185
-21.4422
-20.1565
-18.9543
-17.8221
-16.7516
-15.7475
-14.7941
-13.8788
-12.9852
-11.965
-10.8147
-9.57576
-8.2756
-6.93188
-5.55836
-4.1662
-2.76356
-1.35549
0.0557905
1.47008
2.88578
4.29714
5.6881
7.0305
8.2813
9.37809
10.2421
10.7831
10.9103
10.533
9.55816
7.88787
5.42173
2.06607
-2.24746
-7.54457
-13.7779
-20.7975
-28.3894
-36.2495
-43.8833
-50.8952
-56.9069
-60.5377
-61.0955
-59.1108
-54.3775
-48.4104
-42.5025
-37.1753
-32.5436
-28.5678
-25.162
-22.2362
-19.7105
-17.5181
-15.6046
-13.9256
-12.4454
-11.135
-9.97051
-8.93223
-8.00378
-7.17134
-6.42317
-5.74914
-5.1405
-4.58955
-4.08955
-3.63452
-3.21913
-2.83872
-2.48911
-2.16671
-1.86828
-1.59137
-1.33314
-1.0934
-0.866386
-0.662657
-0.450903
-0.311748
-0.0361529
-0.211022
-44.445
-49.0024
-51.0695
-50.6205
-48.5213
-45.2372
-41.8835
-38.7781
-35.9848
-33.5298
-31.3749
-29.431
-27.6208
-25.9234
-24.3437
-22.8735
-21.4965
-20.2117
-19.0115
-17.8835
-16.8234
-15.8329
-14.8863
-13.9422
-13.0538
-12.0199
-10.8641
-9.62362
-8.32367
-6.98141
-5.61055
-4.22237
-2.82527
-1.4246
-0.0229965
1.37902
2.77955
4.17287
5.543
6.86225
8.0882
9.15841
9.99376
10.5034
10.5969
10.1851
9.17627
7.47511
4.98511
1.61718
-2.69162
-7.96202
-14.1457
-21.0898
-28.5787
-36.3315
-43.8657
-50.7731
-56.8304
-60.7803
-61.4738
-59.7926
-55.1964
-49.1586
-43.126
-37.6851
-32.9632
-28.9188
-25.461
-22.4954
-19.9388
-17.7219
-15.7886
-14.0933
-12.5994
-11.2772
-10.1024
-9.05494
-8.11808
-7.2778
-6.52217
-5.84094
-5.22523
-4.66729
-4.16031
-3.69831
-3.27599
-2.88868
-2.53229
-2.20328
-1.89849
-1.61556
-1.35167
-1.1068
-0.875036
-0.667473
-0.451333
-0.311469
-0.0266018
-0.220652
-44.54
-48.8855
-51.0523
-50.6384
-48.5909
-45.295
-41.9342
-38.8287
-36.0349
-33.5802
-31.4281
-29.4873
-27.6786
-25.9813
-24.4017
-22.9317
-21.555
-20.272
-19.074
-17.95
-16.9023
-15.9224
-14.9781
-14.014
-13.1226
-12.0759
-10.9152
-9.6734
-8.37361
-7.03275
-5.66451
-4.28033
-2.88887
-1.49584
-0.104308
1.28485
2.66942
4.04369
5.39179
6.68657
7.88635
8.92863
9.73398
10.2109
10.27
9.8231
8.78047
7.04922
4.53686
1.15887
-3.14229
-8.38208
-14.5115
-21.3764
-28.7581
-36.3966
-43.8296
-50.6239
-56.6656
-60.8828
-61.7689
-60.3628
-55.943
-49.8639
-43.7241
-38.1806
-33.3757
-29.2674
-25.7608
-22.7576
-20.1713
-17.9307
-15.9779
-14.2663
-12.7586
-11.4244
-10.2389
-9.18165
-8.23581
-7.38708
-6.62337
-5.93431
-5.31092
-4.74542
-4.23096
-3.76155
-3.33192
-2.93745
-2.5741
-2.2384
-1.92727
-1.63839
-1.36903
-1.11923
-0.883004
-0.67183
-0.451758
-0.311087
-0.0182184
-0.229128
-44.5663
-48.7434
-51.0206
-50.6379
-48.646
-45.3424
-41.9791
-38.8765
-36.0838
-33.6301
-31.4812
-29.5439
-27.737
-26.0404
-24.4615
-22.9926
-21.6173
-20.3366
-19.1408
-18.02
-16.986
-16.0163
-15.0628
-14.0957
-13.1919
-12.1336
-10.9684
-9.72519
-8.42551
-7.08595
-5.72025
-4.34005
-2.95429
-1.56906
-0.187873
1.18799
2.55594
3.91034
5.23537
6.50458
7.67706
8.69029
9.46451
9.90778
9.93168
9.44981
8.37419
6.61437
4.08191
0.696822
-3.5933
-8.79847
-14.8693
-21.6518
-28.9234
-36.4422
-43.7715
-50.4483
-56.4269
-60.873
-62.0342
-60.8279
-56.6057
-50.5136
-44.2855
-38.6527
-33.774
-29.608
-26.0568
-23.0186
-20.4045
-18.1413
-16.1697
-14.4423
-12.9207
-11.5743
-10.3777
-9.3104
-8.3551
-7.49741
-6.7251
-6.02769
-5.39615
-4.82266
-4.30035
-3.82326
-3.38614
-2.98443
-2.61412
-2.27182
-1.9545
-1.65991
-1.38536
-1.13092
-0.890594
-0.676073
-0.452569
-0.310934
-0.0115656
-0.236102
-44.53
-48.5738
-50.9691
-50.616
-48.6847
-45.3771
-42.0161
-38.9201
-36.1307
-33.6791
-31.5338
-29.6003
-27.7955
-26.1001
-24.5225
-23.0557
-21.6827
-20.4044
-19.2103
-18.093
-17.0737
-16.1127
-15.1397
-14.1857
-13.2616
-12.193
-11.0237
-9.77916
-8.47948
-7.14111
-5.77786
-4.40159
-3.02152
-1.64416
-0.273523
1.08871
2.43955
3.77338
5.07449
6.31716
7.46139
8.44459
9.18674
9.59549
9.58389
9.06746
7.96012
6.17383
3.62418
0.235527
-4.03976
-9.20624
-15.2141
-21.9113
-29.071
-36.466
-43.6906
-50.254
-56.146
-60.7784
-62.2406
-61.1651
-57.166
-51.0945
-44.8002
-39.0934
-34.1514
-29.9351
-26.3442
-23.2746
-20.6351
-18.3508
-16.3614
-14.6185
-13.0834
-11.7247
-10.517
-9.43921
-8.47411
-7.60707
-6.82577
-6.11966
-5.47967
-4.89793
-4.36761
-3.88274
-3.43813
-3.02925
-2.65215
-2.30348
-1.98027
-1.6803
-1.40091
-1.14221
-0.898164
-0.680577
-0.454161
-0.311356
-0.00711037
-0.241375
-44.4379
-48.3751
-50.8965
-50.5717
-48.706
-45.3981
-42.0438
-38.9578
-36.1742
-33.7265
-31.5856
-29.6563
-27.8538
-26.16
-24.5845
-23.1205
-21.7504
-20.474
-19.2809
-18.1679
-17.165
-16.2131
-15.2136
-14.2803
-13.3323
-12.2545
-11.0814
-9.83547
-8.53568
-7.19838
-5.83746
-4.46502
-3.09062
-1.72116
-0.361184
0.987195
2.32053
3.63326
4.90973
6.12505
7.24021
8.19254
8.90177
9.27535
9.22814
8.67788
7.54052
5.73029
3.16677
-0.221488
-4.47786
-9.60151
-15.5423
-22.1515
-29.1981
-36.4664
-43.585
-50.0402
-55.8227
-60.5654
-62.3141
-61.3503
-57.6087
-51.5956
-45.2597
-39.4956
-34.5022
-30.2437
-26.619
-23.5219
-20.8596
-18.5561
-16.5501
-14.7926
-13.2443
-11.8735
-10.6545
-9.56624
-8.59113
-7.71453
-6.92402
-6.20902
-5.56043
-4.97038
-4.43206
-3.93951
-3.48758
-3.07177
-2.68818
-2.33349
-2.00477
-1.69982
-1.416
-1.15343
-0.906059
-0.68568
-0.456855
-0.312622
-0.00515642
-0.244821
-44.3208
-48.1493
-50.7998
-50.5048
-48.7092
-45.4049
-42.061
-38.9884
-36.2134
-33.7714
-31.6361
-29.7114
-27.9117
-26.2198
-24.6468
-23.1863
-21.8195
-20.5445
-19.3518
-18.2455
-17.2557
-16.316
-15.2944
-14.3748
-13.4047
-12.3185
-11.1418
-9.89433
-8.5943
-7.25792
-5.89922
-4.53051
-3.1617
-1.80012
-0.450853
0.883529
2.19909
3.4903
4.74153
5.92884
7.01424
7.93496
8.61058
8.94849
8.86579
8.28274
7.11733
5.28597
2.7122
-0.671428
-4.90458
-9.9813
-15.8508
-22.3694
-29.3023
-36.4421
-43.4531
-49.8037
-55.4583
-60.253
-62.2877
-61.4087
-57.9344
-52.0121
-45.6579
-39.8538
-34.8212
-30.5294
-26.8771
-23.7569
-21.075
-18.7544
-16.7332
-14.962
-13.4011
-12.0186
-10.7885
-9.68976
-8.70463
-7.81841
-7.01867
-6.29479
-5.63766
-5.03943
-4.49328
-3.99331
-3.53437
-3.112
-2.72233
-2.36206
-2.02826
-1.71877
-1.43096
-1.1649
-0.914594
-0.691682
-0.460916
-0.314957
-0.0058894
-0.246404
-44.1426
-47.8993
-50.6784
-50.4187
-48.6939
-45.3975
-42.0675
-39.0109
-36.2471
-33.813
-31.6847
-29.7654
-27.9687
-26.2792
-24.709
-23.2523
-21.8891
-20.6153
-19.4221
-18.3271
-17.3458
-16.4112
-15.387
-14.4689
-13.4796
-12.3855
-11.2051
-9.95598
-8.65555
-7.31997
-5.96333
-4.59823
-3.23491
-1.88116
-0.542594
0.777725
2.07533
3.34473
4.57028
5.72904
6.78415
7.67264
8.31405
8.61594
8.49812
7.88354
6.69229
4.8428
2.26255
-1.11209
-5.31763
-10.3433
-16.1377
-22.563
-29.3821
-36.3918
-43.2928
-49.5419
-55.0633
-59.8818
-62.2099
-61.3728
-58.1513
-52.3432
-45.9915
-40.1635
-35.1043
-30.7883
-27.1149
-23.9764
-21.2782
-18.943
-16.9084
-15.1246
-13.5519
-12.1581
-10.9174
-9.80831
-8.81331
-7.91763
-7.10881
-6.37624
-5.71082
-5.1047
-4.55108
-4.04407
-3.57855
-3.15008
-2.7548
-2.38943
-2.05104
-1.73746
-1.44608
-1.17691
-0.924035
-0.698818
-0.466526
-0.318514
-0.00936645
-0.24615
-43.9094
-47.6324
-50.5312
-50.3194
-48.6604
-45.3755
-42.0629
-39.0245
-36.2745
-33.8505
-31.7309
-29.8177
-28.0247
-26.3378
-24.7705
-23.3178
-21.9584
-20.686
-19.4915
-18.4106
-17.4379
-16.4942
-15.4885
-14.5626
-13.5573
-12.4556
-11.2716
-10.0207
-8.71969
-7.38474
-6.03001
-4.66839
-3.31045
-1.96443
-0.636521
0.669733
1.9493
3.19671
4.39625
5.5261
6.5505
7.40627
8.01301
8.27871
8.12633
7.48171
6.26697
4.40242
1.81949
-1.54176
-5.71527
-10.6859
-16.4012
-22.7307
-29.436
-36.3149
-43.1043
-49.2583
-54.6538
-59.4653
-62.0416
-61.2437
-58.2682
-52.591
-46.2586
-40.4218
-35.3478
-31.0168
-27.3293
-24.1774
-21.4666
-19.1194
-17.0732
-15.2783
-13.6947
-12.2905
-11.0395
-9.92063
-8.91614
-8.01134
-7.1938
-6.45291
-5.77959
-5.16601
-4.6054
-4.09185
-3.62028
-3.18623
-2.78586
-2.41588
-2.07338
-1.75616
-1.46162
-1.1897
-0.934584
-0.707256
-0.473789
-0.323378
-0.0155344
-0.244148
-43.63
-47.348
-50.3528
-50.2132
-48.6087
-45.3386
-42.0471
-39.0288
-36.2947
-33.8834
-31.774
-29.868
-28.0793
-26.3953
-24.8307
-23.3822
-22.0271
-20.7561
-19.5612
-18.4946
-17.5342
-16.5683
-15.5959
-14.6565
-13.6378
-12.5292
-11.3414
-10.0886
-8.78692
-7.45245
-6.09949
-4.7412
-3.38851
-2.05012
-0.732786
0.559449
1.82096
3.0463
4.21966
5.32037
6.31384
7.13652
7.70827
7.93778
7.75159
7.07856
5.84272
3.96618
1.3843
-1.95923
-6.09628
-11.0079
-16.6404
-22.8714
-29.4627
-36.2104
-42.887
-48.9531
-54.2311
-59.0034
-61.7591
-61.0354
-58.3015
-52.761
-46.4593
-40.6264
-35.5492
-31.2122
-27.5173
-24.3573
-21.6378
-19.2814
-17.2258
-15.4213
-13.8282
-12.4143
-11.1539
-10.0258
-9.01234
-8.09894
-7.27319
-6.52451
-5.84384
-5.22337
-4.65632
-4.13681
-3.65975
-3.22068
-2.81576
-2.44169
-2.09554
-1.77512
-1.4778
-1.20345
-0.946373
-0.717091
-0.48273
-0.329571
-0.024237
-0.240543
-43.3259
-47.0476
-50.1422
-50.1034
-48.5372
-45.2857
-42.0196
-39.0234
-36.3074
-33.9109
-31.8137
-29.9157
-28.1319
-26.4511
-24.8894
-23.4453
-22.0946
-20.825
-19.6316
-18.5776
-17.6386
-16.6441
-15.7049
-14.7514
-13.7214
-12.6063
-11.4148
-10.1599
-8.85745
-7.52333
-6.17197
-4.81687
-3.4693
-2.13841
-0.831564
0.446736
1.69024
2.89353
4.04064
5.11218
6.07462
6.86402
7.40059
7.59407
7.37499
6.67528
5.4207
3.53509
0.957885
-2.36373
-6.45995
-11.3086
-16.8546
-22.9842
-29.4616
-36.0777
-42.6397
-48.6233
-53.785
-58.4829
-61.3755
-60.7723
-58.2652
-52.8589
-46.5945
-40.7761
-35.7062
-31.372
-27.6768
-24.5139
-21.7897
-19.4272
-17.3645
-15.5523
-13.9509
-12.5286
-11.2596
-10.123
-9.10138
-8.18007
-7.34677
-6.59095
-5.90358
-5.27686
-4.70401
-4.17916
-3.6972
-3.25368
-2.84474
-2.46707
-2.11774
-1.79451
-1.49476
-1.21826
-0.959461
-0.728343
-0.493298
-0.337048
-0.0352295
-0.235525
-43.0326
-46.7217
-49.9078
-49.9846
-48.4395
-45.2151
-41.9798
-39.008
-36.312
-33.9327
-31.8493
-29.9605
-28.1823
-26.5051
-24.9465
-23.5071
-22.1611
-20.8928
-19.7045
-18.6567
-17.7457
-16.7327
-15.8141
-14.8483
-13.8082
-12.687
-11.4918
-10.2348
-8.93143
-7.59752
-6.24765
-4.89559
-3.55301
-2.22951
-0.933033
0.331439
1.55702
2.73838
3.85932
4.90179
5.83331
6.58936
7.09072
7.2485
6.99757
6.27286
5.00176
3.1098
0.54068
-2.75498
-6.80607
-11.5878
-17.0436
-23.0688
-29.4318
-35.9161
-42.3607
-48.2647
-53.3072
-57.9014
-60.9227
-60.4848
-58.1684
-52.8883
-46.6648
-40.8701
-35.8173
-31.4946
-27.8058
-24.6454
-21.9206
-19.5553
-17.4881
-15.67
-14.062
-12.6324
-11.3561
-10.212
-9.18298
-8.25456
-7.41449
-6.65228
-5.95893
-5.32665
-4.74867
-4.21912
-3.73286
-3.28546
-2.87302
-2.49222
-2.14012
-1.81444
-1.51258
-1.23417
-0.973834
-0.740962
-0.505373
-0.345714
-0.0481966
-0.229321
-42.7312
-46.3552
-49.6643
-49.8507
-48.3093
-45.1253
-41.9273
-38.9821
-36.3083
-33.9484
-31.8806
-30.0019
-28.23
-26.5572
-25.0021
-23.5678
-22.2268
-20.9587
-19.7815
-18.7346
-17.8456
-16.8347
-15.9246
-14.9475
-13.8982
-12.7713
-11.5724
-10.3133
-9.00895
-7.67516
-6.32663
-4.9775
-3.6398
-2.32358
-1.03736
0.213404
1.4212
2.58081
3.67576
4.68944
5.59031
6.31312
6.77941
6.90194
6.62022
5.87211
4.58644
2.69059
0.132715
-3.13317
-7.13495
-11.8458
-17.2076
-23.125
-29.3729
-35.7255
-42.0495
-47.8753
-52.8019
-57.279
-60.4498
-60.2223
-58.0268
-52.8526
-46.6711
-40.9081
-35.8818
-31.5787
-27.9032
-24.7506
-22.0295
-19.6647
-17.5955
-15.7738
-14.1608
-12.7255
-11.4429
-10.2924
-9.257
-8.32239
-7.4764
-6.70862
-6.01006
-5.37295
-4.79053
-4.2569
-3.76694
-3.31619
-2.90073
-2.51725
-2.16276
-1.83497
-1.53124
-1.25114
-0.989408
-0.754833
-0.518777
-0.355424
-0.0627725
-0.222182
-42.416
-45.9577
-49.4021
-49.7
-48.1474
-45.0166
-41.8615
-38.9454
-36.2961
-33.9577
-31.9071
-30.0393
-28.275
-26.6081
-25.0574
-23.6277
-22.292
-21.0228
-19.8602
-18.8162
-17.9331
-16.9428
-16.0358
-15.0489
-13.9914
-12.8591
-11.6567
-10.3955
-9.09005
-7.75628
-6.40901
-5.06271
-3.72978
-2.42075
-1.14469
0.0924962
1.28267
2.42077
3.49004
4.47536
5.34603
6.03586
6.46733
6.55516
6.2437
5.47357
4.17496
2.27734
-0.266375
-3.4989
-7.44732
-12.0832
-17.3472
-23.153
-29.2844
-35.5051
-41.7058
-47.4555
-52.2785
-56.6373
-59.9622
-59.9801
-57.8401
-52.7522
-46.6138
-40.8901
-35.899
-31.6236
-27.968
-24.8287
-22.1156
-19.7546
-17.6863
-15.8631
-14.247
-12.8075
-11.5199
-10.3642
-9.3235
-8.38367
-7.53267
-6.76015
-6.05717
-5.41596
-4.82976
-4.29269
-3.79959
-3.34599
-2.92798
-2.5422
-2.18567
-1.85605
-1.5507
-1.26905
-1.00604
-0.769784
-0.533287
-0.365998
-0.078564
-0.214369
-42.07
-45.5532
-49.085
-49.5449
-47.9609
-44.8906
-41.7823
-38.8978
-36.2752
-33.9604
-31.9284
-30.0734
-28.3186
-26.6594
-25.1139
-23.6875
-22.3569
-21.0857
-19.9391
-18.9041
-18.0074
-17.0555
-16.1468
-15.1521
-14.0876
-12.9503
-11.7446
-10.4812
-9.17468
-7.84088
-6.49479
-5.15125
-3.82304
-2.52112
-1.25514
-0.0313908
1.14136
2.25825
3.30226
4.25981
5.10086
5.75812
6.15512
6.20883
5.86857
5.07751
3.76722
1.86967
-0.657245
-3.85312
-7.7443
-12.3012
-17.4634
-23.1534
-29.166
-35.2545
-41.3285
-47.0054
-51.7391
-55.9885
-59.436
-59.6849
-57.5785
-52.5804
-46.4917
-40.8161
-35.8692
-31.6292
-28
-24.8793
-22.1784
-19.8249
-17.7602
-15.9378
-14.3205
-12.8783
-11.5873
-10.4275
-9.38259
-8.43854
-7.58346
-6.80706
-6.10044
-5.45586
-4.86654
-4.32661
-3.8309
-3.37493
-2.95478
-2.56708
-2.20881
-1.8776
-1.57082
-1.28776
-1.02353
-0.785603
-0.548647
-0.377233
-0.0951718
-0.206138
-41.7059
-45.1425
-48.7086
-49.4082
-47.7534
-44.7487
-41.6897
-38.8392
-36.2455
-33.9566
-31.9455
-30.1054
-28.3622
-26.7119
-25.1725
-23.7477
-22.4215
-21.1489
-20.0172
-19.0041
-18.074
-17.1728
-16.2579
-15.2571
-14.1865
-13.0447
-11.8358
-10.5704
-9.26277
-7.9289
-6.58395
-5.24312
-3.9196
-2.62473
-1.36875
-0.158321
0.997216
2.09328
3.11251
4.04301
4.8552
5.48039
5.84331
5.86348
5.49522
4.68402
3.36297
1.46708
-1.04066
-4.1969
-8.02724
-12.501
-17.5574
-23.127
-29.0174
-34.9733
-40.916
-46.5205
-51.1769
-55.3124
-58.8476
-59.2866
-57.2189
-52.3311
-46.3043
-40.6868
-35.7929
-31.5959
-27.9994
-24.9024
-22.2181
-19.8754
-17.8172
-15.998
-14.3814
-12.9382
-11.645
-10.4825
-9.43446
-8.48722
-7.62897
-6.84954
-6.14005
-5.49277
-4.90096
-4.35873
-3.86091
-3.40301
-2.9811
-2.59179
-2.23206
-1.89948
-1.59141
-1.30704
-1.04165
-0.802042
-0.564582
-0.388914
-0.11221
-0.197728
-41.3448
-44.7264
-48.324
-49.2685
-47.5148
-44.5901
-41.5822
-38.7682
-36.2066
-33.9465
-31.9591
-30.1361
-28.406
-26.7656
-25.2331
-23.8087
-22.485
-21.2144
-20.0932
-19.1207
-18.146
-17.2902
-16.3691
-15.3636
-14.2881
-13.1422
-11.9303
-10.6629
-9.35421
-8.02026
-6.67641
-5.33828
-4.01943
-2.7316
-1.48557
-0.288309
0.850258
1.9259
2.92096
3.82526
4.60942
5.20309
5.53231
5.51948
5.12387
4.29303
2.96196
1.06917
-1.41724
-4.53125
-8.29747
-12.6842
-17.6306
-23.075
-28.839
-34.661
-40.4671
-45.9952
-50.5811
-54.5774
-58.1609
-58.7794
-56.7567
-52.0044
-46.0529
-40.5033
-35.671
-31.5244
-27.9667
-24.8986
-22.235
-19.9066
-17.8577
-16.0439
-14.4299
-12.9873
-11.6934
-10.5293
-9.47931
-8.52986
-7.66937
-6.88771
-6.17609
-5.52679
-4.93307
-4.38906
-3.88959
-3.43016
-3.00684
-2.61621
-2.25524
-1.92147
-1.61225
-1.32666
-1.06013
-0.818841
-0.580813
-0.400826
-0.129323
-0.189352
-40.9787
-44.3334
-47.945
-49.0457
-47.2405
-44.4074
-41.4546
-38.6819
-36.1573
-33.9304
-31.9697
-30.1658
-28.45
-26.8204
-25.2958
-23.8713
-22.5469
-21.2831
-20.1682
-19.2447
-18.2365
-17.4067
-16.481
-15.4719
-14.3922
-13.2427
-12.0279
-10.7586
-9.44888
-8.11484
-6.77209
-5.43665
-4.12248
-2.84169
-1.60554
-0.42132
0.700546
1.75623
2.7278
3.60684
4.36388
4.92654
5.22241
5.17707
4.75467
3.90461
2.56419
0.675953
-1.78721
-4.85681
-8.55607
-12.8522
-17.6847
-22.999
-28.6314
-34.3174
-39.9813
-45.4252
-49.9449
-53.7757
-57.3604
-58.1744
-56.1869
-51.6006
-45.7399
-40.2676
-35.5052
-31.4159
-27.903
-24.8686
-22.2297
-19.9189
-17.882
-16.0759
-14.4664
-13.026
-11.7327
-10.5683
-9.51732
-8.56664
-7.70476
-6.92167
-6.20862
-5.55792
-4.96286
-4.41756
-3.91686
-3.45627
-3.03185
-2.64016
-2.27816
-1.94336
-1.63309
-1.34633
-1.07869
-0.835729
-0.59707
-0.41276
-0.146197
-0.181188
-40.6156
-43.9602
-47.546
-48.7168
-46.9369
-44.1929
-41.3031
-38.5795
-36.0981
-33.909
-31.9779
-30.195
-28.4943
-26.8764
-25.3606
-23.9365
-22.6081
-21.3564
-20.2394
-19.3571
-18.349
-17.5246
-16.594
-15.582
-14.4988
-13.3459
-12.1285
-10.8574
-9.54665
-8.21253
-6.87087
-5.53812
-4.22866
-2.95489
-1.7286
-0.557263
0.548194
1.58443
2.53325
3.38806
4.11888
4.651
4.91377
4.83648
4.3879
3.5191
2.17017
0.287985
-2.15022
-5.17363
-8.80359
-13.006
-17.7211
-22.9009
-28.3956
-33.942
-39.4582
-44.8066
-49.2684
-52.9234
-56.4888
-57.5331
-55.5205
-51.1202
-45.3677
-39.9821
-35.2973
-31.272
-27.8095
-24.8134
-22.2031
-19.913
-17.8907
-16.0945
-14.4912
-13.0545
-11.7631
-10.5995
-9.54865
-8.59766
-7.73523
-6.95146
-6.23764
-5.58614
-4.99025
-4.44412
-3.94259
-3.48118
-3.05593
-2.66342
-2.30057
-1.96487
-1.65365
-1.3658
-1.09707
-0.852444
-0.613096
-0.424522
-0.162564
-0.173377
-40.2517
-43.5867
-47.129
-48.3236
-46.6016
-43.9469
-41.1286
-38.4621
-36.0305
-33.8833
-31.9844
-30.224
-28.5392
-26.9338
-25.4276
-24.0052
-22.6708
-21.4371
-20.3089
-19.4388
-18.4727
-17.6435
-16.7083
-15.694
-14.6077
-13.4518
-12.232
-10.9591
-9.64741
-8.31319
-6.97261
-5.64255
-4.33782
-3.07108
-1.85461
-0.695998
0.393368
1.4107
2.33761
3.16928
3.87471
4.37662
4.60655
4.49803
4.0241
3.13732
1.78099
-0.0935339
-2.50524
-5.48107
-9.03989
-13.1461
-17.7411
-22.7824
-28.1329
-33.535
-38.8977
-44.1366
-48.5483
-52.0442
-55.5786
-56.9197
-54.7882
-50.57
-44.9406
-39.6496
-35.0495
-31.0946
-27.6877
-24.7343
-22.156
-19.8897
-17.8845
-16.1002
-14.5048
-13.0732
-11.785
-10.6232
-9.5734
-8.62298
-7.7608
-6.97706
-6.26312
-5.61137
-5.01515
-4.46861
-3.96661
-3.50468
-3.07887
-2.68573
-2.3222
-1.98572
-1.67364
-1.38476
-1.11498
-0.868733
-0.62866
-0.43594
-0.178211
-0.166022
-39.8888
-43.2143
-46.6956
-47.8849
-46.2324
-43.6718
-40.9333
-38.3319
-35.9562
-33.8546
-31.9898
-30.2532
-28.5848
-26.9924
-25.4965
-24.0777
-22.7374
-21.5255
-20.3902
-19.491
-18.5992
-17.7617
-16.824
-15.8079
-14.7189
-13.5603
-12.3382
-11.0637
-9.75104
-8.41671
-7.07718
-5.7498
-4.4498
-3.1901
-1.98338
-0.837337
0.236285
1.2353
2.14121
2.95085
3.63162
4.10354
4.30096
4.16223
3.66414
2.76051
1.39823
-0.466936
-2.85074
-5.77789
-9.26423
-13.2725
-17.7455
-22.6454
-27.8454
-33.0975
-38.3012
-43.4152
-47.7771
-51.1399
-54.5968
-56.2596
-53.9811
-49.9575
-44.4643
-39.2737
-34.7646
-30.8857
-27.5392
-24.6324
-22.0896
-19.8498
-17.864
-16.0934
-14.5075
-13.0823
-11.7983
-10.6394
-9.59164
-8.64262
-7.78145
-6.99841
-6.28495
-5.63349
-5.0374
-4.49084
-3.98872
-3.52655
-3.1004
-2.70683
-2.34276
-2.00563
-1.69279
-1.40295
-1.13217
-0.884369
-0.643556
-0.446863
-0.192975
-0.159189
-39.5359
-42.8447
-46.251
-47.4099
-45.8308
-43.371
-40.7204
-38.1915
-35.877
-33.8238
-31.9944
-30.2828
-28.6313
-27.0525
-25.567
-24.1529
-22.8057
-21.6193
-20.5057
-19.5427
-18.7229
-17.8796
-16.941
-15.9235
-14.8324
-13.6713
-12.4471
-11.1711
-9.85743
-8.52297
-7.18444
-5.85971
-4.56442
-3.31174
-2.11473
-0.981055
0.0772046
1.05855
1.94445
2.73315
3.38983
3.8319
3.99736
3.82985
3.30917
2.39022
1.02368
-0.830372
-3.18495
-6.06247
-9.47536
-13.3848
-17.7349
-22.4914
-27.5357
-32.6321
-37.6726
-42.6455
-46.9515
-50.1919
-53.4967
-55.408
-53.0755
-49.289
-43.946
-38.8585
-34.4452
-30.6476
-27.3657
-24.5092
-22.0048
-19.7941
-17.8298
-16.0747
-14.4997
-13.0821
-11.8034
-10.6483
-9.60339
-8.65657
-7.79711
-7.01543
-6.30301
-5.65233
-5.0568
-4.51061
-4.00867
-3.54653
-3.12026
-2.72643
-2.36197
-2.02432
-1.71081
-1.42011
-1.14841
-0.899147
-0.657613
-0.457167
-0.206739
-0.152912
-39.1845
-42.4764
-45.7979
-46.9081
-45.4022
-43.0494
-40.494
-38.0439
-35.7946
-33.7916
-31.9986
-30.3128
-28.6792
-27.1144
-25.6391
-24.2314
-22.8767
-21.7084
-20.6491
-19.6188
-18.8434
-17.9981
-17.0595
-16.0411
-14.948
-13.7847
-12.5586
-11.2811
-9.96648
-8.63183
-7.29423
-5.97209
-4.68149
-3.4358
-2.24841
-1.12689
-0.0835698
0.88083
1.74778
2.5166
3.14958
3.56192
3.6963
3.50186
2.96045
2.02798
0.659032
-1.18214
-3.50618
-6.3332
-9.67195
-13.4822
-17.7091
-22.3218
-27.2072
-32.1425
-37.0178
-41.8355
-46.0701
-49.1959
-52.2871
-54.3818
-52.163
-48.5794
-43.3911
-38.4076
-34.0943
-30.3823
-27.1691
-24.366
-21.9028
-19.7234
-17.7826
-16.0445
-14.4817
-13.0727
-11.8003
-10.6499
-9.60863
-8.66474
-7.80768
-7.02796
-6.31713
-5.66771
-5.07314
-4.52766
-4.0262
-3.56433
-3.13815
-2.74424
-2.37955
-2.04149
-1.72745
-1.436
-1.1635
-0.912892
-0.670689
-0.466751
-0.219431
-0.147197
-38.8377
-42.1084
-45.3383
-46.3893
-44.9547
-42.7131
-40.2585
-37.8917
-35.7102
-33.7587
-32.0025
-30.3434
-28.7283
-27.1784
-25.7127
-24.3126
-22.9557
-21.79
-20.7841
-19.7314
-18.9653
-18.1178
-17.1795
-16.1605
-15.0657
-13.9006
-12.6727
-11.3937
-10.0781
-8.74319
-7.40642
-6.08677
-4.80082
-3.56205
-2.38417
-1.27457
-0.245696
0.702568
1.55171
2.30164
2.91109
3.29389
3.3985
3.17928
2.61915
1.67506
0.305627
-1.52091
-3.81312
-6.58876
-9.85286
-13.5637
-17.6682
-22.1375
-26.8626
-31.6329
-36.3436
-40.997
-45.1337
-48.1654
-51.0115
-53.2716
-51.3613
-47.8272
-42.7972
-37.9225
-33.714
-30.0921
-26.9509
-24.204
-21.7844
-19.6385
-17.7228
-16.0033
-14.4538
-13.0544
-11.7891
-10.6442
-9.6073
-8.66706
-7.81304
-7.03585
-6.32712
-5.6794
-5.08618
-4.54173
-4.04102
-3.57966
-3.15378
-2.75997
-2.3952
-2.0569
-1.74247
-1.45042
-1.17724
-0.92546
-0.682674
-0.475536