/*--------------------------------*- C++ -*----------------------------------*\
| =========                 |                                                 |
| \\      /  F ield         | OpenFOAM: The Open Source CFD Toolbox           |
|  \\    /   O peration     | Version:  4.1                                   |
|   \\  /    A nd           | Web:      www.OpenFOAM.org                      |
|    \\/     M anipulation  |                                                 |
\*---------------------------------------------------------------------------*/
FoamFile
{
    version     2.0;
    format      ascii;
    class       surfaceScalarField;
    location    "400";
    object      phi;
}
// * * * * * * * * * * * * * * * * * * * * * * * * * * * * * * * * * * * * * //

dimensions      [0 3 -1 0 0 0 0];

internalField   nonuniform List<scalar> 
52920
(
2380.13
-207.488
2491.25
-111.124
2522.13
-30.874
2492.31
29.8192
2427.53
64.7745
2349.83
77.7062
2268.46
81.3641
2186.46
81.9994
2105.04
81.4205
2024.62
80.4242
1944.92
79.7031
1865.31
79.6066
1785.39
79.9243
1705.2
80.1885
1625.31
79.8918
1547.07
78.2389
1472.95
74.1177
1406.15
66.8014
1349.83
56.3199
1306.6
43.227
1278.49
28.1178
1269.29
9.1964
1285.09
-15.794
1329.41
-44.3198
1405.1
-75.6885
1509.33
-104.23
1636.77
-127.449
1782.56
-145.789
1943.23
-160.667
2116.73
-173.501
2301.94
-185.208
2498.22
-196.273
2705.17
-206.952
2922.59
-217.424
3150.49
-227.895
3389.14
-238.655
3639.21
-250.072
3901.77
-262.558
4178.26
-276.484
4470.39
-292.136
4780.09
-309.7
5109.32
-329.223
5459.92
-350.605
5833.55
-373.63
6231.6
-398.05
6655.22
-423.622
7105.24
-450.019
7581.87
-476.625
8084.15
-502.28
8609.23
-525.08
9151.5
-542.276
9701.81
-550.303
10246.6
-544.781
10766.8
-520.173
11236.6
-469.856
11624.2
-387.564
11894.3
-270.154
12017.9
-123.538
11983.4
34.4402
11801.1
182.31
11502
299.136
11129.9
372.079
10726.4
403.538
10320.7
405.7
9929.63
391.043
9561.32
368.309
9218.66
342.655
8901.84
316.821
8609.7
292.142
8340.49
269.208
8092.25
248.243
7862.94
229.305
7650.57
212.377
7453.16
197.409
7268.83
184.325
7095.8
173.027
6932.41
163.389
6777.16
155.257
6628.71
148.45
6485.94
142.768
6347.95
137.993
6214.04
133.905
6083.76
130.285
5956.83
126.924
5833.2
123.634
5712.95
120.247
5596.33
116.62
5483.69
112.639
5375.48
108.216
5272.19
103.291
5174.36
97.8269
5082.55
91.8142
4997.29
85.2544
4919.09
78.2046
4848.43
70.654
4785.59
62.848
4731.04
54.5445
4684.6
46.4362
4645.53
39.0713
26.2754
2362.76
-407.706
2475.39
-223.758
2510.2
-65.6857
2482.78
57.2407
2418.79
128.767
2341.21
155.284
2259.84
162.733
2177.93
163.911
2096.79
162.562
2016.85
160.364
1937.78
158.77
1858.88
158.515
1779.65
159.15
1700.23
159.606
1621.5
158.628
1545.28
154.461
1474.1
145.293
1409.82
131.081
1352.91
113.236
1305.37
90.7663
1276.79
56.7
1285.46
0.518195
1341.87
-72.1954
1435.18
-137.631
1550.04
-190.548
1675.28
-229.473
1806.9
-259.069
1944.95
-283.842
2090.54
-306.25
2244.6
-327.566
2407.66
-348.269
2579.86
-368.466
2761.07
-388.167
2951.09
-407.443
3149.72
-426.525
3356.96
-445.889
3573.12
-466.239
3799.03
-488.463
4036.01
-513.461
4285.91
-542.034
4551.03
-574.824
4833.99
-612.188
5137.53
-654.144
5464.29
-700.39
5816.72
-750.48
6197.03
-803.927
6607.09
-860.081
7048.21
-917.745
7520.61
-974.675
8022.71
-1027.19
8550.43
-1070
9096.52
-1096.39
9650.15
-1098.4
10196
-1066.04
10712.8
-986.683
11171.2
-845.947
11531.6
-630.49
11748.1
-340.068
11788.5
-5.96246
11652.4
318.386
11374.3
577.222
11007.8
738.658
10603.1
808.206
10195.1
813.657
9803.25
782.927
9436.3
735.261
9097.13
681.823
8785.51
628.444
8499.75
577.898
8237.6
531.357
7996.63
489.214
7774.43
451.509
7568.68
418.123
7377.23
388.866
7198.05
363.5
7029.33
341.743
6869.45
323.271
6717
307.714
6570.78
294.664
6429.86
283.689
6293.51
274.339
6161.25
266.17
6032.78
258.753
5908.02
251.689
5787.03
244.619
5670.04
237.233
5557.39
229.27
5449.51
220.527
5346.87
210.853
5250.01
200.151
5159.46
188.373
5075.75
175.528
4999.35
161.653
4930.66
146.893
4870.03
131.285
4817.53
115.345
4773.43
98.6447
4737.07
82.801
4708.67
67.466
45.4487
2290.94
-602.781
2406.78
-339.599
2448.17
-107.079
2426.16
79.2597
2365.16
189.767
2289.19
231.25
2208.8
243.123
2127.65
245.057
2047.32
242.892
1968.39
239.298
1890.56
236.598
1813.08
236
1735.44
236.785
1657.99
237.055
1582.05
234.577
1509.38
227.129
1440.83
213.846
1375.57
196.335
1314.83
173.973
1268.21
137.387
1251.94
72.9784
1271.62
-19.1666
1310.79
-111.368
1346.67
-173.508
1376.05
-219.921
1407.53
-260.958
1451
-302.536
1511.89
-344.731
1591.1
-385.459
1687.32
-423.786
1798.74
-459.691
1923.76
-493.485
2061.11
-525.521
2209.86
-556.195
2369.41
-586.067
2539.56
-616.042
2720.72
-647.397
2913.98
-681.729
3121.2
-720.674
3344.84
-765.676
3587.86
-817.842
3853.37
-877.696
4144.31
-945.087
4463.17
-1019.25
4811.88
-1099.18
5191.84
-1183.89
5604.01
-1272.25
6048.79
-1362.53
6525.65
-1451.53
7032.61
-1534.15
7565.72
-1603.11
8118.74
-1649.42
8683.12
-1662.78
9247.71
-1630.63
9797.74
-1536.71
10312.7
-1360.86
10761.5
-1079.31
11098.6
-677.238
11271.8
-179.146
11249.8
340.449
11051.5
775.476
10734.9
1055.23
10361.3
1181.89
9974.13
1200.79
9598.21
1158.84
9245.1
1088.37
8918.86
1008.06
8619.67
927.637
8345.87
851.699
8095.05
782.177
7864.58
719.687
7651.85
664.233
7454.43
615.543
7270.09
573.213
7096.83
536.762
6932.92
505.651
6776.9
479.292
6627.56
457.049
6483.97
438.257
6345.42
422.237
6211.45
408.31
6081.8
395.823
5956.39
384.161
5835.31
372.766
5718.78
361.148
5607.13
348.891
5500.74
335.66
5400.06
321.201
5305.57
305.343
5217.73
287.995
5136.96
269.142
5063.64
248.854
4998.04
227.252
4940.32
204.61
4890.55
181.06
4848.5
157.387
4814.11
133.039
4786.38
110.533
4765.68
88.1581
60.0882
2184.72
-792.58
2303.76
-458.634
2353.37
-156.696
2339.41
93.2192
2283.81
245.376
2211.33
303.722
2133.25
321.207
2053.69
324.619
1974.58
321.997
1896.76
317.116
1820.05
313.312
1743.73
312.32
1667.55
312.97
1592.31
312.291
1519.36
307.526
1449.05
297.437
1380.34
282.559
1313.84
262.837
1256.04
231.777
1215.14
178.284
1187.01
101.108
1151.77
16.0735
1092.6
-52.1997
1011.59
-92.4982
937.183
-145.509
895.9
-219.674
896.241
-302.878
932.212
-380.701
994.244
-447.489
1075.32
-504.863
1171.46
-555.83
1280.56
-602.584
1401.51
-646.468
1533.76
-688.452
1677.27
-729.567
1832.49
-771.27
2000.58
-815.478
2183.32
-864.478
2383.11
-920.463
2602.63
-985.192
2844.61
-1059.82
3111.5
-1144.59
3405.23
-1238.82
3727.03
-1341.05
4077.57
-1449.72
4457.17
-1563.49
4866.01
-1681.09
5303.98
-1800.5
5770.39
-1917.94
6263.37
-2027.13
6779.47
-2119.2
7313.44
-2183.4
7858.52
-2207.86
8406.69
-2178.8
8948.41
-2078.44
9471.44
-1883.89
9956.34
-1564.22
10367.1
-1088.01
10646.7
-458.762
10737.4
249.755
10629.9
882.99
10377.4
1307.7
10048.6
1510.7
9694.83
1554.6
9345.55
1508.12
9014.97
1418.95
8708.46
1314.57
8426.81
1209.29
8168.62
1109.88
7931.61
1019.19
7713.19
938.111
7510.8
866.618
7322.1
804.251
7144.96
750.344
6977.6
704.125
6818.5
664.754
6666.44
631.345
6520.51
602.982
6380.03
578.738
6244.57
557.696
6113.91
538.973
5987.99
521.736
5866.93
505.224
5750.93
488.762
5640.31
471.772
5535.42
453.781
5436.66
434.422
5344.42
413.438
5259.08
390.681
5180.97
366.108
5110.33
339.775
5047.34
311.847
4992.04
282.557
4944.33
252.321
4904
221.389
4870.6
190.787
4843.77
159.87
4822.33
131.969
4806.65
103.84
72.4163
2054.67
-967.931
2174.26
-578.226
2234.47
-216.908
2232.57
95.1233
2185.59
292.349
2118.96
370.358
2044.79
395.371
1967.86
401.552
1890.57
399.284
1814.07
393.618
1738.33
389.055
1662.88
387.77
1587.98
387.877
1514.69
385.578
1443.49
378.728
1373.42
367.501
1304.58
351.403
1241.2
326.217
1188.38
284.593
1141.1
225.571
1078.3
163.905
978.241
116.133
842.479
83.5636
699.526
50.4551
602.963
-48.9447
575.443
-192.153
599.555
-326.989
651.447
-432.593
718.478
-514.52
796.238
-582.622
883.506
-643.099
980.035
-699.112
1085.93
-752.366
1201.62
-804.135
1327.9
-855.851
1466.13
-909.502
1618.23
-967.569
1786.57
-1032.82
1973.77
-1107.66
2182.29
-1193.71
2414.28
-1291.8
2671.33
-1401.64
2954.41
-1521.9
3263.84
-1650.49
3599.58
-1785.46
3961.51
-1925.42
4349.65
-2069.22
4763.95
-2214.8
5203.92
-2357.9
5668
-2491.21
6153.14
-2604.35
6654.68
-2684.93
7166.75
-2719.94
7683.06
-2695.1
8197.23
-2592.61
8702.69
-2389.35
9189.85
-2051.38
9635.76
-1533.93
9990.88
-813.884
10181.8
58.8226
10164.2
900.639
9978.46
1493.41
9698.41
1790.75
9382.39
1870.61
9064.22
1826.29
8760.19
1722.98
8476.67
1598.09
8214.99
1470.97
7974.08
1350.79
7751.86
1241.4
7545.98
1143.99
7354.11
1058.49
7174.13
984.237
7004.19
920.276
6842.8
865.524
6688.72
818.83
6541.06
779.009
6399.16
744.876
6262.64
715.261
6131.29
689.042
6005.1
665.164
5884.18
642.656
5768.75
620.654
5659.11
598.41
5555.57
575.304
5458.51
550.846
5368.25
524.681
5285.1
496.586
5209.31
466.469
5141.06
434.365
5080.4
400.426
5027.32
364.934
4981.63
328.248
4943.02
290.932
4911.04
253.369
4885.03
216.794
4864.39
180.511
4847.79
148.567
4835.56
116.069
83.8997
1897.65
-1134.59
2014.66
-695.236
2081
-283.248
2092.45
83.6816
2058.76
326.036
2003.14
425.976
1937.5
461.013
1866.95
472.1
1794.4
471.837
1721.36
466.661
1648.12
462.289
1574.72
461.175
1501.84
460.757
1430.26
457.156
1359.64
449.352
1289.68
437.458
1223.03
418.06
1163.71
385.538
1109.63
338.672
1047.07
288.131
956.423
254.55
827.313
245.244
673.36
237.517
534.477
189.339
469.304
16.2298
477.506
-200.355
520.537
-370.018
576.038
-488.094
638.467
-576.948
707.379
-651.534
783.136
-718.855
866.151
-782.127
956.966
-843.181
1056.43
-903.596
1165.84
-965.263
1287.07
-1030.73
1422.49
-1102.99
1574.76
-1185.09
1746.43
-1279.34
1939.7
-1386.98
2156.19
-1508.3
2396.96
-1642.41
2662.41
-1787.35
2952.38
-1940.46
3266.44
-2099.52
3604.25
-2263.23
3965.74
-2430.71
4350.96
-2600.02
4759.59
-2766.54
5190.35
-2921.96
5640.48
-3054.48
6105.68
-3150.13
6580.57
-3194.83
7059.74
-3174.26
7538.52
-3071.4
8013.79
-2864.61
8483.22
-2520.81
8936.44
-1987.15
9337.59
-1215.03
9611.71
-215.302
9680.09
832.259
9560.66
1612.84
9329.49
2021.92
9051.88
2148.22
8765.76
2112.41
8489.26
1999.48
8229.57
1857.79
7988.4
1712.13
7765.02
1574.18
7557.65
1448.77
7364.23
1337.41
7182.76
1239.97
7011.45
1155.55
6848.81
1082.92
6693.65
1020.68
6545.09
967.391
6402.51
921.587
6265.55
881.84
6134.03
846.777
6007.96
815.107
5887.48
785.644
5772.82
757.322
5664.26
729.216
5562.12
700.547
5466.74
670.687
5378.41
639.17
5297.41
605.682
5223.93
570.067
5158.08
532.317
5099.88
492.568
5049.21
451.096
5005.83
408.315
4969.34
364.734
4939.2
321.07
4914.72
277.854
4895.02
236.488
4879.26
196.273
4866.02
161.809
4855.49
126.596
96.1625
1773.38
-1294.3
1885.14
-806.998
1947.1
-345.202
1957.19
73.5932
1925.84
357.383
1875.78
476.034
1816.95
519.848
1753.11
535.938
1686.57
538.377
1618.65
534.579
1549.76
531.18
1480.15
530.789
1410.36
530.544
1340.59
526.93
1270.73
519.209
1202.38
505.812
1138.99
481.443
1080.77
443.764
1019.09
400.349
937.97
369.253
825.303
367.217
685.093
385.455
543.859
378.752
444.191
289.007
424.493
35.9294
459.114
-234.976
508.98
-419.883
562.966
-542.08
620.838
-634.819
683.526
-714.222
751.642
-786.971
825.663
-856.147
906.212
-923.729
994.283
-991.667
1091.39
-1062.37
1199.64
-1138.98
1321.59
-1224.93
1459.96
-1323.46
1617.23
-1436.6
1795.35
-1565.1
1995.74
-1708.68
2219.21
-1865.88
2465.95
-2034.09
2735.55
-2210.06
3027.29
-2391.25
3340.57
-2576.51
3675.18
-2765.32
4031.12
-2955.97
4408.18
-3143.59
4805.27
-3319.05
5219.94
-3469.15
5648.24
-3578.43
6085.17
-3631.76
6525.8
-3614.9
6966.39
-3511.99
7405.47
-3303.7
7845.05
-2960.38
8284.97
-2427.07
8705
-1635.06
9041.38
-551.681
9190.11
683.524
9135.57
1667.38
8952.2
2205.29
8712.04
2388.39
8457.25
2367.2
8207.75
2248.98
7971.39
2094.15
7750.26
1933.26
7543.94
1780.5
7350.99
1641.72
7169.71
1518.7
6998.46
1411.21
6835.84
1318.17
6680.72
1238.04
6532.25
1169.15
6389.86
1109.78
6253.21
1058.24
6122.18
1012.88
5996.79
972.168
5877.2
934.693
5763.67
899.177
5656.49
864.501
5555.99
829.712
5462.5
794.037
5376.31
756.879
5297.65
717.824
5226.7
676.636
5163.51
633.253
5108.05
587.784
5060.12
540.499
5019.39
491.82
4985.39
442.319
4957.46
392.66
4934.82
343.711
4916.54
296.14
4901.57
251.458
4888.86
208.977
4877.04
173.635
4866.11
137.523
110.895
1648.33
-1445.97
1756.59
-915.254
1818.1
-406.714
1828.69
63.0058
1797.42
388.651
1749.12
524.337
1693.71
575.262
1634.25
595.398
1572.48
600.146
1509.45
597.613
1445.46
595.171
1380.45
595.797
1314.23
596.765
1246.65
594.506
1178.72
587.14
1113.29
571.247
1052.22
542.506
990.937
505.051
917.15
474.136
817.966
468.436
692.626
492.558
558.008
520.073
445.942
490.818
394.928
340.023
416.421
14.4375
467.386
-285.941
519.615
-472.111
572.115
-594.579
627.275
-689.979
686.375
-773.321
749.989
-850.584
818.527
-924.685
892.576
-997.778
973.129
-1072.22
1061.73
-1150.97
1160.52
-1237.78
1272.08
-1336.49
1399.08
-1450.46
1543.91
-1581.43
1708.43
-1729.62
1894.02
-1894.27
2101.51
-2073.37
2331.05
-2263.64
2582.07
-2461.08
2853.58
-2662.76
3144.65
-2867.59
3454.76
-3075.43
3783.69
-3284.89
4131.16
-3491.07
4496.23
-3684.12
4876.75
-3849.67
5269.21
-3970.88
5669.01
-4031.56
6071.61
-4017.5
6473.72
-3914.1
6874.6
-3704.57
7278.29
-3364.08
7691.41
-2840.19
8107.67
-2051.33
8482.42
-926.426
8702.3
463.644
8709.96
1659.72
8572.61
2342.64
8368.23
2592.77
8143.33
2592.09
7919.59
2472.73
7705.49
2308.24
7503.51
2135.25
7313.5
1970.5
7134.41
1820.82
6964.91
1688.2
6803.76
1572.36
6649.95
1471.98
6502.69
1385.3
6361.46
1310.37
6226
1245.25
6096.2
1188.03
5972.14
1136.93
5854.02
1090.29
5742.12
1046.59
5636.77
1004.53
5538.3
962.963
5447.07
920.949
5363.35
877.757
5287.37
832.858
5219.27
785.927
5159.06
736.843
5106.64
685.677
5061.73
632.688
5023.92
578.305
4992.63
523.114
4967.11
467.843
4946.47
413.302
4929.71
360.47
4915.73
310.114
4903.42
263.769
4891.64
220.762
4879.13
186.135
4865.78
150.882
129.574
1520.68
-1586.51
1625.08
-1019.66
1688.64
-470.269
1703.1
48.5502
1673.74
418.006
1627.1
570.981
1573.72
628.641
1516.72
652.395
1457.9
658.964
1398.47
657.049
1338.67
654.971
1277.8
656.668
1214.87
659.696
1149.92
659.453
1085.01
652.054
1022.65
633.608
961.528
603.624
893.127
573.451
805.169
562.095
692.605
581.001
567.393
617.772
453.739
633.727
377.806
566.752
373.563
344.267
426.929
-38.9275
485.178
-344.19
537.428
-524.361
588.69
-645.842
642.21
-743.498
699.209
-830.32
760.14
-911.515
825.305
-989.849
895.197
-1067.67
970.728
-1147.75
1053.36
-1233.61
1145.17
-1329.58
1248.64
-1439.95
1366.39
-1568.21
1500.73
-1715.77
1653.52
-1882.41
1826.24
-2066.99
2019.85
-2266.99
2234.6
-2478.38
2469.78
-2696.26
2724.12
-2917.09
2996.29
-3139.76
3285.29
-3364.43
3590.52
-3590.12
3911.45
-3812
4247.18
-4019.85
4595.91
-4198.4
4954.61
-4329.59
5319.24
-4396.19
5685.65
-4383.91
6050.84
-4279.29
6414.12
-4067.85
6779.93
-3729.89
7158.73
-3218.99
7555.7
-2448.3
7946.16
-1316.88
8223.33
186.479
8288.57
1594.47
8194.69
2436.52
8024.01
2763.45
7827.25
2788.85
7627.78
2672.2
7434.71
2501.31
7250.84
2319.11
7076.39
2144.96
6910.62
1986.58
6752.64
1846.18
6601.57
1723.42
6456.78
1616.77
6317.84
1524.24
6184.52
1443.69
6056.81
1372.96
5934.84
1310.01
5818.85
1252.92
5709.17
1199.97
5606.16
1149.6
5510.21
1100.48
5421.66
1051.51
5340.81
1001.8
5267.87
950.698
5202.94
897.783
5146
842.868
5096.87
785.98
5055.18
727.358
5020.44
667.429
4991.96
606.792
4968.89
546.181
4950.28
486.454
4935.06
428.52
4922.12
373.414
4910.29
321.94
4898.48
275.576
4885.58
233.662
4870.58
201.138
4853.2
168.261
153.226
1382.05
-1706.43
1481.68
-1119.29
1552.04
-540.626
1576.8
23.7877
1553.33
441.475
1509.98
614.333
1458.75
679.869
1403.4
707.746
1346.31
716.052
1289.22
714.145
1232.37
711.821
1174.46
714.581
1114.16
719.989
1052.1
721.516
990.556
713.6
930.1
694.065
865.76
667.965
787.235
651.977
686.748
662.582
570.053
697.697
458.758
729.067
376.908
715.578
337.042
606.618
371.109
310.202
445.101
-112.919
505.004
-404.093
556.363
-575.72
606.701
-696.179
659.231
-796.027
714.988
-886.077
774.286
-970.813
837.315
-1052.88
904.451
-1134.81
976.479
-1219.78
1054.72
-1311.85
1141.12
-1415.98
1238.03
-1536.87
1348.01
-1678.18
1473.33
-1841.1
1615.92
-2025
1777.45
-2228.52
1959.1
-2448.64
2161.21
-2680.5
2383.02
-2918.07
2622.96
-3157.04
2879.28
-3396.07
3150.41
-3635.56
3435.19
-3874.9
3732.76
-4109.56
4042.15
-4329.25
4361.9
-4518.15
4689.59
-4657.27
5021.77
-4728.38
5354.76
-4716.9
5685.76
-4610.28
6013.96
-4396.06
6343.28
-4059.21
6685.29
-3561
7052.33
-2815.34
7438.07
-1702.62
7756.8
-132.258
7874.14
1477.13
7820.97
2489.69
7681.82
2902.61
7511.37
2959.3
7334.66
2848.9
7161.41
2674.56
6994.72
2485.81
6835.12
2304.55
6682.28
2139.41
6535.67
1992.8
6394.81
1864.28
6259.4
1752.18
6129.34
1654.31
6004.68
1568.34
5885.64
1492
5772.52
1423.12
5665.72
1359.72
5565.65
1300.04
5472.72
1242.52
5387.32
1185.89
5309.73
1129.1
5240.17
1071.36
5178.71
1012.16
5125.26
951.231
5079.58
888.551
5041.23
824.33
5009.61
758.982
4983.94
693.1
4963.3
627.423
4946.69
562.798
4932.98
500.156
4921.06
440.446
4909.78
384.691
4898.04
333.684
4884.83
288.779
4869.16
249.339
4850.27
220.027
4827.79
190.736
182.441
1238.54
-1824.47
1333.1
-1213.85
1405.28
-612.798
1442.5
-13.4325
1430.6
453.376
1394.74
650.188
1347.72
726.887
1294.58
760.884
1238.95
771.685
1183.4
769.694
1128.3
766.923
1072.12
770.765
1013.85
778.256
954.642
780.723
895.86
772.382
835.009
754.917
764.277
738.697
675.137
741.117
568.205
769.514
459.153
806.749
372.158
816.063
325.163
762.574
321.359
610.424
384.293
247.269
465.146
-193.771
523.839
-462.785
573.986
-625.867
623.582
-745.774
675.461
-847.905
730.442
-941.057
788.71
-1029.08
850.34
-1114.51
915.578
-1200.04
985.045
-1289.24
1059.89
-1386.7
1141.86
-1497.95
1233.19
-1628.2
1336.35
-1781.34
1453.64
-1958.39
1587.11
-2158.46
1738.63
-2380.04
1909.65
-2619.66
2100.68
-2871.52
2310.87
-3128.25
2538.39
-3384.56
2781.06
-3638.73
3036.78
-3891.29
3303.8
-4141.93
3580.82
-4386.57
3866.78
-4615.21
4160.51
-4811.88
4460.19
-4956.96
4763.1
-5031.29
5066
-5019.79
5366.26
-4910.54
5662.83
-4692.63
5958.72
-4355.1
6265.08
-3867.36
6598.23
-3148.49
6964.65
-2069.04
7307.58
-475.187
7469.5
1315.22
7453.47
2505.71
7343.44
3012.65
7197.47
3105.27
7042.11
3004.26
6887.56
2829.11
6737.23
2636.14
6591.98
2449.81
6451.82
2279.57
6316.59
2128.02
6186.2
1994.68
6060.67
1877.71
5940.17
1774.8
5825.03
1683.49
5715.63
1601.4
5612.44
1526.31
5515.94
1456.22
5426.59
1389.39
5344.79
1324.32
5270.87
1259.82
5205
1194.96
5147.24
1129.12
5097.46
1061.95
5055.33
993.361
5020.35
923.532
4991.83
852.847
4968.93
781.881
4950.67
711.358
4935.99
642.108
4923.76
575.032
4912.84
511.07
4902.13
451.156
4890.57
396.248
4877.17
347.091
4861.07
304.874
4841.41
269.001
4817.72
243.718
4789.55
218.91
217.413
1121.76
-1937.2
1208.4
-1300.48
1272.72
-677.126
1310.58
-51.2899
1305.69
458.266
1278.52
677.366
1238.09
767.308
1188.89
810.085
1135.46
825.122
1081.27
823.879
1027.09
821.111
971.783
826.068
915.163
834.877
858.411
837.475
800.822
829.971
736.675
819.064
657.719
817.653
561.319
837.518
457.427
873.406
366.451
897.725
307.981
874.533
291.887
778.669
322.11
580.202
405.587
163.793
483.918
-272.101
539.961
-518.828
588.763
-674.668
637.695
-794.706
689.097
-899.307
743.577
-995.537
801.199
-1086.7
861.918
-1175.22
925.838
-1263.96
993.394
-1356.8
1065.51
-1458.82
1143.74
-1576.18
1230.15
-1714.6
1327.13
-1878.33
1437.04
-2068.29
1562.04
-2283.47
1704.31
-2522.31
1865.56
-2780.91
2046.44
-3052.4
2246.03
-3327.85
2462.28
-3600.81
2692.64
-3869.09
2934.57
-4133.22
3185.82
-4393.17
3444.62
-4645.38
3709.79
-4880.38
3980.36
-5082.45
4255.1
-5231.7
4531.96
-5308.15
4808.22
-5296.05
5081.41
-5183.73
5350.2
-4961.42
5616.53
-4621.43
5890.33
-4141.15
6189.42
-3447.58
6528.08
-2407.71
6878.48
-825.586
7076.96
1116.73
7093.93
2488.75
7010.35
3096.23
6887
3228.61
6751.65
3139.62
6614.85
2965.91
6480.23
2770.75
6348.97
2581.07
6221.42
2407.12
6097.77
2251.67
5978.26
2114.18
5863.23
1992.75
5753.1
1884.93
5648.38
1788.21
5549.63
1700.15
5457.4
1618.54
5372.22
1541.41
5294.52
1467.09
5224.64
1394.2
5162.77
1321.69
5108.92
1248.81
5062.92
1175.11
5024.41
1100.46
4992.81
1024.97
4967.36
948.977
4947.17
873.037
4931.21
797.838
4918.4
724.176
4907.59
652.914
4897.68
584.945
4887.58
521.168
4876.28
462.455
4862.86
409.671
4846.46
363.493
4826.41
324.923
4801.98
293.427
4772.98
272.721
4738.88
253.006
258.025
1001.38
-2041.67
1083.58
-1382.69
1144.67
-738.215
1182.56
-89.1797
1181.07
459.758
1161.2
697.238
1128.34
800.161
1084.77
853.659
1034.75
875.14
982.245
876.387
928.663
874.693
873.941
880.791
818.766
890.052
763.539
892.703
704.817
888.693
634.976
888.905
548.801
903.829
452.12
934.2
361.632
963.895
295.357
964.001
264.246
905.644
271.209
771.707
328.839
522.573
425.969
66.663
499.316
-345.448
552.132
-571.643
599.567
-722.103
647.885
-843.023
698.923
-950.345
753.099
-1049.71
810.359
-1143.96
870.539
-1235.4
933.586
-1327.01
999.731
-1422.94
1069.66
-1528.75
1144.67
-1651.19
1226.66
-1796.58
1317.95
-1969.62
1420.91
-2171.26
1537.91
-2400.47
1671.38
-2655.78
1823.33
-2932.87
1994.56
-3223.63
2184.08
-3517.36
2389.59
-3806.32
2608.31
-4087.81
2837.42
-4362.33
3074.27
-4630.02
3316.73
-4887.84
3563.42
-5127.06
3813.48
-5332.51
4066.15
-5484.37
4320.03
-5562.03
4572.9
-5548.92
4822.5
-5433.34
5067.26
-5206.18
5308.04
-4862.21
5552.88
-4385.99
5818.73
-3713.43
6125.08
-2714.05
6468.7
-1169.21
6696.74
888.693
6743.08
2442.41
6683.52
3155.79
6581.1
3331.03
6464.56
3256.16
6344.71
3085.77
6225.36
2890.11
6107.92
2698.51
5993.07
2521.97
5881.35
2363.4
5773.28
2222.25
5669.46
2096.57
5570.53
1983.86
5477.17
1881.57
5390.01
1787.31
5309.65
1698.9
5236.58
1614.48
5171.16
1532.51
5113.58
1451.77
5063.86
1371.41
5021.79
1290.88
4986.94
1209.96
4958.72
1128.69
4936.3
1047.38
4918.77
966.516
4905.05
886.753
4894.05
808.836
4884.65
733.578
4875.75
661.814
4866.31
594.383
4855.37
532.107
4842.05
475.772
4825.59
426.139
4805.27
383.811
4780.6
349.593
4751
323.03
4716.51
307.21
4676.57
292.944
303.915
875.076
-2132.87
954.198
-1461.81
1017.49
-801.503
1058.85
-130.539
1059.58
459.027
1044.85
711.963
1018.9
826.11
981.62
890.941
935.91
920.852
885.534
926.763
832.721
927.506
778.736
934.776
724.735
944.054
669.483
947.956
607.208
950.969
531.197
964.917
442.329
992.697
354.005
1022.52
284.828
1033.07
246.026
1002.8
238.802
912.869
260.566
749.943
339.148
443.992
443.425
-37.613
509.962
-411.984
559.4
-621.08
605.534
-768.237
653.304
-890.792
704.095
-1001.14
758.147
-1103.76
815.294
-1201.11
875.251
-1295.36
937.808
-1389.57
1002.98
-1488.12
1071.19
-1596.96
1143.48
-1723.48
1221.51
-1874.61
1307.53
-2055.65
1403.94
-2267.67
1513.26
-2509.78
1638.23
-2780.75
1781.18
-3075.81
1943.02
-3385.47
2122.67
-3697.01
2317.64
-4001.29
2524.99
-4295.17
2741.78
-4579.11
2965.15
-4853.39
3192.73
-5115.42
3422.9
-5357.24
3654.8
-5564.41
3887.97
-5717.54
4121.57
-5795.63
4353.93
-5781.28
4583.04
-5662.45
4807.18
-5430.32
5026.2
-5081.24
5246.4
-4606.18
5483.79
-3950.83
5760.03
-2990.28
6086.27
-1495.45
6332.58
642.376
6402.5
2372.49
6364
3194.29
6280.78
3414.25
6182.01
3354.93
6078.49
3189.29
5974.11
2994.49
5870.5
2802.13
5768.61
2623.85
5669.28
2462.73
5573.28
2318.25
5481.44
2188.41
5394.55
2070.75
5313.37
1962.75
5238.58
1862.1
5170.74
1766.74
5110.25
1674.97
5057.33
1585.43
5011.98
1497.13
4973.97
1409.41
4942.88
1321.97
4918.05
1234.78
4898.67
1148.08
4883.75
1062.3
4872.24
978.023
4863.04
895.951
4855.05
816.83
4847.2
741.43
4838.49
670.519
4828.02
604.854
4814.96
545.163
4798.59
492.142
4778.29
446.446
4753.49
408.604
4723.87
379.222
4688.97
357.926
4649.08
347.098
4603.61
338.414
354.533
740.806
-2204.49
817.9
-1538.9
888.384
-871.987
938.829
-180.983
943.133
454.723
931.932
723.164
911.347
846.696
879.863
922.426
838.58
962.135
790.628
974.715
739.022
979.113
686.094
987.705
632.612
997.535
575.421
1005.15
508.208
1018.18
428.417
1044.71
344.015
1077.1
271.851
1094.69
227.069
1077.85
213.934
1015.94
227.834
898.97
262.224
715.554
353.755
352.463
455.103
-138.961
514.567
-471.447
560.997
-667.51
606.005
-813.245
653.353
-938.14
704.047
-1051.83
758.167
-1157.88
815.439
-1258.38
875.463
-1355.39
937.875
-1451.98
1002.48
-1552.72
1069.44
-1663.91
1139.48
-1793.52
1214.06
-1949.19
1295.29
-2136.87
1385.55
-2357.93
1487.51
-2611.75
1604.24
-2897.48
1738.38
-3209.95
1890.99
-3538.09
2060.85
-3866.86
2245.27
-4185.72
2441.28
-4491.17
2645.95
-4783.78
2856.43
-5063.87
3070.22
-5329.2
3285.47
-5572.49
3501.22
-5780.15
3717.12
-5933.45
3932.81
-6011.32
4147.11
-5995.58
4358.33
-5873.67
4564.72
-5636.7
4765.37
-5281.89
4964.4
-4805.2
5175.97
-4162.4
5423.16
-3237.47
5727.48
-1799.77
5984.52
385.337
6073.09
2283.92
6052.72
3214.66
5987.04
3479.93
5905.11
3436.86
5817.45
3276.94
5727.92
3084.02
5638.27
2891.77
5549.72
2712.4
5463.31
2549.14
5380.05
2401.51
5300.9
2267.55
5226.77
2144.88
5158.42
2031.09
5096.52
1924
5041.51
1821.75
4993.66
1722.83
4952.97
1626.11
4919.25
1530.85
4892.04
1436.62
4870.68
1343.33
4854.35
1251.12
4842.06
1160.36
4832.78
1071.58
4825.4
985.403
4818.85
902.498
4812.11
823.567
4804.24
749.305
4794.36
680.392
4781.73
617.489
4765.65
561.235
4745.56
512.24
4720.95
471.056
4691.41
438.139
4656.75
413.888
4616.67
398.005
4571.67
392.096
4521.16
388.927
409.189
611.122
-2283.31
686.758
-1614.54
761.542
-946.77
822.67
-242.111
832.626
444.768
824.254
731.536
807.341
863.61
780.371
949.396
742.915
999.591
697.432
1020.2
647.505
1029.04
595.731
1039.48
541.624
1051.64
480.916
1065.86
409.581
1089.52
331.14
1123.15
258.665
1149.58
207.438
1145.92
185.892
1099.4
192.602
1009.23
222.306
869.266
272.743
665.118
371.103
254.105
459.41
-227.268
512.485
-524.522
556.443
-711.468
600.582
-857.384
647.701
-985.258
698.49
-1102.62
752.88
-1212.27
810.498
-1316
870.843
-1415.73
933.417
-1514.55
997.833
-1617.14
1063.98
-1730.06
1132.31
-1861.85
1203.98
-2020.86
1280.95
-2213.84
1365.54
-2442.52
1460.53
-2706.74
1569.31
-3006.25
1694.85
-3335.49
1838.33
-3681.56
1998.36
-4026.89
2172.12
-4359.48
2356.64
-4675.69
2549.2
-4976.34
2747.11
-5261.78
2947.85
-5529.94
3149.45
-5774.09
3350.71
-5981.41
3551.28
-6134.03
3751.08
-6211.12
3949.4
-6193.89
4144.89
-6069.16
4335.84
-5827.66
4520.93
-5466.98
4702.77
-4987.05
4892.22
-4351.85
5110.26
-3455.52
5387.41
-2076.92
5649.86
122.894
5754.27
2179.51
5750.12
3218.81
5700.73
3529.32
5634.93
3502.66
5562.83
3349.04
5488.14
3158.71
5412.71
2967.21
5337.9
2787.21
5264.96
2622.09
5195.03
2471.44
5129.17
2333.41
5068.3
2205.75
5013.17
2086.23
4964.31
1972.86
4922.04
1864.02
4886.42
1758.45
4857.25
1655.28
4834.12
1553.98
4816.37
1454.37
4803.18
1356.52
4793.6
1260.7
4786.58
1167.38
4781.08
1077.09
4776.06
990.428
4770.53
908.024
4763.61
830.492
4754.48
758.433
4742.44
692.434
4726.86
633.069
4707.2
580.896
4682.99
536.445
4653.87
500.175
4619.56
472.455
4579.97
453.469
4535
442.976
4485.35
441.754
4430.43
443.844
467.081
498.996
-2357.55
567.554
-1683.1
641.415
-1020.63
710.533
-311.229
727.435
427.866
722.295
736.676
707.899
878.006
683.921
973.373
649.301
1034.21
606.155
1063.35
558.183
1077.01
507.178
1090.48
451.108
1107.71
386.571
1130.39
314.551
1161.54
244.13
1193.57
189.204
1204.5
159.744
1175.38
157.468
1101.68
177.62
989.077
215.357
831.53
278.899
601.577
380.355
152.649
455.592
-302.504
503.487
-572.417
545.614
-753.594
589.234
-901.004
636.379
-1032.4
687.469
-1153.71
742.307
-1267.11
800.437
-1374.13
861.289
-1476.58
924.266
-1577.53
988.815
-1681.69
1054.59
-1795.84
1121.73
-1929
1191.1
-2090.23
1264.44
-2287.18
1343.92
-2522
1432.41
-2795.22
1533.57
-3107.42
1650.72
-3452.64
1785.13
-3815.97
1935.21
-4176.98
2098.03
-4522.29
2270.76
-4848.43
2451.05
-5156.63
2636.47
-5447.2
2824.65
-5718.12
3013.53
-5962.97
3201.68
-6169.56
3388.59
-6320.94
3574.28
-6396.81
3758.39
-6378
3939.99
-6250.76
4117.52
-6005.19
4289.04
-5638.5
4456.23
-5154.23
4628.47
-4524.09
4823.16
-3650.21
5070.91
-2324.68
5331.06
-137.254
5446.76
2063.81
5456.76
3208.81
5422.66
3563.42
5372.5
3552.83
5315.81
3405.73
5256.06
3218.46
5195.12
3028.15
5134.47
2847.86
5075.47
2681.09
5019.33
2527.57
4967.13
2385.61
4919.76
2253.13
4877.85
2128.14
4841.8
2008.91
4811.73
1894.08
4787.51
1782.67
4768.74
1674.05
4754.81
1567.91
4744.93
1464.26
4738.17
1363.28
4733.53
1265.34
4730.02
1170.9
4726.62
1080.48
4722.43
994.62
4716.6
913.858
4708.37
838.714
4697.11
769.7
4682.22
707.32
4663.21
652.075
4639.66
604.452
4611.19
564.91
4577.56
533.807
4538.6
511.413
4494.39
497.682
4444.97
492.398
4391.24
495.485
4332.68
502.404
527.327
386.289
-2424.2
450.446
-1747.25
524.706
-1094.89
601.073
-387.595
626.523
402.416
625.611
737.589
613.218
890.399
590.908
995.684
558.131
1066.99
517.11
1104.37
470.99
1123.13
419.933
1141.54
361.109
1166.54
294.389
1197.11
226.9
1229.03
170.631
1249.84
136.175
1238.96
126.861
1184.69
139.504
1089.04
167.722
960.86
206.005
793.249
278.358
529.225
379.8
51.2083
444.039
-366.743
487.914
-616.291
528.92
-794.6
572.43
-944.513
619.859
-1079.83
671.411
-1205.26
726.791
-1322.49
785.501
-1432.84
846.939
-1538.02
910.457
-1641.05
975.384
-1746.61
1041.16
-1861.61
1107.64
-1995.48
1175.34
-2157.94
1245.73
-2357.56
1320.76
-2597.03
1403.28
-2877.74
1497.23
-3201.37
1606.2
-3561.61
1731.49
-3941.27
1871.35
-4316.83
2022.75
-4673.69
2183.22
-5008.9
2350.89
-5324.3
2523.75
-5620.07
2699.63
-5893.99
2876.46
-6139.8
3052.6
-6345.7
3227.28
-6495.61
3400.47
-6570
3572
-6549.53
3741.28
-6420.04
3907.17
-6171.07
4067.32
-5798.66
4221.68
-5308.59
4378.7
-4681.1
4554.97
-3826.48
4776.8
-2546.5
5030.08
-390.541
5152.14
1941.75
5173.68
3187.27
5153.76
3583.33
5118.83
3587.76
5077.48
3447.07
5032.82
3263.12
4986.64
3074.32
4940.48
2894.02
4895.72
2725.85
4853.61
2569.69
4815.16
2424.05
4781.17
2287.12
4752.12
2157.19
4728.23
2032.8
4709.44
1912.87
4695.42
1796.69
4685.61
1683.86
4679.27
1574.26
4675.52
1468
4673.44
1365.36
4672.05
1266.72
4670.44
1172.51
4667.73
1083.19
4663.14
999.206
4656
921.006
4645.69
849.024
4631.69
783.693
4613.56
725.453
4590.89
674.748
4563.34
632.004
4530.64
597.605
4492.65
571.798
4449.33
554.729
4400.91
546.105
4347.61
545.703
4290.51
552.584
4229.17
563.738
588.993
276.649
-2480.74
337.172
-1807.78
412.189
-1169.91
493.642
-469.047
529.119
366.94
533.439
733.27
522.912
900.927
501.338
1017.26
469.688
1098.64
430.529
1143.53
385.733
1167.93
333.796