/*--------------------------------*- C++ -*----------------------------------*\
| =========                 |                                                 |
| \\      /  F ield         | OpenFOAM: The Open Source CFD Toolbox           |
|  \\    /   O peration     | Version:  4.1                                   |
|   \\  /    A nd           | Web:      www.OpenFOAM.org                      |
|    \\/     M anipulation  |                                                 |
\*---------------------------------------------------------------------------*/
FoamFile
{
    version     2.0;
    format      ascii;
    class       volVectorField;
    location    "400";
    object      U;
}
// * * * * * * * * * * * * * * * * * * * * * * * * * * * * * * * * * * * * * //

dimensions      [0 1 -1 0 0 0 0];

internalField   nonuniform List<vector> 
26785
(
(1.94083e-15 -0.0578911 18.7636)
(1.95997e-15 -0.0123914 19.3049)
(1.89155e-15 0.0196574 19.1041)
(2.61951e-15 0.0413311 18.3821)
(2.15693e-15 0.0524808 17.3807)
(2.62227e-15 0.0556608 16.3016)
(2.2004e-15 0.0553819 15.2498)
(2.23153e-15 0.0539371 14.2541)
(1.9047e-15 0.0520849 13.3199)
(2.52872e-15 0.0501612 12.4471)
(1.29102e-15 0.0484199 11.6309)
(1.28791e-15 0.0469749 10.8631)
(1.05849e-15 0.0457478 10.136)
(9.02181e-16 0.0445866 9.44481)
(7.9473e-16 0.0433234 8.78819)
(6.81217e-16 0.0416831 8.16802)
(5.5921e-16 0.0393143 7.59123)
(2.66261e-16 0.0359495 7.06925)
(4.28644e-16 0.0312521 6.61414)
(-7.34211e-16 0.0248864 6.23599)
(-2.36238e-15 0.0177134 5.94006)
(-2.07684e-15 0.0121741 5.72947)
(-3.09493e-15 0.00915282 5.61894)
(-3.14467e-15 0.00557519 5.6317)
(-2.09519e-15 -0.0019202 5.78002)
(-3.8496e-15 -0.0118778 6.0497)
(-4.81436e-15 -0.0220989 6.41072)
(-4.92154e-15 -0.0311581 6.83613)
(-5.9544e-15 -0.0386294 7.30709)
(-7.63504e-15 -0.0447205 7.81174)
(-8.04409e-15 -0.0497976 8.34312)
(-8.13016e-15 -0.0541842 8.89702)
(-8.1457e-15 -0.0581258 9.47066)
(-7.18932e-15 -0.0618128 10.0621)
(-7.90405e-15 -0.0654125 10.6702)
(-8.89953e-15 -0.0690945 11.2945)
(-8.82658e-15 -0.0730306 11.936)
(-8.85242e-15 -0.0773843 12.5967)
(-8.82502e-15 -0.0822808 13.28)
(-9.13038e-15 -0.0877926 13.9898)
(-8.08049e-15 -0.0939383 14.7309)
(-7.81441e-15 -0.100672 15.5079)
(-8.12737e-15 -0.107887 16.3252)
(-8.92825e-15 -0.115435 17.1864)
(-9.24782e-15 -0.123161 18.0941)
(-1.00585e-14 -0.130916 19.0502)
(-1.03727e-14 -0.138533 20.0556)
(-1.03369e-14 -0.145749 21.11)
(-1.03431e-14 -0.152128 22.2107)
(-1.03351e-14 -0.156997 23.3511)
(-1.02701e-14 -0.1594 24.5182)
(-1.02933e-14 -0.158099 25.6914)
(-1.04043e-14 -0.151535 26.8403)
(-1.04855e-14 -0.137738 27.9231)
(-1.03954e-14 -0.114591 28.8843)
(-1.0473e-14 -0.0806571 29.6522)
(-9.40138e-15 -0.0362417 30.1442)
(-8.55389e-15 0.0151099 30.2852)
(-8.10047e-15 0.0673801 30.0321)
(-6.27567e-15 0.114992 29.3956)
(-5.62113e-15 0.152208 28.4428)
(-5.12074e-15 0.175168 27.282)
(-4.69888e-15 0.184566 26.0283)
(-3.38048e-15 0.184185 24.77)
(-2.46541e-15 0.178024 23.5598)
(-1.66985e-15 0.168979 22.4227)
(-9.70665e-16 0.158818 21.3675)
(-3.8512e-16 0.148518 20.3941)
(1.23111e-16 0.138574 19.4982)
(4.58187e-16 0.129223 18.674)
(1.24771e-15 0.120565 17.9149)
(1.68276e-15 0.112637 17.2147)
(2.02147e-15 0.105448 16.5672)
(2.31511e-15 0.0989888 15.9666)
(2.63131e-15 0.0932418 15.4073)
(2.5188e-15 0.0881788 14.8844)
(2.7144e-15 0.0837604 14.3932)
(2.79362e-15 0.0799357 13.9296)
(2.8342e-15 0.0766426 13.4899)
(2.8489e-15 0.0738098 13.071)
(2.78639e-15 0.0713592 12.6702)
(2.92417e-15 0.0692095 12.2855)
(2.82361e-15 0.0672795 11.9153)
(2.6633e-15 0.0654914 11.5586)
(2.6067e-15 0.0637737 11.2146)
(2.39025e-15 0.0620627 10.8831)
(2.13473e-15 0.0603046 10.564)
(1.86111e-15 0.0584555 10.2576)
(1.71065e-15 0.0564819 9.96425)
(1.42086e-15 0.0543601 9.68454)
(1.1382e-15 0.0520754 9.41905)
(8.40297e-16 0.0496227 9.16836)
(5.30073e-16 0.0469999 8.93315)
(2.09411e-16 0.044224 8.71376)
(-1.20184e-16 0.041285 8.51119)
(-4.27725e-16 0.0382634 8.32429)
(-7.58498e-16 0.0350659 8.15717)
(-1.10511e-15 0.0318924 7.9986)
(-1.39667e-15 0.0290966 7.8817)
(-1.90828e-15 0.0240023 7.71015)
(2.00382e-15 -0.126933 18.6316)
(2.73984e-15 -0.0174501 19.1617)
(2.36385e-15 0.0657382 19.0007)
(2.42975e-15 0.126107 18.3079)
(2.17636e-15 0.157829 17.3182)
(3.09783e-15 0.166492 16.243)
(1.50794e-15 0.165172 15.1929)
(1.98234e-15 0.160605 14.199)
(2.21311e-15 0.15498 13.2676)
(1.63118e-15 0.149254 12.3987)
(1.69599e-15 0.144159 11.5872)
(1.49648e-15 0.140018 10.8245)
(1.24739e-15 0.136551 10.1022)
(1.34527e-15 0.133221 9.41555)
(4.46413e-16 0.129454 8.76403)
(-9.64335e-16 0.124376 8.15188)
(-8.5712e-16 0.116814 7.58833)
(6.60722e-16 0.10611 7.08259)
(2.16326e-16 0.0927449 6.63543)
(1.66232e-15 0.0778133 6.24321)
(4.80468e-16 0.0612184 5.92167)
(-2.42177e-16 0.0388441 5.73292)
(9.3924e-16 0.00616267 5.75649)
(-1.12553e-15 -0.0319989 5.97988)
(-1.04935e-15 -0.0682788 6.3194)
(-1.48664e-15 -0.0957079 6.70237)
(-3.06788e-15 -0.11476 7.09598)
(-3.87535e-15 -0.128192 7.49595)
(-3.98824e-15 -0.138453 7.90696)
(-5.12162e-15 -0.14721 8.33328)
(-6.2364e-15 -0.155327 8.777)
(-5.75787e-15 -0.163149 9.23836)
(-5.63519e-15 -0.170792 9.71646)
(-5.565e-15 -0.178322 10.2098)
(-5.74385e-15 -0.185862 10.717)
(-6.19825e-15 -0.193647 11.2369)
(-6.46805e-15 -0.202007 11.7694)
(-6.69435e-15 -0.211338 12.3157)
(-6.96954e-15 -0.222014 12.8787)
(-7.15731e-15 -0.234338 13.4628)
(-7.58338e-15 -0.24853 14.0737)
(-7.146e-15 -0.264677 14.7178)
(-7.30112e-15 -0.282729 15.4022)
(-7.04813e-15 -0.302514 16.1334)
(-7.15366e-15 -0.323824 16.917)
(-7.54508e-15 -0.346444 17.7577)
(-8.36005e-15 -0.370065 18.6592)
(-8.82695e-15 -0.394063 19.6237)
(-9.74063e-15 -0.417232 20.6512)
(-9.84111e-15 -0.43757 21.7377)
(-9.96671e-15 -0.452176 22.8733)
(-1.01955e-14 -0.457325 24.0411)
(-1.05555e-14 -0.448483 25.2155)
(-1.0515e-14 -0.419877 26.3622)
(-1.10825e-14 -0.364516 27.4354)
(-1.13487e-14 -0.275251 28.3737)
(-1.03783e-14 -0.147491 29.0935)
(-9.80909e-15 0.0129512 29.4928)
(-1.04403e-14 0.185939 29.4705)
(-9.86363e-15 0.34545 28.9906)
(-9.17613e-15 0.467811 28.1189)
(-7.07424e-15 0.540386 26.9874)
(-5.88533e-15 0.567319 25.7378)
(-5.89058e-15 0.562578 24.4766)
(-5.16942e-15 0.539986 23.2652)
(-4.20364e-15 0.509156 22.132)
(-3.37847e-15 0.475727 21.0857)
(-2.89973e-15 0.442661 20.1254)
(-1.23872e-15 0.411366 19.2456)
(-7.49659e-16 0.382429 18.4391)
(-1.75922e-16 0.356038 17.6984)
(8.02545e-16 0.332202 17.0162)
(1.33372e-15 0.310851 16.3855)
(1.75901e-15 0.291881 15.8001)
(1.49919e-15 0.275165 15.2542)
(1.98254e-15 0.260557 14.7426)
(2.1552e-15 0.247884 14.2608)
(2.28998e-15 0.236949 13.8048)
(2.51652e-15 0.227533 13.3713)
(2.67957e-15 0.219397 12.9574)
(2.67357e-15 0.212295 12.5611)
(2.69059e-15 0.20598 12.1805)
(2.70336e-15 0.20021 11.8146)
(2.45636e-15 0.19476 11.4625)
(2.23714e-15 0.189429 11.124)
(2.11536e-15 0.184038 10.7988)
(1.89062e-15 0.17844 10.4872)
(1.69942e-15 0.172518 10.1895)
(1.38644e-15 0.166183 9.90625)
(1.0182e-15 0.159376 9.63797)
(7.11206e-16 0.152065 9.38525)
(4.15599e-16 0.144243 9.14863)
(1.01643e-16 0.135922 8.92867)
(-1.6735e-16 0.127165 8.72552)
(-4.73029e-16 0.117975 8.53997)
(-7.87453e-16 0.108614 8.3705)
(-1.11666e-15 0.0988407 8.22098)
(-1.45627e-15 0.0894277 8.07964)
(-1.73708e-15 0.0806424 7.97801)
(-2.23076e-15 0.0671247 7.82679)
(2.15156e-15 -0.209523 18.0502)
(1.45853e-15 -0.0397761 18.5961)
(2.20903e-15 0.0979383 18.5054)
(8.66701e-16 0.20251 17.8799)
(1.19701e-15 0.258603 16.9329)
(1.83262e-15 0.274536 15.8841)
(1.18187e-15 0.272876 14.8531)
(1.98346e-15 0.26536 13.8747)
(2.02224e-15 0.255874 12.9575)
(2.06079e-15 0.24615 12.1029)
(1.95474e-15 0.237512 11.3063)
(1.82784e-15 0.230555 10.5589)
(1.69334e-15 0.224795 9.852)
(1.52927e-15 0.219208 9.18088)
(1.53086e-15 0.21258 8.54712)
(5.08747e-16 0.203298 7.95735)
(-2.38511e-16 0.190065 7.41737)
(-1.9692e-16 0.173624 6.92263)
(7.7075e-17 0.155424 6.46275)
(9.38494e-16 0.132511 6.05502)
(-1.11855e-15 0.0958117 5.76673)
(2.60407e-17 0.0375562 5.66323)
(2.25348e-15 -0.0298274 5.702)
(1.51609e-16 -0.0846117 5.76198)
(-1.52894e-15 -0.122859 5.78431)
(-1.67594e-15 -0.147163 5.79173)
(-3.29767e-15 -0.165653 5.82833)
(-3.93928e-15 -0.183063 5.92483)
(-3.39716e-15 -0.200434 6.08893)
(-3.06617e-15 -0.217564 6.31442)
(-2.76038e-15 -0.234093 6.59133)
(-2.46327e-15 -0.249811 6.91057)
(-2.97568e-15 -0.264668 7.26493)
(-4.4015e-15 -0.278754 7.64888)
(-4.84468e-15 -0.292317 8.05834)
(-4.06515e-15 -0.305819 8.49072)
(-4.4427e-15 -0.319924 8.94525)
(-5.02988e-15 -0.335465 9.42333)
(-5.02401e-15 -0.353297 9.92873)
(-5.20211e-15 -0.374188 10.4672)
(-5.43358e-15 -0.39875 11.0461)
(-5.44404e-15 -0.427312 11.6732)
(-5.38755e-15 -0.459862 12.356)
(-5.83032e-15 -0.496066 13.1004)
(-6.38662e-15 -0.535435 13.9104)
(-6.86422e-15 -0.577444 14.788)
(-7.09555e-15 -0.621437 15.734)
(-7.1425e-15 -0.666309 16.7475)
(-7.17785e-15 -0.710078 17.8259)
(-7.35123e-15 -0.74956 18.9632)
(-7.62056e-15 -0.780241 20.1492)
(-7.87409e-15 -0.796504 21.3682)
(-8.11385e-15 -0.791777 22.5987)
(-8.51097e-15 -0.757812 23.8144)
(-9.24939e-15 -0.684091 24.9827)
(-9.39819e-15 -0.557761 26.0615)
(-9.71244e-15 -0.36505 26.9905)
(-1.03238e-14 -0.104053 27.6827)
(-1.05732e-14 0.200277 28.0199)
(-1.15699e-14 0.497964 27.8784)
(-1.09099e-14 0.733209 27.2569)
(-9.69203e-15 0.875677 26.2853)
(-8.53441e-15 0.931867 25.1337)
(-7.70496e-15 0.928475 23.936)
(-5.80149e-15 0.891816 22.7713)
(-4.97178e-15 0.839973 21.6767)
(-5.01101e-15 0.783415 20.6655)
(-4.46679e-15 0.727576 19.7382)
(-3.68574e-15 0.675001 18.8897)
(-2.89748e-15 0.626722 18.1128)
(-2.19829e-15 0.583036 17.3995)
(-1.51123e-15 0.543901 16.742)
(-1.29458e-15 0.509129 16.1332)
(-1.08455e-15 0.478468 15.5666)
(-5.29449e-16 0.451625 15.0367)
(-1.63674e-16 0.428276 14.5383)
(8.21017e-17 0.408069 14.0673)
(3.12164e-16 0.390619 13.6202)
(5.36384e-16 0.375524 13.1941)
(7.29601e-16 0.362366 12.7868)
(8.90959e-16 0.350726 12.3966)
(9.6923e-16 0.340196 12.0224)
(1.08213e-15 0.330393 11.6633)
(1.15272e-15 0.320964 11.3191)
(1.08341e-15 0.311597 10.9895)
(9.63808e-16 0.302026 10.6747)
(8.06149e-16 0.292033 10.375)
(6.16687e-16 0.281451 10.0908)
(3.74538e-16 0.270159 9.82259)
(1.77079e-16 0.258088 9.57069)
(-8.8666e-17 0.245209 9.33558)
(-3.8617e-16 0.231546 9.11749)
(-6.41419e-16 0.217151 8.91668)
(-9.56419e-16 0.202165 8.73287)
(-1.26634e-15 0.186648 8.56645)
(-1.57487e-15 0.17105 8.41525)
(-1.8844e-15 0.155036 8.2829)
(-2.18493e-15 0.140026 8.15664)
(-2.43179e-15 0.125457 8.06786)
(-2.83911e-15 0.106145 7.92905)
(2.07577e-15 -0.293863 17.1907)
(1.45402e-15 -0.0684838 17.7568)
(9.77955e-16 0.120665 17.7519)
(1.06129e-15 0.269603 17.2221)
(9.5379e-16 0.351446 16.3444)
(5.85746e-16 0.375628 15.3434)
(1.20136e-15 0.374328 14.3476)
(1.78335e-15 0.364385 13.3965)
(1.64963e-15 0.351384 12.5018)
(1.95253e-15 0.337866 11.6672)
(1.92174e-15 0.325817 10.8893)
(1.94079e-15 0.316166 10.1598)
(1.63061e-15 0.308183 9.4702)
(1.98626e-15 0.300152 8.81817)
(3.15828e-15 0.290171 8.20803)
(2.37676e-15 0.276716 7.6434)
(1.76584e-15 0.25982 7.11816)
(2.96674e-15 0.240843 6.6217)
(5.47329e-15 0.21721 6.1656)
(4.45462e-15 0.179346 5.79617)
(3.68671e-15 0.120404 5.53713)
(1.73723e-15 0.047768 5.31093)
(1.14951e-15 -0.0159028 5.00278)
(8.22179e-16 -0.0587747 4.58137)
(6.4382e-16 -0.0941676 4.13958)
(3.81925e-16 -0.129515 3.81414)
(-1.07808e-15 -0.169356 3.66769)
(-7.93397e-16 -0.210101 3.6835)
(-9.08956e-16 -0.247315 3.81452)
(-1.54387e-15 -0.279901 4.02191)
(-9.52665e-16 -0.308559 4.28251)
(-1.33995e-15 -0.334251 4.58368)
(-2.53214e-15 -0.35772 4.91828)
(-2.35852e-15 -0.37955 5.28204)
(-4.3149e-15 -0.400351 5.67262)
(-2.42155e-15 -0.420966 6.08944)
(-3.07266e-15 -0.442511 6.534)
(-4.63425e-15 -0.466346 7.00993)
(-2.89592e-15 -0.493817 7.52278)
(-3.46786e-15 -0.526065 8.07921)
(-4.08091e-15 -0.563893 8.68601)
(-3.13669e-15 -0.607574 9.34921)
(-3.28302e-15 -0.656796 10.0732)
(-5.08997e-15 -0.710758 10.8601)
(-5.97058e-15 -0.768508 11.7099)
(-5.97049e-15 -0.829178 12.6212)
(-5.10956e-15 -0.891879 13.5922)
(-4.37787e-15 -0.955223 14.6207)
(-4.35025e-15 -1.01672 15.7033)
(-4.66277e-15 -1.07233 16.8346)
(-4.81222e-15 -1.11637 18.0054)
(-4.67843e-15 -1.14191 19.2023)
(-4.80542e-15 -1.14115 20.4077)
(-5.722e-15 -1.10455 21.6013)
(-6.27183e-15 -1.01994 22.7607)
(-7.37991e-15 -0.871741 23.8608)
(-7.23942e-15 -0.639203 24.8657)
(-9.60151e-15 -0.307605 25.7167)
(-1.05357e-14 0.107529 26.312)
(-1.24931e-14 0.550448 26.4856)
(-1.2365e-14 0.922576 26.1372)
(-1.22661e-14 1.15847 25.362)
(-1.17222e-14 1.26014 24.3453)
(-1.05117e-14 1.26769 23.2447)
(-9.12292e-15 1.22237 22.1553)
(-8.76344e-15 1.15264 21.1231)
(-7.12402e-15 1.07493 20.1655)
(-5.35942e-15 0.997764 19.2853)
(-4.74292e-15 0.92516 18.4786)
(-4.19327e-15 0.858744 17.7384)
(-4.0324e-15 0.798979 17.0571)
(-3.40947e-15 0.745779 16.4273)
(-3.21921e-15 0.69881 15.842)
(-2.47203e-15 0.657628 15.2952)
(-1.66877e-15 0.621729 14.7815)
(-1.78033e-15 0.590572 14.2967)
(-1.39795e-15 0.56359 13.8369)
(-1.2815e-15 0.540194 13.3994)
(-1.04918e-15 0.519786 12.9818)
(-8.19764e-16 0.501772 12.5826)
(-6.38891e-16 0.485575 12.2006)
(-5.24575e-16 0.470649 11.835)
(-4.96903e-16 0.45649 11.4855)
(-3.31413e-16 0.44265 11.1518)
(-3.17996e-16 0.428739 10.8342)
(-3.54933e-16 0.414436 10.5328)
(-4.62379e-16 0.399485 10.2478)
(-6.53024e-16 0.383702 9.97967)
(-8.66367e-16 0.366969 9.72859)
(-9.99691e-16 0.349237 9.49477)
(-1.28088e-15 0.330516 9.27831)
(-1.49529e-15 0.310888 9.07912)
(-1.75209e-15 0.290474 8.89703)
(-2.03824e-15 0.269513 8.73134)
(-2.28522e-15 0.24814 8.58203)
(-2.544e-15 0.226977 8.44637)
(-2.77707e-15 0.205622 8.32793)
(-2.98774e-15 0.186043 8.21282)
(-3.18135e-15 0.166759 8.13353)
(-3.46821e-15 0.143773 8.00114)
(2.11532e-15 -0.380726 16.1602)
(1.27992e-15 -0.108106 16.7063)
(1.53252e-15 0.127783 16.8001)
(7.19156e-16 0.32268 16.4036)
(1.11651e-15 0.433934 15.6273)
(2.18367e-15 0.468905 14.6971)
(7.60024e-16 0.469528 13.7526)
(1.4964e-15 0.45812 12.8397)
(1.56298e-15 0.442159 11.9748)
(1.76101e-15 0.425143 11.1646)
(1.76793e-15 0.409861 10.4074)
(1.73949e-15 0.397593 9.69579)
(2.5141e-15 0.387181 9.02369)
(2.31141e-15 0.376151 8.3922)
(3.74461e-15 0.362604 7.80476)
(3.93926e-15 0.346143 7.25639)
(2.67895e-15 0.327146 6.7367)
(3.69483e-15 0.304095 6.25187)
(4.39821e-15 0.270941 5.83231)
(4.31862e-15 0.222341 5.49039)
(3.2309e-15 0.164704 5.16086)
(3.82492e-15 0.111156 4.71292)
(4.04221e-15 0.0686306 4.08746)
(2.52619e-15 0.0302547 3.36011)
(5.03728e-16 -0.028725 2.75575)
(-2.05073e-16 -0.10482 2.46655)
(-2.78669e-15 -0.182608 2.44605)
(-2.8405e-15 -0.247961 2.56753)
(-1.20399e-15 -0.299461 2.75511)
(-2.52586e-15 -0.341417 2.9799)
(-3.06322e-15 -0.37759 3.23272)
(-4.33935e-15 -0.410159 3.51042)
(-4.86445e-15 -0.440317 3.81174)
(-4.42141e-15 -0.468877 4.13648)
(-5.11582e-15 -0.496692 4.48563)
(-4.7326e-15 -0.524933 4.86176)
(-3.67927e-15 -0.555102 5.26917)
(-3.22818e-15 -0.588933 5.71374)
(-3.45614e-15 -0.628006 6.20218)
(-3.55729e-15 -0.673496 6.74083)
(-4.2469e-15 -0.726064 7.33483)
(-5.20208e-15 -0.785661 7.98762)
(-6.72545e-15 -0.851542 8.70052)
(-7.17193e-15 -0.92246 9.47276)
(-6.56782e-15 -0.997174 10.302)
(-5.83375e-15 -1.07473 11.1854)
(-5.17558e-15 -1.15428 12.1204)
(-4.60773e-15 -1.23437 13.1052)
(-4.08021e-15 -1.31213 14.1371)
(-3.90706e-15 -1.38278 15.2117)
(-3.75424e-15 -1.43953 16.3211)
(-3.81658e-15 -1.4743 17.4531)
(-4.30614e-15 -1.4784 18.5923)
(-5.14132e-15 -1.44178 19.7216)
(-5.79131e-15 -1.35167 20.8242)
(-7.51455e-15 -1.19147 21.8855)
(-7.89899e-15 -0.936295 22.8883)
(-8.54618e-15 -0.559099 23.8004)
(-7.7315e-15 -0.059651 24.5544)
(-8.92366e-15 0.517757 24.9903)
(-8.66992e-15 1.03947 24.9072)
(-1.05377e-14 1.38699 24.3346)
(-1.07029e-14 1.54781 23.4623)
(-1.01549e-14 1.57488 22.4701)
(-9.71728e-15 1.52633 21.4678)
(-7.71591e-15 1.44245 20.5086)
(-6.98551e-15 1.34648 19.6136)
(-5.82935e-15 1.25041 18.7875)
(-5.34776e-15 1.15991 18.0274)
(-4.14898e-15 1.07729 17.3272)
(-3.75201e-15 1.00322 16.6799)
(-3.17181e-15 0.937562 16.0788)
(-3.28774e-15 0.879832 15.5175)
(-2.66518e-15 0.829377 14.9906)
(-1.99838e-15 0.785468 14.4936)
(-1.34625e-15 0.747335 14.0229)
(-7.47671e-16 0.714194 13.5753)
(-7.69096e-16 0.685253 13.1488)
(-6.89042e-16 0.659735 12.7416)
(-7.5653e-16 0.636889 12.3526)
(-7.82141e-16 0.616002 11.9811)
(-5.31059e-16 0.59642 11.6268)
(-5.2758e-16 0.577551 11.2894)
(-4.96095e-16 0.558881 10.9691)
(-4.37193e-16 0.539977 10.6659)
(-5.33334e-16 0.520493 10.3801)
(-7.14089e-16 0.500167 10.1118)
(-9.39734e-16 0.478827 9.8612)
(-1.16172e-15 0.456382 9.62834)
(-1.45266e-15 0.432825 9.41313)
(-1.69749e-15 0.408225 9.21535)
(-1.93758e-15 0.382731 9.03457)
(-2.13535e-15 0.356545 8.87028)
(-2.36635e-15 0.329999 8.72134)
(-2.58775e-15 0.30331 8.58746)
(-2.8087e-15 0.27724 8.46536)
(-3.01256e-15 0.251352 8.35873)
(-3.21959e-15 0.228094 8.2523)
(-3.44677e-15 0.204986 8.18059)
(-3.72623e-15 0.180083 8.05093)
(2.02042e-15 -0.477405 14.9076)
(1.9013e-15 -0.159505 15.4467)
(1.81656e-15 0.116451 15.591)
(9.55087e-16 0.355345 15.327)
(1.21209e-15 0.49905 14.6897)
(1.31565e-15 0.548263 13.8739)
(8.30709e-16 0.55368 13.0193)
(9.24479e-16 0.542993 12.1758)
(1.72468e-15 0.525649 11.3644)
(2.18448e-15 0.506277 10.5961)
(1.60127e-15 0.488602 9.87188)
(1.80439e-15 0.474187 9.18705)
(2.87146e-15 0.461344 8.53951)
(3.13616e-15 0.447282 7.93194)
(3.75645e-15 0.430896 7.36315)
(4.23127e-15 0.41239 6.82477)
(5.17048e-15 0.390358 6.31763)
(4.30981e-15 0.36081 5.86252)
(2.86236e-15 0.3202 5.47191)
(3.78083e-15 0.271976 5.1067)
(5.97914e-15 0.229293 4.67623)
(4.855e-15 0.20085 4.09898)
(4.28928e-15 0.177282 3.379)
(8.34538e-15 0.133426 2.63286)
(2.27648e-15 0.0277983 2.12683)
(-2.27446e-15 -0.101214 2.01688)
(-2.27266e-15 -0.208202 2.11448)
(-4.31794e-15 -0.284881 2.27566)
(-3.1305e-15 -0.341949 2.46025)
(-3.95556e-15 -0.388689 2.66221)
(-4.64015e-15 -0.429923 2.88159)
(-6.2959e-15 -0.467918 3.11891)
(-6.49179e-15 -0.503898 3.37484)
(-6.10079e-15 -0.538822 3.65085)
(-5.56068e-15 -0.573793 3.94969)
(-3.92405e-15 -0.610322 4.27578)
(-4.15505e-15 -0.650231 4.63519)
(-4.90644e-15 -0.695476 5.035)
(-5.67028e-15 -0.747619 5.48223)
(-5.62276e-15 -0.807609 5.98248)
(-7.32398e-15 -0.875776 6.5394)
(-8.79958e-15 -0.951655 7.15466)
(-8.39705e-15 -1.03407 7.82784)
(-8.42299e-15 -1.12139 8.55665)
(-7.48874e-15 -1.2122 9.33755)
(-6.35465e-15 -1.30562 10.167)
(-5.61323e-15 -1.40094 11.0422)
(-4.89676e-15 -1.49676 11.9616)
(-4.30967e-15 -1.58989 12.9233)
(-4.04375e-15 -1.67483 13.9236)
(-4.31352e-15 -1.74374 14.9555)
(-5.25929e-15 -1.78741 16.0079)
(-6.40421e-15 -1.79644 17.0666)
(-7.31528e-15 -1.76068 18.1162)
(-8.03146e-15 -1.66771 19.1425)
(-8.744e-15 -1.50171 20.1369)
(-9.29556e-15 -1.23704 21.0949)
(-1.02277e-14 -0.836934 22.0054)
(-8.78731e-15 -0.282059 22.8362)
(-8.20671e-15 0.406191 23.4679)
(-7.92225e-15 1.08317 23.633)
(-9.41291e-15 1.55959 23.2618)
(-9.43813e-15 1.79332 22.5345)
(-9.20501e-15 1.84837 21.6521)
(-8.31375e-15 1.8019 20.7392)
(-6.91359e-15 1.70772 19.8559)
(-5.46764e-15 1.5966 19.0261)
(-4.26242e-15 1.48434 18.2561)
(-4.15351e-15 1.37837 17.5439)
(-3.40998e-15 1.28173 16.8843)
(-3.20221e-15 1.19528 16.2712)
(-2.63893e-15 1.11885 15.6987)
(-2.38751e-15 1.05181 15.1615)
(-1.95791e-15 0.993279 14.655)
(-2.36569e-15 0.942312 14.1754)
(-1.98945e-15 0.897917 13.7198)
(-1.51185e-15 0.859106 13.2859)
(-1.37935e-15 0.824907 12.8722)
(-1.13914e-15 0.794386 12.4776)
(-9.60024e-16 0.76666 12.1013)
(-8.48533e-16 0.740916 11.743)
(-8.76133e-16 0.716416 11.4026)
(-1.08074e-15 0.692516 11.08)
(-1.29913e-15 0.668667 10.7754)
(-1.25957e-15 0.644419 10.4889)
(-1.10824e-15 0.619429 10.2206)
(-1.12854e-15 0.593455 9.97062)
(-1.27851e-15 0.566356 9.73886)
(-1.45989e-15 0.538089 9.52513)
(-1.64763e-15 0.508706 9.32909)
(-1.9389e-15 0.478344 9.15021)
(-2.17701e-15 0.447235 8.98768)
(-2.37216e-15 0.41567 8.84065)
(-2.54663e-15 0.384076 8.70759)
(-2.81544e-15 0.352769 8.58789)
(-3.03143e-15 0.322624 8.4777)
(-3.21572e-15 0.293208 8.38091)
(-3.40697e-15 0.267342 8.28069)
(-3.53786e-15 0.24156 8.21446)
(-3.76105e-15 0.216551 8.0833)
(1.81529e-15 -0.557664 13.9232)
(1.7666e-15 -0.208444 14.4451)
(1.16947e-15 0.100335 14.5873)
(8.86549e-16 0.376083 14.3353)
(1.21438e-15 0.549277 13.7358)
(2.00628e-15 0.612403 12.982)
(1.715e-15 0.623829 12.1992)
(1.748e-15 0.615646 11.4256)
(2.35044e-15 0.598713 10.6767)
(2.23056e-15 0.578605 9.96196)
(1.3827e-15 0.55987 9.28299)
(2.49472e-15 0.544222 8.63725)
(2.86225e-15 0.529614 8.02424)
(3.35887e-15 0.51346 7.44419)
(4.23157e-15 0.495295 6.89296)
(5.3235e-15 0.474607 6.36908)
(4.85474e-15 0.44806 5.88656)
(4.17677e-15 0.412402 5.46077)
(3.81928e-15 0.369584 5.07125)
(4.70805e-15 0.329558 4.65152)
(4.67613e-15 0.305708 4.12272)
(3.99572e-16 0.297708 3.46568)
(2.31979e-15 0.277665 2.75086)
(3.67748e-15 0.215688 2.14811)
(3.47711e-16 0.0589218 1.86544)
(-1.76966e-15 -0.113339 1.91509)
(-2.84097e-15 -0.235231 2.06445)
(-5.39121e-15 -0.316204 2.22846)
(-4.44122e-15 -0.37641 2.40006)
(-3.82879e-15 -0.426782 2.58237)
(-5.87659e-15 -0.472093 2.7774)
(-6.99512e-15 -0.51454 2.98612)
(-7.02388e-15 -0.55544 3.20962)
(-6.88456e-15 -0.595986 3.44994)
(-7.41185e-15 -0.637613 3.71061)
(-6.10113e-15 -0.682208 3.99701)
(-6.53398e-15 -0.731889 4.31605)
(-7.39615e-15 -0.788729 4.67536)
(-7.72821e-15 -0.854117 5.08194)
(-6.91638e-15 -0.928644 5.54083)
(-8.13148e-15 -1.01224 6.05496)
(-7.86774e-15 -1.104 6.62533)
(-8.56023e-15 -1.20232 7.25098)
(-7.91577e-15 -1.3052 7.929)
(-6.97219e-15 -1.41106 8.65515)
(-6.33091e-15 -1.51914 9.42517)
(-5.89108e-15 -1.62902 10.236)
(-5.1061e-15 -1.73941 11.0858)
(-4.41959e-15 -1.84693 11.973)
(-4.26354e-15 -1.94539 12.8947)
(-4.71336e-15 -2.02594 13.8447)
(-5.90091e-15 -2.07826 14.8129)
(-6.58221e-15 -2.09225 15.7861)
(-6.81522e-15 -2.05786 16.7502)
(-6.69363e-15 -1.96331 17.6925)
(-6.96258e-15 -1.7943 18.6072)
(-6.9314e-15 -1.5273 19.4968)
(-9.9666e-15 -1.12044 20.3638)
(-1.08867e-14 -0.535755 21.2057)
(-1.12646e-14 0.23041 21.9584)
(-1.00727e-14 1.05824 22.3459)
(-9.12739e-15 1.67788 22.1724)
(-8.30063e-15 1.99765 21.588)
(-8.88105e-15 2.0887 20.813)
(-8.10998e-15 2.04927 19.9879)
(-8.16293e-15 1.94841 19.1794)
(-6.80036e-15 1.82521 18.414)
(-4.98981e-15 1.69951 17.6992)
(-5.19417e-15 1.58054 17.034)
(-4.39067e-15 1.47206 16.4143)
(-4.59193e-15 1.37514 15.8349)
(-3.75161e-15 1.28957 15.2909)
(-3.55416e-15 1.21455 14.7778)
(-3.46917e-15 1.14902 14.2921)
(-3.08651e-15 1.0918 13.8308)
(-2.98272e-15 1.04172 13.3918)
(-3.40775e-15 0.997607 12.9735)
(-3.14322e-15 0.958335 12.5748)
(-2.72284e-15 0.922844 12.1951)
(-2.23881e-15 0.890153 11.834)
(-2.18979e-15 0.859375 11.4915)
(-2.02269e-15 0.829724 11.1675)
(-2.06401e-15 0.800525 10.8621)
(-2.30241e-15 0.771222 10.5756)
(-2.26976e-15 0.741375 10.3079)
(-2.27296e-15 0.710663 10.0591)
(-2.2995e-15 0.678883 9.82902)
(-2.33827e-15 0.645946 9.61742)
(-2.54128e-15 0.611871 9.42382)
(-2.65067e-15 0.576787 9.24755)
(-2.84444e-15 0.540916 9.08771)
(-2.9994e-15 0.504583 8.9431)
(-3.1196e-15 0.468179 8.81247)
(-3.31574e-15 0.43223 8.69385)
(-3.52157e-15 0.397148 8.58632)
(-3.70655e-15 0.363889 8.48555)
(-3.8731e-15 0.33205 8.39572)
(-4.00433e-15 0.304674 8.29842)
(-4.12307e-15 0.277441 8.23477)
(-4.22737e-15 0.253849 8.09754)
(1.19997e-15 -0.64786 12.9324)
(1.17778e-15 -0.264518 13.4366)
(1.38301e-15 0.0813015 13.6051)
(7.36862e-16 0.395563 13.3958)
(1.20096e-15 0.596272 12.8268)
(1.38662e-15 0.669896 12.1077)
(1.7562e-15 0.685074 11.3707)
(3.04123e-15 0.678515 10.6487)
(1.75871e-15 0.662021 9.95215)
(1.72074e-15 0.641684 9.28776)
(1.77345e-15 0.622559 8.65662)
(1.92765e-15 0.606436 8.05606)
(2.43687e-15 0.591149 7.48257)
(3.18172e-15 0.574266 6.93182)
(3.99825e-15 0.555037 6.40193)
(5.32888e-15 0.531618 5.90204)
(6.15828e-15 0.500346 5.44886)
(5.48278e-15 0.461413 5.03857)
(4.98471e-15 0.422327 4.62415)
(5.6273e-15 0.395967 4.13438)
(4.11748e-15 0.390422 3.52944)
(2.95683e-16 0.392899 2.85692)
(1.17356e-15 0.36067 2.23156)
(4.12102e-15 0.264702 1.82446)
(-1.40412e-15 0.0608771 1.77441)
(-3.19304e-15 -0.13707 1.93393)
(-9.61204e-16 -0.263082 2.10419)
(-3.59142e-15 -0.344877 2.26505)
(-5.28782e-15 -0.406922 2.42752)
(-6.0191e-15 -0.459968 2.59765)
(-7.96904e-15 -0.508408 2.77763)
(-8.20411e-15 -0.554342 2.96832)
(-7.63649e-15 -0.599212 3.17073)
(-7.78029e-15 -0.644491 3.38699)
(-8.01298e-15 -0.691984 3.62083)
(-7.38242e-15 -0.743983 3.8779)
(-8.29276e-15 -0.802881 4.16536)
(-8.78836e-15 -0.870821 4.49094)
(-7.91788e-15 -0.948951 4.86152)
(-6.09252e-15 -1.03746 5.28188)
(-6.72179e-15 -1.1359 5.75486)
(-7.29325e-15 -1.24293 6.28157)
(-7.80991e-15 -1.35651 6.86123)
(-6.99382e-15 -1.47414 7.49077)
(-6.40632e-15 -1.59406 8.16535)
(-5.96763e-15 -1.71564 8.8799)
(-5.32731e-15 -1.83876 9.63052)
(-4.75291e-15 -1.96236 10.4148)
(-4.04392e-15 -2.08296 11.2309)
(-3.82673e-15 -2.19381 12.0762)
(-4.0373e-15 -2.28513 12.9455)
(-4.33115e-15 -2.34553 13.8299)
(-4.41575e-15 -2.36419 14.7175)
(-4.51526e-15 -2.33119 15.5954)
(-4.47654e-15 -2.23562 16.4518)
(-4.86648e-15 -2.06495 17.2819)
(-3.33522e-15 -1.79922 18.092)
(-3.92841e-15 -1.39602 18.8921)
(-5.56613e-15 -0.803405 19.6977)
(-8.97864e-15 0.0070399 20.4981)
(-1.09247e-14 0.969329 21.0676)
(-1.1285e-14 1.74306 21.0837)
(-1.02829e-14 2.16189 20.6382)
(-9.29006e-15 2.29696 19.9665)
(-8.44833e-15 2.26935 19.2256)
(-7.93932e-15 2.16527 18.4889)
(-7.04451e-15 2.03291 17.7855)
(-5.58992e-15 1.89639 17.1239)
(-4.93833e-15 1.76677 16.5041)
(-4.25663e-15 1.64853 15.923)
(-4.2594e-15 1.54292 15.3764)
(-3.91824e-15 1.44968 14.8606)
(-3.56301e-15 1.36787 14.3719)
(-3.18396e-15 1.29624 13.9077)
(-3.16586e-15 1.23345 13.466)
(-2.90152e-15 1.17813 13.0451)
(-2.89107e-15 1.12898 12.6443)
(-3.08956e-15 1.08474 12.2627)
(-3.00152e-15 1.04426 11.9003)
(-2.88373e-15 1.0065 11.5569)
(-2.61861e-15 0.970513 11.2326)
(-2.50153e-15 0.9355 10.9275)
(-2.62021e-15 0.900781 10.6419)
(-2.57574e-15 0.865814 10.3756)
(-2.76759e-15 0.830189 10.1288)
(-2.87841e-15 0.793632 9.90128)
(-2.98777e-15 0.756001 9.6926)
(-3.11086e-15 0.717278 9.50222)
(-3.24101e-15 0.677569 9.32931)
(-3.45342e-15 0.637095 9.17279)
(-3.62582e-15 0.596181 9.03135)
(-3.75349e-15 0.555251 8.90335)
(-3.87987e-15 0.514798 8.78713)
(-3.99174e-15 0.475429 8.68037)
(-4.22763e-15 0.437638 8.58193)
(-4.34505e-15 0.402406 8.48713)
(-4.45163e-15 0.36937 8.40066)
(-4.54059e-15 0.341619 8.30265)
(-4.59859e-15 0.314209 8.23852)
(-4.6284e-15 0.293193 8.09125)
(1.41418e-15 -0.737016 11.9279)
(1.5398e-15 -0.324109 12.3992)
(4.74479e-16 0.0545729 12.6058)
(-1.75982e-16 0.407017 12.4668)
(1.2158e-15 0.637078 11.9488)
(1.21609e-15 0.72134 11.2683)
(1.14221e-15 0.739717 10.5695)
(1.7361e-15 0.734198 9.88656)
(1.6309e-15 0.717688 9.22944)
(1.35781e-15 0.696797 8.60556)
(2.03816e-15 0.677146 8.01701)
(1.89244e-15 0.660888 7.45927)
(2.08953e-15 0.645897 6.92322)
(2.67248e-15 0.629299 6.40175)
(3.32963e-15 0.609194 5.89882)
(4.58231e-15 0.582887 5.42944)
(5.18653e-15 0.548357 5.00106)
(6.67436e-15 0.510436 4.58751)
(3.64771e-15 0.480522 4.12834)
(3.66124e-15 0.469645 3.57044)
(3.13338e-15 0.47596 2.93296)
(-7.16813e-16 0.476086 2.3185)
(2.84158e-15 0.419345 1.84461)
(1.08285e-15 0.283226 1.63491)
(-7.11573e-15 0.0386351 1.78498)
(-2.49355e-15 -0.167147 1.99922)
(-1.78758e-15 -0.290464 2.17318)
(-5.44794e-15 -0.371556 2.32924)
(-7.68191e-15 -0.434928 2.48532)
(-7.10422e-15 -0.490179 2.64772)
(-8.48248e-15 -0.541196 2.81824)
(-8.22599e-15 -0.589986 2.99742)
(-7.27668e-15 -0.638136 3.18602)
(-8.44641e-15 -0.687416 3.38598)
(-8.84181e-15 -0.74003 3.60085)
(-9.0323e-15 -0.798684 3.83617)
(-9.80313e-15 -0.866051 4.09897)
(-8.5655e-15 -0.944334 4.39688)
(-6.38969e-15 -1.03443 4.73666)
(-4.33242e-15 -1.13616 5.12311)
(-5.07586e-15 -1.24872 5.55936)
(-4.42801e-15 -1.37039 6.0471)
(-5.63675e-15 -1.49859 6.58607)
(-5.69025e-15 -1.63026 7.17325)
(-5.70549e-15 -1.76333 7.80327)
(-4.95121e-15 -1.89721 8.47004)
(-3.8425e-15 -2.03211 9.16849)
(-2.96945e-15 -2.16728 9.89502)
(-2.62784e-15 -2.29928 10.6471)
(-2.44788e-15 -2.42098 11.422)
(-2.56386e-15 -2.52182 12.2153)
(-2.52829e-15 -2.58946 13.0197)
(-2.58163e-15 -2.61228 13.8248)
(-2.62277e-15 -2.58043 14.6193)
(-2.72318e-15 -2.48385 15.3923)
(-3.16078e-15 -2.3117 16.1389)
(-1.38075e-15 -2.04827 16.8666)
(-7.01635e-16 -1.65437 17.5884)
(1.90664e-16 -1.06814 18.3291)
(-1.0662e-15 -0.237196 19.1225)
(-4.26254e-15 0.828246 19.8181)
(-8.27181e-15 1.75906 20.0079)
(-1.00877e-14 2.28811 19.6949)
(-1.04298e-14 2.47475 19.1213)
(-8.81002e-15 2.46346 18.4601)
(-8.42939e-15 2.35938 17.7916)
(-7.05162e-15 2.2206 17.1471)
(-6.02354e-15 2.0757 16.5362)
(-5.66778e-15 1.93762 15.96)
(-4.87284e-15 1.81151 15.4162)
(-4.87e-15 1.6988 14.9019)
(-4.55579e-15 1.59919 14.414)
(-4.17065e-15 1.5116 13.9501)
(-3.52412e-15 1.43464 13.5084)
(-2.24622e-15 1.3668 13.0875)
(-2.12769e-15 1.30658 12.6865)
(-2.85019e-15 1.25256 12.305)
(-2.69345e-15 1.2034 11.9429)
(-2.94459e-15 1.15789 11.6001)
(-2.96719e-15 1.11493 11.2768)
(-2.72564e-15 1.07357 10.9732)
(-2.42456e-15 1.03302 10.6895)
(-2.42679e-15 0.992605 10.4257)
(-2.64373e-15 0.951835 10.1819)
(-2.78526e-15 0.910354 9.95767)
(-2.87088e-15 0.867959 9.75268)
(-3.06773e-15 0.824592 9.56621)
(-3.26172e-15 0.78033 9.39726)
(-3.46156e-15 0.735382 9.24458)
(-3.64869e-15 0.690074 9.10664)
(-3.83094e-15 0.644831 8.9817)
(-3.94559e-15 0.60017 8.86775)
(-4.01218e-15 0.556659 8.76283)
(-4.12209e-15 0.514953 8.66441)
(-4.18272e-15 0.475592 8.57135)
(-4.30487e-15 0.439521 8.47879)
(-4.38867e-15 0.406424 8.39212)
(-4.46845e-15 0.379269 8.29021)
(-4.49744e-15 0.352775 8.22294)
(-4.54783e-15 0.335057 8.06296)
(1.99084e-15 -0.824516 10.8504)
(2.08978e-15 -0.390878 11.2583)
(1.97778e-15 0.0159175 11.5255)
(1.31706e-15 0.407653 11.513)
(1.50319e-15 0.670555 11.0853)
(1.00056e-15 0.766809 10.46)
(1.80705e-15 0.788783 9.80308)
(1.5296e-15 0.78436 9.15498)
(1.81868e-15 0.767577 8.52922)
(1.93729e-15 0.745601 7.93737)
(2.23082e-15 0.724952 7.38384)
(3.61632e-15 0.70861 6.86157)
(3.22606e-15 0.694433 6.35691)
(2.80129e-15 0.678425 5.86389)
(3.85275e-15 0.657333 5.39189)
(3.82279e-15 0.6288 4.95305)
(4.74843e-15 0.59389 4.53772)
(4.39962e-15 0.561639 4.10152)
(2.02059e-15 0.544093 3.58876)
(8.85123e-16 0.545849 2.98898)