/*--------------------------------*- C++ -*----------------------------------*\
| =========                 |                                                 |
| \\      /  F ield         | OpenFOAM: The Open Source CFD Toolbox           |
|  \\    /   O peration     | Version:  4.1                                   |
|   \\  /    A nd           | Web:      www.OpenFOAM.org                      |
|    \\/     M anipulation  |                                                 |
\*---------------------------------------------------------------------------*/
FoamFile
{
    version     2.0;
    format      ascii;
    class       volScalarField;
    location    "1100";
    object      k;
}
// * * * * * * * * * * * * * * * * * * * * * * * * * * * * * * * * * * * * * //

dimensions      [0 2 -2 0 0 0 0];

internalField   nonuniform List<scalar> 
6820
(
0.257082
0.434211
0.59852
0.709382
0.778145
0.818049
0.838548
0.845896
0.844371
0.836964
0.825768
0.812248
0.797427
0.782016
0.766499
0.751203
0.736338
0.722038
0.70838
0.695403
0.683118
0.671519
0.660587
0.650298
0.640621
0.631523
0.62297
0.614931
0.607347
0.600304
0.593201
0.588707
0.574495
0.811277
1.44613
1.51874
1.38792
1.22323
1.07762
0.95922
0.864569
0.788642
0.727157
0.676842
0.635256
0.600578
0.571431
0.546763
0.525758
0.507776
0.49231
0.478953
0.467376
0.457309
0.448531
0.440858
0.434137
0.428239
0.423057
0.418499
0.414491
0.410964
0.407884
0.405156
0.402944
0.40069
0.368869
0.66416
0.797428
0.829397
0.816589
0.786285
0.750411
0.713991
0.679044
0.646311
0.616001
0.588103
0.562514
0.539088
0.517663
0.498078
0.480173
0.4638
0.44882
0.435107
0.422544
0.411025
0.400457
0.390751
0.381831
0.373626
0.366073
0.359115
0.352701
0.346787
0.341328
0.336302
0.331651
0.240027
0.336287
0.412169
0.460222
0.487105
0.500012
0.504036
0.502508
0.497533
0.490423
0.482012
0.472846
0.463295
0.453611
0.443967
0.434484
0.425242
0.416294
0.407675
0.399404
0.391489
0.383933
0.376731
0.369875
0.363356
0.357161
0.351278
0.345693
0.340393
0.335363
0.330591
0.326065
0.321766
0.214145
0.250649
0.284542
0.31208
0.332947
0.348027
0.358469
0.365345
0.369528
0.371681
0.372296
0.371745
0.370308
0.368202
0.365595
0.362616
0.359369
0.355933
0.352374
0.348743
0.345078
0.341412
0.337769
0.33417
0.330629
0.327158
0.323765
0.320456
0.317237
0.31411
0.311077
0.308139
0.305298
0.20564
0.221937
0.238617
0.25366
0.26644
0.276904
0.285273
0.29185
0.296934
0.300784
0.303614
0.305602
0.306896
0.307616
0.307861
0.307715
0.307247
0.306514
0.305564
0.304439
0.303172
0.301792
0.300325
0.298789
0.297204
0.295583
0.293939
0.292283
0.290622
0.288966
0.28732
0.28569
0.284082
0.202357
0.210378
0.219404
0.228106
0.235957
0.242783
0.248605
0.253515
0.257621
0.261026
0.263824
0.266096
0.267914
0.269339
0.270425
0.271218
0.271758
0.272079
0.272212
0.272182
0.272013
0.271724
0.271333
0.270855
0.270303
0.269689
0.269023
0.268315
0.267571
0.2668
0.266006
0.265197
0.264377
0.201008
0.2051
0.210232
0.215526
0.22054
0.225078
0.229098
0.232621
0.235689
0.238346
0.240635
0.242597
0.244268
0.245681
0.246866
0.247847
0.248648
0.249289
0.249788
0.250162
0.250425
0.25059
0.250668
0.250669
0.250602
0.250476
0.250298
0.250074
0.249811
0.249514
0.249187
0.248836
0.248464
0.200424
0.202508
0.205459
0.208754
0.21204
0.21513
0.217953
0.220495
0.222768
0.224789
0.226579
0.228159
0.229548
0.230765
0.231826
0.232746
0.23354
0.23422
0.234797
0.235281
0.235681
0.236006
0.236263
0.236458
0.236599
0.236691
0.236738
0.236746
0.236719
0.23666
0.236574
0.236463
0.236331
0.200163
0.201193
0.202864
0.204904
0.207067
0.20919
0.211193
0.213044
0.214736
0.216272
0.217659
0.218908
0.220029
0.221031
0.221926
0.222722
0.223428
0.224051
0.224599
0.225079
0.225496
0.225856
0.226164
0.226425
0.226643
0.226822
0.226965
0.227076
0.227158
0.227213
0.227245
0.227255
0.227247
0.200044
0.20052
0.201431
0.202661
0.20406
0.205505
0.206921
0.208268
0.209528
0.210694
0.211766
0.212747
0.213641
0.214454
0.215192
0.215859
0.21646
0.217002
0.217488
0.217924
0.218312
0.218657
0.218963
0.219231
0.219467
0.219671
0.219848
0.219999
0.220126
0.220232
0.220318
0.220387
0.220439
0.199989
0.200177
0.20064
0.201347
0.20222
0.203178
0.204159
0.205125
0.206054
0.206932
0.207754
0.208519
0.209227
0.209879
0.210478
0.211028
0.21153
0.211989
0.212406
0.212786
0.21313
0.213441
0.213722
0.213975
0.214201
0.214404
0.214584
0.214744
0.214885
0.215009
0.215117
0.21521
0.215291
0.199965
0.200004
0.200209
0.200585
0.201099
0.201706
0.202361
0.203034
0.203702
0.204351
0.204971
0.205559
0.206111
0.206627
0.207107
0.207553
0.207966
0.208347
0.208698
0.209021
0.209317
0.209589
0.209837
0.210063
0.21027
0.210457
0.210627
0.210781
0.21092
0.211045
0.211158
0.211259
0.211349
0.199954
0.199918
0.199979
0.20015
0.200426
0.200784
0.201198
0.201645
0.202107
0.20257
0.203025
0.203465
0.203886
0.204286
0.204664
0.205019
0.205352
0.205662
0.205951
0.20622
0.206469
0.2067
0.206913
0.20711
0.207291
0.207458
0.207611
0.207752
0.207881
0.207999
0.208107
0.208206
0.208296
0.199949
0.199877
0.199858
0.199907
0.20003
0.200217
0.200456
0.200733
0.201034
0.201348
0.201667
0.201984
0.202294
0.202594
0.202883
0.203158
0.203419
0.203665
0.203898
0.204116
0.204321
0.204512
0.20469
0.204857
0.205011
0.205155
0.205289
0.205413
0.205528
0.205634
0.205733
0.205824
0.205908
0.199947
0.199857
0.199796
0.199776
0.199803
0.199877
0.199994
0.200145
0.200323
0.20052
0.200729
0.200944
0.20116
0.201375
0.201586
0.201791
0.201988
0.202178
0.202358
0.20253
0.202693
0.202846
0.202991
0.203127
0.203256
0.203376
0.203488
0.203594
0.203693
0.203785
0.203872
0.203953
0.204029
0.199947
0.199847
0.199764
0.199706
0.199676
0.199679
0.199713
0.199776
0.199863
0.19997
0.200092
0.200224
0.200363
0.200506
0.200651
0.200794
0.200936
0.201074
0.201208
0.201337
0.201461
0.201579
0.201692
0.2018
0.201902
0.201999
0.202091
0.202177
0.202259
0.202337
0.20241
0.202479
0.202544
0.199946
0.199843
0.199749
0.199669
0.199608
0.199567
0.199548
0.19955
0.199573
0.199614
0.199669
0.199737
0.199814
0.199898
0.199986
0.200078
0.20017
0.200264
0.200356
0.200447
0.200536
0.200622
0.200705
0.200786
0.200863
0.200938
0.201009
0.201077
0.201142
0.201205
0.201264
0.201321
0.201375
0.199946
0.199841
0.199742
0.199651
0.199571
0.199505
0.199453
0.199417
0.199396
0.199389
0.199396
0.199415
0.199443
0.19948
0.199523
0.199572
0.199624
0.199678
0.199735
0.199792
0.199849
0.199907
0.199964
0.20002
0.200074
0.200128
0.20018
0.20023
0.200279
0.200326
0.200372
0.200416
0.200459
0.199946
0.19984
0.199739
0.199642
0.199553
0.199471
0.1994
0.19934
0.19929
0.199252
0.199225
0.199209
0.199201
0.199202
0.199209
0.199223
0.199242
0.199265
0.199291
0.19932
0.199351
0.199383
0.199416
0.19945
0.199485
0.199519
0.199554
0.199588
0.199622
0.199655
0.199688
0.199721
0.199753
0.199946
0.19984
0.199737
0.199638
0.199543
0.199454
0.199372
0.199297
0.19923
0.199172
0.199122
0.199081
0.199048
0.199022
0.199003
0.198991
0.198984
0.198982
0.198984
0.198989
0.198998
0.19901
0.199023
0.199039
0.199056
0.199074
0.199093
0.199113
0.199134
0.199155
0.199177
0.199199
0.199221
0.199946
0.19984
0.199736
0.199635
0.199538
0.199445
0.199356
0.199273
0.199196
0.199125
0.199061
0.199004
0.198954
0.198911
0.198873
0.198842
0.198817
0.198796
0.19878
0.198768
0.19876
0.198755
0.198753
0.198754
0.198757
0.198763
0.19877
0.198778
0.198788
0.198799
0.198812
0.198825
0.198839
0.199946
0.19984
0.199736
0.199634
0.199536
0.19944
0.199349
0.199261
0.199178
0.1991
0.199028
0.198962
0.198901
0.198846
0.198798
0.198754
0.198716
0.198683
0.198655
0.198631
0.198611
0.198595
0.198583
0.198573
0.198567
0.198562
0.198561
0.198561
0.198563
0.198567
0.198572
0.198578
0.198586
0.199946
0.19984
0.199735
0.199634
0.199534
0.199438
0.199345
0.199255
0.19917
0.199089
0.199013
0.198942
0.198876
0.198816
0.198761
0.198711
0.198667
0.198628
0.198593
0.198563
0.198537
0.198514
0.198496
0.198481
0.198468
0.198459
0.198452
0.198447
0.198445
0.198444
0.198446
0.198448
0.198452
0.199946
0.19984
0.199735
0.199633
0.199534
0.199437
0.199344
0.199254
0.199168
0.199087
0.19901
0.198939
0.198873
0.198812
0.198756
0.198706
0.198661
0.198621
0.198586
0.198554
0.198528
0.198505
0.198485
0.198469
0.198456
0.198446
0.198438
0.198433
0.198429
0.198428
0.198428
0.19843
0.198433
0.199946
0.19984
0.199735
0.199634
0.199534
0.199438
0.199346
0.199257
0.199174
0.199095
0.199022
0.198954
0.198892
0.198836
0.198785
0.19874
0.1987
0.198665
0.198635
0.198609
0.198587
0.198569
0.198554
0.198542
0.198533
0.198527
0.198523
0.198521
0.19852
0.198522
0.198524
0.198529
0.198534
0.199946
0.19984
0.199736
0.199635
0.199537
0.199442
0.199353
0.199269
0.19919
0.199118
0.199053
0.198995
0.198943
0.198898
0.198858
0.198825
0.198797
0.198774
0.198756
0.198741
0.19873
0.198723
0.198718
0.198716
0.198716
0.198718
0.198722
0.198728
0.198734
0.198742
0.19875
0.19876
0.19877
0.199946
0.19984
0.199737
0.199637
0.199542
0.199453
0.19937
0.199295
0.199228
0.19917
0.199121
0.199079
0.199046
0.19902
0.199001
0.198988
0.19898
0.198977
0.198978
0.198982
0.198989
0.198998
0.19901
0.199023
0.199037
0.199052
0.199068
0.199085
0.199102
0.199119
0.199136
0.199153
0.199171
0.199946
0.199841
0.19974
0.199645
0.199557
0.199478
0.19941
0.199354
0.199309
0.199277
0.199255
0.199244
0.199241
0.199247
0.199259
0.199277
0.199299
0.199325
0.199353
0.199384
0.199416
0.199448
0.199481
0.199514
0.199547
0.199579
0.199611
0.199642
0.199672
0.199701
0.199729
0.199756
0.199782
0.199947
0.199844
0.199749
0.199664
0.199592
0.199537
0.199499
0.19948
0.199477
0.19949
0.199516
0.199553
0.199599
0.199652
0.19971
0.199772
0.199836
0.199901
0.199965
0.20003
0.200092
0.200154
0.200213
0.20027
0.200324
0.200376
0.200426
0.200473
0.200518
0.20056
0.200599
0.200637
0.200672
0.199948
0.199852
0.19977
0.199711
0.199677
0.199673
0.199697
0.199746
0.199818
0.199907
0.20001
0.200122
0.200239
0.20036
0.200481
0.2006
0.200717
0.20083
0.200939
0.201043
0.201141
0.201234
0.201322
0.201405
0.201482
0.201554
0.201622
0.201685
0.201743
0.201797
0.201848
0.201894
0.201937
0.199951
0.199872
0.199828
0.199831
0.199884
0.199985
0.200128
0.200302
0.2005
0.20071
0.200928
0.201146
0.201361
0.201569
0.201768
0.201958
0.202136
0.202304
0.20246
0.202605
0.20274
0.202865
0.20298
0.203087
0.203184
0.203274
0.203356
0.203431
0.2035
0.203562
0.203619
0.203671
0.203718
0.19996
0.199932
0.199988
0.200141
0.200383
0.200695
0.201055
0.20144
0.201833
0.202222
0.202597
0.202954
0.203288
0.203598
0.203885
0.204149
0.20439
0.204611
0.204811
0.204994
0.205159
0.205309
0.205445
0.205567
0.205677
0.205777
0.205866
0.205946
0.206017
0.20608
0.206137
0.206186
0.20623
0.19999
0.200113
0.200438
0.200945
0.201582
0.202288
0.203012
0.20372
0.20439
0.205011
0.205578
0.206091
0.206552
0.206965
0.207333
0.207661
0.207953
0.208212
0.208442
0.208646
0.208826
0.208985
0.209126
0.209249
0.209357
0.209451
0.209533
0.209603
0.209664
0.209715
0.209757
0.209792
0.20982
0.200097
0.200698
0.201729
0.20303
0.20443
0.205804
0.207078
0.208222
0.20923
0.210107
0.210866
0.211521
0.212084
0.212568
0.212984
0.213341
0.213648
0.21391
0.214135
0.214327
0.21449
0.214628
0.214743
0.214839
0.214917
0.214979
0.215028
0.215064
0.215089
0.215104
0.215111
0.215109
0.2151
0.200521
0.202675
0.205525
0.20847
0.211189
0.21355
0.215527
0.217152
0.218476
0.219552
0.220424
0.221131
0.221704
0.222168
0.222543
0.222845
0.223087
0.223277
0.223425
0.223537
0.223617
0.223672
0.223702
0.223713
0.223707
0.223684
0.223649
0.223601
0.223542
0.223475
0.223398
0.223315
0.223225
0.202177
0.209422
0.217079
0.223316
0.228003
0.231437
0.233925
0.235719
0.237011
0.237936
0.238593
0.239054
0.239367
0.239569
0.239685
0.239733
0.239727
0.239676
0.239588
0.239469
0.239324
0.239157
0.238971
0.238768
0.23855
0.23832
0.23808
0.23783
0.237573
0.237308
0.237038
0.236764
0.236486
0.208503
0.227596
0.245316
0.25869
0.267554
0.272837
0.275658
0.27695
0.277338
0.277195
0.276744
0.276116
0.275385
0.274596
0.273774
0.272932
0.27208
0.271221
0.270359
0.269495
0.268631
0.267768
0.266908
0.266051
0.265198
0.264351
0.263511
0.262677
0.261853
0.261037
0.260232
0.259437
0.258653
0.248308
0.315061
0.348161
0.362157
0.367118
0.367958
0.366701
0.364185
0.360865
0.357053
0.352965
0.348753
0.344525
0.340356
0.336297
0.332382
0.328633
0.32506
0.321669
0.318461
0.315431
0.312577
0.309891
0.307366
0.304994
0.302768
0.30068
0.298722
0.296886
0.295167
0.293555
0.292046
0.290632
0.205354
0.221127
0.238043
0.254121
0.268995
0.282971
0.296258
0.308938
0.321054
0.332632
0.343696
0.354264
0.36435
0.373971
0.38314
0.391874
0.400187
0.408094
0.415611
0.422753
0.429534
0.435971
0.442078
0.447868
0.453358
0.45856
0.463488
0.468155
0.472574
0.476757
0.480716
0.484461
0.488008
0.618261
0.694219
0.816166
0.965417
1.13054
1.29911
1.46234
1.61306
1.74542
1.85541
1.94153
2.00483
2.04833
2.07603
2.09203
2.0999
2.10232
2.10112
2.09743
2.09187
2.08481
2.0765
2.06714
2.05691
2.04596
2.0344
2.02228
2.00958
1.99624
1.98216
1.96721
1.95123
1.93406
1.91555
1.89554
1.87387
1.85043
1.8251
1.7978
1.76848
1.73711
1.70371
1.66833
1.63106
1.59202
1.55139
1.50938
1.46622
1.4222
1.37763
1.33283
1.28814
1.24393
1.20055
1.15834
1.11763
1.07874
1.04192
1.00743
0.975454
0.946146
0.919617
0.895931
0.875113
0.857152
0.842002
0.829589
0.819815
0.812564
0.807704
0.805091
0.804571
0.805984
0.809164
0.813937
0.820127
0.827556
0.836042
0.845402
0.855454
0.866017
0.876913
0.887966
0.899009
0.909881
0.920432
0.930523
0.940028
0.948835
0.956844
0.963972
0.970146
0.975309
0.979409
0.982428
0.984302
0.985132
0.984665
0.983712
0.980466
0.399172
0.404156
0.417424
0.441466
0.476995
0.524506
0.58389
0.654443
0.734846
0.82324
0.917252
1.01406
1.11056
1.20361
1.29036
1.36854
1.43665
1.49406
1.54091
1.57796
1.60632
1.62723
1.6419
1.65138
1.65654
1.65806
1.65647
1.65216
1.64545
1.63654
1.62561
1.61276
1.59805
1.58154
1.56323
1.54314
1.52127
1.49764
1.47226
1.44516
1.41641
1.38608
1.35427
1.32111
1.28676
1.2514
1.21525
1.17853
1.14151
1.10445
1.06763
1.03134
0.995862
0.961471
0.928426
0.896966
0.867304
0.839626
0.814083
0.790793
0.769841
0.751277
0.735121
0.721364
0.709974
0.700894
0.694055
0.689369
0.68674
0.686064
0.687228
0.690117
0.694607
0.700575
0.707888
0.716412
0.726009
0.736533
0.747839
0.759775
0.77219
0.784929
0.797837
0.810764
0.823559
0.83608
0.848194
0.859774
0.870706
0.880888
0.89023
0.898651
0.906088
0.912478
0.917794
0.921968
0.925081
0.926905
0.928071
0.927873
0.326704
0.321608
0.317083
0.313607
0.311905
0.312737
0.316636
0.324243
0.33644
0.354105
0.378065
0.409003
0.447328
0.493035
0.545595
0.603908
0.666341
0.730876
0.795326
0.857585
0.915851
0.968774
1.01552
1.05572
1.08942
1.11693
1.13871
1.15528
1.16719
1.1749
1.17886
1.17942
1.1769
1.17156
1.16362
1.15328
1.1407
1.12604
1.10945
1.09107
1.07105
1.04953
1.02669
1.00268
0.977703
0.951948
0.925627
0.89896
0.872172
0.845495
0.81916
0.793393
0.768412
0.744421
0.721608
0.700143
0.680169
0.66181
0.64516
0.630292
0.617251
0.606061
0.596727
0.589234
0.583551
0.579637
0.57744
0.5769
0.577952
0.580526
0.584548
0.589944
0.596631
0.604526
0.613541
0.623581
0.634546
0.646332
0.658825
0.67191
0.685461
0.69935
0.713446
0.727613
0.741716
0.755623
0.769204
0.782338
0.794909
0.80681
0.817947
0.828231
0.83759
0.845953
0.853281
0.859499
0.864669
0.868586
0.8717
0.874345
0.317033
0.311838
0.306764
0.301845
0.297175
0.292877
0.289095
0.285973
0.283648
0.282362
0.28242
0.284192
0.288101
0.294612
0.304198
0.31729
0.334223
0.355168
0.380073
0.408625
0.440245
0.474123
0.509285
0.544687
0.579315
0.612266
0.642809
0.67041
0.694731
0.715604
0.733
0.746987
0.757701
0.765313
0.770018
0.772016
0.771505
0.768682
0.76374
0.756867
0.748249
0.738073
0.726527
0.713797
0.700077
0.685561
0.670443
0.654922
0.639191
0.623442
0.607863
0.59263
0.57791
0.563857
0.550609
0.538289
0.527001
0.516832
0.507849
0.500105
0.493634
0.488457
0.484583
0.482007
0.480717
0.480695
0.481914
0.484345
0.487957
0.492713
0.498577
0.505508
0.513464
0.522398
0.532259
0.542988
0.554523
0.566791
0.579715
0.593208
0.607175
0.621512
0.63611
0.650854
0.665624
0.680299
0.694758
0.708882
0.722558
0.735676
0.748137
0.759846
0.770723
0.780686
0.789687
0.797642
0.804591
0.810351
0.815198
0.820418
0.302099
0.298519
0.294965
0.291425
0.287903
0.284415
0.280992
0.277676
0.274504
0.271524
0.268796
0.266398
0.264428
0.263007
0.262279
0.262414
0.263603
0.266047
0.269945
0.275475
0.282774
0.291912
0.302873
0.315545
0.329718
0.345091
0.361291
0.377906
0.394507
0.410684
0.426066
0.440341
0.453263
0.464651
0.474391
0.482426
0.488744
0.493375
0.496379
0.49784
0.497859
0.496554
0.494051
0.490487
0.486003
0.480745
0.474861
0.468501
0.461812
0.454937
0.448017
0.441182
0.434558
0.428258
0.422386
0.417033
0.412279
0.408192
0.404829
0.402236
0.400446
0.399487
0.399377
0.400126
0.401741
0.404223
0.407569
0.411775
0.416835
0.42274
0.429481
0.437045
0.445419
0.454585
0.46452
0.475197
0.486582
0.498634
0.511302
0.524529
0.538246
0.552376
0.566831
0.581516
0.596329
0.611162
0.625905
0.640447
0.654676
0.668485
0.681769
0.694432
0.706382
0.717534
0.727824
0.737164
0.745569
0.752878
0.759203
0.766671
0.282231
0.280115
0.277972
0.275794
0.273574
0.271312
0.269019
0.266708
0.264396
0.262098
0.259834
0.257624
0.255492
0.253469
0.251589
0.249897
0.248445
0.247294
0.246515
0.246187
0.24639
0.247206
0.248709
0.250959
0.253994
0.257827
0.262436
0.267765
0.273723
0.28019
0.28702
0.294054
0.301125
0.30807
0.314737
0.320991
0.326719
0.331834
0.336273
0.34
0.343001
0.345282
0.346871
0.347807
0.348148
0.347959
0.347314
0.346294
0.344983
0.343466
0.341829
0.340156
0.338528
0.337021
0.335708
0.334652
0.333913
0.333543
0.333589
0.334088
0.335076
0.336579
0.338621
0.341221
0.344395
0.348155
0.352514
0.357481
0.363065
0.369273
0.376114
0.383592
0.391713
0.400478
0.409887
0.419933
0.430605
0.441885
0.453748
0.46616
0.479077
0.492445
0.506199
0.520266
0.534562
0.548996
0.56347
0.577883
0.592131
0.606109
0.619715
0.632847
0.645411
0.657315
0.668484
0.678825
0.68833
0.696858
0.704369
0.713708
0.263408
0.262271
0.261091
0.259862
0.258579
0.25724
0.255847
0.254407
0.252927
0.251416
0.249883
0.248336
0.246785
0.245238
0.243707
0.242205
0.240745
0.239347
0.238031
0.236824
0.235755
0.234857
0.234165
0.233715
0.233542
0.233678
0.234147
0.234968
0.236146
0.237677
0.239541
0.241709
0.244137
0.246775
0.249563
0.25244
0.255342
0.258208
0.260985
0.263622
0.266083
0.268336
0.270366
0.272163
0.273729
0.275078
0.276228
0.277207
0.278048
0.278788
0.279468
0.28013
0.280819
0.281576
0.282444
0.283464
0.284672
0.286106
0.287796
0.289772
0.29206
0.294684
0.297664
0.30102
0.304768
0.308923
0.313503
0.31852
0.32399
0.329928
0.336349
0.343268
0.350698
0.358655
0.367148
0.376187
0.385777
0.395917
0.4066
0.417814
0.429535
0.441731
0.45436
0.467368
0.480692
0.494259
0.507988
0.52179
0.535573
0.549238
0.562689
0.575824
0.588549
0.600767
0.612397
0.62334
0.633571
0.642962
0.651346
0.662138
0.248006
0.247448
0.246847
0.246202
0.245507
0.24476
0.24396
0.243111
0.242216
0.241281
0.240311
0.23931
0.238283
0.237235
0.23617
0.235092
0.234008
0.232923
0.231844
0.23078
0.229741
0.228739
0.22779
0.226909
0.226113
0.225421
0.224851
0.224419
0.224142
0.224031
0.224094
0.224336
0.224756
0.225348
0.226101
0.226999
0.228026
0.229159
0.230376
0.231655
0.232976
0.234318
0.235667
0.237009
0.238337
0.239647
0.24094
0.242222
0.243501
0.244791
0.246108
0.247468
0.248893
0.250404
0.252021
0.253767
0.255662
0.257728
0.259984
0.262448
0.265136
0.268066
0.271252
0.274707
0.278445
0.28248
0.286824
0.291492
0.296499
0.301861
0.307593
0.313713
0.320241
0.327193
0.334589
0.342445
0.350777
0.359595
0.368908
0.378716
0.389015
0.399791
0.411021
0.422672
0.434702
0.447056
0.459671
0.472476
0.485392
0.498332
0.511207
0.523924
0.536389
0.548506
0.560191
0.571344
0.581922
0.591815
0.600745
0.612549
0.236152
0.235916
0.235644
0.235336
0.234988
0.234596
0.23416
0.233681
0.233161
0.232603
0.23201
0.231385
0.230732
0.230053
0.22935
0.228626
0.227884
0.227126
0.226355
0.225573
0.224785
0.223997
0.223213
0.22244
0.221688
0.220965
0.22028
0.219645
0.21907
0.218566
0.218142
0.217807
0.217569
0.217433
0.217404
0.217481
0.217666
0.217955
0.218345
0.218831
0.219407
0.220067
0.220805
0.221617
0.222498
0.223447
0.224462
0.225545
0.226698
0.227926
0.229236
0.230635
0.232132
0.233737
0.235461
0.237313
0.239306
0.241448
0.243752
0.246225
0.248879
0.251721
0.25476
0.258004
0.261462
0.265143
0.269056
0.273213
0.277624
0.282304
0.287268
0.292531
0.298113
0.304033
0.310311
0.316967
0.324022
0.331494
0.3394
0.347753
0.356558
0.365819
0.375529
0.385672
0.396224
0.407152
0.418411
0.429947
0.441698
0.453593
0.465555
0.477499
0.489341
0.500989
0.51236
0.523355
0.533921
0.543961
0.553116
0.565484
0.227214
0.227152
0.227062
0.226943
0.226792
0.226607
0.226388
0.226133
0.225845
0.225524
0.225173
0.224794
0.224389
0.22396
0.22351
0.223039
0.222549
0.222042
0.221519
0.220981
0.220431
0.21987
0.219301
0.218727
0.218153
0.217582
0.21702
0.216473
0.215948
0.21545
0.214989
0.21457
0.214202
0.213891
0.213643
0.213464
0.213359
0.213332
0.213387
0.213526
0.21375
0.214062
0.214461
0.21495
0.215528
0.216198
0.21696
0.217816
0.21877
0.219824
0.220982
0.222248
0.223627
0.225125
0.226745
0.228494
0.230376
0.232396
0.234558
0.236867
0.239327
0.24194
0.244711
0.247643
0.25074
0.254007
0.257449
0.261074
0.26489
0.268906
0.273135
0.277591
0.28229
0.28725
0.292491
0.298033
0.303898
0.310109
0.316685
0.323646
0.331009
0.338784
0.346978
0.355591
0.364614
0.374031
0.383814
0.39393
0.404332
0.414967
0.425772
0.436678
0.447611
0.458487
0.46923
0.479746
0.489976
0.499838
0.508915
0.521415
0.220482
0.22051
0.220517
0.220502
0.220463
0.220397
0.220304
0.220184
0.220036
0.219863
0.219665
0.219443
0.2192
0.218938
0.218656
0.218358
0.218044
0.217715
0.217373
0.217017
0.21665
0.216272
0.215885
0.215491
0.21509
0.214687
0.214284
0.213884
0.213491
0.213109
0.212745
0.212402
0.212086
0.211803
0.21156
0.211361
0.211213
0.211121
0.211091
0.211127
0.211234
0.211416
0.211678
0.212024
0.212456
0.21298
0.213597
0.214312
0.215128
0.216048
0.217075
0.218214
0.219466
0.220835
0.222324
0.223934
0.225669
0.227528
0.229514
0.231626
0.233866
0.236233
0.238726
0.241347
0.244095
0.246973
0.249981
0.253123
0.256405
0.259833
0.263416
0.267165
0.271092
0.275214
0.279548
0.284114
0.288931
0.294023
0.299411
0.305118
0.311164
0.317568
0.324344
0.331501
0.339045
0.346972
0.355271
0.363924
0.372901
0.382167
0.391675
0.401372
0.411196
0.421078
0.430949
0.440726
0.450349
0.459749
0.46848
0.480715
0.215369
0.215442
0.2155
0.21554
0.215562
0.215563
0.215544
0.215503
0.215442
0.215359
0.215257
0.215136
0.214998
0.214845
0.214676
0.214495
0.214301
0.214096
0.21388
0.213655
0.213422
0.21318
0.212932
0.212678
0.212419
0.212157
0.211894
0.211632
0.211373
0.211121
0.210878
0.210649
0.210438
0.210249
0.210086
0.209956
0.209862
0.209811
0.209808
0.209858
0.209966
0.210138
0.210379
0.210693
0.211086
0.211562
0.212126
0.212781
0.213531
0.214381
0.215333
0.21639
0.217555
0.21883
0.220216
0.221713
0.223322
0.225043
0.226874
0.228813
0.230859
0.233009
0.235261
0.237612
0.240059
0.242602
0.24524
0.247974
0.250805
0.253737
0.256777
0.259932
0.263212
0.26663
0.270201
0.273941
0.27787
0.282007
0.286375
0.290996
0.295892
0.301084
0.306592
0.312431
0.318616
0.325152
0.33204
0.339276
0.346845
0.354726
0.36289
0.371297
0.379902
0.38865
0.397484
0.406333
0.41514
0.423853
0.432017
0.443646
0.211442
0.211535
0.211616
0.211684
0.211738
0.211777
0.211799
0.211805
0.211795
0.211768
0.211727
0.21167
0.2116
0.211518
0.211425
0.211323
0.211211
0.211091
0.210964
0.210832
0.210694
0.210551
0.210405
0.210256
0.210105
0.209953
0.209803
0.209654
0.209509
0.209371
0.209241
0.209123
0.20902
0.208934
0.208871
0.208833
0.208826
0.208854
0.208922
0.209035
0.209198
0.209415
0.209693
0.210036
0.21045
0.210938
0.211506
0.212157
0.212897
0.213727
0.214652
0.215673
0.216793
0.218014
0.219334
0.220755
0.222275
0.223893
0.225605
0.22741
0.229302
0.231278
0.233333
0.235464
0.237667
0.239937
0.242272
0.24467
0.247133
0.24966
0.252255
0.254923
0.257673
0.260513
0.263456
0.266515
0.269708
0.273051
0.276566
0.280273
0.284193
0.288349
0.292762
0.297451
0.302434
0.307723
0.313329
0.319255
0.325501
0.332055
0.338904
0.346022
0.353378
0.360933
0.368641
0.376447
0.384301
0.392162
0.399594
0.410344
0.208391
0.20849
0.208579
0.208659
0.208728
0.208785
0.208831
0.208863
0.208883
0.208891
0.208887
0.208872
0.208846
0.208811
0.208769
0.208719
0.208663
0.208603
0.208538
0.20847
0.2084
0.208329
0.208257
0.208185
0.208115
0.208047
0.207983
0.207923
0.20787
0.207825
0.20779
0.207767
0.207759
0.207768
0.207799
0.207853
0.207936
0.208051
0.208201
0.208393
0.208629
0.208915
0.209255
0.209655
0.210118
0.21065
0.211254
0.211935
0.212696
0.21354
0.21447
0.215489
0.216597
0.217795
0.219082
0.220459
0.221923
0.22347
0.225098
0.226803
0.228579
0.230421
0.232324
0.234282
0.236289
0.238341
0.240433
0.242563
0.244728
0.246928
0.249165
0.25144
0.25376
0.256132
0.258565
0.261071
0.263663
0.266358
0.269172
0.272124
0.275235
0.278525
0.282016
0.285727
0.289677
0.293885
0.298364
0.303124
0.308172
0.313508
0.319128
0.325019
0.331163
0.337533
0.344097
0.350813
0.357641
0.364553
0.371144
0.380819
0.205999
0.206095
0.206184
0.206266
0.20634
0.206405
0.206461
0.206508
0.206545
0.206573
0.206591
0.206602
0.206605
0.206601
0.206592
0.206578
0.206561
0.206541
0.20652
0.206498
0.206476
0.206456
0.206438
0.206424
0.206413
0.206408
0.206409
0.206418
0.206436
0.206464
0.206505
0.206559
0.206631
0.206721
0.206833
0.20697
0.207134
0.20733
0.20756
0.20783
0.208142
0.208501
0.208911
0.209376
0.209901
0.210489
0.211144
0.21187
0.21267
0.213546
0.214502
0.215537
0.216653
0.21785
0.219128
0.220483
0.221915
0.223418
0.224989
0.226623
0.228313
0.230054
0.231839
0.233662
0.235516
0.237396
0.239295
0.24121
0.243138
0.245076
0.247024
0.248984
0.250958
0.252953
0.254976
0.257035
0.259143
0.261311
0.263556
0.265894
0.268342
0.27092
0.273648
0.276544
0.279628
0.282919
0.286432
0.290183
0.294182
0.298437
0.302949
0.307716
0.312731
0.317976
0.323433
0.329072
0.334862
0.340786
0.346483
0.354965
0.204111
0.204199
0.204282
0.204361
0.204433
0.204499
0.204559
0.204612
0.204657
0.204696
0.204728
0.204755
0.204776
0.204792
0.204805
0.204815
0.204824
0.204832
0.204841
0.204852
0.204865
0.204881
0.204902
0.204929
0.204963
0.205004
0.205055
0.205115
0.205188
0.205273
0.205373
0.20549
0.205625
0.205782
0.205961
0.206167
0.206401
0.206668
0.206969
0.207309
0.207691
0.208118
0.208595
0.209125
0.209712
0.210358
0.211069
0.211845
0.212691
0.213607
0.214596
0.215659
0.216795
0.218003
0.219284
0.220633
0.222048
0.223524
0.225057
0.22664
0.228268
0.229933
0.231627
0.233345
0.235079
0.236821
0.238567
0.24031
0.242047
0.243775
0.245492
0.247198
0.248895
0.250588
0.25228
0.253981
0.255698
0.257443
0.259229
0.26107
0.262982
0.264981
0.267084
0.269311
0.27168
0.274207
0.276911
0.279808
0.282909
0.286228
0.28977
0.29354
0.297537
0.301755
0.306182
0.3108
0.315587
0.320536
0.325335
0.332577
0.202616
0.202694
0.202768
0.20284
0.202907
0.20297
0.203028
0.203082
0.20313
0.203174
0.203213
0.203249
0.20328
0.20331
0.203337
0.203363
0.20339
0.203417
0.203447
0.20348
0.203517
0.20356
0.203609
0.203666
0.203732
0.203808
0.203895
0.203994
0.204108
0.204237
0.204383
0.204548
0.204734
0.204943
0.205177
0.205438
0.20573
0.206056
0.206417
0.206817
0.207259
0.207747
0.208284
0.208872
0.209516
0.210217
0.210979
0.211805
0.212695
0.213652
0.214677
0.215769
0.216929
0.218155
0.219444
0.220795
0.222203
0.223662
0.225169
0.226715
0.228295
0.229901
0.231524
0.233159
0.234796
0.236429
0.238051
0.239656
0.241239
0.242797
0.244327
0.245829
0.247302
0.248751
0.250178
0.25159
0.252994
0.2544
0.255817
0.257258
0.258737
0.260268
0.261867
0.26355
0.265334
0.267236
0.269271
0.271456
0.273804
0.27633
0.279042
0.281949
0.285055
0.28836
0.291859
0.295543
0.299398
0.303423
0.307358
0.313374
0.201435
0.201501
0.201565
0.201627
0.201687
0.201744
0.201798
0.201849
0.201897
0.201942
0.201984
0.202023
0.202061
0.202097
0.202133
0.20217
0.202208
0.202248
0.202292
0.202341
0.202395
0.202456
0.202525
0.202604
0.202693
0.202793
0.202907
0.203035
0.203179
0.203341
0.203522
0.203724
0.203948
0.204198
0.204474
0.20478
0.205118
0.205491
0.2059
0.20635
0.206842
0.207381
0.207967
0.208605
0.209298
0.210047
0.210854
0.211723
0.212653
0.213647
0.214704
0.215824
0.217006
0.218249
0.219549
0.220903
0.222307
0.223755
0.225241
0.226758
0.2283
0.229857
0.231423
0.232989
0.234547
0.236089
0.237609
0.239101
0.240558
0.241977
0.243355
0.244691
0.245984
0.247235
0.248448
0.249628
0.25078
0.251912
0.253033
0.254154
0.255286
0.256441
0.257634
0.258878
0.260189
0.261582
0.263071
0.264671
0.266398
0.268263
0.270278
0.272453
0.274795
0.277309
0.279994
0.282847
0.285862
0.289039
0.292172
0.297025
0.200507
0.200561
0.200614
0.200666
0.200717
0.200766
0.200815
0.200861
0.200906
0.200949
0.200991
0.201032
0.201072
0.201113
0.201154
0.201196
0.201242
0.20129
0.201343
0.201402
0.201468
0.201541
0.201624
0.201717
0.201822
0.20194
0.202073
0.202222
0.202388
0.202573
0.202779
0.203008
0.203262
0.203541
0.20385
0.20419
0.204563
0.204972
0.205419
0.205907
0.206439
0.207017
0.207643
0.208321
0.209053
0.20984
0.210684
0.211587
0.21255
0.213573
0.214657
0.215799
0.217
0.218255
0.219563
0.220919
0.222318
0.223754
0.225221
0.226712
0.22822
0.229735
0.231251
0.232757
0.234248
0.235713
0.237147
0.238543
0.239895
0.241199
0.242451
0.24365
0.244794
0.245885
0.246924
0.247915
0.248864
0.249776
0.25066
0.251523
0.252377
0.253231
0.254098
0.254991
0.255921
0.256903
0.257951
0.259077
0.260295
0.261617
0.263056
0.264621
0.26632
0.268162
0.270148
0.27228
0.274556
0.276979
0.27939
0.283173
0.199789
0.199831
0.199873
0.199915
0.199957
0.199998
0.20004
0.200081
0.200121
0.200161
0.200201
0.200241
0.200282
0.200323
0.200367
0.200413
0.200462
0.200515
0.200574
0.200639
0.200712
0.200793
0.200885
0.200988
0.201103
0.201233
0.201378
0.20154
0.201721
0.201923
0.202146
0.202394
0.202667
0.202969
0.2033
0.203664
0.204062
0.204498
0.204972
0.205489
0.206049
0.206656
0.207312
0.208019
0.20878
0.209595
0.210466
0.211394
0.212381
0.213425
0.214526
0.215683
0.216894
0.218156
0.219466
0.220818
0.222208
0.22363
0.225077
0.226541
0.228015
0.22949
0.230958
0.232411
0.23384
0.235238
0.236596
0.237909
0.23917
0.240376
0.241522
0.242605