/*--------------------------------*- C++ -*----------------------------------*\
| =========                 |                                                 |
| \\      /  F ield         | OpenFOAM: The Open Source CFD Toolbox           |
|  \\    /   O peration     | Version:  4.1                                   |
|   \\  /    A nd           | Web:      www.OpenFOAM.org                      |
|    \\/     M anipulation  |                                                 |
\*---------------------------------------------------------------------------*/
FoamFile
{
    version     2.0;
    format      ascii;
    class       volScalarField;
    location    "1100";
    object      nut;
}
// * * * * * * * * * * * * * * * * * * * * * * * * * * * * * * * * * * * * * //

dimensions      [0 2 -1 0 0 0 0];

internalField   nonuniform List<scalar> 
6820
(
3.5437e-05
5.0672e-05
6.21565e-05
6.89859e-05
7.29393e-05
7.51484e-05
7.62608e-05
7.66561e-05
7.65742e-05
7.61754e-05
7.5569e-05
7.48309e-05
7.40141e-05
7.31562e-05
7.22833e-05
7.14134e-05
7.0559e-05
6.97284e-05
6.89268e-05
6.81575e-05
6.74222e-05
6.67215e-05
6.60552e-05
6.54228e-05
6.48231e-05
6.42548e-05
6.37167e-05
6.32073e-05
6.27235e-05
6.22714e-05
6.18127e-05
6.15234e-05
6.06207e-05
0.00135033
0.000930454
0.000725657
0.000569941
0.000453328
0.000372218
0.000316223
0.000276488
0.000247303
0.000225195
0.000208006
0.000194348
0.000183294
0.000174213
0.000166657
0.000160304
0.000154915
0.000150308
0.000146343
0.000142913
0.000139929
0.000137323
0.000135038
0.000133027
0.000131253
0.000129683
0.000128289
0.000127048
0.000125938
0.000124947
0.000124039
0.000123267
0.000122381
0.0034439
0.00180034
0.00133708
0.00108081
0.000912409
0.000791563
0.000700948
0.00063099
0.000575611
0.000530789
0.000493806
0.000462783
0.000436392
0.00041367
0.000393906
0.000376562
0.000361228
0.000347582
0.000335367
0.00032438
0.000314453
0.000305449
0.000297253
0.000289769
0.000282917
0.000276625
0.000270835
0.000265494
0.000260556
0.000255982
0.000251729
0.000247781
0.000244052
0.00637392
0.00310291
0.00217847
0.00173334
0.00146616
0.00128428
0.00115082
0.00104807
0.000966257
0.000899457
0.000843822
0.000796729
0.000756324
0.000721254
0.000690513
0.000663333
0.000639119
0.000617404
0.000597814
0.000580049
0.000563861
0.000549049
0.000535443
0.000522901
0.000511303
0.000500548
0.000490545
0.00048122
0.000472505
0.000464341
0.000456674
0.00044946
0.000442635
0.00899737
0.00527271
0.00366202
0.00284163
0.00235737
0.00203856
0.00181195
0.00164188
0.00150906
0.00140219
0.00131419
0.00124038
0.00117752
0.00112331
0.00107604
0.00103445
0.000997549
0.000964583
0.000934943
0.000908143
0.000883788
0.000861553
0.00084117
0.000822413
0.000805093
0.000789047
0.000774139
0.000760248
0.00074727
0.000735114
0.000723697
0.00071295
0.000702789
0.0103765
0.00752965
0.00561349
0.00443387
0.0036773
0.00316202
0.00279169
0.00251363
0.0022974
0.00212446
0.001983
0.00186512
0.00176535
0.00167982
0.00160567
0.00154077
0.00148348
0.00143254
0.00138694
0.00134589
0.00130873
0.00127495
0.00124409
0.00121579
0.00118976
0.00116571
0.00114344
0.00112276
0.00110349
0.00108549
0.00106863
0.00105281
0.0010379
0.0109773
0.00922098
0.00752198
0.0062241
0.00528073
0.00458893
0.00406896
0.0036676
0.00335004
0.00309329
0.00288184
0.00270491
0.00255483
0.00242601
0.0023143
0.00221656
0.00213035
0.00205377
0.00198532
0.00192379
0.0018682
0.00181773
0.00177172
0.00172961
0.00169094
0.0016553
0.00162235
0.00159181
0.00156342
0.00153696
0.00151223
0.00148908
0.00146735
0.0112223
0.01026
0.00902119
0.00786209
0.00689742
0.00612296
0.00550365
0.00500431
0.00459663
0.00425931
0.00397662
0.00373691
0.00353146
0.00335369
0.00319855
0.0030621
0.00294127
0.00283359
0.0027371
0.00265018
0.00257151
0.00250002
0.00243478
0.00237504
0.00232014
0.00226955
0.00222277
0.00217942
0.00213913
0.00210161
0.00206657
0.0020338
0.00200307
0.0113196
0.0108286
0.0100355
0.0091472
0.00830321
0.00755759
0.00691829
0.00637539
0.00591434
0.00552103
0.00518335
0.0048914
0.00463719
0.00441434
0.00421772
0.00404321
0.00388745
0.00374773
0.0036218
0.0035078
0.00340419
0.00330967
0.00322314
0.00314368
0.00307049
0.00300288
0.00294027
0.00288214
0.00282805
0.00277761
0.00273049
0.00268638
0.00264501
0.0113579
0.0111187
0.0106546
0.0100468
0.00939296
0.00875749
0.00817148
0.00764509
0.00717794
0.0067652
0.00640062
0.00607795
0.00579147
0.00553617
0.00530774
0.00510254
0.00491748
0.00474996
0.00459775
0.004459
0.00433209
0.00421567
0.00410857
0.00400977
0.0039184
0.00383369
0.00375499
0.00368171
0.00361335
0.00354946
0.00348963
0.00343353
0.00338084
0.0113728
0.01126
0.0110057
0.0106242
0.0101642
0.00967403
0.00918759
0.0087244
0.00829364
0.0078983
0.00753798
0.00721062
0.00691349
0.00664365
0.00639827
0.00617471
0.00597058
0.00578377
0.0056124
0.00545481
0.00530957
0.00517541
0.00505119
0.00493596
0.00482883
0.00472906
0.00463595
0.00454893
0.00446745
0.00439104
0.00431929
0.00425182
0.0041883
0.0113787
0.0113266
0.011194
0.0109703
0.0106711
0.0103231
0.00995189
0.00957698
0.00921101
0.00886139
0.00853191
0.008224
0.00793771
0.00767227
0.00742651
0.00719905
0.00698845
0.00679334
0.00661237
0.00644432
0.00628805
0.00614253
0.00600682
0.00588008
0.00576154
0.00565052
0.00554639
0.0054486
0.00535664
0.00527006
0.00518845
0.00511145
0.00503873
0.0113809
0.0113572
0.0112906
0.0111664
0.010984
0.0107537
0.0104904
0.0102084
0.00991919
0.00963122
0.00935017
0.00907955
0.00882138
0.00857663
0.00834557
0.00812802
0.00792353
0.00773149
0.00755121
0.00738196
0.00722302
0.00707368
0.00693327
0.00680116
0.00667674
0.00655948
0.00644886
0.00634441
0.00624571
0.00615235
0.00606397
0.00598025
0.00590088
0.0113818
0.0113708
0.0113383
0.0112723
0.0111671
0.0110237
0.0108485
0.0106497
0.0104355
0.0102131
0.00998805
0.00976448
0.00954535
0.00933265
0.00912765
0.00893106
0.00874324
0.00856427
0.00839404
0.00823232
0.00807882
0.00793317
0.007795
0.00766393
0.00753956
0.00742153
0.00730946
0.00720302
0.00710187
0.00700571
0.00691424
0.00682719
0.00674432
0.0113822
0.0113768
0.0113611
0.0113273
0.0112692
0.0111846
0.0110744
0.0109422
0.0107927
0.0106307
0.0104607
0.0102863
0.0101104
0.00993551
0.00976319
0.0095947
0.00943091
0.00927239
0.00911948
0.00897237
0.00883111
0.00869565
0.00856591
0.00844173
0.00832293
0.00820934
0.00810073
0.00799689
0.00789763
0.00780272
0.00771196
0.00762517
0.00754215
0.0113823
0.0113794
0.0113717
0.0113547
0.0113238
0.011276
0.0112101
0.0111268
0.0110279
0.0109162
0.0107945
0.0106655
0.0105317
0.0103951
0.0102574
0.01012
0.00998405
0.00985025
0.00971925
0.0095915
0.0094673
0.00934687
0.00923031
0.00911768
0.00900899
0.0089042
0.00880325
0.00870606
0.00861254
0.00852257
0.00843604
0.00835284
0.00827285
0.0113824
0.0113805
0.0113765
0.0113679
0.0113519
0.0113259
0.0112881
0.0112379
0.0111757
0.0111025
0.0110197
0.010929
0.0108321
0.0107305
0.0106258
0.010519
0.0104112
0.0103034
0.0101961
0.01009
0.00998549
0.00988292
0.00978255
0.00968457
0.00958913
0.00949631
0.00940616
0.00931871
0.00923395
0.00915188
0.00907246
0.00899565
0.00892139
0.0113824
0.0113809
0.0113786
0.0113741
0.0113658
0.0113519
0.011331
0.0113021
0.0112646
0.0112187
0.011165
0.0111041
0.0110372
0.0109652
0.0108891
0.0108098
0.0107282
0.010645
0.010561
0.0104765
0.0103922
0.0103084
0.0102255
0.0101436
0.010063
0.00998397
0.00990651
0.00983075
0.00975677
0.00968461
0.00961432
0.00954591
0.00947936
0.0113824
0.0113811
0.0113795
0.0113769
0.0113724
0.0113651
0.0113537
0.0113375
0.0113158
0.0112882
0.0112548
0.0112157
0.0111715
0.0111227
0.0110698
0.0110135
0.0109543
0.0108929
0.0108297
0.0107652
0.0107
0.0106342
0.0105683
0.0105025
0.010437
0.0103722
0.010308
0.0102447
0.0101824
0.0101212
0.0100611
0.0100022
0.00994459
0.0113824
0.0113812
0.0113798
0.0113781
0.0113755
0.0113714
0.0113653
0.0113563
0.011344
0.011328
0.011308
0.0112839
0.0112559
0.0112241
0.0111889
0.0111505
0.0111093
0.0110657
0.0110202
0.0109729
0.0109243
0.0108746
0.0108242
0.0107732
0.010722
0.0106706
0.0106193
0.0105682
0.0105175
0.0104672
0.0104175
0.0103684
0.01032
0.0113824
0.0113812
0.01138
0.0113786
0.0113768
0.0113744
0.0113709
0.0113659
0.011359
0.0113499
0.0113382
0.0113238
0.0113067
0.0112868
0.0112641
0.011239
0.0112114
0.0111816
0.0111499
0.0111165
0.0110816
0.0110454
0.0110081
0.0109699
0.0109311
0.0108917
0.0108519
0.010812
0.0107719
0.0107318
0.0106918
0.010652
0.0106125
0.0113824
0.0113812
0.01138
0.0113788
0.0113774
0.0113757
0.0113735
0.0113706
0.0113666
0.0113614
0.0113547
0.0113463
0.011336
0.0113238
0.0113097
0.0112937
0.0112758
0.0112561
0.0112347
0.0112117
0.0111873
0.0111616
0.0111348
0.0111069
0.0110782
0.0110487
0.0110186
0.010988
0.010957
0.0109257
0.0108942
0.0108625
0.0108308
0.0113824
0.0113812
0.01138
0.0113789
0.0113776
0.0113763
0.0113747
0.0113728
0.0113703
0.0113672
0.0113632
0.0113582
0.0113521
0.0113447
0.011336
0.0113259
0.0113143
0.0113014
0.0112871
0.0112715
0.0112546
0.0112365
0.0112174
0.0111972
0.0111761
0.0111541
0.0111315
0.0111081
0.0110842
0.0110598
0.011035
0.0110099
0.0109845
0.0113824
0.0113812
0.01138
0.0113789
0.0113777
0.0113765
0.0113752
0.0113737
0.011372
0.0113699
0.0113673
0.0113642
0.0113603
0.0113555
0.0113499
0.0113432
0.0113355
0.0113267
0.0113167
0.0113057
0.0112936
0.0112805
0.0112663
0.0112512
0.0112351
0.0112182
0.0112006
0.0111822
0.0111632
0.0111436
0.0111235
0.0111029
0.011082
0.0113824
0.0113812
0.01138
0.0113789
0.0113777
0.0113766
0.0113753
0.011374
0.0113726
0.0113709
0.0113689
0.0113665
0.0113635
0.0113599
0.0113556
0.0113504
0.0113444
0.0113375
0.0113297
0.0113208
0.011311
0.0113002
0.0112885
0.0112759
0.0112624
0.011248
0.0112329
0.0112171
0.0112006
0.0111835
0.0111658
0.0111476
0.011129
0.0113824
0.0113812
0.01138
0.0113789
0.0113777
0.0113765
0.0113753
0.011374
0.0113725
0.0113707
0.0113686
0.0113661
0.011363
0.0113593
0.0113548
0.0113496
0.0113434
0.0113364
0.0113284
0.0113194
0.0113095
0.0112986
0.0112868
0.0112741
0.0112606
0.0112462
0.0112311
0.0112152
0.0111987
0.0111816
0.011164
0.0111458
0.0111272
0.0113824
0.0113812
0.01138
0.0113789
0.0113777
0.0113764
0.011375
0.0113734
0.0113715
0.0113691
0.0113662
0.0113626
0.0113583
0.011353
0.0113468
0.0113395
0.0113312
0.0113218
0.0113113
0.0112998
0.0112872
0.0112735
0.0112589
0.0112434
0.0112271
0.0112099
0.011192
0.0111734
0.0111542
0.0111344
0.0111142
0.0110935
0.0110725
0.0113824
0.0113812
0.01138
0.0113788
0.0113775
0.011376
0.0113742
0.0113718
0.0113688
0.0113648
0.0113599
0.0113537
0.0113462
0.0113373
0.011327
0.0113153
0.0113021
0.0112875
0.0112715
0.0112543
0.0112359
0.0112164
0.0111959
0.0111744
0.0111521
0.011129
0.0111053
0.011081
0.0110562
0.011031
0.0110054
0.0109795
0.0109535
0.0113824
0.0113812
0.01138
0.0113787
0.011377
0.0113748
0.0113718
0.0113676
0.0113618
0.0113543
0.0113449
0.0113333
0.0113196
0.0113037
0.0112857
0.0112656
0.0112436
0.0112198
0.0111944
0.0111675
0.0111393
0.01111
0.0110797
0.0110486
0.0110167
0.0109843
0.0109514
0.0109182
0.0108847
0.010851
0.0108173
0.0107836
0.0107499
0.0113824
0.0113813
0.0113799
0.0113781
0.0113755
0.0113714
0.0113652
0.0113564
0.0113446
0.0113295
0.0113109
0.0112888
0.0112634
0.0112347
0.0112031
0.0111689
0.0111323
0.0110938
0.0110535
0.0110117
0.0109688
0.010925
0.0108805
0.0108355
0.0107902
0.0107447
0.0106992
0.0106538
0.0106086
0.0105637
0.0105192
0.0104751
0.0104314
0.0113825
0.0113812
0.0113794
0.0113761
0.0113704
0.0113611
0.0113472
0.0113279
0.0113028
0.011272
0.0112356
0.011194
0.0111477
0.0110974
0.0110436
0.0109871
0.0109282
0.0108677
0.0108058
0.0107431
0.0106799
0.0106166
0.0105533
0.0104902
0.0104277
0.0103658
0.0103047
0.0102444
0.0101851
0.0101268
0.0100696
0.0100135
0.00995844
0.0113825
0.0113808
0.011377
0.0113691
0.0113545
0.0113315
0.0112988
0.011256
0.0112036
0.0111424
0.0110735
0.0109982
0.0109178
0.0108335
0.0107465
0.0106576
0.0105676
0.0104773
0.0103873
0.0102978
0.0102094
0.0101224
0.0100368
0.00995292
0.00987086
0.0097907
0.00971249
0.00963628
0.00956206
0.00948985
0.00941962
0.00935135
0.00928499
0.0113825
0.0113787
0.0113679
0.0113447
0.0113054
0.011248
0.0111728
0.0110816
0.0109771
0.0108621
0.0107396
0.0106119
0.0104814
0.0103497
0.0102183
0.0100882
0.00996015
0.00983484
0.00971263
0.00959381
0.00947855
0.00936695
0.00925902
0.00915477
0.00905414
0.00895706
0.00886344
0.00877318
0.00868617
0.0086023
0.00852145
0.00844351
0.00836835
0.011382
0.0113691
0.0113325
0.0112633
0.0111587
0.0110222
0.0108601
0.0106799
0.0104883
0.010291
0.0100925
0.00989597
0.00970363
0.00951703
0.00933709
0.00916431
0.0089989
0.00884088
0.00869011
0.00854639
0.00840945
0.008279
0.00815471
0.00803628
0.00792339
0.00781573
0.00771302
0.00761498
0.00752133
0.00743184
0.00734626
0.00726437
0.00718597
0.0113786
0.0113249
0.0111997
0.0110009
0.0107442
0.0104511
0.0101407
0.00982717
0.00952002
0.00922488
0.00894479
0.00868112
0.00843415
0.00820345
0.00798818
0.00778733
0.00759987
0.00742475
0.00726098
0.00710765
0.00696389
0.00682892
0.00670204
0.00658259
0.00646999
0.00636371
0.00626326
0.0061682
0.00607815
0.00599273
0.00591162
0.00583452
0.00576115
0.0113536
0.011126
0.0107259
0.0102229
0.00968832
0.00916705
0.00868064
0.00823688
0.00783646
0.00747677
0.00715407
0.00686443
0.00660376
0.00636828
0.00615475
0.00596041
0.00578286
0.00562012
0.00547044
0.00533237
0.00520464
0.00508615
0.00497596
0.00487325
0.0047773
0.00468748
0.00460324
0.00452407
0.00444956
0.00437931
0.00431297
0.00425024
0.00419084
0.0111683
0.0102731
0.00924316
0.00829367
0.00748992
0.00682636
0.00627847
0.00582284
0.00544041
0.00511624
0.00483928
0.00459995
0.00439098
0.00420686
0.00404337
0.00389717
0.00376565
0.00364667
0.00353852
0.00343977
0.00334924
0.00326594
0.00318905
0.00311784
0.00305171
0.00299014
0.00293267
0.0028789
0.0028285
0.00278115
0.0027366
0.0026946
0.00265494
0.00982658
0.0072389
0.00577405
0.00486951
0.00424873
0.00378755
0.00342701
0.00314024
0.00290887
0.00271813
0.00255776
0.00242093
0.00230279
0.00219976
0.00210909
0.00202868
0.00195686
0.0018923
0.00183394
0.00178091
0.0017325
0.00168811
0.00164725
0.0016095
0.00157452
0.001542
0.00151169
0.00148336
0.00145683
0.00143192
0.00140848
0.0013864
0.00136554
0.00414167
0.00254161
0.00204418
0.00174836
0.00154034
0.00137827
0.00124767
0.00114134
0.00105377
0.000980908
0.000919642
0.00086756
0.00082282
0.000784019
0.000750078
0.000720161
0.00069361
0.000669902
0.000648617
0.000629412
0.000612006
0.000596168
0.000581702
0.000568446
0.00055626
0.000545026
0.000534642
0.000525021
0.000516086
0.000507771
0.000500016
0.000492773
0.000485987
0.000119434
0.000124352
0.000129424
0.000134072
0.000138235
0.000142037
0.000145562
0.000148849
0.000151924
0.000154806
0.000157512
0.000160054
0.000162444
0.000164691
0.000166805
0.000168794
0.000170666
0.000172428
0.000174087
0.000175649
0.000177119
0.000178503
0.000179806
0.000181034
0.00018219
0.000183279
0.000184304
0.00018527
0.000186181
0.000187038
0.000187846
0.000188607
0.000189325
6.59691e-05
7.8078e-05
9.78446e-05
0.00012408
0.000156024
0.000192417
0.000232
0.000273435
0.000315366
0.000356576
0.000396176
0.000433701
0.0004691
0.000502626
0.000534697
0.000565754
0.000596177
0.000626229
0.00065606
0.000685724
0.000715225
0.000744548
0.000773686
0.000802654
0.000831486
0.000860231
0.000888941
0.000917666
0.00094645
0.000975325
0.00100432
0.00103344
0.00106272
0.00109215
0.00112175
0.00115152
0.00118146
0.0012116
0.00124194
0.0012725
0.0013033
0.00133439
0.00136581
0.0013976
0.00142985
0.00146262
0.00149602
0.00153015
0.00156515
0.00160116
0.00163834
0.00167688
0.00171698
0.00175884
0.0018027
0.00184879
0.00189736
0.00194865
0.00200289
0.00206031
0.00212112
0.00218548
0.00225353
0.00232536
0.002401
0.00248043
0.00256358
0.00265032
0.00274047
0.0028338
0.00293003
0.00302885
0.00312993
0.00323291
0.00333739
0.00344299
0.00354931
0.00365594
0.00376249
0.00386857
0.0039738
0.00407781
0.00418023
0.00428074
0.00437902
0.00447476
0.0045677
0.00465761
0.00474428
0.00482752
0.0049072
0.00498318
0.00505538
0.0051237
0.00518817
0.00524863
0.00530542
0.00535806
0.0054062
0.00547042
0.000121872
0.000121671
0.000123466
0.000128387
0.000136203
0.000146952
0.000160737
0.00017766
0.000197767
0.000221045
0.000247385
0.00027656
0.000308213
0.000341866
0.00037696
0.000412899
0.000449115
0.000485122
0.000520562
0.000555224
0.00058903
0.000622009
0.000654258
0.000685902
0.000717066
0.000747866
0.000778394
0.000808728
0.000838935
0.000869071
0.000899185
0.000929323
0.000959526
0.000989831
0.00102027
0.00105088
0.00108168
0.00111271
0.001144
0.00117557
0.00120749
0.00123978
0.00127252
0.00130576
0.00133958
0.00137409
0.00140937
0.00144557
0.00148282
0.00152127
0.0015611
0.00160251
0.0016457
0.00169088
0.0017383
0.00178818
0.00184076
0.00189626
0.00195491
0.0020169
0.00208238
0.00215147
0.00222427
0.00230078
0.00238099
0.00246481
0.00255211
0.0026427
0.00273636
0.00283282
0.00293179
0.00303295
0.00313596
0.00324048
0.00334615
0.00345261
0.0035595
0.00366647
0.00377316
0.00387925
0.00398438
0.00408824
0.00419051
0.00429089
0.00438908
0.00448481
0.00457784
0.00466794
0.00475491
0.00483858
0.00491879
0.00499542
0.00506839
0.00513758
0.00520302
0.00526453
0.00532245
0.0053763
0.00542557
0.00549162
0.000240033
0.000235406
0.000230578
0.000226129
0.000222672
0.000220705
0.00022044
0.000222009
0.000225657
0.000231672
0.000240333
0.000251877
0.000266464
0.000284145
0.000304855
0.000328415
0.000354542
0.000382876
0.00041301
0.000444516
0.000476975
0.000510007
0.000543288
0.000576566
0.000609667
0.000642489
0.000674997
0.000707199
0.000739138
0.000770873
0.000802472
0.000834001
0.000865523
0.000897097
0.000928778
0.000960619
0.000992672
0.00102499
0.00105762
0.00109062
0.00112406
0.00115799
0.00119251
0.00122768
0.00126362
0.00130042
0.00133822
0.00137716
0.00141738
0.00145907
0.0015024
0.00154759
0.00159483
0.00164435
0.00169636
0.00175109
0.00180875
0.00186953
0.00193359
0.00200107
0.00207208
0.00214665
0.00222479
0.00230644
0.00239151
0.00247984
0.00257123
0.00266545
0.00276222
0.00286127
0.00296228
0.00306494
0.00316894
0.00327395
0.00337967
0.00348579
0.003592
0.00369802
0.00380356
0.00390833
0.00401207
0.0041145
0.00421536
0.00431438
0.00441132
0.00450592
0.00459796
0.00468724
0.00477356
0.00485675
0.00493667
0.00501318
0.00508619
0.00515559
0.00522137
0.00528337
0.00534189
0.00539649
0.00544645
0.00551375
0.000435146
0.000426891
0.000418777
0.000410898
0.000403379
0.000396313
0.000389773
0.000383857
0.000378649
0.000374198
0.000370626
0.000368136
0.000367016
0.000367618
0.000370327
0.000375511
0.00038347
0.0003944
0.000408367
0.000425305
0.00044503
0.000467272
0.000491709
0.000517996
0.000545791
0.000574781
0.000604691
0.000635291
0.000666403
0.000697896
0.000729682
0.000761714
0.000793972
0.000826465
0.000859217
0.000892265
0.00092566
0.000959455
0.000993715
0.00102851
0.00106391
0.00110001
0.0011369
0.00117468
0.00121347
0.0012534
0.0012946
0.00133724
0.00138148
0.0014275
0.00147549
0.00152564
0.00157815
0.00163323
0.00169105
0.00175181
0.00181564
0.00188269
0.00195306
0.00202678
0.00210388
0.00218431
0.00226799
0.00235477
0.00244449
0.00253691
0.00263178
0.00272883
0.00282777
0.0029283
0.00303012
0.00313294
0.00323648
0.00334047
0.00344466
0.00354882
0.0036527
0.00375609
0.0038588
0.0039606
0.0040613
0.00416069
0.00425857
0.00435472
0.00444894
0.00454102
0.00463075
0.00471796
0.00480245
0.00488407
0.00496267
0.00503811
0.00511028
0.00517906
0.00524444
0.00530623
0.00536471
0.00541946
0.00546959
0.00553746
0.000691636
0.000679389
0.000667512
0.000656151
0.000645394
0.00063523
0.000625608
0.00061647
0.000607804
0.000599567
0.000591704
0.00058419
0.000577042
0.000570336
0.000564209
0.000558863
0.000554563
0.000551619
0.00055037
0.000551151
0.000554263
0.000559943
0.000568341
0.000579513
0.00059342
0.000609948
0.00062892
0.000650127
0.00067334
0.000698338
0.000724911
0.000752876
0.000782079
0.000812398
0.000843742
0.000876052
0.000909296
0.000943466
0.00097858
0.00101467
0.0010518
0.00109002
0.00112944
0.00117015
0.00121226
0.0012559
0.00130121
0.00134835
0.00139746
0.00144872
0.00150228
0.00155832
0.001617
0.00167845
0.00174283
0.00181022
0.00188071
0.00195435
0.00203114
0.00211103
0.00219395
0.00227976
0.00236829
0.00245932
0.00255262
0.0026479
0.00274488
0.00284326
0.00294274
0.00304303
0.00314385
0.00324497
0.00334613
0.00344715
0.00354782
0.003648
0.00374753
0.00384629
0.00394415
0.004041
0.0041367
0.00423115
0.00432418
0.00441567
0.00450544
0.00459334
0.00467919
0.00476283
0.00484409
0.00492281
0.00499885
0.00507206
0.00514232
0.00520951
0.00527357
0.00533432
0.00539198
0.00544617
0.00549584
0.00556342
0.00102159
0.00100379
0.00098664
0.000970276
0.000954802
0.000940219
0.000926467
0.00091346
0.000901118
0.000889369
0.00087813
0.000867334
0.000856934
0.000846914
0.000837285
0.000828092
0.000819411
0.000811351
0.000804056
0.000797702
0.000792493
0.000788653
0.000786419
0.000786024
0.000787684
0.000791586
0.000797873
0.000806643
0.00081794
0.000831764
0.000848074
0.000866799
0.000887848
0.000911123
0.000936524
0.000963959
0.00099335
0.00102464
0.00105777
0.00109274
0.00112954
0.00116819
0.00120874
0.00125123
0.00129574
0.00134236
0.00139118
0.00144233
0.0014959
0.00155201
0.00161077
0.00167229
0.00173666
0.00180394
0.00187419
0.00194742
0.00202363
0.00210276
0.00218472
0.00226938
0.00235658
0.0024461
0.00253769
0.00263109
0.00272599
0.0028221
0.00291909
0.00301666
0.00311452
0.0032124
0.00331004
0.00340725
0.00350384
0.00359966
0.00369461
0.0037886
0.00388158
0.0039735
0.00406434
0.00415405
0.00424263
0.00433001
0.00441614
0.00450094
0.00458432
0.00466616
0.00474632
0.00482468
0.00490108
0.00497538
0.00504742
0.00511705
0.00518415
0.00524857
0.00531023
0.00536894
0.00542488
0.00547767
0.00552613
0.00559242
0.00144363
0.00141787
0.00139316
0.0013696
0.00134728
0.00132619
0.00130627
0.00128744
0.00126961
0.00125268
0.00123656
0.00122118
0.00120649
0.00119246
0.00117907
0.00116636
0.00115435
0.00114308
0.00113263
0.00112307
0.00111449
0.00110698
0.00110066
0.00109567
0.00109213
0.00109019
0.00109001
0.00109174
0.00109552
0.00110148
0.00110974
0.00112041
0.00113356
0.00114925
0.00116751
0.00118838
0.00121186
0.00123795
0.00126666
0.00129799
0.00133194
0.00136852
0.00140776
0.00144968
0.00149431
0.00154169
0.00159188
0.00164493
0.00170087
0.00175976
0.00182163
0.0018865
0.0019544
0.00202529
0.00209914
0.00217588
0.00225541
0.0023376
0.00242225
0.00250918
0.00259812
0.00268881
0.00278094
0.00287419
0.00296823
0.00306272
0.00315734
0.00325176
0.00334571
0.00343892
0.00353118
0.00362231
0.00371217
0.00380069
0.00388781
0.00397352
0.00405784
0.00414081
0.00422251
0.00430299
0.00438231
0.00446052
0.00453765
0.0046137
0.00468865
0.00476244
0.00483499
0.00490621
0.00497597
0.00504413
0.00511056
0.0051751
0.00523761
0.00529793
0.00535596
0.00541148
0.00546462
0.00551503
0.00556141
0.00562524
0.00196957
0.00193327
0.00189853
0.00186538
0.00183389
0.00180402
0.00177573
0.00174891
0.00172346
0.00169931
0.00167633
0.00165447
0.00163366
0.00161388
0.00159511
0.00157738
0.00156071
0.00154515
0.00153075
0.00151756
0.00150565
0.00149506
0.00148587
0.00147814
0.00147193
0.00146732
0.00146438
0.00146319
0.00146387
0.00146649
0.00147117
0.00147801
0.00148713
0.00149864
0.00151264
0.00152922
0.00154849
0.00157052
0.00159539
0.00162317
0.00165392
0.0016877
0.00172454
0.00176451
0.00180763
0.00185394
0.00190346
0.00195622
0.00201221
0.00207144
0.00213388
0.0021995
0.00226824
0.00234001
0.0024147
0.00249217
0.00257223
0.00265469
0.00273929
0.00282576
0.0029138
0.00300307
0.00309322
0.00318391
0.00327475
0.00336539
0.00345549
0.00354472
0.0036328
0.00371947
0.00380453
0.00388783
0.00396928
0.00404881
0.00412643
0.00420219
0.00427618
0.00434852
0.00441934
0.00448881
0.00455707
0.00462426
0.00469051
0.0047559
0.0048205
0.00488433
0.00494737
0.00500957
0.00507085
0.00513112
0.00519023
0.00524805
0.00530443
0.00535919
0.0054122
0.00546326
0.0055124
0.00555931
0.00560262
0.00566266
0.00259989
0.002551
0.00250419
0.00245945
0.00241681
0.00237622
0.00233761
0.00230089
0.00226595
0.00223271
0.00220105
0.00217089
0.00214219
0.00211492
0.00208905
0.00206461
0.00204163
0.00202016
0.00200025
0.00198195
0.00196532
0.00195042
0.00193729
0.00192599
0.00191656
0.00190903
0.00190345
0.00189985
0.00189829
0.00189882
0.00190148
0.00190636
0.00191351
0.00192303
0.001935
0.00194951
0.00196665
0.00198652
0.00200922
0.00203483
0.00206345
0.00209516
0.00213003
0.00216812
0.00220949
0.00225418
0.00230221
0.00235359
0.00240833
0.00246639
0.00252772
0.00259225
0.00265988
0.00273048
0.00280389
0.00287991
0.00295832
0.00303886
0.00312123
0.00320511
0.00329016
0.003376
0.00346224
0.00354851
0.0036344
0.00371954
0.00380356
0.00388615
0.003967
0.00404586
0.00412254
0.0041969
0.00426885
0.00433836
0.00440548
0.00447029
0.00453292
0.00459355
0.00465238
0.00470966
0.00476559
0.00482043
0.00487438
0.00492762
0.0049803
0.00503254
0.0050844
0.00513589
0.005187
0.00523767
0.0052878
0.00533727
0.00538593
0.00543361
0.00548018
0.00552539
0.00556925
0.00561145
0.00565061
0.00570535
0.00332328
0.00326079
0.00320084
0.00314341
0.00308846
0.00303595
0.0029858
0.00293791
0.0028922
0.00284855
0.00280689
0.00276711
0.00272918
0.00269305
0.00265872
0.00262619
0.00259551
0.00256672
0.00253987
0.00251502
0.00249223
0.00247156
0.00245306
0.00243678
0.00242276
0.00241102
0.00240161
0.00239454
0.00238984
0.00238753
0.00238764
0.00239021
0.00239526
0.00240285
0.00241302
0.00242583
0.00244134
0.00245963
0.00248077
0.00250483
0.00253189
0.00256201
0.00259528
0.00263174
0.00267145
0.00271444
0.00276073
0.00281034
0.00286323
0.00291937
0.0029787
0.00304112
0.0031065
0.00317469
0.00324549
0.0033187
0.00339403
0.00347121
0.00354991
0.00362978
0.00371043
0.00379148
0.00387252
0.00395314
0.00403293
0.00411151
0.00418849
0.00426355
0.00433639
0.00440675
0.00447445
0.00453933
0.00460133
0.00466043
0.00471668
0.00477018
0.0048211
0.00486965
0.00491608
0.00496068
0.00500373
0.00504554
0.00508641
0.0051266
0.00516636
0.00520588
0.00524533
0.00528479
0.00532434
0.00536397
0.00540365
0.00544327
0.00548274
0.00552189
0.00556057
0.00559857
0.00563583
0.00567204
0.00570593
0.00575379
0.00411871
0.00404296
0.00397007
0.00389998
0.00383268
0.00376809
0.00370615
0.00364676
0.00358984
0.00353531
0.00348307
0.00343306
0.00338521
0.0033395
0.00329592
0.00325449
0.00321523
0.00317819
0.00314343
0.003111
0.00308097
0.00305339
0.00302833
0.00300584
0.00298596
0.00296872
0.00295416
0.00294229
0.00293314
0.00292672
0.00292305
0.00292213
0.00292399
0.00292864
0.00293611
0.00294642
0.00295961
0.00297572
0.00299478
0.00301684
0.00304195
0.00307016
0.00310149
0.003136
0.00317371
0.00321463
0.00325877
0.00330612
0.00335663
0.00341025
0.00346689
0.00352645
0.00358878
0.00365369
0.00372099
0.00379042
0.0038617
0.00393453
0.00400856
0.00408342
0.00415872
0.00423406
0.00430901
0.00438316
0.0044561
0.00452742
0.00459677
0.0046638
0.00472822
0.00478976
0.00484825
0.00490354
0.00495554
0.00500426
0.00504974
0.0050921
0.0051315
0.00516817
0.00520239
0.00523446
0.00526472
0.00529352
0.00532121
0.00534814
0.00537462
0.00540094
0.00542734
0.00545401
0.00548109
0.00550867
0.00553678
0.00556539
0.00559442
0.00562377
0.00565329
0.00568279
0.0057122
0.0057412
0.00576868
0.00580806
0.00495878
0.00487145
0.00478709
0.00470565
0.00462711
0.00455141
0.00447849
0.00440828
0.00434072
0.00427573
0.00421325
0.0041532
0.00409556
0.0040403
0.00398741
0.00393691
0.00388884
0.00384324
0.00380017
0.00375969
0.00372186
0.00368675
0.00365442
0.00362493
0.00359832
0.00357464
0.00355393
0.00353619
0.00352147
0.00350977
0.00350111
0.00349549
0.00349292
0.00349341
0.00349696
0.00350359
0.0035133
0.00352611
0.00354203
0.00356108
0.00358327
0.00360863
0.00363716
0.00366887
0.00370375
0.00374181
0.00378301
0.00382732
0.00387466
0.00392498
0.00397814
0.00403402
0.00409246
0.00415326
0.00421619
0.00428099
0.00434736
0.00441498
0.00448349
0.00455252
0.00462167
0.00469053
0.00475867
0.0048257
0.00489118
0.00495474
0.00501602
0.00507466
0.0051304
0.00518298
0.0052322
0.00527794
0.00532011
0.0053587
0.00539376
0.0054254
0.00545378
0.00547914
0.00550173
0.00552189
0.00553995
0.0055563
0.00557131
0.00558537
0.00559886
0.00561213
0.00562549
0.00563921
0.00565353
0.0056686
0.00568454
0.00570139
0.00571915
0.00573777
0.00575714
0.00577709
0.00579756
0.00581825
0.00583832
0.00586768
0.00581328
0.00571719
0.00562395
0.00553354
0.00544594
0.00536112
0.00527904
0.00519966
0.00512295
0.00504884
0.00497729
0.00490827
0.00484175
0.00477773
0.00471621
0.00465721
0.00460078
0.00454696
0.00449582
0.00444742
0.00440183
0.00435912
0.00431936
0.00428261
0.00424892
0.00421834
0.00419092
0.00416669
0.00414568
0.0041279
0.00411337
0.0041021
0.00409411
0.00408938
0.00408792
0.00408974
0.00409482
0.00410318
0.0041148
0.00412967
0.00414781
0.00416918
0.00419379
0.0042216
0.0042526
0.00428673
0.00432396
0.00436421
0.0044074
0.00445341
0.00450212
0.00455337
0.00460698
0.00466272
0.00472035
0.00477959
0.00484015
0.00490167
0.00496382
0.00502619
0.00508839
0.00515003
0.00521067
0.00526993
0.00532739
0.00538268
0.00543545
0.00548538
0.00553219
0.00557565
0.00561557
0.00565182
0.00568433
0.00571308
0.00573812
0.00575955
0.00577753
0.00579226
0.00580402
0.0058131
0.00581985
0.00582463
0.00582785
0.0058299
0.00583119
0.0058321
0.00583299
0.00583421
0.00583605
0.00583874
0.00584248
0.00584738
0.00585353
0.00586093
0.00586954
0.00587925
0.00589001
0.00590154
0.00591337
0.00593142
0.00665246
0.00655121
0.00645247
0.00635626
0.00626258
0.00617143
0.0060828
0.00599669
0.00591307
0.00583194
0.00575326
0.00567705
0.00560328
0.00553199
0.00546318
0.0053969
0.00533319
0.00527212
0.00521376
0.00515817
0.00510543
0.00505562
0.0050088
0.00496506
0.00492445
0.00488704
0.00485286
0.00482198
0.00479441
0.00477019
0.00474935
0.00473189
0.00471784
0.00470718
0.00469994
0.00469609
0.00469564
0.00469858
0.00470489
0.00471456
0.00472756
0.00474387
0.00476345
0.00478627
0.00481226
0.00484137
0.00487352
0.00490861
0.00494655
0.00498718
0.00503037
0.00507593
0.00512366
0.00517332
0.00522465
0.00527736
0.00533114
0.00538564
0.00544051
0.00549536
0.0055498
0.00560342
0.00565584
0.00570666
0.00575548
0.00580197
0.00584577
0.0058866
0.00592419
0.00595832
0.00598883
0.0060156
0.00603856
0.0060577
0.00607306