/*--------------------------------*- C++ -*----------------------------------*\
| =========                 |                                                 |
| \\      /  F ield         | OpenFOAM: The Open Source CFD Toolbox           |
|  \\    /   O peration     | Version:  4.1                                   |
|   \\  /    A nd           | Web:      www.OpenFOAM.org                      |
|    \\/     M anipulation  |                                                 |
\*---------------------------------------------------------------------------*/
FoamFile
{
    version     2.0;
    format      ascii;
    class       volScalarField;
    location    "1100";
    object      omega;
}
// * * * * * * * * * * * * * * * * * * * * * * * * * * * * * * * * * * * * * //

dimensions      [0 0 -1 0 0 0 0];

internalField   nonuniform List<scalar> 
6820
(
7254.63
8569.06
9629.25
10283
10668.4
10885.8
10995.8
11035
11026.8
10987.3
10927.3
10854.4
10774
10689.7
10604.1
10519.1
10435.8
10355
10277.3
10202.9
10131.9
10064.5
10000.5
9939.94
9882.61
9828.42
9777.19
9728.8
9682.92
9640.13
9596.75
9568.82
9476.87
600.799
1554.22
2092.91
2435.19
2698.34
2895.12
3033.36
3126.97
3188.97
3229.02
3253.95
3268.66
3276.58
3280.07
3280.76
3279.74
3277.77
3275.34
3272.8
3270.36
3268.16
3266.26
3264.7
3263.52
3262.7
3262.25
3262.17
3262.48
3263.22
3264.46
3266.35
3268.86
3274.13
107.108
368.908
596.394
767.386
894.981
993.333
1070.57
1131.54
1179.69
1217.64
1247.46
1270.8
1289.01
1303.18
1314.18
1322.7
1329.28
1334.36
1338.29
1341.35
1343.74
1345.64
1347.19
1348.49
1349.62
1350.66
1351.64
1352.63
1353.65
1354.73
1355.93
1357.26
1358.94
37.6577
108.378
189.201
265.511
332.231
389.334
437.981
479.461
514.908
545.244
571.225
593.484
612.562
628.919
642.953
655.001
665.356
674.266
681.943
688.57
694.301
699.269
703.587
707.352
710.646
713.54
716.097
718.368
720.4
722.235
723.911
725.461
726.933
23.8008
47.5371
77.7008
109.824
141.237
170.722
197.836
222.517
244.873
265.071
283.289
299.702
314.481
327.785
339.76
350.541
360.252
369.002
376.894
384.017
390.453
396.275
401.547
406.329
410.672
414.624
418.225
421.515
424.528
427.294
429.844
432.204
434.409
19.8177
29.4751
42.5078
57.2096
72.4553
87.5719
102.186
116.107
129.248
141.581
153.108
163.852
173.844
183.124
191.733
199.716
207.112
213.966
220.315
226.199
231.653
236.71
241.401
245.756
249.802
253.564
257.064
260.326
263.368
266.209
268.868
271.361
273.707
18.4341
22.8152
29.1685
36.6489
44.6826
52.9063
61.0978
69.1227
76.9009
84.3846
91.5471
98.3753
104.866
111.022
116.85
122.36
127.565
132.478
137.112
141.482
145.602
149.486
153.147
156.599
159.854
162.925
165.823
168.56
171.145
173.59
175.903
178.094
180.173
17.9115
19.9902
23.3042
27.4134
31.9742
36.7598
41.6266
46.4842
51.2743
55.9588
60.5125
64.9192
69.1691
73.257
77.1805
80.94
84.5375
87.9762
91.2603
94.3946
97.3844
100.235
102.953
105.543
108.011
110.364
112.606
114.743
116.781
118.725
120.58
122.351
124.042
17.7059
18.7013
20.4733
22.8216
25.5371
28.4654
31.5038
34.5854
37.6658
40.7151
43.7129
46.645
49.5015
52.2761
54.9647
57.5648
60.0754
62.4965
64.8288
67.0736
69.2326
71.3079
73.3019
75.217
77.056
78.8214
80.516
82.1427
83.704
85.2028
86.6416
88.023
89.3498
17.6233
18.0951
19.0401
20.3949
22.0449
23.887
25.8451
27.8668
29.9161
31.9683
34.006
36.0167
37.9918
39.9249
41.8117
43.6492
45.4354
47.1691
48.8498
50.4775
52.0525
53.5754
55.047
56.4684
57.8408
59.1654
60.4436
61.6767
62.8662
64.0135
65.1199
66.1869
67.2159
17.5896
17.8082
18.3025
19.0753
20.0762
21.243
22.5218
23.8719
25.2637
26.6759
28.0932
29.5047
30.9021
32.2796
33.6328
34.9585
36.2545
37.5191
38.7514
39.9507
41.1167
42.2493
43.3487
44.4152
45.4492
46.4514
47.4224
48.3628
49.2733
50.1548
51.0079
51.8334
52.6322
17.5758
17.6732
17.924
18.3539
18.9503
19.682
20.5146
21.4186
22.3704
23.3521
24.3503
25.3549
26.3586
27.3555
28.3415
29.3133
30.2685
31.2054
32.1226
33.0191
33.8944
34.7481
35.5799
36.3897
37.1777
37.9441
38.6889
39.4127
40.1156
40.7981
41.4606
42.1035
42.7272
17.5702
17.6104
17.7324
17.9633
18.3084
18.7568
19.2901
19.889
20.5362
21.2175
21.9217
22.6397
23.3649
24.0918
24.8165
25.5355
26.2467
26.9479
27.6377
28.3151
28.9792
29.6294
30.2652
30.8864
31.4928
32.0844
32.6611
33.2231
33.7704
34.3032
34.8217
35.3261
35.8166
17.5678
17.5817
17.6374
17.7559
17.9479
18.2137
18.5461
18.9343
19.3672
19.8343
20.3268
20.8373
21.3597
21.8894
22.4224
22.9557
23.4869
24.014
24.5354
25.05
25.5569
26.0551
26.5443
27.024
27.4938
27.9536
28.4031
28.8424
29.2713
29.69
30.0984
30.4966
30.8847
17.5669
17.5687
17.5913
17.6483
17.7501
17.9012
18.1009
18.3448
18.6268
18.9402
19.2785
19.6362
20.0084
20.3909
20.7804
21.1739
21.5694
21.9647
22.3585
22.7494
23.1365
23.5189
23.8959
24.2671
24.6321
24.9905
25.342
25.6866
26.024
26.3542
26.6771
26.9927
27.301
17.5665
17.563
17.5695
17.5941
17.6444
17.7258
17.8405
17.9877
18.1651
18.369
18.5955
18.8405
19.1005
19.3722
19.6527
19.9397
20.2311
20.5251
20.8204
21.1156
21.4097
21.7021
21.9918
22.2784
22.5614
22.8404
23.1151
23.3853
23.6507
23.9113
24.1668
24.4172
24.6624
17.5663
17.5605
17.5594
17.5675
17.5897
17.6303
17.6923
17.7769
17.8837
18.0113
18.1577
18.3205
18.4972
18.6856
18.8834
19.0888
19.2999
19.5153
19.7338
19.9541
20.1754
20.3968
20.6176
20.8373
21.0553
21.2713
21.4849
21.6959
21.9039
22.1088
22.3104
22.5086
22.7032
17.5662
17.5595
17.5549
17.5548
17.5621
17.5799
17.6107
17.6561
17.7169
17.7929
17.8836
17.9876
18.1036
18.2302
18.3657
18.5089
18.6583
18.8128
18.9713
19.1329
19.2967
19.4619
19.628
19.7943
19.9605
20.126
20.2906
20.4539
20.6157
20.7757
20.9338
21.0897
21.2435
17.5662
17.559
17.5529
17.5489
17.5487
17.5542
17.5672
17.5891
17.6211
17.6636
17.7166
17.7799
17.8528
17.9345
18.0241
18.1207
18.2233
18.3311
18.4432
18.559
18.6776
18.7985
18.9211
19.045
19.1696
19.2947
19.4198
19.5447
19.6691
19.7928
19.9155
20.0372
20.1576
17.5662
17.5588
17.552
17.5462
17.5424
17.5415
17.5447
17.5532
17.5679
17.5894
17.6181
17.6542
17.6975
17.7477
17.8043
17.8668
17.9347
18.0074
18.0842
18.1648
18.2484
18.3347
18.4233
18.5135
18.6053
18.698
18.7916
18.8857
18.98
19.0743
19.1685
19.2624
19.3558
17.5662
17.5588
17.5516
17.5451
17.5395
17.5354
17.5335
17.5346
17.5394
17.5483
17.562
17.5807
17.6044
17.6332
17.667
17.7055
17.7484
17.7954
17.8462
17.9004
17.9576
18.0175
18.0797
18.1441
18.2101
18.2776
18.3463
18.416
18.4865
18.5575
18.629
18.7006
18.7724
17.5662
17.5587
17.5515
17.5445
17.5381
17.5325
17.5281
17.5253
17.5246
17.5265
17.5312
17.5392
17.5506
17.5656
17.5843
17.6065
17.6322
17.6612
17.6934
17.7286
17.7666
17.807
17.8498
17.8946
17.9413
17.9896
18.0394
18.0905
18.1426
18.1956
18.2494
18.3038
18.3587
17.5662
17.5587
17.5514
17.5443
17.5376
17.5313
17.5256
17.5209
17.5174
17.5153
17.5151
17.517
17.5211
17.5277
17.5369
17.5487
17.5632
17.5804
17.6002
17.6225
17.6471
17.6741
17.7031
17.7342
17.7671
17.8017
17.8378
17.8753
17.914
17.9539
17.9947
18.0363
18.0788
17.5662
17.5587
17.5514
17.5442
17.5373
17.5307
17.5245
17.5189
17.514
17.5101
17.5074
17.506
17.5063
17.5083
17.5122
17.5181
17.5261
17.5363
17.5486
17.563
17.5795
17.5981
17.6186
17.6409
17.665
17.6907
17.718
17.7467
17.7767
17.8079
17.8402
17.8735
17.9077
17.5662
17.5587
17.5514
17.5442
17.5372
17.5306
17.5242
17.5183
17.513
17.5084
17.5048
17.5022
17.501
17.5012
17.503
17.5065
17.5117
17.5189
17.5279
17.5389
17.5517
17.5664
17.5829
17.6012
17.6212
17.6427
17.6657
17.6902
17.716
17.743
17.7711
17.8002
17.8303
17.5662
17.5587
17.5514
17.5442
17.5373
17.5307
17.5244
17.5187
17.5136
17.5094
17.5062
17.5041
17.5034
17.5042
17.5067
17.5108
17.5168
17.5246
17.5343
17.5459
17.5593
17.5746
17.5917
17.6104
17.6308
17.6528
17.6762
17.701
17.727
17.7543
17.7826
17.8119
17.8422
17.5662
17.5587
17.5514
17.5443
17.5376
17.5312
17.5255
17.5205
17.5166
17.5139
17.5127
17.5131
17.5153
17.5194
17.5256
17.5338
17.5442
17.5568
17.5714
17.5881
17.6068
17.6274
17.6498
17.674
17.6998
17.7271
17.7558
17.7858
17.817
17.8493
17.8826
17.9167
17.9517
17.5662
17.5587
17.5515
17.5446
17.5383
17.5328
17.5283
17.5254
17.5242
17.5251
17.5284
17.5344
17.543
17.5544
17.5687
17.5858
17.6056
17.6281
17.6531
17.6805
17.71
17.7417
17.7753
17.8106
17.8475
17.8859
17.9255
17.9663
18.0082
18.0509
18.0944
18.1386
18.1834
17.5662
17.5588
17.5518
17.5455
17.5403
17.5368
17.5355
17.5371
17.542
17.5507
17.5634
17.5803
17.6014
17.6267
17.656
17.689
17.7256
17.7655
17.8084
17.8539
17.902
17.9521
18.0042
18.0579
18.1131
18.1695
18.227
18.2853
18.3443
18.4039
18.4638
18.5241
18.5847
17.5663
17.5591
17.5527
17.548
17.5458
17.5473
17.5535
17.5653
17.5834
17.6079
17.6392
17.677
17.7211
17.771
17.8263
17.8865
17.9509
18.0192
18.0908
18.1651
18.2419
18.3207
18.4011
18.4827
18.5654
18.6488
18.7328
18.817
18.9014
18.9857
19.0699
19.1538
19.2372
17.5663
17.5598
17.5555
17.5552
17.5611
17.5751
17.5988
17.6332
17.6786
17.7349
17.8015
17.8776
17.9624
18.0547
18.1535
18.2578
18.3668
18.4796
18.5954
18.7136
18.8335
18.9548
19.0768
19.1992
19.3218
19.4441
19.566
19.6872
19.8076
19.927
20.0452
20.1623
20.278
17.5666
17.5622
17.5642
17.5767
17.6039
17.6486
17.7124
17.7951
17.896
18.0132
18.145
18.289
18.4433
18.606
18.7753
18.9497
19.1279
19.3087
19.4912
19.6746
19.8581
20.0413
20.2236
20.4047
20.5843
20.7619
20.9376
21.111
21.282
21.4506
21.6165
21.7799
21.9406
17.5674
17.5706
17.5924
17.6417
17.7245
17.8427
17.995
18.1778
18.3868
18.6172
18.8646
19.125
19.3951
19.6719
19.953
20.2365
20.5208
20.8047
21.0871
21.3673
21.6446
21.9185
22.1886
22.4546
22.7164
22.9737
23.2264
23.4745
23.7178
23.9564
24.1903
24.4195
24.644
17.5706
17.6016
17.687
17.8408
18.065
18.3527
18.6933
19.0751
19.4875
19.9213
20.3693
20.8257
21.2861
21.7468
22.2053
22.6598
23.1087
23.5511
23.9861
24.4133
24.8323
25.2428
25.6448
26.038
26.4227
26.7987
27.1661
27.5252
27.8759
28.2184
28.553
28.8797
29.1986
17.5854
17.7219
18.012
18.4558
19.0269
19.692
20.4205
21.1884
21.9779
22.7761
23.5742
24.3656
25.1458
25.912
26.6624
27.3959
28.112
28.8105
29.4912
30.1545
30.8004
31.4292
32.0415
32.6374
33.2175
33.7821
34.3316
34.8666
35.3873
35.8942
36.3878
36.8683
37.3363
17.6614
18.2163
19.1616
20.3924
21.7983
23.2954
24.8285
26.3634
27.8795
29.3645
30.811
32.2141
33.5724
34.8867
36.158
37.3876
38.5772
39.7282
40.8422
41.9207
42.9651
43.9766
44.9567
45.9064
46.827
47.7195
48.5851
49.4247
50.2392
51.0297
51.7969
52.5417
53.265
18.1027
20.3856
23.4854
26.9261
30.4414
33.9035
37.2583
40.4819
43.5648
46.506
49.3035
51.9688
54.5134
56.9473
59.2786
61.5147
63.6615
65.7245
67.7086
69.6179
71.4563
73.2276
74.9348
76.5811
78.1693
79.7021
81.182
82.6114
83.9925
85.3273
86.6179
87.8661
89.074
21.2182
31.4407
42.4859
53.1245
62.9728
72.0352
80.437
88.1941
95.3422
101.98
108.198
114.053
119.587
124.83
129.807
134.537
139.039
143.329
147.42
151.324
155.054
158.621
162.033
165.3
168.431
171.434
174.315
177.082
179.741
182.299
184.76
187.13
189.415
59.9537
123.961
170.318
207.141
238.336
266.971
293.908
319.086
342.453
364.003
383.807
401.993
418.713
434.117
448.35
461.539
473.801
485.235
495.931
505.965
515.405
524.31
532.731
540.712
548.294
555.511
562.395
568.971
575.265
581.299
587.091
592.66
598.024
1719.4
1778.23
1839.24
1895.41
1945.93
1992.23
2035.28
2075.52
2113.26
2148.7
2182.04
2213.4
2242.93
2270.74
2296.93
2321.61
2344.85
2366.75
2387.37
2406.81
2425.12
2442.37
2458.63
2473.95
2488.38
2501.98
2514.8
2526.88
2538.26
2548.99
2559.1
2568.63
2577.62
9371.98
8891.36
8341.45
7780.62
7245.93
6751.52
6303.2
5899.24
5534.58
5203.4
4900.67
4622.61
4366.51
4130.36
3912.56
3711.67
3526.33
3355.2
3197.01
3050.6
2914.9
2788.94
2671.81
2562.64
2460.61
2364.95
2274.93
2189.88
2109.19
2032.31
1958.75
1888.08
1819.92
1753.93
1689.81
1627.31
1566.22
1506.36
1447.58
1389.77
1332.85
1276.77
1221.5
1167.04
1113.42
1060.69
1008.93
958.221
908.669
860.394
813.52
768.176
724.488
682.579
642.558
604.522
568.547
534.692
502.989
473.449
446.06
420.784
397.567
376.334
356.998
339.458
323.605
309.326
296.505
285.025
274.772
265.636
257.508
250.29
243.884
238.202
233.16
228.68
224.692
221.129
217.932
215.045
212.42
210.012
207.782
205.694
203.718
201.826
199.996
198.206
196.44
194.684
192.925
191.153
189.359
187.535
185.684
183.772
181.96
179.23
3275.35
3321.71
3380.87
3438.57
3502.09
3569.22
3632.58
3683.69
3715.71
3724.31
3707.79
3666.69
3603.22
3520.7
3423.07
3314.47
3198.85
3079.76
2960.09
2842.03
2727.06
2616.09
2509.56
2407.61
2310.16
2217.06
2128.06
2042.91
1961.35
1883.1
1807.87
1735.41
1665.46
1597.79
1532.17
1468.43
1406.4
1345.94
1286.94
1229.32
1173.02
1118
1064.24
1011.76
960.567
910.715
862.259
815.269
769.822
726.002
683.893
643.578
605.131
568.621
534.101
501.609
471.168
442.78
416.43
392.084
369.694
349.192
330.5
313.53
298.184
284.36
271.954
260.858
250.969
242.184
234.406
227.54
221.497
216.195
211.553
207.499
203.964
200.884
198.199
195.856
193.804
191.997
190.391
188.95
187.638
186.425
185.282
184.187
183.117
182.055
180.986
179.895
178.772
177.608
176.397
175.128
173.807
172.406
171.055
168.962
1361.08
1366.19
1375.17
1386.85
1400.74
1416.99
1436.38
1460.5
1490.93
1528.47
1573.09
1623.82
1678.76
1735.15
1789.69
1838.86
1879.44
1908.91
1925.68
1929.26
1920.12
1899.53
1869.21
1831.05
1786.92
1738.44
1686.98
1633.6
1579.12
1524.12
1469.03
1414.17
1359.76
1305.95
1252.85
1200.56
1149.12
1098.59
1049.01
1000.42
952.843
906.339
860.949
816.727
773.733
732.029
691.684
652.764
615.34
579.476
545.233
512.665
481.815
452.715
425.386
399.832
376.044
353.999
333.66
314.977
297.89
282.329
268.218
255.473
244.009
233.74
224.577
216.436
209.234
202.891
197.331
192.481
188.275
184.647
181.539
178.892
176.655
174.778
173.213
171.917
170.85
169.972
169.249
168.648
168.139
167.696
167.292
166.908
166.523
166.121
165.688
165.211
164.679
164.085
163.421
162.68
161.866
160.954
160.049
158.575
728.567
730.485
732.522
734.598
736.715
739.004
741.7
744.999
749.107
754.579
762.008
771.974
784.982
801.408
821.429
844.956
871.577
900.528
930.713
960.781
989.249
1014.66
1035.74
1051.53
1061.42
1065.22
1063.04
1055.28
1042.51
1025.37
1004.55
980.667
954.316
926.008
896.186
865.231
833.465
801.165
768.57
735.887
703.3
670.969
639.042
607.653
576.922
546.962
517.876
489.755
462.685
436.737
411.974
388.447
366.194
345.241
325.601
307.277
290.256
274.517
260.028
246.748
234.631
223.621
213.662
204.694
196.654
189.481
183.113
177.492
172.559
168.259
164.54
161.353
158.649
156.385
154.517
153.005
151.812
150.899
150.232
149.777
149.503
149.377
149.372
149.46
149.614
149.812
150.031
150.252
150.456
150.628
150.753
150.82
150.818
150.739
150.576
150.322
149.978
149.526
149.042
148.158
436.79
439.394
441.887
444.144
446.088
447.735
449.151
450.429
451.633
452.866
454.274
456.013
458.247
461.143
464.861
469.55
475.335
482.302
490.479
499.819
510.181
521.325
532.907
544.501
555.624
565.771
574.463
581.28
585.895
588.087
587.749
584.879
579.561
571.95
562.247
550.681
537.497
522.939
507.245
490.641
473.342
455.544
437.43
419.167
400.907
382.788
364.937
347.463
330.465
314.028
298.224
283.114
268.744
255.15
242.357
230.377
219.214
208.863
199.312
190.54
182.523
175.232
168.635
162.698
157.384
152.658
148.483
144.825
141.649
138.921
136.61
134.684
133.114
131.873
130.931
130.262
129.841
129.64
129.636
129.802
130.115
130.55
131.084
131.694
132.357
133.054
133.764
134.468
135.149
135.793
136.385
136.913
137.366
137.735
138.014
138.193
138.274
138.24
138.141
137.806
276.266
279.056
281.736
284.243
286.524
288.562
290.37
291.976
293.408
294.701
295.894
297.03
298.147
299.286
300.482
301.774
303.199
304.793
306.589
308.62
310.905
313.453
316.255
319.276
322.457
325.71
328.92
331.95
334.649
336.862
338.438
339.242
339.163
338.122
336.07
332.992
328.906
323.855
317.907
311.144
303.663
295.569
286.97
277.973
268.688
259.215
249.654
240.094
230.619
221.304
212.214
203.407
194.931
186.825
179.122
171.844
165.007
158.622
152.692
147.215
142.187
137.598
133.437
129.688
126.337
123.368
120.762
118.502
116.572
114.952
113.628
112.581
111.795
111.254
110.942
110.841
110.935
111.208
111.641
112.218
112.92
113.728
114.625
115.591
116.607
117.655
118.717
119.776
120.816
121.822
122.779
123.674
124.497
125.237
125.886
126.435
126.884
127.218
127.462
127.621
182.463
184.976
187.409
189.736
191.927
193.969
195.86
197.606
199.217
200.703
202.079
203.357
204.548
205.658
206.694
207.658
208.555
209.387
210.157
210.872
211.537
212.16
212.749
213.308
213.841
214.345
214.811
215.224
215.557
215.78
215.853
215.732
215.372
214.727
213.756
212.424
210.703
208.577
206.042
203.101
199.771
196.078
192.054
187.74
183.181
178.426
173.523
168.523
163.474
158.424
153.417
148.492
143.686
139.03
134.552
130.275
126.217
122.393
118.813
115.485
112.412
109.597
107.037
104.732
102.677
100.866
99.2934
97.9531
96.8376
95.9395
95.2512
94.7649
94.4725
94.3656
94.4357
94.6736
95.0695
95.6132
96.2936
97.0987
98.0158
99.0314
100.131
101.3
102.522
103.783
105.065
106.353
107.632
108.887
110.103
111.268
112.37
113.396
114.339
115.188
115.941
116.584
117.119
117.708
125.919
127.994
130.021
131.985
133.873
135.674
137.386
139.007
140.54
141.988
143.355
144.644
145.858
146.997
148.058
149.04
149.937
150.745
151.458
152.073
152.586
152.996
153.304
153.51
153.617
153.628
153.547
153.376
153.116
152.767
152.324
151.782
151.134
150.368
149.475
148.441
147.257
145.913
144.401
142.718
140.863
138.839
136.654
134.32
131.85
129.264
126.58
123.822
121.012
118.175
115.333
112.511
109.73
107.01
104.369
101.826
99.3931
97.0842
94.9093
92.8769
90.9935
89.2641
87.6922
86.2797
85.0279
83.9366
83.0054
82.2329
81.6174
81.1569
80.849
80.691
80.6798
80.8122
81.0844
81.4921
82.0304
82.6938
83.4758
84.3691
85.3653
86.4552
87.6283
88.8732
90.1777
91.5286
92.9123
94.3148
95.7219
97.1197
98.4941
99.8321
101.121
102.349
103.505
104.579
105.566
106.455
107.226
108.173
90.8314
92.4796
94.1002
95.6864
97.2304
98.7263
100.17
101.561
102.898
104.18
105.409
106.585
107.708
108.776
109.787
110.736
111.619
112.43
113.163
113.814
114.376
114.845
115.219
115.494
115.67
115.747
115.727
115.612
115.404
115.106
114.722
114.253
113.701
113.068
112.353
111.557
110.679
109.717
108.672
107.542
106.33
105.036
103.663
102.216
100.701
99.1257
97.4986
95.8299
94.1307
92.4129
90.6888
88.9709
87.2716
85.603
83.9765
82.403
80.8924
79.4536
78.0948
76.8227
75.6434
74.5619
73.5822
72.7077
71.9409
71.2839
70.738
70.3043
69.9835
69.7761
69.6822
69.7018
69.8346
70.0801
70.4374
70.9053
71.482
72.1652
72.9519
73.8382
74.8193
75.8893
77.0413
78.2674
79.5583
80.9039
82.2932
83.7143
85.1549
86.6021
88.0432
89.4651
90.8554
92.2018
93.4933
94.7183
95.8695
96.9378
97.8861
99.1147
68.3706
69.6615
70.9381
72.1964
73.4321
74.6413
75.8214
76.9707
78.0876
79.1714
80.2216
81.2377
82.2186
83.1624
84.0668
84.9286
85.7438
86.5081
87.2166
87.8646
88.4471
88.9598
89.3988
89.7607
90.0431
90.2445
90.3644
90.4027
90.3607
90.2398
90.0422
89.7705
89.4274
89.0155
88.5376
87.9964
87.3942
86.7335
86.0166
85.2457
84.4234
83.5522
82.6352
81.676
80.6785
79.6473
78.5877
77.5053
76.4066
75.2982
74.1873
73.0811
71.987
70.9125
69.8647
68.8506
67.8768
66.9495
66.0744
65.2567
64.501
63.8114
63.1915
62.6445
62.1731
61.7795
61.4659
61.2339
61.0853
61.0213
61.0433
61.1524
61.3497
61.636
62.012
62.4784
63.0351
63.682
64.4182
65.2424
66.1524
67.1452
68.2167
69.3619
70.5747
71.8477
73.1726
74.5402
75.9403
77.3618
78.7935
80.2235
81.64
83.0309
84.3852
85.6909
86.9396
88.1231
89.1906
90.6211
53.5319
54.5417
55.545
56.5392
57.5218
58.4904
59.4429
60.378
61.2941
62.1905
63.0663
63.9206
64.7523
65.5599
66.3414
67.0944
67.816
68.5029
69.1515
69.7581
70.3189
70.8302
71.2884
71.6906
72.0339
72.3164
72.5363
72.6929
72.7857
72.815
72.7818
72.6873
72.5331
72.3215
72.0546
71.7349
71.3652
70.948
70.4862
69.9826
69.4401
68.8617
68.2504
67.6096
66.9426
66.2532
65.5453
64.8229
64.0904
63.3525
62.6138
61.8791
61.1534
60.4416
59.7486
59.0791
58.4376
57.8285
57.2559
56.7236
56.235
55.7934
55.4017
55.0624
54.7779
54.5504
54.3818
54.274
54.2287
54.2476
54.3321
54.4841
54.7048
54.996
55.3589
55.795
56.3054
56.8911
57.5527
58.2903
59.1037
59.9918
60.953
61.9844
63.0827
64.2429
65.4596
66.7259
68.0341
69.3755
70.7406
72.1193
73.501
74.8747
76.2296
77.5544
78.8398
80.0788
81.2109
82.7669
43.4319
44.2255
45.0169
45.8045
46.5867
47.3619
48.1288
48.8861
49.6327
50.3677
51.0905
51.8001
52.4954
53.1754
53.8385
54.4829
55.1066
55.707
56.2818
56.8279
57.3428
57.8233
58.2669
58.6708
59.0327
59.3505
59.6225
59.8473
60.0241
60.1523
60.2319
60.2632
60.247
60.1845
60.0769
59.926
59.7338
59.5023
59.2339
58.931
58.5962
58.2321
57.8415
57.4273
56.9924
56.54
56.0732
55.5953
55.1096
54.6197
54.1291
53.6413
53.16
52.6887
52.2309
51.7901
51.3696
50.9726
50.602
50.2608
49.9515
49.6766
49.4383
49.2388
49.08
48.9636
48.8914
48.865
48.886
48.9559
49.0763
49.2488
49.475
49.7565
50.0951
50.4924
50.9499
51.4692
52.0518
52.6986
53.4105
54.1879
55.0305
55.9375
56.9073
57.9373
59.0243
60.1637
61.3502
62.5774
63.838
65.1239
66.4262
67.7354
69.0419
70.3352
71.6061
72.8488
73.9969
75.6085
36.3722
36.9998
37.6277
38.2547
38.88
39.5023
40.1208
40.7344
41.3424
41.944
42.5385
43.1252
43.7033
44.2718
44.8296
45.3754
45.9076
46.4247
46.9246
47.4054
47.865
48.3013
48.712
49.0953
49.449
49.7715
50.0612
50.3166
50.5368
50.721
50.8686
50.9795
51.0538
51.0919
51.0946
51.0627
50.9976
50.9006
50.7734
50.6178
50.4357
50.2294
50.001
49.7528
49.4874
49.2072
48.9148
48.613
48.3044
47.9917
47.6779
47.3656
47.0576
46.7568
46.4657
46.187
45.9233
45.6768
45.45
45.2449
45.0637
44.9081
44.7799
44.6808
44.6122
44.5756
44.5725
44.6041
44.6717
44.7768
44.9206
45.1047
45.3304
45.5994
45.9132
46.2736
46.6822
47.1407
47.6508
48.214
48.8317
49.5052
50.235
51.0217
51.8648
52.7637
53.7167
54.7212
55.7741
56.871
58.0069
59.1755
60.3701
61.5829
62.8058
64.0298
65.2462
66.4508
67.5747
69.1814
31.3255
31.8246
32.3255
32.8273
33.3294
33.831
34.3313
34.8298
35.3257
35.8185
36.3075
36.7923
37.2721
37.7462
38.2138
38.6739
39.1254
39.5671
39.9976
40.4155
40.8193
41.2074
41.5782
41.9301
42.2616
42.5713
42.8578
43.1199
43.3568
43.5674
43.7512
43.9077
44.0369
44.1386
44.2131
44.2609
44.2828
44.2794
44.2521
44.2019
44.1303
44.0389
43.9293
43.8034
43.6631
43.5104
43.3474
43.1761
42.9989
42.8178
42.6351
42.4531
42.2738
42.0996
41.9325
41.7745
41.6276
41.4937
41.3745
41.2718
41.1869
41.1215
41.0768
41.0541
41.0546
41.0793
41.1294
41.206
41.31
41.4426
41.6048
41.798
42.0233
42.2821
42.5758
42.9059
43.2741
43.6819
44.131
44.6232
45.16
45.7429
46.3733
47.0521
47.78
48.5572
49.3835
50.2577
51.1783
52.1428
53.1479
54.1894
55.2624
56.361
57.4789
58.6086
59.7427
60.8784
61.9474
63.5008
27.6521
28.0507
28.4519
28.855
29.2597
29.6653
30.0713
30.4772
30.8826
31.2869
31.6896
32.0904
32.4887
32.884
33.2755
33.6627
34.0447
34.4206
34.7894
35.1502
35.5018
35.843
36.1727
36.4897
36.7928
37.081
37.3531
37.6081
37.8453
38.0639
38.2631
38.4427
38.6021
38.7414
38.8604
38.9593
39.0385
39.0985
39.1399
39.1636
39.1705
39.1618
39.1387
39.1025
39.0547
38.9969
38.9305
38.8574
38.7792
38.6977
38.6147
38.5318
38.4509
38.3737
38.3017
38.2367
38.1802
38.1335
38.0982
38.0754
38.0663
38.072
38.0936
38.132
38.188
38.2625
38.3564
38.4703
38.6051
38.7617
38.9409
39.1436
39.371
39.6239
39.9037
40.2117
40.5492
40.9177
41.3187
41.7539
42.2248
42.7331
43.2801
43.8674
44.496
45.1667
45.8801
46.6363
47.4347
48.2741
49.1529
50.0685
51.0176
51.9961
52.9994
54.0218
55.0571
56.104
57.0973
58.5618
24.9424
25.2613
25.5831
25.9076
26.2343
26.5629
26.8929
27.224
27.5558
27.888
28.22
28.5517
28.8825
29.2121
29.54
29.8657
30.1886
30.5079
30.8232
31.1335
31.4381
31.7362
32.0268
32.3092
32.5824
32.8456
33.098
33.3388
33.5672
33.7828
33.9849
34.173
34.3469
34.5063
34.6511
34.7813
34.897
34.9986
35.0864
35.1609
35.2229
35.273
35.3122
35.3415
35.3619
35.3746
35.3809
35.3819
35.3792
35.3739
35.3675
35.3614
35.3569
35.3554
35.3582
35.3666
35.3816
35.4045
35.4362
35.4777
35.53
35.5938
35.6699
35.7589
35.8614
35.9781
36.1095
36.2563
36.4188
36.5978
36.794
37.0079
37.2403
37.4922
37.7645
38.0581
38.3744
38.7144
39.0795
39.4712
39.891
40.3402
40.8204
41.3332
41.8797
42.4612
43.0786
43.7327
44.4236
45.1512
45.9148
46.7132
47.5445
48.406
49.2946
50.2063
51.1362
52.0843
52.9901
54.3431
22.9262
23.1809
23.4389
23.6999
23.9636
24.2298
24.4981
24.7682
25.0399
25.3128
25.5867
25.8613
26.1362
26.4112
26.6858
26.9598
27.2326
27.5039
27.773
28.0395
28.3028
28.5623
28.8174
29.0674
29.3116
29.5495
29.7804
30.0037
30.219
30.4256
30.6232
30.8113
30.9897
31.1582
31.3165
31.4647
31.6027
31.7308
31.8492
31.9582
32.0583
32.15
32.2339
32.3108
32.3815
32.4467
32.5076
32.5649
32.6199
32.6734
32.7266
32.7806
32.8363
32.8949
32.9572
33.0244
33.0972
33.1765
33.2631
33.3577
33.4609
33.5732
33.6952
33.8274
33.9701
34.1236
34.2885
34.465
34.6534
34.8543
35.0679
35.2948
35.5356
35.7908
36.0611
36.3475
36.6507
36.9718
37.3119
37.6722
38.054
38.4585
38.8872
39.3415
39.8227
40.332
40.8708
41.4398
42.0399
42.6715
43.3347
44.0291
44.7538
45.5075
46.2881
47.0929
47.9186
48.7662
49.5804
50.8107
21.4202
21.6228
21.8289
22.0383
22.2506
22.4658
22.6835
22.9036
23.1258
23.3499
23.5757
23.8029
24.0314
24.2608
24.4909
24.7215
24.9521
25.1826
25.4124
25.6413
25.8688
26.0945
26.3179
26.5386
26.7561
26.97
27.1797
27.385
27.5852
27.7802
27.9695
28.1528
28.3299
28.5006
28.6648
28.8224
28.9734
29.1179
29.2561
29.3882
29.5145
29.6354
29.7513
29.8629
29.9706
30.0752
30.1773
30.2777
30.3771
30.4765
30.5764
30.6779
30.7816
30.8884
30.999
31.1141
31.2343
31.3603
31.4926
31.6317
31.7779
31.9318
32.0934
32.2632
32.4413
32.6279
32.8233
33.0274
33.2406
33.4631
33.695
33.9367
34.1885
34.4508
34.7242
35.0092
35.3065
35.6168
35.9411
36.2804
36.6356
37.0079
37.3985
37.8087
38.2397
38.6927
39.169
39.6697
40.1957
40.7477
41.3264
41.932
42.5642
43.2225
43.906
44.613
45.3412
46.0925
46.8172
47.9233
20.2966
20.4568
20.6205
20.7876
20.9578
21.1311
21.3072
21.4861
21.6675
21.8512
22.0372
22.2252
22.415
22.6064
22.7994
22.9936
23.1888
23.3849
23.5815
23.7783
23.9752
24.1717
24.3676
24.5625
24.7561
24.9481
25.1382
25.3261
25.5114
25.6939
25.8734
26.0496
26.2223
26.3915
26.5569
26.7187
26.8767
27.0311
27.182
27.3295
27.4739
27.6155
27.7546
27.8916
28.027
28.1613
28.2949
28.4286
28.5628
28.6982
28.8354
28.975
29.1175
29.2636
29.4138
29.5686
29.7284
29.8937
30.0648
30.242
30.4255
30.6154
30.812
31.0153
31.2254
31.4423
31.6659
31.8964
32.1336
32.3777
32.6288
32.8869
33.1522
33.4249
33.7054
33.994
34.2912
34.5977
34.9139
35.2408
35.5791
35.9298
36.2938
36.6723
37.0663
37.4771
37.9056
38.3531
38.8205
39.3088
39.8187
40.3509
40.9056
41.4828
42.0822
42.7032
43.3441
44.0076
44.6492
45.6368
19.4642
19.5898
19.7189
19.8514
19.9872
20.1262
20.2682
20.4132
20.561
20.7115
20.8646
21.0201
21.1779
21.338
21.5
21.664
21.8297
21.997
22.1658
22.3357
22.5067
22.6784
22.8508
23.0236
23.1965
23.3694
23.542
23.7142
23.8856
24.0563
24.2258
24.3943
24.5615
24.7273
24.8917
25.0547
25.2164
25.3767
25.5357
25.6938
25.8509
26.0075
26.1637
26.3199
26.4764
26.6336
26.792
26.9519
27.1139
27.2783
27.4457
27.6165
27.7911
27.9699
28.1534
28.3417
28.5353
28.7344
28.9391
29.1496
29.3659
29.5881
29.8162
30.05
30.2896
30.5347
30.7852
31.041
31.302
31.5681
31.8392
32.1151
32.3961
32.682
32.9731
33.2696
33.5718
33.8799
34.1947
34.5164
34.8459
35.1839
35.5311
35.8885
36.2569
36.6374
37.031
37.4387
37.8616
38.3005
38.7563
39.2299
39.7217
40.2322
40.7615
41.3094
41.8751
42.4617
43.0294
43.9094
18.8562
18.954
19.0552
19.1598
19.2678
19.3789
19.4933
19.6107
19.7312
19.8546
19.9809
20.11
20.2417
20.376
20.5128
20.652
20.7936
20.9373
21.0831
21.2308
21.3804
21.5317
21.6845
21.8388
21.9944
22.1512
22.3089
22.4676
22.627
22.7872
22.9479
23.1091
23.2708
23.433
23.5956
23.7586
23.9221
24.0863
24.2511
24.4168
24.5835
24.7515
24.921
25.0922
25.2655
25.4412
25.6196
25.801
25.9859
26.1745
26.3672
26.5643
26.7662
26.9731
27.1852
27.4028
27.626
27.8548
28.0895
28.3299
28.576
28.8276
29.0847
29.3471
29.6144
29.8865
30.1631
30.444
30.7288
31.0173
31.3094
31.6048
31.9033
32.2051
32.5099
32.8179
33.1292
33.4441
33.7627
34.0856
34.4131
34.7459
35.0845
35.4296
35.7821
36.1427
36.5124
36.8921
37.2826
37.6849
38.0999
38.5283
38.971
39.4284
39.9012
40.3893
40.8926
41.4143
41.9188
42.705
18.4233
18.4993
18.5786
18.6613
18.7472
18.8365
18.929
19.0247
19.1235
19.2254
19.3305
19.4385
19.5495
19.6633
19.7801
19.8996
20.0219
20.1469
20.2744
20.4045
20.5371
20.672
20.8093
20.9489
21.0906
21.2344
21.3803
21.5282
21.678
21.8297
21.9832
22.1387
22.2959
22.4551
22.6162
22.7793
22.9444
23.1117
23.2813
23.4534
23.6282
23.8058
23.9864
24.1704
24.3579
24.5493
24.7449
24.9448
25.1494
25.359
25.5739
25.7942
26.0201
26.252
26.4898
26.7337
26.9837
27.2398
27.502
27.7702
28.0441
28.3235
28.6082
28.8979
29.1922
29.4908
29.7932
30.0992
30.4083
30.7202
31.0345
31.3509
31.6692
31.9892
32.3106
32.6335
32.9578
33.2836
33.611
33.9402
34.2717
34.6056
34.9427
35.2832
35.628
35.9776
36.3329
36.6945
37.0633
37.4402
37.826
38.2215
38.6274
39.0445
39.4734
39.9145
40.3679
40.837
41.2894
41.9974
18.1291
18.189
18.252
18.3183
18.3879
18.4607
18.5368
18.6161
18.6987
18.7845
18.8735
18.9657
19.0611
19.1597
19.2613
19.3661
19.4739
19.5848
19.6987
19.8156
19.9355
20.0583
20.1841
20.3127
20.4443
20.5787
20.7159
20.856
20.999
21.1449
21.2936
21.4453
21.6
21.7577
21.9186
22.0827
22.2502
22.4212
22.5958
22.7742
22.9567
23.1434
23.3345
23.5303
23.7311
23.9369
24.1483
24.3652
24.5881
24.817
25.0523
25.294
25.5424
25.7975
26.0593
26.328
26.6034
26.8854
27.174
27.4688
27.7696
28.0761
28.388
28.7047
29.026
29.3513
29.6801
30.012
30.3464
30.6829
31.021
31.3604
31.7006
32.0413
32.3822
32.7232
33.0641
33.4048
33.7453
34.0858
34.4263
34.7672
35.1088
35.4514
35.7956
36.1418
36.4908
36.8432
37.1996
37.5608
37.9276
38.3008
38.6811
39.0693
39.4661
39.872
40.2874
40.7158
41.1272
41.7731
17.9486
17.9976
18.0498
18.1051
18.1637
18.2255
18.2905
18.3589
18.4305
18.5054
18.5837
18.6652
18.7501
18.8383
18.9299
19.0248
19.123
19.2246
19.3295
19.4378
19.5495
19.6645
19.7829
19.9047
20.03
20.1588
20.291
20.4268
20.5662
20.7093
20.8561
21.0067
21.1613
21.3199
21.4826
21.6496
21.8211
21.9971
22.178
22.3639
22.5549
22.7514
22.9535
23.1615
23.3755
23.596
23.823
24.0568
24.2976
24.5456
24.8009
25.0638
25.3341
25.6121
25.8977
26.1908
26.4913
26.7991
27.1139
27.4355
27.7635
28.0974
28.4369
28.7815
29.1305
29.4836
29.84
30.1992
30.5605
30.9236
31.2877
31.6523