/*--------------------------------*- C++ -*----------------------------------*\
| =========                 |                                                 |
| \\      /  F ield         | OpenFOAM: The Open Source CFD Toolbox           |
|  \\    /   O peration     | Version:  4.1                                   |
|   \\  /    A nd           | Web:      www.OpenFOAM.org                      |
|    \\/     M anipulation  |                                                 |
\*---------------------------------------------------------------------------*/
FoamFile
{
    version     2.0;
    format      ascii;
    class       volScalarField;
    location    "1100";
    object      p;
}
// * * * * * * * * * * * * * * * * * * * * * * * * * * * * * * * * * * * * * //

dimensions      [0 2 -2 0 0 0 0];

internalField   nonuniform List<scalar> 
6820
(
6.15756
-4.54136
-8.06798
-8.81322
-9.20582
-9.53707
-9.72544
-9.81876
-9.88166
-9.93434
-9.97741
-10.0125
-10.0426
-10.0698
-10.0947
-10.1176
-10.139
-10.1592
-10.1783
-10.1967
-10.2143
-10.2313
-10.2478
-10.2637
-10.2793
-10.2943
-10.3089
-10.3229
-10.3361
-10.3484
-10.3587
-10.3688
-10.3652
-15.5617
-12.0144
-11.2126
-10.4083
-10.0251
-9.94293
-9.92901
-9.92414
-9.93615
-9.96123
-9.98934
-10.0164
-10.0423
-10.0672
-10.0909
-10.1133
-10.1345
-10.1548
-10.1741
-10.1926
-10.2105
-10.2277
-10.2444
-10.2606
-10.2763
-10.2916
-10.3065
-10.3208
-10.3346
-10.3478
-10.3597
-10.3722
-10.3777
-13.3712
-9.86328
-9.60119
-9.59094
-9.57826
-9.66879
-9.76198
-9.82422
-9.87485
-9.92201
-9.96349
-9.99894
-10.0301
-10.0583
-10.0841
-10.1079
-10.13
-10.1508
-10.1705
-10.1893
-10.2073
-10.2246
-10.2414
-10.2577
-10.2735
-10.2889
-10.304
-10.3186
-10.3327
-10.3466
-10.3596
-10.3734
-10.3843
-10.9444
-9.47342
-9.62389
-9.73421
-9.71433
-9.76344
-9.82756
-9.87116
-9.90738
-9.94342
-9.9771
-10.0073
-10.0349
-10.0606
-10.0846
-10.1072
-10.1285
-10.1487
-10.168
-10.1865
-10.2044
-10.2217
-10.2385
-10.2548
-10.2707
-10.2863
-10.3015
-10.3165
-10.3311
-10.3456
-10.3599
-10.3748
-10.3891
-10.492
-9.77748
-9.81613
-9.82704
-9.77753
-9.79944
-9.84593
-9.88216
-9.91454
-9.94771
-9.9795
-10.0086
-10.0355
-10.0607
-10.0844
-10.1066
-10.1277
-10.1477
-10.1669
-10.1853
-10.2031
-10.2203
-10.237
-10.2533
-10.2692
-10.2849
-10.3002
-10.3154
-10.3304
-10.3454
-10.3605
-10.3763
-10.3926
-10.4114
-9.93164
-9.8836
-9.85761
-9.81375
-9.82704
-9.86354
-9.89557
-9.92551
-9.95617
-9.98582
-10.0134
-10.0391
-10.0633
-10.0862
-10.1078
-10.1284
-10.148
-10.1668
-10.1849
-10.2025
-10.2195
-10.2361
-10.2523
-10.2682
-10.2839
-10.2993
-10.3147
-10.33
-10.3454
-10.3611
-10.3776
-10.395
-10.2884
-9.962
-9.90772
-9.88226
-9.84904
-9.85705
-9.8849
-9.91217
-9.93893
-9.96659
-9.99376
-10.0195
-10.0438
-10.0669
-10.0889
-10.1098
-10.1298
-10.1489
-10.1674
-10.1852
-10.2025
-10.2193
-10.2358
-10.2519
-10.2677
-10.2834
-10.2989
-10.3143
-10.3298
-10.3455
-10.3616
-10.3785
-10.3965
-10.1794
-9.97397
-9.92927
-9.90703
-9.88114
-9.88539
-9.90633
-9.92916
-9.95278
-9.97762
-10.0024
-10.0263
-10.0493
-10.0712
-10.0923
-10.1124
-10.1318
-10.1505
-10.1685
-10.186
-10.203
-10.2196
-10.2359
-10.2518
-10.2676
-10.2831
-10.2986
-10.3141
-10.3297
-10.3455
-10.3618
-10.3789
-10.397
-10.1084
-9.98475
-9.94722
-9.92731
-9.90746
-9.90992
-9.92606
-9.94538
-9.96632
-9.98868
-10.0114
-10.0336
-10.0552
-10.076
-10.0961
-10.1156
-10.1343
-10.1524
-10.17
-10.1872
-10.2039
-10.2202
-10.2362
-10.252
-10.2676
-10.2831
-10.2985
-10.314
-10.3296
-10.3455
-10.3618
-10.3788
-10.3967
-10.0641
-9.99137
-9.96022
-9.94319
-9.92867
-9.93065
-9.94365
-9.96032
-9.97905
-9.99932
-10.0201
-10.0408
-10.0611
-10.0809
-10.1002
-10.1189
-10.137
-10.1546
-10.1718
-10.1885
-10.2049
-10.2209
-10.2367
-10.2523
-10.2678
-10.2831
-10.2984
-10.3138
-10.3293
-10.3451
-10.3613
-10.378
-10.3955
-10.0364
-9.99472
-9.97003
-9.95616
-9.946
-9.94809
-9.95905
-9.97374
-9.99069
-10.0092
-10.0284
-10.0478
-10.0669
-10.0857
-10.1042
-10.1221
-10.1397
-10.1568
-10.1735
-10.1898
-10.2059
-10.2217
-10.2372
-10.2526
-10.2679
-10.283
-10.2982
-10.3134
-10.3288
-10.3444
-10.3603
-10.3767
-10.3937
-10.0199
-9.9968
-9.97809
-9.96722
-9.96042
-9.96283
-9.97243
-9.98563
-10.0011
-10.0182
-10.036
-10.0542
-10.0723
-10.0902
-10.1079
-10.1252
-10.1421
-10.1587
-10.175
-10.191
-10.2068
-10.2222
-10.2375
-10.2527
-10.2677
-10.2827
-10.2977
-10.3127
-10.3278
-10.3432
-10.3588
-10.3747
-10.3911
-10.011
-9.99877
-9.98513
-9.97692
-9.97266
-9.97545
-9.9841
-9.99613
-10.0104
-10.0262
-10.0429
-10.0599
-10.0771
-10.0942
-10.1112
-10.1279
-10.1443
-10.1604
-10.1763
-10.1919
-10.2073
-10.2225
-10.2376
-10.2525
-10.2673
-10.282
-10.2967
-10.3115
-10.3264
-10.3414
-10.3566
-10.372
-10.3877
-10.0072
-10.0011
-9.99155
-9.98563
-9.98328
-9.98642
-9.99437
-10.0054
-10.0186
-10.0333
-10.049
-10.0651
-10.0814
-10.0977
-10.114
-10.1301
-10.146
-10.1617
-10.1772
-10.1925
-10.2076
-10.2225
-10.2372
-10.2518
-10.2664
-10.2808
-10.2953
-10.3098
-10.3243
-10.3389
-10.3537
-10.3686
-10.3836
-10.0068
-10.004
-9.99758
-9.99358
-9.99269
-9.99612
-10.0035
-10.0137
-10.026
-10.0397
-10.0544
-10.0696
-10.0851
-10.1008
-10.1164
-10.132
-10.1474
-10.1626
-10.1777
-10.1926
-10.2073
-10.2219
-10.2364
-10.2507
-10.265
-10.2792
-10.2933
-10.3075
-10.3216
-10.3358
-10.3501
-10.3644
-10.3787
-10.0086
-10.0075
-10.0034
-10.0009
-10.0011
-10.0048
-10.0117
-10.0212
-10.0326
-10.0454
-10.0592
-10.0736
-10.0884
-10.1033
-10.1183
-10.1333
-10.1483
-10.1631
-10.1777
-10.1923
-10.2067
-10.2209
-10.2351
-10.2491
-10.2631
-10.2769
-10.2908
-10.3045
-10.3183
-10.332
-10.3458
-10.3595
-10.3732
-10.0118
-10.0115
-10.009
-10.0078
-10.0088
-10.0126
-10.0192
-10.028
-10.0386
-10.0506
-10.0635
-10.0771
-10.0911
-10.1054
-10.1198
-10.1343
-10.1487
-10.1631
-10.1774
-10.1915
-10.2056
-10.2195
-10.2333
-10.247
-10.2606
-10.2742
-10.2876
-10.301
-10.3143
-10.3276
-10.3408
-10.354
-10.367
-10.0158
-10.0158
-10.0146
-10.0143
-10.0159
-10.0197
-10.026
-10.0342
-10.0441
-10.0552
-10.0674
-10.0802
-10.0935
-10.1071
-10.1209
-10.1349
-10.1488
-10.1627
-10.1766
-10.1903
-10.204
-10.2176
-10.2311
-10.2444
-10.2577
-10.2708
-10.2839
-10.2969
-10.3098
-10.3226
-10.3352
-10.3478
-10.3602
-10.0203
-10.0205
-10.02
-10.0204
-10.0223
-10.0262
-10.0321
-10.0398
-10.049
-10.0594
-10.0708
-10.0829
-10.0955
-10.1085
-10.1217
-10.1351
-10.1485
-10.162
-10.1754
-10.1888
-10.2021
-10.2153
-10.2284
-10.2414
-10.2543
-10.267
-10.2797
-10.2922
-10.3047
-10.317
-10.3291
-10.3411
-10.3529
-10.0251
-10.0253
-10.0254
-10.0262
-10.0283
-10.0321
-10.0377
-10.0448
-10.0534
-10.0631
-10.0738
-10.0852
-10.0971
-10.1095
-10.1221
-10.135
-10.1479
-10.1609
-10.1739
-10.1869
-10.1998
-10.2126
-10.2253
-10.2379
-10.2504
-10.2628
-10.275
-10.2871
-10.2991
-10.3109
-10.3225
-10.3339
-10.3451
-10.03
-10.0302
-10.0306
-10.0316
-10.0339
-10.0375
-10.0427
-10.0494
-10.0573
-10.0663
-10.0763
-10.0871
-10.0984
-10.1101
-10.1222
-10.1345
-10.147
-10.1595
-10.1721
-10.1846
-10.1971
-10.2095
-10.2218
-10.2341
-10.2462
-10.2581
-10.2699
-10.2816
-10.293
-10.3043
-10.3154
-10.3263
-10.3369
-10.035
-10.0352
-10.0357
-10.0368
-10.039
-10.0424
-10.0472
-10.0533
-10.0607
-10.0691
-10.0784
-10.0885
-10.0993
-10.1104
-10.122
-10.1338
-10.1457
-10.1578
-10.1699
-10.182
-10.1941
-10.2061
-10.2181
-10.2299
-10.2416
-10.2531
-10.2645
-10.2757
-10.2867
-10.2974
-10.308
-10.3183
-10.3284
-10.04
-10.0402
-10.0407
-10.0418
-10.0438
-10.0469
-10.0512
-10.0568
-10.0636
-10.0714
-10.0801
-10.0896
-10.0997
-10.1103
-10.1214
-10.1326
-10.1441
-10.1558
-10.1675
-10.1792
-10.1908
-10.2025
-10.214
-10.2254
-10.2367
-10.2478
-10.2587
-10.2694
-10.28
-10.2903
-10.3003
-10.3101
-10.3197
-10.045
-10.0452
-10.0456
-10.0464
-10.0481
-10.0508
-10.0547
-10.0597
-10.0659
-10.0731
-10.0812
-10.0902
-10.0997
-10.1098
-10.1203
-10.1312
-10.1422
-10.1534
-10.1647
-10.176
-10.1873
-10.1985
-10.2096
-10.2206
-10.2315
-10.2422
-10.2526
-10.2629
-10.273
-10.2828
-10.2924
-10.3017
-10.3107
-10.05
-10.0501
-10.0503
-10.0509
-10.0521
-10.0543
-10.0576
-10.0621
-10.0676
-10.0743
-10.0818
-10.0902
-10.0993
-10.1089
-10.1189
-10.1293
-10.1399
-10.1507
-10.1616
-10.1725
-10.1834
-10.1942
-10.205
-10.2156
-10.226
-10.2363
-10.2464
-10.2562
-10.2658
-10.2752
-10.2843
-10.2931
-10.3016
-10.0551
-10.0552
-10.0551
-10.0551
-10.0558
-10.0573
-10.06
-10.0638
-10.0688
-10.0748
-10.0818
-10.0897
-10.0982
-10.1074
-10.117
-10.127
-10.1372
-10.1476
-10.1581
-10.1687
-10.1792
-10.1897
-10.2
-10.2103
-10.2203
-10.2302
-10.2399
-10.2493
-10.2584
-10.2673
-10.276
-10.2843
-10.2923
-10.0604
-10.0604
-10.0599
-10.0592
-10.059
-10.0598
-10.0617
-10.0648
-10.0692
-10.0746
-10.0811
-10.0885
-10.0966
-10.1054
-10.1146
-10.1242
-10.1341
-10.1441
-10.1543
-10.1645
-10.1747
-10.1848
-10.1948
-10.2047
-10.2144
-10.2239
-10.2331
-10.2422
-10.2509
-10.2594
-10.2675
-10.2754
-10.283
-10.066
-10.066
-10.0648
-10.0631
-10.0619
-10.0617
-10.0628
-10.0651
-10.0688
-10.0737
-10.0796
-10.0866
-10.0943
-10.1027
-10.1116
-10.1209
-10.1304
-10.1402
-10.1501
-10.16
-10.1698
-10.1796
-10.1893
-10.1989
-10.2082
-10.2173
-10.2262
-10.2348
-10.2432
-10.2512
-10.259
-10.2664
-10.2736
-10.0722
-10.0722
-10.07
-10.0669
-10.0644
-10.063
-10.063
-10.0645
-10.0675
-10.0718
-10.0773
-10.0838
-10.0912
-10.0993
-10.1079
-10.1169
-10.1262
-10.1357
-10.1453
-10.155
-10.1646
-10.1741
-10.1835
-10.1927
-10.2017
-10.2105
-10.2191
-10.2273
-10.2353
-10.243
-10.2503
-10.2574
-10.2641
-10.0795
-10.0794
-10.0757
-10.0706
-10.0664
-10.0635
-10.0623
-10.0628
-10.0651
-10.0688
-10.0739
-10.0801
-10.0872
-10.0951
-10.1035
-10.1123
-10.1214
-10.1307
-10.1401
-10.1495
-10.1589
-10.1681
-10.1773
-10.1862
-10.1949
-10.2034
-10.2116
-10.2196
-10.2272
-10.2345
-10.2415
-10.2482
-10.2545
-10.0887
-10.0883
-10.0822
-10.0742
-10.0676
-10.0629
-10.0603
-10.0598
-10.0613
-10.0646
-10.0694
-10.0753
-10.0822
-10.0899
-10.0982
-10.1068
-10.1158
-10.1249
-10.1342
-10.1434
-10.1526
-10.1616
-10.1705
-10.1792
-10.1877
-10.1959
-10.2038
-10.2115
-10.2188
-10.2258
-10.2325
-10.2388
-10.2448
-10.1012
-10.0999
-10.0897
-10.0777
-10.068
-10.0609
-10.0567
-10.0551
-10.056
-10.0588
-10.0633
-10.0691
-10.0759
-10.0835
-10.0917
-10.1003
-10.1092
-10.1183
-10.1274
-10.1365
-10.1455
-10.1544
-10.1631
-10.1716
-10.1799
-10.1879
-10.1956
-10.203
-10.21
-10.2167
-10.2231
-10.2292
-10.2348
-10.1194
-10.1157
-10.0985
-10.0805
-10.0669
-10.057
-10.0509
-10.0483
-10.0486
-10.051
-10.0553
-10.0611
-10.0679
-10.0755
-10.0838
-10.0924
-10.1013
-10.1104
-10.1195
-10.1285
-10.1375
-10.1463
-10.1549
-10.1633
-10.1714
-10.1792
-10.1868
-10.1939
-10.2008
-10.2073
-10.2135
-10.2193
-10.2247
-10.1498
-10.1386
-10.108
-10.0812
-10.0627
-10.0497
-10.0418
-10.0383
-10.0382
-10.0405
-10.0448
-10.0507
-10.0576
-10.0654
-10.0738
-10.0826
-10.0916
-10.1008
-10.1099
-10.119
-10.128
-10.1368
-10.1454
-10.1538
-10.1618
-10.1696
-10.177
-10.1841
-10.1909
-10.1973
-10.2033
-10.209
-10.2142
-10.2048
-10.1764
-10.1213
-10.0805
-10.0543
-10.0366
-10.0267
-10.0228
-10.0227
-10.0254
-10.0304
-10.0369
-10.0446
-10.053
-10.062
-10.0713
-10.0807
-10.0902
-10.0996
-10.109
-10.1181
-10.127
-10.1357
-10.1441
-10.1521
-10.1598
-10.1672
-10.1742
-10.1809
-10.1871
-10.193
-10.1986
-10.2037
-10.2878
-10.2247
-10.1401
-10.0866
-10.0479
-10.0198
-10.0047
-9.99816
-9.9964
-9.9983
-10.0032
-10.0103
-10.0188
-10.0282
-10.0382
-10.0487
-10.0593
-10.0699
-10.0804
-10.0908
-10.1009
-10.1107
-10.1201
-10.1292
-10.138
-10.1463
-10.1542
-10.1617
-10.1688
-10.1755
-10.1818
-10.1876
-10.1929
-10.438
-10.2045
-10.0751
-10.0618
-10.047
-10.0295
-10.0236
-10.0232
-10.0234
-10.0249
-10.0281
-10.0328
-10.0384
-10.0448
-10.0519
-10.0595
-10.0675
-10.0758
-10.0841
-10.0925
-10.1008
-10.1091
-10.1171
-10.125
-10.1326
-10.14
-10.147
-10.1538
-10.1602
-10.1662
-10.172
-10.1774
-10.1824
-11.3943
-10.1711
-9.58076
-9.50149
-9.51463
-9.55223
-9.60774
-9.66367
-9.71434
-9.76102
-9.80401
-9.84283
-9.87755
-9.9087
-9.93675
-9.96208
-9.98501
-10.0059
-10.0249
-10.0423
-10.0583
-10.073
-10.0865
-10.0991
-10.1107
-10.1215
-10.1314
-10.1406
-10.1491
-10.1569
-10.1641
-10.1706
-10.1765
-15.1634
-12.9605
-11.9294
-11.293
-10.8659
-10.6151
-10.4532
-10.3301
-10.2378
-10.1735
-10.1299
-10.1004
-10.081
-10.0693
-10.0632
-10.0614
-10.0625
-10.0658
-10.0707
-10.0766
-10.0834
-10.0905
-10.098
-10.1055
-10.113
-10.1204
-10.1277
-10.1347
-10.1414
-10.1478
-10.1539
-10.1598
-10.1653
-1.24969
-5.34235
-7.46616
-8.23868
-8.6775
-9.04122
-9.30738
-9.48363
-9.6077
-9.70359
-9.7791
-9.83807
-9.88481
-9.92297
-9.9549
-9.98204
-10.0054
-10.0259
-10.044
-10.0602
-10.0749
-10.0883
-10.1005
-10.1117
-10.1221
-10.1316
-10.1404
-10.1486
-10.1561
-10.163
-10.1694
-10.1752
-10.1805
-10.3495
-10.132
-10.4206
-10.6899
-10.7942
-10.8265
-10.8377
-10.835
-10.825
-10.8171
-10.8181
-10.8312
-10.8576
-10.8968
-10.9469
-11.0055
-11.0696
-11.1363
-11.2028
-11.2667
-11.3259
-11.3787
-11.4237
-11.4601
-11.4871
-11.5045
-11.5119
-11.5094
-11.497
-11.4746
-11.4425
-11.4004
-11.3486
-11.2868
-11.2151
-11.1332
-11.041
-10.9384
-10.825
-10.7008
-10.5654
-10.4187
-10.2604
-10.0903
-9.90846
-9.71468
-9.509
-9.29154
-9.06251
-8.82224
-8.57117
-8.30989
-8.03911
-7.75967
-7.47254
-7.17882
-6.87971
-6.57652
-6.27062
-5.96345
-5.65648
-5.35117
-5.04896
-4.75126
-4.45939
-4.17456
-3.8979
-3.63036
-3.37279
-3.12586
-2.89009
-2.66585
-2.45339
-2.25279
-2.06405
-1.88704
-1.72152
-1.56716
-1.42358
-1.2903
-1.16682
-1.05263
-0.947169
-0.849893
-0.760257
-0.677732
-0.601804
-0.53199
-0.467815
-0.40887
-0.354676
-0.304997
-0.259101
-0.217398
-0.177751
-0.143553
-0.106019
-0.0824343
-0.0340992
-0.0420858
-10.3956
-10.3936
-10.5874
-10.7324
-10.7644
-10.7585
-10.7506
-10.741
-10.732
-10.7301
-10.7397
-10.7617
-10.7959
-10.8411
-10.8955
-10.9566
-11.0221
-11.0893
-11.1558
-11.2194
-11.2782
-11.3305
-11.3751
-11.4111
-11.4379
-11.4551
-11.4625
-11.46
-11.4476
-11.4254
-11.3933
-11.3514
-11.2997
-11.2381
-11.1665
-11.0849
-10.9929
-10.8905
-10.7775
-10.6536
-10.5187
-10.3726
-10.2149
-10.0457
-9.86482
-9.67215
-9.46776
-9.25177
-9.0244
-8.78598
-8.53695
-8.27789
-8.0095
-7.7326
-7.44816
-7.15723
-6.86099
-6.56072
-6.25776
-5.95351
-5.64939
-5.34684
-5.04727
-4.75205
-4.46248
-4.17976
-3.90499
-3.63912
-3.38298
-3.13726
-2.90247
-2.679
-2.46709
-2.26687
-2.07833
-1.90135
-1.73571
-1.58112
-1.43719
-1.30347
-1.17949
-1.06473
-0.958661
-0.860741
-0.77044
-0.687234
-0.610618
-0.540112
-0.475244
-0.415609
-0.360723
-0.310359
-0.263759
-0.221396
-0.180979
-0.146283
-0.10763
-0.0845566
-0.0330332
-0.047242
-10.408
-10.4221
-10.509
-10.6102
-10.667
-10.6957
-10.7146
-10.7248
-10.7282
-10.7313
-10.7396
-10.7561
-10.7822
-10.8183
-10.864
-10.9177
-10.9772
-11.04
-11.1036
-11.1653
-11.2229
-11.2746
-11.3189
-11.3549
-11.3817
-11.3991
-11.4067
-11.4045
-11.3925
-11.3705
-11.3388
-11.2973
-11.2459
-11.1846
-11.1134
-11.0321
-10.9406
-10.8386
-10.7261
-10.6028
-10.4686
-10.3232
-10.1665
-9.99826
-9.81851
-9.62717
-9.42428
-9.20997
-8.98446
-8.74809
-8.50129
-8.24465
-7.97883
-7.70465
-7.42305
-7.13506
-6.84184
-6.54462
-6.24471
-5.94348
-5.64231
-5.34262
-5.04577
-4.75312
-4.46593
-4.18539
-3.91257
-3.64843
-3.39379
-3.14932
-2.91556
-2.69289
-2.48158
-2.28175
-2.09342
-1.91648
-1.75074
-1.5959
-1.45161
-1.31744
-1.19292
-1.07757
-0.97085
-0.872249
-0.78124
-0.697311
-0.619961
-0.548719
-0.483112
-0.422741
-0.367118
-0.316025
-0.268682
-0.225613
-0.1844
-0.149146
-0.109396
-0.0866945
-0.0321856
-0.0521577
-10.4118
-10.436
-10.5038
-10.5974
-10.6608
-10.6906
-10.705
-10.7118
-10.7143
-10.7177
-10.7268
-10.7442
-10.7705
-10.8059
-10.8493
-10.8994
-10.954
-11.0111
-11.0686
-11.1245
-11.1768
-11.2241
-11.2651
-11.2985
-11.3238
-11.3401
-11.3473
-11.3449
-11.333
-11.3113
-11.2799
-11.2388
-11.1878
-11.127
-11.0563
-10.9755
-10.8845
-10.7832
-10.6714
-10.5488
-10.4154
-10.2709
-10.1152
-9.94822
-9.76979
-9.57994
-9.37872
-9.16625
-8.94277
-8.70861
-8.4642
-8.2101
-7.947
-7.67567
-7.39703
-7.1121
-6.822
-6.52793
-6.23117
-5.93305
-5.63494
-5.33819
-5.04416
-4.75416
-4.46945
-4.19117
-3.9204
-3.65807
-3.405
-3.16186
-2.9292
-2.7074
-2.49673
-2.29734
-2.10925
-1.93238
-1.76654
-1.61147
-1.46682
-1.33218
-1.20712
-1.09114
-0.983747
-0.88443
-0.792676
-0.707983
-0.629858
-0.557834
-0.491444
-0.430292
-0.373887
-0.32202
-0.273891
-0.230071
-0.18803
-0.152165
-0.111318
-0.0888872
-0.0315214
-0.05688
-10.4159
-10.4468
-10.5029
-10.5752
-10.628
-10.6562
-10.6733
-10.6856
-10.6947
-10.7039
-10.7168
-10.7357
-10.7617
-10.7948
-10.8348
-10.8805
-10.9305
-10.9828
-11.0357
-11.0872
-11.1355
-11.1792
-11.2168
-11.2474
-11.2701
-11.2844
-11.2899
-11.2864
-11.2735
-11.2513
-11.2197
-11.1785
-11.1276
-11.0671
-10.9967
-10.9163
-10.8258
-10.7251
-10.6139
-10.4922
-10.3596
-10.2162
-10.0616
-9.89586
-9.71886
-9.5306
-9.33114
-9.12061
-8.89925
-8.6674
-8.42547
-8.17402
-7.91372
-7.64533
-7.36975
-7.08796
-6.80107
-6.51025
-6.21674
-5.92184
-5.62687
-5.33317
-5.04207
-4.75484
-4.4727
-4.1968
-3.92818
-3.66778
-3.41638
-3.17468
-2.9432
-2.72235
-2.5124
-2.31351
-2.12572
-1.94895
-1.78305
-1.62776
-1.48276
-1.34767
-1.22204
-1.10543
-0.997342
-0.897282
-0.804752
-0.719259
-0.640319
-0.567472
-0.500255
-0.438277
-0.381047
-0.328361
-0.279405
-0.234786
-0.191885
-0.155354
-0.113413
-0.0911372
-0.0310647
-0.0613596
-10.4188
-10.451
-10.4979
-10.5553
-10.6026
-10.6332
-10.654
-10.6697
-10.6819
-10.6935
-10.7077
-10.7267
-10.7516
-10.7826
-10.8196
-10.8617
-10.9074
-10.9553
-11.0036
-11.0506
-11.0947
-11.1346
-11.1689
-11.1966
-11.2169
-11.2293
-11.2332
-11.2284
-11.2145
-11.1916
-11.1594
-11.1178
-11.0667
-11.0061
-10.9357
-10.8556
-10.7654
-10.6651
-10.5545
-10.4334
-10.3017
-10.1592
-10.0058
-9.84128
-9.66572
-9.47907
-9.2814
-9.07286
-8.85367
-8.62417
-8.38478
-8.13604
-7.8786
-7.61323
-7.34078
-7.06223
-6.77864
-6.49116
-6.201
-5.90943
-5.61773
-5.32721
-5.03916
-4.75482
-4.4754
-4.20201
-3.93568
-3.67732
-3.42773
-3.18757
-2.95738
-2.73758
-2.52844
-2.33013
-2.1427
-1.9661
-1.80018
-1.64471
-1.49938
-1.36384
-1.23766
-1.12041
-1.01161
-0.910789
-0.817457
-0.731134
-0.651345
-0.577637
-0.509555
-0.446709
-0.388611
-0.33506
-0.285235
-0.239773
-0.195979
-0.158725
-0.115696
-0.0934413
-0.0308473
-0.0655343
-10.4201
-10.4516
-10.4924
-10.5401
-10.5823
-10.6129
-10.635
-10.6524
-10.6669
-10.6808
-10.6965
-10.7161
-10.7405
-10.7699
-10.8044
-10.843
-10.8848
-10.9284
-10.9723
-11.015
-11.0549
-11.0909
-11.1217
-11.1464
-11.1641
-11.1742
-11.1763
-11.1699
-11.1549
-11.131
-11.0981
-11.056
-11.0045
-10.9437
-10.8733
-10.7932
-10.7033
-10.6033
-10.4932
-10.3727
-10.2417
-10.1001
-9.94771
-9.78445
-9.6103
-9.42525
-9.22937
-9.02281
-8.80582
-8.5787
-8.34189
-8.09591
-7.8414
-7.57911
-7.30988
-7.03465
-6.75447
-6.47044
-6.18375
-5.89562
-5.60732
-5.32011
-5.03524
-4.75394
-4.47738
-4.20663
-3.94272
-3.68654
-3.43887
-3.20038
-2.97161
-2.75295
-2.54472
-2.34707
-2.16008
-1.98371
-1.81783
-1.66222
-1.5166
-1.38063
-1.25392
-1.13603
-1.02652
-0.924926
-0.830774
-0.743597
-0.66293
-0.588329
-0.519344
-0.455591
-0.396585
-0.342129
-0.291395
-0.245043
-0.200326
-0.162286
-0.118181
-0.0957987
-0.0308946
-0.0693517
-10.4201
-10.4502
-10.4865
-10.5272
-10.5647
-10.5942
-10.6171
-10.6359
-10.6523
-10.6679
-10.6849
-10.7047
-10.7284
-10.7563
-10.7884
-10.8239
-10.8621
-10.9017
-10.9414
-10.98
-11.016
-11.0482
-11.0755
-11.0971
-11.112
-11.1198
-11.1198
-11.1117
-11.0953
-11.0702
-11.0363
-10.9934
-10.9415
-10.8803
-10.8097
-10.7295
-10.6396
-10.5399
-10.4301
-10.3101
-10.1798
-10.039
-9.8876
-9.72553
-9.55275
-9.36927
-9.17518
-8.97061
-8.75581
-8.53111
-8.29691
-8.05374
-7.80222
-7.54307
-7.27713
-7.00531
-6.72862
-6.44814
-6.16503
-5.88046
-5.59568
-5.31189
-5.03034
-4.7522
-4.47861
-4.21064
-3.94928
-3.69539
-3.44977
-3.21306
-2.9858
-2.7684
-2.56116
-2.36426
-2.17779
-2.00171
-1.83592
-1.68023
-1.53436
-1.39799
-1.27076
-1.15225
-1.04203
-0.939661
-0.844678
-0.756629
-0.675061
-0.599539
-0.52962
-0.464926
-0.404974
-0.349572
-0.297891
-0.250605
-0.204934
-0.166048
-0.120879
-0.0982092
-0.0312266
-0.0727674
-10.419
-10.4475
-10.4801
-10.5157
-10.5492
-10.5774
-10.6005
-10.6202
-10.6377
-10.6546
-10.6723
-10.6923
-10.7153
-10.7417
-10.7715
-10.8041
-10.8389
-10.8748
-10.9107
-10.9453
-10.9774
-11.006
-11.03
-11.0485
-11.0607
-11.066
-11.0639
-11.054
-11.036
-11.0096
-10.9746
-10.9309
-10.8782
-10.8164
-10.7454
-10.665
-10.5751
-10.4754
-10.3659
-10.2463
-10.1166
-9.9765
-9.82604
-9.6651
-9.49365
-9.31171
-9.11938
-8.91679
-8.70419
-8.4819
-8.25033
-8.00999
-7.76149
-7.50554
-7.24294
-6.97459
-6.70146
-6.42461
-6.14514
-5.86423
-5.58304
-5.30278
-5.02464
-4.74975
-4.47924
-4.21415
-3.95542
-3.70394
-3.46045
-3.22562
-2.99996
-2.7839
-2.57774
-2.38166
-2.19577
-2.02006
-1.85442
-1.69868
-1.5526
-1.41587
-1.28814
-1.16902
-1.05811
-0.95496
-0.85914
-0.770207
-0.68772
-0.611254
-0.540373
-0.474707
-0.413776
-0.357391
-0.304728
-0.256465
-0.209812
-0.170016
-0.123799
-0.100673
-0.0318579
-0.0757447
-10.417
-10.4438
-10.4735
-10.5051
-10.5354
-10.562
-10.5849
-10.6049
-10.6232
-10.6408
-10.659
-10.6789
-10.7011
-10.7261
-10.7537
-10.7836
-10.8152
-10.8476
-10.8798
-10.9107
-10.9391
-10.9642
-10.9849
-11.0003
-11.0098
-11.0126
-11.0084
-10.9966
-10.977
-10.9492
-10.9131
-10.8683
-10.8149
-10.7525
-10.681
-10.6003
-10.5102
-10.4106
-10.3012
-10.1819
-10.0527
-9.91332
-9.76374
-9.60387
-9.4337
-9.25327
-9.06266
-8.86203
-8.65161
-8.43173
-8.20279
-7.96529
-7.71982
-7.46708
-7.20785
-6.94299
-6.67346
-6.40027
-6.12451
-5.84729
-5.56976
-5.29308
-5.0184
-4.74684
-4.47948
-4.21732
-3.96131
-3.7123
-3.47103
-3.23813
-3.01415
-2.79949
-2.59447
-2.39929
-2.21404
-2.03873
-1.87329
-1.71755
-1.57129
-1.43423
-1.30603
-1.18632
-1.07471
-0.970791
-0.874131
-0.784306
-0.700886
-0.623457
-0.551592
-0.484926
-0.422987
-0.365585
-0.311907
-0.262625
-0.214963
-0.174195
-0.126947
-0.10319
-0.0327972
-0.0782559
-10.4142
-10.4394
-10.4666
-10.495
-10.5226
-10.5477
-10.57
-10.5901
-10.6087
-10.6267
-10.645
-10.6646
-10.686
-10.7095
-10.735
-10.7624
-10.791
-10.8201
-10.8487
-10.876
-10.901
-10.9226
-10.9401
-10.9525
-10.9592
-10.9596
-10.9532
-10.9395
-10.9182
-10.889
-10.8517
-10.8059
-10.7516
-10.6886
-10.6166
-10.5356
-10.4453
-10.3456
-10.2363
-10.1174
-9.98858
-9.84986
-9.70112
-9.54231
-9.3734
-9.19445
-9.00555
-8.80686
-8.59861
-8.38113
-8.15481
-7.92014
-7.67771
-7.42818
-7.17232
-6.91097
-6.64505
-6.37554
-6.10349
-5.82999
-5.55615
-5.28308
-5.01191
-4.74371
-4.47953
-4.22036
-3.96711
-3.72062
-3.48161
-3.25071
-3.02845
-2.81525
-2.61142
-2.41716
-2.2326
-2.05774
-1.89253
-1.73683
-1.59042
-1.45304
-1.32439
-1.20411
-1.09182
-0.987128
-0.889627
-0.798903
-0.714539
-0.636131
-0.563262
-0.495572
-0.432597
-0.374149
-0.319424
-0.269087
-0.22039
-0.178589
-0.130326
-0.10576
-0.0340472
-0.0802831
-10.4106
-10.4343
-10.4594
-10.4852
-10.5105
-10.5342
-10.5557
-10.5755
-10.5941
-10.6121
-10.6303
-10.6494
-10.6699
-10.6919
-10.7155
-10.7404
-10.7662
-10.7921
-10.8174
-10.8413
-10.8628
-10.8811
-10.8954
-10.905
-10.909
-10.9069
-10.8983
-10.8827
-10.8597
-10.8291
-10.7904
-10.7437
-10.6885
-10.6247
-10.5522
-10.4708
-10.3803
-10.2805
-10.1714
-10.0527
-9.92442
-9.78635
-9.63845
-9.48068
-9.31304
-9.13557
-8.94837
-8.75161
-8.54553
-8.33045
-8.10674
-7.87491
-7.6355
-7.38919
-7.1367
-6.87885
-6.61654
-6.35072
-6.08239
-5.81262
-5.54247
-5.27303
-5.00537
-4.74055
-4.47958
-4.22343
-3.97297
-3.72903
-3.49231
-3.26344
-3.04295
-2.83123
-2.62863
-2.43534
-2.25149
-2.07711
-1.91217
-1.75652
-1.60998
-1.47232
-1.34322
-1.22237
-1.10941
-1.00395
-0.905608
-0.813979
-0.728661
-0.64926
-0.575369
-0.506633
-0.442599
-0.383075
-0.327277
-0.275847
-0.226091
-0.183197
-0.133937
-0.108382
-0.035604
-0.0818192
-10.4063
-10.4285
-10.4518
-10.4755
-10.4989
-10.5211
-10.5417
-10.561
-10.5793
-10.5972
-10.6151
-10.6335
-10.6529
-10.6735
-10.6951
-10.7177
-10.7407
-10.7636
-10.7858
-10.8064
-10.8247
-10.8398
-10.851
-10.8577
-10.859
-10.8546
-10.8438
-10.8262
-10.8015
-10.7694
-10.7295
-10.6816
-10.6255
-10.561
-10.488
-10.4062
-10.3154
-10.2156
-10.1066
-9.98822
-9.86037
-9.72295
-9.5759
-9.41919
-9.25281
-9.07682
-8.89134
-8.69652
-8.49262
-8.27992
-8.05884
-7.82983
-7.59346
-7.35035
-7.10122
-6.84688
-6.58817
-6.32603
-6.06143
-5.79538
-5.52893
-5.26311
-4.99898
-4.73754
-4.4798
-4.22667
-3.97902
-3.73764
-3.50324
-3.27643
-3.05771
-2.84752
-2.64616
-2.45386
-2.27075
-2.09688
-1.93221
-1.77664
-1.62999
-1.49205
-1.36252
-1.24111
-1.12748
-1.02125
-0.922061
-0.82952
-0.743237
-0.662829
-0.587899
-0.518098
-0.452981
-0.392357
-0.335458
-0.282901
-0.232064
-0.188019
-0.137776
-0.111057
-0.0374578
-0.0828677
-10.4013
-10.4221
-10.4438
-10.4657
-10.4874
-10.5082
-10.528
-10.5466
-10.5644
-10.5818
-10.5992
-10.6169
-10.6352
-10.6542
-10.674
-10.6943
-10.7147
-10.7348
-10.7539
-10.7714
-10.7865
-10.7986
-10.8069
-10.8107
-10.8094
-10.8026
-10.7896
-10.7701
-10.7436
-10.71
-10.6688
-10.6198
-10.5628
-10.4976
-10.424
-10.3418
-10.2508
-10.1509
-10.042
-9.92394
-9.79656
-9.65981
-9.51362
-9.35797
-9.19288
-9.0184
-8.83464
-8.64177
-8.44004
-8.22975
-8.01129
-7.78511
-7.55176
-7.31186
-7.06609
-6.81524
-6.56013
-6.30166
-6.04077
-5.77844
-5.51567
-5.25347
-4.99286
-4.73481
-4.48029
-4.23019
-3.98535
-3.74655
-3.51448
-3.28973
-3.07282
-2.86415
-2.66406
-2.47276
-2.29041
-2.11706
-1.95269
-1.7972
-1.65046
-1.51224
-1.38229
-1.26032
-1.14602
-1.03902
-0.938978
-0.845516
-0.758256
-0.676827
-0.600841
-0.529956
-0.463736
-0.401986
-0.343962
-0.290247
-0.238306
-0.193053
-0.141839
-0.113785
-0.039593
-0.0834429
-10.3955
-10.4152
-10.4354
-10.4558
-10.476
-10.4955
-10.5142
-10.5321
-10.5493
-10.5661
-10.5827
-10.5995
-10.6166
-10.6342
-10.6521
-10.6702
-10.6881
-10.7055
-10.7218
-10.7363
-10.7484
-10.7575
-10.7629
-10.764
-10.7602
-10.751
-10.7359
-10.7144
-10.6863
-10.6511
-10.6085
-10.5584
-10.5005
-10.4346
-10.3604
-10.2778
-10.1866
-10.0866
-9.97785
-9.86006
-9.73317
-9.5971
-9.45179
-9.29723
-9.13343
-8.96046
-8.77843
-8.58753
-8.38799
-8.18011
-7.96427
-7.74092
-7.5106
-7.27389
-7.03148
-6.7841
-6.53258
-6.27776
-6.02057
-5.76194
-5.50284
-5.24425
-4.98715
-4.73248
-4.48117
-4.23409
-3.99206
-3.75584
-3.5261
-3.30342
-3.08831
-2.88119
-2.68237
-2.49209
-2.31051
-2.13768
-1.97361
-1.81823
-1.67138
-1.5329
-1.40253
-1.28001
-1.16502
-1.05725
-0.956351
-0.861958
-0.773711
-0.691246
-0.614188
-0.542199
-0.474855
-0.411955
-0.352783
-0.297878
-0.244811
-0.198297
-0.146122
-0.116566
-0.0419888
-0.0835686
-10.3891
-10.4076
-10.4265
-10.4456
-10.4644
-10.4828
-10.5005
-10.5175
-10.5339
-10.55
-10.5658
-10.5815
-10.5974
-10.6134
-10.6295
-10.6455
-10.6611
-10.6759
-10.6894
-10.7011
-10.7104
-10.7167
-10.7193
-10.7178
-10.7115
-10.6999
-10.6827
-10.6593
-10.6294
-10.5927
-10.5489
-10.4977
-10.4388
-10.3721
-10.2973
-10.2143
-10.1229
-10.0229
-9.91427
-9.79679
-9.6704
-9.53502
-9.3906
-9.23713
-9.07464
-8.9032
-8.72293
-8.534
-8.33665
-8.13118
-7.91797
-7.69745
-7.47013
-7.23661
-6.99754
-6.75363
-6.50567
-6.25449
-6.00097
-5.74602
-5.49057
-5.23557
-4.98195
-4.73064
-4.48253
-4.23846
-3.99924
-3.76559
-3.53817
-3.31756
-3.10426
-2.89867
-2.70113
-2.51187
-2.33106
-2.15877
-1.995
-1.83972
-1.69278
-1.55403
-1.42324
-1.30016
-1.1845
-1.07594
-0.974173
-0.87884
-0.789591
-0.706077
-0.62793
-0.554818
-0.48633
-0.422257
-0.361913
-0.305789
-0.251575
-0.203746
-0.150615
-0.119401
-0.0446205
-0.0832776
-10.3821
-10.3996
-10.4173
-10.4351
-10.4527
-10.4699
-10.4866
-10.5027
-10.5183
-10.5335
-10.5483
-10.563
-10.5776
-10.5921
-10.6064
-10.6204
-10.6337
-10.646
-10.657
-10.666
-10.6725
-10.6761
-10.6761
-10.672
-10.6633
-10.6495
-10.6302
-10.6049
-10.5734
-10.5352
-10.49
-10.4377
-10.3779
-10.3104
-10.2351
-10.1517
-10.06
-9.96003
-9.8515
-9.73434
-9.60845
-9.47378
-9.33026
-9.17791
-9.01674
-8.84684
-8.66832
-8.48137
-8.28622
-8.08316
-7.87257
-7.65487
-7.43056
-7.20021
-6.96446
-6.72399
-6.47957
-6.232
-5.98213
-5.73083
-5.479
-5.22755
-4.97739
-4.72942
-4.48448
-4.2434
-4.00696
-3.77586
-3.55075
-3.3322
-3.1207
-2.91665
-2.72038
-2.53214
-2.35209
-2.18033
-2.01687
-1.86168
-1.71465
-1.57563
-1.44442
-1.32077
-1.20443
-1.09509
-0.992437
-0.896151
-0.805889
-0.721309
-0.642057
-0.567804
-0.498151
-0.432884
-0.371346
-0.313974
-0.258591
-0.209398
-0.15531
-0.122293
-0.0474598
-0.0826097
-10.3745
-10.391
-10.4076
-10.4242
-10.4407
-10.4568
-10.4725
-10.4877
-10.5024
-10.5166
-10.5305
-10.544
-10.5573
-10.5703
-10.5828
-10.5948
-10.606
-10.616
-10.6245
-10.6309
-10.6349
-10.6359
-10.6333
-10.6268
-10.6158
-10.5998
-10.5785
-10.5514
-10.5182
-10.4785
-10.4321
-10.3787
-10.3179
-10.2497
-10.1738
-10.09
-9.99817
-9.89812
-9.78975
-9.67292
-9.54756
-9.4136
-9.27101
-9.11978
-8.95995
-8.79159
-8.61484
-8.42987
-8.23692
-8.03627
-7.82829
-7.6134
-7.39208
-7.16488
-6.93242
-6.69537
-6.45446
-6.21046
-5.9642
-5.71651
-5.46826
-5.22033
-4.9736
-4.72891
-4.48712
-4.249
-4.01531
-3.78674
-3.56392
-3.34741
-3.13769
-2.93516
-2.74015
-2.55292
-2.37363
-2.20239
-2.03924
-1.88414
-1.73701
-1.59771
-1.46606
-1.34185
-1.22481
-1.11467
-1.01113
-0.91388
-0.82259
-0.736931
-0.656556
-0.581146
-0.510309
-0.443827
-0.381072
-0.322425
-0.26585
-0.215247
-0.160196
-0.125244
-0.0504756
-0.0816099
-10.3665
-10.382
-10.3976
-10.4131
-10.4285
-10.4436
-10.4583
-10.4725
-10.4862
-10.4995
-10.5123
-10.5247
-10.5366
-10.5481
-10.5589
-10.569
-10.5781
-10.5859
-10.592
-10.5961
-10.5976
-10.5961
-10.5912
-10.5823
-10.5691
-10.551
-10.5278
-10.4989
-10.4641
-10.423
-10.3753
-10.3207
-10.2591
-10.1902
-10.1137
-10.0296
-9.93752
-9.83746
-9.72925
-9.61278
-9.48796
-9.35473
-9.21307
-9.06298
-8.90449
-8.7377
-8.56272
-8.37973
-8.18897
-7.99073
-7.78535
-7.57325
-7.35489
-7.13082
-6.90162
-6.66795
-6.43051
-6.19005
-5.94735
-5.70322
-5.45851
-5.21405
-4.97069
-4.72926
-4.49056
-4.25535
-4.02438
-3.79831
-3.57774
-3.36324
-3.15528
-2.95424
-2.76048
-2.57423
-2.39569
-2.22496
-2.0621
-1.90708
-1.75984
-1.62026
-1.48817
-1.36337
-1.24563
-1.13468
-1.03024
-0.932013
-0.839682
-0.752927
-0.671414
-0.594828
-0.522789
-0.455071
-0.391079
-0.331132
-0.273341
-0.221285
-0.165257
-0.128256
-0.0536345
-0.0803261
-10.3579
-10.3726
-10.3872
-10.4018
-10.4162
-10.4303
-10.4439
-10.4572
-10.4699
-10.4821
-10.4938
-10.505
-10.5156
-10.5256
-10.5348
-10.543
-10.5502
-10.5558