/*--------------------------------*- C++ -*----------------------------------*\
| =========                 |                                                 |
| \\      /  F ield         | OpenFOAM: The Open Source CFD Toolbox           |
|  \\    /   O peration     | Version:  4.1                                   |
|   \\  /    A nd           | Web:      www.OpenFOAM.org                      |
|    \\/     M anipulation  |                                                 |
\*---------------------------------------------------------------------------*/
FoamFile
{
    version     2.0;
    format      ascii;
    class       surfaceScalarField;
    location    "1100";
    object      phi;
}
// * * * * * * * * * * * * * * * * * * * * * * * * * * * * * * * * * * * * * //

dimensions      [0 3 -1 0 0 0 0];

internalField   nonuniform List<scalar> 
13452
(
6.28704e-05
-2.60189e-06
6.37403e-05
-8.69978e-07
6.46286e-05
-8.88284e-07
6.41051e-05
5.23566e-07
6.28898e-05
1.21528e-06
6.15446e-05
1.34522e-06
6.02725e-05
1.27201e-06
5.9114e-05
1.15859e-06
5.80687e-05
1.04527e-06
5.71284e-05
9.4032e-07
5.62816e-05
8.46812e-07
5.55162e-05
7.65371e-07
5.48214e-05
6.94773e-07
5.41882e-05
6.33228e-07
5.3609e-05
5.79188e-07
5.30775e-05
5.31456e-07
5.25885e-05
4.89071e-07
5.21372e-05
4.51241e-07
5.17199e-05
4.17322e-07
5.13331e-05
3.86791e-07
5.09739e-05
3.59222e-07
5.06396e-05
3.34263e-07
5.0328e-05
3.11629e-07
5.00369e-05
2.9109e-07
4.97644e-05
2.72468e-07
4.95088e-05
2.55643e-07
4.92682e-05
2.40568e-07
4.9041e-05
2.2726e-07
4.8825e-05
2.15993e-07
4.86183e-05
2.06684e-07
4.84175e-05
2.00831e-07
4.82269e-05
1.90561e-07
1.79079e-07
4.80478e-05
6.30682e-05
-3.67972e-06
6.27994e-05
-6.01196e-07
6.21233e-05
-2.12207e-07
6.23359e-05
3.10954e-07
6.27935e-05
7.57652e-07
6.31929e-05
9.45846e-07
6.34611e-05
1.0038e-06
6.36058e-05
1.01393e-06
6.36526e-05
9.98456e-07
6.36274e-05
9.65572e-07
6.35508e-05
9.23345e-07
6.34383e-05
8.77867e-07
6.33009e-05
8.3221e-07
6.31464e-05
7.87665e-07
6.29808e-05
7.44881e-07
6.2808e-05
7.04229e-07
6.26312e-05
6.65863e-07
6.24526e-05
6.2979e-07
6.2274e-05
5.95946e-07
6.20966e-05
5.64236e-07
6.19212e-05
5.34555e-07
6.17487e-05
5.06793e-07
6.15795e-05
4.8085e-07
6.14139e-05
4.56638e-07
6.12523e-05
4.34091e-07
6.10948e-05
4.13172e-07
6.09415e-05
3.939e-07
6.07924e-05
3.76295e-07
6.06478e-05
3.6064e-07
6.0508e-05
3.46511e-07
6.03731e-05
3.35653e-07
6.02416e-05
3.22107e-07
3.32699e-07
6.0088e-05
6.23306e-05
-2.24888e-06
6.26619e-05
-9.32553e-07
6.281e-05
-3.6029e-07
6.30954e-05
2.55465e-08
6.34246e-05
4.28506e-07
6.37126e-05
6.57835e-07
6.39516e-05
7.64734e-07
6.41451e-05
8.20436e-07
6.42964e-05
8.47201e-07
6.44106e-05
8.51314e-07
6.4494e-05
8.39994e-07
6.4552e-05
8.1985e-07
6.45894e-05
7.94839e-07
6.461e-05
7.6708e-07
6.46169e-05
7.37932e-07
6.46128e-05
7.08361e-07
6.45996e-05
6.79003e-07
6.45792e-05
6.50251e-07
6.45528e-05
6.22347e-07
6.45216e-05
5.95442e-07
6.44865e-05
5.69629e-07
6.44483e-05
5.44962e-07
6.44077e-05
5.21472e-07
6.43652e-05
4.99182e-07
6.43211e-05
4.78121e-07
6.4276e-05
4.5833e-07
6.423e-05
4.39891e-07
6.41834e-05
4.22886e-07
6.41364e-05
4.07592e-07
6.40891e-05
3.93889e-07
6.40416e-05
3.83108e-07
6.39902e-05
3.73508e-07
3.78038e-07
6.39449e-05
6.47767e-05
-1.44247e-06
6.47349e-05
-8.90755e-07
6.47849e-05
-4.10337e-07
6.48931e-05
-8.26481e-08
6.5057e-05
2.64656e-07
6.52215e-05
4.93346e-07
6.53726e-05
6.13544e-07
6.55095e-05
6.83612e-07
6.56307e-05
7.26005e-07
6.57358e-05
7.46189e-07
6.58257e-05
7.50097e-07
6.59018e-05
7.43709e-07
6.59658e-05
7.30849e-07
6.60192e-05
7.13702e-07
6.60634e-05
6.9376e-07
6.60996e-05
6.72137e-07
6.6129e-05
6.49626e-07
6.61525e-05
6.26763e-07
6.61709e-05
6.03923e-07
6.61849e-05
5.81371e-07
6.61953e-05
5.59299e-07
6.62024e-05
5.37847e-07
6.62067e-05
5.17121e-07
6.62087e-05
4.97206e-07
6.62087e-05
4.78188e-07
6.62068e-05
4.60152e-07
6.62035e-05
4.43217e-07
6.61989e-05
4.27504e-07
6.61932e-05
4.13263e-07
6.61865e-05
4.00587e-07
6.61792e-05
3.90408e-07
6.61702e-05
3.82527e-07
3.82529e-07
6.61657e-05
6.70079e-05
-9.93575e-07
6.68589e-05
-7.41786e-07
6.68315e-05
-3.82871e-07
6.68578e-05
-1.09014e-07
6.69422e-05
1.80285e-07
6.70457e-05
3.898e-07
6.7148e-05
5.11317e-07
6.72451e-05
5.86518e-07
6.73358e-05
6.35302e-07
6.74189e-05
6.63057e-07
6.7494e-05
6.74944e-07
6.75615e-05
6.76242e-07
6.76219e-05
6.7049e-07
6.76758e-05
6.59816e-07
6.77238e-05
6.45713e-07
6.77666e-05
6.29315e-07
6.78048e-05
6.11453e-07
6.78388e-05
5.92716e-07
6.78692e-05
5.73529e-07
6.78964e-05
5.54209e-07
6.79207e-05
5.34995e-07
6.79425e-05
5.16068e-07
6.7962e-05
4.97571e-07
6.79796e-05
4.79624e-07
6.79955e-05
4.62338e-07
6.80098e-05
4.45822e-07
6.80228e-05
4.30201e-07
6.80347e-05
4.15612e-07
6.80457e-05
4.0226e-07
6.8056e-05
3.90314e-07
6.8066e-05
3.80354e-07
6.80761e-05
3.72494e-07
3.68757e-07
6.80898e-05
6.90833e-05
-6.92873e-07
6.89333e-05
-5.91807e-07
6.88863e-05
-3.35815e-07
6.88865e-05
-1.09243e-07
6.8934e-05
1.32776e-07
6.90039e-05
3.19954e-07
6.90771e-05
4.38073e-07
6.91489e-05
5.14758e-07
6.9218e-05
5.66168e-07
6.92834e-05
5.97702e-07
6.93443e-05
6.14062e-07
6.94006e-05
6.19904e-07
6.94526e-05
6.18484e-07
6.95005e-05
6.11863e-07
6.95447e-05
6.01513e-07
6.95855e-05
5.88553e-07
6.96232e-05
5.73814e-07
6.9658e-05
5.57901e-07
6.96902e-05
5.41263e-07
6.97202e-05
5.24238e-07
6.97481e-05
5.07085e-07
6.97742e-05
4.90007e-07
6.97986e-05
4.73163e-07
6.98215e-05
4.56689e-07
6.98431e-05
4.40706e-07
6.98636e-05
4.25328e-07
6.98832e-05
4.10674e-07
6.99019e-05
3.96867e-07
6.99201e-05
3.84065e-07
6.9938e-05
3.72409e-07
6.99562e-05
3.62198e-07
6.99752e-05
3.53453e-07
3.46622e-07
6.99973e-05
7.11508e-05
-4.77353e-07
7.10202e-05
-4.61202e-07
7.09675e-05
-2.83117e-07
7.09558e-05
-9.75521e-08
7.09831e-05
1.05514e-07
7.10322e-05
2.7082e-07
7.10875e-05
3.82807e-07
7.11435e-05
4.58724e-07
7.11988e-05
5.1085e-07
7.12522e-05
5.44287e-07
7.1303e-05
5.63338e-07
7.13508e-05
5.72097e-07
7.13957e-05
5.7354e-07
7.14379e-05
5.69652e-07
7.14776e-05
5.61872e-07
7.15148e-05
5.51297e-07
7.15499e-05
5.38751e-07
7.1583e-05
5.24841e-07
7.16142e-05
5.10026e-07
7.16438e-05
4.94655e-07
7.16719e-05
4.78999e-07
7.16986e-05
4.63267e-07
7.17241e-05
4.4763e-07
7.17486e-05
4.32229e-07
7.17721e-05
4.17183e-07
7.17948e-05
4.02603e-07
7.18169e-05
3.88593e-07
7.18385e-05
3.7525e-07
7.18599e-05
3.62679e-07
7.18814e-05
3.50956e-07
7.19034e-05
3.40178e-07
7.19266e-05
3.30227e-07
3.20937e-07
7.19523e-05
7.32508e-05
-3.22853e-07
7.31391e-05
-3.49566e-07
7.30844e-05
-2.28395e-07
7.30656e-05
-7.87401e-08
7.30803e-05
9.085e-08
7.31156e-05
2.35442e-07
7.31589e-05
3.39558e-07
7.32046e-05
4.13029e-07
7.32508e-05
4.64631e-07
7.32962e-05
4.98854e-07
7.334e-05
5.19542e-07
7.33819e-05
5.30272e-07
7.34217e-05
5.33735e-07
7.34595e-05
5.3182e-07
7.34954e-05
5.25924e-07
7.35296e-05
5.17115e-07
7.35622e-05
5.06201e-07
7.35932e-05
4.93789e-07
7.36229e-05
4.80341e-07
7.36514e-05
4.66212e-07
7.36787e-05
4.51678e-07
7.3705e-05
4.36954e-07
7.37304e-05
4.22213e-07
7.3755e-05
4.07595e-07
7.3779e-05
3.93218e-07
7.38024e-05
3.7918e-07
7.38255e-05
3.65566e-07
7.38483e-05
3.52447e-07
7.38711e-05
3.39876e-07
7.38942e-05
3.27864e-07
7.3918e-05
3.16379e-07
7.3943e-05
3.05222e-07
2.9403e-07
7.39699e-05
7.5393e-05
-2.13416e-07
7.5299e-05
-2.55574e-07
7.5245e-05
-1.74406e-07
7.52219e-05
-5.56001e-08
7.5228e-05
8.47916e-08
7.52534e-05
2.09989e-07
7.52878e-05
3.05135e-07
7.5326e-05
3.74842e-07
7.53657e-05
4.24947e-07
7.54054e-05
4.59124e-07
7.54443e-05
4.80691e-07
7.54818e-05
4.92728e-07
7.55179e-05
4.97643e-07
7.55525e-05
4.97204e-07
7.55857e-05
4.92748e-07
7.56175e-05
4.85306e-07
7.56481e-05
4.75665e-07
7.56774e-05
4.64426e-07
7.57057e-05
4.5205e-07
7.5733e-05
4.38894e-07
7.57595e-05
4.25235e-07
7.57851e-05
4.1129e-07
7.58101e-05
3.97233e-07
7.58345e-05
3.832e-07
7.58584e-05
3.69302e-07
7.5882e-05
3.55626e-07
7.59053e-05
3.42239e-07
7.59286e-05
3.29184e-07
7.5952e-05
3.16472e-07
7.59758e-05
3.0407e-07
7.60003e-05
2.91876e-07
7.60258e-05
2.79661e-07
2.67039e-07
7.60528e-05
7.75831e-05
-1.36898e-07
7.75059e-05
-1.78416e-07
7.74552e-05
-1.23698e-07
7.74299e-05
-3.02885e-08
7.74298e-05
8.48581e-08
7.74477e-05
1.92108e-07
7.74752e-05
2.77666e-07
7.75074e-05
3.42596e-07
7.7542e-05
3.90381e-07
7.75773e-05
4.23809e-07
7.76124e-05
4.45625e-07
7.76467e-05
4.58433e-07
7.76799e-05
4.64352e-07
7.77121e-05
4.65011e-07
7.77432e-05
4.61667e-07
7.77732e-05
4.55303e-07
7.78022e-05
4.4668e-07
7.78302e-05
4.36387e-07
7.78574e-05
4.24878e-07
7.78838e-05
4.12508e-07
7.79095e-05
3.99553e-07
7.79345e-05
3.8623e-07
7.79591e-05
3.72709e-07
7.79831e-05
3.59123e-07
7.80069e-05
3.45575e-07
7.80304e-05
3.32141e-07
7.80537e-05
3.18871e-07
7.80771e-05
3.05786e-07
7.81007e-05
2.92872e-07
7.81247e-05
2.80065e-07
7.81494e-05
2.67238e-07
7.81749e-05
2.5417e-07
2.40519e-07
7.82014e-05
7.98256e-05
-8.41807e-08
7.97641e-05
-1.16867e-07
7.97186e-05
-7.82529e-08
7.9693e-05
-4.71986e-09
7.96888e-05
8.91063e-08
7.97008e-05
1.80064e-07
7.97226e-05
2.55851e-07
7.975e-05
3.15292e-07
7.97803e-05
3.60079e-07
7.98119e-05
3.92145e-07
7.98439e-05
4.13657e-07
7.98756e-05
4.26765e-07
7.99066e-05
4.33303e-07
7.99369e-05
4.34737e-07
7.99663e-05
4.32232e-07
7.99949e-05
4.26714e-07
8.00227e-05
4.18909e-07
8.00497e-05
4.09385e-07
8.0076e-05
3.98587e-07
8.01016e-05
3.86864e-07
8.01267e-05
3.74487e-07
8.01512e-05
3.61671e-07
8.01754e-05
3.48581e-07
8.01991e-05
3.35346e-07
8.02227e-05
3.2206e-07
8.0246e-05
3.0879e-07
8.02693e-05
2.95574e-07
8.02927e-05
2.82418e-07
8.03163e-05
2.69292e-07
8.03402e-05
2.56122e-07
8.03647e-05
2.4278e-07
8.03898e-05
2.29072e-07
2.1472e-07
8.04156e-05
8.21247e-05
-4.84539e-08
8.2077e-05
-6.91589e-08
8.20381e-05
-3.93118e-08
8.20139e-05
1.94348e-08
8.20072e-05
9.58105e-08
8.20149e-05
1.72364e-07
8.20321e-05
2.38614e-07
8.20553e-05
2.92164e-07
8.20819e-05
3.33437e-07
8.21104e-05
3.63624e-07
8.21397e-05
3.84348e-07
8.21692e-05
3.97337e-07
8.21983e-05
4.04143e-07
8.2227e-05
4.06063e-07
8.22551e-05
4.04156e-07
8.22825e-05
3.9928e-07
8.23093e-05
3.92119e-07
8.23355e-05
3.83217e-07
8.23611e-05
3.73003e-07
8.23861e-05
3.61814e-07
8.24107e-05
3.49917e-07
8.24348e-05
3.3752e-07
8.24586e-05
3.24783e-07
8.24821e-05
3.1183e-07
8.25055e-05
2.98749e-07
8.25286e-05
2.85598e-07
8.25518e-05
2.72407e-07
8.25751e-05
2.59173e-07
8.25985e-05
2.45862e-07
8.26222e-05
2.32401e-07
8.26463e-05
2.18675e-07
8.26709e-05
2.04527e-07
1.8974e-07
8.26958e-05
8.4484e-05
-2.46575e-08
8.4448e-05
-3.32214e-08
8.44161e-05
-7.36183e-09
8.43946e-05
4.08846e-08
8.4387e-05
1.03445e-07
8.43917e-05
1.67644e-07
8.44054e-05
2.24957e-07
8.4425e-05
2.72518e-07
8.44485e-05
3.09951e-07
8.44743e-05
3.37856e-07
8.45012e-05
3.57384e-07
8.45287e-05
3.69884e-07
8.45562e-05
3.76642e-07
8.45835e-05
3.78781e-07
8.46104e-05
3.77249e-07
8.46368e-05
3.7283e-07
8.46628e-05
3.66159e-07
8.46883e-05
3.57748e-07
8.47133e-05
3.48005e-07
8.47378e-05
3.37256e-07
8.4762e-05
3.25758e-07
8.47858e-05
3.1371e-07
8.48093e-05
3.01268e-07
8.48326e-05
2.88549e-07
8.48557e-05
2.75635e-07
8.48787e-05
2.62581e-07
8.49017e-05
2.49409e-07
8.49248e-05
2.36116e-07
8.4948e-05
2.22668e-07
8.49714e-05
2.09001e-07
8.4995e-05
1.95021e-07
8.5019e-05
1.80608e-07
1.656e-07
8.50431e-05
8.69066e-05
-9.09613e-09
8.68803e-05
-6.93084e-09
8.68552e-05
1.77454e-08
8.68373e-05
5.88114e-08
8.683e-05
1.10759e-07
8.68329e-05
1.64676e-07
8.6844e-05
2.13924e-07
8.68608e-05
2.55676e-07
8.68816e-05
2.89134e-07
8.6905e-05
3.14484e-07
8.69299e-05
3.32496e-07
8.69556e-05
3.44194e-07
8.69816e-05
3.50624e-07
8.70076e-05
3.52742e-07
8.70335e-05
3.51382e-07
8.70591e-05
3.47248e-07
8.70843e-05
3.40924e-07
8.71092e-05
3.32884e-07
8.71337e-05
3.23514e-07
8.71578e-05
3.13122e-07
8.71816e-05
3.01953e-07
8.72051e-05
2.90197e-07
8.72284e-05
2.78005e-07
8.72514e-05
2.65486e-07
8.72744e-05
2.5272e-07
8.72972e-05
2.39755e-07
8.732e-05
2.26614e-07
8.73428e-05
2.13294e-07
8.73657e-05
1.99767e-07
8.73887e-05
1.85984e-07
8.74119e-05
1.71872e-07
8.74351e-05
1.57343e-07
1.42284e-07
8.74585e-05
8.93956e-05
8.69793e-10
8.93769e-05
1.17071e-08
8.93581e-05
3.66082e-08
8.9344e-05
7.28697e-08
8.93379e-05
1.16843e-07
8.93402e-05
1.62424e-07
8.93495e-05
2.04632e-07
8.93642e-05
2.40972e-07
8.93828e-05
2.705e-07
8.94041e-05
2.93155e-07
8.94272e-05
3.09426e-07
8.94513e-05
3.20075e-07
8.9476e-05
3.25942e-07
8.95009e-05
3.27828e-07
8.95259e-05
3.26456e-07
8.95507e-05
3.22451e-07
8.95752e-05
3.16342e-07
8.95996e-05
3.08565e-07
8.96236e-05
2.99477e-07
8.96473e-05
2.89368e-07
8.96708e-05
2.78467e-07
8.96941e-05
2.66958e-07
8.97171e-05
2.54981e-07
8.97399e-05
2.4264e-07
8.97626e-05
2.30011e-07
8.97853e-05
2.17141e-07
8.98078e-05
2.04053e-07
8.98304e-05
1.90748e-07
8.98529e-05
1.77207e-07
8.98755e-05
1.63394e-07
8.98981e-05
1.49258e-07
8.99207e-05
1.34739e-07
1.19761e-07
8.99433e-05
9.19536e-05
7.08639e-09
9.19409e-05
2.44476e-08
9.19274e-05
5.00804e-08
9.19172e-05
8.31099e-08
9.19129e-05
1.21152e-07
9.19152e-05
1.60094e-07
9.19235e-05
1.96317e-07
9.19367e-05
2.27777e-07
9.19537e-05
2.53568e-07
9.19733e-05
2.73512e-07
9.19948e-05
2.87911e-07
9.20176e-05
2.97336e-07
9.2041e-05
3.02452e-07
9.20649e-05
3.03928e-07
9.2089e-05
3.02384e-07
9.21131e-05
2.9837e-07
9.21371e-05
2.92358e-07
9.21609e-05
2.84745e-07
9.21845e-05
2.75858e-07
9.22079e-05
2.65966e-07
9.22311e-05
2.55284e-07
9.22541e-05
2.43982e-07
9.22769e-05
2.32194e-07
9.22995e-05
2.20018e-07
9.2322e-05
2.07526e-07
9.23443e-05
1.94765e-07
9.23666e-05
1.81759e-07
9.23889e-05
1.68514e-07
9.24111e-05
1.55022e-07
9.24332e-05
1.41259e-07
9.24553e-05
1.27194e-07
9.24772e-05
1.1279e-07
9.79983e-08
9.2499e-05
9.45834e-05
1.08218e-08
9.45751e-05
3.27609e-08
9.45661e-05
5.91104e-08
9.45593e-05
8.98663e-08
9.4557e-05
1.23466e-07
9.45599e-05
1.57161e-07
9.45679e-05
1.88384e-07
9.45801e-05
2.15551e-07
9.45958e-05
2.37891e-07
9.46141e-05
2.55205e-07
9.46343e-05
2.67691e-07
9.46559e-05
2.75781e-07
9.46783e-05
2.8001e-07
9.47013e-05
2.80936e-07
9.47246e-05
2.79087e-07
9.4748e-05
2.74945e-07
9.47714e-05
2.68927e-07
9.47948e-05
2.6139e-07
9.4818e-05
2.52633e-07
9.48411e-05
2.42902e-07
9.4864e-05
2.32394e-07
9.48867e-05
2.21269e-07
9.49092e-05
2.09651e-07
9.49316e-05
1.97633e-07
9.49539e-05
1.85285e-07
9.4976e-05
1.72651e-07
9.4998e-05
1.59761e-07
9.50199e-05
1.46624e-07
9.50416e-05
1.33241e-07
9.50633e-05
1.19601e-07
9.50848e-05
1.05689e-07
9.51061e-05
9.1486e-08
7.69642e-08
9.51271e-05
9.72874e-05
1.2935e-08
9.72823e-05
3.78339e-08
9.72768e-05
6.46296e-08
9.7273e-05
9.3644e-08
9.72727e-05
1.23833e-07
9.72765e-05
1.53357e-07
9.72844e-05
1.80427e-07
9.72961e-05
2.0387e-07
9.73109e-05
2.23089e-07
9.73282e-05
2.37922e-07
9.73474e-05
2.48519e-07
9.73679e-05
2.55224e-07
9.73895e-05
2.58478e-07
9.74116e-05
2.58749e-07
9.74342e-05
2.56491e-07
9.74571e-05
2.52121e-07
9.748e-05
2.4601e-07
9.75029e-05
2.38476e-07
9.75257e-05
2.29787e-07
9.75485e-05
2.20167e-07
9.75711e-05
2.09798e-07
9.75935e-05
1.98826e-07
9.76158e-05
1.87366e-07
9.76379e-05
1.75506e-07
9.76599e-05
1.63312e-07
9.76817e-05
1.50829e-07
9.77034e-05
1.38088e-07
9.77249e-05
1.25106e-07
9.77463e-05
1.11888e-07
9.77674e-05
9.84374e-08
9.77884e-05
8.47488e-08
9.7809e-05
7.08179e-08
5.66316e-08
9.78294e-05
0.000100068
1.4003e-08
0.000100065
4.06004e-08
0.000100062
6.74889e-08
0.000100061
9.50258e-08
0.000100062
1.22487e-07
0.000100067
1.48632e-07
0.000100075
1.72232e-07
0.000100087
1.92456e-07
0.000100101
2.08881e-07
0.000100117
2.2141e-07
0.000100136
2.30184e-07
0.000100155
2.35498e-07
0.000100176
2.37727e-07
0.000100198
2.37272e-07
0.00010022
2.34525e-07
0.000100242
2.29852e-07
0.000100264
2.23576e-07
0.000100287
2.15982e-07
0.000100309
2.07311e-07
0.000100332
1.97762e-07
0.000100354
1.87502e-07
0.000100376
1.76665e-07
0.000100398
1.65355e-07
0.00010042
1.53657e-07
0.000100442
1.41632e-07
0.000100463
1.29325e-07
0.000100485
1.16769e-07
0.000100506
1.03984e-07
0.000100527
9.09856e-08
0.000100547
7.77805e-08
0.000100568
6.43757e-08
0.000100588
5.07753e-08
3.69779e-08
0.000100607
0.000102928
1.44129e-08
0.000102926
4.17846e-08
0.000102926
6.84334e-08
0.000102926
9.46088e-08
0.000102929
1.19782e-07
0.000102934
1.43107e-07
0.000102943
1.63758e-07
0.000102954
1.81176e-07
0.000102968
1.95097e-07
0.000102984
2.05499e-07
0.000103001
2.12535e-07
0.00010302
2.16478e-07
0.00010304
2.1766e-07
0.000103061
2.16433e-07
0.000103083
2.13139e-07
0.000103104
2.08101e-07
0.000103126
2.01604e-07
0.000103148
1.939e-07
0.00010317
1.85203e-07
0.000103193
1.75693e-07
0.000103215
1.65519e-07
0.000103236
1.54803e-07
0.000103258
1.43642e-07
0.00010328
1.32111e-07
0.000103301
1.20271e-07
0.000103322
1.08165e-07
0.000103343
9.58279e-08
0.000103364
8.32826e-08
0.000103384
7.05483e-08
0.000103404
5.76395e-08
0.000103424
4.45691e-08
0.000103444
3.13484e-08
1.79828e-08
0.000103463
0.000105869
1.4428e-08
0.000105869
4.19485e-08
0.000105869
6.81029e-08
0.000105871
9.29704e-08
0.000105874
1.16139e-07
0.00010588
1.37031e-07
0.000105889
1.55111e-07
0.0001059
1.70038e-07
0.000105913
1.81688e-07
0.000105929
1.90112e-07
0.000105946
1.95492e-07
0.000105964
1.98093e-07
0.000105984
1.98219e-07
0.000106004
1.96187e-07
0.000106025
1.92304e-07
0.000106046
1.86853e-07
0.000106068
1.80087e-07
0.000106089
1.7223e-07
0.000106111
1.63472e-07
0.000106133
1.53973e-07
0.000106154
1.43867e-07
0.000106176
1.33262e-07
0.000106197
1.22248e-07
0.000106218
1.10893e-07
0.000106239
9.92542e-08
0.00010626
8.73739e-08
0.000106281
7.52857e-08
0.000106301
6.30166e-08
0.000106321
5.05877e-08
0.000106341
3.80185e-08
0.00010636
2.53254e-08
0.000106379
1.2525e-08
-3.73828e-10
0.000106397
0.000108894
1.42336e-08
0.000108894
4.15374e-08
0.000108895
6.70509e-08
0.000108897
9.06582e-08
0.000108901
1.12016e-07
0.000108908
1.30739e-07
0.000108916
1.46511e-07
0.000108927
1.59171e-07
0.00010894
1.68718e-07
0.000108955
1.75277e-07
0.000108971
1.79061e-07
0.000108989
1.80338e-07
0.000109008
1.794e-07
0.000109028
1.76536e-07
0.000109048
1.72024e-07
0.000109069
1.66117e-07
0.00010909
1.5904e-07
0.000109111
1.50992e-07
0.000109132
1.4214e-07
0.000109154
1.32626e-07
0.000109175
1.22569e-07
0.000109196
1.12066e-07
0.000109217
1.01197e-07
0.000109238
9.00256e-08
0.000109259
7.86023e-08
0.000109279
6.69683e-08
0.000109299
5.5157e-08
0.000109319
4.31954e-08
0.000109339
3.11075e-08
0.000109358
1.89138e-08
0.000109376
6.63446e-09
0.000109395
-5.71274e-09
-1.8116e-08
0.000109412
0.000112005
1.39692e-08
0.000112005
4.09224e-08
0.000112007
6.57741e-08
0.000112009
8.82009e-08
0.000112013
1.079e-07
0.000112019
1.24637e-07
0.000112028
1.38276e-07
0.000112038
1.48813e-07
0.00011205
1.56361e-07
0.000112064
1.61117e-07
0.00011208
1.63332e-07
0.000112097
1.63285e-07
0.000112115
1.61258e-07
0.000112134
1.57526e-07
0.000112154
1.5234e-07
0.000112174
1.45931e-07
0.000112195
1.38498e-07
0.000112216
1.30217e-07
0.000112236
1.21236e-07
0.000112257
1.11679e-07
0.000112278
1.01652e-07
0.000112299
9.12391e-08
0.00011232
8.05112e-08
0.00011234
6.95254e-08
0.000112361
5.83282e-08
0.000112381
4.69575e-08
0.0001124
3.5445e-08
0.00011242
2.38175e-08
0.000112439
1.2099e-08
0.000112457
3.11228e-10
0.000112475
-1.15254e-08
0.000112493
-2.3392e-08
-3.52763e-08
0.00011251
0.000115205
1.37531e-08
0.000115205
4.04427e-08
0.000115206
6.47518e-08
0.000115208
8.61355e-08
0.000115212
1.04319e-07
0.000115217
1.19202e-07
0.000115225
1.30815e-07
0.000115234
1.39302e-07
0.000115246
1.4489e-07
0.000115259
1.47852e-07
0.000115274
1.48482e-07
0.00011529
1.47074e-07
0.000115307
1.4391e-07
0.000115326
1.39251e-07
0.000115345
1.33332e-07
0.000115364
1.2636e-07
0.000115384
1.18516e-07
0.000115404
1.09951e-07
0.000115425
1.00797e-07
0.000115445
9.11626e-08
0.000115466
8.11373e-08
0.000115486
7.07957e-08
0.000115507
6.01988e-08
0.000115527
4.93967e-08
0.000115547
3.84301e-08
0.000115566
2.73336e-08
0.000115586
1.61359e-08
0.000115605
4.86251e-09
0.000115623
-6.46395e-09
0.000115641
-1.78221e-08
0.000115659
-2.91924e-08
0.000115676
-4.05565e-08
-5.19031e-08
0.000115693
0.000118496
1.37024e-08
0.000118496
4.04485e-08
0.000118496
6.44959e-08
0.000118497
8.50525e-08
0.0001185
1.01875e-07
0.000118504
1.15002e-07
0.00011851
1.24636e-07
0.000118518
1.31079e-07
0.000118529
1.3468e-07
0.000118541
1.35795e-07
0.000118554
1.34767e-07
0.000118569
1.31914e-07
0.000118586
1.27522e-07
0.000118603
1.21846e-07
0.000118621
1.15104e-07
0.00011864
1.07486e-07
0.00011866
9.91526e-08
0.000118679
9.02374e-08
0.000118699
8.0853e-08
0.000118719
7.1092e-08
0.00011874
6.10311e-08
0.00011876
5.07325e-08
0.00011878
4.02478e-08
0.000118799
2.96185e-08
0.000118819
1.88803e-08
0.000118838
8.06165e-09
0.000118857
-2.81145e-09
0.000118876
-1.37173e-08
0.000118894
-2.46348e-08
0.000118912
-3.55454e-08
0.000118929
-4.64305e-08
0.000118946
-5.72745e-08
-6.80668e-08
0.000118962
0.000121881
1.39547e-08
0.00012188
4.13568e-08
0.000121879
6.56198e-08
0.000121878
8.56626e-08
0.000121879
1.01296e-07
0.000121881
1.12734e-07
0.000121886
1.20374e-07
0.000121892
1.24701e-07
0.0001219
1.26205e-07
0.000121911
1.25341e-07
0.000121923
1.2251e-07
0.000121937
1.18063e-07
0.000121952
1.12297e-07
0.000121969
1.05463e-07
0.000121986
9.77676e-08
0.000122004
8.93848e-08
0.000122023
8.04562e-08
0.000122042
7.10979e-08
0.000122061
6.14042e-08
0.000122081
5.1452e-08
0.000122101
4.13028e-08
0.00012212
3.1007e-08
0.00012214
2.06049e-08
0.000122159
1.01299e-08
0.000122179
-3.90943e-10
0.000122198
-1.0934e-08
0.000122216
-2.14795e-08
0.000122235
-3.2009e-08
0.000122253
-4.25061e-08
0.00012227
-5.29544e-08
0.000122287
-6.33394e-08
0.000122303
-7.36473e-08
-8.38709e-08
0.000122319
0.000125363
1.46975e-08
0.00012536
4.3729e-08
0.000125357
6.89369e-08
0.000125354
8.88943e-08
0.000125352
1.03527e-07
0.000125351
1.13288e-07
0.000125353
1.18829e-07
0.000125356
1.2086e-07
0.000125363
1.20044e-07
0.000125371
1.16958e-07
0.000125381
1.12079e-07
0.000125394
1.058e-07
0.000125407
9.84348e-08
0.000125423
9.02356e-08
0.000125439
8.14011e-08
0.000125456
7.20886e-08
0.000125474
6.24218e-08
0.000125493
5.24975e-08
0.000125512
4.23915e-08
0.000125531
3.21629e-08
0.000125551
2.18576e-08
0.00012557
1.15117e-08
0.00012559
1.15348e-09
0.000125609
-9.19459e-09
0.000125628
-1.95141e-08
0.000125647
-2.97896e-08
0.000125666
-4.00076e-08
0.000125684
-5.01558e-08
0.000125701
-6.02223e-08
0.000125719
-7.01959e-08
0.000125735
-8.00657e-08
0.000125752
-8.98221e-08
-9.94609e-08
0.000125767
0.000128944
1.62174e-08
0.000128939
4.83982e-08
0.000128932
7.5615e-08
0.000128925
9.60396e-08
0.000128919
1.09841e-07
0.000128914
1.17832e-07
0.000128912
1.21011e-07
0.000128913
1.2039e-07
0.000128916
1.16861e-07
0.000128922
1.11151e-07
0.00012893
1.03837e-07
0.00012894
9.53643e-08
0.000128953
8.60734e-08
0.000128967
7.6219e-08
0.000128982
6.59913e-08
0.000128999
5.55306e-08
0.000129016
4.49403e-08
0.000129034
3.42951e-08
0.000129053
2.36494e-08
0.000129072
1.30417e-08
0.000129091
2.49948e-09
0.000129111
-7.95819e-09
0.00012913
-1.83175e-08
0.00012915
-2.85692e-08
0.000129169
-3.87059e-08
0.000129188
-4.87221e-08
0.000129206
-5.86125e-08
0.000129225
-6.83725e-08
0.000129242
-7.79968e-08
0.00012926
-8.74799e-08
0.000129277
-9.68163e-08
0.000129293
-1.06001e-07
-1.15035e-07
0.000129308
0.000132626
1.89924e-08
0.000132618
5.66882e-08
0.000132606
8.7422e-08
0.000132593
1.08968e-07
0.000132581
1.22001e-07
0.000132571
1.279e-07
0.000132564
1.28173e-07
0.00013256
1.24258e-07
0.00013256
1.17352e-07
0.000132562
1.08383e-07
0.000132568
9.80481e-08
0.000132577
8.68619e-08
0.000132587
7.51914e-08
0.0001326
6.3294e-08
0.000132615
5.13456e-08
0.000132631
3.94646e-08
0.000132648
2.7727e-08
0.000132666
1.61802e-08
0.000132685
4.85051e-09
0.000132705
-6.2483e-09
0.000132724
-1.71127e-08
0.000132744
-2.77437e-08
0.000132764
-3.81468e-08
0.000132783
-4.83278e-08
0.000132803
-5.82942e-08
0.000132822
-6.8052e-08
0.000132841
-7.76074e-08
0.00013286
-8.69643e-08
0.000132878
-9.61262e-08
0.000132896
-1.05095e-07
0.000132913
-1.13871e-07
0.000132929
-1.22456e-07
-1.30854e-07
0.000132945
0.000136413
2.38773e-08
0.000136399
7.08113e-08
0.00013638
1.07126e-07
0.000136358
1.30435e-07
0.000136338
1.42447e-07
0.00013632
1.45462e-07
0.000136306
1.41777e-07
0.000136297
1.33454e-07
0.000136293
1.22106e-07
0.000136292
1.08913e-07
0.000136295
9.47176e-08
0.000136302
8.01056e-08
0.000136312
6.54639e-08
0.000136324
5.10391e-08
0.000136338
3.69792e-08
0.000136355
2.33661e-08
0.000136372
1.02366e-08
0.000136391
-2.40129e-09
0.00013641
-1.45574e-08
0.00013643
-2.62521e-08
0.00013645
-3.75113e-08
0.000136471
-4.8363e-08
0.000136492
-5.8835e-08
0.000136512
-6.89541e-08
0.000136533
-7.87444e-08
0.000136553
-8.82276e-08
0.000136573
-9.74222e-08
0.000136592
-1.06344e-07
0.000136611
-1.15007e-07
0.000136629
-1.2342e-07
0.000136647
-1.31594e-07
0.000136664
-1.39535e-07
-1.47254e-07
0.000136681
0.000140307
3.24913e-08
0.000140283
9.46026e-08
0.000140251
1.39132e-07
0.000140217
1.64485e-07
0.000140185
1.74457e-07
0.000140158
1.7288e-07
0.000140136
1.63309e-07
0.000140121
1.48736e-07
0.000140112
1.31317e-07
0.000140108
1.1252e-07
0.00014011
9.33344e-08
0.000140115
7.43932e-08
0.000140125
5.60711e-08
0.000140137
3.85696e-08
0.000140152
2.19795e-08
0.000140169
6.32002e-09
0.000140188
-8.43184e-09
0.000140208
-2.23248e-08
0.000140229
-3.54186e-08
0.00014025
-4.77786e-08
0.000140272
-5.9469e-08
0.000140294
-7.05515e-08
0.000140317
-8.10823e-08
0.000140339
-9.1113e-08
0.000140361
-1.00688e-07
0.000140382
-1.09849e-07
0.000140404
-1.18628e-07
0.000140424
-1.27055e-07
0.000140444
-1.35154e-07
0.000140464
-1.42947e-07
0.000140483
-1.50451e-07
0.000140501
-1.57681e-07
-1.64655e-07
0.000140518
0.000144309
4.80841e-08
0.000144269
1.3487e-07
0.000144217
1.90439e-07
0.000144165
2.16887e-07
0.000144117
2.22127e-07
0.000144078
2.12562e-07
0.000144047
1.93786e-07
0.000144026
1.70107e-07
0.000144013
1.44298e-07
0.000144007
1.18083e-07
0.000144008
9.25261e-08
0.000144014
6.82279e-08
0.000144025
4.54741e-08
0.000144039
2.43582e-08
0.000144056
4.86139e-09
0.000144076
-1.30974e-08
0.000144097
-2.96326e-08
0.000144119
-4.48709e-08
0.000144143
-5.89408e-08
0.000144167
-7.19641e-08
0.000144192
-8.40544e-08
0.000144216
-9.53137e-08
0.000144241
-1.05833e-07
0.000144266
-1.15693e-07
0.00014429
-1.24964e-07
0.000144314
-1.33704e-07
0.000144337
-1.41968e-07
0.00014436
-1.49798e-07
0.000144382
-1.57232e-07
0.000144403
-1.64303e-07
0.000144424
-1.71038e-07
0.000144444
-1.7746e-07
-1.83593e-07
0.000144463
0.000148418
7.7592e-08
0.000148349
2.03824e-07
0.000148268
2.71845e-07
0.00014819
2.95267e-07
0.000148122
2.89801e-07
0.000148069
2.66047e-07
0.00014803
2.3278e-07
0.000148004
1.95957e-07
0.000147989
1.58803e-07
0.000147984
1.23054e-07
0.000147987
8.96538e-08
0.000147996
5.90058e-08
0.000148011
3.11718e-08
0.000148029
6.0367e-09
0.00014805
-1.65971e-08
0.000148074
-3.69624e-08
0.0001481
-5.52999e-08
0.000148127
-7.18414e-08
0.000148155
-8.6801e-08
0.000148183
-1.00372e-07
0.000148212
-1.12725e-07
0.000148241
-1.24011e-07
0.000148269
-1.34361e-07
0.000148297
-1.43886e-07
0.000148325
-1.52686e-07
0.000148352
-1.60843e-07
0.000148379
-1.68427e-07
0.000148404
-1.755e-07
0.000148429
-1.82114e-07
0.000148453
-1.88311e-07
0.000148476
-1.9413e-07
0.000148498
-1.99602e-07
-2.04759e-07
0.00014852
0.000152631
1.3609e-07
0.000152511
3.23587e-07
0.000152383
3.99235e-07
0.00015227
4.08258e-07
0.00015218
3.80282e-07
0.000152114
3.32072e-07
0.00015207
2.76816e-07
0.000152044
2.21885e-07
0.000152033
1.70167e-07
0.000152033
1.22833e-07
0.000152042
8.03438e-08
0.000152059
4.26421e-08
0.00015208
9.37957e-09
0.000152106
-1.98903e-08
0.000152135
-4.56233e-08
0.000152167
-6.82566e-08
0.000152199
-8.81925e-08
0.000152233
-1.05792e-07
0.000152268
-1.21372e-07
0.000152303
-1.35207e-07
0.000152338
-1.47535e-07
0.000152372
-1.5856e-07
0.000152406
-1.68454e-07
0.00015244
-1.77367e-07
0.000152473
-1.85424e-07
0.000152504
-1.92734e-07
0.000152535
-1.99386e-07
0.000152565
-2.05459e-07
0.000152594
-2.11018e-07
0.000152622
-2.16118e-07
0.000152649
-2.20807e-07
0.000152674
-2.25126e-07
-2.29111e-07
0.000152699
0.000156933
2.54126e-07
0.000156722
5.34896e-07
0.000156526
5.95128e-07
0.000156371
5.63196e-07
0.00015626
4.91348e-07
0.000156189
4.03388e-07
0.000156149
3.17025e-07
0.000156132
2.3904e-07
0.000156132
1.70061e-07
0.000156145
1.09734e-07
0.000156168
5.75727e-08
0.000156197
1.27341e-08
0.000156233
-2.5753e-08
0.000156271
-5.87869e-08
0.000156313
-8.71516e-08
0.000156356
-1.1153e-07
0.000156401
-1.32516e-07
0.000156445
-1.50617e-07
0.00015649
-1.66266e-07
0.000156535
-1.79827e-07
0.000156579
-1.91607e-07
0.000156622
-2.01866e-07
0.000156665
-2.10824e-07
0.000156706
-2.18664e-07
0.000156746
-2.25542e-07
0.000156785
-2.31588e-07
0.000156822
-2.36914e-07
0.000156859
-2.41612e-07
0.000156893
-2.45762e-07
0.000156927
-2.4943e-07
0.000156959
-2.52675e-07
0.000156989
-2.55543e-07
-2.58083e-07
0.000157018
0.00016129
5.0225e-07
0.000160918
9.06962e-07
0.00016063
8.83605e-07
0.000160432
7.60783e-07
0.000160312
6.111e-07
0.000160253
4.62953e-07
0.000160234
3.36338e-07
0.000160241
2.31771e-07
0.000160267
1.44144e-07
0.000160306
7.05292e-08
0.000160354
9.12356e-09
0.000160409
-4.20086e-08
0.000160468
-8.46719e-08
0.00016053
-1.20326e-07
0.000160593
-1.50135e-07
0.000160656
-1.75067e-07
0.00016072
-1.95931e-07
0.000160782
-2.13401e-07
0.000160844
-2.28032e-07
0.000160905
-2.40284e-07
0.000160963
-2.50537e-07
0.000161021
-2.59109e-07
0.000161076
-2.66261e-07
0.00016113
-2.72212e-07
0.000161181
-2.77144e-07
0.000161231
-2.81209e-07
0.000161279
-2.84534e-07
0.000161324
-2.87224e-07
0.000161368
-2.89368e-07
0.000161409
-2.9104e-07
0.000161449
-2.92301e-07
0.000161487
-2.93202e-07
-2.93791e-07
0.000161522
0.000165509
1.14674e-06
0.000164895
1.52074e-06
0.000164546
1.23313e-06
0.000164348
9.58429e-07
0.000164265
6.94153e-07
0.000164259
4.6948e-07
0.000164294
3.00605e-07
0.000164355
1.70972e-07
0.000164433
6.63571e-08
0.000164522
-1.86693e-08
0.000164618
-8.7197e-08
0.000164719
-1.42355e-07
0.000164821
-1.8685e-07
0.000164923
-2.22731e-07
0.000165025
-2.51575e-07
0.000165124
-2.74674e-07
0.000165222
-2.93094e-07
0.000165316
-3.07698e-07
0.000165407
-3.19183e-07
0.000165495
-3.28112e-07
0.000165579
-3.34943e-07
0.00016566
-3.40049e-07
0.000165738
-3.43733e-07
0.000165812
-3.46246e-07
0.000165882
-3.47789e-07
0.00016595
-3.48531e-07
0.000166014
-3.48609e-07
0.000166075