/*--------------------------------*- C++ -*----------------------------------*\
| =========                 |                                                 |
| \\      /  F ield         | OpenFOAM: The Open Source CFD Toolbox           |
|  \\    /   O peration     | Version:  4.1                                   |
|   \\  /    A nd           | Web:      www.OpenFOAM.org                      |
|    \\/     M anipulation  |                                                 |
\*---------------------------------------------------------------------------*/
FoamFile
{
    version     2.0;
    format      ascii;
    class       volVectorField;
    location    "1100";
    object      U;
}
// * * * * * * * * * * * * * * * * * * * * * * * * * * * * * * * * * * * * * //

dimensions      [0 1 -1 0 0 0 0];

internalField   nonuniform List<vector> 
6820
(
(7.12051 -2.89958 0)
(7.72183 -2.2784 0)
(7.93531 -1.28315 0)
(7.87961 -0.658565 0)
(7.73232 -0.320701 0)
(7.56973 -0.148361 0)
(7.41011 -0.0616842 0)
(7.26102 -0.017657 0)
(7.12628 0.00481337 0)
(7.00568 0.0160261 0)
(6.89736 0.0212389 0)
(6.79957 0.0232364 0)
(6.71096 0.0235133 0)
(6.63036 0.0228808 0)
(6.55677 0.0217881 0)
(6.48934 0.0204893 0)
(6.42737 0.0191275 0)
(6.37026 0.017782 0)
(6.31751 0.0164951 0)
(6.26866 0.0152875 0)
(6.22333 0.0141679 0)
(6.18119 0.0131382 0)
(6.14194 0.0121965 0)
(6.1053 0.0113395 0)
(6.07104 0.0105641 0)
(6.03893 0.00986807 0)
(6.00875 0.00925285 0)
(5.98028 0.00872176 0)
(5.9533 0.0082995 0)
(5.92741 0.0079774 0)
(5.90266 0.00791772 0)
(5.87659 0.0080105 0)
(5.85645 0.00690023 0)
(7.59884 0.654127 0)
(7.43304 0.77761 0)
(7.36112 0.527756 0)
(7.34933 0.342769 0)
(7.39535 0.234375 0)
(7.45299 0.166654 0)
(7.49513 0.123346 0)
(7.51886 0.0959955 0)
(7.52909 0.0783843 0)
(7.52978 0.066499 0)
(7.52339 0.0581221 0)
(7.51187 0.0520215 0)
(7.49682 0.0474343 0)
(7.47936 0.0438619 0)
(7.46029 0.0409833 0)
(7.44017 0.0385939 0)
(7.41942 0.0365599 0)
(7.39834 0.0347906 0)
(7.37717 0.033224 0)
(7.35607 0.0318171 0)
(7.33518 0.0305398 0)
(7.31458 0.029371 0)
(7.29434 0.0282959 0)
(7.27452 0.0273045 0)
(7.25514 0.0263915 0)
(7.23624 0.0255557 0)
(7.21783 0.0248023 0)
(7.19989 0.0241417 0)
(7.18248 0.0236093 0)
(7.16546 0.0232174 0)
(7.14925 0.023206 0)
(7.13285 0.0232241 0)
(7.12006 0.0259645 0)
(7.25567 -0.0497305 0)
(7.16457 -0.0746216 0)
(7.20132 -0.0871775 0)
(7.24037 -0.057187 0)
(7.27477 -0.0216434 0)
(7.31088 0.0019593 0)
(7.34256 0.0166242 0)
(7.36741 0.0264407 0)
(7.38684 0.0329437 0)
(7.40194 0.0369136 0)
(7.41321 0.0391176 0)
(7.42121 0.040187 0)
(7.42657 0.0405286 0)
(7.4298 0.0403901 0)
(7.43131 0.0399363 0)
(7.43141 0.0392823 0)
(7.43037 0.0385067 0)
(7.42839 0.0376613 0)
(7.42566 0.0367809 0)
(7.42232 0.0358894 0)
(7.41848 0.0350034 0)
(7.41424 0.0341344 0)
(7.40969 0.0332913 0)
(7.40488 0.0324811 0)
(7.39988 0.031711 0)
(7.39473 0.0309892 0)
(7.38946 0.0303283 0)
(7.38411 0.0297429 0)
(7.37869 0.0292718 0)
(7.37321 0.0289299 0)
(7.3678 0.0288981 0)
(7.36223 0.0290279 0)
(7.35757 0.0304558 0)
(7.29108 -0.091508 0)
(7.22275 -0.0639329 0)
(7.23474 -0.0294731 0)
(7.25082 -0.00392925 0)
(7.2644 0.0156009 0)
(7.28272 0.0269923 0)
(7.30139 0.0329065 0)
(7.31764 0.0363611 0)
(7.3319 0.0384829 0)
(7.34452 0.0396048 0)
(7.35544 0.0400324 0)
(7.36469 0.0400418 0)
(7.37248 0.039797 0)
(7.379 0.0393826 0)
(7.38442 0.0388535 0)
(7.38889 0.0382509 0)
(7.39253 0.0376034 0)
(7.39546 0.0369302 0)
(7.39778 0.0362444 0)
(7.39957 0.035556 0)
(7.40092 0.0348725 0)
(7.40188 0.0342002 0)
(7.4025 0.0335446 0)
(7.40284 0.0329114 0)
(7.40293 0.0323076 0)
(7.40281 0.0317416 0)
(7.40251 0.0312266 0)
(7.40204 0.0307793 0)
(7.40145 0.030433 0)
(7.40075 0.0302128 0)
(7.40004 0.0302312 0)
(7.39929 0.0304304 0)
(7.39897 0.0312933 0)
(7.31214 -0.0522565 0)
(7.26645 -0.0334736 0)
(7.26326 -0.0148424 0)
(7.26623 -0.00264985 0)
(7.27139 0.0101297 0)
(7.28196 0.019566 0)
(7.29393 0.0252587 0)
(7.3049 0.0290465 0)
(7.31503 0.0317843 0)
(7.32449 0.0336482 0)
(7.33312 0.0348199 0)
(7.34087 0.0355128 0)
(7.3478 0.0358727 0)
(7.35399 0.0359853 0)
(7.35952 0.0359119 0)
(7.36444 0.0357014 0)
(7.36883 0.0353911 0)
(7.37274 0.0350081 0)
(7.37623 0.0345729 0)
(7.37935 0.0341013 0)
(7.38213 0.0336062 0)
(7.38463 0.0330981 0)
(7.38686 0.0325862 0)
(7.38887 0.0320793 0)
(7.39067 0.0315865 0)
(7.3923 0.0311184 0)
(7.39378 0.0306887 0)
(7.39513 0.0303141 0)
(7.39637 0.0300213 0)
(7.39754 0.0298339 0)
(7.39872 0.0298136 0)
(7.39994 0.0299409 0)
(7.40145 0.0303896 0)
(7.32016 -0.0320514 0)
(7.28758 -0.0252463 0)
(7.28069 -0.0140969 0)
(7.27975 -0.00455765 0)
(7.28192 0.00650093 0)
(7.28854 0.0153373 0)
(7.29664 0.0211163 0)
(7.30442 0.0251335 0)
(7.31183 0.0280987 0)
(7.31895 0.0301939 0)
(7.32565 0.0315968 0)
(7.33185 0.032508 0)
(7.33757 0.0330691 0)
(7.34284 0.0333672 0)
(7.3477 0.0334655 0)
(7.35218 0.0334134 0)
(7.35632 0.0332488 0)
(7.36014 0.0329995 0)
(7.36368 0.0326868 0)
(7.36696 0.0323274 0)
(7.37001 0.0319347 0)
(7.37285 0.0315198 0)
(7.37551 0.0310926 0)
(7.37801 0.030662 0)
(7.38036 0.0302375 0)
(7.38258 0.0298292 0)
(7.38469 0.0294494 0)
(7.38671 0.0291123 0)
(7.38867 0.028837 0)
(7.3906 0.0286405 0)
(7.39256 0.0285525 0)
(7.39462 0.0285605 0)
(7.3969 0.0287106 0)
(7.32441 -0.0221713 0)
(7.30054 -0.0208448 0)
(7.2931 -0.0128348 0)
(7.29071 -0.00453535 0)
(7.29137 0.00495555 0)
(7.29565 0.0128529 0)
(7.3014 0.0183637 0)
(7.30722 0.0223251 0)
(7.31294 0.0252845 0)
(7.31855 0.0274269 0)
(7.32392 0.0289195 0)
(7.32899 0.029938 0)
(7.33375 0.0306097 0)
(7.33822 0.0310177 0)
(7.34242 0.0312227 0)
(7.34637 0.0312721 0)
(7.35008 0.0312023 0)
(7.35357 0.0310408 0)
(7.35687 0.0308087 0)
(7.35999 0.0305227 0)
(7.36295 0.0301964 0)
(7.36576 0.0298411 0)
(7.36844 0.0294665 0)
(7.371 0.0290817 0)
(7.37346 0.0286956 0)
(7.37584 0.0283173 0)
(7.37814 0.0279571 0)
(7.38039 0.0276257 0)
(7.38261 0.0273354 0)
(7.38483 0.0270952 0)
(7.38711 0.026915 0)
(7.38949 0.026779 0)
(7.39206 0.0266787 0)
(7.32735 -0.0153979 0)
(7.30976 -0.0162705 0)
(7.30244 -0.0106194 0)
(7.29932 -0.0037868 0)
(7.29908 0.00415924 0)
(7.30187 0.0110819 0)
(7.30609 0.0162167 0)
(7.31062 0.020039 0)
(7.31523 0.0229396 0)
(7.31983 0.0250853 0)
(7.32431 0.0266254 0)
(7.32859 0.0277101 0)
(7.33267 0.028453 0)
(7.33654 0.0289325 0)
(7.34023 0.0292069 0)
(7.34373 0.029322 0)
(7.34706 0.0293131 0)
(7.35023 0.0292072 0)
(7.35326 0.0290253 0)
(7.35616 0.0287842 0)
(7.35894 0.0284973 0)
(7.36162 0.028176 0)
(7.3642 0.0278299 0)
(7.36669 0.0274676 0)
(7.36912 0.0270973 0)
(7.37149 0.0267266 0)
(7.37381 0.0263635 0)
(7.3761 0.0260152 0)
(7.37839 0.0256881 0)
(7.38071 0.0253846 0)
(7.38308 0.0251024 0)
(7.38555 0.024822 0)
(7.38818 0.0245153 0)
(7.32939 -0.0103228 0)
(7.31652 -0.0120775 0)
(7.30969 -0.00829758 0)
(7.30624 -0.00285189 0)
(7.30542 0.00374787 0)
(7.30719 0.00977279 0)
(7.31032 0.014493 0)
(7.31393 0.0181287 0)
(7.31775 0.0209367 0)
(7.32163 0.0230543 0)
(7.32546 0.0246097 0)
(7.32918 0.0257303 0)
(7.33276 0.0265168 0)
(7.33619 0.0270422 0)
(7.33948 0.0273622 0)
(7.34264 0.0275206 0)
(7.34566 0.0275516 0)
(7.34857 0.0274817 0)
(7.35136 0.0273315 0)
(7.35406 0.0271178 0)
(7.35667 0.0268539 0)
(7.3592 0.0265508 0)
(7.36165 0.0262179 0)
(7.36405 0.0258631 0)
(7.3664 0.0254936 0)
(7.3687 0.0251159 0)
(7.37098 0.0247352 0)
(7.37325 0.0243559 0)
(7.37553 0.0239797 0)
(7.37784 0.0236042 0)
(7.3802 0.0232205 0)
(7.38266 0.0228074 0)
(7.38523 0.0223325 0)
(7.33074 -0.00670188 0)
(7.32148 -0.00859968 0)
(7.31542 -0.00610304 0)
(7.31195 -0.00180931 0)
(7.31077 0.00363639 0)
(7.3118 0.00883502 0)
(7.31411 0.0131128 0)
(7.31701 0.0165182 0)
(7.32021 0.0191992 0)
(7.32353 0.0212584 0)
(7.32687 0.0228009 0)
(7.33016 0.023933 0)
(7.33335 0.024742 0)
(7.33645 0.025295 0)
(7.33943 0.025644 0)
(7.34231 0.0258307 0)
(7.3451 0.0258879 0)
(7.34779 0.0258411 0)
(7.35039 0.0257107 0)
(7.35292 0.0255131 0)
(7.35538 0.0252612 0)
(7.35777 0.0249659 0)
(7.36011 0.0246359 0)
(7.3624 0.0242787 0)
(7.36466 0.0239003 0)
(7.36689 0.0235057 0)
(7.36911 0.0230984 0)
(7.37132 0.02268 0)
(7.37355 0.0222493 0)
(7.37581 0.0218005 0)
(7.37812 0.021322 0)
(7.3805 0.020793 0)
(7.38297 0.0201828 0)
(7.33161 -0.00420194 0)
(7.32508 -0.00581031 0)
(7.31996 -0.00410064 0)
(7.31671 -0.000716587 0)
(7.31534 0.00374709 0)
(7.31583 0.00819029 0)
(7.31753 0.0120131 0)
(7.31985 0.0151541 0)
(7.32254 0.0176778 0)
(7.32541 0.0196516 0)
(7.32835 0.0211566 0)
(7.33128 0.0222788 0)
(7.33417 0.0230927 0)
(7.33698 0.023658 0)
(7.33973 0.0240231 0)
(7.34239 0.0242265 0)
(7.34497 0.0242993 0)
(7.34749 0.0242663 0)
(7.34993 0.024147 0)
(7.35231 0.0239574 0)
(7.35464 0.0237099 0)
(7.35692 0.0234151 0)
(7.35915 0.023081 0)
(7.36135 0.0227145 0)
(7.36352 0.0223207 0)
(7.36567 0.0219033 0)
(7.36782 0.0214642 0)
(7.36997 0.0210032 0)
(7.37213 0.020517 0)
(7.37432 0.0199984 0)
(7.37655 0.019435 0)
(7.37884 0.0188079 0)
(7.38119 0.0180904 0)
(7.33217 -0.00250023 0)
(7.32765 -0.0036226 0)
(7.32352 -0.0023467 0)
(7.32064 0.00035092 0)
(7.31925 0.00400068 0)
(7.31938 0.00776898 0)
(7.3206 0.0111425 0)
(7.32247 0.0139982 0)
(7.32473 0.0163408 0)
(7.32722 0.0182058 0)
(7.32982 0.0196513 0)
(7.33245 0.0207444 0)
(7.33507 0.021547 0)
(7.33765 0.0221113 0)
(7.34019 0.0224807 0)
(7.34267 0.0226908 0)
(7.34509 0.0227707 0)
(7.34745 0.0227436 0)
(7.34976 0.0226285 0)
(7.35202 0.0224405 0)
(7.35423 0.0221917 0)
(7.3564 0.0218918 0)
(7.35854 0.0215487 0)
(7.36065 0.0211682 0)
(7.36274 0.0207548 0)
(7.36482 0.020311 0)
(7.36689 0.0198378 0)
(7.36897 0.0193335 0)
(7.37106 0.0187941 0)
(7.37317 0.0182116 0)
(7.37531 0.0175745 0)
(7.37749 0.0168662 0)
(7.37971 0.0160649 0)
(7.33251 -0.00135798 0)
(7.32945 -0.0019526 0)
(7.32626 -0.000878185 0)
(7.32385 0.00132702 0)
(7.32255 0.00432525 0)
(7.32248 0.00750825 0)
(7.32335 0.0104553 0)
(7.32485 0.0130183 0)
(7.32676 0.0151636 0)
(7.32892 0.016901 0)
(7.33123 0.018268 0)
(7.3336 0.0193148 0)
(7.33599 0.0200912 0)
(7.33838 0.0206418 0)
(7.34073 0.0210048 0)
(7.34304 0.0212125 0)
(7.34532 0.0212916 0)
(7.34755 0.0212638 0)
(7.34974 0.0211469 0)
(7.35189 0.0209552 0)
(7.354 0.0207002 0)
(7.35608 0.0203912 0)
(7.35814 0.0200352 0)
(7.36017 0.0196376 0)
(7.36218 0.019202 0)
(7.36419 0.0187302 0)
(7.36619 0.0182224 0)
(7.36819 0.0176763 0)
(7.3702 0.0170875 0)
(7.37223 0.0164484 0)
(7.37428 0.0157486 0)
(7.37635 0.0149745 0)
(7.37844 0.0141086 0)
(7.33272 -0.00060457 0)
(7.33069 -0.000714748 0)
(7.32832 0.000298212 0)
(7.3264 0.002166 0)
(7.3253 0.00465968 0)
(7.32514 0.0073504 0)
(7.32578 0.00990761 0)
(7.327 0.0121834 0)
(7.32862 0.0141237 0)
(7.33051 0.01572 0)
(7.33256 0.0169931 0)
(7.33471 0.0179786 0)
(7.3369 0.0187155 0)
(7.3391 0.0192408 0)
(7.34129 0.0195875 0)
(7.34346 0.0197843 0)
(7.34561 0.0198553 0)
(7.34772 0.0198205 0)
(7.3498 0.0196965 0)
(7.35185 0.0194966 0)
(7.35388 0.0192316 0)
(7.35587 0.0189099 0)
(7.35785 0.0185383 0)
(7.3598 0.0181214 0)
(7.36174 0.0176621 0)
(7.36367 0.017162 0)
(7.3656 0.0166205 0)
(7.36753 0.0160353 0)
(7.36946 0.0154019 0)
(7.3714 0.0147137 0)
(7.37336 0.0139617 0)
(7.37532 0.0131351 0)
(7.37729 0.0122204 0)
(7.33284 -0.000117402 0)
(7.33153 0.000175208 0)
(7.32984 0.00119996 0)
(7.3284 0.00284373 0)
(7.32753 0.00495671 0)
(7.32738 0.00724469 0)
(7.32788 0.00945746 0)
(7.3289 0.0114622 0)
(7.33029 0.0131982 0)
(7.33195 0.014646 0)
(7.33379 0.015814 0)
(7.33574 0.0167262 0)
(7.33775 0.0174121 0)
(7.33979 0.0179017 0)
(7.34183 0.018223 0)
(7.34387 0.018401 0)
(7.3459 0.0184572 0)
(7.34791 0.0184098 0)
(7.34989 0.0182737 0)
(7.35185 0.0180615 0)
(7.35379 0.017783 0)
(7.35571 0.0174461 0)
(7.3576 0.0170567 0)
(7.35949 0.0166191 0)
(7.36136 0.0161358 0)
(7.36322 0.0156078 0)
(7.36507 0.0150344 0)
(7.36693 0.0144134 0)
(7.36878 0.0137408 0)
(7.37063 0.0130107 0)
(7.37249 0.0122162 0)
(7.37435 0.0113485 0)
(7.37621 0.0103975 0)
(7.33292 0.000190332 0)
(7.33209 0.000793858 0)
(7.33093 0.00185915 0)
(7.32991 0.00335509 0)
(7.32929 0.00518489 0)
(7.32921 0.00715016 0)
(7.32965 0.00906703 0)
(7.33053 0.0108245 0)
(7.33176 0.0123641 0)
(7.33323 0.0136618 0)
(7.33489 0.0147181 0)
(7.33666 0.015548 0)
(7.33851 0.0161735 0)
(7.34041 0.0166186 0)
(7.34232 0.0169064 0)
(7.34425 0.0170586 0)
(7.34616 0.0170939 0)
(7.34807 0.0170285 0)
(7.34996 0.0168762 0)
(7.35184 0.016648 0)
(7.3537 0.0163531 0)
(7.35554 0.0159987 0)
(7.35737 0.0155901 0)
(7.35918 0.0151311 0)
(7.36098 0.0146238 0)
(7.36277 0.0140691 0)
(7.36455 0.0134663 0)
(7.36633 0.0128133 0)
(7.3681 0.0121067 0)
(7.36988 0.0113418 0)
(7.37164 0.0105131 0)
(7.3734 0.009614 0)
(7.37515 0.00863696 0)
(7.33296 0.000378739 0)
(7.33245 0.00120661 0)
(7.33171 0.00231454 0)
(7.33104 0.00370951 0)
(7.33065 0.00532824 0)
(7.33067 0.00703758 0)
(7.3311 0.00870517 0)
(7.3319 0.0102427 0)
(7.33299 0.0115991 0)
(7.33432 0.0127502 0)
(7.33583 0.0136922 0)
(7.33746 0.0144343 0)
(7.33917 0.0149926 0)
(7.34094 0.0153859 0)
(7.34274 0.0156336 0)
(7.34455 0.0157537 0)
(7.34637 0.0157627 0)
(7.34818 0.0156748 0)
(7.34999 0.0155022 0)
(7.35179 0.0152549 0)
(7.35357 0.0149413 0)
(7.35534 0.0145676 0)
(7.35709 0.0141387 0)
(7.35884 0.0136581 0)
(7.36057 0.0131275 0)
(7.36229 0.0125477 0)
(7.364 0.0119182 0)
(7.3657 0.0112371 0)
(7.3674 0.0105018 0)
(7.36909 0.00970854 0)
(7.37076 0.00885315 0)
(7.37243 0.00793078 0)
(7.37407 0.006936 0)
(7.33298 0.000488725 0)
(7.33269 0.00146698 0)
(7.33224 0.00260596 0)
(7.33185 0.00392592 0)
(7.33167 0.00538387 0)
(7.33179 0.0068897 0)
(7.33224 0.00834911 0)
(7.33298 0.00969427 0)
(7.33399 0.0108833 0)
(7.33521 0.0118949 0)
(7.3366 0.0127237 0)
(7.3381 0.0133754 0)
(7.3397 0.0138619 0)
(7.34135 0.0141982 0)
(7.34304 0.0144002 0)
(7.34475 0.0144831 0)
(7.34648 0.0144612 0)
(7.34821 0.0143468 0)
(7.34994 0.0141506 0)
(7.35166 0.0138816 0)
(7.35336 0.0135472 0)
(7.35506 0.013153 0)
(7.35675 0.0127033 0)
(7.35843 0.0122012 0)
(7.36009 0.0116484 0)
(7.36174 0.0110455 0)
(7.36338 0.0103921 0)
(7.36501 0.00968693 0)
(7.36663 0.0089278 0)
(7.36824 0.00811204 0)
(7.36983 0.00723652 0)
(7.3714 0.00629783 0)
(7.37295 0.00529212 0)
(7.33299 0.000547817 0)
(7.33284 0.00161745 0)
(7.33261 0.00277076 0)
(7.33242 0.00402822 0)
(7.3324 0.00535874 0)
(7.33261 0.00670001 0)
(7.33309 0.00798499 0)
(7.33381 0.00916284 0)
(7.33476 0.0102009 0)
(7.33589 0.011082 0)
(7.33717 0.011801 0)
(7.33858 0.0123621 0)
(7.34006 0.0127744 0)
(7.34162 0.0130501 0)
(7.34321 0.0132024 0)
(7.34484 0.0132442 0)
(7.34648 0.0131875 0)
(7.34812 0.0130433 0)
(7.34977 0.0128208 0)
(7.35142 0.0125279 0)
(7.35306 0.0121712 0)
(7.35469 0.0117556 0)
(7.35631 0.011285 0)
(7.35792 0.010762 0)
(7.35952 0.0101882 0)
(7.3611 0.00956437 0)
(7.36267 0.00889014 0)
(7.36423 0.00816463 0)
(7.36577 0.00738632 0)
(7.3673 0.0065533 0)
(7.3688 0.0056634 0)
(7.37028 0.00471427 0)
(7.37174 0.00370328 0)
(7.333 0.000574457 0)
(7.33294 0.00169109 0)
(7.33284 0.00284206 0)
(7.3328 0.0040419 0)
(7.3329 0.00526626 0)
(7.33318 0.00647071 0)
(7.33368 0.00760741 0)
(7.33439 0.008639 0)
(7.33528 0.00954114 0)
(7.33635 0.010301 0)
(7.33755 0.010915 0)
(7.33886 0.0113868 0)
(7.34026 0.0117241 0)
(7.34172 0.0119371 0)
(7.34323 0.0120368 0)
(7.34477 0.0120344 0)
(7.34633 0.0119402 0)
(7.3479 0.0117635 0)
(7.34948 0.0115125 0)
(7.35105 0.0111941 0)
(7.35262 0.0108138 0)
(7.35419 0.0103763 0)
(7.35574 0.00988487 0)
(7.35728 0.00934184 0)
(7.35881 0.00874868 0)
(7.36033 0.00810607 0)
(7.36183 0.00741397 0)
(7.36332 0.00667181 0)
(7.36478 0.00587859 0)
(7.36623 0.00503305 0)
(7.36766 0.00413377 0)
(7.36906 0.00317925 0)
(7.37043 0.00216774 0)
(7.333 0.00058107 0)
(7.33299 0.00171346 0)
(7.33299 0.00284844 0)
(7.33304 0.00399208 0)
(7.33321 0.00512366 0)
(7.33354 0.00621044 0)
(7.33405 0.00721817 0)
(7.33473 0.00812002 0)
(7.33559 0.00889879 0)
(7.33659 0.00954591 0)
(7.33772 0.0100599 0)
(7.33895 0.0104446 0)
(7.34027 0.0107069 0)
(7.34164 0.010856 0)
(7.34307 0.0109013 0)
(7.34453 0.0108524 0)
(7.34601 0.0107183 0)
(7.34751 0.0105071 0)
(7.34902 0.0102259 0)
(7.35052 0.00988059 0)
(7.35203 0.00947616 0)
(7.35352 0.00901649 0)
(7.35501 0.00850455 0)
(7.35649 0.00794242 0)
(7.35796 0.00733146 0)
(7.35941 0.00667234 0)
(7.36084 0.00596523 0)
(7.36225 0.00520983 0)
(7.36365 0.00440558 0)
(7.36502 0.00355173 0)
(7.36637 0.00264746 0)
(7.36769 0.00169189 0)
(7.36898 0.000683905 0)
(7.333 0.000576219 0)
(7.33302 0.00170452 0)
(7.33306 0.00281435 0)
(7.33316 0.00390255 0)
(7.33337 0.0049502 0)
(7.33372 0.00593243 0)
(7.33422 0.00682493 0)
(7.33487 0.00760927 0)
(7.33568 0.00827436 0)
(7.33662 0.00881561 0)
(7.33767 0.00923375 0)
(7.33883 0.00953328 0)
(7.34006 0.00972113 0)
(7.34136 0.00980548 0)
(7.34271 0.00979491 0)
(7.3441 0.00969784 0)
(7.3455 0.00952209 0)
(7.34693 0.00927472 0)
(7.34837 0.00896185 0)
(7.34981 0.00858866 0)
(7.35124 0.00815943 0)
(7.35268 0.00767752 0)
(7.3541 0.00714554 0)
(7.35551 0.00656533 0)
(7.35691 0.00593813 0)
(7.3583 0.00526465 0)
(7.35966 0.00454516 0)
(7.36101 0.00377963 0)
(7.36234 0.00296782 0)
(7.36364 0.00210939 0)
(7.36491 0.00120395 0)
(7.36616 0.000251062 0)
(7.36737 -0.000749921 0)
(7.333 0.000566116 0)
(7.33303 0.0016804 0)
(7.33309 0.00276118 0)
(7.3332 0.00379592 0)
(7.33341 0.00476631 0)
(7.33373 0.00565324 0)
(7.3342 0.00644007 0)
(7.33481 0.00711541 0)
(7.33556 0.00767357 0)
(7.33643 0.00811376 0)
(7.33741 0.00843893 0)
(7.33849 0.00865464 0)
(7.33964 0.00876802 0)
(7.34086 0.00878685 0)
(7.34213 0.00871903 0)
(7.34344 0.0085721 0)
(7.34478 0.00835297 0)
(7.34613 0.00806782 0)
(7.3475 0.00772196 0)
(7.34887 0.00731988 0)
(7.35024 0.00686525 0)
(7.35161 0.00636099 0)
(7.35297 0.00580935 0)
(7.35432 0.00521195 0)
(7.35566 0.00456993 0)
(7.35698 0.00388397 0)
(7.35828 0.00315445 0)
(7.35956 0.00238153 0)
(7.36082 0.0015652 0)
(7.36205 0.000705401 0)
(7.36326 -0.000197931 0)
(7.36443 -0.00114492 0)
(7.36557 -0.00213591 0)
(7.333 0.000555698 0)
(7.33302 0.0016551 0)
(7.33307 0.00270872 0)
(7.33315 0.00369438 0)
(7.33333 0.00459373 0)
(7.33361 0.00539232 0)
(7.33402 0.00608004 0)
(7.33456 0.00665181 0)
(7.33523 0.00710708 0)
(7.33602 0.00744874 0)
(7.33691 0.00768211 0)
(7.33791 0.00781403 0)
(7.33898 0.00785205 0)
(7.34011 0.00780387 0)
(7.3413 0.00767692 0)
(7.34253 0.00747808 0)
(7.3438 0.00721355 0)
(7.34508 0.00688874 0)
(7.34638 0.0065083 0)
(7.34768 0.00607608 0)
(7.34899 0.00559523 0)
(7.35029 0.00506827 0)
(7.35159 0.00449708 0)
(7.35288 0.00388311 0)
(7.35416 0.00322734 0)
(7.35542 0.00253046 0)
(7.35666 0.00179287 0)
(7.35788 0.00101484 0)
(7.35907 0.000196533 0)
(7.36024 -0.000661905 0)
(7.36138 -0.00156035 0)
(7.36249 -0.00249872 0)
(7.36357 -0.00347716 0)
(7.333 0.000549476 0)
(7.333 0.00164215 0)
(7.333 0.00267695 0)
(7.33304 0.00362128 0)
(7.33314 0.00445646 0)
(7.33334 0.00517247 0)
(7.33365 0.00576541 0)
(7.3341 0.00623644 0)
(7.33467 0.00659021 0)
(7.33536 0.00683346 0)
(7.33616 0.00697409 0)
(7.33706 0.00702042 0)
(7.33804 0.0069807 0)
(7.33909 0.00686274 0)
(7.34019 0.00667371 0)
(7.34134 0.00642002 0)
(7.34253 0.00610727 0)
(7.34374 0.00574026 0)
(7.34497 0.00532302 0)
(7.34621 0.00485887 0)
(7.34746 0.00435048 0)
(7.3487 0.00379994 0)
(7.34994 0.00320888 0)
(7.35117 0.00257847 0)
(7.35239 0.0019096 0)
(7.35359 0.00120284 0)
(7.35478 0.000458644 0)
(7.35594 -0.0003227 0)
(7.35708 -0.00114093 0)
(7.35819 -0.0019958 0)
(7.35927 -0.00288707 0)
(7.36032 -0.00381454 0)
(7.36134 -0.00477825 0)
(7.333 0.000552321 0)
(7.33297 0.00165656 0)
(7.3329 0.00268842 0)
(7.33283 0.00360337 0)
(7.33282 0.00438263 0)
(7.3329 0.00502113 0)
(7.33309 0.00552168 0)
(7.33341 0.00589219 0)
(7.33386 0.006143 0)
(7.33443 0.00628512 0)
(7.33512 0.00632937 0)
(7.3359 0.00628587 0)
(7.33678 0.00616382 0)
(7.33774 0.00597137 0)
(7.33875 0.00571561 0)
(7.33982 0.00540263 0)
(7.34093 0.00503755 0)
(7.34207 0.00462464 0)
(7.34324 0.0041674 0)
(7.34441 0.00366863 0)
(7.3456 0.00313056 0)
(7.34679 0.0025549 0)
(7.34798 0.00194294 0)
(7.34915 0.00129564 0)
(7.35032 0.000613697 0)
(7.35147 -0.000102408 0)
(7.35261 -0.000852302 0)
(7.35372 -0.00163569 0)
(7.35481 -0.00245231 0)
(7.35587 -0.00330189 0)
(7.35691 -0.00418413 0)
(7.35791 -0.00509881 0)
(7.35888 -0.00604592 0)
(7.333 0.000570418 0)
(7.33291 0.0017173 0)
(7.33273 0.00277155 0)
(7.33252 0.0036742 0)
(7.33235 0.00440744 0)
(7.33226 0.00497268 0)
(7.33228 0.00538081 0)
(7.33244 0.00564769 0)
(7.33273 0.00579036 0)
(7.33316 0.00582483 0)
(7.33371 0.00576539 0)
(7.33438 0.0056244 0)
(7.33515 0.00541232 0)
(7.336 0.00513791 0)
(7.33693 0.00480834 0)
(7.33791 0.00442951 0)
(7.33895 0.00400616 0)
(7.34003 0.00354208 0)
(7.34113 0.00304026 0)
(7.34225 0.00250302 0)
(7.34339 0.00193212 0)
(7.34453 0.00132888 0)
(7.34567 0.000694239 0)
(7.3468 2.88847e-05 0)
(7.34793 -0.00066672 0)
(7.34904 -0.00139224 0)
(7.35014 -0.00214744 0)
(7.35121 -0.00293211 0)
(7.35226 -0.00374604 0)
(7.35328 -0.00458898 0)
(7.35428 -0.00546071 0)
(7.35524 -0.006361 0)
(7.35617 -0.0072899 0)
(7.33299 0.000612716 0)
(7.33282 0.00185126 0)
(7.33248 0.00296558 0)
(7.33207 0.00387907 0)
(7.33167 0.00457746 0)
(7.33135 0.00507168 0)
(7.33115 0.00538323 0)
(7.3311 0.00553821 0)
(7.3312 0.00556197 0)
(7.33146 0.00547668 0)
(7.33186 0.00530096 0)
(7.33239 0.00504998 0)
(7.33304 0.00473589 0)
(7.3338 0.00436827 0)
(7.33464 0.00395458 0)
(7.33555 0.0035006 0)
(7.33652 0.00301072 0)
(7.33754 0.00248826 0)
(7.33859 0.00193569 0)
(7.33967 0.00135479 0)
(7.34077 0.000746815 0)
(7.34187 0.000112614 0)
(7.34298 -0.000547263 0)
(7.34409 -0.00123249 0)
(7.34519 -0.00194289 0)
(7.34627 -0.00267839 0)
(7.34734 -0.00343892 0)
(7.34839 -0.00422445 0)
(7.34942 -0.0050349 0)
(7.35041 -0.00587016 0)
(7.35138 -0.00673007 0)
(7.35232 -0.00761454 0)
(7.35322 -0.00852366 0)
(7.33298 0.0006935 0)
(7.33269 0.00209967 0)
(7.33211 0.00332842 0)
(7.33139 0.00428236 0)
(7.33067 0.00495662 0)
(7.33004 0.00537693 0)
(7.32955 0.00558 0)
(7.32924 0.0056059 0)
(7.32912 0.00549098 0)
(7.32919 0.00526532 0)
(7.32943 0.00495301 0)
(7.32983 0.00457281 0)
(7.33037 0.00413897 0)
(7.33103 0.00366212 0)
(7.3318 0.00315006 0)
(7.33265 0.00260842 0)
(7.33357 0.0020412 0)
(7.33455 0.00145114 0)
(7.33558 0.000840055 0)
(7.33663 0.000209068 0)
(7.33771 -0.00044119 0)
(7.3388 -0.00111044 0)
(7.3399 -0.00179867 0)
(7.341 -0.002506 0)
(7.34208 -0.00323265 0)
(7.34316 -0.00397887 0)
(7.34422 -0.00474492 0)
(7.34526 -0.005531 0)
(7.34628 -0.00633725 0)
(7.34727 -0.00716375 0)
(7.34823 -0.00801053 0)
(7.34916 -0.00887765 0)
(7.35005 -0.00976532 0)
(7.33297 0.000837327 0)
(7.33247 0.0025296 0)
(7.33152 0.00394929 0)
(7.33036 0.0049785 0)
(7.3292 0.00563397 0)
(7.32815 0.00596563 0)
(7.3273 0.00603342 0)
(7.32669 0.00589773 0)
(7.32631 0.00560996 0)
(7.32617 0.00521057 0)
(7.32625 0.00473057 0)
(7.32653 0.00419305 0)
(7.32698 0.00361464 0)
(7.32758 0.003007 0)
(7.3283 0.00237808 0)
(7.32912 0.00173313 0)
(7.33003 0.00107544 0)
(7.331 0.000406885 0)
(7.33202 -0.000271624 0)
(7.33309 -0.000959854 0)
(7.33418 -0.00165803 0)
(7.33528 -0.00236664 0)
(7.33639 -0.00308636 0)
(7.33751 -0.00381793 0)
(7.33861 -0.00456211 0)
(7.33971 -0.0053196 0)
(7.34078 -0.00609108 0)
(7.34184 -0.00687708 0)
(7.34287 -0.00767808 0)
(7.34387 -0.00849441 0)
(7.34484 -0.00932637 0)
(7.34577 -0.0101742 0)
(7.34667 -0.0110383 0)
(7.33294 0.00108917 0)
(7.33211 0.00325434 0)
(7.33057 0.00496866 0)
(7.32876 0.00610699 0)
(7.32698 0.00673228 0)
(7.3254 0.00693537 0)
(7.32411 0.00681365 0)
(7.32315 0.00645832 0)
(7.32251 0.00594162 0)
(7.32218 0.00531726 0)
(7.32213 0.00462453 0)
(7.32232 0.00389116 0)
(7.32273 0.00313579 0)
(7.32331 0.00237047 0)
(7.32403 0.00160264 0)
(7.32487 0.000836453 0)
(7.32581 7.38717e-05 0)
(7.32682 -0.000684633 0)
(7.32789 -0.00143953 0)
(7.329 -0.00219189 0)
(7.33014 -0.0029431 0)
(7.3313 -0.00369471 0)
(7.33246 -0.00444831 0)
(7.33363 -0.00520545 0)
(7.33478 -0.00596758 0)
(7.33592 -0.00673605 0)
(7.33704 -0.00751201 0)
(7.33814 -0.0082965 0)
(7.33921 -0.00909037 0)
(7.34025 -0.00989434 0)
(7.34125 -0.010709 0)
(7.34222 -0.0115349 0)
(7.34315 -0.0123726 0)
(7.33289 0.00153846 0)
(7.33145 0.00447308 0)
(7.32898 0.00660911 0)
(7.32621 0.00786922 0)
(7.32361 0.00841184 0)
(7.32136 0.0083972 0)
(7.31957 0.00798488 0)
(7.31826 0.00731298 0)
(7.31739 0.00648129 0)
(7.31693 0.00555883 0)
(7.31683 0.00459315 0)
(7.31701 0.00361539 0)
(7.31745 0.00264455 0)
(7.31809 0.00169134 0)
(7.31889 0.000761115 0)
(7.31983 -0.000144345 0)
(7.32087 -0.00102548 0)
(7.32198 -0.00188408 0)
(7.32316 -0.00272269 0)
(7.32437 -0.00354421 0)
(7.32562 -0.00435165 0)
(7.32687 -0.00514795 0)
(7.32813 -0.0059359 0)
(7.32939 -0.00671809 0)
(7.33063 -0.00749686 0)
(7.33186 -0.0082743 0)
(7.33306 -0.00905224 0)
(7.33423 -0.00983228 0)
(7.33537 -0.0106158 0)
(7.33647 -0.0114039 0)
(7.33754 -0.0121975 0)
(7.33857 -0.0129976 0)
(7.33955 -0.013805 0)
(7.33277 0.00237463 0)
(7.33022 0.00655427 0)
(7.32624 0.00923204 0)
(7.3221 0.0105486 0)
(7.31843 0.0108595 0)
(7.31541 0.0104454 0)
(7.31313 0.00956768 0)
(7.31155 0.00843061 0)
(7.31057 0.00716427 0)
(7.31011 0.00585021 0)
(7.31008 0.00454028 0)
(7.31039 0.00326474 0)
(7.31099 0.00203885 0)
(7.3118 0.000868737 0)
(7.3128 -0.000244894 0)
(7.31392 -0.00130453 0)
(7.31515 -0.00231447 0)
(7.31646 -0.00327985 0)
(7.31782 -0.0042061 0)
(7.31921 -0.00509856 0)
(7.32063 -0.0059623 0)
(7.32205 -0.00680202 0)
(7.32346 -0.00762198 0)
(7.32487 -0.00842601 0)
(7.32625 -0.00921752 0)
(7.32761 -0.00999948 0)
(7.32893 -0.0107745 0)
(7.33022 -0.0115448 0)
(7.33147 -0.0123124 0)
(7.33268 -0.0130789 0)
(7.33384 -0.0138456 0)
(7.33496 -0.0146139 0)
(7.33603 -0.0153849 0)
(7.33248 0.00396235 0)
(7.32783 0.010156 0)
(7.32139 0.0134327 0)
(7.31537 0.0145616 0)
(7.31044 0.0142919 0)
(7.3067 0.0131282 0)
(7.30409 0.0114992 0)
(7.30245 0.00968594 0)
(7.30159 0.00783416 0)
(7.30136 0.00602311 0)
(7.30161 0.00429767 0)
(7.30225 0.00267767 0)
(7.30318 0.00116719 0)
(7.30434 -0.000237609 0)
(7.30567 -0.00154426 0)
(7.30713 -0.00276208 0)
(7.30868 -0.00390097 0)
(7.31029 -0.00497069 0)
(7.31194 -0.00598039 0)
(7.31361 -0.00693846 0)
(7.31528 -0.00785246 0)
(7.31695 -0.00872913 0)
(7.3186 -0.0095744 0)
(7.32023 -0.0103935 0)
(7.32182 -0.011191 0)
(7.32337 -0.0119708 0)
(7.32488 -0.0127363 0)
(7.32635 -0.0134905 0)
(7.32776 -0.0142359 0)
(7.32913 -0.0149746 0)
(7.33044 -0.0157085 0)
(7.33169 -0.0164391 0)
(7.33289 -0.0171678 0)
(7.33192 0.00692343 0)
(7.32311 0.016136 0)
(7.31274 0.0198084 0)
(7.30432 0.0202549 0)
(7.29817 0.0188168 0)
(7.29399 0.0163581 0)
(7.29147 0.0135733 0)
(7.29022 0.0108088 0)
(7.28988 0.00818174 0)
(7.29023 0.00574113 0)
(7.29109 0.00350971 0)
(7.29235 0.00148571 0)
(7.29389 -0.000346554 0)
(7.29563 -0.00200685 0)
(7.29752 -0.00351513 0)
(7.29951 -0.00489053 0)
(7.30156 -0.00615086 0)
(7.30365 -0.00731217 0)
(7.30575 -0.00838869 0)
(7.30784 -0.00939288 0)
(7.30992 -0.0103356 0)
(7.31196 -0.0112262 0)
(7.31396 -0.0120728 0)
(7.31592 -0.0128825 0)
(7.31782 -0.0136611 0)
(7.31966 -0.014414 0)
(7.32145 -0.0151454 0)
(7.32317 -0.0158592 0)
(7.32483 -0.0165587 0)
(7.32642 -0.0172466 0)
(7.32794 -0.0179253 0)
(7.32939 -0.0185971 0)
(7.33078 -0.0192641 0)
(7.33066 0.013816 0)
(7.31338 0.0263447 0)
(7.29717 0.0284465 0)
(7.28626 0.0270595 0)
(7.27934 0.0238819 0)
(7.27544 0.0198555 0)
(7.27381 0.0158608 0)
(7.27367 0.0121997 0)
(7.2745 0.00887336 0)
(7.27603 0.00586448 0)
(7.27805 0.0031635 0)
(7.28042 0.000744898 0)
(7.28302 -0.00142373 0)
(7.28577 -0.00337268 0)
(7.28861 -0.0051287 0)
(7.29149 -0.00671615 0)
(7.29438 -0.00815717 0)
(7.29725 -0.00947147 0)
(7.30008 -0.0106763 0)
(7.30286 -0.0117867 0)
(7.30558 -0.0128158 0)
(7.30821 -0.0137751 0)
(7.31077 -0.0146743 0)
(7.31325 -0.0155221 0)
(7.31564 -0.0163258 0)
(7.31794 -0.0170917 0)
(7.32014 -0.0178254 0)
(7.32226 -0.0185315 0)
(7.32429 -0.0192141 0)
(7.32622 -0.0198766 0)
(7.32807 -0.0205218 0)
(7.32982 -0.0211517 0)
(7.33149 -0.0217682 0)
(7.32447 0.0352529 0)
(7.28905 0.048415 0)
(7.26649 0.0395872 0)
(7.25598 0.0291983 0)
(7.2507 0.0198769 0)
(7.2489 0.0120322 0)
(7.24973 0.00591094 0)
(7.25205 0.00117357 0)
(7.25519 -0.00258517 0)
(7.25891 -0.00560133 0)
(7.26304 -0.00802837 0)
(7.26741 -0.0100053 0)
(7.2719 -0.0116446 0)
(7.27643 -0.0130272 0)
(7.28094 -0.0142109 0)
(7.28539 -0.0152393 0)
(7.28974 -0.0161461 0)
(7.29397 -0.0169571 0)
(7.29806 -0.0176921 0)
(7.30202 -0.0183666 0)
(7.30582 -0.0189926 0)
(7.30947 -0.0195797 0)
(7.31297 -0.0201355 0)
(7.31631 -0.020666 0)
(7.3195 -0.0211761 0)
(7.32255 -0.0216698 0)
(7.32545 -0.0221503 0)
(7.32821 -0.0226203 0)
(7.33083 -0.0230821 0)
(7.33331 -0.0235378 0)
(7.33567 -0.0239895 0)
(7.33791 -0.0244393 0)
(7.34003 -0.0248901 0)
(7.29541 0.0831414 0)
(7.21833 0.128044 0)
(7.18707 0.129005 0)
(7.18632 0.113963 0)
(7.19295 0.094133 0)
(7.20193 0.0760893 0)
(7.21231 0.06106 0)
(7.22297 0.0481495 0)
(7.2335 0.0368356 0)
(7.24384 0.02702 0)
(7.25389 0.0186059 0)
(7.26354 0.0114356 0)
(7.27271 0.00534006 0)
(7.28139 0.000168353 0)
(7.2896 -0.00421434 0)
(7.29732 -0.0079296 0)
(7.3046 -0.0110842 0)
(7.31143 -0.0137694 0)
(7.31785 -0.0160618 0)
(7.32387 -0.018026 0)
(7.32953 -0.0197158 0)
(7.33484 -0.0211763 0)
(7.33983 -0.0224451 0)
(7.3445 -0.0235533 0)
(7.34889 -0.0245271 0)
(7.353 -0.025388 0)
(7.35685 -0.0261542 0)
(7.36047 -0.0268407 0)
(7.36385 -0.0274601 0)
(7.36701 -0.0280224 0)
(7.36997 -0.0285362 0)
(7.37272 -0.0290073 0)
(7.37528 -0.0294432 0)
(7.32717 -0.156814 0)
(7.19692 -0.284093 0)
(7.13361 -0.280647 0)
(7.11314 -0.247167 0)
(7.11508 -0.214556 0)
(7.13554 -0.184255 0)
(7.16564 -0.157031 0)
(7.19803 -0.134037 0)
(7.22997 -0.115224 0)
(7.26032 -0.099899 0)
(7.28836 -0.0873962 0)
(7.31374 -0.0772171 0)
(7.33647 -0.068953 0)
(7.35673 -0.0622462 0)
(7.37472 -0.0567952 0)
(7.39067 -0.0523569 0)
(7.40478 -0.0487378 0)
(7.41726 -0.0457819 0)
(7.42829 -0.0433638 0)
(7.43804 -0.0413828 0)
(7.44666 -0.0397579 0)
(7.45426 -0.0384241 0)
(7.46097 -0.0373291 0)
(7.46688 -0.0364305 0)
(7.47207 -0.0356943 0)
(7.47663 -0.0350925 0)
(7.48061 -0.0346027 0)
(7.48409 -0.0342064 0)
(7.4871 -0.0338884 0)
(7.48971 -0.0336362 0)
(7.49194 -0.0334389 0)
(7.49384 -0.0332878 0)
(7.49546 -0.0331713 0)
(7.33086 1.21499 0)
(7.63822 1.23053 0)
(7.81865 0.920168 0)
(7.8759 0.647915 0)
(7.88919 0.449902 0)
(7.88325 0.310866 0)
(7.8619 0.213001 0)
(7.83006 0.143228 0)
(7.79308 0.0928985 0)