/*--------------------------------*- C++ -*----------------------------------*\
| =========                 |                                                 |
| \\      /  F ield         | OpenFOAM: The Open Source CFD Toolbox           |
|  \\    /   O peration     | Version:  4.1                                   |
|   \\  /    A nd           | Web:      www.OpenFOAM.org                      |
|    \\/     M anipulation  |                                                 |
\*---------------------------------------------------------------------------*/
FoamFile
{
    version     2.0;
    format      ascii;
    class       volScalarField;
    location    "1300";
    object      p;
}
// * * * * * * * * * * * * * * * * * * * * * * * * * * * * * * * * * * * * * //

dimensions      [0 2 -2 0 0 0 0];

internalField   nonuniform List<scalar> 
26785
(
-671.874
-668.588
-665.419
-663.394
-661.858
-660.698
-661.151
-663.387
-666.671
-670.825
-676.004
-681.947
-687.973
-693.449
-697.995
-701.408
-703.626
-704.836
-705.531
-706.415
-708.218
-711.523
-716.734
-724.076
-733.34
-743.754
-754.607
-766.297
-779.971
-796.746
-817.499
-843.447
-875.759
-914.833
-960.52
-1012.22
-1069.05
-1130.1
-1194.54
-1261.61
-1330.45
-1399.94
-1468.41
-1533.54
-1592.28
-1641.29
-1677.76
-1700.54
-1710.88
-1711
-1703.09
-1688.96
-1669.88
-1646.82
-1620.99
-1593.93
-1567.19
-1541.89
-1518.62
-1497.62
-1478.98
-1462.78
-1449.17
-1438.53
-1430.82
-1425.81
-1422.96
-1421.86
-1421.77
-1420.6
-1415.43
-1402.78
-1375.47
-1330.69
-1267.97
-1190.97
-1109.98
-1031.62
-959.195
-896.923
-849.455
-821.662
-801.027
-762.115
-709.288
-680.369
-650.186
-580.481
-492.765
-438.659
-411.366
-386.006
-354.32
-313.27
-257.734
-193.499
-132.861
-88.4072
-61.9916
-24.5508
-671.876
-668.588
-665.418
-663.392
-661.852
-660.682
-661.135
-663.378
-666.665
-670.82
-676.006
-681.959
-687.996
-693.481
-698.032
-701.449
-703.665
-704.866
-705.55
-706.42
-708.211
-711.506
-716.706
-724.042
-733.308
-743.731
-754.574
-766.229
-779.859
-796.59
-817.289
-843.19
-875.486
-914.576
-960.306
-1012.06
-1068.95
-1130.06
-1194.55
-1261.66
-1330.55
-1400.11
-1468.68
-1533.94
-1592.83
-1641.97
-1678.5
-1701.25
-1711.51
-1711.58
-1703.62
-1689.49
-1670.41
-1647.34
-1621.47
-1594.33
-1567.52
-1542.15
-1518.82
-1497.76
-1479.05
-1462.77
-1449.06
-1438.34
-1430.6
-1425.6
-1422.83
-1421.96
-1422.14
-1421.21
-1416.41
-1404.32
-1377.31
-1332.85
-1270.05
-1192.44
-1111.09
-1032.44
-959.532
-896.268
-847.807
-821.439
-802.482
-762.097
-707.588
-683.442
-656.778
-582.533
-490.835
-439.046
-411.125
-384.62
-353.826
-314.647
-259.875
-195.767
-134.137
-89.6364
-62.2408
-27.1566
-671.892
-668.59
-665.417
-663.389
-661.842
-660.651
-661.103
-663.357
-666.65
-670.811
-676.015
-681.995
-688.054
-693.554
-698.114
-701.533
-703.742
-704.925
-705.582
-706.424
-708.19
-711.461
-716.636
-723.951
-733.217
-743.663
-754.498
-766.09
-779.634
-796.275
-816.874
-842.698
-874.971
-914.092
-959.906
-1011.77
-1068.78
-1129.98
-1194.56
-1261.75
-1330.74
-1400.42
-1469.18
-1534.69
-1593.88
-1643.27
-1679.92
-1702.61
-1712.75
-1712.7
-1704.68
-1690.54
-1671.47
-1648.38
-1622.41
-1595.15
-1568.18
-1542.68
-1519.22
-1498.04
-1479.2
-1462.77
-1448.86
-1437.97
-1430.19
-1425.19
-1422.61
-1422.23
-1422.89
-1422.44
-1418.4
-1407.39
-1381.1
-1337.15
-1274.03
-1195.33
-1113.4
-1034.18
-960.133
-895.286
-845.089
-821.611
-806.528
-763.87
-701.37
-681.723
-659.449
-595.237
-501.845
-443.501
-410.819
-382.64
-350.457
-311.125
-258.071
-197.468
-138.933
-94.3466
-63.4859
-28.483
-671.919
-668.589
-665.412
-663.384
-661.826
-660.607
-661.058
-663.33
-666.634
-670.806
-676.039
-682.057
-688.15
-693.672
-698.246
-701.668
-703.862
-705.013
-705.627
-706.424
-708.148
-711.38
-716.512
-723.789
-733.047
-743.523
-754.361
-765.872
-779.293
-795.807
-816.28
-842.003
-874.244
-913.411
-959.343
-1011.37
-1068.53
-1129.88
-1194.57
-1261.88
-1331
-1400.86
-1469.89
-1535.78
-1595.4
-1645.18
-1682.01
-1704.63
-1714.6
-1714.38
-1706.26
-1692.1
-1673.05
-1649.93
-1623.84
-1596.37
-1569.18
-1543.48
-1519.84
-1498.49
-1479.45
-1462.79
-1448.61
-1437.46
-1429.61
-1424.59
-1422.38
-1422.73
-1424
-1424.29
-1421.5
-1412.13
-1387.03
-1343.66
-1279.85
-1199.68
-1117.07
-1037.08
-961.164
-893.747
-841.777
-820.856
-807.059
-771.627
-706.689
-681.531
-655.692
-593.263
-507.489
-447.997
-412.409
-382.575
-349.012
-307.931
-255.541
-197.596
-141.848
-97.2733
-64.1939
-28.847
-671.96
-668.59
-665.409
-663.379
-661.808
-660.555
-661.003
-663.298
-666.617
-670.808
-676.082
-682.155
-688.292
-693.84
-698.424
-701.841
-704.012
-705.119
-705.674
-706.41
-708.079
-711.256
-716.328
-723.547
-732.785
-743.296
-754.153
-765.575
-778.843
-795.196
-815.528
-841.135
-873.338
-912.563
-958.646
-1010.87
-1068.23
-1129.76
-1194.6
-1262.04
-1331.32
-1401.42
-1470.8
-1537.18
-1597.37
-1647.66
-1684.75
-1707.3
-1717.04
-1716.6
-1708.34
-1694.17
-1675.16
-1652.01
-1625.75
-1598.02
-1570.55
-1544.58
-1520.71
-1499.12
-1479.83
-1462.88
-1448.33
-1436.84
-1428.9
-1423.82
-1422.19
-1423.46
-1425.44
-1426.81
-1425.81
-1418.6
-1395.21
-1352.33
-1287.42
-1205.54
-1122.33
-1041.75
-964.959
-897.702
-845.98
-821.437
-805.11
-769.153
-709.702
-682.254
-653.066
-589.972
-510.018
-451.761
-414.087
-382.745
-348.268
-305.743
-253.471
-197.423
-144.083
-99.5052
-64.7724
-28.9173
-672.002
-668.592
-665.404
-663.375
-661.791
-660.494
-660.94
-663.264
-666.608
-670.826
-676.152
-682.288
-688.472
-694.042
-698.632
-702.044
-704.186
-705.239
-705.724
-706.386
-707.984
-711.093
-716.087
-723.228
-732.427
-742.973
-753.863
-765.198
-778.291
-794.453
-814.646
-840.128
-872.284
-911.579
-957.844
-1010.3
-1067.9
-1129.64
-1194.66
-1262.25
-1331.72
-1402.09
-1471.89
-1538.87
-1599.78
-1650.71
-1688.14
-1710.63
-1720.1
-1719.37
-1710.94
-1696.76
-1677.81
-1654.63
-1628.18
-1600.12
-1572.29
-1546
-1521.85
-1499.98
-1480.38
-1463.06
-1448.07
-1436.15
-1428.09
-1422.91
-1422.1
-1424.38
-1427.13
-1429.98
-1431.31
-1426.63
-1405.5
-1362.92
-1296.47
-1212.84
-1129.3
-1048.58
-971.887
-903.774
-849.555
-822.902
-804.837
-768.239
-712.752
-682.585
-650.436
-588.546
-513.054
-455.351
-415.784
-382.73
-347.094
-303.863
-252.33
-198.171
-146.906
-102.087
-65.3884
-28.3131
-672.042
-668.593
-665.4
-663.37
-661.772
-660.425
-660.865
-663.231
-666.612
-670.864
-676.246
-682.449
-688.68
-694.271
-698.867
-702.271
-704.38
-705.371
-705.773
-706.348
-707.865
-710.891
-715.791
-722.833
-731.97
-742.549
-753.48
-764.74
-777.645
-793.597
-813.651
-839.007
-871.108
-910.488
-956.963
-1009.69
-1067.57
-1129.54
-1194.76
-1262.53
-1332.2
-1402.87
-1473.15
-1540.84
-1602.59
-1654.3
-1692.15
-1714.61
-1723.77
-1722.68
-1714.05
-1699.88
-1681.01
-1657.82
-1631.16
-1602.7
-1574.44
-1547.77
-1523.29
-1501.1
-1481.14
-1463.4
-1447.88
-1435.42
-1427.24
-1421.93
-1422.21
-1425.58
-1429.17
-1433.79
-1437.8
-1435.76
-1417.56
-1375.1
-1306.62
-1221.41
-1137.84
-1057.32
-980.78
-910.252
-852.059
-824.462
-805.503
-768.464
-715.847
-682.866
-647.478
-587.614
-516.886
-460.035
-418.432
-382.989
-345.633
-301.825
-251.438
-199.396
-150.149
-105.299
-66.9585
-28.9082
-672.093
-668.598
-665.397
-663.368
-661.753
-660.346
-660.782
-663.207
-666.635
-670.919
-676.358
-682.63
-688.908
-694.52
-699.122
-702.517
-704.591
-705.513
-705.822
-706.299
-707.723
-710.655
-715.443
-722.365
-731.419
-742.02
-752.997
-764.207
-776.917
-792.653
-812.56
-837.79
-869.834
-909.317
-956.029
-1009.06
-1067.25
-1129.51
-1194.94
-1262.89
-1332.75
-1403.72
-1474.52
-1542.99
-1605.71
-1658.33
-1696.68
-1719.14
-1727.98
-1726.48
-1717.62
-1703.5
-1684.76
-1661.6
-1634.71
-1605.8
-1577.04
-1549.93
-1525.07
-1502.51
-1482.15
-1463.93
-1447.82
-1434.7
-1426.4
-1420.95
-1422.5
-1427.05
-1431.5
-1438.02
-1444.83
-1445.23
-1430.54
-1388.67
-1317.74
-1230.97
-1147.58
-1067.42
-990.706
-917.217
-855.623
-826.074
-805.879
-769.043
-719.063
-683.459
-644.754
-586.934
-521.102
-465.56
-422.068
-383.982
-344.609
-300.111
-250.69
-200.439
-152.746
-107.938
-68.3993
-29.0047
-672.155
-668.6
-665.392
-663.364
-661.735
-660.256
-660.698
-663.201
-666.679
-670.989
-676.483
-682.824
-689.15
-694.784
-699.392
-702.78
-704.816
-705.663
-705.87
-706.238
-707.56
-710.386
-715.048
-721.83
-730.776
-741.39
-752.413
-763.597
-776.118
-791.646
-811.387
-836.492
-868.484
-908.091
-955.071
-1008.45
-1067
-1129.56
-1195.21
-1263.3
-1333.32
-1404.57
-1475.91
-1545.24
-1609.05
-1662.69
-1701.61
-1724.09
-1732.57
-1730.62
-1721.55
-1707.53
-1689.03
-1665.97
-1638.87
-1609.45
-1580.11
-1552.52
-1527.24
-1504.28
-1483.48
-1464.74
-1447.96
-1434.06
-1425.65
-1419.92
-1422.39
-1428
-1433.43
-1442.18
-1451.92
-1454.74
-1443.45
-1401.76
-1328.67
-1241.18
-1158
-1078.15
-1001.33
-925.312
-861.59
-828.589
-805.911
-769.823
-722.611
-684.568
-642.851
-586.823
-525.188
-471.026
-426.087
-385.681
-344.491
-299.407
-250.786
-201.961
-155.397
-110.629
-70.2538
-29.7594
-672.23
-668.606
-665.388
-663.363
-661.718
-660.157
-660.618
-663.216
-666.741
-671.07
-676.614
-683.027
-689.403
-695.059
-699.675
-703.056
-705.054
-705.821
-705.918
-706.167
-707.377
-710.087
-714.609
-721.233
-730.048
-740.662
-751.733
-762.899
-775.251
-790.593
-810.146
-835.121
-867.075
-906.832
-954.116
-1007.89
-1066.86
-1129.73
-1195.56
-1263.73
-1333.86
-1405.37
-1477.27
-1547.53
-1612.55
-1667.36
-1706.9
-1729.4
-1737.45
-1734.96
-1725.67
-1711.82
-1693.69
-1670.87
-1643.63
-1613.68
-1583.7
-1555.56
-1529.83
-1506.45
-1485.18
-1465.9
-1448.38
-1433.56
-1425.06
-1419.2
-1422.05
-1428.73
-1435.32
-1446.35
-1458.95
-1464.25
-1456.99
-1416.21
-1339.33
-1251.2
-1168.44
-1089.09
-1012.45
-935.168
-870.015
-832.598
-806.565
-771.005
-726.202
-686.155
-642.125
-587.582
-529.187
-476.16
-430.079
-387.706
-344.944
-299.355
-251.329
-203.538
-157.716
-112.937
-71.9105
-30.179
-672.303
-668.612
-665.384
-663.364
-661.701
-660.053
-660.553
-663.254
-666.821
-671.158
-676.748
-683.233
-689.661
-695.342
-699.968
-703.345
-705.304
-705.986
-705.964
-706.087
-707.177
-709.763
-714.132
-720.579
-729.239
-739.841
-750.962
-762.105
-774.317
-789.495
-808.847
-833.685
-865.625
-905.564
-953.2
-1007.43
-1066.83
-1130
-1195.95
-1264.16
-1334.34
-1406.09
-1478.57
-1549.86
-1616.24
-1672.37
-1712.63
-1735.15
-1742.67
-1739.49
-1729.88
-1716.24
-1698.58
-1676.2
-1648.96
-1618.5
-1587.82
-1559.09
-1532.89
-1509.07
-1487.32
-1467.47
-1449.19
-1433.27
-1424.62
-1420.4
-1423.32
-1430.65
-1438.36
-1451.13
-1466.07
-1472
-1465.8
-1429.19
-1349.59
-1261.56
-1178.91
-1100.1
-1024.17
-946.627
-880.253
-838.635
-808.869
-773.099
-729.871
-688.256
-642.614
-589.253
-533.231
-481.038
-434.045
-390.047
-345.965
-299.924
-252.297
-205.221
-159.877
-115.062
-73.5079
-30.7839
-672.37
-668.617
-665.38
-663.367
-661.684
-659.947
-660.506
-663.316
-666.915
-671.248
-676.881
-683.441
-689.924
-695.631
-700.268
-703.644
-705.565
-706.158
-706.01
-705.997
-706.961
-709.416
-713.621
-719.873
-728.355
-738.934
-750.107
-761.216
-773.314
-788.351
-807.498
-832.194
-864.149
-904.312
-952.359
-1007.1
-1066.94
-1130.36
-1196.38
-1264.56
-1334.75
-1406.72
-1479.81
-1552.22
-1620.12
-1677.76
-1718.87
-1741.47
-1748.35
-1744.29
-1734.21
-1720.69
-1703.58
-1681.82
-1654.78
-1623.88
-1592.51
-1563.16
-1536.46
-1512.19
-1489.96
-1469.55
-1450.51
-1433.29
-1424.17
-1422.45
-1425.74
-1432.78
-1441.58
-1455.43
-1471.29
-1475.86
-1467.42
-1437.77
-1357.45
-1271.02
-1189.29
-1111.73
-1036.6
-959.422
-892.167
-846.863
-813.212
-776.41
-733.854
-690.955
-644.196
-591.704
-537.332
-485.694
-437.959
-392.641
-347.454
-300.978
-253.558
-206.916
-161.83
-116.931
-74.8853
-31.2287
-672.447
-668.626
-665.378
-663.374
-661.667
-659.844
-660.483
-663.401
-667.02
-671.337
-677.011
-683.65
-690.19
-695.925
-700.575
-703.953
-705.835
-706.337
-706.055
-705.899
-706.731
-709.048
-713.08
-719.121
-727.402
-737.946
-749.178
-760.238
-772.234
-787.156
-806.103
-830.658
-862.663
-903.106
-951.628
-1006.91
-1067.18
-1130.81
-1196.83
-1264.93
-1335.07
-1407.23
-1480.93
-1554.54
-1624.13
-1683.49
-1725.62
-1748.39
-1754.58
-1749.44
-1738.72
-1725.2
-1708.59
-1687.59
-1660.99
-1629.79
-1597.75
-1567.79
-1540.58
-1515.86
-1493.17
-1472.23
-1452.53
-1434.52
-1424.43
-1424.23
-1427.88
-1435.19
-1444.86
-1459.45
-1475.8
-1480.21
-1466.46
-1438.87
-1364.77
-1280.93
-1200.15
-1123.79
-1049.53
-973.241
-905.518
-856.942
-819.434
-780.969
-738.326
-694.302
-646.723
-594.808
-541.525
-490.216
-441.866
-395.478
-349.371
-302.484
-255.134
-208.725
-163.748
-118.739
-76.2411
-31.7194
-672.532
-668.631
-665.373
-663.382
-661.648
-659.751
-660.488
-663.509
-667.134
-671.424
-677.136
-683.857
-690.459
-696.222
-700.889
-704.271
-706.116
-706.522
-706.1
-705.794
-706.49
-708.664
-712.513
-718.327
-726.385
-736.884
-748.185
-759.184
-771.085
-785.912
-804.665
-829.09
-861.189
-901.975
-951.03
-1006.87
-1067.56
-1131.35
-1197.31
-1265.25
-1335.28
-1407.57
-1481.89
-1556.79
-1628.24
-1689.55
-1732.9
-1755.94
-1761.35
-1754.97
-1743.49
-1729.82
-1713.61
-1693.44
-1667.47
-1636.16
-1603.54
-1572.99
-1545.29
-1520.13
-1497.01
-1475.57
-1455.34
-1436.79
-1425.71
-1426.82
-1431.04
-1438.54
-1449.04
-1463.96
-1480.14
-1484.47
-1467.81
-1439.92
-1371.76
-1290.71
-1211.32
-1136.09
-1062.7
-987.569
-919.687
-868.242
-827.121
-786.653
-743.379
-698.315
-650.076
-598.497
-545.897
-494.743
-445.857
-398.575
-351.678
-304.384
-256.993
-210.66
-165.669
-120.518
-77.603
-32.1706
-672.628
-668.639
-665.371
-663.397
-661.628
-659.675
-660.524
-663.637
-667.254
-671.507
-677.257
-684.064
-690.73
-696.524
-701.208
-704.598
-706.407
-706.713
-706.145
-705.682
-706.237
-708.265
-711.924
-717.498
-725.308
-735.758
-747.134
-758.063
-769.879
-784.62
-803.186
-827.503
-859.749
-900.948
-950.585
-1007
-1068.07
-1131.96
-1197.81
-1265.51
-1335.35
-1407.71
-1482.65
-1558.9
-1632.42
-1695.92
-1740.72
-1764.15
-1768.67
-1760.87
-1748.53
-1734.6
-1718.67
-1699.32
-1674.14
-1642.9
-1609.85
-1578.78
-1550.6
-1525.04
-1501.53
-1479.67
-1459.04
-1440.27
-1428.67
-1429.83
-1435.23
-1442.84
-1454
-1468.79
-1483.76
-1487.56
-1469.63
-1440.5
-1377.15
-1299.79
-1222.48
-1148.46
-1075.92
-1001.96
-934.113
-880.243
-835.897
-793.32
-749.063
-703
-654.175
-602.745
-550.536
-499.402
-450.019
-401.96
-354.353
-306.644
-259.116
-212.73
-167.622
-122.305
-79.0063
-32.6271
-672.717
-668.647
-665.371
-663.416
-661.61
-659.621
-660.593
-663.784
-667.379
-671.585
-677.373
-684.272
-691.004
-696.829
-701.533
-704.934
-706.708
-706.912
-706.19
-705.564
-705.976
-707.856
-711.318
-716.636
-724.176
-734.575
-746.034
-756.887
-768.629
-783.282
-801.672
-825.913
-858.37
-900.051
-950.308
-1007.29
-1068.72
-1132.66
-1198.3
-1265.7
-1335.26
-1407.62
-1483.15
-1560.85
-1636.63
-1702.62
-1749.15
-1773.09
-1776.56
-1767.15
-1753.88
-1739.57
-1723.79
-1705.24
-1680.94
-1649.96
-1616.64
-1585.14
-1556.55
-1530.64
-1506.8
-1484.62
-1463.89
-1445.21
-1433.26
-1433.44
-1440.42
-1448.19
-1459.65
-1473.96
-1486.97
-1489.61
-1471.63
-1441.13
-1381.64
-1308.33
-1233.49
-1160.8
-1089.09
-1016.25
-948.555
-892.691
-845.534
-800.869
-755.419
-708.375
-658.984
-607.546
-555.506
-504.274
-454.405
-405.639
-357.373
-309.229
-261.48
-214.931
-169.616
-124.102
-80.4386
-33.066
-672.796
-668.653
-665.373
-663.44
-661.593
-659.593
-660.692
-663.949
-667.508
-671.658
-677.485
-684.48
-691.281
-697.138
-701.863
-705.279
-707.02
-707.118
-706.235
-705.44
-705.707
-707.438
-710.698
-715.748
-722.995
-733.344
-744.899
-755.668
-767.344
-781.907
-800.13
-824.34
-857.078
-899.303
-950.206
-1007.75
-1069.49
-1133.42
-1198.8
-1265.8
-1334.99
-1407.26
-1483.36
-1562.57
-1640.82
-1709.62
-1758.24
-1782.84
-1785.08
-1773.79
-1759.53
-1744.77
-1729.01
-1711.2
-1687.82
-1657.27
-1623.87
-1592.07
-1563.14
-1536.95
-1512.85
-1490.62
-1469.98
-1451.55
-1439.5
-1438.18
-1446.32
-1454.6
-1465.86
-1479.43
-1490.33
-1490.68
-1473.68
-1442.33
-1386.13
-1316.65
-1244.36
-1173.07
-1102.2
-1030.43
-962.991
-905.513
-855.92
-809.246
-762.49
-714.46
-664.484
-612.898
-560.845
-509.404
-459.039
-409.606
-360.707
-312.103
-264.059
-217.254
-171.655
-125.913
-81.8933
-33.4934
-672.882
-668.663
-665.379
-663.471
-661.581
-659.593
-660.822
-664.129
-667.64
-671.728
-677.594
-684.69
-691.562
-697.452
-702.199
-705.635
-707.344
-707.332
-706.281
-705.312
-705.433
-707.015
-710.067
-714.837
-721.769
-732.073
-743.744
-754.422
-766.03
-780.504
-798.572
-822.805
-855.902
-898.721
-950.282
-1008.38
-1070.4
-1134.26
-1199.29
-1265.8
-1334.51
-1406.6
-1483.21
-1564
-1644.93
-1716.89
-1768.02
-1793.47
-1794.25
-1780.8
-1765.47
-1750.2
-1734.36
-1717.23
-1694.77
-1664.76
-1631.49
-1599.54
-1570.38
-1544
-1519.85
-1497.85
-1477.41
-1459.36
-1447.52
-1444.92
-1452.81
-1461.91
-1472.63
-1485.16
-1494.32
-1491.51
-1475.68
-1444.18
-1390.94
-1324.98
-1255.2
-1185.3
-1115.31
-1044.56
-977.463
-918.693
-866.994
-818.418
-770.304
-721.265
-670.658
-618.792
-566.565
-514.816
-463.929
-413.847
-364.326
-315.233
-266.828
-219.689
-173.737
-127.729
-83.3428
-33.9008
-672.973
-668.669
-665.386
-663.508
-661.573
-659.621
-660.982
-664.325
-667.775
-671.794
-677.701
-684.903
-691.849
-697.77
-702.541
-706.001
-707.68
-707.555
-706.328
-705.18
-705.155
-706.591
-709.43
-713.911
-720.504
-730.772
-742.587
-753.162
-764.696
-779.085
-797.011
-821.336
-854.866
-898.311
-950.535
-1009.17
-1071.44
-1135.17
-1199.77
-1265.69
-1333.79
-1405.58
-1482.65
-1565.04
-1648.88
-1724.36
-1778.48
-1805
-1804.07
-1788.17
-1771.7
-1755.84
-1739.85
-1723.36
-1701.77
-1672.4
-1639.46
-1607.53
-1578.26
-1551.84
-1527.98
-1506.39
-1486.22
-1468.78
-1457.37
-1453.98
-1460.1
-1469.77
-1480.06
-1491.35
-1498.76
-1493.39
-1478.01
-1446.81
-1396.24
-1333.48
-1266.07
-1197.58
-1128.49
-1058.73
-992.011
-932.219
-878.7
-828.353
-778.864
-728.781
-677.477
-625.205
-572.665
-520.512
-469.07
-418.342
-368.199
-318.587
-269.762
-222.221
-175.857
-129.536
-84.755
-34.2857
-673.073
-668.678
-665.398
-663.551
-661.572
-659.678
-661.172
-664.535
-667.914
-671.858
-677.808
-685.12
-692.141
-698.093
-702.889
-706.378
-708.029
-707.786
-706.377
-705.047
-704.878
-706.17
-708.796
-712.979
-719.208
-729.452
-741.446
-751.904
-763.352
-777.663
-795.464
-819.962
-853.986
-898.074
-950.961
-1010.12
-1072.61
-1136.15
-1200.23
-1265.46
-1332.81
-1404.17
-1481.6
-1565.6
-1652.53
-1731.9
-1789.58
-1817.41
-1814.49
-1795.86
-1778.21
-1761.68
-1745.49
-1729.58
-1708.81
-1680.16
-1647.73
-1615.99
-1586.76
-1560.58
-1537.29
-1516.2
-1496.51
-1479.88
-1468.95
-1464.96
-1468.62
-1477.96
-1488.05
-1498.08
-1503.12
-1496.82
-1481.12
-1450.37
-1402.17
-1342.29
-1277.11
-1209.99
-1141.84
-1073.02
-1006.67
-946.074
-890.987
-839.007
-788.143
-736.974
-684.899
-632.104
-579.128
-526.485
-474.45
-423.07
-372.296
-322.136
-272.839
-224.84
-178.014
-131.325
-86.1089
-34.6468
-673.161
-668.688
-665.414
-663.601
-661.579
-659.767
-661.392
-664.758
-668.057
-671.921
-677.915
-685.343
-692.439
-698.421
-703.243
-706.768
-708.392
-708.027
-706.428
-704.913
-704.602
-705.757
-708.174
-712.048
-717.889
-728.132
-740.347
-750.669
-762.01
-776.242
-793.951
-818.712
-853.269
-898.006
-951.557
-1011.24
-1073.92
-1137.19
-1200.67
-1265.08
-1331.53
-1402.31
-1479.98
-1565.57
-1655.73
-1739.38
-1801.18
-1830.56
-1825.4
-1803.81
-1784.97
-1767.7
-1751.28
-1735.91
-1715.88
-1688.01
-1656.27
-1624.9
-1595.95
-1570.33
-1547.77
-1527.29
-1508.29
-1492.55
-1482.04
-1477.43
-1478.87
-1486.69
-1496.27
-1504.91
-1507.73
-1501.46
-1485.3
-1455
-1408.86
-1351.55
-1288.43
-1222.66
-1155.43
-1087.47
-1021.48
-960.247
-903.805
-850.319
-798.086
-745.792
-692.873
-639.447
-585.929
-532.72
-480.055
-428.009
-376.594
-325.859
-276.045
-227.541
-180.211
-133.095
-87.3994
-34.9865
-673.234
-668.696
-665.432
-663.656
-661.594
-659.883
-661.639
-664.995
-668.205
-671.985
-678.023
-685.571
-692.745
-698.755
-703.604
-707.17
-708.77
-708.279
-706.482
-704.782
-704.331
-705.356
-707.57
-711.116
-716.536
-726.819
-739.301
-749.468
-760.679
-774.829
-792.497
-817.601
-852.71
-898.1
-952.321
-1012.53
-1075.37
-1138.3
-1201.07
-1264.52
-1329.91
-1399.95
-1477.74
-1564.85
-1658.37
-1746.65
-1813.16
-1844.26
-1836.58
-1811.92
-1791.95
-1773.85
-1757.19
-1742.34
-1722.97
-1695.92
-1665.03
-1634.24
-1605.92
-1581.09
-1559.35
-1539.64
-1521.51
-1506.62
-1496.35
-1491.01
-1490.78
-1496.47
-1504.83
-1511.95
-1513.58
-1507.2
-1490.73
-1460.86
-1416.5
-1361.43
-1300.17
-1235.68
-1169.34
-1102.14
-1036.48
-974.731
-917.104
-862.213
-808.622
-755.17
-701.34
-647.194
-593.042
-539.202
-485.873
-433.147
-381.078
-329.742
-279.373
-230.325
-182.453
-134.849
-88.6218
-35.3088
-673.311
-668.707
-665.456
-663.717
-661.617
-660.025
-661.912
-665.245
-668.358
-672.049
-678.133
-685.806
-693.058
-699.095
-703.972
-707.585
-709.163
-708.542
-706.541
-704.655
-704.067
-704.968
-706.982
-710.185
-715.143
-725.489
-738.276
-748.29
-759.381
-773.436
-791.126
-816.632
-852.302
-898.35
-953.25
-1013.98
-1076.95
-1139.46
-1201.41
-1263.75
-1327.9
-1397.07
-1474.85
-1563.4
-1660.3
-1753.57
-1825.36
-1858.3
-1847.81
-1820.05
-1799.1
-1780.11
-1763.23
-1748.86
-1730.05
-1703.88
-1673.97
-1644.05
-1616.68
-1592.79
-1571.99
-1553.19
-1536.02
-1521.9
-1511.64
-1505.46
-1503.87
-1507.67
-1514.45
-1520.19
-1521.1
-1514.31
-1497.54
-1468.06
-1425.2
-1372.04
-1312.43
-1249.1
-1183.59
-1117.07
-1051.7
-989.515
-930.824
-874.603
-819.673
-765.042
-710.246
-655.305
-600.446
-545.92
-491.895
-438.474
-385.736
-333.776
-282.818
-233.192
-184.747
-136.588
-89.7567
-35.6185
-673.388
-668.715
-665.482
-663.782
-661.652
-660.192
-662.21
-665.508
-668.518
-672.116
-678.244
-686.049
-693.38
-699.44
-704.345
-708.014
-709.574
-708.816
-706.606
-704.536
-703.811
-704.602
-706.4
-709.261
-713.841
-724.144
-737.348
-747.213
-758.144
-772.077
-789.855
-815.802
-852.035
-898.75
-954.345
-1015.61
-1078.65
-1140.64
-1201.65
-1262.72
-1325.48
-1393.66
-1471.34
-1561.2
-1661.46
-1760.07
-1837.67
-1872.47
-1858.84
-1828.1
-1806.33
-1786.41
-1769.36
-1755.44
-1737.13
-1711.87
-1683.15
-1654.45
-1628.22
-1605.36
-1585.62
-1567.84
-1551.65
-1538.17
-1527.74
-1520.65
-1517.94
-1520.27
-1525.6
-1530.17
-1530.26
-1522.94
-1505.83
-1476.66
-1435.02
-1383.46
-1325.27
-1262.99
-1198.24
-1132.31
-1067.17
-1004.58
-944.901
-887.41
-831.165
-775.345
-719.544
-663.747
-608.121
-552.862
-498.113
-443.979
-390.556
-337.952
-286.376
-236.142
-187.103
-138.316
-90.7731
-35.9236
-673.471
-668.725
-665.511
-663.848
-661.703
-660.383
-662.53
-665.783
-668.684
-672.184
-678.357
-686.299
-693.709
-699.789
-704.723
-708.457
-710.001
-709.104
-706.677
-704.424
-703.568
-704.263
-705.813
-708.378
-712.888
-722.93
-736.724
-746.487
-757.014
-770.761
-788.697
-815.107
-851.903
-899.295
-955.604
-1017.41
-1080.48
-1141.83
-1201.75
-1261.4
-1322.64
-1389.75
-1467.24
-1558.25
-1661.88
-1766.3
-1850.14
-1886.64
-1869.44
-1835.92
-1813.59
-1792.71
-1775.54
-1762.03
-1744.17
-1719.95
-1692.72
-1665.47
-1640.46
-1618.74
-1600.16
-1583.45
-1568.25
-1555.29
-1544.54
-1536.55
-1532.99
-1534.23
-1538.35
-1541.83
-1541.06
-1533.1
-1515.61
-1486.65
-1445.97
-1395.73
-1338.75
-1277.4
-1213.32
-1147.9
-1082.91
-1019.9
-959.278
-900.566
-843.036
-786.027
-729.19
-672.49
-616.048
-560.015
-504.514
-449.649
-395.528
-342.262
-290.043
-239.179
-189.53
-140.046
-91.6474
-36.2363
-673.543
-668.736
-665.546
-663.917
-661.774
-660.595
-662.87
-666.069
-668.856
-672.253
-678.47
-686.557
-694.046
-700.142
-705.106
-708.914
-710.447
-709.406
-706.754
-704.318
-703.34
-703.935
-705.239
-707.703
-712.367
-721.948
-735.94
-745.967
-756.124
-769.553
-787.665
-814.543
-851.9
-899.982
-957.026
-1019.37
-1082.39
-1142.97
-1201.66
-1259.76
-1319.37
-1385.39
-1462.61
-1554.67
-1661.7
-1772.61
-1863.06
-1900.92
-1879.48
-1843.44
-1820.78
-1798.93
-1781.73
-1768.61
-1751.23
-1728.28
-1702.73
-1677.01
-1653.35
-1632.9
-1615.51
-1599.89
-1585.66
-1573.1
-1561.96
-1553.18
-1549.08
-1549.58
-1552.72
-1555.17
-1553.49
-1544.82
-1526.87
-1497.99
-1458.05
-1408.86
-1352.9
-1292.35
-1228.86
-1163.83
-1098.9
-1035.44
-973.909
-914.018
-855.235
-797.041
-739.145
-681.502
-624.201
-567.36
-511.084
-455.473
-400.642
-346.7
-293.822
-242.311
-192.041
-141.8
-92.391
-36.5733
-673.597
-668.745
-665.581
-663.985
-661.863
-660.825
-663.228
-666.365
-669.033
-672.322
-678.582
-686.821
-694.39
-700.497
-705.491
-709.384
-710.911
-709.723
-706.838
-704.214
-703.137
-703.586
-704.768
-707.344
-712.12
-721.15
-734.794
-745.157
-755.315
-768.548
-786.785
-814.104
-852.025
-900.81
-958.607
-1021.48
-1084.36
-1144.01
-1201.33
-1257.77
-1315.72
-1380.71
-1457.74
-1550.82
-1661.21
-1779.27
-1876.71
-1915.64
-1889.02
-1850.63
-1827.83
-1805.03
-1787.9
-1775.2
-1758.44
-1736.94
-1713.14
-1689.06
-1666.86
-1647.75
-1631.57
-1617.06
-1603.73
-1591.5
-1579.97
-1570.62
-1566.33
-1566.41
-1568.74
-1570.2
-1567.55
-1558.06
-1539.57
-1510.65
-1471.24
-1422.89
-1367.77
-1307.89
-1244.87
-1180.11
-1115.15
-1051.2
-988.763
-927.726
-867.718
-808.343
-749.369
-690.752
-632.559
-574.883
-517.814
-461.447
-405.898
-351.272
-297.724
-245.554
-194.646
-143.595
-93.0748
-36.9445
-673.656
-668.756
-665.618
-664.052
-661.97
-661.067
-663.6
-666.671
-669.215
-672.39
-678.692
-687.092
-694.74
-700.853
-705.877
-709.869
-711.396
-710.057
-706.931
-704.114
-702.965
-703.23
-704.571
-707.148
-711.968
-720.362
-733.512
-744.121
-754.412
-767.668
-786.072
-813.783
-852.272
-901.777
-960.344
-1023.72
-1086.33
-1144.88
-1200.72
-1255.44
-1311.76
-1375.91
-1452.98
-1547.12
-1660.77
-1786.05
-1890.4
-1930.56
-1898.06
-1857.49
-1834.66
-1810.95
-1794.06
-1781.89
-1765.85
-1745.9
-1723.94
-1701.58
-1680.95
-1663.24
-1648.27
-1634.83
-1622.33
-1610.39
-1598.58
-1589.04
-1584.9
-1584.79
-1586.44
-1586.91
-1583.23
-1572.83
-1553.7
-1524.61
-1485.54
-1437.82
-1383.36
-1324.01
-1261.34
-1196.75
-1131.64
-1067.15
-1003.81
-941.655
-880.441
-819.89
-759.825
-700.215
-641.109
-582.585
-524.718
-467.593
-411.32
-355.999
-301.767
-248.917
-197.331
-145.447
-93.8538
-37.3456
-673.717
-668.763
-665.657
-664.118
-662.09
-661.317
-663.984
-666.984
-669.401
-672.456
-678.799
-687.368
-695.094
-701.207
-706.264
-710.367
-711.901
-710.408
-707.033
-704.026
-702.793
-702.984
-704.493
-706.953
-711.752
-719.612
-732.103
-742.956
-753.41
-766.811
-785.494
-813.59
-852.632
-902.877
-962.227
-1026.07
-1088.23
-1145.51
-1199.8
-1252.78
-1307.59
-1371.05
-1448.26
-1543.67
-1660.55
-1792.21
-1902.52
-1944.52
-1906.27
-1864.06
-1841.22
-1816.68
-1800.28
-1788.67
-1773.47
-1755.18
-1735.1
-1714.56
-1695.59
-1679.32
-1665.54
-1653.13
-1641.34
-1629.73
-1617.95
-1608.69
-1605
-1604.84
-1605.83
-1605.29
-1600.49
-1589.09
-1569.24
-1539.85
-1500.94
-1453.66
-1399.69
-1340.73
-1278.29
-1213.72
-1148.37
-1083.28
-1019.04
-955.774
-893.37
-831.651
-770.497
-709.892
-649.875
-590.507
-531.843
-473.958
-416.951
-360.913
-305.971
-252.407
-200.086
-147.395
-94.9466
-37.7798
-673.784
-668.769
-665.696
-664.18
-662.221
-661.572
-664.376
-667.304
-669.589
-672.519
-678.902
-687.648
-695.451
-701.557
-706.648
-710.88
-712.427
-710.778
-707.14
-703.963
-702.58
-702.911
-704.405
-706.73
-711.366
-718.818
-730.658
-741.679
-752.318
-765.927
-784.996
-813.528
-853.104
-904.095
-964.24
-1028.46
-1089.99
-1145.85
-1198.56
-1249.83
-1303.16
-1365.93
-1443.23
-1540.11
-1660.24
-1797.06
-1912.17
-1956.28
-1913.18
-1870.37
-1847.5
-1822.33
-1806.59
-1795.52
-1781.3
-1764.76
-1746.62
-1727.97
-1710.72
-1695.94
-1683.34
-1671.85
-1660.72
-1649.65
-1638.37
-1629.91
-1626.82
-1626.61
-1626.91
-1625.28
-1619.29
-1606.8
-1586.13
-1556.33
-1517.42
-1470.39
-1416.74
-1358.02
-1295.68
-1231.03
-1165.33
-1099.6
-1034.43
-970.059
-906.487
-843.627
-781.412
-719.836
-658.929
-598.727
-539.271
-480.616
-422.851
-366.058
-310.365
-256.035
-202.915
-149.485
-96.4634
-38.2536
-673.846
-668.776
-665.736
-664.239
-662.359
-661.83
-664.777
-667.628
-669.777
-672.578
-679
-687.931
-695.808
-701.902
-707.03
-711.407
-712.978
-711.166
-707.248
-703.923
-702.395
-702.857
-704.284
-706.592
-710.97
-718.062
-729.246
-740.331
-751.148
-764.997
-784.513
-813.563
-853.706
-905.423
-966.352
-1030.85
-1091.51
-1145.85
-1197.01
-1246.57
-1298.43
-1360.42
-1437.82
-1536.18
-1659.18
-1800.4
-1920.72
-1966.17
-1919.07
-1876.34
-1853.54
-1827.99
-1812.93
-1802.41
-1789.36
-1774.62
-1758.47
-1741.77
-1726.33
-1713.07
-1701.62
-1690.97
-1680.57
-1670.46
-1660.23
-1652.96
-1650.46
-1650.08
-1649.58
-1646.8
-1639.54
-1625.88
-1604.31
-1573.99
-1534.92
-1487.98
-1434.49
-1375.87
-1313.5
-1248.65
-1182.51
-1116.07
-1049.97
-984.517
-919.824
-855.881
-792.66
-730.157
-668.386
-607.362
-547.102
-487.648
-429.076
-371.468
-314.959
-259.798
-205.822
-151.713
-98.2836
-38.7568
-673.893
-668.777
-665.775
-664.292
-662.5
-662.093
-665.185
-667.957
-669.966
-672.636
-679.092
-688.215
-696.164
-702.239
-707.407
-711.948
-713.553
-711.577
-707.358
-703.883
-702.343
-702.782
-704.11
-706.464
-710.608
-717.345
-727.863
-738.938
-749.915
-764.03
-784.011
-813.631
-854.417
-906.869
-968.532
-1033.16
-1092.74
-1145.48
-1195.18
-1243.02
-1293.46
-1354.65
-1432.14
-1531.83
-1657.04
-1802.43
-1930.86
-1974.5
-1924.06
-1881.83
-1859.33
-1833.64
-1819.26
-1809.38
-1797.61
-1784.73
-1770.6
-1755.94
-1742.39
-1730.69
-1720.36
-1710.54
-1701.18
-1692.49
-1683.84
-1677.93
-1675.88
-1675.15
-1673.75
-1669.73
-1661.14
-1646.25
-1623.71
-1592.76
-1553.4
-1506.39
-1452.9
-1394.25
-1331.73
-1266.57
-1199.91
-1132.72
-1065.69
-999.216
-933.485
-868.546
-804.389
-741.003
-678.381
-616.517
-555.411
-495.093
-435.637
-377.136
-319.74
-263.686
-208.816
-154.04
-100.191
-39.2689
-673.945
-668.777
-665.813
-664.337
-662.64
-662.361
-665.599
-668.289
-670.153
-672.691
-679.18
-688.499
-696.516
-702.565
-707.776
-712.502
-714.154
-712.007
-707.474
-703.85
-702.332
-702.704
-703.935
-706.275
-710.232
-716.639
-726.493
-737.511
-748.632
-763.025
-783.489
-813.697
-855.188
-908.422
-970.76
-1035.32
-1093.57
-1144.8
-1193.09
-1239.22
-1288.35
-1348.76
-1426.27
-1527.06
-1653.95
-1803.76
-1942.55
-1980.42
-1927.91
-1886.64
-1864.71
-1839.23
-1825.61
-1816.44
-1806.04
-1795.06
-1783.01
-1770.46
-1758.88
-1748.77
-1739.6
-1730.75
-1722.85
-1715.99
-1709.26
-1704.68
-1702.89
-1701.65
-1699.25
-1693.93
-1683.96
-1667.8
-1644.22
-1612.55
-1572.78
-1525.56
-1471.94
-1413.13
-1350.35
-1284.78
-1217.54