/*--------------------------------*- C++ -*----------------------------------*\
| =========                 |                                                 |
| \\      /  F ield         | OpenFOAM: The Open Source CFD Toolbox           |
|  \\    /   O peration     | Version:  4.1                                   |
|   \\  /    A nd           | Web:      www.OpenFOAM.org                      |
|    \\/     M anipulation  |                                                 |
\*---------------------------------------------------------------------------*/
FoamFile
{
    version     2.0;
    format      ascii;
    class       surfaceScalarField;
    location    "1300";
    object      phi;
}
// * * * * * * * * * * * * * * * * * * * * * * * * * * * * * * * * * * * * * //

dimensions      [0 3 -1 0 0 0 0];

internalField   nonuniform List<scalar> 
52920
(
1838.61
-16.5465
1849.58
-10.9648
1861.65
-12.0637
1876.46
-14.7944
1900.1
-23.6291
1952.87
-52.7542
2044.38
-91.5032
2169.33
-124.943
2323.59
-154.247
2503.9
-180.299
2704.55
-200.643
2919.4
-214.847
3144.85
-225.441
3379.82
-234.965
3624.57
-244.744
3880.21
-255.636
4149.18
-268.959
4434.88
-285.693
4740.29
-305.41
5066.19
-325.899
5409.24
-343.046
5759.93
-350.68
6099.63
-339.7
6398.85
-299.213
6623.73
-224.882
6752.55
-128.811
6791.91
-39.3585
6771.02
20.8959
6725.37
45.6609
6687.66
37.7064
6689.14
-1.47338
6754.28
-65.1372
6895.45
-141.159
7115.55
-220.093
7409.42
-293.868
7766.92
-357.498
8176.09
-409.164
8624.78
-448.686
9100.87
-476.085
9591.74
-490.863
10083.2
-491.471
10558.7
-475.532
10998.9
-440.19
11381.6
-382.621
11683.7
-302.143
11885.9
-202.218
11976.7
-90.7935
11954.4
22.2861
11821
133.497
11584.2
236.733
11256
328.243
10843.8
412.174
10352.7
491.064
9791.31
561.436
9176.51
614.797
8532.59
643.921
7884.78
647.818
7254.35
630.424
6657.86
596.491
6108.41
549.449
5617.53
490.887
5196.18
421.344
4858.21
337.973
4613.1
245.101
4475.96
137.139
4468.34
7.62647
4589.07
-120.738
4847.7
-258.625
5253.67
-405.973
5744.71
-491.042
6195.51
-450.794
6433.1
-237.594
6395.71
37.3933
6051.32
344.382
5446.27
605.05
4717.11
729.158
3942.97
774.14
3188.3
754.675
2543.68
644.618
2165.25
378.428
2380.45
-215.196
2713.65
-333.199
2421.62
292.021
2097.58
324.044
3192.29
-1094.71
4156.47
-964.184
3324.67
831.805
1881.73
1442.94
1564.56
317.168
2010.09
-445.53
3274.97
-1264.88
4671.84
-1396.87
5232.14
-560.296
4548.31
683.829
3367.29
1181.02
2275.95
1091.34
1813.07
462.881
2201.1
-388.033
3243.48
-1042.38
-859.755
1845.25
-35.8239
1858.93
-24.6385
1873.05
-26.1703
1889.49
-31.2226
1915.42
-49.5393
1972.14
-109.472
2066.95
-186.3
2188.9
-246.881
2330.43
-295.771
2492.12
-341.98
2677.41
-385.923
2887.93
-425.36
3121.89
-459.398
3374.4
-487.462
3639.16
-509.5
3910.85
-527.319
4186.98
-545.084
4467.96
-566.667
4755.65
-593.099
5051.62
-621.862
5355.61
-647.038
5664.34
-659.399
5968.56
-643.915
6248.67
-579.326
6475.35
-451.554
6621.32
-274.777
6681.76
-99.7914
6678.76
23.9008
6647.52
76.9033
6623.05
62.1823
6636.06
-14.4813
6706.8
-135.866
6846.9
-281.261
7061.7
-434.89
7347.88
-580.042
7696.64
-706.251
8096.82
-809.338
8536.66
-888.523
9004.08
-943.499
9486.28
-973.063
9968.97
-974.151
10435.7
-942.225
10867.3
-871.806
11242
-757.321
11537.2
-597.328
11733.5
-398.539
11819.1
-176.44
11791.1
50.3759
11651.8
272.801
11410.7
477.809
11079.7
659.256
10666.1
825.734
10174.7
982.479
9613.75
1122.39
9000.41
1228.14
8359.23
1285.1
7715.59
1291.46
7090.55
1255.46
6500.14
1186.9
5956.81
1092.78
5471.32
976.373
5053.83
838.84
4717.41
674.391
4471.11
491.394
4330.67
277.584
4330.61
7.68479
4461.97
-252.098
4715.79
-512.449
5107.43
-797.617
5580.59
-964.198
6014.65
-884.85
6242.12
-465.068
6185.39
94.1169
5818.21
711.566
5210.91
1212.35
4467.44
1472.62
3655.53
1586.05
2845.91
1564.29
2176.5
1314.03
1830.89
724.043
2166.21
-550.521
2493.47
-660.46
2185.37
600.125
1633.72
875.692
2373.42
-1834.41
3355.64
-1946.41
2431.75
1755.7
-1327.52
5202.21
-5534.23
4523.87
-6830.89
851.131
-6470.58
-1625.18
-7110.16
-757.302
-7618.14
-52.3083
-7410.93
476.619
-7084.26
854.347
-6847.35
854.432
-6981.46
596.984
-7049.14
-320.349
-7121.05
-970.47
-791.183
1840.84
-55.4331
1854.79
-38.5837
1869.15
-40.5237
1886.09
-48.1447
1912.39
-75.8299
1965.37
-162.44
2045.99
-266.913
2144.67
-345.549
2268.38
-419.48
2435.61
-509.198
2654.79
-605.093
2915.74
-686.307
3198.51
-742.167
3484.67
-773.617
3762.31
-787.133
4026.19
-791.199
4276.61
-795.494
4517.5
-807.559
4754.35
-829.94
4992.26
-859.765
5234.75
-889.532
5483.35
-907.991
5735.75
-896.311
5981.17
-824.739
6197.42
-667.806
6356.8
-434.145
6444.3
-187.287
6470.75
-2.54455
6466.2
81.4546
6464.98
63.4028
6496.18
-45.6715
6576.67
-216.356
6718.7
-423.28
6929.9
-646.083
7209.02
-859.164
7549
-1046.22
7939.72
-1200.05
8369.84
-1318.64
8827.48
-1401.14
9300.31
-1445.89
9774.75
-1448.58
10235
-1402.47
10662.2
-1299.06
11034.4
-1129.51
11328.3
-891.221
11523.7
-593.93
11607.9
-260.611
11576.6
81.7227
11432.9
416.494
11187.8
722.86
10853.7
993.406
10437.5
1241.89
9943.39
1476.61
9379.18
1686.6
8762.39
1844.93
8118.54
1928.94
7473.84
1936.16
6849.62
1879.69
6261.69
1774.83
5722.04
1632.43
5240.82
1457.6
4827.28
1252.38
4493.75
1007.92
4249.15
735.99
4107.81
418.925
4122.31
-6.81912
4270.9
-400.688
4523.74
-765.286
4913.72
-1187.59
5400.77
-1451.25
5864.1
-1348.19
6121.15
-722.116
6058.1
157.172
5651.8
1117.86
5005.29
1858.86
4208.79
2269.12
3324.42
2470.43
2403.96
2484.75
1598.2
2119.79
1317.57
1004.67
1768.29
-1001.24
2103.49
-995.663
1786.58
917.029
-981.778
3644.05
-4551.21
1735.02
-6389.67
-107.95
-6158.83
1524.86
-4584.11
3627.48
-4571.26
4511.03
-5539.82
1819.69
-6589.57
-575.428
-6947.32
-399.554
-7236.07
236.44
-7376.22
616.77
-7489.81
967.934
-7567.12
931.748
-7608.5
638.363
-7736.61
-192.246
-8060.84
-646.24
-521.791
1828.68
-73.8791
1840.84
-50.7366
1853.05
-52.7315
1867.52
-62.6025
1887.47
-95.7577
1924.67
-199.635
1983.83
-326.063
2075.21
-436.915
2225.99
-570.258
2450
-733.191
2727.93
-883.019
3024.76
-983.128
3313.29
-1030.69
3580.73
-1041.05
3824.22
-1030.63
4045.86
-1012.83
4250.42
-1000.05
4444.29
-1001.42
4634.18
-1019.82
4825.84
-1051.42
5023.25
-1086.94
5228.94
-1113.68
5443.33
-1110.7
5660.89
-1042.29
5865.92
-872.838
6033.57
-601.785
6143.85
-297.562
6198.99
-57.6774
6222.7
57.7444
6247.1
39.0114
6298.18
-96.7464
6389.94
-308.117
6536.19
-569.52
6746.44
-856.331
7021.5
-1134.21
7355.68
-1380.4
7739.44
-1583.81
8162.12
-1741.31
8613.34
-1852.36
9082.6
-1915.15
9557.25
-1923.22
10021.1
-1866.28
10453.9
-1731.9
10832
-1507.63
11130.7
-1189.92
11328.7
-791.871
11412.4
-344.33
11376.9
117.267
11226.4
567.013
10974
975.171
10633.2
1334.24
10210.7
1664.37
9709.62
1977.73
9136.98
2259.24
8510.64
2471.27
7857.43
2582.14
7204.83
2588.77
6574.72
2509.8
5982.99
2366.56
5441.42
2174
4959.77
1939.25
4546.67
1665.47
4214.09
1340.5
3971.56
978.51
3830.17
560.316
3868.69
-45.3448
4041.83
-573.82
4297.34
-1020.8
4707.77
-1598.02
5249.42
-1992.91
5767.09
-1865.85
6046.3
-1001.33
5941.44
262.034
5458.08
1601.21
4739.95
2576.99
3867.98
3141.09
2892.1
3446.31
1798.23
3578.62
448.771
3469.24
-1555.62
3009.06
-4985
2428.14
-7345.14
1364.48
-7044.03
615.913
-5009.03
1609.06
-5226.52
1952.52
-5530.78
196.309
-5419.06
1413.14
-5251.26
3459.68
-5006.82
4266.58
-5583.72
2396.6
-6613.95
454.795
-7072.38
58.8829
-7221.41
385.465
-7287.78
683.14
-7296.23
976.383
-7317.84
953.358
-7370.13
690.653
-7573.96
11.5818
-7832.39
-387.811
-307.704
1810.8
-89.6588
1819.34
-59.275
1827.28
-60.6555
1836.13
-71.4408
1845.05
-104.67
1866.63
-221.197
1922.12
-381.552
2042.18
-556.961
2247.29
-775.365
2517.78
-1003.67
2810.02
-1175.25
3090.1
-1263.2
3344.24
-1284.83
3571.38
-1268.19
3774.81
-1234.05
3958.5
-1196.51
4127.18
-1168.73
4286.69
-1160.93
4443.3
-1176.43
4602.49
-1210.61
4768.12
-1252.56
4942.96
-1288.51
5128.83
-1296.58
5323.65
-1237.1
5517.15
-1066.34
5688.17
-772.794
5815.48
-424.868
5895.6
-137.797
5945.36
7.99784
5994.37
-9.99485
6064.35
-166.722
6167.19
-410.952
6319.34
-721.67
6531.3
-1068.28
6805.14
-1408.05
7135.7
-1710.96
7514.5
-1962.61
7933.93
-2160.73
8387.13
-2305.56
8864.68
-2392.69
9351.83
-2410.37
9828.96
-2343.4
10273.2
-2176.18
10659.7
-1894.06
10963.3
-1493.54
11162.7
-991.256
11244.1
-425.749
11201.8
159.541
11041.3
727.585
10778
1238.4
10426.8
1685.48
9994.27
2096.89
9482.37
2489.63
8897.19
2844.42
8256.86
3111.6
7589.68
3249.32
6924.39
3254.06
6283.29
3150.9
5682.18
2967.67
5132.71
2723.46
4644.52
2427.45
4225.98
2084.01
3889.28
1677.21
3646.01
1221.78
3502.43
703.889
3575.08
-117.997
3778.77
-777.504
4047.93
-1289.96
4505.68
-2055.78
5107.29
-2594.52
5639.95
-2398.51
5890.31
-1251.69
5697.89
454.452
5119.1
2180.01
4331.14
3364.95
3393.41
4078.81
2340.37
4499.35
1130.3
4788.68
-419.075
5018.62
-2213.09
4803.07
-3192.66
3407.7
-3394.78
1566.6
-3849.41
1070.54
-4612.21
2371.85
-5222.84
2563.15
-5877.95
851.419
-5900.93
1436.13
-5670.09
3228.84
-5234.43
3830.92
-5400.94
2563.1
-6168.34
1222.2
-6790.8
681.346
-7130.97
725.635
-7397.25
949.411
-7575.56
1154.7
-7736.15
1113.94
-7904.24
858.745
-8242.48
349.82
-8589.75
-40.5415
-55.3113
1789.73
-102.15
1794.61
-64.1469
1798.5
-64.5339
1801.96
-74.8858
1801.66
-104.352
1817.18
-236.707
1888.74
-453.106
2049.86
-718.069
2292.42
-1017.92
2570.41
-1281.66
2841.74
-1446.58
3087.7
-1509.15
3306.06
-1503.18
3500.19
-1462.31
3673.64
-1407.5
3829.31
-1352.18
3970.9
-1310.31
4103.66
-1293.69
4233.72
-1306.48
4366.56
-1343.44
4505.98
-1391.98
4654.95
-1437.47
4816.23
-1457.86
4990.18
-1411.04
5170.67
-1246.83
5340.07
-942.188
5478.34
-563.135
5578.62
-238.072
5651
-64.3748
5721.89
-80.876
5808.54
-253.367
5922.08
-524.489
6080.91
-880.495
6295.97
-1283.34
6569.64
-1681.71
6897.8
-2039.12
7276.38
-2341.19
7703.37
-2587.72
8172.89
-2775.07
8670.39
-2890.18
9174.32
-2914.31
9661.34
-2830.42
10109
-2623.82
10494.9
-2279.94
10796.7
-1795.34
10994.4
-1188.94
11074
-505.42
11028.1
205.501
10861.3
894.381
10590.5
1509.23
10230.7
2045.24
9787.98
2539.61
9262.95
3014.67
8661.23
3446.14
8002.35
3770.49
7317.11
3934.56
6635.78
3935.4
5980.5
3806.17
5366.3
3581.88
4804.27
3285.48
4303.84
2927.88
3873.3
2514.54
3525.63
2024.88
3276.37
1471.04
3126.85
853.408
3242.96
-234.109
3489.97
-1024.52
3796.96
-1596.95
4289.18
-2548
4876.46
-3181.8
5345.35
-2867.4
5537.19
-1443.53
5245.32
746.318
4579.84
2845.48
3748.59
4196.2
2782.33
5045.08
1704.11
5577.57
496.678
5996.12
-941.693
6456.99
-2435.29
6296.67
-3341.05
4313.46
-3772.47
1998.01
-4413.86
1711.94
-4637.88
2595.87
-4881.89
2807.16
-5584.22
1553.75
-6033.8
1885.71
-5992.89
3187.93
-5797.97
3636
-6112.3
2877.43
-6841.08
1950.97
-7569.46
1409.73
-8138.81
1294.98
-8580.32
1390.92
-8910.69
1485.07
-9185.54
1388.79
-9435.7
1108.91
-9759.66
673.779
-10108.3
308.11
221.96
1775.66
-112.824
1778.31
-66.7945
1779.94
-66.1536
1779.47
-74.3971
1771.18
-96.0504
1785.54
-251.057
1878.45
-546.012
2070.93
-910.543
2324.91
-1271.89
2586.71
-1543.45
2827.45
-1687.32
3040.99
-1722.69
3230.01
-1692.19
3398.11
-1630.41
3547.67
-1557.05
3680.45
-1484.96
3799.5
-1429.36
3909.88
-1404.05
4017.72
-1414.32
4128.5
-1454.23
4245.88
-1509.35
4372.75
-1564.34
4512.48
-1597.58
4667.14
-1565.7
4833.68
-1413.36
4997.77
-1106.27
5142
-707.36
5257.49
-353.559
5348.94
-155.816
5438.32
-170.251
5538.77
-353.818
5662.4
-648.113
5827.82
-1045.91
6046.21
-1501.72
6320.32
-1955.82
6650.75
-2369.54
7041.06
-2731.49
7490.31
-3036.97
7983.47
-3268.23
8494.72
-3401.43
8997.82
-3417.41
9472.4
-3304.99
9902.62
-3054.04
10272.1
-2649.42
10562.1
-2085.38
10754
-1380.79
10833.7
-585.159
10791.8
247.478
10631.4
1054.75
10368.6
1772.03
10015.9
2397.98
9575.26
2980.21
9043.94
3545.99
8426.75
4063.32
7746.53
4450.72
7039.42
4641.67
6338.98
4635.83
5667.35
4477.8
5037.91
4211.32
4460.34
3863.05
3943.3
3444.92
3494.79
2963.06
3128.7
2390.97
2866.58
1733.16
2706.64
1013.35
2875.29
-402.769
3195.15
-1344.37
3551.62
-1953.42
3986.87
-2983.25
4448
-3642.94
4810
-3229.39
4969.6
-1603.13
4590.86
1125.06
3854.68
3581.67
3012.09
5038.79
2056.34
6000.83
1011.29
6622.62
-119.84
7127.25
-1383.06
7720.21
-2539.34
7452.94
-3111.93
4886.06
-3206.26
2092.34
-3697.15
2202.83
-4271.62
3170.33
-4840.99
3376.53
-5835.04
2547.8
-6670.95
2721.62
-7055.56
3572.54
-7308.59
3889.03
-7797.35
3366.19
-8451.86
2605.49
-9094.59
2052.46
-9627.5
1827.89
-10040
1803.39
-10347.9
1793
-10604.2
1645.04
-10847
1351.74
-11132.3
959.126
-11440.2
615.975
496.8
1762.28
-121.843
1763.2
-67.7076
1763.23
-66.1708
1759.01
-70.1661
1743.47
-80.4912
1760.89
-268.469
1875.81
-660.918
2086.8
-1121.53
2334.11
-1519.19
2569.86
-1779.2
2779.74
-1897.19
2965.14
-1908.08
3129.95
-1856.99
3276.68
-1777.14
3406.44
-1686.81
3520.08
-1598.59
3620.13
-1529.4
3711.53
-1495.45
3800.53
-1503.32
3892.64
-1546.33
3991.28
-1607.99
4099.16
-1672.21
4219.96
-1718.37
4356.91
-1702.65
4509.12
-1565.56
4665.15
-1262.29
4811.24
-853.438
4937.13
-479.447
5044.17
-262.848
5149.08
-275.158
5260.48
-465.209
5392.88
-780.505
5564.47
-1217.49
5786.23
-1723.48
6064.27
-2233.85
6408.13
-2713.39
6823.77
-3147.12
7297.73
-3510.93
7798.87
-3769.36
8296.1
-3898.65
8769.76
-3891.07
9210.11
-3745.34
9609.48
-3453.41
9955.03
-2994.96
10228.2
-2358.58
10409.2
-1561.77
10484.2
-660.162
10444.5
287.187
10296.4
1202.89
10057
2011.36
9734.31
2720.71
9320.85
3393.68
8803.82
4063.02
8183.1
4684.04
7485.16
5148.67
6755.11
5371.71
6033.42
5357.52
5343.84
5167.39
4698
4857.16
4103.3
4457.74
3566.79
3981.43
3095.41
3434.44
2703.25
2783.13
2420.96
2015.45
2244.86
1189.45
2468.29
-626.2
2856.06
-1732.14
3205.73
-2303.1
3486.42
-3263.94
3787.84
-3944.35
4050.69
-3492.24
4209.12
-1761.56
3763.14
1571.03
2964.51
4380.3
2113.25
5890.05
1202.44
6911.63
245.685
7579.37
-804.664
8177.59
-1922.57
8838.11
-2824.07
8354.44
-3350.74
5412.74
-3885.79
2627.38
-4500.72
2817.76
-5198.32
3867.93
-5996.64
4174.85
-7080.45
3631.61
-8018.3
3659.46
-8579.6
4133.85
-8939.74
4249.17
-9342.28
3768.73
-9824.09
3087.3
-10316.3
2544.66
-10744.6
2256.22
-11081.6
2140.42
-11337.2
2048.57
-11554.6
1862.41
-11770.1
1567.29
-12016.7
1205.67
-12282.5
881.793
745.28
1749.22
-129.164
1748.62
-67.094
1747.3
-64.8383
1739.22
-62.0815
1717.31
-58.561
1740.69
-291.839
1874.18
-794.405
2090.51
-1337.85
2319.46
-1748.14
2525.94
-1985.67
2707.51
-2078.75
2869.12
-2069.69
3013.96
-2001.83
3143.11
-1906.28
3256.52
-1800.22
3354.2
-1696.26
3438.19
-1613.39
3513.34
-1570.59
3586.07
-1576.05
3661.98
-1622.23
3744.28
-1690.29
3835.45
-1763.37
3939.38
-1822.3
4060.06
-1823.32
4198.1
-1703.59
4344.32
-1408.51
4488.31
-997.426
4620.05
-611.179
4739.97
-382.765
4857.24
-392.418
4976.91
-584.868
5117.04
-920.635
5294.46
-1394.9
5521.28
-1950.29
5811.96
-2524.54
6181.51
-3082.93
6622.87
-3588.49
7102.2
-3990.26
7582.28
-4249.44
8042.56
-4358.93
8477.82
-4326.32
8887.15
-4154.67
9264.8
-3831.06
9595.28
-3325.45
9855.71
-2619
10022.2
-1728.29
10079.9
-717.772
10022
345
9865.8
1359.14
9640.46
2236.71
9355.21
3005.96
8990.95
3757.94
8515.4
4538.57
7913.16
5286.29
7209.6
5852.23
6460.68
6120.64
5717.95
6100.25
5009.79
5875.55
4347.1
5519.86
3734.65
5070.19
3177.01
4539.07
2678.96
3932.49
2252.65
3209.44
1942.92
2325.17
1760.92
1371.45
1976.76
-842.037
2249.2
-2004.58
2498.1
-2552
2686.38
-3452.21
2910.35
-4168.33
3066.24
-3648.13
3222.65
-1917.97
2718.74
2074.94
1878.31
5220.73
1075.18
6693.18
252.2
7734.61
-655.551
8487.13
-1571.95
9093.99
-2445.21
9711.37
-3331.28
9240.52
-4408.66
6490.12
-5587.23
3805.95
-6404.19
3634.71
-7025.36
4489.11
-7708.37
4857.86
-8582.07
4505.31
-9345.62
4423.02
-9817.34
4605.57
-10102.6
4534.43
-10390.9
4057.03
-10742.6
3438.94
-11119.2
2921.32
-11461.7
2598.73
-11740.2
2418.87
-11959.2
2267.56
-12150.6
2053.79
-12344.7
1761.48
-12564.1
1425.03
-12800.8
1118.45
980.482
1735.91
-134.374
1733.5
-64.6805
1730.45
-61.7715
1717.91
-49.5326
1690.71
-31.3407
1721.95
-323.073
1868.53
-940.971
2078.89
-1548.2
2282.95
-1952.19
2460.47
-2163.19
2617.32
-2235.59
2759.27
-2211.63
2887.91
-2130.47
3002.78
-2021.15
3102.79
-1900.22
3187.12
-1780.59
3257.38
-1683.64
3318.39
-1631.59
3376.79
-1634.44
3438.35
-1683.79
3506.09
-1758.03
3582.21
-1839.48
3670.79
-1910.88
3776.27
-1928.8
3900.44
-1827.75
4035.82
-1543.87
4174.57
-1136.17
4308.96
-745.557
4438.6
-512.4
4564.32
-518.128
4690.85
-711.397
4838.06
-1067.84
5021.5
-1578.33
5258.62
-2187.41
5572.51
-2838.42
5969.36
-3479.77
6419.28
-4038.4
6879.76
-4450.74
7326.26
-4695.94
7755.38
-4788.05
8170.46
-4741.39
8570.35
-4554.55
8945.17
-4205.88
9274.5
-3654.78
9530.6
-2875.09
9684.87
-1882.55
9717.85
-750.752
9620.09
442.759
9419.28
1559.95
9168.07
2487.92
8894.01
3280.02
8576.77
4075.18
8160.63
4954.71
7600.7
5846.22
6909.57
6543.36
6151.14
6879.06
5390.82
6860.57
4664.98
6601.39
3985.71
6199.13
3355.56
5700.35
2776.01
5118.61
2248.5
4459.99
1778.56
3679.39
1424.68
2679.04
1301.69
1494.45
1372.5
-912.855
1252.69
-1884.77
1424.13
-2723.44
1670.63
-3698.7
1854.89
-4352.59
1875.31
-3668.56
2064.21
-2106.87
1705.03
2434.11
969.477
5956.27
63.2971
7599.36
-877.034
8674.94
-1661.02
9271.12
-2289.77
9722.74
-2965.97
10387.6
-3902.06
10176.6
-5344.17
7932.23
-6918.62
5380.4
-7959.16
4675.25
-8579.89
5109.84
-9111.97
5389.94
-9728.54
5121.88
-10262.6
4957.05
-10594.7
4937.7
-10796.2
4735.96
-11000.8
4261.61
-11255.8
3693.95
-11537.3
3202.8
-11800.9
2862.35
-12019.8
2637.73
-12194.9
2442.7
-12349.5
2208.37
-12508.5
1920.5
-12689
1605.51
-12890
1319.45
1194.01
1719.17
-136.895
1714.85
-60.3448
1709.85
-56.7666
1692.9
-32.5643
1663.16
-1.58916
1703.49
-363.396
1855.97
-1093.45
2051.36
-1743.59
2227.71
-2128.54
2378.55
-2314.03
2514.63
-2371.68
2640.83
-2337.83
2756.69
-2246.32
2860.21
-2124.66
2949.27
-1989.28
3022.32
-1853.63
3080.57
-1741.9
3128.91
-1679.92
3174.34
-1679.87
3222.87
-1732.32
3277.37
-1812.52
3339.69
-1901.8
3414.06
-1985.26
3505.14
-2019.87
3615.67
-1938.27
3739.47
-1667.67
3870.82
-1267.52
4005.19
-879.922
4140.5
-647.71
4271.99
-649.61
4405.44
-844.834
4558.94
-1221.33
4750.14
-1769.53
5005.3
-2442.56
5346.61
-3179.74
5759.29
-3892.45
6199.78
-4478.88
6636.15
-4887.1
7061.57
-5121.35
7480.4
-5206.88
7893.91
-5154.9
8296.42
-4957.05
8675.21
-4584.67
9008.29
-3987.86
9265.76
-3132.56
9415.3
-2032.09
9430.53
-765.973
9292.87
580.416
9030.46
1822.37
8715.05
2803.33
8405.09
3589.99
8102.24
4378.02
7740.5
5316.45
7237.53
6349.19
6576.96
7203.93
5821.64
7634.38
5050.12
7632.09
4309.24
7342.27
3614.51
6893.85
2967.2
6347.66
2365.62
5720.19
1806.49
5019.11
1279.63
4206.26
863.019
3095.65
711.158
1646.3
555.959
-757.658
263.3
-1592.11
387.564
-2847.71
574.571
-3885.71
622.113
-4400.13
517.864
-3564.31
285.806
-1874.81
-449.328
3169.25
-854.546
6361.49
-1414.66
8159.48
-2022.29
9282.56
-2483.25
9732.08
-2964.02
10203.5
-3578.98
11002.5
-4551.66
11149.3
-6116.97
9497.55
-7800.52
7063.95
-8928.63
5803.35
-9550.83
5732.04
-9980.26
5819.37
-10409.9
5551.56
-10768.4
5315.48
-10988.2
5157.54
-11121.6
4869.39
-11261.4
4401.43
-11443.9
3876.44
-11655.1
3413.92
-11861.8
3069.14
-12041.5
2817.44
-12193.2
2594.36
-12333.5
2348.67
-12482.1
2069.04
-12651.5
1774.93
-12842.1
1510.06
1401.33
1706.17
-137.391
1700.25
-54.4198
1693.26
-49.7617
1671.87
-11.1672
1639.76
30.5451
1685.09
-408.721
1834.55
-1242.89
2008.87
-1917.9
2157.5
-2277.16
2284.95
-2441.47
2404.27
-2490.99
2518.36
-2451.91
2624.48
-2352.43
2719.09
-2219.27
2799.16
-2069.34
2862.45
-1916.93
2909.92
-1789.35
2946.57
-1716.57
2979.9
-1713.19
3016.28
-1768.7
3058.43
-1854.66
3107.9
-1951.26
3168.96
-2046.31
3246.21
-2097.12
3343.2
-2035.26
3454.87
-1779.33
3576.96
-1389.59
3708.42
-1011.38
3846.39
-785.669
3982.87
-786.077
4122.77
-984.726
4282.19
-1380.75
4484.99
-1972.33
4763.8
-2721.36
5127.91
-3543.84
5544.21
-4308.74
5972.28
-4906.94
6395.51
-5310.33
6814.34
-5540.17
7230.72
-5623.26
7642.1
-5566.28
8042.15
-5357.09
8419.95
-4962.47
8754.8
-4322.71
9015.8
-3393.55
9167.42
-2183.7
9176.14
-774.689
9014.66
741.895
8704.42
2132.62
8319.69
3188.06
7941.31
3968.37
7609.05
4710.28
7274.23
5651.28
6826.49
6796.93
6208.57
7821.86
5469
8373.95
4694.45
8406.64
3942.67
8094.04
3234.43
7602.09
2570.97
7011.12
1947.74
6343.42
1354.93
5611.92
757.675
4803.51
3.02952
3850.29
-481.243
2130.57
-728.666
-510.238
-729.254
-1591.53
-798.37
-2778.6
-844.855
-3839.22
-1040.98
-4204.01
-1450.57
-3154.72
-2861.86
-463.527
-3581.72
3889.12
-2452.62
5232.39
-2574.61
8281.47
-3003.56
9711.51
-3410.37
10138.9
-3897.63
10690.8
-4515.69
11620.6
-5463.49
12097.1
-6896.05
10930.1
-8414.11
8582.01
-9474.34
6863.59
-10062.2
6319.85
-10417.6
6174.78
-10725.1
5859.13
-10969.3
5559.61
-11117.8
5306.09
-11214.5
4966.1
-11326.6
4513.5
-11480.7
4030.58
-11666.5
3599.68
-11857.7
3260.34
-12035
2994.69
-12195.8
2755.22
-12351.5
2504.34
-12516.1
2233.68
-12698.1
1956.94
-12896.7
1708.67
1608.73
1693.11
-135.925
1685.77
-47.0692
1676.35
-40.3275
1650.22
14.9665
1615.91
64.8716
1662.94
-455.744
1803.2
-1383.14
1953.64
-2068.34
2076.23
-2399.74
2183.95
-2549.2
2290.36
-2597.39
2395.66
-2557.21
2494.64
-2451.4
2582.32
-2306.94
2654.86
-2141.87
2709.51
-1971.57
2746.99
-1826.84
2772.61
-1742.18
2794.37
-1734.95
2819.09
-1793.41
2849.46
-1885.02
2886.8
-1988.6
2935.26
-2094.77
2999.04
-2160.9
3082.5
-2118.71
3181.55
-1878.37
3292.74
-1500.78
3418.96
-1137.59
3557.81
-924.507
3698.69
-926.95
3843.92
-1129.95
4009.91
-1546.74
4228.73
-2191.14
4532.27
-3024.89
4912.74
-3924.31
5329.49
-4725.49
5750.91
-5328.35
6167.52
-5726.95
6579.12
-5951.77
6985.92
-6030.06
7386.58
-5966.94
7777.97
-5748.48
8152.09
-5336.59
8488.85
-4659.46
8755.1
-3659.8
8911.5
-2340.1
8917.56
-780.736
8741.87
917.582
8403.57
2470.93
7969.71
3621.92
7522.09
4416
7131.56
5100.81
6788.64
5994.21
6379.42
7206.14
5806.68
8394.6
5092.53
9088.1
4323.39
9175.79
3565.84
8851.59
2846.74
8321.2
2168.56
7689.3
1524.38
6987.6
901.589
6234.71
240.858
5464.24
-472.481
4563.63
-802.828
2460.92
-1265.45
-47.6231
-1461.27
-1395.7
-1652.31
-2587.56
-1868.67
-3622.86
-2183.38
-3889.3
-2579.43
-2758.67
-3184.34
141.379
-3268.52
3973.29
-3582.41
5546.28
-3804.95
8504.01
-4191.99
10098.6
-4651.39
10598.3
-5181.72
11221.1
-5777.19
12216.1
-6572.2
12892.1
-7678.57
12036.5
-8870.21
9773.65
-9767.44
7760.82
-10287.4
6839.77
-10584
6471.45
-10821
6096.06
-11010.2
5748.87
-11139.8
5435.67
-11246.1
5072.41
-11375.3
4642.68
-11543.1
4198.44
-11739.4
3795.98
-11942.8
3463.71
-12137.3
3189.2
-12320.1
2938.02
-12498.8
2683.03
-12683.7
2418.59
-12880.8
2154.02
-13088
1915.88
1817.08
1679.97
-132.528
1671.19
-38.279
1658.84
-27.968
1627.84
45.9885
1591.09
101.639
1636.3
-500.949
1762.73
-1509.56
1888.38
-2193.98
1987.46
-2498.82
2079.2
-2640.93
2176.31
-2694.49
2275.77
-2656.67
2369.79
-2545.41
2452.04
-2389.19
2518.12
-2207.95
2564.88
-2018.32
2592.93
-1854.89
2607.88
-1757.12
2618.32
-1745.38
2631.57
-1806.65
2650.52
-1903.97
2676.31
-2014.38
2712.75
-2131.2
2763.23
-2211.37
2832.96
-2188.44
2918.77
-1964.17
3017.51
-1599.51
3137.04
-1257.11
3276.07
-1063.54
3420.31
-1071.17
3569.56
-1279.19
3743.56
-1720.73
3981.86
-2429.43
4309.54
-3352.57
4703.79
-4318.55
5121.68
-5143.37
5536.9
-5743.57
5942.61
-6132.65
6339.9
-6349.06
6731.74
-6421.89
7120.07
-6355.26
7504.28
-6132.69
7877.73
-5710.04
8219.65
-5001.38
8493.67
-3933.82
8656.09
-2502.52
8657.31
-781.943
8463.33
1111.55
8101.17
2833.1
7636.32
4086.76
7137.04
4915.29
6683.24
5554.6
6305.83
6371.62
5911.7
7600.27
5377.7
8928.61
4694.02
9771.79
3937.67
9932.13
3179.81
9609.45
2453
9048
1761.81
8380.49
1098.18
7651.23
444.24
6888.65
-247.39
6155.87
-856.697
5172.93
-1274.61
2878.83
-1897.53
575.289
-2231.35
-1061.87
-2552.28
-2266.64
-2916.5
-3258.64
-3374.2
-3431.6
-3895.35
-2237.52
-4453.1
699.122
-4550.71
4070.9
-4993.92
5989.5
-5279.34
8789.43
-5618.46
10437.7
-6067.44
11047.3
-6552.14
11705.8
-7047.62
12711.5
-7618.74
13463.2
-8363.88
12781.6
-9216.51
10626.3
-9925.41
8469.72
-10366.5
7280.81
-10630.2
6735.24
-10848.1
6313.88
-11036.9
5937.67
-11192.1
5590.91
-11339.5
5219.77
-11506.7
4809.87
-11701.2
4392.98
-11914.2
4008.96
-12129.6
3679.13
-12335.8
3395.37
-12530.7
3132.99
-12720.4
2872.66
-12912.8
2611.01
-13113
2354.18
-13318.9
2121.86
2020.93
1666.41
-126.974
1655.75
-27.6093
1639.9
-12.1131
1603.79
82.1124
1564.17
141.272
1604.8
-541.569
1714.49
-1619.25
1815.75
-2295.24
1894.3
-2577.36
1973.69
-2720.32
2064.8
-2785.59
2160.95
-2752.82
2251.72
-2636.18
2329.68
-2467.14
2390.1
-2268.37
2429.52
-2057.73
2448.49
-1873.85
2452.92
-1761.55
2452
-1744.46
2453.76
-1808.4
2461.53
-1911.74
2476.32
-2029.17
2501.17
-2156.04
2538.2
-2248.4
2593.74
-2243.97
2665.65
-2036.07
2750.75
-1684.61
2862.89
-1369.24
3001.7
-1202.34
3147.73
-1217.19
3299.78
-1431.23
3483.86
-1904.8
3745.06
-2690.63
4097.34
-3704.84
4503.29
-4724.5
4918.59
-5558.67
5322.13
-6147.1
5712.12
-6522.64
6093.72
-6730.66
6472.6
-6800.77
6851.97
-6734.63
7232.08
-6512.79
7607.35
-6085.31
7956.79
-5350.82
8241.03
-4218.06
8412.31
-2673.8
8408.34
-777.959
8188.87
1331.02
7794.44
3227.54
7302.02
4579.18
6767.23
5450.09
6260.25
6061.59
5837.05
6794.82
5436.85
8000.46
4929.83
9435.63
4277.03
10424.6
3539.01
10670.2
2786.07
10362.4
2054.96
9779.11
1352.59
9082.85
671.126
8332.7
-9.32166
7569.1
-714.304
6860.86
-1308.97
5767.6
-1848.98
3418.84
-2551.27
1277.58
-3010.95
-602.201
-3438.54
-1839.05
-3935.06
-2762.12
-4530.17
-2836.49
-5206.76
-1560.93
-5868.87
1361.23
-6103.53
4305.56
-6525.77
6411.74
-6780.02
9043.68
-7020.11
10677.8
-7355
11382.1
-7729.77
12080.6
-8102.9
13084.7
-8471.08
13831.4
-8924.56
13235.1
-9496.69
11198.4
-10031.8
9004.87
-10410.1
7659.02
-10677.2
7002.35
-10916.2
6552.91
-11134.9
6156.41
-11330.4
5786.37
-11518
5407.42
-11713.8
5005.58
-11922.4
4601.62
-12138.7
4225.23
-12352.3
3892.73
-12555.8
3598.89
-12748.7
3325.94
-12936.1
3060.06
-13124.8
2799.67
-13319.2
2548.58
-13517.9
2320.57
2217.32
1648.62
-118.701
1635.35
-14.3285
1615.22
8.0294
1574.43
122.913
1533.73
181.992
1568.99
-576.82
1660.13
-1710.38
1738.22
-2373.31
1799.34
-2638.48
1869.8
-2790.77
1957.81
-2873.6
2052.72
-2847.73
2141.56
-2725.01
2216.09
-2541.66
2271.5
-2323.77
2304.02
-2090.25
2314.09
-1883.91
2307.9
-1755.35
2295.3
-1731.86
2285.31
-1798.4
2282.11
-1908.53
2286.41
-2033.47
2299.82
-2169.44
2322.86
-2271.43
2363.54
-2284.65
2421.09
-2093.61
2491.7
-1755.2
2595.83
-1473.36
2733.78
-1340.27
2880.07
-1363.48
3034.28
-1585.43
3231.89
-2102.4
3520.53
-2979.27
3896.37
-4080.68
4307.68
-5135.81
4713.64
-5964.63
5102.09
-6535.55
5477.14
-6897.68
5846.06
-7099.58
6214.63
-7169.33
6585.94
-7105.93
6961.3
-6888.15
7337.44
-6461.45
7694.41
-5707.78
7990.53
-4514.19
8174.72
-2857.98
8169.08
-772.312
7922.67
1577.43
7488.07
3662.15
6962.47
5104.77
6399.06
6013.5
5851.98
6608.68
5383.79
7263
4963.58
8420.68
4470.77
9928.44
3845.96
11049.4
3129.78
11386.3
2386.47
11105.7
1654.56
10511
943.477
9793.93
246.685
9029.49
-461.825
8277.61
-1185.62
7584.66
-1805.34
6387.31
-2474.42
4087.92
-3192.49
1995.64
-3771.91
-22.7795
-4284.42
-1326.53
-4890.05
-2156.49
-5589.59
-2136.95
-6377.79
-772.731
-7094.07
2077.52
-7428.33
4639.82
-7826.29
6809.7
-8036.45
9253.83
-8186.74
10828.1
-8414.26
11609.7
-8699.96
12366.3
-8970.56
13355.3
-9176.95
14037.8
-9407.06
13465.2
-9753.05
11544.4
-10145.9
9397.73
-10492.8
8005.89
-10789.4
7298.96
-11062
6825.48
-11309.3
6403.7
-11531
6008.12
-11737.3
5613.73
-11939.7
5207.99
-12144.2
4806.06
-12349.2
4430.27
-12549.2
4092.68
-12739.8
3789.56
-12921.7
3507.79
-13099.1
3237.45
-13277.6
2978.22
-13461.4
2732.32
-13649.6
2508.76
2404.09
1634.19
-108.34
1618.35
1.51802
1593.8
32.586
1548.75
167.977
1505.41
225.344
1530.73
-602.135
1601.23
-1780.87
1657.9
-2429.98
1704.72
-2685.3
1769.32
-2855.36
1856.72
-2961
1952.04
-2943.05
2039.96
-2812.92
2111.75
-2613.45
2162.67
-2374.7
2188.63
-2116.2
2189.8
-1885.08
2172.62
-1738.16
2147.74
-1706.98
2125.56
-1776.21
2111.45
-1894.41
2105.52
-2027.54
2107.14
-2171.05
2115.15
-2279.43
2140.36
-2309.85
2183.44
-2136.68
2238.82
-1810.57
2333.38
-1567.91
2469.27
-1476.15
2615.4
-1509.6
2773
-1743.02
2990.11
-2319.51
3309.69
-3298.84
3703.01
-4474
4110.9
-5543.69
4503.66
-6357.39
4878.28
-6910.16
5241.21
-7260.61
5598.97
-7457.35
5956.47
-7526.83
6317
-7466.46
6683.85
-7255
7057.34
-6834.94
7419.93
-6070.37
7728.53
-4822.78
7929.85
-3059.3
7927.69
-770.146
7657.91
1847.21
7181.59
4138.47
6617.51
5668.86
6025.9
6605.11
5448.68
7185.89
4942.34
7769.35
4495.75
8867.27
4006.48
10417.7
3405.17
11650.7
2712.67
12078.8
1982.95
11835.4
1253.55
11240.4
535.863
10511.6
-173.44
9738.79
-913.309
9017.47
-1672.61
8343.96
-2350.01
7064.71
-3096.34
4834.25
-3798
2697.3
-4481.64
660.862
-5074.68
-733.497
-5765.04
-1466.13
-6539.88
-1362.11
-7390.85
78.234
-8062.45
2749.12
-8428.08
5005.45
-8809.44
7191.07
-9007.73
9452.12
-9135.03
10955.4
-9326.99
11801.6
-9562.65
12601.9
-9739.68
13532.3
-9799.7
14097.8
-9842.1
13507.6
-10006.6
11708.9
-10300.9
9692.04
-10643.6
8348.58
-10969.9
7625.29
-11261.2
7116.78
-11516.3
6658.84
-11740.2
6231.99
-11942
5815.52
-12132.8
5398.81
-12320
4993.25
-12504.5
4614.83
-12683.6
4271.78
-12855.1
3960.99
-13019.8
3672.48
-13181.4
3399.08
-13344.6
3141.46
-13513.2
2900.85
-13687.3
2682.92
2579.16
1618.85
-95.6718
1600.42
19.9572
1572.24
60.7803
1523.94
216.286
1476.84
272.46
1489.54
-614.819
1539.2
-1830.52
1576.72
-2467.49
1612.11
-2720.69
1673.53
-2916.77
1762.39
-3049.85
1859.47
-3040.12
1947.26
-2900.7
2016.87
-2683.05
2063.73
-2421.55
2083.27
-2135.73
2075.31
-1877.12
2046.49
-1709.33
2008.48
-1668.96
1973.47
-1741.2
1948.22
-1869.15
1931.84
-2011.15
1920.66
-2159.86
1912.19
-2270.96
1921.53
-2319.18
1950.45
-2165.59
1990.34
-1850.45
2074.55
-1652.11
2207.29
-1608.87
2352.42
-1654.72
2517.07
-1907.66
2761.41
-2563.84
3110.69
-3648.11
3511.44
-4874.74
3909.67
-5941.92
4289.74
-6737.46
4653.02
-7273.43
5004.81
-7612.4
5350.12
-7802.66
5693.27
-7869.97
6037.99
-7811.17
6389.99
-7607
6754.6
-7199.54
7118.6
-6434.37
7438.94
-5143.13
7661.91
-3282.26
7669.67
-777.9
7382.85
2134.03
6868.65
4652.68
6265.27
6272.23
5644.7
7225.69
5043.81
7786.79
4507.63
8305.53
4033.93
9340.96
3540.87
10910.8
2958.46
12233.1
2290.33
12747
1577.54
12548.2
853.913
11964
134.701
11230.8
-585.199
10458.7
-1365.6
9797.87
-2182.18
9160.55
-2924.5
7807.02
-3681.23
5590.98
-4376.61
3392.68
-5124.35
1408.61
-5802.03
-55.8174
-6559.08
-709.083
-7398.6
-522.589
-8260.6
940.228
-8832.63