/*--------------------------------*- C++ -*----------------------------------*\
| =========                 |                                                 |
| \\      /  F ield         | OpenFOAM: The Open Source CFD Toolbox           |
|  \\    /   O peration     | Version:  4.1                                   |
|   \\  /    A nd           | Web:      www.OpenFOAM.org                      |
|    \\/     M anipulation  |                                                 |
\*---------------------------------------------------------------------------*/
FoamFile
{
    version     2.0;
    format      ascii;
    class       volVectorField;
    location    "1300";
    object      U;
}
// * * * * * * * * * * * * * * * * * * * * * * * * * * * * * * * * * * * * * //

dimensions      [0 1 -1 0 0 0 0];

internalField   nonuniform List<vector> 
26785
(
(-1.2166e-15 0.0223696 15.007)
(-9.99354e-16 0.0225905 14.5263)
(1.94236e-16 0.0208438 14.059)
(-1.09695e-14 0.0187132 13.6697)
(-1.12929e-14 0.0146174 13.3384)
(1.34551e-14 0.0040706 13.1477)
(1.19682e-15 -0.00867394 13.2123)
(8.79286e-15 -0.0198267 13.5189)
(5.59712e-15 -0.0306135 14)
(7.92808e-15 -0.041171 14.6149)
(-6.67223e-15 -0.0494718 15.3293)
(7.38429e-16 -0.0541338 16.1016)
(1.81392e-15 -0.0556477 16.8978)
(2.80494e-15 -0.0554821 17.7023)
(2.74308e-15 -0.0551135 18.5135)
(3.41611e-15 -0.0557086 19.3357)
(3.89512e-15 -0.0581673 20.1773)
(3.76378e-15 -0.0628675 21.0517)
(3.58909e-15 -0.0694271 21.9731)
(9.84306e-15 -0.0766667 22.9487)
(3.1417e-15 -0.0825639 23.9708)
(4.79357e-15 -0.0842493 25.0101)
(2.12516e-16 -0.0779454 26.0064)
(3.63995e-17 -0.0598892 26.8548)
(4.47071e-15 -0.0297952 27.4192)
(-3.48197e-15 0.00618628 27.5901)
(-3.1258e-15 0.0378383 27.3524)
(-4.77399e-15 0.0582201 26.8029)
(1.19387e-15 0.0658675 26.0994)
(-1.15248e-15 0.0623071 25.3852)
(-2.6647e-15 0.048099 24.7815)
(-8.48596e-15 0.0250275 24.3873)
(1.4274e-15 -0.00274338 24.2664)
(-9.09226e-15 -0.0314923 24.4392)
(5.78152e-15 -0.0581354 24.8886)
(-4.2872e-15 -0.0808136 25.5737)
(-2.08811e-15 -0.0988217 26.4424)
(-7.90562e-15 -0.112106 27.4425)
(-1.15841e-14 -0.120782 28.5259)
(-1.0749e-14 -0.124863 29.6482)
(-1.63642e-14 -0.123996 30.7654)
(-1.04741e-14 -0.117485 31.831)
(-1.34169e-14 -0.10436 32.7936)
(4.39799e-15 -0.0835389 33.5958)
(-1.11831e-14 -0.0545951 34.1755)
(4.02094e-15 -0.0184908 34.475)
(4.45247e-15 0.0223339 34.4518)
(6.55755e-15 0.0641248 34.0891)
(5.47414e-15 0.103915 33.3964)
(8.00758e-15 0.139201 32.4144)
(8.01728e-15 0.169544 31.1933)
(2.78549e-15 0.196657 29.7739)
(2.48448e-15 0.221484 28.1804)
(5.15127e-15 0.242782 26.434)
(6.5682e-15 0.257656 24.5724)
(6.83689e-15 0.263776 22.656)
(6.88585e-15 0.260974 20.7549)
(1.02089e-14 0.250756 18.93)
(7.70894e-15 0.234943 17.225)
(2.29499e-14 0.214946 15.6691)
(4.54941e-15 0.191535 14.283)
(1.40602e-14 0.165028 13.082)
(4.206e-15 0.134236 12.0851)
(4.91183e-14 0.0994893 11.3035)
(2.18391e-14 0.0545778 10.7839)
(1.33001e-14 0.00322942 10.5935)
(6.09024e-15 -0.0484397 10.7299)
(5.80299e-15 -0.103411 11.1765)
(4.14317e-15 -0.152105 11.9724)
(9.43807e-15 -0.173633 13.0176)
(2.12497e-14 -0.152052 14.0622)
(-1.05462e-14 -0.0758081 14.7808)
(-2.01143e-15 0.00881739 14.9954)
(6.00944e-15 0.101002 14.6521)
(1.15796e-14 0.190158 13.7489)
(1.46419e-14 0.238295 12.3801)
(2.71217e-14 0.254933 10.8133)
(2.05617e-14 0.249948 9.23648)
(1.84721e-14 0.230383 7.73145)
(1.47384e-14 0.169711 6.39757)
(1.42214e-14 -0.0157989 5.82512)
(-1.40216e-14 -0.0992579 6.403)
(-8.58989e-15 0.026779 6.68695)
(-6.96949e-16 -0.0101887 6.06194)
(-7.08786e-15 -0.529717 6.50906)
(-5.97351e-15 -0.30099 8.95305)
(-8.01915e-15 0.547108 9.62963)
(2.85193e-15 0.68367 7.06638)
(-4.46043e-14 0.185709 5.19297)
(-7.94108e-14 -0.0596095 4.6458)
(-9.32198e-14 -0.559056 6.50132)
(-9.60527e-14 -0.97201 9.13207)
(-8.1265e-14 -0.866741 11.0015)
(-7.1037e-14 -0.421539 10.8077)
(-7.37717e-14 0.0128905 8.71806)
(-9.58096e-14 0.476874 6.70633)
(-1.19081e-13 0.715055 5.1548)
(-1.31347e-13 0.553931 5.2347)
(-1.37827e-13 -0.282256 5.99092)
(-1.35633e-13 -0.643266 9.31175)
(-1.0312e-15 0.0583494 15.0497)
(5.49807e-15 0.0614859 14.5912)
(-5.19515e-15 0.058355 14.139)
(-4.02044e-16 0.0534499 13.7594)
(-6.20167e-15 0.0420041 13.436)
(1.09852e-14 0.00946219 13.2618)
(-1.05534e-14 -0.0312408 13.3539)
(9.46067e-15 -0.0653683 13.6663)
(2.64229e-14 -0.0931186 14.0934)
(1.31101e-14 -0.115351 14.5984)
(8.99289e-15 -0.130643 15.1989)
(3.44394e-15 -0.140207 15.9118)
(1.95083e-15 -0.147672 16.7275)
(9.85605e-16 -0.155447 17.6154)
(8.62088e-16 -0.163918 18.5373)
(-1.32672e-15 -0.173074 19.4591)
(2.34694e-15 -0.183804 20.3609)
(2.90541e-15 -0.197011 21.2395)
(-1.08785e-16 -0.212366 22.1032)
(-5.96576e-15 -0.227843 22.9624)
(1.33729e-14 -0.239565 23.8215)
(4.42824e-16 -0.241714 24.674)
(7.43028e-15 -0.22539 25.4962)
(-3.17024e-15 -0.179308 26.2288)
(-3.05072e-16 -0.0985876 26.7693)
(1.56586e-15 0.0041199 27.0023)
(-5.16406e-15 0.100519 26.8652)
(-1.32408e-15 0.166034 26.4053)
(4.56022e-16 0.192092 25.7712)
(-6.41664e-15 0.182207 25.1126)
(-1.46621e-14 0.140031 24.5632)
(-4.91721e-15 0.0726782 24.2079)
(-4.60081e-15 -0.00852974 24.1003)
(6.24191e-16 -0.0935445 24.2684)
(5.66586e-15 -0.172929 24.702)
(-5.11218e-15 -0.240749 25.3655)
(-6.18016e-15 -0.29465 26.2101)
(-4.20527e-15 -0.334402 27.1856)
(-3.55088e-16 -0.36028 28.2448)
(1.57846e-15 -0.372162 29.343)
(4.59088e-15 -0.36886 30.4356)
(-6.80215e-15 -0.348331 31.476)
(-5.18838e-15 -0.307897 32.4136)
(-2.50106e-14 -0.244613 33.1921)
(-1.17403e-14 -0.15743 33.751)
(-1.30881e-14 -0.0492963 34.0334)
(-1.03737e-14 0.0725352 33.9972)
(-1.96269e-14 0.197232 33.6254)
(-7.25297e-15 0.315701 32.9229)
(-1.283e-14 0.420273 31.9357)
(1.79181e-14 0.509939 30.7137)
(3.22063e-15 0.590021 29.2977)
(5.91515e-15 0.663441 27.7106)
(2.24009e-14 0.726379 25.9723)
(-1.3051e-14 0.769985 24.1197)
(4.53073e-15 0.78722 22.214)
(2.71122e-14 0.777733 20.3258)
(8.99594e-15 0.746273 18.5162)
(-8.00881e-15 0.698448 16.828)
(1.30497e-14 0.638528 15.2892)
(5.54079e-15 0.568815 13.9195)
(3.55035e-14 0.490249 12.7327)
(-1.06798e-15 0.399162 11.7467)
(-3.39858e-14 0.29637 10.9708)
(1.53894e-14 0.162794 10.4496)
(2.21714e-14 0.00541238 10.2572)
(2.61941e-14 -0.148998 10.4195)
(3.57242e-14 -0.303146 10.862)
(5.54445e-14 -0.442684 11.6274)
(-4.85238e-15 -0.504702 12.6347)
(1.13965e-14 -0.436719 13.6482)
(2.2322e-14 -0.207074 14.3477)
(-8.4912e-15 0.0486472 14.5712)
(-7.73291e-15 0.326761 14.1861)
(-2.06072e-14 0.58391 13.2766)
(8.37583e-15 0.722574 11.8729)
(-4.24034e-15 0.775061 10.2576)
(8.39631e-15 0.762788 8.60545)
(7.94314e-15 0.67157 7.01086)
(-1.12869e-14 0.472146 5.70078)
(-2.00805e-16 -0.0962778 5.319)
(-2.41964e-14 -0.278336 6.0189)
(-5.51165e-14 0.394779 6.12122)
(-3.54917e-14 0.516898 5.87341)
(-3.27807e-14 -1.02452 5.27348)
(-2.97247e-14 -1.31317 7.12551)
(1.61413e-15 -0.0802263 8.47276)
(-6.98682e-15 1.42012 5.68419)
(-7.87631e-14 1.54047 -1.31537)
(-1.24318e-13 0.635657 -5.1968)
(-1.41212e-13 -1.02338 -5.23416)
(-1.34823e-13 -0.974233 -5.29708)
(-1.27877e-13 -0.384455 -6.74547)
(-9.83082e-14 0.428372 -6.8969)
(-1.30875e-13 0.78018 -7.89483)
(-1.35459e-13 0.686776 -7.8579)
(-1.29186e-13 0.264748 -7.3099)
(-1.37127e-13 -0.464576 -7.82456)
(-1.37703e-13 -1.0737 -8.45414)
(-1.38409e-13 -0.911303 -8.79669)
(-2.03944e-15 0.0957372 15.0125)
(-8.61927e-15 0.101656 14.5575)
(1.24118e-14 0.0964124 14.1084)
(-9.89389e-15 0.0881168 13.7315)
(-6.26657e-15 0.0680437 13.414)
(1.67337e-14 0.0124745 13.2398)
(5.50059e-15 -0.0526395 13.2813)
(2.23311e-14 -0.100543 13.4617)
(1.19842e-14 -0.136962 13.7351)
(8.73653e-15 -0.173125 14.1916)
(6.04227e-15 -0.21081 14.9274)
(3.71329e-15 -0.24546 15.915)
(1.76867e-15 -0.272604 17.03)
(1.84404e-15 -0.290292 18.1448)
(2.87477e-15 -0.299269 19.1779)
(6.76312e-15 -0.302716 20.0942)
(-1.02332e-14 -0.305642 20.8923)
(-1.58651e-15 -0.312301 21.5929)
(-1.16375e-14 -0.324108 22.2268)
(4.14908e-15 -0.339202 22.8246)
(-2.92915e-15 -0.352699 23.4089)
(-9.91926e-15 -0.357084 23.9918)
(-6.02077e-15 -0.339913 24.5742)
(-5.01064e-15 -0.282454 25.1302)
(-3.74745e-16 -0.171291 25.5923)
(1.36182e-14 -0.0180882 25.8593)
(1.38527e-14 0.136039 25.8404)
(2.04925e-15 0.247828 25.5209)
(-3.56366e-15 0.29581 25.0154)
(-9.09334e-15 0.282175 24.4643)
(-8.59559e-15 0.215197 24.0075)
(-1.32524e-14 0.109084 23.7148)
(-4.03772e-15 -0.0198757 23.6384)
(-3.46403e-15 -0.156916 23.814)
(-1.68589e-15 -0.286182 24.2394)
(1.5106e-15 -0.397491 24.886)
(3.20603e-15 -0.486553 25.7095)
(6.95024e-15 -0.55258 26.6624)
(7.48524e-15 -0.595614 27.698)
(5.12525e-15 -0.615242 28.7728)
(3.23578e-15 -0.609586 29.8443)
(2.17005e-15 -0.575517 30.8682)
(5.3823e-16 -0.508759 31.7955)
(-2.31699e-17 -0.404368 32.5698)
(4.06274e-16 -0.260428 33.129)
(7.48783e-16 -0.0815996 33.4142)
(7.43846e-16 0.120189 33.3812)
(5.39233e-16 0.327406 33.0117)
(1.05786e-15 0.524121 32.3066)
(1.67135e-15 0.697091 31.318)
(2.1331e-15 0.845227 30.0965)
(2.66533e-15 0.977762 28.6834)
(2.49925e-15 1.09974 27.0996)
(2.71762e-15 1.20458 25.3626)
(4.2992e-15 1.27706 23.5091)
(9.544e-15 1.3051 21.602)
(-6.22556e-15 1.28824 19.715)
(-9.30699e-15 1.23476 17.9106)
(9.67921e-15 1.1543 16.2318)
(-1.51223e-14 1.05411 14.706)
(5.2996e-15 0.938098 13.3519)
(8.53695e-16 0.807981 12.1816)
(9.40661e-16 0.657631 11.2119)
(-9.18503e-16 0.488218 10.448)
(4.45062e-14 0.267027 9.9311)
(6.3081e-15 -0.00465597 9.7478)
(5.34871e-14 -0.259749 9.9563)
(4.82137e-14 -0.495442 10.4128)
(1.79053e-14 -0.720027 11.1666)
(6.98251e-15 -0.827147 12.1771)
(2.86519e-15 -0.723804 13.2463)
(-8.50994e-16 -0.352427 14.0178)
(-3.0377e-14 0.081733 14.3045)
(-3.20069e-14 0.564411 13.8713)
(-1.29312e-14 0.994461 12.8936)
(-2.32798e-14 1.23166 11.3626)
(-2.48888e-14 1.33329 9.62507)
(-1.88043e-14 1.32629 7.8387)
(-1.33078e-14 1.13262 6.05972)
(-1.30883e-14 0.627012 4.55729)
(-1.99866e-14 -0.348953 4.74997)
(-1.69523e-14 -0.587005 5.02733)
(-3.30285e-14 -0.0900851 5.47096)
(-4.07732e-14 0.749164 5.31226)
(-5.88164e-14 -0.00961249 -0.130796)
(-5.6979e-14 -0.890723 -4.33104)
(-3.12969e-14 0.866286 -3.94759)
(-4.76432e-14 3.13421 -2.59613)
(-1.09912e-13 3.20068 -4.79316)
(-1.48539e-13 1.35103 -4.71708)
(-1.39504e-13 -0.730894 -7.33285)
(-1.38597e-13 -0.778569 -8.07041)
(-1.3813e-13 -0.22698 -9.4261)
(-1.39747e-13 0.376145 -9.76687)
(-1.38277e-13 0.773754 -10.2075)
(-1.38025e-13 0.859904 -10.1935)
(-1.36071e-13 0.669574 -9.94077)
(-1.34794e-13 0.0492332 -10.1267)
(-1.3554e-13 -0.498771 -10.9441)
(-1.3548e-13 -0.488031 -11.7947)
(1.14161e-16 0.132536 14.9196)
(-8.12416e-15 0.141453 14.456)
(-6.50416e-15 0.13398 13.9942)
(1.20577e-14 0.121828 13.6058)
(1.41691e-14 0.0941089 13.2726)
(1.61455e-15 0.021192 13.0347)
(6.72365e-15 -0.0595333 12.9381)
(2.05803e-14 -0.120176 12.9934)
(7.25221e-15 -0.182107 13.3236)
(6.4927e-15 -0.260456 14.0784)
(2.18271e-15 -0.339229 15.204)
(2.16304e-15 -0.395851 16.4757)
(-3.77495e-16 -0.423431 17.6873)
(2.49353e-15 -0.427887 18.7371)
(7.90636e-15 -0.418574 19.6045)
(2.39232e-15 -0.404321 20.3069)
(-6.5883e-17 -0.393338 20.8754)
(-3.99178e-15 -0.391351 21.3473)
(1.57e-14 -0.399858 21.7614)
(3.69183e-15 -0.416023 22.1514)
(-1.18063e-15 -0.433399 22.541)
(-1.85586e-15 -0.443062 22.9438)
(-4.25324e-15 -0.430498 23.3667)
(-3.62955e-15 -0.371751 23.7991)
(-4.0797e-16 -0.245433 24.1982)
(1.25251e-15 -0.0580013 24.4854)
(1.72098e-15 0.142533 24.5642)
(9.77208e-16 0.297875 24.3802)
(-8.15353e-16 0.370136 24.0106)
(-1.5585e-15 0.356311 23.5801)
(-5.23278e-15 0.269846 23.2282)
(5.40543e-15 0.1317 23.0065)
(2.57781e-15 -0.0394254 22.9724)
(1.18608e-15 -0.224619 23.1672)
(1.12161e-14 -0.40144 23.5973)
(-1.86704e-15 -0.555125 24.2402)
(1.36273e-14 -0.678819 25.055)
(1.26493e-15 -0.77069 25.995)
(-6.56157e-15 -0.83064 27.0176)
(6.06727e-15 -0.858428 28.0854)
(-3.98223e-15 -0.851663 29.1613)
(-9.14448e-15 -0.805773 30.2011)
(-2.931e-15 -0.714255 31.1517)
(5.4512e-15 -0.569625 31.9515)
(2.32104e-15 -0.368913 32.5335)
(6.07272e-15 -0.118552 32.8358)
(-1.77017e-15 0.164577 32.8122)
(-1.93091e-14 0.456101 32.4443)
(-1.20035e-14 0.732192 31.7303)
(6.63876e-15 0.973581 30.7307)
(-5.68794e-15 1.17976 29.4994)
(-1.07079e-15 1.36457 28.0788)
(-9.91328e-15 1.53553 26.4873)
(-1.47391e-14 1.68305 24.739)
(-6.9017e-15 1.78482 22.8696)
(-8.67913e-15 1.82317 20.9445)
(6.26215e-15 1.79756 19.0416)
(-3.65809e-14 1.72028 17.226)
(-1.52944e-14 1.6054 15.5416)
(-3.62514e-14 1.46333 14.0158)
(-9.58039e-15 1.29975 12.6667)
(-4.39325e-15 1.11744 11.5053)
(-2.48209e-15 0.907963 10.5479)
(1.85725e-15 0.672599 9.79495)
(6.72032e-15 0.364593 9.28232)
(3.04756e-14 -0.0331183 9.11722)
(7.48501e-14 -0.385707 9.39931)
(3.76715e-15 -0.68702 9.88491)
(-7.1347e-15 -1.00378 10.6431)
(-1.29878e-14 -1.17942 11.7349)
(-4.14557e-14 -1.05612 12.9497)
(-3.1242e-14 -0.53546 13.8013)
(-3.08555e-14 0.114611 14.0927)
(-2.67082e-14 0.836252 13.5292)
(-6.98764e-14 1.4505 12.4088)
(-7.52997e-14 1.79225 10.6948)
(-5.5368e-14 1.94898 8.8002)
(-4.56115e-14 1.9675 6.84483)
(-1.96642e-14 1.76194 4.75835)
(-1.96787e-14 1.1277 2.22913)
(-3.10579e-14 0.348107 -0.489897)
(-5.26829e-14 0.115235 -4.37153)
(-6.91228e-14 0.0119297 -5.5986)
(-7.46397e-14 2.06188 -1.8012)
(-7.66785e-14 1.36391 -4.06677)
(-6.90351e-14 -0.662909 -5.74166)
(-1.09707e-13 0.521 -5.967)
(-1.04964e-13 2.67294 -6.28679)
(-1.33061e-13 3.27995 -6.29874)
(-1.39333e-13 1.73749 -5.4806)
(-1.68588e-13 0.139414 -7.01347)
(-1.27251e-13 -0.248867 -8.18636)
(-1.20492e-13 -0.0397982 -9.27065)
(-1.35757e-13 0.28341 -9.67381)
(-1.35321e-13 0.610552 -9.73754)
(-1.33501e-13 0.70294 -9.52728)
(-1.31353e-13 0.530702 -9.24967)
(-1.37587e-13 -0.0357062 -9.36702)
(-1.35965e-13 -0.496858 -10.2933)
(-1.34725e-13 -0.533703 -10.8754)
(-2.45053e-15 0.166223 14.787)
(-8.77772e-15 0.178614 14.3031)
(1.21467e-16 0.170073 13.815)
(3.05857e-15 0.155323 13.401)
(1.36831e-15 0.124323 13.0261)
(-4.9405e-15 0.0401861 12.6929)
(-1.82912e-14 -0.0584655 12.4995)
(1.00613e-14 -0.151329 12.6264)
(4.92187e-15 -0.264744 13.2692)
(2.17659e-15 -0.392037 14.3861)
(-2.15799e-15 -0.492894 15.6938)
(-4.13139e-15 -0.544274 16.9268)
(6.06528e-15 -0.553054 17.9642)
(-1.89742e-15 -0.536662 18.7934)
(7.42667e-15 -0.509302 19.4438)
(1.76497e-15 -0.480781 19.9497)
(-3.79589e-15 -0.459618 20.3429)
(-2.92264e-15 -0.451906 20.6564)
(-2.40773e-15 -0.459121 20.925)
(-3.79192e-15 -0.477686 21.1803)
(-5.35718e-15 -0.49991 21.4443)
(-1.13027e-14 -0.516015 21.7297)
(-3.62072e-15 -0.510445 22.0455)
(-3.19236e-15 -0.455585 22.3898)
(-4.40656e-16 -0.323229 22.7379)
(3.3127e-15 -0.112581 23.0333)
(2.34914e-15 0.12513 23.184)
(-9.25619e-15 0.319392 23.1184)
(7.17674e-15 0.416439 22.875)
(6.66704e-15 0.404673 22.5616)
(7.03325e-15 0.302952 22.3139)
(6.85239e-15 0.138489 22.1618)
(2.97272e-15 -0.0702739 22.1761)
(-2.58514e-15 -0.300103 22.4003)
(7.18745e-15 -0.522137 22.8473)
(-6.08358e-15 -0.716483 23.4976)
(-9.56745e-15 -0.873263 24.3107)
(-9.37043e-15 -0.990246 25.2473)
(-7.31953e-15 -1.06821 26.2785)
(-7.09168e-15 -1.10697 27.3758)
(-4.27155e-15 -1.10217 28.4985)
(-2.56431e-15 -1.04634 29.5905)
(1.40033e-14 -0.930217 30.588)
(1.51387e-14 -0.744049 31.4238)
(1.44769e-14 -0.484395 32.0302)
(1.09155e-14 -0.159874 32.3462)
(9.95179e-15 0.207376 32.3269)
(1.01205e-14 0.585959 31.9533)
(9.16186e-15 0.943054 31.2207)
(2.37512e-14 1.25282 30.1989)
(5.63414e-15 1.5162 28.9462)
(2.57812e-14 1.75273 27.5071)
(1.98979e-14 1.97306 25.8973)
(1.91127e-14 2.16445 24.1269)
(1.07194e-14 2.29656 22.2299)
(-1.66792e-14 2.34523 20.275)
(-1.07848e-14 2.30986 18.3443)
(-1.69764e-14 2.20724 16.5055)
(-1.71782e-14 2.05621 14.8029)
(-1.35825e-14 1.87047 13.2635)
(1.78222e-14 1.65761 11.9059)
(-3.69992e-14 1.42176 10.7403)
(-6.107e-15 1.15226 9.78417)
(2.78055e-15 0.850112 9.03412)
(8.89607e-15 0.455305 8.51683)
(4.68903e-14 -0.0867692 8.37373)
(3.01354e-14 -0.533346 8.7599)
(3.91526e-14 -0.88221 9.28491)
(2.32411e-14 -1.31022 10.0962)
(-3.09979e-14 -1.58152 11.3329)
(-5.8928e-14 -1.42723 12.653)
(-6.3484e-14 -0.724714 13.4629)
(-7.14803e-14 0.189162 13.6535)
(-1.66142e-14 1.16857 12.8974)
(-5.36252e-14 1.95708 11.6216)
(-5.73616e-14 2.39553 9.74289)
(-6.51612e-14 2.61387 7.71535)
(-6.58605e-14 2.69293 5.62341)
(-3.35816e-14 2.65572 3.31587)
(-2.00589e-14 2.43386 0.189248)
(-2.8161e-14 1.86631 -2.19245)
(4.68571e-14 0.464125 -2.49444)
(-1.07259e-13 0.296589 -3.35341)
(-7.7673e-14 1.65186 -3.84667)
(-8.9396e-14 1.54218 -4.6884)
(-1.18479e-13 0.122584 -7.26613)
(-1.20125e-13 0.767546 -7.84415)
(-1.35608e-13 2.32367 -7.89418)
(-1.4628e-13 2.77046 -6.84592)
(-1.51783e-13 1.7145 -6.07977)
(-1.46303e-13 0.631405 -7.00887)
(-1.4619e-13 0.222305 -8.44794)
(-1.40692e-13 0.269031 -9.50831)
(-1.38661e-13 0.444917 -10.1603)
(-1.39934e-13 0.642135 -10.5249)
(-1.45161e-13 0.698801 -10.752)
(-1.48502e-13 0.570406 -10.9182)
(-1.47054e-13 0.194203 -11.2222)
(-1.42751e-13 -0.12663 -12.1571)
(-1.43548e-13 -0.185617 -12.6486)
(-3.17553e-15 0.208225 14.6294)
(2.57068e-15 0.222243 14.1243)
(1.19681e-15 0.211343 13.6121)
(-8.34219e-15 0.193764 13.1754)
(3.55592e-15 0.161617 12.7608)
(3.1177e-15 0.0650061 12.3568)
(2.00425e-15 -0.0650313 12.1702)
(8.57346e-15 -0.210786 12.5175)
(8.74647e-15 -0.380408 13.4689)
(4.36175e-15 -0.537836 14.731)
(-6.996e-15 -0.63784 15.9672)
(-7.08888e-15 -0.672001 17.0137)
(5.2421e-15 -0.660491 17.8451)
(2.04564e-15 -0.626146 18.4902)
(5.51702e-16 -0.583784 18.9841)
(3.09244e-17 -0.542804 19.3543)
(1.65364e-15 -0.512197 19.6248)
(-3.56714e-16 -0.498996 19.824)
(-4.91538e-15 -0.505114 19.9843)
(-7.13567e-15 -0.526407 20.137)
(-6.89914e-15 -0.553915 20.3036)
(-1.01089e-15 -0.577118 20.4963)
(-1.03417e-15 -0.580047 20.7257)
(-9.18874e-15 -0.532777 20.9957)
(3.92613e-15 -0.401577 21.2946)
(3.297e-15 -0.177316 21.5831)
(9.22018e-15 0.0882214 21.779)
(8.17294e-15 0.31509 21.8097)
(6.46245e-15 0.436254 21.6765)
(1.15415e-14 0.428349 21.4712)
(3.57103e-15 0.315324 21.3181)
(6.07198e-15 0.129476 21.2335)
(-7.5616e-15 -0.113293 21.2983)
(-7.40272e-15 -0.384865 21.5576)
(-1.30187e-14 -0.649762 22.0279)
(-1.55242e-14 -0.882515 22.6886)
(-9.81235e-15 -1.07142 23.5076)
(-5.89175e-15 -1.21583 24.468)
(-4.05018e-15 -1.31686 25.5551)
(-6.47686e-15 -1.3711 26.7297)
(9.70092e-15 -1.36951 27.9256)
(2.80474e-14 -1.30169 29.0679)
(1.67288e-14 -1.15742 30.0896)
(2.85604e-14 -0.926406 30.9316)
(2.60714e-14 -0.605381 31.5366)
(2.68809e-14 -0.204804 31.8514)
(2.56166e-14 0.248641 31.8337)
(2.51284e-14 0.717188 31.4611)
(2.3759e-14 1.15785 30.7208)
(2.21085e-14 1.537 29.6871)
(2.15809e-14 1.85756 28.4202)
(2.42362e-14 2.14579 26.9648)
(3.0074e-14 2.41611 25.3326)
(3.32216e-14 2.65249 23.5304)
(3.04304e-14 2.81561 21.5935)
(1.99549e-14 2.87412 19.597)
(8.43174e-15 2.82769 17.6293)
(3.49967e-16 2.69831 15.7599)
(1.63762e-14 2.50984 14.0312)
(-7.19966e-15 2.27914 12.4688)
(-5.15392e-15 2.01557 11.0908)
(-3.23781e-14 1.72477 9.90749)
(-1.08213e-14 1.3939 8.93855)
(-6.55054e-15 1.02301 8.17902)
(3.85535e-14 0.541324 7.64024)
(5.26948e-15 -0.172355 7.52181)
(-2.63619e-16 -0.706792 8.03447)
(4.60685e-14 -1.08257 8.65612)
(-4.44337e-15 -1.64706 9.57508)
(-4.85563e-14 -2.01464 10.8443)
(-1.06823e-13 -1.79196 12.0715)
(-8.13867e-14 -0.888793 12.7187)
(-6.99222e-14 0.322294 12.792)
(-5.3455e-14 1.56279 11.8473)
(-6.83648e-14 2.50876 10.4492)
(-5.12212e-14 3.04099 8.47374)
(-6.36375e-14 3.31799 6.39465)
(-7.00221e-14 3.47367 4.2667)
(-4.44843e-14 3.65355 1.91005)
(-2.84866e-14 3.61781 -1.01215)
(-4.65112e-14 2.64848 -2.76956)
(-2.50584e-13 0.920875 -2.72978)
(-2.28727e-13 0.633807 -4.16808)
(-2.01091e-13 1.64286 -4.40613)
(-1.36266e-13 1.65022 -5.15787)
(-1.23674e-13 0.602544 -7.26462)
(-1.42036e-13 1.07099 -8.56793)
(-1.44707e-13 2.13994 -8.72563)
(-1.45357e-13 2.36403 -8.09529)
(-1.43544e-13 1.67274 -8.30897)
(-1.48436e-13 0.993545 -9.54725)
(-1.41338e-13 0.651812 -10.9501)
(-1.32657e-13 0.609681 -12.0964)
(-1.3299e-13 0.702521 -12.8988)
(-1.38251e-13 0.780631 -13.4609)
(-1.40241e-13 0.716448 -13.8967)
(-1.38596e-13 0.502492 -14.2453)
(-1.3764e-13 0.147948 -14.5647)
(-1.39439e-13 -0.160068 -15.291)
(-1.39571e-13 -0.268309 -15.7827)
(-2.45481e-15 0.245396 14.5236)
(-2.69761e-15 0.263213 14.0054)
(-1.38483e-14 0.251629 13.4792)
(-1.08651e-14 0.233405 13.0316)
(1.49537e-15 0.203334 12.5811)
(1.75165e-14 0.0907863 12.1141)
(2.65883e-15 -0.0854027 11.9859)
(4.06223e-15 -0.294921 12.5632)
(3.41426e-15 -0.510619 13.6825)
(-6.12603e-16 -0.67865 14.908)
(-6.21484e-15 -0.766027 15.9776)
(2.43117e-15 -0.780745 16.8329)
(3.87471e-16 -0.750989 17.4965)
(1.38616e-15 -0.701236 18.0029)
(1.68051e-15 -0.645721 18.3796)
(2.24595e-15 -0.593423 18.6459)
(-1.31231e-15 -0.554079 18.8204)
(-5.899e-16 -0.535914 18.9286)
(5.00274e-16 -0.541404 19.0028)
(-3.24867e-15 -0.565828 19.074)
(-1.89522e-15 -0.598919 19.1632)
(-6.3006e-15 -0.629547 19.2813)
(-1.07e-14 -0.641817 19.4392)
(-4.95456e-15 -0.604419 19.6452)
(-4.75314e-15 -0.479129 19.8967)
(-2.91133e-15 -0.24829 20.1667)
(-2.50133e-15 0.0371447 20.3871)
(2.81381e-15 0.289757 20.4921)
(-1.35838e-14 0.432759 20.4513)
(-1.31101e-14 0.43 20.3445)
(-1.75233e-14 0.308902 20.2722)
(-1.2156e-14 0.104901 20.2523)
(-8.03941e-15 -0.169085 20.366)
(-4.51281e-15 -0.479828 20.6627)
(-2.19324e-15 -0.784862 21.1573)
(-9.36984e-15 -1.05459 21.8334)
(-6.01788e-15 -1.27872 22.6876)
(-6.03852e-15 -1.45758 23.7255)
(-3.78242e-15 -1.58683 24.9129)
(-2.11098e-15 -1.65528 26.166)
(1.21991e-14 -1.65027 27.3901)
(1.44753e-14 -1.56295 28.5126)
(2.99068e-14 -1.38581 29.4876)
(2.97276e-14 -1.10892 30.2796)
(3.3195e-14 -0.728284 30.8467)
(3.31228e-14 -0.254544 31.1426)
(3.27068e-14 0.282601 31.1264)
(2.12656e-14 0.840581 30.772)
(6.27809e-15 1.36589 30.0568)
(-6.65986e-15 1.81606 29.0552)
(-2.18344e-14 2.19614 27.8213)
(-3.43157e-14 2.53949 26.3907)
(-9.74446e-16 2.86407 24.7635)
(1.07909e-14 3.14932 22.9394)
(2.36865e-14 3.3453 20.9584)
(2.7717e-14 3.4128 18.9098)
(2.53473e-14 3.35305 16.8959)
(-3.47894e-15 3.19497 14.9898)
(6.14568e-15 2.96799 13.2309)
(1.72668e-15 2.69172 11.64)
(-3.47324e-15 2.37686 10.2338)
(-1.29006e-14 2.03043 9.0214)
(-2.42398e-14 1.63725 8.02572)
(-1.94558e-14 1.19523 7.24308)
(3.10837e-14 0.625663 6.65967)
(3.35198e-14 -0.292676 6.56839)
(4.37561e-14 -0.927505 7.22378)
(3.77616e-15 -1.33071 8.0877)
(-4.66324e-14 -2.00768 9.02308)
(-9.63504e-14 -2.41585 10.0247)
(-1.14058e-13 -2.10469 10.989)
(-7.97854e-14 -1.03098 11.4823)
(-8.8527e-14 0.481129 11.5144)
(-8.66351e-14 2.00026 10.4138)
(-7.63228e-14 3.08088 8.92759)
(-6.61801e-14 3.67886 6.93198)
(-6.48603e-14 4.01905 4.88535)
(-5.69091e-14 4.25057 2.8434)
(-5.01982e-14 4.56599 0.578225)
(-4.44771e-14 4.49865 -1.95011)
(-6.80527e-14 2.88772 -3.0542)
(-1.55343e-13 0.895081 -2.88065)
(-1.88771e-13 1.13964 -3.60426)
(-1.76019e-13 1.9958 -4.59347)
(-1.59796e-13 1.98348 -5.98707)
(-1.495e-13 1.23686 -8.26804)
(-1.41767e-13 1.51989 -10.1084)
(-1.37986e-13 2.235 -10.8727)
(-1.39848e-13 2.38863 -11.2362)
(-1.38219e-13 1.93162 -12.0612)
(-1.42364e-13 1.39658 -13.1877)
(-1.38447e-13 1.04364 -14.3018)
(-1.31106e-13 0.926937 -15.233)
(-1.32304e-13 0.947845 -15.903)
(-1.30582e-13 0.965561 -16.3614)
(-1.35134e-13 0.870553 -16.7109)
(-1.34883e-13 0.657252 -17.0149)
(-1.35602e-13 0.351691 -17.2718)
(-1.36902e-13 0.0771465 -17.8376)
(-1.36505e-13 -0.053722 -18.2751)
(-1.03529e-14 0.285672 14.4225)
(-4.93021e-15 0.307722 13.8934)
(-1.57276e-14 0.29458 13.3578)
(3.49767e-15 0.276506 12.9039)
(2.42711e-15 0.250633 12.4147)
(4.99631e-15 0.115778 11.8966)
(4.82567e-15 -0.120749 11.8699)
(3.34724e-15 -0.395993 12.6397)
(-4.16296e-15 -0.642309 13.8001)
(-9.83072e-16 -0.806502 14.8973)
(-1.72836e-15 -0.876724 15.7831)
(1.44265e-15 -0.873677 16.4718)
(4.41696e-15 -0.828771 17.0014)
(5.27696e-15 -0.766053 17.3998)
(4.94382e-15 -0.698837 17.685)
(-3.4124e-15 -0.635898 17.8695)
(-1.13553e-15 -0.588081 17.9676)
(-1.25192e-15 -0.565124 18.003)
(-1.52871e-15 -0.570218 18.0079)
(-2.53101e-15 -0.598 18.0136)
(-5.26716e-15 -0.636733 18.0407)
(-5.66572e-15 -0.674741 18.0984)
(-9.852e-15 -0.696644 18.1971)
(-8.20284e-15 -0.670495 18.348)
(4.52195e-15 -0.554373 18.5547)
(5.66257e-15 -0.322639 18.7981)
(7.7319e-15 -0.0247523 19.0262)
(-6.87937e-15 0.24622 19.1853)
(4.59472e-15 0.408138 19.2185)
(-4.38222e-16 0.411654 19.2007)
(-7.53957e-16 0.285464 19.1975)
(-4.19314e-17 0.0656002 19.2358)
(-2.96765e-15 -0.23742 19.3962)
(-3.29354e-15 -0.584902 19.7305)
(-1.24764e-15 -0.928217 20.2509)
(-1.11164e-14 -1.23793 20.9672)
(-8.8233e-15 -1.50555 21.9106)
(-5.8881e-15 -1.72409 23.064)
(4.16402e-17 -1.87651 24.327)
(6.1107e-15 -1.94647 25.5763)
(2.62034e-14 -1.92575 26.7291)
(2.75164e-14 -1.81253 27.7502)
(3.68408e-14 -1.6026 28.6279)
(3.3553e-14 -1.28416 29.3443)
(3.3067e-14 -0.850014 29.861)
(3.20884e-14 -0.309434 30.1287)
(3.13678e-14 0.30518 30.103)
(3.29364e-14 0.94689 29.7582)
(1.63491e-14 1.55187 29.0757)
(2.13304e-14 2.07022 28.1405)
(3.44034e-15 2.51121 26.9999)
(-1.33554e-14 2.91613 25.6679)
(-2.59807e-15 3.30524 24.1138)
(-2.62496e-15 3.65006 22.3139)
(7.12343e-15 3.88572 20.3079)
(1.77318e-14 3.96332 18.2081)
(4.26352e-14 3.88779 16.142)
(2.10765e-14 3.69827 14.1946)
(1.47115e-14 3.43143 12.4029)
(-1.53136e-14 3.10947 10.7812)
(-2.14287e-15 2.7437 9.34233)
(-9.7801e-15 2.34205 8.09284)
(-1.46052e-14 1.88673 7.05827)
(8.33225e-15 1.37156 6.23891)
(1.36987e-14 0.712529 5.58625)
(1.29232e-14 -0.451423 5.51754)
(2.39231e-14 -1.2283 6.30606)
(-4.57346e-14 -1.62745 7.42982)
(-1.32015e-13 -2.29371 8.12778)
(-1.19592e-13 -2.70616 8.70659)
(-1.09769e-13 -2.35835 9.42874)
(-6.85703e-14 -1.17696 9.80486)
(-5.62409e-14 0.689991 9.86564)
(-5.9597e-14 2.37511 8.66811)
(-7.09995e-14 3.56971 7.08704)
(-3.86379e-14 4.29101 5.07252)
(-4.38032e-14 4.68085 3.20097)
(-5.00957e-14 4.96018 1.3266)
(-5.3271e-14 5.38494 -0.863778)
(-5.83632e-14 5.1423 -3.03616)
(-6.74241e-14 2.97158 -4.14812)
(-1.14763e-13 1.02249 -5.54565)
(-1.50037e-13 1.5402 -6.57469)
(-1.32168e-13 2.40688 -7.38698)
(-1.54422e-13 2.47488 -8.89919)
(-1.39431e-13 1.97706 -11.081)
(-1.3769e-13 2.09815 -12.9551)
(-1.36832e-13 2.5204 -14.0176)
(-1.36085e-13 2.57633 -14.6617)
(-1.3709e-13 2.1788 -15.3275)
(-1.32756e-13 1.67931 -16.072)
(-1.24859e-13 1.30384 -16.8331)
(-1.23755e-13 1.11884 -17.4975)
(-1.22959e-13 1.05779 -17.9822)
(-1.30061e-13 1.00411 -18.3056)
(-1.26678e-13 0.869094 -18.552)
(-1.30187e-13 0.645059 -18.7815)
(-1.28199e-13 0.362268 -18.9719)
(-1.28762e-13 0.103356 -19.4225)
(-1.28747e-13 -0.0450289 -19.7741)
(-1.70797e-14 0.326508 14.324)
(3.77312e-15 0.35296 13.7844)
(-1.14421e-14 0.338061 13.2415)
(-4.07872e-15 0.321757 12.7827)
(1.09058e-15 0.301547 12.2511)
(1.49656e-15 0.136465 11.6978)
(-3.92157e-15 -0.170989 11.7947)
(-1.35571e-15 -0.506004 12.6887)
(-3.75729e-15 -0.766997 13.7925)
(-6.60214e-15 -0.918753 14.7208)
(4.8796e-15 -0.971948 15.4332)
(5.34423e-15 -0.954349 15.9834)
(7.19558e-15 -0.897206 16.4074)
(7.70398e-15 -0.823381 16.7218)
(4.26154e-15 -0.745454 16.9362)
(2.34595e-15 -0.67227 17.0571)
(1.21634e-15 -0.616071 17.095)
(7.00375e-15 -0.588379 17.0719)
(5.19482e-15 -0.593253 17.0202)
(-9.96614e-16 -0.624607 16.9721)
(-3.7618e-15 -0.669035 16.9478)
(-5.42123e-15 -0.714298 16.9549)
(-7.20128e-15 -0.745882 17.0033)
(7.53784e-15 -0.731688 17.1064)
(-3.9779e-17 -0.626749 17.2714)
(-1.14092e-15 -0.398043 17.4839)
(-2.10589e-14 -0.0937664 17.7071)
(-1.49155e-14 0.190184 17.899)
(-6.24323e-15 0.365715 17.991)
(-5.25637e-15 0.375454 18.0508)
(7.02848e-15 0.24724 18.1054)
(-5.0024e-15 0.0126236 18.1964)
(2.313e-15 -0.31798 18.4028)
(3.88479e-16 -0.700345 18.7737)
(-1.74149e-15 -1.08381 19.3344)
(-8.0141e-15 -1.44193 20.1393)
(-5.92782e-15 -1.75867 21.2078)
(-3.3985e-15 -2.00901 22.44)
(5.81894e-15 -2.16685 23.6819)
(1.38659e-14 -2.22283 24.832)
(2.30665e-14 -2.18018 25.8631)
(2.78901e-14 -2.04316 26.7815)
(3.96951e-14 -1.80649 27.5896)
(3.85218e-14 -1.45257 28.2649)
(4.11363e-14 -0.969236 28.7554)
(4.07911e-14 -0.364435 28.9986)
(4.03958e-14 0.324973 28.9421)
(4.02046e-14 1.04475 28.5575)
(3.9274e-14 1.71765 27.844)
(3.32137e-14 2.2899 26.9294)
(2.57865e-14 2.78261 25.8819)
(1.98229e-14 3.25064 24.6984)
(1.02891e-14 3.71697 23.296)
(1.39728e-15 4.1397 21.5942)
(-1.13552e-15 4.43018 19.6103)
(4.4574e-15 4.52436 17.4783)
(1.62838e-14 4.43247 15.3632)
(1.9578e-14 4.20879 13.3729)
(1.27828e-15 3.90041 11.5474)
(2.36414e-14 3.53282 9.89462)
(3.4501e-14 3.11729 8.42136)
(5.06541e-15 2.6622 7.12966)
(-2.61305e-15 2.14669 6.04595)
(3.99163e-15 1.55609 5.17612)
(4.24567e-14 0.801076 4.42679)
(1.46844e-14 -0.569146 4.47138)
(8.28057e-15 -1.4672 4.99742)
(-9.77153e-14 -1.8062 5.97743)
(-1.36818e-13 -2.42069 6.45733)
(-9.13308e-14 -2.89903 6.88829)
(-6.08077e-14 -2.56516 7.46194)
(-6.10845e-14 -1.38186 7.60045)
(-6.20836e-14 0.982902 7.81645)
(-5.43432e-14 3.0917 6.52969)
(-1.70964e-14 4.19749 4.8806)
(-6.30894e-14 4.82899 3.03286)
(-5.2348e-14 5.24756 1.35277)
(-4.20984e-14 5.63311 -0.510425)
(-7.71595e-14 6.09197 -2.38984)
(-7.29359e-14 5.71101 -4.15851)
(-8.63526e-14 3.52067 -5.98126)
(-1.22674e-13 1.65048 -8.99921)
(-1.3146e-13 1.90808 -10.7858)
(-1.41227e-13 2.69355 -11.5716)
(-1.39812e-13 2.89426 -12.7384)
(-1.32298e-13 2.57743 -14.3501)
(-1.34983e-13 2.57761 -15.7887)
(-1.34589e-13 2.76472 -16.6441)
(-1.33107e-13 2.70149 -17.1044)
(-1.29845e-13 2.32223 -17.4948)
(-1.25603e-13 1.8676 -17.9573)
(-1.19278e-13 1.50603 -18.4684)
(-1.16792e-13 1.29319 -18.9347)
(-1.19926e-13 1.18333 -19.2816)
(-1.16606e-13 1.08651 -19.5142)
(-1.18041e-13 0.934406 -19.6961)
(-1.18718e-13 0.718093 -19.8732)
(-1.14678e-13 0.463952 -20.0149)
(-1.15054e-13 0.227621 -20.3935)
(-1.15031e-13 0.0805268 -20.6898)
(-2.59029e-15 0.364429 14.225)
(-2.72573e-15 0.394856 13.6723)
(-2.47083e-15 0.379092 13.12)
(-1.2037e-15 0.36728 12.653)
(-1.38286e-14 0.354486 12.0741)
(-1.31604e-14 0.151524 11.5069)
(-3.54733e-15 -0.233038 11.7312)
(-7.55729e-15 -0.617243 12.6736)
(-1.08505e-15 -0.879755 13.6563)
(3.3136e-16 -1.01551 14.4062)
(3.61273e-16 -1.05437 14.9661)
(5.92192e-15 -1.02582 15.4052)
(7.45629e-15 -0.959004 15.7481)
(-3.17461e-15 -0.875537 15.9992)
(3.16579e-15 -0.787581 16.1603)
(7.84676e-16 -0.704276 16.2325)
(7.32797e-16 -0.639521 16.2229)
(1.14028e-14 -0.60691 16.1521)
(1.92964e-15 -0.61155 16.053)