/*--------------------------------*- C++ -*----------------------------------*\
| =========                 |                                                 |
| \\      /  F ield         | OpenFOAM: The Open Source CFD Toolbox           |
|  \\    /   O peration     | Version:  4.1                                   |
|   \\  /    A nd           | Web:      www.OpenFOAM.org                      |
|    \\/     M anipulation  |                                                 |
\*---------------------------------------------------------------------------*/
FoamFile
{
    version     2.0;
    format      ascii;
    class       volScalarField;
    location    "300";
    object      k;
}
// * * * * * * * * * * * * * * * * * * * * * * * * * * * * * * * * * * * * * //

dimensions      [0 2 -2 0 0 0 0];

internalField   nonuniform List<scalar> 
6820
(
0.226697
0.279347
0.331744
0.382734
0.43093
0.475126
0.514422
0.548292
0.576591
0.599482
0.617352
0.630727
0.640195
0.646359
0.649792
0.651019
0.650502
0.648638
0.64576
0.642144
0.638014
0.633551
0.628896
0.624163
0.619436
0.614782
0.610251
0.605885
0.601676
0.597834
0.593421
0.593154
0.574027
0.207938
0.216621
0.219548
0.220394
0.221056
0.222077
0.223473
0.225138
0.226959
0.228842
0.230727
0.232578
0.234386
0.236152
0.23789
0.239613
0.24134
0.243085
0.244861
0.246676
0.248539
0.250451
0.252413
0.254423
0.256475
0.258565
0.260681
0.262817
0.264953
0.267104
0.269157
0.271464
0.272985
0.201064
0.204896
0.206826
0.206612
0.205168
0.203177
0.200968
0.198675
0.196348
0.194008
0.19167
0.189349
0.187063
0.184828
0.182661
0.180578
0.178591
0.176712
0.174948
0.173306
0.171789
0.170399
0.169134
0.167994
0.166975
0.166074
0.165285
0.164602
0.164019
0.163531
0.163124
0.162796
0.162515
0.199585
0.199595
0.199834
0.199709
0.199082
0.198053
0.196754
0.195281
0.193696
0.192037
0.19033
0.188591
0.186834
0.18507
0.183309
0.181558
0.179826
0.178119
0.176445
0.174807
0.173211
0.171661
0.170158
0.168706
0.167307
0.16596
0.164668
0.163431
0.162248
0.161119
0.160043
0.159022
0.15805
0.199411
0.198486
0.19779
0.197167
0.196484
0.195676
0.194737
0.193687
0.19255
0.191348
0.190099
0.188816
0.187511
0.186191
0.184865
0.183537
0.182212
0.180896
0.179591
0.178302
0.17703
0.175779
0.174551
0.173348
0.172171
0.171021
0.1699
0.168809
0.167748
0.166717
0.165718
0.164752
0.163817
0.199395
0.198258
0.197235
0.196308
0.195431
0.194563
0.193675
0.192755
0.191799
0.190812
0.189799
0.188765
0.187716
0.186657
0.185593
0.184527
0.183462
0.182402
0.181349
0.180305
0.179272
0.178251
0.177245
0.176255
0.175281
0.174325
0.173388
0.17247
0.171572
0.170694
0.169838
0.169003
0.16819
0.199395
0.198217
0.197099
0.196044
0.195047
0.194092
0.193165
0.192252
0.191343
0.190435
0.189525
0.188612
0.187697
0.186782
0.185868
0.184956
0.184049
0.183147
0.182253
0.181367
0.18049
0.179625
0.17877
0.177928
0.1771
0.176284
0.175484
0.174697
0.173926
0.173171
0.172432
0.171709
0.171002
0.199395
0.198211
0.19707
0.195974
0.194924
0.193917
0.192948
0.19201
0.191097
0.190204
0.189326
0.188462
0.187608
0.186764
0.185929
0.185104
0.184288
0.183481
0.182684
0.181897
0.18112
0.180355
0.179601
0.178859
0.178128
0.177411
0.176705
0.176013
0.175334
0.174668
0.174015
0.173376
0.17275
0.199395
0.19821
0.197064
0.195957
0.194889
0.19386
0.192867
0.191909
0.190981
0.190082
0.189208
0.188356
0.187523
0.186708
0.18591
0.185127
0.184359
0.183604
0.182862
0.182134
0.181418
0.180715
0.180025
0.179347
0.178682
0.178028
0.177388
0.17676
0.176144
0.17554
0.174949
0.17437
0.173804
0.199395
0.19821
0.197062
0.195953
0.19488
0.193843
0.19284
0.191871
0.190934
0.190027
0.189148
0.188295
0.187466
0.18666
0.185874
0.185109
0.184362
0.183632
0.182919
0.182222
0.18154
0.180873
0.18022
0.17958
0.178955
0.178343
0.177743
0.177157
0.176583
0.176021
0.175472
0.174934
0.174408
0.199395
0.198209
0.197062
0.195951
0.194877
0.193838
0.192832
0.191858
0.190916
0.190004
0.189121
0.188265
0.187434
0.186628
0.185846
0.185085
0.184346
0.183626
0.182925
0.182242
0.181577
0.180928
0.180295
0.179677
0.179074
0.178485
0.17791
0.177348
0.1768
0.176265
0.175741
0.17523
0.174731
0.199395
0.198209
0.197061
0.195951
0.194876
0.193836
0.192829
0.191854
0.19091
0.189995
0.189109
0.188251
0.187419
0.186612
0.185829
0.185069
0.184331
0.183614
0.182917
0.182239
0.18158
0.180939
0.180315
0.179707
0.179115
0.178538
0.177976
0.177428
0.176894
0.176374
0.175866
0.17537
0.174887
0.199395
0.198209
0.197061
0.19595
0.194875
0.193834
0.192827
0.191851
0.190907
0.189991
0.189104
0.188244
0.187411
0.186603
0.185819
0.185058
0.18432
0.183603
0.182907
0.182231
0.181574
0.180936
0.180315
0.179711
0.179124
0.178552
0.177996
0.177454
0.176927
0.176414
0.175914
0.175426
0.174951
0.199395
0.198209
0.197061
0.19595
0.194874
0.193833
0.192826
0.19185
0.190905
0.189989
0.189101
0.188241
0.187407
0.186598
0.185813
0.185052
0.184313
0.183596
0.1829
0.182223
0.181567
0.180929
0.180309
0.179706
0.17912
0.17855
0.177996
0.177457
0.176933
0.176423
0.175926
0.175442
0.174971
0.199395
0.198209
0.19706
0.195949
0.194874
0.193833
0.192825
0.191849
0.190903
0.189987
0.189099
0.188238
0.187404
0.186594
0.185809
0.185047
0.184308
0.183591
0.182894
0.182217
0.18156
0.180922
0.180302
0.179699
0.179114
0.178544
0.177991
0.177452
0.176929
0.176419
0.175924
0.175441
0.174972
0.199395
0.198209
0.19706
0.195949
0.194873
0.193832
0.192824
0.191848
0.190902
0.189985
0.189097
0.188236
0.187401
0.186592
0.185806
0.185044
0.184304
0.183586
0.182889
0.182212
0.181555
0.180916
0.180296
0.179693
0.179107
0.178537
0.177984
0.177445
0.176922
0.176412
0.175917
0.175434
0.174965
0.199395
0.198209
0.19706
0.195949
0.194873
0.193832
0.192823
0.191847
0.190901
0.189984
0.189096
0.188234
0.187399
0.186589
0.185803
0.185041
0.184301
0.183583
0.182885
0.182208
0.18155
0.180911
0.180291
0.179687
0.179101
0.178531
0.177977
0.177438
0.176914
0.176405
0.175909
0.175426
0.174957
0.199395
0.198208
0.19706
0.195948
0.194873
0.193831
0.192823
0.191846
0.1909
0.189983
0.189094
0.188233
0.187397
0.186587
0.185801
0.185038
0.184298
0.183579
0.182882
0.182204
0.181546
0.180907
0.180286
0.179682
0.179095
0.178525
0.177971
0.177431
0.176907
0.176397
0.175901
0.175418
0.174948
0.199395
0.198208
0.19706
0.195948
0.194872
0.193831
0.192822
0.191845
0.190899
0.189982
0.189093
0.188231
0.187395
0.186585
0.185799
0.185036
0.184295
0.183576
0.182878
0.1822
0.181542
0.180903
0.180281
0.179677
0.17909
0.17852
0.177965
0.177425
0.176901
0.17639
0.175894
0.17541
0.17494
0.199395
0.198208
0.19706
0.195948
0.194872
0.19383
0.192822
0.191844
0.190898
0.189981
0.189092
0.18823
0.187394
0.186583
0.185797
0.185033
0.184293
0.183573
0.182875
0.182197
0.181539
0.180899
0.180277
0.179673
0.179085
0.178514
0.177959
0.177419
0.176894
0.176384
0.175887
0.175403
0.174933
0.199395
0.198208
0.19706
0.195948
0.194872
0.19383
0.192821
0.191844
0.190897
0.18998
0.189091
0.188228
0.187392
0.186581
0.185795
0.185031
0.18429
0.183571
0.182872
0.182194
0.181535
0.180895
0.180273
0.179669
0.179081
0.17851
0.177954
0.177414
0.176889
0.176378
0.17588
0.175396
0.174926
0.199395
0.198208
0.19706
0.195948
0.194872
0.19383
0.192821
0.191843
0.190897
0.189979
0.18909
0.188227
0.187391
0.18658
0.185793
0.185029
0.184288
0.183569
0.18287
0.182191
0.181532
0.180892
0.18027
0.179665
0.179077
0.178505
0.17795
0.177409
0.176883
0.176372
0.175874
0.17539
0.174919
0.199395
0.198208
0.197059
0.195948
0.194871
0.193829
0.19282
0.191843
0.190896
0.189978
0.189089
0.188226
0.18739
0.186579
0.185792
0.185028
0.184286
0.183566
0.182868
0.182189
0.181529
0.180889
0.180266
0.179661
0.179073
0.178501
0.177945
0.177405
0.176879
0.176367
0.175869
0.175384
0.174913
0.199395
0.198208
0.197059
0.195947
0.194871
0.193829
0.19282
0.191843
0.190896
0.189978
0.189088
0.188225
0.187389
0.186577
0.18579
0.185026
0.184285
0.183565
0.182865
0.182186
0.181527
0.180886
0.180263
0.179658
0.17907
0.178498
0.177941
0.1774
0.176874
0.176362
0.175864
0.175379
0.174907
0.199395
0.198208
0.197059
0.195947
0.194871
0.193829
0.19282
0.191842
0.190895
0.189977
0.189087
0.188225
0.187388
0.186576
0.185789
0.185025
0.184283
0.183563
0.182864
0.182184
0.181525
0.180884
0.180261
0.179655
0.179067
0.178494
0.177938
0.177396
0.17687
0.176358
0.175859
0.175374
0.174902
0.199395
0.198208
0.197059
0.195947
0.194871
0.193829
0.19282
0.191842
0.190895
0.189977
0.189087
0.188224
0.187387
0.186576
0.185788
0.185024
0.184282
0.183561
0.182862
0.182183
0.181523
0.180881
0.180258
0.179652
0.179064
0.178491
0.177934
0.177393
0.176866
0.176354
0.175855
0.17537
0.174898
0.199395
0.198208
0.197059
0.195947
0.194871
0.193829
0.192819
0.191842
0.190895
0.189976
0.189086
0.188224
0.187387
0.186575
0.185787
0.185023
0.184281
0.18356
0.18286
0.182181
0.181521
0.180879
0.180256
0.17965
0.179061
0.178488
0.177932
0.17739
0.176863
0.17635
0.175851
0.175366
0.174893
0.199395
0.198208
0.197059
0.195947
0.194871
0.193829
0.192819
0.191842
0.190894
0.189976
0.189086
0.188223
0.187386
0.186574
0.185786
0.185022
0.18428
0.183559
0.182859
0.18218
0.181519
0.180878
0.180254
0.179648
0.179059
0.178486
0.177929
0.177387
0.17686
0.176347
0.175848
0.175362
0.17489
0.199395
0.198208
0.197059
0.195947
0.194871
0.193829
0.192819
0.191841
0.190894
0.189976
0.189086
0.188223
0.187386
0.186574
0.185786
0.185021
0.184279
0.183558
0.182858
0.182178
0.181518
0.180876
0.180253
0.179646
0.179057
0.178484
0.177927
0.177385
0.176857
0.176344
0.175845
0.175359
0.174886
0.199395
0.198208
0.197059
0.195947
0.194871
0.193829
0.192819
0.191841
0.190894
0.189976
0.189086
0.188222
0.187385
0.186573
0.185785
0.185021
0.184278
0.183557
0.182857
0.182177
0.181517
0.180875
0.180251
0.179645
0.179056
0.178482
0.177925
0.177383
0.176855
0.176342
0.175843
0.175357
0.174884
0.199395
0.198208
0.197059
0.195947
0.194871
0.193829
0.192819
0.191841
0.190894
0.189976
0.189085
0.188222
0.187385
0.186573
0.185785
0.18502
0.184278
0.183557
0.182857
0.182177
0.181516
0.180874
0.18025
0.179644
0.179054
0.178481
0.177923
0.177381
0.176854
0.17634
0.175841
0.175355
0.174881
0.199395
0.198208
0.197059
0.195947
0.194871
0.193829
0.192819
0.191841
0.190894
0.189976
0.189086
0.188222
0.187385
0.186573
0.185785
0.18502
0.184278
0.183557
0.182857
0.182177
0.181516
0.180874
0.18025
0.179644
0.179054
0.178481
0.177923
0.177381
0.176853
0.176339
0.17584
0.175353
0.17488
0.199395
0.198208
0.197059
0.195947
0.194871
0.193829
0.192819
0.191841
0.190894
0.189976
0.189086
0.188223
0.187385
0.186573
0.185785
0.185021
0.184278
0.183557
0.182857
0.182177
0.181517
0.180875
0.180251
0.179644
0.179054
0.178481
0.177923
0.17738
0.176852
0.176338
0.175838
0.175351
0.174877
0.199395
0.198208
0.197059
0.195947
0.194871
0.193829
0.19282
0.191843
0.190896
0.189978
0.189089
0.188226
0.18739
0.186578
0.185791
0.185026
0.184284
0.183563
0.182863
0.182183
0.181521
0.180879
0.180254
0.179647
0.179056
0.178481
0.177922
0.177377
0.176847
0.176332
0.17583
0.175341
0.174864
0.199395
0.198208
0.197059
0.195948
0.194872
0.193831
0.192824
0.191848
0.190902
0.189986
0.189098
0.188236
0.1874
0.186589
0.185801
0.185036
0.184293
0.183571
0.182869
0.182186
0.181522
0.180876
0.180248
0.179636
0.179041
0.178461
0.177896
0.177346
0.17681
0.176288
0.17578
0.175284
0.1748
0.199395
0.198209
0.197062
0.195955
0.194886
0.193853
0.192854
0.191885
0.190945
0.190033
0.189146
0.188284
0.187446
0.186631
0.185838
0.185065
0.184313
0.183581
0.182868
0.182173
0.181496
0.180837
0.180194
0.179567
0.178955
0.178359
0.177778
0.177211
0.176658
0.176118
0.175591
0.175077
0.174576
0.199395
0.198223
0.197106
0.196032
0.194988
0.19397
0.192977
0.192008
0.191061
0.190136
0.189233
0.188352
0.187492
0.186652
0.185833
0.185033
0.184253
0.183491
0.182748
0.182022
0.181313
0.180622
0.179946
0.179287
0.178643
0.178014
0.177399
0.176799
0.176213
0.17564
0.17508
0.174533
0.173999
0.19941
0.198319
0.197296
0.1963
0.19531
0.194319
0.193329
0.192346
0.191374
0.190417
0.189479
0.188561
0.187664
0.186788
0.185933
0.1851
0.184287
0.183494
0.182721
0.181966
0.181229
0.18051
0.179808
0.179123
0.178453
0.177799
0.177161
0.176537
0.175927
0.175331
0.174749
0.17418
0.173625
0.199716
0.199139
0.19847
0.197764
0.197072
0.196419
0.195813
0.195252
0.194736
0.194263
0.193832
0.193442
0.193091
0.192776
0.192496
0.192249
0.192032
0.191845
0.191684
0.191548
0.191435
0.191344
0.191272
0.191219
0.191183
0.191162
0.191156
0.191163
0.191182
0.191213
0.191254
0.191305
0.191364
0.205424
0.216593
0.227629
0.238434
0.248976
0.259243
0.269229
0.278926
0.288326
0.297424
0.306216
0.3147
0.322877
0.330746
0.338311
0.345575
0.352544
0.359221
0.365615
0.371732
0.377578
0.383164
0.388495
0.393581
0.398431
0.403052
0.407453
0.411644
0.415631
0.419425
0.423032
0.42646
0.429721
0.660174
0.76794
0.873578
0.980565
1.09043
1.1994
1.30106
1.38956
1.46141
1.51618
1.556
1.58425
1.60451
1.61969
1.63178
1.64188
1.65038
1.65731
1.66257
1.6661
1.66798
1.66839
1.66761
1.66595
1.66369
1.66104
1.65817
1.65519
1.65213
1.64903
1.64585
1.64256
1.63909
1.63534
1.63118
1.62646
1.62098
1.61457
1.60699
1.59805
1.58753
1.57524
1.56101
1.54469
1.52621
1.5055
1.48258
1.45753
1.43048
1.40162
1.37124
1.33964
1.3072
1.27431
1.2414
1.2089
1.17721
1.14671
1.1177
1.09042
1.06502
1.04152
1.01984
0.99975
0.98093
0.96293
0.94522
0.927211
0.908298
0.887895
0.86548
0.840631
0.813047
0.782566
0.74917
0.712976
0.674228
0.633269
0.590544
0.546602
0.501941
0.45686
0.412534
0.371813
0.330885
0.276168
0.246748
0.337598
0.506448
0.666824
0.793649
0.889646
0.961119
1.01299
1.04891
1.07174
1.08389
1.08743
1.08496
1.07038
0.27628
0.28438
0.297569
0.316813
0.343603
0.379426
0.425342
0.481666
0.547706
0.621726
0.701135
0.782842
0.863652
0.940659
1.01155
1.0748
1.12971
1.17631
1.2152
1.24733
1.27376
1.29548
1.31335
1.32799
1.33987
1.34932
1.35657
1.36183
1.36529
1.36713
1.36751
1.36655
1.36436
1.36099
1.35643
1.35067
1.34364
1.33525
1.32541
1.31401
1.30093
1.2861
1.26942
1.25086
1.23041
1.20808
1.18396
1.15818
1.13093
1.10245
1.07302
1.04299
1.0127
0.98256
0.952949
0.924251
0.89682
0.870963
0.846927
0.824883
0.804913
0.786996
0.771007
0.756711
0.743766
0.731736
0.720106
0.708312
0.695774
0.681934
0.666296
0.648459
0.628143
0.605208
0.579658
0.551637
0.521415
0.489368
0.455975
0.421816
0.387415
0.353098
0.320103
0.291068
0.261286
0.218613
0.209105
0.320667
0.496986
0.656844
0.781059
0.874415
0.943715
0.99397
1.02881
1.05107
1.06311
1.06695
1.06508
1.05172
0.162194
0.162028
0.162219
0.162929
0.164443
0.167106
0.171342
0.177676
0.186738
0.199237
0.215929
0.237544
0.264697
0.297785
0.33688
0.381657
0.431352
0.484788
0.540459
0.596676
0.651741
0.704127
0.752625
0.796425
0.835122
0.868667
0.897276
0.921318
0.941226
0.957429
0.970308
0.980178
0.987293
0.991849
0.993999
0.993858
0.991518
0.987046
0.980496
0.971912
0.961332
0.948799
0.934365
0.918098
0.900091
0.880468
0.859388
0.837047
0.813679
0.789554
0.764971
0.740254
0.715738
0.69176
0.668647
0.646699
0.626184
0.607318
0.590262
0.575111
0.561889
0.550541
0.540933
0.532846
0.525983
0.519968
0.514364
0.508689
0.502443
0.495138
0.486337
0.475683
0.462929
0.447951
0.430762
0.411507
0.390448
0.367948
0.344457
0.320515
0.296597
0.27296
0.25064
0.231977
0.212452
0.180649
0.18145
0.298184
0.47405
0.631795
0.753949
0.845721
0.914002
0.963796
0.998686
1.02145
1.03436
1.03937
1.03885
1.02756
0.156987
0.155833
0.154733
0.153696
0.152735
0.151882
0.151186
0.150714
0.150551
0.150808
0.151621
0.153163
0.155643
0.159309
0.164454
0.171409
0.180529
0.192175
0.206672
0.224263
0.245051
0.268959
0.295693
0.324744
0.35542
0.386903
0.418328
0.448856
0.477748
0.504409
0.528408
0.549474
0.567477
0.582394
0.59428
0.603237
0.609394
0.612886
0.613857
0.612444
0.608791
0.60304
0.595343
0.585864
0.574778
0.562283
0.548591
0.533936
0.518567
0.502747
0.486746
0.470832
0.455268
0.440299
0.426147
0.413003
0.401024
0.390327
0.380989
0.373041
0.366476
0.361239
0.357229
0.354297
0.352244
0.350817
0.349716
0.348602
0.34711
0.344873
0.341549
0.336849
0.330562
0.322577
0.31289
0.301607
0.288934
0.275157
0.260629
0.245767
0.230941
0.216289
0.202522
0.191669
0.180183
0.157115
0.160437
0.270577
0.439759
0.593818
0.714096
0.804975
0.873073
0.923288
0.959109
0.983223
0.997798
1.00471
1.00617
0.997691
0.162767
0.161592
0.16043
0.159281
0.158148
0.157035
0.155948
0.154898
0.153898
0.152966
0.152126
0.151406
0.150841
0.150474
0.150357
0.150551
0.151128
0.152171
0.153775
0.156045
0.159097
0.163049
0.168013
0.17409
0.181351
0.189825
0.19948
0.210219
0.221872
0.2342
0.24691
0.259674
0.272151
0.284014
0.294966
0.304756
0.313188
0.320127
0.32549
0.32925
0.331422
0.332062
0.331259
0.329128
0.325807
0.321452
0.316233
0.310329
0.303922
0.297197
0.290329
0.283488
0.276826
0.270477
0.264557
0.259158
0.254354
0.250196
0.246716
0.24393
0.241834
0.24041
0.239618
0.239396
0.239659
0.240288
0.241132
0.242009
0.242707
0.243
0.242661
0.241484
0.239304
0.236016
0.231584
0.226053
0.219536
0.212208
0.204288
0.196049
0.187741
0.179411
0.171472
0.165624
0.159637
0.143354
0.14442
0.23945
0.39656
0.545121
0.663315
0.753642
0.82209
0.873335
0.910727
0.936831
0.953686
0.963063
0.967019
0.961966
0.167268
0.166224
0.165178
0.164132
0.163085
0.162041
0.161
0.159966
0.15894
0.157928
0.156934
0.155966
0.155033
0.154146
0.153317
0.152562
0.151898
0.151346
0.150929
0.15067
0.150597
0.150738
0.151121
0.151778
0.152735
0.154018
0.155649
0.15764
0.159993
0.162696
0.165723
0.16903
0.172554
0.176219
0.179934
0.1836
0.187116
0.190385
0.193316
0.195836
0.197886
0.199431
0.200455
0.200962
0.200975
0.200536
0.199696
0.198518
0.197072
0.195427
0.193655
0.191823
0.189992
0.188219
0.186551
0.185028
0.183685
0.182549
0.181639
0.180972
0.180558
0.180402
0.180502
0.180847
0.181415
0.182169
0.183053
0.183991
0.184887
0.185626
0.186084
0.186136
0.185669
0.184598
0.182873
0.180487
0.17748
0.173929
0.169944
0.165677
0.161286
0.156774
0.152328
0.149285
0.146667
0.135746
0.132861
0.207282
0.347343
0.488141
0.60359
0.693343
0.762364
0.814974
0.854332
0.882843
0.902404
0.914658
0.921476
0.920367
0.170197
0.169282
0.168359
0.16743
0.166495
0.165555
0.164612
0.163665
0.162717
0.161769
0.160822
0.159878
0.158942
0.158016
0.157104
0.156212
0.155347
0.154515
0.153724
0.152983
0.152302
0.151689
0.151156
0.150713
0.150369
0.150132
0.150012
0.150013
0.150139
0.150393
0.15077
0.151266
0.15187
0.152567
0.153338
0.154162
0.155013
0.155863
0.156685
0.157452
0.158139
0.158726
0.159196
0.159539
0.15975
0.15983
0.159784
0.159625
0.159366
0.159025
0.15862
0.158169
0.157693
0.15721
0.156735
0.156286
0.155874
0.155514
0.155216
0.154991
0.154846
0.154788
0.154825
0.154957
0.155183
0.155496
0.155879
0.156307
0.156744
0.157139
0.157435
0.157568
0.157473
0.157094
0.156388
0.155334
0.153932
0.152207
0.150205
0.148
0.145687
0.143257
0.140755
0.139133
0.138345
0.131702
0.125639
0.177082
0.295474
0.425639
0.537141
0.625904
0.695405
0.749435
0.790897
0.82201
0.844505
0.859881
0.869794
0.873017
0.172037
0.171223
0.1704
0.16957
0.168732
0.167886
0.167034
0.166175
0.165311
0.164443
0.16357
0.162694
0.161816
0.160939
0.160063
0.159191
0.158325
0.157469
0.156626
0.1558
0.154996
0.154216
0.153468
0.152755
0.152082
0.151454
0.150875
0.150349
0.14988
0.149468
0.149115
0.14882
0.148583
0.148399
0.148265
0.148174
0.148119
0.148093
0.148086
0.148089
0.148094
0.148092
0.148075
0.148037
0.147974
0.147882
0.147759
0.147606
0.147424
0.147215
0.146983
0.146732
0.146466
0.14619
0.145909
0.145626
0.145347
0.145075
0.144815
0.144571
0.144347
0.144147
0.143975
0.143834
0.143727
0.143655
0.143615
0.1436
0.143599
0.143594
0.143561
0.143473
0.143296
0.143001
0.14256
0.141954
0.141174
0.140225
0.139121
0.137896
0.136606
0.135246
0.13379
0.132838
0.132855
0.129448
0.122346
0.151904
0.244762
0.360778
0.46649
0.553399
0.622949
0.678167
0.721618
0.755295
0.78075
0.799321
0.812409
0.820211
0.173157
0.172419
0.171673
0.170918
0.170156
0.169386
0.168608
0.167824
0.167032
0.166234
0.16543
0.164621
0.163808
0.162991
0.162171
0.161349
0.160527
0.159707
0.158889
0.158076
0.157271
0.156475
0.155691
0.154923
0.154171
0.15344
0.152733
0.152051
0.151397
0.150773
0.150181
0.149623
0.149097
0.148605
0.148146
0.147719
0.147321
0.146951
0.146605
0.146279
0.145972
0.145679
0.145396
0.145121
0.14485
0.144581
0.144311
0.144039
0.143763
0.143483
0.143197
0.142906
0.14261
0.142307
0.141998
0.141684
0.141364
0.141039
0.140709
0.140376
0.14004
0.139703
0.139368
0.139036
0.138709
0.13839
0.13808
0.13778
0.137486
0.137195
0.1369
0.136589
0.136249
0.135867
0.135429
0.134922
0.134341
0.133682
0.13295
0.132159
0.131344
0.130506
0.129599
0.128949
0.12916
0.127883
0.121877
0.134119
0.199289
0.297164
0.394516
0.478192
0.546991
0.60287
0.647932
0.683902
0.712132
0.733786
0.749975
0.762437
0.173808
0.173125
0.172433
0.171735
0.171029
0.170316
0.169595
0.168868
0.168134
0.167393
0.166646
0.165893
0.165135
0.164372
0.163605
0.162834
0.162061
0.161285
0.160509
0.159733
0.158959
0.158188
0.157421
0.15666
0.155907
0.155164
0.154432
0.153713
0.153009
0.152321
0.151652
0.151002
0.150372
0.149764
0.149178
0.148614
0.148073
0.147553
0.147054
0.146576
0.146116
0.145674
0.145247
0.144835
0.144435
0.144045
0.143665
0.143291
0.142923
0.142559
0.142196
0.141834
0.141471
0.141104
0.140734
0.140357
0.139973
0.13958
0.139178
0.138765
0.138342
0.137908
0.137465
0.137012
0.136553
0.136088
0.135619
0.135149
0.13468
0.13421
0.133741
0.133269
0.132792
0.132304
0.1318
0.131275
0.130725
0.13015
0.12955
0.128932
0.128316
0.127711
0.127078
0.126566
0.12668
0.126495
0.122652
0.12442
0.162935
0.238806
0.324498
0.402961
0.4698
0.525502
0.571534
0.60929
0.639895
0.664331
0.683377
0.700395
0.174162
0.173515
0.172861
0.172201
0.171535
0.170863
0.170184
0.169499
0.168807
0.16811
0.167406
0.166698
0.165983
0.165264
0.16454
0.163812
0.163081
0.162347
0.16161
0.160872
0.160133
0.159395
0.158657
0.157922
0.15719
0.156462
0.15574
0.155025
0.154318
0.15362
0.152933
0.152258
0.151596
0.150948
0.150314
0.149697
0.149095
0.148509
0.14794
0.147388
0.146852
0.146331
0.145826
0.145335
0.144857
0.144392
0.143938
0.143492
0.143055
0.142625
0.142198
0.141775
0.141352
0.140927
0.1405
0.140067
0.139627
0.139177
0.138717
0.138245
0.13776
0.137261
0.136748
0.136222
0.135683
0.135134
0.134574
0.134008
0.133436
0.132862
0.132287
0.131713
0.131139
0.130567
0.129995
0.129423
0.128851
0.128278
0.127707
0.127141
0.126593
0.126074
0.12556
0.12511
0.125051
0.125203
0.123343
0.121139
0.138391
0.189868
0.260111
0.330727
0.393932
0.448286
0.494382
0.533182
0.565546
0.592268
0.613755
0.635008
0.174337
0.173712
0.173082
0.172447
0.171807
0.171162
0.170511
0.169855
0.169193
0.168527
0.167855
0.167178
0.166496
0.16581
0.165119
0.164425
0.163727
0.163025
0.162321
0.161615
0.160907
0.160199
0.15949
0.158781
0.158073
0.157368
0.156665
0.155966
0.155272
0.154583
0.1539
0.153225
0.152559
0.151902
0.151255
0.150619
0.149994
0.149382
0.148782
0.148195
0.147621
0.14706
0.146512
0.145977
0.145453
0.144941
0.144439
0.143946
0.143461
0.142983
0.14251
0.14204
0.141571
0.141102
0.14063
0.140153
0.13967
0.139177
0.138675
0.13816
0.137632
0.13709
0.136534
0.135962
0.135376
0.134777
0.134166
0.133546
0.132917
0.132284
0.131648
0.131012
0.130378
0.129749
0.129125
0.12851
0.127903
0.127308
0.126725
0.12616
0.125621
0.125117
0.12464
0.12421
0.124005
0.1241
0.123418
0.121088
0.125643
0.15395
0.205286
0.264839
0.322221
0.373698
0.418681
0.457552
0.490852
0.519166
0.542503
0.56744
0.174412
0.173799
0.173183
0.172563
0.171938
0.171309
0.170676
0.170039
0.169397
0.16875
0.168099
0.167444
0.166785
0.166122
0.165455
0.164784
0.16411
0.163434
0.162754
0.162072
0.161389
0.160704
0.160018
0.159332
0.158646
0.157961
0.157277
0.156595
0.155916
0.155241
0.154569
0.153903
0.153242
0.152588
0.151941
0.151301
0.150671
0.150049
0.149437
0.148835
0.148243
0.147662
0.147091
0.146531
0.145981
0.14544
0.144908
0.144384
0.143868
0.143357
0.142851
0.142348
0.141847
0.141345
0.14084
0.140331
0.139817
0.139294
0.138761
0.138217
0.13766
0.13709
0.136505
0.135905
0.135292
0.134664
0.134025
0.133374
0.132714
0.132048
0.131379
0.130708
0.130038
0.129373
0.128716
0.128067
0.127431
0.126809
0.126206
0.125623
0.125069
0.124552
0.12407
0.123634
0.123328
0.123252
0.123009
0.121625
0.12127
0.132498
0.163699
0.208862
0.257737
0.304426
0.346844
0.384598
0.417814
0.446843
0.47127
0.499093
0.174436
0.17383
0.173221
0.172608
0.171992
0.171372
0.170749
0.170122
0.169491
0.168857
0.168219
0.167578
0.166933
0.166285
0.165633
0.164978
0.164321
0.163661
0.162998
0.162334
0.161668
0.161
0.160331
0.159662
0.158992
0.158323
0.157655
0.156987
0.156322
0.155658
0.154998
0.154341
0.153688
0.15304
0.152398
0.151761
0.15113
0.150507
0.149891
0.149283
0.148683
0.148092
0.147509
0.146935
0.146369
0.145811
0.145261
0.144717
0.14418
0.143648
0.14312
0.142594
0.142069
0.141544
0.141017
0.140485
0.139948
0.139404
0.13885
0.138286
0.13771
0.137122
0.136519
0.135903
0.135273
0.13463
0.133974
0.133308
0.132632
0.131949
0.131261
0.130572
0.129883
0.129197
0.128518
0.127848
0.127189
0.126546
0.125922
0.125319
0.124743
0.124202
0.123699
0.12324
0.122867
0.122636
0.122434
0.121731
0.120574
0.123056
0.137372
0.166166
0.203662
0.243288
0.281422
0.316669
0.348612
0.377316
0.401928
0.431597
0.174439
0.173835
0.173229
0.172619
0.172007
0.171391
0.170773
0.170152
0.169527
0.168899
0.168269
0.167635
0.166998
0.166359
0.165716
0.165072
0.164424
0.163775
0.163123
0.162469
0.161814
0.161158
0.160501
0.159843
0.159185
0.158526
0.157869
0.157212
0.156556
0.155902
0.15525
0.154601
0.153955
0.153313
0.152675
0.152041
0.151413
0.15079
0.150174
0.149564
0.14896
0.148364
0.147774
0.147192
0.146617
0.146048
0.145486
0.14493
0.144379
0.143832
0.143289
0.142747
0.142207
0.141666
0.141123
0.140576
0.140023
0.139464
0.138897
0.13832
0.137732
0.137131
0.136519
0.135893
0.135254
0.134602
0.133938
0.133264
0.132581
0.13189
0.131193
0.130494
0.129795
0.129098
0.128407
0.127723
0.12705
0.126391
0.125749
0.125127
0.124531
0.123966
0.123436
0.122948
0.122522
0.122182
0.121895
0.121444
0.120575
0.120264
0.124599
0.138687
0.162903
0.193075
0.224971
0.256152
0.285505
0.312722
0.336509
0.366767
0.174433
0.17383
0.173224
0.172616
0.172005
0.171391
0.170775
0.170155
0.169534
0.168909
0.168282
0.167652
0.167019
0.166385
0.165747
0.165108
0.164466
0.163822
0.163177
0.162529
0.161881
0.161231
0.160581
0.15993
0.159278
0.158627
0.157976
0.157325
0.156676
0.156028
0.155382
0.154738
0.154096
0.153458
0.152823
0.152192
0.151566
0.150944
0.150327
0.149716
0.14911
0.148511
0.147917
0.14733
0.146748
0.146172
0.145602
0.145037
0.144477
0.14392
0.143366
0.142814
0.142262
0.14171
0.141156
0.140598
0.140036
0.139467
0.13889
0.138304
0.137709
0.137102
0.136483
0.135852
0.135208
0.134553
0.133886
0.133209
0.132523
0.131829
0.13113
0.130427
0.129723
0.129021
0.128323
0.127631
0.126948
0.126278
0.125623
0.124986
0.124372
0.123785
0.123229
0.12271
0.12224
0.121823
0.121443
0.121018
0.120394
0.119661
0.120113
0.124872
0.136919
0.156144
0.179866
0.205308
0.23067
0.255175
0.277076
0.306515
0.174424
0.173821
0.173215
0.172607
0.171996
0.171383
0.170767
0.170148
0.169528
0.168904
0.168278
0.16765
0.167019
0.166386
0.165751
0.165114
0.164475
0.163834
0.163192
0.162548
0.161902
0.161256
0.160609
0.159962
0.159314
0.158666
0.158018
0.157371
0.156725
0.15608
0.155437
0.154795
0.154156
0.15352
0.152886
0.152256
0.15163
0.151008
0.150391
0.149778
0.14917
0.148568
0.147971
0.147379
0.146793
0.146212
0.145636
0.145064
0.144497
0.143932
0.143371
0.142811
0.142251
0.141691
0.141129
0.140564
0.139994
0.139418
0.138836
0.138244
0.137644
0.137033
0.136411
0.135778
0.135133
0.134476
0.133809
0.133132
0.132446
0.131752
0.131053
0.13035
0.129645
0.128941
0.12824
0.127543
0.126855
0.126177
0.125512
0.124863
0.124234
0.123628
0.123048
0.1225
0.121991
0.121518
0.121064
0.120594
0.120046
0.119377
0.118864
0.119655
0.123851
0.133248
0.147836
0.166046
0.186016
0.206578
0.225545
0.252709
0.174415
0.173812
0.173205
0.172597
0.171986
0.171372
0.170756
0.170138
0.169517
0.168894
0.168268
0.16764
0.16701
0.166378
0.165743
0.165107
0.164469
0.163829
0.163187
0.162545
0.161901
0.161256
0.16061
0.159964
0.159317
0.158671
0.158024
0.157378
0.156733
0.156089
0.155446
0.154805
0.154167
0.15353
0.152897
0.152266
0.151639
0.151016
0.150397
0.149782
0.149172
0.148566
0.147966
0.14737
0.14678
0.146194
0.145613
0.145036
0.144462
0.143892
0.143324
0.142758
0.142192
0.141626
0.141058
0.140487
0.139912
0.139331
0.138744
0.13815
0.137546
0.136933
0.13631
0.135676
0.135031
0.134376
0.13371
0.133034
0.13235
0.131658
0.13096
0.130259
0.129555
0.12885
0.128148
0.127449
0.126757
0.126074
0.125401
0.124743
0.124101
0.123478
0.122878
0.122304
0.12176
0.121241
0.120732
0.120211
0.119655
0.119037
0.118391
0.118019
0.118766
0.121972
0.128786
0.139384
0.152923
0.168421
0.183483
0.20697
0.174407
0.173803
0.173196
0.172587
0.171975
0.171361
0.170745
0.170126
0.169505
0.168881
0.168256
0.167627
0.166997
0.166365
0.16573
0.165094
0.164456
0.163816
0.163175
0.162532
0.161889
0.161244
0.160598
0.159952
0.159305
0.158658
0.158012
0.157365
0.15672
0.156075
0.155432
0.15479
0.15415
0.153513
0.152877
0.152245
0.151616
0.150991
0.150369
0.149752
0.149138
0.14853
0.147925
0.147326
0.146731
0.14614
0.145554
0.144972
0.144393
0.143818
0.143244
0.142673
0.142101
0.14153
0.140957
0.140382
0.139802
0.139218
0.138628
0.138031
0.137426
0.136812
0.136188
0.135554
0.134911
0.134256
0.133592
0.132919
0.132237
0.131548
0.130853
0.130154
0.129451
0.128748
0.128046
0.127346
0.126652
0.125964
0.125286
0.124619
0.123966
0.123329
0.122711
0.122113
0.121538
0.120982
0.120429
0.119863
0.119276
0.118659
0.11801
0.117389
0.117045
0.117541
0.119709
0.12432
0.131622
0.141485
0.151906
0.170478
0.174399
0.173794
0.173187
0.172577
0.171965
0.171351
0.170734
0.170115
0.169493
0.168869
0.168243
0.167614
0.166984
0.166351
0.165716
0.16508
0.164441
0.163801
0.163159
0.162516
0.161872
0.161227
0.16058
0.159933
0.159286
0.158638
0.157991
0.157343
0.156697
0.15605
0.155406
0.154762
0.15412
0.153481
0.152843
0.152209
0.151577
0.150949
0.150324
0.149703
0.149086
0.148474
0.147865
0.147261
0.146662
0.146067
0.145476
0.144889
0.144305
0.143724
0.143146
0.142569
0.141993
0.141417
0.14084
0.14026
0.139677
0.13909
0.138497
0.137898
0.137292
0.136677
0.136053
0.13542
0.134777
0.134125
0.133463
0.132792
0.132114
0.131427
0.130735