/*--------------------------------*- C++ -*----------------------------------*\
| =========                 |                                                 |
| \\      /  F ield         | OpenFOAM: The Open Source CFD Toolbox           |
|  \\    /   O peration     | Version:  4.1                                   |
|   \\  /    A nd           | Web:      www.OpenFOAM.org                      |
|    \\/     M anipulation  |                                                 |
\*---------------------------------------------------------------------------*/
FoamFile
{
    version     2.0;
    format      ascii;
    class       volScalarField;
    location    "300";
    object      nut;
}
// * * * * * * * * * * * * * * * * * * * * * * * * * * * * * * * * * * * * * //

dimensions      [0 2 -1 0 0 0 0];

internalField   nonuniform List<scalar> 
6820
(
4.39385e-05
4.87747e-05
5.31526e-05
5.70915e-05
6.05796e-05
6.36103e-05
6.61885e-05
6.83327e-05
7.0074e-05
7.14514e-05
7.25085e-05
7.32897e-05
7.38378e-05
7.41923e-05
7.43891e-05
7.44593e-05
7.44297e-05
7.43229e-05
7.41578e-05
7.39498e-05
7.37116e-05
7.34533e-05
7.31829e-05
7.29069e-05
7.26302e-05
7.23568e-05
7.20895e-05
7.18311e-05
7.15811e-05
7.1352e-05
7.1088e-05
7.1072e-05
6.99162e-05
0.000469409
0.000265607
0.000193509
0.000152488
0.000125529
0.000107014
9.4001e-05
8.467e-05
7.78698e-05
7.28583e-05
6.91421e-05
6.63836e-05
6.43463e-05
6.2861e-05
6.18049e-05
6.10869e-05
6.06386e-05
6.04077e-05
6.03538e-05
6.04453e-05
6.06568e-05
6.0968e-05
6.13624e-05
6.18261e-05
6.23477e-05
6.29176e-05
6.35274e-05
6.41706e-05
6.48401e-05
6.55336e-05
6.62399e-05
6.69668e-05
6.76676e-05
0.000918058
0.000718795
0.000582222
0.000488777
0.000421579
0.000370784
0.000331007
0.000299114
0.000273072
0.000251473
0.00023332
0.000217887
0.000204639
0.00019317
0.000183169
0.000174392
0.000166646
0.000159777
0.000153658
0.000148189
0.000143283
0.00013887
0.000134891
0.000131295
0.00012804
0.000125089
0.000122409
0.000119975
0.000117761
0.000115746
0.000113912
0.000112248
0.000110684
0.00100704
0.000950024
0.000874017
0.000798212
0.000730804
0.000673126
0.000624143
0.000582404
0.000546586
0.000515593
0.000488544
0.000464742
0.000443637
0.000424793
0.000407861
0.000392561
0.000378666
0.000365989
0.000354376
0.000343698
0.000333847
0.000324729
0.000316266
0.00030839
0.000301042
0.000294171
0.000287732
0.000281684
0.000275995
0.000270631
0.000265566
0.000260771
0.000256219
0.00101631
0.001006
0.000983563
0.000951519
0.000914347
0.000875791
0.000838168
0.000802652
0.000769713
0.000739437
0.000711721
0.000686377
0.000663192
0.00064195
0.000622452
0.000604513
0.00058797
0.000572678
0.00055851
0.000545353
0.000533108
0.000521688
0.000511015
0.000501021
0.000491646
0.000482836
0.000474544
0.000466728
0.00045935
0.000452376
0.000445778
0.000439528
0.000433602
0.00101678
0.00101508
0.00101017
0.0010009
0.00098729
0.000970152
0.000950606
0.000929707
0.000908288
0.000886946
0.000866077
0.000845926
0.000826632
0.000808265
0.000790843
0.00077436
0.000758788
0.000744087
0.000730214
0.000717122
0.000704764
0.000693093
0.000682067
0.000671642
0.00066178
0.000652444
0.0006436
0.000635218
0.00062727
0.000619731
0.000612577
0.000605791
0.000599349
0.00101672
0.00101615
0.001015
0.00101271
0.00100877
0.00100297
0.000995343
0.000986101
0.00097557
0.000964087
0.000951966
0.000939476
0.000926833
0.000914204
0.000901718
0.000889467
0.000877518
0.000865916
0.00085469
0.000843858
0.000833426
0.000823397
0.000813768
0.00080453
0.000795675
0.000787192
0.000779069
0.000771294
0.000763856
0.000756743
0.000749944
0.000743451
0.000737248
0.0010167
0.00101622
0.00101568
0.00101493
0.00101376
0.00101199
0.00100945
0.00100608
0.00100186
0.000996853
0.000991147
0.000984853
0.000978085
0.000970957
0.000963568
0.000956008
0.000948354
0.00094067
0.000933009
0.000925414
0.000917919
0.000910553
0.000903335
0.000896282
0.000889407
0.000882718
0.000876221
0.000869921
0.000863819
0.000857918
0.000852218
0.000846718
0.000841416
0.0010167
0.00101622
0.00101574
0.00101525
0.00101469
0.001014
0.00101308
0.00101187
0.00101031
0.00100837
0.00100603
0.0010033
0.0010002
0.000996765
0.000993034
0.000989049
0.000984852
0.000980485
0.000975987
0.000971393
0.000966734
0.000962038
0.00095733
0.000952631
0.00094796
0.000943332
0.000938762
0.00093426
0.000929836
0.000925499
0.000921255
0.000917111
0.000913069
0.0010167
0.00101621
0.00101574
0.00101529
0.00101483
0.00101436
0.00101385
0.00101326
0.00101258
0.00101176
0.00101079
0.00100964
0.00100831
0.00100679
0.00100508
0.0010032
0.00100115
0.00099894
0.000996598
0.000994135
0.00099157
0.000988918
0.000986195
0.000983417
0.000980597
0.000977749
0.000974885
0.000972015
0.00096915
0.000966298
0.000963468
0.000960666
0.000957899
0.0010167
0.00101621
0.00101574
0.00101529
0.00101484
0.00101441
0.00101398
0.00101354
0.00101308
0.0010126
0.00101208
0.0010115
0.00101085
0.00101013
0.00100933
0.00100844
0.00100746
0.00100639
0.00100524
0.001004
0.00100269
0.00100131
0.000999865
0.00099836
0.000996805
0.000995206
0.00099357
0.000991905
0.000990215
0.000988509
0.000986791
0.000985066
0.000983342
0.0010167
0.00101621
0.00101574
0.00101528
0.00101484
0.00101441
0.00101399
0.00101358
0.00101317
0.00101277
0.00101237
0.00101195
0.00101153
0.00101108
0.00101061
0.00101011
0.00100958
0.00100901
0.0010084
0.00100776
0.00100707
0.00100635
0.00100559
0.00100479
0.00100396
0.0010031
0.0010022
0.00100129
0.00100034
0.00099938
0.0009984
0.000997404
0.000996398
0.0010167
0.00101621
0.00101574
0.00101528
0.00101484
0.00101441
0.00101399
0.00101358
0.00101318
0.0010128
0.00101242
0.00101204
0.00101167
0.00101131
0.00101094
0.00101057
0.00101019
0.00100981
0.00100941
0.00100901
0.00100859
0.00100815
0.0010077
0.00100724
0.00100676
0.00100627
0.00100576
0.00100523
0.0010047
0.00100415
0.00100359
0.00100302
0.00100244
0.0010167
0.00101621
0.00101574
0.00101528
0.00101484
0.0010144
0.00101398
0.00101358
0.00101318
0.0010128
0.00101242
0.00101205
0.0010117
0.00101135
0.00101101
0.00101067
0.00101034
0.00101001
0.00100969
0.00100936
0.00100904
0.00100871
0.00100839
0.00100806
0.00100773
0.00100739
0.00100705
0.00100671
0.00100636
0.00100601
0.00100566
0.0010053
0.00100494
0.0010167
0.00101621
0.00101574
0.00101528
0.00101484
0.0010144
0.00101398
0.00101357
0.00101318
0.00101279
0.00101242
0.00101205
0.0010117
0.00101135
0.00101101
0.00101069
0.00101037
0.00101005
0.00100975
0.00100944
0.00100915
0.00100886
0.00100857
0.00100829
0.00100801
0.00100774
0.00100747
0.00100719
0.00100693
0.00100666
0.00100639
0.00100613
0.00100586
0.0010167
0.00101621
0.00101574
0.00101528
0.00101483
0.0010144
0.00101398
0.00101357
0.00101317
0.00101279
0.00101241
0.00101205
0.00101169
0.00101135
0.00101101
0.00101068
0.00101036
0.00101005
0.00100975
0.00100946
0.00100917
0.00100889
0.00100861
0.00100834
0.00100808
0.00100783
0.00100757
0.00100733
0.00100709
0.00100685
0.00100661
0.00100638
0.00100616
0.0010167
0.00101621
0.00101574
0.00101528
0.00101483
0.0010144
0.00101398
0.00101357
0.00101317
0.00101278
0.00101241
0.00101204
0.00101169
0.00101134
0.001011
0.00101068
0.00101036
0.00101005
0.00100974
0.00100945
0.00100916
0.00100888
0.00100861
0.00100835
0.00100809
0.00100784
0.00100759
0.00100735
0.00100712
0.00100689
0.00100666
0.00100645
0.00100623
0.0010167
0.00101621
0.00101574
0.00101528
0.00101483
0.0010144
0.00101398
0.00101357
0.00101317
0.00101278
0.00101241
0.00101204
0.00101168
0.00101134
0.001011
0.00101067
0.00101035
0.00101004
0.00100974
0.00100944
0.00100916
0.00100888
0.0010086
0.00100834
0.00100808
0.00100783
0.00100759
0.00100735
0.00100711
0.00100689
0.00100667
0.00100645
0.00100624
0.0010167
0.00101621
0.00101574
0.00101528
0.00101483
0.0010144
0.00101398
0.00101357
0.00101317
0.00101278
0.0010124
0.00101204
0.00101168
0.00101133
0.00101099
0.00101067
0.00101035
0.00101003
0.00100973
0.00100944
0.00100915
0.00100887
0.0010086
0.00100833
0.00100807
0.00100782
0.00100757
0.00100734
0.0010071
0.00100688
0.00100665
0.00100644
0.00100623
0.0010167
0.00101621
0.00101574
0.00101528
0.00101483
0.0010144
0.00101397
0.00101356
0.00101317
0.00101278
0.0010124
0.00101203
0.00101168
0.00101133
0.00101099
0.00101066
0.00101034
0.00101003
0.00100972
0.00100943
0.00100914
0.00100886
0.00100859
0.00100832
0.00100806
0.00100781
0.00100756
0.00100732
0.00100709
0.00100686
0.00100664
0.00100642
0.00100621
0.0010167
0.00101621
0.00101574
0.00101528
0.00101483
0.0010144
0.00101397
0.00101356
0.00101316
0.00101278
0.0010124
0.00101203
0.00101167
0.00101132
0.00101099
0.00101066
0.00101034
0.00101002
0.00100972
0.00100942
0.00100913
0.00100885
0.00100858
0.00100831
0.00100805
0.0010078
0.00100755
0.00100731
0.00100708
0.00100685
0.00100663
0.00100641
0.0010062
0.0010167
0.00101621
0.00101574
0.00101528
0.00101483
0.00101439
0.00101397
0.00101356
0.00101316
0.00101277
0.0010124
0.00101203
0.00101167
0.00101132
0.00101098
0.00101065
0.00101033
0.00101002
0.00100971
0.00100942
0.00100913
0.00100885
0.00100857
0.00100831
0.00100804
0.00100779
0.00100754
0.0010073
0.00100707
0.00100684
0.00100661
0.0010064
0.00100618
0.0010167
0.00101621
0.00101574
0.00101528
0.00101483
0.00101439
0.00101397
0.00101356
0.00101316
0.00101277
0.00101239
0.00101203
0.00101167
0.00101132
0.00101098
0.00101065
0.00101033
0.00101001
0.00100971
0.00100941
0.00100912
0.00100884
0.00100857
0.0010083
0.00100804
0.00100778
0.00100753
0.00100729
0.00100706
0.00100683
0.0010066
0.00100639
0.00100617
0.0010167
0.00101621
0.00101574
0.00101528
0.00101483
0.00101439
0.00101397
0.00101356
0.00101316
0.00101277
0.00101239
0.00101202
0.00101167
0.00101132
0.00101098
0.00101065
0.00101032
0.00101001
0.00100971
0.00100941
0.00100912
0.00100884
0.00100856
0.00100829
0.00100803
0.00100778
0.00100753
0.00100728
0.00100705
0.00100682
0.00100659
0.00100637
0.00100616
0.0010167
0.00101621
0.00101574
0.00101528
0.00101483
0.00101439
0.00101397
0.00101356
0.00101316
0.00101277
0.00101239
0.00101202
0.00101166
0.00101131
0.00101098
0.00101064
0.00101032
0.00101001
0.0010097
0.0010094
0.00100911
0.00100883
0.00100855
0.00100829
0.00100802
0.00100777
0.00100752
0.00100728
0.00100704
0.00100681
0.00100658
0.00100636
0.00100615
0.0010167
0.00101621
0.00101574
0.00101528
0.00101483
0.00101439
0.00101397
0.00101356
0.00101316
0.00101277
0.00101239
0.00101202
0.00101166
0.00101131
0.00101097
0.00101064
0.00101032
0.00101
0.0010097
0.0010094
0.00100911
0.00100883
0.00100855
0.00100828
0.00100802
0.00100776
0.00100751
0.00100727
0.00100703
0.0010068
0.00100658
0.00100636
0.00100614
0.0010167
0.00101621
0.00101574
0.00101528
0.00101483
0.00101439
0.00101397
0.00101356
0.00101316
0.00101277
0.00101239
0.00101202
0.00101166
0.00101131
0.00101097
0.00101064
0.00101032
0.00101
0.0010097
0.0010094
0.00100911
0.00100882
0.00100855
0.00100828
0.00100801
0.00100776
0.00100751
0.00100726
0.00100703
0.00100679
0.00100657
0.00100635
0.00100613
0.0010167
0.00101621
0.00101574
0.00101528
0.00101483
0.00101439
0.00101397
0.00101356
0.00101316
0.00101277
0.00101239
0.00101202
0.00101166
0.00101131
0.00101097
0.00101064
0.00101032
0.00101
0.00100969
0.00100939
0.0010091
0.00100882
0.00100854
0.00100827
0.00100801
0.00100775
0.0010075
0.00100726
0.00100702
0.00100679
0.00100656
0.00100634
0.00100613
0.0010167
0.00101621
0.00101574
0.00101528
0.00101483
0.00101439
0.00101397
0.00101356
0.00101316
0.00101277
0.00101239
0.00101202
0.00101166
0.00101131
0.00101097
0.00101064
0.00101031
0.00101
0.00100969
0.00100939
0.0010091
0.00100882
0.00100854
0.00100827
0.00100801
0.00100775
0.0010075
0.00100725
0.00100702
0.00100678
0.00100656
0.00100633
0.00100612
0.0010167
0.00101621
0.00101574
0.00101528
0.00101483
0.00101439
0.00101397
0.00101356
0.00101316
0.00101277
0.00101239
0.00101202
0.00101166
0.00101131
0.00101097
0.00101064
0.00101031
0.00101
0.00100969
0.00100939
0.0010091
0.00100881
0.00100854
0.00100827
0.001008
0.00100775
0.00100749
0.00100725
0.00100701
0.00100678
0.00100655
0.00100633
0.00100611
0.0010167
0.00101621
0.00101574
0.00101528
0.00101483
0.00101439
0.00101397
0.00101356
0.00101316
0.00101277
0.00101239
0.00101202
0.00101166
0.00101131
0.00101097
0.00101064
0.00101031
0.00101
0.00100969
0.00100939
0.0010091
0.00100881
0.00100853
0.00100826
0.001008
0.00100774
0.00100749
0.00100724
0.001007
0.00100677
0.00100654
0.00100632
0.0010061
0.0010167
0.00101621
0.00101574
0.00101528
0.00101483
0.00101439
0.00101397
0.00101356
0.00101316
0.00101277
0.00101239
0.00101202
0.00101166
0.00101131
0.00101097
0.00101064
0.00101031
0.00101
0.00100969
0.00100939
0.00100909
0.00100881
0.00100853
0.00100825
0.00100798
0.00100772
0.00100747
0.00100722
0.00100697
0.00100673
0.0010065
0.00100627
0.00100604
0.0010167
0.00101621
0.00101574
0.00101528
0.00101483
0.00101439
0.00101397
0.00101356
0.00101316
0.00101277
0.00101239
0.00101202
0.00101166
0.00101131
0.00101096
0.00101063
0.0010103
0.00100997
0.00100966
0.00100935
0.00100905
0.00100875
0.00100845
0.00100817
0.00100788
0.0010076
0.00100732
0.00100705
0.00100678
0.00100651
0.00100625
0.00100599
0.00100573
0.0010167
0.00101621
0.00101574
0.00101528
0.00101483
0.00101439
0.00101397
0.00101356
0.00101316
0.00101276
0.00101237
0.00101199
0.00101162
0.00101125
0.00101088
0.00101051
0.00101015
0.00100979
0.00100942
0.00100906
0.00100869
0.00100833
0.00100796
0.00100758
0.00100721
0.00100684
0.00100646
0.00100608
0.00100569
0.00100531
0.00100492
0.00100453
0.00100413
0.0010167
0.00101621
0.00101574
0.00101527
0.00101482
0.00101438
0.00101394
0.0010135
0.00101305
0.00101259
0.00101213
0.00101165
0.00101115
0.00101063
0.00101009
0.00100952
0.00100894
0.00100832
0.00100769
0.00100703
0.00100635
0.00100565
0.00100493
0.00100419
0.00100343
0.00100265
0.00100186
0.00100105
0.00100023
0.000999398
0.000998556
0.000997704
0.000996846
0.0010167
0.00101621
0.00101571
0.00101519
0.00101464
0.00101403
0.00101334
0.00101256
0.00101168
0.00101069
0.00100959
0.00100838
0.00100706
0.00100564
0.00100411
0.0010025
0.00100081
0.000999034
0.000997191
0.000995286
0.000993327
0.00099132
0.000989274
0.000987194
0.000985087
0.000982958
0.000980814
0.000978658
0.000976496
0.000974332
0.000972169
0.000970012
0.000967865
0.00101669
0.00101596
0.00101486
0.00101328
0.00101118
0.00100856
0.00100542
0.00100182
0.00099779
0.000993382
0.00098865
0.000983644
0.000978414
0.000973005
0.00096746
0.000961816
0.000956107
0.000950363
0.000944609
0.000938867
0.000933156
0.000927492
0.000921888
0.000916356
0.000910905
0.000905542
0.000900274
0.000895104
0.000890037
0.000885076
0.000880221
0.000875474
0.000870835
0.00101524
0.00100708
0.000994961
0.000980625
0.00096478
0.000947882
0.000930313
0.00091242
0.000894498
0.000876774
0.000859412
0.000842526
0.000826189
0.000810446
0.000795319
0.000780814
0.000766927
0.000753643
0.000740945
0.000728812
0.000717219
0.000706143
0.00069556
0.000685444
0.000675772
0.000666521
0.00065767
0.000649197
0.000641082
0.000633307
0.000625853
0.000618705
0.000611845
0.000934352
0.00081341
0.000726842
0.000658854
0.000603197
0.00055686
0.000517942
0.000484967
0.000456745
0.000432357
0.000411094
0.000392407
0.000375869
0.000361138
0.000347943
0.000336065
0.000325324
0.000315573
0.000306687
0.000298565
0.000291118
0.000284271
0.000277962
0.000272134
0.000266739
0.000261736
0.000257087
0.000252761
0.000248729
0.000244964
0.000241445
0.000238152
0.000235064
0.000125479
0.000128845
0.000132086
0.000135185
0.000138141
0.000140961
0.00014365
0.000146214
0.000148657
0.000150984
0.0001532
0.000155308
0.000157312
0.000159218
0.000161028
0.000162748
0.000164381
0.00016593
0.0001674
0.000168795
0.000170117
0.000171371
0.000172559
0.000173685
0.000174752
0.000175762
0.000176719
0.000177626
0.000178484
0.000179297
0.000180066
0.000180794
0.000181484
8.04965e-05
9.56685e-05
0.000113478
0.000134646
0.000159314
0.000186716
0.000215558
0.000244529
0.000272664
0.000299548
0.000325258
0.000350166
0.000374706
0.000399218
0.000423873
0.000448675
0.000473522
0.000498278
0.000522835
0.000547144
0.000571225
0.000595141
0.000618981
0.000642828
0.000666746
0.000690777
0.000714942
0.000739254
0.000763721
0.00078835
0.000813146
0.000838106
0.000863212
0.00088843
0.0009137
0.000938941
0.000964049
0.000988898
0.00101335
0.00103725
0.00106045
0.00108279
0.00110412
0.00112429
0.00114319
0.00116072
0.00117682
0.00119148
0.00120471
0.0012166
0.00122725
0.00123685
0.00124562
0.00125382
0.00126175
0.00126972
0.00127804
0.00128703
0.00129695
0.00130799
0.00132028
0.00133381
0.00134843
0.00136384
0.00137958
0.00139499
0.00140932
0.00142167
0.00143109
0.00143666
0.00143752
0.00143293
0.00142236
0.00140546
0.00138214
0.0013525
0.00131689
0.00127579
0.00122994
0.00118031
0.00112766
0.00107199
0.00101705
0.000973157
0.000919525
0.000796251
0.00082027
0.00161975
0.00288379
0.0037362
0.00414643
0.00431352
0.00436042
0.00434605
0.00429852
0.00423221
0.00415512
0.0040723
0.00398826
0.00387173
6.87845e-05
7.06145e-05
7.33595e-05
7.74552e-05
8.34241e-05
9.17965e-05
0.000103026
0.000117408
0.000135003
0.000155612
0.000178796
0.000203951
0.0002304
0.000257484
0.000284654
0.000311519
0.000337866
0.000363642
0.000388909
0.000413788
0.000438403
0.000462842
0.000487135
0.000511269
0.000535196
0.000558869
0.000582254
0.000605343
0.000628154
0.000650717
0.000673063
0.000695215
0.000717179
0.00073894
0.000760462
0.000781691
0.000802556
0.000822971
0.000842841
0.000862062
0.000880525
0.000898119
0.000914739
0.00093029
0.000944693
0.000957893
0.000969864
0.000980618
0.000990206
0.000998726
0.00100632
0.00101318
0.00101954
0.00102565
0.00103182
0.00103836
0.00104556
0.00105371
0.00106306
0.00107378
0.00108598
0.00109962
0.00111458
0.00113055
0.0011471
0.00116363
0.0011794
0.00119358
0.00120529
0.00121364
0.00121782
0.00121715
0.00121112
0.00119947
0.00118213
0.0011593
0.0011314
0.00109904
0.00106307
0.00102468
0.000984801
0.000943554
0.000905239
0.000881248
0.000845362
0.000733627
0.000830076
0.00180377
0.00308619
0.00385628
0.0041973
0.0043196
0.00433818
0.00430562
0.00424635
0.00417263
0.00409115
0.00400608
0.00392155
0.00380514
0.000109018
0.000107166
0.000105302
0.000103617
0.000102148
0.000100954
0.000100156
9.99599e-05
0.000100652
0.000102597
0.0001062
0.000111868
0.000119954
0.000130717
0.000144288
0.00016065
0.000179627
0.000200893
0.000224
0.000248426
0.000273635
0.000299135
0.000324528
0.000349537
0.000374008
0.000397883
0.000421173
0.000443917
0.000466161
0.000487931
0.000509236
0.000530065
0.000550394
0.000570192
0.000589425
0.000608058
0.000626052
0.000643365
0.000659948
0.000675749
0.000690713
0.000704783
0.000717908
0.000730046
0.000741172
0.000751281
0.000760395
0.000768571
0.000775899
0.000782508
0.000788567
0.000794278
0.000799875
0.000805617
0.000811773
0.000818616
0.000826402
0.000835361
0.000845676
0.000857469
0.000870785
0.000885579
0.000901699
0.000918874
0.000936714
0.0009547
0.000972203
0.000988506
0.00100284
0.00101444
0.00102258
0.00102669
0.00102633
0.00102129
0.00101157
0.000997441
0.000979383
0.000958088
0.000934478
0.000909807
0.000885131
0.000860438
0.000839747
0.000835366
0.000819392
0.00071993
0.000853709
0.00190467
0.00316673
0.00388407
0.00418667
0.00428439
0.00428737
0.00424496
0.00417969
0.00410268
0.00401985
0.00393478
0.00385148
0.00373651
0.000251125
0.000245503
0.000239974
0.000234605
0.000229501
0.000224583
0.000219733
0.000214829
0.000209758
0.000204435
0.000198831
0.000193
0.000187101
0.000181409
0.000176296
0.000172202
0.000169585
0.000168873
0.000170418
0.00017447
0.000181148
0.000190445
0.000202224
0.000216234
0.000232136
0.000249535
0.000268014
0.000287171
0.000306648
0.000326149
0.000345444
0.00036437
0.000382816
0.000400707
0.000417996
0.000434645
0.000450626
0.000465908
0.000480465
0.000494271
0.000507304
0.000519551
0.000531008
0.000541687
0.000551617
0.000560849
0.000569457
0.000577541
0.000585229
0.000592673
0.000600048
0.000607546
0.000615369
0.00062372
0.000632792
0.000642758
0.000653762
0.000665908
0.000679258
0.000693822
0.000709558
0.000726368
0.000744091
0.000762506
0.000781315
0.000800151
0.000818568
0.000836059
0.000852069
0.000866037
0.000877433
0.000885814
0.000890869
0.000892457
0.00089064
0.000885695
0.000878104
0.000868526
0.000857793
0.000847034
0.000837215
0.000827978
0.000822363
0.000833089
0.000834369
0.000745912
0.000877371
0.00191608
0.00314081
0.00383305
0.00412225
0.00421186
0.00420982
0.00416466
0.0040984
0.00402174
0.00394027
0.00385723
0.00377673
0.00366448
0.000427063
0.000419872
0.000412851
0.000406019
0.00039945
0.000393132
0.000387021
0.000381054
0.000375147
0.000369197
0.000363084
0.000356679
0.000349856
0.000342497
0.000334519
0.000325887
0.000316639
0.000306902
0.000296898
0.000286941
0.000277411
0.000268721
0.000261269
0.000255407
0.000251405
0.000249438
0.00024958
0.000251808
0.000256014
0.000262021
0.000269604
0.000278508
0.000288472
0.000299238
0.000310573
0.000322268
0.00033415
0.000346079
0.000357949
0.000369684
0.000381237
0.000392585
0.00040373
0.000414694
0.000425523
0.000436279
0.000447045
0.000457917
0.000469001
0.00048041
0.000492256
0.000504643
0.000517657
0.000531363
0.000545796
0.00056096
0.000576826
0.000593334
0.000610401
0.000627924
0.000645787
0.000663866
0.00068203
0.00070014
0.000718046
0.000735572
0.000752516
0.000768642
0.000783681
0.000797347
0.000809358
0.00081947
0.000827513
0.000833428
0.00083729
0.000839322
0.000839899
0.000839511
0.000838748
0.00083843
0.000839285
0.000840603
0.00084418
0.000862401
0.000875093
0.000797497
0.00089219
0.00184253
0.00302125
0.00371172
0.00400842
0.00410407
0.00410631
0.00406473
0.00400196
0.00392896
0.00385133
0.00377219
0.00369598
0.00358771
0.000592254
0.000584474
0.000576908
0.00056956
0.00056245
0.000555576
0.000548925
0.000542477
0.000536205
0.000530069
0.000524019
0.000517996
0.000511929
0.000505738
0.000499339
0.000492642
0.00048556
0.000478018
0.000469957
0.00046135
0.000452207
0.000442587
0.000432602
0.000422414
0.000412229
0.000402289
0.000392852
0.000384175
0.000376494
0.000370012
0.000364884
0.000361213
0.000359049
0.000358394
0.000359211
0.000361432
0.000364969
0.000369723
0.000375598
0.000382499
0.000390344
0.000399067
0.000408615
0.000418951
0.000430053
0.000441906
0.000454504
0.000467842
0.000481909
0.000496688
0.000512146
0.000528234
0.000544884
0.000562006
0.000579494
0.000597227
0.000615075
0.000632902
0.000650578
0.000667978
0.000684995
0.000701534
0.000717522
0.000732897
0.000747615
0.000761634
0.000774916
0.000787414
0.000799072
0.000809823
0.000819598
0.000828334
0.000835999
0.000842603
0.000848224
0.000853012
0.0008572
0.000861078
0.000864972
0.000869382
0.000874808
0.000880407
0.000886852
0.000905292
0.000923435
0.00085936
0.000898349
0.00169814
0.00281905
0.00352534
0.00384733
0.00396171
0.00397679
0.00394466
0.00388959
0.00382332
0.00375186
0.00367839
0.00360787
0.00350486
0.000730372
0.000722784
0.00071537
0.000708139
0.000701096
0.000694244
0.000687576
0.000681088
0.000674769
0.000668608
0.00066259
0.000656693
0.000650895
0.000645169
0.000639482
0.0006338
0.000628085
0.000622294
0.000616385
0.000610319
0.000604059
0.000597579
0.000590865
0.000583921
0.000576772
0.000569468
0.000562084
0.000554719
0.000547494
0.000540548
0.00053403
0.000528092
0.000522885
0.000518546
0.000515197
0.000512942
0.000511861
0.000512011
0.000513428
0.00051613
0.000520116
0.000525368
0.00053186
0.00053955
0.00054839
0.000558318
0.000569267
0.000581154
0.000593889
0.000607371
0.000621486
0.000636114
0.000651124
0.000666383
0.000681756
0.000697108
0.000712314
0.000727256
0.000741829
0.000755944
0.000769527
0.000782524
0.000794893
0.00080661
0.000817659
0.000828037
0.000837743
0.000846781
0.000855157
0.000862876
0.000869949
0.000876394
0.000882242
0.000887546
0.000892383
0.000896865
0.000901139
0.000905372
0.000909732
0.000914517
0.000920097
0.000925749
0.000931334
0.000945882
0.000965211
0.000918799
0.000904216
0.00150731
0.00254548
0.00327737
0.00363961
0.00378449
0.00382062
0.00380363
0.00376028
0.00370371
0.00364065
0.00357456
0.00351111
0.00341468
0.000835476
0.000828851
0.000822311
0.000815869
0.000809535
0.000803312
0.000797205
0.000791213
0.000785337
0.000779575
0.000773925
0.000768384
0.000762947
0.000757609
0.000752364
0.000747207
0.000742129
0.000737124
0.000732181
0.000727291
0.000722443
0.000717627
0.000712837
0.000708065
0.000703313
0.000698588
0.000693905
0.00068929
0.000684782
0.00068043
0.000676296
0.000672452
0.000668979
0.000665962
0.00066349
0.000661652
0.000660529
0.000660199
0.000660724
0.000662157
0.000664536
0.000667881
0.000672197
0.000677475
0.000683684
0.000690784
0.000698714
0.000707405
0.000716773
0.000726723
0.000737156
0.000747964
0.000759038
0.000770268
0.000781549
0.00079278
0.000803868
0.000814731
0.0008253
0.000835516
0.000845334
0.000854723
0.000863662
0.000872139
0.000880151
0.000887701
0.000894792
0.000901429
0.000907616
0.000913358
0.000918662
0.000923538
0.000928011
0.000932116
0.000935909
0.000939465
0.000942882
0.00094627
0.000949736
0.000953469
0.000957783
0.000962213
0.000966174
0.000976049
0.000993861
0.000967337
0.000919562
0.00130614
0.00221584
0.00297103
0.00338503
0.00357146
0.00363676
0.00364058
0.00361297
0.00356902
0.00351656
0.00345952
0.0034045
0.003316
0.000908484
0.000903302
0.00089812
0.000892949
0.0008878
0.000882681
0.000877599
0.000872559
0.000867567
0.000862626
0.000857741
0.000852913
0.000848147
0.000843446
0.000838814
0.000834256
0.000829776
0.00082538
0.000821073
0.000816862
0.000812753
0.000808751
0.000804863
0.000801095
0.000797455
0.000793951
0.000790594
0.000787397
0.000784377
0.000781555
0.000778959
0.000776617
0.000774567
0.000772848
0.000771503
0.000770577
0.000770115
0.000770161
0.000770756
0.000771934
0.000773722
0.000776139
0.000779193
0.000782883
0.000787195
0.000792104
0.000797574
0.000803558
0.000810001
0.000816841
0.000824008
0.000831431
0.000839034
0.000846743
0.000854488
0.0008622
0.000869819
0.000877289
0.000884565
0.000891611
0.000898397
0.000904907
0.000911129
0.00091706
0.000922706
0.000928071
0.000933166
0.000937999
0.000942576
0.000946901
0.000950975
0.000954798
0.000958371
0.000961706
0.000964824
0.000967759
0.000970568
0.000973319
0.00097608
0.000978977
0.000982266
0.000985742
0.000988717
0.000994985
0.00100961
0.00100072
0.00094701
0.00113781
0.00185621
0.00261167
0.00308324
0.00332123
0.00342385
0.00345434
0.00344658
0.00341822
0.00337856
0.00333223
0.00328701
0.00320783
0.000954715
0.000951064
0.000947357
0.000943604
0.000939813
0.000935992
0.000932148
0.000928287
0.000924416
0.000920541
0.000916667
0.0009128
0.000908946
0.00090511
0.000901301
0.000897524
0.000893789
0.000890104
0.00088648
0.000882926
0.000879455
0.000876077
0.000872806
0.000869653
0.000866632
0.000863755
0.000861035
0.000858486
0.000856122
0.00085396
0.000852014
0.000850302
0.000848844
0.00084766
0.00084677
0.000846197
0.000845961
0.000846084
0.000846586
0.000847481
0.000848784
0.000850503
0.000852641
0.000855194
0.000858152
0.0008615
0.000865214
0.000869264
0.000873615
0.000878228
0.000883057
0.000888056
0.000893177
0.000898372
0.000903593
0.000908796
0.000913941
0.000918991
0.000923916
0.00092869
0.000933296
0.000937721
0.000941959
0.00094601
0.000949881
0.00095358
0.00095712
0.000960513
0.000963772
0.000966907
0.000969924
0.000972826
0.000975615
0.000978292
0.000980861
0.000983336
0.000985741
0.000988114
0.000990495
0.000992959
0.000995693
0.000998666
0.00100132
0.00100547
0.00101627
0.00101891
0.000979415
0.00103468
0.0015116
0.00221189
0.00273509
0.00303231
0.00318036
0.00324364
0.00326011
0.00325043
0.00322583
0.0031919
0.00315782
0.00308939
0.000981328
0.000978983
0.000976566
0.000974081
0.000971532
0.000968924
0.000966263
0.000963554
0.000960801
0.000958009
0.000955184
0.000952331
0.000949454
0.000946561
0.000943657
0.00094075
0.000937847
0.000934957
0.00093209
0.000929255
0.000926463
0.000923727
0.000921059
0.000918472
0.000915978
0.000913592
0.000911327
0.000909197
0.000907217
0.000905399
0.000903758
0.000902307
0.00090106
0.000900031
0.000899232
0.000898676
0.000898376
0.000898341
0.000898581
0.000899104
0.000899915
0.000901016
0.000902406
0.000904081
0.000906032
0.000908248
0.000910713
0.000913405
0.000916303
0.000919379
0.000922604
0.000925948
0.000929379
0.000932864
0.000936372
0.000939873
0.000943339
0.000946744
0.000950067
0.000953289
0.000956398
0.000959383
0.000962241
0.000964972
0.000967579
0.000970073
0.000972463
0.000974765
0.000976994
0.000979163
0.000981286
0.000983373
0.000985434
0.000987472
0.000989495
0.00099151
0.00099353
0.000995577
0.000997674
0.000999865
0.00100227
0.00100494
0.00100754
0.0010107
0.00101812
0.00102549
0.00100606
0.000998128
0.00124143
0.00180182
0.00234608
0.00270389
0.00290463
0.00300717
0.00305259
0.00306493
0.00305779
0.00303798
0.00301643
0.00296017
0.000995208
0.000993804
0.000992336
0.000990805
0.000989212
0.000987559
0.000985849
0.000984084
0.000982266
0.000980398
0.000978484
0.000976527
0.00097453
0.000972499
0.000970437
0.00096835
0.000966243
0.000964124
0.000962
0.000959877
0.000957766
0.000955676
0.000953616
0.000951598
0.000949632
0.000947731
0.000945906
0.00094417
0.000942534
0.000941012
0.000939614
0.000938354
0.000937242
0.000936289
0.000935506
0.000934903
0.000934487
0.000934267
0.000934248
0.000934435
0.00093483
0.000935435
0.000936247
0.000937264
0.000938479
0.000939883
0.000941464
0.00094321
0.000945104
0.000947128
0.000949261
0.000951484
0.000953775
0.00095611
0.000958468
0.000960827
0.000963167
0.000965471
0.00096772
0.000969901
0.000972004
0.000974021
0.000975946
0.000977781
0.000979526
0.00098119
0.00098278
0.000984311
0.000985795
0.000987249
0.000988688
0.000990128
0.000991582
0.000993062
0.00099458
0.000996146
0.000997774
0.000999479
0.00100128
0.00100321
0.00100534
0.00100774
0.00101026
0.00101303
0.00101808
0.00102558
0.00102111
0.00100146
0.00108456
0.00143902
0.00193527
0.00233833
0.0025954
0.00274348
0.00282304
0.00286113
0.0028741
0.00287026
0.00286264
0.00282003
0.00100174
0.00100092
0.00100006
0.000999143
0.000998185
0.000997179
0.000996128
0.00099503
0.000993887
0.0009927
0.000991469
0.000990197
0.000988885
0.000987535
0.000986151
0.000984735
0.000983291
0.000981823
0.000980336
0.000978835
0.000977326
0.000975816
0.000974313
0.000972823
0.000971355
0.000969918
0.000968521
0.000967174
0.000965886