/*--------------------------------*- C++ -*----------------------------------*\
| =========                 |                                                 |
| \\      /  F ield         | OpenFOAM: The Open Source CFD Toolbox           |
|  \\    /   O peration     | Version:  4.1                                   |
|   \\  /    A nd           | Web:      www.OpenFOAM.org                      |
|    \\/     M anipulation  |                                                 |
\*---------------------------------------------------------------------------*/
FoamFile
{
    version     2.0;
    format      ascii;
    class       volScalarField;
    location    "300";
    object      p;
}
// * * * * * * * * * * * * * * * * * * * * * * * * * * * * * * * * * * * * * //

dimensions      [0 2 -2 0 0 0 0];

internalField   nonuniform List<scalar> 
6820
(
-8.14279
-8.94254
-9.40307
-9.54794
-9.62655
-9.70091
-9.76082
-9.80649
-9.84529
-9.88087
-9.91379
-9.94425
-9.97272
-9.99963
-10.0252
-10.0497
-10.0732
-10.096
-10.1181
-10.1398
-10.1611
-10.1823
-10.2035
-10.2248
-10.2464
-10.2685
-10.2913
-10.3151
-10.3401
-10.3671
-10.3946
-10.4295
-10.4459
-9.8165
-9.98229
-9.96791
-9.88837
-9.84617
-9.84298
-9.8531
-9.86675
-9.88414
-9.90503
-9.92784
-9.95135
-9.97505
-9.99871
-10.0221
-10.0451
-10.0677
-10.0899
-10.1117
-10.1332
-10.1545
-10.1757
-10.1969
-10.2183
-10.2399
-10.262
-10.2848
-10.3084
-10.3332
-10.3598
-10.3882
-10.4224
-10.4648
-9.79492
-9.60687
-9.58829
-9.6228
-9.66465
-9.71297
-9.75955
-9.80013
-9.83673
-9.87119
-9.90372
-9.93425
-9.963
-9.99026
-10.0162
-10.0411
-10.0649
-10.0879
-10.1103
-10.1322
-10.1536
-10.1749
-10.196
-10.2173
-10.2387
-10.2605
-10.2829
-10.3061
-10.3303
-10.3561
-10.3836
-10.4151
-10.4476
-9.71279
-9.61042
-9.65987
-9.72055
-9.75403
-9.78459
-9.8162
-9.8451
-9.87198
-9.89834
-9.92427
-9.94949
-9.97398
-9.99782
-10.0211
-10.0437
-10.0659
-10.0875
-10.1088
-10.1298
-10.1506
-10.1713
-10.192
-10.2129
-10.2339
-10.2554
-10.2773
-10.3
-10.3234
-10.3481
-10.3739
-10.4015
-10.4287
-9.70525
-9.66537
-9.69757
-9.73535
-9.75759
-9.78252
-9.81176
-9.84017
-9.86718
-9.8938
-9.92007
-9.94568
-9.97054
-9.99471
-10.0182
-10.0411
-10.0634
-10.0852
-10.1066
-10.1276
-10.1484
-10.1691
-10.1896
-10.2103
-10.2311
-10.2522
-10.2737
-10.2957
-10.3183
-10.3416
-10.3656
-10.3902
-10.4142
-9.71444
-9.69434
-9.71029
-9.74009
-9.76406
-9.78951
-9.8179
-9.84564
-9.87209
-9.898
-9.92352
-9.94839
-9.97257
-9.99609
-10.019
-10.0413
-10.0631
-10.0845
-10.1054
-10.1261
-10.1465
-10.1667
-10.1869
-10.2072
-10.2275
-10.2481
-10.269
-10.2902
-10.3118
-10.3338
-10.356
-10.3782
-10.3994
-9.72385
-9.7127
-9.72383
-9.75016
-9.77418
-9.79816
-9.82436
-9.8506
-9.87599
-9.90094
-9.92557
-9.94969
-9.97321
-9.99616
-10.0186
-10.0405
-10.0619
-10.0829
-10.1035
-10.1238
-10.1439
-10.1639
-10.1838
-10.2036
-10.2236
-10.2436
-10.2638
-10.2842
-10.3048
-10.3255
-10.3462
-10.3664
-10.3856
-9.73394
-9.72887
-9.73854
-9.76103
-9.78349
-9.8059
-9.83027
-9.85518
-9.87961
-9.90368
-9.9275
-9.9509
-9.97381
-9.99621
-10.0181
-10.0396
-10.0606
-10.0812
-10.1015
-10.1214
-10.1412
-10.1608
-10.1803
-10.1997
-10.2191
-10.2386
-10.2581
-10.2777
-10.2972
-10.3167
-10.3359
-10.3545
-10.372
-9.74481
-9.74348
-9.75229
-9.77143
-9.79222
-9.8134
-9.83624
-9.85984
-9.88326
-9.90644
-9.92942
-9.9521
-9.97435
-9.99617
-10.0176
-10.0385
-10.0591
-10.0793
-10.0992
-10.1188
-10.1381
-10.1573
-10.1764
-10.1953
-10.2142
-10.2331
-10.2519
-10.2706
-10.2892
-10.3075
-10.3254
-10.3426
-10.3588
-9.75597
-9.75668
-9.76496
-9.78159
-9.80079
-9.82077
-9.8422
-9.86451
-9.8869
-9.90918
-9.93133
-9.95326
-9.97485
-9.99607
-10.0169
-10.0374
-10.0575
-10.0772
-10.0967
-10.1159
-10.1348
-10.1536
-10.1722
-10.1906
-10.2089
-10.2271
-10.2452
-10.2631
-10.2807
-10.298
-10.3148
-10.3308
-10.3458
-9.76704
-9.76881
-9.77675
-9.79147
-9.80913
-9.82794
-9.84807
-9.86915
-9.89052
-9.9119
-9.93323
-9.9544
-9.97532
-9.99593
-10.0162
-10.0362
-10.0558
-10.0751
-10.0941
-10.1128
-10.1313
-10.1496
-10.1677
-10.1856
-10.2033
-10.2208
-10.2382
-10.2553
-10.272
-10.2883
-10.304
-10.319
-10.3331
-9.77783
-9.78012
-9.78773
-9.80097
-9.81721
-9.83486
-9.8538
-9.87373
-9.89409
-9.91458
-9.93509
-9.95552
-9.97576
-9.99574
-10.0154
-10.0349
-10.054
-10.0728
-10.0913
-10.1096
-10.1276
-10.1454
-10.1629
-10.1803
-10.1974
-10.2143
-10.2309
-10.2472
-10.2631
-10.2785
-10.2933
-10.3074
-10.3206
-9.78821
-9.7907
-9.79798
-9.81003
-9.82498
-9.84152
-9.85936
-9.87821
-9.89759
-9.9172
-9.93691
-9.95659
-9.97614
-9.9955
-10.0146
-10.0335
-10.0521
-10.0704
-10.0884
-10.1062
-10.1237
-10.1409
-10.158
-10.1747
-10.1912
-10.2075
-10.2234
-10.2389
-10.254
-10.2686
-10.2825
-10.2958
-10.3082
-9.79809
-9.80063
-9.80754
-9.81861
-9.83241
-9.84791
-9.86471
-9.88254
-9.90097
-9.91973
-9.93864
-9.95759
-9.97646
-9.99518
-10.0137
-10.032
-10.0501
-10.0678
-10.0854
-10.1026
-10.1196
-10.1363
-10.1528
-10.169
-10.1849
-10.2004
-10.2156
-10.2304
-10.2448
-10.2586
-10.2718
-10.2843
-10.2961
-9.80744
-9.80992
-9.81645
-9.82668
-9.83947
-9.85398
-9.86982
-9.88668
-9.90422
-9.92214
-9.94027
-9.95849
-9.97669
-9.99478
-10.0127
-10.0304
-10.0479
-10.0652
-10.0822
-10.0989
-10.1154
-10.1316
-10.1475
-10.1631
-10.1783
-10.1932
-10.2078
-10.2219
-10.2355
-10.2486
-10.2611
-10.2729
-10.2841
-9.8162
-9.81858
-9.82474
-9.83424
-9.84613
-9.85973
-9.87466
-9.89062
-9.90729
-9.9244
-9.94178
-9.95929
-9.97681
-9.99427
-10.0116
-10.0288
-10.0457
-10.0624
-10.0789
-10.0951
-10.111
-10.1266
-10.1419
-10.157
-10.1716
-10.1859
-10.1998
-10.2132
-10.2262
-10.2386
-10.2504
-10.2617
-10.2722
-9.82437
-9.82663
-9.83241
-9.84127
-9.85235
-9.86511
-9.87919
-9.89431
-9.91015
-9.92649
-9.94313
-9.95994
-9.97681
-9.99364
-10.0104
-10.0269
-10.0433
-10.0595
-10.0754
-10.0911
-10.1065
-10.1215
-10.1363
-10.1507
-10.1648
-10.1784
-10.1917
-10.2045
-10.2168
-10.2286
-10.2398
-10.2505
-10.2605
-9.83192
-9.83405
-9.83948
-9.84776
-9.85812
-9.8701
-9.88339
-9.89771
-9.91278
-9.92838
-9.94431
-9.96044
-9.97666
-9.99287
-10.009
-10.025
-10.0408
-10.0565
-10.0718
-10.0869
-10.1018
-10.1163
-10.1305
-10.1443
-10.1578
-10.1709
-10.1835
-10.1957
-10.2074
-10.2186
-10.2293
-10.2393
-10.2488
-9.83884
-9.84085
-9.84594
-9.85369
-9.8634
-9.87467
-9.88723
-9.90081
-9.91515
-9.93003
-9.94528
-9.96075
-9.97634
-9.99195
-10.0075
-10.0229
-10.0382
-10.0533
-10.0681
-10.0827
-10.097
-10.1109
-10.1246
-10.1378
-10.1507
-10.1632
-10.1753
-10.1869
-10.198
-10.2086
-10.2187
-10.2283
-10.2373
-9.84511
-9.847
-9.85179
-9.85906
-9.86818
-9.8788
-9.89068
-9.90356
-9.91722
-9.93142
-9.94602
-9.96086
-9.97584
-9.99085
-10.0058
-10.0207
-10.0354
-10.05
-10.0642
-10.0783
-10.092
-10.1054
-10.1185
-10.1312
-10.1436
-10.1555
-10.167
-10.178
-10.1886
-10.1987
-10.2083
-10.2174
-10.2259
-9.85072
-9.8525
-9.857
-9.86384
-9.87243
-9.88245
-9.89371
-9.90595
-9.91896
-9.93253
-9.9465
-9.96074
-9.97513
-9.98957
-10.004
-10.0183
-10.0325
-10.0465
-10.0602
-10.0737
-10.0869
-10.0998
-10.1124
-10.1246
-10.1364
-10.1477
-10.1587
-10.1692
-10.1792
-10.1888
-10.1979
-10.2065
-10.2146
-9.85566
-9.85734
-9.86157
-9.86802
-9.87612
-9.88561
-9.89629
-9.90794
-9.92035
-9.93332
-9.94671
-9.96037
-9.9742
-9.98809
-10.002
-10.0158
-10.0294
-10.0429
-10.0561
-10.0691
-10.0818
-10.0941
-10.1062
-10.1178
-10.1291
-10.1399
-10.1504
-10.1604
-10.1699
-10.179
-10.1876
-10.1957
-10.2034
-9.8599
-9.86149
-9.86549
-9.87157
-9.87924
-9.88824
-9.89839
-9.9095
-9.92136
-9.93378
-9.94661
-9.95974
-9.97302
-9.98639
-9.99974
-10.013
-10.0262
-10.0391
-10.0519
-10.0643
-10.0765
-10.0884
-10.0999
-10.111
-10.1218
-10.1321
-10.1421
-10.1516
-10.1606
-10.1692
-10.1774
-10.1851
-10.1923
-9.86344
-9.86494
-9.86872
-9.87448
-9.88176
-9.89031
-9.89999
-9.9106
-9.92195
-9.93387
-9.94619
-9.95881
-9.97159
-9.98446
-9.99732
-10.0101
-10.0228
-10.0352
-10.0475
-10.0595
-10.0711
-10.0825
-10.0935
-10.1042
-10.1145
-10.1243
-10.1338
-10.1428
-10.1514
-10.1596
-10.1673
-10.1746
-10.1814
-9.86625
-9.86767
-9.87125
-9.87671
-9.88364
-9.8918
-9.90105
-9.91122
-9.92211
-9.93356
-9.94542
-9.95757
-9.96988
-9.98228
-9.99468
-10.007
-10.0192
-10.0312
-10.043
-10.0545
-10.0657
-10.0766
-10.0871
-10.0973
-10.1071
-10.1165
-10.1255
-10.1341
-10.1423
-10.15
-10.1573
-10.1642
-10.1706
-9.8683
-9.86966
-9.87305
-9.87825
-9.88485
-9.89266
-9.90154
-9.91132
-9.9218
-9.93284
-9.94428
-9.956
-9.96789
-9.97985
-9.99181
-10.0037
-10.0154
-10.027
-10.0383
-10.0494
-10.0602
-10.0706
-10.0807
-10.0905
-10.0998
-10.1088
-10.1173
-10.1255
-10.1332
-10.1405
-10.1474
-10.1539
-10.16
-9.86958
-9.87087
-9.87409
-9.87904
-9.88536
-9.89287
-9.90143
-9.91086
-9.921
-9.93167
-9.94274
-9.95408
-9.96559
-9.97716
-9.98872
-10.0002
-10.0115
-10.0227
-10.0336
-10.0443
-10.0546
-10.0646
-10.0743
-10.0836
-10.0926
-10.1011
-10.1093
-10.117
-10.1243
-10.1312
-10.1378
-10.1439
-10.1495
-9.87006
-9.87128
-9.87433
-9.87906
-9.88513
-9.89238
-9.90067
-9.90982
-9.91966
-9.93003
-9.94079
-9.9518
-9.96297
-9.9742
-9.9854
-9.99652
-10.0075
-10.0183
-10.0288
-10.039
-10.049
-10.0586
-10.0679
-10.0768
-10.0854
-10.0935
-10.1013
-10.1086
-10.1156
-10.1221
-10.1282
-10.134
-10.1393
-9.86971
-9.87086
-9.87374
-9.87824
-9.88409
-9.89114
-9.89922
-9.90816
-9.91777
-9.9279
-9.9384
-9.94914
-9.96003
-9.97096
-9.98186
-9.99266
-10.0033
-10.0137
-10.0239
-10.0338
-10.0434
-10.0527
-10.0616
-10.0701
-10.0783
-10.0861
-10.0935
-10.1005
-10.107
-10.1132
-10.119
-10.1244
-10.1294
-9.86851
-9.86957
-9.87226
-9.87653
-9.88219
-9.88909
-9.89704
-9.90583
-9.91529
-9.92524
-9.93555
-9.94609
-9.95674
-9.96741
-9.97804
-9.98855
-9.99888
-10.009
-10.0189
-10.0284
-10.0377
-10.0466
-10.0552
-10.0634
-10.0712
-10.0786
-10.0857
-10.0923
-10.0986
-10.1044
-10.1099
-10.115
-10.1197
-9.86646
-9.8674
-9.86982
-9.87383
-9.87934
-9.88617
-9.89405
-9.90277
-9.91217
-9.92206
-9.93228
-9.94271
-9.95323
-9.96375
-9.97419
-9.9845
-9.99461
-10.0045
-10.0141
-10.0234
-10.0324
-10.041
-10.0493
-10.0571
-10.0647
-10.0718
-10.0785
-10.0848
-10.0908
-10.0963
-10.1015
-10.1062
-10.1106
-9.86357
-9.86433
-9.86634
-9.87001
-9.87543
-9.8823
-9.89023
-9.89896
-9.90833
-9.91816
-9.92829
-9.93858
-9.94893
-9.95926
-9.9695
-9.97958
-9.98946
-9.99909
-10.0084
-10.0175
-10.0262
-10.0345
-10.0425
-10.0502
-10.0574
-10.0642
-10.0707
-10.0767
-10.0824
-10.0877
-10.0926
-10.0971
-10.1012
-9.85993
-9.86035
-9.86168
-9.86489
-9.87026
-9.87728
-9.88547
-9.89455
-9.9043
-9.91448
-9.92488
-9.93537
-9.94585
-9.95624
-9.96646
-9.97648
-9.98624
-9.99571
-10.0049
-10.0137
-10.0222
-10.0303
-10.038
-10.0453
-10.0523
-10.0588
-10.065
-10.0707
-10.0761
-10.0811
-10.0856
-10.0898
-10.0936
-9.85578
-9.85542
-9.85555
-9.85836
-9.86393
-9.87094
-9.87881
-9.88756
-9.89706
-9.90705
-9.9173
-9.92767
-9.93806
-9.94837
-9.95854
-9.96851
-9.97822
-9.98764
-9.99674
-10.0055
-10.0139
-10.0219
-10.0296
-10.0368
-10.0437
-10.0501
-10.0561
-10.0618
-10.067
-10.0719
-10.0764
-10.0805
-10.0842
-9.85181
-9.84961
-9.8468
-9.84917
-9.85671
-9.8663
-9.8765
-9.88715
-9.89811
-9.90911
-9.92
-9.93072
-9.94124
-9.95151
-9.9615
-9.97119
-9.98055
-9.98958
-9.99825
-10.0066
-10.0145
-10.022
-10.0292
-10.036
-10.0424
-10.0484
-10.0539
-10.0591
-10.0639
-10.0683
-10.0724
-10.076
-10.0792
-9.84921
-9.84411
-9.8366
-9.83435
-9.837
-9.84262
-9.85076
-9.86089
-9.87205
-9.88363
-9.89537
-9.90712
-9.91874
-9.93011
-9.94116
-9.95187
-9.96219
-9.97211
-9.9816
-9.99066
-9.99929
-10.0075
-10.0152
-10.0225
-10.0293
-10.0358
-10.0417
-10.0473
-10.0524
-10.0571
-10.0614
-10.0654
-10.069
-9.84961
-9.82971
-9.83253
-9.85232
-9.86907
-9.87998
-9.8898
-9.90018
-9.91044
-9.92019
-9.92962
-9.93886
-9.94792
-9.95677
-9.96539
-9.97378
-9.98191
-9.98977
-9.99734
-10.0046
-10.0116
-10.0182
-10.0245
-10.0304
-10.036
-10.0412
-10.0461
-10.0506
-10.0548
-10.0585
-10.0619
-10.065
-10.0676
-9.88704
-9.76379
-9.70069
-9.70433
-9.72667
-9.74837
-9.76964
-9.79133
-9.81239
-9.83218
-9.85069
-9.86804
-9.88429
-9.8995
-9.91376
-9.92715
-9.93971
-9.95152
-9.96261
-9.97301
-9.98276
-9.9919
-10.0004
-10.0084
-10.0158
-10.0227
-10.029
-10.0349
-10.0403
-10.0452
-10.0496
-10.0536
-10.0573
-10.0469
-10.0601
-10.0187
-9.97656
-9.95255
-9.94198
-9.93742
-9.9354
-9.93545
-9.93756
-9.94129
-9.94608
-9.95158
-9.95757
-9.9639
-9.97043
-9.97705
-9.98366
-9.99019
-9.9966
-10.0028
-10.0088
-10.0146
-10.0201
-10.0253
-10.0302
-10.0348
-10.0391
-10.043
-10.0466
-10.0499
-10.0528
-10.0554
-8.88266
-9.18298
-9.44798
-9.57387
-9.63881
-9.69485
-9.74432
-9.7826
-9.8122
-9.83701
-9.85874
-9.8779
-9.89492
-9.91028
-9.92431
-9.93724
-9.94919
-9.96029
-9.97063
-9.98026
-9.98925
-9.99762
-10.0054
-10.0127
-10.0194
-10.0256
-10.0313
-10.0365
-10.0413
-10.0456
-10.0495
-10.053
-10.0561
-10.5355
-10.4354
-10.4848
-10.5395
-10.5636
-10.5783
-10.589
-10.594
-10.5943
-10.5924
-10.5906
-10.5907
-10.5943
-10.6024
-10.6157
-10.6346
-10.659
-10.6884
-10.7222
-10.7594
-10.799
-10.8399
-10.8811
-10.9213
-10.9596
-10.9951
-11.0268
-11.0539
-11.0754
-11.0906
-11.0985
-11.0984
-11.0894
-11.0706
-11.0413
-11.0006
-10.9477
-10.8819
-10.8025
-10.7088
-10.6003
-10.4766
-10.3373
-10.182
-10.0107
-9.82343
-9.62027
-9.40161
-9.168
-8.92018
-8.65913
-8.38601
-8.10219
-7.80921
-7.50878
-7.20272
-6.89295
-6.58144
-6.27014
-5.96099
-5.65581
-5.35628
-5.06392
-4.77999
-4.50554
-4.24131
-3.9878
-3.74521
-3.51348
-3.29237
-3.08142
-2.88006
-2.68761
-2.50336
-2.32658
-2.15651
-1.9924
-1.83352
-1.67916
-1.52819
-1.37975
-1.2331
-1.08409
-0.931481
-0.776422
-0.592346
-0.371054
-0.185642
-0.118203
-0.127751
-0.144214
-0.14653
-0.135615
-0.11751
-0.0961591
-0.0782645
-0.0571664
-0.0554926
-0.0145421
-0.0806809
-10.5311
-10.5248
-10.5525
-10.5721
-10.5676
-10.5575
-10.5498
-10.5433
-10.5379
-10.5347
-10.5347
-10.5384
-10.5464
-10.5593
-10.5772
-10.6
-10.6274
-10.6589
-10.6939
-10.7315
-10.7708
-10.8109
-10.8509
-10.8898
-10.9268
-10.961
-10.9913
-11.0171
-11.0373
-11.0512
-11.0579
-11.0566
-11.0464
-11.0265
-10.9961
-10.9545
-10.9009
-10.8345
-10.7547
-10.6608
-10.5524
-10.4289
-10.29
-10.1355
-9.96522
-9.77921
-9.57763
-9.36083
-9.12938
-8.884
-8.62565
-8.35547
-8.0748
-7.78516
-7.4882
-7.18571
-6.87956
-6.57166
-6.26392
-5.95822
-5.65635
-5.35996
-5.07052
-4.7893
-4.51732
-4.25532
-4.00381
-3.76297
-3.53279
-3.31299
-3.10314
-2.90266
-2.71088
-2.52707
-2.3505
-2.18041
-2.01603
-1.85662
-1.70146
-1.5494
-1.39956
-1.25108
-1.09964
-0.944679
-0.785851
-0.592212
-0.358147
-0.163859
-0.0965846
-0.105587
-0.11927
-0.119406
-0.107718
-0.0900065
-0.0697993
-0.0534428
-0.0343214
-0.0344285
0.0017447
-0.0640586
-10.4884
-10.4943
-10.499
-10.5118
-10.5191
-10.5231
-10.5273
-10.5302
-10.5311
-10.5308
-10.5308
-10.5324
-10.5369
-10.5454
-10.5586
-10.5769
-10.6003
-10.6285
-10.6608
-10.6966
-10.7347
-10.7741
-10.8136
-10.8521
-10.8886
-10.9221
-10.9517
-10.9764
-10.9954
-11.0081
-11.0135
-11.0108
-10.9994
-10.9785
-10.9471
-10.9047
-10.8503
-10.7834
-10.7032
-10.6093
-10.5009
-10.3778
-10.2396
-10.086
-9.91698
-9.73251
-9.53278
-9.31815
-9.08917
-8.84657
-8.59126
-8.32438
-8.04722
-7.76126
-7.46811
-7.16949
-6.86723
-6.56318
-6.2592
-5.95712
-5.65867
-5.36548
-5.07898
-4.80041
-4.5308
-4.27088
-4.02115
-3.78182
-3.55288
-3.33408
-3.125
-2.92506
-2.7336
-2.54991
-2.37323
-2.20282
-2.03791
-1.87774
-1.72158
-1.56826
-1.41694
-1.26657
-1.11282
-0.955589
-0.793066
-0.591645
-0.350195
-0.153496
-0.0857573
-0.0908581
-0.0995859
-0.0962486
-0.0829516
-0.065045
-0.045577
-0.0304018
-0.0131424
-0.0146037
0.0162106
-0.0478874
-10.4606
-10.4775
-10.4885
-10.5057
-10.5182
-10.5233
-10.525
-10.5251
-10.5239
-10.5226
-10.5227
-10.5252
-10.5309
-10.5406
-10.5544
-10.5724
-10.5946
-10.6205
-10.6497
-10.6815
-10.7152
-10.7499
-10.7849
-10.8191
-10.8518
-10.882
-10.9087
-10.9311
-10.9483
-10.9594
-10.9634
-10.9597
-10.9472
-10.9253
-10.8931
-10.85
-10.7951
-10.7278
-10.6475
-10.5535
-10.4455
-10.323
-10.1856
-10.0332
-9.8656
-9.6829
-9.48529
-9.2731
-9.04687
-8.80732
-8.55534
-8.29204
-8.01867
-7.73665
-7.44756
-7.15307
-6.85492
-6.55493
-6.25489
-5.95658
-5.66168
-5.37177
-5.08825
-4.81234
-4.54505
-4.28711
-4.03901
-3.80101
-3.57309
-3.35502
-3.14642
-2.94673
-2.75531
-2.57145
-2.39443
-2.22349
-2.05786
-1.8968
-1.73956
-1.58499
-1.43221
-1.28009
-1.12431
-0.965054
-0.799372
-0.592695
-0.348912
-0.154341
-0.085013
-0.0842913
-0.0870926
-0.0795593
-0.0639587
-0.0451841
-0.0258556
-0.0113002
0.00448287
0.0021812
0.0276429
-0.0337654
-10.4405
-10.46
-10.4724
-10.4857
-10.4956
-10.5003
-10.5029
-10.5049
-10.5065
-10.5081
-10.5106
-10.5149
-10.5217
-10.5316
-10.5449
-10.5619
-10.5826
-10.6067
-10.6339
-10.6636
-10.6951
-10.7274
-10.7598
-10.7914
-10.8212
-10.8483
-10.8719
-10.8912
-10.9053
-10.9134
-10.9147
-10.9084
-10.8938
-10.87
-10.8363
-10.7919
-10.7361
-10.6682
-10.5876
-10.4937
-10.3859
-10.264
-10.1276
-9.97641
-9.81043
-9.62967
-9.43433
-9.22475
-9.00146
-8.76515
-8.51671
-8.25718
-7.9878
-7.70994
-7.42512
-7.13495
-6.84112
-6.54539
-6.24948
-5.95512
-5.66394
-5.37745
-5.09703
-4.82388
-4.55896
-4.30301
-4.05654
-3.8198
-3.5928
-3.37536
-3.1671
-2.96751
-2.77598
-2.59182
-2.41433
-2.24277
-2.07639
-1.91443
-1.75615
-1.60041
-1.44633
-1.29266
-1.13523
-0.974254
-0.80616
-0.597126
-0.355242
-0.165239
-0.0924854
-0.0842566
-0.0804693
-0.0682709
-0.0498617
-0.0296873
-0.0100003
0.00441427
0.0190686
0.0163671
0.0366245
-0.0213728
-10.4223
-10.4419
-10.4556
-10.4682
-10.4788
-10.4857
-10.4903
-10.4939
-10.4966
-10.4991
-10.5023
-10.5069
-10.5137
-10.5233
-10.536
-10.552
-10.5713
-10.5936
-10.6186
-10.6457
-10.6743
-10.7036
-10.7328
-10.7612
-10.7878
-10.8118
-10.8325
-10.8489
-10.8603
-10.8659
-10.8649
-10.8564
-10.8397
-10.814
-10.7786
-10.7327
-10.6757
-10.6069
-10.5257
-10.4314
-10.3238
-10.2023
-10.0666
-9.91658
-9.75213
-9.57328
-9.38022
-9.17329
-8.95299
-8.72001
-8.47519
-8.21956
-7.95429
-7.68073
-7.40032
-7.11462
-6.82527
-6.53395
-6.24233
-5.95208
-5.66475
-5.38184
-5.10466
-4.83438
-4.57194
-4.31807
-4.07329
-3.83785
-3.6118
-3.39497
-3.18704
-2.98753
-2.79586
-2.61138
-2.4334
-2.26123
-2.09412
-1.93133
-1.7721
-1.6153
-1.46008
-1.30508
-1.14635
-0.983987
-0.814226
-0.60566
-0.368925
-0.184746
-0.107022
-0.0898834
-0.0789802
-0.0617699
-0.0401519
-0.0181293
0.0023526
0.0170548
0.0309111
0.0282081
0.0435319
-0.010516
-10.406
-10.4251
-10.4395
-10.452
-10.4626
-10.4703
-10.4757
-10.4799
-10.4836
-10.4871
-10.4912
-10.4966
-10.5038
-10.5135
-10.5258
-10.541
-10.559
-10.5796
-10.6025
-10.6272
-10.6531
-10.6795
-10.7058
-10.7311
-10.7546
-10.7755
-10.7931
-10.8066
-10.8151
-10.8179
-10.8141
-10.8032
-10.7842
-10.7565
-10.7193
-10.6718
-10.6136
-10.5438
-10.4619
-10.3673
-10.2597
-10.1386
-10.0036
-9.85476
-9.69181
-9.51486
-9.32408
-9.11981
-8.90254
-8.67293
-8.43179
-8.18012
-7.91905
-7.64987
-7.37396
-7.09284
-6.80807
-6.52127
-6.23405
-5.94799
-5.66463
-5.38538
-5.11153
-4.84419
-4.58431
-4.3326
-4.08956
-3.85547
-3.63041
-3.41424
-3.20666
-3.00725
-2.81545
-2.63067
-2.45224
-2.27949
-2.11169
-1.94813
-1.78803
-1.63029
-1.47404
-1.31789
-1.15815
-0.994713
-0.82392
-0.61818
-0.388779
-0.210916
-0.12754
-0.100577
-0.0821898
-0.0597405
-0.0346062
-0.0103526
0.0113207
0.0267091
0.0401041
0.03777
0.0485667
-0.00116669
-10.3907
-10.409
-10.4236
-10.436
-10.4466
-10.4549
-10.4612
-10.4663
-10.4709
-10.4754
-10.4802
-10.4861
-10.4937
-10.5032
-10.5149
-10.5292
-10.5458
-10.5648
-10.5856
-10.608
-10.6314
-10.6551
-10.6784
-10.7008
-10.7213
-10.7392
-10.7538
-10.7643
-10.7699
-10.77
-10.7637
-10.7502
-10.729
-10.6992
-10.6601
-10.6111
-10.5515
-10.4806
-10.398
-10.303
-10.1954
-10.0745
-9.94034
-9.79255
-9.6311
-9.45604
-9.26755
-9.06596
-8.85174
-8.62553
-8.38811
-8.14044
-7.8836
-7.61883
-7.34747
-7.07096
-6.79079
-6.50853
-6.22572
-5.94389
-5.6645
-5.38893
-5.11841
-4.85404
-4.59672
-4.34717
-4.10589
-3.87318
-3.64912
-3.43362
-3.22641
-3.02711
-2.83521
-2.65014
-2.47128
-2.29798
-2.12952
-1.96522
-1.80429
-1.64568
-1.48849
-1.33131
-1.17081
-1.00659
-0.835297
-0.63406
-0.413336
-0.241613
-0.152797
-0.115689
-0.0896215
-0.0618332
-0.032984
-0.00619623
0.0170162
0.0334538
0.0467288
0.0451047
0.0519038
0.00668253
-10.3761
-10.3935
-10.408
-10.4204
-10.431
-10.4397
-10.4467
-10.4526
-10.4579
-10.4631
-10.4685
-10.4748
-10.4825
-10.4918
-10.503
-10.5164
-10.5317
-10.549
-10.5679
-10.5881
-10.609
-10.63
-10.6506
-10.6701
-10.6877
-10.7027
-10.7144
-10.722
-10.7249
-10.7223
-10.7134
-10.6976
-10.6741
-10.6423
-10.6014
-10.5508
-10.4899
-10.4181
-10.3347
-10.2394
-10.1317
-10.0113
-9.8778
-9.73111
-9.57117
-9.39801
-9.21181
-9.01289
-8.80172
-8.57889
-8.34517
-8.10148
-7.84885
-7.58846
-7.3216
-7.04965
-6.77404
-6.49628
-6.21783
-5.94017
-5.66471
-5.39278
-5.12556
-4.86413
-4.60936
-4.36197
-4.12245
-3.89111
-3.66806
-3.45324
-3.24642
-3.04724
-2.85525
-2.6699
-2.49062
-2.31678
-2.14769
-1.98266
-1.82094
-1.6615
-1.50344
-1.34536
-1.18428
-1.01959
-0.848256
-0.652467
-0.441242
-0.27496
-0.181488
-0.134545
-0.100763
-0.0676416
-0.0349891
-0.00545455
0.0195848
0.0373915
0.050885
0.0502807
0.0537142
0.0130474
-10.3619
-10.3785
-10.3928
-10.4051
-10.4158
-10.4248
-10.4323
-10.4388
-10.4447
-10.4503
-10.4563
-10.4629
-10.4705
-10.4796
-10.4903
-10.5027
-10.5168
-10.5325
-10.5495
-10.5675
-10.586
-10.6045
-10.6224
-10.639
-10.6538
-10.6659
-10.6748
-10.6797
-10.6799
-10.6747
-10.6633
-10.6452
-10.6196
-10.5858
-10.5432
-10.4911
-10.429
-10.3562
-10.2722
-10.1766
-10.0689
-9.94886
-9.81613
-9.67058
-9.51216
-9.34091
-9.157
-8.96075
-8.75259
-8.53312
-8.30307
-8.06329
-7.81481
-7.55874
-7.29632
-7.02886
-6.75775
-6.4844
-6.21026
-5.93672
-5.66513
-5.39679
-5.13284
-4.87431
-4.62208
-4.37683
-4.13906
-3.9091
-3.68707
-3.47295
-3.26652
-3.06749
-2.87542
-2.68982
-2.51014
-2.33577
-2.16606
-2.00034
-1.83786
-1.67764
-1.51878
-1.35991
-1.19843
-1.03357
-0.862653
-0.6726
-0.471309
-0.309652
-0.212337
-0.156486
-0.115131
-0.0767472
-0.0402941
-0.00789071
0.0191971
0.0386428
0.0526836
0.0533765
0.0541574
0.0179528
-10.3482
-10.364
-10.3779
-10.3901
-10.4007
-10.4099
-10.4178
-10.4247
-10.4311
-10.4372
-10.4435
-10.4502
-10.4578
-10.4666
-10.4766
-10.4881
-10.501
-10.5151
-10.5303
-10.5462
-10.5624
-10.5784
-10.5937
-10.6077
-10.6197
-10.6291
-10.6352
-10.6374
-10.6349
-10.6272
-10.6134
-10.5931
-10.5654
-10.5297
-10.4854
-10.4319
-10.3686
-10.2949
-10.2103
-10.1144
-10.0068
-9.88718
-9.75523
-9.61084
-9.45394
-9.2846
-9.10297
-8.90937
-8.70421
-8.48805
-8.26161
-8.02571
-7.78131
-7.5295
-7.27144
-7.00841
-6.74172
-6.47273
-6.20282
-5.93333
-5.66558
-5.40078
-5.14006
-4.88441
-4.63469
-4.39157
-4.15556
-3.92698
-3.70599
-3.49257
-3.28657
-3.0877
-2.89557
-2.70974
-2.52967
-2.3548
-2.18449
-2.01811
-1.85491
-1.69397
-1.5344
-1.37487
-1.21315
-1.04842
-0.878339
-0.693865
-0.502433
-0.344981
-0.244248
-0.180831
-0.132303
-0.0887569
-0.0485593
-0.0132433
0.0160472
0.0373476
0.052247
0.0544814
0.053378
0.0214339
-10.3349
-10.3499
-10.3634
-10.3753
-10.3859
-10.3952
-10.4033
-10.4106
-10.4173
-10.4237
-10.4301
-10.4369
-10.4444
-10.4528
-10.4622
-10.4727
-10.4844
-10.497
-10.5104
-10.5243
-10.5382
-10.5519
-10.5646
-10.576
-10.5853
-10.592
-10.5955
-10.595
-10.59
-10.5798
-10.5638
-10.5412
-10.5115
-10.4739
-10.428
-10.3731
-10.3087
-10.2342
-10.149
-10.0529
-9.94539
-9.82617
-9.69502
-9.55179
-9.39642
-9.22898
-9.04962
-8.85864
-8.65644
-8.44356
-8.22069
-7.9886
-7.74823
-7.5006
-7.24685
-6.98816
-6.72583
-6.46113
-6.19539
-5.9299
-5.66592
-5.40463
-5.1471
-4.89431
-4.64709
-4.40609
-4.17184
-3.94465
-3.7247
-3.512
-3.30643
-3.10775
-2.9156
-2.72955
-2.54912
-2.37377
-2.2029
-2.03589
-1.87202
-1.71041
-1.55022
-1.39017
-1.22837
-1.06401
-0.895164
-0.715916
-0.533669
-0.380494
-0.276535
-0.206843
-0.151883
-0.103333
-0.0594564
-0.0212343
0.0103531
0.0336688
0.0497126
0.0536994
0.0515081
0.0235449
-10.3218
-10.3361
-10.3491
-10.3608
-10.3712
-10.3805
-10.3888
-10.3963
-10.4032
-10.4098
-10.4163
-10.4231
-10.4304
-10.4383
-10.447
-10.4566
-10.467
-10.4781
-10.4898
-10.5017
-10.5136
-10.5249
-10.5352
-10.544
-10.5508
-10.5549
-10.5558
-10.5527
-10.5453
-10.5327
-10.5143
-10.4896
-10.4579
-10.4186
-10.3711
-10.3149
-10.2493
-10.174
-10.0883
-9.992
-9.8846
-9.76584
-9.63549
-9.49342
-9.33958
-9.17402
-8.99691
-8.80852
-8.60924
-8.3996
-8.18023
-7.95191
-7.7155
-7.47199
-7.22246
-6.96807
-6.71001
-6.44954
-6.18791
-5.92636
-5.6661
-5.40827
-5.15391
-4.90395
-4.6592
-4.42032
-4.18782
-3.96202
-3.74313
-3.53118
-3.32607
-3.12759
-2.93543
-2.74919
-2.56843
-2.39263
-2.22123
-2.05363
-1.88914
-1.72694
-1.5662
-1.40578
-1.24405
-1.08027
-0.912974
-0.738577
-0.564433
-0.41565
-0.308914
-0.233829
-0.17342
-0.120187
-0.0726963
-0.0315872
0.00235104
0.0277939
0.0452368
0.0511533
0.0486681
0.0243638
-10.3089
-10.3226
-10.3351
-10.3464
-10.3567
-10.366
-10.3743
-10.3819
-10.3889
-10.3955
-10.4021
-10.4087
-10.4157
-10.4231
-10.4311
-10.4397
-10.449
-10.4586
-10.4686
-10.4787
-10.4884
-10.4975
-10.5055
-10.5119
-10.5161
-10.5177
-10.516
-10.5106
-10.5006
-10.4857
-10.4651
-10.4383
-10.4047
-10.3637
-10.3147
-10.2571
-10.1906
-10.1144
-10.0283
-9.93175
-9.82448
-9.70618
-9.57664
-9.43573
-9.28341
-9.11972
-8.94483
-8.759
-8.5626
-8.35614
-8.14023
-7.9156
-7.68309
-7.44364
-7.19827
-6.94808
-6.69424
-6.43792
-6.18034
-5.92267
-5.66609
-5.41167
-5.16043
-4.91328
-4.67099
-4.43422
-4.20347
-3.97908
-3.76126
-3.55006
-3.34544
-3.14719
-2.95505
-2.76865
-2.58758
-2.41136
-2.23946
-2.07131
-1.90625
-1.74353
-1.58235
-1.42167
-1.26014
-1.09714
-0.931617
-0.761719
-0.594524
-0.449916
-0.341169
-0.26132
-0.196355
-0.139013
-0.0880389
-0.0440522
-0.00772013
0.0199289
0.0389947
0.0469879
0.044971
0.0240022
-10.2963
-10.3093
-10.3213
-10.3323
-10.3424
-10.3515
-10.3598
-10.3673
-10.3743
-10.381
-10.3874
-10.3939
-10.4005
-10.4073
-10.4146
-10.4223
-10.4303
-10.4385
-10.4469
-10.4551
-10.4629
-10.4698
-10.4755
-10.4795
-10.4813
-10.4805
-10.4764
-10.4685
-10.4562
-10.439
-10.4163
-10.3875
-10.352
-10.3093
-10.2588
-10.2
-10.1324
-10.0555
-9.9689
-9.8722
-9.76508
-9.64725
-9.51852
-9.37876
-9.22794
-9.0661
-8.8934
-8.71009
-8.51653
-8.3132
-8.10069
-7.87969
-7.65101
-7.41553
-7.17425
-6.9282
-6.67849
-6.42626
-6.17265
-5.91881
-5.66585
-5.4148
-5.16665
-4.92228
-4.68243
-4.44776
-4.21876
-3.99578
-3.77904
-3.56863
-3.36451
-3.16652
-2.97442
-2.78789
-2.60655
-2.42995
-2.25759
-2.08894
-1.92337
-1.76018
-1.59865
-1.43783
-1.27664
-1.11455
-0.950951
-0.785217
-0.623946
-0.48303
-0.372977
-0.289032
-0.220129
-0.159372
-0.105239
-0.0584185
-0.019642
0.0102835
0.0311736
0.0413681
0.0405219
0.0226073
-10.2838
-10.2962
-10.3077
-10.3184
-10.3281
-10.337
-10.3452
-10.3527
-10.3596
-10.3661
-10.3724
-10.3785
-10.3847
-10.391
-10.3975
-10.4042
-10.411
-10.4179
-10.4247
-10.4311
-10.4369
-10.4418
-10.4453
-10.447
-10.4465
-10.4433
-10.4368
-10.4266
-10.412
-10.3927
-10.3678
-10.3371
-10.2998
-10.2554
-10.2035
-10.1435
-10.0749
-9.99729
-9.91024
-9.8134
-9.70643
-9.58908
-9.46116
-9.32255
-9.17321
-9.0132
-8.84265
-8.66182
-8.47105
-8.2708
-8.06162
-7.84419
-7.61926
-7.38769
-7.15041
-6.90842
-6.66277
-6.41455
-6.16485
-5.91477
-5.66537
-5.41765
-5.17255
-4.93092
-4.6935
-4.46092
-4.23367
-4.01211
-3.79647
-3.58686
-3.38326
-3.18555
-2.99353
-2.80691
-2.62533
-2.44838
-2.2756
-2.10649
-1.94047
-1.7769
-1.6151
-1.45426
-1.2935
-1.13245
-0.970846
-0.808942
-0.652744
-0.514988
-0.404078
-0.316724
-0.244314
-0.180701
-0.123924
-0.0744697
-0.0332274
-0.000950321
0.0219579
0.0344703
0.0354194
0.0203661
-10.2715
-10.2833
-10.2943
-10.3045
-10.314
-10.3227
-10.3306
-10.3379
-10.3447
-10.351
-10.357
-10.3628
-10.3685
-10.3742
-10.3799
-10.3856
-10.3912
-10.3968
-10.402
-10.4067
-10.4106
-10.4135
-10.4149
-10.4144
-10.4116
-10.4061
-10.3974
-10.3849
-10.3682
-10.3467
-10.3198
-10.2871
-10.2481
-10.2022
-10.1489
-10.0877
-10.0181
-9.93983
-9.85237
-9.75539
-9.6486
-9.53173
-9.40462
-9.26714
-9.11927
-8.96105
-8.79262
-8.61423
-8.4262
-8.22896
-8.02305
-7.80911
-7.58786
-7.36011
-7.12675
-6.88874
-6.64708
-6.40279
-6.15693
-5.91055
-5.66465
-5.4202
-5.17811
-4.93919
-4.70418
-4.47368
-4.24817
-4.02804
-3.81351
-3.60472
-3.40167
-3.20428
-3.01237
-2.82568
-2.6439
-2.46664
-2.29349
-2.12398
-1.95757
-1.79367
-1.6317
-1.47094
-1.31071
-1.15078
-0.991186
-0.832782
-0.680941
-0.545882
-0.434379
-0.344201
-0.268648
-0.202486
-0.143547
-0.0918586
-0.0482738
-0.0136052
0.0115079
0.0264625
0.0297444
0.0174927
-10.2593
-10.2705
-10.2811
-10.2909
-10.3
-10.3083
-10.316
-10.3231
-10.3296
-10.3357
-10.3413
-10.3467
-10.3519
-10.3569
-10.3618
-10.3665
-10.371
-10.3752
-10.3789
-10.382
-10.3841
-10.385
-10.3843
-10.3818
-10.3768
-10.3691
-10.3582
-10.3435
-10.3247
-10.3011
-10.2723
-10.2378
-10.197
-10.1496
-10.0949
-10.0326
-9.96216
-9.8832
-9.79535
-9.69825
-9.59164
-9.47526
-9.34894
-9.21259
-9.06616
-8.90971
-8.74336
-8.56736
-8.38201
-8.18772
-7.98502
-7.77449
-7.55684
-7.33283
-7.10331
-6.86919
-6.63143
-6.39099
-6.1489
-5.90614
-5.66367
-5.42245
-5.18332
-4.94709
-4.71446
-4.48602
-4.26226
-4.04355
-3.83015
-3.62219
-3.41973
-3.22268
-3.03091
-2.84419
-2.66224
-2.48472
-2.31125
-2.14138
-1.97464
-1.8105
-1.64843
-1.48784
-1.32821
-1.16946
-1.01186
-0.856637
-0.708546
-0.575799
-0.46388
-0.371345
-0.292991
-0.224436
-0.163573
-0.11005
-0.0644353
-0.0274797
-3.60094e-05
0.0174852
0.0235486
0.0142088
-10.2472
-10.2579
-10.268
-10.2773
-10.286
-10.2941
-10.3014
-10.3082
-10.3144
-10.3201
-10.3254
-10.3304
-10.335
-10.3393
-10.3433
-10.347
-10.3504
-10.3533
-10.3555
-10.357
-10.3573
-10.3564
-10.3538
-10.3491
-10.3421
-10.3323
-10.3192
-10.3025
-10.2815
-10.256
-10.2253
-10.189
-10.1466
-10.0977
-10.0418
-9.97835
-9.90705
-9.82746
-9.73924
-9.64205
-9.53562
-9.41973
-9.29421
-9.15895
-9.01395
-8.85923
-8.69492
-8.52126
-8.33853
-8.14713
-7.94755
-7.74037
-7.52623
-7.30587
-7.0801
-6.84979
-6.61583
-6.37917
-6.14076
-5.90154
-5.66246
-5.42439
-5.18819
-4.9546
-4.72432
-4.49793
-4.2759
-4.05863
-3.84636
-3.63927
-3.4374
-3.24073
-3.04913
-2.86242
-2.68035
-2.50261
-2.32885
-2.15869
-1.99168
-1.82736
-1.66527
-1.50493
-1.34597
-1.18843
-1.03277
-0.880421
-0.735563
-0.604804
-0.492603
-0.398089
-0.317248
-0.246433
-0.183709
-0.128534
-0.0811952
-0.0422147
-0.0124764
0.00766828
0.0168477
0.010699
-10.2353
-10.2454
-10.255
-10.2639
-10.2722
-10.2798
-10.2869
-10.2933
-10.2991
-10.3045
-10.3093
-10.3137
-10.3177