/*--------------------------------*- C++ -*----------------------------------*\
| =========                 |                                                 |
| \\      /  F ield         | OpenFOAM: The Open Source CFD Toolbox           |
|  \\    /   O peration     | Version:  4.1                                   |
|   \\  /    A nd           | Web:      www.OpenFOAM.org                      |
|    \\/     M anipulation  |                                                 |
\*---------------------------------------------------------------------------*/
FoamFile
{
    version     2.0;
    format      ascii;
    class       surfaceScalarField;
    location    "300";
    object      phi;
}
// * * * * * * * * * * * * * * * * * * * * * * * * * * * * * * * * * * * * * //

dimensions      [0 3 -1 0 0 0 0];

internalField   nonuniform List<scalar> 
13452
(
6.0292e-05
-2.35572e-08
5.98976e-05
3.94428e-07
5.93097e-05
5.87904e-07
5.85581e-05
7.51574e-07
5.7691e-05
8.67111e-07
5.67843e-05
9.06737e-07
5.58841e-05
9.0019e-07
5.50108e-05
8.73241e-07
5.41748e-05
8.3605e-07
5.3382e-05
7.92787e-07
5.26357e-05
7.46288e-07
5.19371e-05
6.98628e-07
5.12859e-05
6.5119e-07
5.0681e-05
6.0488e-07
5.01207e-05
5.60308e-07
4.96028e-05
5.17869e-07
4.9125e-05
4.77793e-07
4.86849e-05
4.4018e-07
4.82798e-05
4.05035e-07
4.79075e-05
3.72295e-07
4.75657e-05
3.41844e-07
4.72522e-05
3.13534e-07
4.6965e-05
2.87188e-07
4.67024e-05
2.6261e-07
4.64628e-05
2.39585e-07
4.62449e-05
2.17877e-07
4.60476e-05
1.97253e-07
4.58703e-05
1.77359e-07
4.5712e-05
1.58276e-07
4.55733e-05
1.3868e-07
4.54504e-05
1.22912e-07
4.53423e-05
1.08145e-07
9.26068e-08
4.52497e-05
6.22178e-05
-2.5098e-07
6.23093e-05
3.0284e-07
6.24257e-05
4.71543e-07
6.25748e-05
6.02471e-07
6.27369e-05
7.05058e-07
6.28821e-05
7.61525e-07
6.29928e-05
7.89496e-07
6.30624e-05
8.03588e-07
6.30907e-05
8.07749e-07
6.30804e-05
8.03119e-07
6.30354e-05
7.91268e-07
6.29602e-05
7.73877e-07
6.2859e-05
7.5233e-07
6.27362e-05
7.27739e-07
6.25954e-05
7.01028e-07
6.24403e-05
6.72966e-07
6.2274e-05
6.44171e-07
6.2099e-05
6.15122e-07
6.19179e-05
5.86179e-07
6.17326e-05
5.57602e-07
6.15449e-05
5.29566e-07
6.13562e-05
5.02174e-07
6.11679e-05
4.75466e-07
6.09811e-05
4.49431e-07
6.07967e-05
4.24009e-07
6.06155e-05
3.9908e-07
6.04382e-05
3.7451e-07
6.02656e-05
3.49992e-07
6.00983e-05
3.25539e-07
5.99371e-05
2.9987e-07
5.9785e-05
2.75101e-07
5.96514e-05
2.41723e-07
2.08689e-07
5.95353e-05
6.36312e-05
-1.20768e-07
6.36862e-05
2.47857e-07
6.3757e-05
4.00714e-07
6.38541e-05
5.0533e-07
6.39623e-05
5.9691e-07
6.40657e-05
6.5814e-07
6.41604e-05
6.94795e-07
6.42465e-05
7.17461e-07
6.4324e-05
7.30228e-07
6.43927e-05
7.34404e-07
6.44526e-05
7.31414e-07
6.45037e-05
7.22789e-07
6.45462e-05
7.09789e-07
6.45806e-05
6.93407e-07
6.46071e-05
6.7447e-07
6.46264e-05
6.53672e-07
6.4639e-05
6.31581e-07
6.46455e-05
6.08651e-07
6.46464e-05
5.8523e-07
6.46424e-05
5.6158e-07
6.46341e-05
5.37886e-07
6.4622e-05
5.14267e-07
6.46067e-05
4.90782e-07
6.45887e-05
4.67433e-07
6.45685e-05
4.44175e-07
6.45467e-05
4.20898e-07
6.45238e-05
3.97451e-07
6.45002e-05
3.73538e-07
6.44768e-05
3.48944e-07
6.4454e-05
3.22672e-07
6.44344e-05
2.94722e-07
6.44161e-05
2.60054e-07
2.22432e-07
6.44023e-05
6.54961e-05
-3.37532e-08
6.55391e-05
2.04821e-07
6.5581e-05
3.58837e-07
6.56299e-05
4.56429e-07
6.56861e-05
5.40648e-07
6.57431e-05
6.01148e-07
6.57991e-05
6.38777e-07
6.58543e-05
6.62312e-07
6.59082e-05
6.76357e-07
6.59602e-05
6.82416e-07
6.60098e-05
6.81741e-07
6.60569e-05
6.75696e-07
6.61013e-05
6.6544e-07
6.61428e-05
6.51883e-07
6.61815e-05
6.35773e-07
6.62174e-05
6.17744e-07
6.62507e-05
5.98316e-07
6.62814e-05
5.77903e-07
6.63098e-05
5.56825e-07
6.63361e-05
5.35323e-07
6.63604e-05
5.13566e-07
6.6383e-05
4.9166e-07
6.64041e-05
4.69655e-07
6.6424e-05
4.47547e-07
6.64429e-05
4.2528e-07
6.64611e-05
4.02737e-07
6.64788e-05
3.79748e-07
6.64963e-05
3.56017e-07
6.6514e-05
3.31223e-07
6.65321e-05
3.04569e-07
6.65513e-05
2.75594e-07
6.65697e-05
2.41633e-07
2.03757e-07
6.65884e-05
6.74175e-05
5.49977e-09
6.74378e-05
1.84578e-07
6.74638e-05
3.32812e-07
6.74954e-05
4.2482e-07
6.75355e-05
5.00541e-07
6.7579e-05
5.57694e-07
6.76229e-05
5.94854e-07
6.76667e-05
6.18476e-07
6.77102e-05
6.32898e-07
6.77529e-05
6.397e-07
6.77946e-05
6.40051e-07
6.78351e-05
6.35221e-07
6.78742e-05
6.26303e-07
6.79119e-05
6.14158e-07
6.79482e-05
5.99488e-07
6.79831e-05
5.82886e-07
6.80165e-05
5.64837e-07
6.80487e-05
5.45728e-07
6.80797e-05
5.25858e-07
6.81096e-05
5.05451e-07
6.81385e-05
4.84662e-07
6.81665e-05
4.63588e-07
6.81939e-05
4.4227e-07
6.82208e-05
4.20698e-07
6.82472e-05
3.9881e-07
6.82735e-05
3.76486e-07
6.82997e-05
3.53547e-07
6.8326e-05
3.29719e-07
6.83525e-05
3.04664e-07
6.83793e-05
2.77775e-07
6.84064e-05
2.48548e-07
6.84325e-05
2.15567e-07
1.79268e-07
6.84569e-05
6.9364e-05
2.54903e-08
6.93757e-05
1.72879e-07
6.94001e-05
3.08457e-07
6.94284e-05
3.96561e-07
6.94625e-05
4.66353e-07
6.94997e-05
5.20528e-07
6.95374e-05
5.57129e-07
6.95752e-05
5.80687e-07
6.96129e-05
5.95174e-07
6.96504e-05
6.02286e-07
6.96872e-05
6.03179e-07
6.97234e-05
5.99047e-07
6.97588e-05
5.9093e-07
6.97933e-05
5.79647e-07
6.98269e-05
5.65868e-07
6.98596e-05
5.50151e-07
6.98915e-05
5.32955e-07
6.99226e-05
5.14645e-07
6.9953e-05
4.95504e-07
6.99827e-05
4.75742e-07
7.00118e-05
4.55505e-07
7.00405e-05
4.34882e-07
7.00689e-05
4.1391e-07
7.0097e-05
3.92576e-07
7.0125e-05
3.70817e-07
7.0153e-05
3.48519e-07
7.0181e-05
3.25512e-07
7.02092e-05
3.01555e-07
7.02375e-05
2.76348e-07
7.02658e-05
2.49449e-07
7.02939e-05
2.20464e-07
7.03208e-05
1.88685e-07
1.54404e-07
7.03456e-05
7.13552e-05
3.66634e-08
7.13652e-05
1.62851e-07
7.13891e-05
2.84498e-07
7.14163e-05
3.69389e-07
7.14476e-05
4.3512e-07
7.14815e-05
4.86608e-07
7.15161e-05
5.22484e-07
7.15509e-05
5.45897e-07
7.15857e-05
5.60369e-07
7.16203e-05
5.67668e-07
7.16546e-05
5.68946e-07
7.16883e-05
5.65328e-07
7.17214e-05
5.57803e-07
7.17539e-05
5.4716e-07
7.17857e-05
5.3404e-07
7.18169e-05
5.18974e-07
7.18475e-05
5.02399e-07
7.18774e-05
4.84665e-07
7.19069e-05
4.66038e-07
7.19359e-05
4.4672e-07
7.19646e-05
4.26851e-07
7.19929e-05
4.06514e-07
7.20211e-05
3.85745e-07
7.20492e-05
3.64532e-07
7.20772e-05
3.4282e-07
7.21052e-05
3.20507e-07
7.21332e-05
2.97445e-07
7.21613e-05
2.73435e-07
7.21895e-05
2.48239e-07
7.22173e-05
2.21557e-07
7.22447e-05
1.93134e-07
7.22707e-05
1.6266e-07
1.30415e-07
7.22947e-05
7.33999e-05
4.20862e-08
7.34094e-05
1.53282e-07
7.34318e-05
2.62124e-07
7.3458e-05
3.43172e-07
7.34877e-05
4.05447e-07
7.352e-05
4.54311e-07
7.35532e-05
4.89282e-07
7.35866e-05
5.12511e-07
7.362e-05
5.26982e-07
7.36532e-05
5.3446e-07
7.3686e-05
5.36087e-07
7.37184e-05
5.32927e-07
7.37503e-05
5.25923e-07
7.37816e-05
5.15834e-07
7.38124e-05
5.03277e-07
7.38426e-05
4.88763e-07
7.38723e-05
4.7271e-07
7.39015e-05
4.55452e-07
7.39303e-05
4.37247e-07
7.39587e-05
4.18288e-07
7.39869e-05
3.9871e-07
7.40148e-05
3.78598e-07
7.40425e-05
3.57988e-07
7.40702e-05
3.36875e-07
7.40978e-05
3.15213e-07
7.41254e-05
2.9292e-07
7.4153e-05
2.69878e-07
7.41805e-05
2.45935e-07
7.42078e-05
2.20921e-07
7.42347e-05
1.94648e-07
7.42608e-05
1.66985e-07
7.42857e-05
1.37842e-07
1.075e-07
7.43086e-05
7.55007e-05
4.38037e-08
7.55101e-05
1.4394e-07
7.55307e-05
2.41506e-07
7.5556e-05
3.17921e-07
7.55845e-05
3.76884e-07
7.56157e-05
4.23152e-07
7.5648e-05
4.56989e-07
7.56806e-05
4.79897e-07
7.57133e-05
4.94318e-07
7.57458e-05
5.01941e-07
7.5778e-05
5.03887e-07
7.58097e-05
5.01156e-07
7.5841e-05
4.94641e-07
7.58718e-05
4.85073e-07
7.5902e-05
4.73043e-07
7.59317e-05
4.59043e-07
7.5961e-05
4.43474e-07
7.59898e-05
4.26658e-07
7.60182e-05
4.08845e-07
7.60462e-05
3.90222e-07
7.6074e-05
3.70923e-07
7.61016e-05
3.51033e-07
7.6129e-05
3.30593e-07
7.61563e-05
3.09609e-07
7.61834e-05
2.88049e-07
7.62105e-05
2.65854e-07
7.62374e-05
2.42937e-07
7.62642e-05
2.19194e-07
7.62906e-05
1.94517e-07
7.63164e-05
1.6881e-07
7.63414e-05
1.4203e-07
7.6365e-05
1.14207e-07
8.56171e-08
7.63869e-05
7.76601e-05
4.33288e-08
7.76693e-05
1.34649e-07
7.76885e-05
2.22399e-07
7.77127e-05
2.93721e-07
7.77402e-05
3.49369e-07
7.77703e-05
3.93046e-07
7.78018e-05
4.25505e-07
7.78338e-05
4.47878e-07
7.7866e-05
4.62127e-07
7.78981e-05
4.69811e-07
7.793e-05
4.72011e-07
7.79615e-05
4.69662e-07
7.79925e-05
4.63602e-07
7.8023e-05
4.54526e-07
7.80531e-05
4.43001e-07
7.80826e-05
4.29498e-07
7.81117e-05
4.14402e-07
7.81403e-05
3.98022e-07
7.81686e-05
3.80602e-07
7.81965e-05
3.62325e-07
7.82241e-05
3.43323e-07
7.82514e-05
3.23685e-07
7.82786e-05
3.0346e-07
7.83055e-05
2.82664e-07
7.83323e-05
2.61283e-07
7.83588e-05
2.39281e-07
7.83852e-05
2.16604e-07
7.84112e-05
1.93193e-07
7.84367e-05
1.68992e-07
7.84615e-05
1.4397e-07
7.84854e-05
1.18149e-07
7.8508e-05
9.16196e-08
6.46418e-08
7.8529e-05
7.988e-05
4.16105e-08
7.98893e-05
1.25354e-07
7.99072e-05
2.04564e-07
7.99303e-05
2.70631e-07
7.99567e-05
3.22891e-07
7.99858e-05
3.63965e-07
8.00165e-05
3.94841e-07
8.00479e-05
4.16456e-07
8.00796e-05
4.30378e-07
8.01115e-05
4.38005e-07
8.01431e-05
4.40364e-07
8.01744e-05
4.38324e-07
8.02054e-05
4.32664e-07
8.02359e-05
4.2404e-07
8.02659e-05
4.12992e-07
8.02954e-05
3.99967e-07
8.03245e-05
3.85336e-07
8.03531e-05
3.69394e-07
8.03813e-05
3.52378e-07
8.04092e-05
3.34468e-07
8.04367e-05
3.15797e-07
8.04639e-05
2.96456e-07
8.04909e-05
2.76505e-07
8.05176e-05
2.55969e-07
8.0544e-05
2.34854e-07
8.05701e-05
2.13147e-07
8.05959e-05
1.90825e-07
8.06213e-05
1.67864e-07
8.0646e-05
1.44254e-07
8.067e-05
1.2001e-07
8.06929e-05
9.51936e-08
8.07146e-05
6.9924e-08
4.44394e-08
8.07348e-05
8.21628e-05
3.92148e-08
8.21721e-05
1.16098e-07
8.21889e-05
1.87802e-07
8.22108e-05
2.4864e-07
8.22363e-05
2.97425e-07
8.22644e-05
3.35876e-07
8.22942e-05
3.65015e-07
8.2325e-05
3.85672e-07
8.23563e-05
3.9911e-07
8.23877e-05
4.06553e-07
8.24191e-05
4.08961e-07
8.24503e-05
4.07141e-07
8.24812e-05
4.0181e-07
8.25116e-05
3.93584e-07
8.25416e-05
3.82974e-07
8.25712e-05
3.70403e-07
8.26003e-05
3.56223e-07
8.2629e-05
3.40719e-07
8.26573e-05
3.24119e-07
8.26851e-05
3.066e-07
8.27126e-05
2.88296e-07
8.27398e-05
2.69302e-07
8.27666e-05
2.49685e-07
8.27931e-05
2.29484e-07
8.28192e-05
2.08722e-07
8.2845e-05
1.87407e-07
8.28702e-05
1.65543e-07
8.2895e-05
1.43137e-07
8.2919e-05
1.20212e-07
8.29422e-05
9.68126e-08
8.29644e-05
7.30265e-08
8.29853e-05
4.89815e-08
2.48912e-08
8.30049e-05
8.45105e-05
3.64788e-08
8.45197e-05
1.06952e-07
8.45355e-05
1.71948e-07
8.45565e-05
2.27693e-07
8.45809e-05
2.72941e-07
8.46081e-05
3.08743e-07
8.46371e-05
3.36032e-07
8.46672e-05
3.55562e-07
8.46979e-05
3.68365e-07
8.4729e-05
3.75501e-07
8.47601e-05
3.77849e-07
8.47911e-05
3.76154e-07
8.48218e-05
3.71077e-07
8.48522e-05
3.6319e-07
8.48822e-05
3.52972e-07
8.49118e-05
3.40823e-07
8.49409e-05
3.27078e-07
8.49696e-05
3.12008e-07
8.49979e-05
2.95834e-07
8.50258e-05
2.78727e-07
8.50533e-05
2.60824e-07
8.50803e-05
2.42224e-07
8.5107e-05
2.23e-07
8.51333e-05
2.03206e-07
8.51591e-05
1.82877e-07
8.51845e-05
1.62042e-07
8.52093e-05
1.40726e-07
8.52335e-05
1.18961e-07
8.52569e-05
9.67911e-08
8.52794e-05
7.42849e-08
8.53009e-05
5.15397e-08
8.53212e-05
2.86834e-08
5.90501e-09
8.53402e-05
8.6925e-05
3.36009e-08
8.6934e-05
9.79836e-08
8.69491e-05
1.56875e-07
8.69691e-05
2.07716e-07
8.69926e-05
2.494e-07
8.70188e-05
2.82525e-07
8.7047e-05
3.07878e-07
8.70764e-05
3.26144e-07
8.71066e-05
3.38177e-07
8.71372e-05
3.44887e-07
8.7168e-05
3.47072e-07
8.71987e-05
3.45412e-07
8.72293e-05
3.40514e-07
8.72596e-05
3.32905e-07
8.72895e-05
3.23033e-07
8.7319e-05
3.11275e-07
8.73482e-05
2.97945e-07
8.73769e-05
2.83304e-07
8.74052e-05
2.67561e-07
8.7433e-05
2.50888e-07
8.74604e-05
2.33417e-07
8.74874e-05
2.15254e-07
8.75139e-05
1.96479e-07
8.75399e-05
1.77154e-07
8.75655e-05
1.5733e-07
8.75905e-05
1.3705e-07
8.76149e-05
1.16357e-07
8.76385e-05
9.53003e-08
8.76614e-05
7.39414e-08
8.76833e-05
5.23592e-08
8.77042e-05
3.06556e-08
8.77239e-05
8.95271e-09
-1.25837e-08
8.77424e-05
8.94084e-05
3.06946e-08
8.94172e-05
8.92412e-08
8.94316e-05
1.42487e-07
8.94507e-05
1.88628e-07
8.94733e-05
2.26754e-07
8.94987e-05
2.57179e-07
8.9526e-05
2.8053e-07
8.95547e-05
2.97418e-07
8.95843e-05
3.08563e-07
8.96145e-05
3.14742e-07
8.96449e-05
3.16667e-07
8.96753e-05
3.14958e-07
8.97057e-05
3.10167e-07
8.97358e-05
3.02779e-07
8.97656e-05
2.93209e-07
8.97951e-05
2.8181e-07
8.98242e-05
2.68877e-07
8.98528e-05
2.54658e-07
8.9881e-05
2.39354e-07
8.99088e-05
2.23132e-07
8.99361e-05
2.06124e-07
8.99629e-05
1.88438e-07
8.99892e-05
1.7016e-07
9.0015e-05
1.51362e-07
9.00402e-05
1.32104e-07
9.00648e-05
1.12443e-07
9.00888e-05
9.24339e-08
9.01119e-05
7.21389e-08
9.01342e-05
5.16294e-08
9.01556e-05
3.099e-08
9.01759e-05
1.03218e-08
9.01952e-05
-1.02618e-08
-3.06159e-08
9.02132e-05
9.19627e-05
2.78223e-08
9.19712e-05
8.07566e-08
9.1985e-05
1.28711e-07
9.20033e-05
1.70349e-07
9.20251e-05
2.04951e-07
9.20496e-05
2.32659e-07
9.20762e-05
2.53957e-07
9.21042e-05
2.69378e-07
9.21332e-05
2.79531e-07
9.21629e-05
2.85083e-07
9.21929e-05
2.8666e-07
9.2223e-05
2.84823e-07
9.22531e-05
2.80073e-07
9.22831e-05
2.72852e-07
9.23127e-05
2.63544e-07
9.23421e-05
2.52475e-07
9.2371e-05
2.39924e-07
9.23995e-05
2.26122e-07
9.24276e-05
2.11264e-07
9.24553e-05
1.9551e-07
9.24824e-05
1.78993e-07
9.2509e-05
1.61821e-07
9.25351e-05
1.44085e-07
9.25606e-05
1.25863e-07
9.25855e-05
1.07225e-07
9.26097e-05
8.82354e-08
9.26331e-05
6.89593e-08
9.26558e-05
4.94665e-08
9.26776e-05
2.98338e-08
9.26985e-05
1.01473e-08
9.27183e-05
-9.49616e-09
9.2737e-05
-2.89926e-08
-4.82157e-08
9.27546e-05
9.459e-05
2.50166e-08
9.45982e-05
7.2545e-08
9.46114e-05
1.15489e-07
9.46289e-05
1.52808e-07
9.465e-05
1.83936e-07
9.46737e-05
2.0892e-07
9.46995e-05
2.28125e-07
9.47269e-05
2.42005e-07
9.47553e-05
2.5108e-07
9.47845e-05
2.55918e-07
9.48141e-05
2.57068e-07
9.48439e-05
2.55033e-07
9.48737e-05
2.50264e-07
9.49034e-05
2.43161e-07
9.49329e-05
2.34077e-07
9.4962e-05
2.23314e-07
9.49908e-05
2.11129e-07
9.50192e-05
1.97741e-07
9.50471e-05
1.83337e-07
9.50746e-05
1.68069e-07
9.51015e-05
1.52068e-07
9.51279e-05
1.35444e-07
9.51537e-05
1.1829e-07
9.51788e-05
1.00689e-07
9.52033e-05
8.27156e-08
9.52271e-05
6.44414e-08
9.52502e-05
4.59374e-08
9.52724e-05
2.72775e-08
9.52936e-05
8.54032e-09
9.5314e-05
-1.01895e-08
9.53333e-05
-2.88208e-08
9.53516e-05
-4.72595e-08
-6.53955e-08
9.53688e-05
9.72922e-05
2.22925e-08
9.73002e-05
6.46095e-08
9.73129e-05
1.02773e-07
9.73298e-05
1.35937e-07
9.735e-05
1.63651e-07
9.73731e-05
1.85914e-07
9.73982e-05
2.02996e-07
9.74249e-05
2.15276e-07
9.74528e-05
2.23199e-07
9.74815e-05
2.27248e-07
9.75106e-05
2.27902e-07
9.75401e-05
2.25605e-07
9.75696e-05
2.20762e-07
9.7599e-05
2.13734e-07
9.76282e-05
2.04841e-07
9.76572e-05
1.9436e-07
9.76858e-05
1.8253e-07
9.7714e-05
1.69556e-07
9.77417e-05
1.55613e-07
9.77689e-05
1.40848e-07
9.77956e-05
1.25388e-07
9.78217e-05
1.09343e-07
9.78472e-05
9.28064e-08
9.7872e-05
7.58642e-08
9.78961e-05
5.85945e-08
9.79195e-05
4.10723e-08
9.7942e-05
2.33716e-08
9.79638e-05
5.56766e-09
9.79846e-05
-1.22614e-08
9.80044e-05
-3.00344e-08
9.80232e-05
-4.76667e-08
9.80411e-05
-6.50741e-08
-8.21602e-08
9.80578e-05
0.000100072
1.96552e-08
0.000100079
5.69437e-08
0.000100092
9.05202e-08
0.000100108
1.19674e-07
0.000100128
1.4404e-07
0.00010015
1.63592e-07
0.000100174
1.78529e-07
0.0001002
1.89164e-07
0.000100228
1.95874e-07
0.000100256
1.99069e-07
0.000100285
1.99164e-07
0.000100314
1.9655e-07
0.000100343
1.91584e-07
0.000100372
1.84592e-07
0.000100401
1.75861e-07
0.00010043
1.65644e-07
0.000100458
1.5416e-07
0.000100486
1.41599e-07
0.000100514
1.28126e-07
0.000100541
1.13881e-07
0.000100567
9.89856e-08
0.000100593
8.35471e-08
0.000100618
6.766e-08
0.000100642
5.141e-08
0.000100666
3.48769e-08
0.000100689
1.81367e-08
0.000100711
1.26411e-09
0.000100732
-1.56662e-08
0.000100753
-3.25787e-08
0.000100772
-4.93968e-08
0.00010079
-6.6043e-08
0.000100808
-8.24419e-08
-9.85095e-08
0.000100824
0.000102931
1.7104e-08
0.000102938
4.95355e-08
0.00010295
7.86927e-08
0.000102966
1.03964e-07
0.000102985
1.25047e-07
0.000103006
1.41904e-07
0.00010303
1.54682e-07
0.000103056
1.63636e-07
0.000103082
1.69081e-07
0.00010311
1.71368e-07
0.000103138
1.70851e-07
0.000103167
1.6787e-07
0.000103196
1.6274e-07
0.000103225
1.5575e-07
0.000103253
1.47157e-07
0.000103282
1.37188e-07
0.00010331
1.26043e-07
0.000103338
1.13898e-07
0.000103365
1.00905e-07
0.000103392
8.71951e-08
0.000103418
7.2886e-08
0.000103443
5.80804e-08
0.000103468
4.28711e-08
0.000103492
2.73425e-08
0.000103515
1.1574e-08
0.000103538
-4.35907e-09
0.00010356
-2.03833e-08
0.00010358
-3.64264e-08
0.0001036
-5.24166e-08
0.000103619
-6.82827e-08
0.000103637
-8.39542e-08
0.000103654
-9.9364e-08
-1.14439e-07
0.00010367
0.000105871
1.46351e-08
0.000105878
4.23689e-08
0.00010589
6.72534e-08
0.000105905
8.87554e-08
0.000105923
1.06617e-07
0.000105945
1.20799e-07
0.000105968
1.31408e-07
0.000105993
1.38651e-07
0.000106019
1.42792e-07
0.000106046
1.44124e-07
0.000106074
1.42949e-07
0.000106103
1.39561e-07
0.000106131
1.34232e-07
0.00010616
1.27216e-07
0.000106188
1.18741e-07
0.000106216
1.09008e-07
0.000106244
9.81999e-08
0.000106271
8.64738e-08
0.000106298
7.39701e-08
0.000106325
6.08122e-08
0.000106351
4.71098e-08
0.000106376
3.29611e-08
0.0001064
1.8455e-08
0.000106424
3.67375e-09
0.000106447
-1.13058e-08
0.000106469
-2.64106e-08
0.00010649
-4.15698e-08
0.00010651
-5.67148e-08
0.00010653
-7.17784e-08
0.000106548
-8.66952e-08
0.000106565
-1.01402e-07
0.000106582
-1.15838e-07
-1.29941e-07
0.000106597
0.000108896
1.22432e-08
0.000108903
3.54255e-08
0.000108914
5.61668e-08
0.000108929
7.39975e-08
0.000108947
8.86961e-08
0.000108967
1.00223e-07
0.00010899
1.08658e-07
0.000109014
1.14169e-07
0.00010904
1.16971e-07
0.000109067
1.1731e-07
0.000109094
1.15441e-07
0.000109122
1.1161e-07
0.000109151
1.06054e-07
0.000109179
9.89907e-08
0.000109207
9.06178e-08
0.000109235
8.11146e-08
0.000109262
7.0641e-08
0.00010929
5.93396e-08
0.000109316
4.73373e-08
0.000109342
3.47475e-08
0.000109368
2.16717e-08
0.000109392
8.20209e-09
0.000109416
-5.57724e-09
0.00010944
-1.95881e-08
0.000109462
-3.37573e-08
0.000109484
-4.80151e-08
0.000109504
-6.2295e-08
0.000109524
-7.65324e-08
0.000109543
-9.06657e-08
0.000109561
-1.04635e-07
0.000109578
-1.18384e-07
0.000109594
-1.3186e-07
-1.45007e-07
0.000109609
0.000112007
9.92214e-09
0.000112014
2.86862e-08
0.000112024
4.53984e-08
0.000112039
5.96428e-08
0.000112056
7.1228e-08
0.000112076
8.01187e-08
0.000112099
8.63778e-08
0.000112123
9.01374e-08
0.000112148
9.15747e-08
0.000112174
9.08911e-08
0.000112202
8.82962e-08
0.000112229
8.39973e-08
0.000112257
7.81918e-08
0.000112285
7.10643e-08
0.000112313
6.27845e-08
0.00011234
5.35068e-08
0.000112368
4.33709e-08
0.000112394
3.25024e-08
0.000112421
2.10145e-08
0.000112447
9.00945e-09
0.000112472
-3.41999e-09
0.000112496
-1.61891e-08
0.00011252
-2.92196e-08
0.000112543
-4.24387e-08
0.000112565
-5.57779e-08
0.000112586
-6.91721e-08
0.000112606
-8.25594e-08
0.000112625
-9.58807e-08
0.000112644
-1.09079e-07
0.000112661
-1.22102e-07
0.000112678
-1.34898e-07
0.000112693
-1.47422e-07
-1.59624e-07
0.000112708
0.000115207
7.6656e-09
0.000115213
2.2132e-08
0.000115224
3.49152e-08
0.000115238
4.56446e-08
0.000115255
5.41572e-08
0.000115275
6.0427e-08
0.000115296
6.45061e-08
0.00011532
6.65001e-08
0.000115345
6.65509e-08
0.000115371
6.48202e-08
0.000115398
6.14774e-08
0.000115425
5.66902e-08
0.000115453
5.062e-08
0.00011548
4.34188e-08
0.000115508
3.52278e-08
0.000115535
2.6177e-08
0.000115562
1.63851e-08
0.000115589
5.96054e-09
0.000115615
-4.99801e-09
0.00011564
-1.64002e-08
0.000115665
-2.81633e-08
0.000115689
-4.02106e-08
0.000115712
-5.2471e-08
0.000115735
-6.48779e-08
0.000115756
-7.73683e-08
0.000115777
-8.98829e-08
0.000115797
-1.02365e-07
0.000115816
-1.14761e-07
0.000115834
-1.2702e-07
0.000115851
-1.39095e-07
0.000115867
-1.5094e-07
0.000115882
-1.62517e-07
-1.73783e-07
0.000115896
0.000118498
5.46784e-09
0.000118504
1.57456e-08
0.000118515
2.46858e-08
0.000118528
3.1957e-08
0.000118545
3.74258e-08
0.000118564
4.10824e-08
0.000118586
4.29758e-08
0.000118609
4.31904e-08
0.000118634
4.18369e-08
0.00011866
3.9041e-08
0.000118686
3.49341e-08
0.000118713
2.96462e-08
0.000118741
2.33032e-08
0.000118768
1.60251e-08
0.000118795
7.92471e-09
0.000118822
-8.92851e-10
0.000118849
-1.03299e-08
0.000118875
-2.02961e-08
0.000118901
-3.07079e-08
0.000118926
-4.14875e-08
0.000118951
-5.25629e-08
0.000118974
-6.38667e-08
0.000118997
-7.53356e-08
0.000119019
-8.69098e-08
0.00011904
-9.85332e-08
0.000119061
-1.10152e-07
0.00011908
-1.21716e-07
0.000119098
-1.33177e-07
0.000119116
-1.4449e-07
0.000119132
-1.55613e-07
0.000119148
-1.66507e-07
0.000119163
-1.77138e-07
-1.8747e-07
0.000119176
0.000121883
3.32431e-09
0.00012189
9.51273e-09
0.0001219
1.46826e-08
0.000121913
1.8535e-08
0.00012193
2.09727e-08
0.000121949
2.20133e-08
0.00012197
2.17099e-08
0.000121993
2.01303e-08
0.000122017
1.73572e-08
0.000122043
1.3483e-08
0.000122069
8.6025e-09
0.000122096
2.80882e-09
0.000122123
-3.80733e-09
0.00012215
-1.11582e-08
0.000122178
-1.91597e-08
0.000122204
-2.77316e-08
0.000122231
-3.6798e-08
0.000122257
-4.62873e-08
0.000122282
-5.61314e-08
0.000122307
-6.62662e-08
0.000122331
-7.66309e-08
0.000122354
-8.7168e-08
0.000122377
-9.78229e-08
0.000122399
-1.08544e-07
0.000122419
-1.19281e-07
0.000122439
-1.29987e-07
0.000122458
-1.40618e-07
0.000122476
-1.51133e-07
0.000122493
-1.61491e-07
0.000122509
-1.71657e-07
0.000122524
-1.81596e-07
0.000122538
-1.9128e-07
-2.00677e-07
0.000122551
0.000125366
1.23303e-09
0.000125372
3.42607e-09
0.000125381
4.8841e-09
0.000125395
5.33525e-09
0.000125411
4.733e-09
0.00012543
3.13899e-09
0.000125451
6.19075e-10
0.000125474
-2.77254e-09
0.000125498
-6.9791e-09
0.000125523
-1.194e-08
0.00012555
-1.75967e-08
0.000125576
-2.38933e-08
0.000125603
-3.0775e-08
0.00012563
-3.81866e-08
0.000125657
-4.60733e-08
0.000125684
-5.43806e-08
0.00012571
-6.30549e-08
0.000125736
-7.20436e-08
0.000125761
-8.12952e-08
0.000125786
-9.07594e-08
0.000125809
-1.00388e-07
0.000125832
-1.10133e-07
0.000125854
-1.1995e-07
0.000125876
-1.29794e-07
0.000125896
-1.39624e-07
0.000125915
-1.494e-07
0.000125934
-1.59083e-07
0.000125951
-1.68637e-07
0.000125968
-1.78029e-07
0.000125984
-1.87228e-07
0.000125998
-1.96205e-07
0.000126012
-2.04935e-07
-2.13392e-07
0.000126025
0.000128947
-8.03151e-10
0.000128953
-2.5092e-09
0.000128963
-4.71938e-09
0.000128976
-7.68246e-09
0.000128992
-1.13647e-08
0.000129011
-1.56333e-08
0.000129032
-2.04018e-08
0.000129054
-2.5629e-08
0.000129079
-3.12829e-08
0.000129104
-3.73342e-08
0.00012913
-4.37617e-08
0.000129157
-5.0549e-08
0.000129184
-5.76786e-08
0.000129211
-6.51293e-08
0.000129238
-7.28763e-08
0.000129264
-8.0892e-08
0.00012929
-8.91457e-08
0.000129316
-9.76044e-08
0.000129341
-1.06234e-07
0.000129365
-1.14998e-07
0.000129388
-1.23861e-07
0.000129411
-1.32786e-07
0.000129433
-1.41738e-07
0.000129454
-1.50682e-07
0.000129474
-1.59582e-07
0.000129493
-1.68406e-07
0.000129511
-1.77122e-07
0.000129528
-1.85701e-07
0.000129544
-1.94113e-07
0.000129559
-2.02334e-07
0.000129573
-2.10339e-07
0.000129586
-2.18109e-07
-2.25622e-07
0.000129599
0.000132631
-2.77188e-09
0.000132637
-8.26355e-09
0.000132646
-1.41164e-08
0.000132659
-2.05531e-08
0.000132675
-2.74005e-08
0.000132694
-3.44132e-08
0.000132715
-4.14788e-08
0.000132738
-4.85729e-08
0.000132762
-5.56886e-08
0.000132788
-6.28292e-08
0.000132814
-7.00145e-08
0.000132841
-7.72711e-08
0.000132868
-8.4621e-08
0.000132895
-9.20786e-08
0.000132921
-9.96512e-08
0.000132948
-1.07339e-07
0.000132974
-1.15134e-07
0.000132999
-1.23026e-07
0.000133024
-1.30996e-07
0.000133048
-1.39024e-07
0.000133071
-1.47088e-07
0.000133094
-1.55161e-07
0.000133115
-1.63218e-07
0.000133136
-1.71232e-07
0.000133155
-1.79176e-07
0.000133174
-1.87026e-07
0.000133192
-1.94754e-07
0.000133208
-2.02337e-07
0.000133224
-2.09752e-07
0.000133238
-2.16979e-07
0.000133252
-2.23997e-07
0.000133265
-2.30789e-07
-2.37337e-07
0.000133277
0.00013642
-4.64185e-09
0.000136426
-1.37605e-08
0.000136435
-2.32581e-08
0.000136448
-3.33033e-08
0.000136464
-4.3467e-08
0.000136483
-5.3334e-08
0.000136504
-6.27694e-08
0.000136527
-7.17723e-08
0.000136552
-8.03606e-08
0.000136577
-8.85763e-08
0.000136604
-9.64901e-08
0.000136631
-1.04178e-07
0.000136658
-1.11706e-07
0.000136685
-1.19126e-07
0.000136712
-1.26478e-07
0.000136738
-1.33792e-07
0.000136764
-1.41086e-07
0.00013679
-1.48367e-07
0.000136814
-1.55637e-07
0.000136838
-1.62889e-07
0.000136861
-1.70115e-07
0.000136883
-1.773e-07
0.000136904
-1.84428e-07
0.000136925
-1.91482e-07
0.000136944
-1.98442e-07
0.000136962
-2.05289e-07
0.000136979
-2.12005e-07
0.000136996
-2.18571e-07
0.000137011
-2.24969e-07
0.000137025
-2.31185e-07
0.000137038
-2.37202e-07
0.000137051
-2.43011e-07
-2.48599e-07
0.000137062
0.000140317
-6.34154e-09
0.000140323
-1.88298e-08
0.000140331
-3.20327e-08
0.000140344
-4.59542e-08
0.00014036
-5.96748e-08
0.000140379
-7.25506e-08
0.000140401
-8.4463e-08
0.000140425
-9.54439e-08
0.00014045
-1.05529e-07
0.000140476
-1.14806e-07
0.000140503
-1.23408e-07
0.00014053
-1.3147e-07
0.000140558
-1.39109e-07
0.000140585
-1.46422e-07
0.000140612
-1.53484e-07
0.000140639
-1.60358e-07
0.000140665
-1.67085e-07
0.00014069
-1.73696e-07
0.000140715
-1.8021e-07
0.000140738
-1.86636e-07
0.000140761
-1.92978e-07
0.000140783
-1.99232e-07
0.000140804
-2.05392e-07
0.000140824
-2.11449e-07
0.000140843
-2.17391e-07
0.000140861
-2.23206e-07
0.000140878
-2.28882e-07
0.000140894
-2.34405e-07
0.000140908
-2.39762e-07
0.000140922
-2.44942e-07
0.000140935
-2.4993e-07
0.000140947
-2.54717e-07
-2.59289e-07
0.000140957
0.000144326
-7.71394e-09
0.00014433
-2.31064e-08
0.000144338
-4.02125e-08
0.000144351
-5.85355e-08
0.000144368
-7.61998e-08
0.000144387
-9.22808e-08
0.00014441
-1.06767e-07
0.000144434
-1.19757e-07
0.00014446
-1.31322e-07
0.000144486
-1.41619e-07
0.000144514
-1.5086e-07
0.000144542
-1.59242e-07
0.00014457
-1.66934e-07
0.000144597
-1.74077e-07
0.000144624
-1.80786e-07
0.000144651
-1.87156e-07
0.000144677
-1.93255e-07
0.000144703
-1.99136e-07
0.000144728
-2.04835e-07
0.000144751
-2.10379e-07
0.000144774
-2.15783e-07
0.000144796
-2.21057e-07
0.000144817
-2.26202e-07
0.000144836
-2.3122e-07
0.000144855
-2.36104e-07
0.000144873
-2.40851e-07
0.000144889
-2.45454e-07
0.000144905
-2.49903e-07
0.000144919
-2.54193e-07
0.000144933
-2.58317e-07
0.000144945
-2.62269e-07
0.000144956
-2.66048e-07
-2.69649e-07
0.000144967
0.000148449
-8.40044e-09
0.000148451
-2.58689e-08
0.000148459
-4.73751e-08
0.000148471
-7.09794e-08
0.000148488
-9.32159e-08
0.000148509
-1.12961e-07
0.000148532
-1.30334e-07
0.000148558
-1.45436e-07
0.000148585
-1.58407e-07
0.000148613
-1.69562e-07
0.000148641
-1.7925e-07
0.00014867
-1.87763e-07
0.000148698
-1.95332e-07
0.000148726
-2.0215e-07
0.000148754
-2.08375e-07
0.000148781
-2.14129e-07
0.000148807
-2.19507e-07
0.000148833
-2.24579e-07
0.000148857
-2.29399e-07
0.000148881
-2.34005e-07
0.000148903
-2.38424e-07
0.000148925
-2.42675e-07
0.000148946
-2.4677e-07
0.000148965
-2.50715e-07
0.000148984
-2.54514e-07
0.000149001
-2.58166e-07
0.000149017
-2.6167e-07
0.000149032
-2.65022e-07
0.000149046
-2.68219e-07
0.000149059
-2.71255e-07
0.000149071
-2.74122e-07
0.000149082
-2.76809e-07
-2.79311e-07
0.000149091
0.000152688
-7.38994e-09
0.000152688
-2.56811e-08
0.000152694
-5.33012e-08
0.000152706
-8.3367e-08
0.000152723
-1.10304e-07
0.000152744
-1.33821e-07
0.000152768
-1.54392e-07
0.000152795
-1.71918e-07
0.000152823
-1.86521e-07
0.000152852
-1.9867e-07
0.000152882
-2.08861e-07
0.000152911
-2.17486e-07
0.000152941
-2.24862e-07
0.00015297
-2.31254e-07
0.000152998
-2.36876e-07
0.000153026
-2.41891e-07
0.000153053
-2.46424e-07
0.000153079
-2.50571e-07
0.000153104
-2.54403e-07
0.000153128
-2.57972e-07
0.000153151
-2.61318e-07
0.000153173
-2.6447e-07
0.000153193
-2.67446e-07
0.000153213
-2.7026e-07
0.000153231
-2.7292e-07
0.000153249
-2.75434e-07
0.000153265
-2.77803e-07
0.00015328
-2.80029e-07
0.000153294
-2.82114e-07
0.000153306
-2.8406e-07
0.000153318
-2.85871e-07
0.000153329
-2.87557e-07
-2.89117e-07
0.000153339
0.000157046
-2.21049e-09
0.000157039
-1.82549e-08
0.000157043
-5.75706e-08
0.000157058
-9.83274e-08
0.000157079
-1.31494e-07
0.000157104
-1.58832e-07
0.000157132
-1.81789e-07
0.00015716
-2.00616e-07
0.00015719
-2.15861e-07
0.000157219
-2.28292e-07
0.000157249
-2.38515e-07
0.000157278
-2.46965e-07
0.000157308
-2.53998e-07
0.000157336
-2.59915e-07
0.000157364
-2.64949e-07
0.000157392
-2.6928e-07
0.000157418
-2.73046e-07
0.000157444
-2.76353e-07
0.000157469
-2.79284e-07
0.000157493
-2.81902e-07
0.000157516
-2.84255e-07
0.000157538
-2.86378e-07
0.000157559
-2.88298e-07
0.000157578
-2.90036e-07
0.000157597
-2.91605e-07
0.000157615
-2.93018e-07
0.000157631
-2.94281e-07
0.000157647
-2.954e-07
0.000157661
-2.96376e-07
0.000157674
-2.97209e-07
0.000157686
-2.97894e-07
0.000157697
-2.98419e-07
-2.98787e-07
0.000157707
0.000161526
1.02251e-08
0.000161506
2.10039e-09
0.000161498
-5.02819e-08
0.000161503
-1.0298e-07
0.000161518
-1.46983e-07
0.000161543
-1.83574e-07
0.000161574
-2.12615e-07
0.000161608
-2.34606e-07
0.000161643
-2.51223e-07
0.000161679
-2.64028e-07
0.000161715
-2.74017e-07
0.00016175
-2.81856e-07
0.000161784
-2.88066e-07
0.000161817
-2.93046e-07
0.000161849
-2.97082e-07
0.00016188
-3.0038e-07
0.00016191
-3.0309e-07
0.000161939
-3.05327e-07
0.000161967
-3.07175e-07
0.000161994
-3.08698e-07
0.000162019
-3.09943e-07
0.000162044
-3.10948e-07
0.000162067
-3.11741e-07
0.00016209
-3.12344e-07
0.000162111
-3.12773e-07
0.000162131
-3.13042e-07
0.00016215
-3.13163e-07
0.000162168
-3.13146e-07
0.000162184
-3.12999e-07
0.0001622
-3.12734e-07
0.000162214
-3.12364e-07
0.000162228
-3.11911e-07
-3.11374e-07
0.00016224
0.0001661
6.40342e-08
0.000166096
5.46966e-09
0.000166114
-6.75525e-08
0.00016613
-1.19353e-07
0.000166146
-1.63199e-07
0.000166165
-2.02575e-07
0.000166188
-2.35005e-07
0.000166213
-2.60286e-07
0.000166242
-2.80007e-07
0.000166274
-2.95531e-07
0.000166307
-3.07716e-07
0.000166343
-3.17225e-07
0.000166379
-3.24629e-07
0.000166417
-3.30378e-07
0.000166454
-3.34804e-07
0.000166492
-3.38164e-07
0.00016653
-3.40656e-07
0.000166567
-3.42438e-07
0.000166603
-3.43634e-07
0.000166639
-3.44339e-07