/*--------------------------------*- C++ -*----------------------------------*\
| =========                 |                                                 |
| \\      /  F ield         | OpenFOAM: The Open Source CFD Toolbox           |
|  \\    /   O peration     | Version:  4.1                                   |
|   \\  /    A nd           | Web:      www.OpenFOAM.org                      |
|    \\/     M anipulation  |                                                 |
\*---------------------------------------------------------------------------*/
FoamFile
{
    version     2.0;
    format      ascii;
    class       volVectorField;
    location    "300";
    object      U;
}
// * * * * * * * * * * * * * * * * * * * * * * * * * * * * * * * * * * * * * //

dimensions      [0 1 -1 0 0 0 0];

internalField   nonuniform List<vector> 
6820
(
(7.316 -0.463593 0)
(7.31112 -0.449229 0)
(7.26525 -0.315606 0)
(7.17903 -0.205427 0)
(7.07463 -0.128576 0)
(6.96485 -0.0771083 0)
(6.85446 -0.0428665 0)
(6.74612 -0.0199823 0)
(6.64176 -0.00470115 0)
(6.54247 0.00537063 0)
(6.44876 0.0118263 0)
(6.36082 0.0157594 0)
(6.27869 0.0179313 0)
(6.20229 0.0188787 0)
(6.13143 0.0189838 0)
(6.06588 0.01852 0)
(6.00536 0.0176835 0)
(5.94957 0.0166139 0)
(5.8982 0.0154102 0)
(5.85096 0.0141414 0)
(5.80756 0.0128546 0)
(5.76773 0.011581 0)
(5.73123 0.0103398 0)
(5.69782 0.00914152 0)
(5.6673 0.00798981 0)
(5.63949 0.00688269 0)
(5.61426 0.00581516 0)
(5.59146 0.00477173 0)
(5.57111 0.00375922 0)
(5.5528 0.00271746 0)
(5.53782 0.00169008 0)
(5.52095 0.00183785 0)
(5.51768 -0.00601252 0)
(7.3428 0.124511 0)
(7.36544 0.210898 0)
(7.37961 0.198759 0)
(7.39309 0.165746 0)
(7.41115 0.136345 0)
(7.4303 0.11297 0)
(7.44613 0.0949305 0)
(7.45693 0.081305 0)
(7.46265 0.0710069 0)
(7.46362 0.0630936 0)
(7.46026 0.0568935 0)
(7.45305 0.0519449 0)
(7.44251 0.0479192 0)
(7.42915 0.0445788 0)
(7.41347 0.0417522 0)
(7.39588 0.0393156 0)
(7.37679 0.0371785 0)
(7.35654 0.0352742 0)
(7.33541 0.0335525 0)
(7.31369 0.0319752 0)
(7.29158 0.0305125 0)
(7.26928 0.0291403 0)
(7.24695 0.0278387 0)
(7.22474 0.0265896 0)
(7.20275 0.0253765 0)
(7.1811 0.0241818 0)
(7.15988 0.0229888 0)
(7.13916 0.0217695 0)
(7.11906 0.0205292 0)
(7.09955 0.0191391 0)
(7.08109 0.0179742 0)
(7.06349 0.0158274 0)
(7.04962 0.0168091 0)
(7.32611 0.00484812 0)
(7.3195 -0.0105588 0)
(7.32607 -0.0225855 0)
(7.33745 -0.0194518 0)
(7.34974 -0.00944966 0)
(7.36207 0.000506523 0)
(7.37364 0.00880963 0)
(7.38408 0.015603 0)
(7.39346 0.0210673 0)
(7.40186 0.0253418 0)
(7.40927 0.0286029 0)
(7.41565 0.0310314 0)
(7.42103 0.0327813 0)
(7.42545 0.0339783 0)
(7.42894 0.0347275 0)
(7.43156 0.0351162 0)
(7.43339 0.0352169 0)
(7.43447 0.0350883 0)
(7.43488 0.0347776 0)
(7.43469 0.0343225 0)
(7.43397 0.0337519 0)
(7.43279 0.0330878 0)
(7.4312 0.0323458 0)
(7.42927 0.0315354 0)
(7.42706 0.0306611 0)
(7.42463 0.0297212 0)
(7.42205 0.0287099 0)
(7.41936 0.027609 0)
(7.41665 0.0264079 0)
(7.41396 0.0250363 0)
(7.4115 0.0235143 0)
(7.40921 0.0214503 0)
(7.40748 0.018853 0)
(7.32909 -0.00529144 0)
(7.32382 0.00298771 0)
(7.32882 0.0147651 0)
(7.33557 0.0244108 0)
(7.34148 0.030741 0)
(7.34761 0.0341855 0)
(7.354 0.0359548 0)
(7.36027 0.0369445 0)
(7.36636 0.0375081 0)
(7.37228 0.0377592 0)
(7.37798 0.0377694 0)
(7.3834 0.0375992 0)
(7.38851 0.0372915 0)
(7.39332 0.0368759 0)
(7.3978 0.0363749 0)
(7.40198 0.0358068 0)
(7.40584 0.035186 0)
(7.40942 0.0345236 0)
(7.41272 0.0338275 0)
(7.41577 0.0331026 0)
(7.4186 0.0323516 0)
(7.42122 0.0315745 0)
(7.42366 0.030769 0)
(7.42594 0.02993 0)
(7.4281 0.0290493 0)
(7.43017 0.0281146 0)
(7.43217 0.0271101 0)
(7.43413 0.0260093 0)
(7.43609 0.0247855 0)
(7.43808 0.0233632 0)
(7.44017 0.0217067 0)
(7.44225 0.0194903 0)
(7.44439 0.0167845 0)
(7.3315 -0.00137338 0)
(7.32877 0.00833022 0)
(7.33145 0.0159089 0)
(7.33548 0.0198246 0)
(7.33935 0.0227527 0)
(7.34377 0.0252172 0)
(7.3486 0.0271805 0)
(7.35344 0.0287726 0)
(7.35818 0.0300732 0)
(7.36286 0.0310913 0)
(7.36746 0.0318419 0)
(7.37193 0.0323571 0)
(7.37626 0.0326691 0)
(7.38044 0.0328046 0)
(7.38447 0.0327876 0)
(7.38834 0.03264 0)
(7.39205 0.0323809 0)
(7.39562 0.0320263 0)
(7.39905 0.0315892 0)
(7.40235 0.0310795 0)
(7.40554 0.0305043 0)
(7.40864 0.0298676 0)
(7.41165 0.0291702 0)
(7.41459 0.0284098 0)
(7.41749 0.0275805 0)
(7.42035 0.0266717 0)
(7.4232 0.0256681 0)
(7.42604 0.0245451 0)
(7.42891 0.0232722 0)
(7.43181 0.0217897 0)
(7.43474 0.0200441 0)
(7.43764 0.0178681 0)
(7.44044 0.0152963 0)
(7.33229 0.000731753 0)
(7.33091 0.00775464 0)
(7.33278 0.0134365 0)
(7.33608 0.0171809 0)
(7.33945 0.0206105 0)
(7.34315 0.0236123 0)
(7.34716 0.0259077 0)
(7.3512 0.0276399 0)
(7.35519 0.0289739 0)
(7.35916 0.0299744 0)
(7.36309 0.030681 0)
(7.36696 0.0311384 0)
(7.37074 0.031387 0)
(7.37443 0.0314588 0)
(7.37804 0.0313807 0)
(7.38154 0.0311757 0)
(7.38496 0.0308635 0)
(7.38828 0.0304598 0)
(7.39153 0.0299768 0)
(7.3947 0.0294236 0)
(7.39781 0.0288061 0)
(7.40086 0.0281269 0)
(7.40388 0.0273858 0)
(7.40686 0.0265791 0)
(7.40982 0.0256996 0)
(7.41278 0.0247358 0)
(7.41573 0.0236713 0)
(7.4187 0.0224822 0)
(7.42169 0.0211385 0)
(7.42468 0.0195926 0)
(7.42767 0.0177978 0)
(7.43059 0.0156629 0)
(7.43337 0.0131939 0)
(7.3326 0.00132834 0)
(7.33197 0.00685086 0)
(7.33362 0.0121552 0)
(7.33659 0.016122 0)
(7.33971 0.0194875 0)
(7.34301 0.0222902 0)
(7.34656 0.0244228 0)
(7.35016 0.0260357 0)
(7.35374 0.0272807 0)
(7.35731 0.0282188 0)
(7.36085 0.0288848 0)
(7.36434 0.0293179 0)
(7.36778 0.0295543 0)
(7.37115 0.029623 0)
(7.37446 0.0295479 0)
(7.3777 0.0293496 0)
(7.38087 0.0290453 0)
(7.38398 0.0286489 0)
(7.38703 0.0281711 0)
(7.39003 0.0276195 0)
(7.39299 0.0269988 0)
(7.39592 0.0263108 0)
(7.39882 0.0255546 0)
(7.40171 0.0247259 0)
(7.40459 0.0238172 0)
(7.40746 0.0228173 0)
(7.41034 0.0217105 0)
(7.41323 0.0204756 0)
(7.41612 0.0190861 0)
(7.419 0.0175065 0)
(7.42185 0.0157017 0)
(7.4246 0.0136229 0)
(7.4272 0.0112776 0)
(7.3328 0.00159282 0)
(7.33264 0.00641215 0)
(7.33414 0.0112989 0)
(7.3368 0.015099 0)
(7.33971 0.0182104 0)
(7.34278 0.0208149 0)
(7.34607 0.0228638 0)
(7.34942 0.0244404 0)
(7.35277 0.0256591 0)
(7.35609 0.026578 0)
(7.3594 0.0272323 0)
(7.36266 0.0276588 0)
(7.36587 0.0278914 0)
(7.36903 0.0279578 0)
(7.37213 0.0278808 0)
(7.37518 0.0276796 0)
(7.37817 0.0273706 0)
(7.38111 0.0269668 0)
(7.38401 0.026478 0)
(7.38686 0.0259113 0)
(7.38969 0.025271 0)
(7.39249 0.0245586 0)
(7.39527 0.0237728 0)
(7.39803 0.0229095 0)
(7.40079 0.0219616 0)
(7.40355 0.0209187 0)
(7.4063 0.0197667 0)
(7.40905 0.0184876 0)
(7.4118 0.0170601 0)
(7.41451 0.0154587 0)
(7.41717 0.01366 0)
(7.41973 0.0116397 0)
(7.42213 0.00940932 0)
(7.33292 0.00171883 0)
(7.33306 0.00604464 0)
(7.33443 0.0104335 0)
(7.33681 0.0139967 0)
(7.33952 0.0169247 0)
(7.34242 0.0193956 0)
(7.34551 0.0213788 0)
(7.34869 0.0229179 0)
(7.35187 0.0241049 0)
(7.35504 0.0249986 0)
(7.35818 0.0256351 0)
(7.3613 0.0260488 0)
(7.36436 0.0262717 0)
(7.36737 0.0263301 0)
(7.37034 0.0262458 0)
(7.37325 0.0260372 0)
(7.37611 0.0257195 0)
(7.37893 0.0253049 0)
(7.3817 0.0248027 0)
(7.38444 0.0242194 0)
(7.38716 0.0235589 0)
(7.38984 0.0228224 0)
(7.39251 0.0220086 0)
(7.39516 0.0211138 0)
(7.39781 0.0201313 0)
(7.40044 0.0190521 0)
(7.40306 0.0178643 0)
(7.40567 0.0165534 0)
(7.40826 0.0151031 0)
(7.4108 0.0134962 0)
(7.41327 0.0117185 0)
(7.41564 0.00976026 0)
(7.41787 0.00763511 0)
(7.33299 0.00173855 0)
(7.3333 0.00566384 0)
(7.33457 0.00960742 0)
(7.33671 0.0129414 0)
(7.33924 0.0157085 0)
(7.34197 0.0180437 0)
(7.34489 0.0199403 0)
(7.34791 0.0214264 0)
(7.35095 0.0225747 0)
(7.35399 0.0234398 0)
(7.35702 0.0240564 0)
(7.36001 0.0244562 0)
(7.36297 0.0246686 0)
(7.36588 0.0247187 0)
(7.36874 0.0246269 0)
(7.37155 0.0244107 0)
(7.37432 0.0240842 0)
(7.37704 0.0236589 0)
(7.37973 0.0231436 0)
(7.38238 0.0225442 0)
(7.38499 0.0218644 0)
(7.38759 0.0211054 0)
(7.39016 0.0202661 0)
(7.39271 0.0193431 0)
(7.39525 0.018331 0)
(7.39777 0.0172221 0)
(7.40027 0.0160069 0)
(7.40274 0.0146743 0)
(7.40517 0.0132129 0)
(7.40756 0.0116117 0)
(7.40987 0.00986366 0)
(7.41207 0.00796693 0)
(7.41413 0.00593618 0)
(7.33302 0.00169128 0)
(7.33342 0.00528111 0)
(7.33461 0.0088421 0)
(7.33656 0.0119411 0)
(7.3389 0.0145412 0)
(7.34147 0.0167353 0)
(7.34423 0.0185347 0)
(7.34709 0.0199593 0)
(7.35001 0.0210637 0)
(7.35293 0.0218961 0)
(7.35584 0.0224895 0)
(7.35874 0.0228726 0)
(7.3616 0.0230726 0)
(7.36442 0.0231128 0)
(7.3672 0.0230125 0)
(7.36993 0.0227878 0)
(7.37262 0.0224521 0)
(7.37527 0.0220162 0)
(7.37788 0.0214883 0)
(7.38045 0.0208739 0)
(7.38299 0.0201767 0)
(7.38551 0.0193978 0)
(7.38799 0.0185366 0)
(7.39045 0.0175904 0)
(7.39289 0.0165547 0)
(7.39531 0.0154236 0)
(7.39769 0.0141899 0)
(7.40004 0.0128457 0)
(7.40234 0.0113835 0)
(7.40458 0.00979732 0)
(7.40674 0.00808489 0)
(7.4088 0.00624887 0)
(7.41073 0.00430378 0)
(7.33304 0.00160716 0)
(7.33348 0.00490125 0)
(7.3346 0.00812646 0)
(7.33638 0.0109877 0)
(7.33855 0.0134167 0)
(7.34096 0.0154702 0)
(7.34356 0.0171666 0)
(7.34628 0.0185212 0)
(7.34906 0.0195749 0)
(7.35187 0.0203688 0)
(7.35467 0.0209338 0)
(7.35747 0.0212962 0)
(7.36024 0.0214806 0)
(7.36298 0.0215084 0)
(7.36568 0.0213976 0)
(7.36834 0.0211633 0)
(7.37096 0.0208178 0)
(7.37354 0.0203714 0)
(7.37608 0.0198315 0)
(7.37858 0.0192036 0)
(7.38105 0.0184911 0)
(7.38349 0.0176955 0)
(7.3859 0.0168165 0)
(7.38828 0.0158522 0)
(7.39063 0.0147992 0)
(7.39294 0.0136533 0)
(7.39522 0.0124094 0)
(7.39746 0.0110624 0)
(7.39964 0.00960803 0)
(7.40175 0.0080439 0)
(7.40378 0.00637092 0)
(7.4057 0.00459418 0)
(7.40752 0.00272739 0)
(7.33304 0.0015039 0)
(7.3335 0.00452572 0)
(7.33456 0.00745117 0)
(7.33619 0.0100792 0)
(7.3382 0.0123354 0)
(7.34046 0.0142486 0)
(7.34291 0.015837 0)
(7.34549 0.0171138 0)
(7.34814 0.0181099 0)
(7.35083 0.0188597 0)
(7.35353 0.0193913 0)
(7.35623 0.0197286 0)
(7.35891 0.0198936 0)
(7.36156 0.0199061 0)
(7.36418 0.0197825 0)
(7.36677 0.0195369 0)
(7.36932 0.0191808 0)
(7.37183 0.0187235 0)
(7.3743 0.0181723 0)
(7.37674 0.0175322 0)
(7.37914 0.0168067 0)
(7.3815 0.0159975 0)
(7.38384 0.0151046 0)
(7.38614 0.0141271 0)
(7.3884 0.0130628 0)
(7.39062 0.0119088 0)
(7.3928 0.0106621 0)
(7.39493 0.00931982 0)
(7.397 0.00788021 0)
(7.39899 0.00634336 0)
(7.40091 0.00471226 0)
(7.40272 0.00299314 0)
(7.40443 0.00119864 0)
(7.33305 0.00139169 0)
(7.3335 0.00415673 0)
(7.33449 0.00681047 0)
(7.336 0.0092132 0)
(7.33787 0.0112961 0)
(7.33999 0.0130685 0)
(7.34229 0.0145452 0)
(7.34473 0.0157381 0)
(7.34726 0.0166706 0)
(7.34983 0.0173711 0)
(7.35242 0.0178644 0)
(7.35502 0.0181722 0)
(7.35761 0.0183142 0)
(7.36018 0.0183083 0)
(7.36272 0.0181696 0)
(7.36523 0.0179109 0)
(7.36771 0.0175431 0)
(7.37015 0.0170747 0)
(7.37255 0.0165125 0)
(7.37492 0.0158614 0)
(7.37725 0.0151249 0)
(7.37954 0.0143049 0)
(7.3818 0.0134021 0)
(7.38402 0.012416 0)
(7.3862 0.0113458 0)
(7.38833 0.0101897 0)
(7.39041 0.00894648 0)
(7.39244 0.00761505 0)
(7.3944 0.00619553 0)
(7.3963 0.00468976 0)
(7.3981 0.00310191 0)
(7.39982 0.00143865 0)
(7.40144 -0.000288589 0)
(7.33305 0.00127643 0)
(7.33348 0.00379646 0)
(7.33441 0.00619998 0)
(7.33581 0.00838646 0)
(7.33755 0.0102967 0)
(7.33954 0.011928 0)
(7.34171 0.0132905 0)
(7.34402 0.0143945 0)
(7.34642 0.0152581 0)
(7.34888 0.0159044 0)
(7.35137 0.0163551 0)
(7.35387 0.0166293 0)
(7.35636 0.0167448 0)
(7.35885 0.0167176 0)
(7.36131 0.0165614 0)
(7.36374 0.0162881 0)
(7.36614 0.0159076 0)
(7.36851 0.0154277 0)
(7.37084 0.014855 0)
(7.37314 0.0141942 0)
(7.37539 0.0134486 0)
(7.37761 0.0126206 0)
(7.37979 0.0117112 0)
(7.38193 0.0107208 0)
(7.38402 0.00964934 0)
(7.38607 0.00849645 0)
(7.38806 0.00726197 0)
(7.38999 0.00594634 0)
(7.39186 0.00455103 0)
(7.39365 0.00307898 0)
(7.39537 0.00153504 0)
(7.39699 -7.41594e-05 0)
(7.39852 -0.00173835 0)
(7.33304 0.00116147 0)
(7.33346 0.00344638 0)
(7.33434 0.00561629 0)
(7.33563 0.00759555 0)
(7.33725 0.00933488 0)
(7.33912 0.010825 0)
(7.34116 0.0120716 0)
(7.34335 0.0130829 0)
(7.34564 0.0138732 0)
(7.34798 0.014461 0)
(7.35037 0.0148649 0)
(7.35277 0.0151019 0)
(7.35517 0.0151877 0)
(7.35757 0.0151365 0)
(7.35995 0.0149608 0)
(7.3623 0.0146713 0)
(7.36463 0.0142771 0)
(7.36692 0.0137857 0)
(7.36918 0.0132029 0)
(7.3714 0.0125335 0)
(7.37358 0.0117808 0)
(7.37573 0.0109473 0)
(7.37783 0.0100346 0)
(7.37989 0.00904372 0)
(7.3819 0.0079753 0)
(7.38386 0.00682997 0)
(7.38576 0.00560864 0)
(7.3876 0.00431278 0)
(7.38937 0.00294481 0)
(7.39108 0.00150834 0)
(7.3927 8.46717e-06 0)
(7.39424 -0.00154839 0)
(7.39569 -0.00315309 0)
(7.33304 0.00104861 0)
(7.33343 0.00310733 0)
(7.33426 0.00505673 0)
(7.33547 0.00683729 0)
(7.33698 0.00840839 0)
(7.33873 0.00975768 0)
(7.34066 0.010887 0)
(7.34273 0.0118026 0)
(7.3449 0.0125157 0)
(7.34714 0.0130413 0)
(7.34943 0.0133948 0)
(7.35173 0.0135913 0)
(7.35405 0.0136445 0)
(7.35636 0.0135669 0)
(7.35865 0.0133698 0)
(7.36093 0.013063 0)
(7.36317 0.0126545 0)
(7.36539 0.0121514 0)
(7.36757 0.0115592 0)
(7.36972 0.0108824 0)
(7.37183 0.0101244 0)
(7.3739 0.00928796 0)
(7.37592 0.00837494 0)
(7.3779 0.00738693 0)
(7.37982 0.00632527 0)
(7.3817 0.00519133 0)
(7.38351 0.00398679 0)
(7.38527 0.00271388 0)
(7.38695 0.00137562 0)
(7.38857 -2.40026e-05 0)
(7.39011 -0.00147988 0)
(7.39157 -0.00298598 0)
(7.39294 -0.00453417 0)
(7.33304 0.00093875 0)
(7.33341 0.00277958 0)
(7.33418 0.00451914 0)
(7.33531 0.00610872 0)
(7.33673 0.00751473 0)
(7.33837 0.00872382 0)
(7.34019 0.00973502 0)
(7.34216 0.0105527 0)
(7.34422 0.0111856 0)
(7.34636 0.0116455 0)
(7.34855 0.0119457 0)
(7.35076 0.0120987 0)
(7.35298 0.0121166 0)
(7.35521 0.0120106 0)
(7.35742 0.0117905 0)
(7.35961 0.0114652 0)
(7.36178 0.011042 0)
(7.36393 0.0105273 0)
(7.36603 0.00992632 0)
(7.36811 0.00924341 0)
(7.37014 0.008482 0)
(7.37213 0.00764487 0)
(7.37407 0.00673431 0)
(7.37597 0.00575229 0)
(7.37782 0.00470066 0)
(7.37961 0.00358138 0)
(7.38134 0.00239669 0)
(7.38301 0.0011493 0)
(7.38461 -0.000157395 0)
(7.38615 -0.00151928 0)
(7.3876 -0.00293137 0)
(7.38899 -0.00438808 0)
(7.39029 -0.0058822 0)
(7.33304 0.000832262 0)
(7.33339 0.00246301 0)
(7.33411 0.00400165 0)
(7.33517 0.00540717 0)
(7.3365 0.00665145 0)
(7.33804 0.00772133 0)
(7.33977 0.00861395 0)
(7.34163 0.00933201 0)
(7.34359 0.0098821 0)
(7.34563 0.0102737 0)
(7.34772 0.0105176 0)
(7.34984 0.0106247 0)
(7.35198 0.0106052 0)
(7.35412 0.0104688 0)
(7.35625 0.0102244 0)
(7.35837 0.00987972 0)
(7.36046 0.00944145 0)
(7.36253 0.00891541 0)
(7.36456 0.00830648 0)
(7.36656 0.00761875 0)
(7.36851 0.00685566 0)
(7.37043 0.00602008 0)
(7.37229 0.00511453 0)
(7.37411 0.00414129 0)
(7.37588 0.0031026 0)
(7.37759 0.0020008 0)
(7.37924 0.000838518 0)
(7.38083 -0.000381223 0)
(7.38235 -0.00165488 0)
(7.38381 -0.00297834 0)
(7.38519 -0.00434687 0)
(7.3865 -0.00575533 0)
(7.38774 -0.00719734 0)
(7.33304 0.00072922 0)
(7.33336 0.0021572 0)
(7.33404 0.0035026 0)
(7.33504 0.00473017 0)
(7.33629 0.0058161 0)
(7.33774 0.00674801 0)
(7.33937 0.00752189 0)
(7.34114 0.00813904 0)
(7.34301 0.00860436 0)
(7.34496 0.00892532 0)
(7.34696 0.00911069 0)
(7.34899 0.00916955 0)
(7.35104 0.00911074 0)
(7.3531 0.00894258 0)
(7.35515 0.00867274 0)
(7.35719 0.00830807 0)
(7.35921 0.00785459 0)
(7.3612 0.00731756 0)
(7.36316 0.00670149 0)
(7.36508 0.00601025 0)
(7.36696 0.0052472 0)
(7.3688 0.00441525 0)
(7.37059 0.00351707 0)
(7.37233 0.00255513 0)
(7.37402 0.00153194 0)
(7.37565 0.000450087 0)
(7.37722 -0.000687581 0)
(7.37874 -0.00187789 0)
(7.38018 -0.00311729 0)
(7.38156 -0.00440175 0)
(7.38288 -0.00572687 0)
(7.38412 -0.00708796 0)
(7.38529 -0.00847936 0)
(7.33303 0.00062953 0)
(7.33334 0.00186155 0)
(7.33398 0.0030204 0)
(7.33491 0.00407546 0)
(7.33609 0.00500631 0)
(7.33747 0.00580162 0)
(7.33901 0.00645684 0)
(7.34069 0.00697218 0)
(7.34247 0.00735116 0)
(7.34433 0.00759958 0)
(7.34625 0.00772448 0)
(7.3482 0.00773336 0)
(7.35017 0.00763365 0)
(7.35215 0.00743245 0)
(7.35412 0.00713633 0)
(7.35608 0.00675128 0)
(7.35803 0.00628264 0)
(7.35994 0.0057351 0)
(7.36183 0.0051128 0)
(7.36367 0.00441937 0)
(7.36548 0.00365804 0)
(7.36725 0.0028317 0)
(7.36896 0.00194306 0)
(7.37063 0.000994732 0)
(7.37224 -1.06659e-05 0)
(7.3738 -0.0010704 0)
(7.3753 -0.00218153 0)
(7.37673 -0.00334086 0)
(7.37811 -0.0045449 0)
(7.37942 -0.00578985 0)
(7.38066 -0.0070716 0)
(7.38183 -0.00838592 0)
(7.38294 -0.00972779 0)
(7.33303 0.000533006 0)
(7.33332 0.00157534 0)
(7.33392 0.00255357 0)
(7.3348 0.00344089 0)
(7.33592 0.00421969 0)
(7.33722 0.00487983 0)
(7.33868 0.00541663 0)
(7.34028 0.00582955 0)
(7.34198 0.00612099 0)
(7.34376 0.00629535 0)
(7.34559 0.00635823 0)
(7.34746 0.00631568 0)
(7.34936 0.00617383 0)
(7.35126 0.00593864 0)
(7.35316 0.00561567 0)
(7.35505 0.00521006 0)
(7.35692 0.00472645 0)
(7.35876 0.00416902 0)
(7.36057 0.00354149 0)
(7.36235 0.00284722 0)
(7.36408 0.00208925 0)
(7.36577 0.0012704 0)
(7.36742 0.000393358 0)
(7.36901 -0.000539249 0)
(7.37055 -0.00152476 0)
(7.37203 -0.00256041 0)
(7.37346 -0.00364326 0)
(7.37483 -0.00477021 0)
(7.37613 -0.00593788 0)
(7.37737 -0.00714273 0)
(7.37855 -0.008381 0)
(7.37966 -0.00964887 0)
(7.38071 -0.0109419 0)
(7.33303 0.000439418 0)
(7.3333 0.00129781 0)
(7.33387 0.00210064 0)
(7.3347 0.00282439 0)
(7.33576 0.00345387 0)
(7.33699 0.0039802 0)
(7.33838 0.00439892 0)
(7.33991 0.00470899 0)
(7.34153 0.00491197 0)
(7.34323 0.00501113 0)
(7.34499 0.00501075 0)
(7.34679 0.00491565 0)
(7.34861 0.00473076 0)
(7.35043 0.00446094 0)
(7.35226 0.0041108 0)
(7.35408 0.00368467 0)
(7.35588 0.0031865 0)
(7.35765 0.00261992 0)
(7.35939 0.00198825 0)
(7.3611 0.00129451 0)
(7.36276 0.000541532 0)
(7.36438 -0.000268005 0)
(7.36596 -0.00113151 0)
(7.36748 -0.00204642 0)
(7.36895 -0.0030101 0)
(7.37036 -0.00401985 0)
(7.37172 -0.00507283 0)
(7.37302 -0.00616605 0)
(7.37426 -0.00729637 0)
(7.37543 -0.00846048 0)
(7.37654 -0.00965498 0)
(7.37759 -0.0108764 0)
(7.37858 -0.0121209 0)
(7.33303 0.000348518 0)
(7.33329 0.00102817 0)
(7.33382 0.0016602 0)
(7.33461 0.00222397 0)
(7.33561 0.00270647 0)
(7.33679 0.00310017 0)
(7.33811 0.00340111 0)
(7.33957 0.00360805 0)
(7.34112 0.00372189 0)
(7.34275 0.00374494 0)
(7.34444 0.00368042 0)
(7.34617 0.00353197 0)
(7.34792 0.00330344 0)
(7.34968 0.00299865 0)
(7.35144 0.00262131 0)
(7.35319 0.00217492 0)
(7.35492 0.00166278 0)
(7.35662 0.00108796 0)
(7.3583 0.000453325 0)
(7.35993 -0.00023844 0)
(7.36153 -0.000984772 0)
(7.36308 -0.0017832 0)
(7.36459 -0.00263128 0)
(7.36604 -0.00352656 0)
(7.36745 -0.00446654 0)
(7.36879 -0.00544865 0)
(7.37008 -0.00647018 0)
(7.37132 -0.00752834 0)
(7.37249 -0.00862021 0)
(7.3736 -0.0097428 0)
(7.37465 -0.010893 0)
(7.37564 -0.0120678 0)
(7.37657 -0.0132637 0)
(7.33303 0.000260067 0)
(7.33327 0.000765674 0)
(7.33378 0.00123091 0)
(7.33453 0.00163766 0)
(7.33548 0.00197501 0)
(7.3366 0.00223698 0)
(7.33787 0.00242034 0)
(7.33926 0.00252388 0)
(7.34075 0.00254802 0)
(7.34232 0.00249433 0)
(7.34394 0.00236504 0)
(7.34561 0.00216278 0)
(7.34729 0.00189033 0)
(7.34899 0.00155054 0)
(7.35068 0.00114622 0)
(7.35237 0.000680101 0)
(7.35403 0.000154792 0)
(7.35567 -0.000427209 0)
(7.35728 -0.00106351 0)
(7.35886 -0.0017518 0)
(7.36039 -0.00248983 0)
(7.36188 -0.00327538 0)
(7.36332 -0.0041062 0)
(7.36471 -0.00498004 0)
(7.36604 -0.00589457 0)
(7.36733 -0.00684737 0)
(7.36855 -0.00783596 0)
(7.36972 -0.00885776 0)
(7.37083 -0.00991011 0)
(7.37189 -0.0109903 0)
(7.37288 -0.0120956 0)
(7.37381 -0.0132232 0)
(7.37469 -0.0143702 0)
(7.33303 0.000173859 0)
(7.33326 0.000509658 0)
(7.33374 0.000811511 0)
(7.33445 0.00106351 0)
(7.33536 0.00125693 0)
(7.33643 0.00138761 0)
(7.33765 0.00145335 0)
(7.33899 0.00145316 0)
(7.34042 0.00138716 0)
(7.34193 0.00125626 0)
(7.3435 0.00106186 0)
(7.3451 0.000805588 0)
(7.34673 0.000489252 0)
(7.34837 0.000114743 0)
(7.35 -0.000316005 0)
(7.35163 -0.000801049 0)
(7.35323 -0.00133846 0)
(7.35481 -0.00192633 0)
(7.35636 -0.00256277 0)
(7.35787 -0.00324587 0)
(7.35934 -0.00397374 0)
(7.36077 -0.00474444 0)
(7.36215 -0.00555601 0)
(7.36347 -0.00640639 0)
(7.36475 -0.0072935 0)
(7.36597 -0.00821513 0)
(7.36714 -0.00916904 0)
(7.36825 -0.0101529 0)
(7.3693 -0.0111643 0)
(7.37029 -0.0122009 0)
(7.37123 -0.0132601 0)
(7.37211 -0.0143397 0)
(7.37293 -0.0154369 0)
(7.33302 8.97667e-05 0)
(7.33324 0.000259656 0)
(7.3337 0.000400945 0)
(7.33438 0.000499627 0)
(7.33525 0.000549499 0)
(7.33628 0.000548717 0)
(7.33746 0.000496415 0)
(7.33875 0.000391991 0)
(7.34013 0.000235375 0)
(7.34159 2.69653e-05 0)
(7.34311 -0.000232643 0)
(7.34466 -0.000542768 0)
(7.34623 -0.000902614 0)
(7.34781 -0.00131125 0)
(7.34939 -0.00176764 0)
(7.35096 -0.00227063 0)
(7.35251 -0.00281902 0)
(7.35404 -0.00341148 0)
(7.35553 -0.00404665 0)
(7.35698 -0.00472307 0)
(7.35839 -0.00543921 0)
(7.35976 -0.00619347 0)
(7.36108 -0.00698415 0)
(7.36235 -0.00780949 0)
(7.36357 -0.00866763 0)
(7.36473 -0.00955664 0)
(7.36584 -0.0104745 0)
(7.36689 -0.0114192 0)
(7.36789 -0.0123885 0)
(7.36883 -0.0133804 0)
(7.36971 -0.0143927 0)
(7.37053 -0.0154233 0)
(7.37131 -0.0164699 0)
(7.33302 7.80487e-06 0)
(7.33323 1.55587e-05 0)
(7.33367 -1.51549e-06 0)
(7.33432 -5.57984e-05 0)
(7.33515 -0.000150231 0)
(7.33615 -0.000283508 0)
(7.33728 -0.000454805 0)
(7.33854 -0.00066425 0)
(7.33988 -0.000912022 0)
(7.3413 -0.00119818 0)
(7.34277 -0.00152289 0)
(7.34428 -0.0018864 0)
(7.3458 -0.00228891 0)
(7.34734 -0.00273045 0)
(7.34887 -0.00321088 0)
(7.35038 -0.00372989 0)
(7.35188 -0.00428703 0)
(7.35335 -0.00488162 0)
(7.35479 -0.00551288 0)
(7.35619 -0.00617983 0)
(7.35755 -0.00688138 0)
(7.35886 -0.0076163 0)
(7.36012 -0.00838324 0)
(7.36134 -0.00918072 0)
(7.3625 -0.0100072 0)
(7.36361 -0.010861 0)
(7.36466 -0.0117404 0)
(7.36566 -0.0126435 0)
(7.3666 -0.0135687 0)
(7.36749 -0.0145139 0)
(7.36832 -0.0154775 0)
(7.3691 -0.0164575 0)
(7.36982 -0.0174521 0)
(7.33302 -7.17273e-05 0)
(7.33322 -0.000222056 0)
(7.33363 -0.000395992 0)
(7.33425 -0.000604427 0)
(7.33505 -0.000845519 0)
(7.33602 -0.00111353 0)
(7.33713 -0.00140556 0)
(7.33835 -0.00172119 0)
(7.33966 -0.00206063 0)
(7.34105 -0.00242451 0)
(7.34248 -0.002814 0)
(7.34395 -0.00323051 0)
(7.34544 -0.00367538 0)
(7.34693 -0.00414962 0)
(7.34842 -0.00465403 0)
(7.34989 -0.00518908 0)
(7.35134 -0.005755 0)
(7.35277 -0.00635176 0)
(7.35416 -0.00697905 0)
(7.35551 -0.00763639 0)
(7.35681 -0.00832309 0)
(7.35807 -0.00903829 0)
(7.35929 -0.00978095 0)
(7.36045 -0.01055 0)
(7.36156 -0.011344 0)
(7.36262 -0.0121618 0)
(7.36362 -0.0130017 0)
(7.36457 -0.0138625 0)
(7.36546 -0.0147424 0)
(7.3663 -0.0156399 0)
(7.36708 -0.0165534 0)
(7.36781 -0.0174814 0)
(7.36848 -0.0184221 0)
(7.33302 -0.000147969 0)
(7.3332 -0.000451298 0)
(7.33359 -0.000781553 0)
(7.33418 -0.0011477 0)
(7.33496 -0.00153997 0)
(7.3359 -0.00194644 0)
(7.33699 -0.00236216 0)
(7.33819 -0.00278622 0)
(7.33948 -0.00321839 0)
(7.34084 -0.00365939 0)
(7.34225 -0.00411125 0)
(7.34369 -0.00457667 0)
(7.34514 -0.00505839 0)
(7.3466 -0.0055588 0)
(7.34805 -0.00607993 0)
(7.34948 -0.00662343 0)
(7.35089 -0.00719047 0)
(7.35227 -0.00778183 0)
(7.35362 -0.00839791 0)
(7.35492 -0.00903879 0)
(7.35619 -0.00970424 0)
(7.3574 -0.0103938 0)
(7.35857 -0.0111069 0)
(7.35968 -0.0118425 0)
(7.36074 -0.0125998 0)
(7.36175 -0.0133777 0)
(7.36271 -0.0141748 0)
(7.36361 -0.0149901 0)
(7.36445 -0.0158222 0)
(7.36524 -0.0166697 0)
(7.36598 -0.0175314 0)
(7.36666 -0.0184061 0)
(7.3673 -0.0192924 0)
(7.33302 -0.000218918 0)
(7.33318 -0.000667655 0)
(7.33353 -0.00115533 0)
(7.33409 -0.00168707 0)
(7.33485 -0.00223855 0)
(7.33578 -0.00278843 0)
(7.33685 -0.0033305 0)
(7.33804 -0.00386516 0)
(7.33933 -0.00439337 0)
(7.34067 -0.00491698 0)
(7.34207 -0.00543911 0)
(7.34349 -0.0059633 0)
(7.34492 -0.00649285 0)
(7.34635 -0.00703077 0)
(7.34777 -0.00757971 0)
(7.34918 -0.00814192 0)
(7.35055 -0.00871922 0)
(7.35189 -0.00931298 0)
(7.3532 -0.00992422 0)
(7.35446 -0.0105536 0)
(7.35568 -0.0112013 0)
(7.35685 -0.0118676 0)
(7.35798 -0.0125521 0)
(7.35905 -0.0132546 0)
(7.36006 -0.0139743 0)
(7.36103 -0.0147106 0)
(7.36194 -0.0154628 0)
(7.36279 -0.0162297 0)
(7.36359 -0.0170106 0)
(7.36434 -0.0178042 0)
(7.36503 -0.0186096 0)
(7.36567 -0.0194256 0)
(7.36625 -0.0202508 0)
(7.33301 -0.000280193 0)
(7.33314 -0.000861739 0)
(7.33344 -0.0015105 0)
(7.33396 -0.00222196 0)
(7.3347 -0.00294792 0)
(7.33564 -0.00365371 0)
(7.33671 -0.00432788 0)
(7.3379 -0.00496723 0)
(7.33918 -0.00557233 0)
(7.34052 -0.00614863 0)
(7.34191 -0.00670446 0)
(7.34331 -0.0072479 0)
(7.34473 -0.00778579 0)
(7.34614 -0.0083238 0)
(7.34754 -0.00886657 0)
(7.34892 -0.00941775 0)
(7.35026 -0.00998005 0)
(7.35158 -0.0105554 0)
(7.35285 -0.0111452 0)
(7.35408 -0.0117503 0)
(7.35526 -0.012371 0)
(7.3564 -0.0130076 0)
(7.35748 -0.0136599 0)
(7.35851 -0.0143275 0)
(7.35949 -0.0150099 0)
(7.36041 -0.0157066 0)
(7.36128 -0.0164166 0)
(7.3621 -0.0171394 0)
(7.36286 -0.017874 0)
(7.36357 -0.0186195 0)
(7.36422 -0.0193753 0)
(7.36482 -0.0201405 0)
(7.36537 -0.0209145 0)
(7.33301 -0.00032142 0)
(7.33308 -0.00101583 0)
(7.3333 -0.00183993 0)
(7.33376 -0.00274884 0)
(7.33449 -0.00365609 0)
(7.33544 -0.00453336 0)
(7.33654 -0.00538277 0)
(7.33777 -0.00619824 0)
(7.33908 -0.00696998 0)
(7.34044 -0.00769586 0)
(7.34184 -0.00838033 0)
(7.34325 -0.0090299 0)
(7.34466 -0.00965128 0)
(7.34606 -0.0102512 0)
(7.34743 -0.0108361 0)
(7.34878 -0.0114115 0)
(7.3501 -0.0119823 0)
(7.35138 -0.0125525 0)
(7.35261 -0.0131253 0)
(7.3538 -0.0137032 0)
(7.35495 -0.014288 0)
(7.35604 -0.0148811 0)
(7.35708 -0.0154835 0)
(7.35807 -0.0160958 0)
(7.35901 -0.0167182 0)
(7.35989 -0.0173507 0)
(7.36072 -0.0179932 0)
(7.36149 -0.0186454 0)
(7.36221 -0.0193069 0)
(7.36288 -0.019977 0)
(7.36349 -0.020655 0)
(7.36405 -0.0213402 0)
(7.36456 -0.0220313 0)
(7.33299 -0.000316481 0)
(7.33294 -0.00108123 0)
(7.33303 -0.00213987 0)
(7.33343 -0.00332596 0)
(7.33416 -0.00441774 0)
(7.3351 -0.00535646 0)
(7.33618 -0.0061738 0)
(7.3374 -0.00690345 0)
(7.33872 -0.00756907 0)
(7.3401 -0.00819099 0)
(7.34152 -0.0087854 0)
(7.34295 -0.00936332 0)
(7.34437 -0.00993219 0)
(7.34578 -0.0104973 0)
(7.34717 -0.0110623 0)
(7.34852 -0.0116298 0)
(7.34984 -0.0122014 0)
(7.35111 -0.0127785 0)
(7.35233 -0.0133617 0)
(7.35351 -0.0139515 0)
(7.35464 -0.0145484 0)
(7.35571 -0.0151524 0)
(7.35673 -0.0157636 0)
(7.3577 -0.0163818 0)
(7.35861 -0.0170069 0)
(7.35946 -0.0176386 0)
(7.36027 -0.0182767 0)
(7.36101 -0.0189207 0)
(7.36171 -0.0195704 0)
(7.36235 -0.0202253 0)
(7.36294 -0.0208853 0)
(7.36348 -0.0215501 0)
(7.36397 -0.0222198 0)
(7.33295 -0.000221271 0)
(7.33262 -0.000948679 0)
(7.33242 -0.00222722 0)
(7.3328 -0.00386225 0)
(7.3337 -0.00561294 0)
(7.33484 -0.0073296 0)
(7.33608 -0.00890054 0)
(7.33739 -0.0102639 0)
(7.33875 -0.0114183 0)
(7.34014 -0.0123932 0)
(7.34152 -0.0132214 0)
(7.34291 -0.0139319 0)
(7.34428 -0.0145511 0)
(7.34563 -0.0151023 0)
(7.34695 -0.0156044 0)
(7.34825 -0.0160725 0)
(7.34951 -0.0165183 0)
(7.35074 -0.0169507 0)
(7.35192 -0.0173767 0)
(7.35306 -0.0178014 0)
(7.35415 -0.0182283 0)
(7.3552 -0.0186602 0)
(7.3562 -0.019099 0)
(7.35715 -0.0195458 0)
(7.35805 -0.0200013 0)
(7.35889 -0.0204659 0)
(7.35969 -0.0209397 0)
(7.36043 -0.0214225 0)
(7.36113 -0.021914 0)
(7.36177 -0.0224138 0)
(7.36235 -0.0229212 0)
(7.36289 -0.0234354 0)
(7.36337 -0.0239554 0)
(7.3329 0.000110621 0)
(7.33207 -0.000915885 0)
(7.33125 -0.00223945 0)
(7.3311 -0.00292245 0)
(7.33161 -0.00321753 0)
(7.33256 -0.00358532 0)
(7.33384 -0.00413769 0)
(7.33534 -0.00481303 0)
(7.33694 -0.00556484 0)
(7.33856 -0.00637396 0)
(7.34019 -0.00722154 0)
(7.34179 -0.00808716 0)
(7.34336 -0.00895524 0)
(7.34488 -0.00981589 0)
(7.34637 -0.0106629 0)
(7.3478 -0.0114925 0)
(7.34919 -0.0123027 0)
(7.35053 -0.0130928 0)
(7.35182 -0.0138633 0)
(7.35306 -0.0146149 0)
(7.35425 -0.0153489 0)
(7.35539 -0.0160664 0)
(7.35648 -0.0167688 0)
(7.35752 -0.0174576 0)
(7.35851 -0.0181338 0)
(7.35945 -0.0187987 0)
(7.36033 -0.0194533 0)
(7.36116 -0.0200985 0)
(7.36194 -0.0207353 0)
(7.36267 -0.0213645 0)
(7.36335 -0.0219867 0)
(7.36398 -0.0226027 0)
(7.36458 -0.0232131 0)
(7.33241 0.0020637 0)
(7.33046 -0.000604993 0)
(7.33031 -0.00732555 0)
(7.3314 -0.0137681 0)
(7.33239 -0.0184753 0)
(7.33313 -0.0216493 0)
(7.33396 -0.0237076 0)
(7.33501 -0.0249558 0)
(7.33623 -0.0256322 0)
(7.33757 -0.0259264 0)
(7.33901 -0.025978 0)
(7.34054 -0.0258845 0)
(7.34213 -0.0257131 0)
(7.34377 -0.0255092 0)
(7.34543 -0.0253025 0)
(7.3471 -0.0251117 0)
(7.34876 -0.0249484 0)
(7.35041 -0.024819 0)
(7.35204 -0.0247267 0)
(7.35363 -0.0246725 0)
(7.35518 -0.024656 0)
(7.35669 -0.0246756 0)
(7.35815 -0.0247297 0)
(7.35956 -0.024816 0)
(7.36091 -0.0249323 0)
(7.36221 -0.0250764 0)
(7.36344 -0.0252459 0)
(7.36462 -0.0254388 0)
(7.36573 -0.0256531 0)
(7.36678 -0.025887 0)
(7.36777 -0.026139 0)
(7.3687 -0.0264078 0)
(7.36955 -0.0266926 0)
(7.32878 0.00627636 0)
(7.31725 0.0179403 0)
(7.31241 0.0251369 0)
(7.31394 0.0271758 0)
(7.31778 0.0258501 0)
(7.32195 0.023017 0)
(7.32616 0.0196334 0)
(7.33037 0.0160565 0)
(7.3345 0.0124687 0)
(7.33849 0.00900852 0)
(7.34233 0.00576065 0)
(7.34602 0.00275726 0)
(7.34958 1.09899e-06 0)
(7.35301 -0.00251707 0)
(7.3563 -0.00481205 0)
(7.35946 -0.00690187 0)
(7.3625 -0.00880584 0)
(7.36542 -0.0105429 0)
(7.36822 -0.012131 0)
(7.3709 -0.0135863 0)
(7.37346 -0.0149237 0)
(7.37591 -0.0161564 0)
(7.37824 -0.0172963 0)
(7.38047 -0.0183536 0)
(7.38258 -0.0193377 0)
(7.38459 -0.0202566 0)
(7.3865 -0.0211173 0)
(7.3883 -0.0219262 0)
(7.39001 -0.0226886 0)
(7.39162 -0.0234093 0)
(7.39313 -0.0240921 0)
(7.39456 -0.0247398 0)
(7.3959 -0.0253562 0)
(7.33379 -0.0332989 0)
(7.333 -0.0723085 0)
(7.32812 -0.0856847 0)
(7.32656 -0.0871257 0)
(7.33013 -0.0847423 0)
(7.33736 -0.0807876 0)
(7.34633 -0.0759634 0)
(7.35583 -0.0709258 0)
(7.36533 -0.0661314 0)
(7.37457 -0.0617525 0)
(7.38339 -0.0578178 0)
(7.39169 -0.0543178 0)
(7.39943 -0.0512304 0)
(7.40661 -0.0485221 0)
(7.41325 -0.0461539 0)
(7.41936 -0.0440873 0)
(7.42497 -0.0422865 0)
(7.43012 -0.0407197 0)
(7.43483 -0.0393581 0)
(7.43913 -0.0381767 0)
(7.44304 -0.0371533 0)
(7.4466 -0.0362685 0)
(7.44982 -0.0355058 0)
(7.45272 -0.0348503 0)
(7.45533 -0.0342895 0)
(7.45766 -0.0338122 0)
(7.45974 -0.0334087 0)
(7.46157 -0.0330706 0)
(7.46318 -0.0327905 0)