/*--------------------------------*- C++ -*----------------------------------*\
| =========                 |                                                 |
| \\      /  F ield         | OpenFOAM: The Open Source CFD Toolbox           |
|  \\    /   O peration     | Version:  4.1                                   |
|   \\  /    A nd           | Web:      www.OpenFOAM.org                      |
|    \\/     M anipulation  |                                                 |
\*---------------------------------------------------------------------------*/
FoamFile
{
    version     2.0;
    format      ascii;
    class       volScalarField;
    location    "800";
    object      p;
}
// * * * * * * * * * * * * * * * * * * * * * * * * * * * * * * * * * * * * * //

dimensions      [0 2 -2 0 0 0 0];

internalField   nonuniform List<scalar> 
26785
(
-95.026
-102.44
-107.808
-112.699
-117.044
-120.287
-121.707
-120.99
-118.347
-113.922
-108.237
-101.963
-95.5961
-89.4525
-83.7618
-78.6708
-74.2266
-70.4047
-67.1209
-64.2551
-61.697
-59.383
-57.3045
-55.515
-54.0772
-52.9598
-52.4248
-52.6115
-54.24
-58.6351
-65.9355
-75.3002
-86.0416
-97.428
-108.808
-119.705
-129.875
-139.357
-148.458
-157.662
-167.467
-178.152
-189.565
-201.043
-211.604
-220.346
-226.736
-230.667
-232.329
-232.039
-230.137
-226.927
-222.635
-217.377
-211.163
-203.946
-195.681
-186.357
-175.932
-164.31
-151.484
-137.754
-123.752
-110.194
-97.6268
-86.3399
-76.4235
-67.8519
-60.5486
-54.419
-49.358
-45.2434
-41.9092
-39.152
-36.7098
-34.3337
-31.8753
-29.2952
-26.6344
-24.0001
-21.5073
-19.2254
-17.1796
-15.3472
-13.6901
-12.1724
-10.6329
-8.88625
-6.97512
-5.1835
-3.78718
-2.8071
-2.11775
-1.677
-1.5232
-1.68347
-2.11854
-2.69
-3.08612
-1.20128
-95.1338
-102.457
-107.818
-112.713
-117.059
-120.31
-121.737
-121.023
-118.384
-113.957
-108.266
-101.987
-95.6142
-89.4652
-83.7695
-78.6746
-74.2279
-70.4054
-67.1227
-64.2593
-61.7041
-59.3925
-57.3161
-55.5287
-54.0933
-52.9697
-52.4188
-52.5669
-54.1586
-58.5782
-65.9526
-75.3741
-86.1485
-97.5489
-108.931
-119.821
-129.976
-139.438
-148.516
-157.703
-167.505
-178.207
-189.656
-201.176
-211.771
-220.527
-226.913
-230.827
-232.466
-232.155
-230.234
-227.011
-222.714
-217.458
-211.253
-204.045
-195.787
-186.477
-176.076
-164.484
-151.677
-137.942
-123.912
-110.319
-97.7169
-86.4019
-76.4632
-67.8734
-60.5549
-54.4129
-49.3439
-45.2288
-41.9027
-39.1639
-36.7409
-34.3772
-31.9221
-29.3346
-26.6563
-24.002
-21.495
-19.206
-17.1583
-15.3267
-13.6757
-12.1788
-10.6574
-8.90121
-6.95692
-5.13825
-3.74507
-2.78381
-2.10834
-1.68052
-1.547
-1.73719
-2.20512
-2.87554
-3.28328
-1.5082
-95.2803
-102.472
-107.831
-112.732
-117.082
-120.349
-121.796
-121.092
-118.461
-114.031
-108.328
-102.037
-95.6532
-89.4928
-83.7867
-78.6839
-74.2323
-70.4089
-67.1288
-64.2707
-61.7214
-59.4147
-57.3423
-55.5589
-54.1278
-52.9925
-52.4097
-52.4897
-54.0201
-58.5306
-66.0485
-75.5679
-86.3912
-97.8054
-109.182
-120.053
-130.178
-139.598
-148.631
-157.784
-167.58
-178.315
-189.834
-201.436
-212.095
-220.877
-227.252
-231.133
-232.73
-232.377
-230.42
-227.173
-222.866
-217.615
-211.426
-204.237
-196.001
-186.725
-176.379
-164.847
-152.074
-138.325
-124.239
-110.572
-97.9025
-86.5317
-76.5486
-67.9222
-60.5726
-54.4055
-49.32
-45.2031
-41.8927
-39.1902
-36.8053
-34.4656
-32.0171
-29.4158
-26.7044
-24.0113
-21.4766
-19.1727
-17.1209
-15.2898
-13.6496
-12.1943
-10.7094
-8.93519
-6.92751
-5.05993
-3.68062
-2.76519
-2.12053
-1.71066
-1.60115
-1.83256
-2.35599
-3.23502
-3.72085
-2.04902
-95.4585
-102.501
-107.854
-112.76
-117.113
-120.403
-121.88
-121.193
-118.575
-114.14
-108.421
-102.113
-95.7119
-89.5349
-83.8136
-78.6992
-74.2408
-70.4165
-67.1407
-64.2907
-61.7507
-59.4513
-57.3855
-55.6088
-54.1852
-53.0342
-52.4095
-52.3938
-53.8565
-58.555
-66.2552
-75.8835
-86.751
-98.1738
-109.541
-120.387
-130.469
-139.83
-148.8
-157.905
-167.692
-178.474
-190.091
-201.808
-212.555
-221.373
-227.732
-231.563
-233.1
-232.687
-230.68
-227.398
-223.076
-217.833
-211.668
-204.506
-196.291
-187.041
-176.746
-165.284
-152.567
-138.823
-124.686
-110.938
-98.1819
-86.7348
-76.6869
-68.0052
-60.6078
-54.4014
-49.2896
-45.1687
-41.8802
-39.2317
-36.9029
-34.5981
-32.1598
-29.54
-26.7813
-24.0309
-21.4543
-19.1272
-17.0679
-15.2361
-13.6117
-12.2228
-10.7962
-8.99181
-6.88104
-4.93434
-3.57399
-2.72218
-2.11561
-1.73041
-1.65909
-1.94274
-2.51996
-3.68194
-4.36099
-2.66161
-95.6632
-102.53
-107.876
-112.786
-117.143
-120.463
-121.984
-121.321
-118.723
-114.283
-108.543
-102.212
-95.7894
-89.5908
-83.8499
-78.7208
-74.2541
-70.4292
-67.1596
-64.321
-61.7935
-59.5044
-57.4483
-55.6813
-54.2699
-53.1036
-52.4386
-52.2639
-53.7174
-58.6947
-66.5778
-76.306
-87.2123
-98.6426
-109.999
-120.813
-130.84
-140.128
-149.018
-158.062
-167.838
-178.679
-190.419
-202.281
-213.137
-221.997
-228.332
-232.099
-233.559
-233.072
-231.002
-227.674
-223.334
-218.098
-211.966
-204.841
-196.655
-187.436
-177.189
-165.793
-153.131
-139.397
-125.215
-111.385
-98.5372
-87.0025
-76.8759
-68.1236
-60.6632
-54.404
-49.2556
-45.1276
-41.8659
-39.2894
-37.0343
-34.7746
-32.3503
-29.7083
-26.8897
-24.0632
-21.4284
-19.0676
-16.9963
-15.1618
-13.5579
-12.2665
-10.9259
-9.07474
-6.8105
-4.75184
-3.42762
-2.66938
-2.10765
-1.74761
-1.72653
-2.06674
-2.6751
-4.11634
-5.1309
-3.2506
-95.9386
-102.566
-107.898
-112.808
-117.168
-120.523
-122.097
-121.468
-118.899
-114.455
-108.691
-102.332
-95.8844
-89.66
-83.8958
-78.7495
-74.2731
-70.4481
-67.1865
-64.3623
-61.8509
-59.5751
-57.5322
-55.7789
-54.3864
-53.2085
-52.5202
-52.0927
-53.6515
-58.9582
-67.0038
-76.8186
-87.76
-99.1971
-110.54
-121.318
-131.283
-140.484
-149.28
-158.253
-168.017
-178.928
-190.812
-202.844
-213.827
-222.731
-229.034
-232.725
-234.094
-233.52
-231.375
-227.993
-223.627
-218.399
-212.304
-205.225
-197.073
-187.884
-177.678
-166.334
-153.719
-139.998
-125.781
-111.882
-98.9477
-87.3236
-77.1105
-68.2765
-60.7402
-54.4153
-49.2197
-45.0803
-41.8489
-39.3636
-37.1995
-34.9939
-32.5871
-29.9218
-27.0351
-24.1158
-21.4032
-18.9929
-16.8985
-15.0557
-13.4813
-12.3302
-11.1096
-9.18757
-6.71272
-4.51263
-3.25184
-2.62023
-2.11263
-1.77039
-1.78593
-2.18211
-2.80987
-4.62655
-6.07481
-3.73366
-96.2457
-102.599
-107.914
-112.823
-117.186
-120.58
-122.217
-121.627
-119.093
-114.647
-108.857
-102.469
-95.9929
-89.74
-83.9499
-78.7845
-74.2976
-70.4728
-67.2209
-64.4143
-61.9227
-59.664
-57.6384
-55.9038
-54.5382
-53.3615
-52.6913
-51.9587
-53.6708
-59.3277
-67.5159
-77.4076
-88.382
-99.825
-111.153
-121.892
-131.787
-140.893
-149.585
-158.479
-168.229
-179.219
-191.266
-203.487
-214.61
-223.561
-229.825
-233.426
-234.692
-234.02
-231.79
-228.347
-223.951
-218.728
-212.671
-205.643
-197.533
-188.378
-178.206
-166.9
-154.316
-140.601
-126.358
-112.404
-99.3949
-87.6861
-77.3844
-68.4613
-60.8388
-54.4365
-49.1826
-45.0269
-41.8277
-39.4542
-37.3992
-35.2569
-32.8722
-30.1851
-27.2263
-24.204
-21.3915
-18.9104
-16.7778
-14.9155
-13.3816
-12.4237
-11.3783
-9.37077
-6.63351
-4.27045
-3.08816
-2.5979
-2.15433
-1.83071
-1.85935
-2.22315
-2.81582
-5.18511
-6.92379
-4.07482
-96.5378
-102.631
-107.928
-112.831
-117.196
-120.632
-122.34
-121.799
-119.308
-114.86
-109.04
-102.62
-96.1131
-89.8293
-84.0112
-78.8253
-74.3273
-70.5029
-67.262
-64.4758
-62.0079
-59.7705
-57.7672
-56.0576
-54.7267
-53.5764
-52.9359
-51.9349
-53.81
-59.7798
-68.0984
-78.0614
-89.0661
-100.513
-111.824
-122.522
-132.344
-141.347
-149.928
-158.739
-168.476
-179.552
-191.775
-204.202
-215.474
-224.472
-230.687
-234.187
-235.341
-234.563
-232.243
-228.731
-224.298
-219.08
-213.059
-206.082
-198.02
-188.902
-178.756
-167.473
-154.902
-141.187
-126.926
-112.932
-99.8635
-88.0793
-77.691
-68.6752
-60.9585
-54.4685
-49.1451
-44.9663
-41.7989
-39.5602
-37.6334
-35.5633
-33.2018
-30.4903
-27.4554
-24.3292
-21.4006
-18.8289
-16.6452
-14.7507
-13.265
-12.5309
-11.7301
-9.67488
-6.63431
-4.10758
-2.98842
-2.5807
-2.15429
-1.868
-1.94377
-2.16234
-2.67574
-4.85333
-6.78467
-4.59201
-96.8227
-102.667
-107.939
-112.827
-117.193
-120.674
-122.461
-121.977
-119.536
-115.089
-109.237
-102.782
-96.2431
-89.9263
-84.0785
-78.8713
-74.3617
-70.5379
-67.3089
-64.5456
-62.1052
-59.8937
-57.9185
-56.24
-54.9545
-53.854
-53.2329
-52.0853
-54.129
-60.3085
-68.743
-78.7706
-89.8008
-101.249
-112.542
-123.198
-132.945
-141.842
-150.309
-159.035
-168.761
-179.927
-192.334
-204.976
-216.405
-225.446
-231.605
-234.995
-236.03
-235.142
-232.725
-229.14
-224.666
-219.449
-213.459
-206.533
-198.524
-189.443
-179.318
-168.04
-155.466
-141.741
-127.469
-113.452
-100.342
-88.4942
-78.0248
-68.9155
-61.099
-54.5119
-49.1071
-44.8977
-41.7594
-39.6792
-37.8979
-35.9041
-33.5586
-30.8124
-27.6965
-24.4701
-21.4257
-18.7476
-16.489
-14.5591
-13.151
-12.6996
-12.1425
-10.0322
-6.62408
-3.8769
-2.85149
-2.56353
-2.08079
-1.78265
-1.99265
-2.31378
-2.85051
-4.49621
-5.65565
-3.99857
-97.1013
-102.696
-107.941
-112.81
-117.177
-120.704
-122.576
-122.159
-119.775
-115.331
-109.446
-102.954
-96.3809
-90.0295
-84.1506
-78.9214
-74.4004
-70.5776
-67.3612
-64.6229
-62.2136
-60.0326
-58.0911
-56.4495
-55.2284
-54.1812
-53.5878
-52.4737
-54.6513
-60.9187
-69.4436
-79.5256
-90.5744
-102.02
-113.295
-123.91
-133.583
-142.375
-150.727
-159.368
-169.085
-180.342
-192.935
-205.799
-217.386
-226.468
-232.563
-235.836
-236.747
-235.747
-233.232
-229.57
-225.051
-219.829
-213.869
-206.991
-199.035
-189.992
-179.879
-168.592
-155.996
-142.255
-127.979
-113.957
-100.822
-88.9246
-78.3812
-69.1799
-61.2602
-54.5681
-49.0704
-44.8212
-41.707
-39.8114
-38.2025
-36.3064
-33.9752
-31.1757
-27.9634
-24.6352
-21.4992
-18.6826
-16.307
-14.3083
-12.9475
-12.9155
-12.7667
-10.6534
-6.72151
-3.59977
-2.60314
-2.5627
-2.24921
-1.9699
-2.09632
-2.38488
-2.96934
-4.24396
-4.93457
-3.81513
-97.4095
-102.726
-107.936
-112.779
-117.145
-120.719
-122.679
-122.337
-120.017
-115.579
-109.662
-103.133
-96.525
-90.1376
-84.2264
-78.975
-74.4429
-70.6216
-67.4184
-64.7069
-62.3316
-60.1857
-58.2819
-56.6884
-55.5351
-54.5532
-53.9791
-53.0285
-55.3119
-61.6018
-70.1928
-80.3162
-91.3755
-102.815
-114.074
-124.65
-134.252
-142.942
-151.182
-159.742
-169.449
-180.793
-193.57
-206.656
-218.402
-227.521
-233.544
-236.694
-237.481
-236.369
-233.757
-230.017
-225.452
-220.218
-214.284
-207.451
-199.547
-190.538
-180.429
-169.116
-156.483
-142.723
-128.451
-114.44
-101.3
-89.3654
-78.7568
-69.4674
-61.4435
-54.6399
-49.0364
-44.7356
-41.6405
-39.9541
-38.5453
-36.7645
-34.4509
-31.5898
-28.2872
-24.8638
-21.6307
-18.6421
-16.1362
-14.0486
-12.7166
-12.7013
-12.7409
-10.8345
-6.98003
-3.89639
-2.81173
-2.63076
-2.3166
-2.09914
-2.21719
-2.49903
-3.01491
-3.83861
-4.14456
-3.43831
-97.7047
-102.746
-107.922
-112.736
-117.1
-120.723
-122.773
-122.511
-120.258
-115.827
-109.878
-103.314
-96.6709
-90.2472
-84.3035
-79.0302
-74.4881
-70.6695
-67.48
-64.7967
-62.4577
-60.3503
-58.4902
-56.9551
-55.8678
-54.9551
-54.2314
-53.6613
-56.0642
-62.3467
-70.9815
-81.1324
-92.1939
-103.625
-114.868
-125.411
-134.948
-143.541
-151.675
-160.156
-169.851
-181.277
-194.231
-207.537
-219.441
-228.591
-234.537
-237.56
-238.222
-237.002
-234.292
-230.475
-225.86
-220.616
-214.703
-207.912
-200.055
-191.075
-180.959
-169.604
-156.922
-143.14
-128.884
-114.901
-101.771
-89.8142
-79.1504
-69.778
-61.6504
-54.7298
-49.0084
-44.6413
-41.5489
-40.0674
-38.8581
-37.2314
-34.9647
-32.0158
-28.5898
-25.1087
-21.8684
-18.6853
-15.8926
-13.9722
-12.9217
-12.8258
-12.4805
-10.6542
-7.15519
-4.26034
-3.08364
-2.77321
-2.46004
-2.25694
-2.32265
-2.56636
-2.98575
-3.39947
-3.35285
-2.91222
-97.9724
-102.766
-107.902
-112.679
-117.04
-120.712
-122.855
-122.681
-120.502
-116.078
-110.094
-103.492
-96.8154
-90.3553
-84.3787
-79.0844
-74.5339
-70.7199
-67.5451
-64.8908
-62.5898
-60.5227
-58.7193
-57.2376
-56.2367
-55.3832
-54.333
-54.3299
-56.8742
-63.1402
-71.8003
-81.9649
-93.0206
-104.442
-115.673
-126.189
-135.669
-144.172
-152.204
-160.609
-170.291
-181.789
-194.91
-208.431
-220.49
-229.668
-235.529
-238.42
-238.961
-237.636
-234.834
-230.937
-226.274
-221.021
-215.125
-208.371
-200.555
-191.595
-181.46
-170.048
-157.308
-143.508
-129.279
-115.341
-102.236
-90.2696
-79.5596
-70.1108
-61.8837
-54.8461
-48.9973
-44.5414
-41.4279
-40.2037
-39.2709
-37.7289
-35.4264
-32.3938
-28.9609
-25.4397
-22.0638
-18.9783
-16.2036
-14.1179
-13.0441
-12.8656
-12.3526
-10.5243
-7.38862
-4.74052
-3.46054
-2.97879
-2.63624
-2.43023
-2.43783
-2.61002
-2.89876
-2.98534
-2.69474
-2.42477
-98.2168
-102.78
-107.873
-112.607
-116.963
-120.685
-122.925
-122.842
-120.743
-116.327
-110.309
-103.669
-96.9574
-90.4599
-84.4496
-79.1346
-74.5778
-70.7706
-67.6115
-64.9871
-62.7237
-60.7018
-58.9575
-57.5376
-56.6331
-55.9017
-54.4944
-54.9686
-57.7138
-63.9697
-72.6403
-82.8056
-93.8487
-105.259
-116.484
-126.982
-136.412
-144.833
-152.77
-161.101
-170.765
-182.324
-195.597
-209.328
-221.538
-230.738
-236.509
-239.265
-239.689
-238.265
-235.374
-231.397
-226.693
-221.43
-215.548
-208.827
-201.043
-192.092
-181.923
-170.442
-157.64
-143.829
-129.641
-115.76
-102.694
-90.7299
-79.9862
-70.4718
-62.1514
-54.9938
-49.0075
-44.4637
-41.3806
-40.3928
-39.7624
-38.3662
-36.0329
-32.8362
-29.2923
-25.8324
-22.4762
-19.3337
-16.5406
-14.4148
-13.2623
-12.8946
-12.2358
-10.4466
-7.65426
-5.25698
-3.9223
-3.28772
-2.87705
-2.62468
-2.54947
-2.62156
-2.75889
-2.59184
-2.13826
-1.94792
-98.442
-102.786
-107.835
-112.52
-116.871
-120.642
-122.98
-122.993
-120.979
-116.574
-110.521
-103.843
-97.0964
-90.5605
-84.515
-79.1786
-74.6171
-70.8189
-67.6769
-65.0821
-62.8572
-60.8849
-59.1974
-57.86
-57.0318
-56.4607
-54.8329
-55.5735
-58.5691
-64.8253
-73.4935
-83.6478
-94.6731
-106.074
-117.299
-127.787
-137.176
-145.522
-153.369
-161.629
-171.272
-182.878
-196.287
-210.216
-222.575
-231.791
-237.466
-240.087
-240.4
-238.884
-235.903
-231.852
-227.112
-221.839
-215.97
-209.275
-201.514
-192.558
-182.341
-170.782
-157.919
-144.108
-129.972
-116.163
-103.151
-91.2011
-80.4319
-70.8564
-62.4465
-55.1801
-49.0834
-44.4625
-41.3745
-40.458
-40.0007
-38.851
-36.5317
-33.2481
-29.7399
-26.2954
-22.8729
-19.6669
-16.9272
-14.8354
-13.6064
-13.019
-12.1812
-10.4294
-7.93872
-5.76397
-4.41048
-3.65745
-3.16799
-2.84718
-2.67455
-2.62707
-2.60633
-2.242
-1.66537
-1.48635
-98.6804
-102.788
-107.787
-112.419
-116.764
-120.584
-123.019
-123.13
-121.205
-116.813
-110.727
-104.013
-97.232
-90.6568
-84.5741
-79.2152
-74.6493
-70.8619
-67.7375
-65.1717
-62.9917
-61.0629
-59.4471
-58.2013
-57.4162
-56.9686
-55.2952
-56.181
-59.435
-65.6983
-74.353
-84.4867
-95.4907
-106.885
-118.115
-128.601
-137.959
-146.237
-154
-162.192
-171.807
-183.445
-196.97
-211.085
-223.586
-232.813
-238.388
-240.876
-241.084
-239.491
-236.411
-232.299
-227.524
-222.244
-216.387
-209.713
-201.963
-192.988
-182.709
-171.066
-158.149
-144.353
-130.284
-116.556
-103.604
-91.6723
-80.8886
-71.2795
-62.812
-55.4547
-49.2607
-44.5403
-41.4019
-40.5443
-40.1388
-39.0928
-36.8457
-33.6247
-30.1861
-26.7779
-23.3103
-20.1102
-17.416
-15.3356
-14.0191
-13.2234
-12.2186
-10.4981
-8.2487
-6.25439
-4.89843
-4.05334
-3.48163
-3.08046
-2.80642
-2.63714
-2.46913
-1.95224
-1.26828
-1.06055
-98.8892
-102.78
-107.73
-112.304
-116.643
-120.512
-123.047
-123.254
-121.42
-117.039
-110.922
-104.175
-97.362
-90.7479
-84.6265
-79.2431
-74.6725
-70.8965
-67.7886
-65.2544
-63.1155
-61.2367
-59.7098
-58.553
-57.8009
-57.4174
-55.8152
-56.8479
-60.3095
-66.5808
-75.2128
-85.3185
-96.2993
-107.689
-118.931
-129.423
-138.757
-146.975
-154.661
-162.787
-172.369
-184.021
-197.637
-211.921
-224.556
-233.788
-239.26
-241.624
-241.734
-240.077
-236.897
-232.729
-227.925
-222.641
-216.795
-210.134
-202.384
-193.374
-183.021
-171.297
-158.342
-144.573
-130.574
-116.932
-104.062
-92.1779
-81.3959
-71.7583
-63.2435
-55.8096
-49.5276
-44.7245
-41.6162
-40.6588
-40.2631
-39.2965
-37.1894
-34.135
-30.7477
-27.3135
-23.799
-20.6254
-17.9723
-15.8982
-14.4849
-13.4951
-12.3449
-10.6511
-8.58693
-6.73213
-5.37935
-4.4612
-3.80939
-3.32264
-2.94441
-2.65358
-2.35282
-1.71442
-0.925337
-0.670532
-99.0663
-102.769
-107.665
-112.176
-116.507
-120.425
-123.062
-123.368
-121.625
-117.251
-111.103
-104.325
-97.483
-90.832
-84.6711
-79.261
-74.6843
-70.9182
-67.8276
-65.3247
-63.2199
-61.4105
-59.9786
-58.9124
-58.2071
-57.8575
-56.384
-57.5803
-61.1897
-67.4664
-76.0685
-86.1407
-97.0975
-108.485
-119.744
-130.248
-139.566
-147.733
-155.349
-163.412
-172.953
-184.599
-198.278
-212.71
-225.471
-234.699
-240.067
-242.32
-242.348
-240.624
-237.359
-233.137
-228.309
-223.025
-217.188
-210.534
-202.768
-193.708
-183.281
-171.483
-158.494
-144.768
-130.865
-117.319
-104.531
-92.7152
-81.9678
-72.326
-63.7716
-56.2616
-49.8969
-45.034
-41.9602
-40.8799
-40.4479
-39.5457
-37.6133
-34.7391
-31.3594
-27.8641
-24.3335
-21.1929
-18.5758
-16.5036
-14.9948
-13.8298
-12.5528
-10.8777
-8.95185
-7.20246
-5.85372
-4.87488
-4.14592
-3.57193
-3.08945
-2.68002
-2.25978
-1.51669
-0.617153
-0.315732
-99.2102
-102.749
-107.59
-112.034
-116.357
-120.323
-123.064
-123.469
-121.819
-117.451
-111.269
-104.459
-97.5913
-90.906
-84.7058
-79.2671
-74.6816
-70.9232
-67.8537
-65.3711
-63.3096
-61.584
-60.2475
-59.2777
-58.6385
-58.3168
-57.0195
-58.3391
-62.0703
-68.3489
-76.9162
-86.9514
-97.8841
-109.272
-120.551
-131.073
-140.383
-148.506
-156.061
-164.064
-173.557
-185.175
-198.883
-213.438
-226.312
-235.533
-240.798
-242.955
-242.924
-241.12
-237.792
-233.516
-228.671
-223.39
-217.56
-210.901
-203.108
-193.992
-183.48
-171.615
-158.608
-144.923
-131.134
-117.724
-105.049
-93.3135
-82.6126
-72.9769
-64.3872
-56.8116
-50.3906
-45.5116
-42.4464
-41.2151
-40.6945
-39.8166
-38.036
-35.3246
-31.9859
-28.4533
-24.9302
-21.8166
-19.2199
-17.1363
-15.5366
-14.2183
-12.8316
-11.1652
-9.33862
-7.66598
-6.31871
-5.28683
-4.48402
-3.82391
-3.23986
-2.71813
-2.19127
-1.34983
-0.331218
0.00311985
-99.3265
-102.72
-107.505
-111.88
-116.193
-120.205
-123.052
-123.556
-121.999
-117.635
-111.418
-104.577
-97.6841
-90.9666
-84.7277
-79.2586
-74.6597
-70.9117
-67.8553
-65.3921
-63.3888
-61.7532
-60.5119
-59.6414
-59.1033
-58.8347
-57.7212
-59.1111
-62.9471
-69.2245
-77.7527
-87.7495
-98.658
-110.047
-121.348
-131.893
-141.201
-149.292
-156.794
-164.741
-174.178
-185.742
-199.443
-214.089
-227.062
-236.276
-241.441
-243.518
-243.464
-241.56
-238.186
-233.863
-229.006
-223.729
-217.9
-211.23
-203.397
-194.208
-183.603
-171.657
-158.65
-145.053
-131.404
-118.15
-105.606
-93.965
-83.32
-73.6992
-65.0842
-57.465
-51.0185
-46.1322
-43.0385
-41.651
-41.0029
-40.1173
-38.4543
-35.8951
-32.6338
-29.1013
-25.5928
-22.4925
-19.898
-17.7886
-16.1018
-14.651
-13.1694
-11.502
-9.7426
-8.12226
-6.77164
-5.69131
-4.81831
-4.07484
-3.39314
-2.7666
-2.14489
-1.20482
-0.0593884
0.286892
-99.4474
-102.686
-107.41
-111.714
-116.017
-120.073
-123.028
-123.628
-122.163
-117.803
-111.552
-104.679
-97.7594
-91.0105
-84.7336
-79.2302
-74.6162
-70.874
-67.8227
-65.3923
-63.4575
-61.9158
-60.7704
-59.999
-59.59
-59.4064
-58.4809
-59.8878
-63.8162
-70.0922
-78.5768
-88.5336
-99.4179
-110.807
-122.131
-132.702
-142.018
-150.087
-157.545
-165.438
-174.81
-186.295
-199.948
-214.648
-227.705
-236.918
-241.991
-244
-243.958
-241.95
-238.53
-234.171
-229.309
-224.034
-218.204
-211.506
-203.609
-194.315
-183.6
-171.603
-158.639
-145.164
-131.678
-118.594
-106.198
-94.6642
-84.0845
-74.4875
-65.8625
-58.2247
-51.7726
-46.8689
-43.7202
-42.1725
-41.3745
-40.4556
-38.8788
-36.4561
-33.2915
-29.7908
-26.305
-23.21
-20.6034
-18.4563
-16.6859
-15.1203
-13.5556
-11.8785
-10.1607
-8.5722
-7.21217
-6.08568
-5.14593
-4.32288
-3.5484
-2.82487
-2.11901
-1.07712
0.203674
0.53484
-99.528
-102.642
-107.306
-111.538
-115.828
-119.928
-122.994
-123.685
-122.309
-117.95
-111.669
-104.762
-97.8158
-91.0345
-84.7187
-79.1778
-74.5475
-70.794
-67.7566
-65.3752
-63.515
-62.0708
-61.0242
-60.3469
-60.0599
-59.9732
-59.2703
-60.6617
-64.6705
-70.9519
-79.3888
-89.3024
-100.162
-111.55
-122.896
-133.497
-142.83
-150.887
-158.31
-166.151
-175.449
-186.829
-200.392
-215.102
-228.228
-237.445
-242.45
-244.395
-244.368
-242.287
-238.819
-234.434
-229.571
-224.302
-218.453
-211.694
-203.691
-194.277
-183.481
-171.478
-158.592
-145.265
-131.961
-119.062
-106.824
-95.4085
-84.9023
-75.3398
-66.7225
-59.0882
-52.6403
-47.7096
-44.4831
-42.7693
-41.8094
-40.8323
-39.3118
-37.0041
-33.9447
-30.4999
-27.0491
-23.9585
-21.3306
-19.1365
-17.2855
-15.6194
-13.9808
-12.2867
-10.5905
-9.01725
-7.64167
-6.46999
-5.46676
-4.56844
-3.70618
-2.89222
-2.11252
-0.964299
0.47869
0.749235
-99.5722
-102.594
-107.193
-111.351
-115.628
-119.769
-122.949
-123.729
-122.438
-118.076
-111.766
-104.828
-97.8516
-91.0358
-84.6769
-79.1009
-74.4378
-70.6669
-67.6625
-65.3412
-63.5611
-62.2174
-61.2734
-60.6805
-60.4917
-60.5298
-60.0491
-61.4258
-65.5029
-71.7983
-80.1899
-90.0551
-100.889
-112.273
-123.64
-134.274
-143.631
-151.689
-159.085
-166.876
-176.09
-187.34
-200.766
-215.438
-228.611
-237.831
-242.831
-244.706
-244.668
-242.559
-239.049
-234.649
-229.788
-224.512
-218.61
-211.741
-203.613
-194.103
-183.269
-171.3
-158.523
-145.366
-132.262
-119.559
-107.488
-96.1964
-85.7719
-76.2558
-67.6635
-60.0499
-53.6122
-48.648
-45.3233
-43.4349
-42.3072
-41.2481
-39.7533
-37.5384
-34.5874
-31.2158
-27.8118
-24.7283
-22.0738
-19.8261
-17.8968
-16.1417
-14.4365
-12.7193
-11.0293
-9.45787
-8.06078
-6.84357
-5.77894
-4.80881
-3.86358
-2.96711
-2.12761
-0.86611
0.80385
0.931061
-99.5766
-102.536
-107.07
-111.156
-115.417
-119.596
-122.896
-123.759
-122.547
-118.177
-111.842
-104.874
-97.8648
-91.0095
-84.6048
-78.9854
-74.2714
-70.4988
-67.5435
-65.291
-63.5957
-62.3544
-61.5164
-61.0003
-60.8868
-61.0752
-60.7943
-62.1722
-66.3086
-72.6258
-80.9776
-90.7927
-101.595
-112.973
-124.359
-135.029
-144.419
-152.488
-159.866
-167.606
-176.729
-187.822
-201.062
-215.646
-228.826
-238.048
-243.125
-244.956
-244.843
-242.766
-239.221
-234.806
-229.943
-224.616
-218.611
-211.618
-203.384
-193.819
-182.987
-171.086
-158.446
-145.48
-132.589
-120.09
-108.191
-97.0284
-86.6934
-77.2354
-68.6831
-61.1031
-54.6812
-49.6801
-46.2419
-44.1683
-42.8645
-41.703
-40.2031
-38.0601
-35.2153
-31.9289
-28.58
-25.5068
-22.8251
-20.5213
-18.5167
-16.6816
-14.9147
-13.1691
-11.4723
-9.891
-8.46626
-7.20259
-6.07901
-5.04229
-4.0229
-3.05632
-2.16765
-0.774788
1.19565
1.09443
-99.5494
-102.47
-106.94
-110.955
-115.195
-119.408
-122.833
-123.778
-122.636
-118.251
-111.894
-104.897
-97.8523
-90.9506
-84.4978
-78.807
-74.0468
-70.297
-67.4023
-65.2258
-63.619
-62.4808
-61.7511
-61.3095
-61.2478
-61.5752
-61.4995
-62.8944
-67.0841
-73.4298
-81.7481
-91.5146
-102.279
-113.649
-125.05
-135.758
-145.19
-153.28
-160.646
-168.338
-177.361
-188.27
-201.282
-215.736
-228.875
-238.127
-243.308
-245.226
-244.894
-242.88
-239.326
-234.898
-229.982
-224.555
-218.423
-211.323
-203.027
-193.448
-182.654
-170.853
-158.376
-145.618
-132.951
-120.66
-108.934
-97.9051
-87.6665
-78.2771
-69.7775
-62.242
-55.8411
-50.8028
-47.2433
-44.9755
-43.4821
-42.1971
-40.6632
-38.5705
-35.8259
-32.632
-29.3428
-26.2817
-23.5742
-21.2162
-19.1404
-17.2327
-15.4076
-13.6283
-11.914
-10.313
-8.85587
-7.54594
-6.36675
-5.26846
-4.18216
-3.15265
-2.20995
-0.679369
1.55859
1.24302
-99.5248
-102.399
-106.802
-110.748
-114.963
-119.204
-122.761
-123.785
-122.703
-118.297
-111.919
-104.894
-97.8086
-90.8582
-84.3354
-78.5551
-73.7754
-70.0664
-67.2416
-65.1468
-63.6311
-62.5955
-61.9755
-61.609
-61.5745
-62.0108
-62.1613
-63.5875
-67.8269
-74.2067
-82.4985
-92.2187
-102.943
-114.296
-125.711
-136.457
-145.939
-154.061
-161.423
-169.066
-177.978
-188.68
-201.437
-215.71
-228.764
-238.099
-243.329
-245.382
-244.85
-242.903
-239.318
-234.864
-229.849
-224.287
-218.049
-210.887
-202.57
-193.013
-182.29
-170.62
-158.33
-145.793
-133.354
-121.271
-109.719
-98.8259
-88.6899
-79.3785
-70.9426
-63.4604
-57.0857
-52.0125
-48.3311
-45.8659
-44.1684
-42.7346
-41.1363
-39.0691
-36.416
-33.3217
-30.099
-27.0526
-24.3202
-21.9099
-19.7664
-17.7907
-15.9094
-14.0922
-12.352
-10.7241
-9.23123
-7.87576
-6.64449
-5.49017
-4.34582
-3.26247
-2.26377
-0.639278
1.68598
1.32683
-99.4613
-102.321
-106.659
-110.537
-114.722
-118.986
-122.681
-123.782
-122.746
-118.313
-111.914
-104.861
-97.7289
-90.7185
-84.0913
-78.2362
-73.4656
-69.8116
-67.0641
-65.055
-63.6321
-62.6981
-62.1882
-61.8989
-61.8672
-62.3802
-62.7737
-64.2489
-68.5361
-74.9538
-83.2261
-92.9028
-103.584
-114.913
-126.339
-137.124
-146.661
-154.826
-162.189
-169.782
-178.573
-189.056
-201.538
-215.533
-228.428
-237.889
-243.271
-245.44
-244.707
-242.799
-239.187
-234.632
-229.489
-223.824
-217.527
-210.343
-202.041
-192.538
-181.919
-170.406
-158.321
-146.014
-133.803
-121.924
-110.544
-99.789
-89.7614
-80.5368
-72.1738
-64.7514
-58.4066
-53.3021
-49.5033
-46.8444
-44.934
-43.3264
-41.6302
-39.557
-36.9781
-33.9872
-30.844
-27.8235
-25.0718
-22.6122
-20.4032
-18.3616
-16.4245
-14.5661
-12.7948
-11.1372
-9.60998
-8.21474
-6.93944
-5.73701
-4.54152
-3.40663
-2.34731
-0.684015
1.55788
1.33231
-99.37
-102.238
-106.51
-110.322
-114.472
-118.753
-122.593
-123.768
-122.765
-118.296
-111.876
-104.791
-97.6082
-90.5008
-83.7565
-77.8629
-73.1247
-69.5368
-66.8715
-64.951
-63.622
-62.7879
-62.387
-62.1801
-62.1272
-62.6682
-63.3289
-64.8772
-69.2119
-75.6696
-83.9288
-93.5655
-104.201
-115.5
-126.931
-137.758
-147.353
-155.567
-162.935
-170.479
-179.155
-189.42
-201.591
-215.191
-227.825
-237.415
-243.035
-245.333
-244.537
-242.512
-238.808
-234.153
-228.927
-223.214
-216.899
-209.727
-201.469
-192.052
-181.564
-170.23
-158.361
-146.284
-134.296
-122.618
-111.408
-100.792
-90.8788
-81.7487
-73.4655
-66.1066
-59.7928
-54.6589
-50.7479
-47.9028
-45.7792
-43.9831
-42.1615
-40.0488
-37.5153
-34.6173
-31.5609
-28.5824
-25.8253
-23.3261
-21.0583
-18.9556
-16.9656
-15.0669
-13.2651
-11.5794
-10.0211
-8.58881
-7.26951
-6.01569
-4.76445
-3.5725
-2.45089
-0.7723
1.36617
1.29426
-99.2498
-102.147
-106.357
-110.105
-114.217
-118.508
-122.499
-123.745
-122.758
-118.245
-111.801
-104.682
-97.426
-90.1814
-83.3438
-77.446
-72.7587
-69.2448
-66.6654
-64.8352
-63.6007
-62.8645
-62.5694
-62.4524
-62.3646
-62.8752
-63.8302
-65.4724
-69.8552
-76.3537
-84.6052
-94.2053
-104.795
-116.057
-127.485
-138.356
-148.017
-156.279
-163.657
-171.17
-179.74
-189.786
-201.61
-214.716
-226.968
-236.576
-242.441
-244.811
-244.082
-241.908
-238.145
-233.46
-228.218
-222.504
-216.206
-209.074
-200.889
-191.582
-181.246
-170.105
-158.454
-146.605
-134.833
-123.349
-112.307
-101.833
-92.0396
-83.0103
-74.8108
-67.5157
-61.2311
-56.0667
-52.0468
-49.0236
-46.6932
-44.7059
-42.7442
-40.5658
-38.0464
-35.2175
-32.2406
-29.3122
-26.5635
-24.0384
-21.7236
-19.569
-17.5328
-15.5973
-13.7656
-12.0506
-10.4581
-8.98425
-7.61544
-6.30582
-4.99763
-3.74958
-2.57179
-0.874775
1.232
1.24236
-99.115
-102.046
-106.199
-109.889
-113.957
-118.248
-122.393
-123.714
-122.723
-118.155
-111.683
-104.52
-97.1473
-89.76
-82.8681
-76.9952
-72.3724
-68.9383
-66.447
-64.7081
-63.5681
-62.928
-62.7332
-62.7105
-62.6008
-63.0424
-64.2887
-66.0353
-70.4676
-77.0067
-85.255
-94.8217
-105.364
-116.583
-128.001
-138.915
-148.654
-156.975
-164.377
-171.874
-180.338
-190.156
-201.606
-214.151
-225.924
-235.389
-241.404
-243.793
-243.21
-240.981
-237.256
-232.616
-227.413
-221.737
-215.486
-208.421
-200.331
-191.152
-180.98
-170.034
-158.6
-146.972
-135.411
-124.116
-113.239
-102.91
-93.2408
-84.3162
-76.2018
-68.9684
-62.7086
-57.5105
-53.3838
-50.1908
-47.6629
-45.4891
-43.3827
-41.1229
-38.5923
-35.8067
-32.8922
-30.01
-27.2751
-24.7336
-22.3817
-20.1838
-18.107
-16.137
-14.2748
-12.5281
-10.8986
-9.38094
-7.96176
-6.59785
-5.23685
-3.93723
-2.70952
-0.994882
1.11575
1.17585
-98.9998
-101.936
-106.041
-109.676
-113.692
-117.965
-122.272
-123.678
-122.656
-118.024
-111.515
-104.273
-96.7496
-89.2509
-82.3438
-76.5186
-71.9698
-68.6189
-66.2172
-64.5698
-63.5241
-62.9788
-62.8781
-62.9471
-62.8465
-63.1916
-64.7067
-66.5675
-71.0506
-77.6296
-85.8782
-95.4144
-105.909
-117.079
-128.48
-139.434
-149.259
-157.662
-165.107
-172.591
-180.941
-190.528
-201.586
-213.534
-224.766
-233.972
-240.044
-242.39
-242.004
-239.826
-236.216
-231.677
-226.555
-220.952
-214.777
-207.798
-199.816
-190.774
-180.77
-170.021
-158.799
-147.385
-136.026
-124.915
-114.203
-104.021
-94.4786
-85.6604
-77.6302
-70.4548
-64.2148
-58.9802
-54.7494
-51.3949
-48.6794
-46.3258
-44.0753
-41.7259
-39.1671
-36.4028
-33.5317
-30.6851
-27.9621
-25.4077
-23.025
-20.7895
-18.6761
-16.6733
-14.7803
-13.0011
-11.3343
-9.77348
-8.30579
-6.89119
-5.48295
-4.13719
-2.86457
-1.14902
0.931025
1.0801
-98.8722
-101.816
-105.885
-109.467
-113.411
-117.652
-122.143
-123.643
-122.556
-117.842
-111.272
-103.907
-96.2379
-88.671
-81.7833
-76.0221
-71.5534
-68.2882
-65.9767
-64.4206
-63.4684
-63.0171
-63.0052
-63.1559
-63.0981
-63.3439
-65.0776
-67.0698
-71.6061
-78.2242
-86.4756
-95.9838
-106.43
-117.548
-128.922
-139.911
-149.83
-158.331
-165.836
-173.313
-181.546
-190.901
-201.556
-212.898
-223.559
-232.422
-238.482
-240.772
-240.589
-238.534
-235.087
-230.69
-225.684
-220.183
-214.104
-207.225
-199.358
-190.455
-180.619
-170.061
-159.046
-147.839
-136.676
-125.745
-115.196
-105.162
-95.7484
-87.0361
-79.0879
-71.9666
-65.7422
-60.4697
-56.1386
-52.6313
-49.7374
-47.2107
-44.8176
-42.3739
-39.7751
-37.0156
-34.1713
-31.3489
-28.6331
-26.0664
-23.6564
-21.3872
-19.24
-17.2053
-15.2814
-13.4693
-11.7656
-10.1632
-8.65002
-7.18915
-5.73928
-4.35248
-3.0388
-1.34276
0.653025
0.951335
-98.7423
-101.689
-105.735
-109.259
-113.113
-117.335
-122.032
-123.61
-122.411
-117.587
-110.915
-103.409
-95.6285
-88.038
-81.1966
-75.5105
-71.1254
-67.9471
-65.726
-64.2607
-63.4007
-63.0432
-63.1165
-63.3364
-63.3476
-63.5366
-65.4043
-67.5438
-72.1358
-78.7919
-87.0482
-96.5305
-106.929
-117.99
-129.329
-140.346
-150.361
-158.977
-166.558
-174.032
-182.149
-191.271
-201.52
-212.267
-222.357
-230.851
-236.831
-239.063
-239.062
-237.175
-233.92
-229.694
-224.831
-219.452
-213.482
-206.709
-198.959
-190.195
-180.523
-170.153
-159.338
-148.331
-137.358
-126.603
-116.218
-106.331
-97.0451
-88.4369
-80.5677
-73.4968
-67.285
-61.9745
-57.5478
-53.8962
-50.8328
-48.1388