/*--------------------------------*- C++ -*----------------------------------*\
| =========                 |                                                 |
| \\      /  F ield         | OpenFOAM: The Open Source CFD Toolbox           |
|  \\    /   O peration     | Version:  4.1                                   |
|   \\  /    A nd           | Web:      www.OpenFOAM.org                      |
|    \\/     M anipulation  |                                                 |
\*---------------------------------------------------------------------------*/
FoamFile
{
    version     2.0;
    format      ascii;
    class       surfaceScalarField;
    location    "800";
    object      phi;
}
// * * * * * * * * * * * * * * * * * * * * * * * * * * * * * * * * * * * * * //

dimensions      [0 3 -1 0 0 0 0];

internalField   nonuniform List<scalar> 
52920
(
2561.63
-219.405
2760.93
-199.305
2941.04
-180.107
3092.25
-151.205
3205.45
-113.208
3272.72
-67.2635
3293.11
-20.3873
3272.89
20.2183
3219.19
53.7039
3142.06
77.124
3051.08
90.9886
2952.7
98.3788
2851.35
101.345
2750.9
100.456
2654.74
96.1628
2565.19
89.5515
2482.95
82.2417
2406.11
76.8394
2329.77
76.3406
2247.14
82.6334
2151.54
95.5967
2038.49
113.049
1906.21
132.288
1752.92
153.291
1576.86
176.055
1390.7
186.165
1218.95
171.753
1130.1
88.8511
1189.89
-59.7851
1378.69
-188.798
1664.28
-285.587
2017.82
-353.542
2394.99
-377.167
2766.65
-371.662
3120.07
-353.415
3453.3
-333.232
3771.81
-318.502
4086.37
-314.562
4410.59
-324.221
4756.82
-346.229
5131.01
-374.192
5528.63
-397.619
5934.29
-405.661
6326.79
-392.501
6686.73
-359.938
7001.93
-315.196
7268.81
-266.882
7490.58
-221.767
7674.12
-183.539
7827.36
-153.246
7957.22
-129.857
8067.7
-110.477
8158.86
-91.1588
8227.76
-68.8974
8271.42
-43.6682
8289.6
-18.1708
8282.26
7.3322
8241.38
40.8881
8146.79
94.5911
7975.24
171.542
7716.62
258.623
7382.29
334.328
6998.59
383.705
6594.03
404.553
6190.97
403.067
5803.62
387.347
5439.77
363.854
5103.09
336.673
4795.05
308.047
4515.89
279.16
4265.07
250.816
4040.89
224.179
3840.76
200.13
3659.61
181.147
3492.62
166.994
3337.74
154.884
3194.32
143.418
3064.47
129.852
2957.07
107.401
2882.01
75.0541
2840.89
41.1227
2830.44
10.4457
2849.16
-18.7212
2899.93
-50.7697
2984.08
-84.15
3087.1
-103.012
3192.05
-104.958
3304.79
-112.735
3451.05
-146.263
3649.4
-198.353
3893.95
-244.546
4171.19
-277.242
4478.58
-307.39
4821.04
-342.462
5203.24
-382.194
5622.27
-419.028
6074.31
-452.047
6507.74
-433.426
6915.3
-407.556
-272.152
2593.6
-436.737
2791.57
-397.271
2970.26
-358.801
3121.67
-302.609
3238.23
-229.77
3312.08
-141.115
3339.55
-47.849
3324.3
35.4663
3273.29
104.716
3197.49
152.919
3107.24
181.241
3009.38
196.237
2908.36
202.366
2807.77
201.051
2710.54
193.394
2618.47
181.621
2531.87
168.844
2448.71
160.004
2364.26
160.791
2272.07
174.828
2165.81
201.857
2041.28
237.582
1896.49
277.071
1729.07
320.719
1537.98
367.149
1339.79
384.35
1160.17
351.38
1052.44
196.581
1102.97
-110.309
1332.75
-418.575
1707.03
-659.872
2126.96
-773.465
2536.29
-786.503
2919.78
-755.148
3276.16
-709.79
3609.08
-666.157
3926.28
-635.692
4239.38
-627.662
4562.29
-647.133
4907.43
-691.371
5280.67
-747.431
5677.23
-794.18
6081.4
-809.828
6471.71
-782.808
6828.7
-716.925
7140.28
-626.777
7402.94
-529.541
7619.69
-438.515
7796.92
-360.774
7941.93
-298.259
8061.17
-249.087
8158.59
-207.903
8234.51
-167.075
8285.94
-120.331
8309.44
-67.1644
8304.73
-13.4621
8274.04
38.0233
8213.48
101.45
8105.11
202.956
7923.02
353.631
7652.17
529.471
7301.51
684.992
6898.64
786.577
6475.03
828.162
6055.5
822.601
5655.51
787.331
5283.04
736.328
4941.36
678.353
4631.3
618.109
4352.5
557.956
4103.95
499.369
3883.55
444.575
3688.5
395.182
3513.18
356.47
3352.41
327.765
3204.04
303.247
3067.14
280.323
2943.29
253.698
2841.18
209.512
2771.19
145.039
2735.15
77.1651
2729.01
16.5873
2748.99
-38.7013
2797.31
-99.0903
2876.68
-163.517
2970.88
-197.213
3059.69
-193.771
3148.08
-201.119
3264.24
-262.421
3430.35
-364.469
3643.66
-457.85
3896.09
-529.678
4192.07
-603.368
4538.21
-688.601
4931.84
-775.827
5359.37
-846.553
5807.69
-900.374
6224.62
-850.351
6582.65
-765.593
-484.514
2588.56
-649.758
2782.02
-590.733
2956.14
-532.924
3105.04
-451.507
3222.72
-347.451
3301.74
-220.135
3336.7
-82.8076
3328.86
43.3159
3283.97
149.597
3213.25
223.645
3127.39
267.099
3033.39
290.236
2935.56
300.204
2837.11
299.499
2740.52
289.985
2647.13
275.014
2556.94
259.031
2467.84
249.105
2375.21
253.424
2272.8
277.237
2154.57
320.089
2016.49
375.661
1856.08
437.485
1670.08
506.723
1459.31
577.923
1244.68
598.984
1042.45
553.605
909.045
329.992
1010.15
-211.408
1334.86
-743.286
1762.16
-1087.17
2182.84
-1194.15
2576.82
-1180.48
2944.49
-1122.82
3286.79
-1052.09
3606.38
-985.743
3910.05
-939.361
4209.08
-926.692
4517.46
-955.512
4848
-1021.91
5206.96
-1106.39
5589.59
-1176.81
5979.61
-1199.86
6354.82
-1158.01
6695.33
-1057.43
6989.17
-920.62
7233.3
-773.666
7431.16
-636.384
7589.38
-518.992
7715.23
-424.109
7815.15
-349
7893.43
-286.182
7951.04
-224.691
7984.91
-154.195
7989.08
-71.3338
7960.59
15.0299
7903.89
94.722
7824.74
180.595
7716.54
311.159
7555.04
515.128
7315.21
769.307
6993.58
1006.61
6611.32
1168.84
6199.79
1239.69
5786.58
1235.8
5390.09
1183.83
5020.27
1106.14
4681.54
1017.08
4375.26
924.393
4101.31
831.907
3858.81
741.87
3645.69
657.687
3459.26
581.614
3293.1
522.63
3141.55
479.317
3002.45
442.351
2874.43
408.339
2758.25
369.881
2662.05
305.716
2597.09
209.994
2566.65
107.61
2567.6
15.6382
2594.56
-65.6667
2647.8
-152.328
2728.63
-244.348
2814.8
-283.383
2881.08
-260.047
2937.13
-257.172
3025.46
-350.747
3181.76
-520.77
3404.89
-680.98
3677.4
-802.194
3985.31
-911.271
4313.35
-1016.64
4647.24
-1109.72
4980.98
-1180.29
5323.7
-1243.09
5641.72
-1168.37
5874.04
-997.91
-583.365
2552.04
-854.507
2736.71
-775.401
2903.09
-699.299
3047.7
-596.12
3165.98
-465.728
3250.8
-304.956
3295.01
-127.014
3297
41.3222
3260.73
185.869
3197.32
287.057
3117.76
346.658
3029.11
378.895
2935.43
393.877
2839.62
395.312
2743.76
385.85
2648.91
369.863
2554.97
352.974
2459.8
344.273
2358.83
354.397
2245.91
390.156
2115.2
450.803
1962.69
528.175
1785.07
615.107
1578.49
713.297
1346.73
809.69
1111.04
834.67
877.639
787.011
754.159
453.474
951.643
-408.89
1347.89
-1139.53
1771.9
-1511.18
2170.68
-1592.93
2547.08
-1556.88
2900.78
-1476.51
3229.58
-1380.9
3534.74
-1290.9
3822.69
-1227.31
4104.87
-1208.87
4395.82
-1246.46
4709.26
-1335.35
5052.29
-1449.42
5420.08
-1544.59
5795.18
-1574.96
6153.76
-1516.6
6474.98
-1378.64
6746.93
-1192.57
6967.36
-994.099
7140.76
-809.786
7274.61
-652.839
7376.84
-526.339
7454.45
-426.612
7512.45
-344.18
7552.79
-265.032
7573.05
-174.452
7566.19
-64.4722
7525.74
55.4819
7452.05
168.411
7351.91
280.728
7228.06
435.017
7066.93
676.253
6845.41
990.833
6552.59
1299.43
6200.57
1520.87
5815.44
1624.82
5423.46
1627.78
5043.69
1563.6
4687.33
1462.5
4359.95
1344.46
4063.84
1220.5
3799.66
1096.09
3567.21
974.319
3364.89
860.007
3190.54
755.964
3036.65
676.517
2896.91
619.055
2769.38
569.885
2652.26
525.461
2544.81
477.325
2454.17
396.363
2393.46
270.706
2369.43
131.632
2381.42
3.64764
2422.7
-106.942
2491.23
-220.859
2586.58
-339.696
2678.51
-375.315
2736.13
-317.666
2778.42
-299.461
2865.59
-437.923
3033.22
-688.401
3251.01
-898.761
3468.08
-1019.26
3659.6
-1102.79
3829.35
-1186.39
3997.17
-1277.54
4187.15
-1370.27
4426.94
-1482.88
4673.66
-1415.1
4793.28
-1117.53
-560.739
2487.45
-1044.01
2659.62
-947.567
2816.74
-856.42
2956.01
-735.391
3073.55
-583.272
3163.14
-394.547
3217.22
-181.087
3231.55
26.9935
3206.97
210.449
3153.64
340.386
3082.5
417.804
3000.52
460.869
2911.59
482.813
2818.29
488.606
2722.56
481.582
2625.52
466.91
2527.31
451.186
2425.98
445.598
2316.89
463.494
2193.63
513.408
2050.24
594.194
1882.47
695.955
1686.12
811.452
1457.62
941.804
1203.91
1063.4
942.496
1096.08
678.464
1051.05
618.094
513.848
920.967
-711.761
1339.74
-1558.31
1739.35
-1910.79
2118.1
-1971.68
2479.99
-1918.76
2819.94
-1816.47
3134.12
-1695.07
3423.47
-1580.25
3694.46
-1498.3
3958.77
-1473.17
4231.77
-1519.46
4528.58
-1632.17
4857.38
-1778.21
5212.95
-1900.17
5575.81
-1937.81
5919.65
-1860.44
6222.26
-1681.25
6471.76
-1442.08
6666.92
-1189.25
6813.5
-956.365
6920.13
-759.472
6995.71
-601.914
7048.14
-479.043
7083.56
-379.596
7105.19
-286.665
7111.39
-180.657
7094.85
-47.9301
7047.05
103.288
6964.53
250.932
6851.58
393.677
6713.25
573.343
6543.59
845.917
6326.29
1208.13
6050.86
1574.86
5724.41
1847.32
5367.26
1981.97
5001.82
1993.23
4645.44
1919.98
4309.07
1798.87
3998.73
1654.8
3717.49
1501.74
3466.92
1346.67
3247.83
1193.41
3059.4
1048.44
2900.47
914.888
2761.9
815.092
2636.38
744.576
2522.57
683.696
2418.44
629.586
2320.95
574.813
2235.45
481.865
2177.48
328.676
2159.8
149.316
2186.2
-22.757
2246.72
-167.462
2333.55
-307.687
2445.43
-451.578
2544.68
-474.556
2591.69
-364.682
2610.92
-318.685
2664.74
-491.75
2768.19
-791.847
2869.39
-999.96
2927.51
-1077.39
2960.41
-1135.7
3012.67
-1238.65
3104.16
-1369.03
3234.7
-1500.81
3409.68
-1657.86
3571.57
-1576.99
3532.14
-1078.1
-383.187
2398.43
-1223.87
2564.26
-1113.4
2715.73
-1007.89
2850.32
-869.984
2964.73
-697.681
3053.83
-483.643
3111.49
-238.748
3133.56
4.93062
3118.6
225.409
3075.09
383.896
3012.98
479.909
2938.58
535.272
2855.22
566.178
2765.13
578.696
2670.09
576.619
2571.44
565.562
2469.87
552.763
2363.83
551.636
2248.45
578.871
2116.56
645.302
1961.36
749.401
1777.91
879.397
1561.45
1027.91
1309.97
1193.29
1033.62
1339.76
742.929
1386.77
463.605
1330.37
512.946
464.512
898.215
-1097.03
1303.7
-1963.79
1678.31
-2285.39
2040.93
-2334.3
2388.73
-2266.56
2713.94
-2141.68
3012.45
-1993.58
3285.2
-1853
3538.61
-1751.71
3784.77
-1719.33
4040.35
-1775.04
4322.36
-1914.17
4640
-2095.85
4986.97
-2247.14
5340.81
-2291.66
5672.37
-2192
5958.09
-1966.96
6186.37
-1670.36
6357.09
-1359.97
6477.28
-1076.55
6556.59
-838.779
6604.74
-650.06
6630.59
-504.897
6641.64
-390.641
6642.66
-287.691
6633.11
-171.1
6606.06
-20.8817
6551.73
157.62
6463.49
339.168
6342.73
514.442
6193.59
722.48
6013.62
1025.89
5793
1428.75
5525.61
1842.26
5217.77
2155.15
4885.63
2314.11
4547.07
2331.79
4216.37
2250.68
3903.04
2112.2
3612.85
1945
3349.32
1765.26
3114.91
1581.08
2911.69
1396.63
2739.79
1220.34
2599.58
1055.1
2479.23
935.442
2370.05
853.752
2271.99
781.758
2183.06
718.522
2097
660.868
2016.9
561.969
1960.01
385.562
1946.7
162.62
1982.24
-58.2873
2048.06
-233.284
2138.04
-397.672
2262.6
-576.133
2371.63
-583.59
2398.87
-391.92
2354.35
-274.166
2292.68
-430.079
2249.51
-748.677
2217.7
-968.152
2188.63
-1048.32
2185.92
-1132.98
2218.07
-1270.79
2242.31
-1393.28
2242.28
-1500.78
2212.55
-1628.13
2143.97
-1508.41
1835.93
-770.06
37.5462
2319.24
-1394.46
2476.67
-1270.82
2620.46
-1151.68
2749.33
-998.85
2860.41
-808.763
2948.86
-572.088
3008.32
-298.206
3033.66
-20.408
3022.3
236.769
2982.85
423.339
2925.25
537.519
2855.24
605.278
2775.51
645.907
2687.73
666.475
2593.28
671.074
2493.35
665.493
2388.91
657.202
2278.76
661.789
2157.81
699.818
2017.89
785.222
1850.9
916.4
1650.76
1079.53
1412.57
1266.11
1137.94
1467.93
839.479
1638.22
523.302
1702.95
284.785
1568.89
475.396
273.907
867.686
-1489.32
1244.25
-2340.36
1599.16
-2640.3
1947.19
-2682.33
2280.16
-2599.53
2589.82
-2451.33
2872.18
-2275.94
3128.03
-2108.85
3363.74
-1987.42
3592.09
-1947.68
3831.52
-2014.47
4101.05
-2183.69
4410.29
-2405.09
4750.93
-2587.78
5097.23
-2637.96
5417.52
-2512.29
5687.51
-2236.95
5896.22
-1879.07
6044.65
-1508.4
6140.88
-1172.78
6195.15
-893.058
6217.58
-672.487
6217.67
-504.981
6204.1
-377.07
6183.21
-266.803
6155.76
-143.653
6116.16
18.723
6054.24
219.538
5960.89
432.517
5834.53
640.803
5676.88
880.132
5486.48
1216.29
5258.87
1656.35
4993.79
2107.34
4699.3
2449.64
4388.81
2624.6
4075.8
2644.79
3770.92
2555.56
3481.59
2401.54
3212.85
2213.73
2968.48
2009.63
2751.8
1797.77
2566.23
1582.2
2413.02
1373.54
2294.86
1173.26
2195.94
1034.36
2105.35
944.35
2024.4
862.708
1952.41
790.506
1882.19
731.087
1813.89
630.273
1758.22
441.23
1733.96
186.886
1748.7
-73.0351
1792.71
-277.285
1881.11
-486.078
2029.26
-724.283
2150.84
-705.167
2132.1
-373.182
1962.3
-104.37
1736.35
-204.129
1591.59
-603.914
1551.03
-927.595
1536.23
-1033.52
1505.01
-1101.76
1432.75
-1198.54
1278.97
-1239.49
1049.81
-1271.63
707.002
-1285.31
386.196
-1187.6
-143.505
-240.36
863.702
2236.39
-1554.22
2382.98
-1417.42
2517.09
-1285.79
2639.22
-1120.97
2746.96
-916.511
2835.44
-660.566
2898.02
-360.78
2928.22
-50.6082
2921.11
243.885
2884.89
459.559
2829.94
592.462
2762.23
672.997
2684.29
723.847
2597.58
753.18
2503.15
765.508
2401.79
766.853
2294.26
764.732
2179.31
776.739
2051.63
827.505
1902.18
934.671
1721.49
1097.09
1502.32
1298.7
1240.99
1527.44
944.681
1764.24
626.327
1956.57
297.688
2031.59
135.692
1730.89
453.058
-43.4532
823.235
-1859.49
1169.83
-2686.95
1507.99
-2978.46
1840.99
-3015.33
2158.34
-2916.88
2452.16
-2745.15
2718.46
-2542.24
2957.7
-2348.09
3176.27
-2205.99
3387.89
-2159.31
3612.9
-2239.48
3871.79
-2442.58
4173.64
-2706.94
4507.74
-2921.87
4845.71
-2975.94
5154.3
-2820.88
5409.06
-2491.7
5599.79
-2069.8
5728.55
-1637.16
5804.21
-1248.44
5837.19
-926.04
5837.46
-672.758
5814.71
-482.227
5778.4
-340.765
5736
-224.405
5689.58
-97.2274
5635.37
72.9354
5563.67
291.238
5464.1
532.087
5332.25
772.649
5166.62
1045.76
4965.43
1417.48
4728.9
1892.89
4463.1
2373.14
4178.89
2733.85
3887.63
2915.85
3598.65
2933.78
3318.83
2835.38
3053.32
2667.04
2806.28
2460.77
2581.58
2234.33
2383.36
1995.98
2216.62
1748.94
2084.1
1506.06
1992.28
1265.09
1918.88
1107.76
1848.04
1015.19
1782.62
928.121
1730.24
842.886
1688.22
773.107
1644.81
673.687
1590.61
495.425
1532.62
244.885
1497.16
-37.5772
1508.88
-289.003
1592.72
-569.918
1736.56
-868.123
1840.29
-808.904
1769.16
-302.046
1480.07
184.719
1172.17
103.772
1043.71
-475.453
1010.31
-894.195
919.726
-942.938
743.817
-925.855
496.533
-951.256
147.942
-890.898
-364.743
-758.947
-963.525
-686.532
-1540.14
-610.989
-1904.81
124.314
929.342
2149.21
-1700.21
2282.09
-1550.3
2404.84
-1408.54
2519.13
-1235.26
2622.73
-1020.11
2710.92
-748.755
2777.19
-427.056
2813.84
-87.2555
2812.78
244.95
2780.9
491.435
2728.89
644.475
2663.11
738.78
2586.34
800.612
2500.18
839.349
2405.51
860.175
2302.65
869.716
2191.71
875.674
2070.87
897.58
1934.35
964.024
1772.45
1096.57
1574.61
1294.93
1333.52
1539.79
1049.39
1811.57
734.227
2079.4
395.567
2295.23
79.4052
2347.75
45.6784
1764.62
426.081
-423.853
766.759
-2200.17
1085.98
-3006.17
1407.78
-3300.25
1724.75
-3332.29
2026.03
-3218.16
2304.22
-3023.35
2555.11
-2793.13
2778.71
-2571.69
2981.43
-2408.71
3177.98
-2355.85
3390.16
-2451.67
3638.98
-2691.4
3932.31
-3000.26
4257.68
-3247.25
4585.4
-3303.66
4881.43
-3116.91
5121.31
-2731.58
5295.5
-2243.98
5407
-1748.67
5465.37
-1306.8
5480.96
-941.632
5463.25
-655.046
5421.73
-440.708
5366.11
-285.145
5304.09
-162.38
5238.92
-32.0623
5168.9
142.959
5085.26
374.882
4977.63
639.719
4839.02
911.252
4664.42
1220.36
4451.39
1630.51
4204.81
2139.47
3937.19
2640.76
3662.06
3008.98
3388.76
3189.15
3122.54
3199.99
2866.75
3091.17
2624.32
2909.47
2398.51
2686.58
2193.33
2439.51
2013.9
2175.41
1867.21
1895.63
1757.91
1615.36
1697.25
1325.76
1651.8
1153.21
1597.83
1069.16
1545.15
980.807
1519.76
868.269
1519.62
773.25
1507.45
685.856
1453.41
549.471
1353.77
344.52
1265.11
51.085
1242.69
-266.578
1279.65
-606.886
1315.71
-904.179
1352.92
-846.119
1287.8
-236.923
1023.15
449.368
750.497
376.429
568.742
-293.698
375.535
-700.988
91.1866
-658.59
-342.464
-492.204
-799.088
-494.631
-1139.86
-550.127
-1452.53
-446.281
-1865.15
-273.907
-2401.06
-75.082
-2787.15
510.407
1097.14
2055.87
-1828.28
2176.76
-1671.19
2290.62
-1522.4
2397.5
-1342.14
2494.87
-1117.47
2579.02
-832.912
2645.67
-493.702
2687.98
-129.565
2694.62
238.311
2669.32
516.735
2621.93
691.871
2558.99
801.716
2483.73
875.877
2398.12
924.956
2303.15
955.153
2198.58
974.285
2083.61
990.646
1955.4
1025.78
1807.42
1112.01
1629.37
1274.62
1410.43
1513.87
1145.95
1804.28
841.727
2115.79
508.158
2412.97
160.443
2642.95
-89.883
2598.08
-6.4876
1681.23
386.12
-816.458
696.981
-2511.03
995.336
-3304.53
1300.18
-3605.09
1600.25
-3632.37
1885.48
-3503.39
2148.79
-3286.66
2385.55
-3029.89
2595.17
-2781.31
2783.96
-2597.49
2967.27
-2539.17
3167.6
-2651.99
3405.51
-2929.31
3687.84
-3282.6
4001.79
-3561.2
4317.57
-3619.44
4600.57
-3399.91
4825.97
-2956.98
4984.61
-2402.62
5080.47
-1844.52
5123.9
-1350.24
5125.19
-942.919
5093.21
-623.069
5037.13
-384.619
4966.2
-214.215
4887.12
-83.3088
4804.51
50.5493
4718.54
228.93
4621.43
471.996
4503.78
757.372
4356.33
1058.7
4170.62
1406.07
3944.18
1856.95
3687.13
2396.52
3418.06
2909.83
3152.28
3274.76
2896.57
3444.86
2652.19
3444.38
2419.22
3324.14
2198.77
3129.93
1993.47
2891.88
1807.62
2625.37
1647.36
2335.67
1521.51
2021.48
1435.85
1701.02
1410.05
1351.56
1397.5
1165.77
1366.44
1100.22
1335.42
1011.82
1343.72
859.974
1379.28
737.687
1381.73
683.404
1314.69
616.518
1184.41
474.793
1059.84
175.658
1005.92
-212.66
927.888
-528.85
701.845
-678.136
606.287
-750.561
633.001
-263.637
596.894
485.474
340.748
632.576
-258.238
305.287
-828.798
-130.428
-1143.83
-343.562
-1294.01
-342.024
-1480.61
-308.023
-1782.67
-248.074
-2158.76
-70.1829
-2576.87
144.203
-3043.31
391.352
-3396.11
863.204
1318.68
1961.51
-1953.55
2079.02
-1788.69
2186.98
-1630.36
2286.99
-1442.15
2377.3
-1207.78
2454.35
-909.965
2514.79
-554.14
2554.48
-169.252
2562.97
229.821
2542.29
537.409
2500.16
734.002
2441.76
860.121
2369.85
947.783
2286.59
1008.22
2192.92
1048.82
2087.82
1079.38
1969.06
1109.41
1832.29
1162.56
1670.02
1274.28
1471.92
1472.72
1228.99
1756.81
942.709
2090.56
620.868
2437.63
268.678
2765.16
-50.612
2962.24
-188.473
2735.94
-27.4889
1520.24
339.487
-1183.43
621.172
-2792.71
899.824
-3583.18
1186.51
-3891.78
1469.27
-3915.14
1739.01
-3773.13
1988.84
-3536.49
2213.45
-3254.5
2411.37
-2979.22
2588.41
-2774.54
2760.06
-2710.81
2948.66
-2840.59
3174.04
-3154.69
3442.86
-3551.42
3743.38
-3861.72
4046.4
-3922.45
4316.4
-3669.91
4527.6
-3168.19
4671.02
-2546.04
4751.76
-1925.26
4781.28
-1379.76
4769.99
-931.628
4726.43
-579.516
4659.38
-317.568
4576.46
-131.292
4483.12
10.0282
4385.25
148.422
4283.72
330.464
4172.43
583.286
4043.06
886.742
3884.21
1217.56
3684.58
1605.69
3443.11
2098.42
3176.05
2663.58
2907.2
3178.68
2652.09
3529.87
2414.12
3682.84
2190.74
3667.76
1979.44
3535.43
1780
3329.37
1594.57
3077.3
1427.32
2792.61
1284.95
2478.04
1178.19
2128.24
1117.56
1761.65
1138.41
1330.71
1173.27
1130.91
1176.21
1097.28
1168.44
1019.58
1181.88
846.54
1204.67
714.892
1187.27
700.804
1094.89
708.9
963.463
606.222
838.82
300.301
745.869
-119.709
450.93
-233.911
-202.182
-25.0226
-840.163
-112.581
-1139.61
35.814
-1084.78
430.64
-1100.43
648.231
-1228.38
433.237
-1413.22
54.4055
-1647.98
-108.798
-1914.6
-75.4024
-2208.27
-14.3567
-2543.56
87.2206
-2894.79
281.042
-3269.18
518.595
-3672.63
794.801
-4003.77
1194.34
1546.39
1881.83
-2071.73
1989.92
-1896.78
2088.04
-1728.48
2180.15
-1534.26
2265.03
-1292.66
2338.64
-983.567
2396.35
-611.853
2432.53
-205.434
2436.64
225.712
2413.08
560.971
2370.58
776.504
2313.53
917.167
2243.73
1017.59
2162.93
1089.02
2071.7
1140.05
1967.58
1183.51
1845.8
1231.19
1699.49
1308.87
1520.05
1453.72
1298.7
1694.07
1031.68
2023.82
727.198
2395.05
387.252
2777.58
37.7109
3114.71
-208.976
3208.93
-248.391
2775.36
-44.3372
1316.19
289.749
-1517.52
542.571
-3045.54
800.641
-3841.25
1068.25
-4159.38
1333.81
-4180.7
1589.25
-4028.57
1827.66
-3774.89
2042.65
-3469.49
2231.37
-3167.94
2398.68
-2941.85
2559.58
-2871.71
2735.98
-3016.99
2947.27
-3365.98
3200.82
-3804.97
3486.85
-4147.75
3776.91
-4212.51
4034.11
-3927.11
4231.23
-3365.31
4359.24
-2674.05
4424.5
-1990.52
4439.9
-1395.16
4416.48
-908.209
4363.01
-526.042
4287.29
-241.849
4194.21
-38.2073
4089.35
114.891
3978.73
259.038
3862.5
446.697
3737.1
708.689
3594.61
1029.23
3421.49
1390.68
3204.89
1822.29
2947.33
2355.98
2671.93
2938.97
2406.05
3444.57
2163.48
3772.44
1943.65
3902.67
1740.69
3870.72
1550.05
3726.07
1370.24
3509.18
1202.76
3244.79
1051.98
2943.39
926.449
2603.57
842.099
2212.59
820.225
1783.52
906.544
1244.39
978.487
1058.97
1009.57
1066.2
1054.15
975
1068.74
831.949
1012.34
771.289
910.844
802.3
819.796
799.949
761.992
664.025
382.599
679.694
-433.051
695.94
-1066.96
399.998
-1152.93
60.9449
-1245.07
-20.4392
-1408.64
199.383
-1474.03
496.027
-1526.12
700.327
-1670.25
577.366
-1939.5
323.651
-2248.22
199.926
-2555.11
231.488
-2878.47
309.005
-3222.14
430.887
-3569.03
627.936
-3925.05
874.616
-4283.15
1152.89
-4574.24
1485.43
1752.78
1799.06
-2180.17
1895.45
-1993.16
1982.56
-1815.59
2066.27
-1617.96
2145.7
-1372.09
2216.62
-1054.48
2274.01
-669.246
2311.25
-242.673
2314.84
222.119
2288.71
587.104
2243.37
821.848
2184.24
976.297
2113.25
1088.58
2032.35
1169.92
1942.07
1230.33
1838.33
1287.25
1712.84
1356.68
1554.99
1466.72
1355.33
1653.38
1109.51
1939.9
821.343
2311.98
499.947
2716.44
150.193
3127.33
-157.503
3422.4
-308.982
3360.41
-289.022
2755.4
-63.0386
1090.21
237.319
-1817.87
462.441
-3270.66
699.076
-4077.88
947.085
-4407.39
1196.11
-4429.73
1439.01
-4271.47
1668.45
-4004.32
1876.46
-3677.5
2058.25
-3349.73
2217.18
-3100.78
2367.53
-3022.06
2531.01
-3180.46
2727.11
-3562.08
2964.4
-4042.25
3235.26
-4418.61
3512.15
-4489.41
3756.68
-4171.63
3939.79
-3548.42
4052.12
-2786.37
4101.21
-2039.61
4101.73
-1395.67
4066.07
-872.55
4003.51
-463.483
3919.42
-157.762
3817.32
63.8939
3703.56
228.655
3581.98
380.619
3452.66
576.019
3313.64
847.712
3156.64
1186.23
2966.11
1581.2
2729.75
2058.66
2456.24
2629.48
2175.54
3219.67
1916.21
3703.9
1688.4
4000.25
1487.16
4103.92
1303.58
4054.29
1131.53
3898.13
969.148
3671.56
818.959
3394.98
687.296
3075.06
585.297
2705.56
530.302
2267.58
551.269
1762.56
677.198
1118.46
823.553
912.615
1002.57
887.178
1092.62
884.955
990.649
933.918
820.862
941.077
724.348
898.814
539.062
985.235
134.339
1068.75
-349.087
1163.12
-688.663
1035.52
-969.435
680.771
-1256.61
348.124
-1518.22
241.167
-1726.8
407.962
-1881.07
650.295
-2003.46
822.723
-2185.47
759.375
-2462.6
600.781
-2783.65
520.977
-3106.01
553.844
-3438.88
641.881
-3784.55
776.552
-4127.37
970.76
-4457.81
1205.05
-4763.98
1459.06
-5005.87
1727.33
1931.1
1713.49
-2276.72
1798.3
-2077.97
1875.73
-1893.02
1951.38
-1693.62
2024.24
-1444.94
2090.66
-1120.91
2146.69
-725.27
2186.25
-282.235
2192.69
215.683
2167.27
612.526
2120.63
868.492
2059.09
1037.83
1985.2
1162.48
1901.6
1253.52
1809.34
1322.59
1703.07
1393.53
1570.6
1489.15
1397.35
1639.97
1174.84
1875.9
906.273
2208.46
600.066
2618.19
260.573
3055.94
-73.0472
3460.96
-301.023
3650.38
-364.169
3423.56
-292.899
2684.13
-57.1719
854.493
184.134
-2059.18
382.261
-3468.78
596.585
-4292.2
824.912
-4635.72
1058.52
-4663.33
1290.87
-4503.82
1513.71
-4227.17
1716.95
-3880.74
1893.34
-3526.12
2044.42
-3251.86
2183.87
-3161.51
2333.74
-3330.34
2514.07
-3742.41
2734.35
-4262.53
2989.1
-4673.36
3252.1
-4752.41
3483.73
-4403.26
3652.95
-3717.64
3749.6
-2883.02
3782.08
-2072.09
3767.24
-1380.83
3719.6
-824.916
3647.88
-391.761
3554.58
-64.4651
3444.72
173.762
3323.77
349.6
3192.67
511.723
3052.08
716.606
2899.98
999.817
2726.71
1359.5
2515.42
1792.5
2257.41
2316.66
1969.94
2916.95
1688.53
3501.09
1439.72
3952.71
1228.24
4211.73
1044.86
4287.29
879.039
4220.12
725.137
4052.03
582.576
3814.12
454.184
3523.37
343.874
3185.37
256.105
2793.33
191.909
2331.78
199.131
1755.33
369.095
948.497
661.4
620.309
897.187
651.391
857.964
924.178
698.131
1093.75
474.284
1164.92
169.246
1203.85
-218.044
1372.52
-571.017
1421.72
-744.799
1336.9
-879.862
1170.58
-1128.77
929.681
-1454.35
673.699
-1775.3
562.123
-2043.28
675.942
-2261.53
868.54
-2441.73
1002.93
-2655.68
973.327
-2931.99
877.089
-3245.24
834.226
-3566.59
875.19
-3893.62
968.918
-4222.15
1105.08
-4537.19
1285.8
-4826.86
1494.72
-5080.22
1712.43
-5276.67
1923.77
2081.96
1624.78
-2359.86
1702.77
-2155.96
1774.31
-1964.56
1843.25
-1762.56
1908.55
-1510.24
1967.35
-1179.71
2017.76
-775.684
2057.09
-321.558
2067.19
205.579
2045.47
634.252
2000.38
913.574
1938.1
1100.12
1861.49
1239.08
1773.91
1341.11
1676.93
1419.57
1563.97
1506.48
1419.18
1633.94
1225.69
1833.47
979.527
2122.06
691.854
2496.14
367.555
2942.49
24.552
3398.94
-254.935
3740.44
-393.29
3788.73
-396.211
3426.48
-290.112
2578.04
-45.5112
609.899
132.871
-2237.56
303.533
-3639.44
494.698
-4483.37
703.662
-4844.68
923.134
-4882.8
1146.72
-4727.4
1364.75
-4445.2
1564.56
-4080.55
1736.2
-3697.76
1879.34
-3395
2007.35
-3289.52
2143.17
-3466.16
2307.34
-3906.58
2509.78
-4464.97
2746.93
-4910.5
2994.6
-5000.09
3212.62
-4621.29
3367.98
-3872.99
3449.13
-2964.17
3465.02
-2087.98
3435.46
-1351.27
3376.93
-766.382
3295.27
-310.108
3192.31
38.4945
3075.8
290.275
2948.2
477.201
2809.27
650.651
2659.01
866.875
2493.82
1165.01
2301.8
1551.51
2066.69
2027.61
1787.08
2596.27
1489.7
3214.33
1212.56
3778.23
977.31
4187.96
783.201
4405.84
618.552
4451.94
472.391
4366.28
338.542
4185.88
213.48
3939.18
95.3372
3641.51
-16.0012
3296.71
-123.413
2900.75
-229.21
2437.58
-268.536
1794.66
-155.606
835.567
-61.2778
525.981
-44.3436
634.459
-19.4169
899.252
-100.939
1175.27
-301.731
1365.72
-540.428
1442.55
-786.068
1618.16
-1009.64
1645.3
-1118.74
1446
-1244.93
1296.77
-1472.44
1157.2
-1767.44
968.699
-2083.05
877.73
-2365.9
958.799
-2604.57
1107.2
-2813.1
1211.46
-3043.15
1203.38
-3316.65
1150.58
-3618.07
1135.65
-3925.9
1183.02
-4232.22
1275.24
-4529.38
1402.23
-4804.65
1561.07
-5048.31
1738.38
-5253.09
1917.21
-5410.9
2081.58
2208.11
1536.6
-2447.19
1613.13
-2232.49
1678.99
-2030.41
1741.61
-1825.19
1800.82
-1569.46
1852.86
-1231.74
1895.13
-817.955
1927.96
-354.387
1936.41
197.132
1917.81
652.847
1876.93
954.458
1817.06
1159.99
1739.89
1316.25
1648.68
1432.32
1545.06
1523.19
1420.86
1630.69
1257.58
1797.22
1040.12
2050.92
772.041
2390.14
466.715
2801.46
131.175
3278.03
-182.655
3712.77
-383.124
3940.91
-446.548
3852.16
-413.812
3393.74
-292.925
2457.15
-31.8192
348.804
83.9885
-2353.37
227.346
-3782.8
395.004
-4651.03
585.132
-5034.81
791.578
-5089.25
1007.57
-4943.39
1221.64
-4659.27
1418.42
-4277.33
1585.31
-3864.64
1720.24
-3529.93
1836.53
-3405.81
1958.11
-3587.74
2105.79
-4054.25
2289.36
-4648.53
2506.97
-5128.12
2737.2
-5230.31
2940.29
-4824.38
3081.41
-4014.11
3147.2
-3029.96
3147.17
-2087.95
3104.77
-1308.87
3037.14
-698.751
2944.76
-217.725
2832.34
150.914
2709.91
412.709
2576.33
610.777
2431.04
795.946
2272.03
1025.89
2092.7
1344.33
1878.85
1765.37
1617.7
2288.76
1318.37
2895.6
1016.63
3516.07
749.942
4044.92
532.974
4404.93
358.86
4579.96
212.328
4598.47
80.0038
4498.6
-45.0487
4310.93
-163.564
4057.69
-273.324
3751.27
-377.328
3400.71
-481.838
3005.26
-555.816
2511.55
-554.023
1792.86
-728.438
1009.98
-739.012
536.555
-639.846
535.294
-516.841
776.247
-527.992
1186.43
-654.046
1491.77
-908.809
1697.31
-1141.9
1851.26
-1308.08
1811.47
-1442.36
1580.28
-1600.84
1455.24
-1814.55
1370.91
-2085.07
1239.22
-2381.04
1173.7
-2655.74
1233.51
-2896.44
1347.9
-3116.22
1431.24
-3351.28
1438.45
-3616.54
1415.85
-3900.46
1419.56
-4185.69
1468.26
-4462.37
1551.91
-4722.08
1661.94
-4955.09
1794.08
-5154.82
1938.11
-5317.7
2080.09
-5443.47
2207.35
2312.77
1456.25
-2529.18
1523.43
-2299.67
1580.03
-2087.01
1636.13
-1881.28
1691.58
-1624.9
1741.38
-1281.54
1780.69
-857.262
1807.74
-381.438
1808.74
196.138
1786.88
674.707
1747.87
993.464
1691.76
1216.1
1616.54
1391.48
1523.13
1525.72
1411.57
1634.76
1271.43
1770.83
1084.38
1984.27
842.335
2292.97
554.155
2678.32
230.749
3124.87
-93.1977
3601.98
-341.474
3961.05
-462.525
4061.97
-473.723
3863.36
-416.97
3336.99
-294.108
2334.29
-48.4782
103.182
37.5039
-2439.35
154.789
-3900.08
299.03
-4795.27
470.819
-5206.6
664.879
-5283.31
873.628
-5152.14
1083.67
-4869.31
1277.11
-4470.78
1438.98
-4026.51
1565.72
-3656.67
1670.56
-3510.65
1778.01
-3695.19
1908.69
-4184.93
2072.1
-4811.94
2268.05
-5324.06
2478.27
-5440.53
2664.54
-5010.65
2790.67
-4140.24
2841.2
-3080.48
2826.56
-2073.31
2773.99
-1256.3
2698.82
-623.573
2595.5
-114.411
2475.01
271.406
2346.76
540.965
2208.28
749.259
2057.72
946.499
1889.94
1193.67
1693.8
1540.47
1453.98
2005.19
1166.22
2576.52
853.596
3208.22
557.151
3812.51
306.693
4295.38
106.176
4605.44
-55.1494
4741.28
-188.78
4732.1
-304.848
4614.67
-412.792
4418.87
-517.994
4162.9
-623.675
3856.95
-731.352
3508.39
-820.39
3094.29
-821.852
2513.02
-707.685
1678.7
-608.294
910.591
-596.503
524.765
-618.228
557.02
-645.202
803.222
-707.62
1248.84
-884.059
1668.21
-1145.18
1958.43
-1372.5
2078.58
-1548.64
1987.62
-1727.13
1758.77
-1911.61
1639.72
-2119.92
1579.22
-2371.38
1490.68
-2644.32
1446.64
-2903.81
1493
-3139.03
1583.12
-3360.26
1652.47
-3591.95
1670.13
-3843.03
1666.93
-4104.06
1680.59
-4360.89
1725.08
-4603.8
1794.83
-4825.26
1883.4
-5018.4
1987.23
-5179.34
2099.05
-5307.33
2208.08
-5406.93
2306.96
2398.99
1370.92
-2602.59
1427.74
-2356.49
1475.54
-2134.81
1525.33
-1931.07
1576.74
-1676.31
1624.6
-1329.4
1663.36
-896.024
1689.34
-407.413
1685.22
200.263
1657.33
702.597
1616.07
1034.72
1561.91
1270.27
1489.29
1464.1
1394.5
1620.51
1273.24
1756.02
1112.71
1931.37
899.316
2197.66
634.192
2558.1
324.357
2988.15
-4.0772
3453.31
-280.865
3878.77
-448.851
4129.04
-507.2
4120.32
-485.226
3841.39
-411.483
3263.25
-289.281
2212.09
-86.5564
-99.5361
-6.66597
-2519.24
86.5957
-3993.34
208.119
-4916.79
361.855
-5360.33
543.555
-5465.01
744.612
-5353.2
949.856
-5074.55
1139.33
-4660.25
1296.08
-4183.25
1415.15
-3775.73
1509.33
-3604.84
1602.95
-3788.82
1715.82
-4297.79
1857.45
-4953.57
2029.55
-5496.16
2217.16
-5628.15
2384.53
-5178.02
2494.76
-4250.47
2530.29
-3116.01
2502.95
-2045.98
2443.01
-1196.36
2361.04
-541.604
2247.14
-0.502914
2120.4
398.144
1986.67
674.699
1844.42
891.504
1689.22
1101.7
1510.54
1372.35
1292.61
1758.41
1024.83
2272.97
716.735
2884.61
399.363
3525.6
109.448
4102.43
-127.442
4532.27
-307.633
4785.63
-446.16
4879.81
-561.965
4847.91
-668.958
4721.66
-774.128
4524.04
-879.822
4268.59
-985.335
3962.46
-1077.41
3600.46
-1116.73
3133.62
-1064.19
2460.48
-978.855
1593.36
-949.881
881.617
-966.436
541.32
-968.867
559.451
-996.328
830.682
-1050.38
1302.9
-1179.25
1797.07
-1380.36
2159.55
-1591.75
2289.96
-1789.9
2185.77
-1992.06
1960.94
-2185.68
1833.33
-2388.35
1781.89
-2621.84
1724.17
-2872.14
1696.94
-3114.56
1735.42
-3340.3
1808.86