/*--------------------------------*- C++ -*----------------------------------*\
| =========                 |                                                 |
| \\      /  F ield         | OpenFOAM: The Open Source CFD Toolbox           |
|  \\    /   O peration     | Version:  4.1                                   |
|   \\  /    A nd           | Web:      www.OpenFOAM.org                      |
|    \\/     M anipulation  |                                                 |
\*---------------------------------------------------------------------------*/
FoamFile
{
    version     2.0;
    format      ascii;
    class       volVectorField;
    location    "800";
    object      U;
}
// * * * * * * * * * * * * * * * * * * * * * * * * * * * * * * * * * * * * * //

dimensions      [0 1 -1 0 0 0 0];

internalField   nonuniform List<vector> 
26785
(
(9.9736e-16 -0.0524023 20.0672)
(1.0278e-15 -0.0396277 20.972)
(1.13837e-15 -0.0300113 21.6559)
(1.43657e-15 -0.0177317 22.116)
(1.64701e-16 -0.00265221 22.311)
(3.18857e-15 0.0144848 22.1976)
(3.19576e-15 0.0307881 21.7748)
(3.23433e-15 0.0439702 21.0914)
(-3.50695e-16 0.0540681 20.2163)
(2.25062e-15 0.0605169 19.2191)
(2.12559e-15 0.063671 18.1688)
(3.71116e-15 0.0645838 17.1158)
(3.41542e-15 0.0639419 16.0898)
(1.92278e-15 0.0619375 15.1102)
(3.88292e-16 0.0587388 14.1933)
(-2.2398e-16 0.0547582 13.3506)
(3.07896e-16 0.0506337 12.5855)
(1.38318e-15 0.0473661 11.891)
(2.81111e-15 0.0460225 11.2453)
(3.11578e-15 0.0471854 10.616)
(7.29e-16 0.0507048 9.96927)
(1.70113e-15 0.0557335 9.2786)
(-3.32357e-17 0.0612488 8.53506)
(-1.82233e-15 0.0671255 7.73855)
(-7.62593e-15 0.0731958 6.87867)
(-1.20437e-14 0.0751541 5.98)
(-7.59337e-15 0.0691837 5.10612)
(-2.645e-15 0.0417518 4.41011)
(1.67646e-15 -0.0103436 4.17078)
(-4.53554e-15 -0.0460678 4.48269)
(-1.53071e-14 -0.0706337 5.31334)
(-1.51461e-14 -0.0956022 6.47726)
(-5.72122e-15 -0.110209 7.76031)
(-9.52321e-16 -0.112997 9.01209)
(4.66191e-15 -0.10836 10.1655)
(2.62461e-15 -0.101022 11.2048)
(1.85052e-15 -0.0945942 12.1434)
(1.52277e-15 -0.0915696 13.0145)
(3.29847e-15 -0.0932275 13.8633)
(5.74718e-15 -0.0992322 14.7366)
(2.46807e-15 -0.107358 15.6662)
(5.54423e-15 -0.113919 16.6547)
(5.06356e-15 -0.115101 17.6683)
(7.19939e-15 -0.10886 18.6466)
(2.3697e-15 -0.0958636 19.5257)
(4.58707e-15 -0.078732 20.2599)
(4.67361e-15 -0.0606041 20.8322)
(5.8283e-15 -0.0439562 21.2505)
(6.0543e-15 -0.0301303 21.5378)
(6.86226e-15 -0.0194646 21.722)
(3.70915e-15 -0.0114911 21.8289)
(5.283e-15 -0.00506851 21.8774)
(4.9741e-15 0.00125592 21.8751)
(5.24653e-15 0.00858442 21.8193)
(5.51674e-15 0.0170404 21.7021)
(5.52658e-15 0.0258356 21.5213)
(8.91213e-15 0.0348997 21.2824)
(7.10277e-15 0.0466646 20.9824)
(6.9027e-15 0.0647127 20.5876)
(8.3018e-15 0.08982 20.04)
(7.93739e-15 0.117829 19.2956)
(8.59181e-15 0.142077 18.3608)
(8.7351e-15 0.157882 17.2919)
(9.45976e-15 0.164449 16.1637)
(7.80362e-15 0.16361 15.0405)
(8.35121e-15 0.15789 13.964)
(8.29485e-15 0.14938 12.9569)
(7.97459e-15 0.139463 12.0283)
(7.185e-15 0.128934 11.1806)
(6.53304e-15 0.11821 10.4124)
(5.83678e-15 0.10752 9.72121)
(4.28128e-15 0.0971684 9.10343)
(2.54241e-15 0.0874065 8.55478)
(1.59513e-15 0.079191 8.0678)
(-1.63958e-16 0.0727149 7.62985)
(2.904e-16 0.0672615 7.231)
(1.55278e-15 0.0624671 6.86601)
(1.79656e-16 0.0574104 6.52985)
(-1.00453e-15 0.049529 6.22885)
(-3.31897e-15 0.0381099 5.98537)
(-5.4886e-15 0.0255702 5.81476)
(-8.71527e-15 0.0136064 5.7137)
(-1.45492e-14 0.00208748 5.67323)
(-2.06204e-14 -0.00981845 5.69112)
(-2.81172e-14 -0.0208107 5.77159)
(-3.50434e-14 -0.0259958 5.90066)
(-3.84456e-14 -0.0259466 6.04272)
(-3.96613e-14 -0.0289597 6.18337)
(-3.84486e-14 -0.041533 6.35669)
(-3.63922e-14 -0.0608585 6.61082)
(-3.32067e-14 -0.0786906 6.95612)
(-2.97228e-14 -0.0920711 7.36684)
(-2.67583e-14 -0.103315 7.8228)
(-2.48149e-14 -0.113617 8.32579)
(-2.33505e-14 -0.123031 8.885)
(-2.25048e-14 -0.130383 9.50516)
(-2.13009e-14 -0.137336 10.1678)
(-1.94678e-14 -0.127819 10.8706)
(-1.78182e-14 -0.120473 11.4123)
(-1.51258e-14 -0.0768649 12.1034)
(1.46999e-15 -0.131604 20.3364)
(1.78226e-15 -0.102957 21.2184)
(7.72435e-16 -0.0792823 21.8807)
(1.55106e-15 -0.0466716 22.3258)
(-5.70006e-17 -0.00560398 22.5241)
(3.37064e-15 0.0425229 22.4399)
(1.42677e-15 0.0904858 22.0616)
(2.32269e-15 0.131166 21.4097)
(3.90893e-15 0.16294 20.5475)
(3.94018e-15 0.183289 19.5513)
(5.33849e-15 0.19326 18.4969)
(5.38484e-15 0.19623 17.4386)
(4.36188e-15 0.194488 16.4069)
(2.70537e-15 0.188799 15.4206)
(2.6279e-15 0.179783 14.4938)
(1.51492e-15 0.168664 13.6355)
(1.40484e-15 0.157198 12.8469)
(4.96585e-15 0.148143 12.1203)
(4.88628e-15 0.144519 11.4348)
(4.62755e-15 0.148104 10.76)
(3.20004e-15 0.158605 10.0643)
(1.08773e-15 0.173599 9.32296)
(3.86405e-15 0.190209 8.52798)
(9.46669e-16 0.20832 7.67682)
(1.66067e-15 0.227143 6.75621)
(1.26101e-15 0.231798 5.79851)
(-4.01765e-15 0.210009 4.89047)
(-6.07242e-15 0.130433 4.16991)
(-9.17639e-15 -0.013573 3.80588)
(-9.45185e-15 -0.158057 4.1656)
(-1.06937e-14 -0.295368 5.37592)
(-4.1311e-15 -0.373396 6.85392)
(-2.79727e-15 -0.387914 8.28429)
(-4.25219e-15 -0.369055 9.58014)
(-7.81936e-15 -0.338755 10.7341)
(-1.06997e-14 -0.308723 11.7594)
(-7.85496e-15 -0.286117 12.6809)
(-4.77762e-15 -0.275969 13.5353)
(-1.49277e-15 -0.280796 14.3693)
(9.12331e-16 -0.298925 15.2294)
(2.75775e-15 -0.323343 16.1473)
(7.22801e-16 -0.342838 17.1249)
(3.06012e-15 -0.345988 18.1272)
(2.87985e-15 -0.326832 19.0927)
(4.71345e-15 -0.287518 19.9568)
(4.37041e-15 -0.235911 20.6745)
(5.59295e-15 -0.181253 21.2292)
(6.76125e-15 -0.130703 21.6287)
(1.1882e-14 -0.0880579 21.8951)
(7.48569e-15 -0.054283 22.0544)
(1.23962e-14 -0.0281769 22.131)
(9.21497e-15 -0.00662677 22.1431)
(7.46712e-15 0.014531 22.0992)
(9.7667e-15 0.0383196 21.9974)
(4.87616e-15 0.0645234 21.8293)
(6.52133e-15 0.0903515 21.5912)
(5.12069e-15 0.115994 21.2902)
(5.69296e-15 0.150334 20.9327)
(5.13419e-15 0.206294 20.4963)
(5.84641e-15 0.286852 19.922)
(5.65735e-15 0.377289 19.1526)
(7.30516e-15 0.454219 18.1838)
(6.03654e-15 0.50179 17.0719)
(5.28109e-15 0.518077 15.899)
(6.92799e-15 0.510204 14.7362)
(7.17002e-15 0.487283 13.6296)
(7.73564e-15 0.456554 12.6025)
(8.80767e-15 0.42257 11.6634)
(7.59896e-15 0.387764 10.8128)
(3.51381e-15 0.353252 10.0477)
(4.58324e-15 0.319534 9.36406)
(3.30164e-15 0.287325 8.75719)
(3.51661e-16 0.25721 8.22216)
(-8.83121e-16 0.232111 7.75085)
(-6.64801e-16 0.212448 7.3295)
(-3.38264e-15 0.195885 6.94769)
(-8.38552e-15 0.181352 6.5998)
(-9.74438e-15 0.166263 6.28012)
(-1.16502e-14 0.143022 5.99405)
(-1.37893e-14 0.109166 5.76388)
(-1.70899e-14 0.0719405 5.60625)
(-1.95831e-14 0.037599 5.51755)
(-2.6638e-14 0.00652301 5.48465)
(-3.15425e-14 -0.0260785 5.50138)
(-3.17686e-14 -0.0591215 5.57536)
(-2.8749e-14 -0.07691 5.694)
(-2.02148e-14 -0.0787568 5.81616)
(-6.83356e-15 -0.0881754 5.92166)
(8.48415e-15 -0.124096 6.04564)
(1.72225e-14 -0.177268 6.24334)
(1.79898e-14 -0.22223 6.53209)
(1.41143e-14 -0.252393 6.89297)
(8.72705e-15 -0.280859 7.31771)
(2.74066e-15 -0.31709 7.81803)
(-1.02941e-15 -0.360653 8.39849)
(-1.75771e-15 -0.40122 9.04321)
(-1.17681e-15 -0.434394 9.71942)
(-2.77799e-16 -0.409169 10.4011)
(5.07053e-16 -0.37408 10.9231)
(1.70873e-15 -0.22775 11.4616)
(1.77674e-15 -0.217423 20.3155)
(1.66448e-16 -0.174256 21.1617)
(2.07176e-15 -0.134125 21.7881)
(1.13764e-15 -0.0802611 22.2079)
(-9.5996e-16 -0.0139618 22.4033)
(5.28738e-16 0.0639218 22.3455)
(-1.39502e-15 0.143668 22.0171)
(8.23323e-16 0.213529 21.4177)
(9.55338e-16 0.268809 20.5974)
(1.49864e-15 0.304223 19.633)
(1.76239e-15 0.321587 18.6036)
(1.63966e-15 0.326918 17.5662)
(1.26082e-15 0.324387 16.5514)
(8.67233e-16 0.315534 15.5768)
(9.32269e-16 0.301553 14.6546)
(2.65753e-15 0.284503 13.7914)
(1.50095e-15 0.267168 12.9874)
(3.44652e-15 0.253882 12.2345)
(1.57132e-15 0.249406 11.5128)
(5.28063e-15 0.256558 10.7935)
(6.31009e-15 0.27483 10.0467)
(6.97368e-15 0.300267 9.24958)
(7.88237e-15 0.328575 8.39445)
(5.97638e-15 0.359996 7.47448)
(5.7805e-15 0.39184 6.47364)
(1.59281e-15 0.395803 5.44259)
(-4.28144e-15 0.35976 4.48484)
(-1.27899e-14 0.232175 3.64608)
(-1.39202e-14 -0.0258342 3.21683)
(-1.03322e-14 -0.346679 4.05247)
(-9.84109e-15 -0.581516 5.60478)
(-9.58771e-15 -0.660897 7.12241)
(-1.14781e-14 -0.649575 8.48792)
(-1.07128e-14 -0.605163 9.71287)
(-1.1934e-14 -0.552632 10.8078)
(-9.88608e-15 -0.503793 11.782)
(-9.55214e-15 -0.467741 12.6555)
(-8.66508e-15 -0.452211 13.4627)
(-7.64536e-15 -0.461383 14.2495)
(-6.36711e-15 -0.492544 15.0632)
(-4.50553e-15 -0.533983 15.937)
(-2.68192e-15 -0.566865 16.8733)
(-1.27844e-15 -0.572028 17.8361)
(7.68008e-16 -0.539639 18.7615)
(3.1665e-15 -0.473581 19.5828)
(5.35901e-15 -0.387227 20.2547)
(6.93346e-15 -0.296009 20.7618)
(7.80907e-15 -0.211645 21.1138)
(8.18609e-15 -0.140151 21.3335)
(8.56305e-15 -0.0829451 21.4474)
(8.97171e-15 -0.0381452 21.4791)
(9.40701e-15 -0.000965517 21.4473)
(9.6674e-15 0.0353017 21.362)
(9.71626e-15 0.0762868 21.2231)
(9.02756e-15 0.122747 21.0196)
(1.14393e-14 0.169289 20.7376)
(9.91628e-15 0.212287 20.3802)
(8.67906e-15 0.262807 19.969)
(8.50104e-15 0.344543 19.5153)
(4.81765e-15 0.470076 18.9809)
(4.19128e-15 0.619807 18.2929)
(3.80346e-15 0.752683 17.4113)
(4.2256e-15 0.837268 16.3675)
(4.55486e-15 0.867273 15.2388)
(7.18732e-15 0.85424 14.1025)
(6.25648e-15 0.814338 13.0128)
(6.46051e-15 0.760699 11.999)
(7.638e-15 0.701605 11.0729)
(7.12155e-15 0.641439 10.2366)
(7.13328e-15 0.582146 9.4877)
(6.88706e-15 0.524505 8.82233)
(5.99542e-15 0.469663 8.2357)
(3.59157e-15 0.418449 7.72326)
(3.74572e-15 0.376152 7.2766)
(4.89045e-15 0.343234 6.88035)
(4.30821e-15 0.315603 6.52341)
(2.63013e-15 0.291761 6.19987)
(-3.02399e-16 0.267351 5.90285)
(-3.32942e-15 0.229165 5.63581)
(-4.97516e-15 0.172668 5.42021)
(-5.11823e-15 0.110609 5.27587)
(-5.1562e-15 0.0545437 5.20263)
(-1.225e-14 0.00581428 5.18662)
(-1.58623e-14 -0.045129 5.217)
(-4.46927e-15 -0.0969517 5.29999)
(1.54517e-14 -0.119502 5.41695)
(3.50566e-14 -0.111087 5.51444)
(4.60062e-14 -0.115738 5.5689)
(4.50718e-14 -0.170378 5.63316)
(3.10905e-14 -0.260971 5.79365)
(1.41336e-14 -0.344209 6.08515)
(1.92305e-15 -0.411298 6.48113)
(-4.04578e-15 -0.481834 6.94686)
(-4.76507e-15 -0.55921 7.4529)
(-2.65895e-15 -0.630988 7.97038)
(-2.57785e-16 -0.681572 8.47996)
(9.93101e-16 -0.713222 8.98448)
(1.12066e-15 -0.654503 9.48566)
(7.39749e-16 -0.560566 9.87579)
(6.35303e-16 -0.311718 10.1215)
(1.77562e-15 -0.300326 20.0557)
(5.23502e-16 -0.24146 20.8389)
(1.35057e-15 -0.185612 21.4098)
(1.83162e-15 -0.113361 21.7964)
(1.10193e-15 -0.025494 21.9913)
(-1.71371e-15 0.0787916 21.9696)
(-2.3343e-15 0.188549 21.7082)
(-1.13542e-15 0.287663 21.1843)
(-7.6911e-16 0.367478 20.4291)
(5.66203e-16 0.418958 19.5171)
(4.0612e-16 0.44454 18.5307)
(-4.37882e-16 0.453021 17.5287)
(-9.99576e-16 0.450602 16.542)
(-1.91702e-15 0.439686 15.5868)
(-1.36702e-15 0.422067 14.674)
(-1.38489e-15 0.400586 13.809)
(-1.09524e-15 0.378927 12.9919)
(2.4322e-16 0.362882 12.215)
(4.31071e-15 0.358874 11.4596)
(3.48723e-15 0.370743 10.6976)
(6.08577e-15 0.397752 9.90073)
(6.05141e-15 0.434528 9.04749)
(6.32171e-15 0.475911 8.12963)
(5.78099e-15 0.522516 7.13461)
(6.09743e-15 0.567525 6.04733)
(2.76616e-15 0.56912 4.94343)
(-4.63158e-15 0.529347 3.9044)
(-1.07707e-14 0.330476 2.91485)
(-8.26976e-15 -0.108115 2.75133)
(-1.18833e-14 -0.610239 4.11601)
(-1.42332e-14 -0.876693 5.71576)
(-1.40597e-14 -0.932217 7.13692)
(-1.34575e-14 -0.898322 8.42307)
(-1.18128e-14 -0.833989 9.59248)
(-1.04919e-14 -0.761134 10.6399)
(-8.63774e-15 -0.693127 11.567)
(-4.55649e-15 -0.642627 12.3912)
(-7.82876e-15 -0.620817 13.147)
(-1.03459e-14 -0.63387 13.8812)
(-3.59304e-15 -0.67821 14.6435)
(-3.09921e-15 -0.737347 15.4703)
(-4.24188e-15 -0.784378 16.3656)
(-7.60828e-16 -0.791796 17.2909)
(4.41326e-15 -0.745663 18.177)
(4.54302e-15 -0.651937 18.953)
(6.82964e-15 -0.530055 19.5724)
(4.43111e-15 -0.402016 20.0219)
(3.43145e-15 -0.284155 20.3143)
(4.30756e-15 -0.184547 20.4755)
(7.85126e-15 -0.104887 20.5337)
(7.15698e-15 -0.0425335 20.5143)
(1.30663e-14 0.00883802 20.4371)
(1.01175e-14 0.0581782 20.3142)
(9.69033e-15 0.114186 20.1481)
(1.05307e-14 0.180442 19.9281)
(8.31864e-15 0.250223 19.6338)
(1.04014e-14 0.31375 19.2556)
(5.93884e-15 0.378117 18.807)
(6.61726e-15 0.473699 18.3133)
(3.09808e-15 0.627712 17.7688)
(5.33986e-15 0.825723 17.1196)
(2.85534e-15 1.01346 16.3136)
(3.36241e-15 1.14071 15.3563)
(3.3651e-15 1.19174 14.3065)
(4.08122e-15 1.17955 13.2355)
(5.06394e-15 1.12664 12.1984)
(7.82947e-15 1.05237 11.2274)
(6.21511e-15 0.969327 10.3375)
(6.10698e-15 0.884277 9.5332)
(6.36383e-15 0.800275 8.8139)
(7.06891e-15 0.718496 8.17728)
(8.74844e-15 0.640615 7.61957)
(8.86569e-15 0.567578 7.13772)
(1.00811e-14 0.507934 6.72357)
(5.94621e-15 0.462026 6.35954)
(8.04932e-15 0.423579 6.03356)
(7.93555e-15 0.390878 5.74003)
(4.90982e-15 0.358343 5.47029)
(3.94097e-15 0.307364 5.22405)
(2.62654e-15 0.229897 5.02161)
(1.3702e-15 0.142763 4.88959)
(-5.48047e-15 0.0632096 4.83576)
(-1.13434e-14 -0.00363278 4.84741)
(-6.43001e-15 -0.0719246 4.90867)
(1.23243e-14 -0.141139 5.02299)
(3.08246e-14 -0.16298 5.16351)
(3.74556e-14 -0.136222 5.26108)
(2.98811e-14 -0.133334 5.29086)
(1.30628e-14 -0.216665 5.33533)
(-3.91823e-15 -0.364877 5.511)
(-9.81593e-15 -0.500774 5.82498)
(-7.94087e-15 -0.597491 6.18217)
(-3.71856e-15 -0.67457 6.49948)
(6.48906e-16 -0.739752 6.75695)
(1.72319e-15 -0.792868 6.98634)
(9.03904e-16 -0.833953 7.22903)
(-1.58076e-15 -0.878597 7.53577)
(-4.48131e-15 -0.816609 7.89783)
(-6.76235e-15 -0.660388 8.21066)
(-7.66412e-15 -0.323835 8.17123)
(1.90215e-15 -0.378514 19.5875)
(1.38727e-15 -0.305157 20.2743)
(3.99961e-16 -0.23686 20.7829)
(1.23685e-16 -0.150081 21.1382)
(4.82531e-16 -0.0447732 21.3325)
(3.39362e-15 0.0818323 21.3449)
(5.60919e-16 0.219062 21.1545)
(-1.282e-17 0.347592 20.7256)
(-7.92357e-16 0.454023 20.0616)
(1.2097e-16 0.523739 19.2264)
(8.30574e-16 0.559272 18.3023)
(-9.49866e-16 0.572366 17.3498)
(-9.01151e-16 0.5715 16.4001)
(-4.30379e-15 0.560054 15.4688)
(-3.43528e-15 0.54042 14.5662)
(-9.07243e-16 0.516132 13.6986)
(-1.56295e-16 0.491691 12.8676)
(6.96329e-16 0.474353 12.0683)
(1.08282e-15 0.472231 11.2826)
(2.27183e-15 0.490138 10.4821)
(3.31202e-15 0.527005 9.63787)
(3.49189e-15 0.576206 8.72896)
(4.00134e-15 0.632317 7.74532)
(3.62792e-15 0.695941 6.6698)
(4.47317e-15 0.753593 5.49438)
(4.13093e-15 0.753451 4.31658)
(-6.15858e-15 0.716211 3.16451)
(-1.34461e-14 0.40977 2.06512)
(-9.0037e-15 -0.28618 2.53052)
(-1.6929e-14 -0.903592 4.1636)
(-1.909e-14 -1.15623 5.65836)
(-1.84731e-14 -1.18847 6.98626)
(-1.70918e-14 -1.13773 8.21548)
(-1.27161e-14 -1.055 9.33793)
(-9.61235e-15 -0.961589 10.3381)
(-9.92591e-15 -0.874038 11.2159)
(-6.19485e-15 -0.808839 11.9891)
(-3.50636e-15 -0.78067 12.6921)
(-1.71355e-15 -0.797934 13.3733)
(-1.17355e-15 -0.856469 14.0861)
(-3.07733e-16 -0.93487 14.8716)
(1.06741e-15 -0.99737 15.7352)
(4.18842e-15 -1.00714 16.6339)
(5.39247e-15 -0.945877 17.4899)
(7.74771e-15 -0.822263 18.226)
(8.61951e-15 -0.662741 18.7945)
(8.82868e-15 -0.496526 19.1845)
(9.08241e-15 -0.344763 19.4128)
(8.84446e-15 -0.217467 19.5092)
(1.34418e-14 -0.116432 19.505)
(1.33685e-14 -0.0381521 19.4277)
(2.00988e-14 0.025203 19.2995)
(2.09278e-14 0.0847595 19.1356)
(2.27546e-14 0.152459 18.9417)
(2.366e-14 0.23541 18.7071)
(1.93886e-14 0.327468 18.4088)
(2.00022e-14 0.41469 18.0279)
(1.75801e-14 0.498691 17.5679)
(1.71219e-14 0.610076 17.0514)
(1.37741e-14 0.785463 16.4874)
(1.23575e-14 1.01877 15.8449)
(6.21482e-15 1.25034 15.0812)
(4.39548e-15 1.41526 14.1923)
(2.98027e-15 1.48743 13.221)
(3.97916e-15 1.47874 12.2268)
(4.84249e-15 1.41615 11.2585)
(4.71403e-15 1.3243 10.3473)
(6.39812e-15 1.21973 9.5087)
(6.133e-15 1.11155 8.74899)
(6.29701e-15 1.00396 8.06945)
(5.80529e-15 0.898535 7.46984)
(6.12877e-15 0.797624 6.94814)
(8.64369e-15 0.70213 6.50391)
(1.12526e-14 0.625323 6.12965)
(8.1718e-15 0.567001 5.80444)
(5.8559e-15 0.518037 5.51458)
(-2.99749e-15 0.477374 5.25627)
(-6.74395e-15 0.439158 5.01838)
(-7.35107e-15 0.378422 4.79437)
(-8.64535e-15 0.281171 4.60325)
(-3.81167e-15 0.167451 4.48015)
(-7.78532e-15 0.060589 4.44728)
(-3.92733e-15 -0.028326 4.49582)
(1.74421e-14 -0.116674 4.59672)
(3.11849e-14 -0.203345 4.7454)
(2.87367e-14 -0.216519 4.91314)
(1.61233e-14 -0.15906 5.01257)
(4.98514e-16 -0.143949 5.01191)
(-1.01697e-14 -0.2631 5.01184)
(-9.37079e-15 -0.467692 5.11301)
(-2.7012e-15 -0.622134 5.27232)
(3.33479e-15 -0.691173 5.38083)
(3.79106e-15 -0.730092 5.40783)
(4.64992e-17 -0.781836 5.42323)
(-4.42181e-15 -0.856064 5.50826)
(-8.46431e-15 -0.940401 5.65579)
(-1.17688e-14 -1.04157 5.88809)
(-1.51666e-14 -0.979872 6.11979)
(-1.77901e-14 -0.715866 6.28627)
(-1.87608e-14 -0.276029 5.90738)
(1.92851e-15 -0.463212 18.892)
(5.29686e-16 -0.371259 19.5468)
(4.60941e-16 -0.290116 20.0371)
(1.30924e-17 -0.189794 20.3808)
(4.34134e-16 -0.0688767 20.5718)
(3.41095e-16 0.0770409 20.5943)
(-1.59591e-15 0.23806 20.4353)
(-2.11318e-15 0.39316 20.0683)
(-8.26668e-16 0.525842 19.4816)
(1.37789e-15 0.614865 18.724)
(1.36377e-15 0.661994 17.8704)
(3.49749e-16 0.681608 16.978)
(8.80254e-16 0.684359 16.0753)
(-9.42207e-17 0.674518 15.1766)
(-1.18662e-16 0.654926 14.2918)
(7.51696e-16 0.6296 13.4281)
(1.89626e-15 0.603709 12.5905)
(1.29845e-15 0.586145 11.7779)
(-7.63352e-16 0.587099 10.9735)
(-7.87351e-16 0.612584 10.1466)
(2.28185e-15 0.661068 9.26421)
(3.95682e-15 0.724609 8.30327)
(4.13886e-15 0.797742 7.25128)
(7.65353e-15 0.880059 6.09014)
(5.39347e-15 0.949575 4.82699)
(3.34812e-15 0.952195 3.5742)
(-2.73448e-15 0.924371 2.28584)
(-6.17576e-15 0.465549 1.23212)
(-1.1456e-14 -0.549411 2.46761)
(-1.82068e-14 -1.19543 4.1082)
(-1.80995e-14 -1.41749 5.47649)
(-1.37829e-14 -1.43447 6.73766)
(-1.27835e-14 -1.37016 7.91892)
(-1.05427e-14 -1.26922 8.99358)
(-9.28423e-15 -1.15492 9.94446)
(-7.31898e-15 -1.04748 10.7719)
(-4.65945e-15 -0.967196 11.4934)
(-3.03673e-15 -0.932469 12.1436)
(-2.07317e-15 -0.954431 12.7734)
(-1.93107e-15 -1.02876 13.4418)
(1.1321e-15 -1.12876 14.1955)
(5.82045e-15 -1.20852 15.04)
(4.79319e-15 -1.22058 15.9241)
(9.58717e-15 -1.14217 16.7594)
(8.36716e-15 -0.985697 17.4625)
(8.76808e-15 -0.785747 17.9848)
(8.30316e-15 -0.579429 18.3187)
(7.67845e-15 -0.392867 18.4853)
(7.35588e-15 -0.237873 18.5179)
(7.21998e-15 -0.11618 18.4505)
(7.41585e-15 -0.0234177 18.3127)
(7.91293e-15 0.0495369 18.1295)
(8.92569e-15 0.115922 17.92)
(1.10217e-14 0.191508 17.6937)
(1.42719e-14 0.287782 17.4413)
(1.79216e-14 0.400105 17.1391)
(2.13345e-14 0.510773 16.7606)
(2.30268e-14 0.615601 16.3009)
(2.67605e-14 0.744083 15.7758)
(2.21725e-14 0.93929 15.1967)
(1.76609e-14 1.20178 14.5482)
(9.21937e-15 1.46887 13.8037)
(5.21802e-15 1.66486 12.9627)
(3.18178e-15 1.75514 12.0592)
(3.07745e-15 1.75012 11.1404)
(4.28265e-15 1.67984 10.2459)
(5.51587e-15 1.57308 9.40188)
(5.16675e-15 1.44957 8.62255)
(6.07875e-15 1.32041 7.91477)
(5.57961e-15 1.19075 7.28143)
(4.46981e-15 1.06246 6.72464)
(5.91391e-15 0.93866 6.24448)
(5.88842e-15 0.819717 5.8441)
(5.54374e-15 0.725975 5.51684)
(9.71408e-15 0.656404 5.23644)
(1.10023e-14 0.597909 4.98721)
(4.04233e-15 0.550443 4.76922)
(5.32309e-16 0.508969 4.56748)
(4.81816e-15 0.442076 4.36745)
(1.19507e-14 0.328342 4.18784)
(1.71813e-14 0.187382 4.0684)
(2.83035e-14 0.0474058 4.05226)
(4.5576e-14 -0.0660398 4.11993)
(5.77427e-14 -0.171776 4.22544)
(4.7222e-14 -0.275193 4.38742)
(2.09852e-14 -0.274391 4.5888)
(1.80216e-15 -0.172243 4.69419)
(-6.09307e-15 -0.130603 4.63495)
(-5.28379e-15 -0.265999 4.48258)
(-1.34367e-15 -0.491444 4.32766)
(3.89652e-15 -0.632291 4.22303)
(4.18691e-15 -0.676382 4.14309)
(-3.04351e-15 -0.723749 4.08317)
(-1.17466e-14 -0.818696 4.08566)
(-1.52434e-14 -0.929021 4.13325)
(-1.59379e-14 -1.0359 4.10913)
(-1.89929e-14 -1.15266 4.11421)
(-2.30364e-14 -1.0733 3.89899)
(-2.69377e-14 -0.675548 3.72744)
(-2.78492e-14 -0.123819 2.94082)
(1.51189e-15 -0.532044 18.2844)
(1.51683e-15 -0.433482 18.8894)
(2.06971e-16 -0.342869 19.3408)
(-5.72775e-16 -0.230542 19.6594)
(-1.12157e-15 -0.0951977 19.8425)
(-1.65816e-16 0.0685134 19.8748)
(-1.13256e-15 0.251236 19.7432)
(-1.13638e-16 0.430511 19.4169)
(1.81362e-15 0.5879 18.8713)
(2.79973e-15 0.695384 18.1545)
(-2.27179e-16 0.753962 17.3426)
(1.05082e-15 0.780665 16.4909)
(1.0371e-15 0.788202 15.6244)
(1.07698e-15 0.781549 14.7542)
(1.32705e-15 0.76378 13.8882)
(3.4138e-15 0.739083 13.0326)
(2.76065e-15 0.712981 12.1936)
(1.97982e-15 0.696066 11.3731)
(2.31291e-15 0.701121 10.5559)
(2.30534e-15 0.735889 9.70841)
(5.86021e-15 0.798402 8.79238)
(4.15261e-15 0.879128 7.77959)
(4.66961e-15 0.97227 6.65411)
(9.96598e-15 1.07444 5.40259)
(7.78626e-15 1.1548 4.05908)
(7.24599e-15 1.16446 2.73346)
(-2.26375e-15 1.11189 1.34148)
(-1.12703e-14 0.460676 0.759416)
(-1.8175e-14 -0.834107 2.43787)
(-1.56538e-14 -1.46475 3.94332)
(-1.48822e-14 -1.66415 5.21642)
(-1.20825e-14 -1.67257 6.42631)
(-9.71621e-15 -1.59538 7.5594)
(-7.54815e-15 -1.47589 8.58422)
(-5.51953e-15 -1.34053 9.48509)
(-3.63788e-15 -1.213 10.2623)
(-1.59906e-15 -1.11744 10.9326)
(-1.33171e-15 -1.07631 11.5313)
(-9.08141e-16 -1.10419 12.113)
(-5.52246e-16 -1.19689 12.744)
(1.76315e-15 -1.32156 13.4758)
(2.09795e-15 -1.42038 14.3103)
(6.64078e-15 -1.43417 15.186)
(5.52107e-15 -1.33603 16.0045)
(6.08694e-15 -1.14341 16.6776)
(5.18017e-15 -0.900135 17.1582)
(4.43788e-15 -0.651696 17.4419)
(2.39792e-16 -0.429188 17.5537)
(2.19404e-15 -0.245984 17.5297)
(-7.48924e-15 -0.103622 17.4049)
(-1.1254e-14 0.00297944 17.2103)
(-1.60562e-14 0.0838998 16.9728)
(-1.39323e-14 0.154332 16.7156)
(-1.58363e-14 0.234055 16.4521)
(-1.50876e-14 0.33934 16.1756)
(-1.15194e-14 0.468467 15.8649)
(-4.2279e-15 0.601545 15.4878)
(7.42074e-16 0.728689 15.0324)
(1.03592e-14 0.876909 14.5057)
(1.51417e-14 1.09266 13.9158)
(1.64844e-14 1.38054 13.2564)
(1.2239e-14 1.67555 12.5182)
(7.16464e-15 1.89466 11.7109)
(3.18123e-15 1.99776 10.8652)
(3.88763e-15 1.99448 10.0171)
(4.89559e-15 1.91716 9.19602)
(6.25667e-15 1.79746 8.42125)
(4.75228e-15 1.65739 7.7044)
(4.31911e-15 1.50939 7.05214)
(4.97134e-15 1.35926 6.46868)
(4.94225e-15 1.20879 5.95862)
(5.5227e-15 1.06196 5.52405)
(7.72406e-15 0.918013 5.17288)
(8.88755e-15 0.808042 4.90014)
(1.26532e-14 0.72879 4.67121)
(1.666e-14 0.661022 4.46696)
(2.40205e-14 0.606514 4.29165)
(2.88014e-14 0.563832 4.13057)
(3.44332e-14 0.493973 3.9665)
(3.60587e-14 0.366734 3.81115)
(3.24172e-14 0.199271 3.68544)
(2.83274e-14 0.0284154 3.63858)
(3.07389e-14 -0.102217 3.65991)
(2.58615e-14 -0.226506 3.73215)
(1.00384e-14 -0.363331 3.9249)
(-2.78955e-15 -0.351427 4.18266)
(-6.42795e-15 -0.181679 4.28246)
(-5.45764e-15 -0.0650158 4.10161)
(-7.48774e-16 -0.167677 3.66682)
(1.47546e-16 -0.41111 3.21535)
(-9.11705e-16 -0.590609 3.03756)
(-6.58036e-15 -0.671679 3.01625)
(-1.62619e-14 -0.755343 2.97803)
(-1.98982e-14 -0.85737 2.88428)
(-2.02755e-14 -0.920265 2.69622)
(-1.98612e-14 -0.981751 2.34526)
(-2.35837e-14 -1.06531 1.98726)
(-2.92693e-14 -1.07951 1.05015)
(-3.17584e-14 -0.573133 0.74623)
(-3.24662e-14 0.245207 -0.184731)
(1.46495e-15 -0.605727 17.6559)
(1.23617e-15 -0.497924 18.1936)
(-1.57428e-17 -0.396498 18.5889)
(-1.6272e-15 -0.273431 18.873)
(-1.92787e-15 -0.125629 19.0474)
(-2.47311e-15 0.0540641 19.0946)
(-3.5708e-15 0.257362 18.9984)
(-1.85243e-15 0.460769 18.7254)
(-2.56378e-15 0.643712 18.2312)
(-1.31964e-15 0.769984 17.555)
(-6.64914e-16 0.83982 16.7767)
(-2.8095e-16 0.873448 15.9545)
(-9.30642e-17 0.885933 15.1139)
(-7.49512e-17 0.88302 14.2651)
(3.18263e-17 0.868016 13.4149)
(-1.00774e-17 0.845142 12.5678)
(2.31213e-15 0.819939 11.7289)
(2.74554e-15 0.804528 10.9)
(3.34019e-15 0.814557 10.0668)
(4.0552e-15 0.860096 9.19399)
(4.56192e-15 0.939062 8.23846)
(3.47735e-15 1.04016 7.16588)
(4.63366e-15 1.15627 5.95775)
(1.40745e-14 1.27771 4.61658)
(1.406e-14 1.36859 3.20885)
(9.10122e-15 1.37966 1.81459)
(-1.15641e-14 1.23593 0.422572)
(-1.98857e-14 0.461662 0.558577)
(-1.63861e-14 -1.09995 2.35613)
(-1.49568e-14 -1.71291 3.70506)
(-1.43623e-14 -1.90122 4.90859)
(-1.12522e-14 -1.9035 6.06911)
(-8.48112e-15 -1.81319 7.15134)
(-6.40009e-15 -1.67513 8.12559)
(-5.31507e-15 -1.51875 8.97737)
(-5.12928e-15 -1.371 9.70602)
(-1.72061e-15 -1.25999 10.3273)
(-6.43498e-17 -1.21289 10.8778)
(8.09432e-16 -1.24841 11.417)
(1.47959e-15 -1.36247 12.0178)
(2.57744e-15 -1.51468 12.7334)
(4.82935e-15 -1.63372 13.5593)
(4.39543e-15 -1.64813 14.4246)
(3.59489e-15 -1.5277 15.224)
(3.04259e-15 -1.29616 15.8676)
(2.13511e-15 -1.00735 16.3098)
(1.2285e-15 -0.715387 16.5499)
(1.212e-15 -0.456165 16.6161)
(-2.32287e-15 -0.244239 16.546)
(-4.17019e-15 -0.0807736 16.3746)
(-5.74887e-16 0.0397935 16.1322)
(-3.51765e-15 0.128 15.8471)
(-4.24924e-16 0.200772 15.5454)
(-3.99183e-16 0.28184 15.2432)
(1.19338e-16 0.392557 14.9374)
(-5.41708e-16 0.534782 14.6113)
(5.3507e-15 0.687801 14.2309)
(3.76675e-16 0.836913 13.7784)
(6.09192e-15 1.00676 13.2516)
(7.30305e-15 1.245 12.6517)
(1.13705e-14 1.55669 11.9785)
(1.09809e-14 1.8735 11.2399)
(7.8435e-15 2.10789 10.4585)
(4.9124e-15 2.21767 9.66397)
(3.71457e-15 2.21318 8.88237)
(4.55834e-15 2.12863 8.13236)
(6.36014e-15 1.99743 7.42621)
(4.1503e-15 1.84284 6.77231)
(3.58687e-15 1.67793 6.17677)
(3.02224e-15 1.50865 5.64489)
(5.13424e-15 1.33652 5.18381)
(7.27495e-15 1.1666 4.79761)
(8.10884e-15 0.995211 4.50157)
(9.31675e-15 0.869321 4.29332)
(5.93959e-15 0.782109 4.12355)
(8.05917e-15 0.706383 3.96344)
(1.73386e-14 0.645661 3.82685)
(3.11321e-14 0.601954 3.72074)
(3.21384e-14 0.531264 3.62494)
(2.19376e-14 0.400324 3.50852)
(1.56809e-14 0.225379 3.36216)
(3.2863e-15 0.0378203 3.22065)
(-7.818e-15 -0.1181 3.15333)
(-1.34357e-14 -0.287865 3.19086)
(-1.42681e-14 -0.479597 3.39615)
(-1.13652e-14 -0.433021 3.62744)
(-8.69976e-15 -0.152668 3.68892)
(-5.6888e-15 0.079892 3.4149)
(-7.80379e-15 0.0182841 2.75741)
(-7.96485e-15 -0.335854 2.23881)
(-1.14417e-14 -0.618226 2.13439)
(-1.89238e-14 -0.682535 2.08109)
(-2.37823e-14 -0.71122 1.85837)
(-2.10703e-14 -0.769875 1.49032)
(-2.14711e-14 -0.778262 1.02697)
(-2.22535e-14 -0.74739 0.442006)
(-2.60021e-14 -0.755889 -0.427055)
(-3.04296e-14 -0.745212 -1.78812)
(-3.1398e-14 0.00865063 -2.62197)
(-3.10678e-14 0.616463 -2.7931)
(1.18241e-15 -0.67359 17.0056)
(1.7156e-15 -0.557161 17.4494)
(5.08842e-16 -0.448164 17.7743)
(-3.24176e-16 -0.318179 18.0172)
(9.65146e-16 -0.161302 18.1783)
(5.57259e-16 0.0315496 18.2384)
(-1.8975e-15 0.253284 18.1801)
(-1.32879e-15 0.480016 17.9701)
(-1.51857e-15 0.689877 17.5418)
(-9.24683e-16 0.836631 16.9174)
(-1.14371e-15 0.918852 16.1774)
(-1.45203e-15 0.960109 15.3849)
(-1.18926e-15 0.97808 14.5678)
(-5.81012e-16 0.979417 13.7377)
(-6.09524e-17 0.967855 12.9021)
(6.86982e-16 0.947825 12.0642)
(1.20514e-15 0.924814 11.2258)
(4.57299e-15 0.912272 10.3867)
(3.00139e-15 0.928648 9.53073)
(2.89393e-15 0.986662 8.6214)
(4.31868e-15 1.08453 7.61275)
(2.46385e-15 1.20904 6.46553)
(3.87666e-15 1.34944 5.16728)
(1.60516e-14 1.48795 3.75064)
(1.58325e-14 1.58799 2.29208)
(7.87519e-15 1.59046 0.814097)
(2.40348e-16 1.2828 -0.356382)
(-1.73098e-14 0.0518914 0.694599)
(-2.0303e-14 -1.37539 2.21799)
(-1.47736e-14 -1.94644 3.42297)
(-1.17758e-14 -2.13018 4.56729)
(-9.79134e-15 -2.12679 5.675)
(-5.6886e-15 -2.02335 6.70427)
(-4.33127e-15 -1.86707 7.62861)
(-4.56792e-15 -1.68993 8.43378)
(-6.70391e-15 -1.52192 9.11745)
(-4.51485e-15 -1.39546 9.69422)
(-9.05296e-16 -1.34311 10.202)
(1.3501e-15 -1.38822 10.7051)
(2.23431e-15 -1.52629 11.2804)
(2.85228e-15 -1.70796 11.9791)
(1.73692e-15 -1.84757 12.7904)
(1.99941e-15 -1.8615 13.6382)
(5.94597e-16 -1.71689 14.4144)
(1.19036e-15 -1.44453 15.0282)
(5.88922e-16 -1.10883 15.4354)
(-7.57317e-16 -0.772673 15.638)
(-1.67283e-15 -0.476518 15.6671)
(-1.65672e-15 -0.235618 15.5615)
(-7.40432e-16 -0.0505051 15.3551)
(7.7676e-16 0.0846031 15.0767)
(2.70304e-15 0.180293 14.7546)
(4.78275e-15 0.255029 14.416)
(7.01818e-15 0.336017 14.0768)
(9.45232e-15 0.449382 13.74)
(1.09935e-14 0.601143 13.3923)
(1.45817e-14 0.771209 13.0027)
(1.06388e-14 0.941462 12.549)
(1.37423e-14 1.13455 12.0191)
(1.65682e-14 1.39728 11.4065)
(1.35961e-14 1.73154 10.7166)
(1.02564e-14 2.06435 9.97483)
(7.77398e-15 2.30624 9.21662)
(5.15122e-15 2.41646 8.47036)
(4.82377e-15 2.40755 7.75227)
(3.94213e-15 2.31522 7.07074)
(6.51751e-15 2.17359 6.43131)
(5.21455e-15 2.00617 5.83914)
(3.6749e-15 1.82601 5.29986)
(2.69794e-15 1.63888 4.81993)
(4.13677e-15 1.44544 4.40959)
(6.49154e-15 1.25136 4.07525)
(7.71435e-15 1.04794 3.84187)
(4.95202e-15 0.907479 3.70771)
(-6.97031e-16 0.819745 3.59812)
(-2.54006e-15 0.744797 3.47219)
(3.56814e-15 0.677262 3.37657)
(5.95769e-15 0.624651 3.35322)
(5.97872e-17 0.556037 3.3472)
(-3.63695e-15 0.440467 3.26513)
(-3.7962e-15 0.285687 3.09122)
(-9.24214e-15 0.0894312 2.84873)
(-2.29734e-14 -0.105987 2.70086)
(-1.9208e-14 -0.340304 2.68372)
(-1.34113e-14 -0.588865 2.75564)
(-1.20892e-14 -0.531112 2.71608)
(-1.25207e-14 -0.106179 2.80509)
(-1.15652e-14 0.330674 2.58494)
(-1.3999e-14 0.275465 2.05967)
(-1.50734e-14 -0.218848 1.5755)
(-2.04878e-14 -0.565885 1.1956)
(-2.08523e-14 -0.581645 0.882886)
(-2.26641e-14 -0.50572 0.419404)
(-2.33935e-14 -0.515066 -0.322687)
(-2.6853e-14 -0.541531 -0.991037)
(-2.46516e-14 -0.491393 -1.49577)
(-2.62726e-14 -0.470389 -2.2116)
(-2.79559e-14 -0.444062 -3.25787)
(-2.8427e-14 -0.00105995 -4.20542)
(-2.78664e-14 0.543087 -4.60974)
(1.86497e-15 -0.735524 16.3037)
(1.94349e-15 -0.612608 16.6581)
(1.47863e-15 -0.498393 16.9386)
(1.08428e-15 -0.363552 17.1534)
(2.15371e-15 -0.199944 17.2949)
(2.1185e-15 0.00280482 17.3461)
(4.72102e-15 0.23896 17.2989)
(2.96752e-15 0.486034 17.1381)
(2.28421e-15 0.723654 16.7841)
(1.72061e-15 0.893388 16.2278)
(7.30801e-17 0.990189 15.5398)
(-2.23157e-15 1.04058 14.7853)
(-1.79646e-15 1.06501 13.9955)
(-3.48568e-15 1.07124 13.1854)
(-6.7374e-16 1.06374 12.3647)
(7.81991e-16 1.04748 11.5359)
(2.05747e-15 1.02807 10.6973)
(2.61803e-15 1.0202 9.84389)
(1.54588e-15 1.04493 8.95618)
(3.01527e-15 1.11759 7.99598)
(3.42822e-15 1.23697 6.91636)
(2.19494e-15 1.38684 5.67908)
(2.38077e-15 1.55003 4.29633)
(1.42887e-14 1.70341 2.82579)
(1.84274e-14 1.80967 1.30009)