/*--------------------------------*- C++ -*----------------------------------*\
| =========                 |                                                 |
| \\      /  F ield         | OpenFOAM: The Open Source CFD Toolbox           |
|  \\    /   O peration     | Version:  4.1                                   |
|   \\  /    A nd           | Web:      www.OpenFOAM.org                      |
|    \\/     M anipulation  |                                                 |
\*---------------------------------------------------------------------------*/
FoamFile
{
    version     2.0;
    format      ascii;
    class       volScalarField;
    location    "900";
    object      epsilon;
}
// * * * * * * * * * * * * * * * * * * * * * * * * * * * * * * * * * * * * * //

dimensions      [0 2 -3 0 0 0 0];

internalField   nonuniform List<scalar> 
6820
(
115.949
152.042
190.661
230.213
269.213
306.364
340.623
371.268
397.899
420.4
438.868
453.554
464.803
473.009
478.58
481.91
483.37
483.292
481.971
479.663
476.587
472.927
468.838
464.447
459.86
455.162
450.422
445.696
441.025
436.448
431.983
427.735
425.107
9.48476
17.5528
23.8082
29.343
34.5615
39.5638
44.3524
48.9031
53.1856
57.1731
60.8487
64.2073
67.2547
70.0052
72.4792
74.7011
76.697
78.4929
80.114
81.5839
82.9238
84.153
85.2887
86.3455
87.3358
88.2698
89.1561
90.0017
90.8114
91.5916
92.3415
93.0694
93.7679
4.14146
5.59602
6.98297
8.20862
9.27788
10.2173
11.0506
11.7953
12.4652
13.0716
13.6233
14.1277
14.5907
15.0172
15.4112
15.7762
16.1152
16.4306
16.7248
16.9994
17.258
17.5082
17.7522
17.9906
18.224
18.453
18.6778
18.8989
19.1166
19.3311
19.5426
19.7517
19.9563
3.60121
3.91796
4.33109
4.75787
5.16049
5.52671
5.85474
6.14666
6.40579
6.6357
6.83984
7.02136
7.18307
7.32748
7.45674
7.57272
7.67703
7.77107
7.85602
7.93291
8.00259
8.06661
8.12605
8.18167
8.23408
8.28376
8.33112
8.37649
8.42017
8.46238
8.50337
8.54328
8.58245
3.52798
3.56982
3.67476
3.81744
3.97488
4.1328
4.28383
4.42458
4.55377
4.67122
4.77737
4.87291
4.95865
5.03543
5.10409
5.1654
5.22009
5.26883
5.31223
5.35082
5.38509
5.41551
5.44254
5.46658
5.48801
5.50713
5.52424
5.53957
5.55335
5.56576
5.57697
5.58711
5.5964
3.5197
3.49572
3.49766
3.52374
3.56745
3.62175
3.681
3.74133
3.80034
3.85661
3.90933
3.95814
4.00291
4.04368
4.08059
4.11385
4.14366
4.17029
4.19396
4.21492
4.23339
4.24958
4.26371
4.27597
4.28654
4.29559
4.30327
4.30973
4.31508
4.31945
4.32294
4.32564
4.32766
3.51928
3.48173
3.4529
3.43487
3.42775
3.42982
3.4388
3.45249
3.46904
3.48707
3.50557
3.52383
3.54138
3.55792
3.57325
3.58728
3.59995
3.61129
3.6213
3.63006
3.63761
3.64407
3.64949
3.65395
3.65752
3.66027
3.66225
3.66354
3.6642
3.66428
3.66383
3.66292
3.66159
3.51938
3.47956
3.44297
3.41081
3.38393
3.36257
3.34634
3.33451
3.32623
3.32072
3.31725
3.31524
3.31422
3.31382
3.31376
3.31382
3.31384
3.31373
3.31338
3.31277
3.31185
3.31061
3.30906
3.30718
3.30501
3.30253
3.29978
3.29677
3.29352
3.29004
3.28636
3.28249
3.27846
3.51942
3.47931
3.44106
3.40504
3.37162
3.34118
3.31388
3.28963
3.26823
3.24937
3.23274
3.218
3.20484
3.19299
3.1822
3.17226
3.16303
3.15434
3.1461
3.13822
3.13062
3.12325
3.11606
3.10902
3.10209
3.09526
3.08851
3.08183
3.07521
3.06865
3.06213
3.05566
3.04923
3.51943
3.47931
3.44074
3.4038
3.36856
3.33518
3.30378
3.27441
3.24705
3.22164
3.19808
3.17623
3.15594
3.13705
3.11941
3.10289
3.08735
3.07269
3.0588
3.04559
3.03299
3.02092
3.00935
2.9982
2.98745
2.97705
2.96698
2.9572
2.94769
2.93844
2.92943
2.92063
2.91204
3.51944
3.47931
3.44068
3.40355
3.36786
3.33364
3.30091
3.26968
3.23994
3.2117
3.18491
3.15952
3.13547
3.1127
3.09111
3.07063
3.05118
3.03267
3.01505
2.99824
2.98217
2.96679
2.95204
2.93788
2.92427
2.91116
2.89853
2.88633
2.87454
2.86314
2.85209
2.84139
2.83101
3.51944
3.47931
3.44066
3.40348
3.3677
3.33326
3.30016
3.26835
3.23781
3.20852
3.18044
3.15355
3.12781
3.10317
3.0796
3.05704
3.03545
3.01477
2.99495
2.97596
2.95773
2.94023
2.92341
2.90724
2.89167
2.87667
2.86221
2.84827
2.8348
2.82179
2.80921
2.79703
2.78524
3.51944
3.47931
3.44064
3.40345
3.36764
3.33315
3.29995
3.26797
3.23718
3.20753
3.17899
3.15152
3.12508
3.09964
3.07516
3.05161
3.02896
3.00716
2.98618
2.96598
2.94653
2.9278
2.90975
2.89234
2.87556
2.85936
2.84373
2.82863
2.81404
2.79993
2.78629
2.77309
2.76031
3.51944
3.4793
3.44063
3.40343
3.36761
3.3331
3.29987
3.26785
3.23698
3.20723
3.17853
3.15087
3.12418
3.09844
3.07362
3.04966
3.02655
3.00426
2.98274
2.96197
2.94191
2.92255
2.90385
2.88578
2.86832
2.85145
2.83513
2.81935
2.80408
2.78931
2.775
2.76115
2.74773
3.51944
3.4793
3.44063
3.40341
3.36758
3.33307
3.29982
3.26778
3.23689
3.2071
3.17836
3.15063
3.12386
3.09801
3.07305
3.04894
3.02564
3.00313
2.98138
2.96035
2.94002
2.92035
2.90133
2.88294
2.86513
2.8479
2.83122
2.81507
2.79942
2.78427
2.76959
2.75535
2.74156
3.51944
3.4793
3.44062
3.4034
3.36756
3.33304
3.29979
3.26774
3.23684
3.20703
3.17827
3.15051
3.12371
3.09783
3.07282
3.04865
3.02529
3.00271
2.98087
2.95974
2.93929
2.91951
2.90035
2.88181
2.86385
2.84646
2.82961
2.81328
2.79745
2.78211
2.76723
2.75281
2.73881
3.51944
3.4793
3.44061
3.40339
3.36754
3.33302
3.29976
3.2677
3.23679
3.20698
3.17821
3.15044
3.12362
3.09772
3.07269
3.0485
3.02512
3.0025
2.98062
2.95945
2.93896
2.91912
2.89991
2.8813
2.86327
2.84581
2.82887
2.81246
2.79655
2.78111
2.76614
2.75161
2.73751
3.51944
3.47929
3.44061
3.40338
3.36753
3.333
3.29974
3.26767
3.23675
3.20693
3.17816
3.15038
3.12355
3.09764
3.07261
3.0484
3.02501
3.00237
2.98048
2.95929
2.93878
2.91892
2.89969
2.88106
2.863
2.84551
2.82854
2.8121
2.79615
2.78067
2.76566
2.75109
2.73695
3.51944
3.47929
3.44061
3.40337
3.36752
3.33299
3.29972
3.26765
3.23672
3.2069
3.17811
3.15033
3.1235
3.09758
3.07253
3.04832
3.02492
3.00228
2.98037
2.95917
2.93865
2.91878
2.89954
2.88089
2.86282
2.84531
2.82833
2.81187
2.7959
2.7804
2.76537
2.75078
2.73661
3.51944
3.47929
3.44061
3.40337
3.36752
3.33298
3.2997
3.26763
3.2367
3.20686
3.17807
3.15028
3.12345
3.09752
3.07247
3.04826
3.02484
3.00219
2.98028
2.95908
2.93855
2.91867
2.89942
2.88077
2.86269
2.84517
2.82818
2.81171
2.79573
2.78023
2.76519
2.75059
2.73641
3.51944
3.47929
3.4406
3.40337
3.36751
3.33297
3.29969
3.26761
3.23668
3.20684
3.17804
3.15025
3.1234
3.09747
3.07242
3.0482
3.02478
3.00212
2.98021
2.959
2.93846
2.91858
2.89932
2.88066
2.86258
2.84505
2.82806
2.81158
2.79559
2.78009
2.76504
2.75043
2.73625
3.51944
3.47929
3.4406
3.40336
3.36751
3.33296
3.29968
3.2676
3.23666
3.20682
3.17802
3.15022
3.12337
3.09743
3.07237
3.04815
3.02472
3.00206
2.98014
2.95892
2.93839
2.9185
2.89923
2.88057
2.86248
2.84495
2.82795
2.81147
2.79548
2.77997
2.76491
2.7503
2.73611
3.51944
3.47929
3.4406
3.40336
3.3675
3.33296
3.29967
3.26759
3.23665
3.2068
3.178
3.15019
3.12334
3.0974
3.07233
3.0481
3.02467
3.00201
2.98008
2.95886
2.93832
2.91843
2.89916
2.88049
2.8624
2.84487
2.82786
2.81138
2.79538
2.77986
2.76481
2.75019
2.736
3.51944
3.47929
3.4406
3.40336
3.3675
3.33295
3.29967
3.26758
3.23664
3.20678
3.17798
3.15017
3.12331
3.09737
3.0723
3.04807
3.02463
3.00197
2.98004
2.95881
2.93827
2.91837
2.8991
2.88043
2.86233
2.84479
2.82778
2.81129
2.79529
2.77977
2.76471
2.75009
2.7359
3.51944
3.47929
3.4406
3.40336
3.3675
3.33295
3.29966
3.26757
3.23663
3.20678
3.17797
3.15016
3.1233
3.09735
3.07228
3.04804
3.02461
3.00194
2.98001
2.95878
2.93823
2.91833
2.89906
2.88038
2.86228
2.84474
2.82773
2.81124
2.79524
2.77972
2.76465
2.75003
2.73583
3.51944
3.47929
3.4406
3.40336
3.3675
3.33295
3.29966
3.26757
3.23662
3.20677
3.17796
3.15015
3.12329
3.09734
3.07227
3.04803
3.02459
3.00192
2.97998
2.95875
2.9382
2.9183
2.89902
2.88034
2.86224
2.84469
2.82768
2.81118
2.79518
2.77965
2.76459
2.74996
2.73576
3.51944
3.47929
3.4406
3.40336
3.3675
3.33295
3.29966
3.26757
3.23662
3.20677
3.17796
3.15014
3.12328
3.09733
3.07226
3.04802
3.02458
3.00191
2.97998
2.95875
2.93819
2.91829
2.89902
2.88034
2.86224
2.84469
2.82768
2.81119
2.79518
2.77966
2.76459
2.74996
2.73577
3.51944
3.47929
3.4406
3.40336
3.3675
3.33295
3.29966
3.26757
3.23662
3.20677
3.17796
3.15014
3.12328
3.09733
3.07226
3.04801
3.02457
3.0019
2.97996
2.95873
2.93818
2.91827
2.89899
2.88031
2.86221
2.84466
2.82764
2.81114
2.79514
2.77961
2.76454
2.74991
2.73571
3.51944
3.47929
3.4406
3.40336
3.3675
3.33295
3.29966
3.26757
3.23663
3.20678
3.17797
3.15016
3.1233
3.09735
3.07228
3.04804
3.02461
3.00194
2.98001
2.95878
2.93823
2.91833
2.89906
2.88038
2.86228
2.84474
2.82773
2.81123
2.79523
2.77971
2.76464
2.75001
2.73581
3.51944
3.47929
3.4406
3.40336
3.3675
3.33296
3.29967
3.26758
3.23663
3.20678
3.17797
3.15016
3.1233
3.09735
3.07227
3.04803
3.02459
3.00192
2.97999
2.95875
2.9382
2.9183
2.89902
2.88034
2.86224
2.8447
2.82769
2.81119
2.79519
2.77967
2.76461
2.74998
2.73579
3.51944
3.47929
3.4406
3.40336
3.3675
3.33296
3.29968
3.26759
3.23666
3.20681
3.17802
3.15022
3.12337
3.09744
3.07238
3.04815
3.02473
3.00207
2.98015
2.95894
2.9384
2.91852
2.89925
2.88059
2.86251
2.84498
2.82799
2.81151
2.79553
2.78002
2.76498
2.75037
2.7362
3.51944
3.47929
3.4406
3.40337
3.36751
3.33297
3.29968
3.2676
3.23666
3.20681
3.178
3.1502
3.12335
3.09742
3.07236
3.04814
3.02472
3.00208
2.98018
2.95898
2.93847
2.91861
2.89938
2.88075
2.86271
2.84522
2.82827
2.81184
2.79591
2.78046
2.76547
2.75093
2.73681
3.51944
3.47929
3.44061
3.40337
3.36753
3.333
3.29975
3.26771
3.23682
3.20703
3.17829
3.15055
3.12378
3.09793
3.07296
3.04883
3.02551
3.00298
2.98118
2.96011
2.93972
2.92
2.9009
2.88242
2.86453
2.8472
2.83042
2.81415
2.79839
2.78311
2.7683
2.75394
2.74
3.51944
3.47929
3.44061
3.40338
3.36754
3.33305
3.29985
3.26787
3.23707
3.2074
3.1788
3.15124
3.12468
3.09906
3.07436
3.05054
3.02756
3.00539
2.98399
2.96333
2.94338
2.92411
2.9055
2.88751
2.87013
2.85332
2.83707
2.82135
2.80613
2.79141
2.77715
2.76335
2.74997
3.51943
3.4793
3.44066
3.40356
3.36794
3.33374
3.30092
3.26945
3.23927
3.21034
3.18261
3.15603
3.13055
3.10613
3.08271
3.06025
3.03869
3.018
2.99812
2.97902
2.96065
2.94298
2.92596
2.90957
2.89378
2.87855
2.86385
2.84966
2.83596
2.82272
2.80992
2.79753
2.78555
3.51942
3.47942
3.4412
3.4049
3.37061
3.33828
3.30787
3.27931
3.25251
3.22735
3.20374
3.18153
3.16063
3.14093
3.12231
3.1047
3.08799
3.07211
3.05699
3.04257
3.02878
3.01558
3.00292
2.99077
2.97909
2.96783
2.95698
2.94651
2.93639
2.9266
2.91712
2.90793
2.89902
3.5196
3.48203
3.4494
3.42177
3.39875
3.37983
3.36442
3.35191
3.34178
3.33354
3.32681
3.32126
3.31662
3.31268
3.30926
3.30623
3.30346
3.30087
3.29841
3.296
3.29362
3.29123
3.28881
3.28635
3.28382
3.28124
3.27859
3.27588
3.27309
3.27024
3.26733
3.26436
3.26135
3.53049
3.53942
3.57109
3.61695
3.67052
3.72753
3.78534
3.84241
3.89782
3.951
4.00161
4.0495
4.09463
4.13704
4.17681
4.21407
4.24892
4.28151
4.31198
4.34045
4.36707
4.39194
4.41519
4.43694
4.45727
4.4763
4.49411
4.51078
4.52639
4.54103
4.55475
4.56763
4.57976
4.00122
4.78106
5.43755
6.00229
6.50073
6.94822
7.35501
7.72858
8.07457
8.39728
8.70007
8.9856
9.256
9.51301
9.75807
9.99236
10.2169
10.4324
10.6398
10.8395
11.0321
11.2181
11.3978
11.5716
11.7399
11.9029
12.0609
12.2141
12.3627
12.507
12.6471
12.7832
12.9159
31.176
33.6247
36.0474
38.4445
40.8147
43.1561
45.4659
47.7407
49.9772
52.1722
54.323
56.4269
58.4817
60.4855
62.4367
64.3341
66.1767
67.964
69.6956
71.3714
72.9915
74.5563
76.0663
77.5223
78.9251
80.2756
81.575
82.8243
84.0249
85.1779
86.2848
87.3474
88.3744
437.056
505.768
598.176
699.825
791.739
861.332
904.417
922.593
920.819
905.047
880.508
850.959
818.943
786.085
753.33
721.233
689.878
659.412
629.662
600.632
572.441
545.226
519.109
494.197
470.573
448.289
427.369
407.807
389.571
372.611
356.869
342.277
328.766
316.262
304.688
293.968
284.021
274.77
266.14
258.058
250.453
243.261
236.419
229.872
223.567
217.455
211.494
205.646
199.878
194.161
188.473
182.795
177.113
171.419
165.708
159.978
154.232
148.477
142.721
136.976
131.256
125.575
119.952
114.403
108.947
103.604
98.3902
93.3245
88.4232
83.7011
79.1718
74.8466
70.7348
66.8434
63.1768
59.7373
56.5244
53.5354
50.7648
48.205
45.8463
43.6778
41.6875
39.8631
38.1919
36.6609
35.2574
33.9685
32.7819
31.6856
30.6684
29.7194
28.829
27.9876
27.1897
26.4265
25.7046
25.0121
24.3997
23.7213
95.1662
100.433
110.607
127.82
152.596
183.94
219.913
257.835
294.87
328.659
357.602
380.886
398.398
410.536
417.993
421.555
421.877
419.492
415.02
408.888
401.42
392.877
383.488
373.459
362.986
352.25
341.41
330.603
319.941
309.509
299.375
289.587
280.176
271.164
262.555
254.348
246.527
239.074
231.962
225.163
218.643
212.371
206.315
200.44
194.719
189.122
183.623
178.2
172.833
167.505
162.204
156.92
151.646
146.38
141.12
135.87
130.633
125.417
120.231
115.086
109.993
104.966
100.02
95.169
90.4285
85.8133
81.3378
77.0153
72.858
68.8765
65.0797
61.4747
58.0667
54.8587
51.8521
49.0461
46.4382
44.0237
41.7966
39.7487
37.8708
36.1525
34.583
33.1512
31.8459
30.6558
29.5699
28.5772
27.6672
26.8298
26.0555
25.3351
24.6607
24.0243
23.4211
22.8439
22.2985
21.7755
21.3163
20.8131
20.2129
20.6073
21.3102
22.633
24.949
28.6564
33.9837
41.1065
50.1207
61.0148
73.5852
87.4758
102.238
117.392
132.475
147.07
160.821
173.334
184.456
194.124
202.319
209.048
214.339
218.248
220.854
222.258
222.579
221.941
220.472
218.298
215.536
212.296
208.678
204.77
200.649
196.378
192.009
187.584
183.131
178.674
174.227
169.798
165.392
161.01
156.649
152.306
147.977
143.656
139.338
135.02
130.7
126.375
122.046
117.714
113.382
109.057
104.743
100.45
96.1866
91.9635
87.7925
83.6857
79.656
75.7163
71.8793
68.1572
64.5614
61.1021
57.7883
54.6274
51.6252
48.7862
46.113
43.6066
41.2667
39.0914
37.0775
35.2203
33.514
31.9516
30.525
29.2256
28.0443
26.9721
25.9995
25.1177
24.3174
23.59
22.9269
22.32
21.7614
21.2439
20.7609
20.306
19.8753
19.463
19.0742
18.7012
18.3776
18.0296
8.62701
8.68177
8.7515
8.86
9.04343
9.3593
9.88097
10.69
11.8808
13.4998
15.6212
18.3286
21.6933
25.7693
30.5868
36.1442
42.3988
49.2507
56.5393
64.1206
71.8426
79.5431
87.0577
94.2294
100.919
107.015
112.434
117.125
121.067
124.261
126.732
128.518
129.67
130.245
130.306
129.913
129.124
127.993
126.57
124.897
123.012
120.946
118.725
116.372
113.903
111.333
108.674
105.934
103.121
100.242
97.3034
94.3118
91.2735
88.1956
85.086
81.9532
78.8066
75.6562
72.5129
69.3881
66.2933
63.2406
60.2418
57.3085
54.4517
51.6818
49.008
46.4387
43.9808
41.64
39.4207
37.3259
35.3573
33.5155
31.7999
30.2088
28.7396
27.3885
26.1511
25.022
23.9952
23.064
22.2217
21.4615
20.7762
20.159
19.6031
19.1018
18.6485
18.237
17.8613
17.5155
17.1947
16.8936
16.6094
16.3373
16.0818
15.8367
15.6283
15.4122
5.60583
5.61695
5.62974
5.6458
5.66847
5.70375
5.76192
5.85742
6.00903
6.23756
6.56247
7.00467
7.59088
8.35145
9.31957
10.5306
12.0197
13.8192
15.9438
18.4075
21.2147
24.3564
27.807
31.5237
35.4469
39.5042
43.6143
47.6931
51.6584
55.4349
58.9583
62.1774
65.0555
67.5701
69.712
71.4825
72.8918
73.9565
74.6971
75.1366
75.2988
75.2073
74.8849
74.3526
73.63
72.7347
71.6824
70.4875
69.1629
67.7205
66.1712
64.5256
62.7942
60.987
59.1145
57.1872
55.2158
53.2114
51.1851
49.1482
47.1118
45.0871
43.0849
41.1153
39.1882
37.3125
35.4961
33.7462
32.0687
30.4686
28.9497
27.5147
26.1657
24.9033
23.7278
22.6383
21.6334
20.7109
19.868
19.1012
18.4066
17.7798
17.2162
16.7112
16.2598
15.8573
15.4988
15.1796
14.8949
14.6403
14.4111
14.2031
14.0125
13.8352
13.6692
13.5107
13.3634
13.2223
13.1075
12.9985
4.32911
4.32998
4.33076
4.33163
4.33291
4.33543
4.34058
4.35067
4.36919
4.40084
4.45138
4.52642
4.63349
4.78106
4.97877
5.23764
5.56996
5.98924
6.50789
7.13864
7.89466
8.78851
9.83105
11.0302
12.3894
13.9071
15.5748
17.3777
19.2939
21.2957
23.3504
25.4227
27.4761
29.4755
31.3886
33.1872
34.8484
36.3545
37.6932
38.8569
39.8424
40.65
41.2828
41.7459
42.046
42.1906
42.1877
42.0457
41.7732
41.3786
40.8703
40.257
39.5472
38.7497
37.8733
36.9271
35.9202
34.8621
33.7623
32.6301
31.4751
30.3065
29.1333
27.964
26.8069
25.6694
24.5583
23.4797
22.4389
21.4404
20.4879
19.5844
18.7319
17.932
17.1857
16.4931
15.8541
15.2678
14.7331
14.2482
13.811
13.419
13.0695
12.7597
12.4866
12.2471
12.038
11.8563
11.6986
11.5618
11.4428
11.3384
11.2458
11.1621
11.0857
11.0137
10.9492
10.888
10.8449
10.818
3.65947
3.65643
3.65283
3.64897
3.64472
3.64019
3.63564
3.63147
3.62851
3.62777
3.63064
3.63876
3.65423
3.67962
3.71797
3.77281
3.84819
3.94863
4.07894
4.24373
4.44818
4.69763
4.99743
5.3528
5.7686
6.24901
6.79719
7.41498
8.10243
8.85759
9.67617
10.5515
11.4748
12.4349
13.4193
14.4142
15.4053
16.3786
17.3204
18.2182
19.0609
19.8391
20.5451
21.173
21.7185
22.1789
22.5526
22.8395
23.0402
23.1564
23.1903
23.145
23.0239
22.8313
22.5717
22.2503
21.8724
21.4439
20.9709
20.4597
19.9167
19.3485
18.7614
18.1616
17.5553
16.9481
16.3452
15.7516
15.1716
14.609
14.0672
13.5489
13.0565
12.5918
12.1562
11.7508
11.3761
11.0325
10.7196
10.4372
10.1844
9.96006
9.76295
9.59157
9.4443
9.3194
9.21499
9.12912
9.05976
9.0048
8.96212
8.92955
8.90511
8.88663
8.87302
8.86204
8.85612
8.85189
8.85951
8.89059
3.27351
3.26749
3.26101
3.25423
3.24712
3.23969
3.23199
3.22409
3.2161
3.20827
3.20093
3.19453
3.18969
3.1872
3.18804
3.1934
3.20471
3.2236
3.25192
3.29156
3.34456
3.41304
3.4993
3.60558
3.73405
3.88676
4.06556
4.27206
4.50751
4.77274
5.06805
5.39313
5.74695
6.12773
6.53296
6.95934
7.40292
7.85914
8.32295
8.78895
9.25159
9.70529
10.1446
10.5643
10.9598
11.3265
11.6609
11.9596
12.2201
12.4404
12.6189
12.7549
12.8481
12.8988
12.9077
12.8762
12.8062
12.6999
12.5599
12.3893
12.1913
11.9695
11.7274
11.4689
11.1975
10.917
10.6308
10.3424
10.0548
9.77095
9.49335
9.22434
8.96596
8.71997
8.48785
8.27082
8.06985
7.88568
7.71877
7.56935
7.43739
7.32267
7.22477
7.14311
7.07695
7.02545
6.98761
6.96232
6.94839
6.94451
6.9493
6.96132
6.97921
7.00141
7.02718
7.05479
7.08613
7.11841
7.15826
7.2256
3.04175
3.03305
3.02408
3.01485
3.00543
2.99579
2.98592
2.97582
2.96549
2.95499
2.94441
2.93391
2.92365
2.91385
2.9048
2.8969
2.89062
2.88656
2.88544
2.88807
2.8953
2.90804
2.92729
2.95408
2.98943
3.03434
3.08973
3.15645
3.23519
3.32672
3.43149
3.54975
3.68153
3.8266
3.98454
4.15468
4.33609
4.52758
4.72772
4.93487
5.14716
5.36258
5.57898
5.79414
6.00577
6.21162
6.40945
6.59712
6.7726
6.93403
7.07972
7.20821
7.31829
7.409
7.47969
7.53
7.55989
7.56962
7.55976
7.53118
7.48499
7.42256
7.34545
7.25538
7.15419
7.04379
6.92612
6.80312
6.67668
6.54861
6.42065
6.29439
6.17133
6.05283
5.9401
5.83425
5.73621
5.64678
5.5666
5.49617
5.43582
5.38572
5.34593
5.31634
5.29676
5.28685
5.28617
5.29418
5.31021
5.33349
5.36321
5.3984
5.43819
5.48148
5.52778
5.57576
5.62686
5.67878
5.73548
5.82092
2.90223
2.89105
2.87974
2.86829
2.85673
2.84506
2.83326
2.82131
2.80922
2.79699
2.78464
2.7722
2.75971
2.74724
2.73489
2.72278
2.71107
2.69996
2.6897
2.68061
2.673
2.66728
2.66389
2.66332
2.66603
2.67256
2.68339
2.699
2.71983
2.74627
2.77867
2.81725
2.86219
2.9135
2.97128
3.03542
3.10566
3.18166
3.26297
3.34907
3.43933
3.53304
3.62942
3.72764
3.8268
3.92597
4.02417
4.12045
4.2138
4.30325
4.38787
4.46674
4.53902
4.60395
4.66084
4.70915
4.74844
4.77842
4.79896
4.81007
4.81194
4.80489
4.7894
4.76609
4.73567
4.69897
4.65689
4.61038
4.56042
4.508
4.45412
4.39975
4.34582
4.29325
4.24289
4.19553
4.1519
4.11268
4.07845
4.04971
4.02687
4.01024
4.00005
3.99643
3.99944
4.00904
4.02508
4.04734
4.07552
4.10919
4.14789
4.19103
4.23805
4.28821
4.34119
4.39601
4.45371
4.51241
4.57426
4.66384
2.81924
2.80595
2.79261
2.77922
2.76578
2.75229
2.73877
2.72518
2.71152
2.69778
2.68396
2.67007
2.65612
2.64214
2.62814
2.61417
2.60025
2.58647
2.57291
2.55969
2.54692
2.53477
2.52339
2.513
2.50382
2.49609
2.49005
2.48596
2.48408
2.48464
2.48788
2.49397
2.50308
2.51531
2.53074
2.54939
2.57126
2.59634
2.62448
2.6555
2.68917
2.72522
2.76334
2.80319
2.84441
2.88659
2.92934
2.97222
3.0148
3.05663
3.09726
3.13626
3.17318
3.20762
3.23917
3.26748
3.29223
3.31316
3.33004
3.34275
3.35121
3.35542
3.35547
3.35151
3.34379
3.33258
3.31827
3.30126
3.28201
3.261
3.23875
3.2158
3.19267
3.16991
3.14806
3.12762
3.10912
3.09302
3.07978
3.0698
3.06344
3.06103
3.06281
3.06901
3.07978
3.09519
3.11529
3.14002
3.16928
3.20287
3.24056
3.28201
3.32688
3.3747
3.42528
3.47789
3.53331
3.58998
3.64891
3.73295
2.77193
2.75693
2.74194
2.72695
2.71195
2.69695
2.68195
2.66693
2.65191
2.63685
2.62178
2.60667
2.59153
2.57637
2.5612
2.54602
2.53085
2.5157
2.50061
2.4856
2.47073
2.45603
2.44157
2.42744
2.41371
2.40049
2.3879
2.37604
2.36506
2.35508
2.34623
2.33864
2.33242
2.32767
2.32448
2.32291
2.32302
2.32485
2.32839
2.3336
2.3404
2.3487
2.35838
2.36929
2.38129
2.3942
2.40783
2.42199
2.43649
2.4511
2.46563
2.47987
2.49359
2.5066
2.5187
2.52969
2.53941
2.54768
2.55438
2.5594
2.56264
2.56406
2.56364
2.5614
2.55741
2.55176
2.54459
2.53606
2.52638
2.51577
2.50449
2.49281
2.48102
2.46942
2.45834
2.44809
2.43898
2.43136
2.42551
2.42175
2.42037
2.42161
2.42572
2.43291
2.44336
2.4572
2.47453
2.49542
2.51985
2.54777
2.5791
2.61365
2.65125
2.69162
2.73465
2.77982
2.82773
2.87708
2.92828
3.00096
2.74589
2.72965
2.71343
2.69723
2.68105
2.66489
2.64874
2.63261
2.61648
2.60036
2.58425
2.56813
2.55201
2.53588
2.51976
2.50364
2.48753
2.47144
2.45536
2.43932
2.42332
2.40738
2.39151
2.37574
2.36011
2.34464
2.32939
2.3144
2.29973
2.28543
2.27157
2.25822
2.24547
2.23338
2.22202
2.21145
2.20171
2.19284
2.18487
2.1778
2.17164
2.16636
2.16193
2.1583
2.15541
2.15319
2.15156
2.15044
2.14972
2.14932
2.14912
2.14904
2.14896
2.14879
2.14842
2.14777
2.14673
2.14523
2.14319
2.14055
2.13726
2.13327
2.12856
2.12312
2.11697
2.11014
2.10268
2.09465
2.08615
2.07728
2.06817
2.05895
2.04978
2.04083
2.03228
2.02432
2.01714
2.01096
2.00598
2.00241
2.00047
2.00034
2.00223
2.00632
2.01278
2.02175
2.03335
2.0477
2.06484
2.0848
2.10758
2.13311
2.16133
2.19207
2.22531
2.26067
2.29863
2.3381
2.37926
2.43783
2.73258
2.7155
2.69845
2.68142
2.66441
2.64741
2.63043
2.61347
2.59653
2.5796
2.56269
2.54579
2.5289
2.51202
2.49516
2.47832
2.46149
2.44467
2.42788
2.41112
2.39437
2.37766
2.36098
2.34434
2.32774
2.3112
2.29473
2.27835
2.26207
2.24593
2.22995
2.21417
2.19862
2.18336
2.16845
2.15389
2.13974
2.12601
2.11272
2.09991
2.08758
2.07573
2.06437
2.05349
2.04307
2.0331
2.02353
2.01433
2.00548
1.99691
1.98859
1.98047
1.9725
1.96463
1.9568
1.94899
1.94113
1.93318
1.92512
1.9169
1.90849
1.89988
1.89104
1.88198
1.87269
1.86319
1.85348
1.84362
1.83362
1.82356
1.81348
1.80346
1.79359
1.78395
1.77465
1.76581
1.75753
1.74996
1.74322
1.73746
1.73282
1.72945
1.72751
1.72714
1.72848
1.73167
1.73685
1.7441
1.75354
1.76523
1.77921
1.79548
1.81406
1.83487
1.85793
1.88299
1.91043
1.93935
1.96993
2.01375
2.72596
2.70839
2.69082
2.67326
2.65571
2.63818
2.62065
2.60314
2.58565
2.56817
2.5507
2.53325
2.51581
2.49838
2.48098
2.46359
2.44622
2.42887
2.41154
2.39424
2.37696
2.35971
2.34247
2.32527
2.30809
2.29094
2.27382
2.25673
2.23968
2.2227
2.20579
2.18897
2.17225
2.15566
2.1392
2.12292
2.10682
2.09092
2.07524
2.0598
2.0446
2.02967
2.015
2.00061
1.98648
1.97263
1.95904
1.9457
1.9326
1.91972
1.90704
1.89455
1.88222
1.87003
1.85795
1.84597
1.83406
1.82221
1.81038
1.79857
1.78677
1.77495
1.76312
1.75126
1.73938
1.72749
1.71559
1.70369
1.69182
1.68001
1.66827
1.65666
1.64522
1.63399
1.62304
1.61243
1.60224
1.59253
1.5834
1.57493
1.56724
1.56041
1.55457
1.54983
1.54629
1.54408
1.54332
1.5441
1.54653
1.55069
1.55667
1.5645
1.57423
1.58586
1.59944
1.61479
1.63228
1.65109
1.67165
1.70138
2.72298
2.70512
2.68726
2.6694
2.65155
2.63369
2.61584
2.59799
2.58015
2.56232
2.5445
2.52668
2.50888
2.49109
2.47331
2.45555
2.4378
2.42008
2.40237
2.38469
2.36703
2.3494
2.33178
2.31419
2.29662
2.27907
2.26155
2.24404
2.22655
2.20909
2.19167
2.17431
2.15701
2.13979
2.12265
2.1056
2.08864
2.07179
2.05505
2.03844
2.02196
2.00562
1.98944
1.9734
1.95753
1.94182
1.92627
1.91088
1.89566
1.88059
1.86568
1.85091
1.83627
1.82176
1.80738
1.7931
1.77892
1.76483
1.75083
1.7369
1.72303
1.70923
1.69549
1.6818
1.66817
1.65459
1.64108
1.62764
1.61427
1.601
1.58783
1.57479
1.5619
1.54919
1.53669
1.52444
1.51247
1.50083
1.48958
1.47877
1.46847
1.45874
1.44966
1.44132
1.43379
1.42718
1.42156
1.41704
1.4137
1.41164
1.41094
1.41167
1.4139
1.41764
1.42301
1.42987
1.43856
1.44836
1.46
1.47698
2.72156
2.70356
2.68555
2.66753
2.64951
2.63148
2.61344
2.5954
2.57737
2.55933
2.5413
2.52327
2.50524
2.48723
2.46922
2.45122
2.43324
2.41527
2.39732
2.37938
2.36147
2.34357
2.3257
2.30785
2.29001
2.2722
2.2544
2.23664
2.2189
2.20119
2.18351
2.16588
2.14829
2.13075
2.11326
2.09584
2.07847
2.06118
2.04396
2.02682
2.00976
1.99278
1.9759
1.95912
1.94244
1.92586
1.9094
1.89304
1.87679
1.86066
1.84464
1.82873
1.81293
1.79724
1.78166
1.76618
1.75079
1.7355
1.72031
1.7052
1.69018
1.67524
1.66039
1.64561
1.63092
1.6163
1.60177
1.58732
1.57296
1.5587
1.54454
1.5305
1.51657
1.50279
1.48916
1.47569
1.46243
1.44938
1.43659
1.42407
1.41188
1.40005
1.38864
1.37769
1.36726
1.35742
1.34824
1.33978
1.33213
1.32535
1.31953
1.31473
1.31104
1.30849
1.3072
1.30708
1.30846
1.31065
1.31481
1.32074
2.72094
2.70288
2.68479
2.6667
2.64859
2.63047
2.61234
2.59421
2.57607
2.55793
2.53978
2.52163
2.50349
2.48534
2.4672
2.44907
2.43094
2.41283
2.39472
2.37663
2.35856
2.3405
2.32246
2.30444
2.28644
2.26845
2.25048
2.23253
2.2146
2.1967
2.17885
2.16103
2.14327
2.12555
2.10787
2.09025
2.07269
2.05517
2.03772
2.02033
2.003
1.98573
1.96854
1.95142
1.93437
1.91741
1.90052
1.88371
1.867
1.85037
1.83382
1.81737
1.80101
1.78474
1.76856
1.75248
1.73648
1.72058
1.70477
1.68904
1.67341
1.65786
1.6424
1.62702
1.61173
1.59652
1.58141
1.56637
1.55143
1.53657
1.52181
1.50714
1.49257
1.47811
1.46376
1.44953
1.43544
1.42149
1.40771
1.3941
1.3807
1.36752
1.35459
1.34195
1.32962
1.31766
1.30611
1.29501
1.28441
1.27438
1.26497
1.25624
1.24826
1.24108
1.23479
1.22933
1.22505
1.22122
1.21948
1.21626
2.72058
2.70248
2.68436
2.66623
2.64808
2.62992
2.61175
2.59356
2.57537
2.55717
2.53897
2.52076
2.50255
2.48434
2.46613
2.44792
2.42972
2.41152
2.39334
2.37516
2.35699
2.33884
2.3207
2.30258
2.28447
2.26638
2.24831
2.23026
2.21224
2.19425
2.17629
2.15838
2.1405
2.12267
2.10489
2.08715
2.06946
2.05183
2.03425
2.01672
1.99925
1.98184
1.96449
1.94721
1.92999
1.91283
1.89575
1.87874
1.8618
1.84493
1.82815
1.81144
1.79481
1.77827
1.7618
1.74543
1.72914
1.71293
1.69681
1.68078
1.66483
1.64897
1.6332
1.61751
1.6019
1.58638
1.57095
1.5556
1.54033
1.52515
1.51004
1.49503
1.48009
1.46525
1.45049
1.43582
1.42125
1.40678
1.39243
1.37819
1.36407
1.3501
1.33629
1.32265
1.3092
1.29597
1.28299
1.27027
1.25786
1.24578
1.23409
1.22281
1.21201
1.2017
1.19199
1.1828
1.17447
1.16624
1.16022
1.1499
2.72037
2.70226
2.68412
2.66597
2.6478
2.62962
2.61143
2.59322
2.57501
2.55678
2.53855
2.52031
2.50207
2.48383
2.46558
2.44734
2.4291
2.41086
2.39263
2.3744
2.35619
2.33798
2.31979
2.30161
2.28344
2.26529
2.24715
2.22903
2.21093
2.19288
2.17485
2.15687
2.13893
2.12104
2.10318
2.08538
2.06762
2.04991
2.03226
2.01466
1.99712
1.97963
1.9622
1.94483
1.92752
1.91028
1.8931
1.87599
1.85894
1.84197
1.82507
1.80824
1.79149
1.77482
1.75822
1.74171
1.72528
1.70893
1.69266
1.67648
1.66038
1.64437
1.62844
1.6126
1.59684
1.58117
1.56557
1.55006
1.53463
1.51928
1.504
1.4888
1.47368
1.45863
1.44366
1.42877
1.41395
1.3992
1.38454
1.36997
1.35548
1.34109
1.3268
1.31262
1.29856
1.28463
1.27085
1.25724
1.2438
1.23056
1.21754
1.20476
1.19226
1.18005
1.1682
1.15664
1.1457
1.13454
1.12567
1.11032
2.7202
2.70207
2.68393
2.66576
2.64759
2.62939
2.61119
2.59297
2.57474
2.5565
2.53826
2.52001
2.50175
2.48349
2.46522
2.44696
2.4287
2.41044
2.39218
2.37394
2.3557
2.33746
2.31924
2.30103
2.28283
2.26464
2.24647
2.22833
2.21021
2.19212
2.17407
2.15605
2.13807
2.12013
2.10224
2.08439
2.06659
2.04884
2.03114
2.01349
1.9959
1.97836
1.96089
1.94347
1.92611
1.90881
1.89158
1.87442
1.85732
1.84029
1.82333
1.80645
1.78964
1.7729
1.75625
1.73967
1.72317
1.70675
1.69042
1.67417
1.65801
1.64193
1.62593
1.61002
1.59419
1.57845
1.56278
1.5472
1.5317
1.51627
1.50092
1.48564
1.47043
1.45529
1.44023
1.42522
1.41029
1.39542
1.38062
1.36589
1.35122
1.33663
1.32211
1.30766
1.2933
1.27903
1.26486
1.25078
1.23681
1.22296
1.20924
1.19565
1.18222
1.16895
1.1559
1.14296
1.13049
1.11756
1.10701
1.0884
2.72006
2.70193
2.68377
2.66561
2.64742
2.62922
2.61101
2.59279
2.57455
2.55631
2.53805
2.51979
2.50153
2.48326
2.46499
2.44672
2.42844
2.41017
2.39191
2.37365
2.3554
2.33715
2.31891
2.30068
2.28246
2.26426
2.24606
2.2279
2.20976
2.19165
2.17358
2.15554
2.13754
2.11958
2.10166
2.08378
2.06596
2.04818
2.03045
2.01278
1.99516
1.97759
1.96008
1.94263
1.92525
1.90792
1.89066
1.87347
1.85634
1.83928
1.8223
1.80538
1.78854
1.77178
1.7551
1.73849
1.72197
1.70552
1.68916
1.67289
1.6567
1.64059
1.62457
1.60864
1.59279
1.57702
1.56134
1.54573
1.53021
1.51476
1.49939
1.48409
1.46886
1.4537
1.4386
1.42357
1.40861
1.3937
1.37885
1.36407
1.34934
1.33467
1.32007
1.30552
1.29104
1.27663
1.26228
1.248
1.23379
1.21966
1.2056
1.19163
1.17774
1.16393
1.15026
1.1366
1.12331
1.1094
1.09795
1.07746
2.71994
2.7018
2.68365
2.66547
2.64728
2.62908
2.61086
2.59263
2.57439
2.55614
2.53789
2.51962
2.50135
2.48308
2.4648
2.44652
2.42824
2.40997
2.3917
2.37343
2.35517
2.33691
2.31866
2.30043
2.2822
2.26398
2.24578
2.2276
2.20946
2.19134
2.17325
2.1552
2.13719
2.11922
2.10128
2.08339
2.06555
2.04776
2.03001
2.01232
1.99468
1.97709
1.95957
1.9421
1.92469
1.90735
1.89007
1.87286
1.85572
1.83864
1.82164
1.80472
1.78786
1.77109
1.7544
1.73778
1.72125
1.7048
1.68844
1.67216
1.65597
1.63986
1.62385
1.60792
1.59207
1.57631
1.56064
1.54505
1.52953
1.5141
1.49875
1.48346
1.46825
1.45311
1.43803
1.42302
1.40807
1.39318
1.37835
1.36357
1.34886
1.3342
1.31959
1.30504
1.29054
1.2761
1.26172
1.24738
1.2331
1.21887
1.20469
1.19056
1.17648
1.16244
1.14848
1.13448
1.1208
1.1064
1.09453
1.07304
2.71983
2.70169
2.68353
2.66535
2.64716
2.62895
2.61073
2.5925
2.57425
2.556
2.53774
2.51947
2.50119
2.48292
2.46463
2.44635
2.42807
2.40979
2.39151
2.37324
2.35497
2.33671
2.31846
2.30021
2.28198
2.26376
2.24556
2.22738
2.20924
2.19111
2.17302
2.15497
2.13695
2.11896
2.10102
2.08312
2.06527
2.04746
2.02971
2.012
1.99435
1.97675
1.95922
1.94174
1.92432
1.90697
1.88968
1.87246
1.85531
1.83823
1.82123
1.8043
1.78744
1.77067
1.75398
1.73737
1.72084
1.7044
1.68805
1.67179
1.65561
1.63953
1.62353
1.60762
1.59181
1.57608
1.56044
1.54488
1.52941
1.51401
1.4987
1.48346
1.4683
1.45321
1.43819
1.42323
1.40833