/*--------------------------------*- C++ -*----------------------------------*\
| =========                 |                                                 |
| \\      /  F ield         | OpenFOAM: The Open Source CFD Toolbox           |
|  \\    /   O peration     | Version:  4.1                                   |
|   \\  /    A nd           | Web:      www.OpenFOAM.org                      |
|    \\/     M anipulation  |                                                 |
\*---------------------------------------------------------------------------*/
FoamFile
{
    version     2.0;
    format      ascii;
    class       volScalarField;
    location    "900";
    object      k;
}
// * * * * * * * * * * * * * * * * * * * * * * * * * * * * * * * * * * * * * //

dimensions      [0 2 -2 0 0 0 0];

internalField   nonuniform List<scalar> 
6820
(
0.241787
0.289665
0.336844
0.381951
0.423953
0.46211
0.495948
0.525265
0.550093
0.57064
0.587232
0.60026
0.610145
0.617305
0.622142
0.625026
0.626287
0.62622
0.625078
0.623081
0.620414
0.617234
0.613671
0.609833
0.605811
0.601678
0.597494
0.593307
0.589155
0.585071
0.581074
0.577259
0.574892
0.202474
0.204679
0.206995
0.209467
0.212041
0.214681
0.217362
0.220056
0.222733
0.22537
0.227954
0.230479
0.232942
0.235349
0.237707
0.240025
0.242313
0.244581
0.246837
0.249089
0.251344
0.253607
0.255883
0.258175
0.260482
0.262807
0.265146
0.2675
0.269864
0.272236
0.274614
0.276992
0.279891
0.199741
0.199215
0.198471
0.197596
0.196619
0.195573
0.194483
0.193366
0.192235
0.191099
0.18997
0.188855
0.187761
0.186695
0.185662
0.184667
0.183716
0.182812
0.181958
0.181158
0.180414
0.179725
0.179091
0.17851
0.177983
0.177509
0.177086
0.176713
0.176389
0.176112
0.175879
0.175696
0.175595
0.199153
0.198176
0.197113
0.195992
0.194809
0.193571
0.192297
0.191001
0.189694
0.188384
0.187078
0.185782
0.184501
0.183238
0.181997
0.180781
0.179591
0.178431
0.177301
0.176204
0.17514
0.17411
0.173114
0.172153
0.171225
0.170332
0.169471
0.168644
0.16785
0.167087
0.166355
0.165653
0.164982
0.198981
0.1979
0.196807
0.195699
0.194559
0.193388
0.192197
0.190994
0.189785
0.188574
0.187366
0.186167
0.184978
0.183802
0.182643
0.181503
0.180382
0.179283
0.178206
0.177153
0.176124
0.175121
0.174143
0.17319
0.172263
0.171361
0.170485
0.169633
0.168807
0.168005
0.167226
0.166471
0.165731
0.198926
0.197795
0.196678
0.195576
0.194473
0.193363
0.192249
0.191134
0.190019
0.188909
0.187806
0.186711
0.185628
0.184558
0.183504
0.182465
0.181444
0.180441
0.179457
0.178492
0.177548
0.176624
0.17572
0.174837
0.173974
0.173133
0.172312
0.171511
0.17073
0.169969
0.169228
0.168505
0.167791
0.198906
0.197755
0.196631
0.195537
0.194463
0.193399
0.192342
0.191294
0.190254
0.189222
0.188201
0.187192
0.186194
0.18521
0.184241
0.183286
0.182348
0.181426
0.180521
0.179633
0.178762
0.177909
0.177075
0.176258
0.175459
0.174677
0.173914
0.173168
0.17244
0.171729
0.171035
0.170356
0.169684
0.1989
0.19774
0.196611
0.195517
0.194452
0.193408
0.192382
0.191373
0.19038
0.189401
0.188437
0.187487
0.186552
0.185631
0.184727
0.183837
0.182964
0.182107
0.181266
0.180441
0.179633
0.178841
0.178066
0.177307
0.176564
0.175838
0.175127
0.174433
0.173754
0.173091
0.172443
0.171808
0.171178
0.198897
0.197734
0.196603
0.195508
0.194448
0.193415
0.192408
0.191424
0.19046
0.189517
0.188591
0.187683
0.186792
0.185919
0.185061
0.184221
0.183396
0.182588
0.181796
0.18102
0.18026
0.179516
0.178787
0.178074
0.177376
0.176694
0.176026
0.175373
0.174735
0.174111
0.173501
0.172904
0.17231
0.198896
0.197732
0.1966
0.195505
0.194445
0.193417
0.192417
0.191444
0.190496
0.189571
0.188668
0.187785
0.186923
0.186079
0.185254
0.184446
0.183657
0.182884
0.182128
0.181388
0.180664
0.179956
0.179264
0.178587
0.177925
0.177278
0.176645
0.176026
0.175422
0.174831
0.174253
0.173687
0.173124
0.198896
0.197731
0.196599
0.195504
0.194444
0.193417
0.192421
0.191454
0.190514
0.1896
0.18871
0.187844
0.186999
0.186175
0.185371
0.184587
0.183821
0.183073
0.182342
0.181629
0.180931
0.18025
0.179585
0.178935
0.1783
0.177679
0.177073
0.17648
0.175902
0.175336
0.174784
0.174242
0.173704
0.198896
0.19773
0.196599
0.195504
0.194444
0.193418
0.192423
0.191458
0.190521
0.189612
0.188729
0.18787
0.187035
0.186222
0.18543
0.184659
0.183908
0.183176
0.182462
0.181765
0.181086
0.180423
0.179777
0.179146
0.17853
0.177929
0.177342
0.176769
0.17621
0.175664
0.175131
0.174609
0.174091
0.198896
0.19773
0.196599
0.195504
0.194444
0.193418
0.192424
0.19146
0.190525
0.189618
0.188738
0.187884
0.187054
0.186247
0.185463
0.1847
0.183958
0.183235
0.182532
0.181847
0.181179
0.180529
0.179895
0.179277
0.178675
0.178088
0.177515
0.176956
0.176411
0.175879
0.17536
0.174852
0.174348
0.198896
0.19773
0.196599
0.195504
0.194445
0.193419
0.192425
0.191461
0.190527
0.189621
0.188743
0.18789
0.187062
0.186259
0.185478
0.184719
0.183981
0.183264
0.182567
0.181888
0.181227
0.180584
0.179958
0.179349
0.178755
0.178176
0.177612
0.177063
0.176528
0.176006
0.175496
0.174998
0.174504
0.198896
0.19773
0.196599
0.195505
0.194445
0.193419
0.192425
0.191462
0.190528
0.189623
0.188745
0.187893
0.187067
0.186265
0.185486
0.184729
0.183994
0.18328
0.182586
0.181911
0.181254
0.180616
0.179995
0.17939
0.178802
0.178229
0.177671
0.177127
0.176598
0.176082
0.17558
0.175088
0.174601
0.198896
0.19773
0.196599
0.195505
0.194446
0.19342
0.192426
0.191463
0.190529
0.189624
0.188747
0.187895
0.187069
0.186268
0.18549
0.184734
0.184
0.183288
0.182595
0.181922
0.181267
0.180631
0.180012
0.179411
0.178825
0.178255
0.177701
0.177161
0.176635
0.176123
0.175625
0.175137
0.174654
0.198896
0.19773
0.1966
0.195505
0.194446
0.19342
0.192426
0.191463
0.19053
0.189625
0.188748
0.187896
0.187071
0.18627
0.185492
0.184737
0.184004
0.183292
0.1826
0.181928
0.181275
0.18064
0.180023
0.179422
0.178838
0.17827
0.177718
0.17718
0.176657
0.176147
0.175651
0.175166
0.174686
0.198896
0.19773
0.1966
0.195505
0.194446
0.19342
0.192427
0.191464
0.19053
0.189626
0.188748
0.187897
0.187072
0.186271
0.185493
0.184739
0.184006
0.183294
0.182603
0.181931
0.181279
0.180644
0.180028
0.179428
0.178845
0.178278
0.177726
0.17719
0.176667
0.176159
0.175664
0.175181
0.174702
0.198896
0.197729
0.1966
0.195506
0.194446
0.193421
0.192427
0.191464
0.190531
0.189626
0.188749
0.187898
0.187073
0.186272
0.185494
0.18474
0.184007
0.183296
0.182605
0.181933
0.181281
0.180647
0.180031
0.179432
0.178849
0.178283
0.177732
0.177195
0.176674
0.176166
0.175672
0.17519
0.174712
0.198896
0.197729
0.1966
0.195506
0.194446
0.193421
0.192427
0.191464
0.190531
0.189627
0.188749
0.187899
0.187073
0.186272
0.185495
0.184741
0.184008
0.183297
0.182606
0.181935
0.181283
0.180649
0.180033
0.179434
0.178852
0.178285
0.177734
0.177199
0.176677
0.17617
0.175676
0.175194
0.174717
0.198896
0.197729
0.1966
0.195506
0.194447
0.193421
0.192427
0.191465
0.190532
0.189627
0.18875
0.187899
0.187074
0.186273
0.185496
0.184742
0.184009
0.183298
0.182607
0.181936
0.181284
0.18065
0.180034
0.179435
0.178853
0.178287
0.177737
0.177201
0.17668
0.176173
0.175679
0.175197
0.17472
0.198896
0.197729
0.1966
0.195506
0.194447
0.193421
0.192428
0.191465
0.190532
0.189627
0.18875
0.1879
0.187074
0.186274
0.185497
0.184742
0.18401
0.183299
0.182608
0.181937
0.181285
0.180651
0.180035
0.179437
0.178855
0.178288
0.177738
0.177202
0.176681
0.176174
0.175681
0.175199
0.174722
0.198896
0.197729
0.1966
0.195506
0.194447
0.193421
0.192428
0.191465
0.190532
0.189628
0.188751
0.1879
0.187075
0.186274
0.185497
0.184743
0.18401
0.183299
0.182608
0.181937
0.181285
0.180652
0.180036
0.179437
0.178855
0.178289
0.177739
0.177203
0.176683
0.176176
0.175682
0.1752
0.174723
0.198896
0.19773
0.1966
0.195506
0.194447
0.193421
0.192428
0.191465
0.190532
0.189628
0.188751
0.1879
0.187075
0.186274
0.185497
0.184743
0.184011
0.1833
0.182609
0.181938
0.181286
0.180652
0.180037
0.179438
0.178856
0.17829
0.17774
0.177204
0.176683
0.176176
0.175683
0.175201
0.174724
0.198896
0.197729
0.1966
0.195506
0.194447
0.193421
0.192428
0.191465
0.190532
0.189628
0.188751
0.1879
0.187075
0.186274
0.185497
0.184743
0.184011
0.1833
0.182609
0.181938
0.181286
0.180653
0.180037
0.179438
0.178856
0.17829
0.17774
0.177204
0.176683
0.176176
0.175683
0.175201
0.174724
0.198896
0.197729
0.1966
0.195506
0.194447
0.193421
0.192428
0.191465
0.190532
0.189628
0.188751
0.1879
0.187075
0.186274
0.185497
0.184743
0.184011
0.1833
0.182609
0.181938
0.181286
0.180653
0.180037
0.179438
0.178856
0.17829
0.17774
0.177204
0.176683
0.176177
0.175683
0.175201
0.174724
0.198896
0.197729
0.1966
0.195506
0.194447
0.193421
0.192428
0.191465
0.190532
0.189628
0.188751
0.1879
0.187075
0.186274
0.185497
0.184743
0.18401
0.183299
0.182608
0.181937
0.181285
0.180652
0.180036
0.179437
0.178855
0.178289
0.177738
0.177203
0.176682
0.176175
0.175681
0.175199
0.174722
0.198896
0.197729
0.1966
0.195506
0.194447
0.193421
0.192428
0.191465
0.190532
0.189628
0.188751
0.1879
0.187075
0.186274
0.185497
0.184743
0.18401
0.183299
0.182608
0.181937
0.181285
0.180652
0.180036
0.179437
0.178855
0.178289
0.177738
0.177203
0.176682
0.176175
0.175681
0.175199
0.174722
0.198896
0.197729
0.1966
0.195506
0.194447
0.193421
0.192428
0.191465
0.190532
0.189627
0.18875
0.187899
0.187074
0.186273
0.185496
0.184741
0.184009
0.183297
0.182606
0.181935
0.181283
0.180649
0.180033
0.179434
0.178852
0.178285
0.177735
0.177199
0.176678
0.176171
0.175677
0.175195
0.174718
0.198896
0.197729
0.1966
0.195506
0.194447
0.193421
0.192427
0.191465
0.190532
0.189627
0.18875
0.187899
0.187074
0.186273
0.185496
0.184742
0.184009
0.183298
0.182607
0.181936
0.181283
0.18065
0.180034
0.179435
0.178852
0.178286
0.177735
0.177199
0.176678
0.176171
0.175677
0.175195
0.174717
0.198896
0.197729
0.1966
0.195506
0.194447
0.193421
0.192427
0.191464
0.190531
0.189626
0.188749
0.187898
0.187072
0.186271
0.185493
0.184738
0.184005
0.183294
0.182602
0.181931
0.181278
0.180644
0.180028
0.179428
0.178846
0.178279
0.177728
0.177192
0.17667
0.176162
0.175668
0.175185
0.174708
0.198896
0.197729
0.1966
0.195506
0.194446
0.193421
0.192427
0.191464
0.190531
0.189627
0.18875
0.187899
0.187074
0.186273
0.185496
0.184741
0.184008
0.183297
0.182605
0.181934
0.181281
0.180646
0.18003
0.17943
0.178847
0.17828
0.177728
0.177191
0.176669
0.176161
0.175666
0.175182
0.174704
0.198896
0.19773
0.1966
0.195505
0.194446
0.19342
0.192426
0.191462
0.190528
0.189623
0.188745
0.187893
0.187067
0.186265
0.185487
0.184732
0.183998
0.183286
0.182594
0.181921
0.181267
0.180632
0.180014
0.179413
0.178829
0.178261
0.177708
0.17717
0.176646
0.176136
0.175639
0.175154
0.174674
0.198896
0.19773
0.1966
0.195506
0.194447
0.193422
0.192429
0.191467
0.190534
0.18963
0.188753
0.187901
0.187075
0.186274
0.185495
0.184739
0.184004
0.183291
0.182597
0.181923
0.181267
0.180629
0.180009
0.179405
0.178818
0.178247
0.17769
0.177149
0.176621
0.176108
0.175607
0.175118
0.174633
0.198896
0.19773
0.1966
0.195504
0.194443
0.193416
0.192421
0.191457
0.190522
0.189617
0.188738
0.187885
0.187057
0.186253
0.185472
0.184713
0.183975
0.183258
0.18256
0.181881
0.181221
0.180578
0.179952
0.179343
0.17875
0.178172
0.177609
0.177061
0.176527
0.176007
0.175499
0.175004
0.174512
0.198897
0.197733
0.196606
0.195516
0.194462
0.193441
0.19245
0.191489
0.190556
0.18965
0.18877
0.187914
0.187082
0.186273
0.185486
0.18472
0.183974
0.183248
0.182541
0.181852
0.181181
0.180527
0.17989
0.17927
0.178665
0.178075
0.1775
0.17694
0.176393
0.17586
0.175341
0.174832
0.174328
0.1989
0.197735
0.196605
0.195515
0.194465
0.193449
0.192464
0.191508
0.190579
0.189676
0.188796
0.187939
0.187104
0.186291
0.185497
0.184724
0.18397
0.183235
0.182518
0.181819
0.181138
0.180473
0.179825
0.179193
0.178577
0.177976
0.177391
0.176819
0.176262
0.175719
0.175189
0.174672
0.174158
0.198944
0.197852
0.196795
0.195774
0.194787
0.193827
0.192894
0.191986
0.191101
0.190238
0.189397
0.188577
0.187778
0.186998
0.186237
0.185495
0.184771
0.184066
0.183378
0.182708
0.182054
0.181417
0.180797
0.180192
0.179603
0.179029
0.178471
0.177927
0.177397
0.176881
0.176379
0.175889
0.175406
0.199227
0.198572
0.198048
0.197613
0.197233
0.196892
0.196584
0.196305
0.196052
0.195821
0.19561
0.195418
0.195243
0.195084
0.194942
0.194813
0.194699
0.194597
0.194508
0.194431
0.194364
0.194308
0.194261
0.194224
0.194195
0.194174
0.194162
0.194156
0.194157
0.194164
0.194178
0.194197
0.194225
0.209515
0.220347
0.230808
0.24093
0.250733
0.260233
0.269438
0.278351
0.286978
0.295321
0.303382
0.311166
0.318675
0.325913
0.332885
0.339595
0.346049
0.352252
0.35821
0.363929
0.369416
0.374677
0.379719
0.38455
0.389175
0.393602
0.397838
0.401889
0.405764
0.409467
0.413007
0.416391
0.419648
0.644256
0.805071
0.984457
1.16993
1.33644
1.47314
1.57915
1.65837
1.71675
1.7601
1.7928
1.81763
1.83658
1.851
1.86169
1.86901
1.87281
1.87346
1.8707
1.86481
1.85622
1.84546
1.83305
1.81955
1.80549
1.79134
1.77753
1.76438
1.75215
1.74103
1.73116
1.72264
1.71552
1.70983
1.70552
1.70252
1.70072
1.69998
1.70012
1.70095
1.70228
1.70389
1.70557
1.7071
1.70827
1.70889
1.70874
1.70766
1.70548
1.70205
1.69723
1.69092
1.68303
1.67349
1.66225
1.64929
1.63461
1.61823
1.60019
1.58056
1.55941
1.53685
1.513
1.48799
1.46198
1.43513
1.4076
1.37958
1.35124
1.32278
1.29437
1.2662
1.23844
1.21126
1.18481
1.15923
1.13463
1.11111
1.08873
1.06752
1.04749
1.02863
1.01092
0.994317
0.978767
0.964203
0.950544
0.937703
0.925589
0.914103
0.903152
0.892638
0.882482
0.872604
0.862995
0.853643
0.844844
0.836795
0.83095
0.827487
0.287841
0.307518
0.342157
0.396104
0.468642
0.556207
0.652958
0.752588
0.849843
0.941017
1.02398
1.0979
1.16295
1.21991
1.26978
1.31343
1.35135
1.38392
1.4119
1.43558
1.45525
1.4712
1.48378
1.49338
1.5004
1.50528
1.50844
1.51026
1.5111
1.51127
1.51102
1.5106
1.51019
1.50995
1.50999
1.51036
1.51108
1.51214
1.51348
1.51501
1.51664
1.51822
1.51962
1.5207
1.52131
1.52128
1.52048
1.51876
1.51599
1.51206
1.50687
1.50033
1.49237
1.48296
1.47206
1.45966
1.44577
1.43042
1.41365
1.39554
1.37616
1.35562
1.33403
1.31151
1.28822
1.26429
1.23989
1.21518
1.19032
1.16548
1.14082
1.11649
1.09265
1.06943
1.04697
1.02537
1.00473
0.985122
0.96659
0.949155
0.932819
0.917566
0.903365
0.890171
0.877928
0.866568
0.856015
0.846186
0.836993
0.828348
0.820161
0.812344
0.804824
0.797529
0.790451
0.78358
0.777179
0.771418
0.767534
0.765544
0.175883
0.177379
0.180712
0.187101
0.197761
0.213716
0.236277
0.266314
0.303949
0.348535
0.399014
0.454026
0.512077
0.571716
0.631642
0.690722
0.747946
0.802272
0.853504
0.901426
0.945877
0.98675
1.024
1.05764
1.08778
1.11457
1.13824
1.15904
1.17724
1.19313
1.20699
1.21909
1.2297
1.23906
1.24739
1.25485
1.2616
1.26774
1.27333
1.27842
1.28301
1.28709
1.2906
1.2935
1.29571
1.29715
1.29773
1.29738
1.296
1.29351
1.28986
1.28497
1.2788
1.27133
1.26253
1.2524
1.24096
1.22824
1.21429
1.19917
1.18297
1.16578
1.14771
1.12887
1.10941
1.08946
1.06915
1.04864
1.02806
1.00757
0.987291
0.967365
0.947919
0.929067
0.910917
0.89356
0.877073
0.861512
0.846914
0.833295
0.82065
0.808961
0.798196
0.788314
0.779261
0.770973
0.763382
0.756412
0.749984
0.744016
0.73843
0.733145
0.728097
0.723221
0.718511
0.713958
0.709794
0.706157
0.704084
0.703425
0.164172
0.163488
0.163038
0.16304
0.163751
0.165459
0.168527
0.173354
0.180331
0.189995
0.202771
0.218998
0.238944
0.262763
0.290469
0.321898
0.356666
0.394149
0.433593
0.474398
0.51593
0.557548
0.598642
0.638663
0.677155
0.713762
0.748232
0.780407
0.810213
0.837649
0.862767
0.88567
0.906489
0.925381
0.942508
0.958036
0.972118
0.984896
0.996487
1.00699
1.01648
1.02501
1.03261
1.03929
1.04504
1.04984
1.05366
1.05647
1.05821
1.05885
1.05834
1.05666
1.05377
1.04966
1.04433
1.03778
1.03004
1.02115
1.01115
1.00011
0.988108
0.97523
0.96158
0.947264
0.9324
0.917109
0.901515
0.885744
0.869918
0.854161
0.838591
0.82332
0.808454
0.794091
0.78032
0.767218
0.754848
0.743259
0.732481
0.722528
0.713397
0.705073
0.697528
0.690726
0.684621
0.679157
0.674276
0.669911
0.665995
0.662455
0.659224
0.656231
0.653419
0.650732
0.648166
0.645711
0.643569
0.641845
0.641392
0.641896
0.164797
0.163875
0.162998
0.162212
0.161573
0.161149
0.161034
0.161341
0.162195
0.163748
0.16618
0.169687
0.174466
0.180725
0.188677
0.198531
0.210469
0.224616
0.240985
0.259609
0.280446
0.303368
0.328163
0.354538
0.382137
0.410562
0.439404
0.468264
0.496775
0.524618
0.55153
0.577312
0.601823
0.624977
0.646734
0.667091
0.686072
0.703718
0.720082
0.735216
0.749175
0.762004
0.773741
0.784412
0.794034
0.802614
0.810149
0.816629
0.822038
0.82636
0.829576
0.831672
0.832638
0.83247
0.831173
0.828763
0.825265
0.820715
0.815161
0.808662
0.801287
0.793113
0.784229
0.774729
0.764711
0.75428
0.743541
0.732601
0.721563
0.710531
0.699605
0.688879
0.678443
0.66838
0.658765
0.649664
0.641133
0.633215
0.625939
0.619321
0.613361
0.608051
0.603371
0.599292
0.595778
0.592785
0.590265
0.588164
0.586424
0.584986
0.583791
0.582781
0.581905
0.581117
0.580413
0.579783
0.579402
0.579339
0.580275
0.581757
0.166889
0.165976
0.165066
0.164173
0.163312
0.162504
0.161777
0.16117
0.160729
0.160505
0.160562
0.160973
0.16182
0.163187
0.165167
0.16786
0.171368
0.175792
0.181213
0.187721
0.195404
0.204342
0.214595
0.226199
0.239154
0.253424
0.268928
0.285543
0.303107
0.321431
0.340304
0.35951
0.378834
0.39808
0.417068
0.435648
0.453695
0.47111
0.48782
0.50377
0.518923
0.533251
0.546736
0.559364
0.571122
0.581998
0.59198
0.601051
0.609195
0.616397
0.62264
0.627912
0.632203
0.63551
0.637834
0.639187
0.639586
0.63906
0.637644
0.635385
0.632337
0.628561
0.624128
0.619112
0.613595
0.60766
0.601392
0.594879
0.588207
0.58146
0.574721
0.56807
0.561582
0.555327
0.549371
0.543771
0.538577
0.53383
0.52956
0.525784
0.52251
0.519737
0.517452
0.515638
0.514269
0.513313
0.512732
0.512484
0.512523
0.512801
0.51327
0.513882
0.514595
0.515369
0.516202
0.517084
0.51816
0.51947
0.521541
0.523798
0.168835
0.167969
0.1671
0.16623
0.165369
0.16452
0.163693
0.162901
0.16216
0.161491
0.160916
0.160469
0.160182
0.160095
0.160251
0.160697
0.161481
0.162653
0.164261
0.166347
0.168961
0.17215
0.175962
0.180442
0.185633
0.191568
0.198274
0.205765
0.214039
0.223078
0.232846
0.243288
0.254334
0.265898
0.277885
0.290191
0.302712
0.315344
0.327986
0.340545
0.352937
0.365084
0.376917
0.388375
0.399403
0.409953
0.41998
0.429441
0.438299
0.446519
0.454069
0.460922
0.467053
0.472445
0.477085
0.48097
0.4841
0.486486
0.488146
0.489106
0.4894
0.489067
0.488157
0.486723
0.484821
0.482516
0.479871
0.476953
0.473829
0.470566
0.467231
0.463887
0.460597
0.45742
0.454412
0.451624
0.449099
0.446877
0.444988
0.443453
0.442284
0.441487
0.441059
0.440991
0.441266
0.441864
0.442757
0.443915
0.445301
0.44688
0.448612
0.450459
0.452385
0.454359
0.456378
0.458433
0.460641
0.463016
0.465947
0.468769
0.170384
0.169571
0.168753
0.16793
0.167106
0.166282
0.16546
0.164646
0.163847
0.16307
0.162326
0.161627
0.160989
0.16043
0.15997
0.159632
0.159443
0.159428
0.159616
0.160031
0.160701
0.161651
0.162908
0.164497
0.166442
0.168767
0.171493
0.174638
0.178218
0.182245
0.186727
0.191665
0.197054
0.202883
0.209133
0.215777
0.222784
0.230115
0.237724
0.245565
0.253586
0.261734
0.269955
0.278195
0.2864
0.294518
0.302498
0.310289
0.317843
0.325115
0.33206
0.33864
0.344815
0.350555
0.355832
0.360623
0.364913
0.368692
0.371958
0.374715
0.376975
0.378755
0.38008
0.38098
0.38149
0.38165
0.381502
0.381093
0.38047
0.379682
0.378779
0.37781
0.376825
0.37587
0.374992
0.374234
0.373634
0.373228
0.373045
0.373107
0.373432
0.374028
0.3749
0.376046
0.377457
0.379123
0.381024
0.383138
0.385442
0.387905
0.390498
0.393191
0.395955
0.398764
0.401616
0.4045
0.407511
0.410638
0.414155
0.417333
0.171562
0.170796
0.170024
0.169247
0.168465
0.167679
0.166891
0.166103
0.165316
0.164535
0.163764
0.163006
0.162269
0.161561
0.160892
0.160272
0.159716
0.159237
0.158851
0.158576
0.158426
0.158419
0.158571
0.158899
0.159418
0.160143
0.161088
0.162264
0.163684
0.165356
0.167289
0.16949
0.171962
0.174709
0.177731
0.181026
0.184589
0.188412
0.192484
0.196792
0.201319
0.206046
0.21095
0.216005
0.221186
0.226461
0.231801
0.237171
0.242537
0.247865
0.253119
0.258263
0.263263
0.268085
0.272699
0.277076
0.281193
0.285029
0.288567
0.291799
0.294718
0.297324
0.299623
0.301625
0.303345
0.304804
0.306025
0.307034
0.307862
0.308541
0.309103
0.309585
0.310022
0.31045
0.310904
0.311419
0.312028
0.31276
0.313642
0.314695
0.315939
0.317384
0.319039
0.320908
0.322988
0.325273
0.327753
0.330414
0.333237
0.336202
0.339285
0.342464
0.345715
0.349018
0.352369
0.355759
0.359259
0.36284
0.366683
0.370021
0.172416
0.17169
0.170959
0.170221
0.169479
0.168731
0.16798
0.167224
0.166466
0.165707
0.164948
0.164191
0.16344
0.162697
0.161967
0.161255
0.160569
0.159915
0.159302
0.158739
0.158237
0.157805
0.157456
0.157199
0.157045
0.157007
0.157092
0.157312
0.157673
0.158184
0.158852
0.159681
0.160677
0.161842
0.163181
0.164694
0.166382
0.168244
0.170281
0.172487
0.174861
0.177396
0.180086
0.182922
0.185895
0.188993
0.192202
0.195507
0.198891
0.202336
0.20582
0.209324
0.212823
0.216295
0.219718
0.223067
0.226323
0.229464
0.232474
0.235338
0.238042
0.240579
0.242944
0.245135
0.247155
0.24901
0.25071
0.252268
0.253698
0.25502
0.256254
0.257423
0.25855
0.259661
0.260782
0.261939
0.263157
0.26446
0.265871
0.26741
0.269093
0.270934
0.272943
0.275125
0.277483
0.280015
0.282716
0.285577
0.288586
0.291728
0.294986
0.298342
0.301778
0.305277
0.308837
0.312444
0.316155
0.319926
0.323866
0.327197
0.173028
0.172334
0.171635
0.170931
0.170221
0.169507
0.168787
0.168063
0.167336
0.166604
0.16587
0.165134
0.164396
0.163659
0.162925
0.162195
0.161473
0.160762
0.160068
0.159394
0.158747
0.158132
0.157558
0.15703
0.156556
0.156143
0.1558
0.155533
0.155349
0.155254
0.155254
0.155354
0.155558
0.155871
0.156294
0.156831
0.157484
0.158252
0.159138
0.160141
0.161261
0.162497
0.163847
0.165309
0.166879
0.168555
0.17033
0.1722
0.174156
0.176192
0.178298
0.180462
0.182674
0.18492
0.187187
0.189462
0.191729
0.193975
0.196187
0.198351
0.200457
0.202495
0.204457
0.206338
0.208135
0.209847
0.211476
0.213026
0.214505
0.215921
0.217286
0.218614
0.219919
0.221218
0.222529
0.223871
0.225263
0.226723
0.22827
0.22992
0.231688
0.233588
0.235629
0.237819
0.240162
0.242659
0.24531
0.248109
0.251048
0.254117
0.257304
0.260595
0.263976
0.267433
0.270964
0.274556
0.278249
0.28199
0.285839
0.28903
0.173439
0.172772
0.172099
0.171421
0.170738
0.170051
0.169359
0.168662
0.167961
0.167256
0.166547
0.165834
0.165117
0.164398
0.163677
0.162955
0.162234
0.161514
0.160799
0.160091
0.159393
0.158709
0.158042
0.157396
0.156777
0.156189
0.155638
0.155127
0.154663
0.154251
0.153894
0.153598
0.153366
0.153202
0.15311
0.153091
0.153148
0.153283
0.153498
0.153792
0.154167
0.154624
0.155162
0.155781
0.15648
0.157258
0.158114
0.159046
0.160051
0.161125
0.162266
0.163468
0.164727
0.166035
0.167387
0.168774
0.170189
0.171623
0.173069
0.174518
0.175962
0.177393
0.178805
0.180194
0.181554
0.182883
0.184179
0.185445
0.186681
0.187893
0.189085
0.190267
0.191446
0.192634
0.193842
0.195084
0.196374
0.197726
0.199155
0.200673
0.202294
0.20403
0.20589
0.207882
0.210013
0.212285
0.2147
0.217255
0.219947
0.222768
0.225709
0.228761
0.231913
0.235154
0.23848
0.24188
0.245382
0.248927
0.252544
0.2555
0.173715
0.173067
0.172414
0.171756
0.171094
0.170428
0.169757
0.169082
0.168403
0.16772
0.167032
0.166341
0.165645
0.164946
0.164243
0.163537
0.162829
0.162119
0.161408
0.160698
0.15999
0.159286
0.158588
0.157898
0.15722
0.156556
0.15591
0.155285
0.154683
0.15411
0.153568
0.153061
0.152591
0.152163
0.151779
0.151441
0.151152
0.150914
0.150729
0.150598
0.150521
0.150501
0.150538
0.150632
0.150784
0.150993
0.151259
0.151582
0.151961
0.152396
0.152883
0.153423
0.154013
0.154649
0.15533
0.15605
0.156808
0.157597
0.158414
0.159254
0.160112
0.160984
0.161865
0.162751
0.16364
0.164528
0.165414
0.166298
0.16718
0.168062
0.168947
0.16984
0.170746
0.171672
0.172626
0.173617
0.174656
0.175754
0.176921
0.178169
0.179509
0.180951
0.182505
0.184179
0.185979
0.18791
0.189975
0.192174
0.194506
0.196966
0.19955
0.202249
0.205056
0.207962
0.210964
0.214049
0.217239
0.220472
0.22376
0.226424
0.173885
0.17325
0.172612
0.171969
0.171323
0.170672
0.170018
0.16936
0.168698
0.168031
0.167362
0.166688
0.16601
0.165328
0.164642
0.163953
0.16326
0.162564
0.161865
0.161165
0.160462
0.15976
0.159058
0.158358
0.157662
0.156972
0.156288
0.155614
0.154952
0.154303
0.153671
0.153058
0.152465
0.151897
0.151354
0.150838
0.150353
0.1499
0.14948
0.149095
0.148747
0.148436
0.148164
0.147931
0.147738
0.147585
0.147473
0.147403
0.147373
0.147384
0.147436
0.147528
0.147659
0.147828
0.148034
0.148276
0.148552
0.14886
0.149197
0.149562
0.149952
0.150364
0.150795
0.151245
0.15171
0.152189
0.152681
0.153185
0.153701
0.154231
0.154776
0.155338
0.155922
0.156532
0.157174
0.157854
0.15858
0.15936
0.160203
0.161118
0.162114
0.163201
0.164388
0.165682
0.167091
0.16862
0.170274
0.172055
0.173963
0.175999
0.178158
0.180435
0.182826
0.185323
0.187924
0.190617
0.193416
0.196263
0.199164
0.201504
0.173991
0.173366
0.172737
0.172105
0.17147
0.170831
0.170188
0.169542
0.168892
0.168239
0.167582
0.166922
0.166257
0.16559
0.164918
0.164243
0.163564
0.162882
0.162196
0.161508
0.160816
0.160123
0.159428
0.158731
0.158035
0.15734
0.156647
0.155957
0.155272
0.154592
0.153921
0.153258
0.152607
0.151968
0.151343
0.150733
0.150142
0.149569
0.149016
0.148485
0.147977
0.147493
0.147034
0.146602
0.146196
0.145817
0.145467
0.145145
0.144851
0.144587
0.144353
0.144147
0.143971
0.143823
0.143704
0.143614
0.14355
0.143514
0.143503
0.143517
0.143554
0.143614
0.143695
0.143795
0.143916
0.144054
0.144209
0.144383
0.144573
0.144782
0.14501
0.145258
0.145531
0.14583
0.14616
0.146526
0.146933
0.147387
0.147896
0.148467
0.149107
0.149825
0.150629
0.151527
0.152526
0.153633
0.154853
0.156191
0.157648
0.159227
0.160927
0.162745
0.16468
0.166725
0.168879
0.171131
0.173492
0.175906
0.178385
0.180386
0.17405
0.173431
0.172809
0.172184
0.171556
0.170924
0.170289
0.169652
0.169011
0.168366
0.167719
0.167068
0.166415
0.165757
0.165096
0.164432
0.163765
0.163094
0.16242
0.161742
0.161061
0.160378
0.159692
0.159004
0.158314
0.157623
0.156932
0.156241
0.155551
0.154863
0.154177
0.153496
0.15282
0.152149
0.151486
0.150831
0.150185
0.14955
0.148926
0.148315
0.147718
0.147136
0.146569
0.146018
0.145485
0.14497
0.144473
0.143995
0.143537
0.143099
0.142681
0.142283
0.141907
0.141551
0.141216
0.140901
0.140607
0.140334
0.140081
0.139847
0.139633
0.139438
0.139261
0.139102
0.13896
0.138835
0.138728
0.138637
0.138563
0.138507
0.138469
0.138451
0.138455
0.138482
0.138536
0.13862
0.138738
0.138895
0.139097
0.139348
0.139656
0.140027
0.140469
0.140989
0.141594
0.14229
0.143085
0.143984
0.144991
0.146109
0.147341
0.148687
0.150147
0.151718
0.1534
0.155184
0.157078
0.159033
0.161067
0.162721
0.174085
0.17347
0.172852
0.172231
0.171608
0.170981
0.170352
0.16972
0.169084
0.168446
0.167805
0.167161
0.166514
0.165864
0.165211
0.164555
0.163896
0.163233
0.162568
0.161899
0.161227
0.160553
0.159875
0.159195
0.158513
0.157829
0.157144
0.156457
0.15577
0.155082
0.154395
0.153709
0.153025
0.152343
0.151664
0.150989
0.150318
0.149653
0.148994
0.148342
0.147698
0.147062
0.146435
0.145819
0.145213
0.144618
0.144035
0.143464
0.142906
0.142361
0.141829
0.141312
0.140809
0.14032
0.139846
0.139386
0.138942
0.138512
0.138097
0.137697
0.137311
0.13694
0.136583
0.13624
0.135912
0.135597
0.135296
0.13501
0.134737
0.134479
0.134237
0.13401
0.133801
0.133611
0.133442
0.133296
0.133176
0.133085
0.133028
0.133009
0.133033
0.133105
0.133231
0.133418
0.133672
0.133999
0.134406
0.1349
0.135485
0.136166
0.136948
0.137834
0.138825
0.139922
0.141126
0.142431
0.143846
0.145326
0.146904
0.1482
0.174103
0.17349
0.172875
0.172257
0.171636
0.171012
0.170386
0.169757
0.169125
0.168491
0.167854
0.167214
0.166572
0.165927
0.165279
0.164628
0.163974
0.163318
0.162659
0.161996
0.161331
0.160663
0.159993
0.15932
0.158645
0.157967
0.157288
0.156607
0.155924
0.155241
0.154556
0.153872
0.153187
0.152503
0.15182
0.151138
0.150458
0.14978
0.149106
0.148435
0.147768
0.147105
0.146448
0.145796
0.14515
0.144512
0.14388
0.143256
0.14264
0.142032
0.141434
0.140844
0.140264
0.139694
0.139133
0.138583
0.138043
0.137514
0.136995
0.136487
0.135989
0.135502
0.135025
0.134559
0.134104
0.133659
0.133225
0.132801
0.132388
0.131986
0.131596
0.131218
0.130853
0.130501
0.130164
0.129844
0.129543
0.129263
0.129005
0.128775
0.128575
0.128409
0.128282
0.128199
0.128165
0.128185
0.128266
0.128412
0.128631
0.128927
0.129305
0.12977
0.130326
0.130975
0.131721
0.132561
0.133504
0.134513
0.135631
0.13656
0.174113
0.173502
0.172888
0.172272
0.171652
0.171031
0.170406
0.169779
0.16915
0.168518
0.167883
0.167246
0.166607
0.165964
0.16532
0.164672
0.164022
0.16337
0.162715
0.162057
0.161396
0.160733
0.160068
0.1594
0.15873
0.158057
0.157383
0.156707
0.156029
0.15535
0.15467
0.153988
0.153306
0.152623
0.151941
0.151258
0.150576
0.149894
0.149214
0.148535
0.147858
0.147183
0.146511
0.145842
0.145177
0.144515
0.143857
0.143204
0.142556
0.141914
0.141276
0.140645
0.14002
0.139402
0.13879
0.138185
0.137587
0.136996
0.136413
0.135837
0.135268
0.134708
0.134155
0.133609
0.133071
0.132541
0.132019
0.131504
0.130997
0.130498
0.130007
0.129525
0.129052
0.128587
0.128134
0.127691
0.12726
0.126843
0.126442
0.126058
0.125695
0.125353
0.125038
0.124752
0.1245
0.124285
0.124111
0.123985
0.123911
0.123893
0.123937
0.124048
0.12423
0.124487
0.124824
0.12524
0.125748
0.126313
0.126992
0.127554
0.174119
0.173508
0.172895
0.172279
0.171661
0.17104
0.170417
0.169791
0.169163
0.168532
0.167899
0.167263
0.166625
0.165985
0.165342
0.164697
0.164049
0.163399
0.162746
0.162091
0.161433
0.160773
0.160111
0.159447
0.15878
0.158112
0.157441
0.156769
0.156095
0.155419
0.154742
0.154064
0.153385
0.152705
0.152024
0.151343
0.150661
0.149979
0.149298
0.148617
0.147937
0.147257
0.146579
0.145903
0.145228
0.144555
0.143885
0.143217
0.142552
0.141891
0.141233
0.140578
0.139928
0.139282
0.138641
0.138004
0.137372
0.136745
0.136123
0.135507
0.134896
0.13429
0.13369
0.133095
0.132506
0.131922
0.131343
0.130771
0.130203
0.129641
0.129085
0.128534
0.12799
0.127451
0.126919
0.126394
0.125876
0.125368
0.124868
0.12438
0.123903
0.123441
0.122995
0.122567
0.12216
0.121777
0.121422
0.121096