/*--------------------------------*- C++ -*----------------------------------*\
| =========                 |                                                 |
| \\      /  F ield         | OpenFOAM: The Open Source CFD Toolbox           |
|  \\    /   O peration     | Version:  4.1                                   |
|   \\  /    A nd           | Web:      www.OpenFOAM.org                      |
|    \\/     M anipulation  |                                                 |
\*---------------------------------------------------------------------------*/
FoamFile
{
    version     2.0;
    format      ascii;
    class       volScalarField;
    location    "900";
    object      nut;
}
// * * * * * * * * * * * * * * * * * * * * * * * * * * * * * * * * * * * * * //

dimensions      [0 2 -1 0 0 0 0];

internalField   nonuniform List<scalar> 
6820
(
4.53774e-05
4.96674e-05
5.35596e-05
5.7033e-05
6.00872e-05
6.27329e-05
6.49892e-05
6.68824e-05
6.84449e-05
6.97114e-05
7.07177e-05
7.14978e-05
7.20841e-05
7.25058e-05
7.27893e-05
7.29578e-05
7.30314e-05
7.30275e-05
7.29609e-05
7.28442e-05
7.26882e-05
7.25016e-05
7.22921e-05
7.20657e-05
7.18276e-05
7.15822e-05
7.13329e-05
7.10825e-05
7.08333e-05
7.05874e-05
7.03458e-05
7.01145e-05
6.99706e-05
0.000389004
0.000214804
0.000161971
0.000134577
0.000117082
0.000104841
9.58724e-05
8.91195e-05
8.39493e-05
7.99547e-05
7.68576e-05
7.44593e-05
7.26133e-05
7.12095e-05
7.01639e-05
6.94111e-05
6.88998e-05
6.85893e-05
6.84467e-05
6.84457e-05
6.85646e-05
6.87854e-05
6.90931e-05
6.94752e-05
6.99209e-05
7.04211e-05
7.09681e-05
7.15548e-05
7.21759e-05
7.28246e-05
7.35008e-05
7.41942e-05
7.51908e-05
0.000867009
0.000638273
0.00050769
0.000428082
0.000375014
0.000336916
0.000308048
0.000285295
0.000266813
0.00025144
0.000238413
0.00022721
0.000217459
0.00020889
0.000201303
0.000194545
0.000188496
0.000183062
0.000178166
0.00017375
0.000169743
0.000166041
0.000162606
0.000159413
0.000156443
0.00015368
0.000151107
0.000148711
0.000146478
0.000144399
0.000142458
0.000140657
0.000139055
0.000991214
0.000902164
0.000807377
0.000726622
0.000661863
0.000610175
0.000568431
0.000534166
0.000505567
0.000481331
0.000460513
0.000442414
0.000426509
0.0004124
0.00039978
0.000388413
0.000378111
0.000368724
0.000360134
0.000352242
0.000344971
0.00033822
0.000331916
0.000326008
0.000320452
0.000315214
0.000310265
0.000305579
0.000301136
0.000296916
0.000292902
0.000289081
0.000285432
0.00101005
0.00098739
0.000948626
0.000902916
0.000857083
0.00081444
0.000776076
0.000742011
0.000711858
0.000685132
0.000661359
0.000640115
0.000621037
0.000603821
0.00058821
0.00057399
0.000560984
0.000549041
0.000538035
0.000527861
0.000518429
0.000509658
0.000501477
0.000493823
0.000486643
0.000479889
0.000473523
0.000467508
0.000461815
0.000456416
0.000451288
0.000446407
0.000441712
0.00101185
0.00100724
0.000995356
0.000976942
0.000954121
0.000929118
0.000903659
0.000878801
0.000855099
0.000832805
0.000812001
0.000792668
0.000774737
0.000758113
0.000742692
0.000728374
0.00071506
0.000702662
0.000691095
0.000680287
0.00067017
0.000660683
0.000651773
0.000643389
0.000635487
0.000628027
0.000620973
0.000614293
0.000607959
0.000601943
0.000596222
0.000590768
0.0005855
0.00101178
0.00101089
0.00100777
0.00100182
0.000992905
0.000981471
0.000968242
0.00095392
0.000939072
0.000924117
0.000909347
0.000894953
0.000881053
0.000867715
0.00085497
0.000842827
0.00083128
0.000820311
0.000809899
0.000800017
0.000790637
0.000781725
0.000773254
0.0007652
0.000757539
0.000750246
0.0007433
0.00073668
0.000730366
0.000724339
0.000718581
0.000713066
0.000707706
0.00101168
0.00101136
0.00101047
0.00100868
0.00100565
0.0010012
0.000995412
0.000988494
0.000980691
0.000972245
0.000963375
0.000954264
0.000945058
0.000935871
0.000926788
0.00091787
0.000909162
0.000900694
0.000892486
0.000884548
0.000876885
0.000869497
0.00086238
0.000855529
0.000848937
0.000842597
0.000836499
0.000830636
0.000824999
0.000819577
0.00081436
0.000809329
0.000804393
0.00101165
0.00101137
0.00101095
0.0010103
0.00100928
0.00100769
0.00100543
0.00100251
0.000998941
0.000994803
0.000990178
0.00098516
0.000979838
0.000974296
0.000968606
0.00096283
0.000957019
0.000951215
0.00094545
0.00093975
0.000934136
0.000928624
0.000923226
0.000917951
0.000912805
0.000907792
0.000902914
0.000898172
0.000893566
0.000889095
0.000884756
0.000880532
0.000876338
0.00101164
0.00101135
0.00101102
0.00101063
0.00101016
0.00100951
0.0010086
0.00100738
0.00100583
0.00100394
0.00100172
0.000999201
0.000996409
0.000993382
0.000990158
0.000986773
0.000983263
0.000979658
0.000975986
0.000972273
0.000968538
0.0009648
0.000961074
0.000957374
0.000953709
0.000950089
0.000946521
0.000943011
0.000939564
0.000936182
0.000932867
0.000929606
0.000926318
0.00101163
0.00101134
0.00101103
0.0010107
0.00101036
0.00100998
0.00100952
0.00100894
0.00100823
0.00100736
0.00100632
0.00100511
0.00100373
0.00100219
0.00100049
0.000998656
0.000996699
0.000994636
0.000992481
0.00099025
0.000987958
0.000985618
0.000983241
0.000980839
0.000978421
0.000975996
0.000973572
0.000971156
0.000968753
0.000966369
0.000964006
0.000961652
0.000959227
0.00101163
0.00101134
0.00101103
0.00101072
0.00101041
0.0010101
0.00100977
0.00100939
0.00100897
0.00100849
0.00100793
0.0010073
0.00100658
0.00100577
0.00100487
0.00100388
0.00100282
0.00100167
0.00100045
0.000999166
0.000997824
0.00099643
0.000994992
0.000993517
0.00099201
0.000990479
0.000988927
0.000987362
0.000985787
0.000984207
0.000982622
0.000981024
0.000979332
0.00101163
0.00101133
0.00101104
0.00101073
0.00101043
0.00101014
0.00100984
0.00100953
0.00100921
0.00100886
0.0010085
0.0010081
0.00100766
0.00100719
0.00100667
0.00100611
0.00100551
0.00100486
0.00100416
0.00100342
0.00100265
0.00100183
0.00100098
0.0010001
0.000999189
0.000998253
0.000997294
0.000996317
0.000995323
0.000994316
0.000993296
0.00099225
0.000991102
0.00101163
0.00101133
0.00101104
0.00101074
0.00101045
0.00101016
0.00100987
0.00100958
0.00100929
0.00100899
0.00100869
0.00100837
0.00100804
0.0010077
0.00100734
0.00100696
0.00100657
0.00100615
0.0010057
0.00100524
0.00100476
0.00100425
0.00100372
0.00100317
0.00100261
0.00100202
0.00100142
0.00100081
0.00100018
0.000999537
0.000998884
0.000998207
0.000997426
0.00101163
0.00101133
0.00101104
0.00101075
0.00101046
0.00101018
0.00100989
0.00100961
0.00100933
0.00100905
0.00100877
0.00100848
0.0010082
0.00100791
0.00100761
0.00100732
0.00100701
0.0010067
0.00100638
0.00100604
0.0010057
0.00100536
0.001005
0.00100463
0.00100425
0.00100386
0.00100346
0.00100306
0.00100264
0.00100222
0.00100179
0.00100134
0.00100078
0.00101163
0.00101133
0.00101105
0.00101075
0.00101047
0.00101019
0.00100991
0.00100963
0.00100936
0.00100908
0.00100881
0.00100854
0.00100827
0.001008
0.00100773
0.00100746
0.00100719
0.00100692
0.00100665
0.00100637
0.0010061
0.00100582
0.00100553
0.00100525
0.00100496
0.00100467
0.00100437
0.00100407
0.00100377
0.00100346
0.00100315
0.00100282
0.0010024
0.00101163
0.00101133
0.00101105
0.00101076
0.00101048
0.0010102
0.00100992
0.00100965
0.00100938
0.00100911
0.00100884
0.00100858
0.00100831
0.00100805
0.0010078
0.00100754
0.00100729
0.00100704
0.00100679
0.00100654
0.00100629
0.00100605
0.0010058
0.00100556
0.00100531
0.00100507
0.00100483
0.00100458
0.00100434
0.0010041
0.00100385
0.00100359
0.00100323
0.00101163
0.00101133
0.00101105
0.00101076
0.00101048
0.00101021
0.00100994
0.00100966
0.0010094
0.00100913
0.00100887
0.00100861
0.00100835
0.00100809
0.00100784
0.00100759
0.00100735
0.00100711
0.00100687
0.00100663
0.00100639
0.00100616
0.00100593
0.00100571
0.00100548
0.00100526
0.00100504
0.00100482
0.00100461
0.00100439
0.00100418
0.00100395
0.00100363
0.00101163
0.00101133
0.00101105
0.00101077
0.00101049
0.00101022
0.00100994
0.00100968
0.00100941
0.00100915
0.00100889
0.00100863
0.00100838
0.00100812
0.00100788
0.00100763
0.00100739
0.00100716
0.00100692
0.00100669
0.00100647
0.00100624
0.00100602
0.00100581
0.00100559
0.00100538
0.00100517
0.00100497
0.00100477
0.00100457
0.00100437
0.00100416
0.00100386
0.00101163
0.00101133
0.00101105
0.00101077
0.00101049
0.00101022
0.00100995
0.00100969
0.00100942
0.00100916
0.0010089
0.00100865
0.0010084
0.00100815
0.00100791
0.00100767
0.00100743
0.0010072
0.00100697
0.00100674
0.00100652
0.0010063
0.00100608
0.00100587
0.00100567
0.00100546
0.00100526
0.00100506
0.00100487
0.00100468
0.00100449
0.00100428
0.00100399
0.00101163
0.00101133
0.00101105
0.00101077
0.0010105
0.00101023
0.00100996
0.00100969
0.00100943
0.00100917
0.00100892
0.00100867
0.00100842
0.00100817
0.00100793
0.00100769
0.00100746
0.00100723
0.001007
0.00100678
0.00100656
0.00100635
0.00100614
0.00100593
0.00100572
0.00100552
0.00100533
0.00100513
0.00100495
0.00100476
0.00100457
0.00100438
0.00100409
0.00101163
0.00101133
0.00101105
0.00101077
0.0010105
0.00101023
0.00100996
0.0010097
0.00100944
0.00100918
0.00100893
0.00100868
0.00100843
0.00100819
0.00100795
0.00100772
0.00100749
0.00100726
0.00100704
0.00100682
0.0010066
0.00100639
0.00100618
0.00100597
0.00100577
0.00100557
0.00100538
0.00100519
0.00100501
0.00100482
0.00100464
0.00100445
0.00100416
0.00101163
0.00101133
0.00101105
0.00101077
0.0010105
0.00101023
0.00100997
0.00100971
0.00100945
0.00100919
0.00100894
0.00100869
0.00100845
0.00100821
0.00100797
0.00100774
0.00100751
0.00100728
0.00100706
0.00100684
0.00100663
0.00100642
0.00100621
0.00100601
0.00100581
0.00100562
0.00100542
0.00100524
0.00100505
0.00100487
0.00100469
0.0010045
0.00100422
0.00101163
0.00101133
0.00101105
0.00101077
0.0010105
0.00101023
0.00100997
0.00100971
0.00100945
0.0010092
0.00100895
0.0010087
0.00100846
0.00100822
0.00100798
0.00100775
0.00100753
0.0010073
0.00100708
0.00100687
0.00100665
0.00100644
0.00100624
0.00100604
0.00100584
0.00100565
0.00100546
0.00100527
0.00100509
0.00100491
0.00100474
0.00100455
0.00100427
0.00101163
0.00101133
0.00101105
0.00101077
0.0010105
0.00101024
0.00100997
0.00100971
0.00100946
0.0010092
0.00100895
0.00100871
0.00100847
0.00100823
0.00100799
0.00100776
0.00100754
0.00100731
0.00100709
0.00100688
0.00100667
0.00100646
0.00100626
0.00100606
0.00100586
0.00100567
0.00100548
0.00100529
0.00100511
0.00100493
0.00100476
0.00100457
0.00100429
0.00101163
0.00101133
0.00101105
0.00101077
0.0010105
0.00101024
0.00100997
0.00100971
0.00100946
0.0010092
0.00100895
0.00100871
0.00100847
0.00100823
0.001008
0.00100777
0.00100754
0.00100732
0.0010071
0.00100689
0.00100668
0.00100647
0.00100627
0.00100607
0.00100588
0.00100568
0.0010055
0.00100531
0.00100513
0.00100496
0.00100478
0.00100459
0.00100432
0.00101163
0.00101133
0.00101105
0.00101077
0.0010105
0.00101024
0.00100997
0.00100971
0.00100946
0.0010092
0.00100896
0.00100871
0.00100847
0.00100823
0.001008
0.00100777
0.00100754
0.00100732
0.0010071
0.00100688
0.00100667
0.00100646
0.00100626
0.00100606
0.00100586
0.00100567
0.00100548
0.0010053
0.00100512
0.00100494
0.00100476
0.00100457
0.00100429
0.00101163
0.00101133
0.00101105
0.00101077
0.0010105
0.00101024
0.00100997
0.00100971
0.00100945
0.0010092
0.00100895
0.00100871
0.00100847
0.00100823
0.00100799
0.00100776
0.00100754
0.00100732
0.0010071
0.00100688
0.00100667
0.00100647
0.00100627
0.00100607
0.00100587
0.00100568
0.00100549
0.00100531
0.00100513
0.00100495
0.00100478
0.00100459
0.00100431
0.00101163
0.00101133
0.00101105
0.00101077
0.0010105
0.00101023
0.00100997
0.00100971
0.00100945
0.0010092
0.00100894
0.0010087
0.00100845
0.00100821
0.00100797
0.00100774
0.00100751
0.00100729
0.00100706
0.00100684
0.00100663
0.00100642
0.00100621
0.00100601
0.00100581
0.00100562
0.00100542
0.00100524
0.00100505
0.00100487
0.00100469
0.0010045
0.00100422
0.00101163
0.00101133
0.00101105
0.00101077
0.0010105
0.00101023
0.00100997
0.0010097
0.00100945
0.00100919
0.00100894
0.00100869
0.00100845
0.00100821
0.00100798
0.00100775
0.00100752
0.0010073
0.00100708
0.00100686
0.00100665
0.00100644
0.00100623
0.00100603
0.00100583
0.00100564
0.00100544
0.00100526
0.00100507
0.00100489
0.00100471
0.00100451
0.00100423
0.00101163
0.00101133
0.00101105
0.00101077
0.0010105
0.00101023
0.00100996
0.00100969
0.00100943
0.00100917
0.00100891
0.00100866
0.00100841
0.00100816
0.00100791
0.00100767
0.00100744
0.0010072
0.00100697
0.00100674
0.00100652
0.0010063
0.00100608
0.00100587
0.00100566
0.00100545
0.00100525
0.00100505
0.00100486
0.00100466
0.00100447
0.00100426
0.00100397
0.00101163
0.00101133
0.00101105
0.00101077
0.00101049
0.00101022
0.00100996
0.0010097
0.00100944
0.00100918
0.00100893
0.00100868
0.00100843
0.00100819
0.00100795
0.00100771
0.00100747
0.00100723
0.00100699
0.00100676
0.00100653
0.0010063
0.00100606
0.00100584
0.00100561
0.00100538
0.00100516
0.00100493
0.00100471
0.00100449
0.00100426
0.00100403
0.00100369
0.00101163
0.00101133
0.00101105
0.00101077
0.00101048
0.0010102
0.00100992
0.00100964
0.00100935
0.00100907
0.00100879
0.00100851
0.00100822
0.00100794
0.00100766
0.00100738
0.0010071
0.00100681
0.00100653
0.00100624
0.00100595
0.00100566
0.00100536
0.00100507
0.00100477
0.00100447
0.00100416
0.00100386
0.00100355
0.00100325
0.00100293
0.00100261
0.00100218
0.00101163
0.00101134
0.00101105
0.00101077
0.00101049
0.00101021
0.00100993
0.00100964
0.00100934
0.00100903
0.00100871
0.00100837
0.00100802
0.00100766
0.00100728
0.00100689
0.00100648
0.00100606
0.00100562
0.00100516
0.00100469
0.00100421
0.00100371
0.0010032
0.00100268
0.00100215
0.00100161
0.00100106
0.00100051
0.000999942
0.00099937
0.000998776
0.000998084
0.00101163
0.00101134
0.00101103
0.00101069
0.00101033
0.00100994
0.00100951
0.00100904
0.00100853
0.00100796
0.00100734
0.00100667
0.00100594
0.00100515
0.00100431
0.00100342
0.00100248
0.00100149
0.00100047
0.000999414
0.000998324
0.000997207
0.000996066
0.000994906
0.00099373
0.000992542
0.000991344
0.000990139
0.00098893
0.00098772
0.000986508
0.000985283
0.000983969
0.00101164
0.00101133
0.00101094
0.00101042
0.00100973
0.00100883
0.0010077
0.00100635
0.00100478
0.001003
0.00100104
0.000998909
0.000996631
0.000994228
0.000991719
0.000989125
0.000986463
0.00098375
0.000981
0.000978226
0.00097544
0.000972653
0.000969872
0.000967103
0.000964354
0.00096163
0.000958937
0.000956278
0.000953656
0.000951075
0.000948535
0.000946023
0.000943466
0.00101162
0.0010106
0.00100853
0.00100543
0.0010014
0.000996513
0.00099091
0.000984747
0.000978174
0.000971314
0.000964272
0.000957136
0.000949978
0.000942854
0.000935809
0.000928876
0.000922081
0.000915443
0.000908975
0.000902685
0.000896578
0.000890657
0.000884923
0.000879373
0.000874006
0.000868819
0.000863806
0.000858963
0.000854286
0.000849769
0.000845405
0.000841179
0.000837016
0.00100895
0.000995379
0.000976042
0.000953694
0.00093032
0.000907093
0.000884657
0.000863329
0.000843228
0.000824388
0.000806781
0.000790352
0.000775024
0.00076072
0.000747357
0.00073486
0.000723158
0.000712183
0.000701876
0.000692182
0.000683051
0.000674439
0.000666305
0.000658613
0.000651329
0.000644424
0.000637871
0.000631644
0.000625722
0.000620084
0.00061471
0.00060958
0.000604631
0.000892788
0.000742255
0.000649202
0.00058554
0.000538566
0.000502138
0.000472884
0.000448753
0.000428416
0.000410981
0.000395823
0.000382492
0.000370655
0.000360056
0.0003505
0.000341831
0.000333927
0.000326686
0.000320026
0.00031388
0.000308188
0.000302904
0.000297985
0.000293395
0.000289104
0.000285084
0.000281313
0.000277768
0.000274431
0.000271286
0.000268318
0.000265514
0.000262862
0.000126722
0.000129956
0.000133005
0.000135891
0.000138628
0.00014123
0.000143705
0.000146063
0.000148309
0.00015045
0.000152489
0.000154433
0.000156285
0.00015805
0.000159732
0.000161334
0.00016286
0.000164313
0.000165696
0.000167014
0.000168268
0.000169462
0.000170599
0.00017168
0.00017271
0.000173689
0.000174621
0.000175508
0.000176352
0.000177155
0.000177919
0.000178647
0.000179344
8.54719e-05
0.000115334
0.000145817
0.000176025
0.000203028
0.000226756
0.000248155
0.000268285
0.000288059
0.000308066
0.00032853
0.000349416
0.000370687
0.000392271
0.000414066
0.000435905
0.000457568
0.000479043
0.000500201
0.000521075
0.000541716
0.000562181
0.000582552
0.000602935
0.000623453
0.00064423
0.000665385
0.000687027
0.000709253
0.000732152
0.000755805
0.000780285
0.000805654
0.000831955
0.00085921
0.000887419
0.000916559
0.000946588
0.000977443
0.00100905
0.00104131
0.00107412
0.00110738
0.00114097
0.00117476
0.00120865
0.0012425
0.00127622
0.0013097
0.00134284
0.00137555
0.00140775
0.00143938
0.00147037
0.00150069
0.0015303
0.00155918
0.00158732
0.00161472
0.00164141
0.00166741
0.00169278
0.00171757
0.00174184
0.00176568
0.00178916
0.00181239
0.00183544
0.00185842
0.00188142
0.00190453
0.00192785
0.00195146
0.00197541
0.00199978
0.00202459
0.00204983
0.00207548
0.00210146
0.00212766
0.00215395
0.00218022
0.00220632
0.00223214
0.00225751
0.00228231
0.00230641
0.00232969
0.00235204
0.0023734
0.00239372
0.00241298
0.00243123
0.00244856
0.00246521
0.00248174
0.00249911
0.0025196
0.00254687
0.00259793
7.83546e-05
8.47438e-05
9.52598e-05
0.000110475
0.000129534
0.00015137
0.000174487
0.000197704
0.000220439
0.000242489
0.000263891
0.000284819
0.000305523
0.000326247
0.00034716
0.000368298
0.000389576
0.000410907
0.000432299
0.000453621
0.000474806
0.000495826
0.000516692
0.000537451
0.00055817
0.000578931
0.000599821
0.000620927
0.000642335
0.000664126
0.000686385
0.000709189
0.000732615
0.000756725
0.000781572
0.000807189
0.000833594
0.000860787
0.000888749
0.000917445
0.000946824
0.000976822
0.00100736
0.00103836
0.00106971
0.00110134
0.00113312
0.00116496
0.00119676
0.00122843
0.00125988
0.00129103
0.0013218
0.00135213
0.00138198
0.00141131
0.00144008
0.00146828
0.00149593
0.00152302
0.00154959
0.00157569
0.00160135
0.00162665
0.00165164
0.00167642
0.00170106
0.00172563
0.00175023
0.00177494
0.00179983
0.00182498
0.00185045
0.00187631
0.00190259
0.0019293
0.00195645
0.00198398
0.00201181
0.00203983
0.00206792
0.00209594
0.00212376
0.00215124
0.00217824
0.00220462
0.00223026
0.00225504
0.00227888
0.00230171
0.00232349
0.00234423
0.00236395
0.00238279
0.00240097
0.00241902
0.00243786
0.00245954
0.00248729
0.00253423
0.00013774
0.000137412
0.00013792
0.000139204
0.000141082
0.000143449
0.000147848
0.000155282
0.000165893
0.000179184
0.000194728
0.000212088
0.000230833
0.00025059
0.000271051
0.000291961
0.000313069
0.000334196
0.000355436
0.000376723
0.000397992
0.00041919
0.000440289
0.000461283
0.000482189
0.000503039
0.000523877
0.000544759
0.000565745
0.000586906
0.000608313
0.000630045
0.000652177
0.000674782
0.000697926
0.000721666
0.000746045
0.000771095
0.000796829
0.000823248
0.000850335
0.000878061
0.00090638
0.000935233
0.000964554
0.000994264
0.00102428
0.00105451
0.00108488
0.00111528
0.00114564
0.00117589
0.00120595
0.00123575
0.00126526
0.00129442
0.00132321
0.00135163
0.00137965
0.0014073
0.0014346
0.00146158
0.00148828
0.00151476
0.00154108
0.0015673
0.00159349
0.00161972
0.00164605
0.00167256
0.0016993
0.00172634
0.00175372
0.00178149
0.00180967
0.00183827
0.00186726
0.00189659
0.00192617
0.0019559
0.00198565
0.00201527
0.00204464
0.00207361
0.00210205
0.00212982
0.0021568
0.00218289
0.00220801
0.0022321
0.00225514
0.00227713
0.00229813
0.00231825
0.00233774
0.0023571
0.00237717
0.0023998
0.00242774
0.00246998
0.000281176
0.000277081
0.000273363
0.000270019
0.000266855
0.000263256
0.000258691
0.000253007
0.000246343
0.000240659
0.000236886
0.000235501
0.000236869
0.00024114
0.000248262
0.000258012
0.00027003
0.000283891
0.000299265
0.000315886
0.000333459
0.000351727
0.000370484
0.000389583
0.000408926
0.000428455
0.000448144
0.000467987
0.000487996
0.000508195
0.000528622
0.000549318
0.000570335
0.000591726
0.000613547
0.000635849
0.000658681
0.000682082
0.000706084
0.000730706
0.000755955
0.000781827
0.000808302
0.000835348
0.000862924
0.000890974
0.000919438
0.000948246
0.000977327
0.00100661
0.00103601
0.00106548
0.00109493
0.00112433
0.00115361
0.00118274
0.00121169
0.00124044
0.00126899
0.00129734
0.0013255
0.00135351
0.00138139
0.00140918
0.00143693
0.0014647
0.00149253
0.00152047
0.00154859
0.00157693
0.00160553
0.00163444
0.0016637
0.00169331
0.00172331
0.00175366
0.00178436
0.00181532
0.00184648
0.00187771
0.00190889
0.00193988
0.00197055
0.00200076
0.00203038
0.00205927
0.00208734
0.00211448
0.00214062
0.00216572
0.00218976
0.00221275
0.00223477
0.00225593
0.00227647
0.00229688
0.00231791
0.0023412
0.00236906
0.00240606
0.000436014
0.000430299
0.000424734
0.000419453
0.000414491
0.000409767
0.00040505
0.000399967
0.000394015
0.000386883
0.000378733
0.000369958
0.000360888
0.00035198
0.000343783
0.000336857
0.000331684
0.00032858
0.000327816
0.000329525
0.00033366
0.000340071
0.000348552
0.000358866
0.000370767
0.000384023
0.000398421
0.000413779
0.000429953
0.000446833
0.00046434
0.000482427
0.000501068
0.000520254
0.000539991
0.00056029
0.000581169
0.000602648
0.000624744
0.000647473
0.000670844
0.00069486
0.000719514
0.000744791
0.000770666
0.000797104
0.000824062
0.000851491
0.000879333
0.00090753
0.000936022
0.000964749
0.000993655
0.00102269
0.0010518
0.00108095
0.00111011
0.00113926
0.00116839
0.00119748
0.00122656
0.00125563
0.00128471
0.00131383
0.00134302
0.00137231
0.00140175
0.00143137
0.0014612
0.00149127
0.00152161
0.00155225
0.00158321
0.00161448
0.00164606
0.00167794
0.00171007
0.00174239
0.00177481
0.00180722
0.00183951
0.00187152
0.00190315
0.00193425
0.0019647
0.00199439
0.0020232
0.00205107
0.00207791
0.0021037
0.00212844
0.00215213
0.00217487
0.00219677
0.00221807
0.00223922
0.00226092
0.00228455
0.00231202
0.00234332
0.000579026
0.000572595
0.000566234
0.000560009
0.000553989
0.000548199
0.00054266
0.000537349
0.000532145
0.000526847
0.000521231
0.000515224
0.000508625
0.00050129
0.000493138
0.000484174
0.000474516
0.000464374
0.000454131
0.000444276
0.000435289
0.000427605
0.000421582
0.000417485
0.000415478
0.000415628
0.000417919
0.000422272
0.000428563
0.000436643
0.000446357
0.000457554
0.000470096
0.000483862
0.000498753
0.000514687
0.000531602
0.000549451
0.000568197
0.000587814
0.000608279
0.000629572
0.000651671
0.000674554
0.000698193
0.000722555
0.000747602
0.00077329
0.000799572
0.000826395
0.000853706
0.000881451
0.000909578
0.000938034
0.000966774
0.000995757
0.00102495
0.00105432
0.00108385
0.00111352
0.00114333
0.00117328
0.00120337
0.00123362
0.00126404
0.00129464
0.00132544
0.00135646
0.00138772
0.00141922
0.00145097
0.00148299
0.00151526
0.00154779
0.00158055
0.00161351
0.00164664
0.00167986
0.00171308
0.00174621
0.00177913
0.00181171
0.00184384
0.00187539
0.00190625
0.00193631
0.00196547
0.00199367
0.00202085
0.00204698
0.00207206
0.00209613
0.00211925
0.00214157
0.0021633
0.00218489
0.00220692
0.00223056
0.00225733
0.00228258
0.000701047
0.000694454
0.00068796
0.000681542
0.00067528
0.000669198
0.000663318
0.00065767
0.000652233
0.00064699
0.00064189
0.000636896
0.000631935
0.000626895
0.00062164
0.000616016
0.000609858
0.000603008
0.000595339
0.00058685
0.000577607
0.000567777
0.000557613
0.000547442
0.000537627
0.00052854
0.00052053
0.000513897
0.000508877
0.000505639
0.000504284
0.000504856
0.000507348
0.000511718
0.000517896
0.0005258
0.000535341
0.000546428
0.000558978
0.000572911
0.000588157
0.000604651
0.000622335
0.000641153
0.000661052
0.00068198
0.000703886
0.000726713
0.000750407
0.000774911
0.000800166
0.000826114
0.000852697
0.00087986
0.000907548
0.000935714
0.000964311
0.0009933
0.00102265
0.00105233
0.00108231
0.00111258
0.00114314
0.00117395
0.00120503
0.00123636
0.00126795
0.00129978
0.00133185
0.00136415
0.00139668
0.00142943
0.00146238
0.0014955
0.00152878
0.00156217
0.00159563
0.0016291
0.00166249
0.00169571
0.00172867
0.00176123
0.00179331
0.00182479
0.00185556
0.00188552
0.0019146
0.00194273
0.00196985
0.00199595
0.00202104
0.00204514
0.00206833
0.00209076
0.00211262
0.00213432
0.00215637
0.00217971
0.00220549
0.00222449
0.000798149
0.000792013
0.000785946
0.000779924
0.000773977
0.000768116
0.000762357
0.000756729
0.00075126
0.000745971
0.000740873
0.000735979
0.000731287
0.000726782
0.000722431
0.000718177
0.000713944
0.000709629
0.000705104
0.000700245
0.000694928
0.000689062
0.000682568
0.000675434
0.000667713
0.000659525
0.000651048
0.000642511
0.000634173
0.000626306
0.000619178
0.000613037
0.000608101
0.000604552
0.000602527
0.000602124
0.000603404
0.000606395
0.0006111
0.000617503
0.000625571
0.000635264
0.000646532
0.000659322
0.000673578
0.000689238
0.000706243
0.000724529
0.000744032
0.000764684
0.000786419
0.00080917
0.000832868
0.000857448
0.000882844
0.000908993
0.000935837
0.000963318
0.000991387
0.00101999
0.0010491
0.00107866
0.00110864
0.00113901
0.00116974
0.0012008
0.00123216
0.00126381
0.00129571
0.00132784
0.00136018
0.00139269
0.00142536
0.00145815
0.00149104
0.00152398
0.00155693
0.00158983
0.00162262
0.00165521
0.0016875
0.00171942
0.00175085
0.00178171
0.00181189
0.00184131
0.0018699
0.00189758
0.00192431
0.00195008
0.00197488
0.00199875
0.00202176
0.00204404
0.00206578
0.00208736
0.00210917
0.00213195
0.00215656
0.00216937
0.000870887
0.000865604
0.000860342
0.000855103
0.000849871
0.000844671
0.000839517
0.000834429
0.000829427
0.000824528
0.000819745
0.000815085
0.000810568
0.000806213
0.000802036
0.000798042
0.000794229
0.000790583
0.000787068
0.000783623
0.000780192
0.000776704
0.000773079
0.000769239
0.000765117
0.000760666
0.000755868
0.000750739
0.00074534
0.000739719
0.000733999
0.000728335
0.000722904
0.000717896
0.000713497
0.000709883
0.00070722
0.000705654
0.000705309
0.000706289
0.000708673
0.00071252
0.000717869
0.000724741
0.000733141
0.000743063
0.000754485
0.00076738
0.000781708
0.000797422
0.000814471
0.000832796
0.000852336
0.000873026
0.000894798
0.000917585
0.000941317
0.000965929
0.000991354
0.00101753
0.00104439
0.00107188
0.00109995
0.00112854
0.0011576
0.00118708
0.00121693
0.00124712
0.0012776
0.00130833
0.00133928
0.00137041
0.00140168
0.00143307
0.00146454
0.00149606
0.00152758
0.00155906
0.00159045
0.00162167
0.00165266
0.00168333
0.00171359
0.00174337
0.00177257
0.00180112
0.00182892
0.00185593
0.00188208
0.00190735
0.00193174
0.00195527
0.00197799
0.00200004
0.00202157
0.00204291
0.00206438
0.00208649
0.00210986
0.00211692
0.000921864
0.000917653
0.000913422
0.000909175
0.000904908
0.000900622
0.000896334
0.000892053
0.000887789
0.000883555
0.000879362
0.000875223
0.000871152
0.000867167
0.000863284
0.000859522
0.000855901
0.000852436
0.000849139
0.000846014
0.000843063
0.000840269
0.00083761
0.00083506
0.000832583
0.000830139
0.000827691
0.000825202
0.000822651
0.000820022
0.000817316
0.00081456
0.000811802
0.00080912
0.000806562
0.000804227
0.000802232
0.000800702
0.000799759
0.000799526
0.000800118
0.000801644
0.0008042
0.000807869
0.000812722
0.000818815
0.000826191
0.000834877
0.000844889
0.000856231
0.000868892
0.000882853
0.000898084
0.000914547
0.000932197
0.000950981
0.000970842
0.00099172
0.00101355
0.00103627
0.00105981
0.00108411
0.00110911
0.00113473
0.00116092
0.00118761
0.00121476
0.00124231
0.0012702
0.0012984
0.00132685
0.00135553
0.0013844
0.00141342
0.00144257
0.00147183
0.00150115
0.00153052
0.00155988
0.00158918
0.00161838
0.0016474
0.00167618
0.00170463
0.00173267
0.00176021
0.00178719
0.00181351
0.00183913
0.00186399
0.00188808
0.0019114
0.00193398
0.00195594
0.00197739
0.00199862
0.00201986
0.00204142
0.00206372
0.00206594
0.000955745
0.000952591
0.000949392
0.000946151
0.000942872
0.000939552
0.000936196
0.000932813
0.000929409
0.000925994
0.000922575
0.00091916
0.000915754
0.000912367
0.00090901
0.000905701
0.000902458
0.0008993
0.000896243
0.000893303
0.000890505
0.000887865
0.000885394
0.000883104
0.000881
0.000879082
0.000877343
0.000875774
0.000874363
0.000873097
0.000871962
0.000870953
0.000870068
0.000869319
0.000868722
0.000868305
0.000868094
0.000868125
0.000868459
0.000869168
0.000870332
0.000872031
0.000874349
0.000877366
0.00088116
0.000885805
0.000891364
0.000897896
0.000905448
0.000914057
0.000923752
0.000934548
0.000946452
0.000959459
0.000973555
0.000988715
0.00100491
0.0010221
0.00104024
0.00105928
0.00107916
0.00109983
0.00112123
0.0011433
0.00116599
0.00118923
0.00121298
0.00123717
0.00126176
0.00128672
0.00131199
0.00133755
0.00136337
0.00138943
0.00141571
0.0014422
0.00146887
0.00149572
0.00152272
0.00154984
0.00157703
0.00160427
0.00163147
0.00165858
0.00168551
0.00171218
0.0017385
0.00176439
0.00178976
0.00181456
0.00183872
0.00186223
0.0018851
0.00190738
0.00192917
0.00195069
0.0019721
0.00199351
0.00201522
0.00201408
0.000976687
0.000974454
0.000972165
0.000969824
0.000967435
0.000965
0.000962515
0.000959986
0.000957418
0.000954814
0.000952179
0.000949516
0.000946828
0.000944121
0.000941402
0.000938679
0.000935962
0.000933265
0.000930604
0.000927995
0.000925459
0.00092302
0.000920697
0.00091851
0.000916481
0.000914629
0.000912969
0.000911516
0.000910279
0.000909266
0.000908481
0.000907925
0.000907602
0.000907511
0.000907658
0.000908049
0.000908686
0.000909573
0.00091073
0.000912188
0.000913982
0.000916156
0.000918755
0.000921832
0.000925438
0.000929628
0.000934455
0.000939971
0.000946223
0.000953255
0.000961103
0.0009698
0.000979368
0.000989822
0.00100117
0.00101341
0.00102653
0.00104052
0.00105535
0.00107099
0.00108741
0.00110456
0.0011224
0.00114089
0.00115998
0.00117963
0.00119979
0.00122043
0.0012415
0.00126297
0.00128481
0.00130701
0.00132955
0.00135242
0.00137562
0.00139914
0.00142299
0.00144718
0.0014717
0.00149654
0.00152169
0.00154712
0.00157279
0.00159864
0.00162461
0.0016506
0.00167654
0.00170232
0.00172784
0.00175302
0.00177776
0.00180202
0.00182576
0.00184898
0.00187174
0.0018942
0.00191642
0.00193836
0.00196021
0.00195779
0.000989089
0.00098756
0.000985979
0.000984348
0.00098267
0.000980945
0.000979173
0.000977355
0.000975493
0.000973591
0.000971648
0.000969667
0.00096765
0.000965597
0.000963512
0.000961399
0.000959261
0.000957107
0.000954944
0.000952785
0.000950642
0.000948535
0.000946478
0.000944493
0.000942601
0.000940822
0.000939179
0.000937693
0.000936384
0.00093527
0.000934366
0.00093369
0.000933245
0.000933037
0.000933076
0.000933369
0.000933926
0.000934754
0.000935861
0.000937262
0.00093897
0.000941007
0.000943396
0.000946162
0.000949336
0.000952951