/*--------------------------------*- C++ -*----------------------------------*\
| =========                 |                                                 |
| \\      /  F ield         | OpenFOAM: The Open Source CFD Toolbox           |
|  \\    /   O peration     | Version:  4.1                                   |
|   \\  /    A nd           | Web:      www.OpenFOAM.org                      |
|    \\/     M anipulation  |                                                 |
\*---------------------------------------------------------------------------*/
FoamFile
{
    version     2.0;
    format      ascii;
    class       volScalarField;
    location    "900";
    object      p;
}
// * * * * * * * * * * * * * * * * * * * * * * * * * * * * * * * * * * * * * //

dimensions      [0 2 -2 0 0 0 0];

internalField   nonuniform List<scalar> 
6820
(
-8.23966
-8.49722
-8.59484
-8.61555
-8.6488
-8.69412
-8.73576
-8.77194
-8.80567
-8.83781
-8.86789
-8.89581
-8.9218
-8.94614
-8.96901
-8.99056
-9.01096
-9.03037
-9.04891
-9.06671
-9.08387
-9.10049
-9.11664
-9.13242
-9.14787
-9.16307
-9.17808
-9.19294
-9.20775
-9.22238
-9.23776
-9.25162
-9.28173
-8.35244
-8.5185
-8.59722
-8.61812
-8.64506
-8.68033
-8.71196
-8.73889
-8.76422
-8.78897
-8.81287
-8.83577
-8.85785
-8.87924
-8.90002
-8.9202
-8.93985
-8.959
-8.9777
-8.996
-9.01393
-9.03153
-9.04883
-9.06587
-9.08269
-9.09931
-9.11579
-9.13214
-9.14844
-9.16467
-9.18105
-9.19756
-9.21426
-8.4087
-8.51341
-8.59144
-8.62336
-8.65157
-8.68478
-8.71524
-8.74158
-8.76622
-8.79016
-8.81318
-8.83517
-8.85626
-8.87659
-8.89623
-8.91522
-8.93363
-8.95152
-8.96893
-8.98593
-9.00255
-9.01884
-9.03484
-9.05059
-9.06614
-9.0815
-9.09674
-9.11187
-9.12697
-9.142
-9.15717
-9.17206
-9.18759
-8.45848
-8.53348
-8.60613
-8.6413
-8.66879
-8.70037
-8.7304
-8.75675
-8.78116
-8.80459
-8.82697
-8.84823
-8.86852
-8.88802
-8.90681
-8.92496
-8.94254
-8.95963
-8.97627
-8.99253
-9.00845
-9.02408
-9.03944
-9.05458
-9.06954
-9.08435
-9.09904
-9.11365
-9.12822
-9.14277
-9.15736
-9.17194
-9.18659
-8.49998
-8.55121
-8.61142
-8.64628
-8.67354
-8.7038
-8.73305
-8.75909
-8.78324
-8.80646
-8.82873
-8.85002
-8.87043
-8.89011
-8.90911
-8.92751
-8.94535
-8.9627
-8.97959
-8.99608
-9.0122
-9.028
-9.04352
-9.05878
-9.07383
-9.0887
-9.10343
-9.11804
-9.13257
-9.14706
-9.16155
-9.17606
-9.19066
-8.53477
-8.57062
-8.62147
-8.65676
-8.68442
-8.71348
-8.74184
-8.76756
-8.79152
-8.81453
-8.83661
-8.85771
-8.87792
-8.89738
-8.91615
-8.93428
-8.95186
-8.96892
-8.98552
-9.00172
-9.01755
-9.03306
-9.04829
-9.06326
-9.07802
-9.09261
-9.10704
-9.12136
-9.1356
-9.14978
-9.16397
-9.17819
-9.19253
-8.56461
-8.59017
-8.63207
-8.66524
-8.69172
-8.71883
-8.74573
-8.77067
-8.79405
-8.81652
-8.83815
-8.85891
-8.87887
-8.89814
-8.91678
-8.93485
-8.95239
-8.96945
-8.98609
-9.00233
-9.01822
-9.03379
-9.04908
-9.06411
-9.07892
-9.09354
-9.10799
-9.1223
-9.13651
-9.15065
-9.16474
-9.17884
-9.19299
-8.59055
-8.60913
-8.64355
-8.67439
-8.70013
-8.72601
-8.75192
-8.77633
-8.79935
-8.8215
-8.84287
-8.86344
-8.88324
-8.90238
-8.92089
-8.93884
-8.95625
-8.97319
-8.98969
-9.00578
-9.02152
-9.03692
-9.05203
-9.06687
-9.08148
-9.09588
-9.1101
-9.12416
-9.1381
-9.15194
-9.16571
-9.17943
-9.19312
-8.6134
-8.62723
-8.65553
-8.68364
-8.7081
-8.7324
-8.75687
-8.78029
-8.80257
-8.82408
-8.8449
-8.865
-8.88443
-8.90323
-8.92147
-8.93918
-8.95639
-8.97316
-8.98952
-9.00549
-9.02112
-9.03643
-9.05146
-9.06622
-9.08074
-9.09505
-9.10917
-9.12313
-9.13693
-9.15061
-9.16418
-9.17766
-9.19106
-8.63377
-8.64431
-8.66767
-8.69298
-8.71607
-8.739
-8.76226
-8.78487
-8.80658
-8.82762
-8.84806
-8.86787
-8.88705
-8.90567
-8.92374
-8.94131
-8.95841
-8.97507
-8.99131
-9.00718
-9.02269
-9.03788
-9.05277
-9.06739
-9.08175
-9.09589
-9.10981
-9.12354
-9.13709
-9.15049
-9.16373
-9.17682
-9.18975
-8.65211
-8.66031
-8.67973
-8.70237
-8.72397
-8.74553
-8.7675
-8.78913
-8.81007
-8.83045
-8.85031
-8.86963
-8.8884
-8.90664
-8.92439
-8.94167
-8.95851
-8.97493
-8.99096
-9.00662
-9.02194
-9.03695
-9.05167
-9.06611
-9.08029
-9.09424
-9.10797
-9.1215
-9.13483
-9.14797
-9.16093
-9.1737
-9.18628
-8.66872
-8.67524
-8.69152
-8.71169
-8.73177
-8.75202
-8.77277
-8.79344
-8.81366
-8.83345
-8.85281
-8.87172
-8.89015
-8.90811
-8.92563
-8.9427
-8.95936
-8.97562
-8.9915
-9.00703
-9.02222
-9.03709
-9.05166
-9.06595
-9.07998
-9.09375
-9.10728
-9.12059
-9.13367
-9.14654
-9.15919
-9.1716
-9.18376
-8.68386
-8.68911
-8.70291
-8.72087
-8.73945
-8.75843
-8.778
-8.7977
-8.81715
-8.83628
-8.85507
-8.87348
-8.89148
-8.90906
-8.92623
-8.943
-8.95937
-8.97537
-8.991
-9.00629
-9.02125
-9.0359
-9.05025
-9.06432
-9.07812
-9.09165
-9.10494
-9.11798
-9.13079
-9.14336
-9.15568
-9.16775
-9.17955
-8.69769
-8.70199
-8.71379
-8.72982
-8.74695
-8.76472
-8.78317
-8.80193
-8.8206
-8.83908
-8.85731
-8.87525
-8.89284
-8.91007
-8.92694
-8.94343
-8.95957
-8.97535
-8.99078
-9.00588
-9.02066
-9.03513
-9.0493
-9.06319
-9.07679
-9.09013
-9.1032
-9.11602
-9.12857
-9.14086
-9.15288
-9.16463
-9.17605
-8.71035
-8.71391
-8.72411
-8.73845
-8.75424
-8.77085
-8.78825
-8.80609
-8.82399
-8.84181
-8.85947
-8.87691
-8.89406
-8.9109
-8.92741
-8.94359
-8.95942
-8.97493
-8.9901
-9.00495
-9.01948
-9.03371
-9.04763
-9.06127
-9.07463
-9.0877
-9.1005
-9.11303
-9.12529
-9.13727
-9.14896
-9.16036
-9.17145
-8.72193
-8.72491
-8.73381
-8.7467
-8.76125
-8.77678
-8.79319
-8.81015
-8.8273
-8.84448
-8.86157
-8.87851
-8.89522
-8.91167
-8.92784
-8.9437
-8.95926
-8.9745
-8.98943
-9.00404
-9.01835
-9.03236
-9.04607
-9.05949
-9.07262
-9.08547
-9.09803
-9.11031
-9.1223
-9.13401
-9.14541
-9.1565
-9.16725
-8.73252
-8.73502
-8.74287
-8.75452
-8.76794
-8.78247
-8.79795
-8.81408
-8.83051
-8.84705
-8.86358
-8.88002
-8.89629
-8.91235
-8.92816
-8.94369
-8.95894
-8.97389
-8.98855
-9.0029
-9.01695
-9.0307
-9.04416
-9.05732
-9.07019
-9.08277
-9.09505
-9.10705
-9.11875
-9.13014
-9.14123
-9.152
-9.16243
-8.74215
-8.74428
-8.75125
-8.76184
-8.77425
-8.78787
-8.8025
-8.81784
-8.83357
-8.8495
-8.86549
-8.88144
-8.89728
-8.91294
-8.92839
-8.9436
-8.95854
-8.97321
-8.98759
-9.00168
-9.01548
-9.02899
-9.0422
-9.05512
-9.06774
-9.08007
-9.0921
-9.10383
-9.11526
-9.12638
-9.13719
-9.14767
-9.1578
-8.75087
-8.75268
-8.75894
-8.76862
-8.78015
-8.79293
-8.80678
-8.82139
-8.83647
-8.85182
-8.86728
-8.88276
-8.89817
-8.91344
-8.92853
-8.94341
-8.95804
-8.97241
-8.98652
-9.00034
-9.01387
-9.02712
-9.04007
-9.05272
-9.06508
-9.07714
-9.0889
-9.10035
-9.1115
-9.12233
-9.13284
-9.14302
-9.15286
-8.7587
-8.76025
-8.76592
-8.77483
-8.78558
-8.79762
-8.81075
-8.8247
-8.83917
-8.85396
-8.86893
-8.88395
-8.89894
-8.91383
-8.92857
-8.94312
-8.95744
-8.97153
-8.98535
-8.9989
-9.01217
-9.02516
-9.03785
-9.05025
-9.06235
-9.07415
-9.08565
-9.09684
-9.10771
-9.11827
-9.12851
-9.13842
-9.14799
-8.76564
-8.76698
-8.77216
-8.78043
-8.79051
-8.80189
-8.81438
-8.82772
-8.84164
-8.85591
-8.8704
-8.88499
-8.89959
-8.91411
-8.9285
-8.94273
-8.95675
-8.97054
-8.98408
-8.99736
-9.01037
-9.02309
-9.03553
-9.04766
-9.05951
-9.07104
-9.08227
-9.09319
-9.1038
-9.11409
-9.12406
-9.1337
-9.143
-8.7717
-8.77287
-8.77764
-8.78538
-8.79489
-8.80569
-8.81762
-8.83042
-8.84383
-8.85763
-8.87168
-8.88587
-8.90008
-8.91425
-8.92831
-8.94223
-8.95595
-8.96945
-8.98272
-8.99573
-9.00847
-9.02094
-9.03311
-9.04499
-9.05658
-9.06786
-9.07883
-9.08949
-9.09984
-9.10987
-9.11958
-9.12896
-9.13801
-8.77686
-8.77789
-8.78234
-8.78964
-8.79867
-8.80898
-8.82042
-8.83275
-8.84571
-8.85909
-8.87274
-8.88655
-8.90041
-8.91424
-8.92799
-8.9416
-8.95504
-8.96826
-8.98126
-8.99401
-9.00649
-9.0187
-9.03062
-9.04225
-9.05358
-9.06461
-9.07533
-9.08573
-9.09583
-9.10561
-9.11507
-9.1242
-9.13301
-8.78109
-8.78202
-8.78621
-8.79317
-8.80181
-8.81172
-8.82275
-8.83468
-8.84724
-8.86024
-8.87353
-8.887
-8.90054
-8.91406
-8.92751
-8.94084
-8.95399
-8.96695
-8.97968
-8.99217
-9.0044
-9.01635
-9.02802
-9.0394
-9.05048
-9.06126
-9.07173
-9.08189
-9.09173
-9.10126
-9.11048
-9.11937
-9.12794
-8.78437
-8.78522
-8.78922
-8.79592
-8.80427
-8.81386
-8.82456
-8.83614
-8.84838
-8.86105
-8.87403
-8.8872
-8.90044
-8.91368
-8.92685
-8.93991
-8.95281
-8.96551
-8.97799
-8.99023
-9.00221
-9.01393
-9.02536
-9.0365
-9.04734
-9.05788
-9.06811
-9.07804
-9.08765
-9.09695
-9.10594
-9.11461
-9.12296
-8.78663
-8.78743
-8.79131
-8.79783
-8.80596
-8.81532
-8.82577
-8.83709
-8.84906
-8.86147
-8.87418
-8.88708
-8.90006
-8.91304
-8.92596
-8.93877
-8.95142
-8.96387
-8.97611
-8.98811
-8.99985
-9.01132
-9.0225
-9.0334
-9.044
-9.0543
-9.0643
-9.07398
-9.08336
-9.09242
-9.10118
-9.10962
-9.11776
-8.7878
-8.78858
-8.79239
-8.79881
-8.80683
-8.81604
-8.82632
-8.83745
-8.84922
-8.86142
-8.87392
-8.8866
-8.89936
-8.91212
-8.92481
-8.9374
-8.94982
-8.96206
-8.97407
-8.98585
-8.99738
-9.00863
-9.0196
-9.03029
-9.04067
-9.05076
-9.06054
-9.07002
-9.07919
-9.08805
-9.0966
-9.10485
-9.11277
-8.78781
-8.7886
-8.79242
-8.79883
-8.80683
-8.81599
-8.82619
-8.83723
-8.84887
-8.86092
-8.87326
-8.88576
-8.89833
-8.91089
-8.92338
-8.93575
-8.94796
-8.95998
-8.97177
-8.98332
-8.99462
-9.00564
-9.01638
-9.02683
-9.03699
-9.04684
-9.0564
-9.06564
-9.07458
-9.08322
-9.09155
-9.09959
-9.10732
-8.78656
-8.78741
-8.79132
-8.79784
-8.80593
-8.81515
-8.82537
-8.83639
-8.84799
-8.85998
-8.87221
-8.8846
-8.89704
-8.90946
-8.9218
-8.93401
-8.94605
-8.9579
-8.96952
-8.9809
-8.99201
-9.00285
-9.01341
-9.02368
-9.03366
-9.04333
-9.0527
-9.06177
-9.07053
-9.07899
-9.08714
-9.09499
-9.10252
-8.78392
-8.78488
-8.78898
-8.79574
-8.80406
-8.81347
-8.82382
-8.83493
-8.84657
-8.85854
-8.87073
-8.88302
-8.89535
-8.90763
-8.91981
-8.93184
-8.9437
-8.95535
-8.96676
-8.97793
-8.98883
-8.99946
-9.0098
-9.01985
-9.0296
-9.03905
-9.0482
-9.05705
-9.0656
-9.07384
-9.08179
-9.08946
-9.09683
-8.77973
-8.78084
-8.78528
-8.79246
-8.80117
-8.8109
-8.82152
-8.83284
-8.84463
-8.85671
-8.86896
-8.88128
-8.89359
-8.90584
-8.91796
-8.92992
-8.94168
-8.95322
-8.96452
-8.97556
-8.98633
-8.99682
-9.00701
-9.01692
-9.02652
-9.03582
-9.04482
-9.05352
-9.06191
-9.07
-9.07779
-9.08527
-9.09243
-8.77373
-8.7751
-8.78006
-8.78789
-8.79718
-8.80739
-8.81839
-8.82999
-8.84197
-8.85416
-8.86644
-8.87874
-8.891
-8.90315
-8.91515
-8.92696
-8.93856
-8.94993
-8.96105
-8.9719
-8.98248
-8.99277
-9.00277
-9.01247
-9.02187
-9.03097
-9.03977
-9.04827
-9.05647
-9.06437
-9.07199
-9.07933
-9.08639
-8.76561
-8.76736
-8.77313
-8.78191
-8.79206
-8.80298
-8.8146
-8.82675
-8.83917
-8.8517
-8.86424
-8.87673
-8.88911
-8.90132
-8.91335
-8.92516
-8.93672
-8.94804
-8.95908
-8.96984
-8.98032
-8.99049
-9.00037
-9.00995
-9.01922
-9.02819
-9.03685
-9.04521
-9.05326
-9.06101
-9.06846
-9.0756
-9.08242
-8.75491
-8.75726
-8.76429
-8.77444
-8.78562
-8.79726
-8.80943
-8.82201
-8.83474
-8.84745
-8.8601
-8.87264
-8.88502
-8.8972
-8.90916
-8.92088
-8.93233
-8.94352
-8.95442
-8.96503
-8.97534
-8.98536
-8.99508
-9.00449
-9.01359
-9.02239
-9.03089
-9.03909
-9.04699
-9.0546
-9.06192
-9.06898
-9.07577
-8.7409
-8.74422
-8.75329
-8.76563
-8.77856
-8.79162
-8.805
-8.81855
-8.83197
-8.84518
-8.85819
-8.87096
-8.88349
-8.89575
-8.90773
-8.91943
-8.93084
-8.94195
-8.95276
-8.96327
-8.97347
-8.98336
-8.99294
-9.00221
-9.01117
-9.01982
-9.02816
-9.03619
-9.04392
-9.05135
-9.05847
-9.06529
-9.07179
-8.72251
-8.7276
-8.73969
-8.75419
-8.76814
-8.78201
-8.79629
-8.8106
-8.82456
-8.83815
-8.85145
-8.86443
-8.87709
-8.88941
-8.9014
-8.91307
-8.92442
-8.93546
-8.94618
-8.95658
-8.96666
-8.97644
-8.9859
-8.99505
-9.0039
-9.01243
-9.02067
-9.0286
-9.03624
-9.04359
-9.05065
-9.05744
-9.06397
-8.69758
-8.70673
-8.72613
-8.74587
-8.7623
-8.7777
-8.79322
-8.80833
-8.82271
-8.8365
-8.84989
-8.86289
-8.87549
-8.88772
-8.8996
-8.91114
-8.92234
-8.9332
-8.94374
-8.95395
-8.96384
-8.97341
-8.98266
-8.99159
-9.00021
-9.00852
-9.01653
-9.02423
-9.03164
-9.03875
-9.04557
-9.05209
-9.05832
-8.66264
-8.6763
-8.70193
-8.72519
-8.74414
-8.76216
-8.7798
-8.79625
-8.81146
-8.82584
-8.83961
-8.85281
-8.86549
-8.87771
-8.88954
-8.90099
-8.91209
-8.92286
-8.9333
-8.94342
-8.95323
-8.96273
-8.97192
-8.98082
-8.98941
-8.9977
-9.00569
-9.01339
-9.02079
-9.02789
-9.0347
-9.04119
-9.04735
-8.61525
-8.66291
-8.70229
-8.72256
-8.73883
-8.75718
-8.77514
-8.79109
-8.80564
-8.81957
-8.833
-8.84589
-8.85826
-8.8702
-8.88175
-8.89293
-8.90378
-8.91428
-8.92448
-8.93436
-8.94393
-8.95321
-8.96219
-8.97089
-8.97929
-8.98741
-8.99526
-9.00284
-9.01016
-9.01724
-9.0241
-9.0308
-9.03736
-8.48092
-8.6031
-8.67775
-8.70198
-8.7183
-8.73932
-8.7598
-8.777
-8.79233
-8.80715
-8.82167
-8.83578
-8.8495
-8.86292
-8.87606
-8.88894
-8.90154
-8.91385
-8.92587
-8.93759
-8.949
-8.96009
-8.97085
-8.98129
-8.99138
-9.00114
-9.01056
-9.01963
-9.02835
-9.03673
-9.04475
-9.05241
-9.0598
-9.32919
-9.48518
-9.70255
-9.80691
-9.91765
-10.0238
-10.1053
-10.1684
-10.2178
-10.2541
-10.2789
-10.2934
-10.2996
-10.2997
-10.2962
-10.2914
-10.286
-10.2775
-10.2726
-10.2756
-10.2878
-10.3085
-10.3364
-10.3696
-10.4059
-10.4438
-10.482
-10.5195
-10.5557
-10.5896
-10.6204
-10.6472
-10.6693
-10.6861
-10.6972
-10.7023
-10.7012
-10.6938
-10.68
-10.6593
-10.6318
-10.5971
-10.5552
-10.5057
-10.4486
-10.3837
-10.3108
-10.2297
-10.1403
-10.0423
-9.93548
-9.81967
-9.69463
-9.56018
-9.41616
-9.26247
-9.09905
-8.92589
-8.74303
-8.55059
-8.34876
-8.1378
-7.91803
-7.68988
-7.45385
-7.21055
-6.96063
-6.70482
-6.44391
-6.1787
-5.91002
-5.63874
-5.36578
-5.09207
-4.81861
-4.54647
-4.27674
-4.0106
-3.74929
-3.49398
-3.24571
-3.00511
-2.77258
-2.54845
-2.33302
-2.12654
-1.9292
-1.74112
-1.56227
-1.39257
-1.23168
-1.07944
-0.934748
-0.798033
-0.665423
-0.541641
-0.410917
-0.30205
-0.144628
-0.0938604
-9.24458
-9.29722
-9.38939
-9.43546
-9.48886
-9.55653
-9.62298
-9.68641
-9.74701
-9.80224
-9.8503
-9.89067
-9.9237
-9.95034
-9.97221
-9.9916
-10.0107
-10.0259
-10.0416
-10.0621
-10.0892
-10.1229
-10.1621
-10.2052
-10.2503
-10.296
-10.3412
-10.3848
-10.4262
-10.4646
-10.4992
-10.5292
-10.554
-10.573
-10.586
-10.5926
-10.5927
-10.5862
-10.5729
-10.5528
-10.5256
-10.4911
-10.4493
-10.3999
-10.3429
-10.278
-10.2052
-10.1242
-10.035
-9.93718
-9.83068
-9.71525
-9.59071
-9.45687
-9.31362
-9.16084
-8.99849
-8.82656
-8.64513
-8.45429
-8.25426
-8.04527
-7.82767
-7.60188
-7.3684
-7.12781
-6.88076
-6.62797
-6.3702
-6.10823
-5.8429
-5.57504
-5.30555
-5.03534
-4.7654
-4.49675
-4.23047
-3.9677
-3.70961
-3.45734
-3.21186
-2.97383
-2.74365
-2.52166
-2.30816
-2.10341
-1.90759
-1.72082
-1.54308
-1.37431
-1.21416
-1.06251
-0.918256
-0.781892
-0.649572
-0.52619
-0.396067
-0.288552
-0.133736
-0.08729
-9.20603
-9.22741
-9.27193
-9.29944
-9.32278
-9.35542
-9.39078
-9.42562
-9.4607
-9.49537
-9.52853
-9.55964
-9.58857
-9.61573
-9.64207
-9.66916
-9.69819
-9.72817
-9.7593
-9.79439
-9.83503
-9.88122
-9.93199
-9.98584
-10.0411
-10.0963
-10.1501
-10.2018
-10.2504
-10.2953
-10.3357
-10.3708
-10.4002
-10.4233
-10.4398
-10.4495
-10.4524
-10.4483
-10.4372
-10.4189
-10.3933
-10.3603
-10.3198
-10.2716
-10.2157
-10.152
-10.0802
-10.0004
-9.91221
-9.81559
-9.71032
-9.5962
-9.47306
-9.34075
-9.19914
-9.04814
-8.88772
-8.71787
-8.53867
-8.35023
-8.15275
-7.94649
-7.73178
-7.50904
-7.27875
-7.0415
-6.79791
-6.54869
-6.29457
-6.03633
-5.77478
-5.51073
-5.24506
-4.97867
-4.71252
-4.4476
-4.18496
-3.9257
-3.67095
-3.42181
-3.1792
-2.94377
-2.71596
-2.4961
-2.2845
-2.08143
-1.88707
-1.70154
-1.52483
-1.35688
-1.19738
-1.04621
-0.902308
-0.766196
-0.634101
-0.511033
-0.381555
-0.275245
-0.123419
-0.0805242
-9.20391
-9.22696
-9.26328
-9.29139
-9.31028
-9.33083
-9.35126
-9.36865
-9.384
-9.39815
-9.41096
-9.4226
-9.4336
-9.44482
-9.45744
-9.47289
-9.49247
-9.51661
-9.54449
-9.57768
-9.61739
-9.66354
-9.71514
-9.77068
-9.8285
-9.88699
-9.94478
-10.0007
-10.0539
-10.1034
-10.1483
-10.1879
-10.2216
-10.2488
-10.2693
-10.2827
-10.2891
-10.2882
-10.28
-10.2644
-10.2414
-10.2108
-10.1725
-10.1265
-10.0727
-10.011
-9.94128
-9.8634
-9.77723
-9.68262
-9.5794
-9.46739
-9.34645
-9.21641
-9.07719
-8.92869
-8.77088
-8.60379
-8.42747
-8.24206
-8.04775
-7.8448
-7.63353
-7.41437
-7.18778
-6.95434
-6.71465
-6.4694
-6.21931
-5.96513
-5.70765
-5.44767
-5.18605
-4.92367
-4.66146
-4.40039
-4.14148
-3.8858
-3.63443
-3.38842
-3.14866
-2.91581
-2.69031
-2.47252
-2.26276
-2.06128
-1.86827
-1.68387
-1.50807
-1.34083
-1.18186
-1.03105
-0.887387
-0.751413
-0.619468
-0.496602
-0.367802
-0.262492
-0.113992
-0.0737837
-9.20826
-9.23032
-9.25807
-9.28168
-9.2985
-9.31534
-9.3324
-9.34722
-9.35973
-9.37035
-9.37887
-9.38527
-9.39003
-9.39399
-9.39832
-9.40447
-9.41386
-9.42735
-9.44519
-9.4685
-9.49831
-9.53473
-9.57705
-9.62411
-9.67452
-9.72684
-9.77976
-9.83209
-9.88274
-9.93071
-9.97502
-10.0148
-10.0493
-10.0778
-10.0999
-10.1154
-10.1238
-10.1252
-10.1193
-10.106
-10.0853
-10.057
-10.021
-9.97729
-9.92573
-9.86624
-9.79874
-9.7231
-9.6392
-9.5469
-9.44604
-9.33648
-9.21805
-9.09063
-8.95413
-8.80848
-8.65364
-8.48965
-8.31656
-8.13452
-7.94371
-7.74438
-7.53687
-7.32156
-7.09894
-6.86955
-6.63397
-6.39289
-6.14698
-5.897
-5.64371
-5.38789
-5.13039
-4.87205
-4.6138
-4.35658
-4.10137
-3.84922
-3.60117
-3.35822
-3.12124
-2.89087
-2.66758
-2.45174
-2.24367
-2.04364
-1.85184
-1.66841
-1.49337
-1.32669
-1.16808
-1.01749
-0.87391
-0.73793
-0.606026
-0.483228
-0.355089
-0.250572
-0.105585
-0.0672891
-9.20964
-9.23021
-9.25382
-9.27621
-9.2944
-9.31144
-9.32796
-9.34225
-9.3539
-9.36322
-9.37023
-9.37503
-9.37806
-9.38008
-9.3821
-9.3853
-9.39086
-9.39966
-9.41233
-9.42955
-9.45218
-9.48043
-9.51387
-9.55167
-9.59275
-9.63598
-9.68025
-9.72455
-9.76792
-9.80941
-9.84812
-9.88319
-9.91384
-9.93942
-9.95938
-9.97332
-9.98089
-9.98185
-9.97597
-9.96307
-9.94298
-9.91555
-9.88065
-9.83817
-9.788
-9.73003
-9.66416
-9.59027
-9.50823
-9.41789
-9.31912
-9.21176
-9.09567
-8.97073
-8.83684
-8.69395
-8.54202
-8.38108
-8.2112
-8.0325
-7.84517
-7.64945
-7.44568
-7.23422
-7.01554
-6.79016
-6.55867
-6.3217
-6.07993
-5.83408
-5.5849
-5.33317
-5.07968
-4.82529
-4.57088
-4.31739
-4.06576
-3.81701
-3.57213
-3.33209
-3.09772
-2.86969
-2.64845
-2.43439
-2.22785
-2.02909
-1.83833
-1.65571
-1.48125
-1.31494
-1.15653
-1.00597
-0.862324
-0.726178
-0.594187
-0.471305
-0.343775
-0.239815
-0.098412
-0.0612655
-9.20968
-9.22944
-9.25075
-9.27138
-9.28898
-9.30486
-9.31983
-9.33303
-9.34403
-9.35302
-9.36009
-9.3653
-9.36899
-9.37176
-9.37442
-9.37791
-9.38323
-9.39115
-9.40234
-9.41732
-9.43673
-9.4608
-9.48918
-9.5212
-9.55597
-9.59253
-9.62994
-9.66731
-9.70379
-9.73858
-9.77086
-9.79989
-9.82498
-9.84553
-9.86102
-9.87104
-9.87525
-9.87337
-9.86515
-9.85036
-9.8288
-9.8003
-9.76469
-9.72181
-9.67154
-9.61374
-9.54827
-9.47501
-9.39382
-9.30453
-9.20701
-9.1011
-8.98665
-8.86356
-8.73171
-8.59104
-8.44153
-8.28319
-8.11609
-7.94034
-7.75613
-7.56368
-7.36332
-7.1554
-6.94036
-6.71872
-6.49103
-6.25792
-6.02003
-5.77808
-5.53277
-5.28488
-5.03518
-4.78452
-4.53374
-4.28375
-4.03549
-3.78992
-3.54801
-3.31068
-3.07874
-2.85283
-2.63345
-2.42099
-2.21578
-2.01811
-1.82819
-1.64617
-1.4721
-1.30598
-1.14758
-0.996868
-0.852976
-0.716492
-0.584272
-0.461143
-0.334139
-0.230492
-0.0926168
-0.055921
-9.20908
-9.2278
-9.24732
-9.26628
-9.28333
-9.29886
-9.31344
-9.32656
-9.33777
-9.3471
-9.35462
-9.36043
-9.36482
-9.36832
-9.37164
-9.3756
-9.38105
-9.38871
-9.39917
-9.41297
-9.43054
-9.45207
-9.47728
-9.5056
-9.53626
-9.56843
-9.60125
-9.63388
-9.66555
-9.69548
-9.72296
-9.74727
-9.7678
-9.78398
-9.79534
-9.8015
-9.80214
-9.79696
-9.78575
-9.76827
-9.74433
-9.71374
-9.67635
-9.63198
-9.5805
-9.52175
-9.45561
-9.38193
-9.30055
-9.21133
-9.11412
-9.00875
-8.89508
-8.773
-8.6424
-8.50322
-8.35541
-8.199
-8.03404
-7.86064
-7.67897
-7.48925
-7.29177
-7.0869
-6.87504
-6.65669
-6.43239
-6.20272
-5.96834
-5.72991
-5.48814
-5.24376
-4.99755
-4.75032
-4.50289
-4.25614
-4.01099
-3.76835
-3.52916
-3.29431
-3.06458
-2.84061
-2.62289
-2.41182
-2.20775
-2.01096
-1.82169
-1.64008
-1.46621
-1.30008
-1.14151
-0.990463
-0.846153
-0.709159
-0.576562
-0.453015
-0.326423
-0.222837
-0.0883114
-0.051424
-9.20662
-9.22454
-9.24284
-9.26066
-9.27714
-9.29227
-9.30628
-9.31891
-9.32987
-9.33914
-9.34683
-9.35307
-9.35814
-9.3625
-9.36675
-9.37156
-9.37765
-9.38565
-9.39607
-9.4094
-9.42594
-9.44585
-9.4689
-9.49461
-9.52232
-9.55129
-9.58074
-9.60991
-9.63805
-9.66446
-9.68843
-9.70931
-9.7265
-9.73948
-9.74777
-9.75101
-9.74886
-9.74106
-9.72736
-9.70756
-9.68146
-9.64888
-9.60966
-9.56365
-9.5107
-9.45069
-9.38346
-9.30888
-9.2268
-9.13709
-9.03958
-8.93414
-8.82063
-8.69892
-8.56893
-8.43059
-8.28386
-8.12875
-7.96532
-7.79367
-7.61396
-7.4264
-7.23128
-7.02892
-6.81975
-6.60421
-6.38284
-6.1562
-5.92491
-5.68963
-5.45102
-5.20983
-4.96678
-4.72266
-4.47829
-4.23452
-3.99221
-3.75226
-3.51557
-3.28298
-3.05526
-2.83302
-2.61677
-2.40691
-2.20379
-2.00772
-1.81891
-1.63754
-1.46368
-1.29738
-1.13845
-0.986906
-0.842015
-0.704349
-0.571229
-0.447103
-0.320789
-0.217017
-0.0855569
-0.047911
-9.20457
-9.22163
-9.23884
-9.25563
-9.27137
-9.28596
-9.29949
-9.31184
-9.32279
-9.33229
-9.34042
-9.3473
-9.35317
-9.35842
-9.36354
-9.36912
-9.37576
-9.38402
-9.39435
-9.40718
-9.42276
-9.44123
-9.46238
-9.48582
-9.51095
-9.53714
-9.56369
-9.58989
-9.61505
-9.63849
-9.65956
-9.67763
-9.69213
-9.70254
-9.70842
-9.70938
-9.7051
-9.6953
-9.67972
-9.65816
-9.63042
-9.59631
-9.55568
-9.50837
-9.45424
-9.39315
-9.32498
-9.24958
-9.16681
-9.07655
-8.97865
-8.87297
-8.7594
-8.63782
-8.50815
-8.37033
-8.22432
-8.07015
-7.90786
-7.73757
-7.55941
-7.37361
-7.18044
-6.98021
-6.77332
-6.56022
-6.34141
-6.11744
-5.88891
-5.65644
-5.42071
-5.1824
-4.94224
-4.70099
-4.45943
-4.2184
-3.97872
-3.74126
-3.50687
-3.27636
-3.05047
-2.82981
-2.61487
-2.40607
-2.20376
-2.00824
-1.81975
-1.63847
-1.46448
-1.29784
-1.13842
-0.986223
-0.840607
-0.702124
-0.568347
-0.443488
-0.317307
-0.21311
-0.0843436
-0.0454432
-9.20073
-9.21712
-9.2335
-9.24949
-9.26463
-9.27877
-9.29197
-9.30409
-9.31497
-9.32458
-9.33297
-9.34026
-9.34669
-9.35259
-9.35841
-9.36462
-9.37176
-9.38029
-9.39063
-9.40311
-9.41799
-9.43529
-9.4549
-9.47643
-9.4994
-9.52322
-9.54728
-9.57091
-9.59349
-9.61437
-9.63293
-9.64858
-9.66078
-9.66902
-9.67287
-9.67194
-9.66591
-9.65449
-9.63742
-9.61447
-9.58546
-9.55018
-9.50848
-9.4602
-9.40519
-9.34332
-9.27445
-9.19844
-9.11518
-9.02452
-8.92634
-8.82051
-8.70692
-8.58547
-8.45608
-8.31871
-8.17333
-8.01996
-7.85867
-7.68955
-7.51276
-7.32851
-7.13706
-6.93873
-6.73389
-6.523
-6.30651
-6.08498
-5.85898
-5.62912
-5.39604
-5.16041
-4.92295
-4.68438
-4.44547
-4.20701
-3.9698
-3.73468
-3.50245
-3.2739
-3.04972
-2.83051
-2.61678
-2.40892
-2.20731
-2.01224
-1.82395
-1.64264
-1.46841
-1.30132
-1.14128
-0.98831
-0.84185
-0.702431
-0.56788
-0.442156
-0.315956
-0.211111
-0.084604
-0.0440241
-9.19757
-9.21327
-9.22889
-9.24414
-9.2587
-9.27239
-9.2852
-9.29706
-9.30784
-9.31752
-9.32615
-9.33385
-9.34083
-9.34736
-9.35382
-9.36063
-9.3682
-9.37696
-9.38726
-9.39938
-9.41353
-9.42973
-9.44786
-9.46761
-9.48853
-9.51012
-9.53182
-9.55304
-9.57318
-9.59164
-9.60784
-9.62122
-9.63126
-9.63748
-9.63945
-9.63678
-9.62915
-9.61627
-9.59787
-9.57372
-9.54361
-9.50736
-9.46478
-9.41573
-9.36004
-9.29757
-9.2282
-9.15179
-9.0682
-8.97732
-8.87901
-8.77317
-8.65968
-8.53846
-8.40944
-8.27258
-8.12786
-7.97531
-7.81499
-7.64702
-7.47155
-7.28878
-7.09897
-6.90245
-6.69957
-6.49075
-6.27649
-6.05728
-5.83368
-5.6063
-5.37576
-5.14271
-4.90783
-4.67184
-4.43547
-4.19948
-3.96465
-3.73177
-3.50162
-3.27494
-3.05239
-2.83458
-2.62198
-2.415
-2.21401
-2.01931
-1.83115
-1.64973
-1.47517
-1.30755
-1.1468
-0.992967
-0.845571
-0.705122
-0.5697
-0.442996
-0.316627
-0.210926
-0.086205
-0.0435845
-9.19299
-9.20812
-9.22311
-9.23775
-9.25181
-9.26512
-9.27759
-9.28922
-9.29994
-9.3097
-9.31854
-9.32657
-9.33397
-9.34099
-9.34793
-9.35517
-9.36305
-9.37193
-9.38213
-9.39386
-9.40731
-9.4225
-9.4393
-9.45743
-9.4765
-9.49607
-9.51563
-9.53464
-9.55255
-9.5688
-9.58284
-9.59414
-9.60221
-9.60658
-9.60682
-9.60257
-9.5935
-9.57929
-9.5597
-9.53448
-9.50342
-9.46632
-9.42301
-9.3733
-9.31707
-9.25414
-9.1844
-9.10771
-9.02393
-8.93294
-8.83463
-8.72889
-8.61561
-8.49471
-8.36614
-8.22986
-8.08587
-7.93419
-7.7749
-7.6081
-7.43395
-7.25267
-7.0645
-6.86976
-6.6688
-6.46205
-6.24995
-6.03301
-5.81178
-5.58684
-5.35878
-5.12825
-4.89591
-4.66244
-4.42856
-4.195
-3.9625
-3.73182
-3.5037
-3.27885
-3.05791
-2.84145
-2.62995
-2.42382
-2.22341
-2.02904
-1.84096
-1.65938
-1.48442
-1.31621
-1.15469
-0.999933
-0.851534
-0.709984
-0.573609
-0.44583
-0.319145
-0.212399
-0.0889736
-0.0440055
-9.18897
-9.20354
-9.21796
-9.23203
-9.2456
-9.2585
-9.27065
-9.28203
-9.29263
-9.30242
-9.3114
-9.31969
-9.32743
-9.33484
-9.34219
-9.34977
-9.35789
-9.36685
-9.3769
-9.38824
-9.401
-9.4152
-9.43073
-9.44732
-9.46463
-9.48227
-9.49978
-9.51667
-9.53244
-9.54655
-9.5585
-9.56779
-9.57393
-9.57649
-9.57506
-9.56926
-9.55877
-9.54328
-9.52254
-9.49628
-9.46431
-9.42641
-9.3824
-9.33211
-9.27538
-9.21206
-9.14202
-9.06511
-8.98122
-8.89021
-8.79198
-8.68641
-8.57343
-8.45294
-8.3249
-8.18927
-8.04607
-7.89532
-7.7371
-7.57152
-7.39875
-7.21898
-7.03247
-6.83952
-6.6405
-6.4358
-6.22588
-6.01121
-5.79234
-5.56982
-5.34424
-5.11622
-4.8864
-4.65544
-4.42404
-4.19289
-3.96272
-3.73422
-3.50813
-3.28509
-3.06575
-2.85064
-2.64022
-2.43492
-2.23509
-2.04102
-1.853
-1.67122
-1.49585
-1.32699
-1.16466
-1.00893
-0.859479
-0.716773
-0.579378
-0.450444
-0.323296
-0.215328
-0.0927108
-0.0451309
-9.184
-9.19808
-9.21198
-9.22556
-9.23868
-9.25123
-9.26311
-9.27428
-9.28474
-9.29452
-9.30361
-9.3121
-9.32011
-9.32783
-9.33547
-9.3433
-9.35155
-9.36049
-9.37033
-9.38123
-9.39329
-9.40652
-9.42082
-9.43595
-9.4516
-9.46743
-9.48302
-9.49793
-9.51168
-9.52378
-9.53377
-9.54115
-9.54548
-9.54634
-9.54332
-9.53606
-9.52423
-9.50754
-9.48571
-9.45849
-9.42567
-9.38703
-9.34239
-9.29157
-9.23441
-9.17076
-9.10048
-9.02342
-8.93947
-8.84851
-8.75041
-8.64509
-8.53245
-8.41242
-8.28496
-8.15005
-8.00769
-7.85792
-7.70082
-7.5365
-7.36513
-7.18691
-7.00209
-6.81097
-6.6139
-6.41128
-6.20354
-5.99116
-5.77466
-5.55457
-5.33148
-5.10598
-4.87869
-4.65026
-4.42135
-4.19262
-3.96477
-3.73847
-3.5144
-3.29321
-3.07546
-2.86171
-2.6524
-2.44794
-2.24867
-2.05491
-1.86693
-1.68494
-1.50913
-1.33961
-1.17644
-1.0197
-0.869154
-0.72525
-0.586774
-0.456613
-0.328853
-0.219501
-0.0972184
-0.0467969
-9.17938
-9.19299
-9.20642
-9.21955
-9.23226
-9.24447
-9.25608
-9.26707
-9.2774
-9.2871
-9.29623
-9.30484
-9.31304
-9.32096
-9.3288
-9.33677
-9.34509
-9.35394
-9.36352
-9.37395
-9.38532
-9.3976
-9.41071
-9.42444
-9.43851
-9.45261
-9.46636
-9.47936
-9.49117
-9.50133
-9.5094
-9.51493
-9.51749
-9.51667
-9.51208
-9.50337
-9.49021
-9.47231
-9.4494
-9.42122
-9.38755
-9.34817
-9.3029
-9.25156
-9.19398
-9.13001
-9.0595
-8.98232
-8.89834
-8.80745
-8.70952
-8.60448
-8.49222
-8.3727
-8.24587
-8.1117
-7.97022
-7.82147
-7.66552
-7.5025
-7.33256
-7.15592
-6.97281
-6.78355
-6.58846
-6.38794
-6.18241
-5.97233
-5.75822
-5.54059
-5.32
-5.09705
-4.87231
-4.64643
-4.42002
-4.19374
-3.96823
-3.74416
-3.52214
-3.3028
-3.08669
-2.87432
-2.66613
-2.46253
-2.26384
-2.0704
-1.88246
-1.70027
-1.524
-1.35381
-1.18977
-1.032
-0.880331
-0.735192
-0.595579
-0.464125
-0.335605
-0.224718
-0.102316
-0.0488527
-9.17421
-9.18739
-9.20037
-9.21308
-9.22541
-9.23729
-9.24865
-9.25944
-9.26965
-9.27929
-9.2884
-9.29706
-9.30537
-9.31343
-9.32139
-9.32943
-9.33771
-9.34642
-9.35568
-9.36562
-9.37627
-9.38759
-9.39954
-9.41192
-9.42448
-9.43694
-9.44895
-9.46013
-9.47009
-9.47841
-9.48465
-9.48841
-9.48926
-9.48683
-9.48073
-9.47063
-9.45619
-9.43713
-9.41317
-9.38406
-9.34958
-9.3095
-9.26364
-9.2118
-9.15383
-9.08957
-9.01887
-8.94159
-8.85761
-8.76681
-8.66909
-8.56434
-8.45251
-8.33351
-8.20733
-8.07394
-7.93337
-7.78565
-7.63088
-7.46918
-7.3007
-7.12566
-6.94429
-6.75689
-6.5638
-6.3654
-6.16209
-5.95434
-5.74263
-5.52748
-5.30943
-5.08904
-4.86689
-4.64357
-4.4197
-4.19589
-3.97276
-3.75093
-3.531
-3.31355
-3.0991
-2.88815
-2.68112
-2.4784
-2.28033
-2.08722
-1.89934
-1.71694
-1.54022
-1.36936
-1.20444
-1.04563
-0.892811
-0.746409
-0.605604
-0.472799
-0.343368
-0.23081
-0.107858
-0.0511885
-9.16921
-9.18199
-9.19458
-9.2069
-9.21888
-9.23045
-9.24156
-9.25216
-9.26224
-9.2718
-9.28087
-9.28953
-9.29786
-9.30597
-9.31398
-9.32201
-9.3302
-9.33868
-9.34758
-9.35697
-9.36687
-9.37727
-9.3881
-9.39919
-9.41032
-9.42121
-9.43155
-9.441
-9.44918
-9.45571
-9.46018
-9.46221
-9.46141
-9.45739
-9.44981
-9.43832
-9.4226
-9.40238
-9.37737
-9.34732
-9.31201
-9.27122
-9.22475
-9.17242
-9.11405
-9.04948
-8.97858
-8.9012
-8.81722
-8.72653
-8.62901
-8.52458
-8.41317
-8.29472
-8.1692
-8.0366
-7.89694
-7.75028
-7.5967
-7.43633
-7.26932
-7.09588
-6.91626
-6.73075
-6.53966
-6.34338
-6.14232
-5.93691
-5.72762
-5.51497
-5.29947
-5.08166
-4.86211
-4.64139
-4.42008
-4.19877
-3.97805
-3.7585
-3.54069
-3.32516
-3.11242
-2.90293
-2.69709
-2.49529
-2.29786
-2.10511
-1.91732
-1.73473
-1.55757
-1.38603
-1.22025
-1.06038
-0.906401
-0.758718
-0.616674
-0.482466
-0.35198
-0.237632
-0.113732
-0.0537324
-9.16394
-9.17633
-9.18854
-9.20049
-9.21213
-9.2234
-9.23426
-9.24466
-9.25459
-9.26405
-9.27306
-9.28168
-9.28997
-9.29805
-9.30601
-9.31396
-9.32199
-9.3302
-9.33869
-9.34751
-9.35668
-9.36618
-9.37594
-9.38579
-9.39554
-9.40492
-9.41367
-9.42146
-9.42794
-9.43275
-9.43553
-9.4359
-9.43348
-9.42793
-9.4189
-9.40606
-9.38911
-9.36774
-9.34171
-9.31075
-9.27463
-9.23314
-9.18607
-9.13324
-9.07449
-9.00964
-8.93855
-8.86108
-8.77711
-8.68652
-8.58922
-8.48511
-8.37414
-8.25624
-8.13139
-7.99958
-7.86085
-7.71525
-7.56286
-7.40382
-7.23828
-7.06646
-6.88858
-6.70495
-6.51587
-6.32172
-6.1229
-5.91983
-5.71298
-5.50283
-5.28989
-5.07469
-4.85776
-4.63966
-4.42093
-4.20215
-3.98386
-3.76662
-3.55096
-3.3374
-3.12639
-2.91839
-2.71379
-2.51294
-2.31619
-2.12382
-1.93614
-1.75339
-1.5758
-1.40361
-1.23695
-1.07604
-0.920891
-0.771916
-0.628596
-0.492945
-0.36127
-0.245041
-0.119829
-0.0564363
-9.15875
-9.17078
-9.18263
-9.19425
-9.20557
-9.21656
-9.22716
-9.23736
-9.24713
-9.25647
-9.2654
-9.27395
-9.28216
-9.29014
-9.29797
-9.30575
-9.31354
-9.32143
-9.32948
-9.33772
-9.34618
-9.35482
-9.36354
-9.37221
-9.38064
-9.38859
-9.39581
-9.40201
-9.40686
-9.41002
-9.41116
-9.40991
-9.40594
-9.39889
-9.38844
-9.37427
-9.35607
-9.33358
-9.30651
-9.27463
-9.23769