/*--------------------------------*- C++ -*----------------------------------*\
| =========                 |                                                 |
| \\      /  F ield         | OpenFOAM: The Open Source CFD Toolbox           |
|  \\    /   O peration     | Version:  4.1                                   |
|   \\  /    A nd           | Web:      www.OpenFOAM.org                      |
|    \\/     M anipulation  |                                                 |
\*---------------------------------------------------------------------------*/
FoamFile
{
    version     2.0;
    format      ascii;
    class       surfaceScalarField;
    location    "900";
    object      phi;
}
// * * * * * * * * * * * * * * * * * * * * * * * * * * * * * * * * * * * * * //

dimensions      [0 3 -1 0 0 0 0];

internalField   nonuniform List<scalar> 
13452
(
5.95313e-05
7.37189e-07
5.86592e-05
8.72055e-07
5.78162e-05
8.43023e-07
5.69811e-05
8.35093e-07
5.61551e-05
8.26045e-07
5.53509e-05
8.04138e-07
5.4576e-05
7.74946e-07
5.38328e-05
7.43204e-07
5.31224e-05
7.10329e-07
5.24455e-05
6.76898e-07
5.1802e-05
6.43566e-07
5.11911e-05
6.1091e-07
5.06118e-05
5.79289e-07
5.00629e-05
5.48891e-07
4.95431e-05
5.19807e-07
4.9051e-05
4.9207e-07
4.85853e-05
4.65672e-07
4.81448e-05
4.40579e-07
4.7728e-05
4.16738e-07
4.73339e-05
3.94092e-07
4.69614e-05
3.72577e-07
4.66092e-05
3.52131e-07
4.62765e-05
3.3269e-07
4.59623e-05
3.14196e-07
4.56657e-05
2.96588e-07
4.53859e-05
2.79816e-07
4.51221e-05
2.63814e-07
4.48735e-05
2.48585e-07
4.46396e-05
2.33883e-07
4.44192e-05
2.20432e-07
4.42136e-05
2.05585e-07
4.40178e-05
1.95804e-07
1.68007e-07
4.38498e-05
6.23701e-05
3.5739e-07
6.26549e-05
5.87255e-07
6.28762e-05
6.21724e-07
6.30527e-05
6.58587e-07
6.31874e-05
6.91412e-07
6.32837e-05
7.07861e-07
6.33451e-05
7.13531e-07
6.33748e-05
7.135e-07
6.33761e-05
7.09032e-07
6.33524e-05
7.00536e-07
6.33073e-05
6.88732e-07
6.32438e-05
6.74418e-07
6.31648e-05
6.5823e-07
6.30731e-05
6.40653e-07
6.29708e-05
6.2208e-07
6.286e-05
6.02838e-07
6.27425e-05
5.83189e-07
6.26197e-05
5.63341e-07
6.2493e-05
5.43456e-07
6.23634e-05
5.23663e-07
6.2232e-05
5.04061e-07
6.20994e-05
4.84729e-07
6.19663e-05
4.65721e-07
6.18334e-05
4.47082e-07
6.17012e-05
4.28837e-07
6.157e-05
4.1101e-07
6.14402e-05
3.93601e-07
6.13122e-05
3.76647e-07
6.1186e-05
3.60031e-07
6.10624e-05
3.44083e-07
6.09402e-05
3.2774e-07
6.08227e-05
3.13264e-07
2.97062e-07
6.06937e-05
6.38365e-05
2.82304e-07
6.38978e-05
5.25936e-07
6.39331e-05
5.86407e-07
6.39614e-05
6.303e-07
6.39849e-05
6.67943e-07
6.40043e-05
6.88446e-07
6.40213e-05
6.96576e-07
6.40366e-05
6.98201e-07
6.40503e-05
6.95272e-07
6.40624e-05
6.88412e-07
6.40728e-05
6.78396e-07
6.40812e-05
6.66035e-07
6.40874e-05
6.51951e-07
6.40915e-05
6.36593e-07
6.40933e-05
6.20314e-07
6.40927e-05
6.034e-07
6.40898e-05
5.86081e-07
6.40846e-05
5.68534e-07
6.40772e-05
5.50896e-07
6.40676e-05
5.33273e-07
6.40559e-05
5.15749e-07
6.40422e-05
4.98386e-07
6.40267e-05
4.81231e-07
6.40095e-05
4.64318e-07
6.39906e-05
4.47669e-07
6.39703e-05
4.31302e-07
6.39487e-05
4.15216e-07
6.39259e-05
3.99431e-07
6.39021e-05
3.83892e-07
6.38775e-05
3.68694e-07
6.38516e-05
3.53601e-07
6.3826e-05
3.38892e-07
3.246e-07
6.37984e-05
6.5644e-05
2.21346e-07
6.57108e-05
4.59203e-07
6.57547e-05
5.4244e-07
6.57894e-05
5.95593e-07
6.5819e-05
6.38407e-07
6.58438e-05
6.63646e-07
6.5865e-05
6.75384e-07
6.58835e-05
6.79618e-07
6.59001e-05
6.78757e-07
6.59148e-05
6.73632e-07
6.59281e-05
6.65091e-07
6.59402e-05
6.53996e-07
6.59511e-05
6.41015e-07
6.59611e-05
6.26631e-07
6.59702e-05
6.11224e-07
6.59785e-05
5.95099e-07
6.59861e-05
5.78502e-07
6.5993e-05
5.6162e-07
6.59993e-05
5.44599e-07
6.6005e-05
5.27551e-07
6.60102e-05
5.10562e-07
6.60149e-05
4.93695e-07
6.60191e-05
4.76999e-07
6.60229e-05
4.60505e-07
6.60263e-05
4.44236e-07
6.60294e-05
4.28205e-07
6.60322e-05
4.12413e-07
6.60348e-05
3.96866e-07
6.60372e-05
3.81534e-07
6.60394e-05
3.66454e-07
6.60415e-05
3.51531e-07
6.60435e-05
3.3687e-07
3.22829e-07
6.60453e-05
6.75014e-05
1.76691e-07
6.75606e-05
4.00048e-07
6.7606e-05
4.97073e-07
6.76451e-05
5.56442e-07
6.76814e-05
6.02162e-07
6.77143e-05
6.30728e-07
6.77441e-05
6.45524e-07
6.77716e-05
6.52146e-07
6.77972e-05
6.53212e-07
6.7821e-05
6.49745e-07
6.78435e-05
6.42669e-07
6.78646e-05
6.32879e-07
6.78845e-05
6.21071e-07
6.79034e-05
6.07751e-07
6.79213e-05
5.93313e-07
6.79383e-05
5.78074e-07
6.79546e-05
5.62285e-07
6.797e-05
5.46141e-07
6.79848e-05
5.29793e-07
6.7999e-05
5.13358e-07
6.80127e-05
4.96925e-07
6.80258e-05
4.80559e-07
6.80385e-05
4.64311e-07
6.80508e-05
4.48216e-07
6.80627e-05
4.32294e-07
6.80744e-05
4.16561e-07
6.80858e-05
4.01018e-07
6.8097e-05
3.85665e-07
6.8108e-05
3.70487e-07
6.8119e-05
3.55485e-07
6.81299e-05
3.4063e-07
6.81408e-05
3.25932e-07
3.11552e-07
6.81521e-05
6.94169e-05
1.43865e-07
6.94686e-05
3.48321e-07
6.95132e-05
4.52411e-07
6.95533e-05
5.16339e-07
6.95912e-05
5.64288e-07
6.96263e-05
5.95615e-07
6.96587e-05
6.13121e-07
6.9689e-05
6.219e-07
6.97175e-05
6.24714e-07
6.97444e-05
6.22778e-07
6.977e-05
6.1708e-07
6.97944e-05
6.08536e-07
6.98176e-05
5.97855e-07
6.98398e-05
5.85558e-07
6.98611e-05
5.7205e-07
6.98815e-05
5.57657e-07
6.99011e-05
5.42636e-07
6.99201e-05
5.27189e-07
6.99384e-05
5.11473e-07
6.99561e-05
4.95608e-07
6.99734e-05
4.79689e-07
6.99901e-05
4.63785e-07
7.00065e-05
4.47948e-07
7.00225e-05
4.32216e-07
7.00382e-05
4.16612e-07
7.00536e-05
4.0115e-07
7.00688e-05
3.85835e-07
7.00838e-05
3.70664e-07
7.00987e-05
3.55623e-07
7.01134e-05
3.40701e-07
7.01282e-05
3.25875e-07
7.0143e-05
3.11095e-07
2.96424e-07
7.01582e-05
7.13907e-05
1.1945e-07
7.14348e-05
3.04264e-07
7.14764e-05
4.10818e-07
7.1515e-05
4.77779e-07
7.15522e-05
5.27083e-07
7.15874e-05
5.60333e-07
7.16206e-05
5.79991e-07
7.16519e-05
5.906e-07
7.16816e-05
5.94958e-07
7.171e-05
5.94405e-07
7.17371e-05
5.89966e-07
7.17631e-05
5.82564e-07
7.1788e-05
5.72918e-07
7.1812e-05
5.61562e-07
7.18352e-05
5.48914e-07
7.18575e-05
5.35305e-07
7.18791e-05
5.21002e-07
7.19001e-05
5.0621e-07
7.19205e-05
4.9109e-07
7.19403e-05
4.7577e-07
7.19597e-05
4.60345e-07
7.19786e-05
4.44888e-07
7.19971e-05
4.29455e-07
7.20152e-05
4.14083e-07
7.2033e-05
3.98798e-07
7.20506e-05
3.83615e-07
7.20679e-05
3.68538e-07
7.2085e-05
3.53565e-07
7.21019e-05
3.38682e-07
7.21187e-05
3.23868e-07
7.21355e-05
3.09098e-07
7.21523e-05
2.94299e-07
2.7948e-07
7.21692e-05
7.34237e-05
1.00988e-07
7.34611e-05
2.66879e-07
7.34997e-05
3.72238e-07
7.35369e-05
4.40546e-07
7.35736e-05
4.90382e-07
7.36091e-05
5.24882e-07
7.36428e-05
5.46275e-07
7.36749e-05
5.58491e-07
7.37056e-05
5.64254e-07
7.3735e-05
5.64987e-07
7.37633e-05
5.61742e-07
7.37904e-05
5.5544e-07
7.38165e-05
5.46805e-07
7.38417e-05
5.3638e-07
7.3866e-05
5.2459e-07
7.38895e-05
5.11772e-07
7.39123e-05
4.98194e-07
7.39345e-05
4.84068e-07
7.3956e-05
4.69557e-07
7.3977e-05
4.54793e-07
7.39975e-05
4.39873e-07
7.40175e-05
4.24875e-07
7.40371e-05
4.09856e-07
7.40563e-05
3.94855e-07
7.40752e-05
3.79902e-07
7.40938e-05
3.65012e-07
7.41122e-05
3.5019e-07
7.41303e-05
3.35434e-07
7.41482e-05
3.20732e-07
7.4166e-05
3.0606e-07
7.41837e-05
2.91391e-07
7.42014e-05
2.76663e-07
2.61871e-07
7.4219e-05
7.55168e-05
8.66841e-08
7.55485e-05
2.35119e-07
7.55839e-05
3.36839e-07
7.56193e-05
4.05166e-07
7.56547e-05
4.54952e-07
7.56895e-05
4.90132e-07
7.5723e-05
5.12805e-07
7.57551e-05
5.26322e-07
7.57861e-05
5.33273e-07
7.5816e-05
5.35132e-07
7.58447e-05
5.3296e-07
7.58725e-05
5.27664e-07
7.58994e-05
5.19967e-07
7.59253e-05
5.10416e-07
7.59505e-05
4.99435e-07
7.59749e-05
4.87367e-07
7.59986e-05
4.74483e-07
7.60217e-05
4.60996e-07
7.60441e-05
4.47074e-07
7.60661e-05
4.32851e-07
7.60875e-05
4.18429e-07
7.61085e-05
4.03886e-07
7.61291e-05
3.89282e-07
7.61493e-05
3.7466e-07
7.61691e-05
3.60049e-07
7.61887e-05
3.45468e-07
7.6208e-05
3.30923e-07
7.6227e-05
3.16414e-07
7.62458e-05
3.01929e-07
7.62644e-05
2.87447e-07
7.62828e-05
2.72939e-07
7.63012e-05
2.58341e-07
2.43635e-07
7.63194e-05
7.76709e-05
7.53137e-08
7.76981e-05
2.08016e-07
7.77304e-05
3.0452e-07
7.77639e-05
3.71676e-07
7.7798e-05
4.20805e-07
7.78321e-05
4.56087e-07
7.78653e-05
4.79556e-07
7.78976e-05
4.94057e-07
7.79289e-05
5.01987e-07
7.79592e-05
5.04822e-07
7.79885e-05
5.03614e-07
7.80169e-05
4.99249e-07
7.80445e-05
4.92435e-07
7.80712e-05
4.83719e-07
7.80971e-05
4.73525e-07
7.81222e-05
4.62195e-07
7.81467e-05
4.50001e-07
7.81706e-05
4.37157e-07
7.81938e-05
4.23835e-07
7.82165e-05
4.10167e-07
7.82386e-05
3.9626e-07
7.82603e-05
3.82192e-07
7.82816e-05
3.68027e-07
7.83024e-05
3.5381e-07
7.83229e-05
3.3957e-07
7.83431e-05
3.2533e-07
7.83629e-05
3.11098e-07
7.83824e-05
2.96876e-07
7.84017e-05
2.82655e-07
7.84207e-05
2.68419e-07
7.84395e-05
2.54147e-07
7.84581e-05
2.39797e-07
2.2538e-07
7.84763e-05
7.98876e-05
6.60394e-08
7.99109e-05
1.84697e-07
7.99404e-05
2.75071e-07
7.99719e-05
3.40095e-07
8.00047e-05
3.88065e-07
8.00378e-05
4.22994e-07
8.00705e-05
4.46857e-07
8.01025e-05
4.62058e-07
8.01337e-05
4.70765e-07
8.01641e-05
4.74421e-07
8.01936e-05
4.74057e-07
8.02224e-05
4.70528e-07
8.02503e-05
4.64526e-07
8.02774e-05
4.56589e-07
8.03038e-05
4.47139e-07
8.03295e-05
4.36514e-07
8.03545e-05
4.24984e-07
8.03789e-05
4.12766e-07
8.04027e-05
4.0003e-07
8.04259e-05
3.86911e-07
8.04487e-05
3.73515e-07
8.0471e-05
3.59925e-07
8.04928e-05
3.46205e-07
8.05142e-05
3.32402e-07
8.05352e-05
3.1855e-07
8.05559e-05
3.0467e-07
8.05762e-05
2.90778e-07
8.05962e-05
2.76875e-07
8.06159e-05
2.62959e-07
8.06353e-05
2.49018e-07
8.06544e-05
2.35037e-07
8.06732e-05
2.20975e-07
2.06839e-07
8.06918e-05
8.21682e-05
5.8288e-08
8.21885e-05
1.64437e-07
8.22153e-05
2.48232e-07
8.2245e-05
3.10376e-07
8.22763e-05
3.56737e-07
8.23084e-05
3.90904e-07
8.23405e-05
4.14762e-07
8.23722e-05
4.30358e-07
8.24034e-05
4.39619e-07
8.24339e-05
4.43923e-07
8.24637e-05
4.44269e-07
8.24927e-05
4.41474e-07
8.2521e-05
4.36207e-07
8.25486e-05
4.28992e-07
8.25755e-05
4.20244e-07
8.26017e-05
4.10295e-07
8.26273e-05
3.99412e-07
8.26523e-05
3.8781e-07
8.26766e-05
3.75658e-07
8.27005e-05
3.63092e-07
8.27238e-05
3.50218e-07
8.27466e-05
3.37122e-07
8.27689e-05
3.23868e-07
8.27908e-05
3.10504e-07
8.28123e-05
2.97068e-07
8.28334e-05
2.83584e-07
8.28541e-05
2.70069e-07
8.28744e-05
2.5653e-07
8.28944e-05
2.42969e-07
8.2914e-05
2.29382e-07
8.29333e-05
2.15762e-07
8.29522e-05
2.02094e-07
1.88409e-07
8.29706e-05
8.45144e-05
5.16653e-08
8.45322e-05
1.4664e-07
8.45567e-05
2.23721e-07
8.45846e-05
2.82431e-07
8.46146e-05
3.2679e-07
8.46457e-05
3.59847e-07
8.46771e-05
3.8336e-07
8.47083e-05
3.99077e-07
8.47393e-05
4.08691e-07
8.47697e-05
4.13489e-07
8.47995e-05
4.14423e-07
8.48287e-05
4.12268e-07
8.48573e-05
4.07663e-07
8.48852e-05
4.01114e-07
8.49124e-05
3.93026e-07
8.4939e-05
3.83721e-07
8.49649e-05
3.73464e-07
8.49903e-05
3.62463e-07
8.5015e-05
3.50887e-07
8.50392e-05
3.38872e-07
8.50629e-05
3.26524e-07
8.50861e-05
3.13928e-07
8.51089e-05
3.0115e-07
8.51311e-05
2.88242e-07
8.51529e-05
2.75242e-07
8.51743e-05
2.62178e-07
8.51953e-05
2.49069e-07
8.52159e-05
2.35929e-07
8.52362e-05
2.22763e-07
8.5256e-05
2.09573e-07
8.52754e-05
1.96359e-07
8.52944e-05
1.83108e-07
1.69846e-07
8.53129e-05
8.69279e-05
4.58963e-08
8.69437e-05
1.3083e-07
8.69662e-05
2.01255e-07
8.69925e-05
2.56145e-07
8.70211e-05
2.9817e-07
8.70511e-05
3.29818e-07
8.70818e-05
3.52681e-07
8.71126e-05
3.68258e-07
8.71433e-05
3.78021e-07
8.71737e-05
3.83148e-07
8.72035e-05
3.84537e-07
8.72329e-05
3.82918e-07
8.72617e-05
3.78892e-07
8.72898e-05
3.72945e-07
8.73174e-05
3.65467e-07
8.73443e-05
3.56771e-07
8.73707e-05
3.47112e-07
8.73965e-05
3.36696e-07
8.74217e-05
3.25689e-07
8.74463e-05
3.14222e-07
8.74704e-05
3.02404e-07
8.7494e-05
2.90319e-07
8.75171e-05
2.78034e-07
8.75398e-05
2.65603e-07
8.7562e-05
2.53064e-07
8.75837e-05
2.4045e-07
8.7605e-05
2.27784e-07
8.76258e-05
2.15081e-07
8.76462e-05
2.02353e-07
8.76662e-05
1.8961e-07
8.76857e-05
1.76859e-07
8.77047e-05
1.64103e-07
1.51387e-07
8.77232e-05
8.94106e-05
4.0785e-08
8.94249e-05
1.16627e-07
8.94455e-05
1.80566e-07
8.94703e-05
2.31386e-07
8.94977e-05
2.70804e-07
8.95267e-05
3.00786e-07
8.95566e-05
3.22733e-07
8.9587e-05
3.37932e-07
8.96173e-05
3.47652e-07
8.96475e-05
3.52957e-07
8.96774e-05
3.54679e-07
8.97068e-05
3.53498e-07
8.97357e-05
3.49976e-07
8.97641e-05
3.44574e-07
8.97919e-05
3.37663e-07
8.98191e-05
3.29544e-07
8.98458e-05
3.20463e-07
8.98719e-05
3.10619e-07
8.98974e-05
3.00174e-07
8.99223e-05
2.89257e-07
8.99468e-05
2.77974e-07
8.99707e-05
2.66411e-07
8.99941e-05
2.54634e-07
9.0017e-05
2.42697e-07
9.00394e-05
2.30644e-07
9.00613e-05
2.18507e-07
9.00828e-05
2.06313e-07
9.01038e-05
1.94081e-07
9.01243e-05
1.81829e-07
9.01444e-05
1.69569e-07
9.01639e-05
1.57316e-07
9.0183e-05
1.45072e-07
1.32877e-07
9.02015e-05
9.19645e-05
3.61893e-08
9.19774e-05
1.03729e-07
9.19965e-05
1.61408e-07
9.20199e-05
2.08011e-07
9.20461e-05
2.44605e-07
9.20742e-05
2.72703e-07
9.21034e-05
2.93502e-07
9.21332e-05
3.08107e-07
9.21633e-05
3.17605e-07
9.21933e-05
3.22939e-07
9.22231e-05
3.24872e-07
9.22526e-05
3.24029e-07
9.22816e-05
3.20932e-07
9.23102e-05
3.16012e-07
9.23382e-05
3.0962e-07
9.23657e-05
3.02041e-07
9.23927e-05
2.93512e-07
9.24191e-05
2.84222e-07
9.24449e-05
2.74329e-07
9.24702e-05
2.63959e-07
9.2495e-05
2.53215e-07
9.25192e-05
2.42182e-07
9.25429e-05
2.30926e-07
9.25661e-05
2.19504e-07
9.25888e-05
2.07958e-07
9.2611e-05
1.96324e-07
9.26326e-05
1.84631e-07
9.26538e-05
1.72904e-07
9.26745e-05
1.61162e-07
9.26946e-05
1.49423e-07
9.27142e-05
1.37708e-07
9.27333e-05
1.26028e-07
1.14434e-07
9.27517e-05
9.45913e-05
3.20029e-08
9.46032e-05
9.18931e-08
9.4621e-05
1.43558e-07
9.46432e-05
1.85875e-07
9.46683e-05
2.19478e-07
9.46955e-05
2.45506e-07
9.4724e-05
2.6496e-07
9.47534e-05
2.78777e-07
9.47831e-05
2.87884e-07
9.48129e-05
2.93108e-07
9.48426e-05
2.95136e-07
9.48721e-05
2.94537e-07
9.49013e-05
2.91791e-07
9.493e-05
2.87295e-07
9.49582e-05
2.81377e-07
9.4986e-05
2.74308e-07
9.50132e-05
2.66308e-07
9.50398e-05
2.5756e-07
9.5066e-05
2.48214e-07
9.50915e-05
2.38391e-07
9.51165e-05
2.28193e-07
9.5141e-05
2.17702e-07
9.5165e-05
2.06984e-07
9.51884e-05
1.96095e-07
9.52113e-05
1.8508e-07
9.52336e-05
1.73976e-07
9.52554e-05
1.62814e-07
9.52767e-05
1.51621e-07
9.52974e-05
1.40421e-07
9.53176e-05
1.29235e-07
9.53373e-05
1.18084e-07
9.53563e-05
1.06983e-07
9.59763e-08
9.53748e-05
9.72934e-05
2.81442e-08
9.73043e-05
8.09244e-08
9.73211e-05
1.26817e-07
9.73421e-05
1.64831e-07
9.73663e-05
1.9532e-07
9.73927e-05
2.19124e-07
9.74206e-05
2.37061e-07
9.74494e-05
2.4992e-07
9.74788e-05
2.58483e-07
9.75085e-05
2.63466e-07
9.75381e-05
2.65479e-07
9.75676e-05
2.65034e-07
9.75969e-05
2.62564e-07
9.76257e-05
2.58434e-07
9.76541e-05
2.52947e-07
9.76821e-05
2.46352e-07
9.77096e-05
2.38859e-07
9.77365e-05
2.30637e-07
9.77629e-05
2.2183e-07
9.77887e-05
2.12553e-07
9.7814e-05
2.02905e-07
9.78387e-05
1.92964e-07
9.78629e-05
1.82797e-07
9.78865e-05
1.72459e-07
9.79096e-05
1.61995e-07
9.79322e-05
1.51444e-07
9.79541e-05
1.40838e-07
9.79756e-05
1.30207e-07
9.79964e-05
1.19576e-07
9.80167e-05
1.0897e-07
9.80363e-05
9.84125e-08
9.80554e-05
8.79231e-08
7.75492e-08
9.80738e-05
0.000100073
2.45488e-08
0.000100083
7.06616e-08
0.000100099
1.11006e-07
0.000100119
1.44733e-07
0.000100142
1.7202e-07
0.000100168
1.93473e-07
0.000100195
2.09749e-07
0.000100224
2.21499e-07
0.000100253
2.2938e-07
0.000100282
2.34003e-07
0.000100312
2.35899e-07
0.000100341
2.35522e-07
0.00010037
2.3326e-07
0.000100399
2.29442e-07
0.000100428
2.24343e-07
0.000100456
2.18193e-07
0.000100484
2.11185e-07
0.000100511
2.03477e-07
0.000100538
1.95204e-07
0.000100564
1.86475e-07
0.000100589
1.77383e-07
0.000100614
1.68004e-07
0.000100639
1.58404e-07
0.000100662
1.48635e-07
0.000100686
1.38744e-07
0.000100708
1.2877e-07
0.000100731
1.18746e-07
0.000100752
1.08702e-07
0.000100773
9.86669e-08
0.000100793
8.86651e-08
0.000100813
7.87225e-08
0.000100832
6.88577e-08
5.91148e-08
0.00010085
0.000102931
2.11644e-08
0.000102941
6.09695e-08
0.000102956
9.59654e-08
0.000102975
1.2544e-07
0.000102998
1.49462e-07
0.000103023
1.68463e-07
0.00010305
1.82954e-07
0.000103078
1.93467e-07
0.000103107
2.00544e-07
0.000103136
2.04696e-07
0.000103166
2.06382e-07
0.000103195
2.05995e-07
0.000103224
2.03877e-07
0.000103254
2.00319e-07
0.000103282
1.9557e-07
0.000103311
1.89836e-07
0.000103339
1.83292e-07
0.000103366
1.76087e-07
0.000103393
1.68342e-07
0.000103419
1.60161e-07
0.000103445
1.5163e-07
0.00010347
1.42824e-07
0.000103495
1.33804e-07
0.000103519
1.24621e-07
0.000103542
1.15322e-07
0.000103565
1.05945e-07
0.000103587
9.6524e-08
0.000103609
8.70907e-08
0.00010363
7.76728e-08
0.00010365
6.82967e-08
0.00010367
5.89889e-08
0.000103689
4.97693e-08
4.06819e-08
0.000103707
0.000105872
1.79463e-08
0.000105881
5.17307e-08
0.000105896
8.15473e-08
0.000105914
1.06811e-07
0.000105936
1.27526e-07
0.000105961
1.43992e-07
0.000105987
1.56596e-07
0.000106015
1.65761e-07
0.000106043
1.71926e-07
0.000106073
1.75512e-07
0.000106102
1.76903e-07
0.000106132
1.76436e-07
0.000106161
1.74404e-07
0.00010619
1.71061e-07
0.000106219
1.66626e-07
0.000106248
1.61282e-07
0.000106276
1.55187e-07
0.000106303
1.48473e-07
0.000106331
1.41253e-07
0.000106357
1.33622e-07
0.000106383
1.25661e-07
0.000106408
1.17438e-07
0.000106433
1.09012e-07
0.000106457
1.00433e-07
0.000106481
9.1745e-08
0.000106504
8.29861e-08
0.000106526
7.41904e-08
0.000106548
6.53886e-08
0.000106569
5.66092e-08
0.00010659
4.78782e-08
0.000106609
3.9222e-08
0.000106628
3.066e-08
2.22334e-08
0.000106647
0.000108896
1.48552e-08
0.000108905
4.28404e-08
0.000108919
6.76141e-08
0.000108937
8.8706e-08
0.000108959
1.06085e-07
0.000108983
1.19948e-07
0.000109009
1.30581e-07
0.000109036
1.38306e-07
0.000109065
1.43468e-07
0.000109094
1.46405e-07
0.000109123
1.47429e-07
0.000109153
1.46819e-07
0.000109183
1.44823e-07
0.000109212
1.41655e-07
0.000109241
1.37503e-07
0.00010927
1.32527e-07
0.000109298
1.26866e-07
0.000109326
1.20637e-07
0.000109353
1.13941e-07
0.00010938
1.06863e-07
0.000109406
9.94784e-08
0.000109432
9.18499e-08
0.000109457
8.40322e-08
0.000109481
7.60731e-08
0.000109505
6.80142e-08
0.000109528
5.98925e-08
0.000109551
5.17411e-08
0.000109572
4.35902e-08
0.000109593
3.54675e-08
0.000109614
2.73987e-08
0.000109634
1.94092e-08
0.000109653
1.15179e-08
3.76333e-09
0.000109671
0.000112007
1.18546e-08
0.000112016
3.42003e-08
0.00011203
5.40328e-08
0.000112047
7.09836e-08
0.000112069
8.50029e-08
0.000112092
9.62119e-08
0.000112118
1.04803e-07
0.000112145
1.11013e-07
0.000112174
1.15098e-07
0.000112203
1.17316e-07
0.000112232
1.17913e-07
0.000112262
1.17109e-07
0.000112292
1.15105e-07
0.000112321
1.12079e-07
0.000112351
1.08186e-07
0.00011238
1.03561e-07
0.000112408
9.83232e-08
0.000112436
9.25739e-08
0.000112464
8.64014e-08
0.000112491
7.98822e-08
0.000112517
7.30826e-08
0.000112543
6.606e-08
0.000112568
5.8865e-08
0.000112593
5.15417e-08
0.000112616
4.41294e-08
0.00011264
3.66631e-08
0.000112662
2.91744e-08
0.000112684
2.16923e-08
0.000112705
1.42436e-08
0.000112726
6.8528e-09
0.000112746
-4.55614e-10
0.000112765
-7.66313e-09
-1.47333e-08
0.000112783
0.000115207
8.90817e-09
0.000115216
2.57155e-08
0.000115229
4.0672e-08
0.000115247
5.34988e-08
0.000115268
6.41385e-08
0.000115291
7.26498e-08
0.000115317
7.9146e-08
0.000115344
8.37799e-08
0.000115372
8.67284e-08
0.000115402
8.81744e-08
0.000115431
8.82955e-08
0.000115461
8.7258e-08
0.000115491
8.52151e-08
0.000115521
8.23055e-08
0.00011555
7.86531e-08
0.000115579
7.43681e-08
0.000115608
6.95478e-08
0.000115637
6.42777e-08
0.000115664
5.8633e-08
0.000115691
5.26797e-08
0.000115718
4.6476e-08
0.000115744
4.0073e-08
0.000115769
3.35161e-08
0.000115794
2.68457e-08
0.000115818
2.00978e-08
0.000115841
1.33051e-08
0.000115864
6.49736e-09
0.000115886
-2.98361e-10
0.000115907
-7.05682e-09
0.000115928
-1.3755e-08
0.000115948
-2.03704e-08
0.000115967
-2.6887e-08
-3.32722e-08
0.000115986
0.000118499
5.97695e-09
0.000118507
1.72903e-08
0.00011852
2.73973e-08
0.000118538
3.60999e-08
0.000118559
4.33384e-08
0.000118582
4.91174e-08
0.000118608
5.34771e-08
0.000118635
5.64921e-08
0.000118664
5.82617e-08
0.000118693
5.88964e-08
0.000118723
5.85089e-08
0.000118753
5.72099e-08
0.000118783
5.51059e-08
0.000118813
5.22966e-08
0.000118843
4.88742e-08
0.000118872
4.49228e-08
0.000118901
4.05184e-08
0.00011893
3.57299e-08
0.000118958
3.06187e-08
0.000118985
2.524e-08
0.000119012
1.96434e-08
0.000119038
1.38731e-08
0.000119064
7.96901e-09
0.000119089
1.96717e-09
0.000119113
-4.09985e-09
0.000119136
-1.02022e-08
0.000119159
-1.63128e-08
0.000119181
-2.24062e-08
0.000119203
-2.84592e-08
0.000119223
-3.44502e-08
0.000119243
-4.03577e-08
0.000119263
-4.61653e-08
-5.18414e-08
0.000119281
0.000121884
3.02956e-09
0.000121893
8.83468e-09
0.000121906
1.40746e-08
0.000121923
1.86296e-08
0.000121944
2.24396e-08
0.000121968
2.54573e-08
0.000121994
2.7651e-08
0.000122021
2.90188e-08
0.00012205
2.9584e-08
0.00012208
2.93854e-08
0.00012211
2.84714e-08
0.00012214
2.68976e-08
0.00012217
2.47235e-08
0.000122201
2.20101e-08
0.000122231
1.88172e-08
0.00012226
1.52024e-08
0.00012229
1.12207e-08
0.000122318
6.92314e-09
0.000122347
2.35747e-09
0.000122374
-2.4324e-09
0.000122401
-7.40607e-09
0.000122428
-1.25265e-08
0.000122454
-1.77596e-08
0.000122479
-2.30742e-08
0.000122503
-2.84416e-08
0.000122527
-3.38352e-08
0.000122549
-3.92304e-08
0.000122572
-4.46047e-08
0.000122593
-4.99369e-08
0.000122614
-5.52078e-08
0.000122634
-6.03991e-08
0.000122653
-6.54987e-08
-7.04803e-08
0.000122672
0.000125366
5.11079e-11
0.000125375
2.63284e-10
0.000125389
5.6488e-10
0.000125406
9.19263e-10
0.000125427
1.26376e-09
0.000125451
1.49438e-09
0.000125478
1.50394e-09
0.000125505
1.21198e-09
0.000125534
5.6476e-10
0.000125564
-4.71897e-10
0.000125595
-1.91456e-09
0.000125625
-3.76337e-09
0.000125656
-6.00551e-09
0.000125687
-8.61919e-09
0.000125717
-1.15768e-08
0.000125747
-1.48471e-08
0.000125777
-1.83967e-08
0.000125806
-2.21919e-08
0.000125834
-2.61992e-08
0.000125862
-3.0386e-08
0.00012589
-3.47214e-08
0.000125916
-3.91757e-08
0.000125942
-4.37211e-08
0.000125967
-4.83314e-08
0.000125992
-5.2982e-08
0.000126016
-5.76499e-08
0.000126039
-6.23136e-08
0.000126061
-6.69528e-08
0.000126083
-7.15485e-08
0.000126104
-7.6083e-08
0.000126124
-8.05382e-08
0.000126143
-8.48994e-08
-8.914e-08
0.000126162
0.000128948
-3.00443e-09
0.000128957
-8.54892e-09
0.000128971
-1.33154e-08
0.000128989
-1.72447e-08
0.000129011
-2.04094e-08
0.000129035
-2.29841e-08
0.000129062
-2.51613e-08
0.00012909
-2.71049e-08
0.00012912
-2.89495e-08
0.00012915
-3.0805e-08
0.000129181
-3.27551e-08
0.000129212
-3.48566e-08
0.000129243
-3.71441e-08
0.000129274
-3.96352e-08
0.000129305
-4.23348e-08
0.000129335
-4.52379e-08
0.000129365
-4.83329e-08
0.000129395
-5.16033e-08
0.000129423
-5.50298e-08
0.000129452
-5.85914e-08
0.000129479
-6.22665e-08
0.000129506
-6.60329e-08
0.000129532
-6.98692e-08
0.000129558
-7.37543e-08
0.000129582
-7.7668e-08
0.000129606
-8.1591e-08
0.000129629
-8.55049e-08
0.000129652
-8.93926e-08
0.000129674
-9.32378e-08
0.000129694
-9.70263e-08
0.000129715
-1.00744e-07
0.000129734
-1.04385e-07
-1.07929e-07
0.000129753
0.000132632
-6.20241e-09
0.000132641
-1.77718e-08
0.000132656
-2.78069e-08
0.000132675
-3.6134e-08
0.000132697
-4.2853e-08
0.000132723
-4.82372e-08
0.00013275
-5.25825e-08
0.000132779
-5.61459e-08
0.000132809
-5.91497e-08
0.00013284
-6.17853e-08
0.000132872
-6.42058e-08
0.000132903
-6.65256e-08
0.000132935
-6.88266e-08
0.000132967
-7.11654e-08
0.000132998
-7.35789e-08
0.000133029
-7.60884e-08
0.000133059
-7.87032e-08
0.000133089
-8.14241e-08
0.000133118
-8.42457e-08
0.000133147
-8.71585e-08
0.000133174
-9.015e-08
0.000133202
-9.3206e-08
0.000133228
-9.63111e-08
0.000133254
-9.94495e-08
0.000133279
-1.02606e-07
0.000133303
-1.05764e-07
0.000133326
-1.08908e-07
0.000133349
-1.12025e-07
0.000133371
-1.151e-07
0.000133392
-1.18119e-07
0.000133412
-1.21068e-07
0.000133432
-1.23932e-07
-1.26691e-07
0.000133451
0.000136422
-9.62391e-09
0.000136432
-2.76281e-08
0.000136447
-4.32213e-08
0.000136467
-5.60925e-08
0.00013649
-6.64058e-08
0.000136517
-7.45803e-08
0.000136545
-8.10402e-08
0.000136575
-8.61478e-08
0.000136606
-9.02248e-08
0.000136638
-9.3554e-08
0.00013667
-9.6364e-08
0.000136703
-9.88284e-08
0.000136735
-1.01077e-07
0.000136767
-1.03205e-07
0.000136799
-1.05282e-07
0.00013683
-1.07352e-07
0.000136861
-1.09446e-07
0.000136891
-1.11581e-07
0.00013692
-1.13765e-07
0.000136949
-1.15999e-07
0.000136977
-1.18279e-07
0.000137005
-1.20598e-07
0.000137031
-1.22947e-07
0.000137057
-1.25316e-07
0.000137082
-1.27693e-07
0.000137107
-1.30066e-07
0.00013713
-1.32424e-07
0.000137153
-1.34754e-07
0.000137175
-1.37047e-07
0.000137196
-1.39294e-07
0.000137216
-1.41485e-07
0.000137236
-1.4362e-07
-1.45683e-07
0.000137255
0.00014032
-1.33807e-08
0.00014033
-3.84272e-08
0.000140347
-5.99781e-08
0.000140369
-7.75618e-08
0.000140394
-9.14887e-08
0.000140421
-1.02407e-07
0.000140451
-1.10904e-07
0.000140483
-1.17458e-07
0.000140515
-1.22505e-07
0.000140548
-1.26427e-07
0.000140581
-1.29532e-07
0.000140614
-1.32054e-07
0.000140647
-1.34171e-07
0.00014068
-1.36018e-07
0.000140712
-1.37692e-07
0.000140744
-1.39265e-07
0.000140776
-1.40786e-07
0.000140806
-1.42288e-07
0.000140836
-1.4379e-07
0.000140866
-1.45304e-07
0.000140894
-1.46835e-07
0.000140922
-1.48383e-07
0.000140949
-1.49944e-07
0.000140975
-1.51512e-07
0.000141001
-1.53081e-07
0.000141025
-1.54642e-07
0.000141049
-1.56186e-07
0.000141072
-1.57704e-07
0.000141094
-1.59186e-07
0.000141115
-1.60622e-07
0.000141136
-1.62e-07
0.000141156
-1.63308e-07
-1.6453e-07
0.000141175
0.000144329
-1.76361e-08
0.000144341
-5.06204e-08
0.00014436
-7.86665e-08
0.000144383
-1.01125e-07
0.00014441
-1.18612e-07
0.00014444
-1.32129e-07
0.000144472
-1.42471e-07
0.000144505
-1.50259e-07
0.000144538
-1.56071e-07
0.000144572
-1.60406e-07
0.000144606
-1.63654e-07
0.00014464
-1.66105e-07
0.000144674
-1.67982e-07
0.000144707
-1.69456e-07
0.00014474
-1.70653e-07
0.000144773
-1.71664e-07
0.000144805
-1.72556e-07
0.000144836
-1.73375e-07
0.000144866
-1.74152e-07
0.000144896
-1.74908e-07
0.000144924
-1.75655e-07
0.000144952
-1.764e-07
0.00014498
-1.77144e-07
0.000145006
-1.77886e-07
0.000145032
-1.78623e-07
0.000145056
-1.79349e-07
0.00014508
-1.8006e-07
0.000145103
-1.8075e-07
0.000145125
-1.81413e-07
0.000145147
-1.82045e-07
0.000145168
-1.82643e-07
0.000145187
-1.83211e-07
-1.83738e-07
0.000145207
0.000148453
-2.26464e-08
0.000148467
-6.48896e-08
0.000148489
-1.00113e-07
0.000148515
-1.27576e-07
0.000148545
-1.48544e-07
0.000148577
-1.64527e-07
0.000148612
-1.76517e-07
0.000148647
-1.85294e-07
0.000148682
-1.91616e-07
0.000148718
-1.96126e-07
0.000148753
-1.993e-07
0.000148789
-2.01487e-07
0.000148824
-2.02955e-07
0.000148858
-2.03911e-07
0.000148892
-2.04504e-07
0.000148925
-2.04846e-07
0.000148958
-2.05016e-07
0.000148989
-2.05071e-07
0.00014902
-2.05052e-07
0.00014905
-2.04987e-07
0.00014908
-2.04894e-07
0.000149108
-2.04784e-07
0.000149136
-2.04664e-07
0.000149162
-2.04536e-07
0.000149188
-2.044e-07
0.000149213
-2.04254e-07
0.000149237
-2.04095e-07
0.00014926
-2.03918e-07
0.000149282
-2.03718e-07
0.000149304
-2.03489e-07
0.000149324
-2.0322e-07
0.000149344
-2.029e-07
-2.02521e-07
0.000149363
0.000152695
-2.88632e-08
0.000152713
-8.23929e-08
0.000152738
-1.25506e-07
0.000152768
-1.57704e-07
0.000152801
-1.81662e-07
0.000152837
-1.99664e-07
0.000152873
-2.12882e-07
0.00015291
-2.22264e-07
0.000152947
-2.28779e-07
0.000152984
-2.33208e-07
0.000153021
-2.36096e-07
0.000153057
-2.3784e-07
0.000153093
-2.38749e-07
0.000153128
-2.39058e-07
0.000153163
-2.38938e-07
0.000153196
-2.38513e-07
0.000153229
-2.37877e-07
0.000153261
-2.37095e-07
0.000153292
-2.36216e-07
0.000153323
-2.35273e-07
0.000153352
-2.34289e-07
0.000153381
-2.33281e-07
0.000153408
-2.32258e-07
0.000153435
-2.31225e-07
0.000153461
-2.30187e-07
0.000153486
-2.29143e-07
0.00015351
-2.28093e-07
0.000153533
-2.27036e-07
0.000153555
-2.2597e-07
0.000153576
-2.24896e-07
0.000153597
-2.23815e-07
0.000153617
-2.22735e-07
-2.21648e-07
0.000153636
0.00015706
-3.7037e-08
0.000157082
-1.05095e-07
0.000157114
-1.57059e-07
0.00015715
-1.93701e-07
0.000157188
-2.20152e-07
0.000157228
-2.39531e-07
0.000157269
-2.53181e-07
0.000157309
-2.6239e-07
0.000157348
-2.68441e-07
0.000157387
-2.72252e-07
0.000157426
-2.74415e-07
0.000157463
-2.75359e-07
0.0001575
-2.75422e-07
0.000157536
-2.74853e-07
0.000157571
-2.73832e-07
0.000157605
-2.72489e-07
0.000157638
-2.70919e-07
0.00015767
-2.69193e-07
0.000157701
-2.67362e-07
0.000157731
-2.65461e-07
0.00015776
-2.63517e-07
0.000157789
-2.61547e-07
0.000157816
-2.59565e-07
0.000157842
-2.57578e-07
0.000157868
-2.5559e-07
0.000157892
-2.53605e-07
0.000157916
-2.51623e-07
0.000157938
-2.49643e-07
0.00015796
-2.47662e-07
0.000157981
-2.45678e-07
0.000158001
-2.43684e-07
0.000158019
-2.4167e-07
-2.39635e-07
0.000158037
0.00016155
-4.9011e-08
0.000161581
-1.35631e-07
0.000161619
-1.95196e-07
0.00016166
-2.34431e-07
0.000161702
-2.62612e-07
0.000161746
-2.82837e-07
0.000161789
-2.96259e-07
0.000161831
-3.04657e-07
0.000161872
-3.09706e-07
0.000161912
-3.12436e-07
0.000161951
-3.13466e-07
0.000161989
-3.1326e-07
0.000162026
-3.1218e-07
0.000162062
-3.10487e-07
0.000162096
-3.08362e-07
0.00016213
-3.05933e-07
0.000162162
-3.03297e-07
0.000162193
-3.00521e-07
0.000162224
-2.97654e-07
0.000162253
-2.94732e-07
0.000162281
-2.91779e-07
0.000162308
-2.88814e-07
0.000162335
-2.85848e-07
0.00016236
-2.82889e-07
0.000162384
-2.79943e-07
0.000162408
-2.77012e-07
0.00016243
-2.74098e-07
0.000162452
-2.71203e-07
0.000162473
-2.68326e-07
0.000162492
-2.6547e-07
0.000162511
-2.62637e-07
0.000162529
-2.5984e-07
-2.57075e-07
0.000162547
0.000166174
-6.96573e-08
0.000166223
-1.84582e-07
0.000166276
-2.47759e-07
0.000166326
-2.84596e-07
0.000166374
-3.11057e-07
0.000166421
-3.29285e-07
0.000166465
-3.40219e-07
0.000166506
-3.46213e-07
0.000166546
-3.49163e-07
0.000166583
-3.5003e-07
0.000166619
-3.49363e-07
0.000166654
-3.47601e-07
0.000166687
-3.45086e-07
0.000166718
-3.42055e-07
0.000166748
-3.38666e-07
0.000166777
-3.35034e-07
0.000166805
-3.31242e-07
0.000166832
-3.2735e-07
0.000166858
-3.23401e-07
0.000166883
-3.19426e-07
0.000166906
-3.15446e-07
0.000166929
-3.11476e-07