/*--------------------------------*- C++ -*----------------------------------*\
| =========                 |                                                 |
| \\      /  F ield         | OpenFOAM: The Open Source CFD Toolbox           |
|  \\    /   O peration     | Version:  4.1                                   |
|   \\  /    A nd           | Web:      www.OpenFOAM.org                      |
|    \\/     M anipulation  |                                                 |
\*---------------------------------------------------------------------------*/
FoamFile
{
    version     2.0;
    format      ascii;
    class       volVectorField;
    location    "900";
    object      U;
}
// * * * * * * * * * * * * * * * * * * * * * * * * * * * * * * * * * * * * * //

dimensions      [0 1 -1 0 0 0 0];

internalField   nonuniform List<vector> 
6820
(
(7.2813 0.0192603 0)
(7.18936 0.0329224 0)
(7.0895 0.0360689 0)
(6.98491 0.0374729 0)
(6.88226 0.0387345 0)
(6.7831 0.0397556 0)
(6.68718 0.0405158 0)
(6.59472 0.0410297 0)
(6.50618 0.0412713 0)
(6.42176 0.0412187 0)
(6.34143 0.0408782 0)
(6.26513 0.040277 0)
(6.19273 0.0394508 0)
(6.12412 0.0384369 0)
(6.05912 0.037272 0)
(5.99759 0.0359901 0)
(5.93934 0.0346214 0)
(5.88423 0.0331921 0)
(5.8321 0.0317243 0)
(5.78279 0.0302365 0)
(5.73617 0.0287435 0)
(5.6921 0.0272573 0)
(5.65045 0.0257874 0)
(5.61112 0.0243411 0)
(5.57397 0.0229237 0)
(5.53892 0.0215394 0)
(5.50586 0.0201903 0)
(5.47471 0.0188808 0)
(5.44533 0.0176025 0)
(5.41784 0.0163864 0)
(5.39148 0.0151665 0)
(5.36901 0.0139101 0)
(5.34246 0.0139883 0)
(7.35129 0.0206776 0)
(7.39587 0.0322614 0)
(7.42787 0.0326356 0)
(7.44987 0.0332017 0)
(7.46739 0.0343599 0)
(7.48118 0.0351445 0)
(7.49064 0.035519 0)
(7.49593 0.0356542 0)
(7.49763 0.0356103 0)
(7.49622 0.0354081 0)
(7.49207 0.0350811 0)
(7.48557 0.0346672 0)
(7.47707 0.0341959 0)
(7.46691 0.0336875 0)
(7.45537 0.0331559 0)
(7.44272 0.0326109 0)
(7.42918 0.032059 0)
(7.41493 0.0315042 0)
(7.40014 0.0309486 0)
(7.38495 0.0303934 0)
(7.36949 0.0298391 0)
(7.35385 0.0292854 0)
(7.33812 0.028732 0)
(7.32237 0.0281783 0)
(7.30668 0.0276236 0)
(7.29109 0.0270672 0)
(7.27564 0.0265072 0)
(7.26038 0.025947 0)
(7.24533 0.0253694 0)
(7.23054 0.0248334 0)
(7.21607 0.0241276 0)
(7.20165 0.0238786 0)
(7.18868 0.0219978 0)
(7.33498 0.0124973 0)
(7.34477 0.0201473 0)
(7.35181 0.0214421 0)
(7.35496 0.0233119 0)
(7.35732 0.0252257 0)
(7.35979 0.0263816 0)
(7.362 0.0270188 0)
(7.36384 0.0274553 0)
(7.36547 0.0277918 0)
(7.36696 0.0280465 0)
(7.36826 0.0282375 0)
(7.36935 0.0283827 0)
(7.37019 0.0284909 0)
(7.37079 0.0285642 0)
(7.37113 0.0286025 0)
(7.3712 0.0286056 0)
(7.371 0.0285736 0)
(7.37054 0.0285067 0)
(7.36981 0.0284052 0)
(7.36883 0.0282701 0)
(7.3676 0.0281022 0)
(7.36614 0.0279028 0)
(7.36447 0.0276732 0)
(7.36258 0.0274148 0)
(7.3605 0.0271286 0)
(7.35825 0.026816 0)
(7.35584 0.0264776 0)
(7.35328 0.026115 0)
(7.35059 0.0257266 0)
(7.3478 0.0253147 0)
(7.34491 0.0248779 0)
(7.34191 0.0243638 0)
(7.33896 0.0239319 0)
(7.3347 0.00985765 0)
(7.34304 0.0202391 0)
(7.35045 0.0247379 0)
(7.35468 0.0280676 0)
(7.35778 0.0307885 0)
(7.36077 0.0326924 0)
(7.36343 0.0340309 0)
(7.36564 0.0350516 0)
(7.36756 0.0358229 0)
(7.3693 0.0363546 0)
(7.37087 0.0366706 0)
(7.37229 0.0368045 0)
(7.37357 0.0367865 0)
(7.37473 0.036642 0)
(7.37579 0.0363935 0)
(7.37676 0.0360612 0)
(7.37765 0.0356622 0)
(7.37846 0.035211 0)
(7.3792 0.0347192 0)
(7.37987 0.0341963 0)
(7.38048 0.0336497 0)
(7.38103 0.0330853 0)
(7.38153 0.0325073 0)
(7.38198 0.031919 0)
(7.38238 0.0313225 0)
(7.38274 0.0307193 0)
(7.38307 0.0301096 0)
(7.38337 0.0294945 0)
(7.38365 0.0288701 0)
(7.3839 0.0282429 0)
(7.38414 0.0275944 0)
(7.38437 0.026952 0)
(7.3846 0.0263133 0)
(7.33417 0.00784833 0)
(7.3405 0.0172867 0)
(7.34711 0.021246 0)
(7.35171 0.0237419 0)
(7.35548 0.0258496 0)
(7.3592 0.0273803 0)
(7.36268 0.028414 0)
(7.3658 0.0291469 0)
(7.36865 0.0296698 0)
(7.37132 0.0300166 0)
(7.37384 0.0302221 0)
(7.37621 0.0303222 0)
(7.37843 0.030344 0)
(7.38054 0.0303056 0)
(7.38254 0.0302201 0)
(7.38444 0.0300968 0)
(7.38624 0.0299428 0)
(7.38796 0.0297626 0)
(7.38961 0.0295593 0)
(7.39118 0.0293349 0)
(7.39269 0.0290905 0)
(7.39415 0.0288269 0)
(7.39555 0.0285444 0)
(7.39691 0.0282428 0)
(7.39822 0.0279218 0)
(7.3995 0.0275808 0)
(7.40076 0.0272189 0)
(7.40198 0.0268351 0)
(7.40319 0.0264274 0)
(7.40439 0.0259957 0)
(7.40557 0.0255365 0)
(7.40676 0.025053 0)
(7.40797 0.0245576 0)
(7.33381 0.00630819 0)
(7.33861 0.0150537 0)
(7.34442 0.0196755 0)
(7.34904 0.0229117 0)
(7.35294 0.0256593 0)
(7.35675 0.0277509 0)
(7.36037 0.0292581 0)
(7.36368 0.0303937 0)
(7.36676 0.0312701 0)
(7.36969 0.0319278 0)
(7.37246 0.0323986 0)
(7.3751 0.0327145 0)
(7.37761 0.0329008 0)
(7.38001 0.0329762 0)
(7.3823 0.0329562 0)
(7.3845 0.0328545 0)
(7.38662 0.0326827 0)
(7.38866 0.0324507 0)
(7.39063 0.0321671 0)
(7.39253 0.0318388 0)
(7.39438 0.0314719 0)
(7.39618 0.0310711 0)
(7.39793 0.0306404 0)
(7.39963 0.0301828 0)
(7.40131 0.0297004 0)
(7.40295 0.0291948 0)
(7.40457 0.0286667 0)
(7.40616 0.0281163 0)
(7.40774 0.0275427 0)
(7.4093 0.0269455 0)
(7.41086 0.0263229 0)
(7.41242 0.0256725 0)
(7.414 0.0250034 0)
(7.33356 0.00519296 0)
(7.33722 0.013153 0)
(7.34215 0.0178517 0)
(7.34647 0.0210123 0)
(7.35023 0.023506 0)
(7.3539 0.0253483 0)
(7.35745 0.0266385 0)
(7.36077 0.0275704 0)
(7.36389 0.0282521 0)
(7.36687 0.028727 0)
(7.36972 0.0290302 0)
(7.37245 0.0291968 0)
(7.37506 0.0292554 0)
(7.37757 0.0292271 0)
(7.37999 0.029129 0)
(7.38233 0.0289744 0)
(7.38459 0.0287742 0)
(7.38677 0.0285366 0)
(7.3889 0.0282677 0)
(7.39096 0.0279722 0)
(7.39298 0.0276532 0)
(7.39494 0.027313 0)
(7.39686 0.0269528 0)
(7.39874 0.0265734 0)
(7.40059 0.0261746 0)
(7.4024 0.025756 0)
(7.40419 0.0253164 0)
(7.40596 0.0248542 0)
(7.4077 0.0243672 0)
(7.40944 0.0238529 0)
(7.41116 0.0233082 0)
(7.41289 0.0227266 0)
(7.41462 0.0221089 0)
(7.33341 0.00435415 0)
(7.33622 0.0115132 0)
(7.34039 0.0161815 0)
(7.34439 0.0194343 0)
(7.34802 0.0220417 0)
(7.35158 0.0240781 0)
(7.35506 0.0256025 0)
(7.35836 0.0267625 0)
(7.36149 0.0276577 0)
(7.36449 0.0283345 0)
(7.36737 0.0288286 0)
(7.37013 0.0291733 0)
(7.37279 0.0293951 0)
(7.37535 0.0295136 0)
(7.37782 0.0295441 0)
(7.38021 0.029499 0)
(7.38252 0.0293888 0)
(7.38477 0.0292215 0)
(7.38695 0.029004 0)
(7.38907 0.0287418 0)
(7.39114 0.0284392 0)
(7.39316 0.0280998 0)
(7.39514 0.0277264 0)
(7.39707 0.0273209 0)
(7.39898 0.0268847 0)
(7.40085 0.0264185 0)
(7.4027 0.0259224 0)
(7.40452 0.0253959 0)
(7.40632 0.0248375 0)
(7.4081 0.0242451 0)
(7.40988 0.023616 0)
(7.41164 0.022944 0)
(7.4134 0.0222272 0)
(7.3333 0.0037113 0)
(7.3355 0.0101276 0)
(7.33902 0.0146563 0)
(7.34267 0.0178948 0)
(7.34609 0.0204493 0)
(7.34946 0.0224311 0)
(7.35279 0.0238991 0)
(7.356 0.0249868 0)
(7.35906 0.0257973 0)
(7.36201 0.0263847 0)
(7.36485 0.0267876 0)
(7.3676 0.0270408 0)
(7.37025 0.0271721 0)
(7.37281 0.0272028 0)
(7.3753 0.0271501 0)
(7.3777 0.0270279 0)
(7.38004 0.0268475 0)
(7.38231 0.026618 0)
(7.38452 0.0263467 0)
(7.38668 0.0260391 0)
(7.38878 0.0256995 0)
(7.39084 0.0253312 0)
(7.39286 0.0249363 0)
(7.39484 0.0245163 0)
(7.39678 0.0240716 0)
(7.3987 0.0236022 0)
(7.40058 0.0231073 0)
(7.40244 0.0225855 0)
(7.40427 0.0220347 0)
(7.40609 0.0214518 0)
(7.40789 0.0208332 0)
(7.40967 0.020172 0)
(7.41145 0.0194653 0)
(7.33324 0.00320677 0)
(7.33498 0.00894632 0)
(7.33796 0.0132556 0)
(7.34125 0.0164316 0)
(7.34446 0.0189418 0)
(7.34766 0.0209247 0)
(7.35085 0.0224409 0)
(7.35396 0.0235994 0)
(7.35696 0.0244913 0)
(7.35986 0.0251676 0)
(7.36268 0.025664 0)
(7.36541 0.0260123 0)
(7.36805 0.0262384 0)
(7.37061 0.0263621 0)
(7.37309 0.0263992 0)
(7.3755 0.0263622 0)
(7.37785 0.0262615 0)
(7.38013 0.026105 0)
(7.38235 0.0258994 0)
(7.38452 0.0256495 0)
(7.38663 0.0253595 0)
(7.3887 0.0250323 0)
(7.39073 0.0246701 0)
(7.39272 0.0242744 0)
(7.39467 0.023846 0)
(7.39659 0.0233851 0)
(7.39847 0.0228915 0)
(7.40033 0.0223639 0)
(7.40216 0.0218008 0)
(7.40397 0.0211998 0)
(7.40575 0.0205576 0)
(7.40752 0.0198688 0)
(7.40926 0.0191317 0)
(7.33319 0.00280017 0)
(7.3346 0.00793323 0)
(7.33714 0.0119802 0)
(7.3401 0.0150543 0)
(7.34309 0.0174943 0)
(7.3461 0.0194359 0)
(7.34913 0.0209351 0)
(7.35211 0.0220794 0)
(7.35502 0.0229506 0)
(7.35784 0.0236006 0)
(7.3606 0.0240661 0)
(7.36327 0.024379 0)
(7.36587 0.0245659 0)
(7.3684 0.0246471 0)
(7.37085 0.0246393 0)
(7.37324 0.0245559 0)
(7.37557 0.0244077 0)
(7.37784 0.0242036 0)
(7.38005 0.0239509 0)
(7.38221 0.0236551 0)
(7.38432 0.0233208 0)
(7.38638 0.0229513 0)
(7.38841 0.0225492 0)
(7.39039 0.0221161 0)
(7.39234 0.021653 0)
(7.39425 0.0211601 0)
(7.39613 0.0206371 0)
(7.39798 0.020083 0)
(7.3998 0.0194961 0)
(7.4016 0.018874 0)
(7.40337 0.0182139 0)
(7.40511 0.0175111 0)
(7.40682 0.0167642 0)
(7.33316 0.00246424 0)
(7.33432 0.00705674 0)
(7.3365 0.0108181 0)
(7.33915 0.0137565 0)
(7.34192 0.0161062 0)
(7.34475 0.0179921 0)
(7.34762 0.0194699 0)
(7.35048 0.0206132 0)
(7.35329 0.0214949 0)
(7.35604 0.022165 0)
(7.35873 0.0226588 0)
(7.36136 0.023006 0)
(7.36392 0.0232312 0)
(7.36642 0.0233539 0)
(7.36885 0.0233894 0)
(7.37122 0.0233503 0)
(7.37353 0.0232468 0)
(7.37578 0.0230869 0)
(7.37799 0.022877 0)
(7.38014 0.0226224 0)
(7.38224 0.0223269 0)
(7.38429 0.0219935 0)
(7.38631 0.0216243 0)
(7.38828 0.0212208 0)
(7.39022 0.0207838 0)
(7.39212 0.0203134 0)
(7.39398 0.0198094 0)
(7.39581 0.0192707 0)
(7.39761 0.0186962 0)
(7.39938 0.0180838 0)
(7.40112 0.0174314 0)
(7.40282 0.0167353 0)
(7.40449 0.0159955 0)
(7.33314 0.0021802 0)
(7.33411 0.00629039 0)
(7.33599 0.00975798 0)
(7.33838 0.0125364 0)
(7.34093 0.0147801 0)
(7.34358 0.016595 0)
(7.3463 0.0180335 0)
(7.34903 0.0191556 0)
(7.35174 0.020023 0)
(7.3544 0.0206819 0)
(7.35702 0.0211655 0)
(7.35958 0.0215019 0)
(7.36209 0.0217146 0)
(7.36454 0.0218226 0)
(7.36693 0.0218412 0)
(7.36926 0.0217827 0)
(7.37154 0.0216575 0)
(7.37377 0.0214738 0)
(7.37594 0.0212384 0)
(7.37807 0.0209566 0)
(7.38015 0.0206328 0)
(7.38218 0.0202701 0)
(7.38417 0.0198712 0)
(7.38612 0.0194377 0)
(7.38804 0.0189709 0)
(7.38991 0.0184711 0)
(7.39175 0.0179385 0)
(7.39356 0.0173726 0)
(7.39533 0.0167724 0)
(7.39706 0.0161366 0)
(7.39876 0.0154637 0)
(7.40043 0.0147512 0)
(7.40206 0.0139999 0)
(7.33312 0.00193505 0)
(7.33395 0.00561292 0)
(7.33559 0.008788 0)
(7.33773 0.0113892 0)
(7.34009 0.0135127 0)
(7.34258 0.0152434 0)
(7.34515 0.0166291 0)
(7.34775 0.0177196 0)
(7.35035 0.0185681 0)
(7.35293 0.0192168 0)
(7.35547 0.0196978 0)
(7.35797 0.0200371 0)
(7.36043 0.0202573 0)
(7.36283 0.0203762 0)
(7.36518 0.0204085 0)
(7.36748 0.020366 0)
(7.36973 0.0202585 0)
(7.37193 0.0200938 0)
(7.37408 0.0198782 0)
(7.37618 0.0196168 0)
(7.37824 0.0193135 0)
(7.38025 0.0189714 0)
(7.38222 0.0185927 0)
(7.38415 0.0181791 0)
(7.38604 0.0177314 0)
(7.38789 0.0172503 0)
(7.38971 0.0167357 0)
(7.39148 0.0161873 0)
(7.39322 0.0156044 0)
(7.39493 0.0149861 0)
(7.39659 0.0143314 0)
(7.39822 0.0136384 0)
(7.3998 0.0129089 0)
(7.33311 0.00171961 0)
(7.33382 0.00500731 0)
(7.33526 0.00789671 0)
(7.3372 0.0103097 0)
(7.33938 0.0123014 0)
(7.34171 0.013937 0)
(7.34413 0.0152582 0)
(7.34662 0.0163063 0)
(7.34911 0.017126 0)
(7.3516 0.0177548 0)
(7.35407 0.0182219 0)
(7.3565 0.0185513 0)
(7.35889 0.0187635 0)
(7.36124 0.0188755 0)
(7.36355 0.0189008 0)
(7.36581 0.0188509 0)
(7.36802 0.0187351 0)
(7.37018 0.0185609 0)
(7.37229 0.0183346 0)
(7.37436 0.0180612 0)
(7.37639 0.0177446 0)
(7.37837 0.017388 0)
(7.38031 0.0169939 0)
(7.38221 0.0165639 0)
(7.38407 0.0160994 0)
(7.38589 0.0156012 0)
(7.38767 0.0150697 0)
(7.38941 0.0145049 0)
(7.39111 0.0139067 0)
(7.39278 0.0132747 0)
(7.3944 0.0126086 0)
(7.39598 0.0119077 0)
(7.39752 0.011174 0)
(7.3331 0.00152727 0)
(7.33372 0.00445999 0)
(7.335 0.00707348 0)
(7.33676 0.00929182 0)
(7.33877 0.0111427 0)
(7.34095 0.0126738 0)
(7.34325 0.0139202 0)
(7.34561 0.0149161 0)
(7.34801 0.0156988 0)
(7.35041 0.0163013 0)
(7.35279 0.0167501 0)
(7.35516 0.0170674 0)
(7.35749 0.0172722 0)
(7.35979 0.0173804 0)
(7.36205 0.0174048 0)
(7.36427 0.0173563 0)
(7.36644 0.0172437 0)
(7.36856 0.0170744 0)
(7.37065 0.0168542 0)
(7.37269 0.016588 0)
(7.37468 0.0162795 0)
(7.37664 0.0159319 0)
(7.37855 0.0155475 0)
(7.38042 0.015128 0)
(7.38225 0.0146747 0)
(7.38404 0.0141885 0)
(7.38579 0.0136699 0)
(7.38749 0.0131191 0)
(7.38916 0.0125363 0)
(7.39079 0.0119214 0)
(7.39238 0.0112746 0)
(7.39392 0.0105953 0)
(7.39541 0.00988617 0)
(7.3331 0.00135317 0)
(7.33364 0.00396012 0)
(7.33479 0.00630866 0)
(7.33639 0.00832945 0)
(7.33826 0.0100326 0)
(7.3403 0.0114514 0)
(7.34247 0.0126142 0)
(7.34472 0.0135492 0)
(7.34702 0.0142872 0)
(7.34933 0.0148567 0)
(7.35164 0.0152812 0)
(7.35394 0.0155808 0)
(7.35622 0.0157726 0)
(7.35846 0.015871 0)
(7.36067 0.015888 0)
(7.36284 0.0158335 0)
(7.36497 0.0157159 0)
(7.36706 0.0155419 0)
(7.36911 0.0153172 0)
(7.37111 0.0150462 0)
(7.37307 0.0147329 0)
(7.37499 0.01438 0)
(7.37687 0.01399 0)
(7.3787 0.0135647 0)
(7.3805 0.0131055 0)
(7.38225 0.0126134 0)
(7.38396 0.0120893 0)
(7.38563 0.0115338 0)
(7.38726 0.0109472 0)
(7.38885 0.0103301 0)
(7.39039 0.0096829 0)
(7.39189 0.00900587 0)
(7.39335 0.00830182 0)
(7.33309 0.00119362 0)
(7.33358 0.00349897 0)
(7.33461 0.00559356 0)
(7.33608 0.00741634 0)
(7.33782 0.00896673 0)
(7.33973 0.0102667 0)
(7.34179 0.0113385 0)
(7.34394 0.0122048 0)
(7.34614 0.0128911 0)
(7.34837 0.0134213 0)
(7.35061 0.0138162 0)
(7.35284 0.0140937 0)
(7.35506 0.0142691 0)
(7.35725 0.0143555 0)
(7.35941 0.014364 0)
(7.36153 0.0143038 0)
(7.36362 0.0141826 0)
(7.36567 0.014007 0)
(7.36768 0.0137821 0)
(7.36965 0.0135123 0)
(7.37158 0.0132013 0)
(7.37346 0.012852 0)
(7.37531 0.0124666 0)
(7.37711 0.012047 0)
(7.37887 0.0115948 0)
(7.38059 0.0111111 0)
(7.38227 0.0105969 0)
(7.3839 0.0100528 0)
(7.3855 0.0094797 0)
(7.38705 0.00887817 0)
(7.38855 0.00824907 0)
(7.39001 0.00759279 0)
(7.39143 0.00691223 0)
(7.33309 0.00104575 0)
(7.33353 0.00306943 0)
(7.33447 0.00492043 0)
(7.33582 0.0065463 0)
(7.33744 0.00794042 0)
(7.33924 0.00911636 0)
(7.34119 0.0100907 0)
(7.34325 0.0108816 0)
(7.34536 0.0115097 0)
(7.34751 0.0119949 0)
(7.34968 0.0123552 0)
(7.35185 0.0126062 0)
(7.35401 0.0127613 0)
(7.35614 0.0128324 0)
(7.35826 0.0128294 0)
(7.36034 0.0127606 0)
(7.36238 0.0126331 0)
(7.36439 0.0124528 0)
(7.36636 0.0122246 0)
(7.3683 0.0119525 0)
(7.37019 0.01164 0)
(7.37204 0.0112897 0)
(7.37385 0.0109041 0)
(7.37561 0.0104848 0)
(7.37734 0.0100335 0)
(7.37902 0.00955142 0)
(7.38066 0.00903966 0)
(7.38226 0.00849919 0)
(7.38381 0.00793091 0)
(7.38532 0.00733575 0)
(7.38679 0.00671478 0)
(7.38821 0.00606875 0)
(7.38958 0.00540068 0)
(7.33308 0.000907259 0)
(7.33348 0.00266556 0)
(7.33435 0.0042823 0)
(7.3356 0.00571324 0)
(7.33712 0.00694879 0)
(7.33883 0.00799641 0)
(7.34068 0.00886798 0)
(7.34264 0.00957768 0)
(7.34468 0.0101418 0)
(7.34675 0.0105768 0)
(7.34885 0.0108978 0)
(7.35096 0.0111182 0)
(7.35306 0.0112498 0)
(7.35515 0.0113028 0)
(7.35721 0.0112861 0)
(7.35925 0.0112072 0)
(7.36125 0.0110725 0)
(7.36322 0.0108874 0)
(7.36515 0.0106563 0)
(7.36705 0.0103832 0)
(7.3689 0.0100711 0)
(7.37072 0.00972285 0)
(7.37249 0.00934052 0)
(7.37422 0.00892604 0)
(7.37591 0.00848097 0)
(7.37756 0.00800669 0)
(7.37917 0.00750441 0)
(7.38073 0.00697523 0)
(7.38225 0.00642025 0)
(7.38372 0.00584054 0)
(7.38515 0.00523733 0)
(7.38653 0.00461148 0)
(7.38787 0.00396595 0)
(7.33308 0.00077623 0)
(7.33345 0.00228231 0)
(7.33425 0.00367287 0)
(7.33542 0.0049112 0)
(7.33685 0.0059867 0)
(7.33847 0.00690261 0)
(7.34024 0.00766692 0)
(7.34212 0.0082903 0)
(7.34408 0.00878542 0)
(7.34608 0.00916551 0)
(7.34812 0.00944297 0)
(7.35017 0.00962906 0)
(7.35222 0.00973378 0)
(7.35425 0.00976601 0)
(7.35627 0.0097334 0)
(7.35826 0.00964255 0)
(7.36023 0.00949913 0)
(7.36216 0.00930793 0)
(7.36405 0.00907303 0)
(7.36591 0.0087979 0)
(7.36773 0.00848546 0)
(7.36951 0.00813818 0)
(7.37124 0.00775816 0)
(7.37294 0.00734721 0)
(7.3746 0.0069069 0)
(7.37621 0.00643861 0)
(7.37778 0.0059436 0)
(7.3793 0.00542307 0)
(7.38078 0.00487821 0)
(7.38222 0.00431017 0)
(7.38361 0.0037203 0)
(7.38496 0.00310961 0)
(7.38626 0.002481 0)
(7.33308 0.000651006 0)
(7.33342 0.00191521 0)
(7.33417 0.00308625 0)
(7.33527 0.00413426 0)
(7.33663 0.0050488 0)
(7.33817 0.00583032 0)
(7.33986 0.00648369 0)
(7.34167 0.00701651 0)
(7.34356 0.00743834 0)
(7.3455 0.00775941 0)
(7.34748 0.00798962 0)
(7.34947 0.00813813 0)
(7.35147 0.00821322 0)
(7.35346 0.00822231 0)
(7.35543 0.0081719 0)
(7.35738 0.00806766 0)
(7.3593 0.0079145 0)
(7.3612 0.00771665 0)
(7.36305 0.00747773 0)
(7.36487 0.00720087 0)
(7.36666 0.00688875 0)
(7.3684 0.00654366 0)
(7.3701 0.00616762 0)
(7.37177 0.00576238 0)
(7.37339 0.00532948 0)
(7.37496 0.00487036 0)
(7.3765 0.00438632 0)
(7.37799 0.00387863 0)
(7.37943 0.00334854 0)
(7.38084 0.00279729 0)
(7.38219 0.00222626 0)
(7.3835 0.00163648 0)
(7.38477 0.00103071 0)
(7.33308 0.000530082 0)
(7.3334 0.00156019 0)
(7.3341 0.00251688 0)
(7.33515 0.00337641 0)
(7.33644 0.00412929 0)
(7.33792 0.00477414 0)
(7.33955 0.00531337 0)
(7.34129 0.00575197 0)
(7.34312 0.0060967 0)
(7.34501 0.00635512 0)
(7.34693 0.00653476 0)
(7.34887 0.00664274 0)
(7.35082 0.00668566 0)
(7.35277 0.00666947 0)
(7.3547 0.00659952 0)
(7.35661 0.00648051 0)
(7.35849 0.00631655 0)
(7.36034 0.00611124 0)
(7.36216 0.00586772 0)
(7.36395 0.00558869 0)
(7.3657 0.00527655 0)
(7.36741 0.00493335 0)
(7.36907 0.00456094 0)
(7.3707 0.00416094 0)
(7.37229 0.00373485 0)
(7.37383 0.00328404 0)
(7.37533 0.0028098 0)
(7.37679 0.0023134 0)
(7.3782 0.00179609 0)
(7.37957 0.00125913 0)
(7.38089 0.000703907 0)
(7.38217 0.000131487 0)
(7.3834 -0.000455444 0)
(7.33307 0.000411966 0)
(7.33338 0.00121331 0)
(7.33405 0.00195934 0)
(7.33506 0.00263182 0)
(7.3363 0.00322257 0)
(7.33772 0.00372909 0)
(7.33929 0.0041518 0)
(7.34098 0.00449337 0)
(7.34276 0.00475809 0)
(7.3446 0.00495104 0)
(7.34647 0.00507749 0)
(7.34837 0.00514263 0)
(7.35027 0.00515138 0)
(7.35217 0.00510829 0)
(7.35406 0.00501754 0)
(7.35593 0.00488286 0)
(7.35778 0.0047076 0)
(7.3596 0.00449474 0)
(7.36138 0.00424693 0)
(7.36313 0.00396649 0)
(7.36485 0.00365551 0)
(7.36652 0.00331585 0)
(7.36815 0.00294917 0)
(7.36975 0.002557 0)
(7.3713 0.00214076 0)
(7.37281 0.00170176 0)
(7.37427 0.0012413 0)
(7.37569 0.000760596 0)
(7.37707 0.00026091 0)
(7.37841 -0.000256532 0)
(7.3797 -0.00079039 0)
(7.38094 -0.00133968 0)
(7.38215 -0.00190193 0)
(7.33307 0.00029513 0)
(7.33337 0.00087037 0)
(7.33402 0.00140744 0)
(7.33499 0.00189312 0)
(7.33619 0.00232078 0)
(7.33757 0.00268721 0)
(7.3391 0.0029912 0)
(7.34074 0.00323331 0)
(7.34248 0.00341554 0)
(7.34427 0.00354065 0)
(7.3461 0.00361177 0)
(7.34795 0.00363217 0)
(7.34982 0.00360509 0)
(7.35168 0.00353367 0)
(7.35353 0.00342086 0)
(7.35537 0.0032694 0)
(7.35718 0.00308181 0)
(7.35896 0.00286038 0)
(7.36071 0.00260718 0)
(7.36243 0.00232414 0)
(7.36411 0.00201296 0)
(7.36575 0.00167524 0)
(7.36735 0.00131244 0)
(7.36891 0.00092592 0)
(7.37043 0.000516981 0)
(7.37191 8.68634e-05 0)
(7.37334 -0.000363224 0)
(7.37473 -0.000832087 0)
(7.37608 -0.00131852 0)
(7.37738 -0.00182133 0)
(7.37864 -0.00233922 0)
(7.37985 -0.00287114 0)
(7.38103 -0.00341473 0)
(7.33307 0.000178613 0)
(7.33336 0.0005289 0)
(7.33399 0.000857833 0)
(7.33494 0.00115677 0)
(7.33611 0.00142069 0)
(7.33746 0.00164592 0)
(7.33896 0.00182974 0)
(7.34057 0.00197077 0)
(7.34226 0.00206885 0)
(7.34402 0.00212453 0)
(7.34581 0.00213889 0)
(7.34763 0.00211334 0)
(7.34946 0.00204955 0)
(7.35129 0.00194931 0)
(7.35311 0.00181444 0)
(7.35491 0.00164674 0)
(7.35668 0.00144794 0)
(7.35843 0.00121972 0)
(7.36015 0.000963628 0)
(7.36183 0.000681155 0)
(7.36348 0.000373689 0)
(7.36509 4.25376e-05 0)
(7.36666 -0.000311055 0)
(7.36819 -0.0006859 0)
(7.36967 -0.00108085 0)
(7.37111 -0.00149479 0)
(7.37252 -0.0019266 0)
(7.37387 -0.00237519 0)
(7.37519 -0.00283945 0)
(7.37646 -0.00331829 0)
(7.37769 -0.00381053 0)
(7.37887 -0.00431533 0)
(7.38001 -0.00483061 0)
(7.33307 6.109e-05 0)
(7.33336 0.000184383 0)
(7.33398 0.000303245 0)
(7.33491 0.000413678 0)
(7.33607 0.000512286 0)
(7.3374 0.00059488 0)
(7.33887 0.000657218 0)
(7.34045 0.000695991 0)
(7.34212 0.000708854 0)
(7.34385 0.000694145 0)
(7.34561 0.000650789 0)
(7.3474 0.000578277 0)
(7.3492 0.000476576 0)
(7.351 0.000346007 0)
(7.35278 0.000187147 0)
(7.35455 7.58783e-07 0)
(7.3563 -0.000212266 0)
(7.35802 -0.000450956 0)
(7.35971 -0.000714298 0)
(7.36136 -0.00100125 0)
(7.36298 -0.00131078 0)
(7.36456 -0.00164184 0)
(7.3661 -0.00199341 0)
(7.36759 -0.00236445 0)
(7.36905 -0.00275394 0)
(7.37047 -0.00316086 0)
(7.37184 -0.00358418 0)
(7.37317 -0.00402288 0)
(7.37445 -0.00447588 0)
(7.3757 -0.00494214 0)
(7.3769 -0.0054205 0)
(7.37805 -0.00591 0)
(7.37917 -0.00640859 0)
(7.33307 -5.89179e-05 0)
(7.33336 -0.000167977 0)
(7.33398 -0.000263894 0)
(7.33491 -0.000345469 0)
(7.33606 -0.000414558 0)
(7.33738 -0.000476209 0)
(7.33884 -0.000536444 0)
(7.34041 -0.000600639 0)
(7.34206 -0.000673329 0)
(7.34377 -0.000758359 0)
(7.34551 -0.000858807 0)
(7.34728 -0.000976937 0)
(7.34905 -0.0011143 0)
(7.35082 -0.00127187 0)
(7.35258 -0.00145021 0)
(7.35432 -0.0016495 0)
(7.35603 -0.00186968 0)
(7.35772 -0.00211046 0)
(7.35938 -0.0023714 0)
(7.361 -0.00265197 0)
(7.36259 -0.00295155 0)
(7.36414 -0.00326944 0)
(7.36564 -0.00360492 0)
(7.36711 -0.00395722 0)
(7.36854 -0.00432553 0)
(7.36992 -0.00470903 0)
(7.37126 -0.00510687 0)
(7.37256 -0.00551818 0)
(7.37381 -0.00594206 0)
(7.37502 -0.00637764 0)
(7.3762 -0.00682398 0)
(7.37732 -0.00728046 0)
(7.37841 -0.00774538 0)
(7.33307 -0.00018315 0)
(7.33336 -0.000532724 0)
(7.33399 -0.00084996 0)
(7.33494 -0.00112775 0)
(7.3361 -0.00136674 0)
(7.33743 -0.00157352 0)
(7.33889 -0.00175641 0)
(7.34046 -0.00192325 0)
(7.3421 -0.00208125 0)
(7.3438 -0.00223698 0)
(7.34553 -0.00239599 0)
(7.34728 -0.00256267 0)
(7.34903 -0.00274031 0)
(7.35078 -0.00293133 0)
(7.35252 -0.00313745 0)
(7.35424 -0.00335978 0)
(7.35593 -0.00359897 0)
(7.35759 -0.0038553 0)
(7.35923 -0.00412879 0)
(7.36083 -0.00441922 0)
(7.36239 -0.00472626 0)
(7.36391 -0.00504941 0)
(7.36539 -0.00538811 0)
(7.36683 -0.00574173 0)
(7.36823 -0.00610956 0)
(7.36959 -0.00649086 0)
(7.37091 -0.00688486 0)
(7.37218 -0.00729074 0)
(7.37341 -0.00770766 0)
(7.3746 -0.00813476 0)
(7.37574 -0.00857107 0)
(7.37685 -0.00901578 0)
(7.37791 -0.00946715 0)
(7.33307 -0.00031464 0)
(7.33338 -0.000918271 0)
(7.33403 -0.00146725 0)
(7.33501 -0.00194758 0)
(7.3362 -0.00235951 0)
(7.33755 -0.00271244 0)
(7.33903 -0.00301751 0)
(7.3406 -0.00328491 0)
(7.34225 -0.00352418 0)
(7.34395 -0.00374426 0)
(7.34567 -0.0039529 0)
(7.3474 -0.00415643 0)
(7.34914 -0.00435985 0)
(7.35087 -0.00456714 0)
(7.35259 -0.00478136 0)
(7.35428 -0.00500477 0)
(7.35595 -0.00523901 0)
(7.35759 -0.0054852 0)
(7.35919 -0.00574405 0)
(7.36076 -0.00601596 0)
(7.36229 -0.00630107 0)
(7.36378 -0.00659933 0)
(7.36524 -0.00691051 0)
(7.36665 -0.0072343 0)
(7.36802 -0.00757025 0)
(7.36935 -0.00791785 0)
(7.37063 -0.00827655 0)
(7.37187 -0.00864572 0)
(7.37308 -0.00902474 0)
(7.37423 -0.00941295 0)
(7.37535 -0.00980968 0)
(7.37643 -0.0102145 0)
(7.37747 -0.0106262 0)
(7.33308 -0.000457249 0)
(7.3334 -0.00133512 0)
(7.3341 -0.00213032 0)
(7.33512 -0.00282064 0)
(7.33636 -0.00340773 0)
(7.33776 -0.00390657 0)
(7.33927 -0.0043334 0)
(7.34087 -0.0047027 0)
(7.34254 -0.00502807 0)
(7.34425 -0.00532193 0)
(7.34598 -0.00559459 0)
(7.34772 -0.00585416 0)
(7.34945 -0.00610696 0)
(7.35118 -0.00635793 0)
(7.35288 -0.00661087 0)
(7.35456 -0.00686859 0)
(7.35622 -0.00713314 0)
(7.35784 -0.00740598 0)
(7.35943 -0.00768808 0)
(7.36098 -0.00798008 0)
(7.36249 -0.00828231 0)
(7.36396 -0.00859486 0)
(7.3654 -0.00891767 0)
(7.36679 -0.00925052 0)
(7.36814 -0.00959308 0)
(7.36944 -0.00994495 0)
(7.3707 -0.0103056 0)
(7.37193 -0.0106746 0)
(7.3731 -0.0110513 0)
(7.37424 -0.011435 0)
(7.37533 -0.0118251 0)
(7.37638 -0.0122208 0)
(7.37739 -0.0126209 0)
(7.33308 -0.000616435 0)
(7.33344 -0.00179808 0)
(7.3342 -0.00285952 0)
(7.33531 -0.00376924 0)
(7.33662 -0.00453337 0)
(7.33808 -0.00517382 0)
(7.33964 -0.00571051 0)
(7.34128 -0.00616083 0)
(7.34298 -0.00654259 0)
(7.3447 -0.00687279 0)
(7.34643 -0.00716561 0)
(7.34816 -0.00743224 0)
(7.34989 -0.00768162 0)
(7.3516 -0.00792083 0)
(7.35329 -0.00815537 0)
(7.35495 -0.00838937 0)
(7.35658 -0.00862593 0)
(7.35818 -0.00886729 0)
(7.35974 -0.00911509 0)
(7.36126 -0.00937044 0)
(7.36275 -0.00963407 0)
(7.36419 -0.00990641 0)
(7.3656 -0.0101877 0)
(7.36696 -0.0104778 0)
(7.36828 -0.0107768 0)
(7.36955 -0.0110843 0)
(7.37079 -0.0114002 0)
(7.37198 -0.0117239 0)
(7.37313 -0.012055 0)
(7.37424 -0.0123933 0)
(7.37531 -0.0127381 0)
(7.37634 -0.0130894 0)
(7.37733 -0.013446 0)
(7.33308 -0.000800603 0)
(7.3335 -0.00232915 0)
(7.33436 -0.00368157 0)
(7.33559 -0.00481833 0)
(7.33701 -0.00576319 0)
(7.33856 -0.00655661 0)
(7.34021 -0.00722718 0)
(7.34192 -0.00779608 0)
(7.34367 -0.00828422 0)
(7.34544 -0.00871079 0)
(7.3472 -0.00909106 0)
(7.34896 -0.0094368 0)
(7.3507 -0.00975749 0)
(7.35241 -0.0100608 0)
(7.3541 -0.0103526 0)
(7.35576 -0.0106376 0)
(7.35738 -0.0109192 0)
(7.35897 -0.0112002 0)
(7.36051 -0.0114826 0)
(7.36202 -0.0117678 0)
(7.36349 -0.0120568 0)
(7.36491 -0.0123503 0)
(7.36629 -0.0126488 0)
(7.36763 -0.0129525 0)
(7.36892 -0.0132613 0)
(7.37018 -0.0135752 0)
(7.37138 -0.0138941 0)
(7.37255 -0.0142177 0)
(7.37367 -0.0145457 0)
(7.37475 -0.0148777 0)
(7.37579 -0.0152132 0)
(7.37679 -0.0155519 0)
(7.37774 -0.015893 0)
(7.33309 -0.00102337 0)
(7.3336 -0.00296477 0)
(7.33462 -0.00464238 0)
(7.33601 -0.00600391 0)
(7.33757 -0.00709381 0)
(7.33921 -0.00797139 0)
(7.34093 -0.00867734 0)
(7.3427 -0.00924604 0)
(7.34449 -0.00971146 0)
(7.34627 -0.0101018 0)
(7.34805 -0.0104377 0)
(7.34981 -0.0107343 0)
(7.35154 -0.0110033 0)
(7.35325 -0.0112538 0)
(7.35492 -0.0114927 0)
(7.35655 -0.0117247 0)
(7.35815 -0.0119538 0)
(7.35971 -0.0121826 0)
(7.36123 -0.0124131 0)
(7.3627 -0.0126469 0)
(7.36414 -0.012885 0)
(7.36553 -0.0131281 0)
(7.36688 -0.0133767 0)
(7.36818 -0.0136311 0)
(7.36944 -0.0138914 0)
(7.37066 -0.0141575 0)
(7.37183 -0.0144294 0)
(7.37296 -0.0147069 0)
(7.37405 -0.0149898 0)
(7.3751 -0.0152778 0)
(7.37611 -0.0155706 0)
(7.37708 -0.0158679 0)
(7.37801 -0.0161691 0)
(7.33311 -0.00130859 0)
(7.33375 -0.00375371 0)
(7.33503 -0.00579802 0)
(7.33669 -0.00743446 0)
(7.33847 -0.00877491 0)
(7.3403 -0.00988983 0)
(7.34218 -0.0108057 0)
(7.34406 -0.0115536 0)
(7.34593 -0.0121728 0)
(7.34777 -0.0126959 0)
(7.34958 -0.0131454 0)
(7.35135 -0.0135385 0)
(7.35308 -0.0138897 0)
(7.35477 -0.0142101 0)
(7.35643 -0.0145082 0)
(7.35803 -0.0147905 0)
(7.3596 -0.0150618 0)
(7.36112 -0.0153257 0)
(7.3626 -0.0155849 0)
(7.36403 -0.0158414 0)
(7.36542 -0.0160966 0)
(7.36676 -0.0163516 0)
(7.36806 -0.016607 0)
(7.36931 -0.0168635 0)
(7.37052 -0.0171211 0)
(7.37168 -0.0173803 0)
(7.3728 -0.0176409 0)
(7.37388 -0.0179031 0)
(7.37491 -0.0181668 0)
(7.37591 -0.0184319 0)
(7.37685 -0.0186985 0)
(7.37776 -0.0189665 0)
(7.37862 -0.0192359 0)
(7.33314 -0.0017131 0)
(7.33403 -0.00480961 0)
(7.33564 -0.0071365 0)
(7.33755 -0.00877114 0)
(7.33947 -0.00999811 0)
(7.3414 -0.0109692 0)
(7.34337 -0.0117331 0)
(7.34532 -0.0123345 0)
(7.34722 -0.0128224 0)
(7.34907 -0.0132312 0)
(7.35086 -0.0135817 0)
(7.35261 -0.0138883 0)
(7.35431 -0.0141628 0)
(7.35595 -0.0144144 0)
(7.35754 -0.0146497 0)
(7.35908 -0.0148737 0)
(7.36058 -0.0150905 0)
(7.36202 -0.0153028 0)
(7.36342 -0.0155132 0)
(7.36478 -0.0157234 0)
(7.36608 -0.0159346 0)
(7.36734 -0.0161478 0)
(7.36856 -0.0163637 0)
(7.36973 -0.0165828 0)
(7.37086 -0.0168053 0)
(7.37194 -0.0170314 0)
(7.37298 -0.017261 0)
(7.37398 -0.017494 0)
(7.37494 -0.0177304 0)
(7.37586 -0.0179697 0)
(7.37674 -0.0182116 0)
(7.37758 -0.0184556 0)
(7.37839 -0.0187012 0)
(7.33321 -0.00230682 0)
(7.33467 -0.00642726 0)
(7.33707 -0.00951508 0)
(7.33954 -0.0117567 0)
(7.34173 -0.0134587 0)
(7.34378 -0.014755 0)
(7.34577 -0.0157245 0)
(7.34767 -0.0164589 0)
(7.34946 -0.017035 0)
(7.35115 -0.0175003 0)
(7.35277 -0.0178851 0)
(7.35432 -0.0182122 0)
(7.3558 -0.0184986 0)
(7.35722 -0.0187562 0)
(7.35859 -0.0189931 0)
(7.3599 -0.0192147 0)
(7.36116 -0.0194251 0)
(7.36237 -0.0196272 0)
(7.36353 -0.0198231 0)
(7.36464 -0.0200141 0)
(7.36571 -0.0202015 0)
(7.36673 -0.0203861 0)
(7.36771 -0.0205684 0)
(7.36864 -0.0207489 0)
(7.36954 -0.0209281 0)
(7.37039 -0.0211063 0)
(7.3712 -0.0212837 0)
(7.37197 -0.0214606 0)
(7.37271 -0.0216373 0)
(7.3734 -0.0218143 0)
(7.37406 -0.0219923 0)
(7.37468 -0.0221729 0)
(7.37527 -0.0223577 0)
(7.33323 -0.00330733 0)
(7.33508 -0.00748594 0)
(7.33785 -0.00963436 0)
(7.34039 -0.0111616 0)
(7.34248 -0.0124963 0)
(7.34435 -0.0135477 0)
(7.34606 -0.0143183 0)
(7.34756 -0.0149098 0)
(7.34888 -0.0153925 0)
(7.35005 -0.0157924 0)
(7.35112 -0.0161248 0)
(7.3521 -0.0164066 0)
(7.35301 -0.0166526 0)
(7.35385 -0.0168734 0)
(7.35463 -0.0170765 0)
(7.35537 -0.0172674 0)
(7.35607 -0.0174507 0)
(7.35673 -0.0176295 0)
(7.35736 -0.0178063 0)
(7.35796 -0.0179826 0)
(7.35853 -0.0181596 0)
(7.35907 -0.018338 0)
(7.35958 -0.0185182 0)
(7.36006 -0.0187005 0)
(7.36052 -0.0188847 0)
(7.36095 -0.0190707 0)
(7.36136 -0.0192582 0)
(7.36174 -0.0194467 0)
(7.3621 -0.0196353 0)
(7.36243 -0.0198229 0)
(7.36274 -0.0200078 0)
(7.36302 -0.0201855 0)
(7.36326 -0.0203568 0)
(7.33597 -0.00734844 0)
(7.3463 -0.0150967 0)
(7.35617 -0.0177367 0)
(7.36436 -0.0188971 0)
(7.37191 -0.0197791 0)
(7.37926 -0.0203568 0)
(7.38624 -0.0206455 0)
(7.39271 -0.0207944 0)
(7.39874 -0.0209011 0)
(7.40441 -0.0209911 0)
(7.40977 -0.0210683 0)
(7.41483 -0.0211385 0)
(7.41962 -0.0212064 0)
(7.42416 -0.0212741 0)
(7.42845 -0.0213417 0)
(7.43253 -0.0214091 0)
(7.43639 -0.0214763 0)
(7.44005 -0.0215434 0)
(7.44353 -0.0216105 0)
(7.44681 -0.0216777 0)
(7.44993 -0.0217454 0)
(7.45287 -0.0218137 0)
(7.45566 -0.021883 0)
(7.45828 -0.0219536 0)
(7.46077 -0.0220259 0)
(7.4631 -0.0221001 0)
(7.46531 -0.0221768 0)
(7.46739 -0.0222562 0)
(7.46934 -0.0223387 0)
(7.47119 -0.0224249 0)
(7.47293 -0.0225147 0)
(7.47458 -0.0226091 0)
(7.47617 -0.0227063 0)
(7.32333 -0.00889149 0)
(7.30978 -0.0181851 0)
(7.29242 -0.022275 0)
(7.27081 -0.0243669 0)