/*--------------------------------*- C++ -*----------------------------------*\
| =========                 |                                                 |
| \\      /  F ield         | OpenFOAM: The Open Source CFD Toolbox           |
|  \\    /   O peration     | Version:  4.1                                   |
|   \\  /    A nd           | Web:      www.OpenFOAM.org                      |
|    \\/     M anipulation  |                                                 |
\*---------------------------------------------------------------------------*/
FoamFile
{
    version     2.0;
    format      ascii;
    class       volScalarField;
    location    "1900";
    object      p;
}
// * * * * * * * * * * * * * * * * * * * * * * * * * * * * * * * * * * * * * //

dimensions      [0 2 -2 0 0 0 0];

internalField   nonuniform List<scalar> 
26785
(
37.6566
49.8225
58.4793
64.0505
67.9769
70.1503
71.9807
73.2637
73.6636
72.1869
68.0831
60.8318
50.0499
35.7381
18.5373
-0.393709
-19.9246
-39.2503
-57.7978
-75.0964
-90.5392
-103.424
-113.021
-118.392
-118.918
-115.008
-107.67
-98.6345
-89.4128
-80.9507
-73.8468
-68.0103
-62.2807
-55.0071
-44.7749
-32.173
-19.1109
-7.03331
3.48942
12.4269
19.9729
26.371
31.8396
36.5585
40.6648
44.2474
47.4026
50.2139
52.5528
54.5399
56.0245
55.3943
52.8269
49.5879
46.5346
43.8462
41.546
39.6071
37.9842
36.6286
35.4964
34.5499
33.7575
33.0925
32.5324
32.0576
31.6509
31.2972
30.9842
30.7025
30.4451
30.2076
29.9888
29.7907
29.6167
29.4687
29.3446
29.2403
29.1555
29.0989
29.0878
29.1372
29.2458
29.3933
29.557
29.7341
29.9464
30.2203
30.5561
30.9127
31.2293
31.4974
31.7286
32.0301
32.3075
32.537
31.6681
29.8577
20.2461
13.5592
37.614
49.8101
58.471
64.0514
67.9894
70.1528
71.9908
73.2677
73.6617
72.1763
68.0601
60.7937
49.9942
35.6633
18.4452
-0.49592
-20.0288
-39.3524
-57.8967
-75.1952
-90.642
-103.536
-113.149
-118.534
-119.054
-115.125
-107.748
-98.6669
-89.4007
-80.9096
-73.8107
-68.02
-62.3513
-55.1423
-44.9366
-32.3104
-19.2098
-7.10309
3.43571
12.3799
19.9271
26.3233
31.7883
36.5024
40.6024
44.1769
47.322
50.1165
52.429
54.3757
55.8059
55.1914
52.6313
49.4549
46.4456
43.7817
41.4972
39.5694
37.9547
36.6054
35.4779
34.535
33.7454
33.0827
32.5245
32.0514
31.6462
31.2937
30.9815
30.7001
30.443
30.2058
29.9874
29.7896
29.6152
29.4659
29.3403
29.2354
29.1512
29.0958
29.0843
29.1299
29.2323
29.3754
29.541
29.7257
29.9445
30.2137
30.5318
30.8738
31.1937
31.4805
31.7062
31.9232
32.0259
31.9441
30.5781
28.2953
18.5898
11.7334
37.4974
49.7744
58.4476
64.0479
68.0152
70.1592
72.0176
73.281
73.6637
72.1598
68.0164
60.7175
49.8822
35.5135
18.2619
-0.69763
-20.2328
-39.5505
-58.0875
-75.3848
-90.8395
-103.751
-113.395
-118.812
-119.333
-115.373
-107.911
-98.7278
-89.3723
-80.8291
-73.7365
-68.0383
-62.522
-55.4652
-45.3132
-32.6271
-19.4368
-7.26298
3.31357
12.2747
19.8269
26.2218
31.6817
36.3881
40.4771
44.037
47.1636
49.927
52.1971
54.0761
55.3709
54.7407
52.2584
49.2142
46.2815
43.6616
41.4058
39.4989
37.8997
36.562
35.4432
34.507
33.7227
33.0644
32.51
32.0403
31.6382
31.2882
30.9777
30.6973
30.4407
30.2041
29.9861
29.7882
29.6128
29.4615
29.3334
29.2271
29.1436
29.0901
29.0784
29.119
29.2124
29.348
29.5135
29.7067
29.9351
30.2023
30.5009
30.8189
31.1241
31.395
31.5937
31.6816
31.4956
30.9586
29.0227
26.1947
16.9104
9.83326
37.3061
49.7207
58.4099
64.0426
68.0573
70.1702
72.062
73.2986
73.6655
72.1344
67.9487
60.6011
49.7154
35.2959
18.0008
-0.980791
-20.5154
-39.8218
-58.3459
-75.6394
-91.1031
-104.037
-113.724
-119.185
-119.71
-115.715
-108.142
-98.8275
-89.358
-80.7444
-73.6445
-68.0361
-62.6964
-55.8371
-45.7881
-33.0593
-19.7713
-7.5154
3.11181
12.0989
19.6618
26.0587
31.5149
36.2135
40.2893
43.8306
46.9327
49.653
51.8667
53.6617
54.8117
54.1375
51.7814
48.891
46.0499
43.4874
41.2716
39.3944
37.8178
36.4971
35.3914
34.4653
33.689
33.0372
32.4884
32.0238
31.6263
31.2799
30.9717
30.6927
30.4369
30.2007
29.983
29.7849
29.6082
29.4542
29.3228
29.214
29.1302
29.0777
29.0656
29.1012
29.1851
29.3111
29.4719
29.6673
29.9009
30.1682
30.4531
30.7466
31.0205
31.2454
31.3687
31.3288
30.9163
30.0171
27.6086
24.2445
15.3304
8.14818
37.0298
49.6427
58.3557
64.0417
68.1143
70.1839
72.1205
73.3172
73.6606
72.0851
67.8391
60.4298
49.4852
35.0079
17.6641
-1.34016
-20.8694
-40.158
-58.6626
-75.9485
-91.421
-104.38
-114.12
-119.638
-120.173
-116.141
-108.436
-98.9693
-89.3673
-80.6653
-73.5438
-68.0157
-62.8633
-56.2259
-46.3121
-33.5634
-20.1858
-7.84687
2.83522
11.8529
19.4309
25.8331
31.2879
35.9796
40.0416
43.5619
46.6344
49.301
51.4431
53.1528
54.1803
53.452
51.2347
48.4915
45.7491
43.2556
41.0914
39.2539
37.7076
36.4101
35.322
34.4096
33.6441
33.0013
32.4601
32.0024
31.6112
31.2698
30.9649
30.6877
30.4327
30.1968
29.9791
29.7806
29.6027
29.446
29.311
29.1989
29.1131
29.0597
29.0457
29.0765
29.1523
29.2692
29.4228
29.6141
29.8455
30.108
30.378
30.6439
30.8741
31.0304
31.0509
30.8541
30.2074
29.0083
26.2825
22.6069
14.1479
7.04319
36.6955
49.5343
58.2814
64.0509
68.1831
70.1994
72.1845
73.3227
73.6155
71.9773
67.6635
60.1864
49.1782
34.6404
17.2471
-1.77565
-21.2909
-40.5524
-59.0289
-76.3016
-91.7812
-104.767
-114.567
-120.152
-120.706
-116.638
-108.785
-99.1484
-89.4061
-80.6016
-73.447
-67.978
-63.0029
-56.5911
-46.8293
-34.0862
-20.6424
-8.23524
2.4953
11.5426
19.1371
25.5473
31.0032
35.6897
39.7382
43.2364
46.2741
48.8789
50.937
52.5777
53.4746
52.7081
50.621
48.013
45.3756
42.9638
40.8643
39.0775
37.5701
36.302
35.2364
34.3413
33.5897
32.9582
32.4268
31.9777
31.5942
31.2588
30.9578
30.6827
30.4283
30.1924
29.9745
29.7753
29.5956
29.436
29.2971
29.1809
29.0914
29.0346
29.0164
29.041
29.1088
29.217
29.3626
29.5466
29.7701
30.0211
30.2698
30.5015
30.6767
30.757
30.6654
30.3115
29.4429
27.9789
25.0055
21.1377
13.1226
6.28873
36.3218
49.3998
58.1874
64.0695
68.2601
70.208
72.238
73.2859
73.5072
71.8036
67.411
59.8587
48.788
34.1944
16.7571
-2.2763
-21.7672
-40.992
-59.4324
-76.6864
-92.1714
-105.183
-115.051
-120.717
-121.298
-117.201
-109.183
-99.3631
-89.4765
-80.5578
-73.3613
-67.9308
-63.1144
-56.9189
-47.3099
-34.5928
-21.1114
-8.65945
2.10585
11.1769
18.787
25.2065
30.6655
35.3488
39.385
42.8597
45.8584
48.3938
50.3732
51.9448
52.6931
51.9084
49.9349
47.4535
44.9297
42.6142
40.5937
38.869
37.4091
36.1768
35.1382
34.264
33.529
32.9111
32.391
31.952
31.5776
31.2491
30.9519
30.6781
30.424
30.1879
29.9694
29.769
29.5871
29.4242
29.2811
29.1603
29.066
29.0038
28.979
28.9952
29.0534
29.1517
29.2879
29.4621
29.6738
29.9078
30.1295
30.3181
30.4307
30.4271
30.2173
29.7108
28.6428
26.9591
23.8067
19.8288
12.2299
5.77326
35.8758
49.2383
58.0753
64.083
68.3369
70.1952
72.2707
73.2013
73.346
71.5574
67.0739
59.4501
48.3274
33.6871
16.2124
-2.82447
-22.2822
-41.4624
-59.8598
-77.0903
-92.5787
-105.616
-115.557
-121.318
-121.939
-117.82
-109.624
-99.6079
-89.5759
-80.5392
-73.2909
-67.8802
-63.1973
-57.1979
-47.7315
-35.0566
-21.569
-9.10067
1.68097
10.7664
18.3889
24.8179
30.2816
34.9636
38.9883
42.4382
45.3939
47.8543
49.7753
51.2453
51.8482
51.0501
49.1737
46.8177
44.4198
42.2172
40.2902
38.6387
37.2337
36.0423
35.0344
34.1837
33.4672
32.8642
32.3566
31.9282
31.563
31.2405
30.9458
30.673
30.4191
30.1827
29.9632
29.7611
29.5765
29.4098
29.2622
29.1361
29.0359
28.9667
28.9333
28.9392
28.9856
29.0717
29.1956
29.3567
29.5524
29.7647
29.9543
30.0934
30.1394
30.0493
29.7217
29.0705
27.8252
25.9584
22.681
18.649
11.4466
5.36351
35.3653
49.0536
57.946
64.0671
68.3967
70.1701
72.2843
73.0827
73.1259
71.2377
66.6636
58.9773
47.8129
33.1335
15.6269
-3.40712
-22.8238
-41.9528
-60.301
-77.503
-92.9926
-106.053
-116.074
-121.942
-122.617
-118.486
-110.102
-99.8785
-89.7017
-80.5506
-73.2378
-67.8335
-63.2572
-57.424
-48.079
-35.4583
-21.9969
-9.54315
1.23374
10.3221
17.9521
24.3894
29.8588
34.5412
38.5543
41.979
44.8847
47.2816
49.1335
50.4784
50.9462
50.1317
48.3447
46.1214
43.866
41.7931
39.9723
38.4016
37.0559
35.9077
34.9318
34.1054
33.4077
32.8197
32.3241
31.9057
31.5486
31.2311
30.9386
30.6668
30.4132
30.1763
29.9557
29.7515
29.5637
29.3928
29.24
29.108
29.0007
28.923
28.8793
28.8729
28.9053
28.9765
29.085
29.2291
29.4042
29.5899
29.7429
29.8285
29.8052
29.6281
29.1869
28.4022
27.0033
24.988
21.6318
17.5883
10.7686
4.99731
34.8024
48.8484
57.8014
64.0092
68.4258
70.1396
72.2753
72.9294
72.8492
70.8534
66.19
58.4493
47.2529
32.5425
15.01
-4.01497
-23.3833
-42.455
-60.7485
-77.9166
-93.4044
-106.485
-116.589
-122.577
-123.32
-119.188
-110.608
-100.169
-89.8492
-80.5919
-73.2047
-67.7948
-63.2993
-57.5964
-48.343
-35.7852
-22.382
-9.97445
0.775707
9.85444
17.486
23.9296
29.4053
34.0885
38.0904
41.4863
44.3425
46.6783
48.4324
49.6498
49.9901
49.1614
47.4687
45.3938
43.2986
41.3681
39.6596
38.1713
36.8844
35.7783
34.8331
34.0298
33.3498
32.7757
32.2914
31.8822
31.5326
31.2199
30.9297
30.6592
30.4058
30.1684
29.9465
29.7399
29.5486
29.373
29.2144
29.0754
28.9598
28.872
28.8161
28.7954
28.8116
28.8651
28.9547
29.078
29.2279
29.3825
29.4952
29.5252
29.4316
29.1688
28.6201
27.7138
26.184
24.05
20.652
16.627
10.174
4.64864
34.2221
48.6193
57.6403
63.9198
68.4148
70.0913
72.2299
72.7351
72.5169
70.4074
65.6579
57.8723
46.6544
31.9214
14.369
-4.64068
-23.9535
-42.9625
-61.1964
-78.3253
-93.808
-106.903
-117.093
-123.212
-124.036
-119.916
-111.133
-100.475
-90.0136
-80.6611
-73.1966
-67.7654
-63.3281
-57.7164
-48.5186
-36.0298
-22.716
-10.3851
0.316816
9.37315
16.9996
23.4474
28.9288
33.6131
37.6026
40.9623
43.7781
46.0266
47.6734
48.7647
48.9894
48.1613
46.5798
44.6715
42.7482
40.9631
39.3638
37.9529
36.72
35.6523
34.7352
33.9532
33.2899
32.7292
32.256
31.8563
31.5143
31.2064
30.9189
30.6498
30.3968
30.1588
29.9354
29.7262
29.5311
29.3503
29.1852
29.0383
28.913
28.8135
28.7435
28.7062
28.7037
28.7365
28.8037
28.902
29.0223
29.1418
29.2115
29.1855
29.0215
28.6758
28.0272
27.0117
25.3723
23.1453
19.7352
15.7491
9.64569
4.31162
33.6789
48.3748
57.4613
63.8055
68.3511
70.0081
72.1229
72.4933
72.1305
69.9042
65.074
57.253
46.023
31.2754
13.7096
-5.27842
-24.5289
-43.4702
-61.6405
-78.7247
-94.1985
-107.302
-117.578
-123.839
-124.757
-120.656
-111.668
-100.788
-90.1902
-80.7544
-73.2163
-67.7456
-63.3485
-57.7859
-48.604
-36.1896
-22.9942
-10.7683
-0.134529
8.88703
16.5019
22.9509
28.4369
33.123
37.0908
40.4189
43.1776
45.3202
46.8642
47.834
47.9663
47.1651
45.7161
43.9859
42.2338
40.5855
39.0848
37.7424
36.5577
35.5247
34.6338
33.8723
33.2257
32.6788
32.2173
31.8276
31.4933
31.1906
30.9061
30.6385
30.3859
30.1474
29.9223
29.7103
29.511
29.3246
29.1522
28.9963
28.8601
28.7471
28.6611
28.605
28.5811
28.5901
28.6312
28.7003
28.787
28.8676
28.8925
28.8112
28.5778
28.153
27.413
26.3007
24.5713
22.273
18.8743
14.9401
9.16743
3.9858
33.1458
48.1187
57.2623
63.6628
68.2318
69.8844
71.9289
72.201
71.6939
69.3495
64.4438
56.5957
45.3626
30.6085
13.0364
-5.92311
-25.1044
-43.9736
-62.0769
-79.1113
-94.5727
-107.677
-118.038
-124.449
-125.47
-121.398
-112.2
-101.102
-90.3743
-80.8683
-73.2642
-67.7415
-63.3697
-57.8067
-48.6002
-36.2658
-23.2155
-11.1193
-0.571423
8.40406
16.0011
22.4475
27.9389
32.6187
36.5608
39.8523
42.527
44.5673
46.0154
46.8788
46.9519
46.2077
44.9061
43.3525
41.7582
40.2304
38.8152
37.533
36.3917
35.3914
34.5262
33.7855
33.1562
32.624
32.1751
31.796
31.4697
31.1724
30.8911
30.6252
30.3731
30.134
29.9072
29.692
29.4882
29.2956
29.1153
28.9494
28.8008
28.6728
28.5687
28.4914
28.4433
28.4253
28.4366
28.4726
28.5217
28.5601
28.5389
28.4036
28.1033
27.604
26.7816
25.5846
23.7829
21.4321
18.0629
14.1898
8.72645
3.67654
32.6339
47.853
57.0401
63.4876
68.0571
69.736
71.6385
71.858
71.2112
68.7481
63.772
55.9038
44.6757
29.9238
12.3534
-6.57005
-25.6751
-44.4685
-62.5028
-79.4828
-94.9285
-108.024
-118.468
-125.039
-126.17
-122.129
-112.719
-101.411
-90.5619
-81
-73.3389
-67.7631
-63.3986
-57.7787
-48.5098
-36.2629
-23.381
-11.4352
-0.988246
7.9317
15.5042
21.9467
27.4397
32.0996
36.0164
39.2464
41.8314
43.7798
45.1444
45.9261
45.9769
45.3136
44.1617
42.77
41.313
39.8881
38.5472
37.3192
36.2188
35.2505
34.4112
33.6921
33.0812
32.5647
32.1292
31.7613
31.4435
31.1516
30.8738
30.6098
30.3582
30.1185
29.8898
29.6714
29.4627
29.2634
29.0745
28.8975
28.7352
28.5905
28.4663
28.3655
28.2905
28.2422
28.2199
28.2188
28.2268
28.2197
28.1508
27.9632
27.6008
27.0319
26.1364
24.8664
23.0083
20.621
17.2951
13.4897
8.31345
3.38991
32.1659
47.5803
56.7939
63.2779
67.8297
69.5963
71.2709
71.4685
70.6859
68.1048
63.0624
55.1798
43.9642
29.2239
11.6644
-7.21453
-26.2365
-44.9511
-62.9156
-79.8375
-95.2649
-108.344
-118.866
-125.604
-126.849
-122.839
-113.215
-101.707
-90.7491
-81.1457
-73.4396
-67.8164
-63.4344
-57.6973
-48.3367
-36.1876
-23.4933
-11.7143
-1.37989
7.47558
15.0187
21.4564
26.9328
31.5734
35.4461
38.6013
41.1037
42.9738
44.2729
45.0024
45.062
44.4914
43.479
42.2276
40.8868
39.5502
38.2756
37.0982
36.0375
35.1012
34.2884
33.5919
33.0005
32.5007
32.0795
31.7236
31.4145
31.1284
30.8541
30.5921
30.3413
30.1009
29.8701
29.6483
29.4345
29.2281
29.0297
28.8408
28.6635
28.5004
28.3542
28.2277
28.123
28.0413
27.9818
27.9397
27.9032
27.8479
27.7296
27.492
27.0728
26.44
25.4803
24.1485
22.2482
19.8381
16.5658
12.8335
7.92244
3.12931
31.7583
47.2981
56.5252
63.0317
67.5597
69.4533
70.8653
71.0405
70.1224
67.424
62.3186
54.4258
43.2297
28.5112
10.9733
-7.8518
-26.784
-45.4177
-63.3133
-80.1745
-95.5813
-108.633
-119.23
-126.144
-127.503
-123.518
-113.675
-101.983
-90.9331
-81.303
-73.5634
-67.9003
-63.4702
-57.5571
-48.0865
-36.0481
-23.5565
-11.9556
-1.74275
7.04066
14.5551
20.9697
26.4229
31.0362
34.8451
37.9293
40.3595
42.1679
43.4219
44.1258
44.215
43.7364
42.8459
41.7127
40.4704
39.2116
37.998
36.8689
35.8472
34.943
34.1575
33.4846
32.9138
32.4319
32.026
31.6829
31.3828
31.1026
30.8322
30.5723
30.3221
30.0811
29.8483
29.6229
29.4037
29.1898
28.9814
28.7796
28.5862
28.4034
28.2334
28.079
27.9422
27.8241
27.724
27.6374
27.5528
27.447
27.278
26.9925
26.5218
25.8309
24.8161
23.433
21.5032
19.0824
15.8712
12.2166
7.55003
2.89541
31.4562
47.0096
56.2353
62.7472
67.2618
69.2452
70.4435
70.5793
69.5249
66.7103
61.5439
53.6437
42.4738
27.7884
10.2843
-8.47708
-27.3131
-45.8651
-63.6943
-80.4935
-95.8777
-108.893
-119.558
-126.659
-128.128
-124.16
-114.093
-102.234
-91.1111
-81.4696
-73.7057
-68.0107
-63.4957
-57.3529
-47.7671
-35.8536
-23.5746
-12.1587
-2.07514
6.6366
14.1091
20.4851
25.9174
30.481
34.2243
37.2455
39.6156
41.3794
42.6066
43.3046
43.4322
43.037
42.2492
41.2153
40.0585
38.8699
37.7133
36.6307
35.6473
34.7755
34.018
33.3701
32.8212
32.3585
31.969
31.6394
31.3487
31.0744
30.8079
30.5503
30.301
30.0593
29.8245
29.5954
29.3708
29.149
28.9301
28.7147
28.5043
28.3006
28.1056
27.9216
27.7506
27.5937
27.45
27.3155
27.1796
27.0206
26.7996
26.4665
25.9492
25.2078
24.1465
22.7222
20.7739
18.3526
15.2082
11.6352
7.19472
2.68681
31.214
46.7141
55.9262
62.4256
66.9415
68.956
70.0054
70.0853
68.8975
65.968
60.7416
52.8355
41.6983
27.058
9.60137
-9.08571
-27.8197
-46.2904
-64.0577
-80.7944
-96.1536
-109.121
-119.847
-127.149
-128.722
-124.757
-114.459
-102.454
-91.2813
-81.6432
-73.8638
-68.1437
-63.4992
-57.0821
-47.3885
-35.6133
-23.5517
-12.3252
-2.37072
6.26294
13.6719
20.0169
25.4128
29.9158
33.598
36.5643
38.8869
40.6206
41.8347
42.5376
42.7042
42.3801
41.6783
40.7291
39.6479
38.5238
37.421
36.3832
35.4375
34.5984
33.87
33.2482
32.7228
32.2806
31.9087
31.5934
31.3122
31.0439
30.7815
30.5263
30.2779
30.0357
29.7989
29.5663
29.3362
29.1066
28.8768
28.6477
28.4199
28.1948
27.974
27.7595
27.5532
27.3556
27.166
26.9806
26.79
26.5749
26.2999
25.9178
25.3584
24.5738
23.4738
22.0178
20.061
17.6482
14.5747
11.0868
6.85604
2.50097
31.0178
46.4128
55.5993
62.0722
66.5946
68.6151
69.5458
69.5584
68.244
65.2013
59.9151
52.0037
40.905
26.3226
8.9283
-9.67338
-28.3001
-46.6912
-64.4023
-81.0775
-96.4085
-109.315
-120.092
-127.614
-129.283
-125.306
-114.769
-102.641
-91.4424
-81.8212
-74.0369
-68.2934
-63.4671
-56.7459
-46.9617
-35.3353
-23.4924
-12.4539
-2.62827
5.9068
13.2587
19.5716
24.9133
29.3536
32.9794
35.8982
38.1838
39.8983
41.107
41.8187
42.0199
41.7554
41.1259
40.2505
39.2372
38.1725
37.1205
36.1259
35.2176
34.4116
33.7134
33.1193
32.6188
32.1986
31.8455
31.5454
31.2737
31.0113
30.7531
30.5005
30.2532
30.0108
29.7722
29.5363
29.3011
29.0639
28.8238
28.5812
28.3364
28.0905
27.8444
27.5998
27.3582
27.1194
26.8822
26.6432
26.3945
26.1195
25.7871
25.3541
24.7546
23.9324
22.801
21.3218
19.3655
16.9688
13.9694
10.5692
6.5339
2.335
30.8695
46.1108
55.2555
61.6959
66.2216
68.2477
69.0623
68.9992
67.5661
64.4143
59.0678
51.151
40.0962
25.5849
8.26873
-10.2362
-28.7513
-47.0654
-64.7271
-81.3423
-96.6406
-109.474
-120.286
-128.053
-129.809
-125.8
-115.018
-102.791
-91.5938
-82.002
-74.2242
-68.4488
-63.3852
-56.3481
-46.4977
-35.0285
-23.4007
-12.5434
-2.8605
5.57954
12.8905
19.1521
24.4285
28.8053
32.3784
35.2558
37.5124
39.2138
40.4199
41.1401
41.3702
41.1552
40.5877
39.7772
38.8254
37.8157
36.8116
35.8589
34.9876
34.2153
33.5484
32.9835
32.5097
32.1132
31.7802
31.4958
31.2338
30.9772
30.7234
30.4736
30.2278
29.9855
29.7457
29.5071
29.2678
29.0242
28.7748
28.5203
28.2605
27.9957
27.7266
27.454
27.1789
26.8998
26.6146
26.3197
26.0089
25.669
25.274
24.7858
24.1439
23.2876
22.1317
20.6363
18.6884
16.3144
13.3914
10.0808
6.22831
2.18623
30.7649
45.8127
54.8973
61.3012
65.8288
67.8635
68.5554
68.4085
66.8641
63.6099
58.2036
50.2805
39.2743
24.8472
7.62593
-10.7706
-29.1707
-47.4112
-65.0308
-81.5883
-96.8477
-109.593
-120.418
-128.461
-130.296
-126.234
-115.202
-102.905
-91.7357
-82.1838
-74.4228
-68.5935
-63.2397
-55.8989
-46.0103
-34.6947
-23.2727
-12.6014
-3.05945
5.31476
12.5724
18.7625
23.9659
28.2785
31.8017
34.6421
36.8745
38.5651
39.7682
40.4946
40.7481
40.5748
40.0609
39.3079
38.4118
37.453
36.4944
35.5822
34.7476
34.0095
33.3754
32.8415
32.3964
32.0255
31.714
31.4457
31.1931
30.9424
30.6933
30.447
30.2034
29.9621
29.722
29.4822
29.2404
28.9922
28.736
28.4724
28.2008
27.921
27.6326
27.336
27.0311
26.7146
26.3825
26.0307
25.6542
25.2431
24.7776
24.2267
23.5366
22.6466
21.4705
19.9642
18.031
15.6855
12.8406
9.62041
5.93947
2.05252
30.7359
45.5261
54.5308
60.8856
65.4219
67.4642
68.0266
67.7893
66.1378
62.7882
57.3259
49.3955
38.4422
24.1122
7.00275
-11.2738
-29.5562
-47.7268
-65.3114
-81.8142
-97.0273
-109.668
-120.479
-128.829
-130.737
-126.597
-115.317
-102.982
-91.8677
-82.364
-74.6264
-68.7054
-63.0268
-55.405
-45.4899
-34.3226
-23.105
-12.6199
-3.18512
5.12521
12.3026
18.4055
23.5299
27.7775
31.2526
34.0586
36.269
37.9485
39.1467
39.8764
40.1488
40.0107
39.5434
38.8416
37.9962
37.0846
36.169
35.2961
34.498
33.7949
33.1951
32.6944
32.2803
31.9371
31.649
31.3963
31.1533
30.909
30.6655
30.4236
30.1834
29.9445
29.7058
29.4664
29.2241
28.9736
28.713
28.4433
28.1635
27.8724
27.5688
27.2525
26.9223
26.5727
26.1976
25.7914
25.349
24.8625
24.3182
23.6945
22.9467
22.0177
20.8222
19.3089
17.3952
15.0829
12.3172
9.1874
5.66787
1.93236
30.7514
45.2544
54.1626
60.4511
65.0059
67.0488
67.4777
67.1451
65.3888
61.9476
56.4356
48.4999
37.6026
23.382
6.40163
-11.7431
-29.906
-48.0103
-65.5663
-82.0181
-97.1781
-109.699
-120.458
-129.147
-131.123
-126.877
-115.362
-103.025
-91.9887
-82.5397
-74.8221
-68.7656
-62.7396
-54.8487
-44.9122
-33.9022
-22.8921
-12.5619
-3.21392
5.00506
12.0772
18.0811
23.1219
27.3043
30.7323
33.5048
35.6934
37.3604
38.5513
39.2817
39.5689
39.4607
39.034
38.3778
37.5784
36.7106
35.8358
35.001
34.2393
33.5721
33.0088
32.5442
32.1642
31.8518
31.589
31.3513
31.1176
30.881
30.6445
30.4086
30.1735
29.9383
29.7021
29.4637
29.2212
28.9687
28.7045
28.4306
28.1446
27.8437
27.5262
27.1916
26.8377
26.4574
26.0435
25.5888
25.087
24.53
23.9077
23.2051
22.3884
21.4107
20.1929
18.6745
16.7832
14.5073
11.8217
8.78137
5.41405
1.8246
30.8207
44.9995
53.7943
60.0039
64.5845
66.6159
66.9107
66.4784
64.6209
61.0887
55.5306
47.5958
36.7588
22.6588
5.82461
-12.1764
-30.2184
-48.2598
-65.7925
-82.1986
-97.3004
-109.682
-120.347
-129.404
-131.445
-127.064
-115.335
-103.036
-92.097
-82.7068
-74.9925
-68.7559
-62.3517
-54.2058
-44.2741
-33.4328
-22.6064
-12.3941
-3.15039
4.9434
11.8912
17.7877
22.7422
26.8589
30.24
32.979
35.1448
36.7972
37.9785
38.7074
39.0061
38.9232
38.5318
37.9162
37.1586
36.3313
35.4952
34.6975
33.9725
33.3429
32.8193
32.3953
32.0543
31.7767
31.5396
31.3168
31.0926
30.8653
30.637
30.4075
30.1769
29.9445
29.7091
29.4698
29.2251
28.9697
28.7012
28.4213
28.1274
27.8167
27.4866
27.1354
26.7596
26.3519
25.9041
25.4073
24.8533
24.2338
23.5394
22.7587
21.8691
20.8353
19.5892
18.065
16.1978
13.9603
11.3547
8.40192
5.17795
1.72798
30.9687
44.7684
53.4264
59.5492
64.1588
66.1643
66.3272
65.7917
63.837
60.2154
54.6099
46.6818
35.9136
21.9445
5.27322
-12.5719
-30.4922
-48.4732
-65.9861
-82.354
-97.395
-109.615
-120.146
-129.587
-131.694
-127.145
-115.237
-103.017
-92.1907
-82.8557
-75.1218
-68.6391
-61.8418
-53.4797
-43.5831
-32.8985
-22.2115
-12.1135
-3.01144
4.92904
11.7393
17.5231
22.3895
26.4405
29.7743
32.4791
34.6208
36.2565
37.4262
38.1515
38.4588
38.3971
38.0364
37.4568
36.7369
35.9473
35.148
34.387
33.6997
33.1109
32.6331
32.2577
31.9631
31.723
31.5097
31.3002
31.0849
30.8655
30.6426
30.4165
30.1872
29.9545
29.7175
29.4752
29.2259
28.9662
28.6941
28.4089
28.1073
27.7867
27.4442
27.0772
26.6813
26.2488
25.7706
25.2367
24.6373
23.9633
23.2048
22.3526
21.3918
20.2976
19.0173
17.485
15.642
13.4433
10.9169
8.04865
4.95912
1.64132
31.2064
44.5688
53.0618
59.0906
63.7279
65.6935
65.7282
65.0869
63.0393
59.3313
53.677
45.7547
35.0669
21.2414
4.74838
-12.9286
-30.7257
-48.6483
-66.1425
-82.4817
-97.4617
-109.5
-119.86
-129.678
-131.852
-127.11
-115.07
-102.972
-92.2655
-82.9757
-75.1794
-68.3779
-61.2109
-52.6855
-42.834
-32.2681
-21.6931
-11.7389
-2.81544
4.95185
11.6165
17.2849
22.0625
26.0475
29.3335
32.003
34.1192
35.7362
36.8927
37.6126
37.9259
37.8817
37.5474
36.9995
36.314
35.5595
34.7957
34.0718
33.4253
32.8845
32.4648
32.1505
31.907
31.7007
31.503
31.2992
31.0888
30.8725
30.6511
30.4254
30.1957
29.9615
29.7223
29.4768
29.2231
28.9582
28.6815
28.391
28.0822
27.7521
27.3978
27.0159
26.6014
26.1463
25.6411
25.0749
24.4365
23.7156
22.9012
21.9853
20.9584
19.8033
18.4835
16.9395
15.1188
12.9585
10.5093
7.72146
4.75781
1.56419
31.5602
44.4016
52.7033
58.6307
63.2897
65.2035
65.1146
64.3657
62.2298
58.4388
52.7362
44.8171
34.2147
20.5512
4.25136
-13.2458
-30.918
-48.7825
-66.2571
-82.5772
-97.4991
-109.346
-119.496
-129.65
-131.893
-126.943
-114.837
-102.901
-92.311
-83.0586
-75.1126
-67.9606
-60.4777
-51.8277
-42.0054
-31.5181
-21.0641
-11.2949
-2.57858
5.00351
11.5186
17.0706
21.7595
25.6784
28.9158
31.5491
33.6383
35.2351
36.3767
37.0898
37.4066
37.3765
37.0647
36.5449
35.8904
35.1689
34.4404
33.7567
33.1596
32.6834
32.3412
32.0937
31.8911
31.6999
31.5041
31.3021
31.093
30.8776
30.6569
30.4314
30.2011
29.9656
29.7238
29.4747
29.2165
28.9461
28.6629
28.3656
28.0494
27.7102
27.3445
26.9486
26.517
26.0416
25.5124
24.9182
24.2468
23.4864
22.6252
21.6551
20.5694
19.3565
17.9944
16.4336
14.6316
12.5078
10.1331
7.42075
4.5757
1.49717
31.9917
44.2642
52.3526
58.1711
62.8427
64.6947
64.4867
63.6296
61.4102
57.5404
51.7906
43.8738
33.3576
19.8715
3.78495
-13.5227
-31.0685
-48.8732
-66.325
-82.6332
-97.5051
-109.159
-119.041
-129.489
-131.802
-126.637
-114.543
-102.8
-92.3224
-83.0647
-74.8817
-67.4012
-59.6565
-50.8972
-41.0725
-30.6496
-20.3516
-10.8047
-2.31375
5.0776
11.4423
16.8784
21.4789
25.3317
28.52
31.1161
33.177
34.752
35.8776
36.5822
36.9003
36.8813
36.5885
36.0933
35.4673
34.7779
34.0872
33.4531
32.9264
32.5412
32.2818
32.0789
31.8902
31.6985
31.5036
31.3024
31.0943
30.88
30.66
30.4347
30.2038
29.9667
29.7221
29.469
29.2055
28.929
28.6385
28.3329
28.008
27.6591
27.2819
26.8721
26.4241
25.9298
25.379
24.7604
24.0611
23.2684
22.3695
21.3558
20.2214
18.9579
17.5541
15.9718
14.1832
12.0927
9.78911
7.1467
4.41491
1.44075
32.4806
44.1539
52.0106
57.7132
62.3862
64.1675
63.8447
62.8796
60.5814
56.6378
50.8432
42.9284
32.4996
19.2007
3.35032
-13.7545
-31.1749
-48.9199
-66.3423
-82.6401
-97.4751
-108.932
-118.501
-129.245
-131.592
-126.184
-114.195
-102.661
-92.2892
-82.9214
-74.479
-66.7188
-58.7511
-49.8762
-40.0247
-29.6843
-19.5845
-10.2873
-2.03053
5.16941
11.3851
16.7064
21.2193
25.006
28.1447
30.7028
32.7344
34.2864
35.3947
36.0894
36.4067
36.396
36.1191
35.6455
35.0464
34.3907
33.7474
33.1869
32.7634
32.4747
32.261
32.0735
31.8842
31.694
31.4999
31.2995
31.0926
30.8794
30.6603
30.4352
30.2038
29.965
29.7176
29.4603
29.191
28.9077
28.6091
28.294
27.9588
27.5989
27.2092
26.7851
26.3206
25.8078
25.2369
24.5962
23.8729
23.0536
22.1251
21.0779
19.9061
18.6024
17.1622
15.5565
13.7752
11.7136
9.47672
6.89866
4.276
1.39384
33.0149
44.067
51.6774
57.2575
61.9199
63.6226
63.1887
62.1168
59.7445
55.7323
49.8963
41.9844
31.6435
18.5401
2.94561
-13.9366
-31.2282
-48.9191
-66.3072
-82.5916
-97.4029
-108.651
-117.938
-128.956
-131.281
-125.566
-113.793
-102.482
-92.1431
-82.5846
-73.9217
-65.9267
-57.7552
-48.7492
-38.8715
-28.6521
-18.788
-9.75657
-1.73558
5.27563
11.345
16.5532
20.9793
24.7004
27.7892
30.3085
32.3098
33.8378
34.9278
35.6113
35.9257
35.9207
35.6569
35.2028
34.6311
34.0176
33.4457
32.9948
32.6807
32.4448
32.248
32.0614
31.8746
31.6856
31.4924
31.2933
31.0879
30.8761
30.658
30.4333
30.2012
29.9607
29.7103
29.4486
29.1734
28.8827
28.5754
28.2498
27.903
27.5305
27.1272
26.6879
26.2064
25.675
25.0842
24.4228
23.6779
22.8362
21.8841
20.8118
19.6128
18.2804
16.8129
15.1859
13.4075
11.3701
9.19479
6.675
4.1568
1.35368
33.5737
43.9998
51.3524
56.804
61.4432
63.0607
62.5187
61.3419
58.9001
54.8248
48.9515
41.0446
30.7923
17.8903
2.56895
-14.0693
-31.2187
-48.8555
-66.2123
-82.4876
-97.2846
-108.303
-117.424
-128.511
-130.84
-124.772
-113.328
-102.221
-91.8017
-82.0601
-73.2279
-65.0295
-56.657
-47.5134
-37.6365
-27.5828
-17.9818
-9.22205
-1.43327
5.39402
11.3204
16.4175
20.7581
24.4139
27.4526
29.9327
31.9029
33.4059
34.4766
35.1475
35.4574
35.4558
35.2027
34.7677
34.2297
33.6804
33.2172
32.8866
32.6366
32.4206
32.2285
32.0448
31.8603
31.6729
31.4814
31.284
31.0803
30.8701
30.653
30.4287
30.196
29.9536
29.7
29.4337
29.1523
28.854
28.5373
28.2007
27.8413
27.4552
27.0371
26.5814
26.082
25.5314
24.9206
24.2389
23.4738
22.6121
21.6409
20.5496
19.3319
17.981
16.4968
14.8551
13.0787
11.0609
8.941
6.47305
4.05389
1.31787
34.1591
43.9466
51.0347
56.3522
60.9552
62.4824
61.8343
60.5556
58.0488
53.9162
48.0104
40.1113
29.9487
17.2519
2.21824
-14.1556
-31.1444
-48.7107
-66.0366
-82.3244
-97.106
-107.874
-116.966
-127.895
-130.165
-123.835
-112.779
-101.784
-91.2385
-81.37
-72.4103
-64.0237
-55.4472
-46.1804
-36.3488
-26.5012
-17.1796
-8.68982
-1.12626
5.52304
11.3101
16.2985
20.5549
24.1459
27.1345
29.5749
31.5133
32.9906
34.0411
34.6983
35.0019
35.0016
34.7582
34.3463
33.8604
33.4105
33.0719
32.8184
32.5985
32.3942
32.2022
32.0229
31.8415
31.6565
31.4669
31.2715
31.0696
30.861
30.645
30.421
30.1877
29.9434
29.6866
29.4153
29.1275
28.8211
28.4947
28.1465
27.7739
27.3731
26.9394
26.4667
25.9484
25.378
24.7467
24.0445
23.2597
22.3797
21.392
20.2862
19.056
17.6945
16.203
14.5558
12.7837
10.7825
8.71238
6.29028
3.96402
1.28473
34.7268
43.9026
50.7232
55.9017
60.4552
61.8882
61.1356
59.7585
57.1911
53.007
47.0738
39.1865
29.115
16.6255
1.89091
-14.1988
-31.0062
-48.4768
-65.7605
-82.0864
-96.8277
-107.335
-116.536
-127.175
-129.279
-122.797
-112.091
-101.114
-90.4702
-80.5351
-71.4733
-62.9011
-54.1262
-44.7723
-35.0361
-25.4265
-16.3902
-8.16322
-0.816026
5.66165
11.3133
16.1953
20.3689
23.896
26.8345
29.2349
31.141
32.5917
33.6212
34.2636
34.5593
34.5589
34.3273
33.9527
33.5498
33.2218
32.9763
32.763
32.5605
32.3589
32.1707
31.9962
31.8183
31.6358
31.4484
31.2551
31.0552
30.8483
30.6336
30.41
30.176
29.9298
29.6696
29.3933
29.0988
28.7839
28.4472
28.0869
27.7005
27.2844
26.8342
26.344
25.8068
25.2158
24.5636
23.8407
23.0362
22.1385
21.1359
20.0186
18.78
17.4135
15.9219
14.2778
12.5155
10.5311
8.50595
6.12425
3.88399
1.25274
35.2658
43.8647
50.4168
55.4517
59.9424
61.2784
60.4223
58.9512
56.3275
52.0977
46.1426
38.2715
28.2931
16.0121
1.58436
-14.2036
-30.8057
-48.1495
-65.3781
-81.7614
-96.4141
-106.664
-116.099
-126.4
-128.256
-121.655
-111.195
-100.205
-89.5248
-79.5694
-70.4139
-61.6556
-52.7052
-43.3153
-33.7225
-24.3716
-15.6184
-7.64377
-0.503316
5.80906
11.3292
16.1073
20.1997
23.6636
26.5522
28.9125
30.7858
32.2094
33.2171
33.8437
34.1301
34.1303
33.9202
33.6079
33.3151
33.0928
32.901
32.7126
32.5152
32.3184
32.1354
31.9642
31.7901
31.6105
31.4255
31.2345
31.0369
30.8319
30.6185
30.3954
30.1608
29.9127
29.649
29.3675
29.0658
28.7421
28.3946
28.0216
27.6207
27.1887
26.7212
26.2129
25.6569
25.0456
24.3721
23.6284
22.8043
21.8892
20.8727
19.7453
18.5013
17.1335
15.6463
14.012
12.2663
10.3015
8.31769
5.97223
3.81074
1.22052
35.7763
43.8304
50.1146
55.0016
59.416
60.6534
59.6941
58.1342
55.4582
51.1886
45.2175
37.3675
27.4846
15.4123
1.29621
-14.1758
-30.5467
-47.725
-64.8846
-81.3417
-95.8538
-105.869
-115.609
-125.505
-127.086
-120.35
-110.05
-99.0779
-88.4277
-78.4771
-69.2248
-60.2884
-51.204
-41.8355
-32.4259
-23.3443
-14.8663
-7.1318
-0.188472
5.96472
11.3572
16.034
20.047
23.4485
26.2875
28.6075
30.4476
31.8436
32.8289
33.4385
33.7156
33.7224
33.5524
33.3301
33.1472
32.993
32.8347
32.6564
32.4637
32.274
32.0953
31.927
31.7566
31.58
31.3977
31.2094
31.0142
30.8113
30.5994
30.3769
30.1418
29.8917
29.6245
29.3375
29.0285
28.6955
28.3367
27.9503
27.5343
27.0854
26.6
26.0729
25.4979
24.867
24.1728
23.4082
22.5648
21.6328
20.6028
19.4664
18.2186
16.8519
15.3719
13.7514
12.0277
10.0874
8.14315
5.83153
3.74143
1.18679
36.2547
43.7976
49.8157
54.5509
58.8754
60.0133
58.9512
57.308
54.5839
50.2802
44.299
36.4753
26.6907
14.8268
1.02433
-14.121
-30.2349
-47.2043
-64.2751
-80.8111
-95.1431
-104.969
-114.999
-124.399
-125.677
-118.814
-108.656
-97.7674
-87.1947
-77.254
-67.9006
-58.8098
-49.6467
-40.3556
-31.1588
-22.3483
-14.134
-6.62698
0.128361
6.12816
11.3968
15.975
19.9103
23.2504
26.04
28.3197
30.1264
31.4945
32.4566
33.0488
33.3199
33.3461
33.2405
33.1206
33.0195
32.907
32.7654
32.5925
32.4076
32.2249
32.05
31.8841
31.7174
31.5439
31.3646
31.1792
30.9868
30.7862
30.5761
30.3544
30.1188
29.8669
29.5959
29.3034
28.9867
28.6439
28.2732
27.8728
27.4408
26.9745
26.4703
25.9236
25.3288