/*--------------------------------*- C++ -*----------------------------------*\
| =========                 |                                                 |
| \\      /  F ield         | OpenFOAM: The Open Source CFD Toolbox           |
|  \\    /   O peration     | Version:  4.1                                   |
|   \\  /    A nd           | Web:      www.OpenFOAM.org                      |
|    \\/     M anipulation  |                                                 |
\*---------------------------------------------------------------------------*/
FoamFile
{
    version     2.0;
    format      ascii;
    class       surfaceScalarField;
    location    "1900";
    object      phi;
}
// * * * * * * * * * * * * * * * * * * * * * * * * * * * * * * * * * * * * * //

dimensions      [0 3 -1 0 0 0 0];

internalField   nonuniform List<scalar> 
52920
(
933.626
177.521
754.105
179.52
595.377
158.726
482.924
112.451
459.965
22.9547
508.215
-48.2536
620.454
-112.242
777.825
-157.373
999.134
-221.311
1289.53
-290.4
1642.28
-352.744
2046.35
-404.072
2488.21
-441.86
2951.61
-463.405
3419.74
-468.131
3879.2
-459.459
4321.12
-441.921
4739.91
-418.791
5131.4
-391.491
5490.03
-358.628
5808.29
-318.26
6075.58
-267.291
6276.62
-201.039
6398.14
-121.52
6438.5
-40.3667
6409.33
29.1738
6340.53
68.8023
6271.76
68.7669
6244.44
27.3201
6288.45
-44.0095
6398.17
-109.723
6520.38
-122.207
6575.37
-54.9902
6497.5
77.8711
6283.14
214.354
5980.24
302.9
5640.33
339.915
5296.11
344.214
4962.43
333.684
4642.91
319.519
4335.47
307.441
4035.56
299.904
3737.92
297.644
3437.37
300.551
3128.7
308.666
2807.07
321.63
2467.46
339.604
2099.02
368.448
1681.52
417.5
1177.94
503.579
555.004
622.93
-82.8948
637.898
-590.421
507.524
-933.848
343.427
-1183.22
249.373
-1375.53
192.306
-1528.5
152.968
-1652.51
124.012
-1754.59
102.079
-1839.77
85.1773
-1911.74
71.9725
-1973.27
61.5301
-2026.43
53.1616
-2072.74
46.3106
-2113.24
40.4931
-2148.54
35.3041
-2179
30.4559
-2204.77
25.7742
-2225.88
21.11
-2242.24
16.3527
-2253.73
11.4962
-2260.36
6.62355
-2262.17
1.80976
-2259.18
-2.9896
-2251.17
-8.00609
-2237.54
-13.6337
-2217.39
-20.1436
-2189.96
-27.4378
-2154.77
-35.1854
-2111.64
-43.1275
-2060.27
-51.3699
-1999.83
-60.4413
-1928.83
-71.0064
-1845.33
-83.4965
-1747.35
-97.9793
-1633.07
-114.278
-1500.85
-132.224
-1348.79
-152.062
-1173.84
-174.948
-970.688
-203.152
-732.007
-238.681
-437.143
-294.865
-114.578
-322.565
254.576
-369.154
854.241
-599.666
1923.43
-1069.19
3463.01
-1539.58
5498.3
-2035.29
8149.58
-2651.29
-2055.59
940.396
360.64
757.046
362.869
596.413
319.357
479.505
229.357
467.024
35.4311
553.741
-134.974
718.324
-276.828
925.221
-364.271
1184.67
-480.76
1501.15
-606.883
1871.7
-723.297
2288.74
-821.112
2740.19
-893.305
3210
-933.217
3681.28
-939.41
4140.59
-918.776
4579.26
-880.585
4992.05
-831.59
5375.31
-774.751
5724.17
-707.488
6032.1
-626.185
6289.89
-525.082
6484.46
-395.612
6604.45
-241.511
6646.51
-82.4287
6619.99
55.6994
6555.28
133.51
6489.57
134.473
6456.92
59.9722
6484.22
-71.3111
6574.35
-199.858
6684.87
-232.728
6731.92
-102.033
6636.09
173.696
6389.54
460.904
6046
646.443
5664.67
721.24
5283.15
725.732
4918.08
698.756
4573.12
664.482
4245.48
635.074
3929.79
615.603
3619.94
607.486
3310.01
610.481
2994.05
624.633
2666.69
648.982
2322.17
684.121
1947.91
742.714
1520.25
845.158
997.839
1025.99
374.979
1245.79
-197.368
1210.24
-601.324
911.479
-895.98
638.082
-1123.12
476.513
-1302.43
371.618
-1446.22
296.752
-1562.95
240.746
-1658.86
197.986
-1738.57
164.886
-1805.5
138.901
-1862.14
118.17
-1910.27
101.287
-1951.09
87.1292
-1985.37
74.7718
-2013.56
63.5012
-2035.97
52.8628
-2052.82
42.6227
-2064.26
32.5482
-2070.33
22.421
-2071.01
12.1779
-2066.27
1.88905
-2056.04
-8.42346
-2039.93
-19.1008
-2017.18
-30.7548
-1987
-43.8185
-1948.72
-58.4239
-1901.75
-74.4019
-1845.6
-91.3401
-1779.8
-108.927
-1703.83
-127.34
-1616.95
-147.32
-1518.15
-169.804
-1406.23
-195.423
-1279.96
-224.25
-1138.33
-255.904
-980.624
-289.931
-806.314
-326.373
-614.176
-367.087
-398.253
-419.075
-150.06
-486.875
117.875
-562.799
426.687
-631.379
846.16
-788.626
1330.7
-1084.2
1844.04
-1582.53
2454.13
-2149.67
3239.17
-2820.33
4636.64
-4048.75
-3578.02
946.365
552.419
758.233
551.001
596.471
481.118
486.84
338.986
509.213
13.0548
647.001
-272.764
841.802
-471.631
1050.46
-572.928
1291.42
-721.72
1583.06
-898.529
1932.65
-1072.88
2335.1
-1223.57
2776.29
-1334.49
3237.46
-1394.39
3699.91
-1401.86
4149.34
-1368.21
4576.83
-1308.08
4977.33
-1232.09
5347.56
-1144.98
5683.26
-1043.19
5978.88
-921.807
6226.78
-772.98
6415.72
-584.559
6535.95
-361.732
6584.09
-130.576
6565.75
74.0437
6504.88
194.381
6430.81
208.539
6370.55
120.235
6350.74
-51.5006
6388.21
-237.33
6467.06
-311.579
6522.66
-157.637
6462.99
233.366
6250.96
672.934
5925.54
971.862
5546.52
1100.26
5157.28
1114.97
4779.68
1076.35
4420.77
1023.39
4079.68
976.168
3752
943.278
3432.1
927.385
3113.98
928.601
2791.44
947.176
2459.22
981.199
2110.74
1032.6
1728.18
1125.27
1276.96
1296.38
723.747
1579.2
151.2
1818.34
-290.488
1651.93
-606.95
1227.94
-867.059
898.191
-1080
689.449
-1253.03
544.648
-1393.72
437.445
-1508.81
355.833
-1603.77
292.946
-1682.79
243.907
-1748.93
205.037
-1804.34
173.586
-1850.55
147.497
-1888.61
125.184
-1919.22
105.385
-1942.86
87.1439
-1959.85
69.8511
-1970.43
53.1949
-1974.67
36.7897
-1972.46
20.2124
-1963.56
3.28293
-1947.73
-13.9417
-1924.5
-31.6532
-1893.19
-50.4201
-1853.26
-70.6839
-1804.47
-92.6018
-1746.8
-116.098
-1680.39
-140.813
-1605.52
-166.209
-1522.48
-191.972
-1431.37
-218.448
-1331.96
-246.726
-1223.59
-278.172
-1105.29
-313.722
-976.072
-353.473
-835.048
-396.928
-681.243
-443.736
-513.276
-494.34
-329.046
-551.317
-122.44
-625.681
111.032
-720.348
392.981
-844.748
758.95
-997.348
1208.53
-1238.21
1707.67
-1583.34
2182.52
-2057.38
2623.72
-2590.86
2976.36
-3172.97
3405.86
-4478.26
-4337.54
951.202
753.326
758.812
743.39
597.048
642.881
503.217
432.814
559.286
-43.0171
713.533
-427.013
881.693
-639.793
1033.91
-725.149
1216.09
-903.895
1469.85
-1152.29
1805.52
-1408.56
2207.75
-1625.8
2652.26
-1779
3114.89
-1857.02
3575.17
-1862.15
4018.89
-1811.93
4437.92
-1727.1
4828.09
-1622.26
5186.92
-1503.81
5510.87
-1367.14
5795.22
-1206.16
6033.45
-1011.21
6215.62
-766.73
6333.18
-479.289
6382.56
-179.951
6366.04
90.5618
6303.54
256.878
6219.37
292.71
6134.73
204.869
6074.39
8.83762
6064.06
-226.993
6107.16
-354.685
6158.3
-208.771
6125.76
265.9
5953.52
845.174
5663.3
1262.08
5308.22
1455.34
4932.04
1491.15
4559.45
1448.94
4200.4
1382.45
3856.3
1320.26
3524.43
1275.15
3200.16
1251.66
2877.9
1250.86
2551.99
1273.08
2217.85
1315.34
1865.69
1384.76
1467.2
1523.75
983.258
1780.32
428.365
2134.09
-44.365
2291.06
-366.666
1974.23
-632.062
1493.33
-873.127
1139.26
-1078.38
894.702
-1247.78
714.046
-1386.11
575.771
-1499.17
468.894
-1592.12
385.894
-1668.93
320.718
-1732.43
268.539
-1784.55
225.706
-1826.58
189.527
-1859.38
157.984
-1883.5
129.508
-1899.27
102.913
-1906.87
77.446
-1906.46
52.7818
-1898.14
28.4751
-1881.99
4.06192
-1858.18
-20.5289
-1826.71
-45.4161
-1787.22
-71.1425
-1739.59
-98.0465
-1684.21
-126.07
-1621.7
-155.107
-1552.84
-184.962
-1478.37
-215.277
-1398.89
-245.69
-1314.64
-276.22
-1225.43
-307.663
-1130.51
-341.646
-1028.59
-380.092
-917.971
-424.343
-796.834
-474.61
-663.427
-530.335
-515.855
-591.308
-351.628
-658.567
-166.533
-736.412
44.8229
-837.037
295.616
-971.141
598.824
-1147.96
964.188
-1362.71
1384.53
-1658.55
1850.26
-2049.07
2311.44
-2518.56
2754.59
-3034.01
3104.59
-3522.98
3221.03
-4594.7
-4675.88
954.429
961.103
759.754
938.064
600.477
802.158
524.285
509.004
590.433
-109.168
700.677
-537.259
775.821
-714.939
837.639
-786.968
982.756
-1049.01
1252.98
-1422.52
1624.27
-1779.85
2055.95
-2057.48
2516.41
-2239.46
2982.89
-2323.5
3438.45
-2317.71
3872.12
-2245.59
4278.22
-2133.21
4654.28
-1998.32
4998.85
-1848.38
5309.02
-1677.31
5580.6
-1477.74
5807.69
-1238.3
5980.97
-940.013
6092.6
-590.918
6138.45
-225.802
6118.09
110.926
6049.99
324.97
5956.39
386.319
5853.98
307.273
5763.12
99.6984
5713.27
-177.146
5721.85
-363.261
5757.71
-244.638
5733.53
290.086
5585.47
993.231
5324.4
1523.15
4995.85
1783.9
4640.24
1846.75
4281.84
1807.34
3931.63
1732.66
3592.52
1659.37
3263.12
1604.55
2939.71
1575.07
2617.44
1573.12
2291.91
1598.62
1958.01
1649.24
1598.01
1744.76
1173.99
1947.77
665.537
2288.78
159.94
2639.69
-196.581
2647.58
-445.71
2223.36
-687.799
1735.42
-916.958
1368.42
-1114.31
1092.05
-1276.96
876.697
-1408.75
707.562
-1515.29
575.437
-1601.7
472.294
-1671.8
390.827
-1728.23
324.96
-1772.59
270.074
-1805.88
222.816
-1828.64
180.739
-1841.13
142.003
-1843.51
105.289
-1835.95
69.8875
-1819
35.825
-1793.6
3.07569
-1761
-28.54
-1722.14
-59.3812
-1677.3
-90.2593
-1626.84
-121.605
-1571.64
-153.243
-1512.63
-185.081
-1450.54
-217.194
-1385.85
-249.653
-1318.65
-282.481
-1248.56
-315.777
-1174.76
-350.022
-1096.02
-386.404
-1010.8
-426.863
-917.318
-473.578
-813.582
-528.079
-697.534
-590.658
-567.052
-660.817
-419.8
-738.56
-252.891
-825.477
-62.5113
-926.792
160.461
-1060.01
423.985
-1234.67
727.232
-1451.2
1073.85
-1709.33
1454.08
-2038.78
1863.81
-2458.81
2277.27
-2932.02
2696.51
-3453.25
3084.48
-3910.95
3232.11
-4742.33
-4926.03
952.934
1168.77
760.809
1130.19
607.713
955.252
541.649
575.066
573.963
-141.485
564.563
-527.862
512.995
-663.373
546.228
-820.203
758.579
-1261.37
1108.31
-1772.25
1526.41
-2197.95
1973.06
-2504.13
2428.64
-2695.04
2880.02
-2774.89
3316.06
-2753.75
3729.02
-2658.55
4115.03
-2519.21
4472.54
-2355.83
4800.54
-2176.39
5096.21
-1972.98
5355.39
-1736.92
5572.21
-1455.12
5737.37
-1105.17
5843.04
-696.584
5883.97
-266.736
5857.1
137.799
5781.13
400.932
5678.28
489.174
5562.47
423.076
5448.39
213.778
5365
-93.7484
5341.08
-339.349
5357.32
-260.878
5329.88
317.527
5192
1131.11
4949.78
1765.38
4643.46
2090.22
4309.05
2181.16
3968.37
2148.02
3631.8
2069.23
3302.67
1988.5
2980.32
1926.91
2661.65
1893.74
2342.93
1891.83
2020.77
1920.78
1685.95
1984.06
1309.98
2120.73
857.219
2400.53
352.244
2793.76
-65.9284
3057.86
-326.761
2908.42
-542.941
2439.54
-772.882
1965.36
-989.283
1584.82
-1173.61
1276.38
-1323.05
1026.14
-1441.71
826.213
-1535.38
669.107
-1609.16
546.081
-1666.69
448.348
-1710.19
368.462
-1740.93
300.818
-1759.58
241.463
-1766.5
187.664
-1762.06
137.557
-1746.85
90.0766
-1722.01
45.0445
-1689.67
3.48771
-1652.48
-34.1161
-1612.07
-68.9469
-1568.74
-102.712
-1522.84
-136.157
-1475.22
-169.232
-1426.45
-202.007
-1376.74
-234.793
-1325.91
-268.022
-1273.44
-302.122
-1218.45
-337.479
-1159.7
-374.523
-1095.73
-413.988
-1024.94
-457.198
-945.686
-506.118
-856.342
-562.922
-755.213
-629.208
-640.409
-705.462
-509.727
-791.499
-360.596
-887.692
-189.765
-996.308
6.79155
-1123.35
235.176
-1288.39
497.45
-1496.94
790.89
-1744.64
1116.28
-2034.72
1462.79
-2385.29
1825.38
-2821.4
2187.7
-3294.33
2558.91
-3824.47
2928.06
-4280.1
3152.08
-4966.35
-5204.11
944.621
1370.8
759.942
1314.87
615.756
1099.44
544.831
645.99
495.187
-91.844
332.037
-364.715
238.082
-569.42
374.346
-956.469
689.648
-1576.67
1078.3
-2160.9
1492.9
-2612.55
1917.15
-2928.38
2344.14
-3122.03
2766.58
-3197.32
3175.6
-3162.77
3564.24
-3047.19
3928.94
-2883.92
4268.29
-2695.18
4581.3
-2489.4
4864.98
-2256.66
5114.92
-1986.86
5325.07
-1665.27
5485.72
-1265.81
5588.55
-799.424
5626.56
-304.738
5593.52
170.829
5509.35
485.11
5397.9
600.62
5272.1
548.873
5141.24
344.638
5030.39
17.1062
4976.45
-285.414
4970.63
-255.06
4931.88
356.279
4793.55
1269.44
4561.16
1997.76
4271.81
2379.57
3956.92
2496.04
3634.8
2470.14
3314.12
2389.91
2997.82
2304.8
2685.31
2239.42
2374.09
2204.96
2061.7
2204.22
1743.68
2238.79
1402.58
2325.16
1002.84
2520.47
529.568
2873.8
68.6487
3254.67
-251.375
3377.88
-457.179
3114.22
-661.642
2644
-878.311
2182.03
-1075.33
1781.83
-1237.99
1439.04
-1365.37
1153.52
-1462.68
923.518
-1536.23
742.655
-1591.03
600.884
-1630.3
487.616
-1655.86
394.022
-1668.77
313.732
-1669.84
242.532
-1659.99
177.814
-1640.58
118.142
-1613.61
63.1061
-1581.71
13.1434
-1548.06
-30.166
-1514.17
-68.0054
-1479.51
-103.6
-1443.95
-138.273
-1407.89
-172.221
-1371.38
-205.748
-1334.09
-239.294
-1295.47
-273.408
-1254.8
-308.699
-1211.16
-345.756
-1163.52
-385.119
-1110.67
-427.376
-1051.26
-473.396
-983.892
-524.571
-907.146
-582.864
-819.613
-650.456
-719.73
-729.091
-605.576
-819.617
-474.771
-922.305
-324.539
-1037.92
-151.743
-1169.1
47.2934
-1322.39
275.287
-1516.39
531.172
-1752.82
811.872
-2025.34
1117.09
-2339.94
1436.79
-2704.98
1765.74
-3150.36
2089.84
-3618.43
2417.77
-4152.4
2740.69
-4603.02
2994.16
-5219.82
-5508.26
929.46
1565.01
753.961
1490.37
619.378
1234.02
529.823
735.542
388.81
49.1653
146.578
-122.489
130.427
-553.272
366.399
-1192.44
697.347
-1907.62
1063.2
-2526.76
1443.97
-2993.32
1833.35
-3317.75
2228.08
-3516.77
2621.91
-3591.15
3005.71
-3546.58
3372.09
-3413.56
3717.4
-3229.23
4040.44
-3018.21
4340.43
-2789.4
4614.42
-2530.65
4857.87
-2230.32
5064.53
-1871.93
5224.16
-1425.45
5327.72
-902.983
5365.97
-342.982
5328.88
207.916
5237.67
576.317
5118.82
719.474
4985.63
682.064
4843.74
486.524
4712.47
148.371
4632.12
-205.062
4602.79
-225.728
4546.18
412.892
4399.09
1416.53
4169.65
2227.2
3892.99
2656.24
3595.73
2793.3
3292.01
2773.86
2988.16
2693.76
2686.11
2606.85
2385.03
2540.5
2083.16
2506.83
1778.55
2508.82
1462.13
2555.22
1106.65
2680.64
679.518
2947.6
209.912
3343.41
-176.219
3640.8
-417.659
3619.32
-600.55
3297.11
-795.535
2838.99
-989.79
2376.29
-1156.37
1948.41
-1286.19
1568.86
-1381.78
1249.11
-1450.35
992.094
-1498.83
791.132
-1531.85
633.903
-1552.01
507.778
-1560.86
402.866
-1559.66
312.534
-1549.89
232.758
-1533.38
161.303
-1512.33
97.0937
-1489.08
39.857
-1465.6
-10.335
-1442.78
-52.986
-1419.62
-91.1667
-1395.35
-127.873
-1370.08
-163.548
-1343.61
-198.688
-1315.54
-233.821
-1285.35
-269.483
-1252.47
-306.282
-1216.3
-344.871
-1176.15
-385.907
-1131.23
-430.043
-1080.58
-478.027
-1023.08
-530.892
-957.494
-590.157
-882.505
-657.853
-796.71
-736.251
-698.463
-827.337
-585.685
-932.396
-455.836
-1052.15
-306.083
-1187.68
-133.368
-1341.82
65.0834
-1520.84
289.08
-1740.38
536.658
-2000.4
804.82
-2293.51
1092.37
-2627.49
1390.17
-3002.78
1693.29
-3453.48
1989.8
-3914.93
2286.81
-4449.41
2571.08
-4887.29
2822.55
-5471.29
-5811.3
907.168
1749.59
740.598
1656.94
614.026
1360.59
505.897
843.67
321.025
234.034
89.8718
108.657
139.09
-602.493
379.69
-1433.04
681.97
-2209.9
1013.75
-2858.53
1361.19
-3340.76
1719.83
-3676.39
2087.3
-3884.24
2457.11
-3960.97
2819.22
-3908.69
3165.59
-3759.93
3492.72
-3556.36
3799.96
-3325.45
4087.19
-3076.62
4351.82
-2795.28
4589.45
-2467.94
4793.81
-2076.29
4954.17
-1585.81
5060.67
-1009.48
5101.76
-384.079
5062.89
246.786
4966.36
672.854
4841.64
844.192
4703.32
820.382
4555.31
634.537
4411.25
292.423
4309.81
-103.615
4256.06
-171.983
4175.3
493.656
4012.44
1579.39
3780.99
2458.64
3514.17
2923.06
3233.16
3074.31
2947.44
3059.58
2660.65
2980.54
2373.4
2894.1
2084.63
2829.27
1793.28
2798.17
1495.87
2806.24
1175.09
2876
796
3059.73
345.518
3398.08
-86.6247
3775.55
-389.314
3943.49
-584.755
3814.77
-756.135
3468.49
-930.77
3013.62
-1088.49
2534
-1211.75
2071.67
-1298.89
1656
-1357.31
1307.53
-1396.33
1031.11
-1422.62
817.421
-1439.6
650.886
-1448.87
517.047
-1451.55
405.545
-1448.88
309.864
-1442.27
226.145
-1433.09
152.125
-1422.47
86.4783
-1411.07
28.4534
-1399.07
-22.3365
-1385.83
-66.2217
-1370.46
-106.546
-1352.94
-145.387
-1333.25
-183.237
-1311.16
-220.78
-1286.41
-258.576
-1258.69
-297.202
-1227.68
-337.295
-1192.98
-379.563
-1154.13
-424.764
-1110.46
-473.708
-1061.15
-527.341
-1005.14
-586.901
-941.226
-654.072
-868.076
-731.002
-784.23
-820.098
-687.962
-923.605
-577.141
-1043.22
-449.225
-1180.07
-301.419
-1335.48
-130.851
-1512.39
64.2948
-1715.98
282.05
-1958.14
520.358
-2238.71
776.27
-2549.42
1047.83
-2899.05
1326.75
-3281.7
1607.79
-3734.52
1881.68
-4188.82
2154.08
-4721.81
2413.09
-5146.3
2656.43
-5714.63
-6098.05
879.289
1921.6
720.951
1815.27
599.113
1482.43
482.976
959.805
293.042
423.963
82.5074
319.185
144.053
-664.042
363.413
-1652.41
637.787
-2484.27
940.599
-3161.35
1259.65
-3659.81
1592.25
-4008.99
1936.9
-4228.9
2286.49
-4310.55
2629.62
-4251.83
2957.47
-4087.78
3266.81
-3865.7
3557.82
-3616.47
3831.35
-3350.15
4085.53
-3049.46
4316.39
-2698.81
4517.95
-2277.85
4679.02
-1746.88
4789.07
-1119.53
4834.51
-429.518
4795.62
285.673
4695.42
773.055
4566.37
973.242
4424.79
961.956
4274.27
785.065
4124.63
442.064
4009.01
12.0054
3930.47
-93.4509
3819.4
604.725
3634.89
1763.91
3398.24
2695.29
3139.83
3181.46
2874.33
3339.81
2606.21
3327.7
2336.31
3250.44
2063.88
3166.53
1787.85
3105.31
1507.28
3078.74
1213.82
3099.7
878.668
3211.15
465.875
3472.52
14.4584
3849.5
-351.559
4141.57
-588.63
4180.56
-758.887
3985.02
-910.843
3620.45
-1047.75
3150.53
-1154.73
2640.98
-1226.2
2143.15
-1269.22
1699.02
-1295.62
1333.93
-1314.77
1050.26
-1330.91
833.56
-1344.85
664.818
-1356.37
528.572
-1365.41
414.578
-1372.05
316.502
-1376.36
230.456
-1378.27
154.035
-1377.62
85.8268
-1374.25
25.0884
-1368.16
-28.4277
-1359.15
-75.2348
-1347.01
-118.684
-1331.99
-160.413
-1314.11
-201.112
-1293.34
-241.548
-1269.59
-282.328
-1242.71
-324.083
-1212.49
-367.513
-1178.65
-413.412
-1140.74
-462.672
-1098.16
-516.284
-1050.1
-575.4
-995.539
-641.466
-933.269
-716.342
-861.948
-802.324
-780.078
-901.969
-685.931
-1017.75
-577.441
-1151.71
-452.176
-1305.34
-307.488
-1480.17
-140.848
-1679.03
48.857
-1905.69
258.976
-2168.26
487.399
-2467.14
731.161
-2793.18
987.752
-3155.64
1249.8
-3543.75
1511.49
-3996.21
1765.79
-4443.12
2015.8
-4971.82
2255.44
-5385.93
2488.66
-5947.85
-6361.59
839.714
2066.23
694.204
1960.78
575.973
1600.66
450.867
1084.91
253.164
621.664
62.174
510.171
130.786
-732.656
331.463
-1853.08
580.753
-2733.56
856.745
-3437.34
1149.85
-3952.92
1459.58
-4318.72
1784.9
-4554.22
2117.44
-4643.09
2443.97
-4578.36
2754.67
-4398.48
3046.59
-4157.62
3320.9
-3890.78
3579.6
-3608.84
3821.83
-3291.69
4044.36
-2921.34
4241.7
-2475.2
4402.28
-1907.46
4515.15
-1232.4
4565.28
-479.646
4527.43
323.521
4424.96
875.529
4292.98
1105.22
4149.65
1105.29
3999.32
935.392
3850.52
590.861
3727.76
134.768
3623.98
10.3306
3476.88
751.818
3266.35
1974.44
3023.16
2938.47
2772.99
3431.64
2522.77
3590.03
2271.86
3578.61
2018.4
3503.9
1760.5
3424.43
1497.33
3368.48
1226.54
3349.52
929.316
3396.93
562.789
3577.68
119.618
3915.69
-297.748
4266.86
-591.633
4435.45
-784.705
4373.64
-929.069
4129.39
-1043.58
3734.96
-1127.04
3233.99
-1176.54
2690.48
-1199.13
2165.73
-1209.08
1708.98
-1219.02
1343.87
-1234.35
1065.59
-1254.41
853.614
-1276.44
686.853
-1298.11
550.236
-1317.79
434.263
-1334.36
333.065
-1346.97
243.073
-1355.17
162.232
-1358.89
89.5507
-1358.46
24.6509
-1354.28
-32.6074
-1346.57
-82.9469
-1335.46
-129.795
-1321.23
-174.641
-1303.99
-218.354
-1283.77
-261.768
-1260.54
-305.556
-1234.21
-350.417
-1204.59
-397.124
-1171.44
-446.569
-1134.32
-499.787
-1092.67
-557.943
-1045.68
-622.389
-992.375
-694.767
-931.598
-777.119
-862.02
-871.902
-782.146
-981.843
-690.281
-1109.62
-584.45
-1257.54
-462.375
-1427.41
-321.649
-1620.9
-160.235
-1840.44
22.6314
-2088.56
224.403
-2370.03
442.731
-2685.46
674.653
-3025.1
917.267
-3398.26
1164.12
-3790.6
1408.9
-4241
1646.27
-4680.49
1876
-5201.54
2098.15
-5608.09
2316.42
-6166.12
-6596.17
792.654
2195.26
658.415
2095.02
543.114
1715.96
406.326
1221.7
198.553
829.434
31.0479
677.671
111.745
-813.356
292.691
-2034.03
516.824
-2957.7
766.814
-3687.33
1035.99
-4222.09
1325.73
-4608.46
1634.87
-4863.36
1953.19
-4961.41
2265.26
-4890.43
2560.17
-4693.39
2835.27
-4432.72
3092.75
-4148.26
3335.82
-3851.91
3564.86
-3520.74
3777.58
-3134.06
3969.1
-2666.71
4127.35
-2065.71
4241.31
-1346.36
4295.37
-533.707
4258.79
360.095
4155.09
979.229
4021.58
1238.73
3877.98
1248.89
3729.99
1083.38
3586.99
733.858
3462.7
259.055
3332.66
140.372
3144.73
939.745
2906.04
2213.13
2656.96
3187.56
2415.84
3672.76
2180.98
3824.89
1946.83
3812.76
1709.09
3741.64
1465.27
3668.25
1215.14
3618.61
950.237
3614.42
631.427
3715.73
217.457
3991.65
-228.706
4361.85
-582.404
4620.56
-815.035
4668.08
-969.871
4528.47
-1073.6
4233.12
-1134.41
3795.77
-1158.68
3258.25
-1157
2688.81
-1146.22
2154.95
-1142.64
1705.39
-1153.89
1355.12
-1178.07
1089.77
-1209.16
884.71
-1241.86
719.549
-1272.7
581.078
-1299.59
461.144
-1321.26
354.74
-1337.17
258.983
-1347.35
172.411
-1352.29
94.4873
-1352.68
25.041
-1349.11
-36.181
-1341.88
-90.1707
-1331.23
-140.452
-1317.4
-188.47
-1300.51
-235.246
-1280.61
-281.667
-1257.69
-328.478
-1231.66
-376.439
-1202.4
-426.39
-1169.65
-479.321
-1133.03
-536.408
-1091.98
-598.986
-1045.78
-668.589
-993.505
-747.046
-934.05
-836.574
-866.141
-939.811
-788.326
-1059.66
-698.956
-1198.99
-596.141
-1360.35
-477.757
-1545.79
-341.663
-1756.99
-186.323
-1995.78
-11.0498
-2263.83
182.004
-2563.08
390.169
-2893.63
610.654
-3245.59
840.239
-3627.84
1073.26
-4023.62
1303.05
-4470.78
1525.59
-4903.04
1737.39
-5413.34
1943.54
-5814.24
2142.35
-6364.92
-6797.66
740.347
2309.81
614.267
2221.1
499.941
1830.28
350.664
1370.97
134.081
1046.02
-5.07063
816.82
89.1243
-907.552
248.894
-2193.8
448.38
-3157.18
673.661
-3912.61
921.033
-4469.46
1193.34
-4880.76
1488.78
-5158.81
1795
-5267.63
2094.27
-5189.7
2374.6
-4973.72
2633.65
-4691.78
2874.58
-4389.19
3101.86
-4079.19
3317.19
-3736.07
3519.21
-3336.08
3703.55
-2851.05
3857.48
-2219.65
3970.14
-1459.02
4026.39
-589.962
3990.44
396.042
3886.16
1083.51
3752.3
1372.59
3609.59
1391.6
3465.91
1227.06
3332.05
867.716
3208.95
382.161
3050.78
298.543
2819.03
1171.49
2553.05
2479.11
2300.66
3439.95
2070.1
3903.32
1850.74
4044.24
1632.65
4030.86
1409.71
3964.59
1180.18
3897.77
942.765
3856.03
669.88
3887.3
300.245
4085.37
-151.238
4443.13
-556.329
4766.94
-837.973
4902.2
-1016.96
4847.07
-1124.09
4635.6
-1172.64
4281.67
-1174.72
3797.85
-1147.91
3231.44
-1113.14
2654.03
-1090.67
2132.48
-1091.82
1706.55
-1115.08
1378.38
-1151.48
1126.17
-1192.27
925.505
-1231.91
759.187
-1267.37
616.538
-1297.07
490.84
-1320.31
377.981
-1337.05
275.725
-1347.72
183.073
-1353
99.7752
-1353.67
25.7086
-1350.31
-39.5448
-1343.26
-97.2167
-1332.77
-150.951
-1319.04
-202.194
-1302.19
-252.093
-1282.29
-301.573
-1259.33
-351.441
-1233.25
-402.511
-1203.96
-455.684
-1171.24
-512.04
-1134.76
-572.894
-1093.99
-639.747
-1048.28
-714.301
-996.779
-798.551
-938.466
-894.887
-872.153
-1006.13
-796.457
-1135.35
-709.807
-1285.64
-610.41
-1459.75
-496.274
-1659.93
-365.473
-1887.79
-216.759
-2144.49
-49.5017
-2431.09
134.439
-2747.02
332.357
-3091.55
541.721
-3454.95
758.982
-3845.1
979.132
-4243.77
1195.3
-4686.95
1404.46
-5112.2
1600.45
-5609.34
1791.55
-6005.33
1968.78
-6542.15
-6965.58
683.987
2410.63
564.033
2341.06
448.37
1945.94
286.97
1532.37
64.9652
1268.02
-43.244
925.025
62.9643
-1013.76
201.969
-2332.81
378.054
-3333.27
580.167
-4114.73
807.577
-4696.88
1064.19
-5137.38
1347.39
-5442
1642.69
-5562.93
1930.23
-5477.24
2197
-5240.49
2440.95
-4935.73
2666.11
-4614.35
2878.16
-4291.24
3080.1
-3938.02
3271.35
-3527.33
3447.76
-3027.46
3595.61
-2367.5
3704.32
-1567.73
3760.23
-645.874
3723.31
432.962
3618.53
1188.28
3485.32
1505.8
3344.97
1531.95
3207.89
1364.14
3085.18
990.421
2962.17
505.177
2772.08
488.631
2495.96
1447.61
2206.9
2768.17
1955.38
3691.47
1737.13
4121.57
1533.19
4248.18
1330.1
4233.95
1121.53
4173.15
907.981
4111.32
675.689
4088.32
360.475
4202.52
-72.4754
4518.32
-515.293
4885.95
-847.603
5099.25
-1059.89
5114.49
-1181.01
4968.19
-1229.31
4683.9
-1218.98
4271.34
-1171.19
3750.06
-1112.2
3172.45
-1066.73
2608.56
-1050.9
2116.64
-1066.12
1721.77
-1102.29
1414.54
-1147.34
1171.21
-1193.16
971.334
-1235.58
801.604
-1272.51
653.464
-1302.94
521.269
-1326.54
401.58
-1343.46
292.644
-1354.18
193.801
-1359.44
105.031
-1359.97
26.2398
-1356.42
-43.0939
-1349.19
-104.453
-1338.47
-161.67
-1324.46
-216.201
-1307.27
-269.287
-1286.96
-321.885
-1263.55
-374.852
-1237.01
-429.049
-1207.27
-485.427
-1174.16
-545.148
-1137.39
-609.663
-1096.51
-680.633
-1050.9
-759.902
-999.841
-849.614
-942.42
-952.308
-877.565
-1070.98
-804.01
-1208.91
-720.297
-1369.35
-624.746
-1555.3
-515.489
-1769.19
-390.718
-2012.57
-249.138
-2286.07
-90.3613
-2589.86
83.9432
-2921.33
271.51
-3279.11
469.964
-3653.4
675.414
-4050.55
883.398
-4451.75
1086.93
-4890.48
1283.63
-5308.9
1465.48
-5791.19
1641.79
-6181.65
1797.4
-6697.77
-7102.64
625.899
2497.57
510.596
2456.36
391.16
2065.38
217.198
1706.33
0.125494
1485.09
-75.1038
1000.25
34.14
-1123.01
154.057
-2452.72
308.265
-3487.48
488.69
-4295.15
697.388
-4905.57
939.054
-5379.05
1210.36
-5713.31
1495.11
-5847.68
1771.54
-5753.67
2025.66
-5494.61
2255.62
-5165.69
2466.23
-4824.95
2664.24
-4489.25
2853.87
-4127.65
3035.02
-3708.48
3203.44
-3195.88
3344.02
-2508.08
3446.28
-1669.99
3498.78
-698.374
3458.42
473.33
3352.79
1293.91
3221.11
1637.47
3084.51
1668.55
2956.07
1492.58
2845.51
1100.98
2718.69
631.993
2491.29
716.028
2172.92
1765.98
1867.95
3073.14
1622.33
3937.09
1417.9
4326
1228.78
4437.3
1039.66
4423.07
847.465
4365.34
648.819
4309.97
390.54
4346.6
-1.70267
4594.76
-463.453
4980.07
-844.022
5266.51
-1093.75
5348.98
-1235.95
5256.68
-1292.5
5024.74
-1280.27
4671.67
-1220.47
4211.54
-1141.46
3671.05
-1072.31
3103.3
-1034.27
2570.51
-1033.92
2116.3
-1063.02
1750.87
-1107.48
1459
-1156.39
1220.12
-1203.85
1018.8
-1246.98
844.73
-1284.22
690.703
-1314.75
551.8
-1338.29
425.119
-1354.98
309.334
-1365.31
204.134
-1370.04
109.758
-1369.94
26.1444
-1365.77
-47.2641
-1357.94
-112.285
-1346.6
-173.016
-1331.9
-230.902
-1313.93
-287.254
-1292.77
-343.05
-1268.43
-399.189
-1240.91
-456.566
-1210.17
-516.171
-1176.09
-579.23
-1138.43
-647.324
-1096.8
-722.259
-1050.71
-805.991
-999.555
-900.77
-942.603
-1009.26
-878.957
-1134.63
-807.516
-1280.35
-726.98
-1449.89
-635.797
-1646.48
-532.199
-1872.79
-414.397
-2130.37
-280.952
-2419.52
-131.522
-2739.29
32.7161
-3085.57
209.797
-3456.19
397.335
-3840.94
591.302
-4244.52
787.614
-4648.07
979.2
-5082.07
1164.02
-5493.72
1332.94
-5960.1
1494.54
-6343.24
1629.97
-6833.2
-7213.21
562.053
2556.05
455.759
2562.65
330.795
2190.34
144.158
1892.97
-50.6688
1679.92
-92.4937
1042.07
4.17166
-1219.68
106.952
-2555.51
240.812
-3621.34
400.854
-4455.2
591.46
-5096.18
818.013
-5605.6
1076.94
-5972.23
1350.92
-6121.67
1616.58
-6019.33
1858.94
-5736.97
2076.22
-5382.97
2273.77
-5022.51
2459.23
-4674.71
2637.88
-4306.29
2809.95
-3880.55
2970.88
-3356.81
3103.81
-2641.01
3197.77
-1763.95
3243.73
-744.333
3196.85
520.209
3089.55
1401.21
2959.87
1767.16
2828.29
1800.12
2710.51
1610.37
2611.67
1199.82
2474.06
769.604
2203.86
986.224
1848.95
2120.9
1537.47
3384.62
1302.72
4171.84
1112.91
4515.8
937.44
4612.77
763.329
4597.18
590.835
4537.84
384.696
4516.11
49.8932
4681.4
-407.218
5051.87
-829.434
5402.29
-1118.78
5555.86
-1285.43
5515.63
-1355.55
5326.8
-1348.46
5017.65
-1285.79
4609
-1194.66
4120.41
-1105.47
3581.86
-1043.78
3041.61
-1022.1
2548.84
-1037.01
2131.21
-1075.07
1788.93
-1123.11
1507.04
-1173.05
1270.07
-1220.77
1066.51
-1263.9
887.867
-1301
727.8
-1331.21
582.006
-1354.2
448.111
-1370.12
325.254
-1379.5
213.516
-1383.18
113.431
-1381.99
24.953
-1376.78
-52.4741
-1367.93
-121.134
-1355.51
-185.439
-1339.62
-246.79
-1320.33
-306.542
-1297.69
-365.689
-1271.72
-425.157
-1242.43
-485.863
-1209.79
-548.813
-1173.75
-615.264
-1134.16
-686.914
-1090.74
-765.682
-1043.15
-853.58
-991.01
-952.913
-933.844
-1066.43
-871.022
-1197.45
-801.682
-1349.69
-724.725
-1526.84
-638.729
-1732.48
-541.956
-1969.56
-432.53
-2239.79
-308.78
-2543.27
-169.981
-2878.09
-16.6072
-3238.94
149.363
-3622.17
325.633
-4017.21
508.189
-4427.08
693.082
-4832.96
873.148
-5262.14
1046.43
-5667
1203.23
-6116.9
1350.33
-6490.35
1467.89
-6950.76
-7302.13
495.85
2605.56
398.96
2659.54
268.246
2321.06
71.5787
2089.63
-91.0238
1842.52
-102.982
1054.03
-25.6111
-1297.05
61.8786
-2643
176.913
-3736.37
317.704
-4595.99
490.349
-5268.83
700.994
-5816.24
946.46
-6217.69
1209.1
-6384.3
1464.24
-6274.48
1695.81
-5968.54
1901.87
-5589.03
2087.99
-5208.63
2262.22
-4848.94
2430.79
-4474.86
2594.52
-4044.28
2748.69
-3510.98
2874.43
-2766.75
2959.27
-1848.79
2996.03
-781.096
2939.35
576.893
2829.2
1511.35
2701.87
1894.49
2577.06
1924.92
2472.21
1715.22
2382.77
1289.26
2224.22
928.152
1907.04
1303.4
1525.05
2502.88
1217.41
3692.26
997.52
4391.73
821.975
4691.35
659.886
4774.86
505.693
4751.37
341.328
4702.2
71.3167
4786.12
-356.307
5109.02
-807.077
5502.64
-1136.94
5732.15
-1330.04
5748.95
-1416.03
5601.62
-1418.19
5328.96
-1358.52
4957.98
-1263.11
4513.6
-1160.68
4017.98
-1078.2
3499.38
-1033.14
2996.55
-1028.21
2543.91
-1053.69
2156.68
-1096
1831.25
-1145.03
1556.07
-1194.97
1320.01
-1242.42
1113.96
-1285.14
930.583
-1321.62
764.283
-1350.98
611.362
-1372.87
469.998
-1387.45
339.835
-1395.33
221.394
-1397.42
115.523
-1394.63
22.1666
-1387.89
-59.2168
-1377.47
-131.553
-1363.33
-199.579
-1345.51
-264.615
-1324.01
-328.042
-1298.84
-390.857
-1270
-453.998
-1237.49
-518.378
-1201.32
-584.976
-1161.56
-655.022
-1118.19
-730.285
-1071.13
-812.745
-1020.33
-904.381
-965.769
-1007.47
-907.39
-1124.81
-844.955
-1259.89
-777.926
-1416.72
-705.435
-1599.34
-626.142
-1811.77
-538.212
-2057.49
-439.488
-2338.52
-327.84
-2654.92
-201.813
-3004.12
-61.1103
-3379.64
92.4433
-3775.72
256.697
-4181.47
427.554
-4597.93
601.001
-5006.41
769.723
-5430.86
931.591
-5828.87
1076.75
-6262.06
1209.81
-6623.4
1311.99
-7052.94
-7373.77
428.419
2647.68
339.643
2748.32
202.267
2458.43
2.40229
2289.5
-126.103
1971.02
-115.33
1043.25
-54.529
-1357.85
19.4797
-2717.01
117.317
-3834.21
239.879
-4718.55
394.439
-5423.39
588.059
-6009.86
818.674
-6448.31
1069.17
-6634.8
1313.99
-6519.31
1535.83
-6190.38
1732.37
-5785.58
1908.72
-5384.97
2072.49
-5012.71
2230.77
-4633.14
2385.83
-4199.34
2533.68
-3658.83
2653.44
-2886.51
2729.58
-1924.94
2755.51
-807.021
2686.13
646.273
2572.16
1625.32
2447.97
2018.68
2332.32
2040.57
2242.32
1805.22
2156.8
1374.78
1964.89
1120.06
1600.14
1668.15
1204.05
2898.98
909.967
3986.34
707.056
4594.64
544.796
4853.61
400.145
4919.51
263.844
4887.67
55.7284
4910.32
-321.548
5163.39
-781.705
5569.18
-1149.93
5870.87
-1371.71
5953.93
-1474.41
5851.65
-1487.51
5614.72
-1434.11
5275.56
-1339.37
4863.23
-1230.43
4404.65
-1132.94
3920.49
-1066.54
3432.98
-1039.37