/*--------------------------------*- C++ -*----------------------------------*\
| =========                 |                                                 |
| \\      /  F ield         | OpenFOAM: The Open Source CFD Toolbox           |
|  \\    /   O peration     | Version:  4.1                                   |
|   \\  /    A nd           | Web:      www.OpenFOAM.org                      |
|    \\/     M anipulation  |                                                 |
\*---------------------------------------------------------------------------*/
FoamFile
{
    version     2.0;
    format      ascii;
    class       volVectorField;
    location    "1900";
    object      U;
}
// * * * * * * * * * * * * * * * * * * * * * * * * * * * * * * * * * * * * * //

dimensions      [0 1 -1 0 0 0 0];

internalField   nonuniform List<vector> 
26785
(
(-6.25672e-17 0.0815264 8.52565)
(-2.21629e-16 0.0779019 6.64744)
(6.58388e-16 0.0659101 5.04072)
(-5.22827e-15 0.0462983 3.82545)
(-2.51398e-15 0.012185 3.17504)
(-1.31832e-14 -0.00782663 3.21384)
(-1.19518e-14 -0.0252054 3.68828)
(-1.06374e-14 -0.0400223 4.4257)
(-2.31223e-15 -0.0614569 5.46273)
(-6.11406e-15 -0.0847806 6.86148)
(-5.8039e-15 -0.105538 8.57435)
(-4.73447e-15 -0.121913 10.5155)
(-3.80665e-15 -0.133037 12.6)
(-3.12974e-15 -0.138136 14.7383)
(-2.71829e-15 -0.137197 16.8371)
(-2.41983e-15 -0.131592 18.8184)
(-2.28512e-15 -0.123011 20.633)
(-2.11175e-15 -0.112649 22.2589)
(-2.48905e-15 -0.100996 23.6892)
(-9.82054e-16 -0.0875226 24.9159)
(-2.12376e-16 -0.0715602 25.9231)
(-6.40687e-16 -0.0519669 26.6868)
(1.53961e-15 -0.0270002 27.1632)
(1.16021e-15 0.00238954 27.3021)
(3.1686e-15 0.0316641 27.0868)
(3.88279e-15 0.0558131 26.5551)
(4.35051e-15 0.0690012 25.8098)
(4.29242e-15 0.0677642 25.0065)
(5.37941e-15 0.0514256 24.3154)
(5.30868e-15 0.0249924 23.8872)
(6.00236e-15 0.00173758 23.7704)
(4.87765e-15 -0.00233541 23.8368)
(5.21731e-15 0.0202962 23.8078)
(4.72049e-15 0.063014 23.3909)
(6.84306e-15 0.105854 22.4666)
(6.86816e-15 0.133368 21.1632)
(6.97913e-15 0.144583 19.6964)
(7.1785e-15 0.145297 18.2226)
(7.45222e-15 0.141097 16.8164)
(7.30516e-15 0.135561 15.4999)
(8.33282e-15 0.130576 14.268)
(8.0861e-15 0.126991 13.1049)
(8.60354e-15 0.12508 11.9913)
(6.73922e-15 0.124826 10.909)
(6.41249e-15 0.126278 9.84215)
(2.90711e-15 0.129307 8.7721)
(9.22603e-16 0.133928 7.68855)
(-8.23201e-16 0.142284 6.58355)
(-2.88026e-15 0.157006 5.38202)
(-1.07668e-14 0.182194 4.06848)
(1.43075e-14 0.21459 2.64525)
(-2.48198e-15 0.224368 0.565398)
(-3.92143e-15 0.179678 -1.15443)
(-2.20594e-15 0.117616 -2.15045)
(-3.89091e-16 0.0838601 -2.85392)
(1.28247e-15 0.0631138 -3.36957)
(7.79524e-16 0.048678 -3.75798)
(6.40462e-15 0.0380147 -4.05463)
(5.8468e-15 0.02992 -4.28297)
(6.21394e-15 0.0236679 -4.45955)
(7.33821e-15 0.0187751 -4.59636)
(5.10399e-15 0.0149136 -4.70227)
(3.74028e-15 0.0118481 -4.78394)
(2.71614e-15 0.00938512 -4.84634)
(4.48856e-15 0.00734439 -4.89303)
(2.57232e-15 0.00556098 -4.92637)
(1.58947e-15 0.00390419 -4.94786)
(3.26547e-16 0.00228236 -4.95838)
(-9.93339e-16 0.000625169 -4.95838)
(-2.02982e-15 -0.0011057 -4.94805)
(-1.97189e-15 -0.00289331 -4.92748)
(9.15727e-16 -0.00467081 -4.89686)
(6.8056e-16 -0.00636519 -4.85653)
(1.48085e-15 -0.00796902 -4.80679)
(1.6547e-15 -0.00960144 -4.74762)
(3.97831e-16 -0.0114957 -4.67853)
(-3.95515e-15 -0.0137949 -4.59836)
(-4.75794e-15 -0.0163544 -4.50597)
(-5.78965e-15 -0.01884 -4.40064)
(-6.05516e-15 -0.0210117 -4.28187)
(-5.77541e-15 -0.0230013 -4.14891)
(-4.7995e-15 -0.025342 -4.00049)
(-1.86854e-15 -0.0286058 -3.83512)
(-3.58185e-15 -0.0329205 -3.65135)
(-4.00934e-15 -0.0378376 -3.44742)
(-9.81148e-16 -0.0427377 -3.22025)
(-9.472e-16 -0.0475237 -2.96531)
(1.13697e-15 -0.0530813 -2.67758)
(1.9992e-15 -0.0607027 -2.35255)
(4.20122e-15 -0.0701119 -1.98831)
(1.16089e-16 -0.0778125 -1.58537)
(-5.24166e-15 -0.0805864 -1.13332)
(-1.23569e-14 -0.0768966 -0.637738)
(-1.87865e-14 -0.0963852 -0.0549111)
(-1.24193e-14 -0.23621 0.683712)
(-6.76362e-15 -0.52049 2.18932)
(-2.56296e-15 -0.784648 4.37981)
(2.06797e-15 -1.01024 7.58882)
(4.97697e-15 -1.17091 10.9263)
(8.89385e-15 -0.797102 16.7452)
(2.06409e-16 0.228839 8.58713)
(-2.38064e-15 0.224701 6.66912)
(-2.16095e-15 0.193316 5.05705)
(-4.39418e-15 0.139227 3.82664)
(6.76761e-15 0.0384107 3.13264)
(-7.12736e-15 -0.0351807 3.34752)
(3.57689e-15 -0.103655 4.15835)
(7.09373e-15 -0.155684 5.22305)
(1.22124e-15 -0.218188 6.5124)
(5.37308e-16 -0.281334 8.06866)
(1.07651e-15 -0.336149 9.86941)
(1.42439e-15 -0.379063 11.8605)
(1.38796e-15 -0.40748 13.9728)
(1.26138e-15 -0.418629 16.1204)
(7.03843e-16 -0.41218 18.2104)
(9.67891e-16 -0.392062 20.1657)
(3.75407e-16 -0.363342 21.9391)
(1.57161e-16 -0.329698 23.5113)
(5.07894e-16 -0.292655 24.8783)
(-9.88371e-16 -0.25078 26.0355)
(2.44694e-16 -0.202188 26.971)
(-3.38347e-15 -0.143669 27.666)
(-1.89856e-15 -0.0706869 28.0841)
(-1.16712e-15 0.0140742 28.1856)
(-1.22467e-15 0.0991532 27.9578)
(1.21449e-15 0.170041 27.4177)
(1.81548e-15 0.207447 26.6681)
(1.74888e-15 0.202466 25.8684)
(8.42268e-16 0.155317 25.1654)
(1.00051e-15 0.078449 24.6761)
(1.16404e-15 0.00861839 24.464)
(5.6728e-16 -0.00376215 24.4538)
(1.08896e-16 0.0709486 24.3936)
(-2.04965e-16 0.214828 23.9306)
(1.49539e-15 0.357464 22.9063)
(2.6228e-15 0.4453 21.4621)
(3.56218e-15 0.476186 19.8456)
(4.3994e-15 0.471398 18.2358)
(5.08028e-15 0.450923 16.7165)
(5.63561e-15 0.427173 15.3104)
(5.68483e-15 0.406386 14.0097)
(6.90254e-15 0.391127 12.7949)
(7.06502e-15 0.38204 11.6433)
(9.08852e-15 0.378883 10.5341)
(9.07058e-15 0.381603 9.44816)
(8.9457e-15 0.3896 8.36484)
(4.87973e-15 0.403231 7.2727)
(2.45757e-15 0.429033 6.15909)
(-9.20469e-15 0.475257 4.94525)
(-4.01744e-15 0.562585 3.59913)
(-2.00764e-15 0.668499 2.05218)
(-7.85376e-15 0.655992 0.0854171)
(-6.09476e-15 0.487937 -1.23367)
(-4.76033e-15 0.332371 -2.07927)
(6.02728e-15 0.241567 -2.7139)
(1.67288e-15 0.182834 -3.19253)
(3.53048e-15 0.140903 -3.55724)
(1.02791e-14 0.10954 -3.83665)
(9.00327e-15 0.0856029 -4.05141)
(2.47241e-15 0.0670931 -4.21675)
(3.15657e-15 0.0526117 -4.34389)
(2.70724e-15 0.0411494 -4.44104)
(4.71249e-15 0.031945 -4.51416)
(1.27408e-15 0.0243837 -4.56748)
(-4.11199e-15 0.0179513 -4.60388)
(-5.79827e-15 0.0122423 -4.62524)
(-8.31076e-15 0.00697886 -4.63287)
(-1.00824e-14 0.00197778 -4.62776)
(-1.06336e-14 -0.00293562 -4.61067)
(-5.73437e-15 -0.00789323 -4.58215)
(-6.72169e-15 -0.0129012 -4.54258)
(-6.06459e-15 -0.0178494 -4.49227)
(-4.12724e-15 -0.0226316 -4.43142)
(-5.41022e-15 -0.0273285 -4.35982)
(-5.8753e-15 -0.0322726 -4.27638)
(-7.95001e-15 -0.0379127 -4.17963)
(-4.80896e-15 -0.0445434 -4.0688)
(-5.65444e-15 -0.0520548 -3.94345)
(-5.40457e-15 -0.0599654 -3.80308)
(-2.81623e-15 -0.0678204 -3.64692)
(-2.44354e-15 -0.0757489 -3.47368)
(1.62227e-16 -0.084694 -3.28198)
(1.78915e-15 -0.0959142 -3.07092)
(3.87888e-17 -0.109975 -2.8403)
(-4.44507e-15 -0.126027 -2.58982)
(-3.10775e-15 -0.14214 -2.31797)
(2.55933e-15 -0.156951 -2.02203)
(5.71291e-15 -0.172 -1.69944)
(3.51742e-15 -0.192735 -1.34887)
(2.65753e-15 -0.225329 -0.969655)
(1.28372e-14 -0.268417 -0.559774)
(4.08394e-15 -0.313239 -0.100373)
(-1.08998e-14 -0.303499 0.324705)
(-2.28661e-14 -0.370505 1.02786)
(-1.22999e-14 -0.582467 1.83353)
(-1.27337e-15 -0.957443 2.75284)
(8.10625e-16 -1.37111 3.55684)
(3.12753e-15 -1.86275 4.97319)
(3.85577e-15 -2.5951 5.87237)
(7.34124e-15 -2.12391 9.99302)
(-7.10667e-16 0.38981 8.65103)
(1.31491e-15 0.37991 6.67624)
(-3.27197e-15 0.32458 5.05929)
(-2.19046e-15 0.231222 3.82475)
(5.36373e-15 0.0491742 3.23603)
(3.20423e-15 -0.0999315 3.82665)
(1.10049e-14 -0.217491 4.92378)
(8.60336e-15 -0.291238 6.05865)
(5.82339e-15 -0.379153 7.24846)
(4.04648e-15 -0.472734 8.63063)
(2.13046e-15 -0.558661 10.2728)
(4.98411e-16 -0.62848 12.154)
(-4.79333e-16 -0.674999 14.1949)
(-6.03333e-16 -0.692328 16.2897)
(-6.98861e-16 -0.679888 18.3315)
(-4.36817e-16 -0.644524 20.2365)
(-1.24725e-15 -0.594978 21.9555)
(-2.47145e-16 -0.537585 23.4695)
(-1.40754e-15 -0.475009 24.7765)
(-6.51511e-16 -0.405018 25.8739)
(7.26247e-17 -0.324736 26.7533)
(-4.11268e-15 -0.229228 27.4015)
(-5.07381e-15 -0.111443 27.789)
(-2.84245e-15 0.0246179 27.8835)
(-2.70171e-15 0.162536 27.6768)
(-1.15367e-15 0.27949 27.178)
(1.10597e-15 0.34253 26.4649)
(1.32458e-15 0.339157 25.668)
(9.75878e-16 0.272034 24.9042)
(2.49067e-16 0.156226 24.2713)
(-1.78695e-16 0.0412602 23.8582)
(-2.20535e-15 0.00706803 23.6748)
(-1.41505e-15 0.116198 23.5795)
(-1.09815e-17 0.356034 23.2403)
(8.19331e-16 0.60559 22.3741)
(1.31988e-15 0.763051 21.0325)
(2.03013e-15 0.819304 19.4525)
(2.74931e-15 0.810769 17.8346)
(3.39474e-15 0.773325 16.2848)
(4.02264e-15 0.729529 14.8406)
(4.39199e-15 0.690714 13.5025)
(4.77916e-15 0.661519 12.2551)
(4.85152e-15 0.643123 11.0774)
(5.43249e-15 0.635225 9.94901)
(5.83317e-15 0.637787 8.84956)
(7.77049e-15 0.649588 7.75763)
(8.4797e-15 0.671525 6.66301)
(4.87633e-15 0.715517 5.54565)
(-8.91478e-15 0.799258 4.30569)
(-6.39291e-15 0.958471 2.87299)
(-9.48759e-15 1.11476 1.22157)
(-9.26698e-15 1.02632 -0.340059)
(-4.41779e-15 0.74223 -1.29211)
(4.10822e-15 0.523335 -2.02279)
(9.40196e-15 0.389003 -2.60919)
(1.11489e-14 0.297571 -3.06825)
(1.93546e-14 0.230495 -3.42469)
(2.03315e-14 0.179675 -3.70071)
(1.77768e-14 0.140638 -3.91443)
(1.8084e-14 0.11032 -4.07979)
(1.46031e-14 0.0864564 -4.20706)
(1.61382e-14 0.0673639 -4.30364)
(1.62854e-14 0.0517619 -4.3748)
(1.6439e-14 0.0386398 -4.42432)
(1.60528e-14 0.0271892 -4.45491)
(1.6847e-14 0.0168072 -4.46851)
(1.32592e-14 0.00711521 -4.46657)
(8.70073e-15 -0.00210883 -4.45023)
(8.81827e-15 -0.0111046 -4.42026)
(8.51237e-15 -0.02009 -4.37699)
(8.90581e-15 -0.0291285 -4.32042)
(9.47687e-15 -0.03815 -4.25039)
(9.05385e-15 -0.0471676 -4.16661)
(4.61632e-15 -0.0565115 -4.06794)
(5.36558e-16 -0.0667051 -3.95337)
(-1.53989e-15 -0.0781582 -3.82269)
(-5.1995e-15 -0.0910165 -3.67631)
(-8.57452e-15 -0.105011 -3.51514)
(-1.11663e-14 -0.119454 -3.34025)
(-1.20813e-14 -0.133708 -3.15241)
(-1.16605e-14 -0.14789 -2.95184)
(-9.90781e-15 -0.163212 -2.73829)
(-6.167e-15 -0.181414 -2.51148)
(2.29329e-15 -0.203504 -2.27123)
(4.33673e-15 -0.228737 -2.01707)
(4.17325e-15 -0.25477 -1.74753)
(2.57839e-15 -0.279113 -1.46019)
(9.55652e-17 -0.301283 -1.15267)
(-2.62169e-15 -0.325243 -0.822765)
(-5.68467e-15 -0.361607 -0.464797)
(1.70173e-14 -0.416565 -0.0723985)
(6.9266e-15 -0.488536 0.37403)
(-1.25206e-14 -0.56607 0.931107)
(-1.26905e-14 -0.693748 1.68187)
(-6.94738e-15 -0.900151 2.49403)
(1.4555e-15 -1.22836 3.42042)
(2.97673e-15 -1.62377 4.06386)
(3.86323e-15 -2.10312 5.01266)
(1.51301e-15 -3.12977 4.95851)
(3.5028e-15 -2.91984 6.71439)
(-1.16582e-15 0.5607 8.70872)
(1.19067e-15 0.540527 6.67817)
(1.84821e-15 0.457415 5.05833)
(6.82178e-15 0.314211 3.8341)
(8.34349e-15 0.0318861 3.45582)
(1.18358e-14 -0.192154 4.30193)
(1.10102e-14 -0.333977 5.33802)
(4.33378e-15 -0.408143 6.15703)
(2.95007e-15 -0.512104 6.93585)
(-3.66071e-17 -0.640109 8.01527)
(-3.35003e-15 -0.768319 9.53588)
(-3.47648e-15 -0.874953 11.4155)
(-2.85499e-15 -0.945034 13.496)
(-1.23597e-15 -0.970418 15.6263)
(-9.4462e-16 -0.951969 17.6838)
(-9.36275e-16 -0.900638 19.5837)
(-5.79191e-16 -0.829461 21.2817)
(-2.13269e-15 -0.747692 22.7645)
(-3.07306e-16 -0.65926 24.0348)
(2.68759e-16 -0.561225 25.094)
(6.29707e-16 -0.449963 25.9369)
(-1.78016e-15 -0.319156 26.5543)
(-2.35525e-15 -0.159335 26.922)
(-2.50982e-15 0.024194 27.0127)
(-2.68891e-15 0.211016 26.8226)
(-2.98807e-15 0.373038 26.3517)
(-3.25783e-15 0.465646 25.6597)
(-3.43007e-15 0.473133 24.8603)
(-3.54053e-15 0.399629 24.0504)
(-3.22728e-15 0.258673 23.3069)
(-3.62518e-15 0.102173 22.7306)
(-6.08814e-15 0.0296679 22.3912)
(-6.82765e-15 0.139512 22.2311)
(-6.10679e-15 0.448788 21.9688)
(-3.5913e-15 0.803047 21.2627)
(-2.66719e-15 1.04284 20.0789)
(-3.32636e-16 1.13923 18.6155)
(1.08901e-15 1.13812 17.0702)
(2.08435e-15 1.09061 15.5595)
(2.57262e-15 1.03042 14.1322)
(2.86763e-15 0.975088 12.7983)
(4.15032e-15 0.932142 11.5491)
(4.87324e-15 0.903894 10.3682)
(3.15647e-15 0.890504 9.23711)
(2.49011e-15 0.892091 8.13598)
(4.00337e-15 0.90652 7.04612)
(1.11084e-14 0.936414 5.95878)
(1.09351e-14 1.00366 4.83216)
(-7.5409e-15 1.1388 3.53028)
(-1.36083e-14 1.3597 1.99772)
(-1.54983e-14 1.49811 0.433519)
(-5.81261e-15 1.29456 -0.64525)
(1.36175e-14 0.946293 -1.38287)
(1.62836e-14 0.695572 -2.04846)
(1.6588e-14 0.529154 -2.6081)
(2.1754e-14 0.409178 -3.05605)
(2.36251e-14 0.318458 -3.40638)
(2.74415e-14 0.24875 -3.67771)
(2.23657e-14 0.19481 -3.88706)
(2.20827e-14 0.152636 -4.04785)
(1.72701e-14 0.119121 -4.16988)
(1.73484e-14 0.0919327 -4.26001)
(1.28409e-14 0.0693478 -4.323)
(1.26088e-14 0.0500643 -4.36219)
(1.17995e-14 0.0330729 -4.37999)
(9.74972e-15 0.0176204 -4.37806)
(5.58545e-15 0.00321331 -4.35764)
(9.22693e-15 -0.0104719 -4.31973)
(1.01303e-14 -0.0238574 -4.26512)
(8.5132e-15 -0.0373641 -4.1944)
(7.97401e-15 -0.0511449 -4.10824)
(6.24498e-15 -0.0651609 -4.00748)
(8.94754e-15 -0.0795387 -3.89199)
(7.69508e-15 -0.0945759 -3.76131)
(1.2857e-14 -0.110471 -3.61629)
(1.5359e-14 -0.127377 -3.45854)
(9.77608e-15 -0.14532 -3.2901)
(6.12763e-15 -0.163981 -3.11312)
(-3.87426e-15 -0.1827 -2.92934)
(-9.38694e-15 -0.200896 -2.73963)
(-1.6081e-14 -0.218742 -2.54379)
(-2.02532e-14 -0.237559 -2.34078)
(-2.14908e-14 -0.25937 -2.12901)
(-1.88851e-14 -0.2857 -1.90656)
(-5.21594e-15 -0.316536 -1.67094)
(2.40692e-15 -0.350357 -1.41876)
(7.39982e-15 -0.385193 -1.14601)
(5.18695e-15 -0.420041 -0.849522)
(8.15674e-15 -0.45754 -0.526531)
(5.45683e-15 -0.509923 -0.16288)
(1.63618e-14 -0.586455 0.247528)
(3.58942e-15 -0.696037 0.747228)
(-1.02157e-14 -0.824553 1.32748)
(-1.13253e-14 -1.01216 2.03588)
(-5.23058e-15 -1.26583 2.77598)
(4.47244e-15 -1.58165 3.64512)
(6.33789e-15 -1.93557 4.29151)
(4.9747e-15 -2.29513 5.20432)
(5.82703e-16 -3.17574 5.21643)
(1.32158e-15 -3.18354 5.76558)
(-1.80779e-15 0.728433 8.74813)
(1.13486e-15 0.698858 6.67769)
(2.3294e-15 0.588835 5.06608)
(9.46349e-15 0.385078 3.87809)
(1.17806e-14 -0.00438302 3.71028)
(-3.94245e-16 -0.279782 4.47985)
(4.97634e-15 -0.417958 4.98569)
(5.52481e-15 -0.479987 5.12292)
(6.59916e-16 -0.612618 5.49032)
(-6.94711e-15 -0.804799 6.60067)
(-8.41598e-15 -0.996675 8.36755)
(-3.30762e-15 -1.14563 10.4843)
(-1.71531e-15 -1.23558 12.7159)
(-5.92828e-16 -1.2627 14.9151)
(-7.2798e-16 -1.23244 16.9834)
(-4.54086e-16 -1.16083 18.8589)
(-2.26734e-16 -1.06524 20.5141)
(3.04824e-16 -0.957521 21.9471)
(6.64673e-16 -0.842543 23.1675)
(4.56946e-16 -0.716367 24.1801)
(-1.54097e-16 -0.574567 24.9816)
(-2.7705e-15 -0.409498 25.5655)
(-3.31636e-15 -0.209304 25.909)
(-3.75234e-15 0.0194573 25.9876)
(-3.47144e-15 0.253423 25.8007)
(-3.66359e-15 0.460546 25.3379)
(-7.98931e-16 0.584264 24.6481)
(-1.6041e-15 0.606353 23.841)
(-1.26741e-15 0.533354 23.0032)
(-1.84801e-15 0.376375 22.1898)
(-2.88192e-15 0.183043 21.4915)
(-3.63761e-15 0.0676379 21.0214)
(-3.99581e-15 0.163307 20.7829)
(-5.71335e-15 0.522012 20.536)
(-4.62641e-15 0.9687 19.9233)
(-3.83089e-15 1.28924 18.8627)
(-2.13386e-15 1.43053 17.5176)
(-6.41995e-16 1.44344 16.0694)
(6.52918e-16 1.39188 14.6307)
(1.71907e-15 1.31989 13.2537)
(2.10808e-15 1.25116 11.954)
(3.13831e-15 1.19634 10.7282)
(2.67838e-15 1.15929 9.56408)
(2.363e-15 1.14099 8.44547)
(1.1008e-15 1.14144 7.35498)
(2.05959e-15 1.1579 6.27925)
(7.63245e-15 1.19868 5.20158)
(9.22355e-15 1.30072 4.04066)
(-8.74321e-15 1.49534 2.64838)
(-2.01692e-14 1.73783 1.09186)
(-1.45965e-14 1.78796 -0.161413)
(3.91839e-16 1.48719 -0.900307)
(2.12094e-14 1.12162 -1.54508)
(1.99492e-14 0.855647 -2.17263)
(2.04132e-14 0.663038 -2.70849)
(2.02678e-14 0.516463 -3.13787)
(1.32317e-14 0.402719 -3.4709)
(1.12191e-14 0.314388 -3.72533)
(7.00918e-15 0.245709 -3.91812)
(1.05885e-14 0.19176 -4.06253)
(6.23686e-15 0.148555 -4.16793)
(9.00469e-15 0.113081 -4.24055)
(7.57417e-18 0.0831428 -4.28446)
(-3.28063e-15 0.0571209 -4.3023)
(-7.10556e-15 0.0337824 -4.29583)
(-9.54301e-15 0.0122177 -4.26625)
(-5.99993e-15 -0.00815451 -4.21465)
(-9.06955e-15 -0.0276558 -4.14258)
(-7.10948e-15 -0.0466794 -4.05217)
(-7.2373e-15 -0.0655184 -3.94637)
(-2.0885e-15 -0.0842081 -3.82837)
(-3.52436e-16 -0.102949 -3.69976)
(1.81788e-15 -0.122074 -3.56089)
(5.32628e-16 -0.14157 -3.41367)
(7.62842e-15 -0.161348 -3.26042)
(1.45881e-14 -0.181452 -3.1031)
(2.21829e-14 -0.201918 -2.94327)
(2.65311e-14 -0.222599 -2.78174)
(2.27289e-14 -0.243205 -2.61827)
(2.0829e-14 -0.263627 -2.4515)
(7.88029e-15 -0.284424 -2.27914)
(-3.52141e-15 -0.307074 -2.09847)
(-9.3557e-15 -0.333535 -1.90669)
(-2.42693e-14 -0.36524 -1.70103)
(-2.3842e-14 -0.40233 -1.47843)
(-8.2382e-15 -0.443913 -1.2349)
(1.64581e-15 -0.489069 -0.965625)
(4.64209e-15 -0.537662 -0.667017)
(1.04703e-14 -0.592785 -0.336779)
(1.37521e-14 -0.668121 0.0420145)
(9.90326e-15 -0.774466 0.482413)
(3.20991e-15 -0.908614 0.993128)
(-9.40763e-15 -1.06918 1.55553)
(-8.99265e-15 -1.28349 2.20659)
(-1.13008e-15 -1.56456 2.8571)
(6.21327e-15 -1.88864 3.61532)
(6.99925e-15 -2.2488 4.20744)
(3.59165e-15 -2.5673 5.07162)
(6.16617e-16 -3.23739 5.29379)
(1.44302e-15 -3.3429 5.67915)
(-2.48243e-15 0.916795 8.72499)
(1.13514e-15 0.860998 6.66356)
(2.18269e-15 0.717878 5.09027)
(7.43746e-15 0.447022 3.96344)
(9.52604e-15 -0.0362286 3.87432)
(1.83381e-15 -0.318384 4.08504)
(2.13034e-15 -0.433415 3.5541)
(-5.36551e-16 -0.509011 3.12418)
(-8.81724e-15 -0.732972 3.81256)
(-1.42955e-14 -1.02219 5.53235)
(-7.38051e-15 -1.27034 7.71238)
(-2.8979e-15 -1.44185 10.0042)
(-1.76406e-15 -1.53527 12.2598)
(-2.10688e-15 -1.55414 14.4067)
(-2.16185e-15 -1.50708 16.3912)
(-1.70574e-15 -1.41336 18.175)
(-1.16889e-15 -1.29336 19.7428)
(6.06786e-17 -1.1607 21.0987)
(4.56763e-16 -1.02059 22.2545)
(-1.64643e-15 -0.867785 23.215)
(-3.76724e-15 -0.696998 23.9762)
(-3.14615e-15 -0.499308 24.5311)
(-4.91341e-15 -0.260498 24.8556)
(-8.67989e-15 0.0114895 24.9251)
(-7.63308e-15 0.291134 24.7396)
(-7.28371e-15 0.543595 24.2763)
(-6.64371e-15 0.699094 23.5778)
(-6.07548e-15 0.737436 22.7578)
(-6.55636e-15 0.669415 21.9007)
(-5.08331e-15 0.504988 21.0454)
(-3.62732e-15 0.281479 20.2539)
(-2.6083e-15 0.119511 19.6692)
(-2.25888e-15 0.188385 19.3506)
(-2.68443e-15 0.582008 19.0883)
(-4.2748e-15 1.11101 18.5179)
(-5.14443e-15 1.50771 17.5358)
(-3.62346e-15 1.69396 16.2863)
(-2.00596e-15 1.7239 14.933)
(-5.42773e-16 1.6725 13.577)
(8.67276e-16 1.59278 12.2668)
(1.10363e-15 1.51397 11.0191)
(2.90954e-16 1.44977 9.83347)
(1.11889e-15 1.40579 8.70026)
(-1.27539e-15 1.38374 7.60567)
(-1.64736e-15 1.38314 6.53731)
(6.27903e-16 1.40297 5.4833)
(4.90098e-15 1.46291 4.40163)
(3.49484e-15 1.61235 3.17407)
(-1.32124e-14 1.85357 1.70607)
(-2.33525e-14 2.06391 0.272139)
(-1.01228e-14 1.98942 -0.605885)
(7.16033e-15 1.64129 -1.17802)
(2.05402e-14 1.28232 -1.78632)
(1.38561e-14 1.00509 -2.37841)
(9.51646e-15 0.788008 -2.87853)
(3.76407e-15 0.615507 -3.27221)
(-7.8115e-16 0.479153 -3.57016)
(2.51645e-16 0.372615 -3.79082)
(4.01526e-15 0.289601 -3.95139)
(1.11552e-14 0.224163 -4.06478)
(1.19182e-14 0.171346 -4.13952)
(1.24954e-14 0.127416 -4.1809)
(9.13679e-15 0.0897033 -4.19219)
(8.94014e-15 0.0562979 -4.17546)
(7.6916e-15 0.0258083 -4.13237)
(1.01953e-14 -0.00271074 -4.06471)
(1.18327e-14 -0.0297062 -3.97522)
(1.37232e-14 -0.0550715 -3.86835)
(1.54752e-14 -0.0787554 -3.7502)
(1.33286e-14 -0.101027 -3.62638)
(1.57382e-14 -0.122538 -3.49868)
(1.15431e-14 -0.143886 -3.36711)
(1.23159e-14 -0.165074 -3.23358)
(1.17222e-14 -0.185963 -3.09981)
(1.19975e-14 -0.206654 -2.96657)
(7.29068e-15 -0.227428 -2.83392)
(1.25803e-14 -0.248571 -2.70125)
(1.80042e-14 -0.270265 -2.56717)
(2.10774e-14 -0.292623 -2.42952)
(2.80929e-14 -0.31593 -2.28548)
(3.0417e-14 -0.340991 -2.13196)
(2.72669e-14 -0.369258 -1.96596)
(1.43292e-14 -0.402446 -1.78488)
(-2.45665e-15 -0.441724 -1.58643)
(-2.07796e-14 -0.487168 -1.36803)
(-1.44572e-14 -0.538167 -1.12584)
(1.19805e-15 -0.594453 -0.854713)
(3.92381e-15 -0.656922 -0.550632)
(1.00585e-14 -0.730072 -0.211353)
(7.62138e-15 -0.829322 0.181334)
(8.19376e-15 -0.960508 0.624786)
(-2.10889e-15 -1.11879 1.12503)
(-1.05097e-14 -1.30491 1.65926)
(-5.94194e-15 -1.53618 2.25976)
(2.52103e-15 -1.83046 2.83961)
(6.54596e-15 -2.15521 3.50122)
(5.1576e-15 -2.52245 4.01415)
(3.41557e-15 -2.83633 4.781)
(2.34977e-15 -3.36287 5.06246)
(1.67984e-15 -3.50407 5.61695)
(-2.74772e-15 1.08727 8.62566)
(-4.76575e-16 1.01736 6.621)
(2.47026e-15 0.842365 5.11423)
(7.41899e-15 0.508723 4.06163)
(8.85983e-15 -0.0270804 3.83011)
(-7.09372e-15 -0.263037 3.03031)
(-9.23682e-15 -0.388017 1.49982)
(-1.32286e-14 -0.57757 1.59039)
(-1.32229e-14 -0.93495 3.17879)
(-8.45702e-15 -1.28842 5.31992)
(-2.92564e-15 -1.55588 7.56398)
(-3.55533e-15 -1.72975 9.76113)
(-4.43136e-15 -1.81941 11.8704)
(-4.77377e-15 -1.82935 13.8674)
(-4.49417e-15 -1.76745 15.7168)
(-3.71113e-15 -1.65439 17.385)
(-2.65003e-15 -1.51291 18.8574)
(-2.62753e-15 -1.35805 20.1374)
(-1.02047e-15 -1.19529 21.2363)
(-1.20651e-15 -1.01796 22.1569)
(1.52488e-15 -0.819951 22.8931)
(2.96137e-15 -0.591143 23.4363)
(1.11635e-15 -0.3149 23.7593)
(-9.01745e-17 -0.000572743 23.8356)
(-1.45169e-15 0.324927 23.6637)
(-3.75691e-15 0.624571 23.2049)
(-3.56333e-15 0.812842 22.4964)
(-1.73687e-15 0.867742 21.6624)
(-5.54622e-15 0.806542 20.7924)
(-3.60616e-15 0.640129 19.9155)
(-3.0896e-15 0.394397 19.0597)
(-2.86724e-15 0.185954 18.3757)
(-2.46013e-15 0.220463 17.9776)
(-2.27542e-15 0.638705 17.6791)
(-2.88073e-15 1.24072 17.1136)
(-4.11404e-15 1.70644 16.1732)
(-4.0099e-15 1.93379 14.9952)
(-2.60971e-15 1.98046 13.727)
(-1.18771e-15 1.93124 12.4545)
(4.00577e-16 1.84675 11.2179)
(2.6073e-16 1.76081 10.0318)
(-1.17538e-16 1.68986 8.89638)
(-1.50365e-15 1.64112 7.80293)
(-2.88232e-15 1.61648 6.74121)
(-3.12296e-15 1.61571 5.70375)
(-4.56431e-16 1.64393 4.66783)
(1.52917e-15 1.73548 3.55475)
(1.77151e-15 1.9356 2.24339)
(-1.4997e-14 2.1912 0.765772)
(-1.45778e-14 2.31371 -0.380574)
(4.76207e-15 2.13723 -0.992457)
(1.74306e-14 1.77986 -1.51129)
(1.08508e-14 1.43148 -2.09073)
(2.76061e-15 1.14102 -2.63207)
(-1.75979e-15 0.899319 -3.0741)
(-3.54275e-15 0.701396 -3.40826)
(-1.02062e-15 0.543317 -3.64892)
(4.07683e-15 0.419628 -3.81651)
(7.95349e-15 0.323243 -3.92851)
(1.8693e-14 0.246994 -3.99683)
(2.31396e-14 0.184892 -4.02872)
(2.84837e-14 0.132518 -4.02859)
(3.30103e-14 0.0868161 -3.99953)
(3.66711e-14 0.0457452 -3.9444)
(3.61662e-14 0.00801417 -3.86657)
(3.89034e-14 -0.0269573 -3.77053)
(3.74719e-14 -0.0590121 -3.66237)
(4.14311e-14 -0.0873691 -3.54959)
(4.10384e-14 -0.112257 -3.43856)
(3.30079e-14 -0.13528 -3.32866)
(3.02869e-14 -0.157625 -3.21842)
(2.16843e-14 -0.179495 -3.10899)
(2.21161e-14 -0.200901 -3.00088)
(1.53782e-14 -0.222052 -2.89361)
(1.00262e-14 -0.243321 -2.78623)
(5.91305e-15 -0.265142 -2.67745)
(2.73967e-16 -0.287906 -2.56572)
(-2.71495e-15 -0.311895 -2.4492)
(5.30757e-17 -0.337366 -2.32566)
(7.44235e-15 -0.364781 -2.19261)
(1.25989e-14 -0.395069 -2.04744)
(1.10619e-14 -0.429687 -1.88772)
(1.0026e-14 -0.47025 -1.71127)
(3.98694e-16 -0.517883 -1.5161)
(-6.60963e-15 -0.572784 -1.29969)
(-4.40691e-15 -0.634613 -1.05806)
(-1.61863e-16 -0.703508 -0.785731)
(2.76142e-15 -0.781066 -0.478354)
(7.06895e-15 -0.872439 -0.133904)
(9.19821e-15 -0.992443 0.261936)
(2.88511e-15 -1.14321 0.697416)
(-6.92583e-15 -1.31894 1.17992)
(-8.75188e-15 -1.52367 1.68443)
(-1.54555e-15 -1.76654 2.24196)
(1.74281e-15 -2.0691 2.76961)
(5.27711e-15 -2.39175 3.36476)
(3.95063e-15 -2.76368 3.81399)
(2.5858e-15 -3.07734 4.48816)
(1.24962e-15 -3.53359 4.72582)
(1.523e-15 -3.70475 5.41087)
(-1.9262e-15 1.25236 8.46314)
(-1.82964e-15 1.16561 6.53494)
(1.48097e-15 0.959323 5.10344)
(7.21652e-15 0.57889 4.12783)
(4.85357e-15 0.0532988 3.57615)
(-6.42581e-15 -0.120065 1.7997)
(-7.12608e-15 -0.365308 0.275689)
(-1.3079e-14 -0.731887 1.39975)
(-7.25229e-15 -1.16828 3.26709)
(-3.39953e-15 -1.54537 5.32184)
(-4.7222e-15 -1.81931 7.37831)
(-5.89591e-15 -1.99544 9.37727)
(-6.65024e-15 -2.08504 11.3081)
(-6.7253e-15 -2.09022 13.1553)
(-6.23332e-15 -2.0171 14.8819)
(-5.50458e-15 -1.88775 16.4493)
(-4.48582e-15 -1.72751 17.8397)
(-2.51628e-15 -1.55306 19.056)
(8.28428e-16 -1.37015 20.1096)
(3.01257e-15 -1.17053 21.0027)
(4.36022e-15 -0.947262 21.7274)
(5.88327e-15 -0.688981 22.2739)
(4.55166e-15 -0.376477 22.6117)
(2.39464e-15 -0.0204329 22.7113)
(6.74572e-16 0.351738 22.5683)
(-2.19387e-15 0.701616 22.126)
(-1.42431e-15 0.92455 21.4138)
(-3.42619e-15 0.99623 20.5694)
(-5.80732e-15 0.942452 19.6918)
(-6.68266e-15 0.777587 18.8073)
(-5.90798e-15 0.518083 17.9175)
(-3.98607e-15 0.265435 17.1544)
(-3.16308e-15 0.260619 16.6809)
(-3.17057e-15 0.69701 16.3289)
(-3.09365e-15 1.36479 15.7375)
(-3.8298e-15 1.89159 14.8101)
(-3.74062e-15 2.15401 13.6846)
(-2.60851e-15 2.21489 12.4922)
(-1.31671e-15 2.16829 11.3008)
(3.46977e-16 2.081 10.1402)
(-1.01592e-16 1.99045 9.02036)
(-1.977e-15 1.91532 7.94022)
(-4.16038e-15 1.86384 6.8919)
(-4.58807e-15 1.83784 5.86986)
(-3.96024e-15 1.83975 4.86557)
(-1.83739e-15 1.88586 3.83038)
(-2.23095e-15 2.02037 2.65612)
(-3.596e-15 2.2589 1.26984)
(-1.49271e-14 2.48156 -0.0835234)
(-3.91002e-15 2.4922 -0.908284)
(1.13726e-14 2.25863 -1.39546)
(1.385e-14 1.90955 -1.89727)
(-8.06919e-16 1.56538 -2.42637)
(-4.54302e-15 1.25767 -2.88829)
(-5.26762e-15 0.99076 -3.24172)
(-3.50245e-15 0.768512 -3.48876)
(7.67357e-16 0.590704 -3.65069)
(8.70416e-15 0.452074 -3.75078)
(8.98026e-15 0.344205 -3.80589)
(1.2306e-14 0.258499 -3.82589)
(8.99125e-15 0.188038 -3.81645)
(1.10081e-14 0.127996 -3.78166)
(1.09384e-14 0.0752981 -3.72553)
(9.88074e-15 0.0281453 -3.65265)
(8.50398e-15 -0.014341 -3.56834)
(8.1961e-15 -0.052298 -3.47833)
(9.11346e-15 -0.0854156 -3.38801)
(1.31666e-14 -0.113424 -3.30182)
(1.50845e-14 -0.138154 -3.21791)
(1.28602e-14 -0.161768 -3.13288)
(1.0556e-14 -0.184715 -3.04739)
(4.84091e-15 -0.207137 -2.96136)
(5.38116e-15 -0.229335 -2.87398)
(4.83033e-15 -0.251668 -2.78428)
(3.10811e-15 -0.27456 -2.69123)
(-3.56037e-15 -0.298468 -2.59376)
(-5.42709e-15 -0.323807 -2.49078)
(-8.98841e-15 -0.350918 -2.38095)
(-9.59326e-15 -0.380167 -2.26267)
(-7.95739e-15 -0.41215 -2.13397)
(-4.34095e-15 -0.447894 -1.99273)
(4.20689e-15 -0.488868 -1.83678)
(6.50608e-15 -0.536701 -1.66404)
(-6.29163e-15 -0.592657 -1.47232)
(-9.54855e-15 -0.65726 -1.25881)
(-7.98829e-15 -0.730528 -1.01924)
(-4.96172e-16 -0.812898 -0.748082)
(2.09242e-15 -0.906325 -0.441006)
(8.90472e-16 -1.0158 -0.0961021)
(5.41816e-15 -1.15407 0.295603)
(-2.04529e-15 -1.32136 0.718902)
(-8.22602e-15 -1.51165 1.18257)
(-3.25818e-15 -1.73079 1.66025)
(3.3147e-15 -1.98129 2.1819)
(3.45887e-15 -2.28835 2.66859)
(2.85609e-15 -2.60596 3.21406)
(1.84858e-15 -2.97843 3.62029)
(-1.47812e-17 -3.28323 4.22569)
(9.5858e-16 -3.70696 4.41863)
(1.55703e-15 -3.91455 5.13282)
(-4.4289e-17 1.41232 8.24386)
(-1.3427e-15 1.30635 6.39362)
(1.36801e-15 1.06808 5.03473)
(1.08072e-14 0.662379 4.11611)
(6.30039e-17 0.189006 3.28755)
(-9.39291e-15 0.0509966 1.15026)
(-8.80064e-15 -0.392377 0.22022)
(-9.03016e-15 -0.900895 1.55749)
(-6.39718e-15 -1.38279 3.27346)
(-4.47087e-15 -1.7797 5.1235)
(-6.35419e-15 -2.06353 6.9848)
(-6.64958e-15 -2.24551 8.81019)
(-7.33896e-15 -2.33818 10.5949)
(-7.13862e-15 -2.34126 12.3234)
(-6.79375e-15 -2.25898 13.952)
(-5.91656e-15 -2.11511 15.4358)
(-4.96454e-15 -1.93804 16.7543)
(-2.13207e-15 -1.74623 17.912)
(2.4266e-15 -1.54567 18.9232)
(2.56953e-15 -1.32633 19.791)
(3.43961e-15 -1.08018 20.5075)
(5.726e-15 -0.794567 21.0628)
(4.35913e-15 -0.447378 21.4228)
(9.39842e-15 -0.0504279 21.5551)
(8.97512e-15 0.369365 21.4519)
(5.16577e-15 0.773201 21.0376)
(-1.03294e-15 1.03339 20.3299)
(-1.44657e-15 1.12222 19.4808)
(-2.60427e-15 1.07577 18.6019)
(-3.83087e-15 0.914246 17.7204)
(6.22245e-16 0.647493 16.8235)
(3.73843e-15 0.356116 16.0093)
(5.67994e-15 0.311202 15.4689)
(4.70624e-15 0.762575 15.0454)
(7.52069e-16 1.48927 14.3996)
(-3.37657e-15 2.06781 13.4631)
(-3.6524e-15 2.35756 12.3773)
(-2.53338e-15 2.42881 11.254)
(-1.1575e-15 2.38428 10.1413)
(4.32646e-16 2.29554 9.05669)
(6.23976e-16 2.20258 8.00472)
(-1.27372e-15 2.12561 6.98196)
(-6.05647e-15 2.07315 5.98221)
(-6.28138e-15 2.04766 5.00365)
(-4.60836e-15 2.05831 4.02498)
(-3.79142e-15 2.13506 2.96277)
(-6.00961e-15 2.31605 1.70072)
(-8.35263e-15 2.56588 0.291675)
(-1.10009e-14 2.70451 -0.79507)
(2.64904e-15 2.625 -1.39612)
(7.51443e-15 2.36754 -1.84102)
(2.17144e-15 2.02635 -2.30685)
(-6.96451e-15 1.67643 -2.74674)
(-5.17861e-15 1.34753 -3.09251)
(-5.09363e-15 1.05588 -3.32686)
(-6.56144e-15 0.812446 -3.46767)
(-8.60672e-15 0.619231 -3.54464)
(-7.50418e-15 0.469863 -3.58182)
(-1.30461e-14 0.353914 -3.59244)
(-1.25977e-14 0.261397 -3.58249)
(-1.22444e-14 0.184884 -3.55545)
(-1.17495e-14 0.119585 -3.5147)
(-1.48216e-14 0.0626606 -3.46397)
(-1.58289e-14 0.0125217 -3.40705)
(-1.50825e-14 -0.0316625 -3.34712)
(-9.4972e-15 -0.0702575 -3.28637)
(-8.1235e-15 -0.103538 -3.22547)
(-2.66592e-15 -0.13206 -3.16524)
(1.20046e-15 -0.158117 -3.101)
(4.07088e-16 -0.183164 -3.03318)
(-9.01558e-16 -0.207444 -2.96216)
(-6.78942e-15 -0.231349 -2.88754)
(-5.66517e-15 -0.255236 -2.80889)
(-5.2574e-15 -0.279485 -2.72574)
(-4.05494e-16 -0.304545 -2.63758)
(6.39431e-15 -0.330901 -2.5439)
(-3.50186e-15 -0.359023 -2.44404)
(-8.76798e-15 -0.389357 -2.33704)
(-4.54963e-15 -0.422416 -2.22155)
(-7.59204e-15 -0.458951 -2.09584)
(-4.93636e-15 -0.50009 -1.95789)
(4.60721e-15 -0.547342 -1.80556)
(8.05609e-15 -0.602382 -1.63666)
(2.08293e-16 -0.666657 -1.44876)
(-1.39395e-14 -0.741035 -1.23883)
(-8.8284e-15 -0.825882 -1.00266)
(-2.24097e-15 -0.92188 -0.734974)
(2.35024e-15 -1.03119 -0.431449)
(2.54563e-15 -1.15804 -0.0907535)
(3.13277e-15 -1.31226 0.291809)
(-3.69977e-15 -1.49384 0.700839)
(-5.24621e-15 -1.6965 1.14527)
(6.5492e-16 -1.9272 1.59838)
(3.74616e-15 -2.18313 2.08866)
(5.51668e-16 -2.49238 2.54124)
(1.29027e-15 -2.80463 3.04392)
(2.89168e-16 -3.17639 3.41815)
(-9.20342e-17 -3.46971 3.96713)
(8.15095e-16 -3.87667 4.14738)
(1.23005e-15 -4.11765 4.83747)
(-7.34181e-16 1.55743 7.98287)
(-5.8339e-16 1.43806 6.20593)
(5.26685e-16 1.17033 4.91617)
(7.95714e-15 0.756676 4.00994)
(-5.92968e-15 0.325507 3.06133)
(-1.15337e-14 0.194012 0.990032)
(-1.66079e-14 -0.428894 0.300351)