/*--------------------------------*- C++ -*----------------------------------*\
| =========                 |                                                 |
| \\      /  F ield         | OpenFOAM: The Open Source CFD Toolbox           |
|  \\    /   O peration     | Version:  4.1                                   |
|   \\  /    A nd           | Web:      www.OpenFOAM.org                      |
|    \\/     M anipulation  |                                                 |
\*---------------------------------------------------------------------------*/
FoamFile
{
    version     2.0;
    format      ascii;
    class       volScalarField;
    location    "1800";
    object      p;
}
// * * * * * * * * * * * * * * * * * * * * * * * * * * * * * * * * * * * * * //

dimensions      [0 2 -2 0 0 0 0];

internalField   nonuniform List<scalar> 
26785
(
-1556.45
-1538.67
-1523.78
-1511.91
-1503.11
-1497.68
-1495.33
-1496.21
-1502.96
-1518.9
-1541.86
-1569.43
-1598.36
-1626.78
-1654.34
-1681.4
-1708.53
-1736.27
-1764.93
-1794.55
-1824.91
-1855.61
-1886.03
-1915.21
-1941.79
-1964.04
-1980.01
-1988.06
-1987.34
-1978.34
-1962.88
-1943.22
-1921.63
-1900.04
-1879.86
-1862.4
-1848.75
-1839.23
-1833.36
-1830.6
-1829.63
-1828.77
-1826.54
-1821.38
-1812.58
-1800.86
-1787.95
-1775.81
-1765.81
-1758.52
-1754.12
-1752.76
-1754.75
-1760.55
-1770.32
-1784.17
-1802.52
-1826.02
-1855.06
-1889.38
-1927.91
-1969.02
-2010.92
-2052.1
-2091.63
-2129.08
-2164.37
-2197.69
-2229.39
-2259.87
-2289.48
-2318.43
-2346.78
-2374.44
-2401.05
-2425.86
-2447.71
-2465.01
-2475.67
-2476.88
-2464.99
-2435.76
-2384.63
-2308.72
-2205.72
-2075.37
-1922.68
-1755.13
-1579.95
-1403.12
-1229.23
-1061.59
-902.264
-752.359
-612.043
-481.47
-359.205
-247.249
-138.121
-51.4035
-1556.44
-1538.69
-1523.79
-1511.91
-1503.1
-1497.66
-1495.29
-1496.15
-1502.92
-1518.93
-1541.92
-1569.52
-1598.45
-1626.86
-1654.4
-1681.44
-1708.55
-1736.28
-1764.93
-1794.55
-1824.92
-1855.64
-1886.08
-1915.3
-1941.93
-1964.24
-1980.26
-1988.35
-1987.63
-1978.6
-1963.1
-1943.38
-1921.74
-1900.09
-1879.85
-1862.32
-1848.63
-1839.09
-1833.24
-1830.54
-1829.64
-1828.87
-1826.7
-1821.57
-1812.73
-1800.92
-1787.91
-1775.69
-1765.64
-1758.34
-1753.92
-1752.54
-1754.52
-1760.33
-1770.12
-1783.97
-1802.32
-1825.83
-1854.94
-1889.36
-1928.03
-1969.28
-2011.28
-2052.54
-2092.11
-2129.58
-2164.87
-2198.18
-2229.88
-2260.38
-2290.02
-2319.01
-2347.44
-2375.2
-2401.93
-2426.89
-2448.92
-2466.44
-2477.39
-2478.98
-2467.55
-2438.84
-2388.19
-2312.82
-2210.16
-2079.59
-1926.36
-1758.17
-1582.37
-1404.96
-1230.57
-1062.52
-902.872
-752.735
-612.26
-481.585
-359.247
-247.257
-138.087
-51.3382
-1556.46
-1538.74
-1523.83
-1511.93
-1503.08
-1497.61
-1495.21
-1496.03
-1502.84
-1518.99
-1542.05
-1569.7
-1598.63
-1627.01
-1654.51
-1681.5
-1708.58
-1736.28
-1764.93
-1794.55
-1824.94
-1855.68
-1886.17
-1915.47
-1942.2
-1964.63
-1980.75
-1988.91
-1988.2
-1979.13
-1963.53
-1943.7
-1921.97
-1900.21
-1879.82
-1862.16
-1848.38
-1838.82
-1833
-1830.43
-1829.68
-1829.05
-1827.02
-1821.92
-1813.01
-1801.04
-1787.86
-1775.49
-1765.38
-1758.05
-1753.6
-1752.21
-1754.17
-1760
-1769.82
-1783.67
-1802.03
-1825.6
-1854.83
-1889.46
-1928.37
-1969.86
-2012.06
-2053.45
-2093.11
-2130.62
-2165.92
-2199.25
-2230.97
-2261.51
-2291.22
-2320.31
-2348.87
-2376.8
-2403.76
-2429.02
-2451.4
-2469.35
-2480.86
-2483.19
-2472.66
-2444.98
-2395.29
-2320.95
-2218.9
-2087.93
-1933.66
-1764.22
-1587.18
-1408.64
-1233.28
-1064.42
-904.15
-753.559
-612.769
-481.886
-359.403
-247.325
-138.1
-51.2058
-1556.51
-1538.8
-1523.87
-1511.94
-1503.05
-1497.53
-1495.06
-1495.82
-1502.69
-1519.05
-1542.22
-1569.95
-1598.87
-1627.21
-1654.66
-1681.58
-1708.6
-1736.27
-1764.91
-1794.54
-1824.95
-1855.74
-1886.31
-1915.72
-1942.6
-1965.19
-1981.48
-1989.74
-1989.06
-1979.92
-1964.17
-1944.18
-1922.3
-1900.37
-1879.78
-1861.92
-1848.02
-1838.41
-1832.66
-1830.27
-1829.74
-1829.32
-1827.47
-1822.42
-1813.4
-1801.22
-1787.79
-1775.25
-1765.05
-1757.68
-1753.2
-1751.78
-1753.73
-1759.58
-1769.44
-1783.31
-1801.69
-1825.36
-1854.81
-1889.74
-1929.02
-1970.86
-2013.34
-2054.93
-2094.71
-2132.29
-2167.65
-2200.99
-2232.74
-2263.34
-2293.14
-2322.36
-2351.09
-2379.29
-2406.6
-2432.28
-2455.17
-2473.73
-2486.04
-2489.45
-2480.27
-2454.1
-2405.83
-2332.97
-2231.79
-2100.24
-1944.44
-1773.16
-1594.33
-1414.16
-1237.37
-1067.33
-906.145
-754.887
-613.63
-482.434
-359.731
-247.5
-138.212
-51.016
-1556.6
-1538.89
-1523.94
-1511.96
-1503
-1497.41
-1494.82
-1495.5
-1502.46
-1519.11
-1542.4
-1570.23
-1599.15
-1627.45
-1654.82
-1681.67
-1708.62
-1736.24
-1764.86
-1794.5
-1824.95
-1855.81
-1886.49
-1916.05
-1943.12
-1965.94
-1982.43
-1990.83
-1990.19
-1980.96
-1965.02
-1944.82
-1922.75
-1900.6
-1879.73
-1861.61
-1847.55
-1837.89
-1832.21
-1830.08
-1829.82
-1829.67
-1828.07
-1823.08
-1813.93
-1801.47
-1787.73
-1774.96
-1764.65
-1757.22
-1752.68
-1751.21
-1753.13
-1759.01
-1768.91
-1782.81
-1801.25
-1825.09
-1854.85
-1890.24
-1930.02
-1972.35
-2015.21
-2057.07
-2097.04
-2134.74
-2170.15
-2203.52
-2235.29
-2265.93
-2295.83
-2325.2
-2354.16
-2382.67
-2410.43
-2436.64
-2460.16
-2479.47
-2492.79
-2497.58
-2490.13
-2465.95
-2419.57
-2348.63
-2248.62
-2116.35
-1958.57
-1784.92
-1603.76
-1421.48
-1242.85
-1071.28
-908.9
-756.768
-614.897
-483.283
-360.284
-247.826
-138.458
-50.7905
-1556.67
-1539
-1524.01
-1511.98
-1502.93
-1497.23
-1494.49
-1495.06
-1502.12
-1519.13
-1542.57
-1570.51
-1599.45
-1627.69
-1654.99
-1681.75
-1708.63
-1736.2
-1764.8
-1794.46
-1824.95
-1855.89
-1886.7
-1916.44
-1943.75
-1966.85
-1983.6
-1992.17
-1991.58
-1982.25
-1966.07
-1945.62
-1923.31
-1900.87
-1879.67
-1861.24
-1846.98
-1837.25
-1831.68
-1829.84
-1829.92
-1830.12
-1828.83
-1823.93
-1814.64
-1801.82
-1787.69
-1774.64
-1764.16
-1756.65
-1752.02
-1750.47
-1752.34
-1758.27
-1768.24
-1782.18
-1800.7
-1824.76
-1854.96
-1890.94
-1931.39
-1974.35
-2017.73
-2059.95
-2100.16
-2138
-2173.46
-2206.82
-2238.58
-2269.25
-2299.24
-2328.78
-2358.01
-2386.91
-2415.18
-2442.03
-2466.27
-2486.42
-2500.9
-2507.3
-2501.94
-2480.16
-2436.07
-2367.48
-2268.97
-2135.92
-1975.78
-1799.29
-1615.37
-1430.57
-1249.72
-1076.3
-912.455
-759.247
-616.614
-484.473
-361.098
-248.332
-138.851
-50.5468
-1556.74
-1539.13
-1524.1
-1511.99
-1502.83
-1496.99
-1494.03
-1494.48
-1501.66
-1519.09
-1542.7
-1570.79
-1599.74
-1627.95
-1655.16
-1681.83
-1708.62
-1736.13
-1764.72
-1794.39
-1824.94
-1855.98
-1886.94
-1916.9
-1944.5
-1967.92
-1984.99
-1993.77
-1993.24
-1983.78
-1967.33
-1946.57
-1923.98
-1901.21
-1879.61
-1860.81
-1846.31
-1836.51
-1831.07
-1829.58
-1830.05
-1830.66
-1829.78
-1825.01
-1815.53
-1802.27
-1787.68
-1774.27
-1763.59
-1755.96
-1751.21
-1749.55
-1751.37
-1757.37
-1767.44
-1781.42
-1800.03
-1824.4
-1855.15
-1891.87
-1933.15
-1976.89
-2020.9
-2063.57
-2104.06
-2142.04
-2177.51
-2210.82
-2242.53
-2273.22
-2303.31
-2333.05
-2362.59
-2391.93
-2420.81
-2448.36
-2473.36
-2494.41
-2510.13
-2518.32
-2515.34
-2496.35
-2454.93
-2389.03
-2292.32
-2158.44
-1995.61
-1815.91
-1628.92
-1441.3
-1257.95
-1082.39
-916.842
-762.365
-618.823
-486.041
-362.202
-249.038
-139.393
-50.2997
-1556.83
-1539.27
-1524.18
-1512
-1502.7
-1496.68
-1493.46
-1493.76
-1501.1
-1518.98
-1542.78
-1571.05
-1600.04
-1628.2
-1655.33
-1681.89
-1708.59
-1736.04
-1764.61
-1794.31
-1824.92
-1856.07
-1887.21
-1917.43
-1945.35
-1969.15
-1986.58
-1995.61
-1995.15
-1985.54
-1968.78
-1947.68
-1924.76
-1901.6
-1879.55
-1860.32
-1845.55
-1835.68
-1830.37
-1829.28
-1830.22
-1831.34
-1830.94
-1826.33
-1816.61
-1802.82
-1787.7
-1773.86
-1762.94
-1755.17
-1750.28
-1748.49
-1750.24
-1756.34
-1766.51
-1780.54
-1799.28
-1824.03
-1855.44
-1893.03
-1935.29
-1979.97
-2024.71
-2067.88
-2108.66
-2146.75
-2182.2
-2215.43
-2247.07
-2277.78
-2307.99
-2337.95
-2367.82
-2397.65
-2427.19
-2455.5
-2481.3
-2503.24
-2520.24
-2530.36
-2529.99
-2514.15
-2475.72
-2412.82
-2318.21
-2183.46
-2017.56
-1834.32
-1644.02
-1453.43
-1267.39
-1089.51
-922.068
-766.151
-621.562
-488.024
-363.628
-249.966
-140.088
-50.061
-1556.96
-1539.41
-1524.27
-1511.98
-1502.54
-1496.3
-1492.79
-1492.91
-1500.41
-1518.81
-1542.8
-1571.28
-1600.32
-1628.46
-1655.49
-1681.95
-1708.54
-1735.93
-1764.48
-1794.21
-1824.89
-1856.17
-1887.51
-1918.01
-1946.3
-1970.53
-1988.38
-1997.68
-1997.31
-1987.53
-1970.42
-1948.93
-1925.65
-1902.06
-1879.49
-1859.78
-1844.71
-1834.75
-1829.57
-1828.95
-1830.42
-1832.15
-1832.34
-1827.89
-1817.86
-1803.45
-1787.74
-1773.41
-1762.23
-1754.31
-1749.27
-1747.32
-1749
-1755.22
-1765.49
-1779.56
-1798.47
-1823.67
-1855.84
-1894.43
-1937.8
-1983.54
-2029.12
-2072.84
-2113.91
-2152.1
-2187.5
-2220.59
-2252.13
-2282.84
-2313.17
-2343.36
-2373.59
-2403.97
-2434.26
-2463.41
-2490.03
-2512.84
-2531.13
-2543.24
-2545.64
-2533.21
-2498.04
-2438.38
-2346.13
-2210.52
-2041.21
-1854.07
-1660.28
-1466.63
-1277.85
-1097.54
-928.094
-770.614
-624.858
-490.458
-365.407
-251.144
-140.946
-49.8418
-1557.11
-1539.57
-1524.36
-1511.96
-1502.34
-1495.85
-1492
-1491.94
-1499.62
-1518.55
-1542.77
-1571.48
-1600.6
-1628.7
-1655.64
-1681.99
-1708.48
-1735.8
-1764.33
-1794.09
-1824.85
-1856.28
-1887.84
-1918.65
-1947.35
-1972.07
-1990.38
-2000.01
-1999.72
-1989.75
-1972.24
-1950.34
-1926.66
-1902.58
-1879.43
-1859.19
-1843.78
-1833.73
-1828.68
-1828.59
-1830.67
-1833.11
-1834
-1829.72
-1819.31
-1804.2
-1787.81
-1772.94
-1761.47
-1753.39
-1748.19
-1746.09
-1747.68
-1754.01
-1764.38
-1778.5
-1797.61
-1823.35
-1856.37
-1896.07
-1940.7
-1987.65
-2034.15
-2078.44
-2119.8
-2158.03
-2193.3
-2226.19
-2257.57
-2288.25
-2318.71
-2349.18
-2379.87
-2410.9
-2442.07
-2472.13
-2499.6
-2523.21
-2542.77
-2556.89
-2562.14
-2553.34
-2521.58
-2465.27
-2375.55
-2239.09
-2066.08
-1874.76
-1677.31
-1480.56
-1289.05
-1106.33
-934.839
-775.73
-628.725
-493.371
-367.573
-252.6
-141.981
-49.6545
-1557.26
-1539.72
-1524.44
-1511.91
-1502.11
-1495.36
-1491.13
-1490.87
-1498.71
-1518.22
-1542.68
-1571.66
-1600.86
-1628.94
-1655.79
-1682.01
-1708.38
-1735.64
-1764.15
-1793.95
-1824.8
-1856.39
-1888.19
-1919.35
-1948.5
-1973.77
-1992.61
-2002.58
-2002.38
-1992.19
-1974.24
-1951.89
-1927.79
-1903.17
-1879.39
-1858.55
-1842.77
-1832.59
-1827.69
-1828.2
-1830.97
-1834.26
-1835.95
-1831.84
-1820.97
-1805.07
-1787.94
-1772.44
-1760.69
-1752.44
-1747.07
-1744.82
-1746.3
-1752.76
-1763.21
-1777.39
-1796.78
-1823.13
-1857.08
-1898
-1944.06
-1992.34
-2039.82
-2084.64
-2126.21
-2164.38
-2199.42
-2232.03
-2263.21
-2293.89
-2324.57
-2355.44
-2386.69
-2418.51
-2450.67
-2481.74
-2510.03
-2534.32
-2555.02
-2571.1
-2579.19
-2574.19
-2545.93
-2493.08
-2406
-2268.65
-2091.67
-1895.94
-1694.73
-1494.9
-1300.74
-1115.68
-942.187
-781.448
-633.156
-496.781
-370.155
-254.369
-143.214
-49.5136
-1557.42
-1539.88
-1524.52
-1511.85
-1501.85
-1494.81
-1490.19
-1489.69
-1497.71
-1517.81
-1542.53
-1571.81
-1601.11
-1629.17
-1655.91
-1682.01
-1708.27
-1735.45
-1763.95
-1793.79
-1824.74
-1856.5
-1888.57
-1920.11
-1949.76
-1975.63
-1995.05
-2005.41
-2005.29
-1994.85
-1976.43
-1953.6
-1929.04
-1903.84
-1879.36
-1857.87
-1841.67
-1831.35
-1826.6
-1827.79
-1831.34
-1835.63
-1838.23
-1834.29
-1822.87
-1806.08
-1788.12
-1771.94
-1759.88
-1751.5
-1745.92
-1743.56
-1744.92
-1751.49
-1762.02
-1776.3
-1796.04
-1823.07
-1858.01
-1900.28
-1947.92
-1997.64
-2046.06
-2091.33
-2132.96
-2170.94
-2205.63
-2237.91
-2268.94
-2299.75
-2330.8
-2362.21
-2394.13
-2426.81
-2460.07
-2492.19
-2521.21
-2545.96
-2567.6
-2585.49
-2596.27
-2595.2
-2570.51
-2521.21
-2436.89
-2298.65
-2117.47
-1917.21
-1712.2
-1509.34
-1312.64
-1125.39
-950.007
-787.7
-638.126
-500.696
-373.177
-256.483
-144.67
-49.4373
-1557.61
-1540.04
-1524.59
-1511.78
-1501.56
-1494.22
-1489.19
-1488.43
-1496.61
-1517.34
-1542.33
-1571.93
-1601.34
-1629.38
-1656.02
-1681.99
-1708.13
-1735.24
-1763.73
-1793.61
-1824.68
-1856.62
-1888.98
-1920.93
-1951.13
-1977.66
-1997.72
-2008.49
-2008.46
-1997.74
-1978.79
-1955.45
-1930.41
-1904.57
-1879.34
-1857.15
-1840.48
-1830.02
-1825.42
-1827.37
-1831.78
-1837.24
-1840.89
-1837.09
-1824.98
-1807.22
-1788.38
-1771.44
-1759.08
-1750.57
-1744.78
-1742.37
-1743.61
-1750.29
-1760.9
-1775.32
-1795.46
-1823.18
-1859.21
-1902.96
-1952.3
-2003.49
-2052.76
-2098.27
-2139.77
-2177.41
-2211.73
-2243.76
-2274.81
-2305.93
-2337.52
-2369.55
-2402.17
-2435.75
-2470.18
-2503.39
-2532.99
-2557.87
-2580.16
-2599.65
-2612.81
-2615.75
-2594.63
-2548.88
-2467.36
-2328.32
-2142.9
-1938.11
-1729.39
-1523.62
-1324.54
-1135.27
-958.164
-794.4
-643.594
-505.107
-376.653
-258.974
-146.376
-49.4485
-1557.84
-1540.2
-1524.66
-1511.69
-1501.25
-1493.61
-1488.16
-1487.12
-1495.44
-1516.8
-1542.08
-1572.03
-1601.55
-1629.56
-1656.11
-1681.94
-1707.96
-1735
-1763.49
-1793.42
-1824.6
-1856.75
-1889.41
-1921.82
-1952.62
-1979.86
-2000.62
-2011.81
-2011.86
-2000.84
-1981.33
-1957.46
-1931.91
-1905.39
-1879.34
-1856.4
-1839.21
-1828.57
-1824.13
-1826.93
-1832.3
-1839.12
-1843.94
-1840.25
-1827.29
-1808.51
-1788.73
-1770.95
-1758.3
-1749.68
-1743.7
-1741.35
-1742.47
-1749.22
-1759.88
-1774.47
-1795.03
-1823.5
-1860.67
-1906.03
-1957.16
-2009.76
-2059.67
-2105.17
-2146.35
-2183.63
-2217.69
-2249.67
-2280.94
-2312.54
-2344.76
-2377.41
-2410.7
-2445.22
-2480.93
-2515.25
-2545.21
-2569.82
-2592.46
-2613.32
-2628.35
-2635.25
-2617.77
-2575.42
-2496.46
-2356.78
-2167.26
-1958.17
-1745.96
-1537.47
-1336.23
-1145.15
-966.53
-801.462
-649.509
-509.994
-380.586
-261.868
-148.361
-49.577
-1558.1
-1540.35
-1524.72
-1511.59
-1500.91
-1492.97
-1487.11
-1485.75
-1494.2
-1516.21
-1541.8
-1572.1
-1601.74
-1629.73
-1656.17
-1681.87
-1707.77
-1734.74
-1763.22
-1793.21
-1824.52
-1856.88
-1889.88
-1922.76
-1954.2
-1982.21
-2003.73
-2015.38
-2015.51
-2004.16
-1984.05
-1959.64
-1933.55
-1906.29
-1879.37
-1855.6
-1837.86
-1827.01
-1822.74
-1826.5
-1832.92
-1841.29
-1847.39
-1843.76
-1829.74
-1809.95
-1789.18
-1770.49
-1757.57
-1748.87
-1742.71
-1740.57
-1741.58
-1748.32
-1758.99
-1773.77
-1794.79
-1824.03
-1862.42
-1909.46
-1962.4
-2016.26
-2066.5
-2111.72
-2152.52
-2189.58
-2223.62
-2255.77
-2287.41
-2319.6
-2352.44
-2385.64
-2419.57
-2455.13
-2492.28
-2527.71
-2557.71
-2581.67
-2604.49
-2626.57
-2642.79
-2653.29
-2639.46
-2600.28
-2523.36
-2383.12
-2189.86
-1976.9
-1761.57
-1550.67
-1347.51
-1154.89
-974.983
-808.796
-655.81
-515.324
-384.972
-265.191
-150.662
-49.868
-1558.38
-1540.5
-1524.78
-1511.49
-1500.57
-1492.32
-1486.06
-1484.36
-1492.9
-1515.58
-1541.47
-1572.15
-1601.9
-1629.87
-1656.2
-1681.78
-1707.56
-1734.46
-1762.94
-1792.99
-1824.43
-1857.02
-1890.37
-1923.77
-1955.89
-1984.73
-2007.08
-2019.23
-2019.43
-2007.72
-1986.97
-1962
-1935.35
-1907.3
-1879.44
-1854.76
-1836.41
-1825.33
-1821.25
-1826.07
-1833.62
-1843.77
-1851.22
-1847.55
-1832.27
-1811.51
-1789.72
-1770.08
-1756.93
-1748.15
-1741.85
-1739.96
-1740.95
-1747.56
-1758.22
-1773.24
-1794.75
-1824.8
-1864.46
-1913.21
-1967.88
-2022.72
-2072.96
-2117.76
-2158.3
-2195.41
-2229.67
-2262.15
-2294.26
-2327.03
-2360.43
-2394.13
-2428.75
-2465.53
-2504.27
-2540.7
-2570.4
-2593.41
-2616.37
-2639.7
-2656.36
-2669.6
-2659.15
-2622.71
-2547.08
-2406.4
-2209.98
-1993.83
-1775.92
-1562.98
-1358.21
-1164.33
-983.411
-816.31
-662.425
-521.043
-389.782
-268.949
-153.318
-50.3889
-1558.66
-1540.66
-1524.84
-1511.37
-1500.21
-1491.66
-1485.04
-1482.95
-1491.56
-1514.91
-1541.12
-1572.18
-1602.04
-1629.98
-1656.22
-1681.66
-1707.32
-1734.16
-1762.63
-1792.75
-1824.34
-1857.17
-1890.89
-1924.84
-1957.69
-1987.41
-2010.68
-2023.38
-2023.65
-2011.52
-1990.11
-1964.57
-1937.32
-1908.42
-1879.54
-1853.89
-1834.87
-1823.51
-1819.66
-1825.65
-1834.42
-1846.55
-1855.4
-1851.52
-1834.78
-1813.17
-1790.35
-1769.74
-1756.38
-1747.54
-1741.12
-1739.43
-1740.57
-1746.97
-1757.64
-1772.93
-1794.95
-1825.82
-1866.76
-1917.21
-1973.42
-2028.88
-2078.84
-2123.27
-2163.85
-2201.3
-2235.95
-2268.82
-2301.41
-2334.75
-2368.68
-2402.87
-2438.3
-2476.48
-2516.87
-2554.1
-2583.15
-2604.98
-2628
-2652.49
-2668.34
-2683.13
-2675.42
-2641.56
-2566.66
-2425.74
-2226.99
-2008.53
-1788.74
-1574.24
-1368.21
-1173.39
-991.737
-823.941
-669.306
-527.127
-395.012
-273.16
-156.367
-51.228
-1558.99
-1540.81
-1524.89
-1511.25
-1499.85
-1490.99
-1484.06
-1481.53
-1490.17
-1514.22
-1540.75
-1572.18
-1602.15
-1630.07
-1656.21
-1681.52
-1707.06
-1733.83
-1762.31
-1792.5
-1824.24
-1857.33
-1891.44
-1925.96
-1959.58
-1990.28
-2014.58
-2027.9
-2028.22
-2015.59
-1993.46
-1967.35
-1939.49
-1909.68
-1879.71
-1852.98
-1833.24
-1821.57
-1818
-1825.27
-1835.32
-1849.66
-1859.89
-1855.61
-1837.25
-1814.91
-1791.03
-1769.46
-1755.98
-1747.06
-1740.53
-1738.94
-1740.34
-1746.54
-1757.27
-1772.86
-1795.4
-1827.1
-1869.3
-1921.34
-1978.81
-2034.52
-2084.07
-2128.36
-2169.31
-2207.29
-2242.41
-2275.68
-2308.76
-2342.64
-2377.03
-2411.76
-2448.14
-2487.87
-2529.85
-2567.62
-2595.71
-2616.09
-2639.08
-2664.03
-2677.29
-2693.48
-2687.63
-2655.71
-2581.14
-2439.95
-2240.11
-2020.53
-1799.72
-1584.2
-1377.31
-1181.9
-999.812
-831.543
-676.31
-533.45
-400.606
-277.879
-160.015
-52.6754
-1559.34
-1540.96
-1524.95
-1511.13
-1499.49
-1490.34
-1483.13
-1480.14
-1488.77
-1513.5
-1540.36
-1572.17
-1602.24
-1630.13
-1656.17
-1681.36
-1706.78
-1733.48
-1761.97
-1792.23
-1824.13
-1857.49
-1892.02
-1927.14
-1961.59
-1993.34
-2018.8
-2032.78
-2033.12
-2019.9
-1997.02
-1970.35
-1941.85
-1911.08
-1879.96
-1852.07
-1831.51
-1819.49
-1816.31
-1824.97
-1836.34
-1853.09
-1864.66
-1859.77
-1839.67
-1816.7
-1791.71
-1769.27
-1755.72
-1746.75
-1740.09
-1738.5
-1740.25
-1746.29
-1757.06
-1772.99
-1796.09
-1828.61
-1872.02
-1925.45
-1983.81
-2039.47
-2088.7
-2133.17
-2174.69
-2213.28
-2248.85
-2282.54
-2316.09
-2350.47
-2385.33
-2420.64
-2458.09
-2499.39
-2542.84
-2580.92
-2607.91
-2626.94
-2650.17
-2674.66
-2685.54
-2706.58
-2700.29
-2667.28
-2593.63
-2450.13
-2249.5
-2029.98
-1809.02
-1593.06
-1385.71
-1190.03
-1007.77
-839.218
-683.5
-540
-406.428
-282.78
-163.927
-54.6616
-1559.74
-1541.12
-1525.02
-1511.01
-1499.13
-1489.69
-1482.25
-1478.79
-1487.35
-1512.77
-1539.96
-1572.14
-1602.31
-1630.17
-1656.12
-1681.17
-1706.47
-1733.11
-1761.61
-1791.96
-1824.02
-1857.66
-1892.62
-1928.37
-1963.71
-1996.61
-2023.34
-2038.02
-2038.31
-2024.42
-2000.74
-1973.53
-1944.38
-1912.63
-1880.31
-1851.15
-1829.71
-1817.3
-1814.65
-1824.73
-1837.45
-1856.8
-1869.54
-1863.92
-1842.03
-1818.5
-1792.33
-1769.16
-1755.63
-1746.58
-1739.76
-1738.08
-1740.38
-1746.21
-1757.03
-1773.3
-1796.97
-1830.33
-1874.84
-1929.38
-1988.26
-2043.71
-2092.85
-2137.79
-2180.01
-2219.21
-2255.26
-2289.41
-2323.49
-2358.41
-2393.8
-2429.84
-2468.44
-2511.28
-2555.99
-2594.18
-2620.11
-2638.4
-2662.18
-2685.06
-2695.6
-2723.97
-2715.11
-2673.57
-2600.31
-2454.69
-2254.06
-2035.86
-1815.68
-1599.9
-1392.59
-1197.07
-1014.97
-846.375
-690.358
-546.379
-412.335
-288.05
-168.747
-57.3971
-1560.13
-1541.29
-1525.08
-1510.89
-1498.77
-1489.05
-1481.39
-1477.48
-1485.93
-1512.04
-1539.55
-1572.09
-1602.36
-1630.19
-1656.04
-1680.96
-1706.13
-1732.71
-1761.23
-1791.67
-1823.91
-1857.83
-1893.23
-1929.64
-1965.92
-2000.04
-2028.16
-2043.56
-2043.76
-2029.09
-2004.6
-1976.84
-1947.05
-1914.31
-1880.78
-1850.26
-1827.85
-1815.04
-1813.05
-1824.5
-1838.57
-1860.64
-1874.33
-1867.92
-1844.23
-1820.22
-1792.83
-1769.13
-1755.68
-1746.57
-1739.8
-1737.87
-1740.55
-1746.27
-1757.18
-1773.79
-1798.05
-1832.22
-1877.74
-1933.15
-1992.27
-2047.52
-2096.84
-2142.44
-2185.43
-2225.23
-2261.79
-2296.49
-2331.16
-2366.69
-2402.77
-2439.78
-2479.75
-2524.1
-2569.78
-2607.66
-2632.18
-2649.57
-2672.97
-2693.47
-2703.99
-2727.78
-2721.15
-2675.16
-2598.68
-2450.56
-2252.84
-2038.01
-1819.89
-1605.1
-1398.38
-1203.39
-1021.76
-853.353
-697.236
-552.903
-418.507
-293.698
-174.731
-61.0811
-1560.51
-1541.46
-1525.16
-1510.78
-1498.42
-1488.42
-1480.53
-1476.23
-1484.52
-1511.3
-1539.14
-1572.03
-1602.38
-1630.18
-1655.94
-1680.73
-1705.77
-1732.29
-1760.83
-1791.37
-1823.79
-1858.01
-1893.86
-1930.95
-1968.21
-2003.62
-2033.22
-2049.36
-2049.41
-2033.89
-2008.57
-1980.26
-1949.8
-1916.1
-1881.37
-1849.43
-1825.96
-1812.75
-1811.54
-1824.23
-1839.63
-1864.48
-1878.66
-1871.54
-1846.14
-1821.74
-1793.16
-1769.15
-1755.81
-1746.64
-1740.02
-1738
-1740.77
-1746.48
-1757.5
-1774.49
-1799.33
-1834.3
-1880.72
-1936.84
-1996.07
-2051.24
-2100.93
-2147.33
-2191.14
-2231.61
-2268.75
-2304.03
-2339.3
-2375.4
-2412.16
-2450.14
-2491.38
-2537.04
-2583.41
-2620.94
-2644.48
-2661.25
-2683.19
-2701.3
-2713.24
-2730.32
-2715.42
-2665.69
-2590.23
-2443.05
-2250.81
-2040.51
-1825.07
-1611.83
-1406.18
-1212.03
-1030.94
-862.593
-706.049
-560.869
-425.511
-299.464
-180.317
-64.327
-1560.92
-1541.64
-1525.24
-1510.67
-1498.07
-1487.81
-1479.68
-1475.02
-1483.12
-1510.58
-1538.75
-1571.95
-1602.38
-1630.14
-1655.82
-1680.47
-1705.38
-1731.85
-1760.42
-1791.05
-1823.66
-1858.18
-1894.48
-1932.26
-1970.54
-2007.29
-2038.47
-2055.41
-2055.27
-2038.82
-2012.64
-1983.78
-1952.62
-1917.98
-1882.08
-1848.67
-1824.07
-1810.44
-1810.23
-1823.95
-1840.62
-1868.1
-1882.16
-1874.5
-1847.63
-1822.9
-1793.26
-1769.21
-1755.97
-1746.74
-1740.14
-1738.25
-1741.09
-1746.85
-1758.02
-1775.39
-1800.84
-1836.55
-1883.76
-1940.39
-1999.69
-2054.92
-2105.17
-2152.51
-2197.29
-2238.61
-2276.49
-2312.44
-2348.31
-2385
-2422.44
-2461.34
-2503.67
-2550.35
-2597.21
-2634.46
-2657.38
-2673.75
-2693.74
-2709.61
-2721.68
-2733.37
-2714.12
-2657.56
-2578.93
-2434.38
-2248.61
-2043.51
-1831.33
-1620.11
-1415.9
-1222.86
-1042.44
-874.108
-716.911
-570.541
-433.84
-306.104
-186.226
-67.7928
-1561.35
-1541.83
-1525.33
-1510.57
-1497.74
-1487.22
-1478.84
-1473.86
-1481.73
-1509.87
-1538.36
-1571.86
-1602.36
-1630.09
-1655.67
-1680.18
-1704.97
-1731.39
-1759.98
-1790.73
-1823.52
-1858.33
-1895.09
-1933.57
-1972.87
-2011.04
-2043.93
-2061.73
-2061.36
-2043.9
-2016.86
-1987.41
-1955.5
-1919.93
-1882.93
-1848.03
-1822.23
-1808.2
-1809.26
-1823.69
-1841.52
-1871.31
-1884.59
-1876.6
-1848.65
-1823.56
-1793.1
-1769.25
-1756.11
-1746.82
-1740.17
-1738.56
-1741.56
-1747.39
-1758.74
-1776.51
-1802.56
-1838.98
-1886.85
-1943.83
-2003.15
-2058.58
-2109.57
-2157.97
-2203.86
-2246.2
-2285
-2321.75
-2358.32
-2395.67
-2433.91
-2473.81
-2517.24
-2564.81
-2612.11
-2649.21
-2671.73
-2687.42
-2704.9
-2718.84
-2729.46
-2732.53
-2708.36
-2649.43
-2566.28
-2424.96
-2245.52
-2045.8
-1837.27
-1628.44
-1425.9
-1234.09
-1054.41
-886.122
-728.248
-580.574
-442.322
-312.737
-191.813
-71.1795
-1561.8
-1542.03
-1525.43
-1510.48
-1497.42
-1486.65
-1478
-1472.77
-1480.32
-1509.18
-1537.98
-1571.76
-1602.33
-1630.01
-1655.5
-1679.88
-1704.53
-1730.9
-1759.54
-1790.39
-1823.37
-1858.46
-1895.67
-1934.84
-1975.22
-2014.87
-2049.62
-2068.34
-2067.7
-2049.14
-2021.23
-1991.18
-1958.45
-1921.96
-1883.91
-1847.52
-1820.48
-1806.22
-1808.39
-1823.29
-1842.23
-1873.85
-1886
-1877.79
-1849.21
-1823.62
-1792.7
-1769.21
-1756.23
-1746.89
-1740.25
-1738.92
-1742.22
-1748.11
-1759.65
-1777.86
-1804.5
-1841.58
-1889.97
-1947.15
-2006.5
-2062.28
-2114.14
-2163.72
-2210.83
-2254.33
-2294.2
-2331.89
-2369.24
-2407.35
-2446.48
-2487.46
-2531.91
-2580.23
-2627.84
-2664.89
-2687.18
-2701.97
-2716.7
-2728.75
-2737.48
-2732.75
-2701.87
-2640.78
-2553.85
-2415.93
-2242.33
-2047.85
-1843.14
-1636.94
-1436.24
-1245.7
-1066.71
-898.381
-739.693
-590.585
-450.906
-319.832
-196.979
-74.7306
-1562.25
-1542.24
-1525.55
-1510.39
-1497.11
-1486.1
-1477.17
-1471.78
-1478.89
-1508.52
-1537.63
-1571.65
-1602.27
-1629.91
-1655.32
-1679.54
-1704.07
-1730.39
-1759.07
-1790.04
-1823.2
-1858.57
-1896.22
-1936.09
-1977.57
-2018.79
-2055.55
-2075.27
-2074.28
-2054.55
-2025.78
-1995.11
-1961.51
-1924.08
-1885.04
-1847.2
-1818.77
-1804.47
-1806.97
-1822.6
-1842.69
-1875.5
-1886.61
-1877.76
-1849.27
-1823.05
-1792.05
-1769.09
-1756.31
-1746.95
-1740.42
-1739.33
-1743.04
-1749.02
-1760.76
-1779.41
-1806.66
-1844.34
-1893.13
-1950.39
-2009.77
-2066.03
-2118.9
-2169.74
-2218.17
-2262.98
-2304.09
-2342.85
-2381.11
-2420.09
-2460.23
-2502.31
-2547.72
-2596.63
-2644.43
-2681.5
-2703.65
-2717.43
-2729.45
-2739.21
-2744.55
-2733.07
-2696.19
-2633.1
-2543.14
-2408.43
-2240.09
-2050.59
-1849.74
-1646.27
-1447.46
-1258.13
-1079.71
-911.271
-751.845
-601.577
-460.736
-327.351
-199.688
-77.7831
-1562.67
-1542.46
-1525.67
-1510.32
-1496.82
-1485.58
-1476.35
-1470.94
-1477.48
-1507.88
-1537.3
-1571.53
-1602.19
-1629.79
-1655.11
-1679.19
-1703.58
-1729.86
-1758.59
-1789.67
-1823.01
-1858.66
-1896.73
-1937.31
-1979.94
-2022.81
-2061.7
-2082.49
-2081.08
-2060.13
-2030.52
-1999.21
-1964.69
-1926.32
-1886.34
-1847.11
-1816.92
-1803.27
-1805.63
-1821.99
-1842.98
-1875.93
-1886.53
-1876.33
-1848.74
-1821.89
-1791.17
-1768.93
-1756.36
-1747.02
-1740.67
-1739.78
-1743.91
-1750.08
-1762.04
-1781.17
-1809.01
-1847.25
-1896.33
-1953.59
-2013.02
-2069.86
-2123.83
-2176
-2225.85
-2272.11
-2314.61
-2354.58
-2393.88
-2433.85
-2475.08
-2518.3
-2564.61
-2613.96
-2661.81
-2698.9
-2720.95
-2733.68
-2743.2
-2750.36
-2751.37
-2734.17
-2691.79
-2626.99
-2534.7
-2402.83
-2239.23
-2054.36
-1857.27
-1656.55
-1459.66
-1271.57
-1093.77
-925.284
-765.064
-613.291
-470.513
-334.32
-203.169
-81.4236
-1563.09
-1542.7
-1525.81
-1510.26
-1496.55
-1485.1
-1475.58
-1470.28
-1476.17
-1507.28
-1536.99
-1571.41
-1602.1
-1629.65
-1654.89
-1678.8
-1703.06
-1729.31
-1758.1
-1789.29
-1822.8
-1858.71
-1897.21
-1938.51
-1982.31
-2026.91
-2068.07
-2089.98
-2088.07
-2065.87
-2035.45
-2003.51
-1968.04
-1928.72
-1887.84
-1847.37
-1815.31
-1803.14
-1805.55
-1821.83
-1843.03
-1874.95
-1885.18
-1874.35
-1847.5
-1820.17
-1790.1
-1768.74
-1756.36
-1747.07
-1740.98
-1740.26
-1744.75
-1751.26
-1763.49
-1783.1
-1811.54
-1850.28
-1899.59
-1956.79
-2016.3
-2073.8
-2128.93
-2182.49
-2233.84
-2281.68
-2325.72
-2367.06
-2407.54
-2448.62
-2491.02
-2535.39
-2582.56
-2632.2
-2679.94
-2717.03
-2738.95
-2750.66
-2757.94
-2762.04
-2758.16
-2736.33
-2689.09
-2622.51
-2528.46
-2399.05
-2239.67
-2059.11
-1865.71
-1667.88
-1473.05
-1286.22
-1108.84
-940
-778.897
-626.091
-482.009
-343.957
-212.765
-86.565
-1563.55
-1542.94
-1525.96
-1510.21
-1496.29
-1484.64
-1474.86
-1469.74
-1475.06
-1506.72
-1536.71
-1571.27
-1601.99
-1629.49
-1654.64
-1678.39
-1702.52
-1728.74
-1757.59
-1788.89
-1822.56
-1858.73
-1897.65
-1939.67
-1984.68
-2031.06
-2074.61
-2097.7
-2095.19
-2071.74
-2040.59
-2007.99
-1971.56
-1931.3
-1889.58
-1848.07
-1814.76
-1803.52
-1806.22
-1821.99
-1842.8
-1872.84
-1882.64
-1871.51
-1845.45
-1817.92
-1788.86
-1768.5
-1756.29
-1747.1
-1741.31
-1740.77
-1745.54
-1752.54
-1765.06
-1785.17
-1814.19
-1853.41
-1902.89
-1960.01
-2019.64
-2077.87
-2134.22
-2189.2
-2242.12
-2291.65
-2337.37
-2380.24
-2422.04
-2464.35
-2507.99
-2553.54
-2601.51
-2651.33
-2698.82
-2735.81
-2757.59
-2768.32
-2773.62
-2774.42
-2765.87
-2739.62
-2688.55
-2619.93
-2524.55
-2397.26
-2241.67
-2065.17
-1875.42
-1680.48
-1487.62
-1301.82
-1124.75
-955.781
-794.198
-640.376
-494.265
-353.868
-223.009
-91.9259
-1564.02
-1543.2
-1526.12
-1510.18
-1496.04
-1484.21
-1474.21
-1469.23
-1474.22
-1506.21
-1536.46
-1571.14
-1601.88
-1629.31
-1654.37
-1677.95
-1701.95
-1728.15
-1757.06
-1788.47
-1822.3
-1858.72
-1898.06
-1940.8
-1987.02
-2035.26
-2081.28
-2105.57
-2102.39
-2077.72
-2045.93
-2012.65
-1975.28
-1934.1
-1891.6
-1849.1
-1814.75
-1804.26
-1807.41
-1822.39
-1842.35
-1869.88
-1878.92
-1867.69
-1842.56
-1815.23
-1787.5
-1768.19
-1756.12
-1747.07
-1741.62
-1741.29
-1746.28
-1753.88
-1766.74
-1787.33
-1816.91
-1856.59
-1906.23
-1963.28
-2023.07
-2082.08
-2139.67
-2196.12
-2250.66
-2301.97
-2349.51
-2394.07
-2437.36
-2481.02
-2525.97
-2572.69
-2621.43
-2671.36
-2718.43
-2755.21
-2776.81
-2786.66
-2790.24
-2787.84
-2775.6
-2744.54
-2690.54
-2619.85
-2523.46
-2397.93
-2245.66
-2072.84
-1886.5
-1694.3
-1503.35
-1318.57
-1141.71
-972.306
-809.79
-654.48
-506.052
-363.196
-231.343
-96.9954
-1564.49
-1543.47
-1526.3
-1510.15
-1495.82
-1483.81
-1473.61
-1468.74
-1473.6
-1505.75
-1536.23
-1571
-1601.75
-1629.12
-1654.08
-1677.48
-1701.35
-1727.53
-1756.5
-1788.02
-1822.01
-1858.68
-1898.44
-1941.89
-1989.33
-2039.46
-2087.99
-2113.44
-2109.5
-2083.72
-2051.46
-2017.48
-1979.2
-1937.15
-1893.9
-1850.39
-1815.31
-1805.45
-1809.03
-1823.02
-1841.78
-1866.41
-1874.27
-1863.05
-1838.93
-1812.23
-1786.08
-1767.78
-1755.84
-1746.96
-1741.88
-1741.8
-1747.01
-1755.27
-1768.48
-1789.54
-1819.66
-1859.77
-1909.57
-1966.59
-2026.61
-2086.42
-2145.27
-2203.2
-2259.41
-2312.59
-2362.08
-2408.5
-2453.46
-2498.61
-2544.93
-2592.82
-2642.3
-2692.26
-2738.82
-2775.2
-2796.59
-2805.71
-2807.81
-2802.45
-2787.25
-2751.47
-2694.76
-2622.15
-2524.87
-2400.64
-2251.15
-2081.61
-1898.5
-1709.03
-1519.96
-1335.98
-1158.97
-988.806
-825.205
-668.398
-517.767
-372.809
-239.958
-102.075
-1564.91
-1543.76
-1526.49
-1510.14
-1495.61
-1483.43
-1473.09
-1468.29
-1473.13
-1505.34
-1536.02
-1570.86
-1601.6
-1628.9
-1653.76
-1676.98
-1700.72
-1726.89
-1755.92
-1787.54
-1821.69
-1858.61
-1898.79
-1942.95
-1991.6
-2043.63
-2094.63
-2121.13
-2116.27
-2089.64
-2057.15
-2022.47
-1983.32
-1940.47
-1896.48
-1852.01
-1816.53
-1807.07
-1811.02
-1823.85
-1841.16
-1862.83
-1869.14
-1857.88
-1834.81
-1809.12
-1784.65
-1767.25
-1755.44
-1746.76
-1742.04
-1742.24
-1747.73
-1756.72
-1770.26
-1791.75
-1822.38
-1862.9
-1912.88
-1969.93
-2030.24
-2090.88
-2151.01
-2210.44
-2268.34
-2323.46
-2375.02
-2423.47
-2470.29
-2517.07
-2564.84
-2613.92
-2664.1
-2714.04
-2760
-2795.81
-2816.92
-2825.44
-2826.15
-2818.22
-2799.68
-2759.82
-2700.54
-2625.87
-2527.65
-2404.31
-2257.18
-2090.7
-1910.76
-1724.02
-1536.76
-1353.52
-1176.33
-1005.4
-840.713
-682.404
-529.621
-383.035
-250.113
-107.348
-1565.35
-1544.06
-1526.69
-1510.14
-1495.41
-1483.08
-1472.62
-1467.87
-1472.74
-1504.96
-1535.83
-1570.71
-1601.44
-1628.66
-1653.41
-1676.45
-1700.06
-1726.22
-1755.32
-1787.05
-1821.36
-1858.54
-1899.12
-1943.98
-1993.82
-2047.72
-2101.1
-2128.4
-2122.45
-2095.32
-2062.94
-2027.58
-1987.64
-1944.08
-1899.34
-1853.97
-1818.35
-1809.11
-1813.24
-1824.83
-1840.57
-1859.42
-1863.94
-1852.55
-1830.54
-1806.08
-1783.25
-1766.59
-1754.89
-1746.43
-1742.07
-1742.58
-1748.38
-1758.19
-1772.05
-1793.92
-1825.03
-1865.94
-1916.11
-1973.27
-2033.93
-2095.44
-2156.84
-2217.79
-2277.41
-2334.5
-2388.24
-2438.89
-2487.75
-2536.34
-2585.65
-2635.94
-2686.79
-2736.68
-2782
-2817.11
-2837.86
-2845.83
-2845.04