/*--------------------------------*- C++ -*----------------------------------*\
| =========                 |                                                 |
| \\      /  F ield         | OpenFOAM: The Open Source CFD Toolbox           |
|  \\    /   O peration     | Version:  4.1                                   |
|   \\  /    A nd           | Web:      www.OpenFOAM.org                      |
|    \\/     M anipulation  |                                                 |
\*---------------------------------------------------------------------------*/
FoamFile
{
    version     2.0;
    format      ascii;
    class       surfaceScalarField;
    location    "1800";
    object      phi;
}
// * * * * * * * * * * * * * * * * * * * * * * * * * * * * * * * * * * * * * //

dimensions      [0 3 -1 0 0 0 0];

internalField   nonuniform List<scalar> 
52920
(
1345
167.117
1175.22
169.789
1005.71
169.529
847.336
158.408
724.793
122.601
661.742
63.0948
687.774
-25.977
855.611
-167.798
1168.06
-312.415
1540.89
-372.81
1933.71
-392.798
2306.5
-372.76
2645.39
-338.875
2951.75
-306.337
3232.94
-281.168
3496.08
-263.118
3744.95
-248.848
3980.06
-235.1
4200.43
-220.348
4405.6
-205.157
4596.63
-191.011
4775.24
-178.601
4941.91
-166.655
5093.88
-151.95
5224.31
-130.418
5322.68
-98.359
5377.76
-55.0712
5380.36
-2.58464
5329.78
50.5856
5235.75
94.0456
5105
130.756
4942.8
162.214
4758.6
184.207
4566.52
192.096
4385.68
180.848
4238.42
147.283
4143.8
94.6323
4116.51
27.3038
4171.87
-55.3463
4305.8
-133.913
4497.97
-192.16
4724.33
-226.337
4950.14
-225.8
5143.66
-193.504
5291.75
-148.086
5403.32
-111.552
5502.08
-98.7409
5614.92
-112.838
5762.46
-147.521
5956.86
-194.393
6204.41
-247.529
6510.43
-306.018
6881.68
-371.229
7314.81
-433.128
7799.23
-484.414
8329.24
-530.003
8906.18
-576.931
9531.86
-625.674
10201.1
-669.192
10899.3
-698.216
11606.6
-707.374
12305.1
-698.463
12984.9
-679.756
13646.9
-662.03
14301.1
-654.188
14962.2
-661.125
15646
-683.809
16366.4
-720.352
17133.7
-767.318
17954.6
-820.865
18832.1
-877.527
19766.5
-934.411
20755.2
-988.74
21792.4
-1037.17
22867.6
-1075.22
23965.1
-1097.43
25062.6
-1097.52
26131.1
-1068.51
27133.1
-1002.06
28022.7
-889.52
28746
-723.374
29247.1
-501.055
29485.8
-238.754
29436.8
49.0404
29099.9
336.859
28513.1
586.834
27734.3
778.862
26825.1
909.178
25840
985.102
24823.9
1016.11
23812.5
1011.33
22832.9
979.671
21902.9
929.971
21032.3
870.596
20224.1
808.202
19476
748.083
18783.3
692.68
18139.9
643.398
17534.6
605.364
547.675
1342.82
332.931
1174.43
338.19
1005.71
338.274
847.381
316.764
723.096
246.941
655.036
131.198
684.111
-54.9952
873.071
-356.724
1223.33
-662.643
1632.71
-782.169
2047.83
-807.898
2430.82
-755.725
2771.1
-679.135
3072.41
-607.626
3343.5
-552.246
3592.68
-512.273
3825.18
-481.33
4043.2
-453.108
4247.26
-424.388
4437.87
-395.753
4616.38
-369.498
4784.31
-346.522
4941.82
-324.148
5085.94
-296.053
5209.79
-254.255
5302.8
-191.355
5353.61
-105.871
5352.65
-1.6113
5298.41
104.832
5200.83
191.637
5066.79
264.807
4902.19
326.829
4716.66
369.751
4524.39
384.371
4344.59
360.668
4200.01
291.877
4109.4
185.257
4087.06
49.6623
4146.41
-114.685
4280.22
-267.709
4463.2
-375.126
4665.01
-428.132
4847.77
-408.543
4982.03
-327.746
5059.79
-225.842
5094.65
-146.396
5112.03
-116.1
5137.22
-138.012
5187.8
-198.078
5273.36
-279.943
5398.37
-372.528
5569.26
-476.897
5802.36
-604.309
6109.3
-740.063
6492.13
-867.236
6952.59
-990.46
7495.29
-1119.62
8122.28
-1252.66
8825.61
-1372.52
9584.99
-1457.6
10372.5
-1494.93
11161.5
-1487.38
11934
-1452.27
12684.6
-1412.64
13418.5
-1388.06
14147.8
-1390.44
14888.3
-1424.35
15656.5
-1488.5
16466.6
-1577.44
17329
-1683.3
18249.2
-1797.69
19227.9
-1913.07
20261.7
-2022.59
21343.5
-2118.97
22461.4
-2193.15
23598.5
-2234.45
24731.5
-2230.51
25830.5
-2167.56
26857.5
-2029.08
27766
-1797.94
28501.8
-1459.2
29009.7
-1008.98
29251.3
-480.312
29203
97.3113
28865.4
674.488
28273.6
1178.6
27486.8
1565.69
26567.8
1828.19
25571.6
1981.25
24543.5
2044.19
23519.6
2035.24
22527.1
1972.17
21584.4
1872.71
20701.3
1753.67
19880.9
1628.58
19121.2
1507.82
18416.9
1396.99
17763.4
1296.9
17145.9
1222.9
1101.27
1340.14
496.522
1175.23
503.105
1011.12
502.409
858.732
469.171
740.464
365.255
679.54
192.157
737.147
-112.557
971.966
-591.519
1353.32
-1043.98
1765.94
-1194.77
2165.1
-1207.04
2525.26
-1115.86
2842.26
-996.126
3122.3
-887.649
3374.89
-804.818
3608.5
-745.866
3828.43
-701.243
4036.74
-661.402
4233.49
-621.123
4418.47
-580.714
4592.15
-543.171
4755.42
-509.772
4908.1
-476.822
5047.33
-435.267
5166.48
-373.397
5255.22
-280.078
5302.33
-152.971
5298.09
2.64475
5240.33
162.595
5139.53
292.449
5002.62
401.727
4835.95
493.508
4649.21
556.506
4456.71
576.879
4277.7
539.692
4135.02
434.569
4046.25
274.049
4024.26
71.668
4078.83
-169.245
4195.06
-383.927
4339.65
-519.696
4481.14
-569.612
4587.7
-515.088
4636.73
-376.763
4623.65
-212.747
4564.5
-87.2291
4487.49
-39.0673
4419.59
-70.1021
4378.58
-157.051
4372.92
-274.268
4405.02
-404.606
4482.76
-554.629
4633.31
-754.845
4877.11
-983.855
5215.42
-1205.53
5646.35
-1421.39
6174.07
-1647.32
6802.16
-1880.75
7523.06
-2093.41
8314.86
-2249.4
9146.85
-2326.91
9988.87
-2329.41
10819.7
-2283.15
11631.3
-2224.15
12427.8
-2184.64
13223.6
-2186.24
14037.5
-2238.21
14886.9
-2337.87
15783.1
-2473.66
16730
-2630.21
17725.9
-2793.6
18766.6
-2953.81
19847.4
-3103.29
20962.1
-3233.71
22101.7
-3332.8
23251.9
-3384.63
24391.6
-3370.15
25492.2
-3268.18
26516.8
-3053.7
27419.8
-2700.88
28147.4
-2186.8
28644.8
-1506.46
28874.5
-710.026
28811.7
160.128
28455.1
1031.13
27839.2
1794.44
27026.7
2378.22
26083.5
2771.43
25065.9
2998.8
24019.4
3090.7
22979.7
3074.92
21973.8
2978.1
21019.6
2826.91
20126.6
2646.7
19297.2
2457.96
18529.1
2275.95
17816.4
2109.64
17155.4
1957.94
16529.3
1848.98
1659.08
1338.31
656.287
1179.43
661.996
1023.93
657.928
883.144
609.981
777.231
471.211
732.23
237.194
823.071
-203.357
1088.38
-856.804
1463.65
-1419.23
1844.44
-1575.55
2204.79
-1567.37
2529.64
-1440.7
2817.77
-1284.24
3075.18
-1145.04
3310.75
-1040.37
3532.46
-967.553
3745.27
-914.039
3950.77
-866.886
4148.16
-818.497
4336
-768.531
4513.37
-720.531
4679.98
-676.365
4834.99
-631.818
4975.39
-575.655
5094.84
-492.831
5183.38
-368.603
5230.2
-199.783
5225.56
7.30067
5166.64
221.522
5064.61
394.488
4926.41
539.939
4758.57
661.358
4570.66
744.432
4376.94
770.607
4196.56
720.087
4051.91
579.232
3959.13
366.85
3928.98
101.831
3967.97
-208.22
4056.91
-472.851
4162.78
-625.549
4262.27
-669.082
4329.31
-582.119
4338.47
-385.905
4277.89
-152.159
4161.73
28.9496
4020.75
101.938
3887.16
63.5046
3786.98
-56.8425
3733.02
-220.294
3730.66
-402.222
3792.92
-616.878
3952.11
-914.017
4218.65
-1250.39
4575.18
-1562.05
5009.87
-1856.07
5528.21
-2165.66
6139.93
-2492.46
6842.73
-2796.2
7617.32
-3023.98
8434.18
-3143.77
9265.66
-3160.89
10095.9
-3113.42
10924
-3052.22
11759.8
-3020.39
12616.4
-3042.88
13503.3
-3125.1
14422.8
-3257.41
15372.1
-3422.96
16347.3
-3605.35
17346.8
-3793.16
18372.7
-3979.68
19428.1
-4158.71
20514
-4319.62
21625.3
-4444.05
22749
-4508.32
23864.2
-4485.4
24943
-4346.93
25949.4
-4060.14
26839.4
-3590.85
27559.5
-2906.92
28054.4
-2001.36
28286.3
-941.926
28225.7
220.738
27864.3
1392.55
27233.1
2425.57
26397.9
3213.44
25429.1
3740.23
24386.5
4041.4
23317.7
4159.53
22259.9
4132.66
21241
3997.07
20278.6
3789.26
19381.5
3543.79
18550.9
3288.53
17783.4
3043.48
17072
2821.02
16412.7
2617.26
15788.2
2473.5
2213.85
1337.86
810.58
1187.04
812.814
1042.87
802.116
916.799
736.072
825.657
562.39
801.636
261.244
918.801
-320.492
1186.73
-1124.72
1528.51
-1760.99
1864.16
-1911.19
2183.42
-1886.62
2475.45
-1732.71
2738.31
-1547.08
2976.2
-1382.92
3196.94
-1261.08
3408.17
-1178.77
3614.96
-1120.82
3818.86
-1070.76
4018.56
-1018.19
4211.62
-961.579
4395.78
-904.681
4569.42
-849.983
4730.75
-793.142
4876.39
-721.277
5000.05
-616.485
5092.09
-460.624
5142
-249.69
5139.92
9.40065
5082.19
279.258
4980.84
495.848
4842.73
678.056
4674.4
829.709
4485.05
933.785
4288.58
967.087
4103.89
904.796
3952.77
730.358
3851.03
468.604
3807.93
144.951
3829.11
-229.384
3897.8
-541.528
3989.35
-717.08
4088.62
-768.339
4164.34
-657.829
4177.82
-399.367
4108.77
-83.0996
3970.99
166.75
3797.79
275.162
3629.03
232.279
3496.86
75.3478
3419.74
-143.165
3408.55
-391.003
3479.07
-687.387
3659.99
-1094.92
3947.26
-1537.64
4310.39
-1925.16
4734.64
-2280.32
5231.14
-2662.15
5818.69
-3080.01
6500.32
-3477.83
7255.99
-3779.66
8055.26
-3943.04
8874.5
-3980.13
9704.94
-3943.85
10548.7
-3895.96
11409.3
-3881.05
12285.8
-3919.3
13172.6
-4011.95
14065.2
-4150.01
14963.9
-4321.61
15874.6
-4516.1
16807
-4725.58
17770.9
-4943.53
18772.5
-5160.38
19812.2
-5359.32
20882.3
-5514.05
21967.6
-5593.64
23047.3
-5565.09
24095.6
-5395.25
25080.2
-5044.76
25959.9
-4470.5
26681.1
-3628.15
27186
-2506.26
27436.7
-1192.64
27400.6
256.861
27061.7
1731.47
26444.5
3042.76
25614
4043.89
24641.5
4712.77
23587.8
5095.1
22503.2
5244.15
21429
5206.81
20396.9
5029.16
19427.1
4759.05
18528.7
4442.19
17702.1
4115.17
16942.3
3803.32
16240.7
3522.56
15592.3
3265.68
14979.4
3086.4
2757.63
1341.57
954.236
1202.51
951.879
1072.19
932.458
962.173
846.107
887.158
637.441
883.571
264.862
1009.77
-446.664
1254.23
-1369.16
1551.36
-2058.11
1842.94
-2202.75
2127.24
-2170.91
2393.29
-1998.74
2636.56
-1790.33
2858.69
-1605.04
3066.25
-1468.62
3266.84
-1379.34
3466.11
-1320.08
3666.28
-1270.91
3866.25
-1218.14
4063.15
-1158.46
4253.72
-1095.24
4435.11
-1031.36
4604.49
-962.51
4757.74
-874.513
4888.34
-747.073
4986.66
-558.922
5042.28
-305.302
5044.97
6.72152
4990.02
334.225
4890.44
595.44
4752.92
815.581
4583.94
998.703
4392.33
1125.41
4191.39
1168.04
3999.87
1096.33
3839.37
890.869
3726.73
581.26
3671.55
200.157
3681.45
-239.271
3745.68
-605.739
3849.03
-820.417
3975.64
-894.93
4077.97
-760.153
4103.79
-425.172
4032.11
-11.4013
3882.64
316.238
3690.49
467.339
3501.56
421.217
3349.93
227.008
3257.94
-51.1606
3237.64
-370.672
3301.44
-751.177
3475.78
-1269.24
3752.16
-1814.02
4095.67
-2268.66
4493.04
-2677.69
4965.88
-3134.97
5542.81
-3656.94
6223.97
-4158.98
6979.98
-4535.67
7776.9
-4739.95
8593.12
-4796.35
9419.39
-4770.12
10250.6
-4727.16
11080.2
-4710.66
11901.8
-4740.88
12713.9
-4824.02
13522.5
-4958.64
14339.4
-5138.55
15177.7
-5354.41
16048
-5595.85
16956.5
-5852.01
17904.6
-6108.47
18888.9
-6343.67
19901.2
-6526.33
20929.4
-6621.78
21957.7
-6593.44
22966.6
-6404.19
23928.7
-6006.78
24804.5
-5346.34
25537.7
-4361.38
26063.4
-3031.92
26340.5
-1469.74
26334.3
263.03
26025.4
2040.4
25437.1
3631.05
24637.4
4843.63
23694.3
5655.8
22662.2
6127.19
21587.5
6318.85
20513.6
6280.8
19477.4
6065.27
18504.9
5731.61
17608.2
5338.85
16788.7
4934.69
16040.7
4551.3
15354.4
4208.87
14723.1
3896.97
14128.9
3680.65
3284.21
1351.54
1085.95
1226.77
1076.65
1112.58
1046.66
1019.17
939.535
959.32
697.323
966.815
257.392
1083.09
-562.912
1291.35
-1577.41
1544.49
-2311.24
1798.06
-2456.31
2055.12
-2427.95
2302.49
-2246.11
2532.04
-2019.87
2742.29
-1815.27
2938.44
-1664.76
3128.13
-1569.02
3317.92
-1509.85
3511.16
-1464.13
3707.67
-1414.64
3904.89
-1355.66
4099.24
-1289.58
4287.01
-1219.13
4464.26
-1139.75
4625.86
-1036.11
4764.78
-885.975
4871.16
-665.296
4934.38
-368.511
4943.47
-2.35388
4892.24
385.464
4794.87
692.826
4657.72
952.736
4487.32
1169.11
4292.3
1320.45
4085.57
1374.77
3886.01
1295.9
3715.63
1061.26
3593.37
703.543
3530.86
262.675
3540.32
-248.715
3616.08
-681.481
3746.24
-950.56
3904.93
-1053.6
4026.89
-882.104
4053.94
-452.211
3969.58
72.972
3803.69
482.151
3594.35
676.703
3390.02
625.55
3223.41
393.643
3116.27
55.9934
3082.28
-336.655
3127.54
-796.423
3281.22
-1422.9
3534.28
-2067.07
3848.4
-2582.76
4218.04
-3047.33
4680.24
-3597.16
5262.48
-4239.18
5946.78
-4843.28
6692.87
-5281.76
7469.52
-5516.59
8259.02
-5585.86
9050.1
-5561.2
9833.36
-5510.42
10601.9
-5479.17
11354.4
-5493.4
12097
-5566.61
12840.9
-5702.56
13598.3
-5895.93
14378.1
-6134.18
15184.6
-6402.38
16019.2
-6686.62
16882.6
-6971.87
17776
-7237.09
18699.3
-7449.62
19649.5
-7572
20618.2
-7562.13
21590.1
-7376.06
22538.8
-6955.51
23423.8
-6231.35
24183
-5120.6
24742.6
-3591.45
25057.8
-1784.97
25088.9
231.892
24807
2322.35
24237.4
4200.58
23465.3
5615.82
22564.5
6556.58
21580.4
7111.21
20546.8
7352.46
19500.7
7326.95
18481
7084.99
17518.9
6693.64
16632.2
6225.63
15824.9
5741.96
15092.5
5283.66
14424.8
4876.56
13814.2
4507.6
13242.4
4252.48
3789.7
1366.69
1204.67
1256.76
1186.59
1158.53
1144.91
1079.9
1018.18
1031.03
746.225
1040.09
248.366
1136.32
-659.114
1305.49
-1746.57
1518.44
-2524.18
1740.22
-2678.07
1976.83
-2664.54
2211.49
-2480.75
2431.75
-2240.11
2633.03
-2016.54
2819.38
-1851.09
2998.55
-1748.17
3178.01
-1689.3
3362.34
-1648.44
3552.52
-1604.8
3746.86
-1549.99
3942.07
-1484.77
4134.02
-1411.06
4317.84
-1323.55
4487.46
-1205.72
4635.35
-1033.85
4751.27
-781.205
4823.73
-440.955
4840.33
-18.9387
4792.97
432.835
4697.22
788.59
4559.18
1090.78
4385.84
1342.47
4186.05
1520.25
3972.76
1588.08
3765.2
1503.46
3586.47
1240.01
3457.94
832.08
3394.08
326.56
3413.41
-268.03
3510.5
-778.557
3669.21
-1109.25
3852.92
-1237.3
3984.3
-1013.47
4003.99
-471.891
3899.15
177.827
3709.2
672.113
3477.81
908.122
3256.34
847.031
3075.2
574.804
2952.3
178.913
2902.95
-287.271
2928.05
-821.5
3062.26
-1557.1
3294.14
-2298.95
3582.06
-2870.66
3932.71
-3397.98
4389.31
-4053.74
4961.08
-4810.96
5615.39
-5497.58
6320.43
-5986.8
7058.98
-6255.14
7816.41
-6343.28
8576.24
-6321.03
9324.1
-6258.28
10051.5
-6206.57
10757.6
-6199.53
11448.3
-6257.31
12132.6
-6386.87
12818.5
-6581.82
13510.3
-6825.99
14210.6
-7102.67
14925.1
-7401.13
15665.7
-7712.42
16447.7
-8019.13
17282.1
-8283.99
18170.3
-8460.15
19101.9
-8493.73
20057.3
-8331.51
21005.9
-7904.09
21904.4
-7129.91
22686.5
-5902.71
23272.1
-4176.98
23621.1
-2134.03
23695.6
157.474
23447.4
2570.51
22891.7
4756.28
22133
6374.5
21265.2
7424.37
20334.6
8041.81
19361.2
8325.91
18368.1
8319.98
17389
8064.13
16456.8
7625.86
15593.5
7088.96
14807.2
6528.2
14095.8
5995.05
13450.1
5522.32
12862.3
5095.32
12314.6
4800.19
4271.95
1386.43
1310.27
1290.1
1282.92
1205.16
1229.86
1137.37
1085.99
1094.71
788.91
1099.72
243.375
1172.03
-731.396
1302.54
-1877.06
1479.59
-2701.21
1674.75
-2873.23
1895.86
-2885.64
2121.68
-2706.55
2335.15
-2453.57
2528.92
-2210.3
2706.38
-2028.53
2875.66
-1917.43
3045.09
-1858.72
3220.3
-1823.63
3403.37
-1787.85
3593.54
-1740.15
3788.08
-1679.29
3982.74
-1605.72
4172.14
-1512.93
4349.68
-1383.25
4507.46
-1191.61
4634.41
-908.141
4717.17
-523.704
4741.2
-42.959
4696.29
477.753
4599.95
884.939
4458.51
1232.23
4280.01
1520.98
4074.05
1726.22
3853.93
1808.21
3639.43
1717.97
3454.92
1424.54
3323.88
963.13
3263.78
386.679
3299.02
-303.258
3419.05
-898.566
3602.86
-1293.04
3807.74
-1442.18
3946.22
-1151.94
3956.87
-482.523
3829.06
305.651
3609.46
891.725
3348.63
1168.98
3104.02
1091.65
2904.94
773.908
2764.43
319.43
2698.25
-221.064
2705.4
-828.636
2827.74
-1679.41
3047.57
-2518.77
3314.64
-3137.71
3639.96
-3723.3
4061.79
-4475.57
4582.06
-5331.23
5182.96
-6098.47
5854.3
-6658.14
6581.94
-6982.78
7337.71
-7099.05
8090.25
-7073.57
8816.72
-6984.75
9505.69
-6895.54
10155.5
-6849.33
10770.8
-6872.65
11358.8
-6974.88
11926.6
-7149.57
12482.3
-7381.73
13040.6
-7660.96
13625.8
-7986.31
14267.3
-8353.95
14988.2
-8740
15793
-9088.76
16669.4
-9336.6
17594.9
-9419.24
18543.9
-9280.46
19484.6
-8844.77
20376.9
-8022.23
21154.8
-6680.68
21732.9
-4755.07
22081.6
-2482.7
22175.6
63.4795
21954.9
2791.2
21415.8
5295.35
20667.4
7122.98
19822.7
8269
18939.2
8925.4
18030.3
9234.78
17105.1
9245.16
16186.3
8982.98
15303.1
8508.98
14479
7913.07
13725.1
7282.09
13042
6678.18
12422.3
6142
11859.7
5657.96
11337
5322.87
4729.7
1409.68
1403.92
1324.83
1367.77
1249.94
1304.76
1189
1146.95
1149.01
828.932
1146.82
245.583
1193.76
-778.307
1287.24
-1970.52
1431.95
-2845.91
1604.12
-3045.38
1813.12
-3094.62
2032.38
-2925.8
2240.01
-2661.19
2426.55
-2396.82
2595.38
-2197.34
2755.33
-2077.36
2915.61
-2018.99
3082.69
-1990.69
3259.48
-1964.63
3446.02
-1926.67
3640.01
-1873.27
3837.32
-1803.01
4032.41
-1708.01
4218.53
-1569.36
4387.3
-1360.36
4526.04
-1046.87
4618.62
-616.269
4648.18
-72.5023
4602.68
523.26
4502.34
985.296
4354.45
1380.14
4168.56
1706.88
3955.37
1939.42
3728.75
2034.84
3508.93
1937.79
3321.27
1612.21
3190.9
1093.52
3137.7
439.899
3189.87
-355.412
3331.04
-1039.72
3540.22
-1502.21
3768.95
-1670.89
3916.01
-1298.98
3917.03
-483.531
3765.67
457.022
3513.68
1143.74
3217.66
1465.01
2943.78
1365.54
2721.89
995.825
2560.51
480.83
2473.64
-134.164
2466.03
-820.994
2585.09
-1798.46
2795.63
-2729.29
3025.97
-3368.04
3291.48
-3988.81
3645.45
-4829.53
4112.42
-5798.19
4694.29
-6680.33
5378.07
-7341.92
6127.47
-7732.17
6891.86
-7863.44
7628.29
-7810
8311.49
-7667.95
8930.65
-7514.7
9484.17
-7402.85
9976.82
-7365.3
10419.7
-7417.76
10832.8
-7562.69
11247.1
-7796.04
11702.6
-8116.42
12238.2
-8521.87
12877.1
-8992.92
13618.2
-9481.03
14437.8
-9908.37
15308.3
-10207.2
16206.9
-10317.8
17115.5
-10189
18011
-9740.31
18863.6
-8874.84
19611.1
-7428.14
20158.2
-5302.17
20481
-2805.55
20564.3
-19.7938
20346.2
3009.33
19815.4
5826.12
19078
7860.35
18255.2
9091.83
17413.7
9766.89
16567.3
10081.2
15715.3
10097.1
14868.8
9829.47
14049.9
9327.93
13279.5
8683.51
12569.6
7991.98
11922.9
7324.88
11334.3
6730.59
10799.2
6193
10302.5
5819.55
5161.95
1442.28
1487.06
1364.62
1445.43
1294.92
1374.48
1236.35
1205.53
1195.56
869.747
1183.24
257.925
1204.23
-799.275
1262.72
-2029
1377.84
-2961.02
1529.77
-3197.31
1728.99
-3293.83
1942.53
-3139.33
2143.98
-2862.62
2322.84
-2575.67
2483.19
-2357.68
2634.7
-2228.86
2787.27
-2171.55
2948
-2151.4
3120.38
-2136.99
3304.9
-2111.18
3499.54
-2067.91
3700.33
-2003.79
3901.9
-1909.57
4097.45
-1764.89
4277.66
-1540.56
4427.37
-1196.58
4527.29
-716.173
4558.93
-104.136
4509.17
573.036
4401.7
1092.78
4245.14
1536.71
4050.6
1901.42
3829.92
2160.11
3597.52
2267.25
3373.89
2161.43
3184.93
1801.18
3057
1221.47
3011.59
485.326
3080.18
-423.989
3243.28
-1202.8
3482.38
-1741.3
3737.87
-1926.36
3892.18
-1453.28
3880.25
-471.583
3704.25
633.038
3419.22
1428.78
3085.63
1798.63
2779.05
1672.13
2531.09
1243.8
2345.38
666.56
2233.25
-22.0111
2213.22
-800.944
2325.35
-1910.57
2499.29
-2903.23
2654.11
-3522.85
2845.06
-4179.74
3161.31
-5145.78
3632.72
-6269.6
4244.36
-7291.96
4959.02
-8056.58
5720.48
-8493.63
6467.47
-8610.43
7154.18
-8496.7
7755.28
-8269.05
8259.76
-8019.18
8668
-7811.09
8995.42
-7692.72
9277.48
-7699.82
9568.28
-7853.48
9926.79
-8154.55
10395.8
-8585.43
10985.7
-9111.74
11674.6
-9681.85
12426.6
-10233
13210
-10691.8
14011.5
-11008.6
14825.5
-11131.8
15645.4
-11009
16456.6
-10551.5
17244
-9662.18
17952.1
-8136.28
18468.9
-5819
18771.8
-3108.44
18847.2
-95.1936
18624.7
3231.89
18094.3
6356.53
17368.7
8585.91
16572.1
9888.46
15774
10565
14988.9
10866.2
14211.3
10874.7
13443.3
10597.5
12698.5
10072.7
11992.9
9389.13
11337.1
8647.73
10734.7
7927.33
10182.4
7282.85
9677.88
6697.51
9208.47
6288.97
5567.57
1476.85
1559.12
1406.22
1516.07
1339.34
1441.38
1279.72
1265.16
1234.53
914.967
1209.2
283.272
1204.65
-794.69
1230.65
-2054.98
1318.86
-3049.22
1453.07
-3331.5
1643.78
-3484.53
1851.18
-3346.72
2045.39
-3056.81
2216.13
-2746.4
2368.6
-2510.13
2513.13
-2373.36
2660.05
-2318.45
2816.75
-2308.08
2986.98
-2307.2
3171.36
-2295.55
3368.03
-2264.56
3573.3
-2209.04
3782.14
-2118.4
3987.46
-1970.2
4178.16
-1731.26
4336.05
-1354.45
4439.27
-819.378
4469.2
-134.051
4412.31
629.936
4296.41
1208.69
4130.94
1702.19
3928.25
2104.12
3700.82
2387.55
3463.4
2504.68
3236.64
2388.2
3046.84
1990.99
2921.47
1346.85
2883.63
523.193
2969.58
-509.919
3158.38
-1391.59
3431.26
-2014.17
3711.62
-2206.71
3867.79
-1609.44
3837.69
-441.474
3635.76
834.984
3317.49
1747.06
2945.93
2170.21
2606.2
2011.86
2331.76
1518.25
2119.81
878.526
1981.3
116.543
1942.78
-762.394
2012.24
-1980.01
2099.59
-2990.57
2175.9
-3599.14
2354.53
-4358.37
2709.13
-5500.37
3224.13
-6784.6
3862.75
-7930.57
4583.25
-8777.08
5325.69
-9236.07
6022.47
-9307.21
6622.11
-9096.33
7096.8
-8743.74
7440.31
-8362.69
7672.23
-8043.01
7844.05
-7864.54
8032.93
-7888.71
8316.47
-8137.01
8738.13
-8576.22
9289.58
-9136.88
9923.16
-9745.33
10586.4
-10345.1
11254.8
-10901.4
11930.3
-11367.3
12621.6
-11699.9
13323.7
-11834
14026.9
-11712.1
14725.5
-11250.1
15430.3
-10367
16098.8
-8804.78
16589.6
-6309.76
16881.1
-3399.88
16968.5
-182.598
16762.7
3437.65
16244.5
6874.69
15539.7
9290.78
14778.9
10649.2
14031.3
11312.7
13310.3
11587.2
12608.4
11576.7
11922
11283.9
11257.3
10737.4
10624.3
10022.1
10030.6
9241.48
9479.04
8478.85
8968.02
7793.87
8496.98
7168.55
8056.32
6729.62
5945.37
1508.66
1623.98
1443.15
1581.59
1377.71
1506.82
1315.3
1327.58
1263.26
967.032
1223.63
322.917
1195.46
-766.497
1192.2
-2051.71
1256.73
-3113.74
1375.49
-3450.24
1558.19
-3667.23
1758.66
-3547.17
1944.83
-3242.97
2107.53
-2909.08
2253.17
-2655.76
2392.56
-2512.74
2536.12
-2462
2691.17
-2463.11
2861.29
-2477.32
3047.05
-2481.3
3246.77
-2464.26
3457.22
-2419.49
3673.59
-2334.75
3887.76
-2184.36
4086.14
-1929.63
4247.91
-1516.21
4350.45
-921.912
4376.43
-160.022
4311.99
694.394
4188.95
1331.73
4016.66
1874.49
3807.91
2312.88
3575.02
2620.45
3332.8
2746.91
3102.17
2618.84
2910.19
2182.99
2785.93
1471.12
2755.17
553.966
2860.91
-615.638
3079.14
-1609.8
3385.25
-2320.28
3683.23
-2504.67
3833.17
-1759.36
3779.3
-387.592
3552.01
1062.28
3200.95
2098.13
2791.61
2579.57
2419.93
2383.55
2120.64
1817.56
1882.91
1116.26
1720.52
278.958
1642.31
-684.152
1618.38
-1956.06
1615.09
-2987.27
1687.37
-3671.39
1932.47
-4603.47
2342.71
-5910.59
2874.74
-7316.64
3507.34
-8563.16
4207.26
-9477
4905.96
-9934.76
5521.12
-9922.36
5992.87
-9568.09
6300.12
-9050.99
6465.14
-8527.71
6554.78
-8132.65
6664.73
-7974.49
6883.41
-8107.39
7252.99
-8506.6
7752.6
-9075.82
8317.66
-9701.94
8882.79
-10310.5
9423.82
-10886.1
9968.22
-11445.8
10544.8
-11943.8
11141.1
-12296.3
11723.9
-12416.8
12289.3
-12277.4
12858.9
-11819.8
13475.4
-10983.5
14104.6
-9434.01
14558.5
-6763.59
14818.7
-3660.11
14911.2
-275.105
14737.9
3610.99
14254.6
7357.9
13589.7
9955.69
12880.7
11358.2
12195.2
11998.2
11544.8
12237.6
10921.6
12199.9
10319.4
11886.1
9738.79
11318
9183.55
10577.4
8657.42
9767.61
8162
8974.27
7696.38
8259.49
7261.46
7603.46
6851.01
7140.07
6294.2
1536.88
1685.56
1472.99
1645.49
1406.63
1573.2
1340
1394.23
1279.85
1027.21
1226.5
376.296
1177.87
-717.84
1149.1
-2022.92
1193.4
-3158.02
1298.61
-3555.44
1473.58
-3842.19
1666.7
-3740.28
1844.63
-3420.89
1999.87
-3064.3
2140.07
-2795.94
2276.25
-2648.9
2418.55
-2604.28
2573.83
-2618.37
2745.23
-2648.7
2933.2
-2669.25
3136.4
-2667.44
3352.04
-2635.11
3575.04
-2557.75
3795.6
-2404.9
3997.71
-2131.73
4159.77
-1678.26
4260.39
-1022.52
4283.64
-183.253
4214.29
763.763
4087.71
1458.32
3912.17
2050.04
3699.83
2525.23
3462.09
2858.21
3213.76
2995.25
2976.53
2856.08
2779.13
2380.4
2653.12
1597.14
2628.71
578.401
2756.44
-743.35
3005.3
-1858.64
3339.32
-2654.28
3643.74
-2809.08
3777.03
-1892.64
3692.64
-303.179
3444.18
1310.76
3063.79
2478.54
2618.22
3025.16
2216.67
2785.11
1894.76
2139.5
1633.64
1377.4
1451.1
461.536
1316.27
-549.281
1200.39
-1840.15
1177.14
-2964.01
1304.98
-3799.22
1600.36
-4898.84
2015.1
-6325.33
2529.52
-7831.06
3139.63
-9173.26
3804.6
-10142
4435.77
-10565.9
4933.94
-10420.5
5242.24
-9876.38
5374.22
-9182.98
5410.87
-8564.35
5465.06
-8186.84
5627.96
-8137.39
5933.43
-8412.86
6357.16
-8930.32
6837.58
-9556.24
7308.42
-10172.8
7738.52
-10740.6
8158.09
-11305.7
8628.85
-11916.5
9154.57
-12469.6
9661.56
-12803.3
10101.9
-12857.2
10524.3
-12699.8
10989.1
-12284.6
11538.6
-11533
12122.2
-10017.6
12498.3
-7139.67
12670.9
-3832.74
12720.5
-324.69
12562.7
3768.78
12125.7
7794.84
11521.8
10559.6
10884.6
11995.4
10276
12606.8
9705.13
12808.5
9165.38
12739.7
8650.44
12401
8156.75
11811.7
7682.62
11051.5
7227.86
10222.4
6792.25
9409.88
6375.31
8676.43
5978.64
8000.13
5599.6
7519.11
6613.34
1561.6
1746.77
1496.46
1710.64
1426.85
1642.81
1354.65
1466.44
1285.83
1096.05
1219.84
442.308
1153.68
-651.659
1103.21
-1972.44
1130.5
-3185.3
1223.84
-3648.77
1391.64
-4009.98
1577.51
-3926.14
1747.47
-3590.84
1896.16
-3212.98
2032.38
-2932.14
2167.03
-2783.54
2309.62
-2746.86
2466.16
-2774.91
2639.27
-2821.8
2829.4
-2859.36
3035.67
-2873.71
3255.66
-2855.1
3483.59
-2785.66
3707.73
-2629.02
3911
-2335
4073.41
-1840.66
4175.39
-1124.49
4200.59
-208.448
4130.82
833.544
4004.75
1584.41
3829.28
2225.52
3614.72
2739.8
3370.98
3101.96
3113.09
3253.13
2864.43
3104.76
2656.64
2588.2
2524.88
1728.92
2505.42
597.874
2655.81
-893.726
2933.65
-2136.48
3287.62
-3008.24
3586.06
-3107.51
3690.86
-1997.43
3565.27
-177.571
3300.18
1575.85
2898.33
2880.4
2421.93
3501.59
1994.42
3212.62
1652.25
2481.68
1371.78
1657.89
1175.95
657.397
1004.04
-377.331
860.95
-1697.03
859.056
-2962.1
1004.65
-3944.79
1287.34
-5181.53
1675.72
-6713.7
2165.89
-8321.22
2747.04
-9754.4
3359.79
-10754.7
3894.26
-11100.4
4244.16
-10770.4
4383.07
-10015.3
4392.39
-9192.3
4407.78
-8579.74
4527.15
-8306.21
4769.49
-8379.73
5103.4
-8746.77
5484.64
-9311.57
5866.67
-9938.27
6213.35
-10519.4
6534.55
-11061.8
6895.53
-11666.7
7345.58
-12366.6
7827.72
-12951.7
8219.06
-13194.6
8504.78
-13142.9
8818.54
-13013.6
9236.71
-12702.8
9744.82
-12041.1
10248.5
-10521.2
10467.7
-7358.95
10470.4
-3835.43
10423.3
-277.541
10259
3933.07
9870.78
8183.05
9345.79
11084.6
8801.31
12539.9
8285.44
13122.6
7803.95
13290
7353.51
13190.1
6929.34
12825.2
6525.03
12216
6134.21
11442.3
5753.12
10603.5
5379.79
9783.2
5014
9042.22
4657.16
8356.97
4310.4
7865.88
6903.07
1584.75
1811.75
1514.93
1780.47
1439.89
1717.86
1361
1545.34
1283.05
1174.02
1204.9
520.483
1123.73
-570.454
1055.52
-1904.21
1068.84
-3198.6
1152.37
-3732.28
1314.09
-4171.7
1493.07
-4105.09
1655.5
-3753.26
1798.66
-3356.12
1932.2
-3065.66
2066.47
-2917.8
2209.93
-2890.3
2367.64
-2932.6
2541.81
-2995.95
2733.25
-3050.79
2941.87
-3082.31
3165.49
-3078.7
3397.24
-3017.4
3623.92
-2855.7
3829.33
-2540.4
3996.58
-2007.89
4106.2
-1234.1
4138.59
-240.824
4071.5
900.653
3947.88
1708.04
3773.93
2399.48
3557.18
2956.56
3305.18
3353.97
3033.13
3525.19
2766.98
3370.92
2542.85
2812.34
2400.68
1871.11
2384.17
614.402
2556
-1065.53
2859.45
-2439.92
3226.56
-3375.33
3509.94
-3390.89
3576.8
-2064.27
3395.63
3.61629
3109.36
1862.14
2694.71
3295.05
2197.81
3998.51
1751.45
3658.99
1392.43
2840.71
1095.54
1954.79
894.835
858.143
714.667
-197.107
597.884
-1580.2
588.117
-2952.32
708.634
-4065.29
961.471
-5434.36
1322.39
-7074.6
1783.63
-8782.46
2321.49
-10292.3
2858.4
-11291.6
3268.83
-11510.8
3460.65
-10962.3
3472.05
-10026.7
3455.29
-9175.53
3537.68
-8662.12
3732.09
-8500.62
3987.91
-8635.55
4268.55
-9027.41
4559.26
-9602.27
4838.92
-10217.9
5092.58
-10773.1
5356.9
-11326.1
5703.47
-12013.2
6137.59
-12800.7
6548.12
-13362.2
6805.91
-13452.4
6955.5
-13292.5
7192.28
-13250.3
7581.38
-13091.9
8021.88
-12481.6
8388.73
-10888.1
8394.17
-7364.4
8152.17
-3593.42
7970.17
-95.5455
7817.12
4086.12
7502.17
8497.99
7077.7
11509.1
6646.26
12971.3
6237.81
13531.1
5854.93
13672.8
5499.6
13545.5
5169.84
13154.9
4856.99
12528.9
4550.73
11748.6
4244.5
10909.7
3935.05
10092.6
3622.36
9354.92
3306.65
8672.67
2993.09
8179.44
7165.65
1600.61
1877.64
1526.73
1854.35
1445.52
1799.07
1359.23
1631.64
1271.51
1261.75
1181.54
610.478
1087.9
-476.787
1005.73
-1822.02
1008.56
-3201.41
1085.31
-3809.02
1242.15
-4328.53
1414.42
-4277.35
1569.86
-3908.69
1708.55
-3494.8
1840.35
-3197.45
1974.55
-3051.98
2118.36
-3034.1
2276.11
-3090.34
2450.12
-3169.94
2642.23
-3242.9
2853.4
-3293.47
3081.24
-3306.53
3317.37
-3253.52
3548.1
-3086.42
3759.65
-2751.93
3937.59
-2185.83
4059.24
-1355.74
4099.9
-281.472
4033.92
966.648
3910.78
1831.19
3737.62
2572.65
3518.89
3175.3
3258.07
3614.8
2969.01
3814.25
2680.45
3659.49
2434.59
3058.21
2277.59
2028.13
2262.18
629.823
2452.52
-1255.86
2777.39
-2764.77
3154.21
-3752.15
3418.27
-3654.93
3442.32
-2088.31
3192.94
253.015
2871.15
2183.95
2445.89
3720.32
1940.71
4503.71
1485.64
4114.06
1115.69
3210.68
804.163
2266.32
608.476
1053.86
435.765
-24.3533
350.534
-1494.92
318.824
-2920.6
414.273
-4160.72
635.787
-5655.87
960.81
-7399.62
1378.54
-9200.19
1853.5
-10767.2
2291.38
-11729.5
2563.4
-11782.8
2621.07
-11019.9
2582.21
-9987.82
2618.86
-9212.19
2776.01
-8819.27
2984.06
-8708.68
3187.98
-8839.47
3389.21
-9228.64
3597.72
-9810.78
3799.16
-10419.4
3992.88
-10966.8
4232.6
-11565.8
4572.81
-12353.4
4968.43
-13196.3
5282.02
-13675.8
5408.29
-13578.7
5439.03
-13323.2
5576.27
-13387.6
5877.44
-13393
6158.63
-12762.8
6347.78
-11077.2
6266.1
-7282.71
5839.76
-3167.09
5435.34
308.872
5261.89
4259.57
5042.22
8717.66
4741.43
11809.9
4440.99
13271.7
4151.03
13821.1
3873.69
13950.2
3618.48
13800.7
3386.55
13386.9
3166.95
12748.5
2946.06
11969.5
2715.44
11140.3
2471.28
10336.8
2213.25
9612.94
1939.12
8946.8
1658.9
8459.66
7407.2
1609.05
1946.98
1530.72
1932.7
1443.2
1886.6
1349.27
1725.58
1251.31
1359.74
1149.94
711.877
1045.42
-372.235
952.822
-1729.39
949.932
-3198.5
1023.29
-3882.37
1175.56
-4480.79
1341.1
-4442.87
1490.41
-4057.98
1625.75
-3630.12
1756.26
-3327.94
1889.81
-3185.51
2032.65
-3176.91
2189.01
-3246.68
2362.29
-3343.21
2555.93
-3436.52
2771.51
-3509.03
3005.37
-3540.38
3247.4
-3495.54
3484.61
-3323.63
3705.76
-2973.07
3896.28
-2376.35
4027.57
-1487.02
4070.92
-324.806
3999.46
1038.13
3871.23
1959.43
3696.69
2747.2
3477.93
3394.07
3212.15
3880.59
2908.36
4118.05
2596.48
3971.37
2325.95
3328.75
2150.98
2203.11
2135.75
645.079
2340.11
-1460.19
2680.69
-3105.34
3063.03
-4134.47
3301.46
-3893.36
3280.8
-2067.63
2961.41
572.423
2592.33
2553.03
2151.29
4161.38
1647.66
5007.35
1195.47
4566.26
823.816
3582.35
501.215
2588.94
325.917
1229.2
182.978
118.638
92.3492
-1404.23
38.2634
-2866.49
119.173
-4241.61
309.1
-5845.79
587.832
-7678.34
945.987
-9558.35
1338.83
-11160
1661.02
-12051.7
1801.46
-11923.3
1777.5
-10996
1758.88
-9969.2
1865.32
-9318.63
2047.59
-9001.53
2215.97
-8877.07
2352.7
-8976.19
2486.38
-9362.33
2628.1
-9952.51
2767.14
-10558.4
2921.65
-11121.3
3148.89
-11793.1
3469.82
-12674.4
3802.22
-13528.7
4007.38
-13881
4008.36
-13579.6
3916.97
-13231.8
3903.99
-13374.6
4028.18
-13517.2
4053.9
-12788.5
4020.99
-11044.3
4147.37
-7409.1
3868.03
-2887.75
3117.73
1059.18
2726.19
4651.12
2525.32
8918.52
2353.48
11981.7
2197.96
13427.3
2033.98
13985
1866.83