/*--------------------------------*- C++ -*----------------------------------*\
| =========                 |                                                 |
| \\      /  F ield         | OpenFOAM: The Open Source CFD Toolbox           |
|  \\    /   O peration     | Version:  4.1                                   |
|   \\  /    A nd           | Web:      www.OpenFOAM.org                      |
|    \\/     M anipulation  |                                                 |
\*---------------------------------------------------------------------------*/
FoamFile
{
    version     2.0;
    format      ascii;
    class       volVectorField;
    location    "1800";
    object      U;
}
// * * * * * * * * * * * * * * * * * * * * * * * * * * * * * * * * * * * * * //

dimensions      [0 1 -1 0 0 0 0];

internalField   nonuniform List<vector> 
26785
(
(-5.48261e-15 0.0909114 11.5599)
(-7.06008e-15 0.083219 9.76586)
(3.25004e-15 0.0777818 8.09077)
(-2.73986e-14 0.0697144 6.55156)
(-7.53091e-14 0.0535316 5.27006)
(1.54887e-14 0.0308839 4.39474)
(-1.10599e-13 0.000506994 4.01303)
(-6.81456e-14 -0.0441593 4.35128)
(2.11628e-14 -0.0925985 5.69516)
(1.28958e-13 -0.11284 7.67582)
(-1.40753e-14 -0.118692 9.79975)
(-4.36694e-14 -0.110452 11.7875)
(-4.78098e-14 -0.0973346 13.4942)
(-4.02574e-14 -0.0849234 14.9096)
(-3.72369e-14 -0.075445 16.092)
(-3.72492e-14 -0.0686523 17.1045)
(-4.10082e-14 -0.0631746 17.9901)
(-4.60982e-14 -0.0576911 18.7692)
(-4.86985e-14 -0.0515756 19.4478)
(-6.81569e-15 -0.0450886 20.0293)
(-1.68595e-14 -0.0389223 20.5217)
(-2.12507e-14 -0.0334737 20.9384)
(8.45096e-15 -0.0283554 21.2909)
(-1.83258e-15 -0.0224189 21.5797)
(-5.54083e-15 -0.0142065 21.7889)
(-2.33508e-14 -0.00245669 21.8856)
(-1.55455e-14 0.0129125 21.8313)
(-2.53049e-14 0.0308789 21.5907)
(6.89374e-15 0.0481846 21.1531)
(1.9048e-14 0.0626294 20.5484)
(6.071e-15 0.0752965 19.8112)
(-3.43703e-14 0.0861224 18.9609)
(-5.25019e-14 0.0939192 18.0271)
(-7.45719e-14 0.0972506 17.0545)
(-5.63522e-14 0.094132 16.0965)
(-1.14056e-13 0.0830201 15.2204)
(-9.14899e-14 0.0642691 14.5034)
(-9.84592e-14 0.0381901 14.014)
(-1.19174e-13 0.00644625 13.8131)
(-1.38053e-13 -0.0211867 13.907)
(-1.26271e-13 -0.0400494 14.2203)
(-7.7859e-14 -0.0505457 14.6633)
(-8.45409e-14 -0.0502035 15.1403)
(-5.19434e-14 -0.0403407 15.5418)
(-8.85858e-14 -0.0268137 15.7986)
(-6.38435e-14 -0.0162704 15.9132)
(-8.93487e-14 -0.0137743 15.9454)
(-6.22977e-14 -0.0209452 15.9813)
(-5.17799e-14 -0.0356008 16.096)
(-3.90022e-14 -0.054403 16.332)
(-6.7022e-14 -0.0748456 16.7012)
(-6.4628e-14 -0.0964787 17.2061)
(-8.08288e-14 -0.119127 17.8626)
(-7.70759e-14 -0.138563 18.6786)
(-6.64084e-14 -0.152041 19.6283)
(-5.53564e-14 -0.161596 20.6799)
(-2.53185e-14 -0.170605 21.8248)
(-3.57595e-14 -0.180297 23.0697)
(-3.41026e-14 -0.189038 24.413)
(-2.45773e-14 -0.19406 25.8285)
(-3.49626e-14 -0.193634 27.2691)
(-2.93408e-14 -0.188271 28.6834)
(-2.61026e-14 -0.180552 30.0346)
(-1.18159e-14 -0.173858 31.3124)
(-2.57294e-14 -0.171014 32.5326)
(-2.31277e-14 -0.173654 33.7274)
(-1.75761e-14 -0.182153 34.9337)
(-1.13399e-14 -0.19575 36.1848)
(-6.0317e-15 -0.21286 37.506)
(-2.96246e-16 -0.231604 38.9133)
(4.8279e-15 -0.250338 40.4135)
(5.90615e-16 -0.267909 42.0064)
(1.27201e-14 -0.283501 43.6855)
(1.56231e-14 -0.29627 45.4387)
(1.51183e-14 -0.304998 47.2462)
(1.21923e-14 -0.308069 49.0786)
(1.62785e-14 -0.303496 50.8953)
(1.03563e-14 -0.288992 52.6443)
(1.11395e-14 -0.261791 54.2606)
(1.28536e-14 -0.21911 55.6659)
(1.4088e-14 -0.158707 56.7705)
(2.18594e-14 -0.0801758 57.4741)
(6.97019e-15 0.00999935 57.6997)
(8.11021e-15 0.106806 57.4086)
(1.37346e-14 0.203788 56.5911)
(1.13459e-14 0.289077 55.2759)
(1.67691e-14 0.354724 53.56)
(1.63718e-14 0.398959 51.5681)
(2.2948e-14 0.424073 49.4157)
(2.01792e-14 0.433319 47.1966)
(2.29176e-14 0.429914 44.9848)
(2.43692e-14 0.417005 42.8365)
(2.55956e-14 0.397686 40.7918)
(2.68674e-14 0.374887 38.871)
(2.72635e-14 0.350971 37.0895)
(3.31379e-14 0.327838 35.4257)
(3.61475e-14 0.306441 33.9252)
(3.80616e-14 0.287155 32.4194)
(3.87778e-14 0.272349 31.3471)
(4.07764e-14 0.248889 29.475)
(-2.54221e-15 0.240769 11.5395)
(-4.8619e-15 0.232756 9.76417)
(-3.21709e-14 0.225184 8.1019)
(-3.17676e-14 0.206086 6.56801)
(6.89831e-15 0.161145 5.28403)
(3.56168e-14 0.0967999 4.38137)
(-1.69522e-13 0.00395649 3.93776)
(5.02428e-14 -0.143053 4.36277)
(5.46508e-14 -0.304233 6.01181)
(1.66748e-14 -0.369281 8.24825)
(1.60387e-14 -0.381349 10.5137)
(3.04873e-15 -0.348927 12.5487)
(-7.74776e-15 -0.301741 14.2457)
(-1.33406e-14 -0.256908 15.6177)
(8.29675e-15 -0.221307 16.7329)
(-1.48797e-14 -0.194809 17.6604)
(-1.34264e-14 -0.174069 18.4502)
(-1.65292e-14 -0.155614 19.131)
(-4.09983e-14 -0.137522 19.717)
(-4.66534e-14 -0.119977 20.2173)
(-3.51111e-14 -0.104168 20.6418)
(-5.79464e-14 -0.0905069 21.0028)
(-6.46155e-14 -0.0774233 21.3095)
(-5.2055e-14 -0.061433 21.5605)
(-1.60749e-14 -0.0382921 21.7388)
(3.30855e-14 -0.00430604 21.8114)
(3.87112e-14 0.0407889 21.7394)
(4.31314e-14 0.094071 21.4868)
(3.79298e-14 0.146043 21.0403)
(4.42088e-14 0.189446 20.4234)
(1.7147e-14 0.227238 19.672)
(2.54556e-14 0.259173 18.8098)
(-8.59972e-17 0.281884 17.8687)
(-1.94178e-14 0.291017 16.8939)
(-1.66196e-14 0.280591 15.9397)
(-4.21736e-14 0.245857 15.0738)
(-4.95677e-14 0.188585 14.376)
(-5.52654e-14 0.11052 13.9082)
(-5.15555e-14 0.0153173 13.7226)
(-4.00262e-14 -0.0687221 13.8238)
(-2.36366e-14 -0.126709 14.1276)
(-2.24508e-14 -0.156613 14.5244)
(1.05875e-16 -0.148897 14.9017)
(-2.5098e-14 -0.10968 15.1504)
(2.52085e-14 -0.0600077 15.2166)
(1.15278e-14 -0.0212533 15.1211)
(8.63433e-15 -0.00747362 14.9341)
(-3.68822e-14 -0.0217269 14.7413)
(5.63458e-15 -0.0568357 14.6113)
(-3.14598e-14 -0.103458 14.579)
(2.66369e-14 -0.155143 14.6509)
(-1.34e-14 -0.212508 14.8252)
(9.01814e-15 -0.278878 15.1308)
(2.38568e-14 -0.3445 15.6162)
(-2.20751e-14 -0.401457 16.2968)
(1.87234e-14 -0.453681 17.1645)
(4.25312e-14 -0.50773 18.2195)
(9.88107e-15 -0.563546 19.4693)
(-1.3944e-14 -0.613012 20.9057)
(-7.85679e-15 -0.645486 22.4882)
(-2.07203e-14 -0.654611 24.1487)
(-1.11208e-14 -0.64216 25.8125)
(-2.66089e-14 -0.617413 27.421)
(-2.65293e-14 -0.592631 28.9464)
(1.60476e-15 -0.577865 30.3917)
(1.20853e-14 -0.578421 31.7812)
(1.7679e-14 -0.595122 33.1497)
(1.47995e-14 -0.62584 34.5349)
(3.23335e-14 -0.667122 35.971)
(1.79783e-14 -0.715299 37.4841)
(1.77181e-14 -0.766997 39.0884)
(2.87425e-14 -0.819113 40.7867)
(9.06608e-15 -0.868355 42.5722)
(8.82306e-15 -0.910709 44.4302)
(-5.87683e-15 -0.941035 46.3381)
(5.28423e-15 -0.953426 48.2641)
(6.19534e-15 -0.94137 50.1657)
(1.1043e-14 -0.897862 51.9895)
(1.12178e-14 -0.814707 53.6693)
(9.34187e-15 -0.683798 55.126)
(2.87032e-15 -0.498768 56.2693)
(6.85563e-15 -0.259474 56.9982)
(-2.97184e-15 0.0141257 57.2409)
(-5.13503e-15 0.307181 56.9584)
(-1.60429e-14 0.601356 56.1461)
(-1.37888e-14 0.861219 54.824)
(-4.19567e-15 1.06171 53.0939)
(5.20196e-15 1.19717 51.0841)
(1.3011e-14 1.27447 48.9127)
(1.63479e-14 1.30345 46.6742)
(2.26468e-14 1.29383 44.4433)
(2.91817e-14 1.25514 42.2766)
(3.08827e-14 1.19684 40.2147)
(3.81079e-14 1.1279 38.2781)
(3.92496e-14 1.0556 36.4821)
(3.99177e-14 0.985602 34.8048)
(4.10024e-14 0.921129 33.2924)
(3.82394e-14 0.862341 31.774)
(3.78649e-14 0.818636 30.6931)
(3.83563e-14 0.745636 28.8074)
(-6.03092e-15 0.399617 11.512)
(-3.86554e-14 0.388754 9.76621)
(8.76904e-15 0.375234 8.13834)
(-1.77378e-14 0.343086 6.64526)
(7.64674e-15 0.269727 5.40918)
(2.12793e-14 0.164569 4.54282)
(-7.59713e-14 -0.000839988 4.16074)
(-1.61658e-15 -0.269947 4.91149)
(1.29395e-14 -0.541794 6.86622)
(1.6408e-14 -0.635053 9.16361)
(6.95269e-15 -0.636689 11.3277)
(-3.14613e-15 -0.571299 13.2018)
(-1.05882e-14 -0.487104 14.736)
(-3.92832e-15 -0.410008 15.9651)
(-1.80926e-15 -0.349739 16.9608)
(-2.82977e-14 -0.305422 17.7912)
(-1.09655e-15 -0.271428 18.5046)
(5.65239e-14 -0.241967 19.1277)
(1.49955e-14 -0.213669 19.672)
(9.98675e-15 -0.186505 20.1424)
(-3.98773e-14 -0.162095 20.5442)
(-5.54193e-14 -0.140937 20.8854)
(-2.96973e-14 -0.120486 21.1727)
(1.60343e-14 -0.095136 21.4043)
(5.18639e-14 -0.0579557 21.5645)
(8.44843e-14 -0.00275758 21.6214)
(7.67552e-14 0.0710099 21.5368)
(6.90849e-14 0.158832 21.2756)
(6.32518e-14 0.245476 20.8225)
(4.12293e-14 0.317879 20.1966)
(2.85443e-14 0.380561 19.4343)
(8.96413e-15 0.432906 18.5638)
(1.46302e-14 0.469606 17.6185)
(-1.41145e-14 0.483287 16.6438)
(-4.56388e-14 0.464072 15.6949)
(-4.01391e-14 0.403987 14.8394)
(-3.7127e-14 0.307414 14.1573)
(-2.70444e-14 0.178097 13.7012)
(-1.02918e-14 0.0217036 13.5138)
(5.45966e-15 -0.11269 13.5888)
(1.65889e-14 -0.197144 13.8134)
(2.23817e-14 -0.228586 14.0591)
(2.82382e-14 -0.196233 14.229)
(3.62981e-14 -0.116309 14.241)
(4.04453e-14 -0.026063 14.0567)
(3.36101e-14 0.0401164 13.704)
(2.20312e-14 0.0619475 13.2593)
(1.02456e-14 0.0379318 12.8154)
(1.55441e-16 -0.0175713 12.4457)
(-6.10213e-15 -0.0886934 12.1847)
(-8.30694e-15 -0.165095 12.0319)
(-1.22767e-14 -0.251578 11.9763)
(-1.5275e-14 -0.363323 12.0661)
(-2.53371e-14 -0.488775 12.3895)
(-4.20012e-14 -0.61111 12.9712)
(-3.44622e-14 -0.731096 13.7868)
(-5.55549e-14 -0.855756 14.8275)
(-5.99284e-14 -0.982362 16.1033)
(-4.44466e-14 -1.09462 17.6078)
(-4.28459e-14 -1.17222 19.2964)
(-5.59984e-15 -1.20307 21.0933)
(1.46196e-15 -1.18998 22.9147)
(8.51935e-15 -1.14905 24.6931)
(1.41814e-14 -1.10143 26.3923)
(3.63843e-14 -1.06514 28.0106)
(2.45637e-14 -1.05177 29.5737)
(1.33969e-14 -1.06679 31.1237)
(2.01136e-14 -1.11019 32.7043)
(5.34721e-15 -1.1771 34.3477)
(-1.09332e-14 -1.25938 36.068)
(-2.44826e-14 -1.34806 37.863)
(-2.76237e-14 -1.43529 39.7221)
(-3.40564e-14 -1.5146 41.6325)
(-4.59695e-14 -1.57977 43.5813)
(-4.44552e-14 -1.62332 45.5521)
(-3.91443e-14 -1.63644 47.5201)
(-3.34952e-14 -1.6089 49.4486)
(-3.15775e-14 -1.52925 51.2881)
(-3.38947e-14 -1.38386 52.9748)
(-3.66963e-14 -1.15915 54.4318)
(-3.80573e-14 -0.844379 55.5705)
(-4.18085e-14 -0.440221 56.2888)
(-2.40096e-14 0.0200619 56.5195)
(-2.89728e-14 0.512252 56.2209)
(-3.20973e-14 1.0063 55.3869)
(-3.58949e-14 1.4429 54.0272)
(-3.36821e-14 1.7784 52.2522)
(-2.65292e-14 2.00386 50.1991)
(-1.86486e-14 2.13167 47.9908)
(-6.60382e-16 2.17888 45.7226)
(5.87751e-15 2.16178 43.4686)
(1.32969e-14 2.09624 41.2847)
(2.23748e-14 1.99806 39.2105)
(2.55675e-14 1.88225 37.2654)
(3.02502e-14 1.76112 35.4639)
(3.11603e-14 1.64386 33.7822)
(3.3557e-14 1.53635 32.2668)
(3.21304e-14 1.43719 30.7442)
(3.20568e-14 1.3658 29.6618)
(3.16342e-14 1.2396 27.7727)
(-6.82956e-15 0.55771 11.4832)
(2.38347e-14 0.542349 9.78046)
(-1.43789e-14 0.521055 8.20967)
(1.14526e-14 0.474565 6.79096)
(7.37782e-14 0.37316 5.64577)
(1.03336e-14 0.225173 4.85473)
(1.33381e-13 -0.0280299 4.61424)
(5.89204e-14 -0.425792 5.67266)
(-1.24166e-14 -0.783079 7.68332)
(3.45721e-15 -0.88163 9.80031)
(-1.16298e-14 -0.864286 11.7066)
(-1.7131e-14 -0.767826 13.3436)
(-2.79846e-14 -0.652394 14.6886)
(-3.04118e-14 -0.549169 15.776)
(8.34755e-16 -0.469605 16.6697)
(-5.55719e-15 -0.411933 17.4314)
(-8.95431e-15 -0.368335 18.1046)
(3.13468e-15 -0.330685 18.7125)
(-1.6276e-14 -0.294049 19.2616)
(-4.09971e-14 -0.25809 19.7503)
(-2.92644e-14 -0.224925 20.1765)
(-3.33288e-14 -0.19543 20.5417)
(1.75236e-14 -0.166518 20.8483)
(4.395e-14 -0.130849 21.0933)
(5.24563e-14 -0.0790133 21.2617)
(5.61887e-14 -0.00234505 21.3239)
(5.99496e-14 0.100052 21.2439)
(6.60339e-14 0.222463 20.9884)
(7.10213e-14 0.344294 20.5402)
(6.35965e-14 0.445924 19.9149)
(2.7417e-14 0.533495 19.1498)
(4.8585e-14 0.605966 18.2767)
(6.56091e-14 0.656229 17.3301)
(4.22552e-14 0.673754 16.3553)
(1.14804e-14 0.644943 15.4074)
(-1.49322e-14 0.55895 14.5537)
(3.70882e-14 0.423879 13.8705)
(-1.89464e-14 0.245962 13.4047)
(-2.18008e-14 0.0336995 13.1849)
(6.10132e-14 -0.14061 13.1998)
(1.32513e-14 -0.237044 13.3233)
(6.64877e-15 -0.258925 13.4429)
(2.45181e-14 -0.197698 13.4968)
(6.38123e-14 -0.0763263 13.4061)
(4.38028e-14 0.0564821 13.1087)
(3.8228e-14 0.152581 12.614)
(1.18952e-14 0.183848 12.0034)
(6.59913e-15 0.148415 11.3825)
(4.01472e-16 0.0671227 10.8453)
(-4.23169e-14 -0.034406 10.4506)
(-4.64632e-14 -0.14064 10.201)
(-7.78147e-15 -0.263366 10.0899)
(-5.0657e-14 -0.434842 10.1909)
(-7.29254e-16 -0.634232 10.5926)
(-3.13634e-14 -0.825979 11.2645)
(-3.1788e-14 -1.00953 12.1345)
(-1.27916e-15 -1.20004 13.1872)
(2.4983e-14 -1.39629 14.4483)
(3.6707e-14 -1.57369 15.9289)
(1.47456e-14 -1.70089 17.5942)
(3.36938e-14 -1.75896 19.3714)
(1.31529e-14 -1.75082 21.1796)
(8.85186e-15 -1.69914 22.9605)
(-2.09013e-15 -1.63529 24.6938)
(-6.22976e-15 -1.5878 26.3938)
(-2.96962e-14 -1.57574 28.0923)
(-2.08557e-14 -1.60621 29.8175)
(-2.36174e-14 -1.67465 31.5809)
(-3.41628e-14 -1.76885 33.3782)
(-4.56469e-14 -1.87491 35.1982)
(-5.45703e-14 -1.98201 37.0331)
(-3.74068e-14 -2.08369 38.8831)
(-5.53841e-14 -2.17553 40.7541)
(-3.0315e-14 -2.2517 42.6513)
(-1.50124e-14 -2.30228 44.5703)
(-1.86283e-14 -2.31397 46.4915)
(-6.41951e-15 -2.27097 48.3788)
(-1.85875e-14 -2.15624 50.1827)
(-1.51207e-14 -1.95022 51.8407)
(-2.11747e-14 -1.6337 53.2786)
(-2.24983e-14 -1.19089 54.4101)
(-2.11437e-14 -0.62304 55.1302)
(-2.14225e-14 0.0235132 55.3739)
(-2.31328e-14 0.717237 55.094)
(-2.26901e-14 1.4169 54.2753)
(-2.28049e-14 2.03598 52.9053)
(-3.38674e-14 2.50855 51.1)
(-3.15486e-14 2.82246 49.0078)
(-3.10364e-14 2.99736 46.7604)
(-2.03959e-14 3.05887 44.4582)
(-1.93985e-14 3.03056 42.1784)
(-6.15133e-15 2.93489 39.9784)
(3.97596e-15 2.7942 37.8982)
(1.17353e-14 2.62966 35.9556)
(1.81847e-14 2.45861 34.1631)
(1.90663e-14 2.29359 32.494)
(2.12223e-14 2.14316 30.9937)
(1.77468e-14 2.0036 29.4853)
(1.94354e-14 1.90523 28.417)
(2.03905e-14 1.72444 26.5474)
(-7.37424e-15 0.702563 11.4583)
(-1.96581e-14 0.68498 9.81106)
(-3.51931e-17 0.65838 8.31352)
(2.38495e-14 0.597504 6.9898)
(5.80501e-14 0.469092 5.95501)
(3.59363e-14 0.274366 5.24698)
(4.878e-14 -0.0759599 5.20265)
(6.06307e-14 -0.588671 6.41123)
(-9.09292e-15 -1.00417 8.25503)
(-1.97973e-14 -1.09731 10.0809)
(-3.30427e-14 -1.06379 11.7085)
(-3.39848e-14 -0.943295 13.1304)
(-2.82295e-14 -0.803254 14.3188)
(-4.67277e-14 -0.679103 15.2939)
(-2.25373e-14 -0.584492 16.1082)
(-6.55491e-16 -0.517252 16.8173)
(-1.39396e-14 -0.467585 17.4629)
(-1.18465e-14 -0.424891 18.0667)
(-3.18158e-15 -0.382372 18.6328)
(4.78451e-15 -0.339087 19.1544)
(3.78884e-15 -0.29751 19.6225)
(1.09742e-14 -0.259038 20.0314)
(2.88074e-14 -0.220426 20.3782)
(3.03925e-14 -0.17306 20.6573)
(4.58229e-14 -0.105417 20.8537)
(5.4466e-14 -0.00650545 20.9391)
(4.57034e-14 0.124923 20.8797)
(2.7684e-15 0.282391 20.6438)
(3.77153e-14 0.440325 20.2121)
(4.76947e-14 0.571774 19.5968)
(4.60806e-14 0.68467 18.8359)
(4.48645e-14 0.77753 17.9647)
(4.91175e-14 0.841622 17.0186)
(3.76277e-14 0.863228 16.0418)
(1.39713e-14 0.825081 15.0875)
(-9.07064e-15 0.71392 14.2236)
(8.1297e-15 0.541951 13.5213)
(1.16758e-14 0.319104 13.0313)
(1.34449e-14 0.0560741 12.766)
(2.09005e-14 -0.153336 12.7236)
(2.89694e-14 -0.260504 12.7909)
(3.08878e-14 -0.278687 12.8927)
(5.46041e-14 -0.195178 12.9775)
(1.59757e-14 -0.0318255 12.9252)
(2.07266e-14 0.152216 12.6303)
(5.02231e-15 0.28909 12.0965)
(-5.83908e-15 0.338372 11.4062)
(-1.46263e-14 0.295007 10.6918)
(-1.62518e-14 0.185527 10.0654)
(-5.56627e-15 0.0455089 9.59713)
(-8.17734e-14 -0.103007 9.30949)
(-3.93535e-14 -0.279073 9.20576)
(-5.75668e-14 -0.52737 9.36582)
(-2.12528e-14 -0.804748 9.84886)
(1.13941e-15 -1.05495 10.5745)
(-4.76997e-15 -1.28597 11.4486)
(3.48386e-14 -1.52921 12.4636)
(4.23985e-14 -1.78757 13.6699)
(3.97988e-14 -2.02713 15.1023)
(4.904e-15 -2.20288 16.7294)
(5.66674e-15 -2.28793 18.4705)
(-2.5438e-14 -2.28796 20.2479)
(-2.54053e-14 -2.23629 22.0199)
(-3.8245e-14 -2.17538 23.7816)
(-4.58984e-14 -2.13867 25.5443)
(-2.47712e-14 -2.1425 27.3116)
(-2.90512e-14 -2.18745 29.073)
(-2.20282e-15 -2.26438 30.8133)
(-1.995e-15 -2.36154 32.5267)
(-2.89275e-15 -2.46929 34.2218)
(-5.42156e-15 -2.58172 35.9179)
(7.42625e-15 -2.69516 37.6373)
(-6.63206e-15 -2.80456 39.3973)
(1.03271e-14 -2.90024 41.2041)
(2.61534e-14 -2.96613 43.0481)
(2.58728e-14 -2.98264 44.9035)
(2.8071e-14 -2.92856 46.7314)
(3.74743e-15 -2.78264 48.4844)
(-5.21321e-15 -2.52072 50.106)
(-2.31603e-14 -2.1183 51.529)
(-1.82162e-14 -1.55348 52.67)
(2.25124e-15 -0.827253 53.418)
(1.63377e-15 0.00031563 53.7065)
(1.91731e-14 0.893786 53.4861)
(2.22106e-14 1.80517 52.7371)
(1.75094e-14 2.61745 51.4166)
(7.91074e-15 3.23645 49.6392)
(-1.14291e-15 3.64463 47.5576)
(-5.43994e-15 3.86893 45.3065)
(-8.84577e-15 3.94402 42.9902)
(-1.32156e-14 3.90139 40.6925)
(-1.30067e-14 3.77107 38.4786)
(-3.47071e-15 3.58309 36.394)
(3.90094e-17 3.36571 34.4586)
(5.23511e-15 3.14184 32.6837)
(7.29225e-15 2.92738 31.0394)
(1.01116e-14 2.7335 29.569)
(9.77266e-15 2.55365 28.0916)
(1.31804e-14 2.42868 27.0521)
(1.43083e-14 2.19405 25.2251)
(-8.53238e-15 0.863033 11.4476)
(-7.33279e-15 0.82787 9.89078)
(1.02481e-14 0.78994 8.4872)
(4.78822e-15 0.712183 7.26956)
(2.64163e-14 0.557416 6.34692)
(1.81662e-14 0.311848 5.73218)
(4.43038e-15 -0.133611 5.85683)
(2.68896e-15 -0.738836 7.00117)
(-1.81457e-14 -1.19542 8.55955)
(-1.63613e-14 -1.28251 10.0892)
(-2.51581e-14 -1.23959 11.4778)
(-3.23614e-14 -1.10201 12.7338)
(-2.50176e-14 -0.942664 13.8084)
(-2.87946e-14 -0.801334 14.7018)
(-2.30714e-14 -0.694725 15.4542)
(-2.84263e-14 -0.620918 16.1166)
(-1.94923e-14 -0.568404 16.7318)
(1.93266e-14 -0.523966 17.3241)
(2.12109e-14 -0.478533 17.8988)
(3.45063e-14 -0.430124 18.4471)
(1.00289e-14 -0.381276 18.9553)
(2.11581e-14 -0.333904 19.4114)
(9.88418e-16 -0.284894 19.8066)
(3.22869e-14 -0.224762 20.1312)
(1.0561e-13 -0.140255 20.3684)
(8.41607e-14 -0.018229 20.4902)
(5.36349e-14 0.142901 20.4638)
(1.70589e-14 0.336287 20.2584)
(3.8128e-16 0.531765 19.8517)
(-1.94126e-14 0.694056 19.2524)
(-5.52356e-14 0.833161 18.4992)
(-1.45514e-14 0.947142 17.6309)
(-5.65819e-15 1.02591 16.6843)
(1.41008e-16 1.05267 15.702)
(-1.50904e-14 1.00628 14.7341)
(9.33419e-15 0.8714 13.8508)
(-2.6453e-15 0.663788 13.1191)
(-4.84335e-15 0.398032 12.6024)
(4.89619e-15 0.0861833 12.3032)
(2.13466e-14 -0.160045 12.2358)
(4.6169e-14 -0.286441 12.3146)
(4.08279e-14 -0.312706 12.4917)
(1.83434e-14 -0.210198 12.6797)
(-5.61533e-15 0.00281201 12.6973)
(-8.01111e-14 0.249484 12.4147)
(-5.85905e-14 0.43603 11.8598)
(-5.79136e-14 0.510013 11.1215)
(-5.82283e-14 0.460806 10.3526)
(-5.94995e-14 0.322283 9.67587)
(-6.3541e-14 0.139136 9.16231)
(-5.84448e-14 -0.0586118 8.84697)
(-1.47584e-14 -0.295235 8.72915)
(2.68637e-14 -0.624662 8.87983)
(3.06425e-14 -0.977309 9.35101)
(1.19202e-14 -1.2786 10.047)
(-2.53572e-15 -1.54975 10.8645)
(-2.31197e-14 -1.84287 11.8126)
(-3.93332e-14 -2.16723 12.9808)
(-4.32588e-14 -2.47515 14.4144)
(-5.90499e-14 -2.70241 16.0541)
(-4.92761e-14 -2.81578 17.799)
(-4.64131e-14 -2.82837 19.5749)
(-2.85817e-14 -2.78407 21.3469)
(-2.16144e-14 -2.72982 23.1008)
(-9.09228e-15 -2.69656 24.8239)
(5.09025e-15 -2.69733 26.499)
(2.08696e-14 -2.7339 28.1156)
(4.31149e-14 -2.80276 29.6799)
(2.71881e-14 -2.89835 31.2153)
(3.788e-14 -3.01434 32.7525)
(2.28e-14 -3.14449 34.3187)
(2.32521e-14 -3.28223 35.931)
(1.36544e-14 -3.41827 37.5953)
(7.83173e-15 -3.53803 39.307)
(-6.45232e-15 -3.62043 41.052)
(-5.01194e-15 -3.64203 42.8073)
(-1.4816e-14 -3.57869 44.5432)
(-1.62123e-14 -3.40661 46.2245)
(-1.47905e-14 -3.09713 47.8054)
(-1.3811e-14 -2.61906 49.2252)
(-1.13941e-14 -1.94131 50.3994)
(-2.49647e-14 -1.06245 51.2027)
(-2.52572e-14 -0.0590345 51.559)
(-4.77116e-14 1.02899 51.413)
(-1.69572e-14 2.15152 50.7505)
(-8.46727e-15 3.16076 49.5031)
(-6.22019e-15 3.93173 47.796)
(1.54794e-17 4.44179 45.7858)
(1.28791e-15 4.7244 43.5975)
(1.08073e-15 4.82068 41.3237)
(-6.59276e-15 4.7676 39.0473)
(-2.1151e-15 4.60222 36.8423)
(3.09132e-15 4.36356 34.7653)
(3.9292e-15 4.08884 32.844)
(2.11266e-15 3.80802 31.0928)
(2.38337e-15 3.54109 29.4806)
(2.84917e-15 3.30209 28.0492)
(4.97287e-15 3.08144 26.6141)
(7.91591e-15 2.92969 25.6131)
(1.06405e-14 2.643 23.8457)
(-5.95361e-15 0.997271 11.4775)
(-6.66311e-15 0.959321 10.0279)
(2.86301e-14 0.913393 8.73738)
(2.8653e-14 0.819174 7.63481)
(4.26339e-14 0.638917 6.81652)
(3.05627e-14 0.342518 6.28306)
(-4.80277e-14 -0.186898 6.45414)
(2.28918e-14 -0.865369 7.39912)
(5.39321e-15 -1.35644 8.65627)
(-1.51342e-14 -1.44181 9.92697)
(-3.12431e-14 -1.39747 11.1265)
(-2.77822e-14 -1.24923 12.2662)
(-3.05795e-14 -1.07455 13.2674)
(-2.38265e-14 -0.917952 14.1073)
(-6.72906e-15 -0.800424 14.8128)
(3.80615e-15 -0.721286 15.432)
(-7.45771e-15 -0.667892 16.0103)
(2.54212e-14 -0.624433 16.5774)
(4.87602e-14 -0.579196 17.1433)
(7.48175e-14 -0.528597 17.7011)
(7.00646e-14 -0.474718 18.2356)
(3.67591e-14 -0.419717 18.731)
(4.93202e-14 -0.360629 19.1727)
(4.4262e-14 -0.287334 19.5457)
(9.73545e-15 -0.185219 19.8298)
(-1.27152e-14 -0.0392545 19.9956)
(3.87429e-16 0.15241 20.011)
(-1.62983e-14 0.382873 19.8439)
(-7.88517e-14 0.617792 19.4682)
(-7.10543e-14 0.812294 18.8886)
(-9.45106e-14 0.978824 18.1437)
(-8.27677e-14 1.11497 17.2768)
(-6.77855e-14 1.2096 16.3265)
(-4.6037e-14 1.24293 15.3348)
(-2.69205e-14 1.18965 14.3491)
(-1.78443e-14 1.03241 13.4428)
(-7.70582e-15 0.789402 12.682)
(-1.55727e-14 0.480259 12.1465)
(-1.65604e-15 0.117609 11.8387)
(1.8365e-14 -0.171868 11.7904)
(3.18434e-14 -0.329294 11.9368)
(-5.04159e-15 -0.371043 12.224)
(2.10633e-14 -0.243356 12.5061)
(-3.75858e-14 0.0323968 12.5573)
(-5.03022e-14 0.351234 12.2526)
(-5.31481e-14 0.591146 11.6505)
(-5.80081e-14 0.692001 10.8631)
(-6.83816e-14 0.636803 10.0511)
(5.78041e-15 0.468819 9.33865)
(3.66975e-15 0.241305 8.78853)
(7.56098e-14 -0.00763108 8.44075)
(8.58711e-14 -0.302931 8.28368)
(7.82268e-14 -0.712582 8.38345)
(-1.7152e-14 -1.13921 8.80622)
(-3.74489e-14 -1.48788 9.44263)
(-4.31715e-14 -1.79768 10.1833)
(-7.76642e-14 -2.14911 11.0825)
(-9.79573e-14 -2.5537 12.2635)
(-5.92948e-14 -2.93675 13.7293)
(-4.59877e-14 -3.2124 15.3692)
(-1.75438e-14 -3.34839 17.08)
(1.01095e-14 -3.3683 18.8058)
(2.8579e-14 -3.32316 20.5144)
(2.91023e-14 -3.26186 22.1802)
(3.99466e-14 -3.2163 23.7835)
(2.76216e-14 -3.20324 25.315)
(3.3396e-14 -3.23018 26.7824)
(2.47512e-14 -3.29819 28.2083)
(6.40031e-15 -3.40296 29.6225)
(1.17197e-14 -3.53625 31.0501)
(-5.75143e-15 -3.68845 32.5048)
(6.14502e-15 -3.84982 33.99)
(-3.01095e-15 -4.00858 35.5049)
(-5.55307e-15 -4.14828 37.0498)
(-2.21515e-15 -4.2457 38.6259)
(-1.946e-14 -4.27574 40.2301)
(-1.93933e-14 -4.21183 41.8495)
(-2.11068e-14 -4.02692 43.4598)
(-6.04567e-15 -3.68565 45.0183)
(3.02574e-15 -3.14756 46.4629)
(5.43036e-15 -2.3686 47.7017)
(6.38154e-15 -1.34219 48.59)
(-5.92159e-15 -0.16432 49.0419)
(-1.85675e-14 1.11929 48.9949)
(-2.07969e-14 2.45726 48.4312)
(-2.6663e-14 3.66433 47.2437)
(-2.59749e-14 4.58153 45.5917)
(-2.27223e-14 5.18946 43.6635)
(-2.20235e-14 5.53424 41.58)
(-2.07538e-14 5.66194 39.4077)
(-1.87807e-14 5.60917 37.2098)
(-4.91297e-15 5.41558 35.0581)
(5.16947e-15 5.12822 33.0189)
(7.48589e-15 4.7947 31.1303)
(1.09048e-14 4.45404 29.4145)
(6.67016e-15 4.13178 27.8424)
(7.37408e-15 3.84564 26.4564)
(6.78399e-15 3.58327 25.0705)
(1.03605e-14 3.40417 24.1136)
(1.06587e-14 3.06745 22.4157)
(-3.5328e-14 1.12745 11.547)
(-2.1396e-14 1.08249 10.2076)
(-2.87428e-15 1.02715 9.03098)
(1.45091e-14 0.917615 8.03641)
(3.05159e-14 0.714278 7.29993)
(-8.50832e-15 0.372294 6.80966)
(2.25973e-14 -0.227099 6.93539)
(3.48412e-14 -0.965256 7.63847)
(-2.00111e-14 -1.49009 8.61157)
(-3.55002e-14 -1.57999 9.66295)
(-4.13723e-14 -1.5425 10.7173)
(-2.85647e-14 -1.38929 11.7812)
(-1.81264e-14 -1.2019 12.7392)
(-1.25604e-15 -1.0305 13.5451)
(1.93518e-14 -0.90174 14.2148)
(3.18846e-14 -0.817189 14.7947)
(5.35156e-14 -0.763658 15.3338)
(5.07384e-14 -0.722922 15.8676)
(5.37707e-14 -0.68047 16.4116)
(5.78561e-14 -0.630705 16.9633)
(4.2381e-14 -0.574711 17.5094)
(2.21766e-14 -0.514366 18.0323)
(1.26687e-15 -0.446541 18.5133)
(-4.18112e-14 -0.360516 18.9316)
(-5.16898e-14 -0.240694 19.2638)
(-5.91907e-14 -0.0704338 19.4789)
(-5.95054e-14 0.152429 19.5435)
(-6.13817e-14 0.421281 19.421)
(-2.1169e-14 0.698018 19.0796)
(-2.47037e-14 0.926494 18.5192)
(-2.5636e-14 1.12207 17.7786)
(-3.83752e-14 1.28166 16.9079)
(-4.37837e-14 1.39337 15.9489)
(-3.27985e-14 1.43457 14.9442)
(-1.58361e-14 1.37546 13.9394)
(-4.76345e-15 1.1965 13.012)
(2.54355e-14 0.917126 12.2307)
(2.99197e-14 0.562118 11.6899)
(3.69837e-14 0.142741 11.3988)
(4.30197e-14 -0.197808 11.409)
(6.57562e-14 -0.393669 11.6451)
(2.52052e-14 -0.449887 12.0289)
(-3.90232e-14 -0.285478 12.3735)
(-8.92271e-14 0.0659438 12.4272)
(-8.52918e-14 0.464401 12.0787)
(-9.1994e-14 0.758502 11.4042)
(-8.52035e-14 0.883938 10.55)
(-6.48497e-14 0.819256 9.68661)
(-3.12026e-14 0.620844 8.93757)
(-5.34889e-14 0.349162 8.3552)
(3.08261e-16 0.0492304 7.97244)
(-6.71839e-14 -0.300603 7.76915)
(-7.09982e-14 -0.790218 7.81578)
(-7.29342e-14 -1.28934 8.19857)
(-3.72368e-14 -1.68133 8.77967)
(-3.23892e-14 -2.03459 9.45772)
(-5.85404e-14 -2.46006 10.3407)
(-9.45187e-14 -2.95259 11.5285)
(-3.65432e-14 -3.40114 12.9529)
(3.14086e-14 -3.71128 14.502)
(6.41115e-14 -3.86258 16.1195)
(7.75423e-14 -3.88722 17.7733)
(7.32095e-14 -3.83883 19.4215)
(5.82028e-14 -3.76786 21.022)
(3.45344e-14 -3.70918 22.5481)
(1.02564e-14 -3.68384 23.9918)
(1.08288e-14 -3.70356 25.3622)
(-1.30878e-14 -3.7717 26.68)
(-1.64802e-14 -3.88364 27.9676)
(-4.90976e-15 -4.02858 29.2398)
(2.81887e-17 -4.19411 30.5025)
(1.16252e-14 -4.36954 31.7616)
(1.53796e-14 -4.54437 33.0346)
(2.46108e-14 -4.70401 34.3518)
(2.00381e-14 -4.82457 35.7435)
(4.34003e-14 -4.87799 37.2219)
(3.63215e-14 -4.83198 38.7735)
(4.59199e-14 -4.6531 40.3639)
(4.22409e-14 -4.29722 41.9385)
(3.7472e-14 -3.71377 43.4275)
(4.93218e-14 -2.84367 44.7334)
(6.01354e-14 -1.67452 45.6951)
(5.22874e-14 -0.327025 46.2277)
(4.78327e-14 1.15152 46.2832)
(3.04463e-14 2.71847 45.8444)
(6.25381e-15 4.13665 44.727)
(-1.0706e-14 5.19592 43.1096)
(-2.22419e-14 5.88705 41.238)
(-3.18156e-14 6.28405 39.2568)
(-3.93121e-14 6.44494 37.2134)
(-3.79841e-14 6.40236 35.1397)
(-1.80298e-14 6.19141 33.0894)
(-7.04122e-15 5.8628 31.1282)
(-4.13918e-15 5.47386 29.302)
(3.24351e-15 5.07386 27.6412)
(8.97378e-15 4.69545 26.1218)
(7.64598e-15 4.36114 24.7889)
(8.26157e-15 4.05652 23.4576)
(8.50678e-15 3.84968 22.548)
(9.55446e-15 3.4647 20.9246)
(1.18529e-14 1.25273 11.6564)
(1.702e-14 1.19941 10.4206)
(1.64815e-15 1.13352 9.34123)
(4.03232e-14 1.00953 8.42945)
(1.7926e-14 0.785814 7.74215)
(-4.13676e-14 0.404963 7.26259)
(-2.14915e-15 -0.251234 7.30322)
(-1.63103e-14 -1.03899 7.75463)
(-6.57831e-14 -1.59981 8.46805)
(-3.54627e-14 -1.70128 9.33529)
(-5.75695e-15 -1.67879 10.2776)
(1.04105e-14 -1.52539 11.2933)
(1.9464e-14 -1.32693 12.226)
(3.3033e-14 -1.14041 13.0075)
(5.11834e-14 -0.999609 13.6465)
(6.30556e-14 -0.909095 14.1904)
(5.95753e-14 -0.855547 14.692)
(5.26794e-14 -0.818488 15.192)
(7.38445e-15 -0.780623 15.711)
(3.35546e-14 -0.734184 16.2509)
(2.66356e-14 -0.678849 16.8011)
(-2.21165e-15 -0.615669 17.3441)
(-3.24611e-14 -0.540941 17.8582)
(-6.30577e-14 -0.443325 18.3191)
(-9.62653e-14 -0.306515 18.7011)
(-8.04138e-14 -0.112226 18.9711)
(-7.34707e-14 0.142439 19.0909)
(-3.88693e-14 0.451432 19.0148)
(-3.67088e-14 0.773109 18.7045)
(-8.29543e-16 1.03784 18.1562)
(-6.85282e-15 1.2643 17.4102)
(-5.09588e-14 1.44846 16.5264)
(-3.45729e-14 1.57807 15.5524)
(-3.60799e-14 1.62778 14.5321)
(-1.34118e-14 1.5632 13.5099)
(-1.74473e-14 1.36214 12.5674)
(1.14983e-14 1.04461 11.7771)
(3.5633e-14 0.639869 11.2439)
(4.39846e-14 0.155583 10.9891)
(3.67422e-14 -0.241496 11.0748)
(2.0125e-14 -0.477374 11.394)
(-1.62673e-15 -0.544119 11.8586)
(-2.15877e-14 -0.332398 12.2571)
(-7.39453e-14 0.10614 12.3077)
(-8.05231e-14 0.592353 11.9116)
(-1.08373e-13 0.942937 11.1525)
(-1.09738e-13 1.09079 10.2107)
(-9.92504e-14 1.0116 9.2756)
(-8.59916e-14 0.779278 8.47624)
(-7.53817e-14 0.462993 7.85716)
(-8.01926e-14 0.111619 7.43581)
(-1.074e-13 -0.289386 7.18514)
(-9.64975e-14 -0.861399 7.19043)
(-4.0385e-14 -1.43202 7.56234)
(-1.88353e-14 -1.86419 8.10891)
(-3.95715e-14 -2.26655 8.73247)
(-3.87775e-14 -2.77007 9.55794)
(-1.89555e-14 -3.33851 10.6441)
(4.21179e-14 -3.83845 11.9299)
(8.44979e-14 -4.18418 13.3736)
(1.13446e-13 -4.36297 14.9554)
(1.03464e-13 -4.40286 16.6182)
(7.15992e-14 -4.35418 18.2758)
(2.37426e-14 -4.27011 19.8574)
(1.3161e-14 -4.19133 21.3266)
(-1.22609e-14 -4.1454 22.6746)
(-1.46555e-14 -4.14912 23.9105)
(-1.19351e-14 -4.208 25.0524)
(-1.00836e-14 -4.31631 26.1192)
(2.0766e-15 -4.46075 27.1284)
(2.25758e-14 -4.62894 28.1034)
(4.09437e-14 -4.81457 29.0864)
(4.57178e-14 -5.01292 30.138)
(6.06561e-14 -5.21101 31.3174)
(8.40683e-14 -5.37829 32.6525)
(8.81796e-14 -5.47658 34.1277)
(8.42272e-14 -5.46353 35.6978)
(7.2441e-14 -5.29974 37.3086)
(3.77359e-14 -4.93449 38.8983)
(4.04446e-14 -4.31009 40.4012)
(5.23694e-14 -3.3516 41.7267)
(6.30079e-14 -2.03991 42.7022)
(6.01021e-14 -0.531414 43.246)
(5.32757e-14 1.1276 43.343)
(5.63807e-14 2.92637 43.005)
(5.18128e-14 4.57272 41.9702)
(3.92641e-14 5.78045 40.3934)
(1.65866e-14 6.54316 38.5647)
(-9.07936e-15 6.97498 36.6684)
(-3.12639e-14 7.15989 34.7534)
(-4.39216e-14 7.12998 32.8254)
(-3.65452e-14 6.91074 30.9118)
(-2.84478e-14 6.55058 29.0663)
(-1.70278e-14 6.11345 27.3349)
(1.31339e-15 5.65848 25.7538)
(1.25279e-15 5.22615 24.3036)
(3.066e-15 4.84479 23.0342)
(3.85795e-15 4.49861 21.7635)
(4.87841e-15 4.2644 20.9038)
(6.33536e-15 3.83273 19.3578)
(1.92076e-14 1.36537 11.8008)
(1.48137e-14 1.30635 10.6542)
(1.6568e-14 1.23287 9.65067)
(4.08553e-14 1.09696 8.79395)
(-3.65691e-14 0.855556 8.12714)
(-2.85817e-14 0.442409 7.64037)
(1.01832e-14 -0.258034 7.57572)
(-7.44976e-14 -1.08754 7.77877)
(-5.42281e-14 -1.68851 8.25648)
(-1.69072e-15 -1.80878 8.96432)
(7.567e-15 -1.80916 9.81746)
(3.82168e-14 -1.65967 10.8034)
(4.79129e-14 -1.45095 11.7193)
(1.96492e-14 -1.24852 12.4786)
(5.44872e-14 -1.09476 13.0874)
(5.97121e-14 -0.997788 13.5969)
(6.28169e-14 -0.944331 14.0646)
(4.78084e-14 -0.911678 14.5354)
(-4.83511e-15 -0.879764 15.0338)
(-4.25166e-15 -0.838598 15.5648)
(1.56242e-17 -0.78621 16.1201)
(-2.36514e-15 -0.722448 16.6823)
(3.18141e-15 -0.642777 17.2285)
(-4.65205e-15 -0.5352 17.7328)
(9.90104e-15 -0.382671 18.1682)