/*--------------------------------*- C++ -*----------------------------------*\
| =========                 |                                                 |
| \\      /  F ield         | OpenFOAM: The Open Source CFD Toolbox           |
|  \\    /   O peration     | Version:  4.1                                   |
|   \\  /    A nd           | Web:      www.OpenFOAM.org                      |
|    \\/     M anipulation  |                                                 |
\*---------------------------------------------------------------------------*/
FoamFile
{
    version     2.0;
    format      ascii;
    class       volScalarField;
    location    "600";
    object      epsilon;
}
// * * * * * * * * * * * * * * * * * * * * * * * * * * * * * * * * * * * * * //

dimensions      [0 2 -3 0 0 0 0];

internalField   nonuniform List<scalar> 
6820
(
115.949
152.042
190.662
230.213
269.214
306.364
340.624
371.269
397.901
420.403
438.872
453.558
464.808
473.016
478.588
481.921
483.382
483.307
481.988
479.683
476.609
472.952
468.866
464.478
459.894
455.2
450.463
445.74
441.073
436.5
432.038
427.794
425.156
9.48475
17.5528
23.8082
29.3429
34.5613
39.5636
44.352
48.9026
53.1849
57.1722
60.8476
64.2059
67.2529
70.003
72.4767
74.6982
76.6936
78.489
80.1097
81.579
82.9182
84.1467
85.2817
86.3377
87.3271
88.2603
89.1456
89.9902
90.7987
91.5778
92.3265
93.0528
93.75
4.14146
5.59603
6.98298
8.20863
9.27788
10.2173
11.0506
11.7953
12.4652
13.0716
13.6233
14.1277
14.5907
15.0172
15.4112
15.7762
16.1151
16.4305
16.7247
16.9992
17.2578
17.5079
17.7517
17.99
18.2234
18.4522
18.6769
18.8978
19.1153
19.3296
19.541
19.7498
19.9542
3.60121
3.91796
4.33109
4.75787
5.1605
5.52671
5.85475
6.14667
6.4058
6.63572
6.83987
7.02139
7.18311
7.32753
7.45679
7.57278
7.6771
7.77115
7.8561
7.93301
8.00269
8.06671
8.12615
8.18177
8.23418
8.28386
8.33121
8.37658
8.42024
8.46245
8.50343
8.54333
8.5825
3.52798
3.56982
3.67476
3.81744
3.97488
4.1328
4.28383
4.42458
4.55377
4.67122
4.77737
4.87291
4.95865
5.03544
5.1041
5.16541
5.2201
5.26884
5.31223
5.35082
5.38509
5.41551
5.44254
5.46658
5.488
5.50712
5.52422
5.53955
5.55332
5.56572
5.57693
5.58706
5.59635
3.5197
3.49572
3.49766
3.52374
3.56745
3.62175
3.681
3.74133
3.80034
3.85661
3.90933
3.95814
4.00291
4.04368
4.08059
4.11384
4.14366
4.17028
4.19396
4.21491
4.23338
4.24957
4.2637
4.27595
4.28652
4.29557
4.30325
4.3097
4.31505
4.31941
4.3229
4.32559
4.32761
3.51928
3.48173
3.4529
3.43487
3.42775
3.42982
3.4388
3.45249
3.46904
3.48707
3.50557
3.52383
3.54138
3.55792
3.57325
3.58727
3.59995
3.61128
3.62129
3.63004
3.6376
3.64405
3.64948
3.65394
3.6575
3.66025
3.66223
3.66351
3.66417
3.66425
3.6638
3.66288
3.66155
3.51938
3.47956
3.44297
3.41081
3.38393
3.36257
3.34634
3.33451
3.32623
3.32072
3.31725
3.31524
3.31422
3.31382
3.31375
3.31381
3.31384
3.31372
3.31338
3.31276
3.31184
3.3106
3.30905
3.30717
3.30499
3.30252
3.29977
3.29675
3.2935
3.29002
3.28634
3.28247
3.27844
3.51942
3.47931
3.44106
3.40504
3.37162
3.34118
3.31388
3.28963
3.26823
3.24937
3.23274
3.218
3.20484
3.19299
3.18219
3.17226
3.16302
3.15434
3.1461
3.13821
3.13062
3.12324
3.11605
3.10901
3.10208
3.09525
3.08851
3.08182
3.0752
3.06864
3.06212
3.05564
3.04922
3.51943
3.47931
3.44074
3.4038
3.36856
3.33518
3.30378
3.27441
3.24705
3.22165
3.19809
3.17623
3.15594
3.13705
3.11941
3.10289
3.08735
3.07269
3.0588
3.04559
3.03299
3.02092
3.00934
2.9982
2.98745
2.97705
2.96697
2.95719
2.94769
2.93844
2.92942
2.92062
2.91203
3.51944
3.47931
3.44068
3.40355
3.36786
3.33364
3.30091
3.26968
3.23995
3.2117
3.18491
3.15952
3.13548
3.1127
3.09111
3.07063
3.05118
3.03268
3.01505
2.99824
2.98217
2.96679
2.95204
2.93789
2.92427
2.91117
2.89853
2.88633
2.87454
2.86314
2.85209
2.84139
2.83101
3.51944
3.47931
3.44066
3.40348
3.3677
3.33326
3.30016
3.26835
3.23781
3.20852
3.18044
3.15355
3.12781
3.10317
3.0796
3.05704
3.03545
3.01477
2.99495
2.97596
2.95773
2.94023
2.92341
2.90724
2.89167
2.87668
2.86222
2.84827
2.8348
2.82179
2.80921
2.79704
2.78525
3.51944
3.47931
3.44064
3.40345
3.36764
3.33315
3.29995
3.26797
3.23718
3.20753
3.17899
3.15152
3.12508
3.09964
3.07516
3.05162
3.02896
3.00716
2.98618
2.96598
2.94654
2.9278
2.90975
2.89235
2.87556
2.85937
2.84373
2.82863
2.81404
2.79994
2.7863
2.7731
2.76032
3.51944
3.4793
3.44063
3.40343
3.36761
3.3331
3.29987
3.26785
3.23698
3.20723
3.17854
3.15087
3.12418
3.09844
3.07362
3.04966
3.02656
3.00426
2.98274
2.96197
2.94192
2.92255
2.90385
2.88579
2.86833
2.85145
2.83514
2.81936
2.80409
2.78931
2.77501
2.76116
2.74774
3.51944
3.4793
3.44063
3.40341
3.36758
3.33307
3.29982
3.26778
3.23689
3.2071
3.17836
3.15063
3.12386
3.09801
3.07305
3.04894
3.02564
3.00313
2.98138
2.96035
2.94002
2.92036
2.90134
2.88294
2.86514
2.8479
2.83122
2.81507
2.79943
2.78428
2.76959
2.75536
2.74156
3.51944
3.4793
3.44062
3.4034
3.36756
3.33304
3.29979
3.26774
3.23684
3.20703
3.17827
3.15051
3.12371
3.09783
3.07282
3.04866
3.0253
3.00271
2.98087
2.95974
2.93929
2.91951
2.90036
2.88182
2.86386
2.84647
2.82961
2.81329
2.79746
2.78212
2.76724
2.75281
2.73881
3.51944
3.4793
3.44061
3.40339
3.36755
3.33302
3.29976
3.2677
3.23679
3.20698
3.17821
3.15044
3.12362
3.09772
3.07269
3.04851
3.02512
3.0025
2.98062
2.95945
2.93896
2.91912
2.89991
2.8813
2.86328
2.84581
2.82888
2.81247
2.79655
2.78112
2.76614
2.75162
2.73752
3.51944
3.47929
3.44061
3.40338
3.36753
3.333
3.29974
3.26767
3.23675
3.20693
3.17816
3.15038
3.12355
3.09764
3.07261
3.04841
3.02501
3.00238
2.98048
2.95929
2.93878
2.91892
2.89969
2.88106
2.86301
2.84551
2.82855
2.8121
2.79615
2.78068
2.76566
2.75109
2.73695
3.51944
3.47929
3.44061
3.40337
3.36752
3.33299
3.29972
3.26765
3.23672
3.2069
3.17811
3.15033
3.1235
3.09758
3.07253
3.04832
3.02492
3.00228
2.98037
2.95917
2.93865
2.91878
2.89954
2.88089
2.86282
2.84531
2.82833
2.81187
2.7959
2.78041
2.76537
2.75078
2.73662
3.51944
3.47929
3.44061
3.40337
3.36752
3.33298
3.2997
3.26763
3.2367
3.20686
3.17807
3.15028
3.12345
3.09752
3.07247
3.04826
3.02484
3.00219
2.98028
2.95908
2.93855
2.91867
2.89942
2.88077
2.86269
2.84517
2.82819
2.81171
2.79574
2.78023
2.76519
2.75059
2.73641
3.51944
3.47929
3.4406
3.40337
3.36751
3.33297
3.29969
3.26761
3.23668
3.20684
3.17804
3.15025
3.1234
3.09747
3.07242
3.0482
3.02478
3.00212
2.98021
2.959
2.93846
2.91858
2.89932
2.88066
2.86258
2.84505
2.82806
2.81158
2.7956
2.78009
2.76504
2.75043
2.73625
3.51944
3.47929
3.4406
3.40336
3.36751
3.33296
3.29968
3.2676
3.23666
3.20682
3.17802
3.15022
3.12337
3.09743
3.07237
3.04815
3.02472
3.00206
2.98014
2.95893
2.93839
2.9185
2.89923
2.88057
2.86248
2.84495
2.82795
2.81147
2.79548
2.77997
2.76491
2.7503
2.73611
3.51944
3.47929
3.4406
3.40336
3.3675
3.33296
3.29967
3.26759
3.23665
3.2068
3.178
3.15019
3.12334
3.0974
3.07233
3.0481
3.02467
3.00201
2.98009
2.95886
2.93832
2.91843
2.89916
2.88049
2.8624
2.84487
2.82786
2.81138
2.79538
2.77987
2.76481
2.75019
2.736
3.51944
3.47929
3.4406
3.40336
3.3675
3.33295
3.29967
3.26758
3.23664
3.20678
3.17798
3.15017
3.12331
3.09737
3.0723
3.04807
3.02463
3.00197
2.98004
2.95881
2.93827
2.91837
2.8991
2.88043
2.86233
2.84479
2.82778
2.81129
2.79529
2.77977
2.76471
2.75009
2.7359
3.51944
3.47929
3.4406
3.40336
3.3675
3.33295
3.29966
3.26757
3.23663
3.20678
3.17797
3.15016
3.1233
3.09735
3.07228
3.04804
3.02461
3.00194
2.98001
2.95878
2.93823
2.91833
2.89906
2.88038
2.86228
2.84474
2.82773
2.81124
2.79524
2.77972
2.76465
2.75003
2.73583
3.51944
3.47929
3.4406
3.40336
3.3675
3.33295
3.29966
3.26757
3.23662
3.20677
3.17796
3.15015
3.12329
3.09734
3.07227
3.04803
3.02459
3.00192
2.97998
2.95875
2.9382
2.9183
2.89902
2.88034
2.86224
2.84469
2.82768
2.81118
2.79518
2.77965
2.76459
2.74996
2.73576
3.51944
3.47929
3.4406
3.40336
3.3675
3.33295
3.29966
3.26757
3.23662
3.20677
3.17796
3.15014
3.12328
3.09733
3.07226
3.04802
3.02458
3.00191
2.97997
2.95875
2.93819
2.91829
2.89901
2.88034
2.86224
2.84469
2.82768
2.81118
2.79518
2.77966
2.76459
2.74996
2.73576
3.51944
3.47929
3.4406
3.40336
3.3675
3.33295
3.29966
3.26757
3.23662
3.20677
3.17796
3.15014
3.12328
3.09733
3.07226
3.04801
3.02457
3.0019
2.97996
2.95873
2.93817
2.91827
2.89899
2.88031
2.8622
2.84466
2.82764
2.81114
2.79514
2.77961
2.76454
2.74991
2.73571
3.51944
3.47929
3.4406
3.40336
3.3675
3.33295
3.29966
3.26757
3.23663
3.20677
3.17797
3.15016
3.1233
3.09735
3.07228
3.04804
3.02461
3.00194
2.98001
2.95878
2.93823
2.91833
2.89905
2.88038
2.86228
2.84474
2.82773
2.81123
2.79523
2.7797
2.76464
2.75001
2.73581
3.51944
3.47929
3.4406
3.40336
3.3675
3.33296
3.29967
3.26758
3.23663
3.20678
3.17797
3.15016
3.1233
3.09735
3.07227
3.04803
3.02459
3.00192
2.97998
2.95875
2.9382
2.9183
2.89902
2.88034
2.86224
2.8447
2.82769
2.81119
2.79519
2.77967
2.7646
2.74998
2.73579
3.51944
3.47929
3.4406
3.40336
3.3675
3.33296
3.29968
3.26759
3.23666
3.20681
3.17802
3.15022
3.12337
3.09744
3.07238
3.04815
3.02473
3.00207
2.98015
2.95894
2.9384
2.91851
2.89925
2.88059
2.86251
2.84498
2.82799
2.81151
2.79553
2.78002
2.76497
2.75037
2.73619
3.51944
3.47929
3.4406
3.40337
3.36751
3.33297
3.29968
3.2676
3.23666
3.20681
3.178
3.1502
3.12335
3.09741
3.07236
3.04814
3.02472
3.00208
2.98017
2.95898
2.93847
2.91861
2.89938
2.88075
2.86271
2.84522
2.82827
2.81184
2.79591
2.78045
2.76546
2.75092
2.7368
3.51944
3.47929
3.44061
3.40337
3.36753
3.333
3.29975
3.26771
3.23682
3.20703
3.17829
3.15055
3.12378
3.09793
3.07295
3.04883
3.02551
3.00297
2.98118
2.96011
2.93972
2.91999
2.9009
2.88242
2.86453
2.8472
2.83041
2.81415
2.79839
2.78311
2.7683
2.75393
2.74
3.51944
3.47929
3.44061
3.40338
3.36754
3.33305
3.29985
3.26787
3.23707
3.2074
3.1788
3.15124
3.12468
3.09906
3.07436
3.05054
3.02756
3.00539
2.98399
2.96333
2.94338
2.92411
2.9055
2.88751
2.87013
2.85332
2.83707
2.82134
2.80613
2.7914
2.77715
2.76334
2.74997
3.51943
3.4793
3.44066
3.40356
3.36794
3.33374
3.30092
3.26945
3.23927
3.21034
3.18261
3.15603
3.13055
3.10613
3.08271
3.06025
3.03869
3.018
2.99812
2.97902
2.96065
2.94297
2.92596
2.90957
2.89377
2.87854
2.86385
2.84966
2.83596
2.82271
2.80991
2.79753
2.78554
3.51942
3.47942
3.4412
3.4049
3.37061
3.33828
3.30787
3.27931
3.25251
3.22735
3.20373
3.18153
3.16063
3.14093
3.12231
3.1047
3.08799
3.07211
3.05699
3.04257
3.02878
3.01558
3.00292
2.99077
2.97908
2.96782
2.95697
2.9465
2.93638
2.92659
2.91711
2.90792
2.899
3.5196
3.48203
3.4494
3.42177
3.39875
3.37983
3.36441
3.35191
3.34177
3.33353
3.3268
3.32125
3.31661
3.31267
3.30925
3.30621
3.30345
3.30086
3.29839
3.29598
3.2936
3.29121
3.28878
3.28632
3.28379
3.28121
3.27855
3.27583
3.27304
3.27019
3.26728
3.26431
3.26128
3.53049
3.53942
3.57108
3.61695
3.67052
3.72752
3.78534
3.8424
3.89781
3.95099
4.00159
4.04948
4.09461
4.13702
4.17679
4.21404
4.24889
4.28148
4.31194
4.34041
4.36702
4.39189
4.41514
4.43687
4.4572
4.47622
4.49402
4.51069
4.5263
4.54093
4.55464
4.56751
4.57963
4.00122
4.78106
5.43757
6.00231
6.50076
6.94827
7.35507
7.72866
8.07468
8.39742
8.70024
8.9858
9.25625
9.51331
9.75842
9.99277
10.2173
10.433
10.6404
10.8402
11.0329
11.2189
11.3988
11.5727
11.7411
11.9043
12.0624
12.2157
12.3645
12.5089
12.6492
12.7855
12.9183
31.176
33.6247
36.0474
38.4445
40.8147
43.1561
45.4659
47.7407
49.9771
52.1721
54.3229
56.4268
58.4815
60.4853
62.4365
64.3338
66.1764
67.9636
69.6951
71.3708
72.9908
74.5555
76.0654
77.5213
78.9239
80.2743
81.5734
82.8226
84.0229
85.1757
86.2824
87.3447
88.3714
436.981
505.207
596.966
697.832
789.037
858.155
901.029
919.163
917.38
901.552
876.935
847.356
815.42
782.764
750.291
718.501
687.455
657.32
627.965
599.42
571.784
545.141
519.552
495.073
471.769
449.701
428.913
409.42
391.208
374.237
358.45
343.787
330.184
317.573
305.887
295.053
284.998
275.646
266.92
258.749
251.061
243.79
236.874
230.255
223.88
217.702
211.675
205.761
199.925
194.139
188.384
182.647
176.925
171.223
165.55
159.919
154.341
148.828
143.388
138.024
132.74
127.534
122.404
117.346
112.35
107.407
102.505
97.632
92.7776
87.9377
83.1147
78.3195
73.5706
68.8931
64.3161
59.8695
55.5813
51.4757
47.5722
43.8857
40.4275
37.2064
34.2305
31.508
29.0479
26.8615
24.9634
23.3727
22.1114
21.1958
20.6273
20.3862
20.4347
20.7217
21.1969
21.8065
22.5207
23.2905
24.1491
25.1829
95.1398
100.383
110.491
127.561
152.111
183.165
218.818
256.416
293.13
326.595
355.222
378.228
395.536
407.566
414.998
418.586
418.958
416.643
412.289
406.358
399.188
391.029
382.067
372.462
362.374
351.964
341.39
330.795
320.297
309.989
299.94
290.199
280.803
271.778
263.136
254.881
247.005
239.492
232.318
225.455
218.871
212.535
206.413
200.473
194.687
189.026
183.464
177.977
172.546
167.157
161.798
156.468
151.168
145.909
140.701
135.56
130.498
125.524
120.646
115.866
111.185
106.599
102.103
97.6894
93.3491
89.071
84.8432
80.6547
76.4976
72.3683
68.2696
64.2111
60.2089
56.2842
52.4607
48.7627
45.2127
41.8298
38.6292
35.6226
32.8185
30.2235
27.8436
25.685
23.7552
22.0636
20.6235
19.4532
18.5737
18.0005
17.733
17.7496
18.0114
18.4689
19.0745
19.7799
20.5593
21.3719
22.247
23.2893
20.2105
20.6044
21.3045
22.6196
24.9176
28.5905
33.8587
40.8981
49.7989
60.5486
72.939
86.6193
101.154
116.078
130.941
145.331
158.892
171.239
182.231
191.829
200.03
206.847
212.299
216.418
219.258
220.9
221.448
221.021
219.743
217.736
215.117
211.992
208.46
204.611
200.524
196.268
191.899
187.461
182.988
178.503
174.023
169.556
165.109
160.682
156.274
151.883
147.504
143.134
138.768
134.405
130.044
125.69
121.351
117.04
112.77
108.557
104.412
100.347
96.3679
92.4781
88.6771
84.962
81.3273
77.7657
74.2684
70.8253
67.4262
64.0619
60.7259
57.4158
54.1342
50.8896
47.6954
44.5688
41.5294
38.5965
35.7882
33.1197
30.6032
28.2478
26.0602
24.0458
22.2095
20.5569
19.0949
17.8324
16.7816
15.9592
15.3847
15.0734
15.027
15.2264
15.6362
16.2104
16.9044
17.6744
18.4965
19.3353
20.2162
21.2552
8.62705
8.68181
8.75148
8.85985
9.04281
9.357
9.8744
10.6749
11.8527
13.4468
15.5332
18.1924
21.4935
25.4889
30.2077
35.6476
41.7663
48.468
55.6003
63.0317
70.6237
78.2268
85.6838
92.8386
99.5479
105.692
111.181
115.958
119.995
123.289
125.858
127.736
128.969
129.612
129.725
129.37
128.607
127.492
126.075
124.401
122.507
120.427
118.186
115.808
113.312
110.711
108.02
105.247
102.402
99.4937
96.5315
93.5263
90.4915
87.4424
84.3952
81.3662
78.3701
75.4185
72.5197
69.6786
66.8963
64.1716
61.5008
58.8784
56.2976
53.7506
51.2299
48.7286
46.2422
43.7692
41.3126
38.8793
36.4805
34.1302
31.844
29.6375
27.5254
25.52
23.6312
21.8665
20.2317
18.7315
17.3703
16.1535
15.0883
14.1841
13.4535
12.9114
12.5744
12.456
12.5595
12.8715
13.3634
13.9964
14.7313
15.529
16.3671
17.2139
18.0892
19.1199
5.60576
5.61686
5.62963
5.64567
5.66832
5.70353
5.76142
5.85619
6.00639
6.23266
6.55233
6.98645
7.56118
8.30595
9.25279
10.4355
11.8878
13.6406
15.7087
18.1074
20.8439
23.913
27.2935
30.9461
34.8144
38.8278
42.9065
46.9666
50.9258
54.7077
58.2458
61.4859
64.3882
66.9273
69.0916
70.8811
72.3052
73.3803
74.1268
74.5678
74.7271
74.6285
74.2949
73.7479
73.0075
72.0922
71.0186
69.802
68.4566
66.9958
65.4333
63.7834
62.0612
60.283
58.4653
56.6243
54.7746
52.9285
51.0953
49.2811
47.4891
45.7199
43.972
42.2425
40.527
38.8207
37.1189
35.4172
33.7133
32.0071
30.3014
28.6022
26.9187
25.2618
23.6441
22.078
20.5752
19.1458
17.7981
16.5386
15.3726
14.3043
13.3384
12.4799
11.7361
11.117
10.6357
10.3076
10.1473
10.1658
10.3656
10.7371
11.259
11.9009
12.6312
13.4169
14.2384
15.0675
15.9182
16.9274
4.32905
4.32991
4.33068
4.33153
4.33279
4.33528
4.3404
4.35039
4.3687
4.40004
4.44974
4.52332
4.62819
4.77258
4.96585
5.2186
5.5426
5.95082
6.45526
7.06842
7.8035
8.67335
9.68931
10.8599
12.1894
13.6768
15.3149
17.0896
18.98
20.9592
22.9949
25.0518
27.0929
29.0826
30.9876
32.7792
34.4338
35.9332
37.2647
38.4204
39.3967
40.1936
40.8141
41.2633
41.548
41.6761
41.6563
41.4975
41.2091
40.801
40.2835
39.6677
38.9657
38.19
37.3539
36.4701
35.5506
34.6057
33.6436
32.6706
31.6902
30.7045
29.7135
28.7163
27.7108
26.6945
25.6649
24.6201
23.559
22.4826
21.3935
20.2969
19.1998
18.1109
17.0397
15.9959
14.9886
14.0259
13.1148
12.261
11.4691
10.7435
10.0887
9.50993
9.0142
8.61108
8.31346
8.13675
8.09583
8.20081
8.45364
8.84652
9.36303
9.97989
10.6726
11.4146
12.1901
12.9751
13.7781
14.7432
3.65942
3.65638
3.65277
3.6489
3.64463
3.64009
3.63551
3.63131
3.62828
3.62744
3.63014
3.63795
3.65292
3.67757
3.71485
3.76818
3.84146
3.93905
4.0656
4.22558
4.42409
4.66644
4.95798
5.30399
5.70936
6.17836
6.7143
7.31919
7.99335
8.73504
9.54021
10.4024
11.3127
12.2602
13.2323
14.2151
15.1943
16.1557
17.0857
17.9714
18.8018
19.5673
20.2601
20.8742
21.4054
21.851
22.21
22.4824
22.6696
22.774
22.7991
22.7496
22.6311
22.4503
22.2145
21.9312
21.6077
21.2505
20.8652
20.4562
20.0264
19.5775
19.1102
18.6242
18.1189
17.5929
17.0451
16.4747
15.8815
15.2665
14.6321
13.982
13.3215
12.6568
11.9951
11.3433
10.7084
10.0968
9.51388
8.96448
8.45279
7.98279
7.55874
7.1858
6.87068
6.62232
6.45246
6.37536
6.40552
6.5535
6.8223
7.20611
7.69202
8.26183
8.89646
9.57501
10.2846
11.0059
11.7428
12.6399
3.27348
3.26745
3.26097
3.25418
3.24706
3.23962
3.23191
3.22399
3.21598
3.2081
3.20069
3.19419
3.18921
3.1865
3.18703
3.19196
3.20267
3.22072
3.24792
3.28608
3.33722
3.40341
3.48696
3.59006
3.71487
3.86343
4.03763
4.2391
4.46914
4.72861
5.01788
5.33665
5.68392
6.05792
6.45611
6.87521
7.31125
7.75966
8.21536
8.67295
9.12683
9.57137
10.0011
10.4109
10.7959
11.152
11.4755
11.7634
12.0136
12.2244
12.3952
12.5261
12.618
12.6727
12.6926
12.6806
12.6397
12.5728
12.4825
12.3708
12.2391
12.0882
11.9184
11.7293
11.5205
11.2911
11.0403
10.7675
10.4728
10.1567
9.82084
9.4676
9.10046
8.72361
8.34178
7.95993
7.58293
7.21538
6.86148
6.52502
6.20947
5.91828
5.65522
5.42485
5.23319
5.0883
5.0007
4.98301
5.04842
5.20736
5.46421
5.81573
6.2524
6.76016
7.32407
7.92758
8.56026
9.20622
9.86615
10.6786
3.04173
3.03303
3.02405
3.01482
3.0054
2.99575
2.98587
2.97575
2.96541
2.95488
2.94427
2.93373
2.92341
2.91353
2.90438
2.89633
2.88986
2.88554
2.88404
2.88617
2.89275
2.90469
2.92297
2.9486
2.98259
3.02591
3.07949
3.14417
3.22066
3.30971
3.41182
3.52723
3.65597
3.79784
3.95239
4.11894
4.29657
4.48407
4.67999
4.88268
5.09025
5.30067
5.51177
5.72131
5.92703
6.12668
6.31809
6.49925
6.66828
6.82358
6.96384
7.08812
7.19585
7.2869
7.36152
7.42024
7.46379
7.49294
7.50841
7.51071
7.50011
7.47659
7.43988
7.38945
7.32461
7.24458
7.14859
7.03603
6.90659
6.76041
6.59818
6.42123
6.2315
6.0315
5.82411
5.61249
5.39984
5.18927
4.98375
4.78607
4.5989
4.425
4.26744
4.12998
4.01759
3.93702
3.89726
3.90933
3.98494
4.1339
4.36137
4.66634
5.04242
5.47919
5.96519
6.48746
7.03753
7.60235
8.18006
8.89887
2.90222
2.89104
2.87973
2.86828
2.85671
2.84504
2.83323
2.82128
2.80917
2.79693
2.78456
2.77209
2.75956
2.74706
2.73466
2.72249
2.7107
2.69948
2.68909
2.67981
2.67197
2.66596
2.66221
2.66119
2.66339
2.66928
2.67937
2.69413
2.71398
2.73933
2.77051
2.80777
2.85127
2.90104
2.95715
3.0195
3.08784
3.16182
3.241
3.32483
3.41267
3.50382
3.59748
3.6928
3.78889
3.88481
3.97962
4.07238
4.16219
4.24817
4.32956
4.4057
4.47606
4.54028
4.59816
4.64964
4.69475
4.73354
4.76608
4.79231
4.8121
4.82514
4.83102
4.82917
4.81891
4.79953
4.77031
4.73061
4.67996
4.61815
4.5453
4.46194
4.36899
4.26772
4.15975
4.04689
3.93106
3.81424
3.69835
3.58531
3.47702
3.3755
3.28306
3.20258
3.1379
3.0943
3.079
3.10117
3.17105
3.29774
3.48688
3.73909
4.05046
4.41361
4.81996
5.25955
5.72559
6.20752
6.70171
7.32354
2.81924
2.80595
2.79261
2.77922
2.76577
2.75229
2.73875
2.72516
2.71149
2.69775
2.68392
2.67001
2.65604
2.64204
2.62802
2.61401
2.60007
2.58624
2.57261
2.5593
2.54644
2.53416
2.52264
2.51208
2.50269
2.49471
2.48837
2.48392
2.48162
2.4817
2.48438
2.48985
2.49827
2.50973
2.52433
2.54207
2.56297
2.58699
2.61401
2.64384
2.67624
2.71094
2.74763
2.78596
2.82556
2.86604
2.907
2.94802
2.9887
3.02864
3.06746
3.10483
3.14047
3.17414
3.2057
3.23502
3.26205
3.28674
3.30903
3.32881
3.34591
3.3601
3.37103
3.3783
3.3814
3.3798
3.37294
3.36029
3.34139
3.31591
3.28373
3.24492
3.19982
3.14899
3.09322
3.03347
2.9708
2.90636
2.84133
2.77693
2.7144
2.65514
2.60075
2.55326
2.51545
2.4912
2.48596
2.50697
2.56279
2.66172
2.80968
3.00863
3.25662
3.54862
3.87836
4.23827
4.62299
5.02406
5.4368
5.96251
2.77194
2.75694
2.74194
2.72695
2.71195
2.69695
2.68194
2.66693
2.6519
2.63684
2.62175
2.60663
2.59148
2.57631
2.56112
2.54592
2.53073
2.51555
2.50043
2.48538
2.47046
2.45571
2.44119
2.42698
2.41317
2.39985
2.38713
2.37513
2.36397
2.35378
2.34468
2.3368
2.33026
2.32514
2.32154
2.31951
2.31913
2.32042
2.32337
2.32794
2.33406
2.34163
2.35053
2.36062
2.37174
2.38372
2.39638
2.40954
2.42299
2.43656
2.45007
2.46335
2.47625
2.48867
2.50051
2.5117
2.52219
2.53197
2.54097
2.54915
2.55641
2.56261
2.56756
2.57102
2.57269
2.57224
2.5693
2.5635
2.55449
2.54199
2.5258
2.50583
2.48214
2.45494
2.42454
2.39142
2.35611
2.31925
2.28149
2.24358
2.20627
2.17045
2.13717
2.10776
2.08409
2.0688
2.06576
2.08034
2.11934
2.19002
2.29832
2.44729
2.63665
2.86327
3.12268
3.40918
3.71854
4.04404
4.38047
4.81468
2.7459
2.72966
2.71344
2.69724
2.68106
2.66489
2.64874
2.63261
2.61648
2.60036
2.58424
2.56811
2.55198
2.53585
2.51972
2.50359
2.48746
2.47135
2.45525
2.43919
2.42316
2.40719
2.39129
2.37549
2.35981
2.3443
2.329
2.31394
2.29919
2.2848
2.27084
2.25737
2.24447
2.23222
2.22067
2.20988
2.1999
2.19076
2.18248
2.17509
2.16857
2.1629
2.15805
2.15397
2.1506
2.14788
2.14571
2.14403
2.14273
2.14174
2.14096
2.14032
2.13973
2.13914
2.1385
2.13776
2.13691
2.13592
2.13478
2.13346
2.13192
2.13011
2.12793
2.12527
2.12196
2.11784
2.11269
2.1063
2.09843
2.0889
2.07752
2.0642
2.04889
2.03162
2.01251
1.99175
1.9696
1.94637
1.92242
1.89816
1.87402
1.85055
1.82836
1.80828
1.79147
1.77961
1.7752
1.78196
1.80493
1.85007
1.92304
2.02767
2.16509
2.33383
2.53092
2.75213
2.99411
3.25153
3.51903
3.86942
2.73258
2.71551
2.69846
2.68143
2.66442
2.64742
2.63044
2.61348
2.59654
2.57961
2.56269
2.54578
2.52889
2.51201
2.49514
2.47828
2.46144
2.44462
2.42781
2.41103
2.39427
2.37754
2.36084
2.34418
2.32756
2.311
2.2945
2.27809
2.26178
2.2456
2.22958
2.21373
2.19812
2.1828
2.1678
2.15315
2.13888
2.12502
2.1116
2.09862
2.08611
2.07407
2.06249
2.05138
2.04071
2.03046
2.0206
2.01111
2.00193
1.99304
1.98439
1.97594
1.96766
1.95952
1.95148
1.94352
1.93563
1.9278
1.92002
1.91227
1.90456
1.89685
1.88911
1.88129
1.87333
1.86513
1.8566
1.84762
1.83808
1.82784
1.81681
1.80488
1.79201
1.77818
1.76341
1.74777
1.73136
1.71433
1.69685
1.67914
1.66143
1.64402
1.62727
1.61165
1.59781
1.58673
1.5799
1.57965
1.58937
1.61354
1.65712
1.7243
1.81739
1.93641
2.07974
2.2444
2.42779
2.62565
2.83278
3.10888
2.72597
2.70839
2.69082
2.67327
2.65572
2.63819
2.62066
2.60315
2.58566
2.56817
2.5507
2.53325
2.5158
2.49838
2.48096
2.46357
2.44619
2.42883
2.4115
2.39418
2.37689
2.35963
2.34238
2.32517
2.30797
2.29081
2.27367
2.25657
2.23951
2.22251
2.20558
2.18874
2.17199
2.15536
2.13888
2.12255
2.1064
2.09044
2.0747
2.05919
2.04391
2.02888
2.01411
1.9996
1.98535
1.97136
1.95762
1.94412
1.93085
1.9178
1.90495
1.89227
1.87977
1.86741
1.85518
1.84308
1.83109
1.8192
1.80742
1.79573
1.78413
1.77262
1.76118
1.74981
1.73846
1.72711
1.71572
1.70424
1.6926
1.68075
1.66863
1.65618
1.64337
1.63017
1.61658
1.6026
1.58828
1.57367
1.55886
1.54395
1.52905
1.51432
1.49995
1.48618
1.47336
1.462
1.45292
1.44739
1.44744
1.45605
1.47703
1.51434
1.57106
1.64854
1.74651
1.86318
1.99665
2.14356
2.29905
2.51103
2.72299
2.70513
2.68727
2.66941
2.65155
2.6337
2.61585
2.598
2.58016
2.56233
2.5445
2.52668
2.50888
2.49108
2.4733
2.45553
2.43778
2.42005
2.40234
2.38465
2.36698
2.34934
2.33172
2.31412
2.29654
2.27898
2.26145
2.24393
2.22643
2.20896
2.19153
2.17416
2.15686
2.13963
2.12247
2.1054
2.08842
2.07154
2.05478
2.03814
2.02162
2.00524
1.98901
1.97292
1.95699
1.94122
1.9256
1.91014
1.89483
1.87968
1.86467
1.8498
1.83507
1.82047
1.80599
1.79162
1.77737
1.76322
1.74917
1.73522
1.72137
1.70761
1.69395
1.68038
1.66689
1.65347
1.64011
1.62679
1.61348
1.60017
1.58683
1.57343
1.55996
1.54639
1.53272
1.51894
1.50508
1.49114
1.47717
1.4632
1.4493
1.43552
1.42198
1.40877
1.39608
1.38414
1.37335
1.36433
1.35815
1.35648
1.36179
1.37718
1.40579
1.44991
1.51055
1.58717
1.67872
1.78269
1.89475
2.05235
2.72157
2.70357
2.68556
2.66754
2.64951
2.63148
2.61345
2.59541
2.57737
2.55934
2.5413
2.52327
2.50524
2.48722
2.46921
2.45121
2.43322
2.41525
2.39729
2.37935
2.36143
2.34353
2.32565
2.30779
2.28995
2.27213
2.25433
2.23656
2.21881
2.2011
2.18342
2.16578
2.14819
2.13064
2.11315
2.09572
2.07835
2.06104
2.04381
2.02665
2.00958
1.99259
1.97569
1.95889
1.94218
1.92558
1.90908
1.89269
1.87641
1.86024
1.84418
1.82822
1.81237
1.79663
1.78099
1.76545
1.75
1.73465
1.71939
1.70423
1.68915
1.67416
1.65926
1.64444
1.62972
1.61508
1.60052
1.58605
1.57165
1.55732
1.54305
1.52883
1.51467
1.50054
1.48645
1.4724
1.45839
1.44443
1.43052
1.41669
1.40296
1.38936
1.37593
1.36272
1.34981
1.3373
1.32535
1.31424
1.30445
1.29677
1.29254
1.29367
1.30262
1.32181
1.35312
1.39725
1.45417
1.52233
1.59825
1.71013
2.72095
2.70288
2.6848
2.6667
2.64859
2.63048
2.61235
2.59422
2.57608
2.55793
2.53978
2.52163
2.50349
2.48534
2.4672
2.44906
2.43093
2.41281
2.3947
2.37661
2.35853
2.34047
2.32242
2.3044
2.28639
2.2684
2.25042
2.23247
2.21453
2.19663
2.17877
2.16096
2.14319
2.12547
2.1078
2.09017
2.0726
2.05509
2.03763
2.02023
2.0029
1.98563
1.96843
1.9513
1.93425
1.91727
1.90037
1.88355
1.86682
1.85017
1.83361
1.81714
1.80075
1.78446
1.76825
1.75212
1.73608
1.72012
1.70425
1.68846
1.67275
1.65711
1.64156
1.62609
1.61071
1.59541
1.58019
1.56506
1.55002
1.53508
1.52022
1.50546
1.49079
1.47622
1.46174
1.44735
1.43307
1.41888
1.4048
1.39083
1.37698
1.36327
1.3497
1.3363
1.32309
1.31011
1.29742
1.28512
1.2734
1.26258
1.25325
1.24638
1.2434
1.24611
1.25644
1.27581
1.30519
1.34412
1.39034
1.4638
2.72059
2.70249
2.68437
2.66623
2.64808
2.62992
2.61175
2.59357
2.57537
2.55717
2.53897
2.52076
2.50255
2.48433
2.46612
2.44791
2.42971
2.41151
2.39332
2.37514
2.35696
2.33881
2.32066
2.30254
2.28443
2.26633
2.24825
2.2302
2.21218
2.19419
2.17623
2.15832
2.14044
2.12261
2.10482
2.08709
2.0694
2.05176
2.03418
2.01666
1.99919
1.98178
1.96443
1.94714
1.92992
1.91276
1.89567
1.87866
1.86171
1.84485
1.82805
1.81134
1.7947
1.77814
1.76165
1.74525
1.72892
1.71267
1.6965
1.6804
1.66438
1.64843
1.63255
1.61676
1.60104
1.5854
1.56985
1.55438
1.539
1.52372
1.50854
1.49345
1.47848
1.46362
1.44887
1.43423
1.41972
1.40533
1.39105
1.37691
1.36289
1.349
1.33525
1.32164
1.30817
1.29486
1.28171
1.26875
1.25603
1.24367
1.2319
1.2211
1.21195
1.20542
1.20283
1.2055
1.21484
1.23122
1.25393
1.29537
2.72037
2.70226
2.68412
2.66597
2.6478
2.62962
2.61143
2.59322
2.57501
2.55678
2.53855
2.52031
2.50207
2.48382
2.46557
2.44733
2.42908
2.41084
2.39261
2.37438
2.35616
2.33795
2.31976
2.30157
2.2834
2.26524
2.2471
2.22897
2.21088
2.19282
2.1748
2.15682
2.13888
2.12098
2.10313
2.08533
2.06757
2.04986
2.03221
2.01461
1.99707
1.97958
1.96215
1.94478
1.92748
1.91023
1.89305
1.87594
1.8589
1.84193
1.82502
1.80819
1.79144
1.77475
1.75814
1.74161
1.72515
1.70876
1.69245
1.6762
1.66004
1.64394
1.62792
1.61197
1.59609
1.5803
1.56458
1.54895
1.53341
1.51797
1.50262
1.48737
1.47223
1.45721
1.44231
1.42752
1.41286
1.39832
1.38391
1.36963
1.35548
1.34146
1.32756
1.31379
1.30015
1.28661
1.27319
1.25986
1.24664
1.23356
1.22068
1.20813
1.19619
1.18526
1.17601
1.16922
1.16604
1.16698
1.17275
1.18864
2.7202
2.70207
2.68393
2.66577
2.64759
2.62939
2.61119
2.59297
2.57474
2.5565
2.53826
2.52
2.50174
2.48348
2.46521
2.44695
2.42868
2.41042
2.39216
2.37391
2.35567
2.33743
2.31921
2.30099
2.28279
2.2646
2.24643
2.22828
2.21016
2.19207
2.17402
2.156
2.13802
2.12009
2.10219
2.08434
2.06654
2.04879
2.0311
2.01345
1.99586
1.97833
1.96085
1.94343
1.92608
1.90878
1.89155
1.87439
1.85729
1.84027
1.82331
1.80642
1.78961
1.77287
1.7562
1.7396
1.72308
1.70663
1.69025
1.67395
1.65772
1.64156
1.62547
1.60946
1.59353
1.57767
1.56189
1.54619
1.53059
1.51507
1.49965
1.48434
1.46913
1.45403
1.43905
1.42419
1.40946
1.39485
1.38036
1.36601
1.35178
1.33767
1.32369
1.30983
1.29607
1.28242
1.26884
1.25533
1.24187
1.22845
1.21508
1.2018
1.1887
1.17591
1.16373
1.15245
1.14281
1.13489
1.13034
1.1279
2.72006
2.70193
2.68377
2.66561
2.64742
2.62922
2.61101
2.59278
2.57455
2.5563
2.53805
2.51979
2.50152
2.48325
2.46498
2.4467
2.42843
2.41016
2.39189
2.37362
2.35537
2.33712
2.31888
2.30064
2.28242
2.26421
2.24602
2.22785
2.20971
2.19161
2.17353
2.15549
2.13749
2.11953
2.10161
2.08374
2.06592
2.04814
2.03041
2.01274
1.99512
1.97756
1.96005
1.9426
1.92522
1.9079
1.89064
1.87345
1.85632
1.83927
1.82228
1.80537
1.78852
1.77175
1.75506
1.73844
1.72189
1.70542
1.68902
1.67269
1.65644
1.64026
1.62416
1.60813
1.59218
1.57631
1.56052
1.54481
1.52919
1.51366
1.49823
1.4829
1.46768
1.45257
1.43757
1.42269
1.40793
1.3933
1.37879
1.36441
1.35015
1.33602
1.32201
1.30811
1.29431
1.28061
1.26697
1.25338
1.23983
1.22627
1.21271
1.19914
1.18558
1.17207
1.15873
1.14561
1.13316
1.121
1.11137
1.09779
2.71994
2.7018
2.68365
2.66547
2.64728
2.62908
2.61086
2.59263
2.57439
2.55614
2.53788
2.51962
2.50134
2.48307
2.46479
2.44651
2.42823
2.40995
2.39168
2.3734
2.35514
2.33688
2.31863
2.30039
2.28215
2.26393
2.24573
2.22756
2.20941
2.1913
2.17321
2.15516
2.13715
2.11917
2.10124
2.08335
2.06551
2.04772
2.02997
2.01228
1.99464
1.97706
1.95954
1.94207
1.92467
1.90733
1.89005
1.87284
1.8557
1.83863
1.82163
1.8047
1.78785
1.77107
1.75436
1.73773
1.72118
1.7047
1.6883
1.67198
1.65573
1.63956
1.62346
1.60745
1.59151
1.57565
1.55988
1.54419
1.52859
1.51309
1.49768
1.48237
1.46717
1.45208
1.4371
1.42224
1.40751
1.39289
1.3784
1.36404
1.3498
1.33568
1.32168
1.3078
1.29401
1.28031
1.26668
1.25309
1.23952
1.22595
1.21234
1.19869
1.18499
1.17123
1.15747
1.14367
1.13014
1.11623
1.10458
1.08538
2.71983
2.70169
2.68353
2.66535
2.64716
2.62895
2.61073
2.59249
2.57425
2.55599
2.53773
2.51946
2.50118
2.4829
2.46462
2.44634
2.42805
2.40977
2.39149
2.37321
2.35494
2.33668
2.31842
2.30017
2.28193
2.26372
2.24552
2.22734
2.20919
2.19107
2.17298
2.15493
2.1369
2.11892
2.10098
2.08308
2.06523
2.04742
2.02967
2.01197
1.99432
1.97672
1.95919
1.94171
1.9243
1.90695
1.88966
1.87244
1.85529
1.83822
1.82121
1.80428
1.78743
1.77065
1.75394
1.73732
1.72078
1.70431
1.68792
1.67161
1.65539
1.63924
1.62317
1.60719
1.59128
1.57546
1.55973
1.54408
1.52853
1.51307
1.49771
1.48246
1.46731
1.45227