/*--------------------------------*- C++ -*----------------------------------*\
| =========                 |                                                 |
| \\      /  F ield         | OpenFOAM: The Open Source CFD Toolbox           |
|  \\    /   O peration     | Version:  4.1                                   |
|   \\  /    A nd           | Web:      www.OpenFOAM.org                      |
|    \\/     M anipulation  |                                                 |
\*---------------------------------------------------------------------------*/
FoamFile
{
    version     2.0;
    format      ascii;
    class       volScalarField;
    location    "600";
    object      k;
}
// * * * * * * * * * * * * * * * * * * * * * * * * * * * * * * * * * * * * * //

dimensions      [0 2 -2 0 0 0 0];

internalField   nonuniform List<scalar> 
6820
(
0.241787
0.289665
0.336844
0.381951
0.423954
0.46211
0.495949
0.525266
0.550094
0.570642
0.587235
0.600264
0.61015
0.617311
0.62215
0.625035
0.626298
0.626232
0.625093
0.623098
0.620434
0.617256
0.613695
0.609861
0.605842
0.601712
0.597531
0.593347
0.589199
0.585119
0.581125
0.577314
0.574937
0.202474
0.204679
0.206995
0.209467
0.212041
0.214681
0.217362
0.220056
0.222732
0.225369
0.227953
0.230477
0.23294
0.235347
0.237704
0.240022
0.242309
0.244576
0.246831
0.249083
0.251337
0.2536
0.255875
0.258165
0.260472
0.262795
0.265133
0.267485
0.269848
0.272219
0.274595
0.276971
0.279866
0.199741
0.199215
0.198471
0.197596
0.196619
0.195573
0.194483
0.193366
0.192234
0.191099
0.18997
0.188854
0.18776
0.186694
0.185661
0.184666
0.183714
0.18281
0.181956
0.181156
0.180411
0.179722
0.179087
0.178507
0.177979
0.177504
0.177081
0.176707
0.176382
0.176104
0.175871
0.175687
0.175585
0.199153
0.198176
0.197113
0.195992
0.194809
0.19357
0.192297
0.191001
0.189694
0.188384
0.187078
0.185782
0.1845
0.183237
0.181996
0.18078
0.179591
0.17843
0.1773
0.176203
0.175139
0.174109
0.173113
0.172151
0.171223
0.17033
0.169469
0.168642
0.167847
0.167083
0.166351
0.16565
0.164978
0.198981
0.1979
0.196807
0.195699
0.194559
0.193388
0.192197
0.190994
0.189784
0.188574
0.187366
0.186166
0.184977
0.183802
0.182643
0.181502
0.180382
0.179282
0.178206
0.177152
0.176124
0.17512
0.174142
0.173189
0.172262
0.17136
0.170483
0.169632
0.168805
0.168003
0.167225
0.166469
0.165729
0.198926
0.197795
0.196678
0.195576
0.194473
0.193363
0.192249
0.191134
0.190019
0.188909
0.187805
0.186711
0.185628
0.184558
0.183504
0.182465
0.181444
0.180441
0.179457
0.178492
0.177547
0.176623
0.175719
0.174836
0.173974
0.173132
0.172311
0.17151
0.170729
0.169968
0.169227
0.168504
0.16779
0.198906
0.197755
0.196631
0.195537
0.194463
0.193399
0.192342
0.191294
0.190254
0.189222
0.188201
0.187192
0.186194
0.18521
0.184241
0.183286
0.182348
0.181426
0.18052
0.179632
0.178762
0.177909
0.177074
0.176257
0.175458
0.174677
0.173914
0.173168
0.17244
0.171728
0.171034
0.170355
0.169683
0.1989
0.19774
0.196611
0.195517
0.194452
0.193408
0.192382
0.191373
0.19038
0.189401
0.188437
0.187487
0.186552
0.185631
0.184726
0.183837
0.182964
0.182106
0.181265
0.180441
0.179633
0.178841
0.178065
0.177307
0.176564
0.175837
0.175127
0.174433
0.173754
0.17309
0.172442
0.171807
0.171177
0.198897
0.197734
0.196603
0.195508
0.194448
0.193415
0.192408
0.191424
0.19046
0.189516
0.188591
0.187683
0.186792
0.185919
0.185061
0.184221
0.183396
0.182588
0.181796
0.18102
0.18026
0.179515
0.178787
0.178074
0.177376
0.176693
0.176026
0.175373
0.174735
0.174111
0.173501
0.172903
0.172309
0.198896
0.197732
0.1966
0.195505
0.194445
0.193417
0.192417
0.191444
0.190496
0.189571
0.188668
0.187785
0.186923
0.186079
0.185254
0.184446
0.183657
0.182884
0.182128
0.181388
0.180664
0.179956
0.179264
0.178587
0.177925
0.177277
0.176645
0.176026
0.175421
0.17483
0.174253
0.173686
0.173124
0.198896
0.197731
0.196599
0.195504
0.194444
0.193417
0.192421
0.191454
0.190514
0.1896
0.18871
0.187844
0.186999
0.186175
0.185371
0.184587
0.183821
0.183073
0.182342
0.181629
0.180931
0.18025
0.179585
0.178935
0.1783
0.177679
0.177073
0.17648
0.175901
0.175336
0.174783
0.174242
0.173704
0.198896
0.19773
0.196599
0.195504
0.194444
0.193418
0.192423
0.191458
0.190521
0.189612
0.188729
0.18787
0.187035
0.186222
0.18543
0.184659
0.183908
0.183176
0.182462
0.181765
0.181086
0.180423
0.179777
0.179146
0.17853
0.177929
0.177342
0.176769
0.17621
0.175664
0.175131
0.174609
0.17409
0.198896
0.19773
0.196599
0.195504
0.194444
0.193418
0.192424
0.19146
0.190525
0.189618
0.188738
0.187884
0.187054
0.186247
0.185463
0.1847
0.183958
0.183235
0.182532
0.181847
0.181179
0.180529
0.179895
0.179277
0.178675
0.178087
0.177515
0.176956
0.176411
0.175879
0.17536
0.174852
0.174348
0.198896
0.19773
0.196599
0.195504
0.194445
0.193419
0.192425
0.191461
0.190527
0.189621
0.188743
0.18789
0.187062
0.186259
0.185478
0.184719
0.183981
0.183264
0.182567
0.181888
0.181227
0.180584
0.179958
0.179349
0.178755
0.178176
0.177612
0.177063
0.176528
0.176005
0.175496
0.174998
0.174504
0.198896
0.19773
0.196599
0.195505
0.194445
0.193419
0.192425
0.191462
0.190528
0.189623
0.188745
0.187893
0.187067
0.186265
0.185486
0.184729
0.183994
0.18328
0.182586
0.181911
0.181254
0.180616
0.179995
0.17939
0.178802
0.178229
0.177671
0.177127
0.176598
0.176082
0.17558
0.175088
0.174601
0.198896
0.19773
0.196599
0.195505
0.194446
0.19342
0.192426
0.191463
0.190529
0.189624
0.188747
0.187895
0.187069
0.186268
0.18549
0.184734
0.184
0.183288
0.182595
0.181922
0.181267
0.180631
0.180012
0.179411
0.178825
0.178255
0.177701
0.177161
0.176635
0.176123
0.175624
0.175137
0.174654
0.198896
0.19773
0.1966
0.195505
0.194446
0.19342
0.192426
0.191463
0.19053
0.189625
0.188748
0.187896
0.187071
0.18627
0.185492
0.184737
0.184004
0.183292
0.1826
0.181928
0.181275
0.18064
0.180023
0.179422
0.178838
0.17827
0.177718
0.17718
0.176657
0.176147
0.175651
0.175166
0.174686
0.198896
0.19773
0.1966
0.195505
0.194446
0.19342
0.192427
0.191464
0.19053
0.189626
0.188748
0.187897
0.187072
0.186271
0.185493
0.184739
0.184006
0.183294
0.182603
0.181931
0.181279
0.180644
0.180028
0.179428
0.178845
0.178278
0.177726
0.17719
0.176667
0.176159
0.175664
0.175181
0.174702
0.198896
0.197729
0.1966
0.195506
0.194446
0.193421
0.192427
0.191464
0.190531
0.189626
0.188749
0.187898
0.187073
0.186272
0.185494
0.18474
0.184007
0.183296
0.182605
0.181933
0.181281
0.180647
0.180031
0.179432
0.178849
0.178283
0.177732
0.177195
0.176674
0.176166
0.175672
0.17519
0.174712
0.198896
0.197729
0.1966
0.195506
0.194446
0.193421
0.192427
0.191464
0.190531
0.189627
0.188749
0.187899
0.187073
0.186272
0.185495
0.184741
0.184008
0.183297
0.182606
0.181935
0.181283
0.180649
0.180033
0.179434
0.178852
0.178285
0.177734
0.177199
0.176677
0.17617
0.175676
0.175194
0.174717
0.198896
0.197729
0.1966
0.195506
0.194447
0.193421
0.192427
0.191465
0.190532
0.189627
0.18875
0.187899
0.187074
0.186273
0.185496
0.184742
0.184009
0.183298
0.182607
0.181936
0.181284
0.18065
0.180034
0.179435
0.178853
0.178287
0.177737
0.177201
0.17668
0.176173
0.175679
0.175197
0.17472
0.198896
0.197729
0.1966
0.195506
0.194447
0.193421
0.192428
0.191465
0.190532
0.189627
0.18875
0.1879
0.187074
0.186274
0.185497
0.184742
0.18401
0.183299
0.182608
0.181937
0.181285
0.180651
0.180035
0.179437
0.178855
0.178288
0.177738
0.177202
0.176681
0.176175
0.175681
0.175199
0.174722
0.198896
0.197729
0.1966
0.195506
0.194447
0.193421
0.192428
0.191465
0.190532
0.189628
0.188751
0.1879
0.187075
0.186274
0.185497
0.184743
0.18401
0.183299
0.182608
0.181937
0.181285
0.180652
0.180036
0.179437
0.178855
0.178289
0.177739
0.177203
0.176683
0.176176
0.175682
0.1752
0.174723
0.198896
0.19773
0.1966
0.195506
0.194447
0.193421
0.192428
0.191465
0.190532
0.189628
0.188751
0.1879
0.187075
0.186274
0.185497
0.184743
0.184011
0.1833
0.182609
0.181938
0.181286
0.180652
0.180037
0.179438
0.178856
0.17829
0.17774
0.177204
0.176683
0.176177
0.175683
0.175201
0.174724
0.198896
0.197729
0.1966
0.195506
0.194447
0.193421
0.192428
0.191465
0.190532
0.189628
0.188751
0.1879
0.187075
0.186274
0.185497
0.184743
0.184011
0.1833
0.182609
0.181938
0.181286
0.180653
0.180037
0.179438
0.178856
0.17829
0.17774
0.177204
0.176683
0.176176
0.175683
0.175201
0.174724
0.198896
0.197729
0.1966
0.195506
0.194447
0.193421
0.192428
0.191465
0.190532
0.189628
0.188751
0.1879
0.187075
0.186274
0.185497
0.184743
0.184011
0.1833
0.182609
0.181938
0.181286
0.180653
0.180037
0.179438
0.178856
0.17829
0.17774
0.177204
0.176683
0.176177
0.175683
0.175201
0.174724
0.198896
0.197729
0.1966
0.195506
0.194447
0.193421
0.192428
0.191465
0.190532
0.189628
0.188751
0.1879
0.187075
0.186274
0.185497
0.184743
0.18401
0.183299
0.182608
0.181937
0.181285
0.180652
0.180036
0.179437
0.178855
0.178289
0.177738
0.177203
0.176682
0.176175
0.175681
0.1752
0.174722
0.198896
0.197729
0.1966
0.195506
0.194447
0.193421
0.192428
0.191465
0.190532
0.189628
0.188751
0.1879
0.187075
0.186274
0.185497
0.184743
0.18401
0.183299
0.182608
0.181937
0.181285
0.180652
0.180036
0.179437
0.178855
0.178289
0.177738
0.177203
0.176682
0.176175
0.175681
0.175199
0.174722
0.198896
0.197729
0.1966
0.195506
0.194447
0.193421
0.192428
0.191465
0.190532
0.189627
0.18875
0.187899
0.187074
0.186273
0.185496
0.184741
0.184009
0.183297
0.182606
0.181935
0.181283
0.180649
0.180033
0.179434
0.178852
0.178285
0.177735
0.177199
0.176678
0.176171
0.175677
0.175195
0.174718
0.198896
0.197729
0.1966
0.195506
0.194447
0.193421
0.192427
0.191465
0.190532
0.189627
0.18875
0.187899
0.187074
0.186273
0.185496
0.184742
0.184009
0.183298
0.182607
0.181936
0.181283
0.18065
0.180034
0.179435
0.178852
0.178286
0.177735
0.177199
0.176678
0.176171
0.175677
0.175195
0.174717
0.198896
0.197729
0.1966
0.195506
0.194447
0.193421
0.192427
0.191464
0.190531
0.189626
0.188749
0.187898
0.187072
0.186271
0.185493
0.184738
0.184005
0.183294
0.182602
0.181931
0.181278
0.180644
0.180028
0.179428
0.178846
0.178279
0.177728
0.177192
0.17667
0.176162
0.175668
0.175186
0.174708
0.198896
0.197729
0.1966
0.195506
0.194446
0.193421
0.192427
0.191464
0.190531
0.189627
0.18875
0.187899
0.187074
0.186273
0.185496
0.184741
0.184008
0.183297
0.182605
0.181934
0.181281
0.180646
0.18003
0.17943
0.178847
0.17828
0.177728
0.177192
0.176669
0.176161
0.175666
0.175182
0.174704
0.198896
0.19773
0.1966
0.195505
0.194446
0.19342
0.192426
0.191462
0.190528
0.189623
0.188745
0.187893
0.187067
0.186265
0.185487
0.184732
0.183998
0.183286
0.182594
0.181921
0.181267
0.180632
0.180014
0.179413
0.178829
0.178261
0.177708
0.17717
0.176646
0.176136
0.175639
0.175154
0.174674
0.198896
0.19773
0.1966
0.195506
0.194447
0.193422
0.192429
0.191467
0.190534
0.18963
0.188753
0.187901
0.187075
0.186274
0.185495
0.184739
0.184004
0.183291
0.182597
0.181923
0.181267
0.180629
0.180009
0.179405
0.178818
0.178247
0.17769
0.177149
0.176621
0.176108
0.175607
0.175118
0.174633
0.198896
0.19773
0.1966
0.195504
0.194443
0.193416
0.192421
0.191457
0.190522
0.189617
0.188738
0.187885
0.187057
0.186253
0.185472
0.184713
0.183975
0.183258
0.18256
0.181881
0.181221
0.180578
0.179952
0.179343
0.17875
0.178172
0.17761
0.177061
0.176527
0.176007
0.1755
0.175004
0.174512
0.198897
0.197733
0.196606
0.195516
0.194462
0.193441
0.19245
0.191489
0.190556
0.18965
0.18877
0.187914
0.187083
0.186273
0.185486
0.18472
0.183974
0.183248
0.182541
0.181852
0.181181
0.180528
0.179891
0.17927
0.178665
0.178075
0.1775
0.17694
0.176393
0.175861
0.175341
0.174833
0.174329
0.1989
0.197735
0.196605
0.195515
0.194465
0.193449
0.192464
0.191508
0.190579
0.189676
0.188796
0.187939
0.187104
0.186291
0.185498
0.184724
0.18397
0.183235
0.182519
0.18182
0.181138
0.180474
0.179826
0.179194
0.178578
0.177977
0.177391
0.17682
0.176263
0.17572
0.17519
0.174672
0.174159
0.198944
0.197852
0.196795
0.195774
0.194787
0.193827
0.192894
0.191986
0.191101
0.190238
0.189397
0.188577
0.187778
0.186998
0.186237
0.185495
0.184772
0.184066
0.183379
0.182708
0.182055
0.181418
0.180797
0.180193
0.179604
0.179031
0.178472
0.177928
0.177398
0.176883
0.176381
0.175891
0.175409
0.199227
0.198572
0.198048
0.197613
0.197233
0.196892
0.196584
0.196305
0.196052
0.195821
0.19561
0.195418
0.195243
0.195085
0.194942
0.194814
0.1947
0.194598
0.194509
0.194432
0.194366
0.19431
0.194263
0.194226
0.194198
0.194178
0.194165
0.19416
0.194162
0.194169
0.194183
0.194203
0.194231
0.209515
0.220347
0.230808
0.24093
0.250733
0.260233
0.269438
0.278351
0.286978
0.29532
0.303382
0.311165
0.318674
0.325912
0.332884
0.339594
0.346048
0.352251
0.358209
0.363927
0.369414
0.374675
0.379716
0.384546
0.389171
0.393597
0.397833
0.401884
0.405757
0.40946
0.412999
0.416382
0.419639
0.64396
0.803755
0.981941
1.16611
1.33152
1.46739
1.5728
1.65153
1.70942
1.75226
1.7845
1.80899
1.82781
1.84236
1.85342
1.86133
1.86592
1.8676
1.86612
1.86171
1.85476
1.84561
1.83467
1.82239
1.80925
1.79575
1.78236
1.76945
1.7573
1.74613
1.73609
1.72728
1.71979
1.71366
1.70888
1.70541
1.70313
1.70194
1.70165
1.70208
1.70303
1.70429
1.70563
1.70686
1.70776
1.70813
1.70777
1.70651
1.70421
1.70075
1.69606
1.6901
1.68286
1.67437
1.66466
1.65375
1.64165
1.62837
1.61388
1.59812
1.58103
1.56253
1.5425
1.52083
1.4974
1.47207
1.44474
1.41535
1.3839
1.35044
1.31512
1.27817
1.23988
1.20056
1.16057
1.12028
1.08004
1.04023
1.0012
0.963375
0.927191
0.893177
0.861968
0.834343
0.811249
0.793802
0.783215
0.780574
0.78648
0.800654
0.821783
0.847745
0.876129
0.904707
0.931856
0.956481
0.978381
0.997224
1.01381
1.025
0.287785
0.307357
0.341743
0.395253
0.467185
0.554016
0.649943
0.748726
0.845142
0.93551
1.01773
1.091
1.15552
1.2121
1.26172
1.30525
1.34321
1.37601
1.40447
1.4289
1.44956
1.46669
1.48051
1.49131
1.49941
1.50521
1.50912
1.51155
1.51284
1.51331
1.51325
1.51287
1.51239
1.51198
1.51177
1.51183
1.51222
1.51292
1.51389
1.51505
1.5163
1.51751
1.51856
1.51929
1.51956
1.51922
1.51814
1.51617
1.51323
1.50922
1.50411
1.49788
1.49055
1.48215
1.47273
1.46232
1.45093
1.43857
1.4252
1.41078
1.39523
1.37846
1.36038
1.34085
1.31975
1.29697
1.27242
1.24604
1.21785
1.18791
1.15639
1.12349
1.0895
1.05471
1.01946
0.984068
0.948881
0.914228
0.880456
0.847944
0.817118
0.788486
0.762666
0.740427
0.722716
0.71065
0.705426
0.708074
0.719068
0.737938
0.763167
0.792489
0.82345
0.853885
0.882286
0.907703
0.93003
0.949066
0.965565
0.976664
0.175869
0.177355
0.180662
0.186991
0.197541
0.213321
0.235639
0.265331
0.302515
0.346533
0.396365
0.450678
0.508008
0.566927
0.626154
0.684581
0.74124
0.795142
0.846144
0.894069
0.938773
0.980123
1.01802
1.05242
1.08335
1.11093
1.13534
1.15681
1.1756
1.19199
1.20623
1.21861
1.22939
1.23881
1.24711
1.25446
1.26104
1.26696
1.2723
1.2771
1.28138
1.28512
1.2883
1.29086
1.29274
1.29385
1.29414
1.29352
1.29194
1.28936
1.28575
1.28114
1.27554
1.26901
1.26159
1.25332
1.24422
1.23428
1.22349
1.21179
1.19912
1.18538
1.17048
1.1543
1.13673
1.11766
1.09701
1.07473
1.05086
1.02545
0.998659
0.970686
0.941782
0.912229
0.882322
0.852363
0.822654
0.793498
0.765212
0.738144
0.71269
0.689329
0.668655
0.651419
0.638557
0.63118
0.630452
0.637334
0.652188
0.674428
0.702464
0.734022
0.766707
0.798448
0.827826
0.853977
0.876826
0.896225
0.912868
0.924043
0.164167
0.163482
0.163028
0.163021
0.163715
0.165393
0.168413
0.173165
0.18003
0.18955
0.202125
0.21809
0.237705
0.261117
0.288335
0.319202
0.35336
0.390229
0.429103
0.469434
0.510627
0.552061
0.593128
0.633268
0.671996
0.708929
0.743783
0.776375
0.806605
0.834446
0.85993
0.883141
0.9042
0.923257
0.940477
0.956027
0.970069
0.982751
0.994197
1.00451
1.01378
1.02206
1.02938
1.03576
1.04121
1.04572
1.04925
1.0518
1.05334
1.05387
1.05339
1.05194
1.04955
1.04627
1.04217
1.03728
1.03164
1.02524
1.01807
1.01008
1.00122
0.991406
0.980545
0.968535
0.955273
0.940666
0.924642
0.907168
0.888259
0.867987
0.846481
0.823923
0.800538
0.776574
0.752298
0.727977
0.70388
0.68028
0.65746
0.635734
0.615465
0.597095
0.581183
0.568451
0.559817
0.556379
0.55928
0.569412
0.587032
0.611461
0.641094
0.673752
0.707196
0.73951
0.769385
0.796022
0.819337
0.839182
0.856142
0.867632
0.164795
0.163873
0.162994
0.162207
0.161565
0.161135
0.161009
0.1613
0.162127
0.163642
0.166025
0.169464
0.174151
0.180286
0.188075
0.19772
0.2094
0.223244
0.239276
0.257547
0.278031
0.300622
0.325124
0.35126
0.378684
0.407005
0.435814
0.464704
0.493298
0.521261
0.548313
0.574236
0.598875
0.622132
0.643959
0.664348
0.683321
0.700919
0.717194
0.732202
0.745998
0.758632
0.770146
0.780574
0.789939
0.798257
0.805536
0.811782
0.817003
0.821212
0.824435
0.826708
0.828083
0.828613
0.828353
0.82735
0.825632
0.82321
0.820071
0.816182
0.811488
0.805922
0.799401
0.791836
0.783137
0.773223
0.762033
0.749537
0.735751
0.720736
0.704605
0.687514
0.669657
0.651249
0.632522
0.613708
0.595044
0.576767
0.559128
0.542406
0.526927
0.513092
0.50142
0.49259
0.487481
0.487166
0.492769
0.505159
0.524536
0.55016
0.580431
0.613277
0.646639
0.678796
0.708578
0.735265
0.758764
0.778912
0.796152
0.808033
0.166887
0.165975
0.165065
0.164171
0.163309
0.162499
0.16177
0.161159
0.16071
0.160476
0.160518
0.16091
0.161729
0.163058
0.164987
0.167613
0.171035
0.175352
0.180647
0.187011
0.194535
0.203301
0.213374
0.224795
0.237571
0.251673
0.267025
0.283511
0.300972
0.319216
0.338031
0.357194
0.376486
0.395701
0.414657
0.433195
0.451186
0.468528
0.485144
0.500977
0.515988
0.530151
0.543449
0.555871
0.56741
0.578061
0.587818
0.596681
0.604652
0.61174
0.617964
0.623355
0.627951
0.631797
0.634936
0.637405
0.639228
0.640411
0.640942
0.640792
0.639914
0.638247
0.63572
0.632255
0.627775
0.622209
0.615506
0.60764
0.598621
0.588499
0.577367
0.565354
0.55262
0.539348
0.52573
0.511964
0.498251
0.484796
0.471813
0.459546
0.448279
0.438374
0.430303
0.424696
0.422378
0.424369
0.431758
0.445405
0.465524
0.4914
0.521483
0.553805
0.586465
0.617909
0.6471
0.673399
0.696714
0.716876
0.734173
0.746303
0.168834
0.167968
0.167098
0.166229
0.165367
0.164518
0.16369
0.162897
0.162155
0.161482
0.160903
0.160449
0.160153
0.160054
0.160192
0.160614
0.161367
0.1625
0.16406
0.166089
0.168637
0.171753
0.175483
0.179876
0.184974
0.190813
0.197423
0.204818
0.212999
0.221948
0.23163
0.241989
0.252954
0.264438
0.276343
0.288565
0.300997
0.313532
0.326067
0.338507
0.350766
0.362765
0.374435
0.385718
0.39656
0.406918
0.416752
0.426032
0.434733
0.442839
0.450345
0.457255
0.463584
0.469351
0.474576
0.479276
0.48346
0.487124
0.49025
0.492806
0.494748
0.496021
0.49656
0.496297
0.495166
0.493103
0.490063
0.486019
0.480976
0.474969
0.468067
0.460373
0.452012
0.44313
0.433883
0.424433
0.414945
0.405589
0.396546
0.388021
0.380259
0.373577
0.368394
0.365282
0.365007
0.368523
0.376865
0.390874
0.410802
0.43603
0.465136
0.496292
0.527736
0.558046
0.586277
0.611854
0.634674
0.654564
0.671662
0.683787
0.170383
0.16957
0.168752
0.167929
0.167105
0.16628
0.165459
0.164645
0.163845
0.163067
0.162322
0.161621
0.16098
0.160417
0.15995
0.159604
0.159403
0.159373
0.159541
0.159932
0.160573
0.161489
0.162708
0.164254
0.166153
0.168428
0.171101
0.174192
0.177718
0.181689
0.186114
0.190994
0.196323
0.20209
0.208275
0.214851
0.221785
0.229036
0.236559
0.244305
0.252222
0.260255
0.268351
0.276456
0.284518
0.292487
0.300315
0.30796
0.315382
0.32255
0.329437
0.336028
0.342311
0.348281
0.353936
0.359272
0.364278
0.36894
0.373229
0.377111
0.380541
0.383465
0.385824
0.387558
0.388603
0.388905
0.388418
0.387115
0.384989
0.382061
0.378377
0.374009
0.369051
0.363612
0.357813
0.351778
0.345639
0.339531
0.333603
0.328023
0.322997
0.318794
0.315776
0.31445
0.315504
0.31982
0.328374
0.341987
0.360958
0.38479
0.412233
0.441637
0.471392
0.500188
0.52715
0.551735
0.573818
0.593203
0.609897
0.621797
0.171562
0.170796
0.170024
0.169246
0.168464
0.167678
0.16689
0.166102
0.165315
0.164534
0.163762
0.163004
0.162267
0.161557
0.160886
0.160263
0.159703
0.159218
0.158825
0.158539
0.158376
0.158353
0.158486
0.158792
0.159286
0.159984
0.160899
0.162044
0.163431
0.16507
0.166967
0.169131
0.171566
0.174273
0.177252
0.180503
0.184017
0.187789
0.191805
0.196051
0.20051
0.205162
0.209984
0.21495
0.220034
0.225209
0.230444
0.23571
0.24098
0.246227
0.251426
0.256558
0.261606
0.266555
0.271392
0.276103
0.280671
0.285072
0.289277
0.29325
0.296947
0.300321
0.303316
0.305878
0.307952
0.309484
0.310432
0.310764
0.310466
0.309542
0.308018
0.305939
0.303368
0.300381
0.297065
0.293513
0.289823
0.2861
0.282459
0.279035
0.275996
0.273563
0.27204
0.271861
0.273628
0.278131
0.286278
0.298874
0.316282
0.338146
0.363404
0.390596
0.418265
0.445213
0.470619
0.493963
0.515088
0.533768
0.549885
0.561406
0.172416
0.17169
0.170958
0.170221
0.169478
0.168731
0.167979
0.167224
0.166466
0.165707
0.164948
0.164191
0.163439
0.162696
0.161966
0.161253
0.160566
0.159909
0.159294
0.158727
0.158219
0.15778
0.157422
0.157153
0.156987
0.156933
0.157002
0.157203
0.157544
0.158034
0.158679
0.159484
0.160455
0.161594
0.162904
0.164388
0.166045
0.167874
0.169874
0.172042
0.174372
0.176861
0.1795
0.182281
0.185194
0.188228
0.19137
0.194609
0.197929
0.201317
0.20476
0.208245
0.211761
0.215298
0.218843
0.222385
0.225907
0.229391
0.232811
0.236138
0.239336
0.242364
0.245178
0.247732
0.249976
0.251867
0.253364
0.254434
0.255057
0.255226
0.25495
0.254253
0.253171
0.251755
0.250062
0.248157
0.246111
0.244
0.241912
0.23995
0.238245
0.236973
0.236381
0.236827
0.238819
0.243045
0.250326
0.261446
0.276842
0.29632
0.319022
0.34368
0.368983
0.39383
0.417448
0.439334
0.459297
0.477082
0.492466
0.503483
0.173028
0.172334
0.171635
0.17093
0.170221
0.169506
0.168787
0.168063
0.167335
0.166604
0.16587
0.165134
0.164397
0.16366
0.162925
0.162196
0.161473
0.160762
0.160067
0.159392
0.158742
0.158125
0.157546
0.157013
0.156532
0.156112
0.155759
0.155481
0.155285
0.155177
0.155163
0.155247
0.155435
0.15573
0.156134
0.156651
0.157282
0.158028
0.15889
0.159867
0.160959
0.162164
0.163481
0.164908
0.166441
0.168076
0.169809
0.171636
0.173551
0.175549
0.177624
0.179771
0.181985
0.18426
0.18659
0.188969
0.191387
0.193831
0.196285
0.198729
0.201137
0.20348
0.205725
0.207836
0.209777
0.211509
0.213
0.214219
0.215144
0.215762
0.216072
0.216082
0.215811
0.215288
0.214548
0.213635
0.212597
0.211487
0.210368
0.209318
0.208434
0.207851
0.207761
0.208447
0.210322
0.213961
0.220087
0.229446
0.242541
0.259356
0.279255
0.301169
0.323929
0.346515
0.36819
0.38846
0.4071
0.423831
0.438344
0.448752
0.173439
0.172771
0.172098
0.171421
0.170738
0.170051
0.169358
0.168662
0.167961
0.167256
0.166547
0.165834
0.165118
0.164399
0.163678
0.162956
0.162235
0.161516
0.160801
0.160092
0.159394
0.158708
0.158039
0.157392
0.15677
0.156178
0.155621
0.155105
0.154635
0.154214
0.153849
0.153543
0.153301
0.153126
0.15302
0.152988
0.153031
0.15315
0.153348
0.153624
0.153981
0.154417
0.154933
0.155528
0.156202
0.156954
0.157782
0.158686
0.159662
0.160711
0.161829
0.163016
0.164269
0.165586
0.166967
0.168407
0.169902
0.171445
0.173029
0.17464
0.176263
0.177879
0.179466
0.181
0.182454
0.183801
0.185014
0.186068
0.186944
0.187627
0.188109
0.18839
0.188478
0.188387
0.188138
0.187757
0.187275
0.186728
0.186161
0.185627
0.185197
0.18497
0.185088
0.185765
0.187319
0.190211
0.195052
0.202525
0.213184
0.227186
0.244135
0.263177
0.283289
0.303525
0.323171
0.34173
0.358946
0.374512
0.388058
0.397777
0.173715
0.173067
0.172414
0.171756
0.171094
0.170428
0.169757
0.169082
0.168403
0.16772
0.167032
0.166341
0.165646
0.164947
0.164244
0.163539
0.162831
0.162121
0.16141
0.1607
0.159992
0.159288
0.158589
0.157899
0.157219
0.156554
0.155905
0.155277
0.154672
0.154095
0.153548
0.153035
0.152559
0.152124
0.151732
0.151386
0.151087
0.150839
0.150642
0.150499
0.15041
0.150376
0.150397
0.150475
0.15061
0.150801
0.151048
0.151352
0.151712
0.152128
0.152599
0.153125
0.153706
0.154342
0.155032
0.155776
0.156572
0.157417
0.158307
0.159236
0.160196
0.161176
0.162162
0.163139
0.16409
0.164996
0.165837
0.166597
0.167258
0.167806
0.168234
0.168536
0.168712
0.16877
0.168719
0.168574
0.168354
0.168083
0.167789
0.167509
0.167292
0.167206
0.167352
0.167882
0.16903
0.171142
0.174707
0.180318
0.188545
0.199696
0.213625
0.22972
0.247121
0.264958
0.282533
0.299337
0.315076
0.329418
0.341949
0.350941
0.173885
0.17325
0.172612
0.171969
0.171323
0.170672
0.170018
0.16936
0.168698
0.168032
0.167362
0.166688
0.16601
0.165329
0.164643
0.163954
0.163262
0.162566
0.161867
0.161167
0.160465
0.159762
0.15906
0.15836
0.157664
0.156973
0.156288
0.155613
0.154949
0.154298
0.153664
0.153047
0.152452
0.151879
0.151331
0.150811
0.15032
0.14986
0.149433
0.149041
0.148684
0.148364
0.148081
0.147838
0.147633
0.147469
0.147344
0.14726
0.147217
0.147215
0.147254
0.147334
0.147456
0.147621
0.147827
0.148076
0.148368
0.1487
0.149073
0.149483
0.149926
0.150397
0.150888
0.151391
0.151895
0.152389
0.152861
0.153297
0.153686
0.154018
0.154283
0.154476
0.154594
0.154639
0.154615
0.154529
0.154391
0.154217
0.154023
0.153834
0.153681
0.15361
0.153688
0.154016
0.154755
0.156149
0.158561
0.162469
0.168406
0.176785
0.187694
0.200794
0.215426
0.230819
0.246294
0.261322
0.275563
0.28866
0.300167
0.308433
0.173991
0.173366
0.172737
0.172105
0.17147
0.17083
0.170188
0.169542
0.168892
0.168239
0.167582
0.166922
0.166258
0.16559
0.164919
0.164244
0.163566
0.162884
0.162198
0.16151
0.160819
0.160125
0.15943
0.158734
0.158038
0.157342
0.156649
0.155958
0.155272
0.154592
0.153919
0.153256
0.152602
0.151961
0.151334
0.150722
0.150126
0.14955
0.148993
0.148457
0.147944
0.147455
0.14699
0.14655
0.146136
0.14575
0.145391
0.14506
0.144758
0.144485
0.144241
0.144026
0.143842
0.143689
0.143566
0.143475
0.143415
0.143387
0.143389
0.143423
0.143485
0.143573
0.143684
0.143813
0.143955
0.144103
0.14425
0.144388
0.144509
0.144607
0.144673
0.144703
0.144694
0.144645
0.144555
0.144429
0.144271
0.144089
0.143895
0.143701
0.143529
0.143405
0.143373
0.143495
0.143874
0.14467
0.146128
0.148603
0.152534
0.158361
0.166352
0.176445
0.188237
0.201109
0.214426
0.227642
0.240369
0.252215
0.262711
0.270277
0.17405
0.173431
0.172809
0.172184
0.171556
0.170924
0.170289
0.169652
0.169011
0.168367
0.167719
0.167069
0.166415
0.165758
0.165097
0.164433
0.163766
0.163095
0.162421
0.161744
0.161063
0.16038
0.159694
0.159006
0.158317
0.157626
0.156934
0.156243
0.155553
0.154864
0.154179
0.153497
0.152819
0.152148
0.151483
0.150827
0.150179
0.149542
0.148916
0.148303
0.147703
0.147117
0.146547
0.145992
0.145454
0.144934
0.144432
0.143949
0.143485
0.14304
0.142616
0.142212
0.141829
0.141468
0.141128
0.14081
0.140514
0.140241
0.139991
0.139763
0.139557
0.139372
0.139207
0.13906
0.138927
0.138806
0.138694
0.138584
0.138474
0.138358
0.138232
0.138092
0.137935
0.13776
0.137565
0.137352
0.137122
0.136879
0.13663
0.136382
0.136147
0.135941
0.135789
0.135728
0.135818
0.136155
0.136893
0.138264
0.14059
0.144252
0.149593
0.156776
0.16568
0.175913
0.186951
0.198262
0.209419
0.219989
0.229483
0.236382
0.174085
0.17347
0.172852
0.172231
0.171608
0.170981
0.170352
0.16972
0.169084
0.168446
0.167805
0.167162
0.166515
0.165865
0.165212
0.164556
0.163897
0.163234
0.162569
0.161901
0.161229
0.160555
0.159877
0.159198
0.158516
0.157832
0.157146
0.15646
0.155772
0.155085
0.154397
0.153711
0.153026
0.152344
0.151664
0.150989
0.150317
0.149651
0.148991
0.148338
0.147692
0.147055
0.146426
0.145807
0.145199
0.144601
0.144015
0.143441
0.142879
0.14233
0.141795
0.141273
0.140765
0.140272
0.139794
0.13933
0.138882
0.138449
0.138032
0.137631
0.137245
0.136875
0.136519
0.136178
0.135851
0.135535
0.135229
0.134931
0.134638
0.134349
0.13406
0.133769
0.133474
0.133173
0.132866
0.132553
0.132233
0.131909
0.131584
0.131261
0.130948
0.130652
0.130388
0.130175
0.130048
0.130058
0.130294
0.130892
0.132057
0.134065
0.137228
0.141811
0.147921
0.155434
0.164026
0.17326
0.182708
0.191911
0.200365
0.206609
0.174103
0.17349
0.172875
0.172257
0.171636
0.171012
0.170386
0.169757
0.169126
0.168491
0.167854
0.167215
0.166572
0.165927
0.165279
0.164629
0.163975
0.163319
0.16266
0.161998
0.161333
0.160665
0.159995
0.159322
0.158647
0.157969
0.15729
0.156609
0.155927
0.155243
0.154559
0.153874
0.153189
0.152505
0.151822
0.15114
0.150459
0.149781
0.149106
0.148435
0.147767
0.147104
0.146445
0.145793
0.145146
0.144506
0.143872
0.143247
0.142628
0.142019
0.141418
0.140825
0.140242
0.139669
0.139105
0.138551
0.138007
0.137474
0.136951
0.136439
0.135937
0.135446
0.134966
0.134497
0.134038
0.133588
0.133148
0.132715
0.13229
0.131871
0.131456
0.131045
0.130637
0.130229
0.129823
0.129417
0.129011
0.128606
0.128203
0.127804
0.127413
0.127034
0.126673
0.126343
0.126058
0.125847
0.125754
0.125854
0.126261
0.127145
0.128727
0.131255
0.134933
0.139845
0.145908
0.152867
0.160388
0.168038
0.175325
0.180868
0.174113
0.173502
0.172888
0.172272
0.171653
0.171031
0.170406
0.16978
0.16915
0.168518
0.167884
0.167247
0.166607
0.165965
0.16532
0.164673
0.164023
0.163371
0.162716
0.162058
0.161398
0.160735
0.160069
0.159402
0.158732
0.158059
0.157385
0.156709
0.156031
0.155352
0.154672
0.153991
0.153308
0.152626
0.151943
0.15126
0.150578
0.149896
0.149216
0.148537
0.14786
0.147185
0.146512
0.145843
0.145177
0.144515
0.143856
0.143202
0.142553
0.141909
0.141271
0.140638
0.140011
0.13939
0.138776
0.138168
0.137566
0.136972
0.136384
0.135804
0.13523
0.134664
0.134106
0.133554
0.133011
0.132474
0.131944
0.131422
0.130906
0.130396
0.129893
0.129394
0.1289
0.128411
0.127925
0.127443
0.126965
0.126491
0.12602
0.125555
0.125097
0.124647
0.12421
0.123789
0.123394
0.123037
0.122739
0.122537
0.122488
0.122685
0.123258
0.124377
0.126229
0.128973
0.132691
0.137335
0.142743
0.148599
0.154497
0.1592
0.174119
0.173508
0.172895
0.172279
0.171661
0.17104
0.170417
0.169791
0.169163
0.168532
0.167899
0.167264
0.166626
0.165985
0.165342
0.164697
0.16405
0.1634
0.162747
0.162092
0.161435
0.160775
0.160113
0.159448
0.158782
0.158113
0.157443
0.156771
0.156097
0.155421
0.154744
0.154066
0.153387
0.152707
0.152026
0.151345
0.150663
0.149982
0.149301
0.14862
0.147939
0.14726
0.146582
0.145905
0.14523
0.144557
0.143887
0.143219
0.142554
0.141892
0.141233
0.140578
0.139926
0.139279
0.138635
0.137996
0.137362
0.136731
0.136106
0.135485
0.134868
0.134257
0.13365
0.133049
0.132453
0.131862
0.131276
0.130696
0.130122
0.129552
0.128989
0.12843
0.127877
0.127329
0.126786
0.126247
0.125714
0.125185
0.124662
0.124144
0.123632
0.123127
0.122631
0.122145
0.121674
0.121221
0.120798
0.12042
0.120113