/*--------------------------------*- C++ -*----------------------------------*\
| =========                 |                                                 |
| \\      /  F ield         | OpenFOAM: The Open Source CFD Toolbox           |
|  \\    /   O peration     | Version:  4.1                                   |
|   \\  /    A nd           | Web:      www.OpenFOAM.org                      |
|    \\/     M anipulation  |                                                 |
\*---------------------------------------------------------------------------*/
FoamFile
{
    version     2.0;
    format      ascii;
    class       volScalarField;
    location    "600";
    object      nut;
}
// * * * * * * * * * * * * * * * * * * * * * * * * * * * * * * * * * * * * * //

dimensions      [0 2 -1 0 0 0 0];

internalField   nonuniform List<scalar> 
6820
(
4.53774e-05
4.96674e-05
5.35596e-05
5.7033e-05
6.00872e-05
6.2733e-05
6.49892e-05
6.68825e-05
6.8445e-05
6.97116e-05
7.07178e-05
7.1498e-05
7.20844e-05
7.25062e-05
7.27898e-05
7.29584e-05
7.30321e-05
7.30282e-05
7.29618e-05
7.28453e-05
7.26894e-05
7.2503e-05
7.22936e-05
7.20674e-05
7.18296e-05
7.15843e-05
7.13352e-05
7.10851e-05
7.08362e-05
7.05905e-05
7.03493e-05
7.01182e-05
6.99739e-05
0.000389004
0.000214804
0.000161971
0.000134577
0.000117082
0.000104841
9.5873e-05
8.91201e-05
8.39499e-05
7.99553e-05
7.68583e-05
7.446e-05
7.2614e-05
7.12103e-05
7.01647e-05
6.94119e-05
6.89007e-05
6.85902e-05
6.84477e-05
6.84467e-05
6.85656e-05
6.87864e-05
6.90942e-05
6.94763e-05
6.99221e-05
7.04224e-05
7.09694e-05
7.15562e-05
7.21774e-05
7.28263e-05
7.35027e-05
7.41964e-05
7.51919e-05
0.000867009
0.000638273
0.00050769
0.000428082
0.000375013
0.000336915
0.000308048
0.000285295
0.000266812
0.000251439
0.000238412
0.000227208
0.000217457
0.000208888
0.000201301
0.000194543
0.000188494
0.00018306
0.000178164
0.000173747
0.000169741
0.000166039
0.000162604
0.000159411
0.000156441
0.000153678
0.000151105
0.000148709
0.000146477
0.000144397
0.000142457
0.000140657
0.000139053
0.000991214
0.000902164
0.000807377
0.000726621
0.000661863
0.000610174
0.00056843
0.000534164
0.000505565
0.000481329
0.000460511
0.000442411
0.000426505
0.000412395
0.000399775
0.000388408
0.000378105
0.000368717
0.000360126
0.000352234
0.000344962
0.00033821
0.000331906
0.000325997
0.000320441
0.000315202
0.000310253
0.000305567
0.000301122
0.000296902
0.000292887
0.000289066
0.000285417
0.00101005
0.00098739
0.000948626
0.000902916
0.000857083
0.00081444
0.000776076
0.00074201
0.000711858
0.000685131
0.000661357
0.000640113
0.000621036
0.000603819
0.000588208
0.000573988
0.000560981
0.000549038
0.000538032
0.000527857
0.000518425
0.000509653
0.000501472
0.000493818
0.000486638
0.000479884
0.000473517
0.000467503
0.000461809
0.00045641
0.000451282
0.000446401
0.000441705
0.00101185
0.00100724
0.000995356
0.000976942
0.000954121
0.000929118
0.000903658
0.000878801
0.000855099
0.000832805
0.000812
0.000792668
0.000774736
0.000758112
0.000742691
0.000728373
0.000715059
0.000702661
0.000691094
0.000680286
0.000670169
0.000660682
0.000651772
0.000643387
0.000635485
0.000628025
0.000620971
0.000614292
0.000607957
0.000601941
0.000596221
0.000590767
0.000585499
0.00101178
0.00101089
0.00100777
0.00100182
0.000992905
0.000981471
0.000968242
0.00095392
0.000939072
0.000924117
0.000909347
0.000894953
0.000881053
0.000867715
0.00085497
0.000842827
0.00083128
0.000820311
0.000809899
0.000800018
0.000790637
0.000781725
0.000773255
0.000765201
0.000757539
0.000750246
0.000743301
0.00073668
0.000730366
0.00072434
0.000718582
0.000713067
0.000707707
0.00101168
0.00101136
0.00101047
0.00100868
0.00100565
0.0010012
0.000995411
0.000988494
0.000980691
0.000972245
0.000963374
0.000954263
0.000945058
0.000935871
0.000926788
0.00091787
0.000909162
0.000900694
0.000892486
0.000884548
0.000876885
0.000869497
0.00086238
0.000855529
0.000848938
0.000842597
0.0008365
0.000830637
0.000825
0.000819578
0.000814362
0.00080933
0.000804395
0.00101165
0.00101137
0.00101095
0.0010103
0.00100928
0.00100768
0.00100543
0.00100251
0.000998941
0.000994803
0.000990178
0.00098516
0.000979838
0.000974296
0.000968606
0.00096283
0.000957019
0.000951215
0.00094545
0.00093975
0.000934136
0.000928624
0.000923226
0.000917951
0.000912805
0.000907792
0.000902914
0.000898172
0.000893566
0.000889096
0.000884756
0.000880533
0.000876338
0.00101164
0.00101135
0.00101102
0.00101063
0.00101016
0.00100951
0.0010086
0.00100738
0.00100583
0.00100394
0.00100172
0.0009992
0.000996408
0.000993381
0.000990157
0.000986772
0.000983262
0.000979657
0.000975986
0.000972272
0.000968537
0.000964799
0.000961073
0.000957373
0.000953708
0.000950088
0.00094652
0.00094301
0.000939562
0.000936181
0.000932866
0.000929605
0.000926317
0.00101163
0.00101134
0.00101103
0.0010107
0.00101036
0.00100998
0.00100952
0.00100894
0.00100823
0.00100736
0.00100632
0.00100511
0.00100373
0.00100219
0.00100049
0.000998655
0.000996698
0.000994635
0.00099248
0.000990249
0.000987957
0.000985616
0.000983239
0.000980837
0.000978419
0.000975994
0.00097357
0.000971154
0.000968751
0.000966367
0.000964003
0.000961649
0.000959225
0.00101163
0.00101134
0.00101103
0.00101072
0.00101041
0.0010101
0.00100977
0.00100939
0.00100897
0.00100849
0.00100793
0.0010073
0.00100658
0.00100577
0.00100487
0.00100388
0.00100281
0.00100167
0.00100045
0.000999165
0.000997822
0.000996429
0.000994991
0.000993515
0.000992008
0.000990476
0.000988925
0.000987359
0.000985784
0.000984204
0.000982619
0.000981021
0.000979329
0.00101163
0.00101133
0.00101104
0.00101073
0.00101043
0.00101014
0.00100984
0.00100953
0.00100921
0.00100886
0.0010085
0.0010081
0.00100766
0.00100719
0.00100667
0.00100611
0.00100551
0.00100486
0.00100416
0.00100342
0.00100265
0.00100183
0.00100098
0.0010001
0.000999187
0.00099825
0.000997292
0.000996314
0.00099532
0.000994313
0.000993292
0.000992247
0.000991098
0.00101163
0.00101133
0.00101104
0.00101074
0.00101045
0.00101016
0.00100987
0.00100958
0.00100929
0.00100899
0.00100869
0.00100837
0.00100804
0.0010077
0.00100734
0.00100696
0.00100657
0.00100615
0.0010057
0.00100524
0.00100475
0.00100425
0.00100372
0.00100317
0.0010026
0.00100202
0.00100142
0.0010008
0.00100017
0.000999534
0.000998881
0.000998203
0.000997422
0.00101163
0.00101133
0.00101104
0.00101075
0.00101046
0.00101018
0.00100989
0.00100961
0.00100933
0.00100905
0.00100877
0.00100848
0.0010082
0.00100791
0.00100761
0.00100732
0.00100701
0.0010067
0.00100637
0.00100604
0.0010057
0.00100535
0.00100499
0.00100462
0.00100425
0.00100386
0.00100346
0.00100305
0.00100264
0.00100222
0.00100179
0.00100133
0.00100078
0.00101163
0.00101133
0.00101105
0.00101075
0.00101047
0.00101019
0.00100991
0.00100963
0.00100936
0.00100908
0.00100881
0.00100854
0.00100827
0.001008
0.00100773
0.00100746
0.00100719
0.00100692
0.00100665
0.00100637
0.0010061
0.00100582
0.00100553
0.00100525
0.00100496
0.00100466
0.00100437
0.00100407
0.00100377
0.00100346
0.00100315
0.00100282
0.0010024
0.00101163
0.00101133
0.00101105
0.00101076
0.00101048
0.0010102
0.00100992
0.00100965
0.00100938
0.00100911
0.00100884
0.00100858
0.00100831
0.00100805
0.0010078
0.00100754
0.00100729
0.00100704
0.00100679
0.00100654
0.00100629
0.00100605
0.0010058
0.00100556
0.00100531
0.00100507
0.00100482
0.00100458
0.00100434
0.00100409
0.00100385
0.00100359
0.00100323
0.00101163
0.00101133
0.00101105
0.00101076
0.00101048
0.00101021
0.00100994
0.00100966
0.0010094
0.00100913
0.00100887
0.00100861
0.00100835
0.00100809
0.00100784
0.00100759
0.00100735
0.00100711
0.00100687
0.00100663
0.00100639
0.00100616
0.00100593
0.00100571
0.00100548
0.00100526
0.00100504
0.00100482
0.0010046
0.00100439
0.00100417
0.00100394
0.00100362
0.00101163
0.00101133
0.00101105
0.00101077
0.00101049
0.00101022
0.00100994
0.00100968
0.00100941
0.00100915
0.00100889
0.00100863
0.00100838
0.00100812
0.00100788
0.00100763
0.00100739
0.00100716
0.00100692
0.00100669
0.00100647
0.00100624
0.00100602
0.00100581
0.00100559
0.00100538
0.00100517
0.00100497
0.00100477
0.00100457
0.00100437
0.00100416
0.00100386
0.00101163
0.00101133
0.00101105
0.00101077
0.00101049
0.00101022
0.00100995
0.00100969
0.00100942
0.00100916
0.0010089
0.00100865
0.0010084
0.00100815
0.00100791
0.00100767
0.00100743
0.0010072
0.00100697
0.00100674
0.00100652
0.0010063
0.00100608
0.00100587
0.00100566
0.00100546
0.00100526
0.00100506
0.00100487
0.00100468
0.00100449
0.00100428
0.00100399
0.00101163
0.00101133
0.00101105
0.00101077
0.0010105
0.00101023
0.00100996
0.00100969
0.00100943
0.00100917
0.00100892
0.00100867
0.00100842
0.00100817
0.00100793
0.00100769
0.00100746
0.00100723
0.001007
0.00100678
0.00100656
0.00100635
0.00100614
0.00100593
0.00100572
0.00100552
0.00100533
0.00100513
0.00100494
0.00100476
0.00100457
0.00100438
0.00100409
0.00101163
0.00101133
0.00101105
0.00101077
0.0010105
0.00101023
0.00100996
0.0010097
0.00100944
0.00100918
0.00100893
0.00100868
0.00100843
0.00100819
0.00100795
0.00100772
0.00100749
0.00100726
0.00100703
0.00100681
0.0010066
0.00100639
0.00100618
0.00100597
0.00100577
0.00100557
0.00100538
0.00100519
0.001005
0.00100482
0.00100464
0.00100445
0.00100416
0.00101163
0.00101133
0.00101105
0.00101077
0.0010105
0.00101023
0.00100997
0.00100971
0.00100945
0.00100919
0.00100894
0.00100869
0.00100845
0.00100821
0.00100797
0.00100774
0.00100751
0.00100728
0.00100706
0.00100684
0.00100663
0.00100642
0.00100621
0.00100601
0.00100581
0.00100561
0.00100542
0.00100524
0.00100505
0.00100487
0.00100469
0.0010045
0.00100422
0.00101163
0.00101133
0.00101105
0.00101077
0.0010105
0.00101023
0.00100997
0.00100971
0.00100945
0.0010092
0.00100895
0.0010087
0.00100846
0.00100822
0.00100798
0.00100775
0.00100753
0.0010073
0.00100708
0.00100687
0.00100665
0.00100644
0.00100624
0.00100604
0.00100584
0.00100565
0.00100546
0.00100527
0.00100509
0.00100491
0.00100474
0.00100455
0.00100427
0.00101163
0.00101133
0.00101105
0.00101077
0.0010105
0.00101024
0.00100997
0.00100971
0.00100946
0.0010092
0.00100895
0.00100871
0.00100847
0.00100823
0.00100799
0.00100776
0.00100754
0.00100731
0.00100709
0.00100688
0.00100667
0.00100646
0.00100626
0.00100606
0.00100586
0.00100567
0.00100548
0.00100529
0.00100511
0.00100493
0.00100476
0.00100457
0.00100429
0.00101163
0.00101133
0.00101105
0.00101077
0.0010105
0.00101024
0.00100997
0.00100971
0.00100946
0.0010092
0.00100895
0.00100871
0.00100847
0.00100823
0.001008
0.00100777
0.00100754
0.00100732
0.0010071
0.00100689
0.00100668
0.00100647
0.00100627
0.00100607
0.00100588
0.00100568
0.0010055
0.00100531
0.00100514
0.00100496
0.00100478
0.0010046
0.00100432
0.00101163
0.00101133
0.00101105
0.00101077
0.0010105
0.00101024
0.00100997
0.00100971
0.00100946
0.0010092
0.00100896
0.00100871
0.00100847
0.00100823
0.001008
0.00100777
0.00100754
0.00100732
0.0010071
0.00100688
0.00100667
0.00100646
0.00100626
0.00100606
0.00100586
0.00100567
0.00100548
0.0010053
0.00100512
0.00100494
0.00100476
0.00100457
0.00100429
0.00101163
0.00101133
0.00101105
0.00101077
0.0010105
0.00101024
0.00100997
0.00100971
0.00100946
0.0010092
0.00100895
0.00100871
0.00100847
0.00100823
0.00100799
0.00100776
0.00100754
0.00100732
0.0010071
0.00100689
0.00100668
0.00100647
0.00100627
0.00100607
0.00100587
0.00100568
0.0010055
0.00100531
0.00100513
0.00100496
0.00100478
0.00100459
0.00100431
0.00101163
0.00101133
0.00101105
0.00101077
0.0010105
0.00101023
0.00100997
0.00100971
0.00100945
0.0010092
0.00100894
0.0010087
0.00100845
0.00100821
0.00100797
0.00100774
0.00100751
0.00100729
0.00100706
0.00100685
0.00100663
0.00100642
0.00100621
0.00100601
0.00100581
0.00100562
0.00100542
0.00100524
0.00100505
0.00100487
0.00100469
0.0010045
0.00100422
0.00101163
0.00101133
0.00101105
0.00101077
0.0010105
0.00101023
0.00100997
0.0010097
0.00100945
0.00100919
0.00100894
0.00100869
0.00100845
0.00100821
0.00100798
0.00100775
0.00100752
0.0010073
0.00100708
0.00100686
0.00100665
0.00100644
0.00100623
0.00100603
0.00100583
0.00100564
0.00100545
0.00100526
0.00100507
0.00100489
0.00100471
0.00100451
0.00100423
0.00101163
0.00101133
0.00101105
0.00101077
0.0010105
0.00101023
0.00100996
0.00100969
0.00100943
0.00100917
0.00100891
0.00100866
0.00100841
0.00100816
0.00100791
0.00100767
0.00100744
0.0010072
0.00100697
0.00100674
0.00100652
0.0010063
0.00100608
0.00100587
0.00100566
0.00100546
0.00100525
0.00100505
0.00100486
0.00100466
0.00100447
0.00100426
0.00100397
0.00101163
0.00101133
0.00101105
0.00101077
0.00101049
0.00101022
0.00100996
0.0010097
0.00100944
0.00100918
0.00100893
0.00100868
0.00100843
0.00100819
0.00100795
0.00100771
0.00100747
0.00100723
0.00100699
0.00100676
0.00100653
0.0010063
0.00100607
0.00100584
0.00100561
0.00100538
0.00100516
0.00100493
0.00100471
0.00100449
0.00100427
0.00100403
0.0010037
0.00101163
0.00101133
0.00101105
0.00101077
0.00101048
0.0010102
0.00100992
0.00100964
0.00100935
0.00100907
0.00100879
0.00100851
0.00100822
0.00100794
0.00100766
0.00100738
0.0010071
0.00100681
0.00100653
0.00100624
0.00100595
0.00100566
0.00100536
0.00100507
0.00100477
0.00100447
0.00100417
0.00100386
0.00100356
0.00100325
0.00100294
0.00100261
0.00100219
0.00101163
0.00101134
0.00101105
0.00101077
0.00101049
0.00101021
0.00100993
0.00100964
0.00100934
0.00100903
0.00100871
0.00100837
0.00100802
0.00100766
0.00100728
0.00100689
0.00100648
0.00100606
0.00100562
0.00100516
0.00100469
0.00100421
0.00100371
0.0010032
0.00100268
0.00100215
0.00100161
0.00100107
0.00100051
0.000999945
0.000999374
0.00099878
0.000998088
0.00101163
0.00101134
0.00101103
0.00101069
0.00101033
0.00100994
0.00100951
0.00100904
0.00100853
0.00100796
0.00100734
0.00100667
0.00100594
0.00100515
0.00100431
0.00100342
0.00100248
0.0010015
0.00100047
0.000999415
0.000998326
0.000997209
0.000996068
0.000994908
0.000993733
0.000992544
0.000991346
0.000990142
0.000988934
0.000987724
0.000986513
0.000985288
0.000983974
0.00101164
0.00101133
0.00101094
0.00101042
0.00100973
0.00100883
0.0010077
0.00100635
0.00100478
0.001003
0.00100104
0.00099891
0.000996632
0.000994229
0.000991721
0.000989127
0.000986465
0.000983752
0.000981002
0.000978228
0.000975443
0.000972655
0.000969875
0.000967107
0.000964359
0.000961636
0.000958943
0.000956284
0.000953664
0.000951084
0.000948544
0.000946034
0.000943478
0.00101162
0.0010106
0.00100853
0.00100543
0.0010014
0.000996513
0.00099091
0.000984748
0.000978175
0.000971316
0.000964274
0.000957138
0.000949981
0.000942857
0.000935813
0.00092888
0.000922086
0.000915449
0.000908981
0.000902692
0.000896586
0.000890666
0.000884933
0.000879385
0.000874019
0.000868832
0.000863821
0.00085898
0.000854305
0.000849789
0.000845427
0.000841202
0.000837041
0.00100895
0.00099538
0.000976042
0.000953695
0.000930321
0.000907094
0.000884659
0.000863331
0.000843231
0.000824391
0.000806785
0.000790356
0.000775029
0.000760725
0.000747364
0.000734868
0.000723166
0.000712192
0.000701886
0.000692193
0.000683064
0.000674453
0.00066632
0.000658629
0.000651347
0.000644444
0.000637892
0.000631667
0.000625747
0.00062011
0.000614738
0.00060961
0.000604664
0.000892788
0.000742254
0.0006492
0.000585538
0.000538563
0.000502135
0.00047288
0.000448748
0.000428411
0.000410975
0.000395816
0.000382485
0.000370646
0.000360047
0.000350489
0.00034182
0.000333914
0.000326673
0.000320012
0.000313864
0.000308172
0.000302886
0.000297966
0.000293375
0.000289083
0.000285062
0.000281289
0.000277743
0.000274405
0.000271259
0.000268289
0.000265484
0.000262831
0.000126722
0.000129956
0.000133005
0.000135891
0.000138628
0.000141229
0.000143705
0.000146063
0.000148309
0.00015045
0.000152489
0.000154433
0.000156285
0.00015805
0.000159732
0.000161333
0.000162859
0.000164312
0.000165696
0.000167013
0.000168268
0.000169462
0.000170598
0.000171679
0.000172709
0.000173688
0.00017462
0.000175507
0.000176351
0.000177154
0.000177918
0.000178645
0.000179342
8.54078e-05
0.000115086
0.000145366
0.000175377
0.000202227
0.000225823
0.000247088
0.000267068
0.000286676
0.000306513
0.00032682
0.000347574
0.000368744
0.000390267
0.000412058
0.000433972
0.000455809
0.000477566
0.000499096
0.000520399
0.000541482
0.00056236
0.000583084
0.000603745
0.000624465
0.000645375
0.0006666
0.000688255
0.000710442
0.000733248
0.000756758
0.00078105
0.000806193
0.000832241
0.000859224
0.000887151
0.000916007
0.000945755
0.000976338
0.00100768
0.0010397
0.00107229
0.00110534
0.00113876
0.00117241
0.0012062
0.00124002
0.00127379
0.00130744
0.00134095
0.0013743
0.00140752
0.00144062
0.00147361
0.00150647
0.00153915
0.00157153
0.00160348
0.00163483
0.00166536
0.00169482
0.00172295
0.00174943
0.00177394
0.00179616
0.00181579
0.00183264
0.00184663
0.00185783
0.00186645
0.00187282
0.00187738
0.0018806
0.00188293
0.00188481
0.00188664
0.00188885
0.00189189
0.00189642
0.00190331
0.00191383
0.00192974
0.00195349
0.00198843
0.00203908
0.00211124
0.00221157
0.00234618
0.00251769
0.00272197
0.00294656
0.00317275
0.00338073
0.00355494
0.00368695
0.00377581
0.0038254
0.00384281
0.00383051
0.0037548
7.83462e-05
8.46965e-05
9.51291e-05
0.000110223
0.000129139
0.000150815
0.000173744
0.000196763
0.000219301
0.000241173
0.000262425
0.000283227
0.000303818
0.000324432
0.000345241
0.000366305
0.000387577
0.000409
0.000430591
0.000452205
0.000473738
0.000495121
0.000516332
0.000537395
0.000558373
0.000579346
0.000600401
0.000621623
0.000643095
0.000664897
0.000687112
0.000709822
0.000733109
0.000757044
0.000781685
0.000807073
0.000833233
0.00086017
0.000887868
0.0009163
0.000945418
0.000975166
0.00100547
0.00103626
0.00106743
0.00109891
0.00113061
0.00116245
0.00119439
0.00122638
0.00125843
0.00129054
0.00132274
0.00135502
0.00138736
0.00141969
0.00145189
0.0014838
0.00151524
0.00154597
0.00157575
0.00160428
0.00163126
0.00165636
0.00167926
0.00169969
0.00171746
0.00173252
0.00174494
0.00175495
0.00176288
0.00176919
0.00177433
0.00177878
0.00178297
0.00178733
0.00179228
0.00179831
0.0018061
0.00181656
0.00183102
0.00185134
0.00188013
0.001921
0.00197887
0.00206005
0.00217162
0.00231958
0.00250544
0.00272269
0.00295597
0.0031845
0.0033882
0.00355304
0.00367289
0.00374891
0.00378641
0.00379308
0.00377167
0.00368618
0.000137735
0.000137395
0.000137882
0.000139124
0.000140945
0.000143248
0.000147593
0.000154922
0.000165393
0.000178496
0.000193853
0.000211038
0.000229615
0.000249199
0.000269481
0.000290225
0.000311213
0.0003323
0.000353596
0.000375034
0.000396522
0.000417979
0.000439346
0.000460602
0.000481754
0.00050283
0.000523871
0.000544925
0.000566044
0.000587291
0.000608735
0.000630454
0.000652527
0.000675034
0.000698045
0.000721622
0.000745812
0.000770649
0.000796153
0.000822328
0.000849163
0.000876636
0.000904709
0.000933332
0.000962446
0.000991984
0.00102188
0.00105207
0.00108252
0.0011132
0.00114411
0.00117526
0.00120666
0.00123833
0.00127023
0.00130229
0.00133439
0.00136637
0.00139801
0.00142909
0.00145933
0.00148844
0.00151611
0.00154202
0.00156585
0.00158734
0.00160632
0.00162272
0.00163665
0.00164832
0.00165808
0.00166637
0.00167366
0.00168042
0.0016871
0.00169412
0.00170191
0.00171099
0.00172202
0.00173596
0.00175415
0.00177851
0.00181179
0.00185782
0.00192187
0.00201066
0.00213163
0.00229069
0.00248829
0.00271583
0.00295543
0.00318466
0.00338353
0.00353951
0.00364855
0.00371356
0.00374093
0.00373875
0.00370987
0.00361544
0.000281158
0.000277058
0.000273329
0.000269962
0.000266757
0.000263113
0.000258514
0.000252813
0.000246102
0.000240477
0.000236713
0.000235303
0.0002366
0.000240748
0.000247696
0.000257243
0.000269062
0.000282766
0.000298049
0.000314654
0.000332276
0.00035064
0.000369523
0.000388766
0.000408267
0.000427962
0.00044782
0.000467825
0.000487978
0.000508292
0.000528794
0.000549527
0.000570541
0.000591893
0.000613642
0.000635841
0.000658541
0.000681782
0.000705598
0.000730012
0.000755037
0.000780673
0.000806909
0.000833725
0.000861086
0.000888952
0.000917277
0.000946022
0.000975156
0.00100467
0.00103456
0.00106485
0.00109556
0.00112671
0.00115825
0.00119013
0.00122222
0.00125434
0.00128629
0.00131782
0.00134865
0.00137849
0.00140701
0.00143389
0.00145884
0.0014816
0.00150199
0.00151997
0.00153562
0.00154917
0.00156097
0.00157144
0.00158105
0.00159027
0.00159954
0.00160929
0.00161997
0.00163206
0.00164625
0.00166347
0.00168506
0.001713
0.00175009
0.00180036
0.00186937
0.00196418
0.0020925
0.00226008
0.0024665
0.00270147
0.00294519
0.00317406
0.00336824
0.00351653
0.00361649
0.0036724
0.00369144
0.00368194
0.00364683
0.00354346
0.000436007
0.000430291
0.000424724
0.000419436
0.000414459
0.000409711
0.000404963
0.000399847
0.000393857
0.000386685
0.00037861
0.000369946
0.000360997
0.000352191
0.000344059
0.000337154
0.000331966
0.000328828
0.000328022
0.000329687
0.000333773
0.000340133
0.000348563
0.000358834
0.000370713
0.000383972
0.000398402
0.000413815
0.000430054
0.000446996
0.000464552
0.000482667
0.000501313
0.00052048
0.000540174
0.000560407
0.000581196
0.000602558
0.000624511
0.000647072
0.000670254
0.000694064
0.000718504
0.000743568
0.00076924
0.000795499
0.000822319
0.000849677
0.000877556
0.000905953
0.00093488
0.000964361
0.000994419
0.00102506
0.00105627
0.00108797
0.00112005
0.00115232
0.00118458
0.00121657
0.00124799
0.00127857
0.00130796
0.00133587
0.00136199
0.00138608
0.00140798
0.00142763
0.00144512
0.00146066
0.00147459
0.00148733
0.00149932
0.00151103
0.0015229
0.00153534
0.0015488
0.00156375
0.00158085
0.001601
0.00162554
0.0016564
0.00169646
0.00174985
0.00182236
0.00192136
0.00205476
0.00222814
0.00244029
0.00267966
0.00292517
0.0031526
0.00334246
0.00348451
0.00357744
0.00362643
0.00363911
0.00362391
0.00358377
0.00347144
0.000579024
0.000572594
0.000566232
0.000560007
0.000553984
0.000548187
0.000542635
0.000537307
0.00053208
0.000526749
0.00052114
0.000515169
0.000508634
0.000501388
0.000493345
0.000484511
0.000475006
0.000465037
0.00045498
0.000445303
0.000436465
0.000428878
0.000422894
0.000418783
0.000416723
0.000416801
0.000419018
0.000423303
0.000429533
0.000437559
0.000447221
0.000458365
0.000470851
0.000484557
0.000499381
0.000515241
0.00053207
0.000549817
0.000568442
0.000587918
0.000608222
0.000629339
0.000651253
0.000673949
0.000697408
0.000721609
0.000746532
0.000772157
0.000798472
0.000825476
0.000853182
0.000881609
0.000910777
0.000940692
0.00097133
0.00100262
0.00103445
0.00106663
0.00109895
0.00113115
0.00116295
0.00119404
0.00122411
0.00125285
0.00127997
0.00130525
0.00132852
0.00134973
0.00136895
0.0013864
0.00140237
0.00141727
0.00143152
0.00144557
0.00145984
0.00147474
0.00149066
0.00150809
0.00152764
0.00155015
0.00157692
0.00160985
0.0016518
0.00170695
0.00178122
0.00188223
0.00201809
0.00219433
0.00240916
0.00265006
0.0028952
0.00312021
0.00330605
0.00344323
0.00353115
0.00357541
0.00358382
0.00356468
0.00352086
0.00340002
0.000701049
0.000694456
0.000687963
0.000681545
0.000675284
0.0006692
0.000663319
0.000657668
0.000652228
0.000646977
0.000641874
0.000636886
0.000631938
0.000626923
0.000621707
0.00061614
0.000610066
0.000603336
0.000595831
0.000587544
0.000578531
0.000568937
0.000558997
0.000549018
0.000539356
0.00053038
0.00052244
0.000515839
0.000510819
0.000507551
0.000506142
0.000506641
0.000509047
0.000513323
0.000519404
0.000527207
0.000536643
0.000547619
0.000560047
0.000573847
0.000588947
0.000605286
0.000622808
0.000641463
0.000661208
0.000682001
0.000703803
0.000726582
0.000750315
0.000774988
0.000800599
0.000827155
0.000854662
0.00088311
0.000912465
0.000942652
0.000973545
0.00100497
0.0010367
0.00106849
0.00110004
0.00113106
0.00116124
0.00119028
0.0012179
0.00124389
0.00126808
0.00129042
0.00131098
0.00132994
0.00134758
0.00136425
0.00138035
0.0013963
0.00141249
0.0014293
0.0014471
0.00146633
0.00148755
0.00151157
0.00153958
0.00157343
0.00161591
0.00167119
0.0017452
0.0018457
0.00198102
0.00215681
0.00237112
0.00261097
0.00285412
0.00307621
0.00325864
0.00339239
0.00347721
0.00351883
0.00352497
0.00350365
0.00345757
0.00332919
0.000798151
0.000792015
0.000785949
0.000779928
0.000773982
0.000768122
0.000762363
0.000756737
0.00075127
0.000745983
0.00074089
0.000736001
0.000731317
0.000726822
0.000722482
0.000718247
0.000714042
0.00070977
0.00070531
0.000700543
0.000695348
0.000689628
0.000683302
0.000676352
0.000668828
0.000660841
0.000652562
0.000644208
0.000636032
0.000628299
0.00062127
0.000615194
0.000610292
0.000606748
0.000604707
0.00060427
0.000605499
0.000608424
0.000613049
0.000619358
0.000627319
0.000636895
0.000648041
0.000660707
0.000674846
0.000690405
0.000707337
0.000725598
0.000745149
0.000765961
0.000788015
0.000811294
0.000835785
0.000861458
0.000888263
0.00091611
0.000944869
0.000974361
0.00100437
0.00103463
0.00106487
0.00109479
0.0011241
0.0011525
0.00117973
0.00120557
0.00122988
0.00125258
0.00127373
0.00129346
0.00131203
0.00132974
0.00134695
0.00136403
0.00138132
0.00139917
0.00141792
0.00143795
0.00145977
0.00148412
0.00151212
0.00154549
0.00158691
0.00164043
0.00171193
0.00180918
0.00194066
0.00211237
0.00232274
0.00255901
0.00279898
0.00301835
0.0031986
0.00333083
0.00341475
0.00345592
0.00346181
0.00344008
0.00339318
0.00325857
0.000870888
0.000865605
0.000860343
0.000855104
0.000849874
0.000844675
0.000839523
0.000834437
0.000829439
0.000824546
0.00081977
0.000815118
0.00081061
0.000806264
0.000802095
0.000798111
0.00079431
0.000790678
0.000787184
0.000783774
0.000780386
0.000776951
0.000773392
0.000769632
0.000765607
0.000761272
0.00075661
0.000751632
0.000746395
0.000740946
0.000735395
0.00072989
0.000724603
0.000719722
0.000715431
0.000711907
0.000709314
0.000707798
0.000707484
0.000708473
0.000710849
0.000714671
0.000719983
0.000726811
0.000735168
0.000745054
0.00075646
0.000769372
0.000783775
0.000799651
0.000816985
0.000835763
0.000855963
0.000877551
0.00090047
0.000924629
0.000949899
0.000976109
0.00100305
0.00103047
0.00105812
0.0010857
0.00111293
0.00113954
0.00116526
0.00118989
0.00121326
0.00123531
0.00125605
0.00127559
0.00129411
0.00131188
0.0013292
0.00134637
0.00136369
0.00138147
0.0014
0.00141961
0.00144078
0.00146414
0.00149072
0.0015221
0.00156078
0.00161061
0.00167726
0.00176838
0.0018926
0.00205644
0.00225928
0.00248939
0.0027252
0.00294253
0.00312254
0.00325583
0.00334161
0.00338498
0.00339301
0.00337287
0.00332682
0.00318759
0.000921862
0.000917652
0.000913421
0.000909175
0.000904908
0.000900623
0.000896337
0.000892058
0.000887799
0.00088357
0.000879384
0.000875254
0.000871193
0.000867217
0.000863345
0.000859594
0.000855984
0.000852531
0.000849247
0.000846135
0.000843198
0.000840419
0.000837777
0.000835245
0.000832792
0.000830382
0.00082798
0.000825552
0.000823077
0.000820539
0.000817937
0.000815296
0.000812659
0.000810101
0.000807673
0.000805467
0.000803596
0.00080218
0.000801341
0.000801199
0.000801869
0.000803459
0.000806067
0.00080978
0.000814671
0.000820804
0.000828229
0.000836987
0.000847108
0.00085862
0.000871541
0.000885886
0.000901656
0.000918838
0.000937397
0.000957266
0.00097834
0.00100048
0.0010235
0.0010472
0.00107133
0.00109564
0.00111987
0.00114376
0.00116706
0.00118956
0.00121111
0.00123162
0.00125105
0.00126948
0.00128703
0.00130391
0.00132035
0.0013366
0.00135292
0.00136954
0.00138674
0.0014048
0.00142413
0.0014453
0.00146921
0.00149727
0.00153175
0.00157618
0.00163585
0.00171811
0.00183166
0.00198372
0.00217522
0.00239634
0.00262693
0.00284305
0.00302518
0.00316277
0.0032539
0.00330281
0.00331596
0.00329998
0.00325693
0.00311524
0.000955742
0.000952589
0.000949389
0.000946148
0.00094287
0.000939551
0.000936196
0.000932815
0.000929415
0.000926005
0.000922592
0.000919184
0.000915785
0.000912406
0.000909058
0.000905759
0.000902527
0.000899379
0.000896336
0.000893411
0.000890625
0.000887992
0.000885526
0.000883237
0.000881133
0.000879214
0.000877477
0.000875915
0.000874517
0.000873272
0.000872168
0.000871199
0.000870365
0.000869675
0.000869147
0.000868807
0.000868678
0.000868794
0.000869215
0.000870011
0.000871258
0.000873037
0.00087543
0.000878519
0.000882382
0.000887097
0.000892732
0.000899353
0.000907019
0.000915783
0.000925695
0.000936794
0.000949112
0.000962668
0.000977457
0.000993451
0.00101059
0.00102878
0.00104789
0.00106777
0.00108821
0.00110901
0.00112994
0.00115077
0.00117128
0.00119127
0.00121057
0.00122908
0.00124673
0.00126354
0.0012796
0.00129502
0.00130998
0.00132467
0.00133931
0.00135409
0.00136925
0.00138503
0.00140179
0.00142001
0.00144047
0.0014644
0.00149373
0.00153158
0.00158269
0.00165387
0.00175363
0.00188996
0.00206586
0.00227443
0.00249797
0.00271328
0.00289984
0.00304527
0.00314585
0.00320439
0.00322643
0.00321791
0.00318076
0.00303966
0.000976684
0.00097445
0.000972161
0.00096982
0.000967431
0.000964997
0.000962513
0.000959985
0.000957419
0.00095482
0.000952189
0.000949531
0.000946851
0.000944152
0.000941442
0.000938728
0.000936022
0.000933337
0.000930687
0.00092809
0.000925564
0.000923133
0.000920814
0.000918628
0.000916596
0.000914738
0.000913071
0.000911609
0.000910363
0.000909342
0.000908551
0.000907993
0.000907671
0.000907588
0.000907746
0.000908157
0.000908815
0.000909728
0.000910917
0.00091241
0.000914243
0.000916457
0.000919098
0.000922216
0.000925866
0.000930102
0.00093498
0.000940555
0.000946883
0.000954016
0.000962007
0.000970903
0.000980748
0.000991573
0.0010034
0.00101623
0.00103005
0.00104481
0.00106042
0.0010768
0.00109379
0.00111124
0.00112898
0.00114682
0.00116456
0.00118202
0.00119904
0.00121549
0.00123129
0.0012464
0.00126085
0.0012747
0.00128806
0.00130108
0.00131391
0.00132672
0.00133969
0.00135305
0.0013671
0.00138224
0.00139911
0.00141871
0.00144265
0.00147349
0.00151527
0.00157397
0.00165754
0.00177446
0.00192997
0.00212109
0.00233394
0.00254714
0.00273936
0.0028958
0.00301009
0.0030829
0.00311837
0.00312146
0.00309397
0.00295771
0.000989085
0.000987555
0.000985974
0.000984343
0.000982665
0.000980941
0.00097917
0.000977353
0.000975493
0.000973593
0.000971654
0.000969677
0.000967665
0.000965619
0.000963541
0.000961436
0.000959308
0.000957164
0.000955012
0.000952863
0.000950731
0.000948632
0.000946582
0.0009446
0.000942708
0.000940927
0.000939279
0.000937786
0.000936466
0.00093534
0.000934423
0.000933732
0.00093327
0.000933046
0.000933068
0.000933347
0.000933892
0.000934708
0.000935807
0.000937201
0.000938905
0.000940939
0.000943326
0.000946092
0.000949268
0.000952885
0.00095698