/*--------------------------------*- C++ -*----------------------------------*\
| =========                 |                                                 |
| \\      /  F ield         | OpenFOAM: The Open Source CFD Toolbox           |
|  \\    /   O peration     | Version:  4.1                                   |
|   \\  /    A nd           | Web:      www.OpenFOAM.org                      |
|    \\/     M anipulation  |                                                 |
\*---------------------------------------------------------------------------*/
FoamFile
{
    version     2.0;
    format      ascii;
    class       volScalarField;
    location    "600";
    object      p;
}
// * * * * * * * * * * * * * * * * * * * * * * * * * * * * * * * * * * * * * //

dimensions      [0 2 -2 0 0 0 0];

internalField   nonuniform List<scalar> 
6820
(
-8.40268
-8.66023
-8.75786
-8.77859
-8.81185
-8.85719
-8.89884
-8.93505
-8.96881
-9.00097
-9.03109
-9.05904
-9.08508
-9.10946
-9.13238
-9.15399
-9.17445
-9.19392
-9.21253
-9.23041
-9.24766
-9.26436
-9.28062
-9.29649
-9.31206
-9.32739
-9.34253
-9.35754
-9.37251
-9.38732
-9.4029
-9.41697
-9.44729
-8.51546
-8.68152
-8.76025
-8.78115
-8.8081
-8.84339
-8.87504
-8.902
-8.92735
-8.95213
-8.97606
-8.999
-9.02112
-9.04256
-9.06338
-9.08362
-9.10332
-9.12254
-9.14132
-9.15969
-9.1777
-9.19539
-9.21279
-9.22993
-9.24686
-9.26361
-9.28022
-9.29672
-9.31318
-9.32958
-9.34615
-9.36287
-9.37979
-8.57172
-8.67643
-8.75446
-8.78639
-8.81461
-8.84784
-8.87832
-8.90468
-8.92935
-8.95332
-8.97637
-8.9984
-9.01953
-9.0399
-9.05959
-9.07864
-9.09711
-9.11505
-9.13254
-9.14961
-9.16631
-9.18269
-9.19879
-9.21465
-9.2303
-9.24579
-9.26116
-9.27644
-9.29169
-9.30689
-9.32225
-9.33734
-9.35307
-8.6215
-8.6965
-8.76915
-8.80433
-8.83183
-8.86343
-8.89348
-8.91985
-8.94429
-8.96775
-8.99016
-9.01145
-9.03179
-9.05133
-9.07016
-9.08837
-9.10601
-9.12316
-9.13987
-9.15621
-9.17221
-9.18792
-9.20338
-9.21862
-9.23369
-9.24862
-9.26344
-9.27819
-9.29291
-9.30763
-9.32239
-9.33716
-9.35202
-8.66299
-8.71422
-8.77444
-8.80931
-8.83658
-8.86686
-8.89613
-8.92218
-8.94636
-8.96961
-8.99192
-9.01324
-9.03369
-9.05341
-9.07247
-9.09092
-9.10882
-9.12622
-9.14318
-9.15974
-9.17595
-9.19183
-9.20744
-9.22281
-9.23796
-9.25295
-9.2678
-9.28254
-9.29723
-9.31187
-9.32653
-9.34123
-9.35601
-8.69778
-8.73363
-8.78448
-8.81978
-8.84746
-8.87653
-8.90491
-8.93065
-8.95464
-8.97768
-8.99979
-9.02092
-9.04118
-9.06067
-9.07949
-9.09768
-9.11531
-9.13243
-9.1491
-9.16537
-9.18128
-9.19687
-9.21219
-9.22726
-9.24213
-9.25682
-9.27138
-9.28583
-9.30021
-9.31454
-9.32889
-9.34328
-9.3578
-8.72762
-8.75318
-8.79508
-8.82827
-8.85476
-8.88188
-8.9088
-8.93376
-8.95716
-8.97966
-9.00133
-9.02212
-9.04212
-9.06143
-9.08012
-9.09823
-9.11583
-9.13295
-9.14965
-9.16596
-9.18193
-9.19758
-9.21295
-9.22808
-9.24299
-9.25772
-9.27228
-9.28673
-9.30107
-9.31535
-9.32959
-9.34385
-9.35817
-8.75355
-8.77213
-8.80656
-8.83741
-8.86316
-8.88905
-8.91498
-8.93941
-8.96246
-8.98464
-9.00604
-9.02664
-9.04648
-9.06565
-9.08422
-9.10221
-9.11968
-9.13667
-9.15323
-9.16939
-9.1852
-9.20068
-9.21587
-9.23081
-9.24551
-9.26002
-9.27435
-9.28853
-9.3026
-9.31657
-9.33048
-9.34435
-9.35819
-8.7764
-8.79023
-8.81854
-8.84665
-8.87112
-8.89544
-8.91993
-8.94337
-8.96567
-8.9872
-9.00805
-9.02819
-9.04765
-9.0665
-9.08478
-9.10253
-9.1198
-9.13663
-9.15304
-9.16908
-9.18478
-9.20017
-9.21527
-9.23012
-9.24473
-9.25914
-9.27337
-9.28744
-9.30136
-9.31516
-9.32886
-9.34247
-9.35601
-8.79677
-8.80731
-8.83067
-8.85599
-8.87909
-8.90204
-8.92531
-8.94794
-8.96968
-8.99074
-9.01121
-9.03105
-9.05027
-9.06892
-9.08704
-9.10465
-9.1218
-9.13851
-9.15481
-9.17074
-9.18632
-9.20158
-9.21655
-9.23125
-9.2457
-9.25992
-9.27395
-9.28778
-9.30144
-9.31495
-9.32831
-9.34153
-9.35458
-8.81509
-8.8233
-8.84273
-8.86537
-8.88698
-8.90856
-8.93054
-8.95219
-8.97316
-8.99356
-9.01345
-9.0328
-9.0516
-9.06988
-9.08767
-9.10499
-9.12187
-9.13834
-9.15443
-9.17015
-9.18554
-9.20061
-9.2154
-9.22992
-9.24419
-9.25822
-9.27204
-9.28566
-9.29909
-9.31234
-9.3254
-9.33829
-9.35099
-8.8317
-8.83822
-8.85451
-8.87469
-8.89478
-8.91504
-8.9358
-8.95649
-8.97674
-8.99654
-9.01594
-9.03487
-9.05334
-9.07133
-9.08888
-9.106
-9.1227
-9.13901
-9.15494
-9.17053
-9.18577
-9.20071
-9.21535
-9.22971
-9.24381
-9.25767
-9.27128
-9.28468
-9.29785
-9.31081
-9.32355
-9.33607
-9.34832
-8.84683
-8.85209
-8.86589
-8.88386
-8.90245
-8.92144
-8.94103
-8.96075
-8.98022
-8.99936
-9.01818
-9.03662
-9.05465
-9.07226
-9.08946
-9.10627
-9.12269
-9.13873
-9.15441
-9.16975
-9.18477
-9.19948
-9.21389
-9.22802
-9.24189
-9.2555
-9.26886
-9.28198
-9.29487
-9.30752
-9.31993
-9.33209
-9.34397
-8.86066
-8.86496
-8.87677
-8.8928
-8.90994
-8.92772
-8.94619
-8.96496
-8.98365
-9.00215
-9.02041
-9.03837
-9.05599
-9.07325
-9.09015
-9.10668
-9.12285
-9.13867
-9.15415
-9.1693
-9.18413
-9.19866
-9.21289
-9.22683
-9.2405
-9.2539
-9.26704
-9.27993
-9.29255
-9.30492
-9.31701
-9.32883
-9.34033
-8.87331
-8.87687
-8.88708
-8.90142
-8.91722
-8.93384
-8.95125
-8.9691
-8.98703
-9.00487
-9.02255
-9.04001
-9.05719
-9.07405
-9.0906
-9.10681
-9.12268
-9.13822
-9.15343
-9.16833
-9.18291
-9.19718
-9.21116
-9.22485
-9.23826
-9.2514
-9.26426
-9.27685
-9.28917
-9.30121
-9.31296
-9.32443
-9.33557
-8.88488
-8.88786
-8.89677
-8.90966
-8.92422
-8.93976
-8.95618
-8.97315
-8.99032
-9.00751
-9.02463
-9.04159
-9.05832
-9.0748
-9.091
-9.10689
-9.12248
-9.13776
-9.15272
-9.16738
-9.18173
-9.19578
-9.20953
-9.223
-9.23618
-9.24908
-9.26169
-9.27403
-9.28607
-9.29783
-9.30928
-9.32042
-9.33122
-8.89546
-8.89796
-8.90581
-8.91746
-8.93089
-8.94544
-8.96093
-8.97706
-8.99351
-9.01007
-9.02662
-9.04308
-9.05937
-9.07545
-9.09128
-9.10685
-9.12212
-9.13711
-9.1518
-9.16618
-9.18027
-9.19406
-9.20756
-9.22076
-9.23367
-9.24629
-9.25862
-9.27066
-9.2824
-9.29384
-9.30497
-9.31577
-9.32625
-8.90508
-8.9072
-8.91418
-8.92477
-8.9372
-8.95082
-8.96546
-8.98081
-8.99656
-9.0125
-9.02851
-9.04448
-9.06033
-9.07602
-9.09149
-9.10672
-9.12169
-9.13638
-9.15079
-9.16492
-9.17875
-9.19229
-9.20553
-9.21848
-9.23114
-9.24351
-9.25557
-9.26734
-9.2788
-9.28995
-9.30079
-9.3113
-9.32146
-8.91379
-8.9156
-8.92186
-8.93155
-8.94308
-8.95587
-8.96972
-8.98435
-8.99944
-9.0148
-9.03027
-9.04577
-9.06119
-9.07648
-9.09159
-9.10649
-9.12114
-9.13554
-9.14967
-9.16352
-9.17708
-9.19035
-9.20333
-9.21601
-9.2284
-9.24048
-9.25227
-9.26375
-9.27492
-9.28577
-9.2963
-9.3065
-9.31636
-8.9216
-8.92316
-8.92882
-8.93774
-8.9485
-8.96054
-8.97368
-8.98764
-9.00212
-9.01692
-9.0319
-9.04693
-9.06194
-9.07684
-9.0916
-9.10616
-9.12051
-9.13461
-9.14845
-9.16202
-9.17531
-9.18832
-9.20104
-9.21346
-9.22558
-9.2374
-9.24891
-9.26012
-9.27101
-9.28159
-9.29183
-9.30175
-9.31133
-8.92853
-8.92987
-8.93505
-8.94333
-8.95341
-8.96479
-8.97729
-8.99064
-9.00456
-9.01885
-9.03335
-9.04795
-9.06255
-9.07709
-9.09149
-9.10573
-9.11977
-9.13357
-9.14713
-9.16043
-9.17345
-9.18618
-9.19863
-9.21079
-9.22264
-9.23419
-9.24543
-9.25636
-9.26698
-9.27727
-9.28724
-9.29688
-9.30617
-8.93457
-8.93574
-8.94052
-8.94826
-8.95777
-8.96858
-8.98051
-8.99332
-9.00673
-9.02054
-9.0346
-9.04879
-9.06301
-9.07719
-9.09127
-9.10519
-9.11892
-9.13244
-9.14571
-9.15873
-9.17148
-9.18396
-9.19614
-9.20803
-9.21962
-9.23091
-9.24188
-9.25254
-9.26289
-9.27291
-9.28261
-9.29199
-9.30102
-8.93972
-8.94075
-8.9452
-8.9525
-8.96153
-8.97185
-8.98329
-8.99563
-9.00859
-9.02197
-9.03563
-9.04944
-9.06331
-9.07715
-9.0909
-9.10452
-9.11796
-9.13119
-9.14419
-9.15695
-9.16943
-9.18164
-9.19357
-9.2052
-9.21653
-9.22755
-9.23827
-9.24867
-9.25876
-9.26852
-9.27797
-9.28708
-9.29587
-8.94394
-8.94486
-8.94906
-8.95602
-8.96466
-8.97457
-8.9856
-8.99753
-9.01009
-9.0231
-9.03639
-9.04986
-9.0634
-9.07693
-9.09038
-9.10371
-9.11687
-9.12983
-9.14256
-9.15505
-9.16727
-9.17922
-9.19089
-9.20226
-9.21334
-9.2241
-9.23456
-9.24471
-9.25453
-9.26405
-9.27324
-9.28211
-9.29065
-8.9472
-8.94805
-8.95205
-8.95875
-8.9671
-8.97669
-8.98739
-8.99897
-9.01121
-9.02388
-9.03686
-9.05003
-9.06327
-9.07651
-9.08968
-9.10273
-9.11563
-9.12833
-9.1408
-9.15304
-9.16502
-9.17672
-9.18814
-9.19927
-9.2101
-9.22062
-9.23084
-9.24074
-9.25033
-9.25961
-9.26857
-9.2772
-9.28551
-8.94944
-8.95024
-8.95412
-8.96064
-8.96877
-8.97813
-8.98857
-8.9999
-9.01186
-9.02427
-9.03698
-9.04987
-9.06285
-9.07583
-9.08875
-9.10155
-9.11419
-9.12663
-9.13886
-9.15085
-9.16258
-9.17404
-9.18521
-9.19609
-9.20667
-9.21695
-9.22692
-9.23657
-9.24592
-9.25495
-9.26367
-9.27207
-9.28016
-8.95059
-8.95137
-8.95519
-8.9616
-8.96962
-8.97883
-8.9891
-9.00024
-9.012
-9.0242
-9.03669
-9.04936
-9.06211
-9.07486
-9.08755
-9.10013
-9.11254
-9.12476
-9.13677
-9.14853
-9.16004
-9.17127
-9.18222
-9.19288
-9.20325
-9.2133
-9.22306
-9.2325
-9.24163
-9.25045
-9.25896
-9.26716
-9.27503
-8.95058
-8.95138
-8.95519
-8.96161
-8.9696
-8.97876
-8.98895
-8.99998
-9.01162
-9.02367
-9.03599
-9.04849
-9.06105
-9.0736
-9.08608
-9.09843
-9.11063
-9.12263
-9.1344
-9.14594
-9.15721
-9.16821
-9.17892
-9.18934
-9.19947
-9.20929
-9.2188
-9.22801
-9.23691
-9.2455
-9.25378
-9.26176
-9.26944
-8.94932
-8.95017
-8.95407
-8.96059
-8.96868
-8.97789
-8.98811
-8.99913
-9.01072
-9.02269
-9.03492
-9.04729
-9.05972
-9.07213
-9.08445
-9.09664
-9.10867
-9.12049
-9.13209
-9.14344
-9.15453
-9.16535
-9.17588
-9.18611
-9.19605
-9.20568
-9.21501
-9.22403
-9.23275
-9.24115
-9.24925
-9.25704
-9.26451
-8.94666
-8.94762
-8.95172
-8.95848
-8.96679
-8.97619
-8.98654
-8.99764
-9.00926
-9.02123
-9.0334
-9.04568
-9.05799
-9.07025
-9.08242
-9.09443
-9.10626
-9.11789
-9.12928
-9.14041
-9.15128
-9.16188
-9.17218
-9.18219
-9.1919
-9.20131
-9.21041
-9.21921
-9.2277
-9.23589
-9.24378
-9.25138
-9.25869
-8.94245
-8.94357
-8.948
-8.95518
-8.96388
-8.9736
-8.98421
-8.99552
-9.0073
-9.01937
-9.0316
-9.04391
-9.0562
-9.06843
-9.08052
-9.09246
-9.10419
-9.11571
-9.12698
-9.13798
-9.14872
-9.15917
-9.16932
-9.17918
-9.18874
-9.19799
-9.20694
-9.21558
-9.22391
-9.23194
-9.23966
-9.24708
-9.25417
-8.93644
-8.93781
-8.94277
-8.95058
-8.95988
-8.97008
-8.98106
-8.99265
-9.00462
-9.01679
-9.02905
-9.04134
-9.05357
-9.0657
-9.07767
-9.08946
-9.10103
-9.11237
-9.12345
-9.13427
-9.14481
-9.15505
-9.16501
-9.17466
-9.18401
-9.19306
-9.2018
-9.21024
-9.21838
-9.22621
-9.23376
-9.24102
-9.24801
-8.92831
-8.93005
-8.93582
-8.94459
-8.95473
-8.96564
-8.97725
-8.98939
-9.0018
-9.01431
-9.02683
-9.03929
-9.05165
-9.06384
-9.07584
-9.08761
-9.09915
-9.11043
-9.12143
-9.13215
-9.14258
-9.15271
-9.16255
-9.17207
-9.18129
-9.1902
-9.1988
-9.20709
-9.21508
-9.22276
-9.23013
-9.2372
-9.24394
-8.91758
-8.91993
-8.92696
-8.93711
-8.94828
-8.9599
-8.97206
-8.98463
-8.99734
-9.01003
-9.02266
-9.03518
-9.04753
-9.05968
-9.07161
-9.08329
-9.09471
-9.10586
-9.11672
-9.12729
-9.13755
-9.14752
-9.15718
-9.16654
-9.17559
-9.18433
-9.19276
-9.20089
-9.20872
-9.21626
-9.2235
-9.23048
-9.23719
-8.90356
-8.90688
-8.91595
-8.92828
-8.9412
-8.95424
-8.96762
-8.98115
-8.99455
-9.00774
-9.02072
-9.03347
-9.04597
-9.0582
-9.07015
-9.08181
-9.09318
-9.10425
-9.11502
-9.12548
-9.13563
-9.14547
-9.155
-9.16421
-9.1731
-9.18169
-9.18996
-9.19792
-9.20558
-9.21293
-9.21998
-9.22671
-9.23313
-8.88516
-8.89024
-8.90233
-8.91682
-8.93077
-8.94462
-8.95889
-8.97318
-8.98712
-9.00069
-9.01396
-9.02692
-9.03954
-9.05183
-9.06379
-9.07542
-9.08673
-9.09772
-9.10839
-9.11874
-9.12878
-9.1385
-9.1479
-9.15699
-9.16577
-9.17424
-9.1824
-9.19026
-9.19782
-9.20509
-9.21207
-9.21878
-9.22522
-8.86022
-8.86937
-8.88876
-8.90849
-8.92492
-8.9403
-8.9558
-8.9709
-8.98525
-8.99902
-9.01238
-9.02535
-9.03793
-9.05013
-9.06197
-9.07346
-9.08462
-9.09544
-9.10593
-9.11609
-9.12592
-9.13543
-9.14462
-9.15349
-9.16205
-9.17029
-9.17822
-9.18585
-9.19318
-9.20021
-9.20694
-9.21338
-9.21952
-8.82527
-8.83893
-8.86455
-8.8878
-8.90675
-8.92475
-8.94237
-8.9588
-8.97399
-8.98834
-9.00208
-9.01525
-9.0279
-9.04009
-9.05187
-9.06328
-9.07434
-9.08506
-9.09545
-9.10552
-9.11527
-9.12471
-9.13384
-9.14267
-9.15119
-9.15941
-9.16732
-9.17494
-9.18226
-9.18929
-9.19601
-9.20241
-9.20848
-8.77787
-8.82553
-8.86491
-8.88517
-8.90143
-8.91976
-8.93771
-8.95364
-8.96817
-8.98207
-8.99548
-9.00833
-9.02067
-9.03257
-9.04408
-9.05522
-9.06602
-9.07648
-9.08662
-9.09645
-9.10597
-9.11518
-9.1241
-9.13273
-9.14106
-9.14912
-9.15689
-9.16439
-9.17162
-9.17862
-9.1854
-9.19201
-9.19848
-8.64354
-8.76571
-8.84036
-8.86458
-8.88089
-8.90189
-8.92235
-8.93953
-8.95484
-8.96963
-8.98412
-8.9982
-9.01189
-9.02526
-9.03837
-9.0512
-9.06375
-9.07602
-9.08798
-9.09965
-9.11099
-9.12202
-9.13272
-9.14308
-9.15311
-9.16279
-9.17213
-9.18112
-9.18976
-9.19805
-9.20599
-9.21355
-9.22085
-9.49465
-9.64972
-9.86747
-9.97246
-10.0832
-10.1891
-10.2704
-10.3335
-10.3831
-10.42
-10.4454
-10.4601
-10.4662
-10.466
-10.4619
-10.4563
-10.4497
-10.4394
-10.4321
-10.4324
-10.442
-10.4611
-10.4886
-10.5225
-10.5603
-10.5998
-10.6395
-10.6781
-10.715
-10.7495
-10.7808
-10.808
-10.8303
-10.847
-10.8576
-10.8619
-10.8597
-10.8511
-10.8358
-10.8139
-10.7851
-10.7493
-10.7061
-10.6555
-10.5971
-10.5309
-10.4565
-10.3737
-10.2824
-10.1821
-10.0725
-9.95327
-9.82391
-9.68414
-9.5338
-9.37293
-9.2018
-9.02087
-8.83077
-8.63225
-8.42609
-8.21307
-7.99398
-7.76963
-7.54078
-7.3082
-7.07258
-6.83447
-6.59428
-6.3522
-6.1082
-5.86209
-5.61356
-5.36231
-5.10812
-4.85099
-4.59114
-4.32906
-4.06544
-3.80115
-3.53714
-3.27437
-3.01369
-2.75588
-2.50188
-2.25318
-2.01197
-1.78116
-1.56397
-1.36357
-1.18151
-1.01866
-0.872013
-0.742401
-0.618798
-0.514591
-0.389601
-0.318852
-0.130188
-0.173656
-9.41035
-9.46302
-9.55574
-9.60245
-9.65604
-9.72362
-9.78992
-9.85327
-9.91396
-9.96942
-10.0177
-10.058
-10.0906
-10.1166
-10.1376
-10.1558
-10.1733
-10.1864
-10.1994
-10.2171
-10.2417
-10.2737
-10.3124
-10.3561
-10.4026
-10.4499
-10.4966
-10.5414
-10.5837
-10.6228
-10.658
-10.6886
-10.7137
-10.7327
-10.7453
-10.7512
-10.7503
-10.7426
-10.7281
-10.7066
-10.6782
-10.6425
-10.5995
-10.5489
-10.4906
-10.4243
-10.35
-10.2672
-10.176
-10.0758
-9.96641
-9.84742
-9.71844
-9.57921
-9.42959
-9.26964
-9.09965
-8.9201
-8.73163
-8.53497
-8.3309
-8.1202
-7.90366
-7.68204
-7.4561
-7.22658
-6.99414
-6.7593
-6.52244
-6.28372
-6.04309
-5.80034
-5.55517
-5.30726
-5.05641
-4.80261
-4.54609
-4.28731
-4.02696
-3.76585
-3.5049
-3.24499
-2.98695
-2.73152
-2.47965
-2.23279
-1.99309
-1.76341
-1.54694
-1.34688
-1.16487
-1.0019
-0.854999
-0.725031
-0.600977
-0.496357
-0.371348
-0.300696
-0.115727
-0.15841
-9.37177
-9.39334
-9.43832
-9.46647
-9.49025
-9.5231
-9.5586
-9.5936
-9.62893
-9.66387
-9.69721
-9.7282
-9.75668
-9.78305
-9.80832
-9.834
-9.86119
-9.8888
-9.91713
-9.94927
-9.98725
-10.0316
-10.0816
-10.1357
-10.1919
-10.2484
-10.3037
-10.3565
-10.4061
-10.4517
-10.4928
-10.5285
-10.5582
-10.5814
-10.5977
-10.6068
-10.6088
-10.6037
-10.5913
-10.5718
-10.545
-10.5108
-10.4691
-10.4198
-10.3626
-10.2974
-10.224
-10.1424
-10.0521
-9.95304
-9.84479
-9.72701
-9.59937
-9.46163
-9.31368
-9.15561
-8.98771
-8.81046
-8.62449
-8.43053
-8.22935
-8.02171
-7.80839
-7.59013
-7.36769
-7.14175
-6.91294
-6.68178
-6.4486
-6.21354
-5.97656
-5.73743
-5.49586
-5.25155
-5.00429
-4.75408
-4.50113
-4.24588
-3.98899
-3.73122
-3.47343
-3.21646
-2.96108
-2.70803
-2.45827
-2.21327
-1.97516
-1.74677
-1.53128
-1.33182
-1.15007
-0.987067
-0.839911
-0.709521
-0.585027
-0.4799
-0.35513
-0.284272
-0.103868
-0.145051
-9.36957
-9.39288
-9.42961
-9.45829
-9.47765
-9.49852
-9.51922
-9.5369
-9.5526
-9.5671
-9.58015
-9.59178
-9.60247
-9.61305
-9.6247
-9.63882
-9.65662
-9.67847
-9.70365
-9.73397
-9.77104
-9.81518
-9.86565
-9.921
-9.97933
-10.0387
-10.0975
-10.1544
-10.2084
-10.2585
-10.3041
-10.3443
-10.3783
-10.4056
-10.4259
-10.4388
-10.4444
-10.4425
-10.4332
-10.4165
-10.3924
-10.3606
-10.3212
-10.274
-10.2188
-10.1556
-10.0843
-10.0045
-9.91622
-9.81907
-9.71279
-9.59705
-9.47155
-9.33609
-9.19059
-9.03514
-8.87005
-8.69581
-8.51303
-8.32242
-8.12473
-7.92073
-7.71116
-7.49676
-7.27825
-7.05631
-6.83153
-6.60439
-6.3752
-6.14409
-5.911
-5.67571
-5.43794
-5.19739
-4.95388
-4.70741
-4.45816
-4.20657
-3.95324
-3.69888
-3.44431
-3.19028
-2.93755
-2.68683
-2.43906
-2.19571
-1.9589
-1.73148
-1.51659
-1.31737
-1.1355
-0.97206
-0.824257
-0.693047
-0.567862
-0.461944
-0.337573
-0.266165
-0.0913384
-0.130242
-9.37384
-9.39617
-9.42428
-9.44835
-9.46558
-9.48272
-9.50006
-9.51516
-9.52799
-9.53894
-9.54769
-9.55414
-9.55868
-9.56215
-9.56569
-9.57072
-9.57858
-9.59011
-9.60561
-9.62641
-9.65386
-9.68837
-9.72948
-9.77608
-9.82661
-9.87943
-9.93297
-9.98591
-10.0371
-10.0856
-10.1304
-10.1705
-10.2052
-10.2338
-10.2557
-10.2707
-10.2784
-10.2788
-10.2719
-10.2576
-10.2357
-10.2063
-10.1692
-10.1242
-10.0713
-10.0103
-9.94116
-9.86363
-9.77753
-9.68264
-9.57866
-9.46532
-9.34234
-9.20954
-9.06687
-8.91445
-8.75257
-8.58171
-8.40248
-8.21555
-8.02167
-7.82157
-7.61599
-7.40565
-7.19125
-6.97343
-6.75277
-6.52971
-6.30456
-6.07741
-5.84822
-5.61677
-5.3828
-5.14602
-4.90627
-4.66353
-4.41799
-4.17003
-3.92023
-3.66925
-3.41784
-3.1667
-2.91654
-2.66809
-2.42227
-2.18054
-1.94503
-1.71853
-1.50419
-1.30513
-1.12306
-0.959096
-0.810551
-0.678374
-0.552405
-0.445483
-0.321594
-0.249236
-0.080651
-0.116147
-9.37513
-9.39596
-9.41989
-9.44266
-9.46121
-9.47855
-9.49534
-9.50991
-9.52183
-9.53141
-9.53859
-9.54339
-9.5462
-9.54777
-9.54907
-9.55125
-9.55546
-9.56255
-9.57322
-9.58832
-9.60892
-9.63552
-9.66784
-9.70511
-9.74616
-9.78966
-9.83435
-9.87907
-9.92281
-9.96463
-10.0036
-10.0389
-10.0697
-10.0952
-10.1149
-10.1283
-10.1351
-10.1352
-10.1283
-10.1144
-10.0932
-10.0646
-10.0286
-9.98485
-9.93333
-9.87386
-9.80631
-9.73049
-9.64621
-9.55323
-9.4513
-9.34015
-9.21953
-9.08928
-8.94937
-8.79992
-8.64123
-8.47373
-8.29802
-8.11476
-7.92465
-7.72841
-7.52676
-7.32041
-7.11002
-6.89621
-6.67954
-6.46043
-6.23916
-6.01582
-5.79036
-5.5626
-5.33227
-5.09911
-4.86297
-4.62383
-4.38186
-4.13741
-3.89101
-3.64328
-3.39489
-3.14651
-2.89879
-2.65244
-2.4084
-2.16812
-1.93369
-1.70791
-1.49388
-1.29467
-1.11206
-0.9472
-0.797598
-0.66418
-0.537285
-0.429172
-0.305898
-0.232324
-0.0707394
-0.101821
-9.37506
-9.39506
-9.41666
-9.43761
-9.45553
-9.47167
-9.48689
-9.50032
-9.51153
-9.5207
-9.52787
-9.53303
-9.53649
-9.53881
-9.54078
-9.54334
-9.54742
-9.55384
-9.56328
-9.57641
-9.59409
-9.61671
-9.64408
-9.67557
-9.71023
-9.74695
-9.78466
-9.82235
-9.85912
-9.89415
-9.92664
-9.9558
-9.98091
-10.0013
-10.0165
-10.026
-10.0295
-10.0267
-10.0175
-10.0017
-9.97906
-9.94943
-9.91264
-9.86851
-9.81687
-9.75755
-9.69037
-9.61516
-9.5317
-9.43975
-9.33906
-9.22936
-9.11044
-8.98215
-8.84446
-8.69749
-8.5415
-8.37694
-8.20434
-8.02434
-7.83762
-7.64487
-7.44679
-7.24405
-7.03731
-6.82715
-6.61411
-6.39859
-6.18084
-5.96096
-5.73891
-5.51451
-5.28752
-5.0577
-4.82489
-4.58909
-4.35044
-4.10927
-3.86605
-3.62135
-3.37579
-3.12999
-2.88456
-2.6402
-2.39783
-2.15888
-1.92544
-1.70028
-1.48646
-1.28703
-1.10376
-0.937826
-0.786962
-0.652066
-0.524075
-0.414526
-0.291836
-0.216662
-0.0623556
-0.0879574
-9.37434
-9.39329
-9.41305
-9.43229
-9.44961
-9.46538
-9.48017
-9.49348
-9.50486
-9.51432
-9.52189
-9.52761
-9.53174
-9.53479
-9.53746
-9.54053
-9.54485
-9.55115
-9.56006
-9.57224
-9.58828
-9.60852
-9.63279
-9.66057
-9.69105
-9.72328
-9.75629
-9.78916
-9.82105
-9.85118
-9.87879
-9.90319
-9.92368
-9.93969
-9.95071
-9.95635
-9.95628
-9.95028
-9.93812
-9.91963
-9.89463
-9.86293
-9.82436
-9.77873
-9.72587
-9.6656
-9.59774
-9.52209
-9.43843
-9.34654
-9.24617
-9.13706
-9.01901
-8.89189
-8.75567
-8.61046
-8.45651
-8.29423
-8.12413
-7.9468
-7.7629
-7.57309
-7.37803
-7.17838
-6.97477
-6.76776
-6.55786
-6.34543
-6.13074
-5.91388
-5.69481
-5.47335
-5.24931
-5.02244
-4.79262
-4.55982
-4.32418
-4.08599
-3.84568
-3.60375
-3.36079
-3.11736
-2.87404
-2.6315
-2.39065
-2.1529
-1.92029
-1.69557
-1.48177
-1.28189
-1.09775
-0.930543
-0.778227
-0.641664
-0.51247
-0.401341
-0.279292
-0.202332
-0.0554512
-0.0751648
-9.37175
-9.38987
-9.40839
-9.42644
-9.44316
-9.45849
-9.47268
-9.48547
-9.49655
-9.50589
-9.51357
-9.51969
-9.52448
-9.5284
-9.53201
-9.53599
-9.54104
-9.5478
-9.55684
-9.56873
-9.58392
-9.60267
-9.62485
-9.65002
-9.67748
-9.70642
-9.73597
-9.76529
-9.79359
-9.82012
-9.84418
-9.86509
-9.88221
-9.89498
-9.90292
-9.90563
-9.90281
-9.89421
-9.87961
-9.85883
-9.83169
-9.79801
-9.75762
-9.71035
-9.65603
-9.59448
-9.52553
-9.44898
-9.36463
-9.27227
-9.17164
-9.06254
-8.94478
-8.81823
-8.68287
-8.53882
-8.38631
-8.22572
-8.05753
-7.88231
-7.70066
-7.51323
-7.32065
-7.12355
-6.92254
-6.71816
-6.51088
-6.30106
-6.08895
-5.87463
-5.65808
-5.43914
-5.21762
-4.99333
-4.76612
-4.53597
-4.303
-4.06747
-3.82977
-3.59037
-3.34977
-3.10851
-2.86714
-2.62631
-2.3869
-2.15028
-1.91846
-1.69411
-1.48023
-1.2798
-1.09465
-0.926005
-0.772073
-0.633651
-0.503097
-0.390179
-0.268671
-0.189641
-0.0500016
-0.0634256
-9.36956
-9.3868
-9.4042
-9.4212
-9.43712
-9.45189
-9.46557
-9.47804
-9.48907
-9.4986
-9.50668
-9.51341
-9.51899
-9.52379
-9.5283
-9.5331
-9.53878
-9.54591
-9.55501
-9.56656
-9.58093
-9.59834
-9.61868
-9.64157
-9.6664
-9.69249
-9.71905
-9.74532
-9.77056
-9.79407
-9.81517
-9.83321
-9.84759
-9.85776
-9.86327
-9.86372
-9.85878
-9.84819
-9.83174
-9.80922
-9.78046
-9.74526
-9.70347
-9.6549
-9.59939
-9.53678
-9.46688
-9.38952
-9.3045
-9.21162
-9.11066
-9.00143
-8.88377
-8.75756
-8.62282
-8.47963
-8.32824
-8.16901
-8.00237
-7.82888
-7.6491
-7.46366
-7.27317
-7.07823
-6.87941
-6.67724
-6.47217
-6.26455
-6.05461
-5.84244
-5.62802
-5.41123
-5.19188
-4.96981
-4.74487
-4.51705
-4.28646
-4.05331
-3.81797
-3.58084
-3.34241
-3.10316
-2.86362
-2.62439
-2.38635
-2.15082
-1.91974
-1.69572
-1.4817
-1.2806
-1.09431
-0.924108
-0.768443
-0.62805
-0.496057
-0.381247
-0.260237
-0.179011
-0.0462997
-0.0533588
-9.36557
-9.38212
-9.39867
-9.41483
-9.43012
-9.4444
-9.45772
-9.46992
-9.48086
-9.49045
-9.49876
-9.50587
-9.512
-9.51746
-9.52269
-9.52817
-9.53441
-9.54193
-9.55115
-9.56249
-9.57627
-9.59262
-9.61146
-9.63244
-9.65507
-9.67872
-9.70271
-9.72635
-9.74894
-9.76982
-9.78836
-9.80393
-9.81596
-9.82394
-9.8274
-9.82595
-9.81927
-9.80708
-9.78915
-9.76527
-9.73524
-9.69889
-9.65603
-9.60649
-9.5501
-9.4867
-9.41611
-9.33816
-9.25266
-9.15943
-9.05826
-8.949
-8.83149
-8.70566
-8.5715
-8.42914
-8.27879
-8.12079
-7.95558
-7.78365
-7.60557
-7.42192
-7.2333
-7.04027
-6.8434
-6.64318
-6.44006
-6.23436
-6.02631
-5.81601
-5.60345
-5.38853
-5.17108
-4.95095
-4.72804
-4.5023
-4.27384
-4.04286
-3.80967
-3.57465
-3.33824
-3.10088
-2.86308
-2.62543
-2.38877
-2.15435
-1.92406
-1.70039
-1.48622
-1.28443
-1.09695
-0.925072
-0.767556
-0.62506
-0.491504
-0.374658
-0.253995
-0.170398
-0.0440957
-0.0447198
-9.36225
-9.37809
-9.39386
-9.40924
-9.42394
-9.43773
-9.45063
-9.46254
-9.47334
-9.48297
-9.49149
-9.49899
-9.50566
-9.51176
-9.51767
-9.52378
-9.53053
-9.53836
-9.54766
-9.55874
-9.57191
-9.58722
-9.60463
-9.62383
-9.64438
-9.66575
-9.68732
-9.70847
-9.72856
-9.74696
-9.76308
-9.77633
-9.78617
-9.79209
-9.79365
-9.79045
-9.78218
-9.76855
-9.7493
-9.72422
-9.69311
-9.65578
-9.61205
-9.56173
-9.50466
-9.44067
-9.36959
-9.29124
-9.20545
-9.11205
-9.01085
-8.9017
-8.78448
-8.65913
-8.52565
-8.38417
-8.2349
-8.07816
-7.91436
-7.74397
-7.56754
-7.38562
-7.19877
-7.00756
-6.81251
-6.61412
-6.41279
-6.20885
-6.00253
-5.79393
-5.58306
-5.36983
-5.15411
-4.93577
-4.7147
-4.49088
-4.26439
-4.03542
-3.80424
-3.57121
-3.33672
-3.1012
-2.86511
-2.62904
-2.39378
-2.16055
-1.93112
-1.70789
-1.49363
-1.29116
-1.10245
-0.928867
-0.76944
-0.624773
-0.489583
-0.370626
-0.250173
-0.164123
-0.0435805
-0.0378568
-9.35752
-9.37277
-9.38787
-9.40263
-9.41678
-9.43017
-9.44271
-9.45436
-9.46507
-9.47476
-9.48346
-9.49127
-9.49836
-9.50495
-9.51136
-9.51795
-9.52507
-9.5331
-9.54238
-9.55318
-9.56573
-9.5801
-9.59622
-9.61381
-9.63248
-9.65178
-9.67115
-9.69004
-9.70784
-9.72398
-9.73789
-9.74901
-9.75683
-9.76087
-9.76069
-9.7559
-9.74619
-9.73124
-9.71081
-9.68468
-9.65262
-9.61445
-9.56998
-9.51902
-9.4614
-9.39695
-9.32551
-9.2469
-9.16096
-9.06751
-8.9664
-8.85749
-8.74067
-8.6159
-8.48319
-8.34267
-8.19453
-8.03909
-7.87673
-7.70791
-7.53313
-7.35293
-7.16784
-6.97841
-6.78514
-6.58851
-6.3889
-6.18666
-5.98198
-5.77499
-5.56572
-5.35409
-5.14
-4.92333
-4.704
-4.482
-4.25739
-4.03034
-3.8011
-3.56999
-3.33737
-3.10366
-2.8693
-2.63485
-2.40108
-2.16915
-1.94073
-1.71807
-1.50382
-1.30073
-1.11081
-0.93548
-0.774082
-0.627169
-0.490245
-0.369086
-0.248643
-0.160048
-0.0444796
-0.0325872
-9.35333
-9.368
-9.38251
-9.39668
-9.41031
-9.42328
-9.43546
-9.44683
-9.45739
-9.46709
-9.47592
-9.48397
-9.4914
-9.4984
-9.50524
-9.51221
-9.51962
-9.5278
-9.53701
-9.54751
-9.55944
-9.57289
-9.58776
-9.60382
-9.62071
-9.63804
-9.65532
-9.67203
-9.68763
-9.70159
-9.71336
-9.72242
-9.72828
-9.73048
-9.7286
-9.72226
-9.71112
-9.6949
-9.67332
-9.64616
-9.6132
-9.57423
-9.52907
-9.47752
-9.41941
-9.35458
-9.28285
-9.20406
-9.11805
-9.02465
-8.92372
-8.81514
-8.69881
-8.57469
-8.44283
-8.30332
-8.15638
-8.00229
-7.84141
-7.67418
-7.50107
-7.3226
-7.13928
-6.95162
-6.76012
-6.56523
-6.36733
-6.16674
-5.96367
-5.75826
-5.55054
-5.34046
-5.12796
-4.91292
-4.69529
-4.47505
-4.25226
-4.02708
-3.79974
-3.57052
-3.33978
-3.10788
-2.87528
-2.64252
-2.41034
-2.17984
-1.95259
-1.73068
-1.51661
-1.31302
-1.12195
-0.944885
-0.781483
-0.632279
-0.493536
-0.370112
-0.249459
-0.15826
-0.0468025
-0.0289646
-9.3482
-9.36235
-9.37632
-9.38997
-9.40314
-9.41572
-9.42761
-9.43876
-9.44916
-9.45882
-9.46774
-9.47599
-9.48369
-9.491
-9.49816
-9.50541
-9.51301
-9.52123
-9.5303
-9.54042
-9.55172
-9.56425
-9.57793
-9.59253
-9.60775
-9.62323
-9.63855
-9.65323
-9.66677
-9.67867
-9.68842
-9.69554
-9.69956
-9.70003
-9.69654
-9.68872
-9.67625
-9.65882
-9.63617
-9.60805
-9.57425
-9.53455
-9.48876
-9.43669
-9.37816
-9.31301
-9.24106
-9.16215
-9.07613
-8.98285
-8.88217
-8.77398
-8.65819
-8.5348
-8.40382
-8.26538
-8.11966
-7.96694
-7.80757
-7.64195
-7.47053
-7.2938
-7.11226
-6.92639
-6.73666
-6.54351
-6.34731
-6.14836
-5.9469
-5.74306
-5.53688
-5.32835
-5.11742
-4.904
-4.68805
-4.46955
-4.24857
-4.02525
-3.7998
-3.57248
-3.34361
-3.11356
-2.88277
-2.65176
-2.42128
-2.19235
-1.96644
-1.74549
-1.53182
-1.3279
-1.13578
-0.957024
-0.791587
-0.640035
-0.49936
-0.373594
-0.252462
-0.158594
-0.0503236
-0.0267841
-9.3434
-9.35708
-9.37056
-9.38373
-9.39647
-9.40869
-9.42029
-9.43123
-9.44147
-9.45104
-9.45999
-9.46836
-9.47624
-9.48377
-9.49115
-9.49858
-9.50628
-9.51447
-9.52334
-9.53306
-9.54372
-9.55535
-9.56786
-9.58107
-9.5947
-9.60842
-9.62187
-9.6346
-9.64615
-9.65606
-9.66387
-9.66909
-9.6713
-9.67006
-9.66499
-9.65571
-9.64191
-9.62327
-9.59954
-9.57047
-9.53582
-9.49539
-9.44898
-9.39639
-9.33746
-9.272
-9.19985
-9.12086
-9.03487
-8.94174
-8.84134
-8.73357
-8.61838
-8.49573
-8.36568
-8.22832
-8.08385
-7.93252
-7.77467
-7.61067
-7.44095
-7.26598
-7.08621
-6.90213
-6.71418
-6.52278
-6.32828
-6.131
-5.93116
-5.72889
-5.52428
-5.31731
-5.10796
-4.89617
-4.6819
-4.46516
-4.24599
-4.02454
-3.80098
-3.57557
-3.34861
-3.12045
-2.89151
-2.66233
-2.43362
-2.20638
-1.98197
-1.76219
-1.54915
-1.34516
-1.15219
-0.971846
-0.804386
-0.650447
-0.507716
-0.379517
-0.2576
-0.160987
-0.0549443
-0.0259192
-9.33806
-9.35128
-9.36431
-9.37703
-9.38937
-9.40124
-9.41256
-9.42329
-9.4334
-9.44289
-9.45181
-9.46023
-9.46822
-9.4759
-9.48342
-9.49095
-9.49866
-9.50675
-9.51536
-9.52463
-9.53462
-9.54533
-9.5567
-9.56857
-9.58069
-9.59275
-9.60442
-9.6153
-9.62496
-9.63299
-9.63892
-9.64234
-9.64282
-9.63994
-9.63334
-9.62266
-9.60757
-9.58777
-9.563
-9.533
-9.49755
-9.45642
-9.40942
-9.35636
-9.29705
-9.23132
-9.15901
-9.07996
-8.99403
-8.90108
-8.801
-8.6937
-8.57911
-8.45724
-8.32812
-8.19186
-8.04864
-7.8987
-7.74236
-7.57998
-7.41196
-7.23874
-7.06076
-6.87847
-6.6923
-6.50265
-6.30987
-6.11427
-5.91606
-5.7154
-5.51237
-5.307
-5.09926
-4.88913
-4.67657
-4.4616
-4.24427
-4.02471
-3.80307
-3.5796
-3.35457
-3.12834
-2.90131
-2.67401
-2.44714
-2.22168
-1.99889
-1.78044
-1.56826
-1.36447
-1.17092
-0.9892
-0.819811
-0.663486
-0.518571
-0.387835
-0.264778
-0.165315
-0.0605201
-0.0261824
-9.33289
-9.34569
-9.3583
-9.37063
-9.3826
-9.39414
-9.40519
-9.41572
-9.42568
-9.43509
-9.44396
-9.45236
-9.46038
-9.46813
-9.47571
-9.48326
-9.4909
-9.49881
-9.5071
-9.51588
-9.52516
-9.53497
-9.54525
-9.55584
-9.56651
-9.57699
-9.58697
-9.59608
-9.60394
-9.61014
-9.61427
-9.61593
-9.61471
-9.61024
-9.60213
-9.59005
-9.57367
-9.55271
-9.52689
-9.49596
-9.45969
-9.41786
-9.37026
-9.31671
-9.25702
-9.19101
-9.11854
-9.03944
-8.95358
-8.86082
-8.76106
-8.65423
-8.54026
-8.41916
-8.29097
-8.15581
-8.01383
-7.86528
-7.71044
-7.54966
-7.38332
-7.21183
-7.03562
-6.85512
-6.67073
-6.48284
-6.2918
-6.0979
-5.90135
-5.70233
-5.50092
-5.29717
-5.09108
-4.88264
-4.67184
-4.45868
-4.24322
-4.02557
-3.80589
-3.58439
-3.36134
-3.13707
-2.91198
-2.6866
-2.46163
-2.23798
-2.01689
-1.79988
-1.58875
-1.3854
-1.19158
-1.00878
-0.837684
-0.67909
-0.531925
-0.39856
-0.273982
-0.171533
-0.0669894
-0.0274441
-9.32745
-9.33985
-9.35206
-9.364
-9.37561
-9.38684
-9.39762
-9.40793
-9.41773
-9.42702
-9.43583
-9.44419
-9.45218
-9.4599
-9.46745
-9.47494
-9.48247
-9.49014
-9.49806
-9.5063
-9.51489
-9.52383
-9.53305
-9.54241
-9.5517
-9.56067
-9.56903
-9.57645
-9.58257
-9.58703
-9.58943
-9.5894
-9.58655
-9.58052
-9.57095
-9.55751
-9.53988
-9.51778
-9.49094
-9.4591
-9.42202
-9.3795
-9.33132
-9.27729
-9.21723
-9.15097
-9.07835
-8.99921
-8.91343
-8.82088
-8.72146
-8.61509
-8.50175
-8.38142
-8.25416
-8.12008
-7.97932
-7.83213
-7.67877
-7.51956
-7.35488
-7.18511
-7.01066
-6.83192
-6.64931
-6.46318
-6.27388
-6.08168
-5.88682
-5.68946
-5.48972
-5.28764
-5.08325
-4.87654
-4.66753
-4.45622
-4.24268
-4.02699
-3.8093
-3.58981
-3.36877
-3.14649
-2.92338
-2.69996
-2.47689
-2.25508
-2.0357
-1.82019
-1.61019
-1.40747
-1.21363
-1.03009
-0.857588
-0.696975
-0.547628
-0.411636
-0.285194
-0.179612
-0.0743257
-0.0296046
-9.32208
-9.33411
-9.34595
-9.35754
-9.36882
-9.37974
-9.39027
-9.40035
-9.40998
-9.41915
-9.42786
-9.43616
-9.44407
-9.4517
-9.45914
-9.46648
-9.4738
-9.48118
-9.48869
-9.49639
-9.5043
-9.5124
-9.52061
-9.52879
-9.53675
-9.54428
-9.5511
-9.5569
-9.56137
-9.56414
-9.56488
-9.56321
-9.55877