/*--------------------------------*- C++ -*----------------------------------*\
| =========                 |                                                 |
| \\      /  F ield         | OpenFOAM: The Open Source CFD Toolbox           |
|  \\    /   O peration     | Version:  4.1                                   |
|   \\  /    A nd           | Web:      www.OpenFOAM.org                      |
|    \\/     M anipulation  |                                                 |
\*---------------------------------------------------------------------------*/
FoamFile
{
    version     2.0;
    format      ascii;
    class       surfaceScalarField;
    location    "600";
    object      phi;
}
// * * * * * * * * * * * * * * * * * * * * * * * * * * * * * * * * * * * * * //

dimensions      [0 3 -1 0 0 0 0];

internalField   nonuniform List<scalar> 
13452
(
5.95313e-05
7.37184e-07
5.86592e-05
8.72042e-07
5.78162e-05
8.43002e-07
5.69812e-05
8.35064e-07
5.61552e-05
8.26009e-07
5.53511e-05
8.04093e-07
5.45762e-05
7.74894e-07
5.3833e-05
7.43144e-07
5.31228e-05
7.10259e-07
5.2446e-05
6.76819e-07
5.18025e-05
6.43479e-07
5.11917e-05
6.10812e-07
5.06125e-05
5.79181e-07
5.00637e-05
5.48772e-07
4.9544e-05
5.19677e-07
4.90521e-05
4.91929e-07
4.85866e-05
4.65518e-07
4.81462e-05
4.40411e-07
4.77296e-05
4.16557e-07
4.73357e-05
3.93896e-07
4.69634e-05
3.72366e-07
4.66115e-05
3.51904e-07
4.6279e-05
3.32447e-07
4.59651e-05
3.13934e-07
4.56688e-05
2.96309e-07
4.53892e-05
2.79517e-07
4.51257e-05
2.63495e-07
4.48775e-05
2.48245e-07
4.4644e-05
2.33519e-07
4.44239e-05
2.20039e-07
4.42188e-05
2.05156e-07
4.40235e-05
1.9532e-07
1.67489e-07
4.3856e-05
6.23701e-05
3.57386e-07
6.26549e-05
5.87242e-07
6.28762e-05
6.21701e-07
6.30527e-05
6.58556e-07
6.31874e-05
6.9137e-07
6.32837e-05
7.0781e-07
6.33451e-05
7.13468e-07
6.33748e-05
7.13426e-07
6.33761e-05
7.08946e-07
6.33525e-05
7.00437e-07
6.33074e-05
6.8862e-07
6.32439e-05
6.74291e-07
6.3165e-05
6.58088e-07
6.30733e-05
6.40495e-07
6.2971e-05
6.21906e-07
6.28603e-05
6.02646e-07
6.27428e-05
5.82979e-07
6.26201e-05
5.6311e-07
6.24935e-05
5.43204e-07
6.2364e-05
5.23389e-07
6.22326e-05
5.03764e-07
6.21001e-05
4.84407e-07
6.19672e-05
4.65373e-07
6.18344e-05
4.46706e-07
6.17023e-05
4.28432e-07
6.15712e-05
4.10573e-07
6.14416e-05
3.9313e-07
6.13137e-05
3.76139e-07
6.11877e-05
3.59481e-07
6.10643e-05
3.43486e-07
6.09424e-05
3.27087e-07
6.08251e-05
3.12541e-07
2.96244e-07
6.06964e-05
6.38365e-05
2.82298e-07
6.38978e-05
5.25917e-07
6.39331e-05
5.86375e-07
6.39614e-05
6.30256e-07
6.39849e-05
6.67886e-07
6.40044e-05
6.88375e-07
6.40213e-05
6.96492e-07
6.40367e-05
6.98103e-07
6.40504e-05
6.95159e-07
6.40626e-05
6.88283e-07
6.4073e-05
6.7825e-07
6.40814e-05
6.65871e-07
6.40877e-05
6.51768e-07
6.40918e-05
6.3639e-07
6.40936e-05
6.2009e-07
6.40931e-05
6.03155e-07
6.40903e-05
5.85812e-07
6.40852e-05
5.68239e-07
6.40778e-05
5.50574e-07
6.40683e-05
5.32923e-07
6.40567e-05
5.15368e-07
6.40431e-05
4.97973e-07
6.40277e-05
4.80783e-07
6.40105e-05
4.63833e-07
6.39918e-05
4.47145e-07
6.39717e-05
4.30736e-07
6.39502e-05
4.14604e-07
6.39276e-05
3.98769e-07
6.39039e-05
3.83174e-07
6.38794e-05
3.67915e-07
6.38538e-05
3.52751e-07
6.38284e-05
3.37955e-07
3.23572e-07
6.3801e-05
6.5644e-05
2.21338e-07
6.57108e-05
4.59178e-07
6.57547e-05
5.42398e-07
6.57895e-05
5.95534e-07
6.5819e-05
6.38332e-07
6.58438e-05
6.63554e-07
6.58651e-05
6.75274e-07
6.58837e-05
6.7949e-07
6.59002e-05
6.78609e-07
6.5915e-05
6.73465e-07
6.59284e-05
6.64903e-07
6.59405e-05
6.53786e-07
6.59515e-05
6.40781e-07
6.59615e-05
6.26372e-07
6.59706e-05
6.10938e-07
6.5979e-05
5.94786e-07
6.59867e-05
5.78159e-07
6.59936e-05
5.61246e-07
6.6e-05
5.44191e-07
6.60058e-05
5.27108e-07
6.60111e-05
5.10081e-07
6.60159e-05
4.93174e-07
6.60203e-05
4.76434e-07
6.60242e-05
4.59895e-07
6.60278e-05
4.43577e-07
6.6031e-05
4.27493e-07
6.6034e-05
4.11644e-07
6.60367e-05
3.96035e-07
6.60393e-05
3.80635e-07
6.60417e-05
3.65479e-07
6.6044e-05
3.50472e-07
6.60462e-05
3.35714e-07
3.21576e-07
6.60482e-05
6.75014e-05
1.7668e-07
6.75606e-05
4.00016e-07
6.7606e-05
4.9702e-07
6.76451e-05
5.56369e-07
6.76814e-05
6.02068e-07
6.77144e-05
6.30613e-07
6.77442e-05
6.45388e-07
6.77717e-05
6.51988e-07
6.77973e-05
6.5303e-07
6.78212e-05
6.49539e-07
6.78437e-05
6.42437e-07
6.78649e-05
6.32621e-07
6.78849e-05
6.20785e-07
6.79038e-05
6.07435e-07
6.79218e-05
5.92965e-07
6.79389e-05
5.77692e-07
6.79552e-05
5.61868e-07
6.79707e-05
5.45686e-07
6.79856e-05
5.29298e-07
6.79999e-05
5.12821e-07
6.80136e-05
4.96342e-07
6.80269e-05
4.79928e-07
6.80397e-05
4.63629e-07
6.80521e-05
4.47478e-07
6.80642e-05
4.31498e-07
6.8076e-05
4.15701e-07
6.80875e-05
4.0009e-07
6.80989e-05
3.84665e-07
6.81101e-05
3.69406e-07
6.81213e-05
3.54317e-07
6.81324e-05
3.39366e-07
6.81436e-05
3.24562e-07
3.10074e-07
6.81551e-05
6.94169e-05
1.43852e-07
6.94686e-05
3.48283e-07
6.95133e-05
4.52348e-07
6.95534e-05
5.16252e-07
6.95913e-05
5.64176e-07
6.96264e-05
5.95478e-07
6.96588e-05
6.12959e-07
6.96891e-05
6.21711e-07
6.97176e-05
6.24498e-07
6.97446e-05
6.22533e-07
6.97703e-05
6.16805e-07
6.97947e-05
6.0823e-07
6.98179e-05
5.97516e-07
6.98402e-05
5.85184e-07
6.98615e-05
5.71639e-07
6.9882e-05
5.57207e-07
6.99017e-05
5.42145e-07
6.99208e-05
5.26654e-07
6.99392e-05
5.10891e-07
6.9957e-05
4.94977e-07
6.99743e-05
4.79005e-07
6.99912e-05
4.63045e-07
7.00077e-05
4.47148e-07
7.00238e-05
4.31352e-07
7.00397e-05
4.1568e-07
7.00552e-05
4.00146e-07
7.00705e-05
3.84753e-07
7.00857e-05
3.69497e-07
7.01008e-05
3.54366e-07
7.01157e-05
3.39345e-07
7.01307e-05
3.24412e-07
7.01457e-05
3.09515e-07
2.94726e-07
7.01611e-05
7.13908e-05
1.19435e-07
7.14348e-05
3.04219e-07
7.14764e-05
4.10745e-07
7.1515e-05
4.77676e-07
7.15522e-05
5.26952e-07
7.15875e-05
5.60173e-07
7.16207e-05
5.79802e-07
7.1652e-05
5.90381e-07
7.16818e-05
5.94708e-07
7.17102e-05
5.94121e-07
7.17374e-05
5.89648e-07
7.17634e-05
5.8221e-07
7.17884e-05
5.72526e-07
7.18124e-05
5.6113e-07
7.18356e-05
5.48439e-07
7.1858e-05
5.34786e-07
7.18798e-05
5.20435e-07
7.19008e-05
5.05593e-07
7.19213e-05
4.90421e-07
7.19412e-05
4.75044e-07
7.19607e-05
4.59559e-07
7.19797e-05
4.44039e-07
7.19983e-05
4.28538e-07
7.20165e-05
4.13094e-07
7.20345e-05
3.97733e-07
7.20522e-05
3.82468e-07
7.20696e-05
3.67303e-07
7.20869e-05
3.52236e-07
7.2104e-05
3.37251e-07
7.2121e-05
3.22329e-07
7.2138e-05
3.07441e-07
7.2155e-05
2.92516e-07
2.77566e-07
7.21721e-05
7.34237e-05
1.00971e-07
7.34611e-05
2.66828e-07
7.34997e-05
3.72154e-07
7.3537e-05
4.40429e-07
7.35737e-05
4.90233e-07
7.36092e-05
5.24699e-07
7.36429e-05
5.46059e-07
7.3675e-05
5.5824e-07
7.37058e-05
5.63968e-07
7.37352e-05
5.64664e-07
7.37635e-05
5.6138e-07
7.37907e-05
5.55037e-07
7.38168e-05
5.46359e-07
7.38421e-05
5.3589e-07
7.38665e-05
5.24052e-07
7.38901e-05
5.11184e-07
7.3913e-05
4.97553e-07
7.39352e-05
4.83371e-07
7.39568e-05
4.68801e-07
7.39779e-05
4.53973e-07
7.39984e-05
4.38987e-07
7.40186e-05
4.23919e-07
7.40383e-05
4.08824e-07
7.40576e-05
3.93744e-07
7.40767e-05
3.78705e-07
7.40954e-05
3.63724e-07
7.41139e-05
3.48805e-07
7.41322e-05
3.33946e-07
7.41503e-05
3.19133e-07
7.41683e-05
3.04343e-07
7.41862e-05
2.89547e-07
7.4204e-05
2.74682e-07
2.5975e-07
7.42218e-05
7.55168e-05
8.66646e-08
7.55485e-05
2.35061e-07
7.5584e-05
3.36744e-07
7.56193e-05
4.05035e-07
7.56548e-05
4.54783e-07
7.56896e-05
4.89927e-07
7.57231e-05
5.12563e-07
7.57553e-05
5.26041e-07
7.57863e-05
5.32953e-07
7.58162e-05
5.3477e-07
7.5845e-05
5.32554e-07
7.58728e-05
5.27214e-07
7.58997e-05
5.19469e-07
7.59257e-05
5.09867e-07
7.5951e-05
4.98834e-07
7.59754e-05
4.86711e-07
7.59992e-05
4.73768e-07
7.60224e-05
4.60219e-07
7.60449e-05
4.46232e-07
7.6067e-05
4.31939e-07
7.60885e-05
4.17443e-07
7.61096e-05
4.02823e-07
7.61303e-05
3.88136e-07
7.61506e-05
3.73426e-07
7.61706e-05
3.58723e-07
7.61903e-05
3.44043e-07
7.62097e-05
3.29393e-07
7.62289e-05
3.14771e-07
7.62478e-05
3.00167e-07
7.62666e-05
2.85558e-07
7.62852e-05
2.70915e-07
7.63038e-05
2.56171e-07
2.41316e-07
7.63222e-05
7.7671e-05
7.5292e-08
7.76981e-05
2.07951e-07
7.77304e-05
3.04415e-07
7.77639e-05
3.7153e-07
7.77981e-05
4.20618e-07
7.78321e-05
4.55859e-07
7.78654e-05
4.79287e-07
7.78977e-05
4.93745e-07
7.7929e-05
5.01631e-07
7.79594e-05
5.04421e-07
7.79888e-05
5.03165e-07
7.80172e-05
4.9875e-07
7.80448e-05
4.91884e-07
7.80716e-05
4.83113e-07
7.80975e-05
4.72861e-07
7.81228e-05
4.61471e-07
7.81473e-05
4.49212e-07
7.81712e-05
4.36301e-07
7.81946e-05
4.22907e-07
7.82173e-05
4.09164e-07
7.82396e-05
3.95176e-07
7.82614e-05
3.81024e-07
7.82828e-05
3.6677e-07
7.83037e-05
3.52457e-07
7.83244e-05
3.38118e-07
7.83446e-05
3.23771e-07
7.83646e-05
3.09426e-07
7.83843e-05
2.95084e-07
7.84037e-05
2.80736e-07
7.84229e-05
2.66365e-07
7.84419e-05
2.5195e-07
7.84606e-05
2.37448e-07
2.22873e-07
7.8479e-05
7.98876e-05
6.60155e-08
7.99109e-05
1.84627e-07
7.99404e-05
2.74955e-07
7.9972e-05
3.39934e-07
8.00047e-05
3.87859e-07
8.00378e-05
4.22744e-07
8.00706e-05
4.46562e-07
8.01026e-05
4.61716e-07
8.01339e-05
4.70375e-07
8.01643e-05
4.73981e-07
8.01939e-05
4.73565e-07
8.02227e-05
4.69982e-07
8.02506e-05
4.63923e-07
8.02778e-05
4.55926e-07
8.03043e-05
4.46413e-07
8.033e-05
4.35722e-07
8.03551e-05
4.24123e-07
8.03796e-05
4.11832e-07
8.04035e-05
3.99018e-07
8.04268e-05
3.85817e-07
8.04496e-05
3.72335e-07
8.0472e-05
3.58655e-07
8.04939e-05
3.44839e-07
8.05155e-05
3.30934e-07
8.05366e-05
3.16975e-07
8.05574e-05
3.02982e-07
8.05779e-05
2.88969e-07
8.0598e-05
2.7494e-07
8.06178e-05
2.6089e-07
8.06374e-05
2.46808e-07
8.06567e-05
2.32677e-07
8.06757e-05
2.18457e-07
2.04157e-07
8.06944e-05
8.21682e-05
5.82619e-08
8.21885e-05
1.6436e-07
8.22153e-05
2.48106e-07
8.2245e-05
3.10201e-07
8.22764e-05
3.56513e-07
8.23085e-05
3.90632e-07
8.23406e-05
4.14441e-07
8.23724e-05
4.29986e-07
8.24035e-05
4.39194e-07
8.24341e-05
4.43445e-07
8.24639e-05
4.43734e-07
8.2493e-05
4.40881e-07
8.25214e-05
4.35553e-07
8.2549e-05
4.28273e-07
8.2576e-05
4.19458e-07
8.26023e-05
4.09438e-07
8.26279e-05
3.98481e-07
8.26529e-05
3.868e-07
8.26774e-05
3.74565e-07
8.27013e-05
3.61911e-07
8.27247e-05
3.48946e-07
8.27476e-05
3.35753e-07
8.277e-05
3.22396e-07
8.2792e-05
3.08925e-07
8.28136e-05
2.95376e-07
8.28349e-05
2.81772e-07
8.28557e-05
2.68131e-07
8.28762e-05
2.5446e-07
8.28963e-05
2.40759e-07
8.29161e-05
2.27025e-07
8.29355e-05
2.1325e-07
8.29546e-05
1.99419e-07
1.85567e-07
8.29731e-05
8.45144e-05
5.16372e-08
8.45322e-05
1.46557e-07
8.45567e-05
2.23584e-07
8.45847e-05
2.82242e-07
8.46146e-05
3.26548e-07
8.46457e-05
3.59553e-07
8.46772e-05
3.83013e-07
8.47085e-05
3.98676e-07
8.47394e-05
4.08234e-07
8.47699e-05
4.12973e-07
8.47998e-05
4.13847e-07
8.4829e-05
4.1163e-07
8.48576e-05
4.06959e-07
8.48856e-05
4.00342e-07
8.49128e-05
3.92181e-07
8.49395e-05
3.82801e-07
8.49655e-05
3.72464e-07
8.49909e-05
3.61379e-07
8.50158e-05
3.49715e-07
8.50401e-05
3.37607e-07
8.50638e-05
3.25162e-07
8.50871e-05
3.12464e-07
8.511e-05
2.99579e-07
8.51323e-05
2.86557e-07
8.51543e-05
2.73438e-07
8.51758e-05
2.6025e-07
8.51969e-05
2.4701e-07
8.52176e-05
2.33732e-07
8.5238e-05
2.20421e-07
8.52579e-05
2.0708e-07
8.52775e-05
1.93708e-07
8.52966e-05
1.80291e-07
1.66858e-07
8.53153e-05
8.69279e-05
4.58661e-08
8.69438e-05
1.30741e-07
8.69662e-05
2.01108e-07
8.69925e-05
2.55942e-07
8.70212e-05
2.97911e-07
8.70512e-05
3.29504e-07
8.70819e-05
3.52309e-07
8.71128e-05
3.67829e-07
8.71435e-05
3.77531e-07
8.71738e-05
3.82597e-07
8.72038e-05
3.83922e-07
8.72332e-05
3.82235e-07
8.7262e-05
3.7814e-07
8.72902e-05
3.7212e-07
8.73178e-05
3.64565e-07
8.73448e-05
3.55789e-07
8.73712e-05
3.46046e-07
8.73971e-05
3.35542e-07
8.74224e-05
3.24442e-07
8.74471e-05
3.12878e-07
8.74713e-05
3.00958e-07
8.7495e-05
2.88765e-07
8.75182e-05
2.76368e-07
8.75409e-05
2.63818e-07
8.75632e-05
2.51156e-07
8.75851e-05
2.38413e-07
8.76065e-05
2.25611e-07
8.76274e-05
2.12766e-07
8.7648e-05
1.99891e-07
8.7668e-05
1.86993e-07
8.76877e-05
1.74081e-07
8.77068e-05
1.61157e-07
1.48269e-07
8.77254e-05
8.94106e-05
4.07529e-08
8.94249e-05
1.16532e-07
8.94456e-05
1.8041e-07
8.94703e-05
2.3117e-07
8.94977e-05
2.70528e-07
8.95268e-05
3.00451e-07
8.95567e-05
3.22337e-07
8.95871e-05
3.37475e-07
8.96175e-05
3.47132e-07
8.96477e-05
3.52371e-07
8.96776e-05
3.54026e-07
8.97071e-05
3.52774e-07
8.9736e-05
3.49178e-07
8.97645e-05
3.43699e-07
8.97923e-05
3.36708e-07
8.98196e-05
3.28505e-07
8.98463e-05
3.19335e-07
8.98725e-05
3.09398e-07
8.9898e-05
2.98856e-07
8.99231e-05
2.87837e-07
8.99476e-05
2.76448e-07
8.99716e-05
2.64773e-07
8.99951e-05
2.52879e-07
9.00181e-05
2.40821e-07
9.00406e-05
2.2864e-07
9.00626e-05
2.1637e-07
9.00842e-05
2.04036e-07
9.01053e-05
1.9166e-07
9.01259e-05
1.79257e-07
9.01461e-05
1.66841e-07
9.01657e-05
1.54425e-07
9.01849e-05
1.42012e-07
1.29646e-07
9.02035e-05
9.19645e-05
3.61553e-08
9.19774e-05
1.03628e-07
9.19965e-05
1.61243e-07
9.20199e-05
2.07783e-07
9.20461e-05
2.44314e-07
9.20742e-05
2.72348e-07
9.21035e-05
2.93084e-07
9.21333e-05
3.07624e-07
9.21634e-05
3.17055e-07
9.21935e-05
3.22321e-07
9.22233e-05
3.24182e-07
9.22528e-05
3.23265e-07
9.22819e-05
3.20091e-07
9.23105e-05
3.1509e-07
9.23386e-05
3.08613e-07
9.23662e-05
3.00947e-07
9.23932e-05
2.92325e-07
9.24196e-05
2.82939e-07
9.24455e-05
2.72945e-07
9.24709e-05
2.62469e-07
9.24957e-05
2.51615e-07
9.25201e-05
2.40466e-07
9.25438e-05
2.29091e-07
9.25671e-05
2.17542e-07
9.25899e-05
2.05866e-07
9.26122e-05
1.94096e-07
9.26339e-05
1.82262e-07
9.26552e-05
1.70388e-07
9.2676e-05
1.58494e-07
9.26962e-05
1.46598e-07
9.27159e-05
1.3472e-07
9.27351e-05
1.22872e-07
1.11107e-07
9.27536e-05
9.45913e-05
3.19671e-08
9.46032e-05
9.1787e-08
9.4621e-05
1.43384e-07
9.46432e-05
1.85635e-07
9.46683e-05
2.19172e-07
9.46955e-05
2.45134e-07
9.47241e-05
2.64521e-07
9.47535e-05
2.7827e-07
9.47832e-05
2.87307e-07
9.48131e-05
2.92459e-07
9.48428e-05
2.94413e-07
9.48724e-05
2.93736e-07
9.49016e-05
2.90909e-07
9.49303e-05
2.86329e-07
9.49586e-05
2.80324e-07
9.49864e-05
2.73163e-07
9.50136e-05
2.65067e-07
9.50404e-05
2.56219e-07
9.50665e-05
2.46769e-07
9.50922e-05
2.36837e-07
9.51173e-05
2.26526e-07
9.51418e-05
2.15916e-07
9.51658e-05
2.05075e-07
9.51893e-05
1.94058e-07
9.52123e-05
1.8291e-07
9.52347e-05
1.71668e-07
9.52566e-05
1.60363e-07
9.5278e-05
1.49023e-07
9.52988e-05
1.3767e-07
9.53191e-05
1.26327e-07
9.53388e-05
1.15014e-07
9.53579e-05
1.03747e-07
9.25717e-08
9.53764e-05
9.72934e-05
2.81068e-08
9.73044e-05
8.08134e-08
9.73211e-05
1.26635e-07
9.73422e-05
1.6458e-07
9.73663e-05
1.95e-07
9.73927e-05
2.18735e-07
9.74206e-05
2.36602e-07
9.74495e-05
2.4939e-07
9.7479e-05
2.57881e-07
9.75086e-05
2.62789e-07
9.75383e-05
2.64725e-07
9.75678e-05
2.64199e-07
9.75971e-05
2.61645e-07
9.7626e-05
2.57429e-07
9.76545e-05
2.5185e-07
9.76825e-05
2.45161e-07
9.771e-05
2.37569e-07
9.7737e-05
2.29245e-07
9.77634e-05
2.2033e-07
9.77893e-05
2.10942e-07
9.78146e-05
2.01178e-07
9.78394e-05
1.91117e-07
9.78637e-05
1.80825e-07
9.78874e-05
1.70357e-07
9.79105e-05
1.59758e-07
9.79331e-05
1.49068e-07
9.79552e-05
1.38319e-07
9.79767e-05
1.2754e-07
9.79976e-05
1.16757e-07
9.80179e-05
1.05994e-07
9.80377e-05
9.52774e-08
9.80568e-05
8.46244e-08
7.40856e-08
9.80753e-05
0.000100073
2.451e-08
0.000100083
7.05463e-08
0.000100099
1.10817e-07
0.000100119
1.44472e-07
0.000100142
1.71687e-07
0.000100168
1.93069e-07
0.000100195
2.09272e-07
0.000100224
2.20949e-07
0.000100253
2.28755e-07
0.000100282
2.333e-07
0.000100312
2.35116e-07
0.000100341
2.34656e-07
0.000100371
2.32308e-07
0.0001004
2.28401e-07
0.000100428
2.23209e-07
0.000100457
2.16962e-07
0.000100484
2.09852e-07
0.000100512
2.0204e-07
0.000100538
1.93657e-07
0.000100564
1.84815e-07
0.00010059
1.75605e-07
0.000100615
1.66104e-07
0.000100639
1.56377e-07
0.000100663
1.46478e-07
0.000100687
1.36451e-07
0.000100709
1.26338e-07
0.000100731
1.1617e-07
0.000100753
1.0598e-07
0.000100774
9.57943e-08
0.000100794
8.56386e-08
0.000100814
7.55392e-08
0.000100833
6.55145e-08
5.5611e-08
0.000100852
0.000102931
2.11242e-08
0.000102941
6.08503e-08
0.000102956
9.577e-08
0.000102975
1.2517e-07
0.000102998
1.49118e-07
0.000103023
1.68046e-07
0.00010305
1.82462e-07
0.000103078
1.929e-07
0.000103107
1.99898e-07
0.000103136
2.03972e-07
0.000103166
2.05574e-07
0.000103195
2.05102e-07
0.000103225
2.02896e-07
0.000103254
1.99247e-07
0.000103283
1.94402e-07
0.000103311
1.8857e-07
0.000103339
1.81924e-07
0.000103366
1.74611e-07
0.000103393
1.66755e-07
0.00010342
1.58459e-07
0.000103445
1.4981e-07
0.000103471
1.40881e-07
0.000103495
1.31733e-07
0.000103519
1.2242e-07
0.000103543
1.12986e-07
0.000103566
1.0347e-07
0.000103588
9.39073e-08
0.00010361
8.43287e-08
0.000103631
7.47627e-08
0.000103651
6.52357e-08
0.000103671
5.57748e-08
0.00010369
4.63999e-08
3.71569e-08
0.000103708
0.000105872
1.7905e-08
0.000105881
5.16082e-08
0.000105896
8.13465e-08
0.000105914
1.06534e-07
0.000105936
1.27173e-07
0.000105961
1.43563e-07
0.000105987
1.56091e-07
0.000106015
1.65178e-07
0.000106043
1.71264e-07
0.000106073
1.74769e-07
0.000106102
1.76076e-07
0.000106132
1.75522e-07
0.000106161
1.734e-07
0.00010619
1.69964e-07
0.000106219
1.65432e-07
0.000106248
1.59988e-07
0.000106276
1.53789e-07
0.000106304
1.46967e-07
0.000106331
1.39635e-07
0.000106357
1.31889e-07
0.000106383
1.23808e-07
0.000106409
1.15462e-07
0.000106434
1.06909e-07
0.000106458
9.82e-08
0.000106482
8.93781e-08
0.000106505
8.04822e-08
0.000106527
7.15466e-08
0.000106549
6.26022e-08
0.00010657
5.36778e-08
0.00010659
4.47999e-08
0.00010661
3.59951e-08
0.000106629
2.7283e-08
1.87066e-08
0.000106647
0.000108896
1.4813e-08
0.000108905
4.27152e-08
0.000108919
6.7409e-08
0.000108937
8.84228e-08
0.000108959
1.05724e-07
0.000108983
1.19511e-07
0.000109009
1.30065e-07
0.000109036
1.37711e-07
0.000109065
1.42793e-07
0.000109094
1.45647e-07
0.000109124
1.46586e-07
0.000109153
1.45888e-07
0.000109183
1.438e-07
0.000109212
1.40538e-07
0.000109241
1.36289e-07
0.00010927
1.31212e-07
0.000109298
1.25446e-07
0.000109326
1.19109e-07
0.000109354
1.12301e-07
0.00010938
1.05108e-07
0.000109407
9.76038e-08
0.000109432
8.98527e-08
0.000109457
8.19092e-08
0.000109482
7.38211e-08
0.000109505
6.56303e-08
0.000109528
5.73739e-08
0.000109551
4.90855e-08
0.000109573
4.07953e-08
0.000109594
3.25317e-08
0.000109614
2.43204e-08
0.000109634
1.61875e-08
0.000109653
8.15199e-09
2.54078e-10
0.000109672
0.000112007
1.18118e-08
0.000112016
3.40732e-08
0.00011203
5.38245e-08
0.000112047
7.0696e-08
0.000112069
8.4637e-08
0.000112092
9.57677e-08
0.000112118
1.0428e-07
0.000112145
1.1041e-07
0.000112174
1.14413e-07
0.000112203
1.16548e-07
0.000112232
1.17058e-07
0.000112262
1.16166e-07
0.000112292
1.14071e-07
0.000112321
1.1095e-07
0.000112351
1.06959e-07
0.00011238
1.02233e-07
0.000112408
9.68902e-08
0.000112436
9.10327e-08
0.000112464
8.47488e-08
0.000112491
7.81149e-08
0.000112517
7.11972e-08
0.000112543
6.40536e-08
0.000112568
5.67345e-08
0.000112593
4.92844e-08
0.000112617
4.17428e-08
0.00011264
3.41449e-08
0.000112662
2.65227e-08
0.000112684
1.89055e-08
0.000112706
1.13203e-08
0.000112726
3.79231e-09
0.000112746
-3.6537e-09
0.000112765
-1.09991e-08
-1.82057e-08
0.000112784
0.000115207
8.86497e-09
0.000115216
2.55872e-08
0.000115229
4.04619e-08
0.000115247
5.32087e-08
0.000115268
6.37694e-08
0.000115291
7.22018e-08
0.000115317
7.86187e-08
0.000115344
8.31722e-08
0.000115372
8.60386e-08
0.000115402
8.74007e-08
0.000115431
8.74355e-08
0.000115461
8.63092e-08
0.000115491
8.41747e-08
0.000115521
8.11705e-08
0.00011555
7.74205e-08
0.000115579
7.30347e-08
0.000115608
6.81104e-08
0.000115637
6.27332e-08
0.000115664
5.69782e-08
0.000115692
5.09116e-08
0.000115718
4.45917e-08
0.000115744
3.80697e-08
0.000115769
3.13913e-08
0.000115794
2.4597e-08
0.000115818
1.77231e-08
0.000115842
1.08026e-08
0.000115864
3.86561e-09
0.000115886
-3.0605e-09
0.000115907
-9.95008e-09
0.000115928
-1.67797e-08
0.000115948
-2.35264e-08
0.000115967
-3.01741e-08
-3.66886e-08
0.000115986
0.000118499
5.93366e-09
0.000118507
1.71617e-08
0.00011852
2.71867e-08
0.000118538
3.58091e-08
0.000118559
4.29685e-08
0.000118582
4.86687e-08
0.000118608
5.2949e-08
0.000118635
5.58836e-08
0.000118664
5.75714e-08
0.000118693
5.81224e-08
0.000118723
5.76489e-08
0.000118753
5.62615e-08
0.000118783
5.40665e-08
0.000118813
5.11634e-08
0.000118843
4.76443e-08
0.000118872
4.35933e-08
0.000118901
3.90863e-08
0.00011893
3.41922e-08
0.000118958
2.89727e-08
0.000118985
2.34829e-08
0.000119012
1.77725e-08
0.000119038
1.18861e-08
0.000119064
5.86369e-09
0.000119088
-2.58458e-10
0.000119113
-6.44745e-09
0.000119136
-1.26732e-08
0.000119159
-1.89081e-08
0.000119181
-2.51266e-08
0.000119202
-3.13049e-08
0.000119223
-3.74211e-08
0.000119243
-4.34533e-08
0.000119262
-4.93847e-08
-5.51826e-08
0.000119281
0.000121884
2.98648e-09
0.000121893
8.70675e-09
0.000121906
1.3865e-08
0.000121923
1.83403e-08
0.000121944
2.20717e-08
0.000121968
2.5011e-08
0.000121994
2.71259e-08
0.000122021
2.8414e-08
0.00012205
2.88981e-08
0.00012208
2.86166e-08
0.00012211
2.76176e-08
0.00012214
2.59564e-08
0.00012217
2.36926e-08
0.000122201
2.08868e-08
0.000122231
1.75987e-08
0.00012226
1.38862e-08
0.00012229
9.80385e-09
0.000122318
5.40311e-09
0.000122347
7.31649e-10
0.000122374
-4.16645e-09
0.000122401
-9.25064e-09
0.000122428
-1.44836e-08
0.000122453
-1.98312e-08
0.000122478
-2.52619e-08
0.000122503
-3.07465e-08
0.000122526
-3.62584e-08
0.000122549
-4.17726e-08
0.000122571
-4.72661e-08
0.000122593
-5.27173e-08
0.000122613
-5.81067e-08
0.000122633
-6.34156e-08
0.000122653
-6.86317e-08
-7.37274e-08
0.000122671
0.000125366
8.57129e-12
0.000125375
1.36955e-10
0.000125389
3.57906e-10
0.000125406
6.3364e-10
0.000125427
9.00547e-10
0.000125451
1.05389e-09
0.000125477
9.85835e-10
0.000125505
6.15398e-10
0.000125534
-1.11622e-10
0.000125564
-1.22974e-09
0.000125595
-2.75581e-09
0.000125625
-4.6902e-09
0.000125656
-7.02023e-09
0.000125686
-9.72425e-09
0.000125717
-1.27747e-08
0.000125747
-1.61403e-08
0.000125776
-1.97877e-08
0.000125806
-2.36831e-08
0.000125834
-2.77929e-08
0.000125862
-3.20844e-08
0.000125889
-3.65264e-08
0.000125916
-4.10892e-08
0.000125942
-4.57444e-08
0.000125967
-5.04659e-08
0.000125991
-5.52285e-08
0.000126015
-6.00091e-08
0.000126038
-6.47857e-08
0.000126061
-6.95377e-08
0.000126082
-7.42459e-08
0.000126103
-7.88919e-08
0.000126123
-8.34574e-08
0.000126142
-8.79274e-08
-9.22743e-08
0.000126161
0.000128948
-3.04607e-09
0.000128957
-8.6726e-09
0.000128971
-1.35181e-08
0.000128989
-1.75243e-08
0.000129011
-2.07649e-08
0.000129035
-2.34152e-08
0.000129062
-2.56681e-08
0.00012909
-2.76884e-08
0.00012912
-2.96108e-08
0.00012915
-3.15457e-08
0.000129181
-3.35769e-08
0.000129212
-3.57616e-08
0.000129243
-3.81345e-08
0.000129274
-4.07132e-08
0.000129305
-4.35026e-08
0.000129335
-4.64978e-08
0.000129365
-4.96872e-08
0.000129394
-5.30541e-08
0.000129423
-5.65792e-08
0.000129451
-6.02412e-08
0.000129479
-6.40183e-08
0.000129505
-6.78883e-08
0.000129532
-7.18293e-08
0.000129557
-7.58201e-08
0.000129582
-7.984e-08
0.000129605
-8.38696e-08
0.000129629
-8.789e-08
0.000129651
-9.18838e-08
0.000129672
-9.58344e-08
0.000129693
-9.97271e-08
0.000129713
-1.03548e-07
0.000129733
-1.0729e-07
-1.10932e-07
0.000129751
0.000132632
-6.24278e-09
0.000132641
-1.78917e-08
0.000132656
-2.80034e-08
0.000132675
-3.6405e-08
0.000132697
-4.31975e-08
0.000132723
-4.86549e-08
0.00013275
-5.30736e-08
0.000132779
-5.67111e-08
0.000132809
-5.97901e-08
0.00013284
-6.25023e-08
0.000132872
-6.50011e-08
0.000132903
-6.74011e-08
0.000132935
-6.97841e-08
0.000132966
-7.22071e-08
0.000132997
-7.47068e-08
0.000133028
-7.73045e-08
0.000133059
-8.00096e-08
0.000133088
-8.28226e-08
0.000133118
-8.57382e-08
0.000133146
-8.87465e-08
0.000133174
-9.18349e-08
0.000133201
-9.49889e-08
0.000133227
-9.8193e-08
0.000133253
-1.01431e-07
0.000133278
-1.04687e-07
0.000133302
-1.07945e-07
0.000133325
-1.1119e-07
0.000133348
-1.14406e-07
0.000133369
-1.17579e-07
0.00013339
-1.20694e-07
0.000133411
-1.23738e-07
0.00013343
-1.26696e-07
-1.29545e-07
0.000133449
0.000136422
-9.66263e-09
0.000136432
-2.77431e-08
0.000136447
-4.34097e-08
0.000136467
-5.63524e-08
0.00013649
-6.67362e-08
0.000136517
-7.49808e-08
0.000136545
-8.15109e-08
0.000136575
-8.66894e-08
0.000136606
-9.08383e-08
0.000136638
-9.42407e-08
0.00013667
-9.71254e-08
0.000136702
-9.96662e-08
0.000136735
-1.01993e-07
0.000136767
-1.04201e-07
0.000136798
-1.06359e-07
0.000136829
-1.08514e-07
0.00013686
-1.10693e-07
0.00013689
-1.12916e-07
0.00013692
-1.15188e-07
0.000136948
-1.17511e-07
0.000136976
-1.19882e-07
0.000137004
-1.22294e-07
0.00013703
-1.24736e-07
0.000137056
-1.27197e-07
0.000137081
-1.29667e-07
0.000137105
-1.32134e-07
0.000137129
-1.34584e-07
0.000137151
-1.37006e-07
0.000137173
-1.3939e-07
0.000137194
-1.41725e-07
0.000137214
-1.44003e-07
0.000137234
-1.46224e-07
-1.4837e-07
0.000137253
0.00014032
-1.34174e-08
0.00014033
-3.85361e-08
0.000140347
-6.01565e-08
0.000140369
-7.78079e-08
0.000140394
-9.18015e-08
0.000140421
-1.02786e-07
0.000140451
-1.11349e-07
0.000140483
-1.17971e-07
0.000140515
-1.23085e-07
0.000140548
-1.27076e-07
0.000140581
-1.30252e-07
0.000140614
-1.32846e-07
0.000140647
-1.35037e-07
0.00014068
-1.36958e-07
0.000140712
-1.3871e-07
0.000140744
-1.40361e-07
0.000140775
-1.41962e-07
0.000140806
-1.43545e-07
0.000140836
-1.4513e-07
0.000140865
-1.46728e-07
0.000140893
-1.48344e-07
0.000140921
-1.49977e-07
0.000140948
-1.51624e-07
0.000140974
-1.53278e-07
0.000140999
-1.54933e-07
0.000141024
-1.5658e-07
0.000141047
-1.58208e-07
0.00014107
-1.5981e-07
0.000141092
-1.61375e-07
0.000141113
-1.62892e-07
0.000141134
-1.6435e-07
0.000141153
-1.65735e-07
-1.67032e-07
0.000141172
0.000144329
-1.76703e-08
0.000144341
-5.0722e-08
0.00014436
-7.88329e-08
0.000144383
-1.01355e-07
0.00014441
-1.18904e-07
0.00014444
-1.32483e-07
0.000144472
-1.42886e-07
0.000144504
-1.50737e-07
0.000144538
-1.56612e-07
0.000144572
-1.61011e-07
0.000144606
-1.64324e-07
0.00014464
-1.66842e-07
0.000144674
-1.68788e-07
0.000144707
-1.70331e-07
0.00014474
-1.71599e-07
0.000144772
-1.72683e-07
0.000144804
-1.73649e-07
0.000144835
-1.74543e-07
0.000144865
-1.75396e-07
0.000144895
-1.7623e-07
0.000144923
-1.77055e-07
0.000144951
-1.77877e-07
0.000144978
-1.787e-07
0.000145005
-1.7952e-07
0.00014503
-1.80335e-07
0.000145055
-1.8114e-07
0.000145078
-1.81928e-07
0.000145101
-1.82694e-07
0.000145123
-1.83432e-07
0.000145144
-1.84137e-07
0.000145165
-1.84807e-07
0.000145185
-1.85444e-07
-1.86039e-07
0.000145204
0.000148453
-2.26777e-08
0.000148467
-6.49826e-08
0.000148489
-1.00265e-07
0.000148515
-1.27787e-07
0.000148545
-1.48811e-07
0.000148577
-1.6485e-07
0.000148611
-1.76898e-07
0.000148646
-1.85732e-07
0.000148682
-1.92111e-07
0.000148718
-1.9668e-07
0.000148753
-1.99913e-07
0.000148788
-2.02161e-07
0.000148823
-2.03692e-07
0.000148858
-2.04711e-07
0.000148892
-2.0537e-07
0.000148925
-2.05777e-07
0.000148957
-2.06014e-07
0.000148989
-2.06138e-07
0.000149019
-2.06188e-07
0.000149049
-2.06193e-07
0.000149078
-2.0617e-07
0.000149107
-2.06131e-07
0.000149134
-2.06082e-07
0.000149161
-2.06024e-07
0.000149186
-2.05959e-07
0.000149211
-2.05883e-07
0.000149235
-2.05793e-07
0.000149258
-2.05684e-07
0.00014928
-2.05551e-07
0.000149301
-2.05387e-07
0.000149322
-2.05182e-07
0.000149341
-2.04923e-07
-2.04603e-07
0.00014936
0.000152695
-2.88912e-08
0.000152713
-8.24761e-08
0.000152738
-1.25643e-07
0.000152768
-1.57892e-07
0.000152801
-1.81901e-07
0.000152837
-1.99954e-07
0.000152873
-2.13223e-07
0.00015291
-2.22656e-07
0.000152947
-2.29222e-07
0.000152984
-2.33704e-07
0.000153021
-2.36645e-07
0.000153057
-2.38444e-07
0.000153093
-2.39409e-07
0.000153128
-2.39774e-07
0.000153162
-2.39711e-07
0.000153196
-2.39346e-07
0.000153228
-2.38769e-07
0.00015326
-2.38048e-07
0.000153291
-2.3723e-07
0.000153321
-2.36349e-07
0.000153351
-2.35428e-07
0.000153379
-2.34482e-07
0.000153407
-2.33521e-07
0.000153433
-2.32552e-07
0.000153459
-2.31575e-07
0.000153483
-2.30593e-07
0.000153507
-2.29604e-07
0.00015353
-2.28606e-07
0.000153552
-2.27599e-07
0.000153573
-2.26582e-07
0.000153594
-2.25557e-07
0.000153613
-2.24531e-07
-2.23496e-07
0.000153632
0.00015706
-3.70612e-08
0.000157082
-1.05167e-07
0.000157114
-1.57177e-07
0.00015715
-1.93864e-07
0.000157188
-2.20359e-07
0.000157228
-2.39782e-07
0.000157268
-2.53477e-07
0.000157308
-2.6273e-07
0.000157348
-2.68826e-07
0.000157387
-2.72683e-07
0.000157425
-2.74892e-07
0.000157463
-2.75884e-07
0.000157499
-2.75995e-07
0.000157535
-2.75475e-07
0.00015757
-2.74504e-07
0.000157604
-2.73212e-07
0.000157637
-2.71694e-07
0.000157669
-2.70021e-07
0.0001577
-2.68242e-07
0.00015773
-2.66395e-07
0.000157759
-2.64505e-07
0.000157787
-2.6259e-07
0.000157814
-2.60662e-07
0.00015784
-2.58728e-07
0.000157865
-2.56794e-07
0.00015789
-2.54862e-07
0.000157913
-2.52932e-07
0.000157935
-2.51003e-07
0.000157957
-2.49073e-07
0.000157977
-2.47138e-07
0.000157997
-2.45191e-07
0.000158016
-2.43223e-07
-2.41232e-07
0.000158033
0.00016155
-4.90311e-08
0.000161581
-1.35691e-07
0.000161619
-1.95294e-07
0.00016166
-2.34566e-07
0.000161702
-2.62784e-07
0.000161745
-2.83046e-07
0.000161788
-2.96505e-07
0.000161831
-3.0494e-07
0.000161872
-3.10026e-07
0.000161912
-3.12795e-07
0.000161951
-3.13864e-07
0.000161989
-3.13697e-07
0.000162025
-3.12657e-07
0.000162061
-3.11005e-07
0.000162095
-3.08922e-07
0.000162129
-3.06537e-07
0.000162161
-3.03943e-07
0.000162192
-3.01211e-07
0.000162222
-2.98389e-07
0.000162251
-2.95511e-07
0.00016228
-2.92604e-07
0.000162307
-2.89683e-07
0.000162333
-2.86762e-07
0.000162358
-2.83848e-07
0.000162382
-2.80946e-07
0.000162405
-2.7806e-07
0.000162427
-2.75189e-07
0.000162449
-2.72337e-07
0.000162469
-2.69502e-07
0.000162489
-2.66686e-07
0.000162507
-2.63894e-07
0.000162525
-2.61135e-07
-2.58407e-07
0.000162543
0.000166174
-6.96728e-08
0.000166223
-1.84629e-07
0.000166276
-2.47835e-07
0.000166326
-2.84702e-07
0.000166374
-3.11192e-07
0.000166421
-3.29448e-07
0.000166465
-3.40411e-07
0.000166506
-3.46434e-07
0.000166545
-3.49413e-07
0.000166583
-3.5031e-07
0.000166619
-3.49673e-07
0.000166653
-3.47943e-07
0.000166686
-3.4546e-07
0.000166717
-3.42461e-07
0.000166747
-3.39105e-07
0.000166776
-3.35506e-07
0.000166804
-3.31748e-07
0.000166831
-3.27891e-07
0.000166857
-3.23977e-07
0.000166881
-3.20037e-07
0.000166905
-3.16092e-07
0.000166927