/*--------------------------------*- C++ -*----------------------------------*\
| =========                 |                                                 |
| \\      /  F ield         | OpenFOAM: The Open Source CFD Toolbox           |
|  \\    /   O peration     | Version:  4.1                                   |
|   \\  /    A nd           | Web:      www.OpenFOAM.org                      |
|    \\/     M anipulation  |                                                 |
\*---------------------------------------------------------------------------*/
FoamFile
{
    version     2.0;
    format      ascii;
    class       volSymmTensorField;
    location    "600";
    object      R;
}
// * * * * * * * * * * * * * * * * * * * * * * * * * * * * * * * * * * * * * //

dimensions      [0 2 -2 0 0 0 0];

internalField   nonuniform List<symmTensor> 
6820
(
(0.205732 -0.0655181 0 0.119059 0 0.158783)
(0.282327 -0.0957377 0 0.109535 0 0.187468)
(0.351932 -0.111301 0 0.106212 0 0.215544)
(0.414145 -0.120959 0 0.107184 0 0.242572)
(0.468926 -0.12821 0 0.110858 0 0.268123)
(0.516416 -0.134402 0 0.116011 0 0.291794)
(0.556895 -0.139947 0 0.121756 0 0.313247)
(0.590787 -0.144895 0 0.127486 0 0.332259)
(0.618631 -0.149196 0 0.132822 0 0.348736)
(0.641037 -0.152809 0 0.137552 0 0.362696)
(0.658638 -0.155727 0 0.141583 0 0.374248)
(0.672063 -0.157979 0 0.144899 0 0.383566)
(0.681909 -0.159622 0 0.147529 0 0.390861)
(0.688726 -0.160726 0 0.149533 0 0.396363)
(0.693014 -0.161364 0 0.150982 0 0.400304)
(0.695212 -0.16161 0 0.151949 0 0.402909)
(0.695703 -0.161531 0 0.152506 0 0.404386)
(0.694819 -0.161187 0 0.152722 0 0.404924)
(0.69284 -0.160634 0 0.152657 0 0.40469)
(0.690003 -0.159915 0 0.152363 0 0.40383)
(0.686507 -0.159072 0 0.151888 0 0.402472)
(0.682519 -0.158135 0 0.151269 0 0.400724)
(0.678173 -0.157133 0 0.150542 0 0.398675)
(0.673584 -0.156089 0 0.149734 0 0.396404)
(0.668842 -0.155019 0 0.148868 0 0.393974)
(0.664023 -0.153941 0 0.147963 0 0.391438)
(0.659186 -0.152865 0 0.147036 0 0.38884)
(0.65438 -0.151802 0 0.1461 0 0.386214)
(0.649642 -0.150759 0 0.145165 0 0.38359)
(0.645007 -0.149741 0 0.144239 0 0.380992)
(0.640486 -0.148761 0 0.14333 0 0.378434)
(0.636182 -0.147835 0 0.142476 0 0.37597)
(0.633243 -0.147829 0 0.142594 0 0.374038)
(0.141614 -0.0084661 0 0.126763 0 0.13657)
(0.150539 -0.0154134 0 0.119378 0 0.139441)
(0.159409 -0.0210921 0 0.112607 0 0.141974)
(0.168024 -0.0259311 0 0.106663 0 0.144249)
(0.1762 -0.0301001 0 0.101597 0 0.146285)
(0.183856 -0.0337137 0 0.0973941 0 0.148111)
(0.190972 -0.0368711 0 0.0939943 0 0.149758)
(0.197551 -0.0396509 0 0.0913088 0 0.151252)
(0.203609 -0.0421148 0 0.0892406 0 0.152615)
(0.209179 -0.0443153 0 0.0876945 0 0.153866)
(0.214302 -0.0462984 0 0.0865824 0 0.155022)
(0.219027 -0.0481047 0 0.0858254 0 0.156102)
(0.223406 -0.049769 0 0.0853554 0 0.157119)
(0.22749 -0.0513208 0 0.0851149 0 0.158089)
(0.231327 -0.0527843 0 0.0850565 0 0.159026)
(0.234962 -0.0541791 0 0.085142 0 0.159939)
(0.238437 -0.0555206 0 0.0853406 0 0.160841)
(0.241785 -0.0568206 0 0.0856279 0 0.16174)
(0.245036 -0.0580881 0 0.085985 0 0.162642)
(0.248215 -0.0593296 0 0.0863968 0 0.163554)
(0.251342 -0.0605499 0 0.0868517 0 0.164481)
(0.254433 -0.0617524 0 0.0873407 0 0.165426)
(0.257501 -0.0629396 0 0.0878567 0 0.166392)
(0.260556 -0.0641128 0 0.0883941 0 0.16738)
(0.263603 -0.0652727 0 0.0889484 0 0.168392)
(0.266647 -0.0664192 0 0.0895159 0 0.169427)
(0.269689 -0.0675521 0 0.0900936 0 0.170484)
(0.272729 -0.0686708 0 0.0906788 0 0.171563)
(0.275766 -0.0697748 0 0.0912693 0 0.172661)
(0.278798 -0.0708621 0 0.0918625 0 0.173777)
(0.281824 -0.0719366 0 0.0924594 0 0.174908)
(0.284836 -0.0729846 0 0.0930528 0 0.176054)
(0.288385 -0.0742501 0 0.093936 0 0.177411)
(0.135647 -0.00198164 0 0.129365 0 0.13447)
(0.138143 -0.00333271 0 0.124875 0 0.135413)
(0.140543 -0.00436742 0 0.120286 0 0.136113)
(0.142758 -0.00525002 0 0.115857 0 0.136577)
(0.144727 -0.00600338 0 0.111694 0 0.136818)
(0.146449 -0.00665867 0 0.107826 0 0.136871)
(0.147942 -0.00725515 0 0.104254 0 0.136769)
(0.149225 -0.00782151 0 0.100966 0 0.13654)
(0.150313 -0.00837538 0 0.097949 0 0.136206)
(0.151227 -0.00892811 0 0.0951839 0 0.135787)
(0.151987 -0.00948725 0 0.0926524 0 0.1353)
(0.152612 -0.0100575 0 0.0903358 0 0.134761)
(0.153123 -0.0106413 0 0.0882159 0 0.134181)
(0.153538 -0.0112398 0 0.0862754 0 0.133574)
(0.153874 -0.0118528 0 0.0844981 0 0.132949)
(0.154147 -0.0124796 0 0.0828692 0 0.132315)
(0.154374 -0.0131191 0 0.0813753 0 0.13168)
(0.154566 -0.0137698 0 0.0800043 0 0.13105)
(0.154736 -0.01443 0 0.0787453 0 0.130431)
(0.154895 -0.0150982 0 0.0775886 0 0.129829)
(0.155051 -0.0157725 0 0.0765253 0 0.129246)
(0.155211 -0.0164506 0 0.0755473 0 0.128686)
(0.155379 -0.0171305 0 0.0746471 0 0.128148)
(0.155559 -0.0178103 0 0.0738181 0 0.127636)
(0.155754 -0.0184883 0 0.0730546 0 0.12715)
(0.155967 -0.019163 0 0.0723512 0 0.12669)
(0.156201 -0.019833 0 0.0717034 0 0.126257)
(0.156456 -0.0204972 0 0.071107 0 0.125851)
(0.156734 -0.0211543 0 0.070558 0 0.125472)
(0.157035 -0.0218037 0 0.0700536 0 0.125121)
(0.157358 -0.0224435 0 0.0695888 0 0.124795)
(0.157709 -0.023077 0 0.0691674 0 0.124498)
(0.158127 -0.0237155 0 0.0688033 0 0.124239)
(0.134186 -0.000783 0 0.130263 0 0.133857)
(0.135191 -0.00139795 0 0.126844 0 0.134317)
(0.136192 -0.00188091 0 0.123377 0 0.134657)
(0.13712 -0.00231648 0 0.120006 0 0.134859)
(0.137922 -0.00270627 0 0.116774 0 0.134922)
(0.138592 -0.00305305 0 0.11369 0 0.134859)
(0.139141 -0.0033693 0 0.11076 0 0.134692)
(0.139578 -0.00366502 0 0.107987 0 0.134437)
(0.139911 -0.00394641 0 0.105373 0 0.134105)
(0.140149 -0.00421832 0 0.10291 0 0.133709)
(0.140301 -0.00448506 0 0.100595 0 0.13326)
(0.140378 -0.00475011 0 0.0984184 0 0.132767)
(0.140388 -0.0050161 0 0.0963726 0 0.13224)
(0.140341 -0.00528497 0 0.0944494 0 0.131685)
(0.140244 -0.00555806 0 0.0926407 0 0.131108)
(0.140106 -0.0058363 0 0.0909386 0 0.130516)
(0.139933 -0.00612023 0 0.0893357 0 0.129913)
(0.139732 -0.00641013 0 0.0878252 0 0.129303)
(0.139509 -0.00670602 0 0.0864007 0 0.128691)
(0.13927 -0.00700777 0 0.0850562 0 0.12808)
(0.139019 -0.00731509 0 0.0837864 0 0.127472)
(0.13876 -0.00762742 0 0.0825863 0 0.12687)
(0.138498 -0.00794414 0 0.0814513 0 0.126276)
(0.138233 -0.00826456 0 0.0803771 0 0.125692)
(0.13797 -0.00858801 0 0.0793597 0 0.125117)
(0.137709 -0.0089138 0 0.0783956 0 0.124554)
(0.137453 -0.00924127 0 0.0774814 0 0.124004)
(0.137203 -0.00956975 0 0.076614 0 0.123466)
(0.136961 -0.00989866 0 0.0757907 0 0.122942)
(0.136727 -0.0102273 0 0.0750088 0 0.122431)
(0.136502 -0.0105553 0 0.0742659 0 0.121935)
(0.136287 -0.0108826 0 0.0735599 0 0.121453)
(0.13608 -0.0112125 0 0.0728946 0 0.120981)
(0.133619 -0.000369881 0 0.1308 0 0.133544)
(0.133991 -0.00066341 0 0.128074 0 0.133735)
(0.134406 -0.000892685 0 0.12533 0 0.133878)
(0.134816 -0.001116 0 0.122628 0 0.133954)
(0.135171 -0.00133073 0 0.119999 0 0.133949)
(0.135457 -0.00152931 0 0.117456 0 0.133864)
(0.135676 -0.0017149 0 0.115009 0 0.133709)
(0.135831 -0.00189181 0 0.112665 0 0.133492)
(0.135923 -0.00206224 0 0.110424 0 0.133221)
(0.135958 -0.00222779 0 0.108286 0 0.132903)
(0.13594 -0.00239008 0 0.106248 0 0.132545)
(0.135874 -0.00255054 0 0.104305 0 0.132153)
(0.135767 -0.00271029 0 0.102456 0 0.131733)
(0.135621 -0.00287017 0 0.100695 0 0.131288)
(0.135443 -0.00303083 0 0.0990182 0 0.130825)
(0.135236 -0.00319275 0 0.097422 0 0.130347)
(0.135004 -0.00335627 0 0.0959022 0 0.129857)
(0.134752 -0.00352164 0 0.0944546 0 0.129358)
(0.134482 -0.00368898 0 0.0930756 0 0.128853)
(0.134199 -0.00385834 0 0.0917615 0 0.128345)
(0.133904 -0.00402973 0 0.0905088 0 0.127835)
(0.1336 -0.00420303 0 0.0893143 0 0.127326)
(0.13329 -0.00437808 0 0.0881748 0 0.126819)
(0.132976 -0.00455468 0 0.0870873 0 0.126315)
(0.132658 -0.00473259 0 0.0860492 0 0.125816)
(0.13234 -0.00491155 0 0.0850578 0 0.125322)
(0.132022 -0.00509127 0 0.0841106 0 0.124834)
(0.131705 -0.00527149 0 0.0832054 0 0.124354)
(0.13139 -0.0054519 0 0.08234 0 0.123881)
(0.131078 -0.00563223 0 0.0815123 0 0.123416)
(0.13077 -0.00581224 0 0.0807203 0 0.122959)
(0.130465 -0.00599204 0 0.0799624 0 0.12251)
(0.130158 -0.00617355 0 0.0792352 0 0.122064)
(0.133352 -0.000209931 0 0.131145 0 0.133354)
(0.133395 -0.00036278 0 0.128832 0 0.133363)
(0.133482 -0.000470573 0 0.126515 0 0.13336)
(0.133597 -0.000577666 0 0.124222 0 0.133333)
(0.1337 -0.000685212 0 0.121982 0 0.133264)
(0.133774 -0.000786557 0 0.119804 0 0.133149)
(0.133814 -0.000882873 0 0.117696 0 0.132989)
(0.133818 -0.000976654 0 0.115661 0 0.132787)
(0.133787 -0.00106864 0 0.113703 0 0.132549)
(0.133721 -0.00115909 0 0.111821 0 0.132276)
(0.133621 -0.00124847 0 0.110015 0 0.131975)
(0.133492 -0.00133737 0 0.108283 0 0.131647)
(0.133335 -0.00142627 0 0.106623 0 0.131298)
(0.133153 -0.00151552 0 0.105034 0 0.13093)
(0.132949 -0.00160545 0 0.103511 0 0.130547)
(0.132726 -0.00169628 0 0.102053 0 0.130151)
(0.132485 -0.00178821 0 0.100657 0 0.129745)
(0.13223 -0.00188135 0 0.0993206 0 0.129331)
(0.131962 -0.00197576 0 0.0980404 0 0.128911)
(0.131684 -0.00207147 0 0.0968139 0 0.128486)
(0.131396 -0.00216846 0 0.0956388 0 0.128059)
(0.131102 -0.00226667 0 0.0945126 0 0.127631)
(0.130803 -0.00236602 0 0.0934328 0 0.127203)
(0.130499 -0.0024664 0 0.0923975 0 0.126776)
(0.130192 -0.00256766 0 0.0914044 0 0.126351)
(0.129884 -0.00266965 0 0.0904515 0 0.125929)
(0.129574 -0.0027722 0 0.0895371 0 0.12551)
(0.129265 -0.00287512 0 0.0886592 0 0.125096)
(0.128956 -0.00297823 0 0.0878163 0 0.124686)
(0.128649 -0.00308132 0 0.0870068 0 0.124282)
(0.128343 -0.00318422 0 0.0862292 0 0.123882)
(0.128038 -0.00328697 0 0.0854815 0 0.123488)
(0.127729 -0.00339046 0 0.0847578 0 0.123093)
(0.133205 -0.000140239 0 0.131382 0 0.133226)
(0.133061 -0.000232501 0 0.129345 0 0.133103)
(0.132946 -0.000282245 0 0.127332 0 0.132983)
(0.132865 -0.000325229 0 0.12535 0 0.13286)
(0.132794 -0.000369031 0 0.12341 0 0.132722)
(0.132719 -0.00041091 0 0.121516 0 0.132563)
(0.132632 -0.00045165 0 0.119673 0 0.132379)
(0.132532 -0.000492848 0 0.117884 0 0.132171)
(0.132414 -0.000534736 0 0.116153 0 0.13194)
(0.132278 -0.000577125 0 0.114481 0 0.131686)
(0.132123 -0.000620065 0 0.112867 0 0.131413)
(0.13195 -0.000663731 0 0.111312 0 0.131121)
(0.13176 -0.000708265 0 0.109814 0 0.130814)
(0.131555 -0.000753766 0 0.108372 0 0.130493)
(0.131336 -0.000800316 0 0.106984 0 0.130161)
(0.131105 -0.000847971 0 0.105649 0 0.129819)
(0.130862 -0.000896764 0 0.104364 0 0.129469)
(0.130609 -0.000946703 0 0.103129 0 0.129113)
(0.130348 -0.00099777 0 0.101941 0 0.128752)
(0.13008 -0.00104993 0 0.100798 0 0.128387)
(0.129806 -0.00110314 0 0.0996985 0 0.128019)
(0.129527 -0.00115731 0 0.098641 0 0.12765)
(0.129244 -0.00121238 0 0.0976236 0 0.127281)
(0.128958 -0.00126825 0 0.0966446 0 0.126912)
(0.12867 -0.00132481 0 0.0957025 0 0.126544)
(0.12838 -0.00138193 0 0.0947958 0 0.126178)
(0.12809 -0.00143949 0 0.0939229 0 0.125814)
(0.1278 -0.00149734 0 0.0930826 0 0.125454)
(0.12751 -0.00155534 0 0.0922734 0 0.125096)
(0.127221 -0.00161332 0 0.0914942 0 0.124742)
(0.126933 -0.00167112 0 0.0907436 0 0.124392)
(0.126646 -0.00172865 0 0.0900197 0 0.124045)
(0.126354 -0.00178625 0 0.0893152 0 0.123696)
(0.133111 -0.00010475 0 0.131554 0 0.133134)
(0.132855 -0.000171922 0 0.12971 0 0.132914)
(0.132611 -0.000199547 0 0.12791 0 0.1327)
(0.132395 -0.000214077 0 0.126145 0 0.132493)
(0.132197 -0.000225583 0 0.124419 0 0.132287)
(0.132008 -0.000234443 0 0.122733 0 0.132075)
(0.131822 -0.000242089 0 0.121088 0 0.131854)
(0.131636 -0.000250386 0 0.119488 0 0.131622)
(0.131446 -0.000259968 0 0.117934 0 0.131379)
(0.13125 -0.000270849 0 0.116428 0 0.131124)
(0.131046 -0.000283058 0 0.11497 0 0.130858)
(0.130834 -0.000296658 0 0.113559 0 0.13058)
(0.130614 -0.000311666 0 0.112196 0 0.130293)
(0.130386 -0.000328062 0 0.110879 0 0.129997)
(0.130151 -0.000345818 0 0.109608 0 0.129694)
(0.129908 -0.000364905 0 0.108382 0 0.129384)
(0.12966 -0.00038528 0 0.107198 0 0.129069)
(0.129406 -0.000406895 0 0.106057 0 0.12875)
(0.129148 -0.00042969 0 0.104956 0 0.128427)
(0.128885 -0.000453599 0 0.103894 0 0.128102)
(0.128619 -0.000478547 0 0.10287 0 0.127775)
(0.128351 -0.000504453 0 0.101883 0 0.127448)
(0.12808 -0.000531228 0 0.100931 0 0.12712)
(0.127808 -0.000558774 0 0.100012 0 0.126793)
(0.127535 -0.000586989 0 0.0991265 0 0.126466)
(0.127261 -0.000615761 0 0.0982719 0 0.126142)
(0.126988 -0.000644972 0 0.0974474 0 0.125819)
(0.126715 -0.000674494 0 0.0966519 0 0.125498)
(0.126443 -0.000704188 0 0.0958842 0 0.125181)
(0.126172 -0.000733902 0 0.0951433 0 0.124866)
(0.125902 -0.000763464 0 0.0944281 0 0.124554)
(0.125633 -0.00079274 0 0.0937366 0 0.124245)
(0.12536 -0.000821809 0 0.0930606 0 0.123934)
(0.133044 -8.3519e-05 0 0.131686 0 0.133064)
(0.132713 -0.000139506 0 0.129983 0 0.132771)
(0.132385 -0.000160876 0 0.128336 0 0.132484)
(0.132077 -0.000165301 0 0.126731 0 0.132208)
(0.131788 -0.000162491 0 0.125169 0 0.131939)
(0.131512 -0.000154744 0 0.123646 0 0.131674)
(0.131246 -0.000144261 0 0.122161 0 0.13141)
(0.130988 -0.000133354 0 0.120715 0 0.131145)
(0.130734 -0.000123188 0 0.119309 0 0.130878)
(0.130483 -0.00011416 0 0.117943 0 0.130607)
(0.130233 -0.000106489 0 0.116617 0 0.130332)
(0.129983 -0.000100332 0 0.115331 0 0.130053)
(0.129731 -9.57512e-05 0 0.114085 0 0.129769)
(0.129477 -9.27449e-05 0 0.112878 0 0.129482)
(0.129222 -9.12818e-05 0 0.111709 0 0.129191)
(0.128965 -9.13131e-05 0 0.110579 0 0.128897)
(0.128706 -9.27761e-05 0 0.109485 0 0.128601)
(0.128445 -9.55965e-05 0 0.108428 0 0.128303)
(0.128183 -9.96923e-05 0 0.107405 0 0.128003)
(0.12792 -0.000104975 0 0.106417 0 0.127703)
(0.127656 -0.000111353 0 0.105461 0 0.127402)
(0.127392 -0.000118728 0 0.104538 0 0.127102)
(0.127127 -0.000127001 0 0.103645 0 0.126802)
(0.126863 -0.000136066 0 0.102782 0 0.126503)
(0.126599 -0.000145816 0 0.101948 0 0.126205)
(0.126336 -0.000156139 0 0.101141 0 0.12591)
(0.126074 -0.000166917 0 0.100362 0 0.125616)
(0.125813 -0.000178024 0 0.0996083 0 0.125325)
(0.125553 -0.000189327 0 0.0988798 0 0.125036)
(0.125296 -0.000200677 0 0.0981755 0 0.12475)
(0.12504 -0.000211906 0 0.0974943 0 0.124467)
(0.124785 -0.000222849 0 0.0968342 0 0.124187)
(0.124528 -0.000233368 0 0.0961869 0 0.123904)
(0.132993 -6.90091e-05 0 0.131791 0 0.133009)
(0.132608 -0.00011865 0 0.130196 0 0.132659)
(0.132222 -0.000139613 0 0.128663 0 0.132315)
(0.13185 -0.000142885 0 0.127177 0 0.131982)
(0.131495 -0.000136529 0 0.125735 0 0.13166)
(0.131153 -0.000123434 0 0.124334 0 0.131346)
(0.130823 -0.000105936 0 0.122971 0 0.131039)
(0.130506 -8.64091e-05 0 0.121644 0 0.130738)
(0.130198 -6.63435e-05 0 0.120353 0 0.13044)
(0.129898 -4.64989e-05 0 0.119098 0 0.130145)
(0.129605 -2.73626e-05 0 0.117879 0 0.129852)
(0.129316 -9.28067e-06 0 0.116695 0 0.129559)
(0.129031 7.54054e-06 0 0.115546 0 0.129268)
(0.12875 2.30004e-05 0 0.114431 0 0.128977)
(0.128471 3.70608e-05 0 0.11335 0 0.128686)
(0.128195 4.9724e-05 0 0.112303 0 0.128395)
(0.12792 6.10212e-05 0 0.111287 0 0.128105)
(0.127648 7.10051e-05 0 0.110304 0 0.127816)
(0.127377 7.97426e-05 0 0.109351 0 0.127527)
(0.127107 8.7311e-05 0 0.108429 0 0.12724)
(0.126839 9.37949e-05 0 0.107535 0 0.126954)
(0.126573 9.92845e-05 0 0.10667 0 0.126669)
(0.126309 0.000103874 0 0.105833 0 0.126386)
(0.126046 0.000107663 0 0.105022 0 0.126105)
(0.125786 0.000110754 0 0.104237 0 0.125826)
(0.125528 0.000113252 0 0.103478 0 0.12555)
(0.125271 0.00011527 0 0.102742 0 0.125276)
(0.125017 0.000116926 0 0.10203 0 0.125005)
(0.124766 0.000118346 0 0.101341 0 0.124736)
(0.124517 0.000119668 0 0.100673 0 0.124471)
(0.12427 0.000121048 0 0.100026 0 0.124209)
(0.124025 0.000122653 0 0.0993988 0 0.123949)
(0.123779 0.000124746 0 0.0987818 0 0.123687)
(0.132951 -5.81837e-05 0 0.131876 0 0.132965)
(0.132525 -0.000103033 0 0.130367 0 0.132569)
(0.132097 -0.000124914 0 0.128922 0 0.13218)
(0.131679 -0.000130205 0 0.127527 0 0.131802)
(0.131275 -0.000125021 0 0.126178 0 0.131436)
(0.130884 -0.000112116 0 0.124871 0 0.13108)
(0.130506 -9.36207e-05 0 0.123602 0 0.130734)
(0.130142 -7.17333e-05 0 0.122369 0 0.130397)
(0.129789 -4.80509e-05 0 0.121171 0 0.130068)
(0.129447 -2.35519e-05 0 0.120008 0 0.129745)
(0.129114 1.08683e-06 0 0.118877 0 0.129429)
(0.128791 2.53628e-05 0 0.117779 0 0.129118)
(0.128474 4.89329e-05 0 0.116713 0 0.128811)
(0.128165 7.15806e-05 0 0.115678 0 0.128508)
(0.127861 9.31744e-05 0 0.114673 0 0.128208)
(0.127563 0.000113642 0 0.113698 0 0.127913)
(0.12727 0.000132955 0 0.112751 0 0.12762)
(0.126982 0.000151119 0 0.111834 0 0.12733)
(0.126698 0.000168165 0 0.110943 0 0.127043)
(0.126417 0.000184139 0 0.11008 0 0.12676)
(0.126141 0.000199104 0 0.109243 0 0.126479)
(0.125869 0.000213131 0 0.108431 0 0.126201)
(0.1256 0.000226299 0 0.107644 0 0.125926)
(0.125334 0.000238695 0 0.106881 0 0.125654)
(0.125072 0.00025041 0 0.106142 0 0.125386)
(0.124813 0.00026154 0 0.105425 0 0.12512)
(0.124558 0.000272188 0 0.104729 0 0.124858)
(0.124306 0.00028246 0 0.104056 0 0.124599)
(0.124057 0.000292473 0 0.103402 0 0.124343)
(0.123812 0.000302349 0 0.102769 0 0.124091)
(0.12357 0.000312226 0 0.102154 0 0.123843)
(0.12333 0.000322265 0 0.101557 0 0.123597)
(0.12309 0.000332799 0 0.100968 0 0.123349)
(0.132917 -4.96666e-05 0 0.131946 0 0.132928)
(0.132457 -9.0227e-05 0 0.130509 0 0.132494)
(0.131996 -0.000112692 0 0.129134 0 0.132068)
(0.131544 -0.000120495 0 0.12781 0 0.131654)
(0.131103 -0.000118059 0 0.126533 0 0.131252)
(0.130676 -0.000107765 0 0.125299 0 0.130861)
(0.130261 -9.14249e-05 0 0.124103 0 0.130482)
(0.129859 -7.09134e-05 0 0.122943 0 0.130113)
(0.12947 -4.77238e-05 0 0.121818 0 0.129755)
(0.129093 -2.28686e-05 0 0.120726 0 0.129405)
(0.128727 2.91431e-06 0 0.119666 0 0.129064)
(0.128372 2.90521e-05 0 0.118637 0 0.128731)
(0.128027 5.51201e-05 0 0.117637 0 0.128406)
(0.127691 8.08188e-05 0 0.116667 0 0.128086)
(0.127363 0.00010594 0 0.115724 0 0.127773)
(0.127043 0.000130343 0 0.11481 0 0.127466)
(0.12673 0.00015394 0 0.113921 0 0.127165)
(0.126424 0.000176685 0 0.113059 0 0.126868)
(0.126124 0.000198562 0 0.112223 0 0.126576)
(0.12583 0.00021958 0 0.11141 0 0.126289)
(0.125542 0.000239769 0 0.110622 0 0.126007)
(0.12526 0.00025917 0 0.109857 0 0.125729)
(0.124982 0.000277838 0 0.109115 0 0.125456)
(0.12471 0.000295836 0 0.108395 0 0.125186)
(0.124442 0.000313234 0 0.107696 0 0.124921)
(0.124179 0.000330112 0 0.107018 0 0.12466)
(0.123921 0.000346553 0 0.10636 0 0.124403)
(0.123667 0.000362645 0 0.105721 0 0.12415)
(0.123417 0.000378487 0 0.105101 0 0.123902)
(0.123172 0.000394179 0 0.1045 0 0.123657)
(0.122931 0.000409836 0 0.103916 0 0.123416)
(0.122693 0.000425604 0 0.103348 0 0.123178)
(0.122454 0.000441865 0 0.102787 0 0.12294)
(0.132888 -4.27394e-05 0 0.132006 0 0.132898)
(0.1324 -7.9261e-05 0 0.130628 0 0.132432)
(0.131913 -0.000101602 0 0.12931 0 0.131975)
(0.131433 -0.000111402 0 0.128045 0 0.131531)
(0.130964 -0.000111754 0 0.126826 0 0.131099)
(0.130508 -0.000104608 0 0.125649 0 0.13068)
(0.130064 -9.14492e-05 0 0.124511 0 0.130272)
(0.129634 -7.38043e-05 0 0.12341 0 0.129876)
(0.129216 -5.29779e-05 0 0.122343 0 0.129492)
(0.128811 -2.99231e-05 0 0.121308 0 0.129118)
(0.128418 -5.36363e-06 0 0.120305 0 0.128754)
(0.128037 2.01202e-05 0 0.119331 0 0.1284)
(0.127666 4.60761e-05 0 0.118387 0 0.128055)
(0.127306 7.2164e-05 0 0.11747 0 0.127718)
(0.126956 9.81313e-05 0 0.11658 0 0.127389)
(0.126615 0.000123792 0 0.115716 0 0.127068)
(0.126283 0.000149015 0 0.114878 0 0.126754)
(0.12596 0.00017371 0 0.114064 0 0.126447)
(0.125644 0.000197825 0 0.113273 0 0.126147)
(0.125336 0.000221333 0 0.112505 0 0.125852)
(0.125034 0.000244229 0 0.11176 0 0.125564)
(0.12474 0.000266527 0 0.111036 0 0.125281)
(0.124452 0.000288254 0 0.110334 0 0.125004)
(0.124171 0.000309449 0 0.109651 0 0.124732)
(0.123895 0.00033016 0 0.108989 0 0.124466)
(0.123625 0.000350445 0 0.108346 0 0.124204)
(0.123361 0.000370367 0 0.107721 0 0.123948)
(0.123102 0.000389996 0 0.107114 0 0.123696)
(0.122848 0.000409406 0 0.106525 0 0.123449)
(0.122599 0.000428677 0 0.105952 0 0.123207)
(0.122356 0.000447899 0 0.105396 0 0.122969)
(0.122116 0.000467195 0 0.104854 0 0.122734)
(0.121877 0.000486956 0 0.104319 0 0.1225)
(0.132863 -3.69737e-05 0 0.132057 0 0.132872)
(0.132351 -6.96854e-05 0 0.13073 0 0.132378)
(0.131841 -9.12663e-05 0 0.129461 0 0.131896)
(0.131339 -0.000102307 0 0.128243 0 0.131427)
(0.130848 -0.000104908 0 0.127071 0 0.13097)
(0.130369 -0.000100625 0 0.125942 0 0.130526)
(0.129903 -9.06614e-05 0 0.124851 0 0.130095)
(0.129449 -7.62503e-05 0 0.123796 0 0.129677)
(0.129009 -5.8494e-05 0 0.122776 0 0.12927)
(0.128581 -3.82442e-05 0 0.121787 0 0.128874)
(0.128166 -1.61644e-05 0 0.120829 0 0.12849)
(0.127763 7.20375e-06 0 0.119901 0 0.128117)
(0.127371 3.14249e-05 0 0.119001 0 0.127753)
(0.126991 5.61588e-05 0 0.118127 0 0.127399)
(0.126621 8.11424e-05 0 0.11728 0 0.127055)
(0.126262 0.000106173 0 0.116457 0 0.126719)
(0.125912 0.000131098 0 0.115659 0 0.126392)
(0.125572 0.000155804 0 0.114884 0 0.126072)
(0.125241 0.000180215 0 0.114132 0 0.125761)
(0.124918 0.000204279 0 0.113401 0 0.125457)
(0.124604 0.000227967 0 0.112692 0 0.125159)
(0.124297 0.000251269 0 0.112003 0 0.124869)
(0.123998 0.00027419 0 0.111334 0 0.124585)
(0.123706 0.000296747 0 0.110684 0 0.124308)
(0.123421 0.000318968 0 0.110052 0 0.124036)
(0.123142 0.00034089 0 0.109439 0 0.123771)
(0.122871 0.000362554 0 0.108843 0 0.123511)
(0.122605 0.000384009 0 0.108264 0 0.123257)
(0.122345 0.000405309 0 0.107702 0 0.123008)
(0.122091 0.000426511 0 0.107155 0 0.122765)
(0.121843 0.00044768 0 0.106623 0 0.122526)
(0.1216 0.00046892 0 0.106105 0 0.122292)
(0.121358 0.000490631 0 0.105593 0 0.122058)
(0.132842 -3.20869e-05 0 0.132101 0 0.132849)
(0.132309 -6.1237e-05 0 0.130818 0 0.132333)
(0.13178 -8.16041e-05 0 0.129591 0 0.131828)
(0.131259 -9.31931e-05 0 0.128413 0 0.131337)
(0.130749 -9.73892e-05 0 0.127282 0 0.13086)
(0.130252 -9.54018e-05 0 0.126191 0 0.130396)
(0.129767 -8.82073e-05 0 0.125139 0 0.129944)
(0.129295 -7.67941e-05 0 0.124123 0 0.129506)
(0.128836 -6.20783e-05 0 0.12314 0 0.12908)
(0.12839 -4.4799e-05 0 0.12219 0 0.128667)
(0.127956 -2.55451e-05 0 0.121269 0 0.128265)
(0.127535 -4.80341e-06 0 0.120377 0 0.127874)
(0.127126 1.70261e-05 0 0.119513 0 0.127494)
(0.126729 3.96228e-05 0 0.118676 0 0.127125)
(0.126343 6.27316e-05 0 0.117863 0 0.126765)
(0.125968 8.61507e-05 0 0.117075 0 0.126416)
(0.125603 0.000109722 0 0.11631 0 0.126075)
(0.125248 0.000133325 0 0.115568 0 0.125744)
(0.124903 0.000156868 0 0.114848 0 0.125421)
(0.124567 0.000180288 0 0.114148 0 0.125106)
(0.12424 0.000203539 0 0.113469 0 0.124799)
(0.123922 0.000226595 0 0.11281 0 0.1245)
(0.123612 0.000249446 0 0.11217 0 0.124208)
(0.123309 0.00027209 0 0.111547 0 0.123923)
(0.123015 0.000294538 0 0.110943 0 0.123645)
(0.122728 0.00031681 0 0.110356 0 0.123374)
(0.122448 0.00033893 0 0.109785 0 0.123109)
(0.122174 0.000360928 0 0.10923 0 0.12285)
(0.121908 0.000382839 0 0.108691 0 0.122597)
(0.121648 0.000404698 0 0.108167 0 0.12235)
(0.121394 0.00042655 0 0.107657 0 0.122108)
(0.121145 0.000448478 0 0.10716 0 0.121871)
(0.120898 0.000470859 0 0.106668 0 0.121636)
(0.132823 -2.78799e-05 0 0.13214 0 0.132829)
(0.132272 -5.37261e-05 0 0.130895 0 0.132293)
(0.131726 -7.25958e-05 0 0.129704 0 0.131769)
(0.131189 -8.41886e-05 0 0.128562 0 0.13126)
(0.130664 -8.93851e-05 0 0.127464 0 0.130764)
(0.130151 -8.91043e-05 0 0.126407 0 0.130282)
(0.12965 -8.41337e-05 0 0.125387 0 0.129814)
(0.129163 -7.5269e-05 0 0.124403 0 0.129359)
(0.128688 -6.32671e-05 0 0.123453 0 0.128917)
(0.128227 -4.87626e-05 0 0.122533 0 0.128488)
(0.127779 -3.22719e-05 0 0.121644 0 0.12807)
(0.127343 -1.42253e-05 0 0.120782 0 0.127665)
(0.12692 5.01906e-06 0 0.119948 0 0.127271)
(0.126508 2.51693e-05 0 0.119139 0 0.126888)
(0.126108 4.59896e-05 0 0.118356 0 0.126515)
(0.12572 6.72903e-05 0 0.117596 0 0.126153)
(0.125342 8.89199e-05 0 0.116859 0 0.1258)
(0.124975 0.000110759 0 0.116143 0 0.125457)
(0.124617 0.000132716 0 0.115449 0 0.125123)
(0.12427 0.000154721 0 0.114776 0 0.124798)
(0.123932 0.000176724 0 0.114122 0 0.124482)
(0.123603 0.00019869 0 0.113487 0 0.124173)
(0.123282 0.000220597 0 0.11287 0 0.123873)
(0.12297 0.000242435 0 0.112271 0 0.12358)
(0.122667 0.000264203 0 0.111689 0 0.123294)
(0.122371 0.000285906 0 0.111123 0 0.123016)
(0.122083 0.000307556 0 0.110574 0 0.122745)
(0.121802 0.000329169 0 0.110039 0 0.12248)
(0.121528 0.000350764 0 0.10952 0 0.122222)
(0.121262 0.00037236 0 0.109015 0 0.12197)
(0.121002 0.000393985 0 0.108524 0 0.121724)
(0.120748 0.000415707 0 0.108044 0 0.121483)
(0.120495 0.000437891 0 0.10757 0 0.121243)
(0.132807 -2.42066e-05 0 0.132174 0 0.132812)
(0.132239 -4.7e-05 0 0.130962 0 0.132258)
(0.131678 -6.42154e-05 0 0.129803 0 0.131717)
(0.131127 -7.54141e-05 0 0.128692 0 0.131191)
(0.130588 -8.11277e-05 0 0.127623 0 0.13068)
(0.130062 -8.20378e-05 0 0.126595 0 0.130183)
(0.129548 -7.87734e-05 0 0.125604 0 0.1297)
(0.129048 -7.19755e-05 0 0.124647 0 0.129231)
(0.128561 -6.2267e-05 0 0.123724 0 0.128775)
(0.128087 -5.01874e-05 0 0.122831 0 0.128332)
(0.127626 -3.61849e-05 0 0.121967 0 0.127901)
(0.127178 -2.0636e-05 0 0.121131 0 0.127483)
(0.126743 -3.85678e-06 0 0.120322 0 0.127077)
(0.12632 1.38918e-05 0 0.119538 0 0.126681)
(0.125908 3.23963e-05 0 0.118779 0 0.126297)
(0.125508 5.14834e-05 0 0.118042 0 0.125924)
(0.125119 7.10124e-05 0 0.117328 0 0.12556)
(0.124741 9.08709e-05 0 0.116636 0 0.125207)
(0.124374 0.00011097 0 0.115964 0 0.124863)
(0.124016 0.000131241 0 0.115312 0 0.124528)
(0.123668 0.000151631 0 0.114679 0 0.124203)
(0.12333 0.000172102 0 0.114064 0 0.123886)
(0.123001 0.000192628 0 0.113467 0 0.123577)
(0.12268 0.00021319 0 0.112888 0 0.123277)
(0.122368 0.000233779 0 0.112325 0 0.122984)
(0.122065 0.000254393 0 0.111778 0 0.122698)
(0.121769 0.000275032 0 0.111246 0 0.12242)
(0.121481 0.000295702 0 0.110729 0 0.12215)
(0.121201 0.000316408 0 0.110227 0 0.121885)
(0.120928 0.00033716 0 0.109738 0 0.121628)
(0.120662 0.00035797 0 0.109263 0 0.121377)
(0.120402 0.000378891 0 0.108799 0 0.121131)
(0.120145 0.000400258 0 0.10834 0 0.120887)
(0.132792 -2.09569e-05 0 0.132204 0 0.132797)
(0.13221 -4.09305e-05 0 0.131023 0 0.132227)
(0.131636 -5.64206e-05 0 0.129892 0 0.131671)
(0.131073 -6.69464e-05 0 0.128807 0 0.131131)
(0.130522 -7.28036e-05 0 0.127764 0 0.130606)
(0.129984 -7.44845e-05 0 0.126761 0 0.130096)
(0.129459 -7.2484e-05 0 0.125795 0 0.1296)
(0.128947 -6.73166e-05 0 0.124862 0 0.129118)
(0.128449 -5.94925e-05 0 0.123962 0 0.12865)
(0.127965 -4.94665e-05 0 0.123092 0 0.128195)
(0.127493 -3.76248e-05 0 0.12225 0 0.127753)
(0.127035 -2.42951e-05 0 0.121436 0 0.127324)
(0.126589 -9.75487e-06 0 0.120648 0 0.126906)
(0.126156 5.76452e-06 0 0.119885 0 0.126501)
(0.125734 2.20722e-05 0 0.119146 0 0.126106)
(0.125325 3.90114e-05 0 0.11843 0 0.125723)
(0.124927 5.64543e-05 0 0.117735 0 0.12535)
(0.124539 7.42974e-05 0 0.117061 0 0.124987)
(0.124163 9.24577e-05 0 0.116408 0 0.124635)
(0.123797 0.00011087 0 0.115774 0 0.124292)
(0.123441 0.000129483 0 0.115159 0 0.123958)
(0.123094 0.000148257 0 0.114561 0 0.123633)
(0.122757 0.000167164 0 0.113981 0 0.123317)
(0.12243 0.000186184 0 0.113418 0 0.123009)
(0.12211 0.000205301 0 0.112871 0 0.122709)
(0.1218 0.000224508 0 0.112339 0 0.122417)
(0.121498 0.000243798 0 0.111822 0 0.122133)
(0.121204 0.000263169 0 0.11132 0 0.121856)
(0.120917 0.00028262 0 0.110831 0 0.121586)
(0.120639 0.000302148 0 0.110356 0 0.121323)
(0.120367 0.000321761 0 0.109894 0 0.121067)
(0.120102 0.0003415 0 0.109443 0 0.120816)
(0.119839 0.000361679 0 0.108997 0 0.120568)
(0.132779 -1.8046e-05 0 0.13223 0 0.132783)
(0.132184 -3.54086e-05 0 0.131076 0 0.132199)
(0.131598 -4.91566e-05 0 0.129971 0 0.13163)
(0.131024 -5.882e-05 0 0.12891 0 0.131077)
(0.130462 -6.454e-05 0 0.12789 0 0.13054)
(0.129914 -6.66606e-05 0 0.126909 0 0.130018)
(0.129379 -6.55641e-05 0 0.125964 0 0.129511)
(0.128858 -6.16597e-05 0 0.125053 0 0.129018)
(0.12835 -5.53617e-05 0 0.124173 0 0.128539)
(0.127856 -4.70497e-05 0 0.123322 0 0.128074)
(0.127376 -3.70527e-05 0 0.1225 0 0.127622)
(0.126908 -2.56532e-05 0 0.121705 0 0.127183)
(0.126454 -1.30925e-05 0 0.120936 0 0.126756)
(0.126012 4.26279e-07 0 0.120191 0 0.126341)
(0.125582 1.4734e-05 0 0.119469 0 0.125938)
(0.125164 2.96908e-05 0 0.11877 0 0.125546)
(0.124758 4.51817e-05 0 0.118092 0 0.125165)
(0.124363 6.11127e-05 0 0.117434 0 0.124794)
(0.123979 7.74076e-05 0 0.116797 0 0.124434)
(0.123606 9.40055e-05 0 0.116178 0 0.124083)
(0.123243 0.000110858 0 0.115578 0 0.123742)
(0.122889 0.000127926 0 0.114995 0 0.12341)
(0.122546 0.000145181 0 0.114429 0 0.123087)
(0.122212 0.0001626 0 0.113879 0 0.122773)
(0.121886 0.000180165 0 0.113345 0 0.122467)
(0.12157 0.000197865 0 0.112827 0 0.122169)
(0.121262 0.000215689 0 0.112323 0 0.121879)
(0.120962 0.000233629 0 0.111833 0 0.121596)
(0.120671 0.000251677 0 0.111356 0 0.121321)
(0.120387 0.000269825 0 0.110893 0 0.121053)
(0.12011 0.000288074 0 0.110442 0 0.120792)
(0.119841 0.000306455 0 0.110002 0 0.120537)
(0.119574 0.000325252 0 0.109566 0 0.120283)
(0.132767 -1.54072e-05 0 0.132254 0 0.132771)
(0.13216 -3.03417e-05 0 0.131125 0 0.132174)
(0.131564 -4.23627e-05 0 0.130042 0 0.131594)
(0.13098 -5.10391e-05 0 0.129002 0 0.131029)
(0.130409 -5.64137e-05 0 0.128003 0 0.130481)
(0.129851 -5.87177e-05 0 0.127042 0 0.129948)
(0.129307 -5.82388e-05 0 0.126116 0 0.129431)
(0.128777 -5.5298e-05 0 0.125223 0 0.128928)
(0.128261 -5.02274e-05 0 0.124361 0 0.12844)
(0.127759 -4.33389e-05 0 0.123528 0 0.127966)
(0.127271 -3.4909e-05 0 0.122723 0 0.127505)
(0.126796 -2.51783e-05 0 0.121945 0 0.127057)
(0.126333 -1.43542e-05 0 0.121191 0 0.126622)
(0.125884 -2.61324e-06 0 0.120462 0 0.126199)
(0.125447 9.89616e-06 0 0.119755 0 0.125788)
(0.125023 2.30503e-05 0 0.11907 0 0.125389)
(0.12461 3.67464e-05 0 0.118407 0 0.125)
(0.124208 5.08998e-05 0 0.117763 0 0.124623)
(0.123818 6.54412e-05 0 0.117139 0 0.124255)
(0.123438 8.03142e-05 0 0.116534 0 0.123898)
(0.123069 9.54732e-05 0 0.115946 0 0.123551)
(0.12271 0.000110882 0 0.115376 0 0.123212)