/*--------------------------------*- C++ -*----------------------------------*\
| =========                 |                                                 |
| \\      /  F ield         | OpenFOAM: The Open Source CFD Toolbox           |
|  \\    /   O peration     | Version:  4.1                                   |
|   \\  /    A nd           | Web:      www.OpenFOAM.org                      |
|    \\/     M anipulation  |                                                 |
\*---------------------------------------------------------------------------*/
FoamFile
{
    version     2.0;
    format      ascii;
    class       volVectorField;
    location    "600";
    object      U;
}
// * * * * * * * * * * * * * * * * * * * * * * * * * * * * * * * * * * * * * //

dimensions      [0 1 -1 0 0 0 0];

internalField   nonuniform List<vector> 
6820
(
(7.2813 0.0192602 0)
(7.18936 0.0329221 0)
(7.08951 0.0360684 0)
(6.98491 0.0374721 0)
(6.88227 0.0387335 0)
(6.78312 0.0397543 0)
(6.6872 0.0405142 0)
(6.59475 0.0410278 0)
(6.50622 0.0412691 0)
(6.4218 0.0412162 0)
(6.34149 0.0408754 0)
(6.26519 0.0402739 0)
(6.19281 0.0394473 0)
(6.12421 0.0384331 0)
(6.05923 0.0372678 0)
(5.99771 0.0359855 0)
(5.93949 0.0346164 0)
(5.88439 0.0331866 0)
(5.83228 0.0317184 0)
(5.783 0.0302299 0)
(5.7364 0.0287364 0)
(5.69236 0.0272496 0)
(5.65074 0.0257791 0)
(5.61143 0.024332 0)
(5.57432 0.0229139 0)
(5.5393 0.0215288 0)
(5.50628 0.0201788 0)
(5.47517 0.0188685 0)
(5.44584 0.0175892 0)
(5.41839 0.016372 0)
(5.39208 0.0151509 0)
(5.36967 0.0138916 0)
(5.34316 0.0139698 0)
(7.35129 0.0206774 0)
(7.39587 0.0322608 0)
(7.42787 0.0326346 0)
(7.44987 0.0332004 0)
(7.46739 0.0343581 0)
(7.48119 0.0351422 0)
(7.49064 0.0355162 0)
(7.49593 0.0356508 0)
(7.49763 0.0356064 0)
(7.49622 0.0354035 0)
(7.49208 0.0350758 0)
(7.48558 0.0346611 0)
(7.47709 0.0341889 0)
(7.46693 0.0336796 0)
(7.4554 0.033147 0)
(7.44275 0.0326009 0)
(7.42922 0.0320479 0)
(7.41497 0.0314918 0)
(7.40019 0.0309348 0)
(7.38501 0.0303782 0)
(7.36956 0.0298222 0)
(7.35393 0.0292668 0)
(7.33821 0.0287116 0)
(7.32248 0.0281559 0)
(7.3068 0.027599 0)
(7.29122 0.0270403 0)
(7.27579 0.0264779 0)
(7.26055 0.025915 0)
(7.24553 0.0253344 0)
(7.23076 0.0247951 0)
(7.21631 0.0240852 0)
(7.20191 0.0238315 0)
(7.18898 0.0219446 0)
(7.33498 0.012497 0)
(7.34478 0.0201466 0)
(7.35181 0.021441 0)
(7.35496 0.0233104 0)
(7.35732 0.0252238 0)
(7.3598 0.0263791 0)
(7.362 0.0270157 0)
(7.36385 0.0274515 0)
(7.36548 0.0277874 0)
(7.36698 0.0280413 0)
(7.36828 0.0282314 0)
(7.36937 0.0283757 0)
(7.37022 0.0284829 0)
(7.37083 0.0285551 0)
(7.37117 0.0285921 0)
(7.37125 0.0285939 0)
(7.37106 0.0285604 0)
(7.3706 0.0284919 0)
(7.36988 0.0283887 0)
(7.36891 0.0282517 0)
(7.36769 0.0280818 0)
(7.36624 0.0278801 0)
(7.36457 0.0276481 0)
(7.3627 0.0273869 0)
(7.36063 0.0270979 0)
(7.35839 0.0267821 0)
(7.356 0.0264401 0)
(7.35346 0.0260736 0)
(7.35079 0.0256808 0)
(7.34802 0.0252639 0)
(7.34514 0.0248214 0)
(7.34218 0.0243002 0)
(7.33924 0.0238616 0)
(7.3347 0.00985736 0)
(7.34304 0.0202382 0)
(7.35045 0.0247364 0)
(7.35468 0.0280654 0)
(7.35779 0.0307856 0)
(7.36078 0.0326888 0)
(7.36344 0.0340265 0)
(7.36565 0.0350463 0)
(7.36758 0.0358166 0)
(7.36932 0.0363474 0)
(7.3709 0.0366623 0)
(7.37232 0.036795 0)
(7.3736 0.0367758 0)
(7.37477 0.0366299 0)
(7.37584 0.0363799 0)
(7.37682 0.0360459 0)
(7.37771 0.0356452 0)
(7.37853 0.035192 0)
(7.37928 0.034698 0)
(7.37996 0.0341728 0)
(7.38058 0.0336236 0)
(7.38114 0.0330563 0)
(7.38165 0.0324753 0)
(7.38211 0.0318836 0)
(7.38253 0.0312835 0)
(7.38291 0.0306763 0)
(7.38326 0.0300621 0)
(7.38358 0.0294421 0)
(7.38387 0.0288122 0)
(7.38415 0.0281789 0)
(7.38441 0.0275234 0)
(7.38466 0.026873 0)
(7.38491 0.0262257 0)
(7.33417 0.00784795 0)
(7.3405 0.0172855 0)
(7.34711 0.0212441 0)
(7.35171 0.0237391 0)
(7.35548 0.0258459 0)
(7.35921 0.0273757 0)
(7.36269 0.0284084 0)
(7.36581 0.0291402 0)
(7.36866 0.0296621 0)
(7.37134 0.0300076 0)
(7.37386 0.0302118 0)
(7.37623 0.0303104 0)
(7.37847 0.0303305 0)
(7.38058 0.0302904 0)
(7.38259 0.0302029 0)
(7.38449 0.0300777 0)
(7.3863 0.0299214 0)
(7.38803 0.0297387 0)
(7.38969 0.0295327 0)
(7.39127 0.0293053 0)
(7.39279 0.0290577 0)
(7.39426 0.0287907 0)
(7.39567 0.0285043 0)
(7.39704 0.0281985 0)
(7.39837 0.027873 0)
(7.39967 0.027527 0)
(7.40094 0.0271595 0)
(7.40218 0.0267697 0)
(7.40341 0.0263553 0)
(7.40463 0.0259161 0)
(7.40584 0.0254484 0)
(7.40704 0.0249554 0)
(7.40828 0.0244498 0)
(7.33381 0.00630772 0)
(7.33861 0.0150522 0)
(7.34442 0.0196731 0)
(7.34904 0.0229083 0)
(7.35295 0.0256549 0)
(7.35676 0.0277453 0)
(7.36038 0.0292513 0)
(7.36369 0.0303856 0)
(7.36678 0.0312607 0)
(7.36971 0.0319169 0)
(7.37249 0.0323861 0)
(7.37513 0.0327003 0)
(7.37765 0.0328847 0)
(7.38005 0.032958 0)
(7.38235 0.0329359 0)
(7.38456 0.0328317 0)
(7.38668 0.0326572 0)
(7.38873 0.0324224 0)
(7.3907 0.0321356 0)
(7.39262 0.0318039 0)
(7.39448 0.0314332 0)
(7.39628 0.0310284 0)
(7.39805 0.0305932 0)
(7.39977 0.0301307 0)
(7.40145 0.029643 0)
(7.40311 0.0291316 0)
(7.40474 0.028597 0)
(7.40635 0.0280395 0)
(7.40795 0.0274581 0)
(7.40953 0.0268523 0)
(7.41111 0.0262201 0)
(7.4127 0.025559 0)
(7.4143 0.0248785 0)
(7.33356 0.0051924 0)
(7.33722 0.0131513 0)
(7.34215 0.0178489 0)
(7.34647 0.0210083 0)
(7.35023 0.0235007 0)
(7.35391 0.0253417 0)
(7.35746 0.0266305 0)
(7.36078 0.0275609 0)
(7.36391 0.028241 0)
(7.36689 0.0287142 0)
(7.36974 0.0290155 0)
(7.37248 0.0291802 0)
(7.37509 0.0292365 0)
(7.37761 0.0292059 0)
(7.38004 0.0291051 0)
(7.38238 0.0289477 0)
(7.38465 0.0287444 0)
(7.38684 0.0285034 0)
(7.38897 0.0282309 0)
(7.39105 0.0279314 0)
(7.39307 0.027608 0)
(7.39505 0.0272631 0)
(7.39698 0.0268978 0)
(7.39887 0.0265127 0)
(7.40073 0.0261078 0)
(7.40256 0.0256824 0)
(7.40436 0.0252354 0)
(7.40615 0.0247651 0)
(7.40791 0.0242692 0)
(7.40966 0.0237451 0)
(7.41141 0.0231896 0)
(7.41315 0.0225959 0)
(7.4149 0.0219654 0)
(7.33341 0.0043535 0)
(7.33622 0.0115113 0)
(7.34039 0.0161782 0)
(7.34439 0.0194297 0)
(7.34802 0.0220356 0)
(7.35159 0.0240705 0)
(7.35507 0.0255933 0)
(7.35837 0.0267517 0)
(7.3615 0.027645 0)
(7.36451 0.0283199 0)
(7.36739 0.0288118 0)
(7.37016 0.0291542 0)
(7.37282 0.0293736 0)
(7.37538 0.0294894 0)
(7.37786 0.0295169 0)
(7.38026 0.0294687 0)
(7.38258 0.0293549 0)
(7.38483 0.0291839 0)
(7.38702 0.0289623 0)
(7.38915 0.0286956 0)
(7.39123 0.0283881 0)
(7.39326 0.0280434 0)
(7.39525 0.0276642 0)
(7.3972 0.0272524 0)
(7.39912 0.0268094 0)
(7.401 0.0263357 0)
(7.40286 0.0258314 0)
(7.4047 0.0252958 0)
(7.40652 0.0247275 0)
(7.40832 0.0241244 0)
(7.41011 0.0234833 0)
(7.41189 0.0227983 0)
(7.41367 0.0220674 0)
(7.3333 0.00371056 0)
(7.3355 0.0101254 0)
(7.33902 0.0146525 0)
(7.34267 0.0178895 0)
(7.34609 0.0204424 0)
(7.34947 0.0224225 0)
(7.3528 0.0238887 0)
(7.35601 0.0249745 0)
(7.35907 0.0257829 0)
(7.36203 0.0263681 0)
(7.36488 0.0267687 0)
(7.36763 0.0270192 0)
(7.37028 0.0271477 0)
(7.37285 0.0271754 0)
(7.37534 0.0271194 0)
(7.37775 0.0269936 0)
(7.38009 0.0268093 0)
(7.38237 0.0265756 0)
(7.38459 0.0262997 0)
(7.38676 0.0259871 0)
(7.38887 0.0256421 0)
(7.39094 0.0252678 0)
(7.39297 0.0248665 0)
(7.39496 0.0244394 0)
(7.39692 0.0239871 0)
(7.39884 0.0235094 0)
(7.40074 0.0230054 0)
(7.40261 0.0224737 0)
(7.40447 0.0219121 0)
(7.4063 0.0213174 0)
(7.40811 0.0206858 0)
(7.40992 0.0200105 0)
(7.41171 0.0192885 0)
(7.33324 0.00320594 0)
(7.33498 0.00894382 0)
(7.33796 0.0132515 0)
(7.34126 0.0164257 0)
(7.34447 0.0189341 0)
(7.34767 0.0209151 0)
(7.35086 0.0224293 0)
(7.35397 0.0235857 0)
(7.35697 0.0244753 0)
(7.35988 0.0251491 0)
(7.3627 0.0256429 0)
(7.36543 0.0259883 0)
(7.36808 0.0262113 0)
(7.37064 0.0263317 0)
(7.37313 0.0263652 0)
(7.37555 0.0263243 0)
(7.3779 0.0262192 0)
(7.38019 0.0260582 0)
(7.38242 0.0258474 0)
(7.38459 0.0255921 0)
(7.38672 0.0252962 0)
(7.3888 0.0249625 0)
(7.39084 0.0245933 0)
(7.39283 0.0241899 0)
(7.3948 0.0237533 0)
(7.39673 0.0232834 0)
(7.39863 0.0227799 0)
(7.4005 0.0222416 0)
(7.40234 0.0216669 0)
(7.40417 0.0210532 0)
(7.40597 0.0203972 0)
(7.40775 0.0196934 0)
(7.4095 0.01894 0)
(7.33319 0.00279926 0)
(7.3346 0.00793048 0)
(7.33714 0.0119756 0)
(7.3401 0.0150478 0)
(7.34309 0.0174858 0)
(7.3461 0.0194253 0)
(7.34913 0.0209223 0)
(7.35212 0.0220643 0)
(7.35503 0.022933 0)
(7.35786 0.0235802 0)
(7.36062 0.0240428 0)
(7.3633 0.0243527 0)
(7.3659 0.0245361 0)
(7.36843 0.0246137 0)
(7.37089 0.0246019 0)
(7.37329 0.0245141 0)
(7.37562 0.0243612 0)
(7.37789 0.0241521 0)
(7.38011 0.0238939 0)
(7.38228 0.0235922 0)
(7.3844 0.0232514 0)
(7.38648 0.0228749 0)
(7.38851 0.0224651 0)
(7.3905 0.0220238 0)
(7.39246 0.0215517 0)
(7.39438 0.0210491 0)
(7.39628 0.0205155 0)
(7.39814 0.0199499 0)
(7.39998 0.0193506 0)
(7.40179 0.018715 0)
(7.40357 0.0180403 0)
(7.40532 0.0173215 0)
(7.40706 0.0165576 0)
(7.33316 0.00246324 0)
(7.33432 0.00705372 0)
(7.3365 0.0108131 0)
(7.33916 0.0137493 0)
(7.34192 0.0160969 0)
(7.34475 0.0179805 0)
(7.34763 0.0194559 0)
(7.35049 0.0205967 0)
(7.3533 0.0214757 0)
(7.35606 0.0221428 0)
(7.35875 0.0226335 0)
(7.36139 0.0229772 0)
(7.36395 0.0231988 0)
(7.36645 0.0233175 0)
(7.36889 0.0233487 0)
(7.37126 0.023305 0)
(7.37358 0.0231964 0)
(7.37584 0.023031 0)
(7.37805 0.0228153 0)
(7.38021 0.0225542 0)
(7.38232 0.0222518 0)
(7.38438 0.0219108 0)
(7.38641 0.0215335 0)
(7.38839 0.0211212 0)
(7.39033 0.0206747 0)
(7.39224 0.020194 0)
(7.39412 0.0196787 0)
(7.39596 0.019128 0)
(7.39778 0.0185403 0)
(7.39956 0.0179138 0)
(7.40131 0.017246 0)
(7.40303 0.0165333 0)
(7.40471 0.0157759 0)
(7.33314 0.00217912 0)
(7.33411 0.00628711 0)
(7.33599 0.0097525 0)
(7.33838 0.0125286 0)
(7.34094 0.01477 0)
(7.34359 0.0165825 0)
(7.34631 0.0180184 0)
(7.34904 0.0191377 0)
(7.35175 0.0200022 0)
(7.35442 0.0206578 0)
(7.35704 0.0211381 0)
(7.35961 0.0214708 0)
(7.36212 0.0216796 0)
(7.36457 0.0217833 0)
(7.36697 0.0217972 0)
(7.36931 0.0217338 0)
(7.37159 0.0216032 0)
(7.37382 0.0214136 0)
(7.376 0.0211719 0)
(7.37813 0.0208832 0)
(7.38022 0.020552 0)
(7.38226 0.0201813 0)
(7.38426 0.0197737 0)
(7.38622 0.0193309 0)
(7.38814 0.0188539 0)
(7.39003 0.0183433 0)
(7.39188 0.0177989 0)
(7.3937 0.0172202 0)
(7.39548 0.0166063 0)
(7.39723 0.0159557 0)
(7.39894 0.0152669 0)
(7.40062 0.0145372 0)
(7.40226 0.0137677 0)
(7.33312 0.00193388 0)
(7.33395 0.0056094 0)
(7.33559 0.0087821 0)
(7.33774 0.0113809 0)
(7.3401 0.0135018 0)
(7.34258 0.0152299 0)
(7.34515 0.0166128 0)
(7.34776 0.0177004 0)
(7.35037 0.0185457 0)
(7.35294 0.0191911 0)
(7.35549 0.0196683 0)
(7.35799 0.0200038 0)
(7.36045 0.0202197 0)
(7.36286 0.0203341 0)
(7.36521 0.0203614 0)
(7.36752 0.0203137 0)
(7.36977 0.0202004 0)
(7.37198 0.0200295 0)
(7.37413 0.0198072 0)
(7.37624 0.0195385 0)
(7.37831 0.0192274 0)
(7.38033 0.0188769 0)
(7.3823 0.0184891 0)
(7.38424 0.0180656 0)
(7.38614 0.0176074 0)
(7.388 0.0171148 0)
(7.38983 0.0165879 0)
(7.39161 0.0160263 0)
(7.39336 0.0154292 0)
(7.39508 0.0147956 0)
(7.39675 0.0141246 0)
(7.39839 0.0134141 0)
(7.39998 0.0126659 0)
(7.33311 0.00171835 0)
(7.33382 0.00500355 0)
(7.33526 0.0078904 0)
(7.3372 0.0103008 0)
(7.33938 0.0122898 0)
(7.34171 0.0139226 0)
(7.34414 0.0152408 0)
(7.34663 0.0162858 0)
(7.34912 0.0171021 0)
(7.35161 0.0177273 0)
(7.35408 0.0181905 0)
(7.35652 0.0185158 0)
(7.35892 0.0187236 0)
(7.36127 0.0188307 0)
(7.36358 0.0188508 0)
(7.36584 0.0187953 0)
(7.36806 0.0186734 0)
(7.37022 0.0184927 0)
(7.37235 0.0182593 0)
(7.37442 0.0179782 0)
(7.37645 0.0176534 0)
(7.37844 0.017288 0)
(7.38039 0.0168843 0)
(7.3823 0.0164441 0)
(7.38416 0.0159685 0)
(7.38599 0.0154585 0)
(7.38778 0.0149142 0)
(7.38953 0.0143358 0)
(7.39124 0.0137229 0)
(7.39291 0.0130753 0)
(7.39455 0.0123925 0)
(7.39614 0.0116737 0)
(7.39769 0.0109211 0)
(7.3331 0.00152594 0)
(7.33372 0.00445599 0)
(7.335 0.00706679 0)
(7.33676 0.00928237 0)
(7.33878 0.0111304 0)
(7.34096 0.0126586 0)
(7.34325 0.0139018 0)
(7.34562 0.0148943 0)
(7.34802 0.0156735 0)
(7.35042 0.0162721 0)
(7.35281 0.0167169 0)
(7.35518 0.0170299 0)
(7.35752 0.0172299 0)
(7.35982 0.017333 0)
(7.36208 0.0173519 0)
(7.3643 0.0172975 0)
(7.36648 0.0171786 0)
(7.36861 0.0170024 0)
(7.3707 0.0167748 0)
(7.37274 0.0165006 0)
(7.37474 0.0161836 0)
(7.3767 0.0158268 0)
(7.37862 0.0154325 0)
(7.3805 0.0150024 0)
(7.38233 0.0145377 0)
(7.38413 0.0140393 0)
(7.38588 0.0135076 0)
(7.3876 0.0129428 0)
(7.38928 0.0123451 0)
(7.39091 0.0117143 0)
(7.39251 0.0110506 0)
(7.39406 0.0103533 0)
(7.39556 0.00962509 0)
(7.3331 0.00135176 0)
(7.33364 0.0039559 0)
(7.33479 0.0063016 0)
(7.33639 0.00831948 0)
(7.33826 0.0100196 0)
(7.3403 0.0114353 0)
(7.34247 0.0125948 0)
(7.34473 0.0135263 0)
(7.34703 0.0142606 0)
(7.34934 0.014826 0)
(7.35166 0.0152463 0)
(7.35396 0.0155413 0)
(7.35624 0.0157281 0)
(7.35849 0.0158212 0)
(7.3607 0.0158325 0)
(7.36287 0.0157719 0)
(7.36501 0.0156476 0)
(7.3671 0.0154665 0)
(7.36915 0.015234 0)
(7.37116 0.0149549 0)
(7.37312 0.0146326 0)
(7.37505 0.0142702 0)
(7.37693 0.01387 0)
(7.37877 0.0134338 0)
(7.38057 0.0129629 0)
(7.38233 0.0124583 0)
(7.38405 0.0119209 0)
(7.38573 0.0113511 0)
(7.38736 0.0107494 0)
(7.38896 0.0101162 0)
(7.39051 0.00945192 0)
(7.39201 0.00875677 0)
(7.39347 0.00803372 0)
(7.33309 0.00119215 0)
(7.33358 0.00349455 0)
(7.33461 0.00558616 0)
(7.33608 0.00740589 0)
(7.33782 0.00895313 0)
(7.33974 0.0102498 0)
(7.34179 0.0113181 0)
(7.34394 0.0121808 0)
(7.34615 0.0128632 0)
(7.34838 0.0133892 0)
(7.35062 0.0137797 0)
(7.35286 0.0140524 0)
(7.35507 0.0142226 0)
(7.35727 0.0143035 0)
(7.35943 0.014306 0)
(7.36156 0.0142395 0)
(7.36365 0.0141114 0)
(7.36571 0.0139284 0)
(7.36772 0.0136956 0)
(7.36969 0.0134173 0)
(7.37162 0.0130972 0)
(7.37351 0.0127381 0)
(7.37536 0.0123422 0)
(7.37717 0.0119115 0)
(7.37894 0.0114474 0)
(7.38066 0.0109509 0)
(7.38234 0.0104232 0)
(7.38398 0.00986474 0)
(7.38558 0.00927637 0)
(7.38714 0.00865868 0)
(7.38865 0.00801251 0)
(7.39011 0.00733818 0)
(7.39153 0.00663875 0)
(7.33309 0.00104422 0)
(7.33353 0.00306481 0)
(7.33447 0.00491271 0)
(7.33582 0.00653541 0)
(7.33744 0.00792625 0)
(7.33925 0.00909876 0)
(7.3412 0.0100695 0)
(7.34325 0.0108566 0)
(7.34537 0.0114806 0)
(7.34752 0.0119615 0)
(7.34969 0.0123172 0)
(7.35186 0.0125632 0)
(7.35402 0.0127131 0)
(7.35616 0.0127785 0)
(7.35828 0.0127693 0)
(7.36036 0.0126939 0)
(7.36241 0.0125593 0)
(7.36442 0.0123714 0)
(7.3664 0.0121351 0)
(7.36833 0.0118543 0)
(7.37023 0.0115324 0)
(7.37208 0.0111722 0)
(7.37389 0.0107759 0)
(7.37566 0.0103453 0)
(7.37739 0.00988188 0)
(7.37908 0.00938696 0)
(7.38073 0.00886157 0)
(7.38233 0.00830665 0)
(7.38389 0.0077231 0)
(7.3854 0.0071118 0)
(7.38687 0.00647385 0)
(7.38829 0.00580993 0)
(7.38967 0.00512319 0)
(7.33308 0.000905669 0)
(7.33348 0.00266078 0)
(7.33435 0.0042743 0)
(7.3356 0.00570196 0)
(7.33712 0.0069341 0)
(7.33883 0.00797819 0)
(7.34068 0.00884603 0)
(7.34265 0.0095518 0)
(7.34468 0.0101117 0)
(7.34676 0.0105423 0)
(7.34886 0.0108586 0)
(7.35097 0.0110738 0)
(7.35307 0.0111999 0)
(7.35516 0.0112471 0)
(7.35723 0.0112241 0)
(7.35927 0.0111384 0)
(7.36127 0.0109965 0)
(7.36325 0.0108036 0)
(7.36518 0.0105642 0)
(7.36708 0.0102822 0)
(7.36894 0.0099607 0)
(7.37076 0.00960229 0)
(7.37253 0.0092092 0)
(7.37427 0.00878325 0)
(7.37596 0.00832602 0)
(7.37761 0.00783884 0)
(7.37922 0.00732291 0)
(7.38078 0.00677931 0)
(7.38231 0.00620913 0)
(7.38378 0.00561341 0)
(7.38521 0.0049934 0)
(7.3866 0.00434992 0)
(7.38794 0.00368605 0)
(7.33308 0.000774591 0)
(7.33345 0.00227738 0)
(7.33425 0.00366462 0)
(7.33542 0.00489957 0)
(7.33685 0.00597157 0)
(7.33847 0.00688384 0)
(7.34024 0.00764432 0)
(7.34212 0.00826365 0)
(7.34408 0.00875448 0)
(7.34609 0.00912999 0)
(7.34813 0.00940258 0)
(7.35018 0.00958343 0)
(7.35223 0.00968256 0)
(7.35426 0.00970879 0)
(7.35628 0.00966976 0)
(7.35828 0.00957204 0)
(7.36024 0.00942124 0)
(7.36218 0.00922216 0)
(7.36407 0.00897885 0)
(7.36593 0.00869474 0)
(7.36775 0.00837272 0)
(7.36954 0.00801524 0)
(7.37128 0.00762439 0)
(7.37298 0.00720194 0)
(7.37463 0.00674945 0)
(7.37625 0.00626828 0)
(7.37782 0.00575968 0)
(7.37934 0.00522484 0)
(7.38083 0.00466492 0)
(7.38227 0.00408109 0)
(7.38366 0.00347469 0)
(7.38501 0.00284671 0)
(7.38631 0.00220018 0)
(7.33308 0.000649327 0)
(7.33342 0.00191016 0)
(7.33417 0.0030778 0)
(7.33527 0.00412234 0)
(7.33663 0.00503331 0)
(7.33817 0.0058111 0)
(7.33986 0.00646055 0)
(7.34167 0.00698924 0)
(7.34356 0.00740668 0)
(7.34551 0.00772309 0)
(7.34749 0.00794832 0)
(7.34948 0.00809151 0)
(7.35148 0.00816091 0)
(7.35347 0.00816391 0)
(7.35544 0.00810699 0)
(7.35739 0.00799578 0)
(7.35932 0.00783518 0)
(7.36121 0.00762937 0)
(7.36307 0.00738197 0)
(7.36489 0.00709607 0)
(7.36668 0.00677433 0)
(7.36842 0.00641903 0)
(7.37013 0.00603216 0)
(7.37179 0.00561544 0)
(7.37341 0.00517043 0)
(7.37499 0.00469853 0)
(7.37652 0.00420104 0)
(7.37801 0.00367922 0)
(7.37946 0.00313431 0)
(7.38086 0.00256756 0)
(7.38222 0.00198037 0)
(7.38353 0.00137373 0)
(7.3848 0.000750534 0)
(7.33308 0.000528371 0)
(7.3334 0.00155505 0)
(7.3341 0.00250827 0)
(7.33515 0.00336427 0)
(7.33644 0.00411351 0)
(7.33792 0.00475457 0)
(7.33955 0.00528982 0)
(7.3413 0.00572422 0)
(7.34312 0.00606451 0)
(7.34501 0.0063182 0)
(7.34694 0.00649279 0)
(7.34888 0.00659539 0)
(7.35083 0.00663256 0)
(7.35277 0.00661023 0)
(7.3547 0.00653371 0)
(7.35661 0.00640768 0)
(7.3585 0.00623624 0)
(7.36035 0.00602295 0)
(7.36217 0.00577092 0)
(7.36396 0.00548286 0)
(7.36571 0.00516111 0)
(7.36742 0.00480775 0)
(7.36909 0.00442457 0)
(7.37072 0.0040132 0)
(7.3723 0.00357513 0)
(7.37384 0.0031117 0)
(7.37534 0.00262423 0)
(7.3768 0.00211396 0)
(7.37821 0.00158215 0)
(7.37958 0.00103007 0)
(7.3809 0.000459112 0)
(7.38218 -0.000129659 0)
(7.38341 -0.000733456 0)
(7.33307 0.000410234 0)
(7.33338 0.0012081 0)
(7.33405 0.00195062 0)
(7.33506 0.00261954 0)
(7.3363 0.0032066 0)
(7.33772 0.00370928 0)
(7.33929 0.00412798 0)
(7.34099 0.00446532 0)
(7.34276 0.00472555 0)
(7.3446 0.00491373 0)
(7.34647 0.00503511 0)
(7.34837 0.00509484 0)
(7.35027 0.00509781 0)
(7.35218 0.00504856 0)
(7.35407 0.00495122 0)
(7.35594 0.00480952 0)
(7.35778 0.00462679 0)
(7.3596 0.00440597 0)
(7.36139 0.00414969 0)
(7.36314 0.00386027 0)
(7.36485 0.00353977 0)
(7.36652 0.00319004 0)
(7.36816 0.00281273 0)
(7.36975 0.00240936 0)
(7.3713 0.00198133 0)
(7.37281 0.00152997 0)
(7.37427 0.00105655 0)
(7.37569 0.000562318 0)
(7.37707 4.85217e-05 0)
(7.3784 -0.000483598 0)
(7.37969 -0.00103268 0)
(7.38093 -0.00159775 0)
(7.38213 -0.00217624 0)
(7.33307 0.000293389 0)
(7.33337 0.000865128 0)
(7.33402 0.00139867 0)
(7.33499 0.00188077 0)
(7.33619 0.00230472 0)
(7.33757 0.00266731 0)
(7.3391 0.00296726 0)
(7.34074 0.00320513 0)
(7.34248 0.00338286 0)
(7.34427 0.00350319 0)
(7.3461 0.00356924 0)
(7.34795 0.00358423 0)
(7.34982 0.00355139 0)
(7.35168 0.00347382 0)
(7.35353 0.00335447 0)
(7.35537 0.00319603 0)
(7.35718 0.00300102 0)
(7.35896 0.00277169 0)
(7.36071 0.00251013 0)
(7.36243 0.00221822 0)
(7.36411 0.00189766 0)
(7.36575 0.00155004 0)
(7.36735 0.0011768 0)
(7.36891 0.00077931 0)
(7.37042 0.000358858 0)
(7.3719 -8.33151e-05 0)
(7.37333 -0.000545998 0)
(7.37472 -0.00102799 0)
(7.37606 -0.00152808 0)
(7.37736 -0.00204505 0)
(7.37862 -0.00257759 0)
(7.37983 -0.00312466 0)
(7.381 -0.00368379 0)
(7.33307 0.000176874 0)
(7.33336 0.000523663 0)
(7.33399 0.000849078 0)
(7.33494 0.00114443 0)
(7.33611 0.00140466 0)
(7.33746 0.00162605 0)
(7.33896 0.00180585 0)
(7.34057 0.00194265 0)
(7.34226 0.00203625 0)
(7.34402 0.00208719 0)
(7.34581 0.00209651 0)
(7.34763 0.00206559 0)
(7.34946 0.00199609 0)
(7.35129 0.00188977 0)
(7.3531 0.00174842 0)
(7.3549 0.00157383 0)
(7.35668 0.00136772 0)
(7.35843 0.00113173 0)
(7.36014 0.000867418 0)
(7.36182 0.000576247 0)
(7.36347 0.000259598 0)
(7.36508 -8.12289e-05 0)
(7.36664 -0.000444996 0)
(7.36817 -0.000830518 0)
(7.36965 -0.00123665 0)
(7.37109 -0.00166226 0)
(7.37249 -0.00210625 0)
(7.37385 -0.0025675 0)
(7.37516 -0.00304489 0)
(7.37642 -0.00353732 0)
(7.37765 -0.00404358 0)
(7.37882 -0.00456285 0)
(7.37996 -0.00509294 0)
(7.33307 5.9365e-05 0)
(7.33336 0.000179191 0)
(7.33398 0.000294566 0)
(7.33491 0.000401446 0)
(7.33607 0.000496395 0)
(7.33739 0.000575189 0)
(7.33887 0.000633551 0)
(7.34045 0.000668141 0)
(7.34212 0.000676584 0)
(7.34384 0.000657193 0)
(7.34561 0.000608865 0)
(7.3474 0.000531068 0)
(7.3492 0.000423745 0)
(7.35099 0.000287198 0)
(7.35278 0.000121983 0)
(7.35455 -7.11537e-05 0)
(7.35629 -0.000291338 0)
(7.35801 -0.000537613 0)
(7.35969 -0.000808976 0)
(7.36135 -0.0011044 0)
(7.36296 -0.00142286 0)
(7.36454 -0.00176331 0)
(7.36607 -0.00212472 0)
(7.36757 -0.00250608 0)
(7.36902 -0.00290635 0)
(7.37043 -0.00332451 0)
(7.3718 -0.00375952 0)
(7.37313 -0.00421034 0)
(7.37441 -0.00467589 0)
(7.37565 -0.00515511 0)
(7.37684 -0.00564681 0)
(7.37799 -0.00615003 0)
(7.3791 -0.00666265 0)
(7.33307 -6.06142e-05 0)
(7.33336 -0.000173083 0)
(7.33398 -0.000272429 0)
(7.33491 -0.000357495 0)
(7.33606 -0.000430179 0)
(7.33738 -0.000495562 0)
(7.33884 -0.000559699 0)
(7.34041 -0.000627996 0)
(7.34206 -0.000705017 0)
(7.34376 -0.000794632 0)
(7.34551 -0.000899944 0)
(7.34727 -0.00102324 0)
(7.34904 -0.00116608 0)
(7.35081 -0.00132949 0)
(7.35257 -0.00151401 0)
(7.35431 -0.00171987 0)
(7.35602 -0.001947 0)
(7.35771 -0.00219513 0)
(7.35936 -0.00246384 0)
(7.36098 -0.0027526 0)
(7.36256 -0.00306079 0)
(7.36411 -0.00338772 0)
(7.36561 -0.00373267 0)
(7.36708 -0.00409487 0)
(7.3685 -0.0044735 0)
(7.36988 -0.00486774 0)
(7.37121 -0.00527672 0)
(7.3725 -0.00569957 0)
(7.37375 -0.00613537 0)
(7.37496 -0.00658323 0)
(7.37612 -0.00704217 0)
(7.37724 -0.00751159 0)
(7.37833 -0.00798972 0)
(7.33307 -0.000184803 0)
(7.33336 -0.0005377 0)
(7.33399 -0.000858276 0)
(7.33494 -0.00113947 0)
(7.3361 -0.00138196 0)
(7.33743 -0.00159237 0)
(7.33889 -0.00177906 0)
(7.34045 -0.00194988 0)
(7.3421 -0.00211209 0)
(7.34379 -0.00227227 0)
(7.34552 -0.002436 0)
(7.34727 -0.00260768 0)
(7.34902 -0.00279062 0)
(7.35077 -0.00298728 0)
(7.3525 -0.00319937 0)
(7.35422 -0.00342803 0)
(7.35591 -0.00367391 0)
(7.35757 -0.00393731 0)
(7.3592 -0.00421825 0)
(7.3608 -0.00451653 0)
(7.36235 -0.00483181 0)
(7.36387 -0.0051636 0)
(7.36535 -0.00551133 0)
(7.36679 -0.00587437 0)
(7.36818 -0.006252 0)
(7.36954 -0.00664349 0)
(7.37085 -0.00704803 0)
(7.37211 -0.00746481 0)
(7.37334 -0.00789296 0)
(7.37452 -0.00833161 0)
(7.37566 -0.00877977 0)
(7.37675 -0.00923661 0)
(7.3778 -0.00970033 0)
(7.33307 -0.000316234 0)
(7.33338 -0.000923071 0)
(7.33403 -0.00147527 0)
(7.335 -0.00195888 0)
(7.3362 -0.00237418 0)
(7.33754 -0.00273061 0)
(7.33902 -0.00303934 0)
(7.3406 -0.00331057 0)
(7.34225 -0.00355389 0)
(7.34394 -0.00377824 0)
(7.34566 -0.00399142 0)
(7.34739 -0.00419974 0)
(7.34913 -0.00440825 0)
(7.35086 -0.00462094 0)
(7.35257 -0.00484086 0)
(7.35426 -0.00507031 0)
(7.35592 -0.00531093 0)
(7.35756 -0.00556385 0)
(7.35916 -0.00582979 0)
(7.36072 -0.00610915 0)
(7.36225 -0.00640208 0)
(7.36374 -0.00670851 0)
(7.36519 -0.00702823 0)
(7.36659 -0.00736089 0)
(7.36796 -0.00770607 0)
(7.36928 -0.00806325 0)
(7.37056 -0.00843183 0)
(7.3718 -0.00881121 0)
(7.37299 -0.00920072 0)
(7.37414 -0.00959971 0)
(7.37525 -0.0100075 0)
(7.37632 -0.0104236 0)
(7.37735 -0.0108467 0)
(7.33308 -0.000458769 0)
(7.3334 -0.00133969 0)
(7.3341 -0.00213797 0)
(7.33512 -0.00283141 0)
(7.33636 -0.00342172 0)
(7.33775 -0.00392389 0)
(7.33926 -0.00435419 0)
(7.34087 -0.00472715 0)
(7.34254 -0.00505636 0)
(7.34424 -0.00535428 0)
(7.34597 -0.00563125 0)
(7.3477 -0.00589536 0)
(7.34944 -0.00615298 0)
(7.35116 -0.00640907 0)
(7.35286 -0.00666741 0)
(7.35454 -0.00693083 0)
(7.35619 -0.00720141 0)
(7.35781 -0.00748059 0)
(7.35939 -0.00776937 0)
(7.36094 -0.00806837 0)
(7.36245 -0.00837793 0)
(7.36391 -0.00869815 0)
(7.36534 -0.00902894 0)
(7.36672 -0.0093701 0)
(7.36807 -0.00972128 0)
(7.36937 -0.0100821 0)
(7.37062 -0.010452 0)
(7.37184 -0.0108304 0)
(7.37301 -0.0112168 0)
(7.37413 -0.0116105 0)
(7.37522 -0.0120108 0)
(7.37626 -0.0124169 0)
(7.37726 -0.0128275 0)
(7.33308 -0.000617865 0)
(7.33344 -0.00180238 0)
(7.3342 -0.00286671 0)
(7.33531 -0.00377936 0)
(7.33662 -0.00454652 0)
(7.33807 -0.0051901 0)
(7.33964 -0.00573005 0)
(7.34128 -0.0061838 0)
(7.34297 -0.00656917 0)
(7.34469 -0.00690318 0)
(7.34642 -0.00720002 0)
(7.34815 -0.00747091 0)
(7.34987 -0.00772479 0)
(7.35158 -0.00796877 0)
(7.35326 -0.00820834 0)
(7.35492 -0.00844767 0)
(7.35655 -0.00868983 0)
(7.35814 -0.00893709 0)
(7.3597 -0.00919108 0)
(7.36122 -0.00945292 0)
(7.3627 -0.00972334 0)
(7.36414 -0.0100028 0)
(7.36553 -0.0102914 0)
(7.36689 -0.0105892 0)
(7.3682 -0.0108961 0)
(7.36947 -0.0112118 0)
(7.3707 -0.0115361 0)
(7.37188 -0.0118684 0)
(7.37302 -0.0122085 0)
(7.37412 -0.0125559 0)
(7.37518 -0.01291 0)
(7.3762 -0.0132707 0)
(7.37718 -0.0136369 0)
(7.33308 -0.000801925 0)
(7.3335 -0.00233313 0)
(7.33436 -0.00368822 0)
(7.33559 -0.0048277 0)
(7.33701 -0.00577534 0)
(7.33856 -0.00657166 0)
(7.3402 -0.00724525 0)
(7.34191 -0.00781732 0)
(7.34366 -0.00830879 0)
(7.34542 -0.00873888 0)
(7.34719 -0.00912287 0)
(7.34894 -0.00947255 0)
(7.35068 -0.0097974 0)
(7.35239 -0.0101051 0)
(7.35407 -0.0104015 0)
(7.35573 -0.0106914 0)
(7.35734 -0.0109782 0)
(7.35892 -0.0112647 0)
(7.36047 -0.0115527 0)
(7.36197 -0.0118439 0)
(7.36343 -0.0121391 0)
(7.36484 -0.0124392 0)
(7.36622 -0.0127444 0)
(7.36755 -0.013055 0)
(7.36884 -0.0133711 0)
(7.37008 -0.0136925 0)
(7.37128 -0.0140191 0)
(7.37244 -0.0143506 0)
(7.37355 -0.0146867 0)
(7.37463 -0.0150269 0)
(7.37565 -0.0153709 0)
(7.37664 -0.0157182 0)
(7.37758 -0.0160679 0)
(7.33309 -0.00102457 0)
(7.3336 -0.00296838 0)
(7.33462 -0.0046484 0)
(7.33601 -0.0060124 0)
(7.33756 -0.00710482 0)
(7.33921 -0.00798502 0)
(7.34093 -0.00869369 0)
(7.34269 -0.00926526 0)
(7.34448 -0.00973368 0)
(7.34626 -0.0101272 0)
(7.34803 -0.0104664 0)
(7.34979 -0.0107665 0)
(7.35152 -0.0110393 0)
(7.35322 -0.0112938 0)
(7.35489 -0.0115368 0)
(7.35652 -0.0117732 0)
(7.35811 -0.0120069 0)
(7.35966 -0.0122405 0)
(7.36118 -0.0124762 0)
(7.36265 -0.0127153 0)
(7.36407 -0.0129589 0)
(7.36546 -0.0132078 0)
(7.3668 -0.0134624 0)
(7.36809 -0.013723 0)
(7.36935 -0.0139897 0)
(7.37055 -0.0142624 0)
(7.37172 -0.0145411 0)
(7.37284 -0.0148256 0)
(7.37392 -0.0151156 0)
(7.37496 -0.0154109 0)
(7.37596 -0.015711 0)
(7.37692 -0.0160159 0)
(7.37784 -0.0163247 0)
(7.33311 -0.00130964 0)
(7.33375 -0.00375688 0)
(7.33503 -0.00580333 0)
(7.33668 -0.00744195 0)
(7.33847 -0.00878464 0)
(7.3403 -0.00990188 0)
(7.34217 -0.0108202 0)
(7.34405 -0.0115706 0)
(7.34592 -0.0121925 0)
(7.34776 -0.0127184 0)
(7.34956 -0.0131709 0)
(7.35133 -0.0135672 0)
(7.35306 -0.0139217 0)
(7.35474 -0.0142457 0)
(7.35639 -0.0145475 0)
(7.35799 -0.0148338 0)
(7.35955 -0.0151092 0)
(7.36107 -0.0153774 0)
(7.36254 -0.0156411 0)
(7.36397 -0.0159023 0)
(7.36535 -0.0161625 0)
(7.36668 -0.0164226 0)
(7.36797 -0.0166834 0)
(7.36922 -0.0169454 0)
(7.37042 -0.0172088 0)
(7.37157 -0.0174738 0)
(7.37268 -0.0177404 0)
(7.37375 -0.0180088 0)
(7.37478 -0.0182788 0)
(7.37576 -0.0185505 0)
(7.3767 -0.0188236 0)
(7.37759 -0.0190983 0)
(7.37844 -0.0193744 0)
(7.33314 -0.001714 0)
(7.33403 -0.00481232 0)
(7.33564 -0.00714101 0)
(7.33754 -0.00877749 0)
(7.33947 -0.0100063 0)
(7.3414 -0.0109794 0)
(7.34336 -0.0117453 0)
(7.34531 -0.0123488 0)
(7.3472 -0.0128389 0)
(7.34905 -0.0132501 0)
(7.35084 -0.013603 0)
(7.35259 -0.0139122 0)
(7.35428 -0.0141895 0)
(7.35592 -0.014444 0)
(7.35751 -0.0146824 0)
(7.35904 -0.0149097 0)
(7.36053 -0.0151298 0)
(7.36197 -0.0153458 0)
(7.36336 -0.0155599 0)
(7.36471 -0.015774 0)
(7.36601 -0.0159893 0)
(7.36726 -0.0162067 0)
(7.36847 -0.0164271 0)
(7.36963 -0.0166507 0)
(7.37075 -0.0168779 0)
(7.37182 -0.0171088 0)
(7.37286 -0.0173434 0)
(7.37384 -0.0175816 0)
(7.37479 -0.0178231 0)
(7.3757 -0.0180677 0)
(7.37657 -0.018315 0)
(7.3774 -0.0185645 0)
(7.37819 -0.0188157 0)
(7.33321 -0.00230754 0)
(7.33467 -0.00642945 0)
(7.33707 -0.00951877 0)
(7.33954 -0.0117619 0)
(7.34173 -0.0134656 0)
(7.34377 -0.0147636 0)
(7.34576 -0.0157348 0)
(7.34766 -0.016471 0)
(7.34944 -0.017049 0)
(7.35113 -0.0175164 0)
(7.35275 -0.0179033 0)
(7.35429 -0.0182327 0)
(7.35577 -0.0185215 0)
(7.35719 -0.0187816 0)
(7.35855 -0.0190211 0)
(7.35985 -0.0192455 0)
(7.36111 -0.0194589 0)
(7.36231 -0.0196641 0)
(7.36346 -0.0198632 0)
(7.36457 -0.0200576 0)
(7.36563 -0.0202485 0)
(7.36664 -0.0204367 0)
(7.36761 -0.0206227 0)
(7.36854 -0.0208072 0)
(7.36942 -0.0209904 0)
(7.37027 -0.0211727 0)
(7.37107 -0.0213544 0)
(7.37183 -0.0215357 0)
(7.37255 -0.0217168 0)
(7.37324 -0.0218984 0)
(7.37388 -0.022081 0)
(7.37449 -0.0222663 0)
(7.37506 -0.0224558 0)
(7.33323 -0.00330784 0)
(7.33508 -0.00748746 0)
(7.33785 -0.00963685 0)
(7.34038 -0.0111651 0)
(7.34248 -0.0125008 0)
(7.34435 -0.0135532 0)
(7.34605 -0.0143249 0)
(7.34755 -0.0149176 0)
(7.34886 -0.0154015 0)
(7.35004 -0.0158028 0)
(7.3511 -0.0161366 0)
(7.35208 -0.0164198 0)
(7.35298 -0.0166674 0)
(7.35381 -0.0168899 0)
(7.35459 -0.0170947 0)
(7.35533 -0.0172875 0)
(7.35602 -0.0174728 0)
(7.35668 -0.0176537 0)
(7.3573 -0.0178326 0)
(7.35789 -0.0180113 0)
(7.35845 -0.0181906 0)
(7.35898 -0.0183715 0)
(7.35949 -0.0185543 0)
(7.35996 -0.0187392 0)
(7.36041 -0.0189262 0)
(7.36084 -0.019115 0)
(7.36123 -0.0193055 0)
(7.36161 -0.019497 0)
(7.36195 -0.0196887 0)
(7.36228 -0.0198794 0)
(7.36257 -0.0200675 0)
(7.36284 -0.0202485 0)
(7.36307 -0.020423 0)
(7.33597 -0.00734893 0)
(7.3463 -0.0150982 0)
(7.35617 -0.0177391 0)
(7.36436 -0.0189004 0)
(7.37191 -0.0197835 0)
(7.37926 -0.0203622 0)
(7.38624 -0.020652 0)
(7.39271 -0.020802 0)
(7.39874 -0.0209099 0)
(7.40441 -0.0210011 0)
(7.40977 -0.0210797 0)
(7.41483 -0.0211512 0)
(7.41962 -0.0212206 0)
(7.42415 -0.0212899 0)
(7.42845 -0.0213592 0)
(7.43252 -0.0214283 0)
(7.43639 -0.0214973 0)
(7.44005 -0.0215663 0)
(7.44352 -0.0216353 0)
(7.44681 -0.0217046 0)
(7.44992 -0.0217745 0)
(7.45286 -0.021845 0)
(7.45564 -0.0219167 0)
(7.45827 -0.0219897 0)
(7.46075 -0.0220645 0)
(7.46308 -0.0221414 0)
(7.46529 -0.0222207 0)
(7.46736 -0.0223029 0)
(7.46932 -0.0223882 0)
(7.47116 -0.0224773 0)
(7.4729 -0.0225699 0)
(7.47454 -0.0226674 0)
(7.47613 -0.0227677 0)
(7.32333 -0.00889177 0)
(7.30977 -0.018186 0)
(7.29242 -0.0222766 0)