/*--------------------------------*- C++ -*----------------------------------*\
| =========                 |                                                 |
| \\      /  F ield         | OpenFOAM: The Open Source CFD Toolbox           |
|  \\    /   O peration     | Version:  4.1                                   |
|   \\  /    A nd           | Web:      www.OpenFOAM.org                      |
|    \\/     M anipulation  |                                                 |
\*---------------------------------------------------------------------------*/
FoamFile
{
    version     2.0;
    format      ascii;
    class       volScalarField;
    location    "700";
    object      p;
}
// * * * * * * * * * * * * * * * * * * * * * * * * * * * * * * * * * * * * * //

dimensions      [0 2 -2 0 0 0 0];

internalField   nonuniform List<scalar> 
26785
(
146.143
141.862
137.928
134.766
132.277
130.186
127.863
125.069
121.775
117.917
113.485
108.674
103.831
99.1457
94.9855
92.6553
93.3159
97.2173
104.484
114.229
125.283
136.925
148.765
160.543
172.034
183.039
193.426
203.137
212.141
220.374
227.813
234.562
240.504
245.72
250.536
252.07
250.08
247.332
245.349
244.321
243.99
244.121
244.327
244.212
243.69
242.535
240.197
236.507
231.963
226.708
220.926
214.801
208.458
201.949
195.255
188.284
180.879
172.857
164.07
154.479
144.195
133.46
122.576
111.837
101.478
91.6712
82.5477
74.2285
66.8229
60.3932
54.8991
50.1647
45.8929
41.7326
37.3772
32.6373
27.457
21.8824
16.023
10.0503
4.20828
-1.20669
-5.86194
-9.41564
-11.6745
-12.6182
-12.3277
-11.0605
-9.19677
-7.09928
-5.03869
-3.18553
-1.62988
-0.412612
0.473186
1.01508
1.33738
1.21187
1.48479
-0.377456
146.128
141.85
137.904
134.738
132.251
130.165
127.842
125.049
121.753
117.895
113.461
108.648
103.805
99.1164
94.9413
92.5904
93.2374
97.1222
104.39
114.148
125.213
136.862
148.708
160.491
171.987
182.995
193.384
203.097
212.101
220.332
227.769
234.512
240.433
245.588
250.274
251.794
249.871
247.233
245.296
244.3
243.988
244.105
244.282
244.177
243.66
242.473
240.099
236.422
231.868
226.606
220.823
214.703
208.367
201.866
195.183
188.221
180.823
172.801
164.004
154.394
144.087
133.33
122.431
111.685
101.328
91.5255
82.4073
74.093
66.6948
60.28
54.8114
50.1127
45.8807
41.7547
37.4202
32.6853
27.4956
21.9
16.0104
10.0014
4.12435
-1.31907
-6.00514
-9.59816
-11.8878
-12.8525
-12.5648
-11.2782
-9.38218
-7.24934
-5.15589
-3.27443
-1.69528
-0.458941
0.441717
0.994902
1.32284
1.20395
1.45639
-0.34042
146.087
141.813
137.847
134.675
132.198
130.123
127.802
125.01
121.716
117.856
113.419
108.605
103.763
99.0697
94.8652
92.4638
93.0726
96.9195
104.19
113.976
125.065
136.729
148.587
160.381
171.887
182.903
193.296
203.012
212.017
220.247
227.679
234.41
240.292
245.357
249.8
251.227
249.495
247.09
245.22
244.27
243.982
244.099
244.256
244.13
243.58
242.335
239.913
236.229
231.657
226.39
220.615
214.509
208.188
201.706
195.043
188.102
180.718
172.696
163.88
154.234
143.883
133.086
122.161
111.408
101.056
91.2654
82.1587
73.8538
66.4684
60.079
54.6556
50.0212
45.8616
41.7974
37.499
32.7689
27.5573
21.9214
15.9815
9.92207
4.00843
-1.45075
-6.15142
-9.78212
-12.1153
-13.1384
-12.8931
-11.6096
-9.68552
-7.50913
-5.36852
-3.44237
-1.8235
-0.553193
0.374899
0.949725
1.28878
1.18371
1.40287
-0.282758
146.019
141.741
137.751
134.577
132.116
130.059
127.744
124.956
121.664
117.805
113.368
108.555
103.717
99.0228
94.7808
92.3041
92.8531
96.6364
103.903
113.724
124.843
136.529
148.402
160.213
171.734
182.762
193.161
202.881
211.888
220.116
227.543
234.256
240.077
245.033
249.21
250.534
249.056
246.916
245.12
244.226
243.956
244.068
244.206
244.055
243.456
242.122
239.634
235.936
231.352
226.086
220.324
214.235
207.935
201.479
194.845
187.932
180.568
172.546
163.704
154.007
143.595
132.746
121.79
111.03
100.691
90.9208
81.8318
73.5397
66.1699
59.8131
54.4498
49.904
45.846
41.8692
37.6214
32.8973
27.653
21.9587
15.9469
9.81662
3.85356
-1.62143
-6.32819
-9.98857
-12.3594
-13.4462
-13.2599
-11.9942
-10.0488
-7.82812
-5.63462
-3.65533
-1.98731
-0.673723
0.289925
0.893244
1.24664
1.1603
1.33789
-0.211664
145.924
141.64
137.621
134.449
132.012
129.98
127.672
124.89
121.603
117.747
113.311
108.501
103.672
98.9822
94.6988
92.1263
92.5952
96.2907
103.543
113.402
124.556
136.265
148.158
159.989
171.53
182.572
192.98
202.706
211.716
219.942
227.362
234.047
239.787
244.623
248.566
249.818
248.603
246.72
245.006
244.177
243.923
244.026
244.135
243.946
243.279
241.846
239.286
235.565
230.97
225.708
219.961
213.893
207.619
201.193
194.595
187.718
180.378
172.356
163.48
153.722
143.238
132.328
121.339
110.577
100.259
90.5181
81.4528
73.1748
65.8203
59.499
54.2062
49.769
45.838
41.9712
37.786
33.0657
27.7753
22.0025
15.8977
9.6804
3.66471
-1.81115
-6.49634
-10.1648
-12.5704
-13.7215
-13.6062
-12.3759
-10.4241
-8.16877
-5.92652
-3.89392
-2.17372
-0.812248
0.191793
0.828208
1.1982
1.13415
1.26595
-0.136146
145.76
141.51
137.461
134.294
131.885
129.886
127.588
124.813
121.534
117.683
113.251
108.448
103.634
98.9534
94.6285
91.9437
92.3141
95.9006
103.126
113.023
124.214
135.947
147.86
159.713
171.278
182.338
192.756
202.488
211.502
219.726
227.136
233.779
239.429
244.147
247.891
249.111
248.153
246.504
244.874
244.116
243.877
243.968
244.04
243.8
243.054
241.515
238.878
235.131
230.527
225.27
219.54
213.496
207.251
200.86
194.303
187.465
180.152
172.127
163.212
153.384
142.821
131.847
120.827
110.07
99.7844
90.0823
81.0455
72.7811
65.4386
59.1517
53.9356
49.6237
45.8439
42.109
37.9983
33.2804
27.9304
22.0581
15.8355
9.50913
3.43021
-2.03846
-6.67716
-10.326
-12.7549
-13.9602
-13.9155
-12.7304
-10.784
-8.50414
-6.22016
-4.13783
-2.36615
-0.955485
0.0911047
0.763049
1.15071
1.11066
1.19443
-0.0588057
145.542
141.358
137.274
134.115
131.741
129.779
127.493
124.729
121.459
117.615
113.191
108.398
103.603
98.9406
94.576
91.7662
92.0193
95.4788
102.666
112.601
123.827
135.583
147.515
159.391
170.982
182.062
192.491
202.231
211.25
219.473
226.865
233.453
239.017
243.63
247.205
248.425
247.707
246.273
244.731
244.045
243.821
243.893
243.921
243.621
242.785
241.139
238.425
234.649
230.037
224.788
219.076
213.056
206.842
200.489
193.973
187.177
179.89
171.862
162.904
153.001
142.355
131.318
120.273
109.532
99.2896
89.6362
80.6323
72.3785
65.0411
58.7831
53.6452
49.4722
45.8664
42.2848
38.26
33.5422
28.1183
22.1241
15.7575
9.29881
3.14726
-2.30218
-6.8641
-10.4578
-12.8913
-14.142
-14.1662
-13.0348
-11.1061
-8.81388
-6.49799
-4.37259
-2.55306
-1.0945
-0.00526499
0.702953
1.10854
1.09256
1.12732
0.0174475
145.316
141.178
137.062
133.914
131.58
129.661
127.389
124.637
121.379
117.546
113.131
108.353
103.583
98.946
94.5461
91.6021
91.7215
95.0375
102.175
112.145
123.405
135.18
147.129
159.028
170.647
181.748
192.19
201.939
210.965
219.184
226.548
233.078
238.57
243.097
246.531
247.768
247.269
246.029
244.578
243.961
243.754
243.801
243.78
243.41
242.479
240.727
237.939
234.133
229.514
224.273
218.581
212.587
206.403
200.087
193.613
186.857
179.595
171.561
162.557
152.579
141.853
130.758
119.697
108.982
98.7966
89.202
80.2345
71.9862
64.6436
58.4046
53.3413
49.3182
45.9084
42.5017
38.5746
33.8548
28.3431
22.204
15.664
9.04454
2.8063
-2.61392
-7.06912
-10.5701
-12.9818
-14.2657
-14.3529
-13.279
-11.3774
-9.08439
-6.74723
-4.58695
-2.72498
-1.2215
-0.0909282
0.653069
1.07631
1.08302
1.06883
0.090848
145.081
140.971
136.827
133.694
131.406
129.534
127.278
124.541
121.295
117.475
113.073
108.312
103.574
98.9708
94.5417
91.4577
91.4315
94.5897
101.663
111.667
122.957
134.748
146.711
158.632
170.278
181.402
191.857
201.616
210.649
218.861
226.19
232.666
238.104
242.561
245.88
247.143
246.838
245.776
244.418
243.867
243.675
243.692
243.615
243.172
242.144
240.29
237.43
233.595
228.971
223.741
218.069
212.099
205.945
199.663
193.228
186.509
179.268
171.225
162.176
152.126
141.327
130.184
119.118
108.442
98.3263
88.801
79.873
71.6235
64.2622
58.0273
53.0294
49.1638
45.9718
42.7615
38.944
34.2203
28.6068
22.2994
15.5546
8.74286
2.40223
-2.9769
-7.29282
-10.6629
-13.0244
-14.3274
-14.471
-13.4561
-11.5895
-9.30653
-6.95892
-4.77274
-2.87477
-1.3305
-0.160877
0.617499
1.05777
1.08454
1.02247
0.159279
144.838
140.745
136.572
133.459
131.219
129.4
127.161
124.439
121.209
117.403
113.018
108.278
103.575
99.0153
94.5648
91.3375
91.157
94.1451
101.14
111.174
122.491
134.294
146.267
158.208
169.881
181.028
191.496
201.267
210.307
218.505
225.798
232.233
237.631
242.034
245.256
246.548
246.416
245.518
244.253
243.763
243.585
243.567
243.431
242.91
241.786
239.836
236.91
233.047
228.42
223.202
217.549
211.603
205.475
199.224
192.824
186.136
178.912
170.857
161.766
151.653
140.791
129.613
118.554
107.931
97.898
88.4531
79.5682
71.3096
63.9138
57.6636
52.7151
49.0115
46.0587
43.0664
39.3703
34.6407
28.9124
22.4131
15.4295
8.38911
1.92722
-3.39823
-7.54073
-10.7414
-13.0224
-14.3286
-14.5208
-13.5639
-11.7381
-9.47492
-7.12736
-4.92444
-2.99743
-1.41713
-0.211343
0.599442
1.05598
1.09931
0.99126
0.220941
144.554
140.498
136.301
133.21
131.024
129.261
127.039
124.333
121.118
117.33
112.964
108.249
103.588
99.0794
94.6167
91.2456
90.904
93.7123
100.616
110.675
122.016
133.826
145.804
157.762
169.462
180.63
191.112
200.895
209.941
218.121
225.385
231.795
237.162
241.517
244.656
245.982
246.007
245.258
244.087
243.653
243.485
243.429
243.231
242.631
241.414
239.374
236.387
232.5
227.872
222.666
217.033
211.108
205.003
198.778
192.406
185.743
178.529
170.462
161.333
151.168
140.258
129.059
118.021
107.464
97.528
88.1759
79.3389
71.0639
63.6169
57.3278
52.4048
48.8638
46.1712
43.4178
39.8542
35.1165
29.2615
22.5475
15.2888
7.97927
1.37524
-3.88139
-7.81394
-10.8068
-12.9769
-14.27
-14.5036
-13.6025
-11.8218
-9.58702
-7.24935
-5.03865
-3.08964
-1.47839
-0.239676
0.601243
1.07326
1.12912
0.977256
0.274606
144.263
140.234
136.016
132.95
130.822
129.117
126.913
124.223
121.024
117.254
112.911
108.225
103.61
99.1624
94.6974
91.1852
90.6775
93.2993
100.098
110.177
121.536
133.349
145.329
157.301
169.026
180.215
190.71
200.504
209.552
217.716
224.964
231.36
236.702
241.011
244.081
245.446
245.613
245
243.923
243.538
243.377
243.281
243.018
242.339
241.034
238.911
235.87
231.962
227.335
222.143
216.528
210.62
204.532
198.327
191.977
185.332
178.125
170.046
160.887
150.683
139.742
128.537
117.534
107.055
97.2287
87.9832
79.2013
70.9043
63.3909
57.0361
52.1061
48.7245
46.3124
43.8172
40.3955
35.6473
29.6556
22.7051
15.1328
7.50852
0.739333
-4.43005
-8.11379
-10.8611
-12.8905
-14.1546
-14.4227
-13.5741
-11.8415
-9.64257
-7.32378
-5.11372
-3.14959
-1.51256
-0.24429
0.624369
1.11112
1.17537
0.981519
0.319789
143.974
139.95
135.718
132.684
130.616
128.971
126.781
124.107
120.924
117.176
112.859
108.205
103.642
99.2636
94.8068
91.1577
90.4805
92.9133
99.5947
109.686
121.057
132.868
144.847
156.831
168.579
179.787
190.294
200.098
209.146
217.3
224.545
230.938
236.252
240.519
243.53
244.938
245.236
244.746
243.761
243.423
243.264
243.125
242.796
242.041
240.652
238.455
235.366
231.44
226.815
221.637
216.038
210.145
204.07
197.878
191.543
184.91
177.706
169.617
160.437
150.209
139.254
128.059
117.102
106.712
97.0073
87.8831
79.1664
70.8456
63.255
56.8068
51.8276
48.5984
46.4864
44.2656
40.9923
36.2304
30.0948
22.888
14.962
6.9726
0.0139036
-5.04507
-8.43876
-10.9043
-12.7661
-13.9857
-14.2825
-13.4824
-11.7998
-9.64298
-7.35109
-5.14942
-3.1767
-1.519
-0.224618
0.669377
1.17025
1.23903
1.00438
0.355995
143.688
139.651
135.413
132.412
130.408
128.822
126.646
123.986
120.819
117.094
112.807
108.189
103.681
99.3819
94.9439
91.1631
90.313
92.5597
99.1133
109.21
120.586
132.39
144.362
156.357
168.126
179.351
189.868
199.679
208.73
216.885
224.139
230.529
235.812
240.043
243.005
244.458
244.878
244.502
243.604
243.308
243.147
242.964
242.569
241.739
240.274
238.011
234.879
230.939
226.319
221.154
215.568
209.685
203.617
197.434
191.108
184.482
177.278
169.182
159.992
149.757
138.805
127.635
116.734
106.439
96.8657
87.8775
79.2387
70.8975
63.2269
56.6594
51.578
48.4911
46.6968
44.7612
41.6382
36.8586
30.5764
23.0967
14.7765
6.36711
-0.805756
-5.72488
-8.78564
-10.9355
-12.608
-13.7685
-14.0882
-13.3321
-11.7004
-9.59093
-7.33295
-5.14658
-3.17138
-1.49806
-0.181055
0.735927
1.25052
1.32056
1.0458
0.383232
143.402
139.34
135.103
132.138
130.198
128.671
126.505
123.859
120.707
117.007
112.755
108.176
103.728
99.5159
95.1074
91.2017
90.1726
92.2416
98.6605
108.754
120.127
131.918
143.881
155.883
167.672
178.912
189.436
199.254
208.315
216.48
223.753
230.127
235.385
239.584
242.506
244.005
244.538
244.27
243.453
243.195
243.029
242.8
242.339
241.437
239.902
237.581
234.415
230.464
225.85
220.697
215.122
209.243
203.177
196.997
190.675
184.053
176.848
168.749
159.561
149.337
138.407
127.273
116.435
106.238
96.8009
87.9619
79.4165
71.066
63.3243
56.616
51.367
48.4091
46.9458
45.2965
42.3181
37.5175
31.0922
23.3274
14.5731
5.68549
-1.72415
-6.46461
-9.14848
-10.9528
-12.4233
-13.5113
-13.846
-13.1288
-11.5481
-9.49005
-7.27183
-5.10684
-3.13489
-1.45098
-0.114915
0.822732
1.35098
1.4205
1.10588
0.400092
143.091
139.02
134.789
131.863
129.987
128.517
126.359
123.725
120.59
116.917
112.702
108.167
103.782
99.6643
95.296
91.2729
90.0593
91.9615
98.2421
108.323
119.684
131.457
143.406
155.413
167.221
178.474
189.002
198.83
207.907
216.095
223.384
229.736
234.973
239.141
242.033
243.577
244.214
244.049
243.307
243.087
242.912
242.638
242.111
241.141
239.54
237.168
233.974
230.017
225.41
220.268
214.7
208.822
202.754
196.572
190.251
183.629
176.423
168.327
159.154
148.959
138.066
126.98
116.208
106.107
96.8067
88.1264
79.6929
71.3547
63.5666
56.7065
51.2101
48.3624
47.2346
45.8574
43.0062
38.1831
31.6277
23.5711
14.3446
4.91666
-2.74854
-7.25832
-9.5196
-10.9522
-12.2161
-13.2258
-13.5629
-12.8787
-11.3479
-9.34454
-7.17082
-5.03246
-3.06922
-1.37979
-0.0283535
0.927747
1.47001
1.5382
1.18342
0.408233
142.781
138.692
134.474
131.587
129.776
128.36
126.207
123.584
120.467
116.824
112.65
108.162
103.841
99.8255
95.5082
91.3746
89.9799
91.7241
97.8637
107.922
119.262
131.01
142.943
154.952
166.777
178.042
188.573
198.417
207.517
215.735
223.026
229.355
234.575
238.716
241.586
243.175
243.905
243.838
243.167
242.984
242.799
242.478
241.887
240.851
239.192
236.775
233.558
229.599
225
219.867
214.303
208.423
202.349
196.163
189.84
183.215
176.009
167.923
158.778
148.629
137.792
126.764
116.058
106.046
96.8746
88.3584
80.0566
71.7594
63.9722
56.9709
51.1427
48.3729
47.5632
46.4191
43.6592
38.8229
32.163
23.8134
14.0771
4.04022
-3.89552
-8.10378
-9.89449
-10.9356
-11.9915
-12.9232
-13.248
-12.5887
-11.1059
-9.15899
-7.03332
-4.92621
-2.97697
-1.28716
0.0758967
1.04788
1.60455
1.67387
1.28357
0.401519
142.471
138.359
134.16
131.311
129.562
128.199
126.049
123.438
120.339
116.729
112.6
108.16
103.905
99.9975
95.7424
91.5052
89.9388
91.5328
97.5297
107.556
118.865
130.581
142.493
154.504
166.344
177.618
188.158
198.023
207.156
215.394
222.681
228.986
234.191
238.31
241.166
242.797
243.609
243.633
243.034
242.885
242.69
242.322
241.671
240.571
238.859
236.404
233.169
229.21
224.621
219.497
213.934
208.048
201.966
195.774
189.447
182.819
175.613
167.543
158.439
148.353
137.588
126.629
115.989
106.054
96.9976
88.6442
80.4858
72.2636
64.5609
57.4508
51.2593
48.4945
47.9216
46.9359
44.2012
39.3753
32.649
24.0155
13.7378
3.02054
-5.18974
-8.99831
-10.2795
-10.9209
-11.7673
-12.6168
-12.9141
-12.2675
-10.8282
-8.93831
-6.86311
-4.79128
-2.86111
-1.17613
0.194223
1.17941
1.75108
1.8252
1.39557
0.384486
142.163
138.024
133.846
131.034
129.346
128.035
125.886
123.287
120.206
116.631
112.55
108.163
103.973
100.178
95.9968
91.6632
89.9345
91.3884
97.2436
107.228
118.495
130.175
142.062
154.071
165.927
177.211
187.763
197.659
206.827
215.07
222.347
228.63
233.822
237.921
240.772
242.444
243.324
243.435
242.908
242.791
242.587
242.173
241.464
240.305
238.543
236.056
232.81
228.852
224.27
219.154
213.592
207.7
201.61
195.411
189.078
182.444
175.24
167.193
158.143
148.136
137.459
126.579
116.005
106.132
97.1715
88.9673
80.9448
72.8422
65.326
58.1399
51.5764
48.6768
48.1958
47.3083
44.5777
39.7782
33.0255
24.1349
13.2943
1.83971
-6.62002
-9.92699
-10.6817
-10.9212
-11.558
-12.3198
-12.5731
-11.923
-10.5213
-8.6876
-6.66421
-4.6312
-2.72521
-1.05068
0.322835
1.31759
1.90075
1.98834
1.54518
0.393625
141.856
137.689
133.532
130.755
129.128
127.867
125.719
123.132
120.071
116.533
112.502
108.168
104.043
100.365
96.2698
91.8475
89.9653
91.2912
97.0079
106.941
118.157
129.793
141.651
153.658
165.528
176.828
187.397
197.336
206.521
214.761
222.025
228.285
233.468
237.549
240.403
242.115
243.05
243.241
242.789
242.7
242.489
242.031
241.269
240.055
238.246
235.731
232.479
228.528
223.951
218.837
213.278
207.383
201.285
195.078
188.737
182.097
174.897
166.88
157.894
147.981
137.405
126.615
116.105
106.279
97.3961
89.3169
81.4254
73.5317
66.3438
59.2937
52.3467
49.0287
48.435
47.4604
44.8423
40.0599
33.2742
24.1505
12.7484
0.55696
-8.08347
-10.8292
-11.0725
-10.9206
-11.3599
-12.036
-12.231
-11.5617
-10.1919
-8.4121
-6.44071
-4.44929
-2.57151
-0.912341
0.458294
1.45519
2.05041
2.15341
1.68507
0.314895
141.535
137.354
133.22
130.473
128.907
127.696
125.548
122.973
119.932
116.433
112.454
108.174
104.112
100.555
96.5607
92.057
90.0289
91.2411
96.8247
106.698
117.854
129.439
141.264
153.267
165.156
176.473
187.076
197.052
206.237
214.467
221.714
227.951
233.127
237.196
240.059
241.808
242.786
243.049
242.678
242.61
242.397
241.898
241.086
239.821
237.972
235.433
232.176
228.234
223.668
218.555
212.991
207.093
200.992
194.779
188.429
181.782
174.589
166.606
157.694
147.886
137.424
126.732
116.285
106.502
97.6901
89.6964
81.9069
74.264
67.4537
60.7655
53.9497
50.3292
49.0336
47.5806
44.9116
40.0874
33.2873
24.0123
12.1307
-0.698715
-9.39974
-11.584
-11.372
-10.8842
-11.1619
-11.7619
-11.8882
-11.1885
-9.84615
-8.11728
-6.19746
-4.25031
-2.40655
-0.770323
0.592423
1.59356
2.18428
2.2986
1.89204
0.382346
141.216
137.021
132.907
130.188
128.684
127.524
125.375
122.812
119.791
116.333
112.406
108.176
104.178
100.748
96.8699
92.2907
90.1226
91.2377
96.6956
106.501
117.587
129.116
140.905
152.903
164.816
176.159
186.806
196.798
205.972
214.186
221.413
227.63
232.8
236.859
239.739
241.523
242.53
242.856
242.575
242.521
242.309
241.773
240.916
239.606
237.72
235.162
231.904
227.971
223.417
218.31
212.742
206.836
200.73
194.512
188.153
181.5
174.316
166.375
157.545
147.852
137.517
126.937
116.562
106.823
98.0533
90.0951
82.4183
75.0314
68.3933
61.9458
55.7427
51.9523
49.8363
47.9365
45.0547
40.0973
33.1802
23.7265
11.4787
-1.81994
-10.3717
-12.021
-11.4633
-10.7827
-10.9689
-11.4952
-11.5306
-10.7943
-9.47702
-7.7942
-5.92323
-4.01994
-2.21105
-0.601504
0.736973
1.71253
2.30452
2.43436
1.93163
0.252171
140.898
136.689
132.593
129.9
128.458
127.349
125.199
122.648
119.648
116.231
112.354
108.173
104.243
100.946
97.1943
92.5456
90.2427
91.2802
96.6216
106.352
117.359
128.828
140.576
152.574
164.512
175.901
186.583
196.57
205.723
213.917
221.121
227.319
232.486
236.54
239.441
241.259
242.282
242.66
242.484
242.43
242.225
241.656
240.761
239.41
237.493
234.919
231.663
227.742
223.199
218.101
212.536
206.625
200.508
194.278
187.909
181.251
174.082
166.188
157.443
147.865
137.665
127.215
116.933
107.256
98.5124
90.5567
82.9905
75.8539
69.3954
63.0984
57.0954
53.1338
50.6267
48.3216
45.1669
40.1199
33.1313
23.5153
10.9353
-2.65324
-10.8187
-12.1309
-11.3132
-10.5576
-10.7387
-11.2224
-11.1549
-10.3636
-9.06595
-7.43294
-5.62056
-3.77268
-2.01071
-0.442923
0.854726
1.80576
2.36295
2.37165
1.73426
0.0229097
140.586
136.36
132.279
129.608
128.231
127.174
125.023
122.484
119.505
116.126
112.297
108.17
104.31
101.143
97.5159
92.8138
90.384
91.3675
96.6033
106.251
117.173
128.576
140.284
152.283
164.26
175.705
186.396
196.364
205.489
213.658
220.839
227.019
232.184
236.237
239.167
241.018
242.042
242.461
242.429
242.337
242.142
241.547
240.619
239.234
237.29
234.705
231.453
227.545
223.017
217.928
212.368
206.458
200.336
194.092
187.707
181.041
173.883
166.032
157.369
147.915
137.866
127.56
117.393
107.795
99.0655
91.0983
83.6484
76.7385
70.3839
64.1918
58.4733
54.4181
51.4861
48.771
45.3366
40.1885
33.1277
23.4561
10.7769
-2.72372
-10.4005
-11.9163
-11.1143
-10.3208
-10.4748
-10.8333
-10.6535
-9.84616
-8.59175
-7.02134
-5.27756
-3.4978
-1.80306
-0.297081
0.9475
1.82948
2.2636
2.20207
1.52199
-0.186631
140.278
136.034
131.964
129.312
128.004
126.999
124.846
122.319
119.361
116.017
112.237
108.173
104.38
101.321
97.8069
93.0918
90.5429
91.4987
96.641
106.2
117.031
128.365
140.035
152.038
164.075
175.56
186.238
196.175
205.267
213.408
220.566
226.729
231.895
235.949
238.914
240.802
241.81
242.256
242.401
242.243
242.058
241.446
240.492
239.079
237.113
234.519
231.274
227.382
222.871
217.795
212.242
206.333
200.204
193.948
187.546
180.867
173.717
165.908
157.328
148
138.108
127.96
117.931
108.432
99.7204
91.749
84.4079
77.684
71.438
65.3617
59.819
55.6461
52.3772
49.2901
45.5601
40.304
33.2099
23.5826
10.9787
-2.3397
-9.56926
-11.1245
-10.4868
-9.91401
-10.0713
-10.3168
-10.0698
-9.27771
-8.07874
-6.57956
-4.91397
-3.21145
-1.58827
-0.151193
1.00653
1.77543
2.10721
2.03232
1.34232
-0.360011
139.961
135.711
131.647
129.014
127.777
126.824
124.669
122.155
119.215
115.901
112.176
108.183
104.447
101.459
98.0761
93.4094
90.7207
91.6731
96.7352
106.199
116.936
128.2
139.833
151.856
163.962
175.454
186.103
196.002
205.057
213.168
220.3
226.449
231.617
235.677
238.682
240.613
241.592
242.045
242.349
242.15
241.975
241.354
240.379
238.943
236.96
234.363
231.127
227.253
222.76
217.701
212.16
206.254
200.118
193.845
187.422
180.728
173.584
165.816
157.319
148.119
138.388
128.407
118.537
109.154
100.479
92.5245
85.2746
78.6746
72.5081
66.5478
61.1489
56.8571
53.2824
49.8524
45.8422
40.4796
33.3826
23.9009
11.5706
-1.4719
-8.60722
-10.2496
-9.77506
-9.39634
-9.55704
-9.72177
-9.44374
-8.6806
-7.54117
-6.11741
-4.53137
-2.90549
-1.36223
-0.0195829
1.02928
1.69293
1.94852
1.85908
1.15972
-0.513386
139.647
135.39
131.33
128.714
127.551
126.65
124.493
121.991
119.064
115.779
112.117
108.194
104.501
101.568
98.3917
93.8193
90.9155
91.889
96.8859
106.251
116.89
128.086
139.69
151.758
163.908
175.378
185.986
195.841
204.856
212.934
220.043
226.177
231.348
235.419
238.469
240.451
241.394
241.843
242.26
242.064
241.893
241.269
240.279
238.827
236.833
234.235
231.012
227.157
222.686
217.646
212.12
206.222
200.081
193.79
187.342
180.63
173.49
165.761
157.347
148.274
138.702
128.894
119.193
109.941
101.327
93.4218
86.2532
79.724
73.6112
67.7559
62.4491
58.0348
54.1893
50.4518
46.1859
40.7226
33.6552
24.4013
12.5077
-0.14043
-7.40848
-9.23306
-8.99249
-8.78586
-8.96164
-9.07286
-8.78541
-8.05735
-6.97562
-5.62132
-4.11101
-2.57121
-1.12965
0.102112
1.04074
1.60376
1.78992
1.68507
0.970439
-0.655173
139.337
135.073
131.011
128.412
127.328
126.477
124.319
121.828
118.908
115.654
112.058
108.197
104.533
101.673
98.7883
94.2832
91.0858
92.1427
97.0951
106.357
116.899
128.031
139.627
151.748
163.902
175.326
185.885
195.692
204.663
212.708
219.793
225.915
231.09
235.174
238.273
240.315
241.223
241.66
242.164
241.989
241.815
241.193
240.194
238.73
236.73
234.136
230.927
227.094
222.647
217.631
212.125
206.236
200.092
193.782
187.309
180.578
173.44
165.747
157.414
148.466
139.049
129.414
119.887
110.773
102.245
94.4164
87.3244
80.8355
74.7494
68.9715
63.717
59.1811
55.0975
51.0854
46.5903
41.0367
34.0268
25.0609
13.7351
1.62766
-5.86885
-7.98377
-8.08796
-8.0597
-8.27507
-8.36217
-8.08014
-7.38611
-6.35523
-5.06764
-3.64134
-2.20364
-0.879132
0.23019
1.05165
1.51396
1.63833
1.51799
0.78321
-0.785984
139.036
134.757
130.69
128.108
127.109
126.306
124.145
121.662
118.746
115.527
112
108.19
104.549
101.804
99.214
94.675
91.1879
92.4247
97.3631
106.519
116.969
128.051
139.664
151.815
163.931
175.29
185.795
195.551
204.478
212.487
219.549
225.66
230.84
234.942
238.09
240.202
241.086
241.501
242.077
241.924
241.745
241.125
240.122
238.653
236.65
234.063
230.871
227.063
222.643
217.654
212.171
206.297
200.15
193.824
187.325
180.574
173.436
165.778
157.522
148.695
139.43
129.966
120.612
111.637
103.213
95.4753
88.4512
81.9857
75.9162
70.1926
64.9566
60.2996
56.0025
51.7476
47.0521
41.4217
34.4899
25.8471
15.1788
3.79644
-3.83718
-6.44389
-7.00574
-7.1723
-7.45653
-7.54676
-7.28012
-6.62121
-5.64392
-4.43293
-3.10804
-1.79474
-0.609067
0.36384
1.06494
1.43135
1.50079
1.36211
0.605234
-0.904749
138.741
134.445
130.369
127.805
126.895
126.135
123.971
121.489
118.577
115.4
111.942
108.173
104.566
101.979
99.6284
95.0073
91.3267
92.754
97.7088
106.748
117.116
128.169
139.8
151.943
163.986
175.268
185.716
195.418
204.299
212.272
219.312
225.413
230.598
234.721
237.92
240.106
240.988
241.385
241.999
241.869
241.682
241.068
240.064
238.593
236.594
234.017
230.845
227.063
222.673
217.713
212.257
206.401
200.257
193.915
187.392
180.62
173.481
165.855
157.675
148.964
139.845
130.549
121.362
112.527
104.216
96.5753
89.6099
83.1609
77.1029
71.4123
66.1688
61.3938
56.9048
52.4357
47.5665
41.8727
35.0319
26.7236
16.7473
6.2305
-1.30382
-4.49158
-5.5863
-6.02578
-6.41974
-6.54835
-6.31773
-5.71194
-4.81122
-3.70772
-2.51965
-1.36177
-0.332276
0.501033
1.08592
1.36247
1.38111
1.22044
0.440645
-1.01076
138.437
134.135
130.047
127.502
126.686
125.963
123.792
121.308
118.4
115.271
111.879
108.146
104.596
102.199
100.013
95.3477
91.5962
93.1642
98.1619
107.073
117.365
128.395
140.024
152.116
164.06
175.256
185.645
195.292
204.125
212.062
219.08
225.173
230.365
234.512
237.759
240.024
240.926
241.317
241.931
241.82
241.627
241.02
240.02
238.552
236.56
233.997
230.847
227.093
222.735
217.808
212.381
206.546
200.408
194.055
187.509
180.718
173.577
165.983
157.874
149.273
140.296
131.162
122.136
113.44
105.248
97.7007
90.783
84.347
78.2983
72.6223
67.3519
62.4643
57.8043
53.1462
48.1273
42.3831
35.6396
27.657
18.35
8.72711
1.50775
-2.12995
-3.74971
-4.5335
-5.09086
-5.31058
-5.16184
-4.65593
-3.88107
-2.93096
-1.91313
-0.926406
-0.054053
0.645304
1.11969
1.31101
1.28119
1.09465
0.290691
-1.10398
138.137
133.828
129.725
127.202
126.485
125.786
123.608
121.119
118.217
115.139
111.807
108.107
104.648
102.458
100.353
95.6806
91.998
93.6794
98.7208
107.505
117.725
128.721
140.315
152.322
164.148
175.253
185.581
195.172
203.956
211.855
218.854
224.94
230.139
234.314
237.606
239.947
240.89
241.285
241.872
241.774
241.581
240.982
239.99
238.53
236.547
234.001
230.875
227.151
222.827
217.935
212.541
206.73
200.601
194.241
187.677
180.867
173.726
166.16
158.12
149.623
140.783
131.804
122.932
114.372
106.299
98.8386
91.9595
85.5353
79.4947
73.8185
68.5071
63.5123
58.7008
53.8766
48.7293
42.9467
36.3015
28.6218
19.9219
11.1219
4.31055
0.413144
-1.63874
-2.76593
-3.52561
-3.89142
-3.88075
-3.52749
-2.92145
-2.15135
-1.31302
-0.494573
0.228388
0.800732
1.16901
1.27866
1.2016
0.985001
0.154627
-1.18486
137.843
133.524
129.404
126.905
126.29
125.605
123.419
120.922
118.03
115.001
111.723
108.061
104.727
102.749
100.673
96.0034
92.5462
94.3306
99.4006
108.057
118.191
129.129
140.656
152.549
164.247
175.257
185.522
195.056
203.79
211.653
218.632
224.713
229.92
234.126
237.457
239.868
240.868
241.281
241.83
241.723
241.542
240.956
239.975
238.525
236.556
234.029
230.929
227.237
222.948
218.092
212.733
206.949
200.834
194.47
187.892
181.068
173.926
166.389
158.412
150.015
141.305
132.474
123.747
115.32
107.362
99.979
93.1308
86.7174
80.6837
74.9972
69.6361
64.54
59.5939
54.6249
49.3679
43.5578
37.0076
29.601
21.4307
13.3379
6.92627
2.90004
0.526304
-0.902786
-1.87468
-2.41752
-2.5777
-2.40235
-1.9782
-1.38887
-0.722968
-0.0632753
0.518549
0.96933
1.23495
1.26588
1.14207
0.89099
0.0308606
-1.25401
137.558
133.224
129.086
126.615
126.101
125.419
123.226
120.72
117.839
114.857
111.624
108.012
104.834
103.058
100.982
96.3733
93.2454
95.1376
100.212
108.725
118.748
129.599
141.029
152.791
164.352
175.267
185.468
194.943
203.627
211.453
218.414
224.491
229.708
233.948
237.312
239.778
240.846
241.301
241.812
241.673
241.51
240.941
239.974
238.538
236.587
234.081
231.009
227.349
223.097
218.279
212.956
207.201
201.102
194.74
188.152
181.318
174.177
166.667
158.751
150.447
141.86
133.169
124.58
116.279
108.429
101.114
94.2913
87.8884
81.8592
76.1558
70.74
65.5496
60.4837
55.3891
50.0392
44.2101
37.7487
30.5846
22.8707
15.3668
9.3012
5.21464
2.60967
0.924334
-0.249869
-0.97354
-1.30885
-1.31055
-1.06177
-0.643139
-0.139104
0.370715
0.817942
1.15156
1.31769
1.27249
1.10186
0.811808
-0.0821514
-1.312
137.28
132.93
128.771
126.331
125.914
125.231
123.03
120.513
117.646
114.705
111.511
107.964
104.966
103.363
101.265
96.8117
94.1002
96.1045
101.147
109.49
119.373
130.11
141.422
153.041
164.464
175.283
185.417
194.832
203.467
211.256
218.2
224.274
229.502
233.779
237.169
239.678
240.818
241.343
241.823
241.639
241.488
240.938
239.988
238.57
236.638
234.156
231.112
227.487
223.272
218.493
213.207
207.482
201.402
195.046
188.454
181.613
174.477
166.994
159.134
150.919
142.447
133.886
125.426
117.244
109.494
102.237
95.4376
89.0455
83.0181
77.2929
71.8205
66.5426
61.3695
56.1662
50.7376
44.895
38.5153
31.5687
24.2514
17.2333
11.4517
7.33885
4.57048
2.66838
1.31044
0.416315
-0.0846763
-0.252661
-0.168014
0.0905192
0.441592
0.808581
1.12667
1.34721
1.41692
1.29783
1.08001
0.746617
-0.185426
-1.35932
136.991
132.642
128.461
126.059
125.735
125.041
122.832
120.303
117.451
114.546
111.385
107.919
105.115
103.659
101.537
97.3101
95.0837
97.2035
102.176
110.322
120.04
130.645
141.825
153.295
164.579
175.301
185.369
194.723
203.309
211.062
217.989
224.063
229.302
233.617
237.029
239.573
240.784
241.407
241.861
241.632
241.479
240.949
240.018
238.62
236.71
234.253
231.239
227.649
223.472
218.734
213.485
207.791
201.732
195.385
188.793
181.95
174.822
167.365
159.559
151.426
143.062
134.622
126.282
118.212
110.551
103.346
96.5675
90.1861
84.157
78.4062
72.878
67.519
62.2497
56.9517
51.4554
45.6031
39.3003
32.5551
25.5883
18.9692
13.4209
9.301
6.41088
4.32783
2.80626
1.75551
1.10062
0.777429
0.707792
0.814729
1.01998
1.25019
1.44422
1.55565
1.53196
1.34096
1.07544
0.694669
-0.279323
-1.39631
136.708
132.362
128.157
125.799
125.562
124.852
122.632
120.093
117.254
114.378
111.249
107.878