/*--------------------------------*- C++ -*----------------------------------*\
| =========                 |                                                 |
| \\      /  F ield         | OpenFOAM: The Open Source CFD Toolbox           |
|  \\    /   O peration     | Version:  4.1                                   |
|   \\  /    A nd           | Web:      www.OpenFOAM.org                      |
|    \\/     M anipulation  |                                                 |
\*---------------------------------------------------------------------------*/
FoamFile
{
    version     2.0;
    format      ascii;
    class       surfaceScalarField;
    location    "700";
    object      phi;
}
// * * * * * * * * * * * * * * * * * * * * * * * * * * * * * * * * * * * * * //

dimensions      [0 3 -1 0 0 0 0];

internalField   nonuniform List<scalar> 
52920
(
1215.33
-162.165
1416
-200.673
1639.56
-223.555
1875.18
-235.626
2121.18
-246.001
2379.97
-258.788
2651.59
-271.627
2935.29
-283.702
3229.38
-294.092
3530.16
-300.779
3830.73
-300.575
4121.23
-290.501
4388.92
-267.686
4615.24
-226.321
4776.31
-161.074
4855.74
-79.4261
4852.28
3.4538
4774.66
77.6173
4646.6
128.059
4492.41
154.187
4325.98
166.432
4153.21
172.763
3976.17
177.037
3795.52
180.655
3611.43
184.088
3423.45
187.972
3230.45
193.005
3031.11
199.34
2823.75
207.352
2605.88
217.87
2376.51
229.371
2136.1
240.401
1865.72
270.383
1485.61
380.106
879.012
606.59
141.701
737.305
-409.428
551.12
-658.125
248.688
-765.043
106.91
-764.664
-0.387701
-684.77
-79.9016
-535.969
-148.809
-291.243
-244.733
102.682
-393.933
533.844
-431.17
832.333
-298.499
1056.73
-224.409
1338.59
-281.864
1657.7
-319.112
1991.72
-334.02
2329.15
-337.431
2666
-336.86
3002.83
-336.828
3343.37
-340.543
3693.78
-350.413
4061.68
-367.897
4454.42
-392.74
4876.55
-422.132
5327.47
-450.916
5800.78
-473.313
6285.9
-485.123
6770.79
-484.886
7244.35
-473.562
7697.71
-453.365
8124.27
-426.557
8518.99
-394.72
8877.93
-358.943
9198.46
-320.529
9480.27
-281.81
9726.72
-246.449
9945.38
-218.661
10147.2
-201.781
10344
-196.871
10546.5
-202.507
10762.9
-216.315
10999.8
-236.905
11264
-264.244
11561.5
-297.523
11893.1
-331.588
12248.2
-355.121
12601.3
-353.077
12913.5
-312.19
13140.1
-226.604
13242.6
-102.529
13200.9
41.7242
13018.3
182.66
12720.1
298.127
12342.8
377.313
11921.2
421.621
11482.8
438.387
11046.9
435.869
10626.1
420.882
10227.8
398.297
9856.44
371.317
9514.34
342.097
9202.58
311.759
8920.28
282.303
8669.09
251.19
8436.93
232.158
181.885
1290.99
-369.281
1533.74
-443.429
1789.68
-479.492
2047.68
-493.633
2307.56
-505.875
2572.97
-524.201
2844.99
-543.654
3123.49
-562.206
3407.14
-577.741
3692.58
-586.22
3973.72
-581.72
4242.57
-559.351
4489.84
-514.955
4701.67
-438.155
4856.99
-316.393
4935.43
-157.87
4928.73
10.1566
4843.37
162.975
4705.11
266.318
4540.26
319.03
4363.62
343.073
4181.27
355.114
3995.15
363.157
3805.76
370.038
3613.18
376.668
3416.9
384.256
3215.74
394.16
3008.2
406.879
2792.06
423.482
2565.13
444.803
2328.81
465.686
2082.77
486.438
1792.25
560.905
1358.25
814.102
714.943
1249.89
57.6788
1394.56
-346.153
954.945
-538.872
441.399
-629.923
197.952
-615.648
-14.6738
-512.93
-182.628
-324.133
-337.614
-49.3615
-519.512
242.292
-685.593
509.835
-698.718
820.921
-609.591
1188.9
-592.395
1562.26
-655.224
1932.43
-689.292
2293.02
-694.609
2643.84
-688.252
2987.12
-680.141
3326.45
-676.166
3667
-681.094
4015.6
-699.014
4380.26
-732.555
4768.55
-781.025
5184.98
-838.563
5628.57
-894.51
6092.25
-936.999
6564.67
-957.541
7033.21
-953.425
7486.61
-926.966
7916.25
-883
8316.03
-826.336
8681.54
-760.234
9009.36
-686.756
9297
-608.174
9543.86
-528.666
9752.44
-455.035
9929.12
-395.336
10083.5
-356.146
10226.3
-339.651
10366.6
-342.849
10510.7
-360.392
10662.5
-388.741
10826.2
-427.956
11007.5
-478.747
11211.8
-535.933
11440.5
-583.782
11685.7
-598.324
11928.8
-555.321
12140.9
-438.652
12285.6
-247.206
12325.9
1.34247
12239.2
269.382
12032.5
504.805
11734.5
675.31
11379.1
777.076
10995.4
822.048
10605.1
826.177
10222.7
803.339
9857.24
763.723
9514.43
714.127
9197.34
659.183
8907.76
601.342
8645.3
544.761
8411.76
484.73
8197.08
446.842
351.462
1356.82
-609.67
1616.34
-702.95
1874.09
-737.239
2124.87
-744.416
2372.16
-753.164
2621.29
-773.338
2874.19
-796.555
3131.19
-819.206
3391.39
-837.943
3652.13
-846.963
3908.55
-838.14
4154.76
-805.564
4384.81
-745
4589.02
-642.372
4749.41
-476.779
4844.12
-252.582
4858.01
-3.73957
4789.84
231.144
4662.74
393.422
4503.91
477.856
4329.51
517.467
4146.71
537.919
3958.18
551.684
3764.97
563.244
3567.57
574.066
3365.83
585.996
3158.76
601.227
2944.43
621.206
2720.02
647.89
2485.13
679.699
2244.58
706.229
1988.26
742.755
1649.61
899.557
1132.16
1331.55
493.107
1888.94
-5.27171
1892.94
-274.291
1223.96
-441.42
608.521
-533.207
289.73
-515.615
-32.2757
-409.225
-289.028
-225.084
-521.762
17.0769
-761.68
280.5
-949.021
573.604
-991.826
923.521
-959.511
1305.07
-973.951
1678.31
-1028.46
2039.79
-1050.78
2390.21
-1045.03
2730.93
-1028.98
3063.77
-1012.98
3391.66
-1004.06
3719.33
-1008.77
4053.51
-1033.2
4402.44
-1081.48
4774.12
-1152.71
5173.38
-1237.83
5599.02
-1320.15
6043.13
-1381.11
6493.33
-1407.74
6936.29
-1396.39
7360.67
-1351.35
7758.38
-1280.71
8124.29
-1192.24
8455.03
-1090.97
8748.04
-979.771
9001.38
-861.51
9214.46
-741.754
9389.49
-630.058
9532.27
-538.117
9651.94
-475.816
9758.87
-446.585
9861.67
-445.649
9965.29
-464.014
10071.6
-495.053
10182
-538.343
10299.9
-596.685
10431
-666.977
10579.7
-732.551
10746.2
-764.82
10923.7
-732.766
11097.2
-612.15
11241.9
-391.945
11322.2
-78.9669
11301.8
289.85
11171.1
635.493
10947.8
898.616
10660.7
1064.14
10337.7
1145.02
10000.6
1163.27
9664.74
1139.24
9340.13
1088.33
9033.27
1020.99
8748.01
944.444
8486.76
862.599
8249.7
781.817
8038.74
695.688
7845.91
639.674
505.171
1388.88
-858.576
1639.77
-953.838
1881.65
-979.119
2114.84
-977.614
2344.04
-982.36
2574.42
-1003.72
2807.62
-1029.76
3043.9
-1055.48
3282.53
-1076.58
3521.29
-1085.73
3755.99
-1072.84
3981.82
-1031.4
4194.81
-957.993
4388.6
-836.167
4549.21
-637.383
4656.79
-360.17
4692.7
-39.647
4647.46
276.385
4539.25
501.631
4394.49
622.612
4229.75
682.209
4052.89
714.773
3867.35
737.219
3674.88
755.716
3476.63
772.318
3273.05
789.573
3063.31
810.965
2844.8
839.716
2614.89
877.793
2376.85
917.741
2134.72
948.356
1854.12
1023.35
1442.56
1311.11
864.307
1909.8
304.893
2448.35
-31.8698
2229.7
-221.718
1413.8
-376.705
763.502
-468.467
381.483
-448.365
-52.3898
-345.401
-392.002
-171.656
-695.514
56.8561
-990.197
318.107
-1210.28
621.69
-1295.41
973.281
-1311.11
1344.15
-1344.83
1705.8
-1390.11
2055.82
-1400.79
2395.13
-1384.35
2724.35
-1358.2
3044.68
-1333.31
3358.74
-1318.12
3671.18
-1321.2
3988.92
-1350.94
4320.77
-1413.33
4675.47
-1507.41
5058.27
-1620.63
5467.51
-1729.39
5894.06
-1807.66
6324.12
-1837.81
6743.53
-1815.8
7140.91
-1748.72
7508.79
-1648.6
7843.05
-1526.5
8141.34
-1389.25
8401.83
-1240.27
8622.94
-1082.62
8804.08
-922.895
8947.25
-773.225
9058.14
-649.008
9146.11
-563.783
9222.05
-522.53
9294.95
-518.549
9369.43
-538.498
9445.99
-571.613
9523.79
-616.138
9604.01
-676.902
9690.83
-753.798
9789.19
-830.908
9901.74
-877.377
10027.5
-858.563
10160.7
-745.29
10286.4
-517.626
10375.5
-168.105
10388.1
277.228
10305.2
718.378
10135.8
1068.04
9903.31
1296.64
9632.64
1415.69
9344.15
1451.76
9052.58
1430.81
8768.01
1372.9
8497.12
1291.87
8244.17
1197.39
8011.97
1094.8
7801.21
992.578
7613.85
883.049
7443.53
809.99
641.647
1385.02
-1096.26
1619.48
-1188.3
1845.55
-1205.19
2063.58
-1195.64
2277.09
-1195.88
2490.76
-1217.39
2706.11
-1245.1
2923.59
-1272.97
3142.86
-1295.85
3362.25
-1305.11
3578.19
-1288.78
3786.6
-1239.81
3984.48
-1155.88
4167.07
-1018.76
4323.02
-793.337
4435.42
-472.566
4485.64
-89.8675
4458.8
303.226
4368.32
592.1
4238.91
752.027
4086.28
834.831
3918.18
882.877
3738.32
917.079
3549.01
945.022
3352.18
969.148
3148.96
992.794
2938.43
1021.49
2717.48
1060.66
2485.47
1109.81
2249.03
1154.18
2000.89
1196.49
1674.28
1349.96
1185.37
1800.01
603.763
2491.41
171.159
2880.95
-40.4184
2441.27
-190.439
1563.82
-334.562
907.62
-423.487
470.401
-402.307
-73.5803
-305.994
-488.324
-141.998
-859.516
77.8128
-1210.01
337.329
-1469.8
640.158
-1598.24
982.066
-1653.02
1337.12
-1699.88
1683.78
-1736.78
2019.55
-1736.56
2344.82
-1709.62
2659.69
-1673.07
2964.97
-1638.59
3263.09
-1616.25
3558.67
-1616.78
3858.9
-1651.17
4173.25
-1727.68
4511.32
-1845.48
4878.66
-1987.97
5272.9
-2123.63
5683.43
-2218.19
6095.12
-2249.5
6493.19
-2213.86
6866.48
-2122.01
7208.32
-1990.44
7515.55
-1833.73
7786.57
-1660.28
8019.97
-1473.67
8214.07
-1276.72
8367.88
-1076.7
8482.98
-888.323
8564.96
-730.996
8623.79
-622.608
8671.53
-570.269
8718.27
-565.291
8768.99
-589.217
8823.31
-625.934
8878.45
-671.284
8933.33
-731.78
8990.32
-810.787
9053.58
-894.169
9126.56
-950.36
9211.55
-943.545
9308.86
-842.609
9411.95
-620.707
9498.4
-254.555
9528.19
247.434
9476.14
770.425
9345.12
1199.07
9154.59
1487.17
8926.73
1643.55
8679.98
1698.51
8427.9
1682.89
8179.95
1620.85
7942.64
1529.18
7720.33
1419.7
7516.06
1299.07
7330.89
1177.74
7166.76
1047.18
7018.35
958.401
760.557
1355.49
-1318.89
1576.3
-1409.12
1788.56
-1417.45
1991.64
-1398.72
2189.04
-1393.28
2385.8
-1414.15
2583.69
-1443
2783.41
-1472.69
2984.84
-1497.29
3186.68
-1506.94
3385.83
-1487.94
3578.99
-1432.97
3764.22
-1341.11
3937.93
-1192.47
4089.86
-945.276
4204.35
-587.056
4263.31
-148.826
4248.87
317.664
4171.77
669.199
4055.76
868.038
3915.2
975.385
3756.83
1041.25
3583.98
1089.93
3399.19
1129.81
3205.06
1163.27
3003.27
1194.58
2792.65
1232.11
2570.62
1282.69
2340.08
1340.34
2106.26
1388
1838.28
1464.47
1447.17
1741.07
905.464
2341.71
383.107
3013.77
84.8796
3179.18
-45.9387
2572.09
-174.763
1692.64
-306.735
1039.59
-391.327
554.985
-369.85
-95.0698
-280.982
-577.202
-126.436
-1014.07
84.04
-1420.49
337.522
-1723.28
632.146
-1892.87
958.869
-1979.74
1295.41
-2036.43
1624.8
-2066.16
1944.22
-2055.99
2253.45
-2018.86
2552.15
-1971.77
2840.88
-1927.32
3121.85
-1897.22
3399.63
-1894.56
3681.69
-1933.24
3978.2
-2024.19
4299.48
-2166.76
4651.2
-2339.69
5030.14
-2502.57
5424.39
-2612.45
5817.93
-2643.03
6195.89
-2591.82
6547.69
-2473.81
6867.52
-2310.27
7153.02
-2119.24
7403.1
-1910.35
7616.26
-1686.83
7790.21
-1450.67
7923.03
-1209.52
8015.43
-980.726
8072.72
-788.282
8105.6
-655.493
8127.86
-592.524
8151.35
-588.782
8182.08
-619.949
8219.37
-663.221
8258.84
-710.755
8297.16
-770.106
8334.55
-848.174
8373.51
-933.13
8416.97
-993.822
8468.87
-995.446
8534
-907.74
8612.5
-699.201
8688.68
-330.74
8724.98
211.138
8691.99
803.411
8588.24
1302.82
8430.09
1645.32
8237.19
1836.45
8025.98
1909.73
7808.53
1900.33
7593.42
1835.96
7386.74
1735.85
7192.82
1613.62
7014.75
1477.15
6853.89
1338.61
6711.95
1189.13
6584.4
1085.94
861.863
1313.48
-1527.3
1519.44
-1615.08
1716.02
-1614.03
1903.33
-1586.03
2084.98
-1574.93
2265.93
-1595.1
2447.74
-1624.81
2631.2
-1656.15
2816.52
-1682.61
3002.7
-1693.12
3186.82
-1672.06
3365.9
-1612.04
3539.02
-1514.23
3704.17
-1357.62
3852.55
-1093.66
3969.21
-703.715
4035.58
-215.198
4030.4
322.844
3962.66
736.937
3856.95
973.746
3726.92
1105.41
3578.07
1190.1
3412.78
1255.21
3233.38
1309.21
3042.85
1353.79
2843
1394.43
2632.59
1442.52
2411.23
1504.05
2184.82
1566.75
1947.8
1625.02
1640.52
1771.74
1182.42
2199.16
634.857
2889.28
215.042
3433.58
30.078
3364.14
-55.0344
2657.2
-169.193
1806.79
-288.179
1158.57
-367.615
634.416
-346.208
-116.488
-264.943
-658.474
-120.395
-1158.62
78.7003
-1619.59
321.496
-1966.08
602.604
-2173.98
910.761
-2287.9
1226.88
-2352.55
1537.1
-2376.38
1838.36
-2357.25
2129.89
-2310.39
2411.06
-2252.94
2682.15
-2198.41
2945.16
-2160.22
3204.51
-2153.91
3467.86
-2196.59
3745.82
-2302.15
4049.18
-2470.12
4383.49
-2674
4744.84
-2863.91
5120.62
-2988.23
5494.68
-3017.1
5852.7
-2949.84
6184.96
-2806.08
6486.51
-2611.82
6755.66
-2388.38
6991.45
-2146.14
7191.88
-1887.27
7353.48
-1612.27
7472.76
-1328.79
7549.03
-1057
7586.86
-826.121
7597.76
-666.387
7597.55
-592.318
7600.43
-591.664
7614.02
-633.536
7637.81
-687.008
7666.18
-739.132
7693.77
-797.695
7718.47
-872.869
7740.57
-955.234
7761.59
-1014.84
7786.18
-1020.03
7822.57
-944.134
7876.49
-753.122
7938.7
-392.944
7974.66
175.171
7952.29
825.784
7867.55
1387.56
7734.43
1778.43
7570.29
2000.59
7389.42
2090.59
7202.3
2087.46
7016.49
2021.78
6837.56
1914.78
6669.69
1781.49
6515.88
1630.96
6377.72
1476.76
6256.6
1310.24
6148.95
1193.6
945.525
1260.12
-1718.62
1449.77
-1804.73
1631.6
-1795.86
1804.89
-1759.33
1972.08
-1742.12
2137.76
-1760.78
2303.6
-1790.64
2471.02
-1823.58
2641.03
-1852.62
2813.19
-1865.28
2984.53
-1843.41
3151.76
-1779.27
3314.14
-1676.62
3470.73
-1514.2
3614.41
-1237.34
3731.86
-821.166
3804.84
-288.179
3807.89
319.783
3747.48
797.349
3649.66
1071.56
3528.32
1226.75
3388.08
1330.34
3230.32
1412.97
3056.82
1482.7
2870.48
1540.14
2672.79
1592.11
2463.25
1652.06
2244.85
1722.45
2022.03
1789.57
1768.53
1878.51
1405.79
2134.48
900.631
2704.33
399.248
3390.66
96.2953
3736.53
-7.83988
3468.27
-68.7881
2718.14
-169.894
1907.9
-275.596
1264.26
-349.368
708.182
-328.309
-137.562
-254.607
-732.184
-120.966
-1292.27
64.474
-1805.04
292.348
-2193.96
555.809
-2437.44
842.867
-2574.96
1136.94
-2646.62
1426.45
-2665.9
1708.16
-2638.96
1980.87
-2583.11
2243.69
-2515.76
2496.62
-2451.35
2741.33
-2404.94
2981.99
-2394.57
3226.13
-2440.74
3484.45
-2560.47
3767.76
-2753.43
4081.41
-2987.66
4421.24
-3203.74
4774.79
-3341.78
5126.67
-3368.97
5463.64
-3286.82
5777.14
-3119.57
6063.12
-2897.81
6320.49
-2645.75
6548.23
-2373.88
6743.47
-2082.51
6900.94
-1769.73
7014.89
-1442.75
7082.57
-1124.67
7107.22
-850.769
7100.97
-660.14
7082.03
-573.376
7067.34
-576.977
7066.64
-632.836
7080.03
-700.399
7101.01
-760.107
7122.36
-819.045
7139.6
-890.111
7150.3
-965.932
7153.75
-1018.29
7154.79
-1021.07
7164.78
-954.131
7194.59
-782.925
7240.69
-439.049
7271.5
144.358
7253.65
843.638
7181.78
1459.43
7068.15
1892.07
6927.88
2140.87
6773.1
2245.37
6612.63
2247.93
6452.96
2181.45
6299.09
2068.65
6154.93
1925.65
6023.32
1762.57
5906.14
1593.94
5804.53
1411.86
5716.25
1281.88
1011.37
1197.64
-1890.96
1372.54
-1979.63
1541.61
-1964.93
1701.07
-1918.79
1852.6
-1893.65
2001.61
-1909.79
2150.66
-1939.7
2302.14
-1975.05
2457.77
-2008.26
2617.53
-2025.03
2778.28
-2004.17
2936.21
-1937.2
3090.32
-1830.73
3240.01
-1663.9
3379.28
-1376.61
3496.5
-938.389
3574.7
-366.38
3584.69
309.789
3530.15
851.893
3438.48
1163.23
3324.15
1341.08
3191.37
1463.12
3040.69
1563.66
2873.23
1650.17
2691.26
1722.1
2495.95
1787.42
2288.67
1859.34
2074.96
1936.16
1849.77
2014.76
1562.41
2165.87
1141.16
2555.73
627.266
3218.21
211.677
3806.25
15.1681
3933.04
-38.465
3521.9
-86.0995
2765.78
-174.217
1996.01
-266.638
1356.68
-334.561
776.1
-314.115
-158.019
-247.916
-798.39
-126.284
-1413.9
43.3009
-1974.62
252.8
-2403.46
495.437
-2680.08
759.468
-2839
1030.32
-2917.48
1298.11
-2933.68
1559.48
-2900.33
1812.9
-2836.53
2057.22
-2760.08
2292.1
-2686.23
2518.75
-2631.59
2740.86
-2616.68
2965.53
-2665.4
3203.02
-2797.96
3463.76
-3014.17
3752.91
-3276.81
4066.6
-3517.43
4393.31
-3668.49
4719.06
-3694.71
5032.2
-3599.96
5325.65
-3413.01
5596.6
-3168.76
5844.77
-2893.92
6069.17
-2598.28
6265.81
-2279.16
6427.06
-1930.98
6544.17
-1559.86
6611.45
-1191.95
6629.97
-869.29
6612.28
-642.452
6579.15
-540.245
6550.6
-548.431
6538.89
-621.127
6545.06
-706.574
6562.02
-777.063
6581
-838.021
6595.13
-904.245
6598.71
-969.513
6588.06
-1007.64
6567.93
-1000.94
6552.94
-939.146
6559.07
-789.049
6587.89
-467.87
6610.18
122.066
6592.34
861.481
6528.72
1523.05
6430.29
1990.49
6310.03
2261.13
6177.86
2377.53
6040.9
2384.89
5904.55
2317.8
5773.16
2200.04
5650.35
2048.45
5538.9
1874.02
5441.1
1691.74
5358.07
1494.89
5289.09
1350.85
1059.36
1129.23
-2044.19
1292.11
-2142.51
1448.05
-2120.88
1591.5
-2062.24
1725.49
-2027.65
1857.14
-2041.44
1989.96
-2072.53
2126.93
-2112.03
2270.03
-2151.36
2419.14
-2174.14
2570.75
-2155.78
2720.65
-2087.1
2867.81
-1977.9
3011.91
-1808
3147.54
-1512.24
3264.35
-1055.2
3346.94
-448.964
3362.9
293.822
3313.15
901.643
3226.41
1249.96
3117.78
1449.7
2991.34
1589.55
2847.09
1707.91
2685.4
1811.85
2507.67
1899.83
2315.21
1979.88
2112.08
2062.47
1902.24
2146
1662.77
2254.23
1327.14
2501.49
862.824
3020.05
384.552
3696.48
72.4328
4118.36
-41.5568
4047.03
-66.8643
3547.21
-105.338
2804.25
-180.301
2070.97
-259.544
1435.92
-321.694
838.243
-302.212
-177.517
-243.472
-857.137
-135.143
-1522.24
16.4485
-2126.22
205.154
-2592.17
424.873
-2899.8
664.611
-3078.74
911.666
-3164.54
1157.42
-3179.44
1398.42
-3141.33
1632.85
-3070.97
1859.27
-2986.5
2076.9
-2903.86
2286.36
-2841.05
2490.66
-2820.98
2696.09
-2870.84
2912.07
-3013.93
3148.28
-3250.38
3409.71
-3538.24
3693.12
-3800.84
3988.37
-3963.75
4283.25
-3989.6
4568.02
-3884.73
4837.47
-3682.47
5090.68
-3421.96
5328.92
-3132.17
5551.78
-2821.14
5754.26
-2481.64
5925.88
-2102.6
6054.1
-1688.08
6129.26
-1267.11
6149.14
-889.168
6126.34
-619.657
6084.36
-498.261
6046.48
-510.548
6027.76
-602.413
6030.43
-709.244
6047.05
-793.682
6067.6
-858.57
6082.83
-919.47
6083.09
-969.779
6060.9
-985.448
6020.82
-960.857
5981.26
-899.587
5963.71
-771.5
5974.44
-478.605
5985.82
110.692
5964.67
882.626
5905.87
1581.85
5819.39
2076.97
5716.08
2364.45
5603.63
2489.98
5487.44
2501.07
5371.8
2433.45
5260.41
2311.43
5156.66
2152.2
5063.49
1967.2
4983.78
1771.44
4918.82
1559.85
4869.14
1400.54
1090.05
1058.84
-2190.66
1210.42
-2294.09
1350.54
-2261
1476.28
-2187.98
1592.37
-2143.74
1707.24
-2156.3
1825.17
-2190.46
1949.6
-2236.46
2082.37
-2284.12
2222.71
-2314.49
2366.3
-2299.37
2508.54
-2229.35
2648.79
-2118.14
2787.35
-1946.56
2919.41
-1644.31
3035.62
-1171.41
3122.14
-535.487
3143.57
272.387
3097.98
947.238
3015.41
1332.53
2911.57
1553.54
2790.56
1710.56
2652.02
1846.45
2495.56
1968.31
2321.76
2073.63
2133.1
2168.54
1935.48
2260.09
1724.15
2357.33
1455.2
2523.18
1067.83
2888.86
591.927
3495.94
185.488
4102.92
-26.842
4330.69
-84.4346
4104.62
-94.6098
3557.38
-125.119
2834.75
-187.091
2132.94
-253.522
1502.35
-309.913
894.63
-291.569
-195.873
-240.266
-908.445
-146.033
-1616.47
-13.8734
-2258.38
152.154
-2758.2
347.481
-3095.13
562.414
-3293.67
785.805
-3387.93
1009.92
-3403.55
1231.19
-3362.61
1447.56
-3287.34
1657.3
-3196.24
1859.13
-3105.69
2052.93
-3034.85
2240.79
-3008.85
2427.96
-3058.01
2622.65
-3208.62
2833.57
-3461.3
3065.45
-3770.11
3315.81
-4051.2
3575.98
-4223.92
3835.42
-4249.04
4086.25
-4135.56
4325.49
-3921.7
4554.84
-3651.31
4778.38
-3355.71
4997.48
-3040.24
5206.83
-2690.98
5392.9
-2288.67
5538.6
-1833.78
5629.22
-1357.73
5657.67
-917.616
5636.26
-598.249
5591.32
-453.317
5549.4
-468.631
5528.55
-581.567
5532.23
-712.921
5552.84
-814.293
5579.4
-885.129
5600.22
-940.291
5600.94
-970.498
5569.3
-953.807
5509.8
-901.361
5445.38
-835.159
5403.77
-729.892
5395.72
-470.559
5394.33
112.08
5367.4
909.557
5310.86
1638.4
5233.87
2153.95
5145.07
2453.24
5049.9
2585.16
4952.02
2598.96
4854.6
2530.86
4760.8
2405.23
4674
2239
4597.52
2043.68
4534.94
1834.02
4487.74
1607.05
4456.95
1431.33
1104.73
991.43
-2322.77
1126.66
-2429.33
1249.79
-2384.12
1357.85
-2296.04
1456.29
-2242.19
1555.24
-2255.25
1659.96
-2295.19
1774.08
-2350.58
1898.69
-2408.73
2031.88
-2447.68
2168.24
-2435.73
2302.83
-2363.94
2435.67
-2250.98
2568.04
-2078.93
2695.83
-1772.1
2810.7
-1286.29
2900.57
-625.364
2927.19
245.764
2885.49
988.941
2806.75
1411.26
2707.16
1653.13
2590.93
1826.79
2457.41
1979.96
2305.44
2120.28
2135.42
2243.65
1951.85
2352.11
1758.87
2453.06
1535.65
2580.55
1224.44
2834.39
797.567
3315.74
347.803
3945.71
32.4185
4418.3
-97.2991
4460.41
-120.253
4127.57
-121.723
3558.85
-144.525
2857.55
-194.098
2182.51
-248.394
1556.64
-298.97
945.201
-281.547
-213.312
-237.627
-952.372
-157.99
-1696.11
-46.0676
-2370.31
96.3685
-2900.63
266.718
-3265.48
457.021
-3483.98
657.435
-3588.35
860.745
-3606.86
1063.31
-3565.18
1262.95
-3486.98
1457.68
-3390.98
1645.64
-3293.64
1825.75
-3214.96
1999.01
-3182.11
2169.41
-3228.4
2343.8
-3383.01
2529.76
-3647.27
2731.71
-3972.06
2947.93
-4267.42
3171.09
-4447.08
3391.95
-4469.9
3603.98
-4347.59
3806.13
-4123.85
4003.29
-3848.48
4203.79
-3556.2
4412.71
-3249.17
4625.87
-2904.13
4826.95
-2489.76
4993.83
-2000.67
5105.67
-1469.57
5148.59
-960.535
5134.39
-584.045
5092.4
-411.328
5052.23
-428.459
5034.87
-564.211
5044.9
-722.947
5074.66
-844.053
5112.46
-922.931
5144.11
-971.941
5149.53
-975.921
5110.63
-914.904
5032.06
-822.798
4942.08
-745.171
4875.64
-663.459
4847.95
-442.87
4832.21
127.83
4797.63
944.134
4741.51
1694.52
4672.17
2223.29
4595.94
2529.48
4515.9
2665.2
4434
2680.85
4352.43
2612.44
4273.98
2483.67
4202.28
2310.7
4141.21
2104.76
4094.94
1880.29
4065
1636.99
4052.26
1444.07
1105.31
922.479
-2439.15
1042.23
-2549.08
1148.77
-2490.66
1238.81
-2386.08
1320.06
-2323.44
1405.07
-2340.26
1499.45
-2389.57
1605.85
-2456.98
1723.88
-2526.76
1850.38
-2574.19
1979.18
-2564.53
2105.42
-2490.18
2230.07
-2375.64
2355.5
-2204.36
2478.15
-1894.75
2590.58
-1398.72
2682.76
-717.545
2714.1
214.415
2676.18
1026.86
2601.21
1486.23
2505.67
1748.67
2393.79
1938.66
2264.66
2109.09
2116.47
2268.46
1950.52
2409.6
1772.85
2529.78
1579.78
2646.13
1331.27
2829.06
974.179
3191.48
534.026
3755.89
143.223
4336.51
-79.8376
4641.36
-149.406
4529.97
-152.57
4130.73
-147.722
3554
-162.915
2872.74
-200.85
2220.44
-243.837
1599.62
-288.754
990.113
-271.814
-230.262
-235.156
-989.036
-170.267
-1761
-78.5518
-2462.02
40.4647
-3019.65
186.02
-3411.04
352.268
-3650.23
530.59
-3766.67
714.009
-3790.28
898.945
-3750.11
1083.31
-3671.35
1264.94
-3572.6
1441.15
-3469.85
1609.65
-3383.47
1770.09
-3342.55
1925.11
-3383.43
2080.31
-3538.21
2242.14
-3809.1
2414.66
-4144.58
2596.93
-4449.69
2782.95
-4633.1
2964.47
-4651.42
3135.37
-4518.49
3295.4
-4283.88
3452.17
-4005.25
3619.4
-3723.43
3808.42
-3438.19
4018.52
-3114.23
4231.36
-2702.6
4419.72
-2189.03
4555.79
-1605.64
4616.51
-1021.26
4613.39
-580.925
4579.21
-377.147
4546.11
-395.361
4537.93
-556.028
4560.14
-745.152
4605.07
-888.989
4660.54
-978.398
4709.63
-1021.03
4725.24
-991.531
4682.12
-871.787
4585.44
-726.116
4469.37
-629.096
4377.21
-571.306
4328.51
-394.169
4296.58
159.756
4252.88
987.834
4195.89
1751.51
4132.84
2286.34
4067.54
2594.78
4000.66
2732.08
3932.52
2748.99
3864.52
2680.43
3799.44
2548.76
3741.3
2368.83
3694.52
2151.53
3663.72
1911.09
3650.27
1650.45
3654.39
1439.95
1094.14
855.113
-2540.28
959.979
-2653.95
1049.24
-2579.92
1121.31
-2458.15
1187.5
-2389.64
1262.1
-2414.86
1349.52
-2477
1450.24
-2557.69
1562.07
-2638.59
1681.04
-2693.16
1800.85
-2684.35
1917.29
-2606.62
2032.64
-2490.98
2150.39
-2322.12
2267.24
-2011.61
2376.24
-1507.71
2469.46
-810.767
2504.77
179.101
2470.46
1061.17
2399.35
1557.34
2307.87
1840.15
2200.13
2046.4
2074.78
2234.44
1929.94
2413.3
1768.68
2570.86
1595.95
2702.51
1393.6
2848.48
1108.19
3114.46
714.917
3584.75
293.698
4177.11
-18.1105
4648.31
-160.752
4784
-191.149
4560.37
-182.701
4122.28
-172.16
3543.46
-179.882
2880.46
-207.075
2247.63
-239.698
1632.24
-279.234
1029.64
-262.181
-247.332
-232.548
-1018.68
-182.018
-1811.54
-110.166
-2533.88
-14.0822
-3115.74
107.907
-3533.03
251.289
-3793.61
408.24
-3923.62
572.484
-3954.52
740.803
-3918.43
911.399
-3841.95
1081.79
-3743
1248.18
-3636.24
1406.67
-3541.96
1555.4
-3491.28
1695.88
-3523.91
1832.64
-3674.97
1971.09
-3947.55
2114.83
-4288.33
2263.84
-4598.7
2413.88
-4783.14
2557.74
-4795.29
2688.77
-4649.52
2805.45
-4400.57
2916.27
-4116.08
3040.36
-3847.51
3197.93
-3595.76
3395.12
-3311.42
3613.05
-2920.54
3819.8
-2395.77
3980.16
-1766
4058.64
-1099.73
4067.16
-589.444
4042.88
-352.871
4020.31
-372.793
4026.3
-562.02
4066.93
-785.776
4134.29
-956.351
4215.51
-1059.62
4290.63
-1096.15
4323.88
-1024.78
4281.29
-829.198
4168.99
-613.818
4027.14
-487.245
3908.52
-452.691
3836.2
-321.849
3785.29
210.674
3731.12
1042
3672.33
1810.3
3614.55
2344.13
3558.71
2650.62
3503.05
2787.74
3446.5
2805.54
3390.05
2736.88
3336.68
2602.13
3290.89
2414.63
3257.38
2185.04
3240.98
1927.49
3242.82
1648.61
3262.43
1420.33
1073.91
790.858
-2627.35
881.165
-2744.26
952.823
-2651.58
1008.65
-2513.97
1063.22
-2444.21
1130.98
-2482.62
1213.75
-2559.78
1309.4
-2653.34
1414.31
-2743.5
1524.3
-2803.16
1633.51
-2793.55
1738.64
-2711.76
1843.51
-2595.86
1952.88
-2431.49
2063.41
-2122.14
2168.23
-1612.54
2261.26
-903.8
2299.64
140.719
2268.69
1092.12
2201.6
1624.43
2114.33
1927.42
2010.59
2150.14
1888.57
2356.45
1747.04
2554.82
1590.86
2727.04
1418.86
2874.51
1195.23
3072.11
868.882
3440.81
461.041
3992.59
88.8577
4549.29
-138.673
4875.84
-220.11
4865.44
-227.039
4567.3
-210.926
4106.17
-194.796
3527.33
-195.424
2881.09
-212.994
2265.2
-236.156
1655.4
-270.503
1063.99
-252.544
-265.302
-229.514
-1041.71
-192.664
-1848.39
-139.825
-2586.72
-65.2619
-3190.3
34.8205
-3633.11
156.313
-3915.1
292.3
-4059.61
437.9
-4100.12
590.595
-4071.13
748.856
-4000.21
909.546
-3903.69
1067.31
-3794
1216.45
-3691.11
1353.74
-3628.57
1479.9
-3650.08
1598.66
-3793.73
1714.29
-4063.17
1829.78
-4403.82
1946.28
-4715.2
2062
-4898.87
2171.41
-4904.69
2266.84
-4744.94
2343.38
-4477.11
2407.14
-4179.84
2480.5
-3920.87
2593.92
-3709.18
2764.63
-3482.14
2976.47
-3132.38
3195.08
-2614.38
3377.94
-1948.86
3471.8
-1193.59
3490.33
-607.98
3476.3
-338.843
3466.19
-362.677
3490.47
-586.305
3555.71
-851.008
3653.26
-1053.9
3769.64
-1176
3882.1
-1208.61
3943.87
-1086.55
3909.38
-794.712
3786.43
-490.863
3620.31
-321.124
3473.67
-306.051
3371.97
-220.153
3297.07
285.568
3230.78
1108.3
3169.43
1871.64
3116
2397.56
3068.14
2698.48
3021.76
2834.12
2974.83
2852.47
2928.33
2783.38
2885.51
2644.95
2851.06
2449.08
2829.58
2206.52
2825.99
1931.08
2841.54
1633.06
2875.38
1386.5
1047.84
731.384
-2710.46
806.893
-2819.77
861.695
-2706.39
904.242
-2556.52
950.625
-2490.59
1013.96
-2545.96
1092.81
-2638.63
1182.66
-2743.2
1279.18
-2840.01
1378.7
-2902.68
1476.04
-2890.89
1568.85
-2804.58
1662.52
-2689.53
1763.07
-2532.04
1866.97
-2226.04
1966.99
-1712.56
2058.63
-995.447
2099.16
100.188
2071.26
1120.02
2008.33
1687.36
1925.47
2010.28
1825.63
2249.97
1706.7
2475.39
1568.81
2692.71
1416.73
2879.11
1237.42
3053.83
981.642
3327.88
621.638
3800.81
227.456
4386.77
-74.9275
4851.67
-226.116
5027.03
-266.234
4905.56
-259.166
4560.23
-237.166
4084.16
-215.635
3505.79
-209.828
2875.28
-219.002
2274.37
-233.51
1669.9
-262.679
1093.15
-242.869
-285.13
-225.858
-1058.73
-201.614
-1872.64
-166.388
-2621.95
-112.146
-3244.55
-33.0297
-3712.23
67.9858
-4016.12
184.007
-4175.64
311.492
-4227.61
449.567
-4209.21
596.632
-4147.27
748.386
-4055.45
897.667
-3943.28
1037.16
-3830.6
1162.72
-3754.14
1274.68
-3762.03
1375.98
-3895.03
1469.46
-4156.66
1557.37
-4491.73
1642.19
-4800.02
1725.23
-4981.9
1803.47
-4982.93
1868.75
-4810.23
1911.85
-4520.21
1932.96
-4200.95
1952.18
-3940.08
2007.6
-3764.6
2130.44
-3604.99
2313.28
-3315.21
2528.16
-2829.26
2731
-2151.69
2840.76
-1303.36
2871.58
-638.794
2871.61
-338.879
2876.46
-367.529
2921.59
-631.433
3015.92
-945.341
3151.66
-1189.65
3316.62
-1340.96
3484.57
-1376.55
3591.37
-1193.36
3575.33
-778.675
3449.34
-364.869
3261.5
-133.28
3079
-123.553
2936.89
-78.0425
2832.31
390.148
2750.98
1189.62
2686.01
1936.61
2635.86
2447.71
2594.38
2739.97
2555.5
2873
2516.73
2891.24
2479.18
2820.93
2446.06
2678.06
2421.78
2473.36
2410.46
2217.85
2417.32
1924.22
2444.56
1605.82
2491.59
1339.47
1019.2
678.492
-2781.23
737.678
-2878.95
777.953
-2746.66
810.379
-2588.95
851.133
-2531.35
911.084
-2605.91
985.397
-2712.94
1067.82
-2825.62
1154.14
-2926.34
1241.84
-2990.38
1326.55
-2975.6
1406.66
-2884.69
1488.96
-2771.83
1580.73
-2623.81
1678.04
-2323.34
1772.83
-1807.36
1862.1
-1084.71
1903.79
58.4913
1878.52
1145.28
1819.89
1745.99
1741.63
2088.54
1645.64
2345.96
1529.82
2591.21
1395.75
2826.78
1244.23
3030.62
1046.91
3251.15
754.271
3620.52
378.158
4176.92
25.7502
4739.18
-198.903
5076.32
-290.088
5118.22
-304.238
4919.71
-288.334
4544.32
-261.414
4057.24
-234.923
3479.3
-223.338
2863.69
-225.203
2276.23
-231.991
1676.69
-255.903
1117.06
-233.183
-307.862
-221.476
-1070.44
-208.413
-1885.7
-189.085
-2641.28
-153.622
-3280.01
-94.8014
-3771.05
-13.8791
-4097.04
83.5391
-4273.06
194.324
-4338.4
318.65
-4333.54
455.038
-4283.66
597.631
-4198.04
737.627
-4083.28
866.656
-3959.63
980.257
-3867.74
1078.5
-3860.28
1163.29
-3979.82
1235.8
-4229.16
1297.37
-4553.3
1351.79
-4854.44
1403.56
-5033.67
1452.94
-5032.32
1492.76
-4850.05
1510.92
-4538.36
1499.48
-4189.52
1467.99
-3908.59
1453.38
-3749.99
1496.95
-3648.55
1604.28
-3422.54
1771.51
-2996.49
1980.55
-2360.74
2114.96
-1437.76
2176.59
-700.433
2207.65
-369.933
2230.76
-390.64
2294.83
-695.509
2424.54
-1075.05
2616.87
-1381.98
2856.6
-1580.69
3104.93
-1624.88
3272.41
-1360.83
3282.78
-789.044
3162.93
-245.021
2955.37
74.2834
2725.51
106.302
2531.34
116.126
2391.03
530.461
2290.84
1289.81
2220.8
2006.65
2172.68
2495.83
2136.09
2776.56
2103.46
2905.63
2072.07
2922.63
2042.85
2850.15
2018.33
2702.58
2002.34
2489.35
1998.23
2221.96
2011.89
1910.55
2048.51
1569.2
2111.39
1276.59
990.81
629.722
-2840.53
674.961
-2924.19
703.162
-2774.86
727.78
-2613.57
764.189
-2567.76
820.431
-2662.16
888.685
-2781.2
961.74
-2898.68
1036.15
-3000.74
1110.99
-3065.22
1182.82
-3047.43
1250.43
-2952.3
1321.78
-2843.19
1405.32
-2707.35
1496.47
-2414.5
1585.94
-1896.83
1672
-1170.78
1713.82
16.6624
1690.79
1168.31
1636.59
1800.19
1563.08
2162.05
1470.95
2438.08
1358.47
2703.68
1227.4
2957.85
1069.72
3188.3
844.211
3476.66
519.094
3945.63
151.911
4544.1
-137.06
5028.15
-289.365
5228.62
-338.93
5167.78
-336.929
4917.7
-314.864
4522.25
-283.845
4026.22
-253.014
3448.47
-236.05
2846.72
-231.272
2271.45
-231.534
1676.95
-250.299
1135.82
-223.575
-334.605
-216.412
-1077.61
-212.834
-1889.29
-207.47
-2646.65
-189.106
-3298.38
-149.673
-3810.48
-89.0148
-4157.71
-9.74961
-4352.33
86.3638
-4434.51
198.286
-4445.46
323.76
-4409.14
456.167
-4330.45
585.621
-4212.73
703.45
-4077.46
805.272
-3969.56
890.772
-3945.78
960.469
-4049.52
1013.68
-4282.38
1050.89
-4590.51
1076.86
-4880.42
1098.86
-5055.67
1120.78
-5054.24
1138.35
-4867.61
1139.86
-4539.88
1109.66
-4159.31
1040.19
-3839.13
955.275
-3665.07
892.695
-3585.97
865.187
-3395.04
899.382
-3030.69
1047.84
-2509.2
1189.63
-1579.54
1308.64
-819.441
1411.6
-472.897
1469.89
-448.931
1572
-797.623
1778.32