/*--------------------------------*- C++ -*----------------------------------*\
| =========                 |                                                 |
| \\      /  F ield         | OpenFOAM: The Open Source CFD Toolbox           |
|  \\    /   O peration     | Version:  4.1                                   |
|   \\  /    A nd           | Web:      www.OpenFOAM.org                      |
|    \\/     M anipulation  |                                                 |
\*---------------------------------------------------------------------------*/
FoamFile
{
    version     2.0;
    format      ascii;
    class       volVectorField;
    location    "700";
    object      U;
}
// * * * * * * * * * * * * * * * * * * * * * * * * * * * * * * * * * * * * * //

dimensions      [0 1 -1 0 0 0 0];

internalField   nonuniform List<vector> 
26785
(
(1.26396e-15 -0.0321106 9.16841)
(1.50193e-15 -0.044501 10.3038)
(1.52844e-15 -0.0522883 11.5751)
(8.22228e-16 -0.0564251 12.8599)
(2.09077e-15 -0.0598666 14.1285)
(7.04666e-16 -0.0640115 15.3912)
(2.57552e-15 -0.0679668 16.6617)
(2.02155e-15 -0.0714422 17.9377)
(3.05639e-15 -0.0742185 19.2092)
(5.91342e-16 -0.0756577 20.4613)
(2.86776e-15 -0.0746389 21.6647)
(3.00423e-15 -0.0700199 22.7746)
(3.55403e-15 -0.060523 23.7391)
(3.82729e-15 -0.0437735 24.484)
(4.08783e-15 -0.018418 24.9029)
(4.26628e-15 0.0113105 24.913)
(4.41117e-15 0.0396844 24.5027)
(4.5781e-15 0.0638633 23.7193)
(4.35128e-15 0.0797284 22.6715)
(5.07018e-15 0.0874223 21.498)
(7.04203e-15 0.0903433 20.2967)
(5.32309e-15 0.0911543 19.1101)
(5.17348e-15 0.0911951 17.9513)
(7.19291e-15 0.0909725 16.8224)
(4.89771e-15 0.0906646 15.7226)
(6.75055e-15 0.0905023 14.6501)
(4.41071e-15 0.0907412 13.6002)
(4.04484e-15 0.0914298 12.5665)
(1.11075e-15 0.0926738 11.5436)
(-2.0873e-15 0.0947498 10.521)
(-3.83754e-15 0.0973072 9.48699)
(-1.83375e-15 0.100194 8.45888)
(-7.08141e-15 0.1086 7.41061)
(1.45416e-15 0.139435 6.21756)
(-1.71321e-14 0.208633 4.6573)
(6.64455e-15 0.257438 1.98818)
(2.54988e-14 0.192712 -0.960411)
(3.10084e-14 0.0761005 -2.00278)
(3.14889e-14 0.0265728 -2.51804)
(1.15765e-14 -0.00765688 -2.67271)
(1.33869e-14 -0.0297998 -2.54275)
(-1.44089e-14 -0.0535376 -2.1943)
(-1.59846e-14 -0.101773 -1.64495)
(-4.62819e-14 -0.167588 -0.812009)
(-2.90515e-14 -0.182163 0.393115)
(-6.78849e-14 -0.118832 1.30035)
(-1.39684e-14 -0.0709116 1.97848)
(-2.59714e-14 -0.0844078 2.84772)
(-2.19575e-14 -0.101446 3.76491)
(-1.9269e-14 -0.110186 4.69521)
(-7.30372e-15 -0.112486 5.60634)
(-1.60177e-14 -0.111812 6.48388)
(-1.27908e-14 -0.110539 7.32835)
(-1.0818e-14 -0.110265 8.14922)
(-9.61663e-15 -0.112084 8.96189)
(-8.01731e-15 -0.116645 9.78607)
(-8.90284e-15 -0.123933 10.6427)
(-6.61428e-15 -0.132995 11.5482)
(-6.59213e-15 -0.142017 12.5079)
(-6.56587e-15 -0.14893 13.5117)
(-4.20476e-15 -0.152194 14.5365)
(-4.14266e-15 -0.151228 15.5525)
(-3.3386e-15 -0.146327 16.531)
(-1.81523e-15 -0.138269 17.4488)
(-5.72311e-16 -0.127878 18.2897)
(4.75111e-16 -0.115764 19.0431)
(1.79133e-15 -0.102378 19.702)
(2.82701e-15 -0.0882446 20.262)
(3.91819e-15 -0.0742542 20.7226)
(4.6466e-15 -0.0617509 21.0897)
(6.5016e-15 -0.0522412 21.3776)
(8.09238e-15 -0.0468885 21.6089)
(8.73734e-15 -0.0460594 21.8104)
(9.40402e-15 -0.0492956 22.0079)
(1.00975e-14 -0.0558679 22.2213)
(1.03557e-14 -0.0653752 22.466)
(1.03989e-14 -0.0776841 22.7553)
(1.09243e-14 -0.0919336 23.1025)
(1.10777e-14 -0.105179 23.5158)
(1.13279e-14 -0.112012 23.986)
(1.10751e-14 -0.10601 24.4761)
(1.17589e-14 -0.0823976 24.9191)
(1.22447e-14 -0.0407726 25.2303)
(1.14126e-14 0.013336 25.3286)
(1.16989e-14 0.0705091 25.1568)
(1.16536e-14 0.121812 24.7061)
(1.10288e-14 0.161026 24.0165)
(1.04533e-14 0.186112 23.1578)
(1.05032e-14 0.198561 22.2035)
(1.03187e-14 0.201379 21.2145)
(1.01272e-14 0.197604 20.2336)
(1.0077e-14 0.18966 19.2882)
(9.98347e-15 0.179255 18.3946)
(9.90887e-15 0.167509 17.5609)
(9.84637e-15 0.155176 16.7925)
(9.82313e-15 0.142638 16.0859)
(9.90341e-15 0.130622 15.4535)
(9.88611e-15 0.118112 14.8504)
(9.8775e-15 0.110345 14.4067)
(9.61995e-15 0.0909123 13.7277)
(1.53832e-15 -0.128564 9.60511)
(1.06586e-15 -0.165954 11.0837)
(2.94885e-15 -0.183319 12.6104)
(2.52434e-15 -0.18825 14.055)
(2.03156e-15 -0.191358 15.4066)
(1.46264e-15 -0.19722 16.6944)
(4.3018e-15 -0.20336 17.9448)
(1.6756e-15 -0.208734 19.1643)
(1.03466e-15 -0.21239 20.3494)
(2.51561e-15 -0.212198 21.4897)
(2.23848e-15 -0.20491 22.5604)
(2.10204e-15 -0.187768 23.5252)
(1.9681e-15 -0.158236 24.3474)
(1.34208e-15 -0.110425 24.9766)
(2.59715e-15 -0.0391448 25.3303)
(5.03418e-15 0.0469908 25.3238)
(3.79489e-15 0.132718 24.9003)
(2.70686e-15 0.20674 24.0778)
(3.69059e-15 0.254302 22.9746)
(5.79651e-15 0.276011 21.743)
(5.45098e-15 0.2829 20.4874)
(8.21856e-15 0.28353 19.252)
(3.91038e-15 0.282155 18.049)
(4.41673e-15 0.280321 16.8795)
(4.55206e-15 0.278512 15.742)
(3.55365e-15 0.277353 14.6341)
(5.44443e-15 0.277538 13.5508)
(3.07511e-15 0.279219 12.4856)
(2.75125e-15 0.282845 11.4313)
(-8.05051e-17 0.289119 10.3748)
(4.17145e-15 0.296039 9.30967)
(-2.07682e-15 0.302857 8.26535)
(-5.06553e-15 0.331671 7.19521)
(-3.56196e-15 0.450305 5.87909)
(-1.01803e-14 0.680501 4.00303)
(3.02218e-15 0.763142 1.26932)
(7.21844e-15 0.517118 -0.836112)
(-1.96555e-15 0.240367 -1.63659)
(-7.03362e-15 0.112491 -2.10073)
(-1.07845e-14 0.0125786 -2.23559)
(-1.89243e-14 -0.058417 -2.07007)
(1.88429e-15 -0.121883 -1.63855)
(-2.80031e-14 -0.218829 -0.951386)
(1.35142e-14 -0.34404 -0.0787445)
(-1.97068e-14 -0.379089 0.700662)
(-2.06686e-14 -0.320647 1.52097)
(-3.93674e-14 -0.303502 2.53591)
(-2.1727e-14 -0.341913 3.61558)
(-3.09154e-14 -0.361857 4.65213)
(-1.27039e-14 -0.360694 5.63007)
(-2.21356e-14 -0.350653 6.55185)
(-1.0853e-14 -0.339426 7.42327)
(-1.13816e-14 -0.330952 8.25401)
(-1.46876e-14 -0.32784 9.05715)
(-6.73989e-15 -0.332143 9.84952)
(-7.50593e-15 -0.345141 10.6515)
(-6.53417e-15 -0.366395 11.4842)
(-3.16822e-15 -0.392768 12.364)
(1.26942e-15 -0.418604 13.2954)
(-1.03757e-15 -0.437576 14.267)
(3.05264e-16 -0.445088 15.2535)
(-2.43913e-16 -0.439558 16.2238)
(1.50333e-15 -0.42209 17.1485)
(1.6105e-15 -0.39521 18.005)
(8.30387e-18 -0.361519 18.7784)
(4.46597e-16 -0.322885 19.4598)
(5.64808e-16 -0.280592 20.0435)
(2.01115e-16 -0.236034 20.5263)
(-4.11309e-17 -0.191575 20.9076)
(2.76917e-15 -0.150899 21.1921)
(2.56335e-15 -0.118255 21.3918)
(3.51739e-15 -0.0970546 21.5265)
(5.38646e-15 -0.0884552 21.6206)
(6.44009e-15 -0.0910488 21.6973)
(6.6983e-15 -0.102351 21.7738)
(6.78192e-15 -0.120806 21.8608)
(8.44076e-15 -0.146356 21.966)
(8.41557e-15 -0.178468 22.0992)
(9.55101e-15 -0.2125 22.2723)
(1.0769e-14 -0.237622 22.4934)
(1.07004e-14 -0.238805 22.756)
(1.18493e-14 -0.201877 23.0323)
(1.30096e-14 -0.119294 23.2742)
(1.20324e-14 0.00482905 23.4203)
(1.13764e-14 0.154179 23.398)
(1.21619e-14 0.302647 23.1435)
(1.3032e-14 0.424555 22.6495)
(1.26645e-14 0.507392 21.9632)
(1.13561e-14 0.552276 21.1529)
(1.04652e-14 0.567076 20.2823)
(1.01017e-14 0.560821 19.3991)
(9.80807e-15 0.541013 18.5352)
(9.49556e-15 0.513048 17.7107)
(9.86676e-15 0.480484 16.9363)
(1.0024e-14 0.445733 16.2194)
(9.6432e-15 0.410035 15.5581)
(9.5527e-15 0.37563 14.9657)
(9.38942e-15 0.339677 14.399)
(9.10956e-15 0.316967 13.9843)
(8.47603e-15 0.261499 13.3461)
(1.91252e-15 -0.256382 10.044)
(3.0368e-15 -0.30896 11.7032)
(1.95878e-15 -0.324026 13.2629)
(3.85924e-15 -0.32128 14.6548)
(3.11039e-15 -0.318649 15.9113)
(1.42414e-15 -0.322691 17.0818)
(4.11262e-15 -0.328622 18.2017)
(2.12833e-15 -0.334188 19.2822)
(2.14444e-15 -0.337494 20.3231)
(1.63127e-15 -0.335023 21.3175)
(1.22033e-15 -0.321826 22.2461)
(9.03396e-16 -0.294238 23.0811)
(6.5899e-16 -0.249257 23.7995)
(4.53995e-16 -0.17768 24.371)
(-7.07419e-17 -0.0684411 24.7318)
(9.16407e-16 0.0699462 24.8013)
(1.41606e-15 0.214768 24.4953)
(2.01011e-15 0.343442 23.781)
(4.26563e-15 0.426806 22.7513)
(2.33865e-15 0.465039 21.562)
(5.1885e-15 0.47733 20.327)
(3.5796e-15 0.478657 19.0974)
(1.48292e-16 0.476451 17.8901)
(2.25141e-15 0.473395 16.7095)
(3.82871e-15 0.470324 15.5564)
(3.38621e-16 0.468268 14.4303)
(-9.32198e-16 0.468398 13.3275)
(6.40292e-16 0.471245 12.2418)
(1.18294e-15 0.477873 11.1625)
(1.99779e-15 0.488334 10.0756)
(1.21759e-15 0.497249 8.99028)
(4.8814e-15 0.508399 7.94476)
(-6.75264e-15 0.575139 6.80836)
(-7.16042e-15 0.808873 5.22247)
(-1.07437e-14 1.16746 3.00633)
(-2.39843e-15 1.1943 0.638835)
(-1.15468e-14 0.761099 -0.637677)
(-3.01964e-14 0.367565 -1.30808)
(-3.59164e-14 0.170347 -1.78459)
(-3.34126e-14 -0.00304455 -1.93179)
(-2.13224e-14 -0.140819 -1.7531)
(-2.06989e-14 -0.26909 -1.30497)
(-3.07907e-14 -0.409429 -0.629924)
(-3.35709e-14 -0.536422 0.14713)
(-3.43183e-14 -0.575853 0.972462)
(-2.72109e-14 -0.556885 1.92365)
(-2.3473e-14 -0.567541 2.98696)
(-1.68622e-14 -0.599606 4.04239)
(-1.17313e-14 -0.606082 5.03275)
(-1.06062e-14 -0.592758 5.96414)
(-1.01569e-14 -0.573093 6.84422)
(-8.66858e-15 -0.55428 7.67751)
(-7.37832e-15 -0.540522 8.47093)
(-4.80108e-15 -0.535472 9.23552)
(-1.54386e-15 -0.542518 9.98712)
(-1.67792e-15 -0.563929 10.7461)
(8.96228e-16 -0.599046 11.5344)
(2.8289e-15 -0.642525 12.3697)
(2.74605e-15 -0.684643 13.2564)
(4.79439e-15 -0.714588 14.1814)
(4.01323e-15 -0.724685 15.1172)
(4.81857e-15 -0.712603 16.0303)
(4.73014e-15 -0.680662 16.8906)
(4.23722e-15 -0.633513 17.6764)
(2.88116e-15 -0.575774 18.3749)
(3.45784e-15 -0.510606 18.9799)
(2.7899e-15 -0.439984 19.4882)
(4.32788e-16 -0.365874 19.898)
(-1.47033e-16 -0.291738 20.2095)
(-8.38029e-16 -0.223232 20.4269)
(-1.41949e-15 -0.167099 20.5611)
(-1.6308e-15 -0.128938 20.6305)
(-1.95371e-15 -0.110702 20.6584)
(-3.81328e-15 -0.109841 20.6672)
(-3.68095e-15 -0.121589 20.6728)
(-3.00568e-15 -0.142605 20.6825)
(-2.44681e-15 -0.172831 20.6988)
(-1.90928e-15 -0.213303 20.7262)
(-1.27818e-15 -0.260573 20.7741)
(-4.59603e-16 -0.30244 20.8538)
(6.98636e-16 -0.319419 20.9704)
(1.75459e-15 -0.29088 21.1155)
(3.85525e-15 -0.201829 21.2671)
(5.7008e-15 -0.0483031 21.3901)
(7.19108e-15 0.160892 21.4282)
(8.69961e-15 0.393844 21.3007)
(9.66283e-15 0.601225 20.9641)
(1.01945e-14 0.75184 20.4364)
(1.02341e-14 0.840693 19.7728)
(1.05265e-14 0.877914 19.0321)
(1.04197e-14 0.877797 18.2623)
(1.00323e-14 0.853002 17.4972)
(9.88331e-15 0.81292 16.7586)
(9.88283e-15 0.76387 16.0595)
(9.76603e-15 0.710195 15.4087)
(9.45021e-15 0.654192 14.8059)
(9.24113e-15 0.599749 14.2652)
(9.00022e-15 0.542563 13.746)
(8.62375e-15 0.505466 13.3688)
(8.12023e-15 0.418327 12.7832)
(2.27162e-15 -0.396657 10.3204)
(3.09499e-15 -0.451145 11.9417)
(2.92408e-15 -0.456026 13.3831)
(2.73786e-15 -0.443191 14.6443)
(2.12455e-15 -0.434746 15.7749)
(3.62134e-15 -0.437425 16.8245)
(1.46824e-15 -0.443543 17.8257)
(9.94805e-16 -0.449587 18.7882)
(2.04427e-15 -0.452856 19.7118)
(1.21843e-15 -0.448667 20.5918)
(8.67363e-16 -0.430659 21.4117)
(3.57131e-16 -0.394779 22.1478)
(3.16543e-16 -0.338408 22.7841)
(1.9947e-16 -0.249892 23.3032)
(-1.51758e-15 -0.112097 23.6593)
(-1.28429e-15 0.0693139 23.7887)
(-6.05323e-16 0.268598 23.6055)
(-8.44112e-16 0.454453 23.0319)
(-1.70881e-15 0.579176 22.1215)
(1.56093e-15 0.639246 21.0225)
(2.12671e-15 0.661209 19.852)
(2.48226e-15 0.666472 18.6659)
(-7.75662e-16 0.665828 17.486)
(3.34457e-16 0.663281 16.3205)
(8.09367e-16 0.660147 15.1739)
(1.00055e-15 0.657968 14.0487)
(8.402e-16 0.65863 12.9441)
(1.07245e-15 0.663609 11.8528)
(1.82115e-15 0.674472 10.7599)
(2.39338e-15 0.688318 9.65778)
(4.14213e-15 0.696616 8.57835)
(-1.70134e-15 0.721145 7.52897)
(-3.50441e-15 0.858937 6.22857)
(-6.61526e-15 1.21688 4.29918)
(-1.36643e-14 1.61023 2.00194)
(8.89918e-15 1.49848 0.292349)
(-2.47638e-14 0.930021 -0.471057)
(-2.62931e-14 0.489467 -1.08703)
(-2.94725e-14 0.246319 -1.57212)
(-6.22566e-14 0.008565 -1.72055)
(-3.56227e-14 -0.191044 -1.53663)
(-1.63726e-15 -0.380753 -1.09295)
(-2.47729e-14 -0.570364 -0.44355)
(-4.82156e-14 -0.727172 0.316349)
(-2.64194e-14 -0.791104 1.16746)
(-2.03233e-14 -0.799703 2.13571)
(-9.96529e-15 -0.819801 3.16984)
(-6.58437e-15 -0.844099 4.17855)
(-8.76243e-15 -0.841547 5.12671)
(-1.48001e-14 -0.819409 6.02063)
(-8.06259e-15 -0.790878 6.86488)
(-1.21877e-14 -0.76376 7.66189)
(-5.35846e-15 -0.74349 8.41738)
(3.719e-15 -0.735239 9.14186)
(2.90642e-15 -0.743977 9.85127)
(4.80282e-15 -0.773155 10.5669)
(4.27881e-15 -0.822002 11.3126)
(8.33438e-15 -0.882784 12.1075)
(4.14126e-15 -0.9412 12.9561)
(5.54521e-15 -0.981421 13.843)
(4.64907e-15 -0.992532 14.7366)
(5.86596e-15 -0.971752 15.6007)
(4.81603e-15 -0.923141 16.4044)
(5.3664e-15 -0.853972 17.1271)
(5.53637e-15 -0.771168 17.7586)
(4.85213e-15 -0.679235 18.2951)
(4.32968e-15 -0.5807 18.7355)
(5.81696e-15 -0.477844 19.0796)
(6.12273e-15 -0.374944 19.3277)
(5.27667e-15 -0.279426 19.4838)
(3.0636e-15 -0.200467 19.5582)
(1.44845e-15 -0.145973 19.5691)
(-2.15975e-16 -0.118845 19.5405)
(-1.76831e-15 -0.115312 19.4959)
(-6.6125e-16 -0.12792 19.4513)
(-1.40582e-15 -0.150871 19.4124)
(-2.48085e-15 -0.183478 19.378)
(-2.75292e-15 -0.228108 19.3476)
(-3.52545e-15 -0.282906 19.3266)
(-2.87659e-15 -0.335454 19.3251)
(-2.0781e-15 -0.363844 19.3513)
(-7.3871e-16 -0.343857 19.4051)
(4.70653e-16 -0.25598 19.4781)
(2.29804e-15 -0.0899717 19.555)
(3.99156e-15 0.154121 19.599)
(5.42806e-15 0.449418 19.5316)
(6.32868e-15 0.729239 19.2922)
(7.11054e-15 0.942818 18.8777)
(7.25045e-15 1.07592 18.3297)
(8.32327e-15 1.13841 17.7002)
(8.61234e-15 1.14835 17.0336)
(8.89763e-15 1.12274 16.3624)
(9.60408e-15 1.07456 15.7083)
(9.57579e-15 1.01272 15.0847)
(9.26037e-15 0.94343 14.5015)
(9.07823e-15 0.870048 13.9592)
(8.92057e-15 0.798088 13.4724)
(8.70922e-15 0.722101 13.0034)
(8.52412e-15 0.671651 12.6652)
(8.48777e-15 0.557364 12.136)
(2.22313e-15 -0.533048 10.3559)
(3.50243e-15 -0.58398 11.8444)
(2.57291e-15 -0.579866 13.165)
(2.96191e-15 -0.558961 14.3232)
(2.1731e-15 -0.545665 15.3573)
(1.73461e-15 -0.547038 16.3101)
(2.55909e-15 -0.552959 17.2132)
(1.62329e-16 -0.559052 18.0766)
(5.02846e-16 -0.562044 18.9022)
(5.92376e-16 -0.556233 19.6879)
(1.03791e-15 -0.533854 20.4207)
(1.54675e-15 -0.490523 21.0799)
(5.92593e-16 -0.424431 21.6533)
(1.23687e-16 -0.322425 22.1286)
(-1.96678e-15 -0.162278 22.4686)
(-3.43382e-15 0.0538612 22.6238)
(-1.37358e-15 0.30021 22.5221)
(-8.81585e-16 0.541718 22.0629)
(-5.73838e-16 0.710157 21.2646)
(-2.66106e-16 0.795492 20.2629)
(2.41152e-16 0.830624 19.1717)
(2.77966e-16 0.842967 18.0462)
(-3.92314e-16 0.846509 16.9099)
(4.55839e-16 0.846517 15.7741)
(5.67321e-16 0.844769 14.6468)
(4.66328e-16 0.843385 13.5348)
(-6.44502e-16 0.845432 12.4395)
(6.12978e-15 0.853874 11.3512)
(4.75235e-15 0.869587 10.2543)
(5.01359e-15 0.88451 9.1578)
(2.75131e-15 0.893557 8.10284)
(1.53978e-15 0.953864 6.99976)
(-2.82416e-15 1.19388 5.42858)
(-1.1055e-15 1.64274 3.23787)
(-1.12241e-14 1.96358 1.2005)
(2.62306e-17 1.68935 0.139057)
(-1.11174e-14 1.05737 -0.374122)
(-1.75462e-14 0.601571 -0.947988)
(-3.70522e-14 0.312557 -1.42323)
(-3.61051e-14 0.0042584 -1.56696)
(-3.90951e-14 -0.256181 -1.38696)
(-2.22987e-14 -0.500785 -0.95596)
(-4.99751e-14 -0.73309 -0.332432)
(-2.99254e-14 -0.915811 0.413134)
(-2.25618e-14 -1.00462 1.263)
(-1.70417e-14 -1.03768 2.21167)
(-1.41117e-14 -1.06492 3.20124)
(-1.18308e-14 -1.08155 4.16055)
(-8.66469e-15 -1.06929 5.06461)
(-1.10761e-14 -1.0377 5.91745)
(-1.93319e-15 -0.999961 6.72145)
(8.00293e-16 -0.964387 7.47808)
(2.34259e-15 -0.937485 8.19245)
(3.77474e-15 -0.925908 8.87472)
(4.36943e-15 -0.936339 9.54105)
(8.55016e-15 -0.973663 10.2139)
(4.92106e-15 -1.03711 10.9193)
(4.82511e-15 -1.11624 11.678)
(4.00292e-15 -1.19146 12.4941)
(5.68512e-15 -1.24137 13.3485)
(5.09044e-15 -1.25182 14.2059)
(6.89646e-15 -1.22011 15.0276)
(5.55737e-15 -1.15268 15.7825)
(6.78856e-15 -1.05988 16.4519)
(6.61351e-15 -0.951142 17.0278)
(7.63788e-15 -0.832236 17.5085)
(1.02566e-14 -0.706015 17.8946)
(1.06341e-14 -0.574777 18.1861)
(1.14614e-14 -0.443381 18.3828)
(1.15041e-14 -0.320965 18.4876)
(1.21233e-14 -0.219255 18.5101)
(1.11122e-14 -0.148776 18.4689)
(9.16034e-15 -0.113644 18.3896)
(7.41039e-15 -0.108749 18.2983)
(7.42613e-15 -0.123378 18.2129)
(6.504e-15 -0.148482 18.1387)
(5.80833e-15 -0.182181 18.0714)
(4.49622e-15 -0.228291 18.0057)
(1.31874e-15 -0.287328 17.9427)
(-4.18183e-16 -0.347773 17.8899)
(-1.64107e-15 -0.386602 17.8555)
(-6.34511e-16 -0.377771 17.843)
(6.60999e-16 -0.298967 17.8526)
(2.99927e-15 -0.133802 17.8831)
(6.25003e-15 0.12863 17.9157)
(7.75527e-15 0.472768 17.8792)
(8.37576e-15 0.81702 17.7037)
(8.33247e-15 1.09012 17.3705)
(8.1556e-15 1.26688 16.9118)
(7.46723e-15 1.35585 16.3733)
(7.4998e-15 1.37814 15.7954)
(7.66021e-15 1.35458 15.208)
(8.36884e-15 1.30137 14.6315)
(8.65319e-15 1.22975 14.0789)
(8.64602e-15 1.14764 13.5599)
(8.47884e-15 1.05942 13.0762)
(8.53642e-15 0.972126 12.6419)
(8.71814e-15 0.879483 12.2229)
(8.78766e-15 0.816817 11.9228)
(8.88892e-15 0.679178 11.4504)
(2.36456e-15 -0.674259 10.1726)
(2.95053e-15 -0.711753 11.5552)
(2.21477e-15 -0.698504 12.7856)
(3.07787e-15 -0.669555 13.8529)
(2.37837e-15 -0.650849 14.7924)
(2.59091e-15 -0.650445 15.6502)
(3.22453e-15 -0.655957 16.4603)
(2.07451e-15 -0.66217 17.2338)
(1.4697e-15 -0.665221 17.9734)
(2.06989e-15 -0.658466 18.6788)
(3.41249e-15 -0.632825 19.3387)
(3.90555e-15 -0.583631 19.9351)
(2.86738e-15 -0.509853 20.4603)
(3.14896e-15 -0.396827 20.9078)
(2.85511e-15 -0.217655 21.2433)
(2.42415e-15 0.0283544 21.4209)
(8.93877e-16 0.315627 21.3781)
(2.06993e-16 0.609789 21.0033)
(1.3815e-15 0.821737 20.2929)
(-9.03343e-17 0.933557 19.3768)
(-5.37183e-16 0.984094 18.3642)
(-1.02911e-15 1.00618 17.3051)
(-7.56762e-16 1.01651 16.2206)
(6.21327e-16 1.02125 15.1227)
(-3.10757e-15 1.02243 14.0225)
(9.54948e-16 1.02286 12.9307)
(2.37022e-15 1.02741 11.8502)
(3.69624e-15 1.0405 10.7686)
(5.84308e-15 1.06017 9.67764)
(1.37278e-15 1.07402 8.60736)
(3.2365e-15 1.09409 7.56591)
(-9.94407e-16 1.22124 6.31762)
(-3.98163e-15 1.57098 4.43658)
(-2.53329e-15 2.04044 2.20855)
(-8.05152e-15 2.21585 0.657026)
(2.53673e-15 1.80661 0.0660156)
(-1.52957e-14 1.16296 -0.336365)
(-1.72758e-14 0.704431 -0.861633)
(-2.96313e-14 0.378783 -1.31502)
(-3.5432e-14 0.00651043 -1.45215)
(-5.88994e-14 -0.314365 -1.28002)
(-3.71536e-14 -0.614748 -0.866025)
(-3.84183e-14 -0.890488 -0.271862)
(-3.84558e-14 -1.10124 0.449483)
(-1.89967e-14 -1.21509 1.27666)
(-1.48541e-14 -1.26763 2.18704)
(-1.20223e-14 -1.29896 3.12431)
(-9.53171e-15 -1.3086 4.03121)
(-4.92633e-15 -1.28784 4.88812)
(-2.29993e-15 -1.24767 5.69662)
(4.92518e-16 -1.2011 6.45743)
(3.62917e-15 -1.15708 7.17137)
(6.52028e-15 -1.12336 7.84304)
(6.28708e-15 -1.10821 8.48224)
(5.33445e-15 -1.12031 9.10528)
(5.0299e-15 -1.16625 9.73588)
(5.717e-15 -1.24535 10.4021)
(6.84328e-15 -1.34401 11.1262)
(6.70461e-15 -1.43658 11.9107)
(1.15347e-14 -1.49564 12.7333)
(1.22868e-14 -1.50404 13.5557)
(1.35546e-14 -1.45975 14.3379)
(1.25025e-14 -1.37213 15.0501)
(1.23316e-14 -1.25493 15.6753)
(1.18227e-14 -1.12009 16.2078)
(1.14324e-14 -0.974457 16.6475)
(1.16753e-14 -0.820897 16.9954)
(1.33102e-14 -0.661393 17.2506)
(1.39599e-14 -0.501199 17.4113)
(1.45546e-14 -0.351225 17.4782)
(1.51963e-14 -0.226043 17.4595)
(1.32961e-14 -0.139379 17.3742)
(1.27444e-14 -0.0970837 17.2502)
(1.19578e-14 -0.0927281 17.1176)
(1.05306e-14 -0.111815 16.9977)
(6.8846e-15 -0.141107 16.8968)
(5.76693e-15 -0.176609 16.8085)
(3.40205e-15 -0.22309 16.7232)
(2.35567e-15 -0.283479 16.6371)
(3.2678e-15 -0.347609 16.5539)
(3.69073e-15 -0.392288 16.4795)
(2.50522e-15 -0.391467 16.4181)
(5.95541e-16 -0.32249 16.3751)
(-3.95355e-15 -0.164685 16.3601)
(-4.99495e-15 0.103755 16.3698)
(7.43121e-16 0.482065 16.3442)
(5.42405e-15 0.880052 16.2094)
(7.59022e-15 1.20626 15.935)
(8.6137e-15 1.42327 15.5456)
(8.95211e-15 1.53746 15.0818)
(8.29175e-15 1.57241 14.5798)
(7.57453e-15 1.55227 14.0663)
(8.28682e-15 1.496 13.5597)
(8.71464e-15 1.41679 13.0721)
(8.09728e-15 1.32403 12.613)
(7.62438e-15 1.22302 12.1845)
(7.90765e-15 1.12218 11.8002)
(8.29362e-15 1.01477 11.4298)
(8.46282e-15 0.941094 11.1658)
(8.64626e-15 0.783212 10.7496)
(2.69853e-15 -0.793526 9.88925)
(2.70358e-15 -0.832484 11.1668)
(3.14721e-15 -0.812085 12.2941)
(2.9182e-15 -0.774857 13.2634)
(2.21738e-15 -0.750764 14.1117)
(1.31937e-15 -0.748974 14.8842)
(2.69428e-15 -0.754462 15.6135)
(3.28791e-15 -0.76115 16.3091)
(3.40329e-15 -0.764618 16.9752)
(4.59484e-15 -0.757336 17.6134)
(5.40833e-15 -0.729014 18.2134)
(3.17803e-15 -0.675063 18.757)
(3.07666e-15 -0.595702 19.2393)
(3.05574e-15 -0.474766 19.6613)
(2.89616e-15 -0.280165 19.9949)
(3.40407e-15 -0.00775638 20.1978)
(5.42743e-15 0.316978 20.2123)
(1.64473e-15 0.662602 19.9118)
(1.43164e-16 0.917645 19.2707)
(-1.01439e-15 1.0556 18.4233)
(-4.03657e-15 1.12217 17.4802)
(-1.55418e-15 1.15563 16.4858)
(-1.86276e-16 1.17488 15.4562)
(-1.12915e-15 1.18644 14.4013)
(-1.50995e-16 1.19215 13.3335)
(1.49212e-15 1.19565 12.2666)
(3.09435e-15 1.20407 11.2026)
(1.63143e-15 1.22224 10.1306)
(3.8914e-15 1.24361 9.05901)
(-2.89347e-15 1.25809 8.0239)
(8.28109e-16 1.31001 6.94342)
(-2.14326e-15 1.53054 5.45877)
(-6.66378e-15 1.96245 3.34793)
(-5.22721e-15 2.37203 1.34646)
(-1.50631e-14 2.37827 0.322551)
(2.02443e-15 1.88164 0.00755678)
(-1.4468e-14 1.25503 -0.33749)
(-1.76533e-14 0.797727 -0.80933)
(-2.43958e-14 0.441225 -1.23373)
(-2.524e-14 0.00748088 -1.3638)
(-4.57356e-14 -0.370987 -1.20098)
(-1.49808e-14 -0.724035 -0.808778)
(-4.25656e-14 -1.04079 -0.249702)
(-1.92729e-14 -1.27982 0.4362)
(-1.51565e-14 -1.41774 1.22554)
(-1.254e-14 -1.4871 2.08623)
(-9.1876e-15 -1.52176 2.96585)
(-1.93558e-15 -1.52548 3.81709)
(2.3839e-15 -1.49698 4.62339)
(8.62611e-15 -1.44863 5.38429)
(8.14865e-15 -1.3935 6.09935)
(8.89893e-15 -1.34122 6.76889)
(4.04528e-15 -1.30073 7.39691)
(6.48691e-15 -1.28207 7.99264)
(7.58009e-15 -1.29604 8.57237)
(9.88037e-15 -1.35127 9.16064)
(1.24685e-14 -1.44711 9.78692)
(1.57974e-14 -1.56633 10.4739)
(1.68181e-14 -1.67665 11.2227)
(2.0649e-14 -1.74446 12.0089)
(2.12852e-14 -1.74998 12.7927)
(2.13471e-14 -1.69239 13.5353)
(2.13651e-14 -1.58436 14.2086)
(2.13034e-14 -1.44305 14.7978)
(1.93226e-14 -1.28285 15.2989)
(1.88087e-14 -1.11135 15.7127)
(1.54432e-14 -0.931071 16.0396)
(1.75707e-14 -0.743271 16.2768)
(1.84376e-14 -0.553408 16.4191)
(1.77623e-14 -0.374303 16.464)
(1.72101e-14 -0.22381 16.4173)
(1.55562e-14 -0.119697 16.2977)
(1.62939e-14 -0.0703152 16.1361)
(1.51929e-14 -0.068038 15.9676)
(1.44047e-14 -0.0940447 15.8181)
(1.30811e-14 -0.129904 15.6964)
(1.28381e-14 -0.168584 15.5948)
(1.3706e-14 -0.215368 15.4998)
(1.68374e-14 -0.275602 15.403)
(2.19125e-14 -0.340737 15.3035)
(2.33683e-14 -0.38806 15.2033)
(2.24916e-14 -0.392937 15.1054)
(1.97476e-14 -0.334234 15.0184)
(1.04179e-14 -0.18827 14.9606)
(1.8874e-15 0.07797 14.9426)
(-8.52333e-16 0.479911 14.9162)
(-2.20822e-16 0.923743 14.8054)
(2.41421e-15 1.29755 14.573)
(3.51703e-15 1.55116 14.2378)
(5.57639e-15 1.6886 13.836)
(6.38295e-15 1.73572 13.3993)
(6.4588e-15 1.71961 12.951)
(7.7389e-15 1.66157 12.5072)
(8.3658e-15 1.57641 12.0788)
(8.38434e-15 1.47467 11.675)
(8.05841e-15 1.36258 11.2981)
(7.9219e-15 1.24969 10.9606)
(7.92215e-15 1.12922 10.6364)
(8.03666e-15 1.04561 10.4059)
(8.50228e-15 0.869864 10.0456)
(3.89189e-15 -0.914659 9.52415)
(2.89809e-15 -0.949486 10.6775)
(3.15261e-15 -0.919925 11.7062)
(2.83136e-15 -0.875121 12.5939)
(2.48822e-15 -0.846407 13.3657)
(2.46709e-15 -0.843582 14.0611)
(2.22892e-15 -0.849116 14.7126)
(3.0405e-15 -0.856507 15.3321)
(4.39909e-15 -0.860948 15.9288)
(3.48549e-15 -0.853881 16.5086)
(3.35295e-15 -0.823475 17.0619)
(3.21066e-15 -0.765243 17.5674)
(3.27263e-15 -0.681282 18.0182)
(2.99362e-15 -0.554665 18.4187)
(2.783e-15 -0.348228 18.7463)
(1.06558e-15 -0.0537146 18.9664)
(-2.98064e-17 0.305119 19.032)
(9.67347e-16 0.70172 18.8043)
(5.51479e-16 1.00044 18.2257)
(-6.29236e-16 1.16405 17.4359)
(-1.38963e-15 1.24634 16.5525)
(-1.55822e-15 1.29177 15.6177)
(-6.07887e-17 1.32137 14.6422)
(-4.09772e-17 1.34148 13.6326)
(-1.52765e-15 1.35328 12.6012)
(2.93865e-16 1.36143 11.5619)
(4.02319e-16 1.37507 10.5153)
(3.81021e-15 1.39754 9.45882)
(-1.93879e-15 1.41888 8.42008)
(-1.75875e-15 1.44331 7.40332)
(-1.74344e-15 1.55391 6.19981)
(-6.66623e-15 1.87462 4.44557)
(-7.91037e-15 2.33186 2.29179)
(-7.70474e-15 2.61934 0.706473)
(-1.58575e-14 2.47322 0.117224)
(-7.76091e-17 1.93394 -0.0597261)
(-1.52496e-14 1.33598 -0.361777)
(-1.7244e-14 0.880543 -0.779308)
(-1.94654e-14 0.499052 -1.16984)
(-1.53396e-14 0.00902089 -1.29347)
(-3.98616e-14 -0.423884 -1.14041)
(-3.04594e-14 -0.826504 -0.774614)
(-3.21193e-14 -1.18204 -0.256173)
(-1.53156e-14 -1.44947 0.383824)
(-1.3816e-14 -1.61034 1.12345)
(-9.9668e-15 -1.69446 1.92609)
(-5.8866e-15 -1.7321 2.74353)
(-3.34455e-15 -1.73106 3.5359)
(3.98294e-15 -1.69588 4.28856)
(5.56484e-15 -1.64015 4.99951)
(2.07675e-15 -1.57704 5.66737)
(2.96179e-15 -1.51688 6.29192)
(6.06412e-15 -1.46983 6.87635)
(1.00256e-14 -1.44769 7.42903)
(1.37835e-14 -1.46366 7.96572)
(1.78646e-14 -1.52851 8.51093)
(1.95194e-14 -1.64163 9.09431)
(2.39957e-14 -1.78185 9.73821)
(2.39615e-14 -1.91 10.443)
(2.57495e-14 -1.98643 11.1837)
(2.373e-14 -1.98915 11.922)
(2.35679e-14 -1.91887 12.6214)
(2.36564e-14 -1.79161 13.2566)
(2.3779e-14 -1.62787 13.8153)
(2.41673e-14 -1.44423 14.2949)
(2.37152e-14 -1.24867 14.6966)
(2.32732e-14 -1.04284 15.0193)
(2.40232e-14 -0.82682 15.2572)
(2.40368e-14 -0.606063 15.4003)
(2.35046e-14 -0.395487 15.4411)
(2.32325e-14 -0.216757 15.3819)
(2.25406e-14 -0.0928176 15.2401)
(2.38387e-14 -0.035583 15.0498)
(2.59363e-14 -0.0365039 14.8517)
(2.69437e-14 -0.0719545 14.6781)
(2.79654e-14 -0.117218 14.5409)
(3.00248e-14 -0.161126 14.4322)
(3.1208e-14 -0.208784 14.3353)
(3.50669e-14 -0.267617 14.2371)
(3.86908e-14 -0.330589 14.1318)
(4.13231e-14 -0.37598 14.016)
(4.33451e-14 -0.382231 13.8895)
(3.93416e-14 -0.331855 13.7638)
(3.30086e-14 -0.199905 13.6655)
(2.42471e-14 0.0572642 13.6172)
(1.35815e-14 0.473495 13.5818)
(6.02442e-15 0.955117 13.4832)
(2.47537e-15 1.37022 13.2804)
(2.06622e-15 1.65586 12.9881)
(2.30035e-15 1.81376 12.6381)
(3.18021e-15 1.87187 12.2581)
(4.93005e-15 1.85984 11.8676)
(6.29595e-15 1.80082 11.4803)
(7.04552e-15 1.71088 11.1059)
(7.08166e-15 1.60148 10.7528)
(6.66483e-15 1.4797 10.4236)
(6.89471e-15 1.35599 10.1295)
(7.25652e-15 1.22397 9.84902)
(7.69657e-15 1.13101 9.64994)
(8.14342e-15 0.939092 9.346)
(5.11146e-15 -1.0236 9.0821)
(2.39656e-15 -1.058 10.1182)
(2.85578e-15 -1.02327 11.0718)
(2.68389e-15 -0.971996 11.888)
(2.10565e-15 -0.938307 12.5789)
(2.80585e-15 -0.934128 13.1875)
(3.48576e-15 -0.939809 13.7547)
(2.31985e-15 -0.948604 14.2978)
(2.99606e-15 -0.955241 14.8302)
(3.51037e-15 -0.94986 15.3611)
(1.85772e-15 -0.918587 15.8803)
(1.81462e-15 -0.856747 16.3623)
(2.47709e-15 -0.768616 16.7969)
(2.11252e-15 -0.637192 17.1881)
(1.90515e-15 -0.421003 17.5152)
(1.62611e-15 -0.107918 17.7491)
(1.06654e-15 0.281284 17.8576)
(1.13144e-15 0.727829 17.6963)
(4.22885e-15 1.07125 17.1747)
(3.48787e-15 1.26046 16.4348)
(-5.99699e-16 1.35805 15.603)
(-8.44607e-16 1.41547 14.7215)
(-1.1379e-15 1.45621 13.7973)
(-5.13151e-15 1.48612 12.8334)
(-1.51856e-15 1.50552 11.8403)
(3.49333e-15 1.52005 10.8294)
(1.088e-15 1.53969 9.80207)
(-1.31029e-15 1.56488 8.77158)
(7.18394e-16 1.5881 7.76973)
(-7.33269e-16 1.64044 6.72096)
(-6.38502e-15 1.83223 5.31355)
(-1.02762e-14 2.23179 3.35321)
(-8.80285e-15 2.64729 1.37947)
(-1.32702e-14 2.78486 0.27)
(-1.44108e-14 2.52317 -0.0246131)
(2.70739e-15 1.97298 -0.138672)
(-1.52671e-14 1.40649 -0.39882)
(-1.69825e-14 0.953374 -0.763109)
(-1.86663e-14 0.55214 -1.11658)
(-2.09591e-14 0.0104077 -1.23532)
(-2.18877e-14 -0.473047 -1.092)
(-1.5883e-14 -0.921123 -0.756735)
(-2.82998e-14 -1.31281 -0.283739)
(-8.37808e-15 -1.60775 0.301604)
(-9.96654e-15 -1.79057 0.981716)
(-6.93073e-15 -1.88838 1.71984)
(-2.89734e-15 -1.92927 2.47157)
(-2.80153e-16 -1.9248 3.20281)
(1.33979e-15 -1.88411 3.90011)
(2.2342e-15 -1.8219 4.56022)
(6.13308e-15 -1.75157 5.18097)
(9.64477e-15 -1.68406 5.76138)
(1.19195e-14 -1.6307 6.30358)
(1.58041e-14 -1.6051 6.81467)
(1.96789e-14 -1.62291 7.30914)
(2.32351e-14 -1.69715 7.81038)
(2.34323e-14 -1.82726 8.34692)
(2.37549e-14 -1.98811 8.9402)
(1.99052e-14 -2.1338 9.59056)
(1.64685e-14 -2.21902 10.2748)
(1.57743e-14 -2.21987 10.9578)
(1.6096e-14 -2.13875 11.6067)
(1.56627e-14 -1.99489 12.2002)
(1.67597e-14 -1.81188 12.7286)
(1.7362e-14 -1.60819 13.1915)
(1.98935e-14 -1.39165 13.5907)
(1.95051e-14 -1.16242 13.9233)
(2.31963e-14 -0.918758 14.1793)
(2.51023e-14 -0.665816 14.3424)
(2.55355e-14 -0.420824 14.3982)
(2.54098e-14 -0.209844 14.3437)
(2.47946e-14 -0.0624744 14.194)
(2.55586e-14 0.00443488 13.9857)
(2.64283e-14 -3.61404e-05 13.7663)
(3.16289e-14 -0.0470249 13.5751)
(3.45286e-14 -0.104388 13.4283)
(3.2799e-14 -0.155737 13.3185)
(3.4017e-14 -0.20533 13.2263)
(3.56769e-14 -0.262178 13.1346)
(3.54058e-14 -0.320307 13.0319)
(3.66789e-14 -0.35927 12.9081)
(3.7856e-14 -0.362458 12.7585)
(3.87864e-14 -0.318223 12.5969)
(3.44149e-14 -0.201674 12.4592)
(2.97257e-14 0.0413206 12.3792)
(2.3394e-14 0.464921 12.3293)
(1.46614e-14 0.977822 12.2342)
(8.00995e-15 1.42833 12.0517)
(4.4483e-15 1.74125 11.7935)
(2.93221e-15 1.91647 11.4876)
(2.64491e-15 1.98403 11.1572)
(3.53674e-15 1.97574 10.8182)
(5.07056e-15 1.91619 10.4818)
(6.19118e-15 1.82235 10.1565)
(6.95661e-15 1.70638 9.84957)
(7.28964e-15 1.57609 9.56405)
(7.33388e-15 1.4425 9.31014)
(7.62498e-15 1.30001 9.07092)
(8.17024e-15 1.19765 8.90246)
(8.24451e-15 0.990912 8.65505)
(1.99795e-15 -1.12382 8.57451)
(1.96943e-15 -1.16281 9.52955)
(1.91527e-15 -1.12344 10.4178)
(1.86662e-15 -1.06433 11.1487)
(1.75055e-15 -1.02497 11.7428)
(2.17747e-15 -1.0199 12.2573)
(7.84117e-16 -1.02673 12.742)
(2.52103e-15 -1.03821 13.2174)
(2.00861e-15 -1.04846 13.698)
(1.08717e-15 -1.0462 14.1924)
(1.48782e-15 -1.0153 14.6876)
(5.31296e-16 -0.950758 15.1538)
(-2.4643e-17 -0.859155 15.5791)
(4.96721e-16 -0.723669 15.9687)
(4.20332e-16 -0.498962 16.3013)
(1.30168e-15 -0.169557 16.5499)
(1.55946e-16 0.246616 16.6973)
(1.15451e-15 0.742241 16.5973)
(4.35994e-15 1.13136 16.1283)
(2.30872e-15 1.34621 15.4328)
(1.14822e-15 1.45863 14.6467)
(3.74415e-16 1.5278 13.8128)
(-6.32812e-16 1.57997 12.9361)
(-2.34988e-16 1.62053 12.0165)