/*--------------------------------*- C++ -*----------------------------------*\
| =========                 |                                                 |
| \\      /  F ield         | OpenFOAM: The Open Source CFD Toolbox           |
|  \\    /   O peration     | Version:  4.1                                   |
|   \\  /    A nd           | Web:      www.OpenFOAM.org                      |
|    \\/     M anipulation  |                                                 |
\*---------------------------------------------------------------------------*/
FoamFile
{
    version     2.0;
    format      ascii;
    class       volScalarField;
    location    "700";
    object      p;
}
// * * * * * * * * * * * * * * * * * * * * * * * * * * * * * * * * * * * * * //

dimensions      [0 2 -2 0 0 0 0];

internalField   nonuniform List<scalar> 
26785
(
-73.325
-62.9806
-55.598
-51.0703
-46.9276
-42.7128
-38.6695
-34.7669
-30.9435
-27.2407
-23.7058
-20.3525
-17.1769
-14.1674
-11.3095
-8.59106
-6.00441
-3.54656
-1.21664
0.987728
3.06696
5.01667
6.82476
8.47315
9.96198
11.3162
12.5744
13.7129
14.5966
15.1588
15.542
15.5887
14.8726
13.5215
11.9509
10.4368
9.07409
7.90287
6.93281
6.15413
5.54529
5.07961
4.72998
4.47201
4.2856
4.15481
4.06715
4.01417
3.99344
4.01007
4.07633
4.20712
4.41347
4.69896
5.06368
5.51265
6.06035
6.72815
7.53468
8.4823
9.5477
10.6866
11.863
13.0661
14.2318
15.2275
15.876
15.8704
15.0254
13.4022
11.21
8.65306
5.79055
2.52188
-1.29405
-5.66782
-10.378
-15.011
-19.115
-22.3757
-24.7197
-26.2822
-27.327
-28.1681
-29.1013
-30.4054
-32.2939
-34.778
-37.6282
-40.4425
-42.7414
-44.0598
-44.0019
-42.3284
-38.9215
-34.0153
-27.521
-20.6323
-11.0622
-6.29833
-73.2985
-62.9666
-55.5928
-51.0703
-46.9302
-42.7175
-38.6758
-34.7737
-30.9502
-27.2472
-23.7122
-20.3589
-17.1835
-14.1741
-11.3164
-8.59822
-6.01173
-3.55404
-1.22433
0.97983
3.05895
5.00876
6.81698
8.46489
9.95253
11.3059
12.5655
13.7059
14.5848
15.1325
15.4975
15.5386
14.8264
13.478
11.919
10.4124
9.0545
7.88676
6.91951
6.14322
5.5365
5.07269
4.72469
4.46798
4.28234
4.15183
4.06412
4.01108
3.99048
4.00733
4.07345
4.20318
4.40736
4.69014
5.05315
5.50253
6.05169
6.719
7.5206
8.4596
9.5179
10.6564
11.8336
13.0214
14.1604
15.1331
15.734
15.6602
14.7335
13.0155
10.73
8.09631
5.19083
1.92967
-1.82233
-6.09098
-10.6873
-15.2316
-19.2876
-22.5287
-24.8522
-26.3833
-27.3874
-28.1807
-29.0659
-30.3357
-32.2207
-34.7371
-37.6464
-40.5311
-42.8985
-44.2744
-44.2561
-42.599
-39.1855
-34.2566
-27.7521
-20.8324
-11.3589
-6.22544
-73.2761
-62.9461
-55.5888
-51.0762
-46.9401
-42.7308
-38.6913
-34.7895
-30.9655
-27.2619
-23.7265
-20.373
-17.1977
-14.1888
-11.3315
-8.61362
-6.02742
-3.57004
-1.24074
0.963018
3.04191
4.99193
6.80041
8.44733
9.93261
11.2843
12.5465
13.69
14.5609
15.0859
15.4173
15.4328
14.7206
13.3898
11.8554
10.3635
9.01521
7.85449
6.89291
6.12146
5.51897
5.05889
4.71411
4.45992
4.27586
4.14597
4.05823
4.00506
3.98464
4.00189
4.06783
4.19576
4.39609
4.67415
5.0341
5.48348
6.03429
6.70093
7.49524
8.4203
9.4638
10.5924
11.7591
12.9228
14.027
14.9453
15.4619
15.2825
14.2307
12.3782
9.97335
7.26073
4.33998
1.14598
-2.45501
-6.51878
-10.9133
-15.3153
-19.3181
-22.5816
-24.9515
-26.4964
-27.4686
-28.1997
-29.0133
-30.2328
-32.1163
-34.6892
-37.7005
-40.7076
-43.1948
-44.6723
-44.7245
-43.0938
-39.6569
-34.6599
-28.1026
-21.111
-11.7694
-6.11136
-73.2508
-62.9033
-55.5732
-51.0792
-46.9512
-42.7484
-38.7133
-34.8128
-30.9884
-27.2841
-23.7481
-20.3945
-17.2195
-14.211
-11.3543
-8.63693
-6.05111
-3.59415
-1.26543
0.937731
3.01628
4.96657
6.77527
8.42056
9.90225
11.2513
12.5161
13.6609
14.5183
15.0158
15.3093
15.2867
14.5666
13.265
11.7623
10.2907
8.95601
7.80559
6.85245
6.08828
5.49218
5.03774
4.69783
4.44748
4.2659
4.13708
4.0494
3.99598
3.97566
3.99328
4.059
4.18471
4.3802
4.65201
5.00678
5.45367
6.00395
6.66848
7.45469
8.3645
9.38946
10.4992
11.64
12.7665
13.8204
14.6701
15.0944
14.8
13.6149
11.6253
9.10057
6.30461
3.35593
0.212019
-3.24439
-7.07939
-11.2099
-15.3854
-19.2571
-22.4999
-24.9241
-26.5351
-27.5294
-28.2206
-28.9635
-30.1262
-32.0058
-34.6488
-37.7943
-40.968
-43.6218
-45.2446
-45.4024
-43.8162
-40.3498
-35.2403
-28.5629
-21.432
-12.1731
-6.01244
-73.2292
-62.8574
-55.5598
-51.0882
-46.9698
-42.7748
-38.745
-34.8457
-31.0205
-27.315
-23.7782
-20.4243
-17.2495
-14.2416
-11.3855
-8.66865
-6.08321
-3.62665
-1.29857
0.903924
2.98212
4.93281
6.74176
8.38486
9.86189
11.2067
12.4713
13.6129
14.4505
14.9184
15.178
15.1107
14.3791
13.1102
11.6419
10.1941
8.87661
7.73955
6.79764
6.04331
5.45594
5.0092
4.6759
4.43078
4.25267
4.12554
4.03818
3.98449
3.96402
3.98173
4.04697
4.17035
4.36096
4.62616
4.97436
5.41609
5.96247
6.622
7.39878
8.29303
9.29748
10.3817
11.4853
12.56
13.5454
14.3107
14.6239
14.1965
12.8691
10.7489
8.1289
5.28689
2.34793
-0.723091
-4.03413
-7.65112
-11.5155
-15.4299
-19.1098
-22.2723
-24.7222
-26.4186
-27.4929
-28.2122
-28.9231
-30.0346
-31.9068
-34.6356
-37.953
-41.3362
-44.1955
-45.9994
-46.2943
-44.7707
-41.2702
-36.0072
-29.1452
-21.8101
-12.5506
-5.95319
-73.1595
-62.7971
-55.5429
-51.099
-46.9931
-42.8085
-38.7856
-34.888
-31.0618
-27.355
-23.8171
-20.4626
-17.2881
-14.2808
-11.4254
-8.70905
-6.12391
-3.66769
-1.34021
0.861637
2.93955
4.89086
6.70023
8.34083
9.81219
11.1497
12.4081
13.5401
14.3532
14.7919
15.0221
14.9069
14.1661
12.929
11.4952
10.0738
8.77623
7.65532
6.72738
5.98558
5.40946
4.97265
4.64788
4.40949
4.23596
4.11128
4.02461
3.9706
3.9496
3.96681
4.03113
4.15219
4.33821
4.59695
4.93796
5.37256
5.91153
6.562
7.326
8.20217
9.18284
10.2359
11.2956
12.3088
13.2144
13.8836
14.0731
13.4993
12.0196
9.76832
7.0646
4.19968
1.30081
-1.66842
-4.81827
-8.22153
-11.8369
-15.4984
-18.9637
-21.9911
-24.4085
-26.1649
-27.3409
-28.1311
-28.846
-29.9339
-31.8476
-34.7231
-38.2485
-41.8557
-44.9332
-46.9376
-47.3926
-45.9492
-42.4155
-36.9659
-29.8614
-22.2639
-12.923
-5.93466
-73.0389
-62.7212
-55.5209
-51.1092
-47.0188
-42.8474
-38.8334
-34.9383
-31.1116
-27.4034
-23.8643
-20.5094
-17.3352
-14.3287
-11.474
-8.7582
-6.17329
-3.71732
-1.39039
0.810859
2.8886
4.84082
6.65098
8.28912
9.75343
11.0782
12.3224
13.4388
14.2255
14.6393
14.8392
14.6784
13.9313
12.7232
11.3229
9.92905
8.65375
7.55168
6.6406
5.91431
5.35232
4.92804
4.61393
4.3839
4.2161
4.09456
4.00892
3.95469
3.93309
3.94958
4.01273
4.13111
4.31224
4.56466
4.89845
5.32482
5.85405
6.4923
7.24014
8.09461
9.04672
10.0623
11.0721
12.0158
12.8332
13.3959
13.4517
12.7222
11.0854
8.70772
5.93561
3.07014
0.2352
-2.61168
-5.58703
-8.77448
-12.152
-15.5796
-18.8437
-21.7266
-24.0713
-25.825
-27.0464
-27.9007
-28.6899
-29.8789
-31.9346
-34.984
-38.7102
-42.5382
-45.8362
-48.0487
-48.6802
-47.3348
-43.7777
-38.1138
-30.7135
-22.7999
-13.3066
-5.94263
-72.9175
-62.6445
-55.5027
-51.1256
-47.0515
-42.8944
-38.8901
-34.9977
-31.1701
-27.4604
-23.9201
-20.5646
-17.3908
-14.3851
-11.5312
-8.81595
-6.23119
-3.77536
-1.44893
0.751749
2.82936
4.78284
6.59444
8.23031
9.68495
10.9892
12.2111
13.3078
14.0686
14.4624
14.6302
14.4286
13.6759
12.4934
11.1247
9.75911
8.50802
7.42748
6.53642
5.82902
5.28446
4.87564
4.57458
4.35464
4.19355
4.07562
3.99142
3.93752
3.9158
3.93159
3.99278
4.1073
4.28303
4.52889
4.85489
5.2719
5.78959
6.41321
7.14215
7.97164
8.89064
9.86315
10.8175
11.6858
12.4088
12.8563
12.7713
11.8805
10.0854
7.58868
4.76524
1.92138
-0.829335
-3.54096
-6.33847
-9.31538
-12.4662
-15.6746
-18.7518
-21.4995
-23.768
-25.5009
-26.7506
-27.6679
-28.5398
-29.8524
-32.0949
-35.3716
-39.3302
-43.3766
-46.8769
-49.2893
-50.1118
-48.8914
-45.3343
-39.4354
-31.6943
-23.4206
-13.7178
-5.96565
-72.7905
-62.5478
-55.4734
-51.1381
-47.0849
-42.9455
-38.9532
-35.0645
-31.2365
-27.5254
-23.9837
-20.6279
-17.4546
-14.4499
-11.5968
-8.8821
-6.29738
-3.84157
-1.51555
0.684549
2.76207
4.71728
6.5312
8.16462
9.60488
10.88
12.0739
13.1484
13.8861
14.2614
14.398
14.1593
13.4004
12.2394
10.9001
9.56308
8.3382
7.2822
6.4148
5.73025
5.20702
4.81705
4.53163
4.32336
4.16965
4.05578
3.97366
3.92056
3.8985
3.91279
3.97098
4.08104
4.25098
4.48963
4.80691
5.21325
5.7176
6.32435
7.03178
7.83323
8.71513
9.64004
10.5343
11.3227
11.9462
12.2726
12.0423
10.9892
9.04015
6.43676
3.58169
0.781495
-1.86724
-4.43496
-7.05657
-9.83371
-12.7735
-15.7784
-18.6806
-21.2992
-23.4918
-25.2002
-26.4676
-27.4369
-28.4225
-29.9403
-32.4355
-35.9427
-40.09
-44.304
-47.9716
-50.5773
-51.6174
-50.5674
-47.0496
-40.9022
-32.7846
-24.1177
-14.1631
-5.99332
-72.6694
-62.4501
-55.4461
-51.1544
-47.1229
-43.0026
-39.0232
-35.1387
-31.3103
-27.5979
-24.0551
-20.6989
-17.5263
-14.5227
-11.6707
-8.95646
-6.37167
-3.91571
-1.59002
0.609488
2.68701
4.64467
6.46188
8.09141
9.51061
10.7495
11.9131
12.9637
13.6804
14.0377
14.1448
13.871
13.1042
11.9607
10.6487
9.34062
8.14432
7.11643
6.27705
5.62013
5.12275
4.75532
4.48795
4.2925
4.14671
4.03723
3.95676
3.90332
3.87995
3.89212
3.94705
4.05243
4.21617
4.44703
4.75471
5.14916
5.63852
6.2263
6.9097
7.68012
8.52129
9.39465
10.2253
10.9311
11.4509
11.6519
11.2751
10.0628
7.96926
5.27593
2.41087
-0.325306
-2.85915
-5.28053
-7.73362
-10.3249
-13.0699
-15.8858
-18.6229
-21.1135
-23.2234
-24.9025
-26.1962
-27.2542
-28.4119
-30.1652
-32.8931
-36.5852
-40.8751
-45.2221
-49.037
-51.8381
-53.1333
-52.3111
-48.8837
-42.4789
-33.9564
-24.875
-14.6404
-6.01785
-72.5116
-62.3442
-55.4171
-51.1715
-47.1639
-43.0648
-39.0998
-35.22
-31.3916
-27.6778
-24.1339
-20.7774
-17.6057
-14.6035
-11.7525
-9.03884
-6.45387
-3.9976
-1.67216
0.526741
2.6045
4.56556
6.38666
8.00889
9.39976
10.5989
11.7325
12.7595
13.4523
13.7931
13.8711
13.5632
12.7866
11.657
10.3705
9.09244
7.92782
6.93251
6.12658
5.50298
5.03651
4.69506
4.44736
4.2651
4.1268
4.0201
3.9393
3.88457
3.85948
3.86918
3.92054
4.02093
4.1781
4.40064
4.698
5.07951
5.55244
6.11932
6.7763
7.51288
8.31008
9.12834
9.89282
10.5149
10.9281
11.0017
10.4797
9.11542
6.89143
4.12841
1.27543
-1.37976
-3.79202
-6.07148
-8.36908
-10.7921
-13.3603
-16.0029
-18.586
-20.9562
-22.9932
-24.6546
-25.9834
-27.1443
-28.4891
-30.4717
-33.4023
-37.238
-41.6287
-46.076
-50.0169
-53.0105
-54.6013
-54.0717
-50.7979
-44.1259
-35.1756
-25.6699
-15.1402
-6.03398
-72.3103
-62.2259
-55.383
-51.1848
-47.2029
-43.1275
-39.1789
-35.3052
-31.4777
-27.7634
-24.2188
-20.8626
-17.6922
-14.6917
-11.842
-9.12894
-6.54372
-4.08703
-1.76183
0.436466
2.51487
4.48042
6.30479
7.91447
9.27144
10.4311
11.5364
12.5389
13.204
13.5289
13.5771
13.2356
12.447
11.3282
10.0666
8.82082
7.6921
6.73511
5.96926
5.38545
4.95459
4.64112
4.41285
4.24227
4.10889
4.00256
3.92057
3.86429
3.83708
3.84392
3.89132
3.98637
4.1366
4.35036
4.63669
5.00425
5.45935
6.00353
6.63182
7.33193
8.0823
8.84224
9.53824
10.0768
10.3829
10.3286
9.66571
8.16038
5.82388
3.01331
0.192608
-2.37015
-4.66106
-6.80865
-8.96664
-11.2395
-13.649
-16.1349
-18.5775
-20.8384
-22.8118
-24.4621
-25.839
-27.1231
-28.6562
-30.8356
-33.9195
-37.8512
-42.3027
-46.8196
-50.8632
-54.0364
-55.9626
-55.7942
-52.753
-45.7993
-36.4026
-26.4759
-15.6478
-6.03884
-72.1065
-62.108
-55.3527
-51.2022
-47.2459
-43.1943
-39.2621
-35.3945
-31.568
-27.8534
-24.3087
-20.9532
-17.7847
-14.7863
-11.9384
-9.22618
-6.64078
-4.18371
-1.85883
0.338896
2.41851
4.38917
6.21431
7.80575
9.12663
10.2495
11.3305
12.3014
12.9378
13.2457
13.2627
12.8876
12.0853
10.9758
9.74001
8.53009
7.44297
6.53145
5.81327
5.27528
4.88268
4.59631
4.38474
4.22246
4.09121
3.98408
3.90069
3.8425
3.81279
3.81636
3.85941
3.94874
4.09164
4.29611
4.57069
4.92328
5.3592
5.87892
6.47636
7.13757
7.83865
8.53756
9.16272
9.61834
9.81936
9.63936
8.84229
7.20996
4.78164
1.94572
-0.826508
-3.29208
-5.46823
-7.49764
-9.5324
-11.6717
-13.9387
-16.2827
-18.5979
-20.7611
-22.6796
-24.3263
-25.7589
-27.1648
-28.8643
-31.2037
-34.4013
-38.3928
-42.8706
-47.4261
-51.543
-54.8629
-57.1536
-57.4165
-54.7081
-47.4486
-37.5933
-27.2636
-16.1463
-6.03206
-71.8989
-61.9752
-55.3141
-51.2159
-47.2882
-43.2631
-39.3485
-35.4874
-31.662
-27.9473
-24.4026
-21.0482
-17.8821
-14.8864
-12.0407
-9.3297
-6.74436
-4.2871
-1.96272
0.234437
2.31569
4.29073
6.11248
7.6817
8.96701
10.0589
11.1156
12.0477
12.6559
12.9441
12.9283
12.5194
11.7024
10.6023
9.39543
8.22688
7.1886
6.33078
5.66753
5.17893
4.82342
4.56022
4.36118
4.20382
4.07298
3.96477
3.87969
3.81925
3.78667
3.78654
3.8248
3.90802
4.04315
4.23778
4.49983
4.8364
5.25178
5.74537
6.30993
6.93002
7.57966
8.2154
8.76769
9.14163
9.24172
8.94011
8.01778
6.27494
3.77698
0.936352
-1.77645
-4.14662
-6.21923
-8.14563
-10.0727
-12.0938
-14.2332
-16.4493
-18.649
-20.7235
-22.5931
-24.2399
-25.7299
-27.2501
-29.0944
-31.5605
-34.8341
-38.8503
-43.321
-47.8816
-52.0384
-55.4506
-58.1061
-58.8674
-56.6203
-49.0136
-38.698
-28.0021
-16.618
-6.01623
-71.6994
-61.8423
-55.2766
-51.2305
-47.332
-43.3343
-39.438
-35.5837
-31.7596
-28.0448
-24.5001
-21.1471
-17.9837
-14.9911
-12.148
-9.43859
-6.85362
-4.39646
-2.07283
0.123674
2.20626
4.18288
5.99695
7.54263
8.79483
9.86257
10.8886
11.7799
12.3596
12.6249
12.5745
12.1317
11.3005
10.2124
9.03976
7.91981
6.93871
6.14263
5.53906
5.09895
4.77572
4.53048
4.34007
4.18543
4.05419
3.94473
3.85767
3.79468
3.75883
3.75455
3.78756
3.86419
3.99106
4.17521
4.42391
4.74337
5.13686
5.60269
6.13247
6.70937
7.30569
7.87658
8.35414
8.64724
8.65247
8.23659
7.19962
5.3642
2.81897
-0.00832811
-2.65593
-4.93744
-6.92012
-8.75835
-10.5919
-12.5083
-14.5339
-16.6346
-18.7294
-20.7233
-22.5493
-24.1991
-25.7444
-27.3669
-29.3311
-31.8899
-35.2052
-39.2173
-43.6496
-48.1808
-52.3556
-55.7957
-58.749
-60.066
-58.4432
-50.4184
-39.6614
-28.6598
-17.0471
-5.99822
-71.474
-61.7051
-55.2391
-51.2455
-47.3771
-43.4082
-39.5309
-35.6835
-31.8606
-28.1456
-24.6011
-21.2495
-18.089
-15.0999
-12.2596
-9.55208
-6.96773
-4.5109
-2.18825
0.00721595
2.08917
4.06288
5.8669
7.38953
8.61432
9.65761
10.6495
11.5003
12.0502
12.289
12.2024
11.7264
10.8835
9.81261
8.68154
7.61852
6.70286
5.97441
5.43077
5.03401
4.73681
4.50485
4.32009
4.16684
4.03493
3.92398
3.83472
3.76888
3.72939
3.72048
3.74772
3.81723
3.93524
4.10822
4.3427
4.64395
5.0142
5.45067
5.94385
6.47565
7.01689
7.52163
7.923
8.13441
8.05128
7.53318
6.39453
4.48501
1.91384
-0.885328
-3.46646
-5.66909
-7.57578
-9.33943
-11.0919
-12.9164
-14.8406
-16.8377
-18.8374
-20.7578
-22.5443
-24.1971
-25.7923
-27.5029
-29.5613
-32.1811
-35.5112
-39.4937
-43.8526
-48.3307
-52.5129
-55.8762
-58.9472
-60.8862
-60.0982
-51.5561
-40.4205
-29.2034
-17.4205
-5.99077
-71.2151
-61.5586
-55.1971
-51.2556
-47.4183
-43.4801
-39.6236
-35.7844
-31.9638
-28.2492
-24.7052
-21.3552
-18.198
-15.2124
-12.3751
-9.6697
-7.08605
-4.62956
-2.30807
-0.114728
1.96231
3.92903
5.72226
7.22502
8.42513
9.44167
10.4
11.2105
11.7288
11.9379
11.8141
11.3065
10.4567
9.41066
8.32996
7.33218
6.4885
5.82965
5.34157
4.98101
4.70397
4.48167
4.30062
4.1479
4.01518
3.90257
3.81092
3.74195
3.69844
3.68441
3.70532
3.7671
3.8756
4.03665
4.25597
4.53787
4.88352
5.28908
5.74393
6.22882
6.71334
7.15079
7.47512
7.60298
7.434
6.82771
5.60585
3.64222
1.06518
-1.69398
-4.2106
-6.34571
-8.18971
-9.89096
-11.5738
-13.3178
-15.1523
-17.0564
-18.9698
-20.8233
-22.5734
-24.2279
-25.8658
-27.6486
-29.775
-32.4287
-35.7535
-39.6763
-43.9341
-48.3636
-52.5116
-55.6606
-58.6661
-61.4665
-61.4786
-52.2819
-40.9063
-29.5977
-17.7302
-6.0173
-70.9565
-61.4134
-55.1585
-51.2674
-47.4601
-43.5521
-39.7159
-35.8851
-32.0675
-28.3541
-24.8112
-21.4635
-18.31
-15.3284
-12.4944
-9.79117
-7.2081
-4.75173
-2.43158
-0.242854
1.82359
3.78132
5.56411
7.0519
8.22317
9.21539
10.1416
10.9119
11.3967
11.5734
11.412
10.8764
10.0269
9.01503
7.99361
7.068
6.29971
5.70794
5.26818
4.93664
4.67487
4.45977
4.28132
4.12863
3.99497
3.88055
3.78633
3.71399
3.6661
3.64645
3.6604
3.71377
3.81202
3.96031
4.16349
4.42488
4.74458
5.11768
5.53253
5.96881
6.39509
6.76418
7.011
7.05451
6.79817
6.11009
4.82296
2.82804
0.266586
-2.44013
-4.89347
-6.97142
-8.76456
-10.4142
-12.0379
-13.7122
-15.4677
-17.2885
-19.1239
-20.9165
-22.6321
-24.2855
-25.9574
-27.7947
-29.964
-32.6316
-35.9312
-39.7629
-43.9195
-48.3118
-52.3353
-55.3633
-58.5756
-62.085
-61.7424
-52.2644
-41.032
-29.8031
-18.0064
-6.13473
-70.6973
-61.2573
-55.1144
-51.2764
-47.5008
-43.624
-39.808
-35.9853
-32.1706
-28.4589
-24.9179
-21.5733
-18.4243
-15.4474
-12.6171
-9.91625
-7.33353
-4.87686
-2.55856
-0.378902
1.6724
3.61961
5.39934
6.86564
8.00851
8.98069
9.87549
10.6056
11.0555
11.1976
10.9998
10.4416
9.60134
8.63366
7.67934
6.83033
6.13706
5.60633
5.20689
4.89811
4.64789
4.43848
4.26194
4.10903
3.97429
3.85795
3.76101
3.68509
3.63246
3.60666
3.61297
3.65719
3.74439
3.87902
4.06504
4.30472
4.59712
4.93626
5.30949
5.69556
6.0622
6.36196
6.53088
6.49019
6.14667
5.37763
4.03322
2.02298
-0.506214
-3.14977
-5.5361
-7.55841
-9.30566
-10.9111
-12.4845
-14.0989
-15.7851
-17.5319
-19.2974
-21.0341
-22.7161
-24.3643
-26.06
-27.9325
-30.1236
-32.7902
-36.0396
-39.7574
-43.8263
-48.1434
-51.9611
-55.0336
-58.9941
-61.9699
-60.3602
-51.5347
-40.7422
-29.7325
-18.1893
-6.30431
-70.4478
-61.101
-55.0706
-51.2846
-47.5411
-43.6961
-39.9001
-36.085
-32.273
-28.563
-25.0243
-21.6835
-18.5399
-15.5685
-12.7426
-10.0445
-7.46195
-5.00463
-2.68979
-0.524472
1.50943
3.44677
5.23005
6.66304
7.78378
8.73881
9.60254
10.2927
10.7066
10.8135
10.5818
10.0081
9.1873
8.27313
7.39169
6.62067
5.99853
5.52094
5.15436
4.86325
4.62204
4.41733
4.24231
4.08907
3.95314
3.83477
3.73501
3.6553
3.59762
3.56512
3.56306
3.59729
3.67258
3.79262
3.9604
4.17718
4.44092
4.74462
5.07469
5.40904
5.71476
5.94438
6.03515
5.91062
5.48148
4.63459
3.23839
1.22198
-1.26627
-3.84421
-6.16556
-8.13327
-9.83346
-11.3941
-12.9198
-14.4797
-16.1039
-17.7846
-19.487
-21.1718
-22.8202
-24.4591
-26.1675
-28.0577
-30.257
-32.9102
-36.0833
-39.671
-43.6368
-47.7882
-51.3703
-54.5164
-58.404
-60.5821
-58.3739
-50.2048
-40.0045
-29.3251
-18.2403
-6.43711
-70.1817
-60.944
-55.028
-51.2929
-47.5818
-43.7691
-39.9928
-36.1848
-32.3749
-28.6662
-25.1298
-21.7931
-18.6556
-15.6906
-12.87
-10.1753
-7.59289
-5.13511
-2.82697
-0.67936
1.33422
3.27609
5.04761
6.44651
7.55153
8.49062
9.32356
9.97437
10.3521
10.4243
10.1628
9.58193
8.79099
7.93816
7.13283
6.43819
5.88067
5.448
5.10788
4.83059
4.59668
4.39593
4.22213
4.06855
3.93147
3.81106
3.70836
3.62472
3.56166
3.52189
3.51063
3.53401
3.59646
3.70092
3.84939
4.04205
4.2758
4.54263
4.82804
5.10925
5.35286
5.5117
5.52432
5.31665
4.80364
3.88256
2.44081
0.426784
-2.01292
-4.52391
-6.78602
-8.7073
-10.3662
-11.8837
-13.3621
-14.8687
-16.4336
-18.0519
-19.6946
-21.3289
-22.9424
-24.5672
-26.2771
-28.1707
-30.3663
-32.9872
-36.0577
-39.5059
-43.3348
-47.2353
-50.5712
-53.7349
-57.2409
-58.693
-56.0262
-48.4987
-38.9116
-28.6379
-18.1357
-6.47205
-69.8902
-60.7806
-54.9817
-51.2963
-47.6184
-43.8399
-40.0846
-36.2841
-32.4763
-28.7685
-25.2343
-21.9019
-18.771
-15.8131
-12.9985
-10.3078
-7.72585
-5.26914
-2.97147
-0.843358
1.15162
3.11002
4.8491
6.22049
7.31336
8.23678
9.03943
9.6521
9.99434
10.0334
9.74756
9.1689
8.4173
7.63159
6.90302
6.28047
5.77967
5.38428
5.06538
4.7992
4.5714
4.37389
4.20104
4.04713
3.909
3.78665
3.68105
3.59338
3.52465
3.477
3.45568
3.46724
3.51591
3.60377
3.73183
3.89917
4.10162
4.33019
4.56953
4.79626
4.97671
5.06422
4.99891
4.70928
4.11475
3.12311
1.64092
-0.364423
-2.74996
-5.19218
-7.39798
-9.27838
-10.9021
-12.3823
-13.8177
-15.2741
-16.7822
-18.3402
-19.9244
-21.5075
-23.0835
-24.6875
-26.3874
-28.2729
-30.4532
-33.0207
-35.9715
-39.2771
-42.9289
-46.5294
-49.623
-52.6878
-55.6712
-56.4782
-53.5545
-46.601
-37.5837
-27.7742
-17.899
-6.42299
-69.6021
-60.6193
-54.9375
-51.2987
-47.6528
-43.908
-40.1738
-36.3816
-32.5765
-28.8699
-25.3377
-22.0096
-18.8855
-15.9351
-13.1271
-10.4411
-7.86063
-5.4082
-3.12278
-1.01794
0.978278
2.93623
4.6376
5.98817
7.07032
7.97802
8.75119
9.3274
9.63567
9.64469
9.34093
8.77373
8.0697
7.35461
6.70099
6.14419
5.69184
5.32707
5.02537
4.76852
4.54589
4.35091
4.17863
4.02427
3.88508
3.76091
3.65253
3.56086
3.48632
3.4304
3.39813
3.39687
3.43079
3.50103
3.60758
3.74841
3.9183
4.10726
4.29921
4.47021
4.58655
4.60234
4.4595
4.0894
3.41625
2.3582
0.840182
-1.15229
-3.48057
-5.85313
-8.00466
-9.84818
-11.4413
-12.8884
-14.2842
-15.6932
-17.1468
-18.6468
-20.174
-21.7062
-23.2426
-24.8187
-26.4972
-28.3632
-30.514
-33.0082
-35.8312
-38.988
-42.425
-45.71
-48.5609
-51.4056
-53.8454
-54.1324
-51.0706
-44.6011
-36.1081
-26.8105
-17.5695
-6.33461
-69.3157
-60.4511
-54.8903
-51.2987
-47.6852
-43.9738
-40.2601
-36.4762
-32.6743
-28.9695
-25.4398
-22.1162
-18.9992
-16.0565
-13.2553
-10.5746
-7.99774
-5.55288
-3.28086
-1.19581
0.816818
2.75051
4.4182
5.75154
6.82329
7.71518
8.46005
9.00198
9.27867
9.2616
8.94704
8.40019
7.75027
7.10705
6.52432
6.02562
5.6139
5.27427
4.9869
4.73816
4.51993
4.32676
4.15455
3.99938
3.85892
3.73283
3.62171
3.52607
3.44579
3.3816
3.33792
3.32279
3.34096
3.39258
3.47654
3.58971
3.72581
3.87391
4.01719
4.13134
4.18275
4.12654
3.90673
3.45789
2.70934
1.58925
0.0396203
-1.93743
-4.2075
-6.51014
-8.60832
-10.4175
-11.9837
-13.4016
-14.7608
-16.1245
-17.5257
-18.9692
-20.4405
-21.922
-23.4166
-24.958
-26.6054
-28.4413
-30.547
-32.9522
-35.6443
-38.6421
-41.8384
-44.8197
-47.4401
-50.0028
-51.9128
-51.7615
-48.6223
-42.5572
-34.5555
-25.7978
-17.1743
-6.23646
-69.0392
-60.2826
-54.8424
-51.2967
-47.7158
-44.0377
-40.3435
-36.5674
-32.7689
-29.0664
-25.5399
-22.2215
-19.1119
-16.1771
-13.3828
-10.7082
-8.13812
-5.70199
-3.44848
-1.36069
0.65473
2.55546
4.19432
5.51193
6.5731
7.44924
8.16735
8.67765
8.92583
8.88741
8.56939
8.05095
7.45982
6.88747
6.36971
5.92105
5.54314
5.22439
4.94936
4.70784
4.4933
4.30126
4.12849
3.97196
3.82975
3.70143
3.5874
3.48786
3.40205
3.32979
3.27474
3.24484
3.24631
3.27832
3.33864
3.42304
3.52418
3.63023
3.72369
3.77997
3.76575
3.6374
3.34131
2.81565
1.99513
0.817505
-0.759881
-2.72033
-4.9333
-7.167
-9.21203
-10.9879
-12.5295
-13.9209
-15.2461
-16.5667
-17.917
-19.3051
-20.721
-22.1518
-23.602
-25.1026
-26.7108
-28.5058
-30.5511
-32.8565
-35.4162
-38.2429
-41.1831
-43.8776
-46.2703
-48.5195
-49.9517
-49.4354
-46.2533
-40.5315
-32.9924
-24.7738
-16.7302
-6.13887
-68.7528
-60.1165
-54.7962
-51.294
-47.7456
-44.1003
-40.4246
-36.6552
-32.8597
-29.1597
-25.6372
-22.3246
-19.2233
-16.2966
-13.5092
-10.8426
-8.28154
-5.85537
-3.61582
-1.51339
0.486318
2.35547
3.96804
5.27041
6.3207
7.18137
7.87456
8.35623
8.57952
8.52495
8.2107
7.72766
7.19804
6.69342
6.23349
5.82718
5.47746
5.17643
4.91235
4.67729
4.46583
4.27432
4.10034
3.94169
3.79698
3.66584
3.54854
3.44506
3.3541
3.2742
3.20798
3.16287
3.14672
3.15817
3.19385
3.24843
3.31353
3.37641
3.41901
3.41651
3.33609
3.13557
2.764
2.16352
1.27456
0.0439294
-1.55758
-3.50107
-5.65968
-7.82681
-9.81892
-11.5611
-13.079
-14.4458
-15.739
-17.0183
-18.3188
-19.6521
-21.0128
-22.3922
-23.7952
-25.2498
-26.8118
-28.5551
-30.5267
-32.7254
-35.1513
-37.7967
-40.4782
-42.9044
-45.0691
-46.998
-48.0117
-47.1944
-43.9961
-38.5732
-31.4673
-23.7649
-16.2549
-6.04591
-68.4461
-59.9468
-54.7474
-51.2872
-47.7725
-44.1609
-40.5035
-36.7402
-32.9469
-29.2491
-25.7307
-22.4249
-19.3326
-16.4146
-13.6349
-10.9785
-8.42631
-6.01438
-3.76788
-1.66386
0.313053
2.15331
3.74074
5.02793
6.06711
6.91283
7.58317
8.03944
8.24183
8.17655
7.87293
7.43097
6.96354
6.52174
6.11202
5.74134
5.4154
5.1298
4.87555
4.64627
4.43734
4.24582
4.06999
3.90843
3.76029
3.62547
3.50429
3.39664
3.30081
3.21406
3.13711
3.07672
3.0421
3.03208
3.04218
3.06597
3.09401
3.11274
3.10353
3.04149
2.89441
2.6218
2.17562
1.50233
0.548329
-0.730911
-2.3531
-4.27969
-6.3876
-8.49184
-10.4319
-12.1395
-13.6332
-14.9761
-16.2386
-17.4778
-18.7294
-20.0081
-21.3131
-22.6397
-23.9923
-25.3965
-26.9061
-28.5877
-30.4749
-32.5631
-34.8535
-37.3114
-39.7405
-41.916
-43.85
-45.4636
-46.1136
-45.0491
-41.859
-36.7049
-30.0064
-22.7893
-15.7555
-5.95611
-68.1445
-59.78
-54.6988
-51.2771
-47.7958
-44.2183
-40.5794
-36.8221
-33.0305
-29.3344
-25.8202
-22.5215
-19.4393
-16.5308
-13.7606
-11.1151
-8.5731
-6.16626
-3.90778
-1.81668
0.138035
1.95061
3.51349
4.78545
5.81343
6.64491
7.29464
7.72893
7.91459
7.84399
7.55728
7.16061
6.75408
6.36895
6.0021
5.6615
5.35603
5.0841
4.83868
4.61451
4.40758
4.21558
4.03739
3.87216
3.71963
3.58003
3.45403
3.34179
3.24135
3.14859
3.0617
2.98634
2.93236
2.90004
2.88371
2.87581
2.86589
2.83957
2.77773
2.6555
2.44143
2.09692
1.57705
0.832874
-0.182968
-1.50677
-3.14645
-5.05631
-7.1175
-9.1634
-11.053
-12.7253
-14.1934
-15.5117
-16.744
-17.9438
-19.1469
-20.3709
-21.6193
-22.8907
-24.1896
-25.5393
-26.9908
-28.6014
-30.396
-32.3717
-34.5259
-36.7956
-38.9846
-40.9244
-42.6267
-43.9393
-44.2714
-43.0036
-39.8462
-34.945
-28.6341
-21.8599
-15.2179
-5.8675
-67.8463
-59.6099
-54.6486
-51.2641
-47.8159
-44.272
-40.6517
-36.9006
-33.1107
-29.4158
-25.9055
-22.6141
-19.5426
-16.6452
-13.8863
-11.2509
-8.72109
-6.29986
-4.04371
-1.97054
-0.0369265
1.7484
3.28718
4.54393
5.56078
6.3789
7.01034
7.42609
7.59925
7.52854
7.26425
6.91552
6.56685
6.23167
5.90114
5.58626
5.29875
5.03903
4.80149
4.58172
4.3763
4.18341
4.00243
3.83293
3.67511
3.52965
3.39767
3.27997
3.1749
3.07692
2.98117
2.89149
2.81745
2.76209
2.71853
2.67813
2.62946
2.55732
2.44216
2.25922
1.97798
1.56182
0.969183
0.15595
-0.918879
-2.28372
-3.93811
-5.83137
-7.84958
-9.84192
-11.6837
-13.32
-14.7608
-16.0532
-17.2544
-18.4148
-19.5696
-20.7384
-21.9288
-23.1424
-24.3838
-25.6751
-27.0625
-28.5939
-30.2892
-32.1502
-34.1678
-36.2561
-38.2263
-39.952
-41.4315
-42.4642
-42.5185
-41.0871
-37.9818
-33.3192
-27.3649
-20.9739
-14.6497
-5.78027
-67.5566
-59.4395
-54.5969
-51.2481
-47.8331
-44.322
-40.7195
-36.9748
-33.1869
-29.4932
-25.9866
-22.7025
-19.6423
-16.7579
-14.0102
-11.3862
-8.8538
-6.42132
-4.17932
-2.12338
-0.210852
1.5475
3.06262
4.30428
5.31023
6.116
6.73152
7.13215
7.2969
7.23094
6.99372
6.69395
6.39881
6.1069
5.80717
5.51471
5.24318
4.99438
4.76375
4.54763
4.34316
4.14899
3.9649
3.79072
3.6269
3.4746
3.33553
3.2113
3.10103
2.99837
2.89505
2.79167
2.69732
2.61827
2.5468
2.47322
2.3851
2.2665
2.09747
1.85345
1.50493
1.01747
0.352999
-0.52763
-1.65899
-3.06195
-4.72886
-6.60575
-8.58422
-10.5274
-12.3241
-13.9246
-15.3364
-16.6009
-17.7698
-18.8899
-19.9959
-21.1089
-22.2398
-23.3923
-24.5723
-25.8008
-27.1182
-28.563
-30.1528
-31.8944
-33.7726
-35.6873
-37.464
-39.004
-40.2824
-41.0634
-40.8789
-39.3167
-36.2661
-31.8135
-26.1672
-20.1114
-14.1096
-5.69778
-67.2617
-59.2733
-54.5463
-51.2302
-47.8481
-44.3687
-40.7829
-37.0443
-33.2587
-29.5664
-26.0636
-22.7865
-19.7385
-16.8679
-14.1313
-11.5136
-8.9627
-6.53649
-4.31282
-2.27415
-0.383148
1.34854
2.84053
4.06738
5.06278
5.85729
6.45923
6.84806
7.0083
6.95152
6.74505
6.49372
6.24702
5.99214
5.71878
5.44623
5.18905
4.94993
4.72524
4.51196
4.30784
4.112
3.92449
3.74537
3.57515
3.41525
3.26803
3.13617
3.01986
2.91257
2.80289
2.6865
2.57198
2.4687
2.36871
2.26136
2.13325
1.96769
1.74438
1.43902
1.02325
0.464895
-0.270503
-1.21704
-2.40289
-3.84176
-5.51969
-7.38068
-9.32221
-11.22
-12.9742
-14.5394
-15.9209
-17.1553
-18.2899
-19.3685
-20.4248
-21.4812
-22.5508
-23.6393
-24.7539
-25.915
-27.1564
-28.5079
-29.9859
-31.6007
-33.3319
-35.0747
-36.6734
-38.0476
-39.1444
-39.703
-39.3128
-37.6419
-34.6367
-30.3629
-24.9856
-19.2502
-13.6279
-5.6178
-66.9496
-59.1063
-54.4941
-51.2091
-47.8608
-44.4123
-40.8422
-37.1088
-33.3252
-29.6348
-26.1362
-22.8664
-19.8312
-16.9733
-14.2489
-11.6169
-9.05611
-6.64764
-4.44288
-2.42241
-0.553376
1.15206
2.62157
3.83399
4.8193
5.60369
6.19434
6.57452
6.73391
6.69024
6.51717
6.31247
6.1088
5.88545
5.63499
5.38041
5.13615
4.90551
4.68576
4.47448
4.27
4.07202
3.88079
3.69653
3.51979
3.35193
3.19572
3.05504
2.93162
2.81928
2.70393
2.5758
2.44155
2.31349
2.18452
2.04294
1.8744
1.66151
1.38365
1.01685
0.53395
-0.0948289
-0.900278
-1.91141
-3.15013
-4.62335
-6.31156
-8.15752
-10.0647
-11.9201
-13.6339
-15.164
-16.5141
-17.7166
-18.815
-19.8504
-20.8559
-21.8547
-22.8613
-23.8831
-24.9289
-26.0179
-27.1775
-28.4302
-29.7913
-31.2716
-32.846
-34.411
-35.8331
-37.045
-37.9669
-38.3232
-37.7481
-35.9869
-33.0255
-28.9182
-23.797
-18.3815
-13.1609
-5.5297
-66.6436
-58.9424
-54.4408
-51.1842
-47.8703
-44.4528
-40.8974
-37.1683
-33.3863
-29.698
-26.2041
-22.9423
-19.9191
-17.0738
-14.3486
-11.6946
-9.14073
-6.75373
-4.56915
-2.56795
-0.721201
0.958508
2.40627
3.60477
4.58052
5.35597
5.93753
6.31201
6.4739
6.44677
6.30869
6.14778
5.98186
5.78532
5.55512
5.31695
5.08429
4.86097
4.64514
4.43495
4.22934
4.02862
3.83334
3.64376
3.46047
3.28465
3.11909
2.96854
2.83667
2.71856
2.59777
2.45941
2.30627
2.15283
1.99449
1.81835
1.60911
1.34866
1.01612
0.587892
0.038104
-0.660593
-1.53526
-2.60986
-3.9002
-5.4068
-7.10524
-8.93755
-10.8129
-12.6286
-14.3035
-15.7986
-17.1162
-18.285
-19.3452
-20.3358
-21.2892
-22.2293
-23.1714
-24.1243
-25.0983
-26.111
-27.1842
-28.3343
-29.5755
-30.9166
-32.3271
-33.7089
-34.9517
-35.998
-36.7438
-36.9061
-36.1625
-34.3338
-31.4281
-27.4918
-22.628
-17.5234
-12.6668
-5.42583
-66.3427
-58.7779
-54.3859
-51.1558
-47.8766
-44.4895
-40.9486
-37.223
-33.4419
-29.7556
-26.2673
-23.0138
-20.0011
-17.1649
-14.4165
-11.755
-9.21806
-6.85459
-4.69169
-2.71067
-0.886353
0.768257
2.19511
3.38026
4.34704
5.11473
5.6893
6.06082
6.22826
6.22052
6.11805
5.99741
5.86428
5.69065
5.47872
5.25562
5.03332
4.81615
4.60322
4.39319
4.1856
3.98141
3.78159
3.5865
3.39669
3.2131
3.03828
2.87731
2.73557
2.61045
2.48435
2.33712
2.16617
1.98689
1.79895
1.58804
1.33795
1.02988
0.642687
0.153171
-0.463185
-1.23125
-2.17436
-3.31147
-4.65252
-6.19205
-7.90124
-9.72174
-11.568
-13.3465
-14.9836
-16.4436
-17.7273
-18.8607
-19.8807
-20.8247
-21.7245
-22.6045
-23.4807
-24.3631
-25.2629
-26.1961
-27.1794
-28.2252
-29.3462
-30.5476
-31.7937
-32.9941
-34.061
-34.9436
-35.5105
-35.4855
-34.5964
-32.7235
-29.8874
-26.1249
-21.5136
-16.6972
-12.1471
-5.305
-66.0492
-58.6135
-54.3291
-51.1238
-47.8795
-44.5222
-40.9954
-37.2728
-33.492
-29.8075
-26.3257
-23.0787
-20.0779
-17.228
-14.4583
-11.8042
-9.28844
-6.95065
-4.81067
-2.8505
-1.04863
0.581591
1.98843
3.16085
4.1193
4.88041
5.44997
5.82106
5.99678
6.01074
5.94355
5.85934
5.75452
5.60068
5.40543
5.19623
4.98307
4.77093
4.55987
4.34906
4.13861
3.93012
3.72509
3.52416
3.32784
3.13678
2.95305
2.78157
2.62888
2.49514
2.36345
2.20834
2.02096
1.81585
1.59823
1.35248
1.06156
0.705945
0.264251