/*--------------------------------*- C++ -*----------------------------------*\
| =========                 |                                                 |
| \\      /  F ield         | OpenFOAM: The Open Source CFD Toolbox           |
|  \\    /   O peration     | Version:  4.1                                   |
|   \\  /    A nd           | Web:      www.OpenFOAM.org                      |
|    \\/     M anipulation  |                                                 |
\*---------------------------------------------------------------------------*/
FoamFile
{
    version     2.0;
    format      ascii;
    class       surfaceScalarField;
    location    "700";
    object      phi;
}
// * * * * * * * * * * * * * * * * * * * * * * * * * * * * * * * * * * * * * //

dimensions      [0 3 -1 0 0 0 0];

internalField   nonuniform List<scalar> 
52920
(
2719.11
9.5154
2716.35
2.75767
2715.03
1.32182
2710.31
4.72073
2699.73
10.5778
2682.17
17.5605
2657.35
24.8249
2625.8
31.5484
2588.47
37.3339
2546.26
42.2177
2499.86
46.4009
2449.73
50.1322
2396.07
53.665
2338.89
57.1835
2278.1
60.7873
2213.58
64.5177
2145.22
68.3626
2072.9
72.325
1996.43
76.4775
1915.57
80.8574
1830.13
85.4415
1740.1
90.0337
1645.69
94.4129
1546.44
99.2558
1441.08
105.36
1329.83
111.254
1216.86
112.979
1102.94
113.918
968.59
134.355
777.922
190.673
512.466
265.462
198.441
314.034
-93.4012
291.853
-324.895
231.502
-499.1
174.213
-637.667
138.573
-750.944
113.284
-844.302
93.3639
-921.177
76.8801
-984.219
63.047
-1035.83
51.6189
-1078.45
42.617
-1114.58
36.138
-1146.74
32.1677
-1177.18
30.4455
-1207.68
30.4998
-1239.43
31.7604
-1273.02
33.5845
-1308.26
35.253
-1344.27
36.0107
-1379.42
35.1526
-1411.55
32.1277
-1438.09
26.5529
-1456.29
18.1996
-1463.3
7.00884
-1456.46
-6.83819
-1433.46
-22.9916
-1391.89
-41.5708
-1328.74
-63.1493
-1240.75
-87.9804
-1125.08
-115.669
-979.619
-145.462
-801.916
-177.699
-586.377
-215.539
-316.667
-269.705
55.2466
-371.912
561.934
-506.684
1200.7
-638.763
1961.59
-760.893
2840.44
-878.846
3835.39
-994.954
4937.07
-1101.68
6116.95
-1179.87
7320.73
-1203.78
8472.27
-1151.54
9488.66
-1016.39
10300.9
-812.278
10871
-570.086
11198.5
-327.511
11317.2
-118.625
11283.6
33.6071
11160.5
123.095
11003.8
156.631
10860.1
143.737
10766.8
93.3043
10750.2
16.5732
10819.2
-69.0251
10963.2
-143.93
11157.9
-194.69
11374.6
-216.719
11586.8
-212.223
11774.1
-187.339
11924.6
-150.437
12034.8
-110.251
12106.1
-71.3098
12136.9
-30.714
12110.4
26.5
12012
98.3889
11803.6
208.331
280.334
2746.08
20.1433
2743.59
5.23984
2742.73
2.18967
2738.26
9.19262
2727.63
21.2059
2709.67
35.5293
2684.09
50.4072
2651.5
64.1406
2612.91
75.9218
2569.3
85.8291
2521.43
94.2763
2469.79
101.776
2414.6
108.849
2355.91
115.876
2293.64
123.065
2227.66
130.503
2157.85
138.174
2084.08
146.094
2006.14
154.421
1923.76
163.237
1836.72
172.493
1744.91
181.843
1648.28
191.044
1546.05
201.489
1437.45
213.962
1324.06
224.646
1208.93
228.114
1084.95
237.902
923.822
295.49
697.795
416.705
413.582
549.68
114.496
613.126
-143.877
550.234
-344.253
431.885
-505.325
335.291
-638.048
271.302
-748.393
223.635
-840.314
185.291
-916.712
153.283
-980.017
126.358
-1032.52
104.126
-1076.49
86.5968
-1114.2
73.8442
-1147.75
65.7235
-1178.98
61.684
-1209.33
60.8503
-1239.74
62.1804
-1270.61
64.4525
-1301.59
66.2468
-1331.6
66.0175
-1358.67
62.2299
-1380.14
53.6019
-1392.86
39.2726
-1393.62
18.9664
-1379.75
-6.85956
-1349.38
-37.2074
-1301.14
-71.2233
-1233.96
-108.748
-1146.89
-150.225
-1038.18
-196.682
-904.788
-249.062
-742.28
-307.969
-543.907
-376.069
-295.129
-464.315
35.3103
-600.142
451.765
-788.364
928.059
-982.976
1439.54
-1150.25
1966.48
-1287.83
2498.84
-1411.2
3048.37
-1544.49
3649.68
-1702.99
4346.4
-1876.6
5168.12
-2025.5
6108.62
-2092.04
7116.97
-2024.74
8107.3
-1802.6
8984.28
-1447.07
9672.4
-1015.63
10135.9
-582.155
10383.9
-214.408
10464.8
42.2077
10446.2
175.252
10390.5
199.4
10346.4
137.438
10347.3
15.6687
10408.3
-129.994
10524.6
-260.223
10678.6
-348.715
10848.7
-386.846
11014.3
-377.765
11157.8
-330.904
11268
-260.61
11342.4
-184.605
11387.3
-116.233
11412.6
-56.0303
11412.7
26.4149
11369.1
142.028
11239.7
337.654
506.463
2763.33
31.3555
2760.77
7.79842
2759.69
3.27021
2754.63
14.256
2742.91
32.9272
2723.32
55.119
2695.66
78.0666
2660.66
99.1447
2619.46
117.127
2573.14
132.143
2522.58
144.838
2468.35
156.012
2410.73
166.472
2349.8
176.81
2285.51
187.354
2217.77
198.247
2146.47
209.476
2071.48
221.085
1992.56
233.342
1909.42
246.378
1821.79
260.125
1729.41
274.231
1631.68
288.78
1527.5
305.666
1417.44
324.026
1304.43
337.656
1185.48
347.065
1037.74
385.652
828.074
505.156
557.257
687.527
267.025
839.915
9.42368
870.732
-198.528
758.189
-370.983
604.345
-519.769
484.081
-646.433
397.972
-753.738
330.945
-844.318
275.875
-920.392
229.362
-983.941
189.911
-1036.88
157.068
-1081.12
130.84
-1118.56
111.29
-1151.03
98.1996
-1180.17
90.828
-1207.3
87.9797
-1233.28
88.1683
-1258.38
89.5576
-1282.09
89.9629
-1303.06
86.9904
-1319.07
78.2449
-1327.25
61.778
-1324.54
36.5737
-1308.53
2.95109
-1277.73
-37.6543
-1231.32
-83.6161
-1168.89
-133.647
-1090.36
-187.276
-995.035
-245.546
-880.628
-311.088
-742.812
-386.874
-575.168
-475.612
-369.007
-582.226
-104.621
-728.7
239.713
-944.474
653.968
-1202.62
1118.11
-1447.12
1609.21
-1641.34
2092.19
-1770.81
2532.14
-1851.15
2910.78
-1923.12
3238.52
-2030.73
3557.16
-2195.24
3930.17
-2398.5
4421.28
-2583.15
5068
-2671.46
5860.64
-2595.24
6737.68
-2324.12
7602.95
-1880.9
8357.72
-1336.92
8932.75
-789.435
9305.89
-330.939
9506.75
-25.607
9597.8
108.351
9640.86
94.3825
9682.14
-25.6156
9748.76
-196.617
9850.77
-362.228
9986.42
-484.366
10144.6
-544.986
10305.7
-538.911
10446.4
-471.565
10546.6
-360.835
10597.4
-235.411
10604.9
-123.724
10590
-41.1747
10569.7
46.7096
10539.8
171.923
10468.9
408.56
679.705
2769.76
41.9596
2767.89
9.66699
2767.14
4.02306
2761.93
19.4729
2749.42
45.4358
2728.35
76.1915
2698.57
107.849
2660.93
136.788
2616.72
161.339
2567.18
181.686
2513.29
198.725
2455.75
213.564
2394.9
227.322
2330.9
240.814
2263.76
254.495
2193.44
268.571
2119.88
283.033
2043
297.966
1962.59
313.755
1878.4
330.575
1790.16
348.369
1697.33
367.066
1598.75
387.363
1493.72
410.689
1385
432.75
1274.01
448.658
1143.48
477.597
953.806
575.326
686.847
772.119
389.298
985.079
124.331
1104.89
-81.8714
1076.94
-250.85
927.173
-404.033
757.533
-542.611
622.664
-663.674
519.04
-768.061
435.337
-857.35
365.169
-933.054
305.071
-996.592
253.454
-1049.39
209.874
-1092.95
174.404
-1128.85
147.19
-1158.71
128.068
-1184.1
116.216
-1206.3
110.186
-1226.19
108.064
-1243.98
107.355
-1259.04
105.023
-1269.79
97.7419
-1273.82
82.2784
-1268.34
56.3105
-1251.12
19.3512
-1221.13
-27.0297
-1178.14
-80.6443
-1122.29
-139.467
-1053.86
-202.072
-972.553
-268.579
-876.583
-341.512
-762.29
-425.38
-624.264
-524.896
-455.268
-644.607
-244.701
-792.791
24.4855
-997.885
359.128
-1279.11
750.89
-1594.38
1191.83
-1888.05
1663.17
-2112.69
2132.36
-2240
2561.94
-2280.73
2920.91
-2282.1
3194.17
-2303.99
3389.78
-2390.85
3542.52
-2551.24
3710.56
-2751.19
3963.21
-2924.11
4360.28
-2992.3
4927.76
-2891.6
5639.89
-2593.03
6420.49
-2117.52
7167.67
-1536.62
7791.45
-954.716
8243.78
-477.945
8532.7
-180.569
8707.33
-80.2445
8824.56
-142.845
8933.09
-305.145
9070.4
-499.537
9253.48
-667.451
9470.89
-762.398
9690.18
-758.194
9874.39
-655.779
9995.31
-481.752
10040
-280.127
10013.9
-97.6211
9943.18
29.569
9860.66
129.231
9782.86
249.724
9702.57
488.847
835.975
2763.27
50.9026
2762.66
10.279
2762.71
3.97133
2757.92
24.2679
2745.31
58.0518
2723.48
98.0195
2692.29
139.044
2652.66
176.421
2606
208.002
2553.67
234.01
2496.8
255.601
2436.15
274.213
2372.18
291.296
2305.09
307.901
2234.97
324.618
2161.83
341.719
2085.66
359.199
2006.45
377.183
1924.04
396.165
1838.28
416.338
1748.87
437.783
1654.85
461.082
1554.91
487.305
1450.1
515.506
1344.9
537.949
1232.65
560.917
1075.46
634.783
829.943
820.851
518.214
1083.85
225.958
1277.34
5.17899
1325.67
-158.051
1240.17
-302.939
1072.06
-443.195
897.792
-573.462
752.935
-689.71
635.291
-791.695
537.326
-880.126
453.604
-955.813
380.761
-1019.56
317.206
-1072.25
262.57
-1114.92
217.075
-1148.78
181.056
-1175.23
154.515
-1195.66
136.651
-1211.3
125.834
-1222.99
119.753
-1230.87
115.245
-1234.22
108.376
-1231.43
94.9514
-1220.37
71.2201
-1199.33
35.2824
-1168.1
-11.8739
-1127.35
-67.784
-1077.72
-130.27
-1019.64
-197.544
-952.673
-269.031
-874.801
-346.45
-782.425
-433.884
-670.828
-536.976
-534.487
-661.234
-366.638
-812.455
-157.427
-1002
104.824
-1260.13
420.972
-1595.26
786.919
-1960.33
1198.68
-2299.81
1640.08
-2554.09
2083.09
-2683
2495.96
-2693.6
2851.28
-2637.42
3130.34
-2583.05
3325.84
-2586.35
3444.88
-2670.28
3511.82
-2818.14
3569.23
-2981.52
3674.58
-3097.65
3889.37
-3106.39
4259.39
-2963.05
4791.41
-2649.53
5439.65
-2184.86
6116.09
-1631.16
6724.52
-1086.37
7200.12
-656.171
7532.32
-412.441
7763.84
-374.36
7971.72
-513.026
8223.29
-751.108
8532.26
-976.423
8861.62
-1091.76
9160.16
-1056.74
9388.52
-884.136
9524.68
-617.91
9561.84
-317.291
9508.08
-43.8595
9391.16
146.493
9248.76
271.626
9109
389.484
8983.84
614.005
1002.42
2732.55
58.1978
2733.69
9.13271
2735.3
2.36189
2731.97
27.6092
2720.56
69.4647
2699.48
119.101
2668.46
170.066
2628.41
216.472
2580.79
255.615
2527.09
287.721
2468.5
314.187
2405.93
336.793
2339.89
357.334
2270.68
377.116
2198.43
396.874
2123.19
416.959
2045.02
437.373
1963.93
458.274
1879.85
480.248
1792.67
503.523
1701.86
528.593
1606.03
556.916
1504.66
588.678
1401.61
618.554
1299.63
639.932
1175.65
684.903
974.341
836.091
673.711
1121.48
347.449
1410.12
89.584
1535.21
-87.2248
1502.48
-224.598
1377.55
-356.565
1204.03
-487.904
1029.14
-611.772
876.807
-724.289
747.813
-824.483
637.524
-912.294
541.42
-987.845
456.316
-1051.31
380.675
-1103
314.267
-1143.47
257.55
-1173.56
211.143
-1194.36
175.319
-1207.09
149.39
-1212.87
131.616
-1212.48
119.373
-1206.16
108.926
-1193.45
95.6746
-1173.55
75.0505
-1146
43.6738
-1111.74
1.02733
-1072.43
-51.1801
-1028.94
-111.266
-981.484
-177.725
-929.188
-249.839
-869.374
-328.841
-797.998
-417.823
-710.41
-521.469
-602.074
-645.311
-468.407
-794.899
-303.682
-977.178
-99.9806
-1205.7
150.01
-1510.12
446.386
-1891.64
788.941
-2302.88
1173.97
-2684.84
1584.84
-2964.96
1994.74
-3092.9
2376.1
-3074.96
2708.27
-2969.59
2979.26
-2854.04
3184.08
-2791.17
3323.38
-2809.57
3403.72
-2898.48
3439.57
-3017.37
3456.25
-3114.32
3492.17
-3142.32
3596.29
-3067.16
3816.27
-2869.51
4177.83
-2546.42
4663.63
-2116.95
5207.76
-1630.51
5720.85
-1169.25
6149.73
-841.319
6528.7
-753.338
6939.24
-923.566
7410.72
-1222.58
7897.2
-1462.91
8334.41
-1528.96
8681.89
-1404.22
8923.2
-1125.45
9053.74
-748.448
9075.08
-338.634
8995.99
35.2291
8843.8
298.68
8656.26
459.171
8465.34
580.398
8291.62
787.731
1189.12
2696.21
64.3172
2698.05
7.30082
2700.16
0.245812
2697.21
30.5612
2686.05
80.6276
2664.98
140.171
2633.68
201.37
2593.05
257.106
2544.57
304.091
2489.77
342.525
2429.92
374.043
2365.95
400.761
2298.46
424.825
2227.78
447.797
2154.09
470.567
2077.48
493.576
1998.02
516.83
1915.79
540.513
1830.73
565.307
1742.65
591.608
1650.54
620.701
1552.9
654.563
1451.27
690.305
1351.48
718.352
1247.46
743.947
1095.24
837.131
839.066
1092.26
502.735
1457.82
195.686
1717.17
-16.3674
1747.26
-161.584
1647.7
-286.777
1502.75
-412.242
1329.5
-537.645
1154.54
-657.015
996.18
-766.739
857.54
-865.282
736.071
-951.954
628.094
-1026.24
530.609
-1087.68
442.114
-1135.96
362.55
-1171.1
292.696
-1193.55
233.597
-1204.21
185.984
-1204.32
149.497
-1195.2
122.503
-1178.12
102.296
-1154.09
84.9007
-1124
65.5887
-1089.15
40.2094
-1051.77
6.29752
-1014.12
-36.6212
-976.988
-88.3068
-940.063
-148.188
-901.803
-215.981
-858.851
-292.788
-806.714
-380.975
-740.668
-483.867
-656.515
-605.618
-550.88
-750.945
-420.431
-925.345
-260.471
-1137.14
-64.8561
-1401.31
170.841
-1745.82
447.881
-2168.68
768.842
-2623.84
1129.36
-3045.36
1511.21
-3346.81
1886.59
-3468.28
2229.04
-3417.42
2522.08
-3262.62
2760.37
-3092.33
2946.26
-2977.06
3085.64
-2948.95
3185.34
-2998.18
3252.18
-3084.21
3293.9
-3156.04
3322.19
-3170.61
3356.66
-3101.63
3426.36
-2939.21
3564.72
-2684.78
3795.1
-2347.33
4115.13
-1950.55
4506.85
-1560.97
4977.45
-1311.92
5554.25
-1330.14
6212.58
-1581.9
6865.59
-1875.59
7433.94
-2031.25
7884.57
-1979.6
8216.59
-1736.24
8436.56
-1345.42
8547.84
-859.731
8551.7
-342.485
8451.85
135.076
8273.66
476.864
8053.77
679.07
7824.41
809.757
7608.13
1004.01
1397.61
2653.84
69.4558
2656.08
5.05939
2658.43
-2.10269
2655.66
33.3292
2644.61
91.6843
2623.45
161.331
2591.8
233.02
2550.58
298.333
2501.3
353.371
2445.53
398.296
2384.6
434.976
2319.49
465.874
2250.83
493.492
2178.98
519.646
2104.16
545.385
2026.51
571.237
1946.14
597.196
1863.19
623.465
1777.61
650.89
1688.91
680.309
1595.61
714.011
1496.95
753.22
1397.22
790.039
1299.88
815.699
1182.02
861.805
984.521
1034.63
677.709
1399.08
337.719
1797.81
74.6777
1980.21
-96.431
1918.37
-226.004
1777.28
-347.458
1624.2
-470.039
1452.09
-591.969
1276.47
-708.313
1112.53
-815.536
964.767
-911.742
832.28
-995.754
712.111
-1066.41
601.271
-1122.47
498.18
-1162.89
402.971
-1187.15
316.956
-1195.55
242.003
-1189.41
179.855
-1170.95
131.04
-1142.89
94.4421
-1108.07
67.4819
-1069.23
46.0645
-1029.12
25.485
-990.547
1.64263
-955.756
-28.4872
-925.281
-67.092
-898.231
-115.351
-872.418
-173.996
-844.014
-244.38
-808.347
-328.452
-760.803
-428.515
-697.47
-547.198
-615.38
-687.705
-512.288
-854.036
-385.687
-1051.94
-231.62
-1291.2
-45.5616
-1587.37
174.974
-1966.35
432.655
-2426.36
731.69
-2922.87
1067.32
-3380.98
1420.16
-3699.66
1761.11
-3809.23
2063.36
-3719.66
2311.83
-3511.09
2504.58
-3285.08
2648.86
-3121.34
2756.47
-3056.56
2840.15
-3081.86
2911.03
-3155.09
2977.18
-3222.18
3043.62
-3237.06
3114.26
-3172.27
3194.83
-3019.78
3296.24
-2786.19
3438.41
-2489.5
3657.11
-2169.25
4007.1
-1910.96
4530.68
-1835.5
5193.02
-1992.47
5883.25
-2272.13
6500.36
-2492.7
7003.52
-2534.42
7393.85
-2369.93
7683.58
-2025.97
7878.65
-1540.48
7976.58
-957.658
7971.5
-337.404
7859.41
247.162
7665.06
671.211
7424.8
919.336
7169.62
1064.93
6920.55
1253.08
1624.75
2606.23
73.9738
2608.59
2.7063
2610.89
-4.39888
2608.13
36.0899
2597.12
102.695
2575.91
182.537
2544.05
264.887
2502.42
339.96
2452.59
403.205
2396.16
454.732
2334.49
496.649
2268.59
531.772
2199.11
562.971
2126.44
592.319
2050.8
621.024
1972.36
649.682
1891.32
678.237
1807.87
706.92
1721.86
736.902
1632.42
769.753
1538.04
808.391
1439.97
851.29
1343.75
886.262
1242.91
916.545
1094.22
1010.49
842.227
1286.63
505.811
1735.5
194.166
2109.46
-17.8774
2192.25
-161.343
2061.84
-286.095
1902.03
-407.865
1745.97
-529.857
1574.08
-650.068
1396.69
-763.965
1226.43
-868.04
1068.84
-960.241
924.484
-1038.92
790.788
-1102.06
664.418
-1147.43
543.549
-1173.18
428.727
-1178.72
322.504
-1165.42
228.701
-1136.85
151.293
-1098.21
92.4012
-1054.87
51.1024
-1011.12
23.741
-969.768
4.7164
-932.91
-11.3664
-902.179
-29.0846
-877.921
-52.7394
-859.132
-85.8775
-843.255
-131.223
-826.359
-190.889
-803.89
-266.844
-771.508
-360.832
-725.61
-474.409
-663.501
-609.306
-583.233
-767.969
-483.184
-954.083
-361.288
-1173.84
-214.367
-1438.12
-39.1627
-1762.57
165.695
-2171.21
403.479
-2664.14
679.132
-3198.53
988.084
-3689.93
1310.57
-4022.14
1616.66
-4115.32
1879.24
-3982.24
2084.05
-3715.9
2230.82
-3431.85
2328.95
-3219.47
2392.84
-3120.44
2438.41
-3127.43
2480.6
-3197.29
2531.59
-3273.17
2599.71
-3305.18
2689.31
-3261.86
2801.84
-3132.31
2940.25
-2924.6
3119.39
-2668.64
3378.6
-2428.46
3771.13
-2303.48
4308.78
-2373.16
4923.14
-2606.83
5515.8
-2864.78
6028.62
-3005.53
6450.61
-2956.4
6789.66
-2708.98
7053.35
-2289.67
7239.78
-1726.91
7337.97
-1055.85
7334.23
-333.665
7217
364.392
7013.75
874.458
6762.23
1170.86
6491.76
1335.41
6220.27
1524.56
1864.95
2554.28
78.3808
2556.29
0.704628
2558.18
-6.29108
2555.35
38.9258
2544.57
113.475
2523.67
203.434
2492
296.559
2450.37
381.594
2400.33
453.249
2343.53
511.532
2281.41
558.776
2215.01
598.166
2145.02
632.964
2071.83
665.519
1995.65
697.2
1916.69
728.651
1835.2
759.729
1751.34
790.777
1664.74
823.509
1574.25
860.248
1479.37
903.275
1383.84
946.816
1289.73
980.381
1172.71
1033.57
976.479
1206.72
675.432
1587.68
340.578
2070.35
78.83
2371.21
-89.3471
2360.43
-219.416
2191.91
-344.715
2027.33
-468.47
1869.73
-591.236
1696.85
-710.383
1515.84
-821.251
1337.3
-920.463
1168.06
-1005.89
1009.91
-1075.2
860.098
-1125.21
714.433
-1152.58
570.924
-1155.35
431.501
-1134.7
301.859
-1095.96
189.966
-1047.76
103.095
-998.917
43.566
-954.927
7.11758
-916.722
-14.4566
-884.074
-27.9265
-857.824
-37.6089
-838.506
-48.3981
-825.38
-65.8585
-816.184
-95.0698
-807.363
-140.037
-794.747
-203.501
-774.306
-287.28
-742.68
-392.455
-697.324
-519.761
-636.395
-670.233
-558.476
-845.885
-462.222
-1050.34
-345.939
-1290.12
-207.322
-1576.74
-44.0257
-1925.86
144.671
-2359.91
361.882
-2881.35
612.755
-3449.4
893.253
-3970.43
1183.8
-4312.68
1454.32
-4385.84
1678.16
-4206.09
1842.71
-3880.45
1949.91
-3539.05
2010.94
-3280.51
2041.04
-3150.54
2056
-3142.39
2070.29
-3211.58
2096.15
-3299.03
2143.26
-3352.29
2218.85
-3337.45
2329.02
-3242.48
2483.36
-3078.94
2703.07
-2888.35
3022.01
-2747.4
3459.59
-2741.07
3982.7
-2896.27
4517.85
-3141.98
5006.26
-3353.19
5429.14
-3428.41
5790.57
-3317.82
6096.81
-3015.22
6349.5
-2542.36
6539.94
-1917.35
6648.37
-1164.28
6652.71
-338.007
6533.15
483.96
6324.04
1083.57
6066.51
1428.39
5787.96
1613.96
5502.93
1809.59
2111.9
2481.27
84.6499
2482.62
-0.644939
2484.36
-8.02833
2482.32
40.9679
2473.35
122.44
2454.97
221.822
2426.04
325.485
2386.99
420.647
2339.12
501.126
2283.99
566.657
2223.09
619.685
2157.53
663.719
2088.09
702.412
2015.2
738.411
1939.15
773.252
1860.19
807.608
1778.63
841.289
1694.49
874.924
1607.06
910.933
1515.5
951.813
1421.43
997.345
1329.46
1038.79
1230.41
1079.44
1079.55
1184.43
827.272
1459
498.186
1916.77
194.497
2374.04
-12.3546
2578.06
-150.152
2498.23
-275.694
2317.46
-403.082
2154.72
-529.299
1995.95
-653.129
1820.68
-770.518
1633.23
-876.511
1443.29
-968.004
1259.55
-1042.67
1084.58
-1097.13
914.558
-1126.87
744.175
-1128.21
572.267
-1101.5
404.8
-1053.68
254.035
-997.302
133.596
-945.204
51.0013
-903.89
2.2571
-871.693
-25.075
-845.122
-41.0202
-823.845
-49.1989
-808.389
-53.0586
-798.432
-58.352
-792.674
-71.61
-788.562
-99.1785
-782.625
-145.967
-771.189
-214.934
-751
-307.465
-719.524
-423.928
-674.886
-564.395
-615.687
-729.431
-540.759
-920.809
-448.962
-1142.13
-339.016
-1400.06
-209.501
-1706.25
-58.7268
-2076.64
113.589
-2532.22
309.78
-3077.54
534.714
-3674.33
785.083
-4220.8
1042.3
-4569.9
1277.13
-4620.67
1464.39
-4393.35
1594.2
-4010.26
1671.67
-3616.52
1710.13
-3318.96
1724.98
-3165.39
1730.5
-3147.91
1738.91
-3219.99
1760.67
-3320.79
1804.84
-3396.46
1879.83
-3412.44
1995.81
-3358.47
2168.26
-3251.39
2417.23
-3137.31
2754.45
-3084.62
3163.37
-3149.99
3599.49
-3332.39
4019.41
-3561.9
4402.89
-3736.67
4749.07
-3774.59
5062.26
-3631.01
5343.87
-3296.83
5592.16
-2790.65
5794.15
-2119.34
5920.17
-1290.3
5937.59
-355.43
5815.67
605.884
5601.12
1298.12
5340.37
1689.14
5058.58
1895.75
4767.16
2101.01
2359.36
2423.13
91.7601
2422.92
-0.438035
2422.42
-7.52738
2417.56
45.8345
2405.8
134.201
2385.34
242.284
2355.52
355.307
2316.79
459.377
2270.18
547.745
2216.85
619.982
2157.95
678.594
2094.36
727.311
2026.68
770.091
1955.29
809.806
1880.46
848.088
1802.45
885.614
1721.5
922.242
1637.34
959.085
1549.17
999.111
1457.31
1043.68
1365.81
1088.84
1275.21
1129.39
1157.44
1197.21
955.782
1386.09
653.49
1761.29
326.144
2244.12
72.6869
2627.5
-86.9791
2737.73
-207.787
2619.04
-332.402
2442.07
-461.619
2283.94
-589.952
2124.28
-713.849
1944.58
-827.359
1746.74
-925.376
1541.31
-1005.16
1339.34
-1063.91
1143.34
-1096.99
947.642
-1099.24
746.431
-1069.32
542.347
-1014.5
349.981
-950.971
190.516
-895.993
78.6241
-857.546
12.5608
-831.845
-23.4386
-812.15
-44.7629
-796.478
-56.685
-784.94
-60.7311
-777.257
-60.7341
-773.058
-62.5468
-771.138
-73.5222
-769.201
-101.111
-764.177
-150.985
-752.929
-226.178
-732.798
-327.59
-701.774
-454.949
-658.36
-607.805
-601.399
-786.391
-529.904
-992.301
-442.965
-1229.07
-339.72
-1503.3
-219.497
-1826.47
-81.3809
-2214.75
74.3508
-2687.95
249.111
-3252.3
447.031
-3872.25
665.601
-4439.37
888.326
-4792.62
1088.27
-4820.61
1242.96
-4548.04
1345.98
-4113.27
1405.54
-3676.08
1435.95
-3349.37
1450.99
-3180.44
1461.96
-3158.88
1478.55
-3236.58
1510
-3352.23
1564.91
-3451.37
1651.42
-3498.94
1778.54
-3485.6
1956.57
-3429.42
2192.12
-3372.86
2479.97
-3372.46
2800.48
-3470.51
3128.56
-3660.47
3446.27
-3879.61
3746.44
-4036.83
4029.3
-4057.45
4297.05
-3898.76
4551.23
-3551.02
4793.2
-3032.61
5009.71
-2335.86
5159.07
-1439.65
5194.36
-390.724
5068.33
731.916
4847.99
1518.46
4586.2
1950.93
4305.02
2176.93
4013.28
2392.75
2601.48
2364.74
99.1403
2363.57
0.726868
2361.83
-5.78169
2355.41
52.2555
2341.69
147.926
2318.92
265.049
2286.88
387.354
2246.52
499.737
2199.2
595.07
2146.15
673.028
2088.36
736.385
2026.48
789.194
1960.83
835.742
1891.56
879.074
1818.81
920.845
1742.67
961.751
1663.06
1001.85
1579.37
1042.78
1491.14
1087.34
1400.74
1134.08
1312.71
1176.88
1215.78
1226.31
1060.84
1352.16
799.982
1646.95
468.587
2092.69
170.769
2541.94
-28.195
2826.47
-153.713
2863.25
-266.051
2731.38
-390.18
2566.2
-520.346
2414.11
-649.559
2253.5
-771.145
2066.17
-877.306
1852.9
-963.142
1627.15
-1026.31
1402.5
-1063.39
1180.42
-1068.93
953.184
-1039.53
717.032
-980.825
483.649
-910.811
279.97
-851.56
131.27
-813.975
41.0448
-793.433
-7.97548
-780.256
-36.6105
-770.264
-54.7497
-763.15
-63.7918
-758.399
-65.4777
-755.84
-63.2864
-755.251
-63.1323
-755.624
-73.1424
-754.926
-101.806
-750.433
-155.473
-739.428
-237.18
-719.676
-347.338
-689.519
-485.104
-647.723
-649.598
-593.323
-840.79
-525.512
-1060.11
-443.625
-1310.96
-347.209
-1599.72
-236.281
-1937.4
-110.875
-2340.16
28.1628
-2826.99
181.263
-3405.4
351.321
-4042.31
536.729
-4624.78
724.224
-4980.12
890.878
-4987.27
1018.17
-4675.33
1103.28
-4198.38
1156.19
-3729
1189.62
-3382.79
1213.03
-3203.85
1233.31
-3179.16
1257.55
-3260.82
1293.98
-3388.65
1350.52
-3507.91
1433.89
-3582.31
1550.09
-3601.8
1704.03
-3583.37
1896.65
-3565.47
2122.04
-3597.85
2367.19
-3715.66
2616.05
-3909.32
2857.12
-4120.68
3086.87
-4266.58
3307.56
-4278.14
3522.56
-4113.76
3737.52
-3765.98
3962.86
-3257.95
4191.21
-2564.21
4367.52
-1615.96
4425.11
-448.315
4290.79
866.232
4064.92
1744.33
3805.29
2210.56
3528.92
2453.3
3242.53
2679.14
2832.89
2305.34
107.061
2303.09
2.97397
2300.07
-2.75122
2292.4
59.922
2277.47
162.856
2253.37
289.152
2219.81
420.918
2177.92
541.626
2129.36
643.638
2075.64
726.751
2017.9
794.13
1956.79
850.302
1892.54
899.996
1825.15
946.464
1754.59
991.407
1680.65
1035.7
1602.74
1079.76
1520.07
1125.45
1433.26
1174.15
1346.44
1220.9
1259.65
1263.67
1142.29
1343.68
932.799
1561.65
618.921
1960.83
287.581
2424.03
37.7487
2791.77
-113.493
2977.71
-218.13
2967.89
-326.05
2839.3
-449.028
2689.18
-578.944
2544.03
-706.754
2381.31
-822.339
2181.75
-916.603
1947.17
-985.369
1695.92
-1026.83
1443.97
-1037.23
1190.82
-1012.08
928.036
-953.824
658.785
-879.057
408.887
-813.439
214.357
-773.045
90.8825
-754.578
22.5848
-746.393
-16.153
-741.703
-41.2937
-739.103
-57.3432
-738.121
-64.765
-738.311
-65.2826
-739.669
-61.9211
-742.012
-60.784
-744.393
-70.7546
-744.91
-101.283
-741.101
-159.276
-730.598
-247.678
-711.524
-366.408
-682.529
-514.097
-642.619
-689.503
-591.022
-892.385
-527.109
-1124.02
-450.437
-1387.63
-360.923
-1689.23
-259.165
-2039.16
-146.338
-2452.98
-23.9767
-2949.35
107.421
-3536.79
249.22
-4184.11
400.753
-4776.31
552.895
-5132.26
688.301
-5122.67
793.301
-4780.33
867.956
-4273.03
921.912
-3782.96
963.778
-3424.66
997.266
-3237.34
1024.72
-3206.61
1050.97
-3287.07
1083.34
-3421.02
1129.2
-3553.77
1194.72
-3647.82
1285.37
-3692.45
1405.93
-3703.92
1557.98
-3717.52
1736.07
-3775.94
1926.54
-3906.13
2113.31
-4096.1
2287.78
-4295.15
2451.35
-4430.15
2609.11
-4435.9
2764.14
-4268.79
2925.23
-3927.07
3114.65
-3447.37
3341.22
-2790.79
3544.26
-1819
3629.02
-533.075
3478.83
1016.42
3250.11
1973.05
2998.35
2462.31
2732.28
2719.37
2456.74
2954.68
3049.17
2245.29
115.802
2241.75
6.51375
2237.34
1.65679
2228.61
68.653
2212.95
178.517
2188.23
313.876
2153.96
455.189
2111.22
584.368
2061.75
693.116
2007.25
781.247
1949.07
852.31
1888.01
911.367
1824.35
963.657
1758.14
1012.68
1689.23
1060.32
1617.04
1107.88
1540.64
1156.17
1459.61
1206.48
1376.11
1257.66
1293.78
1303.24
1200.68
1356.77
1044.36
1500
771.608
1834.41
425.753
2306.68
123.184
2726.6
-73.3214
2988.28
-189.566
3093.96
-282.701
3061.02
-387.642
2944.25
-508.691
2810.23
-636.663
2672
-759.682
2504.33
-864.546
2286.62
-941.826
2024.45
-988.77
1742.86
-1004.48
1459.68
-985.882
1172.23
-932.443
874.599
-856.201
582.546
-783.193
335.883
-735.924
167.094
-715.641
70.6053
-710.091
17.041
-709.661
-16.577
-711.301
-39.6482
-714.313
-54.3254
-718.076
-60.9947
-722.414
-60.9399
-727.321
-57.0077
-732.532
-55.5692
-737.011
-66.2694
-738.898
-99.393
-735.951
-162.217
-726.147
-257.479
-707.964
-384.586
-680.363
-541.696
-642.593
-727.27
-594.073
-940.904
-534.332
-1183.76
-463.111
-1458.85
-380.6
-1771.74
-287.862
-2131.9
-187.09
-2553.75
-80.8844
-3055.56
29.0195
-3646.7
142.634
-4297.73
260.34
-4894.01
377.719
-5249.64
484.138
-5229.09
571.044
-4867.24
639.977
-4341.96
698.131
-3841.11
748.962
-3475.49
790.9
-3279.28
822.726
-3238.43
847.348
-3311.69
871.164
-3444.84
901.496
-3584.1
945.388
-3691.72
1009.77
-3756.84
1100.57
-3794.72
1219.25
-3836.2
1358.19
-3914.88
1501.63
-4049.58
1634.08
-4228.54
1749.78
-4410.86
1853.48
-4533.85
1950.87
-4533.29
2043.45
-4361.37
2139.8
-4023.43
2265.46
-3573.03
2451.64
-2976.97
2671.23
-2038.58
2794.27
-656.112
2620.53
1190.17
2399.82
2193.76
2166.38
2695.76
1917.95
2967.8
1658.17
3214.46
3247.76
2166.66
127.165
2161.88
11.2941
2156.92
6.61773
2148.98
76.5975
2135.5
192.004
2113.72
335.661
2082.34
486.57
2041.85
624.855
1993.81
741.16
1940.06
834.998
1882.21
910.164
1821.34
972.242
1757.99
1027.01
1692.38
1078.29
1624.34
1128.36
1553.01
1179.22
1477.59
1231.59
1398.97
1285.1
1320.32
1336.31
1239.93
1383.63
1126.71
1469.99
913.915
1712.8
583.609
2164.72
235.859
2654.44
-17.6257
2980.09
-166.148
3136.81
-260.693
3188.5
-347.899
3148.23
-450.343
3046.69
-568.62
2928.51
-692.2
2795.58
-806.095
2618.23
-895.029
2375.56
-950.543
2079.97
-972.147
1764.47
-960.468
1448
-914.787
1126.55
-841.475
801.292
-762.404
503.479
-704.893
278.377
-678.397
140.605
-672.266
64.4814
-674.651
19.435
-679.982
-11.2386
-686.613
-33.01
-694.077
-46.8538
-701.913
-53.15
-710.056
-52.7912
-718.417
-48.639
-726.539
-47.4415
-733.211
-59.5903
-736.568
-96.0308
-734.596
-164.182
-725.641
-266.43
-708.556
-401.666
-682.608
-567.641
-647.281
-762.593
-602.162
-986.022
-546.913
-1239
-481.409
-1524.35
-406.036
-1847.11
-322.204
-2215.73
-232.783
-2643.17
-141.822
-3146.52
-52.6686
-3735.85
33.5653
-4383.96
118.29
-4978.74
202.189
-5333.54
281.92
-5308.82
353.756
-4939.07
419.134
-4407.34
481.447
-3903.42
539.452
-3533.49
587.955
-3327.78
623.22
-3273.7
646.169
-3334.64
661.932
-3460.6
677.872
-3600.04
702.241
-3716.08
743.269
-3797.86
807.118
-3858.57
894.233
-3923.31
995.742
-4016.39
1096.15
-4149.99
1181.64
-4314.03
1247.55
-4476.77
1298.84
-4585.14
1340.12
-4574.56
1373.26
-4394.52
1404.92
-4055.08
1443.09
-3611.19
1509.81
-3043.69
1708.3
-2237.08
1892.07
-839.883
1692.75
1389.49
1509.82
2376.68
1312.07
2893.51
1090.18
3189.69
849.163
3455.47
3429.77
2106.13
140.301
2098.61
18.8114
2089.76
15.4651
2077.25
89.1158
2060.01
209.24
2036.61
359.06
2005.99
517.195
1967.84
663.005
1922.64
786.364
1871.45
886.184
1815.55
966.067
1756.02
1031.77
1693.6
1089.44
1628.66
1143.23
1560.94
1196.08
1489.61
1250.55
1414.91
1306.29
1339.58
1360.43
1265.55
1410.34
1179.13
1470.05
1027.63
1621.49
748.844
1991.59
381.9
2531.66
64.5666
2971.77
-132.333
3176.99
-246.143
3250.62
-329.171
3271.53
-413.414
3232.48
-513.512
3146.79
-627.753
3042.76
-743.667
2911.49
-843.59
2718.15
-911.683
2443.65
-941.938
2110.22
-936.914
1759.45
-899.426
1410.52
-832.813
1059.94
-751.626
720.107
-683.037
434.894
-646.009
241.354
-635.73
130.333
-638.241
66.9987
-645.96
27.1607
-655.779
-1.41257
-666.454
-22.329
-677.694
-35.6081
-689.228
-41.6087
-700.994
-41.0199
-712.754
-36.8729
-723.787
-36.4045
-732.667
-50.7042
-737.532
-91.1633
-736.624
-165.085
-728.683
-274.368
-712.942
-417.404
-688.956
-591.625
-656.409
-795.137
-615.021
-1027.41
-564.561
-1289.46
-505.011
-1583.9
-436.905
-1915.21
-361.903
-2290.73
-283.353
-2721.72
-206.386
-3223.49
-136.358
-3805.88
-76.0798
-4444.24
-22.8567
-5031.96
29.4276
-5385.82
84.6772
-5364.07
143.383
-4997.78
205.655
-4469.61
270.605
-3968.37
333.452
-3596.34
387.037
-3381.37
425.884
-3312.54
448.755
-3357.51
459.061
-3470.91
463.738
-3604.72
471.641
-3723.99
491.602
-3817.82
529.688
-3896.66
585.898
-3979.52
651.795
-4082.28
713.498
-4211.69
758.723
-4359.25
782.615
-4500.66
788.38
-4590.9
779.216
-4565.4
760.403
-4375.7
738.651
-4033.33
694.779
-3567.32
570.294
-2919.21
415.806
-2082.59
547.127
-971.204
605.91
1330.71
574.799
2407.79
442.152
3026.16
255.661
3376.18
28.3813
3682.75
3607.41
2047.05
153.96
2038.16
27.6974
2027.23
26.3987
2011.6
104.754
1990.35
230.489
1963.1
386.316
1930.16
550.133
1891.92
701.249
1848.51
829.775
1800.14
934.559
1747.23
1018.98
1690.36
1088.65
1630.03
1149.77
1566.42
1206.84
1499.03
1263.47
1427.49
1322.09
1354.01
1379.78
1282.56
1431.89
1209.36
1483.55
1102.91
1576.5
895.397
1829
554.905
2332.08
184.22
2902.35
-78.686
3234.68
-225.116
3323.42
-318.046
3343.55
-395.868
3349.36
-478.657
3315.27
-576.123
3244.26
-684.36
3150.99
-788.74
3015.88
-869.988
2799.4
-913.509
2487.17
-917.103
2113.82
-886.803
1729.15
-828.067
1351.79
-749.395
981.27
-672.067
642.783
-621.242
384.075
-602.596
222.715
-602.937
130.681
-610.994
75.0644
-622.663
38.8389
-636.033
11.9658
-650.146
-8.20861
-664.784
-20.9626
-679.801
-26.5821
-695.075
-25.7392
-710.152
-21.7876
-724.021
-22.5304
-735.055
-39.6633
-741.429
-84.784
-741.683
-164.824
-734.962
-281.085
-720.85
-431.511
-699.154
-613.318
-669.715
-824.573
-632.356
-1064.77
-586.93
-1334.88
-533.518
-1637.31
-472.782
-1975.95
-406.571
-2356.94
-338.6
-2789.69
-274.816
-3287.27
-222.187
-3858.5