/*--------------------------------*- C++ -*----------------------------------*\
| =========                 |                                                 |
| \\      /  F ield         | OpenFOAM: The Open Source CFD Toolbox           |
|  \\    /   O peration     | Version:  4.1                                   |
|   \\  /    A nd           | Web:      www.OpenFOAM.org                      |
|    \\/     M anipulation  |                                                 |
\*---------------------------------------------------------------------------*/
FoamFile
{
    version     2.0;
    format      ascii;
    class       volVectorField;
    location    "700";
    object      U;
}
// * * * * * * * * * * * * * * * * * * * * * * * * * * * * * * * * * * * * * //

dimensions      [0 1 -1 0 0 0 0];

internalField   nonuniform List<vector> 
26785
(
(2.51189e-15 0.0449485 22.2823)
(2.6208e-15 0.0398088 21.3638)
(2.58347e-15 0.0374065 20.5494)
(3.39778e-15 0.0369616 19.821)
(3.13123e-15 0.0374623 19.1057)
(3.90706e-15 0.0384269 18.3824)
(3.79837e-15 0.0395563 17.6564)
(3.9001e-15 0.0405518 16.9311)
(3.43449e-15 0.0412667 16.2095)
(3.70835e-15 0.0417109 15.497)
(3.10952e-15 0.0419541 14.7984)
(3.06894e-15 0.0420813 14.1157)
(2.86861e-15 0.0421775 13.4494)
(2.71528e-15 0.0423026 12.7987)
(2.54374e-15 0.0424864 12.1622)
(2.35261e-15 0.0427384 11.5381)
(2.16792e-15 0.0430502 10.925)
(1.8405e-15 0.0434201 10.3215)
(2.02118e-15 0.04387 9.72637)
(4.0048e-16 0.0444098 9.13795)
(-1.1615e-15 0.045028 8.55478)
(-8.97517e-16 0.045644 7.97577)
(-2.26568e-15 0.0461643 7.40139)
(-2.41129e-15 0.046834 6.83215)
(-4.93327e-15 0.0479957 6.26319)
(-7.06949e-15 0.0492146 5.68797)
(-7.88238e-15 0.0490568 5.11707)
(-7.04075e-15 0.0483059 4.57661)
(-1.26274e-14 0.0531479 4.03644)
(-2.34781e-14 0.0694802 3.36408)
(-4.29731e-14 0.0938924 2.47752)
(-1.48039e-14 0.109989 1.39903)
(-1.55936e-14 0.103993 0.057876)
(-1.75579e-14 0.0792822 -0.884902)
(-2.46189e-14 0.0582413 -1.52521)
(-1.14505e-14 0.04514 -2.01522)
(-1.25135e-14 0.0356546 -2.39578)
(-9.78993e-15 0.0281097 -2.69261)
(-6.43169e-15 0.0218409 -2.9223)
(-1.6481e-15 0.0165636 -3.09714)
(-8.03716e-16 0.0121844 -3.22738)
(-5.54625e-15 0.00872158 -3.32238)
(-7.40393e-15 0.00623749 -3.39123)
(-7.67231e-15 0.00475098 -3.44267)
(-6.68365e-15 0.00416091 -3.48457)
(-8.06359e-15 0.00425521 -3.5233)
(-6.7099e-15 0.00478415 -3.56349)
(-1.12404e-14 0.00550755 -3.60779)
(-1.31891e-14 0.00619793 -3.6567)
(-1.33513e-14 0.00663297 -3.70825)
(-1.43221e-14 0.00659898 -3.7583)
(-1.47991e-14 0.00589859 -3.8012)
(-1.04063e-14 0.00434087 -3.83083)
(-9.73945e-15 0.00176964 -3.84104)
(-1.11655e-14 -0.0018373 -3.82571)
(-1.23975e-14 -0.00626835 -3.77866)
(-8.08894e-15 -0.0112988 -3.69445)
(-1.08185e-15 -0.0172069 -3.56787)
(-1.47419e-15 -0.0247186 -3.39235)
(-1.29298e-16 -0.0340536 -3.16106)
(1.21622e-15 -0.0442381 -2.86927)
(-2.85134e-15 -0.0535401 -2.51593)
(-4.09848e-15 -0.0616363 -2.09852)
(-3.15927e-15 -0.0738925 -1.60063)
(1.52128e-15 -0.0998082 -0.996926)
(1.26744e-16 -0.138113 -0.266172)
(1.56798e-15 -0.18885 0.712501)
(3.2254e-15 -0.254889 1.99424)
(1.6329e-15 -0.323771 3.53112)
(1.2807e-15 -0.388058 5.29722)
(3.87996e-16 -0.441848 7.28397)
(1.02548e-16 -0.476827 9.47835)
(9.13362e-16 -0.483849 11.8378)
(1.41154e-15 -0.456722 14.2696)
(1.66538e-15 -0.395649 16.6295)
(2.123e-15 -0.308354 18.7451)
(2.29247e-15 -0.208012 20.4583)
(2.17285e-15 -0.109013 21.6672)
(2.39696e-15 -0.0233719 22.3484)
(2.75731e-15 0.0412703 22.5544)
(3.10073e-15 0.082736 22.3938)
(3.69704e-15 0.103541 22.003)
(3.94823e-15 0.107216 21.5056)
(4.2366e-15 0.0964118 21.0019)
(4.71932e-15 0.0734537 20.5724)
(4.66449e-15 0.0423223 20.2765)
(4.7244e-15 0.0092294 20.1451)
(4.54321e-15 -0.0194432 20.1712)
(5.10517e-15 -0.0392702 20.3151)
(4.98061e-15 -0.0485051 20.5223)
(5.3915e-15 -0.0476548 20.7395)
(5.71034e-15 -0.0387938 20.9237)
(5.88421e-15 -0.0249521 21.0474)
(6.03791e-15 -0.00917685 21.0978)
(5.95179e-15 0.00731195 21.0825)
(6.87524e-15 0.0257078 20.9926)
(7.00921e-15 0.0503796 20.8546)
(7.23995e-15 0.0784978 20.527)
(7.44869e-15 0.118388 20.2789)
(7.54191e-15 0.140653 19.3066)
(2.23738e-15 0.125653 22.5024)
(3.14526e-15 0.112377 21.5759)
(3.26396e-15 0.106905 20.7576)
(3.6868e-15 0.10715 20.0248)
(3.38698e-15 0.109963 19.3034)
(4.40671e-15 0.113883 18.5721)
(3.19299e-15 0.118047 17.8362)
(3.38497e-15 0.121601 17.0994)
(2.79601e-15 0.124148 16.3655)
(2.81859e-15 0.125758 15.6405)
(3.00234e-15 0.126673 14.9293)
(3.02657e-15 0.127177 14.2345)
(2.96532e-15 0.127546 13.5567)
(2.97468e-15 0.127976 12.8951)
(2.25016e-15 0.128567 12.2482)
(1.4448e-15 0.129357 11.6145)
(2.3355e-15 0.130325 10.9923)
(2.92521e-15 0.131473 10.3803)
(1.93924e-15 0.132871 9.77693)
(3.22831e-15 0.134551 9.18054)
(1.7911e-15 0.136478 8.58943)
(2.73974e-15 0.138422 8.00238)
(2.11534e-15 0.14017 7.41929)
(3.87619e-16 0.142497 6.83892)
(-7.01793e-17 0.146159 6.25565)
(-1.96171e-15 0.149363 5.66821)
(-4.56055e-15 0.148263 5.09321)
(-5.92513e-15 0.147808 4.54099)
(-7.59962e-15 0.16984 3.93529)
(-2.78286e-14 0.228854 3.12727)
(-3.48802e-14 0.302431 2.11365)
(-1.61692e-14 0.334574 0.99791)
(-1.47966e-14 0.294733 -0.164642)
(-9.33462e-15 0.223675 -0.963929)
(-7.69622e-15 0.169211 -1.55304)
(-2.80221e-15 0.133052 -2.01956)
(-4.1155e-15 0.105938 -2.38861)
(-4.8605e-15 0.0840844 -2.67978)
(-5.69218e-15 0.0658956 -2.90726)
(-5.78166e-15 0.0506713 -3.08235)
(-4.02428e-15 0.0381694 -3.21486)
(-5.31045e-15 0.0283868 -3.31379)
(-9.23136e-15 0.0213796 -3.38758)
(-1.22954e-14 0.0170668 -3.4439)
(-1.90988e-14 0.0150901 -3.48935)
(-2.22789e-14 0.0148716 -3.5292)
(-2.03939e-14 0.0157712 -3.5673)
(-1.31709e-14 0.0171523 -3.60583)
(-7.72951e-15 0.0183712 -3.64495)
(-2.52192e-15 0.0187451 -3.68242)
(-4.36316e-15 0.0175309 -3.71362)
(3.82354e-15 0.0139724 -3.73201)
(4.90034e-15 0.00737309 -3.73004)
(9.86955e-15 -0.00271027 -3.70018)
(1.1677e-14 -0.0161061 -3.63584)
(6.11311e-15 -0.0318682 -3.53267)
(9.89043e-15 -0.0489823 -3.38832)
(1.40353e-14 -0.067497 -3.19975)
(1.06233e-14 -0.0886623 -2.9654)
(5.83667e-15 -0.114218 -2.68357)
(3.17445e-15 -0.144738 -2.35104)
(3.31918e-15 -0.178381 -1.96278)
(1.20928e-14 -0.213164 -1.50848)
(1.29393e-14 -0.254066 -0.963249)
(-4.56892e-15 -0.315956 -0.294251)
(-1.86863e-15 -0.409882 0.572909)
(1.27928e-15 -0.516111 1.59979)
(1.46726e-15 -0.619334 2.7106)
(-4.38713e-15 -0.718036 3.85133)
(-3.62214e-15 -0.817693 4.98034)
(4.26632e-16 -0.925198 6.09613)
(2.31675e-15 -1.0379 7.25241)
(4.81879e-15 -1.13704 8.54138)
(6.61977e-15 -1.19083 10.0488)
(6.65598e-15 -1.16686 11.8018)
(6.23853e-15 -1.04805 13.7348)
(5.4637e-15 -0.842737 15.6935)
(4.65364e-15 -0.582809 17.4786)
(4.24211e-15 -0.312107 18.9106)
(4.2389e-15 -0.0727254 19.8826)
(4.27236e-15 0.106163 20.3824)
(4.6265e-15 0.21363 20.4818)
(4.66849e-15 0.256453 20.3207)
(4.59552e-15 0.246789 20.0379)
(4.65808e-15 0.196006 19.7441)
(4.84293e-15 0.117032 19.5155)
(5.30072e-15 0.0285332 19.3966)
(5.453e-15 -0.0485529 19.3932)
(4.55974e-15 -0.0999386 19.4777)
(4.13358e-15 -0.121061 19.6095)
(2.96246e-15 -0.114721 19.7484)
(1.9173e-15 -0.0877782 19.8595)
(8.00719e-16 -0.0492565 19.9179)
(1.80431e-15 -0.00851271 19.9102)
(1.20821e-15 0.0295279 19.8474)
(1.13386e-15 0.0679295 19.7342)
(1.84501e-15 0.123806 19.6221)
(2.55695e-15 0.196581 19.3799)
(3.4984e-15 0.310424 19.2463)
(4.80845e-15 0.39088 18.4534)
(2.33767e-15 0.212859 22.6435)
(1.50082e-15 0.190899 21.7109)
(2.78275e-15 0.180856 20.8875)
(2.34263e-15 0.180839 20.1475)
(1.86648e-15 0.185462 19.416)
(2.55184e-15 0.192077 18.6717)
(1.78019e-15 0.199118 17.9202)
(2.29629e-15 0.205092 17.1662)
(2.27758e-15 0.209316 16.4145)
(2.42024e-15 0.211911 15.6719)
(2.53615e-15 0.213296 14.9439)
(2.64689e-15 0.21396 14.2336)
(2.73085e-15 0.214382 13.5418)
(2.70016e-15 0.214899 12.8679)
(2.78411e-15 0.21569 12.2106)
(2.84515e-15 0.216823 11.5681)
(2.53624e-15 0.218271 10.9389)
(1.24163e-15 0.220047 10.3216)
(1.77352e-15 0.222284 9.71449)
(1.42151e-15 0.225041 9.11557)
(-6.2748e-16 0.228257 8.52299)
(3.05672e-15 0.231611 7.93528)
(5.64502e-15 0.23496 7.35087)
(2.96833e-15 0.239586 6.76536)
(1.63887e-15 0.24578 6.17394)
(-1.01453e-15 0.249841 5.58599)
(-7.78396e-15 0.24867 5.01859)
(-9.30202e-15 0.257455 4.43188)
(-1.10449e-14 0.311208 3.67758)
(-2.82871e-14 0.415048 2.65242)
(-2.81262e-14 0.517879 1.52835)
(-1.73836e-14 0.540543 0.476221)
(-1.9399e-14 0.458051 -0.41642)
(-6.39291e-15 0.35147 -1.07439)
(4.95564e-15 0.272771 -1.61141)
(4.69275e-15 0.217312 -2.05193)
(2.82863e-15 0.174267 -2.40793)
(-2.09617e-17 0.139008 -2.69301)
(-2.18423e-15 0.10942 -2.91848)
(-3.56646e-15 0.0845438 -3.09389)
(-4.21982e-15 0.0640503 -3.22777)
(-4.22686e-15 0.0479086 -3.32799)
(-4.53502e-15 0.0361321 -3.40186)
(-4.81563e-15 0.0285269 -3.45615)
(-5.68168e-15 0.0245126 -3.4968)
(-6.76471e-15 0.0232019 -3.5288)
(-8.7064e-15 0.0235954 -3.55586)
(-1.04802e-14 0.0246416 -3.58001)
(-1.19109e-14 0.0252352 -3.60109)
(-1.15495e-14 0.0241959 -3.61643)
(-1.02958e-14 0.0202215 -3.62089)
(-8.14309e-15 0.0119772 -3.60741)
(-7.17333e-15 -0.00167039 -3.56829)
(-6.88152e-15 -0.0211386 -3.49703)
(-6.79998e-15 -0.0456025 -3.39006)
(-2.15875e-15 -0.0733234 -3.24671)
(6.31374e-15 -0.102822 -3.06598)
(8.363e-15 -0.133547 -2.84833)
(8.23179e-15 -0.166636 -2.59405)
(1.22479e-14 -0.204739 -2.3007)
(9.78039e-15 -0.250097 -1.96194)
(1.0506e-14 -0.303158 -1.56832)
(1.94983e-16 -0.365457 -1.10511)
(2.51745e-15 -0.446665 -0.54751)
(-3.8495e-15 -0.560864 0.154514)
(-1.3473e-15 -0.701863 1.03683)
(-1.27096e-15 -0.837486 2.03772)
(-4.20511e-15 -0.951192 3.11319)
(-3.46419e-15 -1.03628 4.19019)
(-9.88754e-16 -1.10398 5.18291)
(3.26059e-15 -1.18022 6.02796)
(6.59975e-15 -1.2885 6.71648)
(1.05605e-14 -1.43142 7.30951)
(1.21276e-14 -1.58124 7.92868)
(1.0701e-14 -1.68548 8.7196)
(9.2188e-15 -1.68713 9.79668)
(8.08891e-15 -1.5499 11.1894)
(7.00635e-15 -1.27606 12.8149)
(5.98831e-15 -0.90771 14.4944)
(5.23435e-15 -0.511652 16.0144)
(4.74799e-15 -0.1569 17.1997)
(4.38592e-15 0.10594 17.966)
(4.50605e-15 0.254117 18.3294)
(4.1659e-15 0.296996 18.41)
(4.1034e-15 0.257586 18.347)
(4.10774e-15 0.162114 18.2457)
(3.96809e-15 0.0435436 18.1747)
(3.37127e-15 -0.063299 18.1659)
(1.79392e-15 -0.135874 18.224)
(3.59071e-16 -0.166905 18.3362)
(-1.17672e-15 -0.158533 18.4727)
(-3.50786e-15 -0.11785 18.5918)
(-4.29983e-15 -0.0566771 18.6532)
(-5.42594e-15 0.00911455 18.6288)
(-6.10006e-15 0.0662345 18.5224)
(-6.59662e-15 0.111781 18.346)
(-5.7034e-15 0.17243 18.1821)
(-4.44137e-15 0.262269 17.9459)
(-2.67804e-15 0.424572 17.8692)
(5.98735e-16 0.579902 17.2527)
(2.22098e-15 0.300238 22.6937)
(1.63695e-15 0.27023 21.7644)
(1.17603e-15 0.256011 20.9434)
(1.13682e-15 0.255922 20.2025)
(1.0329e-15 0.26252 19.466)
(3.67068e-16 0.271991 18.7122)
(4.70691e-16 0.282018 17.9473)
(1.14628e-15 0.290442 17.177)
(1.22209e-15 0.296294 16.4072)
(1.70075e-15 0.299752 15.6458)
(2.04547e-15 0.301423 14.8992)
(2.32536e-15 0.30202 14.171)
(2.33323e-15 0.302232 13.4626)
(2.86139e-15 0.302551 12.7737)
(3.41641e-15 0.303239 12.1032)
(3.14822e-15 0.304399 11.4494)
(2.77783e-15 0.306007 10.8109)
(3.61158e-15 0.308096 10.1865)
(3.29125e-15 0.310878 9.57442)
(2.49328e-15 0.314441 8.97271)
(1.77552e-15 0.318707 8.3796)
(3.24265e-15 0.323408 7.79331)
(4.76972e-15 0.328737 7.20985)
(4.28137e-15 0.336134 6.62219)
(3.59447e-15 0.344091 6.03179)
(3.10469e-15 0.34787 5.46011)
(4.99299e-17 0.352204 4.89897)
(-6.28434e-15 0.38822 4.21855)
(-1.47248e-14 0.489327 3.23454)
(-2.68834e-14 0.624446 2.01079)
(-1.51556e-14 0.719185 0.901538)
(-1.12346e-14 0.706032 0.0328631)
(-1.20271e-14 0.588792 -0.644591)
(2.30743e-15 0.4631 -1.20692)
(1.02448e-14 0.368464 -1.69951)
(9.14414e-15 0.297321 -2.11512)
(3.45543e-15 0.240289 -2.45775)
(1.01523e-14 0.192809 -2.73635)
(4.09946e-15 0.152551 -2.95934)
(2.40167e-16 0.118414 -3.1342)
(6.75993e-15 0.0900177 -3.26777)
(1.37691e-15 0.0673163 -3.3665)
(-6.46061e-15 0.0503146 -3.43661)
(-5.24729e-15 0.0387914 -3.48419)
(-5.84211e-16 0.0320586 -3.51497)
(1.44751e-15 0.0290093 -3.53394)
(2.00688e-15 0.0283091 -3.54493)
(-4.54564e-15 0.0284376 -3.55005)
(-1.04824e-14 0.0277265 -3.54899)
(-1.07286e-14 0.024415 -3.53869)
(-1.17036e-14 0.0166466 -3.51353)
(-1.26986e-14 0.00270237 -3.46632)
(-1.06735e-14 -0.0185156 -3.39043)
(-1.90934e-14 -0.0468417 -3.28259)
(-2.29237e-14 -0.0808047 -3.14366)
(-2.39348e-14 -0.118511 -2.97455)
(-1.86478e-14 -0.158093 -2.77685)
(-8.21595e-15 -0.198774 -2.55187)
(-9.74424e-15 -0.242102 -2.29798)
(-1.84576e-15 -0.291787 -2.00911)
(4.57529e-15 -0.35152 -1.67513)
(1.63109e-14 -0.423653 -1.28431)
(1.48106e-15 -0.512755 -0.822321)
(4.71997e-15 -0.633747 -0.259159)
(1.74565e-15 -0.799087 0.446375)
(-3.65624e-15 -0.986092 1.28216)
(-6.22532e-15 -1.16045 2.22618)
(-8.64616e-15 -1.29384 3.24861)
(-4.46415e-15 -1.37045 4.28607)
(-1.32955e-15 -1.39951 5.25504)
(4.2555e-15 -1.41413 6.07748)
(7.98284e-15 -1.45462 6.70308)
(1.14167e-14 -1.54787 7.12614)
(1.19221e-14 -1.69178 7.39671)
(1.02994e-14 -1.85061 7.62011)
(9.6083e-15 -1.96458 7.93903)
(8.90335e-15 -1.97028 8.49684)
(8.05127e-15 -1.82463 9.3876)
(7.05358e-15 -1.52352 10.609)
(5.92797e-15 -1.10814 12.0431)
(5.02742e-15 -0.653625 13.4906)
(4.37128e-15 -0.244174 14.7435)
(3.79824e-15 0.0534165 15.662)
(3.96367e-15 0.207312 16.2132)
(3.93657e-15 0.229591 16.4809)
(4.32299e-15 0.155889 16.584)
(3.17534e-15 0.0331772 16.6249)
(1.66e-15 -0.0922997 16.6877)
(-5.14079e-16 -0.189228 16.8297)
(-2.15134e-15 -0.240028 17.0551)
(-4.81917e-15 -0.235907 17.3153)
(-5.54045e-15 -0.178396 17.5397)
(-5.99165e-15 -0.0821234 17.6689)
(-7.30712e-15 0.0276566 17.6667)
(-8.27789e-15 0.124744 17.5337)
(-9.97102e-15 0.192026 17.2858)
(-1.1121e-14 0.254291 17.0194)
(-1.19042e-14 0.340264 16.6927)
(-1.03061e-14 0.514887 16.557)
(-5.4924e-15 0.734334 16.0007)
(2.10981e-15 0.378029 22.6365)
(1.44291e-15 0.339897 21.7191)
(1.8139e-15 0.32381 20.9074)
(1.06516e-15 0.325773 20.1727)
(1.06442e-15 0.336162 19.4384)
(1.71683e-15 0.350018 18.6826)
(1.1292e-15 0.364243 17.9115)
(1.66624e-15 0.376007 17.1312)
(1.73544e-15 0.384087 16.3487)
(1.95448e-15 0.388772 15.573)
(2.02508e-15 0.39091 14.8113)
(2.42471e-15 0.391482 14.0681)
(2.9311e-15 0.391431 13.3451)
(2.87615e-15 0.391423 12.6424)
(3.4598e-15 0.391819 11.9591)
(3.69755e-15 0.392769 11.2939)
(3.23596e-15 0.39425 10.6456)
(3.28469e-15 0.396327 10.0129)
(3.36351e-15 0.399294 9.39439)
(3.66035e-15 0.403258 8.78834)
(2.96529e-15 0.408175 8.19331)
(4.39523e-15 0.414071 7.60658)
(5.17738e-15 0.421564 7.02122)
(4.49019e-15 0.431248 6.43167)
(4.04979e-15 0.438908 5.8529)
(5.44285e-15 0.44333 5.30678)
(1.94984e-15 0.466541 4.71716)
(-3.42686e-15 0.551656 3.85858)
(-1.60561e-14 0.702102 2.62364)
(-2.19583e-14 0.836815 1.32479)
(-5.38755e-15 0.888754 0.35447)
(-4.60904e-15 0.828941 -0.31295)
(-3.01905e-15 0.694929 -0.857032)
(4.69287e-15 0.562126 -1.35926)
(3.7393e-15 0.456732 -1.81496)
(9.80153e-15 0.372853 -2.20811)
(6.78814e-15 0.303647 -2.53855)
(7.58519e-15 0.245039 -2.81157)
(3.13819e-15 0.19467 -3.03283)
(-1.39207e-15 0.151393 -3.20758)
(-5.53296e-15 0.114849 -3.34077)
(-1.28942e-14 0.0850601 -3.43725)
(-1.63717e-14 0.0621229 -3.50208)
(-1.58943e-14 0.0458905 -3.54058)
(-1.88569e-14 0.0356471 -3.5581)
(-1.90259e-14 0.0301207 -3.55954)
(-1.82395e-14 0.0276627 -3.54874)
(-1.67977e-14 0.0262345 -3.52785)
(-1.51171e-14 0.0234815 -3.49648)
(-1.05085e-14 0.0169352 -3.45145)
(-7.34382e-15 0.00419651 -3.38745)
(-9.45494e-15 -0.0164858 -3.29901)
(-8.42805e-15 -0.0454319 -3.18396)
(-1.21592e-14 -0.0813857 -3.0454)
(-1.45084e-14 -0.122673 -2.88645)
(-1.98474e-14 -0.167522 -2.70902)
(-2.63522e-14 -0.214461 -2.51435)
(-2.62596e-14 -0.263613 -2.29988)
(-2.30495e-14 -0.317417 -2.05903)
(-1.42489e-14 -0.380141 -1.78179)
(-7.3119e-15 -0.455905 -1.45653)
(9.63813e-15 -0.547969 -1.07227)
(2.39051e-15 -0.66333 -0.617629)
(4.28081e-15 -0.819877 -0.0626219)
(-1.2251e-15 -1.02487 0.613691)
(-6.92159e-15 -1.24884 1.3943)
(-3.19854e-15 -1.4564 2.27338)
(-5.78403e-15 -1.61033 3.22632)
(-2.51189e-15 -1.68606 4.19817)
(-4.77969e-16 -1.68972 5.11781)
(4.49684e-15 -1.65695 5.91908)
(8.76147e-15 -1.63473 6.55363)
(1.1399e-14 -1.66067 6.99634)
(1.16138e-14 -1.74814 7.25031)
(1.17494e-14 -1.88063 7.35269)
(1.13432e-14 -2.0166 7.37799)
(9.97208e-15 -2.10193 7.43535)
(8.70642e-15 -2.08431 7.65383)
(7.72099e-15 -1.92753 8.14983)
(5.96997e-15 -1.62549 8.97955)
(5.0831e-15 -1.21182 10.0974)
(5.30462e-15 -0.757163 11.3516)
(4.57411e-15 -0.349672 12.5378)
(5.1317e-15 -0.0640079 13.4852)
(5.4858e-15 0.0670628 14.1255)
(4.66622e-15 0.0601924 14.4999)
(2.94533e-15 -0.0388095 14.7382)
(1.06434e-15 -0.179813 15.0064)
(2.15688e-16 -0.31202 15.3929)
(-1.22186e-15 -0.386807 15.8591)
(-1.39532e-15 -0.376221 16.3056)
(-2.04035e-15 -0.281984 16.6462)
(-1.74216e-15 -0.129209 16.8317)
(-3.22002e-15 0.0443018 16.8414)
(-4.95444e-15 0.199649 16.6847)
(-7.3712e-15 0.305149 16.3814)
(-1.00622e-14 0.379121 16.0272)
(-1.12163e-14 0.458663 15.601)
(-1.10401e-14 0.624187 15.3663)
(-7.61767e-15 0.881994 14.7847)
(2.024e-15 0.468669 22.3801)
(1.36305e-15 0.416683 21.4852)
(1.56884e-15 0.395749 20.6939)
(1.03496e-15 0.397739 19.9781)
(1.4137e-15 0.410594 19.2602)
(1.39071e-15 0.428116 18.5171)
(5.09521e-16 0.446244 17.7544)
(9.68815e-16 0.461307 16.9781)
(1.38918e-15 0.471696 16.1957)
(1.58416e-15 0.477723 15.4172)
(1.61049e-15 0.48043 14.6507)
(2.22299e-15 0.481052 13.9014)
(2.96586e-15 0.480778 13.1717)
(3.16819e-15 0.480452 12.4621)
(3.40756e-15 0.480532 11.7721)
(3.57682e-15 0.481213 11.1007)
(3.9477e-15 0.482474 10.4466)
(3.17287e-15 0.484405 9.80909)
(2.60481e-15 0.48737 9.18674)
(3.7375e-15 0.491481 8.57816)
(5.72728e-15 0.496858 7.98189)
(6.15427e-15 0.504062 7.39306)
(7.13117e-15 0.513668 6.80288)
(9.9992e-15 0.52392 6.21488)
(6.76448e-15 0.529213 5.65875)
(6.42047e-15 0.540606 5.12544)
(2.13282e-15 0.603095 4.43526)
(-6.28694e-15 0.752 3.33297)
(-1.76107e-14 0.9321 1.92373)
(-1.78949e-14 1.0292 0.710754)
(-2.64681e-15 1.02145 -0.0605515)
(-7.16743e-15 0.925767 -0.590725)
(-1.18918e-16 0.786803 -1.0665)
(4.88432e-15 0.651856 -1.52872)
(5.47873e-15 0.538535 -1.9549)
(3.79186e-15 0.444259 -2.32952)
(7.31282e-16 0.364516 -2.64985)
(-1.56356e-15 0.295823 -2.91807)
(-4.697e-15 0.235904 -3.13725)
(-9.38557e-15 0.18364 -3.31041)
(-1.14046e-14 0.138747 -3.44056)
(-5.35295e-15 0.101369 -3.53097)
(-5.69683e-15 0.0717429 -3.58549)
(-7.29479e-15 0.0498548 -3.60865)
(-6.98467e-15 0.0350362 -3.60534)
(-1.13166e-14 0.0259214 -3.58025)
(-1.35901e-14 0.0205799 -3.53724)
(-1.44302e-14 0.0164475 -3.47868)
(-1.35361e-14 0.0105005 -3.40472)
(-1.1785e-14 -0.000298522 -3.31366)
(-1.01548e-14 -0.0185005 -3.20349)
(-9.50939e-15 -0.0451311 -3.07487)
(-9.40845e-15 -0.0792877 -2.93359)
(-9.98793e-15 -0.119494 -2.78452)
(-1.18657e-14 -0.164427 -2.62851)
(-1.54317e-14 -0.212799 -2.466)
(-2.04587e-14 -0.264477 -2.29231)
(-2.5415e-14 -0.320994 -2.09886)
(-2.6059e-14 -0.385572 -1.87507)
(-1.26406e-14 -0.462473 -1.61012)
(-9.1069e-15 -0.555679 -1.29427)
(2.2069e-15 -0.669083 -0.919233)
(3.16454e-15 -0.810988 -0.476144)
(4.52559e-15 -1.00012 0.0592)
(-8.68068e-16 -1.23942 0.69621)
(2.59963e-15 -1.49707 1.42571)
(-1.94235e-15 -1.73505 2.24766)
(-5.40791e-15 -1.90718 3.13595)
(-2.71137e-16 -1.98166 4.0362)
(2.52672e-15 -1.96352 4.88321)
(8.77224e-15 -1.8923 5.62338)
(1.12356e-14 -1.82035 6.2245)
(1.23367e-14 -1.79034 6.67286)
(1.27704e-14 -1.82107 6.96801)
(1.39298e-14 -1.90343 7.12125)
(1.35845e-14 -2.00676 7.15776)
(1.18841e-14 -2.09109 7.12108)
(1.02375e-14 -2.11771 7.07868)
(8.74088e-15 -2.05489 7.12277)
(7.31956e-15 -1.88207 7.35626)
(6.20264e-15 -1.59643 7.8585)
(4.78686e-15 -1.22314 8.63836)
(4.36395e-15 -0.820407 9.60307)
(1.87046e-15 -0.465436 10.5778)
(1.22369e-15 -0.225563 11.3909)
(8.48926e-16 -0.141883 12.0125)
(3.6024e-16 -0.219299 12.6022)
(1.39778e-15 -0.39785 13.3093)
(2.44257e-15 -0.565857 14.0982)
(3.61749e-15 -0.634446 14.8352)
(2.72995e-15 -0.577874 15.4206)
(1.98492e-15 -0.415493 15.8133)
(2.31497e-15 -0.18629 16.0062)
(1.66458e-15 0.0632684 16.0022)
(-1.25617e-15 0.286737 15.8185)
(-3.94468e-15 0.439957 15.4725)
(-6.96458e-15 0.534344 15.0558)
(-9.75663e-15 0.611722 14.5551)
(-1.17514e-14 0.762523 14.2335)
(-9.74319e-15 1.03556 13.5977)
(1.83479e-15 0.537526 22.0809)
(2.05393e-15 0.477699 21.2028)
(1.45468e-15 0.455486 20.4258)
(9.20573e-16 0.46004 19.723)
(9.49225e-16 0.477334 19.0161)
(1.97962e-15 0.500114 18.282)
(2.29126e-15 0.523427 17.5259)
(2.43851e-15 0.542804 16.7538)
(2.84363e-15 0.556296 15.9736)
(2.76693e-15 0.564273 15.1955)
(2.74111e-15 0.568003 14.4283)
(3.23772e-15 0.569005 13.6774)
(2.98812e-15 0.568742 12.9457)
(2.98888e-15 0.568256 12.234)
(3.22219e-15 0.568123 11.5421)
(2.62562e-15 0.568601 10.8691)
(2.37407e-15 0.569677 10.214)
(3.71225e-15 0.571465 9.57596)
(3.89218e-15 0.574386 8.95388)
(4.87834e-15 0.578602 8.34646)
(4.0934e-15 0.584626 7.75112)
(3.47682e-15 0.59355 7.15979)
(6.61831e-15 0.60467 6.56605)
(8.94485e-15 0.612965 5.98935)
(8.59387e-15 0.616657 5.45932)
(8.86501e-15 0.64892 4.89182)
(-1.62317e-15 0.771638 4.01401)
(-1.48415e-14 0.980995 2.67274)
(-1.44762e-14 1.15478 1.24247)
(-1.55243e-14 1.18921 0.225066)
(-3.38472e-15 1.12433 -0.373763)
(-9.13531e-15 1.00969 -0.834226)
(-1.45162e-15 0.870608 -1.27791)
(5.66831e-16 0.734621 -1.71288)
(1.89667e-15 0.615019 -2.11726)
(-1.99242e-15 0.512047 -2.47751)
(-5.9041e-15 0.422951 -2.78884)
(-2.82593e-15 0.344844 -3.051)
(1.30677e-15 0.275591 -3.26492)
(6.10299e-15 0.214129 -3.43149)
(1.40184e-14 0.160308 -3.55174)
(2.36918e-14 0.114475 -3.62723)
(2.65034e-14 0.0770998 -3.66059)
(3.00305e-14 0.0483944 -3.65573)
(2.72403e-14 0.0277944 -3.61756)
(2.36684e-14 0.0138431 -3.5514)
(2.23012e-14 0.00436692 -3.46238)
(2.07186e-14 -0.00352643 -3.35472)
(1.56816e-14 -0.0131755 -3.23151)
(9.57021e-15 -0.0276899 -3.09574)
(6.54262e-16 -0.0491803 -2.9523)
(-1.04891e-14 -0.0779849 -2.809)
(-1.75997e-14 -0.113367 -2.67092)
(-1.35136e-14 -0.154561 -2.53743)
(-1.24344e-14 -0.200701 -2.40702)
(-1.23283e-14 -0.251712 -2.27281)
(-1.24066e-14 -0.308724 -2.12413)
(-1.64358e-14 -0.373939 -1.94931)
(-2.80109e-14 -0.450477 -1.73799)
(-1.51868e-14 -0.541985 -1.48198)
(-1.39899e-14 -0.652276 -1.17491)
(-1.6918e-15 -0.786255 -0.811148)
(3.6616e-15 -0.953021 -0.383383)
(2.91268e-15 -1.17107 0.126135)
(9.49813e-16 -1.44079 0.722052)
(3.05383e-15 -1.73035 1.40424)
(-1.79552e-15 -1.9967 2.1745)
(-3.28137e-15 -2.18422 3.00387)
(2.62246e-15 -2.25465 3.8347)
(5.71763e-15 -2.21388 4.60156)
(1.11325e-14 -2.1078 5.25667)
(1.20792e-14 -1.99568 5.78026)
(1.26996e-14 -1.92475 6.17463)
(1.31542e-14 -1.91589 6.45349)
(1.29612e-14 -1.96088 6.63431)
(1.36813e-14 -2.03031 6.73468)
(1.30186e-14 -2.08794 6.77183)
(1.21644e-14 -2.10303 6.76638)
(1.09255e-14 -2.05558 6.75)
(1.00342e-14 -1.93534 6.77244)
(8.73092e-15 -1.73898 6.89946)
(8.34004e-15 -1.46975 7.19281)
(6.72157e-15 -1.14429 7.67355)
(4.12466e-15 -0.80797 8.30194)
(3.18572e-15 -0.550778 9.03909)
(3.20591e-15 -0.479655 9.9363)
(4.79534e-15 -0.609396 11.0283)
(6.73099e-15 -0.815442 12.1837)
(7.0606e-15 -0.949537 13.2156)
(6.74921e-15 -0.942377 14.0253)
(5.21983e-15 -0.797995 14.601)
(4.18963e-15 -0.549632 14.9614)
(3.93934e-15 -0.238558 15.1235)
(2.77715e-15 0.0887316 15.0961)
(2.79544e-15 0.383652 14.8903)
(6.28454e-16 0.589483 14.5144)
(-2.54192e-15 0.709714 14.0558)
(-6.88455e-15 0.789239 13.504)
(-1.03946e-14 0.926376 13.1165)
(-1.03969e-14 1.19735 12.4236)
(1.21213e-15 0.609166 21.7338)
(1.5333e-15 0.542376 20.8719)
(7.70918e-16 0.51734 20.1087)
(3.6125e-16 0.523077 19.4188)
(7.12622e-16 0.543878 18.7234)
(9.3074e-16 0.571353 17.999)
(1.24676e-15 0.599531 17.2506)
(2.15584e-15 0.623045 16.484)
(2.20421e-15 0.63955 15.7074)
(2.57852e-15 0.649435 14.9316)
(2.79182e-15 0.654175 14.1657)
(2.79187e-15 0.655553 13.4157)
(2.71079e-15 0.6553 12.6844)
(2.58764e-15 0.654644 11.9732)
(2.34186e-15 0.654277 11.2818)
(2.96791e-15 0.65452 10.6097)
(3.31227e-15 0.655363 9.95583)
(3.44026e-15 0.656938 9.31985)
(3.67923e-15 0.659747 8.70082)
(4.09515e-15 0.664136 8.09705)
(3.71034e-15 0.671245 7.50361)
(3.32017e-15 0.682159 6.91041)
(5.70188e-15 0.693304 6.32032)
(1.01369e-14 0.697905 5.76693)
(1.19812e-14 0.706886 5.24434)
(9.81577e-15 0.77975 4.5629)
(-5.72529e-15 0.973838 3.44015)
(-1.59982e-14 1.2192 1.95607)
(-1.09066e-14 1.34969 0.664304)
(-1.19793e-14 1.31525 -0.126793)
(-5.23719e-15 1.2111 -0.626501)
(-9.39922e-15 1.08797 -1.06339)
(-4.74237e-15 0.949602 -1.49248)
(-5.74663e-15 0.812306 -1.91034)
(-7.16038e-15 0.687264 -2.29981)
(-8.175e-15 0.576515 -2.64807)
(-1.06991e-14 0.478656 -2.94904)
(-4.21707e-15 0.391379 -3.20103)
(2.16661e-15 0.312664 -3.40305)
(7.19088e-15 0.241489 -3.55372)
(1.16583e-14 0.177864 -3.6517)
(1.79668e-14 0.122418 -3.69667)
(2.00438e-14 0.0759816 -3.69046)
(1.98695e-14 0.0391309 -3.63774)
(1.46446e-14 0.0115174 -3.54595)
(1.11894e-14 -0.00826728 -3.42431)
(8.58222e-15 -0.0223101 -3.28248)
(7.40075e-15 -0.0334203 -3.12928)
(3.24751e-15 -0.044951 -2.97257)
(-6.77997e-15 -0.0599269 -2.82031)
(-1.12716e-14 -0.0803533 -2.67963)
(-1.35006e-14 -0.107308 -2.55505)
(-1.84663e-14 -0.141061 -2.44425)
(-1.59171e-14 -0.181565 -2.34361)
(-1.4657e-14 -0.229022 -2.24444)
(-1.57083e-14 -0.284313 -2.13494)
(-1.75226e-14 -0.348884 -2.00294)
(-1.91291e-14 -0.424677 -1.83828)
(-3.04201e-14 -0.514139 -1.63376)
(-1.92033e-14 -0.620203 -1.38456)
(-1.5664e-14 -0.746734 -1.08668)
(-7.2585e-16 -0.899856 -0.735804)
(3.88194e-15 -1.0894 -0.325785)
(-8.04579e-16 -1.33285 0.15479)
(-1.01939e-15 -1.62997 0.709413)
(-5.12987e-17 -1.94977 1.34437)
(-1.99711e-15 -2.24256 2.06222)
(-9.57443e-16 -2.44255 2.83262)
(3.74458e-15 -2.50504 3.59512)
(6.18768e-15 -2.43781 4.28213)
(1.03627e-14 -2.29491 4.84707)
(1.18378e-14 -2.14448 5.27568)
(1.20664e-14 -2.03967 5.57954)
(1.14205e-14 -2.00386 5.78404)
(1.08859e-14 -2.02876 5.91914)
(1.19137e-14 -2.08323 6.01316)
(1.21936e-14 -2.12873 6.08835)
(1.2131e-14 -2.13338 6.15903)
(1.21976e-14 -2.07899 6.2337)
(1.18896e-14 -1.96101 6.32074)
(1.24554e-14 -1.78372 6.43521)
(1.22512e-14 -1.55519 6.60431)
(1.22232e-14 -1.2925 6.87572)
(1.1454e-14 -1.04486 7.33529)
(1.02661e-14 -0.906628 8.0976)
(1.11841e-14 -0.949468 9.18548)
(1.25993e-14 -1.11968 10.4209)
(1.39386e-14 -1.27825 11.5638)
(1.47046e-14 -1.32114 12.488)
(1.30542e-14 -1.21967 13.1801)
(1.15309e-14 -0.99188 13.6692)
(1.01428e-14 -0.668103 13.9791)
(8.52716e-15 -0.283946 14.1173)
(6.21736e-15 0.116623 14.082)
(2.82283e-15 0.484194 13.8702)
(1.26549e-15 0.745445 13.4807)
(-8.01512e-16 0.895377 13)
(-3.3413e-15 0.981523 12.4191)
(-7.698e-15 1.1095 11.9875)
(-9.91107e-15 1.36629 11.2482)
(3.07668e-16 0.676992 21.3459)
(2.83042e-16 0.603737 20.4987)
(-1.18619e-16 0.575702 19.7484)
(-1.26226e-15 0.582381 19.0713)
(-9.10552e-16 0.606602 18.3881)
(-2.34937e-16 0.638895 17.6748)
(-1.09595e-16 0.672203 16.9359)
(6.83111e-16 0.700185 16.1769)
(1.06703e-15 0.720036 15.4065)
(1.54997e-15 0.73213 14.6357)
(2.23095e-15 0.73813 13.874)
(2.4524e-15 0.74009 13.1275)
(2.58385e-15 0.740006 12.3995)
(2.54388e-15 0.739296 11.6913)
(2.30233e-15 0.738768 11.0027)
(2.32027e-15 0.738805 10.3332)
(2.53404e-15 0.73938 9.68233)
(1.82998e-15 0.740653 9.0499)
(2.27238e-16 0.743283 8.43515)
(2.25046e-15 0.748013 7.83527)
(4.11602e-15 0.756612 7.24285)
(3.90074e-15 0.769013 6.65043)
(6.62811e-15 0.7781 6.07603)
(5.15721e-15 0.780774 5.5482)
(1.02433e-14 0.809507 4.97997)
(1.13082e-14 0.94173 4.09677)
(-7.0167e-15 1.1998 2.74539)
(-1.56292e-14 1.44327 1.27583)
(-8.33314e-15 1.50799 0.218481)
(-1.1086e-14 1.41575 -0.391276)
(-1.43309e-14 1.29123 -0.85209)
(-1.12675e-14 1.16429 -1.2868)
(-1.1169e-14 1.02575 -1.7107)
(-1.42308e-14 0.886437 -2.1195)
(-1.18103e-14 0.755976 -2.49811)
(-1.16681e-14 0.637535 -2.83366)
(-1.34627e-14 0.530883 -3.11993)
(-6.8316e-15 0.434172 -3.35436)
(-1.06306e-15 0.345334 -3.53384)
(2.63453e-15 0.263294 -3.65398)
(3.24226e-15 0.188285 -3.7106)
(8.44978e-16 0.121451 -3.70213)
(-3.21233e-16 0.0643478 -3.63218)
(1.74753e-15 0.0183347 -3.51109)
(-6.83526e-16 -0.0163137 -3.35504)
(-9.02845e-16 -0.0405553 -3.1822)
(-1.09726e-15 -0.0563538 -3.00808)
(-1.46564e-15 -0.0670653 -2.84268)
(-2.32226e-15 -0.0765659 -2.69146)
(-3.67769e-15 -0.0881973 -2.55964)
(-5.29255e-15 -0.104678 -2.4493)
(-6.94689e-15 -0.128064 -2.3588)
(-8.33461e-15 -0.159702 -2.2828)
(-9.02737e-15 -0.200438 -2.21181)
(-7.92923e-15 -0.251174 -2.13391)
(-1.07192e-14 -0.312881 -2.03727)
(-1.52937e-14 -0.38663 -1.91213)
(-2.1451e-14 -0.473753 -1.75165)
(-3.61728e-14 -0.57606 -1.55172)
(-2.56653e-14 -0.696087 -1.30963)
(-1.7059e-14 -0.837967 -1.02235)
(-1.37878e-15 -1.00884 -0.686229)
(4.01766e-15 -1.21882 -0.296999)
(-2.30945e-15 -1.48445 0.152615)
(2.03697e-16 -1.80643 0.665757)
(-1.34143e-15 -2.15449 1.25127)
(1.30407e-16 -2.47188 1.91301)
(1.20901e-15 -2.68213 2.62101)
(5.54074e-15 -2.73372 3.31347)
(6.36714e-15 -2.63663 3.92138)
(1.03772e-14 -2.45394 4.39882)
(1.19005e-14 -2.26358 4.73467)
(1.21908e-14 -2.12554 4.94488)
(1.10974e-14 -2.06668 5.05982)
(9.48059e-15 -2.07956 5.11529)
(1.10599e-14 -2.13193 5.1465)
(1.22916e-14 -2.18259 5.18359)
(1.26709e-14 -2.19621 5.24852)
(1.30311e-14 -2.15137 5.35376)
(1.33986e-14 -2.04162 5.50338)
(1.34574e-14 -1.87271 5.69776)
(1.4884e-14 -1.66211 5.946)
(1.50708e-14 -1.44672 6.29339)
(1.39107e-14 -1.2923 6.84301)
(1.49513e-14 -1.27185 7.68558)
(1.7271e-14 -1.39129 8.75213)
(2.06551e-14 -1.55815 9.83676)
(2.37753e-14 -1.65867 10.7792)
(2.50917e-14 -1.6289 11.5338)
(2.44115e-14 -1.45934 12.1153)
(2.20361e-14 -1.16989 12.5473)
(1.92403e-14 -0.784981 12.8388)
(1.5794e-14 -0.335244 12.9809)
(1.20046e-14 0.136649 12.959)
(9.95344e-15 0.580264 12.7575)
(6.46558e-15 0.899952 12.367)
(4.65495e-15 1.08242 11.8785)
(2.17026e-15 1.17906 11.2858)
(-2.79102e-15 1.30354 10.8294)
(-7.49544e-15 1.53847 10.0609)
(1.73196e-15 0.73295 20.925)
(1.72882e-15 0.654053 20.0895)
(1.75937e-15 0.625647 19.3497)
(1.58738e-15 0.635347 18.6852)
(2.24005e-15 0.664522 18.016)
(1.89491e-15 0.70277 17.3171)
(2.46627e-15 0.741982 16.5914)
(2.17002e-15 0.774896 15.8438)
(2.19219e-15 0.798344 15.0825)
(2.14553e-15 0.812771 14.3193)
(1.82499e-15 0.820097 13.564)
(2.20599e-15 0.822685 12.8233)
(2.82314e-15 0.822822 12.1006)