/*--------------------------------*- C++ -*----------------------------------*\
| =========                 |                                                 |
| \\      /  F ield         | OpenFOAM: The Open Source CFD Toolbox           |
|  \\    /   O peration     | Version:  4.1                                   |
|   \\  /    A nd           | Web:      www.OpenFOAM.org                      |
|    \\/     M anipulation  |                                                 |
\*---------------------------------------------------------------------------*/
FoamFile
{
    version     2.0;
    format      ascii;
    class       volScalarField;
    location    "700";
    object      epsilon;
}
// * * * * * * * * * * * * * * * * * * * * * * * * * * * * * * * * * * * * * //

dimensions      [0 2 -3 0 0 0 0];

internalField   nonuniform List<scalar> 
6820
(
105.266
143.991
186.348
230.922
275.886
319.398
359.83
395.945
426.989
452.666
473.054
488.506
499.543
506.77
510.807
512.248
511.63
509.424
506.028
501.773
496.929
491.712
486.29
480.795
475.328
469.965
464.76
459.762
454.958
450.585
445.576
445.259
423.811
8.29011
15.9003
22.4184
28.6687
35.0357
41.4782
47.8159
53.8798
59.5369
64.6934
69.2983
73.3419
76.8456
79.8526
82.4179
84.6009
86.4609
88.0527
89.4256
90.622
91.6775
92.6215
93.4775
94.2638
94.9943
95.6791
96.3248
96.9355
97.5093
98.0603
98.5248
99.1508
99.2476
3.96314
5.25657
6.61244
7.86034
8.98633
10.02
10.9814
11.8766
12.7062
13.4706
14.1709
14.8095
15.3898
15.9163
16.3941
16.8288
17.2258
17.5905
17.9278
18.2425
18.5386
18.8196
19.0887
19.3484
19.6009
19.848
20.0908
20.3304
20.5671
20.8018
21.0329
21.2605
21.4889
3.56001
3.77406
4.11206
4.49695
4.88093
5.24453
5.58216
5.89296
6.17759
6.43725
6.67339
6.88758
7.08141
7.25652
7.41453
7.55703
7.68553
7.80151
7.90635
8.00135
8.08771
8.16655
8.23891
8.30571
8.36781
8.42598
8.4809
8.5332
8.58342
8.6321
8.67962
8.72665
8.77331
3.52137
3.52456
3.57972
3.67702
3.8
3.93473
4.072
4.20644
4.3351
4.45643
4.56972
4.67473
4.7715
4.86025
4.94131
5.0151
5.08205
5.14262
5.19729
5.24651
5.29075
5.33044
5.366
5.39783
5.4263
5.45176
5.47454
5.49494
5.51323
5.52966
5.54447
5.55788
5.57008
3.5192
3.48502
3.46593
3.46518
3.48166
3.51175
3.55133
3.59673
3.64514
3.69452
3.74346
3.79099
3.83648
3.87953
3.91991
3.95749
3.99225
4.02421
4.05346
4.08007
4.10419
4.12594
4.14547
4.16291
4.17841
4.19211
4.20415
4.21466
4.22375
4.23154
4.23814
4.24361
4.24809
3.51939
3.47993
3.44464
3.41561
3.39411
3.3804
3.37385
3.37335
3.37763
3.38549
3.39589
3.40797
3.42103
3.43455
3.4481
3.4614
3.4742
3.48634
3.49773
3.50828
3.51795
3.52673
3.53461
3.54162
3.54776
3.55307
3.55758
3.56134
3.56437
3.56672
3.56841
3.56949
3.56999
3.51947
3.47945
3.44133
3.40568
3.37315
3.34425
3.31922
3.29806
3.28052
3.26626
3.25482
3.24577
3.23868
3.23318
3.22892
3.22562
3.22304
3.22098
3.21927
3.2178
3.21644
3.21513
3.21378
3.21236
3.21082
3.20914
3.20729
3.20527
3.20305
3.20065
3.19804
3.19524
3.19224
3.51948
3.47942
3.4409
3.40399
3.36885
3.33565
3.30457
3.27571
3.24914
3.22481
3.20264
3.18249
3.1642
3.14758
3.13245
3.11864
3.10598
3.09432
3.08353
3.07348
3.06407
3.05522
3.04683
3.03884
3.0312
3.02385
3.01675
3.00986
3.00315
2.9966
2.99017
2.98385
2.97762
3.51948
3.47942
3.44085
3.40374
3.36808
3.33388
3.30115
3.26994
3.24026
3.21213
3.18553
3.16045
3.13683
3.1146
3.0937
3.07403
3.05552
3.03808
3.02161
3.00605
2.99131
2.97732
2.96403
2.95136
2.93926
2.92768
2.91659
2.90592
2.89566
2.88577
2.87621
2.86695
2.85798
3.51948
3.47941
3.44083
3.40369
3.36795
3.33354
3.30044
3.26862
3.23804
3.20871
3.18058
3.15365
3.1279
3.10327
3.07975
3.0573
3.03586
3.01539
2.99584
2.97717
2.95932
2.94226
2.92593
2.91028
2.89529
2.8809
2.86708
2.8538
2.84101
2.8287
2.81683
2.80538
2.79431
3.51948
3.47941
3.44082
3.40367
3.36791
3.33347
3.30029
3.26833
3.23753
3.20787
3.17929
3.15178
3.12529
3.0998
3.07527
3.05167
3.02898
3.00715
2.98616
2.96598
2.94656
2.92789
2.90992
2.89263
2.87598
2.85994
2.84449
2.8296
2.81524
2.80138
2.788
2.77507
2.76258
3.51948
3.47941
3.44081
3.40366
3.36789
3.33343
3.30024
3.26824
3.2374
3.20765
3.17896
3.15128
3.12458
3.09881
3.07394
3.04995
3.02679
3.00444
2.98286
2.96204
2.94194
2.92254
2.90381
2.88571
2.86824
2.85136
2.83506
2.8193
2.80406
2.78933
2.77509
2.7613
2.74796
3.51948
3.4794
3.44081
3.40365
3.36787
3.33341
3.30021
3.2682
3.23734
3.20757
3.17885
3.15113
3.12436
3.09851
3.07355
3.04943
3.02612
3.00359
2.98181
2.96075
2.94039
2.92069
2.90165
2.88322
2.86539
2.84813
2.83143
2.81526
2.7996
2.78444
2.76975
2.75552
2.74172
3.51948
3.4794
3.4408
3.40364
3.36786
3.33339
3.30018
3.26817
3.2373
3.20752
3.17879
3.15105
3.12427
3.0984
3.0734
3.04924
3.02588
3.00329
2.98144
2.96031
2.93985
2.92006
2.90089
2.88234
2.86436
2.84696
2.83009
2.81375
2.79791
2.78255
2.76767
2.75323
2.73922
3.51948
3.4794
3.4408
3.40363
3.36785
3.33338
3.30016
3.26814
3.23727
3.20748
3.17874
3.15099
3.1242
3.09832
3.07331
3.04913
3.02576
3.00315
2.98128
2.96012
2.93963
2.9198
2.90059
2.88199
2.86396
2.8465
2.82957
2.81316
2.79725
2.78181
2.76684
2.75232
2.73822
3.51948
3.47939
3.44079
3.40362
3.36784
3.33336
3.30014
3.26812
3.23724
3.20745
3.1787
3.15094
3.12414
3.09825
3.07323
3.04905
3.02567
3.00305
2.98117
2.95999
2.93949
2.91964
2.90042
2.8818
2.86375
2.84626
2.82931
2.81287
2.79693
2.78146
2.76646
2.7519
2.73776
3.51947
3.47939
3.44079
3.40362
3.36783
3.33335
3.30012
3.2681
3.23721
3.20741
3.17866
3.1509
3.12409
3.09819
3.07317
3.04898
3.02559
3.00296
2.98107
2.95989
2.93938
2.91952
2.90029
2.88165
2.8636
2.8461
2.82913
2.81268
2.79672
2.78124
2.76622
2.75164
2.73748
3.51947
3.47939
3.44078
3.40361
3.36782
3.33334
3.30011
3.26808
3.23718
3.20738
3.17862
3.15086
3.12404
3.09814
3.07311
3.04891
3.02551
3.00288
2.98098
2.95979
2.93928
2.91941
2.90017
2.88153
2.86346
2.84595
2.82898
2.81251
2.79655
2.78106
2.76602
2.75143
2.73727
3.51947
3.47939
3.44078
3.40361
3.36781
3.33333
3.3001
3.26806
3.23716
3.20736
3.17859
3.15082
3.124
3.09809
3.07306
3.04885
3.02545
3.00281
2.9809
2.95971
2.93918
2.91931
2.90006
2.88141
2.86334
2.84582
2.82884
2.81237
2.79639
2.78089
2.76585
2.75125
2.73708
3.51947
3.47939
3.44078
3.4036
3.36781
3.33332
3.30008
3.26804
3.23714
3.20733
3.17856
3.15079
3.12396
3.09805
3.07301
3.0488
3.02539
3.00274
2.98083
2.95963
2.9391
2.91922
2.89996
2.88131
2.86323
2.8457
2.82871
2.81223
2.79625
2.78074
2.76569
2.75108
2.7369
3.51947
3.47939
3.44078
3.4036
3.3678
3.33331
3.30007
3.26803
3.23713
3.20731
3.17854
3.15076
3.12393
3.09801
3.07296
3.04875
3.02533
3.00268
2.98076
2.95955
2.93902
2.91913
2.89987
2.88121
2.86312
2.84559
2.82859
2.81211
2.79611
2.7806
2.76554
2.75093
2.73674
3.51947
3.47939
3.44077
3.4036
3.3678
3.3333
3.30006
3.26802
3.23711
3.20729
3.17852
3.15073
3.1239
3.09798
3.07292
3.0487
3.02528
3.00263
2.9807
2.95949
2.93895
2.91905
2.89979
2.88112
2.86302
2.84549
2.82848
2.81199
2.79599
2.78047
2.76541
2.75079
2.73659
3.51947
3.47939
3.44077
3.4036
3.36779
3.3333
3.30006
3.26801
3.2371
3.20728
3.1785
3.15071
3.12387
3.09794
3.07289
3.04866
3.02524
3.00258
2.98065
2.95943
2.93888
2.91898
2.89971
2.88103
2.86294
2.84539
2.82838
2.81188
2.79588
2.78035
2.76528
2.75066
2.73645
3.51947
3.47938
3.44077
3.40359
3.36779
3.33329
3.30005
3.268
3.23709
3.20726
3.17848
3.15069
3.12385
3.09792
3.07285
3.04863
3.0252
3.00253
2.9806
2.95937
2.93882
2.91892
2.89964
2.88096
2.86286
2.84531
2.82829
2.81179
2.79578
2.78024
2.76517
2.75054
2.73633
3.51947
3.47938
3.44077
3.40359
3.36779
3.33329
3.30004
3.26799
3.23708
3.20725
3.17847
3.15067
3.12383
3.09789
3.07283
3.0486
3.02516
3.00249
2.98056
2.95932
2.93877
2.91886
2.89958
2.88089
2.86278
2.84523
2.82821
2.8117
2.79568
2.78014
2.76506
2.75043
2.73621
3.51947
3.47938
3.44077
3.40359
3.36778
3.33329
3.30004
3.26799
3.23707
3.20724
3.17845
3.15066
3.12381
3.09787
3.0728
3.04857
3.02513
3.00246
2.98052
2.95928
2.93872
2.91881
2.89952
2.88083
2.86272
2.84516
2.82813
2.81162
2.7956
2.78006
2.76497
2.75033
2.73611
3.51947
3.47938
3.44077
3.40359
3.36778
3.33328
3.30004
3.26798
3.23706
3.20723
3.17844
3.15064
3.1238
3.09785
3.07278
3.04854
3.0251
3.00243
2.98048
2.95925
2.93868
2.91877
2.89947
2.88078
2.86266
2.8451
2.82807
2.81155
2.79553
2.77998
2.76489
2.75024
2.73602
3.51947
3.47938
3.44077
3.40359
3.36778
3.33328
3.30003
3.26798
3.23706
3.20723
3.17844
3.15063
3.12378
3.09784
3.07277
3.04853
3.02508
3.0024
2.98046
2.95921
2.93865
2.91873
2.89943
2.88074
2.86261
2.84505
2.82801
2.81149
2.79546
2.77991
2.76482
2.75017
2.73594
3.51947
3.47938
3.44077
3.40359
3.36778
3.33328
3.30003
3.26797
3.23706
3.20722
3.17843
3.15063
3.12377
3.09783
3.07275
3.04851
3.02507
3.00238
2.98044
2.95919
2.93862
2.9187
2.8994
2.8807
2.86258
2.84501
2.82797
2.81144
2.79541
2.77986
2.76476
2.75011
2.73588
3.51947
3.47938
3.44077
3.40359
3.36778
3.33328
3.30003
3.26797
3.23705
3.20722
3.17842
3.15062
3.12377
3.09782
3.07274
3.0485
3.02505
3.00237
2.98042
2.95917
2.9386
2.91868
2.89938
2.88068
2.86255
2.84498
2.82794
2.81141
2.79538
2.77983
2.76473
2.75008
2.73585
3.51947
3.47938
3.44077
3.40359
3.36778
3.33328
3.30003
3.26797
3.23705
3.20722
3.17842
3.15062
3.12377
3.09782
3.07275
3.0485
3.02506
3.00238
2.98043
2.95919
2.93862
2.9187
2.8994
2.88071
2.86259
2.84502
2.82799
2.81147
2.79545
2.7799
2.76482
2.75018
2.73596
3.51947
3.47938
3.44077
3.40359
3.36778
3.33328
3.30003
3.26797
3.23705
3.20722
3.17843
3.15063
3.12378
3.09785
3.07278
3.04855
3.02512
3.00246
2.98053
2.95931
2.93877
2.91888
2.89962
2.88097
2.86289
2.84537
2.82839
2.81192
2.79595
2.78047
2.76544
2.75087
2.73672
3.51947
3.47938
3.44077
3.40359
3.36778
3.33329
3.30005
3.26801
3.23712
3.20732
3.17858
3.15083
3.12404
3.09818
3.0732
3.04906
3.02574
3.0032
2.98141
2.96034
2.93996
2.92024
2.90117
2.88271
2.86484
2.84754
2.83079
2.81457
2.79885
2.78362
2.76886
2.75455
2.74068
3.51947
3.47938
3.44078
3.40362
3.36785
3.33343
3.30029
3.26839
3.23768
3.20811
3.17965
3.15224
3.12585
3.10044
3.07597
3.05239
3.02968
3.00781
2.98672
2.9664
2.94681
2.92792
2.9097
2.89212
2.87516
2.85879
2.84298
2.82771
2.81296
2.7987
2.78492
2.7716
2.75871
3.51947
3.47942
3.44096
3.40413
3.36894
3.33533
3.30327
3.27269
3.24354
3.21576
3.1893
3.1641
3.1401
3.11725
3.09548
3.07475
3.05499
3.03615
3.01818
3.00102
2.98464
2.96898
2.95401
2.93967
2.92594
2.91278
2.90016
2.88804
2.8764
2.86521
2.85444
2.84407
2.83408
3.5195
3.48076
3.44539
3.41321
3.38398
3.35748
3.33355
3.312
3.29267
3.27534
3.25985
3.246
3.23362
3.22255
3.21264
3.20375
3.19576
3.18856
3.18205
3.17615
3.17077
3.16586
3.16134
3.15717
3.1533
3.1497
3.14632
3.14314
3.14012
3.13725
3.13451
3.13188
3.12934
3.52507
3.51485
3.52106
3.53658
3.55849
3.58526
3.61586
3.64937
3.68497
3.72199
3.75986
3.79815
3.8365
3.87462
3.91228
3.94933
3.98562
4.02105
4.05557
4.0891
4.12164
4.15314
4.18362
4.21307
4.2415
4.26892
4.29535
4.32083
4.34536
4.36898
4.39171
4.41359
4.43465
3.842
4.3878
4.87743
5.34253
5.79464
6.23526
6.66236
7.07459
7.47195
7.85505
8.22464
8.58149
8.92638
9.26003
9.58306
9.89606
10.1995
10.4938
10.7794
11.0566
11.3257
11.5869
11.8406
12.0869
12.3261
12.5583
12.7839
13.0029
13.2156
13.4222
13.6228
13.8176
14.0068
30.2673
32.7691
35.3054
37.8487
40.3863
42.91
45.4131
47.8885
50.3296
52.7305
55.0859
57.3912
59.6424
61.8362
63.9699
66.0414
68.0491
69.9918
71.869
73.6802
75.4257
77.1057
78.721
80.2724
81.761
83.1881
84.5551
85.8635
87.1149
88.3109
89.4535
90.544
91.5855
487.134
554.916
605.694
643.544
673.056
695.241
709.043
713.312
707.841
693.748
673.137
648.45
621.919
595.243
569.492
545.18
522.417
501.08
480.954
461.832
443.562
426.066
409.319
393.332
378.126
363.711
350.084
337.222
325.086
313.632
302.808
292.563
282.847
273.612
264.809
256.39
248.308
240.516
232.969
225.622
218.437
211.376
204.408
197.505
190.644
183.81
176.99
170.181
163.382
156.599
149.844
143.132
136.483
129.919
123.466
117.151
111
105.041
99.2985
93.795
88.5505
83.5811
78.8987
74.5113
70.4224
66.6316
63.1344
59.9232
56.9872
54.3132
51.8862
49.6897
47.7064
45.9185
44.3081
42.8573
41.5489
40.3663
39.2936
38.3158
37.4189
36.5902
35.8178
35.0912
34.4009
33.7386
33.0969
32.4695
31.8512
31.2374
30.6245
30.0095
29.39
28.7639
28.1304
27.4868
26.837
26.1626
25.5452
24.5464
100.038
103.293
108.909
116.983
127.842
141.781
158.889
178.96
201.42
225.362
249.65
273.064
294.447
312.84
327.567
338.286
344.985
347.934
347.613
344.617
339.569
333.046
325.528
317.384
308.872
300.166
291.377
282.578
273.825
265.164
256.634
248.266
240.084
232.102
224.323
216.744
209.351
202.129
195.059
188.122
181.298
174.571
167.926
161.349
154.833
148.371
141.962
135.609
129.317
123.099
116.968
110.94
105.035
99.2745
93.6802
88.2741
83.0772
78.1091
73.3868
68.9246
64.7332
60.8197
57.1876
53.8366
50.7629
47.9597
45.4174
43.124
41.0661
39.2286
37.5958
36.1514
34.8791
33.7627
32.7862
31.9341
31.1916
30.5445
29.9794
29.4835
29.0451
28.6531
28.2974
27.9688
27.659
27.3605
27.0669
26.7724
26.4723
26.1624
25.8396
25.5011
25.1448
24.7691
24.3732
23.9551
23.5184
23.048
22.6098
21.8643
21.7327
22.0583
22.5151
23.0961
23.8819
24.9728
26.4871
28.5662
31.3727
35.0814
39.8655
45.8773
53.2251
61.9494
72.0014
83.2279
95.3657
108.049
120.834
133.235
144.776
155.037
163.705
170.595
175.654
178.95
180.641
180.935
180.06
178.235
175.653
172.476
168.834
164.828
160.536
156.02
151.328
146.5
141.566
136.553
131.482
126.371
121.234
116.087
110.942
105.812
100.712
95.6573
90.6642
85.7504
80.9348
76.2367
71.6758
67.2714
63.0418
59.0039
55.1723
51.5593
48.1742
45.0231
42.109
39.4318
36.9884
34.773
32.7779
30.993
29.4074
28.0088
26.7845
25.7216
24.8069
24.0278
23.3718
22.8268
22.3813
22.024
21.7444
21.5321
21.3774
21.2707
21.203
21.1658
21.1509
21.1506
21.1579
21.1663
21.1698
21.1632
21.1419
21.102
21.04
20.9533
20.8397
20.6975
20.5257
20.3227
20.0909
19.8191
19.5555
19.0638
8.83112
8.90053
8.97631
9.06149
9.15092
9.25115
9.37335
9.53244
9.74746
10.0421
10.4455
10.9927
11.7256
12.6934
13.9529
15.5677
17.6051
20.1312
23.2022
26.8542
31.0919
35.8787
41.1315
46.721
52.479
58.2132
63.7244
68.8265
73.3627
77.2175
80.3214
82.6496
84.2153
85.0607
85.2465
84.8433
83.9243
82.5603
80.8171
78.7542
76.4245
73.8754
71.1487
68.2826
65.3114
62.2669
59.1788
56.0747
52.9809
49.9218
46.9204
43.9979
41.1737
38.4647
35.8856
33.4484
31.1625
29.0344
27.0677
25.2637
23.6209
22.1361
20.804
19.6183
18.5715
17.6554
16.8618
16.1822
15.6082
15.1319
14.7458
14.4427
14.2157
14.0585
13.9651
13.9294
13.9458
14.0086
14.112
14.2503
14.4176
14.608
14.8154
15.0341
15.258
15.4815
15.6991
15.9057
16.0965
16.2673
16.4141
16.5338
16.6236
16.6811
16.7048
16.6926
16.6458
16.5564
16.4539
16.2042
5.58312
5.5971
5.61054
5.62393
5.63602
5.64706
5.65805
5.67059
5.68699
5.71034
5.74458
5.79464
5.86649
5.96734
6.10568
6.29152
6.53641
6.85357
7.25779
7.76522
8.39297
9.1583
10.0775
11.1639
12.426
13.8643
15.4689
17.2179
19.0763
20.9977
22.9267
24.8032
26.5672
28.1634
29.5454
30.678
31.5385
32.1169
32.4143
32.4413
32.2158
31.7609
31.103
30.2704
29.2917
28.1954
27.0087
25.7576
24.4663
23.1569
21.8494
20.5616
19.3086
18.1034
16.9564
15.8754
14.8664
13.9329
13.0769
12.2984
11.5965
10.969
10.413
9.92523
9.50208
9.13988
8.83505
8.58422
8.38426
8.23236
8.12602
8.06306
8.04151
8.05965
8.11586
8.20857
8.33615
8.49684
8.68862
8.90917
9.15576
9.42528
9.71413
10.0183
10.3336
10.6551
10.9782
11.2979
11.6093
11.9076
12.1884
12.4476
12.6812
12.886
13.0592
13.1981
13.3018
13.3654
13.3998
13.3655
4.25202
4.25511
4.25689
4.25749
4.25673
4.25464
4.25136
4.24712
4.24229
4.23738
4.23308
4.2303
4.23018
4.23412
4.24376
4.26105
4.28824
4.32784
4.38266
4.45575
4.55035
4.66985
4.81766
4.99711
5.21129
5.46275
5.75326
6.08346
6.45246
6.85752
7.29378
7.75407
8.22896
8.70702
9.17528
9.61996
10.0273
10.3846
10.6806
10.9069
11.0577
11.1304
11.1252
11.0454
10.8964
10.6854
10.4212
10.113
9.77071
9.40376
9.02129
8.63166
8.24233
7.85971
7.48914
7.13488
6.80019
6.48744
6.19816
5.93324
5.69304
5.47748
5.28623
5.11874
4.9744
4.85255
4.75259
4.674
4.61639
4.57951
4.56326
4.56773
4.59313
4.63983
4.70829
4.79904
4.91263
5.04955
5.21015
5.39456
5.60262
5.83374
6.08686
6.36039
6.65215
6.95937
7.27873
7.60643
7.93825
8.2697
8.59614
8.91291
9.21544
9.49938
9.76075
9.99571
10.2015
10.3749
10.5102
10.6478
3.5698
3.56863
3.56648
3.56333
3.55916
3.55397
3.5478
3.5407
3.53276
3.52408
3.51482
3.50519
3.49544
3.4859
3.47696
3.4691
3.46286
3.45887
3.45784
3.46055
3.46784
3.48056
3.49959
3.52577
3.55987
3.60257
3.65434
3.71547
3.78596
3.86548
3.95331
4.04832
4.14895
4.2532
4.35865
4.46259
4.56203
4.65393
4.73528
4.80331
4.85564
4.89038
4.9063
4.90282
4.88004
4.83874
4.78024
4.70636
4.61925
4.5213
4.41499
4.30276
4.18698
4.06982
3.95323
3.83889
3.72821
3.62238
3.52229
3.42867
3.34203
3.26276
3.19111
3.12728
3.07141
3.02362
2.98404
2.95282
2.93019
2.91641
2.91185
2.91697
2.93233
2.9586
2.99655
3.04709
3.11118
3.18988
3.28427
3.39545
3.52443
3.67209
3.8391
4.02582
4.23219
4.45768
4.7012
4.96104
5.23488
5.51982
5.81239
6.10871
6.40454
6.69548
6.97708
7.2449
7.49461
7.72447
7.91559
8.16512
3.18844
3.18364
3.17826
3.17226
3.16562
3.15834
3.1504
3.14181
3.1326
3.12279
3.11242
3.10154
3.09022
3.07854
3.06661
3.05453
3.04247
3.03059
3.01908
3.00816
2.99808
2.9891
2.98151
2.97557
2.97155
2.96971
2.97023
2.97328
2.97891
2.9871
2.99772
3.01053
3.02517
3.04114
3.05785
3.07461
3.09063
3.10511
3.11721
3.12612
3.13112
3.13155
3.12693
3.1169
3.10132
3.08018
3.05367
3.02215
2.98609
2.94608
2.90278
2.85689
2.80914
2.76023
2.71082
2.66154
2.61293
2.5655
2.51965
2.47574
2.43407
2.39488
2.35837
2.32473
2.2941
2.26663
2.24248
2.22182
2.20483
2.19175
2.18286
2.17847
2.179
2.18491
2.19675
2.21516
2.24087
2.27471
2.31759
2.3705
2.43451
2.5107
2.60019
2.70401
2.8231
2.95821
3.10981
3.27801
3.4625
3.66241
3.87634
4.10228
4.33767
4.57939
4.82391
5.06743
5.30535
5.53727
5.73703
6.02995
2.97043
2.96209
2.95348
2.94457
2.93533
2.92574
2.91579
2.90545
2.89474
2.88365
2.87218
2.86034
2.84816
2.83565
2.82283
2.80974
2.79641
2.78288
2.7692
2.75544
2.74166
2.72793
2.71435
2.70099
2.68796
2.67534
2.66323
2.6517
2.64081
2.63059
2.62104
2.61213
2.60379
2.59589
2.58829
2.5808
2.57319
2.56521
2.55661
2.54713
2.53652
2.52455
2.51103
2.49582
2.47881
2.45998
2.43933
2.41694
2.39293
2.36747
2.34076
2.31302
2.2845
2.25543
2.22607
2.19665
2.16739
2.13848
2.11011
2.08242
2.05557
2.02966
2.0048
1.98108
1.95859
1.93741
1.91763
1.89934
1.88266
1.86772
1.85466
1.84369
1.83503
1.82893
1.82573
1.82581
1.82958
1.83758
1.85037
1.86861
1.89303
1.92444
1.96371
2.01175
2.06951
2.13793
2.21791
2.31023
2.41552
2.53416
2.66622
2.81136
2.96882
3.13731
3.31502
3.49976
3.68806
3.88096
4.05176
4.32553
2.84783
2.83632
2.82475
2.81307
2.80127
2.78932
2.77721
2.76493
2.75246
2.73979
2.72691
2.71383
2.70055
2.68705
2.67336
2.65946
2.64537
2.63109
2.61664
2.60202
2.58724
2.57233
2.5573
2.54217
2.52698
2.51174
2.4965
2.48127
2.4661
2.451
2.43599
2.42107
2.40625
2.39151
2.37682
2.36214
2.34741
2.33256
2.31752
2.30221
2.28655
2.27047
2.2539
2.23677
2.21906
2.20075
2.18181
2.16228
2.14219
2.12158
2.10053
2.07911
2.0574
2.0355
2.01349
1.99146
1.9695
1.94767
1.92606
1.90473
1.88372
1.8631
1.84289
1.82314
1.80389
1.78517
1.76703
1.7495
1.73264
1.71652
1.70122
1.68683
1.67348
1.6613
1.65046
1.64118
1.6337
1.62829
1.6253
1.62512
1.62817
1.63496
1.64605
1.66206
1.68365
1.71153
1.74646
1.78919
1.84044
1.90089
1.9711
2.05149
2.14224
2.24325
2.35408
2.47401
2.60114
2.73752
2.8611
3.0758
2.78184
2.76781
2.7538
2.73979
2.72578
2.71174
2.69765
2.68352
2.66931
2.65504
2.64068
2.62623
2.61169
2.59705
2.58231
2.56747
2.55252
2.53747
2.52231
2.50703
2.49164
2.47615
2.46053
2.44481
2.42898
2.41304
2.39701
2.38088
2.36467
2.34839
2.33204
2.31564
2.29919
2.28269
2.26615
2.24956
2.23291
2.2162
2.19941
2.18253
2.16553
2.14839
2.13111
2.11367
2.09605
2.07825
2.06027
2.04211
2.02379
2.00533
1.98674
1.96806
1.9493
1.93051
1.91171
1.89293
1.87419
1.85553
1.83696
1.81851
1.80018
1.78199
1.76396
1.74609
1.7284
1.71089
1.69357
1.67648
1.65962
1.64303
1.62674
1.6108
1.59528
1.58023
1.56577
1.55198
1.53901
1.52701
1.51616
1.50667
1.4988
1.49283
1.48909
1.48796
1.48986
1.49524
1.50461
1.51851
1.53748
1.56212
1.59295
1.63051
1.67522
1.72741
1.78725
1.85477
1.92918
2.0127
2.08984
2.23462
2.74851
2.7327
2.71692
2.70119
2.68549
2.66981
2.65415
2.63849
2.62283
2.60717
2.59149
2.57579
2.56007
2.54432
2.52854
2.51273
2.49688
2.481
2.46507
2.4491
2.43309
2.41702
2.4009
2.38472
2.36848
2.35218
2.33581
2.31938
2.30287
2.2863
2.26967
2.25298
2.23622
2.21942
2.20257
2.18567
2.16873
2.15176
2.13475
2.1177
2.10063
2.08352
2.06638
2.04921
2.03202
2.0148
1.99755
1.98029
1.96302
1.94574
1.92846
1.91119
1.89393
1.8767
1.8595
1.84233
1.8252
1.80811
1.79107
1.77406
1.75709
1.74016
1.72326
1.70638
1.68953
1.67271
1.6559
1.63913
1.62239
1.60569
1.58906
1.5725
1.55607
1.53978
1.52368
1.50785
1.49233
1.47722
1.46261
1.44862
1.43539
1.42307
1.41186
1.40196
1.39363
1.38713
1.38278
1.38091
1.38191
1.38615
1.39406
1.40603
1.42248
1.44377
1.47019
1.50203
1.53904
1.58299
1.62443
1.70898
2.73291
2.71598
2.69908
2.68222
2.66539
2.64859
2.63182
2.61507
2.59834
2.58162
2.56492
2.54824
2.53156
2.51489
2.49823
2.48158
2.46493
2.44828
2.43165
2.41501
2.39838
2.38174
2.3651
2.34846
2.33181
2.31514
2.29846
2.28177
2.26505
2.24832
2.23156
2.21479
2.19799
2.18118
2.16435
2.14751
2.13066
2.11381
2.09696
2.08012
2.06329
2.04647
2.02967
2.0129
1.99616
1.97945
1.96278
1.94615
1.92956
1.91301
1.89651
1.88006
1.86365
1.84729
1.83096
1.81467
1.7984
1.78216
1.76593
1.7497
1.73347
1.71722
1.70094
1.68463
1.66827
1.65186
1.6354
1.61887
1.60228
1.58563
1.56892
1.55218
1.53541
1.51862
1.50186
1.48514
1.46851
1.45201
1.43569
1.41963
1.40388
1.38855
1.37372
1.35953
1.34611
1.33361
1.32222
1.31213
1.30358
1.29681
1.29209
1.2897
1.28993
1.29307
1.2994
1.3092
1.32247
1.34032
1.3579
1.39884
2.72615
2.7086
2.69106
2.67355
2.65605
2.63858
2.62112
2.60368
2.58625
2.56885
2.55146
2.53409
2.51674
2.49941
2.4821
2.46481
2.44754
2.4303
2.41308
2.39589
2.37873
2.3616
2.34449
2.32741
2.31036
2.29333
2.27633
2.25936
2.2424
2.22547
2.20856
2.19167
2.17481
2.15796
2.14114
2.12435
2.10759
2.09086
2.07417
2.05751
2.0409
2.02434
2.00782
1.99137
1.97497
1.95863
1.94235
1.92614
1.90999
1.89391
1.87788
1.86191
1.846
1.83013
1.8143
1.79851
1.78273
1.76696
1.75118
1.73539
1.71957
1.70371
1.68779
1.67181
1.65574
1.63959
1.62335
1.607
1.59054
1.57398
1.55732
1.54055
1.52369
1.50675
1.48975
1.4727
1.45562
1.43854
1.4215
1.40452
1.38766
1.37096
1.35448
1.33828
1.32245
1.30707
1.29223
1.27806
1.26468
1.25225
1.24091
1.23085
1.22226
1.21534
1.21028
1.2073
1.20651
1.20845
1.21136
1.22381
2.7234
2.70554
2.68769
2.66983
2.65199
2.63415
2.61631
2.59848
2.58066
2.56285
2.54505
2.52727
2.5095
2.49174
2.47401
2.4563
2.43861
2.42095
2.40333
2.38574
2.36818
2.35066
2.33319
2.31576
2.29837
2.28103
2.26374
2.24649
2.2293
2.21215
2.19506
2.17802
2.16103
2.14409
2.12721
2.11039
2.09363
2.07693
2.0603
2.04373
2.02723
2.0108
1.99445
1.97817
1.96197
1.94584
1.9298
1.91383
1.89794
1.88212
1.86636
1.85067
1.83504
1.81945
1.8039
1.78837
1.77286
1.75735
1.74183
1.72628
1.71069
1.69505
1.67934
1.66355
1.64766
1.63167
1.61557
1.59935
1.58301
1.56654
1.54994
1.53321
1.51637
1.49941
1.48235
1.46519
1.44797
1.43068
1.41336
1.39603
1.37871
1.36143
1.34424
1.32716
1.31025
1.29355
1.27712
1.26102
1.24533
1.23013
1.21551
1.20157
1.18843
1.17622
1.16506
1.15508
1.14643
1.13922
1.13368
1.12878
2.72228
2.70429
2.68629
2.66828
2.65026
2.63224
2.61422
2.5962
2.57817
2.56015
2.54213
2.52412
2.50612
2.48812
2.47014
2.45218
2.43424
2.41633
2.39845
2.38059
2.36278
2.345
2.32727
2.30959
2.29195
2.27437
2.25685
2.23938
2.22198
2.20464
2.18737
2.17017
2.15304
2.13598
2.119
2.10209
2.08526
2.06852
2.05186
2.03529
2.0188
2.00241
1.9861
1.96989
1.95376
1.93773
1.92178
1.90593
1.89015
1.87446
1.85883
1.84328
1.82778
1.81233
1.79691
1.78152
1.76615
1.75077
1.73538
1.71996
1.7045
1.68897
1.67338
1.65769
1.64192
1.62603
1.61002
1.59389
1.57763
1.56123
1.5447
1.52803
1.51123
1.49431
1.47726
1.46011
1.44286
1.42553
1.40813
1.39068
1.3732
1.35572
1.33825
1.32082
1.30346
1.2862
1.26908
1.25213
1.23539
1.21891
1.20275
1.18696
1.17161
1.15676
1.14251
1.12892
1.11613
1.10398
1.09385
1.07903
2.72177
2.70372
2.68566
2.66758
2.64949
2.63139
2.61328
2.59516
2.57704
2.55892
2.54079
2.52267
2.50454
2.48643
2.46832
2.45023
2.43215
2.41409
2.39606
2.37805
2.36008
2.34215
2.32425
2.3064
2.28861
2.27086
2.25317
2.23555
2.21799
2.20049
2.18307
2.16573
2.14846
2.13128
2.11418
2.09718
2.08026
2.06343
2.0467
2.03007
2.01354
1.99711
1.98078
1.96455
1.94842
1.93239
1.91646
1.90062
1.88487
1.86921
1.85362
1.8381
1.82265
1.80724
1.79188
1.77654
1.76122
1.7459
1.73056
1.7152
1.69979
1.68432
1.66878
1.65316
1.63744
1.62161
1.60567
1.5896
1.5734
1.55706
1.54059
1.52397
1.50723
1.49035
1.47336
1.45624
1.43902
1.42171
1.40432
1.38686
1.36936
1.35182
1.33427
1.31673
1.29921
1.28174
1.26435
1.24705
1.22988
1.21285
1.19601
1.17939
1.16303
1.14695
1.13123
1.11588
1.10104
1.08637
1.0739
1.05374
2.72147
2.70339
2.6853
2.66719
2.64906
2.63093
2.61278
2.59462
2.57646
2.55828
2.54011
2.52193
2.50375
2.48557
2.4674
2.44924
2.43109
2.41296
2.39485
2.37676
2.3587
2.34067
2.32268
2.30473
2.28683
2.26898
2.25118
2.23344
2.21577
2.19817
2.18063
2.16318
2.1458
2.12851
2.11131
2.0942
2.07718
2.06026
2.04345
2.02673
2.01013
1.99363
1.97723
1.96095
1.94477
1.92869
1.91272
1.89685
1.88107
1.86538
1.84977
1.83424
1.81877
1.80336
1.78799
1.77265
1.75733
1.74201
1.72668
1.71133
1.69594
1.68049
1.66497
1.64938
1.63369
1.61789
1.60199
1.58596
1.5698
1.55351
1.53709
1.52053
1.50384
1.48701
1.47007
1.45301
1.43584
1.41857
1.40122
1.3838
1.36632
1.3488
1.33125
1.3137
1.29616
1.27864
1.26116
1.24375
1.22642
1.20919
1.19208
1.17512
1.15832
1.14172
1.12533
1.10918
1.09339
1.07751
1.06393
1.04108
2.72124
2.70315
2.68504
2.66691
2.64876
2.63061
2.61244
2.59426
2.57607
2.55788
2.53968
2.52147
2.50326
2.48506
2.46686
2.44866
2.43048
2.4123
2.39415
2.37602
2.35791
2.33983
2.32178
2.30377
2.2858
2.26788
2.25001
2.2322
2.21445
2.19676
2.17914
2.1616
2.14414
2.12676
2.10947
2.09227
2.07516
2.05816
2.04125
2.02446
2.00776
1.99118
1.97471
1.95835
1.9421
1.92595
1.90991
1.89398
1.87814
1.86239
1.84674
1.83115
1.81564
1.80019
1.78478
1.76941
1.75406
1.73872
1.72337
1.708
1.6926
1.67715
1.66164
1.64605
1.63037
1.61459
1.59871
1.58271
1.56658
1.55033
1.53395
1.51744
1.50079
1.48402
1.46713
1.45012
1.43301
1.4158
1.3985
1.38113
1.3637
1.34623
1.32872
1.3112
1.29368
1.27618
1.25871
1.24128
1.22392
1.20663
1.18944
1.17236
1.15541
1.1386
1.12195
1.10546
1.08926
1.07284
1.05876
1.03465
2.72104
2.70294
2.68481
2.66667
2.64851
2.63034
2.61216
2.59397
2.57577
2.55756
2.53934
2.52112
2.5029
2.48467
2.46645
2.44824
2.43003
2.41184
2.39366
2.3755
2.35736
2.33925
2.32116
2.30311
2.2851
2.26714
2.24922
2.23135
2.21354
2.1958
2.17812
2.16051
2.14297
2.12552
2.10816
2.09088
2.0737
2.05661
2.03963
2.02275
2.00597
1.98931
1.97276
1.95631
1.93998
1.92376
1.90764
1.89163
1.87572
1.85991
1.84418
1.82854
1.81296
1.79745
1.78199
1.76657
1.75118
1.7358
1.72042
1.70502
1.6896
1.67413
1.6586
1.64301
1.62733
1.61156
1.59569
1.57971
1.56361
1.54739
1.53104
1.51457
1.49797
1.48125
1.46441
1.44745
1.4304
1.41324
1.396
1.37869
1.36132
1.34391
1.32646
1.30899
1.29152
1.27406
1.25662
1.23923
1.22189
1.20461
1.18742
1.17032
1.15333
1.13646
1.11972
1.10312
1.08676
1.07013
1.05585
1.03118
2.72086
2.70274
2.6846
2.66645
2.64828
2.6301
2.61191
2.59371
2.57549
2.55727
2.53905
2.52081
2.50258
2.48434
2.46611
2.44788
2.42966
2.41145
2.39326
2.37507
2.35691
2.33878
2.32067
2.30259
2.28455
2.26655
2.24859
2.23068
2.21283
2.19503
2.1773
2.15964
2.14205
2.12454
2.10711
2.08976
2.07251
2.05535
2.0383
2.02134
2.00449
1.98775
1.97112
1.9546
1.93819
1.92189
1.90569
1.8896
1.87362
1.85773
1.84193
1.82622
1.81057
1.795
1.77948
1.764
1.74856
1.73313
1.71771
1.70227
1.68682
1.67133
1.65578
1.64018
1.6245
1.60873
1.59286
1.5769
1.56082
1.54462
1.52831
1.51187
1.49531
1.47863
1.46184
1.44494
1.42794
1.41084
1.39366
1.37641
1.3591
1.34175
1.32436
1.30695
1.28954
1.27213
1.25475
1.2374
1.2201
1.20287
1.18571
1.16864
1.15166
1.13479
1.11805
1.10142
1.08502
1.06832
1.05398
1.02909
2.72069
2.70256
2.68442
2.66625
2.64808
2.62988
2.61168
2.59347
2.57524
2.55701
2.53877
2.52053
2.50229
2.48404
2.4658
2.44756
2.42933
2.4111
2.39289
2.37469
2.35652
2.33836
2.32023
2.30213
2.28406
2.26603
2.24804
2.2301
2.21221
2.19437
2.1766
2.15889
2.14124
2.12368
2.10619
2.08879
2.07148
2.05426
2.03713
2.02011
2.00319
1.98637
1.96967
1.95307
1.93658
1.9202
1.90393
1.88777
1.87171
1.85575
1.83987
1.82409
1.80838
1.79274
1.77716
1.76162
1.74612
1.73064
1.71517
1.6997
1.68421
1.66869
1.65313
1.63751
1.62182
1.60605
1.59019
1.57423
1.55817
1.54199
1.52571
1.5093
1.49279
1.47615
1.45941
1.44256
1.42561
1.40857
1.39146
1.37427
1.35702
1.33972
1.3224
1.30505
1.2877
1.27035
1.25303
1.23574
1.2185
1.20131
1.1842
1.16717
1.15023
1.1334
1.11668
1.10006
1.08368
1.06697
1.05262
1.02766
2.72053
2.70239
2.68424
2.66607
2.64788
2.62968
2.61147
2.59324
2.57501
2.55677
2.53852
2.52027
2.50202
2.48376
2.46551
2.44726
2.42901
2.41077
2.39255
2.37434
2.35614
2.33797
2.31982
2.3017
2.2836
2.26555
2.24753
2.22956
2.21163
2.19376
2.17595
2.15819
2.14051
2.12289
2.10536
2.0879
2.07053
2.05325
2.03607
2.01898
2.00199
1.98511
1.96833
1.95166
1.93511
1.91865
1.90231
1.88607
1.86994
1.8539
1.83796
1.82211
1.80633
1.79062
1.77498
1.75939
1.74383
1.7283
1.71279
1.69728
1.68175
1.66621
1.65062
1.63498
1.61928
1.60351
1.58765
1.5717
1.55565
1.5395
1.52325
1.50688
1.4904
1.47381
1.45711
1.44031
1.42342
1.40644
1.38938
1.37226
1.35507
1.33784
1.32058
1.3033
1.28601
1.26873
1.25147
1.23424
1.21705
1.19992
1.18286
1.16588
1.14899
1.1322
1.11552
1.09893
1.08257
1.06588
1.05155
1.02659
2.72038
2.70224
2.68408
2.6659
2.6477
2.62949
2.61127
2.59304
2.5748
2.55655
2.53829
2.52003
2.50176
2.4835
2.46523
2.44697
2.42871
2.41047
2.39223
2.374
2.35579
2.3376
2.31943
2.30129
2.28318
2.2651
2.24705
2.22905
2.2111
2.19319
2.17534
2.15755
2.13982
2.12216
2.10458
2.08707
2.06965
2.05232
2.03507
2.01793
2.00088
1.98393
1.96709
1.95036
1.93373
1.91721
1.9008
1.88449
1.86829
1.85218
1.83617
1.82025
1.80441
1.78864
1.77294
1.75729
1.74168
1.7261
1.71055
1.69499
1.67944
1.66386
1.64825
1.6326
1.61689
1.60111
1.58526
1.56932
1.55329
1.53716
1.52093