/*--------------------------------*- C++ -*----------------------------------*\
| =========                 |                                                 |
| \\      /  F ield         | OpenFOAM: The Open Source CFD Toolbox           |
|  \\    /   O peration     | Version:  4.1                                   |
|   \\  /    A nd           | Web:      www.OpenFOAM.org                      |
|    \\/     M anipulation  |                                                 |
\*---------------------------------------------------------------------------*/
FoamFile
{
    version     2.0;
    format      ascii;
    class       volScalarField;
    location    "700";
    object      k;
}
// * * * * * * * * * * * * * * * * * * * * * * * * * * * * * * * * * * * * * //

dimensions      [0 2 -2 0 0 0 0];

internalField   nonuniform List<scalar> 
6820
(
0.226697
0.279347
0.331744
0.382734
0.43093
0.475126
0.51442
0.54829
0.576587
0.599476
0.617344
0.630716
0.64018
0.64634
0.649768
0.650989
0.650466
0.648594
0.645709
0.642084
0.637945
0.633472
0.628806
0.624061
0.619321
0.614654
0.610107
0.605726
0.601498
0.597637
0.593201
0.592919
0.573723
0.207938
0.216621
0.219548
0.220394
0.221057
0.222078
0.223474
0.22514
0.226961
0.228846
0.230731
0.232584
0.234394
0.236162
0.237902
0.239628
0.241358
0.243107
0.244886
0.246707
0.248574
0.250492
0.252461
0.254478
0.256539
0.258638
0.260766
0.262915
0.265066
0.267234
0.269308
0.271642
0.273194
0.201064
0.204896
0.206826
0.206612
0.205168
0.203176
0.200968
0.198675
0.196348
0.194008
0.19167
0.189349
0.187063
0.184828
0.182661
0.180578
0.178592
0.176713
0.174949
0.173308
0.171791
0.170401
0.169138
0.167998
0.166981
0.166081
0.165293
0.164613
0.164033
0.163547
0.163144
0.162821
0.162547
0.199585
0.199595
0.199834
0.199709
0.199082
0.198053
0.196754
0.195281
0.193696
0.192037
0.19033
0.188591
0.186834
0.18507
0.183308
0.181557
0.179825
0.178118
0.176444
0.174806
0.17321
0.171659
0.170156
0.168704
0.167303
0.165957
0.164664
0.163426
0.162242
0.161112
0.160036
0.159013
0.15804
0.199411
0.198486
0.19779
0.197167
0.196484
0.195676
0.194737
0.193687
0.19255
0.191348
0.190098
0.188816
0.187511
0.186191
0.184864
0.183536
0.182211
0.180895
0.17959
0.1783
0.177029
0.175777
0.174549
0.173345
0.172168
0.171018
0.169896
0.168804
0.167742
0.166711
0.165711
0.164743
0.163807
0.199395
0.198258
0.197235
0.196308
0.195431
0.194563
0.193675
0.192755
0.191799
0.190812
0.189799
0.188765
0.187716
0.186657
0.185592
0.184526
0.183461
0.182401
0.181348
0.180303
0.17927
0.17825
0.177243
0.176253
0.175279
0.174322
0.173384
0.172466
0.171567
0.170689
0.169832
0.168996
0.168182
0.199395
0.198217
0.197099
0.196044
0.195047
0.194092
0.193165
0.192252
0.191343
0.190435
0.189525
0.188612
0.187697
0.186781
0.185867
0.184955
0.184048
0.183146
0.182252
0.181366
0.180489
0.179623
0.178769
0.177926
0.177097
0.176282
0.17548
0.174694
0.173922
0.173166
0.172426
0.171702
0.170995
0.199395
0.198211
0.19707
0.195974
0.194924
0.193917
0.192948
0.19201
0.191097
0.190204
0.189326
0.188462
0.187608
0.186764
0.185929
0.185103
0.184287
0.18348
0.182683
0.181896
0.181119
0.180354
0.179599
0.178857
0.178126
0.177408
0.176702
0.176009
0.17533
0.174663
0.17401
0.17337
0.172744
0.199395
0.19821
0.197064
0.195957
0.194889
0.19386
0.192867
0.191909
0.190981
0.190082
0.189208
0.188355
0.187523
0.186708
0.18591
0.185127
0.184358
0.183603
0.182862
0.182133
0.181417
0.180714
0.180023
0.179345
0.178679
0.178026
0.177385
0.176756
0.17614
0.175536
0.174945
0.174365
0.173798
0.199395
0.19821
0.197062
0.195953
0.19488
0.193843
0.19284
0.191871
0.190934
0.190027
0.189147
0.188294
0.187465
0.186659
0.185874
0.185108
0.184361
0.183631
0.182918
0.182221
0.181539
0.180871
0.180218
0.179579
0.178953
0.17834
0.177741
0.177154
0.17658
0.176018
0.175468
0.17493
0.174403
0.199395
0.198209
0.197062
0.195951
0.194877
0.193838
0.192832
0.191858
0.190916
0.190004
0.189121
0.188264
0.187434
0.186628
0.185846
0.185085
0.184345
0.183625
0.182925
0.182242
0.181576
0.180927
0.180293
0.179675
0.179072
0.178483
0.177908
0.177346
0.176797
0.176261
0.175738
0.175226
0.174727
0.199395
0.198209
0.197061
0.195951
0.194876
0.193836
0.192829
0.191854
0.19091
0.189995
0.189109
0.188251
0.187418
0.186611
0.185828
0.185068
0.18433
0.183613
0.182916
0.182239
0.181579
0.180938
0.180314
0.179706
0.179114
0.178537
0.177974
0.177426
0.176892
0.176371
0.175862
0.175367
0.174883
0.199395
0.198209
0.197061
0.19595
0.194875
0.193834
0.192827
0.191851
0.190907
0.189991
0.189104
0.188244
0.187411
0.186603
0.185818
0.185058
0.184319
0.183603
0.182907
0.18223
0.181573
0.180934
0.180313
0.17971
0.179122
0.17855
0.177994
0.177452
0.176925
0.176411
0.175911
0.175423
0.174948
0.199395
0.198209
0.197061
0.19595
0.194874
0.193833
0.192826
0.19185
0.190905
0.189989
0.189101
0.188241
0.187407
0.186598
0.185813
0.185051
0.184313
0.183595
0.182899
0.182223
0.181566
0.180928
0.180307
0.179705
0.179119
0.178549
0.177994
0.177455
0.176931
0.17642
0.175923
0.175439
0.174968
0.199395
0.198209
0.19706
0.195949
0.194874
0.193833
0.192825
0.191849
0.190903
0.189987
0.189099
0.188238
0.187404
0.186594
0.185809
0.185047
0.184308
0.18359
0.182893
0.182217
0.18156
0.180921
0.180301
0.179698
0.179112
0.178543
0.177989
0.17745
0.176927
0.176417
0.175921
0.175438
0.174968
0.199395
0.198209
0.19706
0.195949
0.194873
0.193832
0.192824
0.191848
0.190902
0.189985
0.189097
0.188236
0.187401
0.186591
0.185806
0.185044
0.184304
0.183586
0.182889
0.182212
0.181554
0.180916
0.180295
0.179692
0.179106
0.178536
0.177982
0.177444
0.17692
0.17641
0.175914
0.175432
0.174962
0.199395
0.198209
0.19706
0.195949
0.194873
0.193832
0.192823
0.191847
0.190901
0.189984
0.189095
0.188234
0.187399
0.186589
0.185803
0.185041
0.184301
0.183582
0.182885
0.182207
0.18155
0.180911
0.18029
0.179686
0.1791
0.17853
0.177976
0.177437
0.176912
0.176403
0.175907
0.175424
0.174954
0.199395
0.198208
0.19706
0.195948
0.194873
0.193831
0.192823
0.191846
0.1909
0.189983
0.189094
0.188232
0.187397
0.186587
0.185801
0.185038
0.184298
0.183579
0.182881
0.182204
0.181545
0.180906
0.180285
0.179681
0.179094
0.178524
0.177969
0.17743
0.176906
0.176395
0.175899
0.175416
0.174946
0.199395
0.198208
0.19706
0.195948
0.194872
0.193831
0.192822
0.191845
0.190899
0.189982
0.189093
0.188231
0.187395
0.186585
0.185798
0.185035
0.184295
0.183576
0.182878
0.1822
0.181542
0.180902
0.18028
0.179676
0.179089
0.178519
0.177964
0.177424
0.176899
0.176389
0.175892
0.175408
0.174938
0.199395
0.198208
0.19706
0.195948
0.194872
0.19383
0.192821
0.191844
0.190898
0.189981
0.189092
0.18823
0.187394
0.186583
0.185796
0.185033
0.184292
0.183573
0.182875
0.182197
0.181538
0.180898
0.180276
0.179672
0.179085
0.178514
0.177958
0.177418
0.176893
0.176382
0.175885
0.175401
0.174931
0.199395
0.198208
0.19706
0.195948
0.194872
0.19383
0.192821
0.191844
0.190897
0.18998
0.189091
0.188228
0.187392
0.186581
0.185795
0.185031
0.18429
0.183571
0.182872
0.182194
0.181535
0.180895
0.180273
0.179668
0.17908
0.178509
0.177953
0.177413
0.176888
0.176376
0.175879
0.175395
0.174924
0.199395
0.198208
0.19706
0.195948
0.194872
0.19383
0.192821
0.191843
0.190897
0.189979
0.18909
0.188227
0.187391
0.18658
0.185793
0.185029
0.184288
0.183568
0.18287
0.182191
0.181532
0.180891
0.180269
0.179664
0.179076
0.178505
0.177949
0.177408
0.176883
0.176371
0.175873
0.175389
0.174918
0.199395
0.198208
0.197059
0.195948
0.194871
0.193829
0.19282
0.191843
0.190896
0.189978
0.189089
0.188226
0.18739
0.186579
0.185791
0.185028
0.184286
0.183566
0.182867
0.182189
0.181529
0.180888
0.180266
0.179661
0.179073
0.178501
0.177945
0.177404
0.176878
0.176366
0.175868
0.175383
0.174912
0.199395
0.198208
0.197059
0.195947
0.194871
0.193829
0.19282
0.191843
0.190896
0.189978
0.189088
0.188225
0.187389
0.186577
0.18579
0.185026
0.184284
0.183564
0.182865
0.182186
0.181527
0.180886
0.180263
0.179658
0.179069
0.178497
0.177941
0.1774
0.176873
0.176361
0.175863
0.175378
0.174906
0.199395
0.198208
0.197059
0.195947
0.194871
0.193829
0.19282
0.191842
0.190895
0.189977
0.189087
0.188225
0.187388
0.186576
0.185789
0.185025
0.184283
0.183563
0.182864
0.182184
0.181525
0.180883
0.18026
0.179655
0.179066
0.178494
0.177937
0.177396
0.17687
0.176357
0.175859
0.175374
0.174902
0.199395
0.198208
0.197059
0.195947
0.194871
0.193829
0.19282
0.191842
0.190895
0.189977
0.189087
0.188224
0.187387
0.186576
0.185788
0.185024
0.184282
0.183561
0.182862
0.182183
0.181523
0.180881
0.180258
0.179652
0.179064
0.178491
0.177934
0.177393
0.176866
0.176353
0.175855
0.17537
0.174897
0.199395
0.198208
0.197059
0.195947
0.194871
0.193829
0.192819
0.191842
0.190895
0.189976
0.189086
0.188224
0.187387
0.186575
0.185787
0.185023
0.184281
0.18356
0.18286
0.182181
0.181521
0.180879
0.180256
0.17965
0.179061
0.178488
0.177931
0.17739
0.176863
0.17635
0.175851
0.175366
0.174893
0.199395
0.198208
0.197059
0.195947
0.194871
0.193829
0.192819
0.191842
0.190894
0.189976
0.189086
0.188223
0.187386
0.186574
0.185786
0.185022
0.18428
0.183559
0.182859
0.18218
0.181519
0.180878
0.180254
0.179648
0.179059
0.178486
0.177929
0.177387
0.17686
0.176347
0.175848
0.175362
0.17489
0.199395
0.198208
0.197059
0.195947
0.194871
0.193829
0.192819
0.191842
0.190894
0.189976
0.189086
0.188223
0.187386
0.186574
0.185786
0.185021
0.184279
0.183558
0.182858
0.182178
0.181518
0.180876
0.180253
0.179647
0.179057
0.178484
0.177927
0.177385
0.176858
0.176345
0.175845
0.17536
0.174887
0.199395
0.198208
0.197059
0.195947
0.194871
0.193829
0.192819
0.191841
0.190894
0.189976
0.189086
0.188223
0.187385
0.186573
0.185785
0.185021
0.184278
0.183557
0.182857
0.182178
0.181517
0.180875
0.180252
0.179645
0.179056
0.178483
0.177925
0.177383
0.176856
0.176342
0.175843
0.175357
0.174884
0.199395
0.198208
0.197059
0.195947
0.194871
0.193829
0.192819
0.191841
0.190894
0.189976
0.189086
0.188222
0.187385
0.186573
0.185785
0.18502
0.184278
0.183557
0.182857
0.182177
0.181516
0.180874
0.180251
0.179644
0.179055
0.178481
0.177924
0.177382
0.176854
0.176341
0.175841
0.175355
0.174882
0.199395
0.198208
0.197059
0.195947
0.194871
0.193829
0.192819
0.191841
0.190894
0.189976
0.189086
0.188222
0.187385
0.186573
0.185785
0.18502
0.184278
0.183557
0.182857
0.182177
0.181516
0.180874
0.180251
0.179644
0.179054
0.178481
0.177923
0.177381
0.176853
0.17634
0.17584
0.175354
0.174881
0.199395
0.198208
0.197059
0.195947
0.194871
0.193829
0.192819
0.191841
0.190894
0.189976
0.189086
0.188223
0.187386
0.186573
0.185786
0.185021
0.184278
0.183558
0.182858
0.182178
0.181517
0.180875
0.180251
0.179644
0.179055
0.178481
0.177923
0.177381
0.176852
0.176339
0.175839
0.175352
0.174878
0.199395
0.198208
0.197059
0.195947
0.194871
0.193829
0.19282
0.191843
0.190896
0.189978
0.189089
0.188226
0.18739
0.186578
0.185791
0.185026
0.184284
0.183563
0.182863
0.182183
0.181522
0.180879
0.180255
0.179647
0.179056
0.178481
0.177922
0.177378
0.176848
0.176333
0.17583
0.175342
0.174865
0.199395
0.198208
0.197059
0.195948
0.194872
0.193831
0.192824
0.191848
0.190902
0.189986
0.189098
0.188236
0.1874
0.186589
0.185801
0.185036
0.184293
0.183571
0.182869
0.182186
0.181522
0.180877
0.180248
0.179636
0.179041
0.178461
0.177897
0.177347
0.176811
0.176289
0.175781
0.175285
0.174802
0.199395
0.198209
0.197062
0.195955
0.194886
0.193853
0.192854
0.191885
0.190945
0.190033
0.189146
0.188284
0.187446
0.186631
0.185838
0.185066
0.184314
0.183582
0.182869
0.182174
0.181497
0.180837
0.180194
0.179567
0.178956
0.17836
0.177779
0.177212
0.176659
0.176119
0.175593
0.175079
0.174577
0.199395
0.198223
0.197106
0.196032
0.194988
0.19397
0.192977
0.192008
0.191061
0.190136
0.189233
0.188352
0.187492
0.186652
0.185833
0.185034
0.184253
0.183492
0.182748
0.182022
0.181314
0.180622
0.179947
0.179288
0.178644
0.178015
0.1774
0.1768
0.176214
0.175641
0.175082
0.174535
0.174001
0.19941
0.198319
0.197296
0.196301
0.19531
0.194319
0.193329
0.192346
0.191374
0.190417
0.189479
0.188561
0.187664
0.186788
0.185934
0.185101
0.184288
0.183495
0.182721
0.181966
0.18123
0.180511
0.179809
0.179123
0.178454
0.1778
0.177161
0.176537
0.175927
0.175331
0.174749
0.17418
0.173624
0.199716
0.199139
0.19847
0.197764
0.197072
0.196419
0.195812
0.195251
0.194735
0.194262
0.193831
0.193441
0.193089
0.192773
0.192493
0.192245
0.192027
0.191839
0.191676
0.191539
0.191425
0.191332
0.191258
0.191203
0.191164
0.191141
0.191132
0.191136
0.191152
0.191179
0.191217
0.191264
0.191319
0.205424
0.216593
0.227629
0.238434
0.248976
0.259243
0.269229
0.278926
0.288326
0.297424
0.306216
0.314701
0.322877
0.330747
0.338313
0.345577
0.352546
0.359225
0.365619
0.371736
0.377584
0.383171
0.388503
0.393591
0.398442
0.403065
0.407469
0.411661
0.415651
0.419447
0.423057
0.426489
0.429753
0.66007
0.768131
0.874152
0.981721
1.0924
1.20233
1.30503
1.39455
1.46735
1.52304
1.56382
1.59317
1.6147
1.63136
1.64511
1.65696
1.66723
1.67586
1.68266
1.68751
1.69044
1.69163
1.69136
1.68994
1.68769
1.68486
1.68164
1.67819
1.67461
1.67097
1.66732
1.66368
1.66005
1.65641
1.65268
1.64878
1.64458
1.63994
1.63469
1.62867
1.62168
1.61355
1.60411
1.59319
1.58065
1.56637
1.55024
1.53222
1.51228
1.49042
1.46671
1.44124
1.41414
1.38558
1.35579
1.32498
1.29342
1.2614
1.2292
1.19712
1.16543
1.13443
1.10435
1.07545
1.04791
1.02191
0.99759
0.975038
0.954321
0.935466
0.918471
0.903302
0.889901
0.878185
0.868055
0.859396
0.85208
0.845971
0.840926
0.8368
0.833448
0.830724
0.82849
0.826612
0.824964
0.823429
0.821897
0.82027
0.81846
0.816386
0.81398
0.811179
0.80793
0.804182
0.799902
0.79503
0.7896
0.783364
0.777162
0.766557
0.276539
0.284722
0.29801
0.317403
0.344422
0.380582
0.426976
0.483938
0.550785
0.625775
0.706312
0.7893
0.871548
0.950156
1.02282
1.08798
1.14493
1.19364
1.23468
1.26892
1.29738
1.32102
1.34064
1.35686
1.37012
1.38073
1.38895
1.39502
1.39916
1.4016
1.40258
1.40229
1.40089
1.39849
1.39517
1.39094
1.3858
1.37973
1.37265
1.36449
1.35519
1.34464
1.33276
1.31947
1.30471
1.28843
1.27058
1.25118
1.23024
1.20782
1.18402
1.15896
1.1328
1.10573
1.07795
1.04971
1.02126
0.992853
0.964747
0.937199
0.910452
0.884732
0.860239
0.837149
0.815607
0.795727
0.77759
0.761247
0.746718
0.733996
0.72305
0.713825
0.706249
0.700232
0.695673
0.692456
0.690459
0.689551
0.689599
0.690464
0.692007
0.694091
0.696581
0.699347
0.702262
0.705209
0.708079
0.710769
0.713187
0.71525
0.716883
0.71802
0.718604
0.71858
0.71791
0.716535
0.714476
0.711532
0.708297
0.701893
0.162234
0.162075
0.162291
0.163025
0.16457
0.167276
0.171574
0.177999
0.187195
0.199894
0.216877
0.238913
0.266664
0.300586
0.340817
0.387095
0.438705
0.494492
0.552927
0.61225
0.67065
0.726463
0.778341
0.825355
0.867028
0.903278
0.934327
0.96058
0.982521
1.00063
1.01534
1.02701
1.03595
1.04239
1.04656
1.0486
1.04866
1.04685
1.04328
1.038
1.03108
1.02255
1.01246
1.00084
0.987712
0.973125
0.957133
0.939807
0.921239
0.90154
0.880846
0.859314
0.837123
0.814468
0.791558
0.768611
0.745849
0.723491
0.701749
0.68082
0.660887
0.642108
0.624618
0.608529
0.593923
0.58086
0.569375
0.559479
0.551167
0.544414
0.53918
0.535412
0.533047
0.532011
0.53222
0.533585
0.536007
0.539383
0.543603
0.54855
0.554108
0.560154
0.566568
0.573228
0.580014
0.586812
0.59351
0.600006
0.606201
0.612006
0.617339
0.622127
0.626303
0.629808
0.632594
0.634601
0.635828
0.636127
0.635814
0.633662
0.156976
0.15582
0.154717
0.153683
0.152725
0.151877
0.151188
0.150724
0.150572
0.150846
0.151687
0.153273
0.155823
0.159602
0.164923
0.172151
0.181687
0.193947
0.209325
0.228137
0.250556
0.276554
0.305858
0.33794
0.372046
0.40726
0.442596
0.477092
0.509899
0.540336
0.567926
0.592385
0.613598
0.63158
0.646435
0.658315
0.667398
0.673863
0.677883
0.67962
0.679226
0.676839
0.672593
0.666615
0.659033
0.649976
0.639578
0.627979
0.615327
0.601781
0.587507
0.572679
0.557478
0.542086
0.526686
0.511458
0.496573
0.48219
0.468456
0.455498
0.443426
0.432331
0.422285
0.41334
0.405532
0.398884
0.393406
0.389096
0.385944
0.383937
0.383051
0.383261
0.384536
0.386841
0.390136
0.394374
0.399503
0.405461
0.412181
0.419584
0.427587
0.436096
0.445013
0.454233
0.463649
0.47315
0.482628
0.491976
0.501089
0.50987
0.518224
0.526066
0.533318
0.539906
0.545768
0.550837
0.555086
0.558416
0.560843
0.562825
0.162755
0.161579
0.160413
0.159263
0.158129
0.157014
0.155926
0.154875
0.153875
0.152943
0.152104
0.151387
0.150827
0.150471
0.150373
0.150597
0.151224
0.152345
0.154071
0.156526
0.159849
0.16419
0.169699
0.17652
0.184766
0.194506
0.205742
0.218394
0.232288
0.247165
0.262691
0.278483
0.294138
0.309264
0.323508
0.336571
0.348222
0.3583
0.366705
0.3734
0.378392
0.381725
0.383474
0.383735
0.382619
0.380249
0.376759
0.372286
0.366974
0.360968
0.354416
0.347462
0.340247
0.332908
0.325573
0.318358
0.31137
0.304702
0.298436
0.292637
0.287361
0.282651
0.278541
0.275055
0.272211
0.270025
0.268506
0.267664
0.267507
0.268045
0.269285
0.271238
0.273911
0.277314
0.281451
0.286326
0.291935
0.298268
0.305308
0.313025
0.321379
0.330318
0.339779
0.349686
0.359953
0.370485
0.381181
0.391935
0.40264
0.413186
0.423469
0.433386
0.44284
0.451739
0.460001
0.467544
0.474309
0.480239
0.485039
0.490787
0.167258
0.166213
0.165165
0.164117
0.163068
0.162022
0.160979
0.159943
0.158915
0.157901
0.156905
0.155935
0.155
0.154111
0.153281
0.152526
0.151866
0.151321
0.150917
0.150682
0.150647
0.150845
0.151314
0.152092
0.153219
0.154733
0.156669
0.159057
0.161914
0.165244
0.169032
0.173243
0.177818
0.182677
0.187719
0.19283
0.197886
0.202762
0.207341
0.211518
0.215205
0.218336
0.220868
0.22278
0.224073
0.224766
0.224895
0.224508
0.223662
0.222423
0.220859
0.21904
0.217034
0.214907
0.212721
0.210532
0.20839
0.206341
0.204422
0.202666
0.201101
0.199751
0.198637
0.197778
0.19719
0.196891
0.196897
0.197227
0.197899
0.198937
0.200363
0.202203
0.204487
0.207243
0.210503
0.214298
0.218658
0.223609
0.229175
0.235371
0.242203
0.249667
0.257746
0.266409
0.275611
0.285292
0.295376
0.305777
0.316399
0.327136
0.337878
0.348514
0.358931
0.369018
0.37867
0.387785
0.396268
0.404095
0.410675
0.419498
0.170189
0.169272
0.168348
0.167417
0.166481
0.165539
0.164594
0.163646
0.162696
0.161745
0.160795
0.159849
0.15891
0.15798
0.157064
0.156168
0.155299
0.154462
0.153668
0.152925
0.152243
0.151635
0.151112
0.150685
0.150368
0.150171
0.150107
0.150186
0.150414
0.150799
0.151342
0.152041
0.15289
0.153878
0.154987
0.156195
0.157476
0.158798
0.160128
0.161431
0.162675
0.163829
0.164864
0.16576
0.1665
0.167075
0.167481
0.167723
0.167807
0.167747
0.167559
0.167261
0.166873
0.166417
0.165912
0.165378
0.164834
0.164299
0.163787
0.163314
0.162894
0.162539
0.162263
0.162077
0.161994
0.162026
0.162187
0.162492
0.162959
0.163606
0.164454
0.165526
0.166848
0.168451
0.170364
0.172623
0.175263
0.178322
0.181838
0.185848
0.190385
0.195479
0.201153
0.207421
0.214284
0.221731
0.229736
0.238255
0.247231
0.256589
0.266242
0.276091
0.286029
0.295941
0.305711
0.315225
0.324354
0.333103
0.340631
0.351466
0.172029
0.171215
0.170391
0.169559
0.16872
0.167873
0.167019
0.166159
0.165293
0.164422
0.163547
0.162669
0.161788
0.160907
0.160027
0.15915
0.158279
0.157418
0.156568
0.155735
0.154924
0.154138
0.153383
0.152666
0.15199
0.151363
0.150788
0.150272
0.149819
0.149431
0.149111
0.14886
0.148679
0.148564
0.148514
0.148521
0.14858
0.148682
0.148817
0.148976
0.149147
0.14932
0.149483
0.149629
0.149747
0.149833
0.14988
0.149885
0.149849
0.14977
0.149651
0.149495
0.149307
0.149091
0.148853
0.148598
0.148333
0.148064
0.147795
0.147534
0.147285
0.147055
0.146849
0.146674
0.146536
0.146443
0.146403
0.146425
0.14652
0.1467
0.146979
0.147371
0.147897
0.148575
0.149429
0.150484
0.151768
0.153313
0.155152
0.15732
0.159854
0.162791
0.166167
0.170016
0.174368
0.179246
0.184665
0.190627
0.197124
0.20413
0.211605
0.219491
0.227716
0.236194
0.244825
0.253505
0.262098
0.270634
0.27813
0.289596
0.17315
0.172412
0.171665
0.170909
0.170146
0.169375
0.168596
0.16781
0.167017
0.166217
0.165411
0.1646
0.163784
0.162963
0.16214
0.161314
0.160487
0.159661
0.158837
0.158017
0.157204
0.1564
0.155608
0.15483
0.15407
0.15333
0.152614
0.151925
0.151265
0.150637
0.150044
0.149486
0.148965
0.148482
0.148036
0.147626
0.147251
0.146907
0.146594
0.146306
0.14604
0.145791
0.145557
0.145332
0.145112
0.144894
0.144675
0.144451
0.144222
0.143985
0.14374
0.143485
0.143222
0.14295
0.142671
0.142384
0.142092
0.141795
0.141496
0.141196
0.140896
0.140599
0.140306
0.140021
0.139746
0.139486
0.139244
0.139024
0.138834
0.13868
0.13857
0.138514
0.138523
0.138609
0.138787
0.139074
0.139488
0.140052
0.140788
0.141723
0.142885
0.144304
0.146013
0.148043
0.150428
0.153201
0.156391
0.160023
0.164117
0.168683
0.173722
0.179222
0.185157
0.191486
0.198151
0.205086
0.21218
0.219491
0.226043
0.236689
0.173803
0.173118
0.172426
0.171727
0.17102
0.170306
0.169585
0.168856
0.168121
0.167378
0.16663
0.165875
0.165115
0.164349
0.163578
0.162804
0.162026
0.161246
0.160464
0.159682
0.158901
0.158122
0.157347
0.156577
0.155815
0.155061
0.154318
0.153588
0.152873
0.152174
0.151493
0.150832
0.150192
0.149574
0.148978
0.148406
0.147857
0.147331
0.146828
0.146345
0.145883
0.145439
0.145012
0.144599
0.1442
0.143811
0.143432
0.14306
0.142693
0.142331
0.141971
0.141613
0.141255
0.140896
0.140537
0.140175
0.13981
0.139443
0.139072
0.138698
0.13832
0.137939
0.137555
0.137168
0.13678
0.136392
0.136006
0.135623
0.135248
0.134884
0.134535
0.134207
0.133906
0.133639
0.133416
0.133247
0.133143
0.133119
0.133189
0.133372
0.133686
0.134153
0.134795
0.135639
0.13671
0.138035
0.139644
0.141563
0.143818
0.146433
0.149425
0.152807
0.156584
0.16075
0.165287
0.17017
0.17533
0.18085
0.185892
0.194607
0.174157
0.173509
0.172855
0.172194
0.171527
0.170854
0.170174
0.169488
0.168796
0.168097
0.167392
0.166682
0.165965
0.165244
0.164517
0.163786
0.163051
0.162313
0.161572
0.160828
0.160083
0.159338
0.158594
0.15785
0.15711
0.156372
0.15564
0.154914
0.154196
0.153486
0.152785
0.152097
0.15142
0.150757
0.150107
0.149473
0.148855
0.148252
0.147666
0.147095
0.146541
0.146002
0.145477
0.144967
0.14447
0.143985
0.143512
0.143048
0.142593
0.142146
0.141705
0.141268
0.140836
0.140406
0.139978
0.13955
0.13912
0.138689
0.138255
0.137816
0.137373
0.136924
0.136469
0.136007
0.135539
0.135065
0.134584
0.134099
0.13361
0.133119
0.132628
0.13214
0.131659
0.131189
0.130735
0.130303
0.129901
0.129537
0.12922
0.128962
0.128774
0.128672
0.12867
0.128786
0.129039
0.129449
0.130038
0.130827
0.13184
0.133098
0.134623
0.136434
0.138544
0.140966
0.143703
0.146753
0.150086
0.153786
0.157225
0.163552
0.174332
0.173707
0.173077
0.172441
0.1718
0.171154
0.170502
0.169845
0.169183
0.168515
0.167842
0.167164
0.16648
0.165792
0.165099
0.164402
0.163701
0.162996
0.162288
0.161578
0.160865
0.160151
0.159435
0.15872
0.158005
0.157291
0.15658
0.155871
0.155166
0.154465
0.153771
0.153082
0.152401
0.151729
0.151065
0.150411
0.149768
0.149136
0.148515
0.147906
0.147309
0.146725
0.146152
0.145591
0.145041
0.144502
0.143973
0.143454
0.142944
0.142442
0.141946
0.141456
0.140971
0.14049
0.14001
0.139532
0.139053
0.138573
0.13809
0.137602
0.13711
0.136612
0.136106
0.135592
0.13507
0.134539
0.133999
0.133449
0.132891
0.132324
0.13175
0.131171
0.130588
0.130003
0.129419
0.12884
0.128271
0.127715
0.12718
0.12667
0.126196
0.125764
0.125386
0.125073
0.124837
0.124692
0.124654
0.124738
0.124962
0.125343
0.125899
0.126648
0.127606
0.128786
0.1302
0.131857
0.133746
0.135938
0.138015
0.142097
0.174408
0.173795
0.173178
0.172557
0.171932
0.171303
0.170669
0.17003
0.169387
0.16874
0.168088
0.167432
0.166771
0.166106
0.165437
0.164764
0.164088
0.163408
0.162725
0.16204
0.161352
0.160662
0.159971
0.15928
0.158587
0.157895
0.157204
0.156513
0.155825
0.155139
0.154457
0.153779
0.153105
0.152436
0.151774
0.151118
0.150469
0.149828
0.149196
0.148572
0.147957
0.147351
0.146755
0.146168
0.14559
0.145021
0.144461
0.143909
0.143365
0.142828
0.142297
0.141772
0.141251
0.140733
0.140218
0.139704
0.139189
0.138674
0.138156
0.137633
0.137106
0.136573
0.136032
0.135483
0.134925
0.134357
0.133778
0.133189
0.132589
0.131978
0.131356
0.130724
0.130083
0.129435
0.12878
0.12812
0.127459
0.126799
0.126144
0.125497
0.124863
0.124248
0.123658
0.1231
0.122582
0.122113
0.121704
0.121365
0.121108
0.120947
0.120894
0.120964
0.121169
0.121524
0.12204
0.122728
0.123587
0.124669
0.125726
0.128012
0.174433
0.173826
0.173216
0.172603
0.171986
0.171366
0.170742
0.170114
0.169483
0.168848
0.168209
0.167566
0.16692
0.16627
0.165617
0.164961
0.164301
0.163638
0.162973
0.162305
0.161635
0.160964
0.160291
0.159616
0.158941
0.158266
0.157591
0.156916
0.156243
0.155571
0.154901
0.154233
0.153569
0.152908
0.152252
0.1516
0.150953
0.150312
0.149677
0.149049
0.148427
0.147813
0.147205
0.146606
0.146013
0.145428
0.14485
0.144279
0.143715
0.143156
0.142603
0.142054
0.14151
0.140968
0.140428
0.139889
0.13935
0.13881
0.138267
0.137721
0.137169
0.136612
0.136047
0.135474
0.134892
0.1343
0.133698
0.133084
0.132458
0.131821
0.131171
0.13051
0.129838
0.129154
0.128461
0.127758
0.127049
0.126333
0.125614
0.124894
0.124175
0.123461
0.122756
0.122064
0.12139
0.12074
0.12012
0.119538
0.119001
0.118518
0.118098
0.117751
0.117489
0.11732
0.117256
0.117305
0.117474
0.117792
0.118143
0.119116
0.174435
0.173831
0.173224
0.172614
0.172002
0.171386
0.170767
0.170145
0.169519
0.168891
0.168259
0.167625
0.166987
0.166346
0.165702
0.165055
0.164406
0.163754
0.1631
0.162444
0.161786
0.161126
0.160465
0.159803
0.15914
0.158476
0.157813
0.157149
0.156487
0.155825
0.155165
0.154506
0.15385
0.153197
0.152546
0.151899
0.151256
0.150618
0.149984
0.149355
0.148732
0.148114
0.147502
0.146896
0.146296
0.145702
0.145114
0.144532
0.143955
0.143383
0.142816
0.142252
0.141692
0.141134
0.140578
0.140023
0.139467
0.13891
0.13835
0.137787
0.137219
0.136645
0.136064
0.135475
0.134878
0.13427
0.133653
0.133024
0.132383
0.13173
0.131065
0.130387
0.129698
0.128996
0.128282
0.127558
0.126823
0.126079
0.125328
0.12457
0.123808
0.123043
0.122278
0.121516
0.120759
0.120012
0.119278
0.118561
0.117867
0.117202
0.116571
0.115981
0.11544
0.114954
0.114532
0.114182
0.113909
0.113727
0.113613
0.113684
0.174429
0.173826
0.17322
0.172611
0.172
0.171386
0.170769
0.170149
0.169527
0.168901
0.168273
0.167642
0.167009
0.166373
0.165734
0.165093
0.164449
0.163804
0.163156
0.162506
0.161855
0.161202
0.160549
0.159894
0.159238
0.158582
0.157926
0.15727
0.156614
0.15596
0.155306
0.154653
0.154003
0.153355
0.152709
0.152066
0.151426
0.15079
0.150157
0.149529
0.148905
0.148286
0.147672
0.147063
0.146458
0.145859
0.145265
0.144676
0.144091
0.143511
0.142934
0.142361
0.14179
0.141222
0.140654
0.140088
0.13952
0.138952
0.138381
0.137806
0.137227
0.136642
0.136051
0.135451
0.134844
0.134227
0.1336
0.132961
0.132312
0.13165
0.130976
0.13029
0.129591
0.12888
0.128156
0.127421
0.126674
0.125917
0.12515
0.124374
0.12359
0.122801
0.122007
0.121209
0.120411
0.119614
0.11882
0.118034
0.117256
0.116492
0.115745
0.11502
0.11432
0.113652
0.11302
0.11243
0.111889
0.111396
0.110992
0.110473
0.174421
0.173818
0.173212
0.172603
0.171992
0.171378
0.170762
0.170143
0.169521
0.168897
0.16827
0.167641
0.167009
0.166375
0.165739
0.1651
0.16446
0.163817
0.163173
0.162527
0.161879
0.16123
0.16058
0.159929
0.159277
0.158625
0.157973
0.157321
0.156669
0.156018
0.155368
0.154719
0.154072
0.153426
0.152783
0.152142
0.151504
0.150869
0.150237
0.149609
0.148984
0.148364
0.147748
0.147137
0.146529
0.145927
0.145328
0.144734
0.144144
0.143557
0.142974
0.142394
0.141817
0.141241
0.140666
0.140091
0.139516
0.138939
0.13836
0.137778
0.137191
0.136599
0.136
0.135394
0.13478
0.134157
0.133524
0.13288
0.132226
0.131559
0.130881
0.13019
0.129487
0.128771
0.128043
0.127303
0.126551
0.125788
0.125014
0.12423
0.123437
0.122637
0.121829
0.121015
0.120197
0.119376
0.118554
0.117732
0.116913
0.116098
0.11529
0.114493
0.113708
0.112939
0.11219
0.111464
0.110768
0.110091
0.109515
0.108629
0.174413
0.173809
0.173202
0.172593
0.171982
0.171368
0.170751
0.170132
0.169511
0.168887
0.168261
0.167632
0.167001
0.166368
0.165732
0.165094
0.164455
0.163813
0.16317
0.162526
0.161879
0.161232
0.160584
0.159934
0.159284
0.158634
0.157983
0.157333
0.156683
0.156033
0.155384
0.154736
0.15409
0.153445
0.152802
0.152162
0.151524
0.150888
0.150256
0.149627
0.149002
0.14838
0.147762
0.147148
0.146538
0.145932
0.14533
0.144731
0.144137
0.143546
0.142958
0.142373
0.141789
0.141208
0.140627
0.140047
0.139466
0.138883
0.138299
0.13771
0.137118
0.136521
0.135918
0.135307
0.134689
0.134062
0.133425
0.132778
0.132121
0.131452
0.130771
0.130078
0.129373
0.128656
0.127926
0.127184
0.126431
0.125666
0.12489
0.124104
0.123308
0.122503
0.12169
0.120869
0.120043
0.119211
0.118376
0.117538
0.116698
0.115859
0.115021
0.114187
0.113358
0.112537
0.111726
0.110926
0.110145
0.109364
0.10869
0.107589
0.174404
0.1738
0.173193
0.172584
0.171972
0.171357
0.170741
0.170121
0.1695
0.168875
0.168249
0.16762
0.166989
0.166356
0.16572
0.165083
0.164444
0.163802
0.163159
0.162515
0.161869
0.161222
0.160574
0.159925
0.159275
0.158625
0.157975
0.157324
0.156674
0.156024
0.155375
0.154727
0.15408
0.153435
0.152791
0.152149
0.15151
0.150874
0.15024
0.149609
0.148981
0.148357
0.147737
0.14712
0.146507
0.145898
0.145292
0.14469
0.144092
0.143496
0.142904
0.142314
0.141726
0.14114
0.140555
0.13997
0.139384
0.138797
0.138208
0.137615
0.137019
0.136418
0.135811
0.135197
0.134576
0.133946
0.133307
0.132659
0.131999
0.131329
0.130647
0.129954
0.129248
0.128531
0.127801
0.12706
0.126306
0.125541
0.124766
0.123979
0.123183
0.122377
0.121562
0.12074
0.119911
0.119075
0.118234
0.117389
0.116541
0.11569
0.114839
0.113987
0.113137
0.112289
0.111446
0.110608
0.109782
0.108945
0.108219
0.106996
0.174397
0.173792
0.173184
0.172575
0.171962
0.171347
0.17073
0.17011
0.169488
0.168864
0.168237
0.167608
0.166976
0.166343
0.165707
0.16507
0.16443
0.163789
0.163145
0.162501
0.161855
0.161207
0.160559
0.159909
0.159259
0.158608
0.157957
0.157306
0.156655
0.156004
0.155354
0.154704
0.154056
0.153409
0.152764
0.15212
0.151479
0.15084
0.150204
0.149571
0.148941
0.148314
0.14769
0.14707
0.146454
0.145841
0.145232
0.144626
0.144023
0.143424
0.142828
0.142234
0.141642
0.141051
0.140461
0.139872
0.139282
0.138691
0.138098
0.137502
0.136903
0.136299
0.135689
0.135072
0.134449
0.133817
0.133177
0.132527
0.131867
0.131196
0.130514
0.12982
0.129115