/*--------------------------------*- C++ -*----------------------------------*\
| =========                 |                                                 |
| \\      /  F ield         | OpenFOAM: The Open Source CFD Toolbox           |
|  \\    /   O peration     | Version:  4.1                                   |
|   \\  /    A nd           | Web:      www.OpenFOAM.org                      |
|    \\/     M anipulation  |                                                 |
\*---------------------------------------------------------------------------*/
FoamFile
{
    version     2.0;
    format      ascii;
    class       volScalarField;
    location    "700";
    object      nut;
}
// * * * * * * * * * * * * * * * * * * * * * * * * * * * * * * * * * * * * * //

dimensions      [0 2 -1 0 0 0 0];

internalField   nonuniform List<scalar> 
6820
(
4.39385e-05
4.87747e-05
5.31526e-05
5.70915e-05
6.05796e-05
6.36103e-05
6.61884e-05
6.83326e-05
7.00738e-05
7.14511e-05
7.25081e-05
7.32892e-05
7.3837e-05
7.41914e-05
7.43879e-05
7.44577e-05
7.44278e-05
7.43206e-05
7.41551e-05
7.39467e-05
7.3708e-05
7.34491e-05
7.31781e-05
7.29015e-05
7.26241e-05
7.23499e-05
7.20819e-05
7.18226e-05
7.15715e-05
7.13414e-05
7.10761e-05
7.10592e-05
6.98995e-05
0.00046941
0.000265606
0.000193508
0.000152487
0.000125527
0.000107012
9.39993e-05
8.46683e-05
7.7868e-05
7.28566e-05
6.91405e-05
6.63822e-05
6.4345e-05
6.286e-05
6.18041e-05
6.10864e-05
6.06383e-05
6.04078e-05
6.03544e-05
6.04464e-05
6.06585e-05
6.09703e-05
6.13654e-05
6.18299e-05
6.23524e-05
6.29232e-05
6.35341e-05
6.41784e-05
6.48491e-05
6.55437e-05
6.62513e-05
6.69791e-05
6.76808e-05
0.000918058
0.000718795
0.000582223
0.000488778
0.00042158
0.000370785
0.000331008
0.000299115
0.000273073
0.000251474
0.00023332
0.000217887
0.000204638
0.000193169
0.000183167
0.000174389
0.000166642
0.000159772
0.000153652
0.000148182
0.000143274
0.00013886
0.00013488
0.000131283
0.000128026
0.000125074
0.000122393
0.000119957
0.000117742
0.000115725
0.00011389
0.000112225
0.000110658
0.00100704
0.000950024
0.000874018
0.000798213
0.000730805
0.000673128
0.000624146
0.000582408
0.000546591
0.000515599
0.00048855
0.000464749
0.000443645
0.000424802
0.00040787
0.000392571
0.000378677
0.000366
0.000354388
0.00034371
0.000333858
0.00032474
0.000316277
0.0003084
0.000301051
0.000294179
0.000287739
0.000281691
0.000276
0.000270635
0.000265569
0.000260773
0.000256221
0.00101631
0.001006
0.000983563
0.000951519
0.000914347
0.000875791
0.000838168
0.000802653
0.000769714
0.000739438
0.000711722
0.000686378
0.000663192
0.000641951
0.000622452
0.000604513
0.000587969
0.000572677
0.000558508
0.00054535
0.000533104
0.000521682
0.000511007
0.000501011
0.000491634
0.000482822
0.000474527
0.000466707
0.000459325
0.000452347
0.000445743
0.000439488
0.000433556
0.00101678
0.00101508
0.00101017
0.0010009
0.00098729
0.000970152
0.000950606
0.000929706
0.000908287
0.000886944
0.000866075
0.000845923
0.000826628
0.000808259
0.000790837
0.000774352
0.000758777
0.000744075
0.000730199
0.000717105
0.000704744
0.00069307
0.00068204
0.000671611
0.000661744
0.000652402
0.000643553
0.000635164
0.000627209
0.00061966
0.000612497
0.0006057
0.000599246
0.00101672
0.00101615
0.001015
0.00101271
0.00100877
0.00100297
0.000995342
0.000986101
0.000975569
0.000964085
0.000951964
0.000939473
0.000926828
0.000914198
0.00090171
0.000889458
0.000877506
0.000865902
0.000854673
0.000843837
0.000833402
0.000823369
0.000813735
0.000804492
0.000795631
0.000787142
0.000779012
0.000771229
0.000763782
0.000756659
0.000749849
0.000743343
0.000737127
0.0010167
0.00101622
0.00101568
0.00101493
0.00101376
0.00101199
0.00100945
0.00100608
0.00100186
0.000996852
0.000991145
0.00098485
0.000978082
0.000970952
0.000963562
0.000956001
0.000948345
0.000940658
0.000932995
0.000925397
0.000917899
0.000910529
0.000903307
0.000896249
0.000889369
0.000882674
0.00087617
0.000869862
0.000863752
0.000857842
0.000852131
0.00084662
0.000841306
0.0010167
0.00101622
0.00101574
0.00101525
0.00101469
0.001014
0.00101308
0.00101187
0.00101031
0.00100837
0.00100603
0.0010033
0.0010002
0.000996763
0.000993031
0.000989044
0.000984846
0.000980478
0.000975978
0.000971382
0.00096672
0.000962021
0.00095731
0.000952607
0.000947932
0.000943299
0.000938723
0.000934215
0.000929785
0.00092544
0.000921188
0.000917034
0.000912983
0.0010167
0.00101621
0.00101574
0.00101529
0.00101483
0.00101436
0.00101385
0.00101326
0.00101258
0.00101176
0.00101079
0.00100964
0.00100831
0.00100679
0.00100508
0.0010032
0.00100114
0.000998935
0.000996592
0.000994128
0.000991561
0.000988907
0.000986182
0.000983401
0.000980579
0.000977728
0.000974859
0.000971985
0.000969115
0.000966258
0.000963422
0.000960613
0.000957839
0.0010167
0.00101621
0.00101574
0.00101529
0.00101484
0.00101441
0.00101398
0.00101354
0.00101308
0.0010126
0.00101208
0.0010115
0.00101085
0.00101013
0.00100932
0.00100843
0.00100745
0.00100639
0.00100524
0.001004
0.00100269
0.00100131
0.000999857
0.000998351
0.000996794
0.000995193
0.000993554
0.000991886
0.000990193
0.000988483
0.000986761
0.000985032
0.000983302
0.0010167
0.00101621
0.00101574
0.00101528
0.00101484
0.00101441
0.00101399
0.00101358
0.00101317
0.00101277
0.00101237
0.00101195
0.00101153
0.00101108
0.00101061
0.00101011
0.00100958
0.00100901
0.0010084
0.00100776
0.00100707
0.00100635
0.00100558
0.00100479
0.00100395
0.00100309
0.00100219
0.00100127
0.00100033
0.000999364
0.000998381
0.000997383
0.000996373
0.0010167
0.00101621
0.00101574
0.00101528
0.00101484
0.00101441
0.00101399
0.00101358
0.00101318
0.0010128
0.00101242
0.00101204
0.00101167
0.00101131
0.00101094
0.00101057
0.00101019
0.0010098
0.00100941
0.001009
0.00100858
0.00100815
0.0010077
0.00100724
0.00100676
0.00100626
0.00100575
0.00100523
0.00100469
0.00100414
0.00100357
0.001003
0.00100242
0.0010167
0.00101621
0.00101574
0.00101528
0.00101484
0.0010144
0.00101398
0.00101358
0.00101318
0.00101279
0.00101242
0.00101205
0.0010117
0.00101135
0.00101101
0.00101067
0.00101034
0.00101001
0.00100968
0.00100936
0.00100904
0.00100871
0.00100838
0.00100805
0.00100772
0.00100739
0.00100705
0.0010067
0.00100636
0.00100601
0.00100565
0.00100529
0.00100493
0.0010167
0.00101621
0.00101574
0.00101528
0.00101484
0.0010144
0.00101398
0.00101357
0.00101318
0.00101279
0.00101242
0.00101205
0.0010117
0.00101135
0.00101101
0.00101068
0.00101036
0.00101005
0.00100974
0.00100944
0.00100915
0.00100886
0.00100857
0.00100829
0.00100801
0.00100773
0.00100746
0.00100719
0.00100692
0.00100665
0.00100638
0.00100612
0.00100585
0.0010167
0.00101621
0.00101574
0.00101528
0.00101483
0.0010144
0.00101398
0.00101357
0.00101317
0.00101279
0.00101241
0.00101205
0.00101169
0.00101135
0.00101101
0.00101068
0.00101036
0.00101005
0.00100975
0.00100945
0.00100917
0.00100888
0.00100861
0.00100834
0.00100808
0.00100782
0.00100757
0.00100732
0.00100708
0.00100684
0.00100661
0.00100638
0.00100615
0.0010167
0.00101621
0.00101574
0.00101528
0.00101483
0.0010144
0.00101398
0.00101357
0.00101317
0.00101278
0.00101241
0.00101204
0.00101169
0.00101134
0.001011
0.00101068
0.00101036
0.00101005
0.00100974
0.00100945
0.00100916
0.00100888
0.00100861
0.00100835
0.00100809
0.00100783
0.00100759
0.00100735
0.00100711
0.00100688
0.00100666
0.00100644
0.00100623
0.0010167
0.00101621
0.00101574
0.00101528
0.00101483
0.0010144
0.00101398
0.00101357
0.00101317
0.00101278
0.0010124
0.00101204
0.00101168
0.00101134
0.001011
0.00101067
0.00101035
0.00101004
0.00100974
0.00100944
0.00100915
0.00100887
0.0010086
0.00100834
0.00100808
0.00100783
0.00100758
0.00100734
0.00100711
0.00100688
0.00100666
0.00100644
0.00100623
0.0010167
0.00101621
0.00101574
0.00101528
0.00101483
0.0010144
0.00101398
0.00101357
0.00101317
0.00101278
0.0010124
0.00101204
0.00101168
0.00101133
0.00101099
0.00101066
0.00101034
0.00101003
0.00100973
0.00100943
0.00100915
0.00100887
0.00100859
0.00100833
0.00100807
0.00100782
0.00100757
0.00100733
0.0010071
0.00100687
0.00100665
0.00100643
0.00100622
0.0010167
0.00101621
0.00101574
0.00101528
0.00101483
0.0010144
0.00101397
0.00101356
0.00101317
0.00101278
0.0010124
0.00101203
0.00101168
0.00101133
0.00101099
0.00101066
0.00101034
0.00101003
0.00100972
0.00100943
0.00100914
0.00100886
0.00100859
0.00100832
0.00100806
0.00100781
0.00100756
0.00100732
0.00100709
0.00100686
0.00100664
0.00100642
0.00100621
0.0010167
0.00101621
0.00101574
0.00101528
0.00101483
0.0010144
0.00101397
0.00101356
0.00101316
0.00101278
0.0010124
0.00101203
0.00101167
0.00101132
0.00101099
0.00101066
0.00101034
0.00101002
0.00100972
0.00100942
0.00100913
0.00100885
0.00100858
0.00100831
0.00100805
0.0010078
0.00100755
0.00100731
0.00100708
0.00100685
0.00100662
0.00100641
0.00100619
0.0010167
0.00101621
0.00101574
0.00101528
0.00101483
0.00101439
0.00101397
0.00101356
0.00101316
0.00101277
0.0010124
0.00101203
0.00101167
0.00101132
0.00101098
0.00101065
0.00101033
0.00101002
0.00100971
0.00100942
0.00100913
0.00100885
0.00100857
0.0010083
0.00100804
0.00100779
0.00100754
0.0010073
0.00100706
0.00100684
0.00100661
0.00100639
0.00100618
0.0010167
0.00101621
0.00101574
0.00101528
0.00101483
0.00101439
0.00101397
0.00101356
0.00101316
0.00101277
0.00101239
0.00101203
0.00101167
0.00101132
0.00101098
0.00101065
0.00101033
0.00101001
0.00100971
0.00100941
0.00100912
0.00100884
0.00100856
0.0010083
0.00100804
0.00100778
0.00100753
0.00100729
0.00100706
0.00100683
0.0010066
0.00100638
0.00100617
0.0010167
0.00101621
0.00101574
0.00101528
0.00101483
0.00101439
0.00101397
0.00101356
0.00101316
0.00101277
0.00101239
0.00101202
0.00101167
0.00101132
0.00101098
0.00101065
0.00101032
0.00101001
0.00100971
0.00100941
0.00100912
0.00100883
0.00100856
0.00100829
0.00100803
0.00100777
0.00100753
0.00100728
0.00100705
0.00100682
0.00100659
0.00100637
0.00100616
0.0010167
0.00101621
0.00101574
0.00101528
0.00101483
0.00101439
0.00101397
0.00101356
0.00101316
0.00101277
0.00101239
0.00101202
0.00101166
0.00101131
0.00101097
0.00101064
0.00101032
0.00101001
0.0010097
0.0010094
0.00100911
0.00100883
0.00100855
0.00100829
0.00100802
0.00100777
0.00100752
0.00100728
0.00100704
0.00100681
0.00100658
0.00100636
0.00100615
0.0010167
0.00101621
0.00101574
0.00101528
0.00101483
0.00101439
0.00101397
0.00101356
0.00101316
0.00101277
0.00101239
0.00101202
0.00101166
0.00101131
0.00101097
0.00101064
0.00101032
0.00101
0.0010097
0.0010094
0.00100911
0.00100883
0.00100855
0.00100828
0.00100802
0.00100776
0.00100751
0.00100727
0.00100703
0.0010068
0.00100657
0.00100635
0.00100614
0.0010167
0.00101621
0.00101574
0.00101528
0.00101483
0.00101439
0.00101397
0.00101356
0.00101316
0.00101277
0.00101239
0.00101202
0.00101166
0.00101131
0.00101097
0.00101064
0.00101032
0.00101
0.0010097
0.0010094
0.00100911
0.00100882
0.00100855
0.00100828
0.00100801
0.00100776
0.00100751
0.00100726
0.00100703
0.00100679
0.00100657
0.00100635
0.00100613
0.0010167
0.00101621
0.00101574
0.00101528
0.00101483
0.00101439
0.00101397
0.00101356
0.00101316
0.00101277
0.00101239
0.00101202
0.00101166
0.00101131
0.00101097
0.00101064
0.00101032
0.00101
0.00100969
0.00100939
0.0010091
0.00100882
0.00100854
0.00100827
0.00100801
0.00100775
0.0010075
0.00100726
0.00100702
0.00100679
0.00100656
0.00100634
0.00100612
0.0010167
0.00101621
0.00101574
0.00101528
0.00101483
0.00101439
0.00101397
0.00101356
0.00101316
0.00101277
0.00101239
0.00101202
0.00101166
0.00101131
0.00101097
0.00101064
0.00101031
0.00101
0.00100969
0.00100939
0.0010091
0.00100882
0.00100854
0.00100827
0.00100801
0.00100775
0.0010075
0.00100725
0.00100702
0.00100678
0.00100656
0.00100633
0.00100612
0.0010167
0.00101621
0.00101574
0.00101528
0.00101483
0.00101439
0.00101397
0.00101356
0.00101316
0.00101277
0.00101239
0.00101202
0.00101166
0.00101131
0.00101097
0.00101064
0.00101031
0.00101
0.00100969
0.00100939
0.0010091
0.00100881
0.00100854
0.00100827
0.001008
0.00100775
0.00100749
0.00100725
0.00100701
0.00100678
0.00100655
0.00100633
0.00100611
0.0010167
0.00101621
0.00101574
0.00101528
0.00101483
0.00101439
0.00101397
0.00101356
0.00101316
0.00101277
0.00101239
0.00101202
0.00101166
0.00101131
0.00101097
0.00101064
0.00101031
0.00101
0.00100969
0.00100939
0.0010091
0.00100881
0.00100853
0.00100826
0.001008
0.00100774
0.00100749
0.00100724
0.001007
0.00100677
0.00100654
0.00100632
0.0010061
0.0010167
0.00101621
0.00101574
0.00101528
0.00101483
0.00101439
0.00101397
0.00101356
0.00101316
0.00101277
0.00101239
0.00101202
0.00101166
0.00101131
0.00101097
0.00101064
0.00101031
0.00101
0.00100969
0.00100939
0.00100909
0.00100881
0.00100853
0.00100825
0.00100798
0.00100772
0.00100747
0.00100722
0.00100697
0.00100673
0.0010065
0.00100627
0.00100604
0.0010167
0.00101621
0.00101574
0.00101528
0.00101483
0.00101439
0.00101397
0.00101356
0.00101316
0.00101277
0.00101239
0.00101202
0.00101166
0.00101131
0.00101096
0.00101063
0.0010103
0.00100997
0.00100966
0.00100935
0.00100905
0.00100875
0.00100845
0.00100817
0.00100788
0.0010076
0.00100732
0.00100705
0.00100678
0.00100651
0.00100625
0.00100599
0.00100573
0.0010167
0.00101621
0.00101574
0.00101528
0.00101483
0.00101439
0.00101397
0.00101356
0.00101316
0.00101276
0.00101237
0.00101199
0.00101162
0.00101125
0.00101088
0.00101051
0.00101015
0.00100979
0.00100942
0.00100906
0.00100869
0.00100833
0.00100796
0.00100759
0.00100721
0.00100684
0.00100646
0.00100608
0.00100569
0.00100531
0.00100492
0.00100453
0.00100413
0.0010167
0.00101621
0.00101574
0.00101527
0.00101482
0.00101438
0.00101394
0.0010135
0.00101305
0.00101259
0.00101213
0.00101165
0.00101115
0.00101063
0.00101008
0.00100952
0.00100893
0.00100832
0.00100769
0.00100703
0.00100635
0.00100565
0.00100493
0.00100419
0.00100343
0.00100265
0.00100186
0.00100105
0.00100023
0.000999396
0.000998554
0.000997702
0.000996844
0.0010167
0.00101621
0.00101571
0.00101519
0.00101464
0.00101403
0.00101334
0.00101256
0.00101168
0.00101069
0.00100958
0.00100837
0.00100706
0.00100563
0.00100411
0.0010025
0.0010008
0.000999029
0.000997185
0.00099528
0.00099332
0.000991313
0.000989266
0.000987185
0.000985077
0.000982947
0.000980801
0.000978645
0.000976482
0.000974316
0.000972153
0.000969995
0.000967846
0.00101669
0.00101596
0.00101486
0.00101328
0.00101118
0.00100855
0.00100542
0.00100182
0.000997785
0.000993377
0.000988643
0.000983636
0.000978404
0.000972993
0.000967446
0.0009618
0.000956089
0.000950342
0.000944585
0.00093884
0.000933125
0.000927458
0.000921851
0.000916315
0.00091086
0.000905493
0.00090022
0.000895046
0.000889975
0.000885008
0.000880147
0.000875395
0.00087075
0.00101524
0.00100708
0.00099496
0.000980623
0.000964776
0.000947876
0.000930305
0.000912411
0.000894487
0.000876761
0.000859397
0.000842509
0.000826171
0.000810426
0.000795297
0.000780791
0.000766901
0.000753616
0.000740916
0.000728781
0.000717187
0.000706109
0.000695524
0.000685406
0.000675732
0.00066648
0.000657627
0.000649152
0.000641036
0.000633259
0.000625804
0.000618655
0.000611793
0.000934352
0.00081341
0.000726844
0.000658858
0.000603206
0.000556872
0.000517958
0.000484986
0.000456769
0.000432384
0.000411125
0.000392442
0.000375907
0.00036118
0.00034799
0.000336116
0.000325379
0.000315631
0.00030675
0.000298632
0.000291189
0.000284347
0.000278042
0.000272218
0.000266828
0.000261829
0.000257185
0.000252864
0.000248836
0.000245076
0.000241562
0.000238273
0.00023519
0.000125479
0.000128845
0.000132086
0.000135185
0.000138141
0.000140961
0.00014365
0.000146214
0.000148657
0.000150984
0.0001532
0.000155308
0.000157312
0.000159218
0.000161029
0.000162748
0.000164381
0.000165931
0.000167401
0.000168796
0.000170118
0.000171372
0.000172561
0.000173687
0.000174754
0.000175765
0.000176722
0.000177629
0.000178488
0.000179301
0.000180071
0.0001808
0.00018149
8.0496e-05
9.56943e-05
0.000113544
0.000134785
0.000159571
0.000187136
0.000216178
0.000245376
0.000273762
0.000300929
0.000326973
0.000352281
0.000377306
0.000402393
0.000427707
0.00045324
0.000478871
0.000504442
0.000529823
0.000554946
0.000579812
0.000604473
0.000629002
0.000653473
0.000677941
0.000702444
0.000727005
0.000751641
0.000776375
0.000801235
0.000826253
0.000851458
0.000876869
0.000902489
0.000928298
0.000954258
0.000980305
0.00100636
0.00103233
0.0010581
0.00108354
0.00110854
0.00113296
0.00115665
0.00117948
0.00120133
0.00122206
0.00124158
0.0012598
0.00127665
0.00129209
0.0013061
0.00131871
0.00132995
0.00133992
0.0013487
0.00135644
0.0013633
0.00136945
0.0013751
0.00138047
0.00138576
0.0013912
0.00139701
0.0014034
0.00141056
0.00141867
0.00142788
0.00143831
0.00145008
0.00146326
0.00147789
0.00149399
0.00151156
0.00153057
0.00155097
0.00157269
0.00159564
0.00161971
0.00164478
0.00167074
0.00169743
0.00172472
0.00175246
0.0017805
0.0018087
0.00183692
0.00186501
0.00189283
0.00192026
0.00194716
0.00197341
0.0019989
0.0020235
0.00204711
0.0020696
0.00209085
0.002111
0.00212792
0.00215449
6.88006e-05
7.06335e-05
7.33901e-05
7.7507e-05
8.35122e-05
9.19439e-05
0.000103265
0.000117779
0.000135552
0.000156386
0.000179847
0.000205335
0.000232176
0.000259723
0.000287433
0.000314921
0.000341978
0.000368548
0.000394688
0.000420507
0.000446115
0.000471581
0.000496913
0.000522072
0.000546993
0.00057161
0.000595886
0.000619817
0.00064343
0.000666773
0.000689901
0.00071286
0.000735681
0.000758377
0.000780945
0.000803366
0.000825605
0.000847618
0.000869349
0.000890731
0.000911688
0.000932134
0.00095198
0.000971129
0.000989487
0.00100696
0.00102347
0.00103894
0.00105332
0.00106658
0.00107868
0.00108966
0.00109955
0.00110841
0.00111633
0.00112345
0.00112989
0.00113582
0.00114144
0.00114692
0.00115247
0.0011583
0.00116461
0.00117158
0.00117939
0.00118821
0.00119818
0.00120941
0.001222
0.00123603
0.00125153
0.00126853
0.00128704
0.00130704
0.0013285
0.00135136
0.00137556
0.00140101
0.00142762
0.00145527
0.00148385
0.00151323
0.00154326
0.00157381
0.00160474
0.00163589
0.00166712
0.00169829
0.00172925
0.00175987
0.00179
0.00181952
0.0018483
0.00187621
0.00190313
0.00192894
0.00195349
0.00197696
0.001997
0.0020279
0.000108996
0.000107177
0.000105283
0.000103565
0.000102065
0.000100842
0.000100025
9.98219e-05
0.000100527
0.00010251
0.000106187
0.000111976
0.000120242
0.000131263
0.000145193
0.000162035
0.000181633
0.000203675
0.000227713
0.000253209
0.000279601
0.000306361
0.000333057
0.000359384
0.000385169
0.000410349
0.000434935
0.000458972
0.000482512
0.000505587
0.00052821
0.000550379
0.00057208
0.000593303
0.000614038
0.000634278
0.000654018
0.00067325
0.00069196
0.000710123
0.000727709
0.000744678
0.000760985
0.000776583
0.000791423
0.000805462
0.000818664
0.000831002
0.000842463
0.000853053
0.000862794
0.000871731
0.000879932
0.000887484
0.000894499
0.000901106
0.000907452
0.000913697
0.000920008
0.000926558
0.000933516
0.000941048
0.000949307
0.000958433
0.00096855
0.000979764
0.000992161
0.00100581
0.00102076
0.00103706
0.00105472
0.00107375
0.00109416
0.00111593
0.00113904
0.00116346
0.00118915
0.00121605
0.00124409
0.00127319
0.00130327
0.00133421
0.0013659
0.00139821
0.00143102
0.00146418
0.00149755
0.00153099
0.00156434
0.00159746
0.00163021
0.00166245
0.00169402
0.00172481
0.00175466
0.00178346
0.00181102
0.00183757
0.00186051
0.00189561
0.000251128
0.000245514
0.000240005
0.000234582
0.000229403
0.000224405
0.000219473
0.000214487
0.000209334
0.000203931
0.000198249
0.000192341
0.000186369
0.00018061
0.000175445
0.000171332
0.000168753
0.000168166
0.000169964
0.000174431
0.000181722
0.000191852
0.000204695
0.000219993
0.000237383
0.000256428
0.000276664
0.00029764
0.000318959
0.000340294
0.000361405
0.000382129
0.000402364
0.000422057
0.00044118
0.00045972
0.000477666
0.00049501
0.000511739
0.000527839
0.000543298
0.000558102
0.000572242
0.00058571
0.000598506
0.000610633
0.000622105
0.000632944
0.000643185
0.000652875
0.000662075
0.000670862
0.000679326
0.00068757
0.000695708
0.000703862
0.000712157
0.000720721
0.000729672
0.000739127
0.000749184
0.000759934
0.000771447
0.000783781
0.000796978
0.000811069
0.000826076
0.000842013
0.000858894
0.000876732
0.000895542
0.000915343
0.000936156
0.000958005
0.000980915
0.00100491
0.00103
0.0010562
0.0010835
0.00111188
0.0011413
0.0011717
0.00120302
0.00123516
0.00126801
0.00130145
0.00133534
0.00136955
0.00140391
0.00143829
0.00147252
0.00150644
0.00153989
0.00157273
0.00160479
0.00163593
0.00166594
0.00169509
0.0017205
0.00175939
0.000427008
0.000419806
0.000412781
0.000405914
0.000399294
0.000392915
0.000386736
0.000380696
0.000374709
0.000368672
0.000362464
0.000355951
0.000348999
0.000341483
0.000333308
0.00032443
0.000314879
0.000304779
0.000294362
0.000283964
0.000273999
0.000264923
0.000257189
0.000251196
0.00024726
0.00024559
0.00024628
0.000249312
0.000254567
0.000261846
0.00027089
0.000281406
0.000293089
0.000305645
0.000318803
0.00033233
0.000346031
0.00035975
0.000373371
0.000386806
0.000399997
0.000412906
0.000425512
0.000437811
0.000449811
0.000461532
0.000473005
0.000484273
0.000495387
0.000506407
0.000517402
0.000528445
0.00053961
0.000550974
0.000562608
0.000574577
0.000586935
0.000599724
0.000612972
0.000626689
0.000640874
0.00065551
0.00067057
0.000686024
0.000701836
0.000717974
0.000734414
0.000751141
0.000768157
0.000785477
0.000803137
0.000821189
0.0008397
0.000858753
0.000878443
0.000898868
0.000920129
0.000942323
0.000965536
0.000989836
0.00101527
0.00104187
0.00106963
0.00109851
0.00112845
0.00115938
0.00119117
0.0012237
0.00125681
0.00129035
0.00132415
0.00135803
0.0013918
0.00142528
0.00145829
0.00149066
0.00152214
0.00155302
0.00158015
0.00162197
0.000592136
0.000584334
0.000576748
0.000569369
0.00056222
0.000555301
0.000548599
0.000542096
0.000535762
0.000529558
0.000523432
0.00051732
0.000511149
0.000504831
0.000498273
0.000491377
0.000484042
0.000476179
0.000467717
0.000458612
0.000448867
0.000438534
0.000427726
0.000416616
0.000405435
0.000394453
0.000383969
0.00037428
0.000365666
0.000358364
0.000352555
0.000348356
0.000345819
0.000344938
0.000345654
0.000347872
0.000351469
0.000356311
0.000362258
0.000369177
0.000376947
0.000385463
0.000394638
0.000404403
0.000414707
0.000425514
0.000436803
0.000448563
0.000460788
0.000473479
0.000486636
0.000500258
0.000514336
0.000528855
0.000543789
0.000559103
0.000574747
0.000590663
0.000606783
0.000623032
0.000639331
0.000655602
0.000671767
0.000687757
0.000703515
0.000718993
0.000734161
0.000749006
0.000763535
0.000777775
0.000791773
0.000805598
0.000819338
0.000833105
0.000847024
0.000861239
0.000875907
0.000891189
0.000907251
0.000924253
0.000942343
0.00096165
0.000982274
0.00100429
0.00102772
0.00105257
0.00107879
0.0011063
0.00113498
0.00116469
0.00119525
0.00122649
0.00125819
0.00129015
0.00132215
0.00135398
0.00138534
0.00141653
0.0014442
0.00148745
0.000730233
0.000722623
0.000715185
0.000707923
0.000700846
0.000693955
0.000687245
0.00068071
0.000674341
0.000668124
0.000662042
0.000656073
0.000650191
0.000644363
0.000638554
0.000632721
0.000626821
0.000620803
0.000614616
0.000608209
0.000601536
0.000594557
0.000587248
0.000579602
0.000571633
0.000563385
0.00055493
0.000546369
0.000537831
0.000529464
0.000521435
0.000513913
0.000507065
0.000501048
0.000495999
0.00049203
0.000489229
0.000487654
0.000487337
0.00048829
0.000490501
0.000493946
0.000498586
0.000504376
0.000511264
0.000519196
0.000528111
0.000537949
0.000548645
0.00056013
0.000572332
0.000585173
0.00059857
0.000612436
0.000626678
0.000641198
0.0006559
0.000670683
0.00068545
0.000700107
0.000714565
0.000728745
0.000742575
0.000755994
0.000768953
0.000781415
0.000793358
0.00080477
0.000815653
0.000826024
0.000835911
0.000845358
0.000854424
0.00086318
0.000871718
0.000880144
0.000888584
0.00089718
0.000906095
0.000915502
0.00092559
0.000936548
0.000948567
0.000961821
0.000976467
0.000992629
0.00101039
0.0010298
0.00105085
0.00107348
0.00109759
0.00112305
0.00114967
0.00117725
0.00120557
0.00123439
0.00126337
0.0012928
0.00131925
0.00136159
0.00083535
0.000828704
0.000822143
0.000815674
0.00080931
0.000803055
0.000796911
0.00079088
0.00078496
0.000779151
0.000773448
0.000767846
0.000762338
0.000756917
0.000751574
0.000746299
0.00074108
0.000735906
0.000730761
0.000725631
0.0007205
0.000715352
0.000710171
0.000704944
0.000699665
0.000694331
0.000688951
0.000683542
0.000678136
0.000672779
0.000667529
0.000662457
0.000657645
0.000653184
0.00064917
0.000645697
0.000642858
0.000640739
0.000639417
0.000638955
0.000639402
0.000640793
0.000643148
0.000646471
0.00065075
0.000655963
0.000662072
0.00066903
0.000676778
0.000685248
0.000694366
0.000704051
0.000714216
0.00072477
0.000735624
0.000746685
0.000757863
0.000769072
0.00078023
0.00079126
0.000802096
0.000812675
0.000822946
0.000832867
0.000842403
0.000851529
0.000860229
0.000868493
0.00087632
0.000883714
0.000890688
0.000897257
0.000903446
0.000909284
0.000914807
0.00092006
0.000925098
0.000929986
0.000934808
0.000939662
0.000944667
0.000949963
0.00095571
0.000962086
0.000969281
0.000977493
0.00098691
0.000997705
0.00101003
0.00102397
0.00103961
0.00105694
0.0010759
0.00109641
0.00111829
0.00114137
0.00116535
0.00119045
0.00121354
0.00125174
0.000908385
0.000903187
0.000897986
0.000892794
0.000887622
0.000882476
0.000877365
0.000872294
0.000867266
0.000862286
0.000857357
0.000852479
0.000847656
0.000842888
0.000838177
0.000833526
0.000828937
0.000824412
0.000819955
0.000815568
0.000811254
0.000807017
0.000802859
0.000798783
0.000794792
0.000790891
0.000787085
0.000783383
0.000779797
0.000776343
0.000773044
0.000769926
0.000767021
0.00076437
0.000762014
0.00076
0.000758377
0.000757194
0.000756499
0.000756334
0.000756739
0.000757745
0.000759374
0.00076164
0.000764547
0.000768089
0.000772248
0.000776998
0.000782304
0.000788121
0.0007944
0.000801084
0.000808112
0.000815422
0.000822947
0.000830623
0.000838388
0.000846179
0.000853941
0.000861622
0.000869175
0.000876559
0.00088374
0.000890691
0.00089739
0.00090382
0.000909974
0.000915845
0.000921436
0.000926748
0.000931792
0.000936576
0.000941115
0.000945422
0.000949514
0.000953407
0.00095712
0.000960674
0.000964091
0.000967402
0.000970642
0.000973859
0.000977116
0.000980492
0.000984091
0.000988037
0.000992481
0.00099759
0.00100355
0.00101053
0.00101872
0.00102827
0.0010393
0.00105186
0.00106598
0.00108162
0.00109864
0.00111722
0.00113496
0.00116562
0.000954645
0.000950982
0.000947262
0.000943494
0.000939685
0.000935845
0.000931979
0.000928094
0.000924195
0.00092029
0.000916382
0.000912475
0.000908576
0.000904689
0.000900819
0.000896971
0.000893153
0.000889372
0.000885635
0.000881951
0.000878331
0.000874784
0.000871319
0.000867949
0.000864684
0.000861533
0.00085851
0.000855624
0.000852887
0.000850313
0.000847915
0.000845708
0.00084371
0.000841937
0.000840411
0.000839153
0.000838186
0.000837531
0.000837213
0.000837251
0.000837666
0.000838472
0.000839683
0.000841305
0.00084334
0.000845784
0.000848628
0.000851856
0.000855446
0.000859372
0.000863603
0.000868102
0.000872832
0.000877752
0.00088282
0.000887995
0.000893236
0.000898502
0.000903758
0.000908968
0.000914103
0.000919136
0.000924045
0.000928811
0.00093342
0.000937863
0.000942135
0.000946234
0.000950163
0.000953925
0.000957531
0.00096099
0.000964316
0.000967522
0.000970625
0.00097364
0.000976582
0.000979467
0.000982308
0.000985116
0.000987903
0.000990678
0.000993452
0.000996238
0.000999055
0.00100193
0.00100491
0.00100806
0.00101146
0.00101522
0.00101948
0.00102438
0.00103008
0.00103673
0.00104448
0.00105343
0.00106363
0.00107528
0.001087
0.00110816
0.000981282
0.00097893
0.000976503
0.000974007
0.000971447
0.000968826
0.000966149
0.000963423
0.00096065
0.000957836
0.000954986
0.000952104
0.000949194
0.000946263
0.000943314
0.000940355
0.000937392
0.000934431
0.000931482
0.000928554
0.000925655
0.000922798
0.000919992
0.00091725
0.000914584
0.000912006
0.000909529
0.000907166
0.00090493
0.000902832
0.000900886
0.000899104
0.000897498
0.000896082
0.000894867
0.000893867
0.000893092
0.000892555
0.000892267
0.000892237
0.000892474
0.000892984
0.000893772
0.00089484
0.000896186
0.000897807
0.000899694
0.000901836
0.00090422
0.000906827
0.000909639
0.000912631
0.00091578
0.00091906
0.000922444
0.000925904
0.000929415
0.000932951
0.000936486
0.000939999
0.000943469
0.000946878
0.00095021
0.000953452
0.000956596
0.000959633
0.000962559
0.000965375
0.00096808
0.00097068
0.000973181
0.000975594
0.000977928
0.0009802
0.000982423
0.000984616
0.000986796
0.000988983
0.000991196
0.000993452
0.000995768
0.000998159
0.00100064
0.0010032
0.00100587
0.00100863
0.00101148
0.00101443
0.00101748
0.00102065
0.00102396
0.00102746
0.00103122
0.00103533
0.00103989
0.00104503
0.00105087
0.00105754
0.00106457
0.00107733
0.000995179
0.00099377
0.000992296
0.000990758
0.000989157
0.000987496
0.000985776
0.000983999
0.000982168
0.000980285
0.000978353
0.000976376
0.000974357
0.000972298
0.000970205
0.000968082
0.000965933
0.000963765
0.000961583
0.000959395
0.00095721
0.000955034
0.000952879
0.000950752
0.000948666
0.000946631
0.000944658
0.000942758
0.000940944
0.000939227
0.000937618
0.000936129
0.00093477
0.000933552
0.000932485
0.000931579
0.000930842
0.000930282
0.000929905
0.000929719
0.000929727
0.000929932
0.000930337
0.000930941
0.000931742
0.000932736
0.000933917
0.000935278
0.000936809
0.000938497
0.000940329
0.00094229
0.000944363
0.000946533
0.00094878
0.000951088
0.000953437
0.00095581
0.000958191
0.000960564
0.000962913
0.000965227
0.000967492
0.0009697
0.000971843
0.000973914
0.000975909
0.000977826
0.000979666
0.00098143
0.000983123
0.00098475
0.00098632
0.000987844
0.000989335
0.000990807
0.000992277
0.000993764
0.000995288
0.000996871
0.000998534
0.0010003
0.00100219
0.00100423
0.00100643
0.0010088
0.00101135
0.00101408
0.00101699
0.00102007
0.00102331
0.0010267
0.00103023
0.0010339
0.00103774
0.00104177
0.00104605
0.00105062
0.00105534
0.00106336
0.00100172
0.0010009
0.00100003
0.000999113
0.00099815
0.000997139
0.000996081
0.000994976
0.000993824
0.000992627
0.000991385
0.000990099
0.000988772
0.000987404
0.000985999
0.000984558
0.000983085
0.000981584
0.000980059
0.000978514
0.000976955
0.000975387
0.000973818
0.000972254
0.000970704
0.000969175
0.000967676
0.000966216
0.000964804
0.00096345
0.000962164
0.000960954
0.00095983
0.000958801
0.000957875
0.000957061