/*--------------------------------*- C++ -*----------------------------------*\
| =========                 |                                                 |
| \\      /  F ield         | OpenFOAM: The Open Source CFD Toolbox           |
|  \\    /   O peration     | Version:  4.1                                   |
|   \\  /    A nd           | Web:      www.OpenFOAM.org                      |
|    \\/     M anipulation  |                                                 |
\*---------------------------------------------------------------------------*/
FoamFile
{
    version     2.0;
    format      ascii;
    class       volScalarField;
    location    "700";
    object      p;
}
// * * * * * * * * * * * * * * * * * * * * * * * * * * * * * * * * * * * * * //

dimensions      [0 2 -2 0 0 0 0];

internalField   nonuniform List<scalar> 
6820
(
-7.89262
-8.69236
-9.15286
-9.2977
-9.37626
-9.45057
-9.51041
-9.556
-9.59471
-9.6302
-9.663
-9.69333
-9.72167
-9.74843
-9.77386
-9.79815
-9.82148
-9.844
-9.86589
-9.88729
-9.90836
-9.92922
-9.95005
-9.97098
-9.99219
-10.0139
-10.0362
-10.0595
-10.0838
-10.1101
-10.1368
-10.1706
-10.1858
-9.56633
-9.73211
-9.7177
-9.63814
-9.59589
-9.59264
-9.6027
-9.61627
-9.63357
-9.65436
-9.67706
-9.70044
-9.72401
-9.74751
-9.77075
-9.79359
-9.81598
-9.83794
-9.85951
-9.88076
-9.90178
-9.92266
-9.94353
-9.96452
-9.98577
-10.0074
-10.0297
-10.0528
-10.077
-10.1029
-10.1306
-10.1639
-10.2053
-9.54476
-9.35669
-9.33809
-9.37256
-9.41437
-9.46263
-9.50915
-9.54965
-9.58616
-9.62053
-9.65295
-9.68335
-9.71196
-9.73907
-9.76488
-9.78953
-9.81318
-9.83599
-9.85812
-9.87972
-9.90092
-9.92186
-9.9427
-9.96357
-9.98463
-10.006
-10.028
-10.0506
-10.0743
-10.0994
-10.1262
-10.157
-10.1887
-9.46262
-9.36024
-9.40968
-9.47032
-9.50375
-9.53426
-9.5658
-9.59463
-9.62143
-9.64768
-9.6735
-9.69859
-9.72295
-9.74664
-9.76972
-9.7922
-9.81414
-9.8356
-9.85666
-9.87741
-9.89795
-9.91836
-9.93875
-9.95923
-9.97992
-10.0009
-10.0225
-10.0446
-10.0676
-10.0916
-10.1168
-10.1438
-10.1704
-9.45509
-9.4152
-9.44738
-9.48512
-9.50732
-9.5322
-9.56137
-9.58971
-9.61663
-9.64315
-9.66931
-9.6948
-9.71953
-9.74355
-9.7669
-9.78961
-9.81173
-9.83332
-9.85446
-9.87525
-9.89577
-9.91612
-9.9364
-9.95671
-9.97716
-9.99785
-10.0189
-10.0404
-10.0626
-10.0854
-10.1089
-10.133
-10.1564
-9.46428
-9.44418
-9.46011
-9.48988
-9.5138
-9.5392
-9.56752
-9.59519
-9.62155
-9.64737
-9.67277
-9.69753
-9.72157
-9.74495
-9.7677
-9.78986
-9.81147
-9.8326
-9.85332
-9.87372
-9.89386
-9.91385
-9.93375
-9.95367
-9.97368
-9.99387
-10.0143
-10.0351
-10.0562
-10.0778
-10.0995
-10.1213
-10.1422
-9.47371
-9.46255
-9.47366
-9.49995
-9.52393
-9.54786
-9.57399
-9.60016
-9.62547
-9.65033
-9.67484
-9.69884
-9.72224
-9.74504
-9.7673
-9.78902
-9.81025
-9.83103
-9.85144
-9.87154
-9.89139
-9.91108
-9.93066
-9.95021
-9.9698
-9.98949
-10.0093
-10.0293
-10.0495
-10.0698
-10.09
-10.1099
-10.1287
-9.48381
-9.47873
-9.48838
-9.51084
-9.53325
-9.55561
-9.57992
-9.60476
-9.6291
-9.65309
-9.6768
-9.70009
-9.72286
-9.74512
-9.76688
-9.78816
-9.80899
-9.8294
-9.84946
-9.86921
-9.88872
-9.90805
-9.92725
-9.94637
-9.96548
-9.98461
-10.0038
-10.023
-10.0422
-10.0613
-10.0801
-10.0983
-10.1155
-9.4947
-9.49335
-9.50214
-9.52125
-9.542
-9.56313
-9.58591
-9.60944
-9.63278
-9.65586
-9.67875
-9.70131
-9.72344
-9.74512
-9.76636
-9.78717
-9.80756
-9.82757
-9.84724
-9.86662
-9.88575
-9.90468
-9.92346
-9.94213
-9.96072
-9.97925
-9.99772
-10.0161
-10.0344
-10.0524
-10.0699
-10.0868
-10.1027
-9.50586
-9.50657
-9.51483
-9.53143
-9.55059
-9.57052
-9.59189
-9.61414
-9.63645
-9.65864
-9.68069
-9.70251
-9.72398
-9.74507
-9.76577
-9.78608
-9.80601
-9.82559
-9.84485
-9.86382
-9.88254
-9.90105
-9.91937
-9.93755
-9.95559
-9.97349
-9.99126
-10.0088
-10.0262
-10.0431
-10.0596
-10.0753
-10.0901
-9.51695
-9.51872
-9.52664
-9.54133
-9.55895
-9.57771
-9.59779
-9.61881
-9.6401
-9.66139
-9.68263
-9.7037
-9.7245
-9.74498
-9.76512
-9.78492
-9.80437
-9.82349
-9.84231
-9.86085
-9.87912
-9.89718
-9.91502
-9.93267
-9.95013
-9.96741
-9.98447
-10.0013
-10.0177
-10.0337
-10.0492
-10.0639
-10.0777
-9.52776
-9.53005
-9.53765
-9.55086
-9.56705
-9.58466
-9.60355
-9.62342
-9.6437
-9.66411
-9.68453
-9.70486
-9.72498
-9.74485
-9.76442
-9.78369
-9.80264
-9.82129
-9.83964
-9.85771
-9.87553
-9.8931
-9.91043
-9.92754
-9.94441
-9.96105
-9.9774
-9.99343
-10.0091
-10.0242
-10.0388
-10.0526
-10.0656
-9.53817
-9.54066
-9.54792
-9.55994
-9.57485
-9.59135
-9.60914
-9.62792
-9.64724
-9.66677
-9.68639
-9.70598
-9.72543
-9.74467
-9.76366
-9.78238
-9.80082
-9.81898
-9.83684
-9.85444
-9.87176
-9.88883
-9.90563
-9.92218
-9.93847
-9.95446
-9.97012
-9.98542
-10.0003
-10.0146
-10.0284
-10.0414
-10.0536
-9.54808
-9.55061
-9.55751
-9.56855
-9.58232
-9.59777
-9.61453
-9.63229
-9.65067
-9.66935
-9.68818
-9.70703
-9.72581
-9.74442
-9.76283
-9.781
-9.79891
-9.81655
-9.83392
-9.85102
-9.86784
-9.88438
-9.90065
-9.91664
-9.93232
-9.94768
-9.96267
-9.97726
-9.99139
-10.005
-10.018
-10.0303
-10.0419
-9.55745
-9.55993
-9.56645
-9.57666
-9.58941
-9.60388
-9.61968
-9.63649
-9.65396
-9.67181
-9.68987
-9.708
-9.72611
-9.7441
-9.76191
-9.77952
-9.7969
-9.81402
-9.83087
-9.84746
-9.86376
-9.87978
-9.8955
-9.91091
-9.926
-9.94073
-9.95508
-9.96899
-9.98243
-9.99533
-10.0076
-10.0193
-10.0303
-9.56625
-9.56863
-9.57477
-9.58425
-9.59611
-9.60967
-9.62456
-9.64047
-9.65708
-9.67413
-9.69144
-9.70887
-9.72631
-9.74367
-9.7609
-9.77795
-9.79478
-9.81137
-9.8277
-9.84376
-9.85954
-9.87502
-9.89019
-9.90504
-9.91953
-9.93365
-9.94737
-9.96064
-9.97343
-9.98568
-9.99736
-10.0084
-10.0188
-9.57446
-9.57671
-9.58248
-9.59132
-9.60237
-9.61509
-9.62914
-9.64421
-9.66
-9.67628
-9.69286
-9.7096
-9.72639
-9.74313
-9.75977
-9.77625
-9.79254
-9.80859
-9.8244
-9.83993
-9.85518
-9.87012
-9.88474
-9.89902
-9.91294
-9.92647
-9.93957
-9.95223
-9.9644
-9.97604
-9.98713
-9.99764
-10.0075
-9.58205
-9.58417
-9.58959
-9.59785
-9.60818
-9.62013
-9.63339
-9.64767
-9.6627
-9.67823
-9.69411
-9.71018
-9.72632
-9.74246
-9.75852
-9.77444
-9.79017
-9.80569
-9.82097
-9.83597
-9.85068
-9.86509
-9.87916
-9.89289
-9.90623
-9.91918
-9.93171
-9.94378
-9.95536
-9.96643
-9.97697
-9.98694
-9.99634
-9.589
-9.59101
-9.59609
-9.60383
-9.61351
-9.62475
-9.63728
-9.65083
-9.66512
-9.67996
-9.69516
-9.71058
-9.7261
-9.74165
-9.75713
-9.77249
-9.78768
-9.80266
-9.81741
-9.83188
-9.84607
-9.85994
-9.87347
-9.88665
-9.89944
-9.91183
-9.92379
-9.9353
-9.94633
-9.95686
-9.96687
-9.97635
-9.98528
-9.59532
-9.59721
-9.60198
-9.60924
-9.61834
-9.62894
-9.64079
-9.65365
-9.66726
-9.68143
-9.69598
-9.71078
-9.7257
-9.74066
-9.75558
-9.77039
-9.78505
-9.7995
-9.81372
-9.82767
-9.84133
-9.85468
-9.86768
-9.88032
-9.89258
-9.90442
-9.91584
-9.92681
-9.93731
-9.94733
-9.95684
-9.96585
-9.97434
-9.60098
-9.60276
-9.60725
-9.61407
-9.62265
-9.63265
-9.64388
-9.6561
-9.66908
-9.68262
-9.69656
-9.71076
-9.7251
-9.7395
-9.75387
-9.76814
-9.78227
-9.7962
-9.80991
-9.82335
-9.83649
-9.84932
-9.8618
-9.87392
-9.88565
-9.89698
-9.90788
-9.91833
-9.92833
-9.93786
-9.9469
-9.95545
-9.96351
-9.60597
-9.60764
-9.61187
-9.61831
-9.6264
-9.63587
-9.64653
-9.65816
-9.67055
-9.6835
-9.69686
-9.71049
-9.72428
-9.73814
-9.75198
-9.76573
-9.77935
-9.79277
-9.80597
-9.81891
-9.83155
-9.84387
-9.85585
-9.86746
-9.87869
-9.88951
-9.89991
-9.90988
-9.91939
-9.92845
-9.93704
-9.94516
-9.95282
-9.61026
-9.61185
-9.61584
-9.62192
-9.62958
-9.63856
-9.64871
-9.6598
-9.67164
-9.68404
-9.69686
-9.70996
-9.72323
-9.73657
-9.7499
-9.76315
-9.77627
-9.7892
-9.80191
-9.81436
-9.82651
-9.83834
-9.84983
-9.86096
-9.8717
-9.88204
-9.89196
-9.90146
-9.91051
-9.91912
-9.92728
-9.93499
-9.94225
-9.61386
-9.61536
-9.61913
-9.62489
-9.63216
-9.64071
-9.65038
-9.66098
-9.67232
-9.68423
-9.69654
-9.70914
-9.72192
-9.73477
-9.74762
-9.76039
-9.77304
-9.7855
-9.79773
-9.80971
-9.82139
-9.83275
-9.84377
-9.85443
-9.8647
-9.87458
-9.88404
-9.89309
-9.90171
-9.90989
-9.91764
-9.92495
-9.93182
-9.61672
-9.61814
-9.62172
-9.62718
-9.6341
-9.64226
-9.65152
-9.66168
-9.67257
-9.68402
-9.69588
-9.70802
-9.72034
-9.73273
-9.74513
-9.75745
-9.76964
-9.78165
-9.79344
-9.80496
-9.81619
-9.8271
-9.83767
-9.84788
-9.85771
-9.86714
-9.87617
-9.88479
-9.89299
-9.90077
-9.90812
-9.91505
-9.92155
-9.61884
-9.62019
-9.62358
-9.62878
-9.63539
-9.6432
-9.65209
-9.66187
-9.67236
-9.68339
-9.69484
-9.70657
-9.71847
-9.73045
-9.74242
-9.75432
-9.76609
-9.77767
-9.78903
-9.80013
-9.81093
-9.82141
-9.83155
-9.84133
-9.85074
-9.85975
-9.86837
-9.87658
-9.88438
-9.89176
-9.89874
-9.9053
-9.91145
-9.62017
-9.62146
-9.62468
-9.62964
-9.63597
-9.64349
-9.65205
-9.6615
-9.67164
-9.68233
-9.69341
-9.70477
-9.7163
-9.7279
-9.73949
-9.751
-9.76238
-9.77356
-9.78452
-9.79522
-9.80562
-9.8157
-9.82544
-9.83482
-9.84382
-9.85244
-9.86066
-9.86849
-9.87591
-9.88293
-9.88954
-9.89575
-9.90156
-9.62071
-9.62193
-9.62499
-9.62972
-9.63581
-9.64307
-9.65137
-9.66055
-9.67041
-9.6808
-9.69157
-9.70262
-9.71382
-9.72508
-9.73633
-9.74748
-9.7585
-9.76932
-9.77991
-9.79023
-9.80026
-9.80996
-9.81932
-9.82831
-9.83694
-9.84519
-9.85304
-9.8605
-9.86756
-9.87422
-9.88049
-9.88637
-9.89186
-9.62043
-9.62158
-9.62446
-9.62898
-9.63484
-9.64191
-9.65001
-9.65897
-9.66861
-9.67877
-9.6893
-9.70009
-9.71101
-9.72199
-9.73294
-9.7438
-9.7545
-9.765
-9.77525
-9.78524
-9.79492
-9.80428
-9.81329
-9.82194
-9.83022
-9.83812
-9.84563
-9.85275
-9.85948
-9.86581
-9.87175
-9.87731
-9.88249
-9.61929
-9.62036
-9.62305
-9.62733
-9.63301
-9.63994
-9.64791
-9.65673
-9.66622
-9.67622
-9.68657
-9.69715
-9.70786
-9.71859
-9.72928
-9.73986
-9.75027
-9.76047
-9.77042
-9.78009
-9.78945
-9.79848
-9.80716
-9.81549
-9.82344
-9.83101
-9.8382
-9.845
-9.85141
-9.85744
-9.86308
-9.86834
-9.87323
-9.6173
-9.61825
-9.62068
-9.6247
-9.63024
-9.63709
-9.645
-9.65376
-9.6632
-9.67313
-9.68341
-9.6939
-9.70448
-9.71507
-9.72559
-9.73597
-9.74618
-9.75615
-9.76585
-9.77527
-9.78436
-9.79312
-9.80152
-9.80955
-9.81722
-9.82449
-9.83139
-9.8379
-9.84402
-9.84975
-9.8551
-9.86007
-9.86466
-9.61447
-9.61523
-9.61726
-9.62095
-9.62639
-9.63329
-9.64125
-9.65003
-9.65945
-9.66934
-9.67952
-9.68988
-9.70031
-9.71072
-9.72105
-9.73122
-9.7412
-9.75094
-9.76041
-9.76958
-9.77842
-9.78693
-9.79507
-9.80285
-9.81026
-9.81728
-9.82392
-9.83017
-9.83604
-9.84153
-9.84664
-9.85138
-9.85577
-9.61089
-9.61131
-9.61266
-9.61589
-9.62128
-9.62835
-9.63657
-9.6457
-9.65551
-9.66575
-9.67622
-9.68679
-9.69735
-9.70783
-9.71815
-9.72827
-9.73815
-9.74775
-9.75704
-9.76601
-9.77463
-9.78289
-9.79078
-9.7983
-9.80543
-9.81218
-9.81854
-9.82451
-9.8301
-9.8353
-9.84012
-9.84456
-9.84861
-9.6068
-9.60644
-9.60659
-9.60942
-9.61502
-9.62207
-9.62999
-9.63878
-9.64835
-9.65841
-9.66873
-9.67919
-9.68967
-9.70009
-9.71037
-9.72045
-9.73029
-9.73984
-9.74909
-9.75801
-9.76658
-9.77478
-9.7826
-9.79004
-9.79709
-9.80375
-9.81002
-9.8159
-9.82139
-9.8265
-9.83124
-9.83562
-9.83966
-9.60287
-9.60067
-9.59788
-9.60029
-9.60785
-9.61749
-9.62774
-9.63845
-9.64947
-9.66055
-9.67152
-9.68234
-9.69296
-9.70334
-9.71345
-9.72327
-9.73277
-9.74194
-9.75077
-9.75925
-9.76736
-9.77511
-9.78247
-9.78945
-9.79605
-9.80227
-9.8081
-9.81354
-9.8186
-9.82329
-9.82759
-9.8315
-9.83501
-9.60032
-9.59522
-9.58773
-9.58551
-9.5882
-9.59386
-9.60206
-9.61225
-9.62349
-9.63515
-9.64697
-9.65882
-9.67055
-9.68204
-9.69322
-9.70407
-9.71454
-9.72461
-9.73428
-9.74352
-9.75233
-9.76071
-9.76866
-9.77618
-9.78326
-9.78992
-9.79615
-9.80196
-9.80737
-9.81237
-9.81699
-9.82125
-9.82518
-9.60075
-9.58086
-9.5837
-9.60352
-9.62032
-9.63127
-9.64115
-9.6516
-9.66193
-9.67177
-9.68129
-9.69064
-9.69982
-9.70879
-9.71754
-9.72607
-9.73436
-9.74239
-9.75014
-9.75759
-9.76475
-9.77158
-9.77809
-9.78426
-9.79009
-9.79557
-9.80071
-9.80549
-9.80993
-9.81401
-9.81773
-9.82108
-9.82404
-9.63822
-9.51498
-9.45189
-9.45556
-9.47795
-9.4997
-9.52103
-9.54279
-9.56394
-9.58382
-9.60243
-9.61989
-9.63625
-9.6516
-9.666
-9.67954
-9.69227
-9.70425
-9.71552
-9.72613
-9.73609
-9.74545
-9.75422
-9.76242
-9.77009
-9.77723
-9.78387
-9.79001
-9.79568
-9.80089
-9.80567
-9.81003
-9.81399
-9.79812
-9.81128
-9.76997
-9.72781
-9.70384
-9.69332
-9.68882
-9.68687
-9.68701
-9.68921
-9.69304
-9.69794
-9.70356
-9.70968
-9.71616
-9.72284
-9.72962
-9.73641
-9.74313
-9.74974
-9.75617
-9.76241
-9.76841
-9.77415
-9.77962
-9.78479
-9.78966
-9.79422
-9.79846
-9.80238
-9.80598
-9.80926
-9.8122
-8.63387
-8.9342
-9.19923
-9.32517
-9.39015
-9.44625
-9.49577
-9.53413
-9.56382
-9.58872
-9.61056
-9.62984
-9.647
-9.66249
-9.67668
-9.68977
-9.7019
-9.71319
-9.72372
-9.73357
-9.74277
-9.75138
-9.75943
-9.76693
-9.77392
-9.78041
-9.78642
-9.79197
-9.79706
-9.80172
-9.80596
-9.80978
-9.8132
-10.2738
-10.1757
-10.2255
-10.28
-10.3046
-10.3199
-10.331
-10.3357
-10.335
-10.331
-10.3261
-10.3221
-10.3208
-10.3237
-10.3318
-10.3459
-10.3661
-10.3922
-10.4239
-10.4601
-10.4998
-10.5417
-10.5847
-10.6274
-10.6687
-10.7074
-10.7426
-10.7732
-10.7984
-10.8171
-10.8287
-10.8323
-10.8271
-10.8123
-10.7872
-10.7511
-10.7034
-10.6434
-10.5706
-10.4846
-10.3849
-10.2713
-10.1435
-10.0015
-9.8452
-9.67475
-9.4903
-9.29217
-9.08077
-8.85666
-8.62052
-8.37314
-8.11545
-7.84846
-7.57333
-7.29125
-7.00353
-6.7115
-6.41654
-6.12004
-5.82339
-5.52795
-5.23504
-4.94592
-4.66176
-4.38365
-4.11257
-3.84939
-3.59486
-3.3496
-3.11412
-2.8888
-2.67388
-2.46955
-2.27584
-2.09274
-1.92014
-1.75784
-1.60558
-1.46307
-1.32992
-1.20576
-1.09015
-0.98265
-0.882825
-0.790222
-0.704395
-0.624914
-0.551349
-0.483296
-0.420341
-0.362122
-0.308182
-0.258281
-0.211582
-0.168656
-0.126266
-0.0906111
-0.0435014
-0.0295962
-10.2705
-10.265
-10.2932
-10.3128
-10.3085
-10.2988
-10.2911
-10.2842
-10.2776
-10.2725
-10.2694
-10.2693
-10.2728
-10.2808
-10.2937
-10.312
-10.3355
-10.364
-10.3969
-10.4335
-10.4729
-10.514
-10.5558
-10.5972
-10.6371
-10.6745
-10.7084
-10.7377
-10.7616
-10.7792
-10.7896
-10.792
-10.7857
-10.7699
-10.744
-10.7071
-10.6587
-10.5983
-10.5252
-10.439
-10.3394
-10.226
-10.0987
-9.95744
-9.8021
-9.63281
-9.44976
-9.25324
-9.0437
-8.82165
-8.58778
-8.34286
-8.08779
-7.82359
-7.55136
-7.27228
-6.98761
-6.69867
-6.40679
-6.11334
-5.81966
-5.5271
-5.23693
-4.9504
-4.66864
-4.39274
-4.12365
-3.86224
-3.60925
-3.3653
-3.13089
-2.90641
-2.69214
-2.48823
-2.29476
-2.11173
-1.93902
-1.77648
-1.62385
-1.48084
-1.34712
-1.22229
-1.10595
-0.997669
-0.897021
-0.803565
-0.716864
-0.636493
-0.562029
-0.493069
-0.429204
-0.370067
-0.315201
-0.264371
-0.216706
-0.172863
-0.129334
-0.0931431
-0.0435559
-0.0330538
-10.2288
-10.2349
-10.2401
-10.2529
-10.2602
-10.2644
-10.2684
-10.2709
-10.2705
-10.2683
-10.2655
-10.2635
-10.2638
-10.2677
-10.2764
-10.2903
-10.31
-10.3352
-10.3656
-10.4004
-10.4386
-10.479
-10.5203
-10.5613
-10.6007
-10.6375
-10.6704
-10.6987
-10.7215
-10.7378
-10.747
-10.7483
-10.7409
-10.7241
-10.6972
-10.6596
-10.6107
-10.5498
-10.4765
-10.3903
-10.2909
-10.178
-10.0513
-9.91089
-9.75666
-9.58872
-9.40726
-9.21259
-9.00511
-8.78535
-8.55398
-8.31175
-8.05955
-7.79836
-7.52924
-7.25337
-6.97196
-6.6863
-6.39768
-6.10743
-5.81687
-5.52731
-5.23999
-4.95614
-4.67687
-4.40324
-4.1362
-3.8766
-3.62517
-3.38255
-3.14923
-2.9256
-2.71195
-2.50846
-2.31522
-2.13221
-1.95937
-1.79654
-1.64349
-1.49994
-1.36557
-1.24002
-1.12288
-1.01376
-0.912217
-0.817839
-0.730194
-0.648864
-0.573431
-0.503496
-0.438652
-0.378532
-0.322676
-0.270851
-0.222166
-0.177334
-0.132649
-0.0957671
-0.043905
-0.0361764
-10.2018
-10.2186
-10.2298
-10.247
-10.2594
-10.2644
-10.266
-10.2655
-10.2631
-10.2599
-10.2574
-10.2567
-10.2587
-10.2643
-10.2741
-10.2883
-10.3071
-10.3303
-10.3576
-10.3884
-10.422
-10.4575
-10.494
-10.5304
-10.5658
-10.599
-10.6292
-10.6552
-10.6761
-10.691
-10.6991
-10.6993
-10.6911
-10.6735
-10.646
-10.6079
-10.5586
-10.4975
-10.4241
-10.3381
-10.239
-10.1267
-10.0009
-9.86153
-9.70862
-9.54224
-9.36259
-9.16996
-8.96476
-8.74751
-8.51885
-8.27951
-8.03037
-7.77237
-7.50655
-7.23406
-6.95606
-6.67381
-6.38858
-6.10166
-5.81434
-5.52788
-5.24352
-4.96244
-4.68575
-4.41447
-4.14956
-3.89185
-3.64206
-3.40082
-3.16865
-2.94592
-2.73294
-2.5299
-2.33689
-2.15394
-1.98096
-1.81783
-1.66434
-1.52023
-1.38518
-1.25886
-1.14088
-1.03086
-0.928374
-0.833016
-0.744366
-0.662014
-0.585549
-0.514576
-0.448689
-0.387523
-0.330614
-0.277731
-0.22797
-0.182079
-0.136216
-0.0985014
-0.0445607
-0.0389249
-10.1823
-10.2016
-10.214
-10.2272
-10.2371
-10.2416
-10.2438
-10.2451
-10.2455
-10.2453
-10.2455
-10.2469
-10.2504
-10.2566
-10.2663
-10.28
-10.2977
-10.3195
-10.3451
-10.374
-10.4054
-10.4385
-10.4724
-10.506
-10.5384
-10.5685
-10.5953
-10.618
-10.6357
-10.6476
-10.6528
-10.6506
-10.6403
-10.621
-10.5921
-10.553
-10.5029
-10.4414
-10.368
-10.2821
-10.1835
-10.0718
-9.947
-9.80885
-9.65741
-9.49275
-9.31507
-9.12464
-8.92188
-8.70729
-8.48149
-8.24519
-7.99925
-7.74458
-7.4822
-7.2132
-6.93875
-6.66005
-6.37834
-6.09487
-5.81091
-5.52769
-5.24642
-4.96825
-4.69426
-4.42548
-4.16283
-3.90712
-3.6591
-3.41937
-3.18845
-2.96673
-2.75452
-2.55201
-2.35931
-2.17646
-2.00341
-1.84002
-1.68612
-1.54145
-1.40574
-1.27865
-1.15981
-1.04886
-0.945401
-0.849024
-0.759325
-0.675903
-0.598354
-0.526287
-0.4593
-0.397029
-0.33901
-0.285008
-0.234117
-0.1871
-0.140038
-0.101349
-0.0455583
-0.041228
-10.1646
-10.184
-10.1976
-10.2101
-10.2204
-10.227
-10.2312
-10.234
-10.2356
-10.2364
-10.2374
-10.2394
-10.2433
-10.2497
-10.2592
-10.2723
-10.289
-10.3092
-10.3328
-10.3593
-10.3879
-10.4179
-10.4486
-10.4789
-10.508
-10.535
-10.5588
-10.5787
-10.5938
-10.6032
-10.6061
-10.6018
-10.5895
-10.5685
-10.538
-10.4976
-10.4465
-10.3842
-10.3102
-10.2242
-10.1257
-10.0145
-9.89047
-9.75341
-9.60334
-9.44035
-9.26461
-9.07641
-8.87612
-8.66423
-8.44135
-8.20818
-7.96552
-7.71427
-7.45543
-7.19005
-6.91926
-6.64423
-6.36617
-6.0863
-5.80584
-5.52601
-5.24797
-4.97285
-4.70172
-4.43558
-4.17533
-3.92178
-3.67566
-3.43757
-3.20803
-2.98744
-2.77611
-2.57424
-2.38196
-2.19931
-2.02626
-1.86269
-1.70844
-1.56329
-1.42695
-1.29911
-1.17945
-1.06758
-0.963138
-0.86573
-0.774962
-0.690442
-0.611774
-0.538573
-0.470442
-0.407017
-0.347838
-0.292665
-0.240595
-0.192391
-0.14411
-0.104311
-0.0469243
-0.0430242
-10.1488
-10.1675
-10.1818
-10.1941
-10.2044
-10.2117
-10.2166
-10.2201
-10.2226
-10.2246
-10.2267
-10.2298
-10.2344
-10.2413
-10.2508
-10.2634
-10.2791
-10.2979
-10.3196
-10.3438
-10.3698
-10.3971
-10.4247
-10.452
-10.4779
-10.5017
-10.5224
-10.5393
-10.5514
-10.558
-10.5584
-10.5516
-10.5372
-10.5142
-10.4821
-10.4403
-10.3881
-10.325
-10.2505
-10.1643
-10.0659
-9.95516
-9.83182
-9.69579
-9.54706
-9.3857
-9.21189
-9.02589
-8.82806
-8.6189
-8.39897
-8.16895
-7.92964
-7.68189
-7.42666
-7.16499
-6.89796
-6.62671
-6.35241
-6.07625
-5.79942
-5.52308
-5.24839
-4.97645
-4.70829
-4.44489
-4.18715
-3.93586
-3.69173
-3.45537
-3.2273
-3.00791
-2.79754
-2.59639
-2.4046
-2.22222
-2.04923
-1.88555
-1.73101
-1.58542
-1.4485
-1.31998
-1.19951
-1.08677
-0.981369
-0.882946
-0.791115
-0.705494
-0.625695
-0.551341
-0.482039
-0.417428
-0.35705
-0.300664
-0.247375
-0.197929
-0.148415
-0.10738
-0.0486643
-0.0442786
-10.1339
-10.1518
-10.1662
-10.1784
-10.1887
-10.1965
-10.2023
-10.2067
-10.2101
-10.2131
-10.2162
-10.2201
-10.2253
-10.2323
-10.2417
-10.2537
-10.2684
-10.2858
-10.3056
-10.3276
-10.3512
-10.3757
-10.4005
-10.4247
-10.4476
-10.4683
-10.486
-10.4999
-10.5091
-10.513
-10.5108
-10.5017
-10.485
-10.46
-10.4262
-10.3829
-10.3295
-10.2654
-10.1904
-10.1038
-10.0055
-9.89502
-9.77233
-9.63727
-9.48983
-9.33008
-9.15817
-8.97437
-8.77902
-8.5726
-8.35565
-8.12883
-7.89291
-7.64871
-7.39716
-7.13926
-6.87606
-6.60866
-6.33819
-6.06581
-5.79266
-5.51989
-5.2486
-4.97988
-4.71474
-4.45413
-4.19892
-3.94992
-3.70781
-3.47321
-3.24662
-3.02847
-2.81907
-2.61865
-2.42736
-2.24526
-2.07236
-1.90858
-1.75377
-1.60775
-1.47028
-1.34108
-1.21985
-1.10624
-0.999908
-0.900488
-0.807609
-0.720897
-0.639972
-0.564463
-0.493982
-0.428169
-0.366573
-0.308945
-0.254408
-0.203679
-0.152921
-0.110546
-0.050759
-0.0449917
-10.1197
-10.1367
-10.151
-10.1631
-10.1734
-10.1817
-10.1881
-10.1932
-10.1975
-10.2013
-10.2051
-10.2096
-10.2152
-10.2224
-10.2316
-10.2429
-10.2566
-10.2726
-10.2907
-10.3106
-10.3318
-10.3537
-10.3757
-10.397
-10.4169
-10.4347
-10.4494
-10.4604
-10.4669
-10.4682
-10.4634
-10.452
-10.4331
-10.4063
-10.3707
-10.3259
-10.2713
-10.2064
-10.1307
-10.0438
-9.94548
-9.83536
-9.71331
-9.57921
-9.43304
-9.27488
-9.10486
-8.92325
-8.73038
-8.52669
-8.31273
-8.08911
-7.85658
-7.61594
-7.36807
-7.11395
-6.85458
-6.59103
-6.32439
-6.05577
-5.78631
-5.51709
-5.2492
-4.9837
-4.72156
-4.46373
-4.21106
-3.96433
-3.72424
-3.49139
-3.26629
-3.04936
-2.84093
-2.64123
-2.45044
-2.26862
-2.0958
-1.9319
-1.77682
-1.63037
-1.49233
-1.36246
-1.24044
-1.12596
-1.01869
-0.918272
-0.824344
-0.73654
-0.654489
-0.577823
-0.50616
-0.439139
-0.376313
-0.31743
-0.261628
-0.209589
-0.157583
-0.113786
-0.0531585
-0.0452056
-10.1059
-10.1222
-10.1362
-10.1481
-10.1584
-10.167
-10.1739
-10.1796
-10.1846
-10.1891
-10.1936
-10.1985
-10.2044
-10.2116
-10.2205
-10.2313
-10.244
-10.2586
-10.275
-10.2929
-10.3117
-10.3311
-10.3504
-10.3689
-10.386
-10.4008
-10.4127
-10.4209
-10.4247
-10.4234
-10.4162
-10.4025
-10.3816
-10.3528
-10.3157
-10.2695
-10.2137
-10.1479
-10.0717
-9.98452
-9.88619
-9.77642
-9.65502
-9.52189
-9.37702
-9.22045
-9.05233
-8.87291
-8.68251
-8.48155
-8.27055
-8.05012
-7.82096
-7.58384
-7.33963
-7.08925
-6.83368
-6.57394
-6.3111
-6.04623
-5.78041
-5.51471
-5.2502
-4.98789
-4.72874
-4.47367
-4.22352
-3.97906
-3.74098
-3.50987
-3.28625
-3.07055
-2.86309
-2.66412
-2.47382
-2.29229
-2.11954
-1.95554
-1.80017
-1.65329
-1.51469
-1.38413
-1.26132
-1.14596
-1.03774
-0.936306
-0.841312
-0.752402
-0.66921
-0.591373
-0.518512
-0.45027
-0.386203
-0.32605
-0.26897
-0.215603
-0.162347
-0.117066
-0.0557817
-0.0450041
-10.0926
-10.1081
-10.1217
-10.1335
-10.1437
-10.1525
-10.1598
-10.166
-10.1715
-10.1765
-10.1815
-10.1868
-10.1929
-10.2001
-10.2086
-10.2187
-10.2304
-10.2437
-10.2584
-10.2743
-10.291
-10.308
-10.3247
-10.3405
-10.3548
-10.3668
-10.3759
-10.3814
-10.3826
-10.3787
-10.3692
-10.3533
-10.3303
-10.2998
-10.261
-10.2134
-10.1566
-10.09
-10.0132
-9.92579
-9.82751
-9.71811
-9.59739
-9.46525
-9.32167
-9.1667
-9.00048
-8.82324
-8.6353
-8.43705
-8.22899
-8.01172
-7.7859
-7.55228
-7.31169
-7.06501
-6.8132
-6.55723
-6.29815
-6.03698
-5.77477
-5.51258
-5.25141
-4.99226
-4.73608
-4.48376
-4.23612
-3.99392
-3.75785
-3.52849
-3.30636
-3.09188
-2.8854
-2.68717
-2.49739
-2.31615
-2.14349
-1.97939
-1.82376
-1.67645
-1.53729
-1.40604
-1.28245
-1.16621
-1.05703
-0.95458
-0.858512
-0.768482
-0.684134
-0.605109
-0.531034
-0.461552
-0.396223
-0.334781
-0.276406
-0.221688
-0.167181
-0.120367
-0.0585361
-0.0445097
-10.0796
-10.0943
-10.1075
-10.1191
-10.1293
-10.1382
-10.1458
-10.1524
-10.1582
-10.1637
-10.169
-10.1746
-10.1808
-10.1878
-10.1959
-10.2053
-10.216
-10.228
-10.2411
-10.2551
-10.2697
-10.2843
-10.2985
-10.3117
-10.3233
-10.3326
-10.3391
-10.3419
-10.3405
-10.3342
-10.3224
-10.3043
-10.2794
-10.247
-10.2067
-10.1579
-10.0999
-10.0325
-9.95522
-9.8676
-9.76941
-9.66038
-9.54034
-9.40919
-9.26691
-9.11354
-8.9492
-8.77413
-8.58862
-8.39306
-8.18792
-7.97377
-7.75125
-7.52109
-7.28408
-7.04107
-6.79297
-6.54075
-6.28538
-6.02788
-5.76926
-5.51053
-5.25268
-4.99668
-4.74345
-4.49386
-4.24872
-4.00878
-3.77471
-3.5471
-3.32647
-3.11323
-2.90774
-2.71027
-2.521
-2.34007
-2.16752
-2.00334
-1.84745
-1.69974
-1.56003
-1.42811
-1.30374
-1.18664
-1.07651
-0.973035
-0.875894
-0.784742
-0.699233
-0.619012
-0.543711
-0.472975
-0.40637
-0.343622
-0.283936
-0.227847
-0.172079
-0.12369
-0.061349
-0.0438724
-10.0669
-10.081
-10.0937
-10.105
-10.1151
-10.124
-10.1318
-10.1386
-10.1448
-10.1505
-10.1561
-10.1618
-10.168
-10.1748
-10.1825
-10.1911
-10.2008
-10.2115
-10.2231
-10.2353
-10.2477
-10.2601
-10.2719
-10.2826
-10.2916
-10.2984
-10.3022
-10.3025
-10.2986
-10.2899
-10.2758
-10.2556
-10.2288
-10.1947
-10.1529
-10.1027
-10.0438
-9.97562
-9.8978
-9.80998
-9.71186
-9.60322
-9.48387
-9.35371
-9.21271
-9.06092
-8.89846
-8.72553
-8.54243
-8.34952
-8.14727
-7.9362
-7.71695
-7.49021
-7.25673
-7.01735
-6.77293
-6.5244
-6.27271
-6.01884
-5.76377
-5.50848
-5.25392
-5.00105
-4.75075
-4.50388
-4.26124
-4.02356
-3.7915
-3.56564
-3.3465
-3.13451
-2.93003
-2.73332
-2.54459
-2.36398
-2.19155
-2.0273
-1.87118
-1.72307
-1.58283
-1.45025
-1.32511
-1.20715
-1.09608
-0.991598
-0.893388
-0.801119
-0.71445
-0.633032
-0.556503
-0.484509
-0.41662
-0.352558
-0.291551
-0.234077
-0.177042
-0.127051
-0.0641725
-0.0432372
-10.0545
-10.0679
-10.0801
-10.0911
-10.1011
-10.1099
-10.1178
-10.1248
-10.1312
-10.1371
-10.1428
-10.1486
-10.1546
-10.1611
-10.1683
-10.1762
-10.1849
-10.1943
-10.2044
-10.2148
-10.2253
-10.2355
-10.245
-10.2533
-10.2598
-10.264
-10.2653
-10.2631
-10.2568
-10.2458
-10.2295
-10.2073
-10.1786
-10.1428
-10.0995
-10.0481
-9.98818
-9.91925
-9.84096
-9.75294
-9.65491
-9.54665
-9.42798
-9.2988
-9.15908
-9.00885
-8.84823
-8.67742
-8.4967
-8.30642
-8.10701
-7.899
-7.68297
-7.4596
-7.22961
-6.99381
-6.75302
-6.50815
-6.2601
-6.00983
-5.75827
-5.50639
-5.2551
-5.00533
-4.75795
-4.51379
-4.27364
-4.0382
-3.80815
-3.58405
-3.36641
-3.15568
-2.95221
-2.75628
-2.5681
-2.38783
-2.21553
-2.05123
-1.89488
-1.74639
-1.60563
-1.47241
-1.34651
-1.2277
-1.1157
-1.01021
-0.91094
-0.817557
-0.72973
-0.647117
-0.56936
-0.496105
-0.426932
-0.361551
-0.29922
-0.240357
-0.182051
-0.130449
-0.066966
-0.0427069
-10.0423
-10.055
-10.0668
-10.0775
-10.0872
-10.096
-10.1039
-10.1109
-10.1174
-10.1234
-10.1292
-10.1349
-10.1407
-10.1469
-10.1535
-10.1607
-10.1684
-10.1765
-10.1851
-10.1938
-10.2024
-10.2105
-10.2177
-10.2237
-10.2278
-10.2296
-10.2285
-10.2239
-10.2153
-10.202
-10.1836
-10.1593
-10.1288
-10.0914
-10.0467
-9.99406
-9.93314
-9.86349
-9.78473
-9.69653
-9.5986
-9.49072
-9.37272
-9.24451
-9.10604
-8.95735
-8.79856
-8.62984
-8.45146
-8.26376
-8.06716
-7.86215
-7.6493
-7.42925
-7.20271
-6.97044
-6.73324
-6.49198
-6.24753
-6.00081
-5.75274
-5.50422
-5.25618
-5.00949
-4.765
-4.52354
-4.28586
-4.05268
-3.82462
-3.60228
-3.38616
-3.1767
-2.97425
-2.77911
-2.5915
-2.41157
-2.23942
-2.07508
-1.91853
-1.76967
-1.6284
-1.49454
-1.3679
-1.24825
-1.13532
-1.02884
-0.928509
-0.834016
-0.745034
-0.661227
-0.582241
-0.507727
-0.437267
-0.370567
-0.306912
-0.246658
-0.187076
-0.133866
-0.06969
-0.0423316
-10.0302
-10.0424
-10.0537
-10.0641
-10.0735
-10.0822
-10.0899
-10.097
-10.1035
-10.1095
-10.1152
-10.1208
-10.1264
-10.1321
-10.1382
-10.1445
-10.1512
-10.1581
-10.1652
-10.1723
-10.179
-10.1851
-10.1902
-10.1939
-10.1958
-10.1952
-10.1917
-10.1848
-10.1739
-10.1585
-10.138
-10.1118
-10.0795
-10.0405
-9.99439
-9.9406
-9.87873
-9.80838
-9.72917
-9.64079
-9.54296
-9.43546
-9.31813
-9.19086
-9.05363
-8.90646
-8.74946
-8.5828
-8.40673
-8.22157
-8.02773
-7.82568
-7.61596
-7.39919
-7.17604
-6.94725
-6.71359
-6.47589
-6.23499
-5.99179
-5.74715
-5.50197
-5.25714
-5.0135
-4.7719
-4.53311
-4.2979
-4.06695
-3.8409
-3.62032
-3.40571
-3.19752
-2.9961
-2.80177
-2.61473
-2.43517
-2.26319
-2.09883
-1.94207
-1.79287
-1.6511
-1.51663
-1.38925
-1.26877
-1.15492
-1.04745
-0.946067
-0.850467
-0.760332
-0.675333
-0.59512
-0.519345
-0.447599
-0.37958
-0.314598
-0.252954
-0.192089
-0.137286
-0.0723155
-0.0421237
-10.0183
-10.03
-10.0408
-10.0508
-10.06
-10.0684
-10.0761
-10.083
-10.0894
-10.0953
-10.1009
-10.1063
-10.1116
-10.1169
-10.1223
-10.1278
-10.1335
-10.1392
-10.1449
-10.1503
-10.1553
-10.1595
-10.1625
-10.1641
-10.1637
-10.1608
-10.1551
-10.146
-10.1329
-10.1153
-10.0928
-10.0648
-10.0308
-9.99024
-9.94274
-9.8878
-9.82501
-9.75397
-9.67433
-9.58578
-9.48805
-9.38093
-9.26425
-9.13793
-9.00191
-8.85623
-8.70099
-8.53635
-8.36254
-8.17989
-7.98876
-7.78961
-7.58297
-7.36942
-7.14962
-6.92425
-6.69407
-6.45988
-6.22249
-5.98275
-5.74151
-5.49963
-5.25797
-5.01736
-4.77861
-4.54248
-4.30972
-4.081
-3.85694
-3.63812
-3.42504
-3.21812
-3.01775
-2.82422
-2.63778
-2.4586
-2.2868
-2.12243
-1.96549
-1.81595
-1.6737
-1.53862
-1.41052
-1.28922
-1.17447
-1.06601
-0.963585
-0.866885
-0.775603
-0.689414
-0.607975
-0.530941
-0.457908
-0.38857
-0.32226
-0.25923
-0.197072
-0.140694
-0.0748305
-0.0420761
-10.0066
-10.0177
-10.0281
-10.0377
-10.0466
-10.0548
-10.0622
-10.069
-10.0753
-10.081
-10.0864
-10.0915
-10.0964
-10.1011
-10.1059
-10.1106
-10.1153
-10.1198
-10.1241
-10.128
-10.1312
-10.1336
-10.1347
-10.1341
-10.1316
-10.1266
-10.1187
-10.1074
-10.0922
-10.0726
-10.0481
-10.0183
-9.98262
-9.94059
-9.89177
-9.83572
-9.77203
-9.70033
-9.62027
-9.53156
-9.43393
-9.32718
-9.21115
-9.08575
-8.95092
-8.80671
-8.65319
-8.49053
-8.31895
-8.13874
-7.95028
-7.75399
-7.55037
-7.33999
-7.12346
-6.90146
-6.67471
-6.44397
-6.21003
-5.9737
-5.73582
-5.4972
-5.25868
-5.02106
-4.78512
-4.55164
-4.32131
-4.0948
-3.87273
-3.65567
-3.4441
-3.23847
-3.03915
-2.84644
-2.6606
-2.48181
-2.3102
-2.14584
-1.98874
-1.83888
-1.69617
-1.56049
-1.43169
-1.30957
-1.19393
-1.0845
-0.981039
-0.883245
-0.79082
-0.703447
-0.620786
-0.542496
-0.468178
-0.397523
-0.329887
-0.265473
-0.202014
-0.144084
-0.0772367
-0.0421721
-9.99507
-10.0056
-10.0155
-10.0248
-10.0333
-10.0412
-10.0484
-10.055
-10.061
-10.0665
-10.0716
-10.0764
-10.0808
-10.0851
-10.0891
-10.093
-10.0966
-10.1
-10.103
-10.1053
-10.1069
-10.1075
-10.1067
-10.1042
-10.0996
-10.0925
-10.0825
-10.0691
-10.0519
-10.0303
-10.004
-9.97242
-9.93512
-9.89164
-9.84154
-9.78441
-9.71986
-9.64752
-9.56706
-9.4782
-9.38067
-9.27429
-9.15889
-9.03439
-8.90073
-8.75795
-8.60613
-8.44541
-8.276
-8.0982
-7.91234
-7.71884
-7.51819
-7.31091
-7.0976
-6.87891
-6.65552
-6.42818
-6.19763
-5.96466
-5.73008
-5.49467
-5.25924
-5.02458
-4.79144
-4.56056
-4.33264
-4.10833
-3.88825
-3.67293
-3.46288
-3.25853
-3.06026
-2.86839
-2.68316
-2.50478
-2.33337
-2.16903
-2.01179
-1.86162
-1.71846
-1.5822
-1.45271
-1.3298
-1.21327
-1.10289
-0.998397
-0.89952
-0.805961
-0.717409
-0.633532
-0.553991
-0.478393
-0.406425
-0.337465
-0.271674
-0.206907
-0.14745
-0.0795436
-0.0423893
-9.98364
-9.99369
-10.0031
-10.012
-10.0201
-10.0277
-10.0346
-10.0409
-10.0467
-10.0519
-10.0567
-10.061
-10.065
-10.0687
-10.072
-10.075
-10.0777
-10.0799
-10.0815
-10.0825
-10.0825
-10.0813
-10.0787