/*--------------------------------*- C++ -*----------------------------------*\
| =========                 |                                                 |
| \\      /  F ield         | OpenFOAM: The Open Source CFD Toolbox           |
|  \\    /   O peration     | Version:  4.1                                   |
|   \\  /    A nd           | Web:      www.OpenFOAM.org                      |
|    \\/     M anipulation  |                                                 |
\*---------------------------------------------------------------------------*/
FoamFile
{
    version     2.0;
    format      ascii;
    class       volVectorField;
    location    "700";
    object      U;
}
// * * * * * * * * * * * * * * * * * * * * * * * * * * * * * * * * * * * * * //

dimensions      [0 1 -1 0 0 0 0];

internalField   nonuniform List<vector> 
6820
(
(7.316 -0.463593 0)
(7.31112 -0.449228 0)
(7.26524 -0.315604 0)
(7.17901 -0.205424 0)
(7.0746 -0.128572 0)
(6.9648 -0.077103 0)
(6.85439 -0.0428601 0)
(6.74603 -0.0199746 0)
(6.64164 -0.00469221 0)
(6.54233 0.00538085 0)
(6.44858 0.0118379 0)
(6.3606 0.0157723 0)
(6.27843 0.0179457 0)
(6.20198 0.0188948 0)
(6.13107 0.0190016 0)
(6.06546 0.0185397 0)
(6.00487 0.0177053 0)
(5.949 0.0166382 0)
(5.89755 0.0154372 0)
(5.85023 0.0141714 0)
(5.80674 0.0128882 0)
(5.76681 0.0116186 0)
(5.73019 0.0103822 0)
(5.69665 0.0091894 0)
(5.66599 0.00804428 0)
(5.63802 0.00694512 0)
(5.61261 0.00588744 0)
(5.58962 0.00485647 0)
(5.56904 0.00386013 0)
(5.55046 0.00284045 0)
(5.53516 0.00184236 0)
(5.5179 0.00204131 0)
(5.51413 -0.00577728 0)
(7.3428 0.124512 0)
(7.36544 0.2109 0)
(7.37961 0.198762 0)
(7.39309 0.16575 0)
(7.41115 0.136351 0)
(7.43029 0.112976 0)
(7.44612 0.0949389 0)
(7.45691 0.0813154 0)
(7.46262 0.0710195 0)
(7.46358 0.0631086 0)
(7.46021 0.0569112 0)
(7.45298 0.0519655 0)
(7.44242 0.0479431 0)
(7.42904 0.0446062 0)
(7.41334 0.0417835 0)
(7.39573 0.0393512 0)
(7.3766 0.0372188 0)
(7.35631 0.0353197 0)
(7.33515 0.0336038 0)
(7.31339 0.0320329 0)
(7.29123 0.0305774 0)
(7.26888 0.0292134 0)
(7.2465 0.027921 0)
(7.22422 0.0266826 0)
(7.20217 0.0254819 0)
(7.18044 0.0243019 0)
(7.15914 0.0231266 0)
(7.13832 0.0219292 0)
(7.11812 0.0207167 0)
(7.09851 0.0193632 0)
(7.07992 0.0182474 0)
(7.06218 0.0161759 0)
(7.04818 0.0172498 0)
(7.32611 0.00484873 0)
(7.3195 -0.0105567 0)
(7.32606 -0.0225816 0)
(7.33745 -0.0194461 0)
(7.34972 -0.00944194 0)
(7.36204 0.000516448 0)
(7.37361 0.00882196 0)
(7.38404 0.015618 0)
(7.39341 0.0210852 0)
(7.4018 0.0253628 0)
(7.40919 0.0286274 0)
(7.41556 0.0310597 0)
(7.42092 0.0328137 0)
(7.42532 0.0340154 0)
(7.42879 0.0347697 0)
(7.43139 0.035164 0)
(7.43318 0.0352709 0)
(7.43424 0.0351492 0)
(7.43462 0.0348462 0)
(7.43439 0.0343996 0)
(7.43363 0.0338387 0)
(7.4324 0.0331854 0)
(7.43076 0.0324556 0)
(7.42878 0.0316593 0)
(7.42651 0.0308013 0)
(7.42402 0.0298805 0)
(7.42136 0.0288919 0)
(7.41859 0.0278185 0)
(7.41579 0.0266516 0)
(7.413 0.0253235 0)
(7.41043 0.0238591 0)
(7.40802 0.0218744 0)
(7.40617 0.0193898 0)
(7.32909 -0.00529055 0)
(7.32382 0.00299055 0)
(7.32882 0.01477 0)
(7.33556 0.024418 0)
(7.34147 0.0307507 0)
(7.34759 0.0341978 0)
(7.35396 0.0359701 0)
(7.36023 0.0369631 0)
(7.3663 0.0375303 0)
(7.37221 0.0377854 0)
(7.37789 0.0378 0)
(7.38329 0.0376346 0)
(7.38839 0.0373322 0)
(7.39317 0.0369225 0)
(7.39763 0.036428 0)
(7.40178 0.035867 0)
(7.40562 0.0352542 0)
(7.40916 0.0346006 0)
(7.41243 0.0339142 0)
(7.41544 0.0332003 0)
(7.41822 0.0324614 0)
(7.4208 0.0316981 0)
(7.42319 0.0309082 0)
(7.42542 0.0300869 0)
(7.42752 0.0292266 0)
(7.42953 0.0283157 0)
(7.43145 0.0273393 0)
(7.43334 0.026272 0)
(7.43522 0.0250891 0)
(7.43712 0.023718 0)
(7.43911 0.0221262 0)
(7.44109 0.0199944 0)
(7.44314 0.0173956 0)
(7.3315 -0.00137218 0)
(7.32877 0.00833402 0)
(7.33145 0.0159154 0)
(7.33547 0.0198342 0)
(7.33933 0.0227654 0)
(7.34375 0.0252334 0)
(7.34857 0.0272004 0)
(7.35339 0.0287966 0)
(7.35812 0.0301017 0)
(7.36279 0.0311247 0)
(7.36737 0.0318807 0)
(7.37183 0.0324018 0)
(7.37614 0.0327202 0)
(7.38029 0.0328629 0)
(7.38429 0.0328538 0)
(7.38813 0.0327148 0)
(7.39182 0.0324653 0)
(7.39535 0.0321213 0)
(7.39874 0.0316959 0)
(7.40201 0.0311994 0)
(7.40516 0.0306388 0)
(7.40821 0.0300184 0)
(7.41117 0.0293395 0)
(7.41406 0.0286002 0)
(7.41689 0.0277948 0)
(7.41969 0.0269137 0)
(7.42247 0.0259424 0)
(7.42524 0.0248575 0)
(7.42803 0.0236301 0)
(7.43084 0.0222028 0)
(7.43369 0.0205244 0)
(7.4365 0.0184308 0)
(7.43922 0.0159573 0)
(7.33229 0.00073327 0)
(7.33091 0.00775938 0)
(7.33278 0.0134446 0)
(7.33607 0.0171927 0)
(7.33943 0.0206261 0)
(7.34313 0.023632 0)
(7.34713 0.0259319 0)
(7.35116 0.027669 0)
(7.35513 0.0290084 0)
(7.35908 0.0300147 0)
(7.363 0.0307278 0)
(7.36685 0.0311922 0)
(7.37061 0.0314485 0)
(7.37428 0.0315288 0)
(7.37786 0.03146 0)
(7.38134 0.0312654 0)
(7.38472 0.0309645 0)
(7.38801 0.0305733 0)
(7.39122 0.0301042 0)
(7.39436 0.0295664 0)
(7.39742 0.0289661 0)
(7.40043 0.0283061 0)
(7.40339 0.0275866 0)
(7.40632 0.0268042 0)
(7.40923 0.0259523 0)
(7.41212 0.02502 0)
(7.41501 0.0239919 0)
(7.4179 0.0228451 0)
(7.42081 0.0215508 0)
(7.42373 0.0200633 0)
(7.42664 0.0183373 0)
(7.42948 0.0162833 0)
(7.43218 0.0139072 0)
(7.3326 0.00133018 0)
(7.33197 0.00685657 0)
(7.33361 0.012165 0)
(7.33658 0.016136 0)
(7.33969 0.0195062 0)
(7.34299 0.0223137 0)
(7.34652 0.0244517 0)
(7.35012 0.0260703 0)
(7.35368 0.0273216 0)
(7.35723 0.0282665 0)
(7.36076 0.02894 0)
(7.36424 0.0293813 0)
(7.36765 0.0296267 0)
(7.371 0.0297053 0)
(7.37428 0.029641 0)
(7.37749 0.0294547 0)
(7.38063 0.0291635 0)
(7.38371 0.0287816 0)
(7.38672 0.0283198 0)
(7.38969 0.027786 0)
(7.39261 0.0271849 0)
(7.39549 0.0265189 0)
(7.39834 0.0257872 0)
(7.40118 0.024986 0)
(7.404 0.0241083 0)
(7.40681 0.0231435 0)
(7.40963 0.0220767 0)
(7.41245 0.0208876 0)
(7.41526 0.0195507 0)
(7.41807 0.0180317 0)
(7.42085 0.0162964 0)
(7.42353 0.0142967 0)
(7.42606 0.0120396 0)
(7.3328 0.00159497 0)
(7.33264 0.00641884 0)
(7.33413 0.0113103 0)
(7.33679 0.0151154 0)
(7.33969 0.0182321 0)
(7.34276 0.0208422 0)
(7.34603 0.0228972 0)
(7.34938 0.0244805 0)
(7.35271 0.0257064 0)
(7.35602 0.0266332 0)
(7.35931 0.0272961 0)
(7.36255 0.027732 0)
(7.36575 0.0279749 0)
(7.36888 0.0280526 0)
(7.37196 0.0279879 0)
(7.37498 0.0278004 0)
(7.37794 0.0275063 0)
(7.38085 0.0271189 0)
(7.38371 0.0266483 0)
(7.38653 0.0261017 0)
(7.38931 0.0254836 0)
(7.39206 0.0247958 0)
(7.39479 0.0240374 0)
(7.39751 0.0232047 0)
(7.40021 0.022291 0)
(7.40291 0.0212864 0)
(7.4056 0.0201776 0)
(7.40829 0.0189474 0)
(7.41097 0.0175752 0)
(7.41361 0.0160361 0)
(7.4162 0.0143073 0)
(7.41869 0.0123646 0)
(7.42104 0.010219 0)
(7.33292 0.0017213 0)
(7.33306 0.0060523 0)
(7.33442 0.0104466 0)
(7.3368 0.0140154 0)
(7.33951 0.0169495 0)
(7.3424 0.0194268 0)
(7.34548 0.021417 0)
(7.34865 0.0229636 0)
(7.35182 0.0241587 0)
(7.35497 0.0250613 0)
(7.3581 0.0257076 0)
(7.36119 0.0261319 0)
(7.36424 0.0263663 0)
(7.36723 0.0264375 0)
(7.37016 0.0263671 0)
(7.37305 0.0261738 0)
(7.37588 0.0258729 0)
(7.37867 0.0254767 0)
(7.38141 0.0249948 0)
(7.38411 0.0244339 0)
(7.38679 0.023798 0)
(7.38943 0.0230887 0)
(7.39205 0.0223051 0)
(7.39465 0.0214436 0)
(7.39724 0.0204984 0)
(7.39982 0.0194605 0)
(7.40239 0.0183188 0)
(7.40494 0.0170594 0)
(7.40746 0.0156665 0)
(7.40994 0.0141233 0)
(7.41235 0.0124159 0)
(7.41466 0.0105342 0)
(7.41682 0.00849151 0)
(7.33299 0.00174134 0)
(7.33329 0.00567247 0)
(7.33456 0.00962213 0)
(7.3367 0.0129625 0)
(7.33922 0.0157363 0)
(7.34195 0.0180787 0)
(7.34486 0.0199832 0)
(7.34787 0.0214777 0)
(7.3509 0.0226351 0)
(7.35392 0.0235101 0)
(7.35693 0.0241375 0)
(7.35991 0.0245491 0)
(7.36285 0.0247745 0)
(7.36573 0.0248387 0)
(7.36857 0.0247624 0)
(7.37136 0.0245631 0)
(7.3741 0.0242552 0)
(7.37679 0.0238503 0)
(7.37944 0.0233573 0)
(7.38206 0.0227825 0)
(7.38464 0.0221297 0)
(7.38719 0.0214004 0)
(7.38972 0.0205939 0)
(7.39222 0.0197071 0)
(7.39471 0.0187349 0)
(7.39717 0.0176701 0)
(7.39962 0.0165036 0)
(7.40203 0.0152248 0)
(7.40441 0.0138226 0)
(7.40674 0.0122863 0)
(7.40899 0.0106088 0)
(7.41113 0.00878805 0)
(7.41314 0.00683822 0)
(7.33302 0.00169438 0)
(7.33342 0.00529071 0)
(7.33461 0.00885845 0)
(7.33655 0.0119645 0)
(7.33889 0.0145721 0)
(7.34145 0.0167742 0)
(7.3442 0.0185822 0)
(7.34705 0.0200161 0)
(7.34995 0.0211306 0)
(7.35286 0.0219739 0)
(7.35576 0.0225792 0)
(7.35864 0.0229754 0)
(7.36148 0.0231896 0)
(7.36428 0.0232454 0)
(7.36704 0.023162 0)
(7.36975 0.0229559 0)
(7.37241 0.0226406 0)
(7.37503 0.022227 0)
(7.37761 0.0217233 0)
(7.38015 0.0211357 0)
(7.38265 0.0204677 0)
(7.38512 0.019721 0)
(7.38757 0.018895 0)
(7.38999 0.0179874 0)
(7.39238 0.0169942 0)
(7.39474 0.0159097 0)
(7.39708 0.0147269 0)
(7.39937 0.0134386 0)
(7.40162 0.0120372 0)
(7.40381 0.010517 0)
(7.40591 0.00887557 0)
(7.40791 0.00711522 0)
(7.40979 0.00525021 0)
(7.33304 0.00161057 0)
(7.33348 0.00491181 0)
(7.3346 0.00814443 0)
(7.33637 0.0110135 0)
(7.33854 0.0134506 0)
(7.34094 0.015513 0)
(7.34353 0.0172187 0)
(7.34624 0.0185834 0)
(7.34901 0.0196481 0)
(7.3518 0.0204541 0)
(7.3546 0.0210321 0)
(7.35738 0.0214087 0)
(7.36013 0.0216086 0)
(7.36285 0.0216533 0)
(7.36553 0.021561 0)
(7.36816 0.0213468 0)
(7.37076 0.0210234 0)
(7.37331 0.020601 0)
(7.37582 0.0200874 0)
(7.37829 0.0194883 0)
(7.38073 0.0188072 0)
(7.38313 0.018046 0)
(7.3855 0.0172045 0)
(7.38783 0.0162811 0)
(7.39014 0.0152729 0)
(7.39241 0.0141757 0)
(7.39464 0.0129849 0)
(7.39683 0.0116955 0)
(7.39896 0.0103034 0)
(7.40102 0.00880621 0)
(7.403 0.00720474 0)
(7.40488 0.00550369 0)
(7.40664 0.00371667 0)
(7.33304 0.00150762 0)
(7.3335 0.00453722 0)
(7.33455 0.00747074 0)
(7.33618 0.0101072 0)
(7.33819 0.0123723 0)
(7.34044 0.0142951 0)
(7.34288 0.0158936 0)
(7.34545 0.0171815 0)
(7.34809 0.0181895 0)
(7.35077 0.0189523 0)
(7.35346 0.019498 0)
(7.35614 0.0198506 0)
(7.3588 0.0200323 0)
(7.36144 0.020063 0)
(7.36404 0.0199594 0)
(7.3666 0.0197354 0)
(7.36913 0.019403 0)
(7.37161 0.0189715 0)
(7.37406 0.0184484 0)
(7.37646 0.017839 0)
(7.37883 0.0171469 0)
(7.38116 0.0163741 0)
(7.38346 0.0155209 0)
(7.38572 0.0145865 0)
(7.38794 0.013569 0)
(7.39012 0.0124657 0)
(7.39226 0.0112739 0)
(7.39434 0.00999076 0)
(7.39637 0.00861469 0)
(7.39832 0.00714573 0)
(7.40019 0.00558671 0)
(7.40196 0.00394355 0)
(7.40362 0.00222887 0)
(7.33305 0.0013957 0)
(7.3335 0.00416916 0)
(7.33449 0.00683161 0)
(7.33599 0.00924345 0)
(7.33785 0.0113359 0)
(7.33997 0.0131186 0)
(7.34226 0.0146063 0)
(7.3447 0.015811 0)
(7.34721 0.0167563 0)
(7.34977 0.0174707 0)
(7.35235 0.0179792 0)
(7.35494 0.0183034 0)
(7.35751 0.0184633 0)
(7.36006 0.0184769 0)
(7.36258 0.0183594 0)
(7.36507 0.0181239 0)
(7.36753 0.0177813 0)
(7.36994 0.0173403 0)
(7.37232 0.016808 0)
(7.37466 0.0161894 0)
(7.37696 0.0154882 0)
(7.37922 0.0147065 0)
(7.38145 0.0138452 0)
(7.38363 0.0129041 0)
(7.38577 0.0118825 0)
(7.38787 0.0107789 0)
(7.38991 0.00959214 0)
(7.3919 0.00832127 0)
(7.39382 0.00696645 0)
(7.39567 0.00552945 0)
(7.39744 0.00401432 0)
(7.39912 0.00242743 0)
(7.40069 0.000780335 0)
(7.33305 0.00128073 0)
(7.33348 0.00380979 0)
(7.33441 0.00622264 0)
(7.3358 0.00841887 0)
(7.33754 0.0103393 0)
(7.33952 0.0119816 0)
(7.34168 0.0133559 0)
(7.34399 0.0144726 0)
(7.34638 0.0153498 0)
(7.34883 0.0160109 0)
(7.3513 0.0164777 0)
(7.35379 0.0167694 0)
(7.35627 0.0169039 0)
(7.35874 0.0168974 0)
(7.36118 0.0167638 0)
(7.36359 0.016515 0)
(7.36597 0.0161611 0)
(7.36832 0.0157102 0)
(7.37063 0.0151689 0)
(7.3729 0.0145422 0)
(7.37513 0.0138336 0)
(7.37732 0.0130456 0)
(7.37947 0.0121794 0)
(7.38157 0.0112357 0)
(7.38363 0.0102145 0)
(7.38564 0.00911563 0)
(7.3876 0.00793901 0)
(7.3895 0.00668516 0)
(7.39133 0.00535557 0)
(7.39309 0.00395312 0)
(7.39476 0.00248253 0)
(7.39635 0.000950209 0)
(7.39785 -0.000633377 0)
(7.33304 0.00116605 0)
(7.33346 0.00346057 0)
(7.33433 0.00564041 0)
(7.33563 0.00763004 0)
(7.33724 0.00938029 0)
(7.3391 0.0108821 0)
(7.34114 0.0121411 0)
(7.34332 0.0131658 0)
(7.3456 0.0139705 0)
(7.34794 0.014574 0)
(7.35031 0.0149949 0)
(7.3527 0.0152504 0)
(7.35509 0.0153563 0)
(7.35747 0.0153269 0)
(7.35983 0.015175 0)
(7.36217 0.0149113 0)
(7.36447 0.0145451 0)
(7.36675 0.014084 0)
(7.36898 0.0135341 0)
(7.37118 0.0129003 0)
(7.37334 0.0121861 0)
(7.37546 0.0113941 0)
(7.37753 0.0105262 0)
(7.37956 0.00958343 0)
(7.38154 0.00856668 0)
(7.38347 0.00747667 0)
(7.38534 0.00631439 0)
(7.38715 0.00508136 0)
(7.38889 0.00377999 0)
(7.39056 0.00241385 0)
(7.39216 0.000987951 0)
(7.39366 -0.000491506 0)
(7.39508 -0.00201509 0)
(7.33304 0.00105346 0)
(7.33343 0.00312234 0)
(7.33425 0.00508224 0)
(7.33546 0.00687375 0)
(7.33697 0.00845638 0)
(7.33871 0.00981794 0)
(7.34064 0.0109604 0)
(7.3427 0.0118901 0)
(7.34487 0.0126185 0)
(7.3471 0.0131605 0)
(7.34937 0.013532 0)
(7.35167 0.0137478 0)
(7.35397 0.0138221 0)
(7.35626 0.0137674 0)
(7.35854 0.0135951 0)
(7.3608 0.0133152 0)
(7.36303 0.0129359 0)
(7.36523 0.0124644 0)
(7.3674 0.0119064 0)
(7.36952 0.0112665 0)
(7.37161 0.0105484 0)
(7.37365 0.00975475 0)
(7.37565 0.0088878 0)
(7.3776 0.0079492 0)
(7.37951 0.0069404 0)
(7.38135 0.00586288 0)
(7.38314 0.00471839 0)
(7.38487 0.00350919 0)
(7.38653 0.00223828 0)
(7.38812 0.000909621 0)
(7.38963 -0.000471753 0)
(7.39106 -0.00189997 0)
(7.39241 -0.00336655 0)
(7.33304 0.000943847 0)
(7.33341 0.00279536 0)
(7.33418 0.00454595 0)
(7.33531 0.00614703 0)
(7.33672 0.00756514 0)
(7.33836 0.00878709 0)
(7.34018 0.00981204 0)
(7.34213 0.0106445 0)
(7.34419 0.0112933 0)
(7.34632 0.0117705 0)
(7.3485 0.0120893 0)
(7.3507 0.0122626 0)
(7.35291 0.0123025 0)
(7.35512 0.0122203 0)
(7.35732 0.0120261 0)
(7.3595 0.0117286 0)
(7.36166 0.0113357 0)
(7.36378 0.0108537 0)
(7.36588 0.0102881 0)
(7.36793 0.00964324 0)
(7.36994 0.00892278 0)
(7.37191 0.00812965 0)
(7.37384 0.00726626 0)
(7.37571 0.00633469 0)
(7.37754 0.00533691 0)
(7.3793 0.00427495 0)
(7.38101 0.0031511 0)
(7.38266 0.00196811 0)
(7.38424 0.000729357 0)
(7.38575 -0.00056106 0)
(7.38719 -0.00189822 0)
(7.38855 -0.00327667 0)
(7.38983 -0.00468878 0)
(7.33304 0.000837589 0)
(7.33338 0.0024795 0)
(7.33411 0.00402966 0)
(7.33516 0.00544718 0)
(7.33649 0.00670409 0)
(7.33803 0.00778737 0)
(7.33975 0.00869431 0)
(7.34161 0.00942776 0)
(7.34356 0.00999443 0)
(7.3456 0.010404 0)
(7.34768 0.0106673 0)
(7.34979 0.0107953 0)
(7.35192 0.0107986 0)
(7.35405 0.0106869 0)
(7.35617 0.0104692 0)
(7.35827 0.0101533 0)
(7.36035 0.00974627 0)
(7.3624 0.00925388 0)
(7.36442 0.00868123 0)
(7.3664 0.00803252 0)
(7.36834 0.00731134 0)
(7.37024 0.00652068 0)
(7.37209 0.00566318 0)
(7.37389 0.00474123 0)
(7.37564 0.00375715 0)
(7.37733 0.00271335 0)
(7.37896 0.0016125 0)
(7.38053 0.000457655 0)
(7.38204 -0.000747648 0)
(7.38348 -0.00199931 0)
(7.38484 -0.00329263 0)
(7.38613 -0.00462259 0)
(7.38735 -0.00598236 0)
(7.33304 0.000734755 0)
(7.33336 0.00217433 0)
(7.33404 0.00353169 0)
(7.33503 0.00477172 0)
(7.33628 0.00587075 0)
(7.33773 0.00681655 0)
(7.33936 0.00760526 0)
(7.34112 0.00823832 0)
(7.34299 0.00872079 0)
(7.34493 0.00906026 0)
(7.34692 0.00926565 0)
(7.34895 0.00934618 0)
(7.35099 0.00931081 0)
(7.35304 0.00916802 0)
(7.35508 0.00892561 0)
(7.35711 0.00859057 0)
(7.35912 0.00816907 0)
(7.36109 0.00766648 0)
(7.36304 0.00708746 0)
(7.36495 0.00643602 0)
(7.36682 0.00571563 0)
(7.36864 0.00492932 0)
(7.37042 0.00407985 0)
(7.37215 0.00316981 0)
(7.37382 0.00220176 0)
(7.37544 0.00117837 0)
(7.377 0.000102511 0)
(7.37849 -0.00102262 0)
(7.37993 -0.00219344 0)
(7.38129 -0.00340598 0)
(7.38259 -0.00465581 0)
(7.38382 -0.00593835 0)
(7.38498 -0.00724748 0)
(7.33303 0.000635247 0)
(7.33334 0.00187924 0)
(7.33398 0.00305045 0)
(7.33491 0.00411835 0)
(7.33609 0.0050627 0)
(7.33746 0.00587233 0)
(7.339 0.00654282 0)
(7.34067 0.00707454 0)
(7.34245 0.00747115 0)
(7.34431 0.00773858 0)
(7.34622 0.00788403 0)
(7.34816 0.00791512 0)
(7.35013 0.00783943 0)
(7.3521 0.00766418 0)
(7.35406 0.00739609 0)
(7.35602 0.00704128 0)
(7.35795 0.00660522 0)
(7.35986 0.00609273 0)
(7.36173 0.00550808 0)
(7.36357 0.00485503 0)
(7.36537 0.00413689 0)
(7.36712 0.00335668 0)
(7.36883 0.0025172 0)
(7.37048 0.00162115 0)
(7.37208 0.000671199 0)
(7.37363 -0.000329848 0)
(7.37512 -0.00137902 0)
(7.37655 -0.00247311 0)
(7.37791 -0.0036086 0)
(7.37921 -0.00478169 0)
(7.38044 -0.0059883 0)
(7.38161 -0.00722426 0)
(7.38271 -0.00848409 0)
(7.33303 0.000538876 0)
(7.33332 0.00159351 0)
(7.33392 0.00258441 0)
(7.3348 0.00348491 0)
(7.33591 0.00427755 0)
(7.33721 0.00495235 0)
(7.33867 0.00550479 0)
(7.34027 0.00593445 0)
(7.34196 0.00624391 0)
(7.34374 0.0064377 0)
(7.34557 0.00652153 0)
(7.34743 0.00650163 0)
(7.34932 0.00638424 0)
(7.35122 0.00617545 0)
(7.35311 0.00588096 0)
(7.355 0.00550603 0)
(7.35686 0.00505545 0)
(7.35869 0.00453349 0)
(7.3605 0.003944 0)
(7.36227 0.00329046 0)
(7.364 0.00257601 0)
(7.36568 0.00180356 0)
(7.36732 0.000975883 0)
(7.3689 9.56864e-05 0)
(7.37044 -0.000834309 0)
(7.37191 -0.00181129 0)
(7.37333 -0.00283229 0)
(7.37469 -0.00389417 0)
(7.37599 -0.00499356 0)
(7.37723 -0.0061269 0)
(7.3784 -0.00729042 0)
(7.37951 -0.00848039 0)
(7.38055 -0.00969187 0)
(7.33303 0.000445409 0)
(7.3333 0.00131635 0)
(7.33387 0.00213211 0)
(7.3347 0.00286929 0)
(7.33575 0.00351288 0)
(7.33699 0.00405414 0)
(7.33838 0.00448876 0)
(7.3399 0.00481587 0)
(7.34152 0.00503715 0)
(7.34322 0.00515602 0)
(7.34497 0.00517691 0)
(7.34677 0.00510475 0)
(7.34858 0.00494462 0)
(7.35041 0.0047015 0)
(7.35223 0.00438013 0)
(7.35404 0.00398495 0)
(7.35584 0.00352006 0)
(7.35761 0.00298918 0)
(7.35934 0.00239574 0)
(7.36105 0.00174287 0)
(7.36271 0.0010335 0)
(7.36432 0.000270396 0)
(7.36589 -0.00054378 0)
(7.36741 -0.00140638 0)
(7.36888 -0.00231474 0)
(7.37029 -0.0032661 0)
(7.37165 -0.00425759 0)
(7.37294 -0.0052862 0)
(7.37418 -0.00634876 0)
(7.37535 -0.00744198 0)
(7.37647 -0.00856242 0)
(7.37752 -0.00970674 0)
(7.37851 -0.0108705 0)
(7.33303 0.000354593 0)
(7.33329 0.00104697 0)
(7.33382 0.00169211 0)
(7.33461 0.00226949 0)
(7.33561 0.00276626 0)
(7.33678 0.00317508 0)
(7.33811 0.0034921 0)
(7.33956 0.00371625 0)
(7.34112 0.00384857 0)
(7.34275 0.00389152 0)
(7.34443 0.00384843 0)
(7.34616 0.00372309 0)
(7.3479 0.00351947 0)
(7.34966 0.00324152 0)
(7.35142 0.00289306 0)
(7.35317 0.00247772 0)
(7.3549 0.00199891 0)
(7.3566 0.00145981 0)
(7.35827 0.000863374 0)
(7.35991 0.0002124 0)
(7.36151 -0.000490469 0)
(7.36306 -0.00124268 0)
(7.36456 -0.00204171 0)
(7.36602 -0.00288507 0)
(7.36742 -0.00377019 0)
(7.36877 -0.00469445 0)
(7.37006 -0.00565514 0)
(7.3713 -0.00664942 0)
(7.37247 -0.00767436 0)
(7.37359 -0.00872696 0)
(7.37464 -0.00980411 0)
(7.37564 -0.0109028 0)
(7.37658 -0.0120192 0)
(7.33303 0.000266187 0)
(7.33327 0.000784614 0)
(7.33378 0.00126304 0)
(7.33453 0.00168349 0)
(7.33548 0.00203521 0)
(7.3366 0.00231237 0)
(7.33787 0.00251188 0)
(7.33926 0.00263271 0)
(7.34075 0.0026754 0)
(7.34232 0.00264164 0)
(7.34394 0.00253382 0)
(7.3456 0.00235468 0)
(7.34729 0.00210714 0)
(7.34898 0.00179415 0)
(7.35068 0.00141865 0)
(7.35236 0.000983482 0)
(7.35403 0.000491355 0)
(7.35567 -5.51274e-05 0)
(7.35728 -0.000653478 0)
(7.35886 -0.0013013 0)
(7.36039 -0.00199626 0)
(7.36188 -0.00273606 0)
(7.36333 -0.0035184 0)
(7.36472 -0.00434096 0)
(7.36606 -0.00520136 0)
(7.36735 -0.00609716 0)
(7.36858 -0.00702584 0)
(7.36976 -0.00798479 0)
(7.37088 -0.00897134 0)
(7.37194 -0.00998277 0)
(7.37294 -0.0110163 0)
(7.37389 -0.0120693 0)
(7.37478 -0.0131383 0)
(7.33303 0.000179983 0)
(7.33326 0.000528605 0)
(7.33374 0.000843649 0)
(7.33445 0.00110934 0)
(7.33536 0.00131711 0)
(7.33643 0.00146295 0)
(7.33765 0.00154482 0)
(7.33899 0.00156186 0)
(7.34043 0.00151433 0)
(7.34194 0.00140328 0)
(7.34351 0.00123023 0)
(7.34511 0.000996952 0)
(7.34674 0.000705348 0)
(7.34838 0.000357432 0)
(7.35001 -4.47496e-05 0)
(7.35164 -0.000499149 0)
(7.35325 -0.00100374 0)
(7.35483 -0.00155651 0)
(7.35638 -0.00215549 0)
(7.3579 -0.00279869 0)
(7.35938 -0.00348413 0)
(7.36081 -0.00420983 0)
(7.36219 -0.00497373 0)
(7.36353 -0.00577377 0)
(7.36481 -0.00660778 0)
(7.36604 -0.00747355 0)
(7.36722 -0.0083688 0)
(7.36834 -0.00929116 0)
(7.3694 -0.0102382 0)
(7.37041 -0.0112076 0)
(7.37136 -0.0121968 0)
(7.37226 -0.0132035 0)
(7.3731 -0.0142247 0)
(7.33302 9.58455e-05 0)
(7.33325 0.000278464 0)
(7.3337 0.000432844 0)
(7.33438 0.000545109 0)
(7.33525 0.000609208 0)
(7.33629 0.00062345 0)
(7.33746 0.000587114 0)
(7.33875 0.000499741 0)
(7.34014 0.000361395 0)
(7.3416 0.000172603 0)
(7.34312 -6.59156e-05 0)
(7.34468 -0.000353361 0)
(7.34625 -0.000688824 0)
(7.34784 -0.00107127 0)
(7.34942 -0.00149954 0)
(7.351 -0.00197241 0)
(7.35255 -0.00248855 0)
(7.35408 -0.00304657 0)
(7.35558 -0.00364502 0)
(7.35704 -0.00428236 0)
(7.35846 -0.00495699 0)
(7.35983 -0.00566725 0)
(7.36116 -0.0064114 0)
(7.36244 -0.00718761 0)
(7.36367 -0.007994 0)
(7.36485 -0.00882859 0)
(7.36597 -0.00968936 0)
(7.36704 -0.0105742 0)
(7.36805 -0.011481 0)
(7.36901 -0.0124077 0)
(7.36991 -0.013352 0)
(7.37076 -0.0143119 0)
(7.37155 -0.0152847 0)
(7.33302 1.37895e-05 0)
(7.33323 3.40748e-05 0)
(7.33367 2.98836e-05 0)
(7.33432 -1.1038e-05 0)
(7.33515 -9.14808e-05 0)
(7.33615 -0.000209994 0)
(7.33729 -0.000365609 0)
(7.33855 -0.000558317 0)
(7.33989 -0.000788166 0)
(7.34132 -0.00105509 0)
(7.34279 -0.00135914 0)
(7.3443 -0.00170045 0)
(7.34583 -0.00207911 0)
(7.34737 -0.00249505 0)
(7.34891 -0.00294802 0)
(7.35043 -0.00343764 0)
(7.35194 -0.00396335 0)
(7.35342 -0.0045244 0)
(7.35486 -0.00511992 0)
(7.35627 -0.00574887 0)
(7.35764 -0.00641011 0)
(7.35897 -0.00710233 0)
(7.36025 -0.00782414 0)
(7.36148 -0.00857403 0)
(7.36265 -0.00935039 0)
(7.36378 -0.0101515 0)
(7.36485 -0.0109757 0)
(7.36587 -0.0118211 0)
(7.36683 -0.0126859 0)
(7.36774 -0.0135682 0)
(7.3686 -0.0144661 0)
(7.3694 -0.015378 0)
(7.37015 -0.0163015 0)
(7.33302 -6.58898e-05 0)
(7.33322 -0.000203996 0)
(7.33363 -0.00036537 0)
(7.33425 -0.000560782 0)
(7.33506 -0.000788244 0)
(7.33603 -0.00104188 0)
(7.33714 -0.00131865 0)
(7.33836 -0.00161799 0)
(7.33968 -0.00194001 0)
(7.34107 -0.00228521 0)
(7.34251 -0.00265463 0)
(7.34399 -0.00304961 0)
(7.34548 -0.00347135 0)
(7.34698 -0.00392079 0)
(7.34848 -0.00439862 0)
(7.34996 -0.00490524 0)
(7.35142 -0.00544078 0)
(7.35285 -0.00600514 0)
(7.35425 -0.00659796 0)
(7.35562 -0.00721867 0)
(7.35694 -0.00786652 0)
(7.35822 -0.00854062 0)
(7.35945 -0.00923988 0)
(7.36063 -0.00996313 0)
(7.36176 -0.0107091 0)
(7.36283 -0.0114763 0)
(7.36386 -0.0122633 0)
(7.36483 -0.0130686 0)
(7.36575 -0.0138907 0)
(7.36661 -0.0147279 0)
(7.36742 -0.0155787 0)
(7.36818 -0.0164415 0)
(7.36889 -0.0173143 0)
(7.33302 -0.000142334 0)
(7.3332 -0.000433867 0)
(7.33359 -0.000752 0)
(7.33418 -0.00110559 0)
(7.33496 -0.00148472 0)
(7.33591 -0.00187732 0)
(7.337 -0.00227834 0)
(7.33821 -0.00268672 0)
(7.3395 -0.00310213 0)
(7.34087 -0.00352515 0)
(7.34229 -0.00395772 0)
(7.34373 -0.00440245 0)
(7.34519 -0.00486196 0)
(7.34666 -0.00533856 0)
(7.34812 -0.00583422 0)
(7.34957 -0.00635046 0)
(7.35099 -0.00688841 0)
(7.35238 -0.00744878 0)
(7.35374 -0.00803189 0)
(7.35506 -0.00863776 0)
(7.35634 -0.00926613 0)
(7.35758 -0.0099165 0)
(7.35876 -0.0105882 0)
(7.3599 -0.0112802 0)
(7.36098 -0.0119917 0)
(7.36202 -0.0127214 0)
(7.363 -0.0134683 0)
(7.36393 -0.0142309 0)
(7.3648 -0.015008 0)
(7.36562 -0.0157983 0)
(7.36639 -0.0166005 0)
(7.36711 -0.0174133 0)
(7.36778 -0.0182352 0)
(7.33302 -0.000213545 0)
(7.33318 -0.000651032 0)
(7.33353 -0.00112715 0)
(7.33409 -0.00164692 0)
(7.33485 -0.00218588 0)
(7.33579 -0.00272256 0)
(7.33687 -0.00325063 0)
(7.33807 -0.00377037 0)
(7.33935 -0.00428263 0)
(7.34071 -0.00478915 0)
(7.34211 -0.00529296 0)
(7.34354 -0.0057975 0)
(7.34498 -0.00630599 0)
(7.34643 -0.00682134 0)
(7.34786 -0.00734612 0)
(7.34928 -0.00788252 0)
(7.35067 -0.00843229 0)
(7.35202 -0.00899674 0)
(7.35335 -0.00957681 0)
(7.35463 -0.0101731 0)
(7.35587 -0.0107858 0)
(7.35706 -0.0114151 0)
(7.35821 -0.0120606 0)
(7.3593 -0.012722 0)
(7.36034 -0.0133985 0)
(7.36134 -0.0140896 0)
(7.36228 -0.0147943 0)
(7.36316 -0.0155117 0)
(7.364 -0.0162409 0)
(7.36478 -0.0169808 0)
(7.36551 -0.0177302 0)
(7.36618 -0.0184881 0)
(7.36681 -0.0192529 0)
(7.33301 -0.000275141 0)
(7.33315 -0.000846109 0)
(7.33345 -0.00148401 0)
(7.33397 -0.00218422 0)
(7.33471 -0.00289842 0)
(7.33565 -0.00359181 0)
(7.33673 -0.00425282 0)
(7.33793 -0.00487817 0)
(7.33921 -0.00546828 0)
(7.34056 -0.00602855 0)
(7.34196 -0.00656718 0)
(7.34337 -0.00709218 0)
(7.3448 -0.00761031 0)
(7.34623 -0.00812717 0)
(7.34764 -0.00864732 0)
(7.34903 -0.00917434 0)
(7.3504 -0.00971088 0)
(7.35173 -0.0102588 0)
(7.35302 -0.0108195 0)
(7.35427 -0.0113937 0)
(7.35548 -0.0119818 0)
(7.35664 -0.0125839 0)
(7.35775 -0.0131998 0)
(7.3588 -0.0138291 0)
(7.35981 -0.0144713 0)
(7.36077 -0.0151258 0)
(7.36167 -0.0157918 0)
(7.36252 -0.0164686 0)
(7.36332 -0.0171551 0)
(7.36406 -0.0178507 0)
(7.36476 -0.0185546 0)
(7.3654 -0.0192659 0)
(7.366 -0.0199838 0)
(7.33301 -0.00031675 0)
(7.33308 -0.00100138 0)
(7.3333 -0.00181544 0)
(7.33377 -0.00271397 0)
(7.3345 -0.00361035 0)
(7.33545 -0.00447618 0)
(7.33656 -0.00531346 0)
(7.3378 -0.00611602 0)
(7.33911 -0.00687396 0)
(7.34049 -0.00758506 0)
(7.3419 -0.0082537 0)
(7.34332 -0.0088863 0)
(7.34474 -0.0094895 0)
(7.34615 -0.01007 0)
(7.34755 -0.010634 0)
(7.34891 -0.0111872 0)
(7.35025 -0.0117344 0)
(7.35154 -0.0122794 0)
(7.3528 -0.0128254 0)
(7.35402 -0.0133749 0)
(7.35519 -0.0139297 0)
(7.35631 -0.0144912 0)
(7.35738 -0.0150602 0)
(7.3584 -0.0156374 0)
(7.35937 -0.0162229 0)
(7.36029 -0.0168168 0)
(7.36115 -0.0174189 0)
(7.36196 -0.0180289 0)
(7.36272 -0.0186464 0)
(7.36343 -0.0192707 0)
(7.36409 -0.0199012 0)
(7.3647 -0.0205371 0)
(7.36525 -0.0211769 0)
(7.33299 -0.000312256 0)
(7.33294 -0.00106816 0)
(7.33303 -0.00211772 0)
(7.33344 -0.0032944 0)
(7.33417 -0.00437635 0)
(7.33511 -0.00530469 0)
(7.33621 -0.00611102 0)
(7.33743 -0.00682894 0)
(7.33876 -0.00748203 0)
(7.34015 -0.00809054 0)
(7.34158 -0.00867057 0)
(7.34302 -0.00923311 0)
(7.34446 -0.00978549 0)
(7.34589 -0.0103329 0)
(7.34729 -0.0108791 0)
(7.34867 -0.0114265 0)
(7.35 -0.0119768 0)
(7.35129 -0.0125311 0)
(7.35254 -0.0130901 0)
(7.35375 -0.0136544 0)
(7.3549 -0.0142242 0)
(7.356 -0.0147997 0)
(7.35706 -0.0153808 0)
(7.35806 -0.0159674 0)
(7.359 -0.0165593 0)
(7.3599 -0.0171564 0)
(7.36074 -0.0177581 0)
(7.36153 -0.0183642 0)
(7.36227 -0.0189744 0)
(7.36295 -0.0195883 0)
(7.36359 -0.0202056 0)
(7.36418 -0.0208262 0)
(7.36473 -0.0214498 0)
(7.33295 -0.000217551 0)
(7.33262 -0.000937171 0)
(7.33243 -0.00220773 0)
(7.33281 -0.00383452 0)
(7.33371 -0.00557661 0)
(7.33485 -0.00728419 0)
(7.33611 -0.00884551 0)
(7.33743 -0.0101986 0)
(7.3388 -0.0113421 0)
(7.34019 -0.0123052 0)
(7.34159 -0.0131207 0)
(7.34299 -0.0138177 0)
(7.34438 -0.0144225 0)
(7.34574 -0.0149582 0)
(7.34709 -0.0154437 0)
(7.34841 -0.0158941 0)
(7.34969 -0.0163211 0)
(7.35094 -0.0167335 0)
(7.35215 -0.0171382 0)
(7.35332 -0.0175403 0)
(7.35444 -0.0179434 0)
(7.35552 -0.0183501 0)
(7.35655 -0.0187624 0)
(7.35754 -0.0191813 0)
(7.35847 -0.0196075 0)
(7.35936 -0.0200415 0)
(7.3602 -0.0204832 0)
(7.36099 -0.0209326 0)
(7.36173 -0.0213892 0)
(7.36241 -0.0218527 0)
(7.36305 -0.0223224 0)
(7.36364 -0.0227976 0)
(7.36418 -0.0232769 0)
(7.3329 0.000113777 0)
(7.33207 -0.000906116 0)
(7.33126 -0.00222288 0)
(7.33111 -0.00289884 0)
(7.33162 -0.00318655 0)
(7.33258 -0.00354656 0)
(7.33387 -0.00409068 0)
(7.33538 -0.00475724 0)
(7.33699 -0.00549967 0)
(7.33863 -0.00629873 0)
(7.34026 -0.00713554 0)
(7.34188 -0.00798962 0)
(7.34346 -0.00884536 0)
(7.34501 -0.00969281 0)
(7.34651 -0.0105257 0)
(7.34797 -0.0113403 0)
(7.34938 -0.0121344 0)
(7.35075 -0.0129076 0)
(7.35207 -0.01366 0)
(7.35334 -0.0143926 0)
(7.35456 -0.0151063 0)
(7.35573 -0.0158025 0)
(7.35686 -0.0164825 0)
(7.35794 -0.0171476 0)
(7.35896 -0.0177991 0)
(7.35994 -0.0184381 0)
(7.36087 -0.0190656 0)
(7.36175 -0.0196826 0)
(7.36257 -0.02029 0)
(7.36335 -0.0208885 0)
(7.36409 -0.0214788 0)
(7.36478 -0.0220617 0)
(7.36543 -0.0226376 0)
(7.33241 0.00206623 0)
(7.33046 -0.000597152 0)
(7.33031 -0.00731235 0)
(7.33141 -0.0137494 0)
(7.33241 -0.0184507 0)
(7.33315 -0.0216184 0)
(7.33399 -0.02367 0)
(7.33505 -0.0249111 0)
(7.33629 -0.0255799 0)
(7.33764 -0.025866 0)
(7.33909 -0.0259087 0)
(7.34063 -0.0258058 0)
(7.34224 -0.0256243 0)
(7.3439 -0.0254095 0)
(7.34558 -0.0251911 0)
(7.34727 -0.0249879 0)
(7.34896 -0.0248113 0)
(7.35064 -0.0246677 0)
(7.35229 -0.0245604 0)
(7.35391 -0.0244902 0)
(7.3555 -0.0244567 0)
(7.35704 -0.0244585 0)
(7.35853 -0.0244938 0)
(7.35998 -0.0245603 0)
(7.36137 -0.0246558 0)
(7.36271 -0.0247781 0)
(7.36398 -0.0249248 0)
(7.36521 -0.0250939 0)
(7.36637 -0.0252835 0)
(7.36747 -0.0254916 0)
(7.36851 -0.0257167 0)
(7.36949 -0.0259577 0)
(7.37041 -0.0262135 0)
(7.32878 0.00627823 0)
(7.31725 0.0179461 0)
(7.31242 0.0251466 0)
(7.31395 0.0271892 0)
(7.3178 0.0258674 0)
(7.32198 0.0230387 0)
(7.32619 0.01966 0)
(7.33041 0.0160883 0)
(7.33455 0.0125061 0)
(7.33855 0.00905202 0)
(7.3424 0.00581071 0)
(7.34611 0.00281438 0)
(7.34969 6.58103e-05 0)
(7.35313 -0.00244423 0)
(7.35644 -0.00473049 0)
(7.35962 -0.006811 0)
(7.36268 -0.00870502 0)
(7.36562 -0.0104315 0)
(7.36845 -0.0120083 0)
(7.37115 -0.0134517 0)
(7.37374 -0.0147764 0)
(7.37622 -0.0159958 0)
(7.37858 -0.0171215 0)
(7.38084 -0.018164 0)
(7.38299 -0.0191325 0)
(7.38503 -0.020035 0)
(7.38697 -0.0208786 0)
(7.38882 -0.0216696 0)
(7.39056 -0.0224133 0)
(7.39221 -0.0231144 0)
(7.39377 -0.0237768 0)
(7.39525 -0.0244032 0)
(7.39664 -0.0249971 0)
(7.33379 -0.0332977 0)
(7.333 -0.0723045 0)
(7.32812 -0.0856773 0)
(7.32657 -0.0871144 0)
(7.33014 -0.0847269 0)
(7.33737 -0.0807681 0)
(7.34634 -0.0759397 0)
(7.35584 -0.0708976 0)
(7.36534 -0.0660982 0)
(7.37458 -0.0617141 0)
(7.3834 -0.0577736 0)
(7.3917 -0.0542675 0)
(7.39945 -0.0511734 0)
(7.40663 -0.0484579 0)
(7.41327 -0.046082 0)
(7.41939 -0.0440071 0)
(7.42501 -0.0421974 0)
(7.43017 -0.0406211 0)
(7.43488 -0.0392494 0)
(7.43919 -0.0380572 0)
(7.44311 -0.0370223 0)
(7.44667 -0.0361255 0)
(7.4499 -0.03535 0)
(7.45281 -0.0346811 0)
(7.45544 -0.0341062 0)
(7.45778 -0.033614 0)
(7.45987 -0.0331951 0)
(7.46172 -0.0328409 0)
(7.46334 -0.0325441 0)
(7.46475 -0.0322985 0)