/*--------------------------------*- C++ -*----------------------------------*\
| =========                 |                                                 |
| \\      /  F ield         | OpenFOAM: The Open Source CFD Toolbox           |
|  \\    /   O peration     | Version:  4.1                                   |
|   \\  /    A nd           | Web:      www.OpenFOAM.org                      |
|    \\/     M anipulation  |                                                 |
\*---------------------------------------------------------------------------*/
FoamFile
{
    version     2.0;
    format      ascii;
    class       volScalarField;
    location    "700";
    object      p;
}
// * * * * * * * * * * * * * * * * * * * * * * * * * * * * * * * * * * * * * //

dimensions      [0 2 -2 0 0 0 0];

internalField   nonuniform List<scalar> 
26785
(
-239.53
-245.138
-249.686
-254.706
-260.138
-266.39
-273.577
-281.756
-290.781
-300.186
-308.832
-314.986
-318.136
-319.871
-321.643
-323.951
-326.625
-329.066
-330.281
-328.956
-323.995
-314.911
-301.988
-286.319
-269.712
-254.527
-243.697
-240.526
-245.832
-260.451
-284.29
-314.058
-346.387
-379.3
-410.334
-433.352
-444.309
-440.321
-423.138
-397.236
-359.51
-307.149
-238.495
-152.449
-56.7035
36.5904
114.524
158.878
175.284
184.043
191.26
191.938
187.821
179.146
165.668
147.869
125.883
99.8981
70.0457
36.4344
-0.779833
-41.3142
-84.685
-130.178
-176.887
-223.816
-270.044
-314.909
-358.147
-399.901
-440.624
-480.876
-521.096
-561.382
-601.308
-639.8
-675.089
-704.802
-726.205
-736.603
-733.734
-716.048
-682.824
-633.939
-569.917
-491.803
-401.032
-299.456
-189.43
-73.8049
44.0421
159.54
267.367
366.287
459.042
534.694
576.41
604.094
515.774
435.21
-239.571
-245.146
-249.689
-254.705
-260.134
-266.383
-273.57
-281.749
-290.78
-300.196
-308.862
-315.025
-318.157
-319.871
-321.632
-323.942
-326.63
-329.096
-330.349
-329.07
-324.162
-315.134
-302.266
-286.653
-270.102
-254.983
-244.202
-240.994
-246.32
-260.877
-284.641
-314.434
-346.813
-379.754
-410.83
-433.89
-444.945
-440.987
-423.695
-397.865
-360.213
-308.062
-239.758
-153.878
-58.333
34.5774
112.636
158.138
174.906
184.273
191.517
192.011
187.778
179.019
165.471
147.622
125.598
99.5819
69.7016
36.0607
-1.19002
-41.7701
-85.1945
-130.744
-177.502
-224.461
-270.689
-315.518
-358.684
-400.346
-440.975
-481.154
-521.344
-561.661
-601.691
-640.361
-675.897
-705.9
-727.605
-738.285
-735.662
-718.183
-685.156
-636.457
-572.643
-494.782
-404.325
-303.119
-193.481
-78.2087
39.3309
154.599
262.386
360.985
451.853
525.358
567.814
594.866
505.628
395.432
-239.632
-245.164
-249.694
-254.701
-260.124
-266.368
-273.551
-281.733
-290.772
-300.214
-308.919
-315.098
-318.195
-319.867
-321.607
-323.924
-326.64
-329.156
-330.487
-329.302
-324.499
-315.58
-302.819
-287.307
-270.858
-255.856
-245.197
-241.961
-247.246
-261.736
-285.441
-315.264
-347.683
-380.611
-411.732
-434.861
-446.117
-442.287
-424.791
-399.181
-361.707
-309.944
-242.286
-156.768
-61.6843
30.3924
108.086
156.083
174.422
184.748
192.037
192.15
187.674
178.744
165.052
147.103
125
98.92
68.9824
35.2805
-2.0442
-42.7165
-86.2489
-131.911
-178.767
-225.786
-272.012
-316.762
-359.781
-401.253
-441.69
-481.721
-521.85
-562.231
-602.472
-641.506
-677.54
-708.128
-730.436
-741.666
-739.503
-722.388
-689.697
-641.337
-577.906
-500.517
-410.66
-310.187
-201.362
-86.9013
29.8606
144.442
251.817
349.853
438.603
509.299
550.803
574.842
483.11
339.762
-239.71
-245.189
-249.701
-254.696
-260.109
-266.345
-273.525
-281.709
-290.764
-300.242
-309.006
-315.208
-318.251
-319.86
-321.568
-323.895
-326.656
-329.25
-330.698
-329.656
-325.01
-316.254
-303.654
-288.298
-272.003
-257.169
-246.673
-243.451
-248.7
-263.124
-286.757
-316.564
-348.98
-381.857
-413.052
-436.284
-447.857
-444.24
-426.432
-401.277
-364.186
-313.012
-246.112
-160.952
-66.4294
24.5452
101.468
152.194
173.898
185.079
192.822
192.343
187.482
178.301
164.394
146.292
124.065
97.8853
67.8566
34.0586
-3.38129
-44.1941
-87.8879
-133.714
-180.708
-227.802
-274.004
-318.615
-361.39
-402.557
-442.69
-482.488
-522.521
-562.991
-603.541
-643.11
-679.876
-711.325
-734.518
-746.558
-745.074
-728.504
-696.305
-648.414
-585.506
-508.766
-419.741
-320.305
-212.675
-99.4757
16.0182
129.387
235.687
332.325
418.404
486.203
526.202
544.705
450.081
284.882
-239.796
-245.222
-249.711
-254.689
-260.088
-266.315
-273.49
-281.677
-290.751
-300.279
-309.12
-315.354
-318.321
-319.846
-321.512
-323.853
-326.676
-329.377
-330.983
-330.134
-325.696
-317.155
-304.765
-289.616
-273.525
-258.907
-248.614
-245.446
-250.677
-265.031
-288.575
-318.328
-350.705
-383.496
-414.782
-438.138
-450.129
-446.721
-428.765
-404.415
-367.967
-317.541
-251.344
-166.363
-72.3367
17.5154
93.5584
146.419
172.736
185.093
193.777
192.568
187.156
177.656
163.465
145.159
122.769
96.4528
66.3004
32.372
-5.22214
-46.2206
-90.1234
-136.157
-183.318
-230.49
-276.636
-321.036
-363.465
-404.211
-443.933
-483.42
-523.324
-563.913
-604.87
-645.14
-682.865
-715.435
-739.775
-752.853
-752.226
-736.339
-704.747
-657.428
-595.149
-519.192
-431.186
-333.044
-226.948
-115.431
-1.67476
110.002
214.699
309.328
392.267
456.844
494.799
506.544
410.37
235.337
-239.891
-245.263
-249.723
-254.681
-260.063
-266.278
-273.447
-281.639
-290.737
-300.326
-309.265
-315.535
-318.405
-319.824
-321.439
-323.797
-326.702
-329.541
-331.347
-330.739
-326.562
-318.286
-306.158
-291.263
-275.426
-261.067
-251.013
-247.937
-253.177
-267.473
-290.917
-320.583
-352.879
-385.555
-416.938
-440.44
-452.934
-449.585
-432.057
-408.875
-373.331
-323.72
-258.035
-172.926
-79.2292
9.6158
84.8322
139.185
170.251
184.838
194.574
192.76
186.642
176.766
162.235
143.683
121.092
94.6094
64.3041
30.2148
-7.56861
-48.7918
-92.9428
-139.215
-186.558
-233.795
-279.836
-323.94
-365.909
-406.11
-445.31
-484.408
-524.152
-564.889
-606.348
-647.481
-686.383
-720.333
-746.081
-760.425
-760.836
-745.773
-714.894
-668.224
-606.648
-531.568
-444.717
-348.074
-243.802
-134.348
-22.7808
86.7106
189.253
281.34
360.878
422.134
457.641
462.773
367.423
192.852
-240.02
-245.311
-249.738
-254.671
-260.033
-266.234
-273.397
-281.594
-290.721
-300.383
-309.439
-315.752
-318.5
-319.79
-321.343
-323.723
-326.729
-329.739
-331.789
-331.473
-327.608
-319.649
-307.829
-293.237
-277.7
-263.642
-253.861
-250.913
-256.193
-270.449
-293.786
-323.333
-355.509
-388.05
-419.519
-443.192
-456.279
-452.777
-436.559
-414.945
-380.545
-331.716
-266.253
-180.624
-87.0126
1.02436
75.5473
130.946
166.118
184.114
194.782
192.809
185.873
175.587
160.677
141.847
119.028
92.3548
61.8732
27.5971
-10.4057
-51.8865
-96.3165
-142.849
-190.376
-237.654
-283.534
-327.248
-368.643
-408.18
-446.753
-485.388
-524.947
-565.86
-607.909
-650.058
-690.347
-725.927
-753.342
-769.179
-770.798
-756.678
-726.591
-680.616
-619.778
-545.622
-460.007
-365.004
-262.782
-155.706
-46.7056
60.1857
160.12
249.239
325.168
383.05
415.879
415.436
323.801
157.116
-240.158
-245.366
-249.755
-254.659
-259.999
-266.185
-273.339
-281.543
-290.704
-300.45
-309.644
-316.006
-318.605
-319.743
-321.224
-323.63
-326.757
-329.972
-332.31
-332.336
-328.835
-321.243
-309.78
-295.537
-280.345
-266.628
-257.152
-254.366
-259.719
-273.958
-297.187
-326.589
-358.615
-391.014
-422.532
-446.422
-460.183
-456.479
-442.473
-422.885
-389.837
-341.662
-276.05
-189.456
-95.6374
-8.16534
65.8331
122.02
160.404
182.549
194.038
192.586
184.776
174.068
158.763
139.639
116.579
89.6998
59.0251
24.5414
-13.7057
-55.4705
-100.202
-147.007
-194.711
-241.997
-287.648
-330.876
-371.575
-410.327
-448.168
-486.27
-525.616
-566.733
-609.463
-652.784
-694.688
-732.174
-761.544
-779.121
-782.114
-769.024
-739.768
-694.494
-634.384
-561.144
-476.785
-383.494
-283.476
-179.025
-72.9096
31.0318
128
213.855
286.061
340.57
370.796
366.201
280.207
127.587
-240.302
-245.428
-249.775
-254.647
-259.962
-266.129
-273.275
-281.487
-290.686
-300.529
-309.881
-316.296
-318.717
-319.679
-321.078
-323.516
-326.783
-330.237
-332.908
-333.326
-330.241
-323.063
-312.004
-298.157
-283.353
-270.017
-260.881
-258.291
-263.751
-277.997
-301.123
-330.364
-362.22
-394.476
-425.989
-450.155
-464.625
-461.033
-450.023
-432.933
-401.414
-353.69
-287.49
-199.44
-105.082
-17.9048
55.7479
112.588
153.374
179.807
192.279
191.936
183.276
172.158
156.473
137.057
113.754
86.6639
55.7855
21.0785
-17.4329
-59.502
-104.549
-151.628
-199.494
-246.747
-292.097
-334.734
-374.616
-412.46
-449.468
-486.971
-526.085
-567.441
-610.953
-655.622
-699.387
-739.083
-770.715
-790.275
-794.782
-782.762
-754.33
-709.718
-650.281
-577.896
-494.745
-403.161
-305.416
-203.752
-100.756
-0.0318727
93.711
176.108
244.521
295.672
323.568
316.695
237.537
102.603
-240.45
-245.497
-249.799
-254.634
-259.92
-266.068
-273.206
-281.426
-290.668
-300.62
-310.152
-316.623
-318.832
-319.594
-320.902
-323.376
-326.807
-330.535
-333.582
-334.442
-331.821
-325.107
-314.497
-301.091
-286.721
-273.806
-265.042
-262.685
-268.286
-282.567
-305.597
-334.672
-366.352
-398.467
-429.915
-454.406
-469.507
-466.749
-459.446
-445.31
-415.477
-367.934
-300.639
-210.609
-115.341
-28.1706
45.3155
102.746
145.318
175.695
189.58
190.646
181.293
169.808
153.791
134.103
110.57
83.2719
52.1852
17.2436
-21.547
-63.934
-109.303
-156.649
-204.652
-251.825
-296.798
-338.735
-377.673
-414.485
-450.562
-487.41
-526.287
-567.935
-612.349
-658.564
-704.468
-746.701
-780.912
-802.688
-808.817
-797.868
-770.214
-726.19
-667.332
-595.688
-513.63
-423.663
-328.166
-229.351
-129.618
-32.2883
58.0721
136.916
201.508
249.328
275.266
267.941
197.326
81.0191
-240.602
-245.574
-249.825
-254.621
-259.876
-266.003
-273.132
-281.363
-290.652
-300.724
-310.457
-316.988
-318.946
-319.484
-320.691
-323.208
-326.826
-330.862
-334.33
-335.678
-333.572
-327.368
-317.252
-304.334
-290.442
-277.989
-269.634
-267.544
-273.321
-287.665
-310.618
-339.531
-371.04
-403.019
-434.346
-459.209
-474.771
-473.798
-470.917
-460.218
-432.229
-384.55
-315.577
-223.012
-126.425
-38.9532
34.546
92.5382
136.474
170.164
185.919
188.519
178.76
166.983
150.708
130.786
107.047
79.552
48.257
13.074
-26.0053
-68.7164
-114.405
-162.002
-210.111
-257.154
-301.667
-342.789
-380.65
-416.308
-451.37
-487.524
-526.181
-568.196
-613.656
-661.638
-709.977
-755.086
-792.192
-816.401
-824.231
-814.321
-787.379
-743.845
-685.437
-614.374
-533.225
-444.698
-351.316
-255.299
-158.863
-65.0081
21.9129
97.2057
157.994
202.51
226.888
220.727
160.236
62.2485
-240.78
-245.656
-249.855
-254.608
-259.83
-265.934
-273.054
-281.297
-290.638
-300.841
-310.799
-317.389
-319.055
-319.345
-320.443
-323.007
-326.837
-331.216
-335.147
-337.032
-335.487
-329.839
-320.263
-307.879
-294.512
-282.564
-274.654
-272.869
-278.854
-293.293
-316.192
-344.96
-376.318
-408.168
-439.336
-464.637
-480.498
-482.284
-484.568
-477.847
-451.871
-403.717
-332.398
-236.707
-138.347
-50.249
23.446
81.9896
127.018
163.292
181.249
185.417
175.628
163.658
147.226
127.122
103.209
75.5333
44.0345
8.60789
-30.7634
-73.7966
-119.793
-167.618
-215.799
-262.656
-306.621
-346.804
-383.452
-417.845
-451.824
-487.275
-525.753
-568.234
-614.899
-664.883
-715.96
-764.296
-804.622
-831.477
-841.073
-832.151
-805.838
-762.675
-704.566
-633.882
-553.399
-466.046
-374.535
-281.142
-187.918
-97.5108
-13.9824
57.8729
114.958
156.217
179.378
175.677
126.759
45.9222
-240.964
-245.745
-249.889
-254.595
-259.781
-265.862
-272.974
-281.231
-290.627
-300.974
-311.178
-317.826
-319.151
-319.172
-320.155
-322.771
-326.837
-331.596
-336.029
-338.496
-337.56
-332.513
-323.523
-311.72
-298.926
-287.53
-280.104
-278.66
-284.888
-299.453
-322.33
-350.981
-382.219
-413.951
-444.95
-470.75
-486.82
-492.293
-500.5
-498.371
-474.585
-425.582
-351.194
-251.759
-151.123
-62.0542
12.025
71.1235
117.08
155.228
175.568
181.278
171.878
159.831
143.353
123.128
99.0813
71.2458
39.5516
3.88426
-35.7751
-79.1198
-125.403
-173.426
-221.639
-268.254
-311.576
-350.689
-385.989
-419.022
-451.882
-486.65
-525.018
-568.076
-616.116
-668.337
-722.466
-774.393
-818.287
-848.015
-859.43
-851.414
-825.63
-782.704
-724.724
-654.192
-574.083
-487.565
-397.579
-306.511
-216.292
-129.202
-48.9199
19.742
73.3846
111.512
133.697
133.315
97.166
31.8232
-241.15
-245.841
-249.926
-254.583
-259.731
-265.788
-272.891
-281.164
-290.622
-301.122
-311.595
-318.297
-319.227
-318.959
-319.824
-322.499
-326.822
-331.995
-336.971
-340.066
-339.785
-335.385
-327.026
-315.854
-303.683
-292.886
-285.984
-284.92
-291.426
-306.152
-329.044
-357.617
-388.776
-420.412
-451.262
-477.599
-493.857
-503.897
-518.803
-521.946
-500.498
-450.242
-372.039
-268.222
-164.761
-74.3593
0.299568
59.9699
106.76
146.163
168.926
176.105
167.519
155.519
139.107
118.83
94.6907
66.72
34.8426
-1.05717
-40.9933
-84.6299
-131.171
-179.358
-227.563
-273.873
-316.449
-354.353
-388.183
-419.787
-451.527
-485.661
-524.004
-567.76
-617.34
-672.033
-729.534
-785.449
-833.294
-866.129
-879.391
-872.155
-846.766
-803.926
-745.896
-675.275
-595.224
-509.156
-420.275
-331.136
-243.61
-159.615
-82.3491
-16.504
34.1896
69.5037
90.8731
94.1596
71.6187
19.7838
-241.339
-245.943
-249.967
-254.572
-259.68
-265.712
-272.807
-281.099
-290.622
-301.288
-312.052
-318.798
-319.273
-318.703
-319.448
-322.191
-326.791
-332.411
-337.969
-341.736
-342.156
-338.447
-330.766
-320.277
-308.78
-298.634
-292.3
-291.655
-298.475
-313.397
-336.347
-364.893
-396.024
-427.593
-458.349
-485.228
-501.74
-517.159
-539.559
-548.69
-529.674
-477.756
-394.994
-286.128
-179.256
-87.1443
-11.7042
48.571
96.1444
136.305
161.41
169.961
162.583
150.757
134.516
114.256
90.0664
61.987
29.9424
-6.17559
-46.3693
-90.2695
-137.034
-185.346
-233.5
-279.44
-321.157
-357.715
-389.97
-420.115
-450.766
-484.339
-522.752
-567.32
-618.595
-675.992
-737.204
-797.54
-849.752
-885.909
-900.979
-894.331
-869.151
-826.232
-767.968
-697.024
-616.72
-530.708
-442.479
-354.816
-269.598
-188.414
-113.893
-50.4006
-1.90422
31.2381
51.9951
58.7682
50.1753
9.64251
-241.531
-246.053
-250.012
-254.562
-259.628
-265.634
-272.724
-281.037
-290.63
-301.472
-312.55
-319.323
-319.278
-318.397
-319.025
-321.851
-326.743
-332.838
-339.016
-343.501
-344.668
-341.697
-334.742
-324.986
-314.219
-304.777
-299.056
-298.87
-306.041
-321.197
-344.254
-372.833
-403.995
-435.539
-466.281
-493.681
-510.608
-532.138
-562.837
-578.675
-562.109
-508.134
-420.081
-305.473
-194.58
-100.375
-23.9479
36.982
85.3149
125.87
153.139
162.958
157.121
145.597
129.614
109.438
85.2394
57.0792
24.887
-11.4291
-51.8534
-95.9817
-142.928
-191.325
-239.386
-284.883
-325.622
-360.702
-391.312
-420.004
-449.628
-482.726
-521.301
-566.784
-619.897
-680.226
-745.506
-810.73
-867.727
-907.348
-924.075
-917.753
-892.543
-849.376
-790.706
-719.232
-638.392
-552.068
-464.049
-377.393
-294.064
-215.38
-143.336
-81.7393
-34.5338
-2.54221
18.0704
27.7513
32.7306
1.19023
-241.742
-246.168
-250.061
-254.553
-259.576
-265.557
-272.641
-280.978
-290.646
-301.675
-313.087
-319.865
-319.227
-318.04
-318.552
-321.478
-326.681
-333.271
-340.107
-345.356
-347.317
-345.13
-338.95
-329.983
-320.001
-311.32
-306.259
-306.572
-314.132
-329.563
-352.781
-381.461
-412.718
-444.29
-475.124
-503.001
-520.61
-548.904
-588.688
-611.902
-597.719
-541.309
-447.257
-326.215
-210.682
-113.999
-36.3799
25.2711
74.3531
115.074
144.246
155.251
151.196
140.102
124.442
104.413
80.2431
52.0305
19.7136
-16.7747
-57.3958
-101.71
-148.794
-197.235
-245.155
-290.133
-329.77
-363.261
-392.191
-419.472
-448.154
-480.869
-519.686
-566.168
-621.248
-684.736
-754.453
-825.04
-887.197
-930.288
-948.373
-942.089
-916.573
-873.016
-813.799
-741.633
-660.025
-573.068
-484.851
-398.751
-316.883
-240.373
-170.569
-110.52
-63.764
-31.6879
-10.2951
1.68167
18.8934
-5.87767
-241.958
-246.289
-250.113
-254.544
-259.523
-265.479
-272.56
-280.925
-290.672
-301.897
-313.663
-320.413
-319.108
-317.631
-318.029
-321.066
-326.602
-333.708
-341.239
-347.298
-350.101
-348.746
-343.39
-335.269
-326.129
-318.267
-313.916
-314.769
-322.757
-338.505
-361.943
-390.801
-422.22
-453.883
-484.927
-513.233
-531.899
-567.526
-617.133
-648.29
-636.321
-577.123
-476.397
-348.257
-227.475
-127.944
-48.9346
13.5177
63.3445
104.124
134.877
147.02
144.874
134.342
119.05
99.2207
75.1135
46.8766
14.4611
-22.1684
-62.9466
-107.4
-154.574
-203.016
-250.747
-295.121
-333.538
-365.355
-392.613
-418.556
-446.391
-478.809
-517.933
-565.479
-622.637
-689.503
-764.023
-840.421
-908.021
-954.411
-973.412
-966.917
-940.846
-896.811
-836.954
-763.991
-681.437
-593.58
-504.806
-418.839
-338.003
-263.318
-195.532
-136.83
-89.9534
-56.715
-33.2898
-19.1562
7.8443
-11.9574
-242.177
-246.416
-250.169
-254.538
-259.47
-265.401
-272.482
-280.878
-290.71
-302.141
-314.276
-320.952
-318.906
-317.172
-317.453
-320.616
-326.5
-334.145
-342.407
-349.325
-353.021
-352.546
-348.065
-340.846
-332.609
-325.627
-322.035
-323.467
-331.919
-348.03
-371.756
-400.874
-432.522
-464.344
-495.727
-524.425
-544.63
-588.073
-648.152
-687.657
-677.63
-615.326
-507.288
-371.441
-244.838
-142.119
-61.5321
1.81045
52.3807
93.2073
125.184
138.468
138.231
128.388
113.489
93.9033
69.889
41.6553
9.16982
-27.5656
-68.4565
-112.998
-160.213
-208.613
-256.102
-299.786
-336.876
-366.972
-392.601
-417.299
-444.388
-476.583
-516.058
-564.713
-624.042
-694.489
-774.147
-856.733
-929.936
-979.299
-998.684
-991.792
-965.01
-920.459
-859.922
-786.118
-702.501
-613.537
-523.902
-437.691
-357.468
-284.223
-218.191
-160.734
-113.504
-78.4865
-51.9617
-35.1561
-1.63367
-17.381
-242.4
-246.549
-250.229
-254.532
-259.418
-265.324
-272.407
-280.838
-290.76
-302.405
-314.922
-321.465
-318.606
-316.667
-316.813
-320.13
-326.369
-334.576
-343.609
-351.438
-356.077
-356.531
-352.977
-346.72
-339.447
-333.408
-330.626
-332.674
-341.625
-358.146
-382.232
-411.697
-443.639
-475.688
-507.543
-536.63
-558.944
-610.596
-681.667
-729.718
-721.264
-655.586
-539.634
-395.542
-262.616
-156.412
-74.0803
-9.7554
41.5585
82.487
115.325
129.793
131.345
122.312
107.817
88.5067
64.6108
36.4065
3.88146
-32.9213
-73.877
-118.454
-165.66
-213.971
-261.163
-304.071
-339.748
-368.118
-392.193
-415.75
-442.19
-474.217
-514.068
-563.857
-625.427
-699.623
-784.694
-873.743
-952.602
-1004.54
-1023.74
-1016.3
-988.733
-943.656
-882.443
-807.813
-723.079
-632.879
-542.157
-455.395
-375.409
-303.196
-238.577
-182.246
-134.677
-97.766
-67.6685
-47.5597
-10.7292
-22.0741
-242.626
-246.688
-250.292
-254.527
-259.365
-265.248
-272.336
-280.806
-290.823
-302.691
-315.595
-321.927
-318.199
-316.129
-316.093
-319.605
-326.206
-334.998
-344.843
-353.637
-359.273
-360.707
-358.131
-352.896
-346.651
-341.617
-339.697
-342.396
-351.875
-368.856
-393.379
-423.282
-455.577
-487.916
-520.377
-549.903
-574.96
-635.111
-717.522
-774.081
-766.766
-697.516
-573.07
-420.277
-280.615
-170.695
-86.4758
-21.0802
30.979
72.0975
105.471
121.171
124.302
116.18
102.094
83.0786
59.3225
31.172
-1.36086
-38.1902
-79.161
-123.719
-170.865
-219.04
-265.877
-307.931
-342.139
-368.814
-391.43
-413.958
-439.836
-471.732
-511.964
-562.891
-626.739
-704.801
-795.474
-891.142
-975.649
-1029.76
-1048.21
-1040.04
-1011.63
-966.019
-904.168
-828.777
-742.95
-651.469
-559.531
-472.014
-391.979
-320.428
-256.825
-201.395
-153.565
-114.995
-81.4235
-57.8546
-19.8988
-25.3994
-242.867
-246.833
-250.357
-254.523
-259.312
-265.173
-272.269
-280.784
-290.901
-302.997
-316.289
-322.313
-317.686
-315.568
-315.302
-319.028
-326.005
-335.407
-346.109
-355.925
-362.614
-365.079
-363.535
-359.383
-354.229
-350.265
-349.258
-352.642
-362.67
-380.163
-405.204
-435.636
-468.33
-501.016
-534.211
-564.292
-592.747
-661.572
-755.46
-820.246
-813.624
-740.683
-607.17
-445.3
-298.614
-184.823
-98.607
-32.0622
20.7456
62.1482
95.791
112.738
117.198
110.056
96.3824
77.6682
54.0691
25.9956
-6.51295
-43.3271
-84.2627
-128.748
-175.782
-223.77
-270.194
-311.329
-344.048
-369.092
-390.36
-411.971
-437.357
-469.14
-509.743
-561.786
-627.91
-709.884
-806.24
-908.562
-998.69
-1054.65
-1071.7
-1062.59
-1033.24
-987.066
-924.643
-848.61
-761.786
-669.072
-575.895
-487.532
-407.277
-336.113
-273.15
-218.307
-170.204
-130.301
-93.759
-66.8813
-28.5626
-26.735
-243.114
-246.983
-250.426
-254.519
-259.259
-265.099
-272.206
-280.771
-290.995
-303.325
-316.994
-322.596
-317.077
-314.948
-314.452
-318.396
-325.76
-335.801
-347.406
-358.307
-366.106
-369.656
-369.195
-366.19
-362.191
-359.362
-359.32
-363.421
-374.01
-392.066
-417.708
-448.756
-481.879
-514.96
-549.012
-579.833
-612.299
-689.852
-795.115
-867.619
-861.284
-784.615
-641.458
-470.221
-316.365
-198.64
-110.356
-42.5996
10.9607
52.7297
86.4515
104.601
110.14
104.001
90.7431
72.3263
48.8974
20.9221
-11.5298
-48.287
-89.1375
-133.497
-180.365
-228.116
-274.071
-314.242
-345.487
-368.992
-389.031
-409.829
-434.776
-466.45
-507.395
-560.508
-628.853
-714.7
-816.698
-925.595
-1021.31
-1078.81
-1093.8
-1083.45
-1053
-1006.25
-943.354
-866.845
-779.193
-685.386
-591.04
-501.845
-421.318
-350.386
-287.782
-233.204
-184.709
-143.676
-104.82
-74.8689
-35.8684
-26.372
-243.364
-247.138
-250.497
-254.515
-259.205
-265.027
-272.149
-280.768
-291.105
-303.672
-317.699
-322.745
-316.383
-314.207
-313.538
-317.711
-325.467
-336.176
-348.735
-360.787
-369.759
-374.445
-375.122
-373.327
-370.549
-368.921
-369.894
-374.744
-385.897
-404.565
-430.886
-462.629
-496.192
-529.706
-564.727
-596.528
-633.516
-719.73
-836.018
-915.541
-909.163
-828.772
-675.423
-494.619
-333.603
-211.983
-121.602
-52.592
1.72367
43.9187
77.603
96.845
103.243
98.074
85.2365
67.1036
43.8542
15.9972
-16.366
-53.025
-93.742
-137.923
-184.574
-232.034
-277.473
-316.659
-346.478
-368.557
-387.487
-407.566
-432.111
-463.666
-504.909
-559.014
-629.47
-719.048
-826.517
-941.805
-1043.05
-1101.78
-1114.04
-1102.05
-1070.37
-1023.02
-959.768
-882.993
-794.757
-700.08
-604.73
-514.804
-434.047
-363.304
-300.899
-246.327
-197.286
-155.177
-114.501
-81.9052
-41.7218
-25.3775
-243.62
-247.299
-250.57
-254.512
-259.151
-264.955
-272.097
-280.777
-291.231
-304.039
-318.394
-322.736
-315.641
-313.32
-312.549
-316.969
-325.12
-336.53
-350.095
-363.372
-373.58
-379.457
-381.324
-380.807
-379.315
-378.954
-380.991
-386.628
-398.353
-417.669
-444.736
-477.234
-511.226
-545.203
-581.285
-614.323
-656.203
-750.9
-877.644
-963.407
-956.689
-872.524
-708.529
-518.063
-350.062
-224.686
-132.224
-61.9423
-6.87155
35.7831
69.3712
89.5332
96.617
92.3338
79.9198
62.0507
38.9865
11.2664
-20.9762
-57.4968
-98.0343
-141.987
-188.37
-235.489
-280.37
-318.576
-347.052
-367.829
-385.768
-405.211
-429.378
-460.79
-502.272
-557.261
-629.654
-722.71
-835.34
-956.728
-1063.34
-1122.96
-1132.02
-1117.89
-1084.87
-1036.87
-973.407
-896.591
-808.065
-712.826
-616.732
-526.256
-445.383
-374.865
-312.603
-257.87
-208.151
-164.951
-122.729
-87.9819
-46.5226
-24.4266
-243.882
-247.465
-250.645
-254.508
-259.095
-264.884
-272.05
-280.796
-291.375
-304.424
-319.063
-322.547
-314.925
-312.307
-311.487
-316.161
-324.717
-336.859
-351.487
-366.068
-377.581
-384.703
-387.816
-388.643
-388.504
-389.475
-392.628
-399.093
-411.431
-431.403
-459.252
-492.539
-526.928
-561.387
-598.595
-633.106
-680.097
-783.011
-919.485
-1010.77
-1003.37
-915.171
-740.244
-540.123
-365.481
-236.585
-142.102
-70.5578
-14.7394
28.3877
61.8657
82.7192
90.3654
86.8413
74.8467
57.2171
34.3401
6.77461
-25.3159
-61.6592
-101.973
-145.651
-191.716
-238.445
-282.742
-320
-347.241
-366.849
-383.913
-402.788
-426.585
-457.826
-499.471
-555.203
-629.295
-725.46
-842.798
-969.886
-1081.59
-1141.68
-1147.53
-1130.64
-1096.24
-1047.52
-983.929
-907.268
-818.755
-723.318
-626.827
-536.065
-455.244
-385.029
-322.925
-267.961
-217.506
-173.221
-129.687
-93.1211
-50.5898
-23.6081
-244.154
-247.636
-250.721
-254.502
-259.038
-264.814
-272.008
-280.827
-291.537
-304.826
-319.69
-322.166
-314.329
-311.193
-310.354
-315.281
-324.251
-337.16
-352.912
-368.883
-381.774
-390.198
-394.612
-396.853
-398.133
-400.501
-404.822
-412.16
-425.177
-445.795
-474.438
-508.505
-543.242
-578.192
-616.554
-652.724
-704.913
-815.706
-961.096
-1057.19
-1048.83
-955.916
-770.073
-560.392
-379.618
-247.524
-151.125
-78.3519
-21.8004
21.7922
55.1478
76.4559
84.5757
81.6592
70.067
52.6498
29.9591
2.56529
-29.3419
-65.47
-105.52
-148.88
-194.58
-240.876
-284.573
-320.941
-347.078
-365.654
-381.952
-400.313
-423.745
-454.774
-496.491
-552.795
-628.287
-727.082
-848.512
-980.786
-1097.19
-1157.26
-1160.5
-1140.28
-1104.54
-1054.92
-991.196
-914.804
-826.561
-731.299
-634.816
-544.097
-463.539
-393.755
-331.915
-276.776
-225.664
-180.359
-135.716
-97.4427
-54.068
-22.9126
-244.434
-247.812
-250.799
-254.496
-258.979
-264.745
-271.971
-280.869
-291.716
-305.242
-320.255
-321.59
-313.915
-309.99
-309.15
-314.32
-323.719
-337.43
-354.369
-371.828
-386.174
-395.958
-401.729
-405.456
-408.22
-412.05
-417.593
-425.853
-439.628
-460.873
-490.289
-525.09
-560.108
-595.549
-635.063
-673.019
-730.395
-848.651
-1002.06
-1102.11
-1092.61
-993.922
-797.507
-578.488
-392.261
-257.359
-159.186
-85.2466
-27.986
16.0527
49.2438
70.7984
79.3169
76.8512
65.6263
48.3931
25.8851
-1.32056
-33.0135
-68.8889
-108.636
-151.638
-196.932
-242.759
-285.855
-321.414
-346.594
-364.279
-379.911
-397.804
-420.866
-451.639
-493.324
-550.001
-626.536
-727.381
-852.123
-988.948
-1109.69
-1169.26
-1170.82
-1147.05
-1109.93
-1059.22
-995.247
-919.14
-831.332
-736.584
-640.549
-550.264
-470.272
-401.184
-339.821
-284.612
-232.903
-186.574
-140.908
-101.013
-56.9329
-22.3463
-244.72
-247.992
-250.877
-254.487
-258.918
-264.675
-271.94
-280.923
-291.913
-305.67
-320.742
-320.803
-313.611
-308.711
-307.876
-313.271
-323.117
-337.663
-355.86
-374.912
-390.798
-402.002
-409.187
-414.474
-418.784
-424.141
-430.969
-440.206
-454.822
-476.695
-506.821
-542.249
-577.477
-613.401
-654.047
-693.861
-756.322
-881.501
-1041.89
-1144.91
-1134.04
-1028.56
-821.996
-594.064
-403.231
-265.961
-166.194
-91.1687
-33.2299
11.2004
44.1897
65.8015
74.6406
72.4795
61.5668
44.4875
22.1569
-4.84486
-36.2928
-71.8787
-111.286
-153.894
-198.746
-244.074
-286.583
-321.432
-345.817
-362.753
-377.812
-395.274
-417.958
-448.425
-489.965
-546.793
-623.97
-726.205
-853.307
-993.889
-1118.87
-1177.46
-1178.29
-1150.89
-1112.56
-1060.63
-996.204
-920.314
-833.063
-739.168
-644.063
-554.698
-475.719
-407.612
-346.841
-291.555
-239.236
-191.877
-145.251
-103.909
-59.2136
-21.9046
-245.012
-248.176
-250.954
-254.476
-258.854
-264.605
-271.913
-280.987
-292.128
-306.11
-321.139
-319.81
-313.282
-307.347
-306.524
-312.125
-322.438
-337.856
-357.385
-378.151
-395.666
-408.352
-417.01
-423.929
-429.845
-436.795
-444.977
-455.256
-470.797
-493.31
-524.066
-559.95
-595.307
-631.713
-673.465
-715.145
-782.472
-913.849
-1080
-1184.87
-1172.29
-1059.28
-842.989
-606.829
-412.385
-273.223
-172.066
-96.0546
-37.4873
7.24986
40.0172
61.5162
70.584
68.6016
57.9264
40.9698
18.8096
-7.97328
-39.146
-74.4054
-113.437
-155.619
-199.997
-244.808
-286.754
-321.008
-344.77
-361.101
-375.676
-392.737
-415.031
-445.142
-486.416
-543.158
-620.54
-723.451
-851.823
-995.075
-1124.28
-1181.2
-1182.14
-1151.29
-1112.26
-1059.23
-994.137
-918.442
-831.989
-739.288
-645.555
-557.572
-480.004
-413.077
-352.951
-297.591
-244.678
-196.333
-148.803
-106.195
-60.9511
-21.5791
-245.313
-248.366
-251.032
-254.461
-258.785
-264.534
-271.891
-281.064
-292.362
-306.565
-321.437
-318.588
-312.82
-305.899
-305.084
-310.873
-321.676
-338.005
-358.945
-381.558
-400.804
-415.035
-425.221
-433.848
-441.424
-450.035
-459.651
-471.047
-487.594
-510.739
-542.021
-578.156
-613.571
-650.468
-693.293
-736.762
-808.582
-945.196
-1115.67
-1221.2
-1206.57
-1085.45
-859.973
-616.573
-419.627
-279.055
-176.734
-99.8532
-40.7295
4.22639
36.7455
57.9863
67.1735
65.2665
54.7396
37.8722
15.8746
-10.6756
-41.5438
-76.4397
-115.06
-156.785
-200.666
-244.948
-286.369
-320.151
-343.47
-359.345
-373.518
-390.204
-412.1
-441.801
-482.689
-539.103
-616.233
-719.076
-847.545
-991.893
-1124.76
-1180.24
-1181.65
-1148.31
-1108.48
-1054.86
-989.025
-913.547
-828.146
-736.962
-645.028
-558.895
-483.107
-417.566
-358.156
-302.739
-249.257
-199.986
-151.605
-107.922
-62.1731
-21.3491
-245.622
-248.559
-251.108
-254.443
-258.713
-264.462
-271.873
-281.151
-292.617
-307.039
-321.622
-317.055
-312.109
-304.376
-303.547
-309.506
-320.826
-338.103
-360.541
-385.154
-406.24
-422.078
-433.847
-444.252
-453.537
-463.881
-475.026
-487.624
-505.257
-529.006
-560.688
-596.871
-632.259
-669.662
-713.493
-758.56
-834.336
-974.981
-1148.2
-1253.24
-1236.18
-1106.54
-872.523
-623.166
-424.872
-283.386
-180.146
-102.506
-42.9183
2.15671
34.3844
55.2464
64.4286
62.5125
52.0368
35.223
13.3791
-12.9265
-43.4623
-77.9576
-116.13
-157.37
-200.735
-244.486
-285.428
-318.868
-341.93
-357.501
-371.353
-387.69
-409.177
-438.419
-478.805
-534.656
-611.079
-713.086
-840.523
-984.001
-1118.38
-1175.52
-1177.32
-1141.44
-1100.6
-1046.95
-980.627
-905.554
-821.543
-732.25
-642.556
-558.732
-485.077
-421.101
-362.454
-306.994
-252.973
-202.86
-153.691
-109.136
-62.9166
-21.1938
-245.939
-248.757
-251.183
-254.42
-258.636
-264.388
-271.86
-281.251
-292.893
-307.537
-321.695
-315.209
-311.109
-302.766
-301.906
-308.019
-319.884
-338.141
-362.174
-388.961
-412.006
-429.512
-442.912
-455.163
-466.197
-478.351
-491.133
-505.029
-523.833
-548.133
-580.059
-616.135
-651.37
-689.283
-733.99
-780.341
-859.383
-1002.63
-1176.94
-1280.47
-1260.62
-1122.15
-880.328
-626.581
-428.122
-286.185
-182.25
-103.974
-44.0294
1.06152
32.9393
53.3204
62.3639
60.3663
49.8446
33.0465
11.346
-14.7052
-44.883
-78.9413
-116.628
-157.353
-200.186
-243.415
-283.929
-317.16
-340.155
-355.579
-369.192
-385.208
-406.278
-435.018
-474.794
-529.865
-605.159
-705.561
-830.75
-971.173
-1104.04
-1165.44
-1167.3
-1129.92
-1088.42
-1035.2
-968.907
-894.562
-812.32
-725.315
-638.275
-557.177
-485.961
-423.69
-365.833
-310.345
-255.827
-204.979
-155.095
-109.875
-63.2189
-21.0954
-246.265
-248.957
-251.255
-254.391
-258.552
-264.311
-271.851
-281.363
-293.192
-308.061
-321.664
-313.149
-309.887
-301.055
-300.153
-306.417
-318.834
-338.091
-363.837
-393.001
-418.136
-437.363
-452.436
-466.595
-479.411
-493.459
-508.002
-523.303
-543.362
-568.135
-600.128
-635.966
-670.908
-709.293
-754.662
-801.879