/*--------------------------------*- C++ -*----------------------------------*\
| =========                 |                                                 |
| \\      /  F ield         | OpenFOAM: The Open Source CFD Toolbox           |
|  \\    /   O peration     | Version:  4.1                                   |
|   \\  /    A nd           | Web:      www.OpenFOAM.org                      |
|    \\/     M anipulation  |                                                 |
\*---------------------------------------------------------------------------*/
FoamFile
{
    version     2.0;
    format      ascii;
    class       surfaceScalarField;
    location    "700";
    object      phi;
}
// * * * * * * * * * * * * * * * * * * * * * * * * * * * * * * * * * * * * * //

dimensions      [0 3 -1 0 0 0 0];

internalField   nonuniform List<scalar> 
52920
(
-2457.79
195.088
-2635.81
178.016
-2810.97
175.154
-2982.05
171.069
-3149.87
167.806
-3314.89
165.016
-3477.44
162.549
-3637.29
159.844
-3792.89
155.587
-3940.06
147.162
-4069.29
129.23
-4165.25
95.9513
-4220.27
55.0108
-4244.27
23.9932
-4248.15
3.8748
-4235.32
-12.8363
-4202.51
-32.8167
-4142.87
-59.6413
-4045.73
-97.1468
-3894.77
-150.97
-3672.47
-222.305
-3364.3
-308.185
-2960.51
-403.792
-2457.77
-502.744
-1861.65
-596.131
-1193.26
-668.399
-480.346
-712.924
299.309
-779.67
1115.25
-815.952
1950.61
-835.373
2778.59
-827.996
3578.06
-799.473
4333.79
-755.736
5010.48
-676.705
5520.37
-509.896
5786.51
-266.149
5762.45
24.0596
5541.76
220.677
5336.27
205.48
5226.71
109.551
5164.71
61.9931
4995.52
169.19
4561.77
433.744
3822.15
739.615
2756.94
1065.2
1300.73
1456.2
-478.207
1778.92
-1858.11
1379.89
-2530.02
671.893
-2801.02
270.998
-3256.72
455.688
-3932.43
675.697
-4697
764.566
-5524.02
827.017
-6397.9
873.868
-7307.49
909.595
-8248.02
940.517
-9216.79
968.774
-10212.7
995.878
-11234.6
1021.88
-12279.8
1045.26
-13343.1
1063.25
-14415.8
1072.69
-15486.6
1070.81
-16542.6
1056.06
-17571.2
1028.55
-18561.6
990.42
-19507.3
945.755
-20407.1
899.781
-21264.7
857.528
-22087.1
822.484
-22882.9
795.738
-23658.6
775.729
-24417.1
758.466
-25155.1
738.051
-25862.6
707.43
-26521.9
659.352
-27109.5
587.581
-27597.7
488.219
-27958.3
360.596
-28165.3
206.987
-28196.2
30.867
-28032
-164.182
-27655.1
-376.826
-27049.8
-605.38
-26200.5
-849.291
-25091.9
-1108.56
-23710.3
-1381.66
-22047.5
-1662.74
-20109.6
-1937.93
-17925.1
-2184.51
-15547.4
-2377.66
-13044.5
-2502.93
-10463.8
-2580.73
-7720.46
-2743.31
-4428.32
-3292.14
-220.814
-4207.5
4486.72
-4707.53
11262.7
-6775.98
-12743.9
-2423.51
388.149
-2602.09
356.595
-2778.4
351.46
-2951.63
344.286
-3122.74
338.908
-3292.44
334.714
-3461.37
331.466
-3629.54
328.012
-3795.55
321.597
-3955.11
306.716
-4098.19
272.303
-4208.62
206.368
-4277.94
124.322
-4315.85
61.9032
-4333.32
21.3386
-4333.82
-12.3515
-4314.44
-52.1981
-4268.75
-105.336
-4186.55
-179.355
-4052.64
-284.889
-3850.89
-424.064
-3568
-591.081
-3195.26
-776.536
-2729.63
-968.377
-2173.23
-1152.53
-1530.29
-1311.35
-806.907
-1436.32
-21.7001
-1564.89
807.722
-1645.38
1650.55
-1678.21
2483.73
-1661.18
3286.41
-1602.16
4040.21
-1509.55
4707.06
-1343.55
5215.85
-1018.69
5503.07
-553.378
5488.24
38.8787
5226.55
482.355
5009.29
422.734
5034.97
83.8612
5211.2
-114.242
5281.52
98.8638
5051.26
664
4479.98
1310.89
3580.11
1965.07
2348.91
2687.39
734.245
3393.59
-1061.78
3175.91
-2197.59
1807.69
-2597.19
670.591
-3076.21
934.698
-3778.05
1377.53
-4561.96
1548.46
-5401.84
1666.9
-6286.1
1758.13
-7205.51
1829
-8156.54
1891.54
-9137.27
1949.5
-10147.1
2005.7
-11185.2
2059.98
-12249
2109.05
-13332.8
2147.03
-14427.3
2167.2
-15520.3
2163.78
-16597.7
2133.46
-17645.5
2076.41
-18652.2
1997.04
-19610.2
1903.79
-20518
1807.57
-21379.4
1718.94
-22202.2
1645.27
-22995.4
1588.97
-23766.7
1546.98
-24519.4
1511.21
-25251
1469.65
-25951.5
1407.92
-26603.4
1311.22
-27182.7
1166.87
-27661.5
967.042
-28011.6
710.708
-28207.7
403.098
-28229.1
52.2754
-28060
-333.277
-27686.1
-750.769
-27093.6
-1197.83
-26268.9
-1674.01
-25197.1
-2180.38
-23862.7
-2716.02
-22252.9
-3272.57
-20364.1
-3826.71
-18211.7
-4336.92
-15836.7
-4752.67
-13300.9
-5038.67
-10651.3
-5230.35
-7837.72
-5556.9
-4673.89
-6455.97
-927.372
-7954.02
3685.87
-9320.78
10780.8
-13870.9
-21918.5
-2382.69
576.5
-2562.28
536.177
-2739.88
529.059
-2915.7
520.097
-3090.72
513.921
-3265.89
509.884
-3442.05
507.618
-3619.3
505.256
-3796.04
498.329
-3967.36
478.026
-4122.15
427.092
-4242.9
327.111
-4320.33
201.744
-4364.7
106.27
-4387.99
44.6214
-4394.34
-6.00368
-4381.73
-64.8131
-4344.26
-142.815
-4271.68
-251.944
-4149.01
-407.565
-3960.2
-612.879
-3691.56
-859.729
-3333.44
-1134.66
-2881.35
-1420.48
-2335.78
-1698.11
-1700.04
-1947.1
-978.879
-2157.48
-193.876
-2349.89
632.084
-2471.35
1471.64
-2517.78
2299.28
-2488.82
3093.28
-2396.17
3834.27
-2250.55
4486.45
-1995.74
4996.05
-1528.3
5296.58
-853.913
5261.83
73.6214
4967.97
776.206
4876.35
514.344
5197.56
-237.355
5630.04
-546.723
5833.18
-104.29
5671.36
825.814
5164.19
1818.06
4359.93
2769.32
3282.71
3764.6
1902.99
4773.3
54.0322
5024.87
-1616.38
3478.09
-2383.91
1438.12
-2891.71
1442.49
-3622.75
2108.57
-4433.78
2359.49
-5290
2523.12
-6187.69
2655.8
-7119.43
2760.74
-8083.07
2855.18
-9077.47
2943.9
-10102.4
3030.67
-11157.2
3114.78
-12238.8
3190.65
-13340.6
3248.75
-14451.7
3278.36
-15558.3
3270.38
-16644.5
3219.66
-17694.7
3126.62
-18696
2998.31
-19640.5
2848.26
-20526.8
2693.9
-21360
2552.1
-22149.3
2434.67
-22905.9
2345.54
-23638.9
2280
-24353.3
2225.54
-25047.2
2163.6
-25711.3
2072
-26328.1
1928.03
-26873.7
1712.43
-27320.4
1413.73
-27640.9
1031.23
-27811.9
574.094
-27815.4
55.7563
-27637.7
-510.931
-27266.3
-1122.21
-26689.9
-1774.25
-25897.1
-2466.82
-24874.4
-3203
-23606.5
-3983.95
-22078.1
-4801.01
-20280.4
-5624.35
-18221.2
-6396.16
-15933.9
-7039.96
-13475.5
-7497.03
-10890.8
-7815.08
-8149.35
-8298.36
-5126.89
-9478.43
-1576.81
-11504.1
3046.68
-13944.3
9200.41
-20024.6
-28330.6
-2341.94
760.674
-2522.49
716.726
-2701.48
708.036
-2879.97
698.584
-3058.91
692.852
-3239.42
690.39
-3422.47
690.658
-3608.18
690.966
-3794.75
684.893
-3976.7
659.964
-4141.9
592.285
-4271.41
456.617
-4355.03
285.354
-4403.76
154.998
-4430.75
71.6076
-4440.72
3.9544
-4432.42
-73.1208
-4400.54
-174.699
-4334.5
-317.988
-4219.06
-523.019
-4037.87
-794.069
-3776.82
-1120.79
-3425.7
-1485.78
-2979.48
-1866.7
-2438.23
-2239.37
-1805.53
-2579.8
-1087.68
-2875.34
-304.421
-3133.16
519.4
-3295.18
1355.2
-3353.58
2175.55
-3309.18
2959.14
-3179.76
3687.15
-2978.57
4328.3
-2636.9
4841.23
-2041.23
5143.27
-1155.97
5079.14
137.742
4811.58
1043.76
4954.49
371.43
5566.94
-849.81
6144.11
-1123.9
6369.89
-330.079
6197
998.699
5696.12
2318.93
4936.99
3528.46
3965.75
4735.84
2783.86
5955.18
1134.49
6674.23
-845.933
5458.51
-2123.39
2715.58
-2733.81
2052.9
-3493.8
2868.55
-4339.46
3205.14
-5215.68
3399.33
-6127.95
3568.07
-7071.2
3703.99
-8044.65
3828.63
-9048.08
3947.32
-10081.8
4064.43
-11145.3
4178.19
-12234.7
4280.1
-13342.3
4356.31
-14455.6
4391.68
-15558.8
4373.62
-16634.5
4295.31
-17665.7
4157.81
-18638.9
3971.54
-19546.7
3756.08
-20389.3
3536.45
-21173.9
3336.7
-21912.6
3173.42
-22618.9
3051.82
-23303.9
2964.94
-23973.3
2895
-24625.8
2816.08
-25251.4
2697.65
-25832.3
2508.89
-26344
2224.17
-26759.3
1829.02
-27052.1
1324.02
-27201.2
723.223
-27191.3
45.8344
-27011
-691.262
-26649.3
-1483.88
-26096.8
-2326.78
-25343.5
-3220.14
-24377.1
-4169.42
-23182.4
-5178.59
-21743.4
-6240.08
-20048.2
-7319.46
-18100.4
-8344.01
-15930
-9210.35
-13593.4
-9833.62
-11137.6
-10270.9
-8542.48
-10893.5
-5700.19
-12320.7
-2376.27
-14828
1903.61
-18224.2
6889
-25010
-32809.2
-2302.34
940.972
-2483.78
898.169
-2664.09
888.334
-2845.17
879.655
-3027.82
875.504
-3213.31
875.875
-3402.71
880.045
-3596.22
884.471
-3791.94
880.614
-3983.98
851.995
-4159.21
767.515
-4296.98
594.379
-4385.73
374.098
-4437.26
206.521
-4466.11
100.448
-4477.65
15.4904
-4471.42
-79.3531
-4442.68
-203.448
-4380.41
-380.263
-4268.93
-634.505
-4091.57
-971.431
-3833.85
-1378.52
-3485.23
-1834.4
-3040.44
-2311.5
-2499.41
-2780.39
-1866.34
-3212.89
-1149.32
-3592.35
-367.368
-3915.12
453.22
-4115.77
1283.32
-4183.69
2095.66
-4121.52
2869.58
-3953.69
3587.38
-3696.37
4222.98
-3272.5
4740.1
-2558.36
5033.24
-1449.11
4942.26
228.715
4771.63
1214.38
5195.02
-51.9629
6015.71
-1670.51
6638.2
-1746.38
6833
-524.885
6619.56
1212.13
6095.63
2842.86
5344.06
4280.02
4428.95
5650.95
3373.54
7010.58
1983.55
8064.22
-7.22984
7449.29
-1743.79
4452.13
-2596.31
2905.41
-3394.82
3667.06
-4280.35
4090.66
-5179.74
4298.72
-6106.03
4494.35
-7057.53
4655.5
-8034.95
4806.04
-9039.4
4951.77
-10072.2
5097.23
-11133
5239.01
-12217.8
5364.91
-13317.6
5456.07
-14418.4
5492.49
-15502.9
5458.07
-16552.1
5344.6
-17548.7
5154.38
-18479.2
4902.05
-19337.4
4614.22
-20125.5
4324.56
-20853.6
4064.83
-21536.4
3856.22
-22189.1
3704.48
-22823.5
3599.36
-23445.5
3517.02
-24053.3
3423.89
-24637
3281.35
-25179.4
3051.23
-25657.6
2702.41
-26046.5
2217.9
-26321.8
1599.38
-26463.6
864.978
-26456.5
38.7509
-26288.7
-859.072
-25949.1
-1823.47
-25429.1
-2846.78
-24720.3
-3928.98
-23812.2
-5077.47
-22691.7
-6299.12
-21343.4
-7588.4
-19754.9
-8907.92
-17927.6
-10171.3
-15890.4
-11247.6
-13700.7
-12023.3
-11409.6
-12562
-9002.42
-13300.7
-6375.39
-14947.8
-3329.15
-17874.2
460.77
-22014.1
4378.74
-28927.9
-35908.7
-2265.81
1128.78
-2445.97
1078.33
-2627.71
1070.06
-2811.07
1063.01
-2997.14
1061.57
-3187.19
1065.91
-3382.41
1075.26
-3583.16
1085.22
-3787.6
1085.04
-3989.5
1053.89
-4174.7
952.712
-4320.41
740.077
-4413.27
466.958
-4466.01
259.249
-4494.86
129.291
-4506.11
26.7344
-4499.92
-85.5532
-4472.02
-231.349
-4411.12
-441.176
-4300.93
-744.7
-4124.46
-1147.9
-3866.95
-1636.04
-3517.69
-2183.65
-3071.4
-2757.8
-2528.16
-3323.64
-1892.83
-3848.22
-1175.08
-4310.09
-393.946
-4696.26
422.529
-4932.25
1245.57
-5006.73
2049.85
-4925.81
2815.86
-4719.71
3527.22
-4407.74
4162.57
-3907.86
4684.39
-3080.19
4962.19
-1726.92
4851.38
339.515
4833.83
1231.92
5533.51
-751.65
6474.5
-2611.5
7085.27
-2357.16
7229.19
-668.814
6965.62
1475.7
6405
3403.47
5638.3
5046.72
4741.36
6547.89
3750.91
8001.03
2552.72
9262.41
718.201
9283.8
-1299.75
6470.08
-2463.38
4069.03
-3320.82
4524.5
-4248.35
5018.18
-5173.08
5223.45
-6111.52
5432.79
-7066.76
5610.74
-8041.22
5780.49
-9037.99
5948.54
-10059.9
6119.13
-11107.4
6286.56
-12176.5
6433.96
-13257.1
6536.67
-14334
6569.4
-15388.5
6512.58
-16401
6357.02
-17353.4
6106.84
-18233.1
5781.7
-19035
5416.2
-19763.8
5053.34
-20431.7
4732.75
-21055.2
4479.68
-21650.3
4299.55
-22229.2
4178.26
-22798.2
4086.08
-23357
3982.7
-23898.4
3822.7
-24408.6
3561.4
-24867.8
3161.65
-25251.6
2601.74
-25533.8
1881.56
-25690.2
1021.36
-25701.7
50.2756
-25555
-1005.74
-25239.9
-2138.58
-24749.8
-3336.91
-24079.4
-4599.36
-23222.4
-5934.51
-22169.4
-7352.1
-20908.1
-8849.69
-19427.2
-10388.8
-17727.5
-11871
-15837.2
-13137.9
-13815.1
-14045.4
-11714.9
-14662.2
-9521.36
-15494.2
-7129.8
-17339.3
-4379.98
-20624.1
-1123.92
-25270.1
1908.25
-31960.1
-38041
-2229.7
1311.75
-2409.43
1258.05
-2592.11
1252.73
-2777.42
1248.32
-2966.55
1250.69
-3160.74
1260.1
-3361.33
1275.84
-3568.88
1292.77
-3781.69
1297.85
-3993.33
1265.52
-4188.49
1147.87
-4341.8
893.391
-4437.7
562.843
-4489.93
311.479
-4516.81
156.167
-4525.79
35.7058
-4517.6
-93.7513
-4488.43
-260.525
-4426.74
-502.871
-4315.62
-855.827
-4137.79
-1325.74
-3878.3
-1895.53
-3526.42
-2535.55
-3076.96
-3207.26
-2530.32
-3870.28
-1892.06
-4486.49
-1173.09
-5029.06
-392.942
-5476.42
418.429
-5743.62
1233.71
-5822.02
2030.83
-5722.93
2791.38
-5480.26
3500.37
-5116.74
4140.31
-4547.8
4666.78
-3606.66
4928.8
-1988.95
4821.37
446.944
4996.27
1057.01
5924.17
-1679.55
6917.18
-3604.52
7488.8
-2928.78
7575.41
-755.428
7257.4
1793.71
6652
4008.86
5857.14
5841.58
4955.14
7449.88
3989.8
8966.37
2904.37
10347.8
1278.91
10909.3
-849.575
8598.56
-2320.22
5539.68
-3262.91
5467.19
-4231.97
5987.24
-5182.68
6174.15
-6130.6
6380.71
-7084.86
6565
-8049.94
6745.57
-9031.46
6930.06
-10034.3
7122
-11060.3
7312.53
-12105.4
7479.02
-13158.7
7590.04
-14203.9
7614.62
-15221.2
7529.8
-16190
7325.85
-17092.5
7009.38
-17916.6
6605.71
-18658.4
6158.06
-19324.2
5719.16
-19927.8
5336.36
-20486.7
5038.58
-21018
4830.8
-21535.5
4695.77
-22048.7
4599.31
-22562.1
4496.02
-23073.7
4334.32
-23573.7
4061.44
-24042.3
3630.19
-24449.5
3009.03
-24760.7
2192.69
-24943.6
1204.24
-24975.5
82.1674
-24844.5
-1136.68
-24544.1
-2439.02
-24071.6
-3809.39
-23427
-5244
-22609.6
-6751.92
-21615.7
-8345.95
-20437.5
-10027.9
-19065.7
-11760.5
-17501.2
-13435.5
-15771.2
-14867.9
-13934.1
-15882.5
-12043.1
-16553.2
-10078.5
-17458.8
-7933.36
-19484.4
-5486.84
-23070.6
-2741.21
-28015.8
-398.094
-34303.2
-39510.9
-2194.74
1489.74
-2374.12
1437.43
-2557.18
1435.79
-2744.07
1435.21
-2935.85
1442.47
-3133.8
1458.04
-3339.37
1481.4
-3553.34
1506.73
-3774.22
1518.73
-3995.45
1486.74
-4200.5
1352.92
-4361.02
1053.9
-4458.65
660.468
-4508.42
361.248
-4531.12
178.853
-4535.59
40.1739
-4523.38
-105.966
-4491.11
-292.809
-4426.84
-567.147
-4313.11
-969.562
-4132.44
-1506.4
-3869.78
-2158.2
-3514.38
-2890.95
-3061.29
-3660.35
-2511.2
-4420.37
-1870.3
-5127.4
-1150.49
-5748.87
-371.95
-6254.96
433.603
-6549.18
1241.19
-6629.61
2032.65
-6514.39
2790.46
-6238.08
3501.15
-5827.43
4149.99
-5196.63
4681.36
-4138.04
4935.29
-2242.88
4872.17
510.051
5257.33
671.847
6338.42
-2760.65
7338.42
-4604.53
7858.92
-3449.29
7885.94
-782.447
7509.97
2169.67
6853.02
4665.82
6021.12
6673.48
5100.8
8370.19
4138.41
9928.75
3109.64
11376.6
1683.46
12335.4
-422.105
10704.1
-2150.83
7268.4
-3210.07
6526.42
-4219.34
6996.51
-5194.98
7149.79
-6149.42
7335.14
-7098.58
7514.15
-8049.33
7696.32
-9010.19
7890.92
-9988.52
8100.33
-10987.5
8311.49
-12003.2
8494.73
-13024.1
8610.9
-14032.4
8622.94
-15007.3
8504.73
-15928
8246.56
-16776.7
7858.1
-17541.8
7370.71
-18220.1
6836.43
-18818.7
6317.77
-19352.4
5870.02
-19840.1
5526.33
-20302
5292.61
-20756.6
5150.47
-21220.5
5063.11
-21704.8
4980.37
-22212.6
4842.1
-22733.2
4582.07
-23239.4
4136.32
-23689.1
3458.8
-24035.9
2539.46
-24241.2
1409.59
-24283
123.883
-24154.4
-1265.19
-23854.2
-2739.23
-23385
-4278.68
-22752.5
-5876.44
-21963.1
-7541.34
-21019.9
-9289.15
-19920.7
-11127.1
-18659.7
-13021.5
-17237.9
-14857.4
-15680.2
-16425.6
-14042.1
-17520.6
-12372.4
-18222.9
-10644.2
-19187
-8751.34
-21377.3
-6611.79
-25210.1
-4319.01
-30308.6
-2488.32
-36133.9
-40522.6
-2161.39
1662.75
-2339.96
1615.99
-2522.93
1618.75
-2710.97
1623.24
-2905.01
1636.5
-3106.35
1659.37
-3316.52
1691.57
-3536.54
1726.75
-3765.19
1747.38
-3995.82
1717.36
-4210.62
1567.72
-4377.73
1221.01
-4475.53
758.257
-4520.54
406.254
-4536.55
194.863
-4534.18
37.7991
-4516.09
-124.068
-4479.22
-329.677
-4411.08
-635.3
-4293.76
-1086.88
-4109.67
-1690.5
-3843.63
-2424.25
-3484.91
-3249.67
-3028.72
-4116.54
-2476.03
-4973.06
-1833.55
-5769.88
-1113.86
-6468.57
-337.786
-7031.04
461.687
-7348.66
1262.5
-7430.43
2050.24
-7302.13
2808.08
-6995.92
3524.25
-6543.61
4185.72
-5858.1
4723.96
-4676.29
4983.6
-2502.53
5005.47
488.177
5593.54
83.7699
6762.98
-3930.1
7741.47
-5583.02
8205.24
-3913.06
8170.82
-748.038
7732.92
2607.57
7017.78
5380.96
6141.58
7549.68
5194.96
9316.81
4224.37
10899.3
3219.3
12381.7
1950.95
13603.8
-37.8764
12693
-1948.08
9178.6
-3152.31
7730.65
-4200.15
8044.35
-5198.13
8147.77
-6156.25
8293.26
-7097.28
8455.18
-8030.67
8629.7
-8967.82
8828.07
-9918.63
9051.14
-10887.6
9280.46
-11870.9
9477.98
-12855.8
9595.83
-13823.5
9590.69
-14752.5
9433.67
-15621.7
9115.82
-16413.8
8650.18
-17117
8073.95
-17728.3
7447.63
-18254.4
6843.88
-18711.6
6327.24
-19122.7
5937.48
-19514.4
5684.28
-19914.1
5550.17
-20346.7
5495.71
-20829
5462.71
-21363.1
5376.2
-21930.1
5149.08
-22489.1
4695.26
-22984.1
3953.82
-23359.6
2914.97
-23575.8
1625.78
-23614.9
162.988
-23476.7
-1403.38
-23164.4
-3051.51
-22685.6
-4757.52
-22052.3
-6509.73
-21278.3
-8315.35
-20375
-10192.4
-19347.9
-12154.3
-18195.9
-14173.5
-16920.6
-16132.7
-15543
-17803.2
-14112
-18951.6
-12668.6
-19666.2
-11179.1
-20676.6
-9541.7
-23014.6
-7708.42
-27043.4
-5823.69
-32193.3
-4389.69
-37567.9
-41231.9
-2129.68
1830.84
-2307
1793.31
-2489.41
1801.15
-2678.17
1811.99
-2874.05
1832.38
-3078.39
1863.71
-3292.8
1905.98
-3518.52
1952.46
-3754.6
1983.46
-3994.37
1957.12
-4218.65
1791.99
-4391.55
1393.89
-4487.55
854.252
-4525.09
443.791
-4531.7
201.466
-4520.16
26.2544
-4494.64
-149.591
-4452.26
-372.068
-4379.6
-707.969
-4258.55
-1207.93
-4071.38
-1877.68
-3802.74
-2692.9
-3441.81
-3610.61
-2983.88
-4574.48
-2430.06
-5526.89
-1787.45
-6412.49
-1069.09
-7186.93
-296.253
-7803.88
497.558
-8142.47
1293.25
-8226.13
2079.4
-8088.27
2839.78
-7756.31
3564.74
-7268.57
4241.99
-6535.36
4791.41
-5225.71
5066.31
-2777.43
5198.97
355.503
5974.07
-691.331
7190.48
-5146.52
8130.41
-6522.94
8534.14
-4316.8
8436
-649.901
7931.79
3111.77
7151.79
6160.95
6224.96
8476.5
5246.91
10294.9
4263.06
11883.2
3265.32
13379.4
2106.84
14762.3
273.143
14526.6
-1735.88
11187.6
-3084.47
9079.23
-4166.93
9126.8
-5183.29
9164.13
-6142.67
9252.64
-7073.75
9386.26
-7988.58
9544.52
-8901
9740.49
-9823.24
9973.37
-10760.9
10218.1
-11709.8
10426.9
-12656.4
10542.4
-13580.7
10515
-14460.8
10313.8
-15276.3
9931.26
-16009.7
9383.58
-16648.5
8712.81
-17188.3
7987.42
-17636
7291.55
-18011.3
6702.52
-18344.8
6271.04
-18674
6013.48
-19036.9
5913.02
-19464.6
5923.39
-19973.2
5971.36
-20556.5
5959.54
-21182.2
5774.76
-21795.1
5308.16
-22329
4487.73
-22724.4
3310.31
-22943.2
1844.59
-22972.5
192.318
-22817.3
-1558.63
-22483.7
-3385.07
-21983.6
-5257.59
-21335.3
-7158.02
-20560.9
-9089.81
-19681.8
-11071.5
-18713.4
-13122.6
-17661.9
-15224.9
-16529.9
-17264.8
-15332.4
-19000.7
-14107.7
-20176.3
-12887.2
-20886.7
-11634
-21929.8
-10256.2
-24392.5
-8729.16
-28570.4
-7212.02
-33710.4
-6105.81
-38674.1
-41722.3
-2100.63
2001.89
-2275.2
1967.88
-2456.76
1982.7
-2645.75
2000.98
-2843.04
2029.67
-3049.98
2070.64
-3268.25
2124.25
-3499.28
2183.49
-3742.44
2226.62
-3991.04
2205.71
-4224.4
2025.35
-4401.98
1571.46
-4493.78
946.051
-4520.73
470.739
-4515.08
195.811
-4492.29
3.45683
-4458.41
-183.484
-4410.29
-420.19
-4333.26
-785.002
-4209.21
-1331.99
-4020.21
-2066.69
-3750.57
-2962.55
-3389.21
-3971.97
-2931.34
-5032.35
-2378.13
-6080.1
-1736.98
-7053.64
-1021.13
-7902.78
-252.024
-8572.98
537.196
-8931.69
1329.95
-9018.89
2116.64
-8874.97
2881.76
-8521.43
3618.15
-8004.96
4313.69
-7230.91
4879.68
-5791.7
5180.45
-3078.21
5445.76
90.188
6383.16
-1628.73
7617.78
-6381.14
8507.96
-7413.12
8848.61
-4657.46
8683.58
-484.874
8108.42
3686.93
7257.14
7012.23
6274.55
9459.09
5262.1
11307.3
4263.36
12881.9
3266.89
14375.9
2180.32
15848.8
504.67
16202.3
-1535.41
13227.7
-3005.62
10549.4
-4115.33
10236.5
-5144.86
10193.7
-6103.6
10211.4
-7023.97
10306.6
-7920.51
10441.1
-8808.64
10628.6
-9702.41
10867.1
-10608.2
11123.9
-11521.5
11340.2
-12427.7
11448.6
-13306.3
11393.6
-14135.6
11143.1
-14895.8
10691.4
-15569.1
10056.9
-16140.9
9284.61
-16604.4
8450.97
-16968.1
7655.26
-17259.4
6993.78
-17521.6
6533.21
-17805.1
6296.99
-18156
6263.92
-18605.3
6372.67
-19161
6527.06
-19804
6602.62
-20489.1
6459.87
-21151.4
5970.43
-21719.4
5055.7
-22131.8
3722.75
-22351.7
2064.5
-22368.9
209.478
-22191.9
-1735.63
-21829.1
-3747.89
-21296
-5790.71
-20616.8
-7837.17
-19822.6
-9883.99
-18946.6
-11947.6
-18016.5
-14052.7
-17048.3
-16193.2
-16046.5
-18266.6
-15018.2
-20029
-13987.1
-21207.3
-12975.1
-21898.7
-11951
-22953.8
-10839.4
-25504.1
-9625.4
-29784.4
-8449.66
-34886.2
-7618.6
-39505.2
-42045.7
-2072.89
2167.32
-2244.8
2139.79
-2425.08
2162.98
-2613.86
2189.75
-2812.1
2227.91
-3021.2
2279.74
-3242.91
2345.96
-3478.86
2419.42
-3728.7
2476.45
-3985.75
2462.76
-4227.65
2267.25
-4408.49
1752.3
-4493.19
1030.74
-4506.04
483.586
-4485.34
175.106
-4450.03
-31.8631
-4407.66
-225.866
-4354.13
-473.721
-4273.69
-865.45
-4148.19
-1457.49
-3959.31
-2255.57
-3690.8
-3231.07
-3331.13
-4331.64
-2875.29
-5488.18
-2324.4
-6631
-1686.13
-7691.91
-973.839
-8615.08
-208.732
-9338.09
577.32
-9717.75
1369.64
-9811.21
2159.04
-9664.37
2930.72
-9293.11
3680.47
-8754.72
4396.12
-7946.56
4984.1
-6379.68
5331.01
-3425.13
5748.08
-326.887
6813.21
-2693.87
8043.02
-7610.96
8874.25
-8244.35
9148.15
-4931.36
8912.26
-248.988
8261.62
4337.56
7333.33
7940.52
6291.54
10500.9
5243.77
12355.1
4230.79
13894.9
3235.36
15371.3
2195.64
16888.6
667.126
17730.8
-1354.01
15248.8
-2916.24
12111.7
-4043.88
11364.1
-5080.14
11229.9
-6036.76
11168
-6946.41
11216.3
-7825.87
11320.5
-8690.98
11493.7
-9556.94
11733.1
-10430.6
11997.5
-11307.1
12216.7
-12171.3
12312.8
-13002.5
12224.8
-13779.9
11920.5
-14484.1
11395.6
-15096.2
10668.9
-15597.8
9786.28
-15980.3
8833.4
-16256.7
7931.67
-16467.6
7204.68
-16672.6
6738.22
-16933.5
6557.86
-17297.5
6627.99
-17787.8
6862.98
-18400
7139.26
-19103.3
7305.86
-19844.2
7200.74
-20553.5
6679.79
-21156.8
5659
-21589.2
4155.09
-21811.1
2286.43
-21813.5
211.925
-21609.3
-1939.85
-21209
-4148.25
-20631.4
-6368.3
-19906.2
-8562.34
-19073
-10717.2
-18176.9
-12843.7
-17259.9
-14969.6
-16350.2
-17102.9
-15455.7
-19161
-14573.4
-20911.3
-13708.7
-22072.1
-12876.3
-22731.1
-12064.9
-23765.2
-11226.7
-26342.3
-10342.3
-30668.8
-9502.82
-35725.6
-8919.42
-40088.6
-42228.9
-2046.61
2327.13
-2215.97
2309.15
-2394.53
2341.55
-2582.65
2377.86
-2781.37
2426.62
-2992.15
2490.51
-3216.85
2570.65
-3457.26
2659.83
-3713.36
2732.54
-3978.43
2727.83
-4228.17
2516.99
-4410.51
1934.63
-4484.63
1104.86
-4479.57
478.522
-4441.38
136.908
-4393.33
-79.9114
-4343.32
-275.883
-4285.38
-531.669
-4203.2
-947.639
-4078.41
-1582.28
-3892.07
-2441.91
-3627.05
-3496.1
-3271.2
-4687.49
-2819.22
-5940.17
-2272.12
-7178.1
-1637.94
-8326.1
-930.056
-9322.97
-169.066
-10099.1
615.315
-10502.1
1409.68
-10605.6
2203.89
-10458.6
2983.73
-10073
3748.14
-9519.13
4484.92
-8683.34
5100
-6994.77
5512.3
-3837.43
6090.45
-905.05
7256.49
-3859.9
8463.07
-8817.54
9226.3
-9007.59
9429.89
-5134.95
9119.46
61.4363
8387.51
5069.51
7378.27
8949.76
6275.88
11603.3
5193.91
13437
4169.02
14919.8
3177.49
16362.8
2170.34
17895.7
775.855
19125.3
-1189.56
17214.2
-2816.14
13738.3
-3953.24
12501.2
-4988.72
12265.4
-5941.93
12121.2
-6841.2
12115.6
-7705.22
12184.5
-8548.93
12337.4
-9387.84
12572
-10229.1
12838.7
-11067.7
13055.4
-11888.5
13133.6
-12671.3
13007.6
-13396.4
12645.6
-14044.8
12044
-14594.5
11218.7
-15022.7
10214.5
-15320.1
9130.74
-15509.8
8121.42
-15650.9
7345.72
-15819.2
6906.59
-16081.6
6820.21
-16478
7024.39
-17018.5
7403.54
-17687.2
7807.94
-18446.4
8065.07
-19240.5
7994.83
-19998.8
7438.1
-20641.5
6301.7
-21095.1
4608.67
-21314.9
2506.28
-21294.7
191.674
-21054.4
-2180.11
-20607.8
-4594.93
-19976.6
-6999.41
-19194.9
-9344.05
-18308.8
-11603.3
-17373.9
-13778.7
-16446.2
-15897.3
-15567.3
-17981.8
-14750.5
-19977.9
-13981.2
-21680.6
-13242.1
-22811.2
-12543
-23430.3
-11910.3
-24397.9
-11343.8
-26908.8
-10812.5
-31200.1
-10327.8
-36210.3
-9991.92
-40424.5
-42279.9
-2022.09
2481.55
-2188.77
2475.82
-2365.25
2518.03
-2552.3
2564.9
-2751.03
2625.34
-2962.98
2702.47
-3190.16
2797.82
-3434.55
2904.22
-3696.42
2994.41
-3969.01
3000.42
-4225.75
2773.72
-4407.39
2116.27
-4466.91
1164.37
-4439.97
451.582
-4382.49
79.4181
-4322.52
-139.89
-4266.73
-331.682
-4206.25
-592.16
-4124.54
-1029.36
-4003.02
-1703.8
-3821.79
-2623.15
-3562.56
-3755.34
-3212.46
-5037.59
-2765.84
-6386.8
-2223.71
-7720.23
-1594.58
-8955.23
-891.881
-10025.7
-135.215
-10855.8
648.707
-11286.1
1447.33
-11404.2
2248.38
-11259.6
3037.89
-10862.5
3817.8
-10299
4575.93
-9441.47
5222.41
-7641.25
5715.54
-4330.58
6457.51
-1647.02
7703.94
-5106.33
8872.41
-9986.01
9557.86
-9693.05
9686.01
-5263.1
9298.18
449.259
8480.02
5887.66
7388.75
10041
6226.76
12765.3
5113.74
14550
4080.69
15952.8
3097.35
17346.2
2116.27
18876.8
844.631
20396.9
-1036.04
19094.9
-2703.66
15405.9
-3845.4
13643
-4871.93
13291.9
-5820.18
13069.4
-6709.44
13004.8
-7559.6
13034.7
-8383.56
13161.4
-9196.1
13384.5
-10004.5
13647.1
-10804.3
13855.2
-11580.6
13910
-12314.7
13741.7
-12988.2
13319
-13581.1
12637
-14067.2
11704.8
-14418.7
10565.9
-14629.2
9341.29
-14738.3
8230.48
-14826.2
7433.67
-14980.9
7061.24
-15264.5
7103.85
-15703.2
7463.13
-16294
7994.31
-17013.8
8527.73
-17824.2
8875.43
-18670.7
8841.4
-19480.2
8247.53
-20161.9
6983.43
-20628.7
5075.45
-20831.5
2709.06
-20772.5
132.715
-20483.9
-2468.75
-19982.8
-5095.97
-19293.8
-7688.45
-18452.9
-10184.9
-17510
-12546.3
-16527.5
-14761.1
-15573
-16851.8
-14701.4
-18853.4
-13932.6
-20746.7
-13240.5
-22372.7
-12580.5
-23471.2
-11953.8
-24057
-11439.1
-24912.6
-11115.7
-27232.3
-10954.1
-31361.7
-10864.1
-36300.3
-10807.4
-40481.2
-42187.7
-1999.4
2630.97
-2163.28
2639.7
-2337.38
2692.13
-2522.98
2750.5
-2721.24
2823.6
-2933.86
2915.08
-3162.97
3026.93
-3410.79
3152.04
-3677.91
3261.53
-3957.45
3279.95
-4220.15
3036.42
-4398.5
2294.62
-4438.84
1204.7
-4386.22
398.956
-4308.76
1.94959
-4239.01
-209.645
-4180.12
-390.579
-4119.38
-652.897
-4040.67
-1108.07
-3925.14
-1819.34
-3751.48
-2796.81
-3500.07
-4006.74
-3157.28
-5380.39
-2717.16
-6826.92
-2180.88
-8256.5
-1557.64
-9578.48
-861
-10722.3
-109.253
-11607.5
674.836
-12070.1
1479.51
-12208.9
2289.34
-12069.5
3090.07
-11663.2
3886.02
-11095
4665.01
-10220.5
5345.91
-8322.15
5931.68
-4916.36
6835.69
-2551.03
8145.86
-6416.5
9263.01
-11103.2
9859.83
-10289.9
9904.99
-5308.26
9437.3
916.948
8532.72
6792.24
7361.12
11212.6
6143.1
13983.3
5004.06
15689.1
3967.79
16989.1
2997.5
18316.5
2041.07
19833.2
883.011
21555
-887.822
20865.7
-2576.06
17094.1
-3722.8
14789.7
-4732.36
14301.5
-5673.42
14010.5
-6552.75
13884.2
-7390.25
13872.2
-8195.89
13967
-8982.61
14171.3
-9757.78
14422.3
-10517.8
14615.2
-11249.4
14641.5
-11935.3
14427.6
-12558.1
13941.8
-13096
13174.9
-13517
12125.8
-13789.3
10838.2
-13914.8
9466.82
-13954.8
8270.46
-14010.2
7489.07
-14171.9
7222.97
-14488.9
7420.82
-14971
7945.23
-15605.8
8629.15
-16369.2
9291.13
-17226
9732.26
-18123.5
9738.84
-18981
9105.02
-19690.7
7693.12
-20148.8
5533.61
-20307.8
2868.09
-20189
13.8613
-19840.1
-2817.67
-19280.6
-5655.47
-18535.6
-8433.41
-17641.4
-11079.2
-16647.6
-13540
-15619.9
-15788.8
-14633.3
-17838.4
-13754
-19732.7
-13009.9
-21490.8
-12366.3
-23016.3
-11747.2
-24090.3
-11132.1
-24672.1
-10648.6
-25396.2
-10490.3
-27390.5
-10678.8
-31173.2
-11029.2
-35949.9
-11317.1
-40193.3
-41919.1
-1979.12
2780.44
-2139.47
2800.04
-2311.02
2863.67
-2494.83
2934.3
-2692.19
3020.95
-2904.96
3127.84
-3135.43
3257.4
-3386.1
3402.71
-3657.89
3533.31
-3943.71
3565.77
-4211.17
3303.87
-4383.16
2466.6
-4399.32
1220.86
-4317.75
317.38
-4221.11
-94.6983
-4145.02
-285.738
-4086.21
-449.403
-4027.67
-711.446
-3954.55
-1181.2
-3847.61
-1926.29
-3683.7
-2960.72
-3441.77
-4248.68
-3107.43
-5714.74
-2674.62
-7259.73
-2144.88
-8786.25
-1528.37
-10195
-838.962
-11411.7
-93.3108
-12353.2
690.787
-12854.2
1502.66
-13020.8
2323.01
-12889.8
3136.51
-12476.7
3948.9
-11907.4
4747.67
-11019.2
5464.75
-9039.23
6151.46
-5603.07
7212.05
-3611.63
8571.21
-7775.67
9624.43
-12156.4
10121.3
-10786.7
10075.2
-5262.22
9526.13
1466.04
8538.81
7779.56
7291.63
12459.8
6023.76
15251.2
4865.5
16847.3
3831.92
18022.7
2879.59
19268.8
1949.54
20763.3
896.247
22608.3
-742.235
22504.2
-2430.75
18782.6
-3587.59
15946.6
-4573.52
15287.4
-5504.1
14941.1
-6373.03
14753.1
-7198.46
14697.6
-7986.87
14755.4
-8748.29
14932.7
-9489.93
15163.9
-10209.7
15335
-10896.6
15328.3
-11535.3
15066.3
-12108.8
14515.3
-12591.9
13658
-12946.3
12480.2
-13138.9
11030.7
-13185.5
9513.39
-13172.6
8257.54
-13216.3
7532.82
-13400.1
7406.78
-13753.9
7774.63
-14273.7
8464.98
-14943.3
9298.76
-15742
10089.8
-16639.4
10629.7
-17581.7
10681.1
-18475
9998.31
-19188.8
8406.98
-19605
5949.72
-19688.8
2951.91
-19493.3
-181.659
-19080.1
-3230.78
-18466.2
-6269.43
-17674.4
-9225.16
-16738.5
-12015.1
-15705.4
-14573.1
-14640.8
-16853.5
-13623.6
-18855.6
-12729
-20627.3
-11994.2
-22225.6
-11382
-23628.5
-10787.5
-24684.7
-10149.4
-25310.2
-9608.4
-25937.2
-9481.1
-27517.8
-9921.52
-30732.7
-10722.9
-35148.5
-11443.2
-39473
-41417.2
-1960.54
2924.98
-2117.43
2956.93
-2286.28
3032.52
-2468.01
3116.03
-2664.07
3217.01
-2876.48
3340.25
-3107.74
3488.65
-3360.63
3655.59
-3636.43
3809.11
-3927.8
3857.14
-4198.59
3574.65
-4360.72
2628.73
-4347.5
1207.63
-4234.97
204.849
-4122.68
-206.995
-4044.61
-363.819
-3987.97
-506.048
-3933.92
-765.503
-3868.96
-1246.16
-3772.92
-2022.33
-3620.56
-3113.09
-3389.32
-4479.92
-3064.2
-6039.86
-2639.27
-7684.67
-2116.69
-9308.83
-1507.92
-10803.8
-827.362
-12092.3
-89.7144
-13090.8
693.292
-13637.3
1512.7
-13840.2
2344.86
-13722
3172.63
-13304.5
4001.68
-12736.4
4818.71
-11836.3
5572.82
-9793.34
6365.65
-6395.9
7573.72
-4819.7
8967.08
-9169.02
9944.19
-13133.5
10330.5
-11173
10185.8
-5117.53
9555.17
2096.65
8491.42
8843.31
7176.68
13774.5
5867.77
16560.1
4698.65
18016.5
3674.37
19047
2744.8
20198.4
1844.58
21663.5
886.628
23566.2
-600.343
23991.2
-2266.66
20448.9
-3441.29
17121.2
-4399.48
16245.6
-5315.09
15856.7
-6172.43
15610.4
-6985.58
15510.8
-7757.47
15527.3
-8494.1
15669.3
-9202.19
15872
-9881.67
16014.5
-10524.3
15971
-11117.2
15659.2
-11642.7
15040.9
-12071.2
14086.5
-12358.2
12767.2
-12473.1
11145.6
-12451
9491.32
-12403.8
8210.32
-12453.6
7582.66
-12667
7620.17
-13054
8161.61
-13601.7
9012.68
-14295.4
9992.46
-15120.1
10914.6
-16049.4
11559
-17023.9
11655.6
-17931.1
10905.5
-18616.4
9092.26
-18954.8
6288.15
-18940.6
2937.71
-18667.4
-454.8
-18199.4
-3698.8
-17544.1
-6924.8
-16720.1
-10049.1
-15756.7
-12978.5
-14696.4
-15633.5
-13603
-17946.8
-12557.4
-19901.3
-11641.2
-21543.4
-10902.6
-22964.2
-10311.4
-24219.8
-9746.95
-25249.2
-9097.03
-25960.1
-8456.14
-26578.1
-8207.03
-27766.9
-8697.85
-30241.9
-9856.39
-33989.9
-11076
-38253.4
-40609.7
-1943.53
3064.79
-2097.18
3110.59
-2263.18
3198.51
-2442.61
3295.46
-2637.04
3411.43
-2848.63
3551.83
-3080.1
3720.12
-3334.54
3910.03
-3613.65
4088.21
-3909.74
4153.24
-4182.23
3847.14
-4330.52
2777.01
-4282.61
1159.73
-4138.58
60.8129
-4016.51
-329.073
-3941.35
-438.992
-3888.29
-559.11
-3840.82
-812.983
-3786.34
-1300.65
-3703.14
-2105.54
-3563.67
-3252.57
-3343.92
-4699.68
-3028.49
-6355.28
-2611.84
-8101.32
-2097.14
-9823.54
-1497.48
-11403.4
-827.961
-12761.8
-101.016
-13817.8
678.75
-14417
1504.99
-14666.4
2349.61
-14566.6