/*--------------------------------*- C++ -*----------------------------------*\
| =========                 |                                                 |
| \\      /  F ield         | OpenFOAM: The Open Source CFD Toolbox           |
|  \\    /   O peration     | Version:  4.1                                   |
|   \\  /    A nd           | Web:      www.OpenFOAM.org                      |
|    \\/     M anipulation  |                                                 |
\*---------------------------------------------------------------------------*/
FoamFile
{
    version     2.0;
    format      ascii;
    class       volVectorField;
    location    "700";
    object      U;
}
// * * * * * * * * * * * * * * * * * * * * * * * * * * * * * * * * * * * * * //

dimensions      [0 1 -1 0 0 0 0];

internalField   nonuniform List<vector> 
26785
(
(-8.99807e-14 0.0343643 -19.4616)
(-8.44796e-14 0.029442 -20.0883)
(-8.11467e-14 0.0267451 -20.7323)
(-7.66436e-14 0.0242042 -21.268)
(-7.45323e-14 0.0220053 -21.7535)
(-6.55109e-14 0.0200605 -22.1844)
(-6.44581e-14 0.018262 -22.5737)
(-5.82411e-14 0.0163769 -22.926)
(-5.43049e-14 0.0139099 -23.241)
(-4.21308e-14 0.00992225 -23.5069)
(-4.00702e-14 0.0026984 -23.6846)
(-3.37066e-14 -0.00933019 -23.6983)
(-2.79421e-14 -0.023344 -23.4902)
(-2.21585e-14 -0.0335318 -23.0962)
(-1.70228e-14 -0.0396423 -22.6005)
(-1.32064e-14 -0.0444347 -22.0456)
(-1.09145e-14 -0.0500874 -21.4315)
(-8.96804e-15 -0.0581522 -20.7374)
(-6.55585e-15 -0.0701949 -19.9246)
(9.90744e-16 -0.0883136 -18.9328)
(-4.30425e-15 -0.113332 -17.689)
(-4.87196e-15 -0.144653 -16.1316)
(5.81666e-16 -0.181085 -14.2226)
(-1.6074e-15 -0.220734 -11.9492)
(3.72027e-15 -0.260165 -9.3257)
(2.87266e-15 -0.293925 -6.39528)
(2.14546e-15 -0.323113 -3.25684)
(9.15943e-16 -0.365666 -0.203996)
(-5.45559e-17 -0.334006 2.93444)
(-2.87015e-14 -0.297247 6.14503)
(-5.17304e-14 -0.280204 9.28426)
(-5.58482e-14 -0.263283 12.2153)
(-3.82938e-14 -0.243288 14.8692)
(-3.35068e-14 -0.213638 17.2195)
(-1.03512e-14 -0.151529 19.0568)
(-1.06554e-14 -0.0631582 20.1266)
(-4.43297e-15 0.0342298 20.2305)
(5.53392e-15 0.0888741 19.4519)
(1.6364e-14 0.0785434 18.4191)
(2.50247e-14 0.0696863 17.6889)
(1.93427e-14 0.0872256 17.247)
(2.0383e-14 0.135123 16.7209)
(2.05554e-14 0.218274 15.6623)
(2.60927e-14 0.312474 13.7644)
(2.51214e-14 0.411857 10.9777)
(2.20337e-14 0.531812 7.31843)
(1.96848e-14 0.631061 2.7363)
(1.47699e-14 0.416806 -3.43123)
(1.77133e-14 0.218862 -6.31665)
(-4.00619e-15 0.11487 -6.57527)
(-2.57741e-14 0.165522 -7.76909)
(-3.44986e-14 0.234061 -9.40586)
(-2.83588e-14 0.261688 -11.3038)
(-2.91232e-14 0.279099 -13.362)
(-2.64945e-14 0.290646 -15.4755)
(-2.3908e-14 0.298324 -17.6346)
(-2.34561e-14 0.304377 -19.8149)
(-2.21563e-14 0.309582 -22.0097)
(-2.05997e-14 0.314434 -24.2159)
(-1.9725e-14 0.318932 -26.4321)
(-2.18939e-14 0.322551 -28.655)
(-2.34658e-14 0.324356 -30.8756)
(-2.49364e-14 0.323292 -33.0776)
(-2.95486e-14 0.318465 -35.2379)
(-3.7523e-14 0.309399 -37.3293)
(-4.16719e-14 0.296199 -39.3239)
(-4.71972e-14 0.279651 -41.1976)
(-5.29416e-14 0.261178 -42.9347)
(-5.88341e-14 0.242561 -44.5311)
(-6.48642e-14 0.225482 -45.9948)
(-6.93077e-14 0.211074 -47.343)
(-7.64161e-14 0.199641 -48.5973)
(-7.92158e-14 0.190584 -49.7778)
(-8.10546e-14 0.182478 -50.8974)
(-8.07813e-14 0.173268 -51.9582)
(-8.2991e-14 0.160528 -52.9479)
(-7.8571e-14 0.141791 -53.8399)
(-7.73485e-14 0.114963 -54.594)
(-7.43712e-14 0.0787512 -55.1614)
(-7.18749e-14 0.0329351 -55.4904)
(-7.01376e-14 -0.0217645 -55.5339)
(-7.03401e-14 -0.0842576 -55.2531)
(-7.68596e-14 -0.153524 -54.6182)
(-7.51261e-14 -0.228944 -53.6041)
(-7.5484e-14 -0.309655 -52.1894)
(-7.89042e-14 -0.395247 -50.3558)
(-7.99583e-14 -0.48537 -48.0857)
(-8.11935e-14 -0.578836 -45.3627)
(-8.42847e-14 -0.672628 -42.177)
(-8.73759e-14 -0.760701 -38.5339)
(-8.70266e-14 -0.834441 -34.4698)
(-8.6772e-14 -0.886305 -30.0751)
(-8.57472e-14 -0.915661 -25.4919)
(-8.33308e-14 -0.94246 -20.8029)
(-7.57446e-14 -1.04603 -15.9083)
(-7.22997e-14 -1.36716 -10.7153)
(-4.11986e-14 -1.84524 -4.62823)
(-3.00036e-14 -1.89756 6.50459)
(-3.11406e-14 -2.24511 5.65683)
(-3.34039e-14 -5.39155 36.0139)
(-7.78875e-14 0.112117 -19.1728)
(-6.87341e-14 0.0897066 -19.8178)
(-6.40604e-14 0.083355 -20.4754)
(-5.68277e-14 0.0762603 -21.0323)
(-5.18645e-14 0.0704659 -21.5444)
(-4.11513e-14 0.0655602 -22.0087)
(-4.07504e-14 0.0613295 -22.4394)
(-2.75114e-14 0.0570901 -22.8422)
(-1.79687e-14 0.0513133 -23.2175)
(-1.35486e-14 0.0410289 -23.5529)
(-6.2756e-15 0.02082 -23.8074)
(-1.59836e-15 -0.014311 -23.9004)
(6.90356e-16 -0.0559918 -23.7679)
(2.10589e-15 -0.0865713 -23.4428)
(6.3256e-15 -0.105244 -23.0107)
(5.85596e-15 -0.120411 -22.5143)
(4.07071e-15 -0.138468 -21.954)
(1.29121e-14 -0.163835 -21.3118)
(1.4715e-14 -0.200703 -20.5502)
(1.05948e-14 -0.254357 -19.6127)
(1.40873e-14 -0.326128 -18.4323)
(8.11372e-15 -0.41288 -16.9532)
(1.34622e-14 -0.509349 -15.1423)
(1.11665e-14 -0.608805 -12.9913)
(6.9454e-15 -0.703827 -10.5162)
(9.82139e-15 -0.786441 -7.74715)
(1.32786e-14 -0.857613 -4.72036)
(1.52407e-14 -0.929908 -1.54213)
(1.21152e-14 -0.919368 1.68746)
(1.44922e-15 -0.885048 4.94094)
(-1.03897e-14 -0.859223 8.11569)
(3.45477e-15 -0.813237 11.0851)
(8.03334e-15 -0.747591 13.7752)
(1.07019e-14 -0.64187 16.1349)
(1.8552e-14 -0.4465 17.9586)
(1.95887e-14 -0.188323 19.0973)
(2.43655e-14 0.110769 19.3349)
(2.70238e-14 0.306559 18.5325)
(2.47833e-14 0.288055 17.304)
(1.83457e-14 0.191163 16.7277)
(1.45263e-14 0.137387 16.9748)
(6.46709e-16 0.23104 17.2343)
(6.2992e-15 0.483682 16.8322)
(5.1085e-15 0.79394 15.405)
(9.53506e-15 1.11997 12.9792)
(1.56169e-14 1.48427 9.6641)
(1.15343e-14 1.83352 5.50477)
(9.05911e-15 1.63149 -0.256186)
(8.7098e-15 0.8408 -5.21595)
(-8.65248e-15 0.382115 -6.12606)
(-4.7156e-14 0.508065 -7.29516)
(-3.0876e-14 0.715564 -9.00213)
(-2.90119e-14 0.793175 -10.9569)
(-2.51009e-14 0.842681 -13.0457)
(-1.92937e-14 0.876596 -15.1848)
(-1.9737e-14 0.899908 -17.3672)
(-1.61252e-14 0.91897 -19.5726)
(-1.66716e-14 0.935851 -21.7958)
(-1.85278e-14 0.951968 -24.035)
(-1.75015e-14 0.967231 -26.2892)
(-1.72864e-14 0.979932 -28.5554)
(-1.95693e-14 0.987071 -30.8239)
(-2.52373e-14 0.985257 -33.077)
(-2.79628e-14 0.971614 -35.2895)
(-2.81424e-14 0.944569 -37.4317)
(-3.27225e-14 0.904378 -39.4726)
(-3.71543e-14 0.853452 -41.3857)
(-4.18446e-14 0.796232 -43.1532)
(-4.86193e-14 0.738335 -44.7699)
(-6.35703e-14 0.685113 -46.244)
(-6.46868e-14 0.640228 -47.5938)
(-7.0108e-14 0.604749 -48.8427)
(-7.90063e-14 0.5769 -50.0128)
(-7.89832e-14 0.552329 -51.1189)
(-7.62918e-14 0.52469 -52.1645)
(-6.96528e-14 0.486467 -53.1384)
(-6.95372e-14 0.430021 -54.0139)
(-6.59293e-14 0.348891 -54.7507)
(-6.48372e-14 0.239191 -55.299)
(-7.01935e-14 0.100534 -55.607)
(-6.76636e-14 -0.0642922 -55.628)
(-6.98244e-14 -0.25107 -55.3252)
(-7.85823e-14 -0.45588 -54.6735)
(-7.85234e-14 -0.677253 -53.6555)
(-7.21036e-14 -0.913628 -52.2542)
(-7.27041e-14 -1.16439 -50.4543)
(-7.70137e-14 -1.42955 -48.2401)
(-8.00761e-14 -1.70768 -45.594)
(-7.78668e-14 -1.99284 -42.4999)
(-7.21357e-14 -2.27067 -38.9501)
(-6.79345e-14 -2.51738 -34.9603)
(-6.24811e-14 -2.70573 -30.5944)
(-5.74385e-14 -2.81669 -25.971)
(-5.16233e-14 -2.86951 -21.1801)
(-3.37141e-14 -3.01007 -16.1837)
(-3.4472e-14 -3.54153 -10.9581)
(-2.65225e-14 -4.47036 -5.24042)
(-8.72471e-15 -5.04724 3.37808)
(-1.5604e-14 -7.52949 7.72758)
(-1.98887e-14 -12.9304 30.7312)
(-6.31243e-14 0.186927 -18.8281)
(-5.58996e-14 0.153291 -19.5002)
(-4.36487e-14 0.14271 -20.1726)
(-3.97579e-14 0.131649 -20.7549)
(-2.99221e-14 0.12274 -21.2987)
(-1.44967e-14 0.115467 -21.8025)
(-1.65505e-14 0.109482 -22.2811)
(-3.78264e-15 0.103588 -22.7406)
(4.13334e-15 0.0950843 -23.1806)
(1.22411e-14 0.0787546 -23.5857)
(1.86655e-14 0.0452136 -23.9101)
(2.19608e-14 -0.0141466 -24.0653)
(2.19051e-14 -0.0851432 -23.98)
(2.04122e-14 -0.137519 -23.6875)
(1.94256e-14 -0.169599 -23.2804)
(2.34969e-14 -0.195484 -22.807)
(1.46514e-14 -0.225596 -22.2698)
(2.28904e-14 -0.267305 -21.6556)
(1.67326e-14 -0.327753 -20.9258)
(2.34411e-14 -0.415371 -20.0246)
(2.16682e-14 -0.532336 -18.8864)
(9.06692e-15 -0.67382 -17.4548)
(1.05934e-14 -0.831633 -15.6944)
(1.34373e-14 -0.99515 -13.593)
(1.12872e-14 -1.15266 -11.162)
(1.28479e-14 -1.29222 -8.43106)
(1.60524e-14 -1.40867 -5.4429)
(1.41758e-14 -1.51217 -2.27578)
(8.35198e-15 -1.53889 0.97511)
(2.0793e-15 -1.50758 4.22284)
(2.67139e-17 -1.45357 7.38619)
(3.44042e-17 -1.3649 10.3438)
(-1.81812e-15 -1.24884 13.0148)
(9.99305e-16 -1.06935 15.3455)
(-1.36301e-15 -0.758956 17.1436)
(1.42254e-15 -0.350958 18.3603)
(5.78247e-15 0.166211 18.6567)
(9.56085e-15 0.532969 17.696)
(9.3937e-15 0.463008 16.4555)
(8.80834e-15 0.153591 16.6842)
(9.30143e-15 -0.00541356 17.9476)
(1.02495e-14 0.201948 18.7724)
(1.16502e-14 0.690063 18.5973)
(1.21572e-14 1.24435 17.2861)
(1.2844e-14 1.79194 15.0114)
(1.5719e-14 2.37135 11.971)
(1.31073e-14 2.96112 8.24356)
(7.25541e-15 3.02259 3.39263)
(-3.45141e-16 1.89153 -2.7176)
(-8.44865e-15 0.771056 -5.59473)
(-4.03845e-14 0.86235 -6.80812)
(-2.66529e-14 1.21863 -8.56701)
(-2.58199e-14 1.34136 -10.6148)
(-1.85979e-14 1.41754 -12.7479)
(-1.47016e-14 1.47251 -14.9229)
(-1.26859e-14 1.5112 -17.1366)
(-9.69911e-15 1.54382 -19.3732)
(-1.21697e-14 1.57334 -21.6296)
(-1.47262e-14 1.60195 -23.905)
(-1.58352e-14 1.62927 -26.1991)
(-1.62199e-14 1.65218 -28.508)
(-1.89204e-14 1.66533 -30.8203)
(-2.3217e-14 1.66274 -33.1153)
(-2.79317e-14 1.63935 -35.3639)
(-3.48685e-14 1.59243 -37.5322)
(-4.78147e-14 1.52241 -39.5857)
(-5.59972e-14 1.43351 -41.4946)
(-6.17297e-14 1.3335 -43.2397)
(-7.09935e-14 1.23224 -44.816)
(-7.86223e-14 1.13915 -46.234)
(-8.43487e-14 1.06071 -47.5158)
(-8.93689e-14 0.998871 -48.6889)
(-8.94756e-14 0.950654 -49.7798)
(-8.02353e-14 0.908661 -50.8068)
(-7.4384e-14 0.862086 -51.7757)
(-7.4776e-14 0.798141 -52.6767)
(-7.44486e-14 0.703857 -53.4836)
(-7.47149e-14 0.568323 -54.1559)
(-7.59305e-14 0.385138 -54.6436)
(-7.78838e-14 0.154044 -54.8958)
(-8.06306e-14 -0.119588 -54.8684)
(-8.5159e-14 -0.427783 -54.5292)
(-9.17808e-14 -0.763248 -53.8583)
(-9.5114e-14 -1.12373 -52.8409)
(-9.42435e-14 -1.50694 -51.4632)
(-9.3231e-14 -1.91228 -49.7144)
(-9.07196e-14 -2.3408 -47.5818)
(-8.72476e-14 -2.79208 -45.0484)
(-8.31128e-14 -3.25933 -42.0954)
(-7.71908e-14 -3.72288 -38.7075)
(-6.98626e-14 -4.14715 -34.8884)
(-5.85967e-14 -4.48825 -30.6862)
(-4.61863e-14 -4.71519 -26.2027)
(-3.25969e-14 -4.85838 -21.5297)
(-2.54148e-14 -5.1066 -16.6662)
(-1.82564e-14 -5.81078 -11.6054)
(-1.33431e-14 -7.05489 -6.12689)
(-8.54069e-16 -8.40365 1.56842)
(-1.42074e-14 -12.3125 7.98993)
(-1.49642e-14 -18.1603 24.2832)
(-4.84472e-14 0.260489 -18.4855)
(-4.27302e-14 0.219764 -19.1828)
(-3.28063e-14 0.205227 -19.8705)
(-2.37396e-14 0.191017 -20.4789)
(-1.28523e-14 0.179806 -21.0547)
(-8.33604e-15 0.171103 -21.5977)
(2.61808e-15 0.164391 -22.1227)
(1.13133e-14 0.157864 -22.6359)
(1.38952e-14 0.147457 -23.1359)
(1.90575e-14 0.12544 -23.6049)
(2.13858e-14 0.0781733 -23.9923)
(2.13656e-14 -0.00672408 -24.2022)
(2.0268e-14 -0.108794 -24.155)
(1.55418e-14 -0.184081 -23.885)
(2.18085e-14 -0.229811 -23.4931)
(2.11081e-14 -0.266241 -23.0333)
(1.81742e-14 -0.307974 -22.5094)
(1.33954e-14 -0.365486 -21.9129)
(1.90458e-14 -0.449223 -21.2044)
(1.75863e-14 -0.570623 -20.3265)
(1.59864e-14 -0.732497 -19.2129)
(1.10191e-14 -0.928137 -17.806)
(1.12744e-14 -1.14623 -16.0689)
(1.09381e-14 -1.37235 -13.9882)
(1.10734e-14 -1.59116 -11.5744)
(1.12539e-14 -1.78825 -8.85879)
(9.75738e-15 -1.95582 -5.88861)
(1.32274e-14 -2.09386 -2.73489)
(8.88093e-15 -2.14372 0.517614)
(-1.47516e-16 -2.11212 3.75723)
(-1.41812e-15 -2.03164 6.89871)
(-3.98153e-15 -1.90621 9.82981)
(-4.59194e-15 -1.74239 12.4691)
(-3.10853e-15 -1.4902 14.7693)
(4.87652e-15 -1.07508 16.5546)
(-6.6746e-15 -0.514218 17.8413)
(1.81588e-14 0.25191 18.1111)
(1.7094e-14 0.774758 17.0002)
(-1.43076e-15 0.518339 16.1118)
(8.49056e-15 -0.107425 17.4319)
(1.01195e-14 -0.294034 19.4189)
(3.65779e-15 0.126252 20.4109)
(5.65279e-15 0.887379 20.1817)
(1.40246e-14 1.67931 18.8123)
(1.62045e-14 2.42238 16.5569)
(1.72443e-14 3.17546 13.6878)
(1.86976e-14 3.94518 10.3221)
(1.62733e-14 4.32751 6.28091)
(-6.09357e-15 3.27589 0.486329)
(-1.29779e-14 1.4421 -4.67306)
(-2.71081e-14 1.25133 -6.41006)
(-1.4688e-14 1.74233 -8.18424)
(-5.37183e-15 1.91075 -10.3514)
(-8.4861e-15 2.00425 -12.5442)
(-7.14081e-15 2.07773 -14.7603)
(-1.1311e-15 2.13065 -17.0054)
(-2.14408e-15 2.17667 -19.2677)
(-6.97401e-15 2.21921 -21.5468)
(-1.21278e-14 2.26097 -23.844)
(-1.51924e-14 2.30098 -26.1594)
(-1.92939e-14 2.33427 -28.4887)
(-2.49495e-14 2.35274 -30.8182)
(-2.93835e-14 2.34746 -33.1234)
(-3.81903e-14 2.31108 -35.3714)
(-4.72876e-14 2.2397 -37.5242)
(-5.54799e-14 2.13418 -39.5442)
(-6.10872e-14 2.00097 -41.4001)
(-7.53359e-14 1.8518 -43.0727)
(-8.80455e-14 1.70153 -44.5602)
(-9.4434e-14 1.5643 -45.8777)
(-9.92236e-14 1.44979 -47.0537)
(-9.53597e-14 1.36093 -48.1217)
(-9.39251e-14 1.29336 -49.1127)
(-8.69776e-14 1.23625 -50.048)
(-9.38792e-14 1.17388 -50.9344)
(-1.00017e-13 1.08771 -51.7615)
(-9.36644e-14 0.959082 -52.5017)
(-9.68526e-14 0.772464 -53.1128)
(-9.18135e-14 0.519085 -53.5447)
(-9.65167e-14 0.199309 -53.7476)
(-9.86595e-14 -0.178283 -53.681)
(-9.98347e-14 -0.601637 -53.317)
(-9.9574e-14 -1.06038 -52.6407)
(-9.9818e-14 -1.5515 -51.6404)
(-1.05688e-13 -2.07159 -50.3047)
(-1.00368e-13 -2.62033 -48.6253)
(-9.63697e-14 -3.20043 -46.5911)
(-8.88847e-14 -3.81321 -44.186)
(-8.46888e-14 -4.45217 -41.3898)
(-7.883e-14 -5.09358 -38.1832)
(-7.24654e-14 -5.69044 -34.5625)
(-6.26247e-14 -6.17931 -30.5667)
(-4.89014e-14 -6.51155 -26.2907)
(-3.1994e-14 -6.72821 -21.8346)
(-2.00958e-14 -7.07297 -17.2227)
(-1.02871e-14 -7.95935 -12.4365)
(-1.20593e-14 -9.548 -7.23889)
(1.79685e-15 -11.6154 -0.305777)
(-1.17391e-14 -16.2533 6.28328)
(-1.09942e-14 -21.9229 17.7018)
(-3.52836e-14 0.334643 -18.1537)
(-2.99047e-14 0.28892 -18.8743)
(-1.82878e-14 0.270629 -19.5766)
(-1.16505e-14 0.254021 -20.2104)
(-1.94116e-15 0.2411 -20.817)
(5.05413e-15 0.231618 -21.3971)
(7.54459e-16 0.224858 -21.9653)
(1.21891e-14 0.218353 -22.5281)
(1.50484e-14 0.206535 -23.0838)
(1.68749e-14 0.178928 -23.613)
(1.75182e-14 0.117303 -24.0614)
(1.69129e-14 0.00516358 -24.3243)
(2.13325e-14 -0.130361 -24.3115)
(1.9441e-14 -0.230284 -24.0571)
(2.22187e-14 -0.29044 -23.6719)
(2.43951e-14 -0.337698 -23.2167)
(2.115e-14 -0.390809 -22.6966)
(1.98613e-14 -0.463338 -22.1081)
(1.84073e-14 -0.569725 -21.4103)
(1.70146e-14 -0.724526 -20.5439)
(1.56169e-14 -0.931136 -19.4412)
(1.07013e-14 -1.18104 -18.0438)
(8.45693e-15 -1.45985 -16.3139)
(4.2244e-15 -1.74924 -14.2375)
(2.22277e-15 -2.02994 -11.8254)
(2.4187e-15 -2.28419 -9.1102)
(3.93119e-15 -2.50114 -6.14295)
(4.65292e-15 -2.67457 -2.99434)
(5.64942e-15 -2.7466 0.252674)
(-3.28492e-15 -2.71563 3.4731)
(-5.98845e-15 -2.61045 6.58465)
(-8.46483e-15 -2.44683 9.48414)
(-5.81279e-15 -2.23284 12.0923)
(-5.59326e-15 -1.91022 14.3709)
(5.07473e-15 -1.40057 16.1613)
(3.74761e-15 -0.680932 17.4968)
(6.62912e-15 0.346528 17.6759)
(7.08881e-15 0.977828 16.495)
(4.31427e-15 0.394398 16.3356)
(2.89596e-15 -0.541254 18.6349)
(5.12355e-15 -0.634567 20.9558)
(6.74751e-15 0.0699021 21.8818)
(1.35516e-14 1.11822 21.5005)
(1.4257e-14 2.13388 19.9995)
(1.62818e-14 3.04295 17.6827)
(1.84269e-14 3.92371 14.874)
(2.06189e-14 4.81004 11.7335)
(2.29969e-14 5.4531 8.21441)
(-2.45451e-16 4.76726 3.37151)
(-1.46217e-14 2.55102 -3.04525)
(-1.67301e-14 1.76011 -6.04833)
(-4.74801e-15 2.28775 -7.87402)
(6.98449e-15 2.50591 -10.1708)
(7.41582e-16 2.60498 -12.4395)
(2.65701e-15 2.69193 -14.6978)
(3.98291e-15 2.7561 -16.9689)
(-1.39612e-15 2.81362 -19.244)
(-6.22449e-15 2.86812 -21.5274)
(-1.10483e-14 2.9225 -23.8232)
(-1.53273e-14 2.97479 -26.1337)
(-2.17433e-14 3.01771 -28.4544)
(-2.94223e-14 3.03989 -30.7697)
(-3.45362e-14 3.02924 -33.0521)
(-4.27109e-14 2.97604 -35.2647)
(-4.96553e-14 2.87548 -37.3666)
(-5.70975e-14 2.72922 -39.3183)
(-7.02098e-14 2.54651 -41.0881)
(-7.59295e-14 2.3438 -42.6591)
(-8.28109e-14 2.14164 -44.0336)
(-8.41044e-14 1.95939 -45.233)
(-8.59092e-14 1.80996 -46.292)
(-8.27844e-14 1.69678 -47.2491)
(-7.96431e-14 1.61337 -48.1379)
(-7.4543e-14 1.54466 -48.9799)
(-8.31697e-14 1.46936 -49.7811)
(-8.50635e-14 1.36285 -50.53)
(-9.69354e-14 1.20084 -51.1993)
(-1.00683e-13 0.963712 -51.7492)
(-8.99178e-14 0.641161 -52.1329)
(-9.20459e-14 0.235113 -52.3047)
(-8.46457e-14 -0.241957 -52.227)
(-8.38945e-14 -0.773844 -51.8723)
(-8.77528e-14 -1.34776 -51.2243)
(-8.00454e-14 -1.96093 -50.27)
(-8.23317e-14 -2.60885 -48.9981)
(-8.24714e-14 -3.29135 -47.4021)
(-7.76793e-14 -4.01281 -45.4737)
(-7.35298e-14 -4.77665 -43.2)
(-7.06868e-14 -5.57753 -40.5629)
(-6.77765e-14 -6.38905 -37.5427)
(-6.4217e-14 -7.15413 -34.1327)
(-5.9323e-14 -7.79001 -30.3663)
(-4.78556e-14 -8.22813 -26.3358)
(-3.03112e-14 -8.51391 -22.1514)
(-1.56291e-14 -8.93692 -17.8568)
(-7.54039e-15 -9.97467 -13.4127)
(-7.80534e-15 -11.8687 -8.564)
(-6.29273e-15 -14.5313 -2.39953)
(-8.26078e-15 -19.4131 3.64906)
(-9.44134e-15 -24.5649 11.5615)
(-2.54519e-14 0.407701 -17.8671)
(-2.07861e-14 0.360223 -18.5708)
(-1.21201e-14 0.338839 -19.2919)
(-7.99598e-15 0.3205 -19.9481)
(-2.70691e-17 0.306487 -20.5836)
(4.63884e-15 0.296869 -21.198)
(6.42884e-15 0.290766 -21.8063)
(1.13975e-14 0.285051 -22.4152)
(1.69598e-14 0.272559 -23.0234)
(2.10725e-14 0.239833 -23.611)
(2.09588e-14 0.163614 -24.1201)
(2.34209e-14 0.0227294 -24.4358)
(3.06154e-14 -0.148658 -24.4542)
(3.23094e-14 -0.274862 -24.2082)
(3.07905e-14 -0.349923 -23.8209)
(2.77137e-14 -0.407941 -23.3614)
(2.53065e-14 -0.472094 -22.8367)
(2.85328e-14 -0.559157 -22.2467)
(2.09832e-14 -0.687927 -21.5504)
(1.54495e-14 -0.876212 -20.6855)
(1.08778e-14 -1.12781 -19.583)
(1.32405e-14 -1.43229 -18.1839)
(6.94172e-15 -1.77207 -16.4497)
(-1.53054e-16 -2.12482 -14.367)
(1.38565e-15 -2.46738 -11.947)
(-5.74952e-16 -2.77855 -9.22435)
(-3.78608e-15 -3.04423 -6.25307)
(-3.10031e-15 -3.25286 -3.10499)
(3.39424e-16 -3.34381 0.133383)
(-3.85101e-15 -3.31076 3.3268)
(-7.24432e-15 -3.18087 6.40373)
(-3.15721e-15 -2.97902 9.27147)
(-3.87443e-15 -2.71544 11.8548)
(-9.31406e-16 -2.32731 14.1241)
(-2.2178e-15 -1.72921 15.9356)
(-5.50703e-15 -0.835989 17.3002)
(-2.03743e-15 0.459986 17.3491)
(-1.16241e-15 1.11485 16.2067)
(-4.46018e-16 0.0758687 17.023)
(5.69354e-16 -1.08414 20.0155)
(9.61567e-15 -0.978232 22.4035)
(1.76282e-14 0.0478242 23.1669)
(1.72682e-14 1.38454 22.6076)
(1.97643e-14 2.61333 20.9466)
(1.90204e-14 3.66993 18.5272)
(1.96318e-14 4.64733 15.7018)
(2.12778e-14 5.60667 12.6625)
(2.53901e-14 6.41787 9.42468)
(8.56434e-15 6.1871 5.40498)
(-1.51703e-14 3.95107 -1.10428)
(-1.12218e-14 2.4719 -5.62628)
(5.1936e-15 2.86413 -7.63338)
(1.68993e-14 3.12929 -10.0531)
(8.85348e-15 3.22146 -12.4115)
(7.56427e-15 3.31386 -14.71)
(1.33906e-15 3.38433 -16.9984)
(-5.58102e-15 3.44969 -19.2708)
(-8.69724e-15 3.51379 -21.538)
(-1.25716e-14 3.57935 -23.8087)
(-1.83186e-14 3.64296 -26.0885)
(-2.51657e-14 3.69438 -28.3743)
(-3.16664e-14 3.71847 -30.6488)
(-3.64869e-14 3.69966 -32.8819)
(-4.39213e-14 3.6259 -35.0336)
(-5.12071e-14 3.49169 -37.0606)
(-5.81484e-14 3.29997 -38.9223)
(-6.65557e-14 3.06333 -40.5877)
(-7.42515e-14 2.80362 -42.0424)
(-8.1552e-14 2.54774 -43.2935)
(-8.58647e-14 2.32046 -44.368)
(-9.32989e-14 2.13761 -45.3051)
(-8.97497e-14 2.00248 -46.1463)
(-9.66331e-14 1.90576 -46.9257)
(-1.03607e-13 1.82783 -47.6652)
(-1.10413e-13 1.74201 -48.3721)
(-1.09069e-13 1.61829 -49.0389)
(-1.17467e-13 1.42764 -49.6448)
(-1.19397e-13 1.14688 -50.1569)
(-1.11204e-13 0.763905 -50.5321)
(-1.10308e-13 0.280936 -50.7227)
(-1.03512e-13 -0.28732 -50.6833)
(-9.26058e-14 -0.921632 -50.3769)
(-7.32671e-14 -1.60655 -49.7808)
(-5.56126e-14 -2.33791 -48.8828)
(-4.40964e-14 -3.10895 -47.674)
(-4.63077e-14 -3.919 -46.1524)
(-4.82071e-14 -4.77359 -44.3165)
(-4.45302e-14 -5.67824 -42.1608)
(-4.45926e-14 -6.62937 -39.6732)
(-4.62277e-14 -7.59905 -36.837)
(-4.98049e-14 -8.52086 -33.6449)
(-5.06354e-14 -9.29248 -30.1271)
(-4.61592e-14 -9.82465 -26.3744)
(-3.11024e-14 -10.1675 -22.505)
(-1.4248e-14 -10.6586 -18.5715)
(-5.34504e-15 -11.8373 -14.5079)
(-4.45053e-15 -13.9961 -10.0533)
(-1.29254e-15 -17.0878 -4.62948)
(-1.15035e-15 -21.8887 0.615538)
(-1.2045e-14 -26.4342 6.07699)
(-1.87901e-14 0.488132 -17.5734)
(-1.29373e-14 0.432073 -18.28)
(-9.49234e-15 0.409783 -19.0144)
(-5.39968e-15 0.390162 -19.6905)
(1.77759e-15 0.375723 -20.3522)
(1.10264e-14 0.366573 -20.9984)
(1.34576e-14 0.361793 -21.6438)
(1.68897e-14 0.357618 -22.2959)
(2.12964e-14 0.345225 -22.9542)
(2.57915e-14 0.307893 -23.599)
(2.36608e-14 0.216738 -24.1691)
(3.03229e-14 0.0451182 -24.5376)
(2.93389e-14 -0.165364 -24.5837)
(2.55628e-14 -0.320166 -24.3385)
(2.15081e-14 -0.410985 -23.9396)
(2.19556e-14 -0.479845 -23.4662)
(1.88658e-14 -0.554719 -22.928)
(1.47552e-14 -0.655676 -22.3276)
(1.38097e-14 -0.806319 -21.6243)
(6.20949e-15 -1.02796 -20.7523)
(1.11987e-14 -1.32458 -19.6418)
(8.19222e-15 -1.6838 -18.2331)
(2.79881e-15 -2.08478 -16.4877)
(1.05188e-15 -2.50109 -14.3927)
(-7.90438e-16 -2.90548 -11.9606)
(-5.21835e-15 -3.27303 -9.22771)
(-8.66214e-15 -3.58607 -6.2508)
(-7.40202e-15 -3.82838 -3.10298)
(-8.92021e-15 -3.93454 0.122854)
(-3.86355e-15 -3.89743 3.28319)
(-9.79664e-15 -3.74425 6.3252)
(-7.49248e-15 -3.50581 9.16547)
(-4.20506e-15 -3.19466 11.7332)
(-2.55235e-15 -2.74646 14.0063)
(-1.86585e-15 -2.06213 15.8531)
(-6.50734e-15 -0.978683 17.2268)
(-4.10422e-15 0.582039 17.1475)
(-3.51609e-15 1.15334 16.2174)
(-6.52299e-16 -0.416565 18.0369)
(1.1145e-15 -1.67825 21.4282)
(1.0532e-14 -1.29566 23.7377)
(8.68343e-15 0.0703288 24.3072)
(1.84186e-14 1.69301 23.563)
(1.79141e-14 3.12513 21.7246)
(1.81841e-14 4.31414 19.1783)
(1.95963e-14 5.36694 16.2929)
(2.08299e-14 6.37146 13.2728)
(2.69972e-14 7.27771 10.1649)
(1.92164e-14 7.46473 6.66889)
(-1.03106e-14 5.49174 0.747761)
(7.3608e-15 3.40443 -5.0742)
(2.54998e-14 3.48796 -7.44364)
(2.36741e-14 3.78141 -9.97113)
(1.39443e-14 3.85482 -12.4273)
(6.6124e-15 3.94192 -14.7618)
(-3.05184e-15 4.01209 -17.0575)
(-9.7664e-15 4.08024 -19.3126)
(-1.26193e-14 4.15063 -21.5455)
(-1.64103e-14 4.22546 -23.7713)
(-2.15592e-14 4.29929 -26.0005)
(-2.75134e-14 4.35815 -28.2315)
(-3.30793e-14 4.38251 -30.4464)
(-4.05641e-14 4.35305 -32.6122)
(-4.98945e-14 4.25542 -34.6861)
(-5.80093e-14 4.08377 -36.623)
(-6.91929e-14 3.8427 -38.3817)
(-7.85959e-14 3.54877 -39.9321)
(-9.55941e-14 3.22975 -41.2627)
(-1.10631e-13 2.91929 -42.3841)
(-1.17579e-13 2.64753 -43.3273)
(-1.27494e-13 2.43276 -44.1345)
(-1.31665e-13 2.2776 -44.8489)
(-1.45797e-13 2.16981 -45.507)
(-1.51417e-13 2.08567 -46.1352)
(-1.54102e-13 1.99407 -46.7488)
(-1.50906e-13 1.86051 -47.3514)
(-1.40077e-13 1.65123 -47.9322)
(-1.26329e-13 1.33808 -48.4618)
(-1.11282e-13 0.904443 -48.8902)
(-9.76592e-14 0.350337 -49.1531)
(-8.21269e-14 -0.307943 -49.1862)
(-6.25931e-14 -1.04633 -48.9399)
(-5.25594e-14 -1.84369 -48.3897)
(-3.09417e-14 -2.69297 -47.5321)
(-1.33249e-14 -3.58458 -46.3641)
(-8.37685e-15 -4.51659 -44.8925)
(-5.49053e-15 -5.49528 -43.1261)
(-6.91706e-15 -6.52849 -41.0697)
(-1.17732e-14 -7.61545 -38.7201)
(-1.71981e-14 -8.72826 -36.0661)
(-2.70146e-14 -9.79257 -33.101)
(-3.58853e-14 -10.6865 -29.8516)
(-3.97479e-14 -11.2987 -26.4059)
(-3.26831e-14 -11.6831 -22.8851)
(-2.02891e-14 -12.2284 -19.3408)
(-4.41408e-15 -13.5365 -15.6783)
(2.14786e-16 -15.9217 -11.6448)
(-2.7743e-15 -19.2831 -6.91711)
(-6.5349e-15 -23.8321 -2.50913)
(-1.23009e-14 -27.7579 1.31104)
(-1.97912e-14 0.565437 -17.2862)
(-1.29904e-14 0.505548 -18.0019)
(-9.89036e-15 0.482883 -18.7435)
(-5.28712e-15 0.46274 -19.4366)
(2.35807e-15 0.448536 -20.1217)
(9.49503e-15 0.440475 -20.7969)
(1.57413e-14 0.437689 -21.4769)
(2.08686e-14 0.435842 -22.1698)
(2.04759e-14 0.424423 -22.8762)
(2.64222e-14 0.383182 -23.577)
(3.14744e-14 0.276923 -24.2081)
(3.21657e-14 0.072528 -24.6291)
(2.77754e-14 -0.180559 -24.6986)
(2.2108e-14 -0.366377 -24.4453)
(1.76653e-14 -0.473665 -24.024)
(1.29179e-14 -0.553198 -23.5261)
(1.38538e-14 -0.638291 -22.9648)
(1.1803e-14 -0.752472 -22.3462)
(9.50319e-15 -0.924541 -21.6287)
(7.3835e-15 -1.17946 -20.7433)
(5.36779e-15 -1.52114 -19.6194)
(3.32593e-15 -1.93519 -18.1971)
(-1.50692e-15 -2.39743 -16.4378)
(-4.84927e-15 -2.87721 -14.3294)
(-4.30048e-15 -3.3432 -11.8856)
(-8.25618e-15 -3.7666 -9.14407)
(-1.14919e-14 -4.12594 -6.16389)
(-1.78032e-14 -4.40044 -3.01901)
(-1.27127e-14 -4.51831 0.190219)
(-9.15273e-15 -4.47538 3.31455)
(-1.24323e-14 -4.30067 6.32451)
(-1.00341e-14 -4.02766 9.14405)
(-6.22235e-15 -3.67166 11.7064)
(-4.09916e-15 -3.16877 13.9968)
(-4.39665e-15 -2.39613 15.8917)
(-8.44068e-15 -1.11079 17.2579)
(-4.32884e-15 0.694713 17.1098)
(-2.83529e-15 1.05104 16.6046)
(-8.16721e-17 -1.03675 19.2494)
(9.5898e-16 -2.28409 22.8156)
(7.67315e-15 -1.57496 24.9764)
(1.17175e-14 0.138627 25.3444)
(1.90557e-14 2.04436 24.4107)
(1.84697e-14 3.67286 22.3789)
(1.76762e-14 4.98202 19.6855)
(1.90773e-14 6.09434 16.7137)
(2.04547e-14 7.12529 13.6674)
(2.61764e-14 8.07966 10.6072)
(2.74315e-14 8.5874 7.39051)
(-2.28461e-15 7.06283 2.29656)
(1.82229e-14 4.54111 -4.33604)
(4.31562e-14 4.18284 -7.27336)
(2.85521e-14 4.46202 -9.89708)
(1.57184e-14 4.50548 -12.452)
(2.80343e-15 4.57467 -14.8167)
(-7.15914e-15 4.6368 -17.1106)
(-1.18131e-14 4.70183 -19.3369)
(-1.49904e-14 4.77471 -21.5225)
(-2.07983e-14 4.85675 -23.6901)
(-2.52104e-14 4.93973 -25.8558)
(-2.96773e-14 5.0051 -28.0198)
(-3.53883e-14 5.02826 -30.1631)
(-4.41174e-14 4.98582 -32.2499)
(-5.55189e-14 4.86129 -34.2351)
(-6.83918e-14 4.64879 -36.0717)
(-8.32838e-14 4.35506 -37.7188)
(-9.98542e-14 4.00097 -39.1476)
(-1.21176e-13 3.62059 -40.3481)
(-1.37653e-13 3.25443 -41.3332)
(-1.4737e-13 2.93791 -42.1359)
(-1.53701e-13 2.69168 -42.8009)
(-1.51077e-13 2.51795 -43.3757)
(-1.54159e-13 2.40242 -43.9048)
(-1.51179e-13 2.31859 -44.427)
(-1.46056e-13 2.23185 -44.9727)
(-1.29469e-13 2.10286 -45.5581)
(-1.09625e-13 1.89084 -46.1762)
(-8.05708e-14 1.55867 -46.7876)
(-5.58228e-14 1.08134 -47.3193)
(-3.37036e-14 0.455287 -47.6794)
(-1.24581e-14 -0.299391 -47.7847)
(-3.63402e-15 -1.14941 -47.581)
(1.09981e-14 -2.06413 -47.0518)
(2.97675e-14 -3.03266 -46.2069)
(3.54898e-14 -4.04258 -45.0516)
(4.74401e-14 -5.09015 -43.6032)
(4.73119e-14 -6.18214 -41.8825)
(4.33119e-14 -7.32895 -39.9067)
(3.31098e-14 -8.53359 -37.6839)
(1.74211e-14 -9.76996 -35.2104)
(6.81433e-16 -10.9577 -32.4814)
(-1.77543e-14 -11.9565 -29.5197)
(-2.94144e-14 -12.6328 -26.4067)
(-2.82808e-14 -13.0454 -23.2596)
(-1.80996e-14 -13.6362 -20.1202)
(-5.29846e-15 -15.0658 -16.8681)
(-1.92043e-15 -17.6406 -13.2713)
(-6.57318e-15 -21.1496 -9.19954)
(-4.37974e-15 -25.3873 -5.54929)
(-1.19476e-14 -28.7082 -2.77283)
(-2.64903e-14 0.63991 -17.0143)
(-1.93238e-14 0.580249 -17.7351)
(-1.59067e-14 0.557705 -18.4795)
(-8.34323e-15 0.537914 -19.1863)
(1.22835e-15 0.524647 -19.8915)
(5.49782e-15 0.518339 -20.5933)
(9.66148e-15 0.518241 -21.3055)
(1.78453e-14 0.519536 -22.0369)
(2.31789e-14 0.510032 -22.7894)
(2.80579e-14 0.465681 -23.545)
(3.31255e-14 0.344168 -24.2368)
(2.93299e-14 0.104616 -24.7092)
(2.28982e-14 -0.19529 -24.7967)
(1.75278e-14 -0.415055 -24.5244)
(1.36147e-14 -0.539659 -24.0683)
(9.92575e-15 -0.629618 -23.5345)
(7.8412e-15 -0.724128 -22.9405)
(1.02796e-14 -0.850572 -22.2974)
(9.63368e-15 -1.04344 -21.5606)
(2.60126e-15 -1.33136 -20.6581)
(1.82158e-15 -1.71795 -19.5191)
(-5.13628e-16 -2.18673 -18.0834)
(-6.28961e-15 -2.71014 -16.312)
(-4.70458e-15 -3.25318 -14.1934)
(-9.49357e-15 -3.78039 -11.742)
(-1.53406e-14 -4.25892 -8.99672)
(-1.82727e-14 -4.66344 -6.01818)
(-1.96426e-14 -4.96852 -2.88059)
(-1.44141e-14 -5.09504 0.308326)
(-1.27457e-14 -5.04529 3.3976)
(-1.05939e-14 -4.85133 6.3814)
(-1.09772e-14 -4.54638 9.18817)
(-7.83328e-15 -4.14907 11.7554)
(-2.86912e-15 -3.59657 14.0756)
(-6.14124e-15 -2.73098 16.0299)
(-1.133e-14 -1.24123 17.3846)
(-7.86338e-15 0.769855 17.2673)
(-3.33736e-15 0.796379 17.3504)
(-4.91173e-16 -1.73647 20.5807)
(-5.65923e-16 -2.87648 24.1682)
(2.52921e-15 -1.81017 26.1453)
(3.04711e-15 0.254969 26.3106)
(1.14564e-14 2.44193 25.1797)
(1.40063e-14 4.26099 22.937)
(1.57632e-14 5.67845 20.0774)
(1.85743e-14 6.83607 16.9997)
(2.07829e-14 7.87891 13.9034)
(2.47625e-14 8.85355 10.8517)
(3.09597e-14 9.57781 7.76081)
(5.46759e-15 8.57387 3.43408)
(2.44347e-14 5.86208 -3.41579)
(5.52255e-14 4.97467 -7.0898)
(3.13848e-14 5.171 -9.80785)
(1.58457e-14 5.17301 -12.4545)
(4.25588e-16 5.21093 -14.8436)
(-9.04075e-15 5.25688 -17.1283)
(-1.33069e-14 5.31255 -19.3188)
(-1.74939e-14 5.38396 -21.4499)
(-2.24199e-14 5.47111 -23.5526)
(-2.53814e-14 5.56219 -25.648)
(-3.07696e-14 5.6331 -27.7384)
(-3.88087e-14 5.65347 -29.8031)
(-4.98997e-14 5.59566 -31.8035)
(-6.41693e-14 5.44125 -33.6919)
(-8.1408e-14 5.18476 -35.4209)
(-1.03777e-13 4.83544 -36.9505)
(-1.22245e-13 4.41858 -38.2528)
(-1.41355e-13 3.97454 -39.3178)
(-1.51232e-13 3.55073 -40.1582)
(-1.51171e-13 3.18827 -40.8081)
(-1.48221e-13 2.91095 -41.3175)
(-1.38811e-13 2.72197 -41.7454)
(-1.28104e-13 2.6065 -42.153)
(-1.15122e-13 2.53605 -42.5982)
(-1.1046e-13 2.47171 -43.1265)
(-1.0548e-13 2.36621 -43.7582)
(-6.8215e-14 2.16689 -44.475)
(-2.76737e-14 1.82301 -45.2115)
(1.0303e-15 1.29932 -45.8631)
(3.88869e-14 0.591081 -46.3127)
(6.31786e-14 -0.272438 -46.4683)
(7.72627e-14 -1.24377 -46.2815)
(8.62023e-14 -2.28055 -45.7492)
(1.0069e-13 -3.36914 -44.8936)
(1.18243e-13 -4.49442 -43.7272)
(1.16152e-13 -5.65025 -42.2776)
(1.08652e-13 -6.84331 -40.5786)
(9.99236e-14 -8.08651 -38.6616)
(8.57728e-14 -9.38749 -36.5493)
(6.3105e-14 -10.7239 -34.2489)
(3.43481e-14 -12.012 -31.7593)
(4.36894e-15 -13.0953 -29.0979)
(-1.82034e-14 -13.8191 -26.3346)
(-2.62793e-14 -14.2477 -23.5745)
(-2.06593e-14 -14.8774 -20.8444)
(-6.37692e-15 -16.4201 -18.0064)
(7.09136e-16 -19.1511 -14.858)
(-4.10755e-15 -22.7268 -11.4015)
(-7.82094e-15 -26.6341 -8.43625)
(-1.11214e-14 -29.4225 -6.33259)
(-3.16742e-14 0.712958 -16.7579)
(-2.54463e-14 0.655615 -17.4795)
(-1.92307e-14 0.633828 -18.2228)
(-1.18126e-14 0.615324 -18.9397)
(-3.37427e-15 0.603753 -19.662)
(2.73617e-15 0.599917 -20.3876)
(1.28377e-14 0.603235 -21.1297)