/*--------------------------------*- C++ -*----------------------------------*\
| =========                 |                                                 |
| \\      /  F ield         | OpenFOAM: The Open Source CFD Toolbox           |
|  \\    /   O peration     | Version:  4.1                                   |
|   \\  /    A nd           | Web:      www.OpenFOAM.org                      |
|    \\/     M anipulation  |                                                 |
\*---------------------------------------------------------------------------*/
FoamFile
{
    version     2.0;
    format      ascii;
    class       volScalarField;
    location    "1400";
    object      p;
}
// * * * * * * * * * * * * * * * * * * * * * * * * * * * * * * * * * * * * * //

dimensions      [0 2 -2 0 0 0 0];

internalField   nonuniform List<scalar> 
6820
(
-6.84906
-7.0759
-7.15281
-7.16484
-7.1842
-7.20627
-7.22283
-7.23568
-7.24683
-7.25639
-7.26427
-7.27057
-7.27541
-7.27881
-7.28071
-7.28105
-7.27973
-7.2766
-7.27146
-7.26404
-7.25401
-7.24092
-7.22417
-7.20294
-7.17608
-7.14189
-7.09762
-7.03928
-6.9573
-6.8428
-6.63318
-6.38067
-5.32582
-6.92104
-7.06206
-7.12568
-7.14603
-7.16983
-7.19379
-7.21175
-7.22561
-7.2374
-7.24744
-7.2557
-7.26232
-7.26744
-7.27106
-7.27316
-7.27367
-7.27249
-7.26947
-7.26443
-7.25711
-7.24717
-7.23419
-7.2176
-7.19662
-7.17022
-7.13694
-7.09455
-7.04031
-6.9683
-6.87691
-6.74475
-6.62184
-6.53483
-6.97845
-7.06649
-7.12661
-7.1516
-7.174
-7.19625
-7.21373
-7.22743
-7.23908
-7.24903
-7.25725
-7.26388
-7.26902
-7.27269
-7.27486
-7.27548
-7.27443
-7.2716
-7.26679
-7.25977
-7.25022
-7.23777
-7.2219
-7.20195
-7.17702
-7.146
-7.10728
-7.05924
-6.99899
-6.92844
-6.84391
-6.79164
-6.77757
-7.01721
-7.07559
-7.1298
-7.15619
-7.17707
-7.19791
-7.21505
-7.22864
-7.24015
-7.25
-7.2582
-7.26483
-7.27
-7.27373
-7.276
-7.27675
-7.27589
-7.27329
-7.26879
-7.26217
-7.25317
-7.24144
-7.22656
-7.208
-7.1851
-7.15709
-7.12305
-7.0824
-7.03458
-6.98311
-6.93109
-6.90751
-6.91703
-7.04835
-7.08818
-7.13407
-7.16031
-7.18021
-7.19981
-7.21649
-7.22992
-7.24128
-7.25104
-7.25921
-7.26587
-7.27111
-7.27496
-7.27738
-7.27833
-7.27774
-7.27548
-7.27141
-7.26536
-7.25709
-7.24634
-7.23277
-7.21602
-7.19565
-7.17129
-7.14261
-7.10987
-7.07398
-7.03898
-7.01021
-7.00613
-7.03535
-7.07448
-7.10198
-7.13974
-7.16501
-7.18404
-7.20236
-7.21841
-7.23159
-7.24279
-7.25244
-7.26058
-7.26728
-7.27261
-7.27659
-7.27921
-7.28042
-7.28016
-7.27833
-7.27481
-7.26946
-7.2621
-7.25254
-7.24055
-7.22591
-7.20845
-7.18809
-7.16501
-7.14002
-7.11478
-7.09325
-7.08087
-7.08938
-7.12596
-7.09664
-7.11594
-7.14666
-7.17028
-7.18837
-7.20543
-7.22076
-7.23364
-7.24464
-7.25417
-7.26229
-7.26903
-7.27447
-7.27862
-7.28147
-7.28299
-7.28313
-7.28181
-7.27894
-7.27442
-7.26812
-7.25992
-7.24972
-7.23743
-7.22307
-7.20684
-7.18926
-7.17143
-7.1553
-7.14436
-7.14325
-7.15929
-7.19736
-7.11576
-7.12961
-7.15449
-7.17602
-7.19309
-7.20898
-7.22353
-7.23604
-7.24683
-7.25623
-7.26431
-7.27111
-7.27667
-7.28102
-7.28415
-7.28604
-7.28664
-7.28591
-7.28378
-7.28019
-7.27508
-7.26839
-7.26011
-7.25029
-7.23911
-7.22695
-7.21452
-7.20306
-7.19447
-7.19165
-7.1982
-7.21866
-7.2561
-7.13254
-7.14275
-7.16287
-7.18217
-7.19814
-7.21295
-7.2267
-7.2388
-7.24935
-7.25862
-7.26667
-7.27354
-7.27925
-7.28382
-7.28726
-7.28956
-7.29069
-7.29061
-7.2893
-7.28674
-7.2829
-7.27781
-7.27154
-7.26423
-7.25618
-7.24789
-7.24014
-7.23417
-7.23168
-7.23496
-7.24668
-7.26963
-7.30557
-7.14749
-7.15522
-7.17157
-7.18866
-7.2035
-7.21728
-7.23026
-7.24191
-7.25221
-7.26134
-7.26937
-7.27631
-7.28218
-7.28701
-7.2908
-7.29355
-7.29525
-7.29589
-7.29547
-7.29399
-7.2915
-7.28806
-7.28381
-7.27897
-7.27392
-7.26919
-7.2656
-7.26425
-7.2666
-7.27441
-7.28957
-7.31376
-7.34793
-7.161
-7.167
-7.18037
-7.19541
-7.20909
-7.22194
-7.23416
-7.24535
-7.25539
-7.26439
-7.2724
-7.27942
-7.28548
-7.29059
-7.29476
-7.298
-7.30031
-7.30171
-7.30222
-7.30188
-7.30076
-7.29899
-7.29673
-7.29428
-7.29202
-7.29051
-7.29052
-7.293
-7.29914
-7.31025
-7.32764
-7.35229
-7.38467
-7.17332
-7.1781
-7.18915
-7.20233
-7.21489
-7.22686
-7.23837
-7.2491
-7.25889
-7.26776
-7.27575
-7.28288
-7.28914
-7.29455
-7.29913
-7.30289
-7.30585
-7.30804
-7.30951
-7.31033
-7.3106
-7.31046
-7.31013
-7.30992
-7.31021
-7.31156
-7.31463
-7.32023
-7.3293
-7.34279
-7.36158
-7.38621
-7.41687
-7.18467
-7.18855
-7.19779
-7.20935
-7.22085
-7.232
-7.24285
-7.25314
-7.26267
-7.27143
-7.27943
-7.28667
-7.29315
-7.29888
-7.30389
-7.30819
-7.31183
-7.31484
-7.31729
-7.31926
-7.32089
-7.32234
-7.32384
-7.3257
-7.32829
-7.33212
-7.33776
-7.34588
-7.35718
-7.37235
-7.39195
-7.41628
-7.44533
-7.19518
-7.19841
-7.20622
-7.2164
-7.22691
-7.23731
-7.24757
-7.25744
-7.26673
-7.27539
-7.2834
-7.29077
-7.29748
-7.30356
-7.30902
-7.31389
-7.31821
-7.32205
-7.32547
-7.32859
-7.33154
-7.3345
-7.3377
-7.34145
-7.34608
-7.35205
-7.35982
-7.36993
-7.38292
-7.39924
-7.41926
-7.4431
-7.47067
-7.20498
-7.20771
-7.21441
-7.22342
-7.23304
-7.24276
-7.25247
-7.26197
-7.27104
-7.27961
-7.28766
-7.29517
-7.30213
-7.30856
-7.31449
-7.31993
-7.32496
-7.32962
-7.334
-7.33823
-7.34244
-7.34682
-7.35159
-7.35703
-7.36345
-7.37122
-7.38074
-7.39242
-7.40665
-7.42374
-7.4439
-7.46715
-7.49338
-7.21414
-7.2165
-7.22232
-7.23036
-7.23919
-7.2483
-7.25753
-7.26669
-7.27557
-7.28408
-7.29217
-7.29984
-7.30707
-7.31387
-7.32026
-7.32629
-7.33201
-7.33748
-7.34281
-7.3481
-7.3535
-7.35919
-7.36538
-7.37232
-7.38028
-7.38957
-7.40051
-7.4134
-7.42853
-7.4461
-7.46621
-7.48884
-7.51385
-7.22272
-7.22479
-7.22993
-7.23716
-7.24531
-7.25389
-7.2627
-7.27156
-7.28028
-7.28875
-7.29692
-7.30476
-7.31226
-7.31944
-7.32631
-7.33292
-7.33932
-7.34558
-7.35181
-7.35811
-7.36462
-7.37151
-7.37898
-7.38723
-7.39651
-7.40706
-7.41913
-7.43295
-7.44871
-7.46654
-7.48648
-7.50847
-7.53237
-7.23078
-7.23263
-7.23722
-7.24379
-7.25137
-7.25948
-7.26794
-7.27656
-7.28515
-7.2936
-7.30186
-7.30989
-7.31768
-7.32524
-7.33259
-7.33977
-7.34683
-7.35386
-7.36094
-7.36818
-7.37572
-7.3837
-7.39229
-7.40169
-7.41208
-7.42366
-7.43663
-7.45114
-7.46733
-7.48527
-7.50495
-7.5263
-7.54919
-7.23834
-7.24001
-7.24418
-7.25023
-7.25732
-7.26505
-7.27321
-7.28163
-7.29013
-7.29859
-7.30696
-7.31519
-7.32328
-7.33122
-7.33905
-7.34679
-7.3545
-7.36225
-7.37013
-7.37825
-7.38672
-7.39567
-7.40525
-7.41563
-7.42695
-7.43937
-7.45304
-7.46806
-7.48452
-7.50244
-7.52181
-7.54254
-7.56451
-7.24541
-7.24694
-7.25078
-7.25642
-7.26312
-7.27054
-7.27847
-7.28674
-7.29518
-7.30368
-7.31218
-7.32063
-7.32902
-7.33735
-7.34564
-7.35392
-7.36225
-7.37069
-7.37932
-7.38824
-7.39755
-7.40736
-7.41781
-7.42902
-7.44111
-7.4542
-7.4684
-7.48378
-7.50039
-7.51822
-7.53725
-7.55738
-7.57851
-7.252
-7.25344
-7.25703
-7.26234
-7.26874
-7.27591
-7.28367
-7.29183
-7.30026
-7.30883
-7.31748
-7.32617
-7.33486
-7.34358
-7.35232
-7.36112
-7.37004
-7.37912
-7.38844
-7.39809
-7.40815
-7.41872
-7.42991
-7.44182
-7.45454
-7.46817
-7.48277
-7.49838
-7.51504
-7.53272
-7.55139
-7.57096
-7.59132
-7.25811
-7.25947
-7.26288
-7.26795
-7.27413
-7.28112
-7.28876
-7.29688
-7.30532
-7.314
-7.32282
-7.33175
-7.34076
-7.34985
-7.35903
-7.36834
-7.3778
-7.38748
-7.39744
-7.40774
-7.41847
-7.4297
-7.44153
-7.45402
-7.46725
-7.48129
-7.49618
-7.51194
-7.52858
-7.54607
-7.56437
-7.58339
-7.60306
-7.26373
-7.26503
-7.26831
-7.27322
-7.27925
-7.28613
-7.2937
-7.30182
-7.31033
-7.31913
-7.32814
-7.33732
-7.34665
-7.35612
-7.36573
-7.37551
-7.38549
-7.39572
-7.40626
-7.41715
-7.42846
-7.44027
-7.45262
-7.4656
-7.47924
-7.49359
-7.50867
-7.52451
-7.54107
-7.55835
-7.57628
-7.5948
-7.61383
-7.26882
-7.27009
-7.27329
-7.2781
-7.28404
-7.29087
-7.29845
-7.30661
-7.31522
-7.32417
-7.3334
-7.34285
-7.3525
-7.36234
-7.37236
-7.38259
-7.39306
-7.40379
-7.41484
-7.42626
-7.43808
-7.45038
-7.46319
-7.47655
-7.49051
-7.50509
-7.52031
-7.53615
-7.55261
-7.56965
-7.58722
-7.60526
-7.6237
-7.27335
-7.27461
-7.27777
-7.28254
-7.28847
-7.29532
-7.30294
-7.31119
-7.31994
-7.32909
-7.33855
-7.34828
-7.35826
-7.36845
-7.37887
-7.38953
-7.40044
-7.41164
-7.42315
-7.43503
-7.4473
-7.46001
-7.47319
-7.48688
-7.50108
-7.51583
-7.53111
-7.54693
-7.56325
-7.58004
-7.59726
-7.61485
-7.63276
-7.27727
-7.27853
-7.2817
-7.2865
-7.29248
-7.2994
-7.30713
-7.31552
-7.32446
-7.33382
-7.34354
-7.35356
-7.36386
-7.37441
-7.38521
-7.39627
-7.40759
-7.41921
-7.43115
-7.44343
-7.45609
-7.46915
-7.48264
-7.49657
-7.51097
-7.52582
-7.54113
-7.55688
-7.57305
-7.58959
-7.60648
-7.62365
-7.64105
-7.28052
-7.28181
-7.28503
-7.28991
-7.296
-7.30306
-7.31095
-7.31955
-7.3287
-7.33831
-7.34831
-7.35864
-7.36927
-7.38017
-7.39133
-7.40276
-7.41448
-7.42648
-7.43879
-7.45143
-7.46442
-7.47778
-7.49152
-7.50565
-7.52017
-7.53509
-7.55039
-7.56606
-7.58206
-7.59836
-7.61492
-7.6317
-7.64865
-7.28302
-7.28435
-7.28767
-7.29271
-7.29898
-7.30624
-7.31436
-7.3232
-7.33262
-7.34252
-7.35282
-7.36347
-7.37443
-7.38567
-7.39719
-7.40898
-7.42104
-7.43339
-7.44604
-7.45899
-7.47227
-7.48587
-7.49982
-7.5141
-7.52872
-7.54367
-7.55894
-7.5745
-7.59032
-7.60638
-7.62264
-7.63906
-7.65558
-7.28467
-7.28607
-7.28954
-7.2948
-7.30134
-7.30888
-7.3173
-7.32644
-7.33618
-7.34639
-7.35702
-7.368
-7.3793
-7.39088
-7.40274
-7.41487
-7.42726
-7.43993
-7.45287
-7.4661
-7.47962
-7.49343
-7.50753
-7.52193
-7.53662
-7.55157
-7.56678
-7.58223
-7.59788
-7.61371
-7.62968
-7.64575
-7.6619
-7.28535
-7.28684
-7.29054
-7.29611
-7.30301
-7.31091
-7.3197
-7.32921
-7.33931
-7.34988
-7.36087
-7.37219
-7.38383
-7.39576
-7.40795
-7.42039
-7.43309
-7.44605
-7.45926
-7.47273
-7.48645
-7.50044
-7.51467
-7.52916
-7.54388
-7.55882
-7.57397
-7.58929
-7.60477
-7.62038
-7.63609
-7.65185
-7.66764
-7.2849
-7.28652
-7.29053
-7.29654
-7.3039
-7.31227
-7.3215
-7.33145
-7.34197
-7.35295
-7.36431
-7.37601
-7.388
-7.40026
-7.41278
-7.42553
-7.43851
-7.45173
-7.46518
-7.47886
-7.49276
-7.50688
-7.52122
-7.53577
-7.5505
-7.56541
-7.58048
-7.59569
-7.611
-7.6264
-7.64185
-7.65733
-7.6728
-7.28312
-7.28492
-7.28937
-7.29596
-7.30393
-7.31288
-7.32266
-7.33312
-7.34413
-7.35555
-7.36732
-7.37941
-7.39176
-7.40435
-7.41718
-7.43023
-7.44348
-7.45695
-7.47061
-7.48448
-7.49854
-7.51279
-7.52721
-7.54181
-7.55655
-7.57143
-7.58642
-7.60151
-7.61667
-7.63188
-7.6471
-7.66232
-7.6775
-7.27975
-7.2818
-7.28687
-7.29427
-7.30303
-7.31269
-7.32313
-7.33421
-7.34577
-7.3577
-7.36992
-7.3824
-7.39512
-7.40805
-7.42117
-7.43448
-7.44798
-7.46166
-7.47551
-7.48953
-7.50371
-7.51805
-7.53254
-7.54715
-7.56188
-7.57671
-7.59162
-7.60659
-7.6216
-7.63663
-7.65164
-7.66663
-7.68156
-7.2744
-7.27684
-7.28282
-7.29136
-7.30114
-7.31164
-7.32284
-7.33461
-7.34678
-7.35924
-7.37194
-7.38486
-7.39798
-7.41126
-7.4247
-7.43831
-7.45206
-7.46597
-7.48001
-7.4942
-7.50851
-7.52295
-7.53749
-7.55214
-7.56687
-7.58166
-7.5965
-7.61138
-7.62625
-7.64112
-7.65595
-7.67072
-7.6854
-7.26656
-7.2696
-7.27695
-7.28709
-7.29822
-7.30987
-7.32207
-7.3347
-7.34756
-7.36056
-7.37371
-7.387
-7.40042
-7.41397
-7.42764
-7.44144
-7.45537
-7.46942
-7.48359
-7.49787
-7.51226
-7.52675
-7.54132
-7.55597
-7.57067
-7.58542
-7.60019
-7.61496
-7.62972
-7.64445
-7.65912
-7.67372
-7.68824
-7.2554
-7.25955
-7.26923
-7.2814
-7.29377
-7.30646
-7.31978
-7.33347
-7.34723
-7.36101
-7.37485
-7.38875
-7.40269
-7.41668
-7.43073
-7.44485
-7.45904
-7.47331
-7.48765
-7.50208
-7.51657
-7.53113
-7.54574
-7.5604
-7.57508
-7.58978
-7.60448
-7.61916
-7.63381
-7.64839
-7.6629
-7.67731
-7.69159
-7.23949
-7.24527
-7.25989
-7.27625
-7.29076
-7.30466
-7.31886
-7.33312
-7.34718
-7.36114
-7.37511
-7.38912
-7.40316
-7.41724
-7.4314
-7.44562
-7.45992
-7.4743
-7.48874
-7.50326
-7.51784
-7.53246
-7.54713
-7.56183
-7.57653
-7.59124
-7.60592
-7.62057
-7.63517
-7.6497
-7.66416
-7.67851
-7.69277
-7.21801
-7.22472
-7.2432
-7.26291
-7.28066
-7.29803
-7.31532
-7.33194
-7.34782
-7.36322
-7.37829
-7.39311
-7.40774
-7.42224
-7.43668
-7.4511
-7.4655
-7.47993
-7.49438
-7.50887
-7.52339
-7.53794
-7.55251
-7.5671
-7.58168
-7.59625
-7.61079
-7.62528
-7.63971
-7.65405
-7.66829
-7.68239
-7.69633
-7.18494
-7.21988
-7.24892
-7.26451
-7.27796
-7.29369
-7.30992
-7.32543
-7.34051
-7.35556
-7.37061
-7.38559
-7.40049
-7.41536
-7.43021
-7.44506
-7.4599
-7.47475
-7.48961
-7.50447
-7.51934
-7.53421
-7.54907
-7.56392
-7.57873
-7.59351
-7.60824
-7.6229
-7.63748
-7.65197
-7.66636
-7.68064
-7.69482
-7.04369
-7.15106
-7.22458
-7.25642
-7.27907
-7.30277
-7.32439
-7.3426
-7.35878
-7.3741
-7.38889
-7.40326
-7.41736
-7.43133
-7.44527
-7.45921
-7.47319
-7.48722
-7.50132
-7.51548
-7.5297
-7.54397
-7.55827
-7.5726
-7.58694
-7.60127
-7.61557
-7.62983
-7.64403
-7.65815
-7.67217
-7.68607
-7.69985
-6.48662
-6.54141
-7.42399
-7.8988
-7.95312
-7.97504
-8.02407
-8.06441
-8.09665
-8.12893
-8.16196
-8.19504
-8.22831
-8.26195
-8.29593
-8.33014
-8.36446
-8.3988
-8.43301
-8.46696
-8.50052
-8.53355
-8.56593
-8.59753
-8.62822
-8.6579
-8.68645
-8.71377
-8.73975
-8.7643
-8.78734
-8.80875
-8.82847
-8.84641
-8.86248
-8.87659
-8.88867
-8.89863
-8.90639
-8.91184
-8.9149
-8.91546
-8.91342
-8.90866
-8.90106
-8.89048
-8.87679
-8.85981
-8.83939
-8.81534
-8.78746
-8.75555
-8.71938
-8.67872
-8.63332
-8.58294
-8.52733
-8.46622
-8.39935
-8.32646
-8.24728
-8.16154
-8.06894
-7.9692
-7.86201
-7.74704
-7.624
-7.49257
-7.35246
-7.20342
-7.04523
-6.87772
-6.70077
-6.51434
-6.31847
-6.11327
-5.89897
-5.67587
-5.44441
-5.20511
-4.95862
-4.70566
-4.44709
-4.18382
-3.91685
-3.64723
-3.37605
-3.10444
-2.83348
-2.56425
-2.29776
-2.03496
-1.7766
-1.52349
-1.27562
-1.03427
-0.796495
-0.567983
-0.332367
-0.122407
-7.05685
-7.21464
-7.55337
-7.82202
-7.89547
-7.93819
-7.99437
-8.04097
-8.07794
-8.1132
-8.14837
-8.18306
-8.21751
-8.25202
-8.28664
-8.32131
-8.35597
-8.39054
-8.4249
-8.45894
-8.49254
-8.52557
-8.55792
-8.58947
-8.6201
-8.6497
-8.67817
-8.70539
-8.73128
-8.75573
-8.77866
-8.79997
-8.81958
-8.83741
-8.85336
-8.86736
-8.87932
-8.88916
-8.89678
-8.9021
-8.90501
-8.90542
-8.90322
-8.89829
-8.89051
-8.87974
-8.86584
-8.84866
-8.82801
-8.80372
-8.7756
-8.74344
-8.70701
-8.66608
-8.62042
-8.56978
-8.5139
-8.45252
-8.38539
-8.31225
-8.23282
-8.14684
-8.05401
-7.95405
-7.84666
-7.73152
-7.60834
-7.47681
-7.33665
-7.18761
-7.02949
-6.86212
-6.68539
-6.49927
-6.3038
-6.0991
-5.88538
-5.66298
-5.4323
-5.19387
-4.94833
-4.6964
-4.43891
-4.17676
-3.91095
-3.64249
-3.37247
-3.10195
-2.83204
-2.56377
-2.29813
-2.03605
-1.77822
-1.52548
-1.27771
-1.03637
-0.797889
-0.569713
-0.330327
-0.127981
-7.06643
-7.24956
-7.48003
-7.72988
-7.84951
-7.91026
-7.96903
-8.01992
-8.06108
-8.0989
-8.13584
-8.17188
-8.20731
-8.24251
-8.27761
-8.31261
-8.34747
-8.38215
-8.41656
-8.45059
-8.48414
-8.5171
-8.54935
-8.58079
-8.61129
-8.64076
-8.66909
-8.69618
-8.72193
-8.74624
-8.76903
-8.79021
-8.80968
-8.82737
-8.84318
-8.85704
-8.86886
-8.87855
-8.88602
-8.89118
-8.89393
-8.89417
-8.89179
-8.88668
-8.8787
-8.86772
-8.85361
-8.83619
-8.81531
-8.79077
-8.76239
-8.72996
-8.69326
-8.65206
-8.60612
-8.5552
-8.49904
-8.43739
-8.37
-8.29659
-8.21691
-8.13068
-8.03763
-7.93746
-7.82988
-7.71458
-7.59127
-7.45965
-7.31947
-7.17047
-7.01245
-6.84526
-6.66879
-6.48303
-6.288
-6.08385
-5.87079
-5.64913
-5.4193
-5.18181
-4.93729
-4.68645
-4.43012
-4.16917
-3.90457
-3.63733
-3.36851
-3.09916
-2.83034
-2.56308
-2.29832
-2.03697
-1.77971
-1.52736
-1.2797
-1.03837
-0.799194
-0.571335
-0.328275
-0.133417
-7.09709
-7.27904
-7.47845
-7.69035
-7.81498
-7.88385
-7.945
-7.99958
-8.04461
-8.08492
-8.1235
-8.16079
-8.19712
-8.23292
-8.26842
-8.30367
-8.33867
-8.37339
-8.40777
-8.44172
-8.47516
-8.50798
-8.54008
-8.57135
-8.60168
-8.63097
-8.65913
-8.68603
-8.71161
-8.73575
-8.75837
-8.77937
-8.79868
-8.8162
-8.83186
-8.84555
-8.85721
-8.86673
-8.87403
-8.87902
-8.88159
-8.88164
-8.87907
-8.87375
-8.86556
-8.85436
-8.84001
-8.82235
-8.80121
-8.77642
-8.74777
-8.71506
-8.67807
-8.63658
-8.59036
-8.53915
-8.48271
-8.42078
-8.35312
-8.27945
-8.19952
-8.11305
-8.01977
-7.9194
-7.81164
-7.69619
-7.57277
-7.4411
-7.30091
-7.15198
-6.9941
-6.82713
-6.65097
-6.46561
-6.27109
-6.06754
-5.85519
-5.63435
-5.40543
-5.16894
-4.92551
-4.67584
-4.42072
-4.16103
-3.89771
-3.63176
-3.3642
-3.09606
-2.82838
-2.56215
-2.2983
-2.03773
-1.78105
-1.52909
-1.28155
-1.04024
-0.8004
-0.572834
-0.326244
-0.138628
-7.15991
-7.32051
-7.48977
-7.66196
-7.78186
-7.85817
-7.92254
-7.97976
-8.02793
-8.07057
-8.11073
-8.14922
-8.18642
-8.22282
-8.2587
-8.29417
-8.32927
-8.364
-8.39832
-8.43216
-8.46545
-8.49809
-8.53
-8.56106
-8.59117
-8.62025
-8.64819
-8.67489
-8.70025
-8.72419
-8.74661
-8.76742
-8.78653
-8.80387
-8.81934
-8.83285
-8.84432
-8.85366
-8.86077
-8.86557
-8.86794
-8.86779
-8.86501
-8.85947
-8.85106
-8.83962
-8.82503
-8.80711
-8.7857
-8.76063
-8.7317
-8.6987
-8.66142
-8.61964
-8.57312
-8.52161
-8.46489
-8.40268
-8.33474
-8.26081
-8.18063
-8.09393
-8.00043
-7.89986
-7.79194
-7.67637
-7.55286
-7.42116
-7.281
-7.13216
-6.97446
-6.80775
-6.63195
-6.44705
-6.25309
-6.05021
-5.83862
-5.61866
-5.39071
-5.1553
-4.91302
-4.66458
-4.41074
-4.15237
-3.8904
-3.62578
-3.35953
-3.09264
-2.82614
-2.56099
-2.29809
-2.0383
-1.78223
-1.53069
-1.28328
-1.04199
-0.801516
-0.574206
-0.324284
-0.143534
-7.2199
-7.35474
-7.49867
-7.64275
-7.75579
-7.83598
-7.90222
-7.96081
-8.01124
-8.05589
-8.09749
-8.13706
-8.17509
-8.21205
-8.2483
-8.28398
-8.31916
-8.35388
-8.38811
-8.42182
-8.45493
-8.48737
-8.51904
-8.54987
-8.57974
-8.60857
-8.63627
-8.66272
-8.68785
-8.71155
-8.73375
-8.75434
-8.77324
-8.79037
-8.80563
-8.81893
-8.8302
-8.83934
-8.84624
-8.85083
-8.85299
-8.85263
-8.84962
-8.84385
-8.83519
-8.82351
-8.80865
-8.79046
-8.76878
-8.74342
-8.7142
-8.6809
-8.64332
-8.60124
-8.55441
-8.50261
-8.44559
-8.3831
-8.31488
-8.24069
-8.16027
-8.07334
-7.97964
-7.87889
-7.77082
-7.65514
-7.53158
-7.39987
-7.25977
-7.11107
-6.95358
-6.78718
-6.61179
-6.42739
-6.23404
-6.03188
-5.82113
-5.6021
-5.3752
-5.14092
-4.89986
-4.6527
-4.40021
-4.14322
-3.88264
-3.61941
-3.35452
-3.08894
-2.82365
-2.55961
-2.29768
-2.03871
-1.78325
-1.53213
-1.28489
-1.04361
-0.802547
-0.575446
-0.322443
-0.148062
-7.2734
-7.38608
-7.50962
-7.63294
-7.73709
-7.8173
-7.88408
-7.9432
-7.99507
-8.04127
-8.08404
-8.12452
-8.16326
-8.20073
-8.23729
-8.27314
-8.30839
-8.34307
-8.3772
-8.41074
-8.44365
-8.47585
-8.50728
-8.53783
-8.56744
-8.59599
-8.62341
-8.6496
-8.67446
-8.69791
-8.71985
-8.7402
-8.75886
-8.77575
-8.79078
-8.80386
-8.81491
-8.82382
-8.8305
-8.83486
-8.8368
-8.8362
-8.83295
-8.82693
-8.81801
-8.80607
-8.79094
-8.77247
-8.7505
-8.72484
-8.69531
-8.66171
-8.62382
-8.58143
-8.53429
-8.48219
-8.42487
-8.3621
-8.29361
-8.21917
-8.1385
-8.05135
-7.95746
-7.85655
-7.74835
-7.63258
-7.50898
-7.3773
-7.23729
-7.08876
-6.93153
-6.76548
-6.59054
-6.4067
-6.21402
-6.01263
-5.80277
-5.58474
-5.35893
-5.12585
-4.88606
-4.64025
-4.38916
-4.1336
-3.87447
-3.61268
-3.34918
-3.08494
-2.8209
-2.558
-2.29707
-2.03893
-1.78412
-1.53343
-1.28635
-1.04511
-0.803496
-0.57655
-0.320758
-0.15215
-7.32073
-7.41583
-7.52229
-7.62918
-7.72403
-7.80201
-7.86833
-7.92734
-7.97987
-8.02708
-8.07071
-8.11188
-8.15117
-8.18904
-8.22586
-8.26183
-8.2971
-8.33171
-8.3657
-8.39906
-8.43173
-8.46368
-8.49482
-8.52508
-8.55438
-8.58264
-8.60975
-8.63564
-8.66021
-8.68338
-8.70504
-8.72511
-8.74351
-8.76014
-8.77492
-8.78775
-8.79855
-8.80721
-8.81365
-8.81777
-8.81945
-8.8186
-8.81509
-8.80881
-8.79962
-8.78739
-8.77198
-8.75322
-8.73094
-8.70498
-8.67514
-8.64122
-8.60301
-8.5603
-8.51286
-8.46045
-8.40283
-8.33977
-8.27102
-8.19632
-8.11542
-8.02806
-7.93398
-7.83292
-7.72461
-7.60878
-7.48517
-7.35354
-7.21366
-7.06534
-6.90841
-6.74275
-6.5683
-6.38506
-6.19309
-5.99254
-5.78362
-5.56663
-5.34198
-5.11014
-4.87169
-4.62727
-4.37763
-4.12355
-3.86591
-3.60559
-3.34353
-3.08066
-2.81791
-2.55617
-2.29626
-2.03897
-1.78481
-1.53458
-1.28768
-1.04646
-0.804368
-0.577515
-0.319259
-0.155753
-7.36218
-7.44358
-7.53582
-7.62943
-7.71557
-7.79007
-7.85503
-7.91332
-7.96589
-8.0136
-8.05776
-8.09939
-8.13907
-8.17722
-8.21419
-8.25023
-8.28546
-8.31997
-8.35379
-8.38693
-8.41934
-8.451
-8.48183
-8.51177
-8.54075
-8.56867
-8.59545
-8.62101
-8.64526
-8.66811
-8.68946
-8.70924
-8.72734
-8.74369
-8.75818
-8.77074
-8.78127
-8.78966
-8.79583
-8.79968
-8.80109
-8.79997
-8.79618
-8.78962
-8.78014
-8.76762
-8.7519
-8.73283
-8.71025
-8.68396
-8.6538
-8.61955
-8.58102
-8.53798
-8.49022
-8.4375
-8.37959
-8.31624
-8.24722
-8.17227
-8.09114
-8.00358
-7.90934
-7.80814
-7.69973
-7.58386
-7.46027
-7.32872
-7.18899
-7.04091
-6.88431
-6.71908
-6.54517
-6.36258
-6.17137
-5.97169
-5.76375
-5.54786
-5.32441
-5.09387
-4.85679
-4.61382
-4.36566
-4.11311
-3.85699
-3.59819
-3.3376
-3.07613
-2.81468
-2.55413
-2.29526
-2.03883
-1.78534
-1.53556
-1.28888
-1.04768
-0.805166
-0.578342
-0.317967
-0.158842
-7.39847
-7.46925
-7.54977
-7.63249
-7.71077
-7.78112
-7.84403
-7.90112
-7.95322
-8.00098
-8.04537
-8.08723
-8.12711
-8.16541
-8.20246
-8.23849
-8.27364
-8.308
-8.34162
-8.3745
-8.40663
-8.43797
-8.46847
-8.49807
-8.52668
-8.55425
-8.58067
-8.60588
-8.62978
-8.65228
-8.6733
-8.69275
-8.71053
-8.72657
-8.74075
-8.75301
-8.76324
-8.77134
-8.77722
-8.78077
-8.7819
-8.78047
-8.77639
-8.76953
-8.75974
-8.74691
-8.73087
-8.71148
-8.68856
-8.66195
-8.63145
-8.59686
-8.558
-8.51463
-8.46655
-8.41351
-8.3553
-8.29166
-8.22237
-8.14717
-8.06582
-7.97807
-7.88366
-7.78234
-7.67386
-7.55796
-7.4344
-7.30296
-7.16342
-7.0156
-6.85936
-6.6946
-6.52126
-6.33935
-6.14895
-5.95018
-5.74327
-5.52852
-5.30631
-5.0771
-4.84143
-4.59994
-4.35331
-4.10232
-3.84776
-3.59049
-3.33139
-3.07135
-2.81123
-2.55188
-2.29406
-2.03851
-1.7857
-1.53639
-1.28993
-1.04877
-0.805892
-0.579033
-0.316894
-0.161405
-7.43042
-7.49287
-7.56382
-7.63748
-7.70875
-7.77475
-7.83513
-7.89065
-7.94189
-7.98932
-8.03364
-8.07551
-8.11543
-8.15375
-8.19078
-8.22673
-8.26175
-8.29592
-8.3293
-8.36191
-8.39373
-8.42473
-8.45488
-8.4841
-8.51234
-8.53952
-8.56557
-8.59039
-8.61392
-8.63605
-8.65671
-8.6758
-8.69325
-8.70894
-8.7228
-8.73473
-8.74463
-8.75242
-8.75798
-8.76122
-8.76203
-8.76029
-8.75589
-8.7487
-8.73859
-8.72543
-8.70906
-8.68933
-8.66607
-8.6391
-8.60826
-8.57333
-8.53412
-8.49041
-8.44199
-8.38864
-8.33012
-8.26619
-8.19663
-8.12118
-8.03961
-7.95167
-7.85711
-7.75568
-7.64713
-7.53123
-7.40773
-7.27641
-7.13707
-6.98955
-6.83371
-6.66944
-6.49671
-6.31551
-6.12594
-5.92812
-5.72227
-5.50869
-5.28776
-5.05991
-4.82569
-4.5857
-4.34063
-4.09121
-3.83824
-3.58253
-3.32494
-3.06634
-2.80756
-2.54942
-2.29267
-2.03801
-1.78589
-1.53705
-1.29083
-1.04972
-0.806548
-0.579593
-0.316044
-0.163444
-7.4587
-7.51454
-7.57767
-7.64376
-7.70883
-7.77052
-7.82811
-7.88179
-7.93186
-7.97865
-8.02263
-8.06431
-8.1041
-8.14233
-8.17924
-8.21504
-8.24987
-8.28381
-8.31692
-8.34923
-8.38071
-8.41137
-8.44114
-8.46998
-8.49782
-8.52461
-8.55025
-8.57468
-8.59781
-8.61956
-8.63984
-8.65856
-8.67563
-8.69097
-8.70447
-8.71605
-8.72562
-8.73306
-8.73829
-8.74119
-8.74166
-8.73959
-8.73485
-8.72732
-8.71687
-8.70335
-8.68663
-8.66654
-8.64293
-8.61561
-8.5844
-8.54911
-8.50955
-8.46549
-8.41674
-8.36306
-8.30422
-8.24001
-8.17017
-8.09448
-8.01269
-7.92457
-7.82986
-7.72833
-7.61973
-7.50383
-7.38039
-7.24922
-7.11011
-6.96291
-6.80748
-6.64373
-6.47162
-6.29117
-6.10246
-5.90561
-5.70086
-5.48847
-5.26883
-5.04238
-4.80962
-4.57117
-4.32767
-4.07985
-3.82847
-3.57433
-3.31827
-3.06112
-2.80369
-2.54677
-2.29109
-2.03732
-1.7859
-1.53755
-1.2916
-1.05053
-0.807134
-0.580027
-0.315413
-0.164979
-7.48391
-7.53441
-7.59113
-7.65084
-7.71046
-7.76805
-7.82275
-7.87439
-7.92307
-7.96897
-8.01238
-8.05368
-8.09319
-8.13119
-8.16789
-8.20347
-8.23806
-8.27173
-8.30454
-8.33652
-8.36766
-8.39794
-8.42733
-8.45577
-8.48321
-8.50958
-8.53482
-8.55884
-8.58156
-8.60291
-8.62279
-8.64111
-8.6578
-8.67276
-8.6859
-8.69711
-8.70631
-8.7134
-8.71827
-8.72082
-8.72094
-8.71851
-8.71342
-8.70553
-8.69472
-8.68084
-8.66375
-8.6433
-8.61931
-8.59162
-8.56004
-8.52438
-8.48446
-8.44005
-8.39095
-8.33693
-8.27778
-8.21327
-8.14316
-8.06722
-7.98522
-7.89691
-7.80206
-7.70044
-7.59179
-7.47591
-7.35256
-7.22154
-7.08268
-6.93581
-6.78081
-6.6176
-6.44614
-6.26646
-6.07862
-5.88277
-5.67912
-5.46795
-5.24962
-5.02457
-4.7933
-4.55639
-4.31447
-4.06826
-3.81848
-3.56593
-3.3114
-3.05571
-2.79963
-2.54394
-2.28933
-2.03646
-1.78575
-1.53789
-1.29221
-1.0512
-0.807652
-0.580342
-0.314989
-0.166039
-7.50651
-7.55264
-7.60406
-7.6584
-7.71323
-7.76699
-7.8188
-7.8683
-7.91543
-7.96023
-8.00289
-8.04364
-8.08274
-8.1204
-8.1568
-8.19209
-8.22637
-8.25973
-8.29222
-8.32384
-8.35461
-8.38451
-8.4135
-8.44153
-8.46856
-8.49451
-8.51933
-8.54293
-8.56523
-8.58616
-8.60564
-8.62356
-8.63985
-8.65442
-8.66717
-8.67801
-8.68683
-8.69355
-8.69805
-8.70023
-8.69998
-8.69718
-8.69172
-8.68346
-8.67228
-8.65803
-8.64056
-8.61972
-8.59536
-8.56728
-8.53532
-8.49929
-8.45899
-8.41422
-8.36477
-8.31042
-8.25095
-8.18614
-8.11575
-8.03957
-7.95735
-7.86886
-7.77388
-7.67216
-7.56348
-7.44762
-7.32436
-7.19352
-7.05491
-6.90838
-6.75383
-6.59117
-6.42038
-6.24147
-6.05452
-5.85968
-5.65715
-5.4472
-5.2302
-5.00657
-4.77679
-4.54142
-4.3011
-4.05649
-3.80832
-3.55736
-3.30436
-3.05011
-2.79539
-2.54092
-2.28739
-2.03542
-1.78542
-1.53807
-1.29269
-1.05175
-0.808098
-0.580545
-0.314752
-0.166665
-7.52688
-7.56937
-7.61639
-7.66616
-7.71681
-7.76703
-7.81603
-7.86336
-7.90884
-7.95241
-7.99415
-8.03422
-8.07278
-8.10999
-8.146
-8.18093
-8.21486
-8.24786
-8.27998
-8.31123
-8.34161
-8.37111
-8.39969
-8.4273
-8.45391
-8.47944
-8.50382
-8.527
-8.54888
-8.56939
-8.58845
-8.60596
-8.62185
-8.63601
-8.64837
-8.65882
-8.66725
-8.67359
-8.67771
-8.67951
-8.67888
-8.67571
-8.66986
-8.66122
-8.64966
-8.63502
-8.61717
-8.59594
-8.57119
-8.54272
-8.51038
-8.47397
-8.43329
-8.38815
-8.33835
-8.28365
-8.22386
-8.15875
-8.08809
-8.01166
-7.92922
-7.84056
-7.74544
-7.64363
-7.53492
-7.41909
-7.29594
-7.16527
-7.02693
-6.88076
-6.72666
-6.56457
-6.39444
-6.21632
-6.03027
-5.83644
-5.63503
-5.42632
-5.21065
-4.98843
-4.76014
-4.52632
-4.28758
-4.04458
-3.79802
-3.54863
-3.29716
-3.04436
-2.79098
-2.53774
-2.28527
-2.03421
-1.78492
-1.53808
-1.29301
-1.05215
-0.808472
-0.580643
-0.314681
-0.166905
-7.54531
-7.58475
-7.62808
-7.67395
-7.72092
-7.76792
-7.81425
-7.85942
-7.90319
-7.94543
-7.98614
-8.0254
-8.06331
-8.09999
-8.13553
-8.17002
-8.20354
-8.23615
-8.26787
-8.29872
-8.32869
-8.35777
-8.38593
-8.41312
-8.43929
-8.46439
-8.48834
-8.51109
-8.53254
-8.55263
-8.57126
-8.58836
-8.60383
-8.61759
-8.62955
-8.6396
-8.64764
-8.65358
-8.65732
-8.65873
-8.65772
-8.65416
-8.64793
-8.6389
-8.62694
-8.61191
-8.59367
-8.57205
-8.5469
-8.51805
-8.48531
-8.44851
-8.40746
-8.36195
-8.31178
-8.25675
-8.19663
-8.13122
-8.06028
-7.9836
-7.90096
-7.81212
-7.71687
-7.61498
-7.50624
-7.39045
-7.2674
-7.13692
-6.99885
-6.85304
-6.69941
-6.53788
-6.36843
-6.1911
-6.00595
-5.81314
-5.61285
-5.40537
-5.19103
-4.97021
-4.74341
-4.51113
-4.27397
-4.03257
-3.7876
-3.53977
-3.28982
-3.03846
-2.78642
-2.53439
-2.28299
-2.03283
-1.78426
-1.53792
-1.29319
-1.05243
-0.80877
-0.580645
-0.314746
-0.166812
-7.56207
-7.59891
-7.6391
-7.68164
-7.72538
-7.76946
-7.81327
-7.85633
-7.89837
-7.93922
-7.97882
-8.01718
-8.05435
-8.0904
-8.1254
-8.1594
-8.19246
-8.22463
-8.25592
-8.28634
-8.31589
-8.34454
-8.37226
-8.39901
-8.42475
-8.44941
-8.47293
-8.49523
-8.51625
-8.53591
-8.55412
-8.5708
-8.58586
-8.5992
-8.61075
-8.6204
-8.62804
-8.63359
-8.63693
-8.63795
-8.63655
-8.63259
-8.62597
-8.61655
-8.6042
-8.58878
-8.57014
-8.54812
-8.52258
-8.49333
-8.4602
-8.42302
-8.38158
-8.33571
-8.28518
-8.22981
-8.16937
-8.10365
-8.03244
-7.95551
-7.87265
-7.78364
-7.68827
-7.5863
-7.47755
-7.36179
-7.23886
-7.10857
-6.97077
-6.82533
-6.67217
-6.51121
-6.34244
-6.16589
-5.98165
-5.78984
-5.59068
-5.38442
-5.17139
-4.95198
-4.72664
-4.4959
-4.2603
-4.02048
-3.77709
-3.53082
-3.28236
-3.03243
-2.78172
-2.53089
-2.28055
-2.03128
-1.78342
-1.53761
-1.29322
-1.05258
-0.80899
-0.580557
-0.314922
-0.166442
-7.57735
-7.61195
-7.64947
-7.68912
-7.73002
-7.77146
-7.81292
-7.85397
-7.8943
-7.93373
-7.97215
-8.00954
-8.0459
-8.08125
-8.11563
-8.14909
-8.18165
-8.21333
-8.24416
-8.27413
-8.30322
-8.33143
-8.35871
-8.38501
-8.41031
-8.43452
-8.4576
-8.47946
-8.50005
-8.51927
-8.53705
-8.55331
-8.56795
-8.58088
-8.59202
-8.60126
-8.6085
-8.61365
-8.61659
-8.61722
-8.61542
-8.61108
-8.60406
-8.59425
-8.5815
-8.56568
-8.54664
-8.52423
-8.49829
-8.46864
-8.43513
-8.39756
-8.35574
-8.3095
-8.25862
-8.2029
-8.14214
-8.07612
-8.00464
-7.92747
-7.84441
-7.75523
-7.65973
-7.55769
-7.44892
-7.33321
-7.2104
-7.0803
-6.94278
-6.79771
-6.64501
-6.48462
-6.31653
-6.14077
-5.95742
-5.76663
-5.56858
-5.36353
-5.1518
-4.93378
-4.7099
-4.48066
-4.24661
-4.00835
-3.76652
-3.52178
-3.2748
-3.02628
-2.77688
-2.52724
-2.27795
-2.02956
-1.78242
-1.53714
-1.29311
-1.05259
-0.809127
-0.580385
-0.315176
-0.165847
-7.59131
-7.62398
-7.65919
-7.69634
-7.73473
-7.77379
-7.81307
-7.85219
-7.89086
-7.92886
-7.96608
-8.00245
-8.03793
-8.07253
-8.10625
-8.1391
-8.17111
-8.20228
-8.23262
-8.26211
-8.29074
-8.31848
-8.3453
-8.37115
-8.39599
-8.41976
-8.44239
-8.46381
-8.48396
-8.50274
-8.5201
-8.53593
-8.55015
-8.56266
-8.57339
-8.58222
-8.58906
-8.59381
-8.59635
-8.59659
-8.59439
-8.58965
-8.58224
-8.57203
-8.55889
-8.54267
-8.52324
-8.50043
-8.47409
-8.44405
-8.41015
-8.37219
-8.33
-8.28339
-8.23216
-8.17611
-8.11503
-8.04872
-7.97696
-7.89956
-7.81629
-7.72695
-7.63133
-7.52922
-7.42044
-7.30479
-7.18209
-7.05219
-6.91495
-6.77026
-6.61803
-6.45821
-6.29079
-6.11581
-5.93335
-5.74354
-5.54659
-5.34274
-5.1323
-4.91565
-4.6932
-4.46545
-4.23293
-3.99621
-3.75591
-3.51268
-3.26716
-3.02003
-2.77191
-2.52345
-2.27519
-2.02769
-1.78126
-1.5365
-1.29285
-1.05248
-0.809178
-0.580136
-0.315482
-0.165081
-7.6041
-7.63507
-7.66828
-7.70325
-7.73942
-7.77633
-7.81361
-7.85092
-7.88797
-7.92457
-7.96057
-7.99588
-8.03045
-8.06424
-8.09725
-8.12946
-8.16088
-8.19151
-8.22132
-8.25031
-8.27845
-8.30572
-8.33207
-8.35746
-8.38184
-8.40515
-8.42733
-8.44831
-8.46801
-8.48636
-8.50328
-8.51869
-8.53249
-8.54459
-8.5549
-8.56333
-8.56976
-8.57411
-8.57625
-8.57609
-8.5735
-8.56836
-8.56055
-8.54995
-8.53641
-8.5198
-8.49997
-8.47677