/*--------------------------------*- C++ -*----------------------------------*\
| =========                 |                                                 |
| \\      /  F ield         | OpenFOAM: The Open Source CFD Toolbox           |
|  \\    /   O peration     | Version:  4.1                                   |
|   \\  /    A nd           | Web:      www.OpenFOAM.org                      |
|    \\/     M anipulation  |                                                 |
\*---------------------------------------------------------------------------*/
FoamFile
{
    version     2.0;
    format      ascii;
    class       surfaceScalarField;
    location    "1400";
    object      phi;
}
// * * * * * * * * * * * * * * * * * * * * * * * * * * * * * * * * * * * * * //

dimensions      [0 3 -1 0 0 0 0];

internalField   nonuniform List<scalar> 
13452
(
5.98811e-05
3.87334e-07
5.95252e-05
3.55937e-07
5.92696e-05
2.55585e-07
5.90615e-05
2.08068e-07
5.88793e-05
1.8225e-07
5.87167e-05
1.62632e-07
5.85688e-05
1.47863e-07
5.84321e-05
1.36718e-07
5.83044e-05
1.27686e-07
5.81843e-05
1.2005e-07
5.80708e-05
1.13551e-07
5.79628e-05
1.0802e-07
5.78595e-05
1.03317e-07
5.77601e-05
9.93426e-08
5.76641e-05
9.60318e-08
5.75707e-05
9.33464e-08
5.74795e-05
9.12707e-08
5.73896e-05
8.98128e-08
5.73006e-05
8.90077e-08
5.72117e-05
8.89234e-08
5.7122e-05
8.96721e-08
5.70306e-05
9.14308e-08
5.69361e-05
9.44769e-08
5.68369e-05
9.92533e-08
5.67304e-05
1.06499e-07
5.66129e-05
1.17499e-07
5.64782e-05
1.34717e-07
5.63153e-05
1.62855e-07
5.61016e-05
2.13703e-07
5.57939e-05
3.07678e-07
5.52644e-05
5.29556e-07
5.4215e-05
1.04934e-06
1.53824e-06
5.26768e-05
6.20749e-05
3.02761e-07
6.19987e-05
4.3211e-07
6.18517e-05
4.02671e-07
6.16884e-05
3.71289e-07
6.15293e-05
3.41402e-07
6.13798e-05
3.12134e-07
6.12402e-05
2.8743e-07
6.11095e-05
2.6743e-07
6.09864e-05
2.50745e-07
6.087e-05
2.36515e-07
6.07592e-05
2.24308e-07
6.06534e-05
2.13815e-07
6.05519e-05
2.04799e-07
6.04542e-05
1.97096e-07
6.03596e-05
1.90598e-07
6.02677e-05
1.85242e-07
6.0178e-05
1.80999e-07
6.00899e-05
1.77881e-07
6.0003e-05
1.75945e-07
5.99166e-05
1.75297e-07
5.98302e-05
1.76116e-07
5.97429e-05
1.7868e-07
5.9654e-05
1.8341e-07
5.95623e-05
1.90963e-07
5.94664e-05
2.02388e-07
5.93645e-05
2.19377e-07
5.92542e-05
2.45021e-07
5.91328e-05
2.84257e-07
5.89972e-05
3.49318e-07
5.88509e-05
4.53965e-07
5.87172e-05
6.6322e-07
5.87641e-05
1.00245e-06
1.63623e-06
5.86661e-05
6.38373e-05
2.26834e-07
6.38685e-05
4.00965e-07
6.38445e-05
4.26692e-07
6.37851e-05
4.30683e-07
6.37048e-05
4.21707e-07
6.36142e-05
4.0268e-07
6.35198e-05
3.81811e-07
6.34248e-05
3.62426e-07
6.33308e-05
3.44799e-07
6.32384e-05
3.28904e-07
6.31479e-05
3.1475e-07
6.30595e-05
3.02261e-07
6.2973e-05
2.91328e-07
6.28882e-05
2.81869e-07
6.2805e-05
2.73834e-07
6.2723e-05
2.67205e-07
6.2642e-05
2.61996e-07
6.25616e-05
2.58265e-07
6.24814e-05
2.5612e-07
6.2401e-05
2.55735e-07
6.23197e-05
2.57374e-07
6.2237e-05
2.61427e-07
6.21519e-05
2.68476e-07
6.20635e-05
2.79385e-07
6.19704e-05
2.95489e-07
6.1871e-05
3.18836e-07
6.17631e-05
3.52895e-07
6.16445e-05
4.02794e-07
6.15146e-05
4.79223e-07
6.13758e-05
5.92821e-07
6.12583e-05
7.80663e-07
6.12265e-05
1.03431e-06
1.47462e-06
6.13881e-05
6.5637e-05
1.7289e-07
6.56889e-05
3.49048e-07
6.57122e-05
4.03388e-07
6.57127e-05
4.30226e-07
6.56932e-05
4.41243e-07
6.5658e-05
4.37832e-07
6.56121e-05
4.2772e-07
6.5559e-05
4.15494e-07
6.55012e-05
4.02585e-07
6.54404e-05
3.89745e-07
6.53776e-05
3.77548e-07
6.53136e-05
3.66309e-07
6.52487e-05
3.56188e-07
6.51833e-05
3.47287e-07
6.51174e-05
3.39693e-07
6.50511e-05
3.33495e-07
6.49843e-05
3.28797e-07
6.49169e-05
3.25736e-07
6.48485e-05
3.24498e-07
6.47789e-05
3.25339e-07
6.47076e-05
3.28618e-07
6.46342e-05
3.34835e-07
6.4558e-05
3.447e-07
6.44782e-05
3.59234e-07
6.43937e-05
3.79939e-07
6.43035e-05
4.09011e-07
6.42066e-05
4.4987e-07
6.41021e-05
5.07249e-07
6.39919e-05
5.89391e-07
6.38809e-05
7.03836e-07
6.37918e-05
8.69747e-07
6.37499e-05
1.07622e-06
1.3636e-06
6.38609e-05
6.74946e-05
1.351e-07
6.75432e-05
3.00461e-07
6.75779e-05
3.68609e-07
6.76013e-05
4.06835e-07
6.76127e-05
4.2992e-07
6.76119e-05
4.38594e-07
6.76009e-05
4.3874e-07
6.75815e-05
4.34825e-07
6.75555e-05
4.28602e-07
6.75242e-05
4.21091e-07
6.74886e-05
4.13138e-07
6.74496e-05
4.05321e-07
6.74077e-05
3.98014e-07
6.73635e-05
3.91492e-07
6.73173e-05
3.85982e-07
6.72691e-05
3.8169e-07
6.7219e-05
3.78819e-07
6.71672e-05
3.77596e-07
6.71134e-05
3.7829e-07
6.70575e-05
3.81242e-07
6.69992e-05
3.86893e-07
6.69382e-05
3.9583e-07
6.68741e-05
4.08854e-07
6.68062e-05
4.2706e-07
6.67342e-05
4.51988e-07
6.66574e-05
4.85763e-07
6.65759e-05
5.31429e-07
6.64902e-05
5.92896e-07
6.64037e-05
6.75905e-07
6.63224e-05
7.85109e-07
6.62633e-05
9.28872e-07
6.62421e-05
1.09742e-06
1.29606e-06
6.63097e-05
6.94108e-05
1.08307e-07
6.9452e-05
2.59319e-07
6.94866e-05
3.33951e-07
6.95155e-05
3.77934e-07
6.95381e-05
4.0733e-07
6.95532e-05
4.23502e-07
6.95611e-05
4.30879e-07
6.95624e-05
4.33508e-07
6.95578e-05
4.33181e-07
6.9548e-05
4.30912e-07
6.95336e-05
4.27571e-07
6.95151e-05
4.23817e-07
6.9493e-05
4.20118e-07
6.94676e-05
4.1684e-07
6.94393e-05
4.14296e-07
6.94082e-05
4.12773e-07
6.93745e-05
4.12551e-07
6.93381e-05
4.13926e-07
6.92992e-05
4.17237e-07
6.92576e-05
4.22886e-07
6.92131e-05
4.31376e-07
6.91656e-05
4.43346e-07
6.91148e-05
4.5963e-07
6.90605e-05
4.81324e-07
6.90026e-05
5.09882e-07
6.89412e-05
5.472e-07
6.88769e-05
5.95762e-07
6.88113e-05
6.58493e-07
6.87482e-05
7.38982e-07
6.86938e-05
8.39526e-07
6.86602e-05
9.62466e-07
6.8658e-05
1.09961e-06
1.24519e-06
6.87088e-05
7.13857e-05
8.89849e-08
7.14198e-05
2.252e-07
7.14515e-05
3.02222e-07
7.148e-05
3.49476e-07
7.1505e-05
3.8227e-07
7.15256e-05
4.02952e-07
7.15414e-05
4.15026e-07
7.15528e-05
4.22134e-07
7.15599e-05
4.26113e-07
7.15628e-05
4.27959e-07
7.15619e-05
4.28501e-07
7.15573e-05
4.28394e-07
7.15493e-05
4.28125e-07
7.15381e-05
4.28089e-07
7.15237e-05
4.28631e-07
7.15064e-05
4.30076e-07
7.14862e-05
4.32744e-07
7.14632e-05
4.36972e-07
7.14373e-05
4.43136e-07
7.14085e-05
4.51673e-07
7.13768e-05
4.63112e-07
7.1342e-05
4.78103e-07
7.13042e-05
4.97462e-07
7.12633e-05
5.22212e-07
7.12195e-05
5.53637e-07
7.11734e-05
5.93305e-07
7.11261e-05
6.43085e-07
7.10796e-05
7.04943e-07
7.10378e-05
7.80814e-07
7.1006e-05
8.71311e-07
7.09927e-05
9.75774e-07
7.10049e-05
1.08747e-06
1.1985e-06
7.10516e-05
7.34195e-05
7.47523e-08
7.34477e-05
1.97001e-07
7.34761e-05
2.73789e-07
7.35027e-05
3.22948e-07
7.35272e-05
3.57766e-07
7.35488e-05
3.81359e-07
7.35672e-05
3.96635e-07
7.35825e-05
4.06835e-07
7.35947e-05
4.13843e-07
7.3604e-05
4.18688e-07
7.36103e-05
4.22178e-07
7.36138e-05
4.24959e-07
7.36144e-05
4.27524e-07
7.36122e-05
4.30272e-07
7.36072e-05
4.33559e-07
7.35996e-05
4.37719e-07
7.35893e-05
4.43086e-07
7.35762e-05
4.50011e-07
7.35605e-05
4.58882e-07
7.3542e-05
4.70141e-07
7.35208e-05
4.84312e-07
7.34969e-05
5.02016e-07
7.34704e-05
5.24003e-07
7.34414e-05
5.51172e-07
7.34104e-05
5.84584e-07
7.33783e-05
6.25441e-07
7.33464e-05
6.75027e-07
7.33168e-05
7.3449e-07
7.3293e-05
8.04587e-07
7.32795e-05
8.8487e-07
7.32819e-05
9.73385e-07
7.33047e-05
1.06465e-06
1.15161e-06
7.33516e-05
7.55132e-05
6.4016e-08
7.55366e-05
1.73645e-07
7.55619e-05
2.48459e-07
7.55863e-05
2.98519e-07
7.56095e-05
3.34605e-07
7.56306e-05
3.6022e-07
7.56494e-05
3.77872e-07
7.56658e-05
3.90394e-07
7.568e-05
3.99664e-07
7.56919e-05
4.06762e-07
7.57016e-05
4.12494e-07
7.57091e-05
4.17511e-07
7.57143e-05
4.22316e-07
7.57172e-05
4.27316e-07
7.57179e-05
4.3287e-07
7.57163e-05
4.39317e-07
7.57124e-05
4.46992e-07
7.57062e-05
4.56244e-07
7.56976e-05
4.67454e-07
7.56867e-05
4.81049e-07
7.56735e-05
4.97518e-07
7.56581e-05
5.17426e-07
7.56407e-05
5.41427e-07
7.56216e-05
5.70261e-07
7.56014e-05
6.04748e-07
7.55811e-05
6.45731e-07
7.55621e-05
6.93988e-07
7.55466e-05
7.50027e-07
7.55374e-05
8.13833e-07
7.55379e-05
8.84366e-07
7.5552e-05
9.59285e-07
7.55824e-05
1.03419e-06
1.10351e-06
7.56305e-05
7.76679e-05
5.57116e-08
7.76873e-05
1.54196e-07
7.77099e-05
2.25936e-07
7.77323e-05
2.76062e-07
7.7754e-05
3.12881e-07
7.77743e-05
3.39929e-07
7.77928e-05
3.59434e-07
7.78093e-05
3.73835e-07
7.7824e-05
3.8494e-07
7.7837e-05
3.93857e-07
7.7848e-05
4.01398e-07
7.78573e-05
4.08218e-07
7.78648e-05
4.14834e-07
7.78705e-05
4.21663e-07
7.78743e-05
4.29069e-07
7.78762e-05
4.37392e-07
7.78762e-05
4.46965e-07
7.78743e-05
4.58127e-07
7.78706e-05
4.71242e-07
7.78649e-05
4.86705e-07
7.78575e-05
5.04956e-07
7.78484e-05
5.26485e-07
7.7838e-05
5.51829e-07
7.78267e-05
5.81563e-07
7.78152e-05
6.16268e-07
7.78044e-05
6.5647e-07
7.77959e-05
7.02538e-07
7.77914e-05
7.54519e-07
7.77933e-05
8.11932e-07
7.78042e-05
8.73475e-07
7.78266e-05
9.3686e-07
7.78622e-05
9.98595e-07
1.05452e-06
7.79112e-05
7.98849e-05
4.91241e-08
7.99012e-05
1.3787e-07
7.99213e-05
2.05906e-07
7.99419e-05
2.55408e-07
7.99623e-05
2.92514e-07
7.99817e-05
3.20537e-07
7.99996e-05
3.41486e-07
8.0016e-05
3.57454e-07
8.00308e-05
3.7012e-07
8.00441e-05
3.80594e-07
8.00558e-05
3.89683e-07
8.0066e-05
3.98041e-07
8.00746e-05
4.06189e-07
8.00817e-05
4.14555e-07
8.00873e-05
4.23506e-07
8.00913e-05
4.33381e-07
8.00938e-05
4.44506e-07
8.00947e-05
4.57205e-07
8.00941e-05
4.71817e-07
8.00921e-05
4.88697e-07
8.00888e-05
5.08227e-07
8.00845e-05
5.30811e-07
8.00795e-05
5.56868e-07
8.00742e-05
5.86808e-07
8.00695e-05
6.21001e-07
8.00663e-05
6.59707e-07
8.00658e-05
7.02991e-07
8.00697e-05
7.50591e-07
8.00799e-05
8.0178e-07
8.00982e-05
8.55204e-07
8.01262e-05
9.08817e-07
8.01649e-05
9.59885e-07
1.00537e-06
8.02141e-05
8.21658e-05
4.3769e-08
8.21796e-05
1.24026e-07
8.21975e-05
1.88061e-07
8.22165e-05
2.36388e-07
8.22356e-05
2.7339e-07
8.22542e-05
3.01999e-07
8.22716e-05
3.24039e-07
8.22878e-05
3.41299e-07
8.23026e-05
3.55308e-07
8.2316e-05
3.67142e-07
8.23281e-05
3.77595e-07
8.23389e-05
3.87307e-07
8.23483e-05
3.96798e-07
8.23563e-05
4.06497e-07
8.2363e-05
4.1677e-07
8.23685e-05
4.2795e-07
8.23726e-05
4.40351e-07
8.23756e-05
4.54277e-07
8.23773e-05
4.70036e-07
8.23781e-05
4.87939e-07
8.2378e-05
5.08304e-07
8.23774e-05
5.31447e-07
8.23766e-05
5.57672e-07
8.23761e-05
5.87245e-07
8.23768e-05
6.20354e-07
8.23794e-05
6.57054e-07
8.23852e-05
6.97196e-07
8.23955e-05
7.40335e-07
8.24116e-05
7.85643e-07
8.2435e-05
8.31837e-07
8.24666e-05
8.77174e-07
8.2507e-05
9.19533e-07
9.56712e-07
8.25556e-05
8.45122e-05
3.93138e-08
8.45241e-05
1.1215e-07
8.45401e-05
1.72103e-07
8.45576e-05
2.18836e-07
8.45756e-05
2.55388e-07
8.45934e-05
2.84248e-07
8.46103e-05
3.07057e-07
8.46263e-05
3.25349e-07
8.46411e-05
3.40493e-07
8.46547e-05
3.53509e-07
8.46672e-05
3.65164e-07
8.46784e-05
3.76077e-07
8.46884e-05
3.86758e-07
8.46973e-05
3.97626e-07
8.4705e-05
4.09042e-07
8.47117e-05
4.21326e-07
8.47173e-05
4.34774e-07
8.47219e-05
4.49668e-07
8.47256e-05
4.66278e-07
8.47287e-05
4.84868e-07
8.47313e-05
5.0569e-07
8.47338e-05
5.2898e-07
8.47365e-05
5.54935e-07
8.47401e-05
5.83696e-07
8.47451e-05
6.15308e-07
8.47525e-05
6.49678e-07
8.47632e-05
6.86519e-07
8.47782e-05
7.25294e-07
8.47987e-05
7.65168e-07
8.48255e-05
8.0499e-07
8.48594e-05
8.43318e-07
8.49004e-05
8.78524e-07
9.09012e-07
8.49481e-05
8.6926e-05
3.55272e-08
8.69363e-05
1.0183e-07
8.69506e-05
1.57755e-07
8.69669e-05
2.02588e-07
8.69839e-05
2.3839e-07
8.70009e-05
2.67205e-07
8.70175e-05
2.90488e-07
8.70333e-05
3.09562e-07
8.70481e-05
3.25634e-07
8.7062e-05
3.39655e-07
8.70748e-05
3.52353e-07
8.70865e-05
3.64318e-07
8.70973e-05
3.76041e-07
8.7107e-05
3.87927e-07
8.71157e-05
4.00322e-07
8.71235e-05
4.1353e-07
8.71304e-05
4.27824e-07
8.71366e-05
4.43456e-07
8.71423e-05
4.6066e-07
8.71475e-05
4.7965e-07
8.71525e-05
5.00615e-07
8.71578e-05
5.23715e-07
8.71637e-05
5.49058e-07
8.71707e-05
5.76683e-07
8.71795e-05
6.06527e-07
8.71908e-05
6.38396e-07
8.72054e-05
6.71927e-07
8.72241e-05
7.06553e-07
8.72478e-05
7.41491e-07
8.7277e-05
7.75742e-07
8.73122e-05
8.0814e-07
8.73533e-05
8.37438e-07
8.62487e-07
8.73998e-05
8.94088e-05
3.22446e-08
8.94179e-05
9.27422e-08
8.94309e-05
1.4476e-07
8.9446e-05
1.87481e-07
8.94621e-05
2.22276e-07
8.94785e-05
2.50784e-07
8.94948e-05
2.74274e-07
8.95104e-05
2.93888e-07
8.95254e-05
3.10683e-07
8.95395e-05
3.25528e-07
8.95528e-05
3.39104e-07
8.95651e-05
3.5197e-07
8.95766e-05
3.64586e-07
8.95872e-05
3.77338e-07
8.95969e-05
3.90552e-07
8.96059e-05
4.0451e-07
8.96143e-05
4.1946e-07
8.96221e-05
4.35622e-07
8.96296e-05
4.5319e-07
8.96369e-05
4.7233e-07
8.96444e-05
4.93175e-07
8.96523e-05
5.15817e-07
8.9661e-05
5.40289e-07
8.96712e-05
5.66552e-07
8.96832e-05
5.94469e-07
8.96978e-05
6.23784e-07
8.97157e-05
6.54101e-07
8.97373e-05
6.84868e-07
8.97635e-05
7.15379e-07
8.97944e-05
7.4479e-07
8.98304e-05
7.7217e-07
8.98712e-05
7.96573e-07
8.1717e-07
8.99166e-05
9.19628e-05
2.9346e-08
9.19709e-05
8.46253e-08
9.19827e-05
1.32888e-07
9.19969e-05
1.73354e-07
9.20122e-05
2.06925e-07
9.20281e-05
2.34892e-07
9.2044e-05
2.58345e-07
9.20597e-05
2.78269e-07
9.20748e-05
2.95583e-07
9.20892e-05
3.1107e-07
9.2103e-05
3.25358e-07
9.2116e-05
3.38965e-07
9.21282e-05
3.5232e-07
9.21398e-05
3.65783e-07
9.21507e-05
3.79657e-07
9.2161e-05
3.94196e-07
9.21708e-05
4.09621e-07
9.21803e-05
4.26118e-07
9.21897e-05
4.43843e-07
9.21991e-05
4.62917e-07
9.22089e-05
4.83422e-07
9.22193e-05
5.05393e-07
9.22308e-05
5.28806e-07
9.22437e-05
5.53564e-07
9.22587e-05
5.79482e-07
9.22762e-05
6.06275e-07
9.22968e-05
6.33543e-07
9.23209e-05
6.60774e-07
9.23489e-05
6.87351e-07
9.23811e-05
7.12576e-07
9.24176e-05
7.35715e-07
9.24581e-05
7.5605e-07
7.72986e-07
9.25023e-05
9.45898e-05
2.67418e-08
9.45971e-05
7.72713e-08
9.46081e-05
1.21934e-07
9.46214e-05
1.6005e-07
9.46361e-05
1.92215e-07
9.46515e-05
2.19433e-07
9.46673e-05
2.42626e-07
9.46829e-05
2.62642e-07
9.46982e-05
2.80276e-07
9.4713e-05
2.96222e-07
9.47274e-05
3.11052e-07
9.47411e-05
3.25238e-07
9.47542e-05
3.39176e-07
9.47668e-05
3.53194e-07
9.47789e-05
3.67566e-07
9.47906e-05
3.82521e-07
9.4802e-05
3.98247e-07
9.48132e-05
4.149e-07
9.48244e-05
4.32596e-07
9.48359e-05
4.51418e-07
9.48479e-05
4.71403e-07
9.48608e-05
4.92541e-07
9.48748e-05
5.14764e-07
9.48905e-05
5.37938e-07
9.49081e-05
5.61851e-07
9.49282e-05
5.8621e-07
9.49511e-05
6.10634e-07
9.49772e-05
6.34664e-07
9.50067e-05
6.57772e-07
9.50399e-05
6.79391e-07
9.50767e-05
6.98943e-07
9.51169e-05
7.15891e-07
7.29809e-07
9.516e-05
9.72919e-05
2.43627e-08
9.72987e-05
7.05105e-08
9.73089e-05
1.11715e-07
9.73215e-05
1.47419e-07
9.73357e-05
1.78022e-07
9.73508e-05
2.04303e-07
9.73664e-05
2.27033e-07
9.73821e-05
2.46935e-07
9.73977e-05
2.64695e-07
9.7413e-05
2.8092e-07
9.74279e-05
2.96121e-07
9.74425e-05
3.10725e-07
9.74565e-05
3.25087e-07
9.74702e-05
3.39503e-07
9.74836e-05
3.54217e-07
9.74967e-05
3.69427e-07
9.75096e-05
3.85293e-07
9.75226e-05
4.01935e-07
9.75358e-05
4.1944e-07
9.75493e-05
4.37851e-07
9.75636e-05
4.57172e-07
9.75787e-05
4.77358e-07
9.75952e-05
4.98311e-07
9.76133e-05
5.19873e-07
9.76333e-05
5.41824e-07
9.76556e-05
5.63877e-07
9.76806e-05
5.85683e-07
9.77084e-05
6.0684e-07
9.77393e-05
6.26907e-07
9.77732e-05
6.45424e-07
9.78102e-05
6.61947e-07
9.785e-05
6.7607e-07
6.87494e-07
9.78924e-05
0.000100071
2.21538e-08
0.000100078
6.42029e-08
0.000100087
1.02066e-07
0.000100099
1.35314e-07
0.000100113
1.64222e-07
0.000100128
1.89396e-07
0.000100144
2.11474e-07
0.000100159
2.31071e-07
0.000100175
2.48769e-07
0.000100191
2.65095e-07
0.000100207
2.805e-07
0.000100222
2.9536e-07
0.000100237
3.09991e-07
0.000100252
3.24652e-07
0.000100267
3.39555e-07
0.000100281
3.54869e-07
0.000100296
3.70722e-07
0.000100311
3.87207e-07
0.000100326
4.04378e-07
0.000100341
4.2225e-07
0.000100358
4.40798e-07
0.000100375
4.59952e-07
0.000100394
4.79593e-07
0.000100414
4.99556e-07
0.000100436
5.1962e-07
0.000100461
5.39519e-07
0.000100487
5.58941e-07
0.000100517
5.7754e-07
0.000100549
5.94952e-07
0.000100583
6.10811e-07
0.000100621
6.24775e-07
0.00010066
6.36543e-07
6.45905e-07
0.000100702
0.00010293
2.00702e-08
0.000102936
5.82303e-08
0.000102945
9.28425e-08
0.000102957
1.23594e-07
0.000102971
1.50689e-07
0.000102985
1.74601e-07
0.000103001
1.95854e-07
0.000103017
2.14963e-07
0.000103033
2.32421e-07
0.00010305
2.48678e-07
0.000103066
2.64122e-07
0.000103083
2.79081e-07
0.000103099
2.93827e-07
0.000103115
3.08585e-07
0.000103131
3.23533e-07
0.000103147
3.38809e-07
0.000103163
3.54514e-07
0.00010318
3.70712e-07
0.000103197
3.8743e-07
0.000103214
4.04661e-07
0.000103233
4.22356e-07
0.000103252
4.40429e-07
0.000103273
4.58752e-07
0.000103295
4.77158e-07
0.000103319
4.95438e-07
0.000103346
5.13348e-07
0.000103374
5.30617e-07
0.000103405
5.46952e-07
0.000103437
5.62057e-07
0.000103473
5.75643e-07
0.00010351
5.87449e-07
0.000103549
5.97254e-07
6.04915e-07
0.00010359
0.000105871
1.80741e-08
0.000105876
5.24908e-08
0.000105885
8.391e-08
0.000105897
1.12124e-07
0.00010591
1.37297e-07
0.000105925
1.59803e-07
0.000105941
1.80068e-07
0.000105957
1.98519e-07
0.000105974
2.15568e-07
0.000105991
2.31591e-07
0.000106008
2.46917e-07
0.000106026
2.61823e-07
0.000106043
2.7654e-07
0.00010606
2.91253e-07
0.000106078
3.06111e-07
0.000106095
3.2122e-07
0.000106113
3.36655e-07
0.000106131
3.52454e-07
0.00010615
3.68624e-07
0.00010617
3.85135e-07
0.00010619
4.01926e-07
0.000106212
4.18899e-07
0.000106235
4.35924e-07
0.000106259
4.52839e-07
0.000106285
4.69451e-07
0.000106313
4.85544e-07
0.000106342
5.00883e-07
0.000106374
5.15227e-07
0.000106408
5.28336e-07
0.000106443
5.39985e-07
0.000106481
5.49977e-07
0.00010652
5.5815e-07
5.64412e-07
0.000106561
0.000108895
1.61323e-08
0.000108901
4.68937e-08
0.00010891
7.51453e-08
0.000108921
1.00772e-07
0.000108934
1.23919e-07
0.000108949
1.44883e-07
0.000108965
1.64008e-07
0.000108982
1.81642e-07
0.000109
1.98122e-07
0.000109018
2.13755e-07
0.000109036
2.28813e-07
0.000109054
2.43522e-07
0.000109072
2.58071e-07
0.000109091
2.7261e-07
0.00010911
2.87253e-07
0.000109129
3.02081e-07
0.000109149
3.1714e-07
0.000109169
3.32449e-07
0.000109189
3.47994e-07
0.000109211
3.63732e-07
0.000109233
3.7959e-07
0.000109256
3.95467e-07
0.000109281
4.11235e-07
0.000109307
4.26742e-07
0.000109335
4.41812e-07
0.000109364
4.56259e-07
0.000109395
4.69882e-07
0.000109428
4.82485e-07
0.000109462
4.93875e-07
0.000109498
5.0388e-07
0.000109536
5.12352e-07
0.000109575
5.19175e-07
5.24293e-07
0.000109615
0.000112006
1.42147e-08
0.000112012
4.13559e-08
0.000112021
6.64315e-08
0.000112032
8.94085e-08
0.000112046
1.10424e-07
0.000112061
1.29716e-07
0.000112077
1.47558e-07
0.000112095
1.64225e-07
0.000112113
1.79986e-07
0.000112131
1.95084e-07
0.00011215
2.09733e-07
0.00011217
2.24112e-07
0.00011219
2.38367e-07
0.00011221
2.52612e-07
0.00011223
2.6693e-07
0.000112251
2.81375e-07
0.000112272
2.9597e-07
0.000112293
3.10715e-07
0.000112316
3.2558e-07
0.000112339
3.40511e-07
0.000112363
3.55429e-07
0.000112389
3.70234e-07
0.000112415
3.84802e-07
0.000112443
3.98993e-07
0.000112472
4.12654e-07
0.000112502
4.25621e-07
0.000112535
4.3773e-07
0.000112568
4.48819e-07
0.000112603
4.58738e-07
0.00011264
4.67355e-07
0.000112678
4.74561e-07
0.000112717
4.80276e-07
4.84467e-07
0.000112756
0.000115206
1.22932e-08
0.000115212
3.57982e-08
0.000115221
5.76544e-08
0.000115232
7.79025e-08
0.000115246
9.6678e-08
0.000115262
1.14172e-07
0.000115278
1.30594e-07
0.000115297
1.46156e-07
0.000115315
1.61059e-07
0.000115335
1.75488e-07
0.000115355
1.89599e-07
0.000115376
2.03526e-07
0.000115397
2.17372e-07
0.000115418
2.31218e-07
0.00011544
2.45114e-07
0.000115462
2.5909e-07
0.000115485
2.7315e-07
0.000115509
2.87274e-07
0.000115533
3.01422e-07
0.000115558
3.15531e-07
0.000115584
3.29521e-07
0.000115611
3.43291e-07
0.000115639
3.56728e-07
0.000115668
3.69705e-07
0.000115698
3.82088e-07
0.00011573
3.93738e-07
0.000115764
4.04519e-07
0.000115798
4.14303e-07
0.000115834
4.22971e-07
0.000115871
4.30424e-07
0.000115909
4.36585e-07
0.000115948
4.41398e-07
4.44851e-07
0.000115987
0.000118498
1.03398e-08
0.000118503
3.0142e-08
0.000118512
4.86987e-08
0.000118524
6.61184e-08
0.000118538
8.25388e-08
0.000118554
9.81098e-08
0.000118572
1.12984e-07
0.000118591
1.27312e-07
0.000118611
1.41232e-07
0.000118631
1.54869e-07
0.000118653
1.68327e-07
0.000118674
1.81693e-07
0.000118697
1.9503e-07
0.00011872
2.08384e-07
0.000118743
2.21778e-07
0.000118767
2.35216e-07
0.000118791
2.48685e-07
0.000118816
2.6215e-07
0.000118842
2.7556e-07
0.000118869
2.88849e-07
0.000118897
3.01935e-07
0.000118925
3.14722e-07
0.000118955
3.27105e-07
0.000118985
3.38973e-07
0.000119017
3.50208e-07
0.00011905
3.60695e-07
0.000119085
3.70323e-07
0.00011912
3.78989e-07
0.000119156
3.86603e-07
0.000119194
3.93091e-07
0.000119232
3.98398e-07
0.000119271
4.0249e-07
4.05367e-07
0.00011931
0.000121883
8.32567e-09
0.000121889
2.43054e-08
0.000121898
3.94431e-08
0.000121911
5.39123e-08
0.000121925
6.78539e-08
0.000121942
8.13792e-08
0.00012196
9.45852e-08
0.00012198
1.07561e-07
0.000122001
1.20385e-07
0.000122023
1.33123e-07
0.000122045
1.45828e-07
0.000122068
1.5854e-07
0.000122092
1.71283e-07
0.000122116
1.84069e-07
0.000122141
1.96895e-07
0.000122167
2.09743e-07
0.000122193
2.22581e-07
0.00012222
2.35364e-07
0.000122247
2.48033e-07
0.000122276
2.60517e-07
0.000122305
2.72735e-07
0.000122335
2.84599e-07
0.000122366
2.96012e-07
0.000122398
3.06876e-07
0.000122431
3.17091e-07
0.000122465
3.26562e-07
0.0001225
3.35197e-07
0.000122537
3.42916e-07
0.000122574
3.49651e-07
0.000122611
3.55349e-07
0.00012265
3.59972e-07
0.000122689
3.635e-07
3.65942e-07
0.000122728
0.000125366
6.21926e-09
0.000125372
1.81987e-08
0.000125381
2.97539e-08
0.000125394
4.1125e-08
0.00012541
5.24546e-08
0.000125427
6.38125e-08
0.000125446
7.52376e-08
0.000125467
8.67569e-08
0.000125489
9.83875e-08
0.000125512
1.10137e-07
0.000125536
1.22006e-07
0.000125561
1.33987e-07
0.000125586
1.46068e-07
0.000125612
1.58228e-07
0.000125638
1.70437e-07
0.000125665
1.82658e-07
0.000125693
1.94843e-07
0.000125721
2.06936e-07
0.000125751
2.18872e-07
0.00012578
2.30578e-07
0.000125811
2.41977e-07
0.000125843
2.52985e-07
0.000125875
2.63515e-07
0.000125909
2.73481e-07
0.000125943
2.82799e-07
0.000125978
2.9139e-07
0.000126014
2.9918e-07
0.000126051
3.06108e-07
0.000126089
3.12122e-07
0.000126127
3.17184e-07
0.000126165
3.21271e-07
0.000126205
3.24374e-07
3.26507e-07
0.000126244
0.000128947
3.9841e-09
0.000128954
1.17179e-08
0.000128964
1.94772e-08
0.000128978
2.7574e-08
0.000128994
3.61488e-08
0.000129013
4.52207e-08
0.000129033
5.47633e-08
0.000129055
6.47373e-08
0.000129078
7.50959e-08
0.000129103
8.57863e-08
0.000129128
9.67547e-08
0.000129154
1.07949e-07
0.000129181
1.19319e-07
0.000129208
1.30811e-07
0.000129236
1.42373e-07
0.000129265
1.53946e-07
0.000129294
1.6547e-07
0.000129324
1.76879e-07
0.000129355
1.88104e-07
0.000129387
1.99072e-07
0.000129419
2.09706e-07
0.000129452
2.1993e-07
0.000129486
2.29666e-07
0.00012952
2.38839e-07
0.000129556
2.47377e-07
0.000129592
2.55216e-07
0.000129629
2.62298e-07
0.000129666
2.68575e-07
0.000129705
2.74009e-07
0.000129743
2.78575e-07
0.000129782
2.82258e-07
0.000129821
2.85058e-07
2.86992e-07
0.000129861
0.000132631
1.5756e-09
0.000132638
4.73599e-09
0.00013265
8.42643e-09
0.000132664
1.3042e-08
0.000132681
1.87114e-08
0.000132701
2.53853e-08
0.000132723
3.29584e-08
0.000132747
4.13183e-08
0.000132771
5.03487e-08
0.000132797
5.99325e-08
0.000132824
6.99598e-08
0.000132852
8.03325e-08
0.00013288
9.09617e-08
0.000132909
1.01765e-07
0.000132939
1.12666e-07
0.000132969
1.23588e-07
0.000133
1.34459e-07
0.000133032
1.45204e-07
0.000133064
1.55751e-07
0.000133097
1.66027e-07
0.000133131
1.75959e-07
0.000133165
1.85474e-07
0.0001332
1.94505e-07
0.000133236
2.02986e-07
0.000133273
2.10858e-07
0.00013331
2.18065e-07
0.000133348
2.24565e-07
0.000133386
2.30318e-07
0.000133425
2.353e-07
0.000133464
2.39492e-07
0.000133503
2.4289e-07
0.000133543
2.45495e-07
2.47329e-07
0.000133582
0.000136421
-1.06388e-09
0.000136429
-2.911e-09
0.000136441
-3.63519e-09
0.000136456
-2.73976e-09
0.000136475
-1.28631e-10
0.000136497
4.04805e-09
0.00013652
9.58604e-09
0.000136545
1.62893e-08
0.000136571
2.3964e-08
0.000136599
3.2422e-08
0.000136627
4.1494e-08
0.000136657
5.10346e-08
0.000136687
6.09174e-08
0.000136717
7.10311e-08
0.000136749
8.12754e-08
0.000136781
9.15591e-08
0.000136814
1.01798e-07
0.000136847
1.11911e-07
0.000136881
1.21824e-07
0.000136915
1.31463e-07
0.00013695
1.40758e-07
0.000136986
1.49644e-07
0.000137023
1.58059e-07
0.00013706
1.65947e-07
0.000137097
1.73257e-07
0.000137136
1.79946e-07
0.000137174
1.85978e-07
0.000137213
1.91325e-07
0.000137252
1.95969e-07
0.000137292
1.999e-07
0.000137332
2.03117e-07
0.000137372
2.05626e-07
2.0745e-07
0.000137412
0.000140319
-4.01321e-09
0.000140327
-1.14468e-08
0.000140341
-1.70224e-08
0.000140358
-2.01152e-08
0.000140379
-2.07059e-08
0.000140402
-1.91014e-08
0.000140427
-1.56333e-08
0.000140454
-1.05941e-08
0.000140482
-4.26684e-09
0.000140511
3.08009e-09
0.000140542
1.12138e-08
0.000140573
1.99405e-08
0.000140605
2.90965e-08
0.000140637
3.85417e-08
0.00014067
4.81547e-08
0.000140704
5.78297e-08
0.000140738
6.74724e-08
0.000140773
7.69976e-08
0.000140809
8.63275e-08
0.000140845
9.53902e-08
0.000140881
1.0412e-07
0.000140919
1.12455e-07
0.000140956
1.20342e-07
0.000140995
1.27732e-07
0.000141033
1.34581e-07
0.000141072
1.40855e-07
0.000141112
1.46526e-07
0.000141151
1.51573e-07
0.000141191
1.55984e-07
0.000141232
1.59753e-07
0.000141272
1.62882e-07
0.000141312
1.65381e-07
1.6727e-07
0.000141352
0.000144328
-7.38665e-09
0.000144338
-2.11933e-08
0.000144353
-3.21712e-08
0.000144372
-3.95372e-08
0.000144395
-4.34439e-08
0.00014442
-4.4445e-08
0.000144448
-4.30323e-08
0.000144477
-3.96118e-08
0.000144507
-3.4575e-08
0.000144538
-2.82833e-08
0.000144571
-2.10366e-08
0.000144604
-1.30766e-08
0.000144637
-4.60322e-09
0.000144672
4.21608e-09
0.000144707
1.32408e-08
0.000144742
2.23521e-08
0.000144778
3.14478e-08
0.000144815
4.04388e-08
0.000144852
4.92462e-08
0.000144889
5.77999e-08
0.000144927
6.60374e-08
0.000144966
7.39031e-08
0.000145005
8.13482e-08
0.000145044
8.83304e-08
0.000145084
9.48142e-08
0.000145124
1.00771e-07
0.000145165
1.06178e-07
0.000145205
1.11022e-07
0.000145246
1.15294e-07
0.000145287
1.18993e-07
0.000145327
1.22123e-07
0.000145368
1.24695e-07
1.26731e-07
0.000145409
0.000148452
-1.13599e-08
0.000148463
-3.26434e-08
0.000148481
-4.97092e-08
0.000148503
-6.16065e-08
0.000148528
-6.88802e-08
0.000148556
-7.24657e-08
0.000148586
-7.30329e-08
0.000148618
-7.11155e-08
0.000148651
-6.7244e-08
0.000148684
-6.18914e-08
0.000148719
-5.54289e-08
0.000148754
-4.81459e-08
0.000148789
-4.02772e-08
0.000148826
-3.20154e-08
0.000148862
-2.3517e-08
0.0001489
-1.49106e-08
0.000148937
-6.30356e-09
0.000148976
2.21301e-09
0.000149014
1.0561e-08
0.000149053
1.8673e-08
0.000149093
2.64905e-08
0.000149133
3.39632e-08
0.000149173
4.10477e-08
0.000149214
4.77078e-08
0.000149255
5.39138e-08
0.000149296
5.96425e-08
0.000149337
6.48768e-08
0.000149379
6.96061e-08
0.00014942
7.38253e-08
0.000149461
7.75349e-08
0.000149503
8.07403e-08
0.000149544
8.34505e-08
8.56845e-08
0.000149585
0.000152694
-1.62147e-08
0.000152708
-4.65964e-08
0.000152729
-7.05963e-08
0.000152754
-8.715e-08
0.000152783
-9.76777e-08
0.000152814
-1.03706e-07
0.000152847
-1.0608e-07
0.000152882
-1.05478e-07
0.000152917
-1.026e-07
0.000152953
-9.80379e-08
0.00015299
-9.22281e-08
0.000153027
-8.5505e-08
0.000153065
-7.81373e-08
0.000153104
-7.03402e-08
0.000153142
-6.22834e-08
0.000153182
-5.41024e-08
0.000153221
-4.59075e-08
0.000153261
-3.77898e-08
0.000153302
-2.98251e-08
0.000153342
-2.20769e-08
0.000153383
-1.45989e-08
0.000153425
-7.4361e-09
0.000153467
-6.26142e-10
0.000153508
5.80019e-09
0.000153551
1.18184e-08
0.000153593
1.741e-08
0.000153635
2.2562e-08
0.000153677
2.72672e-08
0.00015372
3.15232e-08
0.000153762
3.53327e-08
0.000153804
3.8703e-08
0.000153846
4.16459e-08
4.41791e-08
0.000153887
0.000157058
-2.24713e-08
0.000157075
-6.43553e-08
0.000157101
-9.62574e-08
0.000157131
-1.17421e-07
0.000157165
-1.3096e-07
0.0001572
-1.39102e-07
0.000157237
-1.4286e-07
0.000157275
-1.43165e-07
0.000157313
-1.4096e-07
0.000157352
-1.36949e-07
0.000157391
-1.31613e-07
0.000157431
-1.25315e-07
0.000157471
-1.18345e-07
0.000157512
-1.10929e-07
0.000157553
-1.03239e-07
0.000157594
-9.54124e-08
0.000157636
-8.75563e-08
0.000157678
-7.97591e-08
0.00015772
-7.20924e-08
0.000157763
-6.46153e-08
0.000157805
-5.73765e-08
0.000157848
-5.04164e-08
0.000157891
-4.37678e-08
0.000157935
-3.74574e-08
0.000157978
-3.15057e-08
0.000158021
-2.59281e-08
0.000158065
-2.0735e-08
0.000158108
-1.59324e-08
0.000158151
-1.15223e-08
0.000158194
-7.50306e-09
0.000158236
-3.87072e-09
0.000158279
-6.19914e-10
2.26293e-09
0.00015832
0.000161547
-3.1352e-08
0.000161572
-8.85734e-08
0.000161604
-1.28387e-07
0.00016164
-1.53375e-07
0.000161678
-1.69784e-07
0.000161719
-1.79959e-07
0.000161761
-1.84819e-07
0.000161804
-1.85685e-07
0.000161847
-1.83815e-07
0.00016189
-1.80026e-07
0.000161933
-1.74841e-07
0.000161976
-1.68661e-07
0.00016202
-1.61796e-07
0.000162063
-1.5448e-07
0.000162107
-1.46886e-07
0.000162151
-1.39147e-07
0.000162194
-1.31366e-07
0.000162238
-1.23626e-07
0.000162282
-1.15996e-07
0.000162326
-1.08529e-07
0.00016237
-1.01269e-07
0.000162414
-9.42536e-08
0.000162458
-8.75114e-08
0.000162501
-8.10662e-08
0.000162545
-7.49359e-08
0.000162588
-6.9134e-08
0.000162631
-6.36692e-08
0.000162673
-5.8546e-08
0.000162716
-5.37651e-08
0.000162757
-4.93231e-08
0.000162799
-4.52128e-08
0.00016284
-4.14217e-08
-3.79396e-08
0.00016288
0.000166166
-4.41073e-08
0.000166205
-1.2681e-07
0.000166249
-1.73072e-07
0.000166295
-1.99461e-07
0.000166343
-2.17456e-07
0.000166392
-2.28637e-07
0.000166441
-2.33769e-07
0.00016649
-2.34608e-07
0.000166538
-2.3257e-07
0.000166587
-2.28451e-07
0.000166635
-2.22779e-07
0.000166682
-2.15993e-07
0.000166729
-2.08441e-07
0.000166775
-2.00384e-07
0.00016682
-1.92013e-07
0.000166864
-1.83481e-07
0.000166908
-1.74906e-07
0.00016695
-1.66381e-07
0.000166992
-1.57979e-07
0.000167034
-1.49758e-07
0.000167074
-1.41763e-07
0.000167114
-1.3403e-07
0.000167153
-1.26586e-07
0.000167191
-1.19453e-07
0.000167229
-1.12645e-07
0.000167266
-1.06171e-07
0.000167302
-1.00039e-07
0.000167338
-9.42505e-08
0.000167373
-8.88048e-08
0.000167408
-8.37005e-08
0.000167441
-7.89348e-08
0.000167474