/*--------------------------------*- C++ -*----------------------------------*\
| =========                 |                                                 |
| \\      /  F ield         | OpenFOAM: The Open Source CFD Toolbox           |
|  \\    /   O peration     | Version:  4.1                                   |
|   \\  /    A nd           | Web:      www.OpenFOAM.org                      |
|    \\/     M anipulation  |                                                 |
\*---------------------------------------------------------------------------*/
FoamFile
{
    version     2.0;
    format      ascii;
    class       volVectorField;
    location    "1400";
    object      U;
}
// * * * * * * * * * * * * * * * * * * * * * * * * * * * * * * * * * * * * * //

dimensions      [0 1 -1 0 0 0 0];

internalField   nonuniform List<vector> 
6820
(
(7.30076 0.0105784 0)
(7.26066 0.0145399 0)
(7.22719 0.0116116 0)
(7.19817 0.00889174 0)
(7.17426 0.00729667 0)
(7.15367 0.00634271 0)
(7.13496 0.0057384 0)
(7.11768 0.00533701 0)
(7.10162 0.00504573 0)
(7.08659 0.00481616 0)
(7.07241 0.00462898 0)
(7.05895 0.00447625 0)
(7.04611 0.00435338 0)
(7.0338 0.00425737 0)
(7.02193 0.00418656 0)
(7.01043 0.00414037 0)
(6.99921 0.00411925 0)
(6.98821 0.00412477 0)
(6.97735 0.00415983 0)
(6.96655 0.00422909 0)
(6.95571 0.00433961 0)
(6.94472 0.00450202 0)
(6.93345 0.00473254 0)
(6.92172 0.00505672 0)
(6.90929 0.00551637 0)
(6.89578 0.00618482 0)
(6.88067 0.00719806 0)
(6.86283 0.00882991 0)
(6.84109 0.0117054 0)
(6.80908 0.0171953 0)
(6.77014 0.0286568 0)
(6.65294 0.0702454 0)
(6.63987 -0.0294856 0)
(7.3396 0.0129479 0)
(7.34154 0.0168193 0)
(7.32732 0.0138363 0)
(7.30715 0.0119873 0)
(7.28756 0.0109487 0)
(7.26941 0.0100963 0)
(7.25237 0.0094184 0)
(7.23638 0.00890359 0)
(7.22139 0.00849458 0)
(7.20725 0.00815855 0)
(7.19383 0.00788309 0)
(7.18104 0.00766022 0)
(7.1688 0.00748349 0)
(7.15703 0.0073488 0)
(7.14566 0.00725418 0)
(7.13465 0.0071994 0)
(7.12392 0.00718583 0)
(7.11342 0.00721669 0)
(7.10308 0.00729737 0)
(7.09284 0.00743621 0)
(7.08264 0.00764554 0)
(7.07239 0.00794364 0)
(7.06199 0.00835804 0)
(7.05134 0.00893128 0)
(7.04029 0.00973243 0)
(7.02864 0.0108768 0)
(7.01618 0.0125818 0)
(7.00246 0.015227 0)
(6.98758 0.0197902 0)
(6.96983 0.0276048 0)
(6.95498 0.0454615 0)
(6.93763 0.0768926 0)
(6.97924 0.170818 0)
(7.33613 0.0108741 0)
(7.34462 0.0173199 0)
(7.34579 0.0178696 0)
(7.34012 0.017878 0)
(7.33147 0.0174235 0)
(7.3215 0.016604 0)
(7.31078 0.0157929 0)
(7.29981 0.0151131 0)
(7.2889 0.0145453 0)
(7.27817 0.0140682 0)
(7.26765 0.0136721 0)
(7.25736 0.0133486 0)
(7.2473 0.013091 0)
(7.23745 0.0128956 0)
(7.2278 0.0127612 0)
(7.21831 0.012689 0)
(7.20894 0.0126822 0)
(7.19967 0.0127467 0)
(7.19045 0.0128916 0)
(7.18123 0.0131306 0)
(7.17195 0.0134829 0)
(7.16254 0.0139767 0)
(7.15291 0.0146532 0)
(7.14297 0.015574 0)
(7.13257 0.0168351 0)
(7.12154 0.0185875 0)
(7.1097 0.021096 0)
(7.09671 0.0247735 0)
(7.08258 0.0305503 0)
(7.06669 0.0394916 0)
(7.05207 0.0556615 0)
(7.03855 0.079976 0)
(7.05088 0.126598 0)
(7.33465 0.00788231 0)
(7.34191 0.0151073 0)
(7.34712 0.0174406 0)
(7.34828 0.0186843 0)
(7.34686 0.0192152 0)
(7.3437 0.0191486 0)
(7.3391 0.0188427 0)
(7.33348 0.0184846 0)
(7.32722 0.0181222 0)
(7.32055 0.0177797 0)
(7.31362 0.0174764 0)
(7.30651 0.0172224 0)
(7.29929 0.0170227 0)
(7.29201 0.0168812 0)
(7.28467 0.0168028 0)
(7.27728 0.0167934 0)
(7.26984 0.0168607 0)
(7.26234 0.0170151 0)
(7.25475 0.0172708 0)
(7.24705 0.0176471 0)
(7.23919 0.0181708 0)
(7.23112 0.0188793 0)
(7.22277 0.0198258 0)
(7.21407 0.0210876 0)
(7.20491 0.0227808 0)
(7.19518 0.02508 0)
(7.18476 0.0282683 0)
(7.17351 0.0327608 0)
(7.16153 0.0393383 0)
(7.14887 0.0488198 0)
(7.13746 0.0634356 0)
(7.12825 0.0825386 0)
(7.13115 0.111083 0)
(7.334 0.00602357 0)
(7.33938 0.0130426 0)
(7.3447 0.0160233 0)
(7.34792 0.0178453 0)
(7.34963 0.019048 0)
(7.35018 0.0196457 0)
(7.34954 0.0198904 0)
(7.34784 0.0199703 0)
(7.34532 0.0199579 0)
(7.34218 0.0198963 0)
(7.33852 0.0198219 0)
(7.33444 0.0197599 0)
(7.33004 0.0197266 0)
(7.32535 0.0197353 0)
(7.32043 0.0197982 0)
(7.31529 0.0199272 0)
(7.30995 0.0201358 0)
(7.30441 0.0204397 0)
(7.29868 0.0208586 0)
(7.29272 0.0214179 0)
(7.28652 0.0221511 0)
(7.28005 0.0231035 0)
(7.27326 0.0243375 0)
(7.26611 0.0259409 0)
(7.25852 0.0280397 0)
(7.25045 0.0308147 0)
(7.24185 0.0345369 0)
(7.23274 0.0395782 0)
(7.22333 0.0465299 0)
(7.21398 0.0559634 0)
(7.20604 0.0689948 0)
(7.20082 0.0849695 0)
(7.20246 0.105315 0)
(7.33365 0.00477999 0)
(7.33758 0.0112542 0)
(7.34215 0.014522 0)
(7.34564 0.0166277 0)
(7.34826 0.0181728 0)
(7.35025 0.0191687 0)
(7.35148 0.0197982 0)
(7.35195 0.0202315 0)
(7.35176 0.0205409 0)
(7.35098 0.0207683 0)
(7.34969 0.020952 0)
(7.34794 0.0211218 0)
(7.34578 0.0213001 0)
(7.34327 0.0215053 0)
(7.34043 0.0217548 0)
(7.33728 0.0220655 0)
(7.33386 0.0224555 0)
(7.33016 0.0229452 0)
(7.32618 0.0235592 0)
(7.32193 0.0243276 0)
(7.31738 0.0252895 0)
(7.31253 0.0264955 0)
(7.30734 0.0280137 0)
(7.3018 0.0299358 0)
(7.29588 0.0323878 0)
(7.28957 0.0355414 0)
(7.28291 0.0396343 0)
(7.276 0.0449695 0)
(7.26912 0.0519583 0)
(7.26272 0.0609522 0)
(7.2578 0.0724242 0)
(7.25547 0.0858074 0)
(7.25757 0.100972 0)
(7.33343 0.00388673 0)
(7.33634 0.00974911 0)
(7.34013 0.0131376 0)
(7.34337 0.015388 0)
(7.34606 0.0170935 0)
(7.34839 0.0183082 0)
(7.35029 0.0191736 0)
(7.35169 0.0198407 0)
(7.35263 0.0203814 0)
(7.35314 0.0208345 0)
(7.35324 0.0212355 0)
(7.35295 0.0216139 0)
(7.3523 0.0219931 0)
(7.35131 0.0223931 0)
(7.34999 0.0228335 0)
(7.34837 0.0233338 0)
(7.34644 0.0239149 0)
(7.34422 0.0246002 0)
(7.34171 0.0254174 0)
(7.3389 0.0264001 0)
(7.33579 0.0275903 0)
(7.33238 0.0290415 0)
(7.32865 0.0308227 0)
(7.32461 0.0330242 0)
(7.32026 0.0357638 0)
(7.31563 0.0391932 0)
(7.31081 0.0435067 0)
(7.30593 0.0489314 0)
(7.30131 0.055729 0)
(7.29737 0.0640804 0)
(7.29485 0.0741067 0)
(7.29455 0.0853133 0)
(7.29733 0.0971318 0)
(7.3333 0.00323158 0)
(7.33547 0.00850283 0)
(7.33859 0.0118949 0)
(7.3415 0.014219 0)
(7.34402 0.016006 0)
(7.34631 0.0173491 0)
(7.34832 0.0183614 0)
(7.35001 0.0191767 0)
(7.35138 0.0198689 0)
(7.35246 0.020478 0)
(7.35324 0.0210376 0)
(7.35372 0.0215763 0)
(7.35393 0.0221175 0)
(7.35385 0.0226816 0)
(7.35349 0.0232887 0)
(7.35286 0.0239591 0)
(7.35197 0.0247152 0)
(7.3508 0.0255819 0)
(7.34936 0.0265882 0)
(7.34766 0.0277691 0)
(7.34568 0.0291676 0)
(7.34343 0.0308368 0)
(7.34091 0.0328434 0)
(7.33813 0.035271 0)
(7.33513 0.0382236 0)
(7.33196 0.0418274 0)
(7.32873 0.0462307 0)
(7.3256 0.0515901 0)
(7.32285 0.0580543 0)
(7.32087 0.0656849 0)
(7.32016 0.0744293 0)
(7.32129 0.0838677 0)
(7.32464 0.0934137 0)
(7.33321 0.00274267 0)
(7.33487 0.00747194 0)
(7.33744 0.0107864 0)
(7.34 0.0131402 0)
(7.34231 0.0149715 0)
(7.34445 0.0163962 0)
(7.3464 0.0175085 0)
(7.34812 0.0184246 0)
(7.3496 0.0192199 0)
(7.35087 0.0199365 0)
(7.35192 0.0206081 0)
(7.35275 0.0212635 0)
(7.35337 0.0219265 0)
(7.35377 0.0226179 0)
(7.35394 0.023358 0)
(7.3539 0.0241679 0)
(7.35364 0.0250702 0)
(7.35315 0.0260903 0)
(7.35243 0.0272575 0)
(7.35148 0.0286067 0)
(7.35031 0.0301797 0)
(7.34892 0.032027 0)
(7.34732 0.0342099 0)
(7.34554 0.036802 0)
(7.34362 0.0398905 0)
(7.34164 0.043574 0)
(7.3397 0.0479584 0)
(7.33797 0.0531411 0)
(7.33669 0.0591902 0)
(7.33618 0.0660929 0)
(7.33679 0.0737218 0)
(7.33888 0.081728 0)
(7.34263 0.0896214 0)
(7.33315 0.00236907 0)
(7.33444 0.0066151 0)
(7.33656 0.00980022 0)
(7.33882 0.0121488 0)
(7.34092 0.0140005 0)
(7.3429 0.0154784 0)
(7.34474 0.0166638 0)
(7.3464 0.0176562 0)
(7.34787 0.0185286 0)
(7.34917 0.0193253 0)
(7.35031 0.0200805 0)
(7.35127 0.0208234 0)
(7.35207 0.0215785 0)
(7.35269 0.0223676 0)
(7.35313 0.0232114 0)
(7.35341 0.0241313 0)
(7.3535 0.0251501 0)
(7.35341 0.026293 0)
(7.35315 0.0275891 0)
(7.3527 0.0290716 0)
(7.35208 0.03078 0)
(7.3513 0.0327603 0)
(7.35038 0.0350666 0)
(7.34934 0.0377608 0)
(7.34825 0.040912 0)
(7.34717 0.0445927 0)
(7.34623 0.0488723 0)
(7.34557 0.0538022 0)
(7.34539 0.0593971 0)
(7.34593 0.0656017 0)
(7.34743 0.0722663 0)
(7.35013 0.0791053 0)
(7.35409 0.0857391 0)
(7.33312 0.00207625 0)
(7.33413 0.00589799 0)
(7.3359 0.00892341 0)
(7.33788 0.0112377 0)
(7.33979 0.0130906 0)
(7.34161 0.0146008 0)
(7.34333 0.0158405 0)
(7.34492 0.0168936 0)
(7.34635 0.0178284 0)
(7.34764 0.01869 0)
(7.34878 0.0195126 0)
(7.34979 0.0203256 0)
(7.35065 0.0211544 0)
(7.35138 0.0220211 0)
(7.35196 0.0229471 0)
(7.3524 0.0239541 0)
(7.3527 0.0250647 0)
(7.35285 0.0263037 0)
(7.35287 0.0276987 0)
(7.35275 0.0292813 0)
(7.35251 0.0310872 0)
(7.35215 0.033157 0)
(7.35172 0.0355366 0)
(7.35123 0.0382755 0)
(7.35076 0.0414258 0)
(7.35037 0.0450368 0)
(7.35017 0.0491482 0)
(7.35029 0.0537783 0)
(7.35089 0.0589084 0)
(7.35215 0.064463 0)
(7.35423 0.0702954 0)
(7.35727 0.0761754 0)
(7.36129 0.0818174 0)
(7.33309 0.00184094 0)
(7.33391 0.00529244 0)
(7.33539 0.00814303 0)
(7.33713 0.0103994 0)
(7.33886 0.012237 0)
(7.34055 0.0137625 0)
(7.34216 0.0150404 0)
(7.34366 0.0161416 0)
(7.34505 0.0171283 0)
(7.34631 0.0180445 0)
(7.34745 0.0189242 0)
(7.34847 0.0197966 0)
(7.34937 0.020687 0)
(7.35015 0.0216182 0)
(7.35081 0.0226117 0)
(7.35135 0.0236889 0)
(7.35178 0.0248721 0)
(7.35209 0.0261852 0)
(7.3523 0.0276543 0)
(7.35241 0.029308 0)
(7.35244 0.031178 0)
(7.3524 0.0332991 0)
(7.35233 0.0357083 0)
(7.35226 0.0384436 0)
(7.35226 0.0415415 0)
(7.35238 0.0450321 0)
(7.35273 0.0489329 0)
(7.35342 0.0532391 0)
(7.35456 0.0579133 0)
(7.35629 0.062874 0)
(7.35872 0.0679884 0)
(7.36192 0.073073 0)
(7.36588 0.0779154 0)
(7.33307 0.00164732 0)
(7.33374 0.00477554 0)
(7.33499 0.00744647 0)
(7.33652 0.00962688 0)
(7.3381 0.0114346 0)
(7.33966 0.0129605 0)
(7.34117 0.0142625 0)
(7.34261 0.0154001 0)
(7.34395 0.0164288 0)
(7.34518 0.017391 0)
(7.34631 0.0183196 0)
(7.34734 0.0192429 0)
(7.34826 0.0201861 0)
(7.34908 0.0211719 0)
(7.3498 0.0222215 0)
(7.35043 0.0233558 0)
(7.35095 0.0245965 0)
(7.3514 0.025966 0)
(7.35176 0.0274881 0)
(7.35205 0.0291886 0)
(7.35229 0.0310945 0)
(7.35251 0.0332345 0)
(7.35272 0.0356374 0)
(7.35298 0.0383306 0)
(7.35334 0.0413373 0)
(7.35386 0.0446725 0)
(7.35462 0.0483374 0)
(7.35571 0.0523131 0)
(7.35723 0.056553 0)
(7.35926 0.0609776 0)
(7.36187 0.0654723 0)
(7.36512 0.0698917 0)
(7.36896 0.074078 0)
(7.33306 0.00148444 0)
(7.33362 0.00432893 0)
(7.33469 0.0068218 0)
(7.33604 0.00891302 0)
(7.33747 0.0106782 0)
(7.33892 0.0121917 0)
(7.34034 0.0135044 0)
(7.34172 0.0146671 0)
(7.34301 0.0157285 0)
(7.34423 0.016728 0)
(7.34535 0.0176974 0)
(7.34639 0.0186639 0)
(7.34734 0.0196519 0)
(7.3482 0.0206835 0)
(7.34897 0.0217793 0)
(7.34967 0.0229595 0)
(7.35029 0.0242444 0)
(7.35084 0.0256547 0)
(7.35134 0.0272119 0)
(7.35179 0.0289382 0)
(7.35222 0.0308562 0)
(7.35265 0.0329885 0)
(7.35311 0.0353563 0)
(7.35365 0.0379779 0)
(7.3543 0.0408657 0)
(7.35513 0.0440233 0)
(7.3562 0.0474411 0)
(7.35759 0.0510917 0)
(7.35936 0.0549262 0)
(7.36157 0.0588714 0)
(7.36428 0.0628307 0)
(7.3675 0.0666897 0)
(7.37119 0.0703307 0)
(7.33305 0.00134458 0)
(7.33353 0.00393799 0)
(7.33445 0.006258 0)
(7.33565 0.00825085 0)
(7.33696 0.00996278 0)
(7.3383 0.0114523 0)
(7.33965 0.0127639 0)
(7.34097 0.0139406 0)
(7.34223 0.0150249 0)
(7.34342 0.0160532 0)
(7.34454 0.0170552 0)
(7.34559 0.0180568 0)
(7.34657 0.0190814 0)
(7.34747 0.02015 0)
(7.34831 0.0212825 0)
(7.34908 0.0224977 0)
(7.34979 0.0238146 0)
(7.35045 0.0252516 0)
(7.35108 0.0268277 0)
(7.35168 0.0285615 0)
(7.35228 0.0304713 0)
(7.3529 0.0325739 0)
(7.35358 0.034884 0)
(7.35434 0.0374121 0)
(7.35524 0.0401624 0)
(7.35632 0.0431303 0)
(7.35763 0.0462993 0)
(7.35924 0.0496384 0)
(7.36118 0.0530997 0)
(7.36351 0.0566185 0)
(7.36625 0.0601147 0)
(7.36941 0.0634985 0)
(7.37294 0.0666817 0)
(7.33304 0.00122218 0)
(7.33345 0.00359108 0)
(7.33426 0.00574507 0)
(7.33534 0.00763349 0)
(7.33654 0.00928296 0)
(7.33779 0.0107384 0)
(7.33907 0.0120379 0)
(7.34034 0.013218 0)
(7.34156 0.0143158 0)
(7.34275 0.0153638 0)
(7.34387 0.0163899 0)
(7.34494 0.0174184 0)
(7.34595 0.018471 0)
(7.3469 0.0195678 0)
(7.34779 0.0207272 0)
(7.34863 0.0219668 0)
(7.34944 0.0233036 0)
(7.35021 0.0247541 0)
(7.35095 0.0263343 0)
(7.3517 0.0280593 0)
(7.35246 0.0299433 0)
(7.35325 0.0319982 0)
(7.35412 0.0342329 0)
(7.35509 0.0366519 0)
(7.35619 0.0392531 0)
(7.35747 0.0420265 0)
(7.35898 0.0449519 0)
(7.36075 0.0479973 0)
(7.36282 0.0511184 0)
(7.36521 0.0542591 0)
(7.36795 0.0573539 0)
(7.37102 0.0603323 0)
(7.3744 0.0631276 0)
(7.33304 0.00111315 0)
(7.3334 0.00327886 0)
(7.33411 0.00527404 0)
(7.33508 0.0070542 0)
(7.33619 0.00863352 0)
(7.33737 0.0100458 0)
(7.33859 0.0113231 0)
(7.33981 0.0124966 0)
(7.34102 0.0135982 0)
(7.34219 0.0146571 0)
(7.34332 0.0156986 0)
(7.34441 0.0167451 0)
(7.34545 0.017817 0)
(7.34645 0.0189328 0)
(7.3474 0.0201094 0)
(7.34832 0.0213628 0)
(7.34921 0.022708 0)
(7.35009 0.0241593 0)
(7.35095 0.0257298 0)
(7.35183 0.0274316 0)
(7.35274 0.0292749 0)
(7.35369 0.0312674 0)
(7.35473 0.0334134 0)
(7.35587 0.0357124 0)
(7.35715 0.0381584 0)
(7.3586 0.0407378 0)
(7.36026 0.0434288 0)
(7.36215 0.0462006 0)
(7.3643 0.0490132 0)
(7.36673 0.0518191 0)
(7.36944 0.0545648 0)
(7.37243 0.057195 0)
(7.37566 0.0596594 0)
(7.33304 0.00101436 0)
(7.33335 0.00299379 0)
(7.334 0.0048369 0)
(7.33488 0.00650644 0)
(7.33591 0.00800912 0)
(7.33703 0.00937013 0)
(7.33819 0.010616 0)
(7.33938 0.0117733 0)
(7.34056 0.0128694 0)
(7.34173 0.01393 0)
(7.34287 0.014978 0)
(7.34398 0.0160338 0)
(7.34506 0.0171161 0)
(7.34611 0.0182415 0)
(7.34713 0.0194254 0)
(7.34812 0.0206822 0)
(7.3491 0.0220247 0)
(7.35007 0.0234649 0)
(7.35106 0.0250134 0)
(7.35206 0.0266793 0)
(7.3531 0.0284693 0)
(7.3542 0.0303876 0)
(7.35539 0.0324349 0)
(7.35668 0.0346073 0)
(7.35811 0.0368958 0)
(7.3597 0.0392852 0)
(7.36148 0.0417536 0)
(7.36346 0.0442723 0)
(7.36567 0.0468063 0)
(7.36811 0.0493154 0)
(7.37078 0.0517564 0)
(7.37368 0.054086 0)
(7.37678 0.0562657 0)
(7.33303 0.000923367 0)
(7.33332 0.00272969 0)
(7.33391 0.00442656 0)
(7.33472 0.00598391 0)
(7.33569 0.00740437 0)
(7.33675 0.00870666 0)
(7.33787 0.00991252 0)
(7.33903 0.0110445 0)
(7.3402 0.012126 0)
(7.34137 0.0131794 0)
(7.34252 0.014225 0)
(7.34366 0.0152813 0)
(7.34477 0.0163648 0)
(7.34587 0.0174905 0)
(7.34695 0.0186722 0)
(7.34802 0.0199222 0)
(7.34909 0.0212514 0)
(7.35016 0.0226696 0)
(7.35124 0.024185 0)
(7.35236 0.0258038 0)
(7.35353 0.0275301 0)
(7.35476 0.0293651 0)
(7.35608 0.0313068 0)
(7.35751 0.033349 0)
(7.35906 0.0354809 0)
(7.36076 0.0376867 0)
(7.36263 0.0399455 0)
(7.36467 0.0422314 0)
(7.36692 0.0445138 0)
(7.36935 0.0467595 0)
(7.37198 0.0489336 0)
(7.3748 0.0510019 0)
(7.37777 0.052935 0)
(7.33303 0.000838213 0)
(7.33329 0.00248139 0)
(7.33383 0.00403662 0)
(7.3346 0.00548055 0)
(7.33551 0.00681386 0)
(7.33653 0.00805059 0)
(7.33762 0.00920848 0)
(7.33876 0.0103065 0)
(7.33992 0.0113646 0)
(7.34109 0.0124019 0)
(7.34226 0.0134364 0)
(7.34342 0.0144842 0)
(7.34458 0.01556 0)
(7.34573 0.016677 0)
(7.34687 0.017847 0)
(7.34801 0.0190805 0)
(7.34916 0.0203866 0)
(7.35032 0.0217728 0)
(7.35151 0.0232451 0)
(7.35273 0.0248075 0)
(7.35401 0.0264618 0)
(7.35536 0.0282068 0)
(7.35679 0.0300385 0)
(7.35833 0.0319493 0)
(7.35998 0.0339276 0)
(7.36177 0.0359578 0)
(7.36371 0.0380205 0)
(7.36581 0.0400927 0)
(7.36807 0.0421483 0)
(7.37049 0.0441597 0)
(7.37307 0.0460988 0)
(7.37581 0.0479386 0)
(7.37867 0.0496568 0)
(7.33303 0.000757258 0)
(7.33327 0.00224447 0)
(7.33378 0.00366135 0)
(7.3345 0.00499053 0)
(7.33538 0.00623216 0)
(7.33636 0.00739694 0)
(7.33743 0.00849932 0)
(7.33855 0.0095552 0)
(7.3397 0.0105813 0)
(7.34088 0.011594 0)
(7.34207 0.0126087 0)
(7.34327 0.0136394 0)
(7.34446 0.0146988 0)
(7.34566 0.0157981 0)
(7.34687 0.0169475 0)
(7.34808 0.0181555 0)
(7.3493 0.0194293 0)
(7.35055 0.0207746 0)
(7.35183 0.0221953 0)
(7.35316 0.0236936 0)
(7.35454 0.0252692 0)
(7.35599 0.0269194 0)
(7.35752 0.0286389 0)
(7.35915 0.0304191 0)
(7.36089 0.0322483 0)
(7.36275 0.0341118 0)
(7.36474 0.0359918 0)
(7.36686 0.0378683 0)
(7.36913 0.0397191 0)
(7.37153 0.0415215 0)
(7.37406 0.0432529 0)
(7.37672 0.044892 0)
(7.37948 0.0464215 0)
(7.33303 0.000679098 0)
(7.33326 0.00201506 0)
(7.33374 0.00329546 0)
(7.33443 0.00450822 0)
(7.33528 0.00565376 0)
(7.33624 0.00674053 0)
(7.33728 0.00778026 0)
(7.3384 0.00878614 0)
(7.33956 0.00977207 0)
(7.34075 0.0107518 0)
(7.34196 0.0117384 0)
(7.34319 0.0127436 0)
(7.34443 0.0137781 0)
(7.34568 0.0148514 0)
(7.34694 0.0159717 0)
(7.34822 0.0171457 0)
(7.34952 0.018379 0)
(7.35084 0.0196755 0)
(7.35221 0.0210374 0)
(7.35362 0.0224653 0)
(7.35509 0.0239573 0)
(7.35663 0.0255098 0)
(7.35825 0.0271163 0)
(7.35995 0.0287681 0)
(7.36176 0.0304539 0)
(7.36367 0.0321599 0)
(7.3657 0.0338703 0)
(7.36785 0.0355676 0)
(7.37011 0.0372334 0)
(7.37249 0.0388489 0)
(7.37497 0.0403959 0)
(7.37755 0.0418575 0)
(7.38022 0.0432205 0)
(7.33303 0.000602484 0)
(7.33325 0.00178967 0)
(7.33371 0.00293401 0)
(7.33438 0.0040281 0)
(7.33521 0.00507311 0)
(7.33615 0.00607596 0)
(7.33719 0.0070462 0)
(7.3383 0.00799462 0)
(7.33947 0.00893262 0)
(7.34068 0.00987149 0)
(7.34192 0.0108219 0)
(7.34318 0.0117936 0)
(7.34446 0.0127952 0)
(7.34576 0.0138345 0)
(7.34708 0.0149177 0)
(7.34842 0.0160502 0)
(7.34979 0.0172356 0)
(7.35119 0.0184765 0)
(7.35264 0.0197737 0)
(7.35413 0.0211262 0)
(7.35568 0.0225313 0)
(7.35729 0.0239844 0)
(7.35898 0.0254787 0)
(7.36075 0.0270054 0)
(7.36261 0.0285539 0)
(7.36457 0.0301117 0)
(7.36662 0.0316649 0)
(7.36878 0.0331983 0)
(7.37103 0.0346966 0)
(7.37337 0.0361444 0)
(7.37581 0.037527 0)
(7.37832 0.0388311 0)
(7.3809 0.0400464 0)
(7.33302 0.000526262 0)
(7.33324 0.00156504 0)
(7.3337 0.00257225 0)
(7.33435 0.00354467 0)
(7.33517 0.0044845 0)
(7.3361 0.00539761 0)
(7.33714 0.00629175 0)
(7.33826 0.00717561 0)
(7.33944 0.00805828 0)
(7.34067 0.00894872 0)
(7.34194 0.00985539 0)
(7.34324 0.010786 0)
(7.34456 0.0117473 0)
(7.34591 0.0127451 0)
(7.34728 0.0137842 0)
(7.34869 0.0148682 0)
(7.35012 0.0159994 0)
(7.35159 0.017179 0)
(7.3531 0.0184064 0)
(7.35467 0.0196799 0)
(7.35628 0.0209959 0)
(7.35796 0.0223491 0)
(7.35971 0.0237329 0)
(7.36154 0.0251387 0)
(7.36344 0.0265565 0)
(7.36543 0.0279753 0)
(7.3675 0.0293828 0)
(7.36965 0.0307662 0)
(7.37189 0.0321126 0)
(7.37421 0.0334094 0)
(7.37659 0.0346449 0)
(7.37904 0.0358084 0)
(7.38154 0.0368921 0)
(7.33302 0.000449319 0)
(7.33324 0.00133798 0)
(7.33369 0.00220546 0)
(7.33434 0.00305234 0)
(7.33515 0.00388197 0)
(7.33609 0.00469951 0)
(7.33714 0.00551117 0)
(7.33827 0.00632369 0)
(7.33947 0.00714405 0)
(7.34073 0.007979 0)
(7.34202 0.00883487 0)
(7.34336 0.00971734 0)
(7.34473 0.0106314 0)
(7.34612 0.0115811 0)
(7.34755 0.0125696 0)
(7.34901 0.0135991 0)
(7.35051 0.0146706 0)
(7.35204 0.0157841 0)
(7.35362 0.0169381 0)
(7.35524 0.01813 0)
(7.35692 0.0193556 0)
(7.35865 0.0206097 0)
(7.36045 0.0218853 0)
(7.36232 0.0231747 0)
(7.36426 0.0244686 0)
(7.36626 0.0257571 0)
(7.36834 0.0270297 0)
(7.3705 0.0282756 0)
(7.37271 0.029484 0)
(7.375 0.0306446 0)
(7.37733 0.0317479 0)
(7.37972 0.0327855 0)
(7.38215 0.0337513 0)
(7.33302 0.000370528 0)
(7.33324 0.00110528 0)
(7.33369 0.00182878 0)
(7.33435 0.00254523 0)
(7.33517 0.00325919 0)
(7.33612 0.00397526 0)
(7.33718 0.00469822 0)
(7.33833 0.00543301 0)
(7.33955 0.00618454 0)
(7.34084 0.00695748 0)
(7.34217 0.00775606 0)
(7.34354 0.00858405 0)
(7.34496 0.00944461 0)
(7.3464 0.0103402 0)
(7.34788 0.0112725 0)
(7.3494 0.0122423 0)
(7.35095 0.0132496 0)
(7.35254 0.0142932 0)
(7.35417 0.015371 0)
(7.35585 0.0164796 0)
(7.35758 0.0176147 0)
(7.35936 0.0187708 0)
(7.3612 0.0199415 0)
(7.3631 0.0211191 0)
(7.36506 0.0222957 0)
(7.36709 0.0234624 0)
(7.36917 0.0246102 0)
(7.37131 0.0257298 0)
(7.37351 0.0268125 0)
(7.37576 0.0278497 0)
(7.37805 0.0288338 0)
(7.38038 0.0297581 0)
(7.38274 0.030618 0)
(7.33302 0.00028869 0)
(7.33325 0.000863479 0)
(7.3337 0.00143699 0)
(7.33437 0.002017 0)
(7.3352 0.00260928 0)
(7.33617 0.00321787 0)
(7.33726 0.00384611 0)
(7.33844 0.00449716 0)
(7.33969 0.00517391 0)
(7.34101 0.00587892 0)
(7.34238 0.00661442 0)
(7.3438 0.00738226 0)
(7.34525 0.00818388 0)
(7.34675 0.00902018 0)
(7.34828 0.00989146 0)
(7.34984 0.0107974 0)
(7.35144 0.0117367 0)
(7.35309 0.0127076 0)
(7.35477 0.0137072 0)
(7.3565 0.0147317 0)
(7.35827 0.0157768 0)
(7.3601 0.0168369 0)
(7.36197 0.0179058 0)
(7.3639 0.0189768 0)
(7.36588 0.0200426 0)
(7.36791 0.0210954 0)
(7.36999 0.0221275 0)
(7.37212 0.0231311 0)
(7.37429 0.024099 0)
(7.37651 0.0250241 0)
(7.37876 0.0259004 0)
(7.38104 0.0267225 0)
(7.38334 0.0274867 0)
(7.33303 0.000202455 0)
(7.33325 0.000608705 0)
(7.33373 0.00102421 0)
(7.33441 0.00146051 0)
(7.33527 0.00192451 0)
(7.33627 0.0024195 0)
(7.33739 0.00294727 0)
(7.3386 0.00350905 0)
(7.33989 0.00410568 0)
(7.34125 0.0047376 0)
(7.34266 0.00540498 0)
(7.34412 0.00610783 0)
(7.34562 0.00684588 0)
(7.34716 0.00761858 0)
(7.34874 0.00842492 0)
(7.35035 0.00926343 0)
(7.352 0.0101321 0)
(7.35369 0.0110282 0)
(7.35542 0.0119485 0)
(7.35719 0.012889 0)
(7.35901 0.013845 0)
(7.36086 0.0148114 0)
(7.36276 0.0157823 0)
(7.36471 0.0167515 0)
(7.3667 0.0177126 0)
(7.36874 0.0186589 0)
(7.37082 0.0195836 0)
(7.37293 0.0204804 0)
(7.37509 0.0213431 0)
(7.37727 0.0221661 0)
(7.37948 0.0229444 0)
(7.38171 0.0236737 0)
(7.38395 0.0243513 0)
(7.33303 0.000110212 0)
(7.33327 0.000336342 0)
(7.33376 0.000583504 0)
(7.33448 0.000867411 0)
(7.33537 0.00119596 0)
(7.33641 0.00157126 0)
(7.33756 0.00199314 0)
(7.33882 0.00246075 0)
(7.34015 0.00297271 0)
(7.34156 0.00352722 0)
(7.34301 0.00412236 0)
(7.34452 0.00475625 0)
(7.34607 0.00542699 0)
(7.34765 0.0061326 0)
(7.34928 0.0068709 0)
(7.35094 0.00763942 0)
(7.35263 0.00843534 0)
(7.35437 0.00925544 0)
(7.35614 0.010096 0)
(7.35794 0.0109529 0)
(7.35979 0.0118216 0)
(7.36168 0.012697 0)
(7.3636 0.0135737 0)
(7.36556 0.0144462 0)
(7.36756 0.0153087 0)
(7.3696 0.0161554 0)
(7.37167 0.0169806 0)
(7.37377 0.017779 0)
(7.3759 0.0185453 0)
(7.37805 0.0192751 0)
(7.38022 0.0199642 0)
(7.38241 0.0206093 0)
(7.3846 0.0212083 0)
(7.33303 9.92935e-06 0)
(7.33328 4.06018e-05 0)
(7.33381 0.000106296 0)
(7.33457 0.000227622 0)
(7.33551 0.00041308 0)
(7.3366 0.000662723 0)
(7.3378 0.000973847 0)
(7.33911 0.00134318 0)
(7.34049 0.00176688 0)
(7.34195 0.00224075 0)
(7.34345 0.00276065 0)
(7.34501 0.00332279 0)
(7.3466 0.00392364 0)
(7.34824 0.00455986 0)
(7.34991 0.00522809 0)
(7.35161 0.00592499 0)
(7.35335 0.00664705 0)
(7.35512 0.00739056 0)
(7.35693 0.00815156 0)
(7.35877 0.00892582 0)
(7.36064 0.00970883 0)
(7.36255 0.0104959 0)
(7.3645 0.011282 0)
(7.36647 0.0120621 0)
(7.36848 0.0128313 0)
(7.37051 0.0135844 0)
(7.37257 0.0143167 0)
(7.37466 0.0150235 0)
(7.37677 0.0157008 0)
(7.37889 0.0163447 0)
(7.38102 0.016952 0)
(7.38316 0.01752 0)
(7.38531 0.0180471 0)
(7.33303 -0.000101108 0)
(7.33331 -0.000286181 0)
(7.33388 -0.000418525 0)
(7.33469 -0.000471545 0)
(7.3357 -0.000437063 0)
(7.33685 -0.000318516 0)
(7.33812 -0.000122057 0)
(7.33948 0.000146069 0)
(7.34093 0.000479102 0)
(7.34244 0.000870052 0)
(7.344 0.00131246 0)
(7.3456 0.00180068 0)
(7.34725 0.00232964 0)
(7.34893 0.00289472 0)
(7.35064 0.00349157 0)
(7.35239 0.00411604 0)
(7.35417 0.00476403 0)
(7.35598 0.00543147 0)
(7.35782 0.00611417 0)
(7.35969 0.00680787 0)
(7.36159 0.00750818 0)
(7.36351 0.00821064 0)
(7.36547 0.00891073 0)
(7.36746 0.00960393 0)
(7.36947 0.0102858 0)
(7.3715 0.010952 0)
(7.37355 0.0115984 0)
(7.37562 0.0122212 0)
(7.37771 0.0128169 0)
(7.3798 0.0133825 0)
(7.3819 0.0139153 0)
(7.38401 0.0144131 0)
(7.38611 0.0148747 0)
(7.33303 -0.00022674 0)
(7.33334 -0.000654734 0)
(7.33397 -0.00100594 0)
(7.33487 -0.0012464 0)
(7.33595 -0.00137058 0)
(7.33718 -0.00138788 0)
(7.33853 -0.00130874 0)
(7.33997 -0.00114268 0)
(7.34148 -0.000899974 0)
(7.34305 -0.000591094 0)
(7.34467 -0.000225305 0)
(7.34633 0.000189582 0)
(7.34802 0.000646845 0)
(7.34975 0.00114056 0)
(7.35151 0.00166543 0)
(7.3533 0.00221665 0)
(7.35511 0.00278973 0)
(7.35696 0.00338036 0)
(7.35883 0.00398432 0)
(7.36073 0.00459744 0)
(7.36265 0.00521558 0)
(7.36459 0.00583462 0)
(7.36657 0.00645048 0)
(7.36856 0.00705915 0)
(7.37057 0.00765676 0)
(7.3726 0.0082396 0)
(7.37464 0.00880421 0)
(7.3767 0.00934738 0)
(7.37876 0.00986625 0)
(7.38083 0.0103583 0)
(7.3829 0.0108215 0)
(7.38497 0.011254 0)
(7.38704 0.011655 0)
(7.33304 -0.000372697 0)
(7.33339 -0.00108095 0)
(7.3341 -0.00167735 0)
(7.33511 -0.00211853 0)
(7.3363 -0.00240682 0)
(7.33763 -0.00256278 0)
(7.33907 -0.0026032 0)
(7.34059 -0.00254134 0)
(7.34218 -0.00239108 0)
(7.34382 -0.00216603 0)
(7.3455 -0.00187781 0)
(7.34722 -0.00153611 0)
(7.34897 -0.00114924 0)
(7.35074 -0.000724461 0)
(7.35255 -0.000268104 0)
(7.35437 0.000214237 0)
(7.35623 0.000717516 0)
(7.3581 0.00123707 0)
(7.36 0.00176854 0)
(7.36193 0.00230775 0)
(7.36387 0.00285073 0)
(7.36583 0.00339362 0)
(7.36781 0.00393273 0)
(7.36981 0.00446451 0)
(7.37183 0.0049856 0)
(7.37385 0.00549284 0)
(7.37589 0.00598331 0)
(7.37793 0.00645438 0)
(7.37998 0.00690368 0)
(7.38203 0.00732917 0)
(7.38408 0.00772914 0)
(7.38612 0.00810213 0)
(7.38815 0.00844744 0)
(7.33305 -0.000548092 0)
(7.33346 -0.00158886 0)
(7.3343 -0.00246395 0)
(7.33545 -0.00312043 0)
(7.33678 -0.00357534 0)
(7.33823 -0.00386364 0)
(7.33978 -0.00401061 0)
(7.3414 -0.00403772 0)
(7.34308 -0.00396682 0)
(7.3448 -0.00381687 0)
(7.34655 -0.00360228 0)
(7.34834 -0.00333422 0)
(7.35014 -0.00302186 0)
(7.35197 -0.0026729 0)
(7.35382 -0.00229376 0)
(7.3557 -0.00188996 0)
(7.35759 -0.00146638 0)
(7.3595 -0.00102744 0)
(7.36143 -0.000577249 0)
(7.36338 -0.000119662 0)
(7.36534 0.000341671 0)
(7.36733 0.000803272 0)
(7.36932 0.00126183 0)
(7.37133 0.00171423 0)
(7.37335 0.00215752 0)
(7.37537 0.00258897 0)
(7.3774 0.00300611 0)
(7.37944 0.00340669 0)
(7.38147 0.00378875 0)
(7.3835 0.00415062 0)
(7.38552 0.00449096 0)
(7.38754 0.00480869 0)
(7.38954 0.00510346 0)
(7.33306 -0.000769844 0)
(7.33358 -0.00221851 0)
(7.3346 -0.00340236 0)
(7.33596 -0.00428325 0)
(7.33747 -0.00492374 0)
(7.33908 -0.0053721 0)
(7.34077 -0.0056485 0)
(7.34252 -0.00577578 0)
(7.3443 -0.00578335 0)
(7.3461 -0.00569703 0)
(7.34793 -0.00553611 0)
(7.34978 -0.00531575 0)
(7.35165 -0.00504851 0)
(7.35353 -0.00474456 0)
(7.35544 -0.00441202 0)
(7.35736 -0.0040574 0)
(7.35929 -0.00368612 0)
(7.36125 -0.00330277 0)
(7.36321 -0.00291132 0)
(7.36519 -0.0025153 0)
(7.36719 -0.00211787 0)
(7.36919 -0.00172196 0)
(7.3712 -0.00133024 0)
(7.37322 -0.000945202 0)
(7.37524 -0.00056915 0)
(7.37726 -0.000204186 0)
(7.37928 0.000147784 0)
(7.3813 0.000485055 0)
(7.38332 0.000806122 0)
(7.38532 0.00110968 0)
(7.38732 0.00139462 0)
(7.3893 0.00165993 0)
(7.39127 0.00190506 0)
(7.33308 -0.00106654 0)
(7.33378 -0.003068 0)
(7.3351 -0.0045846 0)
(7.33672 -0.00560798 0)
(7.33845 -0.00632182 0)
(7.34025 -0.00683622 0)
(7.34214 -0.00718617 0)
(7.34406 -0.00739938 0)
(7.34601 -0.00750637 0)
(7.34796 -0.00752959 0)
(7.34992 -0.00748353 0)
(7.35188 -0.00737942 0)
(7.35385 -0.00722701 0)
(7.35583 -0.00703458 0)
(7.3578 -0.00680907 0)
(7.35979 -0.00655642 0)
(7.36178 -0.0062819 0)
(7.36377 -0.0059902 0)
(7.36576 -0.0056855 0)
(7.36775 -0.00537161 0)
(7.36974 -0.00505197 0)
(7.37174 -0.0047297 0)
(7.37372 -0.00440767 0)
(7.37571 -0.00408847 0)
(7.37768 -0.00377446 0)
(7.37965 -0.00346773 0)
(7.38161 -0.00317017 0)
(7.38355 -0.0028834 0)
(7.38548 -0.00260882 0)
(7.38738 -0.00234758 0)
(7.38927 -0.00210056 0)
(7.39114 -0.00186837 0)
(7.39298 -0.00165119 0)
(7.3331 -0.00144796 0)
(7.33415 -0.00420798 0)
(7.33607 -0.00631345 0)
(7.33822 -0.00776553 0)
(7.34032 -0.00874962 0)
(7.34242 -0.00937498 0)
(7.34457 -0.0097195 0)
(7.34674 -0.00986569 0)
(7.3489 -0.00988037 0)
(7.35104 -0.00980585 0)
(7.35317 -0.0096691 0)
(7.35527 -0.00948919 0)
(7.35735 -0.00927954 0)
(7.35939 -0.00904902 0)
(7.3614 -0.00880346 0)
(7.36337 -0.00854691 0)
(7.36531 -0.00828236 0)
(7.36722 -0.00801214 0)
(7.36909 -0.00773818 0)
(7.37092 -0.00746217 0)
(7.37273 -0.0071857 0)
(7.3745 -0.00691029 0)
(7.37624 -0.0066374 0)
(7.37795 -0.00636843 0)
(7.37963 -0.00610474 0)
(7.38128 -0.0058476 0)
(7.3829 -0.00559821 0)
(7.38449 -0.00535765 0)
(7.38605 -0.00512693 0)
(7.38758 -0.00490696 0)
(7.38908 -0.00469861 0)
(7.39056 -0.00450276 0)
(7.392 -0.00432012 0)
(7.33311 -0.00228416 0)
(7.33485 -0.00521427 0)
(7.33794 -0.00688087 0)
(7.34136 -0.00825349 0)
(7.34468 -0.00954434 0)
(7.34787 -0.0106136 0)
(7.35088 -0.0114192 0)
(7.35363 -0.0120087 0)
(7.3561 -0.0124225 0)
(7.35832 -0.0126821 0)
(7.36029 -0.0128078 0)
(7.36204 -0.0128227 0)
(7.3636 -0.0127484 0)
(7.36497 -0.0126029 0)
(7.36619 -0.0124014 0)
(7.36727 -0.0121567 0)
(7.36823 -0.0118794 0)
(7.36909 -0.0115783 0)
(7.36986 -0.0112608 0)
(7.37056 -0.0109326 0)
(7.37119 -0.0105986 0)
(7.37178 -0.0102628 0)
(7.37232 -0.00992851 0)
(7.37282 -0.00959827 0)
(7.37329 -0.0092743 0)
(7.37374 -0.00895834 0)
(7.37416 -0.00865181 0)
(7.37457 -0.00835581 0)
(7.37496 -0.00807119 0)
(7.37533 -0.00779854 0)
(7.37569 -0.00753825 0)
(7.37604 -0.00729053 0)
(7.37637 -0.00705526 0)
(7.3363 -0.00651747 0)
(7.34557 -0.0134874 0)
(7.35343 -0.0156877 0)
(7.35888 -0.016192 0)
(7.36267 -0.0161563 0)
(7.36523 -0.0157425 0)
(7.36659 -0.01508 0)
(7.36685 -0.0143351 0)
(7.36623 -0.013601 0)
(7.36494 -0.0129056 0)
(7.36313 -0.0122557 0)
(7.36094 -0.0116538 0)
(7.35847 -0.0110991 0)
(7.35582 -0.0105875 0)
(7.35304 -0.0101139 0)
(7.35021 -0.0096737 0)
(7.34735 -0.00926261 0)
(7.34452 -0.00887713 0)
(7.34172 -0.00851433 0)
(7.33899 -0.00817185 0)
(7.33633 -0.00784781 0)
(7.33376 -0.00754076 0)
(7.33129 -0.00724958 0)
(7.3289 -0.00697339 0)
(7.32662 -0.00671151 0)
(7.32444 -0.00646341 0)
(7.32235 -0.00622866 0)
(7.32037 -0.00600686 0)
(7.31848 -0.00579764 0)
(7.31668 -0.0056006 0)
(7.31497 -0.00541518 0)
(7.31334 -0.00524076 0)
(7.31181 -0.00507585 0)
(7.32508 -0.00547002 0)
(7.31334 -0.0121257 0)
(7.29927 -0.0150437 0)
(7.28288 -0.0161334 0)
(7.26681 -0.016313 0)
(7.25211 -0.0158772 0)
(7.23866 -0.0150375 0)
(7.22632 -0.0139939 0)
(7.21505 -0.0128819 0)
(7.20483 -0.0117758 0)
(7.19555 -0.0107168 0)
(7.18712 -0.00972782 0)
(7.17944 -0.00882026 0)
(7.17242 -0.00799681 0)
(7.16601 -0.00725513 0)