/*--------------------------------*- C++ -*----------------------------------*\
| =========                 |                                                 |
| \\      /  F ield         | OpenFOAM: The Open Source CFD Toolbox           |
|  \\    /   O peration     | Version:  4.1                                   |
|   \\  /    A nd           | Web:      www.OpenFOAM.org                      |
|    \\/     M anipulation  |                                                 |
\*---------------------------------------------------------------------------*/
FoamFile
{
    version     2.0;
    format      ascii;
    class       volScalarField;
    location    "1800";
    object      p;
}
// * * * * * * * * * * * * * * * * * * * * * * * * * * * * * * * * * * * * * //

dimensions      [0 2 -2 0 0 0 0];

internalField   nonuniform List<scalar> 
6820
(
-7.89272
-8.69246
-9.15296
-9.2978
-9.37635
-9.45066
-9.5105
-9.5561
-9.59481
-9.63029
-9.6631
-9.69343
-9.72177
-9.74852
-9.77396
-9.79825
-9.82157
-9.8441
-9.86599
-9.88739
-9.90845
-9.92932
-9.95014
-9.97108
-9.99229
-10.014
-10.0363
-10.0596
-10.0839
-10.1102
-10.1369
-10.1707
-10.1859
-9.56642
-9.73221
-9.7178
-9.63823
-9.59598
-9.59274
-9.60279
-9.61636
-9.63366
-9.65446
-9.67716
-9.70054
-9.72411
-9.74761
-9.77084
-9.79368
-9.81608
-9.83804
-9.85961
-9.88086
-9.90187
-9.92276
-9.94363
-9.96462
-9.98586
-10.0075
-10.0298
-10.0529
-10.0771
-10.103
-10.1307
-10.164
-10.2054
-9.54485
-9.35679
-9.33818
-9.37266
-9.41446
-9.46273
-9.50925
-9.54975
-9.58626
-9.62063
-9.65304
-9.68344
-9.71206
-9.73917
-9.76497
-9.78962
-9.81327
-9.83609
-9.85822
-9.87981
-9.90101
-9.92196
-9.94279
-9.96366
-9.98472
-10.0061
-10.0281
-10.0507
-10.0744
-10.0995
-10.1263
-10.1571
-10.1888
-9.46272
-9.36034
-9.40977
-9.47042
-9.50384
-9.53436
-9.5659
-9.59472
-9.62152
-9.64778
-9.67359
-9.69869
-9.72305
-9.74674
-9.76981
-9.79229
-9.81423
-9.83569
-9.85676
-9.87751
-9.89804
-9.91845
-9.93884
-9.95932
-9.98001
-10.001
-10.0225
-10.0447
-10.0677
-10.0917
-10.1169
-10.1439
-10.1705
-9.45519
-9.4153
-9.44747
-9.48522
-9.50742
-9.5323
-9.56147
-9.5898
-9.61673
-9.64325
-9.66941
-9.69489
-9.71962
-9.74365
-9.767
-9.78971
-9.81182
-9.83341
-9.85456
-9.87535
-9.89587
-9.91622
-9.9365
-9.95681
-9.97725
-9.99795
-10.019
-10.0405
-10.0627
-10.0855
-10.1089
-10.1331
-10.1565
-9.46438
-9.44428
-9.4602
-9.48997
-9.5139
-9.53929
-9.56761
-9.59529
-9.62164
-9.64746
-9.67287
-9.69762
-9.72167
-9.74505
-9.7678
-9.78995
-9.81156
-9.83269
-9.85342
-9.87381
-9.89396
-9.91394
-9.93385
-9.95376
-9.97377
-9.99396
-10.0144
-10.0352
-10.0563
-10.0779
-10.0996
-10.1214
-10.1423
-9.47381
-9.46264
-9.47376
-9.50005
-9.52403
-9.54796
-9.57409
-9.60026
-9.62556
-9.65042
-9.67494
-9.69894
-9.72233
-9.74514
-9.76739
-9.78912
-9.81034
-9.83113
-9.85154
-9.87164
-9.89149
-9.91117
-9.93075
-9.95031
-9.9699
-9.98959
-10.0094
-10.0294
-10.0496
-10.0699
-10.0901
-10.11
-10.1288
-9.48391
-9.47883
-9.48848
-9.51094
-9.53335
-9.55571
-9.58002
-9.60485
-9.6292
-9.65318
-9.67689
-9.70018
-9.72296
-9.74522
-9.76698
-9.78826
-9.80908
-9.8295
-9.84955
-9.86931
-9.88882
-9.90814
-9.92734
-9.94647
-9.96558
-9.9847
-10.0039
-10.0231
-10.0423
-10.0614
-10.0802
-10.0984
-10.1156
-9.49479
-9.49345
-9.50224
-9.52135
-9.5421
-9.56322
-9.586
-9.60953
-9.63287
-9.65596
-9.67885
-9.7014
-9.72354
-9.74522
-9.76646
-9.78726
-9.80765
-9.82766
-9.84733
-9.86671
-9.88584
-9.90478
-9.92356
-9.94223
-9.96081
-9.97934
-9.99782
-10.0162
-10.0345
-10.0525
-10.07
-10.0869
-10.1028
-9.50596
-9.50666
-9.51493
-9.53152
-9.55068
-9.57062
-9.59199
-9.61423
-9.63654
-9.65873
-9.68079
-9.7026
-9.72408
-9.74516
-9.76586
-9.78617
-9.80611
-9.82569
-9.84494
-9.86391
-9.88264
-9.90114
-9.91947
-9.93764
-9.95568
-9.97359
-9.99136
-10.0089
-10.0263
-10.0432
-10.0597
-10.0754
-10.0902
-9.51705
-9.51882
-9.52673
-9.54143
-9.55905
-9.57781
-9.59788
-9.6189
-9.64019
-9.66149
-9.68272
-9.70379
-9.72459
-9.74507
-9.76522
-9.78501
-9.80447
-9.82359
-9.84241
-9.86094
-9.87922
-9.89727
-9.91511
-9.93276
-9.95023
-9.9675
-9.98456
-10.0014
-10.0178
-10.0338
-10.0493
-10.064
-10.0778
-9.52786
-9.53015
-9.53774
-9.55095
-9.56715
-9.58475
-9.60364
-9.62351
-9.6438
-9.66421
-9.68463
-9.70495
-9.72508
-9.74494
-9.76452
-9.78378
-9.80274
-9.82138
-9.83974
-9.85781
-9.87562
-9.89319
-9.91053
-9.92763
-9.94451
-9.96114
-9.9775
-9.99353
-10.0092
-10.0243
-10.0389
-10.0527
-10.0657
-9.53826
-9.54076
-9.54801
-9.56004
-9.57495
-9.59145
-9.60924
-9.62802
-9.64733
-9.66687
-9.68649
-9.70607
-9.72552
-9.74476
-9.76376
-9.78248
-9.80092
-9.81907
-9.83694
-9.85453
-9.87186
-9.88892
-9.90573
-9.92228
-9.93856
-9.95455
-9.97022
-9.98551
-10.0004
-10.0147
-10.0285
-10.0415
-10.0537
-9.54818
-9.5507
-9.5576
-9.56864
-9.58241
-9.59787
-9.61463
-9.63239
-9.65076
-9.66945
-9.68828
-9.70713
-9.7259
-9.74452
-9.76293
-9.7811
-9.79901
-9.81665
-9.83402
-9.85111
-9.86793
-9.88448
-9.90075
-9.91673
-9.93241
-9.94777
-9.96277
-9.97736
-9.99148
-10.0051
-10.0181
-10.0304
-10.042
-9.55755
-9.56002
-9.56654
-9.57675
-9.58951
-9.60398
-9.61977
-9.63658
-9.65405
-9.67191
-9.68997
-9.7081
-9.7262
-9.74419
-9.76201
-9.77962
-9.79699
-9.81411
-9.83097
-9.84755
-9.86385
-9.87987
-9.89559
-9.91101
-9.9261
-9.94083
-9.95517
-9.96909
-9.98252
-9.99543
-10.0077
-10.0194
-10.0304
-9.56635
-9.56872
-9.57486
-9.58435
-9.5962
-9.60976
-9.62465
-9.64056
-9.65718
-9.67423
-9.69153
-9.70896
-9.7264
-9.74377
-9.761
-9.77804
-9.79487
-9.81146
-9.82779
-9.84386
-9.85963
-9.87511
-9.89029
-9.90513
-9.91963
-9.93375
-9.94747
-9.96074
-9.97352
-9.98578
-9.99746
-10.0085
-10.0189
-9.57455
-9.57681
-9.58258
-9.59142
-9.60247
-9.61519
-9.62923
-9.6443
-9.6601
-9.67638
-9.69296
-9.70969
-9.72648
-9.74323
-9.75987
-9.77635
-9.79263
-9.80869
-9.82449
-9.84003
-9.85527
-9.87021
-9.88484
-9.89912
-9.91303
-9.92656
-9.93967
-9.95232
-9.96449
-9.97614
-9.98723
-9.99773
-10.0076
-9.58214
-9.58427
-9.58969
-9.59795
-9.60828
-9.62023
-9.63348
-9.64777
-9.66279
-9.67833
-9.6942
-9.71027
-9.72642
-9.74256
-9.75862
-9.77453
-9.79027
-9.80579
-9.82106
-9.83607
-9.85078
-9.86518
-9.87926
-9.89298
-9.90633
-9.91928
-9.9318
-9.94387
-9.95546
-9.96653
-9.97706
-9.98704
-9.99644
-9.5891
-9.5911
-9.59619
-9.60392
-9.61361
-9.62485
-9.63738
-9.65092
-9.66522
-9.68006
-9.69525
-9.71067
-9.7262
-9.74174
-9.75722
-9.77258
-9.78777
-9.80276
-9.8175
-9.83198
-9.84616
-9.86003
-9.87357
-9.88674
-9.89954
-9.91193
-9.92389
-9.93539
-9.94642
-9.95695
-9.96696
-9.97644
-9.98537
-9.59542
-9.5973
-9.60208
-9.60934
-9.61844
-9.62903
-9.64089
-9.65374
-9.66736
-9.68153
-9.69608
-9.71087
-9.7258
-9.74076
-9.75568
-9.77049
-9.78514
-9.7996
-9.81382
-9.82777
-9.84143
-9.85477
-9.86778
-9.88042
-9.89267
-9.90452
-9.91594
-9.92691
-9.93741
-9.94742
-9.95694
-9.96595
-9.97443
-9.60107
-9.60285
-9.60734
-9.61417
-9.62274
-9.63275
-9.64398
-9.6562
-9.66918
-9.68272
-9.69665
-9.71085
-9.7252
-9.7396
-9.75396
-9.76824
-9.78237
-9.7963
-9.81
-9.82344
-9.83659
-9.84942
-9.8619
-9.87402
-9.88575
-9.89707
-9.90797
-9.91843
-9.92843
-9.93795
-9.94699
-9.95555
-9.96361
-9.60606
-9.60774
-9.61197
-9.6184
-9.6265
-9.63597
-9.64663
-9.65826
-9.67065
-9.6836
-9.69695
-9.71059
-9.72438
-9.73824
-9.75207
-9.76583
-9.77944
-9.79287
-9.80607
-9.819
-9.83164
-9.84397
-9.85595
-9.86756
-9.87879
-9.88961
-9.90001
-9.90997
-9.91949
-9.92855
-9.93714
-9.94526
-9.95291
-9.61036
-9.61195
-9.61593
-9.62201
-9.62967
-9.63866
-9.6488
-9.6599
-9.67174
-9.68414
-9.69696
-9.71006
-9.72332
-9.73666
-9.74999
-9.76325
-9.77637
-9.7893
-9.80201
-9.81445
-9.82661
-9.83844
-9.84993
-9.86106
-9.8718
-9.88214
-9.89206
-9.90155
-9.91061
-9.91922
-9.92738
-9.93509
-9.94235
-9.61395
-9.61545
-9.61923
-9.62498
-9.63225
-9.6408
-9.65047
-9.66108
-9.67242
-9.68432
-9.69664
-9.70924
-9.72201
-9.73487
-9.74772
-9.76049
-9.77313
-9.78559
-9.79783
-9.8098
-9.82148
-9.83285
-9.84387
-9.85452
-9.8648
-9.87467
-9.88414
-9.89319
-9.9018
-9.90999
-9.91773
-9.92504
-9.93192
-9.61682
-9.61824
-9.62181
-9.62728
-9.6342
-9.64236
-9.65161
-9.66178
-9.67267
-9.68411
-9.69597
-9.70812
-9.72043
-9.73283
-9.74523
-9.75755
-9.76974
-9.78175
-9.79353
-9.80506
-9.81629
-9.8272
-9.83777
-9.84798
-9.8578
-9.86724
-9.87627
-9.88489
-9.89309
-9.90086
-9.90821
-9.91514
-9.92165
-9.61893
-9.62028
-9.62368
-9.62888
-9.63548
-9.6433
-9.65218
-9.66196
-9.67245
-9.68349
-9.69494
-9.70667
-9.71857
-9.73054
-9.74252
-9.75442
-9.76618
-9.77777
-9.78913
-9.80022
-9.81103
-9.82151
-9.83165
-9.84143
-9.85083
-9.85985
-9.86847
-9.87668
-9.88448
-9.89186
-9.89883
-9.9054
-9.91155
-9.62027
-9.62156
-9.62478
-9.62974
-9.63607
-9.64358
-9.65215
-9.66159
-9.67174
-9.68243
-9.69351
-9.70487
-9.7164
-9.728
-9.73959
-9.7511
-9.76247
-9.77366
-9.78462
-9.79531
-9.80572
-9.8158
-9.82553
-9.83491
-9.84392
-9.85254
-9.86076
-9.86859
-9.87601
-9.88302
-9.88963
-9.89585
-9.90166
-9.62081
-9.62203
-9.62509
-9.62982
-9.6359
-9.64317
-9.65147
-9.66064
-9.6705
-9.68089
-9.69167
-9.70271
-9.71391
-9.72518
-9.73642
-9.74758
-9.7586
-9.76942
-9.78001
-9.79033
-9.80035
-9.81005
-9.81941
-9.82841
-9.83704
-9.84528
-9.85314
-9.8606
-9.86766
-9.87432
-9.88059
-9.88647
-9.89195
-9.62052
-9.62167
-9.62456
-9.62907
-9.63494
-9.642
-9.65011
-9.65907
-9.6687
-9.67886
-9.6894
-9.70018
-9.71111
-9.72209
-9.73304
-9.74389
-9.75459
-9.76509
-9.77535
-9.78534
-9.79502
-9.80437
-9.81338
-9.82204
-9.83032
-9.83821
-9.84573
-9.85285
-9.85957
-9.86591
-9.87185
-9.87741
-9.88258
-9.61939
-9.62045
-9.62314
-9.62743
-9.63311
-9.64003
-9.648
-9.65682
-9.66632
-9.67631
-9.68667
-9.69725
-9.70795
-9.71869
-9.72938
-9.73995
-9.75036
-9.76056
-9.77051
-9.78018
-9.78954
-9.79858
-9.80726
-9.81558
-9.82354
-9.83111
-9.8383
-9.8451
-9.85151
-9.85753
-9.86317
-9.86844
-9.87333
-9.61739
-9.61834
-9.62077
-9.6248
-9.63033
-9.63718
-9.64509
-9.65386
-9.66329
-9.67323
-9.68351
-9.69399
-9.70457
-9.71516
-9.72568
-9.73607
-9.74627
-9.75624
-9.76595
-9.77536
-9.78446
-9.79321
-9.80162
-9.80965
-9.81731
-9.82459
-9.83149
-9.83799
-9.84411
-9.84985
-9.8552
-9.86017
-9.86476
-9.61457
-9.61533
-9.61735
-9.62104
-9.62649
-9.63339
-9.64135
-9.65013
-9.65955
-9.66943
-9.67962
-9.68997
-9.7004
-9.71082
-9.72114
-9.73132
-9.7413
-9.75104
-9.76051
-9.76968
-9.77852
-9.78702
-9.79517
-9.80295
-9.81035
-9.81738
-9.82401
-9.83027
-9.83614
-9.84162
-9.84674
-9.85148
-9.85587
-9.61099
-9.61141
-9.61275
-9.61598
-9.62138
-9.62844
-9.63667
-9.64579
-9.65561
-9.66585
-9.67632
-9.68688
-9.69745
-9.70792
-9.71825
-9.72837
-9.73825
-9.74784
-9.75714
-9.7661
-9.77472
-9.78299
-9.79088
-9.7984
-9.80553
-9.81228
-9.81864
-9.82461
-9.83019
-9.8354
-9.84022
-9.84465
-9.8487
-9.60689
-9.60654
-9.60668
-9.60952
-9.61512
-9.62217
-9.63008
-9.63888
-9.64845
-9.6585
-9.66883
-9.67928
-9.68976
-9.70018
-9.71046
-9.72054
-9.73038
-9.73994
-9.74919
-9.75811
-9.76667
-9.77487
-9.7827
-9.79014
-9.79719
-9.80385
-9.81012
-9.816
-9.82149
-9.8266
-9.83134
-9.83572
-9.83976
-9.60297
-9.60077
-9.59798
-9.60038
-9.60795
-9.61759
-9.62784
-9.63855
-9.64957
-9.66064
-9.67162
-9.68244
-9.69306
-9.70344
-9.71355
-9.72336
-9.73286
-9.74204
-9.75087
-9.75935
-9.76746
-9.7752
-9.78257
-9.78955
-9.79615
-9.80236
-9.80819
-9.81364
-9.8187
-9.82338
-9.82768
-9.8316
-9.83511
-9.60042
-9.59532
-9.58783
-9.58561
-9.58829
-9.59396
-9.60216
-9.61235
-9.62358
-9.63524
-9.64707
-9.65892
-9.67065
-9.68213
-9.69332
-9.70416
-9.71463
-9.72471
-9.73437
-9.74361
-9.75243
-9.76081
-9.76876
-9.77628
-9.78336
-9.79001
-9.79625
-9.80206
-9.80746
-9.81247
-9.81709
-9.82135
-9.82528
-9.60085
-9.58096
-9.58379
-9.60362
-9.62041
-9.63137
-9.64124
-9.65169
-9.66202
-9.67186
-9.68138
-9.69073
-9.69991
-9.70888
-9.71764
-9.72617
-9.73446
-9.74248
-9.75023
-9.75769
-9.76484
-9.77168
-9.77818
-9.78436
-9.79019
-9.79567
-9.80081
-9.80559
-9.81002
-9.8141
-9.81782
-9.82117
-9.82414
-9.63831
-9.51507
-9.45199
-9.45566
-9.47805
-9.4998
-9.52113
-9.54289
-9.56404
-9.58391
-9.60253
-9.61998
-9.63635
-9.65169
-9.6661
-9.67964
-9.69237
-9.70435
-9.71562
-9.72622
-9.73619
-9.74554
-9.75431
-9.76252
-9.77019
-9.77733
-9.78396
-9.79011
-9.79578
-9.80099
-9.80577
-9.81012
-9.81408
-9.79822
-9.81137
-9.77006
-9.7279
-9.70393
-9.69342
-9.68891
-9.68697
-9.6871
-9.6893
-9.69313
-9.69804
-9.70366
-9.70978
-9.71625
-9.72294
-9.72972
-9.73651
-9.74323
-9.74983
-9.75627
-9.76251
-9.76851
-9.77425
-9.77971
-9.78489
-9.78976
-9.79431
-9.79856
-9.80248
-9.80607
-9.80935
-9.8123
-8.63396
-8.93429
-9.19933
-9.32526
-9.39024
-9.44634
-9.49587
-9.53423
-9.56392
-9.58882
-9.61066
-9.62994
-9.64709
-9.66259
-9.67677
-9.68986
-9.70199
-9.71328
-9.72382
-9.73366
-9.74287
-9.75148
-9.75953
-9.76703
-9.77402
-9.78051
-9.78652
-9.79207
-9.79716
-9.80182
-9.80605
-9.80988
-9.8133
-10.2739
-10.1758
-10.2256
-10.2801
-10.3047
-10.32
-10.331
-10.3358
-10.335
-10.3311
-10.3262
-10.3222
-10.321
-10.3238
-10.3319
-10.3459
-10.3661
-10.3923
-10.424
-10.4602
-10.4999
-10.5418
-10.5848
-10.6275
-10.6688
-10.7075
-10.7427
-10.7733
-10.7985
-10.8172
-10.8288
-10.8324
-10.8272
-10.8124
-10.7873
-10.7513
-10.7035
-10.6436
-10.5708
-10.4847
-10.385
-10.2714
-10.1436
-10.0016
-9.84533
-9.67488
-9.49043
-9.29229
-9.08089
-8.85678
-8.62063
-8.37325
-8.11555
-7.84856
-7.57342
-7.29134
-7.00362
-6.71158
-6.41662
-6.12012
-5.82346
-5.52802
-5.23511
-4.94599
-4.66183
-4.38373
-4.11266
-3.84949
-3.59497
-3.34972
-3.11425
-2.88893
-2.67403
-2.46971
-2.27601
-2.09292
-1.92032
-1.75802
-1.60578
-1.46326
-1.33012
-1.20595
-1.09034
-0.982836
-0.883005
-0.790395
-0.704561
-0.62507
-0.551496
-0.483431
-0.420467
-0.362235
-0.308282
-0.258368
-0.211656
-0.168716
-0.126311
-0.0906503
-0.043511
-0.0296329
-10.2705
-10.265
-10.2933
-10.3129
-10.3086
-10.2989
-10.2912
-10.2843
-10.2777
-10.2725
-10.2695
-10.2694
-10.2729
-10.2809
-10.2938
-10.312
-10.3356
-10.3641
-10.397
-10.4336
-10.473
-10.5141
-10.5559
-10.5973
-10.6372
-10.6746
-10.7084
-10.7378
-10.7617
-10.7793
-10.7897
-10.7921
-10.7858
-10.77
-10.7441
-10.7072
-10.6589
-10.5984
-10.5253
-10.4391
-10.3395
-10.2261
-10.0989
-9.95757
-9.80223
-9.63294
-9.44988
-9.25337
-9.04382
-8.82177
-8.58789
-8.34297
-8.0879
-7.82369
-7.55145
-7.27237
-6.9877
-6.69875
-6.40687
-6.11341
-5.81974
-5.52717
-5.23701
-4.95047
-4.66872
-4.39282
-4.12374
-3.86234
-3.60936
-3.36542
-3.13102
-2.90655
-2.69229
-2.48839
-2.29493
-2.1119
-1.9392
-1.77666
-1.62404
-1.48104
-1.34731
-1.22248
-1.10613
-0.99785
-0.897196
-0.803733
-0.717024
-0.636644
-0.56217
-0.4932
-0.429324
-0.370176
-0.315298
-0.264455
-0.216778
-0.172924
-0.12938
-0.093184
-0.0435688
-0.0330927
-10.2289
-10.235
-10.2402
-10.253
-10.2603
-10.2645
-10.2685
-10.2709
-10.2706
-10.2684
-10.2656
-10.2636
-10.2639
-10.2678
-10.2764
-10.2904
-10.3101
-10.3353
-10.3657
-10.4005
-10.4387
-10.4791
-10.5204
-10.5614
-10.6008
-10.6376
-10.6705
-10.6988
-10.7216
-10.7379
-10.7471
-10.7484
-10.741
-10.7242
-10.6973
-10.6598
-10.6108
-10.5499
-10.4766
-10.3904
-10.291
-10.1781
-10.0514
-9.91102
-9.75679
-9.58885
-9.40739
-9.21271
-9.00522
-8.78547
-8.55409
-8.31186
-8.05965
-7.79845
-7.52934
-7.25346
-6.97205
-6.68638
-6.39776
-6.10751
-5.81695
-5.52738
-5.24007
-4.95621
-4.67695
-4.40332
-4.13629
-3.8767
-3.62528
-3.38267
-3.14936
-2.92574
-2.7121
-2.50862
-2.31539
-2.13239
-1.95955
-1.79672
-1.64368
-1.50013
-1.36576
-1.2402
-1.12306
-1.01393
-0.912387
-0.818001
-0.730348
-0.649008
-0.573566
-0.503621
-0.438767
-0.378636
-0.32277
-0.270933
-0.222236
-0.177394
-0.132696
-0.0958095
-0.0439211
-0.0362164
-10.2019
-10.2187
-10.2299
-10.2471
-10.2595
-10.2645
-10.2661
-10.2656
-10.2631
-10.26
-10.2575
-10.2568
-10.2588
-10.2644
-10.2742
-10.2884
-10.3072
-10.3304
-10.3577
-10.3885
-10.4221
-10.4576
-10.4941
-10.5305
-10.5659
-10.5991
-10.6293
-10.6553
-10.6762
-10.6911
-10.6992
-10.6994
-10.6912
-10.6736
-10.6461
-10.608
-10.5587
-10.4976
-10.4242
-10.3382
-10.2391
-10.1268
-10.001
-9.86165
-9.70874
-9.54236
-9.36271
-9.17008
-8.96488
-8.74762
-8.51896
-8.27962
-8.03047
-7.77247
-7.50665
-7.23415
-6.95615
-6.6739
-6.38866
-6.10174
-5.81442
-5.52796
-5.2436
-4.96252
-4.68583
-4.41456
-4.14966
-3.89195
-3.64217
-3.40095
-3.16878
-2.94606
-2.73309
-2.53006
-2.33706
-2.15411
-1.98114
-1.81801
-1.66453
-1.52041
-1.38537
-1.25904
-1.14106
-1.03103
-0.92854
-0.833174
-0.744516
-0.662154
-0.58568
-0.514697
-0.4488
-0.387623
-0.330704
-0.27781
-0.228038
-0.182138
-0.136262
-0.0985444
-0.0445793
-0.038965
-10.1824
-10.2017
-10.2141
-10.2273
-10.2372
-10.2417
-10.2439
-10.2452
-10.2456
-10.2454
-10.2456
-10.247
-10.2505
-10.2567
-10.2664
-10.28
-10.2978
-10.3196
-10.3452
-10.3741
-10.4055
-10.4386
-10.4725
-10.5061
-10.5385
-10.5686
-10.5954
-10.6181
-10.6358
-10.6477
-10.6529
-10.6507
-10.6404
-10.6211
-10.5922
-10.5531
-10.5031
-10.4416
-10.3681
-10.2822
-10.1836
-10.072
-9.94712
-9.80898
-9.65753
-9.49287
-9.31519
-9.12476
-8.922
-8.7074
-8.48159
-8.2453
-7.99935
-7.74468
-7.48229
-7.21329
-6.93884
-6.66013
-6.37842
-6.09495
-5.81099
-5.52777
-5.2465
-4.96833
-4.69435
-4.42557
-4.16292
-3.90723
-3.65921
-3.4195
-3.18858
-2.96687
-2.75467
-2.55217
-2.35948
-2.17664
-2.00359
-1.8402
-1.6863
-1.54164
-1.40592
-1.27883
-1.15999
-1.04903
-0.945564
-0.849178
-0.759471
-0.676039
-0.598481
-0.526404
-0.459408
-0.397125
-0.339096
-0.285085
-0.234183
-0.187158
-0.140084
-0.101393
-0.0455788
-0.0412673
-10.1647
-10.1841
-10.1976
-10.2102
-10.2205
-10.2271
-10.2313
-10.2341
-10.2357
-10.2365
-10.2375
-10.2395
-10.2434
-10.2498
-10.2593
-10.2724
-10.2891
-10.3093
-10.3329
-10.3594
-10.388
-10.4181
-10.4487
-10.479
-10.5081
-10.5351
-10.5589
-10.5788
-10.5939
-10.6033
-10.6062
-10.6019
-10.5896
-10.5686
-10.5382
-10.4977
-10.4466
-10.3843
-10.3104
-10.2243
-10.1258
-10.0147
-9.89059
-9.75353
-9.60346
-9.44047
-9.26473
-9.07653
-8.87623
-8.66434
-8.44146
-8.20828
-7.96562
-7.71437
-7.45553
-7.19014
-6.91935
-6.64432
-6.36626
-6.08638
-5.80592
-5.52609
-5.24805
-4.97293
-4.70181
-4.43567
-4.17542
-3.92189
-3.67577
-3.43769
-3.20816
-2.98758
-2.77626
-2.5744
-2.38213
-2.19949
-2.02644
-1.86288
-1.70863
-1.56347
-1.42713
-1.29929
-1.17962
-1.06775
-0.963299
-0.865882
-0.775106
-0.690575
-0.611898
-0.538687
-0.470546
-0.407111
-0.347922
-0.292739
-0.24066
-0.192447
-0.144155
-0.104353
-0.0469454
-0.0430621
-10.1489
-10.1676
-10.1819
-10.1942
-10.2045
-10.2118
-10.2167
-10.2202
-10.2227
-10.2246
-10.2268
-10.2298
-10.2345
-10.2414
-10.2509
-10.2635
-10.2792
-10.298
-10.3197
-10.3439
-10.3699
-10.3972
-10.4248
-10.4521
-10.478
-10.5018
-10.5225
-10.5394
-10.5515
-10.5581
-10.5585
-10.5517
-10.5373
-10.5143
-10.4822
-10.4404
-10.3882
-10.3251
-10.2506
-10.1644
-10.066
-9.95529
-9.83194
-9.69591
-9.54718
-9.38583
-9.21201
-9.026
-8.82818
-8.61901
-8.39907
-8.16906
-7.92974
-7.68199
-7.42676
-7.16508
-6.89805
-6.6268
-6.3525
-6.07634
-5.7995
-5.52317
-5.24848
-4.97654
-4.70838
-4.44499
-4.18725
-3.93596
-3.69184
-3.45549
-3.22743
-3.00805
-2.79769
-2.59654
-2.40476
-2.22239
-2.04941
-1.88573
-1.7312
-1.5856
-1.44868
-1.32015
-1.19969
-1.08693
-0.981529
-0.883097
-0.791257
-0.705625
-0.625817
-0.551453
-0.482141
-0.417519
-0.357132
-0.300736
-0.247437
-0.197983
-0.148459
-0.107421
-0.0486849
-0.0443147
-10.134
-10.1519
-10.1663
-10.1785
-10.1888
-10.1966
-10.2024
-10.2067
-10.2102
-10.2132
-10.2163
-10.2202
-10.2254
-10.2324
-10.2418
-10.2538
-10.2685
-10.2859
-10.3057
-10.3277
-10.3513
-10.3758
-10.4006
-10.4248
-10.4477
-10.4684
-10.4861
-10.5
-10.5092
-10.5131
-10.5109
-10.5018
-10.4851
-10.4601
-10.4263
-10.383
-10.3296
-10.2656
-10.1905
-10.1039
-10.0056
-9.89514
-9.77245
-9.63739
-9.48995
-9.3302
-9.15829
-8.97448
-8.77914
-8.57271
-8.35576
-8.12894
-7.89301
-7.64881
-7.39726
-7.13936
-6.87615
-6.60875
-6.33828
-6.06589
-5.79274
-5.51997
-5.24869
-4.97997
-4.71483
-4.45423
-4.19903
-3.95003
-3.70793
-3.47333
-3.24675
-3.02861
-2.81921
-2.6188
-2.42752
-2.24543
-2.07253
-1.90875
-1.75395
-1.60793
-1.47046
-1.34126
-1.22002
-1.1064
-1.00007
-0.900637
-0.807749
-0.721027
-0.640093
-0.564574
-0.494083
-0.428259
-0.366653
-0.309016
-0.254469
-0.203732
-0.152964
-0.110585
-0.0507783
-0.045026
-10.1197
-10.1368
-10.1511
-10.1632
-10.1735
-10.1817
-10.1882
-10.1933
-10.1975
-10.2014
-10.2052
-10.2097
-10.2153
-10.2225
-10.2316
-10.243
-10.2567
-10.2727
-10.2908
-10.3107
-10.3319
-10.3538
-10.3758
-10.3971
-10.417
-10.4348
-10.4495
-10.4605
-10.467
-10.4683
-10.4635
-10.4521
-10.4332
-10.4064
-10.3708
-10.326
-10.2714
-10.2065
-10.1308
-10.044
-9.9456
-9.83548
-9.71343
-9.57933
-9.43316
-9.275
-9.10498
-8.92337
-8.73049
-8.5268
-8.31283
-8.08922
-7.85668
-7.61604
-7.36817
-7.11404
-6.85467
-6.59112
-6.32447
-6.05586
-5.78639
-5.51717
-5.24929
-4.98379
-4.72166
-4.46383
-4.21116
-3.96444
-3.72436
-3.49151
-3.26642
-3.0495
-2.84107
-2.64139
-2.4506
-2.26879
-2.09597
-1.93207
-1.77699
-1.63054
-1.49251
-1.36263
-1.24061
-1.12613
-1.01885
-0.91842
-0.824483
-0.736669
-0.654609
-0.577933
-0.506259
-0.439228
-0.376393
-0.3175
-0.261688
-0.209641
-0.157624
-0.113823
-0.053176
-0.0452381
-10.106
-10.1223
-10.1362
-10.1482
-10.1585
-10.1671
-10.174
-10.1797
-10.1847
-10.1892
-10.1936
-10.1986
-10.2045
-10.2117
-10.2206
-10.2314
-10.2441
-10.2587
-10.2751
-10.293
-10.3118
-10.3312
-10.3505
-10.369
-10.3861
-10.4009
-10.4128
-10.421
-10.4248
-10.4235
-10.4163
-10.4026
-10.3817
-10.3529
-10.3158
-10.2696
-10.2138
-10.1481
-10.0718
-9.98464
-9.88631
-9.77654
-9.65514
-9.52201
-9.37714
-9.22057
-9.05245
-8.87303
-8.68262
-8.48166
-8.27066
-8.05023
-7.82106
-7.58394
-7.33973
-7.08935
-6.83377
-6.57403
-6.31119
-6.04631
-5.78049
-5.5148
-5.25029
-4.98798
-4.72883
-4.47377
-4.22362
-3.97917
-3.7411
-3.51
-3.28639
-3.07069
-2.86323
-2.66427
-2.47398
-2.29246
-2.11971
-1.95571
-1.80035
-1.65347
-1.51487
-1.3843
-1.26148
-1.14612
-1.03789
-0.936452
-0.84145
-0.75253
-0.669329
-0.591482
-0.518611
-0.450359
-0.386282
-0.326119
-0.26903
-0.215653
-0.162388
-0.117102
-0.0557973
-0.0450351
-10.0927
-10.1082
-10.1218
-10.1336
-10.1438
-10.1526
-10.1599
-10.1661
-10.1716
-10.1766
-10.1816
-10.1869
-10.193
-10.2002
-10.2087
-10.2188
-10.2305
-10.2438
-10.2585
-10.2744
-10.2911
-10.3081
-10.3248
-10.3406
-10.3549
-10.3669
-10.376
-10.3815
-10.3827
-10.3788
-10.3693
-10.3534
-10.3304
-10.2999
-10.2611
-10.2136
-10.1567
-10.0901
-10.0133
-9.92591
-9.82763
-9.71823
-9.5975
-9.46537
-9.32179
-9.16682
-9.0006
-8.82336
-8.63541
-8.43716
-8.2291
-8.01182
-7.786
-7.55238
-7.31178
-7.0651
-6.81329
-6.55732
-6.29824
-6.03707
-5.77486
-5.51267
-5.2515
-4.99235
-4.73618
-4.48386
-4.23622
-3.99403
-3.75796
-3.52861
-3.30649
-3.09202
-2.88554
-2.68733
-2.49755
-2.31631
-2.14366
-1.97956
-1.82393
-1.67662
-1.53746
-1.40621
-1.28261
-1.16637
-1.05719
-0.954725
-0.858649
-0.76861
-0.684252
-0.605217
-0.531132
-0.46164
-0.396301
-0.33485
-0.276466
-0.221739
-0.167221
-0.120401
-0.0585503
-0.0445394
-10.0797
-10.0944
-10.1076
-10.1192
-10.1294
-10.1382
-10.1459
-10.1524
-10.1583
-10.1638
-10.1691
-10.1747
-10.1809
-10.1879
-10.196
-10.2054
-10.2161
-10.2281
-10.2412
-10.2552
-10.2698
-10.2844
-10.2986
-10.3118
-10.3234
-10.3327
-10.3392
-10.342
-10.3406
-10.3343
-10.3225
-10.3044
-10.2795
-10.2471
-10.2068
-10.158
-10.1001
-10.0327
-9.95533
-9.86772
-9.76952
-9.66049
-9.54046
-9.40931
-9.26703
-9.11365
-8.94932
-8.77425
-8.58873
-8.39317
-8.18803
-7.97388
-7.75136
-7.52119
-7.28417
-7.04116
-6.79307
-6.54084
-6.28547
-6.02797
-5.76935
-5.51062
-5.25277
-4.99677
-4.74354
-4.49396
-4.24883
-4.0089
-3.77483
-3.54723
-3.3266
-3.11337
-2.90788
-2.71042
-2.52116
-2.34023
-2.16768
-2.0035
-1.84762
-1.69991
-1.5602
-1.42828
-1.3039
-1.18679
-1.07666
-0.973178
-0.876029
-0.784869
-0.69935
-0.61912
-0.543809
-0.473063
-0.406448
-0.343691
-0.283995
-0.227897
-0.172119
-0.123724
-0.0613623
-0.0439007
-10.067
-10.0811
-10.0938
-10.1051
-10.1152
-10.1241
-10.1318
-10.1387
-10.1449
-10.1506
-10.1562
-10.1619
-10.1681
-10.1749
-10.1826
-10.1912
-10.2009
-10.2116
-10.2232
-10.2353
-10.2478
-10.2602
-10.272
-10.2827
-10.2917
-10.2985
-10.3023
-10.3026
-10.2987
-10.29
-10.2759
-10.2557
-10.2289
-10.1948
-10.153
-10.1028
-10.0439
-9.97573
-9.89791
-9.8101
-9.71198
-9.60333
-9.48398
-9.35382
-9.21282
-9.06103
-8.89857
-8.72564
-8.54254
-8.34963
-8.14737
-7.93631
-7.71706
-7.49031
-7.25683
-7.01744
-6.77302
-6.52449
-6.27281
-6.01894
-5.76386
-5.50857
-5.25402
-5.00114
-4.75085
-4.50399
-4.26135
-4.02367
-3.79162
-3.56577
-3.34663
-3.13465
-2.93017
-2.73347
-2.54475
-2.36414
-2.19171
-2.02747
-1.87134
-1.72324
-1.58299
-1.45042
-1.32527
-1.2073
-1.09623
-0.99174
-0.893522
-0.801245
-0.714566
-0.633139
-0.556601
-0.484596
-0.416698
-0.352626
-0.291609
-0.234127
-0.177081
-0.127084
-0.0641854
-0.0432638
-10.0546
-10.068
-10.0802
-10.0912
-10.1012
-10.11
-10.1179
-10.1249
-10.1313
-10.1372
-10.1429
-10.1487
-10.1547
-10.1612
-10.1684
-10.1763
-10.185
-10.1944
-10.2045
-10.2149
-10.2254
-10.2356
-10.2451
-10.2534
-10.2599
-10.2641
-10.2654
-10.2632
-10.2569
-10.2459
-10.2296
-10.2074
-10.1787
-10.1429
-10.0996
-10.0482
-9.98829
-9.91937
-9.84107
-9.75305
-9.65503
-9.54677
-9.4281
-9.29892
-9.15919
-9.00896
-8.84835
-8.67754
-8.49681
-8.30652
-8.10712
-7.8991
-7.68307
-7.4597
-7.22971
-6.9939
-6.75312
-6.50824
-6.2602
-6.00992
-5.75837
-5.50648
-5.25519
-5.00543
-4.75805
-4.51389
-4.27374
-4.03832
-3.80826
-3.58417
-3.36654
-3.15582
-2.95235
-2.75643
-2.56826
-2.38799
-2.21569
-2.05139
-1.89505
-1.74656
-1.60579
-1.47257
-1.34667
-1.22785
-1.11584
-1.01035
-0.911073
-0.817681
-0.729845
-0.647224
-0.569457
-0.496193
-0.427009
-0.361619
-0.299279
-0.240407
-0.18209
-0.130481
-0.0669788
-0.0427317
-10.0423
-10.0551
-10.0669
-10.0776
-10.0873
-10.0961
-10.1039
-10.111
-10.1175
-10.1235
-10.1293
-10.135
-10.1408
-10.147
-10.1536
-10.1608
-10.1684
-10.1766
-10.1852
-10.1939
-10.2024
-10.2106
-10.2178
-10.2238
-10.2279
-10.2297
-10.2286
-10.224
-10.2154
-10.2021
-10.1837
-10.1594
-10.1289
-10.0915
-10.0468
-9.99417
-9.93325
-9.8636
-9.78484
-9.69664
-9.59871
-9.49083
-9.37284
-9.24462
-9.10615
-8.95746
-8.79867
-8.62995
-8.45157
-8.26387
-8.06726
-7.86225
-7.6494
-7.42935
-7.20281
-6.97054
-6.73334
-6.49207
-6.24763
-6.00091
-5.75283
-5.50432
-5.25627
-5.00958
-4.7651
-4.52365
-4.28597
-4.05279
-3.82474
-3.60241
-3.38629
-3.17683
-2.97439
-2.77925
-2.59165
-2.41173
-2.23958
-2.07525
-1.91869
-1.76983
-1.62856
-1.4947
-1.36806
-1.2484
-1.13547
-1.02898
-0.92864
-0.834139
-0.745148
-0.661332
-0.582337
-0.507814
-0.437344
-0.370635
-0.30697
-0.246707
-0.187115
-0.133898
-0.0697028
-0.0423544
-10.0303
-10.0425
-10.0538
-10.0642
-10.0736
-10.0823
-10.09
-10.0971
-10.1036
-10.1096
-10.1153
-10.1209
-10.1265
-10.1322
-10.1382
-10.1446
-10.1513
-10.1582
-10.1653
-10.1724
-10.1791
-10.1852
-10.1903
-10.194
-10.1959
-10.1953
-10.1918
-10.1849
-10.174
-10.1586
-10.1381
-10.1119
-10.0796
-10.0406
-9.9945
-9.94071
-9.87884
-9.80849
-9.72928
-9.6409
-9.54307
-9.43557
-9.31824
-9.19098
-9.05375
-8.90658
-8.74957
-8.58291
-8.40684
-8.22168
-8.02784
-7.82578
-7.61606
-7.39929
-7.17614
-6.94735
-6.71369
-6.47598
-6.23509
-5.99188
-5.74724
-5.50207
-5.25724
-5.0136
-4.772
-4.53322
-4.29801
-4.06706
-3.84102
-3.62044
-3.40584
-3.19765
-2.99624
-2.80191
-2.61488
-2.43533
-2.26335
-2.09899
-1.94223
-1.79303
-1.65126
-1.51678
-1.38941
-1.26891
-1.15506
-1.04759
-0.946196
-0.850589
-0.760446
-0.675438
-0.595215
-0.519432
-0.447676
-0.379647
-0.314655
-0.253003
-0.192127
-0.137316
-0.0723284
-0.0421445
-10.0184
-10.0301
-10.0409
-10.0509
-10.0601
-10.0685
-10.0762
-10.0831
-10.0895
-10.0954
-10.101
-10.1064
-10.1116
-10.1169
-10.1223
-10.1279
-10.1336
-10.1393
-10.145
-10.1504
-10.1554
-10.1596
-10.1626
-10.1642
-10.1638
-10.1609
-10.1552
-10.1461
-10.133
-10.1154
-10.0929
-10.0649
-10.0309
-9.99035
-9.94284
-9.88791
-9.82512
-9.75408
-9.67444
-9.58589
-9.48816
-9.38104
-9.26437
-9.13804
-9.00202
-8.85635
-8.7011
-8.53646
-8.36265
-8.17999
-7.98886
-7.78972
-7.58307
-7.36952
-7.14971
-6.92435
-6.69417
-6.45998
-6.22259
-5.98284
-5.74161
-5.49973
-5.25807
-5.01746
-4.77871
-4.54259
-4.30983
-4.08111
-3.85706
-3.63825
-3.42516
-3.21826
-3.01789
-2.82437
-2.63793
-2.45875
-2.28695
-2.12258
-1.96565
-1.81611
-1.67386
-1.53877
-1.41068
-1.28936
-1.17461
-1.06615
-0.963714
-0.867006
-0.775715
-0.689517
-0.60807
-0.531027
-0.457984
-0.388637
-0.322318
-0.259278
-0.19711
-0.140724
-0.0748434
-0.0420951
-10.0067
-10.0178
-10.0282
-10.0378
-10.0467
-10.0549
-10.0623
-10.0691
-10.0753
-10.0811
-10.0865
-10.0915
-10.0964
-10.1012
-10.106
-10.1107
-10.1154
-10.1199
-10.1242
-10.1281
-10.1313
-10.1337
-10.1348
-10.1342
-10.1317
-10.1267
-10.1188
-10.1075
-10.0923
-10.0727
-10.0482
-10.0184
-9.98272
-9.94069
-9.89187
-9.83582
-9.77214
-9.70044
-9.62038
-9.53167
-9.43404
-9.32729
-9.21126
-9.08586
-8.95104
-8.80682
-8.6533
-8.49064
-8.31906
-8.13885
-7.95039
-7.75409
-7.55047
-7.34009
-7.12356
-6.90156
-6.67481
-6.44407
-6.21013
-5.9738
-5.73591
-5.4973
-5.25877
-5.02116
-4.78523
-4.55174
-4.32142
-4.09491
-3.87285
-3.65579
-3.44423
-3.2386
-3.03928
-2.84658
-2.66075
-2.48196
-2.31036
-2.14599
-1.9889
-1.83903
-1.69632
-1.56064
-1.43184
-1.30972
-1.19407
-1.08464
-0.981165
-0.883364
-0.790932
-0.70355
-0.62088
-0.542581
-0.468254
-0.397589
-0.329944
-0.265521
-0.202052
-0.144113
-0.0772497
-0.0421893
-9.99516
-10.0057
-10.0156
-10.0249
-10.0334
-10.0413
-10.0485
-10.0551
-10.0611
-10.0666
-10.0717
-10.0764
-10.0809
-10.0852
-10.0892
-10.0931
-10.0967
-10.1001
-10.1031
-10.1054
-10.107
-10.1076
-10.1068
-10.1043
-10.0997
-10.0926
-10.0826
-10.0692
-10.052
-10.0304
-10.0041
-9.97253
-9.93522
-9.89174
-9.84165
-9.78452
-9.71997
-9.64763
-9.56717
-9.47831
-9.38078
-9.2744
-9.159
-9.0345
-8.90085
-8.75806
-8.60624
-8.44551
-8.27611
-8.0983
-7.91245
-7.71895
-7.51829
-7.31101
-7.0977
-6.87901
-6.65562
-6.42827
-6.19773
-5.96476
-5.73017
-5.49477
-5.25934
-5.02468
-4.79154
-4.56067
-4.33275
-4.10845
-3.88837
-3.67305
-3.46301
-3.25866
-3.0604
-2.86853
-2.68331
-2.50492
-2.33352
-2.16919
-2.01194
-1.86177
-1.71861
-1.58235
-1.45286
-1.32994
-1.21341
-1.10302
-0.998522
-0.899637
-0.806071
-0.717511
-0.633625
-0.554075
-0.478468
-0.406491
-0.337522
-0.271721
-0.206944
-0.147478
-0.0795566
-0.0424049
-9.98374
-9.99379
-10.0032
-10.012
-10.0202
-10.0278
-10.0347
-10.041
-10.0468
-10.052
-10.0568
-10.0611
-10.0651
-10.0687
-10.0721
-10.0751
-10.0778