/*--------------------------------*- C++ -*----------------------------------*\
| =========                 |                                                 |
| \\      /  F ield         | OpenFOAM: The Open Source CFD Toolbox           |
|  \\    /   O peration     | Version:  4.1                                   |
|   \\  /    A nd           | Web:      www.OpenFOAM.org                      |
|    \\/     M anipulation  |                                                 |
\*---------------------------------------------------------------------------*/
FoamFile
{
    version     2.0;
    format      ascii;
    class       volScalarField;
    location    "1000";
    object      p;
}
// * * * * * * * * * * * * * * * * * * * * * * * * * * * * * * * * * * * * * //

dimensions      [0 2 -2 0 0 0 0];

internalField   nonuniform List<scalar> 
26785
(
-446.375
-454.432
-459.469
-462.802
-466.479
-472.044
-479.173
-486.66
-493.423
-498.678
-502.451
-505.374
-507.938
-510.237
-512.18
-513.691
-514.737
-515.309
-515.411
-515.026
-514.096
-512.381
-509.457
-504.975
-498.619
-490.589
-481.613
-472.428
-463.524
-455.175
-447.519
-440.628
-434.533
-429.234
-424.701
-420.885
-417.727
-415.164
-413.13
-411.553
-410.356
-409.449
-408.732
-408.113
-407.517
-406.913
-406.314
-405.759
-405.192
-404.383
-403.068
-401.22
-399.223
-397.555
-396.333
-395.349
-394.098
-392.452
-390.634
-388.636
-386.389
-383.956
-381.4
-378.705
-375.723
-372.156
-367.671
-362.185
-355.998
-349.65
-343.647
-338.626
-335.463
-334.406
-335.044
-334.966
-329.932
-316.802
-293.708
-264.054
-233.061
-203.689
-177.268
-154.503
-135.77
-121.06
-109.857
-101.182
-94.0138
-87.3256
-80.32
-73.0311
-66.1642
-60.4365
-55.8094
-51.2307
-44.3541
-34.0946
-20.6918
-7.4964
-446.398
-454.455
-459.481
-462.799
-466.465
-472.035
-479.177
-486.678
-493.45
-498.704
-502.47
-505.388
-507.95
-510.248
-512.193
-513.704
-514.75
-515.323
-515.426
-515.043
-514.119
-512.417
-509.506
-505.038
-498.687
-490.646
-481.654
-472.454
-463.54
-455.181
-447.519
-440.623
-434.524
-429.221
-424.687
-420.87
-417.712
-415.15
-413.118
-411.544
-410.35
-409.447
-408.736
-408.121
-407.526
-406.921
-406.32
-405.769
-405.216
-404.423
-403.112
-401.243
-399.212
-397.531
-396.319
-395.358
-394.118
-392.481
-390.682
-388.695
-386.454
-384.026
-381.478
-378.795
-375.83
-372.277
-367.79
-362.285
-356.078
-349.732
-343.756
-338.787
-335.734
-334.807
-335.577
-335.718
-330.961
-318.164
-295.007
-264.978
-233.65
-204.021
-177.384
-154.433
-135.565
-120.805
-109.641
-101.057
-94.0028
-87.3856
-80.3468
-72.9611
-66.0302
-60.3498
-55.9116
-51.6131
-44.8614
-34.5428
-20.9116
-7.64373
-446.428
-454.497
-459.504
-462.793
-466.441
-472.022
-479.191
-486.72
-493.511
-498.762
-502.512
-505.418
-507.974
-510.272
-512.218
-513.731
-514.778
-515.351
-515.455
-515.079
-514.17
-512.495
-509.618
-505.183
-498.839
-490.775
-481.748
-472.516
-463.577
-455.2
-447.524
-440.616
-434.508
-429.2
-424.662
-420.843
-417.686
-415.125
-413.095
-411.526
-410.34
-409.446
-408.743
-408.136
-407.545
-406.937
-406.332
-405.79
-405.264
-404.504
-403.201
-401.29
-399.196
-397.49
-396.297
-395.384
-394.164
-392.548
-390.78
-388.81
-386.575
-384.157
-381.625
-378.97
-376.042
-372.518
-368.026
-362.486
-356.248
-349.922
-344.024
-339.165
-336.283
-335.488
-336.336
-336.756
-332.421
-320.194
-297.073
-266.507
-234.671
-204.625
-177.614
-154.324
-135.204
-120.349
-109.261
-100.849
-94.0134
-87.5304
-80.4175
-72.8364
-65.7848
-60.197
-56.1292
-52.3824
-45.8734
-35.43
-21.3705
-7.88208
-446.467
-454.562
-459.54
-462.787
-466.41
-472.012
-479.222
-486.794
-493.612
-498.855
-502.578
-505.464
-508.012
-510.307
-512.255
-513.77
-514.818
-515.391
-515.496
-515.126
-514.235
-512.601
-509.777
-505.395
-499.067
-490.97
-481.891
-472.613
-463.637
-455.233
-447.535
-440.61
-434.489
-429.172
-424.628
-420.807
-417.649
-415.091
-413.065
-411.503
-410.327
-409.445
-408.757
-408.16
-407.573
-406.962
-406.352
-405.82
-405.333
-404.621
-403.335
-401.369
-399.183
-397.438
-396.271
-395.43
-394.226
-392.639
-390.917
-388.97
-386.747
-384.344
-381.836
-379.217
-376.338
-372.851
-368.353
-362.767
-356.496
-350.22
-344.446
-339.721
-337.006
-336.304
-337.137
-337.844
-334.067
-322.574
-299.622
-268.44
-235.989
-205.419
-177.912
-154.159
-134.688
-119.705
-108.737
-100.578
-94.062
-87.7706
-80.5291
-72.6441
-65.4156
-59.9589
-56.4346
-53.5003
-47.3581
-36.7545
-22.0959
-8.18917
-446.513
-454.645
-459.587
-462.783
-466.375
-472.006
-479.273
-486.9
-493.751
-498.978
-502.663
-505.522
-508.057
-510.35
-512.299
-513.818
-514.867
-515.439
-515.543
-515.178
-514.307
-512.723
-509.968
-505.658
-499.355
-491.221
-482.079
-472.741
-463.719
-455.279
-447.553
-440.606
-434.468
-429.139
-424.588
-420.763
-417.604
-415.048
-413.028
-411.475
-410.311
-409.446
-408.775
-408.193
-407.612
-406.997
-406.377
-405.859
-405.422
-404.773
-403.511
-401.479
-399.178
-397.379
-396.246
-395.495
-394.307
-392.766
-391.099
-389.177
-386.968
-384.581
-382.099
-379.524
-376.705
-373.265
-368.759
-363.119
-356.817
-350.609
-344.987
-340.403
-337.846
-337.207
-337.904
-338.812
-335.635
-324.925
-302.282
-270.518
-237.456
-206.328
-178.258
-153.95
-134.047
-118.911
-108.109
-100.277
-94.185
-88.1457
-80.7114
-72.4024
-64.9492
-59.6662
-56.8458
-54.9633
-49.2765
-38.4845
-23.1109
-8.58673
-446.578
-454.751
-459.65
-462.786
-466.342
-472.009
-479.344
-487.036
-493.922
-499.126
-502.763
-505.588
-508.108
-510.398
-512.35
-513.872
-514.923
-515.492
-515.593
-515.231
-514.379
-512.848
-510.178
-505.954
-499.689
-491.514
-482.3
-472.894
-463.818
-455.337
-447.578
-440.604
-434.445
-429.101
-424.541
-420.712
-417.552
-414.999
-412.984
-411.442
-410.294
-409.449
-408.799
-408.235
-407.661
-407.04
-406.409
-405.905
-405.526
-404.954
-403.728
-401.625
-399.182
-397.311
-396.218
-395.576
-394.403
-392.909
-391.296
-389.408
-387.226
-384.866
-382.417
-379.893
-377.142
-373.756
-369.238
-363.532
-357.191
-351.062
-345.605
-341.153
-338.72
-338.116
-338.581
-339.603
-336.998
-327.066
-304.816
-272.56
-238.957
-207.295
-178.633
-153.703
-133.301
-117.994
-107.413
-99.978
-94.4003
-88.6605
-80.9696
-72.108
-64.4052
-59.3278
-57.3908
-56.8413
-51.7139
-40.6186
-24.367
-9.05647
-446.655
-454.878
-459.731
-462.798
-466.31
-472.018
-479.43
-487.194
-494.118
-499.293
-502.874
-505.659
-508.161
-510.448
-512.404
-513.931
-514.984
-515.55
-515.646
-515.284
-514.447
-512.97
-510.396
-506.271
-500.053
-491.839
-482.548
-473.066
-463.93
-455.403
-447.606
-440.602
-434.42
-429.06
-424.489
-420.654
-417.493
-414.942
-412.935
-411.404
-410.274
-409.452
-408.828
-408.284
-407.72
-407.092
-406.446
-405.955
-405.642
-405.161
-403.987
-401.814
-399.21
-397.244
-396.201
-395.674
-394.449
-392.962
-391.445
-389.627
-387.497
-385.185
-382.784
-380.322
-377.649
-374.32
-369.782
-363.997
-357.616
-351.582
-346.298
-341.941
-339.562
-338.989
-339.197
-340.246
-338.113
-328.888
-307.046
-274.417
-240.401
-208.278
-179.038
-153.445
-132.486
-116.985
-106.683
-99.6879
-94.6892
-89.2737
-81.2268
-71.6079
-63.6181
-58.8271
-58.0665
-59.0604
-54.6849
-43.3222
-26.0376
-9.57281
-446.737
-455.036
-459.838
-462.825
-466.281
-472.033
-479.529
-487.37
-494.335
-499.476
-502.991
-505.732
-508.216
-510.5
-512.46
-513.994
-515.049
-515.612
-515.701
-515.334
-514.508
-513.083
-510.611
-506.597
-500.437
-492.185
-482.812
-473.251
-464.05
-455.473
-447.636
-440.598
-434.39
-429.012
-424.43
-420.589
-417.426
-414.878
-412.878
-411.361
-410.251
-409.456
-408.86
-408.34
-407.788
-407.152
-406.487
-406.009
-405.767
-405.39
-404.286
-402.053
-399.276
-397.177
-396.219
-395.811
-394.454
-392.973
-391.604
-389.861
-387.778
-385.517
-383.182
-380.801
-378.219
-374.948
-370.379
-364.5
-358.088
-352.18
-347.059
-342.731
-340.349
-339.85
-339.746
-340.625
-338.943
-330.337
-308.854
-275.98
-241.714
-209.244
-179.472
-153.204
-131.652
-115.937
-105.982
-99.5404
-95.1932
-90.148
-81.6798
-71.0298
-62.6059
-58.2464
-58.8283
-61.2619
-57.51
-46.0154
-27.8665
-10.2202
-446.829
-455.232
-459.974
-462.868
-466.254
-472.05
-479.635
-487.561
-494.569
-499.669
-503.112
-505.806
-508.269
-510.551
-512.518
-514.059
-515.118
-515.677
-515.756
-515.382
-514.562
-513.184
-510.817
-506.921
-500.828
-492.541
-483.085
-473.441
-464.174
-455.543
-447.663
-440.59
-434.355
-428.958
-424.363
-420.515
-417.351
-414.806
-412.814
-411.311
-410.224
-409.458
-408.894
-408.403
-407.864
-407.221
-406.532
-406.064
-405.894
-405.632
-404.62
-402.346
-399.392
-397.104
-396.319
-395.957
-394.629
-393.193
-391.911
-390.205
-388.143
-385.897
-383.609
-381.315
-378.838
-375.627
-371.01
-365.026
-358.613
-352.863
-347.867
-343.505
-341.127
-340.684
-339.968
-340.456
-339.331
-331.288
-310.13
-277.166
-242.842
-210.176
-179.955
-153.022
-130.837
-114.874
-105.308
-99.4918
-95.8534
-91.2839
-82.4658
-70.6193
-61.5228
-57.4562
-59.4237
-63.3267
-59.9657
-48.5201
-29.4458
-10.9169
-446.933
-455.47
-460.143
-462.925
-466.227
-472.069
-479.747
-487.763
-494.816
-499.871
-503.236
-505.879
-508.321
-510.601
-512.576
-514.126
-515.19
-515.745
-515.814
-515.428
-514.608
-513.27
-511.009
-507.236
-501.217
-492.898
-483.36
-473.632
-464.296
-455.611
-447.686
-440.575
-434.311
-428.894
-424.287
-420.432
-417.267
-414.725
-412.742
-411.255
-410.191
-409.457
-408.929
-408.469
-407.948
-407.298
-406.58
-406.118
-406.019
-405.874
-404.972
-402.693
-399.578
-397.112
-396.451
-396.158
-394.894
-393.501
-392.288
-390.653
-388.647
-386.412
-384.124
-381.877
-379.497
-376.346
-371.668
-365.577
-359.209
-353.635
-348.697
-344.282
-341.965
-341.408
-339.896
-340.413
-339.834
-331.805
-310.79
-277.907
-243.74
-211.058
-180.514
-152.978
-130.156
-113.849
-104.534
-99.3245
-96.7137
-92.7158
-83.7041
-70.2637
-60.3864
-56.4605
-59.5026
-63.3689
-60.3291
-50.397
-30.538
-11.696
-447.088
-455.759
-460.345
-462.996
-466.2
-472.086
-479.862
-487.973
-495.075
-500.079
-503.36
-505.95
-508.37
-510.649
-512.633
-514.195
-515.266
-515.816
-515.873
-515.473
-514.647
-513.341
-511.182
-507.534
-501.596
-493.249
-483.629
-473.819
-464.413
-455.671
-447.699
-440.55
-434.257
-428.819
-424.2
-420.338
-417.172
-414.634
-412.66
-411.189
-410.152
-409.452
-408.964
-408.54
-408.039
-407.382
-406.631
-406.168
-406.138
-406.112
-405.325
-403.07
-399.866
-397.33
-396.615
-396.401
-395.28
-393.905
-392.713
-391.12
-389.187
-387.027
-384.777
-382.545
-380.215
-377.101
-372.351
-366.17
-359.895
-354.473
-349.522
-345.091
-342.832
-341.873
-339.953
-341.159
-341.098
-332.181
-310.857
-278.217
-244.409
-211.899
-181.169
-153.109
-129.666
-112.875
-104.3
-99.6902
-97.1265
-92.8508
-84.4587
-70.2671
-60.8056
-57.5803
-60.2813
-63.8149
-59.8569
-49.1033
-30.1991
-11.747
-447.295
-456.099
-460.58
-463.08
-466.171
-472.101
-479.978
-488.19
-495.342
-500.29
-503.482
-506.017
-508.415
-510.694
-512.69
-514.265
-515.344
-515.891
-515.935
-515.518
-514.681
-513.398
-511.334
-507.811
-501.956
-493.584
-483.886
-473.995
-464.52
-455.722
-447.702
-440.513
-434.189
-428.731
-424.099
-420.231
-417.065
-414.531
-412.567
-411.114
-410.104
-409.442
-408.996
-408.613
-408.136
-407.474
-406.685
-406.215
-406.242
-406.312
-405.616
-403.421
-400.261
-397.8
-396.957
-396.778
-395.813
-394.478
-393.291
-391.711
-389.798
-387.68
-385.503
-383.328
-381.014
-377.871
-373.031
-366.822
-360.682
-355.346
-350.326
-345.929
-343.594
-341.953
-339.915
-341.171
-341.221
-331.778
-310.316
-278.004
-244.752
-212.628
-182.023
-153.94
-130.676
-114.247
-104.87
-100.02
-97.1934
-92.5232
-84.0568
-70.7842
-61.7458
-58.3957
-60.2945
-62.48
-58.0318
-46.6979
-29.23
-11.4697
-447.548
-456.494
-460.845
-463.176
-466.14
-472.113
-480.093
-488.41
-495.615
-500.501
-503.599
-506.08
-508.455
-510.735
-512.745
-514.336
-515.424
-515.97
-516
-515.563
-514.71
-513.443
-511.464
-508.064
-502.291
-493.897
-484.125
-474.156
-464.615
-455.76
-447.69
-440.46
-434.105
-428.627
-423.983
-420.11
-416.944
-414.415
-412.462
-411.028
-410.047
-409.424
-409.025
-408.687
-408.239
-407.575
-406.744
-406.259
-406.342
-406.491
-405.884
-403.798
-400.816
-398.51
-397.527
-397.272
-396.457
-395.188
-394.015
-392.451
-390.553
-388.432
-386.265
-384.136
-381.831
-378.583
-373.651
-367.528
-361.566
-356.236
-351.117
-346.765
-344.2
-341.92
-340.042
-341.163
-340.192
-329.995
-308.399
-277.221
-244.832
-213.296
-183.006
-155.095
-132.092
-115.805
-105.903
-100.593
-97.192
-92.0561
-83.4034
-71.4496
-62.9015
-59.2474
-59.8568
-60.1968
-55.043
-43.666
-27.8875
-10.9943
-447.85
-456.943
-461.139
-463.283
-466.106
-472.121
-480.206
-488.633
-495.892
-500.711
-503.712
-506.136
-508.489
-510.772
-512.798
-514.407
-515.507
-516.052
-516.07
-515.61
-514.737
-513.477
-511.574
-508.292
-502.598
-494.181
-484.34
-474.299
-464.693
-455.782
-447.662
-440.389
-434.003
-428.505
-423.85
-419.972
-416.807
-414.285
-412.343
-410.929
-409.979
-409.397
-409.049
-408.76
-408.348
-407.686
-406.82
-406.352
-406.506
-406.721
-406.193
-404.277
-401.546
-399.396
-398.291
-397.911
-397.23
-396.03
-394.885
-393.342
-391.461
-389.339
-387.144
-384.984
-382.613
-379.206
-374.23
-368.303
-362.514
-357.158
-351.989
-347.652
-344.657
-341.789
-340.033
-340.622
-338.502
-327.637
-305.963
-276.165
-244.85
-213.999
-184.125
-156.543
-133.852
-117.717
-107.426
-101.391
-97.1767
-91.5523
-82.9309
-72.124
-63.9709
-59.9432
-59.2422
-57.8612
-51.8674
-40.6921
-26.3775
-10.3648
-448.203
-457.438
-461.458
-463.399
-466.069
-472.126
-480.316
-488.855
-496.17
-500.916
-503.817
-506.186
-508.517
-510.805
-512.849
-514.477
-515.591
-516.138
-516.143
-515.661
-514.764
-513.503
-511.665
-508.493
-502.87
-494.432
-484.526
-474.418
-464.751
-455.785
-447.615
-440.299
-433.881
-428.363
-423.697
-419.816
-416.653
-414.138
-412.21
-410.816
-409.898
-409.361
-409.066
-408.833
-408.465
-407.826
-406.976
-406.574
-406.785
-407.023
-406.566
-404.846
-402.391
-400.397
-399.202
-398.693
-398.143
-397
-395.898
-394.38
-392.522
-390.401
-388.181
-385.973
-383.508
-379.91
-374.87
-369.123
-363.49
-358.118
-352.925
-348.519
-345.022
-341.708
-339.92
-339.526
-336.19
-324.89
-303.402
-274.94
-244.717
-214.604
-185.289
-158.273
-136.08
-120.052
-109.324
-102.524
-97.4048
-91.1987
-82.6552
-72.7272
-64.8773
-60.4178
-58.4707
-55.6747
-48.9778
-38.0706
-24.8348
-9.70801
-448.644
-457.972
-461.798
-463.523
-466.03
-472.126
-480.421
-489.076
-496.446
-501.114
-503.914
-506.228
-508.539
-510.833
-512.896
-514.547
-515.677
-516.227
-516.221
-515.715
-514.791
-513.522
-511.738
-508.669
-503.105
-494.643
-484.679
-474.509
-464.786
-455.766
-447.545
-440.185
-433.736
-428.199
-423.523
-419.639
-416.48
-413.974
-412.06
-410.688
-409.803
-409.312
-409.075
-408.904
-408.594
-408.01
-407.237
-406.915
-407.161
-407.414
-407.023
-405.501
-403.323
-401.488
-400.232
-399.61
-399.197
-398.096
-397.047
-395.564
-393.731
-391.615
-389.37
-387.107
-384.531
-380.742
-375.658
-370.063
-364.55
-359.168
-353.945
-349.363
-345.334
-341.648
-339.61
-338.077
-333.548
-321.935
-300.777
-273.506
-244.332
-215.025
-186.45
-160.205
-138.579
-122.537
-111.311
-103.731
-97.743
-90.9998
-82.5237
-73.231
-65.6124
-60.7054
-57.6275
-53.6244
-46.3815
-35.762
-23.3554
-9.06106
-449.155
-458.537
-462.155
-463.655
-465.989
-472.122
-480.52
-489.292
-496.718
-501.303
-504
-506.263
-508.553
-510.854
-512.94
-514.615
-515.763
-516.318
-516.304
-515.774
-514.82
-513.538
-511.797
-508.819
-503.301
-494.812
-484.794
-474.569
-464.794
-455.722
-447.451
-440.047
-433.566
-428.011
-423.326
-419.441
-416.287
-413.791
-411.892
-410.544
-409.694
-409.251
-409.072
-408.971
-408.745
-408.254
-407.588
-407.353
-407.63
-407.896
-407.571
-406.241
-404.331
-402.656
-401.363
-400.653
-400.371
-399.317
-398.328
-396.888
-395.086
-392.978
-390.708
-388.381
-385.682
-381.704
-376.575
-371.093
-365.672
-360.29
-355.015
-350.181
-345.642
-341.579
-339.04
-336.331
-330.673
-318.803
-298.012
-271.811
-243.669
-215.265
-187.582
-162.197
-141.103
-125.026
-113.328
-104.979
-98.1666
-90.9261
-82.4843
-73.6208
-66.1275
-60.7601
-56.6834
-51.6792
-44.0145
-33.6832
-21.9896
-8.44151
-449.702
-459.134
-462.527
-463.794
-465.947
-472.116
-480.614
-489.505
-496.985
-501.482
-504.077
-506.289
-508.559
-510.871
-512.98
-514.68
-515.848
-516.41
-516.39
-515.838
-514.853
-513.552
-511.843
-508.943
-503.454
-494.934
-484.868
-474.595
-464.772
-455.651
-447.33
-439.881
-433.369
-427.796
-423.103
-419.219
-416.072
-413.588
-411.706
-410.379
-409.561
-409.17
-409.063
-409.047
-408.922
-408.549
-408.015
-407.879
-408.185
-408.466
-408.209
-407.064
-405.408
-403.89
-402.584
-401.814
-401.653
-400.658
-399.735
-398.347
-396.582
-394.487
-392.191
-389.793
-386.959
-382.796
-377.609
-372.2
-366.841
-361.463
-356.109
-350.983
-345.977
-341.495
-338.231
-334.398
-327.653
-315.468
-295.109
-269.922
-242.822
-215.388
-188.659
-164.138
-143.537
-127.439
-115.313
-106.242
-98.6644
-90.9579
-82.5039
-73.9116
-66.4482
-60.619
-55.6655
-49.8368
-41.8555
-31.8035
-20.7442
-7.8633
-450.282
-459.757
-462.911
-463.938
-465.905
-472.108
-480.702
-489.712
-497.245
-501.649
-504.142
-506.307
-508.559
-510.881
-513.016
-514.742
-515.931
-516.503
-516.479
-515.907
-514.89
-513.568
-511.879
-509.044
-503.564
-495.007
-484.898
-474.584
-464.718
-455.549
-447.179
-439.686
-433.143
-427.554
-422.855
-418.972
-415.834
-413.36
-411.49
-410.186
-409.407
-409.073
-409.046
-409.136
-409.131
-408.894
-408.51
-408.476
-408.818
-409.122
-408.936
-407.968
-406.546
-405.183
-403.89
-403.08
-403.036
-402.117
-401.263
-399.937
-398.215
-396.137
-393.816
-391.339
-388.364
-384.02
-378.754
-373.377
-368.05
-362.668
-357.211
-351.786
-346.362
-341.423
-337.324
-332.482
-324.736
-312.125
-292.237
-268.006
-241.915
-215.44
-189.652
-165.955
-145.81
-129.7
-117.191
-107.47
-99.2039
-91.0654
-82.5496
-74.1003
-66.5896
-60.3187
-54.6165
-48.1206
-39.9071
-30.1144
-19.6042
-7.32703
-450.891
-460.399
-463.304
-464.087
-465.863
-472.099
-480.785
-489.914
-497.498
-501.804
-504.197
-506.318
-508.551
-510.887
-513.047
-514.8
-516.011
-516.595
-516.571
-515.98
-514.932
-513.586
-511.908
-509.121
-503.63
-495.029
-484.882
-474.533
-464.629
-455.414
-446.996
-439.46
-432.887
-427.283
-422.578
-418.697
-415.562
-413.094
-411.24
-409.963
-409.229
-408.966
-409.044
-409.251
-409.373
-409.28
-409.055
-409.133
-409.521
-409.858
-409.748
-408.95
-407.744
-406.533
-405.277
-404.438
-404.513
-403.687
-402.907
-401.653
-399.981
-397.926
-395.581
-393.019
-389.897
-385.378
-380.008
-374.625
-369.295
-363.893
-358.316
-352.611
-346.811
-341.401
-336.473
-330.759
-322.152
-309.037
-289.562
-266.179
-241.007
-215.43
-190.527
-167.595
-147.868
-131.757
-118.913
-108.622
-99.7492
-91.2147
-82.5952
-74.1891
-66.5737
-59.8949
-53.5695
-46.5464
-38.1677
-28.6065
-18.559
-6.83005
-451.553
-461.056
-463.701
-464.239
-465.824
-472.092
-480.864
-490.112
-497.743
-501.946
-504.24
-506.321
-508.538
-510.888
-513.074
-514.853
-516.087
-516.684
-516.664
-516.056
-514.979
-513.609
-511.933
-509.175
-503.649
-494.997
-484.817
-474.44
-464.501
-455.244
-446.779
-439.2
-432.6
-426.982
-422.265
-418.376
-415.244
-412.789
-410.957
-409.719
-409.042
-408.87
-409.062
-409.385
-409.634
-409.693
-409.638
-409.837
-410.286
-410.668
-410.643
-410.007
-409
-407.938
-406.74
-405.875
-406.074
-405.363
-404.66
-403.491
-401.877
-399.85
-397.482
-394.831
-391.561
-386.872
-381.375
-375.95
-370.583
-365.136
-359.433
-353.469
-347.323
-341.445
-335.749
-329.27
-319.957
-306.292
-287.134
-264.465
-240.106
-215.352
-191.266
-169.029
-149.686
-133.586
-120.455
-109.668
-100.269
-91.3745
-82.6204
-74.1855
-66.4286
-59.3824
-52.5457
-45.112
-36.6207
-27.2628
-17.6042
-6.36953
-452.24
-461.724
-464.102
-464.393
-465.789
-472.087
-480.94
-490.306
-497.982
-502.075
-504.274
-506.318
-508.52
-510.886
-513.097
-514.903
-516.159
-516.77
-516.756
-516.136
-515.031
-513.637
-511.954
-509.207
-503.62
-494.91
-484.702
-474.302
-464.333
-455.036
-446.526
-438.907
-432.273
-426.63
-421.899
-418.005
-414.883
-412.454
-410.656
-409.461
-408.851
-408.782
-409.089
-409.526
-409.905
-410.123
-410.246
-410.579
-411.104
-411.548
-411.616
-411.138
-410.314
-409.397
-408.275
-407.393
-407.71
-407.138
-406.517
-405.445
-403.897
-401.905
-399.516
-396.775
-393.358
-388.505
-382.858
-377.358
-371.919
-366.407
-360.577
-354.369
-347.891
-341.558
-335.187
-327.945
-318.063
-303.851
-284.922
-262.851
-239.212
-215.208
-191.866
-170.253
-151.257
-135.181
-121.807
-110.594
-100.74
-91.5186
-82.6102
-74.0976
-66.1796
-58.8093
-51.5571
-43.8068
-35.2439
-26.0628
-16.7294
-5.94245
-452.934
-462.408
-464.504
-464.548
-465.759
-472.086
-481.013
-490.497
-498.212
-502.19
-504.299
-506.31
-508.5
-510.884
-513.12
-514.95
-516.226
-516.85
-516.846
-516.215
-515.086
-513.671
-511.974
-509.214
-503.541
-494.767
-484.535
-474.118
-464.123
-454.789
-446.233
-438.565
-431.89
-426.219
-421.477
-417.596
-414.496
-412.094
-410.329
-409.179
-408.651
-408.695
-409.116
-409.667
-410.181
-410.564
-410.873
-411.351
-411.969
-412.491
-412.662
-412.34
-411.688
-410.911
-409.878
-408.991
-409.411
-409.007
-408.471
-407.509
-406.035
-404.085
-401.681
-398.852
-395.292
-390.28
-384.461
-378.852
-373.316
-367.721
-361.761
-355.305
-348.501
-341.734
-334.817
-326.782
-316.322
-301.649
-282.89
-261.326
-238.326
-215.004
-192.332
-171.273
-152.588
-136.542
-122.964
-111.388
-101.143
-91.627
-82.5542
-73.9336
-65.8482
-58.1968
-50.6107
-42.6203
-34.0188
-24.9876
-15.9149
-5.54559
-453.63
-463.103
-464.904
-464.703
-465.734
-472.091
-481.083
-490.684
-498.433
-502.29
-504.313
-506.299
-508.481
-510.885
-513.146
-514.995
-516.286
-516.921
-516.928
-516.291
-515.142
-513.711
-511.995
-509.194
-503.409
-494.568
-484.316
-473.886
-463.867
-454.491
-445.883
-438.16
-431.443
-425.757
-421.018
-417.149
-414.07
-411.694
-409.958
-408.867
-408.44
-408.602
-409.135
-409.803
-410.458
-411.012
-411.512
-412.147
-412.875
-413.492
-413.778
-413.611
-413.122
-412.477
-411.545
-410.669
-411.168
-410.972
-410.516
-409.677
-408.286
-406.384
-403.972
-401.061
-397.363
-392.198
-386.187
-380.438
-374.784
-369.095
-362.988
-356.27
-349.149
-341.97
-334.57
-325.825
-314.681
-299.64
-281.014
-259.884
-237.45
-214.741
-192.668
-172.098
-153.688
-137.676
-123.928
-112.044
-101.464
-91.6849
-82.446
-73.7018
-65.4526
-57.562
-49.7112
-41.543
-32.9297
-24.02
-15.1404
-5.17593
-454.328
-463.805
-465.301
-464.854
-465.717
-472.101
-481.15
-490.863
-498.636
-502.371
-504.318
-506.287
-508.468
-510.895
-513.175
-515.036
-516.334
-516.978
-517
-516.363
-515.199
-513.757
-512.015
-509.143
-503.221
-494.311
-484.044
-473.599
-463.551
-454.129
-445.463
-437.692
-430.946
-425.247
-420.511
-416.652
-413.59
-411.232
-409.537
-408.526
-408.212
-408.496
-409.141
-409.93
-410.732
-411.464
-412.16
-412.961
-413.816
-414.545
-414.958
-414.948
-414.615
-414.097
-413.275
-412.43
-412.984
-413.05
-412.65
-411.94
-410.641
-408.797
-406.384
-403.4
-399.574
-394.263
-388.043
-382.123
-376.339
-370.532
-364.249
-357.26
-349.844
-342.301
-334.362
-325.028
-313.16
-297.804
-279.281
-258.521
-236.586
-214.421
-192.878
-172.737
-154.57
-138.595
-124.704
-112.561
-101.694
-91.6819
-82.2819
-73.4094
-65.0074
-56.9173
-48.86
-40.5642
-31.9593
-23.143
-14.396
-4.83115
-455.056
-464.514
-465.692
-465.001
-465.709
-472.12
-481.213
-491.03
-498.814
-502.425
-504.311
-506.275
-508.467
-510.92
-513.211
-515.073
-516.37
-517.022
-517.063
-516.427
-515.254
-513.803
-512.027
-509.054
-502.974
-493.992
-483.705
-473.241
-463.158
-453.693
-444.979
-437.164
-430.39
-424.68
-419.946
-416.094
-413.037
-410.701
-409.067
-408.155
-407.963
-408.37
-409.129
-410.046
-411
-411.915
-412.812
-413.79
-414.789
-415.648
-416.199
-416.349
-416.167
-415.77
-415.067
-414.279
-414.869
-415.227
-414.866
-414.291
-413.095
-411.315
-408.911
-405.865
-401.921
-396.477
-390.041
-383.922
-377.989
-372.027
-365.53
-358.281
-350.602
-342.736
-334.222
-324.287
-311.767
-296.131
-277.682
-257.236
-235.734
-214.049
-192.97
-173.201
-155.248
-139.308
-125.3
-112.939
-101.829
-91.6112
-82.0599
-73.0625
-64.5229
-56.2694
-48.0531
-39.6686
-31.0872
-22.3417
-13.6844
-4.51098
-455.784
-465.23
-466.076
-465.143
-465.712
-472.15
-481.274
-491.178
-498.952
-502.442
-504.289
-506.269
-508.49
-510.964
-513.256
-515.11
-516.4
-517.06
-517.109
-516.466
-515.297
-513.841
-512.029
-508.917
-502.652
-493.588
-483.278
-472.797
-462.689
-453.186
-444.427
-436.571
-429.773
-424.055
-419.316
-415.457
-412.403
-410.105
-408.551
-407.752
-407.69
-408.22
-409.096
-410.147
-411.261
-412.364
-413.466
-414.63
-415.789
-416.794
-417.497
-417.809
-417.778
-417.5
-416.924
-416.223
-416.824
-417.442
-417.16
-416.72
-415.64
-413.932
-411.548
-408.451
-404.402
-398.841
-392.201
-385.854
-379.737
-373.564
-366.831
-359.352
-351.442
-343.213
-334.181
-323.584
-310.503
-294.614
-276.215
-256.028
-234.898
-213.629
-192.952
-173.505
-155.736
-139.83
-125.725
-113.181
-101.865
-91.4682
-81.7784
-72.6646
-64.0046
-55.6195
-47.283
-38.8403
-30.2953
-21.606
-13.0027
-4.21567
-456.51
-465.954
-466.451
-465.279
-465.73
-472.197
-481.334
-491.299
-499.035
-502.411
-504.256
-506.282
-508.538
-511.025
-513.309
-515.15
-516.433
-517.09
-517.125
-516.464
-515.318
-513.862
-512.01
-508.697
-502.214
-493.078
-482.757
-472.268
-462.141
-452.605
-443.806
-435.916
-429.097
-423.366
-418.609
-414.733
-411.689
-409.447
-407.991
-407.315
-407.387
-408.042
-409.04
-410.232
-411.512
-412.808
-414.119
-415.48
-416.812
-417.979
-418.845
-419.326
-419.446
-419.291
-418.85
-418.261
-418.844
-419.663
-419.533
-419.223
-418.27
-416.642
-414.289
-411.155
-407.014
-401.359
-394.54
-387.938
-381.58
-375.143
-368.173
-360.494
-352.359
-343.726
-334.184
-322.948
-309.372
-293.249
-274.874
-254.896
-234.081
-213.167
-192.834
-173.661
-156.051
-140.174
-125.988
-113.292
-101.802
-91.2498
-81.436
-72.2175
-63.4552
-54.9669
-46.5426
-38.0669
-29.5723
-20.9276
-12.3226
-3.94261
-457.229
-466.681
-466.815
-465.409
-465.768
-472.267
-481.393
-491.389
-499.054
-502.337
-504.216
-506.303
-508.6
-511.099
-513.372
-515.199
-516.473
-517.114
-517.111
-516.418
-515.305
-513.861
-511.923
-508.342
-501.654
-492.466
-482.145
-471.657
-461.516
-451.954
-443.123
-435.204
-428.363
-422.603
-417.812
-413.919
-410.901
-408.732
-407.385
-406.842
-407.052
-407.832
-408.959
-410.298
-411.749
-413.244
-414.769
-416.334
-417.855
-419.199
-420.239
-420.894
-421.173
-421.148
-420.844
-420.378
-420.921
-421.893
-422.002
-421.793
-420.979
-419.439
-417.127
-413.969
-409.751
-404.026
-397.073
-390.193
-383.519
-376.778
-369.578
-361.719
-353.314
-344.29
-334.201
-322.389
-308.371
-292.026
-273.651
-253.837
-233.281
-212.668
-192.625
-173.682
-156.204
-140.353
-126.1
-113.276
-101.639
-90.9539
-81.0315
-71.7219
-62.8757
-54.31
-45.827
-37.3416
-28.9093
-20.2941
-11.6166
-3.68678
-457.946
-467.409
-467.168
-465.533
-465.833
-472.368
-481.454
-491.446
-499.011
-502.226
-504.163
-506.325
-508.675
-511.189
-513.45
-515.263
-516.522
-517.126
-517.063
-516.341
-515.253
-513.807
-511.72
-507.853
-500.985
-491.761
-481.45
-470.97
-460.823
-451.242
-442.385
-434.438
-427.561
-421.755
-416.921
-413.021
-410.044
-407.961
-406.735
-406.33
-406.68
-407.587
-408.85
-410.343
-411.972
-413.67
-415.414
-417.191
-418.912
-420.447
-421.674
-422.513
-422.959
-423.073
-422.909
-422.57
-423.041
-424.148
-424.569
-424.426
-423.758
-422.316
-420.055
-416.886
-412.606
-406.836
-399.797
-392.635
-385.569
-378.479
-371.059
-363.007
-354.313
-344.88
-334.255
-321.916
-307.491
-290.933
-272.536
-252.843
-232.496
-212.13
-192.328
-173.576
-156.21
-140.379
-126.069
-113.137
-101.377
-90.5785
-80.5628
-71.1768
-62.265
-53.6446
-45.127
-36.6489
-28.2794
-19.6834
-10.9172
-3.4427
-458.697
-468.135
-467.505
-465.653
-465.929
-472.505
-481.518
-491.469
-498.916
-502.097
-504.103
-506.354
-508.765
-511.295
-513.546
-515.345
-516.582
-517.13
-516.991
-516.24
-515.168
-513.686
-511.404
-507.253
-500.227
-490.979
-480.684
-470.219
-460.072
-450.478
-441.595
-433.612
-426.683
-420.814
-415.941
-412.046
-409.123
-407.137
-406.04
-405.779
-406.267
-407.306
-408.711
-410.364
-412.176
-414.082
-416.049
-418.047
-419.98
-421.719
-423.145
-424.177
-424.803
-425.072
-425.051
-424.843
-425.207
-426.456
-427.18
-427.124
-426.601
-425.268
-423.066
-419.897
-415.569
-409.775
-402.697
-395.273
-387.761
-380.276
-372.62
-364.357
-355.367
-345.499
-334.363
-321.532
-306.729
-289.959
-271.516
-251.906
-231.721
-211.555
-191.95
-173.355
-156.077
-140.261
-125.902
-112.879
-101.015
-90.1198
-80.0246
-70.5747
-61.6108
-52.9506
-44.4135
-35.9513
-27.6363
-19.0844
-10.3413
-3.22175
-459.453
-468.855
-467.823
-465.765
-466.063
-472.685
-481.588
-491.456
-498.79
-501.972
-504.045
-506.392
-508.868
-511.414
-513.657
-515.442
-516.648
-517.127
-516.905
-516.125
-515.05
-513.501
-510.994
-506.566
-499.399
-490.135
-479.864
-469.418
-459.276
-449.668
-440.754
-432.718
-425.718
-419.783
-414.878
-411
-408.14
-406.26
-405.298
-405.184
-405.812
-406.987
-408.539
-410.359
-412.36
-414.479
-416.674
-418.9
-421.054
-423.01
-424.647
-425.886
-426.706
-427.144
-427.273
-427.2
-427.471
-428.829
-429.786
-429.905
-429.496
-428.285
-426.149
-422.991
-418.63
-412.827
-405.74
-398.091
-390.132
-382.221
-374.277
-365.796
-356.477
-346.17
-334.541
-321.245
-306.082
-289.098
-270.585
-251.02
-230.955
-210.945
-191.497
-173.025
-155.816
-140.007
-125.602
-112.5
-100.545
-89.5649
-79.3989
-69.8926
-60.8846
-52.1937
-43.6483
-35.2098
-26.9483
-18.507
-9.98416
-3.04324
-460.213
-469.565
-468.114
-465.862
-466.254
-472.91
-481.664
-491.411
-498.643
-501.85
-503.993
-506.437
-508.982
-511.547
-513.784
-515.552
-516.717
-517.118
-516.812
-516.001
-514.901
-513.256
-510.51
-505.816
-498.523
-489.249
-479.004
-468.58
-458.442
-448.814
-439.854
-431.748
-424.665
-418.666
-413.741
-409.888
-407.099
-405.331
-404.508
-404.543
-405.312
-406.625
-408.332
-410.324
-412.521
-414.857
-417.285
-419.745
-422.132
-424.315
-426.178
-427.637
-428.665
-429.29
-429.578
-429.643
-429.886
-431.27
-432.398
-432.774
-432.437
-431.356
-429.295
-426.159
-421.78
-415.977
-408.89
-401.056
-392.688
-384.35
-376.082
-367.336
-357.658
-346.91
-334.804
-321.063
-305.55
-288.345
-269.74
-250.185
-230.199
-210.304
-190.972
-172.592
-155.429
-139.616