/*--------------------------------*- C++ -*----------------------------------*\
| =========                 |                                                 |
| \\      /  F ield         | OpenFOAM: The Open Source CFD Toolbox           |
|  \\    /   O peration     | Version:  4.1                                   |
|   \\  /    A nd           | Web:      www.OpenFOAM.org                      |
|    \\/     M anipulation  |                                                 |
\*---------------------------------------------------------------------------*/
FoamFile
{
    version     2.0;
    format      ascii;
    class       surfaceScalarField;
    location    "1000";
    object      phi;
}
// * * * * * * * * * * * * * * * * * * * * * * * * * * * * * * * * * * * * * //

dimensions      [0 3 -1 0 0 0 0];

internalField   nonuniform List<scalar> 
52920
(
1632.7
-117.408
1732.9
-100.206
1823.07
-90.1593
1919.39
-96.3157
2039.26
-119.866
2186.22
-146.951
2354.39
-168.16
2534.13
-179.738
2715.24
-181.105
2892.58
-177.341
3065.94
-173.346
3236.5
-170.561
3404.9
-168.392
3570.73
-165.827
3733.31
-162.571
3892.32
-159.012
4047.77
-155.437
4198.94
-151.166
4342.74
-143.803
4472
-129.255
4574.98
-102.969
4638.52
-63.5371
4653.48
-14.9564
4615.9
37.5785
4532.85
83.0532
4420.51
112.344
4294.45
126.067
4164.95
129.502
4037.41
127.544
3914.11
123.312
3795.73
118.376
3682.32
113.423
3573.47
108.849
3468.41
105.068
3365.92
102.496
3264.51
101.408
3162.66
101.854
3059.01
103.657
2952.5
106.521
2842.27
110.235
2727.5
114.781
2607.28
120.219
2480.88
126.407
2348.36
132.527
2211.85
136.518
2076.27
135.587
1949.06
127.226
1833.94
115.124
1723.24
110.708
1600.72
122.528
1458.89
141.845
1319.44
139.453
1220.42
99.0378
1180.34
40.0872
1194.55
-14.195
1234.33
-39.7722
1324.52
-90.1805
1506.31
-181.786
1769.46
-263.14
2081.87
-312.412
2425.25
-343.373
2793.97
-368.723
3185.89
-391.913
3595.54
-409.65
4011.73
-416.194
4421.9
-410.164
4822.02
-400.123
5223.8
-401.781
5661.01
-437.21
6192.31
-531.3
6886.99
-694.674
7782.22
-895.231
8841.18
-1058.96
9959.99
-1118.81
10971.2
-1011.16
11678
-706.827
11930.8
-252.79
11681.7
249.071
11070.3
611.431
10300.5
769.813
9503.58
796.87
8748.12
755.457
8070.67
677.455
7492.88
577.783
7026.82
466.069
6673.02
353.799
6419.7
253.316
6252.95
166.754
6152.13
100.815
6091.37
60.7586
6066.8
24.5733
6106.42
-39.6244
6248.82
-142.396
6501.85
-253.033
6815.61
-313.761
7084.99
-269.376
7237.41
-152.419
7268.85
-31.4443
7256.15
12.7022
39.1724
1627.41
-232.442
1724.17
-196.964
1809.44
-175.424
1902.12
-188.984
2025.48
-243.222
2187.98
-309.444
2382.75
-362.927
2594.19
-391.172
2806.09
-393.002
3010.15
-381.388
3205.45
-368.639
3393.71
-358.824
3576.27
-350.945
3753.22
-342.768
3924.08
-333.425
4088.5
-323.434
4246.25
-313.178
4396.39
-301.304
4536.02
-283.431
4659.06
-252.287
4755.65
-199.558
4813.25
-121.134
4820.43
-22.1309
4771.57
86.4457
4674.86
179.767
4548.35
238.86
4408.87
265.551
4267.19
271.186
4128.62
266.117
3995.08
256.85
3866.87
246.589
3743.66
236.644
3624.81
227.701
3509.41
220.469
3396.25
215.661
3283.95
213.719
3171.15
214.66
3056.72
218.09
2939.82
223.426
2819.79
230.277
2695.94
238.635
2567.57
248.596
2434.18
259.8
2296.19
270.523
2156.07
276.645
2018.92
272.752
1892.19
253.967
1779.59
227.732
1673.36
216.95
1556.68
239.21
1420.18
278.356
1282.41
277.228
1178.48
202.985
1125.65
92.9265
1116.74
-5.26972
1110.01
-33.0354
1135.49
-115.645
1257.28
-303.57
1474.17
-480.024
1749.31
-587.552
2061.01
-655.068
2402.84
-710.554
2770.46
-759.529
3154.37
-793.556
3539.29
-801.108
3910.33
-781.202
4264.26
-754.06
4616.91
-754.425
5007.54
-827.838
5495.18
-1018.95
6138.81
-1338.3
6960.21
-1716.63
7917.13
-2015.89
8922.92
-2124.6
9849.96
-1938.2
10545.2
-1402.04
10871.6
-579.247
10733.5
387.172
10225.4
1119.56
9546.25
1448.96
8828.91
1514.21
8143.37
1440.99
7527.22
1293.6
7003.34
1101.66
6585.37
884.043
6274.97
664.193
6060.33
467.959
5927.86
299.23
5854.85
173.824
5811.7
103.91
5795.77
40.4987
5839.43
-83.2811
5985.03
-287.995
6242.85
-510.859
6559.79
-630.706
6821.43
-531.007
6949.52
-280.512
6944.92
-26.8495
6882.25
75.3758
123.344
1611.46
-342.63
1701.58
-287.08
1781.84
-255.68
1880.28
-287.421
2027.86
-390.794
2229.01
-510.592
2463.82
-597.731
2706.15
-633.493
2936.9
-623.75
3149.63
-594.12
3346.35
-565.354
3531.1
-543.569
3706.72
-526.553
3874.2
-510.248
4033.63
-492.848
4185.04
-474.847
4328.68
-456.811
4464.49
-437.114
4591.12
-410.051
4704.66
-365.827
4797.45
-292.342
4857.24
-180.922
4869.89
-34.7705
4825.86
130.476
4731.2
274.427
4603.91
366.155
4461.53
407.939
4315.45
417.268
4171.33
410.237
4031.22
396.962
3895.45
382.371
3763.7
368.399
3635.42
355.982
3509.82
346.075
3385.84
339.641
3262.32
337.245
3138.14
338.845
3012.42
343.822
2884.53
351.321
2754.02
360.786
2620.47
372.191
2483.47
385.603
2342.91
400.365
2199.63
413.817
2056.4
419.875
1918.47
410.695
1793.47
378.976
1685.21
336.002
1585.58
316.589
1476.33
348.462
1344.82
409.879
1206.4
415.656
1095.77
313.628
1031.15
157.559
1006.77
19.1216
970.928
2.81682
972.01
-116.716
1089.52
-421.081
1304.02
-694.513
1563.79
-847.319
1849.25
-940.527
2158.47
-1019.77
2488.24
-1089.29
2828.66
-1133.98
3164.22
-1136.66
3481.16
-1098.15
3779.48
-1052.38
4075.4
-1050.35
4398.9
-1151.34
4793.32
-1413.37
5308.98
-1853.95
5972.87
-2380.52
6760.06
-2803.07
7613.96
-2978.5
8444.93
-2769.17
9130.5
-2087.6
9536.4
-985.148
9511.47
412.105
9106.96
1524.07
8524.88
2031.04
7899.79
2139.3
7300.19
2040.59
6762.09
1831.71
6308.52
1555.23
5954.76
1237.8
5703.35
915.597
5541.17
630.141
5455.36
385.044
5419.58
209.606
5397.27
126.212
5387.63
50.1439
5430.72
-126.374
5576.57
-433.843
5840.78
-775.068
6164.32
-954.248
6412.99
-779.677
6498.31
-365.834
6431
40.4593
6294.5
211.879
270.166
1586.47
-445.716
1669.5
-370.108
1752.58
-338.756
1873.73
-408.564
2059.35
-576.413
2295.66
-746.898
2549.44
-851.5
2793.99
-878.044
3015.99
-845.744
3214.37
-792.499
3394.28
-745.259
3561.24
-710.523
3718.71
-684.021
3867.95
-659.481
4009.12
-634.016
4142.42
-608.139
4268.45
-582.832
4387.97
-556.635
4501.02
-523.096
4605.61
-470.41
4696.14
-382.871
4761.73
-246.501
4787.06
-60.0988
4758.36
159.183
4677.48
355.311
4560.75
482.882
4425.55
543.15
4283.57
559.247
4140.86
552.954
3999.78
538.046
3860.95
521.205
3724.36
504.989
3589.78
490.566
3456.73
479.134
3324.47
471.908
3192.13
469.591
3058.87
472.111
2924.04
478.657
2787.25
488.119
2648.28
499.754
2507.03
513.45
2363.48
529.164
2217.93
545.921
2071.55
560.205
1927.29
564.141
1790.36
547.632
1668.68
500.668
1566.31
438.381
1474.75
408.153
1373.71
449.508
1246.24
537.362
1104.67
557.229
985.546
432.772
911.888
231.229
888.012
43.0147
857.865
32.9731
876.177
-135.016
995.295
-540.194
1175.37
-874.578
1380.61
-1052.56
1611.08
-1170.99
1872.03
-1280.72
2159.44
-1376.7
2459.54
-1434.08
2752.24
-1429.35
3021.08
-1366.99
3266.76
-1298.05
3505.99
-1289.58
3767.53
-1412.88
4092.93
-1738.76
4523.77
-2284.79
5070.22
-2926.98
5701.22
-3434.07
6382.61
-3659.9
7069.74
-3456.3
7688.48
-2706.34
8132.45
-1429.12
8203.98
340.577
7896.72
1831.33
7409.57
2518.18
6877.4
2671.47
6365.83
2552.16
5908.14
2289.4
5527.46
1935.91
5241.41
1523.85
5053.42
1103.59
4947.61
735.947
4913.49
419.165
4919.19
203.904
4915.07
130.329
4902.52
62.7006
4934.06
-157.918
5073.59
-573.368
5350.34
-1051.82
5698.54
-1302.45
5951.22
-1032.35
5998.82
-413.437
5863.16
176.12
5648.07
426.969
482.941
1552.6
-539.17
1634.17
-451.682
1734.44
-439.023
1888.75
-562.868
2104.35
-792.002
2351.57
-994.116
2597.82
-1097.75
2824.95
-1105.17
3026.4
-1047.19
3204.25
-970.342
3364.5
-905.512
3512.71
-858.727
3652.16
-823.467
3783.9
-791.218
3907.95
-758.052
4024.43
-724.621
4134.17
-692.565
4238.53
-660.991
4338.63
-623.191
4434.03
-565.803
4520.96
-469.804
4590.18
-315.71
4626.27
-96.1903
4612.35
173.108
4546.37
421.294
4442.83
586.427
4318.42
667.564
4184.66
693.012
4047.56
690.056
3909.57
676.039
3771.46
659.322
3633.45
642.997
3495.64
628.385
3357.9
616.871
3219.91
609.908
3081.15
608.353
2941.11
612.156
2799.41
620.362
2655.93
631.609
2510.77
644.915
2364.23
660
2216.72
676.678
2068.9
693.745
1922.08
707.031
1779.12
707.105
1645.03
681.734
1528.12
617.589
1432.93
533.581
1350.64
490.459
1258.57
541.583
1134.66
661.279
988.287
703.609
860.359
560.716
782.299
309.301
770.244
55.0859
765.548
37.6783
805.309
-174.764
888.458
-623.341
996.447
-982.56
1140.07
-1196.18
1330.57
-1361.49
1565.66
-1515.81
1832.5
-1643.54
2110.58
-1712.16
2374.12
-1692.89
2602.67
-1595.53
2798.28
-1493.66
2988.29
-1479.6
3218.26
-1642.85
3530.54
-2051.04
3934.28
-2688.53
4400.27
-3392.97
4886.3
-3920.09
5379.67
-4153.27
5879.24
-3955.87
6363.06
-3190.16
6772.76
-1838.82
6894.57
218.771
6665.64
2060.26
6267.53
2916.28
5826.31
3112.7
5400.84
2977.63
5020.68
2669.56
4709.7
2246.89
4489.28
1744.28
4364.24
1228.62
4313.88
786.307
4332.41
400.636
4383.14
153.176
4393.2
120.268
4364.77
91.1361
4374.4
-167.558
4505.65
-704.618
4806.8
-1352.96
5203.61
-1699.27
5482.98
-1311.73
5503.13
-433.58
5297.9
381.348
4992.45
732.414
770.342
1512.46
-629.451
1606.22
-545.443
1733.73
-566.525
1914.58
-743.713
2138.94
-1016.36
2375.98
-1231.15
2602.56
-1324.32
2808.28
-1310.89
2989.54
-1228.44
3148.72
-1129.52
3291.45
-1048.25
3422.91
-990.175
3546.13
-946.686
3661.99
-907.073
3770.35
-866.409
3871.3
-825.565
3965.74
-787.003
4055.47
-750.714
4142.48
-710.195
4227.73
-651.046
4309.28
-551.354
4379.67
-386.095
4423.87
-140.383
4422.25
174.727
4368.95
474.604
4277.05
678.334
4162.88
781.73
4037.8
818.094
3907.64
820.22
3774.68
809.008
3639.57
794.434
3502.56
780.011
3363.88
767.069
3223.7
757.057
3082.04
751.574
2938.78
751.615
2793.77
757.177
2646.95
767.183
2498.58
779.987
2349.21
794.29
2199.62
809.593
2050.68
825.63
1903.24
841.196
1758.47
851.804
1618.83
846.746
1488.99
811.588
1377.98
728.61
1291.22
620.348
1219.73
561.964
1138.18
623.139
1018.49
780.983
867.256
854.846
730.822
697.167
649.275
390.863
653.88
50.5016
687.392
4.1757
730.825
-218.185
737.907
-630.419
770.611
-1015.26
878.628
-1304.2
1054.59
-1537.45
1280.27
-1741.49
1537.34
-1900.61
1802.72
-1977.54
2046.39
-1936.55
2242.5
-1791.65
2393.8
-1644.95
2543.66
-1629.46
2757.79
-1856.98
3069.48
-2362.73
3448.13
-3067.18
3839.1
-3783.93
4202.06
-4283.05
4531.5
-4482.71
4848.2
-4272.58
5171.14
-3513.11
5495.61
-2163.29
5619.26
95.1204
5444.39
2235.13
5127.7
3232.97
4774.71
3465.69
4431.64
3320.7
4123.28
2977.92
3875.49
2494.68
3715.55
1904.22
3651.04
1293.14
3652.05
785.293
3726.24
326.449
3830.73
48.6908
3853.72
97.2748
3800.66
144.192
3782.39
-149.286
3887.35
-809.583
4194.27
-1659.88
4628.34
-2133.34
4922.69
-1606.07
4904.86
-415.746
4631.8
654.402
4250.07
1114.14
1123.08
1482.91
-723.629
1594.75
-657.28
1744.72
-716.488
1935.25
-934.241
2151.02
-1232.12
2369.02
-1449.15
2574.87
-1530.17
2761.61
-1497.64
2925.62
-1392.45
3068.59
-1272.48
3195.68
-1175.33
3311.85
-1106.34
3420.1
-1054.93
3521.22
-1008.19
3614.97
-960.16
3701.39
-911.977
3781.41
-867.018
3857.05
-826.354
3930.88
-784.016
4004.9
-725.062
4078.87
-625.321
4147.52
-454.738
4197.16
-190.02
4205.97
165.919
4163.69
516.896
4081.73
760.292
3976.3
887.169
3858.85
935.541
3735.25
943.829
3607.63
936.635
3476.44
925.626
3341.76
914.697
3203.77
905.064
3062.75
898.076
2918.99
895.34
2772.71
897.904
2624.11
905.784
2473.56
917.733
2321.81
931.74
2170
946.106
2019.48
960.123
1871.48
973.634
1726.83
985.853
1586.24
992.404
1451.61
981.38
1327.29
935.914
1223.1
832.819
1145.31
698.14
1085.54
621.749
1015.96
692.723
899.12
897.84
736.655
1017.32
578.896
854.941
492.341
477.432
527.872
14.9883
595.17
-63.1143
594.778
-217.78
508.974
-544.612
503.974
-1010.25
608.39
-1408.61
782.113
-1711.17
1003.21
-1962.58
1254.98
-2152.38
1513.28
-2235.83
1742.78
-2166.05
1910.58
-1959.45
2018.76
-1753.14
2127.56
-1738.26
2319.83
-2049.25
2615.65
-2658.55
2952.02
-3403.55
3269.09
-4101
3541.07
-4555.03
3751.29
-4692.92
3912.07
-4433.36
4074.02
-3675.06
4290.26
-2379.54
4382.6
2.78444
4244.26
2373.47
4003.74
3473.49
3736.51
3732.92
3470.97
3586.24
3226.65
3222.25
3032.92
2688.4
2926.12
2011.02
2918.68
1300.57
2962.66
741.313
3106.54
182.565
3295.4
-140.165
3339.18
53.4913
3242.99
240.385
3161.49
-67.7891
3180.64
-828.724
3434.89
-1914.14
3819.62
-2518.07
4032.65
-1819.1
3926.69
-309.785
3597.94
983.152
3195.76
1516.31
1505.49
1459.31
-828.253
1591.2
-789.172
1754.64
-879.929
1941.24
-1120.83
2140.3
-1431.18
2338.44
-1647.28
2526.26
-1717.98
2697.17
-1668.54
2846.33
-1541.61
2974.74
-1400.89
3087.39
-1287.97
3189.28
-1208.23
3283.51
-1149.16
3370.83
-1095.5
3450.88
-1040.2
3523.6
-984.697
3589.96
-933.371
3652.17
-888.557
3713.2
-845.039
3775.76
-787.622
3840.85
-690.407
3905.21
-519.094
3957.2
-242.001
3974.01
149.115
3941.15
549.758
3867.91
833.539
3770.01
985.071
3659.07
1046.48
3541.13
1061.78
3418.36
1059.41
3291.08
1052.91
3159.17
1046.61
3022.66
1041.58
2881.8
1038.94
2737.01
1040.13
2588.78
1046.14
2437.68
1056.89
2284.58
1070.84
2130.86
1085.47
1978.35
1098.62
1828.99
1109.49
1684.23
1118.4
1544.55
1125.54
1410.08
1126.88
1281.95
1109.51
1163.38
1054.49
1065.15
931.066
995.911
767.385
949.579
668.098
898.791
743.517
794.732
1001.91
624.077
1187.98
440.914
1038.12
363.155
555.208
378.795
-0.628992
351.852
-36.1566
266.787
-132.699
178.18
-455.999
215.522
-1047.58
334.773
-1527.86
507.439
-1883.83
726.013
-2181.16
975.677
-2402.04
1229.31
-2489.47
1445.01
-2381.75
1582.03
-2096.47
1642.36
-1813.47
1705.48
-1801.37
1869.78
-2213.55
2138.37
-2927.13
2421.17
-3686.35
2662.86
-4342.7
2864.67
-4756.83
2997.31
-4825.56
3029.26
-4465.31
3036.34
-3682.14
3134.36
-2477.55
3175.09
-37.9462
3067.9
2480.66
2902.9
3638.49
2719.19
3916.62
2524.24
3781.19
2333.14
3413.35
2181.08
2840.46
2119.71
2072.39
2165.94
1254.34
2273.72
633.537
2503.69
-47.4066
2764.71
-401.19
2798.82
19.381
2612.21
427
2423.01
121.402
2339.24
-744.952
2479.98
-2054.88
2652.26
-2690.35
2656.87
-1823.71
2389.4
-42.3224
1985.84
1386.71
1700.82
1801.34
1825.44
1442.08
-948.866
1591.27
-938.351
1757.49
-1046.15
1931.14
-1294.48
2111.26
-1611.29
2291.65
-1827.68
2464.44
-1890.76
2621.85
-1825.94
2757.76
-1677.52
2872.73
-1515.86
2971.88
-1387.11
3060.42
-1296.76
3141.61
-1230.34
3216.12
-1170.01
3283.41
-1107.5
3343.24
-1044.52
3396.48
-986.61
3445.54
-937.618
3493.87
-893.359
3544.88
-838.63
3600.59
-746.109
3659.32
-577.816
3711.35
-294.03
3733.75
126.721
3708.47
575.044
3642.69
899.322
3551.4
1076.36
3446.13
1151.76
3333.03
1174.88
3214.4
1178.04
3090.57
1176.74
2961.28
1175.91
2826.4
1176.46
2686.13
1179.22
2540.91
1185.35
2391.46
1195.6
2238.73
1209.62
2084.18
1225.39
1929.94
1239.72
1778.58
1249.98
1632.54
1255.54
1493.23
1257.72
1360.63
1258.14
1234.02
1253.5
1112.7
1230.83
998.921
1168.29
908.054
1021.95
851.705
823.742
819.262
700.56
785.736
777.051
702.771
1084.89
542.579
1348.17
350.857
1229.85
189.021
717.06
-78.0729
266.496
-321.624
207.409
-278.297
-176.011
-176.883
-557.409
-65.2487
-1159.21
60.004
-1653.11
231.565
-2055.38
449.397
-2398.99
696.844
-2649.48
944.202
-2736.83
1142.74
-2580.28
1243.64
-2197.37
1251.96
-1821.78
1272.07
-1821.49
1411.49
-2352.97
1646.54
-3162.18
1867.74
-3907.54
2029.72
-4504.69
2166.46
-4893.57
2250.04
-4909.14
2187.9
-4403.18
2059.68
-3553.92
2025.05
-2442.93
1989.44
-2.33134
1917.8
2552.3
1830.49
3725.81
1728.1
4019.01
1596.43
3912.85
1446.83
3562.95
1324.79
2962.5
1299.43
2097.75
1405.84
1147.92
1635.99
403.384
1828.03
-239.444
1926.4
-499.553
1831.77
114.005
1542.27
716.499
1401.71
261.964
1366.78
-710.018
1304.06
-1992.16
1190.02
-2576.3
1245.86
-1879.55
1043.6
159.931
492.59
1937.72
237.908
2056.02
2171.94
1429.82
-1088.64
1590.36
-1098.89
1750.16
-1205.94
1906.47
-1450.78
2068.44
-1773.26
2233.66
-1992.9
2393.64
-2050.73
2539.05
-1971.36
2662.75
-1801.21
2765.21
-1618.31
2851.81
-1473.71
2928.07
-1373.01
2997.39
-1299.66
3060.36
-1232.98
3116.18
-1163.3
3164.25
-1092.59
3205.22
-1027.57
3241.49
-973.886
3276.93
-928.794
3315.79
-877.477
3361.18
-791.502
3413
-629.628
3463.38
-344.399
3489.53
100.571
3470.25
594.328
3410.81
958.774
3325.37
1161.8
3225.17
1251.97
3116.31
1283.74
3001.18
1293.18
2880.17
1297.76
2753.01
1303.07
2619.53
1309.94
2479.84
1318.91
2334.43
1330.77
2184.23
1345.81
2030.65
1363.22
1875.82
1380.23
1722.66
1392.87
1574.47
1398.19
1433.93
1396.09
1302.24
1389.42
1178.68
1381.71
1060.84
1371.35
945.892
1345.78
837.427
1276.76
757.205
1102.19
716.414
864.543
691.169
725.826
657.083
811.147
584.15
1157.84
441.276
1491.05
216.941
1454.2
-106.217
1040.23
-468.407
628.728
-586.135
325.156
-510.292
-251.84
-444.048
-623.645
-353.695
-1249.55
-224.281
-1782.53
-45.1627
-2234.49
173.484
-2617.64
416.075
-2892.07
653.06
-2973.81
829.741
-2756.96
889.833
-2257.46
847.369
-1779.32
836.824
-1810.94
957.01
-2473.16
1148.76
-3353.93
1300.19
-4058.98
1382.8
-4587.3
1448.5
-4959.27
1480.8
-4941.43
1380.62
-4303
1217.6
-3390.9
1026.68
-2252.02
834.694
189.656
797.776
2589.22
790.331
3733.25
764.413
4044.93
684.299
3992.97
560.665
3686.58
452.765
3070.4
484.46
2066.06
885.007
747.373
1261.07
27.3226
1052.15
-30.5342
981.567
-428.966
1017.61
77.963
770.762
963.348
688.376
344.349
296.049
-317.689
-411.836
-1284.28
-1105.67
-1882.47
-2342.11
-643.115
-3003.95
821.771
-2164.38
1098.15
-2152.96
2044.6
2417.15
1420.57
-1253.66
1585.3
-1263.63
1731.97
-1352.61
1869.66
-1588.46
2015.25
-1918.85
2167.25
-2144.89
2315.63
-2199.11
2449.81
-2105.53
2561.94
-1913.33
2652.63
-1709.01
2727.66
-1548.73
2792.79
-1438.14
2851.56
-1358.42
2904.41
-1285.82
2950.22
-1209.12
2988.03
-1130.39
3018.05
-1057.58
3042.48
-998.311
3065.38
-951.693
3091.72
-903.817
3125.82
-825.594
3169.19
-672.991
3216
-391.207
3244.1
72.482
3229.45
608.984
3175.38
1012.84
3095.2
1241.98
2999.65
1347.53
2894.6
1388.79
2782.42
1405.36
2663.59
1416.6
2537.95
1428.71
2405.38
1442.51
2266.02
1458.28
2120.45
1476.34
1969.88
1496.38
1816.28
1516.82
1662.51
1534
1512.28
1543.11
1369.35
1541.12
1236.5
1528.95
1114.57
1511.36
1001.43
1494.86
892.493
1480.3
784.149
1454.13
681.923
1379
611.821
1172.31
584.681
891.693
560.121
750.412
503.031
868.249
409.456
1251.43
259.507
1641.01
9.9649
1703.76
-288.901
1339.11
-547.601
887.453
-678.662
456.227
-636.73
-293.764
-586.135
-674.237
-532.078
-1303.6
-445.688
-1868.91
-302.638
-2377.54
-102.008
-2818.27
131.355
-3125.43
354.727
-3197.19
505.123
-2907.35
522.06
-2274.4
437.605
-1694.86
411.864
-1785.2
509.61
-2570.9
642.587
-3486.91
719.688
-4136.07
729.919
-4597.53
708.656
-4938.01
648.591
-4881.37
541.729
-4196.14
466.97
-3316.14
195.076
-1980.12
-168.492
553.222
-251.685
2672.41
-178.081
3659.64
-137.622
4004.47
-189.222
4044.56
-349.734
3847.09
-629.344
3350.01
-1153.78
2590.49
-2452.11
2045.7
-3220.55
795.763
-2823.78
-427.313
-2942.73
-310.007
-3157.72
292.947
-2605.07
410.703
-2748.18
487.457
-2576.51
-489.36
-2436.73
-1424.05
-2727.15
-1592.06
-2902.74
-467.52
-3078.65
997.682
-3678.66
1698.15
-4030.02
2395.96
2669.38
1414.88
-1432.8
1573.72
-1422.46
1703.46
-1482.35
1823.02
-1708.02
1953.71
-2049.53
2093.34
-2284.52
2230.48
-2336.25
2353.73
-2228.77
2454.8
-2014.39
2534.51
-1788.72
2599
-1613.21
2654.24
-1493.37
2703.85
-1408.03
2748.07
-1330.03
2785.38
-1246.43
2814.42
-1159.41
2834.91
-1078.07
2848.75
-1012.14
2859.99
-962.929
2874.15
-917.973
2896.6
-848.034
2930.37
-706.76
2971.73
-432.56
2999.7
44.5194
2988.17
620.518
2938.58
1062.44
2863.11
1317.45
2771.85
1438.8
2670.26
1490.38
2560.55
1515.07
2443.28
1533.88
2318.51
1553.48
2186.31
1574.73
2046.93
1597.67
1901.2
1622.07
1750.77
1646.82
1598.21
1669.39
1447.13
1685.09
1301.81
1688.44
1166.27
1676.66
1043.27
1651.96
932.83
1621.8
830.576
1597.12
730.76
1580.12
629.448
1555.45
531.384
1477.07
467.186
1236.52
453.672
905.219
420.969
783.145
307.063
982.169
147.055
1411.46
-36.4102
1824.48
-255.226
1922.59
-476.634
1560.53
-656.318
1067.16
-807.348
607.272
-790.23
-310.871
-746.488
-717.975
-698.884
-1351.2
-624.415
-1943.38
-513.308
-2488.64
-355.946
-2975.63
-153.456
-3327.92
48.1373
-3398.78
168.346
-3027.56
142.607
-2248.66
27.2304
-1579.48
-8.58467
-1749.39
52.0248
-2631.51
112.655
-3547.54
116.129
-4139.55
59.9743
-4541.38
-60.0883
-4817.94
-261.966
-4679.49
-508.888
-3949.22
-867.267
-2957.76
-1426.82
-1420.57
-1674.35
800.75
-1472.05
2470.11
-1300.42
3488.01
-1200.13
3904.18
-1208.8
4053.23
-1328.38
3966.67
-1529.11
3550.74
-1755.27
2816.65
-1764.16
2054.59
-2013.01
1044.61
-2508.52
68.1965
-2750.55
-67.9808
-2812.28
354.676
-2963.75
562.175
-3064.05
587.762
-3304.61
-248.801
-3700.81
-1027.86
-4223.37
-1069.49
-4610.62
-80.2776
-4848.77
1235.84
-5210.25
2059.63
-5434.32
2620.04
2830.18
1406.77
-1619.74
1554.41
-1570.1
1666.04
-1593.98
1768.2
-1810.17
1884.51
-2165.85
2011.79
-2411.78
2137.71
-2462.17
2250.37
-2341.43
2341.02
-2105.04
2410.62
-1858.32
2465.63
-1668.21
2512.25
-1539.99
2554.19
-1449.96
2591.34
-1367.18
2621.79
-1276.86
2643.6
-1181.23
2656
-1090.46
2660.43
-1016.57
2660.9
-963.391
2663.39
-920.461
2674.27
-858.904
2697.91
-730.397
2732.41
-467.051
2758.23
18.701
2748.16
630.597
2702
1108.61
2630.67
1388.78
2543.33
1526.15
2444.82
1588.89
2337.1
1622.8
2220.8
1650.18
2096.28
1678.02
1963.9
1707.11
1824.26
1737.31
1678.58
1767.76
1529.07
1796.34
1378.95
1819.51
1232.41
1831.63
1094.05
1826.81
968.034
1802.68
856.785
1763.22
758.469
1720.13
667.096
1688.5
577.351
1669.87
482.182
1650.63
382.62
1576.64
303.948
1315.21
233.941
975.238
90.2968
926.812
-104.972
1177.45
-273.342
1579.84
-414.986
1966.12
-543.742
2051.35
-679.054
1695.84
-805.094
1193.21
-935.992
738.178
-936.101
-310.756
-901.614
-752.46
-862.028
-1390.78
-797.914
-2007.5
-701.16
-2585.39
-574.083
-3102.71
-420.952
-3481.04
-266.689
-3553.05
-190.64
-3103.61
-272.81
-2166.49
-428.255
-1424.03
-476.154
-1701.49
-452.767
-2654.89
-462.623
-3537.68
-532.529
-4069.64
-653.969
-4419.94
-837.04
-4634.87
-1078.61
-4437.93
-1313.98
-3713.84
-1587.88
-2683.86
-2002.24
-1006.2
-2172.22
970.727
-2096.98
2394.87
-1915.65
3306.69
-1781.43
3769.96
-1735.85
4007.65
-1794.31
4025.13
-1934.87
3691.3
-2078.88
2960.66
-2156.43
2132.15
-2442.18
1330.36
-2965.14
591.158
-3367.39
334.27
-3571.08
558.369
-3753.34
744.432
-3875.71
710.128
-4204.18
79.6676
-4718.31
-513.723
-5312.92
-474.874
-5756.25
363.048
-5986.72
1466.31
-6187.84
2260.74
-6304.79
2736.99
2935.53
1394.9
-1807.74
1527.68
-1702.87
1620.94
-1687.24
1705.94
-1895.17
1807.71
-2267.61
1922.39
-2526.45
2037.16
-2576.94
2139.66
-2443.93
2220.54
-2185.91
2280.82
-1918.6
2327.28
-1714.66
2366.41
-1579.11
2402.02
-1485.57
2433.73
-1398.88
2459.07
-1302.2
2475.51
-1197.66
2481.51
-1096.46
2477.93
-1012.98
2468.56
-954.014
2459.84
-911.734
2459.21
-858.259
2472.34
-743.528
2498.96
-493.654
2520.9
-3.23541
2510.67
640.835
2466.84
1152.44
2399
1456.63
2315.13
1610.02
2219.27
1684.75
2113.01
1729.06
1997.09
1766.11
1872.23
1802.88
1739.31
1840.03
1599.41
1877.22
1454.33
1912.85
1306.92
1943.75
1160.99
1965.45
1020.99
1971.64
891.661
1956.15
777.108
1917.24
678.315
1862.02
591.711
1806.74
512.698
1767.52
434.718
1747.86
342.914
1742.44
221.672
1697.89
50.3063
1486.6
-166.154
1191.71
-375.681
1136.35
-544.558
1346.33
-668.01
1703.31
-746.12
2044.24
-801.624
2106.86
-878.113
1772.34
-961.443
1276.55
-1060.2
836.947
-1073.83
-297.116
-1049.09
-777.204
-1018.55
-1421.31
-966.544
-2059.5
-885.155
-2666.78
-775.224
-3212.64
-649.4
-3606.87
-546.386
-3656.06
-542.023
-3107.97
-688.795
-2019.72
-843.166
-1269.66
-869.3
-1675.35
-878.605
-2645.58
-939.867
-3476.42
-1044.04
-3965.46
-1188.93
-4275.05
-1399.04
-4424.76
-1662.04
-4174.92
-1930.69
-3445.2
-2256.92
-2357.63
-2626.3
-636.821
-2747.32
1091.74
-2673.1
2320.66
-2497.62
3131.2
-2351.03
3623.37
-2300.42
3957.04
-2353.14
4077.85
-2456.02
3794.19
-2570.15
3074.79
-2721.98
2283.97
-3004.12
1612.5
-3421.8
1008.84
-3825.05
737.517
-4107.8
841.12
-4326.25
962.89
-4506.77
890.638
-4867.99
440.895
-5401.95
20.2367
-5969.23
92.3995
-6386.2
780.027
-6607.58
1687.69
-6736.76
2389.92
-6806.42
2806.66
3013.16
1378.31
-1990.04
1494.16
-1818.72
1569.03
-1762.11
1636.66
-1962.79
1723.45
-2354.4
1825.24
-2628.23
1928.95
-2680.65
2021.73
-2536.71
2093.41
-2257.59
2145.01
-1970.19
2183.63
-1753.28
2216.12
-1611.6
2246.51
-1515.96
2274.15
-1426.52
2296.09
-1324.13
2309.09
-1210.65
2310.73
-1098.09
2301
-1003.25
2283.17
-936.179
2263.97
-892.532
2251.97
-846.244
2254.22
-745.775
2272.01
-511.433
2288.45
-19.673
2276.55
652.745
2233.98
1195.02
2168.91
1521.7
2087.97
1690.97
1994.21
1778.51
1888.83
1834.45
1772.68
1882.26
1647.06
1928.51
1513.48
1973.61
1373.7
2016.99
1230.25
2056.3
1086.6
2087.41
946.828
2105.22
815.414
2103.06
697.045
2074.52
594.674
2019.62
507.551
1949.15
434.262
1880.04
372.3
1829.49
306.393
1813.78
207.625
1841.22
50.4439
1855.08
-188.735
1725.79
-463.937
1466.92
-685.693
1358.12
-841.338
1501.98
-940.844
1802.82
-986.957
2090.35
-1009.85
2129.76
-1052.42
1814.91
-1106.34
1330.48
-1179.35
909.958
-1203.72
-272.739
-1188.26
-792.66
-1167.72
-1441.84
-1128.9
-2098.33
-1064.34
-2731.33
-974.249
-3302.73
-868.872
-3712.24
-781.801
-3743.13
-778.225
-3111.54
-899.014
-1898.93
-1039.68
-1128.99
-1112.56
-1602.48
-1193.97
-2564.18
-1320.69
-3349.7
-1480.38
-3805.77
-1678.33
-4077.1
-1931.64
-4171.45
-2213.57
-3892.99
-2496.26
-3162.52
-2834.98
-2018.91
-3157.43
-314.363
-3256.99
1191.29
-3209.34
2273.01
-3098.45
3020.32
-3017.27
3542.18
-2999.52
3939.3
-3017.27
4095.6
-3043.64
3820.55
-3126.86
3158.01
-3303.63
2460.75
-3562.76
1871.63
-3907.37
1353.45
-4268.77
1098.91
-4559.15
1131.5
-4792.68
1196.42
-5011.67
1109.62
-5359.62
788.848
-5849.33
509.94
-6360.33
603.406
-6744.61
1164.3
-6966.96
1910.04
-7088.59
2511.54
-7164.06
2882.13
3089.29
1356.62
-2162.26
1454.6
-1916.69
1510.97
-1818.48
1560.86
-2012.69
1632.11
-2425.65
1720.67
-2716.79
1813.54
-2773.51
1897.22
-2620.38
1960.35
-2320.72
2003.77
-2013.6
2035.03
-1784.54
2061.44
-1638.01
2087.4
-1541.91
2112.03
-1451.14
2131.94
-1344.03
2143.23
-1221.94
2142.54
-1097.39
2128.78
-989.483
2104.36
-911.752
2075.94
-864.1
2053.06
-823.357
2044.22
-736.92
2052.27
-519.482
2061.52
-28.9147
2046.41
667.865
2004
1237.43
1940.94
1584.77
1862.28
1769.63
1769.99
1870.81
1664.84
1939.61
1547.97
1999.13
1421.35
2055.13
1287.37
2107.59
1148.63
2155.74
1008.37
2196.57
870.442
2225.35
738.892
2236.78
617.997
2223.96
511.405
2181.12
420.294
2110.74
346.646
2022.8
294.139
1932.55
251.136
1872.5
181.106
1883.82
56.3692
1965.96
-130.652
2042.11
-384.057
1979.2
-651.653
1734.52
-865.261
1571.74
-1019.08
1655.8
-1116.23
1899.98
-1159.41
2133.54
-1174.79
2145.14
-1199.5
1839.63
-1235.92
1366.91
-1292
966.046
-1326.71
-238.022
-1319.84
-799.529
-1309.93
-1451.74
-1285.05
-2123.2
-1238.37
-2778.01
-1169.63
-3371.47
-1086.83
-3795.04
-1016.77
-3813.19
-1012.55
-3115.76
-1110.98
-1800.5
-1244.48
-995.477
-1353.33
-1493.63
-1488.18
-2429.32
-1668.03
-3169.85
-1878.51
-3595.3
-2127.81
-3827.8
-2424.43
-3874.84
-2732.69
-3584.73
-3031.91
-2863.3
-3370.27
-1680.56
-3651.28
-33.3476
-3756.52
1296.53
-3776.93
2293.43
-3760.77
3004.16
-3741.07
3522.47
-3709.65
3907.88
-3654.92
4040.87
-3620.24
3785.87
-3686.98
3224.75
-3852.72
2626.49
-4079.85
2098.75
-4378.15
1651.75
-4700.87
1421.63
-4980.6
1411.24
-5220.54
1436.36
-5462.45
1351.54
-5795.6
1122
-6229.18
943.522
-6679.82
1054.05
-7035.69
1520.17
-7261.01
2135.36
-7398.78
2649.31
-7494.64
2977.99
3170.71
1330.23
-2319.32
1409.49
-1995.95
1447.5
-1856.48
1479.29
-2044.48
1534.28
-2480.63
1609.47
-2791.98
1692.24
-2856.27
1767.85
-2696
1823.12
-2375.98
1858.62
-2049.1
1882.55
-1808.47
1903.02
-1658.47
1924.96
-1563.84
1947.34
-1473.52
1966.3
-1362.99
1977.35
-1232.98
1976.19
-1096.22
1960.59
-973.88
1931.72
-882.873
1895.69
-828.06
1862.76
-790.42
1842.81
-716.959
1840.34
-517.004
1840.62
-29.1891
1820.68
687.816
1777.3
1280.82
1715.43
1646.64
1638.33
1846.73
1546.79
1962.36
1441.25
2045.15
1323.3
2117.1
1195.81
2182.62
1062.22
2241.19
925.977
2291.99
790.865
2331.69
660.746
2355.47
539.388
2358.14
430.011
2333.34
334.354
2276.79
256.276
2188.82
204.069
2075.02
168.042
1968.59
110.116
1930.44
7.52923
1986.41
-135.116
2108.61
-319.669
2226.67
-543.068
2202.61
-776.267
1967.72
-981.197
1776.68
-1138.56
1813.17
-1241.5
2002.93
-1291.1
2183.14
-1307.71
2161.76
-1324.58
1856.5
-1352.02
1394.36
-1398.19
1012.22
-1442.85
-193.36
-1444.48
-797.901
-1445.86
-1450.36
-1435.8
-2133.26
-1408
-2805.81
-1361.72
-3417.75
-1302.47
-3854.28
-1249.68
-3865.98
-1243.19
-3122.25
-1317.23
-1726.46
-1440.65
-872.049
-1574.69
-1359.6
-1747.66
-2256.35
-1968.09
-2949.42
-2221.44
-3341.95
-2516.06
-3533.17
-2855.81
-3535.09
-3203.85
-3236.69
-3537.65
-2529.49
-3893.69
-1324.52
-4153.09
226.058
-4268.37
1411.81
-4335.51
2360.57
-4358.77
3027.42
-4337.96
3501.66
-4269.36
3839.28
-4180.31
3951.82
-4139.54
3745.1
-4201.81
3287.03
-4346.36
2771.04
-4549.99
2302.38
-4818.84
1920.6
-5113.25
1716.04
-5382.76
1680.75
-5626.66
1680.26
-5879.16
1604.03
-6197.29
1440.12
-6585.61
1331.84
-6983.42
1451.86
-7307.46
1844.21
-7526.61
2354.51
-7668.72
2791.42
-7768.17
3077.45
3249.01
1298.41
-2458.89
1359.51
-2057.05
1379.82
-1876.78
1392.85
-2057.5
1430.89
-2518.67
1493.34
-2854.42
1567.56
-2930.48
1636.51
-2764.95
1684.5
-2423.97
1711.87
-2076.45
1727.87
-1824.46
1741.84
-1672.43
1759.6
-1581.59
1780.04
-1493.95
1798.86
-1381.81
1810.97
-1245.09
1811.21
-1096.45
1796.1
-958.767
1765.14
-851.902
1723.31
-786.221
1681.24
-748.34
1650.2
-685.904
1636.46
-503.249
1625.97
-18.6952
1599.56
714.237
1554.08
1326.31
1492.57
1708.15
1416.24
1923.07
1324.71
2053.9
1218.28
2151.58
1099.19
2236.19
971.455
2310.36
839.574
2373.08
707.732
2423.84
579.871
2459.55
459.599
2475.75
349.826
2467.92
251.623
2431.55
166.151
2362.26
102.622
2252.36
60.3551
2117.29
3.08296
2025.87
-94.7848
2028.31
-217.586
2109.22
-354.184
2245.22
-508.207
2380.7
-682.42
2376.83
-879.71
2165.01
-1074.79
1971.77
-1233.23
1971.6
-1340.93
2110.64
-1396.58
2238.8
-1417.03
2182.21
-1432.78
1872.26
-1457.23
1418.82
-1498.32
1053.32
-1552.19
-139.483
-1562.93
-787.15
-1576.53
-1436.75
-1582.34
-2127.45
-1574.43
-2813.72
-1551.34
-3440.84
-1515.99
-3889.63
-1480.35
-3901.62
-1470.9
-3131.7
-1519.28
-1678.09
-1628.41
-762.908
-1777.15
-1210.86
-1973.52
-2059.98
-2219.99
-2702.96
-2503.33
-3058.6
-2830.19
-3206.31
-3203.18
-3162.1
-3591.67
-2848.21
-3968.84
-2152.32