/*--------------------------------*- C++ -*----------------------------------*\
| =========                 |                                                 |
| \\      /  F ield         | OpenFOAM: The Open Source CFD Toolbox           |
|  \\    /   O peration     | Version:  4.1                                   |
|   \\  /    A nd           | Web:      www.OpenFOAM.org                      |
|    \\/     M anipulation  |                                                 |
\*---------------------------------------------------------------------------*/
FoamFile
{
    version     2.0;
    format      ascii;
    class       volVectorField;
    location    "1000";
    object      U;
}
// * * * * * * * * * * * * * * * * * * * * * * * * * * * * * * * * * * * * * //

dimensions      [0 1 -1 0 0 0 0];

internalField   nonuniform List<vector> 
26785
(
(1.4281e-15 -0.0231292 12.8583)
(1.26948e-15 -0.0153493 13.2452)
(1.47125e-15 -0.0109459 13.4758)
(5.50025e-15 -0.0126231 13.6504)
(-5.64751e-16 -0.0199132 13.9205)
(2.44371e-15 -0.0274905 14.3691)
(-1.41584e-15 -0.0323152 14.9691)
(3.04707e-16 -0.0338707 15.6451)
(-5.96235e-15 -0.032493 16.3203)
(1.02669e-14 -0.0300319 16.9416)
(3.11214e-15 -0.0279998 17.4967)
(3.82747e-15 -0.0265871 18)
(3.27086e-15 -0.0254033 18.4653)
(2.79561e-15 -0.0241065 18.8954)
(2.64918e-15 -0.0226586 19.2875)
(2.77271e-15 -0.0212397 19.6411)
(2.9584e-15 -0.019981 19.9589)
(3.19441e-15 -0.0186569 20.2431)
(3.63742e-15 -0.0163755 20.4888)
(7.887e-15 -0.0115268 20.6761)
(2.95993e-15 -0.00230929 20.763)
(3.27728e-15 0.0115377 20.6957)
(8.58429e-15 0.0282285 20.4331)
(4.09658e-15 0.0457184 19.9563)
(7.67501e-15 0.0604534 19.2825)
(2.95014e-15 0.0696294 18.4748)
(3.82688e-15 0.0734969 17.6105)
(3.66284e-15 0.0738118 16.7462)
(7.97825e-15 0.0722243 15.9121)
(5.71263e-15 0.0697968 15.1198)
(3.3387e-15 0.0670723 14.3722)
(-1.08443e-14 0.0642992 13.6679)
(-7.48514e-15 0.0616339 13.0046)
(-1.23371e-14 0.0592411 12.3787)
(1.0004e-14 0.0572783 11.7851)
(-1.57494e-15 0.0558442 11.218)
(-1.92812e-15 0.0549531 10.6713)
(-5.99632e-15 0.0545394 10.1397)
(-9.22964e-15 0.0545017 9.61889)
(-1.44818e-14 0.0547754 9.10587)
(-1.89265e-14 0.0553699 8.5979)
(4.03818e-15 0.0563131 8.09206)
(-3.00949e-16 0.0575334 7.58551)
(4.24433e-16 0.0586733 7.07689)
(-2.5843e-14 0.0589014 6.57012)
(-1.37516e-14 0.0571911 6.0772)
(-4.4724e-14 0.0528976 5.61775)
(-4.50353e-14 0.0478234 5.20921)
(-5.19229e-14 0.0461118 4.8444)
(-6.3847e-14 0.0501292 4.48303)
(-7.93792e-14 0.0560538 4.08128)
(-4.26031e-14 0.0535167 3.65329)
(-5.06535e-14 0.0369722 3.2914)
(-5.1801e-14 0.0128262 3.09195)
(-5.01885e-14 -0.00891141 3.08101)
(-3.97603e-14 -0.023736 3.17911)
(-5.84288e-14 -0.047614 3.36273)
(-5.88599e-14 -0.0817482 3.73384)
(-3.51381e-14 -0.108326 4.32588)
(-6.81634e-15 -0.122218 5.05204)
(-2.25213e-14 -0.128758 5.83591)
(-2.26076e-14 -0.132115 6.65427)
(-1.92284e-14 -0.133923 7.50247)
(-1.51957e-14 -0.134276 8.37184)
(-2.7434e-14 -0.132554 9.24334)
(-2.25035e-14 -0.129153 10.0904)
(-2.12416e-14 -0.126867 10.897)
(-1.92725e-14 -0.129416 11.6754)
(-1.71285e-14 -0.141222 12.4748)
(-1.37688e-14 -0.168601 13.3951)
(-8.34912e-15 -0.217798 14.5839)
(-1.14754e-14 -0.283659 16.159)
(-5.88354e-15 -0.34339 18.1083)
(-3.22673e-15 -0.369618 20.2724)
(-1.08319e-15 -0.331246 22.3468)
(-3.39517e-15 -0.215074 23.945)
(-4.04502e-16 -0.0463626 24.7273)
(-1.21822e-15 0.130042 24.491)
(-8.81141e-16 0.255273 23.3512)
(-9.04152e-16 0.311698 21.7149)
(-1.16129e-15 0.322124 19.9478)
(1.06166e-15 0.307753 18.2405)
(-1.55795e-15 0.280026 16.6787)
(-1.44539e-15 0.244395 15.3069)
(-4.08548e-16 0.203984 14.1513)
(-6.22973e-16 0.162142 13.2263)
(1.05152e-15 0.122905 12.5256)
(1.42356e-15 0.0881554 12.0242)
(1.47868e-15 0.0614957 11.6859)
(-9.25611e-16 0.0443591 11.4573)
(-3.68343e-16 0.0284356 11.2945)
(-7.21248e-16 0.00283617 11.2154)
(-1.35955e-15 -0.0347372 11.2915)
(-2.18821e-15 -0.071762 11.5696)
(-3.03187e-15 -0.088756 12.0049)
(-4.55125e-15 -0.0699772 12.4435)
(-5.41024e-15 -0.0301887 12.7258)
(-5.8159e-15 0.00873006 12.7604)
(-6.62511e-15 0.0215037 12.6822)
(-7.37862e-15 0.0306734 12.445)
(1.55097e-15 -0.0592923 12.8267)
(6.46856e-15 -0.0389018 13.1935)
(1.95008e-17 -0.0265942 13.3928)
(-2.33137e-16 -0.0319303 13.5307)
(-3.20554e-15 -0.0555274 13.7922)
(1.12589e-14 -0.0830675 14.3073)
(-5.78774e-15 -0.104416 15.0578)
(3.91501e-15 -0.114876 15.9297)
(8.77553e-15 -0.113502 16.7975)
(9.12181e-16 -0.106144 17.5799)
(1.52132e-15 -0.0985998 18.2585)
(1.47315e-15 -0.0924749 18.8525)
(1.50088e-15 -0.0870524 19.3822)
(1.22187e-15 -0.0813491 19.8559)
(7.34343e-15 -0.0751222 20.2743)
(1.70245e-15 -0.0687315 20.6386)
(-5.47863e-15 -0.0623763 20.952)
(-1.50663e-15 -0.0552685 21.216)
(-1.02418e-15 -0.0449403 21.4263)
(-3.93242e-15 -0.0273284 21.5665)
(4.99957e-15 0.00204349 21.6029)
(-2.96742e-15 0.044331 21.4913)
(7.38674e-15 0.0956208 21.1861)
(2.37086e-15 0.149916 20.6525)
(2.52598e-15 0.195167 19.9102)
(5.5479e-15 0.222531 19.0312)
(8.01892e-16 0.233112 18.0999)
(1.75076e-15 0.232695 17.1761)
(2.08598e-15 0.226618 16.2898)
(6.88881e-15 0.218273 15.4512)
(-2.20608e-15 0.209346 14.6611)
(4.103e-15 0.200553 13.9166)
(2.68078e-15 0.192293 13.214)
(2.64895e-15 0.184976 12.5489)
(1.22741e-14 0.178991 11.9162)
(8.34441e-15 0.174565 11.3101)
(6.50047e-15 0.171686 10.7251)
(2.80108e-15 0.170131 10.1564)
(-1.14036e-15 0.169597 9.60063)
(-4.3598e-15 0.16991 9.05527)
(-7.72111e-15 0.171118 8.51804)
(-1.73917e-14 0.173304 7.9864)
(-9.27611e-16 0.176222 7.45797)
(-1.32946e-14 0.178746 6.93203)
(7.41337e-15 0.178364 6.41316)
(-2.58963e-15 0.17206 5.91372)
(-1.43774e-14 0.157944 5.45339)
(-3.85891e-14 0.141446 5.05006)
(-2.6786e-14 0.135053 4.69734)
(-3.62335e-14 0.145941 4.35445)
(-2.40901e-14 0.162892 3.97286)
(-5.40491e-14 0.155572 3.55712)
(-3.9876e-14 0.108405 3.19076)
(-4.13193e-14 0.040187 2.96438)
(-6.80885e-14 -0.0177261 2.91533)
(-1.35018e-14 -0.0461983 2.93621)
(-1.51874e-14 -0.100826 2.97035)
(-3.20327e-14 -0.194993 3.17312)
(-3.77944e-15 -0.274662 3.64131)
(3.44732e-14 -0.319873 4.27789)
(2.50264e-14 -0.346158 4.98864)
(1.43941e-14 -0.36666 5.74778)
(-1.5075e-14 -0.384243 6.54817)
(-2.16585e-14 -0.395181 7.3729)
(-1.56248e-14 -0.394423 8.19242)
(-2.07926e-14 -0.382434 8.97217)
(-1.82325e-14 -0.369553 9.69396)
(-1.47763e-14 -0.37216 10.3759)
(-2.38096e-15 -0.412309 11.079)
(-1.46116e-14 -0.513583 11.9135)
(-5.42531e-15 -0.682826 13.0179)
(-1.70485e-15 -0.882147 14.4778)
(5.93413e-15 -1.03512 16.253)
(1.35313e-14 -1.07739 18.1973)
(1.25484e-14 -0.947201 20.0676)
(1.51755e-14 -0.623212 21.5719)
(1.31921e-14 -0.159655 22.4518)
(1.10986e-14 0.351441 22.4621)
(1.18161e-14 0.72477 21.5644)
(5.67289e-15 0.892463 20.1318)
(3.99896e-15 0.922171 18.5428)
(2.43325e-15 0.878651 16.9929)
(-1.749e-15 0.796501 15.5694)
(-1.2616e-15 0.691662 14.3189)
(2.8931e-15 0.572992 13.2704)
(3.44503e-15 0.45041 12.441)
(2.47962e-15 0.336061 11.826)
(4.00992e-16 0.235493 11.4015)
(1.64885e-15 0.160624 11.1301)
(1.35477e-15 0.115758 10.9507)
(2.71923e-16 0.0736045 10.8143)
(-6.4839e-17 3.64039e-06 10.7452)
(-3.55304e-17 -0.111765 10.8251)
(-8.14575e-16 -0.223637 11.1107)
(-3.34919e-15 -0.275171 11.5584)
(-2.65819e-15 -0.216297 12.0009)
(-1.85709e-15 -0.0913353 12.2663)
(-2.0129e-15 0.0300553 12.2522)
(-1.3423e-15 0.0763766 12.13)
(-5.3686e-16 0.106366 11.7718)
(1.10969e-15 -0.0976769 12.7214)
(-3.24573e-15 -0.0639947 13.0451)
(7.5716e-15 -0.0424393 13.1931)
(-1.7257e-15 -0.0537751 13.3201)
(4.14608e-16 -0.102136 13.6901)
(1.26908e-14 -0.160703 14.4457)
(-2.59284e-15 -0.204723 15.4764)
(4.71216e-15 -0.222342 16.572)
(2.99201e-15 -0.214346 17.5726)
(2.01497e-15 -0.194531 18.4095)
(1.59184e-15 -0.175077 19.0894)
(1.54848e-15 -0.159503 19.6515)
(1.51049e-15 -0.1465 20.1289)
(1.29072e-15 -0.133999 20.5376)
(1.04136e-15 -0.121187 20.8829)
(4.39417e-15 -0.108368 21.1688)
(-4.76086e-15 -0.0957353 21.4006)
(4.25243e-15 -0.0820753 21.5831)
(-5.86131e-15 -0.0637072 21.7174)
(3.82348e-15 -0.0345761 21.7958)
(-9.00333e-16 0.0124906 21.7951)
(-1.07063e-14 0.0812052 21.6774)
(-2.99056e-15 0.167513 21.3899)
(7.80353e-16 0.260886 20.8781)
(-1.75618e-15 0.338694 20.1467)
(4.71732e-15 0.38511 19.2652)
(5.45441e-15 0.402299 18.3214)
(1.41063e-15 0.400599 17.379)
(8.01853e-16 0.389455 16.4699)
(-4.59764e-16 0.374792 15.6055)
(-1.47086e-15 0.359492 14.7868)
(-6.91579e-15 0.344693 14.011)
(7.76396e-15 0.33096 13.2748)
(3.72448e-15 0.318862 12.5741)
(-4.50836e-15 0.308946 11.9044)
(-1.79753e-15 0.301494 11.2607)
(-6.60923e-16 0.296427 10.6381)
(-7.26941e-16 0.293346 10.0329)
(-2.08233e-15 0.291759 9.44231)
(-3.66075e-15 0.291414 8.86446)
(-5.58169e-15 0.292411 8.29769)
(-6.22093e-15 0.294869 7.7402)
(-8.07786e-15 0.298328 7.1905)
(-7.23288e-15 0.300872 6.64884)
(-9.40435e-15 0.298351 6.12053)
(-1.22987e-14 0.285855 5.61819)
(-1.93031e-14 0.260163 5.16164)
(-2.46201e-14 0.230308 4.7697)
(-2.9902e-14 0.217566 4.43665)
(-2.97222e-14 0.235149 4.11976)
(-3.25481e-14 0.266007 3.76284)
(-2.97052e-14 0.259456 3.35771)
(-2.48644e-14 0.187536 2.98102)
(-2.06388e-14 0.0801004 2.72551)
(-9.81412e-15 -0.00670397 2.64811)
(-9.3345e-15 -0.0315289 2.62372)
(-4.43536e-14 -0.109832 2.57364)
(-8.59263e-15 -0.281529 2.74219)
(1.8312e-14 -0.433646 3.21848)
(-2.93885e-15 -0.517751 3.83692)
(-9.36163e-15 -0.564467 4.49812)
(-2.54916e-14 -0.599161 5.19233)
(-3.18647e-14 -0.625887 5.91828)
(-3.24261e-14 -0.638109 6.65834)
(-3.88234e-14 -0.628745 7.38144)
(-3.33907e-14 -0.600944 8.05302)
(-2.7603e-14 -0.574846 8.66039)
(-1.47446e-14 -0.578761 9.23086)
(-1.42268e-14 -0.6454 9.81858)
(-8.55856e-15 -0.805609 10.4987)
(1.72903e-15 -1.06692 11.3773)
(1.25521e-14 -1.37367 12.54)
(2.38502e-14 -1.61264 13.9725)
(2.39767e-14 -1.69346 15.5851)
(2.78632e-14 -1.52385 17.2078)
(2.57458e-14 -1.06291 18.6148)
(2.25523e-14 -0.371984 19.6068)
(1.83652e-14 0.451985 19.8812)
(1.4294e-14 1.08558 19.2369)
(1.07251e-14 1.37873 18.0191)
(7.32548e-15 1.43973 16.634)
(4.18275e-15 1.37756 15.2766)
(3.29911e-15 1.25027 14.0288)
(8.78316e-16 1.08401 12.9355)
(2.01222e-15 0.893111 12.0272)
(2.15237e-15 0.694597 11.3245)
(2.22005e-15 0.509626 10.824)
(1.83796e-15 0.34725 10.5033)
(1.39945e-15 0.231184 10.3231)
(-1.38507e-15 0.169337 10.2074)
(-2.64592e-15 0.110171 10.0994)
(-1.41595e-15 -0.00733031 10.0333)
(-1.94201e-15 -0.19413 10.1107)
(-2.90653e-15 -0.383264 10.406)
(-1.04742e-15 -0.467031 10.8752)
(6.86983e-16 -0.356014 11.3242)
(2.65799e-15 -0.130633 11.5548)
(4.50365e-15 0.0841785 11.4543)
(5.55965e-15 0.176642 11.251)
(5.80017e-15 0.222138 10.728)
(1.14945e-15 -0.132716 12.5528)
(-3.48189e-15 -0.0837226 12.8141)
(-1.01267e-15 -0.0560692 12.9301)
(1.94513e-15 -0.0847686 13.149)
(6.75564e-15 -0.172209 13.769)
(-2.45078e-15 -0.266675 14.808)
(4.98193e-15 -0.325785 16.0148)
(9.32085e-15 -0.338235 17.1519)
(2.91114e-15 -0.313606 18.1035)
(3.48133e-15 -0.275544 18.8481)
(3.11848e-15 -0.241609 19.4209)
(2.64122e-15 -0.215809 19.8737)
(1.62674e-15 -0.195293 20.2449)
(-3.13284e-15 -0.176408 20.5519)
(1.06987e-15 -0.157561 20.8005)
(6.53249e-16 -0.138999 20.9947)
(9.60202e-16 -0.121076 21.1405)
(-2.83241e-15 -0.102506 21.2449)
(6.41224e-15 -0.0788371 21.3137)
(1.4975e-15 -0.042361 21.3462)
(1.03612e-15 0.0168915 21.3278)
(-5.7435e-15 0.106295 21.2273)
(-2.59684e-15 0.22376 20.9934)
(-2.66928e-15 0.356142 20.5558)
(-1.72492e-15 0.469221 19.8953)
(-1.26504e-16 0.538174 19.0698)
(1.42498e-15 0.565155 18.1657)
(1.97921e-15 0.564789 17.2484)
(1.37317e-15 0.550678 16.3525)
(-4.0866e-16 0.531399 15.4912)
(8.64863e-16 0.511108 14.6671)
(-9.71463e-16 0.49141 13.879)
(3.39679e-15 0.473059 13.1249)
(7.97424e-16 0.45681 12.4023)
(1.23796e-15 0.443381 11.7078)
(-3.89709e-15 0.433128 11.0377)
(1.51239e-14 0.425917 10.3882)
(-6.60317e-15 0.421191 9.7564)
(-5.473e-15 0.418288 9.14024)
(1.01308e-14 0.416871 8.53855)
(-2.16362e-15 0.41706 7.95045)
(-1.61515e-14 0.418962 7.37518)
(2.14663e-15 0.421868 6.81239)
(3.9529e-15 0.423099 6.26315)
(-1.9463e-14 0.416957 5.73318)
(-1.95766e-14 0.396713 5.2348)
(-2.87362e-14 0.357687 4.78789)
(-4.60275e-14 0.312742 4.41275)
(-1.69244e-14 0.292421 4.10478)
(-1.70012e-14 0.316181 3.81901)
(-3.1737e-14 0.361721 3.48876)
(-1.33823e-14 0.358208 3.09099)
(-6.11401e-14 0.263563 2.69789)
(-1.7965e-14 0.116411 2.41034)
(2.56342e-14 -0.000608345 2.32346)
(2.27761e-14 -0.0180211 2.31716)
(2.81746e-14 -0.124417 2.3021)
(4.88098e-15 -0.379524 2.51569)
(-9.87071e-15 -0.590348 2.94827)
(-4.01713e-14 -0.693529 3.44649)
(-4.88765e-14 -0.749337 3.97492)
(-5.57409e-14 -0.795267 4.55425)
(-3.4168e-14 -0.832421 5.18549)
(-2.98074e-14 -0.848337 5.84286)
(-2.47095e-14 -0.831984 6.48381)
(-2.5374e-14 -0.789361 7.06347)
(-9.68629e-15 -0.751693 7.56773)
(-1.76094e-14 -0.755518 8.03002)
(-1.77379e-14 -0.837108 8.50231)
(-4.84313e-15 -1.03601 9.05446)
(9.578e-15 -1.37069 9.78836)
(1.91663e-14 -1.77211 10.7588)
(2.24389e-14 -2.09095 11.9113)
(2.64906e-14 -2.22061 13.1812)
(2.59922e-14 -2.04768 14.4782)
(2.51284e-14 -1.50661 15.6613)
(3.09248e-14 -0.648794 16.6484)
(2.12427e-14 0.465373 17.1368)
(1.87996e-14 1.36529 16.7389)
(1.30823e-14 1.78595 15.7292)
(9.27801e-15 1.8786 14.5488)
(6.59518e-15 1.80048 13.3896)
(4.96483e-15 1.6333 12.3243)
(3.11678e-15 1.41165 11.3945)
(2.66518e-15 1.1538 10.633)
(2.57715e-15 0.884013 10.0645)
(2.03695e-15 0.633098 9.68618)
(4.07804e-15 0.412605 9.47906)
(3.35408e-15 0.264969 9.40329)
(2.738e-15 0.202376 9.35508)
(-1.06213e-17 0.140108 9.26525)
(4.53169e-15 -0.0151579 9.18119)
(1.10921e-15 -0.278498 9.23667)
(2.44734e-15 -0.551656 9.54122)
(5.29708e-15 -0.670063 10.0565)
(5.9072e-15 -0.49188 10.547)
(6.87999e-15 -0.148217 10.7635)
(5.26324e-15 0.170431 10.5766)
(4.80195e-15 0.31597 10.2824)
(3.1262e-15 0.369862 9.588)
(9.80584e-16 -0.162946 12.3105)
(-2.41413e-15 -0.100734 12.5143)
(3.60387e-15 -0.0778518 12.687)
(6.67818e-17 -0.138118 13.1243)
(5.64781e-15 -0.268361 14.0118)
(1.06452e-14 -0.387864 15.1933)
(-2.05225e-15 -0.44764 16.3839)
(4.04814e-15 -0.445825 17.4144)
(3.16969e-15 -0.401495 18.2324)
(2.86445e-15 -0.345473 18.8467)
(1.98061e-15 -0.298438 19.3012)
(-3.48735e-15 -0.263843 19.6479)
(2.32708e-16 -0.237014 19.9234)
(-4.79569e-15 -0.212695 20.143)
(-9.16783e-18 -0.188577 20.3109)
(6.2882e-15 -0.164956 20.43)
(3.29521e-15 -0.142549 20.5059)
(3.63836e-15 -0.12028 20.5474)
(3.14761e-15 -0.0932648 20.5635)
(2.57602e-15 -0.0524456 20.5593)
(1.93251e-15 0.0147363 20.527)
(-2.55688e-15 0.119616 20.4421)
(1.26478e-15 0.263345 20.258)
(-3.7712e-17 0.43272 19.8955)
(5.03631e-17 0.582019 19.3143)
(3.44797e-16 0.675845 18.5595)
(4.17786e-15 0.715316 17.714)
(-3.19667e-15 0.718918 16.8431)
(2.56022e-15 0.704275 15.9818)
(1.22753e-15 0.682576 15.144)
(5.26952e-16 0.659223 14.3333)
(4.03882e-16 0.636261 13.5498)
(-7.68878e-16 0.614612 12.7928)
(4.38172e-15 0.595213 12.0615)
(1.18846e-14 0.578968 11.3542)
(3.78928e-15 0.566337 10.6686)
(1.70435e-15 0.557179 10.0024)
(1.55862e-16 0.550821 9.35349)
(2.16284e-16 0.546446 8.72087)
(5.7406e-18 0.543616 8.10419)
(-1.47813e-15 0.542425 7.5037)
(9.4162e-16 0.54293 6.91991)
(-2.96554e-15 0.544214 6.35357)
(-1.93286e-14 0.542945 5.80617)
(-1.66681e-14 0.532 5.28303)
(-2.03363e-14 0.502898 4.79551)
(-2.20366e-14 0.448974 4.36334)
(-2.42023e-14 0.386607 4.00907)
(-1.54965e-14 0.356583 3.73012)
(-2.49315e-14 0.387414 3.47975)
(-3.92346e-14 0.453897 3.17875)
(-3.56075e-14 0.461694 2.7866)
(-4.08381e-14 0.348609 2.37321)
(-2.52188e-14 0.158022 2.05545)
(-3.76545e-14 -0.00202237 1.97951)
(1.60783e-14 -0.0181848 2.02879)
(3.75652e-14 -0.158114 2.11559)
(1.19546e-14 -0.473232 2.32388)
(-8.23559e-15 -0.709618 2.58896)
(-5.03047e-14 -0.824677 2.91496)
(-5.13769e-14 -0.900501 3.33204)
(-6.79161e-14 -0.970084 3.84749)
(-3.48021e-14 -1.02484 4.43764)
(-2.40631e-14 -1.04546 5.05861)
(-2.34731e-14 -1.01779 5.65379)
(-1.91007e-14 -0.953169 6.16583)
(-2.62199e-14 -0.897951 6.57603)
(-8.74464e-15 -0.899743 6.93074)
(-8.98769e-15 -1.00096 7.31752)
(8.86716e-15 -1.24641 7.84068)
(1.09342e-14 -1.64824 8.56739)
(1.75292e-14 -2.11226 9.45046)
(1.56017e-14 -2.46794 10.3701)
(1.94223e-14 -2.62105 11.2898)
(2.20032e-14 -2.45758 12.199)
(1.6895e-14 -1.89223 13.0315)
(2.84485e-14 -0.952761 13.8474)
(2.20221e-14 0.396937 14.4196)
(2.28714e-14 1.55954 14.219)
(1.31051e-14 2.11028 13.3973)
(1.02171e-14 2.23696 12.4169)
(1.10994e-14 2.14738 11.4538)
(5.90595e-15 1.94678 10.5676)
(8.15312e-15 1.67609 9.79627)
(5.54046e-15 1.35586 9.17639)
(4.31932e-15 1.01868 8.73901)
(5.00532e-15 0.706521 8.48102)
(4.67218e-15 0.430226 8.39031)
(3.67954e-15 0.26044 8.42549)
(7.29364e-16 0.216019 8.44895)
(3.67615e-15 0.168272 8.36196)
(5.89583e-15 -0.0181972 8.23214)
(1.0419e-14 -0.366452 8.24918)
(1.10282e-14 -0.745963 8.57121)
(8.75528e-15 -0.908987 9.16634)
(4.75039e-15 -0.642227 9.74273)
(2.67219e-15 -0.144609 9.97115)
(1.72166e-15 0.300005 9.70549)
(1.16719e-15 0.503163 9.31476)
(-2.80876e-16 0.556962 8.42442)
(1.03061e-15 -0.193678 11.9716)
(-1.89252e-15 -0.12471 12.2121)
(4.68317e-15 -0.117986 12.5613)
(1.42245e-15 -0.213597 13.2417)
(6.18044e-15 -0.376578 14.2674)
(4.89568e-15 -0.506925 15.4201)
(-1.46227e-15 -0.559163 16.4866)
(-1.90558e-15 -0.541355 17.374)
(2.15901e-15 -0.478553 18.0624)
(4.60233e-15 -0.406335 18.5648)
(-1.42593e-15 -0.347647 18.9216)
(-5.66914e-15 -0.305307 19.1814)
(-5.12022e-16 -0.272963 19.378)
(-3.86015e-16 -0.243831 19.5253)
(4.41616e-16 -0.214926 19.6259)
(1.6019e-15 -0.186685 19.6817)
(2.39391e-15 -0.160345 19.6982)
(8.8372e-15 -0.135329 19.6848)
(4.13381e-15 -0.106667 19.6531)
(-1.41924e-15 -0.0642421 19.6132)
(-1.42067e-15 0.0069469 19.5642)
(1.98253e-15 0.122448 19.4886)
(-3.68678e-15 0.287722 19.3457)
(-4.86686e-15 0.491616 19.0508)
(2.66824e-15 0.677227 18.5425)
(-1.37207e-15 0.797119 17.854)
(-5.83475e-16 0.85069 17.0666)
(-9.57071e-17 0.860091 16.2456)
(-8.29086e-18 0.846876 15.426)
(3.11892e-15 0.824761 14.6214)
(-2.17693e-15 0.800304 13.8353)
(-8.24939e-16 0.775884 13.0679)
(-7.67289e-15 0.752502 12.3193)
(-5.89364e-15 0.731211 11.5898)
(-7.54572e-15 0.713078 10.8793)
(-1.63303e-15 0.698683 10.187)
(3.9802e-15 0.687923 9.51195)
(1.46337e-15 0.680052 8.85346)
(1.72928e-16 0.674102 8.21153)
(-7.0194e-16 0.669499 7.58717)
(1.38694e-14 0.666273 6.98213)
(-1.01096e-15 0.66446 6.39838)
(-2.39679e-14 0.663055 5.83752)
(-2.02014e-14 0.658253 5.30074)
(-3.36536e-14 0.641673 4.79196)
(-3.02253e-14 0.603003 4.32065)
(-2.78192e-14 0.532976 3.90656)
(-2.67362e-14 0.451789 3.57608)
(-2.36701e-14 0.41139 3.33011)
(-2.93031e-14 0.449695 3.12119)
(-3.04587e-14 0.539674 2.85489)
(-3.8801e-14 0.563674 2.46966)
(-3.71104e-14 0.434459 2.03722)
(-3.70569e-14 0.195056 1.68975)
(-3.51987e-14 -0.017239 1.62104)
(-8.12318e-15 -0.0389789 1.75741)
(1.61884e-14 -0.208961 1.98027)
(1.08143e-14 -0.529688 2.06279)
(-1.64379e-14 -0.771164 2.09581)
(-5.06796e-14 -0.921804 2.30227)
(-4.77536e-14 -1.03956 2.67884)
(-5.42088e-14 -1.14095 3.17746)
(-3.07159e-14 -1.21354 3.75395)
(-1.63555e-14 -1.23554 4.35895)
(-2.51402e-14 -1.19037 4.92891)
(-6.07465e-15 -1.095 5.3932)
(-9.2546e-15 -1.01545 5.72286)
(-1.29274e-14 -1.01964 5.97901)
(-7.25556e-15 -1.15944 6.30665)
(8.81189e-15 -1.46625 6.8376)
(5.52821e-15 -1.92038 7.57047)
(1.86065e-14 -2.40589 8.36041)
(1.99979e-14 -2.75253 9.07711)
(1.94439e-14 -2.89542 9.70688)
(7.60595e-15 -2.73603 10.2682)
(1.32373e-14 -2.1759 10.725)
(1.15132e-14 -1.2181 11.2768)
(1.91618e-14 0.296151 11.8139)
(2.07529e-14 1.69099 11.7441)
(1.50501e-14 2.35965 11.0822)
(9.6725e-15 2.51794 10.2957)
(6.2654e-15 2.42131 9.52396)
(8.15253e-15 2.195 8.8082)
(4.58135e-15 1.88267 8.18394)
(9.14495e-15 1.50456 7.6948)
(5.07296e-15 1.10254 7.38031)
(1.38169e-15 0.731897 7.23653)
(2.60822e-15 0.397161 7.2611)
(3.39442e-15 0.21464 7.41951)
(5.50529e-15 0.214866 7.5233)
(1.04086e-14 0.203218 7.43482)
(1.49847e-14 -0.0143971 7.24307)
(1.54811e-14 -0.464601 7.20183)
(9.61083e-15 -0.972939 7.49605)
(3.82702e-15 -1.19406 8.15454)
(1.95902e-15 -0.826676 8.79204)
(1.94937e-15 -0.142639 9.00681)
(2.76395e-15 0.468654 8.66145)
(3.4691e-15 0.762242 8.19243)
(3.38481e-15 0.793504 7.14412)
(1.96358e-15 -0.221438 11.6852)
(2.76976e-15 -0.158945 12.0281)
(8.15262e-17 -0.175151 12.5721)
(6.30559e-15 -0.300447 13.396)
(5.87663e-15 -0.483793 14.4111)
(9.07552e-15 -0.616596 15.4448)
(1.85146e-15 -0.659444 16.369)
(9.14371e-16 -0.627017 17.1311)
(5.79276e-15 -0.547503 17.7156)
(4.12119e-15 -0.46041 18.1281)
(-5.03996e-15 -0.390989 18.404)
(1.53004e-15 -0.341598 18.5899)
(1.9461e-15 -0.304316 18.7184)
(2.51766e-15 -0.270846 18.8027)
(2.1168e-15 -0.237531 18.8444)
(8.10864e-15 -0.204982 18.8448)
(4.7174e-15 -0.175042 18.8089)
(-2.52674e-15 -0.147821 18.7463)
(5.41065e-16 -0.118584 18.6702)
(-4.84947e-15 -0.0765728 18.5938)
(6.77381e-15 -0.00474606 18.5221)
(3.43353e-15 0.116661 18.4451)
(-4.03906e-15 0.298704 18.3314)
(-8.39834e-16 0.534343 18.097)
(-1.02228e-15 0.756436 17.6571)
(-1.95805e-16 0.903472 17.0302)
(4.0488e-15 0.97224 16.2962)
(3.29629e-15 0.988512 15.5221)
(-4.92107e-15 0.977898 14.7435)
(2.3865e-15 0.956706 13.9742)
(-4.00676e-15 0.932636 13.2173)
(-4.20352e-15 0.90832 12.4723)
(-4.32792e-15 0.884707 11.7395)
(-5.54557e-15 0.862849 11.0193)
(-6.20151e-15 0.843883 10.3128)
(-7.74818e-15 0.828474 9.62039)
(-9.87452e-16 0.816573 8.94265)
(-7.50653e-16 0.807367 8.28022)
(7.39322e-16 0.799713 7.63467)
(2.71079e-15 0.792863 7.00877)
(6.63036e-15 0.786785 6.40616)
(-1.91311e-14 0.781597 5.83028)
(-1.46368e-14 0.776428 5.28319)
(-3.13283e-14 0.767298 4.76464)
(-3.31106e-14 0.744723 4.27617)
(-3.23081e-14 0.696296 3.82549)
(-3.20502e-14 0.609002 3.43241)
(-4.35968e-14 0.506441 3.12664)
(-2.40173e-14 0.453065 2.91399)
(-4.91914e-15 0.499988 2.75222)
(1.82517e-14 0.620805 2.52668)
(5.95226e-15 0.668232 2.1379)
(2.59967e-14 0.525357 1.66471)
(-2.70504e-15 0.22466 1.24254)
(4.76484e-15 -0.0450557 1.20135)
(4.11284e-14 -0.0833183 1.49129)
(1.74557e-14 -0.214393 1.77403)
(-1.13874e-14 -0.481046 1.57445)
(-3.9774e-14 -0.768493 1.45517)
(-5.25188e-14 -0.999725 1.64988)
(-5.11261e-14 -1.17251 2.02874)
(-4.15213e-14 -1.30858 2.52338)
(-2.72268e-14 -1.40061 3.09473)
(-2.13501e-14 -1.42366 3.69539)
(-9.64517e-15 -1.35632 4.25385)
(-1.35826e-14 -1.22078 4.6824)
(-3.12852e-15 -1.10831 4.93766)
(-9.87208e-15 -1.11854 5.09364)
(-6.18832e-15 -1.31219 5.35747)
(-1.73688e-15 -1.68674 5.87231)
(-2.48119e-15 -2.17569 6.56966)
(1.96893e-14 -2.65619 7.23768)
(1.62086e-14 -2.97097 7.78978)
(1.88897e-14 -3.07912 8.22683)
(2.58413e-14 -2.91222 8.53162)
(2.35249e-14 -2.37014 8.63457)
(2.1655e-14 -1.43984 8.89134)
(1.04398e-14 0.183247 9.32561)
(1.49557e-14 1.7748 9.33752)
(1.22391e-14 2.54013 8.81196)
(7.02247e-15 2.72427 8.21477)
(9.20309e-15 2.62512 7.6278)
(9.79497e-15 2.38131 7.07059)
(5.94415e-15 2.03394 6.57813)
(9.15154e-15 1.60152 6.2045)
(5.61399e-15 1.13712 6.00273)
(4.93153e-15 0.713379 5.96256)
(5.93044e-15 0.326481 6.08813)
(6.8968e-15 0.143986 6.42516)
(1.27181e-14 0.221482 6.64242)
(1.40954e-14 0.282394 6.55701)
(1.90837e-14 0.0469935 6.26585)
(1.53099e-14 -0.508119 6.07139)
(6.26979e-15 -1.18072 6.22201)
(3.54793e-15 -1.50231 6.86209)
(2.80577e-15 -1.02359 7.35886)
(3.69153e-15 -0.157107 7.42019)
(4.26546e-15 0.602964 7.00095)
(6.11575e-15 0.989364 6.52578)
(6.87251e-15 1.04558 5.44343)
(-1.59096e-15 -0.258956 11.4184)
(3.93597e-15 -0.2083 11.9198)
(5.49892e-16 -0.244734 12.629)
(1.95668e-15 -0.389017 13.4877)
(3.76842e-15 -0.583342 14.4061)
(2.2239e-15 -0.715628 15.3011)
(2.2507e-15 -0.750283 16.1018)
(6.06377e-15 -0.705163 16.7653)
(7.76657e-16 -0.61016 17.2672)
(2.0954e-15 -0.508868 17.6046)
(2.64463e-15 -0.429195 17.81)
(3.28682e-15 -0.373193 17.93)
(3.53544e-15 -0.331425 17.9977)
(3.59685e-15 -0.294021 18.0257)
(3.30001e-15 -0.256627 18.0148)
(-1.22629e-15 -0.220051 17.9655)
(3.22097e-15 -0.186803 17.8823)
(2.59558e-15 -0.15779 17.7749)
(2.68122e-15 -0.128678 17.6578)
(2.31172e-15 -0.0883587 17.5465)
(2.02874e-15 -0.0182649 17.4497)
(1.72594e-15 0.105012 17.3633)
(-3.06277e-15 0.298624 17.2655)
(-5.36244e-15 0.562241 17.0797)
(-2.36125e-15 0.820466 16.7017)
(-1.25267e-15 0.995726 16.1326)
(3.26354e-15 1.08087 15.4486)
(-4.85439e-15 1.10496 14.718)
(1.36842e-16 1.09777 13.9777)
(-2.14382e-15 1.07836 13.2424)
(-2.42826e-15 1.05568 12.515)
(-1.61888e-15 1.03264 11.7949)
(-7.25196e-16 1.01006 11.0814)
(-6.0008e-16 0.988846 10.3751)
(-3.5333e-15 0.970101 9.67739)
(-4.54346e-15 0.954488 8.98975)
(1.8246e-15 0.941967 8.3139)
(1.2474e-16 0.931614 7.65208)
(1.48881e-15 0.922048 7.00777)
(5.35327e-15 0.912313 6.38601)
(1.26085e-14 0.902375 5.79252)
(5.63738e-15 0.892634 5.23207)
(-9.79964e-15 0.882736 4.70624)
(-3.32217e-14 0.868794 4.2124)
(-3.2369e-14 0.840101 3.74991)
(-3.12106e-14 0.782002 3.32307)
(-3.0111e-14 0.676967 2.94818)
(-2.52383e-14 0.551378 2.6619)
(-2.81804e-14 0.481958 2.4812)
(1.87201e-14 0.535669 2.37827)
(6.34133e-14 0.694269 2.22692)
(5.62056e-14 0.779685 1.86202)
(4.92445e-14 0.633678 1.33865)
(3.57439e-14 0.255311 0.844585)
(3.99957e-14 -0.101492 0.860255)
(4.44137e-14 -0.166281 1.02706)
(-7.44746e-14 -0.151268 1.02365)
(-7.25604e-14 -0.385513 0.684271)
(-8.16372e-14 -0.780082 0.726944)
(-7.80261e-14 -1.09026 0.990544)
(-6.17861e-14 -1.30431 1.37388)
(-3.69613e-14 -1.47212 1.86589)
(-1.70999e-14 -1.58628 2.43934)
(-1.49997e-14 -1.6118 3.04321)
(-1.32941e-14 -1.51771 3.59466)
(-1.33692e-14 -1.33101 3.98618)
(-1.15084e-14 -1.17466 4.15933)
(-1.01395e-14 -1.19226 4.20372)
(-1.63976e-14 -1.45157 4.39459)
(-8.23858e-15 -1.89723 4.87479)
(2.89656e-15 -2.40482 5.50789)
(1.80961e-14 -2.86413 6.0386)
(1.81738e-14 -3.14674 6.4386)
(2.43601e-14 -3.21038 6.75588)
(3.91589e-14 -3.00541 6.91151)
(5.28436e-14 -2.45683 6.67985)
(3.80037e-14 -1.59367 6.63024)
(2.7215e-14 0.074581 6.93273)
(1.29321e-14 1.8203 7.00425)
(9.42337e-15 2.65579 6.6026)
(1.07254e-14 2.85934 6.19267)
(8.50688e-15 2.76495 5.78078)
(3.54244e-15 2.51461 5.36488)
(8.50032e-15 2.14065 4.98397)
(7.96333e-15 1.6533 4.70622)
(9.69056e-15 1.1246 4.61499)
(9.45684e-15 0.653115 4.65943)
(1.17166e-14 0.156167 4.94557)
(1.25041e-14 -0.0423987 5.46347)
(1.17616e-14 0.158729 5.74229)
(1.5031e-14 0.348227 5.61536)
(1.36089e-14 0.145676 5.16433)
(9.31961e-15 -0.475258 4.7299)
(4.85454e-15 -1.36125 4.74015)
(3.62014e-15 -1.76197 5.15838)
(3.25543e-15 -1.13869 5.19544)
(1.31596e-15 -0.0956609 5.0008)
(3.2734e-15 0.791023 4.44845)
(4.43365e-15 1.21836 4.03252)
(6.94735e-15 1.26685 3.25925)
(-1.27929e-15 -0.305159 11.1907)
(3.31564e-15 -0.269707 11.8746)
(-8.53409e-16 -0.319615 12.6779)
(4.46002e-16 -0.47279 13.4812)
(4.78409e-15 -0.673351 14.2677)
(3.27855e-16 -0.805617 15.0358)
(-3.80535e-15 -0.834141 15.738)
(1.61001e-15 -0.777773 16.3237)
(1.09243e-15 -0.667813 16.7571)
(-2.42066e-15 -0.552531 17.029)
(3.24699e-15 -0.462856 17.171)
(2.52366e-15 -0.400598 17.2316)
(2.62778e-15 -0.354769 17.2447)
(3.06082e-15 -0.313801 17.2227)
(2.51661e-15 -0.272571 17.1652)
(1.63491e-15 -0.232128 17.0713)
(6.38176e-16 -0.195756 16.9445)
(5.67576e-15 -0.165317 16.7946)
(6.70271e-15 -0.137014 16.6376)
(-4.58632e-15 -0.0994995 16.4916)
(9.68969e-16 -0.0329476 16.369)
(2.16538e-15 0.0891575 16.2698)
(-1.22149e-15 0.289935 16.1796)
(1.68519e-14 0.577508 16.0313)
(-2.25626e-15 0.870756 15.7069)
(-2.56383e-15 1.07481 15.1901)
(3.50654e-15 1.17734 14.553)
(7.23229e-15 1.2102 13.8633)
(1.14259e-15 1.20719 13.1589)
(9.48826e-16 1.19022 12.4554)
(8.03373e-15 1.16963 11.7563)
(-1.82063e-15 1.1487 11.0606)
(5.37125e-15 1.1281 10.3674)
(-1.01176e-15 1.10855 9.67705)
(-8.37444e-15 1.09097 8.99091)
(-3.55093e-15 1.07592 8.31109)
(4.65046e-15 1.06327 7.64049)
(2.76327e-15 1.05187 6.9831)
(3.75866e-15 1.04002 6.34469)
(7.9391e-15 1.02656 5.73281)
(6.65382e-15 1.01157 5.15531)
(-8.34608e-16 0.996087 4.61759)
(-1.46907e-14 0.980648 4.11982)
(-3.22833e-14 0.961536 3.65707)
(-3.01612e-14 0.927198 3.22484)
(-2.86915e-14 0.861066 2.8192)
(-2.77002e-14 0.738049 2.45836)
(-2.91856e-14 0.585983 2.19985)
(-1.87057e-14 0.495209 2.06107)
(-1.98287e-15 0.550268 2.00629)
(1.98371e-14 0.751436 1.93726)
(4.62426e-14 0.894277 1.64211)
(5.10867e-14 0.762281 1.12615)
(5.25847e-14 0.318681 0.62644)
(1.69957e-14 -0.170907 0.0611232)
(-6.93374e-14 -0.106814 -0.590017)
(-2.51804e-13 -0.157441 -0.647354)
(-7.3795e-14 -0.449992 -0.343616)
(-7.33429e-14 -0.88284 0.0393323)
(-5.39242e-14 -1.21162 0.331663)
(-5.4845e-14 -1.44893 0.714298)
(-3.56409e-14 -1.64099 1.20969)
(-1.10924e-14 -1.77294 1.78636)
(-2.1701e-14 -1.79863 2.39124)
(-1.6021e-15 -1.67224 2.93201)
(-1.79709e-14 -1.42242 3.27876)
(-1.50892e-14 -1.21077 3.35835)
(-2.88635e-14 -1.23881 3.28835)
(-2.21894e-14 -1.57676 3.41937)
(-1.00135e-14 -2.09356 3.86282)
(2.99352e-15 -2.60152 4.40894)
(1.50266e-14 -3.02567 4.79504)
(1.54836e-14 -3.29234 5.02992)
(2.48835e-14 -3.31882 5.25729)
(4.92733e-14 -3.01172 5.37129)
(3.1484e-14 -2.40336 4.86552)
(2.78558e-14 -1.63682 4.49653)
(2.30509e-14 0.00112175 4.63221)
(1.61643e-15 1.83412 4.75415)
(6.57565e-15 2.70799 4.46868)
(1.01639e-14 2.92549 4.24409)
(6.90853e-15 2.84535 3.99515)
(5.4208e-15 2.6015 3.70363)
(9.7477e-15 2.2098 3.4111)
(1.14111e-14 1.66967 3.22118)
(7.63291e-15 1.07661 3.22408)
(7.22256e-15 0.527168 3.38152)
(6.64455e-15 -0.0620323 3.97781)
(7.23699e-15 -0.219993 4.12916)
(8.80824e-15 0.134017 4.19595)
(1.06576e-14 0.482475 3.93203)
(1.71596e-14 0.281528 3.41779)
(1.27037e-14 -0.365085 3.20542)
(5.46988e-15 -1.38998 3.10055)
(1.46009e-15 -1.84354 2.92116)
(4.64192e-16 -1.33927 2.55612)
(-5.79051e-16 -0.271351 2.93323)
(1.76914e-15 0.838617 2.22994)
(1.12109e-15 1.22806 1.73724)
(6.46811e-15 1.39159 1.09677)
(1.70789e-15 -0.362048 11.009)
(1.98888e-15 -0.341096 11.8622)
(2.38896e-15 -0.394429 12.6784)
(2.15357e-15 -0.548601 13.3715)
(4.18334e-15 -0.754238 14.0232)
(1.44013e-16 -0.888498 14.6852)
(5.20317e-15 -0.912829 15.3089)
(6.63651e-17 -0.846127 15.8304)
(6.73784e-16 -0.721334 16.2043)
(1.03235e-15 -0.592075 16.4173)
(-3.52087e-15 -0.492575 16.5024)
(-3.9634e-15 -0.424381 16.5101)
(4.0828e-16 -0.374884 16.4755)
(-4.31718e-15 -0.330656 16.4106)
(2.87915e-16 -0.285702 16.3137)
(-1.31402e-15 -0.24131 16.1817)
(-2.729e-15 -0.201657 16.0165)
(1.93501e-15 -0.169808 15.827)
(-3.41957e-15 -0.142776 15.6301)
(-2.70961e-15 -0.109146 15.4471)
(-1.96908e-15 -0.0479662 15.2948)