/*--------------------------------*- C++ -*----------------------------------*\
| =========                 |                                                 |
| \\      /  F ield         | OpenFOAM: The Open Source CFD Toolbox           |
|  \\    /   O peration     | Version:  4.1                                   |
|   \\  /    A nd           | Web:      www.OpenFOAM.org                      |
|    \\/     M anipulation  |                                                 |
\*---------------------------------------------------------------------------*/
FoamFile
{
    version     2.0;
    format      ascii;
    class       volScalarField;
    location    "1100";
    object      epsilon;
}
// * * * * * * * * * * * * * * * * * * * * * * * * * * * * * * * * * * * * * //

dimensions      [0 2 -3 0 0 0 0];

internalField   nonuniform List<scalar> 
6820
(
115.949
152.042
190.661
230.213
269.213
306.364
340.623
371.268
397.899
420.4
438.869
453.554
464.803
473.009
478.58
481.91
483.37
483.292
481.971
479.663
476.587
472.927
468.838
464.447
459.86
455.162
450.422
445.696
441.025
436.448
431.982
427.735
425.107
9.48476
17.5528
23.8082
29.343
34.5615
39.5638
44.3524
48.9031
53.1856
57.1731
60.8487
64.2073
67.2547
70.0051
72.4792
74.7011
76.6969
78.4928
80.114
81.5839
82.9237
84.153
85.2887
86.3455
87.3358
88.2698
89.1561
90.0017
90.8114
91.5917
92.3416
93.0696
93.7681
4.14146
5.59602
6.98297
8.20862
9.27788
10.2173
11.0506
11.7953
12.4652
13.0716
13.6233
14.1277
14.5907
15.0172
15.4112
15.7762
16.1152
16.4306
16.7248
16.9994
17.258
17.5082
17.7522
17.9906
18.224
18.453
18.6778
18.8989
19.1166
19.3311
19.5426
19.7517
19.9563
3.60121
3.91796
4.33109
4.75787
5.16049
5.52671
5.85474
6.14666
6.40579
6.6357
6.83984
7.02136
7.18307
7.32748
7.45674
7.57272
7.67703
7.77107
7.85602
7.93291
8.00259
8.06661
8.12605
8.18167
8.23408
8.28376
8.33112
8.37649
8.42017
8.46238
8.50337
8.54328
8.58245
3.52798
3.56982
3.67476
3.81744
3.97488
4.1328
4.28383
4.42458
4.55377
4.67122
4.77737
4.87291
4.95865
5.03543
5.10409
5.1654
5.22009
5.26883
5.31223
5.35082
5.38509
5.41551
5.44254
5.46658
5.48801
5.50713
5.52424
5.53957
5.55335
5.56576
5.57697
5.58711
5.5964
3.5197
3.49572
3.49766
3.52374
3.56745
3.62175
3.681
3.74133
3.80034
3.85661
3.90933
3.95814
4.00291
4.04368
4.08059
4.11385
4.14366
4.17029
4.19396
4.21492
4.23339
4.24958
4.26371
4.27597
4.28654
4.29559
4.30327
4.30973
4.31508
4.31945
4.32294
4.32564
4.32766
3.51928
3.48173
3.4529
3.43487
3.42775
3.42982
3.4388
3.45249
3.46904
3.48707
3.50557
3.52383
3.54138
3.55792
3.57325
3.58728
3.59995
3.61129
3.6213
3.63006
3.63761
3.64407
3.64949
3.65395
3.65752
3.66027
3.66225
3.66354
3.6642
3.66428
3.66383
3.66292
3.66159
3.51938
3.47956
3.44297
3.41081
3.38393
3.36257
3.34634
3.33451
3.32623
3.32072
3.31725
3.31524
3.31422
3.31382
3.31376
3.31382
3.31384
3.31373
3.31338
3.31277
3.31185
3.31061
3.30906
3.30718
3.30501
3.30253
3.29978
3.29677
3.29352
3.29004
3.28636
3.28249
3.27846
3.51942
3.47931
3.44106
3.40504
3.37162
3.34118
3.31388
3.28963
3.26823
3.24937
3.23274
3.218
3.20484
3.19299
3.1822
3.17226
3.16303
3.15434
3.1461
3.13822
3.13062
3.12325
3.11606
3.10902
3.10209
3.09526
3.08851
3.08183
3.07521
3.06865
3.06213
3.05566
3.04923
3.51943
3.47931
3.44074
3.4038
3.36856
3.33518
3.30378
3.27441
3.24705
3.22164
3.19808
3.17623
3.15594
3.13705
3.11941
3.10289
3.08735
3.07269
3.0588
3.04559
3.03299
3.02092
3.00935
2.9982
2.98745
2.97705
2.96698
2.9572
2.94769
2.93844
2.92943
2.92063
2.91204
3.51944
3.47931
3.44068
3.40355
3.36786
3.33364
3.30091
3.26968
3.23994
3.2117
3.18491
3.15952
3.13547
3.1127
3.09111
3.07063
3.05118
3.03267
3.01505
2.99824
2.98217
2.96679
2.95204
2.93788
2.92427
2.91116
2.89853
2.88633
2.87454
2.86314
2.85209
2.84139
2.83101
3.51944
3.47931
3.44066
3.40348
3.3677
3.33326
3.30016
3.26835
3.23781
3.20852
3.18044
3.15355
3.12781
3.10317
3.0796
3.05704
3.03545
3.01477
2.99495
2.97596
2.95773
2.94023
2.92341
2.90724
2.89167
2.87667
2.86221
2.84827
2.8348
2.82179
2.80921
2.79703
2.78524
3.51944
3.47931
3.44064
3.40345
3.36764
3.33315
3.29995
3.26797
3.23718
3.20753
3.17899
3.15152
3.12508
3.09964
3.07516
3.05161
3.02896
3.00716
2.98618
2.96598
2.94653
2.9278
2.90975
2.89234
2.87556
2.85936
2.84373
2.82863
2.81404
2.79993
2.78629
2.77309
2.76031
3.51944
3.4793
3.44063
3.40343
3.36761
3.3331
3.29987
3.26785
3.23698
3.20723
3.17853
3.15087
3.12418
3.09844
3.07362
3.04966
3.02655
3.00426
2.98274
2.96197
2.94191
2.92255
2.90385
2.88578
2.86832
2.85145
2.83513
2.81935
2.80408
2.78931
2.775
2.76115
2.74773
3.51944
3.4793
3.44063
3.40341
3.36758
3.33307
3.29982
3.26778
3.23689
3.2071
3.17836
3.15063
3.12386
3.09801
3.07305
3.04894
3.02564
3.00313
2.98138
2.96035
2.94002
2.92035
2.90133
2.88294
2.86513
2.8479
2.83122
2.81507
2.79942
2.78427
2.76959
2.75535
2.74156
3.51944
3.4793
3.44062
3.4034
3.36756
3.33304
3.29979
3.26774
3.23684
3.20703
3.17827
3.15051
3.12371
3.09783
3.07282
3.04865
3.02529
3.00271
2.98087
2.95974
2.93929
2.91951
2.90035
2.88181
2.86385
2.84646
2.82961
2.81328
2.79745
2.78211
2.76723
2.75281
2.73881
3.51944
3.4793
3.44061
3.40339
3.36754
3.33302
3.29976
3.2677
3.23679
3.20698
3.17821
3.15044
3.12362
3.09772
3.07269
3.0485
3.02512
3.0025
2.98062
2.95945
2.93896
2.91912
2.89991
2.8813
2.86327
2.84581
2.82887
2.81246
2.79655
2.78111
2.76614
2.75161
2.73751
3.51944
3.47929
3.44061
3.40338
3.36753
3.333
3.29974
3.26767
3.23675
3.20693
3.17816
3.15038
3.12355
3.09764
3.07261
3.0484
3.02501
3.00237
2.98048
2.95929
2.93878
2.91892
2.89969
2.88106
2.863
2.84551
2.82854
2.8121
2.79615
2.78067
2.76566
2.75109
2.73695
3.51944
3.47929
3.44061
3.40337
3.36752
3.33299
3.29972
3.26765
3.23672
3.2069
3.17811
3.15033
3.1235
3.09758
3.07253
3.04832
3.02492
3.00228
2.98037
2.95917
2.93865
2.91878
2.89954
2.88089
2.86282
2.84531
2.82833
2.81187
2.7959
2.7804
2.76537
2.75078
2.73661
3.51944
3.47929
3.44061
3.40337
3.36752
3.33298
3.2997
3.26763
3.2367
3.20686
3.17807
3.15028
3.12345
3.09752
3.07247
3.04826
3.02484
3.00219
2.98028
2.95908
2.93855
2.91867
2.89942
2.88077
2.86269
2.84517
2.82818
2.81171
2.79573
2.78023
2.76519
2.75059
2.73641
3.51944
3.47929
3.4406
3.40337
3.36751
3.33297
3.29969
3.26761
3.23668
3.20684
3.17804
3.15025
3.1234
3.09747
3.07242
3.0482
3.02478
3.00212
2.98021
2.959
2.93846
2.91858
2.89932
2.88066
2.86258
2.84505
2.82806
2.81158
2.79559
2.78009
2.76504
2.75043
2.73625
3.51944
3.47929
3.4406
3.40336
3.36751
3.33296
3.29968
3.2676
3.23666
3.20682
3.17802
3.15022
3.12337
3.09743
3.07237
3.04815
3.02472
3.00206
2.98014
2.95892
2.93839
2.9185
2.89923
2.88057
2.86248
2.84495
2.82795
2.81147
2.79548
2.77997
2.76491
2.7503
2.73611
3.51944
3.47929
3.4406
3.40336
3.3675
3.33296
3.29967
3.26759
3.23665
3.2068
3.178
3.15019
3.12334
3.0974
3.07233
3.0481
3.02467
3.00201
2.98008
2.95886
2.93832
2.91843
2.89916
2.88049
2.8624
2.84487
2.82786
2.81138
2.79538
2.77986
2.76481
2.75019
2.736
3.51944
3.47929
3.4406
3.40336
3.3675
3.33295
3.29967
3.26758
3.23664
3.20678
3.17798
3.15017
3.12331
3.09737
3.0723
3.04807
3.02463
3.00197
2.98004
2.95881
2.93827
2.91837
2.8991
2.88043
2.86233
2.84479
2.82778
2.81129
2.79529
2.77977
2.76471
2.75009
2.7359
3.51944
3.47929
3.4406
3.40336
3.3675
3.33295
3.29966
3.26757
3.23663
3.20678
3.17797
3.15016
3.1233
3.09735
3.07228
3.04804
3.02461
3.00194
2.98001
2.95878
2.93823
2.91833
2.89906
2.88038
2.86228
2.84474
2.82773
2.81124
2.79524
2.77972
2.76465
2.75003
2.73583
3.51944
3.47929
3.4406
3.40336
3.3675
3.33295
3.29966
3.26757
3.23662
3.20677
3.17796
3.15015
3.12329
3.09734
3.07227
3.04803
3.02459
3.00192
2.97998
2.95875
2.9382
2.9183
2.89902
2.88034
2.86224
2.84469
2.82768
2.81118
2.79518
2.77965
2.76459
2.74996
2.73576
3.51944
3.47929
3.4406
3.40336
3.3675
3.33295
3.29966
3.26757
3.23662
3.20677
3.17796
3.15014
3.12328
3.09733
3.07226
3.04802
3.02458
3.00191
2.97998
2.95875
2.93819
2.91829
2.89902
2.88034
2.86224
2.84469
2.82768
2.81119
2.79518
2.77966
2.76459
2.74996
2.73577
3.51944
3.47929
3.4406
3.40336
3.3675
3.33295
3.29966
3.26757
3.23662
3.20677
3.17796
3.15014
3.12328
3.09733
3.07226
3.04801
3.02457
3.0019
2.97996
2.95873
2.93818
2.91827
2.89899
2.88031
2.86221
2.84466
2.82764
2.81114
2.79514
2.77961
2.76454
2.74991
2.73571
3.51944
3.47929
3.4406
3.40336
3.3675
3.33295
3.29966
3.26757
3.23663
3.20678
3.17797
3.15016
3.1233
3.09735
3.07228
3.04804
3.02461
3.00194
2.98001
2.95878
2.93823
2.91833
2.89906
2.88038
2.86228
2.84474
2.82773
2.81123
2.79523
2.77971
2.76464
2.75001
2.73581
3.51944
3.47929
3.4406
3.40336
3.3675
3.33296
3.29967
3.26758
3.23663
3.20678
3.17797
3.15016
3.1233
3.09735
3.07227
3.04803
3.02459
3.00192
2.97999
2.95875
2.9382
2.9183
2.89902
2.88034
2.86224
2.8447
2.82769
2.81119
2.79519
2.77967
2.76461
2.74998
2.73579
3.51944
3.47929
3.4406
3.40336
3.3675
3.33296
3.29968
3.26759
3.23666
3.20681
3.17802
3.15022
3.12337
3.09744
3.07238
3.04815
3.02473
3.00207
2.98015
2.95894
2.9384
2.91852
2.89925
2.88059
2.86251
2.84498
2.82799
2.81151
2.79553
2.78002
2.76498
2.75037
2.7362
3.51944
3.47929
3.4406
3.40337
3.36751
3.33297
3.29968
3.2676
3.23666
3.20681
3.178
3.1502
3.12335
3.09742
3.07236
3.04814
3.02472
3.00208
2.98018
2.95898
2.93847
2.91861
2.89938
2.88075
2.86271
2.84522
2.82827
2.81184
2.79591
2.78046
2.76547
2.75093
2.73681
3.51944
3.47929
3.44061
3.40337
3.36753
3.333
3.29975
3.26771
3.23682
3.20703
3.17829
3.15055
3.12378
3.09793
3.07296
3.04883
3.02551
3.00298
2.98118
2.96011
2.93972
2.92
2.9009
2.88242
2.86453
2.8472
2.83042
2.81415
2.79839
2.78311
2.7683
2.75394
2.74
3.51944
3.47929
3.44061
3.40338
3.36754
3.33305
3.29985
3.26787
3.23707
3.2074
3.1788
3.15124
3.12468
3.09906
3.07436
3.05054
3.02756
3.00539
2.98399
2.96333
2.94338
2.92411
2.9055
2.88751
2.87013
2.85332
2.83707
2.82135
2.80613
2.79141
2.77715
2.76335
2.74997
3.51943
3.4793
3.44066
3.40356
3.36794
3.33374
3.30092
3.26945
3.23927
3.21034
3.18261
3.15603
3.13055
3.10613
3.08271
3.06025
3.03869
3.018
2.99812
2.97902
2.96065
2.94298
2.92596
2.90957
2.89378
2.87855
2.86385
2.84966
2.83596
2.82272
2.80992
2.79753
2.78555
3.51942
3.47942
3.4412
3.4049
3.37061
3.33828
3.30787
3.27931
3.25251
3.22735
3.20374
3.18153
3.16063
3.14093
3.12231
3.1047
3.08799
3.07211
3.05699
3.04257
3.02878
3.01558
3.00292
2.99077
2.97909
2.96783
2.95698
2.94651
2.93639
2.9266
2.91712
2.90793
2.89902
3.5196
3.48203
3.4494
3.42177
3.39875
3.37983
3.36442
3.35191
3.34178
3.33354
3.32681
3.32126
3.31662
3.31268
3.30926
3.30623
3.30346
3.30087
3.29841
3.296
3.29362
3.29123
3.28881
3.28634
3.28382
3.28124
3.27859
3.27587
3.27309
3.27024
3.26733
3.26436
3.26135
3.53049
3.53942
3.57109
3.61695
3.67052
3.72753
3.78534
3.84241
3.89782
3.951
4.00161
4.0495
4.09463
4.13704
4.17681
4.21406
4.24892
4.28151
4.31198
4.34045
4.36707
4.39194
4.41519
4.43694
4.45727
4.4763
4.49411
4.51078
4.52639
4.54103
4.55475
4.56763
4.57976
4.00122
4.78106
5.43755
6.00229
6.50073
6.94822
7.35501
7.72858
8.07457
8.39729
8.70007
8.9856
9.256
9.51301
9.75807
9.99236
10.2169
10.4324
10.6398
10.8395
11.0321
11.2181
11.3978
11.5716
11.7399
11.9029
12.0609
12.2141
12.3627
12.507
12.6471
12.7832
12.9159
31.176
33.6247
36.0474
38.4445
40.8147
43.1561
45.4659
47.7407
49.9772
52.1722
54.323
56.4269
58.4817
60.4855
62.4367
64.3341
66.1767
67.964
69.6956
71.3714
72.9915
74.5563
76.0663
77.5223
78.9251
80.2756
81.575
82.8243
84.0249
85.1779
86.2848
87.3474
88.3744
437.055
505.771
598.187
699.845
791.761
861.344
904.418
922.594
920.836
905.083
880.551
850.992
818.955
786.079
753.319
721.231
689.894
659.445
629.7
600.66
572.452
545.229
519.122
494.226
470.609
448.317
427.385
407.819
389.588
372.634
356.89
342.291
328.774
316.268
304.696
293.976
284.029
274.778
266.147
258.064
250.46
243.268
236.428
229.881
223.577
217.466
211.507
205.661
199.895
194.18
188.494
182.819
177.14
171.448
165.74
160.014
154.272
148.52
142.768
137.027
131.309
125.632
120.011
114.464
109.009
103.665
98.4509
93.3829
88.4778
83.7506
79.2146
74.8813
70.7598
66.857
63.1776
59.7238
56.4953
53.4895
50.7014
48.1234
45.7465
43.5599
41.5524
39.7121
38.0268
36.4843
35.072
33.778
32.5901
31.4969
30.4873
29.5505
28.6769
27.8567
27.0841
26.3495
25.6592
25.0003
24.4224
23.7882
95.1664
100.433
110.609
127.824
152.601
183.945
219.916
257.838
294.878
328.675
357.624
380.908
398.412
410.539
417.987
421.549
421.879
419.504
415.038
408.902
401.423
392.875
383.489
373.471
363.004
352.265
341.421
330.614
319.955
309.527
299.391
289.598
280.185
271.171
262.564
254.356
246.536
239.082
231.97
225.171
218.652
212.381
206.325
200.451
194.731
189.135
183.638
178.216
172.851
167.525
162.227
156.945
151.674
146.41
141.153
135.906
130.672
125.459
120.277
115.134
110.044
105.019
100.075
95.2249
90.4846
85.8686
81.3913
77.066
72.9046
68.9177
65.1143
61.5014
58.0841
54.8657
51.8473
49.0283
46.4064
43.9772
41.7346
39.6711
37.7776
36.0441
34.4603
33.0156
31.6991
30.5002
29.4082
28.4127
27.5035
26.6708
25.9052
25.1976
24.5399
23.9239
23.3443
22.7935
22.2767
21.7835
21.3544
20.8896
20.2129
20.6074
21.3102
22.6331
24.9491
28.6568
33.9842
41.1071
50.122
61.0176
73.5895
87.4806
102.242
117.393
132.474
147.068
160.821
173.337
184.46
194.127
202.319
209.045
214.338
218.25
220.859
222.264
222.584
221.947
220.481
218.308
215.546
212.304
208.685
204.777
200.656
196.385
192.017
187.592
183.139
178.682
174.235
169.807
165.402
161.021
156.661
152.32
147.991
143.672
139.356
135.04
130.722
126.399
122.072
117.742
113.413
109.09
104.779
100.489
96.2278
92.0071
87.8381
83.733
79.7045
75.7653
71.928
68.2049
64.607
61.1448
57.827
54.661
51.6528
48.8066
46.1251
43.6095
41.2593
39.0729
37.0469
35.1772
33.4579
31.8824
30.4428
29.1308
27.9379
26.8551
25.8738
24.9852
24.1806
23.4518
22.7905
22.1887
21.6389
21.1336
20.6662
20.2299
19.8207
19.432
19.0684
18.7216
18.424
18.1087
8.62701
8.68177
8.75149
8.85997
9.04339
9.35931
9.88108
10.6902
11.881
13.5001
15.6217
18.3291
21.6937
25.7695
30.5866
36.1439
42.3986
49.2509
56.5397
64.1206
71.8414
79.5411
87.0559
94.2287
100.92
107.016
112.436
117.128
121.071
124.266
126.737
128.523
129.674
130.25
130.311
129.918
129.129
127.999
126.576
124.904
123.019
120.954
118.734
116.381
113.914
111.345
108.686
105.947
103.136
100.259
97.3222
94.3323
91.2959
88.2201
85.1125
81.9819
78.8374
75.6891
72.5478
69.4248
66.3317
63.2802
60.2821
57.349
54.4917
51.7206
49.0449
46.4729
44.0115
41.6663
39.4417
37.3408
35.3653
33.5158
31.7917
30.1914
28.7123
27.3509
26.103
24.9632
23.9258
22.9846
22.133
21.3644
20.6722
20.0498
19.4909
18.989
18.5378
18.1313
17.7635
17.4287
17.1217
16.8371
16.5716
16.3201
16.0864
15.8637
15.6777
15.4895
5.60583
5.61695
5.62974
5.64579
5.66846
5.70375
5.76193
5.85745
6.00906
6.2376
6.56253
7.00473
7.59093
8.35145
9.31953
10.5305
12.0196
13.8192
15.9437
18.4073
21.2142
24.3557
27.8063
31.5232
35.4467
39.5041
43.6145
47.6937
51.6596
55.4367
58.9604
62.1796
65.0577
67.5725
69.7145
71.4854
72.8951
73.9602
74.7012
75.1411
75.3037
75.2128
74.8909
74.3594
73.6375
72.743
71.6917
70.4979
69.1745
67.7334
66.1855
64.5414
62.8115
61.0059
59.1351
57.2095
55.2398
53.237
51.2123
49.1767
47.1415
45.1177
43.116
41.1465
39.2189
37.3422
35.5242
33.7721
32.0917
30.488
28.9649
27.5251
26.1706
24.9021
23.7199
22.6232
21.6105
20.68
19.8287
19.0536
18.3507
17.7159
17.145
16.6334
16.1766
15.7702
15.4095
15.0901
14.8075
14.5572
14.335
14.1364
13.9575
13.7942
13.6441
13.5029
13.374
13.2519
13.1557
13.0704
4.32911
4.32998
4.33076
4.33163
4.33291
4.33543
4.34058
4.35067
4.36919
4.40085
4.45139
4.52643
4.6335
4.78105
4.97876
5.23762
5.56993
5.9892
6.50784
7.13856
7.89451
8.7883
9.83082
11.03
12.3893
13.9069
15.5748
17.3778
19.2942
21.2961
23.351
25.4233
27.4768
29.4763
31.3895
33.1884
34.8498
36.3562
37.6951
38.8591
39.845
40.653
41.2862
41.7498
42.0505
42.1957
42.1935
42.0524
41.7807
41.3871
40.8799
40.2677
39.5591
38.7627
37.8876
36.9426
35.937
34.8802
33.7815
32.6504
31.4962
30.3282
29.1554
27.9862
26.8287
25.6904
24.5781
23.4979
22.455
21.4539
20.4983
19.5911
18.7345
17.9301
17.1787
16.4807
15.8358
15.2435
14.7025
14.2112
13.7677
13.3696
13.0145
12.6997
12.4225
12.1799
11.9692
11.7874
11.6315
11.4984
11.385
11.2884
11.2055
11.1333
11.0699
11.0122
10.9629
10.9173
10.8895
10.8823
3.65947
3.65643
3.65283
3.64897
3.64472
3.64019
3.63564
3.63147
3.62851
3.62777
3.63064
3.63876
3.65423
3.67962
3.71796
3.7728
3.84817
3.94861
4.07892
4.24369
4.44813
4.69756
4.99735
5.35272
5.76853
6.24893
6.79713
7.41494
8.10244
8.85764
9.67626
10.5517
11.4749
12.4351
13.4195
14.4145
15.4058
16.3792
17.3211
18.219
19.062
19.8404
20.5467
21.1749
21.7207
22.1814
22.5556
22.843
23.0443
23.1611
23.1958
23.1512
23.0309
22.8391
22.5804
22.2598
21.8828
21.4552
20.983
20.4726
19.9302
19.3625
18.7757
18.176
17.5695
16.9618
16.3582
15.7635
15.182
14.6177
14.0737
13.5529
13.0576
12.5897
12.1506
11.7413
11.3624
11.0143
10.6969
10.4098
10.1523
9.92339
9.72204
9.54689
9.39649
9.26929
9.16363
9.07772
9.00971
8.95763
8.91943
8.89297
8.87624
8.86694
8.86381
8.86433
8.87064
8.87906
8.89915
8.94631
3.27351
3.26749
3.26101
3.25423
3.24712
3.23969
3.23199
3.22409
3.21611
3.20827
3.20093
3.19453
3.18969
3.1872
3.18803
3.19339
3.2047
3.22359
3.25191
3.29155
3.34454
3.41301
3.49927
3.60555
3.73402
3.88672
4.06552
4.27203
4.50749
4.77273
5.06805
5.39313
5.74695
6.12775
6.533
6.95941
7.40303
7.85928
8.32314
8.7892
9.25192
9.70571
10.1451
10.565
10.9606
11.3276
11.6622
11.9612
12.222
12.4427
12.6216
12.7581
12.8517
12.9029
12.9124
12.8815
12.812
12.7063
12.5668
12.3967
12.1992
11.9777
11.7359
11.4774
11.206
10.9253
10.6387
10.3496
10.0612
9.77615
9.49718
9.22654
8.96627
8.71812
8.48358
8.26389
8.06004
7.87278
7.70262
7.54985
7.41453
7.29652
7.19551
7.11104
7.04253
6.98928
6.95044
6.92508
6.91212
6.91038
6.91856
6.93525
6.95908
6.98841
7.02236
7.05902
7.10002
7.14236
7.19214
7.27245
3.04175
3.03305
3.02408
3.01485
3.00543
2.99579
2.98592
2.97582
2.96549
2.95499
2.94441
2.93391
2.92365
2.91385
2.9048
2.89689
2.89062
2.88656
2.88543
2.88807
2.89529
2.90802
2.92727
2.95406
2.98942
3.03432
3.08971
3.15643
3.23518
3.32671
3.43148
3.54974
3.68152
3.82659
3.98454
4.15468
4.3361
4.52761
4.72777
4.93493
5.14725
5.3627
5.57915
5.79436
6.00607
6.21201
6.40995
6.59775
6.77339
6.93499
7.08089
7.20961
7.31995
7.41094
7.48193
7.53256
7.56278
7.57285
7.56333
7.53507
7.48918
7.42699
7.35007
7.26011
7.15894
7.04845
6.93057
6.80722
6.68028
6.55156
6.42276
6.2955
6.17126
6.05139
5.93711
5.82951
5.72954
5.63803
5.55565
5.48291
5.4202
5.36777
5.32574
5.29411
5.27278
5.26154
5.26007
5.26794
5.2846
5.30941
5.34158
5.38023
5.42446
5.47315
5.52568
5.58063
5.6392
5.69896
5.76344
5.85918
2.90223
2.89105
2.87974
2.86829
2.85673
2.84506
2.83326
2.82131
2.80922
2.79699
2.78464
2.7722
2.75971
2.74724
2.73489
2.72278
2.71107
2.69996
2.6897
2.6806
2.67299
2.66727
2.66389
2.66331
2.66603
2.67255
2.68338
2.69899
2.71982
2.74627
2.77866
2.81725
2.86218
2.91349
2.97127
3.03541
3.10566
3.18166
3.26298
3.34909
3.43935
3.53307
3.62947
3.72771
3.8269
3.9261
4.02436
4.12068
4.2141
4.30364
4.38835
4.46733
4.53974
4.6048
4.66185
4.71033
4.7498
4.77997
4.8007
4.812
4.81404
4.80715
4.79179
4.76856
4.73819
4.70147
4.6593
4.61261
4.56239
4.50961
4.45525
4.40029
4.34566
4.29226
4.24092
4.19246
4.1476
4.10703
4.07133
4.04104
4.0166
3.99835
3.98659
3.98151
3.98324
3.99183
4.00723
4.02932
4.05787
4.09255
4.13297
4.17858
4.22882
4.28295
4.34058
4.40064
4.46402
4.52874
4.59658
4.69421
2.81924
2.80595
2.79261
2.77922
2.76578
2.7523
2.73877
2.72518
2.71152
2.69778
2.68396
2.67007
2.65612
2.64214
2.62814
2.61416
2.60025
2.58647
2.57291
2.55969
2.54692
2.53476
2.52339
2.513
2.50382
2.49608
2.49004
2.48596
2.48407
2.48464
2.48787
2.49397
2.50308
2.51531
2.53074
2.54938
2.57126
2.59634
2.62448
2.6555
2.68917
2.72523
2.76336
2.80322
2.84444
2.88664
2.92941
2.97231
3.01492
3.05678
3.09746
3.13651
3.17349
3.20799
3.23962
3.26801
3.29286
3.31388
3.33087
3.34368
3.35223
3.35654
3.35667
3.35277
3.34508
3.33389
3.31954
3.30245
3.28306
3.26187
3.23936
3.21608
3.19254
3.16929
3.14685
3.12574
3.10647
3.08952
3.07534
3.06435
3.05693
3.05342
3.05413
3.0593
3.06914
3.0838
3.10338
3.12791
3.15735
3.19158
3.23042
3.27356
3.32071
3.37137
3.42533
3.4818
3.54145
3.60266
3.66613
3.75638
2.77193
2.75693
2.74194
2.72695
2.71195
2.69695
2.68195
2.66694
2.65191
2.63685
2.62178
2.60667
2.59153
2.57637
2.5612
2.54602
2.53085
2.5157
2.50061
2.4856
2.47073
2.45603
2.44157
2.42743
2.41371
2.40049
2.38789
2.37604
2.36506
2.35508
2.34623
2.33864
2.33242
2.32767
2.32448
2.32291
2.32302
2.32485
2.32839
2.3336
2.3404
2.3487
2.35838
2.3693
2.3813
2.39422
2.40785
2.42203
2.43653
2.45117
2.46571
2.47997
2.49372
2.50676
2.5189
2.52993
2.53969
2.54802
2.55477
2.55984
2.56313
2.5646
2.56423
2.56203
2.55807
2.55243
2.54525
2.53669
2.52695
2.51624
2.50482
2.49296
2.48095
2.46907
2.45765
2.447
2.43744
2.42928
2.42286
2.41846
2.41638
2.41691
2.42029
2.42678
2.43657
2.44985
2.46678
2.48745
2.51193
2.54022
2.57226
2.60794
2.64709
2.68943
2.73486
2.78281
2.83381
2.88652
2.9411
3.01851
2.74589
2.72965
2.71343
2.69723
2.68105
2.66489
2.64874
2.63261
2.61648
2.60036
2.58425
2.56813
2.552
2.53588
2.51976
2.50364
2.48753
2.47144
2.45536
2.43932
2.42332
2.40738
2.39151
2.37574
2.36011
2.34464
2.32939
2.3144
2.29972
2.28543
2.27157
2.25822
2.24547
2.23338
2.22202
2.21145
2.20171
2.19284
2.18487
2.1778
2.17164
2.16636
2.16193
2.1583
2.15542
2.1532
2.15157
2.15045
2.14974
2.14934
2.14916
2.14908
2.14902
2.14886
2.14851
2.14787
2.14686
2.14538
2.14337
2.14076
2.13749
2.13353
2.12884
2.12343
2.1173
2.11048
2.10302
2.09498
2.08645
2.07754
2.06836
2.05904
2.04976
2.04065
2.03191
2.02372
2.01628
2.00979
2.00446
2.00051
1.99813
1.99755
1.99896
2.00258
2.00858
2.01715
2.02844
2.04258
2.05969
2.07983
2.10303
2.12926
2.15848
2.19055
2.22543
2.26274
2.3029
2.34481
2.38845
2.45056
2.73258
2.7155
2.69845
2.68142
2.66441
2.64741
2.63043
2.61347
2.59653
2.5796
2.56269
2.54579
2.5289
2.51202
2.49516
2.47832
2.46148
2.44467
2.42788
2.41112
2.39437
2.37766
2.36098
2.34433
2.32774
2.3112
2.29473
2.27835
2.26207
2.24593
2.22995
2.21417
2.19862
2.18336
2.16844
2.15389
2.13974
2.126
2.11272
2.09991
2.08758
2.07573
2.06437
2.05349
2.04308
2.0331
2.02353
2.01434
2.00548
1.99692
1.98861
1.98049
1.97252
1.96465
1.95684
1.94903
1.94118
1.93325
1.9252
1.91699
1.9086
1.9
1.89118
1.88213
1.87285
1.86335
1.85365
1.84378
1.83378
1.82369
1.81358
1.80352
1.79359
1.78387
1.77447
1.76551
1.75708
1.74934
1.7424
1.73641
1.73152
1.72787
1.72563
1.72495
1.72599
1.7289
1.73384
1.74092
1.75029
1.76202
1.77622
1.7929
1.81209
1.83375
1.85789
1.88427
1.91324
1.94388
1.97624
2.02268
2.72596
2.70839
2.69082
2.67326
2.65571
2.63818
2.62065
2.60314
2.58565
2.56817
2.5507
2.53325
2.51581
2.49838
2.48098
2.46359
2.44622
2.42887
2.41154
2.39424
2.37696
2.35971
2.34247
2.32527
2.30809
2.29094
2.27382
2.25673
2.23968
2.2227
2.20579
2.18897
2.17225
2.15566
2.1392
2.12292
2.10682
2.09092
2.07524
2.0598
2.0446
2.02967
2.015
2.00061
1.98649
1.97263
1.95904
1.9457
1.9326
1.91972
1.90705
1.89456
1.88223
1.87004
1.85797
1.84599
1.83409
1.82223
1.81041
1.79861
1.78681
1.775
1.76318
1.75133
1.73946
1.72756
1.71566
1.70377
1.6919
1.68007
1.66833
1.65669
1.64522
1.63396
1.62296
1.61229
1.60202
1.59222
1.58298
1.57439
1.56655
1.55957
1.55355
1.54862
1.54489
1.5425
1.54156
1.54221
1.54455
1.5487
1.55476
1.5628
1.57288
1.58501
1.59927
1.61548
1.63398
1.65398
1.67576
1.70739
2.72298
2.70512
2.68726
2.6694
2.65155
2.63369
2.61584
2.59799
2.58015
2.56232
2.5445
2.52668
2.50888
2.49109
2.47331
2.45555
2.4378
2.42008
2.40237
2.38469
2.36703
2.3494
2.33178
2.31419
2.29662
2.27907
2.26155
2.24404
2.22655
2.20909
2.19167
2.17431
2.15701
2.13979
2.12265
2.1056
2.08864
2.07179
2.05505
2.03844
2.02196
2.00562
1.98944
1.9734
1.95753
1.94182
1.92627
1.91089
1.89566
1.88059
1.86568
1.85091
1.83627
1.82177
1.80738
1.7931
1.77893
1.76484
1.75084
1.73691
1.72305
1.70925
1.69551
1.68182
1.66819
1.65462
1.64111
1.62767
1.6143
1.60102
1.58785
1.5748
1.5619
1.54918
1.53665
1.52437
1.51237
1.50069
1.48938
1.47851
1.46814
1.45833
1.44915
1.44071
1.43307
1.42634
1.42061
1.41599
1.41258
1.41048
1.4098
1.41061
1.41301
1.41703
1.42279
1.43016
1.4395
1.45006
1.46252
1.48083
2.72156
2.70356
2.68555
2.66753
2.64951
2.63148
2.61344
2.5954
2.57737
2.55933
2.5413
2.52327
2.50524
2.48723
2.46922
2.45122
2.43324
2.41527
2.39732
2.37938
2.36147
2.34357
2.3257
2.30785
2.29001
2.2722
2.2544
2.23663
2.2189
2.20119
2.18351
2.16588
2.14829
2.13075
2.11326
2.09584
2.07847
2.06118
2.04396
2.02681
2.00975
1.99278
1.9759
1.95912
1.94244
1.92586
1.9094
1.89304
1.87679
1.86066
1.84464
1.82873
1.81293
1.79724
1.78166
1.76618
1.75079
1.73551
1.72031
1.7052
1.69018
1.67525
1.66039
1.64562
1.63092
1.61631
1.60178
1.58733
1.57297
1.55871
1.54455
1.5305
1.51657
1.50278
1.48914
1.47566
1.46238
1.44932
1.4365
1.42396
1.41174
1.39987
1.38841
1.37741
1.36692
1.35702
1.34777
1.33926
1.33155
1.32474
1.3189
1.31413
1.31051
1.30809
1.307
1.30717
1.30892
1.31158
1.31625
1.32306
2.72094
2.70288
2.68479
2.6667
2.64859
2.63047
2.61234
2.59421
2.57607
2.55793
2.53978
2.52163
2.50349
2.48534
2.4672
2.44907
2.43094
2.41283
2.39472
2.37663
2.35856
2.3405
2.32246
2.30444
2.28644
2.26845
2.25048
2.23253
2.2146
2.1967
2.17885
2.16103
2.14327
2.12555
2.10787
2.09025
2.07269
2.05517
2.03772
2.02033
2.003
1.98573
1.96854
1.95142
1.93437
1.91741
1.90052
1.88371
1.867
1.85036
1.83382
1.81737
1.80101
1.78474
1.76856
1.75247
1.73648
1.72058
1.70476
1.68904
1.6734
1.65785
1.64239
1.62702
1.61173
1.59652
1.5814
1.56637
1.55142
1.53657
1.5218
1.50713
1.49256
1.4781
1.46375
1.44952
1.43542
1.42147
1.40767
1.39406
1.38064
1.36745
1.3545
1.34184
1.32949
1.31751
1.30592
1.29479
1.28417
1.27411
1.26468
1.25595
1.248
1.24086
1.23467
1.22935
1.22526
1.22169
1.22024
1.21757
2.72058
2.70248
2.68436
2.66623
2.64808
2.62992
2.61175
2.59356
2.57537
2.55717
2.53897
2.52076
2.50255
2.48434
2.46613
2.44792
2.42972
2.41152
2.39334
2.37516
2.35699
2.33884
2.3207
2.30258
2.28447
2.26638
2.2483
2.23026
2.21224
2.19425
2.17629
2.15838
2.1405
2.12267
2.10489
2.08715
2.06946
2.05183
2.03425
2.01672
1.99925
1.98184
1.96449
1.94721
1.92999
1.91283
1.89575
1.87873
1.8618
1.84493
1.82814
1.81144
1.79481
1.77826
1.7618
1.74542
1.72913
1.71293
1.69681
1.68077
1.66482
1.64896
1.63319
1.6175
1.6019
1.58638
1.57094
1.55559
1.54032
1.52514
1.51003
1.49502
1.48008
1.46524
1.45048
1.43581
1.42124
1.40678
1.39242
1.37818
1.36406
1.35009
1.33627
1.32263
1.30918
1.29594
1.28294
1.27022
1.25779
1.24571
1.23401
1.22273
1.21192
1.20163
1.19196
1.18283
1.17459
1.16649
1.1606
1.15061
2.72037
2.70226
2.68412
2.66597
2.6478
2.62962
2.61143
2.59322
2.57501
2.55678
2.53855
2.52031
2.50207
2.48383
2.46558
2.44734
2.4291
2.41086
2.39263
2.3744
2.35619
2.33798
2.31979
2.30161
2.28344
2.26529
2.24715
2.22903
2.21093
2.19288
2.17485
2.15687
2.13893
2.12104
2.10318
2.08538
2.06762
2.04991
2.03226
2.01466
1.99711
1.97963
1.9622
1.94483
1.92752
1.91028
1.8931
1.87598
1.85894
1.84197
1.82507
1.80824
1.79149
1.77481
1.75822
1.74171
1.72527
1.70892
1.69266
1.67647
1.66038
1.64436
1.62844
1.61259
1.59683
1.58116
1.56556
1.55005
1.53462
1.51927
1.50399
1.48879
1.47367
1.45862
1.44365
1.42876
1.41394
1.3992
1.38454
1.36997
1.35549
1.3411
1.32681
1.31263
1.29858
1.28466
1.27088
1.25726
1.24383
1.23058
1.21756
1.20478
1.19229
1.18008
1.16825
1.1567
1.1458
1.13469
1.12589
1.11069
2.7202
2.70207
2.68393
2.66576
2.64759
2.62939
2.61119
2.59297
2.57474
2.5565
2.53826
2.52001
2.50175
2.48349
2.46522
2.44696
2.4287
2.41044
2.39218
2.37394
2.3557
2.33746
2.31924
2.30103
2.28283
2.26464
2.24647
2.22833
2.21021
2.19212
2.17407
2.15605
2.13807
2.12013
2.10224
2.08439
2.06659
2.04884
2.03114
2.01349
1.9959
1.97836
1.96089
1.94347
1.92611
1.90881
1.89158
1.87442
1.85732
1.84029
1.82333
1.80645
1.78963
1.7729
1.75624
1.73966
1.72317
1.70675
1.69042
1.67417
1.658
1.64192
1.62592
1.61001
1.59418
1.57844
1.56277
1.54719
1.53168
1.51626
1.5009
1.48563
1.47042
1.45528
1.44022
1.42522
1.41029
1.39542
1.38062
1.36589
1.35123
1.33665
1.32213
1.3077
1.29335
1.27908
1.26491
1.25085
1.23688
1.22304
1.20932
1.19574
1.18231
1.16905
1.156
1.14307
1.13061
1.11769
1.10716
1.08862
2.72006
2.70193
2.68377
2.66561
2.64742
2.62922
2.61101
2.59279
2.57455
2.55631
2.53805
2.51979
2.50153
2.48326
2.46499
2.44672
2.42844
2.41017
2.39191
2.37365
2.35539
2.33715
2.31891
2.30068
2.28246
2.26425
2.24606
2.2279
2.20976
2.19165
2.17358
2.15554
2.13754
2.11958
2.10166
2.08378
2.06596
2.04818
2.03045
2.01278
1.99516
1.97759
1.96008
1.94263
1.92525
1.90792
1.89066
1.87347
1.85634
1.83928
1.82229
1.80538
1.78854
1.77178
1.75509
1.73849
1.72196
1.70552
1.68916
1.67288
1.65669
1.64059
1.62457
1.60863
1.59278
1.57701
1.56133
1.54572
1.5302
1.51475
1.49938
1.48408
1.46885
1.45369
1.4386
1.42357
1.4086
1.3937
1.37886
1.36408
1.34936
1.3347
1.3201
1.30556
1.29109
1.27669
1.26235
1.24808
1.23389
1.21976
1.20571
1.19174
1.17786
1.16406
1.15039
1.13673
1.12344
1.10953
1.09809
1.07761
2.71994
2.7018
2.68365
2.66547
2.64728
2.62908
2.61086
2.59263
2.57439
2.55614
2.53789
2.51962
2.50135
2.48308
2.4648
2.44652
2.42824
2.40997
2.3917
2.37343
2.35517
2.33691
2.31866
2.30043
2.2822
2.26398
2.24578
2.2276
2.20946
2.19134
2.17325
2.1552
2.13719
2.11922
2.10128
2.08339
2.06555
2.04776
2.03001
2.01232
1.99468
1.97709
1.95957
1.9421
1.92469
1.90735
1.89007
1.87286
1.85572
1.83864
1.82164
1.80471
1.78786
1.77109
1.75439
1.73778
1.72125
1.7048
1.68843
1.67215
1.65596
1.63986
1.62384
1.60791
1.59206
1.5763
1.56063
1.54504
1.52952
1.51409
1.49873
1.48345
1.46824
1.4531
1.43803
1.42302
1.40807
1.39318
1.37836
1.36359
1.34888
1.33422
1.31962
1.30508
1.2906
1.27617
1.26179
1.24747
1.2332
1.21898
1.20481
1.19068
1.17661
1.16258
1.14862
1.13463
1.12094
1.10654
1.09467
1.07318
2.71983
2.70169
2.68353
2.66535
2.64716
2.62895
2.61073
2.5925
2.57425
2.556
2.53774
2.51947
2.50119
2.48292
2.46463
2.44635
2.42807
2.40979
2.39151
2.37324
2.35497
2.33671
2.31846
2.30021
2.28198
2.26376
2.24556
2.22738
2.20923
2.19111
2.17302
2.15497
2.13694
2.11896
2.10102
2.08312
2.06527
2.04746
2.0297
2.012
1.99435
1.97675
1.95922
1.94174
1.92432
1.90697
1.88968
1.87246
1.85531
1.83823
1.82122
1.80429
1.78744
1.77067
1.75397
1.73736
1.72084
1.7044
1.68804
1.67178
1.6556
1.63952
1.62352
1.60762
1.5918
1.57607
1.56043
1.54487
1.52939
1.514
1.49869
1.48345
1.46829