/*--------------------------------*- C++ -*----------------------------------*\
| =========                 |                                                 |
| \\      /  F ield         | OpenFOAM: The Open Source CFD Toolbox           |
|  \\    /   O peration     | Version:  4.1                                   |
|   \\  /    A nd           | Web:      www.OpenFOAM.org                      |
|    \\/     M anipulation  |                                                 |
\*---------------------------------------------------------------------------*/
FoamFile
{
    version     2.0;
    format      ascii;
    class       volScalarField;
    location    "1100";
    object      k;
}
// * * * * * * * * * * * * * * * * * * * * * * * * * * * * * * * * * * * * * //

dimensions      [0 2 -2 0 0 0 0];

internalField   nonuniform List<scalar> 
6820
(
0.241787
0.289665
0.336844
0.381951
0.423953
0.46211
0.495948
0.525265
0.550093
0.57064
0.587232
0.60026
0.610145
0.617305
0.622142
0.625026
0.626287
0.62622
0.625078
0.623081
0.620414
0.617234
0.613671
0.609833
0.605811
0.601678
0.597494
0.593307
0.589155
0.585071
0.581073
0.577258
0.574892
0.202474
0.204679
0.206995
0.209467
0.212041
0.214681
0.217362
0.220056
0.222733
0.22537
0.227954
0.230479
0.232942
0.235349
0.237707
0.240025
0.242313
0.244581
0.246837
0.249089
0.251344
0.253607
0.255883
0.258175
0.260482
0.262807
0.265146
0.2675
0.269864
0.272236
0.274615
0.276992
0.279891
0.199741
0.199215
0.198471
0.197596
0.196619
0.195573
0.194483
0.193366
0.192235
0.191099
0.18997
0.188855
0.187761
0.186695
0.185662
0.184667
0.183716
0.182812
0.181958
0.181158
0.180414
0.179725
0.179091
0.17851
0.177983
0.177509
0.177086
0.176713
0.176389
0.176112
0.175879
0.175696
0.175595
0.199153
0.198176
0.197113
0.195992
0.194809
0.193571
0.192297
0.191001
0.189694
0.188384
0.187078
0.185782
0.184501
0.183238
0.181997
0.180781
0.179591
0.178431
0.177301
0.176204
0.17514
0.17411
0.173114
0.172153
0.171225
0.170332
0.169471
0.168644
0.16785
0.167087
0.166355
0.165653
0.164982
0.198981
0.1979
0.196807
0.195699
0.194559
0.193388
0.192197
0.190994
0.189785
0.188574
0.187366
0.186167
0.184978
0.183802
0.182643
0.181503
0.180382
0.179283
0.178206
0.177153
0.176124
0.175121
0.174143
0.17319
0.172263
0.171361
0.170485
0.169633
0.168807
0.168005
0.167226
0.166471
0.165731
0.198926
0.197795
0.196678
0.195576
0.194473
0.193363
0.192249
0.191134
0.190019
0.188909
0.187806
0.186711
0.185628
0.184558
0.183504
0.182465
0.181444
0.180441
0.179457
0.178492
0.177548
0.176624
0.17572
0.174837
0.173974
0.173133
0.172312
0.171511
0.17073
0.169969
0.169228
0.168505
0.167791
0.198906
0.197755
0.196631
0.195537
0.194463
0.193399
0.192342
0.191294
0.190254
0.189222
0.188201
0.187192
0.186194
0.18521
0.184241
0.183286
0.182348
0.181426
0.180521
0.179633
0.178762
0.177909
0.177075
0.176258
0.175459
0.174677
0.173914
0.173168
0.17244
0.171729
0.171035
0.170356
0.169684
0.1989
0.19774
0.196611
0.195517
0.194452
0.193408
0.192382
0.191373
0.19038
0.189401
0.188437
0.187487
0.186552
0.185631
0.184727
0.183837
0.182964
0.182107
0.181266
0.180441
0.179633
0.178841
0.178066
0.177307
0.176564
0.175838
0.175127
0.174433
0.173754
0.173091
0.172443
0.171808
0.171178
0.198897
0.197734
0.196603
0.195508
0.194448
0.193415
0.192408
0.191424
0.19046
0.189517
0.188591
0.187683
0.186792
0.185919
0.185061
0.184221
0.183396
0.182588
0.181796
0.18102
0.18026
0.179516
0.178787
0.178074
0.177376
0.176694
0.176026
0.175373
0.174735
0.174111
0.173501
0.172903
0.17231
0.198896
0.197732
0.1966
0.195505
0.194445
0.193417
0.192417
0.191444
0.190496
0.189571
0.188668
0.187785
0.186923
0.186079
0.185254
0.184446
0.183657
0.182884
0.182128
0.181388
0.180664
0.179956
0.179264
0.178587
0.177925
0.177278
0.176645
0.176026
0.175422
0.174831
0.174253
0.173687
0.173124
0.198896
0.197731
0.196599
0.195504
0.194444
0.193417
0.192421
0.191454
0.190514
0.1896
0.18871
0.187844
0.186999
0.186175
0.185371
0.184587
0.183821
0.183073
0.182342
0.181629
0.180931
0.18025
0.179585
0.178935
0.1783
0.177679
0.177073
0.17648
0.175902
0.175336
0.174784
0.174242
0.173704
0.198896
0.19773
0.196599
0.195504
0.194444
0.193418
0.192423
0.191458
0.190521
0.189612
0.188729
0.18787
0.187035
0.186222
0.18543
0.184659
0.183908
0.183176
0.182462
0.181765
0.181086
0.180423
0.179777
0.179146
0.17853
0.177929
0.177342
0.176769
0.17621
0.175664
0.175131
0.174609
0.174091
0.198896
0.19773
0.196599
0.195504
0.194444
0.193418
0.192424
0.19146
0.190525
0.189618
0.188738
0.187884
0.187054
0.186247
0.185463
0.1847
0.183958
0.183235
0.182532
0.181847
0.181179
0.180529
0.179895
0.179277
0.178675
0.178088
0.177515
0.176956
0.176411
0.175879
0.17536
0.174852
0.174348
0.198896
0.19773
0.196599
0.195504
0.194445
0.193419
0.192425
0.191461
0.190527
0.189621
0.188743
0.18789
0.187062
0.186259
0.185478
0.184719
0.183981
0.183264
0.182567
0.181888
0.181227
0.180584
0.179958
0.179349
0.178755
0.178176
0.177612
0.177063
0.176528
0.176006
0.175496
0.174998
0.174504
0.198896
0.19773
0.196599
0.195505
0.194445
0.193419
0.192425
0.191462
0.190528
0.189623
0.188745
0.187893
0.187067
0.186265
0.185486
0.184729
0.183994
0.18328
0.182586
0.181911
0.181254
0.180616
0.179995
0.17939
0.178802
0.178229
0.177671
0.177127
0.176598
0.176082
0.17558
0.175088
0.174601
0.198896
0.19773
0.196599
0.195505
0.194446
0.19342
0.192426
0.191463
0.190529
0.189624
0.188747
0.187895
0.187069
0.186268
0.18549
0.184734
0.184
0.183288
0.182595
0.181922
0.181267
0.180631
0.180012
0.179411
0.178825
0.178255
0.177701
0.177161
0.176635
0.176123
0.175625
0.175137
0.174654
0.198896
0.19773
0.1966
0.195505
0.194446
0.19342
0.192426
0.191463
0.19053
0.189625
0.188748
0.187896
0.187071
0.18627
0.185492
0.184737
0.184004
0.183292
0.1826
0.181928
0.181275
0.18064
0.180023
0.179422
0.178838
0.17827
0.177718
0.17718
0.176657
0.176147
0.175651
0.175166
0.174686
0.198896
0.19773
0.1966
0.195505
0.194446
0.19342
0.192427
0.191464
0.19053
0.189626
0.188748
0.187897
0.187072
0.186271
0.185493
0.184739
0.184006
0.183294
0.182603
0.181931
0.181279
0.180644
0.180028
0.179428
0.178845
0.178278
0.177726
0.17719
0.176667
0.176159
0.175664
0.175181
0.174702
0.198896
0.197729
0.1966
0.195506
0.194446
0.193421
0.192427
0.191464
0.190531
0.189626
0.188749
0.187898
0.187073
0.186272
0.185494
0.18474
0.184007
0.183296
0.182605
0.181933
0.181281
0.180647
0.180031
0.179432
0.178849
0.178283
0.177732
0.177195
0.176674
0.176166
0.175672
0.17519
0.174712
0.198896
0.197729
0.1966
0.195506
0.194446
0.193421
0.192427
0.191464
0.190531
0.189627
0.188749
0.187899
0.187073
0.186272
0.185495
0.184741
0.184008
0.183297
0.182606
0.181935
0.181283
0.180649
0.180033
0.179434
0.178852
0.178285
0.177734
0.177199
0.176677
0.17617
0.175676
0.175194
0.174717
0.198896
0.197729
0.1966
0.195506
0.194447
0.193421
0.192427
0.191465
0.190532
0.189627
0.18875
0.187899
0.187074
0.186273
0.185496
0.184742
0.184009
0.183298
0.182607
0.181936
0.181284
0.18065
0.180034
0.179435
0.178853
0.178287
0.177737
0.177201
0.17668
0.176173
0.175679
0.175197
0.17472
0.198896
0.197729
0.1966
0.195506
0.194447
0.193421
0.192428
0.191465
0.190532
0.189627
0.18875
0.1879
0.187074
0.186274
0.185497
0.184742
0.18401
0.183299
0.182608
0.181937
0.181285
0.180651
0.180035
0.179437
0.178855
0.178288
0.177738
0.177202
0.176681
0.176174
0.175681
0.175199
0.174722
0.198896
0.197729
0.1966
0.195506
0.194447
0.193421
0.192428
0.191465
0.190532
0.189628
0.188751
0.1879
0.187075
0.186274
0.185497
0.184743
0.18401
0.183299
0.182608
0.181937
0.181285
0.180652
0.180036
0.179437
0.178855
0.178289
0.177739
0.177203
0.176683
0.176176
0.175682
0.1752
0.174723
0.198896
0.19773
0.1966
0.195506
0.194447
0.193421
0.192428
0.191465
0.190532
0.189628
0.188751
0.1879
0.187075
0.186274
0.185497
0.184743
0.184011
0.1833
0.182609
0.181938
0.181286
0.180652
0.180037
0.179438
0.178856
0.17829
0.17774
0.177204
0.176683
0.176176
0.175683
0.175201
0.174724
0.198896
0.197729
0.1966
0.195506
0.194447
0.193421
0.192428
0.191465
0.190532
0.189628
0.188751
0.1879
0.187075
0.186274
0.185497
0.184743
0.184011
0.1833
0.182609
0.181938
0.181286
0.180653
0.180037
0.179438
0.178856
0.17829
0.17774
0.177204
0.176683
0.176176
0.175683
0.175201
0.174724
0.198896
0.197729
0.1966
0.195506
0.194447
0.193421
0.192428
0.191465
0.190532
0.189628
0.188751
0.1879
0.187075
0.186274
0.185497
0.184743
0.184011
0.1833
0.182609
0.181938
0.181286
0.180653
0.180037
0.179438
0.178856
0.17829
0.17774
0.177204
0.176683
0.176177
0.175683
0.175201
0.174724
0.198896
0.197729
0.1966
0.195506
0.194447
0.193421
0.192428
0.191465
0.190532
0.189628
0.188751
0.1879
0.187075
0.186274
0.185497
0.184743
0.18401
0.183299
0.182608
0.181937
0.181285
0.180652
0.180036
0.179437
0.178855
0.178289
0.177738
0.177203
0.176682
0.176175
0.175681
0.175199
0.174722
0.198896
0.197729
0.1966
0.195506
0.194447
0.193421
0.192428
0.191465
0.190532
0.189628
0.188751
0.1879
0.187075
0.186274
0.185497
0.184743
0.18401
0.183299
0.182608
0.181937
0.181285
0.180652
0.180036
0.179437
0.178855
0.178289
0.177738
0.177203
0.176682
0.176175
0.175681
0.175199
0.174722
0.198896
0.197729
0.1966
0.195506
0.194447
0.193421
0.192428
0.191465
0.190532
0.189627
0.18875
0.187899
0.187074
0.186273
0.185496
0.184741
0.184009
0.183297
0.182606
0.181935
0.181283
0.180649
0.180033
0.179434
0.178852
0.178285
0.177735
0.177199
0.176678
0.176171
0.175677
0.175195
0.174718
0.198896
0.197729
0.1966
0.195506
0.194447
0.193421
0.192427
0.191465
0.190532
0.189627
0.18875
0.187899
0.187074
0.186273
0.185496
0.184742
0.184009
0.183298
0.182607
0.181936
0.181283
0.18065
0.180034
0.179435
0.178852
0.178286
0.177735
0.177199
0.176678
0.176171
0.175677
0.175195
0.174717
0.198896
0.197729
0.1966
0.195506
0.194447
0.193421
0.192427
0.191464
0.190531
0.189626
0.188749
0.187898
0.187072
0.186271
0.185493
0.184738
0.184005
0.183294
0.182602
0.181931
0.181278
0.180644
0.180028
0.179428
0.178846
0.178279
0.177728
0.177192
0.17667
0.176162
0.175668
0.175185
0.174708
0.198896
0.197729
0.1966
0.195506
0.194446
0.193421
0.192427
0.191464
0.190531
0.189627
0.18875
0.187899
0.187074
0.186273
0.185496
0.184741
0.184008
0.183297
0.182605
0.181934
0.181281
0.180646
0.18003
0.17943
0.178847
0.17828
0.177728
0.177191
0.176669
0.176161
0.175666
0.175182
0.174704
0.198896
0.19773
0.1966
0.195505
0.194446
0.19342
0.192426
0.191462
0.190528
0.189623
0.188745
0.187893
0.187067
0.186265
0.185487
0.184732
0.183998
0.183286
0.182594
0.181921
0.181267
0.180632
0.180014
0.179413
0.178829
0.178261
0.177708
0.17717
0.176646
0.176136
0.175639
0.175154
0.174674
0.198896
0.19773
0.1966
0.195506
0.194447
0.193422
0.192429
0.191467
0.190534
0.18963
0.188753
0.187901
0.187075
0.186274
0.185495
0.184739
0.184004
0.183291
0.182597
0.181923
0.181267
0.180629
0.180009
0.179405
0.178818
0.178247
0.17769
0.177149
0.176621
0.176108
0.175607
0.175118
0.174633
0.198896
0.19773
0.1966
0.195504
0.194443
0.193416
0.192421
0.191457
0.190522
0.189617
0.188738
0.187885
0.187057
0.186253
0.185472
0.184713
0.183975
0.183258
0.18256
0.181881
0.181221
0.180578
0.179952
0.179343
0.17875
0.178172
0.177609
0.177061
0.176527
0.176007
0.175499
0.175004
0.174512
0.198897
0.197733
0.196606
0.195516
0.194462
0.193441
0.19245
0.191489
0.190556
0.18965
0.18877
0.187914
0.187082
0.186273
0.185486
0.18472
0.183974
0.183248
0.182541
0.181852
0.181181
0.180527
0.17989
0.17927
0.178665
0.178075
0.1775
0.17694
0.176393
0.17586
0.175341
0.174832
0.174328
0.1989
0.197735
0.196605
0.195515
0.194465
0.193449
0.192464
0.191508
0.190579
0.189676
0.188796
0.187939
0.187104
0.186291
0.185497
0.184724
0.18397
0.183235
0.182518
0.181819
0.181138
0.180473
0.179825
0.179193
0.178577
0.177976
0.177391
0.176819
0.176262
0.175719
0.175189
0.174672
0.174158
0.198944
0.197852
0.196795
0.195774
0.194787
0.193827
0.192894
0.191986
0.191101
0.190238
0.189397
0.188577
0.187778
0.186998
0.186237
0.185495
0.184771
0.184066
0.183378
0.182708
0.182054
0.181417
0.180797
0.180192
0.179603
0.179029
0.178471
0.177927
0.177397
0.176881
0.176379
0.175889
0.175406
0.199227
0.198572
0.198048
0.197613
0.197233
0.196892
0.196584
0.196305
0.196052
0.195821
0.19561
0.195418
0.195243
0.195084
0.194942
0.194813
0.194699
0.194597
0.194508
0.194431
0.194364
0.194308
0.194261
0.194224
0.194195
0.194174
0.194162
0.194156
0.194157
0.194164
0.194178
0.194197
0.194225
0.209515
0.220347
0.230808
0.24093
0.250733
0.260233
0.269438
0.278351
0.286978
0.295321
0.303382
0.311166
0.318675
0.325913
0.332885
0.339595
0.346049
0.352252
0.35821
0.363929
0.369416
0.374677
0.379719
0.38455
0.389175
0.393602
0.397838
0.401889
0.405764
0.409467
0.413007
0.416391
0.419648
0.644258
0.805081
0.984479
1.16996
1.33647
1.47317
1.57918
1.65841
1.7168
1.76016
1.79287
1.81768
1.83661
1.85102
1.86171
1.86906
1.87287
1.87354
1.87078
1.86487
1.85628
1.84553
1.83314
1.81964
1.80557
1.79141
1.77759
1.76444
1.75221
1.74108
1.7312
1.72266
1.71554
1.70984
1.70553
1.70253
1.70074
1.69999
1.70013
1.70097
1.7023
1.70392
1.70561
1.70715
1.70833
1.70896
1.70883
1.70777
1.70561
1.7022
1.6974
1.69112
1.68325
1.67374
1.66253
1.64961
1.63496
1.61861
1.6006
1.58099
1.55987
1.53733
1.51349
1.48848
1.46246
1.43559
1.40803
1.37995
1.35154
1.32299
1.29447
1.26616
1.23825
1.21089
1.18423
1.15843
1.13359
1.10982
1.08718
1.06571
1.04543
1.02635
1.00845
0.991706
0.976073
0.961495
0.947902
0.935213
0.92334
0.912184
0.901647
0.891623
0.882018
0.872736
0.863749
0.855022
0.846833
0.839352
0.833999
0.830882
0.287842
0.30752
0.342161
0.39611
0.46865
0.55622
0.652975
0.752612
0.849876
0.941056
1.02402
1.09793
1.16297
1.21993
1.26979
1.31345
1.35138
1.38397
1.41194
1.43561
1.45527
1.47124
1.48383
1.49343
1.50045
1.50533
1.50848
1.51031
1.51115
1.51131
1.51105
1.51062
1.51021
1.50997
1.51001
1.51038
1.5111
1.51216
1.5135
1.51504
1.51667
1.51826
1.51967
1.52076
1.52137
1.52136
1.52057
1.51887
1.51612
1.51221
1.50704
1.50052
1.4926
1.48321
1.47234
1.45997
1.44611
1.43078
1.41405
1.39596
1.3766
1.35607
1.33449
1.31197
1.28866
1.26471
1.24027
1.2155
1.19057
1.16564
1.14087
1.11641
1.09241
1.06902
1.04636
1.02455
1.00369
0.98384
0.965067
0.947397
0.930841
0.915392
0.901031
0.887726
0.875431
0.864089
0.853632
0.843983
0.835057
0.826763
0.819005
0.811685
0.804715
0.798005
0.791526
0.785248
0.779411
0.774163
0.770712
0.769015
0.175883
0.177379
0.180713
0.187102
0.197763
0.213718
0.236281
0.266321
0.303958
0.348545
0.399024
0.454034
0.512083
0.571722
0.63165
0.690734
0.747962
0.802288
0.853517
0.901435
0.945886
0.986764
1.02402
1.05767
1.0878
1.1146
1.13827
1.15908
1.17728
1.19316
1.20701
1.21911
1.22972
1.23908
1.24741
1.25488
1.26162
1.26776
1.27336
1.27845
1.28305
1.28713
1.29065
1.29355
1.29577
1.29723
1.29782
1.29749
1.29612
1.29366
1.29002
1.28516
1.27902
1.27157
1.26279
1.25269
1.24127
1.22858
1.21465
1.19956
1.18337
1.16619
1.14812
1.12929
1.10981
1.08983
1.06948
1.04892
1.02827
1.00769
0.987304
0.967254
0.947663
0.928648
0.910317
0.892763
0.876067
0.860289
0.845474
0.831643
0.818802
0.806942
0.796044
0.786074
0.776992
0.768742
0.761264
0.754488
0.748334
0.742721
0.737562
0.732765
0.728252
0.723938
0.719798
0.715801
0.712158
0.708985
0.707295
0.706888
0.164172
0.163488
0.163038
0.16304
0.163751
0.165459
0.168527
0.173355
0.180333
0.189997
0.202773
0.218999
0.238945
0.262765
0.290473
0.321903
0.356672
0.394155
0.433596
0.474399
0.515931
0.557552
0.598649
0.638673
0.677166
0.713775
0.748248
0.780426
0.810234
0.837669
0.862785
0.885685
0.906505
0.925397
0.942526
0.958055
0.972139
0.984918
0.996512
1.00702
1.01651
1.02505
1.03266
1.03934
1.0451
1.04991
1.05375
1.05657
1.05832
1.05898
1.05849
1.05683
1.05396
1.04987
1.04457
1.03804
1.03033
1.02146
1.01148
1.00046
0.988468
0.975599
0.961949
0.947627
0.932748
0.91743
0.901798
0.885975
0.870084
0.854246
0.838578
0.823193
0.808196
0.793685
0.779751
0.766471
0.753914
0.742131
0.731159
0.72102
0.711718
0.703246
0.695589
0.688719
0.6826
0.677187
0.672426
0.668256
0.66461
0.661415
0.658594
0.656068
0.653763
0.651606
0.649572
0.647632
0.645968
0.644665
0.644551
0.645277
0.164797
0.163875
0.162998
0.162212
0.161573
0.161149
0.161034
0.161341
0.162195
0.163748
0.166181
0.169687
0.174467
0.180726
0.188678
0.198533
0.210471
0.224618
0.240985
0.259609
0.280446
0.303369
0.328165
0.354541
0.38214
0.410567
0.439411
0.468273
0.496785
0.524627
0.551539
0.57732
0.601832
0.624987
0.646745
0.667104
0.686086
0.703735
0.7201
0.735238
0.749201
0.762034
0.773776
0.784454
0.794085
0.802674
0.810219
0.816711
0.822134
0.82647
0.829702
0.831815
0.832799
0.83265
0.831374
0.828985
0.825507
0.820976
0.81544
0.808956
0.801591
0.793424
0.784541
0.775033
0.765001
0.754546
0.743772
0.732786
0.721689
0.710586
0.699574
0.688747
0.678196
0.668003
0.658244
0.648988
0.640293
0.632207
0.624762
0.617982
0.611874
0.606439
0.601664
0.597532
0.594015
0.591078
0.588677
0.586763
0.58528
0.584166
0.583356
0.58278
0.582376
0.582078
0.581864
0.581706
0.581758
0.582073
0.583312
0.584991
0.166889
0.165976
0.165066
0.164173
0.163312
0.162504
0.161777
0.16117
0.160729
0.160505
0.160562
0.160974
0.16182
0.163187
0.165168
0.167861
0.171369
0.175792
0.181213
0.187721
0.195404
0.204342
0.214595
0.226199
0.239155
0.253426
0.26893
0.285545
0.30311
0.321434
0.340307
0.359512
0.378837
0.398084
0.417073
0.435654
0.453702
0.471119
0.487831
0.503784
0.518939
0.533271
0.54676
0.559393
0.571157
0.582041
0.592031
0.601111
0.609266
0.61648
0.622736
0.628022
0.632328
0.635651
0.637992
0.639361
0.639777
0.639267
0.637866
0.635619
0.632579
0.628809
0.624376
0.619354
0.613824
0.607868
0.601571
0.595019
0.588297
0.581489
0.574677
0.567941
0.561354
0.554989
0.548911
0.543179
0.537846
0.532955
0.528541
0.524627
0.521228
0.518348
0.515986
0.51413
0.512764
0.511862
0.511393
0.511318
0.511593
0.512168
0.512989
0.513998
0.51514
0.516361
0.517639
0.518948
0.520415
0.522064
0.524403
0.526837
0.168835
0.167969
0.1671
0.16623
0.165369
0.16452
0.163693
0.162901
0.16216
0.161491
0.160916
0.160469
0.160182
0.160095
0.160251
0.160697
0.161481
0.162654
0.164261
0.166347
0.168961
0.17215
0.175962
0.180442
0.185633
0.191569
0.198275
0.205766
0.214039
0.223078
0.232846
0.243288
0.254334
0.265898
0.277885
0.290192
0.302714
0.315347
0.32799
0.340551
0.352945
0.365094
0.376929
0.388391
0.399424
0.409979
0.420012
0.42948
0.438346
0.446575
0.454135
0.460998
0.46714
0.472545
0.477198
0.481096
0.484239
0.486638
0.488309
0.489279
0.48958
0.489252
0.488342
0.486902
0.484991
0.482669
0.48
0.477051
0.473886
0.470574
0.467179
0.463765
0.460395
0.457128
0.45402
0.451122
0.448482
0.446141
0.444132
0.442481
0.441208
0.440322
0.439829
0.439727
0.440007
0.440655
0.441649
0.442961
0.444559
0.446402
0.448449
0.45065
0.452961
0.455335
0.457753
0.460191
0.462749
0.465427
0.468597
0.471577
0.170384
0.169571
0.168753
0.16793
0.167106
0.166282
0.16546
0.164646
0.163847
0.16307
0.162326
0.161627
0.160989
0.16043
0.15997
0.159633
0.159443
0.159428
0.159616
0.160031
0.160701
0.161651
0.162908
0.164497
0.166442
0.168767
0.171493
0.174637
0.178218
0.182245
0.186726
0.191664
0.197053
0.202882
0.209132
0.215777
0.222784
0.230115
0.237725
0.245566
0.253588
0.261737
0.26996
0.278202
0.28641
0.294531
0.302515
0.31031
0.31787
0.325147
0.3321
0.338686
0.34487
0.350619
0.355905
0.360706
0.365005
0.368794
0.372068
0.374833
0.377098
0.378882
0.380207
0.381104
0.381606
0.381754
0.381588
0.381155
0.380501
0.379675
0.378725
0.377702
0.376653
0.375627
0.374669
0.373823
0.37313
0.372627
0.372346
0.372314
0.372552
0.373075
0.373893
0.37501
0.376427
0.378135
0.380123
0.382371
0.384857
0.387551
0.390418
0.393422
0.396525
0.399687
0.402893
0.406117
0.409439
0.412836
0.416567
0.419886
0.171562
0.170796
0.170024
0.169247
0.168465
0.167679
0.166891
0.166103
0.165316
0.164535
0.163764
0.163006
0.162269
0.161561
0.160892
0.160272
0.159716
0.159237
0.158851
0.158576
0.158426
0.158419
0.158571
0.158899
0.159418
0.160143
0.161088
0.162264
0.163684
0.165356
0.167289
0.169489
0.171962
0.174708
0.17773
0.181025
0.184588
0.188411
0.192483
0.196792
0.201319
0.206046
0.210951
0.216008
0.221189
0.226467
0.231808
0.237181
0.242551
0.247882
0.25314
0.258289
0.263294
0.268122
0.272742
0.277126
0.281249
0.285091
0.288636
0.291873
0.294796
0.297405
0.299705
0.301705
0.30342
0.30487
0.306078
0.30707
0.307875
0.308525
0.309053
0.309493
0.309882
0.310254
0.310647
0.311093
0.311629
0.312284
0.313088
0.314065
0.315238
0.316623
0.318234
0.320078
0.322161
0.324481
0.327033
0.329805
0.332782
0.335942
0.339259
0.342705
0.346249
0.349859
0.35352
0.357208
0.360984
0.364805
0.368839
0.372305
0.172416
0.17169
0.170959
0.170221
0.169479
0.168731
0.16798
0.167224
0.166466
0.165707
0.164948
0.164191
0.16344
0.162697
0.161967
0.161255
0.160569
0.159915
0.159302
0.158739
0.158237
0.157805
0.157456
0.157199
0.157045
0.157007
0.157092
0.157311
0.157673
0.158184
0.158851
0.159681
0.160676
0.161842
0.16318
0.164693
0.166381
0.168244
0.17028
0.172486
0.17486
0.177395
0.180085
0.182922
0.185896
0.188994
0.192204
0.195511
0.198897
0.202344
0.205831
0.209337
0.212839
0.216315
0.219741
0.223095
0.226355
0.229501
0.232515
0.235382
0.238089
0.240628
0.242994
0.245184
0.247201
0.24905
0.250741
0.252286
0.253701
0.255002
0.256211
0.257349
0.258441
0.259511
0.260585
0.26169
0.262851
0.264095
0.265445
0.266923
0.26855
0.270341
0.272312
0.274473
0.276831
0.279389
0.282146
0.285097
0.288232
0.291535
0.294989
0.29857
0.302255
0.306017
0.309844
0.313712
0.317665
0.321648
0.325759
0.329205
0.173028
0.172334
0.171635
0.170931
0.170221
0.169507
0.168787
0.168063
0.167336
0.166604
0.16587
0.165134
0.164396
0.16366
0.162925
0.162195
0.161473
0.160762
0.160068
0.159394
0.158747
0.158132
0.157558
0.15703
0.156556
0.156143
0.1558
0.155533
0.155349
0.155254
0.155254
0.155353
0.155558
0.15587
0.156294
0.156831
0.157483
0.158252
0.159138
0.160141
0.161261
0.162496
0.163846
0.165308
0.166879
0.168555
0.170331
0.172201
0.174159
0.176196
0.178302
0.180468
0.182682
0.18493
0.187199
0.189476
0.191746
0.193995
0.19621
0.198377
0.200485
0.202524
0.204487
0.206367
0.208162
0.20987
0.211493
0.213035
0.214503
0.215905
0.217253
0.218559
0.219838
0.221107
0.222384
0.223687
0.225036
0.226451
0.22795
0.229553
0.231276
0.233136
0.235145
0.237315
0.239655
0.242171
0.244863
0.247731
0.25077
0.253968
0.257315
0.260791
0.26438
0.268059
0.271818
0.275635
0.279539
0.283469
0.28747
0.290766
0.173439
0.172772
0.172099
0.171421
0.170738
0.170051
0.169359
0.168662
0.167961
0.167256
0.166547
0.165834
0.165117
0.164398
0.163677
0.162955
0.162234
0.161514
0.160799
0.160091
0.159393
0.158709
0.158042
0.157396
0.156777
0.156189
0.155638
0.155127
0.154663
0.154251
0.153894
0.153598
0.153366
0.153202
0.15311
0.153091
0.153148
0.153283
0.153497
0.153791
0.154167
0.154623
0.155161
0.15578
0.156479
0.157258
0.158114
0.159046
0.160051
0.161127
0.162268
0.163471
0.16473
0.16604
0.167393
0.168781
0.170198
0.171634
0.173082
0.174532
0.175977
0.177409
0.178822
0.180211
0.181569
0.182896
0.184189
0.185449
0.186678
0.187881
0.189061
0.190227
0.191389
0.192555
0.193739
0.194953
0.196212
0.19753
0.198922
0.200404
0.20199
0.203693
0.205526
0.207501
0.209625
0.211908
0.214351
0.216957
0.219724
0.222646
0.225714
0.228915
0.232237
0.235662
0.239181
0.242772
0.246457
0.250168
0.253921
0.256973
0.173715
0.173067
0.172414
0.171756
0.171094
0.170428
0.169757
0.169082
0.168403
0.16772
0.167032
0.166341
0.165645
0.164946
0.164243
0.163537
0.162829
0.162119
0.161408
0.160698
0.15999
0.159286
0.158588
0.157899
0.15722
0.156556
0.15591
0.155285
0.154683
0.15411
0.153568
0.153061
0.152591
0.152163
0.151779
0.151441
0.151152
0.150914
0.150729
0.150597
0.150521
0.150501
0.150538
0.150631
0.150783
0.150992
0.151258
0.151582
0.151961
0.152396
0.152884
0.153424
0.154014
0.154651
0.155333
0.156054
0.156812
0.157603
0.158421
0.159262
0.160121
0.160993
0.161874
0.162761
0.163649
0.164536
0.16542
0.166301
0.167178
0.168054
0.168931
0.169814
0.170708
0.171619
0.172556
0.173528
0.174544
0.175617
0.176758
0.177978
0.179291
0.180707
0.182238
0.183895
0.185687
0.187621
0.189704
0.191938
0.194324
0.196859
0.19954
0.202356
0.205299
0.208354
0.211515
0.214762
0.218109
0.221487
0.224898
0.227648
0.173885
0.17325
0.172612
0.171969
0.171323
0.170672
0.170018
0.16936
0.168698
0.168031
0.167362
0.166688
0.16601
0.165328
0.164642
0.163953
0.16326
0.162564
0.161865
0.161165
0.160462
0.15976
0.159058
0.158358
0.157662
0.156972
0.156288
0.155614
0.154952
0.154303
0.153671
0.153058
0.152465
0.151897
0.151353
0.150838
0.150353
0.1499
0.14948
0.149095
0.148747
0.148436
0.148163
0.14793
0.147737
0.147585
0.147473
0.147402
0.147373
0.147384
0.147436
0.147528
0.147659
0.147829
0.148036
0.148278
0.148554
0.148863
0.149201
0.149566
0.149956
0.150368
0.150801
0.15125
0.151715
0.152193
0.152684
0.153186
0.1537
0.154226
0.154766
0.155322
0.155898
0.156499
0.157129
0.157796
0.158506
0.159269
0.160093
0.160987
0.161963
0.16303
0.164198
0.165477
0.166876
0.168403
0.170066
0.171868
0.173813
0.175902
0.178131
0.180497
0.182993
0.185609
0.188338
0.191165
0.194097
0.197069
0.200079
0.202498
0.173991
0.173366
0.172737
0.172105
0.17147
0.170831
0.170188
0.169542
0.168892
0.168239
0.167582
0.166922
0.166257
0.16559
0.164918
0.164243
0.163564
0.162882
0.162196
0.161508
0.160816
0.160123
0.159428
0.158731
0.158035
0.15734
0.156647
0.155957
0.155272
0.154592
0.153921
0.153258
0.152607
0.151968
0.151343
0.150733
0.150142
0.149569
0.149016
0.148485
0.147977
0.147493
0.147034
0.146601
0.146195
0.145817
0.145466
0.145144
0.144851
0.144587
0.144352
0.144147
0.143971
0.143823
0.143705
0.143614
0.143551
0.143515
0.143504
0.143518
0.143556
0.143616
0.143697
0.143798
0.143918
0.144056
0.144211
0.144383
0.144572
0.144779
0.145004
0.145249
0.145517
0.14581
0.146133
0.14649
0.146887
0.14733
0.147825
0.148382
0.149007
0.14971
0.150499
0.151384
0.152374
0.153476
0.154698
0.156046
0.157526
0.15914
0.160888
0.16277
0.164782
0.166917
0.169172
0.171532
0.174003
0.176524
0.179099
0.181172
0.17405
0.173431
0.172809
0.172184
0.171556
0.170924
0.170289
0.169652
0.169011
0.168366
0.167719
0.167068
0.166415
0.165757
0.165097
0.164432
0.163765
0.163094
0.16242
0.161742
0.161061
0.160378
0.159692
0.159004
0.158314
0.157623
0.156932
0.156241
0.155551
0.154863
0.154177
0.153496
0.15282
0.152149
0.151486
0.150831
0.150185
0.14955
0.148926
0.148315
0.147718
0.147136
0.146569
0.146018
0.145485
0.14497
0.144473
0.143995
0.143537
0.143099
0.142681
0.142283
0.141906
0.14155
0.141215
0.140901
0.140607
0.140334
0.140081
0.139848
0.139634
0.139439
0.139262
0.139103
0.138961
0.138836
0.138728
0.138637
0.138563
0.138505
0.138466
0.138446
0.138447
0.138471
0.13852
0.138599
0.138711
0.138861
0.139054
0.139296
0.139593
0.139954
0.140385
0.140894
0.14149
0.142181
0.142974
0.143877
0.144895
0.146034
0.147297
0.148685
0.150199
0.151835
0.153593
0.15546
0.157442
0.159485
0.161603
0.16332
0.174085
0.17347
0.172852
0.172231
0.171608
0.170981
0.170352
0.16972
0.169084
0.168446
0.167805
0.167161
0.166514
0.165864
0.165211
0.164555
0.163896
0.163233
0.162568
0.161899
0.161227
0.160553
0.159875
0.159196
0.158513
0.157829
0.157144
0.156457
0.15577
0.155082
0.154395
0.153709
0.153025
0.152343
0.151664
0.150989
0.150318
0.149653
0.148994
0.148342
0.147698
0.147062
0.146435
0.145819
0.145212
0.144617
0.144034
0.143463
0.142905
0.14236
0.141829
0.141312
0.140809
0.14032
0.139846
0.139386
0.138942
0.138512
0.138097
0.137697
0.137311
0.13694
0.136583
0.136241
0.135912
0.135597
0.135296
0.13501
0.134737
0.134478
0.134235
0.134007
0.133797
0.133605
0.133433
0.133284
0.13316
0.133066
0.133004
0.132979
0.132996
0.133061
0.13318
0.133359
0.133606
0.133928
0.134332
0.134825
0.135414
0.136106
0.136905
0.137816
0.138842
0.139983
0.141241
0.142607
0.144089
0.14564
0.147286
0.148637
0.174103
0.17349
0.172875
0.172257
0.171636
0.171012
0.170386
0.169757
0.169125
0.168491
0.167854
0.167214
0.166572
0.165927
0.165279
0.164628
0.163974
0.163318
0.162659
0.161996
0.161331
0.160663
0.159993
0.15932
0.158645
0.157967
0.157288
0.156607
0.155924
0.155241
0.154556
0.153872
0.153187
0.152503
0.15182
0.151138
0.150458
0.14978
0.149106
0.148435
0.147767
0.147105
0.146448
0.145796
0.14515
0.144512
0.14388
0.143256
0.14264
0.142032
0.141434
0.140844
0.140264
0.139693
0.139133
0.138583
0.138043
0.137513
0.136995
0.136486
0.135988
0.135501
0.135025
0.134559
0.134103
0.133659
0.133224
0.1328
0.132387
0.131985
0.131595
0.131216
0.13085
0.130497
0.13016
0.129838
0.129535
0.129252
0.128992
0.128759
0.128555
0.128385
0.128253
0.128165
0.128126
0.128142
0.128219
0.128364
0.128583
0.128883
0.12927
0.129749
0.130325
0.131002
0.131782
0.132663
0.133654
0.134715
0.135887
0.136861
0.174113
0.173502
0.172888
0.172272
0.171652
0.171031
0.170406
0.169779
0.16915
0.168518
0.167883
0.167246
0.166607
0.165964
0.16532
0.164672
0.164022
0.16337
0.162715
0.162057
0.161396
0.160733
0.160068
0.1594
0.15873
0.158057
0.157383
0.156707
0.156029
0.15535
0.15467
0.153988
0.153306
0.152623
0.151941
0.151258
0.150576
0.149894
0.149214
0.148535
0.147858
0.147183
0.146511
0.145842
0.145177
0.144515
0.143857
0.143204
0.142556
0.141913
0.141276
0.140645
0.14002
0.139401
0.138789
0.138184
0.137586
0.136996
0.136412
0.135836
0.135268
0.134707
0.134154
0.133609
0.133071
0.132541
0.132018
0.131504
0.130997
0.130497
0.130006
0.129524
0.12905
0.128585
0.128131
0.127687
0.127256
0.126838
0.126436
0.12605
0.125684
0.125341
0.125023
0.124734
0.124479
0.124261
0.124085
0.123957
0.123882
0.123865
0.123913
0.12403
0.124223
0.124495
0.124853
0.125295
0.125833
0.126434
0.127151
0.127749
0.174119
0.173508
0.172895
0.172279
0.171661
0.17104
0.170417
0.169791
0.169163
0.168532
0.167899
0.167263
0.166625
0.165985
0.165342
0.164697
0.164049
0.163399
0.162746
0.162091
0.161433
0.160773
0.160111
0.159447
0.15878
0.158112
0.157441
0.156769
0.156095
0.155419
0.154742
0.154064
0.153385
0.152705
0.152024
0.151343
0.150661
0.149979
0.149298
0.148617
0.147937
0.147257
0.146579
0.145902
0.145228
0.144555
0.143885
0.143217
0.142552
0.141891
0.141233
0.140578
0.139928
0.139282
0.138641
0.138004
0.137372
0.136745
0.136123
0.135506
0.134895
0.134289
0.133689
0.133094
0.132505
0.131921
0.131343
0.13077
0.130202
0.129641
0.129084
0.128533
0.127989
0.12745
0.126917
0.126392
0.125874
0.125365
0.124865
0.124376
0.123899
0.123435
0.122988