/*--------------------------------*- C++ -*----------------------------------*\
| =========                 |                                                 |
| \\      /  F ield         | OpenFOAM: The Open Source CFD Toolbox           |
|  \\    /   O peration     | Version:  4.1                                   |
|   \\  /    A nd           | Web:      www.OpenFOAM.org                      |
|    \\/     M anipulation  |                                                 |
\*---------------------------------------------------------------------------*/
FoamFile
{
    version     2.0;
    format      ascii;
    class       volScalarField;
    location    "1100";
    object      nut;
}
// * * * * * * * * * * * * * * * * * * * * * * * * * * * * * * * * * * * * * //

dimensions      [0 2 -1 0 0 0 0];

internalField   nonuniform List<scalar> 
6820
(
4.53774e-05
4.96674e-05
5.35596e-05
5.7033e-05
6.00872e-05
6.27329e-05
6.49892e-05
6.68824e-05
6.84449e-05
6.97114e-05
7.07177e-05
7.14978e-05
7.20841e-05
7.25058e-05
7.27893e-05
7.29578e-05
7.30314e-05
7.30275e-05
7.29609e-05
7.28442e-05
7.26882e-05
7.25016e-05
7.22921e-05
7.20657e-05
7.18276e-05
7.15822e-05
7.13329e-05
7.10825e-05
7.08333e-05
7.05874e-05
7.03458e-05
7.01145e-05
6.99706e-05
0.000389004
0.000214804
0.000161971
0.000134577
0.000117082
0.000104841
9.58724e-05
8.91195e-05
8.39493e-05
7.99547e-05
7.68576e-05
7.44593e-05
7.26133e-05
7.12095e-05
7.01639e-05
6.94111e-05
6.88998e-05
6.85893e-05
6.84467e-05
6.84457e-05
6.85646e-05
6.87854e-05
6.90931e-05
6.94752e-05
6.99209e-05
7.04211e-05
7.09681e-05
7.15548e-05
7.21759e-05
7.28246e-05
7.35008e-05
7.41943e-05
7.51909e-05
0.000867009
0.000638273
0.00050769
0.000428082
0.000375014
0.000336916
0.000308048
0.000285295
0.000266813
0.00025144
0.000238413
0.00022721
0.000217458
0.00020889
0.000201303
0.000194545
0.000188496
0.000183062
0.000178166
0.00017375
0.000169743
0.000166041
0.000162606
0.000159413
0.000156443
0.00015368
0.000151107
0.000148711
0.000146478
0.000144399
0.000142458
0.000140657
0.000139055
0.000991214
0.000902164
0.000807377
0.000726622
0.000661863
0.000610175
0.000568431
0.000534166
0.000505567
0.000481331
0.000460513
0.000442414
0.000426509
0.0004124
0.00039978
0.000388413
0.000378111
0.000368724
0.000360134
0.000352242
0.000344971
0.00033822
0.000331916
0.000326008
0.000320452
0.000315214
0.000310265
0.000305579
0.000301136
0.000296916
0.000292902
0.000289081
0.000285433
0.00101005
0.00098739
0.000948626
0.000902916
0.000857083
0.00081444
0.000776076
0.000742011
0.000711858
0.000685132
0.000661359
0.000640115
0.000621037
0.000603821
0.00058821
0.00057399
0.000560984
0.000549041
0.000538035
0.000527861
0.000518429
0.000509658
0.000501477
0.000493823
0.000486643
0.000479889
0.000473523
0.000467508
0.000461815
0.000456416
0.000451288
0.000446407
0.000441712
0.00101185
0.00100724
0.000995356
0.000976942
0.000954121
0.000929118
0.000903659
0.000878801
0.000855099
0.000832805
0.000812001
0.000792668
0.000774737
0.000758113
0.000742692
0.000728374
0.00071506
0.000702662
0.000691095
0.000680287
0.00067017
0.000660683
0.000651773
0.000643389
0.000635487
0.000628027
0.000620973
0.000614293
0.000607959
0.000601943
0.000596222
0.000590768
0.0005855
0.00101178
0.00101089
0.00100777
0.00100182
0.000992905
0.000981471
0.000968242
0.00095392
0.000939072
0.000924117
0.000909347
0.000894953
0.000881053
0.000867715
0.00085497
0.000842827
0.00083128
0.000820311
0.000809899
0.000800017
0.000790637
0.000781725
0.000773254
0.0007652
0.000757539
0.000750246
0.0007433
0.00073668
0.000730366
0.000724339
0.000718581
0.000713066
0.000707706
0.00101168
0.00101136
0.00101047
0.00100868
0.00100565
0.0010012
0.000995412
0.000988494
0.000980691
0.000972245
0.000963375
0.000954264
0.000945058
0.000935871
0.000926788
0.00091787
0.000909162
0.000900694
0.000892486
0.000884548
0.000876885
0.000869497
0.00086238
0.000855529
0.000848937
0.000842597
0.000836499
0.000830636
0.000824999
0.000819577
0.00081436
0.000809329
0.000804393
0.00101165
0.00101137
0.00101095
0.0010103
0.00100928
0.00100769
0.00100543
0.00100251
0.000998941
0.000994803
0.000990178
0.00098516
0.000979838
0.000974296
0.000968606
0.00096283
0.000957019
0.000951215
0.00094545
0.00093975
0.000934136
0.000928624
0.000923226
0.000917951
0.000912805
0.000907792
0.000902914
0.000898172
0.000893566
0.000889095
0.000884756
0.000880532
0.000876338
0.00101164
0.00101135
0.00101102
0.00101063
0.00101016
0.00100951
0.0010086
0.00100738
0.00100583
0.00100394
0.00100172
0.000999201
0.000996409
0.000993382
0.000990158
0.000986773
0.000983263
0.000979658
0.000975986
0.000972273
0.000968538
0.0009648
0.000961074
0.000957374
0.000953709
0.000950089
0.000946521
0.000943011
0.000939564
0.000936182
0.000932867
0.000929606
0.000926318
0.00101163
0.00101134
0.00101103
0.0010107
0.00101036
0.00100998
0.00100952
0.00100894
0.00100823
0.00100736
0.00100632
0.00100511
0.00100373
0.00100219
0.00100049
0.000998656
0.000996699
0.000994636
0.000992481
0.00099025
0.000987958
0.000985618
0.000983241
0.000980839
0.000978421
0.000975996
0.000973572
0.000971156
0.000968753
0.000966369
0.000964005
0.000961652
0.000959227
0.00101163
0.00101134
0.00101103
0.00101072
0.00101041
0.0010101
0.00100977
0.00100939
0.00100897
0.00100849
0.00100793
0.0010073
0.00100658
0.00100577
0.00100487
0.00100388
0.00100282
0.00100167
0.00100045
0.000999166
0.000997824
0.00099643
0.000994992
0.000993517
0.00099201
0.000990479
0.000988927
0.000987362
0.000985787
0.000984206
0.000982622
0.000981024
0.000979332
0.00101163
0.00101133
0.00101104
0.00101073
0.00101043
0.00101014
0.00100984
0.00100953
0.00100921
0.00100886
0.0010085
0.0010081
0.00100766
0.00100719
0.00100667
0.00100611
0.00100551
0.00100486
0.00100416
0.00100342
0.00100265
0.00100183
0.00100098
0.0010001
0.000999189
0.000998253
0.000997294
0.000996317
0.000995323
0.000994316
0.000993296
0.00099225
0.000991102
0.00101163
0.00101133
0.00101104
0.00101074
0.00101045
0.00101016
0.00100987
0.00100958
0.00100929
0.00100899
0.00100869
0.00100837
0.00100804
0.0010077
0.00100734
0.00100696
0.00100657
0.00100615
0.0010057
0.00100524
0.00100476
0.00100425
0.00100372
0.00100317
0.00100261
0.00100202
0.00100142
0.00100081
0.00100018
0.000999537
0.000998884
0.000998207
0.000997426
0.00101163
0.00101133
0.00101104
0.00101075
0.00101046
0.00101018
0.00100989
0.00100961
0.00100933
0.00100905
0.00100877
0.00100848
0.0010082
0.00100791
0.00100761
0.00100732
0.00100701
0.0010067
0.00100638
0.00100604
0.0010057
0.00100536
0.001005
0.00100463
0.00100425
0.00100386
0.00100346
0.00100306
0.00100264
0.00100222
0.00100179
0.00100134
0.00100078
0.00101163
0.00101133
0.00101105
0.00101075
0.00101047
0.00101019
0.00100991
0.00100963
0.00100936
0.00100908
0.00100881
0.00100854
0.00100827
0.001008
0.00100773
0.00100746
0.00100719
0.00100692
0.00100665
0.00100637
0.0010061
0.00100582
0.00100553
0.00100525
0.00100496
0.00100467
0.00100437
0.00100407
0.00100377
0.00100346
0.00100315
0.00100282
0.0010024
0.00101163
0.00101133
0.00101105
0.00101076
0.00101048
0.0010102
0.00100992
0.00100965
0.00100938
0.00100911
0.00100884
0.00100858
0.00100831
0.00100805
0.0010078
0.00100754
0.00100729
0.00100704
0.00100679
0.00100654
0.00100629
0.00100605
0.0010058
0.00100556
0.00100531
0.00100507
0.00100483
0.00100458
0.00100434
0.0010041
0.00100385
0.00100359
0.00100323
0.00101163
0.00101133
0.00101105
0.00101076
0.00101048
0.00101021
0.00100994
0.00100966
0.0010094
0.00100913
0.00100887
0.00100861
0.00100835
0.00100809
0.00100784
0.00100759
0.00100735
0.00100711
0.00100687
0.00100663
0.00100639
0.00100616
0.00100593
0.00100571
0.00100548
0.00100526
0.00100504
0.00100482
0.00100461
0.00100439
0.00100418
0.00100395
0.00100363
0.00101163
0.00101133
0.00101105
0.00101077
0.00101049
0.00101022
0.00100994
0.00100968
0.00100941
0.00100915
0.00100889
0.00100863
0.00100838
0.00100812
0.00100788
0.00100763
0.00100739
0.00100716
0.00100692
0.00100669
0.00100647
0.00100624
0.00100602
0.00100581
0.00100559
0.00100538
0.00100517
0.00100497
0.00100477
0.00100457
0.00100437
0.00100416
0.00100386
0.00101163
0.00101133
0.00101105
0.00101077
0.00101049
0.00101022
0.00100995
0.00100969
0.00100942
0.00100916
0.0010089
0.00100865
0.0010084
0.00100815
0.00100791
0.00100767
0.00100743
0.0010072
0.00100697
0.00100674
0.00100652
0.0010063
0.00100608
0.00100587
0.00100567
0.00100546
0.00100526
0.00100506
0.00100487
0.00100468
0.00100449
0.00100428
0.00100399
0.00101163
0.00101133
0.00101105
0.00101077
0.0010105
0.00101023
0.00100996
0.00100969
0.00100943
0.00100917
0.00100892
0.00100867
0.00100842
0.00100817
0.00100793
0.00100769
0.00100746
0.00100723
0.001007
0.00100678
0.00100656
0.00100635
0.00100614
0.00100593
0.00100572
0.00100552
0.00100533
0.00100513
0.00100495
0.00100476
0.00100457
0.00100438
0.00100409
0.00101163
0.00101133
0.00101105
0.00101077
0.0010105
0.00101023
0.00100996
0.0010097
0.00100944
0.00100918
0.00100893
0.00100868
0.00100843
0.00100819
0.00100795
0.00100772
0.00100749
0.00100726
0.00100704
0.00100682
0.0010066
0.00100639
0.00100618
0.00100597
0.00100577
0.00100557
0.00100538
0.00100519
0.00100501
0.00100482
0.00100464
0.00100445
0.00100416
0.00101163
0.00101133
0.00101105
0.00101077
0.0010105
0.00101023
0.00100997
0.00100971
0.00100945
0.00100919
0.00100894
0.00100869
0.00100845
0.00100821
0.00100797
0.00100774
0.00100751
0.00100728
0.00100706
0.00100684
0.00100663
0.00100642
0.00100621
0.00100601
0.00100581
0.00100562
0.00100542
0.00100524
0.00100505
0.00100487
0.00100469
0.0010045
0.00100422
0.00101163
0.00101133
0.00101105
0.00101077
0.0010105
0.00101023
0.00100997
0.00100971
0.00100945
0.0010092
0.00100895
0.0010087
0.00100846
0.00100822
0.00100798
0.00100775
0.00100753
0.0010073
0.00100708
0.00100687
0.00100665
0.00100644
0.00100624
0.00100604
0.00100584
0.00100565
0.00100546
0.00100527
0.00100509
0.00100491
0.00100474
0.00100455
0.00100427
0.00101163
0.00101133
0.00101105
0.00101077
0.0010105
0.00101024
0.00100997
0.00100971
0.00100946
0.0010092
0.00100895
0.00100871
0.00100847
0.00100823
0.00100799
0.00100776
0.00100754
0.00100731
0.00100709
0.00100688
0.00100667
0.00100646
0.00100626
0.00100606
0.00100586
0.00100567
0.00100548
0.00100529
0.00100511
0.00100493
0.00100476
0.00100457
0.00100429
0.00101163
0.00101133
0.00101105
0.00101077
0.0010105
0.00101024
0.00100997
0.00100971
0.00100946
0.0010092
0.00100895
0.00100871
0.00100847
0.00100823
0.001008
0.00100777
0.00100754
0.00100732
0.0010071
0.00100689
0.00100668
0.00100647
0.00100627
0.00100607
0.00100588
0.00100568
0.0010055
0.00100531
0.00100513
0.00100496
0.00100478
0.00100459
0.00100432
0.00101163
0.00101133
0.00101105
0.00101077
0.0010105
0.00101024
0.00100997
0.00100971
0.00100946
0.0010092
0.00100896
0.00100871
0.00100847
0.00100823
0.001008
0.00100777
0.00100754
0.00100732
0.0010071
0.00100688
0.00100667
0.00100646
0.00100626
0.00100606
0.00100586
0.00100567
0.00100548
0.0010053
0.00100512
0.00100494
0.00100476
0.00100457
0.00100429
0.00101163
0.00101133
0.00101105
0.00101077
0.0010105
0.00101024
0.00100997
0.00100971
0.00100945
0.0010092
0.00100895
0.00100871
0.00100847
0.00100823
0.00100799
0.00100776
0.00100754
0.00100732
0.0010071
0.00100688
0.00100667
0.00100647
0.00100627
0.00100607
0.00100587
0.00100568
0.00100549
0.00100531
0.00100513
0.00100495
0.00100478
0.00100459
0.00100431
0.00101163
0.00101133
0.00101105
0.00101077
0.0010105
0.00101023
0.00100997
0.00100971
0.00100945
0.0010092
0.00100894
0.0010087
0.00100845
0.00100821
0.00100797
0.00100774
0.00100751
0.00100729
0.00100706
0.00100684
0.00100663
0.00100642
0.00100621
0.00100601
0.00100581
0.00100562
0.00100542
0.00100524
0.00100505
0.00100487
0.00100469
0.0010045
0.00100422
0.00101163
0.00101133
0.00101105
0.00101077
0.0010105
0.00101023
0.00100997
0.0010097
0.00100945
0.00100919
0.00100894
0.00100869
0.00100845
0.00100821
0.00100798
0.00100775
0.00100752
0.0010073
0.00100708
0.00100686
0.00100665
0.00100644
0.00100623
0.00100603
0.00100583
0.00100564
0.00100544
0.00100526
0.00100507
0.00100489
0.00100471
0.00100451
0.00100423
0.00101163
0.00101133
0.00101105
0.00101077
0.0010105
0.00101023
0.00100996
0.00100969
0.00100943
0.00100917
0.00100891
0.00100866
0.00100841
0.00100816
0.00100791
0.00100767
0.00100744
0.0010072
0.00100697
0.00100674
0.00100652
0.0010063
0.00100608
0.00100587
0.00100566
0.00100545
0.00100525
0.00100505
0.00100486
0.00100466
0.00100447
0.00100426
0.00100397
0.00101163
0.00101133
0.00101105
0.00101077
0.00101049
0.00101022
0.00100996
0.0010097
0.00100944
0.00100918
0.00100893
0.00100868
0.00100843
0.00100819
0.00100795
0.00100771
0.00100747
0.00100723
0.00100699
0.00100676
0.00100653
0.0010063
0.00100606
0.00100584
0.00100561
0.00100538
0.00100516
0.00100493
0.00100471
0.00100449
0.00100426
0.00100403
0.00100369
0.00101163
0.00101133
0.00101105
0.00101077
0.00101048
0.0010102
0.00100992
0.00100964
0.00100935
0.00100907
0.00100879
0.00100851
0.00100822
0.00100794
0.00100766
0.00100738
0.0010071
0.00100681
0.00100653
0.00100624
0.00100595
0.00100566
0.00100536
0.00100507
0.00100477
0.00100447
0.00100416
0.00100386
0.00100355
0.00100325
0.00100293
0.00100261
0.00100218
0.00101163
0.00101134
0.00101105
0.00101077
0.00101049
0.00101021
0.00100993
0.00100964
0.00100934
0.00100903
0.00100871
0.00100837
0.00100802
0.00100766
0.00100728
0.00100689
0.00100648
0.00100606
0.00100562
0.00100516
0.00100469
0.00100421
0.00100371
0.0010032
0.00100268
0.00100215
0.00100161
0.00100106
0.00100051
0.000999942
0.00099937
0.000998776
0.000998084
0.00101163
0.00101134
0.00101103
0.00101069
0.00101033
0.00100994
0.00100951
0.00100904
0.00100853
0.00100796
0.00100734
0.00100667
0.00100594
0.00100515
0.00100431
0.00100342
0.00100248
0.00100149
0.00100047
0.000999414
0.000998324
0.000997207
0.000996067
0.000994906
0.00099373
0.000992542
0.000991344
0.000990139
0.00098893
0.00098772
0.000986508
0.000985283
0.000983969
0.00101164
0.00101133
0.00101094
0.00101042
0.00100973
0.00100883
0.0010077
0.00100635
0.00100478
0.001003
0.00100104
0.000998909
0.000996631
0.000994228
0.000991719
0.000989125
0.000986463
0.00098375
0.000981
0.000978226
0.00097544
0.000972653
0.000969872
0.000967103
0.000964354
0.00096163
0.000958937
0.000956278
0.000953656
0.000951075
0.000948535
0.000946023
0.000943466
0.00101162
0.0010106
0.00100853
0.00100543
0.0010014
0.000996513
0.00099091
0.000984747
0.000978174
0.000971314
0.000964272
0.000957136
0.000949978
0.000942854
0.000935809
0.000928876
0.000922082
0.000915443
0.000908975
0.000902685
0.000896578
0.000890657
0.000884923
0.000879373
0.000874006
0.000868819
0.000863806
0.000858963
0.000854286
0.000849769
0.000845405
0.000841179
0.000837016
0.00100895
0.000995379
0.000976042
0.000953694
0.00093032
0.000907093
0.000884657
0.000863329
0.000843228
0.000824388
0.000806781
0.000790352
0.000775024
0.00076072
0.000747357
0.00073486
0.000723158
0.000712183
0.000701876
0.000692182
0.000683051
0.000674439
0.000666305
0.000658613
0.000651329
0.000644424
0.000637871
0.000631644
0.000625722
0.000620084
0.00061471
0.00060958
0.000604632
0.000892788
0.000742255
0.000649202
0.00058554
0.000538566
0.000502138
0.000472884
0.000448753
0.000428416
0.000410981
0.000395823
0.000382492
0.000370655
0.000360056
0.0003505
0.000341831
0.000333927
0.000326686
0.000320026
0.000313879
0.000308188
0.000302904
0.000297984
0.000293395
0.000289104
0.000285084
0.000281313
0.000277768
0.000274431
0.000271286
0.000268318
0.000265514
0.000262862
0.000126722
0.000129956
0.000133005
0.000135891
0.000138628
0.00014123
0.000143705
0.000146063
0.000148309
0.00015045
0.000152489
0.000154433
0.000156285
0.00015805
0.000159732
0.000161334
0.00016286
0.000164313
0.000165696
0.000167014
0.000168268
0.000169462
0.000170599
0.00017168
0.00017271
0.000173689
0.000174621
0.000175508
0.000176352
0.000177155
0.000177919
0.000178647
0.000179344
8.54724e-05
0.000115337
0.000145821
0.000176029
0.000203032
0.000226761
0.000248163
0.000268296
0.000288071
0.000308076
0.000328537
0.000349422
0.000370696
0.000392284
0.000414084
0.000435926
0.000457589
0.00047906
0.000500214
0.000521089
0.000541741
0.000562218
0.000582589
0.000602959
0.000623462
0.000644237
0.000665403
0.000687051
0.000709269
0.00073215
0.00075579
0.000780271
0.000805648
0.000831953
0.000859204
0.000887406
0.000916544
0.000946574
0.000977433
0.00100904
0.00104131
0.00107413
0.00110739
0.00114099
0.00117479
0.00120869
0.00124256
0.00127629
0.00130979
0.00134294
0.00137567
0.0014079
0.00143955
0.00147057
0.00150091
0.00153054
0.00155944
0.0015876
0.00161502
0.00164171
0.00166771
0.00169307
0.00171783
0.00174206
0.00176583
0.00178924
0.00181236
0.00183528
0.0018581
0.00188091
0.0019038
0.00192686
0.00195017
0.0019738
0.00199781
0.00202225
0.00204713
0.00207242
0.00209809
0.00212404
0.00215018
0.00217643
0.0022027
0.00222887
0.00225485
0.00228051
0.00230573
0.0023304
0.00235439
0.0023776
0.00239992
0.00242126
0.00244155
0.00246081
0.00247915
0.00249703
0.00251533
0.00253621
0.00256322
0.00261191
7.83548e-05
8.47445e-05
9.52604e-05
0.000110475
0.000129534
0.000151373
0.000174493
0.000197714
0.00022045
0.000242497
0.000263894
0.000284819
0.000305524
0.000326254
0.000347173
0.000368316
0.000389593
0.000410919
0.000432304
0.000453626
0.000474821
0.000495853
0.000516723
0.000537473
0.000558181
0.000578941
0.000599838
0.000620949
0.000642349
0.000664127
0.000686377
0.000709182
0.000732612
0.000756725
0.000781568
0.000807181
0.000833585
0.000860779
0.000888743
0.000917442
0.000946825
0.000976828
0.00100737
0.00103838
0.00106974
0.00110137
0.00113317
0.00116502
0.00119684
0.00122853
0.00126
0.00129116
0.00132196
0.00135232
0.00138219
0.00141153
0.00144032
0.00146855
0.0014962
0.0015233
0.00154987
0.00157594
0.00160157
0.00162682
0.00165175
0.00167644
0.00170097
0.00172541
0.00174985
0.00177436
0.00179903
0.00182391
0.0018491
0.00187463
0.00190056
0.00192692
0.00195371
0.00198091
0.00200845
0.00203626
0.00206424
0.00209229
0.00212033
0.00214823
0.0021759
0.00220321
0.00223005
0.0022563
0.00228185
0.00230658
0.00233039
0.0023532
0.00237494
0.00239565
0.00241542
0.00243469
0.00245429
0.00247617
0.00250345
0.00254791
0.00013774
0.000137412
0.000137921
0.000139206
0.000141083
0.000143449
0.000147851
0.000155287
0.000165899
0.000179187
0.000194727
0.000212084
0.000230831
0.000250593
0.000271061
0.000291975
0.000313083
0.000334205
0.000355438
0.000376725
0.000398
0.000419208
0.000440311
0.000461302
0.000482201
0.00050305
0.000523892
0.000544776
0.000565758
0.000586909
0.00060831
0.000630041
0.000652175
0.000674782
0.000697925
0.000721663
0.000746041
0.00077109
0.000796826
0.000823247
0.000850338
0.000878068
0.000906392
0.000935252
0.00096458
0.0009943
0.00102433
0.00105457
0.00108495
0.00111537
0.00114575
0.00117601
0.00120609
0.00123592
0.00126544
0.00129463
0.00132344
0.00135186
0.0013799
0.00140755
0.00143484
0.00146179
0.00148846
0.00151489
0.00154114
0.00156727
0.00159335
0.00161944
0.00164561
0.00167192
0.00169844
0.00172522
0.00175232
0.00177977
0.00180761
0.00183586
0.00186451
0.00189352
0.00192284
0.00195239
0.00198206
0.00201175
0.00204138
0.00207082
0.00209998
0.00212874
0.00215698
0.00218459
0.00221146
0.00223749
0.00226258
0.00228665
0.00230964
0.00233158
0.00235258
0.00237306
0.00239376
0.00241643
0.00244377
0.00248345
0.000281176
0.000277081
0.000273364
0.000270021
0.000266857
0.000263257
0.00025869
0.000253005
0.000246342
0.000240657
0.000236882
0.000235497
0.000236866
0.000241142
0.000248269
0.000258023
0.00027004
0.000283898
0.000299267
0.000315888
0.000333466
0.00035174
0.0003705
0.000389597
0.000408936
0.000428466
0.000448157
0.000468001
0.000488006
0.000508199
0.00052862
0.000549315
0.000570333
0.000591726
0.000613547
0.000635849
0.000658679
0.00068208
0.000706082
0.000730706
0.000755959
0.000781834
0.000808313
0.000835365
0.000862947
0.000891006
0.00091948
0.0009483
0.000977393
0.00100669
0.00103611
0.00106559
0.00109506
0.00112447
0.00115377
0.00118292
0.00121189
0.00124065
0.00126921
0.00129755
0.0013257
0.00135368
0.00138152
0.00140926
0.00143695
0.00146462
0.00149234
0.00152015
0.0015481
0.00157624
0.00160463
0.00163329
0.00166226
0.00169157
0.00172124
0.00175126
0.00178163
0.0018123
0.00184322
0.00187429
0.00190542
0.00193651
0.00196747
0.00199819
0.00202857
0.00205849
0.00208785
0.00211654
0.00214446
0.00217152
0.00219761
0.00222267
0.00224665
0.00226958
0.00229157
0.00231301
0.00233456
0.00235779
0.00238493
0.00241934
0.000436014
0.000430299
0.000424734
0.000419453
0.000414492
0.000409768
0.00040505
0.000399966
0.000394014
0.000386882
0.000378732
0.000369956
0.000360887
0.000351982
0.00034379
0.000336866
0.000331692
0.000328586
0.000327819
0.000329529
0.000333667
0.000340082
0.000348565
0.000358877
0.000370777
0.000384032
0.000398431
0.000413789
0.00042996
0.000446834
0.000464338
0.000482424
0.000501065
0.000520253
0.00053999
0.000560289
0.000581168
0.000602646
0.000624742
0.000647473
0.000670846
0.000694865
0.000719522
0.000744804
0.000770685
0.000797131
0.000824098
0.000851536
0.000879389
0.000907599
0.000936104
0.000964845
0.000993765
0.00102281
0.00105194
0.0010811
0.00111028
0.00113944
0.00116856
0.00119766
0.00122672
0.00125576
0.0012848
0.00131386
0.00134298
0.00137219
0.00140152
0.001431
0.00146066
0.00149055
0.00152068
0.00155107
0.00158176
0.00161273
0.00164401
0.00167557
0.0017074
0.00173945
0.00177165
0.00180392
0.00183618
0.00186833
0.00190026
0.0019319
0.00196313
0.00199386
0.00202398
0.00205341
0.00208204
0.00210978
0.00213655
0.00216229
0.00218696
0.00221059
0.00223328
0.0022554
0.00227754
0.00230102
0.00232771
0.00235642
0.000579025
0.000572595
0.000566233
0.000560009
0.000553989
0.000548199
0.00054266
0.000537349
0.000532144
0.000526846
0.000521231
0.000515224
0.000508626
0.000501292
0.000493142
0.00048418
0.000474523
0.000464379
0.000454135
0.00044428
0.000435296
0.000427615
0.000421593
0.000417496
0.000415487
0.000415636
0.000417927
0.000422279
0.000428565
0.000436641
0.000446352
0.000457549
0.000470091
0.000483858
0.000498749
0.000514683
0.000531598
0.000549446
0.000568193
0.000587811
0.000608278
0.000629572
0.000651675
0.000674562
0.000698205
0.000722574
0.000747628
0.000773324
0.000799614
0.000826448
0.00085377
0.000881527
0.000909665
0.000938134
0.000966887
0.000995881
0.00102508
0.00105445
0.00108398
0.00111365
0.00114344
0.00117336
0.00120342
0.00123361
0.00126395
0.00129447
0.00132516
0.00135605
0.00138715
0.00141847
0.00145002
0.0014818
0.00151382
0.00154607
0.00157854
0.00161122
0.00164406
0.00167702
0.00171005
0.00174306
0.00177598
0.0018087
0.00184115
0.00187325
0.00190489
0.00193599
0.00196646
0.00199621
0.00202515
0.0020532
0.00208029
0.00210637
0.00213139
0.00215539
0.00217847
0.00220097
0.0022234
0.00224685
0.00227281
0.00229549
0.000701047
0.000694453
0.00068796
0.000681542
0.00067528
0.000669198
0.000663318
0.00065767
0.000652233
0.00064699
0.000641889
0.000636896
0.000631935
0.000626896
0.000621643
0.000616019
0.000609863
0.000603012
0.000595343
0.000586854
0.000577613
0.000567784
0.000557622
0.000547451
0.000537635
0.000528548
0.000520538
0.000513902
0.000508878
0.000505636
0.000504279
0.00050485
0.000507342
0.000511712
0.00051789
0.000525793
0.000535333
0.00054642
0.000558969
0.000572903
0.00058815
0.000604646
0.000622331
0.000641152
0.000661055
0.000681988
0.000703899
0.000726733
0.000750434
0.000774945
0.000800209
0.000826166
0.000852759
0.00087993
0.000907628
0.0009358
0.000964403
0.000993394
0.00102274
0.00105241
0.00108237
0.00111262
0.00114313
0.00117389
0.0012049
0.00123614
0.00126762
0.00129933
0.00133125
0.00136339
0.00139573
0.00142826
0.00146097
0.00149384
0.00152685
0.00155997
0.00159317
0.00162641
0.00165962
0.00169274
0.0017257
0.00175842
0.00179082
0.00182283
0.00185437
0.00188536
0.00191571
0.00194535
0.0019742
0.00200218
0.00202923
0.00205529
0.00208034
0.00210441
0.00212758
0.00215017
0.00217259
0.00219573
0.00222072
0.0022372
0.000798149
0.000792013
0.000785946
0.000779924
0.000773977
0.000768116
0.000762357
0.000756729
0.00075126
0.000745971
0.000740873
0.000735979
0.000731287
0.000726783
0.000722432
0.00071818
0.000713947
0.000709632
0.000705107
0.000700248
0.000694932
0.000689067
0.000682575
0.000675441
0.00066772
0.000659531
0.000651054
0.000642515
0.000634175
0.000626305
0.000619175
0.000613032
0.000608096
0.000604546
0.00060252
0.000602115
0.000603394
0.000606384
0.000611089
0.000617491
0.000625559
0.000635252
0.000646522
0.000659313
0.000673571
0.000689235
0.000706244
0.000724534
0.000744041
0.000764698
0.000786439
0.000809196
0.000832901
0.000857487
0.000882888
0.000909042
0.000935887
0.000963368
0.00099143
0.00102003
0.00104911
0.00107864
0.00110858
0.0011389
0.00116956
0.00120054
0.00123181
0.00126334
0.00129511
0.00132708
0.00135924
0.00139156
0.00142401
0.00145657
0.00148922
0.00152191
0.00155462
0.00158731
0.00161993
0.00165243
0.00168474
0.00171679
0.00174854
0.0017799
0.00181082
0.00184121
0.00187102
0.00190015
0.00192855
0.00195613
0.00198284
0.00200862
0.00203344
0.00205733
0.00208036
0.00210281
0.00212501
0.00214761
0.00217147
0.00218185
0.000870887
0.000865604
0.000860342
0.000855102
0.000849871
0.000844671
0.000839517
0.000834429
0.000829426
0.000824528
0.000819745
0.000815085
0.000810568
0.000806214
0.000802037
0.000798043
0.000794231
0.000790585
0.00078707
0.000783625
0.000780195
0.000776707
0.000773083
0.000769243
0.000765122
0.000760671
0.000755872
0.000750742
0.000745341
0.000739719
0.000733997
0.000728332
0.0007229
0.000717891
0.00071349
0.000709875
0.00070721
0.000705643
0.000705298
0.000706276
0.00070866
0.000712506
0.000717855
0.000724727
0.000733128
0.000743051
0.000754476
0.000767373
0.000781703
0.000797421
0.000814473
0.000832802
0.000852345
0.000873038
0.000894813
0.000917601
0.000941334
0.000965942
0.00099136
0.00101752
0.00104437
0.00107183
0.00109986
0.0011284
0.0011574
0.00118681
0.00121657
0.00124666
0.00127702
0.00130761
0.0013384
0.00136935
0.00140043
0.00143161
0.00146285
0.00149414
0.00152545
0.00155673
0.00158796
0.00161909
0.00165008
0.00168087
0.00171141
0.00174165
0.00177153
0.00180098
0.00182992
0.0018583
0.00188603
0.00191304
0.00193926
0.00196464
0.00198913
0.00201275
0.00203556
0.0020578
0.0020797
0.00210169
0.00212439
0.00212913
0.000921864
0.000917653
0.000913422
0.000909175
0.000904908
0.000900622
0.000896334
0.000892053
0.000887789
0.000883555
0.000879362
0.000875223
0.000871153
0.000867167
0.000863285
0.000859523
0.000855902
0.000852437
0.000849141
0.000846016
0.000843065
0.000840271
0.000837613
0.000835063
0.000832586
0.000830142
0.000827693
0.000825204
0.000822652
0.000820021
0.000817315
0.000814558
0.000811799
0.000809116
0.000806557
0.00080422
0.000802224
0.000800693
0.000799748
0.000799514
0.000800106
0.000801631
0.000804186
0.000807854
0.000812707
0.000818801
0.000826177
0.000834864
0.000844878
0.000856221
0.000868884
0.000882846
0.00089808
0.000914544
0.000932195
0.000950979
0.000970839
0.000991714
0.00101354
0.00103625
0.00105977
0.00108405
0.00110901
0.00113459
0.00116073
0.00118736
0.00121443
0.00124189
0.00126968
0.00129775
0.00132607
0.00135459
0.00138328
0.00141211
0.00144106
0.0014701
0.00149922
0.00152839
0.00155759
0.0015868
0.00161597
0.00164508
0.00167407
0.00170292
0.00173155
0.0017599
0.00178792
0.00181551
0.00184259
0.00186909
0.00189492
0.00192002
0.00194433
0.00196784
0.00199058
0.00201275
0.00203449
0.00205602
0.00207778
0.00207785
0.000955744
0.000952591
0.000949392
0.000946151
0.000942872
0.000939552
0.000936196
0.000932812
0.000929409
0.000925994
0.000922575
0.00091916
0.000915754
0.000912367
0.000909011
0.000905702
0.000902459
0.000899301
0.000896244
0.000893305
0.000890507
0.000887866
0.000885396
0.000883106
0.000881002
0.000879083
0.000877344
0.000875775
0.000874364
0.000873096
0.000871961
0.000870951
0.000870066
0.000869316
0.000868718
0.0008683
0.000868087
0.000868117
0.00086845
0.000869159
0.000870321
0.000872019
0.000874336
0.000877353
0.000881147
0.000885791
0.000891351
0.000897883
0.000905435
0.000914046
0.000923741
0.000934539
0.000946444
0.000959452
0.000973549
0.00098871
0.0010049
0.00102209
0.00104022
0.00105925
0.00107912
0.00109978
0.00112115
0.0011432
0.00116584
0.00118903
0.00121271
0.00123683
0.00126133
0.00128618
0.00131133
0.00133675
0.00136242
0.00138831
0.0014144
0.00144069
0.00146716
0.00149382
0.00152065
0.00154764
0.00157478
0.00160204
0.0016294
0.00165681
0.00168423
0.00171159
0.00173882
0.00176583
0.00179254
0.00181885
0.00184465
0.00186985
0.00189439
0.00191822
0.00194132
0.00196385
0.00198585
0.00200738
0.00202871
0.00202563
0.000976687
0.000974454
0.000972165
0.000969824
0.000967435
0.000965
0.000962515
0.000959986
0.000957417
0.000954814
0.000952179
0.000949516
0.000946828
0.000944122
0.000941403
0.000938679
0.000935963
0.000933266
0.000930604
0.000927996
0.00092546
0.000923021
0.000920698
0.000918511
0.000916482
0.00091463
0.00091297
0.000911517
0.00091028
0.000909266
0.00090848
0.000907924
0.0009076
0.000907509
0.000907654
0.000908045
0.000908681
0.000909567
0.000910723
0.00091218
0.000913974
0.000916146
0.000918745
0.000921821
0.000925427
0.000929616
0.000934443
0.000939959
0.000946212
0.000953244
0.000961094
0.000969791
0.00097936
0.000989816
0.00100116
0.00101341
0.00102653
0.00104052
0.00105534
0.00107098
0.00108739
0.00110453
0.00112235
0.00114082
0.00115989
0.0011795
0.00119961
0.00122018
0.00124118
0.00126256
0.00128431
0.00130639
0.00132879
0.00135151
0.00137454
0.00139788
0.00142154
0.00144554
0.00146988
0.00149457
0.00151962
0.00154502
0.00157075
0.0015968
0.00162312
0.00164966
0.00167635
0.00170308
0.00172977
0.0017563
0.00178255
0.0018084
0.00183374
0.00185849
0.0018826
0.00190615
0.00192909
0.00195133
0.00197302
0.00196891
0.000989089
0.00098756
0.000985979
0.000984348
0.00098267
0.000980945
0.000979173
0.000977355
0.000975493
0.000973591
0.000971648
0.000969667
0.00096765
0.000965597
0.000963513
0.000961399
0.000959262
0.000957107
0.000954945
0.000952785
0.000950643
0.000948536
0.000946479
0.000944494
0.000942602
0.000940823
0.00093918
0.000937694
0.000936384
0.000935269
0.000934366
0.000933689
0.000933244
0.000933036
0.000933074
0.000933366
0.000933923
0.000934749
0.000935857
0.000937256
0.000938964
0.000941
0.000943388
0.000946153
0.000949327
0.000952941
0.000957029