/*--------------------------------*- C++ -*----------------------------------*\
| =========                 |                                                 |
| \\      /  F ield         | OpenFOAM: The Open Source CFD Toolbox           |
|  \\    /   O peration     | Version:  4.1                                   |
|   \\  /    A nd           | Web:      www.OpenFOAM.org                      |
|    \\/     M anipulation  |                                                 |
\*---------------------------------------------------------------------------*/
FoamFile
{
    version     2.0;
    format      ascii;
    class       volScalarField;
    location    "1100";
    object      p;
}
// * * * * * * * * * * * * * * * * * * * * * * * * * * * * * * * * * * * * * //

dimensions      [0 2 -2 0 0 0 0];

internalField   nonuniform List<scalar> 
6820
(
-8.24282
-8.50037
-8.59799
-8.61871
-8.65195
-8.69728
-8.73891
-8.7751
-8.80883
-8.84096
-8.87105
-8.89896
-8.92496
-8.9493
-8.97216
-8.99372
-9.01412
-9.03353
-9.05207
-9.06987
-9.08703
-9.10365
-9.11981
-9.13558
-9.15103
-9.16624
-9.18124
-9.1961
-9.21091
-9.22555
-9.24093
-9.25479
-9.28491
-8.3556
-8.52166
-8.60038
-8.62127
-8.64821
-8.68348
-8.71511
-8.74205
-8.76737
-8.79213
-8.81602
-8.83893
-8.86101
-8.8824
-8.90317
-8.92336
-8.943
-8.96216
-8.98086
-8.99916
-9.01709
-9.03469
-9.05199
-9.06903
-9.08585
-9.10248
-9.11895
-9.13531
-9.15161
-9.16784
-9.18422
-9.20073
-9.21744
-8.41186
-8.51657
-8.59459
-8.62651
-8.65472
-8.68794
-8.7184
-8.74473
-8.76937
-8.79332
-8.81634
-8.83833
-8.85942
-8.87975
-8.89939
-8.91838
-8.93679
-8.95467
-8.97209
-8.98909
-9.00571
-9.022
-9.038
-9.05376
-9.0693
-9.08467
-9.09991
-9.11504
-9.13014
-9.14517
-9.16035
-9.17524
-9.19077
-8.46164
-8.53664
-8.60929
-8.64446
-8.67194
-8.70352
-8.73356
-8.75991
-8.78432
-8.80775
-8.83013
-8.85139
-8.87168
-8.89118
-8.90996
-8.92811
-8.9457
-8.96278
-8.97943
-8.99569
-9.01161
-9.02724
-9.0426
-9.05775
-9.07271
-9.08751
-9.10221
-9.11682
-9.13139
-9.14594
-9.16053
-9.17511
-9.18977
-8.50313
-8.55436
-8.61458
-8.64944
-8.67669
-8.70696
-8.73621
-8.76224
-8.78639
-8.80961
-8.83189
-8.85318
-8.87359
-8.89326
-8.91227
-8.93067
-8.94851
-8.96586
-8.98275
-8.99924
-9.01536
-9.03117
-9.04668
-9.06195
-9.077
-9.09187
-9.10659
-9.1212
-9.13574
-9.15023
-9.16472
-9.17924
-9.19384
-8.53792
-8.57378
-8.62462
-8.65991
-8.68758
-8.71664
-8.74499
-8.77071
-8.79468
-8.81769
-8.83977
-8.86086
-8.88108
-8.90054
-8.9193
-8.93744
-8.95501
-8.97208
-8.98868
-9.00488
-9.02071
-9.03622
-9.05145
-9.06642
-9.08119
-9.09577
-9.11021
-9.12453
-9.13877
-9.15295
-9.16714
-9.18136
-9.1957
-8.56777
-8.59333
-8.63522
-8.6684
-8.69488
-8.72198
-8.74889
-8.77383
-8.7972
-8.81968
-8.84131
-8.86207
-8.88203
-8.9013
-8.91994
-8.93801
-8.95555
-8.97261
-8.98925
-9.00549
-9.02138
-9.03695
-9.05224
-9.06727
-9.08208
-9.0967
-9.11115
-9.12547
-9.13968
-9.15382
-9.16791
-9.18202
-9.19617
-8.5937
-8.61228
-8.6467
-8.67755
-8.70328
-8.72916
-8.75508
-8.77949
-8.80251
-8.82466
-8.84603
-8.86659
-8.8864
-8.90553
-8.92405
-8.942
-8.95941
-8.97635
-8.99285
-9.00894
-9.02468
-9.04008
-9.05519
-9.07003
-9.08464
-9.09904
-9.11326
-9.12733
-9.14127
-9.15511
-9.16888
-9.1826
-9.1963
-8.61656
-8.63039
-8.65869
-8.68679
-8.71125
-8.73556
-8.76003
-8.78345
-8.80573
-8.82723
-8.84805
-8.86816
-8.88758
-8.90639
-8.92463
-8.94233
-8.95955
-8.97632
-8.99268
-9.00865
-9.02428
-9.03959
-9.05462
-9.06938
-9.0839
-9.09822
-9.11234
-9.12629
-9.1401
-9.15378
-9.16735
-9.18083
-9.19423
-8.63693
-8.64747
-8.67083
-8.69614
-8.71922
-8.74216
-8.76541
-8.78803
-8.80974
-8.83078
-8.85122
-8.87102
-8.89021
-8.90882
-8.9269
-8.94447
-8.96157
-8.97822
-8.99447
-9.01034
-9.02585
-9.04104
-9.05593
-9.07055
-9.08492
-9.09905
-9.11297
-9.12671
-9.14026
-9.15366
-9.1669
-9.17999
-9.19292
-8.65526
-8.66347
-8.68289
-8.70552
-8.72712
-8.74869
-8.77066
-8.79228
-8.81323
-8.83361
-8.85347
-8.87279
-8.89155
-8.9098
-8.92755
-8.94483
-8.96167
-8.97809
-8.99411
-9.00978
-9.0251
-9.04011
-9.05483
-9.06927
-9.08346
-9.09741
-9.11114
-9.12466
-9.13799
-9.15114
-9.16409
-9.17687
-9.18946
-8.67188
-8.67839
-8.69468
-8.71485
-8.73493
-8.75517
-8.77592
-8.7966
-8.81682
-8.8366
-8.85597
-8.87488
-8.89331
-8.91127
-8.92878
-8.94586
-8.96252
-8.97878
-8.99466
-9.01019
-9.02538
-9.04025
-9.05482
-9.06911
-9.08314
-9.09691
-9.11045
-9.12376
-9.13684
-9.14971
-9.16235
-9.17477
-9.18693
-8.68701
-8.69227
-8.70606
-8.72403
-8.74261
-8.76158
-8.78116
-8.80086
-8.82031
-8.83943
-8.85822
-8.87664
-8.89464
-8.91222
-8.92939
-8.94615
-8.96253
-8.97853
-8.99416
-9.00945
-9.02441
-9.03906
-9.05341
-9.06748
-9.08128
-9.09481
-9.1081
-9.12115
-9.13395
-9.14652
-9.15884
-9.17092
-9.18272
-8.70084
-8.70515
-8.71695
-8.73298
-8.75011
-8.76787
-8.78633
-8.80508
-8.82376
-8.84224
-8.86047
-8.87841
-8.896
-8.91323
-8.93009
-8.94659
-8.96272
-8.9785
-8.99394
-9.00904
-9.02382
-9.03829
-9.05246
-9.06635
-9.07995
-9.09329
-9.10636
-9.11918
-9.13173
-9.14403
-9.15605
-9.16779
-9.17922
-8.7135
-8.71707
-8.72727
-8.74161
-8.75739
-8.77401
-8.7914
-8.80924
-8.82715
-8.84497
-8.86263
-8.88006
-8.89722
-8.91406
-8.93057
-8.94674
-8.96258
-8.97808
-8.99326
-9.0081
-9.02264
-9.03687
-9.05079
-9.06443
-9.07779
-9.09086
-9.10367
-9.1162
-9.12845
-9.14043
-9.15213
-9.16353
-9.17461
-8.72509
-8.72807
-8.73697
-8.74986
-8.7644
-8.77994
-8.79635
-8.8133
-8.83046
-8.84763
-8.86472
-8.88166
-8.89838
-8.91483
-8.931
-8.94686
-8.96242
-8.97766
-8.99258
-9.0072
-9.02151
-9.03552
-9.04923
-9.06265
-9.07578
-9.08863
-9.10119
-9.11347
-9.12547
-9.13717
-9.14857
-9.15966
-9.17042
-8.73567
-8.73818
-8.74602
-8.75767
-8.77109
-8.78563
-8.80111
-8.81723
-8.83366
-8.8502
-8.86673
-8.88317
-8.89945
-8.91551
-8.93131
-8.94685
-8.9621
-8.97705
-8.9917
-9.00606
-9.02011
-9.03386
-9.04732
-9.06048
-9.07335
-9.08593
-9.09821
-9.11021
-9.12191
-9.1333
-9.14439
-9.15516
-9.1656
-8.74531
-8.74743
-8.75441
-8.76499
-8.77741
-8.79103
-8.80565
-8.82099
-8.83673
-8.85266
-8.86865
-8.8846
-8.90043
-8.9161
-8.93155
-8.94675
-8.9617
-8.97636
-8.99075
-9.00484
-9.01864
-9.03215
-9.04536
-9.05828
-9.0709
-9.08323
-9.09526
-9.10699
-9.11842
-9.12954
-9.14035
-9.15083
-9.16096
-8.75403
-8.75584
-8.7621
-8.77178
-8.78331
-8.79609
-8.80993
-8.82455
-8.83963
-8.85497
-8.87044
-8.88591
-8.90132
-8.91659
-8.93169
-8.94656
-8.96119
-8.97557
-8.98967
-9.00349
-9.01703
-9.03027
-9.04323
-9.05588
-9.06824
-9.0803
-9.09206
-9.10351
-9.11465
-9.12548
-9.13599
-9.14618
-9.15602
-8.76185
-8.76341
-8.76907
-8.77799
-8.78874
-8.80078
-8.81391
-8.82785
-8.84233
-8.85712
-8.87208
-8.8871
-8.9021
-8.91699
-8.93173
-8.94627
-8.9606
-8.97468
-8.9885
-9.00206
-9.01533
-9.02831
-9.04101
-9.05341
-9.06551
-9.07731
-9.08881
-9.1
-9.11087
-9.12143
-9.13167
-9.14158
-9.15115
-8.76879
-8.77014
-8.77531
-8.78359
-8.79366
-8.80504
-8.81753
-8.83088
-8.84479
-8.85907
-8.87356
-8.88815
-8.90274
-8.91726
-8.93166
-8.94588
-8.9599
-8.9737
-8.98724
-9.00052
-9.01352
-9.02625
-9.03868
-9.05082
-9.06266
-9.0742
-9.08543
-9.09635
-9.10696
-9.11725
-9.12721
-9.13685
-9.14615
-8.77485
-8.77602
-8.78079
-8.78853
-8.79804
-8.80884
-8.82077
-8.83357
-8.84698
-8.86078
-8.87484
-8.88902
-8.90324
-8.91741
-8.93147
-8.94538
-8.9591
-8.97261
-8.98588
-8.99889
-9.01163
-9.02409
-9.03627
-9.04815
-9.05973
-9.07101
-9.08198
-9.09265
-9.10299
-9.11302
-9.12273
-9.13211
-9.14116
-8.78001
-8.78104
-8.78549
-8.79279
-8.80182
-8.81214
-8.82358
-8.83591
-8.84886
-8.86224
-8.87589
-8.8897
-8.90356
-8.9174
-8.93115
-8.94476
-8.95819
-8.97142
-8.98441
-8.99716
-9.00964
-9.02185
-9.03377
-9.0454
-9.05673
-9.06776
-9.07848
-9.08889
-9.09898
-9.10876
-9.11822
-9.12736
-9.13616
-8.78425
-8.78517
-8.78937
-8.79632
-8.80497
-8.81488
-8.82591
-8.83783
-8.85039
-8.86339
-8.87669
-8.89015
-8.90369
-8.91722
-8.93067
-8.94399
-8.95715
-8.97011
-8.98284
-8.99533
-9.00755
-9.01951
-9.03118
-9.04255
-9.05363
-9.06441
-9.07488
-9.08504
-9.09488
-9.10441
-9.11363
-9.12252
-9.1311
-8.78752
-8.78837
-8.79238
-8.79908
-8.80742
-8.81701
-8.82771
-8.8393
-8.85153
-8.86421
-8.87719
-8.89035
-8.90359
-8.91683
-8.93001
-8.94306
-8.95596
-8.96866
-8.98114
-8.99338
-9.00537
-9.01708
-9.02851
-9.03965
-9.05049
-9.06103
-9.07127
-9.08119
-9.0908
-9.1001
-9.10909
-9.11776
-9.12611
-8.78978
-8.79058
-8.79446
-8.80098
-8.80912
-8.81847
-8.82892
-8.84025
-8.85221
-8.86462
-8.87733
-8.89023
-8.90321
-8.9162
-8.92912
-8.94192
-8.95457
-8.96702
-8.97926
-8.99126
-9.003
-9.01447
-9.02566
-9.03655
-9.04715
-9.05745
-9.06745
-9.07713
-9.08651
-9.09557
-9.10433
-9.11277
-9.1209
-8.79095
-8.79173
-8.79555
-8.80196
-8.80998
-8.81919
-8.82947
-8.84061
-8.85237
-8.86458
-8.87707
-8.88975
-8.90251
-8.91527
-8.92797
-8.94055
-8.95297
-8.96521
-8.97723
-8.989
-9.00053
-9.01178
-9.02275
-9.03344
-9.04382
-9.05391
-9.06369
-9.07317
-9.08234
-9.0912
-9.09975
-9.10799
-9.11592
-8.79096
-8.79175
-8.79557
-8.80199
-8.80998
-8.81914
-8.82934
-8.84038
-8.85202
-8.86408
-8.87641
-8.88891
-8.90148
-8.91404
-8.92653
-8.9389
-8.95111
-8.96313
-8.97492
-8.98647
-8.99777
-9.00879
-9.01953
-9.02998
-9.04014
-9.04999
-9.05954
-9.06879
-9.07773
-9.08637
-9.0947
-9.10273
-9.11046
-8.78971
-8.79056
-8.79447
-8.80099
-8.80908
-8.8183
-8.82852
-8.83955
-8.85114
-8.86313
-8.87537
-8.88775
-8.90019
-8.91261
-8.92495
-8.93716
-8.9492
-8.96105
-8.97267
-8.98405
-8.99516
-9.006
-9.01656
-9.02683
-9.03681
-9.04648
-9.05585
-9.06492
-9.07368
-9.08213
-9.09029
-9.09813
-9.10566
-8.78708
-8.78803
-8.79213
-8.7989
-8.80721
-8.81662
-8.82698
-8.83808
-8.84972
-8.86169
-8.87388
-8.88618
-8.8985
-8.91078
-8.92296
-8.93499
-8.94685
-8.9585
-8.96991
-8.98108
-8.99198
-9.00261
-9.01295
-9.02299
-9.03275
-9.0422
-9.05135
-9.0602
-9.06874
-9.07699
-9.08494
-9.0926
-9.09997
-8.78288
-8.784
-8.78843
-8.79561
-8.80432
-8.81405
-8.82467
-8.83599
-8.84778
-8.85986
-8.87211
-8.88443
-8.89675
-8.90899
-8.92111
-8.93307
-8.94483
-8.95637
-8.96767
-8.97871
-8.98948
-8.99996
-9.01016
-9.02006
-9.02967
-9.03897
-9.04797
-9.05666
-9.06505
-9.07314
-9.08093
-9.08841
-9.09557
-8.77688
-8.77825
-8.78321
-8.79104
-8.80034
-8.81055
-8.82154
-8.83314
-8.84512
-8.85731
-8.86959
-8.88189
-8.89415
-8.9063
-8.9183
-8.93011
-8.94171
-8.95308
-8.9642
-8.97505
-8.98563
-8.99592
-9.00592
-9.01562
-9.02502
-9.03412
-9.04292
-9.05141
-9.05961
-9.06752
-9.07513
-9.08247
-9.08953
-8.76877
-8.77052
-8.77628
-8.78506
-8.79521
-8.80613
-8.81775
-8.8299
-8.84233
-8.85485
-8.86739
-8.87988
-8.89226
-8.90447
-8.9165
-8.92831
-8.93987
-8.95119
-8.96223
-8.97299
-8.98346
-8.99364
-9.00352
-9.0131
-9.02237
-9.03133
-9.03999
-9.04835
-9.0564
-9.06415
-9.0716
-9.07874
-9.08556
-8.75806
-8.76041
-8.76744
-8.7776
-8.78878
-8.80041
-8.81258
-8.82516
-8.83789
-8.8506
-8.86325
-8.87579
-8.88817
-8.90035
-8.91231
-8.92403
-8.93548
-8.94666
-8.95756
-8.96818
-8.97849
-8.98851
-8.99822
-9.00763
-9.01674
-9.02554
-9.03403
-9.04223
-9.05013
-9.05774
-9.06506
-9.07212
-9.0789
-8.74405
-8.74737
-8.75644
-8.76878
-8.78171
-8.79477
-8.80816
-8.8217
-8.83513
-8.84834
-8.86134
-8.87411
-8.88664
-8.8989
-8.91088
-8.92258
-8.93399
-8.9451
-8.95591
-8.96642
-8.97662
-8.98651
-8.99609
-9.00536
-9.01431
-9.02296
-9.0313
-9.03933
-9.04706
-9.05449
-9.06161
-9.06843
-9.07493
-8.72566
-8.73075
-8.74284
-8.75734
-8.77129
-8.78516
-8.79945
-8.81375
-8.82771
-8.84131
-8.8546
-8.86758
-8.88024
-8.89256
-8.90455
-8.91622
-8.92757
-8.93861
-8.94932
-8.95972
-8.96981
-8.97958
-8.98905
-8.9982
-9.00704
-9.01558
-9.02381
-9.03174
-9.03938
-9.04672
-9.05379
-9.06058
-9.06711
-8.70073
-8.70988
-8.72928
-8.74902
-8.76546
-8.78085
-8.79637
-8.81148
-8.82586
-8.83965
-8.85304
-8.86604
-8.87864
-8.89087
-8.90275
-8.91429
-8.92549
-8.93635
-8.94689
-8.9571
-8.96699
-8.97655
-8.9858
-8.99474
-9.00336
-9.01167
-9.01967
-9.02737
-9.03478
-9.04189
-9.04871
-9.05523
-9.06146
-8.66579
-8.67945
-8.70508
-8.72834
-8.7473
-8.76531
-8.78295
-8.7994
-8.81462
-8.82899
-8.84276
-8.85596
-8.86864
-8.88086
-8.89268
-8.90414
-8.91524
-8.926
-8.93644
-8.94656
-8.95637
-8.96587
-8.97507
-8.98396
-8.99255
-9.00084
-9.00883
-9.01653
-9.02393
-9.03103
-9.03783
-9.04432
-9.05048
-8.6184
-8.66606
-8.70544
-8.72571
-8.74198
-8.76033
-8.77829
-8.79424
-8.80879
-8.82272
-8.83615
-8.84904
-8.86141
-8.87335
-8.8849
-8.89608
-8.90692
-8.91743
-8.92762
-8.9375
-8.94708
-8.95636
-8.96534
-8.97403
-8.98243
-8.99056
-8.9984
-9.00598
-9.0133
-9.02038
-9.02724
-9.03394
-9.0405
-8.48407
-8.60625
-8.68091
-8.70513
-8.72145
-8.74247
-8.76295
-8.78015
-8.79548
-8.8103
-8.82482
-8.83893
-8.85265
-8.86606
-8.87921
-8.89209
-8.90469
-8.917
-8.92902
-8.94074
-8.95215
-8.96323
-8.974
-8.98443
-8.99452
-9.00428
-9.0137
-9.02277
-9.03149
-9.03987
-9.04789
-9.05554
-9.06294
-9.33237
-9.48836
-9.70573
-9.81012
-9.92092
-10.0271
-10.1086
-10.1717
-10.221
-10.2573
-10.2821
-10.2967
-10.303
-10.3031
-10.2995
-10.2946
-10.2891
-10.2805
-10.2757
-10.2788
-10.2909
-10.3115
-10.3394
-10.3725
-10.4088
-10.4468
-10.485
-10.5225
-10.5587
-10.5926
-10.6234
-10.6503
-10.6724
-10.6892
-10.7002
-10.7053
-10.7043
-10.6969
-10.683
-10.6624
-10.6348
-10.6002
-10.5582
-10.5087
-10.4516
-10.3866
-10.3137
-10.2326
-10.1432
-10.0452
-9.93835
-9.82253
-9.69748
-9.56301
-9.41899
-9.26531
-9.1019
-8.92875
-8.74593
-8.55355
-8.35179
-8.14092
-7.92126
-7.69324
-7.45738
-7.21425
-6.96452
-6.70892
-6.44822
-6.18323
-5.91477
-5.64371
-5.37095
-5.09742
-4.82411
-4.55207
-4.2824
-4.01626
-3.75487
-3.49942
-3.25093
-3.01004
-2.77714
-2.55257
-2.33664
-2.12962
-1.93172
-1.74307
-1.56366
-1.39346
-1.23212
-1.07952
-0.934551
-0.79768
-0.665001
-0.541308
-0.410649
-0.302204
-0.144567
-0.0949483
-9.24776
-9.3004
-9.39257
-9.43867
-9.49211
-9.5598
-9.62626
-9.68965
-9.75021
-9.80543
-9.85353
-9.89396
-9.92703
-9.95367
-9.97549
-9.99479
-10.0138
-10.029
-10.0446
-10.0652
-10.0923
-10.1259
-10.165
-10.2081
-10.2533
-10.299
-10.3442
-10.3878
-10.4292
-10.4676
-10.5023
-10.5323
-10.5571
-10.5761
-10.589
-10.5956
-10.5957
-10.5892
-10.576
-10.5558
-10.5286
-10.4941
-10.4523
-10.4029
-10.3459
-10.281
-10.2081
-10.1272
-10.0379
-9.94006
-9.83355
-9.71811
-9.59355
-9.45971
-9.31645
-9.16368
-9.00134
-8.82944
-8.64804
-8.45726
-8.25729
-8.0484
-7.83092
-7.60526
-7.37194
-7.13152
-6.88467
-6.63208
-6.37453
-6.11278
-5.84767
-5.58003
-5.31074
-5.04071
-4.77092
-4.50238
-4.23616
-3.97338
-3.71523
-3.46282
-3.21713
-2.97881
-2.74827
-2.52584
-2.31186
-2.10657
-1.9102
-1.72286
-1.54456
-1.37527
-1.21466
-1.06263
-0.91809
-0.781545
-0.649131
-0.525804
-0.395724
-0.288574
-0.133584
-0.0881011
-9.2092
-9.23059
-9.27511
-9.30264
-9.32601
-9.35867
-9.39403
-9.42884
-9.46391
-9.49857
-9.53176
-9.56291
-9.59188
-9.61903
-9.64533
-9.67234
-9.7013
-9.73124
-9.76237
-9.79747
-9.83809
-9.88422
-9.93493
-9.98876
-10.044
-10.0993
-10.1531
-10.2048
-10.2534
-10.2983
-10.3387
-10.3739
-10.4033
-10.4263
-10.4428
-10.4526
-10.4555
-10.4514
-10.4402
-10.4219
-10.3963
-10.3633
-10.3228
-10.2746
-10.2187
-10.1549
-10.0832
-10.0033
-9.91511
-9.81847
-9.71319
-9.59906
-9.47591
-9.34359
-9.20198
-9.05099
-8.89057
-8.72075
-8.54159
-8.35321
-8.1558
-7.94963
-7.73504
-7.51243
-7.2823
-7.04522
-6.80183
-6.55281
-6.29891
-6.0409
-5.77956
-5.51573
-5.25026
-4.98405
-4.71805
-4.45324
-4.19066
-3.93141
-3.67661
-3.42733
-3.18451
-2.9488
-2.72063
-2.50034
-2.28827
-2.08467
-1.88975
-1.70365
-1.52638
-1.35792
-1.19795
-1.04639
-0.902181
-0.765871
-0.633664
-0.510622
-0.381174
-0.275176
-0.123226
-0.0811212
-9.20709
-9.23014
-9.26647
-9.2946
-9.3135
-9.33406
-9.3545
-9.37187
-9.38721
-9.40135
-9.41419
-9.42585
-9.43687
-9.44809
-9.46067
-9.47606
-9.49558
-9.51969
-9.54755
-9.58074
-9.62043
-9.66654
-9.71809
-9.77362
-9.83145
-9.88997
-9.94777
-10.0037
-10.0569
-10.1064
-10.1514
-10.191
-10.2247
-10.2519
-10.2724
-10.2858
-10.2921
-10.2912
-10.283
-10.2675
-10.2444
-10.2138
-10.1755
-10.1295
-10.0757
-10.014
-9.94421
-9.86631
-9.78013
-9.6855
-9.58226
-9.47025
-9.34929
-9.21926
-9.08003
-8.93153
-8.77374
-8.60667
-8.4304
-8.24504
-8.05081
-7.84795
-7.6368
-7.41778
-7.19135
-6.95808
-6.71858
-6.47354
-6.22366
-5.9697
-5.71244
-5.45268
-5.19127
-4.92907
-4.66701
-4.40605
-4.14721
-3.89154
-3.64012
-3.39398
-3.15402
-2.9209
-2.69505
-2.47684
-2.26659
-2.06458
-1.87102
-1.68605
-1.50968
-1.34192
-1.18247
-1.03126
-0.887264
-0.751068
-0.618989
-0.496121
-0.367337
-0.262291
-0.113722
-0.0741549
-9.21144
-9.2335
-9.26125
-9.28488
-9.30172
-9.31856
-9.33563
-9.35044
-9.36294
-9.37356
-9.38209
-9.38851
-9.39328
-9.39723
-9.40153
-9.40763
-9.41697
-9.43043
-9.44826
-9.47156
-9.50136
-9.53773
-9.58002
-9.62706
-9.67748
-9.72982
-9.78275
-9.83508
-9.88574
-9.93373
-9.97807
-10.0179
-10.0523
-10.0809
-10.103
-10.1184
-10.1269
-10.1282
-10.1223
-10.1091
-10.0883
-10.06
-10.024
-9.98027
-9.92869
-9.86919
-9.80167
-9.72601
-9.6421
-9.54978
-9.44891
-9.33933
-9.22089
-9.09347
-8.95697
-8.81133
-8.65651
-8.49254
-8.31949
-8.13751
-7.94677
-7.74754
-7.54014
-7.32498
-7.10252
-6.87329
-6.63791
-6.39703
-6.15134
-5.90158
-5.64851
-5.39291
-5.13561
-4.87746
-4.61936
-4.36226
-4.10712
-3.85499
-3.60689
-3.36382
-3.12664
-2.896
-2.67237
-2.45611
-2.24756
-2.04701
-1.85465
-1.67066
-1.49505
-1.32783
-1.16873
-1.01772
-0.873799
-0.737577
-0.605519
-0.482692
-0.354558
-0.250257
-0.10526
-0.0674632
-9.21282
-9.23339
-9.25701
-9.27941
-9.29761
-9.31465
-9.33118
-9.34547
-9.35711
-9.36642
-9.37345
-9.37826
-9.38129
-9.38331
-9.3853
-9.38846
-9.39398
-9.40275
-9.4154
-9.43261
-9.45522
-9.48345
-9.51686
-9.55464
-9.59572
-9.63896
-9.68324
-9.72755
-9.77092
-9.81243
-9.85116
-9.88624
-9.9169
-9.94248
-9.96244
-9.97637
-9.98394
-9.98489
-9.97901
-9.96609
-9.94599
-9.91855
-9.88364
-9.84114
-9.79096
-9.73297
-9.66709
-9.59318
-9.51112
-9.42077
-9.32198
-9.21461
-9.09851
-8.97357
-8.83968
-8.6968
-8.54489
-8.38397
-8.21413
-8.03549
-7.84824
-7.65262
-7.44896
-7.23764
-7.01911
-6.79391
-6.56261
-6.32584
-6.08429
-5.83866
-5.58971
-5.33818
-5.0849
-4.8307
-4.57645
-4.32308
-4.07153
-3.82279
-3.57787
-3.33771
-3.10316
-2.87486
-2.65328
-2.43881
-2.2318
-2.03252
-1.8412
-1.658
-1.48297
-1.31612
-1.15721
-1.00621
-0.862204
-0.725795
-0.593633
-0.470697
-0.343166
-0.239378
-0.0980281
-0.0612555
-9.21286
-9.23262
-9.25394
-9.27457
-9.29218
-9.30806
-9.32304
-9.33624
-9.34723
-9.35623
-9.3633
-9.36852
-9.37221
-9.37497
-9.3776
-9.38107
-9.38635
-9.39425
-9.40542
-9.42038
-9.43978
-9.46382
-9.49218
-9.52418
-9.55895
-9.59552
-9.63294
-9.67031
-9.70681
-9.7416
-9.7739
-9.80294
-9.82804
-9.84858
-9.86407
-9.87409
-9.8783
-9.87641
-9.86818
-9.85338
-9.83182
-9.8033
-9.76767
-9.72478
-9.67449
-9.61667
-9.55119
-9.47792
-9.39671
-9.30741
-9.20987
-9.10395
-8.9895
-8.86639
-8.73455
-8.59389
-8.44439
-8.28608
-8.11902
-7.94334
-7.7592
-7.56685
-7.3666
-7.15882
-6.94394
-6.72247
-6.49498
-6.26207
-6.02439
-5.78266
-5.53757
-5.2899
-5.04041
-4.78993
-4.53931
-4.28945
-4.04127
-3.79572
-3.55376
-3.31632
-3.0842
-2.85804
-2.63832
-2.42545
-2.21978
-2.02159
-1.83111
-1.64851
-1.47386
-1.30719
-1.14827
-0.997115
-0.852851
-0.716085
-0.583677
-0.460469
-0.333457
-0.229943
-0.0921793
-0.0557484
-9.21226
-9.23098
-9.2505
-9.26947
-9.28653
-9.30206
-9.31664
-9.32976
-9.34097
-9.3503
-9.35782
-9.36363
-9.36802
-9.37151
-9.37482
-9.37875
-9.38417
-9.39181
-9.40225
-9.41603
-9.43359
-9.4551
-9.48029
-9.50859
-9.53925
-9.57143
-9.60425
-9.63689
-9.66856
-9.69851
-9.72599
-9.75031
-9.77085
-9.78703
-9.7984
-9.80455
-9.80518
-9.8
-9.78878
-9.77129
-9.74734
-9.71674
-9.67933
-9.63495
-9.58345
-9.52469
-9.45853
-9.38483
-9.30344
-9.21421
-9.11698
-9.0116
-8.89793
-8.77584
-8.64524
-8.50607
-8.35829
-8.20191
-8.03699
-7.86365
-7.68205
-7.49243
-7.29507
-7.09033
-6.87862
-6.66045
-6.43633
-6.20687
-5.9727
-5.73449
-5.49293
-5.24878
-5.00277
-4.75572
-4.50845
-4.26183
-4.01675
-3.77414
-3.53492
-3.29996
-3.07006
-2.84583
-2.62778
-2.41631
-2.21177
-2.01447
-1.82464
-1.64246
-1.468
-1.30131
-1.14221
-0.99071
-0.846013
-0.708721
-0.57592
-0.452275
-0.32567
-0.222184
-0.087826
-0.0511154
-9.2098
-9.22772
-9.24602
-9.26384
-9.28033
-9.29546
-9.30947
-9.32211
-9.33307
-9.34234
-9.35002
-9.35627
-9.36133
-9.36569
-9.36992
-9.37471
-9.38078
-9.38875
-9.39915
-9.41246
-9.42899
-9.44888
-9.47192
-9.49761
-9.52532
-9.55429
-9.58375
-9.61292
-9.64107
-9.66748
-9.69146
-9.71235
-9.72955
-9.74253
-9.75082
-9.75405
-9.7519
-9.74409
-9.73039
-9.71058
-9.68447
-9.65188
-9.61264
-9.56662
-9.51366
-9.45362
-9.38638
-9.31178
-9.22969
-9.13996
-9.04245
-8.937
-8.82348
-8.70177
-8.57179
-8.43345
-8.28674
-8.13167
-7.96828
-7.79669
-7.61705
-7.42959
-7.23458
-7.03236
-6.82334
-6.60797
-6.38679
-6.16035
-5.92927
-5.6942
-5.45581
-5.21483
-4.97198
-4.72805
-4.48384
-4.24019
-3.99796
-3.75805
-3.52132
-3.28863
-3.06073
-2.83825
-2.62167
-2.41141
-2.20784
-2.01125
-1.82189
-1.63994
-1.4655
-1.29862
-1.13917
-0.987153
-0.841862
-0.703882
-0.570545
-0.446301
-0.319971
-0.21627
-0.0850271
-0.047487
-9.20775
-9.22481
-9.24202
-9.25882
-9.27456
-9.28915
-9.30268
-9.31503
-9.32598
-9.33548
-9.34361
-9.35049
-9.35636
-9.36159
-9.3667
-9.37226
-9.37888
-9.38712
-9.39744
-9.41024
-9.42582
-9.44426
-9.46541
-9.48883
-9.51396
-9.54015
-9.5667
-9.59291
-9.61807
-9.64152
-9.66259
-9.68067
-9.69517
-9.70559
-9.71147
-9.71243
-9.70814
-9.69833
-9.68275
-9.66118
-9.63342
-9.59931
-9.55866
-9.51134
-9.4572
-9.3961
-9.3279
-9.25249
-9.16971
-9.07943
-8.98152
-8.87584
-8.76226
-8.64068
-8.51102
-8.37321
-8.22722
-8.07308
-7.91084
-7.7406
-7.56253
-7.37682
-7.18376
-6.98366
-6.77692
-6.56399
-6.34536
-6.12159
-5.89326
-5.66101
-5.42548
-5.18738
-4.94742
-4.70635
-4.46496
-4.22404
-3.98445
-3.74701
-3.51259
-3.28199
-3.05593
-2.83502
-2.61976
-2.41057
-2.20781
-2.01178
-1.82274
-1.64088
-1.46631
-1.2991
-1.13914
-0.986466
-0.840439
-0.701631
-0.567625
-0.442632
-0.316431
-0.212283
-0.0837771
-0.0449297
-9.20391
-9.2203
-9.23668
-9.25267
-9.26781
-9.28195
-9.29516
-9.30727
-9.31816
-9.32776
-9.33615
-9.34344
-9.34987
-9.35576
-9.36156
-9.36776
-9.37488
-9.38339
-9.39372
-9.40618
-9.42105
-9.43834
-9.45793
-9.47946
-9.50242
-9.52624
-9.55029
-9.57394
-9.59652
-9.6174
-9.63596
-9.65162
-9.66382
-9.67207
-9.67592
-9.67499
-9.66895
-9.65752
-9.64044
-9.61749
-9.58847
-9.55318
-9.51147
-9.46318
-9.40815
-9.34627
-9.27738
-9.20136
-9.11809
-9.02742
-8.92922
-8.82339
-8.70979
-8.58835
-8.45897
-8.32161
-8.17625
-8.02292
-7.86167
-7.69261
-7.5159
-7.33174
-7.1404
-6.9422
-6.73751
-6.52677
-6.31047
-6.08913
-5.86333
-5.63367
-5.4008
-5.16538
-4.92811
-4.68972
-4.45096
-4.21262
-3.97549
-3.7404
-3.50814
-3.27949
-3.05514
-2.8357
-2.62165
-2.41341
-2.21135
-2.01578
-1.82694
-1.64506
-1.47024
-1.30258
-1.142
-0.988549
-0.841671
-0.701916
-0.567126
-0.441254
-0.315032
-0.210217
-0.084006
-0.0434427
-9.20074
-9.21644
-9.23207
-9.24732
-9.26189
-9.27557
-9.28838
-9.30024
-9.31102
-9.3207
-9.32932
-9.33702
-9.34399
-9.35052
-9.35697
-9.36376
-9.37132
-9.38007
-9.39035
-9.40245
-9.41659
-9.43278
-9.4509
-9.47064
-9.49155
-9.51314
-9.53485
-9.55607
-9.57621
-9.59467
-9.61087
-9.62426
-9.6343
-9.64053
-9.64249
-9.63983
-9.63219
-9.6193
-9.6009
-9.57674
-9.54662
-9.51036
-9.46777
-9.4187
-9.363
-9.30053
-9.23114
-9.15472
-9.07112
-8.98023
-8.88191
-8.77607
-8.66258
-8.54136
-8.41234
-8.2755
-8.1308
-7.97829
-7.81802
-7.65011
-7.47471
-7.29203
-7.10233
-6.90593
-6.7032
-6.49454
-6.28045
-6.06143
-5.83803
-5.61085
-5.38051
-5.14765
-4.91296
-4.67714
-4.44092
-4.20505
-3.97029
-3.73744
-3.50726
-3.28048
-3.05777
-2.83972
-2.62681
-2.41946
-2.21803
-2.02284
-1.83414
-1.65215
-1.477
-1.30881
-1.14752
-0.993205
-0.845386
-0.704593
-0.568922
-0.442059
-0.315667
-0.209981
-0.0855838
-0.0429583
-9.19616
-9.21129
-9.22629
-9.24093
-9.25498
-9.26829
-9.28077
-9.2924
-9.30312
-9.31288
-9.32171
-9.32974
-9.33713
-9.34414
-9.35108
-9.3583
-9.36617
-9.37504
-9.38522
-9.39694
-9.41037
-9.42555
-9.44234
-9.46046
-9.47953
-9.4991
-9.51866
-9.53767
-9.55558
-9.57183
-9.58588
-9.59718
-9.60525
-9.60962
-9.60987
-9.60562
-9.59654
-9.58233
-9.56273
-9.53751
-9.50644
-9.46933
-9.426
-9.37629
-9.32004
-9.25711
-9.18735
-9.11064
-9.02686
-8.93586
-8.83755
-8.7318
-8.61852
-8.49763
-8.36907
-8.2328
-8.08883
-7.93719
-7.77794
-7.61121
-7.43714
-7.25594
-7.06788
-6.87326
-6.67245
-6.46585
-6.25392
-6.03716
-5.81612
-5.59137
-5.36351
-5.13316
-4.901
-4.6677
-4.43396
-4.20051
-3.96809
-3.73743
-3.50928
-3.28433
-3.06323
-2.84654
-2.63474
-2.42824
-2.2274
-2.03254
-1.84393
-1.66179
-1.48626
-1.31748
-1.15542
-1.00018
-0.851351
-0.70945
-0.57282
-0.444873
-0.318161
-0.211419
-0.0883365
-0.043354
-9.19214
-9.20671
-9.22113
-9.23521
-9.24877
-9.26168
-9.27383
-9.2852
-9.2958
-9.30558
-9.31457
-9.32285
-9.33059
-9.33799
-9.34533
-9.3529
-9.36101
-9.36995
-9.37999
-9.39132
-9.40406
-9.41826
-9.43378
-9.45036
-9.46766
-9.4853
-9.50281
-9.51971
-9.53547
-9.54959
-9.56154
-9.57083
-9.57698
-9.57954
-9.5781
-9.57231
-9.56181
-9.54632
-9.52556
-9.49931
-9.46732
-9.42941
-9.38539
-9.33509
-9.27835
-9.21503
-9.14497
-9.06806
-8.98416
-8.89315
-8.79491
-8.68934
-8.57635
-8.45587
-8.32784
-8.19224
-8.04906
-7.89835
-7.74017
-7.57466
-7.40195
-7.22227
-7.03587
-6.84305
-6.64416
-6.43961
-6.22985
-6.01536
-5.79667
-5.57433
-5.34894
-5.1211
-4.89145
-4.66066
-4.42939
-4.19834
-3.96823
-3.73976
-3.51363
-3.2905
-3.071
-2.85566
-2.64496
-2.4393
-2.23904
-2.0445
-1.85595
-1.67362
-1.49768
-1.32828
-1.16541
-1.00919
-0.859308
-0.716247
-0.578592
-0.449481
-0.322301
-0.214331
-0.092067
-0.0444727
-9.18717
-9.20125
-9.21515
-9.22873
-9.24185
-9.2544
-9.26628
-9.27745
-9.28791
-9.29768
-9.30678
-9.31526
-9.32326
-9.33097
-9.33861
-9.34642
-9.35467
-9.36359
-9.37342
-9.38431
-9.39636
-9.40958
-9.42387
-9.43899
-9.45464
-9.47046
-9.48606
-9.50096
-9.51471
-9.52682
-9.53681
-9.54419
-9.54853
-9.54938
-9.54636
-9.5391
-9.52727
-9.51057
-9.48874
-9.46152
-9.42869
-9.39004
-9.34539
-9.29456
-9.2374
-9.17374
-9.10344
-9.02638
-8.94243
-8.85145
-8.75335
-8.64803
-8.53539
-8.41538
-8.28793
-8.15304
-8.01071
-7.86097
-7.70392
-7.53966
-7.36836
-7.19023
-7.00551
-6.81451
-6.61757
-6.4151
-6.20751
-5.9953
-5.77897
-5.55906
-5.33615
-5.11082
-4.8837
-4.65542
-4.42663
-4.198
-3.97021
-3.74393
-3.51983
-3.29854
-3.08064
-2.86667
-2.65707
-2.45226
-2.25258
-2.05835
-1.86986
-1.68734
-1.51097
-1.34091
-1.1772
-1.01998
-0.869007
-0.724744
-0.586004
-0.45566
-0.327865
-0.218505
-0.0965769
-0.0461472
-9.18254
-9.19616
-9.20959
-9.22271
-9.23543
-9.24763
-9.25925
-9.27023
-9.28056
-9.29026
-9.29939
-9.308
-9.31618
-9.3241
-9.33194
-9.3399
-9.3482
-9.35704
-9.36661
-9.37704
-9.38839
-9.40067
-9.41376
-9.42749
-9.44155
-9.45565
-9.4694
-9.4824
-9.49421
-9.50437
-9.51244
-9.51798
-9.52053
-9.51971
-9.51512
-9.50641
-9.49325
-9.47535
-9.45243
-9.42425
-9.39057
-9.35119
-9.30591
-9.25456
-9.19697
-9.133
-9.06248
-8.98529
-8.90131
-8.81041
-8.71248
-8.60743
-8.49519
-8.37567
-8.24885
-8.11471
-7.97326
-7.82454
-7.66864
-7.50568
-7.33582
-7.15926
-6.97626
-6.7871
-6.59214
-6.39176
-6.18638
-5.97646
-5.76251
-5.54505
-5.32464
-5.10185
-4.87727
-4.65152
-4.42523
-4.19904
-3.97359
-3.74953
-3.52748
-3.30804
-3.09178
-2.8792
-2.67073
-2.46679
-2.2677
-2.07381
-1.88538
-1.70266
-1.52585
-1.35512
-1.19057
-1.03232
-0.88022
-0.734723
-0.594842
-0.463201
-0.334639
-0.22374
-0.101686
-0.0482248
-9.17737
-9.19055
-9.20354
-9.21624
-9.22857
-9.24045
-9.25181
-9.2626
-9.27281
-9.28244
-9.29155
-9.30021
-9.30852
-9.31657
-9.32452
-9.33255
-9.34083
-9.34952
-9.35878
-9.3687
-9.37934
-9.39066
-9.4026
-9.41497
-9.42753
-9.43998
-9.45199
-9.46318
-9.47314
-9.48145
-9.48769
-9.49145
-9.49231
-9.48987
-9.48378
-9.47367
-9.45923
-9.44017
-9.4162
-9.38709
-9.3526
-9.31252
-9.26665
-9.21481
-9.15683
-9.09256
-9.02185
-8.94457
-8.86059
-8.76978
-8.67206
-8.56732
-8.45549
-8.33651
-8.21034
-8.07698
-7.93643
-7.78876
-7.63403
-7.47239
-7.30398
-7.12902
-6.94775
-6.76046
-6.56749
-6.36922
-6.16606
-5.95846
-5.74691
-5.53192
-5.31403
-5.09379
-4.87179
-4.6486
-4.42484
-4.20111
-3.97803
-3.75621
-3.53624
-3.3187
-3.10411
-2.89295
-2.68565
-2.4826
-2.28414
-2.09059
-1.90223
-1.71933
-1.54208
-1.3707
-1.20528
-1.04599
-0.89275
-0.745992
-0.604918
-0.471921
-0.342441
-0.229867
-0.107251
-0.0505925
-9.17237
-9.18515
-9.19774
-9.21006
-9.22204
-9.23361
-9.24472
-9.25532
-9.2654
-9.27495
-9.28402
-9.29267
-9.301
-9.30911
-9.31711
-9.32513
-9.33331
-9.34178
-9.35067
-9.36005
-9.36995
-9.38034
-9.39116
-9.40225
-9.41337
-9.42426
-9.4346
-9.44404
-9.45223
-9.45875
-9.46323
-9.46526
-9.46446
-9.46044
-9.45285
-9.44136
-9.42565
-9.40542
-9.3804
-9.35036
-9.31504
-9.27424
-9.22777
-9.17542
-9.11705
-9.05248
-8.98158
-8.90419
-8.82021
-8.72951
-8.632
-8.52757
-8.41617
-8.29773
-8.17223
-8.03965
-7.90003
-7.75341
-7.59987
-7.43956
-7.27262
-7.09927
-6.91974
-6.73433
-6.54336
-6.34721
-6.14628
-5.94101
-5.73188
-5.51938
-5.30403
-5.08637
-4.86695
-4.64636
-4.42515
-4.20391
-3.98323
-3.76369
-3.54584
-3.33022
-3.11733
-2.90763
-2.70154
-2.49942
-2.30161
-2.10844
-1.92019
-1.73711
-1.55945
-1.3874
-1.22112
-1.0608
-0.906402
-0.758366
-0.616053
-0.481651
-0.351109
-0.236741
-0.113157
-0.0531771
-9.1671
-9.17949
-9.1917
-9.20365
-9.21529
-9.22656
-9.23741
-9.24781
-9.25774
-9.2672
-9.27621
-9.28482
-9.2931
-9.30118
-9.30913
-9.31707
-9.3251
-9.3333
-9.34179
-9.3506
-9.35975
-9.36925
-9.379
-9.38885
-9.39859
-9.40798
-9.41672
-9.42451
-9.43099
-9.4358
-9.43858
-9.43894
-9.43653
-9.43098
-9.42195
-9.40911
-9.39215
-9.37078
-9.34474
-9.31378
-9.27766
-9.23616
-9.18909
-9.13626
-9.0775
-9.01264
-8.94155
-8.86408
-8.78011
-8.68952
-8.59222
-8.48812
-8.37715
-8.25927
-8.13444
-8.00266
-7.86396
-7.7184
-7.56606
-7.40707
-7.2416
-7.06986
-6.89207
-6.70854
-6.51958
-6.32555
-6.12686
-5.92392
-5.71721
-5.50721
-5.29441
-5.07935
-4.86255
-4.64455
-4.42592
-4.20721
-3.98896
-3.77172
-3.55601
-3.34235
-3.13121
-2.92301
-2.71815
-2.517
-2.31988
-2.12712
-1.93898
-1.75576
-1.57769
-1.405
-1.23787
-1.07652
-0.920962
-0.77164
-0.628054
-0.492207
-0.36047
-0.244216
-0.119297
-0.055928
-9.16191
-9.17394
-9.18579
-9.1974
-9.20872
-9.21971
-9.23032
-9.24051
-9.25028
-9.25962
-9.26854
-9.27708
-9.28529
-9.29327
-9.30109
-9.30886
-9.31665
-9.32453
-9.33257
-9.34081
-9.34926
-9.3579
-9.36661
-9.37527
-9.3837
-9.39165
-9.39887
-9.40506
-9.40991
-9.41307
-9.41421
-9.41296
-9.40898
-9.40194
-9.39148
-9.37731