/*--------------------------------*- C++ -*----------------------------------*\
| =========                 |                                                 |
| \\      /  F ield         | OpenFOAM: The Open Source CFD Toolbox           |
|  \\    /   O peration     | Version:  4.1                                   |
|   \\  /    A nd           | Web:      www.OpenFOAM.org                      |
|    \\/     M anipulation  |                                                 |
\*---------------------------------------------------------------------------*/
FoamFile
{
    version     2.0;
    format      ascii;
    class       surfaceScalarField;
    location    "1100";
    object      phi;
}
// * * * * * * * * * * * * * * * * * * * * * * * * * * * * * * * * * * * * * //

dimensions      [0 3 -1 0 0 0 0];

internalField   nonuniform List<scalar> 
13452
(
5.95313e-05
7.37189e-07
5.86592e-05
8.72055e-07
5.78162e-05
8.43023e-07
5.69811e-05
8.35093e-07
5.61551e-05
8.26045e-07
5.53509e-05
8.04137e-07
5.4576e-05
7.74946e-07
5.38328e-05
7.43204e-07
5.31224e-05
7.10329e-07
5.24455e-05
6.76898e-07
5.1802e-05
6.43566e-07
5.11911e-05
6.10909e-07
5.06118e-05
5.79288e-07
5.00629e-05
5.48891e-07
4.95431e-05
5.19807e-07
4.9051e-05
4.9207e-07
4.85853e-05
4.65672e-07
4.81448e-05
4.40578e-07
4.7728e-05
4.16737e-07
4.73339e-05
3.94091e-07
4.69614e-05
3.72576e-07
4.66092e-05
3.5213e-07
4.62765e-05
3.3269e-07
4.59623e-05
3.14195e-07
4.56658e-05
2.96588e-07
4.53859e-05
2.79816e-07
4.51221e-05
2.63815e-07
4.48735e-05
2.48587e-07
4.46397e-05
2.33885e-07
4.44192e-05
2.20435e-07
4.42136e-05
2.0559e-07
4.40178e-05
1.9581e-07
1.68009e-07
4.38498e-05
6.23701e-05
3.5739e-07
6.26549e-05
5.87255e-07
6.28762e-05
6.21723e-07
6.30527e-05
6.58587e-07
6.31874e-05
6.91411e-07
6.32837e-05
7.07861e-07
6.33451e-05
7.1353e-07
6.33748e-05
7.13499e-07
6.33761e-05
7.09032e-07
6.33524e-05
7.00535e-07
6.33073e-05
6.88731e-07
6.32438e-05
6.74417e-07
6.31648e-05
6.58229e-07
6.30731e-05
6.40652e-07
6.29708e-05
6.22079e-07
6.286e-05
6.02837e-07
6.27425e-05
5.83188e-07
6.26197e-05
5.63339e-07
6.2493e-05
5.43455e-07
6.23634e-05
5.23661e-07
6.2232e-05
5.0406e-07
6.20994e-05
4.84728e-07
6.19663e-05
4.6572e-07
6.18335e-05
4.47081e-07
6.17012e-05
4.28837e-07
6.157e-05
4.1101e-07
6.14402e-05
3.93601e-07
6.13122e-05
3.76648e-07
6.1186e-05
3.60032e-07
6.10624e-05
3.44085e-07
6.09402e-05
3.27743e-07
6.08228e-05
3.13269e-07
2.97067e-07
6.06937e-05
6.38365e-05
2.82304e-07
6.38978e-05
5.25936e-07
6.39331e-05
5.86407e-07
6.39614e-05
6.30299e-07
6.39849e-05
6.67943e-07
6.40043e-05
6.88445e-07
6.40213e-05
6.96576e-07
6.40366e-05
6.98201e-07
6.40503e-05
6.95271e-07
6.40624e-05
6.88412e-07
6.40728e-05
6.78395e-07
6.40812e-05
6.66034e-07
6.40874e-05
6.5195e-07
6.40915e-05
6.36591e-07
6.40933e-05
6.20312e-07
6.40927e-05
6.03399e-07
6.40898e-05
5.8608e-07
6.40846e-05
5.68532e-07
6.40772e-05
5.50894e-07
6.40676e-05
5.33272e-07
6.40559e-05
5.15747e-07
6.40422e-05
4.98384e-07
6.40267e-05
4.81229e-07
6.40095e-05
4.64316e-07
6.39906e-05
4.47668e-07
6.39704e-05
4.31301e-07
6.39487e-05
4.15216e-07
6.3926e-05
3.99431e-07
6.39021e-05
3.83892e-07
6.38775e-05
3.68695e-07
6.38516e-05
3.53603e-07
6.3826e-05
3.38896e-07
3.24606e-07
6.37985e-05
6.5644e-05
2.21346e-07
6.57108e-05
4.59203e-07
6.57547e-05
5.4244e-07
6.57894e-05
5.95593e-07
6.5819e-05
6.38406e-07
6.58438e-05
6.63645e-07
6.5865e-05
6.75383e-07
6.58835e-05
6.79617e-07
6.59001e-05
6.78756e-07
6.59148e-05
6.73631e-07
6.59282e-05
6.6509e-07
6.59402e-05
6.53995e-07
6.59511e-05
6.41013e-07
6.59611e-05
6.26629e-07
6.59702e-05
6.11222e-07
6.59785e-05
5.95098e-07
6.59861e-05
5.785e-07
6.5993e-05
5.61618e-07
6.59993e-05
5.44597e-07
6.6005e-05
5.27549e-07
6.60102e-05
5.10559e-07
6.60149e-05
4.93693e-07
6.60191e-05
4.76997e-07
6.60229e-05
4.60503e-07
6.60264e-05
4.44234e-07
6.60294e-05
4.28204e-07
6.60323e-05
4.12412e-07
6.60348e-05
3.96865e-07
6.60372e-05
3.81534e-07
6.60394e-05
3.66454e-07
6.60415e-05
3.51532e-07
6.60435e-05
3.36873e-07
3.22835e-07
6.60453e-05
6.75014e-05
1.76691e-07
6.75606e-05
4.00047e-07
6.7606e-05
4.97072e-07
6.76451e-05
5.56441e-07
6.76814e-05
6.02161e-07
6.77143e-05
6.30727e-07
6.77441e-05
6.45523e-07
6.77716e-05
6.52145e-07
6.77972e-05
6.5321e-07
6.7821e-05
6.49744e-07
6.78435e-05
6.42667e-07
6.78646e-05
6.32878e-07
6.78845e-05
6.21069e-07
6.79034e-05
6.07749e-07
6.79213e-05
5.93311e-07
6.79383e-05
5.78071e-07
6.79546e-05
5.62282e-07
6.797e-05
5.46139e-07
6.79848e-05
5.29791e-07
6.7999e-05
5.13356e-07
6.80127e-05
4.96922e-07
6.80258e-05
4.80557e-07
6.80385e-05
4.64309e-07
6.80508e-05
4.48213e-07
6.80627e-05
4.32292e-07
6.80744e-05
4.16558e-07
6.80858e-05
4.01015e-07
6.8097e-05
3.85664e-07
6.8108e-05
3.70486e-07
6.8119e-05
3.55485e-07
6.81299e-05
3.40631e-07
6.81408e-05
3.25934e-07
3.11557e-07
6.81521e-05
6.94169e-05
1.43865e-07
6.94686e-05
3.48321e-07
6.95132e-05
4.52411e-07
6.95533e-05
5.16339e-07
6.95912e-05
5.64288e-07
6.96263e-05
5.95614e-07
6.96587e-05
6.1312e-07
6.9689e-05
6.21898e-07
6.97175e-05
6.24713e-07
6.97444e-05
6.22776e-07
6.977e-05
6.17078e-07
6.97944e-05
6.08534e-07
6.98176e-05
5.97853e-07
6.98398e-05
5.85555e-07
6.98611e-05
5.72047e-07
6.98815e-05
5.57654e-07
6.99011e-05
5.42633e-07
6.99201e-05
5.27187e-07
6.99384e-05
5.1147e-07
6.99561e-05
4.95605e-07
6.99734e-05
4.79686e-07
6.99902e-05
4.63781e-07
7.00065e-05
4.47945e-07
7.00225e-05
4.32212e-07
7.00382e-05
4.16608e-07
7.00536e-05
4.01147e-07
7.00688e-05
3.85832e-07
7.00838e-05
3.70661e-07
7.00987e-05
3.55621e-07
7.01134e-05
3.407e-07
7.01282e-05
3.25875e-07
7.0143e-05
3.11096e-07
2.96428e-07
7.01582e-05
7.13907e-05
1.1945e-07
7.14348e-05
3.04264e-07
7.14764e-05
4.10818e-07
7.1515e-05
4.77778e-07
7.15522e-05
5.27082e-07
7.15874e-05
5.60332e-07
7.16206e-05
5.7999e-07
7.16519e-05
5.90599e-07
7.16816e-05
5.94957e-07
7.171e-05
5.94403e-07
7.17371e-05
5.89964e-07
7.17631e-05
5.82562e-07
7.1788e-05
5.72916e-07
7.1812e-05
5.6156e-07
7.18352e-05
5.48911e-07
7.18575e-05
5.35302e-07
7.18791e-05
5.20999e-07
7.19001e-05
5.06206e-07
7.19205e-05
4.91087e-07
7.19403e-05
4.75766e-07
7.19597e-05
4.60341e-07
7.19786e-05
4.44884e-07
7.19971e-05
4.29451e-07
7.20152e-05
4.14079e-07
7.2033e-05
3.98794e-07
7.20506e-05
3.83611e-07
7.20679e-05
3.68535e-07
7.2085e-05
3.53562e-07
7.21019e-05
3.38679e-07
7.21187e-05
3.23866e-07
7.21355e-05
3.09096e-07
7.21523e-05
2.94299e-07
2.79481e-07
7.21693e-05
7.34237e-05
1.00988e-07
7.34611e-05
2.66878e-07
7.34997e-05
3.72238e-07
7.35369e-05
4.40545e-07
7.35736e-05
4.90381e-07
7.36091e-05
5.2488e-07
7.36428e-05
5.46274e-07
7.36749e-05
5.58489e-07
7.37056e-05
5.64252e-07
7.3735e-05
5.64985e-07
7.37633e-05
5.61739e-07
7.37904e-05
5.55437e-07
7.38165e-05
5.46802e-07
7.38417e-05
5.36377e-07
7.3866e-05
5.24587e-07
7.38895e-05
5.11769e-07
7.39123e-05
4.98191e-07
7.39345e-05
4.84064e-07
7.3956e-05
4.69554e-07
7.3977e-05
4.54789e-07
7.39975e-05
4.39869e-07
7.40175e-05
4.24871e-07
7.40371e-05
4.09851e-07
7.40563e-05
3.94851e-07
7.40752e-05
3.79898e-07
7.40938e-05
3.65007e-07
7.41122e-05
3.50186e-07
7.41303e-05
3.3543e-07
7.41482e-05
3.20728e-07
7.41661e-05
3.06057e-07
7.41838e-05
2.91388e-07
7.42014e-05
2.76661e-07
2.6187e-07
7.4219e-05
7.55168e-05
8.66839e-08
7.55485e-05
2.35119e-07
7.55839e-05
3.36838e-07
7.56193e-05
4.05165e-07
7.56547e-05
4.5495e-07
7.56895e-05
4.90131e-07
7.5723e-05
5.12804e-07
7.57551e-05
5.2632e-07
7.57861e-05
5.33271e-07
7.5816e-05
5.3513e-07
7.58447e-05
5.32957e-07
7.58725e-05
5.27662e-07
7.58994e-05
5.19964e-07
7.59253e-05
5.10412e-07
7.59505e-05
4.99432e-07
7.59749e-05
4.87363e-07
7.59986e-05
4.74479e-07
7.60217e-05
4.60991e-07
7.60442e-05
4.4707e-07
7.60661e-05
4.32847e-07
7.60875e-05
4.18424e-07
7.61085e-05
4.03881e-07
7.61291e-05
3.89277e-07
7.61493e-05
3.74655e-07
7.61692e-05
3.60044e-07
7.61887e-05
3.45463e-07
7.6208e-05
3.30918e-07
7.6227e-05
3.16409e-07
7.62458e-05
3.01924e-07
7.62644e-05
2.87442e-07
7.62829e-05
2.72935e-07
7.63012e-05
2.58337e-07
2.43632e-07
7.63194e-05
7.76709e-05
7.53135e-08
7.76981e-05
2.08015e-07
7.77304e-05
3.04519e-07
7.77639e-05
3.71675e-07
7.7798e-05
4.20803e-07
7.78321e-05
4.56085e-07
7.78653e-05
4.79554e-07
7.78976e-05
4.94055e-07
7.79289e-05
5.01984e-07
7.79592e-05
5.04819e-07
7.79885e-05
5.03611e-07
7.80169e-05
4.99245e-07
7.80445e-05
4.92432e-07
7.80712e-05
4.83715e-07
7.80971e-05
4.73521e-07
7.81222e-05
4.62191e-07
7.81467e-05
4.49996e-07
7.81706e-05
4.37153e-07
7.81938e-05
4.2383e-07
7.82165e-05
4.10162e-07
7.82387e-05
3.96254e-07
7.82603e-05
3.82187e-07
7.82816e-05
3.68022e-07
7.83025e-05
3.53804e-07
7.83229e-05
3.39565e-07
7.83431e-05
3.25324e-07
7.83629e-05
3.11092e-07
7.83824e-05
2.9687e-07
7.84017e-05
2.82649e-07
7.84207e-05
2.68413e-07
7.84395e-05
2.54141e-07
7.84581e-05
2.39791e-07
2.25374e-07
7.84763e-05
7.98876e-05
6.60391e-08
7.99109e-05
1.84697e-07
7.99404e-05
2.7507e-07
7.99719e-05
3.40093e-07
8.00047e-05
3.88063e-07
8.00378e-05
4.22993e-07
8.00705e-05
4.46855e-07
8.01025e-05
4.62056e-07
8.01337e-05
4.70763e-07
8.01641e-05
4.74418e-07
8.01937e-05
4.74054e-07
8.02224e-05
4.70524e-07
8.02503e-05
4.64522e-07
8.02774e-05
4.56585e-07
8.03038e-05
4.47134e-07
8.03295e-05
4.36509e-07
8.03545e-05
4.2498e-07
8.03789e-05
4.12761e-07
8.04027e-05
4.00025e-07
8.0426e-05
3.86905e-07
8.04487e-05
3.73509e-07
8.0471e-05
3.59919e-07
8.04928e-05
3.46199e-07
8.05142e-05
3.32396e-07
8.05352e-05
3.18543e-07
8.05559e-05
3.04664e-07
8.05762e-05
2.90771e-07
8.05962e-05
2.76868e-07
8.06159e-05
2.62952e-07
8.06353e-05
2.49011e-07
8.06544e-05
2.35029e-07
8.06732e-05
2.20967e-07
2.06831e-07
8.06918e-05
8.21682e-05
5.82876e-08
8.21885e-05
1.64436e-07
8.22153e-05
2.48231e-07
8.2245e-05
3.10375e-07
8.22763e-05
3.56735e-07
8.23084e-05
3.90902e-07
8.23405e-05
4.1476e-07
8.23722e-05
4.30355e-07
8.24034e-05
4.39616e-07
8.24339e-05
4.4392e-07
8.24637e-05
4.44265e-07
8.24927e-05
4.4147e-07
8.2521e-05
4.36203e-07
8.25486e-05
4.28987e-07
8.25755e-05
4.20239e-07
8.26017e-05
4.1029e-07
8.26273e-05
3.99407e-07
8.26523e-05
3.87804e-07
8.26767e-05
3.75652e-07
8.27005e-05
3.63086e-07
8.27238e-05
3.50212e-07
8.27466e-05
3.37115e-07
8.27689e-05
3.23861e-07
8.27908e-05
3.10497e-07
8.28123e-05
2.97061e-07
8.28334e-05
2.83576e-07
8.28541e-05
2.70061e-07
8.28744e-05
2.56522e-07
8.28944e-05
2.42961e-07
8.29141e-05
2.29373e-07
8.29333e-05
2.15753e-07
8.29522e-05
2.02084e-07
1.88399e-07
8.29707e-05
8.45144e-05
5.1665e-08
8.45322e-05
1.46639e-07
8.45567e-05
2.2372e-07
8.45846e-05
2.8243e-07
8.46146e-05
3.26788e-07
8.46457e-05
3.59845e-07
8.46771e-05
3.83358e-07
8.47083e-05
3.99075e-07
8.47393e-05
4.08688e-07
8.47697e-05
4.13485e-07
8.47995e-05
4.14419e-07
8.48287e-05
4.12264e-07
8.48573e-05
4.07659e-07
8.48852e-05
4.0111e-07
8.49124e-05
3.93021e-07
8.4939e-05
3.83716e-07
8.49649e-05
3.73458e-07
8.49903e-05
3.62457e-07
8.5015e-05
3.50881e-07
8.50393e-05
3.38865e-07
8.50629e-05
3.26517e-07
8.50861e-05
3.1392e-07
8.51089e-05
3.01143e-07
8.51311e-05
2.88234e-07
8.51529e-05
2.75234e-07
8.51744e-05
2.62169e-07
8.51954e-05
2.49061e-07
8.5216e-05
2.3592e-07
8.52362e-05
2.22753e-07
8.5256e-05
2.09563e-07
8.52754e-05
1.96349e-07
8.52944e-05
1.83097e-07
1.69835e-07
8.53129e-05
8.69279e-05
4.58959e-08
8.69437e-05
1.30829e-07
8.69662e-05
2.01254e-07
8.69925e-05
2.56144e-07
8.70211e-05
2.98168e-07
8.70511e-05
3.29816e-07
8.70818e-05
3.52678e-07
8.71126e-05
3.68255e-07
8.71433e-05
3.78018e-07
8.71737e-05
3.83144e-07
8.72035e-05
3.84533e-07
8.72329e-05
3.82913e-07
8.72617e-05
3.78887e-07
8.72898e-05
3.7294e-07
8.73174e-05
3.65461e-07
8.73443e-05
3.56765e-07
8.73707e-05
3.47106e-07
8.73965e-05
3.3669e-07
8.74217e-05
3.25682e-07
8.74463e-05
3.14215e-07
8.74704e-05
3.02397e-07
8.7494e-05
2.90311e-07
8.75172e-05
2.78026e-07
8.75398e-05
2.65594e-07
8.7562e-05
2.53055e-07
8.75837e-05
2.40441e-07
8.7605e-05
2.27774e-07
8.76258e-05
2.15071e-07
8.76462e-05
2.02343e-07
8.76662e-05
1.89599e-07
8.76857e-05
1.76847e-07
8.77047e-05
1.64091e-07
1.51374e-07
8.77232e-05
8.94106e-05
4.07846e-08
8.94249e-05
1.16626e-07
8.94455e-05
1.80565e-07
8.94703e-05
2.31384e-07
8.94977e-05
2.70802e-07
8.95267e-05
3.00784e-07
8.95566e-05
3.2273e-07
8.9587e-05
3.37929e-07
8.96173e-05
3.47649e-07
8.96475e-05
3.52953e-07
8.96774e-05
3.54675e-07
8.97068e-05
3.53493e-07
8.97357e-05
3.49971e-07
8.97641e-05
3.44569e-07
8.97919e-05
3.37658e-07
8.98191e-05
3.29538e-07
8.98458e-05
3.20457e-07
8.98719e-05
3.10612e-07
8.98974e-05
3.00166e-07
8.99223e-05
2.89249e-07
8.99468e-05
2.77966e-07
8.99707e-05
2.66402e-07
8.99941e-05
2.54625e-07
9.0017e-05
2.42688e-07
9.00394e-05
2.30635e-07
9.00613e-05
2.18497e-07
9.00828e-05
2.06302e-07
9.01038e-05
1.9407e-07
9.01243e-05
1.81817e-07
9.01444e-05
1.69557e-07
9.01639e-05
1.57303e-07
9.0183e-05
1.45058e-07
1.32863e-07
9.02015e-05
9.19645e-05
3.61889e-08
9.19774e-05
1.03728e-07
9.19965e-05
1.61407e-07
9.20199e-05
2.08009e-07
9.20461e-05
2.44603e-07
9.20742e-05
2.727e-07
9.21034e-05
2.93499e-07
9.21332e-05
3.08104e-07
9.21633e-05
3.17601e-07
9.21933e-05
3.22935e-07
9.22231e-05
3.24868e-07
9.22526e-05
3.24024e-07
9.22816e-05
3.20927e-07
9.23102e-05
3.16006e-07
9.23382e-05
3.09614e-07
9.23657e-05
3.02035e-07
9.23927e-05
2.93505e-07
9.24191e-05
2.84215e-07
9.24449e-05
2.74321e-07
9.24702e-05
2.63951e-07
9.2495e-05
2.53207e-07
9.25192e-05
2.42173e-07
9.25429e-05
2.30917e-07
9.25661e-05
2.19494e-07
9.25888e-05
2.07947e-07
9.2611e-05
1.96313e-07
9.26327e-05
1.8462e-07
9.26538e-05
1.72892e-07
9.26745e-05
1.6115e-07
9.26947e-05
1.4941e-07
9.27143e-05
1.37694e-07
9.27333e-05
1.26014e-07
1.14418e-07
9.27517e-05
9.45913e-05
3.20024e-08
9.46032e-05
9.18921e-08
9.4621e-05
1.43557e-07
9.46432e-05
1.85873e-07
9.46683e-05
2.19476e-07
9.46955e-05
2.45503e-07
9.4724e-05
2.64957e-07
9.47534e-05
2.78773e-07
9.47831e-05
2.8788e-07
9.48129e-05
2.93104e-07
9.48426e-05
2.95132e-07
9.48721e-05
2.94532e-07
9.49013e-05
2.91785e-07
9.493e-05
2.87289e-07
9.49582e-05
2.81371e-07
9.4986e-05
2.74301e-07
9.50132e-05
2.66301e-07
9.50398e-05
2.57552e-07
9.5066e-05
2.48206e-07
9.50915e-05
2.38383e-07
9.51166e-05
2.28184e-07
9.5141e-05
2.17692e-07
9.5165e-05
2.06974e-07
9.51884e-05
1.96085e-07
9.52113e-05
1.85069e-07
9.52336e-05
1.73964e-07
9.52554e-05
1.62802e-07
9.52767e-05
1.51609e-07
9.52975e-05
1.40408e-07
9.53176e-05
1.29221e-07
9.53373e-05
1.1807e-07
9.53563e-05
1.06968e-07
9.596e-08
9.53748e-05
9.72934e-05
2.81437e-08
9.73043e-05
8.09233e-08
9.73211e-05
1.26815e-07
9.73421e-05
1.64829e-07
9.73663e-05
1.95317e-07
9.73927e-05
2.19121e-07
9.74206e-05
2.37058e-07
9.74494e-05
2.49916e-07
9.74788e-05
2.58479e-07
9.75085e-05
2.63462e-07
9.75381e-05
2.65474e-07
9.75676e-05
2.65029e-07
9.75969e-05
2.62558e-07
9.76257e-05
2.58428e-07
9.76542e-05
2.5294e-07
9.76821e-05
2.46345e-07
9.77096e-05
2.38851e-07
9.77365e-05
2.30629e-07
9.77629e-05
2.21821e-07
9.77887e-05
2.12544e-07
9.7814e-05
2.02896e-07
9.78387e-05
1.92954e-07
9.78629e-05
1.82787e-07
9.78866e-05
1.72448e-07
9.79096e-05
1.61984e-07
9.79322e-05
1.51432e-07
9.79541e-05
1.40826e-07
9.79756e-05
1.30194e-07
9.79964e-05
1.19562e-07
9.80167e-05
1.08955e-07
9.80363e-05
9.83973e-08
9.80554e-05
8.7907e-08
7.75323e-08
9.80738e-05
0.000100073
2.45483e-08
0.000100083
7.06605e-08
0.000100099
1.11005e-07
0.000100119
1.44731e-07
0.000100142
1.72017e-07
0.000100168
1.9347e-07
0.000100195
2.09745e-07
0.000100224
2.21496e-07
0.000100253
2.29376e-07
0.000100282
2.33998e-07
0.000100312
2.35894e-07
0.000100341
2.35516e-07
0.00010037
2.33254e-07
0.000100399
2.29436e-07
0.000100428
2.24336e-07
0.000100456
2.18186e-07
0.000100484
2.11177e-07
0.000100511
2.03469e-07
0.000100538
1.95195e-07
0.000100564
1.86466e-07
0.000100589
1.77373e-07
0.000100614
1.67994e-07
0.000100639
1.58393e-07
0.000100662
1.48624e-07
0.000100686
1.38732e-07
0.000100708
1.28757e-07
0.000100731
1.18733e-07
0.000100752
1.08689e-07
0.000100773
9.86526e-08
0.000100793
8.86501e-08
0.000100813
7.87068e-08
0.000100832
6.88411e-08
5.90975e-08
0.00010085
0.000102931
2.11638e-08
0.000102941
6.09683e-08
0.000102956
9.59637e-08
0.000102975
1.25438e-07
0.000102998
1.49459e-07
0.000103023
1.6846e-07
0.00010305
1.82951e-07
0.000103078
1.93463e-07
0.000103107
2.00539e-07
0.000103136
2.04692e-07
0.000103166
2.06376e-07
0.000103195
2.05989e-07
0.000103224
2.03871e-07
0.000103254
2.00313e-07
0.000103282
1.95563e-07
0.000103311
1.89828e-07
0.000103339
1.83284e-07
0.000103366
1.76078e-07
0.000103393
1.68333e-07
0.000103419
1.60151e-07
0.000103445
1.5162e-07
0.00010347
1.42814e-07
0.000103495
1.33793e-07
0.000103519
1.2461e-07
0.000103542
1.1531e-07
0.000103565
1.05932e-07
0.000103587
9.65106e-08
0.000103609
8.70766e-08
0.00010363
7.76581e-08
0.00010365
6.82813e-08
0.00010367
5.89727e-08
0.000103689
4.97524e-08
4.06642e-08
0.000103707
0.000105872
1.79457e-08
0.000105881
5.17295e-08
0.000105896
8.15455e-08
0.000105914
1.06809e-07
0.000105936
1.27523e-07
0.000105961
1.43988e-07
0.000105987
1.56592e-07
0.000106015
1.65757e-07
0.000106043
1.71921e-07
0.000106073
1.75507e-07
0.000106102
1.76898e-07
0.000106132
1.7643e-07
0.000106161
1.74397e-07
0.00010619
1.71054e-07
0.000106219
1.66618e-07
0.000106248
1.61274e-07
0.000106276
1.55179e-07
0.000106303
1.48464e-07
0.000106331
1.41244e-07
0.000106357
1.33613e-07
0.000106383
1.25651e-07
0.000106408
1.17427e-07
0.000106433
1.09001e-07
0.000106457
1.00421e-07
0.000106481
9.17325e-08
0.000106504
8.2973e-08
0.000106526
7.41767e-08
0.000106548
6.53743e-08
0.000106569
5.65942e-08
0.00010659
4.78626e-08
0.000106609
3.92057e-08
0.000106628
3.0643e-08
2.22156e-08
0.000106647
0.000108896
1.48547e-08
0.000108905
4.28392e-08
0.000108919
6.76123e-08
0.000108937
8.87038e-08
0.000108959
1.06082e-07
0.000108983
1.19945e-07
0.000109009
1.30577e-07
0.000109036
1.38302e-07
0.000109065
1.43464e-07
0.000109094
1.464e-07
0.000109123
1.47424e-07
0.000109153
1.46813e-07
0.000109183
1.44816e-07
0.000109212
1.41648e-07
0.000109241
1.37495e-07
0.00010927
1.32519e-07
0.000109298
1.26858e-07
0.000109326
1.20628e-07
0.000109353
1.13931e-07
0.00010938
1.06853e-07
0.000109406
9.94679e-08
0.000109432
9.18388e-08
0.000109457
8.40206e-08
0.000109481
7.60609e-08
0.000109505
6.80014e-08
0.000109528
5.98791e-08
0.000109551
5.17272e-08
0.000109572
4.35757e-08
0.000109593
3.54524e-08
0.000109614
2.73829e-08
0.000109634
1.93928e-08
0.000109653
1.15008e-08
3.74561e-09
0.000109671
0.000112007
1.18541e-08
0.000112016
3.4199e-08
0.00011203
5.4031e-08
0.000112047
7.09812e-08
0.000112069
8.50001e-08
0.000112092
9.62086e-08
0.000112118
1.048e-07
0.000112145
1.11008e-07
0.000112174
1.15093e-07
0.000112203
1.17311e-07
0.000112232
1.17907e-07
0.000112262
1.17103e-07
0.000112292
1.15099e-07
0.000112321
1.12072e-07
0.000112351
1.08178e-07
0.00011238
1.03553e-07
0.000112408
9.83147e-08
0.000112436
9.25648e-08
0.000112464
8.63918e-08
0.000112491
7.98721e-08
0.000112517
7.30719e-08
0.000112543
6.60489e-08
0.000112568
5.88533e-08
0.000112593
5.15295e-08
0.000112616
4.41166e-08
0.00011264
3.66497e-08
0.000112662
2.91605e-08
0.000112684
2.16778e-08
0.000112705
1.42284e-08
0.000112726
6.83703e-09
0.000112746
-4.71983e-10
0.000112765
-7.68012e-09
-1.47508e-08
0.000112783
0.000115207
8.90762e-09
0.000115216
2.57142e-08
0.000115229
4.06702e-08
0.000115247
5.34965e-08
0.000115268
6.41357e-08
0.000115291
7.26464e-08
0.000115317
7.91422e-08
0.000115344
8.37757e-08
0.000115372
8.67237e-08
0.000115402
8.81692e-08
0.000115431
8.82899e-08
0.000115461
8.72519e-08
0.000115491
8.52085e-08
0.000115521
8.22984e-08
0.00011555
7.86455e-08
0.000115579
7.436e-08
0.000115608
6.95392e-08
0.000115637
6.42685e-08
0.000115664
5.86233e-08
0.000115691
5.26695e-08
0.000115718
4.64653e-08
0.000115744
4.00618e-08
0.000115769
3.35044e-08
0.000115794
2.68334e-08
0.000115818
2.0085e-08
0.000115842
1.32918e-08
0.000115864
6.48342e-09
0.000115886
-3.12854e-10
0.000115907
-7.07188e-09
0.000115928
-1.37706e-08
0.000115948
-2.03865e-08
0.000115967
-2.69037e-08
-3.32894e-08
0.000115986
0.000118499
5.9764e-09
0.000118507
1.7289e-08
0.00011852
2.73955e-08
0.000118538
3.60975e-08
0.000118559
4.33355e-08
0.000118582
4.91141e-08
0.000118608
5.34733e-08
0.000118635
5.64878e-08
0.000118664
5.8257e-08
0.000118693
5.88913e-08
0.000118723
5.85032e-08
0.000118753
5.72038e-08
0.000118783
5.50992e-08
0.000118813
5.22895e-08
0.000118843
4.88666e-08
0.000118872
4.49146e-08
0.000118901
4.05098e-08
0.00011893
3.57207e-08
0.000118958
3.0609e-08
0.000118985
2.52298e-08
0.000119012
1.96327e-08
0.000119038
1.38619e-08
0.000119064
7.9573e-09
0.000119089
1.95492e-09
0.000119113
-4.1126e-09
0.000119136
-1.02155e-08
0.000119159
-1.63265e-08
0.000119181
-2.24205e-08
0.000119203
-2.84741e-08
0.000119223
-3.44655e-08
0.000119243
-4.03736e-08
0.000119263
-4.61816e-08
-5.18582e-08
0.000119281
0.000121884
3.02901e-09
0.000121893
8.83344e-09
0.000121906
1.40728e-08
0.000121923
1.86273e-08
0.000121944
2.24368e-08
0.000121968
2.5454e-08
0.000121994
2.76473e-08
0.000122021
2.90146e-08
0.00012205
2.95794e-08
0.00012208
2.93803e-08
0.00012211
2.84658e-08
0.00012214
2.68915e-08
0.00012217
2.47169e-08
0.000122201
2.2003e-08
0.000122231
1.88096e-08
0.00012226
1.51944e-08
0.00012229
1.12121e-08
0.000122318
6.91405e-09
0.000122347
2.34788e-09
0.000122374
-2.44249e-09
0.000122401
-7.41666e-09
0.000122428
-1.25376e-08
0.000122454
-1.77712e-08
0.000122479
-2.30863e-08
0.000122503
-2.84541e-08
0.000122527
-3.38482e-08
0.000122549
-3.9244e-08
0.000122572
-4.46187e-08
0.000122593
-4.99514e-08
0.000122614
-5.52227e-08
0.000122634
-6.04144e-08
0.000122653
-6.55145e-08
-7.04964e-08
0.000122672
0.000125366
5.05671e-11
0.000125375
2.62059e-10
0.000125389
5.6308e-10
0.000125406
9.16944e-10
0.000125427
1.26095e-09
0.000125451
1.49111e-09
0.000125478
1.50021e-09
0.000125505
1.20781e-09
0.000125534
5.60134e-10
0.000125564
-4.7698e-10
0.000125595
-1.92011e-09
0.000125625
-3.76939e-09
0.000125656
-6.012e-09
0.000125687
-8.62617e-09
0.000125717
-1.15843e-08
0.000125747
-1.4855e-08
0.000125777
-1.84051e-08
0.000125806
-2.22008e-08
0.000125834
-2.62086e-08
0.000125862
-3.0396e-08
0.00012589
-3.47318e-08
0.000125916
-3.91866e-08
0.000125942
-4.37325e-08
0.000125967
-4.83432e-08
0.000125992
-5.29943e-08
0.000126016
-5.76627e-08
0.000126039
-6.23268e-08
0.000126061
-6.69664e-08
0.000126083
-7.15625e-08
0.000126104
-7.60974e-08
0.000126124
-8.0553e-08
0.000126143
-8.49146e-08
-8.91555e-08
0.000126162
0.000128948
-3.00496e-09
0.000128957
-8.55012e-09
0.000128971
-1.33172e-08
0.000128989
-1.7247e-08
0.000129011
-2.04122e-08
0.000129035
-2.29873e-08
0.000129062
-2.5165e-08
0.00012909
-2.7109e-08
0.00012912
-2.8954e-08
0.00012915
-3.081e-08
0.000129181
-3.27605e-08
0.000129212
-3.48625e-08
0.000129243
-3.71505e-08
0.000129274
-3.96421e-08
0.000129305
-4.23421e-08
0.000129335
-4.52457e-08
0.000129365
-4.83411e-08
0.000129395
-5.1612e-08
0.000129423
-5.5039e-08
0.000129452
-5.86011e-08
0.000129479
-6.22766e-08
0.000129506
-6.60435e-08
0.000129532
-6.98802e-08
0.000129558
-7.37658e-08
0.000129582
-7.76799e-08
0.000129606
-8.16033e-08
0.000129629
-8.55176e-08
0.000129652
-8.94057e-08
0.000129674
-9.32513e-08
0.000129694
-9.70401e-08
0.000129715
-1.00759e-07
0.000129734
-1.044e-07
-1.07944e-07
0.000129753
0.000132632
-6.20292e-09
0.000132641
-1.77729e-08
0.000132656
-2.78086e-08
0.000132675
-3.61362e-08
0.000132697
-4.28556e-08
0.000132723
-4.82403e-08
0.00013275
-5.2586e-08
0.000132779
-5.61499e-08
0.000132809
-5.91541e-08
0.00013284
-6.17901e-08
0.000132872
-6.42111e-08
0.000132903
-6.65313e-08
0.000132935
-6.88327e-08
0.000132967
-7.1172e-08
0.000132998
-7.3586e-08
0.000133029
-7.60959e-08
0.000133059
-7.87111e-08
0.000133089
-8.14325e-08
0.000133118
-8.42546e-08
0.000133147
-8.71678e-08
0.000133174
-9.01598e-08
0.000133202
-9.32162e-08
0.000133228
-9.63217e-08
0.000133254
-9.94605e-08
0.000133279
-1.02617e-07
0.000133303
-1.05775e-07
0.000133326
-1.08921e-07
0.000133349
-1.12038e-07
0.000133371
-1.15113e-07
0.000133392
-1.18132e-07
0.000133412
-1.21081e-07
0.000133432
-1.23946e-07
-1.26705e-07
0.000133451
0.000136422
-9.62441e-09
0.000136432
-2.76292e-08
0.000136447
-4.3223e-08
0.000136467
-5.60946e-08
0.00013649
-6.64084e-08
0.000136517
-7.45833e-08
0.000136545
-8.10436e-08
0.000136575
-8.61516e-08
0.000136606
-9.0229e-08
0.000136638
-9.35586e-08
0.00013667
-9.6369e-08
0.000136703
-9.88339e-08
0.000136735
-1.01083e-07
0.000136767
-1.03212e-07
0.000136799
-1.05288e-07
0.00013683
-1.07359e-07
0.000136861
-1.09454e-07
0.000136891
-1.11589e-07
0.00013692
-1.13774e-07
0.000136949
-1.16008e-07
0.000136977
-1.18288e-07
0.000137005
-1.20608e-07
0.000137031
-1.22957e-07
0.000137057
-1.25326e-07
0.000137082
-1.27704e-07
0.000137107
-1.30077e-07
0.00013713
-1.32435e-07
0.000137153
-1.34766e-07
0.000137175
-1.37059e-07
0.000137196
-1.39306e-07
0.000137216
-1.41497e-07
0.000137236
-1.43633e-07
-1.45696e-07
0.000137255
0.00014032
-1.33812e-08
0.00014033
-3.84282e-08
0.000140347
-5.99797e-08
0.000140369
-7.75638e-08
0.000140394
-9.14911e-08
0.000140421
-1.0241e-07
0.000140451
-1.10907e-07
0.000140483
-1.17462e-07
0.000140515
-1.22509e-07
0.000140548
-1.26431e-07
0.000140581
-1.29537e-07
0.000140614
-1.3206e-07
0.000140647
-1.34177e-07
0.00014068
-1.36024e-07
0.000140712
-1.37698e-07
0.000140744
-1.39272e-07
0.000140776
-1.40794e-07
0.000140806
-1.42295e-07
0.000140836
-1.43798e-07
0.000140866
-1.45312e-07
0.000140894
-1.46844e-07
0.000140922
-1.48392e-07
0.000140949
-1.49953e-07
0.000140975
-1.51522e-07
0.000141001
-1.53091e-07
0.000141025
-1.54653e-07
0.000141049
-1.56197e-07
0.000141072
-1.57715e-07
0.000141094
-1.59197e-07
0.000141115
-1.60633e-07
0.000141136
-1.62012e-07
0.000141156
-1.6332e-07
-1.64541e-07
0.000141174
0.000144329
-1.76366e-08
0.000144341
-5.06214e-08
0.00014436
-7.8668e-08
0.000144383
-1.01127e-07
0.00014441
-1.18614e-07
0.00014444
-1.32132e-07
0.000144472
-1.42474e-07
0.000144505
-1.50263e-07
0.000144538
-1.56074e-07
0.000144572
-1.6041e-07
0.000144606
-1.63658e-07
0.00014464
-1.6611e-07
0.000144674
-1.67987e-07
0.000144707
-1.69461e-07
0.00014474
-1.70658e-07
0.000144773
-1.7167e-07
0.000144805
-1.72563e-07
0.000144836
-1.73382e-07
0.000144866
-1.7416e-07
0.000144896
-1.74916e-07
0.000144924
-1.75664e-07
0.000144952
-1.76408e-07
0.00014498
-1.77153e-07
0.000145006
-1.77895e-07
0.000145032
-1.78632e-07
0.000145056
-1.79359e-07
0.00014508
-1.8007e-07
0.000145103
-1.8076e-07
0.000145125
-1.81423e-07
0.000145147
-1.82055e-07
0.000145168
-1.82653e-07
0.000145187
-1.83222e-07
-1.83749e-07
0.000145207
0.000148453
-2.26468e-08
0.000148467
-6.48905e-08
0.000148489
-1.00114e-07
0.000148515
-1.27578e-07
0.000148545
-1.48546e-07
0.000148577
-1.64529e-07
0.000148612
-1.7652e-07
0.000148647
-1.85297e-07
0.000148682
-1.91619e-07
0.000148718
-1.9613e-07
0.000148753
-1.99304e-07
0.000148789
-2.01491e-07
0.000148824
-2.0296e-07
0.000148858
-2.03916e-07
0.000148892
-2.0451e-07
0.000148925
-2.04852e-07
0.000148958
-2.05022e-07
0.000148989
-2.05078e-07
0.00014902
-2.05059e-07
0.00014905
-2.04994e-07
0.00014908
-2.04902e-07
0.000149108
-2.04792e-07
0.000149136
-2.04672e-07
0.000149162
-2.04544e-07
0.000149188
-2.04409e-07
0.000149213
-2.04263e-07
0.000149237
-2.04104e-07
0.00014926
-2.03927e-07
0.000149282
-2.03728e-07
0.000149304
-2.03498e-07
0.000149324
-2.0323e-07
0.000149344
-2.0291e-07
-2.0253e-07
0.000149363
0.000152695
-2.88636e-08
0.000152713
-8.23937e-08
0.000152738
-1.25507e-07
0.000152768
-1.57706e-07
0.000152801
-1.81663e-07
0.000152837
-1.99666e-07
0.000152873
-2.12885e-07
0.00015291
-2.22267e-07
0.000152947
-2.28782e-07
0.000152984
-2.33211e-07
0.000153021
-2.361e-07
0.000153057
-2.37844e-07
0.000153093
-2.38754e-07
0.000153128
-2.39062e-07
0.000153163
-2.38942e-07
0.000153196
-2.38518e-07
0.000153229
-2.37882e-07
0.000153261
-2.37101e-07
0.000153292
-2.36222e-07
0.000153323
-2.35279e-07
0.000153352
-2.34296e-07
0.000153381
-2.33288e-07
0.000153408
-2.32265e-07
0.000153435
-2.31233e-07
0.000153461
-2.30195e-07
0.000153486
-2.29151e-07
0.00015351
-2.28101e-07
0.000153533
-2.27044e-07
0.000153555
-2.25978e-07
0.000153576
-2.24905e-07
0.000153597
-2.23824e-07
0.000153617
-2.22744e-07
-2.21657e-07
0.000153636
0.00015706
-3.70373e-08
0.000157082
-1.05096e-07
0.000157114
-1.5706e-07
0.00015715
-1.93702e-07
0.000157188
-2.20154e-07
0.000157228
-2.39533e-07
0.000157269
-2.53183e-07
0.000157309
-2.62392e-07
0.000157348
-2.68443e-07
0.000157387
-2.72255e-07
0.000157426
-2.74418e-07
0.000157463
-2.75362e-07
0.0001575
-2.75425e-07
0.000157536
-2.74857e-07
0.000157571
-2.73836e-07
0.000157605
-2.72493e-07
0.000157638
-2.70924e-07
0.00015767
-2.69198e-07
0.000157701
-2.67367e-07
0.000157731
-2.65466e-07
0.00015776
-2.63522e-07
0.000157789
-2.61553e-07
0.000157816
-2.59571e-07
0.000157842
-2.57584e-07
0.000157868
-2.55597e-07
0.000157892
-2.53612e-07
0.000157916
-2.5163e-07
0.000157938
-2.49649e-07
0.00015796
-2.47669e-07
0.000157981
-2.45685e-07
0.000158001
-2.43691e-07
0.000158019
-2.41677e-07
-2.39643e-07
0.000158037
0.00016155
-4.90113e-08
0.000161581
-1.35631e-07
0.000161619
-1.95197e-07
0.00016166
-2.34432e-07
0.000161702
-2.62613e-07
0.000161746
-2.82838e-07
0.000161789
-2.96261e-07
0.000161831
-3.04659e-07
0.000161872
-3.09708e-07
0.000161912
-3.12439e-07
0.000161951
-3.13469e-07
0.000161989
-3.13263e-07
0.000162026
-3.12183e-07
0.000162062
-3.1049e-07
0.000162096
-3.08365e-07
0.00016213
-3.05937e-07
0.000162162
-3.03301e-07
0.000162193
-3.00525e-07
0.000162224
-2.97658e-07
0.000162253
-2.94736e-07
0.000162281
-2.91784e-07
0.000162308
-2.88819e-07
0.000162335
-2.85853e-07
0.00016236
-2.82894e-07
0.000162384
-2.79948e-07
0.000162408
-2.77017e-07
0.00016243
-2.74104e-07
0.000162452
-2.71208e-07
0.000162473
-2.68332e-07
0.000162492
-2.65475e-07
0.000162511
-2.62643e-07
0.000162529
-2.59846e-07
-2.57081e-07
0.000162547
0.000166174
-6.96575e-08
0.000166223
-1.84583e-07
0.000166276
-2.47759e-07
0.000166326
-2.84597e-07
0.000166374
-3.11058e-07
0.000166421
-3.29286e-07
0.000166465
-3.4022e-07
0.000166506
-3.46215e-07
0.000166546
-3.49165e-07
0.000166583
-3.50031e-07
0.000166619
-3.49365e-07
0.000166654
-3.47603e-07
0.000166687
-3.45089e-07
0.000166718
-3.42057e-07
0.000166748
-3.38669e-07
0.000166777
-3.35037e-07
0.000166805
-3.31245e-07
0.000166832
-3.27353e-07
0.000166858
-3.23404e-07
0.000166883
-3.19429e-07
0.000166906
-3.15449e-07
0.000166929