/*--------------------------------*- C++ -*----------------------------------*\
| =========                 |                                                 |
| \\      /  F ield         | OpenFOAM: The Open Source CFD Toolbox           |
|  \\    /   O peration     | Version:  4.1                                   |
|   \\  /    A nd           | Web:      www.OpenFOAM.org                      |
|    \\/     M anipulation  |                                                 |
\*---------------------------------------------------------------------------*/
FoamFile
{
    version     2.0;
    format      ascii;
    class       volScalarField;
    location    "1400";
    object      p;
}
// * * * * * * * * * * * * * * * * * * * * * * * * * * * * * * * * * * * * * //

dimensions      [0 2 -2 0 0 0 0];

internalField   nonuniform List<scalar> 
26785
(
-310.135
-310.709
-306.359
-299.124
-289.401
-277.675
-266.044
-256.422
-249.325
-245.117
-244.928
-248.834
-254.774
-261.245
-267.322
-272.21
-275.137
-275.414
-272.484
-266.147
-256.85
-245.714
-234.537
-225.118
-218.581
-215.452
-216.002
-220.283
-227.867
-238.187
-250.813
-265.453
-282.014
-300.595
-321.359
-344.436
-369.876
-397.619
-427.481
-459.155
-492.207
-526.072
-560.035
-593.236
-624.69
-653.366
-678.355
-699.168
-716.124
-729.911
-741.015
-749.961
-757.428
-763.992
-769.948
-775.452
-780.686
-785.849
-791.064
-796.403
-801.925
-807.686
-813.539
-818.947
-823.092
-825.198
-824.437
-819.938
-811.569
-800.019
-786.089
-770.312
-753.173
-735.512
-718.31
-702.88
-689.173
-675.498
-663.78
-653.865
-639.993
-619.012
-585.325
-537.885
-489.369
-452.068
-427.555
-410.577
-390.446
-364.821
-335.496
-304.187
-272.557
-241.106
-209.016
-176.669
-145.022
-118.795
-85.9351
-36.6218
-310.273
-310.743
-306.379
-299.163
-289.444
-277.699
-266.045
-256.41
-249.293
-245.066
-244.88
-248.811
-254.775
-261.265
-267.358
-272.26
-275.199
-275.487
-272.563
-266.219
-256.899
-245.718
-234.494
-225.042
-218.49
-215.362
-215.927
-220.234
-227.844
-238.183
-250.818
-265.456
-282.009
-300.578
-321.33
-344.397
-369.83
-397.569
-427.433
-459.116
-492.184
-526.073
-560.072
-593.316
-624.82
-653.543
-678.562
-699.362
-716.287
-730.056
-741.13
-750.037
-757.474
-764.021
-769.962
-775.446
-780.661
-785.808
-791.01
-796.339
-801.858
-807.636
-813.534
-819.02
-823.256
-825.468
-824.832
-820.421
-812.076
-800.516
-786.564
-770.743
-753.507
-735.691
-718.329
-702.817
-689.105
-675.335
-663.775
-654.372
-641.027
-620.907
-587.467
-538.825
-488.723
-450.848
-426.979
-410.796
-390.9
-365.328
-335.782
-304.24
-272.549
-241.083
-208.833
-176.319
-145.059
-120.683
-89.189
-38.1156
-310.471
-310.783
-306.41
-299.235
-289.526
-277.746
-266.047
-256.386
-249.231
-244.967
-244.787
-248.769
-254.779
-261.309
-267.435
-272.368
-275.333
-275.643
-272.73
-266.37
-256.998
-245.723
-234.397
-224.875
-218.293
-215.168
-215.762
-220.12
-227.778
-238.15
-250.8
-265.435
-281.972
-300.52
-321.25
-344.299
-369.72
-397.455
-427.325
-459.026
-492.127
-526.064
-560.129
-593.458
-625.057
-653.871
-678.95
-699.734
-716.604
-730.336
-741.354
-750.184
-757.566
-764.081
-769.992
-775.441
-780.621
-785.741
-790.919
-796.228
-801.752
-807.56
-813.526
-819.143
-823.553
-825.971
-825.575
-821.346
-813.061
-801.497
-787.52
-771.625
-754.209
-736.093
-718.423
-702.761
-689.013
-675.046
-663.815
-655.391
-643.057
-624.529
-591.435
-540.396
-487.332
-448.334
-425.863
-411.138
-391.866
-366.576
-336.58
-304.518
-272.677
-241.062
-208.261
-175.162
-144.708
-123.968
-95.7056
-42.0823
-310.723
-310.836
-306.457
-299.336
-289.643
-277.813
-266.049
-256.351
-249.141
-244.824
-244.657
-248.712
-254.79
-261.381
-267.563
-272.543
-275.549
-275.893
-272.993
-266.607
-257.154
-245.734
-234.256
-224.633
-218.01
-214.887
-215.518
-219.943
-227.663
-238.078
-250.75
-265.382
-281.897
-300.417
-321.12
-344.145
-369.55
-397.281
-427.16
-458.887
-492.034
-526.041
-560.201
-593.649
-625.386
-654.332
-679.5
-700.272
-717.064
-730.741
-741.675
-750.395
-757.699
-764.169
-770.037
-775.435
-780.57
-785.658
-790.812
-796.106
-801.647
-807.493
-813.525
-819.274
-823.892
-826.577
-826.517
-822.583
-814.432
-802.905
-788.928
-772.955
-755.298
-736.752
-718.639
-702.757
-688.883
-674.535
-663.782
-656.877
-646.287
-630.456
-598.262
-543.853
-486.127
-445.086
-424.623
-411.788
-393.252
-368.07
-337.294
-304.572
-272.627
-241.186
-207.98
-173.837
-143.499
-127.801
-103.771
-45.3662
-311.012
-310.886
-306.512
-299.459
-289.788
-277.896
-266.049
-256.305
-249.023
-244.64
-244.494
-248.644
-254.814
-261.496
-267.755
-272.8
-275.857
-276.239
-273.351
-266.927
-257.364
-245.753
-234.079
-224.328
-217.651
-214.527
-215.2
-219.705
-227.498
-237.966
-250.665
-265.292
-281.783
-300.268
-320.936
-343.933
-369.319
-397.043
-426.935
-458.696
-491.904
-525.999
-560.28
-593.882
-625.797
-654.914
-680.199
-700.968
-717.661
-731.264
-742.091
-750.67
-757.876
-764.291
-770.107
-775.445
-780.528
-785.58
-790.711
-795.988
-801.556
-807.462
-813.563
-819.413
-824.24
-827.216
-827.551
-824.006
-816.077
-804.658
-790.739
-774.715
-756.788
-737.697
-719.012
-702.946
-688.906
-673.972
-663.885
-658.597
-650.103
-637.697
-606.388
-547.85
-485.23
-441.194
-422.493
-413.187
-395.968
-370.893
-339.18
-305.34
-272.576
-241.024
-207.76
-173.045
-142.895
-133.323
-115.343
-50.5682
-311.375
-310.936
-306.567
-299.595
-289.952
-277.991
-266.047
-256.25
-248.881
-244.421
-244.303
-248.571
-254.865
-261.668
-268.024
-273.141
-276.251
-276.673
-273.796
-267.323
-257.626
-245.784
-233.872
-223.967
-217.224
-214.097
-214.816
-219.409
-227.286
-237.814
-250.543
-265.166
-281.627
-300.073
-320.701
-343.663
-369.026
-396.744
-426.65
-458.453
-491.733
-525.935
-560.362
-594.149
-626.277
-655.603
-681.03
-701.809
-718.385
-731.897
-742.596
-751.006
-758.098
-764.451
-770.207
-775.476
-780.499
-785.514
-790.62
-795.878
-801.475
-807.475
-813.652
-819.577
-824.58
-827.844
-828.604
-825.516
-817.894
-806.669
-792.893
-776.883
-758.7
-738.983
-719.591
-703.289
-688.764
-672.543
-663.644
-660.933
-655.068
-648.375
-620.969
-556.191
-484.306
-436.782
-420.319
-413.752
-396.161
-371.134
-339.614
-306.263
-274.084
-242.776
-209.495
-174.663
-144.623
-131.098
-113.635
-52.2516
-311.767
-310.979
-306.62
-299.735
-290.124
-278.092
-266.041
-256.187
-248.718
-244.171
-244.09
-248.502
-254.958
-261.91
-268.374
-273.563
-276.723
-277.184
-274.317
-267.788
-257.94
-245.827
-233.639
-223.559
-216.74
-213.606
-214.372
-219.062
-227.03
-237.624
-250.387
-265.004
-281.431
-299.831
-320.414
-343.337
-368.673
-396.382
-426.304
-458.154
-491.517
-525.843
-560.437
-594.437
-626.813
-656.383
-681.979
-702.784
-719.227
-732.63
-743.183
-751.399
-758.364
-764.651
-770.343
-775.537
-780.496
-785.472
-790.553
-795.785
-801.41
-807.533
-813.81
-819.801
-824.924
-828.451
-829.641
-827.043
-819.8
-808.863
-795.335
-779.432
-761.042
-740.624
-720.393
-704.041
-689.214
-671.264
-662.842
-662.374
-655.969
-650.352
-628.845
-566.102
-489.46
-439.129
-422.98
-415.446
-396.1
-370.612
-339.438
-306.828
-275.375
-244.425
-211.53
-177.539
-147.897
-128.006
-104.005
-46.5943
-312.135
-311.019
-306.68
-299.885
-290.307
-278.197
-266.031
-256.116
-248.535
-243.894
-243.858
-248.451
-255.11
-262.231
-268.802
-274.056
-277.262
-277.763
-274.908
-268.319
-258.304
-245.885
-233.383
-223.107
-216.205
-213.061
-213.877
-218.67
-226.734
-237.399
-250.196
-264.806
-281.194
-299.544
-320.076
-342.955
-368.26
-395.957
-425.896
-457.798
-491.254
-525.717
-560.498
-594.736
-627.394
-657.243
-683.039
-703.891
-720.19
-733.457
-743.844
-751.847
-758.677
-764.894
-770.52
-775.637
-780.531
-785.47
-790.522
-795.718
-801.364
-807.623
-814.046
-820.101
-825.29
-829.04
-830.65
-828.547
-821.734
-811.176
-798.008
-782.328
-763.836
-742.813
-721.658
-704.66
-689.683
-673.481
-666.023
-664.352
-657.246
-648.648
-625.952
-571.013
-497.641
-444.56
-425.958
-416.582
-397.056
-371.369
-340.355
-308.005
-276.604
-245.571
-212.775
-179.201
-150.103
-127.627
-100.381
-47.5097
-312.489
-311.063
-306.743
-300.041
-290.494
-278.304
-266.015
-256.04
-248.336
-243.591
-243.611
-248.434
-255.332
-262.632
-269.302
-274.612
-277.861
-278.405
-275.567
-268.918
-258.721
-245.957
-233.105
-222.614
-215.622
-212.469
-213.335
-218.238
-226.402
-237.139
-249.973
-264.572
-280.918
-299.212
-319.688
-342.519
-367.787
-395.47
-425.425
-457.383
-490.941
-525.554
-560.542
-595.044
-628.02
-658.19
-684.224
-705.142
-721.293
-734.386
-744.577
-752.348
-759.036
-765.183
-770.742
-775.781
-780.613
-785.522
-790.547
-795.69
-801.343
-807.749
-814.359
-820.483
-825.703
-829.637
-831.641
-830.008
-823.656
-813.554
-800.871
-785.566
-767.131
-745.486
-723.726
-707.268
-692.372
-676.422
-669.386
-666.334
-658.192
-647.686
-623.898
-573.822
-505.921
-452.405
-430.338
-418.083
-398.026
-372.344
-341.904
-310.036
-278.502
-246.937
-214.002
-180.622
-150.709
-124.906
-95.3764
-45.3363
-312.828
-311.101
-306.804
-300.198
-290.684
-278.412
-265.993
-255.959
-248.119
-243.258
-243.355
-248.468
-255.635
-263.111
-269.867
-275.225
-278.517
-279.112
-276.298
-269.59
-259.197
-246.047
-232.805
-222.079
-214.992
-211.828
-212.749
-217.768
-226.035
-236.848
-249.718
-264.303
-280.601
-298.836
-319.251
-342.026
-367.253
-394.918
-424.89
-456.909
-490.578
-525.355
-560.566
-595.361
-628.697
-659.241
-685.559
-706.558
-722.557
-735.43
-745.378
-752.895
-759.437
-765.507
-770.995
-775.959
-780.738
-785.634
-790.644
-795.718
-801.362
-807.923
-814.746
-820.954
-826.187
-830.282
-832.628
-831.426
-825.545
-815.97
-803.871
-789.058
-770.881
-749.015
-726.879
-710.644
-696.83
-681.525
-673.32
-668.646
-658.487
-645.774
-621.536
-575.764
-513.973
-461.987
-436.072
-420.5
-399.599
-373.626
-343.642
-312.281
-280.708
-248.666
-215.556
-182.401
-151.861
-123.481
-91.7976
-43.2876
-313.181
-311.132
-306.856
-300.353
-290.871
-278.519
-265.965
-255.874
-247.888
-242.892
-243.101
-248.572
-256.021
-263.665
-270.493
-275.891
-279.229
-279.885
-277.106
-270.342
-259.741
-246.157
-232.479
-221.498
-214.31
-211.136
-212.117
-217.26
-225.632
-236.524
-249.43
-263.998
-280.243
-298.412
-318.76
-341.475
-366.655
-394.298
-424.288
-456.373
-490.162
-525.114
-560.567
-595.686
-629.433
-660.409
-687.059
-708.141
-723.986
-736.587
-746.241
-753.481
-759.869
-765.854
-771.263
-776.149
-780.885
-785.796
-790.818
-795.819
-801.435
-808.163
-815.22
-821.526
-826.772
-831.008
-833.637
-832.814
-827.396
-818.379
-806.941
-792.808
-775.142
-753.342
-731.151
-714.849
-701.692
-687.115
-677.389
-671.263
-659.817
-645.112
-620.166
-577.706
-521.694
-472.157
-443.171
-424.021
-401.891
-375.445
-345.646
-314.533
-282.85
-250.407
-217.001
-183.678
-152.26
-121.813
-88.7086
-41.2965
-313.519
-311.158
-306.901
-300.504
-291.049
-278.621
-265.93
-255.786
-247.647
-242.489
-242.868
-248.761
-256.493
-264.29
-271.173
-276.606
-279.995
-280.724
-277.991
-271.179
-260.36
-246.293
-232.124
-220.866
-213.571
-210.387
-211.435
-216.712
-225.195
-236.169
-249.111
-263.657
-279.843
-297.938
-318.213
-340.861
-365.989
-393.608
-423.616
-455.772
-489.687
-524.823
-560.539
-596.015
-630.228
-661.697
-688.724
-709.883
-725.57
-737.848
-747.155
-754.1
-760.332
-766.221
-771.54
-776.338
-781.031
-785.985
-791.061
-796.002
-801.581
-808.488
-815.8
-822.218
-827.48
-831.832
-834.696
-834.192
-829.207
-820.787
-810.095
-796.755
-779.748
-758.318
-736.567
-720.138
-706.656
-692.469
-681.639
-673.837
-661.928
-645.811
-620.515
-580.613
-529.366
-482.395
-451.338
-428.835
-405.143
-378.103
-348.257
-317.098
-285.142
-252.274
-218.53
-184.884
-152.532
-120.317
-85.9277
-39.0912
-313.826
-311.183
-306.946
-300.655
-291.222
-278.717
-265.887
-255.697
-247.403
-242.046
-242.685
-249.043
-257.047
-264.979
-271.899
-277.364
-280.81
-281.625
-278.955
-272.105
-261.058
-246.46
-231.74
-220.178
-212.77
-209.579
-210.702
-216.125
-224.723
-235.784
-248.762
-263.28
-279.399
-297.413
-317.607
-340.182
-365.254
-392.846
-422.872
-455.1
-489.145
-524.477
-560.475
-596.345
-631.08
-663.101
-690.552
-711.773
-727.306
-739.208
-748.116
-754.756
-760.83
-766.617
-771.835
-776.531
-781.168
-786.181
-791.357
-796.265
-801.811
-808.918
-816.507
-823.038
-828.321
-832.776
-835.831
-835.587
-831.021
-823.187
-813.183
-800.645
-784.557
-764.023
-742.88
-726.135
-711.94
-697.726
-686.263
-676.953
-664.719
-647.761
-622.341
-584.461
-536.993
-492.296
-459.809
-434.579
-409.252
-381.479
-351.398
-320.012
-287.691
-254.387
-220.242
-186.105
-152.784
-119.093
-83.5771
-37.002
-314.108
-311.207
-306.986
-300.805
-291.388
-278.808
-265.837
-255.609
-247.161
-241.559
-242.576
-249.421
-257.681
-265.721
-272.663
-278.157
-281.668
-282.584
-279.991
-273.119
-261.836
-246.656
-231.328
-219.432
-211.906
-208.711
-209.92
-215.502
-224.22
-235.371
-248.381
-262.865
-278.908
-296.834
-316.94
-339.436
-364.447
-392.009
-422.053
-454.354
-488.534
-524.071
-560.371
-596.67
-631.98
-664.615
-692.537
-713.808
-729.193
-740.658
-749.116
-755.446
-761.368
-767.05
-772.164
-776.743
-781.301
-786.376
-791.691
-796.604
-802.135
-809.471
-817.357
-823.997
-829.309
-833.862
-837.07
-837.043
-832.861
-825.673
-816.515
-804.971
-790.111
-770.726
-749.946
-732.715
-717.853
-703.518
-691.553
-681.171
-668.422
-650.884
-625.422
-589.109
-544.609
-501.83
-468.351
-440.946
-414.078
-385.476
-354.975
-323.197
-290.41
-256.62
-222.01
-187.301
-153.07
-118.159
-81.6382
-35.1633
-314.368
-311.225
-307.022
-300.951
-291.546
-278.892
-265.78
-255.523
-246.924
-241.034
-242.563
-249.893
-258.385
-266.508
-273.456
-278.979
-282.563
-283.593
-281.095
-274.221
-262.697
-246.878
-230.888
-218.629
-210.981
-207.79
-209.097
-214.849
-223.688
-234.931
-247.972
-262.411
-278.369
-296.198
-316.21
-338.623
-363.568
-391.098
-421.157
-453.532
-487.853
-523.603
-560.222
-596.978
-632.92
-666.233
-694.678
-715.98
-731.231
-742.185
-750.137
-756.159
-761.937
-767.516
-772.533
-776.988
-781.443
-786.575
-792.056
-797.01
-802.556
-810.166
-818.365
-825.102
-830.456
-835.113
-838.449
-838.655
-835.019
-828.745
-820.798
-810.507
-796.712
-778.177
-757.686
-740.086
-724.742
-710.379
-698.001
-686.663
-673.222
-655.159
-629.662
-594.574
-552.398
-511.165
-476.949
-447.748
-419.446
-389.968
-358.931
-326.662
-293.343
-259.016
-223.869
-188.53
-153.471
-117.531
-80.0179
-33.6217
-314.626
-311.237
-307.05
-301.093
-291.693
-278.972
-265.715
-255.439
-246.692
-240.483
-242.658
-250.453
-259.152
-267.331
-274.273
-279.826
-283.49
-284.65
-282.264
-275.411
-263.64
-247.122
-230.423
-217.773
-210.002
-206.821
-208.239
-214.17
-223.132
-234.469
-247.533
-261.919
-277.781
-295.505
-315.419
-337.744
-362.621
-390.114
-420.186
-452.637
-487.101
-523.069
-560.018
-597.257
-633.885
-667.945
-696.97
-718.278
-733.411
-743.767
-751.155
-756.877
-762.516
-767.998
-772.933
-777.272
-781.606
-786.786
-792.451
-797.475
-803.079
-811.015
-819.545
-826.359
-831.781
-836.546
-840.095
-840.742
-837.976
-832.839
-826.029
-816.801
-803.928
-786.249
-766.256
-748.524
-732.845
-718.454
-705.687
-693.44
-679.199
-660.572
-635.015
-600.894
-560.51
-520.439
-485.618
-454.91
-425.283
-394.898
-363.231
-330.394
-296.497
-261.594
-225.862
-189.869
-154.051
-117.192
-78.6395
-32.3718
-314.862
-311.245
-307.074
-301.231
-291.828
-279.044
-265.641
-255.358
-246.461
-239.933
-242.867
-251.094
-259.972
-268.184
-275.113
-280.697
-284.45
-285.754
-283.497
-276.687
-264.665
-247.386
-229.935
-216.866
-208.974
-205.809
-207.355
-213.475
-222.558
-233.988
-247.067
-261.388
-277.146
-294.759
-314.571
-336.806
-361.609
-389.063
-419.147
-451.672
-486.279
-522.465
-559.749
-597.493
-634.863
-669.742
-699.399
-720.682
-735.706
-745.373
-752.142
-757.574
-763.077
-768.468
-773.341
-777.581
-781.789
-787.013
-792.877
-797.993
-803.703
-812.032
-820.904
-827.779
-833.283
-838.314
-842.289
-843.581
-841.721
-837.673
-831.938
-823.756
-811.863
-795.138
-775.874
-758.21
-742.267
-727.726
-714.521
-701.433
-686.369
-667.147
-641.482
-608.088
-569.036
-529.779
-494.424
-462.442
-431.6
-400.29
-367.914
-334.436
-299.909
-264.384
-228.021
-191.346
-154.788
-117.068
-77.5367
-31.3459
-315.071
-311.252
-307.096
-301.367
-291.95
-279.109
-265.558
-255.281
-246.228
-239.422
-243.193
-251.81
-260.84
-269.065
-275.976
-281.594
-285.443
-286.906
-284.796
-278.055
-265.775
-247.671
-229.424
-215.911
-207.907
-204.763
-206.455
-212.771
-221.971
-233.492
-246.575
-260.819
-276.466
-293.966
-313.673
-335.814
-360.542
-387.953
-418.046
-450.641
-485.386
-521.785
-559.403
-597.667
-635.834
-671.601
-701.94
-723.161
-738.077
-746.959
-753.068
-758.224
-763.589
-768.892
-773.728
-777.891
-781.985
-787.257
-793.332
-798.555
-804.428
-813.228
-822.447
-829.359
-835.076
-840.626
-845.169
-847.159
-846.235
-843.268
-838.633
-831.553
-820.707
-805.052
-786.707
-769.253
-753.087
-738.264
-724.538
-710.638
-694.761
-674.93
-649.099
-616.223
-578.144
-539.443
-503.608
-470.526
-438.547
-406.285
-373.116
-338.91
-303.678
-267.463
-230.399
-192.986
-155.651
-117.137
-76.8851
-30.5151
-315.259
-311.257
-307.115
-301.497
-292.058
-279.166
-265.467
-255.207
-245.984
-239.007
-243.638
-252.592
-261.749
-269.976
-276.864
-282.519
-286.472
-288.109
-286.165
-279.522
-266.977
-247.978
-228.891
-214.912
-206.808
-203.687
-205.551
-212.069
-221.382
-232.985
-246.058
-260.216
-275.747
-293.132
-312.734
-334.78
-359.429
-386.794
-416.889
-449.546
-484.421
-521.021
-558.967
-597.758
-636.767
-673.491
-704.553
-725.676
-740.472
-748.475
-753.897
-758.799
-764.018
-769.236
-774.057
-778.168
-782.17
-787.51
-793.81
-799.15
-805.249
-814.608
-824.184
-831.13
-837.347
-843.587
-848.778
-851.568
-851.629
-849.749
-846.237
-840.316
-830.588
-816.124
-798.822
-781.683
-765.345
-750.166
-735.843
-721.132
-704.437
-683.977
-657.932
-625.436
-588.114
-549.827
-513.557
-479.472
-446.373
-413.094
-379.022
-343.971
-307.927
-270.918
-233.058
-194.824
-156.658
-117.426
-76.7341
-29.8935
-315.429
-311.256
-307.131
-301.621
-292.152
-279.217
-265.365
-255.136
-245.713
-238.757
-244.203
-253.435
-262.699
-270.916
-277.778
-283.473
-287.536
-289.364
-287.608
-281.098
-268.282
-248.308
-228.336
-213.871
-205.681
-202.594
-204.66
-211.381
-220.798
-232.473
-245.519
-259.585
-274.996
-292.267
-311.765
-333.714
-358.281
-385.593
-415.682
-448.391
-483.382
-520.166
-558.421
-597.734
-637.626
-675.371
-707.194
-728.191
-742.83
-749.867
-754.596
-759.267
-764.328
-769.465
-774.289
-778.374
-782.316
-787.756
-794.296
-799.758
-806.159
-816.186
-826.093
-833.279
-840.295
-847.294
-853.227
-856.908
-857.972
-857.203
-854.862
-850.14
-841.572
-828.361
-812.15
-795.417
-778.996
-763.459
-748.51
-732.981
-715.454
-694.338
-668.038
-635.844
-599.168
-561.223
-524.543
-489.487
-455.228
-420.826
-385.714
-349.68
-312.692
-274.77
-236.011
-196.883
-157.849
-117.929
-76.8754
-29.471
-315.591
-311.251
-307.143
-301.739
-292.231
-279.261
-265.252
-255.067
-245.392
-238.751
-244.887
-254.336
-263.688
-271.886
-278.719
-284.453
-288.634
-290.669
-289.122
-282.784
-269.705
-248.668
-227.763
-212.789
-204.529
-201.495
-203.797
-210.72
-220.231
-231.963
-244.965
-258.931
-274.224
-291.381
-310.775
-332.627
-357.108
-384.36
-414.43
-447.176
-482.265
-519.207
-557.742
-597.563
-638.373
-677.209
-709.831
-730.686
-745.095
-751.09
-755.136
-759.595
-764.483
-769.542
-774.387
-778.465
-782.39
-787.971
-794.766
-800.353
-807.15
-817.944
-828.299
-836.05
-843.958
-851.764
-858.583
-863.184
-865.299
-865.713
-864.596
-861.056
-853.623
-841.652
-826.531
-810.296
-793.915
-778.076
-762.512
-746.175
-727.811
-706.012
-679.41
-647.437
-611.292
-573.608
-536.51
-500.483
-465.014
-429.383
-393.101
-355.956
-317.913
-278.981
-239.25
-199.183
-159.274
-118.643
-77.1029
-29.2177
-315.731
-311.244
-307.154
-301.851
-292.293
-279.301
-265.129
-255.001
-244.986
-239.034
-245.685
-255.293
-264.712
-272.883
-279.681
-285.455
-289.759
-292.018
-290.704
-284.574
-271.261
-249.066
-227.173
-211.666
-203.358
-200.408
-202.982
-210.1
-219.692
-231.461
-244.402
-258.263
-273.438
-290.484
-309.775
-331.528
-355.918
-383.1
-413.137
-445.901
-481.063
-518.13
-556.909
-597.22
-638.99
-678.992
-712.451
-733.165
-747.201
-752.118
-755.499
-759.752
-764.449
-769.438
-774.313
-778.401
-782.353
-788.13
-795.19
-800.903
-808.194
-819.948
-830.972
-839.462
-848.299
-857.061
-864.811
-870.385
-873.648
-875.325
-875.431
-872.996
-866.636
-855.853
-841.798
-826.153
-809.942
-793.875
-777.733
-760.61
-741.411
-718.91
-691.947
-660.077
-624.301
-586.747
-549.188
-512.184
-475.475
-438.549
-401.011
-362.672
-323.502
-283.507
-242.764
-201.743
-160.966
-119.576
-77.3686
-29.1122
-315.853
-311.237
-307.165
-301.957
-292.339
-279.335
-264.996
-254.938
-244.465
-239.593
-246.585
-256.303
-265.769
-273.904
-280.66
-286.469
-290.899
-293.398
-292.343
-286.456
-272.955
-249.508
-226.571
-210.507
-202.176
-199.349
-202.234
-209.533
-219.191
-230.975
-243.838
-257.59
-272.646
-289.582
-308.771
-330.422
-354.717
-381.816
-411.803
-444.563
-479.771
-516.926
-555.911
-596.694
-639.469
-680.716
-715.046
-735.656
-749.086
-752.912
-755.674
-759.708
-764.196
-769.121
-774.029
-778.139
-782.168
-788.2
-795.532
-801.356
-809.338
-822.318
-834.122
-843.439
-853.362
-863.154
-871.875
-878.515
-883.026
-886.001
-887.273
-885.847
-880.497
-870.845
-857.835
-842.86
-826.92
-810.692
-794.011
-776.127
-756.103
-732.884
-705.495
-673.587
-637.984
-600.397
-562.31
-524.323
-486.372
-448.131
-409.302
-369.734
-329.406
-288.324
-246.555
-204.574
-162.93
-120.728
-77.7183
-29.1428
-315.96
-311.227
-307.174
-302.054
-292.367
-279.364
-264.852
-254.884
-243.788
-240.366
-247.569
-257.364
-266.853
-274.941
-281.645
-287.484
-292.041
-294.791
-294.021
-288.418
-274.783
-249.998
-225.963
-209.317
-200.994
-198.342
-201.568
-209.03
-218.737
-230.512
-243.278
-256.914
-271.852
-288.68
-307.766
-329.314
-353.505
-380.509
-410.425
-443.158
-478.383
-515.591
-554.745
-595.982
-639.804
-682.37
-717.6
-738.211
-750.733
-753.407
-755.642
-759.43
-763.698
-768.567
-773.502
-777.64
-781.801
-788.153
-795.755
-801.733
-810.686
-824.997
-837.628
-847.971
-859.121
-869.993
-879.761
-887.562
-893.386
-897.644
-899.997
-899.502
-895.126
-886.566
-874.584
-860.327
-844.72
-828.376
-811.192
-792.572
-771.736
-747.784
-719.905
-687.817
-652.19
-614.405
-575.716
-536.742
-497.572
-458.029
-417.912
-377.11
-335.618
-293.439
-250.635
-207.684
-165.156
-122.091
-78.2196
-29.3021
-316.054
-311.214
-307.183
-302.14
-292.376
-279.386
-264.698
-254.872
-242.958
-241.243
-248.616
-258.469
-267.957
-275.986
-282.624
-288.485
-293.164
-296.175
-295.713
-290.436
-276.728
-250.537
-225.356
-208.1
-199.828
-197.41
-200.995
-208.597
-218.334
-230.072
-242.723
-256.239
-271.056
-287.778
-306.762
-328.203
-352.283
-379.177
-409.002
-441.684
-476.903
-514.13
-553.411
-595.074
-639.981
-683.928
-720.067
-740.896
-752.13
-753.531
-755.372
-758.885
-762.932
-767.75
-772.699
-776.868
-781.218
-787.959
-795.838
-802.074
-812.149
-827.891
-841.501
-853.061
-865.507
-877.537
-888.441
-897.483
-904.646
-910.138
-913.496
-913.895
-910.488
-902.997
-892.019
-878.497
-863.248
-846.814
-829.156
-809.828
-788.195
-763.505
-735.077
-702.679
-666.854
-628.725
-589.37
-549.414
-509.055
-468.243
-426.857
-384.828
-342.168
-298.882
-255.024
-211.082
-167.633
-123.663
-78.9349
-29.5851
-316.14
-311.2
-307.192
-302.215
-292.364
-279.402
-264.531
-254.936
-242.04
-242.114
-249.709
-259.611
-269.072
-277.027
-283.584
-289.453
-294.246
-297.524
-297.387
-292.477
-278.755
-251.12
-224.757
-206.864
-198.693
-196.57
-200.519
-208.236
-217.98
-229.653
-242.175
-255.566
-270.263
-286.879
-305.76
-327.09
-351.049
-377.818
-407.533
-440.146
-475.335
-512.544
-551.903
-593.954
-639.974
-685.339
-722.378
-743.732
-753.217
-753.228
-754.833
-758.034
-761.876
-766.644
-771.584
-775.792
-780.388
-787.61
-795.742
-802.298
-813.664
-831.017
-845.732
-858.644
-872.452
-885.733
-897.871
-908.219
-916.715
-923.382
-927.706
-929.008
-926.587
-920.145
-910.138
-897.339
-882.446
-865.936
-847.835
-827.831
-805.427
-780
-750.978
-718.163
-681.997
-643.408
-603.336
-562.404
-520.89
-478.84
-436.204
-392.951
-349.111
-304.693
-259.749
-214.777
-170.355
-125.444
-79.8986
-29.9874
-316.208
-311.187
-307.203
-302.278
-292.332
-279.41
-264.35
-255.05
-241.117
-242.929
-250.838
-260.782
-270.188
-278.051
-284.509
-290.373
-295.268
-298.809
-299.007
-294.499
-280.813
-251.737
-224.177
-205.615
-197.608
-195.832
-200.136
-207.944
-217.669
-229.252
-241.633
-254.897
-269.475
-285.986
-304.761
-325.974
-349.803
-376.431
-406.019
-438.545
-473.681
-510.829
-550.211
-592.607
-639.759
-686.55
-724.479
-746.601
-753.926
-752.48
-754.009
-756.847
-760.511
-765.218
-770.132
-774.381
-779.301
-787.067
-795.361
-802.397
-815.25
-834.292
-850.226
-864.639
-879.892
-894.537
-908.012
-919.718
-929.522
-937.319
-942.617
-944.862
-943.446
-938.025
-928.944
-916.839
-902.291
-885.72
-867.213
-846.578
-823.44
-797.288
-767.64
-734.326
-697.707
-658.568
-617.741
-575.838
-533.193
-489.923
-446.04
-401.549
-356.501
-310.91
-264.832
-218.777
-173.325
-127.434
-81.1015
-30.5013
-316.268
-311.177
-307.218
-302.329
-292.28
-279.41
-264.153
-255.169
-240.254
-243.663
-251.994
-261.97
-271.293
-279.045
-285.385
-291.231
-296.215
-300.013
-300.541
-296.451
-282.839
-252.374
-223.624
-204.367
-196.596
-195.199
-199.839
-207.712
-217.395
-228.867
-241.101
-254.237
-268.697
-285.102
-303.768
-324.858
-348.545
-375.018
-404.463
-436.886
-471.942
-508.985
-548.333
-591.033
-639.323
-687.506
-726.278
-749.281
-754.162
-751.251
-752.876
-755.298
-758.809
-763.45
-768.297
-772.574
-777.947
-786.231
-794.693
-802.426
-816.841
-837.587
-854.917
-870.999
-887.803
-903.94
-918.855
-931.961
-943.045
-951.961
-958.278
-961.515
-961.102
-956.657
-948.451
-937.007
-922.795
-906.188
-887.326
-866.12
-842.299
-815.445
-785.15
-751.271
-714.115
-674.353
-632.735
-589.854
-546.08
-501.588
-456.439
-410.678
-364.376
-317.557
-270.287
-223.092
-176.548
-129.633
-82.4992
-31.1151
-316.324
-311.169
-307.237
-302.366
-292.206
-279.401
-263.938
-255.255
-239.501
-244.311
-253.169
-263.163
-272.374
-279.995
-286.203
-292.021
-297.082
-301.128
-301.975
-298.285
-284.761
-253.012
-223.108
-203.133
-195.676
-194.675
-199.622
-207.53
-217.154
-228.502
-240.584
-253.593
-267.936
-284.234
-302.784
-323.744
-347.28
-373.587
-402.875
-435.178
-470.126
-507.022
-546.288
-589.246
-638.648
-688.092
-727.523
-751.47
-753.904
-749.578
-751.38
-753.354
-756.762
-761.282
-765.988
-770.35
-776.283
-785.075
-793.808
-802.359
-818.385
-840.858
-859.801
-877.732
-896.205
-913.963
-930.412
-944.959
-957.325
-967.389
-974.787
-979.041
-979.592
-976.063
-968.688
-957.88
-944.008
-927.406
-908.256
-886.553
-862.107
-834.576
-803.62
-769.123
-731.356
-690.905
-648.449
-604.563
-559.639
-513.897
-467.445
-420.364
-372.75
-324.642
-276.119
-227.725
-180.036
-132.039
-84.0372
-31.8171
-316.378
-311.163
-307.261
-302.387
-292.111
-279.382
-263.706
-255.285
-238.915
-244.885
-254.35
-264.345
-273.417
-280.892
-286.959
-292.745
-297.877
-302.164
-303.316
-299.976
-286.517
-253.632
-222.638
-201.928
-194.857
-194.267
-199.481
-207.388
-216.948
-228.16
-240.091
-252.974
-267.2
-283.387
-301.817
-322.64
-346.019
-372.149
-401.266
-433.427
-468.237
-504.947
-544.082
-587.236
-637.669
-688.115
-728.076
-752.771
-752.929
-747.489
-749.5
-751.024
-754.292
-758.593
-763.128
-767.72
-774.34
-783.628
-792.709
-802.17
-819.968
-844.129
-864.91
-884.841
-905.103
-924.602
-942.682
-958.737
-972.441
-983.72
-992.245
-997.5
-998.945
-996.273
-989.697
-979.52
-966.012
-949.473
-930.116
-907.995
-882.98
-854.794
-823.158
-787.991
-749.54
-708.327
-664.973
-620.032
-573.912
-526.873
-479.065
-430.606
-381.622
-332.166
-282.331
-232.681
-183.796
-134.65
-85.6701
-32.5981
-316.426
-311.162
-307.294
-302.392
-291.995
-279.352
-263.456
-255.241
-238.551
-245.407
-255.525
-265.501
-274.412
-281.729
-287.656
-293.414
-298.616
-303.14
-304.591
-301.522
-288.065
-254.216
-222.223
-200.764
-194.14
-193.986
-199.415
-207.284
-216.778
-227.848
-239.628
-252.389
-266.499
-282.57
-300.873
-321.553
-344.767
-370.71
-399.638
-431.631
-466.267
-502.75
-541.694
-584.972
-636.305
-687.479
-728.316
-753.27
-751.124
-745.049
-747.205
-748.181
-751.259
-755.286
-759.728
-764.739
-772.086
-781.847
-791.388
-801.947
-821.784
-847.458
-870.241
-892.264
-914.427
-935.787
-955.613
-973.289
-988.448
-1001.03
-1010.7
-1016.9
-1019.17
-1017.32
-1011.55
-1002.02
-988.916
-972.511
-953.028
-930.559
-905.018
-876.184
-843.841
-807.945
-768.73
-726.671
-682.342
-636.278
-588.903
-540.51
-491.288
-441.396
-390.984
-340.125
-288.924
-237.967
-187.838
-137.467
-87.3745
-33.4539
-316.466
-311.172
-307.336
-302.381
-291.859
-279.309
-263.192
-255.124
-238.444
-245.911
-256.683
-266.617
-275.349
-282.508
-288.302
-294.039
-299.311
-304.07
-305.83
-302.938
-289.393
-254.753
-221.871
-199.657
-193.527
-193.829
-199.409
-207.221
-216.648
-227.571
-239.204
-251.844
-265.835
-281.786
-299.953
-320.484
-343.525
-369.265
-397.982
-429.779
-464.209
-500.441
-539.154
-582.503
-634.577
-686.267
-728.165
-753.899
-748.978
-742.203
-744.226
-744.71
-747.576
-751.352
-755.835
-761.361
-769.431
-779.694
-789.891
-801.918
-823.942
-850.928
-875.752
-899.911
-924.073
-947.407
-969.115
-988.561
-1005.32
-1019.29
-1030.11
-1037.22
-1040.29
-1039.28
-1034.32
-1025.48
-1012.84
-996.635
-977.095
-954.327
-928.28
-898.789
-865.7
-829.007
-788.942
-745.945
-700.555
-653.295
-604.599
-554.792
-504.104
-452.726
-400.836
-348.524
-295.907
-243.591
-192.166
-140.492
-89.1626
-34.3862
-316.513
-311.193
-307.386
-302.353
-291.705
-279.253
-262.916
-254.945
-238.629
-246.43
-257.809
-267.679
-276.224
-283.231
-288.906
-294.631
-299.971
-304.956
-307.048
-304.235
-290.509
-255.237
-221.592
-198.628
-193.028
-193.778
-199.439
-207.204
-216.562
-227.34
-238.827
-251.346
-265.217
-281.039
-299.066
-319.441
-342.299
-367.822
-396.31
-427.891
-462.098
-498.078
-536.553
-579.962
-632.546
-684.588
-726.115
-751.937
-745.764
-738.78
-740.45
-740.577
-743.259
-746.785
-751.386
-757.504
-766.305
-777.168
-788.306
-802.26
-826.39
-854.609
-881.418
-907.721
-933.953
-959.36
-983.081
-1004.44
-1022.95
-1038.39
-1050.38
-1058.41
-1062.32
-1062.21