/*--------------------------------*- C++ -*----------------------------------*\
| =========                 |                                                 |
| \\      /  F ield         | OpenFOAM: The Open Source CFD Toolbox           |
|  \\    /   O peration     | Version:  4.1                                   |
|   \\  /    A nd           | Web:      www.OpenFOAM.org                      |
|    \\/     M anipulation  |                                                 |
\*---------------------------------------------------------------------------*/
FoamFile
{
    version     2.0;
    format      ascii;
    class       surfaceScalarField;
    location    "1400";
    object      phi;
}
// * * * * * * * * * * * * * * * * * * * * * * * * * * * * * * * * * * * * * //

dimensions      [0 3 -1 0 0 0 0];

internalField   nonuniform List<scalar> 
52920
(
2431.83
-227.294
2578.96
-147.126
2646.9
-67.9355
2631.61
15.3003
2552.26
79.367
2448.29
103.973
2349.69
98.6147
2268.99
80.7119
2217.6
51.4013
2220.2
-2.5816
2296.83
-76.6266
2435.39
-138.539
2613.77
-178.379
2809.91
-196.124
3006.33
-196.412
3190.52
-184.176
3353.36
-162.838
3487.49
-134.116
3588.43
-100.932
3658.31
-69.8722
3708.62
-50.304
3762.28
-53.6485
3845.8
-83.5115
3979.78
-133.976
4176.55
-196.769
4440.79
-264.233
4767.97
-327.17
5142.46
-374.486
5544.91
-402.442
5959.08
-414.162
6374.02
-414.936
6784.13
-410.107
7187.51
-403.372
7583.63
-396.115
7971.64
-388.009
8349.61
-377.962
8714.56
-364.948
9063.14
-348.578
9392.37
-329.226
9700
-307.624
9984.14
-284.135
10242.4
-258.226
10470.9
-228.541
10664.6
-193.646
10817.4
-152.81
10924.1
-106.734
10982.1
-57.9668
10993.6
-11.5441
10962.1
31.5388
10890.4
71.7141
10783.4
107.033
10647.5
135.894
10488.6
158.822
10311.6
177.09
10121.1
190.44
9923.82
197.294
9727.93
195.9
9543.27
184.652
9382
161.278
9258.39
123.6
9185.29
73.1063
9166.48
18.8047
9187.1
-20.6216
9212
-24.9016
9195.39
16.6152
9087.85
107.533
8850.6
237.256
8481.98
368.614
8016.76
465.223
7498.84
517.917
6963.01
535.828
6434.84
528.171
5937.54
497.303
5499.08
438.452
5160.04
339.045
4920.63
239.41
4766.07
154.553
4849.8
-83.7237
5147.29
-297.498
5381.87
-234.576
5405.24
-23.3659
5079.31
325.929
4430.73
648.577
3747.86
682.869
3336.22
411.643
3442.06
-105.843
4120.51
-678.447
4951.58
-831.078
5564.71
-613.13
5884.39
-319.673
6053.19
-168.803
6264.11
-210.923
6591.55
-327.443
6971.57
-380.011
7368.55
-396.989
7894.19
-525.633
8738.44
-844.25
9607.86
-869.42
10057.5
-449.654
80.8105
2383.84
-457.833
2539.16
-302.443
2618.46
-147.225
2613.69
20.0815
2541.32
151.746
2441.54
203.762
2345.56
194.604
2266.89
159.394
2217.43
100.881
2221.26
-6.3987
2297.48
-152.836
2433.6
-274.646
2607.51
-352.282
2800.93
-389.535
3002.98
-398.447
3205.04
-386.232
3396.72
-354.513
3565.92
-303.305
3703.2
-238.198
3807.17
-173.838
3887.28
-130.41
3964.75
-131.11
4063.63
-182.38
4201.48
-271.814
4388.1
-383.391
4627.17
-503.296
4915.23
-615.225
5239.68
-698.931
5585.07
-747.823
5938.95
-768.04
6293.68
-769.653
6646.42
-762.845
6997.7
-754.646
7349.13
-747.54
7701.62
-740.5
8054.44
-730.769
8404.98
-715.488
8749.33
-692.922
9083.02
-662.915
9401.76
-626.359
9701.52
-583.886
9978.05
-534.751
10226.2
-476.68
10439.7
-407.122
10611.6
-324.766
10736.1
-231.17
10809.6
-131.507
10833.8
-35.7467
10812.3
53.0425
10749
135.022
10649
207.022
10518.7
266.219
10363.3
314.194
10186.7
353.699
9993.08
384.09
9788.42
401.945
9580.82
403.502
9380.06
385.411
9198.25
343.089
9049.98
271.868
8947.81
175.278
8900.25
66.3682
8902.09
-22.4613
8923.59
-46.4025
8916.44
23.7647
8825.47
198.503
8604.08
458.643
8244.87
727.822
7783.05
927.04
7265.02
1035.94
6727.17
1073.68
6195.42
1059.92
5692.2
1000.53
5246.81
883.837
4900.5
685.35
4653.31
486.604
4500.85
307.013
4612.94
-195.82
4944.2
-628.758
5208.55
-498.923
5239.56
-54.3789
4886.16
679.331
4206.44
1328.29
3484.1
1405.22
3025.51
870.232
3167.74
-248.072
3917.14
-1427.84
4793.1
-1707.05
5427.17
-1247.2
5747.12
-639.623
5913.79
-335.478
6119.97
-417.099
6433.9
-641.375
6779.08
-725.189
7107.42
-725.328
7546.53
-964.748
8310.43
-1608.15
9083.92
-1642.91
9329.12
-694.858
308.881
2308.05
-686.976
2467.93
-462.316
2556.57
-235.865
2562.32
14.3441
2497.7
216.38
2402.83
298.634
2310.12
287.328
2233.68
235.84
2185.73
148.847
2190.57
-11.2221
2265.76
-228.019
2398.06
-406.931
2571.42
-525.638
2778.21
-596.311
3010.98
-631.209
3253.37
-628.618
3483.53
-584.666
3681.82
-501.583
3836.69
-393.066
3947.62
-284.756
4025.09
-207.88
4090.5
-196.512
4167.25
-259.122
4272.57
-377.13
4417.39
-528.198
4608.14
-694.041
4845.18
-852.264
5119.24
-972.98
5416.88
-1045.47
5726.54
-1077.69
6040.78
-1083.89
6356.87
-1078.94
6675.58
-1073.35
6998.97
-1070.92
7328.62
-1070.14
7664.49
-1066.64
8004.58
-1055.57
8345.14
-1033.48
8681.36
-999.13
9008.1
-953.092
9320.21
-895.991
9612.31
-826.854
9878.3
-742.668
10111.2
-639.976
10303.4
-516.979
10448.2
-375.961
10541.1
-224.414
10581.5
-76.1715
10571.4
63.1568
10513.8
192.62
10412.8
307.985
10274.4
404.638
10103.6
485.005
9904.25
553.066
9680.93
607.421
9440.37
642.498
9191.46
652.422
8944.61
632.26
8712.34
575.36
8509.97
474.236
8351.36
333.881
8249.48
168.249
8213.1
13.9225
8227.46
-60.7641
8248.58
2.64123
8214.08
233.005
8057.82
614.904
7754.25
1031.38
7333.48
1347.82
6843.88
1525.54
6324.66
1592.91
5803.43
1581.14
5302.54
1501.42
4855.35
1331.03
4506.96
1033.74
4256.71
736.85
4100.39
463.336
4256.42
-351.849
4665.97
-1038.31
4995.32
-828.28
5063.45
-122.511
4691.88
1050.91
3942.73
2077.44
3119.68
2228.27
2553.34
1436.57
2756.95
-451.689
3584.02
-2254.91
4432.33
-2555.36
5014.94
-1829.8
5299.04
-923.725
5419.98
-456.422
5545.46
-542.575
5792.35
-888.263
6128.56
-1061.41
6454.66
-1051.42
6833.29
-1343.38
7435.98
-2210.84
8024.67
-2231.61
7964.74
-634.922
800.12
2219.09
-909.01
2378.58
-621.803
2473.88
-331.151
2489.8
-1.57482
2433.64
272.558
2344.54
387.743
2255.86
376.021
2182.2
309.512
2136.63
194.425
2143.22
-17.7987
2216.46
-301.243
2347.61
-538.069
2535.31
-713.335
2777.23
-838.214
3052.33
-906.301
3326.51
-902.794
3570.32
-828.471
3766.36
-697.605
3908.53
-535.238
4000.51
-376.725
4054.6
-261.958
4092.73
-234.638
4138.48
-304.863
4209.48
-448.124
4317.92
-636.63
4472.33
-848.44
4675.22
-1055.16
4918.35
-1216.1
5188.23
-1315.34
5472.74
-1362.19
5763.9
-1375.04
6058.69
-1373.72
6357.81
-1372.46
6663.52
-1376.63
6977.74
-1384.36
7300.95
-1389.84
7631.68
-1386.31
7966.73
-1368.52
8301.6
-1333.99
8631.12
-1282.61
8949.85
-1214.71
9251.95
-1128.96
9530.87
-1021.58
9779.1
-888.201
9988.31
-726.183
10150.3
-537.985
10259
-333.087
10311.2
-128.312
10307.3
67.0681
10250.2
249.631
10144.4
413.823
9996
553.045
9809.87
671.139
9589.16
773.776
9337.77
858.812
9062.11
918.154
8771.23
943.311
8476.13
927.352
8190.35
861.144
7930.73
733.857
7712.75
551.867
7545.68
335.314
7447.15
112.452
7423.59
-37.2046
7443.87
-17.6398
7447.53
229.337
7353.02
709.416
7112.87
1271.53
6746.38
1714.31
6300.05
1971.87
5813.29
2079.66
5313.64
2080.79
4821.74
1993.32
4375.74
1777.02
4028.77
1380.71
3773.24
992.379
3600.69
635.887
3828.66
-579.82
4377.84
-1587.49
4829.24
-1279.68
4983.57
-276.841
4592.38
1442.09
3703.26
2966.56
2690.94
3240.58
1985.27
2142.25
2137.14
-603.562
2566.31
-2684.08
2839.99
-2829.04
3055.45
-2045.25
3243.42
-1111.69
3370.29
-583.294
3384.08
-556.365
3435.47
-939.657
3720.09
-1346.02
4148.38
-1479.72
4563.13
-1758.13
4866.84
-2514.54
5113
-2477.77
4889.33
-411.25
1358.8
2124.27
-1111.95
2276.38
-773.905
2375.94
-430.708
2403.02
-28.6454
2357.21
318.382
2275.4
469.563
2191.77
459.658
2121.63
379.658
2079.08
236.989
2086.02
-24.7234
2156.2
-371.416
2295.59
-677.445
2516.02
-933.754
2801.27
-1123.46
3105.65
-1210.68
3385.53
-1182.67
3617.28
-1060.21
3792.77
-873.085
3911.97
-654.431
3980.69
-445.436
4011.07
-292.332
4024.76
-248.318
4045.19
-325.288
4089.96
-492.887
4171.82
-718.489
4300.62
-977.235
4480.37
-1234.89
4703.16
-1438.89
4955.12
-1567.29
5223.4
-1630.47
5499.49
-1651.13
5780.12
-1654.34
6065.96
-1658.3
6359.38
-1670.04
6662.5
-1687.49
6976.12
-1703.45
7299.19
-1709.38
7628.95
-1698.27
7961.24
-1666.27
8291.04
-1612.41
8612.82
-1536.49
8920.59
-1436.73
9207.56
-1308.55
9465.75
-1146.38
9685.89
-946.321
9858.61
-710.698
9976.69
-451.159
10035.8
-187.44
10036.4
66.4787
9981.66
304.382
9876.26
519.228
9726.13
703.172
9534.77
862.504
9303.42
1005.13
9034.11
1128.13
8731.98
1220.28
8405.73
1269.57
8066.96
1266.12
7730.95
1197.16
7417.29
1047.51
7144.58
824.575
6917.01
562.889
6747.99
281.47
6662.33
48.455
6649.9
-5.20896
6657.99
221.242
6598.58
768.829
6406.14
1463.97
6087.66
2032.79
5684.86
2374.66
5234.12
2530.4
4759.67
2555.23
4277.18
2475.82
3829.22
2224.98
3487.77
1722.16
3225.28
1254.87
3072.86
788.311
3307.34
-814.306
3738.64
-2018.79
4205.59
-1746.63
4643.63
-714.886
4451.55
1634.17
3401.53
4016.59
2047.09
4595.02
1243.04
2946.3
1084.55
-445.076
457.97
-2057.5
-149.394
-2221.68
-181.952
-2012.69
128.148
-1421.8
441.633
-896.778
513.65
-628.383
279.778
-705.785
-24.3171
-1041.93
-155.883
-1348.15
-120.538
-1793.47
-197.967
-2437.11
137.273
-2813.01
665.416
-939.393
1472.23
2020.72
-1299.74
2163.29
-916.473
2260.2
-527.606
2294.58
-63.0184
2260.43
352.543
2188.99
541.018
2113.3
535.356
2048.91
444.058
2010.19
275.723
2016.53
-31.0446
2088.36
-443.229
2251.69
-840.767
2515.76
-1197.82
2834.37
-1442.06
3144.62
-1520.92
3409.12
-1447.17
3617.04
-1268.12
3768.33
-1024.37
3865.56
-751.653
3914.1
-493.97
3924.69
-302.912
3918.53
-242.157
3919.03
-325.779
3943.5
-517.341
4004.91
-779.896
4114.21
-1086.53
4276.83
-1397.51
4485.12
-1647.18
4724.57
-1806.73
4981.45
-1887.34
5246.61
-1916.29
5516.56
-1924.29
5792.02
-1933.75
6075.54
-1953.56
6369.54
-1981.47
6675.11
-2009.02
6991.59
-2025.85
7316.48
-2023.16
7645.77
-1995.56
7974.44
-1941.08
8296.95
-1858.99
8607.32
-1747.09
8898.58
-1599.8
9162.28
-1410.08
9388.5
-1172.54
9567.5
-889.694
9692.24
-575.898
9758.67
-253.862
9767.72
57.4297
9722.01
350.096
9626.04
615.204
9484.35
844.858
9298.19
1048.66
9066.35
1236.97
8788.47
1406.01
8467.8
1540.95
8112.03
1625.34
7733.13
1645.01
7348.82
1581.48
6983.13
1413.19
6659
1148.71
6382.45
839.436
6149.12
514.798
5989.05
208.525
5922.26
61.581
5905.99
237.502
5852.6
822.22
5685.17
1631.4
5399.99
2317.97
5033.05
2741.59
4615.37
2948.09
4164.1
3006.5
3686.44
2953.48
3225.79
2685.62
2859.45
2088.49
2598.71
1515.61
2566.52
820.5
2316.11
-563.891
1640.22
-1342.91
1490.99
-1597.4
2359.52
-1583.41
3389.85
603.831
3323.17
4083.27
2327.62
5590.57
568.015
4705.9
-1615.98
1738.92
-3401.91
-271.564
-4313.27
-1310.31
-4926.92
-1399.05
-5322.47
-1026.25
-5581.92
-637.331
-5711.08
-499.222
-5798.6
-618.265
-5966.63
-873.894
-6195.08
-1119.71
-6482.07
-1506.48
-6798.39
-2120.79
-7326.01
-2285.39
-7693.47
-571.934
1347.15
1942.77
-1476.03
2076.46
-1050.16
2166.11
-617.254
2197.02
-93.9182
2163.93
385.646
2096.81
608.15
2026.81
605.36
1967.88
503
1932.68
310.932
1939.24
-37.5889
2022.03
-526.009
2222.23
-1040.95
2527.25
-1502.83
2860.44
-1775.25
3158.29
-1818.76
3398.67
-1687.54
3582
-1451.45
3712
-1154.36
3790.86
-830.503
3822.32
-525.42
3815.62
-296.208
3792.2
-218.725
3775.85
-309.429
3783.54
-525.022
3828.21
-824.557
3921.71
-1180.01
4070.88
-1546.68
4268.16
-1844.46
4498.12
-2036.68
4746
-2135.22
5002.05
-2172.33
5262.68
-2184.92
5528.88
-2199.94
5803.54
-2228.21
6089.43
-2267.36
6387.94
-2307.53
6698.57
-2336.48
7018.9
-2343.48
7344.93
-2321.59
7671.86
-2268
7994.39
-2181.52
8306.54
-2059.24
8600.87
-1894.13
8868.32
-1677.53
9098.92
-1403.13
9283.89
-1074.67
9417.43
-709.431
9496.25
-332.676
9520.97
32.7148
9491.64
379.425
9411.94
694.909
9284.56
972.234
9108.77
1224.47
8881.72
1464.02
8601.25
1686.48
8268.32
1873.88
7888.36
2005.3
7472.27
2061.1
7040.08
2013.67
6622.39
1830.87
6248.69
1522.42
5929.82
1158.3
5648.09
796.524
5417.15
439.466
5281.15
197.578
5217.72
300.933
5143.29
896.643
4977.23
1797.46
4708.29
2586.91
4366.71
3083.16
3975.69
3339.11
3541.24
3440.95
3062.32
3432.4
2558.93
3189.01
2141.75
2505.67
2047.72
1609.64
1780.41
1087.81
-2.10338
1218.62
-1948.99
603.974
-2563.97
-982.417
-3215.23
-932.158
-2579.7
-31.7004
-612.949
2116.53
-693.203
5670.82
-2175.89
6188.58
-3800.54
3363.57
-4323.33
251.221
-4458.82
-1174.82
-4954.81
-903.058
-5347
-634.063
-5598.31
-386.025
-5748.51
-349.022
-5906.12
-460.647
-6156.92
-623.099
-6498.37
-778.252
-6946.67
-1058.19
-7640.62
-1426.85
-8653.33
-1272.68
-9383.62
158.362
1416.28
1866.34
-1639.7
1991.31
-1175.13
2076.07
-702.008
2105.71
-123.545
2073.05
418.324
2007.68
673.531
1941.14
671.908
1886.4
557.75
1853.46
343.891
1861.5
-45.6199
1963.97
-628.467
2206.25
-1283.22
2541.71
-1838.28
2873.99
-2107.52
3151.83
-2096.59
3368.9
-1904.6
3532.22
-1614.77
3645.65
-1267.79
3709.43
-894.275
3725.45
-541.43
3701.9
-272.651
3661.46
-178.276
3629.13
-277.09
3621.55
-517.434
3651.41
-854.409
3731.27
-1259.86
3869.28
-1684.68
4057.68
-2032.86
4279.97
-2258.96
4520.35
-2375.59
4768.68
-2420.65
5021.55
-2437.78
5280.33
-2458.71
5548.27
-2496.15
5828.29
-2547.37
6121.73
-2600.97
6427.99
-2642.73
6744.69
-2660.17
7068.34
-2645.25
7394.8
-2594.45
7718.97
-2505.68
8034.14
-2374.41
8331.77
-2191.76
8602.74
-1948.49
8838.55
-1638.94
9032.63
-1268.74
9179.98
-856.777
9276.82
-429.512
9320.84
-11.3013
9307.49
392.77
9240.31
762.096
9121.45
1091.09
8950.33
1395.59
8724.96
1689.39
8443.2
1968.24
8104.03
2213.05
7708.48
2400.86
7262.65
2506.93
6786.37
2489.96
6317.83
2299.41
5895.95
1944.3
5536.34
1517.92
5223.34
1109.52
4940.5
722.306
4730.06
408.015
4602.02
428.97
4482.94
1015.73
4295.7
1984.7
4026.14
2856.46
3698.83
3410.47
3328.29
3709.64
2909.33
3859.91
2416.39
3925.35
1889.63
3715.77
1331.3
3063.99
276.272
2664.67
-1485.12
2849.2
-2524.17
2257.66
-2728.25
808.049
-2975.38
-735.292
-3397.46
-510.072
-3586.74
157.578
-3635.71
2165.49
-3197.98
5233.1
-3309.04
6299.65
-3950.24
4004.77
-4580.35
881.331
-5136.53
-618.639
-5603.41
-436.173
-5967.21
-270.266
-6218.2
-135.031
-6417.85
-149.375
-6662.52
-215.976
-7011.2
-274.423
-7454.84
-334.615
-7985.34
-527.682
-8662.28
-749.906
-9486.11
-448.854
-9974.21
646.47
1521.04
1790.62
-1788.81
1905.85
-1290.35
1986.51
-782.667
2016.8
-153.822
1986.29
448.848
1923.07
736.759
1859.66
735.328
1808.47
608.948
1776.12
376.259
1786.78
-56.2665
1915.82
-757.495
2200.59
-1567.99
2555.72
-2193.41
2878.51
-2430.3
3136.2
-2354.28
3334.9
-2103.29
3484.1
-1763.96
3585.69
-1369.37
3637.39
-945.968
3639.21
-543.251
3598.59
-232.021
3540.44
-120.12
3491.85
-228.488
3469.35
-494.922
3485.29
-870.343
3552.79
-1327.36
3681.19
-1813.08
3862.41
-2214.07
4078.86
-2475.41
4313.95
-2610.67
4557.3
-2664
4805.71
-2686.19
5060.73
-2713.73
5325.6
-2761.01
5602.93
-2824.69
5893.66
-2891.7
6197.09
-2946.16
6511.51
-2974.58
6834.52
-2968.26
7162.55
-2922.48
7489.71
-2832.83
7807.78
-2692.47
8107.79
-2491.77
8382.47
-2223.17
8626.2
-1882.66
8833.7
-1476.24
8997.92
-1020.99
9111.84
-543.43
9168.25
-67.707
9158.83
402.191
9089.38
831.548
8963.78
1216.69
8783.88
1575.5
8550.61
1922.66
8264.24
2254.61
7923.81
2553.47
7525.18
2799.5
7064.62
2967.48
6555.82
2998.77
6042.84
2812.38
5576.96
2410.19
5180.45
1914.43
4841.21
1448.76
4529.87
1033.64
4257.79
680.096
4054.29
632.472
3872.88
1197.13
3644.94
2212.64
3360.08
3141.33
3039.36
3731.19
2686.13
4062.87
2266.54
4279.51
1731.99
4459.89
1072.18
4375.57
171.369
3964.81
-1076.29
3912.33
-2139.66
3912.57
-2710.78
2828.78
-3144.69
1241.96
-3760.22
-119.763
-4517.71
247.42
-5075.37
715.229
-5175.22
2265.34
-4691.43
4749.31
-4242.57
5850.79
-4435.19
4197.39
-5058.3
1504.44
-5728.76
51.8151
-6249.13
84.2041
-6668.64
149.24
-7006.04
202.367
-7321.72
166.305
-7675.9
138.205
-8098.36
148.035
-8572.73
139.76
-9110.42
10.0083
-9747.47
-112.856
-10388.7
192.388
-10767.7
1025.49
1701.37
1712.36
-1919.1
1816.31
-1394.29
1893.35
-859.699
1927.01
-187.474
1901.78
474.093
1842.38
796.172
1782.75
794.965
1734.98
656.737
1701.12
410.126
1715.63
-70.7574
1877.6
-919.451
2203.28
-1893.66
2568.74
-2558.86
2877.63
-2739.18
3117.59
-2594.24
3303.17
-2288.86
3443.49
-1904.27
3537.58
-1463.44
3580.5
-988.885
3570.31
-533.047
3513.48
-175.185
3437.82
-44.4521
3373.19
-163.847
3336.22
-457.939
3338.99
-873.11
3395.1
-1383.45
3515.02
-1933
3690.54
-2389.59
3903.38
-2688.25
4136.26
-2843.54
4378.44
-2906.17
4626.4
-2934.14
4881.33
-2968.66
5145.96
-3025.64
5422.31
-3101.04
5711.05
-3180.43
6012
-3247.11
6324.74
-3287.31
6647.81
-3291.33
6977.08
-3251.75
7305.08
-3160.82
7623.02
-3010.41
7923.85
-2792.6
8203.66
-2502.97
8458.38
-2137.38
8680.49
-1698.35
8857.74
-1198.23
8979.39
-665.075
9034.35
-122.662
9013.75
422.79
8927.94
917.363
8783.18
1361.46
8583.5
1775.17
8332.37
2173.8
8033.7
2553.28
7690.68
2896.5
7297.76
3192.41
6839.25
3425.99
6315.03
3522.99
5769.72
3357.68
5267.64
2912.27
4839.98
2342.08
4475.69
1813.04
4146.83
1362.5
3834.9
992.018
3561.17
906.206
3306.84
1451.46
3023.82
2495.65
2713.45
3451.69
2389.71
4054.94
2038.23
4414.35
1617.01
4700.72
1084.98
4991.92
328.189
5132.36
-705.858
4998.85
-1706.94
4913.41
-2328.69
4534.32
-2876.22
3376.31
-3444.35
1810.09
-4199.88
635.769
-5046.38
1093.91
-5705.72
1374.57
-5932.87
2492.49
-5542.64
4359.08
-4985.64
5293.79
-4981.61
4193.36
-5578.29
2101.11
-6340.4
813.928
-6879.84
623.645
-7330.22
599.615
-7723.93
596.079
-8108
550.372
-8508.17
538.374
-8926.26
566.127
-9362.43
575.93
-9863.85
511.431
-10450
473.271
-10996.4
738.847
-11353.7
1382.78
1943.79
1637.21
-2041.61
1732.15
-1489.22
1800.6
-928.139
1833.39
-220.248
1814.36
493.133
1761.31
849.222
1707.42
848.872
1663.54
700.624
1625.59
448.092
1647.03
-92.1893
1849.4
-1121.81
2211.94
-2256.2
2578.02
-2924.94
2869.77
-3030.92
3094.39
-2818.86
3270.95
-2465.42
3406.43
-2039.75
3496.75
-1553.75
3534.52
-1026.65
3515.65
-514.174
3445.35
-104.88
3354.17
46.744
3275.16
-84.8355
3225.38
-408.152
3216.31
-864.031
3261.79
-1428.93
3373.75
-2044.95
3544.64
-2560.47
3756.12
-2899.73
3990.06
-3077.47
4234.5
-3150.61
4484.71
-3184.35
4740.93
-3224.88
5005.21
-3289.91
5279.29
-3375.12
5564.28
-3465.4
5861.26
-3544.09
6170.98
-3597.03
6491.82
-3612.17
6818.34
-3578.26
7142.56
-3485.04
7457.67
-3325.52
7760.01
-3094.93
8047.51
-2790.47
8313.93
-2403.81
8546.73
-1931.14
8728.61
-1380.1
8847.93
-784.401
8891.81
-166.533
8852.96
461.647
8746.6
1023.72
8580.2
1527.86
8357.82
1997.56
8082.99
2448.62
7762.03
2874.24
7405.65
3252.88
7014.95
3583.12
6566.65
3874.28
6041.85
4047.79
5477.95
3921.58
4949.78
3440.45
4498.67
2793.18
4114.89
2196.83
3768.59
1708.79
3432.26
1328.35
3104.04
1234.42
2773.89
1781.61
2427.31
2842.23
2080.8
3798.2
1749.43
4386.3
1430.65
4733.13
1076.07
5055.29
568.543
5499.45
-246.795
5947.7
-1231.8
5983.86
-1884.17
5565.78
-2204.3
4854.45
-2753.41
3925.42
-3493.05
2549.73
-4370.44
1513.15
-5054.81
1778.29
-5690.27
2010.04
-6089.02
2891.24
-5999.96
4270.03
-5663.79
4957.62
-5639.45
4169.01
-6133.07
2594.74
-6829.25
1510.11
-7365.21
1159.6
-7821.43
1055.84
-8235.94
1010.59
-8638.91
953.339
-9032.83
932.302
-9417.58
950.874
-9814.67
973.02
-10268.6
965.318
-10787.3
991.965
-11281.9
1233.47
-11632
1732.93
2195.38
1578.66
-2155.8
1665.36
-1575.92
1723.85
-986.622
1748.11
-244.492
1727.58
513.675
1678.15
898.668
1630.28
896.749
1590.11
740.808
1545.68
492.54
1581.17
-127.663
1831.04
-1371.67
2221.41
-2646.56
2577.52
-3281.05
2849.59
-3302.98
3060.87
-3030.14
3231.36
-2635.9
3364.82
-2173.21
3454.27
-1643.19
3490.23
-1062.6
3466.42
-490.351
3386.53
-24.9752
3282.97
150.315
3192.48
5.65761
3132.95
-348.605
3113.87
-844.949
3149.22
-1464.27
3253.28
-2149
3420.69
-2727.88
3633.48
-3112.51
3871.66
-3315.65
4120.67
-3399.61
4373.65
-3437.33
4629.72
-3480.94
4890.7
-3550.89
5158.92
-3643.33
5436.78
-3743.26
5726.75
-3834.06
6029.87
-3900.14
6343.7
-3926
6662.61
-3897.16
6980.57
-3803
7293.99
-3638.93
7600.83
-3401.77
7897.34
-3086.97
8172.82
-2679.28
8410.55
-2168.87
8590.96
-1560.5
8704.2
-897.638
8735.71
-198.037
8680.05
517.307
8556.38
1147.39
8372.2
1712.03
8130.07
2239.7
7831.06
2747.63
7480.44
3224.87
7095.91
3637.41
6692.43
3986.59
6249.16
4317.55
5729.67
4567.29
5157.5
4493.76
4613.07
3984.88
4146.71
3259.53
3749.72
2593.81
3391.96
2066.55
3039.34
1680.97
2665.58
1608.17
2260.87
2186.32
1846.18
3256.91
1468.92
4175.46
1155.33
4699.88
876.908
5011.55
524.481
5407.72
-31.2429
6055.18
-828.086
6744.54
-1602.9
6758.67
-1941.6
5904.47
-2067.44
4980.29
-2448.32
4306.3
-3217.88
3319.29
-4146.29
2441.56
-4753.7
2385.69
-5407.18
2663.51
-5938.25
3422.31
-6126.24
4458.02
-6083.2
4914.58
-6169.9
4255.71
-6587.23
3012.07
-7170.39
2093.27
-7690.67
1679.87
-8146.18
1511.35
-8565.87
1430.28
-8972.15
1359.62
-9363.21
1323.36
-9743.19
1330.86
-10131
1360.81
-10553.5
1387.88
-11011.6
1450.06
-11442.3
1664.12
-11762.5
2053.18
2435.07
1519.85
-2259.56
1598.6
-1654.66
1650.6
-1038.62
1668.46
-262.337
1644.31
537.833
1595.16
947.828
1551.86
940.062
1513.5
779.176
1461.48
544.572
1520.71
-186.883
1820.26
-1671.21
2224.33
-3050.63
2561.04
-3617.74
2812.5
-3554.44
3012.59
-3230.22
3179.17
-2802.48
3312.43
-2306.46
3402.87
-1733.63
3439.45
-1099.17
3413.26
-464.163
3326.77
61.5249
3215.09
262.009
3116.29
104.465
3049.7
-282.007
3022.44
-817.679
3048.36
-1490.19
3145.62
-2246.26
3312.25
-2894.51
3530.06
-3330.31
3775.36
-3560.94
4029.59
-3653.84
4283.54
-3691.27
4535.86
-3733.24
4789.17
-3804.21
5047.32
-3901.47
5314.32
-4010.25
5593.38
-4113.12
5885.31
-4192.08
6187.97
-4228.65
6497.78
-4206.97
6811.61
-4116.83
7127.05
-3954.37
7440.26
-3714.97
7744
-3390.71
8024.42
-2959.69
8263.59
-2408.03
8441.36
-1738.26
8549.93
-1006.21
8571.45
-219.542
8502.23
586.529
8364.89
1284.74
8167.01
1909.91
7909.58
2497.14
7590.17
3067.04
7209.24
3605.81
6786.87
4059.78
6353.62
4419.84
5901.27
4769.89
5383.35
5085.21
4807.27
5069.84
4254.15
4538
3780.27
3733.41
3376.3
2997.79
3011.92
2430.93
2647.15
2045.73
2231.97
2023.35
1755.5
2662.79
1281.63
3730.78
881.539
4575.56
555.452
5025.97
226.637
5340.37
-209.03
5843.39
-786.831
6632.98
-1432.92
7390.63
-1905.45
7231.2
-2024.52
6023.55
-2051.29
5007.06
-2271.44
4526.45
-2860.76
3908.61
-3689.21
3270.01
-4400.5
3096.98
-5086.02
3349.03
-5667.43
4003.73
-6013.16
4803.75
-6186.64
5088.06
-6415.91
4484.97
-6842.2
3438.36
-7377.02
2628.09
-7884.68
2187.54
-8340.87
1967.55
-8760.63
1850.04
-9166.36
1765.35
-9561.05
1718.04
-9943.43
1713.24
-10320.4
1737.82
-10707
1774.38
-11102.8
1845.88
-11465
2026.39
-11741
2329.17
2649.94
1460.85
-2350.84
1530.73
-1724.54
1577.94
-1085.82
1592.45
-276.825
1565.83
564.464
1515.53
998.133
1475.3
980.306
1435.77
818.722
1376.87
603.493
1468.31
-278.311
1812.23
-2015.12
2214.57
-3452.96
2526.1
-3929.28
2758.35
-3786.68
2949.79
-3421.65
3114.12
-2966.8
3248.09
-2440.43
3340.22
-1825.75
3378.39
-1137.33
3351.24
-437.006
3260.18
152.598
3142.98
379.217
3037.43
210.025
2965.24
-209.801
2931.38
-783.81
2949.93
-1508.73
3043.97
-2340.29
3214.61
-3065.14
3441.39
-3557.09
3694.88
-3814.42
3952.21
-3911.17
4202.97
-3942.02
4446.76
-3977.03
4688.12
-4045.56
4932.72
-4146.06
5185.61
-4263.14
5450.21
-4377.71
5728.04
-4469.9
6019.3
-4519.91
6323.16
-4510.83
6637.09
-4430.76
6956.48
-4273.75
7274.24
-4032.72
7581.43
-3697.9
7863.94
-3242.2
8104.09
-2648.18
8280.33
-1914.5
8386.11
-1111.99
8398.36
-231.784
8315.98
668.902
8165.49
1435.23
7955.29
2120.12
7685.77
2766.66
7351.53
3401.28
6946.09
4011.25
6485.94
4519.93
6013.08
4892.71
5537.34
5245.63
5011.98
5610.57
4431.3
5650.52
3874.37
5094.92
3399.75
4208.03
2994.59
3402.94
2627.55
2797.97
2249.99
2423.29
1793.23
2480.11
1252.31
3203.71
723.717
4259.37
273.448
5025.83
-130.378
5429.79
-552.778
5762.77
-1033.15
6323.75
-1550.03
7149.86
-1982
7822.6
-2203.6
7452.8
-2257.48
6077.42
-2313.68
5063.26
-2473.76
4686.53
-2889.88
4324.72
-3549.37
3929.5
-4243.26
3790.87
-4909.21
4014.98
-5478.37
4572.89
-5874.06
5199.43
-6150.98
5364.99
-6466.41
4800.39
-6909.04
3880.99
-7420.58
3139.63
-7917.39
2684.35
-8373.94
2424.1
-8796.47
2272.57
-9201.75
2170.63
-9592.46
2108.75
-9964.07
2084.86
-10316.6
2090.36
-10657.8
2115.6
-10987.9
2176
-11278.9
2317.33
-11500.7
2550.94
2833.3
1401.16
-2427.68
1461.64
-1785.01
1504.17
-1128.34
1517.93
-290.571
1491.86
590.542
1441.15
1048.85
1403.44
1018.02
1359.61
862.565
1296
667.114
1424.42
-406.716
1801.92
-2392.61
2190.4
-3841.44
2475.82
-4214.69
2692.28
-4003.14
2877.79
-3607.15
3040.98
-3129.99
3175.74
-2575.18
3269.11
-1919.12
3308.28
-1176.5
3280.31
-409.02
3185.52
247.392
3062.9
501.844
2950.67
322.259
2873.75
-132.872
2834.76
-744.806
2849.14
-1523.11
2945.2
-2436.34
3124.91
-3244.85
3362.25
-3794.43
3621.04
-4073.2
3875.94
-4166.07
4117.65
-4183.73
4348.33
-4207.7
4574.77
-4272
4803.85
-4375.13
5040.79
-4500.09
5289.73
-4626.64
5554.72
-4734.89
5838.82
-4804
6141.47
-4813.47
6457.35
-4746.63
6778.56
-4594.96
7096.85
-4351.01
7404.59
-4005.64
7688.56
-3526.17
7930.3
-2889.91
8105.06
-2089.26
8207.48
-1214.4
8208.11
-232.409
8110.23
766.784
7944.52
1600.94
7720.96
2343.67
7440.54
3047.09
7096.23
3745.59
6674.7
4432.78
6184.49
5010.14
5672.16
5405.04
5164.91
5752.88
4623.45
6152.03
4035.24
6238.73
3477.65
5652.5
3008.29
4677.39
2607.23
3804
2239.57
3165.62
1845.71
2817.15
1345.29
2980.53
724.108
3824.89
95.7615
4887.71
-438.572
5560.16
-892.708
5883.93
-1329.33
6199.39
-1773.9
6768.32
-2174.86
7550.82
-2432.65
8080.39
-2564.63
7584.77
-2714.58
6227.38
-2904.72
5253.4
-3097.33
4879.14
-3399.93
4627.32
-3868.66
4398.23
-4424.95
4347.16
-4989.87
4579.9
-5483.56
5066.58
-5847.25
5563.12
-6128.37
5646.11
-6448.27
5120.29
-6869.42
4302.15
-7347.83
3618.05
-7824.55
3161.06
-8273.96
2873.51
-8692.93
2691.53
-9088.87
2566.57
-9462.7
2482.58
-9810.81
2432.97
-10132.2
2411.71
-10431.6
2415.04
-10710.5
2454.95
-10951.9
2558.67
-11139.2
2738.28
2997.34
1345.82
-2500.85
1399.28
-1838.45
1433.76
-1162.81
1444.17
-300.957
1420.17
614.555
1371.22
1097.81
1336.71
1052.55
1286.09
913.195
1220.72
732.5
1387.55
-573.528
1787.05
-2792.11
2155.37
-4209.75
2417.69
-4477
2622.77
-4208.21
2804.7
-3789.08
2967.19
-3292.48
3102.03
-2710.01
3195.31
-2012.38
3233.81
-1215
3203.15
-378.346
3103.35
347.198
2975.06
630.15
2855.95
441.379
2775.12
-52.0314
2731.99
-701.662
2745.15
-1536.26
2848.11
-2539.3
3039.43
-3436.16
3284.09
-4039.08
3540.67
-4329.78
3785.15
-4410.54
4011.97
-4410.54
4226.52
-4422.25
4437.16
-4482.64
4650.74
-4588.7
4872.57
-4721.92
5108.89
-4862.95
5366.62
-4992.62
5649.11
-5086.48
5952.63
-5116.99
6268.31
-5062.31
6587.42
-4914.06
6903.42
-4667.01
7210.8
-4313.01
7495.94
-3811.31
7738.11
-3132.07
7908.96
-2260.1
8005.11
-1310.55
7990.09
-217.384
7874.14
882.733
7690.99
1784.1
7452.25
2582.41
7160.58
3338.76
6808.78
4097.4
6378.24
4863.32
5868.29
5520.09
5323.87
5949.47
4784.66
6292.08
4222.36
6714.34
3624.35
6836.73
3069.04
6207.82
2610.69
5135.73
2217.96
4196.73
1850.55
3533.03
1435.85
3231.84
851.566
3564.81
109.261
4567.19
-589.337
5586.31
-1148.27
6119.1
-1583.16
6318.81
-1960.72
6576.95
-2327.97
7135.57
-2640.22
7863.07
-2837.69
8277.86
-3013.26
7760.34
-3300.36
6514.47
-3610.66
5563.7
-3849.51
5117.98
-4092.18
4870
-4417.8
4723.85
-4820.49
4749.85
-5248.06
5007.48
-5629.06
5447.58
-5915.08
5849.13
-6147.79
5878.83
-6429.99
5402.49
-6811.95
4684.11
-7255.33
4061.42
-7709.98
3615.72
-8148.19
3311.72
-8559.63
3102.98
-8945.22
2952.16
-9305.83
2843.19
-9641.13
2768.27
-9952.39
2722.96
-10244.4
2707.04
-10519.9
2730.49
-10769.4
2808.1
-10977.7
2946.62
3172.25
1299.73
-2567.36
1346.04
-1884.76
1371.87
-1188.63
1374.59
-303.663
1349.53
639.628
1302.92
1144.42
1272.54
1082.95
1213.61
972.134
1150.2
795.924
1356.1
-779.419
1769.07
-3205.08
2116.22
-4556.9
2360.41
-4721.18
2558.1
-4405.91
2737.91
-3968.88
2899.42
-3453.98
3033.15
-2843.73
3124.62
-2103.86
3160.4
-1250.77
3124.3
-342.245
3016.62
454.894
2880.8
765.973
2754.97
567.221
2670.14
32.8063
2622.97
-654.487
2637.8
-1551.08
2750.9
-2652.39
2951.75
-3637
3195.07
-4282.4
3438.76
-4573.47
3664.65
-4636.43
3872.52
-4618.41
4070.37
-4620.1
4266.62
-4678.88
4467.33
-4789.41
4678.77
-4933.35
4909.49
-5093.67
5166.71
-5249.85
5450.46
-5370.22
5753.23
-5419.75
6065.32
-5374.4
6379.89
-5228.63
6692.29
-4979.41
6997.67
-4618.39
7280.96
-4094.59
7519.54
-3370.65
7682.51
-2423.06
7769.46
-1397.49
7735.57
-183.491
7600.69
1017.62
7399.35
1985.44
7144.42
2837.35
6840.93
3642.25
6482.28
4456.05
6046.75
5298.87
5525.89
6040.94
4959.49
6515.86
4393.63
6857.94
3810.52
7297.46
3202.97
7444.28
2653.99
6756.8
2212.54
5577.18
1831.53
4577.75
1465.1
3899.45
987.567
3709.38
276.619
4275.76
-545.118
5388.93
-1250.52
6291.71
-1775.23
6643.81
-2147.54
6691.12
-2468.06
6897.48
-2795.64
7463.16
-3083.85
8151.27
-3295.22
8489.24
-3533.9
7999.02
-3896.64
6877.21
-4269.57
5936.63
-4551.94
5400.34
-4782.14
5100.2
-5026.13
4967.84
-5304.55
5028.26
-5595.11
5298.03
-5852.67
5705.14
-6050.25
6046.71
-6232.18
6060.75
-6487.48
5657.78
-6851.64
5048.27
-7282.63
4492.41
-7731.77
4064.85
-8170.83
3750.78
-8587.7
3519.84
-8981.45
3345.91
-9354.26
3216.01
-9708.81
3122.81
-10048.5
3062.62
-10377.5
3036.04
-10697.2
3050.21
-10999.7
3110.61
-11263.3
3210.22
3372.2
1252.39
-2624.9
1291.85
-1924.22
1311.63
-1208.39
1307.32
-299.342
1279.31
667.657
1233.98
1189.76
1207.63
1109.32
1139.02
1040.76
1082.65
852.313
1329.97
-1026.72
1751.66
-3626.77
2079.51
-4884.74
2310.3
-4951.97
2503.25
-4598.85
2681.22
-4146.84
2840.87
-3613.63
2972.22
-2975.07
3060.46
-2192.09
3091.87
-1282.17
3047.61
-297.982
2928.33
574.192
2782.03
912.279
2648.68
700.579
2558.48
123.026
2507.82
-603.822
2526.99
-1570.24
2650.25
-2775.64
2853.21
-3839.96
3082.66
-4511.85
3302.4
-4793.21
3503.69
-4837.71
3691.42
-4806.13
3874.43
-4803.1
4059.91
-4864.36
4253.5
-4982.99
4462.6
-5142.45
4695.67
-5326.73
4956.43
-5510.61
5240.75
-5654.54
5540.14
-5719.14
5846.66
-5680.92
6154.91
-5536.87
6460.23
-5284.73
6758.01
-4916.17
7033.4
-4369.97
7263.81
-3601.06
7416.32
-2575.56
7493.37
-1474.54
7439.54
-129.656
7286.89
1170.26
7068.36
2203.97
6797.68
3108.04
6482.45
3957.48
6116.7
4821.8
5677.43
5738.13
5151.49
6566.89
4572.81
7094.54
3988.4
7442.34
3388.4
7897.46
2774.7
8057.97
2238.1
7293.4
1819.68
5995.59
1454.12
4943.31
1069.65
4283.92
490.918
4288.11
-332.301
5098.98
-1164.69
6221.31
-1826.07
6953.09
-2299.65
7117.38
-2653.96
7045.43
-2996.35
7239.87
-3344.16
7810.96
-3634.85
8441.97
-3851.65
8706.04
-4100.89
8248.25
-4472.02
7248.34
-4875.26
6339.87
-5210.55
5735.63