/*--------------------------------*- C++ -*----------------------------------*\
| =========                 |                                                 |
| \\      /  F ield         | OpenFOAM: The Open Source CFD Toolbox           |
|  \\    /   O peration     | Version:  4.1                                   |
|   \\  /    A nd           | Web:      www.OpenFOAM.org                      |
|    \\/     M anipulation  |                                                 |
\*---------------------------------------------------------------------------*/
FoamFile
{
    version     2.0;
    format      ascii;
    class       volVectorField;
    location    "1400";
    object      U;
}
// * * * * * * * * * * * * * * * * * * * * * * * * * * * * * * * * * * * * * //

dimensions      [0 1 -1 0 0 0 0];

internalField   nonuniform List<vector> 
26785
(
(-9.06844e-16 -0.0579811 19.0587)
(-1.44937e-15 -0.0209002 19.8535)
(-1.15884e-15 0.0101174 19.9586)
(1.13423e-15 0.0396347 19.4209)
(-1.87893e-15 0.0600669 18.3809)
(-3.76766e-15 0.0665067 17.1109)
(-1.32591e-14 0.0624084 15.8708)
(-1.832e-14 0.0540046 14.8018)
(-1.54941e-14 0.0417037 13.9414)
(-1.01145e-14 0.0206157 13.3665)
(-2.16475e-14 -0.00606467 13.2286)
(-1.71255e-14 -0.0273506 13.5299)
(-1.38973e-14 -0.0406911 14.1036)
(-1.06619e-14 -0.0462134 14.7881)
(-8.1329e-15 -0.044901 15.4727)
(-6.37033e-15 -0.0381224 16.085)
(-5.5691e-15 -0.0275423 16.5796)
(-5.6541e-15 -0.0146196 16.9266)
(-4.74317e-15 -0.00104527 17.1067)
(-3.7302e-15 0.0107159 17.1228)
(-6.53689e-15 0.0176018 17.0118)
(-4.65425e-15 0.0157866 16.8566)
(-3.75571e-15 0.003936 16.7762)
(-1.56258e-15 -0.015949 16.8809)
(-8.48802e-16 -0.0406274 17.2349)
(-8.18648e-15 -0.0668574 17.8565)
(-5.7078e-15 -0.0908926 18.7269)
(1.30219e-16 -0.108558 19.7863)
(5.91628e-15 -0.118482 20.9474)
(-3.08062e-16 -0.121778 22.1317)
(-6.1057e-15 -0.120381 23.2879)
(-8.81667e-15 -0.116271 24.3886)
(-7.50219e-15 -0.110852 25.4252)
(-9.56949e-15 -0.104725 26.3984)
(-4.54422e-15 -0.0979272 27.3102)
(-6.86232e-15 -0.0902721 28.159)
(-3.56017e-15 -0.0816341 28.9392)
(-1.18748e-15 -0.0721219 29.6429)
(1.61778e-15 -0.0620773 30.2631)
(6.85719e-15 -0.0518867 30.7954)
(5.59383e-15 -0.0416986 31.238)
(1.12768e-14 -0.0312553 31.5895)
(1.15793e-14 -0.0199732 31.845)
(1.94824e-14 -0.00726012 31.9951)
(1.76081e-14 0.00720166 32.0268)
(2.60394e-14 0.0232527 31.9271)
(2.93763e-14 0.040208 31.6871)
(3.46268e-14 0.0567251 31.3075)
(3.5054e-14 0.0721033 30.7986)
(3.54526e-14 0.0863651 30.1783)
(1.98124e-14 0.0986905 29.465)
(1.67926e-14 0.10823 28.6811)
(9.994e-15 0.115056 27.8502)
(7.16606e-15 0.119557 26.9924)
(5.89267e-15 0.121577 26.1236)
(5.34785e-15 0.120525 25.2607)
(4.18147e-15 0.11583 24.4247)
(4.40801e-15 0.107056 23.641)
(4.51543e-15 0.0936798 22.9379)
(1.34287e-14 0.0755091 22.3464)
(1.00251e-14 0.0538397 21.8962)
(1.51541e-14 0.0327014 21.5991)
(8.17069e-15 0.0187683 21.4325)
(8.41302e-15 0.0183971 21.3242)
(-3.77068e-15 0.0345623 21.1713)
(1.22836e-15 0.0672817 20.8589)
(6.2335e-15 0.111408 20.2875)
(8.21261e-15 0.154272 19.4215)
(7.81193e-15 0.184595 18.3188)
(4.74378e-15 0.199844 17.0866)
(1.83922e-14 0.203343 15.8206)
(1.25831e-14 0.198458 14.5827)
(2.05431e-14 0.186229 13.4175)
(2.69322e-14 0.165096 12.3558)
(2.8615e-14 0.129535 11.4767)
(3.72254e-14 0.0939165 10.837)
(2.42579e-14 0.0567833 10.3707)
(4.90568e-15 -0.0291193 10.2674)
(3.32949e-15 -0.0995865 10.7115)
(9.19494e-15 -0.0753471 11.3079)
(2.20891e-14 -0.00641029 11.6128)
(3.28994e-14 0.105042 11.4154)
(1.68325e-14 0.219722 10.6055)
(2.23627e-14 0.254253 9.30773)
(5.49527e-15 0.18584 7.94353)
(6.31685e-15 -0.000168873 7.29807)
(6.01762e-15 -0.21893 8.12036)
(-5.9548e-16 -0.261271 9.75521)
(-5.88069e-15 -0.176504 11.108)
(-1.7119e-14 -0.0774849 11.7876)
(-1.67112e-14 -0.0355274 12.0304)
(-1.49495e-14 -0.0597153 12.2167)
(-1.38577e-14 -0.104049 12.6149)
(-1.56948e-14 -0.124559 13.1857)
(-1.70704e-14 -0.139581 13.7749)
(-2.05864e-14 -0.194551 14.4111)
(-2.92782e-14 -0.293247 15.4951)
(-3.27936e-14 -0.276291 16.9078)
(-3.45234e-14 -0.120516 18.1024)
(-3.7218e-14 0.0632335 18.1152)
(9.27292e-17 -0.149498 18.6477)
(-2.38463e-15 -0.0555485 19.4996)
(-6.08597e-15 0.0278265 19.6975)
(-1.01057e-14 0.113492 19.2589)
(-1.0407e-14 0.175575 18.2859)
(-6.37202e-15 0.196143 17.0538)
(-8.1383e-15 0.184847 15.8361)
(5.36022e-15 0.160192 14.7817)
(-2.06205e-15 0.123656 13.9351)
(-1.19855e-14 0.0615699 13.3716)
(-5.9895e-15 -0.0175394 13.233)
(-1.73671e-15 -0.0810588 13.5263)
(1.17333e-16 -0.11971 14.0777)
(1.01813e-15 -0.134272 14.734)
(-2.17556e-15 -0.130699 15.4193)
(-1.11779e-14 -0.114989 16.0921)
(-7.29507e-15 -0.0909404 16.7089)
(-2.48318e-15 -0.0600071 17.2161)
(-4.98824e-15 -0.0250027 17.5656)
(-2.98728e-15 0.00738968 17.7387)
(-8.36912e-16 0.0277379 17.7613)
(-1.30741e-15 0.0243361 17.7111)
(6.66482e-15 -0.00663615 17.7004)
(-1.56828e-15 -0.0589204 17.8289)
(1.20049e-15 -0.122884 18.1511)
(6.40368e-16 -0.189503 18.6803)
(-4.37315e-15 -0.248948 19.402)
(-1.14295e-15 -0.290541 20.2685)
(1.68542e-15 -0.311643 21.2096)
(1.03622e-15 -0.316307 22.1633)
(3.54399e-16 -0.310445 23.0918)
(1.42614e-15 -0.299751 23.9786)
(-1.49895e-15 -0.288029 24.8233)
(-2.68282e-15 -0.276566 25.6338)
(1.26497e-15 -0.264819 26.4174)
(1.45691e-15 -0.251432 27.1763)
(4.86658e-15 -0.235133 27.9059)
(7.70677e-15 -0.215361 28.5962)
(9.45559e-15 -0.192419 29.2349)
(9.71439e-15 -0.167067 29.81)
(1.07776e-14 -0.139757 30.3117)
(3.54664e-15 -0.110053 30.7313)
(7.32761e-15 -0.0766279 31.0587)
(-7.30232e-16 -0.0379747 31.2806)
(-1.00773e-15 0.00678939 31.3811)
(-1.99107e-15 0.0570828 31.3445)
(8.7691e-15 0.110467 31.1606)
(7.16221e-15 0.162296 30.829)
(2.27651e-14 0.209402 30.3581)
(8.10131e-15 0.251268 29.7705)
(1.90616e-14 0.285836 29.0851)
(1.5446e-14 0.311368 28.3247)
(1.24208e-14 0.329109 27.5122)
(2.23707e-14 0.340997 26.6654)
(6.76325e-15 0.346951 25.798)
(1.25087e-14 0.345248 24.925)
(1.54544e-14 0.333982 24.0668)
(-3.10142e-16 0.311502 23.2488)
(-2.16835e-14 0.275845 22.5001)
(-2.39828e-14 0.225925 21.8526)
(-2.57437e-14 0.165417 21.3394)
(-1.50174e-14 0.104763 20.9751)
(-2.28696e-14 0.0625714 20.7567)
(-1.35842e-14 0.0593194 20.63)
(-1.23326e-14 0.106595 20.4969)
(-1.17308e-14 0.206008 20.2293)
(-8.15693e-15 0.341701 19.71)
(-7.52414e-16 0.47344 18.8817)
(5.69908e-15 0.565144 17.7978)
(-7.99528e-15 0.609248 16.5722)
(-5.60693e-15 0.616979 15.3071)
(-1.36106e-14 0.599509 14.0672)
(-1.24067e-14 0.560725 12.898)
(-1.20863e-14 0.494881 11.8277)
(-1.07517e-14 0.385994 10.945)
(-1.8958e-15 0.278348 10.3006)
(-1.04068e-14 0.164641 9.82467)
(8.19868e-15 -0.103056 9.75213)
(1.18074e-14 -0.31499 10.2484)
(1.31355e-14 -0.244489 10.9177)
(4.44762e-15 -0.0469316 11.2931)
(-5.38779e-15 0.274593 11.0669)
(-2.38515e-14 0.599821 10.2086)
(-2.78646e-14 0.689921 8.83956)
(-1.18325e-14 0.467374 7.40003)
(-2.57291e-14 -0.104323 6.68379)
(-3.7331e-14 -0.716132 7.61452)
(-3.98772e-14 -0.821659 9.37304)
(-3.38733e-14 -0.568971 10.8137)
(-2.83083e-14 -0.264921 11.527)
(-3.45533e-14 -0.123297 11.7774)
(-4.05216e-14 -0.174564 11.9512)
(-4.35309e-14 -0.288815 12.3297)
(-4.56595e-14 -0.336595 12.8698)
(-5.2258e-14 -0.359866 13.3803)
(-5.01497e-14 -0.50605 13.8656)
(-5.35217e-14 -0.826653 14.8021)
(-5.62174e-14 -0.804657 16.094)
(-5.87437e-14 -0.362645 17.1177)
(-5.92084e-14 0.205833 16.7494)
(-1.35229e-15 -0.257343 18.0274)
(1.77208e-15 -0.109048 18.9107)
(3.59048e-15 0.0290157 19.1854)
(-2.18219e-15 0.175235 18.8497)
(1.09278e-15 0.28363 17.9573)
(3.00241e-15 0.321171 16.7762)
(-4.27825e-15 0.304 15.5923)
(1.08884e-15 0.263669 14.5623)
(-2.46775e-15 0.203114 13.7347)
(3.76436e-16 0.100358 13.1838)
(3.99183e-15 -0.030175 13.0518)
(5.56989e-15 -0.133819 13.3337)
(3.49215e-15 -0.196337 13.8612)
(2.4395e-15 -0.224116 14.5436)
(4.17646e-15 -0.228991 15.354)
(2.0018e-15 -0.215798 16.2264)
(1.00534e-15 -0.184256 17.0503)
(4.40194e-15 -0.134282 17.72)
(-6.83793e-16 -0.0721072 18.1691)
(5.93143e-15 -0.0114656 18.3844)
(4.354e-16 0.0302916 18.4024)
(-9.64007e-16 0.0333345 18.3063)
(7.05802e-15 -0.00829393 18.2088)
(3.40996e-15 -0.0841076 18.2088)
(-3.57037e-15 -0.178857 18.3644)
(1.07591e-15 -0.278979 18.6997)
(-4.65122e-16 -0.369711 19.2164)
(-3.93146e-15 -0.4342 19.8834)
(-4.62894e-15 -0.468014 20.6404)
(-6.36904e-15 -0.477252 21.4295)
(-4.79399e-15 -0.471053 22.2132)
(-4.99895e-15 -0.458409 22.9741)
(-2.65548e-15 -0.445396 23.7112)
(-6.07848e-15 -0.434023 24.4326)
(-7.72057e-15 -0.423209 25.147)
(-3.51373e-15 -0.410345 25.8579)
(5.64837e-16 -0.392735 26.5621)
(3.17701e-15 -0.368683 27.2502)
(3.0424e-15 -0.337936 27.9083)
(2.0831e-15 -0.301268 28.5217)
(1.07932e-15 -0.259353 29.0761)
(-5.7039e-16 -0.211727 29.5585)
(-2.0509e-15 -0.156556 29.955)
(-2.73041e-15 -0.0916457 30.2496)
(-3.20587e-15 -0.0157604 30.4241)
(-3.57441e-15 0.0698873 30.4608)
(-3.79231e-15 0.161044 30.3468)
(-3.43916e-15 0.250221 30.0789)
(-2.3233e-15 0.331656 29.6575)
(-1.03982e-15 0.404367 29.1046)
(-8.09978e-17 0.465447 28.4354)
(5.31524e-16 0.512089 27.6712)
(4.62791e-16 0.546457 26.8348)
(6.10763e-16 0.571512 25.9446)
(1.1712e-15 0.586641 25.015)
(-1.81037e-15 0.588572 24.0628)
(-2.91566e-15 0.573897 23.111)
(-1.14299e-14 0.539818 22.1874)
(-2.87695e-15 0.483072 21.3233)
(-1.59426e-14 0.40143 20.5531)
(-2.93183e-15 0.300715 19.914)
(2.40139e-15 0.194694 19.4286)
(7.36091e-15 0.110045 19.1136)
(1.07426e-14 0.0836861 18.9518)
(2.00499e-14 0.142995 18.8665)
(4.17574e-15 0.298109 18.7296)
(-2.38811e-15 0.526361 18.3843)
(1.07342e-14 0.756135 17.7175)
(9.65684e-15 0.919282 16.7559)
(9.55311e-15 0.999968 15.6165)
(7.21934e-15 1.01747 14.4115)
(2.4486e-15 0.991707 13.2126)
(1.02662e-14 0.930505 12.0689)
(2.05263e-15 0.821484 11.0069)
(6.07411e-15 0.639421 10.1356)
(-3.4961e-15 0.458434 9.50087)
(3.46851e-15 0.262498 9.02201)
(2.20703e-14 -0.208061 8.96247)
(3.72504e-14 -0.580995 9.5845)
(4.43659e-14 -0.45886 10.4211)
(4.08787e-14 -0.0664317 10.9171)
(3.50281e-14 0.569567 10.7007)
(1.0944e-14 1.16534 9.7907)
(-1.09658e-14 1.32781 8.2659)
(-1.78885e-14 0.936296 6.63704)
(-1.87982e-14 -0.0961574 5.75215)
(-1.77944e-14 -1.22173 6.92923)
(-2.94e-14 -1.42308 8.72501)
(-3.52648e-14 -0.998989 10.0673)
(-4.31038e-14 -0.488393 10.745)
(-6.09656e-14 -0.244694 10.9847)
(-6.52431e-14 -0.318168 11.0425)
(-6.99263e-14 -0.506865 11.248)
(-6.81876e-14 -0.546316 11.7288)
(-6.53308e-14 -0.505042 12.2928)
(-6.47347e-14 -0.71355 12.7425)
(-7.0325e-14 -1.30223 13.5181)
(-7.50862e-14 -1.27135 14.4355)
(-7.99908e-14 -0.456122 15.2134)
(-8.36776e-14 0.33456 14.2771)
(-1.06517e-15 -0.365508 17.3226)
(-3.22688e-15 -0.167822 18.1951)
(2.00531e-15 0.0202895 18.5202)
(3.39275e-15 0.225306 18.2835)
(1.18091e-14 0.381857 17.4817)
(1.49854e-14 0.438464 16.3625)
(2.46885e-14 0.416748 15.2222)
(1.86468e-14 0.361803 14.2247)
(5.17352e-15 0.277917 13.4225)
(2.75612e-15 0.135198 12.8957)
(2.63408e-15 -0.044332 12.7739)
(4.15311e-15 -0.186092 13.0354)
(4.03978e-16 -0.278114 13.5836)
(4.71395e-15 -0.332977 14.4142)
(1.34558e-14 -0.357364 15.459)
(1.17451e-14 -0.345981 16.5365)
(7.18287e-15 -0.296651 17.4678)
(6.71113e-15 -0.215024 18.149)
(5.35832e-15 -0.11563 18.5465)
(-4.48884e-15 -0.0201949 18.6769)
(-5.2e-15 0.0472457 18.5922)
(-2.04738e-15 0.0600415 18.3799)
(2.83391e-15 0.0108483 18.1529)
(1.13308e-15 -0.0856739 18.0124)
(1.88986e-15 -0.209374 18.0211)
(3.47349e-15 -0.342963 18.2108)
(2.21901e-15 -0.466986 18.5928)
(-2.43823e-16 -0.557545 19.1425)
(-2.09411e-15 -0.607369 19.8)
(-3.47625e-15 -0.623952 20.5045)
(-5.31153e-16 -0.619528 21.2153)
(-6.41316e-16 -0.606586 21.9126)
(-4.22009e-15 -0.593771 22.5943)
(-4.98524e-15 -0.584105 23.2684)
(-7.49938e-15 -0.576201 23.9441)
(-1.25956e-14 -0.566359 24.626)
(-4.77642e-15 -0.55049 25.3125)
(-3.41264e-15 -0.525645 25.9953)
(-1.02473e-14 -0.49075 26.6617)
(-1.91689e-15 -0.446259 27.2966)
(-5.31836e-15 -0.392783 27.8848)
(-1.47636e-14 -0.329705 28.4113)
(-1.43692e-14 -0.254721 28.86)
(-6.45322e-15 -0.165048 29.2135)
(-7.48722e-15 -0.0590283 29.4514)
(-5.05151e-15 0.0618454 29.5528)
(-1.53828e-14 0.191959 29.4995)
(-1.54842e-14 0.32164 29.2841)
(-8.66427e-15 0.441932 28.898)
(2.50772e-15 0.550614 28.3653)
(1.39036e-15 0.643474 27.7)
(1.61793e-14 0.716115 26.9246)
(7.76051e-15 0.771688 26.0636)
(7.29429e-15 0.814309 25.1343)
(9.11633e-15 0.842823 24.1489)
(3.01611e-15 0.852325 23.1227)
(1.82516e-15 0.837813 22.0786)
(8.0419e-15 0.795266 21.046)
(1.3383e-14 0.719999 20.059)
(4.21461e-15 0.608234 19.157)
(1.78006e-14 0.467779 18.3823)
(1.08827e-14 0.314855 17.762)
(2.30482e-14 0.176616 17.3083)
(1.74775e-14 0.103588 17.0478)
(1.56593e-14 0.144811 16.938)
(7.62239e-15 0.329745 16.8751)
(2.90137e-14 0.641751 16.6844)
(2.02194e-14 0.976499 16.1946)
(7.5369e-15 1.22337 15.3877)
(6.6009e-15 1.35188 14.3722)
(-7.1856e-15 1.38824 13.2643)
(1.28667e-14 1.36166 12.1383)
(7.21732e-15 1.28535 11.0443)
(2.58293e-14 1.13645 10.0037)
(2.94602e-14 0.879267 9.15155)
(-8.03526e-15 0.633858 8.53928)
(1.7915e-14 0.383477 8.0451)
(1.44832e-14 -0.32639 7.96725)
(3.71878e-14 -0.895418 8.83082)
(4.16571e-14 -0.72986 9.9551)
(3.79137e-14 -0.196509 10.679)
(2.95078e-14 0.669337 10.5205)
(2.6962e-14 1.45793 9.48807)
(2.69324e-14 1.68266 7.66331)
(7.60854e-15 1.24512 5.7053)
(9.072e-16 -0.321301 4.75949)
(-2.12747e-14 -1.86509 5.61818)
(-4.15634e-14 -1.98957 6.36787)
(-5.5057e-14 -1.34933 6.81893)
(-5.53789e-14 -0.605568 7.21166)
(-5.74704e-14 -0.208164 7.57185)
(-5.41467e-14 -0.277249 7.65077)
(-6.0779e-14 -0.600118 7.5064)
(-6.95994e-14 -0.799444 7.66524)
(-7.50081e-14 -0.8013 8.39433)
(-7.57919e-14 -0.993527 9.07748)
(-7.8126e-14 -1.60159 9.8204)
(-8.23622e-14 -1.54585 9.76167)
(-8.27782e-14 -0.250575 10.3281)
(-8.8942e-14 0.990756 9.55576)
(-4.84069e-16 -0.467774 16.6073)
(-3.96115e-15 -0.229198 17.3959)
(-3.68974e-15 0.0016517 17.7395)
(-4.91492e-15 0.262583 17.6056)
(6.81379e-15 0.469433 16.9126)
(9.52095e-15 0.547835 15.8709)
(6.45227e-15 0.523324 14.7848)
(1.03405e-14 0.454987 13.8266)
(5.44154e-15 0.348144 13.0567)
(8.81778e-15 0.166683 12.5582)
(5.90124e-15 -0.0587062 12.4284)
(4.82235e-15 -0.241826 12.6783)
(6.25423e-15 -0.377947 13.3472)
(5.3354e-15 -0.472173 14.4272)
(9.26758e-15 -0.51233 15.6884)
(5.85028e-15 -0.487764 16.8477)
(-3.20776e-15 -0.406299 17.7428)
(-6.49261e-15 -0.284896 18.3284)
(-6.50544e-15 -0.145512 18.6142)
(-4.72577e-15 -0.015011 18.6357)
(-6.75664e-15 0.0781418 18.4473)
(-5.6491e-15 0.1011 18.1323)
(3.59847e-15 0.0450427 17.8013)
(8.34564e-15 -0.0715482 17.5561)
(9.76216e-15 -0.224153 17.4616)
(9.18642e-15 -0.392186 17.553)
(3.97673e-15 -0.551478 17.8479)
(-3.13249e-15 -0.670269 18.3258)
(-8.24458e-16 -0.737901 18.925)
(1.03578e-15 -0.76314 19.5811)
(3.78263e-15 -0.761467 20.2504)
(2.76918e-15 -0.749096 20.9113)
(-2.56407e-16 -0.737392 21.5609)
(-3.72874e-15 -0.730467 22.2071)
(7.71008e-16 -0.726678 22.8595)
(-7.89641e-15 -0.72129 23.5235)
(-1.25727e-14 -0.708885 24.1983)
(-1.38013e-14 -0.685289 24.877)
(-1.24627e-14 -0.648542 25.5479)
(-1.08136e-14 -0.598618 26.1962)
(-8.86777e-15 -0.53589 26.8065)
(-7.45112e-15 -0.459486 27.3627)
(-5.53862e-18 -0.366585 27.848)
(-2.04943e-15 -0.25366 28.2436)
(-9.42951e-16 -0.118234 28.5269)
(9.46346e-16 0.038327 28.6733)
(3.59834e-15 0.209095 28.6606)
(6.93054e-15 0.382209 28.4802)
(7.11836e-15 0.544464 28.1199)
(2.34477e-14 0.691894 27.607)
(2.22591e-14 0.818994 26.9561)
(3.46686e-14 0.920072 26.1895)
(4.05333e-14 0.999994 25.33)
(4.51694e-14 1.06446 24.3909)
(4.45997e-14 1.11174 23.3785)
(2.96081e-14 1.13486 22.3035)
(3.35045e-14 1.12661 21.1868)
(3.26154e-14 1.08105 20.0584)
(4.62954e-14 0.991348 18.956)
(3.33054e-14 0.851573 17.9263)
(4.87312e-14 0.671777 17.0201)
(2.39822e-14 0.474827 16.2723)
(2.72054e-14 0.283315 15.6749)
(1.34232e-14 0.150652 15.2708)
(6.15965e-15 0.148225 15.0681)
(2.84768e-14 0.331994 14.9962)
(4.2644e-15 0.706804 14.8874)
(1.85836e-14 1.14159 14.5306)
(8.57524e-15 1.47626 13.8587)
(1.12132e-14 1.6592 12.9655)
(-2.0298e-15 1.72175 11.9636)
(9.88485e-15 1.70279 10.9232)
(1.61203e-14 1.62244 9.88843)
(2.91743e-14 1.44177 8.86967)
(2.6845e-14 1.109 8.0334)
(1.12971e-14 0.783635 7.46566)
(-4.04282e-14 0.456326 6.9426)
(-4.01735e-14 -0.579918 7.01898)
(3.59637e-14 -1.40974 7.65129)
(4.17859e-14 -1.11261 8.53253)
(4.70818e-14 -0.273893 9.60935)
(2.21948e-14 1.20312 10.1344)
(1.41655e-16 2.58202 9.20201)
(1.46968e-14 2.86336 6.79868)
(-2.12087e-15 1.86622 4.24683)
(-1.79866e-14 -0.257614 3.80303)
(-7.369e-14 -1.72361 2.84324)
(-9.10405e-14 -2.04494 1.5205)
(-9.50377e-14 -1.73456 0.901557)
(-7.66841e-14 -1.17507 1.40408)
(-6.84711e-14 -0.726394 2.14345)
(-7.25428e-14 -0.478547 2.62732)
(-7.60567e-14 -0.567263 2.45538)
(-9.6535e-14 -0.892566 1.83996)
(-1.02004e-13 -1.07259 1.60949)
(-9.50761e-14 -1.28008 1.69667)
(-8.49801e-14 -1.766 2.01444)
(-9.16617e-14 -2.16893 0.712239)
(-1.00124e-13 -1.09386 2.43382)
(-1.00496e-13 0.662677 3.59906)
(-1.11117e-15 -0.57287 15.8129)
(1.44252e-15 -0.293115 16.5365)
(1.67787e-15 -0.026066 16.8507)
(-2.14052e-15 0.284262 16.7702)
(5.12328e-15 0.541638 16.1898)
(5.0822e-15 0.64484 15.2512)
(8.76233e-15 0.620233 14.2443)
(1.58803e-14 0.540543 13.3447)
(2.42606e-14 0.412011 12.6218)
(1.59943e-14 0.194813 12.1517)
(-5.51631e-15 -0.07509 12.006)
(-7.3262e-15 -0.310829 12.3103)
(3.31255e-16 -0.507099 13.2126)
(-8.74356e-16 -0.639767 14.5466)
(-2.92281e-15 -0.678828 15.909)
(-6.83288e-15 -0.624658 17.0203)
(-8.45121e-15 -0.50309 17.7995)
(-6.42417e-15 -0.34066 18.2612)
(-9.2417e-15 -0.162753 18.4387)
(-3.87016e-15 0.00125472 18.3687)
(2.37786e-15 0.119558 18.0985)
(-5.94982e-16 0.152661 17.7044)
(-4.24354e-15 0.0898491 17.2948)
(9.13592e-15 -0.0466995 16.9722)
(1.1675e-14 -0.228386 16.8025)
(4.42712e-15 -0.431775 16.8228)
(2.34606e-15 -0.628158 17.0565)
(-2.05545e-16 -0.777134 17.4872)
(3.95148e-15 -0.864132 18.0504)
(9.4182e-15 -0.899031 18.6777)
(1.39452e-14 -0.900689 19.322)
(1.48112e-14 -0.889278 19.9597)
(1.10494e-14 -0.879054 20.5877)
(1.06979e-14 -0.875313 21.2143)
(8.61989e-15 -0.876228 21.8499)
(3.78313e-15 -0.876091 22.5008)
(9.80291e-16 -0.868226 23.1673)
(1.10491e-15 -0.847241 23.8432)
(1.80006e-15 -0.810201 24.5175)
(1.63711e-15 -0.756449 25.1752)
(9.76139e-15 -0.686011 25.8003)
(1.25876e-14 -0.597732 26.3766)
(7.09949e-15 -0.48821 26.887)
(1.38695e-14 -0.352986 27.3114)
(1.2733e-14 -0.188498 27.6253)
(1.44574e-14 0.00404792 27.8016)
(1.6142e-14 0.216112 27.8184)
(1.76236e-14 0.433503 27.6684)
(1.93915e-14 0.638206 27.3406)
(2.21399e-14 0.824666 26.8627)
(2.58136e-14 0.986513 26.2492)
(3.08721e-14 1.11735 25.5182)
(3.7241e-14 1.22435 24.6885)
(4.38237e-14 1.31502 23.7672)
(4.90599e-14 1.38698 22.7539)
(5.14514e-14 1.43075 21.6531)
(5.11963e-14 1.43613 20.4818)
(5.10285e-14 1.39438 19.269)
(6.2782e-14 1.29516 18.0559)
(4.90462e-14 1.12939 16.9001)
(4.60089e-14 0.909149 15.8649)
(4.02185e-14 0.668764 14.9963)
(3.57941e-14 0.430859 14.2792)
(3.63198e-14 0.234905 13.7135)
(3.01658e-14 0.17053 13.3756)
(3.93264e-14 0.326993 13.2315)
(3.48933e-14 0.742059 13.1322)
(2.56888e-14 1.26623 12.85)
(6.07263e-15 1.68629 12.2733)
(1.78455e-15 1.92492 11.4807)
(-2.95231e-14 2.0181 10.5766)
(-6.95594e-16 2.01392 9.6217)
(1.72346e-14 1.94003 8.64268)
(9.37697e-15 1.73175 7.63725)
(-7.28281e-15 1.30795 6.79359)
(2.69089e-14 0.950947 6.17009)
(-5.72886e-15 0.661744 5.78293)
(9.70746e-14 -0.520315 6.33804)
(1.00026e-13 -1.50416 4.4681)
(3.01308e-14 -1.53113 3.52129)
(9.07637e-15 -1.18223 4.21149)
(-2.87807e-15 0.158727 6.72881)
(-8.40602e-15 2.115 8.5647)
(7.9233e-15 3.18152 7.14465)
(2.68399e-14 2.56575 5.01374)
(-5.35811e-14 0.620188 1.61648)
(-1.20626e-13 -0.675517 -2.78314)
(-9.44865e-14 -1.54208 -4.79626)
(-9.47433e-14 -1.45337 -6.62201)
(-9.81304e-14 -1.03708 -7.1714)
(-9.06911e-14 -0.682893 -7.31649)
(-9.39017e-14 -0.545115 -7.19325)
(-1.0523e-13 -0.646599 -7.23053)
(-1.01684e-13 -0.874998 -7.4562)
(-1.03915e-13 -1.11231 -7.76103)
(-9.04984e-14 -1.46896 -8.12125)
(-9.84027e-14 -1.95878 -8.8737)
(-9.96508e-14 -2.01402 -10.1377)
(-1.0565e-13 -0.370469 -11.3493)
(-1.03118e-13 1.09127 -10.475)
(1.55606e-15 -0.654883 15.2219)
(2.03104e-15 -0.348195 15.8852)
(-1.19789e-15 -0.0504522 16.1585)
(-9.80297e-16 0.3011 16.0597)
(6.16786e-15 0.603488 15.4975)
(6.44434e-15 0.730227 14.6044)
(-6.84327e-16 0.706243 13.6536)
(1.26518e-15 0.616716 12.8087)
(1.98878e-15 0.468515 12.1367)
(-2.55038e-14 0.218903 11.6906)
(-1.71094e-14 -0.0992212 11.545)
(-3.30138e-15 -0.403743 11.9979)
(-6.01914e-15 -0.667441 13.1843)
(-6.72075e-15 -0.823562 14.6887)
(-6.63979e-15 -0.841784 16.0333)
(-7.163e-15 -0.747754 17.0282)
(-1.24089e-14 -0.584786 17.6775)
(-7.17038e-15 -0.383786 18.03)
(-1.10183e-15 -0.170098 18.1206)
(4.62854e-17 0.0256753 17.9784)
(7.96576e-15 0.168646 17.6419)
(1.05032e-15 0.211751 17.1819)
(-3.07954e-16 0.142047 16.7076)
(3.01311e-15 -0.0144529 16.3233)
(5.11857e-16 -0.225311 16.095)
(2.51492e-15 -0.464814 16.0606)
(3.96757e-15 -0.700006 16.2486)
(2.73374e-15 -0.880944 16.6467)
(9.16304e-15 -0.98853 17.1869)
(2.07021e-14 -1.03362 17.7955)
(2.34866e-14 -1.0387 18.4221)
(2.59258e-14 -1.02823 19.0418)
(2.37728e-14 -1.01958 19.6519)
(1.90807e-14 -1.01933 20.262)
(1.28295e-14 -1.02549 20.8838)
(9.76995e-15 -1.03139 21.5244)
(8.2119e-15 -1.02906 22.1849)
(6.07797e-15 -1.01177 22.8593)
(4.39725e-15 -0.975501 23.5362)
(2.90841e-15 -0.91892 24.2008)
(1.30948e-14 -0.841785 24.8378)
(1.20009e-14 -0.742699 25.4314)
(1.94458e-14 -0.617502 25.9636)
(1.87647e-14 -0.460569 26.4117)
(2.17486e-14 -0.26721 26.7495)
(2.33445e-14 -0.038859 26.9516)
(2.66568e-14 0.213929 27)
(2.03122e-14 0.474536 26.8903)
(7.14513e-15 0.720395 26.6138)
(4.95019e-16 0.944829 26.1912)
(-3.3576e-15 1.14086 25.6346)
(-1.79044e-14 1.30242 24.9559)
(-8.89239e-15 1.43938 24.1694)
(1.23956e-15 1.56098 23.2787)
(1.41279e-14 1.66414 22.2786)
(2.51168e-14 1.7367 21.1683)
(3.26363e-14 1.76491 19.9583)
(3.7315e-14 1.73597 18.6724)
(5.19444e-14 1.63399 17.352)
(4.2851e-14 1.44458 16.0676)
(4.17873e-14 1.18216 14.9033)
(3.84078e-14 0.89537 13.9166)
(3.80629e-14 0.61704 13.1012)
(2.17569e-14 0.365708 12.3979)
(3.63871e-14 0.229151 11.8978)
(2.60465e-14 0.337478 11.636)
(4.51807e-14 0.770125 11.4831)
(3.93839e-14 1.36854 11.2164)
(-1.48532e-15 1.86586 10.6898)
(-5.4867e-15 2.1561 9.96926)
(-1.38095e-14 2.27927 9.14762)
(7.91947e-15 2.29634 8.26927)
(3.77011e-18 2.24444 7.33145)
(2.16153e-14 2.03809 6.33695)
(1.01097e-14 1.56047 5.38672)
(8.60765e-15 0.993665 4.71203)
(5.77434e-14 0.398164 5.13366)
(1.38678e-13 -0.0133477 4.40745)
(1.45727e-14 -0.425265 -1.66634)
(-7.36673e-14 -1.25947 -3.30166)
(-7.83482e-14 -1.39654 -3.01015)
(-2.69965e-14 -0.696973 -4.20407)
(-5.10184e-14 1.94658 1.67393)
(1.07445e-14 3.65333 2.15134)
(1.80312e-14 3.68302 0.361928)
(-1.21034e-13 1.96257 -2.6148)
(-9.53634e-14 0.279486 -4.06439)
(-9.85048e-14 -1.22277 -4.59725)
(-1.09492e-13 -1.34081 -6.24087)
(-9.48804e-14 -1.0886 -6.9443)
(-9.05136e-14 -0.746905 -7.26798)
(-9.21435e-14 -0.548423 -7.26943)
(-8.98979e-14 -0.530522 -7.36516)
(-8.54173e-14 -0.64648 -7.67097)
(-8.46407e-14 -0.782627 -8.1821)
(-9.79578e-14 -1.07231 -8.86121)
(-9.3691e-14 -1.66725 -10.0384)
(-9.08271e-14 -2.02362 -12.0116)
(-8.9597e-14 -0.966513 -14.1114)
(-9.28755e-14 0.423522 -14.1782)
(2.62397e-15 -0.741219 14.6458)
(8.7544e-15 -0.405818 15.2422)
(7.36372e-15 -0.0750573 15.4844)
(7.44076e-16 0.318143 15.3914)
(7.30865e-15 0.663711 14.8528)
(7.15647e-15 0.811263 13.988)
(6.23597e-15 0.785884 13.0735)
(-2.6713e-15 0.685986 12.2724)
(-1.97111e-14 0.519544 11.6465)
(-1.52903e-14 0.238846 11.2136)
(-4.89637e-15 -0.13688 11.0936)
(-3.17518e-15 -0.525767 11.7707)
(-6.61628e-15 -0.852446 13.222)
(-8.03575e-15 -1.01091 14.7982)
(-8.1479e-15 -0.993193 16.0582)
(-7.6707e-15 -0.855621 16.9279)
(-2.53628e-15 -0.653342 17.4694)
(-6.06992e-15 -0.416668 17.74)
(-9.436e-15 -0.169049 17.7649)
(-1.07987e-14 0.0578052 17.5626)
(-1.09747e-14 0.22565 17.1647)
(-1.10616e-14 0.278597 16.6402)
(-9.36336e-15 0.201341 16.1033)
(-3.32007e-15 0.0243088 15.6623)
(1.28226e-15 -0.21621 15.3832)
(4.23172e-15 -0.492757 15.3026)
(7.66041e-15 -0.768529 15.4539)
(1.56656e-14 -0.983055 15.8283)
(2.30457e-14 -1.11211 16.3528)
(2.3101e-14 -1.16752 16.9482)
(1.96158e-14 -1.17576 17.5617)
(1.59959e-14 -1.16602 18.168)
(1.24626e-14 -1.15897 18.7655)
(8.70559e-15 -1.16252 19.3655)
(4.28407e-15 -1.17446 19.9803)
(-1.87191e-15 -1.18706 20.6174)
(-1.29681e-15 -1.19094 21.2768)
(-3.43276e-15 -1.17801 21.9524)
(-3.97531e-15 -1.14323 22.6332)
(-2.79588e-15 -1.08481 23.3068)
(6.40671e-15 -1.00221 23.9595)
(1.28791e-14 -0.893432 24.5744)
(2.07209e-14 -0.753104 25.1295)
(2.18001e-14 -0.574523 25.5992)
(2.5366e-14 -0.352605 25.9596)
(2.86579e-14 -0.0898368 26.192)
(3.06455e-14 0.201328 26.2844)
(3.30848e-14 0.502335 26.2301)
(2.05529e-14 0.787622 26.0189)
(1.63918e-14 1.05015 25.6537)
(1.66903e-14 1.28092 25.1461)
(2.31499e-15 1.47498 24.5034)
(7.35374e-15 1.64476 23.7415)
(9.05022e-15 1.80075 22.8668)
(1.19942e-14 1.93962 21.876)
(1.18872e-14 2.04755 20.7663)
(2.54529e-14 2.10789 19.5395)
(2.29516e-14 2.10283 18.2044)
(2.53505e-14 2.00746 16.7928)
(1.14588e-14 1.79787 15.3849)
(2.12653e-14 1.4907 14.0927)
(2.22165e-14 1.15134 12.9923)
(2.58805e-14 0.831324 12.0866)
(2.68998e-14 0.538639 11.2954)
(2.60684e-14 0.331349 10.6353)
(2.47934e-14 0.379029 10.2243)
(3.4248e-14 0.810347 9.96685)
(4.64513e-14 1.46601 9.65916)
(9.56757e-15 2.02755 9.13825)
(-5.30689e-15 2.36014 8.46039)
(-1.53535e-14 2.5127 7.70358)
(7.31249e-15 2.55962 6.8957)
(8.84409e-15 2.53941 6.00362)
(1.49624e-14 2.33647 4.96232)
(-2.19529e-14 1.77433 4.05851)
(1.88463e-15 1.11298 3.02414)
(1.01863e-14 1.11381 0.581068)
(-8.82365e-15 1.25159 -2.20309)
(-1.31393e-15 -0.0196285 -3.92293)
(4.64967e-15 -1.284 -3.99152)
(-6.23498e-15 -1.35877 -4.936)
(2.96781e-14 -1.08272 -5.53166)
(9.89354e-15 0.853541 -4.93886)
(1.41729e-14 3.54099 -3.95604)
(-3.77649e-14 4.16054 -4.00206)
(-1.0805e-13 2.37822 -4.39578)
(-9.31581e-14 0.169392 -5.56785)
(-9.98494e-14 -0.85764 -6.31833)
(-1.0172e-13 -0.884457 -7.61334)
(-1.08561e-13 -0.783181 -8.31397)
(-1.00104e-13 -0.629081 -8.74719)
(-8.74961e-14 -0.569424 -8.95537)
(-8.13808e-14 -0.56611 -9.20667)
(-9.47517e-14 -0.571291 -9.61899)
(-9.24068e-14 -0.580491 -10.2134)
(-9.20802e-14 -0.694513 -10.986)
(-9.3802e-14 -0.902052 -12.1206)
(-8.74025e-14 -0.852023 -13.6389)
(-8.74744e-14 -0.0936915 -15.2396)
(-8.33487e-14 0.703259 -15.2968)
(6.90361e-16 -0.819188 14.0826)
(6.68815e-15 -0.458724 14.5969)
(9.71977e-15 -0.100226 14.8083)
(1.26929e-14 0.33071 14.7322)
(1.99319e-14 0.719111 14.2335)
(9.82998e-15 0.887651 13.4033)
(1.1751e-14 0.86013 12.5225)
(1.21804e-14 0.749582 11.7614)
(4.44938e-15 0.566743 11.1759)
(9.55725e-15 0.253967 10.7399)
(8.15156e-15 -0.192689 10.6737)
(-4.98724e-15 -0.677655 11.6258)
(-9.92563e-15 -1.05395 13.2933)
(-6.80401e-15 -1.19393 14.8701)
(-5.57591e-15 -1.1311 16.026)
(-6.32624e-15 -0.950257 16.7908)
(-6.21255e-15 -0.7115 17.2562)
(-9.75817e-15 -0.441049 17.4722)
(-1.79331e-14 -0.159882 17.4492)
(-1.99283e-14 0.0986839 17.1957)
(-1.26585e-14 0.292522 16.7374)
(-1.13298e-14 0.355289 16.1448)
(-8.25184e-15 0.269361 15.5411)
(-3.74821e-15 0.0706146 15.0421)
(-6.44906e-15 -0.200517 14.7139)
(5.35121e-15 -0.515308 14.591)
(1.02768e-14 -0.833591 14.7106)
(1.38287e-14 -1.08332 15.0669)
(1.27135e-14 -1.23462 15.5812)
(1.15319e-14 -1.30038 16.1699)
(7.56261e-15 -1.31161 16.7781)
(-1.23809e-15 -1.30257 17.3808)
(-1.79927e-15 -1.29735 17.9772)
(-8.62378e-15 -1.30506 18.5787)
(-7.02309e-15 -1.32313 19.1972)
(-1.05492e-14 -1.34262 19.8384)
(-1.01495e-14 -1.35281 20.5012)
(-1.08759e-14 -1.34453 21.18)
(-9.35587e-15 -1.31212 21.8675)
(-5.99014e-15 -1.25331 22.5547)
(9.49877e-16 -1.16662 23.2275)
(7.15013e-15 -1.04863 23.8639)
(2.0825e-14 -0.892805 24.4371)
(2.30801e-14 -0.692594 24.9237)
(2.77571e-14 -0.443775 25.309)
(3.04282e-14 -0.149891 25.5825)
(2.97383e-14 0.176448 25.7308)
(2.61202e-14 0.515999 25.7344)
(2.16664e-14 0.841939 25.575)
(1.78351e-14 1.14625 25.2361)
(1.55202e-14 1.41464 24.737)
(1.44356e-14 1.6435 24.086)
(1.46469e-14 1.84731 23.3073)
(1.57373e-14 2.03741 22.416)
(1.6561e-14 2.2111 21.4157)
(1.44183e-14 2.35529 20.3085)
(1.46148e-14 2.45351 19.091)
(1.63435e-14 2.48397 17.7487)
(1.97295e-14 2.40846 16.2848)
(1.60095e-14 2.18589 14.7775)
(8.24336e-15 1.83266 13.3695)
(8.40174e-15 1.4349 12.1662)
(5.17085e-15 1.06795 11.1766)
(-3.17372e-15 0.740094 10.3229)
(2.8872e-14 0.479367 9.55621)
(1.90625e-14 0.463653 8.97895)
(3.44899e-14 0.879527 8.58304)
(2.4468e-14 1.57462 8.18599)
(2.61744e-15 2.18346 7.63048)
(-4.49284e-15 2.54644 6.9707)
(-1.0581e-14 2.7177 6.27042)
(1.25106e-14 2.7876 5.52957)
(6.88131e-15 2.82418 4.61701)
(2.12307e-14 2.65659 3.4972)
(-2.43778e-14 2.15927 2.27779)
(-5.65737e-14 1.9293 0.0453081)
(-2.34658e-14 1.98685 -2.65406)
(-7.37451e-15 1.2801 -3.7462)
(-8.63362e-14 -0.0786275 -4.71403)
(-2.23799e-14 -0.940444 -5.44824)
(-2.91477e-14 -0.7456 -7.0816)
(3.47708e-15 -0.335738 -8.38347)
(-1.62601e-14 1.02534 -8.79318)
(-4.78756e-14 3.12645 -7.89164)
(-7.29935e-14 3.89263 -6.63858)
(-8.28909e-14 2.39948 -5.83609)
(-7.68708e-14 0.377085 -7.00391)
(-7.64297e-14 -0.598592 -7.76554)
(-7.79252e-14 -0.63288 -8.93232)
(-8.1199e-14 -0.558576 -9.73183)
(-8.66612e-14 -0.455223 -10.3463)
(-8.04818e-14 -0.437613 -10.8213)
(-8.9612e-14 -0.444202 -11.3135)
(-8.94468e-14 -0.427571 -11.881)
(-8.66907e-14 -0.424858 -12.5378)
(-9.23733e-14 -0.555324 -13.2822)
(-9.31202e-14 -0.756098 -14.2898)
(-9.03391e-14 -0.637709 -15.5043)
(-9.15136e-14 0.0344448 -16.7043)
(-8.97626e-14 0.665298 -16.9183)
(-1.29793e-15 -0.889044 13.5066)
(-1.84815e-15 -0.509328 13.9231)
(-1.15907e-15 -0.128904 14.098)
(2.78333e-15 0.336323 14.0531)
(8.63307e-15 0.768097 13.6217)
(5.14878e-15 0.958975 12.8425)
(6.03336e-15 0.929248 12.0003)
(5.77688e-16 0.808264 11.2807)
(2.16843e-15 0.611941 10.7309)
(-7.60507e-15 0.263774 10.2691)
(-1.76436e-14 -0.270201 10.2924)
(-1.04613e-14 -0.85835 11.5565)
(-6.69094e-15 -1.26511 13.3836)
(-8.97455e-15 -1.36882 14.9134)
(-4.22783e-15 -1.25663 15.966)
(-6.66346e-15 -1.03495 16.6514)
(-6.49647e-15 -0.762401 17.0689)
(-1.09489e-14 -0.459029 17.2532)
(-1.98011e-14 -0.143462 17.1993)
(-1.65769e-14 0.148691 16.9061)