/*--------------------------------*- C++ -*----------------------------------*\
| =========                 |                                                 |
| \\      /  F ield         | OpenFOAM: The Open Source CFD Toolbox           |
|  \\    /   O peration     | Version:  4.1                                   |
|   \\  /    A nd           | Web:      www.OpenFOAM.org                      |
|    \\/     M anipulation  |                                                 |
\*---------------------------------------------------------------------------*/
FoamFile
{
    version     2.0;
    format      ascii;
    class       volScalarField;
    location    "1700";
    object      p;
}
// * * * * * * * * * * * * * * * * * * * * * * * * * * * * * * * * * * * * * //

dimensions      [0 2 -2 0 0 0 0];

internalField   nonuniform List<scalar> 
26785
(
-2933.27
-2949.85
-2962.56
-2972.51
-2980.09
-2985.64
-2990.05
-2994.38
-2999.2
-3004.27
-3008.95
-3012.69
-3015.35
-3017.08
-3018.03
-3018.33
-3018.44
-3018.77
-3019.6
-3021.45
-3024.97
-3030.7
-3039.84
-3053.14
-3073.28
-3104.87
-3152.49
-3215.8
-3290.13
-3369.65
-3447.81
-3518.87
-3579.26
-3627.88
-3666.91
-3700.81
-3732.13
-3761.86
-3790.81
-3819.03
-3846.33
-3872.41
-3896.81
-3919.36
-3940.65
-3961.6
-3982.88
-4004.44
-4025.92
-4047.22
-4068.67
-4091.09
-4115.52
-4142.75
-4173.1
-4206.56
-4242.96
-4282.08
-4323.57
-4366.85
-4410.95
-4454.32
-4494.59
-4528.53
-4552.15
-4561.08
-4551.06
-4518.47
-4460.72
-4375.22
-4262.45
-4121.35
-3953.08
-3766.9
-3573.68
-3381.33
-3194.35
-3014.68
-2842.4
-2676.55
-2515.66
-2358.18
-2202.72
-2048.22
-1894.12
-1740.56
-1588.52
-1439.45
-1294.75
-1155.25
-1021.16
-892.364
-768.674
-650.047
-536.493
-428.111
-324.524
-226.148
-131.153
-44.4843
-2933.34
-2949.88
-2962.59
-2972.53
-2980.11
-2985.65
-2990.05
-2994.37
-2999.19
-3004.27
-3008.95
-3012.7
-3015.36
-3017.09
-3018.04
-3018.33
-3018.43
-3018.76
-3019.58
-3021.41
-3024.91
-3030.61
-3039.71
-3052.91
-3072.95
-3104.46
-3152.17
-3215.67
-3290.21
-3369.91
-3448.19
-3519.31
-3579.68
-3628.19
-3667.07
-3700.86
-3732.13
-3761.83
-3790.78
-3819.01
-3846.32
-3872.42
-3896.84
-3919.38
-3940.62
-3961.54
-3982.82
-4004.4
-4025.9
-4047.19
-4068.61
-4091
-4115.43
-4142.71
-4173.16
-4206.72
-4243.25
-4282.49
-4324.12
-4367.55
-4411.84
-4455.42
-4495.94
-4530.17
-4554.07
-4563.28
-4553.52
-4521.18
-4463.7
-4378.38
-4266
-4124.98
-3956.1
-3769.11
-3575.15
-3382.22
-3194.9
-3015.07
-2842.79
-2677.03
-2516.3
-2359
-2203.71
-2049.33
-1895.25
-1741.61
-1589.4
-1440.16
-1295.34
-1155.76
-1021.63
-892.783
-769.03
-650.325
-536.697
-428.264
-324.637
-226.211
-131.121
-44.4504
-2933.43
-2949.93
-2962.62
-2972.57
-2980.14
-2985.67
-2990.05
-2994.36
-2999.19
-3004.28
-3008.97
-3012.72
-3015.38
-3017.1
-3018.05
-3018.33
-3018.42
-3018.74
-3019.53
-3021.33
-3024.79
-3030.42
-3039.44
-3052.47
-3072.3
-3103.68
-3151.55
-3215.42
-3290.36
-3370.42
-3448.94
-3520.16
-3580.48
-3628.78
-3667.37
-3700.95
-3732.13
-3761.78
-3790.72
-3818.96
-3846.3
-3872.45
-3896.9
-3919.42
-3940.57
-3961.42
-3982.72
-4004.34
-4025.87
-4047.15
-4068.52
-4090.86
-4115.3
-4142.69
-4173.31
-4207.09
-4243.85
-4283.34
-4325.23
-4368.97
-4413.6
-4457.59
-4498.58
-4533.35
-4557.8
-4567.54
-4558.28
-4526.43
-4469.46
-4384.52
-4272.81
-4131.86
-3961.86
-3773.35
-3577.98
-3383.99
-3196.01
-3015.9
-2843.6
-2678.01
-2517.56
-2360.61
-2205.66
-2051.51
-1897.48
-1743.66
-1591.12
-1441.56
-1296.5
-1156.79
-1022.58
-893.659
-769.789
-650.935
-537.169
-428.641
-324.937
-226.412
-131.147
-44.4177
-2933.52
-2949.97
-2962.66
-2972.63
-2980.19
-2985.7
-2990.06
-2994.36
-2999.18
-3004.28
-3008.99
-3012.75
-3015.4
-3017.12
-3018.06
-3018.33
-3018.4
-3018.7
-3019.46
-3021.22
-3024.61
-3030.14
-3039.05
-3051.82
-3071.37
-3102.56
-3150.65
-3215.07
-3290.61
-3371.17
-3450.01
-3521.37
-3581.62
-3629.61
-3667.79
-3701.08
-3732.11
-3761.7
-3790.62
-3818.88
-3846.27
-3872.48
-3896.99
-3919.48
-3940.51
-3961.27
-3982.57
-4004.27
-4025.85
-4047.12
-4068.44
-4090.7
-4115.17
-4142.72
-4173.6
-4207.69
-4244.8
-4284.65
-4326.93
-4371.09
-4416.23
-4460.82
-4502.53
-4538.09
-4563.37
-4573.91
-4565.38
-4534.27
-4478.08
-4393.69
-4282.83
-4141.9
-3970.27
-3779.57
-3582.15
-3386.61
-3197.69
-3017.17
-2844.84
-2679.48
-2519.45
-2363
-2208.54
-2054.75
-1900.8
-1746.71
-1593.69
-1443.64
-1298.25
-1158.37
-1024.07
-895.04
-771.005
-651.936
-537.97
-429.31
-325.502
-226.831
-131.313
-44.4119
-2933.63
-2950.01
-2962.69
-2972.69
-2980.25
-2985.74
-2990.07
-2994.35
-2999.18
-3004.3
-3009.02
-3012.79
-3015.43
-3017.14
-3018.07
-3018.32
-3018.38
-3018.65
-3019.37
-3021.06
-3024.37
-3029.78
-3038.53
-3050.98
-3070.2
-3101.14
-3149.51
-3214.66
-3290.94
-3372.13
-3451.39
-3522.91
-3583.05
-3630.63
-3668.33
-3701.25
-3732.08
-3761.58
-3790.5
-3818.78
-3846.22
-3872.52
-3897.1
-3919.57
-3940.44
-3961.07
-3982.4
-4004.18
-4025.84
-4047.12
-4068.37
-4090.55
-4115.06
-4142.82
-4174.05
-4208.57
-4246.13
-4286.45
-4329.21
-4373.93
-4419.72
-4465.12
-4507.78
-4544.42
-4570.81
-4582.45
-4574.91
-4544.8
-4489.62
-4405.98
-4296.11
-4155.11
-3981.37
-3787.78
-3587.64
-3390.07
-3199.96
-3018.9
-2846.52
-2681.44
-2521.92
-2366.12
-2212.32
-2059.02
-1905.17
-1750.73
-1597.06
-1446.39
-1300.6
-1160.52
-1026.11
-896.976
-772.738
-653.388
-539.167
-430.346
-326.417
-227.553
-131.702
-44.4617
-2933.81
-2950.04
-2962.72
-2972.75
-2980.31
-2985.78
-2990.09
-2994.35
-2999.18
-3004.32
-3009.06
-3012.83
-3015.47
-3017.16
-3018.08
-3018.3
-3018.33
-3018.58
-3019.25
-3020.86
-3024.07
-3029.33
-3037.89
-3049.98
-3068.82
-3099.44
-3148.18
-3214.19
-3291.36
-3373.3
-3453.03
-3524.75
-3584.75
-3631.83
-3668.97
-3701.47
-3732.04
-3761.44
-3790.33
-3818.64
-3846.15
-3872.55
-3897.24
-3919.69
-3940.38
-3960.84
-3982.19
-4004.09
-4025.85
-4047.16
-4068.34
-4090.43
-4115
-4143.05
-4174.73
-4209.77
-4247.87
-4288.74
-4332.09
-4377.48
-4424.09
-4470.49
-4514.36
-4552.4
-4580.2
-4593.22
-4586.9
-4558.05
-4504.13
-4421.39
-4312.62
-4171.45
-3995.14
-3797.97
-3594.46
-3394.42
-3202.85
-3021.15
-2848.68
-2683.91
-2524.99
-2369.97
-2216.98
-2064.3
-1910.59
-1755.68
-1601.19
-1449.76
-1303.51
-1163.22
-1028.74
-899.506
-775.032
-655.338
-540.809
-431.808
-327.751
-228.65
-132.379
-44.5874
-2934.01
-2950.04
-2962.74
-2972.81
-2980.37
-2985.82
-2990.11
-2994.35
-2999.18
-3004.35
-3009.11
-3012.89
-3015.52
-3017.18
-3018.08
-3018.28
-3018.28
-3018.5
-3019.1
-3020.63
-3023.72
-3028.79
-3037.14
-3048.81
-3067.24
-3097.51
-3146.69
-3213.7
-3291.87
-3374.66
-3454.94
-3526.87
-3586.7
-3633.17
-3669.71
-3701.74
-3731.99
-3761.26
-3790.13
-3818.46
-3846.05
-3872.58
-3897.39
-3919.85
-3940.33
-3960.58
-3981.96
-4004
-4025.9
-4047.25
-4068.36
-4090.36
-4115.02
-4143.44
-4175.67
-4211.33
-4250.04
-4291.53
-4335.56
-4381.73
-4429.32
-4476.96
-4522.34
-4562.09
-4591.63
-4606.29
-4601.39
-4574.04
-4521.56
-4439.87
-4332.28
-4190.82
-4011.52
-3810.11
-3602.59
-3399.65
-3206.4
-3023.96
-2851.37
-2686.92
-2528.66
-2374.52
-2222.51
-2070.59
-1917.04
-1761.52
-1606
-1453.68
-1306.93
-1166.46
-1031.95
-902.65
-777.915
-657.81
-542.926
-433.742
-329.562
-230.182
-133.394
-44.8104
-2934.15
-2950.02
-2962.75
-2972.86
-2980.43
-2985.87
-2990.13
-2994.35
-2999.2
-3004.39
-3009.17
-3012.96
-3015.56
-3017.2
-3018.07
-3018.24
-3018.21
-3018.39
-3018.93
-3020.36
-3023.31
-3028.18
-3036.28
-3047.51
-3065.5
-3095.38
-3145.06
-3213.2
-3292.47
-3376.21
-3457.08
-3529.26
-3588.88
-3634.64
-3670.54
-3702.06
-3731.93
-3761.05
-3789.88
-3818.23
-3845.91
-3872.6
-3897.56
-3920.04
-3940.28
-3960.3
-3981.71
-4003.92
-4025.99
-4047.4
-4068.44
-4090.36
-4115.16
-4144.04
-4176.91
-4213.24
-4252.63
-4294.81
-4339.6
-4386.71
-4435.48
-4484.62
-4531.8
-4573.6
-4605.18
-4621.73
-4618.42
-4592.8
-4541.96
-4461.5
-4355.17
-4213.31
-4030.59
-3824.24
-3612.04
-3405.76
-3210.65
-3027.37
-2854.6
-2690.46
-2532.9
-2379.78
-2228.91
-2077.92
-1924.54
-1768.23
-1611.45
-1458.09
-1310.8
-1170.18
-1035.72
-906.411
-781.397
-660.809
-545.529
-436.175
-331.89
-232.19
-134.784
-45.1465
-2934.26
-2949.99
-2962.75
-2972.9
-2980.48
-2985.9
-2990.14
-2994.36
-2999.22
-3004.44
-3009.25
-3013.03
-3015.61
-3017.21
-3018.05
-3018.18
-3018.11
-3018.26
-3018.73
-3020.04
-3022.85
-3027.49
-3035.31
-3046.07
-3063.61
-3093.06
-3143.34
-3212.71
-3293.17
-3377.92
-3459.44
-3531.88
-3591.27
-3636.23
-3671.44
-3702.42
-3731.87
-3760.81
-3789.58
-3817.95
-3845.74
-3872.6
-3897.74
-3920.26
-3940.24
-3959.99
-3981.45
-4003.85
-4026.11
-4047.63
-4068.62
-4090.45
-4115.45
-4144.88
-4178.45
-4215.52
-4255.63
-4298.58
-4344.26
-4392.46
-4442.63
-4493.52
-4542.82
-4586.99
-4620.88
-4639.52
-4637.91
-4614.29
-4565.25
-4486.22
-4381.39
-4239.1
-4052.59
-3840.55
-3622.89
-3412.83
-3215.63
-3031.4
-2858.37
-2694.49
-2537.66
-2385.68
-2236.19
-2086.36
-1933.17
-1775.82
-1617.48
-1462.94
-1315.08
-1174.34
-1040.01
-910.784
-785.468
-664.317
-548.615
-439.127
-334.767
-234.707
-136.579
-45.6141
-2934.33
-2949.93
-2962.73
-2972.93
-2980.52
-2985.94
-2990.16
-2994.37
-2999.24
-3004.5
-3009.33
-3013.12
-3015.67
-3017.22
-3018.02
-3018.11
-3018
-3018.12
-3018.5
-3019.7
-3022.33
-3026.73
-3034.25
-3044.51
-3061.58
-3090.57
-3141.54
-3212.23
-3293.94
-3379.78
-3461.98
-3534.71
-3593.82
-3637.92
-3672.4
-3702.82
-3731.81
-3760.53
-3789.23
-3817.61
-3845.53
-3872.57
-3897.93
-3920.51
-3940.22
-3959.67
-3981.16
-4003.79
-4026.29
-4047.94
-4068.89
-4090.67
-4115.93
-4145.97
-4180.31
-4218.16
-4259.06
-4302.88
-4349.58
-4399.04
-4450.8
-4503.68
-4555.35
-4602.16
-4638.56
-4659.41
-4659.5
-4638.12
-4591
-4513.6
-4410.64
-4268.16
-4077.71
-3859.26
-3635.35
-3421
-3221.48
-3036.14
-2862.7
-2698.97
-2542.85
-2392.11
-2244.29
-2095.94
-1943
-1784.33
-1624.09
-1468.2
-1319.73
-1178.89
-1044.82
-915.771
-790.114
-668.302
-552.166
-442.603
-338.207
-237.746
-138.799
-46.241
-2934.42
-2949.85
-2962.69
-2972.94
-2980.55
-2985.96
-2990.18
-2994.38
-2999.27
-3004.57
-3009.43
-3013.21
-3015.73
-3017.23
-3017.99
-3018.02
-3017.87
-3017.94
-3018.24
-3019.31
-3021.77
-3025.91
-3033.09
-3042.85
-3059.41
-3087.94
-3139.68
-3211.76
-3294.77
-3381.74
-3464.66
-3537.7
-3596.5
-3639.67
-3673.42
-3703.25
-3731.74
-3760.22
-3788.83
-3817.21
-3845.26
-3872.51
-3898.12
-3920.79
-3940.2
-3959.33
-3980.87
-4003.74
-4026.53
-4048.34
-4069.29
-4091.04
-4116.6
-4147.32
-4182.47
-4221.16
-4262.94
-4307.72
-4355.57
-4406.45
-4459.94
-4514.99
-4569.21
-4618.83
-4657.84
-4680.85
-4682.51
-4663.55
-4618.42
-4542.78
-4442.01
-4299.87
-4105.79
-3880.52
-3649.57
-3430.44
-3228.36
-3041.73
-2867.66
-2703.87
-2548.34
-2398.94
-2253.13
-2106.71
-1954.11
-1793.78
-1631.28
-1473.89
-1324.73
-1183.81
-1050.13
-921.379
-795.311
-672.724
-556.171
-446.62
-342.225
-241.314
-141.459
-47.053
-2934.47
-2949.75
-2962.63
-2972.94
-2980.56
-2985.98
-2990.19
-2994.39
-2999.31
-3004.65
-3009.54
-3013.31
-3015.79
-3017.23
-3017.94
-3017.92
-3017.71
-3017.75
-3017.96
-3018.88
-3021.16
-3025.01
-3031.84
-3041.08
-3057.12
-3085.2
-3137.8
-3211.3
-3295.62
-3383.76
-3467.41
-3540.76
-3599.22
-3641.42
-3674.43
-3703.67
-3731.65
-3759.87
-3788.36
-3816.74
-3844.93
-3872.41
-3898.31
-3921.1
-3940.2
-3959
-3980.58
-4003.72
-4026.83
-4048.86
-4069.83
-4091.56
-4117.46
-4148.91
-4184.94
-4224.54
-4267.27
-4313.13
-4362.23
-4414.6
-4469.93
-4527.23
-4584.1
-4636.64
-4678.25
-4703.29
-4706.26
-4689.85
-4646.58
-4572.72
-4473.95
-4332.86
-4136.14
-3904.15
-3665.64
-3441.34
-3236.5
-3048.34
-2873.36
-2709.22
-2554.06
-2405.98
-2262.57
-2118.62
-1966.53
-1804.16
-1639.03
-1480.01
-1330.09
-1189.06
-1055.96
-927.635
-801.03
-677.533
-560.615
-451.179
-346.809
-245.399
-144.615
-48.1842
-2934.47
-2949.62
-2962.56
-2972.91
-2980.57
-2986
-2990.2
-2994.4
-2999.36
-3004.74
-3009.66
-3013.42
-3015.85
-3017.23
-3017.88
-3017.8
-3017.54
-3017.53
-3017.64
-3018.42
-3020.49
-3024.06
-3030.51
-3039.23
-3054.71
-3082.36
-3135.88
-3210.82
-3296.44
-3385.76
-3470.14
-3543.82
-3601.92
-3643.1
-3675.4
-3704.05
-3731.51
-3759.47
-3787.82
-3816.19
-3844.53
-3872.26
-3898.48
-3921.43
-3940.22
-3958.67
-3980.3
-4003.73
-4027.21
-4049.5
-4070.51
-4092.21
-4118.5
-4150.75
-4187.72
-4228.29
-4272.06
-4319.06
-4369.46
-4423.37
-4480.57
-4540.18
-4599.8
-4655.36
-4699.61
-4726.48
-4730.45
-4716.71
-4675.05
-4602.79
-4504.99
-4365.37
-4167.56
-3929.61
-3683.43
-3453.81
-3246.09
-3056.2
-2879.96
-2715.08
-2559.92
-2413.05
-2272.43
-2131.67
-1980.26
-1815.41
-1647.32
-1486.59
-1335.78
-1194.63
-1062.34
-934.563
-807.22
-682.684
-565.551
-456.379
-352.026
-249.975
-148.176
-49.6143
-2934.41
-2949.47
-2962.46
-2972.87
-2980.56
-2986
-2990.2
-2994.42
-2999.41
-3004.84
-3009.79
-3013.54
-3015.92
-3017.22
-3017.81
-3017.66
-3017.34
-3017.28
-3017.3
-3017.93
-3019.79
-3023.05
-3029.09
-3037.3
-3052.18
-3079.46
-3133.96
-3210.3
-3297.2
-3387.71
-3472.82
-3546.85
-3604.54
-3644.63
-3676.26
-3704.33
-3731.29
-3758.99
-3787.19
-3815.55
-3844.06
-3872.04
-3898.64
-3921.81
-3940.26
-3958.36
-3980.05
-4003.79
-4027.68
-4050.26
-4071.31
-4092.98
-4119.7
-4152.83
-4190.81
-4232.42
-4277.26
-4325.43
-4377.15
-4432.63
-4491.75
-4553.78
-4616.3
-4675.07
-4722.05
-4750.57
-4755.22
-4744.3
-4703.97
-4633.09
-4534.38
-4395.95
-4198.63
-3956.03
-3702.62
-3467.89
-3257.33
-3065.5
-2887.64
-2721.55
-2565.93
-2420.01
-2282.59
-2145.8
-1995.26
-1827.43
-1656.11
-1493.67
-1341.8
-1200.52
-1069.37
-942.244
-813.816
-688.046
-570.869
-462.091
-357.776
-255.2
-152.784
-52.0757
-2934.32
-2949.3
-2962.35
-2972.81
-2980.53
-2986
-2990.2
-2994.43
-2999.47
-3004.96
-3009.94
-3013.68
-3015.99
-3017.22
-3017.73
-3017.51
-3017.12
-3017.02
-3016.93
-3017.4
-3019.04
-3021.98
-3027.6
-3035.3
-3049.56
-3076.53
-3132.02
-3209.72
-3297.86
-3389.58
-3475.45
-3549.86
-3607.1
-3646.02
-3676.98
-3704.49
-3730.96
-3758.42
-3786.48
-3814.83
-3843.51
-3871.75
-3898.76
-3922.22
-3940.34
-3958.07
-3979.85
-4003.92
-4028.23
-4051.13
-4072.23
-4093.85
-4121.06
-4155.16
-4194.2
-4236.86
-4282.79
-4332.14
-4385.22
-4442.31
-4503.45
-4568.04
-4633.69
-4695.98
-4745.83
-4775.74
-4780.71
-4772.84
-4733.69
-4664.07
-4562.23
-4423.98
-4228.22
-3982.4
-3722.69
-3483.47
-3270.33
-3076.42
-2896.53
-2728.75
-2572.06
-2426.71
-2292.92
-2160.99
-2011.47
-1840.11
-1665.42
-1501.25
-1347.98
-1206.58
-1077.06
-950.751
-820.974
-694.03
-577.269
-469.036
-364.131
-259.876
-156.394
-54.3136
-2934.22
-2949.1
-2962.21
-2972.73
-2980.5
-2985.98
-2990.19
-2994.44
-2999.54
-3005.1
-3010.11
-3013.82
-3016.08
-3017.21
-3017.64
-3017.34
-3016.88
-3016.73
-3016.53
-3016.83
-3018.24
-3020.85
-3026.02
-3033.24
-3046.86
-3073.58
-3130.07
-3209.07
-3298.43
-3391.4
-3478.05
-3552.86
-3609.63
-3647.27
-3677.53
-3704.53
-3730.51
-3757.74
-3785.66
-3814
-3842.86
-3871.36
-3898.84
-3922.67
-3940.44
-3957.84
-3979.74
-4004.09
-4028.86
-4052.1
-4073.24
-4094.84
-4122.62
-4157.73
-4197.83
-4241.54
-4288.58
-4339.16
-4393.65
-4452.43
-4515.69
-4583.03
-4652.12
-4718.26
-4771.12
-4802.07
-4806.93
-4802.28
-4764.45
-4695.97
-4589.12
-4449.62
-4255.65
-4007.71
-3743.03
-3500.39
-3285.16
-3089.09
-2906.78
-2736.76
-2578.38
-2433.08
-2303.42
-2177.37
-2028.87
-1853.26
-1675.31
-1509.67
-1354.65
-1213.17
-1085.64
-959.603
-827.307
-698.655
-582.326
-475.175
-371.087
-266.652
-162.315
-57.7049
-2934.07
-2948.87
-2962.05
-2972.63
-2980.45
-2985.96
-2990.18
-2994.45
-2999.62
-3005.25
-3010.29
-3013.98
-3016.16
-3017.2
-3017.54
-3017.16
-3016.62
-3016.42
-3016.11
-3016.24
-3017.4
-3019.68
-3024.37
-3031.12
-3044.1
-3070.62
-3128.12
-3208.34
-3298.92
-3393.18
-3480.63
-3555.88
-3612.13
-3648.41
-3677.93
-3704.46
-3729.95
-3756.92
-3784.71
-3813.07
-3842.11
-3870.86
-3898.86
-3923.15
-3940.59
-3957.72
-3979.69
-4004.29
-4029.5
-4053.13
-4074.34
-4095.98
-4124.42
-4160.53
-4201.65
-4246.42
-4294.63
-4346.53
-4402.53
-4463.1
-4528.6
-4598.86
-4671.65
-4742.03
-4797.99
-4829.43
-4833.69
-4832.26
-4796.15
-4728.32
-4615.58
-4473.46
-4280.7
-4031.14
-3763.03
-3518.38
-3301.78
-3103.59
-2918.48
-2745.62
-2584.69
-2438.76
-2313.95
-2194.86
-2047.57
-1867.04
-1685.4
-1517.57
-1360.13
-1218.81
-1094.54
-970.088
-835.087
-703.589
-586.441
-479.365
-376.124
-272.784
-169.206
-62.3391
-2933.88
-2948.62
-2961.87
-2972.52
-2980.39
-2985.93
-2990.16
-2994.46
-2999.71
-3005.42
-3010.5
-3014.15
-3016.25
-3017.18
-3017.42
-3016.96
-3016.34
-3016.09
-3015.66
-3015.61
-3016.52
-3018.45
-3022.66
-3028.94
-3041.3
-3067.66
-3126.17
-3207.54
-3299.34
-3394.93
-3483.17
-3558.88
-3614.59
-3649.43
-3678.11
-3704.25
-3729.27
-3755.97
-3783.64
-3812.03
-3841.25
-3870.22
-3898.78
-3923.6
-3940.81
-3957.76
-3979.69
-4004.46
-4030.07
-4054.14
-4075.51
-4097.35
-4126.44
-4163.5
-4205.64
-4251.52
-4300.99
-4354.31
-4411.92
-4474.4
-4542.29
-4615.67
-4692.45
-4767.41
-4826.38
-4857.47
-4860.6
-4862.07
-4828.31
-4759.46
-4641.55
-4495.99
-4303.32
-4052.13
-3782.23
-3537.26
-3320.18
-3119.95
-2931.71
-2755.69
-2591.62
-2444.26
-2325.45
-2214.1
-2067.05
-1881.26
-1696.71
-1526.52
-1365.05
-1222.12
-1100.49
-979.966
-846.229
-712.244
-591.7
-482.778
-379.823
-277.276
-174.061
-65.2758
-2933.65
-2948.35
-2961.67
-2972.4
-2980.32
-2985.89
-2990.13
-2994.48
-2999.81
-3005.62
-3010.72
-3014.33
-3016.34
-3017.16
-3017.29
-3016.73
-3016.03
-3015.73
-3015.18
-3014.95
-3015.6
-3017.18
-3020.88
-3026.72
-3038.48
-3064.68
-3124.22
-3206.66
-3299.69
-3396.64
-3485.63
-3561.81
-3616.96
-3650.37
-3678.05
-3703.87
-3728.46
-3754.87
-3782.42
-3810.86
-3840.26
-3869.44
-3898.58
-3923.98
-3941.11
-3957.99
-3979.69
-4004.54
-4030.47
-4055.06
-4076.75
-4098.97
-4128.64
-4166.6
-4209.79
-4256.85
-4307.63
-4362.42
-4421.72
-4486.25
-4556.76
-4633.58
-4714.71
-4794.54
-4855.98
-4885.44
-4886.62
-4889.66
-4859.84
-4786.27
-4665.88
-4517.3
-4323.42
-4070.19
-3800.1
-3556.64
-3340.18
-3138.31
-2946.3
-2765.61
-2596.61
-2446.34
-2334.98
-2235.87
-2090.26
-1897.94
-1710.46
-1538.75
-1373.67
-1227.64
-1106.23
-987.966
-856.143
-721.561
-598.601
-488.04
-384.792
-282.269
-178.601
-67.4436
-2933.39
-2948.06
-2961.45
-2972.25
-2980.24
-2985.83
-2990.09
-2994.49
-2999.94
-3005.84
-3010.97
-3014.53
-3016.44
-3017.13
-3017.14
-3016.48
-3015.69
-3015.34
-3014.68
-3014.25
-3014.65
-3015.86
-3019.04
-3024.44
-3035.64
-3061.69
-3122.26
-3205.71
-3299.97
-3398.25
-3487.95
-3564.62
-3619.2
-3651.24
-3677.73
-3703.27
-3727.49
-3753.61
-3781.05
-3809.57
-3839.15
-3868.49
-3898.21
-3924.23
-3941.49
-3958.38
-3979.67
-4004.51
-4030.71
-4055.83
-4078.04
-4100.74
-4130.9
-4169.74
-4214.06
-4262.4
-4314.58
-4370.92
-4432
-4498.65
-4571.91
-4652.48
-4738.44
-4823.36
-4886.13
-4912.17
-4909.66
-4912.11
-4889.34
-4807.06
-4686.96
-4536.95
-4340.94
-4085.57
-3816.88
-3576.61
-3361.63
-3158.47
-2963.23
-2777.95
-2603.36
-2446.26
-2337.24
-2249.04
-2115.19
-1919.35
-1727.63
-1552.17
-1383.46
-1235.99
-1115.37
-998.609
-867.598
-731.787
-606.304
-493.921
-390.341
-288.224
-183.616
-70.656
-2933.11
-2947.75
-2961.22
-2972.1
-2980.14
-2985.77
-2990.05
-2994.51
-3000.08
-3006.09
-3011.24
-3014.74
-3016.54
-3017.1
-3016.97
-3016.2
-3015.33
-3014.92
-3014.14
-3013.53
-3013.65
-3014.49
-3017.16
-3022.1
-3032.79
-3058.68
-3120.29
-3204.67
-3300.15
-3399.75
-3490.07
-3567.24
-3621.22
-3652.01
-3677.1
-3702.42
-3726.33
-3752.18
-3779.53
-3808.16
-3837.9
-3867.37
-3897.64
-3924.29
-3941.93
-3958.89
-3979.57
-4004.4
-4030.86
-4056.49
-4079.39
-4102.45
-4133.01
-4172.86
-4218.47
-4268.29
-4322.05
-4380.13
-4443.15
-4511.96
-4587.94
-4672.33
-4763.4
-4853.41
-4915.8
-4936.58
-4929.58
-4933.52
-4917.22
-4822.29
-4703.95
-4554.96
-4354.8
-4097.09
-3831.33
-3596.02
-3384.12
-3180.81
-2983.87
-2794.92
-2613.89
-2451.37
-2340.72
-2255.21
-2131.63
-1941.33
-1747.27
-1566.98
-1394.47
-1245.34
-1124.89
-1009.33
-879.237
-742.412
-614.933
-501.248
-397.007
-293.384
-186.015
-73.4513
-2932.79
-2947.41
-2960.97
-2971.93
-2980.04
-2985.7
-2990.01
-2994.53
-3000.25
-3006.37
-3011.53
-3014.96
-3016.66
-3017.07
-3016.79
-3015.89
-3014.95
-3014.47
-3013.58
-3012.77
-3012.62
-3013.09
-3015.22
-3019.71
-3029.92
-3055.66
-3118.3
-3203.54
-3300.22
-3401.07
-3491.91
-3569.58
-3622.94
-3652.71
-3676.15
-3701.3
-3724.96
-3750.58
-3777.85
-3806.63
-3836.52
-3866.08
-3896.84
-3924.13
-3942.4
-3959.42
-3979.35
-4004.2
-4030.96
-4056.99
-4080.42
-4103.58
-4134.99
-4176.37
-4223.53
-4274.89
-4330.28
-4390.13
-4455.17
-4526.45
-4605.39
-4693.5
-4789.54
-4883.93
-4943.95
-4958.56
-4950.35
-4962.03
-4951.05
-4838.89
-4715.93
-4569.03
-4364.72
-4105.73
-3844.2
-3614.64
-3407.21
-3206.13
-3008.43
-2815.92
-2628.52
-2460.66
-2348.47
-2263.46
-2145.88
-1961.23
-1767.07
-1582.47
-1406.56
-1255.77
-1134.7
-1019.8
-890.711
-753.347
-623.987
-508.092
-402.528
-298.182
-190.635
-76.9882
-2932.44
-2947.06
-2960.71
-2971.75
-2979.92
-2985.62
-2989.96
-2994.56
-3000.45
-3006.69
-3011.85
-3015.21
-3016.78
-3017.05
-3016.6
-3015.57
-3014.57
-3013.99
-3012.98
-3011.98
-3011.55
-3011.64
-3013.25
-3017.28
-3027.04
-3052.64
-3116.28
-3202.3
-3300.14
-3402.16
-3493.36
-3571.53
-3624.18
-3653.38
-3674.91
-3699.88
-3723.35
-3748.79
-3776.01
-3805
-3835.02
-3864.63
-3895.78
-3923.71
-3942.87
-3959.89
-3978.94
-4003.85
-4030.96
-4057.18
-4080.6
-4104.78
-4138
-4181.07
-4229.73
-4282.61
-4339.63
-4401.25
-4468.26
-4541.99
-4624.12
-4716.32
-4817.17
-4914.42
-4969.7
-4977.83
-4970.72
-4980.8
-4969.95
-4856.28
-4727.07
-4579.14
-4370.16
-4113.65
-3860.15
-3637.61
-3434.39
-3235.72
-3038.25
-2841.68
-2646.9
-2473.06
-2357.49
-2272.84
-2161.29
-1983.08
-1788.02
-1599.23
-1420.27
-1268.01
-1145.6
-1030.48
-902.091
-764.743
-634.656
-517.376
-409.552
-303.664
-197.857
-80.5197
-2932.07
-2946.69
-2960.43
-2971.56
-2979.8
-2985.53
-2989.9
-2994.59
-3000.68
-3007.04
-3012.21
-3015.48
-3016.92
-3017.03
-3016.4
-3015.23
-3014.17
-3013.49
-3012.36
-3011.17
-3010.45
-3010.17
-3011.23
-3014.81
-3024.17
-3049.66
-3114.22
-3200.94
-3299.88
-3402.96
-3494.33
-3572.98
-3624.7
-3653.86
-3673.46
-3698.17
-3721.48
-3746.81
-3774.03
-3803.27
-3833.41
-3863.03
-3894.46
-3922.93
-3943.25
-3960.14
-3978.32
-4003.26
-4031.1
-4057.6
-4081.04
-4107.9
-4142.94
-4187.14
-4237.2
-4291.63
-4350.38
-4413.87
-4482.94
-4558.97
-4644.05
-4740.37
-4846.05
-4944.43
-4992.47
-4995.3
-4990.72
-4997.09
-4977.12
-4864.69
-4737.17
-4586.34
-4375.38
-4123.91
-3880.1
-3665.76
-3467.33
-3270.49
-3072
-2871.09
-2669.62
-2490.21
-2368.58
-2282.08
-2175.05
-2005.1
-1810.36
-1618.24
-1436.42
-1282.25
-1157.43
-1041.41
-914.147
-778.347
-648.184
-528.583
-417.244
-309.069
-204.314
-83.672
-2931.69
-2946.31
-2960.14
-2971.37
-2979.66
-2985.43
-2989.83
-2994.65
-3000.96
-3007.43
-3012.58
-3015.76
-3017.07
-3017.02
-3016.21
-3014.88
-3013.76
-3012.96
-3011.71
-3010.32
-3009.33
-3008.67
-3009.18
-3012.32
-3021.28
-3046.73
-3112.12
-3199.45
-3299.4
-3403.38
-3494.72
-3573.96
-3624.42
-3653.84
-3671.9
-3696.18
-3719.36
-3744.64
-3771.91
-3801.48
-3831.72
-3861.34
-3892.89
-3921.7
-3943.41
-3960.01
-3977.77
-4003.56
-4032.12
-4058.07
-4082.22
-4111.97
-4149.03
-4194.49
-4245.96
-4301.99
-4362.53
-4427.99
-4499.22
-4577.69
-4665.67
-4765.72
-4875.51
-4973.49
-5013.91
-5013
-5011.41
-5013.75
-4985.36
-4877.26
-4750.85
-4593.93
-4381.37
-4135.84
-3901.76
-3695.39
-3501.75
-3306.91
-3107.79
-2903.78
-2697.82
-2513.82
-2383.97
-2291.73
-2185.61
-2023.94
-1832.75
-1639.95
-1456.78
-1300.9
-1172.35
-1053.42
-926.135
-791.783
-661.434
-539.682
-425.238
-314.784
-209.715
-86.4841
-2931.29
-2945.91
-2959.83
-2971.16
-2979.51
-2985.33
-2989.75
-2994.74
-3001.28
-3007.86
-3012.99
-3016.06
-3017.22
-3017.01
-3016.01
-3014.51
-3013.34
-3012.41
-3011.03
-3009.45
-3008.19
-3007.15
-3007.09
-3009.79
-3018.36
-3043.88
-3109.95
-3197.79
-3298.67
-3403.38
-3494.45
-3574.47
-3623.46
-3653.11
-3670.29
-3693.93
-3717
-3742.31
-3769.68
-3799.64
-3829.98
-3859.59
-3891.22
-3920.17
-3942.53
-3959.77
-3978.18
-4005.48
-4033.14
-4058.3
-4085.06
-4117.38
-4156.25
-4203.08
-4256.02
-4313.7
-4376.11
-4443.64
-4517.13
-4598.12
-4689.09
-4792.8
-4905.99
-5002.15
-5035.6
-5032.36
-5033.19
-5029.97
-4991.22
-4889.77
-4763.08
-4601.31
-4388.45
-4149.63
-3924.94
-3725.99
-3536.88
-3344.2
-3145.28
-2939.74
-2731.27
-2543.28
-2404.65
-2303.69
-2195.28
-2040.4
-1854.96
-1664.6
-1482.49
-1324.73
-1191.13
-1067.35
-938.535
-804.797
-674.148
-550.619
-433.529
-320.851
-214.49
-89.0808
-2930.87
-2945.49
-2959.52
-2970.95
-2979.36
-2985.23
-2989.67
-2994.87
-3001.65
-3008.32
-3013.41
-3016.37
-3017.38
-3016.99
-3015.81
-3014.12
-3012.9
-3011.84
-3010.33
-3008.56
-3007.03
-3005.62
-3004.99
-3007.21
-3015.4
-3041.12
-3107.69
-3195.97
-3297.64
-3402.88
-3493.43
-3574.39
-3621.98
-3651.52
-3668.67
-3691.5
-3714.42
-3739.83
-3767.38
-3797.8
-3828.21
-3857.7
-3889.28
-3918.45
-3941.16
-3959.78
-3979.88
-4007.78
-4034.88
-4060.43
-4089.14
-4123.74
-4164.52
-4212.85
-4267.33
-4326.74
-4391.1
-4460.79
-4536.64
-4620.24
-4714.25
-4821.55
-4937.68
-5031.23
-5058.14
-5053.19
-5054.56
-5046.48
-4994.99
-4900.49
-4773.35
-4608.74
-4397.51
-4166
-3950.15
-3758.03
-3573.23
-3382.77
-3184.54
-2978.46
-2768.62
-2577.04
-2429.86
-2318.77
-2205.93
-2055.95
-1876.8
-1690.59
-1510.64
-1350.89
-1212.12
-1082.96
-951.834
-817.888
-686.641
-561.462
-442.041
-327.11
-218.766
-91.5457
-2930.45
-2945.07
-2959.2
-2970.73
-2979.2
-2985.12
-2989.59
-2995.05
-3002.07
-3008.81
-3013.85
-3016.69
-3017.54
-3016.98
-3015.59
-3013.72
-3012.44
-3011.25
-3009.6
-3007.65
-3005.86
-3004.1
-3002.87
-3004.6
-3012.41
-3038.47
-3105.35
-3193.95
-3296.28
-3401.85
-3491.63
-3573.77
-3620.24
-3649.02
-3666.94
-3688.89
-3711.56
-3737.05
-3764.9
-3795.95
-3826.56
-3856.06
-3887.46
-3916.53
-3940.14
-3960.27
-3982
-4010.05
-4037.14
-4063.26
-4094.18
-4131.18
-4173.81
-4223.73
-4279.87
-4341.07
-4407.46
-4479.41
-4557.71
-4644
-4741.06
-4851.8
-4970.29
-5060.47
-5081.43
-5075.3
-5074.95
-5064.94
-4999.36
-4911.14
-4783.9
-4617.83
-4409.47
-4185.28
-3977.43
-3791.45
-3610.63
-3422.43
-3225.14
-3019.04
-2808.44
-2613.62
-2458.47
-2337.11
-2218.54
-2071.45
-1897.82
-1715.94
-1538.38
-1377.12
-1233.74
-1099.62
-965.926
-831.168
-699.033
-572.262
-450.717
-333.466
-222.723
-93.9473
-2930.03
-2944.64
-2958.87
-2970.5
-2979.04
-2985.01
-2989.53
-2995.28
-3002.53
-3009.32
-3014.3
-3017.01
-3017.71
-3016.97
-3015.36
-3013.31
-3011.95
-3010.64
-3008.84
-3006.72
-3004.67
-3002.58
-3000.77
-3001.97
-3009.37
-3035.94
-3102.89
-3191.73
-3294.57
-3400.23
-3489.08
-3573.5
-3619.02
-3645.75
-3664.82
-3685.96
-3708.36
-3733.92
-3762.11
-3793.77
-3824.56
-3854.04
-3885.37
-3914.77
-3939.32
-3960.91
-3984.04
-4012.54
-4040.16
-4066.93
-4100.21
-4139.79
-4184.03
-4235.66
-4293.58
-4356.65
-4425.16
-4499.46
-4580.29
-4669.32
-4769.39
-4883.33
-5003.59
-5089.84
-5105.5
-5098.34
-5094.67
-5084.59
-5008.13
-4922.94
-4795.89
-4629.54
-4424.74
-4207.48
-4006.7
-3826.05
-3648.78
-3462.8
-3266.56
-3060.74
-2849.7
-2651.95
-2489.55
-2358.58
-2233.8
-2087.91
-1918.59
-1740.5
-1565.13
-1402.69
-1255.4
-1116.98
-980.688
-844.705
-711.445
-583.084
-459.505
-339.917
-226.743
-96.3545
-2929.62
-2944.19
-2958.54
-2970.27
-2978.88
-2984.88
-2989.5
-2995.57
-3003.02
-3009.86
-3014.76
-3017.34
-3017.87
-3016.96
-3015.13
-3012.87
-3011.44
-3009.99
-3008.06
-3005.76
-3003.48
-3001.08
-2998.7
-2999.34
-3006.31
-3033.53
-3100.34
-3189.31
-3292.47
-3397.97
-3485.97
-3574.39
-3619.19
-3642.13
-3662.2
-3682.55
-3704.73
-3730.44
-3759.2
-3791.47
-3822.23
-3851.86
-3883.09
-3912.41
-3938.31
-3961.64
-3986.16
-4015.35
-4044.12
-4071.9
-4107.16
-4149.29
-4195.13
-4248.58
-4308.41
-4373.43
-4444.14
-4520.86
-4604.31
-4696.12
-4799.12
-4915.97
-5037.37
-5119.27
-5129.96
-5121.94
-5115.8
-5102.86
-5022.33
-4936.54
-4809.72
-4644.16
-4443.38
-4232.62
-4038.06
-3861.88
-3687.65
-3503.65
-3308.46
-3103.08
-2891.82
-2691.45
-2522.51
-2382.91
-2251.88
-2105.94
-1939.73
-1764.63
-1590.96
-1427.54
-1276.99
-1134.9
-996.044
-858.55
-723.967
-593.975
-468.372
-346.508
-231.187
-98.8197
-2929.22
-2943.74
-2958.2
-2970.03
-2978.74
-2984.74
-2989.51
-2995.91
-3003.55
-3010.41
-3015.23
-3017.68
-3018.04
-3016.95
-3014.89
-3012.42
-3010.9
-3009.32
-3007.25
-3004.79
-3002.28
-2999.58
-2996.66
-2996.72
-3003.25
-3031.25
-3097.68
-3186.67
-3289.99
-3395.02
-3482.4
-3574.98
-3620.01
-3638.02
-3658.94
-3678.6
-3700.69
-3726.67
-3756.16
-3789.12
-3819.95
-3850
-3881.23
-3910.6
-3937.64
-3962.54
-3988.51
-4018.65
-4049.08
-4078.59
-4114.95
-4159.53
-4207.39
-4262.47
-4324.31
-4391.34
-4464.32
-4543.56
-4629.69
-4724.29
-4830.12
-4949.54
-5071.48
-5148.67
-5154.44
-5146.08
-5140.17
-5119.47
-5039.74
-4952.23
-4825.76
-4661.79
-4465.38
-4260.76
-4071.67
-3899.11
-3727.28
-3544.9
-3350.68
-3145.85
-2934.55
-2731.93
-2557.16
-2409.84
-2272.71
-2125.68
-1961.51
-1788.61
-1616.16
-1451.9
-1298.62
-1153.33
-1011.96
-872.748
-736.662
-604.961
-477.301
-353.25
-236.133
-101.349
-2928.81
-2943.29
-2957.86
-2969.79
-2978.59
-2984.6
-2989.57
-2996.29
-3004.11
-3010.98
-3015.71
-3018.02
-3018.22
-3016.95
-3014.64
-3011.96
-3010.33
-3008.62
-3006.42
-3003.8
-3001.07
-2998.08
-2994.66
-2994.13
-3000.25
-3029.08
-3094.91
-3183.82
-3287.11
-3391.41
-3478.31
-3570.98
-3618.85
-3633.23
-3654.84
-3674.13
-3696.26
-3722.6
-3752.88
-3786.49
-3817.55
-3848.5
-3879.87
-3909.4
-3937.33
-3963.72
-3991.21
-4022.52
-4054.87
-4086.85
-4123.97
-4170.69
-4221
-4277.21
-4341.21
-4410.3
-4485.65
-4567.46
-4656.33
-4753.74
-4862.27
-4983.88
-5105.79
-5178.05
-5179.1
-5172.28
-5167.1
-5135.57
-5059.14
-4970.08
-4844.31
-4682.5
-4490.71
-4291.93
-4107.59
-3937.85
-3767.75
-3586.59
-3393.24
-3189.04
-2977.94
-2773.53
-2593.61
-2439.27
-2296.18
-2147.18
-1984.07
-1812.69
-1641.07
-1476.04
-1320.45
-1172.29
-1028.43
-887.323
-749.557
-616.044
-486.277
-360.121
-241.44
-103.913
-2928.45
-2942.84
-2957.52
-2969.55
-2978.46
-2984.46
-2989.69
-2996.72
-3004.7
-3011.56
-3016.19
-3018.37
-3018.41
-3016.95
-3014.4
-3011.5
-3009.73
-3007.89
-3005.55
-3002.79
-2999.84
-2996.6
-2992.73
-2991.59
-2997.35
-3027
-3092.03
-3180.75
-3283.83
-3387.15
-3473.79
-3563.38
-3614.98
-3627.38
-3649.88
-3669.11
-3691.43
-3718.25
-3749.37
-3783.53
-3814.94
-3846.84
-3878.52
-3908.42
-3937.27
-3965.16
-3994.28
-4026.91
-4061.29
-4096.22
-4134.82
-4182.69
-4235.69
-4292.71
-4359.01
-4430.25
-4508.02
-4592.5
-4684.17
-4784.37
-4895.46
-5018.87
-5140.2
-5207.64
-5204.74
-5201.72
-5194.86
-5152.15
-5080.22
-4990.21
-4865.54
-4706.34
-4519.3
-4326.02
-4145.77
-3978.18
-3809.18
-3628.85
-3436.27