/*--------------------------------*- C++ -*----------------------------------*\
| =========                 |                                                 |
| \\      /  F ield         | OpenFOAM: The Open Source CFD Toolbox           |
|  \\    /   O peration     | Version:  4.1                                   |
|   \\  /    A nd           | Web:      www.OpenFOAM.org                      |
|    \\/     M anipulation  |                                                 |
\*---------------------------------------------------------------------------*/
FoamFile
{
    version     2.0;
    format      ascii;
    class       surfaceScalarField;
    location    "1700";
    object      phi;
}
// * * * * * * * * * * * * * * * * * * * * * * * * * * * * * * * * * * * * * //

dimensions      [0 3 -1 0 0 0 0];

internalField   nonuniform List<scalar> 
52920
(
3424.58
-206.149
3566.44
-141.852
3654.28
-87.8363
3700.86
-46.5685
3721.19
-20.3156
3729.97
-8.76785
3742.02
-12.0432
3769.45
-27.4229
3817.07
-47.6058
3882.2
-65.1171
3958.3
-76.0876
4037.91
-79.601
4113.65
-75.7315
4177.83
-64.1654
4223.63
-45.793
4247.63
-23.9916
4246.21
1.43099
4217.8
28.4199
4169.18
48.6313
4111.01
58.1829
4054.28
56.7349
4015.56
38.7391
4004.38
11.1888
4047.83
-43.4363
4195.98
-148.136
4499.62
-303.632
4944.24
-444.617
5469.54
-525.286
6017.54
-547.995
6535.57
-518.024
6982.32
-446.743
7330.47
-348.136
7567.73
-237.262
7704.49
-136.749
7765.28
-60.7791
7755.15
10.1344
7682.13
73.0271
7572.25
109.889
7451.7
120.556
7341.02
110.694
7250.26
90.7693
7178.87
71.3967
7127.22
51.665
7106.6
20.6287
7126.11
-19.5066
7179.17
-53.0495
7251.49
-72.3022
7334.02
-82.5232
7428.99
-94.9622
7551.19
-122.191
7725.93
-174.726
7982.03
-256.097
8340.65
-358.61
8810.82
-470.169
9392.86
-582.032
10081.9
-689.063
10870
-788.031
11746.7
-876.714
12699.8
-953.096
13714.3
-1014.49
14771.2
-1056.95
15846.4
-1075.23
16910
-1063.52
17926.2
-1016.26
18856.8
-930.561
19662.6
-805.837
20308.6
-645.998
20765.7
-457.096
21008.9
-243.193
21037
-28.1476
20846.5
190.557
20453.4
393.051
19914.5
538.921
19298.8
615.759
18669.1
629.616
18070.6
598.571
17526.1
544.436
17039.8
486.291
16602
437.862
16194.6
407.404
15797
397.568
15391.6
405.434
14967.3
424.296
14520.6
446.715
14054
466.564
13574.4
479.618
13090.4
484.003
12609.9
480.43
12139
470.956
11681.9
457.111
11242.6
439.266
10825.3
417.258
10434.2
391.096
10072.6
361.619
9741.99
330.636
9441.35
300.638
9168.75
272.6
8921.71
247.048
8700.22
221.483
199.072
3392.63
-415.774
3540.74
-289.954
3635.41
-182.498
3688.26
-99.4152
3713.36
-45.401
3724.68
-20.0702
3736.66
-24.0129
3761.79
-52.5409
3805.88
-91.6824
3867.2
-126.428
3939.67
-148.55
4016.07
-155.983
4089.49
-149.141
4153.13
-127.793
4200.8
-93.4595
4228.42
-51.5982
4231.05
-1.18375
4206.3
53.1783
4160.6
94.3357
4104.62
114.177
4049.76
111.603
4012.31
76.2064
4003.34
20.1712
4049.58
-89.6615
4189.57
-288.115
4469.66
-583.717
4890.51
-865.455
5406.29
-1041.06
5960.54
-1102.24
6493.61
-1051.09
6956.87
-909.991
7319.05
-710.305
7566.92
-485.125
7711.86
-281.682
7774.94
-123.853
7759.17
25.9144
7676.58
155.618
7554.6
231.881
7419.59
255.575
7292.43
237.869
7183.91
199.294
7094.65
160.67
7024.96
121.368
6987
58.5993
6992.71
-25.2082
7036.06
-96.3888
7101.43
-137.664
7178.24
-159.322
7266.49
-183.204
7378.87
-234.558
7540.05
-335.895
7780.14
-496.188
8121.54
-700.005
8572.63
-921.255
9131.68
-1141.08
9792.29
-1349.67
10546.5
-1542.21
11385.4
-1715.6
12298.5
-1866.28
13272.8
-1988.74
14290.6
-2074.79
15329.1
-2113.66
16359.1
-2093.53
17346
-2003.16
18252.2
-1836.84
19039.7
-1593.32
19674.4
-1280.63
20127.3
-910.078
20374.3
-490.154
20413
-66.8454
20239.9
363.671
19873.1
759.874
19362.4
1049.59
18773.6
1204.55
18168.4
1234.87
17590.7
1176.19
17063.2
1071.95
16589.7
959.826
16160.9
866.675
15759.6
808.646
15366.1
791.067
14963.2
808.336
14540.3
847.231
14094.1
892.935
13627.4
933.203
13147.4
959.61
12662.9
968.522
12181.8
961.583
11709.6
943.119
11250.4
916.304
10807.8
881.924
10385.3
839.669
9986.93
789.509
9615.56
732.988
9272.62
673.581
8957.19
616.062
8667.21
562.578
8400.69
513.572
8155.65
466.523
417.402
3308.42
-633.854
3466.72
-448.254
3571.63
-287.399
3633.62
-161.392
3665.74
-77.511
3681.28
-35.5987
3694.49
-37.2112
3718.4
-76.4433
3759.85
-133.119
3817.93
-184.501
3886.92
-217.526
3959.75
-228.807
4029.97
-219.35
4091.55
-189.364
4138.98
-140.876
4167.99
-80.5957
4172.83
-6.01598
4150.37
75.6518
4106.72
137.993
4052.47
168.436
3999.21
164.868
3962.96
112.471
3955.93
27.2148
4002.88
-136.604
4130.46
-415.676
4388.38
-841.631
4797.54
-1274.6
5319.23
-1562.74
5886.46
-1669.47
6428.34
-1592.97
6893.03
-1374.68
7251.09
-1068.35
7492.28
-726.309
7630.84
-420.235
7685.07
-178.08
7656.17
54.8234
7559.55
252.249
7422.93
368.509
7272.35
406.158
7128.8
381.431
7003.43
324.668
6897.51
266.605
6811.16
207.729
6755.97
113.799
6747.5
-16.724
6781.62
-130.498
6840.36
-196.397
6911.22
-230.173
6991.95
-263.915
7093.49
-336.101
7240.48
-482.87
7463.7
-719.408
7784.65
-1020.94
8210.3
-1346.91
8740.15
-1670.92
9371.34
-1980.86
10098.8
-2269.71
10914.2
-2530.93
11805.3
-2757.37
12756.9
-2940.33
13750.4
-3068.29
14763.1
-3126.39
15767.6
-3098
16731.3
-2966.87
17619
-2724.59
18394.1
-2368.36
19023.1
-1909.71
19476
-1362.89
19726.7
-740.852
19771
-111.173
19603.4
531.24
19245.4
1117.91
18743.1
1551.85
18162.3
1785.39
17565.9
1831.21
16998.6
1743.51
16482.1
1588.5
16019.4
1422.52
15600.8
1285.22
15209
1200.49
14823.5
1176.54
14426.6
1205.26
14007
1266.78
13561.5
1338.49
13093.1
1401.58
12609.6
1443.07
12120.6
1457.59
11634
1448.14
11155.3
1421.79
10688.1
1383.5
10235.6
1334.46
9801.12
1274.16
9388.26
1202.36
9000.07
1121.18
8637.89
1035.76
8300.76
953.194
7986.23
877.11
7692.9
806.899
7417.29
742.132
660.722
3186.49
-861.287
3356.6
-618.358
3474.37
-405.153
3548.57
-235.582
3590.78
-119.707
3613.13
-57.9437
3629.21
-53.2717
3652.29
-99.5213
3690.5
-171.308
3744.36
-238.354
3809.04
-282.193
3877.86
-297.614
3944.76
-286.241
4004.44
-249.027
4051.98
-188.413
4082.91
-111.515
4090.36
-13.4527
4070.05
95.9792
4027.81
180.236
3974.38
221.882
3921.73
217.524
3885.97
148.253
3880.15
33.0376
3926.49
-182.93
4041.81
-530.976
4286.08
-1085.9
4696.53
-1685.04
5228.42
-2094.63
5801.21
-2242.25
6340.17
-2131.92
6797
-1831.51
7145.54
-1416.88
7377.41
-958.167
7508.47
-551.288
7552.49
-222.099
7508.77
98.5486
7396.68
364.349
7244.21
520.987
7077.78
572.602
6918.64
540.577
6777.88
465.435
6656.68
387.819
6554.99
309.436
6482.76
186.04
6459.7
6.34292
6485.24
-156.027
6538.5
-249.64
6605.07
-296.737
6680.81
-339.643
6775.03
-430.309
6911.06
-618.888
7118.95
-927.3
7421.09
-1323.07
7829.27
-1755.09
8349.21
-2190.84
8979.5
-2611.16
9710.04
-3000.23
10524.7
-3345.64
11406.4
-3639.04
12339.1
-3873.02
13307.5
-4036.68
14294.3
-4113.21
15277.8
-4081.45
16229.3
-3918.39
17115
-3610.31
17896.4
-3149.69
18537.1
-2550.49
19002.1
-1827.84
19262.2
-1000.94
19311
-159.993
19139.2
703.048
18771
1486.07
18250.9
2071.96
17648.1
2388.24
17030.8
2448.5
16446.4
2327.89
15916.9
2117.95
15444.8
1894.62
15019.9
1710.16
14624.4
1596.03
14237.4
1563.52
13840.3
1602.34
13421
1686.03
12975.4
1784.11
12506.2
1870.76
12021.3
1927.96
11530.4
1948.51
11041.3
1937.32
10558.4
1904.6
10084.8
1857.11
9623.15
1796.14
9176.64
1720.67
8749.1
1629.91
8343.98
1526.29
7962.85
1416.89
7604.67
1311.37
7266.55
1215.23
6947.74
1125.71
6643.61
1046.26
927.048
3032.99
-1088.63
3210.99
-796.356
3341.56
-535.714
3429.98
-323.998
3484.99
-174.696
3516.46
-89.4019
3536.79
-73.5982
3560.08
-122.798
3596.53
-207.743
3648.3
-290.119
3710.91
-344.792
3777.52
-364.208
3842.2
-350.908
3900.27
-307.091
3947.62
-235.755
3980.11
-143.988
3990.25
-23.5916
3972.56
113.686
3932.33
220.47
3880.18
274.046
3828.38
269.34
3793.19
183.454
3788.19
38.0451
3833.35
-228.077
3938.55
-636.165
4176.67
-1324
4594.34
-2102.71
5135.55
-2635.83
5711.3
-2818
6247.92
-2668.54
6700.38
-2283.96
7043.29
-1759.78
7268.63
-1183.51
7393.85
-676.501
7427.15
-255.383
7366.69
159.014
7236.89
494.157
7066.27
691.611
6882.53
756.354
6707.5
715.609
6551.84
621.111
6415.99
523.674
6299.27
426.176
6210.56
274.761
6173.55
43.3646
6191.44
-173.907
6240.7
-298.892
6304.78
-360.805
6377.06
-411.912
6463.75
-516.996
6586
-741.121
6776.69
-1117.98
7066.92
-1613.3
7477.03
-2165.2
8011.81
-2725.61
8658.4
-3257.75
9393.77
-3735.6
10196.1
-4147.93
11051
-4493.93
11950.8
-4772.89
12890
-4975.84
13858.8
-5082.02
14839
-5061.61
15800.3
-4879.74
16703.8
-4513.79
17503.8
-3949.68
18159.4
-3206.1
18630.9
-2299.33
18888.8
-1258.88
18928.2
-199.423
18737.9
893.414
18345.4
1878.56
17793
2624.35
17153.3
3027.91
16500.2
3101.6
15884.1
2944.06
15327
2674.98
14831
2390.63
14385.6
2155.53
13973.4
2008.3
13573.6
1963.27
13167.8
2008.11
12743.8
2110.05
12296.9
2231.01
11829.4
2338.31
11348.7
2408.64
10864
2433.23
10381.6
2419.69
9904.31
2381.91
9433.4
2328.01
8970.69
2258.84
8519.16
2172.19
8083.15
2065.93
7666.98
1942.46
7272.75
1811.12
6899.48
1684.64
6543.87
1570.84
6205.87
1463.71
5880.12
1372.02
1210.53
2853.58
-1317.56
3039.35
-982.121
3179.86
-676.215
3279.69
-423.81
3346.33
-241.324
3388.38
-131.443
3417.39
-102.595
3447.29
-152.689
3488.4
-248.842
3542.77
-344.475
3605.85
-407.855
3671.27
-429.613
3734.08
-413.712
3790.72
-363.712
3837.77
-282.8
3871.18
-177.382
3882.85
-35.2511
3866.35
130.196
3826.95
259.878
3775.35
325.659
3724.05
320.656
3689.29
218.225
3684.78
42.5651
3729.2
-272.485
3827.25
-734.194
4065.18
-1561.93
4494.98
-2532.49
5048.52
-3189.37
5630.87
-3400.34
6169.13
-3206.79
6620.16
-2734.98
6958.75
-2098.37
7177.72
-1402.47
7296.03
-794.8
7317.17
-276.514
7238.62
237.569
7088.81
643.978
6898.01
882.419
6695.89
958.482
6505.1
906.414
6335.56
790.658
6186.6
672.651
6056.21
556.573
5952.9
378.088
5903.68
92.5924
5915.27
-185.483
5961.72
-345.325
6023.59
-422.668
6090.77
-479.077
6165.56
-591.78
6269.48
-845.028
6445.7
-1294.2
6738.01
-1905.59
7166.56
-2593.74
7720.13
-3279.17
8368.09
-3905.71
9081.67
-4449.18
9846.42
-4912.68
10661.4
-5308.9
11531.3
-5642.8
12457.7
-5902.27
13432
-6056.25
14431
-6060.66
15416.5
-5865.27
16341.3
-5438.6
17153.5
-4761.88
17810.7
-3863.3
18271.3
-2759.93
18508
-1495.5
18518.5
-209.922
18290.5
1121.38
17857
2312.06
17260.1
3221.22
16577
3711.03
15886.7
3791.92
15240.6
3590.1
14659.2
3256.44
14142.1
2907.73
13677.7
2619.86
13248
2438.06
12831.9
2379.33
12411.4
2428.63
11975.4
2546.01
11520.8
2685.62
11051.1
2808.03
10574.7
2885.01
10100.5
2907.46
9632.57
2887.63
9170.5
2843.97
8712.9
2785.61
8259.68
2712.06
7813
2618.88
7377.73
2501.19
6959.44
2360.76
6560.86
2209.7
6181.07
2064.43
5816.55
1935.36
5467.97
1812.29
5129.53
1710.46
1503.57
2724.64
-1540.21
2908.11
-1165.59
3050.03
-818.125
3154.47
-528.242
3227.47
-314.301
3276.01
-179.977
3310.3
-136.874
3343.35
-185.729
3385.11
-290.591
3437.89
-397.24
3497.87
-467.828
3559.66
-491.395
3619.33
-473.363
3674.27
-418.641
3721.74
-330.266
3757.45
-213.078
3771.86
-49.6568
3756.78
145.291
3717.46
299.206
3665.28
377.856
3613.45
372.49
3578.39
253.295
3574.27
46.6984
3619.37
-317.57
3713.26
-828.069
3956.51
-1805.17
4403.86
-2979.84
4973.21
-3758.72
5563.53
-3990.65
6102.95
-3746.21
6551.24
-3183.27
6884.21
-2431.32
7096
-1614.26
7206.15
-904.945
7214.34
-284.696
7117.2
334.717
6945.28
815.899
6732.25
1095.46
6510.65
1180.08
6304.35
1112.72
6122.47
972.552
5962.69
832.437
5821.28
697.994
5705.88
493.5
5646.18
152.312
5652.66
-191.956
5696.71
-389.353
5755.49
-481.441
5815
-538.581
5874.51
-651.276
5960.3
-930.808
6130.82
-1464.72
6436.76
-2211.53
6882.87
-3039.85
7435.21
-3831.51
8055.42
-4525.91
8725.25
-5119.01
9447.8
-5635.23
10235.9
-6097
11099.9
-6506.76
12039.2
-6841.57
13038.1
-7055.19
14065.1
-7087.71
15074.3
-6874.39
16013.7
-6378.03
16829.4
-5577.61
17481
-4514.88
17925.1
-3204
18135.7
-1706.15
18110.5
-184.721
17830.2
1401.69
17331.3
2810.97
16662
3890.54
15912.2
4460.75
15172
4532.2
14493.9
4268.2
13893.5
3856.78
13365.5
3435.73
12894.4
3090.95
12458.8
2873.68
12034.6
2803.57
11601.7
2861.48
11150.1
2997.65
10679.6
3156.14
10198.1
3289.48
9718.39
3364.74
9250.93
3374.92
8798.02
3340.53
8355.45
3286.55
7918.04
3223.02
7482.54
3147.56
7049.32
3052.1
6623.64
2926.87
6212.31
2772.09
5818.61
2603.4
5441.47
2441.57
5077.23
2299.6
4727.32
2162.2
4385.58
2052.2
1798.22
2604.62
-1752.67
2782.44
-1343.4
2923.16
-958.833
3030.2
-635.275
3108.06
-392.147
3161.94
-233.844
3200.07
-174.986
3234.09
-219.744
3274.18
-330.664
3323.91
-446.959
3380.53
-524.438
3439.1
-549.952
3495.98
-530.224
3549.15
-471.805
3596.8
-377.902
3635.31
-251.579
3654.21
-68.5441
3642.63
156.889
3604.83
337.016
3552.61
430.087
3500.28
424.837
3464.89
288.7
3462.01
49.5898
3509.53
-365.075
3601.25
-919.777
3854.29
-2058.2
4322.89
-3448.44
4907.71
-4343.53
5502.59
-4585.52
6039.23
-4282.85
6482.17
-3626.21
6808.56
-2757.71
7013.77
-1819.45
7117
-1008.17
7113.25
-280.936
6997.69
450.287
6802.01
1011.59
6564.14
1333.34
6320.97
1423.27
6098.46
1335.24
5905.12
1165.91
5736.52
1001.05
5586.46
848.069
5461.11
618.864
5391.92
221.514
5393.64
-193.657
5435.12
-430.814
5490.21
-536.524
5541.43
-589.787
5586.5
-696.34
5659.94
-1004.23
5834.16
-1638.93
6154.21
-2531.57
6600.68
-3486.32
7126.66
-4357.49
7703.83
-5103.07
8333.81
-5748.99
9034.11
-6335.53
9821.22
-6884.1
10700.7
-7386.21
11663.5
-7804.42
12685.9
-8077.53
13730.4
-8132.21
14748
-7892
15687.2
-7317.21
16495.7
-6386.16
17138.4
-5157.55
17570.2
-3635.84
17766.2
-1902.12
17720.3
-138.803
17397
1724.97
16825.8
3382.19
16059.3
4656.99
15210.3
5309.74
14391.8
5350.77
13663.7
4996.3
13037.3
4483.12
12500.4
3972.64
12031.8
3559.59
11604.4
3301.02
11187.6
3220.44
10754.8
3294.24
10293.2
3459.27
9804.69
3644.64
9303.68
3790.49
8810.93
3857.49
8342.01
3843.84
7898.93
3783.61
7474.2
3711.27
7058.7
3638.53
6644.96
3561.3
6230.56
3466.5
5821.02
3336.4
5424.33
3168.77
5043.8
2983.93
4677.76
2807.6
4322.51
2654.85
3980.31
2504.4
3644.52
2387.99
2086.55
2491.71
-1950.32
2659.42
-1511.1
2795.81
-1095.21
2903.41
-742.873
2984.74
-473.463
3042.51
-291.601
3082.64
-215.107
3116.34
-253.43
3155.19
-369.504
3203.93
-495.687
3259.71
-580.205
3317.18
-607.409
3372.62
-585.659
3424.36
-523.532
3471.31
-424.836
3511.03
-291.288
3533.28
-90.7915
3525.25
164.933
3489.92
372.358
3438.83
481.188
3386.99
476.684
3352.27
323.436
3352.31
49.5624
3403.55
-416.304
3493.9
-1010.11
3759.67
-2323.97
4249.77
-3938.53
4845.06
-4938.82
5437.63
-5178.08
5966.03
-4811.24
6400.87
-4061.05
6720.42
-3077.25
6920.95
-2019.98
7020.67
-1107.88
7008.58
-268.838
6877.05
581.824
6657.61
1231.04
6392.88
1598.08
6125.59
1690.56
5885.29
1575.55
5680.33
1370.87
5503.95
1177.45
5346.81
1005.21
5212.89
752.793
5134.11
300.315
5130.36
-189.894
5169.18
-469.616
5221.55
-588.885
5267.14
-635.367
5303.37
-732.561
5372.82
-1073.68
5554.04
-1820.15
5876.9
-2854.42
6304.33
-3913.74
6793.8
-4846.95
7335.71
-5644.97
7946.06
-6359.34
8644.84
-7034.3
9442.18
-7681.44
10334.3
-8278.33
11304.1
-8774.21
12322.6
-9096.07
13351.5
-9161.09
14343.7
-8884.2
15252.7
-8226.21
16031.9
-7165.38
16655.6
-5781.26
17078.6
-4058.76
17277.4
-2101
17244.4
-105.822
16922.4
2046.98
16315.7
3988.95
15463.7
5508.99
14503.6
6269.78
13584.4
6270.03
12783.7
5796.99
12113.6
5153.2
11556.9
4529.37
11087.9
4028.61
10674.8
3714.05
10278.9
3616.31
9863.17
3710.01
9405.77
3916.67
8906.36
4144.05
8385.4
4311.44
7874.54
4368.36
7397.41
4320.97
6957.79
4223.23
6546.47
4122.59
6151.17
4033.83
5759.6
3952.87
5366
3860.1
4976.6
3725.8
4600.57
3544.81
4240.26
3344.24
3892.82
3155.05
3554.55
2993.12
3228.66
2830.29
2907.87
2708.78
2360.75
2380.51
-2125.81
2534.48
-1665.07
2663.87
-1224.59
2769.43
-848.428
2851.88
-555.891
2912.08
-351.79
2954.86
-257.872
2991.44
-289.994
3033.27
-411.328
3084.24
-546.643
3140.99
-636.938
3198.48
-664.882
3253.54
-640.706
3304.82
-574.798
3351.38
-471.389
3391.28
-331.175
3414.81
-114.308
3408.45
171.314
3374.91
405.907
3325.46
530.646
3275.26
526.895
3242.63
356.083
3247.35
44.8577
3302.8
-471.74
3391.88
-1099.18
3671.61
-2603.68
4179.31
-4446.23
4775.63
-5535.13
5356.04
-5758.49
5869.01
-5324.2
6291.86
-4483.89
6603.63
-3389.01
6801.61
-2217.97
6903.44
-1209.7
6890.14
-255.524
6748.74
723.235
6508.98
1470.81
6217.64
1889.42
5924.67
1983.54
5665.07
1835.16
5447.91
1588.04
5264.05
1361.32
5100.71
1168.57
4959.3
894.219
4870.12
389.52
4859.61
-179.368
4896.69
-506.679
4949.87
-642.054
4996.34
-681.824
5032.48
-768.695
5103.57
-1144.76
5286.34
-2002.91
5598.09
-3166.16
5998.4
-4314.05
6457.33
-5305.87
6978.43
-6166.08
7580.67
-6961.58
8277.75
-7731.38
9069.96
-8473.65
9944.54
-9152.91
10879.1
-9708.72
11844.6
-10061.6
12808.3
-10124.7
13730.6
-9806.52
14573.2
-9068.88
15296
-7888.13
15884.8
-6370.1
16293.4
-4467.34
16505
-2312.59
16520
-120.809
16264.4
2302.6
15700.5
4552.84
14820
6389.42
13774.8
7314.99
12758
7286.88
11875.4
6679.57
11146.8
5881.74
10554.6
5121.66
10072.2
4510.92
9667.72
4118.57
9297.18
3986.85
8911.71
4095.48
8474.99
4353.39
7977.57
4641.46
7443.34
4845.68
6916.06
4895.63
6429.17
4807.85
5989.46
4662.94
5588
4524.06
5210.77
4411.06
4840.27
4323.37
4467.31
4233.06
4100.35
4092.76
3749.93
3895.23
3416
3678.17
3093.71
3477.34
2779.78
3307.04
2478.61
3131.47
2182.22
3005.16
2613.42
2275.93
-2290.34
2421.59
-1810.72
2543.93
-1346.92
2644.65
-949.141
2724.85
-636.068
2785.73
-412.667
2831.84
-303.961
2872.37
-330.518
2916.55
-455.499
2968.08
-598.164
3024.81
-693.655
3082.45
-722.513
3137.92
-696.162
3189.82
-626.684
3237.11
-518.666
3277.68
-371.739
3301.71
-138.324
3295.26
177.773
3262.08
439.099
3213.98
578.752
3166.12
574.769
3136.75
385.464
3147.35
34.2689
3206.78
-531.151
3294.77
-1187.15
3587.54
-2896.45
4103.79
-4962.48
4686.86
-6118.2
5242.47
-6314.1
5731.48
-5813.2
6137.5
-4889.91
6439.24
-3690.74
6635.21
-2413.94
6744.85
-1319.33
6740.41
-251.075
6600.39
863.262
6349.08
1722.12
6035.25
2203.26
5717.34
2301.46
5438.04
2114.46
5208.44
1817.65
5017.46
1552.31
4848.31
1337.73
4699.75
1042.8
4599.75
489.53
4582.68
-162.277
4621.54
-545.528
4682.9
-703.404
4739.98
-738.89
4783.71
-812.409
4855.26
-1216.3
5029.98
-2177.63
5322.47
-3458.64
5696.13
-4687.7
6130.39
-5740.13
6633.26
-6668.95
7219.14
-7547.46
7891.47
-8403.71
8640
-9222.18
9446
-9958.91
10289
-10551.8
11150.2
-10922.9
12009.9
-10984.3
12838
-10634.6
13599.9
-9830.74
14254.1
-8542.41
14795.2
-6911.18
15169.7
-4841.82
15375.6
-2518.49
15437.2
-182.4
15293.4
2446.4
14865
4981.24
14044.8
7209.64
12973.5
8386.24
11890.8
8369.61
10938.6
7631.72
10150.7
6669.66
9513.29
5759.09
9003.63
5020.58
8594.52
4527.69
8243.57
4337.79
7893.47
4445.58
7489.85
4757.01
7007.11
5124.2
6469.05
5383.74
5931.9
5432.78
5438.96
5300.79
5000
5101.9
4608.13
4915.92
4248.99
4770.2
3898.82
4673.53
3545.59
4586.28
3203.19
4435.17
2883.93
4214.49
2582.85
3979.25
2291.98
3768.2
2009.1
3589.92
1740.23
3400.34
1478.14
3267.25
2836.93
2197.27
-2442.79
2332.57
-1946.01
2446.98
-1461.32
2542.56
-1044.71
2620.06
-713.554
2679.88
-472.48
2724.7
-348.76
2762.19
-367.991
2802.83
-496.129
2853.04
-648.365
2911.27
-751.862
2971.58
-782.811
3029.25
-753.817
3082.4
-679.819
3130.28
-566.541
3171.17
-412.611
3195.11
-162.249
3187.43
185.463
3153.29
473.248
3105.85
626.204
3060.47
620.164
3034.94
411.011
3051.89
17.3355
3114.83
-594.072
3202.15
-1274.46
3503.29
-3197.58
4012.62
-5471.81
4564.86
-6670.42
5084.08
-6833.31
5543.89
-6273.01
5930.98
-5277
6220.46
-3980.21
6411.46
-2604.93
6529.33
-1437.19
6540.96
-262.7
6416.14
988.094
6167.47
1970.79
5840.14
2530.6
5501.13
2640.48
5203.52
2412.07
4962.22
2058.97
4765.16
1749.39
4590.74
1512.16
4432.85
1200.7
4322.9
599.499
4305.24
-144.601
4354.34
-594.603
4435.5
-784.557
4512.47
-815.839
4565.22
-865.152
4630.1
-1281.17
4787.42
-2334.95
5054.56
-3725.78
5398.78
-5031.92
5804.42
-6145.76
6277.16
-7141.68
6820.72
-8091.02
7426.02
-9009.01
8076.96
-9873.12
8761.09
-10643
9475.03
-11265.7
10219.6
-11667.4
10987.2
-11751.9
11747
-11394.5
12454.3
-10538
13055.1
-9143.24
13546.9
-7402.95
13857.8
-5152.72
14005.8
-2666.5
14043.4
-220.023
13982
2507.86
13742.4
5220.8
13069.1
7882.91
12046.3
9409.07
10949
9466.94
9958.05
8622.65
9125.25
7502.46
8444.5
6439.84
7899.97
5565.1
7473.57
4954.1
7131.2
4680.16
6814.01
4762.77
6449.3
5121.73
5989.18
5584.32
5454.79
5918.12
4915.52
5972.05
4423.26
5793.05
3989.64
5535.52
3611.52
5294.04
3274.44
5107.28
2945.61
5002.37
2611.24
4920.65
2296.49
4749.92
2016.27
4494.71
1756.28
4239.24
1503.54
4020.93
1258.24
3835.22
1029.43
3629.15
811.663
3485.02
3029.43
2120.12
-2580.65
2243.29
-2069.17
2349.01
-1567.04
2439.29
-1134.98
2514.06
-788.305
2571.98
-530.389
2613.57
-390.33
2646.94
-401.355
2686.32
-535.495
2740.27
-702.305
2805.17
-816.747
2871.82
-849.458
2933.69
-815.674
2988.63
-734.743
3036.35
-614.253
3075.8
-452.051
3097.66
-184.096
3086.99
196.146
3050.53
509.716
3002.93
673.82
2959.78
663.326
2938.06
432.734
2961.22
-5.80633
3027.34
-660.174
3113.56
-1360.67
3412.52
-3496.54
3894.92
-5954.21
4402.19
-7177.69
4882.67
-7313.79
5317.96
-6708.3
5690.96
-5650
5968.35
-4257.6
6148.62
-2785.19
6266.09
-1554.65
6288.43
-285.038
6185.39
1091.14
5953.95
2202.24
5625.68
2858.87
5272.6
2993.57
4960.19
2724.49
4709.38
2309.79
4508.34
1950.43
4330.1
1690.41
4161.11
1369.7
4043.45
717.183
4037.14
-138.278
4111.51
-668.953
4224.81
-897.838
4324.25
-915.264
4379.69
-920.585
4426.89
-1328.36
4554.58
-2462.63
4785.9
-3957.09
5092.62
-5338.64
5457.52
-6510.66
5874.4
-7558.56
6332.56
-8549.19
6818.68
-9495.12
7329.83
-10384.3
7879.13
-11192.3
8487.47
-11874
9166.74
-12346.7
9904.12
-12489.3
10652.8
-12143.2
11348.6
-11233.8
11922.4
-9717.1
12375
-7855.47
12601.9
-5379.64
12640
-2704.67
12541.9
-121.921
12445
2604.77
12356.3
5309.52
11870.2
8369.01
10959.3
10319.9
9903.56
10522.7
8914.42
9611.79
8061.67
8355.21
7349.36
7152.15
6771.24
6143.23
6320.79
5404.54
5977.23
5023.73
5687.93
5052.07
5362.91
5446.74
4926.85
6020.38
4398.49
6446.49
3862.82
6507.72
3378.28
6277.59
2956.83
5956.97
2601.42
5649.46
2295.96
5412.74
1991.94
5306.39
1675.32
5237.27
1393.72
5031.52
1167.04
4721.39
962.293
4443.99
754.865
4228.36
546.988
4043.1
354.96
3821.18
186.288
3653.69
3189.59
2044.45
-2701.69
2153.69
-2178.4
2249.54
-1662.88
2333.45
-1218.88
2404.26
-859.1
2459.04
-585.152
2497.3
-428.572
2529.26
-433.309
2572.4
-578.617
2634.76
-764.651
2708.95
-890.925
2783.01
-923.498
2849.76
-882.417
2907.37
-792.33
2955.56
-662.438
2993.09
-489.568
3011.25
-202.232
2995.69
211.718
2955.61
549.805
2907.17
722.278
2865.89
704.61
2847.62
451.022
2876.35
-34.5199
2945.49
-729.295
3027.72
-1442.89
3308.45
-3777.26
3746.6
-6392.34
4207.56
-7638.65
4661.25
-7767.47
5086.48
-7133.53
5455.23
-6018.75
5722.93
-4525.28
5887.99
-2950.25
5992.18
-1658.82
6004.48
-297.336
5912.36
1183.28
5703.87
2410.73
5386.48
3176.26
5028.43
3351.63
4706.82
3046.12
4450.39
2566.23
4248.85
2151.99
4068.93
1870.34
3890.05
1548.6
3769.29
837.968
3790.57
-159.541
3907.92
-786.279
4057.99
-1047.89
4172.8
-1030.06
4219.32
-967.103
4232.73
-1341.76
4313.78
-2543.67
4499.01
-4142.31
4758.75
-5598.38
5059.54
-6811.44
5378.28
-7877.3
5703.43
-8874.33
6043.63
-9835.33
6429.71
-10770.3
6898.94
-11661.6
7475.06
-12450.1
8156.92
-13028.6
8914.45
-13246.8
9685.33
-12914.1
10390.6
-11939
10953.4
-10280
11383.7
-8285.78
11532.4
-5528.26
11447.4
-2619.71
11132.6
192.876
10863.7
2873.72
10804.7
5368.48
10475.8
8697.91
9707.2
11088.5
8739.71
11490.2
7793.45
10558
6949.44
9199.22
6222.34
7879.24
5618.31
6747.26
5144.42
5878.42
4795.99
5372.16
4533.28
5314.77
4248.18
5731.84
3831.85
6436.71
3304.5
6973.84
2773.24
7038.98
2301.93
6748.9
1901.86
6357.03
1585.32
5966
1329.4
5668.65
1056.09
5579.7
751.708
5541.65
507.51
5275.71
355.278
4873.62
223.434
4575.84
62.3078
4389.49
-105.44
4210.84
-223.161
3938.9
-299.034
3729.56
3328.13
1969.2
-2803.86
2065.93
-2275.12
2152.76
-1749.7
2229.73
-1295.84
2295.25
-924.602
2346.17
-636.065
2382.4
-464.78
2415.8
-466.705
2464.92
-627.72
2535.77
-835.497
2617.71
-972.85
2697.49
-1003.27
2768.58
-953.491
2829.9
-853.637
2880.85
-713.377
2918.65
-527.363
2934.09
-217.653
2913.36
232.452
2869.19
593.982
2819.68
771.799
2780.04
744.26
2764.56
466.515
2797.89
-67.8303
2870.07
-801.457
2942.46
-1515.27
3188.22
-4023.01
3576.64
-6780.76
4005.31
-8067.32
4451.7
-8213.86
4880.58
-7562.4
5251.21
-6389.38
5509.97
-4784.03
5659.5
-3099.78
5744.28
-1743.59
5722.93
-275.974
5615.56
1290.66
5420.98
2605.32
5120.47
3476.78
4766.61
3705.49
4443.15
3369.58
4186.75
2822.65
3989.26
2349.48
3810.14
2049.47
3625.16
1733.59
3509.44
953.714
3571.82
-221.903
3737.72
-952.162
3914.36
-1224.52
4032.25
-1147.94
4056.4
-991.245
4017.08
-1302.42
4041.1
-2567.68
4178.14
-4279.34
4373.64
-5793.88
4569.77
-7007.57
4747.29
-8054.82
4927.82
-9054.86
5160.75
-10068.3
5495.33
-11104.9
5957.29
-12123.5
6547.4
-13040.3
7249.98
-13731.1
8030.9
-14027.8
8823.48
-13706.6
9536.43
-12652
10090.4
-10834
10513.8
-8709.18
10611.8
-5626.23
10424.6
-2432.55
9874.4
743.115
9361.41
3386.71
9195.24
5534.65
8941.19
8951.96
8307.45
11722.3
7457.8
12339.9
6589.47
11426.4
5781.08
10007.6
5055.93
8604.38
4435.77
7367.42
3944.32
6369.87
3595.99
5720.49
3369.46
5541.3
3130.22
5971.08
2725.31
6841.62
2185.41
7513.74
1651.25
7573.14
1191.88
7208.27
821.146
6727.76
567.681
6219.47
387.014
5849.32
148.264
5818.45
-147.228
5837.14
-330.206
5458.69
-339.217
4882.63
-286.701
4523.32
-370.724
4473.51
-815.154
4655.27
-1662.27
4786.02
-2600.37
4667.66
3958.86
1899.01
-2898.91
1988.98
-2365.09
2068.67
-1829.38
2139.13
-1366.29
2199.17
-984.625
2245.57
-682.443
2278.18
-497.369
2310.44
-498.957
2362.29
-679.558
2437.9
-911.086
2523.73
-1058.66
2606.19
-1085.72
2680.17
-1027.46
2745.9
-919.357
2802.52
-769.981
2844.9
-569.729
2861.68
-234.412
2838.01
256.134
2790.59
641.416
2740.27
822.129
2702.08
782.463
2688.4
480.212
2725.19
-104.601
2800.5
-876.748
2856.17
-1570.92
3056.79
-4223.63
3404.39
-7128.36
3820.35
-8483.27
4272.01
-8665.52
4706.5
-7996.88
5075.56
-6758.43
5321.69
-5030.15
5457.3
-3235.38
5527
-1813.28
5461.96
-210.927
5314.41
1438.21
5114.82
2804.92
4829.55
3762.05
4487.27
4047.77
4170.37
3686.49
3921.16
3071.87
3732.7
2537.95
3557.52
2224.66
3376.58
1914.55
3272.22
1058.1
3361.01
-310.664
3548.69
-1139.82
3727.85
-1403.67
3839.88
-1259.95
3833.96
-985.312
3739.08
-1207.53
3719.91
-2548.51
3808.2
-4367.62
3903.52
-5889.19
3953.76
-7057.8
3989.25
-8090.31
4080.73
-9146.33
4286.57
-10274.1
4626.5
-11444.8
5095.34
-12592.4
5686.61
-13631.5
6394.32
-14438.9
7191.24
-14824.7
8001.57
-14517
8709.85
-13360.2
9236.69
-11360.8
9645.2
-9117.69
9715.01
-5696.04
9449.54
-2167.09
8692.94
1499.71
7955.5
4124.15
7593.4
5896.75
7319.37
9225.99
6788.4
12253.2
6069.81
13058.5
5305.71
12190.5
4554.21
10759.1
3843.28
9315.31
3214.63
7996.08
2715.1
6869.39
2382.61
6052.99
2219.37
5704.54
2042.26
6148.19
1633.69
7250.19
1052.88
8094.55
501.821
8124.2
68.0745
7642.02
-231.911
7027.75
-355.308
6342.86
-401.458
5895.47
-700.031
6117.02
-1394.91
6532.02
-2193
6256.78
-2802.24
5491.87
-3168.93
4890.01
-3387.73
4692.3
-3756.28
5023.83
-4471.96
5501.69
-5480.65
5676.36
4860.5
1839.96
-2983.42
1920.04
-2445.16
1991.49
-1900.82
2055.64
-1430.44
2110.68
-1039.65
2151.85
-723.599
2178.46
-523.961
2206.95
-527.442
2259.3
-731.888
2336.76
-988.536
2422.81
-1144.71
2504.41
-1167.3
2578.72
-1101.76
2648.13
-988.755
2712.39
-834.229
2764.22
-621.556
2788.68
-258.854
2766.78
278.046
2718.35
689.852
2667.85
872.644
2630.82
819.499
2617.63
493.412
2656.87
-143.826
2735.24
-955.096
2769.71
-1605.38
2925.61
-4379.52
3247.81
-7450.55
3662.38
-8897.83
4117.7
-9120.85
4548.69
-8427.86
4906.32
-7116.06
5133.22
-5257.06
5254.4
-3356.54
5315.68
-1874.56
5212.38
-107.619
5015.79
1634.81
4794.56
3026.17
4518.3
4038.31
4192.65
4373.43
3891.11
3988.04
3657.16
3305.84
3482.36
2712.76
3317.01
2390.03
3157.31
2074.27
3053.84
1161.59
3107.08
-363.885
3255.63
-1288.35
3405.13
-1553.16
3507.39
-1362.2
3483.98
-961.896
3373.44
-1096.97
3346.32
-2521.39
3365.91
-4387.2
3318.08
-5841.36
3224.94
-6964.66
3184.14
-8049.51
3266.42
-9228.6
3481.47
-10489.2
3813.2
-11776.6
4260.16
-13039.3
4837.64
-14209
5552.24
-15153.5
6370.69
-15643.1
7191.65
-15337.9
7859.81
-14028.4
8305.19
-11806.2
8645.45
-9457.95
8672.01
-5722.61
8325.34
-1820.41
7426.26
2398.79
6570.15
4980.26
6007.17
6459.73
5644.41
9588.75
5178.3
12719.3
4593.62
13643.1
3951.38
12832.7
3270.64
11439.8
2579.22
10006.7
1941.6
8633.7
1436.06
7374.94
1147.68
6341.37
1118.27
5733.94
1039.36
6227.1
590.822
7698.73
-99.1321
8784.5
-775.883
8800.95
-1463.3
8329.44
-2154.9
7719.35
-2563.74
6751.7
-2572.98
5904.71
-2717.65
6261.69
-3526.97
7341.34
-4939.82
7669.63
-6197.54
6749.58
-6605.75
5298.22
-6410.8
4497.35
-6146.83
4759.87
-5982.41
5337.27
-5852.52
5546.47
4987.77
1779.31
-3054.85
1847.8
-2513.64
1910.09
-1963.1
1967.28
-1487.61
2016.74
-1089.1
2052.6
-759.436
2074.49
-545.835
2101.67
-554.607
2156.18
-786.386
2235.29
-1067.63
2319.77
-1229.18
2397.42
-1244.94
2468.1
-1172.43
2537.48
-1058.12
2607.95
-904.682
2671.95
-685.537
2710.58
-297.476
2696.82
291.823
2650.93
735.752
2601.22
922.374
2564.89
855.841
2550.66
507.658
2591.55
-184.697
2672.58
-1036.1
2686.34
-1619.13
2805.97
-4499.14
3113.84
-7758.42
3525.68
-9309.66
3974.6
-9569.77
4390.46
-8843.71
4726.68
-7452.28
4927.41
-5457.79
5031.09
-3460.21
5086.13
-1929.6
4954.52
24.0062
4714.72
1874.61
4464.92
3275.97
4191.72
4311.53
3886.16
4678.99
3608.74
4265.47
3398.19
3516.39
3241.53
2869.43
3095.81
2535.76
2973.13
2196.97
2846.43
1288.32
2795.76
-313.193
2847.19
-1339.75
2929.55
-1635.5
3009.23
-1441.87
3002.1
-954.757
2944.69
-1039.54
2920.9
-2497.59
2824.9
-4291.2
2628.5
-5644.96
2461.9
-6798.04
2423.72
-8011.33
2515.93
-9320.8
2708.48
-10681.7
3001.36
-12069.4
3423.2
-13461.2
4000.82
-14786.6
4733.87
-15886.5
5571.07
-16480.3
6374.83
-16141.7
6933.41
-14587
7207.85
-12080.6
7374.16
-9624.27
7300.7
-5649.15
6827.69
-1347.4
5873.87
3352.6
5077.55
5776.58
4396.27
7141
3928.33
10056.7
3502.26
13145.4
3053.31
14092.1
2546.37
13339.7
1943.29
12042.9
1264.96
10685.1
621.576
9277.08
146.81
7849.71
-12.0246
6500.2
306.49
5415.43
483.532
6050.06
-128.128
8310.39
-1322.23
9978.6
-2502.64
9981.35
-3586.02
9412.82
-4741.92
8875.25
-5672.88
7682.65
-5946.97
6178.8
-5814.94
6129.66
-5721.22
7247.62
-5831.76
7780.18
-6125.95
7043.77
-6498.98
5671.25
-6715.89
4714.26
-6679.44