/*--------------------------------*- C++ -*----------------------------------*\
| =========                 |                                                 |
| \\      /  F ield         | OpenFOAM: The Open Source CFD Toolbox           |
|  \\    /   O peration     | Version:  4.1                                   |
|   \\  /    A nd           | Web:      www.OpenFOAM.org                      |
|    \\/     M anipulation  |                                                 |
\*---------------------------------------------------------------------------*/
FoamFile
{
    version     2.0;
    format      ascii;
    class       volVectorField;
    location    "1700";
    object      U;
}
// * * * * * * * * * * * * * * * * * * * * * * * * * * * * * * * * * * * * * //

dimensions      [0 1 -1 0 0 0 0];

internalField   nonuniform List<vector> 
26785
(
(-3.3682e-15 -0.0339784 27.1525)
(-3.8779e-15 -0.00613035 27.493)
(-2.10039e-15 0.0148601 27.3455)
(-1.84286e-15 0.0296688 26.8492)
(-3.57544e-15 0.0382689 26.1547)
(1.48063e-14 0.0410853 25.3751)
(-3.0539e-14 0.0384698 24.6145)
(-7.80442e-15 0.0317552 23.965)
(-3.09908e-14 0.0237049 23.4759)
(1.05852e-14 0.016917 23.1377)
(-6.20789e-16 0.0126559 22.9046)
(1.47137e-14 0.0111914 22.7247)
(1.39689e-14 0.0125258 22.5515)
(7.85435e-15 0.0167995 22.3411)
(1.38242e-15 0.0234853 22.057)
(-1.5647e-15 0.0314137 21.6791)
(-1.64809e-15 0.0405102 21.1896)
(2.53134e-15 0.049336 20.579)
(3.85794e-15 0.0550696 19.8743)
(3.32857e-14 0.0568394 19.1325)
(8.27362e-15 0.0549161 18.4021)
(3.04511e-14 0.0479121 17.7427)
(6.85441e-14 0.0394476 17.1962)
(3.4321e-14 0.0232982 16.7897)
(7.34997e-14 -0.0107573 16.6467)
(1.41083e-14 -0.0661012 17.0345)
(1.59775e-14 -0.119638 18.1026)
(3.14659e-15 -0.151659 19.6681)
(-2.76659e-14 -0.160215 21.4344)
(-2.15369e-15 -0.14779 23.1536)
(-3.71271e-15 -0.119737 24.6305)
(3.02814e-14 -0.0817493 25.7326)
(3.32221e-14 -0.039276 26.3904)
(2.31916e-15 -0.000472539 26.6066)
(6.10057e-14 0.0300692 26.4663)
(9.27502e-15 0.0554522 26.0445)
(1.6769e-14 0.0740004 25.4048)
(7.07934e-15 0.082052 24.6351)
(5.46481e-15 0.0809301 23.8417)
(6.62359e-15 0.0735307 23.1022)
(-2.22492e-14 0.0637954 22.4556)
(3.61406e-14 0.0550759 21.903)
(2.61759e-14 0.0466586 21.431)
(6.15681e-14 0.0359632 21.0469)
(8.13565e-15 0.0237668 20.7734)
(5.43157e-14 0.0132335 20.6082)
(-3.1009e-16 0.00618189 20.5237)
(1.2662e-14 0.00139129 20.4897)
(4.67479e-16 -0.00445225 20.4939)
(-7.15501e-15 -0.0153612 20.5553)
(-5.71923e-14 -0.0349056 20.7259)
(-3.95235e-14 -0.0643043 21.0797)
(-6.14079e-14 -0.100902 21.6841)
(-5.9528e-14 -0.140539 22.5737)
(-5.72757e-14 -0.180224 23.7487)
(-6.49601e-14 -0.218151 25.1889)
(-2.29547e-14 -0.252985 26.864)
(-1.84323e-14 -0.283592 28.739)
(-8.47934e-15 -0.308927 30.7765)
(-8.12355e-15 -0.327857 32.9357)
(-3.32443e-14 -0.338985 35.1701)
(-1.71609e-14 -0.3406 37.4244)
(-7.43563e-15 -0.330898 39.6325)
(8.03277e-15 -0.308291 41.7178)
(-1.24501e-15 -0.272194 43.5968)
(1.50793e-14 -0.222935 45.1869)
(1.9329e-14 -0.162421 46.4136)
(1.8653e-14 -0.0933547 47.2231)
(1.60932e-14 -0.0177638 47.572)
(1.13828e-14 0.0548831 47.4612)
(2.46216e-14 0.127295 46.9133)
(1.25497e-14 0.197207 45.9445)
(1.3203e-14 0.25018 44.5961)
(8.53194e-15 0.279579 43.0018)
(7.31229e-15 0.286355 41.3209)
(-1.15197e-14 0.27606 39.6788)
(7.90946e-17 0.256037 38.1504)
(-2.455e-15 0.233155 36.7655)
(-2.80916e-15 0.212629 35.519)
(-4.39393e-15 0.197785 34.3826)
(-6.00489e-15 0.189961 33.3164)
(7.99615e-15 0.188544 32.2807)
(-8.25392e-15 0.191619 31.2457)
(-1.19624e-15 0.197 30.1943)
(4.91843e-15 0.20276 29.121)
(-3.17619e-15 0.207219 28.0284)
(5.62831e-15 0.209137 26.9269)
(7.22205e-15 0.20815 25.8319)
(2.27486e-14 0.204666 24.7596)
(1.43092e-14 0.199259 23.7224)
(1.20016e-14 0.192291 22.7282)
(9.18031e-15 0.183966 21.7825)
(7.0156e-15 0.174398 20.8898)
(5.64656e-15 0.16376 20.0532)
(4.48727e-15 0.152483 19.2792)
(8.77988e-15 0.141412 18.5598)
(1.033e-14 0.131223 17.9163)
(1.47474e-14 0.122246 17.2747)
(1.67994e-14 0.113775 16.8182)
(2.06607e-14 0.103589 16.0299)
(-5.16112e-15 -0.0826394 26.8733)
(1.48027e-14 -0.0115193 27.2659)
(2.40616e-15 0.04497 27.177)
(1.01493e-14 0.086541 26.736)
(-1.26763e-14 0.111643 26.0855)
(3.21163e-14 0.120695 25.334)
(1.01159e-14 0.114162 24.583)
(5.19912e-14 0.0953746 23.9257)
(7.12421e-14 0.0720755 23.4181)
(7.26401e-15 0.0519665 23.0586)
(4.78767e-15 0.039072 22.8058)
(1.62713e-15 0.0343204 22.6088)
(1.14988e-15 0.0375296 22.4221)
(-9.13856e-15 0.0488859 22.2057)
(1.21172e-14 0.0670971 21.9277)
(1.60764e-14 0.0894573 21.5686)
(5.1178e-14 0.116394 21.1029)
(4.20378e-14 0.143443 20.5151)
(2.10342e-14 0.161672 19.829)
(2.38556e-14 0.168063 19.1008)
(3.83691e-14 0.163107 18.3801)
(-1.76926e-14 0.142933 17.7299)
(6.62781e-14 0.117186 17.1862)
(7.96925e-14 0.0678198 16.7967)
(7.52023e-14 -0.0312245 16.6633)
(7.75165e-14 -0.191125 17.0005)
(2.71622e-14 -0.347715 17.9865)
(2.59492e-14 -0.445627 19.4989)
(1.18627e-14 -0.478377 21.2684)
(-8.19368e-15 -0.449095 23.0301)
(-2.70561e-14 -0.370392 24.5587)
(9.72665e-16 -0.25866 25.7043)
(-1.47075e-14 -0.131166 26.3933)
(-1.98935e-14 -0.0136724 26.6305)
(-6.12733e-15 0.081315 26.5083)
(-2.58897e-14 0.162653 26.0771)
(-9.55595e-15 0.2228 25.4128)
(-2.11739e-16 0.251032 24.6069)
(7.83573e-15 0.251217 23.7676)
(1.32031e-14 0.231661 22.9744)
(2.10511e-14 0.20387 22.2695)
(-1.7336e-14 0.177848 21.6583)
(2.56367e-14 0.151987 21.1319)
(-4.10507e-14 0.118209 20.6966)
(2.3695e-14 0.0788237 20.382)
(2.23412e-14 0.0444665 20.1893)
(8.38811e-14 0.0211148 20.088)
(5.24981e-14 0.00534676 20.0443)
(7.5348e-14 -0.012428 20.0403)
(-2.2171e-14 -0.0442086 20.0881)
(5.57772e-14 -0.101346 20.2347)
(-1.45782e-14 -0.188654 20.555)
(-3.33173e-15 -0.298738 21.1218)
(1.0269e-14 -0.418302 21.9707)
(-4.61528e-14 -0.53661 23.0973)
(-5.53929e-15 -0.647019 24.4761)
(3.59536e-14 -0.745846 26.0757)
(-9.00696e-15 -0.831199 27.8648)
(-8.06448e-15 -0.901624 29.8112)
(6.35181e-15 -0.954844 31.8794)
(-1.32255e-14 -0.98707 34.027)
(-9.67896e-15 -0.993047 36.2019)
(-2.80095e-14 -0.96694 38.3405)
(-3.86847e-14 -0.903444 40.3678)
(-1.38092e-14 -0.800338 42.2021)
(-5.49991e-15 -0.658228 43.7623)
(-2.05721e-15 -0.48276 44.9752)
(-4.29886e-15 -0.281729 45.7887)
(3.86662e-14 -0.061412 46.1573)
(3.68009e-15 0.151486 46.0882)
(1.81239e-14 0.365206 45.5871)
(3.53415e-14 0.571301 44.6833)
(2.40706e-14 0.728792 43.4006)
(2.86695e-14 0.81725 41.8704)
(1.00714e-14 0.83888 40.2507)
(2.1279e-14 0.810213 38.665)
(-1.12831e-14 0.753239 37.1864)
(-5.89151e-15 0.688232 35.8431)
(9.03139e-15 0.630293 34.6295)
(-4.9381e-15 0.588867 33.5181)
(6.28898e-15 0.567655 32.4708)
(3.53667e-15 0.564743 31.4496)
(9.35795e-15 0.574494 30.4258)
(5.8546e-15 0.590544 29.3834)
(1.1435e-14 0.607292 28.3172)
(1.98399e-14 0.619807 27.2306)
(2.75162e-14 0.624486 26.1341)
(2.75643e-14 0.620423 25.0439)
(2.30108e-14 0.609051 23.9766)
(1.25658e-14 0.592217 22.9441)
(1.10486e-14 0.571074 21.9538)
(1.16193e-14 0.546254 21.0099)
(1.13829e-14 0.518079 20.1163)
(1.81959e-14 0.486977 19.2748)
(1.60491e-14 0.454156 18.492)
(1.90271e-14 0.422057 17.7596)
(2.368e-14 0.392758 17.1001)
(2.32886e-14 0.36695 16.4366)
(2.4658e-14 0.343482 15.9611)
(2.61459e-14 0.312506 15.1289)
(-5.64338e-15 -0.14847 26.1507)
(-1.54135e-14 -0.032934 26.6455)
(4.15346e-14 0.0627073 26.6573)
(-7.03919e-15 0.134449 26.307)
(-4.36365e-14 0.178976 25.729)
(-7.11471e-15 0.196911 25.0283)
(-2.3389e-14 0.188779 24.3047)
(1.27775e-14 0.159484 23.6545)
(-3.27197e-15 0.121515 23.1416)
(-6.26136e-16 0.0879969 22.7718)
(-3.20998e-15 0.066217 22.5073)
(-6.69908e-15 0.0579455 22.298)
(-9.37373e-15 0.0626028 22.0998)
(-1.57815e-14 0.0801167 21.876)
(-1.33651e-14 0.108596 21.5991)
(4.02767e-14 0.144377 21.2516)
(-5.005e-14 0.1887 20.8039)
(2.17285e-14 0.233972 20.2356)
(-3.47748e-14 0.26491 19.5674)
(7.61391e-14 0.276201 18.8547)
(3.09209e-14 0.268321 18.147)
(-5.91444e-15 0.235399 17.5096)
(1.28325e-14 0.19141 16.9732)
(4.12824e-14 0.10819 16.6032)
(-8.21484e-15 -0.0484689 16.4656)
(2.52016e-14 -0.304153 16.733)
(-1.71847e-14 -0.566785 17.6623)
(1.33231e-15 -0.743061 19.1936)
(7.88093e-15 -0.809229 21.0235)
(2.89567e-15 -0.763351 22.8303)
(1.90129e-15 -0.628838 24.3675)
(-1.26114e-14 -0.437697 25.4946)
(1.98966e-14 -0.221555 26.1519)
(-1.4359e-15 -0.024427 26.3573)
(-1.9466e-14 0.137164 26.2119)
(-8.61322e-15 0.277373 25.7423)
(-3.45048e-15 0.379853 25.039)
(9.37288e-16 0.428737 24.1913)
(5.40633e-15 0.430835 23.3066)
(1.03884e-14 0.399493 22.4647)
(1.51203e-14 0.353485 21.7096)
(1.79295e-14 0.309326 21.049)
(1.88713e-14 0.265254 20.4771)
(1.9734e-14 0.20703 19.9993)
(2.08319e-14 0.137287 19.647)
(2.15243e-14 0.0759723 19.4322)
(2.25133e-14 0.0344307 19.3202)
(2.26554e-14 0.00714979 19.2721)
(2.10233e-14 -0.0212731 19.2635)
(1.65197e-14 -0.0710204 19.2999)
(1.22459e-14 -0.16261 19.4251)
(8.99069e-15 -0.305822 19.7161)
(1.01405e-14 -0.487603 20.2458)
(-4.98624e-15 -0.683508 21.045)
(-1.475e-14 -0.875092 22.1084)
(1.11491e-14 -1.05322 23.419)
(-8.50031e-15 -1.2141 24.9563)
(-3.13393e-14 -1.35548 26.6936)
(-1.73452e-14 -1.47433 28.596)
(-3.30357e-14 -1.56579 30.6222)
(-1.75307e-14 -1.62279 32.726)
(-2.86437e-14 -1.63626 34.8543)
(-3.01307e-14 -1.59647 36.9464)
(-3.24372e-14 -1.49466 38.9322)
(-1.30283e-14 -1.32744 40.7354)
(-2.39434e-14 -1.09591 42.2789)
(-4.00252e-14 -0.80982 43.4913)
(-2.77548e-14 -0.481279 44.3206)
(-2.65046e-14 -0.120929 44.7126)
(-2.06521e-14 0.229479 44.6807)
(-1.5258e-14 0.582912 44.2103)
(-6.73244e-15 0.921415 43.3444)
(-1.85913e-14 1.18166 42.089)
(-2.55225e-14 1.3285 40.5831)
(-1.87236e-14 1.36458 38.9903)
(-2.15761e-14 1.31774 37.4363)
(-1.95719e-14 1.225 35.9929)
(-1.77779e-14 1.11985 34.6855)
(-1.66546e-14 1.02678 33.5064)
(-1.5034e-14 0.96098 32.4267)
(-1.29807e-14 0.928467 31.4077)
(-1.11694e-14 0.926078 30.4105)
(-1.84579e-15 0.944481 29.4057)
(-3.67254e-15 0.973124 28.3773)
(4.55331e-15 1.00263 27.3201)
(6.50397e-15 1.02459 26.2377)
(9.32414e-15 1.03291 25.1419)
(1.32783e-14 1.02633 24.0507)
(1.37324e-14 1.00762 22.9816)
(2.71036e-14 0.980099 21.9465)
(2.24187e-14 0.945773 20.952)
(2.42676e-14 0.905772 20.0014)
(3.02524e-14 0.86058 19.0976)
(2.82128e-14 0.810703 18.2419)
(2.96721e-14 0.758022 17.441)
(2.77868e-14 0.706543 16.6868)
(3.1833e-14 0.66002 16.003)
(2.80844e-14 0.618978 15.3081)
(2.59789e-14 0.583736 14.8063)
(2.51405e-14 0.530086 13.9155)
(-3.68925e-15 -0.228724 25.115)
(9.81364e-15 -0.069842 25.7321)
(2.50811e-15 0.0649926 25.8723)
(-4.66316e-14 0.168286 25.6439)
(-2.35908e-14 0.234486 25.1689)
(-5.0029e-14 0.26395 24.5457)
(-6.45815e-15 0.256842 23.8699)
(-2.45882e-14 0.219212 23.2381)
(-3.55896e-14 0.168051 22.7225)
(-6.73178e-15 0.121955 22.3406)
(-4.14231e-15 0.0917004 22.0626)
(-5.16919e-15 0.080015 21.8413)
(-3.77195e-15 0.0858183 21.6341)
(-2.87128e-14 0.108615 21.4067)
(-2.32389e-14 0.146103 21.1358)
(-2.32087e-14 0.194218 20.8058)
(-1.15003e-14 0.255522 20.3819)
(-1.86073e-14 0.31926 19.8365)
(-9.31332e-15 0.36332 19.1867)
(-3.9054e-14 0.379877 18.4879)
(-1.70555e-14 0.36927 17.791)
(-2.54964e-14 0.32387 17.165)
(1.45068e-14 0.26105 16.6358)
(-6.65544e-15 0.145509 16.2843)
(5.86451e-15 -0.0603175 16.1347)
(1.90036e-14 -0.410255 16.3433)
(2.93958e-14 -0.790585 17.2737)
(2.65094e-14 -1.05384 18.8683)
(1.36402e-14 -1.14973 20.7452)
(7.74946e-15 -1.07809 22.5526)
(-6.00075e-15 -0.881314 24.0591)
(4.84645e-15 -0.608597 25.146)
(2.13205e-14 -0.304627 25.7628)
(5.85973e-15 -0.0303205 25.9346)
(-4.78024e-15 0.19756 25.7655)
(-5.03837e-14 0.397454 25.2534)
(5.10348e-14 0.541696 24.5083)
(5.50112e-15 0.611229 23.6159)
(-2.03574e-14 0.615607 22.6857)
(6.19849e-14 0.572787 21.7987)
(-2.42381e-15 0.508709 20.9999)
(-1.77515e-14 0.446211 20.2966)
(4.34528e-14 0.383836 19.6841)
(6.84149e-14 0.3011 19.1689)
(1.37218e-14 0.198555 18.7789)
(3.03748e-14 0.10692 18.5442)
(-7.4196e-15 0.0451998 18.4259)
(1.06742e-14 0.0056645 18.3793)
(4.09907e-14 -0.0327812 18.3742)
(4.43636e-14 -0.098978 18.4104)
(-1.28455e-14 -0.223361 18.527)
(3.18363e-14 -0.420318 18.797)
(-1.50304e-14 -0.669992 19.2918)
(-5.85919e-14 -0.938449 20.0503)
(-2.09418e-14 -1.20325 21.0863)
(-5.23509e-15 -1.45356 22.3956)
(2.39574e-14 -1.6822 23.9508)
(-1.08762e-14 -1.88262 25.705)
(1.19328e-14 -2.04876 27.6057)
(-1.12763e-14 -2.17434 29.6054)
(5.67998e-15 -2.25123 31.6628)
(-3.01293e-14 -2.26864 33.7377)
(-1.80248e-14 -2.21429 35.7837)
(-1.74859e-14 -2.07638 37.7426)
(-1.37674e-14 -1.84994 39.5442)
(-3.4478e-14 -1.53504 41.1094)
(-8.81653e-15 -1.14437 42.359)
(1.39213e-15 -0.692057 43.2332)
(5.26479e-15 -0.193012 43.6626)
(1.47343e-14 0.296303 43.668)
(-3.78767e-15 0.793666 43.2136)
(1.07665e-14 1.26764 42.3533)
(-5.56364e-15 1.63403 41.0735)
(2.35543e-14 1.84032 39.529)
(-7.01658e-15 1.88892 37.8979)
(-1.35689e-14 1.82068 36.3152)
(-1.68701e-14 1.68935 34.8544)
(-4.57909e-14 1.54215 33.5389)
(-3.39555e-14 1.41285 32.358)
(-3.26938e-14 1.32228 31.2813)
(-2.92455e-14 1.27875 30.2693)
(-2.61408e-14 1.27786 29.2821)
(-2.4154e-14 1.30636 28.2893)
(-1.05153e-14 1.34931 27.2734)
(-1.47165e-14 1.39326 26.2276)
(-1.41734e-14 1.42592 25.154)
(-1.95322e-14 1.43848 24.0642)
(-3.17759e-15 1.42964 22.9775)
(-5.09661e-15 1.40392 21.9116)
(1.29692e-14 1.36622 20.878)
(6.85056e-15 1.31942 19.8822)
(1.82786e-14 1.26518 18.9266)
(1.61742e-14 1.20407 18.0134)
(1.46666e-14 1.13645 17.1436)
(1.75952e-14 1.06484 16.325)
(1.65295e-14 0.994925 15.55)
(2.05132e-14 0.932569 14.8442)
(1.55705e-14 0.877577 14.1204)
(1.70346e-14 0.833435 13.5948)
(1.57265e-14 0.755093 12.6486)
(-2.90242e-15 -0.323251 23.8462)
(-1.48566e-14 -0.122575 24.5445)
(2.91122e-15 0.049989 24.8125)
(-2.00242e-14 0.185273 24.7259)
(1.19653e-15 0.275274 24.3813)
(-1.0172e-15 0.319752 23.8617)
(-1.3341e-14 0.317897 23.2521)
(2.14955e-14 0.275627 22.6505)
(-8.30436e-15 0.213303 22.1441)
(-9.8377e-15 0.155041 21.7662)
(-7.26367e-15 0.115986 21.4926)
(-1.17547e-14 0.100466 21.2749)
(6.73768e-16 0.1069 21.0697)
(-1.37813e-14 0.134065 20.8451)
(3.77473e-14 0.179219 20.5819)
(1.49643e-14 0.238363 20.2688)
(-8.60507e-15 0.316135 19.8698)
(4.04765e-15 0.398829 19.351)
(-1.80134e-15 0.456866 18.7243)
(-3.19275e-15 0.479488 18.0439)
(-4.19336e-15 0.466604 17.3611)
(3.22946e-14 0.408974 16.7487)
(2.54833e-14 0.326895 16.2284)
(-4.53187e-15 0.180357 15.894)
(-4.01774e-15 -0.0689377 15.7303)
(1.72463e-14 -0.516604 15.9026)
(4.08209e-14 -1.02431 16.8714)
(1.60429e-14 -1.37454 18.5336)
(2.23824e-14 -1.49282 20.442)
(1.5523e-14 -1.38986 22.2466)
(2.09569e-14 -1.12933 23.7357)
(1.89163e-14 -0.775129 24.8013)
(1.99327e-14 -0.383747 25.3917)
(1.62246e-15 -0.0330667 25.5388)
(1.92993e-14 0.262873 25.3484)
(2.16111e-14 0.525219 24.7881)
(2.52319e-14 0.711834 23.994)
(1.86536e-14 0.802394 23.0479)
(1.62375e-14 0.808799 22.0657)
(1.31209e-14 0.753841 21.1309)
(1.63652e-14 0.671124 20.2889)
(1.89214e-14 0.589871 19.5445)
(-4.696e-15 0.508924 18.892)
(-3.42433e-15 0.401462 18.3395)
(1.27306e-14 0.263516 17.9138)
(7.62671e-15 0.137424 17.6594)
(2.28636e-15 0.0528147 17.5386)
(-3.14585e-15 -0.000383285 17.4986)
(-4.02736e-15 -0.048824 17.5024)
(3.06291e-14 -0.12968 17.5417)
(-6.0712e-15 -0.283106 17.6453)
(3.77293e-14 -0.529502 17.883)
(2.89173e-15 -0.845843 18.3434)
(3.15187e-14 -1.19221 19.0971)
(3.62056e-14 -1.54 20.1717)
(1.60866e-14 -1.86922 21.5406)
(3.6605e-14 -2.16401 23.1375)
(2.50572e-14 -2.41462 24.8898)
(3.08696e-14 -2.61698 26.7448)
(1.14297e-14 -2.76829 28.6734)
(2.97108e-14 -2.86224 30.6593)
(-8.72784e-15 -2.88693 32.6845)
(-1.8298e-15 -2.8263 34.7162)
(-8.71075e-15 -2.66264 36.6969)
(-6.164e-15 -2.38626 38.5465)
(2.49026e-14 -1.99344 40.169)
(5.91409e-15 -1.4998 41.47)
(3.94562e-14 -0.920958 42.3814)
(3.45194e-14 -0.278592 42.8235)
(6.05069e-14 0.354661 42.8341)
(4.85414e-14 1.0036 42.3634)
(4.91334e-14 1.62072 41.4791)
(2.47386e-14 2.10104 40.1451)
(4.79802e-14 2.37058 38.5311)
(5.18834e-14 2.43043 36.8309)
(6.18231e-14 2.33665 35.1892)
(4.17794e-14 2.16221 33.6818)
(2.11853e-14 1.96903 32.3298)
(3.71938e-14 1.80006 31.1199)
(2.12977e-14 1.68145 30.0208)
(3.55913e-14 1.62379 28.9933)
(6.51228e-14 1.62151 27.9986)
(2.14682e-14 1.65779 27.007)
(2.82642e-14 1.7137 26.0008)
(1.52221e-14 1.77184 24.9709)
(-5.0243e-15 1.81547 23.916)
(-7.76147e-15 1.83262 22.8462)
(-1.09593e-14 1.82214 21.7804)
(-1.54337e-14 1.79061 20.7355)
(-2.13477e-14 1.7444 19.7207)
(-6.07939e-15 1.68703 18.7394)
(-1.02063e-14 1.62062 17.7925)
(2.57555e-17 1.5456 16.8816)
(-2.28077e-15 1.46183 16.0079)
(-1.79216e-16 1.37243 15.1811)
(-1.07804e-15 1.28509 14.3949)
(-2.2983e-15 1.20834 13.6768)
(1.24697e-15 1.14075 12.9345)
(4.76423e-15 1.09045 12.3935)
(4.34498e-15 0.985976 11.4051)
(-2.72255e-15 -0.442648 22.3596)
(-1.45922e-14 -0.197769 23.1605)
(-2.07932e-15 0.0127812 23.5457)
(-3.83379e-14 0.180849 23.5836)
(-1.85359e-14 0.296676 23.3611)
(-1.89842e-14 0.359319 22.9526)
(-2.22185e-14 0.366249 22.4365)
(-8.14994e-15 0.322159 21.9088)
(5.8057e-15 0.250364 21.4597)
(1.53679e-15 0.181076 21.124)
(-1.36912e-14 0.134412 20.8773)
(-1.86678e-14 0.116245 20.6731)
(-2.02553e-14 0.124119 20.4738)
(-3.6671e-14 0.155819 20.254)
(-3.04343e-14 0.208185 19.9997)
(-2.62149e-14 0.277484 19.7027)
(-2.47718e-14 0.370974 19.3244)
(1.74553e-14 0.472476 18.8257)
(-5.08189e-15 0.544706 18.2162)
(-6.37753e-14 0.573835 17.5506)
(-6.11984e-14 0.559069 16.8807)
(-1.41053e-14 0.489564 16.2826)
(-4.20782e-14 0.388326 15.7716)
(3.63198e-14 0.21228 15.4537)
(-5.40879e-15 -0.0762416 15.2811)
(8.97281e-15 -0.627079 15.4394)
(3.21623e-14 -1.26998 16.4709)
(2.67418e-14 -1.70546 18.2101)
(2.58162e-14 -1.84075 20.1614)
(3.72193e-14 -1.70271 21.9809)
(2.01446e-14 -1.37644 23.4678)
(2.9742e-14 -0.93889 24.5208)
(4.40508e-15 -0.458705 25.0867)
(1.34854e-14 -0.0312142 25.209)
(-6.91697e-15 0.335352 24.9907)
(-9.30975e-15 0.66293 24.3784)
(4.99755e-15 0.89262 23.5263)
(1.03249e-14 1.00419 22.5177)
(2.41218e-14 1.01157 21.4777)
(2.00849e-14 0.94301 20.4932)
(7.87192e-14 0.840665 19.61)
(1.12735e-13 0.740265 18.8277)
(7.3702e-14 0.640742 18.1389)
(9.98376e-14 0.508327 17.5519)
(8.55588e-15 0.332664 17.0963)
(5.36519e-15 0.167972 16.8236)
(-1.353e-14 0.0575794 16.7036)
(-1.57508e-14 -0.010525 16.6721)
(-1.00542e-14 -0.0679793 16.683)
(4.32859e-15 -0.1596 16.7164)
(1.8606e-14 -0.336921 16.7903)
(2.66753e-14 -0.632209 16.9867)
(3.17113e-14 -1.02356 17.4362)
(3.31671e-14 -1.46078 18.2357)
(3.04082e-14 -1.89812 19.3833)
(2.6472e-14 -2.30002 20.795)
(2.46499e-14 -2.64608 22.3713)
(1.93284e-14 -2.93231 24.0481)
(2.44994e-14 -3.16326 25.8063)
(3.94017e-15 -3.34164 27.6523)
(7.79242e-15 -3.46146 29.5945)
(-1.01878e-14 -3.5061 31.6233)
(3.39466e-15 -3.45124 33.699)
(-4.7038e-15 -3.26929 35.7461)
(1.81515e-14 -2.9442 37.6634)
(3.08829e-14 -2.46894 39.3369)
(3.92243e-14 -1.86543 40.6634)
(5.31327e-14 -1.15174 41.5748)
(4.30442e-14 -0.359446 41.9871)
(5.92356e-14 0.421601 41.9605)
(2.82688e-14 1.22598 41.4319)
(4.91042e-14 1.98843 40.4872)
(4.70571e-14 2.58557 39.0708)
(4.85609e-14 2.91914 37.3701)
(1.38435e-14 2.98776 35.595)
(4.14871e-14 2.86464 33.8976)
(4.69695e-14 2.64383 32.3513)
(5.11524e-14 2.40238 30.9712)
(3.88099e-14 2.19192 29.7385)
(3.7552e-14 2.04339 28.6196)
(4.36267e-14 1.96922 27.5742)
(5.27755e-14 1.9624 26.5643)
(4.74476e-14 2.00259 25.563)
(2.76402e-14 2.06771 24.5565)
(3.8676e-14 2.13705 23.5363)
(2.52619e-14 2.18922 22.4995)
(1.14932e-14 2.20893 21.4553)
(3.78935e-15 2.19581 20.4222)
(-4.79199e-15 2.15902 19.4151)
(-8.70779e-15 2.10602 18.4382)
(-1.57368e-14 2.0405 17.4908)
(-1.60742e-14 1.96482 16.5716)
(-1.60307e-14 1.8787 15.6801)
(-2.24404e-14 1.78082 14.8177)
(-2.54886e-14 1.67488 13.9968)
(-1.96346e-14 1.57109 13.2135)
(-1.49651e-14 1.48134 12.4973)
(-1.15037e-14 1.40259 11.751)
(-9.04359e-15 1.34873 11.2058)
(-6.08309e-15 1.21774 10.1928)
(-1.76468e-15 -0.542582 21.329)
(-3.28331e-15 -0.271619 22.1311)
(-1.55047e-14 -0.030116 22.5492)
(-1.07316e-14 0.166963 22.6467)
(-2.91664e-14 0.306652 22.4971)
(4.01861e-14 0.387042 22.1631)
(3.3638e-15 0.403602 21.713)
(5.53595e-15 0.359312 21.2357)
(1.69216e-14 0.28002 20.8186)
(3.80891e-15 0.201729 20.4978)
(-2.51125e-14 0.14913 20.2536)
(-1.53582e-15 0.129246 20.0458)
(-1.65295e-14 0.13858 19.8429)
(-1.42676e-14 0.174069 19.6247)
(-1.20189e-14 0.232663 19.3816)
(-9.29894e-15 0.311535 19.1078)
(-2.7998e-14 0.420982 18.7589)
(-3.77288e-14 0.542057 18.2846)
(-6.82636e-15 0.628922 17.6908)
(-5.39555e-14 0.664618 17.0351)
(-2.18142e-14 0.647762 16.3732)
(-1.01596e-13 0.566267 15.7864)
(-1.20671e-13 0.445678 15.2828)
(-3.55407e-14 0.240644 14.9844)
(1.55234e-14 -0.0845518 14.8123)
(3.73232e-14 -0.745532 14.9756)
(4.73971e-14 -1.53083 16.0923)
(3.4134e-14 -2.04912 17.9244)
(-4.80151e-15 -2.19555 19.9274)
(2.68456e-14 -2.0175 21.7626)
(3.03488e-15 -1.62237 23.2432)
(2.06238e-15 -1.09899 24.2788)
(-1.32017e-15 -0.528582 24.8161)
(1.24536e-15 -0.023613 24.9131)
(7.61887e-16 0.41609 24.6613)
(-9.20925e-15 0.811576 23.9978)
(3.15486e-14 1.08561 23.0801)
(3.81002e-14 1.21782 22.0008)
(3.69383e-14 1.22431 20.8972)
(2.78587e-14 1.1398 19.8615)
(6.00962e-15 1.01621 18.9401)
(-1.29229e-15 0.89597 18.1261)
(5.02158e-14 0.777808 17.4077)
(-6.04278e-15 0.62027 16.793)
(1.86251e-14 0.404868 16.314)
(1.34846e-14 0.197687 16.0252)
(2.5971e-15 0.0590217 15.9081)
(-4.27626e-14 -0.0242403 15.8839)
(-2.1662e-14 -0.0880936 15.8964)
(-5.06079e-14 -0.185161 15.9136)
(-2.91292e-14 -0.382877 15.9491)
(-4.70915e-14 -0.733074 16.1149)
(1.41303e-14 -1.2135 16.5899)
(1.41291e-14 -1.75003 17.4589)
(1.90126e-14 -2.26949 18.649)
(1.54758e-14 -2.72593 20.0283)
(8.41306e-15 -3.10725 21.51)
(-2.39166e-14 -3.42367 23.0767)
(1.00719e-15 -3.68913 24.7532)
(-1.52882e-14 -3.90775 26.5693)
(-9.29813e-15 -4.06827 28.5342)
(-8.00275e-16 -4.14442 30.6237)
(1.22988e-14 -4.10083 32.777)
(-1.51857e-14 -3.89949 34.8977)
(-2.09195e-16 -3.51989 36.8707)
(2.86819e-15 -2.95385 38.574)
(3.125e-14 -2.23288 39.9058)
(3.99149e-14 -1.37615 40.8019)
(2.61016e-14 -0.427477 41.1727)
(4.91371e-14 0.506731 41.0987)
(-2.32616e-14 1.47354 40.4914)
(7.75417e-15 2.38483 39.4439)
(-1.15219e-14 3.09897 37.8884)
(-7.40649e-15 3.49131 36.0463)
(-1.42897e-14 3.55933 34.1608)
(-1.21812e-14 3.39785 32.3962)
(-2.91615e-14 3.12475 30.8189)
(-2.03448e-14 2.83216 29.43)
(-3.51788e-14 2.57942 28.1996)
(-1.9283e-14 2.40147 27.0864)
(-1.00513e-14 2.31194 26.0442)
(9.93316e-16 2.30116 25.0304)
(2.5605e-15 2.3441 24.0197)
(6.70801e-15 2.41565 23.0038)
(2.4644e-14 2.49243 21.9796)
(1.39564e-14 2.54837 20.947)
(1.01817e-14 2.56549 19.9189)
(5.90994e-15 2.54593 18.9168)
(-1.00449e-14 2.50242 17.953)
(-5.22676e-15 2.44315 17.0252)
(-1.48142e-14 2.37146 16.1266)
(-1.72699e-14 2.28969 15.2513)
(-1.80988e-14 2.19585 14.3953)
(-2.43057e-14 2.08635 13.5592)
(-2.33527e-14 1.96539 12.759)
(-2.97196e-14 1.84636 11.9937)
(-2.12626e-14 1.7451 11.2947)
(-2.23511e-14 1.65668 10.5601)
(-1.61449e-14 1.60169 10.0226)
(-1.43191e-14 1.44476 9.00346)
(-1.07696e-14 -0.650882 20.3853)
(-1.78382e-15 -0.352775 21.1567)
(2.14076e-14 -0.0793943 21.5838)
(1.21038e-14 0.146186 21.723)
(2.23585e-14 0.309365 21.6335)
(1.65343e-14 0.407896 21.3657)
(1.08399e-14 0.435135 20.9745)
(1.44752e-14 0.392005 20.5364)
(6.85644e-16 0.306494 20.1362)
(1.68065e-14 0.220002 19.8188)
(6.96898e-15 0.161692 19.5739)
(3.63516e-15 0.139872 19.3655)
(3.22722e-15 0.150042 19.1635)
(3.39244e-15 0.188131 18.9492)
(-6.27312e-16 0.251236 18.7167)
(-4.62544e-14 0.338066 18.4664)
(1.35319e-14 0.463245 18.154)
(1.29763e-14 0.605458 17.7161)
(3.02558e-15 0.708732 17.1481)
(1.46654e-15 0.752057 16.507)
(-1.43333e-14 0.733302 15.8543)
(-1.07943e-14 0.639659 15.2785)
(-2.9563e-14 0.498879 14.7831)
(-1.27897e-14 0.264498 14.512)
(5.05781e-14 -0.0953946 14.3473)
(4.22857e-14 -0.874877 14.5282)
(3.63701e-14 -1.8095 15.7497)
(-2.09528e-14 -2.40627 17.6795)
(-3.36261e-15 -2.55618 19.7228)
(-8.76578e-15 -2.33251 21.5573)
(-5.26889e-15 -1.86594 23.0187)
(7.75265e-16 -1.25515 24.0316)
(1.25499e-15 -0.593916 24.5409)
(3.40605e-15 -0.0107733 24.6191)
(7.41533e-15 0.504553 24.3375)
(-9.23602e-15 0.971272 23.6278)
(-2.08983e-14 1.29213 22.641)
(-2.45753e-15 1.44477 21.4824)
(1.48008e-14 1.44771 20.3062)
(1.97151e-14 1.34368 19.2144)
(4.34369e-14 1.19613 18.2552)
(7.47143e-14 1.05477 17.4147)
(1.16056e-13 0.917808 16.6729)
(7.86104e-14 0.73518 16.0365)
(9.22962e-14 0.478759 15.5397)
(6.37217e-14 0.225746 15.2344)
(3.36146e-14 0.0569316 15.1204)
(7.40132e-15 -0.0409681 15.1019)
(-3.14904e-14 -0.107934 15.1137)
(-2.68587e-14 -0.205556 15.1138)
(-1.26497e-14 -0.42353 15.1181)
(-3.81615e-14 -0.839409 15.2796)
(1.43776e-14 -1.4205 15.8041)
(7.09202e-15 -2.05213 16.7188)
(6.95936e-15 -2.63513 17.8828)
(-1.05339e-15 -3.12907 19.1681)
(5.80394e-15 -3.54155 20.5412)
(-3.80877e-14 -3.89704 22.035)
(-3.08806e-14 -4.21237 23.6949)
(-4.24684e-14 -4.48601 25.5444)
(-2.28006e-15 -4.69701 27.5723)
(1.10152e-14 -4.80828 29.7318)
(1.45033e-14 -4.77442 31.9449)
(1.07682e-14 -4.5488 34.1053)
(9.21066e-15 -4.10868 36.0965)
(8.17949e-15 -3.44573 37.798)
(2.29054e-14 -2.60324 39.118)
(2.90872e-14 -1.5978 39.9991)
(3.02724e-14 -0.487524 40.347)
(4.94938e-14 0.607045 40.2556)
(3.11093e-14 1.75213 39.6006)
(3.40293e-14 2.82774 38.4564)
(2.1835e-14 3.66679 36.7269)
(1.48224e-14 4.11158 34.6782)
(-1.64649e-14 4.16129 32.6166)
(-1.19398e-14 3.94225 30.7394)
(-4.79893e-14 3.60255 29.1101)
(-7.74386e-14 3.25028 27.7116)
(-6.96084e-14 2.95125 26.4978)
(-6.21219e-14 2.74366 25.4154)
(-4.22292e-14 2.64191 24.4069)
(-2.18123e-14 2.63202 23.4177)
(-2.3315e-14 2.68175 22.4161)
(-1.45486e-15 2.76158 21.3966)
(-1.13322e-14 2.84474 20.3618)
(3.02165e-15 2.89974 19.3185)
(3.36285e-15 2.90695 18.29)
(2.60014e-15 2.87422 17.3069)
(-2.27478e-15 2.81983 16.3812)
(-1.16782e-14 2.75249 15.5038)
(-2.20525e-15 2.67505 14.6608)
(-1.0255e-14 2.58965 13.8397)
(-1.95422e-14 2.4911 13.0309)
(-3.11401e-14 2.37205 12.2329)
(-3.79041e-14 2.23728 11.4659)
(-3.2862e-14 2.10418 10.7324)
(-2.83878e-14 1.99306 10.0651)
(-2.21799e-14 1.8967 9.35753)
(-2.34239e-14 1.84309 8.83938)
(-1.92145e-14 1.6619 7.83211)
(-6.98438e-15 -0.752838 19.519)
(1.30609e-14 -0.431779 20.2175)
(-1.59499e-14 -0.132452 20.6241)
(1.24336e-14 0.116879 20.7867)
(3.3848e-14 0.300845 20.7465)
(2.72702e-14 0.416945 20.5372)
(-1.97426e-15 0.456384 20.1948)
(-3.16182e-16 0.417125 19.7845)
(-5.9388e-15 0.327596 19.3988)
(-2.43226e-14 0.23389 19.0956)
(1.97895e-14 0.170278 18.8667)
(1.00999e-14 0.146916 18.6724)
(1.5678e-14 0.158277 18.4816)
(2.46519e-14 0.198899 18.2762)
(2.53145e-14 0.26556 18.0527)
(2.18595e-14 0.358456 17.8183)
(1.82531e-14 0.497741 17.5336)
(-1.56811e-14 0.661442 17.1298)
(6.85516e-14 0.782697 16.5913)
(6.21963e-14 0.8352 15.9711)
(2.36418e-14 0.815295 15.3329)
(-4.36827e-15 0.709552 14.7726)
(-2.59145e-14 0.547266 14.2905)
(1.92634e-13 0.283184 14.0565)
(1.91759e-14 -0.109311 13.8998)
(4.28333e-14 -1.01713 14.1062)
(-2.07979e-14 -2.1068 15.4433)
(2.6637e-15 -2.77475 17.4567)
(-9.41848e-15 -2.91934 19.5118)
(-6.52641e-15 -2.64547 21.3201)
(3.16884e-14 -2.10684 22.748)
(3.50879e-16 -1.40871 23.735)
(1.77663e-14 -0.65718 24.2212)
(4.00139e-14 0.00457798 24.2934)
(2.45883e-14 0.598643 23.9956)
(-1.88831e-14 1.14081 23.2539)
(-1.35335e-14 1.51289 22.2026)
(-1.53889e-14 1.68697 20.9601)
(1.41608e-15 1.68357 19.7022)
(1.38943e-14 1.55538 18.5464)
(1.52106e-14 1.37987 17.5467)
(8.50597e-15 1.21522 16.6811)
(1.10594e-13 1.05898 15.9193)
(1.00487e-13 0.851436 15.2651)
(9.81356e-14 0.553518 14.7535)
(4.91262e-14 0.251695 14.4273)
(1.42321e-14 0.0508322 14.3154)
(-3.45588e-15 -0.0613654 14.3038)
(-6.87265e-15 -0.12868 14.3203)
(-3.06102e-16 -0.22354 14.3149)
(8.25375e-15 -0.46454 14.3102)
(1.02108e-14 -0.956296 14.4925)
(7.08128e-15 -1.63966 15.0573)
(-8.17115e-15 -2.35149 15.9643)
(-1.78163e-14 -2.98104 17.0533)
(-2.63323e-14 -3.50814 18.2427)
(1.40381e-15 -3.96099 19.5514)
(-2.68862e-14 -4.37038 21.0319)
(-2.81488e-14 -4.74818 22.7189)
(-2.98228e-14 -5.08356 24.6121)
(-2.19211e-15 -5.34593 26.6771)
(6.87374e-15 -5.48923 28.8509)
(-1.36354e-16 -5.46027 31.0499)
(-1.44102e-14 -5.20545 33.1698)
(2.70241e-15 -4.70151 35.105)
(-8.39401e-15 -3.9406 36.7459)
(9.78156e-15 -2.98001 38.0186)
(2.54631e-14 -1.82823 38.8783)
(3.14172e-14 -0.558378 39.2311)
(4.19319e-14 0.698467 39.1773)
(2.44159e-14 2.0382 38.5673)
(3.89284e-14 3.30638 37.4266)
(3.48448e-14 4.2972 35.5785)
(3.64729e-14 4.80074 33.3181)
(4.97517e-14 4.81614 31.0394)
(1.88123e-14 4.51505 29.0023)
(-1.29946e-14 4.08689 27.2829)
(-1.47704e-14 3.65904 25.8501)
(-3.05787e-14 3.30313 24.642)
(-4.5381e-14 3.06025 23.5952)
(-4.21783e-14 2.94638 22.6405)
(-3.42542e-14 2.94267 21.7064)
(-4.14935e-14 3.00685 20.7454)
(-4.56406e-14 3.10243 19.7458)
(-1.75037e-14 3.19632 18.71)
(-1.7193e-14 3.24859 17.6516)
(-2.35118e-15 3.23887 16.6106)
(8.87179e-16 3.18508 15.6341)
(-1.61713e-15 3.11365 14.7376)
(-2.0839e-15 3.03401 13.9059)
(-7.33857e-15 2.94921 13.1188)
(-7.34321e-15 2.86165 12.3567)
(-1.78047e-14 2.76075 11.6017)
(-1.88927e-14 2.63344 10.8496)
(-1.37466e-14 2.48538 10.1252)
(-2.34404e-14 2.33889 9.43574)
(-2.59455e-14 2.21898 8.8136)
(-2.31902e-14 2.11577 8.14736)
(-2.63379e-14 2.06553 7.65904)
(-2.17938e-14 1.86306 6.68139)
(-3.92289e-15 -0.84586 18.6841)
(-3.89694e-15 -0.50731 19.2734)
(-2.40923e-15 -0.187794 19.6393)
(-4.28722e-15 0.0811193 19.8067)
(1.13049e-14 0.283752 19.7992)
(-1.06211e-14 0.417508 19.6358)
(-9.24961e-15 0.470694 19.3396)
(-4.04811e-14 0.436519 18.9727)
(-1.21171e-14 0.343077 18.6307)
(-6.24076e-15 0.242147 18.3672)
(-5.01543e-14 0.173818 18.1683)
(8.21223e-15 0.149777 17.995)
(3.54465e-14 0.163077 17.8205)
(3.78639e-14 0.206752 17.6294)
(7.58002e-14 0.277074 17.4189)
(6.42224e-14 0.375278 17.1985)
(5.35517e-14 0.527177 16.9314)
(7.17208e-14 0.711566 16.5494)
(4.20376e-14 0.851011 16.0339)
(4.4936e-14 0.913468 15.4347)
(1.72474e-14 0.892999 14.8158)
(4.11407e-15 0.775194 14.277)
(1.36716e-14 0.589825 13.8152)
(1.80823e-14 0.296397 13.6263)
(3.35846e-15 -0.126238 13.4731)
(-3.60772e-15 -1.1732 13.7113)
(-6.99949e-16 -2.42107 15.1622)
(1.29805e-15 -3.14996 17.225)
(-2.36538e-15 -3.28062 19.2489)
(2.36341e-15 -2.95414 20.9984)
(9.97312e-15 -2.34538 22.3743)
(1.54567e-14 -1.56205 23.3295)
(1.6348e-14 -0.722499 23.7973)