/*--------------------------------*- C++ -*----------------------------------*\
| =========                 |                                                 |
| \\      /  F ield         | OpenFOAM: The Open Source CFD Toolbox           |
|  \\    /   O peration     | Version:  4.1                                   |
|   \\  /    A nd           | Web:      www.OpenFOAM.org                      |
|    \\/     M anipulation  |                                                 |
\*---------------------------------------------------------------------------*/
FoamFile
{
    version     2.0;
    format      ascii;
    class       volScalarField;
    location    "1700";
    object      omega;
}
// * * * * * * * * * * * * * * * * * * * * * * * * * * * * * * * * * * * * * //

dimensions      [0 0 -1 0 0 0 0];

internalField   nonuniform List<scalar> 
6820
(
7254.63
8569.06
9629.25
10283
10668.4
10885.8
10995.8
11034.9
11026.8
10987.3
10927.3
10854.4
10774
10689.7
10604.1
10519.1
10435.8
10355
10277.3
10202.9
10131.9
10064.5
10000.5
9939.92
9882.59
9828.39
9777.15
9728.76
9682.88
9640.08
9596.68
9568.78
9476.74
600.799
1554.22
2092.91
2435.19
2698.34
2895.12
3033.36
3126.97
3188.98
3229.02
3253.96
3268.67
3276.59
3280.08
3280.77
3279.75
3277.78
3275.36
3272.82
3270.38
3268.18
3266.28
3264.73
3263.55
3262.74
3262.29
3262.23
3262.54
3263.31
3264.57
3266.52
3269.1
3274.44
107.108
368.908
596.394
767.386
894.981
993.334
1070.57
1131.54
1179.69
1217.64
1247.46
1270.8
1289.01
1303.19
1314.18
1322.7
1329.28
1334.37
1338.3
1341.35
1343.75
1345.65
1347.2
1348.5
1349.63
1350.67
1351.66
1352.64
1353.66
1354.76
1355.96
1357.3
1358.99
37.6577
108.378
189.201
265.511
332.231
389.334
437.981
479.462
514.908
545.244
571.226
593.485
612.563
628.92
642.954
655.003
665.358
674.268
681.945
688.572
694.303
699.272
703.59
707.355
710.649
713.545
716.102
718.374
720.407
722.243
723.921
725.474
726.95
23.8008
47.5371
77.7008
109.824
141.237
170.722
197.836
222.517
244.874
265.072
283.289
299.703
314.482
327.786
339.761
350.542
360.253
369.004
376.895
384.019
390.455
396.276
401.549
406.331
410.675
414.627
418.229
421.519
424.532
427.3
429.851
432.212
434.419
19.8177
29.4751
42.5079
57.2096
72.4554
87.572
102.186
116.107
129.248
141.581
153.109
163.852
173.844
183.124
191.734
199.716
207.113
213.967
220.316
226.2
231.654
236.711
241.402
245.758
249.804
253.566
257.067
260.328
263.371
266.213
268.873
271.366
273.714
18.4341
22.8152
29.1685
36.6489
44.6826
52.9063
61.0978
69.1228
76.901
84.3847
91.5472
98.3755
104.866
111.022
116.85
122.361
127.566
132.478
137.113
141.483
145.603
149.486
153.148
156.6
159.855
162.926
165.825
168.561
171.147
173.592
175.906
178.097
180.177
17.9115
19.9902
23.3042
27.4134
31.9742
36.7598
41.6266
46.4842
51.2744
55.9589
60.5126
64.9193
69.1693
73.2571
77.1807
80.9402
84.5377
87.9764
91.2605
94.3949
97.3847
100.236
102.953
105.543
108.012
110.365
112.607
114.744
116.783
118.727
120.582
122.352
124.044
17.7059
18.7013
20.4734
22.8216
25.5371
28.4654
31.5039
34.5854
37.6658
40.7152
43.713
46.645
49.5016
52.2762
54.9648
57.5649
60.0756
62.4967
64.829
67.0737
69.2328
71.3081
73.3022
75.2174
77.0563
78.8218
80.5165
82.1432
83.7047
85.2035
86.6425
88.0241
89.351
17.6233
18.0951
19.0401
20.3949
22.0449
23.887
25.8451
27.8668
29.9162
31.9684
34.006
36.0168
37.9918
39.925
41.8118
43.6493
45.4355
47.1692
48.8499
50.4776
52.0526
53.5755
55.0472
56.4686
57.841
59.1657
60.4439
61.677
62.8666
64.0139
65.1205
66.1876
67.2166
17.5896
17.8082
18.3025
19.0753
20.0762
21.243
22.5218
23.8719
25.2637
26.6759
28.0933
29.5047
30.9021
32.2796
33.6328
34.9585
36.2545
37.5192
38.7515
39.9508
41.1168
42.2494
43.3488
44.4153
45.4494
46.4516
47.4226
48.363
49.2735
50.155
51.0082
51.8338
52.6326
17.5758
17.6732
17.924
18.3539
18.9503
19.682
20.5146
21.4186
22.3704
23.3521
24.3503
25.3549
26.3586
27.3555
28.3415
29.3133
30.2685
31.2054
32.1226
33.0192
33.8945
34.7481
35.5799
36.3898
37.1778
37.9442
38.6891
39.4128
40.1158
40.7983
41.4608
42.1038
42.7275
17.5702
17.6104
17.7324
17.9633
18.3084
18.7568
19.2901
19.889
20.5362
21.2175
21.9217
22.6397
23.3649
24.0919
24.8165
25.5356
26.2467
26.9479
27.6377
28.3151
28.9792
29.6294
30.2652
30.8865
31.4929
32.0845
32.6612
33.2232
33.7705
34.3033
34.8218
35.3262
35.8167
17.5678
17.5817
17.6374
17.7559
17.9479
18.2137
18.5461
18.9344
19.3672
19.8343
20.3268
20.8373
21.3597
21.8894
22.4224
22.9557
23.4869
24.014
24.5354
25.0501
25.5569
26.0552
26.5444
27.024
27.4938
27.9536
28.4031
28.8424
29.2714
29.69
30.0985
30.4967
30.8848
17.5669
17.5687
17.5913
17.6483
17.7501
17.9012
18.1009
18.3448
18.6268
18.9402
19.2785
19.6362
20.0084
20.3909
20.7804
21.174
21.5694
21.9647
22.3585
22.7494
23.1365
23.5189
23.8959
24.2672
24.6321
24.9905
25.342
25.6866
26.024
26.3542
26.6771
26.9928
27.3011
17.5665
17.563
17.5695
17.5941
17.6444
17.7258
17.8405
17.9877
18.1651
18.369
18.5955
18.8405
19.1005
19.3722
19.6527
19.9397
20.2311
20.5251
20.8204
21.1156
21.4098
21.7021
21.9918
22.2784
22.5614
22.8405
23.1152
23.3853
23.6508
23.9113
24.1668
24.4172
24.6625
17.5663
17.5605
17.5594
17.5675
17.5897
17.6303
17.6923
17.7769
17.8837
18.0113
18.1577
18.3205
18.4972
18.6856
18.8834
19.0888
19.2999
19.5153
19.7338
19.9541
20.1754
20.3968
20.6176
20.8373
21.0553
21.2713
21.485
21.6959
21.9039
22.1088
22.3104
22.5086
22.7033
17.5662
17.5595
17.5549
17.5548
17.5621
17.5799
17.6107
17.6561
17.7169
17.7929
17.8836
17.9876
18.1036
18.2302
18.3657
18.5089
18.6583
18.8128
18.9713
19.1329
19.2967
19.4619
19.628
19.7944
19.9605
20.1261
20.2906
20.4539
20.6157
20.7757
20.9338
21.0898
21.2435
17.5662
17.559
17.5529
17.5489
17.5487
17.5542
17.5672
17.5891
17.6211
17.6636
17.7166
17.7799
17.8528
17.9345
18.0241
18.1207
18.2233
18.3311
18.4432
18.559
18.6776
18.7985
18.9211
19.045
19.1696
19.2947
19.4198
19.5447
19.6691
19.7928
19.9155
20.0372
20.1576
17.5662
17.5588
17.552
17.5462
17.5424
17.5415
17.5447
17.5532
17.5679
17.5894
17.6181
17.6542
17.6975
17.7477
17.8043
17.8668
17.9347
18.0074
18.0842
18.1648
18.2484
18.3347
18.4233
18.5136
18.6053
18.698
18.7916
18.8857
18.98
19.0743
19.1685
19.2624
19.3558
17.5662
17.5588
17.5516
17.5451
17.5395
17.5354
17.5335
17.5346
17.5394
17.5483
17.562
17.5807
17.6044
17.6332
17.667
17.7055
17.7484
17.7954
17.8462
17.9004
17.9576
18.0175
18.0798
18.1441
18.2101
18.2776
18.3463
18.416
18.4865
18.5576
18.629
18.7006
18.7724
17.5662
17.5587
17.5515
17.5445
17.5381
17.5325
17.5281
17.5253
17.5246
17.5265
17.5312
17.5392
17.5506
17.5656
17.5843
17.6065
17.6322
17.6612
17.6934
17.7286
17.7666
17.807
17.8498
17.8946
17.9413
17.9896
18.0394
18.0905
18.1426
18.1956
18.2494
18.3038
18.3587
17.5662
17.5587
17.5514
17.5443
17.5376
17.5313
17.5256
17.5209
17.5174
17.5153
17.5151
17.517
17.5211
17.5277
17.5369
17.5487
17.5632
17.5804
17.6002
17.6225
17.6471
17.6741
17.7031
17.7342
17.7671
17.8017
17.8378
17.8753
17.914
17.9539
17.9947
18.0364
18.0788
17.5662
17.5587
17.5514
17.5442
17.5373
17.5307
17.5245
17.5189
17.514
17.5101
17.5074
17.506
17.5063
17.5083
17.5122
17.5181
17.5261
17.5363
17.5486
17.563
17.5795
17.5981
17.6186
17.6409
17.665
17.6907
17.718
17.7467
17.7767
17.8079
17.8402
17.8735
17.9077
17.5662
17.5587
17.5514
17.5442
17.5372
17.5306
17.5242
17.5183
17.513
17.5084
17.5048
17.5022
17.501
17.5012
17.503
17.5065
17.5117
17.5189
17.5279
17.5389
17.5517
17.5664
17.5829
17.6012
17.6212
17.6427
17.6657
17.6902
17.716
17.743
17.7711
17.8002
17.8303
17.5662
17.5587
17.5514
17.5442
17.5373
17.5307
17.5244
17.5187
17.5136
17.5094
17.5062
17.5041
17.5034
17.5042
17.5067
17.5108
17.5168
17.5246
17.5343
17.5459
17.5593
17.5746
17.5917
17.6104
17.6308
17.6528
17.6762
17.701
17.727
17.7543
17.7826
17.8119
17.8422
17.5662
17.5587
17.5514
17.5443
17.5376
17.5312
17.5255
17.5205
17.5166
17.5139
17.5127
17.5131
17.5153
17.5194
17.5256
17.5338
17.5442
17.5568
17.5714
17.5881
17.6068
17.6274
17.6498
17.674
17.6998
17.7271
17.7558
17.7858
17.817
17.8493
17.8826
17.9167
17.9517
17.5662
17.5587
17.5515
17.5446
17.5383
17.5328
17.5283
17.5254
17.5242
17.5251
17.5284
17.5344
17.543
17.5544
17.5687
17.5858
17.6056
17.6281
17.6531
17.6805
17.71
17.7417
17.7753
17.8106
17.8475
17.8859
17.9255
17.9663
18.0082
18.0509
18.0944
18.1386
18.1834
17.5662
17.5588
17.5518
17.5455
17.5403
17.5368
17.5355
17.5371
17.542
17.5507
17.5634
17.5803
17.6014
17.6267
17.656
17.689
17.7256
17.7655
17.8084
17.8539
17.902
17.9521
18.0042
18.0579
18.1131
18.1695
18.227
18.2853
18.3443
18.4039
18.4638
18.5241
18.5847
17.5663
17.5591
17.5527
17.548
17.5458
17.5473
17.5535
17.5653
17.5834
17.6079
17.6392
17.677
17.7211
17.771
17.8263
17.8865
17.9509
18.0192
18.0908
18.1651
18.2419
18.3207
18.401
18.4827
18.5654
18.6488
18.7328
18.817
18.9014
18.9857
19.0699
19.1538
19.2372
17.5663
17.5598
17.5555
17.5552
17.5611
17.5751
17.5988
17.6332
17.6786
17.7349
17.8015
17.8776
17.9624
18.0547
18.1535
18.2578
18.3668
18.4796
18.5954
18.7136
18.8335
18.9548
19.0768
19.1992
19.3218
19.4441
19.566
19.6872
19.8076
19.927
20.0452
20.1622
20.278
17.5666
17.5622
17.5642
17.5767
17.6039
17.6486
17.7124
17.7951
17.896
18.0132
18.145
18.289
18.4433
18.606
18.7753
18.9497
19.1279
19.3087
19.4912
19.6745
19.8581
20.0413
20.2236
20.4047
20.5843
20.7619
20.9376
21.111
21.282
21.4505
21.6165
21.7799
21.9405
17.5674
17.5706
17.5924
17.6417
17.7245
17.8427
17.995
18.1778
18.3868
18.6172
18.8646
19.125
19.3951
19.6719
19.953
20.2365
20.5208
20.8047
21.0871
21.3673
21.6445
21.9184
22.1886
22.4546
22.7164
22.9737
23.2264
23.4744
23.7178
23.9564
24.1903
24.4195
24.644
17.5706
17.6016
17.687
17.8408
18.0649
18.3527
18.6933
19.0751
19.4875
19.9213
20.3693
20.8257
21.286
21.7468
22.2053
22.6598
23.1087
23.5511
23.9861
24.4133
24.8323
25.2428
25.6447
26.038
26.4226
26.7986
27.1661
27.5251
27.8759
28.2184
28.553
28.8796
29.1986
17.5854
17.7219
18.012
18.4558
19.0269
19.692
20.4205
21.1884
21.9778
22.7761
23.5742
24.3656
25.1458
25.912
26.6623
27.3959
28.112
28.8104
29.4912
30.1544
30.8003
31.4292
32.0414
32.6374
33.2174
33.782
34.3316
34.8665
35.3873
35.8942
36.3878
36.8683
37.3363
17.6614
18.2163
19.1615
20.3924
21.7983
23.2954
24.8285
26.3633
27.8794
29.3645
30.811
32.214
33.5724
34.8867
36.1579
37.3876
38.5771
39.7282
40.8422
41.9207
42.965
43.9766
44.9566
45.9063
46.8269
47.7195
48.585
49.4246
50.2392
51.0296
51.7968
52.5417
53.265
18.1027
20.3856
23.4853
26.9261
30.4414
33.9034
37.2583
40.4818
43.5648
46.506
49.3034
51.9687
54.5134
56.9472
59.2786
61.5146
63.6615
65.7245
67.7085
69.6178
71.4563
73.2275
74.9347
76.5811
78.1693
79.7021
81.182
82.6114
83.9924
85.3272
86.6178
87.8661
89.0739
21.2182
31.4407
42.4859
53.1245
62.9728
72.0352
80.4369
88.194
95.3421
101.98
108.198
114.053
119.587
124.83
129.807
134.537
139.039
143.329
147.42
151.324
155.054
158.62
162.033
165.3
168.431
171.434
174.315
177.082
179.741
182.299
184.76
187.13
189.415
59.9537
123.961
170.318
207.141
238.336
266.971
293.908
319.086
342.453
364.002
383.806
401.992
418.711
434.116
448.348
461.537
473.799
485.233
495.929
505.963
515.403
524.308
532.729
540.71
548.292
555.509
562.392
568.969
575.263
581.296
587.089
592.657
598.022
1719.4
1778.23
1839.24
1895.41
1945.93
1992.23
2035.28
2075.52
2113.26
2148.7
2182.04
2213.4
2242.93
2270.74
2296.93
2321.61
2344.85
2366.75
2387.37
2406.81
2425.12
2442.37
2458.63
2473.95
2488.38
2501.98
2514.8
2526.88
2538.26
2548.99
2559.1
2568.63
2577.62
9372.75
8892
8341.22
7779.94
7245.1
6750.75
6302.6
5898.88
5534.45
5203.46
4900.86
4622.88
4366.8
4130.66
3912.86
3711.95
3526.58
3355.42
3197.2
3050.76
2915.03
2789.05
2671.89
2562.7
2460.65
2364.98
2274.95
2189.89
2109.19
2032.31
1958.75
1888.08
1819.92
1753.92
1689.81
1627.31
1566.22
1506.36
1447.58
1389.77
1332.85
1276.77
1221.5
1167.04
1113.42
1060.7
1008.94
958.227
908.677
860.402
813.529
768.185
724.499
682.591
642.572
604.538
568.565
534.712
503.01
473.471
446.081
420.804
397.584
376.349
357.009
339.466
323.611
309.331
296.509
285.028
274.775
265.637
257.509
250.289
243.881
238.197
233.153
228.671
224.681
221.117
217.92
215.033
212.409
210.002
207.773
205.686
203.711
201.82
199.991
198.202
196.438
194.682
192.924
191.153
189.36
187.536
185.685
183.773
181.961
179.23
3276.09
3322.82
3382.41
3440.34
3503.95
3571.04
3634.28
3685.25
3717.16
3725.65
3709.02
3667.79
3604.17
3521.49
3423.72
3314.98
3199.25
3080.06
2960.32
2842.19
2727.18
2616.17
2509.62
2407.65
2310.19
2217.07
2128.07
2042.92
1961.35
1883.09
1807.87
1735.41
1665.46
1597.78
1532.17
1468.42
1406.39
1345.94
1286.94
1229.32
1173.02
1118
1064.25
1011.76
960.572
910.721
862.267
815.277
769.831
726.012
683.904
643.589
605.143
568.634
534.116
501.626
471.186
442.799
416.45
392.105
369.713
349.21
330.516
313.543
298.194
284.368
271.959
260.862
250.972
242.187
234.408
227.541
221.498
216.194
211.55
207.494
203.957
200.875
198.189
195.846
193.793
191.986
190.381
188.94
187.63
186.417
185.276
184.181
183.113
182.052
180.983
179.893
178.772
177.609
176.397
175.129
173.809
172.406
171.055
168.961
1361.15
1366.32
1375.38
1387.14
1401.08
1417.33
1436.71
1460.82
1491.27
1528.83
1573.46
1624.2
1679.12
1735.48
1789.96
1839.07
1879.6
1909.01
1925.74
1929.28
1920.13
1899.52
1869.19
1831.04
1786.9
1738.42
1686.96
1633.59
1579.1
1524.1
1469.02
1414.16
1359.75
1305.94
1252.85
1200.55
1149.12
1098.59
1049.01
1000.42
952.844
906.34
860.952
816.732
773.739
732.036
691.692
652.773
615.349
579.486
545.244
512.676
481.827
452.728
425.4
399.847
376.061
354.016
333.678
314.995
297.907
282.345
268.231
255.484
244.018
233.746
224.582
216.44
209.237
202.894
197.333
192.483
188.275
184.646
181.536
178.888
176.649
174.77
173.204
171.907
170.84
169.962
169.24
168.64
168.132
167.689
167.287
166.903
166.519
166.118
165.686
165.209
164.679
164.085
163.422
162.681
161.867
160.955
160.049
158.574
728.59
730.516
732.562
734.647
736.77
739.063
741.761
745.057
749.166
754.64
762.073
772.042
785.048
801.465
821.473
844.982
871.583
900.515
930.684
960.739
989.199
1014.61
1035.69
1051.48
1061.38
1065.18
1063.01
1055.25
1042.49
1025.36
1004.53
980.654
954.305
925.999
896.18
865.225
833.461
801.162
768.569
735.887
703.301
670.971
639.046
607.657
576.928
546.969
517.883
489.764
462.694
436.746
411.984
388.457
366.204
345.252
325.614
307.29
290.27
274.532
260.043
246.763
234.644
223.633
213.673
204.702
196.661
189.486
183.117
177.495
172.562
168.262
164.543
161.354
158.65
156.384
154.515
153.001
151.806
150.892
150.224
149.769
149.494
149.369
149.364
149.452
149.608
149.806
150.026
150.248
150.452
150.625
150.751
150.819
150.818
150.739
150.577
150.323
149.979
149.527
149.042
148.157
436.804
439.413
441.909
444.168
446.113
447.759
449.172
450.448
451.65
452.883
454.289
456.027
458.259
461.152
464.865
469.549
475.327
482.288
490.459
499.794
510.154
521.295
532.877
544.472
555.596
565.746
574.441
581.261
585.878
588.073
587.737
584.869
579.553
571.943
562.241
550.677
537.494
522.937
507.244
490.641
473.343
455.546
437.433
419.17
400.911
382.794
364.943
347.47
330.472
314.035
298.232
283.122
268.753
255.16
242.367
230.387
219.225
208.875
199.323
190.551
182.534
175.242
168.644
162.705
157.389
152.662
148.487
144.828
141.651
138.923
136.612
134.685
133.115
131.872
130.929
130.259
129.836
129.634
129.629
129.795
130.107
130.543
131.077
131.687
132.352
133.049
133.759
134.464
135.146
135.791
136.384
136.912
137.366
137.736
138.014
138.194
138.275
138.24
138.141
137.804
276.274
279.067
281.748
284.257
286.538
288.575
290.382
291.985
293.417
294.708
295.9
297.034
298.15
299.286
300.481
301.771
303.193
304.785
306.58
308.609
310.893
313.441
316.242
319.264
322.445
325.699
328.91
331.941
334.641
336.855
338.432
339.236
339.159
338.118
336.066
332.99
328.904
323.854
317.906
311.144
303.664
295.571
286.972
277.976
268.691
259.219
249.658
240.099
230.625
221.309
212.22
203.413
194.937
186.832
179.129
171.851
165.015
158.63
152.7
147.224
142.195
137.605
133.442
129.693
126.341
123.371
120.764
118.504
116.574
114.954
113.63
112.582
111.796
111.254
110.94
110.838
110.932
111.203
111.636
112.212
112.914
113.723
114.619
115.585
116.602
117.651
118.713
119.773
120.814
121.82
122.777
123.673
124.497
125.237
125.887
126.436
126.885
127.218
127.462
127.619
182.467
184.982
187.416
189.743
191.935
193.976
195.866
197.611
199.221
200.707
202.082
203.359
204.548
205.658
206.692
207.656
208.552
209.382
210.152
210.866
211.531
212.155
212.743
213.303
213.836
214.34
214.807
215.219
215.553
215.777
215.85
215.729
215.37
214.725
213.754
212.422
210.702
208.577
206.041
203.101
199.772
196.078
192.055
187.742
183.183
178.428
173.526
168.526
163.478
158.428
153.421
148.496
143.69
139.035
134.557
130.281
126.223
122.399
118.819
115.49
112.417
109.601
107.041
104.735
102.679
100.868
99.2955
97.955
96.8394
95.9412
95.2527
94.7661
94.4731
94.3656
94.4348
94.6717
95.0667
95.6096
96.2894
97.0941
98.0111
99.0267
100.127
101.296
102.519
103.779
105.062
106.35
107.63
108.885
110.102
111.268
112.37
113.397
114.34
115.189
115.941
116.584
117.119
117.707
125.922
127.997
130.024
131.989
133.877
135.678
137.389
139.01
140.543
141.99
143.356
144.645
145.858
146.996
148.057
149.038
149.935
150.742
151.455
152.07
152.583
152.993
153.301
153.507
153.614
153.626
153.545
153.374
153.115
152.765
152.323
151.781
151.133
150.367
149.474
148.441
147.257
145.913
144.401
142.718
140.863
138.84
136.655
134.321
131.851
129.265
126.582
123.824
121.014
118.177
115.336
112.514
109.732
107.013
104.373
101.829
99.3968
97.0879
94.913
92.8805
90.9969
89.2672
87.6949
86.2821
85.0299
83.9384
83.007
82.2344
81.6189
81.1583
80.8503
80.692
80.6805
80.8123
81.0839
81.4908
82.0284
82.6911
83.4726
84.3656
85.3617
86.4516
87.6249
88.87
90.1747
91.5259
92.9099
94.3127
95.7202
97.1183
98.4932
99.8316
101.121
102.349
103.506
104.58
105.566
106.455
107.225
108.172
90.8329
92.4813
94.1021
95.6885
97.2326
98.7283
100.172
101.563
102.899
104.181
105.41
106.586
107.708
108.776
109.786
110.735
111.617
112.428
113.162
113.812
114.374
114.844
115.217
115.492
115.669
115.746
115.726
115.611
115.403
115.105
114.721
114.252
113.701
113.068
112.353
111.557
110.678
109.717
108.672
107.542
106.33
105.036
103.663
102.217
100.702
99.1266
97.4996
95.831
94.1319
92.4143
90.6903
88.9726
87.2734
85.6049
83.9786
82.4052
80.8947
79.4561
78.0972
76.8251
75.6457
74.564
73.5841
72.7094
71.9424
71.2852
70.7393
70.3055
69.9848
69.7773
69.6833
69.7027
69.8352
70.0803
70.4371
70.9045
71.4807
72.1634
72.9497
73.8357
74.8166
75.8866
77.0387
78.2649
79.556
80.9018
82.2913
83.7127
85.1535
86.6011
88.0424
89.4647
90.8553
92.202
93.4937
94.7187
95.8698
96.9378
97.8858
99.1134
68.3714
69.6625
70.9391
72.1975
73.4332
74.6424
75.8224
76.9715
78.0883
79.1719
80.222
81.2379
82.2185
83.1622
84.0664
84.9279
85.743
86.5072
87.2157
87.8636
88.4461
88.9589
89.3978
89.7598
90.0423
90.2438
90.3637
90.4021
90.3601
90.2393
90.0418
89.7702
89.427
89.0152
88.5374
87.9962
87.3941
86.7335
86.0166
85.2458
84.4235
83.5524
82.6355
81.6764
80.679
79.6479
78.5883
77.5061
76.4074
75.2991
74.1883
73.0822
71.9882
70.9138
69.8661
68.8521
67.8784
66.9511
66.076
65.2583
64.5025
63.8128
63.1928
62.6457
62.1742
61.7806
61.4669
61.235
61.0864
61.0224
61.0443
61.1533
61.3503
61.6363
62.012
62.478
63.0343
63.6808
64.4167
65.2407
66.1505
67.1433
68.2148
69.3602
70.573
71.8462
73.1713
74.539
75.9392
77.361
78.7929
80.2232
81.6399
83.031
84.3854
85.6912
86.9398
88.123
89.1902
90.6199
53.5323
54.5423
55.5456
56.5399
57.5225
58.491
59.4435
60.3784
61.2945
62.1908
63.0665
63.9207
64.7523
65.5597
66.3411
67.094
67.8155
68.5023
69.1509
69.7575
70.3183
70.8296
71.2879
71.6901
72.0335
72.3159
72.5359
72.6925
72.7853
72.8148
72.7816
72.687
72.5329
72.3213
72.0544
71.7348
71.3651
70.948
70.4862
69.9827
69.4402
68.8618
68.2506
67.6098
66.9429
66.2536
65.5457
64.8234
64.091
63.3531
62.6145
61.8799
61.1543
60.4426
59.7496
59.0801
58.4387
57.8296
57.257
56.7247
56.2361
55.7944
55.4026
55.0633
54.7788
54.5513
54.3827
54.275
54.2297
54.2485
54.3331
54.4849
54.7055
54.9964
55.3591
55.7949
56.305
56.8904
57.5517
58.2892
59.1025
59.9906
60.9517
61.9832
63.0815
64.2419
65.4587
66.7251
68.0334
69.3749
70.7402
72.119
73.5009
74.8747
76.2298
77.5546
78.8399
80.0787
81.2105
82.7659
43.4322
44.2258
45.0172
45.8049
46.5871
47.3623
48.1291
48.8863
49.6329
50.3679
51.0906
51.8001
52.4954
53.1753
53.8383
54.4827
55.1063
55.7067
56.2814
56.8276
57.3424
57.823
58.2665
58.6705
59.0324
59.3502
59.6223
59.8471
60.0239
60.1521
60.2317
60.2631
60.2469
60.1844
60.0768
59.926
59.7337
59.5023
59.2339
58.9311
58.5963
58.2322
57.8417
57.4275
56.9927
56.5403
56.0735
55.5956
55.11
54.6201
54.1296
53.6419
53.1606
52.6893
52.2316
51.7908
51.3703
50.9733
50.6028
50.2615
49.9522
49.6773
49.4391
49.2396
49.0808
48.9644
48.8923
48.8659
48.8869
48.9568
49.0772
49.2496
49.4757
49.757
50.0954
50.4924
50.9497
51.4689
52.0512
52.6979
53.4098
54.1871
55.0297
55.9367
56.9065
57.9367
59.0236
60.1631
61.3497
62.577
63.8377
65.1237
66.4261
67.7354
69.042
70.3353
71.6061
72.8486
73.9965
75.6075
36.3724
37
37.6279
38.255
38.8802
39.5025
40.121
40.7346
41.3425
41.9441
42.5385
43.1252
43.7032
44.2717
44.8294
45.3752
45.9074
46.4244
46.9244
47.4052
47.8648
48.301
48.7118
49.0951
49.4488
49.7713
50.061
50.3165
50.5367
50.7209
50.8685
50.9794
51.0537
51.0919
51.0945
51.0627
50.9976
50.9006
50.7734
50.6178
50.4358
50.2295
50.0011
49.7529
49.4875
49.2074
48.915
48.6132
48.3046
47.9921
47.6782
47.366
47.0581
46.7572
46.4662
46.1875
45.9238
45.6773
45.4505
45.2455
45.0642
44.9086
44.7805
44.6814
44.6129
44.5764
44.5732
44.6049
44.6725
44.7776
44.9214
45.1054
45.3311
45.5999
45.9136
46.2738
46.6822
47.1406
47.6506
48.2137
48.8314
49.5047
50.2346
51.0212
51.8645
52.7633
53.7163
54.7209
55.7738
56.8708
58.0066
59.1753
60.37
61.5829
62.8059
64.0298
65.2462
66.4506
67.5743
69.1806
31.3256
31.8248
32.3256
32.8274
33.3295
33.8311
34.3315
34.8299
35.3258
35.8185
36.3076
36.7923
37.272
37.7461
38.2137
38.6737
39.1252
39.5669
39.9975
40.4154
40.8192
41.2073
41.578
41.93
42.2615
42.5712
42.8577
43.1198
43.3567
43.5673
43.7511
43.9077
44.0368
44.1385
44.2131
44.2609
44.2827
44.2794
44.2521
44.2019
44.1303
44.0389
43.9294
43.8035
43.6633
43.5106
43.3475
43.1763
42.9991
42.818
42.6354
42.4534
42.2741
42.0999
41.9328
41.7748
41.628
41.4941
41.3749
41.2722
41.1874
41.122
41.0773
41.0547
41.0552
41.08
41.1301
41.2067
41.3107
41.4433
41.6056
41.7987
42.0239
42.2826
42.5762
42.9062
43.2743
43.682
44.1311
44.6232
45.1599
45.7428
46.3731
47.0519
47.7798
48.5571
49.3833
50.2576
51.1782
52.1427
53.1477
54.1893
55.2623
56.361
57.4789
58.6086
59.7427
60.8782
61.9471
63.5001
27.6522
28.0508
28.452
28.8551
29.2597
29.6653
30.0714
30.4773
30.8826
31.2869
31.6897
32.0904
32.4887
32.8839
33.2755
33.6626
34.0446
34.4205
34.7893
35.1501
35.5017
35.8429
36.1726
36.4896
36.7927
37.0809
37.353
37.6081
37.8453
38.0638
38.2631
38.4426
38.6021
38.7413
38.8603
38.9593
39.0385
39.0985
39.1399
39.1636
39.1706
39.1619
39.1388
39.1026
39.0548
38.997
38.9306
38.8575
38.7794
38.6979
38.6149
38.532
38.4511
38.3739
38.302
38.237
38.1804
38.1338
38.0985
38.0757
38.0666
38.0724
38.094
38.1325
38.1885
38.2631
38.357
38.471
38.6058
38.7624
38.9416
39.1443
39.3716
39.6245
39.9042
40.2121
40.5495
40.918
41.3189
41.7541
42.2249
42.7332
43.2802
43.8674
44.496
45.1668
45.8802
46.6363
47.4346
48.2741
49.1529
50.0684
51.0175
51.9961
52.9994
54.0218
55.057
56.1038
57.097
58.5612
24.9424
25.2613
25.5831
25.9076
26.2343
26.5629
26.893
27.2241
27.5559
27.888
28.22
28.5517
28.8825
29.2121
29.54
29.8657
30.1885
30.5079
30.8231
31.1334
31.4381
31.7361
32.0268
32.3091
32.5823
32.8455
33.0979
33.3387
33.5672
33.7828
33.9848
34.173
34.3469
34.5063
34.6511
34.7812
34.897
34.9986
35.0864
35.1609
35.2229
35.273
35.3123
35.3416
35.362
35.3747
35.381
35.382
35.3793
35.374
35.3676
35.3615
35.3571
35.3556
35.3584
35.3667
35.3818
35.4047
35.4364
35.478
35.5303
35.5941
35.6702
35.7593
35.8619
35.9786
36.1101
36.2569
36.4195
36.5985
36.7946
37.0085
37.2409
37.4928
37.765
38.0586
38.3748
38.7147
39.0798
39.4715
39.8912
40.3404
40.8207
41.3334
41.8799
42.4614
43.0788
43.7328
44.4237
45.1513
45.9149
46.7132
47.5445
48.406
49.2946
50.2062
51.1361
52.0841
52.9898
54.3425
22.9262
23.1809
23.4389
23.6999
23.9637
24.2298
24.4981
24.7682
25.0399
25.3128
25.5867
25.8613
26.1362
26.4111
26.6858
26.9597
27.2326
27.5038
27.773
28.0395
28.3028
28.5623
28.8173
29.0673
29.3116
29.5494
29.7804
30.0037
30.2189
30.4256
30.6232
30.8113
30.9897
31.1581
31.3165
31.4647
31.6027
31.7308
31.8492
31.9582
32.0583
32.15
32.2339
32.3108
32.3815
32.4468
32.5076
32.565
32.6199
32.6735
32.7267
32.7807
32.8364
32.895
32.9574
33.0245
33.0973
33.1767
33.2633
33.3579
33.4611
33.5735
33.6956
33.8278
33.9705
34.1241
34.289
34.4655
34.654
34.8549
35.0685
35.2954
35.5361
35.7913
36.0617
36.348
36.6512
36.9722
37.3123
37.6726
38.0543
38.4588
38.8876
39.3418
39.823
40.3323
40.871
41.4401
42.0401
42.6717
43.3349
44.0292
44.7539
45.5075
46.2881
47.0929
47.9185
48.766
49.5802
50.8103
21.4202
21.6229
21.8289
22.0383
22.2506
22.4658
22.6835
22.9036
23.1258
23.3499
23.5757
23.8029
24.0314
24.2608
24.4909
24.7214
24.9521
25.1825
25.4124
25.6413
25.8688
26.0945
26.3179
26.5386
26.7561
26.97
27.1797
27.3849
27.5852
27.7802
27.9694
28.1528
28.3299
28.5006
28.6648
28.8224
28.9734
29.1179
29.2561
29.3882
29.5145
29.6354
29.7514
29.8629
29.9707
30.0752
30.1773
30.2777
30.3772
30.4765
30.5765
30.6779
30.7817
30.8885
30.999
31.1141
31.2344
31.3604
31.4927
31.6318
31.7781
31.932
32.0937
32.2635
32.4417
32.6284
32.8237
33.0279
33.2412
33.4636
33.6956
33.9373
34.1891
34.4514
34.7247
35.0097
35.307
35.6173
35.9416
36.2808
36.636
37.0083
37.3989
37.8091
38.2401
38.6931
39.1694
39.67
40.1959
40.748
41.3266
41.9321
42.5643
43.2226
43.906
44.613
45.3411
46.0924
46.817
47.923
20.2966
20.4568
20.6205
20.7876
20.9578
21.1311
21.3072
21.4861
21.6675
21.8512
22.0372
22.2252
22.415
22.6064
22.7994
22.9936
23.1888
23.3848
23.5814
23.7783
23.9751
24.1716
24.3675
24.5625
24.7561
24.9481
25.1382
25.3261
25.5114
25.6939
25.8734
26.0495
26.2223
26.3914
26.5569
26.7187
26.8767
27.0311
27.182
27.3295
27.4739
27.6155
27.7546
27.8916
28.027
28.1613
28.295
28.4286
28.5629
28.6983
28.8354
28.975
29.1176
29.2637
29.4139
29.5686
29.7285
29.8938
30.0649
30.2421
30.4256
30.6156
30.8123
31.0156
31.2258
31.4427
31.6664
31.8968
32.1341
32.3783
32.6293
32.8874
33.1527
33.4254
33.7059
33.9945
34.2917
34.5981
34.9144
35.2413
35.5795
35.9302
36.2943
36.6728
37.0668
37.4775
37.906
38.3535
38.8209
39.3091
39.819
40.3511
40.9057
41.4829
42.0824
42.7032
43.3441
44.0075
44.6491
45.6366
19.4642
19.5899
19.719
19.8514
19.9872
20.1262
20.2683
20.4132
20.561
20.7115
20.8646
21.0201
21.1779
21.338
21.5
21.664
21.8297
21.997
22.1657
22.3357
22.5066
22.6784
22.8508
23.0236
23.1965
23.3694
23.542
23.7142
23.8856
24.0562
24.2258
24.3943
24.5615
24.7273
24.8917
25.0547
25.2163
25.3766
25.5357
25.6938
25.8509
26.0075
26.1637
26.3199
26.4764
26.6336
26.792
26.9519
27.1139
27.2783
27.4457
27.6165
27.7911
27.9699
28.1534
28.3418
28.5354
28.7344
28.9392
29.1497
29.366
29.5883
29.8164
30.0503
30.2899
30.535
30.7856
31.0415
31.3025
31.5686
31.8397
32.1157
32.3966
32.6825
32.9736
33.2701
33.5723
33.8805
34.1952
34.5169
34.8464
35.1844
35.5316
35.889
36.2574
36.6379
37.0315
37.4392
37.862
38.3008
38.7566
39.2301
39.7219
40.2324
40.7616
41.3095
41.8752
42.4617
43.0294
43.9092
18.8562
18.954
19.0552
19.1598
19.2678
19.3789
19.4933
19.6108
19.7312
19.8546
19.9809
20.11
20.2417
20.376
20.5128
20.652
20.7935
20.9373
21.0831
21.2308
21.3804
21.5317
21.6845
21.8388
21.9944
22.1511
22.3089
22.4676
22.627
22.7872
22.9479
23.1091
23.2708
23.433
23.5955
23.7586
23.9221
24.0863
24.2511
24.4168
24.5835
24.7515
24.921
25.0922
25.2655
25.4412
25.6196
25.801
25.9859
26.1745
26.3672
26.5643
26.7662
26.973
27.1852
27.4028
27.626
27.8549
28.0895
28.3299
28.5761
28.8278
29.0849
29.3473
29.6147
29.8868
30.1635
30.4444
30.7292
31.0178
31.3098
31.6052
31.9038
32.2056
32.5104
32.8184
33.1297
33.4446
33.7632
34.0861
34.4136
34.7464
35.085
35.4301
35.7826
36.1433
36.5129
36.8926
37.2831
37.6853
38.1003
38.5287
38.9713
39.4287
39.9014
40.3895
40.8928
41.4144
41.9189
42.7049
18.4233
18.4993
18.5786
18.6613
18.7472
18.8365
18.929
19.0247
19.1235
19.2254
19.3305
19.4385
19.5495
19.6633
19.7801
19.8996
20.0219
20.1468
20.2744
20.4045
20.5371
20.672
20.8093
20.9489
21.0906
21.2344
21.3803
21.5282
21.678
21.8297
21.9832
22.1387
22.2959
22.4551
22.6162
22.7793
22.9444
23.1117
23.2813
23.4534
23.6282
23.8057
23.9864
24.1704
24.3579
24.5493
24.7448
24.9448
25.1494
25.359
25.5739
25.7942
26.0201
26.2519
26.4898
26.7337
26.9837
27.2398
27.502
27.7702
28.0441
28.3236
28.6083
28.898
29.1924
29.491
29.7935
30.0996
30.4087
30.7206
31.0349
31.3514
31.6697
31.9896
32.3111
32.634
32.9583
33.2841
33.6115
33.9408
34.2722
34.6062
34.9432
35.2838
35.6285
35.9782
36.3334
36.695
37.0638
37.4407
37.8264
38.2218
38.6277
39.0448
39.4737
39.9147
40.3681
40.8372
41.2895
41.9975
18.1292
18.189
18.252
18.3183
18.3879
18.4607
18.5368
18.6161
18.6987
18.7845
18.8735
18.9657
19.0611
19.1597
19.2613
19.3661
19.4739
19.5848
19.6987
19.8156
19.9355
20.0583
20.1841
20.3127
20.4443
20.5787
20.7159
20.856
20.999
21.1449
21.2936
21.4453
21.6
21.7577
21.9186
22.0827
22.2502
22.4211
22.5958
22.7742
22.9567
23.1434
23.3345
23.5303
23.731
23.9369
24.1482
24.3652
24.588
24.817
25.0523
25.294
25.5424
25.7974
26.0593
26.328
26.6034
26.8854
27.1739
27.4688
27.7696
28.0762
28.388
28.7049
29.0262
29.3515
29.6803
30.0122
30.3467
30.6832
31.0214
31.3608
31.701
32.0417
32.3827
32.7237
33.0646
33.4053
33.7458
34.0863
34.4268
34.7677
35.1093
35.4519
35.7961
36.1424
36.4914
36.8437
37.2001
37.5613
37.9281
38.3012
38.6815
39.0696
39.4664
39.8723
40.2877
40.716
41.1273
41.7733
17.9486
17.9976
18.0498
18.1052
18.1637
18.2255
18.2905
18.3589
18.4305
18.5054
18.5837
18.6652
18.7501
18.8383
18.9299
19.0248
19.123
19.2246
19.3295
19.4378
19.5495
19.6645
19.7829
19.9047
20.03
20.1588
20.291
20.4268
20.5662
20.7093
20.8561
21.0067
21.1613
21.3199
21.4826
21.6496
21.8211
21.9971
22.178
22.3639
22.5549
22.7514
22.9535
23.1614
23.3755
23.596
23.823
24.0568
24.2976
24.5456
24.8009
25.0637
25.3341
25.612
25.8976
26.1907
26.4912
26.7991
27.1139
27.4355
27.7634
28.0974
28.437
28.7815
29.1306
29.4837
29.8401
30.1994
30.5608
30.9239
31.288
31.6526