/*--------------------------------*- C++ -*----------------------------------*\
| =========                 |                                                 |
| \\      /  F ield         | OpenFOAM: The Open Source CFD Toolbox           |
|  \\    /   O peration     | Version:  4.1                                   |
|   \\  /    A nd           | Web:      www.OpenFOAM.org                      |
|    \\/     M anipulation  |                                                 |
\*---------------------------------------------------------------------------*/
FoamFile
{
    version     2.0;
    format      ascii;
    class       volVectorField;
    location    "1700";
    object      U;
}
// * * * * * * * * * * * * * * * * * * * * * * * * * * * * * * * * * * * * * //

dimensions      [0 1 -1 0 0 0 0];

internalField   nonuniform List<vector> 
6820
(
(7.12051 -2.89958 0)
(7.72183 -2.2784 0)
(7.93531 -1.28315 0)
(7.87961 -0.658565 0)
(7.73232 -0.320701 0)
(7.56973 -0.148361 0)
(7.41011 -0.0616839 0)
(7.26102 -0.0176566 0)
(7.12627 0.00481375 0)
(7.00567 0.0160265 0)
(6.89735 0.0212394 0)
(6.79956 0.0232369 0)
(6.71094 0.0235139 0)
(6.63034 0.0228813 0)
(6.55675 0.0217887 0)
(6.48932 0.02049 0)
(6.42735 0.0191283 0)
(6.37024 0.0177829 0)
(6.31748 0.0164961 0)
(6.26862 0.0152887 0)
(6.22329 0.0141693 0)
(6.18115 0.0131399 0)
(6.14189 0.0121985 0)
(6.10525 0.0113421 0)
(6.07098 0.0105673 0)
(6.03886 0.00987233 0)
(6.00866 0.0092586 0)
(5.98017 0.00872973 0)
(5.95317 0.00831127 0)
(5.92724 0.00799435 0)
(5.90245 0.00794907 0)
(5.87628 0.00804945 0)
(5.85595 0.00704292 0)
(7.59884 0.654127 0)
(7.43304 0.77761 0)
(7.36112 0.527756 0)
(7.34933 0.342769 0)
(7.39535 0.234375 0)
(7.45299 0.166654 0)
(7.49513 0.123346 0)
(7.51885 0.0959961 0)
(7.52909 0.078385 0)
(7.52978 0.0664998 0)
(7.52338 0.058123 0)
(7.51187 0.0520225 0)
(7.49681 0.0474355 0)
(7.47935 0.0438632 0)
(7.46028 0.0409847 0)
(7.44016 0.0385955 0)
(7.41941 0.0365617 0)
(7.39833 0.0347927 0)
(7.37715 0.0332263 0)
(7.35605 0.0318198 0)
(7.33515 0.0305429 0)
(7.31455 0.0293747 0)
(7.29431 0.0283002 0)
(7.27448 0.0273099 0)
(7.25511 0.0263982 0)
(7.2362 0.0255642 0)
(7.21778 0.0248135 0)
(7.19984 0.0241568 0)
(7.18242 0.0236307 0)
(7.16539 0.023248 0)
(7.14917 0.0232563 0)
(7.13276 0.0232953 0)
(7.11996 0.0260841 0)
(7.25567 -0.0497306 0)
(7.16457 -0.0746215 0)
(7.20132 -0.0871774 0)
(7.24037 -0.0571866 0)
(7.27477 -0.0216429 0)
(7.31088 0.00195993 0)
(7.34256 0.016625 0)
(7.36741 0.0264417 0)
(7.38683 0.0329448 0)
(7.40193 0.0369148 0)
(7.41321 0.039119 0)
(7.42121 0.0401886 0)
(7.42656 0.0405304 0)
(7.42979 0.0403921 0)
(7.4313 0.0399384 0)
(7.4314 0.0392847 0)
(7.43035 0.0385094 0)
(7.42838 0.0376643 0)
(7.42564 0.0367843 0)
(7.4223 0.0358933 0)
(7.41846 0.0350078 0)
(7.41422 0.0341396 0)
(7.40966 0.0332974 0)
(7.40485 0.0324885 0)
(7.39985 0.0317201 0)
(7.39469 0.0310006 0)
(7.38942 0.0303428 0)
(7.38405 0.029762 0)
(7.37864 0.0292978 0)
(7.37314 0.0289656 0)
(7.36773 0.0289509 0)
(7.36214 0.0291006 0)
(7.35749 0.0305661 0)
(7.29108 -0.0915081 0)
(7.22275 -0.0639328 0)
(7.23474 -0.0294728 0)
(7.25082 -0.00392882 0)
(7.2644 0.0156016 0)
(7.28272 0.0269931 0)
(7.30139 0.0329075 0)
(7.31764 0.0363623 0)
(7.33189 0.0384842 0)
(7.34452 0.0396064 0)
(7.35544 0.0400342 0)
(7.36469 0.0400438 0)
(7.37247 0.0397992 0)
(7.37899 0.0393851 0)
(7.38441 0.0388563 0)
(7.38888 0.038254 0)
(7.39251 0.0376069 0)
(7.39544 0.036934 0)
(7.39776 0.0362488 0)
(7.39956 0.0355609 0)
(7.4009 0.0348782 0)
(7.40186 0.0342068 0)
(7.40248 0.0335525 0)
(7.40281 0.0329209 0)
(7.4029 0.032319 0)
(7.40277 0.0317557 0)
(7.40247 0.0312445 0)
(7.402 0.0308023 0)
(7.4014 0.0304634 0)
(7.4007 0.0302533 0)
(7.39998 0.030287 0)
(7.39923 0.0305051 0)
(7.39891 0.031396 0)
(7.31214 -0.0522565 0)
(7.26645 -0.0334735 0)
(7.26326 -0.014842 0)
(7.26622 -0.00264925 0)
(7.27139 0.0101306 0)
(7.28196 0.0195671 0)
(7.29393 0.02526 0)
(7.3049 0.029048 0)
(7.31503 0.031786 0)
(7.32448 0.0336501 0)
(7.33312 0.0348221 0)
(7.34087 0.0355152 0)
(7.34779 0.0358754 0)
(7.35398 0.0359883 0)
(7.35951 0.0359152 0)
(7.36443 0.0357051 0)
(7.36882 0.0353953 0)
(7.37273 0.0350128 0)
(7.37621 0.0345782 0)
(7.37933 0.0341073 0)
(7.38211 0.0336131 0)
(7.3846 0.0331061 0)
(7.38684 0.0325956 0)
(7.38884 0.0320905 0)
(7.39065 0.0315999 0)
(7.39227 0.0311348 0)
(7.39375 0.0307091 0)
(7.39509 0.0303399 0)
(7.39633 0.0300544 0)
(7.3975 0.0298767 0)
(7.39867 0.0298694 0)
(7.3999 0.0300126 0)
(7.40141 0.0304813 0)
(7.32016 -0.0320514 0)
(7.28758 -0.0252461 0)
(7.28069 -0.0140964 0)
(7.27975 -0.00455689 0)
(7.28192 0.00650197 0)
(7.28854 0.0153386 0)
(7.29664 0.0211178 0)
(7.30441 0.0251353 0)
(7.31183 0.0281008 0)
(7.31895 0.0301962 0)
(7.32565 0.0315994 0)
(7.33184 0.0325109 0)
(7.33756 0.0330722 0)
(7.34283 0.0333708 0)
(7.34769 0.0334694 0)
(7.35218 0.0334178 0)
(7.35631 0.0332536 0)
(7.36013 0.0330049 0)
(7.36366 0.0326929 0)
(7.36694 0.0323343 0)
(7.36999 0.0319426 0)
(7.37284 0.031529 0)
(7.37549 0.0311033 0)
(7.37799 0.0306747 0)
(7.38033 0.0302526 0)
(7.38255 0.0298475 0)
(7.38466 0.0294717 0)
(7.38668 0.0291399 0)
(7.38864 0.0288714 0)
(7.39057 0.0286835 0)
(7.39253 0.0286064 0)
(7.39459 0.0286272 0)
(7.39689 0.0287915 0)
(7.32441 -0.0221713 0)
(7.30054 -0.0208446 0)
(7.2931 -0.0128343 0)
(7.29071 -0.00453444 0)
(7.29137 0.00495677 0)
(7.29565 0.0128544 0)
(7.3014 0.0183654 0)
(7.30722 0.0223271 0)
(7.31293 0.0252868 0)
(7.31854 0.0274295 0)
(7.32391 0.0289224 0)
(7.32898 0.0299412 0)
(7.33374 0.0306133 0)
(7.33821 0.0310217 0)
(7.34241 0.0312271 0)
(7.34636 0.031277 0)
(7.35007 0.0312078 0)
(7.35356 0.0310469 0)
(7.35686 0.0308156 0)
(7.35998 0.0305305 0)
(7.36293 0.0302053 0)
(7.36574 0.0298513 0)
(7.36842 0.0294783 0)
(7.37098 0.0290955 0)
(7.37344 0.0287119 0)
(7.37581 0.0283368 0)
(7.37811 0.0279805 0)
(7.38036 0.0276541 0)
(7.38258 0.0273699 0)
(7.38481 0.0271373 0)
(7.38709 0.0269659 0)
(7.38948 0.0268397 0)
(7.39206 0.0267494 0)
(7.32735 -0.0153979 0)
(7.30976 -0.0162702 0)
(7.30244 -0.0106187 0)
(7.29932 -0.00378576 0)
(7.29908 0.00416062 0)
(7.30187 0.0110836 0)
(7.30609 0.0162187 0)
(7.31062 0.0200413 0)
(7.31523 0.0229422 0)
(7.31983 0.0250882 0)
(7.32431 0.0266286 0)
(7.32859 0.0277136 0)
(7.33266 0.0284569 0)
(7.33654 0.0289368 0)
(7.34022 0.0292117 0)
(7.34372 0.0293273 0)
(7.34705 0.029319 0)
(7.35022 0.0292138 0)
(7.35325 0.0290328 0)
(7.35615 0.0287926 0)
(7.35893 0.0285069 0)
(7.3616 0.028187 0)
(7.36418 0.0278426 0)
(7.36668 0.0274823 0)
(7.3691 0.0271144 0)
(7.37147 0.0267469 0)
(7.37379 0.0263875 0)
(7.37608 0.0260437 0)
(7.37837 0.025722 0)
(7.38069 0.0254247 0)
(7.38307 0.0251496 0)
(7.38555 0.0248765 0)
(7.38818 0.0245766 0)
(7.32939 -0.0103228 0)
(7.31652 -0.0120772 0)
(7.30969 -0.0082968 0)
(7.30624 -0.00285071 0)
(7.30542 0.00374941 0)
(7.30719 0.00977466 0)
(7.31032 0.0144952 0)
(7.31393 0.0181312 0)
(7.31774 0.0209395 0)
(7.32163 0.0230574 0)
(7.32546 0.0246131 0)
(7.32918 0.0257342 0)
(7.33275 0.026521 0)
(7.33619 0.0270469 0)
(7.33948 0.0273674 0)
(7.34263 0.0275264 0)
(7.34565 0.027558 0)
(7.34856 0.0274888 0)
(7.35135 0.0273395 0)
(7.35405 0.0271268 0)
(7.35666 0.0268641 0)
(7.35919 0.0265624 0)
(7.36164 0.0262311 0)
(7.36404 0.0258784 0)
(7.36638 0.0255113 0)
(7.36869 0.0251364 0)
(7.37097 0.0247592 0)
(7.37324 0.0243838 0)
(7.37551 0.0240123 0)
(7.37783 0.0236418 0)
(7.3802 0.0232636 0)
(7.38266 0.0228559 0)
(7.38524 0.0223855 0)
(7.33074 -0.00670184 0)
(7.32148 -0.00859925 0)
(7.31542 -0.00610215 0)
(7.31195 -0.00180801 0)
(7.31077 0.00363807 0)
(7.31179 0.00883705 0)
(7.31411 0.0131152 0)
(7.31701 0.0165208 0)
(7.3202 0.0192022 0)
(7.32353 0.0212617 0)
(7.32687 0.0228046 0)
(7.33015 0.023937 0)
(7.33335 0.0247465 0)
(7.33644 0.0252999 0)
(7.33943 0.0256495 0)
(7.34231 0.0258368 0)
(7.34509 0.0258946 0)
(7.34778 0.0258486 0)
(7.35039 0.0257192 0)
(7.35291 0.0255225 0)
(7.35537 0.0252719 0)
(7.35776 0.0249779 0)
(7.3601 0.0246496 0)
(7.36239 0.0242943 0)
(7.36465 0.0239182 0)
(7.36688 0.0235262 0)
(7.3691 0.023122 0)
(7.37131 0.0227071 0)
(7.37354 0.0222802 0)
(7.3758 0.0218355 0)
(7.37812 0.0213611 0)
(7.38051 0.0208359 0)
(7.38299 0.0202285 0)
(7.33161 -0.00420187 0)
(7.32508 -0.00580981 0)
(7.31996 -0.00409966 0)
(7.31671 -0.000715157 0)
(7.31534 0.00374891 0)
(7.31583 0.00819246 0)
(7.31752 0.0120156 0)
(7.31985 0.0151569 0)
(7.32254 0.017681 0)
(7.32541 0.0196551 0)
(7.32835 0.0211605 0)
(7.33128 0.0222831 0)
(7.33416 0.0230974 0)
(7.33698 0.0236633 0)
(7.33972 0.0240288 0)
(7.34238 0.0242329 0)
(7.34497 0.0243064 0)
(7.34748 0.0242742 0)
(7.34993 0.0241558 0)
(7.35231 0.0239672 0)
(7.35463 0.0237209 0)
(7.35691 0.0234274 0)
(7.35914 0.023095 0)
(7.36134 0.0227303 0)
(7.36351 0.0223386 0)
(7.36567 0.0219235 0)
(7.36781 0.0214871 0)
(7.36996 0.021029 0)
(7.37213 0.020546 0)
(7.37432 0.0200306 0)
(7.37656 0.0194702 0)
(7.37885 0.0188456 0)
(7.3812 0.0181299 0)
(7.33217 -0.00250014 0)
(7.32765 -0.00362203 0)
(7.32352 -0.00234562 0)
(7.32064 0.000352469 0)
(7.31925 0.00400264 0)
(7.31938 0.0077713 0)
(7.3206 0.0111451 0)
(7.32246 0.0140011 0)
(7.32472 0.0163441 0)
(7.32721 0.0182095 0)
(7.32981 0.0196554 0)
(7.33245 0.0207489 0)
(7.33507 0.0215519 0)
(7.33765 0.0221167 0)
(7.34018 0.0224867 0)
(7.34266 0.0226974 0)
(7.34508 0.022778 0)
(7.34744 0.0227518 0)
(7.34975 0.0226376 0)
(7.35201 0.0224505 0)
(7.35422 0.0222029 0)
(7.3564 0.0219043 0)
(7.35854 0.0215627 0)
(7.36065 0.0211839 0)
(7.36274 0.0207724 0)
(7.36482 0.0203308 0)
(7.36689 0.0198598 0)
(7.36897 0.019358 0)
(7.37106 0.0188211 0)
(7.37317 0.0182411 0)
(7.37532 0.0176061 0)
(7.3775 0.0168995 0)
(7.37973 0.0160992 0)
(7.33251 -0.00135786 0)
(7.32945 -0.00195197 0)
(7.32626 -0.00087701 0)
(7.32384 0.00132868 0)
(7.32255 0.00432733 0)
(7.32248 0.0075107 0)
(7.32335 0.0104581 0)
(7.32485 0.0130214 0)
(7.32676 0.0151671 0)
(7.32892 0.0169049 0)
(7.33123 0.0182723 0)
(7.3336 0.0193195 0)
(7.33599 0.0200963 0)
(7.33837 0.0206474 0)
(7.34073 0.021011 0)
(7.34304 0.0212194 0)
(7.34532 0.0212991 0)
(7.34755 0.0212721 0)
(7.34974 0.0211561 0)
(7.35188 0.0209654 0)
(7.354 0.0207116 0)
(7.35608 0.0204038 0)
(7.35813 0.0200492 0)
(7.36016 0.0196531 0)
(7.36218 0.0192192 0)
(7.36418 0.0187493 0)
(7.36618 0.0182435 0)
(7.36819 0.0176994 0)
(7.3702 0.0171125 0)
(7.37223 0.0164753 0)
(7.37428 0.015777 0)
(7.37636 0.0150039 0)
(7.37846 0.0141385 0)
(7.33272 -0.000604434 0)
(7.33069 -0.00071406 0)
(7.32832 0.000299476 0)
(7.3264 0.00216777 0)
(7.3253 0.00466188 0)
(7.32514 0.00735298 0)
(7.32578 0.00991054 0)
(7.327 0.0121866 0)
(7.32862 0.0141273 0)
(7.33051 0.015724 0)
(7.33256 0.0169975 0)
(7.33471 0.0179834 0)
(7.33689 0.0187208 0)
(7.33909 0.0192466 0)
(7.34129 0.0195939 0)
(7.34346 0.0197914 0)
(7.3456 0.019863 0)
(7.34772 0.0198291 0)
(7.3498 0.0197059 0)
(7.35185 0.0195069 0)
(7.35387 0.019243 0)
(7.35587 0.0189225 0)
(7.35784 0.0185522 0)
(7.3598 0.0181366 0)
(7.36174 0.0176789 0)
(7.36367 0.0171804 0)
(7.3656 0.0166406 0)
(7.36753 0.016057 0)
(7.36946 0.0154251 0)
(7.37141 0.0147382 0)
(7.37336 0.0139872 0)
(7.37533 0.0131612 0)
(7.37731 0.0122465 0)
(7.33284 -0.000117247 0)
(7.33153 0.000175951 0)
(7.32984 0.00120131 0)
(7.3284 0.00284561 0)
(7.32753 0.00495904 0)
(7.32738 0.0072474 0)
(7.32788 0.00946051 0)
(7.3289 0.0114656 0)
(7.33029 0.0132019 0)
(7.33195 0.0146501 0)
(7.33379 0.0158186 0)
(7.33573 0.0167311 0)
(7.33774 0.0174175 0)
(7.33978 0.0179076 0)
(7.34183 0.0182295 0)
(7.34387 0.0184082 0)
(7.3459 0.0184651 0)
(7.3479 0.0184184 0)
(7.34989 0.0182832 0)
(7.35185 0.0180719 0)
(7.35379 0.0177944 0)
(7.3557 0.0174586 0)
(7.3576 0.0170704 0)
(7.35948 0.016634 0)
(7.36135 0.016152 0)
(7.36322 0.0156254 0)
(7.36507 0.0150534 0)
(7.36693 0.0144337 0)
(7.36878 0.0137621 0)
(7.37064 0.0130331 0)
(7.3725 0.0122391 0)
(7.37436 0.0113716 0)
(7.37622 0.0104205 0)
(7.33292 0.000190505 0)
(7.33209 0.000794651 0)
(7.33093 0.00186057 0)
(7.32991 0.00335706 0)
(7.32929 0.00518733 0)
(7.32921 0.00715299 0)
(7.32965 0.00907021 0)
(7.33053 0.010828 0)
(7.33175 0.0123679 0)
(7.33323 0.013666 0)
(7.33488 0.0147227 0)
(7.33666 0.0155531 0)
(7.33851 0.0161791 0)
(7.34041 0.0166246 0)
(7.34232 0.0169131 0)
(7.34424 0.0170659 0)
(7.34616 0.0171018 0)
(7.34807 0.0170372 0)
(7.34996 0.0168857 0)
(7.35184 0.0166584 0)
(7.3537 0.0163644 0)
(7.35554 0.016011 0)
(7.35736 0.0156035 0)
(7.35918 0.0151455 0)
(7.36098 0.0146394 0)
(7.36277 0.0140859 0)
(7.36455 0.0134841 0)
(7.36633 0.0128321 0)
(7.36811 0.0121264 0)
(7.36988 0.0113622 0)
(7.37165 0.0105338 0)
(7.37341 0.00963466 0)
(7.37516 0.00865738 0)
(7.33296 0.000378929 0)
(7.33245 0.00120744 0)
(7.33171 0.00231603 0)
(7.33104 0.00371158 0)
(7.33065 0.00533078 0)
(7.33067 0.00704052 0)
(7.3311 0.00870847 0)
(7.33189 0.0102463 0)
(7.33299 0.0116031 0)
(7.33432 0.0127546 0)
(7.33583 0.013697 0)
(7.33746 0.0144395 0)
(7.33917 0.0149982 0)
(7.34093 0.0153921 0)
(7.34273 0.0156403 0)
(7.34455 0.015761 0)
(7.34637 0.0157707 0)
(7.34818 0.0156835 0)
(7.34999 0.0155116 0)
(7.35178 0.0152652 0)
(7.35357 0.0149524 0)
(7.35533 0.0145797 0)
(7.35709 0.0141518 0)
(7.35883 0.0136721 0)
(7.36057 0.0131425 0)
(7.36229 0.0125636 0)
(7.364 0.011935 0)
(7.36571 0.0112546 0)
(7.3674 0.0105199 0)
(7.36909 0.00972707 0)
(7.37077 0.00887179 0)
(7.37244 0.00794927 0)
(7.37408 0.00695416 0)
(7.33298 0.000488929 0)
(7.33269 0.00146785 0)
(7.33224 0.00260752 0)
(7.33185 0.00392807 0)
(7.33167 0.00538651 0)
(7.33179 0.00689275 0)
(7.33223 0.00835251 0)
(7.33298 0.00969802 0)
(7.33399 0.0108874 0)
(7.33521 0.0118994 0)
(7.3366 0.0127285 0)
(7.3381 0.0133806 0)
(7.33969 0.0138676 0)
(7.34135 0.0142045 0)
(7.34304 0.014407 0)
(7.34475 0.0144905 0)
(7.34648 0.0144692 0)
(7.34821 0.0143555 0)
(7.34993 0.01416 0)
(7.35165 0.0138918 0)
(7.35336 0.0135582 0)
(7.35506 0.0131648 0)
(7.35675 0.012716 0)
(7.35843 0.0122147 0)
(7.36009 0.0116627 0)
(7.36174 0.0110606 0)
(7.36339 0.0104079 0)
(7.36502 0.00970325 0)
(7.36664 0.00894451 0)
(7.36824 0.00812895 0)
(7.36983 0.0072534 0)
(7.37141 0.00631445 0)
(7.37296 0.00530836 0)
(7.33299 0.000548033 0)
(7.33284 0.00161836 0)
(7.33261 0.00277237 0)
(7.33242 0.00403044 0)
(7.3324 0.00536146 0)
(7.33261 0.00670316 0)
(7.33309 0.0079885 0)
(7.33381 0.0091667 0)
(7.33475 0.0102051 0)
(7.33589 0.0110865 0)
(7.33717 0.011806 0)
(7.33857 0.0123674 0)
(7.34006 0.0127802 0)
(7.34162 0.0130564 0)
(7.34321 0.0132092 0)
(7.34483 0.0132516 0)
(7.34648 0.0131955 0)
(7.34812 0.0130519 0)
(7.34977 0.0128301 0)
(7.35142 0.012538 0)
(7.35306 0.0121819 0)
(7.35469 0.0117671 0)
(7.35631 0.0112972 0)
(7.35792 0.0107749 0)
(7.35952 0.0102019 0)
(7.3611 0.0095786 0)
(7.36267 0.0089049 0)
(7.36423 0.00817979 0)
(7.36578 0.00740172 0)
(7.3673 0.00656876 0)
(7.36881 0.0056787 0)
(7.37029 0.00472925 0)
(7.37175 0.00371785 0)
(7.333 0.000574684 0)
(7.33294 0.00169203 0)
(7.33284 0.00284372 0)
(7.3328 0.00404419 0)
(7.3329 0.00526906 0)
(7.33318 0.00647394 0)
(7.33368 0.007611 0)
(7.33439 0.00864294 0)
(7.33528 0.00954542 0)
(7.33635 0.0103056 0)
(7.33755 0.0109201 0)
(7.33886 0.0113923 0)
(7.34026 0.01173 0)
(7.34172 0.0119434 0)
(7.34323 0.0120437 0)
(7.34477 0.0120418 0)
(7.34633 0.0119481 0)
(7.3479 0.0117721 0)
(7.34948 0.0115217 0)
(7.35105 0.0112039 0)
(7.35262 0.0108243 0)
(7.35419 0.0103875 0)
(7.35574 0.00989665 0)
(7.35728 0.00935422 0)
(7.35882 0.00876163 0)
(7.36033 0.0081195 0)
(7.36184 0.00742779 0)
(7.36332 0.00668589 0)
(7.36479 0.00589279 0)
(7.36624 0.00504719 0)
(7.36767 0.00414769 0)
(7.36907 0.0031928 0)
(7.37044 0.00218087 0)
(7.333 0.000581305 0)
(7.33299 0.00171442 0)
(7.33299 0.00285014 0)
(7.33304 0.00399441 0)
(7.33321 0.00512653 0)
(7.33354 0.00621375 0)
(7.33405 0.00722184 0)
(7.33473 0.00812404 0)
(7.33559 0.00890315 0)
(7.33659 0.00955062 0)
(7.33772 0.010065 0)
(7.33895 0.01045 0)
(7.34026 0.0107128 0)
(7.34164 0.0108623 0)
(7.34307 0.0109081 0)
(7.34453 0.0108597 0)
(7.34601 0.0107262 0)
(7.34751 0.0105156 0)
(7.34902 0.0102349 0)
(7.35052 0.00989021 0)
(7.35203 0.00948636 0)
(7.35353 0.00902727 0)
(7.35501 0.00851587 0)
(7.35649 0.00795425 0)
(7.35796 0.00734374 0)
(7.35941 0.006685 0)
(7.36084 0.00597815 0)
(7.36226 0.00522291 0)
(7.36365 0.00441868 0)
(7.36503 0.0035647 0)
(7.36638 0.00266015 0)
(7.3677 0.00170418 0)
(7.36899 0.000695781 0)
(7.333 0.000576462 0)
(7.33302 0.0017055 0)
(7.33306 0.00281607 0)
(7.33316 0.00390493 0)
(7.33337 0.00495311 0)
(7.33372 0.0059358 0)
(7.33422 0.00682867 0)
(7.33487 0.00761336 0)
(7.33568 0.00827878 0)
(7.33662 0.00882038 0)
(7.33767 0.00923888 0)
(7.33883 0.00953879 0)
(7.34006 0.00972705 0)
(7.34136 0.00981184 0)
(7.34271 0.00980173 0)
(7.34409 0.00970514 0)
(7.3455 0.0095299 0)
(7.34693 0.00928305 0)
(7.34837 0.0089707 0)
(7.34981 0.00859804 0)
(7.35124 0.00816932 0)
(7.35268 0.00768792 0)
(7.3541 0.0071564 0)
(7.35551 0.00657661 0)
(7.35692 0.00594976 0)
(7.3583 0.00527656 0)
(7.35967 0.00455725 0)
(7.36102 0.00379179 0)
(7.36234 0.00297992 0)
(7.36364 0.0021213 0)
(7.36492 0.00121554 0)
(7.36616 0.000262246 0)
(7.36738 -0.000739144 0)
(7.333 0.000566363 0)
(7.33303 0.00168139 0)
(7.33309 0.00276291 0)
(7.3332 0.00379832 0)
(7.33341 0.00476926 0)
(7.33373 0.00565665 0)
(7.3342 0.00644386 0)
(7.33481 0.00711954 0)
(7.33556 0.00767804 0)
(7.33643 0.00811856 0)
(7.33741 0.00844407 0)
(7.33849 0.00866016 0)
(7.33964 0.00877393 0)
(7.34086 0.00879318 0)
(7.34213 0.0087258 0)
(7.34344 0.00857932 0)
(7.34478 0.00836066 0)
(7.34613 0.00807598 0)
(7.3475 0.0077306 0)
(7.34887 0.00732899 0)
(7.35024 0.00687482 0)
(7.35161 0.00637099 0)
(7.35297 0.00581974 0)
(7.35432 0.00522269 0)
(7.35566 0.00458093 0)
(7.35698 0.00389517 0)
(7.35828 0.00316576 0)
(7.35956 0.00239284 0)
(7.36082 0.00157639 0)
(7.36206 0.000716359 0)
(7.36326 -0.000187314 0)
(7.36444 -0.00113471 0)
(7.36558 -0.0021261 0)
(7.333 0.000555948 0)
(7.33302 0.00165609 0)
(7.33307 0.00271046 0)
(7.33315 0.0036968 0)
(7.33333 0.0045967 0)
(7.33361 0.00539575 0)
(7.33402 0.00608386 0)
(7.33456 0.00665598 0)
(7.33523 0.00711157 0)
(7.33602 0.00745355 0)
(7.33691 0.00768727 0)
(7.33791 0.00781954 0)
(7.33898 0.00785794 0)
(7.34011 0.00781015 0)
(7.3413 0.00768361 0)
(7.34253 0.00748519 0)
(7.3438 0.00722109 0)
(7.34508 0.00689673 0)
(7.34638 0.00651671 0)
(7.34768 0.00608491 0)
(7.34899 0.00560447 0)
(7.3503 0.00507787 0)
(7.3516 0.00450701 0)
(7.35289 0.00389331 0)
(7.35416 0.00323776 0)
(7.35542 0.002541 0)
(7.35666 0.00180345 0)
(7.35788 0.00102536 0)
(7.35908 0.000206899 0)
(7.36025 -0.000651802 0)
(7.36139 -0.0015506 0)
(7.3625 -0.00248938 0)
(7.36358 -0.0034682 0)
(7.333 0.000549726 0)
(7.333 0.00164314 0)
(7.333 0.00267868 0)
(7.33304 0.00362369 0)
(7.33314 0.00445943 0)
(7.33334 0.0051759 0)
(7.33365 0.00576924 0)
(7.3341 0.00624062 0)
(7.33467 0.0065947 0)
(7.33536 0.00683828 0)
(7.33616 0.00697923 0)
(7.33706 0.0070259 0)
(7.33804 0.00698654 0)
(7.33909 0.00686895 0)
(7.34019 0.0066803 0)
(7.34134 0.006427 0)
(7.34253 0.00611465 0)
(7.34374 0.00574804 0)
(7.34497 0.00533119 0)
(7.34621 0.00486741 0)
(7.34746 0.00435937 0)
(7.3487 0.00380915 0)
(7.34994 0.00321835 0)
(7.35117 0.00258816 0)
(7.35239 0.00191944 0)
(7.3536 0.00121276 0)
(7.35478 0.000468549 0)
(7.35594 -0.000312893 0)
(7.35708 -0.00113131 0)
(7.3582 -0.00198647 0)
(7.35928 -0.00287809 0)
(7.36033 -0.00380596 0)
(7.36135 -0.00477003 0)
(7.333 0.000552569 0)
(7.33297 0.00165753 0)
(7.3329 0.00269014 0)
(7.33283 0.00360576 0)
(7.33282 0.00438558 0)
(7.3329 0.00502455 0)
(7.33309 0.0055255 0)
(7.33341 0.00589635 0)
(7.33386 0.00614748 0)
(7.33443 0.00628991 0)
(7.33512 0.00633447 0)
(7.3359 0.00629129 0)
(7.33678 0.00616958 0)
(7.33774 0.00597748 0)
(7.33875 0.00572208 0)
(7.33982 0.00540946 0)
(7.34093 0.00504475 0)
(7.34207 0.00463221 0)
(7.34324 0.00417531 0)
(7.34442 0.00367688 0)
(7.3456 0.00313911 0)
(7.34679 0.00256371 0)
(7.34798 0.00195197 0)
(7.34916 0.00130484 0)
(7.35033 0.000622993 0)
(7.35148 -9.3081e-05 0)
(7.35261 -0.000843023 0)
(7.35373 -0.00162654 0)
(7.35482 -0.00244338 0)
(7.35588 -0.00329324 0)
(7.35691 -0.00417583 0)
(7.35792 -0.0050909 0)
(7.35889 -0.00603836 0)
(7.333 0.000570662 0)
(7.33291 0.00171826 0)
(7.33273 0.00277323 0)
(7.33252 0.00367655 0)
(7.33235 0.00441035 0)
(7.33226 0.00497606 0)
(7.33229 0.00538459 0)
(7.33244 0.00565182 0)
(7.33273 0.0057948 0)
(7.33316 0.00582957 0)
(7.33371 0.00577043 0)
(7.33438 0.00562975 0)
(7.33515 0.00541799 0)
(7.336 0.0051439 0)
(7.33693 0.00481467 0)
(7.33792 0.00443618 0)
(7.33895 0.00401316 0)
(7.34003 0.00354941 0)
(7.34113 0.00304791 0)
(7.34225 0.00251096 0)
(7.34339 0.00194032 0)
(7.34453 0.0013373 0)
(7.34567 0.000702836 0)
(7.34681 3.76046e-05 0)
(7.34793 -0.000657937 0)
(7.34905 -0.00138347 0)
(7.35014 -0.00213874 0)
(7.35122 -0.00292356 0)
(7.35227 -0.00373771 0)
(7.35329 -0.00458095 0)
(7.35429 -0.00545302 0)
(7.35525 -0.00635369 0)
(7.35618 -0.00728291 0)
(7.33299 0.000612952 0)
(7.33282 0.00185219 0)
(7.33248 0.00296722 0)
(7.33207 0.00388136 0)
(7.33167 0.00458032 0)
(7.33135 0.005075 0)
(7.33115 0.00538695 0)
(7.3311 0.00554227 0)
(7.3312 0.00556634 0)
(7.33146 0.00548135 0)
(7.33186 0.00530591 0)
(7.33239 0.00505523 0)
(7.33305 0.00474144 0)
(7.3338 0.00437413 0)
(7.33464 0.00396075 0)
(7.33555 0.00350708 0)
(7.33652 0.00301751 0)
(7.33754 0.00249535 0)
(7.3386 0.00194306 0)
(7.33968 0.00136241 0)
(7.34077 0.000754663 0)
(7.34188 0.000120648 0)
(7.34299 -0.000539087 0)
(7.34409 -0.00122423 0)
(7.34519 -0.0019346 0)
(7.34628 -0.00267012 0)
(7.34735 -0.00343075 0)
(7.3484 -0.00421644 0)
(7.34942 -0.00502712 0)
(7.35042 -0.00586267 0)
(7.35139 -0.00672293 0)
(7.35233 -0.00760775 0)
(7.35323 -0.00851719 0)
(7.33298 0.000693727 0)
(7.33269 0.00210057 0)
(7.33211 0.00333 0)
(7.33139 0.00428458 0)
(7.33067 0.0049594 0)
(7.33004 0.00538017 0)
(7.32955 0.00558363 0)
(7.32924 0.00560987 0)
(7.32912 0.00549525 0)
(7.32919 0.00526988 0)
(7.32943 0.00495786 0)
(7.32983 0.00457794 0)
(7.33037 0.00414438 0)
(7.33103 0.00366782 0)
(7.3318 0.00315605 0)
(7.33265 0.0026147 0)
(7.33357 0.00204776 0)
(7.33456 0.00145797 0)
(7.33558 0.000847133 0)
(7.33664 0.000216372 0)
(7.33771 -0.000433691 0)
(7.33881 -0.00110279 0)
(7.3399 -0.0017909 0)
(7.341 -0.00249816 0)
(7.34209 -0.0032248 0)
(7.34317 -0.00397108 0)
(7.34423 -0.00473724 0)
(7.34527 -0.00552348 0)
(7.34629 -0.00632997 0)
(7.34728 -0.00715675 0)
(7.34824 -0.00800387 0)
(7.34916 -0.00887132 0)
(7.35006 -0.0097593 0)
(7.33297 0.000837541 0)
(7.33247 0.00253045 0)
(7.33152 0.0039508 0)
(7.33036 0.00498063 0)
(7.3292 0.00563664 0)
(7.32815 0.00596875 0)
(7.32731 0.00603693 0)
(7.32669 0.00590158 0)
(7.32631 0.00561411 0)
(7.32617 0.005215 0)
(7.32625 0.00473527 0)
(7.32653 0.00419803 0)
(7.32698 0.00361989 0)
(7.32758 0.00301252 0)
(7.3283 0.00238387 0)
(7.32912 0.00173919 0)
(7.33003 0.00108175 0)
(7.331 0.000413442 0)
(7.33203 -0.000264842 0)
(7.33309 -0.000952874 0)
(7.33418 -0.00165088 0)
(7.33528 -0.00235936 0)
(7.3364 -0.00307899 0)
(7.33751 -0.00381052 0)
(7.33862 -0.0045547 0)
(7.33971 -0.00531226 0)
(7.34079 -0.00608385 0)
(7.34184 -0.00687002 0)
(7.34287 -0.00767125 0)
(7.34387 -0.00848786 0)
(7.34484 -0.00932013 0)
(7.34578 -0.0101683 0)
(7.34668 -0.0110327 0)
(7.33294 0.00108937 0)
(7.33211 0.00325513 0)
(7.33057 0.00497009 0)
(7.32876 0.006109 0)
(7.32698 0.00673482 0)
(7.3254 0.00693836 0)
(7.32411 0.00681702 0)
(7.32315 0.00646202 0)
(7.32251 0.00594562 0)
(7.32218 0.00532153 0)
(7.32213 0.00462908 0)
(7.32233 0.00389596 0)
(7.32273 0.00314084 0)
(7.32331 0.00237579 0)
(7.32403 0.00160821 0)
(7.32488 0.000842267 0)
(7.32581 7.99218e-05 0)
(7.32683 -0.000678361 0)
(7.3279 -0.00143306 0)
(7.32901 -0.00218524 0)
(7.33015 -0.0029363 0)
(7.33131 -0.0036878 0)
(7.33247 -0.00444133 0)
(7.33363 -0.00519844 0)
(7.33479 -0.00596059 0)
(7.33593 -0.00672912 0)
(7.33705 -0.0075052 0)
(7.33815 -0.00828986 0)
(7.33921 -0.00908395 0)
(7.34025 -0.00988819 0)
(7.34126 -0.0107031 0)
(7.34222 -0.0115293 0)
(7.34315 -0.0123673 0)
(7.33289 0.00153864 0)
(7.33145 0.00447381 0)
(7.32898 0.00661042 0)
(7.32621 0.0078711 0)
(7.32361 0.00841422 0)
(7.32136 0.00840001 0)
(7.31957 0.00798808 0)
(7.31826 0.0073165 0)
(7.3174 0.00648511 0)
(7.31694 0.00556293 0)
(7.31683 0.0045975 0)
(7.31702 0.00361999 0)
(7.31745 0.00264939 0)
(7.31809 0.00169643 0)
(7.3189 0.000766436 0)
(7.31983 -0.000138795 0)
(7.32087 -0.00101971 0)
(7.32199 -0.00187811 0)
(7.32316 -0.00271654 0)
(7.32438 -0.00353791 0)
(7.32562 -0.00434521 0)
(7.32688 -0.00514142 0)
(7.32814 -0.00592931 0)
(7.32939 -0.00671148 0)
(7.33064 -0.00749027 0)
(7.33186 -0.00826778 0)
(7.33306 -0.00904584 0)
(7.33424 -0.00982604 0)
(7.33538 -0.0106097 0)
(7.33648 -0.0113981 0)
(7.33755 -0.012192 0)
(7.33857 -0.0129924 0)
(7.33956 -0.0138 0)
(7.33277 0.00237478 0)
(7.33022 0.00655492 0)
(7.32624 0.00923323 0)
(7.3221 0.0105503 0)
(7.31843 0.0108617 0)
(7.31541 0.010448 0)
(7.31313 0.00957066 0)
(7.31155 0.00843392 0)
(7.31057 0.00716788 0)
(7.31011 0.00585408 0)
(7.31008 0.00454441 0)
(7.31039 0.0032691 0)
(7.31099 0.00204345 0)
(7.31181 0.000873562 0)
(7.3128 -0.000239848 0)
(7.31393 -0.00129927 0)
(7.31516 -0.00230901 0)
(7.31646 -0.00327421 0)
(7.31782 -0.0042003 0)
(7.31922 -0.00509261 0)
(7.32063 -0.00595624 0)
(7.32205 -0.00679587 0)
(7.32347 -0.00761579 0)
(7.32487 -0.0084198 0)
(7.32625 -0.00921133 0)
(7.32761 -0.00999336 0)
(7.32894 -0.0107685 0)
(7.33023 -0.011539 0)
(7.33148 -0.0123068 0)
(7.33269 -0.0130734 0)
(7.33385 -0.0138405 0)
(7.33497 -0.014609 0)
(7.33604 -0.0153803 0)
(7.33248 0.00396248 0)
(7.32783 0.0101565 0)
(7.32139 0.0134338 0)
(7.31537 0.0145631 0)
(7.31044 0.0142938 0)
(7.3067 0.0131306 0)
(7.30409 0.0115019 0)
(7.30245 0.009689 0)
(7.30159 0.00783751 0)
(7.30136 0.00602673 0)
(7.30161 0.00430153 0)
(7.30225 0.00268176 0)
(7.30318 0.0011715 0)
(7.30434 -0.000233083 0)
(7.30567 -0.00153953 0)
(7.30713 -0.00275715 0)
(7.30868 -0.00389587 0)
(7.31029 -0.00496542 0)
(7.31194 -0.00597497 0)
(7.31361 -0.00693291 0)
(7.31529 -0.00784681 0)
(7.31696 -0.0087234 0)
(7.31861 -0.00956863 0)
(7.32024 -0.0103877 0)
(7.32183 -0.0111852 0)
(7.32338 -0.0119651 0)
(7.32489 -0.0127307 0)
(7.32636 -0.0134851 0)
(7.32777 -0.0142306 0)
(7.32913 -0.0149696 0)
(7.33044 -0.0157037 0)
(7.3317 -0.0164345 0)
(7.3329 -0.0171635 0)
(7.33192 0.00692353 0)
(7.32311 0.0161365 0)
(7.31274 0.0198093 0)
(7.30432 0.0202562 0)
(7.29817 0.0188185 0)
(7.29399 0.0163602 0)
(7.29148 0.0135758 0)
(7.29022 0.0108116 0)
(7.28988 0.00818479 0)
(7.29023 0.00574443 0)
(7.2911 0.00351325 0)
(7.29235 0.00148947 0)
(7.29389 -0.000342579 0)
(7.29563 -0.00200268 0)
(7.29752 -0.00351077 0)
(7.29951 -0.00488599 0)
(7.30157 -0.00614615 0)
(7.30365 -0.00730731 0)
(7.30575 -0.0083837 0)
(7.30785 -0.00938777 0)
(7.30992 -0.0103304 0)
(7.31197 -0.0112209 0)
(7.31397 -0.0120675 0)
(7.31592 -0.0128771 0)
(7.31783 -0.0136558 0)
(7.31967 -0.0144087 0)
(7.32146 -0.0151403 0)
(7.32318 -0.0158542 0)
(7.32483 -0.0165538 0)
(7.32642 -0.0172419 0)
(7.32795 -0.0179209 0)
(7.3294 -0.0185929 0)
(7.33079 -0.0192601 0)
(7.33066 0.013816 0)
(7.31338 0.026345 0)
(7.29717 0.0284472 0)
(7.28626 0.0270606 0)
(7.27934 0.0238834 0)
(7.27544 0.0198573 0)
(7.27381 0.015863 0)
(7.27368 0.0122022 0)
(7.2745 0.00887605 0)
(7.27603 0.00586742 0)
(7.27806 0.00316666 0)
(7.28043 0.000748272 0)
(7.28303 -0.00142016 0)
(7.28578 -0.00336893 0)
(7.28862 -0.00512478 0)
(7.2915 -0.00671206 0)
(7.29439 -0.00815294 0)
(7.29726 -0.0094671 0)
(7.30009 -0.0106718 0)
(7.30287 -0.0117821 0)
(7.30558 -0.0128112 0)
(7.30822 -0.0137704 0)
(7.31078 -0.0146696 0)
(7.31326 -0.0155173 0)
(7.31565 -0.016321 0)
(7.31795 -0.017087 0)
(7.32015 -0.0178208 0)
(7.32227 -0.018527 0)
(7.3243 -0.0192098 0)
(7.32623 -0.0198724 0)
(7.32808 -0.0205177 0)
(7.32983 -0.0211479 0)
(7.3315 -0.0217647 0)
(7.32447 0.0352529 0)
(7.28905 0.0484152 0)
(7.26649 0.0395877 0)
(7.25598 0.0291992 0)
(7.2507 0.0198781 0)
(7.2489 0.0120337 0)
(7.24973 0.00591269 0)
(7.25205 0.00117559 0)
(7.25519 -0.0025829 0)
(7.25891 -0.00559885 0)
(7.26304 -0.00802568 0)
(7.26742 -0.0100024 0)
(7.27191 -0.0116416 0)
(7.27644 -0.013024 0)
(7.28095 -0.0142075 0)
(7.28539 -0.0152358 0)
(7.28974 -0.0161424 0)
(7.29397 -0.0169533 0)
(7.29807 -0.0176882 0)
(7.30202 -0.0183626 0)
(7.30583 -0.0189886 0)
(7.30948 -0.0195756 0)
(7.31298 -0.0201314 0)
(7.31632 -0.0206619 0)
(7.31951 -0.021172 0)
(7.32256 -0.0216657 0)
(7.32546 -0.0221463 0)
(7.32822 -0.0226164 0)
(7.33084 -0.0230783 0)
(7.33333 -0.0235342 0)
(7.33569 -0.0239859 0)
(7.33792 -0.0244359 0)
(7.34004 -0.0248869 0)
(7.29541 0.0831414 0)
(7.21833 0.128044 0)
(7.18707 0.129005 0)
(7.18632 0.113963 0)
(7.19295 0.0941338 0)
(7.20193 0.0760904 0)
(7.21231 0.0610613 0)
(7.22297 0.048151 0)
(7.2335 0.0368373 0)
(7.24384 0.027022 0)
(7.2539 0.018608 0)
(7.26354 0.0114378 0)
(7.27271 0.0053425 0)
(7.2814 0.000170931 0)
(7.2896 -0.00421164 0)
(7.29733 -0.00792678 0)
(7.3046 -0.0110813 0)
(7.31144 -0.0137664 0)
(7.31786 -0.0160587 0)
(7.32388 -0.0180228 0)
(7.32954 -0.0197126 0)
(7.33485 -0.0211731 0)
(7.33984 -0.0224418 0)
(7.34451 -0.02355 0)
(7.3489 -0.0245238 0)
(7.35301 -0.0253848 0)
(7.35687 -0.026151 0)
(7.36048 -0.0268376 0)
(7.36386 -0.027457 0)
(7.36703 -0.0280194 0)
(7.36998 -0.0285333 0)
(7.37274 -0.0290046 0)
(7.3753 -0.0294407 0)
(7.32717 -0.156814 0)
(7.19692 -0.284093 0)
(7.13361 -0.280647 0)
(7.11315 -0.247166 0)
(7.11508 -0.214555 0)
(7.13554 -0.184254 0)
(7.16564 -0.15703 0)
(7.19803 -0.134036 0)
(7.22997 -0.115222 0)
(7.26033 -0.0998975 0)
(7.28836 -0.0873947 0)
(7.31375 -0.0772155 0)
(7.33648 -0.0689513 0)
(7.35673 -0.0622444 0)
(7.37473 -0.0567933 0)
(7.39067 -0.052355 0)
(7.40478 -0.0487357 0)
(7.41726 -0.0457798 0)
(7.4283 -0.0433617 0)
(7.43805 -0.0413806 0)
(7.44667 -0.0397557 0)
(7.45427 -0.0384219 0)
(7.46098 -0.0373269 0)
(7.46689 -0.0364284 0)
(7.47208 -0.0356921 0)
(7.47664 -0.0350904 0)
(7.48063 -0.0346006 0)
(7.4841 -0.0342044 0)
(7.48712 -0.0338864 0)
(7.48972 -0.0336343 0)
(7.49196 -0.0334371 0)
(7.49386 -0.0332861 0)
(7.49548 -0.0331697 0)
(7.33086 1.21499 0)
(7.63822 1.23053 0)
(7.81865 0.920168 0)
(7.8759 0.647915 0)
(7.88919 0.449902 0)
(7.88325 0.310866 0)
(7.8619 0.213001 0)
(7.83007 0.143229 0)
(7.79309 0.0928991 0)
(7.75436 0.05634 0)