/*--------------------------------*- C++ -*----------------------------------*\
| =========                 |                                                 |
| \\      /  F ield         | OpenFOAM: The Open Source CFD Toolbox           |
|  \\    /   O peration     | Version:  4.1                                   |
|   \\  /    A nd           | Web:      www.OpenFOAM.org                      |
|    \\/     M anipulation  |                                                 |
\*---------------------------------------------------------------------------*/
FoamFile
{
    version     2.0;
    format      ascii;
    class       volScalarField;
    location    "1200";
    object      p;
}
// * * * * * * * * * * * * * * * * * * * * * * * * * * * * * * * * * * * * * //

dimensions      [0 2 -2 0 0 0 0];

internalField   nonuniform List<scalar> 
6820
(
-6.94782
-7.17465
-7.25156
-7.26359
-7.28295
-7.30502
-7.32158
-7.33442
-7.34557
-7.35514
-7.36301
-7.36931
-7.37415
-7.37754
-7.37944
-7.37978
-7.37846
-7.37532
-7.37017
-7.36275
-7.35271
-7.33962
-7.32286
-7.30163
-7.27476
-7.24056
-7.19629
-7.13794
-7.05595
-6.94143
-6.73181
-6.47928
-5.42442
-7.01979
-7.16081
-7.22443
-7.24478
-7.26857
-7.29254
-7.3105
-7.32435
-7.33615
-7.34618
-7.35444
-7.36106
-7.36617
-7.36979
-7.37189
-7.37239
-7.37121
-7.36819
-7.36314
-7.35581
-7.34587
-7.33289
-7.31629
-7.29531
-7.2689
-7.23561
-7.19321
-7.13897
-7.06694
-6.97555
-6.84337
-6.72045
-6.63342
-7.0772
-7.16524
-7.22536
-7.25035
-7.27275
-7.29499
-7.31247
-7.32617
-7.33782
-7.34777
-7.35599
-7.36262
-7.36775
-7.37142
-7.37359
-7.3742
-7.37316
-7.37032
-7.3655
-7.35847
-7.34893
-7.33647
-7.32059
-7.30063
-7.2757
-7.24467
-7.20595
-7.15789
-7.09764
-7.02707
-6.94253
-6.89025
-6.87617
-7.11596
-7.17434
-7.22855
-7.25494
-7.27582
-7.29666
-7.3138
-7.32739
-7.3389
-7.34875
-7.35694
-7.36357
-7.36873
-7.37247
-7.37473
-7.37548
-7.37461
-7.37201
-7.36751
-7.36088
-7.35188
-7.34014
-7.32526
-7.30669
-7.28378
-7.25576
-7.22172
-7.18106
-7.13323
-7.08175
-7.02972
-7.00613
-7.01563
-7.1471
-7.18693
-7.23282
-7.25906
-7.27896
-7.29856
-7.31524
-7.32866
-7.34002
-7.34978
-7.35795
-7.36461
-7.36985
-7.37369
-7.37611
-7.37706
-7.37646
-7.3742
-7.37013
-7.36407
-7.3558
-7.34504
-7.33147
-7.31471
-7.29434
-7.26996
-7.24128
-7.20853
-7.17263
-7.13762
-7.10884
-7.10476
-7.13397
-7.17323
-7.20073
-7.23849
-7.26376
-7.28279
-7.3011
-7.31715
-7.33034
-7.34153
-7.35118
-7.35932
-7.36602
-7.37135
-7.37533
-7.37794
-7.37915
-7.37888
-7.37705
-7.37352
-7.36817
-7.36081
-7.35124
-7.33924
-7.3246
-7.30713
-7.28677
-7.26368
-7.23868
-7.21343
-7.19189
-7.17951
-7.18801
-7.22458
-7.19539
-7.21469
-7.24542
-7.26903
-7.28712
-7.30418
-7.3195
-7.33239
-7.34338
-7.35291
-7.36103
-7.36777
-7.3732
-7.37735
-7.3802
-7.38172
-7.38185
-7.38053
-7.37766
-7.37313
-7.36683
-7.35862
-7.34841
-7.33612
-7.32176
-7.30552
-7.28793
-7.27009
-7.25395
-7.24301
-7.24189
-7.25792
-7.29599
-7.21451
-7.22837
-7.25324
-7.27477
-7.29184
-7.30773
-7.32227
-7.33479
-7.34557
-7.35497
-7.36305
-7.36985
-7.37541
-7.37976
-7.38288
-7.38477
-7.38537
-7.38463
-7.3825
-7.37891
-7.37379
-7.36709
-7.35881
-7.34898
-7.3378
-7.32563
-7.3132
-7.30173
-7.29313
-7.2903
-7.29685
-7.3173
-7.35473
-7.23129
-7.2415
-7.26163
-7.28092
-7.29689
-7.31169
-7.32545
-7.33755
-7.3481
-7.35736
-7.36541
-7.37228
-7.37798
-7.38256
-7.386
-7.38829
-7.38941
-7.38933
-7.38802
-7.38545
-7.38161
-7.37652
-7.37024
-7.36292
-7.35487
-7.34657
-7.33882
-7.33284
-7.33034
-7.33362
-7.34534
-7.36827
-7.40422
-7.24624
-7.25397
-7.27032
-7.28741
-7.30225
-7.31603
-7.32901
-7.34066
-7.35096
-7.36008
-7.36811
-7.37505
-7.38092
-7.38575
-7.38954
-7.39228
-7.39398
-7.39461
-7.39419
-7.39271
-7.39021
-7.38677
-7.38251
-7.37767
-7.37261
-7.36788
-7.36428
-7.36293
-7.36527
-7.37308
-7.38823
-7.41241
-7.44658
-7.25975
-7.26575
-7.27913
-7.29416
-7.30784
-7.32069
-7.33291
-7.3441
-7.35414
-7.36313
-7.37114
-7.37816
-7.38422
-7.38933
-7.3935
-7.39673
-7.39904
-7.40044
-7.40094
-7.4006
-7.39948
-7.3977
-7.39544
-7.39298
-7.39071
-7.3892
-7.3892
-7.39168
-7.39782
-7.40893
-7.42631
-7.45095
-7.48333
-7.27207
-7.27685
-7.2879
-7.30108
-7.31364
-7.32561
-7.33712
-7.34785
-7.35763
-7.3665
-7.3745
-7.38162
-7.38788
-7.39329
-7.39786
-7.40162
-7.40458
-7.40677
-7.40824
-7.40905
-7.40931
-7.40917
-7.40884
-7.40862
-7.40891
-7.41026
-7.41332
-7.41892
-7.42798
-7.44147
-7.46025
-7.48488
-7.51553
-7.28342
-7.28731
-7.29654
-7.30811
-7.3196
-7.33075
-7.3416
-7.35189
-7.36142
-7.37018
-7.37817
-7.38541
-7.39189
-7.39762
-7.40262
-7.40693
-7.41056
-7.41357
-7.41601
-7.41799
-7.41961
-7.42105
-7.42255
-7.4244
-7.427
-7.43082
-7.43646
-7.44457
-7.45587
-7.47104
-7.49063
-7.51495
-7.544
-7.29393
-7.29716
-7.30498
-7.31516
-7.32566
-7.33606
-7.34632
-7.35619
-7.36548
-7.37414
-7.38215
-7.38951
-7.39623
-7.4023
-7.40775
-7.41262
-7.41695
-7.42078
-7.4242
-7.42732
-7.43026
-7.43322
-7.43642
-7.44016
-7.44479
-7.45075
-7.45852
-7.46863
-7.48161
-7.49793
-7.51794
-7.54178
-7.56935
-7.30373
-7.30647
-7.31316
-7.32218
-7.33179
-7.34151
-7.35123
-7.36072
-7.36979
-7.37836
-7.38641
-7.39391
-7.40088
-7.40731
-7.41323
-7.41867
-7.42369
-7.42835
-7.43273
-7.43696
-7.44117
-7.44554
-7.45031
-7.45574
-7.46216
-7.46993
-7.47945
-7.49113
-7.50535
-7.52243
-7.54259
-7.56584
-7.59207
-7.31289
-7.31525
-7.32107
-7.32911
-7.33794
-7.34705
-7.35629
-7.36544
-7.37432
-7.38282
-7.39092
-7.39859
-7.40581
-7.41261
-7.41901
-7.42503
-7.43075
-7.43622
-7.44154
-7.44683
-7.45223
-7.45792
-7.4641
-7.47104
-7.479
-7.48829
-7.49922
-7.51211
-7.52724
-7.5448
-7.56491
-7.58754
-7.61254
-7.32148
-7.32355
-7.32868
-7.33591
-7.34406
-7.35264
-7.36146
-7.37032
-7.37903
-7.3875
-7.39567
-7.40351
-7.41101
-7.41818
-7.42505
-7.43166
-7.43806
-7.44432
-7.45054
-7.45684
-7.46335
-7.47024
-7.4777
-7.48595
-7.49523
-7.50578
-7.51785
-7.53167
-7.54743
-7.56525
-7.58519
-7.60717
-7.63107
-7.32954
-7.33138
-7.33597
-7.34255
-7.35012
-7.35824
-7.3667
-7.37531
-7.3839
-7.39235
-7.40061
-7.40864
-7.41643
-7.42398
-7.43133
-7.43851
-7.44558
-7.4526
-7.45968
-7.46692
-7.47445
-7.48243
-7.49102
-7.50041
-7.5108
-7.52239
-7.53535
-7.54986
-7.56605
-7.58398
-7.60366
-7.62501
-7.6479
-7.33709
-7.33876
-7.34293
-7.34898
-7.35608
-7.3638
-7.37197
-7.38038
-7.38888
-7.39734
-7.40571
-7.41394
-7.42203
-7.42997
-7.43779
-7.44553
-7.45324
-7.46099
-7.46887
-7.47699
-7.48545
-7.4944
-7.50399
-7.51436
-7.52568
-7.5381
-7.55177
-7.56679
-7.58324
-7.60117
-7.62054
-7.64127
-7.66324
-7.34417
-7.3457
-7.34954
-7.35517
-7.36188
-7.36929
-7.37722
-7.38549
-7.39393
-7.40244
-7.41093
-7.41938
-7.42777
-7.4361
-7.44439
-7.45267
-7.461
-7.46944
-7.47807
-7.48698
-7.49629
-7.5061
-7.51655
-7.52776
-7.53985
-7.55294
-7.56714
-7.58252
-7.59912
-7.61695
-7.63598
-7.65611
-7.67724
-7.35076
-7.3522
-7.35578
-7.36109
-7.3675
-7.37467
-7.38242
-7.39059
-7.39902
-7.40759
-7.41624
-7.42492
-7.43362
-7.44233
-7.45107
-7.45988
-7.46879
-7.47787
-7.48719
-7.49684
-7.50689
-7.51747
-7.52866
-7.54056
-7.55329
-7.56691
-7.58151
-7.59713
-7.61378
-7.63146
-7.65013
-7.66969
-7.69006
-7.35687
-7.35823
-7.36164
-7.36671
-7.37289
-7.37988
-7.38752
-7.39563
-7.40408
-7.41275
-7.42157
-7.4305
-7.43951
-7.44861
-7.45779
-7.46709
-7.47656
-7.48624
-7.49619
-7.50649
-7.51722
-7.52845
-7.54028
-7.55277
-7.566
-7.58004
-7.59492
-7.61068
-7.62732
-7.64482
-7.66311
-7.68214
-7.70181
-7.36249
-7.36379
-7.36707
-7.37198
-7.37801
-7.38489
-7.39246
-7.40058
-7.40909
-7.41788
-7.4269
-7.43608
-7.44541
-7.45488
-7.46449
-7.47427
-7.48425
-7.49448
-7.50501
-7.5159
-7.52722
-7.53902
-7.55138
-7.56435
-7.57799
-7.59234
-7.60743
-7.62326
-7.63983
-7.6571
-7.67504
-7.69355
-7.71258
-7.36758
-7.36885
-7.37205
-7.37686
-7.3828
-7.38964
-7.39721
-7.40537
-7.41398
-7.42293
-7.43216
-7.44161
-7.45126
-7.4611
-7.47112
-7.48135
-7.49182
-7.50255
-7.5136
-7.52502
-7.53684
-7.54914
-7.56195
-7.57531
-7.58927
-7.60385
-7.61907
-7.63491
-7.65137
-7.66841
-7.68598
-7.70402
-7.72247
-7.37211
-7.37337
-7.37653
-7.3813
-7.38723
-7.39408
-7.4017
-7.40996
-7.41871
-7.42785
-7.43731
-7.44705
-7.45702
-7.46721
-7.47763
-7.48829
-7.4992
-7.5104
-7.52192
-7.53379
-7.54607
-7.55878
-7.57196
-7.58564
-7.59985
-7.6146
-7.62988
-7.6457
-7.66202
-7.67881
-7.69604
-7.71363
-7.73153
-7.37603
-7.3773
-7.38047
-7.38526
-7.39124
-7.39816
-7.40589
-7.41429
-7.42322
-7.43258
-7.4423
-7.45233
-7.46262
-7.47317
-7.48397
-7.49503
-7.50636
-7.51798
-7.52992
-7.5422
-7.55486
-7.56792
-7.58141
-7.59535
-7.60974
-7.62459
-7.6399
-7.65566
-7.67182
-7.68837
-7.70526
-7.72243
-7.73984
-7.37928
-7.38057
-7.38379
-7.38868
-7.39477
-7.40182
-7.40972
-7.41831
-7.42747
-7.43708
-7.44708
-7.45741
-7.46803
-7.47893
-7.4901
-7.50153
-7.51324
-7.52525
-7.53756
-7.5502
-7.56319
-7.57655
-7.59029
-7.60442
-7.61895
-7.63387
-7.64918
-7.66484
-7.68084
-7.69715
-7.71371
-7.73049
-7.74744
-7.38178
-7.38311
-7.38644
-7.39147
-7.39774
-7.40501
-7.41313
-7.42197
-7.43139
-7.44129
-7.45159
-7.46224
-7.4732
-7.48444
-7.49596
-7.50775
-7.51982
-7.53217
-7.54481
-7.55777
-7.57104
-7.58465
-7.5986
-7.61288
-7.6275
-7.64246
-7.65772
-7.67329
-7.68912
-7.70518
-7.72144
-7.73786
-7.75439
-7.38343
-7.38483
-7.38831
-7.39357
-7.40011
-7.40765
-7.41607
-7.42521
-7.43495
-7.44516
-7.45579
-7.46677
-7.47807
-7.48966
-7.50152
-7.51364
-7.52604
-7.53871
-7.55165
-7.56488
-7.5784
-7.59221
-7.60632
-7.62072
-7.63541
-7.65036
-7.66558
-7.68103
-7.69668
-7.71251
-7.72849
-7.74456
-7.76071
-7.38412
-7.38561
-7.38931
-7.39488
-7.40177
-7.40968
-7.41847
-7.42798
-7.43808
-7.44866
-7.45964
-7.47097
-7.48261
-7.49453
-7.50672
-7.51917
-7.53187
-7.54483
-7.55804
-7.57151
-7.58524
-7.59923
-7.61347
-7.62795
-7.64267
-7.65762
-7.67277
-7.6881
-7.70358
-7.71919
-7.7349
-7.75067
-7.76646
-7.38367
-7.38529
-7.3893
-7.39531
-7.40267
-7.41104
-7.42027
-7.43022
-7.44074
-7.45172
-7.46309
-7.47479
-7.48678
-7.49904
-7.51155
-7.52431
-7.5373
-7.55052
-7.56397
-7.57764
-7.59155
-7.60568
-7.62002
-7.63456
-7.6493
-7.66422
-7.67929
-7.6945
-7.70982
-7.72522
-7.74067
-7.75616
-7.77163
-7.38189
-7.38369
-7.38814
-7.39474
-7.40271
-7.41165
-7.42143
-7.4319
-7.4429
-7.45432
-7.4661
-7.47818
-7.49054
-7.50314
-7.51596
-7.52901
-7.54227
-7.55573
-7.5694
-7.58327
-7.59734
-7.61159
-7.62602
-7.64061
-7.65536
-7.67024
-7.68524
-7.70033
-7.71549
-7.7307
-7.74593
-7.76115
-7.77634
-7.37852
-7.38057
-7.38564
-7.39304
-7.4018
-7.41146
-7.4219
-7.43299
-7.44455
-7.45647
-7.4687
-7.48118
-7.4939
-7.50683
-7.51996
-7.53327
-7.54677
-7.56045
-7.5743
-7.58833
-7.60251
-7.61686
-7.63134
-7.64596
-7.66069
-7.67553
-7.69044
-7.70542
-7.72043
-7.73546
-7.75048
-7.76547
-7.78041
-7.37317
-7.37561
-7.38159
-7.39013
-7.39991
-7.41042
-7.42161
-7.43338
-7.44556
-7.45802
-7.47072
-7.48365
-7.49676
-7.51004
-7.52349
-7.5371
-7.55085
-7.56476
-7.57881
-7.593
-7.60731
-7.62175
-7.6363
-7.65095
-7.66568
-7.68048
-7.69533
-7.71021
-7.72509
-7.73996
-7.75479
-7.76957
-7.78426
-7.36534
-7.36838
-7.37573
-7.38587
-7.397
-7.40865
-7.42085
-7.43348
-7.44633
-7.45934
-7.47249
-7.48579
-7.49921
-7.51276
-7.52643
-7.54024
-7.55416
-7.56821
-7.58239
-7.59667
-7.61107
-7.62556
-7.64014
-7.65479
-7.66949
-7.68424
-7.69902
-7.7138
-7.72856
-7.74329
-7.75797
-7.77258
-7.7871
-7.35417
-7.35833
-7.368
-7.38017
-7.39255
-7.40524
-7.41856
-7.43225
-7.44601
-7.4598
-7.47364
-7.48753
-7.50148
-7.51547
-7.52952
-7.54364
-7.55783
-7.57211
-7.58646
-7.60088
-7.61538
-7.62994
-7.64456
-7.65922
-7.67391
-7.68861
-7.70332
-7.718
-7.73265
-7.74724
-7.76175
-7.77617
-7.79045
-7.33827
-7.34404
-7.35867
-7.37503
-7.38954
-7.40344
-7.41764
-7.4319
-7.44596
-7.45993
-7.4739
-7.4879
-7.50194
-7.51603
-7.53019
-7.54442
-7.55872
-7.5731
-7.58755
-7.60207
-7.61665
-7.63128
-7.64595
-7.66065
-7.67536
-7.69007
-7.70476
-7.71942
-7.73402
-7.74856
-7.76301
-7.77738
-7.79165
-7.31679
-7.32349
-7.34197
-7.36169
-7.37943
-7.39681
-7.4141
-7.43072
-7.4466
-7.462
-7.47707
-7.4919
-7.50653
-7.52104
-7.53548
-7.54989
-7.5643
-7.57873
-7.59319
-7.60768
-7.62221
-7.63676
-7.65134
-7.66592
-7.68051
-7.69508
-7.70963
-7.72413
-7.73856
-7.75291
-7.76715
-7.78126
-7.79521
-7.28371
-7.31866
-7.3477
-7.36328
-7.37674
-7.39247
-7.4087
-7.42421
-7.43929
-7.45434
-7.46939
-7.48437
-7.49928
-7.51415
-7.52901
-7.54386
-7.5587
-7.57355
-7.58841
-7.60328
-7.61815
-7.63303
-7.64789
-7.66274
-7.67757
-7.69235
-7.70708
-7.72175
-7.73633
-7.75083
-7.76523
-7.77952
-7.7937
-7.14247
-7.24983
-7.32335
-7.3552
-7.37785
-7.40155
-7.42317
-7.44138
-7.45756
-7.47288
-7.48768
-7.50205
-7.51615
-7.53013
-7.54406
-7.55801
-7.57199
-7.58603
-7.60013
-7.61429
-7.62852
-7.64279
-7.6571
-7.67143
-7.68578
-7.70011
-7.71442
-7.72868
-7.74289
-7.75701
-7.77104
-7.78495
-7.79873
-6.58518
-6.63997
-7.52255
-7.99734
-8.05166
-8.07359
-8.12261
-8.16295
-8.19519
-8.22746
-8.26049
-8.29355
-8.32681
-8.36044
-8.3944
-8.42859
-8.4629
-8.49721
-8.53139
-8.56531
-8.59883
-8.63183
-8.66416
-8.69571
-8.72635
-8.75596
-8.78445
-8.81169
-8.8376
-8.86207
-8.88501
-8.90633
-8.92595
-8.94379
-8.95976
-8.97377
-8.98576
-8.99564
-9.00333
-9.00873
-9.01177
-9.01234
-9.01036
-9.00572
-8.99829
-8.98798
-8.97463
-8.95811
-8.93827
-8.91494
-8.88794
-8.85708
-8.82214
-8.78291
-8.73915
-8.69061
-8.63705
-8.5782
-8.51378
-8.44353
-8.36714
-8.28432
-8.19474
-8.09807
-7.99394
-7.88197
-7.76178
-7.63294
-7.49508
-7.34779
-7.19075
-7.02364
-6.84623
-6.65834
-6.45992
-6.25099
-6.03171
-5.80238
-5.56343
-5.31547
-5.05923
-4.79561
-4.52563
-4.25047
-3.97136
-3.68964
-3.4067
-3.12395
-2.84274
-2.56443
-2.29022
-2.02124
-1.75837
-1.50249
-1.25365
-1.01301
-0.777727
-0.553043
-0.322773
-0.119393
-7.15542
-7.3132
-7.65193
-7.92057
-7.99402
-8.03674
-8.09291
-8.13951
-8.17648
-8.21173
-8.2469
-8.28157
-8.31601
-8.35051
-8.38511
-8.41977
-8.45441
-8.48895
-8.52328
-8.55729
-8.59085
-8.62385
-8.65615
-8.68765
-8.71823
-8.74777
-8.77617
-8.80333
-8.82914
-8.85351
-8.87635
-8.89757
-8.91709
-8.93482
-8.95068
-8.96459
-8.97646
-8.98622
-8.99379
-8.99906
-9.00197
-9.00241
-9.00027
-8.99547
-8.98788
-8.97739
-8.96385
-8.94713
-8.92708
-8.90353
-8.8763
-8.84519
-8.80999
-8.7705
-8.72647
-8.67766
-8.62381
-8.56468
-8.49998
-8.42944
-8.35276
-8.26965
-8.17979
-8.08283
-7.97844
-7.86622
-7.74579
-7.61675
-7.47873
-7.33134
-7.17426
-7.00718
-6.82989
-6.64223
-6.44412
-6.23563
-6.01691
-5.78825
-5.5501
-5.30305
-5.04784
-4.78533
-4.51656
-4.24266
-3.96485
-3.68445
-3.40281
-3.12131
-2.84128
-2.56404
-2.29077
-2.02256
-1.76026
-1.50475
-1.25597
-1.01526
-0.779204
-0.554653
-0.320768
-0.124135
-7.16501
-7.34813
-7.5786
-7.82844
-7.94806
-8.00882
-8.06758
-8.11847
-8.15962
-8.19743
-8.23437
-8.2704
-8.30581
-8.341
-8.37608
-8.41106
-8.44591
-8.48057
-8.51494
-8.54895
-8.58246
-8.61538
-8.64759
-8.67898
-8.70943
-8.73884
-8.76711
-8.79413
-8.8198
-8.84404
-8.86675
-8.88783
-8.90722
-8.92482
-8.94055
-8.95432
-8.96606
-8.97569
-8.98311
-8.98824
-8.99099
-8.99127
-8.98898
-8.984
-8.97623
-8.96554
-8.9518
-8.93487
-8.91459
-8.89079
-8.86331
-8.83194
-8.79648
-8.7567
-8.71238
-8.66328
-8.60915
-8.54971
-8.48472
-8.41387
-8.3369
-8.25349
-8.16334
-8.0661
-7.96143
-7.84896
-7.72831
-7.59908
-7.46092
-7.31345
-7.15635
-6.98935
-6.81222
-6.62482
-6.4271
-6.2191
-6.001
-5.77309
-5.53582
-5.28976
-5.03565
-4.77436
-4.50687
-4.23431
-3.95788
-3.67888
-3.39861
-3.11843
-2.83964
-2.56352
-2.29123
-2.02383
-1.76212
-1.50699
-1.25828
-1.01751
-0.780689
-0.556247
-0.318845
-0.128822
-7.19568
-7.37762
-7.57702
-7.78892
-7.91355
-7.98241
-8.04355
-8.09813
-8.14316
-8.18346
-8.22203
-8.25931
-8.29563
-8.33142
-8.3669
-8.40213
-8.43711
-8.47181
-8.50616
-8.54009
-8.57349
-8.60627
-8.63833
-8.66955
-8.69983
-8.72907
-8.75716
-8.784
-8.80951
-8.83357
-8.85611
-8.87704
-8.89626
-8.9137
-8.92928
-8.9429
-8.95448
-8.96395
-8.97121
-8.97619
-8.97877
-8.97888
-8.9764
-8.97123
-8.96326
-8.95236
-8.9384
-8.92124
-8.90072
-8.87667
-8.84892
-8.81728
-8.78153
-8.74146
-8.69685
-8.64744
-8.593
-8.53325
-8.46795
-8.3968
-8.31952
-8.23581
-8.14536
-8.04784
-7.9429
-7.83018
-7.70931
-7.57992
-7.44163
-7.29411
-7.13703
-6.97013
-6.79321
-6.60613
-6.40884
-6.2014
-5.98399
-5.75691
-5.52059
-5.27561
-5.02269
-4.76268
-4.49657
-4.22544
-3.95048
-3.67294
-3.39412
-3.11532
-2.83783
-2.56288
-2.2916
-2.02504
-1.76396
-1.50922
-1.2606
-1.01976
-0.782203
-0.557844
-0.317055
-0.133408
-7.25851
-7.4191
-7.58835
-7.76054
-7.88043
-7.95673
-8.0211
-8.07832
-8.12648
-8.16911
-8.20927
-8.24775
-8.28494
-8.32132
-8.35719
-8.39264
-8.42772
-8.46243
-8.49672
-8.53053
-8.56379
-8.5964
-8.62826
-8.65927
-8.68934
-8.71837
-8.74625
-8.77288
-8.79818
-8.82205
-8.84439
-8.86513
-8.88417
-8.90143
-8.91683
-8.93027
-8.94168
-8.95098
-8.95806
-8.96286
-8.96526
-8.96517
-8.9625
-8.95713
-8.94895
-8.93783
-8.92363
-8.90623
-8.88545
-8.86113
-8.8331
-8.80117
-8.76512
-8.72475
-8.67982
-8.6301
-8.57534
-8.51528
-8.44966
-8.37819
-8.3006
-8.21659
-8.12584
-8.02804
-7.92284
-7.80988
-7.68881
-7.55927
-7.42088
-7.27333
-7.11631
-6.94957
-6.7729
-6.58619
-6.38939
-6.18258
-5.96593
-5.73974
-5.50445
-5.26063
-5.00898
-4.75034
-4.48568
-4.21606
-3.94263
-3.66663
-3.38932
-3.11197
-2.83583
-2.5621
-2.29188
-2.02619
-1.76574
-1.51141
-1.2629
-1.022
-0.783729
-0.559418
-0.315417
-0.137803
-7.31851
-7.45334
-7.59726
-7.74133
-7.85438
-7.93456
-8.00079
-8.05937
-8.10979
-8.15444
-8.19603
-8.23559
-8.27361
-8.31057
-8.3468
-8.38246
-8.41762
-8.45232
-8.48653
-8.52021
-8.55328
-8.58569
-8.61732
-8.64811
-8.67794
-8.70672
-8.73435
-8.76075
-8.78582
-8.80946
-8.83158
-8.85211
-8.87094
-8.888
-8.90319
-8.91645
-8.92766
-8.93677
-8.94366
-8.94826
-8.95046
-8.95017
-8.94729
-8.9417
-8.93329
-8.92193
-8.90749
-8.88982
-8.86878
-8.84418
-8.81586
-8.78363
-8.74727
-8.70658
-8.66133
-8.61129
-8.5562
-8.49581
-8.42986
-8.35808
-8.28017
-8.19586
-8.10482
-8.00674
-7.90129
-7.78811
-7.66686
-7.53718
-7.39873
-7.25118
-7.09425
-6.9277
-6.75134
-6.56505
-6.36881
-6.16269
-5.94686
-5.72164
-5.48746
-5.24487
-4.99456
-4.73737
-4.47424
-4.20619
-3.93438
-3.65998
-3.38424
-3.10838
-2.83364
-2.56117
-2.29204
-2.02725
-1.76747
-1.51357
-1.26517
-1.0242
-0.785259
-0.560951
-0.313956
-0.141927
-7.37202
-7.48469
-7.60822
-7.73153
-7.83568
-7.91589
-7.98266
-8.04178
-8.09364
-8.13983
-8.18259
-8.22306
-8.26179
-8.29925
-8.3358
-8.37163
-8.40686
-8.44152
-8.47563
-8.50914
-8.54202
-8.57419
-8.60558
-8.6361
-8.66566
-8.69417
-8.72154
-8.74767
-8.77248
-8.79587
-8.81775
-8.83803
-8.85663
-8.87346
-8.88844
-8.90148
-8.91248
-8.92137
-8.92805
-8.93244
-8.93442
-8.93391
-8.9308
-8.92498
-8.91633
-8.90472
-8.89002
-8.87208
-8.85075
-8.82586
-8.79724
-8.76469
-8.72802
-8.687
-8.64142
-8.59104
-8.53562
-8.4749
-8.40862
-8.33652
-8.2583
-8.17368
-8.08235
-7.98401
-7.87831
-7.76493
-7.64351
-7.51372
-7.37523
-7.22773
-7.07093
-6.90462
-6.72861
-6.54279
-6.34716
-6.14179
-5.92686
-5.70268
-5.46967
-5.22838
-4.97949
-4.72382
-4.46228
-4.19588
-3.92573
-3.653
-3.37888
-3.10457
-2.83126
-2.56009
-2.29209
-2.02821
-1.76912
-1.51565
-1.26739
-1.02636
-0.78679
-0.562433
-0.312697
-0.145717
-7.41935
-7.51444
-7.6209
-7.72779
-7.82263
-7.90061
-7.96692
-8.02592
-8.07845
-8.12565
-8.16927
-8.21044
-8.24972
-8.28758
-8.32438
-8.36034
-8.39558
-8.43018
-8.46415
-8.49748
-8.53013
-8.56204
-8.59315
-8.62338
-8.65264
-8.68085
-8.70792
-8.73376
-8.75828
-8.78139
-8.803
-8.82302
-8.84136
-8.85794
-8.87267
-8.88547
-8.89624
-8.9049
-8.91135
-8.9155
-8.91725
-8.9165
-8.91315
-8.90707
-8.89816
-8.88629
-8.87131
-8.85308
-8.83146
-8.80626
-8.77733
-8.74445
-8.70745
-8.6661
-8.62018
-8.56946
-8.5137
-8.45264
-8.38603
-8.3136
-8.23507
-8.15015
-8.05854
-7.95993
-7.85401
-7.74043
-7.61888
-7.48901
-7.3505
-7.20307
-7.04645
-6.88041
-6.7048
-6.51952
-6.32455
-6.11999
-5.90601
-5.68293
-5.45115
-5.21123
-4.96383
-4.70973
-4.44984
-4.18515
-3.91673
-3.64571
-3.37325
-3.10054
-2.82871
-2.55887
-2.29201
-2.02907
-1.77068
-1.51767
-1.26956
-1.02847
-0.788314
-0.563854
-0.311656
-0.149126
-7.46081
-7.54221
-7.63444
-7.72804
-7.81418
-7.88867
-7.95363
-8.01191
-8.06448
-8.11218
-8.15634
-8.19796
-8.23762
-8.27576
-8.31273
-8.34875
-8.38397
-8.41846
-8.45226
-8.48537
-8.51776
-8.54939
-8.58019
-8.6101
-8.63903
-8.66692
-8.69366
-8.71918
-8.74338
-8.76618
-8.78749
-8.80722
-8.82528
-8.84158
-8.85604
-8.86858
-8.87909
-8.88749
-8.89368
-8.89758
-8.89907
-8.89807
-8.89445
-8.88811
-8.87892
-8.86676
-8.85149
-8.83296
-8.81103
-8.78551
-8.75625
-8.72304
-8.68569
-8.64399
-8.59773
-8.54666
-8.49055
-8.42915
-8.3622
-8.28944
-8.2106
-8.12538
-8.0335
-7.93464
-7.8285
-7.71475
-7.59307
-7.46315
-7.32466
-7.17734
-7.02092
-6.8552
-6.68003
-6.49533
-6.30108
-6.09738
-5.88441
-5.66248
-5.432
-5.1935
-4.94763
-4.69517
-4.43699
-4.17405
-3.9074
-3.63814
-3.36739
-3.0963
-2.82597
-2.55749
-2.2918
-2.02982
-1.77215
-1.5196
-1.27166
-1.03051
-0.789827
-0.565204
-0.310843
-0.152116
-7.49712
-7.56789
-7.6484
-7.73111
-7.80938
-7.87974
-7.94264
-7.99972
-8.05182
-8.09957
-8.14396
-8.18581
-8.22568
-8.26397
-8.30101
-8.33703
-8.37216
-8.40651
-8.44011
-8.47297
-8.50508
-8.53639
-8.56686
-8.59643
-8.62501
-8.65254
-8.67893
-8.7041
-8.72795
-8.75042
-8.7714
-8.79081
-8.80856
-8.82456
-8.83873
-8.85097
-8.86119
-8.86931
-8.87523
-8.87885
-8.88006
-8.87878
-8.87488
-8.86824
-8.85876
-8.8463
-8.83072
-8.81187
-8.78961
-8.76376
-8.73415
-8.7006
-8.6629
-8.62084
-8.57421
-8.52279
-8.46632
-8.40458
-8.33729
-8.26421
-8.18505
-8.09953
-8.00738
-7.90828
-7.80194
-7.68803
-7.56625
-7.43629
-7.29785
-7.15066
-6.99449
-6.82912
-6.65444
-6.47035
-6.27686
-6.07407
-5.86216
-5.64143
-5.41229
-5.17526
-4.93098
-4.6802
-4.42377
-4.16263
-3.89778
-3.63031
-3.3613
-3.09186
-2.82306
-2.55595
-2.29145
-2.03045
-1.77351
-1.52143
-1.27367
-1.03248
-0.79132
-0.566477
-0.31026
-0.15467
-7.52907
-7.59151
-7.66246
-7.73612
-7.80737
-7.87337
-7.93375
-7.98927
-8.0405
-8.08793
-8.13223
-8.1741
-8.21401
-8.25233
-8.28935
-8.32528
-8.36029
-8.39445
-8.42781
-8.4604
-8.4922
-8.52318
-8.5533
-8.5825
-8.61071
-8.63786
-8.66387
-8.68867
-8.71216
-8.73426
-8.75489
-8.77395
-8.79137
-8.80704
-8.82089
-8.83281
-8.84273
-8.85054
-8.85616
-8.85947
-8.86039
-8.8588
-8.85459
-8.84765
-8.83785
-8.82507
-8.80916
-8.78998
-8.76738
-8.74118
-8.71121
-8.67729
-8.63923
-8.5968
-8.54981
-8.49802
-8.44119
-8.37909
-8.31146
-8.23804
-8.15857
-8.07277
-7.98035
-7.88102
-7.77448
-7.66043
-7.53857
-7.40859
-7.27022
-7.12319
-6.96729
-6.80232
-6.62815
-6.44471
-6.25203
-6.05018
-5.83937
-5.61988
-5.39212
-5.1566
-4.91395
-4.66488
-4.41023
-4.15091
-3.88791
-3.62225
-3.355
-3.08723
-2.81998
-2.55426
-2.29096
-2.03094
-1.77474
-1.52315
-1.27559
-1.03435
-0.792787
-0.567668
-0.309904
-0.156781
-7.55736
-7.6132
-7.67632
-7.7424
-7.80746
-7.86915
-7.92674
-7.98042
-8.03049
-8.07727
-8.12124
-8.16291
-8.2027
-8.24092
-8.27782
-8.31361
-8.34842
-8.38235
-8.41545
-8.44774
-8.47921
-8.50984
-8.53959
-8.56841
-8.59624
-8.62299
-8.64861
-8.67302
-8.69612
-8.71784
-8.73809
-8.75679
-8.77385
-8.78917
-8.80268
-8.81427
-8.82385
-8.83134
-8.83663
-8.83962
-8.84022
-8.8383
-8.83377
-8.8265
-8.81637
-8.80325
-8.78699
-8.76746
-8.74449
-8.71793
-8.6876
-8.6533
-8.61486
-8.57206
-8.52468
-8.47252
-8.41532
-8.35286
-8.28488
-8.21113
-8.13135
-8.04525
-7.95257
-7.85302
-7.7463
-7.63211
-7.51018
-7.38021
-7.24193
-7.09509
-6.93948
-6.77492
-6.6013
-6.41855
-6.2267
-6.02583
-5.81615
-5.59793
-5.37159
-5.13761
-4.8966
-4.64927
-4.39643
-4.13896
-3.87781
-3.61399
-3.34851
-3.08242
-2.81673
-2.55241
-2.29033
-2.03129
-1.77585
-1.52475
-1.27741
-1.03614
-0.794218
-0.568773
-0.309763
-0.158458
-7.58258
-7.63307
-7.68978
-7.7495
-7.80911
-7.8667
-7.92139
-7.97303
-8.02171
-8.06759
-8.111
-8.1523
-8.19181
-8.2298
-8.26649
-8.30206
-8.33664
-8.3703
-8.4031
-8.43506
-8.46619
-8.49645
-8.52582
-8.55424
-8.58167
-8.60802
-8.63323
-8.65723
-8.67993
-8.70126
-8.72112
-8.73944
-8.75612
-8.77108
-8.78422
-8.79546
-8.80469
-8.81183
-8.81678
-8.81943
-8.81969
-8.81743
-8.81256
-8.80494
-8.79446
-8.78098
-8.76436
-8.74446
-8.72113
-8.69419
-8.66347
-8.62879
-8.58996
-8.54677
-8.49901
-8.44646
-8.38889
-8.32606
-8.25773
-8.18364
-8.10354
-8.01716
-7.92422
-7.82444
-7.71755
-7.60325
-7.48126
-7.3513
-7.21313
-7.0665
-6.91121
-6.74709
-6.57404
-6.392
-6.201
-6.00114
-5.7926
-5.57569
-5.35077
-5.11835
-4.87901
-4.63344
-4.38243
-4.12681
-3.86753
-3.60555
-3.34185
-3.07746
-2.81333
-2.55041
-2.28954
-2.0315
-1.77682
-1.52621
-1.27912
-1.03782
-0.795605
-0.56979
-0.30982
-0.159721
-7.60519
-7.65131
-7.70273
-7.75706
-7.81189
-7.86564
-7.91745
-7.96695
-8.01408
-8.05888
-8.10153
-8.14228
-8.18137
-8.21903
-8.25542
-8.2907
-8.32497
-8.35833
-8.3908
-8.42241
-8.45317
-8.48305
-8.51203
-8.54005
-8.56706
-8.593
-8.6178
-8.64138
-8.66368
-8.68459
-8.70406
-8.72198
-8.73827
-8.75285
-8.76562
-8.77649
-8.78536
-8.79214
-8.79673
-8.79902
-8.79892
-8.79631
-8.79108
-8.7831
-8.77225
-8.7584
-8.74141
-8.72114
-8.69741
-8.67008
-8.63897
-8.6039
-8.56467
-8.52108
-8.47292
-8.41999
-8.36203
-8.29884
-8.23015
-8.15573
-8.07531
-7.98864
-7.89545
-7.79546
-7.68839
-7.57398
-7.45195
-7.32203
-7.18397
-7.03757
-6.88261
-6.71895
-6.54648
-6.36517
-6.17505
-5.9762
-5.76884
-5.55323
-5.32977
-5.09891
-4.86125
-4.61745
-4.36826
-4.11451
-3.8571
-3.59695
-3.33504
-3.07233
-2.80977
-2.54825
-2.28859
-2.03156
-1.77764
-1.52754
-1.2807
-1.03938
-0.79694
-0.570718
-0.310054
-0.160602
-7.62556
-7.66805
-7.71507
-7.76483
-7.81548
-7.8657
-7.9147
-7.96203
-8.0075
-8.05106
-8.0928
-8.13287
-8.17142
-8.20863
-8.24464
-8.27956
-8.31348
-8.34648
-8.37859
-8.40983
-8.4402
-8.46969
-8.49826
-8.52586
-8.55246
-8.57797
-8.60235
-8.62552
-8.64739
-8.6679
-8.68695
-8.70447
-8.72037
-8.73456
-8.74694
-8.75743
-8.76593
-8.77233
-8.77655
-8.77848
-8.77801
-8.77504
-8.76943
-8.76108
-8.74986
-8.73563
-8.71826
-8.69759
-8.67348
-8.64575
-8.61424
-8.57876
-8.53912
-8.49513
-8.44658
-8.39324
-8.33491
-8.27134
-8.20229
-8.12753
-8.0468
-7.95984
-7.8664
-7.7662
-7.65897
-7.54446
-7.42239
-7.29251
-7.1546
-7.00842
-6.85381
-6.69062
-6.51876
-6.33819
-6.14895
-5.95114
-5.74495
-5.53066
-5.30864
-5.07937
-4.84338
-4.60134
-4.35398
-4.10209
-3.84654
-3.58823
-3.3281
-3.06707
-2.80606
-2.54594
-2.2875
-2.03146
-1.7783
-1.52872
-1.28215
-1.04083
-0.798212
-0.571558
-0.310438
-0.161137
-7.64401
-7.68344
-7.72676
-7.77264
-7.8196
-7.8666
-7.91293
-7.9581
-8.00186
-8.0441
-8.08481
-8.12407
-8.16198
-8.19865
-8.23418
-8.26867
-8.30219
-8.33479
-8.36651
-8.39735
-8.42732
-8.45639
-8.48454
-8.51173
-8.53789
-8.56298
-8.58693
-8.60967
-8.63113
-8.65121
-8.66986
-8.68697
-8.70246
-8.71625
-8.72824
-8.73834
-8.74646
-8.75249
-8.75633
-8.75788
-8.75704
-8.75369
-8.7477
-8.73898
-8.72737
-8.71275
-8.69499
-8.67393
-8.64941
-8.62128
-8.58936
-8.55347
-8.51343
-8.46903
-8.42007
-8.36634
-8.30762
-8.24368
-8.17427
-8.09918
-8.01813
-7.93089
-7.8372
-7.73679
-7.62941
-7.5148
-7.39271
-7.26289
-7.12511
-6.97918
-6.82493
-6.66222
-6.49097
-6.31115
-6.1228
-5.92602
-5.72101
-5.50805
-5.28748
-5.05977
-4.82546
-4.58518
-4.33962
-4.08958
-3.83588
-3.5794
-3.32103
-3.06167
-2.80221
-2.54348
-2.28624
-2.0312
-1.77881
-1.52975
-1.28347
-1.04216
-0.799414
-0.572308
-0.310945
-0.16137
-7.66077
-7.69761
-7.7378
-7.78033
-7.82407
-7.86815
-7.91195
-7.95502
-7.99706
-8.03791
-8.07751
-8.11587
-8.15303
-8.18908
-8.22407
-8.25807
-8.29114
-8.3233
-8.35459
-8.385
-8.41455
-8.44319
-8.47091
-8.49767
-8.5234
-8.54806
-8.57157
-8.59388
-8.61491
-8.63458
-8.6528
-8.6695
-8.68459
-8.69797
-8.70957
-8.71928
-8.727
-8.73265
-8.73611
-8.73728
-8.73606
-8.73232
-8.72596
-8.71684
-8.70485
-8.68984
-8.67168
-8.65022
-8.6253
-8.59676
-8.56443
-8.52813
-8.48768
-8.44287
-8.39351
-8.33939
-8.28028
-8.21596
-8.1462
-8.07076
-7.98941
-7.90189
-7.80795
-7.70735
-7.59982
-7.48512
-7.36301
-7.23325
-7.09563
-6.94996
-6.79607
-6.63385
-6.46321
-6.28415
-6.09669
-5.90095
-5.69711
-5.48546
-5.26634
-5.04019
-4.80754
-4.56899
-4.32524
-4.07703
-3.82516
-3.57048
-3.31386
-3.05616
-2.79822
-2.54087
-2.28482
-2.03077
-1.77915
-1.53061
-1.28463
-1.04336
-0.800536
-0.57297
-0.311546
-0.161347
-7.67606
-7.71066
-7.74818
-7.78783
-7.82872
-7.87017
-7.91162
-7.95267
-7.993
-8.03243
-8.07085
-8.10824
-8.1446
-8.17995
-8.21433
-8.24778
-8.28034
-8.31203
-8.34286
-8.37282
-8.40192
-8.43012
-8.4574
-8.48371
-8.50901
-8.53323
-8.55631
-8.57818
-8.59878
-8.61802
-8.63582
-8.65211
-8.66678
-8.67977
-8.69096
-8.70027
-8.70761
-8.71286
-8.71594
-8.71673
-8.71512
-8.711
-8.70425
-8.69474
-8.68236
-8.66696
-8.6484
-8.62653
-8.60121
-8.57226
-8.53952
-8.50282
-8.46195
-8.41674
-8.36697
-8.31245
-8.25296
-8.18827
-8.11815
-8.04239
-7.96073
-7.87293
-7.77876
-7.67796
-7.57029
-7.45551
-7.33339
-7.2037
-7.06624
-6.92083
-6.76732
-6.60559
-6.43557
-6.25725
-6.07069
-5.87598
-5.67332
-5.46297
-5.24527
-5.02067
-4.78966
-4.55283
-4.31086
-4.06445
-3.8144
-3.5615
-3.3066
-3.05053
-2.7941
-2.53811
-2.28325
-2.03017
-1.77932
-1.53131
-1.28565
-1.04442
-0.801569
-0.573546
-0.312212
-0.161112
-7.69003
-7.72269
-7.75791
-7.79506
-7.83344
-7.87251
-7.91179
-7.95091
-7.98958
-8.02758
-8.0648
-8.10117
-8.13665
-8.17125
-8.20497
-8.23783
-8.26984
-8.30101
-8.33134
-8.36084
-8.38947
-8.41721
-8.44404
-8.4699
-8.49475
-8.51852
-8.54116
-8.5626
-8.58276
-8.60158
-8.61896
-8.63482
-8.64909
-8.66166
-8.67245
-8.68137
-8.68831
-8.69317
-8.69586
-8.69626
-8.69426
-8.68976
-8.68262
-8.67272
-8.65995
-8.64415
-8.62519
-8.60293
-8.5772
-8.54785
-8.5147
-8.47758
-8.43631
-8.39069
-8.34053
-8.28561
-8.22574
-8.16068
-8.09022
-8.01412
-7.93216
-7.8441
-7.7497
-7.64871
-7.54091
-7.42606
-7.30394
-7.17433
-7.03703
-6.89189
-6.73875
-6.57751
-6.40811
-6.23055
-6.04487
-5.85118
-5.64968
-5.44062
-5.22434
-5.00125
-4.77186
-4.53674
-4.29651
-4.05188
-3.80361
-3.55247
-3.29926
-3.04479
-2.78986
-2.5352
-2.28151
-2.02941
-1.77932
-1.53185
-1.28652
-1.04535
-0.802506
-0.574034
-0.312914
-0.160711
-7.70282
-7.7338
-7.76701
-7.80198
-7.83814
-7.87506
-7.91234
-7.94965
-7.9867
-8.0233
-8.0593
-8.09462
-8.12919
-8.16298
-8.19599
-8.22821
-8.25964
-8.29026
-8.32008
-8.34907
-8.37722
-8.40449
-8.43085
-8.45625
-8.48065
-8.50397
-8.52617
-8.54717
-8.5669
-8.58528
-8.60224
-8.61768
-8.63153
-8.6437
-8.65409
-8.6626
-8.66915
-8.67362
-8.67592
-8.67593
-8.67354
-8.66865
-8.66112
-8.65084
-8.63767
-8.62148
-8.60212
-8.57946