/*--------------------------------*- C++ -*----------------------------------*\
| =========                 |                                                 |
| \\      /  F ield         | OpenFOAM: The Open Source CFD Toolbox           |
|  \\    /   O peration     | Version:  4.1                                   |
|   \\  /    A nd           | Web:      www.OpenFOAM.org                      |
|    \\/     M anipulation  |                                                 |
\*---------------------------------------------------------------------------*/
FoamFile
{
    version     2.0;
    format      ascii;
    class       surfaceScalarField;
    location    "1200";
    object      phi;
}
// * * * * * * * * * * * * * * * * * * * * * * * * * * * * * * * * * * * * * //

dimensions      [0 3 -1 0 0 0 0];

internalField   nonuniform List<scalar> 
13452
(
5.98811e-05
3.87334e-07
5.95252e-05
3.55937e-07
5.92696e-05
2.55586e-07
5.90615e-05
2.08069e-07
5.88793e-05
1.82252e-07
5.87167e-05
1.62634e-07
5.85688e-05
1.47865e-07
5.84321e-05
1.3672e-07
5.83044e-05
1.27689e-07
5.81843e-05
1.20053e-07
5.80708e-05
1.13554e-07
5.79627e-05
1.08024e-07
5.78594e-05
1.03321e-07
5.77601e-05
9.93472e-08
5.7664e-05
9.60369e-08
5.75707e-05
9.33521e-08
5.74794e-05
9.12769e-08
5.73896e-05
8.98196e-08
5.73006e-05
8.90151e-08
5.72116e-05
8.89315e-08
5.7122e-05
8.9681e-08
5.70305e-05
9.14405e-08
5.6936e-05
9.44875e-08
5.68368e-05
9.9265e-08
5.67303e-05
1.06511e-07
5.66127e-05
1.17513e-07
5.6478e-05
1.34732e-07
5.63151e-05
1.62873e-07
5.61014e-05
2.13723e-07
5.57937e-05
3.07701e-07
5.52641e-05
5.29583e-07
5.42148e-05
1.04937e-06
1.53828e-06
5.26765e-05
6.20749e-05
3.02761e-07
6.19987e-05
4.32111e-07
6.18516e-05
4.02673e-07
6.16884e-05
3.71291e-07
6.15293e-05
3.41405e-07
6.13798e-05
3.12137e-07
6.12402e-05
2.87434e-07
6.11095e-05
2.67434e-07
6.09864e-05
2.5075e-07
6.087e-05
2.3652e-07
6.07592e-05
2.24314e-07
6.06534e-05
2.13822e-07
6.05519e-05
2.04807e-07
6.04542e-05
1.97104e-07
6.03596e-05
1.90608e-07
6.02677e-05
1.85252e-07
6.0178e-05
1.8101e-07
6.00899e-05
1.77894e-07
6.00029e-05
1.75959e-07
5.99166e-05
1.75312e-07
5.98301e-05
1.76133e-07
5.97428e-05
1.78698e-07
5.96539e-05
1.8343e-07
5.95622e-05
1.90985e-07
5.94663e-05
2.02412e-07
5.93644e-05
2.19403e-07
5.92541e-05
2.4505e-07
5.91327e-05
2.8429e-07
5.8997e-05
3.49355e-07
5.88507e-05
4.54007e-07
5.8717e-05
6.63269e-07
5.87639e-05
1.00251e-06
1.63631e-06
5.86659e-05
6.38373e-05
2.26835e-07
6.38685e-05
4.00967e-07
6.38445e-05
4.26694e-07
6.37851e-05
4.30686e-07
6.37048e-05
4.21711e-07
6.36142e-05
4.02684e-07
6.35198e-05
3.81817e-07
6.34248e-05
3.62432e-07
6.33308e-05
3.44806e-07
6.32384e-05
3.28912e-07
6.31479e-05
3.14759e-07
6.30595e-05
3.02272e-07
6.29729e-05
2.9134e-07
6.28882e-05
2.81882e-07
6.28049e-05
2.73849e-07
6.2723e-05
2.67221e-07
6.2642e-05
2.62014e-07
6.25616e-05
2.58285e-07
6.24814e-05
2.56142e-07
6.24009e-05
2.55758e-07
6.23197e-05
2.57399e-07
6.22369e-05
2.61455e-07
6.21518e-05
2.68506e-07
6.20634e-05
2.79418e-07
6.19703e-05
2.95525e-07
6.18708e-05
3.18875e-07
6.17629e-05
3.52938e-07
6.16444e-05
4.02842e-07
6.15145e-05
4.79277e-07
6.13756e-05
5.92882e-07
6.12581e-05
7.80734e-07
6.12262e-05
1.03439e-06
1.47472e-06
6.13878e-05
6.5637e-05
1.72891e-07
6.56889e-05
3.4905e-07
6.57122e-05
4.03391e-07
6.57127e-05
4.3023e-07
6.56932e-05
4.41248e-07
6.5658e-05
4.37838e-07
6.56121e-05
4.27727e-07
6.5559e-05
4.15503e-07
6.55012e-05
4.02595e-07
6.54404e-05
3.89756e-07
6.53776e-05
3.7756e-07
6.53135e-05
3.66324e-07
6.52487e-05
3.56204e-07
6.51832e-05
3.47304e-07
6.51174e-05
3.39712e-07
6.50511e-05
3.33516e-07
6.49843e-05
3.28821e-07
6.49168e-05
3.25762e-07
6.48484e-05
3.24526e-07
6.47788e-05
3.2537e-07
6.47076e-05
3.28652e-07
6.46341e-05
3.34872e-07
6.45579e-05
3.4474e-07
6.4478e-05
3.59278e-07
6.43936e-05
3.79987e-07
6.43034e-05
4.09064e-07
6.42064e-05
4.49928e-07
6.41019e-05
5.07313e-07
6.39917e-05
5.89463e-07
6.38807e-05
7.03917e-07
6.37916e-05
8.69837e-07
6.37497e-05
1.07633e-06
1.36372e-06
6.38607e-05
6.74946e-05
1.35101e-07
6.75432e-05
3.00463e-07
6.75779e-05
3.68613e-07
6.76013e-05
4.0684e-07
6.76127e-05
4.29926e-07
6.76119e-05
4.38602e-07
6.76009e-05
4.3875e-07
6.75815e-05
4.34836e-07
6.75555e-05
4.28615e-07
6.75242e-05
4.21105e-07
6.74886e-05
4.13154e-07
6.74496e-05
4.05339e-07
6.74077e-05
3.98034e-07
6.73635e-05
3.91514e-07
6.73172e-05
3.86007e-07
6.7269e-05
3.81717e-07
6.7219e-05
3.78849e-07
6.71671e-05
3.77628e-07
6.71133e-05
3.78326e-07
6.70574e-05
3.81281e-07
6.69991e-05
3.86935e-07
6.69381e-05
3.95877e-07
6.6874e-05
4.08904e-07
6.68061e-05
4.27116e-07
6.67341e-05
4.52048e-07
6.66573e-05
4.85829e-07
6.65757e-05
5.31501e-07
6.64901e-05
5.92976e-07
6.64035e-05
6.75993e-07
6.63222e-05
7.85208e-07
6.62631e-05
9.28982e-07
6.62419e-05
1.09754e-06
1.29621e-06
6.63094e-05
6.94108e-05
1.08308e-07
6.9452e-05
2.59322e-07
6.94866e-05
3.33955e-07
6.95155e-05
3.7794e-07
6.95381e-05
4.07337e-07
6.95532e-05
4.23511e-07
6.95611e-05
4.3089e-07
6.95624e-05
4.33521e-07
6.95578e-05
4.33196e-07
6.9548e-05
4.30929e-07
6.95335e-05
4.2759e-07
6.9515e-05
4.23839e-07
6.94929e-05
4.20143e-07
6.94676e-05
4.16867e-07
6.94393e-05
4.14326e-07
6.94082e-05
4.12806e-07
6.93744e-05
4.12586e-07
6.93381e-05
4.13965e-07
6.92991e-05
4.1728e-07
6.92575e-05
4.22933e-07
6.9213e-05
4.31427e-07
6.91655e-05
4.43401e-07
6.91147e-05
4.5969e-07
6.90604e-05
4.8139e-07
6.90025e-05
5.09954e-07
6.89411e-05
5.47279e-07
6.88767e-05
5.95849e-07
6.88111e-05
6.58588e-07
6.8748e-05
7.39087e-07
6.86936e-05
8.39642e-07
6.866e-05
9.62594e-07
6.86577e-05
1.09976e-06
1.24535e-06
6.87086e-05
7.13857e-05
8.89858e-08
7.14198e-05
2.25203e-07
7.14515e-05
3.02227e-07
7.148e-05
3.49483e-07
7.1505e-05
3.82279e-07
7.15256e-05
4.02962e-07
7.15414e-05
4.15039e-07
7.15528e-05
4.22149e-07
7.15599e-05
4.2613e-07
7.15628e-05
4.27979e-07
7.15619e-05
4.28523e-07
7.15573e-05
4.28419e-07
7.15493e-05
4.28154e-07
7.1538e-05
4.2812e-07
7.15237e-05
4.28666e-07
7.15064e-05
4.30115e-07
7.14862e-05
4.32786e-07
7.14631e-05
4.37018e-07
7.14372e-05
4.43186e-07
7.14084e-05
4.51728e-07
7.13767e-05
4.63171e-07
7.13419e-05
4.78168e-07
7.13041e-05
4.97533e-07
7.12632e-05
5.22289e-07
7.12194e-05
5.53721e-07
7.11733e-05
5.93396e-07
7.11259e-05
6.43185e-07
7.10795e-05
7.05052e-07
7.10376e-05
7.80934e-07
7.10058e-05
8.71443e-07
7.09925e-05
9.75919e-07
7.10046e-05
1.08763e-06
1.19867e-06
7.10513e-05
7.34195e-05
7.47533e-08
7.34477e-05
1.97004e-07
7.34761e-05
2.73795e-07
7.35027e-05
3.22956e-07
7.35272e-05
3.57776e-07
7.35488e-05
3.81371e-07
7.35671e-05
3.9665e-07
7.35824e-05
4.06852e-07
7.35947e-05
4.13863e-07
7.3604e-05
4.18711e-07
7.36103e-05
4.22204e-07
7.36137e-05
4.24988e-07
7.36143e-05
4.27557e-07
7.36121e-05
4.30308e-07
7.36072e-05
4.33598e-07
7.35996e-05
4.37762e-07
7.35892e-05
4.43134e-07
7.35762e-05
4.50063e-07
7.35604e-05
4.58939e-07
7.35419e-05
4.70204e-07
7.35207e-05
4.8438e-07
7.34968e-05
5.0209e-07
7.34703e-05
5.24083e-07
7.34413e-05
5.5126e-07
7.34103e-05
5.84679e-07
7.33782e-05
6.25545e-07
7.33462e-05
6.7514e-07
7.33167e-05
7.34612e-07
7.32929e-05
8.04721e-07
7.32793e-05
8.85016e-07
7.32817e-05
9.73545e-07
7.33045e-05
1.06483e-06
1.1518e-06
7.33514e-05
7.55132e-05
6.40171e-08
7.55366e-05
1.73649e-07
7.55619e-05
2.48466e-07
7.55863e-05
2.98528e-07
7.56095e-05
3.34617e-07
7.56306e-05
3.60234e-07
7.56494e-05
3.77889e-07
7.56658e-05
3.90414e-07
7.568e-05
3.99687e-07
7.56919e-05
4.06788e-07
7.57016e-05
4.12523e-07
7.5709e-05
4.17543e-07
7.57142e-05
4.22353e-07
7.57172e-05
4.27357e-07
7.57179e-05
4.32915e-07
7.57163e-05
4.39366e-07
7.57124e-05
4.47046e-07
7.57061e-05
4.56303e-07
7.56975e-05
4.67518e-07
7.56866e-05
4.81119e-07
7.56734e-05
4.97594e-07
7.5658e-05
5.17509e-07
7.56406e-05
5.41517e-07
7.56215e-05
5.70359e-07
7.56013e-05
6.04854e-07
7.5581e-05
6.45847e-07
7.5562e-05
6.94113e-07
7.55465e-05
7.50163e-07
7.55372e-05
8.13981e-07
7.55377e-05
8.84527e-07
7.55518e-05
9.5946e-07
7.55822e-05
1.03438e-06
1.10371e-06
7.56303e-05
7.76679e-05
5.57128e-08
7.76873e-05
1.542e-07
7.77099e-05
2.25943e-07
7.77323e-05
2.76072e-07
7.7754e-05
3.12894e-07
7.77743e-05
3.39945e-07
7.77928e-05
3.59452e-07
7.78093e-05
3.73857e-07
7.7824e-05
3.84965e-07
7.78369e-05
3.93886e-07
7.7848e-05
4.0143e-07
7.78573e-05
4.08255e-07
7.78648e-05
4.14875e-07
7.78704e-05
4.21708e-07
7.78742e-05
4.29118e-07
7.78762e-05
4.37447e-07
7.78762e-05
4.47025e-07
7.78743e-05
4.58193e-07
7.78705e-05
4.71313e-07
7.78648e-05
4.86782e-07
7.78574e-05
5.05041e-07
7.78483e-05
5.26577e-07
7.78379e-05
5.51929e-07
7.78266e-05
5.81671e-07
7.78151e-05
6.16385e-07
7.78043e-05
6.56597e-07
7.77958e-05
7.02675e-07
7.77913e-05
7.54667e-07
7.77931e-05
8.12092e-07
7.7804e-05
8.73648e-07
7.78264e-05
9.37047e-07
7.7862e-05
9.98797e-07
1.05474e-06
7.7911e-05
7.98849e-05
4.91255e-08
7.99012e-05
1.37875e-07
7.99213e-05
2.05914e-07
7.99419e-05
2.55419e-07
7.99623e-05
2.92528e-07
7.99817e-05
3.20554e-07
7.99996e-05
3.41507e-07
8.0016e-05
3.57478e-07
8.00308e-05
3.70148e-07
8.00441e-05
3.80626e-07
8.00558e-05
3.89719e-07
8.0066e-05
3.98081e-07
8.00746e-05
4.06234e-07
8.00817e-05
4.14604e-07
8.00873e-05
4.23561e-07
8.00913e-05
4.33441e-07
8.00937e-05
4.44572e-07
8.00946e-05
4.57277e-07
8.00941e-05
4.71895e-07
8.00921e-05
4.88782e-07
8.00888e-05
5.08319e-07
8.00844e-05
5.30911e-07
8.00794e-05
5.56976e-07
8.00741e-05
5.86925e-07
8.00694e-05
6.21127e-07
8.00661e-05
6.59844e-07
8.00657e-05
7.03139e-07
8.00696e-05
7.5075e-07
8.00797e-05
8.01952e-07
8.0098e-05
8.55389e-07
8.0126e-05
9.09016e-07
8.01647e-05
9.60099e-07
1.0056e-06
8.02139e-05
8.21658e-05
4.37705e-08
8.21796e-05
1.24031e-07
8.21975e-05
1.88069e-07
8.22165e-05
2.364e-07
8.22356e-05
2.73405e-07
8.22542e-05
3.02018e-07
8.22716e-05
3.24062e-07
8.22878e-05
3.41326e-07
8.23026e-05
3.55338e-07
8.2316e-05
3.67176e-07
8.23281e-05
3.77633e-07
8.23388e-05
3.8735e-07
8.23482e-05
3.96847e-07
8.23563e-05
4.06551e-07
8.2363e-05
4.1683e-07
8.23684e-05
4.28015e-07
8.23726e-05
4.40422e-07
8.23755e-05
4.54355e-07
8.23773e-05
4.70121e-07
8.2378e-05
4.88031e-07
8.2378e-05
5.08403e-07
8.23773e-05
5.31555e-07
8.23765e-05
5.57789e-07
8.2376e-05
5.87371e-07
8.23767e-05
6.2049e-07
8.23793e-05
6.57201e-07
8.23851e-05
6.97354e-07
8.23954e-05
7.40505e-07
8.24115e-05
7.85826e-07
8.24348e-05
8.32033e-07
8.24665e-05
8.77383e-07
8.25068e-05
9.19758e-07
9.56952e-07
8.25555e-05
8.45122e-05
3.93154e-08
8.45241e-05
1.12155e-07
8.45401e-05
1.72112e-07
8.45576e-05
2.18849e-07
8.45756e-05
2.55404e-07
8.45934e-05
2.84269e-07
8.46103e-05
3.07081e-07
8.46263e-05
3.25378e-07
8.46411e-05
3.40526e-07
8.46547e-05
3.53546e-07
8.46672e-05
3.65206e-07
8.46784e-05
3.76124e-07
8.46884e-05
3.8681e-07
8.46973e-05
3.97684e-07
8.4705e-05
4.09105e-07
8.47116e-05
4.21395e-07
8.47172e-05
4.34851e-07
8.47218e-05
4.49751e-07
8.47256e-05
4.66369e-07
8.47286e-05
4.84966e-07
8.47312e-05
5.05797e-07
8.47337e-05
5.29095e-07
8.47364e-05
5.5506e-07
8.474e-05
5.8383e-07
8.4745e-05
6.15453e-07
8.47524e-05
6.49834e-07
8.4763e-05
6.86687e-07
8.47781e-05
7.25474e-07
8.47985e-05
7.65361e-07
8.48254e-05
8.05196e-07
8.48592e-05
8.43538e-07
8.49002e-05
8.78758e-07
9.09261e-07
8.49479e-05
8.6926e-05
3.5529e-08
8.69363e-05
1.01836e-07
8.69506e-05
1.57764e-07
8.69669e-05
2.02602e-07
8.69839e-05
2.38408e-07
8.70009e-05
2.67227e-07
8.70175e-05
2.90514e-07
8.70333e-05
3.09593e-07
8.70481e-05
3.2567e-07
8.7062e-05
3.39695e-07
8.70748e-05
3.52398e-07
8.70865e-05
3.64369e-07
8.70972e-05
3.76097e-07
8.71069e-05
3.87989e-07
8.71156e-05
4.0039e-07
8.71234e-05
4.13604e-07
8.71304e-05
4.27905e-07
8.71366e-05
4.43545e-07
8.71422e-05
4.60757e-07
8.71474e-05
4.79754e-07
8.71525e-05
5.00729e-07
8.71577e-05
5.23838e-07
8.71636e-05
5.49191e-07
8.71706e-05
5.76825e-07
8.71794e-05
6.0668e-07
8.71907e-05
6.3856e-07
8.72052e-05
6.72103e-07
8.7224e-05
7.06742e-07
8.72476e-05
7.41693e-07
8.72769e-05
7.75957e-07
8.73121e-05
8.08368e-07
8.73531e-05
8.37681e-07
8.62744e-07
8.73996e-05
8.94088e-05
3.22465e-08
8.94179e-05
9.27482e-08
8.94309e-05
1.4477e-07
8.9446e-05
1.87495e-07
8.94621e-05
2.22295e-07
8.94785e-05
2.50807e-07
8.94948e-05
2.74302e-07
8.95104e-05
2.9392e-07
8.95254e-05
3.1072e-07
8.95395e-05
3.2557e-07
8.95527e-05
3.39152e-07
8.95651e-05
3.52023e-07
8.95765e-05
3.64645e-07
8.95871e-05
3.77403e-07
8.95969e-05
3.90624e-07
8.96059e-05
4.04589e-07
8.96143e-05
4.19547e-07
8.96221e-05
4.35717e-07
8.96296e-05
4.53293e-07
8.96369e-05
4.72441e-07
8.96443e-05
4.93295e-07
8.96522e-05
5.15946e-07
8.9661e-05
5.40429e-07
8.96711e-05
5.66702e-07
8.96831e-05
5.9463e-07
8.96977e-05
6.23957e-07
8.97156e-05
6.54285e-07
8.97372e-05
6.85065e-07
8.97633e-05
7.15588e-07
8.97943e-05
7.45013e-07
8.98302e-05
7.72407e-07
8.98711e-05
7.96824e-07
8.17435e-07
8.99164e-05
9.19628e-05
2.9348e-08
9.19709e-05
8.46318e-08
9.19827e-05
1.32899e-07
9.19969e-05
1.73369e-07
9.20122e-05
2.06945e-07
9.20281e-05
2.34917e-07
9.2044e-05
2.58375e-07
9.20597e-05
2.78303e-07
9.20748e-05
2.95623e-07
9.20892e-05
3.11115e-07
9.2103e-05
3.25409e-07
9.2116e-05
3.39021e-07
9.21282e-05
3.52383e-07
9.21398e-05
3.65853e-07
9.21507e-05
3.79733e-07
9.2161e-05
3.94279e-07
9.21708e-05
4.09712e-07
9.21803e-05
4.26218e-07
9.21896e-05
4.43951e-07
9.2199e-05
4.63034e-07
9.22088e-05
4.83548e-07
9.22192e-05
5.05529e-07
9.22307e-05
5.28952e-07
9.22437e-05
5.53721e-07
9.22587e-05
5.7965e-07
9.22762e-05
6.06454e-07
9.22967e-05
6.33734e-07
9.23208e-05
6.60978e-07
9.23488e-05
6.87568e-07
9.2381e-05
7.12807e-07
9.24175e-05
7.35959e-07
9.2458e-05
7.56307e-07
7.73258e-07
9.25022e-05
9.45898e-05
2.67439e-08
9.45971e-05
7.7278e-08
9.46081e-05
1.21946e-07
9.46214e-05
1.60067e-07
9.46361e-05
1.92236e-07
9.46515e-05
2.19459e-07
9.46673e-05
2.42657e-07
9.46829e-05
2.62678e-07
9.46982e-05
2.80318e-07
9.4713e-05
2.96269e-07
9.47273e-05
3.11105e-07
9.47411e-05
3.25298e-07
9.47542e-05
3.39242e-07
9.47668e-05
3.53267e-07
9.47789e-05
3.67646e-07
9.47905e-05
3.82608e-07
9.48019e-05
3.98343e-07
9.48131e-05
4.15004e-07
9.48244e-05
4.32709e-07
9.48359e-05
4.51539e-07
9.48479e-05
4.71534e-07
9.48607e-05
4.92682e-07
9.48748e-05
5.14916e-07
9.48904e-05
5.38101e-07
9.4908e-05
5.62025e-07
9.49281e-05
5.86395e-07
9.4951e-05
6.10832e-07
9.49771e-05
6.34874e-07
9.50066e-05
6.57996e-07
9.50398e-05
6.79627e-07
9.50766e-05
6.99193e-07
9.51167e-05
7.16154e-07
7.30086e-07
9.51599e-05
9.72919e-05
2.43648e-08
9.72987e-05
7.05176e-08
9.73089e-05
1.11727e-07
9.73215e-05
1.47436e-07
9.73357e-05
1.78044e-07
9.73508e-05
2.0433e-07
9.73664e-05
2.27065e-07
9.73821e-05
2.46973e-07
9.73977e-05
2.64738e-07
9.7413e-05
2.80969e-07
9.74279e-05
2.96176e-07
9.74424e-05
3.10787e-07
9.74565e-05
3.25156e-07
9.74702e-05
3.39579e-07
9.74836e-05
3.543e-07
9.74967e-05
3.69518e-07
9.75096e-05
3.85392e-07
9.75226e-05
4.02043e-07
9.75357e-05
4.19556e-07
9.75493e-05
4.37977e-07
9.75635e-05
4.57308e-07
9.75787e-05
4.77504e-07
9.75951e-05
4.98468e-07
9.76132e-05
5.20041e-07
9.76332e-05
5.42003e-07
9.76555e-05
5.64068e-07
9.76805e-05
5.85886e-07
9.77083e-05
6.07056e-07
9.77392e-05
6.27135e-07
9.77731e-05
6.45666e-07
9.78101e-05
6.62202e-07
9.78499e-05
6.76338e-07
6.87776e-07
9.78922e-05
0.000100071
2.21561e-08
0.000100078
6.42103e-08
0.000100087
1.02079e-07
0.000100099
1.35331e-07
0.000100113
1.64245e-07
0.000100128
1.89424e-07
0.000100144
2.11508e-07
0.000100159
2.3111e-07
0.000100175
2.48814e-07
0.000100191
2.65147e-07
0.000100207
2.80558e-07
0.000100222
2.95425e-07
0.000100237
3.10062e-07
0.000100252
3.2473e-07
0.000100267
3.39641e-07
0.000100281
3.54963e-07
0.000100296
3.70825e-07
0.000100311
3.87319e-07
0.000100326
4.04499e-07
0.000100341
4.2238e-07
0.000100358
4.40938e-07
0.000100375
4.60102e-07
0.000100394
4.79754e-07
0.000100414
4.99728e-07
0.000100436
5.19804e-07
0.000100461
5.39715e-07
0.000100487
5.59149e-07
0.000100517
5.7776e-07
0.000100549
5.95184e-07
0.000100583
6.11056e-07
0.00010062
6.25033e-07
0.00010066
6.36814e-07
6.4619e-07
0.000100702
0.00010293
2.00726e-08
0.000102936
5.8238e-08
0.000102945
9.28555e-08
0.000102957
1.23612e-07
0.000102971
1.50712e-07
0.000102985
1.7463e-07
0.000103001
1.95889e-07
0.000103017
2.15003e-07
0.000103033
2.32468e-07
0.00010305
2.48731e-07
0.000103066
2.64182e-07
0.000103083
2.79147e-07
0.000103099
2.93901e-07
0.000103115
3.08666e-07
0.000103131
3.23621e-07
0.000103147
3.38906e-07
0.000103163
3.54619e-07
0.00010318
3.70826e-07
0.000103196
3.87554e-07
0.000103214
4.04794e-07
0.000103233
4.22499e-07
0.000103252
4.40582e-07
0.000103273
4.58917e-07
0.000103295
4.77334e-07
0.000103319
4.95625e-07
0.000103346
5.13547e-07
0.000103374
5.30828e-07
0.000103405
5.47175e-07
0.000103437
5.62292e-07
0.000103473
5.75891e-07
0.00010351
5.8771e-07
0.000103549
5.97528e-07
6.05202e-07
0.00010359
0.000105871
1.80765e-08
0.000105876
5.24987e-08
0.000105885
8.39233e-08
0.000105897
1.12142e-07
0.00010591
1.37321e-07
0.000105925
1.59833e-07
0.000105941
1.80104e-07
0.000105957
1.98561e-07
0.000105974
2.15616e-07
0.000105991
2.31646e-07
0.000106008
2.46978e-07
0.000106026
2.61891e-07
0.000106043
2.76615e-07
0.00010606
2.91336e-07
0.000106078
3.06201e-07
0.000106095
3.21319e-07
0.000106113
3.36763e-07
0.000106131
3.52571e-07
0.00010615
3.6875e-07
0.00010617
3.85271e-07
0.00010619
4.02072e-07
0.000106212
4.19055e-07
0.000106235
4.36091e-07
0.000106259
4.53017e-07
0.000106285
4.69641e-07
0.000106313
4.85745e-07
0.000106342
5.01096e-07
0.000106374
5.15452e-07
0.000106408
5.28573e-07
0.000106443
5.40234e-07
0.000106481
5.50239e-07
0.00010652
5.58425e-07
5.64699e-07
0.000106561
0.000108895
1.61347e-08
0.000108901
4.69017e-08
0.00010891
7.51589e-08
0.000108921
1.00791e-07
0.000108934
1.23944e-07
0.000108949
1.44914e-07
0.000108965
1.64044e-07
0.000108982
1.81685e-07
0.000109
1.98171e-07
0.000109018
2.13811e-07
0.000109036
2.28875e-07
0.000109054
2.43591e-07
0.000109072
2.58148e-07
0.000109091
2.72695e-07
0.00010911
2.87346e-07
0.000109129
3.02181e-07
0.000109149
3.17249e-07
0.000109169
3.32567e-07
0.000109189
3.48122e-07
0.000109211
3.63869e-07
0.000109233
3.79738e-07
0.000109256
3.95625e-07
0.000109281
4.11404e-07
0.000109307
4.26921e-07
0.000109335
4.42003e-07
0.000109364
4.56461e-07
0.000109395
4.70097e-07
0.000109428
4.82711e-07
0.000109462
4.94113e-07
0.000109498
5.0413e-07
0.000109536
5.12614e-07
0.000109575
5.1945e-07
5.2458e-07
0.000109615
0.000112006
1.42172e-08
0.000112012
4.13641e-08
0.000112021
6.64453e-08
0.000112032
8.9428e-08
0.000112046
1.10449e-07
0.000112061
1.29747e-07
0.000112077
1.47595e-07
0.000112095
1.64268e-07
0.000112113
1.80036e-07
0.000112131
1.9514e-07
0.00011215
2.09796e-07
0.00011217
2.24182e-07
0.00011219
2.38445e-07
0.00011221
2.52698e-07
0.00011223
2.67024e-07
0.000112251
2.81476e-07
0.000112272
2.96081e-07
0.000112293
3.10834e-07
0.000112316
3.25709e-07
0.000112339
3.40649e-07
0.000112363
3.55578e-07
0.000112388
3.70393e-07
0.000112415
3.84971e-07
0.000112443
3.99174e-07
0.000112472
4.12845e-07
0.000112502
4.25824e-07
0.000112535
4.37944e-07
0.000112568
4.49045e-07
0.000112603
4.58976e-07
0.00011264
4.67604e-07
0.000112678
4.74822e-07
0.000112717
4.80549e-07
4.84752e-07
0.000112756
0.000115206
1.22957e-08
0.000115212
3.58064e-08
0.000115221
5.76683e-08
0.000115232
7.79221e-08
0.000115246
9.67034e-08
0.000115262
1.14203e-07
0.000115278
1.30631e-07
0.000115297
1.46199e-07
0.000115315
1.61109e-07
0.000115335
1.75544e-07
0.000115355
1.89662e-07
0.000115376
2.03596e-07
0.000115397
2.1745e-07
0.000115418
2.31303e-07
0.00011544
2.45208e-07
0.000115462
2.59192e-07
0.000115485
2.73261e-07
0.000115509
2.87394e-07
0.000115533
3.01551e-07
0.000115558
3.1567e-07
0.000115584
3.29669e-07
0.000115611
3.4345e-07
0.000115639
3.56897e-07
0.000115668
3.69885e-07
0.000115698
3.82278e-07
0.00011573
3.9394e-07
0.000115764
4.04732e-07
0.000115798
4.14527e-07
0.000115834
4.23207e-07
0.000115871
4.30672e-07
0.000115909
4.36844e-07
0.000115948
4.41668e-07
4.45133e-07
0.000115987
0.000118498
1.03423e-08
0.000118503
3.01503e-08
0.000118512
4.87127e-08
0.000118524
6.61381e-08
0.000118538
8.25643e-08
0.000118554
9.81412e-08
0.000118572
1.13022e-07
0.000118591
1.27355e-07
0.000118611
1.41282e-07
0.000118631
1.54925e-07
0.000118653
1.68391e-07
0.000118674
1.81763e-07
0.000118697
1.95108e-07
0.00011872
2.0847e-07
0.000118743
2.21872e-07
0.000118767
2.35318e-07
0.000118791
2.48795e-07
0.000118816
2.62269e-07
0.000118842
2.75689e-07
0.000118869
2.88987e-07
0.000118897
3.02082e-07
0.000118925
3.14879e-07
0.000118955
3.27273e-07
0.000118985
3.39151e-07
0.000119017
3.50397e-07
0.00011905
3.60895e-07
0.000119085
3.70534e-07
0.00011912
3.79211e-07
0.000119156
3.86835e-07
0.000119194
3.93335e-07
0.000119232
3.98653e-07
0.000119271
4.02756e-07
4.05644e-07
0.00011931
0.000121883
8.3282e-09
0.000121889
2.43136e-08
0.000121898
3.9457e-08
0.000121911
5.39319e-08
0.000121925
6.78793e-08
0.000121942
8.14104e-08
0.00012196
9.46224e-08
0.00012198
1.07604e-07
0.000122001
1.20434e-07
0.000122023
1.33179e-07
0.000122045
1.45891e-07
0.000122068
1.5861e-07
0.000122092
1.7136e-07
0.000122116
1.84154e-07
0.000122141
1.96988e-07
0.000122167
2.09844e-07
0.000122193
2.2269e-07
0.00012222
2.35482e-07
0.000122247
2.4816e-07
0.000122276
2.60653e-07
0.000122305
2.72881e-07
0.000122335
2.84754e-07
0.000122366
2.96178e-07
0.000122398
3.07052e-07
0.000122431
3.17277e-07
0.000122465
3.26758e-07
0.000122501
3.35403e-07
0.000122537
3.43133e-07
0.000122574
3.49879e-07
0.000122611
3.55587e-07
0.00012265
3.60221e-07
0.000122689
3.6376e-07
3.66213e-07
0.000122728
0.000125366
6.22175e-09
0.000125372
1.82068e-08
0.000125381
2.97677e-08
0.000125394
4.11444e-08
0.00012541
5.24796e-08
0.000125427
6.38433e-08
0.000125446
7.52743e-08
0.000125467
8.67996e-08
0.000125489
9.84365e-08
0.000125512
1.10193e-07
0.000125536
1.22068e-07
0.000125561
1.34056e-07
0.000125586
1.46144e-07
0.000125612
1.58311e-07
0.000125638
1.70528e-07
0.000125665
1.82757e-07
0.000125693
1.9495e-07
0.000125721
2.07051e-07
0.000125751
2.18996e-07
0.000125781
2.30712e-07
0.000125811
2.4212e-07
0.000125843
2.53137e-07
0.000125875
2.63677e-07
0.000125909
2.73653e-07
0.000125943
2.82981e-07
0.000125978
2.91581e-07
0.000126014
2.99381e-07
0.000126051
3.06319e-07
0.000126089
3.12343e-07
0.000126127
3.17416e-07
0.000126166
3.21514e-07
0.000126205
3.24626e-07
3.26769e-07
0.000126244
0.000128947
3.98654e-09
0.000128954
1.17258e-08
0.000128964
1.94907e-08
0.000128978
2.7593e-08
0.000128994
3.61733e-08
0.000129013
4.52509e-08
0.000129033
5.47992e-08
0.000129055
6.47791e-08
0.000129078
7.51437e-08
0.000129103
8.58404e-08
0.000129128
9.68153e-08
0.000129154
1.08017e-07
0.000129181
1.19393e-07
0.000129208
1.30893e-07
0.000129236
1.42462e-07
0.000129265
1.54043e-07
0.000129294
1.65574e-07
0.000129324
1.76992e-07
0.000129355
1.88226e-07
0.000129387
1.99202e-07
0.000129419
2.09845e-07
0.000129452
2.20078e-07
0.000129486
2.29823e-07
0.00012952
2.39005e-07
0.000129556
2.47553e-07
0.000129592
2.55401e-07
0.000129629
2.62493e-07
0.000129667
2.6878e-07
0.000129705
2.74223e-07
0.000129743
2.78799e-07
0.000129782
2.82492e-07
0.000129822
2.85301e-07
2.87245e-07
0.000129861
0.000132631
1.57796e-09
0.000132638
4.74372e-09
0.00013265
8.4395e-09
0.000132664
1.30604e-08
0.000132681
1.87352e-08
0.000132701
2.54145e-08
0.000132723
3.29932e-08
0.000132747
4.13588e-08
0.000132771
5.0395e-08
0.000132797
5.99849e-08
0.000132824
7.00185e-08
0.000132852
8.03976e-08
0.00013288
9.10336e-08
0.000132909
1.01844e-07
0.000132939
1.12752e-07
0.000132969
1.23681e-07
0.000133
1.34559e-07
0.000133032
1.45313e-07
0.000133064
1.55868e-07
0.000133097
1.66152e-07
0.000133131
1.76092e-07
0.000133165
1.85616e-07
0.000133201
1.94656e-07
0.000133236
2.03146e-07
0.000133273
2.11026e-07
0.00013331
2.18243e-07
0.000133348
2.24751e-07
0.000133386
2.30514e-07
0.000133425
2.35505e-07
0.000133464
2.39707e-07
0.000133503
2.43113e-07
0.000133543
2.45727e-07
2.4757e-07
0.000133583
0.000136421
-1.06162e-09
0.000136429
-2.90359e-09
0.000136441
-3.62267e-09
0.000136456
-2.72212e-09
0.000136475
-1.05849e-10
0.000136497
4.07605e-09
0.00013652
9.61936e-09
0.000136545
1.63281e-08
0.000136571
2.40084e-08
0.000136599
3.24721e-08
0.000136627
4.15501e-08
0.000136657
5.10968e-08
0.000136687
6.09861e-08
0.000136717
7.11063e-08
0.000136749
8.13574e-08
0.000136781
9.16481e-08
0.000136814
1.01894e-07
0.000136847
1.12015e-07
0.000136881
1.21935e-07
0.000136915
1.31582e-07
0.000136951
1.40885e-07
0.000136986
1.49779e-07
0.000137023
1.58202e-07
0.00013706
1.66099e-07
0.000137098
1.73417e-07
0.000137136
1.80115e-07
0.000137174
1.86155e-07
0.000137213
1.91511e-07
0.000137253
1.96164e-07
0.000137292
2.00103e-07
0.000137332
2.03329e-07
0.000137372
2.05846e-07
2.07679e-07
0.000137412
0.000140319
-4.01107e-09
0.000140327
-1.14398e-08
0.000140341
-1.70106e-08
0.000140358
-2.00985e-08
0.000140379
-2.06843e-08
0.000140402
-1.90749e-08
0.000140427
-1.56018e-08
0.000140454
-1.05575e-08
0.000140482
-4.22488e-09
0.000140511
3.12749e-09
0.000140542
1.12668e-08
0.000140573
1.99993e-08
0.000140605
2.91613e-08
0.000140637
3.86127e-08
0.00014067
4.82321e-08
0.000140704
5.79136e-08
0.000140738
6.75631e-08
0.000140773
7.70952e-08
0.000140809
8.64322e-08
0.000140845
9.55022e-08
0.000140881
1.04239e-07
0.000140919
1.12582e-07
0.000140956
1.20477e-07
0.000140995
1.27874e-07
0.000141033
1.34732e-07
0.000141072
1.41014e-07
0.000141112
1.46692e-07
0.000141152
1.51747e-07
0.000141192
1.56166e-07
0.000141232
1.59943e-07
0.000141272
1.6308e-07
0.000141312
1.65587e-07
1.67484e-07
0.000141352
0.000144328
-7.38465e-09
0.000144338
-2.11867e-08
0.000144353
-3.21602e-08
0.000144372
-3.95216e-08
0.000144395
-4.34238e-08
0.00014442
-4.44203e-08
0.000144448
-4.3003e-08
0.000144477
-3.95777e-08
0.000144507
-3.45359e-08
0.000144538
-2.82392e-08
0.000144571
-2.09873e-08
0.000144604
-1.30219e-08
0.000144637
-4.54296e-09
0.000144672
4.28207e-09
0.000144707
1.33127e-08
0.000144742
2.243e-08
0.000144778
3.1532e-08
0.000144815
4.05294e-08
0.000144852
4.93433e-08
0.000144889
5.79037e-08
0.000144928
6.61481e-08
0.000144966
7.40207e-08
0.000145005
8.14728e-08
0.000145045
8.84622e-08
0.000145084
9.49531e-08
0.000145124
1.00917e-07
0.000145165
1.06332e-07
0.000145205
1.11183e-07
0.000145246
1.15462e-07
0.000145287
1.19168e-07
0.000145328
1.22306e-07
0.000145368
1.24885e-07
1.26928e-07
0.000145409
0.000148452
-1.1358e-08
0.000148463
-3.26374e-08
0.000148481
-4.96991e-08
0.000148503
-6.15923e-08
0.000148528
-6.88618e-08
0.000148556
-7.24431e-08
0.000148586
-7.3006e-08
0.000148618
-7.10842e-08
0.000148651
-6.72083e-08
0.000148684
-6.18511e-08
0.000148719
-5.53838e-08
0.000148754
-4.80959e-08
0.000148789
-4.02222e-08
0.000148826
-3.19551e-08
0.000148862
-2.34514e-08
0.0001489
-1.48395e-08
0.000148937
-6.2268e-09
0.000148976
2.29558e-09
0.000149014
1.06495e-08
0.000149053
1.87675e-08
0.000149093
2.65913e-08
0.000149133
3.40702e-08
0.000149173
4.11611e-08
0.000149214
4.78276e-08
0.000149255
5.40401e-08
0.000149296
5.97753e-08
0.000149337
6.50163e-08
0.000149379
6.97521e-08
0.00014942
7.39779e-08
0.000149462
7.76941e-08
0.000149503
8.0906e-08
0.000149544
8.36226e-08
8.5863e-08
0.000149585
0.000152694
-1.62131e-08
0.000152708
-4.65911e-08
0.000152729
-7.05872e-08
0.000152754
-8.71372e-08
0.000152783
-9.76613e-08
0.000152814
-1.03686e-07
0.000152847
-1.06056e-07
0.000152882
-1.0545e-07
0.000152917
-1.02568e-07
0.000152953
-9.80019e-08
0.00015299
-9.21879e-08
0.000153028
-8.54604e-08
0.000153065
-7.80882e-08
0.000153104
-7.02865e-08
0.000153142
-6.22249e-08
0.000153182
-5.4039e-08
0.000153221
-4.58391e-08
0.000153261
-3.77163e-08
0.000153302
-2.97463e-08
0.000153342
-2.19927e-08
0.000153384
-1.45092e-08
0.000153425
-7.34087e-09
0.000153467
-5.25277e-10
0.000153509
5.90674e-09
0.000153551
1.19307e-08
0.000153593
1.7528e-08
0.000153635
2.26859e-08
0.000153678
2.73969e-08
0.00015372
3.16587e-08
0.000153762
3.5474e-08
0.000153804
3.885e-08
0.000153846
4.17986e-08
4.43374e-08
0.000153888
0.000157058
-2.24699e-08
0.000157075
-6.43507e-08
0.000157101
-9.62495e-08
0.000157131
-1.1741e-07
0.000157165
-1.30946e-07
0.0001572
-1.39084e-07
0.000157237
-1.42839e-07
0.000157275
-1.43141e-07
0.000157313
-1.40932e-07
0.000157352
-1.36918e-07
0.000157391
-1.31578e-07
0.000157431
-1.25276e-07
0.000157471
-1.18302e-07
0.000157512
-1.10882e-07
0.000157553
-1.03189e-07
0.000157594
-9.53575e-08
0.000157636
-8.74972e-08
0.000157678
-7.96955e-08
0.00015772
-7.20243e-08
0.000157763
-6.45425e-08
0.000157805
-5.72991e-08
0.000157848
-5.03341e-08
0.000157892
-4.36807e-08
0.000157935
-3.73653e-08
0.000157978
-3.14087e-08
0.000158022
-2.58262e-08
0.000158065
-2.06282e-08
0.000158108
-1.58206e-08
0.000158151
-1.14054e-08
0.000158194
-7.38125e-09
0.000158237
-3.74399e-09
0.000158279
-4.8831e-10
2.39936e-09
0.000158321
0.000161547
-3.13508e-08
0.000161572
-8.85695e-08
0.000161604
-1.2838e-07
0.00016164
-1.53366e-07
0.000161678
-1.69772e-07
0.000161719
-1.79945e-07
0.000161761
-1.84802e-07
0.000161804
-1.85665e-07
0.000161847
-1.83792e-07
0.00016189
-1.8e-07
0.000161933
-1.74812e-07
0.000161976
-1.68629e-07
0.00016202
-1.61761e-07
0.000162063
-1.54442e-07
0.000162107
-1.46844e-07
0.000162151
-1.39101e-07
0.000162195
-1.31316e-07
0.000162238
-1.23574e-07
0.000162282
-1.15939e-07
0.000162326
-1.08468e-07
0.00016237
-1.01205e-07
0.000162414
-9.41853e-08
0.000162458
-8.74391e-08
0.000162501
-8.09898e-08
0.000162545
-7.48555e-08
0.000162588
-6.90495e-08
0.000162631
-6.35806e-08
0.000162674
-5.84533e-08
0.000162716
-5.36683e-08
0.000162758
-4.92222e-08
0.000162799
-4.51078e-08
0.00016284
-4.13127e-08
-3.78266e-08
0.00016288
0.000166166
-4.41064e-08
0.000166205
-1.26807e-07
0.000166249
-1.73067e-07
0.000166295
-1.99454e-07
0.000166343
-2.17447e-07
0.000166392
-2.28626e-07
0.000166441
-2.33756e-07
0.00016649
-2.34593e-07
0.000166538
-2.32553e-07
0.000166587
-2.28431e-07
0.000166635
-2.22756e-07
0.000166682
-2.15967e-07
0.000166729
-2.08414e-07
0.000166775
-2.00353e-07
0.00016682
-1.9198e-07
0.000166864
-1.83446e-07
0.000166908
-1.74868e-07
0.00016695
-1.6634e-07
0.000166992
-1.57935e-07
0.000167034
-1.49711e-07
0.000167074
-1.41713e-07
0.000167114
-1.33977e-07
0.000167153
-1.2653e-07
0.000167191
-1.19393e-07
0.000167229
-1.12582e-07
0.000167266
-1.06105e-07
0.000167303
-9.99699e-08
0.000167338
-9.41779e-08
0.000167373
-8.87291e-08
0.000167408