/*--------------------------------*- C++ -*----------------------------------*\
| =========                 |                                                 |
| \\      /  F ield         | OpenFOAM: The Open Source CFD Toolbox           |
|  \\    /   O peration     | Version:  4.1                                   |
|   \\  /    A nd           | Web:      www.OpenFOAM.org                      |
|    \\/     M anipulation  |                                                 |
\*---------------------------------------------------------------------------*/
FoamFile
{
    version     2.0;
    format      ascii;
    class       volVectorField;
    location    "1200";
    object      U;
}
// * * * * * * * * * * * * * * * * * * * * * * * * * * * * * * * * * * * * * //

dimensions      [0 1 -1 0 0 0 0];

internalField   nonuniform List<vector> 
6820
(
(7.30076 0.0105784 0)
(7.26066 0.0145399 0)
(7.22719 0.0116116 0)
(7.19817 0.00889178 0)
(7.17426 0.00729672 0)
(7.15367 0.00634277 0)
(7.13496 0.00573847 0)
(7.11768 0.0053371 0)
(7.10162 0.00504583 0)
(7.08659 0.00481627 0)
(7.0724 0.00462911 0)
(7.05895 0.0044764 0)
(7.04611 0.00435355 0)
(7.0338 0.00425756 0)
(7.02193 0.00418677 0)
(7.01042 0.00414061 0)
(6.9992 0.00411952 0)
(6.9882 0.00412507 0)
(6.97734 0.00416017 0)
(6.96654 0.00422947 0)
(6.9557 0.00434003 0)
(6.94471 0.00450249 0)
(6.93344 0.00473307 0)
(6.92171 0.0050573 0)
(6.90927 0.00551703 0)
(6.89576 0.00618556 0)
(6.88065 0.0071989 0)
(6.86281 0.00883087 0)
(6.84106 0.0117065 0)
(6.80905 0.0171966 0)
(6.77011 0.0286584 0)
(6.6529 0.0702473 0)
(6.63984 -0.0294829 0)
(7.3396 0.012948 0)
(7.34154 0.0168193 0)
(7.32732 0.0138364 0)
(7.30715 0.0119873 0)
(7.28756 0.0109488 0)
(7.26941 0.0100964 0)
(7.25237 0.00941852 0)
(7.23638 0.00890374 0)
(7.22139 0.00849475 0)
(7.20725 0.00815874 0)
(7.19383 0.00788332 0)
(7.18104 0.00766048 0)
(7.16879 0.00748379 0)
(7.15702 0.00734913 0)
(7.14566 0.00725456 0)
(7.13464 0.00719982 0)
(7.12391 0.00718631 0)
(7.11341 0.00721722 0)
(7.10307 0.00729797 0)
(7.09284 0.00743688 0)
(7.08263 0.00764629 0)
(7.07238 0.00794447 0)
(7.06198 0.00835897 0)
(7.05133 0.00893232 0)
(7.04028 0.00973359 0)
(7.02862 0.0108782 0)
(7.01616 0.0125833 0)
(7.00244 0.0152287 0)
(6.98756 0.0197921 0)
(6.96981 0.0276071 0)
(6.95495 0.0454643 0)
(6.9376 0.0768962 0)
(6.97921 0.170822 0)
(7.33613 0.0108741 0)
(7.34462 0.0173199 0)
(7.34579 0.0178697 0)
(7.34012 0.0178781 0)
(7.33147 0.0174237 0)
(7.3215 0.0166042 0)
(7.31078 0.0157931 0)
(7.29981 0.0151133 0)
(7.2889 0.0145456 0)
(7.27816 0.0140686 0)
(7.26765 0.0136725 0)
(7.25736 0.0133491 0)
(7.2473 0.0130915 0)
(7.23745 0.0128962 0)
(7.22779 0.0127619 0)
(7.2183 0.0126897 0)
(7.20894 0.012683 0)
(7.19967 0.0127476 0)
(7.19044 0.0128927 0)
(7.18122 0.0131317 0)
(7.17194 0.0134842 0)
(7.16253 0.0139781 0)
(7.1529 0.0146548 0)
(7.14295 0.0155758 0)
(7.13256 0.0168371 0)
(7.12153 0.0185898 0)
(7.10968 0.0210985 0)
(7.09669 0.0247764 0)
(7.08256 0.0305537 0)
(7.06666 0.0394955 0)
(7.05205 0.0556661 0)
(7.03852 0.0799817 0)
(7.05085 0.126605 0)
(7.33465 0.00788233 0)
(7.34191 0.0151074 0)
(7.34712 0.0174407 0)
(7.34828 0.0186844 0)
(7.34686 0.0192154 0)
(7.3437 0.0191489 0)
(7.3391 0.018843 0)
(7.33348 0.018485 0)
(7.32722 0.0181227 0)
(7.32055 0.0177802 0)
(7.31362 0.0174769 0)
(7.30651 0.0172231 0)
(7.29929 0.0170234 0)
(7.292 0.016882 0)
(7.28466 0.0168038 0)
(7.27727 0.0167945 0)
(7.26984 0.0168619 0)
(7.26233 0.0170164 0)
(7.25475 0.0172723 0)
(7.24704 0.0176488 0)
(7.23918 0.0181726 0)
(7.23111 0.0188813 0)
(7.22276 0.019828 0)
(7.21406 0.0210901 0)
(7.2049 0.0227837 0)
(7.19517 0.0250831 0)
(7.18475 0.0282718 0)
(7.17349 0.0327649 0)
(7.16151 0.0393429 0)
(7.14885 0.0488252 0)
(7.13743 0.0634419 0)
(7.12822 0.082546 0)
(7.13112 0.111092 0)
(7.334 0.00602359 0)
(7.33938 0.0130427 0)
(7.3447 0.0160234 0)
(7.34792 0.0178455 0)
(7.34963 0.0190482 0)
(7.35018 0.019646 0)
(7.34953 0.0198907 0)
(7.34784 0.0199707 0)
(7.34532 0.0199584 0)
(7.34217 0.0198969 0)
(7.33851 0.0198227 0)
(7.33444 0.0197607 0)
(7.33003 0.0197275 0)
(7.32535 0.0197364 0)
(7.32042 0.0197994 0)
(7.31528 0.0199286 0)
(7.30995 0.0201373 0)
(7.30441 0.0204414 0)
(7.29867 0.0208605 0)
(7.29271 0.02142 0)
(7.28651 0.0221535 0)
(7.28004 0.0231061 0)
(7.27325 0.0243404 0)
(7.26609 0.0259442 0)
(7.25851 0.0280434 0)
(7.25043 0.0308188 0)
(7.24184 0.0345414 0)
(7.23273 0.0395833 0)
(7.22331 0.0465358 0)
(7.21395 0.0559701 0)
(7.20602 0.0690026 0)
(7.2008 0.0849785 0)
(7.20243 0.105326 0)
(7.33365 0.00478002 0)
(7.33758 0.0112543 0)
(7.34215 0.0145222 0)
(7.34564 0.0166279 0)
(7.34826 0.0181731 0)
(7.35025 0.0191691 0)
(7.35148 0.0197986 0)
(7.35195 0.020232 0)
(7.35176 0.0205416 0)
(7.35098 0.0207691 0)
(7.34969 0.0209529 0)
(7.34793 0.0211228 0)
(7.34578 0.0213012 0)
(7.34326 0.0215066 0)
(7.34042 0.0217562 0)
(7.33728 0.0220671 0)
(7.33385 0.0224573 0)
(7.33015 0.0229473 0)
(7.32618 0.0235615 0)
(7.32192 0.0243302 0)
(7.31737 0.0252924 0)
(7.31252 0.0264988 0)
(7.30733 0.0280173 0)
(7.30179 0.0299397 0)
(7.29587 0.0323922 0)
(7.28956 0.0355463 0)
(7.2829 0.0396399 0)
(7.27599 0.0449758 0)
(7.2691 0.0519654 0)
(7.2627 0.0609602 0)
(7.25778 0.0724334 0)
(7.25544 0.0858179 0)
(7.25754 0.100985 0)
(7.33343 0.00388677 0)
(7.33634 0.00974922 0)
(7.34013 0.0131378 0)
(7.34337 0.0153883 0)
(7.34606 0.0170938 0)
(7.34839 0.0183087 0)
(7.35029 0.0191741 0)
(7.35169 0.0198414 0)
(7.35263 0.0203821 0)
(7.35314 0.0208354 0)
(7.35324 0.0212366 0)
(7.35295 0.0216151 0)
(7.3523 0.0219944 0)
(7.35131 0.0223946 0)
(7.34999 0.0228352 0)
(7.34836 0.0233357 0)
(7.34643 0.0239171 0)
(7.34421 0.0246027 0)
(7.3417 0.0254202 0)
(7.33889 0.0264032 0)
(7.33579 0.0275937 0)
(7.33237 0.0290453 0)
(7.32864 0.030827 0)
(7.3246 0.0330289 0)
(7.32025 0.035769 0)
(7.31562 0.0391991 0)
(7.31079 0.0435133 0)
(7.30592 0.0489387 0)
(7.30129 0.0557373 0)
(7.29735 0.0640897 0)
(7.29483 0.0741171 0)
(7.29453 0.0853252 0)
(7.29731 0.0971453 0)
(7.3333 0.00323162 0)
(7.33547 0.00850296 0)
(7.33859 0.0118951 0)
(7.3415 0.0142193 0)
(7.34402 0.0160064 0)
(7.3463 0.0173496 0)
(7.34832 0.018362 0)
(7.35001 0.0191774 0)
(7.35138 0.0198698 0)
(7.35246 0.0204791 0)
(7.35324 0.0210388 0)
(7.35372 0.0215777 0)
(7.35392 0.0221191 0)
(7.35384 0.0226834 0)
(7.35349 0.0232907 0)
(7.35286 0.0239614 0)
(7.35196 0.0247178 0)
(7.3508 0.0255847 0)
(7.34936 0.0265913 0)
(7.34765 0.0277727 0)
(7.34567 0.0291715 0)
(7.34342 0.0308412 0)
(7.3409 0.0328483 0)
(7.33812 0.0352764 0)
(7.33512 0.0382296 0)
(7.33195 0.0418341 0)
(7.32871 0.0462382 0)
(7.32558 0.0515985 0)
(7.32283 0.0580636 0)
(7.32085 0.0656953 0)
(7.32014 0.074441 0)
(7.32126 0.0838808 0)
(7.32462 0.0934285 0)
(7.33321 0.00274271 0)
(7.33487 0.00747208 0)
(7.33744 0.0107867 0)
(7.34 0.0131405 0)
(7.34231 0.014972 0)
(7.34445 0.0163968 0)
(7.3464 0.0175092 0)
(7.34812 0.0184255 0)
(7.3496 0.0192209 0)
(7.35087 0.0199377 0)
(7.35192 0.0206095 0)
(7.35275 0.0212651 0)
(7.35337 0.0219283 0)
(7.35376 0.0226199 0)
(7.35394 0.0233603 0)
(7.3539 0.0241705 0)
(7.35363 0.0250731 0)
(7.35314 0.0260935 0)
(7.35242 0.0272611 0)
(7.35148 0.0286107 0)
(7.35031 0.0301841 0)
(7.34891 0.0320319 0)
(7.34732 0.0342154 0)
(7.34553 0.0368081 0)
(7.34361 0.0398973 0)
(7.34163 0.0435815 0)
(7.33968 0.0479667 0)
(7.33796 0.0531503 0)
(7.33668 0.0592006 0)
(7.33616 0.0661044 0)
(7.33677 0.0737347 0)
(7.33886 0.0817423 0)
(7.3426 0.0896373 0)
(7.33315 0.00236912 0)
(7.33444 0.00661526 0)
(7.33656 0.00980049 0)
(7.33882 0.0121492 0)
(7.34092 0.014001 0)
(7.3429 0.0154791 0)
(7.34474 0.0166646 0)
(7.34639 0.0176571 0)
(7.34787 0.0185297 0)
(7.34917 0.0193267 0)
(7.35031 0.0200821 0)
(7.35127 0.0208251 0)
(7.35206 0.0215805 0)
(7.35268 0.0223698 0)
(7.35313 0.0232139 0)
(7.3534 0.0241341 0)
(7.3535 0.0251533 0)
(7.35341 0.0262966 0)
(7.35314 0.0275931 0)
(7.3527 0.0290761 0)
(7.35208 0.0307849 0)
(7.35129 0.0327658 0)
(7.35037 0.0350727 0)
(7.34933 0.0377675 0)
(7.34824 0.0409194 0)
(7.34716 0.044601 0)
(7.34622 0.0488815 0)
(7.34556 0.0538124 0)
(7.34537 0.0594084 0)
(7.34591 0.0656142 0)
(7.34741 0.0722801 0)
(7.35011 0.0791206 0)
(7.35407 0.085756 0)
(7.33312 0.0020763 0)
(7.33413 0.00589817 0)
(7.3359 0.00892371 0)
(7.33788 0.0112381 0)
(7.33979 0.0130911 0)
(7.34161 0.0146016 0)
(7.34333 0.0158414 0)
(7.34492 0.0168946 0)
(7.34635 0.0178297 0)
(7.34764 0.0186915 0)
(7.34878 0.0195143 0)
(7.34979 0.0203276 0)
(7.35065 0.0211566 0)
(7.35138 0.0220236 0)
(7.35196 0.02295 0)
(7.3524 0.0239573 0)
(7.3527 0.0250682 0)
(7.35285 0.0263076 0)
(7.35287 0.0277031 0)
(7.35275 0.0292862 0)
(7.3525 0.0310926 0)
(7.35215 0.0331631 0)
(7.35171 0.0355432 0)
(7.35123 0.0382829 0)
(7.35075 0.041434 0)
(7.35036 0.0450458 0)
(7.35016 0.0491582 0)
(7.35028 0.0537893 0)
(7.35088 0.0589205 0)
(7.35214 0.0644765 0)
(7.35422 0.0703102 0)
(7.35726 0.0761916 0)
(7.36127 0.0818353 0)
(7.33309 0.00184101 0)
(7.33391 0.00529263 0)
(7.33539 0.00814337 0)
(7.33713 0.0103999 0)
(7.33886 0.0122376 0)
(7.34054 0.0137633 0)
(7.34216 0.0150414 0)
(7.34366 0.0161428 0)
(7.34505 0.0171297 0)
(7.34631 0.0180461 0)
(7.34745 0.0189261 0)
(7.34847 0.0197987 0)
(7.34937 0.0206894 0)
(7.35014 0.0216209 0)
(7.3508 0.0226147 0)
(7.35135 0.0236923 0)
(7.35178 0.024876 0)
(7.35209 0.0261896 0)
(7.3523 0.0276591 0)
(7.35241 0.0293133 0)
(7.35244 0.0311839 0)
(7.3524 0.0333056 0)
(7.35232 0.0357155 0)
(7.35226 0.0384516 0)
(7.35225 0.0415503 0)
(7.35237 0.0450419 0)
(7.35272 0.0489436 0)
(7.35341 0.0532509 0)
(7.35455 0.0579263 0)
(7.35628 0.0628882 0)
(7.3587 0.068004 0)
(7.3619 0.0730901 0)
(7.36587 0.0779341 0)
(7.33307 0.00164739 0)
(7.33374 0.00477575 0)
(7.33499 0.00744683 0)
(7.33652 0.00962741 0)
(7.3381 0.0114353 0)
(7.33966 0.0129614 0)
(7.34117 0.0142635 0)
(7.34261 0.0154013 0)
(7.34395 0.0164303 0)
(7.34518 0.0173928 0)
(7.34631 0.0183216 0)
(7.34734 0.0192452 0)
(7.34826 0.0201888 0)
(7.34908 0.0211749 0)
(7.3498 0.0222248 0)
(7.35042 0.0233596 0)
(7.35095 0.0246007 0)
(7.35139 0.0259706 0)
(7.35175 0.0274933 0)
(7.35204 0.0291943 0)
(7.35229 0.0311009 0)
(7.3525 0.0332416 0)
(7.35272 0.0356452 0)
(7.35298 0.0383391 0)
(7.35333 0.0413467 0)
(7.35385 0.0446829 0)
(7.35461 0.0483489 0)
(7.3557 0.0523256 0)
(7.35722 0.0565667 0)
(7.35925 0.0609927 0)
(7.36186 0.0654887 0)
(7.3651 0.0699097 0)
(7.36895 0.0740975 0)
(7.33306 0.00148451 0)
(7.33362 0.00432916 0)
(7.33469 0.00682219 0)
(7.33604 0.00891358 0)
(7.33747 0.010679 0)
(7.33892 0.0121926 0)
(7.34034 0.0135056 0)
(7.34172 0.0146685 0)
(7.34301 0.0157301 0)
(7.34422 0.0167299 0)
(7.34535 0.0176996 0)
(7.34639 0.0186664 0)
(7.34733 0.0196547 0)
(7.3482 0.0206866 0)
(7.34897 0.0217828 0)
(7.34967 0.0229635 0)
(7.35029 0.0242489 0)
(7.35084 0.0256597 0)
(7.35134 0.0272175 0)
(7.35179 0.0289443 0)
(7.35222 0.030863 0)
(7.35265 0.032996 0)
(7.35311 0.0353646 0)
(7.35364 0.037987 0)
(7.35429 0.0408757 0)
(7.35512 0.0440343 0)
(7.35619 0.0474531 0)
(7.35758 0.0511049 0)
(7.35935 0.0549406 0)
(7.36156 0.0588872 0)
(7.36427 0.0628479 0)
(7.36748 0.0667084 0)
(7.37118 0.0703509 0)
(7.33305 0.00134465 0)
(7.33353 0.00393824 0)
(7.33445 0.00625842 0)
(7.33565 0.00825145 0)
(7.33696 0.00996358 0)
(7.3383 0.0114533 0)
(7.33965 0.0127651 0)
(7.34096 0.013942 0)
(7.34222 0.0150267 0)
(7.34342 0.0160552 0)
(7.34454 0.0170575 0)
(7.34559 0.0180595 0)
(7.34657 0.0190844 0)
(7.34747 0.0201534 0)
(7.34831 0.0212863 0)
(7.34908 0.022502 0)
(7.34979 0.0238193 0)
(7.35045 0.0252569 0)
(7.35107 0.0268336 0)
(7.35167 0.028568 0)
(7.35227 0.0304785 0)
(7.3529 0.0325818 0)
(7.35357 0.0348927 0)
(7.35433 0.0374217 0)
(7.35523 0.0401729 0)
(7.35631 0.0431418 0)
(7.35762 0.046312 0)
(7.35923 0.0496522 0)
(7.36118 0.0531148 0)
(7.3635 0.0566349 0)
(7.36624 0.0601325 0)
(7.36939 0.0635178 0)
(7.37293 0.0667025 0)
(7.33304 0.00122226 0)
(7.33345 0.00359134 0)
(7.33426 0.00574552 0)
(7.33534 0.00763413 0)
(7.33654 0.00928381 0)
(7.33779 0.0107395 0)
(7.33907 0.0120392 0)
(7.34033 0.0132196 0)
(7.34156 0.0143176 0)
(7.34274 0.015366 0)
(7.34387 0.0163924 0)
(7.34494 0.0174212 0)
(7.34595 0.0184742 0)
(7.34689 0.0195713 0)
(7.34779 0.0207312 0)
(7.34863 0.0219713 0)
(7.34943 0.0233086 0)
(7.3502 0.0247597 0)
(7.35095 0.0263404 0)
(7.35169 0.0280662 0)
(7.35245 0.0299509 0)
(7.35325 0.0320065 0)
(7.35411 0.0342421 0)
(7.35508 0.0366619 0)
(7.35618 0.0392641 0)
(7.35747 0.0420386 0)
(7.35897 0.0449651 0)
(7.36074 0.0480117 0)
(7.36281 0.051134 0)
(7.3652 0.0542761 0)
(7.36794 0.0573723 0)
(7.37101 0.0603521 0)
(7.37439 0.0631491 0)
(7.33304 0.00111324 0)
(7.3334 0.00327913 0)
(7.33411 0.00527451 0)
(7.33508 0.00705488 0)
(7.33619 0.00863442 0)
(7.33737 0.010047 0)
(7.33859 0.0113245 0)
(7.33981 0.0124983 0)
(7.34101 0.0136002 0)
(7.34219 0.0146593 0)
(7.34332 0.0157011 0)
(7.34441 0.0167481 0)
(7.34545 0.0178204 0)
(7.34644 0.0189365 0)
(7.3474 0.0201136 0)
(7.34832 0.0213675 0)
(7.34921 0.0227133 0)
(7.35008 0.0241651 0)
(7.35095 0.0257363 0)
(7.35183 0.0274388 0)
(7.35273 0.0292829 0)
(7.35369 0.0312761 0)
(7.35472 0.0334229 0)
(7.35587 0.0357229 0)
(7.35715 0.0381699 0)
(7.3586 0.0407503 0)
(7.36025 0.0434425 0)
(7.36215 0.0462154 0)
(7.3643 0.0490294 0)
(7.36672 0.0518365 0)
(7.36943 0.0545837 0)
(7.37242 0.0572154 0)
(7.37565 0.0596813 0)
(7.33304 0.00101445 0)
(7.33335 0.00299408 0)
(7.334 0.0048374 0)
(7.33488 0.00650716 0)
(7.33591 0.00801006 0)
(7.33703 0.00937132 0)
(7.33819 0.0106174 0)
(7.33938 0.011775 0)
(7.34056 0.0128714 0)
(7.34173 0.0139323 0)
(7.34287 0.0149807 0)
(7.34398 0.0160369 0)
(7.34506 0.0171195 0)
(7.34611 0.0182454 0)
(7.34712 0.0194298 0)
(7.34812 0.0206871 0)
(7.3491 0.0220302 0)
(7.35007 0.023471 0)
(7.35105 0.0250202 0)
(7.35206 0.0266867 0)
(7.3531 0.0284775 0)
(7.3542 0.0303966 0)
(7.35539 0.0324448 0)
(7.35668 0.0346181 0)
(7.35811 0.0369077 0)
(7.3597 0.0392981 0)
(7.36147 0.0417677 0)
(7.36345 0.0442876 0)
(7.36566 0.0468228 0)
(7.3681 0.0493332 0)
(7.37077 0.0517757 0)
(7.37367 0.0541067 0)
(7.37677 0.056288 0)
(7.33303 0.000923465 0)
(7.33332 0.00273 0)
(7.3339 0.00442707 0)
(7.33472 0.00598465 0)
(7.33569 0.00740535 0)
(7.33675 0.00870789 0)
(7.33787 0.00991402 0)
(7.33903 0.0110463 0)
(7.3402 0.0121281 0)
(7.34137 0.0131818 0)
(7.34252 0.0142278 0)
(7.34366 0.0152845 0)
(7.34477 0.0163684 0)
(7.34587 0.0174946 0)
(7.34695 0.0186768 0)
(7.34802 0.0199273 0)
(7.34908 0.0212571 0)
(7.35015 0.0226759 0)
(7.35124 0.024192 0)
(7.35236 0.0258115 0)
(7.35353 0.0275386 0)
(7.35476 0.0293745 0)
(7.35608 0.0313171 0)
(7.3575 0.0333602 0)
(7.35905 0.0354931 0)
(7.36075 0.0377 0)
(7.36262 0.0399599 0)
(7.36467 0.042247 0)
(7.36691 0.0445307 0)
(7.36935 0.0467777 0)
(7.37198 0.0489532 0)
(7.37479 0.0510229 0)
(7.37777 0.0529576 0)
(7.33303 0.000838314 0)
(7.33329 0.00248171 0)
(7.33383 0.00403716 0)
(7.3346 0.00548132 0)
(7.33551 0.00681488 0)
(7.33653 0.00805187 0)
(7.33762 0.00921004 0)
(7.33876 0.0103084 0)
(7.33992 0.0113667 0)
(7.34109 0.0124044 0)
(7.34226 0.0134393 0)
(7.34342 0.0144875 0)
(7.34458 0.0155637 0)
(7.34572 0.0166812 0)
(7.34687 0.0178518 0)
(7.34801 0.0190858 0)
(7.34915 0.0203925 0)
(7.35032 0.0217793 0)
(7.3515 0.0232523 0)
(7.35273 0.0248155 0)
(7.35401 0.0264705 0)
(7.35536 0.0282164 0)
(7.35679 0.030049 0)
(7.35833 0.0319607 0)
(7.35998 0.03394 0)
(7.36177 0.0359713 0)
(7.36371 0.0380352 0)
(7.3658 0.0401086 0)
(7.36806 0.0421654 0)
(7.37049 0.0441782 0)
(7.37307 0.0461187 0)
(7.3758 0.0479599 0)
(7.37866 0.0496796 0)
(7.33303 0.000757363 0)
(7.33327 0.00224479 0)
(7.33378 0.0036619 0)
(7.3345 0.00499132 0)
(7.33538 0.00623321 0)
(7.33636 0.00739826 0)
(7.33743 0.00850093 0)
(7.33855 0.00955712 0)
(7.3397 0.0105835 0)
(7.34088 0.0115966 0)
(7.34207 0.0126117 0)
(7.34327 0.0136428 0)
(7.34446 0.0147026 0)
(7.34566 0.0158025 0)
(7.34686 0.0169524 0)
(7.34808 0.0181609 0)
(7.3493 0.0194353 0)
(7.35055 0.0207812 0)
(7.35183 0.0222027 0)
(7.35315 0.0237017 0)
(7.35453 0.0252781 0)
(7.35598 0.0269292 0)
(7.35752 0.0286496 0)
(7.35914 0.0304307 0)
(7.36088 0.0322609 0)
(7.36274 0.0341255 0)
(7.36473 0.0360067 0)
(7.36686 0.0378843 0)
(7.36912 0.0397364 0)
(7.37153 0.0415402 0)
(7.37406 0.0432729 0)
(7.37672 0.0449134 0)
(7.37947 0.0464444 0)
(7.33303 0.000679205 0)
(7.33326 0.00201539 0)
(7.33374 0.00329603 0)
(7.33443 0.00450903 0)
(7.33528 0.00565484 0)
(7.33624 0.00674188 0)
(7.33728 0.0077819 0)
(7.3384 0.0087881 0)
(7.33956 0.00977437 0)
(7.34075 0.0107545 0)
(7.34196 0.0117414 0)
(7.34319 0.0127471 0)
(7.34443 0.0137821 0)
(7.34567 0.0148558 0)
(7.34694 0.0159766 0)
(7.34821 0.0171512 0)
(7.34951 0.0183851 0)
(7.35084 0.0196823 0)
(7.35221 0.0210449 0)
(7.35362 0.0224735 0)
(7.35509 0.0239664 0)
(7.35663 0.0255197 0)
(7.35825 0.0271271 0)
(7.35995 0.0287799 0)
(7.36176 0.0304667 0)
(7.36367 0.0321737 0)
(7.3657 0.0338853 0)
(7.36785 0.0355838 0)
(7.37011 0.0372508 0)
(7.37248 0.0388676 0)
(7.37497 0.040416 0)
(7.37755 0.041879 0)
(7.38022 0.0432435 0)
(7.33303 0.000602594 0)
(7.33325 0.00179001 0)
(7.33371 0.00293459 0)
(7.33438 0.00402893 0)
(7.33521 0.00507421 0)
(7.33615 0.00607734 0)
(7.33719 0.00704787 0)
(7.3383 0.00799662 0)
(7.33947 0.00893497 0)
(7.34068 0.00987421 0)
(7.34192 0.010825 0)
(7.34318 0.0117971 0)
(7.34446 0.0127992 0)
(7.34576 0.013839 0)
(7.34708 0.0149228 0)
(7.34842 0.0160558 0)
(7.34979 0.0172419 0)
(7.35119 0.0184834 0)
(7.35263 0.0197812 0)
(7.35413 0.0211345 0)
(7.35567 0.0225404 0)
(7.35729 0.0239943 0)
(7.35898 0.0254895 0)
(7.36075 0.0270173 0)
(7.36261 0.0285668 0)
(7.36457 0.0301256 0)
(7.36662 0.0316799 0)
(7.36877 0.0332145 0)
(7.37103 0.034714 0)
(7.37337 0.0361631 0)
(7.37581 0.0375471 0)
(7.37832 0.0388525 0)
(7.3809 0.0400692 0)
(7.33302 0.000526373 0)
(7.33324 0.00156538 0)
(7.3337 0.00257283 0)
(7.33435 0.00354551 0)
(7.33517 0.00448561 0)
(7.3361 0.00539901 0)
(7.33714 0.00629345 0)
(7.33826 0.00717763 0)
(7.33944 0.00806065 0)
(7.34067 0.00895147 0)
(7.34194 0.00985854 0)
(7.34324 0.0107896 0)
(7.34456 0.0117513 0)
(7.34591 0.0127496 0)
(7.34728 0.0137893 0)
(7.34869 0.0148738 0)
(7.35012 0.0160057 0)
(7.35159 0.0171859 0)
(7.3531 0.018414 0)
(7.35467 0.0196883 0)
(7.35628 0.021005 0)
(7.35796 0.0223591 0)
(7.35971 0.0237438 0)
(7.36154 0.0251505 0)
(7.36344 0.0265694 0)
(7.36543 0.0279892 0)
(7.3675 0.0293977 0)
(7.36965 0.0307823 0)
(7.37189 0.0321299 0)
(7.37421 0.033428 0)
(7.37659 0.0346648 0)
(7.37904 0.0358296 0)
(7.38154 0.0369147 0)
(7.33302 0.00044943 0)
(7.33324 0.00133833 0)
(7.33369 0.00220605 0)
(7.33434 0.00305318 0)
(7.33515 0.00388309 0)
(7.33609 0.00470092 0)
(7.33714 0.00551287 0)
(7.33827 0.00632573 0)
(7.33947 0.00714643 0)
(7.34073 0.00798175 0)
(7.34202 0.00883802 0)
(7.34336 0.00972093 0)
(7.34473 0.0106354 0)
(7.34612 0.0115856 0)
(7.34755 0.0125747 0)
(7.34901 0.0136047 0)
(7.35051 0.0146769 0)
(7.35204 0.015791 0)
(7.35362 0.0169457 0)
(7.35524 0.0181383 0)
(7.35692 0.0193648 0)
(7.35865 0.0206196 0)
(7.36045 0.0218962 0)
(7.36232 0.0231864 0)
(7.36426 0.0244813 0)
(7.36626 0.0257709 0)
(7.36835 0.0270446 0)
(7.3705 0.0282916 0)
(7.37271 0.0295011 0)
(7.375 0.030663 0)
(7.37733 0.0317675 0)
(7.37972 0.0328064 0)
(7.38215 0.0337736 0)
(7.33302 0.00037064 0)
(7.33324 0.00110562 0)
(7.33369 0.00182937 0)
(7.33435 0.00254608 0)
(7.33517 0.00326031 0)
(7.33612 0.00397667 0)
(7.33718 0.00469992 0)
(7.33833 0.00543504 0)
(7.33955 0.00618692 0)
(7.34084 0.00696022 0)
(7.34217 0.0077592 0)
(7.34354 0.00858762 0)
(7.34496 0.00944864 0)
(7.3464 0.0103447 0)
(7.34788 0.0112775 0)
(7.3494 0.012248 0)
(7.35095 0.0132558 0)
(7.35254 0.0143001 0)
(7.35417 0.0153785 0)
(7.35585 0.0164879 0)
(7.35758 0.0176238 0)
(7.35936 0.0187807 0)
(7.3612 0.0199522 0)
(7.3631 0.0211308 0)
(7.36507 0.0223083 0)
(7.36709 0.023476 0)
(7.36917 0.0246248 0)
(7.37131 0.0257456 0)
(7.37351 0.0268293 0)
(7.37576 0.0278677 0)
(7.37805 0.0288531 0)
(7.38038 0.0297787 0)
(7.38274 0.0306398 0)
(7.33302 0.000288801 0)
(7.33325 0.000863824 0)
(7.3337 0.00143757 0)
(7.33437 0.00201784 0)
(7.3352 0.00261039 0)
(7.33617 0.00321925 0)
(7.33726 0.0038478 0)
(7.33844 0.00449917 0)
(7.33969 0.00517626 0)
(7.34101 0.00588163 0)
(7.34238 0.00661753 0)
(7.3438 0.00738579 0)
(7.34525 0.00818786 0)
(7.34675 0.00902464 0)
(7.34828 0.00989644 0)
(7.34984 0.0108029 0)
(7.35145 0.0117428 0)
(7.35309 0.0127143 0)
(7.35477 0.0137146 0)
(7.3565 0.0147399 0)
(7.35827 0.0157857 0)
(7.3601 0.0168465 0)
(7.36197 0.0179163 0)
(7.3639 0.0189882 0)
(7.36588 0.0200549 0)
(7.36791 0.0211087 0)
(7.36999 0.0221418 0)
(7.37212 0.0231465 0)
(7.3743 0.0241154 0)
(7.37651 0.0250417 0)
(7.37876 0.0259192 0)
(7.38104 0.0267425 0)
(7.38334 0.027508 0)
(7.33303 0.000202564 0)
(7.33325 0.000609044 0)
(7.33373 0.00102478 0)
(7.33441 0.00146133 0)
(7.33527 0.0019256 0)
(7.33627 0.00242087 0)
(7.33739 0.00294893 0)
(7.3386 0.00351103 0)
(7.33989 0.00410799 0)
(7.34125 0.00474026 0)
(7.34266 0.00540803 0)
(7.34412 0.00611129 0)
(7.34562 0.00684979 0)
(7.34716 0.00762295 0)
(7.34874 0.0084298 0)
(7.35035 0.00926885 0)
(7.35201 0.0101381 0)
(7.35369 0.0110348 0)
(7.35542 0.0119557 0)
(7.35719 0.0128969 0)
(7.35901 0.0138537 0)
(7.36086 0.0148208 0)
(7.36277 0.0157925 0)
(7.36471 0.0167626 0)
(7.36671 0.0177246 0)
(7.36874 0.0186718 0)
(7.37082 0.0195975 0)
(7.37294 0.0204953 0)
(7.37509 0.0213591 0)
(7.37727 0.0221831 0)
(7.37948 0.0229626 0)
(7.38171 0.023693 0)
(7.38395 0.0243719 0)
(7.33303 0.000110319 0)
(7.33327 0.000336672 0)
(7.33376 0.000584067 0)
(7.33448 0.000868216 0)
(7.33537 0.00119702 0)
(7.33641 0.00157259 0)
(7.33756 0.00199475 0)
(7.33882 0.00246267 0)
(7.34015 0.00297496 0)
(7.34156 0.00352982 0)
(7.34301 0.00412533 0)
(7.34452 0.00475961 0)
(7.34607 0.00543078 0)
(7.34765 0.00613685 0)
(7.34928 0.00687563 0)
(7.35094 0.00764467 0)
(7.35264 0.00844115 0)
(7.35437 0.00926183 0)
(7.35614 0.010103 0)
(7.35795 0.0109606 0)
(7.35979 0.01183 0)
(7.36168 0.0127061 0)
(7.3636 0.0135836 0)
(7.36557 0.0144569 0)
(7.36757 0.0153203 0)
(7.36961 0.0161679 0)
(7.37168 0.016994 0)
(7.37378 0.0177933 0)
(7.37591 0.0185606 0)
(7.37806 0.0192914 0)
(7.38023 0.0199817 0)
(7.38241 0.0206279 0)
(7.38461 0.0212281 0)
(7.33303 1.0032e-05 0)
(7.33328 4.09208e-05 0)
(7.33381 0.000106839 0)
(7.33457 0.000228399 0)
(7.33551 0.000414102 0)
(7.3366 0.000664004 0)
(7.3378 0.000975404 0)
(7.33911 0.00134502 0)
(7.3405 0.00176904 0)
(7.34195 0.00224325 0)
(7.34345 0.0027635 0)
(7.34501 0.00332602 0)
(7.3466 0.00392729 0)
(7.34824 0.00456394 0)
(7.34991 0.00523264 0)
(7.35161 0.00593003 0)
(7.35335 0.00665262 0)
(7.35512 0.00739669 0)
(7.35693 0.00815829 0)
(7.35877 0.00893317 0)
(7.36065 0.00971685 0)
(7.36256 0.0105046 0)
(7.3645 0.0112914 0)
(7.36647 0.0120724 0)
(7.36848 0.0128423 0)
(7.37052 0.0135963 0)
(7.37258 0.0143294 0)
(7.37467 0.0150372 0)
(7.37677 0.0157154 0)
(7.3789 0.0163603 0)
(7.38103 0.0169686 0)
(7.38317 0.0175376 0)
(7.38532 0.0180658 0)
(7.33303 -0.00010101 0)
(7.33331 -0.000285877 0)
(7.33388 -0.000418007 0)
(7.33469 -0.000470805 0)
(7.3357 -0.000436089 0)
(7.33685 -0.000317296 0)
(7.33812 -0.000120574 0)
(7.33949 0.00014783 0)
(7.34093 0.00048116 0)
(7.34244 0.000872427 0)
(7.344 0.00131518 0)
(7.3456 0.00180375 0)
(7.34725 0.00233311 0)
(7.34893 0.0028986 0)
(7.35064 0.00349589 0)
(7.35239 0.00412082 0)
(7.35417 0.00476932 0)
(7.35598 0.00543728 0)
(7.35782 0.00612054 0)
(7.35969 0.00681483 0)
(7.36159 0.00751577 0)
(7.36352 0.00821889 0)
(7.36548 0.00891967 0)
(7.36746 0.00961359 0)
(7.36947 0.0102962 0)
(7.3715 0.0109632 0)
(7.37356 0.0116104 0)
(7.37563 0.0122341 0)
(7.37771 0.0128307 0)
(7.37981 0.0133972 0)
(7.38191 0.0139309 0)
(7.38402 0.0144297 0)
(7.38612 0.0148924 0)
(7.33303 -0.000226648 0)
(7.33334 -0.000654448 0)
(7.33397 -0.00100546 0)
(7.33487 -0.0012457 0)
(7.33596 -0.00136966 0)
(7.33718 -0.00138673 0)
(7.33853 -0.00130735 0)
(7.33997 -0.00114102 0)
(7.34148 -0.000898043 0)
(7.34305 -0.000588865 0)
(7.34467 -0.000222759 0)
(7.34633 0.000192466 0)
(7.34802 0.00065009 0)
(7.34975 0.00114419 0)
(7.35151 0.00166947 0)
(7.3533 0.00222113 0)
(7.35512 0.00279467 0)
(7.35696 0.00338579 0)
(7.35883 0.00399027 0)
(7.36073 0.00460395 0)
(7.36265 0.00522267 0)
(7.3646 0.00584232 0)
(7.36657 0.00645882 0)
(7.36856 0.00706816 0)
(7.37057 0.00766647 0)
(7.3726 0.00825004 0)
(7.37465 0.00881541 0)
(7.37671 0.00935937 0)
(7.37877 0.00987907 0)
(7.38084 0.010372 0)
(7.38291 0.010836 0)
(7.38499 0.0112694 0)
(7.38705 0.0116714 0)
(7.33304 -0.000372612 0)
(7.33339 -0.00108068 0)
(7.3341 -0.0016769 0)
(7.33511 -0.00211789 0)
(7.3363 -0.00240598 0)
(7.33763 -0.00256173 0)
(7.33907 -0.00260191 0)
(7.34059 -0.00253981 0)
(7.34218 -0.0023893 0)
(7.34382 -0.00216397 0)
(7.3455 -0.00187546 0)
(7.34722 -0.00153345 0)
(7.34897 -0.00114625 0)
(7.35075 -0.000721115 0)
(7.35255 -0.000264381 0)
(7.35438 0.000218362 0)
(7.35623 0.000722067 0)
(7.35811 0.00124208 0)
(7.36001 0.00177402 0)
(7.36193 0.00231374 0)
(7.36387 0.00285724 0)
(7.36584 0.00340069 0)
(7.36782 0.00394039 0)
(7.36982 0.00447278 0)
(7.37183 0.00499451 0)
(7.37386 0.00550241 0)
(7.3759 0.00599358 0)
(7.37794 0.00646537 0)
(7.37999 0.00691542 0)
(7.38204 0.00734168 0)
(7.38409 0.00774245 0)
(7.38613 0.00811626 0)
(7.38817 0.00846242 0)
(7.33305 -0.000548015 0)
(7.33346 -0.00158862 0)
(7.3343 -0.00246355 0)
(7.33545 -0.00311985 0)
(7.33678 -0.00357457 0)
(7.33823 -0.00386268 0)
(7.33978 -0.00400945 0)
(7.3414 -0.00403634 0)
(7.34308 -0.00396521 0)
(7.3448 -0.00381501 0)
(7.34656 -0.00360016 0)
(7.34834 -0.00333181 0)
(7.35014 -0.00301916 0)
(7.35197 -0.00266988 0)
(7.35383 -0.0022904 0)
(7.3557 -0.00188624 0)
(7.35759 -0.00146228 0)
(7.3595 -0.00102293 0)
(7.36143 -0.000572312 0)
(7.36338 -0.000114272 0)
(7.36535 0.000347537 0)
(7.36733 0.000809637 0)
(7.36933 0.00126872 0)
(7.37133 0.00172166 0)
(7.37335 0.00216553 0)
(7.37538 0.00259758 0)
(7.37741 0.00301534 0)
(7.37944 0.00341656 0)
(7.38148 0.00379929 0)
(7.38351 0.00416186 0)
(7.38553 0.0045029 0)
(7.38755 0.00482137 0)
(7.38955 0.0051169 0)
(7.33306 -0.000769777 0)
(7.33358 -0.00221829 0)
(7.3346 -0.003402 0)
(7.33596 -0.00428274 0)
(7.33747 -0.00492307 0)
(7.33908 -0.00537125 0)
(7.34077 -0.00564748 0)
(7.34252 -0.00577457 0)
(7.3443 -0.00578193 0)
(7.3461 -0.00569539 0)
(7.34793 -0.00553424 0)
(7.34978 -0.00531364 0)
(7.35165 -0.00504613 0)
(7.35353 -0.0047419 0)
(7.35544 -0.00440906 0)
(7.35736 -0.00405413 0)
(7.3593 -0.00368251 0)
(7.36125 -0.00329881 0)
(7.36322 -0.00290698 0)
(7.3652 -0.00251056 0)
(7.36719 -0.00211272 0)
(7.36919 -0.00171637 0)
(7.37121 -0.00132419 0)
(7.37322 -0.000938674 0)
(7.37525 -0.000562122 0)
(7.37727 -0.000196636 0)
(7.37929 0.000155876 0)
(7.38132 0.000493709 0)
(7.38333 0.000815359 0)
(7.38534 0.00111952 0)
(7.38733 0.00140508 0)
(7.38931 0.00167103 0)
(7.39128 0.00191682 0)
(7.33308 -0.00106648 0)
(7.33379 -0.00306782 0)
(7.3351 -0.0045843 0)
(7.33672 -0.00560755 0)
(7.33845 -0.00632124 0)
(7.34025 -0.00683551 0)
(7.34214 -0.00718531 0)
(7.34406 -0.00739835 0)
(7.34601 -0.00750516 0)
(7.34796 -0.0075282 0)
(7.34992 -0.00748195 0)
(7.35188 -0.00737763 0)
(7.35385 -0.00722499 0)
(7.35583 -0.00703233 0)
(7.35781 -0.00680656 0)
(7.35979 -0.00655365 0)
(7.36178 -0.00627884 0)
(7.36377 -0.00598684 0)
(7.36576 -0.00568183 0)
(7.36776 -0.0053676 0)
(7.36975 -0.00504761 0)
(7.37174 -0.00472497 0)
(7.37373 -0.00440255 0)
(7.37572 -0.00408295 0)
(7.37769 -0.00376851 0)
(7.37966 -0.00346135 0)
(7.38162 -0.00316333 0)
(7.38356 -0.00287608 0)
(7.38549 -0.00260101 0)
(7.3874 -0.00233926 0)
(7.38929 -0.00209172 0)
(7.39115 -0.00185898 0)
(7.39299 -0.00164125 0)
(7.3331 -0.00144791 0)
(7.33415 -0.00420783 0)
(7.33607 -0.00631321 0)
(7.33822 -0.00776518 0)
(7.34032 -0.00874916 0)
(7.34242 -0.0093744 0)
(7.34457 -0.00971879 0)
(7.34674 -0.00986486 0)
(7.3489 -0.00987939 0)
(7.35104 -0.00980472 0)
(7.35317 -0.00966781 0)
(7.35528 -0.00948773 0)
(7.35735 -0.00927791 0)
(7.35939 -0.00904719 0)
(7.3614 -0.00880142 0)
(7.36338 -0.00854466 0)
(7.36532 -0.00827988 0)
(7.36722 -0.00800942 0)
(7.36909 -0.0077352 0)
(7.37093 -0.00745892 0)
(7.37273 -0.00718216 0)
(7.37451 -0.00690645 0)
(7.37625 -0.00663325 0)
(7.37796 -0.00636395 0)
(7.37964 -0.00609992 0)
(7.38129 -0.00584243 0)
(7.38291 -0.00559266 0)
(7.3845 -0.00535172 0)
(7.38606 -0.00512061 0)
(7.38759 -0.00490023 0)
(7.3891 -0.00469146 0)
(7.39057 -0.00449518 0)
(7.39202 -0.00431208 0)
(7.33311 -0.00228413 0)
(7.33485 -0.00521417 0)
(7.33794 -0.00688069 0)
(7.34136 -0.00825324 0)
(7.34468 -0.00954401 0)
(7.34787 -0.0106131 0)
(7.35088 -0.0114187 0)
(7.35363 -0.0120081 0)
(7.3561 -0.0124218 0)
(7.35832 -0.0126812 0)
(7.36029 -0.0128068 0)
(7.36205 -0.0128216 0)
(7.3636 -0.0127471 0)
(7.36497 -0.0126015 0)
(7.36619 -0.0123999 0)
(7.36727 -0.012155 0)
(7.36823 -0.0118775 0)
(7.36909 -0.0115763 0)
(7.36986 -0.0112585 0)
(7.37056 -0.0109302 0)
(7.3712 -0.010596 0)
(7.37178 -0.01026 0)
(7.37232 -0.00992542 0)
(7.37283 -0.00959494 0)
(7.3733 -0.00927071 0)
(7.37375 -0.00895448 0)
(7.37417 -0.00864768 0)
(7.37458 -0.00835139 0)
(7.37497 -0.00806648 0)
(7.37534 -0.00779353 0)
(7.37571 -0.00753292 0)
(7.37606 -0.00728488 0)
(7.37639 -0.00704927 0)
(7.3363 -0.00651744 0)
(7.34557 -0.0134873 0)
(7.35343 -0.0156875 0)
(7.35888 -0.0161917 0)
(7.36267 -0.016156 0)
(7.36523 -0.0157421 0)
(7.36659 -0.0150796 0)
(7.36685 -0.0143347 0)
(7.36623 -0.0136004 0)
(7.36494 -0.0129049 0)
(7.36313 -0.012255 0)
(7.36094 -0.011653 0)
(7.35847 -0.0110982 0)
(7.35582 -0.0105865 0)
(7.35304 -0.0101129 0)
(7.35021 -0.0096725 0)
(7.34736 -0.00926129 0)
(7.34452 -0.00887569 0)
(7.34173 -0.00851276 0)
(7.33899 -0.00817013 0)
(7.33634 -0.00784595 0)
(7.33377 -0.00753875 0)
(7.33129 -0.00724741 0)
(7.32891 -0.00697105 0)
(7.32663 -0.00670901 0)
(7.32445 -0.00646073 0)
(7.32236 -0.0062258 0)
(7.32038 -0.00600381 0)
(7.31848 -0.0057944 0)
(7.31669 -0.00559715 0)
(7.31498 -0.00541153 0)
(7.31335 -0.00523689 0)
(7.31182 -0.00507177 0)
(7.32508 -0.00547 0)
(7.31334 -0.0121256 0)
(7.29927 -0.0150436 0)
(7.28288 -0.0161332 0)
(7.26681 -0.0163129 0)
(7.25211 -0.015877 0)
(7.23866 -0.0150373 0)
(7.22632 -0.0139936 0)
(7.21505 -0.0128815 0)
(7.20483 -0.0117754 0)
(7.19555 -0.0107163 0)
(7.18712 -0.00972729 0)
(7.17944 -0.00881967 0)
(7.17243 -0.00799617 0)