/*--------------------------------*- C++ -*----------------------------------*\
| =========                 |                                                 |
| \\      /  F ield         | OpenFOAM: The Open Source CFD Toolbox           |
|  \\    /   O peration     | Version:  4.1                                   |
|   \\  /    A nd           | Web:      www.OpenFOAM.org                      |
|    \\/     M anipulation  |                                                 |
\*---------------------------------------------------------------------------*/
FoamFile
{
    version     2.0;
    format      ascii;
    class       volScalarField;
    location    "300";
    object      p;
}
// * * * * * * * * * * * * * * * * * * * * * * * * * * * * * * * * * * * * * //

dimensions      [0 2 -2 0 0 0 0];

internalField   nonuniform List<scalar> 
26785
(
-39.7002
-43.8325
-43.2364
-40.8759
-37.8953
-34.8304
-31.9826
-29.408
-27.1216
-25.1429
-23.4507
-21.9955
-20.7352
-19.6411
-18.6896
-17.8581
-17.1247
-16.4697
-15.8749
-15.3238
-14.8022
-14.2981
-13.8026
-13.3099
-12.817
-12.3231
-11.8293
-11.3373
-10.849
-10.3667
-9.89236
-9.42772
-8.97426
-8.53314
-8.10515
-7.69069
-7.28995
-6.90321
-6.53083
-6.17309
-5.83035
-5.50335
-5.19288
-4.89935
-4.62292
-4.36368
-4.12178
-3.8975
-3.69117
-3.50299
-3.33281
-3.18005
-3.04358
-2.92175
-2.81245
-2.71329
-2.6217
-2.53517
-2.45139
-2.36843
-2.28479
-2.19951
-2.11209
-2.02248
-1.931
-1.83818
-1.74473
-1.65142
-1.55897
-1.4681
-1.37937
-1.29326
-1.21009
-1.1301
-1.05336
-0.979901
-0.909655
-0.842514
-0.778343
-0.716999
-0.658354
-0.602287
-0.548689
-0.497512
-0.448733
-0.402331
-0.358305
-0.316649
-0.277347
-0.240385
-0.205739
-0.173414
-0.143355
-0.115682
-0.090076
-0.067388
-0.045384
-0.0300088
-0.00632541
-0.0158831
-39.7975
-43.8799
-43.2555
-40.8891
-37.9055
-34.8372
-31.9867
-29.4107
-27.1238
-25.145
-23.4528
-21.9978
-20.7377
-19.6438
-18.6927
-17.8616
-17.1287
-16.4741
-15.8797
-15.329
-14.8075
-14.3035
-13.8079
-13.315
-12.8218
-12.3275
-11.8333
-11.3407
-10.852
-10.3692
-9.89447
-9.42947
-8.97571
-8.53434
-8.10614
-7.69151
-7.29065
-6.90379
-6.53134
-6.17353
-5.83072
-5.50368
-5.19322
-4.89981
-4.62359
-4.36467
-4.12318
-3.8994
-3.69364
-3.50605
-3.33645
-3.18422
-3.04817
-2.92662
-2.81746
-2.71828
-2.62653
-2.53972
-2.45557
-2.37218
-2.28807
-2.20232
-2.11445
-2.02443
-1.93257
-1.83942
-1.7457
-1.65215
-1.55952
-1.46849
-1.37965
-1.29345
-1.21024
-1.13021
-1.05346
-0.980002
-0.909761
-0.842625
-0.778455
-0.717106
-0.658447
-0.60236
-0.548734
-0.497521
-0.44871
-0.402283
-0.358236
-0.316562
-0.277247
-0.240274
-0.205618
-0.173283
-0.143216
-0.115537
-0.0899204
-0.0672317
-0.0451749
-0.029871
-0.00570898
-0.0165438
-39.9323
-43.9526
-43.2888
-40.9173
-37.9296
-34.8543
-31.9979
-29.4187
-27.1304
-25.1513
-23.459
-22.0041
-20.7444
-19.6511
-18.7007
-17.8703
-17.1382
-16.4843
-15.8905
-15.3402
-14.8189
-14.3148
-13.8189
-13.3254
-12.8313
-12.3361
-11.8409
-11.3473
-10.8576
-10.374
-9.89847
-9.43282
-8.97851
-8.53671
-8.10817
-7.69328
-7.29219
-6.90515
-6.53252
-6.17458
-5.83175
-5.50485
-5.19472
-4.90179
-4.62621
-4.36805
-4.12743
-3.9046
-3.69983
-3.51324
-3.3446
-3.19319
-3.05777
-2.93662
-2.82757
-2.72822
-2.63603
-2.54855
-2.46356
-2.3792
-2.2941
-2.20735
-2.11855
-2.02769
-1.93511
-1.84137
-1.74716
-1.65324
-1.56034
-1.46911
-1.38014
-1.29386
-1.2106
-1.13055
-1.05379
-0.980325
-0.910074
-0.842919
-0.778719
-0.717328
-0.658619
-0.602477
-0.548796
-0.497527
-0.448665
-0.402195
-0.358112
-0.31641
-0.277073
-0.240081
-0.205408
-0.173059
-0.142977
-0.115285
-0.0896489
-0.0669606
-0.0448209
-0.029644
-0.00474554
-0.0175886
-40.1059
-44.0527
-43.3363
-40.9585
-37.9652
-34.8794
-32.0144
-29.4305
-27.1406
-25.1612
-23.469
-22.0144
-20.7552
-19.6627
-18.7132
-17.8838
-17.1526
-16.4997
-15.9066
-15.3568
-14.8358
-14.3316
-13.8351
-13.3407
-12.8454
-12.3489
-11.8521
-11.3571
-10.866
-10.3811
-9.90448
-9.43786
-8.98276
-8.54031
-8.11126
-7.69598
-7.29459
-6.90727
-6.53439
-6.17625
-5.8334
-5.50673
-5.19709
-4.90493
-4.63039
-4.37349
-4.13429
-3.91297
-3.70974
-3.52462
-3.35729
-3.20694
-3.07227
-2.95147
-2.84238
-2.74257
-2.64957
-2.56098
-2.47466
-2.38886
-2.30229
-2.21413
-2.12403
-2.03203
-1.9385
-1.84398
-1.74917
-1.65479
-1.56155
-1.4701
-1.38097
-1.29459
-1.21127
-1.13118
-1.05439
-0.980899
-0.91061
-0.843407
-0.779143
-0.717676
-0.65888
-0.602648
-0.548882
-0.497531
-0.448595
-0.402067
-0.357937
-0.316198
-0.276832
-0.239816
-0.205124
-0.172756
-0.142652
-0.114942
-0.0892806
-0.0665962
-0.0443597
-0.0293349
-0.00364037
-0.0186814
-40.3199
-44.1693
-43.3908
-41.0105
-38.0122
-34.9132
-32.0371
-29.4473
-27.1554
-25.1757
-23.4837
-22.0296
-20.7711
-19.6795
-18.7311
-17.9028
-17.1728
-16.5208
-15.9285
-15.3791
-14.8581
-14.3535
-13.8562
-13.3604
-12.8635
-12.3651
-11.8664
-11.3694
-10.8766
-10.3901
-9.91209
-9.44433
-8.9883
-8.54511
-8.11548
-7.69974
-7.29798
-6.91033
-6.53715
-6.17885
-5.83612
-5.50994
-5.20116
-4.91021
-4.63719
-4.38205
-4.14476
-3.92541
-3.72408
-3.54069
-3.37482
-3.22557
-3.09152
-2.97086
-2.86137
-2.76069
-2.66638
-2.57616
-2.48801
-2.4003
-2.31184
-2.22193
-2.13027
-2.03695
-1.94233
-1.84697
-1.75153
-1.65669
-1.56314
-1.47147
-1.38221
-1.29574
-1.21235
-1.13221
-1.05537
-0.981806
-0.911434
-0.84413
-0.779752
-0.71816
-0.659236
-0.602879
-0.549004
-0.497555
-0.44853
-0.40193
-0.357744
-0.315962
-0.276561
-0.239518
-0.204801
-0.17241
-0.142285
-0.114564
-0.0888861
-0.0662116
-0.0438801
-0.0290139
-0.00259818
-0.0196706
-40.6099
-44.3023
-43.4468
-41.0687
-38.0682
-34.9547
-32.0656
-29.469
-27.1749
-25.195
-23.5034
-22.0499
-20.7923
-19.7019
-18.7547
-17.9275
-17.1986
-16.5475
-15.9557
-15.4066
-14.8854
-14.3801
-13.8816
-13.3842
-12.8851
-12.3844
-11.8833
-11.3841
-10.8891
-10.4008
-9.92123
-9.45219
-8.99513
-8.55115
-8.1209
-7.70465
-7.30245
-6.91443
-6.54096
-6.18258
-5.84015
-5.51471
-5.20714
-4.91783
-4.6468
-4.39389
-4.15896
-3.94195
-3.74282
-3.56135
-3.39697
-3.24869
-3.11504
-2.99415
-2.88385
-2.78181
-2.68572
-2.59341
-2.50301
-2.41303
-2.32241
-2.23053
-2.13718
-2.04245
-1.94672
-1.8505
-1.75442
-1.65913
-1.56526
-1.47338
-1.38396
-1.29738
-1.2139
-1.13367
-1.05673
-0.983051
-0.912549
-0.845098
-0.780562
-0.718806
-0.659718
-0.603204
-0.54919
-0.497625
-0.448497
-0.401807
-0.357552
-0.315714
-0.27627
-0.239192
-0.204443
-0.172028
-0.141891
-0.114168
-0.088475
-0.0658103
-0.0433935
-0.0286781
-0.00167192
-0.0204597
-40.9465
-44.4348
-43.4968
-41.1273
-38.1274
-34.9988
-32.0961
-29.4928
-27.1971
-25.2176
-23.527
-22.0745
-20.8181
-19.7291
-18.7833
-17.9574
-17.2295
-16.5792
-15.9879
-15.4388
-14.9172
-14.4109
-13.9108
-13.4112
-12.9097
-12.4062
-11.9025
-11.4007
-10.9034
-10.4131
-9.93192
-9.46156
-9.00347
-8.55868
-8.12778
-7.71097
-7.30828
-6.91985
-6.54613
-6.18783
-5.84597
-5.52167
-5.21575
-4.92855
-4.65995
-4.40967
-4.17741
-3.96297
-3.76613
-3.58652
-3.42348
-3.2759
-3.14227
-3.02072
-2.90913
-2.80526
-2.70693
-2.61213
-2.51916
-2.42666
-2.33371
-2.23976
-2.14465
-2.0485
-1.95164
-1.85458
-1.75787
-1.66214
-1.56796
-1.47585
-1.38627
-1.29956
-1.21595
-1.13559
-1.0585
-0.984663
-0.913981
-0.846336
-0.781598
-0.719639
-0.660353
-0.603653
-0.549473
-0.49777
-0.448524
-0.40173
-0.357388
-0.315482
-0.275982
-0.238856
-0.204074
-0.171644
-0.141502
-0.113779
-0.0880772
-0.0654259
-0.0429426
-0.0283659
-0.000907644
-0.0210689
-41.2904
-44.5628
-43.5452
-41.1904
-38.1934
-35.0489
-32.1312
-29.5207
-27.2234
-25.2446
-23.5551
-22.1038
-20.8488
-19.7612
-18.8168
-17.9921
-17.2651
-16.6154
-16.0243
-15.475
-14.9527
-14.4451
-13.9432
-13.4412
-12.9368
-12.4304
-11.9237
-11.4192
-10.9196
-10.4272
-9.94431
-9.47261
-9.01347
-8.56785
-8.13626
-7.71884
-7.31561
-6.92676
-6.55287
-6.19486
-5.85389
-5.53113
-5.22734
-4.94269
-4.67694
-4.42961
-4.20023
-3.98843
-3.79383
-3.61592
-3.45392
-3.30666
-3.17261
-3.04993
-2.93658
-2.83046
-2.72954
-2.63197
-2.53621
-2.44106
-2.34569
-2.24964
-2.15276
-2.05518
-1.95722
-1.85931
-1.76199
-1.6658
-1.57129
-1.47894
-1.38916
-1.30227
-1.2185
-1.13795
-1.06068
-0.98663
-0.915725
-0.847847
-0.78287
-0.720675
-0.661161
-0.604249
-0.549877
-0.498007
-0.448621
-0.401708
-0.357263
-0.315271
-0.2757
-0.238521
-0.203707
-0.171261
-0.141113
-0.113393
-0.0876873
-0.0650523
-0.0425227
-0.0280694
-0.000283444
-0.0215112
-41.6395
-44.684
-43.5883
-41.2511
-38.2585
-35.0986
-32.1661
-29.5492
-27.2512
-25.274
-23.5862
-22.1366
-20.8834
-19.7974
-18.8545
-18.031
-17.3047
-16.6554
-16.0644
-15.5147
-14.9914
-14.4824
-13.9783
-13.4737
-12.9663
-12.4567
-11.947
-11.4397
-10.9376
-10.4432
-9.9586
-9.48556
-9.02538
-8.57891
-8.14657
-7.72847
-7.32464
-6.93541
-6.56152
-6.2041
-5.86443
-5.54368
-5.24247
-4.96078
-4.69817
-4.45395
-4.22749
-4.01824
-3.82567
-3.64915
-3.48779
-3.34041
-3.20548
-3.08123
-2.96572
-2.85701
-2.75322
-2.65269
-2.55402
-2.45614
-2.35832
-2.26016
-2.16153
-2.06254
-1.96346
-1.86472
-1.76677
-1.67012
-1.57526
-1.48263
-1.39262
-1.30552
-1.22153
-1.14076
-1.06325
-0.98895
-0.917782
-0.849633
-0.784384
-0.721923
-0.662154
-0.605005
-0.550418
-0.498359
-0.448808
-0.401755
-0.35719
-0.315096
-0.275444
-0.238209
-0.203359
-0.170895
-0.140741
-0.113024
-0.0873212
-0.0647065
-0.0421516
-0.0278061
0.000204003
-0.0218297
-41.9936
-44.793
-43.6263
-41.3116
-38.3252
-35.1502
-32.2029
-29.5796
-27.2814
-25.3062
-23.6205
-22.1729
-20.9215
-19.8373
-18.8958
-18.0733
-17.3477
-16.6986
-16.1074
-15.5572
-15.0329
-14.5222
-14.016
-13.5085
-12.9981
-12.4852
-11.9723
-11.4622
-10.9577
-10.4612
-9.97497
-9.50061
-9.03936
-8.59198
-8.15883
-7.73998
-7.33554
-6.946
-6.57234
-6.21587
-5.87797
-5.5597
-5.2615
-4.98309
-4.7238
-4.48274
-4.25909
-4.05215
-3.86128
-3.68573
-3.52458
-3.37662
-3.24038
-3.11416
-2.99617
-2.88461
-2.77777
-2.67416
-2.57252
-2.4719
-2.37164
-2.27138
-2.171
-2.07061
-1.97043
-1.87084
-1.77225
-1.67511
-1.57987
-1.48693
-1.39663
-1.30927
-1.22502
-1.14398
-1.06619
-0.9916
-0.920133
-0.851682
-0.786133
-0.72338
-0.663334
-0.605925
-0.551102
-0.498832
-0.449096
-0.401882
-0.357178
-0.314968
-0.275226
-0.237924
-0.203032
-0.170544
-0.140383
-0.112671
-0.0869763
-0.0643852
-0.0418241
-0.0275712
0.000578422
-0.0220454
-42.3908
-44.8896
-43.651
-41.362
-38.3847
-35.1983
-32.2382
-29.61
-27.3127
-25.3402
-23.6572
-22.2119
-20.9626
-19.8802
-18.9401
-18.1185
-17.3934
-16.7444
-16.1529
-15.602
-15.0766
-14.5644
-14.0559
-13.5457
-13.032
-12.5159
-11.9999
-11.487
-10.98
-10.4815
-9.99365
-9.51795
-9.0556
-8.60725
-8.17319
-7.75352
-7.34849
-6.9588
-6.58567
-6.23058
-5.89493
-5.5796
-5.28475
-5.00983
-4.75389
-4.51587
-4.29478
-4.08982
-3.90022
-3.7252
-3.56379
-3.41482
-3.27687
-3.14837
-3.02765
-2.91306
-2.80308
-2.69633
-2.5917
-2.48834
-2.38565
-2.28331
-2.18121
-2.07941
-1.97813
-1.87768
-1.77842
-1.68076
-1.58509
-1.49178
-1.40117
-1.31349
-1.22893
-1.14758
-1.06947
-0.994555
-0.922759
-0.853979
-0.788107
-0.725042
-0.664699
-0.607012
-0.551934
-0.499435
-0.449495
-0.402101
-0.357243
-0.314903
-0.275057
-0.23768
-0.202737
-0.170222
-0.140052
-0.112346
-0.0866636
-0.0640991
-0.0415484
-0.0273733
0.000847322
-0.0221825
-42.7942
-44.9665
-43.6646
-41.4046
-38.4366
-35.2409
-32.2698
-29.6383
-27.3432
-25.3744
-23.6948
-22.2523
-21.0053
-19.9249
-18.9863
-18.1656
-17.4409
-16.7919
-16.2001
-15.6486
-15.1223
-14.6086
-14.098
-13.5851
-13.0683
-12.549
-12.0299
-11.5142
-11.0048
-10.5043
-10.0148
-9.53773
-9.0742
-8.62479
-8.18973
-7.7692
-7.36365
-6.97404
-6.60183
-6.24861
-5.91568
-5.60367
-5.31241
-5.04103
-4.78834
-4.55311
-4.33423
-4.13081
-3.94203
-3.76707
-3.60498
-3.45461
-3.31464
-3.1836
-3.05996
-2.94225
-2.82905
-2.71915
-2.61155
-2.50547
-2.40038
-2.29599
-2.19216
-2.08897
-1.98657
-1.88523
-1.78527
-1.68704
-1.59089
-1.49717
-1.40618
-1.31814
-1.23323
-1.15152
-1.07306
-0.997783
-0.925631
-0.856501
-0.790287
-0.726894
-0.666239
-0.608261
-0.552913
-0.500168
-0.450007
-0.402419
-0.357391
-0.314908
-0.274948
-0.237484
-0.202484
-0.169936
-0.139753
-0.112053
-0.0863861
-0.06385
-0.0413239
-0.027212
0.00102195
-0.0222515
-43.1692
-45.0285
-43.6727
-41.4418
-38.4822
-35.28
-32.3
-29.6661
-27.3738
-25.4092
-23.7332
-22.2936
-21.0493
-19.9709
-19.0337
-18.2139
-17.4896
-16.8407
-16.2488
-15.6968
-15.1698
-14.6548
-14.1423
-13.6268
-13.1071
-12.5846
-12.0625
-11.544
-11.0322
-10.5297
-10.0385
-9.56002
-9.09523
-8.64464
-8.20851
-7.78714
-7.38124
-6.99205
-6.62123
-6.27036
-5.94057
-5.63215
-5.34456
-5.07662
-4.82694
-4.59413
-4.37703
-4.17469
-3.98626
-3.81093
-3.64776
-3.49566
-3.35341
-3.21965
-3.09299
-2.97207
-2.85565
-2.74262
-2.63207
-2.52331
-2.41585
-2.30941
-2.20387
-2.09927
-1.99573
-1.89346
-1.79275
-1.6939
-1.59723
-1.50305
-1.41162
-1.32317
-1.23786
-1.15577
-1.07691
-1.00125
-0.928722
-0.859225
-0.792657
-0.728924
-0.667947
-0.609667
-0.554038
-0.501036
-0.450641
-0.402844
-0.357634
-0.314996
-0.274909
-0.23735
-0.202284
-0.169697
-0.139499
-0.111802
-0.0861533
-0.0636463
-0.0411563
-0.0270927
0.00110509
-0.0222612
-43.5224
-45.0777
-43.6729
-41.4687
-38.5152
-35.3097
-32.3246
-29.6907
-27.4027
-25.4432
-23.7714
-22.3353
-21.0937
-20.0175
-19.0818
-18.2629
-17.539
-16.8903
-16.2984
-15.7464
-15.2189
-14.703
-14.1888
-13.671
-13.1484
-12.6228
-12.0977
-11.5765
-11.0623
-10.5578
-10.0648
-9.58485
-9.11869
-8.66682
-8.22958
-7.80746
-7.40147
-7.01314
-6.64422
-6.29618
-5.96985
-5.66515
-5.38115
-5.11641
-4.86936
-4.63854
-4.42274
-4.221
-4.03249
-3.85638
-3.6918
-3.53772
-3.39298
-3.25637
-3.12662
-3.00249
-2.88286
-2.76672
-2.65326
-2.54186
-2.43205
-2.32359
-2.21633
-2.1103
-2.00558
-1.90236
-1.80085
-1.70133
-1.60407
-1.50936
-1.41745
-1.32854
-1.24279
-1.16027
-1.08099
-1.00492
-0.932002
-0.862125
-0.795195
-0.731116
-0.669813
-0.611223
-0.555307
-0.502038
-0.4514
-0.403383
-0.357979
-0.315174
-0.274951
-0.237287
-0.202146
-0.169514
-0.139297
-0.111602
-0.0859719
-0.0634936
-0.0410485
-0.0270179
0.00109916
-0.0222149
-43.8555
-45.1063
-43.6629
-41.4859
-38.5374
-35.3315
-32.345
-29.713
-27.4303
-25.4764
-23.8093
-22.3767
-21.138
-20.0641
-19.13
-18.3121
-17.5888
-16.9405
-16.3489
-15.797
-15.2695
-14.753
-14.2375
-13.7176
-13.1922
-12.6637
-12.1356
-11.6117
-11.0951
-10.5885
-10.0938
-9.61219
-9.14454
-8.69131
-8.25296
-7.83027
-7.42456
-7.0376
-6.67111
-6.32632
-6.00365
-5.70263
-5.42199
-5.16008
-4.91522
-4.6859
-4.47093
-4.26934
-4.08033
-3.90311
-3.73684
-3.58056
-3.43321
-3.29368
-3.1608
-3.03347
-2.91065
-2.79146
-2.67514
-2.56112
-2.449
-2.33851
-2.22953
-2.12204
-2.01611
-1.91187
-1.80951
-1.70926
-1.61136
-1.51607
-1.42362
-1.33421
-1.24797
-1.16498
-1.08526
-1.00877
-0.935441
-0.865179
-0.797882
-0.733457
-0.671825
-0.612926
-0.556718
-0.503177
-0.452288
-0.404042
-0.358434
-0.315453
-0.275084
-0.237305
-0.202083
-0.169399
-0.139159
-0.111462
-0.0858509
-0.0633994
-0.0410058
-0.026992
0.00100364
-0.0221146
-44.21
-45.1153
-43.6369
-41.4862
-38.5418
-35.3394
-32.3577
-29.731
-27.4553
-25.508
-23.846
-22.4173
-21.1818
-20.1103
-19.1778
-18.361
-17.6385
-16.9909
-16.3999
-15.8488
-15.3217
-14.8051
-14.2886
-13.7667
-13.2388
-12.7074
-12.1764
-11.6497
-11.1307
-10.6219
-10.1253
-9.64199
-9.17273
-8.71808
-8.2787
-7.85569
-7.45071
-7.06565
-6.70208
-6.36084
-6.04191
-5.7444
-5.46678
-5.20725
-4.96408
-4.73577
-4.52116
-4.31932
-4.12946
-3.95084
-3.78266
-3.62403
-3.47398
-3.33148
-3.19549
-3.06498
-2.93903
-2.81683
-2.69769
-2.5811
-2.46667
-2.35416
-2.24344
-2.13447
-2.02728
-1.92198
-1.81871
-1.71766
-1.61906
-1.52313
-1.43009
-1.34012
-1.25336
-1.16987
-1.08969
-1.01276
-0.939013
-0.868362
-0.800701
-0.735933
-0.673976
-0.614769
-0.558269
-0.504453
-0.453308
-0.404827
-0.359006
-0.31584
-0.275315
-0.237414
-0.202102
-0.169362
-0.139093
-0.111392
-0.0857976
-0.0633699
-0.0410322
-0.0270183
0.000818043
-0.0219614
-44.5458
-45.1004
-43.5993
-41.4744
-38.5317
-35.3342
-32.3616
-29.7431
-27.476
-25.5363
-23.88
-22.4558
-21.2238
-20.1551
-19.2246
-18.4092
-17.6878
-17.0412
-16.4515
-15.9014
-15.3753
-14.859
-14.3419
-13.8184
-13.288
-12.7537
-12.2198
-11.6904
-11.1689
-10.6579
-10.1593
-9.67415
-9.2032
-8.74713
-8.30688
-7.88392
-7.48016
-7.09751
-6.73724
-6.39972
-6.08444
-5.79015
-5.51512
-5.25748
-5.01549
-4.78773
-4.57306
-4.37059
-4.17959
-3.99934
-3.82909
-3.66801
-3.5152
-3.36973
-3.23064
-3.097
-2.96797
-2.84281
-2.72091
-2.60177
-2.48506
-2.37052
-2.25804
-2.14755
-2.03906
-1.93264
-1.8284
-1.7265
-1.62713
-1.5305
-1.43681
-1.34625
-1.25892
-1.17491
-1.09424
-1.01685
-0.942693
-0.871656
-0.803635
-0.73853
-0.676255
-0.616745
-0.559958
-0.505867
-0.454462
-0.40574
-0.359701
-0.316341
-0.275653
-0.237621
-0.202213
-0.16941
-0.139108
-0.111398
-0.085819
-0.063411
-0.0411316
-0.0271
0.000542066
-0.0217564
-44.8403
-45.0701
-43.5542
-41.4508
-38.5074
-35.3167
-32.3577
-29.7509
-27.4935
-25.5619
-23.9117
-22.4921
-21.264
-20.1982
-19.27
-18.4563
-17.7364
-17.0913
-16.5032
-15.9548
-15.4302
-14.9147
-14.3974
-13.8725
-13.3398
-12.8027
-12.2659
-11.7337
-11.2097
-10.6964
-10.1957
-9.70861
-9.23592
-8.77853
-8.33771
-7.91525
-7.51322
-7.13341
-6.77666
-6.44284
-6.13097
-5.83949
-5.56656
-5.31029
-5.06902
-4.84137
-4.62627
-4.42288
-4.2305
-4.04843
-3.87599
-3.71239
-3.55681
-3.40838
-3.26623
-3.12952
-2.99747
-2.86941
-2.74478
-2.62313
-2.50413
-2.38757
-2.27331
-2.16126
-2.05143
-1.94383
-1.83855
-1.73573
-1.63553
-1.53815
-1.44376
-1.35255
-1.26463
-1.18007
-1.09888
-1.02104
-0.946459
-0.87504
-0.806668
-0.741236
-0.678653
-0.618849
-0.561778
-0.507415
-0.455751
-0.406784
-0.360519
-0.31696
-0.276101
-0.237932
-0.202422
-0.169549
-0.13921
-0.111487
-0.0859202
-0.0635269
-0.0413064
-0.027239
0.000176638
-0.0215016
-45.0978
-45.0231
-43.4981
-41.4118
-38.4657
-35.2839
-32.3426
-29.7518
-27.5065
-25.5839
-23.9403
-22.5259
-21.3019
-20.2395
-19.3138
-18.5022
-17.7842
-17.141
-16.555
-16.0089
-15.4862
-14.9721
-14.455
-13.9289
-13.3941
-12.8543
-12.3145
-11.7795
-11.2529
-10.7373
-10.2344
-9.74526
-9.27087
-8.81239
-8.37141
-7.94998
-7.55018
-7.17349
-6.82031
-6.48998
-6.18112
-5.89198
-5.62063
-5.36525
-5.12425
-4.89634
-4.6805
-4.47594
-4.28198
-4.09798
-3.92326
-3.75711
-3.59876
-3.4474
-3.30224
-3.1625
-3.02749
-2.89659
-2.76927
-2.64514
-2.52388
-2.40529
-2.28922
-2.17558
-2.06434
-1.95551
-1.84914
-1.74534
-1.64425
-1.54605
-1.45092
-1.35901
-1.27046
-1.18532
-1.10361
-1.02529
-0.950292
-0.878495
-0.809782
-0.744035
-0.681156
-0.621069
-0.563723
-0.509093
-0.457169
-0.407956
-0.361462
-0.317697
-0.276661
-0.238349
-0.202731
-0.169785
-0.139403
-0.111664
-0.0861049
-0.0637206
-0.0415581
-0.0274365
-0.000275794
-0.0212001
-45.3216
-44.9524
-43.4279
-41.3568
-38.4079
-35.238
-32.3178
-29.7466
-27.5154
-25.6025
-23.9659
-22.5569
-21.3373
-20.2785
-19.3558
-18.5466
-17.8308
-17.1901
-16.6067
-16.0634
-15.5433
-15.031
-14.5145
-13.9876
-13.4507
-12.9082
-12.3655
-11.8277
-11.2984
-10.7803
-10.2751
-9.78396
-9.30802
-8.8488
-8.4082
-7.98836
-7.59119
-7.21777
-6.86801
-6.54081
-6.23448
-5.94714
-5.67688
-5.42194
-5.18082
-4.95232
-4.73548
-4.52956
-4.33389
-4.14785
-3.97081
-3.8021
-3.64099
-3.48675
-3.33863
-3.19594
-3.05803
-2.92433
-2.79437
-2.66777
-2.54426
-2.42363
-2.30574
-2.19047
-2.07779
-1.96767
-1.86014
-1.7553
-1.65326
-1.55419
-1.45825
-1.36561
-1.27639
-1.19064
-1.10839
-1.0296
-0.954174
-0.882005
-0.812959
-0.746911
-0.683749
-0.623391
-0.565781
-0.51089
-0.458711
-0.40925
-0.362524
-0.318549
-0.277332
-0.238872
-0.203141
-0.170118
-0.139691
-0.11193
-0.0863748
-0.0639931
-0.0418865
-0.0276922
-0.000811044
-0.0208561
-45.5536
-44.8601
-43.3407
-41.2819
-38.3301
-35.1755
-32.2801
-29.7319
-27.5181
-25.6165
-23.9876
-22.5846
-21.37
-20.3152
-19.3956
-18.5892
-17.8761
-17.2383
-16.658
-16.1181
-15.6012
-15.0913
-14.5757
-14.0482
-13.5094
-12.9642
-12.4186
-11.8779
-11.3459
-10.8253
-10.3177
-9.82459
-9.34733
-8.88781
-8.44816
-8.03044
-7.6362
-7.26605
-6.91943
-6.59489
-6.29057
-6.00451
-5.73486
-5.47995
-5.23839
-5.00905
-4.79102
-4.58357
-4.38608
-4.19795
-4.01857
-3.8473
-3.68347
-3.52639
-3.37538
-3.2298
-3.08904
-2.9526
-2.82003
-2.69101
-2.56526
-2.44258
-2.32284
-2.20592
-2.09175
-1.98029
-1.87155
-1.7656
-1.66255
-1.56255
-1.46577
-1.37235
-1.28242
-1.19604
-1.11322
-1.03394
-0.958087
-0.885548
-0.81618
-0.749843
-0.686413
-0.625798
-0.567935
-0.512793
-0.460363
-0.410658
-0.363699
-0.319511
-0.278109
-0.239498
-0.203651
-0.170547
-0.14007
-0.112285
-0.0867294
-0.0643438
-0.0422896
-0.0280046
-0.00142325
-0.0204745
-45.7516
-44.7445
-43.2413
-41.1917
-38.2365
-35.0999
-32.2319
-29.7085
-27.5136
-25.6249
-24.0045
-22.608
-21.3988
-20.3485
-19.4327
-18.6295
-17.9196
-17.2851
-16.7086
-16.1725
-15.6594
-15.1524
-14.6383
-14.1105
-13.5699
-13.0221
-12.4737
-11.93
-11.3952
-10.872
-10.362
-9.86707
-9.38881
-8.92949
-8.49134
-8.07617
-7.68502
-7.31798
-6.97412
-6.65175
-6.34891
-6.06364
-5.79418
-5.53897
-5.2967
-5.0663
-4.84692
-4.63784
-4.43847
-4.24821
-4.06648
-3.89268
-3.72617
-3.5663
-3.41246
-3.26405
-3.12051
-2.98137
-2.84624
-2.71481
-2.58684
-2.46212
-2.34052
-2.22191
-2.10621
-1.99335
-1.88335
-1.77623
-1.67212
-1.57114
-1.47346
-1.37922
-1.28854
-1.20149
-1.11809
-1.0383
-0.962015
-0.889108
-0.819423
-0.752807
-0.689124
-0.628267
-0.570166
-0.514783
-0.46211
-0.412164
-0.364973
-0.320572
-0.278984
-0.24022
-0.204256
-0.171068
-0.14054
-0.112726
-0.0871662
-0.0647701
-0.0427642
-0.0283712
-0.00210506
-0.0200614
-45.9025
-44.6144
-43.1318
-41.0855
-38.1267
-35.0114
-32.174
-29.6773
-27.5025
-25.6279
-24.0171
-22.6276
-21.4242
-20.3788
-19.4671
-18.6675
-17.9612
-17.3305
-16.7582
-16.2266
-15.7178
-15.2144
-14.7021
-14.1743
-13.6321
-13.0818
-12.5304
-11.9839
-11.4462
-10.9203
-10.4081
-9.91147
-9.43261
-8.97398
-8.53779
-8.12541
-7.73734
-7.37315
-7.03161
-6.71089
-6.40901
-6.1241
-5.85448
-5.59869
-5.35549
-5.12388
-4.90303
-4.69226
-4.49095
-4.29855
-4.11449
-3.93818
-3.76904
-3.60645
-3.44984
-3.29865
-3.15239
-3.01061
-2.87297
-2.73916
-2.60897
-2.48221
-2.35874
-2.23842
-2.12114
-2.00686
-1.89553
-1.78721
-1.68197
-1.57996
-1.48133
-1.38623
-1.29476
-1.20702
-1.123
-1.04268
-0.965946
-0.892663
-0.822664
-0.755779
-0.691855
-0.630772
-0.572448
-0.516838
-0.463933
-0.413752
-0.366333
-0.32172
-0.279946
-0.241029
-0.204948
-0.171676
-0.141095
-0.113248
-0.087681
-0.0652681
-0.0433054
-0.0287882
-0.00284795
-0.019623
-46.0078
-44.4658
-43.0081
-40.9606
-37.9996
-34.9097
-32.106
-29.6379
-27.4842
-25.6246
-24.0244
-22.643
-21.4459
-20.4058
-19.4985
-18.7029
-18.0006
-17.3742
-16.8066
-16.2801
-15.7763
-15.2769
-14.7671
-14.2395
-13.6958
-13.143
-12.5887
-12.0392
-11.4987
-10.9702
-10.4558
-9.95795
-9.47896
-9.02149
-8.58754
-8.17801
-7.7928
-7.43108
-7.09137
-6.77179
-6.47044
-6.18552
-5.91545
-5.65886
-5.41458
-5.18164
-4.95924
-4.74671
-4.54346
-4.34892
-4.16254
-3.98377
-3.81205
-3.6468
-3.48748
-3.33359
-3.18465
-3.04029
-2.90017
-2.76402
-2.63164
-2.50285
-2.37749
-2.25543
-2.13656
-2.02079
-1.9081
-1.79851
-1.69211
-1.58902
-1.4894
-1.39338
-1.30109
-1.21261
-1.12795
-1.04707
-0.969868
-0.8962
-0.825883
-0.758733
-0.69458
-0.633286
-0.574756
-0.518934
-0.465808
-0.415401
-0.36776
-0.322939
-0.280983
-0.241914
-0.205717
-0.172362
-0.141727
-0.113847
-0.0882676
-0.0658319
-0.0439072
-0.0292508
-0.00364253
-0.019166
-46.0723
-44.2938
-42.8681
-40.8169
-37.8561
-34.7959
-32.029
-29.5909
-27.4592
-25.615
-24.0262
-22.6536
-21.4638
-20.4294
-19.5269
-18.7356
-18.0376
-17.4159
-16.8535
-16.3326
-15.8344
-15.3397
-14.8327
-14.3057
-13.7607
-13.2054
-12.6483
-12.0958
-11.5525
-11.0215
-10.5053
-10.0067
-9.52806
-9.07213
-8.64053
-8.23367
-7.85098
-7.49126
-7.1529
-6.83403
-6.53282
-6.24759
-5.97684
-5.71928
-5.47379
-5.23944
-5.01544
-4.80113
-4.59592
-4.39926
-4.2106
-4.02942
-3.85516
-3.68731
-3.52535
-3.36881
-3.21727
-3.07038
-2.92782
-2.78937
-2.65482
-2.524
-2.39676
-2.27295
-2.15245
-2.03516
-1.92107
-1.81017
-1.70255
-1.59834
-1.49767
-1.4007
-1.30754
-1.21828
-1.13293
-1.05147
-0.973775
-0.899702
-0.82906
-0.761645
-0.697271
-0.63578
-0.57706
-0.521042
-0.46771
-0.417089
-0.369233
-0.324211
-0.282076
-0.242861
-0.206551
-0.173115
-0.142427
-0.114512
-0.0889187
-0.0664547
-0.0445627
-0.0297537
-0.00447897
-0.0186968
-46.1355
-44.1015
-42.7109
-40.6532
-37.6956
-34.6695
-31.9422
-29.5356
-27.4266
-25.5986
-24.0217
-22.6587
-21.4768
-20.4488
-19.5516
-18.765
-18.0717
-17.455
-16.8982
-16.3835
-15.8915
-15.4021
-14.8985
-14.3724
-13.8263
-13.2687
-12.7087
-12.1532
-11.6072
-11.074
-10.5565
-10.0576
-9.5799
-9.12577
-8.69649
-8.29202
-7.91141
-7.55321
-7.21574
-6.89718
-6.59581
-6.31003
-6.03843
-5.77978
-5.533
-5.29718
-5.07155
-4.85545
-4.64829
-4.44952
-4.25862
-4.07507
-3.89835
-3.72795
-3.56342
-3.4043
-3.25022
-3.10084
-2.95591
-2.81519
-2.6785
-2.54567
-2.41654
-2.29096
-2.1688
-2.04997
-1.93443
-1.82218
-1.7133
-1.60791
-1.50616
-1.40819
-1.31412
-1.22404
-1.13797
-1.05588
-0.977663
-0.903163
-0.832179
-0.764495
-0.699903
-0.638227
-0.579332
-0.523136
-0.469613
-0.41879
-0.37073
-0.325515
-0.28321
-0.243855
-0.207437
-0.173924
-0.143184
-0.115235
-0.0896255
-0.0671286
-0.0452639
-0.0302908
-0.00534729
-0.0182216
-46.1547
-43.8885
-42.5407
-40.4734
-37.5216
-34.5334
-31.8476
-29.4732
-27.3873
-25.5759
-24.0114
-22.6584
-21.4849
-20.4639
-19.5724
-18.7909
-18.1025
-17.4913
-16.9405
-16.4325
-15.9473
-15.4639
-14.9643
-14.4395
-13.8924
-13.3324
-12.7696
-12.2113
-11.6627
-11.1275
-10.6092
-10.1106
-9.63427
-9.18212
-8.75501
-8.35258
-7.97358
-7.61645
-7.27947
-6.96091
-6.65912
-6.37261
-6.10003
-5.8402
-5.59207
-5.35475
-5.12747
-4.90959
-4.7005
-4.49967
-4.30657
-4.1207
-3.94157
-3.7687
-3.60165
-3.44002
-3.28346
-3.13167
-2.98441
-2.84147
-2.70267
-2.56784
-2.43682
-2.30947
-2.18563
-2.06522
-1.94819
-1.83455
-1.72437
-1.61777
-1.51488
-1.41587
-1.32084
-1.2299
-1.14307
-1.06031
-0.981535
-0.906578
-0.835231
-0.767265
-0.702454
-0.640599
-0.581544
-0.525186
-0.471488
-0.420478
-0.372227
-0.326829
-0.284363
-0.244877
-0.208359
-0.174774
-0.143987
-0.116005
-0.0903783
-0.067845
-0.0460026
-0.0308556
-0.00623772
-0.017746
-46.1255
-43.6616
-42.3574
-40.2764
-37.3341
-34.388
-31.7456
-29.4041
-27.3416
-25.5472
-23.9957
-22.6531
-21.4883
-20.4747
-19.5895
-18.8134
-18.1304
-17.5248
-16.9805
-16.4796
-16.0018
-15.5251
-15.0299
-14.5067
-13.9588
-13.3966
-12.831
-12.2699
-11.7188
-11.1821
-10.6633
-10.1655
-9.69088
-9.24075
-8.81561
-8.41482
-8.03702
-7.68055
-7.34373
-7.0249
-6.72251
-6.43514
-6.1615
-5.90042
-5.65091
-5.41208
-5.18316
-4.9635
-4.75251
-4.54965
-4.3544
-4.16627
-3.98479
-3.80951
-3.64002
-3.47595
-3.31697
-3.16283
-3.0133
-2.86818
-2.72731
-2.59051
-2.45761
-2.32847
-2.20294
-2.08092
-1.96237
-1.8473
-1.73577
-1.62791
-1.52386
-1.42375
-1.32773
-1.23588
-1.14824
-1.06477
-0.985397
-0.909945
-0.838208
-0.769942
-0.704905
-0.642875
-0.58367
-0.527165
-0.473309
-0.422126
-0.373697
-0.32813
-0.285516
-0.24591
-0.209302
-0.175653
-0.144824
-0.11681
-0.091167
-0.0685946
-0.0467702
-0.0314418
-0.00714094
-0.0172749
-46.0478
-43.416
-42.1575
-40.0612
-37.1335
-34.2337
-31.6364
-29.3281
-27.2894
-25.5124
-23.9743
-22.6427
-21.487
-20.481
-19.6023
-18.8323
-18.1549
-17.5553
-17.0178
-16.5245
-16.0548
-15.5853
-15.0952
-14.574
-14.0254
-13.4611
-12.8928
-12.329
-11.7757
-11.2377
-10.719
-10.2223
-9.7494
-9.30119
-8.87775
-8.47826
-8.10127
-7.74513
-7.40821
-7.08892
-6.7858
-6.49747
-6.2227
-5.96035
-5.70945
-5.4691
-5.23855
-5.01714
-4.80428
-4.59943
-4.40208
-4.21174
-4.02798
-3.85036
-3.6785
-3.51206
-3.35075
-3.19433
-3.04259
-2.89534
-2.75243
-2.61367
-2.47891
-2.34797
-2.22073
-2.09707
-1.97697
-1.86043
-1.74752
-1.63836
-1.53309
-1.43186
-1.3348
-1.24199
-1.15349
-1.06928
-0.989255
-0.913271
-0.841109
-0.772519
-0.707243
-0.645035
-0.585687
-0.529047
-0.475048
-0.423708
-0.375118
-0.329397
-0.286649
-0.246936
-0.210249
-0.176546
-0.14568
-0.11764
-0.0919809
-0.0693682
-0.047558
-0.0320426
-0.00804827
-0.0168126
-45.9284
-43.1495
-41.9405
-39.8285
-36.9209
-34.0714
-31.5204
-29.2455
-27.2307
-25.4715
-23.9473
-22.6271
-21.4808
-20.4825
-19.6105
-18.8468
-18.1756
-17.5823
-17.0519
-16.5667
-16.1056
-15.6441
-15.1597
-14.6409
-14.0919
-13.5256
-12.9547
-12.3884
-11.8334
-11.2946
-10.7761
-10.2806
-9.80945
-9.36296
-8.94094
-8.54242
-8.16594
-7.80987
-7.47265
-7.15277
-6.84881
-6.55947
-6.28353
-6.0199
-5.76759
-5.52574
-5.29358
-5.07046
-4.85577
-4.64897
-4.44957
-4.2571
-4.07111
-3.89123
-3.71707
-3.54835
-3.38478
-3.22615
-3.07226
-2.92295
-2.77803
-2.63734
-2.50071
-2.36797
-2.23899
-2.11368
-1.99199
-1.87395
-1.75962
-1.64912
-1.5426
-1.4402
-1.34205
-1.24825
-1.15885
-1.07383
-0.993122
-0.91656
-0.843936
-0.774992
-0.709455
-0.647062
-0.587573
-0.530809
-0.476679
-0.425198
-0.376463
-0.330605
-0.287741
-0.247937
-0.211184
-0.177437
-0.146544
-0.118481
-0.0928095
-0.0701562
-0.0483574
-0.0326518
-0.00895181
-0.0163624
-45.8034
-42.8661
-41.7073
-39.5794
-36.6977
-33.902
-31.3979
-29.1563
-27.1656
-25.4246
-23.9147
-22.6063
-21.4696
-20.4794
-19.6141
-18.8567
-18.192
-17.6054
-17.0822
-16.6055
-16.1537
-15.7009
-15.2229
-14.7069
-14.1577
-13.5896
-13.0164
-12.4481
-11.8917
-11.3525
-10.8345
-10.3403
-9.87062
-9.4256
-9.00472
-8.6069
-8.23068
-7.8745
-7.53685
-7.21627
-6.91142
-6.62103
-6.34391
-6.07899
-5.82529
-5.58195
-5.34821
-5.1234
-4.90692
-4.69824
-4.49684
-4.3023
-4.11417
-3.9321
-3.75574
-3.58481
-3.41906
-3.2583
-3.10234
-2.951
-2.80411
-2.66151
-2.52302
-2.38848
-2.25775
-2.13075
-2.00745
-1.88787
-1.77208
-1.6602
-1.55239
-1.44877
-1.3495
-1.25466
-1.16432
-1.07846
-0.997008
-0.919824
-0.846694
-0.77736
-0.711538
-0.648944
-0.589311
-0.532428
-0.47818
-0.426574
-0.37771
-0.331735
-0.288773
-0.248895
-0.212093
-0.178314
-0.147403
-0.119324
-0.0936422
-0.0709494
-0.0491602
-0.0332631
-0.00984454
-0.0159269
-45.632
-42.5662
-41.4612
-39.3168
-36.4664
-33.727
-31.2698
-29.0612
-27.0945
-25.3721
-23.8771
-22.5807
-21.454
-20.4719
-19.6136
-18.8625
-18.2044
-17.6248
-17.1091
-16.6411
-16.199
-15.7556
-15.2846
-14.7718
-14.2226
-13.6528
-13.0774
-12.5075
-11.9503
-11.4111
-10.8938
-10.4008
-9.93243
-9.48865
-9.06868
-8.67136
-8.29524
-7.93882
-7.60063
-7.2793
-6.97352
-6.68205
-6.40375
-6.13755
-5.88248
-5.63768
-5.40239
-5.17594
-4.95772
-4.74719
-4.54388
-4.34732
-4.15713
-3.97296
-3.79448
-3.62144
-3.4536
-3.29079
-3.13281
-2.97951
-2.83069
-2.6862
-2.54585
-2.40949
-2.277
-2.14829