/*--------------------------------*- C++ -*----------------------------------*\
| =========                 |                                                 |
| \\      /  F ield         | OpenFOAM: The Open Source CFD Toolbox           |
|  \\    /   O peration     | Version:  4.1                                   |
|   \\  /    A nd           | Web:      www.OpenFOAM.org                      |
|    \\/     M anipulation  |                                                 |
\*---------------------------------------------------------------------------*/
FoamFile
{
    version     2.0;
    format      ascii;
    class       surfaceScalarField;
    location    "300";
    object      phi;
}
// * * * * * * * * * * * * * * * * * * * * * * * * * * * * * * * * * * * * * //

dimensions      [0 3 -1 0 0 0 0];

internalField   nonuniform List<scalar> 
52920
(
3185.95
-147.66
3270.67
-84.7157
3310.77
-40.0992
3321.23
-10.4567
3315.58
5.64645
3302.94
12.6399
3288.32
14.6219
3274.12
14.2015
3261.13
12.9886
3249.18
11.9494
3237.57
11.608
3225.37
12.1995
3211.6
13.7724
3195.35
16.2453
3175.91
19.441
3152.8
23.113
3125.83
26.9707
3095.12
30.7093
3061.08
34.0408
3024.36
36.7225
2985.78
38.5738
2946.3
39.4822
2906.9
39.4045
2868.53
38.367
2832.07
36.4606
2798.24
33.8276
2767.6
30.6423
2740.51
27.0913
2717.15
23.3566
2697.55
19.6044
2681.57
15.978
2668.97
12.5948
2659.43
9.54539
2652.54
6.89114
2647.88
4.65896
2645.04
2.83839
2643.65
1.38649
2643.4
0.255874
2643.96
-0.563733
2644.97
-1.00289
2645.83
-0.868998
2645.69
0.141019
2643.36
2.33877
2637.43
5.92714
2626.48
10.9459
2609.21
17.2682
2584.59
24.6252
2551.94
32.6457
2511.04
40.8993
2462.11
48.9353
2405.79
56.319
2343.13
62.6644
2275.47
67.6607
2204.38
71.0901
2131.54
72.835
2058.66
72.8757
1987.38
71.2821
1919.18
68.1999
1855.35
63.8363
1796.9
58.4439
1744.6
52.3042
1698.89
45.7115
1659.93
38.9561
1627.62
32.3091
1601.61
26.0097
1581.36
20.2557
1566.16
15.1976
1555.22
10.9366
1547.7
7.52486
1542.73
4.96711
1539.51
3.22254
1537.3
2.20751
1535.5
1.80066
1533.65
1.85169
1531.45
2.19425
1528.79
2.66132
1525.69
3.101
1522.3
3.39061
1518.85
3.44687
1515.62
3.23095
1512.87
2.74855
1510.83
2.04353
1509.64
1.18716
1509.37
0.2712
1509.98
-0.609022
1511.36
-1.38028
1513.36
-2.00091
1515.82
-2.45716
1518.58
-2.75521
1521.49
-2.91069
1524.43
-2.94075
1527.28
-2.85836
1529.96
-2.67537
1532.36
-2.39676
1534.4
-2.04689
1536
-1.5954
1537.2
-1.20312
1537.68
-0.475671
1538.39
-0.71364
1.26106
3272.12
-294.847
3358.18
-170.772
3399.5
-81.422
3409.88
-20.8375
3402.58
12.9505
3387.37
27.8485
3369.75
32.2437
3352.29
31.6551
3335.83
29.4484
3320.2
27.5832
3304.73
27.0763
3288.58
28.3526
3270.88
31.4725
3250.87
36.2531
3227.98
42.3343
3201.86
49.2291
3172.46
56.3728
3139.99
63.1817
3104.91
69.1164
3067.9
73.7365
3029.74
76.7291
2991.31
77.9143
2953.47
77.2418
2917.05
74.7877
2882.77
70.7444
2851.2
65.3947
2822.77
59.0755
2797.72
52.1406
2776.15
44.9304
2758
37.7513
2743.11
30.8645
2731.23
24.4815
2722.01
18.7625
2715.09
13.8083
2710.1
9.64704
2706.72
6.22543
2704.68
3.42587
2703.8
1.13736
2703.84
-0.610154
2704.36
-1.52003
2704.49
-1.00104
2702.96
1.67414
2698.19
7.10459
2688.54
15.5845
2672.46
27.0246
2648.76
40.9622
2616.73
56.6565
2576.17
73.214
2527.36
89.6997
2471.08
105.218
2408.43
118.969
2340.81
130.289
2269.79
138.677
2197.07
143.813
2124.34
145.566
2053.24
143.977
1985.26
139.255
1921.72
131.745
1863.65
121.905
1811.81
110.279
1766.66
97.4616
1728.31
84.0622
1696.59
70.6694
1671.09
57.8151
1651.15
45.9441
1636.01
35.3953
1624.82
26.3947
1616.69
19.0597
1610.81
13.4099
1606.4
9.3778
1602.8
6.81735
1599.5
5.51323
1596.1
5.19532
1592.39
5.55938
1588.3
6.29248
1583.86
7.10013
1579.23
7.73149
1574.62
8.00006
1570.27
7.79642
1566.41
7.09161
1563.22
5.93235
1560.84
4.42399
1559.32
2.70839
1558.65
0.942203
1558.76
-0.718754
1559.53
-2.15034
1560.81
-3.28223
1562.45
-4.09313
1564.29
-4.59858
1566.21
-4.82988
1568.09
-4.81858
1569.82
-4.58623
1571.29
-4.15197
1572.42
-3.52363
1573.12
-2.7463
1573.3
-1.77473
1572.99
-0.892427
1571.97
0.54281
1570.86
0.393717
3.88149
3297.88
-449.195
3391.47
-264.36
3439.43
-129.384
3454.45
-35.8561
3449.43
17.9674
3434.66
42.6239
3416.13
50.776
3396.73
51.0518
3377.47
48.7046
3358.32
46.7331
3338.77
46.6343
3318.13
48.9842
3295.79
53.8142
3271.24
60.8105
3244.15
69.4214
3214.44
78.9342
3182.27
88.5498
3147.98
97.4672
3112.13
104.972
3075.36
110.507
3038.39
113.695
3001.96
114.343
2966.78
112.421
2933.5
108.068
2902.67
101.575
2874.71
93.3548
2849.89
83.8952
2828.33
73.7049
2809.99
63.2704
2794.71
53.0252
2782.24
43.3331
2772.25
34.4805
2764.34
26.6712
2758.13
20.013
2753.28
14.4956
2749.53
9.97847
2746.73
6.23013
2744.8
3.06649
2743.59
0.600689
2742.6
-0.529768
2740.81
0.783148
2736.74
5.75085
2728.55
15.2898
2714.38
29.7583
2692.58
48.8177
2662.07
71.4781
2622.41
96.3125
2573.9
121.725
2517.43
146.173
2454.34
168.306
2386.28
187.032
2315.04
201.531
2242.45
211.263
2170.31
215.953
2100.29
215.584
2033.89
210.375
1972.39
200.76
1916.77
187.363
1867.72
170.957
1825.58
152.423
1790.34
132.696
1761.7
112.707
1739.05
93.3132
1721.62
75.2501
1708.48
59.0847
1698.67
45.1995
1691.27
33.7952
1685.42
24.9092
1680.4
18.4392
1675.61
14.1663
1670.65
11.7763
1665.28
10.884
1659.41
11.0609
1653.1
11.8681
1646.51
12.8894
1639.84
13.7625
1633.37
14.2051
1627.34
14.0337
1621.96
13.1713
1617.41
11.6439
1613.77
9.56701
1611.08
7.11851
1609.28
4.50824
1608.28
1.93938
1607.96
-0.398921
1608.17
-2.35585
1608.74
-3.85
1609.51
-4.86299
1610.33
-5.42384
1611.08
-5.57991
1611.64
-5.37475
1611.89
-4.83677
1611.73
-3.99284
1611.07
-2.85986
1609.83
-1.51195
1607.98
0.080928
1605.53
1.55657
1602.42
3.65116
1598.91
3.90345
8.38509
3278.78
-612.966
3382.37
-367.949
3440.21
-187.227
3463.56
-59.2015
3464.41
17.1147
3453.18
53.8515
3436.35
67.604
3417.18
70.2208
3396.93
68.9597
3375.75
67.9152
3353.31
69.0702
3329.17
73.126
3302.94
80.0474
3274.39
89.354
3243.53
100.28
3210.58
111.889
3175.94
123.184
3140.2
133.215
3103.98
141.184
3067.98
146.509
3032.84
148.835
2999.18
148.009
2967.53
144.063
2938.39
137.214
2912.1
127.864
2888.89
116.566
2868.82
103.963
2851.81
90.7195
2837.62
77.4582
2825.93
64.718
2816.33
52.931
2808.39
42.4134
2801.7
33.3613
2795.89
25.8327
2790.66
19.7185
2785.91
14.7352
2781.62
10.5111
2777.86
6.83584
2774.42
4.04007
2770.64
3.24407
2765.29
6.1314
2756.67
14.3753
2742.83
29.1318
2721.9
50.6843
2692.45
78.2692
2653.73
110.2
2605.8
144.236
2549.52
178.012
2486.31
209.38
2418.02
236.597
2346.67
258.386
2274.29
273.908
2202.83
282.72
2134.06
284.73
2069.48
280.156
2010.36
269.502
1957.59
253.526
1911.75
233.201
1873.04
209.671
1841.28
184.176
1816
157.977
1796.44
132.266
1781.68
108.081
1770.68
86.2454
1762.43
67.3309
1755.98
51.6568
1750.46
39.3086
1745.2
30.1719
1739.67
23.9689
1733.54
20.2949
1726.66
18.6546
1719.05
18.4999
1710.84
19.2702
1702.27
20.4329
1693.64
21.5195
1685.25
22.1556
1677.37
22.0821
1670.24
21.1655
1664.02
19.3959
1658.79
16.8745
1654.57
13.7885
1651.3
10.3798
1648.91
6.90695
1647.24
3.60052
1646.19
0.656097
1645.6
-1.76827
1645.33
-3.58224
1645.24
-4.76567
1645.16
-5.34732
1644.96
-5.37587
1644.47
-4.89356
1643.57
-3.93031
1642.1
-2.52593
1639.97
-0.728597
1637.12
1.33578
1633.55
3.65429
1629.28
5.82643
1624.35
8.58245
1618.78
9.47147
14.6388
3227.75
-781.173
3339.38
-479.583
3407.57
-255.411
3441.22
-92.8496
3450.4
7.93095
3445.03
59.2249
3431.95
80.6844
3414.83
87.3406
3395.25
88.5324
3373.66
89.5122
3349.95
92.7754
3323.93
99.1489
3295.46
108.514
3264.61
120.204
3231.67
133.224
3197.13
146.423
3161.68
158.642
3126.04
168.852
3090.97
176.256
3057.14
180.337
3025.14
180.834
2995.46
177.696
2968.46
171.056
2944.43
161.247
2923.48
148.811
2905.59
134.46
2890.55
118.998
2878.05
103.228
2867.63
87.8719
2858.83
73.5167
2851.17
60.5967
2844.19
49.3918
2837.52
40.0294
2830.89
32.4612
2824.19
26.4229
2817.47
21.4496
2810.92
17.0625
2804.59
13.1672
2798.13
10.5052
2790.58
10.789
2780.44
16.2756
2765.78
29.035
2744.61
50.2996
2715.27
80.0276
2676.76
116.781
2628.95
158.006
2572.6
200.59
2509.16
241.45
2440.59
277.953
2369.06
308.121
2296.8
330.649
2225.88
344.828
2158.15
350.449
2095.16
347.719
2038.11
337.203
1987.83
319.78
1944.76
296.599
1908.93
269.029
1880.02
238.58
1857.39
206.806
1840.17
175.202
1827.34
145.098
1817.84
117.579
1810.65
93.4359
1804.83
73.1485
1799.58
56.9052
1794.26
44.6344
1788.38
36.049
1781.66
30.692
1773.97
27.983
1765.36
27.2673
1755.99
27.8652
1746.14
29.1222
1736.12
30.4538
1726.26
31.3819
1716.85
31.5592
1708.15
30.7816
1700.33
28.9872
1693.48
26.2423
1687.64
22.7195
1682.76
18.6647
1678.78
14.3628
1675.59
10.0982
1673.07
6.11594
1671.12
2.60497
1669.64
-0.28548
1668.51
-2.45423
1667.61
-3.8641
1666.79
-4.52195
1665.86
-4.45117
1664.64
-3.67424
1662.94
-2.22222
1660.57
-0.165706
1657.46
2.38869
1653.54
5.25689
1648.81
8.381
1643.29
11.3485
1637.05
14.8189
1630.02
16.5008
22.2706
3144.9
-953.162
3263.62
-598.302
3340.54
-332.333
3383.97
-136.281
3402.52
-10.6154
3404.82
56.9203
3397.53
87.9715
3384.53
100.343
3367.71
105.358
3347.79
109.427
3324.99
115.581
3299.35
124.782
3271.04
136.833
3240.37
150.874
3207.9
165.689
3174.39
179.937
3140.68
192.35
3107.63
201.897
3076.02
207.871
3046.46
209.902
3019.39
207.897
2995.13
201.96
2973.81
192.37
2955.46
179.603
2939.92
164.352
2926.9
147.479
2915.98
129.913
2906.67
112.539
2898.44
96.1003
2890.8
81.1568
2883.32
68.0774
2875.66
57.0579
2867.56
48.1222
2858.95
41.0797
2849.89
35.4803
2840.64
30.6981
2831.44
26.267
2822.21
22.3972
2812.32
20.3957
2800.47
22.6362
2784.81
31.9332
2763.23
50.6168
2733.8
79.7304
2695.24
118.583
2647.23
164.79
2590.44
214.795
2526.39
264.643
2457.16
310.683
2385.1
350.014
2312.58
380.642
2241.8
401.43
2174.67
411.955
2112.75
412.368
2057.19
403.277
2008.73
385.67
1967.65
360.853
1933.87
330.382
1906.91
295.986
1886.03
259.466
1870.27
222.57
1858.58
186.889
1849.91
153.761
1843.29
124.207
1837.81
98.9101
1832.74
78.2189
1827.47
62.1749
1821.56
50.5516
1814.7
42.9009
1806.79
38.6049
1797.84
36.9312
1788.02
37.0941
1777.57
38.315
1766.81
39.8806
1756.07
41.1892
1745.67
41.7841
1735.86
41.3689
1726.83
39.8089
1718.7
37.1175
1711.51
33.4322
1705.25
28.9832
1699.86
24.058
1695.25
18.9651
1691.35
13.9981
1688.07
9.40327
1685.31
5.3633
1683.01
2.01223
1681.1
-0.546573
1679.48
-2.24405
1678
-3.04068
1676.46
-2.91026
1674.63
-1.84603
1672.3
0.108732
1669.3
2.83515
1665.52
6.17013
1660.89
9.88643
1655.39
13.8779
1649.02
17.7227
1641.86
21.9753
1633.83
24.5362
30.9412
3073.16
-1125.75
3194.46
-719.602
3275.61
-413.487
3324.62
-185.287
3348.93
-34.9293
3356.21
49.6432
3352.96
91.2271
3343.12
110.182
3328.72
119.76
3310.64
127.506
3289.26
136.956
3264.86
149.187
3237.79
163.895
3208.65
180.016
3178.22
196.123
3147.42
210.733
3117.21
222.559
3088.45
230.664
3061.79
234.531
3037.68
234.014
3016.34
229.237
2997.81
220.488
2981.98
208.194
2968.62
192.965
2957.36
175.612
2947.75
157.094
2939.26
138.401
2931.38
120.421
2923.62
103.853
2915.61
89.1753
2907.02
76.6628
2897.66
66.4154
2887.45
58.3393
2876.45
52.0777
2864.93
46.9975
2853.23
42.3959
2841.52
37.9813
2829.47
34.4453
2816.07
33.7931
2799.6
39.105
2777.88
53.6623
2748.69
79.8029
2710.4
118.019
2662.37
166.618
2605.11
222.042
2540.21
279.7
2469.92
334.936
2396.82
383.784
2323.48
423.351
2252.25
451.873
2185.11
468.573
2123.6
473.458
2068.83
467.137
2021.43
450.682
1981.57
425.528
1949.03
393.389
1923.24
356.171
1903.37
315.864
1888.41
274.424
1877.32
233.663
1869.06
195.144
1862.7
160.12
1857.41
129.498
1852.49
103.831
1847.37
83.3378
1841.62
67.9242
1834.95
57.2252
1827.2
50.6495
1818.37
47.4369
1808.57
46.7256
1798.04
47.6247
1787.07
49.2867
1775.98
50.9695
1765.09
52.0825
1754.66
52.2116
1744.91
51.1252
1735.95
48.7619
1727.86
45.2067
1720.64
40.6575
1714.23
35.3887
1708.58
29.7138
1703.59
23.9501
1699.2
18.3875
1695.34
13.2612
1691.96
8.74451
1689.01
4.96209
1686.45
2.01831
1684.19
0.0190876
1682.08
-0.931449
1679.92
-0.750908
1677.49
0.58543
1674.58
3.01553
1671.03
6.38553
1666.7
10.4953
1661.51
15.0807
1655.41
19.9795
1648.37
24.756
1640.5
29.8463
1631.72
33.3228
40.4251
2999.41
-1297.71
3122.11
-842.293
3206.41
-497.793
3260.21
-239.089
3289.88
-64.5995
3301.89
37.6392
3302.47
90.641
3295.72
116.94
3283.82
131.659
3267.85
143.474
3248.38
156.426
3225.87
171.692
3200.92
188.845
3174.32
206.62
3147.03
223.414
3120.08
237.68
3094.43
248.212
3070.81
254.281
3049.7
255.641
3031.29
252.425
3015.54
244.989
3002.23
233.796
2991.03
219.393
2981.52
202.476
2973.21
183.92
2965.59
164.718
2958.14
145.851
2950.41
128.152
2942.03
112.231
2932.74
98.4647
2922.37
87.0321
2910.85
77.9344
2898.25
70.9407
2884.81
65.5144
2870.93
60.8813
2856.94
56.3864
2842.83
52.0947
2827.91
49.3635
2810.69
51.013
2788.99
60.8073
2760.37
82.2802
2722.78
117.395
2675.13
165.664
2617.68
224.072
2551.93
287.787
2480.33
351.306
2405.72
409.545
2330.96
458.543
2258.6
495.71
2190.73
519.742
2128.92
530.381
2074.22
528.161
2027.16
514.195
1987.83
490.018
1955.88
457.473
1930.66
418.605
1911.28
375.552
1896.71
330.435
1885.89
285.242
1877.82
241.735
1871.59
201.378
1866.41
165.299
1861.63
134.277
1856.72
108.746
1851.25
88.8063
1844.92
74.2479
1837.57
64.5817
1829.13
59.0873
1819.69
56.8787
1809.43
56.9842
1798.62
58.4328
1787.57
60.3348
1776.6
61.9462
1765.97
62.7093
1755.91
62.2685
1746.57
60.4635
1738.03
57.306
1730.29
52.9453
1723.32
47.6289
1717.05
41.6628
1711.39
35.3735
1706.26
29.0754
1701.61
23.0428
1697.38
17.4903
1693.55
12.5736
1690.09
8.41507
1686.98
5.13734
1684.11
2.8863
1681.36
1.81989
1678.54
2.06119
1675.48
3.64793
1671.98
6.515
1667.87
10.4978
1663
15.3697
1657.25
20.8293
1650.57
26.6547
1642.94
32.3902
1634.43
38.3505
1625.01
42.7446
50.5833
2923.78
-1467.28
3046.37
-964.88
3132.92
-584.342
3190.89
-297.066
3225.65
-99.3516
3242.44
20.8444
3247.02
86.063
3243.57
120.393
3234.49
140.733
3221.08
156.885
3204.1
173.405
3184.23
191.57
3162.23
210.838
3139.09
229.761
3115.88
246.626
3093.64
259.921
3073.22
268.63
3055.18
272.325
3039.73
271.089
3026.81
265.349
3016.11
255.684
3007.21
242.694
2999.61
226.997
2992.77
209.318
2986.16
190.529
2979.28
171.592
2971.71
153.421
2963.12
136.75
2953.27
122.078
2942.05
109.683
2929.42
99.6619
2915.44
91.9113
2900.34
86.0458
2884.5
81.3574
2868.37
77.0085
2852.21
72.5471
2835.71
68.5965
2817.71
67.3605
2796.18
72.5453
2768.51
88.4739
2732.21
118.584
2685.62
163.98
2628.54
222.751
2562.27
290.342
2489.34
360.712
2412.92
427.731
2336.2
486.262
2262.04
532.703
2192.71
565.035
2129.87
582.59
2074.52
585.725
2027.15
575.531
1987.74
553.608
1955.86
521.897
1930.78
482.555
1911.55
437.838
1897.11
389.994
1886.39
341.155
1878.38
293.244
1872.21
247.908
1867.11
206.476
1862.47
169.945
1857.77
138.976
1852.62
113.897
1846.71
94.71
1839.86
81.1016
1831.97
72.4712
1823.08
67.9812
1813.32
66.6343
1802.94
67.3686
1792.21
69.1564
1781.46
71.0909
1770.95
72.4495
1760.94
72.7253
1751.57
71.6322
1742.95
69.0845
1735.09
65.1636
1727.96
60.075
1721.49
54.1052
1715.57
47.5798
1710.12
40.8272
1705.05
34.1473
1700.3
27.7877
1695.86
21.9347
1691.7
16.7261
1687.83
12.2876
1684.2
8.7679
1680.74
6.34929
1677.33
5.22376
1673.85
5.54321
1670.13
7.37014
1665.99
10.6552
1661.25
15.2336
1655.77
20.8564
1649.41
27.1865
1642.12
33.9415
1633.87
40.6396
1624.75
47.4761
1614.73
52.7657
61.3377
2841.3
-1628.55
2961.25
-1084.83
3049.5
-672.594
3112.33
-359.891
3153.5
-140.523
3176.45
-2.10254
3186.03
76.4785
3186.65
119.775
3181.06
146.32
3170.87
167.08
3157.09
187.183
3140.61
208.047
3122.4
229.047
3103.55
248.613
3085.17
265.005
3068.24
276.853
3053.43
283.437
3041.06
284.699
3031.07
281.079
3023.13
273.291
3016.72
262.096
3011.23
248.178
3006.07
232.162
3000.66
214.724
2994.53
196.667
2987.26
178.863
2978.57
162.11
2968.29
147.025
2956.37
134.002
2942.81
123.244
2927.69
114.779
2911.21
108.395
2893.71
103.546
2875.68
99.3887
2857.55
95.1377
2839.37
90.7291
2820.41
87.555
2798.96
88.8121
2772.43
99.0683
2737.97
122.938
2693.27
163.282
2637.44
219.815
2571.34
288.846
2497.45
364.234
2419.17
438.99
2340.14
506.768
2263.6
562.802
2192.13
604.172
2127.53
629.634
2070.86
639.253
2022.57
634.021
1982.55
615.554
1950.29
585.861
1925
547.191
1905.66
501.895
1891.17
452.322
1880.45
400.718
1872.47
349.137
1866.34
299.376
1861.31
252.935
1856.78
211.002
1852.28
174.446
1847.43
143.828
1841.94
119.387
1835.61
101.041
1828.33
88.3864
1820.08
80.7196
1810.96
77.0969
1801.17
76.4249
1790.97
77.5711
1780.65
79.4742
1770.51
81.2342
1760.79
82.1696
1751.67
81.8395
1743.27
80.0343
1735.61
76.7437
1728.66
72.1132
1722.34
66.3959
1716.54
59.9061
1711.14
52.9776
1706.04
45.9285
1701.16
39.0325
1696.44
32.5024
1691.88
26.4938
1687.48
21.1298
1683.22
16.541
1679.1
12.8952
1675.05
10.4007
1670.99
9.27862
1666.82
9.71239
1662.4
11.796
1657.55
15.5029
1652.11
20.6734
1645.92
27.0408
1638.88
34.2329
1630.91
41.9072
1622
49.5511
1612.23
57.2444
1601.61
63.3877
72.641
2749.59
-1788.1
2868.79
-1204.03
2956.4
-760.204
3020.17
-423.661
3064.82
-185.174
3093.04
-30.3249
3108.26
61.2557
3114.31
113.724
3113.93
146.703
3108.85
172.159
3100.26
195.776
3089.16
219.144
3076.61
241.596
3063.73
261.493
3051.59
277.152
3041
287.438
3032.44
292.002
3025.94
291.192
3021.22
285.804
3017.72
276.795
3014.76
265.053
3011.66
251.273
3007.82
236.001
3002.75
219.797
2996.08
203.334
2987.6
187.351
2977.18
172.524
2964.85
159.36
2950.67
148.182
2934.76
139.15
2917.31
132.23
2898.62
127.09
2879.13
123.032
2859.36
119.155
2839.62
114.885
2819.58
110.768
2797.96
109.17
2772.43
114.343
2739.97
131.533
2697.71
165.192
2643.98
217.016
2578.95
284.843
2504.76
363.038
2424.92
444.075
2343.46
520.451
2264.13
586.098
2189.92
637.006
2122.91
671.183
2064.28
688.266
2014.47
689.064
1973.34
675.152
1940.31
648.583
1914.5
611.673
1894.83
566.852
1880.18
516.555
1869.38
463.118
1861.4
408.7
1855.31
355.221
1850.37
304.318
1845.97
257.335
1841.65
215.32
1837.07
179.034
1831.94
148.951
1826.09
125.239
1819.39
107.744
1811.8
95.9786
1803.37
89.1466
1794.26
86.2089
1784.69
85.9921
1774.95
87.3137
1765.32
89.1022
1756.07
90.4863
1747.39
90.8439
1739.42
89.8114
1732.2
87.2599
1725.69
83.2525
1719.81
77.9921
1714.43
71.769
1709.43
64.9137
1704.65
57.7558
1699.99
50.5901
1695.37
43.6541
1690.75
37.1216
1686.12
31.1175
1681.5
25.7504
1676.89
21.152
1672.28
17.503
1667.65
15.0331
1662.94
13.9917
1658.05
14.5959
1652.88
16.9744
1647.25
21.1264
1641.03
26.8998
1634.06
34.0111
1626.23
42.0538
1617.52
50.6259
1607.89
59.1806
1597.44
67.6866
1586.21
74.6243
84.461
2676.79
-1944.98
2793.94
-1321.18
2880.23
-846.488
2943.88
-487.311
2989.7
-230.998
3019.95
-60.5708
3037.59
43.6145
3046.43
104.877
3049.25
143.884
3047.84
173.575
3043.44
200.17
3037.14
225.445
3029.99
248.747
3023.02
268.467
3017.08
283.086
3012.73
291.79
3010.1
294.636
3008.93
292.361
3008.68
286.051
3008.64
276.83
3008.08
265.621
3006.31
253.039
3002.83
239.483
2997.29
225.337
2989.51
211.112
2979.45
197.41
2967.18
184.796
2952.83
173.707
2936.58
164.433
2918.63
157.107
2899.23
151.623
2878.81
147.516
2857.87
143.968
2836.88
140.144
2815.87
135.9
2793.99
132.648
2769.27
133.891
2738.75
144.864
2699.19
171.091
2648.15
216.225
2585
280.17
2511.28
358.563
2430.38
443.932
2346.64
527.821
2264.31
602.78
2186.91
663.495
2116.91
707.013
2055.7
732.392
2003.81
740.156
1961.08
731.789
1926.89
709.349
1900.27
675.206
1880.08
631.859
1865.12
581.813
1854.19
527.481
1846.2
471.109
1840.19
414.712
1835.37
360.04
1831.13
308.559
1827
261.46
1822.66
219.665
1817.85
183.842
1812.41
154.395
1806.21
131.433
1799.22
114.738
1791.45
103.747
1783.02
97.5777
1774.12
95.1081
1765.01
95.1028
1755.97
96.352
1747.28
97.7968
1739.15
98.6156
1731.73
98.2612
1725.09
96.4553
1719.19
93.1517
1713.96
88.482
1709.26
82.6979
1704.91
76.1156
1700.76
69.0687
1696.64
61.8685
1692.46
54.7751
1688.13
47.9826
1683.63
41.623
1678.96
35.7899
1674.13
30.5756
1669.17
26.1093
1664.1
22.5818
1658.89
20.243
1653.51
19.3709
1647.88
20.218
1641.91
22.948
1635.45
27.5856
1628.37
33.9854
1620.53
41.8462
1611.86
50.7259
1602.32
60.1635
1591.92
69.5775
1580.78
78.8291
1568.92
86.4855
96.7666
2603.15
-2098.09
2717.73
-1435.76
2802.88
-931.639
2867.11
-551.535
2915.2
-279.089
2948.81
-94.1804
2970.04
22.3781
2982.38
92.5408
2988.7
137.568
2990.95
171.323
2990.55
200.572
2988.68
227.313
2986.43
250.993
2984.75
270.154
2984.26
283.569
2985.23
290.826
2987.46
292.401
2990.45
289.369
2993.48
283.029
2995.73
274.575
2996.47
264.878
2995.11
254.404
2991.25
243.345
2984.71
231.877
2975.48
220.335
2963.7
209.192
2949.56
198.935
2933.3
189.969
2915.15
182.581
2895.39
176.874
2874.36
172.644
2852.59
169.29
2830.61
165.946
2808.73
162.025
2786.55
158.081
2762.55
156.648
2734
162.441
2697.44
181.423
2649.74
218.791
2589.33
276.64
2516.97
352.53
2435.71
439.824
2350.02
529.616
2264.68
613.167
2183.78
683.678
2110.29
736.983
2045.95
771.354
1991.44
786.904
1946.64
784.956
1910.88
767.546
1883.15
737.085
1862.22
696.132
1846.82
647.257
1835.69
592.939
1827.68
535.494
1821.77
477.018
1817.13
419.351
1813.11
364.06
1809.23
312.441
1805.15
265.54
1800.64
224.174
1795.55
188.933
1789.78
160.164
1783.29
137.924
1776.09
121.936
1768.28
111.567
1760
105.855
1751.49
103.613
1743.04
103.561
1734.9
104.486
1727.33
105.366
1720.5
105.448
1714.49
104.271
1709.3
101.648
1704.83
97.6154
1700.95
92.3654
1697.46
86.188
1694.16
79.4124
1690.87
72.361
1687.42
65.3139
1683.71
58.4861
1679.67
52.0227
1675.29
46.0113
1670.56
40.5131
1665.54
35.6024
1660.24
31.4055
1654.7
28.1224
1648.92
26.0241
1642.87
25.4188
1636.49
26.5947
1629.69
29.7489
1622.35
34.9282
1614.35
41.9894
1605.58
50.6101
1596
60.3101
1585.59
70.5706
1574.39
80.776
1562.54
90.6854
1550.05
98.9684
109.521
2527.8
-2245.4
2638.48
-1546.45
2722.36
-1015.52
2787.58
-616.758
2838.39
-329.893
2875.88
-131.675
2901.44
-3.18161
2918.02
75.9629
2928.54
127.049
2935.08
164.786
2939.15
196.499
2942
224.464
2944.68
248.308
2948.01
266.831
2952.4
279.179
2957.84
285.384
2963.92
286.318
2969.96
283.336
2975.12
277.867
2978.6
271.097
2979.7
263.777
2977.93
256.168
2973.06
248.219
2965.07
239.873
2954.11
231.289
2940.47
222.837
2924.44
214.962
2906.33
208.078
2886.43
202.482
2865.07
198.23
2842.72
195.001
2819.93
192.073
2797.23
188.655
2774.61
184.638
2751.13
181.567
2724.47
183.305
2691.2
195.714
2647.6
225.024
2591.06
275.323
2521.31
346.394
2440.73
433.108
2353.77
526.789
2265.63
617.757
2181.08
697.709
2103.73
761.031
2035.76
804.956
1978.11
829.008
1930.75
834.257
1893.03
822.68
1863.86
796.718
1841.95
758.99
1825.96
712.128
1814.54
658.672
1806.48
601.002
1800.69
541.279
1796.29
481.418
1792.58
423.067
1789.03
367.611
1785.28
316.186
1781.11
269.712
1776.37
228.915
1770.98
194.322
1764.91
166.231
1758.18
144.652
1750.87
129.251
1743.11
119.326
1735.12
113.848
1727.15
111.578
1719.49
111.218
1712.41
111.574
1706.09
111.683
1700.66
110.876
1696.14
108.793
1692.45
105.338
1689.44
100.625
1686.91
94.8984
1684.62
88.4754
1682.35
81.6837
1679.89
74.8206
1677.08
68.1224
1673.81
61.7511
1670.04
55.7975
1665.75
50.3029
1660.97
45.2948
1655.74
40.8297
1650.11
37.0312
1644.13
34.111
1637.79
32.3636
1631.08
32.1293
1623.94
33.731
1616.29
37.3959
1608.03
43.1856
1599.07
50.9522
1589.34
60.3459
1578.8
70.8454
1567.5
81.8752
1555.48
92.789
1542.92
103.249
1529.84
112.052
122.678
2446.14
-2381.63
2551.37
-1651.68
2633.52
-1097.66
2700.01
-683.247
2754.56
-384.448
2797.44
-174.558
2828.82
-34.5599
2850.83
53.953
2866.45
111.435
2877.94
153.289
2886.99
187.456
2894.86
216.591
2902.54
240.626
2910.66
258.714
2919.41
270.432
2928.55
276.239
2937.52
277.349
2945.54
275.312
2951.81
271.605
2955.56
267.344
2956.22
263.114
2953.45
258.941
2947.16
254.511
2937.5
249.533
2924.78
244.009
2909.38
238.236
2891.67
232.666
2872
227.753
2850.68
223.801
2828.11
220.797
2804.83
218.285
2781.42
215.482
2758.23
211.84
2734.87
208.004
2709.65
206.788
2679.47
213.479
2640.37
234.816
2588.79
276.607
2523.14
340.976
2444.74
424.789
2357.63
520.222
2267.29
617.122
2179.22
705.83
2097.77
779.159
2025.75
833.056
1964.46
866.238
1914.08
879.388
1873.97
874.366
1843.02
853.63
1819.88
819.863
1803.1
775.768
1791.28
723.949
1783.11
666.84
1777.45
606.662
1773.34
545.392
1770.01
484.748
1766.89
426.185
1763.59
370.912
1759.85
319.927
1755.52
274.042
1750.53
233.905
1744.86
199.993
1738.53
172.557
1731.63
151.56
1724.27
136.608
1716.66
126.936
1709.05
121.46
1701.72
118.906
1694.96
117.982
1688.99
117.539
1683.98
116.692
1679.98
114.874
1676.95
111.826
1674.74
107.547
1673.15
102.22
1671.91
96.1355
1670.76
89.6213
1669.46
82.9909
1667.77
76.5036
1665.55
70.3421
1662.7
64.6079
1659.16
59.3337
1654.95
54.5121
1650.11
50.137
1644.69
46.2479
1638.75
42.9684
1632.34
40.5252
1625.46
39.24
1618.11
39.4868
1610.22
41.6214
1601.72
45.8941
1592.53
52.3728
1582.59
60.8943
1571.86
71.0739
1560.36
82.3457
1548.16
94.0796
1535.34
105.604
1522.1
116.492
1508.46
125.692
136.179
2361
-2518.24
2465.02
-1755.69
2544.29
-1176.94
2608.13
-747.091
2661.82
-438.138
2706.6
-219.338
2742.42
-70.3779
2770.19
26.1836
2792.02
89.6091
2809.85
135.457
2825.19
172.111
2839.18
202.604
2852.59
227.213
2865.84
245.469
2878.92
257.346
2891.5
263.662
2902.97
265.881
2912.61
265.677
2919.69
264.522
2923.6
263.436
2923.88
262.828
2920.33
262.49
2913
261.843
2902.16
260.371
2888.23
257.94
2871.66
254.812
2852.84
251.48
2832.15
248.447
2809.94
246.011
2786.68
244.058
2762.96
242.01
2739.3
239.142
2715.74
235.394
2691.27
232.47
2663.41
234.654
2628.35
248.541
2581.97
281.189
2521.47
337.111
2446.76
415.68
2360.97
510.585
2269.48
611.711
2178.35
708.25
2092.8
791.376
2016.43
855.535
1951.08
898.403
1897.21
920.107
1854.29
922.307
1821.21
907.455
1796.53
878.304
1778.75
837.642
1766.38
788.145
1758.02
732.307
1752.45
672.404
1748.65
610.466
1745.77
548.269
1743.19
487.329
1740.46
428.921
1737.27
374.097
1733.47
323.731
1728.96
278.547
1723.74
239.132
1717.82
205.912
1711.28
179.095
1704.25
158.591
1696.91
143.946
1689.51
134.335
1682.34
128.631
1675.7
125.549
1669.85
123.824
1665.02
122.377
1661.29
120.42
1658.67
117.494
1657.05
113.448
1656.22
108.371
1655.93
102.508
1655.89
96.1827
1655.78
89.7244
1655.36
83.4196
1654.38
77.4792
1652.7
72.0241
1650.22
67.0898
1646.9
62.6473
1642.78
58.6393
1637.89
55.0261
1632.3
51.8321
1626.09
49.1846
1619.28
47.3302
1611.9
46.6213
1603.92
47.4664
1595.29
50.2502
1585.95
55.2375
1575.83
62.4899
1564.91
71.8173
1553.19
82.7917
1540.74
94.7994
1527.66
107.159
1514.08
119.182
1500.21
130.362
1486.07
139.828
149.951
2290.75
-2652.29
2392.11
-1857.05
2468.99
-1253.82
2531.08
-809.182
2583.78
-490.837
2628.62
-264.172
2665.74
-107.504
2695.93
-3.99785
2720.99
64.54
2742.75
113.697
2762.52
152.346
2781.16
183.96
2799.16
209.213
2816.63
228.005
2833.34
240.639
2848.81
248.185
2862.43
252.261
2873.52
254.588
2881.44
256.599
2885.68
259.202
2885.87
262.632
2881.92
266.443
2873.97
269.793
2862.4
271.944
2847.69
272.644
2830.35
272.153
2810.81
271.023
2789.46
269.8
2766.73
268.739
2743.18
267.611
2719.39
265.795
2695.7
262.835
2671.61
259.479
2645.3
258.787
2613.41
266.546
2571.71
290.237
2516.53
336.372
2446.42
407.215
2363.25
498.858
2271.81
602.022
2178.41
705.114
2089.04
797.617
2008.19
872.224
1938.43
925.292
1880.65
956.19
1834.49
966.262
1798.89
957.912
1772.37
933.969
1753.35
897.326
1740.24
850.752
1731.57
796.813
1726.04
737.839
1722.53
675.909
1720.15
612.85
1718.19
550.233
1716.13
489.384
1713.64
431.411
1710.51
377.231
1706.62
327.616
1701.95
283.215
1696.52
244.563
1690.4
212.039
1683.69
185.801
1676.58
165.701
1669.3
151.223
1662.15
141.489
1655.44
135.343
1649.47
131.512
1644.51
128.782
1640.73
126.163
1638.18
122.974
1636.8
118.874
1636.43
113.817
1636.82
107.975
1637.68
101.65
1638.68
95.1875
1639.49
88.9091
1639.84
83.0666
1639.51
77.8153
1638.32
73.2088
1636.2
69.2124
1633.11
65.7327
1629.09
62.6614
1624.19
59.9254
1618.49
57.5369
1612.04
55.631
1604.89
54.4788
1597.05
54.4666
1588.48
56.0365
1579.13
59.5954
1568.96
65.4111
1557.92
73.5249
1546.04
83.7062
1533.35
95.4758
1519.98
108.171
1506.08
121.064
1491.8
133.46
1477.37
144.784
1462.83
154.375
163.913
2218.27
-2781.71
2316.04
-1954.82
2390.94
-1328.72
2452.59
-870.832
2506
-544.244
2552.57
-310.738
2592.45
-147.386
2626.05
-37.5943
2654.68
35.9024
2680.09
88.2884
2703.56
128.881
2725.86
161.662
2747.3
187.766
2767.84
207.473
2787.1
221.371
2804.58
230.712
2819.63
237.205
2831.64
242.577
2840.04
248.201
2844.38
254.87
2844.36
262.642
2839.97
270.834
2831.44
278.328
2819.22
284.168
2803.85
288.007
2785.88
290.126
2765.76
291.14
2743.95
291.612
2720.97
291.716
2697.45
291.134
2673.9
289.349
2650.25
286.481
2625.27
284.457
2596.15
287.908
2558.78
303.923
2508.9
340.114
2443.91
401.357
2364.33
486.799
2274.06
589.132
2179.27
696.808
2086.56
797.828
2001.3
882.877
1926.9
946.624
1864.81
987.377
1815.01
1006
1776.5
1004.77
1747.81
986.598
1727.28
954.505
1713.23
911.379
1704.1
859.881
1698.5
802.407
1695.25
741.089
1693.37
677.795
1692.07
614.145
1690.79
551.514
1689.12
491.055
1686.8
433.728
1683.7
380.338
1679.74
331.57
1674.94
288.016
1669.35
250.159
1663.05
218.332
1656.22
192.636
1649.06
172.857
1641.87
158.417
1634.96
148.393
1628.69
141.62
1623.34
136.855
1619.17
132.959
1616.29
129.041
1614.72
124.539
1614.37
119.227
1615.03
113.159
1616.42
106.585
1618.22
99.8529
1620.08
93.326
1621.67
87.3136
1622.71
82.0285
1622.96
77.5679
1622.25
73.9158
1620.5
70.9648
1617.68
68.5555
1613.81
66.5268
1608.96
64.773
1603.2
63.2963
1596.59
62.2437
1589.16
61.9147
1580.89
62.7306
1571.76
65.1635
1561.73
69.6333
1550.74
76.396
1538.81
85.4568
1525.98
96.5319
1512.38
109.084
1498.14
122.402
1483.49
135.723
1468.59
148.354
1453.71
159.668
1438.85
169.238
177.976
2142.93
-2903.71
2235.49
-2047.38
2308.24
-1401.48
2370.1
-932.698
2425.16
-599.301
2474.28
-359.86
2517.55
-190.649
2555.2
-75.2438
2588.09
3.01318
2617.61
58.7635
2644.94
101.548
2670.74
135.863
2695.21
163.303
2718.19
184.492
2739.31
200.245
2758.08
211.945
2773.93
221.356
2786.31
230.198
2794.73
239.78
2798.81
250.784
2798.35
263.102
2793.38
275.808
2784.2
287.508
2771.33
297.035
2755.37
303.966
2736.87
308.625
2716.33
311.682
2694.27
313.672
2671.32
314.672
2648.11
314.337
2624.98
312.485
2601.28
310.178
2574.85
310.883
2541.89
320.875
2497.75
348.056
2438.74
399.129
2363.91
476.187
2276.02
574.687
2180.86
684.292
2085.42
792.253
1995.94
887.303