/*--------------------------------*- C++ -*----------------------------------*\
| =========                 |                                                 |
| \\      /  F ield         | OpenFOAM: The Open Source CFD Toolbox           |
|  \\    /   O peration     | Version:  4.1                                   |
|   \\  /    A nd           | Web:      www.OpenFOAM.org                      |
|    \\/     M anipulation  |                                                 |
\*---------------------------------------------------------------------------*/
FoamFile
{
    version     2.0;
    format      ascii;
    class       volVectorField;
    location    "300";
    object      U;
}
// * * * * * * * * * * * * * * * * * * * * * * * * * * * * * * * * * * * * * //

dimensions      [0 1 -1 0 0 0 0];

internalField   nonuniform List<vector> 
26785
(
(-7.19612e-15 -0.0180812 25.5362)
(-6.43292e-15 0.00877453 25.4791)
(-5.78362e-15 0.0257926 24.9913)
(-4.13816e-15 0.0357588 24.2669)
(-3.76281e-15 0.040403 23.4424)
(-2.22368e-15 0.0416815 22.6012)
(-1.58435e-15 0.0411457 21.7892)
(-9.78139e-16 0.0397847 21.025)
(-1.37545e-15 0.0382129 20.3128)
(-5.91283e-16 0.0367885 19.6496)
(-3.84984e-16 0.0356924 19.0285)
(-2.27846e-16 0.0349942 18.441)
(-1.45931e-16 0.0346946 17.8786)
(-7.44436e-17 0.0347491 17.3342)
(-2.42775e-17 0.0350813 16.8021)
(-2.04929e-17 0.0355937 16.2783)
(-7.86298e-17 0.0361778 15.7604)
(-1.73221e-16 0.0367235 15.2479)
(-3.85922e-16 0.0371291 14.7417)
(-1.96883e-16 0.03731 14.2441)
(-3.85903e-16 0.0372038 13.7578)
(-6.08227e-16 0.0367721 13.2863)
(-6.78122e-16 0.0360021 12.8329)
(-1.14058e-15 0.0349063 12.4007)
(-9.30192e-16 0.0335211 11.9923)
(-1.25795e-15 0.0319019 11.6097)
(-1.46169e-15 0.0301159 11.2539)
(-1.67859e-15 0.0282347 10.9253)
(-1.7642e-15 0.026328 10.6233)
(-2.1879e-15 0.0244587 10.3469)
(-2.02119e-15 0.0226801 10.0944)
(-2.38657e-15 0.0210347 9.86384)
(-2.50786e-15 0.0195534 9.65306)
(-2.83234e-15 0.0182558 9.45967)
(-2.96119e-15 0.0171494 9.28135)
(-3.44527e-15 0.0162296 9.11588)
(-3.61259e-15 0.0154807 8.96131)
(-3.84259e-15 0.0148809 8.81596)
(-4.03727e-15 0.01441 8.67841)
(-4.22546e-15 0.0140617 8.54727)
(-4.41926e-15 0.0138724 8.42085)
(-4.43907e-15 0.0139342 8.29671)
(-4.60218e-15 0.0143597 8.1715)
(-4.53999e-15 0.015235 8.04123)
(-4.83869e-15 0.0165943 7.90177)
(-4.80662e-15 0.0184149 7.74935)
(-5.00384e-15 0.0206212 7.58104)
(-4.9678e-15 0.0230951 7.39498)
(-4.92734e-15 0.0256899 7.19062)
(-4.89823e-15 0.0282447 6.96866)
(-4.80215e-15 0.0305994 6.73104)
(-4.45462e-15 0.0326088 6.48071)
(-4.31812e-15 0.0341536 6.22144)
(-4.14507e-15 0.0351487 5.9575)
(-3.99535e-15 0.0355458 5.6934)
(-3.8093e-15 0.0353334 5.43358)
(-3.78231e-15 0.0345331 5.18221)
(-3.85511e-15 0.0331952 4.94297)
(-3.65846e-15 0.0313925 4.71891)
(-3.53457e-15 0.0292148 4.51235)
(-3.55208e-15 0.0267626 4.32485)
(-3.42239e-15 0.0241418 4.15718)
(-3.31171e-15 0.0214573 4.00938)
(-3.32451e-15 0.0188082 3.88081)
(-3.34106e-15 0.0162834 3.77026)
(-3.10159e-15 0.0139586 3.67607)
(-2.96903e-15 0.0118944 3.59626)
(-2.87489e-15 0.010134 3.52864)
(-2.79917e-15 0.00870129 3.47096)
(-2.67022e-15 0.00760079 3.421)
(-2.65743e-15 0.00681839 3.3767)
(-2.68465e-15 0.00632348 3.33618)
(-2.47777e-15 0.00607123 3.29789)
(-2.34395e-15 0.00600559 3.26064)
(-2.25911e-15 0.00606363 3.22361)
(-2.05023e-15 0.00618102 3.18638)
(-1.81348e-15 0.00629805 3.14886)
(-1.7241e-15 0.00636514 3.11126)
(-1.62299e-15 0.00634737 3.07401)
(-1.53049e-15 0.00622691 3.03762)
(-1.41902e-15 0.00600376 3.00261)
(-1.36011e-15 0.00569394 2.96944)
(-1.27194e-15 0.00532625 2.93845)
(-1.19336e-15 0.00493909 2.90977)
(-1.24454e-15 0.00457134 2.88337)
(-1.29535e-15 0.00425058 2.85903)
(-1.27557e-15 0.00399079 2.83643)
(-1.23916e-15 0.00379542 2.81523)
(-1.22451e-15 0.00366062 2.7951)
(-1.26009e-15 0.00357907 2.77572)
(-1.23638e-15 0.00354295 2.75684)
(-1.23015e-15 0.00354615 2.73823)
(-1.22336e-15 0.00358312 2.71974)
(-1.23004e-15 0.0036506 2.70108)
(-1.22294e-15 0.00373883 2.68237)
(-1.33155e-15 0.00385885 2.66283)
(-1.38977e-15 0.00395316 2.64403)
(-1.43828e-15 0.00417153 2.62165)
(-1.48769e-15 0.00402938 2.60685)
(-1.58389e-15 0.00468616 2.57295)
(-1.06537e-14 -0.0242476 26.2384)
(-9.06857e-15 0.0449712 26.1607)
(-8.07e-15 0.0899797 25.6599)
(-6.80532e-15 0.117218 24.9185)
(-6.58703e-15 0.130085 24.0645)
(-4.35453e-15 0.133272 23.1872)
(-4.34968e-15 0.131115 22.3377)
(-3.9232e-15 0.126537 21.5365)
(-2.68503e-15 0.121363 20.7882)
(-2.28436e-15 0.11664 20.0896)
(-1.83598e-15 0.112889 19.4339)
(-1.48622e-15 0.110308 18.8128)
(-1.18433e-15 0.108903 18.2185)
(-1.04328e-15 0.108553 17.6443)
(-4.14411e-16 0.109043 17.0851)
(-1.45233e-16 0.110092 16.5375)
(-4.22414e-16 0.111378 15.9996)
(-4.87518e-16 0.112573 15.4712)
(-5.61314e-16 0.113376 14.9532)
(-1.05898e-15 0.11354 14.4477)
(-8.8156e-16 0.112892 13.9573)
(-1.61572e-15 0.111335 13.4849)
(-1.28031e-15 0.108843 13.0332)
(-1.50682e-15 0.105464 12.6046)
(-1.74143e-15 0.101309 12.2009)
(-1.63628e-15 0.096537 11.8235)
(-1.89331e-15 0.0913357 11.4727)
(-2.01362e-15 0.0858989 11.1485)
(-2.20895e-15 0.0804113 10.8498)
(-2.47048e-15 0.0750372 10.5755)
(-2.83111e-15 0.0699149 10.3236)
(-3.13276e-15 0.0651547 10.0924)
(-3.29568e-15 0.0608385 9.87946)
(-3.45336e-15 0.0570175 9.6827)
(-3.59364e-15 0.0537064 9.49994)
(-3.92254e-15 0.0508795 9.32925)
(-4.10013e-15 0.0484797 9.16906)
(-4.30191e-15 0.0464504 9.01814)
(-4.44579e-15 0.0447874 8.8755)
(-4.53893e-15 0.0435885 8.73983)
(-4.66124e-15 0.0430925 8.60883)
(-4.82029e-15 0.0436288 8.47884)
(-4.62659e-15 0.0454927 8.34527)
(-4.97939e-15 0.0488481 8.20322)
(-4.73062e-15 0.053683 8.04812)
(-4.70759e-15 0.0598093 7.87636)
(-4.62915e-15 0.066898 7.68579)
(-4.71503e-15 0.0745267 7.47587)
(-4.76796e-15 0.0822277 7.24758)
(-4.75171e-15 0.0895284 7.00317)
(-4.40805e-15 0.0959869 6.74593)
(-4.53498e-15 0.101224 6.47984)
(-4.21661e-15 0.104945 6.20928)
(-4.35369e-15 0.106958 5.93884)
(-4.38383e-15 0.107179 5.67299)
(-3.97746e-15 0.105623 5.41592)
(-3.93195e-15 0.102398 5.17137)
(-4.009e-15 0.0976882 4.94244)
(-3.79558e-15 0.0917381 4.73153)
(-3.55049e-15 0.0848334 4.54023)
(-3.46331e-15 0.077285 4.36933)
(-3.4015e-15 0.0694104 4.21879)
(-3.44727e-15 0.0615163 4.08784)
(-3.1973e-15 0.0538828 3.97507)
(-2.94035e-15 0.04675 3.87858)
(-2.92434e-15 0.0403085 3.79616)
(-2.87765e-15 0.0346948 3.72546)
(-2.71845e-15 0.0299916 3.66411)
(-2.64568e-15 0.0262308 3.6099)
(-2.8424e-15 0.0233976 3.56083)
(-2.62565e-15 0.0214324 3.51516)
(-2.51217e-15 0.0202338 3.4715)
(-2.52621e-15 0.0196632 3.42884)
(-2.42816e-15 0.0195557 3.3865)
(-2.18669e-15 0.019733 3.34418)
(-2.03984e-15 0.0200207 3.30186)
(-2.04813e-15 0.0202637 3.25978)
(-1.87443e-15 0.02034 3.21831)
(-1.75594e-15 0.0201706 3.17791)
(-1.73161e-15 0.0197228 3.13904)
(-1.59947e-15 0.0190093 3.10208)
(-1.46866e-15 0.0180795 3.06729)
(-1.43768e-15 0.0170085 3.03479)
(-1.31483e-15 0.0158885 3.00455)
(-1.11822e-15 0.014815 2.97644)
(-1.05678e-15 0.013864 2.95022)
(-1.13601e-15 0.0130776 2.92556)
(-1.13784e-15 0.0124688 2.90215)
(-1.01736e-15 0.0120302 2.87966)
(-9.2219e-16 0.0117449 2.85781)
(-8.86511e-16 0.0115951 2.83638)
(-8.88225e-16 0.0115676 2.81514)
(-8.53776e-16 0.0116498 2.79393)
(-1.01385e-15 0.011836 2.7725)
(-1.12714e-15 0.0121021 2.75092)
(-1.15311e-15 0.0124758 2.72842)
(-1.26059e-15 0.0128005 2.70663)
(-1.33114e-15 0.0134469 2.68099)
(-1.37307e-15 0.013177 2.66357)
(-1.48346e-15 0.014962 2.62485)
(-1.2061e-14 -0.0405874 26.4211)
(-1.23197e-14 0.0717096 26.3943)
(-1.09517e-14 0.147701 25.9402)
(-1.05284e-14 0.195439 25.2322)
(-9.89247e-15 0.219126 24.3912)
(-7.67257e-15 0.225811 23.5114)
(-7.3647e-15 0.222946 22.6492)
(-6.30748e-15 0.21574 21.8288)
(-5.39694e-15 0.207417 21.0568)
(-4.64673e-15 0.199777 20.3311)
(-4.02126e-15 0.193675 19.646)
(-3.47018e-15 0.189399 18.9944)
(-2.99839e-15 0.186927 18.3695)
(-2.58357e-15 0.18604 17.7662)
(-2.37764e-15 0.18638 17.1806)
(-1.58378e-15 0.187495 16.6104)
(-1.72574e-15 0.188882 16.0546)
(-1.23413e-15 0.190037 15.5135)
(-1.74483e-15 0.19051 14.9883)
(-1.40996e-15 0.189946 14.4809)
(-1.48066e-15 0.188109 13.9932)
(-2.05033e-15 0.184875 13.5274)
(-2.3971e-15 0.180232 13.0852)
(-2.43896e-15 0.174274 12.6681)
(-2.85429e-15 0.167184 12.2773)
(-2.62034e-15 0.159218 11.913)
(-2.56311e-15 0.15067 11.5753)
(-2.84618e-15 0.141843 11.2632)
(-2.97246e-15 0.133021 10.9756)
(-3.16329e-15 0.124453 10.7107)
(-3.36138e-15 0.116346 10.4664)
(-3.74549e-15 0.108863 10.2406)
(-3.41705e-15 0.102118 10.0309)
(-3.60836e-15 0.0961744 9.83516)
(-4.06801e-15 0.0910278 9.65128)
(-4.3072e-15 0.0866011 9.47761)
(-4.51415e-15 0.0827644 9.31297)
(-4.69426e-15 0.0794085 9.15663)
(-4.8401e-15 0.0765717 9.00799)
(-4.94946e-15 0.0745645 8.86589)
(-5.03304e-15 0.0739622 8.72768)
(-5.09813e-15 0.0754125 8.58908)
(-5.14797e-15 0.0794059 8.44485)
(-5.17256e-15 0.0861314 8.2894)
(-5.16487e-15 0.0954091 8.1177)
(-5.11525e-15 0.106717 7.92625)
(-5.03182e-15 0.119299 7.71362)
(-4.91039e-15 0.132297 7.48053)
(-4.77746e-15 0.144863 7.2296)
(-4.60197e-15 0.156227 6.96479)
(-4.43577e-15 0.165738 6.69088)
(-4.26434e-15 0.172889 6.41299)
(-4.10416e-15 0.177325 6.13622)
(-4.01332e-15 0.178853 5.86538)
(-3.88681e-15 0.177435 5.60483)
(-3.81981e-15 0.173182 5.35832)
(-3.88819e-15 0.166337 5.12892)
(-3.71839e-15 0.157254 4.91887)
(-3.51284e-15 0.146378 4.7296)
(-3.48534e-15 0.134217 4.56162)
(-3.31533e-15 0.121313 4.4146)
(-3.23785e-15 0.108209 4.28739)
(-3.08935e-15 0.0954153 4.17819)
(-2.93615e-15 0.08338 4.08471)
(-2.87375e-15 0.0724597 4.00438)
(-2.99573e-15 0.0629069 3.93457)
(-2.72727e-15 0.054868 3.87272)
(-2.38769e-15 0.0483919 3.81656)
(-2.28303e-15 0.043443 3.76411)
(-2.15784e-15 0.0399138 3.7138)
(-2.0403e-15 0.0376351 3.66448)
(-1.95251e-15 0.0363869 3.61542)
(-1.79796e-15 0.0359136 3.56629)
(-1.41179e-15 0.035943 3.51708)
(-1.18623e-15 0.0362077 3.46802)
(-1.12111e-15 0.0364665 3.41953)
(-9.89014e-16 0.0365233 3.37209)
(-8.57043e-16 0.0362415 3.32623)
(-7.26264e-16 0.0355513 3.28236)
(-5.90162e-16 0.0344504 3.24084)
(-4.61732e-16 0.0329976 3.20185)
(-2.83221e-16 0.0312947 3.16544)
(-2.7355e-16 0.0294678 3.13151)
(-2.58236e-16 0.0276451 3.09985)
(-1.3183e-16 0.0259504 3.07018)
(-2.86545e-17 0.0244854 3.04219)
(6.64384e-17 0.0233037 3.01553)
(1.35146e-16 0.0224157 2.98986)
(2.20534e-16 0.0218019 2.96487)
(1.66601e-16 0.0214308 2.9403)
(1.19109e-16 0.0212724 2.91592)
(1.50595e-16 0.0213062 2.89151)
(6.30591e-17 0.0215154 2.86691)
(1.73993e-17 0.0218934 2.84186)
(-2.30151e-17 0.0224034 2.81646)
(-6.23152e-17 0.023071 2.78996)
(-2.02892e-16 0.0236745 2.76415)
(-3.07266e-16 0.0246777 2.7342)
(-3.81134e-16 0.0245017 2.71339)
(-5.54593e-16 0.0269761 2.66856)
(-1.26645e-14 -0.0650054 26.2286)
(-1.25688e-14 0.0916932 26.2839)
(-1.22734e-14 0.200169 25.9107)
(-1.26231e-14 0.270518 25.2731)
(-1.15981e-14 0.307147 24.4813)
(-1.17009e-14 0.31892 23.6296)
(-1.10384e-14 0.31644 22.7801)
(-8.94432e-15 0.307377 21.9613)
(-7.65001e-15 0.296458 21.1825)
(-6.59355e-15 0.28628 20.4437)
(-5.71331e-15 0.278037 19.7408)
(-4.93158e-15 0.272105 19.0679)
(-4.16192e-15 0.268424 18.4202)
(-3.98365e-15 0.266672 17.7938)
(-3.56578e-15 0.266361 17.1866)
(-3.2743e-15 0.266889 16.5978)
(-2.98138e-15 0.267612 16.0277)
(-3.2483e-15 0.267905 15.4775)
(-2.78846e-15 0.267232 14.9488)
(-2.80154e-15 0.26519 14.4433)
(-2.75555e-15 0.261524 13.9625)
(-2.97553e-15 0.256118 13.5078)
(-3.23758e-15 0.24898 13.0801)
(-3.34936e-15 0.240242 12.6798)
(-3.44351e-15 0.23015 12.3072)
(-3.54507e-15 0.219041 11.9617)
(-3.65353e-15 0.207302 11.6424)
(-3.77674e-15 0.195332 11.3477)
(-3.91892e-15 0.183504 11.0757)
(-4.07785e-15 0.172141 10.8238)
(-4.36592e-15 0.161505 10.5897)
(-4.55138e-15 0.151792 10.3709)
(-4.61253e-15 0.143127 10.1648)
(-4.77118e-15 0.135556 9.96958)
(-4.71113e-15 0.129028 9.78334)
(-5.12281e-15 0.123387 9.60496)
(-4.84259e-15 0.11841 9.43391)
(-5.13624e-15 0.113938 9.27005)
(-5.31811e-15 0.110097 9.11304)
(-5.13001e-15 0.107479 8.9614)
(-5.36169e-15 0.107031 8.81179)
(-5.58329e-15 0.109729 8.65934)
(-5.30557e-15 0.116272 8.49836)
(-5.3022e-15 0.12686 8.32316)
(-5.37217e-15 0.141082 8.12914)
(-5.26415e-15 0.157979 7.91376)
(-5.19821e-15 0.176251 7.6769)
(-4.83833e-15 0.194505 7.42086)
(-4.56659e-15 0.211455 7.1498)
(-4.59848e-15 0.226039 6.86907)
(-4.39e-15 0.237452 6.58451)
(-4.34686e-15 0.245149 6.30188)
(-4.30215e-15 0.248822 6.02652)
(-3.57366e-15 0.248377 5.76311)
(-3.34632e-15 0.243918 5.51553)
(-3.32444e-15 0.23573 5.28678)
(-3.41178e-15 0.224253 5.07896)
(-3.47017e-15 0.210066 4.89317)
(-3.18094e-15 0.193853 4.72959)
(-3.04031e-15 0.176365 4.58744)
(-2.8346e-15 0.158379 4.46514)
(-2.68458e-15 0.140638 4.36046)
(-2.42312e-15 0.123807 4.27074)
(-2.37127e-15 0.108425 4.19312)
(-2.3298e-15 0.0948813 4.12475)
(-2.14094e-15 0.0834058 4.06303)
(-1.98723e-15 0.0740821 4.00563)
(-2.42645e-15 0.066866 3.95069)
(-2.33984e-15 0.0616079 3.89676)
(-2.14637e-15 0.058074 3.84287)
(-1.76448e-15 0.0559671 3.7885)
(-1.55937e-15 0.0549481 3.73354)
(-1.32824e-15 0.0546607 3.6782)
(-1.11043e-15 0.0547562 3.62291)
(-1.21853e-15 0.0549181 3.56826)
(-1.05789e-15 0.0548832 3.51486)
(-8.34098e-16 0.0544585 3.46329)
(-6.07632e-16 0.0535314 3.41403)
(-4.02034e-16 0.0520715 3.36741)
(-2.61875e-16 0.0501257 3.32361)
(-1.35213e-16 0.0478039 3.28264)
(-5.50878e-17 0.0452586 3.24439)
(2.2716e-17 0.0426582 3.20863)
(4.77164e-19 0.040155 3.17507)
(-3.18967e-17 0.0378838 3.14339)
(2.14058e-17 0.0359556 3.1133)
(1.47091e-16 0.0344305 3.08447)
(2.49153e-16 0.0333158 3.05662)
(3.12541e-16 0.0325829 3.02944)
(2.83686e-16 0.0321893 3.00264)
(3.67319e-16 0.0320975 2.97595)
(3.29007e-16 0.0322835 2.94908)
(2.04874e-16 0.0327258 2.92183)
(2.07279e-16 0.0334043 2.89388)
(2.11603e-16 0.034252 2.86536)
(3.2202e-16 0.0352666 2.83553)
(3.24445e-16 0.0361943 2.80637)
(4.48076e-16 0.0375046 2.77276)
(4.66058e-16 0.0375939 2.7491)
(3.59906e-16 0.0404212 2.69892)
(-1.25414e-14 -0.100316 25.7888)
(-1.30201e-14 0.0995598 25.9093)
(-1.30256e-14 0.239137 25.6224)
(-1.30724e-14 0.332638 25.0754)
(-1.22636e-14 0.384378 24.3584)
(-1.03817e-14 0.40374 23.5584)
(-1.01279e-14 0.403817 22.7419)
(-9.0958e-15 0.394685 21.9422)
(-8.10154e-15 0.382646 21.1719)
(-7.12661e-15 0.37116 20.4338)
(-6.08586e-15 0.36179 19.7258)
(-5.88879e-15 0.355003 19.044)
(-4.97793e-15 0.350682 18.385)
(-4.83742e-15 0.348389 17.7469)
(-4.40955e-15 0.347486 17.129)
(-3.68279e-15 0.347236 16.5318)
(-3.41195e-15 0.346885 15.9571)
(-3.22892e-15 0.345748 15.4066)
(-3.14009e-15 0.343273 14.8825)
(-3.10209e-15 0.339084 14.3863)
(-3.07254e-15 0.332969 13.9191)
(-3.43505e-15 0.324858 13.4815)
(-3.3964e-15 0.314807 13.0735)
(-3.51266e-15 0.303005 12.6946)
(-3.62565e-15 0.289772 12.3439)
(-3.81178e-15 0.275535 12.0199)
(-3.8081e-15 0.260781 11.7207)
(-3.95414e-15 0.246001 11.4436)
(-3.93428e-15 0.23164 11.186)
(-4.23928e-15 0.218068 10.945)
(-4.42751e-15 0.205564 10.7178)
(-4.55902e-15 0.194312 10.5019)
(-4.64681e-15 0.184403 10.2953)
(-5.04586e-15 0.17582 10.0963)
(-4.82807e-15 0.168421 9.90372)
(-5.0664e-15 0.161935 9.71725)
(-5.21522e-15 0.156045 9.5371)
(-5.32594e-15 0.150617 9.3636)
(-5.39063e-15 0.146003 9.19617)
(-5.43362e-15 0.143178 9.03249)
(-5.47047e-15 0.143483 8.86836)
(-5.44321e-15 0.148176 8.69821)
(-5.38432e-15 0.158045 8.51597)
(-5.6394e-15 0.173139 8.31629)
(-5.42971e-15 0.192661 8.09575)
(-5.28979e-15 0.215113 7.85352)
(-5.14701e-15 0.238613 7.59151)
(-4.99604e-15 0.261262 7.31386)
(-4.76878e-15 0.281408 7.02623)
(-4.70259e-15 0.297785 6.73497)
(-4.61938e-15 0.309538 6.44641)
(-4.54811e-15 0.316177 6.16637)
(-4.37813e-15 0.317527 5.89985)
(-4.07315e-15 0.313676 5.65086)
(-3.89753e-15 0.304939 5.42238)
(-3.72848e-15 0.291832 5.21627)
(-3.40981e-15 0.275046 5.03332)
(-3.25837e-15 0.255419 4.87328)
(-3.12472e-15 0.233888 4.73495)
(-3.19199e-15 0.211439 4.6163)
(-3.23049e-15 0.189037 4.51476)
(-3.30326e-15 0.167561 4.4274)
(-3.06034e-15 0.147741 4.3512)
(-3.06508e-15 0.130121 4.28328)
(-2.93912e-15 0.115045 4.22106)
(-2.89665e-15 0.102663 4.16233)
(-3.11057e-15 0.0929508 4.1053)
(-3.09656e-15 0.0857412 4.04866)
(-3.0864e-15 0.0807532 3.99153)
(-2.92493e-15 0.0776226 3.93349)
(-2.80025e-15 0.0759316 3.87449)
(-2.73799e-15 0.0752396 3.81481)
(-2.50242e-15 0.0751142 3.75496)
(-2.2963e-15 0.0751603 3.6956)
(-2.36225e-15 0.0750451 3.6374)
(-2.22544e-15 0.0745171 3.58101)
(-2.18414e-15 0.0734169 3.52695)
(-2.07418e-15 0.0716804 3.47558)
(-1.86251e-15 0.0693328 3.42709)
(-1.61854e-15 0.0664754 3.38152)
(-1.27249e-15 0.0632653 3.33879)
(-1.40084e-15 0.0598925 3.29868)
(-1.4228e-15 0.0565498 3.26096)
(-1.3076e-15 0.0534017 3.22534)
(-1.3702e-15 0.0505785 3.19154)
(-1.32167e-15 0.0481863 3.15931)
(-1.23872e-15 0.0462944 3.12843)
(-1.16625e-15 0.0449188 3.09864)
(-1.13292e-15 0.0440365 3.06968)
(-9.90304e-16 0.0436108 3.04121)
(-8.84339e-16 0.0436114 3.0129)
(-8.1042e-16 0.0440149 2.98437)
(-8.21593e-16 0.0447835 2.95532)
(-8.06784e-16 0.0458585 2.92542)
(-7.63729e-16 0.0471289 2.89484)
(-6.65426e-16 0.0485564 2.86283)
(-5.28433e-16 0.0498817 2.83145)
(-3.8323e-16 0.05152 2.79527)
(-4.89861e-16 0.0520129 2.76966)
(-3.05962e-16 0.0550488 2.71553)
(-1.23164e-14 -0.153037 25.0911)
(-1.32685e-14 0.0934258 25.2838)
(-1.31525e-14 0.265374 25.079)
(-1.35509e-14 0.383551 24.6209)
(-1.27622e-14 0.452505 23.9907)
(-1.16621e-14 0.481633 23.2616)
(-1.13009e-14 0.486067 22.4987)
(-1.10423e-14 0.478271 21.7376)
(-1.0057e-14 0.466188 20.9941)
(-8.62266e-15 0.454197 20.2741)
(-7.45109e-15 0.444275 19.5777)
(-7.02854e-15 0.437007 18.9032)
(-5.95469e-15 0.432245 18.2491)
(-5.25247e-15 0.429439 17.615)
(-4.68669e-15 0.427818 17.0018)
(-4.22482e-15 0.426522 16.4114)
(-3.93036e-15 0.424721 15.8463)
(-3.33152e-15 0.421709 15.3091)
(-3.1927e-15 0.416974 14.8017)
(-3.41981e-15 0.410208 14.3256)
(-3.72361e-15 0.401283 13.881)
(-3.67472e-15 0.390206 13.4676)
(-3.96751e-15 0.377105 13.0845)
(-4.27341e-15 0.362244 12.73)
(-3.91086e-15 0.346029 12.4022)
(-4.04484e-15 0.328984 12.0985)
(-4.09334e-15 0.311681 11.8161)
(-4.19714e-15 0.294674 11.5519)
(-4.30854e-15 0.278442 11.3028)
(-4.2178e-15 0.263349 11.0659)
(-4.51311e-15 0.249643 10.839)
(-4.20745e-15 0.237459 10.6199)
(-4.41175e-15 0.226824 10.4073)
(-4.46778e-15 0.217636 10.2)
(-4.74907e-15 0.209638 9.99794)
(-5.05509e-15 0.202438 9.80136)
(-5.21114e-15 0.195688 9.61108)
(-5.35048e-15 0.189404 9.42733)
(-5.44724e-15 0.184276 9.2488)
(-5.52351e-15 0.181697 9.07211)
(-5.5201e-15 0.18338 8.89199)
(-5.47921e-15 0.190804 8.70205)
(-5.65671e-15 0.204717 8.49612)
(-5.39704e-15 0.224832 8.26972)
(-5.55881e-15 0.249797 8.02122)
(-5.40799e-15 0.27747 7.75214)
(-5.26939e-15 0.305388 7.46672)
(-5.09138e-15 0.33122 7.17106)
(-4.87402e-15 0.353074 6.87204)
(-4.69759e-15 0.369618 6.57656)
(-4.48793e-15 0.380065 6.29086)
(-4.33805e-15 0.384087 6.02021)
(-4.21786e-15 0.381727 5.76874)
(-4.11267e-15 0.37332 5.53929)
(-4.0012e-15 0.359452 5.33353)
(-3.85926e-15 0.340913 5.15187)
(-3.73026e-15 0.31867 4.99368)
(-3.5646e-15 0.293818 4.85734)
(-3.56434e-15 0.267515 4.74048)
(-3.63563e-15 0.240914 4.64026)
(-3.61186e-15 0.21508 4.55359)
(-3.46924e-15 0.190923 4.47742)
(-3.26571e-15 0.169149 4.40893)
(-3.27627e-15 0.150239 4.34564)
(-3.25569e-15 0.134447 4.28546)
(-3.36397e-15 0.121816 4.22672)
(-3.23136e-15 0.112211 4.16817)
(-3.10671e-15 0.105348 4.10898)
(-3.11896e-15 0.10083 4.04871)
(-3.1722e-15 0.0981829 3.98728)
(-3.25401e-15 0.0968918 3.92496)
(-2.93945e-15 0.0964404 3.86224)
(-2.78108e-15 0.0963475 3.79977)
(-2.67152e-15 0.0961985 3.73824)
(-2.36096e-15 0.0956688 3.67833)
(-1.98431e-15 0.0945377 3.62059)
(-1.86666e-15 0.0926917 3.56542)
(-1.65369e-15 0.0901196 3.51306)
(-1.36249e-15 0.0868981 3.46359)
(-1.15451e-15 0.0831729 3.41694)
(-9.65605e-16 0.0791346 3.37296)
(-7.11994e-16 0.0749949 3.33143)
(-6.23538e-16 0.0709585 3.29212)
(-3.11309e-16 0.0671959 3.25478)
(-1.0551e-17 0.0638317 3.21921)
(-6.88127e-17 0.0609609 3.1852)
(-8.27673e-17 0.0586571 3.15259)
(1.17558e-17 0.0569565 3.1212)
(6.83712e-17 0.0558613 3.09078)
(9.32264e-17 0.0553627 3.06099)
(1.09812e-16 0.0554501 3.03142)
(8.58018e-17 0.0560931 3.00163)
(-6.63534e-17 0.0572183 2.9713)
(-1.71678e-16 0.0587194 2.94012)
(-1.85822e-16 0.0604502 2.90824)
(-1.77469e-16 0.0623375 2.87483)
(-2.18838e-16 0.0641246 2.84201)
(-2.94667e-16 0.0661373 2.80409)
(-2.54253e-16 0.0671184 2.7772)
(-1.01954e-16 0.0703541 2.72029)
(-1.23271e-14 -0.199297 24.5025)
(-1.24764e-14 0.0828616 24.7277)
(-1.32546e-14 0.282361 24.5676)
(-1.32313e-14 0.42279 24.1652)
(-1.29621e-14 0.50846 23.5938)
(-1.11832e-14 0.548353 22.9148)
(-1.01549e-14 0.558596 22.1925)
(-9.32139e-15 0.553597 21.4635)
(-7.87011e-15 0.542782 20.7454)
(-6.13584e-15 0.531408 20.0451)
(-6.04408e-15 0.521858 19.3644)
(-5.29125e-15 0.514834 18.703)
(-4.68042e-15 0.510149 18.0609)
(-4.04467e-15 0.507143 17.4389)
(-3.63145e-15 0.504921 16.8392)
(-2.9482e-15 0.502529 16.2649)
(-2.65556e-15 0.499107 15.7189)
(-2.84121e-15 0.493994 15.2038)
(-2.70664e-15 0.486774 14.7212)
(-3.15598e-15 0.477265 14.2714)
(-2.86944e-15 0.465463 13.8539)
(-2.9936e-15 0.451478 13.4671)
(-3.42629e-15 0.435524 13.1088)
(-3.55422e-15 0.417947 12.7766)
(-3.72145e-15 0.39923 12.4676)
(-3.81668e-15 0.379968 12.1786)
(-3.8113e-15 0.360781 11.9064)
(-3.86229e-15 0.342242 11.6481)
(-4.42152e-15 0.32481 11.4008)
(-4.10726e-15 0.308806 11.1622)
(-4.25095e-15 0.294418 10.9305)
(-4.28404e-15 0.281721 10.7045)
(-4.41121e-15 0.270671 10.4834)
(-4.54026e-15 0.261069 10.2666)
(-4.66539e-15 0.252532 10.0548)
(-4.91243e-15 0.24459 9.84882)
(-5.00475e-15 0.236967 9.64951)
(-5.18422e-15 0.229951 9.45654)
(-5.27126e-15 0.22466 9.26752)
(-5.3617e-15 0.222938 9.07774)
(-5.40292e-15 0.226836 8.8807)
(-5.50483e-15 0.237911 8.66942)
(-5.19882e-15 0.256647 8.43818)
(-5.4132e-15 0.282185 8.18413)
(-5.37914e-15 0.31245 7.90811)
(-5.30324e-15 0.344617 7.61437)
(-5.17596e-15 0.375718 7.30953)
(-5.05379e-15 0.403152 7.00129)
(-4.80745e-15 0.424968 6.69726)
(-4.23156e-15 0.439933 6.40426)
(-3.811e-15 0.44746 6.12787)
(-3.21401e-15 0.447477 5.87228)
(-3.06661e-15 0.44031 5.64022)
(-3.21769e-15 0.426592 5.43309)
(-3.26068e-15 0.407199 5.25098)
(-3.25513e-15 0.383203 5.09286)
(-3.24562e-15 0.355822 4.95678)
(-3.12571e-15 0.326349 4.8401)
(-2.97789e-15 0.296085 4.73977)
(-3.0417e-15 0.266249 4.65262)
(-2.96716e-15 0.237915 4.57562)
(-2.9053e-15 0.211951 4.506)
(-2.87124e-15 0.18899 4.4414)
(-2.68969e-15 0.169425 4.37985)
(-2.49835e-15 0.153417 4.31976)
(-2.28373e-15 0.140912 4.25993)
(-1.96238e-15 0.131675 4.19952)
(-2.11652e-15 0.125318 4.13805)
(-2.03953e-15 0.121342 4.07537)
(-1.82673e-15 0.119176 4.01167)
(-1.78234e-15 0.118226 3.94738)
(-1.48963e-15 0.11792 3.88309)
(-1.42214e-15 0.117749 3.81949)
(-1.14254e-15 0.117298 3.75727)
(-8.44745e-16 0.116268 3.697)
(-5.08697e-16 0.114481 3.63914)
(-6.57349e-17 0.111875 3.58395)
(3.70027e-16 0.10849 3.53157)
(6.38572e-16 0.104448 3.48195)
(7.3815e-16 0.099931 3.43496)
(1.03841e-15 0.0951507 3.39042)
(1.24729e-15 0.0903286 3.3481)
(1.27116e-15 0.0856706 3.30778)
(1.52032e-15 0.0813444 3.26928)
(1.71558e-15 0.077471 3.23243)
(1.78369e-15 0.0741354 3.19709)
(1.85694e-15 0.0714071 3.16315)
(1.87202e-15 0.0693462 3.13047)
(1.9991e-15 0.0680013 3.09881)
(2.04753e-15 0.067407 3.06782)
(1.98041e-15 0.0675688 3.03708)
(1.94499e-15 0.0684389 3.00617)
(1.80372e-15 0.0699084 2.97481)
(1.6812e-15 0.0718367 2.94265)
(1.52129e-15 0.0740508 2.90979)
(1.48718e-15 0.0764354 2.87535)
(1.40077e-15 0.0787345 2.84149)
(1.38153e-15 0.0811672 2.80229)
(1.21329e-15 0.082679 2.77448)
(1.10307e-15 0.0861497 2.71555)
(-1.28228e-14 -0.253743 23.9022)
(-1.29033e-14 0.065124 24.1507)
(-1.3873e-14 0.293689 24.0276)
(-1.44076e-14 0.457149 23.6745)
(-1.35531e-14 0.560001 23.1593)
(-1.25445e-14 0.611239 22.5298)
(-1.16704e-14 0.627767 21.8477)
(-1.01105e-14 0.625939 21.1512)
(-8.89958e-15 0.616695 20.4593)
(-7.7844e-15 0.606168 19.781)
(-6.7346e-15 0.597132 19.1192)
(-5.77864e-15 0.590386 18.4751)
(-4.92362e-15 0.585692 17.8499)
(-4.20602e-15 0.582281 17.2456)
(-3.55634e-15 0.57915 16.6657)
(-3.4466e-15 0.575297 16.1136)
(-3.06669e-15 0.569896 15.5924)
(-2.87884e-15 0.56239 15.1043)
(-2.7815e-15 0.552513 14.6499)
(-2.80181e-15 0.540238 14.2284)
(-2.86425e-15 0.52569 13.8379)
(-2.93786e-15 0.509079 13.4759)
(-3.05371e-15 0.490689 13.1393)
(-3.26831e-15 0.470915 12.8248)
(-3.55757e-15 0.450289 12.5291)
(-3.81053e-15 0.429435 12.2491)
(-3.60633e-15 0.408983 11.9817)
(-4.27643e-15 0.389484 11.7241)
(-4.43684e-15 0.371351 11.4743)
(-4.61156e-15 0.354843 11.2306)
(-4.70042e-15 0.340091 10.9918)
(-4.81873e-15 0.32711 10.7574)
(-4.93401e-15 0.315779 10.5269)
(-5.03173e-15 0.305789 10.3007)
(-5.13929e-15 0.296651 10.0798)
(-5.28389e-15 0.287893 9.86542)
(-5.22792e-15 0.279418 9.65813)
(-5.31874e-15 0.271899 9.45662)
(-5.40619e-15 0.266948 9.25703)
(-5.4729e-15 0.266863 9.05309)
(-5.34504e-15 0.273925 8.83719)
(-5.58207e-15 0.289555 8.60229)
(-5.73621e-15 0.313716 8.34402)
(-5.71745e-15 0.344759 8.06203)
(-5.4557e-15 0.37979 7.76019)
(-5.26529e-15 0.415344 7.44557)
(-5.06368e-15 0.448102 7.12676)
(-4.89954e-15 0.475395 6.81241)
(-4.52864e-15 0.495409 6.51013)
(-4.0861e-15 0.507173 6.22599)
(-3.61687e-15 0.510409 5.96431)
(-3.3982e-15 0.505377 5.72776)
(-3.06732e-15 0.492724 5.51746)
(-3.0038e-15 0.473389 5.33319)
(-2.95035e-15 0.448529 5.17359)
(-2.85667e-15 0.419454 5.03639)
(-2.94002e-15 0.387561 4.91871)
(-2.9084e-15 0.35426 4.81735)
(-2.71288e-15 0.320898 4.72906)
(-2.66032e-15 0.288684 4.65081)
(-2.52835e-15 0.258632 4.57987)
(-2.56466e-15 0.231533 4.51395)
(-2.60191e-15 0.207932 4.45116)
(-2.63742e-15 0.188135 4.39001)
(-2.65222e-15 0.172217 4.32932)
(-2.56644e-15 0.160042 4.26824)
(-2.45115e-15 0.151286 4.20624)
(-2.44908e-15 0.145469 4.14309)
(-2.38001e-15 0.142001 4.07887)
(-2.24113e-15 0.140233 4.01392)
(-2.05101e-15 0.139508 3.94877)
(-1.71037e-15 0.139219 3.88408)
(-1.50045e-15 0.138849 3.82053)
(-1.31352e-15 0.138001 3.75872)
(-1.01281e-15 0.136412 3.69913)
(-6.9899e-16 0.133951 3.6421)
(-4.71098e-16 0.130607 3.58776)
(-2.39482e-16 0.126466 3.53613)
(-5.33839e-17 0.121687 3.4871)
(9.95846e-17 0.116477 3.44046)
(1.16236e-16 0.111059 3.396)
(-6.98143e-17 0.105656 3.35349)
(-1.42791e-17 0.100465 3.31272)
(5.72269e-17 0.0956447 3.27355)
(-8.0787e-18 0.0913074 3.23587)
(3.18796e-18 0.0875348 3.19961)
(-2.69899e-17 0.0844008 3.16466)
(-2.40935e-17 0.081993 3.1309)
(-1.9071e-17 0.0804063 3.09809)
(1.3864e-16 0.0797122 3.06591)
(3.13701e-16 0.079924 3.03401)
(3.99539e-16 0.0809827 3.00203)
(4.6484e-16 0.0827638 2.96969)
(6.74918e-16 0.0851038 2.9366)
(9.24485e-16 0.0878032 2.90284)
(1.16265e-15 0.0907006 2.86747)
(1.36533e-15 0.0935362 2.8327)
(1.40772e-15 0.0964183 2.79243)
(1.46677e-15 0.0984716 2.76385)
(1.47807e-15 0.102215 2.70336)
(-1.28056e-14 -0.31098 23.2938)
(-1.32673e-14 0.0421378 23.5514)
(-1.34544e-14 0.297572 23.4576)
(-1.38255e-14 0.482658 23.1498)
(-1.32186e-14 0.602432 22.6881)
(-1.2775e-14 0.665772 22.1094)
(-1.28805e-14 0.689607 21.4695)
(-1.20849e-14 0.691853 20.8075)
(-1.09481e-14 0.684914 20.1446)
(-1.03569e-14 0.675814 19.4913)
(-9.41007e-15 0.667734 18.8523)
(-8.27326e-15 0.661579 18.2298)
(-7.11234e-15 0.657055 17.6263)
(-6.09636e-15 0.653285 17.0451)
(-5.24106e-15 0.649187 16.49)
(-4.57787e-15 0.643762 15.9649)
(-4.15921e-15 0.636281 15.4725)
(-3.54777e-15 0.626355 15.0139)
(-2.99606e-15 0.613908 14.5888)
(-3.25529e-15 0.599086 14.1951)
(-3.19015e-15 0.582143 13.8298)
(-3.23462e-15 0.563368 13.4893)
(-3.52837e-15 0.543088 13.1701)
(-2.76093e-15 0.521722 12.8684)
(-3.49944e-15 0.499813 12.5811)
(-3.73801e-15 0.477979 12.305)
(-4.10499e-15 0.456826 12.0376)
(-4.3577e-15 0.436854 11.7769)
(-4.51841e-15 0.418413 11.5214)
(-4.53831e-15 0.401703 11.2702)
(-4.37156e-15 0.386802 11.0227)
(-4.58859e-15 0.373666 10.7789)
(-4.41243e-15 0.362084 10.5388)
(-4.57012e-15 0.351633 10.3036)
(-4.91963e-15 0.341765 10.0745)
(-5.01646e-15 0.332097 9.85282)
(-4.94663e-15 0.322841 9.63835)
(-5.08929e-15 0.315169 9.42849)
(-5.24991e-15 0.311249 9.21764)
(-5.40481e-15 0.31377 8.99793)
(-5.50361e-15 0.325042 8.761)
(-5.49243e-15 0.346054 8.50057)
(-5.44513e-15 0.375956 8.21454)
(-5.50293e-15 0.412151 7.90584)
(-5.30156e-15 0.450934 7.58163)
(-5.09304e-15 0.488363 7.25144)
(-4.87639e-15 0.521002 6.92518)
(-4.6973e-15 0.546347 6.61159)
(-4.49363e-15 0.562907 6.3175)
(-4.21582e-15 0.570096 6.04759)
(-3.94704e-15 0.568024 5.80453)
(-3.69424e-15 0.557306 5.58927)
(-3.50451e-15 0.538912 5.40126)
(-3.34534e-15 0.514057 5.23882)
(-3.23289e-15 0.484122 5.09939)
(-3.09487e-15 0.450581 4.97988)
(-3.15729e-15 0.414926 4.87691)
(-3.21864e-15 0.378597 4.78714)
(-3.22584e-15 0.342914 4.70748)
(-3.424e-15 0.30902 4.63519)
(-3.59289e-15 0.277844 4.56803)
(-3.6678e-15 0.250085 4.50416)
(-3.65679e-15 0.226207 4.44213)
(-3.63354e-15 0.206441 4.38081)
(-3.68863e-15 0.190791 4.31937)
(-3.69117e-15 0.179048 4.25724)
(-3.5229e-15 0.17081 4.19409)
(-3.63351e-15 0.165513 4.12991)
(-3.64906e-15 0.162489 4.06494)
(-3.47609e-15 0.161019 3.99962)
(-3.20869e-15 0.160402 3.93457)
(-2.78148e-15 0.160013 3.87044)
(-2.46991e-15 0.159342 3.80786)
(-2.21825e-15 0.158023 3.74735)
(-2.18615e-15 0.155837 3.68928)
(-2.10063e-15 0.152705 3.63383)
(-1.73369e-15 0.148662 3.58105)
(-1.50745e-15 0.143836 3.53082)
(-1.32506e-15 0.138416 3.48296)
(-1.18681e-15 0.132622 3.43723)
(-1.26324e-15 0.126684 3.39336)
(-1.49664e-15 0.120816 3.35112)
(-1.60705e-15 0.1152 3.31034)
(-1.54911e-15 0.109976 3.27089)
(-1.59927e-15 0.105243 3.23272)
(-1.76901e-15 0.101087 3.19578)
(-1.83768e-15 0.0976 3.16)
(-1.81046e-15 0.0948984 3.12525)
(-1.75581e-15 0.0931058 3.09132)
(-1.66492e-15 0.092316 3.05798)
(-1.50278e-15 0.0925559 3.02494)
(-1.37993e-15 0.0937729 2.99188)
(-1.2751e-15 0.0958398 2.95851)
(-9.97243e-16 0.0985747 2.92442)
(-7.18695e-16 0.101752 2.88971)
(-3.7037e-16 0.105162 2.85338)
(2.96114e-17 0.108538 2.8177)
(2.7598e-16 0.111877 2.77643)
(5.94968e-16 0.114459 2.74713)
(9.2429e-16 0.118484 2.68532)
(-1.18059e-14 -0.369359 22.6444)
(-1.20694e-14 0.0148415 22.8831)
(-1.22401e-14 0.294307 22.8116)
(-1.23335e-14 0.499395 22.5536)
(-1.18412e-14 0.636008 22.1557)
(-1.13131e-14 0.712418 21.6404)
(-9.90781e-15 0.7449 21.0519)
(-9.16356e-15 0.752306 20.4312)