/*--------------------------------*- C++ -*----------------------------------*\
| =========                 |                                                 |
| \\      /  F ield         | OpenFOAM: The Open Source CFD Toolbox           |
|  \\    /   O peration     | Version:  4.1                                   |
|   \\  /    A nd           | Web:      www.OpenFOAM.org                      |
|    \\/     M anipulation  |                                                 |
\*---------------------------------------------------------------------------*/
FoamFile
{
    version     2.0;
    format      ascii;
    class       volScalarField;
    location    "1000";
    object      p;
}
// * * * * * * * * * * * * * * * * * * * * * * * * * * * * * * * * * * * * * //

dimensions      [0 2 -2 0 0 0 0];

internalField   nonuniform List<scalar> 
26785
(
-55.1413
-61.5304
-66.9898
-72.1724
-77.5786
-83.2712
-89.353
-95.8127
-102.562
-109.53
-116.675
-123.97
-131.335
-138.563
-145.24
-150.833
-154.668
-155.218
-151.155
-141.7
-126.705
-108.392
-89.3153
-70.9785
-54.0282
-38.6547
-24.831
-12.4404
-1.33704
8.6264
17.586
25.6612
32.9523
39.5392
45.4812
50.8174
55.5694
59.7453
63.3465
66.3744
68.8368
70.7489
72.1332
73.0084
73.398
73.3157
72.7658
71.7106
70.0567
67.6664
64.3709
59.9797
54.2893
47.1
38.2458
27.6401
15.3298
1.53972
-13.3142
-28.6583
-43.8266
-58.1098
-70.742
-80.8674
-87.6299
-90.3452
-88.7443
-83.0516
-73.9163
-62.3972
-49.7
-36.9144
-24.9104
-14.328
-5.54287
1.37546
6.63231
10.5868
13.5996
15.9356
17.7492
19.1001
20.0034
20.4759
20.54
20.1902
19.3845
18.0918
16.3556
14.3142
12.1175
9.86836
7.68354
5.70431
3.98099
2.48239
1.17331
0.243079
-0.166725
-0.154807
-55.1885
-61.5429
-67.0029
-72.1857
-77.5918
-83.285
-89.3689
-95.831
-102.582
-109.552
-116.699
-123.995
-131.363
-138.595
-145.282
-150.886
-154.745
-155.327
-151.295
-141.869
-126.859
-108.511
-89.4033
-71.0452
-54.0813
-38.6988
-24.8691
-12.4739
-1.36686
8.59966
17.562
25.6399
32.9336
39.5234
45.4687
50.8088
55.5652
59.7461
63.3525
66.3856
68.8526
70.7686
72.1561
73.0332
73.4241
73.3427
72.7951
71.7439
70.0941
67.7068
64.4119
60.0177
54.3202
47.1189
38.2471
27.6171
15.2753
1.44745
-13.447
-28.8305
-44.036
-58.3584
-71.0351
-81.2073
-88.0108
-90.7489
-89.1486
-83.4335
-74.2487
-62.6638
-49.8939
-37.0327
-24.9526
-14.3016
-5.46766
1.47305
6.72983
10.6733
13.6763
16.0064
17.8157
19.1604
20.0531
20.5117
20.5605
20.1919
19.3604
18.0346
16.2635
14.1979
11.9954
9.75474
7.58717
5.6309
3.92784
2.43017
1.10177
0.141221
-0.272009
-0.147216
-55.2471
-61.5642
-67.0304
-72.2136
-77.6193
-83.3131
-89.401
-95.8675
-102.622
-109.595
-116.744
-124.043
-131.416
-138.658
-145.36
-150.989
-154.894
-155.55
-151.593
-142.233
-127.192
-108.769
-89.5943
-71.1898
-54.1957
-38.7934
-24.9498
-12.5444
-1.42926
8.54401
17.5123
25.5957
32.8949
39.4906
45.4427
50.7907
55.5562
59.7472
63.3641
66.4074
68.8838
70.8077
72.2017
73.0828
73.4763
73.3966
72.8537
71.8101
70.1684
67.7868
64.4929
60.0933
54.3831
47.1604
38.2552
27.5763
15.1691
1.26345
-13.7133
-29.1754
-44.4545
-58.8547
-71.6208
-81.8874
-88.7747
-91.5612
-89.9637
-84.2026
-74.9173
-63.1989
-50.2831
-37.2704
-25.0368
-14.2471
-5.31433
1.67046
6.92468
10.8425
13.8216
16.1372
17.9354
19.2668
20.1412
20.5795
20.6088
20.215
19.344
17.9629
16.1323
14.032
11.8366
9.63386
7.51821
5.61463
3.94546
2.43412
1.04216
-0.00400536
-0.462298
-0.174212
-55.3299
-61.6142
-67.0855
-72.2642
-77.6668
-83.3598
-89.4522
-95.9237
-102.683
-109.658
-116.808
-124.111
-131.489
-138.741
-145.464
-151.121
-155.087
-155.851
-152.009
-142.754
-127.681
-109.156
-89.8865
-71.4141
-54.3742
-38.9408
-25.075
-12.653
-1.52471
8.45943
17.4371
25.5291
32.8369
39.4416
45.4039
50.7636
55.5426
59.7484
63.3809
66.4393
68.9295
70.865
72.2685
73.1555
73.5528
73.4755
72.9395
71.9068
70.2767
67.9032
64.6107
60.2042
54.4772
47.2235
38.2671
27.5124
15.0051
0.981612
-14.1184
-29.6965
-45.0819
-59.5934
-72.4878
-82.8902
-89.8976
-92.7535
-91.162
-85.3358
-75.9027
-63.9861
-50.8542
-37.6174
-25.1563
-14.1599
-5.08084
1.96659
7.21205
11.0873
14.0291
16.3267
18.1147
19.4341
20.2893
20.7058
20.7151
20.2936
19.3734
17.9127
15.9874
13.8224
11.618
9.45022
7.39966
5.57996
3.98276
2.4811
1.02063
-0.138086
-0.648553
-0.265164
-55.4414
-61.6855
-67.1647
-72.3341
-77.7309
-83.4213
-89.5181
-95.9951
-102.759
-109.737
-116.888
-124.194
-131.577
-138.841
-145.587
-151.277
-155.311
-156.21
-152.516
-143.403
-128.304
-109.658
-90.2732
-71.715
-54.6155
-39.1405
-25.2446
-12.7995
-1.65299
8.34618
17.3368
25.4405
32.7596
39.3764
45.352
50.7272
55.5238
59.7491
63.4019
66.4799
68.9878
70.9385
72.3543
73.2491
73.6512
73.5769
73.0495
72.031
70.4156
68.0523
64.7623
60.3483
54.5999
47.3037
38.2764
27.4187
14.7778
0.600044
-14.6581
-30.3816
-45.8989
-60.5507
-73.6105
-84.1909
-91.3577
-94.3048
-92.7181
-86.8012
-77.171
-64.9939
-51.5822
-38.0576
-25.3029
-14.0387
-4.77152
2.35146
7.57705
11.3902
14.28
16.5547
18.3308
19.6359
20.4685
20.8624
20.8543
20.4092
19.4356
17.8784
15.8395
13.5998
11.3842
9.24769
7.26076
5.53814
4.03869
2.56549
1.03558
-0.262434
-0.793023
-0.465561
-55.6342
-61.7808
-67.2673
-72.4224
-77.8105
-83.4965
-89.5979
-96.0809
-102.851
-109.831
-116.983
-124.29
-131.678
-138.952
-145.723
-151.447
-155.553
-156.606
-153.089
-144.149
-129.031
-110.255
-90.7409
-72.0843
-54.9147
-39.3894
-25.4562
-12.9824
-1.81287
8.20522
17.212
25.3303
32.6636
39.295
45.2871
50.6811
55.4992
59.7482
63.4256
66.5274
69.0567
71.0255
72.4561
73.3605
73.7682
73.6971
73.1802
72.1787
70.5806
68.2297
64.9437
60.5214
54.745
47.3929
38.2756
27.291
14.4889
0.125695
-15.3237
-31.2238
-46.9023
-61.7288
-74.9976
-85.8046
-93.1768
-96.2427
-94.663
-88.6295
-78.7461
-66.2366
-52.4743
-38.5944
-25.4788
-13.8868
-4.39398
2.81141
8.00033
11.7294
14.5545
16.8058
18.5746
19.8681
20.6796
21.0533
21.0326
20.564
19.5183
17.8406
15.6685
13.3449
11.1206
9.01472
7.08872
5.47359
4.09068
2.64784
1.01871
-0.465252
-0.966391
-0.755693
-55.9
-61.8934
-67.3887
-72.5253
-77.9034
-83.5837
-89.6901
-96.1796
-102.955
-109.938
-117.089
-124.396
-131.787
-139.072
-145.868
-151.627
-155.806
-157.026
-153.709
-144.968
-129.839
-110.928
-91.276
-72.5127
-55.2653
-39.683
-25.7066
-13.1991
-2.00258
8.0379
17.0639
25.1994
32.5491
39.1978
45.209
50.6249
55.468
59.7444
63.4504
66.5796
69.1335
71.123
72.571
73.4865
73.9003
73.8326
73.328
72.3459
70.7674
68.4314
65.1508
60.7174
54.9045
47.4839
38.2616
27.1313
14.1419
-0.440873
-16.1192
-32.2287
-48.0946
-63.1252
-76.6419
-87.7221
-95.3476
-98.5664
-97.0102
-90.8491
-80.6624
-67.7489
-53.5622
-39.2538
-25.7027
-13.7164
-3.95873
3.33228
8.46238
12.0825
14.8314
17.0595
18.8256
20.1093
20.9003
21.2573
21.2322
20.7297
19.5911
17.784
15.4686
13.0604
10.838
8.76387
6.89432
5.40075
4.16375
2.76214
0.990409
-0.745199
-1.26156
-1.04508
-56.1795
-62.024
-67.5302
-72.6427
-78.0089
-83.6823
-89.7939
-96.2903
-103.072
-110.057
-117.206
-124.513
-131.905
-139.199
-146.019
-151.812
-156.063
-157.457
-154.363
-145.838
-130.705
-111.657
-91.8645
-72.9901
-55.6601
-40.016
-25.9922
-13.4471
-2.22006
7.84571
16.8933
25.0483
32.4167
39.0847
45.1174
50.5581
55.4292
59.7366
63.4746
66.6344
69.2156
71.2281
72.6954
73.6236
74.0436
73.9796
73.489
72.5285
70.9719
68.653
65.378
60.9283
55.0706
47.5727
38.2344
26.941
13.7371
-1.09946
-17.0401
-33.3818
-49.4489
-64.7017
-78.4958
-89.8886
-97.8116
-101.218
-99.7095
-93.4281
-82.9121
-69.5452
-54.8768
-40.073
-26.0059
-13.5477
-3.47878
3.90066
8.94535
12.4297
15.0932
17.303
19.0753
20.3533
21.1244
21.4729
21.4436
20.8852
19.649
17.7163
15.2558
12.7742
10.57
8.52436
6.69615
5.32684
4.25823
2.91448
0.974808
-1.05635
-1.67638
-1.28549
-56.4745
-62.1775
-67.6897
-72.7718
-78.1254
-83.7911
-89.9082
-96.4121
-103.2
-110.187
-117.333
-124.637
-132.027
-139.328
-146.173
-152
-156.321
-157.891
-155.039
-146.74
-131.609
-112.426
-92.493
-73.5064
-56.0916
-40.3829
-26.3086
-13.7231
-2.46303
7.6303
16.7016
24.8779
32.2667
38.956
45.0124
50.48
55.3821
59.7235
63.4965
66.6897
69.3004
71.3377
72.8261
73.7685
74.1944
74.1343
73.6596
72.7224
71.1898
68.8898
65.6179
61.1462
55.2382
47.6581
38.1954
26.7232
13.2813
-1.83676
-18.0645
-34.6515
-50.9244
-66.41
-80.503
-92.2393
-100.494
-104.105
-102.655
-96.2627
-85.418
-71.5877
-56.4211
-41.0825
-26.4244
-13.4063
-2.96868
4.50447
9.43356
12.754
15.3264
17.5264
19.3147
20.5879
21.3415
21.6908
21.6426
21.0259
19.7128
17.6718
15.0759
12.5338
10.3571
8.32805
6.51755
5.26207
4.36573
3.08462
0.96326
-1.39817
-2.19881
-1.5321
-56.7804
-62.3443
-67.8639
-72.9118
-78.2527
-83.9096
-90.0328
-96.5443
-103.339
-110.327
-117.469
-124.768
-132.154
-139.46
-146.327
-152.187
-156.577
-158.323
-155.724
-147.657
-132.533
-113.219
-93.1491
-74.0522
-56.5525
-40.778
-26.6516
-14.0239
-2.7291
7.39344
16.49
24.689
32.0997
38.8118
44.8936
50.3904
55.3258
59.7038
63.5146
66.7434
69.3853
71.4487
72.9597
73.9177
74.3492
74.2932
73.836
72.9238
71.4167
69.1356
65.8628
61.3645
55.4044
47.74
38.147
26.4839
12.785
-2.63842
-19.1762
-36.0196
-52.5014
-68.23
-82.6438
-94.7544
-103.373
-107.186
-105.766
-99.2378
-88.059
-73.7817
-58.1518
-42.2889
-26.9885
-13.3185
-2.44271
5.13343
9.91304
13.0407
15.5202
17.7246
19.5392
20.8087
21.5552
21.8989
21.8276
21.1798
19.8186
17.6911
14.9707
12.3594
10.1971
8.1684
6.35934
5.21007
4.49514
3.29583
0.973436
-1.82958
-2.90156
-1.842
-57.1377
-62.5269
-68.0514
-73.0613
-78.3896
-84.0371
-90.1669
-96.6865
-103.489
-110.476
-117.613
-124.904
-132.283
-139.592
-146.48
-152.37
-156.828
-158.749
-156.407
-148.572
-133.459
-114.02
-93.8217
-74.6188
-57.0358
-41.1958
-27.0168
-14.3462
-3.01572
7.13701
16.2598
24.4826
31.9163
38.6524
44.7611
50.2889
55.2596
59.6765
63.5273
66.7934
69.4678
71.558
73.0929
74.0679
74.5043
74.4528
74.0147
73.1284
71.6478
69.3835
66.1049
61.5779
55.5658
47.8164
38.0888
26.2242
12.2489
-3.50727
-20.3834
-37.4974
-54.1927
-70.1776
-84.9398
-97.4651
-106.49
-110.503
-109.068
-102.329
-90.7504
-76.013
-59.9814
-43.6625
-27.7116
-13.3058
-1.91214
5.7803
10.3715
13.2764
15.6668
17.8973
19.7437
21.0215
21.7593
22.0879
22.0236
21.3724
19.9801
17.7931
14.9681
12.2649
10.0964
8.04655
6.21032
5.15175
4.65282
3.56642
1.03846
-2.13693
-3.52376
-2.15225
-57.5107
-62.7193
-68.2507
-73.2197
-78.5358
-84.1734
-90.3103
-96.8382
-103.647
-110.634
-117.764
-125.046
-132.413
-139.722
-146.631
-152.549
-157.072
-159.164
-157.081
-149.475
-134.373
-114.819
-94.5011
-75.1983
-57.5353
-41.6312
-27.4002
-14.6866
-3.32028
6.86302
16.0126
24.2598
31.7172
38.4783
44.615
50.1751
55.1829
59.6405
63.5332
66.8381
69.5457
71.6629
73.2223
74.2159
74.6559
74.6093
74.1919
73.3318
71.877
69.6248
66.3358
61.7789
55.7149
47.8792
38.0124
25.9347
11.6602
-4.46334
-21.7126
-39.111
-56.0193
-72.2705
-87.4091
-100.398
-109.887
-114.119
-112.649
-105.621
-93.5058
-78.2123
-61.8112
-45.1393
-28.5817
-13.3779
-1.38147
6.4428
10.7986
13.4483
15.7615
18.0457
19.9302
21.2396
21.9446
22.2814
22.25
21.5978
20.1954
17.9968
15.0743
12.286
10.1108
8.00281
6.11769
5.11988
4.70894
3.62516
1.06147
-2.02825
-3.4652
-2.34725
-57.8728
-62.9286
-68.4619
-73.3859
-78.6907
-84.3181
-90.4627
-96.9991
-103.815
-110.8
-117.921
-125.191
-132.544
-139.849
-146.776
-152.72
-157.308
-159.568
-157.741
-150.356
-135.264
-115.605
-95.1788
-75.784
-58.0454
-42.0795
-27.7976
-15.0419
-3.64013
6.57357
15.75
24.0218
31.5034
38.2901
44.4556
50.0492
55.0953
59.5952
63.5311
66.8756
69.6166
71.7605
73.3448
74.3584
74.7999
74.759
74.3633
73.5286
72.0961
69.8486
66.544
61.955
55.8383
47.9159
37.9065
25.6029
11.0008
-5.5307
-23.1885
-40.8749
-57.9818
-74.4983
-90.034
-103.535
-113.554
-118.039
-116.558
-109.202
-96.3965
-80.375
-63.5704
-46.6398
-29.5601
-13.5279
-0.844607
7.1257
11.1859
13.545
15.7988
18.1687
20.1275
21.463
22.1334
22.5029
22.4993
21.857
20.483
18.2706
15.2306
12.4128
10.2091
8.04758
6.14795
5.11638
4.66717
3.5723
1.13928
-1.58218
-2.873
-2.14271
-58.2192
-63.1507
-68.6822
-73.5594
-78.8543
-84.4712
-90.6241
-97.1688
-103.992
-110.974
-118.084
-125.34
-132.674
-139.973
-146.916
-152.882
-157.534
-159.958
-158.384
-151.21
-136.121
-116.368
-95.8475
-76.3701
-58.5612
-42.5364
-28.2055
-15.409
-3.97266
6.27085
15.4738
23.7702
31.276
38.0885
44.2834
49.9111
54.9965
59.5398
63.52
66.9045
69.6785
71.8481
73.4569
74.4917
74.9316
74.8978
74.5238
73.7114
72.2925
70.0395
66.7131
62.0908
55.9244
47.9189
37.7639
25.2179
10.2568
-6.72394
-24.8201
-42.7836
-60.0591
-76.8266
-92.7675
-106.82
-117.428
-122.195
-120.752
-113.086
-99.4785
-82.531
-65.2294
-48.0939
-30.5895
-13.73
-0.282242
7.84185
11.5274
13.5569
15.7689
18.2654
20.3652
21.6917
22.3622
22.764
22.7701
22.1588
20.7669
18.4685
15.3909
12.5575
10.3087
8.14449
6.3051
5.23983
4.62117
3.43486
1.2268
-1.02848
-2.15161
-1.95906
-58.5491
-63.3828
-68.9111
-73.7403
-79.0263
-84.6325
-90.794
-97.347
-104.177
-111.156
-118.254
-125.493
-132.805
-140.093
-147.05
-153.034
-157.749
-160.333
-159.009
-152.031
-136.935
-117.1
-96.501
-76.9515
-59.0785
-42.9983
-28.6207
-15.7849
-4.31535
5.95702
15.1858
23.5064
31.0362
37.8747
44.0992
49.7614
54.8866
59.474
63.499
66.9234
69.7295
71.9229
73.5551
74.6119
75.0454
75.0204
74.6665
73.8675
72.4483
70.1799
66.83
62.1806
55.9724
47.886
37.5788
24.7728
9.42175
-8.04903
-26.6089
-44.8242
-62.2201
-79.2042
-95.5348
-110.158
-121.396
-126.452
-125.104
-117.197
-102.758
-84.7114
-66.7895
-49.4561
-31.6091
-13.9442
0.337829
8.61165
11.8181
13.4738
15.6694
18.3508
20.6249
21.9554
22.6368
23.0272
23.023
22.3705
20.893
18.5258
15.5177
12.7536
10.4371
8.25583
6.45515
5.34868
4.57715
3.30925
1.3222
-0.491068
-1.44914
-1.71619
-58.9115
-63.6303
-69.147
-73.9279
-79.2062
-84.8019
-90.9723
-97.5336
-104.37
-111.345
-118.43
-125.651
-132.935
-140.209
-147.178
-153.174
-157.95
-160.693
-159.614
-152.815
-137.698
-117.794
-97.1338
-77.524
-59.5936
-43.462
-29.0401
-16.167
-4.66578
5.63424
14.888
23.2322
30.7856
37.6497
43.9037
49.6004
54.7656
59.3973
63.4673
66.9311
69.7677
71.9822
73.6359
74.7143
75.1337
75.1199
74.7787
73.9773
72.5461
70.262
66.8974
62.2297
55.9824
47.8129
37.3466
24.2638
8.49103
-9.51342
-28.5569
-46.9766
-64.4147
-81.5484
-98.22
-113.401
-125.277
-130.596
-129.391
-121.366
-106.175
-86.9275
-68.2668
-50.7079
-32.5677
-14.1242
1.0562
9.45858
12.0502
13.274
15.4956
18.4485
20.9069
22.2769
22.9095
23.1523
23.1198
22.4146
20.8669
18.462
15.5421
12.8528
10.5259
8.36738
6.6034
5.43958
4.53445
3.22559
1.45046
0.0164335
-0.806252
-1.46036
-59.2535
-63.8904
-69.3898
-74.122
-79.3936
-84.979
-91.159
-97.7286
-104.572
-111.543
-118.614
-125.813
-133.066
-140.321
-147.298
-153.301
-158.138
-161.035
-160.196
-153.556
-138.404
-118.445
-97.741
-78.0837
-60.1034
-43.9246
-29.4613
-16.553
-5.02168
5.30464
14.5824
22.9492
30.5257
37.4149
43.6978
49.4287
54.6336
59.3095
63.4242
66.9263
69.7912
72.0232
73.6953
74.792
75.1877
75.1832
74.8401
74.0272
72.5871
70.2961
66.9239
62.2389
55.9505
47.6946
37.0623
23.686
7.45749
-11.1257
-30.6586
-49.1989
-66.5601
-83.7449
-100.691
-116.413
-128.912
-134.418
-133.362
-125.337
-109.591
-89.1548
-69.6796
-51.8527
-33.4331
-14.2287
1.91387
10.4031
12.2109
12.9302
15.2458
18.588
21.2763
22.6051
23.0452
23.2021
23.0503
22.2583
20.6299
18.2489
15.4622
12.8597
10.5481
8.43586
6.71188
5.49826
4.49107
3.17827
1.59742
0.47344
-0.236418
-1.21027
-59.5774
-64.1687
-69.638
-74.3214
-79.5876
-85.1638
-91.3542
-97.9322
-104.782
-111.748
-118.805
-125.98
-133.197
-140.428
-147.411
-153.414
-158.31
-161.36
-160.753
-154.252
-139.046
-119.047
-98.3184
-78.6269
-60.6049
-44.3836
-29.8818
-16.9404
-5.3809
4.97024
14.2707
22.6593
30.2579
37.1715
43.4828
49.2471
54.4911
59.2106
63.3693
66.908
69.7984
72.0434
73.7292
74.8361
75.2132
75.2011
74.8553
74.0368
72.5891
70.2902
66.9079
62.2023
55.8714
47.5268
36.7214
23.0333
6.31444
-12.8885
-32.8909
-51.4192
-68.5497
-85.6875
-102.877
-119.164
-132.294
-137.873
-136.891
-128.891
-112.82
-91.331
-71.0397
-52.9078
-34.1939
-14.2309
2.94094
11.4511
12.2727
12.4806
14.988
18.8298
21.649
22.8066
23.1012
23.0914
22.7501
21.8429
20.1946
17.8839
15.2533
12.7582
10.4932
8.44219
6.76044
5.51511
4.44601
3.15525
1.73172
0.849888
0.277561
-0.970602
-59.8825
-64.4594
-69.8894
-74.5255
-79.7878
-85.3566
-91.5582
-98.1449
-105.001
-111.963
-119.003
-126.152
-133.329
-140.531
-147.516
-153.511
-158.464
-161.666
-161.283
-154.899
-139.622
-119.598
-98.8625
-79.1507
-61.0955
-44.8367
-30.2995
-17.3273
-5.74144
4.63302
13.955
22.3643
29.984
36.9211
43.2598
49.0565
54.3383
59.1004
63.3018
66.8751
69.7876
72.04
73.7361
74.8376
75.2148
75.1858
74.8446
74.0231
72.5638
70.2482
66.8463
62.114
55.7383
47.3045
36.3199
22.3014
5.05813
-14.795
-35.2072
-53.5408
-70.2852
-87.3327
-104.804
-121.733
-135.532
-141.076
-140.045
-131.97
-115.709
-93.3714
-72.3494
-53.8981
-34.859
-14.1231
4.15151
12.5704
12.0981
11.8506
14.6572
19.0254
21.8631
22.7888
22.942
22.6987
22.2225
21.2549
19.6242
17.4137
14.9388
12.5563
10.3586
8.37594
6.73847
5.48217
4.38697
3.13195
1.82723
1.14676
0.782955
-0.738118
-60.1815
-64.7596
-70.1421
-74.7334
-79.9938
-85.5577
-91.7714
-98.3666
-105.23
-112.186
-119.211
-126.331
-133.462
-140.631
-147.613
-153.592
-158.598
-161.95
-161.782
-155.495
-140.128
-120.094
-99.3703
-79.652
-61.5725
-45.2816
-30.7124
-17.7118
-6.10142
4.29484
13.6371
22.0659
29.7057
36.665
43.0299
48.8576
54.1758
58.9791
63.2214
66.8268
69.7573
72.012
73.7083
74.7912
75.1929
75.1435
74.8142
73.9877
72.5121
70.1743
66.7459
61.9763
55.5455
47.0197
35.8533
21.4887
3.68957
-16.826
-37.5376
-55.4605
-71.7132
-88.7132
-106.55
-124.194
-138.67
-144.075
-142.906
-134.625
-118.172
-95.1924
-73.6014
-54.8507
-35.4518
-13.9283
5.52475
13.6927
11.9262
11.0474
14.1777
18.9988
21.6376
22.3984
22.4213
22.0839
21.5516
20.5647
18.9791
16.8797
14.547
12.2714
10.1491
8.23838
6.65111
5.40514
4.31323
3.10957
1.91342
1.41093
1.26834
-0.488893
-60.5214
-65.066
-70.3931
-74.9444
-80.2061
-85.7678
-91.994
-98.5975
-105.467
-112.418
-119.427
-126.516
-133.597
-140.726
-147.701
-153.654
-158.709
-162.21
-162.246
-156.034
-140.562
-120.533
-99.8394
-80.1286
-62.0338
-45.7164
-31.1187
-18.0922
-6.45905
3.95748
13.3186
21.7658
29.4244
36.4048
42.7944
48.6513
54.0041
58.8465
63.1276
66.762
69.7068
71.9601
73.6473
74.7131
75.1492
75.0849
74.7623
73.9275
72.4311
70.0675
66.6094
61.7979
55.2998
46.6669
35.3131
20.594
2.21706
-18.9474
-39.7953
-57.0975
-72.8423
-89.8997
-108.162
-126.507
-141.538
-146.69
-145.387
-136.839
-120.152
-96.7231
-74.7844
-55.7905
-36.0132
-13.6698
7.02434
14.8218
11.6129
9.87012
13.5502
18.4913
20.783
21.6075
21.6462
21.3306
20.7854
19.8072
18.2767
16.2804
14.0706
11.8935
9.85159
8.01979
6.4936
5.27771
4.21363
3.08296
2.00456
1.62384
1.5807
-0.231649
-60.863
-65.3724
-70.6408
-75.1593
-80.4253
-85.9877
-92.2262
-98.8372
-105.712
-112.658
-119.652
-126.708
-133.736
-140.819
-147.78
-153.696
-158.796
-162.445
-162.671
-156.515
-140.922
-120.914
-100.268
-80.578
-62.4772
-46.1391
-31.5166
-18.4666
-6.81269
3.62262
13.0014
21.4657
29.1418
36.1418
42.5544
48.4386
53.8237
58.7029
63.0199
66.6801
69.6359
71.8865
73.5656
74.6373
75.0936
75.0133
74.6867
73.8397
72.3192
69.9267
66.4357
61.58
55.0109
46.2554
34.6945
19.6137
0.656038
-21.109
-41.8927
-58.4138
-73.7341
-90.9493
-109.619
-128.525
-143.85
-148.684
-147.279
-138.493
-121.584
-97.9094
-75.8786
-56.7359
-36.5549
-13.3928
8.35893
15.3797
11.2891
8.78455
12.4158
17.0913
19.5125
20.5709
20.7276
20.4678
19.9187
18.945
17.4522
15.5352
13.4277
11.347
9.40041
7.66945
6.23027
5.07499
4.07007
3.03942
2.08791
1.74513
1.63787
0.0114012
-61.2029
-65.6752
-70.884
-75.3791
-80.6526
-86.2181
-92.4679
-99.0851
-105.964
-112.905
-119.885
-126.906
-133.877
-140.909
-147.85
-153.716
-158.856
-162.655
-163.052
-156.935
-141.21
-121.237
-100.655
-80.9985
-62.9008
-46.5479
-31.9045
-18.8337
-7.16082
3.2918
12.687
21.1671
28.8594
35.8775
42.3113
48.2205
53.6351
58.5483
62.8976
66.581
69.5471
71.798
73.4778
74.5658
75.0259
74.9285
74.5877
73.7233
72.1757
69.7507
66.2234
61.3206
54.6797
45.7988
34.0109
18.5486
-0.974954
-23.2484
-43.7473
-59.4101
-74.4689
-91.8844
-110.858
-130.105
-145.52
-150.015
-148.496
-139.503
-122.403
-98.7241
-76.8894
-57.6728
-37.0704
-13.1483
9.51412
15.6474
10.9736
7.70398
10.8467
15.2861
18.0795
19.3623
19.6512
19.4171
18.835
17.834
16.3552
14.508
12.509
10.5509
8.73966
7.15237
5.84259
4.78962
3.87978
2.97328
2.14984
1.78772
1.54841
0.238953
-61.5279
-65.9667
-71.1238
-75.6056
-80.8892
-86.4594
-92.7189
-99.3408
-106.223
-113.16
-120.126
-127.11
-134.021
-140.997
-147.911
-153.714
-158.886
-162.838
-163.386
-157.29
-141.424
-121.503
-100.999
-81.3886
-63.3029
-46.9414
-32.281
-19.1919
-7.50202
2.96646
12.3768
20.8715
28.5786
35.6132
42.0662
47.998
53.4392
58.3827
62.7611
66.4671
69.445
71.7014
73.3845
74.4807
74.9385
74.8286
74.465
73.5774
71.9991
69.5382
65.9711
61.0187
54.3051
45.3002
33.2825
17.4218
-2.65294
-25.2965
-45.2811
-60.1188
-75.1043
-92.6935
-111.797
-131.179
-146.729
-150.6
-149.017
-139.864
-122.607
-99.2079
-77.8183
-58.5665
-37.6016
-13.0686
9.94651
14.7255
10.8189
7.13177
9.45787
13.5365
16.4119
17.8352
18.2163
17.9859
17.3618
16.3339
14.8874
13.1426
11.2949
9.51077
7.88807
6.49202
5.3535
4.44028
3.65457
2.8865
2.18322
1.78131
1.43533
0.460065
-61.8385
-66.2423
-71.3626
-75.8405
-81.1363
-86.7123
-92.9795
-99.6041
-106.489
-113.421
-120.374
-127.32
-134.168
-141.083
-147.968
-153.692
-158.883
-162.991
-163.666
-157.578
-141.564
-121.712
-101.3
-81.7471
-63.6821
-47.3181
-32.6448
-19.5402
-7.83505
2.64787
12.0721
20.5803
28.3007
35.3502
41.8205
47.7722
53.2365
58.2069
62.6127
66.3415
69.3332
71.5978
73.2794
74.3728
74.8272
74.7125
74.3168
73.401
71.7885
69.2883
65.6777
60.6731
53.8864
44.7598
32.5182
16.2643
-4.33882
-27.1911
-46.4662
-60.6269
-75.647
-93.3347
-112.363
-131.706
-147.352
-150.548
-148.862
-139.551
-122.202
-99.433
-78.6365
-59.406
-38.2081
-13.4536
8.97955
13.3857
10.3732
6.74997
8.30609
11.7531
14.4074
15.86
16.3018
16.0973
15.4713
14.4646
13.1043
11.5159
9.87116
8.31082
6.91973
5.74805
4.80714
4.05624
3.41142
2.78634
2.19054
1.7477
1.34625
0.675946
-62.1659
-66.4996
-71.6039
-76.0851
-81.395
-86.9775
-93.25
-99.875
-106.76
-113.688
-120.629
-127.535
-134.317
-141.175
-148.022
-153.65
-158.85
-163.116
-163.885
-157.794
-141.633
-121.863
-101.557
-82.0729
-64.0372
-47.6768
-32.9947
-19.8773
-8.15881
2.3372
11.7743
20.2946
28.0271
35.0898
41.5754
47.5441
53.0279
58.0227
62.4551
66.207
69.2127
71.4852
73.1607
74.2449
74.6931
74.578
74.1413
73.1931
71.5432
69.0002
65.3426
60.2832
53.423
44.1786
31.7239
15.0992
-5.98444
-28.9054
-47.3998
-61.035
-76.0791
-93.766
-112.542
-131.628
-146.993
-149.968
-147.954
-138.531
-121.284
-99.4233
-79.3157
-60.1855
-38.9326
-14.4621
6.78483
11.6096
9.40251
6.22057
7.18461
9.92163
12.2065
13.5743
14.038
13.8784
13.2969
12.3669
11.1458
9.75847
8.35309
7.04612
5.90778
4.97345
4.23951
3.6598
3.16281
2.67945
2.17986
1.7068
1.29565
0.884084
-62.4736
-66.7416
-71.8513
-76.34
-81.6661
-87.2556
-93.531
-100.154
-107.037
-113.959
-120.888
-127.753
-134.469
-141.273
-148.067
-153.59
-158.793
-163.216
-164.035
-157.929
-141.628
-121.959
-101.771
-82.3654
-64.3674
-48.0167
-33.3299
-20.2024
-8.47237
2.0354
11.4843
20.0157
27.7589
34.8338
41.3325
47.3144
52.8148
57.8328
62.2915
66.0646
69.0827
71.3632
73.0318
74.1023
74.539
74.4203
73.9364
72.953
71.2627
68.6735
64.9653
59.8485
52.9148
43.5581
30.9053
13.9437
-7.55228
-30.4368
-48.1795
-61.3796
-76.3942
-93.9668
-112.342
-130.925
-145.623
-148.595
-146.39
-136.816
-119.939
-99.1797
-79.8308
-60.8863
-39.7841
-16.0388
3.79831
9.19872
7.87428
5.34689
5.94487
8.06707
9.95404
11.1653
11.6158
11.5053
10.9999
10.1866
9.13981
7.97792
6.82695
5.78198
4.89903
4.20071
3.6724
3.26467
2.91668
2.57065
2.15913
1.67379
1.28946
1.08207
-62.768
-66.9826
-72.1083
-76.6077
-81.9507
-87.5472
-93.8235
-100.441
-107.318
-114.235
-121.152
-127.973
-134.626
-141.377
-148.096
-153.521
-158.715
-163.286
-164.109
-157.964
-141.55
-121.999
-101.941
-82.6243
-64.6719
-48.337
-33.6497
-20.5147
-8.77487
1.74344
11.2029
19.7446
27.498
34.5828
41.091
47.0845
52.6007
57.6408
62.1238
65.9149
68.9446
71.2344
72.8963
73.9484
74.3674
74.2364
73.7004
72.6801
70.9467
68.308
64.5457
59.369
52.3625
42.9003
30.0692
12.8135
-9.01583
-31.78
-48.833
-61.6606
-76.5837
-93.9291
-111.789
-129.64
-143.379
-146.379
-144.07
-134.478
-118.247
-98.7145
-80.155
-61.4822
-40.7354
-18.0157
0.397227
6.24758
5.83767
4.0526
4.48553
6.14889
7.6895
8.73632
9.16336
9.10621
8.69653
8.02343
7.16781
6.23841
5.34149
4.55387
3.91869
3.44788
3.11853
2.8793
2.6782
2.46382
2.13509
1.65666
1.32493
1.26774
-63.0414
-67.2335
-72.3791
-76.8933
-82.2524
-87.8534
-94.128
-100.738
-107.606
-114.515
-121.419
-128.196
-134.787
-141.48
-148.11
-153.443
-158.587
-163.317
-164.103
-157.877
-141.397
-121.984
-102.068
-82.8495
-64.9506
-48.6372
-33.9533
-20.8137
-9.06605
1.46174
10.9318
19.483
27.2432
34.3352
40.8532
46.8577
52.3886
57.4488
61.9526
65.7595
68.8012
71.1011
72.7556
73.7844
74.1803
74.0272
73.4316
72.3742
70.5952
67.9039
64.084
58.8451
51.7668
42.2077
29.2228
11.7244
-10.3535
-32.9316
-49.3698
-61.8833
-76.6389
-93.6524
-110.916
-127.86
-140.451
-143.428
-141.056
-131.673
-116.306
-98.0412
-80.2614
-61.9467
-41.735
-20.2096
-3.14849
2.98728
3.42116
2.37757
2.79256
4.14954
5.42877
6.34047
6.75243
6.75509
6.45293
5.93137
5.27177
4.57176
3.92051
3.3793
2.97974
2.72473
2.58518
2.50868
2.4505
2.36194
2.11332
1.65828
1.39256
1.43899
-63.3025
-67.4948
-72.6637
-77.1991
-82.5754
-88.1782
-94.4462
-101.044
-107.899
-114.797
-121.687
-128.42
-134.952
-141.577
-148.12
-153.337
-158.385
-163.326
-164.017
-157.654
-141.167
-121.915
-102.152
-83.0406
-65.2031
-48.9176
-34.2415
-21.0992
-9.34416
1.19217
10.6693
19.2271
26.9945
34.094
40.6211
46.6364
52.1808
57.2577
61.779
65.6011
68.6552
70.9644
72.6097
73.6113
73.9787
73.7944
73.128
72.0355
70.2086
67.4616
63.5809
58.2777
51.1291
41.4835
28.3734
10.6911
-11.5472
-33.892
-49.8012
-62.0445
-76.555
-93.1432
-109.759
-125.703
-137.083
-139.962
-137.572
-128.579
-114.194
-97.1595
-80.1268
-62.256
-42.7241
-22.4669
-6.66012
-0.376229
0.774136
0.416617
0.911318
2.08691
3.18939
4.00635
4.41904
4.48896
4.30124
3.93556
3.47025
2.99171
2.5743
2.26599
2.08807
2.03597
2.07595
2.15538
2.23529
2.2673
2.09818
1.67908
1.48177
1.59415
-63.5887
-67.7656
-72.9614
-77.5242
-82.9201
-88.5255
-94.7821
-101.361
-108.198
-115.082
-121.955
-128.645
-135.117
-141.672
-148.133
-153.184
-158.159
-163.388
-163.865
-157.289
-140.865
-121.794
-102.195
-83.1992
-65.4295
-49.1761
-34.5114
-21.3714
-9.614
0.929266
10.4144
18.9787
26.7527
33.8601
40.3967
46.4229
51.9791
57.0694
61.6059
65.4428
68.509
70.8256
72.4592
73.4302
73.7632
73.538
72.7929
71.6648
69.7875
66.982
63.0373
57.6681
50.4516
40.7313
27.5283
9.72669
-12.5829
-34.6643
-50.1318
-62.1414
-76.3306
-92.4117
-108.35
-123.279
-133.498
-136.218
-133.846
-125.344
-111.954
-96.0558
-79.7347
-62.3901
-43.6475
-24.6733
-10.0246
-3.7001
-1.97293
-1.728
-1.0957
-0.0086263
0.987747
1.74911
2.17971
2.32422
2.25497
2.04558
1.76951
1.50234
1.30563
1.21584
1.24526
1.38302
1.59216
1.82045
2.03342
2.18156
2.09283
1.71864
1.58462
1.73224
-63.865
-68.047
-73.2717
-77.8678
-83.2852
-88.8949
-95.1381
-101.691
-108.504
-115.37
-122.224
-128.873
-135.277
-141.771
-148.149
-152.991
-157.981
-163.484
-163.626
-156.75
-140.483
-121.617
-102.195
-83.325
-65.633
-49.4199
-34.7708
-21.6348
-9.87697
0.670934
10.164
18.7366
26.5189
33.6354
40.1824
46.2191
51.7854
56.8867
61.4365
65.2873
68.3653
70.6872
72.3061
73.2425
73.5341
73.2576
72.4366
71.2638
69.3329
66.466
62.4547
57.0181
49.7366
39.9551
26.6943
8.84182
-13.4505
-35.2514
-50.3626
-62.1691
-75.969
-91.4708
-106.709
-120.657
-129.83
-132.364
-130.03
-122.041
-109.589
-94.7113
-79.0777
-62.3359
-44.4601
-26.7488
-13.1715
-6.89129
-4.71927
-3.96673
-3.16867
-2.106
-1.16174
-0.422758
0.0412991
0.266713
0.317902
0.262783
0.169074
0.102296
0.112907
0.227525
0.450469
0.765618
1.13387
1.50409
1.84515
2.10577
2.09931
1.77634
1.69628
1.85289
-64.1391
-68.3388
-73.5933
-78.2281
-83.6694
-89.2852
-95.5139
-102.037
-108.818
-115.661
-122.493
-129.099
-135.435
-141.882
-148.155
-152.758
-157.853
-163.5
-163.267
-156.017
-140.015
-121.385
-102.156
-83.4238
-65.8197
-49.6548
-35.0273
-21.8976
-10.1381
0.416629
9.9196
18.5027
26.2951
33.4219
39.9797
46.0267
51.6021
56.7122
61.2729
65.1365
68.226
70.5514
72.1524
73.0497
73.2916
72.9537
72.0658
70.8339
68.8462
65.9152
61.835
56.33
48.9871
39.1588
25.8774
8.04461
-14.1434
-35.6552
-50.4903
-62.1218
-75.4773
-90.337
-104.848
-117.857
-126.117
-128.468
-126.178
-118.678
-107.076
-93.1127
-78.1596
-62.0877
-45.1284
-28.6405
-16.0582
-9.89008
-7.39163
-6.22784
-5.25696
-4.17778
-3.24706
-2.50453
-1.99453
-1.68351
-1.51167
-1.41614
-1.33521
-1.21261
-1.00746
-0.701652
-0.297965
0.18287
0.700584
1.20589
1.67022
2.04029
2.1187
1.8516
1.81402
1.95613
-64.4094
-68.64
-73.9242
-78.6023
-84.0696
-89.6942
-95.9082
-102.399
-109.14
-115.953
-122.761
-129.32
-135.586
-142.003
-148.128
-152.493
-157.766
-163.399
-162.753
-155.161
-139.476
-121.111
-102.091
-83.5079
-65.9982
-49.8847
-35.2799
-22.1567
-10.3943
0.169116
9.68398
18.2793
26.0828
33.2206
39.7894
45.847
51.4309
56.5476
61.1164
64.9915
68.0922
70.4196
71.9996
72.8533
73.0373
72.6291
71.6794
70.3762
68.3288
65.3314
61.1805
55.6068
48.2065
38.3467
25.0824
7.34032
-14.6583
-35.8764
-50.5083
-61.9923
-74.8653
-89.0314
-102.778
-114.877
-122.339
-124.521
-122.278
-115.228
-104.39
-91.2615
-76.9954
-61.647
-45.6313
-30.3163
-18.6612
-12.6601
-9.93971
-8.45694
-7.32065
-6.20186
-5.259
-4.49417
-3.92922
-3.52974
-3.23844
-2.99676
-2.74902
-2.44745
-2.05949
-1.57449
-1.00177
-0.366305
0.291364
0.924897
1.50778
1.98472
2.15123
1.94393
1.93612
2.04217
-64.6823
-68.9491
-74.2621
-78.9867
-84.4821
-90.1183
-96.3185
-102.774
-109.472
-116.248
-123.027
-129.53
-135.733
-142.126
-148.062
-152.215
-157.705
-163.201
-162.07
-154.226
-138.877
-120.796
-101.998
-83.5738
-66.1643
-50.1054
-35.5249
-22.4084
-10.6428
-0.0697558
9.45832
18.067
25.8828
33.032
39.6123
45.6808
51.2729
56.3944
60.9686
64.8534
67.965
70.2929
71.8493
72.6548
72.7733
72.2878
71.2729
69.8917
67.7824
64.7168
60.494
54.8516
47.3986
37.5227
24.3129
6.73134
-14.9951
-35.9144
-50.4079
-61.7715
-74.1437
-87.5796
-100.523
-111.717