/*--------------------------------*- C++ -*----------------------------------*\
| =========                 |                                                 |
| \\      /  F ield         | OpenFOAM: The Open Source CFD Toolbox           |
|  \\    /   O peration     | Version:  4.1                                   |
|   \\  /    A nd           | Web:      www.OpenFOAM.org                      |
|    \\/     M anipulation  |                                                 |
\*---------------------------------------------------------------------------*/
FoamFile
{
    version     2.0;
    format      ascii;
    class       surfaceScalarField;
    location    "1000";
    object      phi;
}
// * * * * * * * * * * * * * * * * * * * * * * * * * * * * * * * * * * * * * //

dimensions      [0 3 -1 0 0 0 0];

internalField   nonuniform List<scalar> 
52920
(
1578.42
-174.002
1755.34
-176.915
1940.81
-185.471
2138.58
-197.763
2350.98
-212.402
2579.16
-228.173
2822.2
-243.044
3078.43
-256.228
3346
-267.568
3623.03
-277.024
3907.47
-284.438
4196.26
-288.786
4484.38
-288.118
4764.98
-280.597
5028.84
-263.861
5260.49
-231.642
5434.28
-173.79
5524.04
-89.7546
5511.11
12.9271
5391.86
119.25
5195.3
196.559
4958.45
236.859
4707.5
250.951
4456.9
250.602
4213.58
243.319
3980.51
233.076
3758.77
221.743
3548.61
210.162
3349.89
198.724
3162.25
187.637
2985.23
177.023
2818.3
166.938
2660.95
157.356
2512.81
148.143
2373.78
139.033
2244.16
129.622
2124.77
119.394
2017
107.776
1922.76
94.2364
1844.36
78.4132
1784.18
60.1807
1744.42
39.7641
1726.89
17.5424
1732.02
-5.1294
1759.02
-26.9958
1806.42
-47.3952
1874.72
-68.2896
1967.69
-92.9624
2091.36
-123.67
2252.32
-160.948
2455.94
-203.624
2705.58
-249.634
3002.27
-296.688
3344.58
-342.303
3728.34
-383.759
4146.66
-418.316
4590.16
-443.504
5047.51
-457.349
5506.13
-458.615
5952.95
-446.821
6374.66
-421.713
6756.9
-382.24
7083.41
-326.506
7336.87
-253.466
7500.89
-164.019
7563.64
-62.7433
7519.89
43.7443
7371.94
147.953
7131.72
240.22
6818.34
313.383
6454.61
363.725
6065.17
389.443
5675.75
389.419
5311.43
364.318
4993.12
318.307
4734.47
258.65
4541.38
193.098
4414.32
127.06
4352.31
62.0056
4355.11
-2.80061
4423.24
-68.1328
4555.49
-132.245
4747.75
-192.257
4995.62
-247.873
5298.85
-303.23
5662.8
-363.953
6094.41
-431.612
6594.37
-499.959
7151.01
-556.641
7740.67
-589.657
8330.25
-589.581
8879.33
-549.073
9347.56
-468.23
9706.84
-359.285
9950.24
-243.398
10088.4
-138.18
10144.4
-55.946
10143.9
0.471589
10110.5
33.4062
-11.5483
1574.87
-352.866
1767.84
-369.884
1977.29
-394.923
2202.78
-423.249
2442.56
-452.175
2694.89
-480.497
2957.34
-505.493
3227.71
-526.594
3504.24
-544.1
3785.47
-558.254
4069.89
-568.855
4354.97
-573.864
4636.21
-569.352
4907.21
-551.597
5159.69
-516.34
5381.11
-453.052
5550.04
-342.719
5638.62
-178.334
5620.33
31.2203
5487.51
252.074
5271.75
412.316
5014.35
494.262
4744.61
520.693
4478.44
516.773
4223.12
498.643
3981.38
474.821
3753.83
449.287
3540.22
423.777
3339.9
399.051
3152.07
375.471
2975.87
353.219
2810.46
332.348
2655.07
312.758
2509.07
294.141
2372.17
275.933
2244.5
257.299
2126.72
237.177
2020.12
214.385
1926.54
187.82
1848.25
156.713
1787.67
120.762
1747.08
80.3574
1728.43
36.1988
1732.5
-9.18803
1758.45
-52.9426
1804.83
-93.7708
1872.09
-135.544
1963.87
-184.738
2086.08
-245.868
2245.21
-320.074
2446.72
-405.136
2693.7
-496.609
2986.06
-589.039
3321.01
-677.259
3694.5
-757.247
4101.69
-825.503
4536.03
-877.84
4988.07
-909.394
5445.55
-916.084
5894.5
-895.777
6320.41
-847.619
6707.86
-769.687
7039.89
-658.54
7298.85
-512.428
7468.21
-333.371
7536.15
-130.69
7497.68
82.211
7355.26
290.379
7120.57
474.909
6812.55
621.399
6453.8
722.478
6068.65
774.592
5682.7
775.369
5321.13
725.889
5005.01
634.431
4747.81
515.849
4554.62
386.29
4423.49
258.185
4348.1
137.398
4320.72
24.5772
4334.51
-81.9159
4383.61
-181.351
4462.5
-271.15
4566.89
-352.261
4696.51
-432.845
4856.65
-524.094
5057.46
-632.423
5310.23
-752.732
5622.22
-868.623
5995.82
-963.265
6428.04
-1021.8
6904.99
-1026.02
7399.83
-963.068
7878.26
-837.725
8307.82
-672.954
8661.98
-492.345
8925.97
-319.936
9098.92
-172.474
9191.23
-58.8991
-74.5128
1585.11
-554.237
1805.66
-590.432
2038.83
-628.098
2279.6
-664.012
2525.45
-698.021
2776.01
-731.06
3030.82
-760.296
3289.39
-785.164
3551.27
-805.979
3815.92
-822.904
4082.54
-835.472
4349.22
-840.538
4612.07
-832.2
4865.49
-805.021
5102.69
-753.533
5314.26
-664.621
5483.6
-512.059
5584.94
-279.674
5585.87
30.2957
5468.39
369.553
5259.59
621.119
5002.29
751.559
4729.04
793.947
4458.32
787.494
4198.92
758.047
3954.26
719.483
3725.17
678.381
3511.31
637.641
3311.84
598.519
3125.74
561.579
2951.88
527.074
2789.19
495.048
2636.64
465.31
2493.42
437.365
2359.02
410.33
2233.41
382.919
2117.1
353.491
2011.27
320.216
1917.72
281.37
1838.72
235.719
1776.76
182.734
1734.21
122.908
1713.23
57.1861
1714.9
-10.8518
1738.39
-76.4257
1782.15
-137.526
1846.55
-199.939
1935.01
-273.192
2053.29
-364.143
2208.12
-474.903
2404.63
-601.64
2643.95
-735.922
2924.57
-869.657
3246.24
-998.928
3610.5
-1121.51
4016.54
-1231.54
4457.16
-1318.46
4918.84
-1371.08
5384.98
-1382.22
5839.2
-1350
6266.74
-1275.15
6653.16
-1156.11
6982.79
-988.175
7239.02
-768.661
7405.99
-500.338
7472.3
-197.002
7432.91
121.599
7290.39
432.904
7056.83
708.464
6751.67
926.564
6397.54
1076.61
6018.35
1153.78
5639.14
1154.58
5284.65
1080.38
4975.44
943.639
4723.91
767.382
4533.06
577.135
4398.53
392.715
4312.36
223.57
4267.13
69.8062
4257.94
-72.7298
4281.44
-204.848
4332.2
-321.909
4401.95
-422.014
4482.38
-513.269
4571.3
-613.016
4678.62
-739.744
4818.93
-893.045
4995.34
-1045.03
5201.37
-1169.3
5435.15
-1255.58
5702.03
-1292.89
6008.49
-1269.53
6355.67
-1184.9
6733.71
-1051
7115.27
-873.897
7462.33
-666.997
7738
-448.149
7934.35
-255.247
-192.482
1605
-782.735
1841.24
-826.677
2075.65
-862.5
2307.43
-895.791
2538.84
-929.423
2772.65
-964.868
3009.93
-997.579
3250.78
-1026.01
3494.81
-1050.02
3741.48
-1069.57
3990
-1083.99
4238.6
-1089.13
4483.7
-1077.3
4720.26
-1041.57
4942.44
-975.718
5143.03
-865.205
5309.84
-678.863
5422.02
-391.854
5445.77
6.54617
5353.29
462.037
5164.4
810.01
4920.74
995.215
4656.4
1058.29
4391.73
1052.16
4136.91
1012.88
3896.19
960.199
3670.87
903.708
3460.79
847.722
3265.16
794.146
3082.91
743.835
2912.83
697.16
2753.7
654.18
2604.38
614.628
2463.93
577.821
2331.71
542.555
2207.56
507.068
2091.95
469.111
1986.01
426.162
1891.56
375.824
1810.93
316.356
1746.71
246.957
1701.44
168.183
1677.49
81.1404
1676.22
-9.57712
1696.79
-96.9833
1737.44
-178.172
1798.34
-260.833
1882.63
-357.475
1996.35
-477.86
2146.12
-624.666
2334.71
-790.226
2561.94
-963.157
2831.21
-1138.92
3150.01
-1317.73
3521.77
-1493.26
3939.47
-1649.24
4387.82
-1766.8
4849.28
-1832.54
5308.15
-1841.08
5751.42
-1793.27
6167.66
-1691.39
6544.48
-1532.93
6866.63
-1310.33
7116.81
-1018.84
7277.81
-661.33
7337.33
-256.529
7290.72
168.214
7141.6
582.025
6903.32
946.745
6596.64
1233.24
6244.84
1428.41
5871.53
1527.09
5501.1
1525.01
5157.55
1423.93
4860.28
1240.91
4619.69
1007.96
4436.24
760.592
4303.48
525.478
4212.89
314.161
4157.27
125.42
4131.64
-47.0995
4133.74
-206.944
4160.2
-348.373
4203.1
-464.917
4253.13
-563.291
4315.13
-675.019
4415.64
-840.257
4571.91
-1049.31
4760.6
-1233.72
4940.3
-1348.99
5088.84
-1404.12
5209.46
-1413.52
5321.99
-1382.07
5455.93
-1318.84
5638.6
-1233.67
5874.97
-1110.26
6139.54
-931.568
6383.97
-692.578
6605.59
-476.874
-338.721
1618.18
-1022.08
1847.77
-1056.27
2067.17
-1081.9
2282.44
-1111.05
2498.09
-1145.07
2717.02
-1183.8
2939.8
-1220.35
3166.03
-1252.24
3395.09
-1279.07
3626.3
-1300.78
3858.92
-1316.6
4091.3
-1321.51
4320.11
-1306.1
4540.76
-1262.23
4748.19
-1183.15
4936.54
-1053.55
5096.87
-839.19
5213.3
-508.279
5253.62
-33.7753
5183.39
532.268
5015.84
977.563
4790.29
1220.76
4540.76
1307.83
4288.21
1304.71
4043.51
1257.58
3811.45
1192.26
3593.7
1121.47
3390.34
1051.08
3200.73
983.756
3023.85
920.722
2858.5
862.516
2703.43
809.249
2557.46
760.601
2419.58
715.709
2289.1
673.038
2165.83
630.335
2050.24
584.71
1943.5
532.904
1847.53
471.801
1764.76
399.121
1697.95
313.78
1649.76
216.376
1622.81
108.092
1618.68
-5.43887
1636.48
-114.78
1674.13
-215.812
1731.5
-318.192
1811.86
-437.831
1921.48
-587.474
2064.73
-767.918
2242.63
-968.124
2460.61
-1181.14
2730.55
-1408.85
3059.2
-1646.38
3439.91
-1873.97
3857.54
-2066.88
4297.14
-2206.4
4746.67
-2282.07
5195.45
-2289.86
5632.73
-2230.56
6047.22
-2105.88
6425.45
-1911.16
6750.59
-1635.46
7003.46
-1271.72
7164.68
-822.545
7219.94
-311.795
7163.08
225.074
6997.53
747.572
6739.01
1205.27
6412.36
1559.89
6044.49
1796.28
5661.1
1910.48
5287.36
1898.74
4947.12
1764.17
4658.34
1529.69
4428.57
1237.73
4254.66
934.496
4127.18
652.964
4036.09
405.243
3973.7
187.81
3934.51
-7.90584
3917.92
-190.356
3923.78
-354.236
3944.98
-486.109
3977.89
-596.207
4051.05
-748.176
4210.04
-999.248
4449.29
-1288.56
4700.81
-1485.24
4900.49
-1548.67
5027.26
-1530.89
5088.12
-1474.38
5101.39
-1395.34
5099.09
-1316.54
5123.04
-1257.62
5203.81
-1191.03
5333.6
-1061.36
5475.03
-834.006
5631.72
-633.565
-444.747
1607.77
-1250.62
1822.47
-1270.96
2027.46
-1286.89
2229.58
-1313.16
2432.53
-1348.02
2638.69
-1389.97
2848.39
-1430.04
3061.19
-1465.04
3276.46
-1494.33
3493.5
-1517.82
3711.57
-1534.67
3929.07
-1539.01
4142.78
-1519.8
4348.41
-1467.86
4541.4
-1376.14
4716.91
-1229.06
4868.59
-990.863
4985.07
-624.753
5036.74
-85.4494
4984.41
584.607
4835.96
1126.01
4628.75
1427.98
4396.01
1540.57
4158.45
1542.27
3926.85
1489.19
3706.14
1412.97
3498.17
1329.44
3303.24
1246.01
3120.87
1166.14
2950.13
1091.46
2789.93
1022.73
2639.04
960.142
2496.29
903.354
2360.67
851.33
2231.51
802.197
2108.66
753.19
1992.63
700.744
1884.71
640.825
1786.96
569.563
1701.96
484.124
1632.59
383.153
1581.66
267.31
1552
137.758
1545.38
1.19581
1560.88
-130.275
1595.89
-250.813
1650.24
-372.536
1727.62
-515.205
1832.74
-692.595
1967.4
-902.567
2136.91
-1137.63
2355.51
-1399.73
2634.12
-1687.45
2968.6
-1980.86
3345.84
-2251.21
3754.46
-2475.49
4186.33
-2638.27
4632.62
-2728.35
5081.7
-2738.94
5520.82
-2669.67
5937.71
-2522.77
6319.02
-2292.47
6648.32
-1964.76
6906.43
-1529.83
7072.89
-989.008
7131.32
-370.226
7071.8
284.593
6893.59
925.788
6611.53
1487.32
6253.74
1917.68
5852.43
2197.59
5438.55
2324.36
5041.61
2295.68
4688.16
2117.62
4396.24
1821.61
4170.58
1463.4
4003.35
1101.73
3880.53
775.782
3789.36
496.421
3721.33
255.836
3671.71
41.7169
3641.94
-160.592
3632.02
-344.312
3635.43
-489.524
3671.98
-632.754
3806.53
-882.72
4068.41
-1261.14
4388.05
-1608.2
4663.74
-1760.93
4846.56
-1731.48
4943.08
-1627.42
4973.7
-1505
4953.42
-1375.05
4906.51
-1269.63
4873.13
-1224.24
4890.37
-1208.28
4949.48
-1120.47
5011.04
-895.567
5039.95
-662.47
-432.369
1577.98
-1466.66
1780.31
-1473.3
1972.56
-1479.14
2162.12
-1502.72
2352.74
-1538.64
2546.81
-1584.04
2744.5
-1627.73
2945.22
-1665.75
3148.12
-1697.24
3352.39
-1722.09
3557.24
-1739.52
3761.13
-1742.9
3960.97
-1719.64
4152.73
-1659.62
4332.09
-1555.49
4494.59
-1391.56
4635.78
-1132.05
4748.72
-737.683
4807.48
-144.209
4769.44
622.642
4637.62
1257.84
4447.67
1617.93
4231.98
1756.25
4010.49
1763.76
3793.42
1706.26
3585.45
1620.95
3388.43
1526.46
3202.78
1431.66
3028.18
1340.74
2863.86
1255.77
2708.84
1177.76
2561.98
1107
2422.17
1043.16
2288.48
985.031
2160.27
930.402
2037.49
875.973
1920.77
817.476
1811.52
750.071
1711.98
669.105
1624.91
571.205
1553.28
454.786
1499.98
320.61
1468.03
169.717
1459.4
9.82905
1473.16
-144.025
1506.07
-283.715
1558.34
-424.801
1633.11
-589.965
1732.17
-791.655
1858.82
-1029.21
2026.77
-1305.59
2251.99
-1624.95
2536.06
-1971.51
2868.51
-2313.32
3239.51
-2622.2
3642.7
-2878.69
4070.64
-3066.21
4512.16
-3169.87
4953.86
-3180.64
5383.43
-3099.24
5790.86
-2930.2
6165.33
-2666.94
6492.23
-2291.66
6753.29
-1790.89
6927.63
-1163.35
6998.33
-440.93
6952.92
330.01
6783.61
1095.09
6497.72
1773.22
6120.31
2295.09
5686.05
2631.85
5232.26
2778.15
4796.74
2731.21
4413.55
2500.81
4104.58
2130.58
3873.3
1694.68
3706.89
1268.14
3585.71
896.963
3493.4
588.729
3420.66
328.583
3364.7
97.6767
3327.08
-122.973
3302.84
-320.075
3299.69
-486.372
3388.12
-721.183
3635.76
-1130.36
3986.57
-1611.94
4312.93
-1934.57
4533.69
-1981.69
4643.09
-1840.88
4677.3
-1661.62
4666.75
-1494.46
4619.78
-1328.08
4547.67
-1197.53
4482.63
-1159.19
4463.25
-1188.89
4480.88
-1138.1
4482.81
-897.506
4395.03
-574.685
-306.679
1537.49
-1669.62
1726.45
-1662.25
1905.93
-1658.61
2084.07
-1680.87
2263.99
-1718.55
2447.48
-1767.52
2634.31
-1814.56
2823.82
-1855.26
3015.11
-1888.53
3207.34
-1914.31
3399.71
-1931.9
3590.78
-1933.96
3777.66
-1906.53
3956.69
-1838.65
4123.76
-1722.56
4274.32
-1542.12
4404.78
-1262.51
4511.69
-844.586
4573.47
-205.988
4546.08
650.031
4428.29
1375.63
4254.13
1792.09
4054.94
1955.44
3849.63
1969.08
3647.57
1908.33
3452.93
1815.58
3267.39
1712
3091.4
1607.65
2924.76
1507.39
2766.87
1413.66
2616.9
1327.74
2473.84
1250.07
2336.69
1180.31
2204.61
1117.11
2077.1
1057.92
1954.2
998.878
1836.68
934.995
1726.16
860.596
1625.03
770.238
1536.2
660.039
1462.73
528.262
1407.51
375.838
1373.69
203.545
1363.55
19.9782
1376.08
-156.542
1407.54
-315.174
1458.4
-475.653
1529.68
-661.243
1621.78
-883.748
1744.06
-1151.48
1915.92
-1477.45
2147.78
-1856.81
2433.01
-2256.74
2760.24
-2640.55
3121.83
-2983.79
3511.7
-3268.56
3921.96
-3476.47
4342.48
-3590.39
4762.04
-3600.21
5170.93
-3508.13
5561.63
-3320.9
5924.8
-3030.11
6246.19
-2613.04
6507.25
-2051.95
6686.23
-1342.34
6768.37
-523.065
6744.97
353.407
6605.55
1234.51
6345.72
2033.05
5978.05
2662.76
5530.84
3079.07
5044.07
3264.92
4565.69
3209.59
4142.51
2923.98
3805.51
2467.59
3560.01
1940.17
3388.8
1439.35
3266.08
1019.68
3171.35
683.464
3094.88
405.052
3036.26
156.294
2992.07
-78.7797
2957.51
-285.52
2991.27
-520.129
3196.33
-926.246
3544.47
-1478.5
3884.75
-1952.23
4117.78
-2167.6
4227.09
-2091
4238.48
-1852.26
4199.68
-1622.83
4142.66
-1437.43
4063.44
-1248.86
3955.85
-1089.94
3850.23
-1053.57
3801.92
-1140.59
3811.81
-1147.98
3806.67
-892.366
3689.11
-457.126
-133.781
1486.77
-1857.89
1662.98
-1838.46
1831.89
-1827.52
2000.37
-1849.34
2170.22
-1888.39
2343.15
-1940.45
2519.19
-1990.6
2697.84
-2033.91
2878.15
-2068.84
3059.09
-2095.24
3239.81
-2112.62
3418.91
-2113.06
3593.71
-2081.32
3760.91
-2005.85
3916.79
-1878.43
4056.7
-1682.03
4177.27
-1383.08
4277.45
-944.758
4339.46
-267.996
4319.24
670.251
4212.79
1482.08
4052.68
1952.2
3868.97
2139.16
3679.32
2158.73
3492.1
2095.55
3310.83
1996.85
3136.89
1885.95
2970.64
1773.89
2811.99
1666.04
2660.47
1565.18
2515.4
1472.8
2375.96
1389.52
2241.27
1315
2110.63
1247.75
1983.69
1184.86
1860.65
1121.93
1742.44
1053.2
1630.86
972.179
1528.49
872.62
1438.34
750.192
1363.5
603.107
1306.78
432.565
1271.43
238.901
1260.12
31.2949
1271.82
-168.236
1302.34
-345.687
1351.57
-524.875
1417.92
-727.592
1503.69
-969.509
1626.03
-1273.83
1804.92
-1656.33
2041
-2092.89
2320.05
-2535.79
2629.96
-2950.46
2965.62
-3319.44
3325.09
-3628.03
3705.48
-3856.86
4100.53
-3985.44
4500.39
-4000.07
4895.22
-3902.96
5277.14
-3702.81
5635.85
-3388.83
5955.38
-2932.57
6214.94
-2311.51
6389.95
-1517.34
6467.3
-600.415
6448.23
372.48
6333.48
1349.25
6115.3
2251.24
5787.97
2990.09
5359.3
3507.74
4860.62
3763.59
4347.06
3723.15
3881.93
3389.11
3511.28
2838.24
3246.54
2204.91
3067.3
1618.59
2941.26
1145.72
2843.66
781.065
2765.63
483.089
2705.7
216.221
2652.74
-25.8234
2638.08
-270.859
2781.96
-664.008
3105.8
-1250.08
3440.71
-1813.41
3651.02
-2162.54
3740.81
-2257.4
3744.88
-2095.07
3684.81
-1792.19
3600.04
-1538.05
3518.27
-1355.66
3422.17
-1152.77
3292.21
-959.973
3167.49
-928.848
3119.38
-1092.48
3146.59
-1175.2
3167.94
-913.716
3071.23
-360.413
50.552
1427.2
-2029.96
1593.41
-2004.68
1753.07
-1987.18
1911.39
-2007.65
2070.52
-2047.52
2233.04
-2102.96
2399.15
-2156.71
2568.07
-2202.83
2738.38
-2239.14
2908.78
-2265.64
3078.54
-2282.38
3246.48
-2280.99
3410.12
-2244.96
3566.51
-2162.24
3712.2
-2024.12
3842.41
-1812.23
3953.76
-1494.44
4047.07
-1038.06
4107.63
-328.56
4091.76
686.132
3994.3
1579.54
3846.5
2100
3676.99
2308.67
3502.07
2333.65
3329.04
2268.58
3160.75
2165.15
2998.17
2048.53
2841.56
1930.51
2690.8
1816.8
2545.57
1710.42
2405.33
1613.05
2269.41
1525.44
2137.12
1447.29
2007.92
1376.95
1881.63
1311.16
1758.61
1244.95
1639.99
1171.83
1527.72
1084.45
1424.55
975.8
1333.57
841.174
1257.82
678.861
1199.94
490.452
1163.22
275.637
1150.85
43.6696
1161.93
-179.301
1191.47
-375.221
1237.94
-571.339
1297.97
-787.619
1379.5
-1051.03
1506.6
-1400.92
1691.65
-1841.38
1920.49
-2321.72
2174.15
-2789.44
2446.99
-3223.3
2744.33
-3616.78
3073.2
-3956.9
3435.1
-4218.75
3823.04
-4373.38
4223.11
-4400.13
4621.66
-4301.51
5008.92
-4090.07
5373.37
-3753.28
5697.37
-3256.58
5957.21
-2571.34
6123.43
-1683.57
6179.68
-656.664
6131.66
420.504
6001.92
1478.99
5803.96
2449.19
5526.05
3267.99
5144.63
3889.16
4663.06
4245.16
4132.09
4254.12
3631.25
3889.95
3227.18
3242.32
2942.52
2489.57
2755.26
1805.85
2626.11
1274.87
2527.01
880.167
2449.82
560.273
2383.86
282.186
2334.3
23.7367
2410.53
-347.089
2691.13
-944.61
3022.75
-1581.71
3213.56
-2004.22
3246.88
-2195.86
3210.24
-2220.76
3148.09
-2032.91
3057.58
-1701.68
2955.26
-1435.74
2859.71
-1260.11
2753.99
-1047.05
2620.81
-826.797
2482.51
-790.546
2379.07
-989.043
2321.57
-1117.69
2302.93
-895.08
2227.91
-285.389
231.726
1360.78
-2197
1519.16
-2163.06
1667.95
-2135.97
1815.32
-2155.02
1964.56
-2196.76
2118.18
-2256.58
2275.64
-2314.17
2435.51
-2362.7
2596.05
-2399.67
2756.04
-2425.63
2915.15
-2441.49
3072.64
-2438.47
3226.28
-2398.6
3373.28
-2309.23
3510.24
-2161.08
3632.02
-1934
3734.96
-1597.37
3821.34
-1124.44
3879.13
-386.347
3865.33
699.936
3774.94
1669.93
3637.91
2237.04
3481.3
2465.28
3319.96
2494.99
3160.16
2428.38
3004.1
2321.21
2852.38
2200.24
2705.08
2077.82
2562.04
1959.84
2423
1849.46
2287.54
1748.51
2155.16
1657.82
2025.35
1577.1
1897.75
1504.55
1772.36
1436.56
1649.72
1367.59
1531.11
1290.44
1418.65
1196.91
1315.2
1079.26
1223.88
932.49
1147.61
755.136
1088.76
549.312
1050.54
313.862
1036.94
57.2801
1047.19
-189.548
1075.02
-403.044
1116.81
-613.117
1169.73
-840.535
1250.81
-1132.1
1383.56
-1533.66
1561.46
-2019.28
1759.36
-2519.63
1968.49
-2998.57
2200.96
-3455.76
2474.11
-3889.93
2797.63
-4280.42
3168.56
-4589.68
3572.41
-4777.23
3988.24
-4815.97
4399.09
-4712.35
4795.57
-4486.55
5167.37
-4125.08
5497.42
-3586.63
5760.25
-2834.17
5921.3
-1844.62
5957.92
-693.283
5866.35
512.081
5679.09
1666.25
5450.19
2678.09
5195.77
3522.42
4870.73
4214.2
4433.13
4682.75
3908.85
4778.41
3385.79
4413.01
2954.26
3673.85
2653.47
2790.37
2461.35
1997.96
2331.73
1404.49
2234.56
977.334
2156.28
638.549
2079.93
358.537
2089.19
14.4779
2310.02
-567.916
2635.83
-1270.42
2831.01
-1776.88
2828.52
-2001.74
2707.46
-2074.79
2554.7
-2068.01
2409.48
-1887.69
2266.5
-1558.7
2112.52
-1281.76
1950.29
-1097.88
1785.27
-882.031
1620.68
-662.206
1413.15
-583.018
1144.73
-720.618
895.364
-868.328
725.766
-725.482
631.325
-190.949
423.527
1291.7
-2352.75
1437.15
-2308.51
1574.37
-2273.19
1712.59
-2293.23
1853.82
-2337.99
1999.49
-2402.25
2148.4
-2463.08
2298.99
-2513.28
2449.6
-2550.28
2599.4
-2575.43
2748.53
-2590.62
2896.61
-2586.55
3041.58
-2543.57
3180.72
-2448.38
3310.6
-2290.96
3425.52
-2048.92
3521.19
-1693.04
3600.86
-1204.11
3654.69
-440.173
3641.03
713.593
3556.13
1754.84
3428.62
2364.55
3283.75
2610.16
3134.8
2643.94
2987.09
2576.09
2842.3
2466.01
2700.73
2341.82
2562.24
2216.31
2426.62
2095.45
2293.62
1982.46
2162.93
1879.21
2034.19
1786.57
1907.06
1704.23
1781.37
1630.25
1657.29
1560.64
1535.52
1489.36
1417.47
1408.49
1305.38
1309.01
1202.17
1182.48
1110.95
1023.72
1034.41
831.681
974.539
609.186
934.391
354.019
918.986
72.6956
927.728
-198.279
952.256
-427.562
986.751
-647.602
1033.19
-886.965
1115.4
-1214.31
1241.48
-1659.74
1386.85
-2164.64
1537.3
-2670.07
1709.18
-3170.45
1928.44
-3675.03
2210.44
-4171.92
2555.07
-4625.04
2949.56
-4984.17
3372.79
-5200.47
3800.32
-5243.49
4215.71
-5127.74
4612.94
-4883.79
4984.77
-4496.9
5316.19
-3918.05
5581.61
-3099.59
5742.43
-2005.44
5772.24
-723.09
5652.6
631.72
5401.15
1917.7
5100.54
2978.7
4823.49
3799.46
4537.83
4499.87
4158.11
5062.47
3664.74
5271.78
3138.3
4939.45
2690.77
4121.37
2382.04
3099.1
2191.44
2188.56
2067.01
1528.93
1973.82
1070.52
1886.34
726.029
1828.34
416.535
1967.12
-124.302
2276.65
-877.448
2493.34
-1487.11
2483.74
-1767.28
2308.13
-1826.12
2043.74
-1810.4
1727.01
-1751.28
1418.57
-1579.25
1142.42
-1282.55
865.996
-1005.34
575.087
-806.975
275.22
-582.165
-30.6718
-356.315
-327.422
-286.268
-596.56
-451.48
-855.707
-609.181
-1110.88
-470.314
-1325.13
23.3015
506.446
1211.92
-2494.62
1345.41
-2442
1473.97
-2401.75
1604.94
-2424.21
1738.56
-2471.61
1875.94
-2539.62
2015.89
-2603.04
2157.05
-2654.44
2298.05
-2691.28
2438.42
-2715.79
2578.74
-2730.94
2718.82
-2726.63
2856.57
-2681.32
2989.3
-2581.1
3113.48
-2415.14
3222.93
-2158.37
3312.52
-1782.62
3385.9
-1277.49
3434.83
-489.096
3419.56
728.868
3338.82
1835.58
3219.9
2483.47
3085.81
2744.25
2948.15
2781.6
2811.38
2712.86
2676.8
2600.59
2544.49
2474.13
2414.2
2346.6
2285.61
2224.04
2158.47
2109.61
2032.53
2005.14
1907.58
1911.52
1783.42
1828.38
1660.06
1753.61
1537.8
1682.9
1417.49
1609.68
1300.62
1525.37
1189.45
1420.18
1086.95
1284.98
996.118
1114.55
919.366
908.437
858.172
670.386
815.29
396.907
797.044
90.9509
803.014
-204.238
821.41
-445.949
845.621
-671.803
885.012
-926.351
958.638
-1287.93
1054.38
-1755.48
1154.58
-2264.83
1275.22
-2790.71
1446.93
-3342.16
1686.67
-3914.77
1994.32
-4479.56
2360.05
-4990.78
2768.31
-5392.42
3198.1
-5630.26
3624.91
-5670.31
4033.82
-5536.64
4421.82
-5271.8
4784.07
-4859.15
5108.05
-4242.04
5370.16
-3361.7
5529.9
-2165.17
5561.91
-755.111
5438.87
754.765
5149.42
2207.15
4773.32
3354.8
4438.05
4134.73
4159.45
4778.46
3833.92
5387.99
3388.93
5716.77
2879.75
5448.63
2432.4
4568.73
2128.39
3403.1
1949.66
2367.3
1837.85
1640.74
1744.45
1163.91
1650.16
820.319
1677.48
389.221
1937.47
-384.293
2184.61
-1124.59
2196.69
-1499.18
1994.32
-1564.92
1660.86
-1492.66
1227.4
-1376.94
730.453
-1254.33
257.658
-1106.46
-166.873
-858.018
-522.76
-649.452
-824.983
-504.753
-1095.65
-311.502
-1327.54
-124.42
-1537.51
-76.2957
-1811.8
-177.191
-2157.46
-263.527
-2499.14
-128.631
-2746.69
270.854
640.105
1122.13
-2621.5
1246.56
-2566.43
1368.56
-2523.74
1492.42
-2548.07
1617.91
-2597.09
1746.58
-2668.29
1877.44
-2733.89
2009.38
-2786.38
2141.39
-2823.28
2273.41
-2847.81
2406.35
-2863.88
2540
-2860.28
2672.06
-2813.37
2799.74
-2708.78
2919.43
-2534.83
3024.49
-2263.43
3108.91
-1867.04
3176.5
-1345.07
3219.78
-532.377
3201.29
747.363
3123.58
1913.29
3012.57
2594.48
2888.55
2868.27
2761.25
2908.9
2634.33
2839.77
2508.9
2726.03
2384.95
2598.08
2262.16
2469.4
2140.15
2346.06
2018.65
2231.11
1897.47
2126.32
1776.49
2032.5
1655.67
1949.21
1535.13
1874.16
1415.3
1802.73
1297.08
1727.9
1181.98
1640.47
1072.23
1529.93
970.764
1386.46
880.428
1204.89
803.282
985.589
740.151
733.524
693.34
443.728
670.681
113.622
671.695
-205.238
678.901
-453.143
687.28
-680.171
710.947
-950.012
757.825
-1334.8
816.717
-1814.37
898.636
-2346.75
1032.17
-2924.24
1231.51
-3541.5
1494.28
-4177.54
1813.8
-4799.08
2183.24
-5360.22
2591.79
-5800.97
3019.82
-6058.29
3440.13
-6090.61
3836.09
-5932.61
4205.31
-5641.01
4544.42
-5198.26
4845.7
-4543.31
5091.83
-3607.83
5243.68
-2317.02
5281.63
-793.064
5175.26
861.137
4882.61
2499.8
4455.83
3781.58
4053.69
4536.87
3752.88
5079.28
3464.58
5676.29
3074.35
6107.01
2600.48
5922.5
2172.35
4996.86
1890.31
3685.15
1737.92
2519.68
1644.31
1734.35
1547.05
1261.16
1476.37
891.006
1615.65
249.942
1882.24
-650.882
1952.1
-1194.46
1755.89
-1302.98
1374.38
-1183.41
860.143
-978.422
262.312
-779.111
-294.138
-697.877
-757.73
-642.864
-1125.87
-489.882
-1444.34
-330.979
-1751.16
-197.93
-2031.78
-30.8876
-2276.32
120.123
-2515
162.389
-2792.04
99.8437
-3113.88
58.3137
-3427.83
185.322
-3657.67
500.697
786.434
1023.44
-2734.19
1143.16
-2686.15
1259.14
-2639.73
1375.21
-2664.14
1491.99
-2713.87
1611.54
-2787.84
1733.2
-2855.55
1856.39
-2909.57
1980.46
-2947.35
2105.52
-2972.87
2232.55
-2990.9
2361.17
-2988.9
2488.81
-2941.01
2612.65
-2832.62
2728.93
-2651.1
2830.48
-2364.98
2910.48
-1947.03
2972.62
-1407.22
3009.57
-569.322
2986.36
770.578
2910.69
1988.96
2807.1
2698.07
2692.67
2982.7
2574.98
3026.6
2456.98
2957.77
2339.71
2843.3
2223.26
2714.54
2107.28
2585.38
1991.4
2461.94
1875.34
2347.18
1758.94
2242.72
1642.17
2149.27
1525.09
2066.29
1407.91
1991.34
1291.12
1919.52
1175.61
1843.42
1062.8
1753.28
954.843
1637.9
854.541
1486.76
764.568
1294.87
686.584
1063.58
620.621
799.493
568.294
496.063
538.917
143.009
530.279
-196.587
515.373
-438.225
495.77
-660.554
493.465
-947.7
517.757
-1359.08
574.508
-1871.12
680.866
-2453.1
843.756
-3087.13
1058.44
-3756.18
1321.81
-4440.91
1635.6
-5112.86
2000.4
-5725.01
2407.85
-6208.42
2834.75
-6485.19
3245.99
-6501.85
3619.79
-6306.41
3952.82
-5974.04
4245.56
-5491
4501.97
-4799.72
4716.7
-3822.56
4851.54
-2451.86
4897.02
-838.543
4825.38
932.782
4563.77
2761.4
4122.46
4222.89
3668.19
4991.14
3330.64
5416.83
3058.63
5948.3
2718.49
6447.15
2291.54
6349.45
1901.83
5386.56
1663.32
3923.67
1553.71
2629.28
1481.24
1806.83
1391.57
1350.83
1389.84
892.734
1581.95
57.8342
1715.83
-784.771
1585.03
-1063.65
1187.36
-905.305
562.654
-558.707
-134.992
-280.777
-714.086
-200.017
-1181.83
-230.133
-1615.55
-209.141
-1992.81
-112.623
-2317.95
-5.83802
-2613.96
98.0814
-2876.16
231.306
-3104.84
348.81
-3329.19
386.733
-3582.26
352.917
-3865.55
341.599
-4136.74
456.516
-4343.72
707.674
933.643
920.398
-2859.28
1038.46
-2804.21
1147.13
-2748.39
1254.44
-2771.44
1361.61
-2821.04
1471.46
-2897.69
1584.22
-2968.32
1699.84
-3025.18
1817.49
-3065.01
1937
-3092.37
2059.22
-3113.12
2183.65
-3113.32
2307.58
-3064.94
2428.37
-2953.4
2542.08
-2764.81
2640.95
-2463.85
2717.2
-2023.27
2774.26
-1464.27
2804.15
-599.212
2774.75
799.984
2700.24
2063.47
2603.7
2794.62
2498.51
3087.89
2389.87
3135.24
2280.04
3067.61
2170.12
2953.22
2060.39
2824.28
1950.62
2695.14
1840.48
2572.08
1729.69
2457.97
1618.15
2354.27
1505.87
2261.55
1392.98
2179.19
1279.71
2104.61
1166.55
2032.69
1054.28
1955.69
944.157
1863.41
838.135
1743.92
738.886
1586.01
648.889
1384.87
569.379
1143.09
499.446
869.434
439.73
555.788
398.753
183.999
368.287
-166.097
312.956
-382.874
262.317
-609.895
255.308
-940.681
297.667
-1401.43
386.574
-1960.02
517.609
-2584.13
685.249
-3254.76
890.934
-3961.86
1142.7
-4692.68
1449.18
-5419.34
1812.67
-6088.5
2222.34
-6618.09
2647.33
-6910.19
3040.81
-6895.33
3373.41
-6639.01
3642.35
-6242.98
3861.46
-5710.11
4058.21
-4996.47
4239.31
-4003.67
4353.15
-2565.7
4399.3
-884.685
4369.49
962.586
4168.2
2962.69
3749.53
4641.56
3270.44
5470.23
2897.77
5789.5
2625.08
6220.99
2322.83
6749.4
1946.12
6726.16
1611.36
5721.32
1441.54
4093.49
1389.25
2681.57
1344.24
1851.84
1296.72
1398.35
1370.05
819.408
1505.27
-77.3868
1433.62
-713.121
1064.94
-694.973
372.73
-213.094
-420.952
234.975
-1054.04
352.311
-1542.98
288.928
-1991.73
218.614
-2400.57
199.698
-2756.28
243.085
-3065.69
303.576
-3343.52
375.909
-3587.17
474.953
-3801.49
563.131
-4009.87
595.116
-4237.49
580.543
-4484.44
588.546
-4718.25
690.327
-4903.66
893.082
1077.67
822.337
-2983.98
933.913
-2915.79
1034.25
-2848.72
1131.45
-2868.64
1227.78
-2917.37
1328.01
-2997.92
1433.2
-3073.51
1542.93
-3134.91
1655.51
-3177.59
1770.21
-3207.07
1887.95
-3230.86
2008.35
-3233.72
2128.78
-3185.36
2246.9
-3071.52
2358.67
-2876.58
2455.56
-2560.74
2528.72
-2096.44
2581.12
-1516.66
2603.34
-621.431
2566.4
836.92
2492.27
2137.61
2402.46
2884.43
2306.24
3184.11
2206.23
3235.25
2103.99
3169.85
2000.77
3056.44
1897.15
2927.9
1793.12
2799.18
1688.42
2676.78
1582.83
2563.57
1476.27
2460.83
1368.81
2369.02
1260.56
2287.44
1151.74
2213.43
1042.72
2141.71
934.084
2064.33
826.832
1970.66
722.662
1848.09
624.091
1684.59
533.436
1475.53
451.513
1225.02
376.289
944.663
307.51
624.575
245.58
245.942
169.951
-90.4413
79.0451
-291.936
41.6628
-572.491
71.7374
-970.748
144.681
-1474.37
245.455
-2060.8
369.314
-2707.99
521.782
-3407.23
714.153
-4154.23
958.007
-4936.53
1261.78
-5723.11
1626.26
-6452.99
2037.11
-7028.93
2453.54
-7326.62
2813
-7254.79
3077.18
-6903.19
3253.38
-6419.19
3388.76
-5845.49
3543.09
-5150.8
3717.45
-4178.03
3820.34
-2668.59
3846.82
-911.161
3830.49
978.91
3692.39
3100.8
3323.09
5010.86
2848.68
5944.64
2453.73
6184.46
2170.99
6503.72
1891.31
7029.09
1560.24
7057.23
1292.76
5988.79
1217.44
4168.81
1236.05
2662.95
1241.02
1846.87
1270.16
1369.21
1361.16
728.409
1328.4
-44.6243
986.415
-371.139
215.408
76.0337
-695.46
697.773
-1361.62
901.139
-1857.64
848.322
-2295.44
726.73
-2697.58
620.752
-3063.28
565.404
-3383.36
563.16
-3663.85
584.072
-3914.04
626.1
-4132.4
693.312
-4324.29
755.018
-4508.67
779.495
-4705.02
776.898
-4913.03
796.548
-5107.2
884.503
-5263.89
1049.77
1212.63
726.959
-3108.08
832.396
-3021.22
922.39
-2938.71
1007.1
-2953.35
1092.24
-3002.5
1184.4
-3090.08
1284.08
-3173.19
1389.32
-3240.14
1497.21
-3285.48
1606.81
-3316.67
1719.62
-3343.67
1835.64
-3349.74
1952.41
-3302.13
2068.02
-3187.13
2178.28
-2986.83
2273.73
-2656.19
2344.43
-2167.13
2392.62
-1564.85
2406.72
-635.522
2361.2
882.442
2286.84
2211.97
2203.49
2967.78
2115.97
3271.64
2024.22
3327
1929.13
3264.94
1832.15
3153.43
1734.21
3025.84
1635.59
2897.8
1536.17
2776.21
1435.8
2663.94
1334.44
2562.2
1232.13
2471.33
1128.97
2390.6
1025.06
2317.34
920.556
2246.22
815.768
2169.12
711.34
2075.1
608.668
1950.77
510.143
1783.12
417.995
1567.68
332.652
1310.37
250.737
1026.59
172.192
703.131
84.6729
333.478
-45.1435
39.4058
-105.006
-232.028
-96.0543
-581.418
-48.3846
-1018.41
21.1037
-1543.85
105.308
-2145
211.334
-2814.01
351.214
-3547.11
535.892
-4338.9
774.954
-5175.59
1076.09
-6024.24
1439.69
-6816.59
1847.58
-7436.83
2245.16
-7724.19
2549.33
-7558.96
2717.07
-7070.92
2790.01
-6492.13
2870.57
-5926.04
3035.01
-5315.24
3241.58
-4384.6
3348.09
-2775.1
3335.49
-898.559
3274.72
1039.68
3159.61
3215.91
2842.37
5328.09
2395.52
6391.49
1995.85
6584.12
1700.86
6798.72
1428.76
7301.18
1132.77
7353.22
941.632
6179.94
980.246
4130.2
1082.21
2560.99
1160.13
1768.95
1244.04
1285.3
1269.85
702.595
984.361
240.868
104.619
508.603
-955.382
1136.04
-1656.6
1398.99
-2136.92
1381.45
-2536.66
1248.06
-2902.92