/*--------------------------------*- C++ -*----------------------------------*\
| =========                 |                                                 |
| \\      /  F ield         | OpenFOAM: The Open Source CFD Toolbox           |
|  \\    /   O peration     | Version:  4.1                                   |
|   \\  /    A nd           | Web:      www.OpenFOAM.org                      |
|    \\/     M anipulation  |                                                 |
\*---------------------------------------------------------------------------*/
FoamFile
{
    version     2.0;
    format      ascii;
    class       volVectorField;
    location    "1000";
    object      U;
}
// * * * * * * * * * * * * * * * * * * * * * * * * * * * * * * * * * * * * * //

dimensions      [0 1 -1 0 0 0 0];

internalField   nonuniform List<vector> 
26785
(
(1.39281e-15 -0.0501964 12.1828)
(1.44298e-15 -0.0437066 13.1142)
(1.34209e-15 -0.0416614 14.0074)
(1.12885e-15 -0.0421084 14.9116)
(3.03173e-16 -0.0443699 15.8572)
(1.1476e-15 -0.0478652 16.849)
(1.14697e-16 -0.0516546 17.8814)
(5.24254e-16 -0.0552355 18.9416)
(-8.04928e-16 -0.0583682 20.0153)
(1.95554e-15 -0.0609027 21.0894)
(6.71725e-16 -0.0627104 22.1524)
(1.01421e-15 -0.0634031 23.1921)
(8.81752e-16 -0.062309 24.1882)
(1.00238e-15 -0.0588598 25.1097)
(1.17106e-15 -0.052243 25.9249)
(1.3459e-15 -0.0399034 26.584)
(1.38361e-15 -0.0181473 26.988)
(1.45738e-15 0.0118207 27.026)
(1.24274e-15 0.0464968 26.615)
(2.61173e-15 0.0808692 25.7179)
(2.61701e-15 0.105358 24.4211)
(3.20579e-15 0.117561 22.9125)
(3.43899e-15 0.120943 21.3553)
(3.68947e-15 0.119371 19.8392)
(4.29871e-15 0.115372 18.4033)
(3.73789e-15 0.110314 17.061)
(3.49353e-15 0.104865 15.8141)
(3.09495e-15 0.0993408 14.6592)
(2.16575e-15 0.0938959 13.5913)
(5.60894e-16 0.0886183 12.6045)
(-2.39067e-15 0.0835616 11.693)
(-2.56304e-15 0.0787528 10.8506)
(-4.91517e-15 0.0741879 10.072)
(-2.30733e-15 0.0698232 9.35202)
(-5.83739e-15 0.0655669 8.68673)
(-8.52033e-15 0.0612781 8.07351)
(-1.07292e-14 0.0567736 7.51149)
(-1.29655e-14 0.0518484 7.00179)
(-1.40795e-14 0.0463106 6.54746)
(-1.66856e-14 0.0400287 6.15306)
(-1.1104e-14 0.0329609 5.82391)
(-1.12902e-14 0.0251952 5.56487)
(-9.15191e-15 0.016868 5.37983)
(-2.06436e-14 0.00846492 5.27003)
(-2.239e-14 0.000496157 5.23232)
(-3.16344e-14 -0.00674765 5.25862)
(-3.02748e-14 -0.0140772 5.34286)
(-3.09712e-14 -0.0226828 5.48834)
(-3.06123e-14 -0.0333466 5.70763)
(-3.08899e-14 -0.0462444 6.01715)
(-2.49149e-14 -0.0609598 6.43109)
(-2.27641e-14 -0.0767294 6.95768)
(-2.03726e-14 -0.0927562 7.59857)
(-1.90116e-14 -0.108302 8.34904)
(-1.8228e-14 -0.122525 9.19769)
(-1.72714e-14 -0.134343 10.1265)
(-1.78558e-14 -0.142578 11.1115)
(-1.84876e-14 -0.146258 12.1241)
(-1.96415e-14 -0.144887 13.1329)
(-1.93232e-14 -0.138458 14.1054)
(-2.00138e-14 -0.127155 15.0102)
(-2.06791e-14 -0.110863 15.8165)
(-2.16553e-14 -0.0890827 16.4919)
(-1.89283e-14 -0.0615396 17.0012)
(-1.91893e-14 -0.0286025 17.3095)
(-1.93883e-14 0.0080819 17.3887)
(-1.948e-14 0.0461125 17.2253)
(-1.94149e-14 0.0827537 16.8228)
(-1.93061e-14 0.114673 16.2044)
(-1.92857e-14 0.139403 15.4123)
(-1.80032e-14 0.155694 14.5)
(-1.83727e-14 0.162983 13.5237)
(-1.78149e-14 0.160996 12.5398)
(-1.683e-14 0.150122 11.6033)
(-1.60896e-14 0.131964 10.763)
(-1.47806e-14 0.109208 10.054)
(-1.35448e-14 0.0847089 9.49255)
(-1.27606e-14 0.0601029 9.07899)
(-1.19179e-14 0.0349603 8.80495)
(-1.11825e-14 0.00799186 8.66373)
(-1.01495e-14 -0.0214532 8.65355)
(-1.02005e-14 -0.0523105 8.77142)
(-9.37568e-15 -0.0823884 9.00872)
(-8.32108e-15 -0.110279 9.35214)
(-7.9522e-15 -0.136414 9.79219)
(-7.41912e-15 -0.162081 10.331)
(-6.68372e-15 -0.187221 10.9803)
(-6.01348e-15 -0.208678 11.7478)
(-5.7987e-15 -0.220744 12.6221)
(-5.0142e-15 -0.21814 13.5676)
(-4.01886e-15 -0.198063 14.5297)
(-3.12986e-15 -0.160789 15.4404)
(-2.29489e-15 -0.11079 16.2253)
(-1.51156e-15 -0.0565999 16.8233)
(-6.93446e-16 -0.00804085 17.2049)
(9.06305e-17 0.0287871 17.3848)
(7.57345e-16 0.0514052 17.3934)
(1.26756e-15 0.062078 17.2918)
(1.72311e-15 0.0634596 17.1169)
(1.6222e-15 0.0356741 16.8997)
(1.26047e-15 -0.121093 12.1119)
(2.34743e-15 -0.12016 13.1306)
(1.51777e-15 -0.127251 14.1823)
(1.31427e-15 -0.137729 15.2779)
(1.42182e-15 -0.14956 16.411)
(1.3993e-15 -0.161504 17.5631)
(1.34347e-15 -0.171666 18.7173)
(3.34371e-15 -0.179519 19.8584)
(3.82969e-15 -0.185167 20.975)
(3.26531e-15 -0.18875 22.0595)
(3.36703e-15 -0.190226 23.1061)
(2.98513e-15 -0.188587 24.108)
(2.88728e-15 -0.181846 25.0494)
(2.64902e-15 -0.168181 25.9037)
(4.50712e-15 -0.145332 26.6418)
(3.40637e-15 -0.107058 27.2227)
(2.07171e-15 -0.0432404 27.5696)
(1.78245e-15 0.0457363 27.5886)
(1.73084e-15 0.152854 27.1593)
(9.38444e-17 0.260838 26.2029)
(1.94161e-15 0.336817 24.8124)
(1.83254e-16 0.372734 23.2002)
(2.86281e-15 0.380094 21.5474)
(2.56715e-15 0.371807 19.9524)
(2.89277e-15 0.356286 18.4563)
(3.54737e-15 0.338027 17.0709)
(3.18374e-15 0.319151 15.7951)
(3.02172e-15 0.300589 14.623)
(2.68692e-15 0.282746 13.5465)
(9.36699e-16 0.265808 12.5577)
(7.99179e-16 0.249862 11.6486)
(5.88926e-16 0.234923 10.8118)
(-5.34184e-16 0.220927 10.0405)
(-4.28741e-16 0.2077 9.32868)
(-4.48068e-15 0.194934 8.67165)
(-6.07349e-15 0.182179 8.06612)
(-6.89268e-15 0.168864 7.51076)
(-7.79308e-15 0.154356 7.00634)
(-8.54292e-15 0.138062 6.55569)
(-8.97922e-15 0.11957 6.16325)
(-1.16053e-14 0.0987328 5.83437)
(-4.67293e-15 0.0757818 5.57402)
(-5.04136e-15 0.0510927 5.38643)
(3.56327e-15 0.0260003 5.27318)
(3.11462e-15 0.00201078 5.23199)
(2.58708e-15 -0.0198878 5.25522)
(-5.33251e-15 -0.0420001 5.33679)
(-6.21927e-15 -0.0678739 5.47957)
(-1.51889e-14 -0.099916 5.69581)
(-8.64728e-15 -0.138627 6.00154)
(-1.11121e-14 -0.182688 6.41093)
(-9.5508e-15 -0.229911 6.93245)
(-7.24771e-15 -0.277824 7.56594)
(-1.11077e-14 -0.323534 8.30235)
(-9.54574e-15 -0.363867 9.12782)
(-1.20011e-14 -0.395945 10.0278)
(-1.52733e-14 -0.417551 10.9861)
(-1.6772e-14 -0.427073 11.981)
(-1.74083e-14 -0.423498 12.9833)
(-1.61489e-14 -0.406408 13.9592)
(-1.44145e-14 -0.375551 14.8737)
(-1.09179e-14 -0.329816 15.693)
(-8.70005e-15 -0.267198 16.3825)
(-9.16687e-15 -0.18668 16.9057)
(-6.96778e-15 -0.089371 17.2272)
(-6.2386e-15 0.0196923 17.3193)
(-5.9182e-15 0.133136 17.1689)
(-6.9225e-15 0.242623 16.7794)
(-4.75882e-15 0.338203 16.1737)
(-5.28061e-15 0.41254 15.3938)
(-6.30483e-15 0.461958 14.4929)
(-6.62644e-15 0.48475 13.5268)
(-7.65557e-15 0.4799 12.5511)
(-8.91024e-15 0.448301 11.6209)
(-9.77354e-15 0.394649 10.7856)
(-1.03344e-14 0.32702 10.0804)
(-1.06828e-14 0.254012 9.52066)
(-1.01841e-14 0.181886 9.10452)
(-1.16602e-14 0.112961 8.81653)
(-1.18829e-14 0.046857 8.63571)
(-1.01878e-14 -0.0170699 8.54545)
(-1.02283e-14 -0.0773817 8.53117)
(-9.23141e-15 -0.132145 8.58055)
(-6.04823e-15 -0.182358 8.68157)
(-4.18863e-15 -0.233519 8.82692)
(-3.31702e-15 -0.292208 9.01922)
(-4.61857e-15 -0.360507 9.27199)
(-3.14242e-15 -0.43269 9.60556)
(9.15251e-16 -0.497305 10.0371)
(3.59221e-15 -0.542914 10.5731)
(4.52877e-15 -0.55868 11.2109)
(4.295e-15 -0.53357 11.9351)
(3.46968e-15 -0.463412 12.7075)
(1.88455e-15 -0.357495 13.4711)
(7.34665e-16 -0.23653 14.1616)
(3.13715e-16 -0.119831 14.7315)
(6.38104e-17 -0.0229417 15.1399)
(1.26346e-16 0.0481525 15.3885)
(-2.97616e-17 0.0929402 15.4835)
(-4.21842e-16 0.0617075 15.4536)
(1.42073e-15 -0.214795 12.0881)
(1.80424e-16 -0.225143 13.3216)
(7.63718e-16 -0.239561 14.5728)
(2.11846e-15 -0.254759 15.8006)
(5.18278e-15 -0.269118 16.9886)
(4.26838e-15 -0.282431 18.1321)
(2.67597e-15 -0.292932 19.2332)
(4.0735e-15 -0.300455 20.2932)
(3.98707e-15 -0.305389 21.3126)
(3.9897e-15 -0.307944 22.2916)
(3.79336e-15 -0.307913 23.2297)
(3.54756e-15 -0.303466 24.1241)
(3.33147e-15 -0.291177 24.9623)
(3.12612e-15 -0.267962 25.7207)
(2.16043e-15 -0.230579 26.3745)
(3.73287e-15 -0.170436 26.8927)
(1.37185e-15 -0.0712704 27.2182)
(4.29523e-15 0.071828 27.2794)
(1.19934e-15 0.25298 26.9476)
(2.95224e-15 0.441013 26.086)
(3.12903e-15 0.574308 24.7469)
(4.22104e-16 0.636739 23.146)
(8.5795e-16 0.648268 21.4821)
(1.88775e-15 0.631989 19.8684)
(2.17982e-15 0.603106 18.3545)
(2.31535e-15 0.569751 16.9562)
(2.74461e-15 0.535743 15.6736)
(2.49649e-15 0.502724 14.5004)
(2.33578e-15 0.471364 13.4277)
(1.88751e-15 0.441933 12.4463)
(1.06616e-15 0.414517 11.5472)
(2.01187e-15 0.389089 10.7218)
(2.1287e-16 0.365491 9.96245)
(-1.05954e-15 0.343393 9.26234)
(-2.65042e-15 0.322246 8.616)
(-4.36446e-15 0.301267 8.01965)
(-5.48158e-15 0.279475 7.4715)
(-6.13012e-15 0.255778 6.97203)
(-6.87795e-15 0.229153 6.52394)
(-7.538e-15 0.198879 6.13167)
(-8.59847e-15 0.164674 5.80074)
(-9.11519e-15 0.126882 5.53636)
(-9.71716e-15 0.0860964 5.34327)
(-1.04139e-14 0.0444078 5.22346)
(-1.11954e-14 0.00434424 5.17547)
(-1.22257e-14 -0.0323033 5.19204)
(-1.24852e-14 -0.0692513 5.26681)
(-1.08174e-14 -0.112353 5.40212)
(-7.11277e-15 -0.165578 5.6095)
(-4.28155e-15 -0.229831 5.90509)
(-2.26202e-15 -0.303125 6.30423)
(-4.09129e-15 -0.381242 6.81225)
(-9.64029e-15 -0.458716 7.42157)
(-1.49787e-14 -0.530876 8.12342)
(-1.79629e-14 -0.59514 8.91776)
(-1.93582e-14 -0.649554 9.80583)
(-1.67836e-14 -0.690576 10.7755)
(-1.21268e-14 -0.71311 11.7961)
(-6.89565e-15 -0.712733 12.8256)
(-3.6463e-15 -0.687399 13.8209)
(-1.48761e-15 -0.636844 14.7446)
(-1.01005e-16 -0.560052 15.5648)
(6.26246e-16 -0.454543 16.2505)
(5.78674e-16 -0.31924 16.7682)
(2.41593e-15 -0.156313 17.0846)
(5.09772e-15 0.0257559 17.1734)
(4.82837e-15 0.215085 17.0223)
(4.12682e-15 0.398095 16.6333)
(4.56053e-15 0.55808 16.0299)
(4.35775e-15 0.682526 15.2554)
(3.4677e-15 0.765346 14.3641)
(2.33171e-15 0.80386 13.411)
(6.50998e-16 0.796368 12.4504)
(-1.41283e-15 0.744222 11.536)
(-2.70397e-15 0.655258 10.7165)
(-4.02136e-15 0.543346 10.0257)
(-4.92832e-15 0.423649 9.47608)
(-5.38281e-15 0.307887 9.06059)
(-5.41326e-15 0.201465 8.75961)
(-4.92527e-15 0.104558 8.5503)
(-4.12016e-15 0.0145686 8.41883)
(-2.38771e-15 -0.0684611 8.35722)
(-3.03683e-15 -0.142157 8.35694)
(-3.25793e-15 -0.206843 8.40303)
(-3.24231e-15 -0.268946 8.47615)
(-2.06443e-15 -0.338009 8.56077)
(1.86394e-15 -0.420972 8.66182)
(7.65112e-15 -0.516205 8.80922)
(1.30924e-14 -0.612429 9.02458)
(1.54298e-14 -0.697189 9.29759)
(1.60425e-14 -0.759015 9.61248)
(1.50842e-14 -0.7822 9.97276)
(1.26822e-14 -0.753287 10.3922)
(1.01949e-14 -0.67099 10.8807)
(7.59329e-15 -0.548182 11.4286)
(5.07407e-15 -0.39943 12.0064)
(2.7535e-15 -0.244531 12.5452)
(9.10772e-16 -0.101265 12.99)
(-1.48324e-15 0.0150712 13.2755)
(-5.85548e-16 0.0330255 13.4522)
(1.32549e-15 -0.325606 12.1599)
(1.27131e-15 -0.343668 13.571)
(3.351e-15 -0.357121 14.8701)
(5.5234e-15 -0.369064 16.0484)
(4.11309e-15 -0.380596 17.1376)
(3.86946e-15 -0.392715 18.1656)
(5.70778e-15 -0.402954 19.1507)
(5.35353e-15 -0.410598 20.0998)
(4.01519e-15 -0.415688 21.0144)
(4.05291e-15 -0.418182 21.8939)
(3.73344e-15 -0.417629 22.7373)
(3.2772e-15 -0.411424 23.5418)
(3.09551e-15 -0.394798 24.2957)
(1.2807e-15 -0.36362 24.9771)
(7.79593e-16 -0.314093 25.5644)
(-2.21735e-16 -0.236321 26.0326)
(9.56624e-17 -0.10954 26.3382)
(-2.17864e-15 0.077292 26.4354)
(-8.38291e-16 0.325318 26.2135)
(-4.24355e-16 0.595435 25.4933)
(9.51865e-16 0.79309 24.2723)
(-9.63842e-18 0.888821 22.7535)
(4.70122e-16 0.909136 21.1437)
(7.31277e-16 0.887429 19.5665)
(1.22825e-15 0.846359 18.0794)
(1.67656e-15 0.798286 16.7033)
(2.16971e-15 0.749128 15.4408)
(2.53894e-15 0.701485 14.2869)
(2.7154e-15 0.656433 13.233)
(2.42503e-15 0.614391 12.27)
(2.71863e-15 0.575482 11.3885)
(4.12749e-15 0.539647 10.5796)
(3.58338e-15 0.506638 9.83529)
(2.91564e-15 0.475963 9.14828)
(-2.05873e-15 0.446821 8.51279)
(2.06064e-15 0.418082 7.92474)
(-1.1184e-15 0.388329 7.3822)
(-3.8269e-15 0.355988 6.8856)
(7.42408e-16 0.319571 6.43773)
(-7.85311e-15 0.27802 6.04332)
(-9.41253e-15 0.230895 5.70821)
(-2.51795e-15 0.178621 5.438)
(-5.46569e-16 0.121979 5.23801)
(-1.04303e-14 0.0637843 5.11073)
(-8.24371e-15 0.00765534 5.05523)
(-1.1058e-14 -0.0436646 5.06461)
(-2.02554e-15 -0.0952714 5.13189)
(6.73852e-15 -0.155216 5.25828)
(6.21253e-15 -0.229207 5.45494)
(-3.6089e-15 -0.318976 5.74022)
(-9.15916e-15 -0.420805 6.12652)
(-2.05703e-14 -0.526729 6.60917)
(-2.68987e-14 -0.63046 7.18402)
(-2.38836e-14 -0.730874 7.86582)
(-1.65517e-14 -0.827283 8.67189)
(-7.85001e-15 -0.913324 9.59409)
(-2.25532e-15 -0.977821 10.5956)
(1.64494e-16 -1.01055 11.6283)
(-6.56968e-16 -1.0065 12.6483)
(-4.83545e-15 -0.965846 13.6205)
(-7.8234e-15 -0.890783 14.5174)
(-1.23669e-14 -0.780886 15.314)
(-1.45555e-14 -0.632498 15.9819)
(-1.58852e-14 -0.443489 16.4871)
(-1.58428e-14 -0.216294 16.7931)
(-1.65642e-14 0.0373183 16.8706)
(-1.38284e-14 0.30061 16.7068)
(-8.33415e-15 0.554509 16.3054)
(-4.1914e-15 0.775834 15.6919)
(-1.60303e-16 0.947232 14.9133)
(1.01799e-15 1.06076 14.0262)
(2.86584e-15 1.11316 13.0858)
(3.06942e-15 1.10206 12.1447)
(2.76541e-15 1.02911 11.2548)
(8.88052e-16 0.905284 10.4627)
(5.36561e-17 0.750656 9.79916)
(-6.6899e-16 0.587433 9.27204)
(2.23302e-17 0.432508 8.86883)
(7.19242e-16 0.292964 8.56735)
(9.57211e-16 0.167544 8.34542)
(1.12547e-15 0.0512125 8.189)
(9.59922e-16 -0.0566183 8.09145)
(7.36216e-16 -0.150851 8.0483)
(-2.12175e-15 -0.228559 8.04924)
(-3.30633e-15 -0.295361 8.07179)
(6.2832e-16 -0.366734 8.09937)
(8.0688e-15 -0.461261 8.16447)
(1.55636e-14 -0.580137 8.33022)
(1.99318e-14 -0.696857 8.59303)
(2.02992e-14 -0.786934 8.87093)
(2.06345e-14 -0.845973 9.09375)
(1.98737e-14 -0.872385 9.2492)
(1.78227e-14 -0.862382 9.36466)
(1.6225e-14 -0.816373 9.48912)
(1.4187e-14 -0.738632 9.67675)
(1.17618e-14 -0.623285 9.96341)
(9.10537e-15 -0.471947 10.3241)
(6.97409e-15 -0.293408 10.6992)
(5.49252e-15 -0.131968 10.9854)
(9.38737e-15 -0.0490273 11.2906)
(1.3987e-15 -0.45 12.2715)
(2.73536e-15 -0.465004 13.672)
(3.2339e-15 -0.469692 14.867)
(3.00345e-15 -0.475583 15.9231)
(4.30871e-15 -0.48467 16.9014)
(4.13816e-15 -0.496995 17.8333)
(2.91598e-15 -0.508166 18.7327)
(4.27813e-15 -0.516601 19.6019)
(3.54546e-15 -0.522068 20.4395)
(3.14393e-15 -0.524479 21.2439)
(3.247e-15 -0.523329 22.0136)
(1.60156e-15 -0.51538 22.7461)
(2.2162e-15 -0.49465 23.4307)
(-8.46392e-16 -0.456115 24.0469)
(-3.29566e-16 -0.39561 24.576)
(6.96109e-16 -0.302536 24.9974)
(5.51932e-16 -0.153148 25.2758)
(9.52672e-16 0.069013 25.3854)
(6.70316e-16 0.375059 25.2421)
(2.4184e-16 0.724914 24.6461)
(4.54825e-16 0.989775 23.5472)
(-5.11645e-16 1.12298 22.1313)
(2.72692e-18 1.15573 20.6049)
(1.07737e-16 1.1313 19.095)
(4.91573e-16 1.07993 17.6631)
(9.9751e-16 1.01846 16.3331)
(1.40786e-15 0.9551 15.1102)
(1.70341e-15 0.893547 13.9906)
(2.40083e-15 0.835386 12.9669)
(2.49143e-15 0.781253 12.0305)
(2.69683e-15 0.73135 11.1723)
(3.22223e-15 0.685613 10.3836)
(3.02723e-15 0.64372 9.65619)
(5.32582e-15 0.605025 8.98293)
(2.51745e-15 0.568472 8.35796)
(2.26098e-15 0.532574 7.77724)
(3.11906e-15 0.495459 7.23891)
(2.21444e-15 0.45504 6.74366)
(1.84802e-15 0.409343 6.29465)
(6.26329e-16 0.356948 5.89702)
(-7.34937e-16 0.297248 5.55715)
(1.27662e-15 0.230739 5.28106)
(-7.42434e-15 0.158346 5.07464)
(-8.791e-15 0.0836343 4.94079)
(-8.54608e-15 0.0113706 4.87882)
(-9.01911e-15 -0.0545788 4.88222)
(-9.45841e-15 -0.120596 4.94286)
(-1.15198e-14 -0.196998 5.06063)
(-1.25134e-14 -0.291804 5.24895)
(-2.01519e-14 -0.406551 5.52532)
(-2.24076e-14 -0.533765 5.89047)
(-2.68601e-14 -0.664973 6.3421)
(-2.10581e-14 -0.799501 6.90498)
(-1.11359e-14 -0.938235 7.61008)
(-3.31619e-15 -1.07269 8.45236)
(-6.92611e-16 -1.18652 9.39131)
(-4.35673e-15 -1.26484 10.3808)
(-1.18944e-14 -1.29958 11.3858)
(-1.92613e-14 -1.28888 12.3787)
(-2.59077e-14 -1.2347 13.3338)
(-2.84639e-14 -1.13932 14.2248)
(-3.31879e-14 -1.00062 15.0249)
(-3.44591e-14 -0.812275 15.702)
(-3.43655e-14 -0.57053 16.2178)
(-3.44757e-14 -0.277974 16.5311)
(-2.82462e-14 0.0496953 16.608)
(-2.79701e-14 0.389722 16.4317)
(-2.22452e-14 0.716353 16.0029)
(-1.8558e-14 0.998854 15.3497)
(-1.13862e-14 1.21477 14.5277)
(-5.78506e-15 1.35513 13.6035)
(-1.32793e-15 1.41727 12.6386)
(9.30998e-16 1.39881 11.6879)
(2.71072e-15 1.30203 10.8031)
(2.45409e-15 1.14158 10.0289)
(1.44594e-15 0.944376 9.39121)
(-9.81539e-16 0.73993 8.89091)
(-3.39972e-16 0.549728 8.50819)
(1.46044e-16 0.381662 8.21594)
(4.90557e-17 0.233309 7.99081)
(3.56187e-16 0.0983685 7.81736)
(-1.96904e-15 -0.0267615 7.68978)
(-2.66881e-15 -0.137325 7.61096)
(-2.50448e-15 -0.226744 7.57646)
(1.28708e-15 -0.299906 7.56075)
(8.93897e-15 -0.385871 7.57126)
(1.70158e-14 -0.520843 7.70408)
(2.09509e-14 -0.691117 8.02619)
(2.10699e-14 -0.828517 8.44309)
(2.0644e-14 -0.896639 8.8)
(1.95366e-14 -0.913029 9.01898)
(1.91636e-14 -0.898553 9.10216)
(1.88502e-14 -0.86336 9.07987)
(1.88975e-14 -0.818935 8.99709)
(1.9191e-14 -0.77266 8.92378)
(1.98269e-14 -0.704634 8.9318)
(2.04892e-14 -0.589858 9.05008)
(2.09074e-14 -0.416291 9.22357)
(2.25262e-14 -0.264798 9.39164)
(2.2624e-14 -0.145039 9.61363)
(1.83507e-15 -0.58903 12.2484)
(1.70057e-15 -0.580409 13.5298)
(2.45733e-15 -0.573985 14.6158)
(2.74042e-15 -0.57596 15.5817)
(3.65993e-15 -0.584242 16.4816)
(4.11494e-15 -0.597353 17.3408)
(3.96775e-15 -0.60942 18.1704)
(3.18308e-15 -0.618441 18.9719)
(3.12554e-15 -0.624116 19.7437)
(3.32923e-15 -0.626368 20.4839)
(2.59772e-15 -0.624641 21.1907)
(9.20283e-16 -0.615066 21.8618)
(1.23081e-15 -0.590481 22.4867)
(1.50063e-15 -0.545144 23.0456)
(1.61246e-15 -0.474707 23.5218)
(1.97259e-15 -0.368232 23.898)
(2.04487e-15 -0.200142 24.1446)
(3.94083e-15 0.0504292 24.2523)
(3.73047e-15 0.406011 24.1646)
(1.45003e-15 0.831773 23.6715)
(-1.16145e-15 1.16426 22.6817)
(-1.31442e-15 1.33698 21.368)
(-9.0829e-16 1.38457 19.9339)
(-1.92409e-15 1.35975 18.5055)
(-7.93169e-16 1.30017 17.144)
(-1.12174e-16 1.22707 15.8742)
(7.25845e-16 1.15097 14.7024)
(1.33496e-15 1.07673 13.6264)
(1.97629e-15 1.00651 12.6399)
(1.6945e-15 0.941203 11.7349)
(1.89795e-15 0.881137 10.9032)
(9.05229e-16 0.826276 10.1364)
(9.92622e-16 0.776245 9.42678)
(1.83545e-15 0.730254 8.7673)
(2.50249e-15 0.686993 8.15238)
(7.4042e-15 0.644605 7.5782)
(8.7217e-15 0.600744 7.04328)
(8.66767e-15 0.552792 6.54873)
(7.85664e-15 0.498261 6.09823)
(7.92566e-15 0.435364 5.69754)
(2.51276e-15 0.363332 5.35358)
(-7.98177e-15 0.282744 5.07271)
(-8.5935e-15 0.194629 4.86135)
(-1.56912e-14 0.103362 4.72264)
(-1.70854e-14 0.0149017 4.65598)
(-1.755e-14 -0.0655063 4.65537)
(-1.80529e-14 -0.145563 4.71074)
(-1.63803e-14 -0.238398 4.82258)
(-1.45218e-14 -0.353823 5.00623)
(-1.34071e-14 -0.490864 5.26871)
(-1.37948e-14 -0.641019 5.60695)
(-8.50799e-15 -0.802177 6.04711)
(-1.89207e-15 -0.976605 6.6331)
(1.6505e-17 -1.15595 7.36951)
(-5.3181e-15 -1.32104 8.21819)
(-1.51754e-14 -1.45395 9.1387)
(-2.51302e-14 -1.54368 10.1061)
(-3.2177e-14 -1.58415 11.1001)
(-3.51789e-14 -1.57241 12.0943)
(-3.60385e-14 -1.5089 13.0564)
(-3.48288e-14 -1.3953 13.9559)
(-3.4494e-14 -1.22828 14.7651)
(-3.16821e-14 -0.999475 15.4532)
(-3.02247e-14 -0.703691 15.9828)
(-2.68387e-14 -0.343343 16.3113)
(-2.49022e-14 0.0623037 16.4021)
(-2.40151e-14 0.484955 16.2319)
(-2.23801e-14 0.891353 15.79)
(-2.25519e-14 1.24042 15.0979)
(-1.78315e-14 1.50234 14.2151)
(-1.33608e-14 1.66698 13.2203)
(-6.99953e-15 1.73347 12.1878)
(-2.07653e-15 1.70075 11.1827)
(9.57522e-16 1.57291 10.264)
(3.26648e-15 1.36974 9.47861)
(4.15105e-15 1.12637 8.84918)
(2.80834e-15 0.880359 8.36797)
(2.74384e-15 0.657447 8.00467)
(2.83236e-15 0.464974 7.72355)
(2.48583e-15 0.297596 7.49795)
(2.52647e-15 0.14677 7.31214)
(3.51344e-15 0.00474691 7.16433)
(7.58294e-15 -0.123006 7.06387)
(1.67528e-14 -0.223709 7.00085)
(2.27876e-14 -0.308367 6.957)
(2.36964e-14 -0.435086 7.02021)
(2.37604e-14 -0.647316 7.33868)
(2.12557e-14 -0.874507 7.86332)
(1.77876e-14 -1.00279 8.37713)
(1.48178e-14 -1.01603 8.72752)
(1.3654e-14 -0.970584 8.89482)
(1.38569e-14 -0.903705 8.9237)
(1.42512e-14 -0.828367 8.85114)
(1.56103e-14 -0.765223 8.70522)
(1.82286e-14 -0.731841 8.5453)
(2.11895e-14 -0.704509 8.44664)
(2.34524e-14 -0.627706 8.45896)
(2.43605e-14 -0.46996 8.50019)
(2.49966e-14 -0.32648 8.55506)
(1.84309e-14 -0.182814 8.45093)
(2.78753e-15 -0.70196 12.0581)
(3.04058e-15 -0.687056 13.2456)
(2.80251e-15 -0.674261 14.2465)
(3.63197e-15 -0.673051 15.1327)
(4.15256e-15 -0.680319 15.9598)
(4.09581e-15 -0.694176 16.7528)
(2.9222e-15 -0.707306 17.5217)
(2.41439e-15 -0.717151 18.2662)
(2.702e-15 -0.723197 18.9833)
(1.89826e-15 -0.72534 19.6698)
(7.03827e-16 -0.723021 20.3233)
(1.52087e-15 -0.711788 20.9416)
(1.34726e-15 -0.683352 21.5147)
(1.51219e-15 -0.631351 22.0236)
(1.30648e-15 -0.551375 22.4531)
(2.86173e-15 -0.432494 22.787)
(3.39617e-15 -0.248582 22.9979)
(1.70365e-15 0.0243817 23.0901)
(2.18184e-15 0.42143 23.0373)
(-3.35242e-16 0.918971 22.6299)
(-3.87974e-17 1.31848 21.7365)
(-5.96508e-16 1.53124 20.5186)
(-9.47662e-16 1.59483 19.1775)
(-1.83091e-15 1.57122 17.8359)
(-1.45418e-15 1.50527 16.5522)
(-4.3432e-16 1.42238 15.3501)
(3.02849e-16 1.33525 14.2361)
(1.58283e-16 1.24984 13.2088)
(1.86681e-15 1.16887 12.263)
(1.51234e-15 1.09354 11.3919)
(1.11665e-15 1.02433 10.588)
(9.10985e-16 0.961274 9.84373)
(8.48716e-16 0.903963 9.15182)
(8.48799e-16 0.851473 8.50575)
(1.09333e-15 0.802242 7.90032)
(5.7171e-15 0.754033 7.33217)
(7.10876e-15 0.704011 6.80033)
(8.32647e-15 0.649006 6.30647)
(8.64342e-15 0.586001 5.85494)
(1.02005e-14 0.512848 5.45212)
(2.61796e-15 0.428646 5.10544)
(1.14903e-15 0.33408 4.82152)
(-7.59624e-15 0.230235 4.60714)
(-9.69816e-15 0.122335 4.46548)
(-1.16021e-14 0.0175925 4.39617)
(-1.30105e-14 -0.0770437 4.39354)
(-1.42031e-14 -0.171036 4.44578)
(-9.16648e-15 -0.280412 4.55576)
(-9.16527e-15 -0.414621 4.73346)
(-1.24247e-14 -0.571128 4.97514)
(-1.12286e-14 -0.747116 5.29758)
(-1.0763e-15 -0.945855 5.75356)
(-1.9696e-15 -1.16186 6.36819)
(-1.00495e-14 -1.37538 7.1129)
(-2.15996e-14 -1.56565 7.94944)
(-3.05226e-14 -1.71872 8.8561)
(-3.49593e-14 -1.82429 9.81615)
(-3.46605e-14 -1.87336 10.8044)
(-3.037e-14 -1.86039 11.7874)
(-2.53651e-14 -1.78588 12.7314)
(-1.96586e-14 -1.65304 13.6096)
(-1.40989e-14 -1.45829 14.4015)
(-9.2452e-15 -1.19101 15.0815)
(-8.93692e-15 -0.843812 15.6155)
(-7.55578e-15 -0.417761 15.9608)
(-1.27797e-14 0.0652156 16.0791)
(-1.35588e-14 0.573284 15.9459)
(-1.69321e-14 1.0673 15.5385)
(-2.23902e-14 1.49357 14.858)
(-2.29755e-14 1.81081 13.9513)
(-2.24107e-14 2.0048 12.8987)
(-1.59821e-14 2.07543 11.7867)
(-9.57116e-15 2.0233 10.6977)
(-3.69706e-15 1.85578 9.70857)
(1.11483e-15 1.60036 8.87889)
(4.78762e-15 1.30332 8.23337)
(7.8477e-15 1.01217 7.75651)
(1.12419e-14 0.756966 7.40533)
(1.24517e-14 0.542894 7.13289)
(1.20443e-14 0.360139 6.90735)
(1.45735e-14 0.196837 6.71406)
(1.64516e-14 0.0407346 6.55856)
(1.95493e-14 -0.0999683 6.44634)
(2.53675e-14 -0.210397 6.35211)
(2.83735e-14 -0.329802 6.32711)
(2.67424e-14 -0.549063 6.57764)
(2.10233e-14 -0.857031 7.13908)
(1.32802e-14 -1.10088 7.75627)
(7.54625e-15 -1.17156 8.20424)
(3.53094e-15 -1.10793 8.423)
(1.45445e-15 -1.00339 8.46289)
(1.27516e-15 -0.896518 8.40287)
(1.87154e-15 -0.790253 8.2809)
(3.84123e-15 -0.710471 8.10144)
(6.33818e-15 -0.686969 7.89954)
(8.54306e-15 -0.694672 7.74375)
(9.27592e-15 -0.642974 7.6958)
(8.52323e-15 -0.478566 7.66014)
(7.32915e-15 -0.285789 7.61826)
(5.03836e-16 -0.115595 7.21533)
(3.89375e-15 -0.820175 11.7849)
(3.51365e-15 -0.793492 12.8722)
(4.38001e-15 -0.770452 13.7859)
(4.21852e-15 -0.765916 14.6008)
(2.99947e-15 -0.773024 15.3691)
(2.38994e-15 -0.788375 16.1096)
(2.16936e-15 -0.802906 16.8283)
(2.31933e-15 -0.813624 17.5234)
(1.30994e-15 -0.819927 18.1917)
(1.18421e-15 -0.821784 18.8299)
(1.13966e-15 -0.81872 19.4351)
(1.28294e-15 -0.805776 20.0055)
(1.3058e-15 -0.773591 20.5318)
(1.1747e-15 -0.715204 20.9964)
(1.40233e-15 -0.626017 21.386)
(-2.36392e-18 -0.495015 21.6849)
(1.35596e-16 -0.296692 21.8635)
(6.67537e-18 -0.00588313 21.9337)
(3.29104e-16 0.424779 21.8972)
(1.3592e-16 0.989155 21.5565)
(-1.68139e-16 1.4542 20.7461)
(-5.84575e-17 1.70666 19.6162)
(-1.79103e-15 1.78655 18.3651)
(-1.83772e-15 1.76517 17.1108)
(-1.20703e-15 1.69438 15.9077)
(-4.98515e-16 1.60349 14.7768)
(3.68029e-16 1.50712 13.7239)
(9.50313e-16 1.4122 12.748)
(2.02099e-15 1.32196 11.8448)
(1.94512e-15 1.2379 11.0087)
(1.89959e-15 1.16069 10.2331)
(1.74011e-15 1.09045 9.51133)
(1.73436e-15 1.02677 8.83684)
(1.93948e-15 0.968601 8.20375)
(1.44349e-15 0.914128 7.60744)
(5.7306e-15 0.86073 7.04514)
(6.55525e-15 0.805072 6.51651)
(6.65295e-15 0.743414 6.02388)
(6.41045e-15 0.672206 5.5723)
(8.34352e-15 0.588962 5.16876)
(1.44365e-15 0.49269 4.82116)
(-1.16297e-14 0.384223 4.53611)
(-1.87475e-14 0.264638 4.32064)
(-1.98423e-14 0.140008 4.17786)
(-2.03935e-14 0.0189219 4.10772)
(-1.88251e-14 -0.0897413 4.10479)
(-1.62011e-14 -0.197802 4.15681)
(-2.36138e-14 -0.322893 4.2664)
(-3.35863e-14 -0.473084 4.43216)
(-3.34443e-14 -0.649407 4.65457)
(-2.33694e-14 -0.857146 4.98069)
(-9.3471e-15 -1.09679 5.46349)
(-1.15302e-14 -1.35083 6.09581)
(-2.14322e-14 -1.59458 6.83671)
(-2.98213e-14 -1.80982 7.65658)
(-3.1765e-14 -1.98364 8.53798)
(-2.91667e-14 -2.10349 9.46209)
(-2.20089e-14 -2.15808 10.4044)
(-1.26288e-14 -2.14134 11.3368)
(-4.36416e-15 -2.05535 12.2319)
(4.18881e-15 -1.90529 13.0691)
(1.09488e-14 -1.68663 13.8325)
(1.51235e-14 -1.38561 14.4987)
(1.67226e-14 -0.99203 15.0328)
(1.72069e-14 -0.504987 15.3902)
(1.5226e-14 0.0500432 15.5309)
(1.17365e-14 0.638863 15.4406)
(6.92882e-15 1.22163 15.103)
(-2.44697e-15 1.73466 14.4974)
(-1.19427e-14 2.12207 13.6392)
(-1.95903e-14 2.36004 12.5867)
(-1.99218e-14 2.44444 11.4244)
(-1.55826e-14 2.37471 10.2517)
(-9.32094e-15 2.16164 9.17325)
(-2.59328e-15 1.84366 8.27435)
(2.38891e-15 1.48285 7.59142)
(7.0769e-15 1.14029 7.10474)
(1.14515e-14 0.85113 6.75793)
(1.37864e-14 0.616774 6.49083)
(1.60984e-14 0.420368 6.26481)
(1.5987e-14 0.243763 6.069)
(1.21187e-14 0.0739716 5.91616)
(1.66372e-14 -0.074956 5.78733)
(1.93541e-14 -0.206887 5.68319)
(2.14054e-14 -0.415599 5.82144)
(1.81578e-14 -0.759323 6.35614)
(8.54375e-15 -1.10898 7.01541)
(-1.73496e-15 -1.29836 7.49981)
(-9.39671e-15 -1.27927 7.73942)
(-1.28265e-14 -1.1393 7.7672)
(-1.4516e-14 -0.991927 7.65686)
(-1.57562e-14 -0.864632 7.49876)
(-1.60451e-14 -0.739773 7.32369)
(-1.36267e-14 -0.644293 7.10225)
(-1.07463e-14 -0.62566 6.83911)
(-9.61615e-15 -0.666999 6.62198)
(-1.00692e-14 -0.643875 6.54957)
(-1.14083e-14 -0.464329 6.52127)
(-1.22743e-14 -0.199153 6.47748)
(-1.49142e-14 -0.00366088 5.99501)
(2.01973e-15 -0.928571 11.4307)
(2.75097e-15 -0.89176 12.4156)
(2.98112e-15 -0.862148 13.2608)
(3.63503e-15 -0.856599 14.0235)
(1.46921e-15 -0.864122 14.7426)
(9.13579e-16 -0.880862 15.4326)
(8.44185e-16 -0.896592 16.1016)
(1.52133e-15 -0.908107 16.7496)
(1.6006e-15 -0.91465 17.3735)
(6.88162e-16 -0.916188 17.9685)
(1.30277e-15 -0.912335 18.5307)
(1.31637e-15 -0.897667 19.0584)
(1.10038e-15 -0.861854 19.543)
(8.6785e-16 -0.797478 19.9681)
(6.97057e-16 -0.699669 20.3229)
(9.07191e-16 -0.556918 20.5932)
(7.04025e-16 -0.344876 20.7459)
(2.71564e-15 -0.0390189 20.7954)
(5.48642e-15 0.419415 20.7654)
(2.31084e-15 1.04544 20.4746)
(9.13322e-16 1.57353 19.7328)
(1.9514e-16 1.86445 18.6818)
(-1.46348e-15 1.96031 17.5157)
(3.55779e-16 1.94166 16.3465)
(-1.07168e-15 1.86726 15.2234)
(-3.60817e-16 1.76999 14.1644)
(4.40958e-16 1.66614 13.1738)
(1.09574e-15 1.56341 12.2505)
(1.5457e-15 1.46546 11.3909)
(2.67204e-15 1.37406 10.5903)
(9.8283e-16 1.29007 9.8432)
(1.09253e-15 1.21371 9.1439)
(1.94398e-16 1.14459 8.4867)
(5.25817e-16 1.08156 7.86647)
(3.84546e-16 1.02254 7.27931)
(4.51317e-15 0.964538 6.72318)
(4.8821e-15 0.903701 6.19841)
(5.12966e-15 0.835717 5.70806)
(5.46074e-15 0.756504 5.25784)
(6.50122e-15 0.663269 4.85532)
(5.78868e-15 0.554999 4.50873)
(4.69309e-15 0.432726 4.22445)
(-1.02769e-14 0.297424 4.00958)
(-1.28852e-14 0.155967 3.86709)
(-1.23278e-14 0.0184927 3.79727)
(-1.50495e-14 -0.104154 3.79557)
(-2.42707e-14 -0.226175 3.84934)
(-4.08553e-14 -0.36503 3.95556)
(-4.47521e-14 -0.529439 4.10449)
(-2.63582e-14 -0.728915 4.31678)
(-4.97401e-15 -0.973624 4.66275)
(-5.56334e-15 -1.25424 5.17351)
(-1.65865e-14 -1.54218 5.80923)
(-2.62501e-14 -1.81172 6.52139)
(-2.74884e-14 -2.04756 7.28621)
(-2.1627e-14 -2.23778 8.09589)
(-1.29843e-14 -2.36919 8.945)
(-1.6868e-15 -2.42927 9.82195)
(9.14006e-15 -2.41086 10.705)
(1.7698e-14 -2.31672 11.5666)
(2.45776e-14 -2.15347 12.384)
(2.83136e-14 -1.91489 13.1399)
(2.93045e-14 -1.58344 13.8074)
(3.01933e-14 -1.14599 14.3464)
(3.15823e-14 -0.599581 14.706)
(3.16332e-14 0.023357 14.8417)
(3.20675e-14 0.682417 14.7504)
(2.95643e-14 1.34188 14.4504)
(1.90705e-14 1.93924 13.9331)
(5.36786e-15 2.40818 13.1836)
(-9.2926e-15 2.71059 12.2085)
(-1.70668e-14 2.82907 11.0574)
(-1.78952e-14 2.75368 9.83093)
(-1.35366e-14 2.49537 8.66576)
(-7.68622e-15 2.1063 7.68627)
(-1.58791e-15 1.67062 6.95309)
(5.89232e-15 1.26866 6.44802)
(9.65025e-15 0.942462 6.10147)
(1.32559e-14 0.688003 5.83784)
(1.64694e-14 0.477968 5.61205)
(1.68295e-14 0.287 5.4212)
(1.36833e-14 0.108213 5.2686)
(1.41793e-14 -0.0494367 5.11638)
(1.8598e-14 -0.251798 5.12621)
(1.54059e-14 -0.603054 5.57894)
(7.29445e-15 -1.01397 6.25263)
(-5.90756e-15 -1.30851 6.72815)
(-1.70272e-14 -1.4069 6.91851)
(-2.31511e-14 -1.30984 6.93144)
(-2.54332e-14 -1.11403 6.81549)
(-2.61765e-14 -0.944214 6.61072)
(-2.7387e-14 -0.815458 6.40036)
(-2.7948e-14 -0.680112 6.20692)
(-2.5767e-14 -0.563962 5.96732)
(-2.37691e-14 -0.550589 5.66945)
(-2.31194e-14 -0.646682 5.44036)
(-2.31817e-14 -0.677297 5.39303)
(-2.3306e-14 -0.484178 5.40645)
(-2.28207e-14 -0.130405 5.43235)
(-2.23063e-14 0.115412 4.98887)
(2.0603e-15 -1.03071 10.9923)
(2.24835e-15 -0.987861 11.901)
(2.51401e-15 -0.9529 12.6997)
(1.89927e-15 -0.945921 13.4111)
(1.17324e-15 -0.953285 14.0753)
(1.09403e-15 -0.971421 14.7141)
(1.99075e-15 -0.988677 15.339)
(1.49636e-15 -1.00131 15.9482)
(2.23026e-15 -1.00819 16.5353)
(2.05072e-15 -1.00931 17.0927)
(9.01174e-16 -1.00454 17.6162)
(7.6913e-16 -0.988055 18.1057)
(1.08522e-15 -0.948623 18.5536)
(1.39829e-16 -0.878513 18.9447)
(1.17218e-15 -0.772619 19.2699)
(1.14484e-15 -0.618574 19.5163)
(1.50708e-15 -0.393401 19.6473)
(4.64654e-15 -0.0745562 19.6779)
(5.0074e-15 0.407872 19.6496)
(4.15885e-15 1.09065 19.3962)
(2.33418e-15 1.67865 18.7108)