/*--------------------------------*- C++ -*----------------------------------*\
| =========                 |                                                 |
| \\      /  F ield         | OpenFOAM: The Open Source CFD Toolbox           |
|  \\    /   O peration     | Version:  4.1                                   |
|   \\  /    A nd           | Web:      www.OpenFOAM.org                      |
|    \\/     M anipulation  |                                                 |
\*---------------------------------------------------------------------------*/
FoamFile
{
    version     2.0;
    format      ascii;
    class       volScalarField;
    location    "500";
    object      p;
}
// * * * * * * * * * * * * * * * * * * * * * * * * * * * * * * * * * * * * * //

dimensions      [0 2 -2 0 0 0 0];

internalField   nonuniform List<scalar> 
26785
(
-644.076
-658.52
-679.845
-705.135
-734.142
-765.756
-798.887
-832.069
-863.653
-892.193
-917.035
-937.446
-952.147
-961.765
-967.863
-971.555
-973.46
-972.799
-969.998
-972.991
-986.43
-1007.84
-1033.8
-1056.7
-1059.96
-1053.32
-1047.8
-1045.54
-1043.8
-1041.08
-1038.31
-1035.08
-1030.85
-1025.32
-1018.33
-1009.81
-999.833
-988.517
-976.121
-963.004
-949.573
-936.225
-923.354
-911.332
-900.51
-891.172
-883.511
-877.593
-873.351
-870.588
-868.999
-868.248
-867.931
-867.714
-867.43
-866.94
-866.135
-864.84
-862.758
-859.436
-854.154
-845.788
-832.806
-813.365
-786.201
-751.503
-710.134
-664.16
-617.773
-592.057
-588.248
-590.456
-593.64
-602.973
-619.406
-645.197
-680.36
-722.915
-768.333
-809.976
-841.197
-857.184
-855.331
-834.532
-794.499
-735.22
-657.099
-561.859
-452.491
-332.797
-207.47
-82.25
36.964
145.396
235.632
289.916
304.165
304.561
226.085
187.589
-644.036
-658.48
-679.813
-705.112
-734.131
-765.757
-798.901
-832.096
-863.691
-892.236
-917.085
-937.514
-952.214
-961.818
-967.906
-971.561
-973.392
-972.789
-970.334
-973.403
-986.854
-1008.48
-1034.7
-1057.34
-1060.22
-1053.43
-1047.81
-1045.51
-1043.78
-1041.09
-1038.37
-1035.15
-1030.93
-1025.39
-1018.4
-1009.89
-999.897
-988.569
-976.16
-963.033
-949.592
-936.235
-923.352
-911.317
-900.483
-891.135
-883.466
-877.544
-873.301
-870.544
-868.964
-868.227
-867.93
-867.732
-867.467
-866.99
-866.199
-864.924
-862.876
-859.615
-854.435
-846.229
-833.465
-814.266
-787.345
-752.976
-712.176
-667.11
-621.237
-594.748
-590.234
-591.27
-594.107
-603.487
-620.115
-646.22
-681.799
-724.858
-770.778
-812.777
-844.126
-860.066
-858.126
-837.31
-797.385
-738.299
-660.353
-565.281
-456.109
-336.686
-211.764
-87.0782
31.3366
138.094
226.152
281.699
297.701
297.476
223.133
173.393
-643.959
-658.396
-679.746
-705.064
-734.104
-765.753
-798.921
-832.138
-863.752
-892.308
-917.168
-937.633
-952.334
-961.911
-967.987
-971.589
-973.283
-972.647
-970.59
-973.941
-987.54
-1009.57
-1036.09
-1058.27
-1060.49
-1053.51
-1047.77
-1045.45
-1043.76
-1041.12
-1038.49
-1035.28
-1031.04
-1025.51
-1018.52
-1010.01
-1000.01
-988.669
-976.246
-963.103
-949.644
-936.262
-923.352
-911.289
-900.428
-891.057
-883.37
-877.435
-873.188
-870.436
-868.871
-868.161
-867.9
-867.737
-867.513
-867.073
-866.324
-865.1
-863.125
-859.98
-854.988
-847.062
-834.669
-815.887
-789.396
-755.609
-715.78
-672.179
-627.705
-600.552
-594.011
-592.866
-595.154
-604.649
-621.712
-648.493
-684.961
-729.099
-776.093
-818.849
-850.463
-866.287
-864.135
-843.244
-803.442
-744.601
-666.93
-572.204
-463.422
-344.49
-220.241
-96.3721
21.016
125.856
211.328
267.32
285.201
285.456
215.894
158.336
-643.847
-658.271
-679.645
-704.99
-734.064
-765.747
-798.949
-832.201
-863.846
-892.421
-917.299
-937.817
-952.524
-962.065
-968.127
-971.694
-973.28
-972.615
-970.914
-974.593
-988.451
-1011.06
-1037.98
-1059.45
-1060.81
-1053.63
-1047.72
-1045.38
-1043.75
-1041.17
-1038.65
-1035.44
-1031.2
-1025.68
-1018.7
-1010.19
-1000.19
-988.829
-976.387
-963.221
-949.732
-936.311
-923.357
-911.247
-900.343
-890.934
-883.216
-877.262
-873.007
-870.263
-868.719
-868.047
-867.842
-867.737
-867.579
-867.197
-866.509
-865.36
-863.491
-860.515
-855.798
-848.3
-836.477
-818.323
-792.444
-759.44
-720.833
-678.834
-635.975
-607.911
-598.885
-595.102
-596.894
-606.682
-624.475
-652.338
-690.223
-736.075
-784.742
-828.605
-860.483
-875.938
-873.273
-852.137
-812.377
-753.712
-676.288
-581.923
-473.569
-355.192
-231.71
-108.819
7.37031
110.384
193.569
249.498
268.373
268.699
204.401
143.686
-643.701
-658.101
-679.505
-704.887
-734.003
-765.73
-798.977
-832.272
-863.96
-892.562
-917.463
-938.053
-952.778
-962.271
-968.313
-971.842
-973.34
-972.682
-971.335
-975.375
-989.548
-1012.83
-1040.2
-1060.69
-1061.12
-1053.75
-1047.64
-1045.33
-1043.77
-1041.25
-1038.84
-1035.63
-1031.4
-1025.9
-1018.93
-1010.43
-1000.42
-989.05
-976.59
-963.397
-949.866
-936.388
-923.368
-911.189
-900.221
-890.757
-882.996
-877.013
-872.747
-870.011
-868.494
-867.869
-867.736
-867.711
-867.641
-867.343
-866.743
-865.698
-863.972
-861.214
-856.846
-849.905
-838.833
-821.521
-796.464
-764.473
-727.35
-687.022
-645.632
-616.065
-604.556
-597.954
-599.472
-609.838
-628.697
-658.072
-697.932
-746.167
-797.086
-842.264
-874.13
-888.64
-884.893
-863.18
-823.301
-764.756
-687.76
-593.953
-486.252
-368.638
-246.074
-124.285
-9.4161
91.8491
173.087
228.788
248.145
248.708
189.304
128.376
-643.523
-657.885
-679.329
-704.756
-733.924
-765.705
-799.006
-832.356
-864.098
-892.742
-917.672
-938.348
-953.108
-962.55
-968.568
-972.063
-973.491
-972.867
-971.863
-976.279
-990.817
-1014.85
-1042.69
-1061.92
-1061.41
-1053.88
-1047.58
-1045.3
-1043.85
-1041.37
-1039.03
-1035.85
-1031.66
-1026.18
-1019.24
-1010.74
-1000.73
-989.352
-976.874
-963.642
-950.05
-936.491
-923.382
-911.112
-900.061
-890.524
-882.708
-876.688
-872.406
-869.681
-868.195
-867.626
-867.578
-867.655
-867.695
-867.508
-867.021
-866.109
-864.559
-862.059
-858.098
-851.824
-841.666
-825.401
-801.38
-770.631
-735.233
-696.733
-656.771
-625.317
-610.844
-601.576
-603.102
-614.396
-634.674
-665.998
-708.409
-759.704
-813.338
-859.655
-890.652
-903.14
-897.514
-874.927
-835.186
-777.269
-701.117
-608.152
-501.299
-384.541
-262.9
-142.174
-28.6044
70.9959
150.418
205.631
225.125
226.03
171.344
111.917
-643.285
-657.626
-679.115
-704.594
-733.823
-765.667
-799.033
-832.448
-864.256
-892.952
-917.918
-938.697
-953.513
-962.906
-968.9
-972.37
-973.751
-973.187
-972.517
-977.31
-992.243
-1017.08
-1045.28
-1062.84
-1061.64
-1054.05
-1047.56
-1045.31
-1044.07
-1041.57
-1039.28
-1036.13
-1031.99
-1026.55
-1019.64
-1011.15
-1001.14
-989.755
-977.247
-963.959
-950.284
-936.621
-923.4
-911.016
-899.86
-890.232
-882.346
-876.28
-871.98
-869.267
-867.817
-867.312
-867.358
-867.552
-867.725
-867.674
-867.329
-866.583
-865.244
-863.038
-859.523
-853.999
-844.881
-829.845
-807.057
-777.754
-744.246
-707.748
-669.309
-636.099
-617.854
-606.425
-608.101
-620.667
-642.702
-676.393
-721.932
-776.897
-833.348
-879.857
-908.372
-917.625
-909.788
-886.85
-848.202
-791.663
-716.656
-624.725
-518.796
-402.895
-282.119
-162.359
-49.9604
48.1881
126.018
180.635
200.311
201.795
151.824
95.1724
-643.002
-657.319
-678.861
-704.401
-733.701
-765.616
-799.056
-832.547
-864.436
-893.202
-918.212
-939.104
-954.003
-963.352
-969.323
-972.778
-974.135
-973.656
-973.313
-978.474
-993.821
-1019.45
-1047.68
-1063.31
-1061.77
-1054.39
-1047.83
-1045.58
-1044.55
-1041.94
-1039.64
-1036.5
-1032.42
-1027.04
-1020.15
-1011.68
-1001.67
-990.265
-977.713
-964.349
-950.57
-936.781
-923.424
-910.901
-899.619
-889.88
-881.91
-875.789
-871.466
-868.768
-867.362
-866.929
-867.079
-867.399
-867.726
-867.833
-867.659
-867.112
-866.021
-864.139
-861.096
-856.374
-848.391
-834.726
-813.341
-785.653
-754.104
-719.701
-682.981
-648.513
-626.059
-613.051
-614.863
-628.971
-653.054
-689.498
-738.705
-797.735
-856.403
-901.178
-925.478
-931.243
-921.963
-899.817
-863.068
-808.229
-734.53
-643.69
-538.664
-423.558
-303.539
-184.605
-73.2073
23.7307
100.217
154.2
174.264
176.703
131.857
79.424
-642.668
-656.966
-678.566
-704.175
-733.554
-765.552
-799.076
-832.654
-864.638
-893.491
-918.558
-939.569
-954.586
-963.901
-969.85
-973.303
-974.66
-974.29
-974.269
-979.782
-995.552
-1021.88
-1049.41
-1063.4
-1061.83
-1054.87
-1048.68
-1046.16
-1045.21
-1042.49
-1040.15
-1037
-1032.96
-1027.64
-1020.8
-1012.34
-1002.33
-990.888
-978.276
-964.817
-950.914
-936.974
-923.455
-910.769
-899.336
-889.466
-881.396
-875.209
-870.86
-868.181
-866.825
-866.475
-866.74
-867.198
-867.698
-867.983
-868.006
-867.692
-866.88
-865.35
-862.797
-858.906
-852.119
-839.93
-820.094
-794.154
-764.555
-732.235
-697.468
-662.47
-636.006
-621.922
-623.805
-639.624
-665.971
-705.502
-758.819
-821.88
-881.192
-921.895
-941.553
-944.832
-935.383
-914.745
-880.034
-827.041
-754.719
-664.957
-560.796
-446.411
-327.033
-208.761
-98.1544
-2.15446
73.2858
126.716
147.419
151.256
112.054
65.2096
-642.283
-656.562
-678.227
-703.915
-733.383
-765.472
-799.091
-832.771
-864.867
-893.826
-918.967
-940.1
-955.27
-964.567
-970.498
-973.963
-975.345
-975.108
-975.404
-981.251
-997.43
-1024.32
-1050.24
-1063.16
-1061.94
-1055.27
-1049.61
-1046.86
-1045.9
-1043.19
-1040.81
-1037.64
-1033.63
-1028.37
-1021.57
-1013.13
-1003.11
-991.63
-978.943
-965.37
-951.318
-937.202
-923.497
-910.62
-899.013
-888.989
-880.802
-874.539
-870.159
-867.501
-866.203
-865.947
-866.34
-866.948
-867.642
-868.125
-868.37
-868.32
-867.819
-866.673
-864.619
-861.555
-856
-845.355
-827.204
-803.13
-775.424
-745.101
-712.506
-677.742
-648.031
-633.327
-635.292
-652.898
-681.641
-724.521
-782.206
-848.611
-906.213
-941.487
-957.544
-959.433
-950.985
-932.044
-899.161
-848.021
-777.095
-688.415
-585.1
-471.376
-352.519
-234.724
-124.664
-29.306
45.4174
98.4804
120.134
125.791
92.6607
52.432
-641.846
-656.103
-677.843
-703.616
-733.183
-765.374
-799.101
-832.898
-865.125
-894.213
-919.45
-940.709
-956.061
-965.362
-971.28
-974.776
-976.209
-976.128
-976.737
-982.899
-999.446
-1026.81
-1051.52
-1062.9
-1061.86
-1055.51
-1050.4
-1047.56
-1046.61
-1044.01
-1041.61
-1038.42
-1034.43
-1029.23
-1022.48
-1014.06
-1004.03
-992.497
-979.719
-966.012
-951.789
-937.471
-923.552
-910.456
-898.648
-888.448
-880.126
-873.774
-869.359
-866.724
-865.493
-865.343
-865.876
-866.647
-867.553
-868.257
-868.75
-868.991
-868.836
-868.11
-866.558
-864.297
-859.972
-850.914
-834.598
-812.51
-786.625
-758.192
-727.934
-694.034
-662.192
-647.393
-649.599
-668.989
-700.179
-746.589
-808.606
-876.937
-930.49
-960.65
-974.07
-975.656
-968.949
-951.535
-920.357
-871.112
-801.625
-714.05
-611.56
-498.427
-379.954
-262.423
-152.63
-57.588
16.7823
69.7476
92.7289
100.601
73.8595
40.897
-641.313
-655.591
-677.407
-703.277
-732.953
-765.258
-799.106
-833.038
-865.419
-894.659
-920.017
-941.414
-956.967
-966.299
-972.214
-975.759
-977.269
-977.368
-978.287
-984.742
-1001.6
-1029.23
-1052.92
-1063
-1061.75
-1055.7
-1051.12
-1048.32
-1047.39
-1044.93
-1042.56
-1039.36
-1035.38
-1030.23
-1023.53
-1015.14
-1005.09
-993.497
-980.613
-966.75
-952.331
-937.783
-923.622
-910.277
-898.241
-887.84
-879.366
-872.912
-868.456
-865.847
-864.69
-864.658
-865.344
-866.293
-867.43
-868.376
-869.143
-869.706
-869.927
-869.667
-868.617
-867.11
-863.988
-856.541
-842.218
-822.226
-798.098
-771.503
-743.702
-711.088
-678.381
-664.074
-666.868
-687.978
-721.61
-771.633
-837.569
-905.851
-953.921
-980.116
-991.401
-994.013
-989.022
-972.991
-943.62
-896.353
-828.33
-741.857
-640.153
-527.522
-409.282
-291.787
-181.963
-86.8978
-12.4978
40.6915
65.3962
75.8826
55.7883
30.4753
-640.709
-655.019
-676.919
-702.894
-732.688
-765.121
-799.107
-833.195
-865.752
-895.169
-920.673
-942.226
-957.997
-967.386
-973.31
-976.925
-978.542
-978.842
-980.069
-986.793
-1003.88
-1031.57
-1054.24
-1063.48
-1061.72
-1056.01
-1051.91
-1049.14
-1048.24
-1045.96
-1043.65
-1040.47
-1036.48
-1031.37
-1024.72
-1016.36
-1006.29
-994.635
-981.629
-967.59
-952.95
-938.144
-923.71
-910.086
-897.793
-887.164
-878.517
-871.947
-867.446
-864.865
-863.791
-863.89
-864.742
-865.88
-867.268
-868.48
-869.549
-870.461
-871.086
-871.343
-870.812
-869.992
-868.028
-862.203
-850.031
-832.232
-809.801
-785.083
-759.834
-728.733
-696.449
-683.215
-687.105
-709.817
-745.871
-799.467
-868.495
-934.601
-977.006
-1000.09
-1010.11
-1014.66
-1011.08
-996.48
-969.027
-923.763
-857.206
-771.818
-670.85
-558.627
-440.46
-322.767
-212.6
-117.164
-42.3432
11.433
38.2413
51.7438
38.4913
21.0376
-640.031
-654.385
-676.374
-702.463
-732.388
-764.961
-799.103
-833.369
-866.129
-895.748
-921.423
-943.154
-959.157
-968.629
-974.58
-978.288
-980.037
-980.56
-982.095
-989.06
-1006.28
-1033.83
-1055.44
-1064.33
-1061.89
-1056.51
-1052.74
-1050.02
-1049.18
-1047.1
-1044.87
-1041.75
-1037.75
-1032.65
-1026.07
-1017.73
-1007.65
-995.918
-982.777
-968.54
-953.653
-938.559
-923.821
-909.883
-897.304
-886.419
-877.579
-870.877
-866.322
-863.772
-862.791
-863.033
-864.065
-865.406
-867.065
-868.566
-869.964
-871.255
-872.314
-873.135
-873.166
-872.972
-872.113
-867.922
-858.056
-842.539
-821.74
-799.019
-776.364
-746.911
-716.259
-704.644
-710.155
-734.343
-772.808
-829.805
-900.725
-962.842
-1000.32
-1020.62
-1030.8
-1037.44
-1035.16
-1022.12
-996.635
-953.362
-888.261
-803.926
-703.636
-591.722
-473.466
-355.327
-244.495
-148.336
-72.7046
-17.9522
11.3193
28.2353
21.9407
12.4439
-639.281
-653.687
-675.77
-701.982
-732.049
-764.778
-799.094
-833.563
-866.554
-896.401
-922.27
-944.203
-960.45
-970.032
-976.029
-979.85
-981.758
-982.523
-984.365
-991.547
-1008.79
-1036.06
-1056.58
-1065.5
-1062.25
-1057.12
-1053.6
-1051
-1050.22
-1048.35
-1046.22
-1043.2
-1039.22
-1034.11
-1027.56
-1019.26
-1009.16
-997.352
-984.062
-969.606
-954.445
-939.032
-923.956
-909.672
-896.773
-885.602
-876.547
-869.696
-865.082
-862.564
-861.684
-862.083
-863.309
-864.865
-866.815
-868.629
-870.385
-872.087
-873.612
-875.039
-875.692
-876.089
-876.303
-873.763
-866.333
-853.162
-833.947
-813.423
-793.279
-765.599
-737.667
-728.231
-735.726
-761.314
-802.196
-862.274
-933.643
-990.625
-1024.17
-1042.01
-1053.7
-1062.18
-1061.31
-1049.99
-1026.49
-985.179
-921.506
-838.177
-738.498
-626.793
-508.278
-389.443
-277.61
-180.372
-103.551
-47.4243
-15.3497
5.37483
6.06899
4.56884
-638.463
-652.921
-675.105
-701.45
-731.67
-764.57
-799.08
-833.777
-867.027
-897.13
-923.215
-945.371
-961.874
-971.593
-977.656
-981.612
-983.702
-984.725
-986.872
-994.244
-1011.43
-1038.27
-1057.74
-1066.91
-1062.79
-1057.79
-1054.48
-1052.05
-1051.37
-1049.71
-1047.72
-1044.82
-1040.89
-1035.75
-1029.21
-1020.95
-1010.84
-998.943
-985.492
-970.797
-955.334
-939.569
-924.121
-909.453
-896.202
-884.714
-875.419
-868.399
-863.717
-861.234
-860.464
-861.035
-862.469
-864.252
-866.516
-868.667
-870.807
-872.956
-874.984
-877.055
-878.385
-879.382
-880.668
-879.835
-874.95
-864.151
-846.521
-828.421
-810.6
-784.791
-760.491
-753.818
-763.439
-790.444
-833.758
-896.454
-966.757
-1018.25
-1048.57
-1064.74
-1078.74
-1088.84
-1089.63
-1080.17
-1058.64
-1019.24
-956.945
-874.559
-775.415
-663.814
-544.875
-425.089
-311.915
-213.239
-134.862
-76.9612
-41.766
-16.8455
-9.22691
-2.69249
-637.534
-652.089
-674.376
-700.864
-731.25
-764.336
-799.061
-834.012
-867.551
-897.934
-924.256
-946.653
-963.421
-973.302
-979.453
-983.562
-985.853
-987.146
-989.592
-997.131
-1014.17
-1040.51
-1059.01
-1068.46
-1063.49
-1058.51
-1055.39
-1053.18
-1052.64
-1051.2
-1049.36
-1046.6
-1042.76
-1037.62
-1031.06
-1022.81
-1012.69
-1000.7
-987.074
-972.119
-956.326
-940.176
-924.319
-909.23
-895.59
-883.751
-874.19
-866.982
-862.224
-859.775
-859.125
-859.881
-861.538
-863.562
-866.162
-868.674
-871.224
-873.859
-876.435
-879.176
-881.244
-882.868
-885.26
-886.148
-883.814
-875.392
-859.587
-844.123
-828.414
-804.587
-784.631
-781.129
-792.895
-821.434
-867.188
-931.906
-999.749
-1046.06
-1073.5
-1089.25
-1105.72
-1117.44
-1120.19
-1112.76
-1093.13
-1055.56
-994.563
-913.032
-814.338
-702.741
-583.222
-462.234
-347.375
-246.898
-166.614
-106.551
-67.9477
-38.4466
-24.0843
-9.45587
-636.524
-651.189
-673.583
-700.225
-730.79
-764.078
-799.038
-834.268
-868.123
-898.81
-925.383
-948.037
-965.078
-975.146
-981.405
-985.682
-988.187
-989.756
-992.493
-1000.18
-1017.01
-1042.8
-1060.51
-1070.06
-1064.28
-1059.3
-1056.38
-1054.41
-1054.01
-1052.8
-1051.16
-1048.57
-1044.83
-1039.73
-1033.12
-1024.85
-1014.71
-1002.63
-988.815
-973.581
-957.429
-940.859
-924.555
-909.005
-894.938
-882.711
-872.858
-865.439
-860.593
-858.181
-857.66
-858.616
-860.51
-862.788
-865.748
-868.644
-871.627
-874.789
-877.962
-881.398
-884.257
-886.581
-890.146
-892.667
-892.783
-886.754
-873.232
-860.56
-846.504
-825.199
-810.043
-809.82
-823.729
-853.991
-902.176
-968.209
-1032.47
-1074.3
-1099.04
-1115.71
-1134.53
-1148.02
-1153.07
-1147.84
-1130.01
-1094.12
-1034.31
-953.519
-855.174
-743.487
-623.247
-500.824
-383.94
-281.301
-198.766
-136.174
-93.9092
-59.4782
-38.6984
-15.9706
-635.437
-650.22
-672.728
-699.534
-730.29
-763.797
-799.012
-834.545
-868.741
-899.752
-926.584
-949.503
-966.824
-977.105
-983.491
-987.946
-990.675
-992.519
-995.534
-1003.34
-1019.93
-1045.21
-1062.32
-1071.63
-1065.14
-1060.2
-1057.46
-1055.72
-1055.5
-1054.54
-1053.1
-1050.71
-1047.11
-1042.08
-1035.44
-1027.11
-1016.92
-1004.74
-990.724
-975.19
-958.652
-941.626
-924.834
-908.782
-894.246
-881.594
-871.418
-863.762
-858.82
-856.443
-856.06
-857.232
-859.377
-861.924
-865.266
-868.568
-872.009
-875.737
-879.554
-883.722
-887.385
-890.621
-895.424
-899.365
-901.78
-898.309
-887.579
-877.876
-864.495
-846.867
-836.584
-839.541
-855.639
-887.844
-938.414
-1004.98
-1064.93
-1103.03
-1125.44
-1144.09
-1165.09
-1180.61
-1188.29
-1185.46
-1169.33
-1134.9
-1076.09
-995.877
-897.76
-785.897
-664.827
-540.764
-421.525
-316.368
-231.243
-165.778
-119.64
-80.0538
-53.4134
-22.9569
-634.276
-649.184
-671.811
-698.793
-729.754
-763.495
-798.983
-834.841
-869.4
-900.75
-927.844
-951.027
-968.639
-979.157
-985.689
-990.329
-993.284
-995.398
-998.672
-1006.57
-1022.91
-1047.77
-1064.5
-1073.15
-1066.06
-1061.18
-1058.65
-1057.12
-1057.09
-1056.39
-1055.2
-1053.04
-1049.61
-1044.67
-1038.02
-1029.61
-1019.33
-1007.04
-992.812
-976.956
-960.001
-942.484
-925.161
-908.563
-893.515
-880.397
-869.867
-861.946
-856.894
-854.553
-854.317
-855.722
-858.133
-860.962
-864.709
-868.437
-872.359
-876.691
-881.196
-886.127
-890.602
-895.041
-901.139
-906.229
-910.999
-910.461
-902.796
-895.912
-882.547
-869.741
-864.001
-869.992
-888.38
-922.746
-975.612
-1041.9
-1097.22
-1132.16
-1152.97
-1174.23
-1197.36
-1215.24
-1225.87
-1225.57
-1211.07
-1177.81
-1119.75
-1039.89
-941.846
-829.724
-707.75
-581.887
-459.998
-351.977
-263.917
-195.242
-144.971
-100.079
-67.9934
-30.7188
-633.048
-648.082
-670.835
-698.004
-729.182
-763.174
-798.953
-835.156
-870.094
-901.792
-929.145
-952.583
-970.5
-981.282
-987.977
-992.808
-995.989
-998.362
-1001.87
-1009.85
-1025.93
-1050.52
-1067.06
-1074.6
-1067.03
-1062.24
-1059.91
-1058.61
-1058.79
-1058.38
-1057.45
-1055.56
-1052.33
-1047.51
-1040.88
-1032.38
-1021.98
-1009.53
-995.089
-978.888
-961.486
-943.44
-925.543
-908.351
-892.746
-879.119
-868.199
-859.983
-854.809
-852.501
-852.423
-854.078
-856.77
-859.895
-864.069
-868.242
-872.668
-877.638
-882.868
-888.58
-893.892
-899.716
-906.93
-912.843
-920.501
-923.835
-919.476
-913.663
-901.388
-893.69
-892.024
-900.935
-921.754
-958.482
-1013.5
-1078.7
-1129.47
-1161.6
-1181.82
-1205.97
-1231.31
-1251.91
-1265.77
-1268.12
-1255.11
-1222.7
-1165.04
-1085.23
-987.069
-874.603
-751.695
-623.937
-499.148
-387.94
-296.589
-224.355
-169.605
-119.247
-81.9162
-38.7876
-631.729
-646.92
-669.804
-697.171
-728.58
-762.835
-798.922
-835.486
-870.817
-902.867
-930.467
-954.146
-972.391
-983.467
-990.343
-995.368
-998.774
-1001.39
-1005.12
-1013.14
-1028.99
-1053.46
-1069.95
-1075.9
-1068.06
-1063.34
-1061.25
-1060.17
-1060.59
-1060.48
-1059.86
-1058.26
-1055.27
-1050.61
-1044.03
-1035.45
-1024.89
-1012.26
-997.562
-980.998
-963.116
-944.502
-925.985
-908.152
-891.939
-877.757
-866.411
-857.866
-852.555
-850.279
-850.367
-852.292
-855.281
-858.717
-863.336
-867.972
-872.929
-878.566
-884.548
-891.042
-897.216
-904.455
-912.544
-918.858
-929.8
-938.156
-937.781
-930.387
-921.545
-918.39
-920.417
-932.198
-955.607
-994.868
-1051.81
-1115.2
-1161.75
-1191.32
-1212.05
-1239.17
-1266.89
-1290.59
-1307.93
-1312.99
-1301.27
-1269.34
-1211.65
-1131.52
-1032.96
-920.04
-796.206
-666.538
-538.676
-423.994
-328.981
-252.809
-193.157
-137.132
-94.7212
-46.2693
-630.346
-645.698
-668.719
-696.297
-727.949
-762.483
-798.891
-835.83
-871.561
-903.96
-931.797
-955.699
-974.303
-985.709
-992.783
-998.008
-1001.64
-1004.49
-1008.4
-1016.44
-1032.06
-1056.54
-1073.02
-1077.01
-1069.13
-1064.47
-1062.64
-1061.81
-1062.49
-1062.71
-1062.42
-1061.15
-1058.44
-1053.97
-1047.48
-1038.84
-1028.1
-1015.22
-1000.25
-983.297
-964.902
-945.679
-926.494
-907.97
-891.095
-876.31
-864.496
-855.585
-850.121
-847.876
-848.14
-850.357
-853.658
-857.421
-862.503
-867.619
-873.132
-879.462
-886.215
-893.475
-900.533
-909.078
-917.938
-925.241
-939.733
-953.572
-955.772
-946.988
-942.887
-943.519
-948.996
-963.658
-989.817
-1031.75
-1090.32
-1151.26
-1194.09
-1221.36
-1243.62
-1273.67
-1304.04
-1331.21
-1352.24
-1360.01
-1349.31
-1317.48
-1259.25
-1178.3
-1078.97
-965.423
-840.691
-709.184
-578.177
-459.79
-360.735
-280.205
-215.204
-153.353
-106.16
-52.4368
-628.903
-644.422
-667.587
-695.387
-727.295
-762.12
-798.862
-836.185
-872.318
-905.063
-933.125
-957.231
-976.235
-988.01
-995.303
-1000.73
-1004.59
-1007.67
-1011.74
-1019.77
-1035.15
-1059.7
-1076.13
-1077.86
-1070.23
-1065.63
-1064.09
-1063.52
-1064.47
-1065.07
-1065.14
-1064.24
-1061.84
-1057.61
-1051.23
-1042.56
-1031.62
-1018.48
-1003.17
-985.795
-966.856
-946.979
-927.077
-907.809
-890.215
-874.775
-862.448
-853.133
-847.499
-845.282
-845.73
-848.264
-851.895
-856.003
-861.558
-867.172
-873.268
-880.318
-887.847
-895.845
-903.817
-913.451
-922.773
-933.35
-951.711
-971.126
-971.094
-964.598
-964.837
-968.842
-977.638
-995.233
-1024.29
-1068.98
-1128.8
-1186.83
-1226.42
-1251.82
-1276.38
-1309.35
-1342.69
-1373.69
-1398.52
-1408.95
-1398.99
-1366.85
-1307.51
-1225.14
-1124.53
-1010.07
-884.441
-751.242
-617.145
-494.903
-391.437
-306.09
-235.322
-167.636
-116.049
-56.9205
-627.405
-643.094
-666.411
-694.445
-726.62
-761.748
-798.833
-836.547
-873.083
-906.168
-934.446
-958.741
-978.19
-990.381
-997.912
-1003.56
-1007.64
-1010.95
-1015.17
-1023.15
-1038.28
-1062.86
-1079.07
-1078.33
-1071.32
-1066.8
-1065.58
-1065.29
-1066.55
-1067.53
-1068
-1067.51
-1065.48
-1061.52
-1055.29
-1046.61
-1035.5
-1022.05
-1006.35
-988.51
-968.99
-948.414
-927.742
-907.673
-889.3
-873.151
-860.263
-850.498
-844.675
-842.483
-843.127
-846.004
-849.985
-854.461
-860.49
-866.624
-873.328
-881.12
-889.428
-898.127
-907.038
-917.474
-926.775
-942.689
-965.613
-988.475
-984.53
-983.23
-986.941
-994.211
-1006.27
-1026.87
-1058.96
-1106.44
-1167.06
-1221.88
-1258.61
-1282.78
-1310.18
-1346.05
-1382.74
-1417.86
-1446.59
-1459.61
-1450.07
-1417.25
-1356.2
-1271.71
-1169.16
-1053.33
-926.694
-791.983
-654.995
-528.863
-420.648
-330.008
-253.148
-179.868
-124.209
-59.6697
-625.853
-641.718
-665.194
-693.475
-725.929
-761.37
-798.806
-836.914
-873.849
-907.272
-935.765
-960.237
-980.176
-992.835
-1000.62
-1006.5
-1010.82
-1014.35
-1018.7
-1026.62
-1041.46
-1065.97
-1081.82
-1078.36
-1072.4
-1067.98
-1067.1
-1067.12
-1068.71
-1070.11
-1071.02
-1070.98
-1069.35
-1065.7
-1059.67
-1051.02
-1039.74
-1025.95
-1009.82
-991.467
-971.315
-949.995
-928.496
-907.569
-888.351
-871.436
-857.932
-847.671
-841.637
-839.468
-840.318
-843.565
-847.923
-852.801
-859.284
-865.964
-873.306
-881.86
-890.941
-900.3
-910.139
-921.071
-930.464
-950.656
-980.053
-1001.05
-998.037
-1002.06
-1009
-1019.55
-1034.85
-1058.55
-1093.77
-1144.02
-1204.92
-1256.41
-1290.57
-1314.27
-1344.81
-1383.66
-1424.07
-1463.58
-1496.24
-1511.79
-1502.41
-1468.62
-1405.25
-1317.86
-1212.55
-1094.67
-966.725
-830.64
-691.1
-561.2
-447.967
-351.572
-268.456
-190.086
-130.52
-60.913
-624.247
-640.3
-663.943
-692.481
-725.225
-760.987
-798.78
-837.283
-874.614
-908.374
-937.087
-961.727
-982.2
-995.386
-1003.45
-1009.56
-1014.13
-1017.89
-1022.38
-1030.21
-1044.71
-1068.97
-1084.36
-1078.06
-1073.47
-1069.18
-1068.65
-1069.01
-1070.94
-1072.8
-1074.18
-1074.63
-1073.46
-1070.18
-1064.37
-1055.78
-1044.36
-1030.22
-1013.63
-994.694
-973.846
-951.735
-929.349
-907.501
-887.37
-869.626
-855.448
-844.64
-838.372
-836.223
-837.288
-840.938
-845.704
-851.037
-857.926
-865.18
-873.191
-882.527
-892.37
-902.35
-913.041
-924.193
-934.457
-956.247
-992.042
-1009.1
-1012.09
-1020.68
-1030.99
-1044.83
-1063.38
-1090.25
-1128.69
-1181.6
-1242.23
-1290.43
-1322.22
-1346.28
-1380.09
-1422
-1466.53
-1510.64
-1547.29
-1565.36
-1555.93
-1520.93
-1454.67
-1363.56
-1254.56
-1133.76
-1003.95
-866.487
-724.847
-591.503
-473.093
-370.537
-281.198
-198.432
-134.916
-61.0095
-622.6
-638.842
-662.659
-691.466
-724.51
-760.601
-798.754
-837.652
-875.375
-909.476
-938.421
-963.227
-984.269
-998.047
-1006.4
-1012.77
-1017.6
-1021.6
-1026.22
-1033.95
-1048.06
-1071.84
-1086.56
-1077.44
-1074.56
-1070.39
-1070.21
-1070.94
-1073.25
-1075.59
-1077.48
-1078.48
-1077.8
-1074.94
-1069.42
-1060.92
-1049.38
-1034.88
-1017.78
-998.201
-976.611
-953.645
-930.311
-907.474
-886.358
-867.719
-852.804
-841.394
-834.865
-832.731
-834.022
-838.11
-843.322
-849.209
-856.402
-864.26
-872.976
-883.111
-893.703
-904.267
-915.669
-926.86
-938.197
-961.445
-998.587
-1016.03
-1026.27
-1039.12
-1052.95
-1070.08
-1091.88
-1121.98
-1163.71
-1219.08
-1278.86
-1323.88
-1353.54
-1378.73
-1415.81
-1460.94
-1509.94
-1558.87
-1599.54
-1620.19
-1610.64
-1574.13
-1504.48
-1408.87
-1295.24
-1170.48
-1037.98
-898.916
-755.673
-619.46
-495.875
-386.857
-291.506
-205.092
-137.408
-60.3417
-620.914
-637.348
-661.347
-690.433
-723.787
-760.214
-798.729
-838.021
-876.134
-910.58
-939.777
-964.754
-986.389
-1000.83
-1009.5
-1016.13
-1021.24
-1025.5
-1030.26
-1037.88
-1051.53
-1074.6
-1088.28
-1076.51
-1075.7
-1071.61
-1071.79
-1072.92
-1075.62
-1078.48
-1080.93
-1082.51
-1082.39
-1080
-1074.81
-1066.44
-1054.81
-1039.96
-1022.29
-1002.03
-979.64
-955.74
-931.394
-907.496
-885.315
-865.712
-849.989
-837.919
-831.099
-828.977
-830.505
-835.069
-840.771
-847.389
-854.7
-863.186
-872.648
-883.606
-894.935
-906.045
-918.037
-929.045
-940.25
-966.473
-1002.32
-1024.29
-1040.64
-1057.58
-1074.94
-1095.33
-1120.38
-1153.77
-1198.79
-1256.33
-1314.72
-1356.73
-1384.54
-1411.49
-1451.77
-1500.3
-1554.1
-1608.04
-1652.83
-1676.09
-1666.46
-1628.11
-1554.6
-1453.77
-1334.61
-1204.88
-1068.71
-927.508
-783.085
-644.859
-516.331
-400.709
-299.64
-210.242
-138.07
-59.2257
-619.192
-635.82
-660.01
-689.385
-723.057
-759.825
-798.705
-838.389
-876.89
-911.692
-941.169
-966.328
-988.566
-1003.76
-1012.76
-1019.66
-1025.07
-1029.6
-1034.52
-1042.01
-1055.13
-1077.25
-1089.59
-1075.44
-1076.93
-1072.83
-1073.36
-1074.93
-1078.04
-1081.47
-1084.51
-1086.73
-1087.22
-1085.36
-1080.55
-1072.37
-1060.66
-1045.48
-1027.22
-1006.23
-982.957
-958.041
-932.61
-907.573
-884.245
-863.601
-846.996
-834.203
-827.057
-824.943
-826.72
-831.8
-838.032
-845.636
-852.819
-861.941
-872.198
-884.003
-896.061
-907.691
-920.205
-930.686
-941.811
-970.365
-1006.42
-1033.9
-1055.42
-1076.23
-1097.05
-1120.64
-1148.93
-1185.63
-1233.92
-1293.24
-1349.75
-1388.88
-1415.22
-1444.41
-1487.77
-1539.88
-1598.76
-1657.86
-1706.89
-1732.79
-1723.14
-1682.63
-1604.77
-1498.07
-1372.65
-1237.03
-1096.19
-952.091
-806.644
-667.509
-534.587
-412.454
-305.936
-214.026
-137.061
-57.8879
-617.428
-634.262
-658.649
-688.324
-722.321
-759.435
-798.681
-838.757
-877.646
-912.815
-942.61
-967.979
-990.808
-1006.84
-1016.19
-1023.38
-1029.1
-1033.93
-1039.01
-1046.38
-1058.9
-1079.8
-1090.67
-1074.39
-1078.26
-1074.05
-1074.92
-1076.97
-1080.52
-1084.53
-1088.22
-1091.13
-1092.3
-1091.03
-1086.66
-1078.7
-1066.95
-1051.45
-1032.59
-1010.82
-986.576
-960.57
-933.97
-907.714
-883.146
-861.38
-843.814
-830.232
-822.721
-820.61
-822.65
-828.285
-835.074
-843.881
-850.769
-860.513
-871.614
-884.295
-897.077
-909.237
-922.144
-931.651
-944.573
-974.212
-1012.81
-1044.8
-1070.8
-1095.2
-1119.36
-1146.06
-1177.57
-1217.61
-1269.06
-1329.69
-1383.91
-1420.28
-1445.59
-1477.29
-1523.6
-1579.46
-1643.64
-1708
-1761.41
-1790.01
-1780.27
-1737.3
-1654.58
-1541.43
-1409.15
-1266.98
-1120.64
-972.781
-825.988
-687.094
-550.754
-422.541
-310.775
-216.571
-134.656
-56.4746
-615.637
-632.674
-657.267
-687.249
-721.58
-759.045
-798.658
-839.125
-878.405
-913.957
-944.115
-969.74
-993.12
-1010.1
-1019.81
-1027.29
-1033.34
-1038.49
-1043.75
-1051.01
-1062.85
-1082.29
-1091.6
-1073.42
-1079.67
-1075.25
-1076.46
-1079.03
-1083.03
-1087.68
-1092.06
-1095.72
-1097.63
-1097.02
-1093.14
-1085.46
-1073.71
-1057.89
-1038.41
-1015.79
-990.522
-963.353
-935.492
-907.927
-882.023
-859.043
-840.432
-825.993
-818.071
-815.954
-818.274
-824.501
-831.855
-841.969
-848.562
-858.897
-870.886
-884.476
-897.982
-910.752
-923.679
-932.583
-948.91
-980.118
-1021.71
-1057.02
-1086.89
-1114.6
-1141.93
-1171.65
-1206.35
-1249.71
-1304.19
-1365.57
-1417.17
-1450.87
-1475.62
-1509.95
-1559.06
-1618.79
-1688.39
-1758.05
-1815.97
-1847.36
-1837.39
-1791.63
-1703.54
-1583.4
-1443.79
-1294.65
-1142.27
-989.968
-840.98
-703.046
-564.76
-431.366
-314.562
-218.042
-131.28
-55.0762
-613.817
-631.059
-655.865
-686.163
-720.835
-758.655
-798.636
-839.496
-879.172
-915.125
-945.7
-971.646
-995.514
-1013.56
-1023.64
-1031.41
-1037.81
-1043.29
-1048.76
-1055.9
-1067
-1084.75
-1092.46
-1072.59
-1081.13
-1076.42
-1077.96
-1081.1
-1085.59
-1090.9
-1096.02
-1100.49
-1103.2
-1103.31
-1100.01
-1092.65
-1080.94
-1064.83
-1044.73
-1021.2
-994.832
-966.416
-937.196
-908.221
-880.876
-856.584
-836.84
-821.468
-813.085
-810.952
-813.573
-820.416
-828.309
-839.805
-846.214
-857.083
-870
-884.537
-898.79
-912.252
-924.853
-934.878
-954.783
-988.354
-1032.59
-1070.54
-1103.75
-1134.5
-1164.83
-1197.48
-1235.32
-1281.97
-1339.24
-1400.77
-1449.51
-1480.63
-1505.28
-1542.17
-1593.92
-1657.58
-1732.62
-1807.53
-1870.04
-1904.27
-1893.95
-1845
-1751.05
-1623.44
-1476.15
-1319.86
-1161.27
-1004.16
-851.956
-714.623