/*--------------------------------*- C++ -*----------------------------------*\
| =========                 |                                                 |
| \\      /  F ield         | OpenFOAM: The Open Source CFD Toolbox           |
|  \\    /   O peration     | Version:  4.1                                   |
|   \\  /    A nd           | Web:      www.OpenFOAM.org                      |
|    \\/     M anipulation  |                                                 |
\*---------------------------------------------------------------------------*/
FoamFile
{
    version     2.0;
    format      ascii;
    class       surfaceScalarField;
    location    "500";
    object      phi;
}
// * * * * * * * * * * * * * * * * * * * * * * * * * * * * * * * * * * * * * //

dimensions      [0 3 -1 0 0 0 0];

internalField   nonuniform List<scalar> 
52920
(
-1743.13
44.097
-1812.74
69.6179
-1915.7
102.974
-2046.92
131.237
-2201.03
154.14
-2368.81
167.794
-2538.38
169.589
-2694.49
156.119
-2820.75
126.283
-2905.3
84.5631
-2946.73
41.4591
-2946.68
-0.0298539
-2891.45
-55.1937
-2773.25
-118.181
-2595.79
-177.431
-2363.02
-232.751
-2072.49
-290.51
-1701.15
-371.309
-1163
-538.131
-278.97
-884.003
783.948
-1062.89
1475.71
-691.726
1828.97
-353.234
1968.81
-139.803
1921.91
46.9359
1669.82
252.122
1418.68
251.171
1296.1
122.606
1315.74
-19.5988
1470.79
-155.019
1711.84
-241.009
1990.94
-279.074
2260.69
-269.713
2490.29
-229.574
2674.88
-184.562
2835.87
-160.958
3006.73
-170.843
3214.8
-208.046
3472.28
-257.455
3778.56
-306.258
4126.42
-347.836
4507.43
-380.992
4914.19
-406.747
5340.43
-426.223
5779.25
-438.809
6221.61
-442.346
6655.54
-433.908
7066.63
-411.076
7439.37
-372.723
7758.65
-319.274
8011.68
-253.014
8188.63
-176.952
8285.74
-97.0952
8308.61
-22.8639
8270.6
38.0256
8190.99
79.6163
8090.18
100.823
7987.47
102.708
7897.41
90.0713
7823.16
74.2499
7750.16
73.0168
7641.12
109.044
7433.25
207.875
7059.79
373.463
6480.17
579.623
5657.56
822.613
4501.74
1155.83
2816.24
1685.5
465.86
2350.39
-1867.49
2333.35
-3519.72
1652.25
-4674.69
1154.97
-5922.23
1247.56
-7345.82
1423.59
-8929.96
1584.14
-10645.7
1715.76
-12443.2
1797.51
-14250.8
1807.56
-15975.5
1724.77
-17522.1
1546.51
-18818.1
1296
-19828
1009.95
-20545.4
717.423
-20976.9
431.497
-21131.7
154.79
-21010.6
-121.127
-20601
-409.574
-19888.2
-712.825
-18859
-1029.15
-17502.6
-1356.47
-15810.5
-1692.06
-13778.9
-2031.62
-11416.7
-2362.19
-8757.16
-2659.54
-5819.54
-2937.62
-2390.86
-3428.69
1571.01
-3961.87
5465.35
-3894.34
8997.58
-3532.23
-7419.9
-1778.72
90.0811
-1847.17
138.081
-1945.13
200.942
-2068.95
255.072
-2213.67
298.894
-2370.98
325.118
-2529.46
328.092
-2674.46
301.132
-2790.96
242.798
-2870.11
163.734
-2914.49
85.8624
-2929.28
14.7937
-2899.44
-85.0111
-2809.68
-207.917
-2651.36
-335.717
-2409.73
-474.357
-2070.16
-630.056
-1620.51
-820.932
-1059.11
-1099.51
-405.093
-1538
326.664
-1794.62
1020.03
-1385.07
1491.11
-824.287
1596.11
-244.764
1551.41
91.6792
1364.81
438.76
1190.74
425.274
1130.07
183.313
1191.22
-80.7118
1341.77
-305.529
1524.25
-423.456
1718.94
-473.729
1915.39
-466.124
2104.97
-419.123
2283.4
-362.965
2457.53
-335.058
2645.09
-358.372
2867.11
-430.041
3137.13
-527.457
3455.81
-624.911
3814.42
-706.421
4202.19
-768.746
4609.91
-814.45
5030.13
-846.429
5455.63
-864.288
5878.42
-865.119
6289.26
-844.728
6677.69
-799.494
7032.39
-727.41
7341.64
-628.514
7594.59
-505.946
7781.58
-363.937
7896.23
-211.733
7938.09
-64.711
7913.32
62.8036
7837.12
155.819
7728.6
209.355
7608.06
223.259
7493.26
204.873
7391.96
175.56
7293.31
171.672
7163.92
238.435
6946.8
425.007
6580.28
739.977
6024.86
1135.06
5240.42
1607.05
4151.56
2244.69
2653.45
3183.61
587.694
4416.15
-1659.27
4580.32
-3252.13
3245.11
-4434.82
2337.66
-5739.23
2551.98
-7221.25
2905.61
-8871.59
3234.5
-10661.7
3505.91
-12542.3
3678.04
-14440.7
3706.01
-16259.4
3543.44
-17895
3182.08
-19266.9
2667.96
-20333.4
2076.44
-21083.6
1467.68
-21520.9
868.721
-21649.7
283.655
-21466.7
-304.156
-20960.7
-915.615
-20121.3
-1552.22
-18941.9
-2208.55
-17425.3
-2873
-15584.5
-3532.89
-13442.1
-4173.99
-11028.5
-4775.79
-8367.12
-5320.97
-5433.93
-5870.81
-2248.74
-6613.88
1086.9
-7297.51
5036.35
-7843.79
9054.08
-7549.96
-12806.2
-1822.42
139.288
-1888.73
204.399
-1982.72
294.943
-2099.95
372.314
-2236.29
435.257
-2384.41
473.251
-2534.13
477.83
-2672.09
439.106
-2784.4
355.121
-2862.82
242.174
-2909.72
132.782
-2930.14
35.2466
-2909.04
-106.093
-2829.83
-287.102
-2682.66
-482.858
-2453.32
-703.685
-2126.43
-956.923
-1691.49
-1255.86
-1152.49
-1638.49
-543.611
-2146.86
117.479
-2455.7
782.321
-2049.9
1259.09
-1301.04
1320.28
-305.912
1225.87
186.135
1057.85
606.823
933.911
549.255
906.588
210.668
979.216
-153.302
1105.08
-431.355
1234.57
-552.908
1376.36
-615.488
1536.27
-625.999
1711.1
-593.917
1892.49
-544.331
2080.96
-523.496
2294.72
-572.113
2557.62
-692.917
2876.71
-846.528
3239.61
-987.782
3628.49
-1095.29
4030.42
-1170.66
4437.62
-1221.64
4845.15
-1253.94
5248.63
-1267.76
5643.47
-1259.94
6024.21
-1225.45
6384.24
-1159.51
6715.71
-1058.87
7009.57
-922.36
7256.68
-753.05
7448.34
-555.584
7576.49
-339.874
7635.38
-123.592
7625
73.1894
7558.81
222.015
7456.7
311.482
7340.19
339.774
7227.47
317.604
7126.41
276.62
7026.37
271.718
6891.61
373.2
6661.05
655.581
6271.05
1129.98
5683
1723.11
4859.72
2430.32
3749.76
3354.66
2330.46
4602.91
526.819
6219.79
-1477.94
6585.08
-2984.45
4751.63
-4169.5
3522.72
-5546.57
3929.05
-7120.18
4479.22
-8863.96
4978.28
-10750
5391.99
-12729.1
5657.14
-14725.7
5702.58
-16632.2
5449.91
-18329.5
4879.42
-19720.3
4058.74
-20748.9
3105.02
-21396.1
2114.87
-21665.9
1138.59
-21574
191.724
-21137.9
-740.24
-20374.8
-1678.69
-19303.9
-2623.13
-17949.5
-3562.98
-16338.6
-4483.9
-14497.2
-5374.26
-12447.6
-6223.57
-10202.2
-7021.2
-7752.69
-7770.52
-5068.02
-8555.48
-2144.84
-9537.06
1052.26
-10494.6
4772.99
-11564.5
8913.11
-11690.1
-17412.3
-1865.73
189.479
-1929.25
267.927
-2019.82
385.527
-2131.85
484.362
-2261.85
565.279
-2403.15
614.569
-2546.62
621.316
-2679.92
572.415
-2789.73
464.954
-2867.81
320.273
-2916.21
181.21
-2940.14
59.1969
-2924.95
-121.25
-2853.72
-358.311
-2716.62
-619.924
-2501.47
-918.818
-2194.62
-1263.76
-1786.27
-1664.18
-1277.17
-2147.57
-696.14
-2727.87
-60.6805
-3091.14
593.773
-2704.33
1057.53
-1764.78
1077.59
-325.925
944.193
319.584
782.866
768.199
684.734
647.446
650.105
245.351
687.992
-191.139
761.228
-504.544
837.588
-629.223
950.35
-728.205
1105.35
-780.961
1291.39
-779.914
1495.8
-748.71
1726.97
-754.632
2008.82
-853.943
2348.34
-1032.41
2725.82
-1223.98
3117.34
-1379.29
3510.08
-1488
3900.51
-1561.07
4287.78
-1608.89
4670.78
-1636.93
5047.21
-1644.17
5413.92
-1626.64
5766.96
-1578.46
6101.52
-1494.06
6411.95
-1369.28
6691.37
-1201.77
6932.43
-994.093
7127.66
-750.808
7268.96
-481.159
7347.59
-202.21
7357.13
63.6647
7307.48
271.673
7217.76
401.211
7109.36
448.176
7000.17
426.811
6898.43
378.364
6796.55
373.604
6664.82
504.929
6443.45
876.961
6053.82
1519.61
5439.22
2337.71
4570
3299.54
3444.88
4479.78
2109.31
5938.49
590.318
7738.79
-1138.66
8314.06
-2636.27
6249.24
-3892.02
4778.48
-5365.41
5402.45
-7047.97
6161.78
-8892.98
6823.3
-10874.3
7373.3
-12945.4
7728.26
-15026.3
7783.49
-16991.8
7415.37
-18691.3
6578.91
-19991.7
5359.16
-20814.1
3927.47
-21146.6
2447.35
-21045.2
1037.18
-20604.5
-248.985
-19902.7
-1442.03
-18985.2
-2596.15
-17876.1
-3732.26
-16591.9
-4847.18
-15135.3
-5940.52
-13500.5
-7009.03
-11677.4
-8046.71
-9650.15
-9048.42
-7394.79
-10025.9
-4889.53
-11060.7
-2130.54
-12296.1
937.962
-13563.1
4337.32
-14963.9
8419.87
-15772.6
-21584
-1906.72
239.035
-1967.17
328.376
-2054.3
472.668
-2161.78
591.861
-2286.56
690.076
-2422.46
750.48
-2561.15
760.02
-2691.18
702.459
-2799.83
573.618
-2878.81
399.268
-2929.74
232.164
-2957.68
87.1572
-2948.7
-130.202
-2885.96
-421.029
-2759.77
-746.094
-2559.58
-1118.99
-2272.9
-1550.41
-1889.03
-2048.05
-1404.06
-2632.52
-839.209
-3292.71
-216.448
-3713.89
426.629
-3347.4
866.97
-2205.11
842.96
-301.878
680.572
482.032
519.82
929.002
395.876
771.486
269.281
372.248
254.177
-175.935
317.136
-567.443
396.273
-708.308
530.89
-862.774
710.999
-961.031
926.302
-995.183
1180.57
-1002.95
1490.06
-1064.1
1854.02
-1217.87
2244.81
-1423.18
2634.68
-1613.84
3014.36
-1758.95
3386.57
-1860.2
3755.73
-1930.22
4123.16
-1976.3
4487.55
-2001.31
4845.66
-2002.27
5193.51
-1974.47
5526.7
-1911.63
5840.76
-1808.12
6131.32
-1659.83
6393.63
-1464.08
6622.99
-1223.43
6814.7
-942.515
6963
-629.437
7058.95
-298.152
7090.04
32.5786
7059.78
301.941
6983.62
477.389
6880.94
550.862
6769.17
538.586
6658.1
489.439
6546.28
485.436
6416.98
634.233
6216.64
1077.31
5843.69
1892.57
5219.65
2961.76
4342.47
4176.72
3286.37
5535.89
2127.26
7097.59
883.156
8982.9
-619.222
9816.44
-2196.84
7826.86
-3612.16
6193.8
-5206.58
6996.86
-7001.99
7957.19
-8943.91
8765.22
-11010.6
9440.04
-13160.7
9878.31
-15303.4
9926.15
-17275.4
9387.38
-18862.5
8166.02
-19875.2
6371.85
-20243.7
4295.96
-20072.6
2276.3
-19599.4
563.99
-19024.1
-824.336
-18382.5
-2083.55
-17642.8
-3335.86
-16777.7
-4597.37
-15752.9
-5871.96
-14532.3
-7161.2
-13088.1
-8453.17
-11403.3
-9731.53
-9468.27
-10983.5
-7277.29
-12216.9
-4836.52
-13501.5
-2161.89
-14970.7
777.023
-16502
3822.34
-18009.2
7622.06
-19572.3
-25328.9
-1942.86
275.183
-2003.28
388.808
-2086.22
555.623
-2189.65
695.302
-2309.74
810.189
-2441.1
881.852
-2576.14
895.077
-2704.44
830.772
-2814.03
683.225
-2896.46
481.72
-2952.33
288.059
-2985.88
120.726
-2984.24
-131.813
-2930.97
-474.27
-2816.34
-860.698
-2631.02
-1304.3
-2363.07
-1818.34
-2000.61
-2410.5
-1536.57
-3096.54
-986.112
-3843.16
-373.261
-4326.73
258.402
-3979.05
669.107
-2615.79
586.011
-218.735
407.267
660.847
268.681
1067.65
327.263
713.018
197.088
502.753
-3.20122
24.4682
33.5988
-604.176
141.832
-816.482
307.647
-1028.54
510.873
-1164.21
755.702
-1239.97
1057.23
-1304.45
1413.32
-1420.16
1795.2
-1599.72
2172.7
-1800.65
2535.9
-1977.02
2890.16
-2113.19
3242.58
-2212.6
3596.68
-2284.29
3951.91
-2331.53
4305.63
-2355.01
4653.49
-2350.12
4990.57
-2311.54
5311.63
-2232.66
5611.58
-2108.06
5886.03
-1934.26
6131.02
-1709.07
6343.73
-1436.13
6522.56
-1121.33
6666.12
-772.979
6768.65
-400.674
6814.27
-13.0325
6798.94
317.284
6732.14
544.199
6630.22
652.783
6510.69
658.125
6385.22
614.918
6259.59
611.071
6134.03
759.803
5961.66
1249.68
5611.38
2242.84
4994.01
3579.14
4159.34
5011.4
3258.52
6436.71
2368.43
7987.68
1396.1
9955.23
52.6471
11159.9
-1675.46
9554.97
-3334.65
7853
-5071.81
8734.03
-6976.7
9862.08
-9006.02
10794.5
-11146.3
11580.3
-13359.4
12091.4
-15527.2
12094
-17411.2
11271.4
-18697
9451.82
-19173.2
6848.13
-18948.2
4070.92
-18445.5
1773.62
-18048
166.526
-17775.3
-1097.1
-17463.7
-2395.16
-17017.2
-3782.38
-16381.9
-5232.63
-15509.4
-6744.49
-14371.7
-8298.9
-12958.1
-9866.72
-11271.7
-11418
-9324.76
-12930.4
-7134.68
-14407
-4729.1
-15907.1
-2137.91
-17561.9
657.202
-19297.1
3428.88
-20780.9
6779.22
-22922.7
-28498.5
-1980.18
310.528
-2038.2
446.835
-2117.63
635.064
-2217.14
794.819
-2333.02
926.087
-2460.59
1009.43
-2593.18
1027.68
-2721.64
959.235
-2834.9
796.504
-2924.07
570.901
-2987.79
351.802
-3028.48
161.436
-3035.05
-125.22
-2991.91
-517.389
-2888.95
-963.638
-2717.78
-1475.46
-2466.7
-2069.4
-2122.79
-2754.4
-1676.72
-3542.6
-1138.51
-4381.36
-533.134
-4932.1
84.7847
-4596.96
466.148
-2997.14
279.562
-32.0984
60.2395
880.221
-175.472
1303.4
-371.017
908.606
-332.422
464.195
-197.895
-110.019
-93.8027
-708.23
61.9049
-972.149
242.311
-1208.9
458.446
-1380.32
719.592
-1501.09
1029.98
-1614.81
1373.88
-1764.04
1725.46
-1951.29
2070.32
-2145.5
2408.9
-2315.58
2747
-2451.29
3088.35
-2553.93
3433.83
-2629.77
3781.66
-2679.34
4128.73
-2702.07
4470.38
-2691.75
4801.32
-2642.47
5115.74
-2547.06
5407.88
-2400.2
5672.63
-2198.99
5905.47
-1941.9
6103.62
-1634.26
6266.65
-1284.36
6396.74
-903.056
6492.42
-496.345
6538.09
-58.6936
6525.76
329.622
6460.36
609.617
6355.4
757.747
6227.77
785.762
6088.44
754.253
5948.56
750.967
5826.95
881.41
5683.43
1393.21
5356.54
2569.74
4762.24
4173.45
4010.53
5763.12
3301.94
7145.3
2701.55
8588.07
1975.53
10681.3
729.405
12406
-1149.45
11433.8
-3068.12
9771.67
-4961.76
10627.7
-6969.49
11869.8
-9074.66
12899.7
-11276.2
13781.8
-13530.9
14346.1
-15663.2
14226.3
-17312.9
12921
-18077.1
10216
-17912.5
6683.59
-17380.4
3538.83
-17139.5
1532.69
-17236
262.969
-17321.3
-1011.77
-17221.2
-2495.19
-16892.9
-4110.7
-16298.8
-5826.72
-15418.5
-7624.84
-14249.7
-9467.68
-12798.8
-11317.6
-11081
-13135.7
-9119.35
-14892.1
-6942.6
-16583.7
-4588.66
-18261
-2095.23
-20055.3
549.888
-21942.2
3146.25
-23377.2
6057.59
-25834
-31071.2
-2020.2
344.47
-2075.62
502.269
-2151.89
711.351
-2247.71
890.643
-2359.85
1038.25
-2484.4
1133.99
-2615.82
1159.12
-2746.45
1089.87
-2866.21
916.29
-2965.36
670.063
-3039.6
426.063
-3088.34
210.204
-3103.29
-110.24
-3070.28
-550.374
-2978.46
-1055.43
-2820.26
-1633.64
-2584.11
-2305.54
-2256.31
-3082.18
-1825.68
-3973.21
-1297.38
-4909.66
-695.601
-5533.87
-95.095
-5197.46
218.181
-3310.4
-94.1556
280.296
-285.067
1071.17
-456.774
1475.15
-755.118
1206.98
-668.181
377.296
-340.214
-437.956
-185.955
-862.452
2.57205
-1160.64
193.555
-1399.84
416.014
-1602.74
677.61
-1762.66
973.664
-1910.84
1291.24
-2081.59
1615.93
-2275.95
1941.28
-2470.83
2267.74
-2642.02
2597.85
-2781.38
2932.83
-2888.9
3272.66
-2969.58
3615.23
-3021.89
3957.45
-3044.28
4294.59
-3028.88
4621.34
-2969.21
4931.7
-2857.41
5219.7
-2688.18
5479.76
-2459.04
5706.62
-2168.75
5896.64
-1824.26
6048.84
-1436.55
6166.56
-1020.76
6250.49
-580.27
6285.62
-93.8105
6264.72
350.535
6192.72
681.626
6081.99
868.481
5947.23
920.54
5794.63
906.853
5638.17
907.443
5515.77
1003.82
5395.05
1513.94
5089.33
2875.46
4531.51
4731.28
3883.54
6411.08
3358.91
7669.93
3002.65
8944.33
2471.55
11212.4
1291.32
13586.3
-685.335
13410.5
-2828.71
11915
-4881.34
12680.3
-6982.05
13970.5
-9149.93
15067.6
-11399
16030.9
-13663.7
16610.9
-15669.2
16231.8
-16913
14164.8
-17049.3
10352.3
-16522.5
6156.79
-16306.7
3322.99
-16670.9
1896.92
-17096.1
688.194
-17261.9
-845.948
-17173
-2584.11
-16819.8
-4463.95
-16184.3
-6462.16
-15266.7
-8542.45
-14070.1
-10664.2
-12601.5
-12786.3
-10876.2
-14861
-8920.05
-16848.3
-6769.4
-18734.4
-4471.25
-20559.2
-2073.15
-22453.4
424.356
-24439.8
2869.51
-25822.4
5451.64
-28416.1
-33187.5
-2066.37
378.238
-2119.32
555.225
-2192.87
784.91
-2285.43
983.213
-2394.45
1147.29
-2516.85
1256.39
-2648.37
1290.66
-2782.95
1224.45
-2911.44
1044.8
-3022.87
781.502
-3109.29
512.503
-3166.19
267.122
-3189.07
-87.3341
-3165.6
-573.832
-3083.93
-1137.09
-2937.31
-1780.24
-2714.25
-2528.59
-2400.54
-3395.89
-1983.4
-4390.34
-1463.23
-5429.82
-861.986
-6135.11
-291.812
-5767.62
-142.289
-3459.91
-495.2
633.247
-569.89
1145.89
-611.456
1516.74
-764.895
1360.44
-655.167
267.599
-397.338
-695.766
-241.79
-1017.98
-62.2185
-1340.18
126.786
-1588.82
345.092
-1821.02
597.774
-2015.32
878.439
-2191.49
1178.68
-2381.82
1489.21
-2586.46
1804.88
-2786.48
2124.6
-2961.73
2449.36
-3106.12
2779.56
-3219.09
3114.99
-3305
3453.45
-3360.34
3791.92
-3382.73
4125.59
-3362.53
4449.17
-3292.78
4756.61
-3164.82
5041.93
-2973.5
5299.52
-2716.62
5523.74
-2392.96
5710.33
-2010.83
5857.52
-1583.74
5968.71
-1131.93
6044.73
-656.282
6068.89
-117.962
6035.84
383.592
5953.39
764.095
5834.57
987.298
5691.05
1064.07
5521.83
1076.08
5342.77
1086.51
5211.28
1135.31
5104.46
1620.76
4818.42
3161.5
4308.58
5241.12
3771.71
6947.96
3405.48
8036.17
3222.83
9126.98
2809.64
11625.6
1664.09
14731.8
-341.859
15416.4
-2643.31
14216.5
-4841.3
14878.3
-7018.81
16148
-9234.3
17283.1
-11513.7
18310.2
-13741.8
18839
-15506.9
17996.9
-16225.6
14883.6
-15888.8
10015.4
-15533.6
5801.58
-15939.5
3728.89
-16640.8
2598.3
-17062.4
1109.74
-17184.8
-723.509
-17063.4
-2705.5
-16679.8
-4847.55
-16027.2
-7114.77
-15103.8
-9465.87
-13906.6
-11861.5
-12438.8
-14254.1
-10714.8
-16585
-8764.03
-18799
-6632.6
-20865.8
-4379.42
-22812.3
-2065.89
-24766.9
291.047
-26796.7
2564.6
-28096
4893.23
-30744.8
-34989.3
-2120.48
413.74
-2171.45
606.204
-2243.26
856.727
-2333.47
1073.44
-2440.38
1254.23
-2561.74
1377.76
-2694.61
1423.54
-2834.37
1364.22
-2972.69
1183.14
-3097.17
906.002
-3195.98
611.333
-3261.25
332.418
-3291.37
-57.1873
-3275.75
-589.429
-3203.01
-1209.81
-3066.53
-1916.71
-2854.95
-2740.16
-2553.69
-3697.13
-2148.53
-4795.5
-1635.53
-5942.8
-1034.23
-6736.4
-500.256
-6301.59
-573.639
-3386.52
-837.555
897.207
-740.839
1049.2
-746.888
1522.83
-741.633
1355.21
-599.216
125.231
-433.484
-861.471
-293.96
-1157.47
-131.591
-1502.52
50.668
-1771.05
259.809
-2030.13
501.021
-2256.5
769.694
-2460.14
1058.78
-2670.88
1360.15
-2887.81
1668.82
-3095.14
1983.15
-3276.05
2303.5
-3426.45
2629.77
-3545.34
2961.58
-3636.79
3296.64
-3695.39
3632.13
-3718.21
3963.21
-3693.61
4284.65
-3614.19
4590.22
-3470.38
4873.97
-3257.24
5130.25
-2972.88
5353.24
-2615.94
5538.34
-2195.91
5683.38
-1728.77
5791.93
-1240.47
5864.89
-729.227
5882.47
-135.521
5839.86
426.204
5747.05
856.916
5618.4
1115.96
5462.8
1219.68
5272.12
1266.77
5063.97
1294.67
4914.24
1285.05
4812.39
1722.61
4550.28
3423.62
4105.3
5686.11
3685.07
7368.19
3452.51
8268.74
3373.76
9205.73
2986.92
12012.4
1829.5
15889.2
-156.733
17402.7
-2544.2
16604
-4855.49
17189.6
-7084.73
18377.3
-9330.68
19529.1
-11617.4
20596.9
-13746.6
20968.2
-15164.7
19415.1
-15371.5
15090.3
-14920.3
9564.27
-15075.7
5956.97
-15902.6
4555.78
-16598.3
3294.07
-16939.3
1450.74
-17050.1
-612.724
-16925.7
-2829.88
-16543.2
-5230.14
-15897.9
-7759.98
-14981.2
-10382.6
-13787.3
-13055.4
-12318.4
-15722.9
-10589.9
-18313.6
-8636.35
-20752.5
-6514.02
-22988.1
-4295.17
-25031.2
-2056.58
-27005.5
169.372
-29022.6
2268.17
-30194.8
4361.32
-32837.9
-36534
-2178.04
433.656
-2232.77
660.938
-2303.51
927.475
-2393.19
1163.12
-2499.56
1360.62
-2621.38
1499.59
-2756.75
1558.92
-2902.28
1509.76
-3050.27
1331.14
-3186.98
1042.73
-3296.98
721.34
-3370.41
405.868
-3406.98
-20.6002
-3397.38
-599.011
-3332.26
-1274.91
-3204.53
-2044.43
-3003.01
-2941.67
-2712.95
-3987.18
-2318.88
-5189.56
-1812.98
-6448.7
-1214.49
-7334.88
-678.428
-6837.65
-634.933
-3430
-893.437
1155.74
-953.449
1109.24
-911.228
1480.63
-763.296
1207.3
-596.595
-41.4384
-478.782
-979.266
-353.716
-1282.52
-205.827
-1650.39
-29.354
-1947.5
171.593
-2231.06
401.705
-2486.6
659.856
-2718.27
939.023
-2950.03
1232.05
-3180.83
1534.4
-3397.48
1844.12
-3585.76
2160.88
-3743.19
2483.91
-3868.36
2812.62
-3965.48
3144.72
-4027.48
3477.74
-4051.21
3806.93
-4022.79
4127.16
-3934.41
4432.04
-3775.24
4715.51
-3540.7
4971.81
-3229.17
5194.85
-2838.98
5379.7
-2380.74
5523.91
-1872.97
5631.58
-1348.13
5704.25
-801.885
5718.81
-150.066
5669.82
475.2
5567.31
959.44
5427.3
1255.98
5257.85
1389.14
5044.19
1480.43
4802.65
1536.23
4624.46
1463.25
4519.42
1827.67
4292.78
3650.26
3934.11
6044.79
3637.79
7664.51
3522.25
8384.28
3485.84
9242.15
3029.68
12468.6
1804.17
17114.7
-147.545
19354.4
-2561.65
19018.1
-4934.84
19562.8
-7183.53
20626
-9440.93
21786.5
-11704.4
22860.4
-13663.6
22927.4
-14671.5
20422.9
-14515.6
14934.5
-14286.3
9335.03
-14939.2
6609.8
-15879.3
5495.94
-16474
3888.76
-16796.7
1773.42
-16929.4
-480.075
-16815.2
-2944.04
-16442.1
-5603.19
-15803.7
-8398.45
-14889.5
-11296.8
-13694.7
-14250.3
-12220.9
-17196.7
-10484.4
-20050.1
-8524.02
-22712.9
-6405.66
-25106.5
-4214.87
-27222
-2043.95
-29176.4
59.6949
-31126.3
2002.43
-32137.5
3868.57
-34704.1
-37837.8
-2243.38
459.887
-2300.38
717.947
-2372.88
999.982
-2464.12
1254.38
-2572.06
1468.57
-2696.04
1623.58
-2834.91
1697.8
-2986.13
1660.98
-3142.47
1487.49
-3289.32
1189.6
-3408.59
840.623
-3489.08
486.377
-3531.01
21.3632
-3526.12
-603.877
-3467.28
-1333.73
-3346.96
-2164.73
-3154.29
-3134.33
-2874.52
-4266.93
-2491.16
-5572.91
-1992.94
-6946.91
-1398.08
-7929.73
-870.938
-7364.78
-815.501
-3485.42
-1083.01
1423.29
-1169.58
1195.85
-1022.18
1333.26
-803.557
988.715
-635.197
-209.757
-531.729
-1082.71
-414.93
-1399.29
-277.066
-1788.23
-109.309
-2115.23
82.8807
-2423.23
302.688
-2706.38
550.64
-2966.2
820.153
-3219.52
1105.3
-3465.96
1401.93
-3694.08
1707.63
-3891.45
2021.38
-4056.92
2341.69
-4188.66
2667.75
-4291.52
2997.27
-4356.99
3328.19
-4382.12
3656
-4350.59
3975.77
-4254.16
4280.92
-4080.38
4565.35
-3825.12
4823.09
-3486.89
5047.66
-3063.54
5233.76
-2566.82
5378.42
-2017.62
5486.3
-1455.99
5559.94
-875.522
5573.2
-163.308
5519.4
529.005
5407.09
1071.77
5254.47
1408.6
5070.11
1573.5
4834.4
1716.15
4560.27
1810.36
4347.62
1675.91
4231.42
1943.87
4051.96
3829.73
3799.39
6297.36
3634.83
7829.07
3627.3
8391.82
3577.58
9291.87
2961.1
13085
1617.44
18458.4
-311.546
21283.4
-2709.86
21416.4
-5081.66
21934.6
-7316.51
22860.8
-9564.76
24034.7
-11767.2
25062.9
-13488.5
24648.6
-14085.5
21019.9
-13782.7
14631.7
-13941.6
9493.84
-14902
7570.26
-15792.9
6386.81
-16333.3
4429.15
-16685.6
2125.78
-16838.3
-327.378
-16730.9
-3051.45
-16363.5
-5970.61
-15727.2
-9034.72
-14813.7
-12210.2
-13617.6
-15446.4
-12139.3
-18675
-10394.8
-21794.5
-8426.63
-24681.1
-6309.9
-27223.2
-4143.43
-29388.5
-2034.61
-31285.3
-47.4672
-33113.4
1755.27
-33940.2
3409.63
-36358.4
-38919.1
-2312.07
494.583
-2372.67
778.551
-2449.52
1076.84
-2544.56
1349.42
-2656.18
1580.21
-2783.92
1751.33
-2926.97
1840.86
-3083.26
1817.28
-3245.92
1650.17
-3400.1
1343.78
-3526.33
966.872
-3612.48
572.546
-3658.38
67.2739
-3656.75
-605.488
-3602.79
-1387.68
-3488.58
-2278.93
-3303.67
-3319.24
-3033.58
-4537.02
-2661.14
-5945.35
-2172.12
-7435.92
-1582.46
-8519.39
-1064.66
-7882.58
-1027.22
-3522.85
-1294.7
1690.78
-1301.22
1202.4
-1063.26
1095.32
-841.29
766.776
-688.368
-362.655
-592.402
-1178.66
-476.309
-1515.37
-345.354
-1919.17
-189.21
-2271.36
-6.96804
-2605.45
203.189
-2916.52
441.647
-3204.65
702.421
-3480.28
980.319
-3743.85
1271.52
-3985.28
1573.41
-4193.32
1884.4
-4367.9
2202.39
-4506.64
2526.26
-4615.37
2853.61
-4684.33
3182.85
-4711.35
3509.71
-4677.44
3829.6
-4574.04
4135.8
-4386.56
4422.2
-4111.52
4682.58
-3747.26
4910.11
-3291.07
5099.03
-2755.74
5245.65
-2164.23
5354.86
-1565.18
5430.32
-950.975
5442.97
-175.941
5384.89
587.09
5263.02
1193.65
5096.88
1574.76
4895.7
1774.69
4639.82
1972.03
4342.23
2107.97
4098.67
1919.47
3962.14
2080.42
3837.66
3954.21
3708.6
6426.43
3679.8
7857.87
3767.21
8304.41
3644.67
9414.42
2790.18
13939.5
1294.12
19954.5
-637.412
23214.9
-2984.2
23763.2
-5288.72
24239.1
-7482.05
25054.1
-9699.35
26252
-11798
27161.5
-13228.5
26079.2
-13472.9
21264.3
-13225.1
14383.9
-13775.2
10044
-14857.1
8652.14
-15671.1
7200.82
-16214.7
4972.68
-16600.9
2512.05
-16763.1
-165.215
-16660.8
-3153.77
-16297.1
-6334.3
-15662.9
-9668.86
-14751.4
-13121.8
-13555.4
-16642.4
-12073.5
-20156.9
-10321.2
-23546.8
-8344.5
-26657.8
-6228.14
-29339.5
-4084.38
-31532.2
-2034.72
-33334.9
-161.607
-34986.6
1506.15
-35608
2954.53
-37806.8
-39792.5
-2382.04
538.956
-2448.11
844.633
-2531.15
1159.9
-2631.85
1450.13
-2748.79
1697.17
-2881.41
1883.95
-3028.93
1988.39
-3189.44
1977.8
-3356.32
1817.07
-3514.89
1502.37
-3645.39
1097.38
-3735.13
662.31
-3783.17
115.341
-3783.24
-605.402
-3732.63
-1438.27
-3623.21
-2388.34
-3445.13
-3497.3
-3184.42
-4797.72
-2823.62
-6306.13
-2346.17
-7913.37
-1764.2
-9101.34
-1247.44
-8399.34
-1203.8
-3566.47
-1443.76
1930.77
-1362.39
1121.06
-1091.8
824.763
-895.346
570.363
-749.819
-508.148
-657.35
-1271.1
-542.918
-1629.77
-417.289
-2044.78
-269.739
-2418.89
-96.6502
-2778.52
103.744
-3116.9
332.914
-3433.8
585.95
-3733.3
857.1
-4014.98
1143
-4271.16
1441.02
-4491.33
1749.31
-4676.17
2065.24
-4822.56
2387.36
-4937.47
2713.03
-5009.99
3041.03
-5039.34
3367.39
-5003.79
3687.93
-4894.57
3995.82
-4694.43
4285.01
-4400.7
4549.04
-4011.26
4780.66
-3522.68
4973.75
-2948.81
5123.72
-2314.18
5235.4
-1676.85
5313.53
-1029.09
5326.13
-188.517
5264.7
648.52
5134.75
1323.62
4954.95
1754.57
4736.12
1993.53
4465.15
2243
4160.63
2412.5
3898.45
2181.66
3733.94
2244.94
3665.13
4023.03
3668.4
6423.16
3772.21
7754.06
3929.33
8147.3
3662.96
9680.79
2513.66
15088.8
848.815
21619.3
-1103.01
25166.7
-3357.91
26018.1
-5542.8
26424
-7675.77
27187.1
-9839.62
28415.9
-11790.3
29112.2
-12900.8
27189.6
-12890.2
21253.7
-12837
14330.7
-13692.4
10899.4
-14781.7
9741.41
-15546.3
7965.47
-16120.3
5546.71
-16528.8
2920.55
-16697.9
3.85202
-16601.8
-3249.88
-16241.5
-6694.63
-15610.1
-10300.2
-14701.3
-14030.6
-13506.2
-17837.5
-12021.3
-21641.8
-10261.3
-25306.8
-8275.92
-28643.2
-6160.47
-31455
-4040.99
-33651.7
-2051.71
-35324.2
-293.997
-36744.3
1236.14
-37138.1
2464.88
-39035.5
-40456.6
-2452.28
593.397
-2524.82
917.177
-2615.16
1250.24
-2722.59
1557.56
-2845.76
1820.36
-2983.8
2021.99
-3135.75
2140.36
-3299.58
2141.63
-3468.73
1986.23
-3628.87
1662.51
-3760.5
1229.02
-3851.01
752.83
-3898.92
163.267
-3898.89
-605.416
-3849.98
-1487.16
-3744.02
-2494.29
-3571.99
-3669.33
-3320.67
-5049.02
-2972.77
-6654.03
-2509.92
-8376.22
-1939.07
-9672.19
-1415.29
-8923.12
-1330.56
-3651.19
-1531.29
2131.51
-1408.83
998.621
-1143.62
559.586
-961.53
388.307
-815.384
-654.277
-725.75
-1360.72
-614.998
-1740.51
-493.383
-2166.38
-351.774
-2560.48
-187.472
-2942.81
3.59064
-3307.95
224.214
-3654.41
470.222
-3979.3
735.206
-4279.95
1016.03
-4551.97
1310.17
-4785.46
1615.67
-4981.66
1929.65
-5136.53
2250.34
-5258.16
2574.78
-5334.42
2902.04
-5366.59
3228.37
-5330.11
3550.1
-5216.29
3860.29
-5004.6
4153.05
-4693.46
4421.6
-4279.8
4658.21
-3759.29
4856.4
-3146.99
5010.71
-2468.48
5125.89
-1792.02
5207.54
-1110.74
5220.61
-201.575
5157.43
711.709
5022.19
1458.87
4830.96
1945.8
4596.84
2227.66
4318.73
2521.12
4025.23
2706
3759.71
2447.19
3563.21
2441.45
3540.52
4045.72
3674.91
6288.79
3909.29
7519.69
4097.21
7959.38
3600.32
10177.7
2120.35
16568.8
283.59
23456.1
-1679.15
27129.5
-3791.25
28130.2
-5829.44
28462.2
-7891.2
29248.9
-9978.91
30503.6
-11740.3
30873.6
-12527.6
27976.9
-12375.6
21101.8
-12583.6
14538.6
-13634.6
11950.5
-14683.1
10789.9
-15432.7
8715.01
-16042.1
6156.16
-16464.8
3343.28
-16642.4
181.457
-16551.4
-3340.87
-16193
-7053.05
-15564
-10929.3
-14658
-14936.6
-13465.2
-19030.4
-11979
-23128
-10212.8
-27073
-8220.36
-30635.6
-6109.12
-33566.2
-4019.66
-35741.1
-2097.05
-37246.8
-461.017
-38380.3
920.243
-38519.4
1898.97
-40014.3
-40898
-2518.56
641.234
-2601.25
999.88
-2698.52
1347.52
-2813.05
1672.11
-2942.63
1949.95
-3086.12
2165.49
-3242.18
2296.44
-3408.38
2307.83
-3577.93
2155.79
-3736.73
1821.33
-3865.96
1358.27
-3953.83
840.713
-3998.91
208.375
-3996.81
-607.498
-3947.87
-1536.08
-3844.14
-2598.01
-3677.58
-3835.88
-3436.03
-5290.57
-3102.7
-6987.36
-2657.97
-8820.93
-2102.83
-10227.3
-1569.74
-9456.2
-1422.43
-3798.5
-1585.06
2294.16
-1457.09
870.686
-1188.04
290.577
-1013.56
213.883
-886.864
-780.949
-797.567
-1450
-691.163
-1846.9
-573.555
-2283.97
-436.388
-2697.63
-278.76
-3100.42
-96.0868
-3490.6
115.761
-3866.24
354.632
-4218.15
614.131
-4539.44
890.288
-4828.11
1180.64
-5075.81
1483.29
-5284.29
1795.27
-5448.49
2114.72
-5577.59
2438.26
-5657.95
2765.21
-5693.52
3091.99
-5656.87
3415.46
-5539.76
3728.57
-5317.69
4025.67
-4990.55
4299.61
-4553.72
4542.04
-4001.72
4745.99
-3350.92
4905.27
-2627.75
5024.8
-1911.52
5110.86
-1196.79
5124.77
-215.459
5060.78
775.708
4923.57
1596.09
4726.39
2142.98
4483.81
2470.26
4207.89
2797.04
3938.78
2975.12
3680.95
2705.04
3451.22
2671.19
3456.76
4040.19
3715.41
6030.14
4085.6
7149.5
4249.45
7795.53
3424.76
11002.4
1596.46
18397.1
-394.335
25446.9
-2323.81
29058.9
-4245.17
30051.6
-6135.79
30352.8
-8120.73
31233.8
-10109.7
32492.5
-11646.8
32410.7
-12131.8
28462
-11947.1
20917.1
-12422.3
15013.8
-13573.5
13101.7
-14572.5
11788.9
-15332.2
9474.65
-15972.7
6796.73
-16407.1
3777.66
-16592.7
367.032
-16502.8
-3430.75
-16143.9
-7411.96
-15516.1
-11557.1
-14614.1
-15838.6
-13426.3
-20218.2
-11942.7
-24611.5
-10174.4
-28841.3
-8179.44
-32630.5
-6079.34
-35666.3
-4030.39
-37790.1
-2187.3
-39089.9
-685.968
-39881.6
522.95
-39728.3
1211.48
-40702.8
-41101.7
-2584.64
701.704
-2674.27
1089.51
-2778.49
1451.75
-2899.71
1793.33
-3035.31
2085.56
-3183.83
2314.02
-3343.4
2456.01
-3510.86
2475.29
-3678.8
2323.74
-3833.17
1975.71
-3956.13
1481.24
-4037.52
922.122
-4076.88
247.74
-4070.7
-613.659
-4020.15
-1586.62
-3917.68
-2700.47
-3756.39
-3997.17
-3525.33
-5521.62
-3208.56
-7304.12
-2785.71
-9243.78
-2251.78
-10761.3
-1713.06
-9994.91
-1495.42
-4016.13
-1617.97
2416.73
-1495.55
748.279
-1229.01
24.0631
-1066.88
51.791
-961.873
-885.947
-872.251
-1539.61
-770.073
-1949.06
-656.567
-2397.46
-523.555
-2830.63
-370.982
-3252.98
-195.196
-3666.38
7.86822
-4069.29
239.075
-4449.35
493.534
-4793.89
765.489
-5100.06
1052.28
-5362.59
1352.06
-5584.07
1661.98
-5758.4
1980.2
-5895.81
2303.05
-5980.79
2630.05
-6020.51
2957.73
-5984.55
3283.49
-5865.51
3600.11
-5634.29
3902.31
-5292.74
4182.48
-4833.87
4431.5
-4250.73
4641.8
-3561.21
4806.47
-2792.42
4930.84
-2035.88
5022.04
-1287.98
5037
-230.41
4972.49
840.226
4835.89
1732.71
4639.73
2339.15
4399.47
2710.53
4136.93
3059.59
3902.86
3209.2
3659.28
2948.62
3385.26
2945.22
3385.89
4039.56
3760.72
5655.32
4276.91
6633.31
4344.78
7727.68
3101.11
12246
929.777
20568.5
-1155.89
27532.5
-2980.93
30884
-4691.66
31762.3
-6451.27
32112.4
-8356.5
33139
-10224.2
34360.2
-11510.9
33697.3
-11734
28685.1
-11605.6
20788.7
-12314.9
15723.2
-13498.3
14285.1
-14457.8
12748.3
-15241.6
10258.5
-15906.5
7461.59
-16350.4
4221.61
-16539.5
556.103
-16446.1
-3524.19
-16083.6
-7774.43
-15455.8
-12184.9
-14559.6
-16734.8
-13381.9
-21395.9
-11908
-26085.5
-10145.3
-30604
-8156.45
-34619.4
-6078.99
-37743.8
-4086.35
-39782.7
-2342.36
-40833.9
-996.15
-41227.8
3.36576
-40727.8
364.457
-41063.9
-41064.9
-2646.82
773.399
-2741.95
1184.64
-2852.62
1562.43
-2979.67
1920.38
-3120.53
2226.43
-3273.29
2466.78
-3435.37
2618.1
-3602.65
2642.58
-3766.73
2487.83
-3913.34
2122.33
-4025.94
1593.86
-4096.99
993.192
-4127.93
278.701
-4116.11
-625.462
-4062.87
-1639.84
-3961.23
-2802.09
-3805.5
-4152.89
-3586.06
-5741.05
-3287.97
-7602.2
-2890.55
-9641.2
-2383.41
-11268.4
-1846.63
-10531.7
-1561.17
-4301.58
-1642.49
2498.07
-1534.92
640.733
-1287.95
-222.869
-1134.17
-101.949
-1037.17
-982.918
-949.111
-1627.65
-851.172
-2046.98
-741.872
-2506.74
-613.157
-2959.33
-464.694
-3401.43
-294.456
-3836.6
-99.3472
-4264.39
124.189
-4672.87
373.392
-5043.08
641.442
-5368.09