/*--------------------------------*- C++ -*----------------------------------*\
| =========                 |                                                 |
| \\      /  F ield         | OpenFOAM: The Open Source CFD Toolbox           |
|  \\    /   O peration     | Version:  4.1                                   |
|   \\  /    A nd           | Web:      www.OpenFOAM.org                      |
|    \\/     M anipulation  |                                                 |
\*---------------------------------------------------------------------------*/
FoamFile
{
    version     2.0;
    format      ascii;
    class       volVectorField;
    location    "500";
    object      U;
}
// * * * * * * * * * * * * * * * * * * * * * * * * * * * * * * * * * * * * * //

dimensions      [0 1 -1 0 0 0 0];

internalField   nonuniform List<vector> 
26785
(
(7.7261e-14 -0.00506007 -13.9545)
(8.67651e-14 0.00384197 -14.0807)
(9.60564e-14 0.0162098 -14.2472)
(1.1286e-13 0.025634 -14.6877)
(9.64295e-14 0.0325285 -15.2748)
(1.11217e-13 0.0355249 -15.956)
(9.19592e-14 0.0339552 -16.6455)
(7.66338e-14 0.0267883 -17.2542)
(3.8042e-14 0.0138907 -17.6791)
(3.35049e-14 -0.00290845 -17.8456)
(9.78842e-15 -0.0198057 -17.7507)
(-1.3026e-14 -0.0353578 -17.4358)
(-3.11413e-14 -0.0531841 -16.9005)
(-4.5956e-14 -0.0712595 -16.1046)
(-5.57985e-14 -0.0846541 -15.0534)
(-6.38115e-14 -0.091934 -13.7895)
(-7.6776e-14 -0.101486 -12.3435)
(-9.70068e-14 -0.139426 -10.5891)
(-1.30955e-13 -0.249425 -8.29534)
(-1.1749e-13 -0.447024 -5.22232)
(-9.88019e-14 -0.549324 -0.532021)
(-4.0431e-14 -0.435035 3.41745)
(-5.5462e-14 -0.297062 5.79845)
(-1.01553e-13 -0.160782 7.68953)
(-9.06886e-14 -0.0235281 8.124)
(-1.09028e-13 0.0769167 7.08097)
(-8.23873e-14 0.0870789 5.75052)
(-7.02876e-14 0.054579 4.95278)
(-6.26677e-14 0.0133025 4.68508)
(-1.15097e-13 -0.0478764 4.95046)
(-1.30477e-13 -0.0959696 5.72077)
(-1.10366e-13 -0.117303 6.72649)
(-5.19118e-14 -0.112437 7.73576)
(-7.25797e-14 -0.091168 8.60216)
(-6.44915e-14 -0.0674238 9.26993)
(-1.35832e-13 -0.0531647 9.78504)
(-1.34864e-13 -0.052852 10.2598)
(-1.22931e-13 -0.0633298 10.8005)
(-1.16721e-13 -0.0781852 11.4621)
(-1.29213e-13 -0.0924249 12.2497)
(-1.41561e-13 -0.103825 13.1406)
(-1.2066e-13 -0.112154 14.104)
(-1.38362e-13 -0.117917 15.1128)
(-1.53467e-13 -0.121697 16.1464)
(-1.78836e-13 -0.123465 17.187)
(-1.67552e-13 -0.122459 18.2136)
(-1.81271e-13 -0.11743 19.1984)
(-1.73034e-13 -0.10724 20.1066)
(-1.80644e-13 -0.0913551 20.9)
(-2.04798e-13 -0.0700439 21.5413)
(-2.37013e-13 -0.0444291 21.9989)
(-2.70626e-13 -0.0159973 22.2496)
(-3.07855e-13 0.0124556 22.2835)
(-3.40897e-13 0.0373014 22.1119)
(-3.5884e-13 0.0559458 21.769)
(-3.61019e-13 0.0668755 21.3073)
(-3.63185e-13 0.0701991 20.7843)
(-3.51088e-13 0.0669063 20.2547)
(-3.20634e-13 0.059279 19.7646)
(-3.01899e-13 0.0515859 19.3384)
(-2.79411e-13 0.0498016 18.9616)
(-2.46607e-13 0.061672 18.5747)
(-2.18093e-13 0.0963428 18.0593)
(-1.92859e-13 0.154526 17.2508)
(-1.85863e-13 0.226045 16.0267)
(-1.5898e-13 0.307882 14.3317)
(-1.41277e-13 0.416745 12.0986)
(-1.30961e-13 0.590463 9.05104)
(-1.19433e-13 0.8017 5.15424)
(-2.06283e-13 0.776179 -1.3444)
(-3.1386e-13 0.577989 -5.85799)
(-2.90014e-13 0.402314 -8.05508)
(-2.92627e-13 0.421353 -10.5755)
(-2.89085e-13 0.48012 -13.2663)
(-2.77671e-13 0.532738 -16.3337)
(-2.83241e-13 0.573431 -19.643)
(-2.77777e-13 0.595458 -23.12)
(-2.71692e-13 0.591619 -26.6377)
(-2.6574e-13 0.555413 -30.0144)
(-2.61005e-13 0.486567 -33.0547)
(-2.5744e-13 0.393339 -35.5939)
(-2.49763e-13 0.2884 -37.5412)
(-2.49875e-13 0.181817 -38.8771)
(-2.44682e-13 0.0781642 -39.6202)
(-2.37991e-13 -0.0215805 -39.8008)
(-2.38301e-13 -0.119205 -39.4435)
(-2.31872e-13 -0.217563 -38.556)
(-2.25828e-13 -0.316766 -37.1309)
(-2.13896e-13 -0.416972 -35.1573)
(-2.01683e-13 -0.519802 -32.6249)
(-1.82018e-13 -0.628979 -29.5282)
(-1.55652e-13 -0.750519 -25.8711)
(-1.19499e-13 -0.891058 -21.6595)
(-7.10403e-14 -1.06198 -16.8757)
(-1.02499e-14 -1.29737 -11.5085)
(6.07841e-14 -1.65552 -5.90696)
(1.0479e-13 -1.89322 -0.793515)
(1.06358e-13 -1.53708 8.85375)
(9.65064e-14 -0.963888 8.81841)
(2.33662e-14 -3.25025 26.0084)
(6.40363e-14 -0.0154403 -14.2435)
(8.35627e-14 0.010635 -14.3568)
(8.79806e-14 0.0445698 -14.4812)
(8.50787e-14 0.0724312 -14.8627)
(7.77423e-14 0.0938582 -15.3776)
(8.43357e-14 0.105014 -15.9835)
(5.62989e-14 0.103413 -16.5988)
(2.70735e-14 0.0859553 -17.1384)
(2.08279e-14 0.0525563 -17.5036)
(-1.07833e-14 0.00950958 -17.6305)
(-3.62762e-14 -0.0314659 -17.5361)
(-6.23515e-14 -0.0675015 -17.2794)
(-8.74819e-14 -0.113373 -16.8619)
(-1.0483e-13 -0.166821 -16.2115)
(-8.47938e-14 -0.218896 -15.2813)
(-8.68182e-14 -0.26765 -14.0397)
(-1.08561e-13 -0.311314 -12.4213)
(-9.12833e-14 -0.36788 -10.3332)
(-7.53371e-14 -0.518969 -7.68159)
(-1.16304e-13 -0.861219 -4.69898)
(-8.34445e-14 -1.08895 -1.48317)
(-3.44061e-14 -0.910006 1.85092)
(-4.46327e-14 -0.622158 4.59374)
(-1.08006e-13 -0.23902 6.11068)
(-1.02968e-13 0.0838584 6.41408)
(-8.82937e-14 0.29604 5.62476)
(-1.2092e-13 0.26247 4.66613)
(-1.18353e-13 0.133937 4.15867)
(-1.14653e-13 -0.00100051 4.14289)
(-1.14815e-13 -0.155856 4.53653)
(-1.64047e-13 -0.243338 5.1764)
(-8.25539e-14 -0.272703 5.88094)
(-8.25154e-14 -0.260105 6.58884)
(-9.1155e-14 -0.220945 7.26957)
(-1.02614e-13 -0.177372 7.89559)
(-1.1145e-13 -0.153747 8.46696)
(-8.12834e-14 -0.161334 9.02388)
(-7.20125e-14 -0.193696 9.63139)
(-6.98688e-14 -0.236459 10.3464)
(-6.61599e-14 -0.277774 11.1864)
(-6.2989e-14 -0.31136 12.1284)
(-5.25904e-14 -0.336121 13.1339)
(-2.43508e-14 -0.353264 14.1695)
(-4.07761e-14 -0.364091 15.2105)
(-3.67831e-14 -0.368085 16.2371)
(-5.12925e-14 -0.363239 17.2295)
(-5.49958e-14 -0.34685 18.166)
(-7.04264e-14 -0.316734 19.0221)
(-6.00501e-14 -0.271903 19.7716)
(-7.18462e-14 -0.212813 20.388)
(-5.31966e-14 -0.14169 20.8466)
(-8.47736e-14 -0.0613854 21.1259)
(-9.93919e-14 0.0217041 21.2131)
(-1.21714e-13 0.0982903 21.107)
(-1.6027e-13 0.160389 20.8212)
(-1.55174e-13 0.201775 20.3934)
(-1.71385e-13 0.220888 19.8753)
(-1.94452e-13 0.218749 19.3225)
(-1.8256e-13 0.200194 18.7873)
(-1.45788e-13 0.177431 18.3061)
(-1.31863e-13 0.169849 17.8761)
(-1.26742e-13 0.200666 17.4445)
(-1.47361e-13 0.295896 16.9045)
(-1.41402e-13 0.458795 16.1052)
(-1.21529e-13 0.66201 14.93)
(-1.33638e-13 0.900856 13.3144)
(-1.46688e-13 1.2224 11.1724)
(-1.49089e-13 1.71308 8.27164)
(-1.50534e-13 2.35905 4.71414)
(-2.04701e-13 2.38946 -1.17451)
(-3.2888e-13 1.72064 -5.48659)
(-3.01519e-13 1.21156 -7.65618)
(-2.86843e-13 1.29143 -10.2509)
(-2.82939e-13 1.46833 -13.0559)
(-2.81122e-13 1.63048 -16.2425)
(-2.62895e-13 1.75812 -19.6877)
(-2.67123e-13 1.83084 -23.314)
(-2.61421e-13 1.82646 -26.9972)
(-2.48977e-13 1.72288 -30.5501)
(-2.45699e-13 1.5174 -33.7629)
(-2.39441e-13 1.23456 -36.4537)
(-2.2949e-13 0.913571 -38.5178)
(-2.2735e-13 0.585846 -39.927)
(-2.2408e-13 0.265361 -40.6942)
(-2.13877e-13 -0.0456396 -40.8446)
(-2.02417e-13 -0.353474 -40.3943)
(-1.89833e-13 -0.669692 -39.353)
(-1.7489e-13 -0.999597 -37.7211)
(-1.51402e-13 -1.34393 -35.4927)
(-1.17308e-13 -1.69965 -32.6793)
(-7.82982e-14 -2.06197 -29.3089)
(-3.19033e-14 -2.42356 -25.431)
(2.21038e-14 -2.77096 -21.107)
(8.8726e-14 -3.09727 -16.3812)
(1.65169e-13 -3.45365 -11.2728)
(2.25151e-13 -3.95237 -5.94255)
(2.47518e-13 -4.25147 -0.865434)
(2.60694e-13 -4.19293 6.33493)
(2.39178e-13 -3.68892 10.4913)
(1.44456e-13 -7.20082 23.1478)
(3.01501e-14 -0.0289838 -14.611)
(1.79551e-14 0.0115662 -14.6839)
(2.66056e-14 0.0652511 -14.7757)
(3.03774e-14 0.109647 -15.1016)
(1.72438e-14 0.143721 -15.5501)
(3.09451e-14 0.161404 -16.0852)
(-1.25763e-14 0.15813 -16.6344)
(-2.9125e-14 0.128621 -17.1209)
(-4.71349e-14 0.0730174 -17.4534)
(-6.32931e-14 0.00298965 -17.5712)
(-7.62994e-14 -0.0606397 -17.4895)
(-8.50444e-14 -0.113131 -17.2614)
(-9.21886e-14 -0.183149 -16.8819)
(-9.80586e-14 -0.272438 -16.2773)
(-9.99015e-14 -0.369887 -15.3863)
(-7.87963e-14 -0.478385 -14.1767)
(-1.05274e-13 -0.59547 -12.5814)
(-7.78329e-14 -0.726904 -10.5057)
(-1.20892e-13 -0.931616 -7.89609)
(-9.6295e-14 -1.30385 -4.98878)
(-7.08214e-14 -1.58057 -1.99336)
(-6.42307e-14 -1.4026 1.07705)
(-6.23444e-14 -1.01965 3.82243)
(-8.36724e-14 -0.365945 5.05692)
(-1.22363e-13 0.0920363 5.01065)
(-1.058e-13 0.403751 4.19031)
(-1.26639e-13 0.337999 3.47859)
(-1.6525e-13 0.142502 3.16005)
(-1.28773e-13 -0.054201 3.30178)
(-1.10257e-13 -0.261111 3.70675)
(-1.02945e-13 -0.359433 4.19096)
(-9.0695e-14 -0.395883 4.69781)
(-4.61983e-14 -0.39313 5.25897)
(-1.06283e-13 -0.360709 5.87792)
(-1.2196e-13 -0.317255 6.52043)
(-6.06574e-14 -0.290931 7.15224)
(-4.85958e-14 -0.301778 7.79338)
(-5.07523e-14 -0.35135 8.52501)
(-3.02876e-14 -0.422734 9.40517)
(-2.1402e-14 -0.492593 10.4121)
(-2.1887e-14 -0.546083 11.4831)
(-1.95987e-14 -0.581161 12.5658)
(-2.67695e-14 -0.60131 13.63)
(-4.7149e-14 -0.610043 14.6595)
(-6.32932e-14 -0.607798 15.6433)
(-7.43455e-14 -0.592796 16.5716)
(-8.1245e-14 -0.56196 17.4336)
(-9.087e-14 -0.512434 18.2162)
(-1.05637e-13 -0.442446 18.9038)
(-1.18676e-13 -0.351818 19.478)
(-1.212e-13 -0.243014 19.9192)
(-1.154e-13 -0.119349 20.2085)
(-1.07779e-13 0.011412 20.3336)
(-1.0268e-13 0.137043 20.2826)
(-9.93487e-14 0.244925 20.0495)
(-1.11112e-13 0.321747 19.6616)
(-1.10609e-13 0.362252 19.1721)
(-1.02205e-13 0.366362 18.64)
(-7.51773e-14 0.340856 18.1204)
(-7.3521e-14 0.305153 17.6496)
(-6.36399e-14 0.29223 17.2264)
(-8.4798e-14 0.34211 16.7972)
(-1.0064e-13 0.497321 16.2449)
(-1.05232e-13 0.762048 15.4089)
(-1.1097e-13 1.09309 14.1739)
(-1.4217e-13 1.48937 12.475)
(-1.63648e-13 2.01909 10.2328)
(-1.73583e-13 2.77193 7.30441)
(-2.02102e-13 3.78742 3.98443)
(-1.97084e-13 3.94834 -0.964905)
(-2.97244e-13 2.80221 -5.00522)
(-2.98852e-13 2.01402 -7.13662)
(-2.78661e-13 2.2093 -9.82843)
(-2.77768e-13 2.51242 -12.8304)
(-2.70474e-13 2.78619 -16.2058)
(-2.63522e-13 3.00361 -19.8411)
(-2.55569e-13 3.12956 -23.6592)
(-2.47576e-13 3.12542 -27.5351)
(-2.39354e-13 2.95008 -31.2699)
(-2.30936e-13 2.59626 -34.6267)
(-2.23634e-13 2.10524 -37.3902)
(-2.1662e-13 1.54512 -39.4262)
(-2.03164e-13 0.970623 -40.6873)
(-1.9332e-13 0.406158 -41.1793)
(-1.74926e-13 -0.144342 -40.9421)
(-1.5192e-13 -0.689198 -40.0269)
(-1.2324e-13 -1.24271 -38.502)
(-8.89109e-14 -1.80867 -36.4122)
(-4.88549e-14 -2.38097 -33.812)
(-1.88882e-15 -2.94778 -30.7648)
(5.17076e-14 -3.49863 -27.3318)
(1.07809e-13 -4.02408 -23.5708)
(1.69062e-13 -4.51238 -19.5261)
(2.35891e-13 -4.96094 -15.2115)
(2.94653e-13 -5.43032 -10.5986)
(3.43353e-13 -6.02343 -5.72353)
(3.61169e-13 -6.49179 -0.913971)
(3.58527e-13 -6.93996 5.78948)
(3.30107e-13 -6.65954 10.4731)
(2.35728e-13 -10.6217 21.8568)
(2.33185e-15 -0.0409663 -14.9797)
(4.60367e-15 0.00933581 -15.0033)
(8.22168e-16 0.0826568 -15.0643)
(-1.44004e-14 0.142449 -15.3427)
(-5.68299e-15 0.189074 -15.7382)
(-2.69235e-14 0.214236 -16.2178)
(-4.68194e-14 0.211731 -16.716)
(-4.77474e-14 0.174262 -17.1635)
(-6.87347e-14 0.101742 -17.474)
(-8.00293e-14 0.00966734 -17.5862)
(-8.05799e-14 -0.0742783 -17.5112)
(-7.13927e-14 -0.143784 -17.3003)
(-6.25668e-14 -0.239128 -16.9434)
(-8.21822e-14 -0.363962 -16.3684)
(-7.65764e-14 -0.502878 -15.5063)
(-7.12968e-14 -0.660977 -14.331)
(-6.70316e-14 -0.839904 -12.7821)
(-8.27161e-14 -1.04824 -10.7751)
(-8.46091e-14 -1.33056 -8.27796)
(-7.78484e-14 -1.74332 -5.47724)
(-7.78825e-14 -2.04339 -2.58062)
(-7.40625e-14 -1.85833 0.399188)
(-7.19671e-14 -1.35101 3.13346)
(-8.14662e-14 -0.372446 4.12468)
(-9.79779e-14 0.20169 3.78555)
(-1.1975e-13 0.528748 2.91144)
(-1.32821e-13 0.385823 2.33183)
(-1.20657e-13 0.13177 2.07808)
(-9.11436e-14 -0.104667 2.20971)
(-1.16784e-13 -0.343969 2.46838)
(-1.41113e-13 -0.443944 2.75716)
(-9.57155e-14 -0.495023 3.14112)
(-6.80606e-14 -0.514542 3.68503)
(-7.75653e-14 -0.497772 4.35974)
(-6.8064e-14 -0.458364 5.09229)
(-7.38055e-14 -0.435262 5.84917)
(-2.84344e-14 -0.465919 6.694)
(-6.42638e-14 -0.552483 7.69575)
(-1.89226e-14 -0.657888 8.81746)
(2.14784e-14 -0.744757 9.96871)
(-2.53117e-14 -0.800306 11.0899)
(-2.64379e-14 -0.830108 12.1623)
(-1.28854e-14 -0.84232 13.184)
(-2.72069e-14 -0.842142 14.1546)
(-5.30525e-14 -0.829969 15.0714)
(-5.78482e-14 -0.803581 15.9292)
(-7.04391e-14 -0.759124 16.7209)
(-7.12549e-14 -0.69283 17.4383)
(-8.62116e-14 -0.601909 18.0709)
(-1.30689e-13 -0.485132 18.6064)
(-1.4857e-13 -0.344684 19.0305)
(-1.34669e-13 -0.183936 19.3269)
(-1.41248e-13 -0.0105279 19.4855)
(-1.13135e-13 0.16221 19.4914)
(-9.33055e-14 0.317398 19.3224)
(-1.0348e-13 0.431877 18.9906)
(-1.08337e-13 0.494943 18.5458)
(-1.22562e-13 0.505481 18.0468)
(-1.13002e-13 0.473398 17.549)
(-1.11731e-13 0.425634 17.0876)
(-9.95632e-14 0.407941 16.6652)
(-1.0112e-13 0.478621 16.2394)
(-1.04704e-13 0.700058 15.7114)
(-1.14102e-13 1.07905 14.9058)
(-1.24514e-13 1.55392 13.651)
(-1.38716e-13 2.1189 11.8507)
(-1.53265e-13 2.84198 9.48829)
(-1.93152e-13 3.78249 6.59378)
(-2.22408e-13 4.99808 3.5375)
(-1.98743e-13 5.30227 -0.350389)
(-2.69038e-13 3.83246 -4.18124)
(-2.93043e-13 2.8445 -6.53552)
(-2.87812e-13 3.1929 -9.38738)
(-2.78494e-13 3.63248 -12.6335)
(-2.64554e-13 4.01293 -16.2265)
(-2.5526e-13 4.31673 -20.058)
(-2.43859e-13 4.49382 -24.0614)
(-2.41824e-13 4.48579 -28.1127)
(-2.33176e-13 4.22663 -31.9937)
(-2.24018e-13 3.69901 -35.4168)
(-2.13055e-13 2.95943 -38.096)
(-1.99232e-13 2.10755 -39.8346)
(-1.82139e-13 1.22709 -40.5672)
(-1.53404e-13 0.36292 -40.3578)
(-1.23546e-13 -0.464647 -39.3941)
(-8.42578e-14 -1.25212 -37.8924)
(-4.46892e-14 -2.01596 -35.9918)
(7.25355e-15 -2.76514 -33.7455)
(5.78057e-14 -3.4933 -31.2108)
(1.14141e-13 -4.19417 -28.4112)
(1.6541e-13 -4.86448 -25.3506)
(2.16285e-13 -5.50207 -22.0226)
(2.69864e-13 -6.10507 -18.4138)
(3.26643e-13 -6.68065 -14.5039)
(3.76403e-13 -7.28611 -10.2537)
(4.19249e-13 -8.01303 -5.65501)
(4.34477e-13 -8.69231 -1.0224)
(4.2249e-13 -9.45176 5.26176)
(3.9236e-13 -9.63857 9.67165)
(3.12006e-13 -13.7006 20.4794)
(-7.63708e-15 -0.0585938 -15.329)
(-1.96003e-14 0.00195726 -15.3052)
(-2.31105e-14 0.094825 -15.3327)
(-4.13366e-14 0.16926 -15.5679)
(-4.36373e-14 0.227882 -15.9179)
(-3.7843e-14 0.260076 -16.3517)
(-6.61406e-14 0.258083 -16.8087)
(-7.1967e-14 0.212284 -17.2257)
(-7.65367e-14 0.12186 -17.5212)
(-7.70986e-14 0.00625096 -17.6339)
(-6.59366e-14 -0.0983833 -17.5704)
(-7.04576e-14 -0.182655 -17.3802)
(-5.53259e-14 -0.30028 -17.046)
(-7.44538e-14 -0.459961 -16.5019)
(-7.64508e-14 -0.641466 -15.6725)
(-7.53535e-14 -0.850292 -14.538)
(-6.97089e-14 -1.08907 -13.0437)
(-7.69751e-14 -1.36632 -11.1143)
(-7.01187e-14 -1.71932 -8.72292)
(-7.2549e-14 -2.17607 -6.00617)
(-7.43094e-14 -2.50458 -3.14607)
(-8.42402e-14 -2.32459 -0.226795)
(-5.56828e-14 -1.68883 2.46124)
(-5.62367e-14 -0.397524 3.22295)
(-9.10924e-14 0.305637 2.62259)
(-1.08046e-13 0.636393 1.67891)
(-9.06019e-14 0.387611 1.07831)
(-2.0333e-13 0.0689489 0.461777)
(-2.68468e-14 -0.118898 0.396151)
(-1.80703e-13 -0.408351 0.680856)
(-1.84698e-13 -0.519726 1.01475)
(-1.89657e-13 -0.609499 1.52441)
(-1.33296e-13 -0.665974 2.20957)
(-1.31169e-13 -0.670334 3.00558)
(-7.2084e-14 -0.64271 3.8817)
(-7.65429e-14 -0.640687 4.87639)
(-5.97128e-14 -0.705272 6.02962)
(-4.09041e-14 -0.817418 7.27399)
(-3.045e-14 -0.926436 8.49542)
(-2.5832e-14 -1.00303 9.63915)
(-3.62188e-14 -1.04616 10.7087)
(-3.83605e-14 -1.06611 11.7224)
(-2.01255e-14 -1.07022 12.6908)
(-2.20555e-14 -1.06201 13.6144)
(-6.3953e-15 -1.04044 14.4876)
(-5.71598e-15 -1.00272 15.3022)
(-1.18757e-14 -0.944689 16.0491)
(-1.81813e-14 -0.862372 16.7194)
(-2.55486e-14 -0.752709 17.305)
(-3.70328e-14 -0.613827 17.7983)
(-7.09729e-14 -0.447515 18.1919)
(-1.03958e-13 -0.256866 18.4762)
(-1.33931e-13 -0.0485229 18.6479)
(-1.48027e-13 0.165192 18.6974)
(-1.6048e-13 0.366679 18.5929)
(-1.71501e-13 0.52159 18.3249)
(-1.68216e-13 0.611755 17.9314)
(-1.87261e-13 0.634082 17.4645)
(-1.86292e-13 0.601066 16.977)
(-1.75832e-13 0.545882 16.506)
(-1.10199e-13 0.524294 16.0614)
(-7.92811e-14 0.60875 15.6228)
(-3.77106e-14 0.885741 15.1337)
(-5.28377e-14 1.38343 14.4013)
(-8.49581e-14 2.02473 13.1613)
(-1.239e-13 2.77036 11.3036)
(-1.64784e-13 3.65027 8.95041)
(-2.03021e-13 4.70395 6.35102)
(-2.20645e-13 5.9943 3.73824)
(-2.13409e-13 6.46467 0.689659)
(-2.31293e-13 4.89751 -2.98834)
(-2.91164e-13 3.77075 -5.87254)
(-2.84811e-13 4.25933 -8.97305)
(-2.83066e-13 4.83426 -12.4792)
(-2.66029e-13 5.31028 -16.2895)
(-2.48924e-13 5.69219 -20.3002)
(-2.39521e-13 5.91563 -24.4669)
(-2.32484e-13 5.89505 -28.6646)
(-2.24555e-13 5.5269 -32.6316)
(-2.09086e-13 4.77095 -35.9724)
(-1.85052e-13 3.69685 -38.263)
(-1.53167e-13 2.45262 -39.2368)
(-1.24714e-13 1.18723 -38.9522)
(-8.17332e-14 0.0139487 -37.8196)
(-3.41169e-14 -1.00567 -36.3801)
(4.27498e-15 -1.90355 -34.8919)
(4.99544e-14 -2.75668 -33.2651)
(9.84312e-14 -3.58994 -31.464)
(1.48128e-13 -4.40668 -29.4416)
(1.96429e-13 -5.21229 -27.1319)
(2.47701e-13 -6.00562 -24.4858)
(2.93578e-13 -6.78197 -21.4724)
(3.40203e-13 -7.53749 -18.0802)
(3.89624e-13 -8.27948 -14.3163)
(4.36043e-13 -9.05623 -10.183)
(4.71739e-13 -9.94903 -5.68085)
(4.88932e-13 -10.8395 -1.1629)
(4.70893e-13 -11.7554 4.71571)
(4.46651e-13 -12.5149 8.53888)
(3.74442e-13 -16.5401 18.5773)
(-2.20431e-14 -0.0790606 -15.605)
(-3.95809e-14 -0.00885903 -15.6019)
(-4.11904e-14 0.102934 -15.5803)
(-6.03939e-14 0.19184 -15.7782)
(-5.54775e-14 0.262406 -16.086)
(-4.79171e-14 0.302106 -16.4796)
(-6.06993e-14 0.301864 -16.9022)
(-7.24007e-14 0.250063 -17.2966)
(-7.86025e-14 0.145107 -17.5873)
(-5.83477e-14 0.00943014 -17.7136)
(-5.50226e-14 -0.114155 -17.6752)
(-7.15697e-14 -0.213915 -17.5158)
(-6.58718e-14 -0.35497 -17.2095)
(-6.55729e-14 -0.550091 -16.7009)
(-6.68686e-14 -0.774069 -15.9083)
(-6.67633e-14 -1.03281 -14.8178)
(-6.75341e-14 -1.33076 -13.3793)
(-5.8666e-14 -1.67663 -11.5243)
(-6.59162e-14 -2.10086 -9.22639)
(-7.3999e-14 -2.60665 -6.58583)
(-8.88418e-14 -2.96222 -3.75773)
(-7.93831e-14 -2.77903 -0.87366)
(-5.9153e-14 -1.99666 1.75585)
(-6.87771e-14 -0.37775 2.22728)
(-6.14374e-14 0.433334 1.37223)
(-1.30769e-13 0.742996 0.385266)
(-1.5807e-13 0.301823 -0.569338)
(-1.17709e-13 -0.121938 -3.97657)
(-1.03527e-13 -0.0153742 -1.19254)
(-2.11064e-13 -0.485995 -0.650909)
(-2.16961e-13 -0.620238 -0.0755883)
(-1.81258e-13 -0.756794 0.636049)
(-1.72236e-13 -0.835096 1.44396)
(-1.35646e-13 -0.858929 2.32536)
(-8.85367e-14 -0.861162 3.33978)
(-2.95695e-14 -0.895837 4.52192)
(-4.04163e-14 -0.982341 5.79831)
(-6.50859e-14 -1.09083 7.04187)
(-6.98576e-14 -1.18304 8.1895)
(-6.21304e-14 -1.24464 9.25223)
(-6.49131e-14 -1.27863 10.2599)
(-4.69874e-14 -1.29303 11.2306)
(-2.18861e-14 -1.29186 12.1682)
(1.87651e-14 -1.27685 13.0681)
(2.17639e-14 -1.24587 13.9211)
(3.31153e-14 -1.19589 14.7156)
(3.74363e-14 -1.12271 15.44)
(4.77253e-14 -1.02263 16.0833)
(5.53699e-14 -0.893033 16.636)
(5.31327e-14 -0.732229 17.0916)
(3.42337e-14 -0.54238 17.4465)
(4.27778e-16 -0.32681 17.6975)
(-4.66461e-14 -0.0912599 17.8507)
(-9.75786e-14 0.155135 17.9107)
(-1.47107e-13 0.398147 17.8466)
(-1.85304e-13 0.594201 17.6293)
(-2.04945e-13 0.715972 17.2774)
(-1.98359e-13 0.756461 16.8316)
(-1.69563e-13 0.728784 16.3418)
(-1.43892e-13 0.670599 15.8494)
(-8.37212e-14 0.644112 15.3712)
(-2.46933e-14 0.730874 14.9138)
(3.53426e-14 1.0487 14.4784)
(2.18005e-14 1.66999 13.8395)
(-3.03714e-14 2.49504 12.6242)
(-1.03472e-13 3.40881 10.7761)
(-1.256e-13 4.37368 8.60053)
(-1.5153e-13 5.4615 6.52537)
(-1.85693e-13 6.80396 4.55487)
(-2.2504e-13 7.48532 2.09305)
(-2.27539e-13 6.09356 -1.5018)
(-2.86236e-13 4.85556 -5.15901)
(-2.83071e-13 5.42306 -8.60112)
(-2.67516e-13 6.11568 -12.3664)
(-2.57607e-13 6.67211 -16.3784)
(-2.53629e-13 7.12182 -20.5451)
(-2.4385e-13 7.3854 -24.8508)
(-2.30132e-13 7.3352 -29.1562)
(-2.17044e-13 6.80566 -33.101)
(-1.93732e-13 5.71384 -36.0886)
(-1.60661e-13 4.15912 -37.5127)
(-1.16266e-13 2.41237 -37.2288)
(-5.31424e-14 0.793367 -35.8921)
(1.60433e-15 -0.483408 -34.5601)
(5.09954e-14 -1.45573 -33.6687)
(8.91947e-14 -2.34829 -32.8535)
(1.27051e-13 -3.26068 -31.8432)
(1.74566e-13 -4.19212 -30.5617)
(2.2132e-13 -5.14476 -28.9054)
(2.69501e-13 -6.11459 -26.8163)
(3.15262e-13 -7.08652 -24.2749)
(3.59206e-13 -8.04376 -21.2874)
(4.03476e-13 -8.97382 -17.8818)
(4.51393e-13 -9.87991 -14.1067)
(4.95849e-13 -10.8038 -10.0043)
(5.27338e-13 -11.8279 -5.58181)
(5.43483e-13 -12.8748 -1.21935)
(5.30112e-13 -13.7982 4.27068)
(5.08323e-13 -15.081 7.68482)
(4.26551e-13 -19.0197 16.3359)
(-5.1392e-14 -0.111828 -15.9164)
(-4.81645e-14 -0.0215913 -15.8839)
(-5.94645e-14 0.105974 -15.825)
(-6.80069e-14 0.209916 -15.9855)
(-7.09992e-14 0.292259 -16.254)
(-5.25339e-14 0.33983 -16.6116)
(-6.09606e-14 0.342051 -17.0058)
(-7.68864e-14 0.285324 -17.3865)
(-8.16575e-14 0.166729 -17.6855)
(-6.10762e-14 0.0109222 -17.8427)
(-8.06141e-14 -0.132333 -17.8464)
(-7.96569e-14 -0.247473 -17.729)
(-8.20087e-14 -0.410146 -17.4536)
(-8.41746e-14 -0.639453 -16.9834)
(-8.46439e-14 -0.904836 -16.2291)
(-6.13748e-14 -1.21189 -15.1821)
(-5.49627e-14 -1.5671 -13.7962)
(-6.70407e-14 -1.97974 -12.0085)
(-6.63599e-14 -2.47442 -9.79086)
(-7.28171e-14 -3.03365 -7.21535)
(-7.17217e-14 -3.41881 -4.41079)
(-7.25367e-14 -3.22764 -1.54446)
(-6.56949e-14 -2.27975 0.995363)
(-7.40381e-14 -0.259262 1.12073)
(-1.37505e-13 0.590765 -0.018015)
(-1.5642e-13 0.801153 -1.03882)
(-1.35393e-13 0.312558 -1.91855)
(-1.3724e-14 0.0554468 -2.46826)
(-1.9998e-13 -0.183778 -1.33996)
(-1.95347e-13 -0.585367 -1.09257)
(-2.32357e-13 -0.756381 -0.374016)
(-1.53418e-13 -0.914045 0.376816)
(-1.57417e-13 -1.00974 1.22059)
(-1.20761e-13 -1.06022 2.15093)
(-6.87265e-14 -1.09751 3.21639)
(-3.80235e-14 -1.1567 4.39484)
(-6.4084e-14 -1.24514 5.58963)
(-9.17841e-14 -1.34132 6.72324)
(-9.21799e-14 -1.42086 7.78397)
(-7.68611e-14 -1.47499 8.79358)
(-6.38621e-14 -1.50506 9.77036)
(-4.30007e-14 -1.51651 10.7212)
(-1.29893e-14 -1.51126 11.6442)
(1.78416e-15 -1.4901 12.5326)
(2.79873e-14 -1.44997 13.3762)
(3.92095e-14 -1.38752 14.1625)
(4.7001e-14 -1.29834 14.8783)
(5.96396e-14 -1.17896 15.5107)
(8.6794e-14 -1.02737 16.0483)
(1.00102e-13 -0.842515 16.4823)
(1.08054e-13 -0.627808 16.8086)
(1.01866e-13 -0.388048 17.0249)
(8.39476e-14 -0.12984 17.1426)
(1.36854e-14 0.141419 17.1807)
(-4.86466e-14 0.418709 17.1165)
(-9.00822e-14 0.65381 16.914)
(-1.01448e-13 0.809991 16.5779)
(-9.83847e-14 0.873991 16.139)
(-5.53829e-14 0.856843 15.643)
(-5.03085e-14 0.799693 15.1326)
(-3.23384e-14 0.767549 14.6219)
(-1.81066e-14 0.842758 14.1432)
(1.3477e-14 1.18373 13.7671)
(3.1322e-14 1.9349 13.222)
(6.36976e-15 2.95182 12.0363)
(-5.78263e-14 3.99843 10.2718)
(-9.28815e-14 4.96567 8.39109)
(-1.14617e-13 6.01175 6.89422)
(-1.39788e-13 7.43833 5.61691)
(-2.05925e-13 8.4377 3.56077)
(-1.97097e-13 7.41961 -0.0237179)
(-2.70276e-13 6.12947 -4.42122)
(-2.83756e-13 6.69498 -8.27857)
(-2.58224e-13 7.47207 -12.296)
(-2.47386e-13 8.09062 -16.486)
(-2.47671e-13 8.59737 -20.7846)
(-2.39902e-13 8.89134 -25.204)
(-2.32541e-13 8.77519 -29.5569)
(-2.12518e-13 7.98175 -33.2941)
(-1.83464e-13 6.37652 -35.5257)
(-1.36255e-13 4.18319 -35.6146)
(-6.26954e-14 1.98477 -34.1458)
(8.27891e-15 0.342916 -32.8238)
(5.28946e-14 -0.702268 -32.5447)
(1.05201e-13 -1.57966 -32.5567)
(1.46529e-13 -2.55412 -32.2436)
(1.91157e-13 -3.60651 -31.5508)
(2.37648e-13 -4.70855 -30.4137)
(2.85124e-13 -5.85457 -28.7802)
(3.37064e-13 -7.0229 -26.6529)
(3.82032e-13 -8.18887 -24.0496)
(4.28443e-13 -9.32842 -21.0024)
(4.73915e-13 -10.4239 -17.5578)
(5.18047e-13 -11.4759 -13.7818)
(5.54535e-13 -12.5212 -9.73741)
(5.87663e-13 -13.6463 -5.43095)
(6.02613e-13 -14.8147 -1.25113)
(5.83969e-13 -15.6991 3.86724)
(5.58429e-13 -17.2887 7.15126)
(4.7638e-13 -21.04 14.2427)
(-7.50534e-14 -0.146297 -16.2532)
(-6.88215e-14 -0.0394141 -16.1835)
(-7.15358e-14 0.104438 -16.0915)
(-7.34023e-14 0.22307 -16.2144)
(-7.588e-14 0.31737 -16.4458)
(-7.5142e-14 0.373416 -16.7707)
(-7.90238e-14 0.379414 -17.142)
(-8.0533e-14 0.320046 -17.518)
(-8.56846e-14 0.190891 -17.8386)
(-8.59268e-14 0.0176467 -18.0437)
(-8.93407e-14 -0.144751 -18.1053)
(-9.55829e-14 -0.277375 -18.0379)
(-9.53749e-14 -0.462593 -17.7918)
(-8.9908e-14 -0.726332 -17.3594)
(-7.68891e-14 -1.03315 -16.6411)
(-8.00372e-14 -1.38778 -15.6337)
(-7.52454e-14 -1.79907 -14.2947)
(-7.40992e-14 -2.27719 -12.5657)
(-6.99552e-14 -2.84189 -10.4164)
(-6.16106e-14 -3.45855 -7.8943)
(-6.35602e-14 -3.87696 -5.102)
(-6.68271e-14 -3.66756 -2.23193)
(-7.25775e-14 -2.51282 0.171339)
(-2.11314e-13 -0.00100818 -0.176903)
(-1.32744e-13 0.712399 -1.43004)
(-1.61071e-13 0.876023 -2.06237)
(-4.54069e-14 0.545316 -2.55283)
(9.90526e-14 0.0451777 -4.07352)
(-1.69015e-13 -0.434975 -1.70607)
(-1.74932e-13 -0.733612 -1.42045)
(-2.30846e-13 -0.921717 -0.562027)
(-1.17385e-13 -1.07878 0.195583)
(-1.49881e-13 -1.18964 1.04839)
(-1.21086e-13 -1.26379 1.99542)
(-7.31163e-14 -1.32469 3.03532)
(-7.23357e-14 -1.39727 4.13549)
(-8.574e-14 -1.48646 5.23591)
(-9.35717e-14 -1.57728 6.2988)
(-8.57565e-14 -1.65157 7.31997)
(-7.43446e-14 -1.70241 8.30915)
(-5.03237e-14 -1.73016 9.27343)
(-4.06204e-14 -1.73924 10.2148)
(-3.53197e-14 -1.73019 11.1302)
(-1.97313e-14 -1.70319 12.0124)
(1.08842e-14 -1.65412 12.8513)
(3.19754e-14 -1.57932 13.6339)
(4.66655e-14 -1.47399 14.3469)
(5.57757e-14 -1.33475 14.9765)
(6.68295e-14 -1.15999 15.5105)
(8.04769e-14 -0.94912 15.9381)
(1.06598e-13 -0.706967 16.2532)
(9.91414e-14 -0.440419 16.4507)
(1.21597e-13 -0.158801 16.5414)
(1.15736e-13 0.135148 16.5523)
(8.94274e-14 0.442979 16.4641)
(5.70368e-14 0.713592 16.2431)
(3.8922e-14 0.902632 15.8947)
(3.39917e-14 0.990569 15.4492)
(4.09122e-14 0.985485 14.9465)
(2.39833e-14 0.932937 14.4233)
(1.76648e-14 0.895963 13.8782)
(-2.93846e-14 0.946349 13.3676)
(-4.19969e-14 1.2935 13.0384)
(1.91921e-15 2.17915 12.5714)
(2.14547e-14 3.38322 11.4226)
(-1.14308e-14 4.51657 9.79916)
(-6.21353e-14 5.41973 8.25615)
(-8.81022e-14 6.36796 7.26013)
(-1.00363e-13 7.91553 6.55793)
(-1.74939e-13 9.33869 4.78774)
(-1.73024e-13 8.83925 1.21379)
(-2.49109e-13 7.58411 -3.71357)
(-2.79305e-13 8.08038 -8.02048)
(-2.52945e-13 8.89725 -12.2765)
(-2.48099e-13 9.55688 -16.6142)
(-2.44359e-13 10.11 -21.0205)
(-2.38438e-13 10.4161 -25.5225)
(-2.27651e-13 10.1637 -29.8256)
(-2.00367e-13 8.93971 -33.0808)
(-1.53934e-13 6.61901 -34.1409)
(-7.87033e-14 3.79714 -32.8991)
(2.00836e-15 1.54549 -31.3613)
(6.1554e-14 0.29989 -31.3912)
(1.17021e-13 -0.548779 -32.1627)
(1.61382e-13 -1.55575 -32.4191)
(2.08219e-13 -2.71633 -32.1678)
(2.55053e-13 -3.95376 -31.4634)
(3.05346e-13 -5.25399 -30.2543)
(3.56699e-13 -6.59902 -28.5495)
(4.05474e-13 -7.96037 -26.3681)
(4.53798e-13 -9.31127 -23.7299)
(4.98087e-13 -10.6224 -20.6661)
(5.4275e-13 -11.8705 -17.2231)
(5.8555e-13 -13.0511 -13.4741)
(6.16442e-13 -14.1956 -9.50038)
(6.41475e-13 -15.3937 -5.3159)
(6.54245e-13 -16.65 -1.31158)
(6.31116e-13 -17.5015 3.44473)
(6.1113e-13 -19.2217 6.65023)
(5.26934e-13 -22.6725 12.5552)
(-6.5705e-14 -0.185268 -16.6411)
(-7.43539e-14 -0.06261 -16.5307)
(-8.00325e-14 0.0972299 -16.4076)
(-8.21018e-14 0.230506 -16.4941)
(-8.48577e-14 0.336979 -16.6906)
(-8.41123e-14 0.402261 -16.9857)
(-9.12956e-14 0.413525 -17.3392)
(-9.1102e-14 0.353852 -17.7179)
(-8.54645e-14 0.21675 -18.0703)
(-1.00265e-13 0.0274646 -18.3346)
(-9.87363e-14 -0.155076 -18.4634)
(-9.76198e-14 -0.30789 -18.4485)
(-9.47856e-14 -0.51589 -18.2267)
(-9.179e-14 -0.8131 -17.8279)
(-8.86932e-14 -1.16094 -17.1405)
(-8.38853e-14 -1.5622 -16.1668)
(-8.17087e-14 -2.02832 -14.8679)
(-7.22445e-14 -2.57066 -13.1893)
(-6.18057e-14 -3.20513 -11.0978)
(-6.33431e-14 -3.88339 -8.61966)
(-6.20312e-14 -4.34059 -5.83119)
(-5.97932e-14 -4.09435 -2.93876)
(-8.94577e-14 -2.61849 -0.757079)
(-1.75583e-13 0.293303 -2.02965)
(-8.04277e-14 0.804226 -2.76838)
(-1.12271e-13 0.913357 -2.89214)
(-2.05045e-13 0.759063 -2.84477)
(-2.32869e-13 -0.129006 -3.80102)
(-6.52477e-14 -0.657648 -1.92095)
(-1.05582e-13 -0.885098 -1.55193)
(-9.30184e-14 -1.08693 -0.765857)
(-8.29772e-14 -1.24507 -0.0360155)
(-1.08591e-13 -1.37379 0.793432)
(-1.18842e-13 -1.4677 1.71983)
(-9.50315e-14 -1.54542 2.71573)
(-1.16001e-13 -1.6284 3.75791)
(-1.14315e-13 -1.72026 4.80906)
(-8.78279e-14 -1.80924 5.84148)
(-7.48513e-14 -1.88063 6.8462)
(-7.24896e-14 -1.92922 7.82565)
(-7.89327e-14 -1.95503 8.78291)
(-6.06383e-14 -1.962 9.7188)
(-5.19444e-14 -1.94936 10.6299)
(-3.88637e-14 -1.91673 11.509)
(-1.26708e-14 -1.85888 12.3458)
(1.22244e-14 -1.7719 13.1274)
(2.65857e-14 -1.65053 13.84)
(3.01311e-14 -1.49151 14.4699)
(3.11841e-14 -1.29346 15.0046)
(3.70091e-14 -1.05597 15.4329)
(4.84259e-14 -0.785023 15.7472)
(6.24032e-14 -0.489586 15.9397)
(7.92492e-14 -0.182634 16.0194)
(9.47984e-14 0.135418 16.0166)
(1.07204e-13 0.474972 15.9082)
(1.09254e-13 0.780148 15.6606)
(1.13477e-13 0.999373 15.2873)
(8.77122e-14 1.10893 14.826)
(8.10696e-14 1.11607 14.3124)
(5.06718e-14 1.07304 13.7708)
(9.99858e-15 1.03395 13.1793)
(-3.82873e-14 1.04778 12.6176)
(-5.25478e-14 1.38386 12.3131)
(-1.85646e-14 2.40399 11.9047)
(1.57744e-14 3.78156 10.8068)
(1.04001e-14 4.95619 9.36549)
(-3.33859e-14 5.75217 8.15678)
(-7.45313e-14 6.57609 7.55164)
(-9.21781e-14 8.27686 7.22241)
(-1.55389e-13 10.1974 5.59494)
(-1.65549e-13 10.2965 2.05033)
(-2.25841e-13 9.18001 -3.12295)
(-2.89441e-13 9.57492 -7.85981)
(-2.63533e-13 10.3817 -12.3217)
(-2.47308e-13 11.0604 -16.7703)
(-2.45234e-13 11.6491 -21.2581)
(-2.39474e-13 11.9332 -25.7991)
(-2.17287e-13 11.4275 -29.905)
(-1.79127e-13 9.56464 -32.3612)
(-1.02215e-13 6.43793 -32.0913)
(-5.15952e-15 3.32852 -30.3178)
(7.62901e-14 1.52518 -30.0324)
(1.34193e-13 0.640016 -31.293)
(1.82315e-13 -0.331691 -32.1738)
(2.28001e-13 -1.56835 -32.3096)
(2.67019e-13 -2.90766 -32.0024)
(3.19601e-13 -4.32865 -31.2351)
(3.73055e-13 -5.81937 -29.985)
(4.27374e-13 -7.35194 -28.2686)
(4.7857e-13 -8.89951 -26.089)
(5.2484e-13 -10.4319 -23.4577)
(5.68268e-13 -11.9126 -20.4003)
(6.0917e-13 -13.3093 -16.9644)
(6.44388e-13 -14.6087 -13.2333)
(6.7053e-13 -15.8353 -9.31127)
(6.92292e-13 -17.08 -5.23195)
(6.97521e-13 -18.384 -1.38821)
(6.76411e-13 -19.1925 3.02201)
(6.53874e-13 -20.969 6.04925)
(5.73911e-13 -24.0527 11.1656)
(-7.37201e-14 -0.229511 -17.0939)
(-8.48087e-14 -0.0922764 -16.9399)
(-9.17304e-14 0.0838925 -16.7921)
(-9.77452e-14 0.2314 -16.8459)