/*--------------------------------*- C++ -*----------------------------------*\
| =========                 |                                                 |
| \\      /  F ield         | OpenFOAM: The Open Source CFD Toolbox           |
|  \\    /   O peration     | Version:  4.1                                   |
|   \\  /    A nd           | Web:      www.OpenFOAM.org                      |
|    \\/     M anipulation  |                                                 |
\*---------------------------------------------------------------------------*/
FoamFile
{
    version     2.0;
    format      ascii;
    class       volScalarField;
    location    "100";
    object      epsilon;
}
// * * * * * * * * * * * * * * * * * * * * * * * * * * * * * * * * * * * * * //

dimensions      [0 2 -3 0 0 0 0];

internalField   nonuniform List<scalar> 
6820
(
105.266
143.991
186.348
230.922
275.887
319.401
359.836
395.957
427.009
452.695
473.096
488.561
499.614
506.858
510.914
512.374
511.776
509.59
506.216
501.983
497.161
491.966
486.568
481.099
475.659
470.326
465.155
460.195
455.436
451.106
446.205
445.741
425.473
8.2901
15.8999
22.4174
28.6667
35.0322
41.4727
47.8079
53.8689
59.5228
64.6757
69.277
73.3165
76.8161
79.8187
82.3793
84.5574
86.4119
87.9979
89.3643
90.5534
91.6007
92.5352
93.38
94.153
94.8675
95.5327
96.1541
96.7344
97.2707
97.7728
98.1865
98.7204
98.8064
3.96314
5.25661
6.61254
7.86051
8.98656
10.0203
10.9818
11.877
12.7067
13.4711
14.1714
14.8099
15.3902
15.9166
16.3943
16.8288
17.2255
17.59
17.927
18.2412
18.5368
18.8172
19.0856
19.3445
19.5959
19.8417
20.0828
20.3204
20.5545
20.7858
21.0124
21.235
21.4533
3.56001
3.77406
4.11208
4.49698
4.881
5.24465
5.58233
5.89321
6.17793
6.4377
6.67397
6.8883
7.08229
7.25756
7.41575
7.55844
7.68714
7.80334
7.9084
8.00364
8.09026
8.16939
8.24206
8.30921
8.37171
8.43034
8.4858
8.53872
8.58967
8.63922
8.6877
8.73594
8.78376
3.52137
3.52456
3.57972
3.67702
3.80001
3.93475
4.07203
4.20648
4.33514
4.45649
4.56979
4.67482
4.77161
4.86038
4.94147
5.01528
5.08226
5.14285
5.19755
5.2468
5.29107
5.33078
5.36637
5.39823
5.42674
5.45224
5.47505
5.49549
5.51382
5.53031
5.54517
5.55864
5.57091
3.5192
3.48502
3.46593
3.46519
3.48166
3.51176
3.55133
3.59672
3.64513
3.69451
3.74344
3.79096
3.83644
3.87948
3.91984
3.95741
3.99215
4.02409
4.05331
4.0799
4.10399
4.12571
4.14519
4.16259
4.17804
4.19168
4.20365
4.21407
4.22306
4.23073
4.23718
4.24247
4.24674
3.51939
3.47992
3.44464
3.41561
3.39411
3.38041
3.37385
3.37335
3.37762
3.38548
3.39588
3.40795
3.421
3.4345
3.44804
3.46131
3.4741
3.48622
3.49758
3.50811
3.51775
3.5265
3.53434
3.5413
3.54739
3.55265
3.5571
3.56079
3.56374
3.56598
3.56756
3.5685
3.56884
3.51947
3.47945
3.44133
3.40568
3.37315
3.34425
3.31922
3.29806
3.28053
3.26626
3.25482
3.24577
3.23868
3.23316
3.22889
3.22558
3.22299
3.22091
3.2192
3.2177
3.21633
3.21499
3.21362
3.21217
3.2106
3.20888
3.20699
3.20492
3.20266
3.20019
3.19752
3.19463
3.19154
3.51948
3.47942
3.4409
3.40399
3.36885
3.33566
3.30457
3.27572
3.24915
3.22482
3.20265
3.18251
3.16421
3.14759
3.13246
3.11864
3.10597
3.09431
3.08351
3.07345
3.06403
3.05517
3.04676
3.03876
3.0311
3.02373
3.01661
3.00969
3.00295
2.99636
2.9899
2.98354
2.97726
3.51948
3.47942
3.44085
3.40374
3.36808
3.33388
3.30116
3.26995
3.24027
3.21214
3.18555
3.16047
3.13685
3.11463
3.09372
3.07406
3.05555
3.0381
3.02163
3.00607
2.99132
2.97733
2.96403
2.95135
2.93924
2.92766
2.91655
2.90587
2.89559
2.88568
2.8761
2.86682
2.85782
3.51948
3.47941
3.44083
3.40369
3.36795
3.33354
3.30045
3.26862
3.23805
3.20872
3.1806
3.15368
3.12792
3.1033
3.07979
3.05733
3.03589
3.01543
2.99588
2.97721
2.95937
2.9423
2.92596
2.91032
2.89532
2.88092
2.8671
2.85381
2.84102
2.82869
2.81681
2.80533
2.79424
3.51948
3.47941
3.44082
3.40367
3.36791
3.33347
3.30029
3.26833
3.23754
3.20788
3.17931
3.1518
3.12531
3.09982
3.0753
3.05171
3.02902
3.00719
2.98621
2.96603
2.94662
2.92794
2.90998
2.89268
2.87603
2.85999
2.84454
2.82964
2.81527
2.8014
2.78801
2.77507
2.76255
3.51948
3.47941
3.44081
3.40366
3.36789
3.33344
3.30024
3.26825
3.23741
3.20766
3.17898
3.1513
3.1246
3.09884
3.07397
3.04998
3.02683
3.00448
2.98291
2.96209
2.942
2.9226
2.90386
2.88577
2.8683
2.85142
2.83511
2.81935
2.80411
2.78936
2.7751
2.7613
2.74793
3.51948
3.4794
3.44081
3.40365
3.36787
3.33341
3.30021
3.26821
3.23735
3.20758
3.17886
3.15115
3.12438
3.09854
3.07358
3.04946
3.02615
3.00363
2.98185
2.9608
2.94044
2.92075
2.9017
2.88327
2.86544
2.84819
2.83148
2.8153
2.79964
2.78446
2.76976
2.75551
2.74168
3.51948
3.4794
3.4408
3.40364
3.36786
3.33339
3.30019
3.26817
3.23731
3.20753
3.1788
3.15107
3.12429
3.09842
3.07342
3.04927
3.02591
3.00333
2.98149
2.96035
2.9399
2.92011
2.90095
2.88239
2.86442
2.84701
2.83014
2.81379
2.79794
2.78257
2.76767
2.75321
2.73917
3.51948
3.4794
3.44079
3.40363
3.36785
3.33338
3.30016
3.26815
3.23727
3.20749
3.17875
3.15101
3.12422
3.09834
3.07333
3.04916
3.02579
3.00319
2.98132
2.96016
2.93967
2.91984
2.90064
2.88203
2.86401
2.84654
2.82961
2.81319
2.79727
2.78182
2.76683
2.75229
2.73816
3.51948
3.47939
3.44079
3.40362
3.36784
3.33336
3.30014
3.26812
3.23724
3.20745
3.17871
3.15096
3.12416
3.09827
3.07326
3.04908
3.02569
3.00308
2.9812
2.96003
2.93953
2.91968
2.90046
2.88184
2.86379
2.8463
2.82934
2.8129
2.79694
2.78147
2.76644
2.75186
2.7377
3.51947
3.47939
3.44079
3.40362
3.36783
3.33335
3.30013
3.2681
3.23721
3.20742
3.17867
3.15091
3.1241
3.09821
3.07319
3.049
3.02561
3.00299
2.9811
2.95992
2.93941
2.91956
2.90032
2.88169
2.86363
2.84613
2.82916
2.8127
2.79673
2.78124
2.7662
2.7516
2.73742
3.51947
3.47939
3.44078
3.40361
3.36782
3.33334
3.30011
3.26808
3.23719
3.20739
3.17863
3.15087
3.12406
3.09816
3.07313
3.04893
3.02554
3.00291
2.98101
2.95982
2.93931
2.91944
2.9002
2.88156
2.86349
2.84598
2.829
2.81253
2.79656
2.78106
2.76601
2.7514
2.73722
3.51947
3.47939
3.44078
3.40361
3.36781
3.33333
3.3001
3.26806
3.23717
3.20736
3.1786
3.15083
3.12401
3.09811
3.07307
3.04887
3.02547
3.00283
2.98093
2.95973
2.93921
2.91934
2.90009
2.88144
2.86337
2.84585
2.82886
2.81238
2.7964
2.78089
2.76584
2.75123
2.73704
3.51947
3.47939
3.44078
3.4036
3.36781
3.33332
3.30008
3.26804
3.23715
3.20734
3.17857
3.15079
3.12397
3.09806
3.07302
3.04881
3.0254
3.00276
2.98085
2.95965
2.93912
2.91924
2.89999
2.88133
2.86325
2.84572
2.82873
2.81225
2.79626
2.78074
2.76569
2.75107
2.73688
3.51947
3.47939
3.44078
3.4036
3.3678
3.33331
3.30007
3.26803
3.23713
3.20732
3.17854
3.15076
3.12394
3.09802
3.07297
3.04876
3.02534
3.00269
2.98078
2.95957
2.93904
2.91915
2.89989
2.88123
2.86314
2.84561
2.82861
2.81212
2.79613
2.78061
2.76555
2.75093
2.73673
3.51947
3.47939
3.44077
3.4036
3.3678
3.3333
3.30006
3.26802
3.23711
3.2073
3.17852
3.15074
3.1239
3.09798
3.07293
3.04871
3.02529
3.00264
2.98072
2.9595
2.93896
2.91907
2.8998
2.88113
2.86304
2.8455
2.8285
2.812
2.79601
2.78048
2.76542
2.75079
2.73659
3.51947
3.47939
3.44077
3.4036
3.36779
3.3333
3.30006
3.26801
3.2371
3.20728
3.1785
3.15071
3.12388
3.09795
3.07289
3.04867
3.02524
3.00258
2.98066
2.95944
2.93889
2.91899
2.89972
2.88105
2.86295
2.84541
2.8284
2.8119
2.79589
2.78037
2.7653
2.75067
2.73647
3.51947
3.47938
3.44077
3.40359
3.36779
3.33329
3.30005
3.268
3.23709
3.20726
3.17848
3.15069
3.12385
3.09792
3.07286
3.04863
3.0252
3.00254
2.9806
2.95938
2.93883
2.91893
2.89965
2.88097
2.86287
2.84532
2.8283
2.8118
2.79579
2.78026
2.76519
2.75056
2.73635
3.51947
3.47938
3.44077
3.40359
3.36779
3.33329
3.30004
3.26799
3.23708
3.20725
3.17847
3.15067
3.12383
3.09789
3.07283
3.0486
3.02516
3.00249
2.98056
2.95933
2.93877
2.91886
2.89958
2.8809
2.86279
2.84524
2.82822
2.81171
2.7957
2.78016
2.76509
2.75045
2.73624
3.51947
3.47938
3.44077
3.40359
3.36778
3.33329
3.30004
3.26799
3.23707
3.20724
3.17845
3.15066
3.12381
3.09787
3.0728
3.04857
3.02513
3.00246
2.98052
2.95928
2.93872
2.91881
2.89952
2.88083
2.86272
2.84517
2.82814
2.81163
2.79561
2.78007
2.76499
2.75036
2.73615
3.51947
3.47938
3.44077
3.40359
3.36778
3.33328
3.30004
3.26798
3.23706
3.20723
3.17844
3.15064
3.12379
3.09785
3.07278
3.04854
3.0251
3.00242
2.98048
2.95924
2.93868
2.91876
2.89947
2.88078
2.86266
2.8451
2.82807
2.81156
2.79554
2.77999
2.76491
2.75027
2.73606
3.51947
3.47938
3.44077
3.40359
3.36778
3.33328
3.30003
3.26798
3.23706
3.20723
3.17843
3.15063
3.12378
3.09784
3.07276
3.04852
3.02507
3.00239
2.98045
2.95921
2.93864
2.91872
2.89943
2.88073
2.86261
2.84504
2.82801
2.81149
2.79547
2.77992
2.76484
2.75019
2.73597
3.51947
3.47938
3.44077
3.40359
3.36778
3.33328
3.30003
3.26797
3.23705
3.20722
3.17842
3.15062
3.12377
3.09782
3.07275
3.0485
3.02505
3.00237
2.98042
2.95918
2.93861
2.91869
2.89939
2.88069
2.86257
2.845
2.82796
2.81144
2.79541
2.77986
2.76477
2.75013
2.73591
3.51947
3.47938
3.44077
3.40359
3.36778
3.33328
3.30003
3.26797
3.23705
3.20722
3.17842
3.15062
3.12376
3.09781
3.07273
3.04849
3.02504
3.00235
2.9804
2.95916
2.93858
2.91866
2.89936
2.88066
2.86254
2.84496
2.82793
2.81141
2.79538
2.77983
2.76474
2.75009
2.73587
3.51947
3.47938
3.44077
3.40359
3.36778
3.33328
3.30003
3.26797
3.23705
3.20721
3.17842
3.15061
3.12376
3.09781
3.07274
3.04849
3.02504
3.00236
2.98041
2.95917
2.9386
2.91868
2.89938
2.88068
2.86256
2.845
2.82797
2.81146
2.79544
2.77989
2.76481
2.75018
2.73597
3.51947
3.47938
3.44077
3.40359
3.36778
3.33328
3.30003
3.26797
3.23705
3.20722
3.17842
3.15062
3.12377
3.09784
3.07277
3.04853
3.0251
3.00244
2.98051
2.95929
2.93875
2.91886
2.8996
2.88094
2.86286
2.84534
2.82836
2.8119
2.79593
2.78045
2.76543
2.75086
2.73671
3.51947
3.47938
3.44077
3.40359
3.36778
3.33329
3.30005
3.26801
3.23712
3.20732
3.17857
3.15082
3.12403
3.09816
3.07318
3.04904
3.02572
3.00317
2.98138
2.96031
2.93993
2.92021
2.90113
2.88267
2.8648
2.84751
2.83075
2.81453
2.79881
2.78359
2.76883
2.75453
2.74066
3.51947
3.47938
3.44078
3.40362
3.36785
3.33343
3.30029
3.26839
3.23768
3.20811
3.17964
3.15223
3.12584
3.10042
3.07594
3.05237
3.02966
3.00777
2.98669
2.96636
2.94677
2.92787
2.90965
2.89207
2.87511
2.85873
2.84292
2.82765
2.8129
2.79865
2.78487
2.77155
2.75866
3.51947
3.47942
3.44096
3.40413
3.36893
3.33533
3.30326
3.27267
3.24352
3.21573
3.18926
3.16406
3.14005
3.11719
3.09542
3.07468
3.05491
3.03606
3.01808
3.00092
2.98453
2.96886
2.95388
2.93954
2.9258
2.91263
2.9
2.88788
2.87623
2.86503
2.85425
2.84387
2.83387
3.5195
3.48076
3.44539
3.41321
3.38397
3.35746
3.33352
3.31196
3.2926
3.27526
3.25975
3.24587
3.23347
3.22237
3.21243
3.20351
3.19549
3.18825
3.18171
3.17577
3.17035
3.1654
3.16084
3.15662
3.1527
3.14904
3.1456
3.14236
3.13927
3.13632
3.13349
3.13076
3.12812
3.52507
3.51485
3.52104
3.53651
3.55837
3.5851
3.61564
3.6491
3.68465
3.72162
3.75944
3.79768
3.83597
3.87404
3.91165
3.94863
3.98485
4.02022
4.05465
4.08811
4.12055
4.15197
4.18234
4.21167
4.23997
4.26726
4.29355
4.31886
4.34322
4.36665
4.38918
4.41084
4.43166
3.84201
4.38782
4.87751
5.34279
5.79515
6.23607
6.6635
7.0761
7.47388
7.85743
8.22752
8.5849
8.93036
9.26461
9.5883
9.90198
10.2062
10.5013
10.7877
11.0658
11.3358
11.5981
11.8529
12.1005
12.3411
12.575
12.8024
13.0235
13.2385
13.4477
13.6514
13.8496
14.0428
30.2673
32.7691
35.3054
37.8488
40.3863
42.91
45.413
47.8884
50.3294
52.7302
55.0854
57.3904
59.6413
61.8348
63.9681
66.0392
68.0464
69.9885
71.8651
73.6756
75.4203
77.0996
78.714
80.2645
81.7522
83.1783
84.5443
85.8516
87.1019
88.2969
89.4383
90.5275
91.5678
483.921
543.916
596.781
649.816
702.717
748.481
781.447
800.635
808.872
810.209
807.476
800.92
788.575
767.5
735.137
691.822
640.91
587.105
534.884
487.332
445.958
411.133
382.567
359.622
341.486
327.289
316.076
306.929
298.96
291.28
282.973
273.057
260.443
243.896
222.039
193.564
158.029
117.532
77.8708
46.1134
25.7062
15.0794
10.5063
8.93342
8.70817
9.09092
9.74365
10.4948
11.266
12.042
12.8391
13.6777
14.5655
15.4937
16.4403
17.3759
18.2689
19.0897
19.8132
20.4203
20.8983
21.2406
21.4461
21.5184
21.4649
21.2956
21.0225
20.6586
20.2173
19.7114
19.1525
18.5516
17.9199
17.2674
16.6036
15.9363
15.2726
14.618
13.9771
13.3534
12.7495
12.1674
11.6083
11.0727
10.5611
10.0733
9.60893
9.1674
8.74803
8.35001
7.9725
7.61461
7.27549
6.95419
6.6501
6.36186
6.0902
5.82913
5.60089
5.26975
99.5154
102.801
108.558
117.088
129.256
145.782
167.098
193.625
226.158
266.065
315.013
373.917
439.98
503.729
553.173
579.265
580.923
563.741
535.106
501.184
466.345
433.409
403.935
378.504
357.039
339.055
323.799
310.463
298.172
285.995
272.935
257.924
239.817
217.434
189.744
156.405
118.893
81.5154
50.1778
28.6505
16.494
10.7354
8.4262
7.73809
7.79698
8.22516
8.83974
9.53023
10.2344
10.9358
11.6496
12.3993
13.1997
14.05
14.9347
15.8289
16.703
17.5279
18.2771
18.9293
19.4688
19.8859
20.1762
20.3401
20.3823
20.3102
20.1336
19.8638
19.5128
19.0923
18.6132
18.0862
17.5221
16.931
16.3223
15.7044
15.0845
14.4685
13.8615
13.2675
12.6895
12.1299
11.5903
11.0717
10.5747
10.0995
9.64618
9.2143
8.80343
8.413
8.04234
7.69074
7.3575
7.04183
6.7432
6.46034
6.1941
5.93848
5.71535
5.3925
21.6892
22.0043
22.3383
22.6952
23.1532
23.8512
25.0025
26.9444
30.2172
35.718
44.8006
59.7317
84.5891
124.256
180.705
249.285
317.935
372.789
405.857
417.615
413.741
400.672
383.267
364.531
346.08
328.526
311.985
296.197
280.617
264.498
246.965
227.077
203.922
176.804
145.648
111.711
78.2101
49.6194
29.169
16.9662
10.7847
8.0618
7.04458
6.82451
6.99623
7.38975
7.92013
8.52244
9.14595
9.76798
10.3953
11.0497
11.751
12.5066
13.3096
14.1418
14.978
15.7908
16.5537
17.2437
17.8424
18.3365
18.718
18.9837
19.1344
19.1745
19.111
18.9527
18.7098
18.3926
18.0107
17.5743
17.0934
16.578
16.0374
15.4803
14.9142
14.3455
13.7799
13.2218
12.6748
12.1419
11.6252
11.1262
10.6459
10.185
9.74381
9.32237
8.92051
8.53791
8.17415
7.82874
7.50115
7.19072
6.89709
6.61904
6.35753
6.1066
5.88776
5.57175
8.84307
8.91738
8.97804
9.01565
9.03098
9.0344
9.04501
9.09771
9.24884
9.56364
10.2644
11.5688
13.4332
17.2277
25.8889
43.4805
73.3958
115.413
164.133
211.023
248.539
273.067
285.051
287.269
282.815
273.954
262.344
248.801
233.526
216.351
196.922
174.86
149.978
122.59
93.9336
66.424
43.1185
26.198
15.7545
10.1896
7.55794
6.45383
6.0977
6.106
6.30539
6.62934
7.05126
7.54379
8.07189
8.60911
9.15082
9.71124
10.3104
10.9621
11.668
12.4182
13.1939
13.9716
14.7264
15.4351
16.0772
16.6368
17.1023
17.4667
17.7268
17.8834
17.9401
17.9029
17.7794
17.578
17.3071
16.9752
16.5914
16.1652
15.7057
15.2214
14.7201
14.2089
13.6936
13.1794
12.6706
12.1706
11.682
11.2071
10.7474
10.304
9.87773
9.46897
9.07793
8.70464
8.34895
8.0106
7.68928
7.38453
7.0961
6.82292
6.56602
6.31953
6.10461
5.79463
5.58403
5.59786
5.60758
5.61067
5.60571
5.59334
5.57624
5.5604
5.55497
5.56688
5.63346
5.76789
5.86949
5.83426
5.75898
6.34024
8.93907
15.4915
28.033
47.3763
72.0197
98.5716
123.207
143.001
156.561
163.534
164.337
159.88
151.097
138.722
123.309
105.412
85.8187
65.7781
47.0249
31.3885
20.0136
12.8251
8.80874
6.7698
5.82972
5.47491
5.42616
5.53294
5.72237
5.97221
6.28434
6.6582
7.07834
7.52254
7.97788
8.44805
8.94809
9.49389
10.094
10.7468
11.4409
12.1588
12.8791
13.58
14.2408
14.8438
15.3745
15.8227
16.1816
16.448
16.6221
16.7063
16.7056
16.6263
16.4745
16.2569
15.9811
15.6554
15.2885
14.8885
14.4634
14.0201
13.5652
13.1042
12.6419
12.1823
11.7289
11.2843
10.8506
10.4295
10.0223
9.62988
9.25282
8.89152
8.54616
8.21677
7.9033
7.60549
7.32327
7.05572
6.80393
6.56227
6.35137
6.04737
4.25035
4.25277
4.25297
4.25034
4.24442
4.23529
4.22367
4.21118
4.20026
4.19339
4.19755
4.21711
4.2462
4.25747
4.17984
3.93288
3.55828
3.43073
4.14913
6.3131
10.5085
17.037
25.5706
35.076
44.229
52.2446
58.0824
60.9676
60.5796
57.0481
50.8732
42.8494
33.9984
25.4466
18.1822
12.7565
9.15545
6.98185
5.76622
5.14715
4.89035
4.84879
4.92761
5.06624
5.23255
5.41992
5.63895
5.9025
6.21228
6.55716
6.9235
7.30652
7.71327
8.15713
8.64995
9.19669
9.79381
10.4304
11.0903
11.7548
12.4049
13.0224
13.5917
14.0997
14.5368
14.8965
15.1752
15.3722
15.4893
15.5305
15.4994
15.4001
15.2384
15.021
14.7556
14.4496
14.1104
13.7453
13.3606
12.9623
12.5557
12.1453
11.7349
11.3279
10.9269
10.5343
10.1516
9.78035
9.42159
9.07609
8.7444
8.42688
8.12375
7.835
7.56077
7.30034
7.05486
6.81902
6.61285
6.31553
3.5684
3.56679
3.56385
3.55939
3.55326
3.5455
3.53641
3.52669
3.51734
3.50963
3.50561
3.50694
3.51485
3.52967
3.54464
3.53181
3.43434
3.22554
2.97653
2.84539
3.04301
3.74681
5.04011
6.88665
9.12006
11.3844
13.4033
14.8926
15.6113
15.4388
14.4259
12.7932
10.8706
8.99217
7.39377
6.17276
5.31989
4.77641
4.47302
4.34617
4.34242
4.41824
4.5386
4.67706
4.81793
4.95864
5.10878
5.28358
5.49425
5.74157
6.01798
6.31614
6.63602
6.98555
7.3759
7.8158
8.30795
8.8482
9.42653
10.0289
10.639
11.2404
11.8171
12.3553
12.8432
13.2715
13.6339
13.9264
14.148
14.3004
14.3839
14.4003
14.3529
14.2467
14.0875
13.8818
13.6362
13.3575
13.0518
12.7253
12.3832
12.0306
11.6717
11.3102
10.9494
10.592
10.2403
9.89607
9.5609
9.23597
8.92222
8.62036
8.33092
8.05417
7.79047
7.53937
7.30205
7.07368
6.8735
6.58434
3.18761
3.18256
3.1768
3.17021
3.16275
3.15443
3.14541
3.13603
3.1268
3.11843
3.11182
3.10787
3.10746
3.11158
3.12124
3.13564
3.14486
3.12697
3.06127
2.95244
2.84932
2.8255
2.94226
3.24455
3.71499
4.2391
4.74421
5.16777
5.45628
5.57583
5.52258
5.32502
5.03528
4.71314
4.41081
4.16413
3.9912
3.89578
3.87178
3.90726
3.98746
4.09686
4.22052
4.34544
4.46283
4.5706
4.67455
4.78658
4.91963
5.08177
5.27348
5.49051
5.72993
5.99432
6.29139
6.63034
7.0177
7.45498
7.93813
8.45842
9.00381
9.56049
10.1141
10.651
11.1586
11.6263
12.0453
12.4092
12.7148
12.9612
13.1461
13.2684
13.3291
13.3309
13.2776
13.1742
13.026
12.839
12.6188
12.3711
12.1014
11.8144
11.5149
11.2068
10.8938
10.5789
10.265
9.95421
9.64858
9.34968
9.05887
8.77718
8.5055
8.2444
7.99446
7.75554
7.52887
7.31018
7.11781
6.83901
2.97
2.96154
2.95274
2.94356
2.93395
2.92392
2.91355
2.90301
2.8926
2.88273
2.8739
2.86667
2.86165
2.85945
2.8607
2.86618
2.87601
2.88722
2.89229
2.8822
2.85497
2.82219
2.80572
2.83369
2.91422
3.03175
3.16682
3.29951
3.41247
3.49335
3.53677
3.54504
3.52714
3.4962
3.4664
3.4501
3.45603
3.48845
3.54738
3.6294
3.72876
3.83838
3.95063
4.05819
4.15543
4.24015
4.31488
4.38698
4.46668
4.56371
4.68386
4.82801
4.99459
5.18354
5.39876
5.64741
5.93711
6.273
6.65606
7.08277
7.54581
8.03508
8.53895
9.04518
9.54184
10.0179
10.4635
10.8707
11.2342
11.5515
11.8179
12.0299
12.1859
12.2862
12.3326
12.3282
12.2767
12.1826
12.051
11.8866
11.6945
11.4795
11.246
10.9983
10.74
10.4746
10.2052
9.93441
9.66449
9.39746
9.13499
8.87851
8.62918
8.3879
8.15551
7.93218
7.7192
7.51295
7.3307
7.06514
2.84762
2.83606
2.82438
2.81257
2.80058
2.78841
2.77612
2.76379
2.75159
2.73978
2.72868
2.71865
2.71014
2.70358
2.6994
2.69802
2.69991
2.70523
2.7131
2.72105
2.72593
2.72625
2.72415
2.72648
2.7393
2.76483
2.80148
2.84525
2.89123
2.93509
2.9741
3.00772
3.03762
3.06716
3.10057
3.14196
3.19445
3.2596
3.33715
3.4252
3.52053
3.61901
3.71598
3.80674
3.88733
3.95557
4.01202
4.06046
4.10746
4.16093
4.22795
4.31294
4.41736
4.54154
4.68718
4.85876
5.06279
5.30578
5.59203
5.9224
6.29412
6.70124
7.13549
7.58716
8.04593
8.50155
8.94417
9.36502
9.758
10.1192
10.4424
10.7222
10.9548
11.1384
11.2724
11.358
11.3971
11.3926
11.3483
11.268
11.1559
11.0163
10.8534
10.6711
10.4733
10.2634
10.0446
9.81976
9.5915
9.36207
9.13345
8.90735
8.68523
8.4683
8.25762
8.0537
7.85787
7.66724
7.49784
7.249
2.78175
2.76767
2.7536
2.7395
2.72536
2.71117
2.69695
2.68276
2.66872
2.65498
2.64175
2.6293
2.61795
2.60803
2.59989
2.59385
2.59021
2.58923
2.59105
2.59539
2.60146
2.60821
2.61494
2.62227
2.63158
2.6442
2.66094
2.68191
2.70664
2.73447
2.76487
2.79782
2.83385
2.87407
2.91983
2.97243
3.03275
3.10097
3.17643
3.25756
3.34207
3.42709
3.50934
3.58547
3.65254
3.70857
3.75317
3.78796
3.81655
3.84419
3.87673
3.91935
3.97562
4.04745
4.13635
4.245
4.378
4.54131
4.74063
4.97979
5.25981
5.57869
5.93179
6.31246
6.71276
7.12407
7.53752
7.94458
8.33884
8.71595
9.06892
9.39121
9.67754
9.92408
10.1285
10.2898
10.4081
10.4848
10.5218
10.5219
10.4883
10.4242
10.3334
10.2193
10.0854
9.93515
9.77165
9.59782
9.41637
9.22972
9.04007
8.84934
8.65924
8.47121
8.28654
8.10605
7.9311
7.75954
7.60602
7.37788
2.74846
2.7326
2.71677
2.70095
2.68513
2.66932
2.65352
2.63777
2.62214
2.60676
2.59177
2.57737
2.56379
2.55129
2.54017
2.5307
2.52313
2.5177
2.5146
2.51392
2.51559
2.51938
2.525
2.53236
2.54155
2.55282
2.56651
2.58296
2.60246
2.62525
2.65161
2.68191
2.71665
2.75637
2.80162
2.85278
2.90993
2.97277
3.04048
3.1117
3.18464
3.25708
3.32653
3.39047
3.4466
3.49322
3.52962
3.55626
3.57495
3.58871
3.60148
3.61755
3.64078
3.67412
3.71969
3.77961
3.85696
3.95626
4.08292
4.24209
4.43737
4.67003
4.93886
5.24039
5.56943
5.91958
6.28361
6.65404
7.02476
7.39158
7.74778
8.08643
8.40137
8.68757
8.94116
9.15951
9.3411
9.48553
9.59327
9.6656
9.70441
9.71205
9.6912
9.64474
9.57562
9.48683
9.38125
9.2617
9.13079
8.99099
8.84455
8.69354
8.53978
8.38492
8.2304
8.07728
7.92698
7.77805
7.64361
7.44046
2.73285
2.71587
2.69891
2.68196
2.66501
2.64807
2.63115
2.61427
2.59749
2.58089
2.56459
2.54875
2.53353
2.51916
2.50586
2.49388
2.48345
2.4748
2.4681
2.46352
2.46114
2.46102
2.46317
2.46759
2.47429
2.48333
2.49485
2.50902
2.52608
2.54632
2.5701
2.59779
2.62979
2.66647
2.70804
2.75458
2.80591
2.86155
2.92071
2.98222
3.04462
3.10614
3.16483
3.21871
3.26592
3.30506
3.33532
3.35668
3.36993
3.37669
3.37934
3.38077
3.38412
3.39228
3.40772
3.43254
3.46903
3.52033
3.59066
3.68496
3.80792
3.96304
4.15192
4.37404
4.62701
4.90689
5.20851
5.52594
5.85388
6.18872
6.52473
6.85534
7.17432
7.47606
7.75584
8.00985
8.23527
8.43024
8.59381
8.72585
8.82695
8.89826
8.94142
8.95841
8.95146
8.92294
8.8753
8.81098
8.73237
8.64179
8.54142
8.4333
8.31931
8.20116
8.08037
7.95821
7.83608
7.71321
7.60095
7.42721
2.72608
2.70848
2.69087
2.67326
2.65565
2.63803
2.62041
2.60282
2.5853
2.56792
2.55076
2.53395
2.51763
2.50197
2.48716
2.47342
2.46094
2.44994
2.44061
2.43311
2.42759
2.42419
2.42301
2.42414
2.42767
2.43369
2.4423
2.45364
2.46789
2.48527
2.50607
2.53058
2.55906
2.59173
2.62868
2.6698
2.71483
2.76325
2.81432
2.86706
2.92024
2.97245
3.02211
3.06761
3.10746
3.14047
3.16586
3.18339
3.19337
3.19663
3.19452
3.18883
3.1817
3.1754
3.17214
3.17394
3.18273
3.20069
3.23075
3.27673
3.34305
3.43405
3.55316
3.70225
3.8815
4.0894
4.32303
4.57829
4.85102
5.13837
5.43605
5.73843
6.03981
6.33474
6.61822
6.88591
7.13416
7.3601
7.56165
7.73749
7.88698
8.01012
8.10746
8.17999
8.22905
8.25628
8.26347
8.25255
8.22549
8.1843
8.13092
8.06723
7.99501
7.91594
7.83153
7.74315
7.65211
7.55826
7.47098
7.33085
2.72331
2.7054
2.68748
2.66953
2.65157
2.63359
2.6156
2.59762
2.57969
2.56186
2.5442
2.52681
2.50979
2.49331
2.47751
2.46257
2.44867
2.43601
2.42475
2.41508
2.40715
2.40114
2.39718
2.39541
2.39594
2.39891
2.40444
2.41265
2.42371
2.4378
2.45513
2.47592
2.50035
2.52854
2.56048
2.59602
2.63483
2.67642
2.72011
2.76504
2.81021
2.85443
2.89642
2.93487
2.96854
2.9964
3.01773
3.03223
3.03994
3.0413
3.03708
3.02833
3.01641
3.00288
2.98944
2.97775
2.96943
2.96614
2.96981
2.983
3.00903
3.05181
3.11527
3.20276
3.31643
3.45699
3.6237
3.81442
4.02641
4.25759
4.50521
4.76495
5.03205
5.30171
5.56926
5.83035
6.08109
6.31807
6.53853
6.74027
6.92172
7.0819
7.22036
7.33714
7.43266
7.50774
7.56342
7.601
7.6219
7.62764
7.6198
7.59995
7.56966
7.53043
7.48365
7.43066
7.37266
7.31001
7.24983
7.14695
2.72218
2.70414
2.68608
2.66798
2.64986
2.63172
2.61356
2.5954
2.57727
2.55922
2.54129
2.52358
2.50617
2.48918
2.47274
2.45701
2.44214
2.4283
2.41565
2.40436
2.3946
2.38653
2.3803
2.37607
2.37398
2.37417
2.37677
2.38192
2.38977
2.40046
2.41417
2.43107
2.45127
2.47485
2.50177
2.53184
2.56474
2.60001
2.63703
2.67506
2.71321
2.75053
2.78595
2.81837
2.84675
2.87019
2.88805
2.89998
2.9059
2.90604
2.90084
2.89096
2.87724
2.8607
2.8425
2.82388
2.80613
2.79052
2.7784
2.77139
2.77159
2.78179
2.80531
2.84569
2.90611
2.9889
3.09521
3.22486
3.37664
3.54937
3.7417
3.95071
4.17282
4.40416
4.64076
4.87874
5.11437
5.34424
5.56531
5.77499
5.97111
6.15199
6.31644
6.46367
6.59333
6.70543
6.80027
6.87845
6.94077
6.98819
7.0218
7.04278
7.05232
7.05166
7.04195
7.02442
7.00001
6.96952
6.93759
6.87451
2.72168
2.70358
2.68546
2.6673
2.64912
2.63091
2.61269
2.59446
2.57626
2.55811
2.54007
2.52219
2.50456
2.48727
2.47043
2.45418
2.43863
2.42395
2.41028
2.39778
2.3866
2.3769
2.36883
2.36254
2.3582
2.35593
2.35589
2.35821
2.36302
2.37046
2.38067
2.39377
2.40986
2.42899
2.4511
2.47602
2.50345
2.53296
2.564
2.5959
2.62793
2.65924
2.68896
2.71616
2.73994
2.75955
2.77436
2.78402
2.7884
2.78759
2.78186
2.77164
2.75748
2.74005
2.72012
2.69856
2.67632
2.65435
2.63366
2.6153
2.60056
2.59111
2.58918
2.59751
2.61914
2.65703
2.71356
2.79015
2.88719
3.00455
3.14201
3.29809
3.47045
3.65626
3.85245
4.0558
4.26311
4.47131
4.67748
4.87899
5.0735
5.25898
5.43377
5.59657
5.74641
5.88267
6.00501
6.11338
6.20797
6.28917
6.35755
6.41378
6.45865
6.49302
6.51772
6.53375
6.54176
6.54284
6.53897
6.51669
2.72138
2.70327
2.68512
2.66695
2.64875
2.63052
2.61229
2.59405
2.57582
2.55764
2.53955
2.52159
2.50384
2.48637
2.46927
2.45266
2.43664
2.42134
2.40691
2.39347
2.38117
2.37015
2.36057
2.35257
2.3463
2.34191
2.33953
2.3393
2.34135
2.34579
2.35274
2.36232
2.37458
2.38957
2.40723
2.42742
2.44987
2.4742
2.4999
2.5264
2.55304
2.5791
2.60384
2.62647
2.64623
2.66244
2.67454
2.68217
2.68515
2.6835
2.67738
2.6671
2.65303
2.63563
2.61544
2.59306
2.56916
2.54445
2.51967
2.49557
2.47299
2.4529
2.43657
2.42571
2.42249
2.42944
2.44918
2.48399
2.53547
2.60461
2.69213
2.79795
2.92095
3.05938
3.2111
3.37369
3.54459
3.72126
3.90117
4.08193
4.26131
4.43729
4.60807
4.77208
4.92805
5.07493
5.21194
5.33853
5.45438
5.55938
5.65358
5.73719
5.81057
5.87414
5.9284
5.974
6.01126
6.0415
6.06387
6.08131
2.72117
2.70304
2.68489
2.66671
2.64851
2.63029
2.61205
2.59382
2.5756
2.55742
2.53931
2.52132
2.50349
2.4859
2.46862
2.45175
2.43537
2.41961
2.40458
2.3904
2.3772
2.36511
2.35428
2.34484
2.33693
2.3307
2.32627
2.32379
2.32336
2.32511
2.32912
2.33549
2.34428
2.35551
2.36915
2.38508
2.40305
2.42274
2.44371
2.46542
2.48732
2.50877
2.52914
2.54774
2.56393
2.57711
2.58677
2.59254
2.59423
2.59179
2.58532
2.57503
2.56119
2.54416
2.52432
2.50211
2.478
2.45253
2.42622
2.39966
2.37341
2.34812
2.3245
2.30349
2.28636
2.27476
2.27068
2.27633
2.29376
2.32471
2.37063
2.43257
2.5106
2.60412
2.71191
2.83239
2.9637
3.10387
3.25087
3.4027
3.55744
3.71326
3.86848
4.02155
4.17111
4.31597
4.45511
4.5877
4.71308
4.83077
4.94044
5.0419
5.1351
5.22011
5.29702
5.3662
5.42756
5.48258
5.52764
5.58128
2.72098
2.70285
2.6847
2.66652
2.64832
2.63011
2.61188
2.59366
2.57545
2.55728
2.53917
2.52115
2.50328
2.48561
2.4682
2.45112
2.43447
2.41833
2.40282
2.38804
2.3741
2.36113
2.34925
2.33859
2.32928
2.32146
2.31525
2.31079
2.30818
2.30753
2.30892
2.31243
2.31812
2.32599
2.33604
2.34815
2.36214
2.3777
2.39445
2.41194
2.42965
2.44704
2.46354
2.47858
2.49159
2.50204
2.50948
2.51355
2.51403
2.51084
2.50401
2.49368
2.48008
2.46348
2.44419
2.42253
2.39886
2.37358
2.34709
2.31983
2.29224
2.26475
2.23785
2.21207
2.18808
2.16678
2.14938
2.13739
2.13256
2.13665
2.15141
2.17849
2.21896
2.27325
2.34115
2.42194
2.51449
2.61745
2.72928
2.84844
2.97334
3.10247
3.23439
3.36774
3.50125
3.63378
3.7643
3.89189
4.01575
4.13522
4.24973
4.35884
4.46221
4.5596
4.65083
4.73595
4.81456
4.8882
4.95074
5.03451
2.72082
2.70269
2.68453
2.66635
2.64816
2.62995
2.61174
2.59353
2.57533
2.55716
2.53905
2.52102
2.50312
2.48538
2.46786
2.45062
2.43375
2.41731
2.4014
2.38612
2.37157
2.35785
2.34508
2.33338
2.32287
2.31368
2.30593
2.29973
2.29521
2.29244
2.29151
2.29249
2.29542
2.30033
2.30719
2.31592
2.32636
2.33826
2.35129
2.36503
2.37904
2.39283
2.4059
2.41777
2.42793
2.43592
2.44134
2.44383
2.44317
2.43924
2.43204
2.42165
2.40825
2.39205
2.3733
2.35229
2.32929
2.30461
2.27857
2.2515
2.22374
2.19565
2.16756
2.13984
2.11288
2.08714
2.06327
2.04211
2.02474
2.01249
2.00682
2.00931
2.02151
2.04457
2.07916
2.12543
2.18303
2.25126
2.32915
2.41557
2.50932
2.60921
2.71406
2.82273
2.93416
3.04737
3.16144
3.27551
3.38882
3.50067
3.61044
3.71759
3.82162
3.92215
4.0188
4.11139
4.1993
4.28415
4.35768
4.46319
2.72067
2.70253
2.68438
2.6662
2.64801
2.62981
2.61161
2.5934
2.57521
2.55705
2.53894
2.5209
2.50296
2.48517
2.46756
2.45019
2.43313
2.41644
2.4002
2.38449
2.36942
2.35507
2.34155
2.32896
2.31742
2.30705
2.29795
2.29024
2.28403
2.2794
2.27643
2.27518
2.27569
2.27797
2.28202
2.28776
2.29506
2.30372
2.31344
2.32387
2.3346
2.3452
2.35523
2.36427
2.37187
2.37763
2.38118
2.3822
2.38046
2.37582
2.36823
2.35775
2.34449
2.32864
2.3104
2.29
2.2677
2.24374
2.21839
2.1919
2.16457
2.13665
2.10844
2.0802
2.0522
2.02473
1.99814
1.97284
1.94942
1.92864
1.91143
1.89895
1.89252
1.89347
1.90294
1.92175
1.95029
1.98855
2.03615
2.09246
2.15669
2.22794
2.30529
2.38785
2.47475
2.56517
2.65836
2.7536
2.85025
2.94768
3.04535
3.14272
3.2393
3.33468
3.42839
3.5202
3.60934
3.69749
3.77498
3.89224
2.72053
2.70239
2.68423
2.66606
2.64787
2.62967
2.61148
2.59328
2.5751
2.55694
2.53882
2.52077
2.5028
2.48496
2.46727
2.44979
2.43257
2.41566
2.39914
2.38308
2.36756
2.35267
2.33851
2.32516
2.31273
2.30133
2.29107
2.28204
2.27436
2.26809
2.26333
2.26011
2.25847
2.25845
2.26001
2.26312
2.26766
2.27345
2.28024
2.28773
2.29555
2.30332
2.31065
2.31716
2.32246
2.32619
2.32803
2.32768
2.32492
2.31958
2.3116
2.30098
2.28783
2.27226
2.25446
2.23463
2.21299
2.18975
2.16513
2.13937
2.11268
2.08531
2.05747
2.0294
2.00131
1.9734
1.9459
1.91904
1.89311
1.8685
1.84573
1.82544
1.80847
1.79587
1.78871
1.78804
1.7947
1.80923
1.83185
1.86247
1.90073
1.94611
1.99797
2.05562
2.11838
2.1856
2.25664
2.33094
2.40797
2.48724
2.5683
2.65071
2.73407
2.81801
2.90213
2.98618
3.06942
3.15356
3.22831
3.34693
2.7204
2.70226
2.6841
2.66592
2.64774
2.62954
2.61135
2.59315
2.57497
2.55681
2.53869
2.52062
2.50263
2.48474
2.46698
2.4494
2.43204
2.41495
2.39819
2.38182
2.36593
2.35058
2.33585
2.32185
2.30866
2.29637
2.28509
2.27492
2.26595
2.25825
2.25191
2.24696
2.24344
2.24138
2.24076
2.24155
2.24364
2.2469
2.2511
2.25598
2.26123
2.26648
2.27141
2.27565
2.27888
2.28077
2.28104
2.27941
2.27567
2.26965
2.26127
2.25051
2.23741
2.22208
2.20467
2.18535
2.16431
2.14174
2.11784
2.09281
2.06685
2.04015
2.01291
1.98533
1.95757
1.92983
1.90225
1.87501
1.84828
1.82225
1.79718
1.77341
1.75136
1.73165
1.71502
1.70234