/*--------------------------------*- C++ -*----------------------------------*\
| =========                 |                                                 |
| \\      /  F ield         | OpenFOAM: The Open Source CFD Toolbox           |
|  \\    /   O peration     | Version:  4.1                                   |
|   \\  /    A nd           | Web:      www.OpenFOAM.org                      |
|    \\/     M anipulation  |                                                 |
\*---------------------------------------------------------------------------*/
FoamFile
{
    version     2.0;
    format      ascii;
    class       volScalarField;
    location    "100";
    object      k;
}
// * * * * * * * * * * * * * * * * * * * * * * * * * * * * * * * * * * * * * //

dimensions      [0 2 -2 0 0 0 0];

internalField   nonuniform List<scalar> 
6820
(
0.226697
0.279347
0.331744
0.382734
0.430931
0.475129
0.514427
0.548302
0.576607
0.599505
0.617384
0.630769
0.640248
0.646424
0.649871
0.651112
0.650609
0.648759
0.645897
0.642296
0.638183
0.633736
0.629099
0.624384
0.619677
0.615046
0.61054
0.606204
0.602031
0.598222
0.593897
0.593499
0.575399
0.207938
0.21662
0.219547
0.220393
0.221054
0.222074
0.223468
0.225131
0.226949
0.22883
0.230711
0.23256
0.234364
0.236128
0.237862
0.239583
0.241306
0.243048
0.24482
0.246633
0.248492
0.2504
0.252358
0.254363
0.256409
0.258489
0.260594
0.262713
0.264827
0.266946
0.268969
0.271208
0.272759
0.201064
0.204896
0.206826
0.206613
0.205169
0.203178
0.200969
0.198677
0.196349
0.194009
0.191672
0.189352
0.187066
0.184831
0.182665
0.180582
0.178595
0.176716
0.174953
0.173311
0.171793
0.170402
0.169137
0.167996
0.166975
0.166071
0.165278
0.164591
0.164002
0.163504
0.163086
0.162743
0.162445
0.199585
0.199595
0.199834
0.199709
0.199081
0.198053
0.196754
0.195281
0.193696
0.192038
0.190331
0.188593
0.186837
0.185073
0.183312
0.181562
0.179831
0.178126
0.176453
0.174817
0.173222
0.171673
0.170172
0.168722
0.167324
0.16598
0.16469
0.163456
0.162275
0.16115
0.160079
0.159062
0.158096
0.199411
0.198486
0.19779
0.197167
0.196484
0.195676
0.194737
0.193687
0.19255
0.191348
0.1901
0.188817
0.187512
0.186193
0.184867
0.18354
0.182216
0.1809
0.179596
0.178308
0.177037
0.175788
0.174561
0.173359
0.172183
0.171035
0.169917
0.168827
0.167769
0.166742
0.165748
0.164787
0.163859
0.199395
0.198258
0.197235
0.196308
0.195431
0.194563
0.193676
0.192755
0.1918
0.190813
0.1898
0.188766
0.187717
0.186659
0.185595
0.184529
0.183465
0.182405
0.181352
0.180309
0.179276
0.178257
0.177252
0.176262
0.17529
0.174335
0.173399
0.172483
0.171587
0.170712
0.169859
0.169029
0.168222
0.199395
0.198217
0.197099
0.196044
0.195047
0.194092
0.193165
0.192252
0.191344
0.190436
0.189526
0.188613
0.187698
0.186783
0.185869
0.184958
0.184051
0.183149
0.182255
0.18137
0.180494
0.179629
0.178775
0.177933
0.177105
0.176291
0.175491
0.174706
0.173937
0.173183
0.172446
0.171727
0.171025
0.199395
0.198211
0.19707
0.195974
0.194924
0.193917
0.192948
0.19201
0.191097
0.190204
0.189327
0.188463
0.187609
0.186765
0.185931
0.185105
0.184289
0.183482
0.182686
0.181899
0.181123
0.180358
0.179604
0.178862
0.178132
0.177415
0.17671
0.176018
0.17534
0.174675
0.174024
0.173387
0.172765
0.199395
0.19821
0.197064
0.195957
0.194889
0.19386
0.192867
0.191909
0.190982
0.190083
0.189208
0.188356
0.187524
0.186709
0.185911
0.185128
0.18436
0.183605
0.182864
0.182136
0.18142
0.180718
0.180027
0.179349
0.178684
0.178031
0.177391
0.176763
0.176147
0.175545
0.174954
0.174376
0.173811
0.199395
0.19821
0.197062
0.195953
0.19488
0.193843
0.19284
0.191872
0.190934
0.190027
0.189148
0.188295
0.187467
0.18666
0.185875
0.18511
0.184363
0.183633
0.18292
0.182223
0.181541
0.180874
0.180221
0.179582
0.178957
0.178344
0.177745
0.177159
0.176585
0.176023
0.175474
0.174936
0.174411
0.199395
0.198209
0.197062
0.195951
0.194877
0.193838
0.192832
0.191859
0.190917
0.190005
0.189121
0.188265
0.187435
0.186629
0.185847
0.185087
0.184347
0.183627
0.182927
0.182244
0.181578
0.180929
0.180296
0.179678
0.179075
0.178486
0.177911
0.177349
0.176801
0.176265
0.175741
0.17523
0.17473
0.199395
0.198209
0.197061
0.195951
0.194876
0.193836
0.192829
0.191854
0.19091
0.189996
0.18911
0.188251
0.187419
0.186612
0.185829
0.18507
0.184332
0.183615
0.182918
0.182241
0.181582
0.18094
0.180316
0.179708
0.179116
0.178539
0.177977
0.177429
0.176894
0.176373
0.175864
0.175368
0.174884
0.199395
0.198209
0.197061
0.19595
0.194875
0.193834
0.192827
0.191852
0.190907
0.189992
0.189105
0.188245
0.187412
0.186604
0.18582
0.185059
0.184321
0.183604
0.182908
0.182232
0.181575
0.180937
0.180316
0.179712
0.179124
0.178553
0.177996
0.177454
0.176926
0.176412
0.175911
0.175423
0.174946
0.199395
0.198209
0.197061
0.19595
0.194874
0.193834
0.192826
0.19185
0.190905
0.189989
0.189102
0.188241
0.187407
0.186598
0.185814
0.185053
0.184314
0.183597
0.182901
0.182225
0.181568
0.18093
0.18031
0.179707
0.179121
0.178551
0.177996
0.177457
0.176932
0.176421
0.175923
0.175438
0.174965
0.199395
0.198209
0.19706
0.195949
0.194874
0.193833
0.192825
0.191849
0.190903
0.189987
0.189099
0.188239
0.187404
0.186595
0.18581
0.185048
0.184309
0.183591
0.182895
0.182218
0.181561
0.180923
0.180303
0.1797
0.179114
0.178544
0.17799
0.177452
0.176927
0.176417
0.17592
0.175437
0.174965
0.199395
0.198209
0.19706
0.195949
0.194873
0.193832
0.192824
0.191848
0.190902
0.189986
0.189098
0.188237
0.187402
0.186592
0.185807
0.185045
0.184305
0.183587
0.18289
0.182213
0.181556
0.180917
0.180297
0.179694
0.179107
0.178538
0.177983
0.177444
0.17692
0.17641
0.175913
0.17543
0.174959
0.199395
0.198209
0.19706
0.195949
0.194873
0.193832
0.192823
0.191847
0.190901
0.189984
0.189096
0.188235
0.1874
0.18659
0.185804
0.185041
0.184302
0.183583
0.182886
0.182209
0.181551
0.180912
0.180291
0.179688
0.179101
0.178531
0.177977
0.177437
0.176913
0.176402
0.175905
0.175422
0.174951
0.199395
0.198208
0.19706
0.195948
0.194873
0.193831
0.192823
0.191846
0.1909
0.189983
0.189094
0.188233
0.187398
0.186587
0.185801
0.185039
0.184298
0.18358
0.182882
0.182205
0.181547
0.180907
0.180286
0.179682
0.179096
0.178525
0.17797
0.177431
0.176906
0.176395
0.175898
0.175414
0.174943
0.199395
0.198208
0.19706
0.195948
0.194872
0.193831
0.192822
0.191845
0.190899
0.189982
0.189093
0.188231
0.187396
0.186585
0.185799
0.185036
0.184296
0.183577
0.182879
0.182201
0.181543
0.180903
0.180282
0.179678
0.17909
0.17852
0.177964
0.177425
0.176899
0.176388
0.175891
0.175407
0.174935
0.199395
0.198208
0.19706
0.195948
0.194872
0.19383
0.192822
0.191845
0.190898
0.189981
0.189092
0.18823
0.187394
0.186583
0.185797
0.185034
0.184293
0.183574
0.182876
0.182198
0.181539
0.180899
0.180277
0.179673
0.179086
0.178514
0.177959
0.177419
0.176893
0.176382
0.175885
0.1754
0.174929
0.199395
0.198208
0.19706
0.195948
0.194872
0.19383
0.192821
0.191844
0.190897
0.18998
0.189091
0.188229
0.187393
0.186582
0.185795
0.185032
0.184291
0.183571
0.182873
0.182195
0.181536
0.180896
0.180273
0.179669
0.179081
0.17851
0.177954
0.177414
0.176888
0.176376
0.175879
0.175394
0.174923
0.199395
0.198208
0.197059
0.195948
0.194872
0.19383
0.192821
0.191843
0.190897
0.189979
0.18909
0.188227
0.187391
0.18658
0.185793
0.18503
0.184288
0.183569
0.18287
0.182192
0.181533
0.180892
0.18027
0.179665
0.179077
0.178505
0.17795
0.177409
0.176883
0.176371
0.175873
0.175389
0.174917
0.199395
0.198208
0.197059
0.195948
0.194871
0.193829
0.19282
0.191843
0.190896
0.189978
0.189089
0.188226
0.18739
0.186579
0.185792
0.185028
0.184287
0.183567
0.182868
0.182189
0.18153
0.180889
0.180267
0.179661
0.179073
0.178501
0.177945
0.177404
0.176878
0.176366
0.175868
0.175384
0.174912
0.199395
0.198208
0.197059
0.195947
0.194871
0.193829
0.19282
0.191843
0.190896
0.189978
0.189088
0.188226
0.187389
0.186578
0.18579
0.185026
0.184285
0.183565
0.182866
0.182187
0.181527
0.180886
0.180264
0.179658
0.17907
0.178498
0.177941
0.1774
0.176874
0.176362
0.175864
0.175379
0.174907
0.199395
0.198208
0.197059
0.195947
0.194871
0.193829
0.19282
0.191842
0.190895
0.189977
0.189087
0.188225
0.187388
0.186577
0.185789
0.185025
0.184283
0.183563
0.182864
0.182185
0.181525
0.180884
0.180261
0.179655
0.179067
0.178494
0.177938
0.177397
0.17687
0.176358
0.17586
0.175375
0.174903
0.199395
0.198208
0.197059
0.195947
0.194871
0.193829
0.19282
0.191842
0.190895
0.189977
0.189087
0.188224
0.187387
0.186576
0.185788
0.185024
0.184282
0.183561
0.182862
0.182183
0.181523
0.180881
0.180258
0.179653
0.179064
0.178491
0.177935
0.177393
0.176867
0.176354
0.175856
0.175371
0.174899
0.199395
0.198208
0.197059
0.195947
0.194871
0.193829
0.192819
0.191842
0.190894
0.189976
0.189086
0.188224
0.187387
0.186575
0.185787
0.185023
0.184281
0.18356
0.18286
0.182181
0.181521
0.180879
0.180256
0.17965
0.179061
0.178489
0.177932
0.17739
0.176863
0.176351
0.175852
0.175367
0.174895
0.199395
0.198208
0.197059
0.195947
0.194871
0.193829
0.192819
0.191842
0.190894
0.189976
0.189086
0.188223
0.187386
0.186574
0.185786
0.185022
0.184279
0.183559
0.182859
0.182179
0.181519
0.180878
0.180254
0.179648
0.179059
0.178486
0.177929
0.177388
0.176861
0.176348
0.175849
0.175364
0.174891
0.199395
0.198208
0.197059
0.195947
0.194871
0.193829
0.192819
0.191841
0.190894
0.189976
0.189086
0.188223
0.187386
0.186574
0.185786
0.185021
0.184279
0.183558
0.182858
0.182178
0.181518
0.180876
0.180253
0.179646
0.179057
0.178484
0.177927
0.177385
0.176858
0.176345
0.175846
0.175361
0.174888
0.199395
0.198208
0.197059
0.195947
0.194871
0.193829
0.192819
0.191841
0.190894
0.189976
0.189085
0.188222
0.187385
0.186573
0.185785
0.18502
0.184278
0.183557
0.182857
0.182177
0.181517
0.180875
0.180251
0.179645
0.179056
0.178482
0.177925
0.177383
0.176856
0.176343
0.175844
0.175358
0.174886
0.199395
0.198208
0.197059
0.195947
0.194871
0.193829
0.192819
0.191841
0.190894
0.189976
0.189085
0.188222
0.187385
0.186573
0.185785
0.18502
0.184277
0.183556
0.182856
0.182176
0.181516
0.180874
0.18025
0.179644
0.179054
0.178481
0.177924
0.177381
0.176854
0.176341
0.175842
0.175356
0.174883
0.199395
0.198208
0.197059
0.195947
0.194871
0.193829
0.192819
0.191841
0.190894
0.189976
0.189085
0.188222
0.187385
0.186573
0.185785
0.18502
0.184277
0.183556
0.182856
0.182176
0.181516
0.180874
0.18025
0.179643
0.179054
0.17848
0.177923
0.177381
0.176853
0.17634
0.175841
0.175355
0.174881
0.199395
0.198208
0.197059
0.195947
0.194871
0.193829
0.192819
0.191841
0.190894
0.189976
0.189085
0.188222
0.187385
0.186573
0.185785
0.18502
0.184278
0.183557
0.182857
0.182177
0.181516
0.180874
0.18025
0.179644
0.179054
0.17848
0.177922
0.17738
0.176852
0.176338
0.175838
0.175352
0.174878
0.199395
0.198208
0.197059
0.195947
0.194871
0.193829
0.19282
0.191842
0.190896
0.189978
0.189088
0.188226
0.187389
0.186578
0.18579
0.185026
0.184283
0.183562
0.182862
0.182182
0.181521
0.180878
0.180253
0.179646
0.179055
0.17848
0.177921
0.177377
0.176847
0.176332
0.17583
0.175341
0.174865
0.199395
0.198208
0.197059
0.195948
0.194872
0.193832
0.192824
0.191848
0.190902
0.189986
0.189097
0.188236
0.1874
0.186588
0.185801
0.185036
0.184292
0.18357
0.182868
0.182185
0.181521
0.180875
0.180247
0.179635
0.17904
0.17846
0.177895
0.177346
0.17681
0.176288
0.175779
0.175283
0.1748
0.199395
0.198209
0.197062
0.195955
0.194886
0.193853
0.192854
0.191885
0.190945
0.190032
0.189146
0.188284
0.187446
0.18663
0.185837
0.185065
0.184313
0.18358
0.182867
0.182172
0.181495
0.180835
0.180192
0.179565
0.178954
0.178358
0.177776
0.177209
0.176656
0.176116
0.175589
0.175075
0.174573
0.199395
0.198223
0.197107
0.196032
0.194988
0.193971
0.192978
0.192008
0.191061
0.190136
0.189233
0.188352
0.187492
0.186652
0.185832
0.185033
0.184252
0.18349
0.182746
0.18202
0.181311
0.180619
0.179943
0.179283
0.178639
0.178009
0.177394
0.176794
0.176207
0.175633
0.175073
0.174525
0.17399
0.19941
0.198319
0.197296
0.1963
0.19531
0.194318
0.193328
0.192344
0.191372
0.190415
0.189477
0.188558
0.187661
0.186785
0.18593
0.185096
0.184283
0.18349
0.182716
0.18196
0.181223
0.180503
0.1798
0.179114
0.178444
0.177789
0.177149
0.176523
0.175912
0.175315
0.174731
0.174161
0.173604
0.199716
0.19914
0.19847
0.197765
0.197073
0.19642
0.195814
0.195253
0.194738
0.194265
0.193835
0.193446
0.193095
0.192781
0.192502
0.192256
0.19204
0.191854
0.191694
0.191559
0.191448
0.191358
0.191288
0.191237
0.191202
0.191184
0.191181
0.191192
0.191216
0.191252
0.191299
0.191358
0.191426
0.205424
0.216593
0.22763
0.238434
0.248976
0.259243
0.269229
0.278925
0.288325
0.297422
0.306214
0.314698
0.322873
0.330742
0.338306
0.345569
0.352536
0.359212
0.365604
0.371719
0.377564
0.383148
0.388477
0.393562
0.398409
0.403029
0.407428
0.411617
0.415603
0.419395
0.423001
0.426428
0.429687
0.656263
0.76414
0.894972
1.05457
1.23388
1.4135
1.57738
1.71956
1.84343
1.9571
2.0682
2.18009
2.29061
2.39235
2.4757
2.53428
2.56714
2.57869
2.57607
2.56625
2.55486
2.54595
2.54188
2.54328
2.54922
2.5574
2.56422
2.56533
2.55592
2.53093
2.4851
2.41302
2.309
2.16698
1.98054
1.74376
1.45518
1.12833
0.803988
0.540958
0.377956
0.309134
0.300958
0.322499
0.357386
0.398923
0.44354
0.488302
0.531059
0.570809
0.607416
0.641063
0.67187
0.699779
0.724587
0.746034
0.763882
0.777964
0.788211
0.794656
0.797428
0.796736
0.792849
0.786078
0.77676
0.765242
0.751865
0.736958
0.720826
0.703732
0.685887
0.667506
0.648815
0.630012
0.611263
0.592711
0.574469
0.556628
0.539257
0.522409
0.50612
0.490414
0.475304
0.460796
0.446888
0.433574
0.420845
0.408689
0.397093
0.386044
0.375528
0.365534
0.356051
0.347066
0.338577
0.330558
0.323043
0.315895
0.309589
0.301024
0.275954
0.284374
0.298732
0.321036
0.354462
0.401991
0.46585
0.547945
0.650889
0.778846
0.93725
1.13045
1.35417
1.58827
1.80651
1.98802
2.12576
2.2232
2.28721
2.32536
2.3456
2.35526
2.35991
2.36277
2.36493
2.36554
2.36211
2.35109
2.32812
2.28829
2.22633
2.13675
2.01389
1.85217
1.64683
1.39657
1.11055
0.817982
0.566026
0.393719
0.306482
0.281226
0.289685
0.3134
0.344423
0.380169
0.419055
0.458988
0.497921
0.53464
0.568813
0.600548
0.629977
0.657074
0.681645
0.70341
0.722084
0.737433
0.749315
0.757684
0.762596
0.764189
0.762672
0.758304
0.751375
0.742195
0.731077
0.718329
0.704239
0.689053
0.672975
0.656229
0.639041
0.62161
0.604111
0.58669
0.569469
0.552548
0.536004
0.5199
0.504278
0.489173
0.474605
0.460587
0.447125
0.434219
0.421867
0.410062
0.398798
0.388065
0.377857
0.368163
0.358979
0.350294
0.342109
0.334399
0.327201
0.320377
0.31438
0.306294
0.162093
0.161839
0.161816
0.162216
0.163419
0.165961
0.170607
0.178515
0.191513
0.212632
0.246656
0.301741
0.39197
0.534131
0.736618
0.987963
1.25445
1.49644
1.6893
1.82953
1.92626
1.99111
2.03349
2.06001
2.07488
2.07978
2.07454
2.05731
2.02489
1.97316
1.89742
1.7928
1.65467
1.47957
1.26728
1.02542
0.775737
0.553836
0.392744
0.302249
0.267777
0.26666
0.28162
0.303547
0.329225
0.358317
0.390689
0.42515
0.459883
0.493437
0.525159
0.554977
0.582993
0.609217
0.633501
0.655575
0.675131
0.69188
0.705606
0.716183
0.72358
0.727854
0.729139
0.727626
0.723549
0.71717
0.708763
0.698609
0.686973
0.674081
0.660134
0.645357
0.629972
0.614181
0.598163
0.582073
0.566044
0.550185
0.534587
0.519322
0.504446
0.490003
0.476023
0.46253
0.449538
0.437057
0.42509
0.413639
0.402703
0.39228
0.382366
0.372958
0.364053
0.355645
0.347738
0.340307
0.333392
0.326853
0.321123
0.313445
0.157042
0.155903
0.154789
0.153718
0.152728
0.151873
0.151228
0.150914
0.151128
0.152182
0.154818
0.159981
0.168877
0.187295
0.225868
0.299491
0.422739
0.598479
0.809719
1.02615
1.21948
1.37431
1.48864
1.56814
1.61978
1.6483
1.65668
1.64547
1.61345
1.55827
1.477
1.36686
1.22625
1.05663
0.865514
0.669838
0.495079
0.364928
0.287733
0.254448
0.249081
0.258453
0.274544
0.293319
0.313639
0.336144
0.361673
0.390023
0.41992
0.449875
0.478909
0.506661
0.533107
0.558263
0.58203
0.604179
0.624408
0.6424
0.657881
0.670651
0.680593
0.687677
0.691954
0.693538
0.692595
0.689327
0.683963
0.676744
0.667905
0.657651
0.646176
0.633695
0.620419
0.606551
0.592274
0.57775
0.563123
0.548513
0.534025
0.519742
0.505735
0.492058
0.478757
0.465863
0.453404
0.441397
0.429857
0.418791
0.408208
0.39811
0.3885
0.379381
0.370752
0.362613
0.354969
0.347798
0.34114
0.334859
0.329364
0.32204
0.162823
0.161671
0.160538
0.15943
0.158349
0.1573
0.156292
0.155343
0.154475
0.153716
0.153197
0.152967
0.15282
0.152851
0.154301
0.160603
0.176895
0.210376
0.270375
0.363197
0.485407
0.623738
0.761054
0.88284
0.980441
1.04939
1.08902
1.10059
1.08535
1.04386
0.97638
0.883959
0.769966
0.641876
0.51247
0.398199
0.31303
0.261496
0.238183
0.233741
0.240288
0.252627
0.267475
0.282969
0.298684
0.315447
0.33451
0.356496
0.380923
0.406623
0.432473
0.45781
0.482398
0.506179
0.529077
0.550913
0.571416
0.590271
0.607172
0.62186
0.634145
0.643915
0.651134
0.655835
0.65811
0.658092
0.655954
0.651889
0.646095
0.638752
0.630036
0.620141
0.609264
0.5976
0.585332
0.572628
0.559639
0.546496
0.533316
0.520197
0.50722
0.494456
0.48196
0.46978
0.457952
0.446505
0.435464
0.424846
0.414665
0.404934
0.395661
0.386853
0.378518
0.370656
0.363276
0.356361
0.349948
0.343908
0.338627
0.33162
0.167311
0.166288
0.165271
0.164264
0.163269
0.162285
0.161312
0.16035
0.1594
0.158464
0.157568
0.15673
0.155922
0.155054
0.154036
0.153109
0.153132
0.155867
0.163404
0.177968
0.202496
0.239491
0.288823
0.346516
0.406196
0.462656
0.508803
0.538735
0.548899
0.538205
0.507846
0.461307
0.404524
0.345632
0.293421
0.254457
0.230769
0.220341
0.219612
0.225375
0.235208
0.247253
0.260049
0.272613
0.284708
0.296966
0.31058
0.326598
0.345301
0.366131
0.388146
0.410534
0.432828
0.454827
0.476422
0.497464
0.517723
0.536911
0.554716
0.570845
0.585053
0.597158
0.607045
0.614669
0.620041
0.623227
0.624332
0.623494
0.620871
0.61661
0.610857
0.603775
0.59554
0.586333
0.576329
0.565696
0.554588
0.543146
0.531495
0.519745
0.50799
0.496314
0.484785
0.473463
0.462397
0.451627
0.441187
0.431106
0.421407
0.412108
0.403228
0.394778
0.38677
0.379212
0.372115
0.365466
0.359301
0.353502
0.348427
0.341717
0.170228
0.169327
0.168426
0.167525
0.166625
0.165726
0.164826
0.163925
0.163023
0.162123
0.161231
0.160359
0.159512
0.158687
0.157842
0.156918
0.155933
0.155262
0.155521
0.157248
0.161022
0.167417
0.17687
0.189431
0.204523
0.220643
0.236172
0.249035
0.257155
0.259122
0.254736
0.245227
0.233016
0.220988
0.211552
0.206034
0.20472
0.207257
0.213001
0.221178
0.230975
0.24158
0.252236
0.262355
0.271732
0.280726
0.290216
0.301263
0.314602
0.330323
0.347943
0.366767
0.386217
0.405939
0.425739
0.445458
0.464899
0.483809
0.501891
0.518846
0.534395
0.548303
0.560394
0.570549
0.578708
0.584863
0.589054
0.591359
0.591886
0.59075
0.588055
0.583923
0.578501
0.571946
0.564419
0.556081
0.547084
0.537572
0.527674
0.517509
0.507183
0.49679
0.486411
0.476116
0.465967
0.456016
0.446306
0.436877
0.427761
0.418986
0.410575
0.402549
0.394926
0.387718
0.38094
0.374584
0.368686
0.363142
0.358279
0.351866
0.172056
0.171252
0.170443
0.16963
0.168813
0.167991
0.167164
0.166331
0.165496
0.16466
0.163829
0.163012
0.162219
0.161461
0.160743
0.16005
0.159352
0.158671
0.158147
0.158018
0.158549
0.159909
0.162166
0.165382
0.169438
0.173811
0.178172
0.182173
0.185455
0.187747
0.188992
0.189414
0.18949
0.189825
0.191
0.193453
0.197422
0.202938
0.209841
0.21783
0.226508
0.235436
0.244165
0.252313
0.259687
0.266427
0.273068
0.28043
0.289338
0.300297
0.313342
0.328129
0.344179
0.361082
0.378558
0.396409
0.414444
0.432439
0.450128
0.46722
0.483428
0.498486
0.512172
0.52431
0.534776
0.543498
0.550448
0.555645
0.559149
0.561037
0.561362
0.560202
0.557663
0.553873
0.54897
0.5431
0.536404
0.529021
0.521084
0.512713
0.504023
0.495113
0.486076
0.476991
0.467931
0.458958
0.450126
0.441485
0.433075
0.424933
0.417091
0.409575
0.402411
0.395617
0.389212
0.383194
0.377599
0.372337
0.367709
0.36161
0.173167
0.172435
0.171696
0.170951
0.170199
0.16944
0.168674
0.167902
0.167126
0.16635
0.16558
0.164824
0.164094
0.163401
0.162758
0.162173
0.161642
0.161162
0.160751
0.160473
0.160429
0.160721
0.161414
0.162548
0.164077
0.165868
0.167812
0.16982
0.171826
0.173801
0.175765
0.177803
0.180063
0.182733
0.186009
0.190048
0.194939
0.200676
0.207155
0.214189
0.221531
0.228906
0.236023
0.242616
0.248511
0.253721
0.258514
0.263416
0.269095
0.27617
0.285016
0.295684
0.307973
0.321579
0.33622
0.351668
0.367727
0.38419
0.40082
0.41735
0.433497
0.448989
0.463573
0.477035
0.489202
0.499946
0.509181
0.516868
0.523023
0.527682
0.530847
0.532546
0.532843
0.531825
0.529602
0.526293
0.522024
0.516923
0.511115
0.504719
0.497849
0.490612
0.483103
0.475412
0.467617
0.459791
0.451997
0.444292
0.436726
0.429343
0.422184
0.415283
0.408671
0.402371
0.39641
0.390791
0.38555
0.380616
0.376256
0.370509
0.173812
0.173131
0.172442
0.171747
0.171044
0.170334
0.169617
0.168893
0.168165
0.167438
0.166717
0.166012
0.165331
0.164688
0.164095
0.163564
0.163106
0.162724
0.162422
0.162217
0.162142
0.162243
0.162561
0.163128
0.163948
0.164998
0.166251
0.167683
0.169285
0.171068
0.173062
0.175322
0.17792
0.18094
0.184461
0.18854
0.193194
0.198389
0.204036
0.210001
0.216112
0.222179
0.227999
0.233379
0.238171
0.242327
0.245953
0.249337
0.252922
0.257226
0.262719
0.269704
0.278275
0.288356
0.299781
0.312367
0.325934
0.340298
0.355249
0.370548
0.385932
0.401132
0.415888
0.429961
0.443145
0.45527
0.466202
0.475853
0.484196
0.491232
0.496914
0.501223
0.504174
0.505814
0.506214
0.505464
0.503663
0.500921
0.497348
0.493057
0.488156
0.482749
0.476934
0.470804
0.464444
0.457929
0.451332
0.444716
0.438139
0.431652
0.425303
0.419133
0.413178
0.407469
0.402037
0.396894
0.392073
0.387524
0.383484
0.378144
0.174161
0.173514
0.17286
0.1722
0.171532
0.170857
0.170176
0.169488
0.168797
0.168107
0.167423
0.166754
0.166108
0.165498
0.164934
0.164431
0.164001
0.163652
0.163392
0.163229
0.163175
0.163249
0.163476
0.16388
0.164477
0.165274
0.16627
0.167468
0.168873
0.170504
0.172386
0.174557
0.17706
0.179936
0.183221
0.186931
0.191056
0.195557
0.200361
0.205365
0.210444
0.215458
0.220257
0.224695
0.228651
0.232058
0.234936
0.237421
0.239766
0.242323
0.245486
0.249619
0.254986
0.261722
0.269848
0.279307
0.289999
0.301791
0.314521
0.327988
0.341959
0.356182
0.370402
0.384371
0.397864
0.410681
0.422655
0.433658
0.443623
0.452523
0.460274
0.466811
0.472106
0.476161
0.479006
0.480696
0.4813
0.480901
0.47959
0.477462
0.474617
0.471149
0.467154
0.462722
0.457938
0.452883
0.447631
0.442251
0.436805
0.431352
0.425944
0.420627
0.415445
0.410434
0.405628
0.401049
0.396728
0.392637
0.388977
0.384118
0.174333
0.173706
0.173075
0.172437
0.171793
0.171142
0.170485
0.169823
0.169159
0.168495
0.167837
0.167191
0.166568
0.165976
0.165426
0.164932
0.164505
0.164156
0.163895
0.163729
0.163668
0.163719
0.1639
0.164226
0.164716
0.165381
0.166232
0.167278
0.168531
0.170007
0.171727
0.173715
0.175998
0.178598
0.18153
0.184793
0.188369
0.192222
0.19629
0.200495
0.204742
0.208923
0.212923
0.216629
0.219941
0.222793
0.225167
0.227115
0.228766
0.230326
0.232064
0.234279
0.237259
0.24124
0.246386
0.252787
0.260469
0.269401
0.279504
0.290643
0.302638
0.315271
0.328304
0.341495
0.354609
0.367434
0.379776
0.391477
0.40244
0.412614
0.42189
0.430167
0.437377
0.443481
0.448473
0.452366
0.455197
0.457018
0.457896
0.457903
0.457121
0.455633
0.453523
0.450876
0.447772
0.444291
0.440507
0.436489
0.432304
0.428013
0.423671
0.41933
0.415038
0.410835
0.40676
0.402842
0.399111
0.395558
0.392353
0.388065
0.174405
0.173791
0.173172
0.172547
0.171918
0.171282
0.170641
0.169996
0.169349
0.168702
0.168061
0.16743
0.166819
0.166235
0.165689
0.165191
0.164753
0.164386
0.1641
0.163904
0.163806
0.163815
0.163942
0.164199
0.1646
0.165156
0.16588
0.166785
0.167882
0.169188
0.170717
0.172487
0.174516
0.176813
0.179383
0.18222
0.185302
0.188596
0.192053
0.19561
0.199191
0.202713
0.206084
0.209214
0.212022
0.214445
0.216456
0.218063
0.219326
0.220355
0.221309
0.22239
0.223826
0.225846
0.228661
0.232447
0.237338
0.243419
0.250721
0.259215
0.268804
0.279337
0.290618
0.302425
0.314533
0.326721
0.338783
0.350538
0.361863
0.372688
0.382892
0.392349
0.400959
0.408651
0.41538
0.421128
0.425895
0.429704
0.43259
0.434603
0.4358
0.436246
0.436012
0.435169
0.43379
0.431947
0.42971
0.427148
0.424324
0.421301
0.418136
0.414882
0.41159
0.408303
0.405064
0.401905
0.398858
0.395934
0.393263
0.389649
0.174429
0.17382
0.173207
0.17259
0.171968
0.171341
0.17071
0.170075
0.169438
0.168802
0.168171
0.167548
0.166942
0.16636
0.165809
0.165301
0.164844
0.16445
0.164128
0.163888
0.163738
0.163688
0.163747
0.163926
0.164234
0.164682
0.165282
0.166045
0.166983
0.168109
0.169437
0.170979
0.172747
0.174747
0.176978
0.179429
0.182081
0.184903
0.187853
0.190881
0.193925
0.196919
0.199788
0.202458
0.204862
0.206946
0.208677
0.210047
0.21108
0.211829
0.212383
0.212862
0.213418
0.214222
0.215459
0.217312
0.219954
0.223541
0.228198
0.234004
0.240976
0.249064
0.258151
0.26807
0.278622
0.289597
0.300787
0.311997
0.323079
0.333947
0.344477
0.354528
0.363979
0.372731
0.380714
0.387877
0.394193
0.399652
0.404263
0.408047
0.411038
0.41328
0.414823
0.415723
0.41604
0.415834
0.415168
0.414102
0.412699
0.411015
0.409107
0.407027
0.404826
0.40255
0.40024
0.397936
0.395666
0.393459
0.391404
0.388577
0.174431
0.173824
0.173214
0.1726
0.171982
0.17136
0.170734
0.170105
0.169474
0.168844
0.168218
0.167599
0.166994
0.166409
0.16585
0.165328
0.164849
0.164425
0.164063
0.163774
0.163567
0.16345
0.163433
0.163525
0.163735
0.164073
0.164548
0.16517
0.16595
0.166899
0.168027
0.169347
0.170865
0.172585
0.174505
0.176613
0.178891
0.181311
0.183837
0.186428
0.189032
0.191594
0.194054
0.196349
0.198423
0.200229
0.201733
0.202922
0.2038
0.204394
0.204749
0.204935
0.20504
0.205179
0.205482
0.206093
0.207169
0.208869
0.211352
0.214764
0.219217
0.224771
0.231422
0.239094
0.247653
0.25693
0.266731
0.276863
0.287157
0.297509
0.307799
0.317878
0.327609
0.336878
0.345591
0.353678
0.361085
0.367779
0.373742
0.378971
0.383476
0.387278
0.390406
0.392898
0.394797
0.396149
0.397004
0.397414
0.397431
0.397107
0.396493
0.395638
0.394589
0.393392
0.392088
0.390716
0.389305
0.387897
0.386536
0.384609
0.174425
0.173819
0.17321
0.172597
0.171981
0.171361
0.170738
0.170112
0.169485
0.168858
0.168234
0.167617
0.16701
0.16642
0.165852
0.165315
0.164815
0.16436
0.16396
0.163623
0.163358
0.163174
0.16308
0.163084
0.163195
0.163422
0.163774
0.164259
0.164886
0.165665
0.166604
0.167713
0.168998
0.170461
0.172099
0.173903
0.175854
0.177929
0.180096
0.182318
0.184554
0.186757
0.188876
0.190859
0.192657
0.194229
0.195542
0.196582
0.197343
0.197838
0.19809
0.198138
0.198034
0.197846
0.197658
0.197569
0.197692
0.198154
0.199095
0.200666
0.203013
0.206271
0.210531
0.21583
0.222136
0.229358
0.237353
0.245953
0.254989
0.264336
0.273882
0.283474
0.292965
0.30223
0.311161
0.319668
0.327682
0.335151
0.342036
0.348315
0.353975
0.359018
0.363452
0.367297
0.370577
0.373324
0.375572
0.37736
0.378729
0.379722
0.380381
0.38075
0.38087
0.380782
0.380525
0.380138
0.379644
0.379099
0.378495
0.377572
0.174416
0.173811
0.173202
0.17259
0.171975
0.171356
0.170734
0.17011
0.169485
0.16886
0.168237
0.167619
0.16701
0.166415
0.165839
0.165287
0.164766
0.164285
0.16385
0.163469
0.163151
0.162904
0.162736
0.162656
0.162672
0.162792
0.163026
0.16338
0.163863
0.164482
0.165246
0.16616
0.167232
0.168461
0.169846
0.171379
0.173043
0.174817
0.176675
0.178583
0.180506
0.182403
0.184232
0.185949
0.187511
0.188881
0.19003
0.19094
0.191603
0.192023
0.192214
0.192196
0.192001
0.191669
0.191252
0.190811
0.190421
0.19017
0.19016
0.190506
0.19134
0.192804
0.195033
0.198142
0.202199
0.207215
0.21314
0.219868
0.227261
0.235195
0.243564
0.252222
0.261017
0.269813
0.27849
0.286947
0.2951
0.302883
0.310244
0.317143
0.323554
0.329461
0.334856
0.33974
0.344124
0.348021
0.351453
0.354443
0.357019
0.359214
0.361059
0.362588
0.363836
0.364838
0.365624
0.366233
0.366681
0.367033
0.367226
0.367386
0.174408
0.173803
0.173194
0.172582
0.171967
0.171349
0.170729
0.170106
0.169482
0.168858
0.168235
0.167617
0.167006
0.166406
0.165821
0.165256
0.164718
0.164213
0.163747
0.163328
0.162962
0.162659
0.162424
0.162267
0.162196
0.162218
0.162342
0.162575
0.162924
0.163396
0.163998
0.164735
0.165613
0.166632
0.16779
0.169081
0.170492
0.172003
0.17359
0.175226
0.176877
0.17851
0.180088
0.181574
0.18293
0.184123
0.185126
0.185921
0.186497
0.186854
0.186999
0.186945
0.186712
0.186323
0.185811
0.185215
0.184581
0.183965
0.183434
0.183067
0.182959
0.183218
0.183969
0.185341
0.187455
0.190403
0.19423
0.198926
0.204425
0.210637
0.217479
0.224828
0.232538
0.240467
0.248485
0.256479
0.264353
0.272028
0.279442
0.286544
0.293295
0.299668
0.305643
0.311209
0.316363
0.321104
0.325441
0.329385
0.332952
0.33616
0.339031
0.341589
0.343859
0.345867
0.347637
0.349201
0.350568
0.351812
0.352803
0.354087
0.174401
0.173795
0.173186
0.172574
0.17196
0.171343
0.170723
0.170101
0.169478
0.168854
0.168232
0.167613
0.167
0.166395
0.165804
0.165229
0.164676
0.16415
0.163658
0.163205
0.162798
0.162445
0.162152
0.161928
0.161778
0.161712
0.161737
0.16186
0.162088
0.162426
0.162882
0.163459
0.164162
0.164992
0.165947
0.167024
0.168209
0.169487
0.170836
0.172232
0.173645
0.175047
0.176405
0.177686
0.17886
0.179895
0.180766
0.181456
0.181952
0.182252
0.182358
0.182279
0.182027
0.181619
0.181076
0.180422
0.179687
0.178907
0.178124
0.177388
0.176761
0.176314
0.176136
0.17633
0.177012
0.178296
0.180286
0.18305
0.186612
0.190952
0.196035
0.20179
0.208099
0.214828
0.221846
0.229029
0.236271
0.24348
0.25058
0.257512
0.264228
0.270691
0.276873
0.282754
0.288322
0.293568
0.29849
0.303088
0.307369
0.31134
0.315013
0.318401
0.321519
0.324386
0.327016
0.329434
0.331643
0.333718
0.335464
0.337854
0.174394
0.173788
0.173179
0.172568
0.171953
0.171336
0.170717
0.170096
0.169474
0.168851
0.168229
0.167609
0.166994
0.166386
0.165788
0.165205
0.164639
0.164096
0.163581
0.1631
0.162659
0.162263
0.16192
0.161636
0.161418
0.161274
0.161212
0.161237
0.161356
0.161575
0.161899
0.162332
0.162879
0.16354
0.164315
0.1652
0.166184
0.167255
0.168393
0.169576
0.170779
0.171976
0.173139
0.174238
0.175247
0.176139
0.176891
0.177484
0.177906
0.178152
0.178222
0.178121
0.177857
0.177444
0.176895
0.176228
0.175462
0.174621
0.173732
0.172827
0.171944
0.17113
0.170439
0.169939
0.169714
0.169858
0.170476
0.171668
0.173514
0.176065