/*--------------------------------*- C++ -*----------------------------------*\
| =========                 |                                                 |
| \\      /  F ield         | OpenFOAM: The Open Source CFD Toolbox           |
|  \\    /   O peration     | Version:  4.1                                   |
|   \\  /    A nd           | Web:      www.OpenFOAM.org                      |
|    \\/     M anipulation  |                                                 |
\*---------------------------------------------------------------------------*/
FoamFile
{
    version     2.0;
    format      ascii;
    class       volScalarField;
    location    "100";
    object      nut;
}
// * * * * * * * * * * * * * * * * * * * * * * * * * * * * * * * * * * * * * //

dimensions      [0 2 -1 0 0 0 0];

internalField   nonuniform List<scalar> 
6820
(
4.39385e-05
4.87747e-05
5.31526e-05
5.70915e-05
6.05797e-05
6.36105e-05
6.6189e-05
6.83336e-05
7.00753e-05
7.14533e-05
7.25112e-05
7.32932e-05
7.38422e-05
7.41979e-05
7.43959e-05
7.44675e-05
7.44393e-05
7.43342e-05
7.41708e-05
7.39647e-05
7.37285e-05
7.34723e-05
7.32043e-05
7.29309e-05
7.2657e-05
7.23867e-05
7.21229e-05
7.18684e-05
7.16229e-05
7.13985e-05
7.11427e-05
7.11212e-05
7.00339e-05
0.000469409
0.000265611
0.000193515
0.000152496
0.000125537
0.000107022
9.40097e-05
8.46785e-05
7.7878e-05
7.28663e-05
6.91498e-05
6.63911e-05
6.43535e-05
6.28682e-05
6.18122e-05
6.10944e-05
6.06465e-05
6.04162e-05
6.03633e-05
6.0456e-05
6.06692e-05
6.09825e-05
6.13795e-05
6.18465e-05
6.23721e-05
6.29469e-05
6.35627e-05
6.42131e-05
6.48911e-05
6.5595e-05
6.63125e-05
6.70567e-05
6.77666e-05
0.000918059
0.000718792
0.000582218
0.000488772
0.000421574
0.000370778
0.000331001
0.000299109
0.000273067
0.000251469
0.000233317
0.000217885
0.000204639
0.000193171
0.000183172
0.000174396
0.000166651
0.000159783
0.000153666
0.000148197
0.000143292
0.000138879
0.0001349
0.000131305
0.00012805
0.000125098
0.000122419
0.000119984
0.000117769
0.000115754
0.00011392
0.000112252
0.000110704
0.00100704
0.000950022
0.000874013
0.000798205
0.000730794
0.000673113
0.000624127
0.000582385
0.000546564
0.000515567
0.000488515
0.00046471
0.000443602
0.000424756
0.000407822
0.00039252
0.000378624
0.000365946
0.000354332
0.000343653
0.0003338
0.000324681
0.000316216
0.000308337
0.000300986
0.00029411
0.000287665
0.000281611
0.000275913
0.000270539
0.000265463
0.000260655
0.000256096
0.00101631
0.001006
0.000983562
0.000951517
0.000914345
0.000875788
0.000838165
0.00080265
0.000769711
0.000739435
0.000711719
0.000686375
0.00066319
0.00064195
0.000622452
0.000604515
0.000587974
0.000572685
0.00055852
0.000545366
0.000533124
0.000521708
0.00051104
0.000501052
0.000491683
0.000482881
0.000474597
0.000466791
0.000459425
0.000452466
0.000445886
0.000439662
0.000433769
0.00101678
0.00101508
0.00101017
0.0010009
0.00098729
0.000970153
0.000950608
0.00092971
0.000908293
0.000886954
0.000866088
0.00084594
0.00082665
0.000808286
0.00079087
0.000774391
0.000758824
0.000744129
0.000730262
0.000717178
0.000704827
0.000693166
0.000682149
0.000671736
0.000661887
0.000652566
0.00064374
0.000635379
0.000627457
0.00061995
0.000612836
0.000606102
0.000599724
0.00101672
0.00101615
0.001015
0.00101271
0.00100877
0.00100297
0.000995344
0.000986104
0.000975574
0.000964094
0.000951976
0.00093949
0.00092685
0.000914226
0.000901745
0.0008895
0.000877557
0.000865961
0.000854742
0.000843917
0.000833494
0.000823474
0.000813854
0.000804628
0.000795786
0.000787317
0.000779212
0.000771458
0.000764045
0.000756964
0.000750204
0.00074376
0.00073762
0.0010167
0.00101622
0.00101568
0.00101493
0.00101376
0.00101199
0.00100945
0.00100608
0.00100186
0.000996857
0.000991153
0.000984861
0.000978097
0.000970971
0.000963586
0.000956031
0.000948381
0.000940703
0.000933047
0.000925458
0.00091797
0.000910611
0.000903401
0.000896357
0.000889491
0.000882813
0.000876329
0.000870044
0.000863961
0.000858083
0.00085241
0.000846947
0.000841689
0.0010167
0.00101622
0.00101574
0.00101525
0.00101469
0.001014
0.00101308
0.00101187
0.00101032
0.00100837
0.00100603
0.00100331
0.00100021
0.000996773
0.000993044
0.000989061
0.000984868
0.000980505
0.00097601
0.00097142
0.000966765
0.000962074
0.000957371
0.000952678
0.000948013
0.000943392
0.000938829
0.000934336
0.000929923
0.000925599
0.000921371
0.000917247
0.000913231
0.0010167
0.00101621
0.00101574
0.00101529
0.00101483
0.00101436
0.00101385
0.00101326
0.00101258
0.00101177
0.00101079
0.00100965
0.00100832
0.0010068
0.00100509
0.0010032
0.00100115
0.00099895
0.000996609
0.000994149
0.000991586
0.000988937
0.000986217
0.000983441
0.000980625
0.00097778
0.00097492
0.000972054
0.000969194
0.000966348
0.000963525
0.000960732
0.000957975
0.0010167
0.00101621
0.00101574
0.00101529
0.00101484
0.00101441
0.00101398
0.00101354
0.00101309
0.0010126
0.00101208
0.0010115
0.00101085
0.00101013
0.00100933
0.00100844
0.00100746
0.0010064
0.00100524
0.00100401
0.0010027
0.00100132
0.000999875
0.000998371
0.000996817
0.000995219
0.000993585
0.00099192
0.000990232
0.000988527
0.00098681
0.000985087
0.000983364
0.0010167
0.00101621
0.00101574
0.00101528
0.00101484
0.00101441
0.00101399
0.00101358
0.00101317
0.00101277
0.00101237
0.00101195
0.00101153
0.00101108
0.00101061
0.00101011
0.00100958
0.00100901
0.00100841
0.00100776
0.00100708
0.00100635
0.00100559
0.0010048
0.00100396
0.0010031
0.00100221
0.00100129
0.00100034
0.000999381
0.000998398
0.000997401
0.000996392
0.0010167
0.00101621
0.00101574
0.00101528
0.00101484
0.00101441
0.00101399
0.00101358
0.00101318
0.0010128
0.00101242
0.00101204
0.00101168
0.00101131
0.00101094
0.00101057
0.00101019
0.00100981
0.00100941
0.00100901
0.00100859
0.00100815
0.00100771
0.00100724
0.00100676
0.00100627
0.00100576
0.00100523
0.00100469
0.00100414
0.00100358
0.001003
0.00100242
0.0010167
0.00101621
0.00101574
0.00101528
0.00101484
0.0010144
0.00101398
0.00101358
0.00101318
0.0010128
0.00101242
0.00101206
0.0010117
0.00101135
0.00101101
0.00101067
0.00101034
0.00101001
0.00100969
0.00100936
0.00100904
0.00100871
0.00100839
0.00100806
0.00100773
0.00100739
0.00100705
0.00100671
0.00100636
0.001006
0.00100565
0.00100528
0.00100491
0.0010167
0.00101621
0.00101574
0.00101528
0.00101483
0.0010144
0.00101398
0.00101357
0.00101318
0.00101279
0.00101242
0.00101205
0.0010117
0.00101135
0.00101102
0.00101069
0.00101037
0.00101005
0.00100975
0.00100945
0.00100915
0.00100886
0.00100857
0.00100829
0.00100801
0.00100774
0.00100746
0.00100719
0.00100692
0.00100665
0.00100638
0.00100611
0.00100584
0.0010167
0.00101621
0.00101574
0.00101528
0.00101483
0.0010144
0.00101398
0.00101357
0.00101317
0.00101279
0.00101241
0.00101205
0.00101169
0.00101135
0.00101101
0.00101068
0.00101036
0.00101005
0.00100975
0.00100946
0.00100917
0.00100889
0.00100861
0.00100834
0.00100808
0.00100782
0.00100757
0.00100732
0.00100708
0.00100684
0.0010066
0.00100636
0.00100613
0.0010167
0.00101621
0.00101574
0.00101528
0.00101483
0.0010144
0.00101398
0.00101357
0.00101317
0.00101278
0.00101241
0.00101204
0.00101169
0.00101134
0.00101101
0.00101068
0.00101036
0.00101005
0.00100975
0.00100945
0.00100916
0.00100889
0.00100861
0.00100835
0.00100809
0.00100783
0.00100759
0.00100735
0.00100711
0.00100688
0.00100665
0.00100643
0.00100621
0.0010167
0.00101621
0.00101574
0.00101528
0.00101483
0.0010144
0.00101398
0.00101357
0.00101317
0.00101278
0.00101241
0.00101204
0.00101168
0.00101134
0.001011
0.00101067
0.00101035
0.00101004
0.00100974
0.00100944
0.00100916
0.00100888
0.0010086
0.00100834
0.00100808
0.00100783
0.00100758
0.00100734
0.00100711
0.00100688
0.00100665
0.00100643
0.00100622
0.0010167
0.00101621
0.00101574
0.00101528
0.00101483
0.0010144
0.00101398
0.00101357
0.00101317
0.00101278
0.0010124
0.00101204
0.00101168
0.00101133
0.00101099
0.00101067
0.00101035
0.00101004
0.00100973
0.00100944
0.00100915
0.00100887
0.0010086
0.00100833
0.00100807
0.00100782
0.00100757
0.00100733
0.0010071
0.00100687
0.00100664
0.00100642
0.00100621
0.0010167
0.00101621
0.00101574
0.00101528
0.00101483
0.0010144
0.00101397
0.00101356
0.00101317
0.00101278
0.0010124
0.00101203
0.00101168
0.00101133
0.00101099
0.00101066
0.00101034
0.00101003
0.00100973
0.00100943
0.00100914
0.00100886
0.00100859
0.00100832
0.00100806
0.00100781
0.00100756
0.00100732
0.00100708
0.00100686
0.00100663
0.00100641
0.0010062
0.0010167
0.00101621
0.00101574
0.00101528
0.00101483
0.0010144
0.00101397
0.00101356
0.00101316
0.00101278
0.0010124
0.00101203
0.00101167
0.00101133
0.00101099
0.00101066
0.00101034
0.00101002
0.00100972
0.00100942
0.00100913
0.00100885
0.00100858
0.00100831
0.00100805
0.0010078
0.00100755
0.00100731
0.00100707
0.00100684
0.00100662
0.0010064
0.00100619
0.0010167
0.00101621
0.00101574
0.00101528
0.00101483
0.00101439
0.00101397
0.00101356
0.00101316
0.00101277
0.0010124
0.00101203
0.00101167
0.00101132
0.00101098
0.00101065
0.00101033
0.00101002
0.00100971
0.00100942
0.00100913
0.00100885
0.00100857
0.00100831
0.00100804
0.00100779
0.00100754
0.0010073
0.00100706
0.00100683
0.00100661
0.00100639
0.00100618
0.0010167
0.00101621
0.00101574
0.00101528
0.00101483
0.00101439
0.00101397
0.00101356
0.00101316
0.00101277
0.00101239
0.00101203
0.00101167
0.00101132
0.00101098
0.00101065
0.00101033
0.00101002
0.00100971
0.00100941
0.00100912
0.00100884
0.00100857
0.0010083
0.00100804
0.00100778
0.00100753
0.00100729
0.00100706
0.00100683
0.0010066
0.00100638
0.00100617
0.0010167
0.00101621
0.00101574
0.00101528
0.00101483
0.00101439
0.00101397
0.00101356
0.00101316
0.00101277
0.00101239
0.00101202
0.00101167
0.00101132
0.00101098
0.00101065
0.00101032
0.00101001
0.00100971
0.00100941
0.00100912
0.00100884
0.00100856
0.00100829
0.00100803
0.00100778
0.00100753
0.00100728
0.00100705
0.00100682
0.00100659
0.00100637
0.00100616
0.0010167
0.00101621
0.00101574
0.00101528
0.00101483
0.00101439
0.00101397
0.00101356
0.00101316
0.00101277
0.00101239
0.00101202
0.00101166
0.00101132
0.00101098
0.00101064
0.00101032
0.00101001
0.0010097
0.0010094
0.00100911
0.00100883
0.00100856
0.00100829
0.00100802
0.00100777
0.00100752
0.00100728
0.00100704
0.00100681
0.00100658
0.00100637
0.00100615
0.0010167
0.00101621
0.00101574
0.00101528
0.00101483
0.00101439
0.00101397
0.00101356
0.00101316
0.00101277
0.00101239
0.00101202
0.00101166
0.00101131
0.00101097
0.00101064
0.00101032
0.00101001
0.0010097
0.0010094
0.00100911
0.00100883
0.00100855
0.00100828
0.00100802
0.00100776
0.00100751
0.00100727
0.00100703
0.0010068
0.00100658
0.00100636
0.00100614
0.0010167
0.00101621
0.00101574
0.00101528
0.00101483
0.00101439
0.00101397
0.00101356
0.00101316
0.00101277
0.00101239
0.00101202
0.00101166
0.00101131
0.00101097
0.00101064
0.00101032
0.00101
0.0010097
0.0010094
0.00100911
0.00100882
0.00100855
0.00100828
0.00100801
0.00100776
0.00100751
0.00100727
0.00100703
0.0010068
0.00100657
0.00100635
0.00100614
0.0010167
0.00101621
0.00101574
0.00101528
0.00101483
0.00101439
0.00101397
0.00101356
0.00101316
0.00101277
0.00101239
0.00101202
0.00101166
0.00101131
0.00101097
0.00101064
0.00101032
0.00101
0.00100969
0.00100939
0.0010091
0.00100882
0.00100854
0.00100827
0.00100801
0.00100775
0.0010075
0.00100726
0.00100702
0.00100679
0.00100657
0.00100635
0.00100613
0.0010167
0.00101621
0.00101574
0.00101528
0.00101483
0.00101439
0.00101397
0.00101356
0.00101316
0.00101277
0.00101239
0.00101202
0.00101166
0.00101131
0.00101097
0.00101064
0.00101031
0.00101
0.00100969
0.00100939
0.0010091
0.00100882
0.00100854
0.00100827
0.00100801
0.00100775
0.0010075
0.00100726
0.00100702
0.00100679
0.00100656
0.00100634
0.00100613
0.0010167
0.00101621
0.00101574
0.00101528
0.00101483
0.00101439
0.00101397
0.00101356
0.00101316
0.00101277
0.00101239
0.00101202
0.00101166
0.00101131
0.00101097
0.00101064
0.00101031
0.00101
0.00100969
0.00100939
0.0010091
0.00100881
0.00100854
0.00100827
0.001008
0.00100775
0.0010075
0.00100725
0.00100701
0.00100678
0.00100656
0.00100633
0.00100612
0.0010167
0.00101621
0.00101574
0.00101528
0.00101483
0.00101439
0.00101397
0.00101356
0.00101316
0.00101277
0.00101239
0.00101202
0.00101166
0.00101131
0.00101097
0.00101064
0.00101031
0.00101
0.00100969
0.00100939
0.0010091
0.00100881
0.00100853
0.00100826
0.001008
0.00100774
0.00100749
0.00100725
0.00100701
0.00100677
0.00100655
0.00100632
0.00100611
0.0010167
0.00101621
0.00101574
0.00101528
0.00101483
0.00101439
0.00101397
0.00101356
0.00101316
0.00101277
0.00101239
0.00101202
0.00101166
0.00101131
0.00101097
0.00101064
0.00101031
0.00100999
0.00100969
0.00100939
0.00100909
0.00100881
0.00100853
0.00100825
0.00100799
0.00100772
0.00100747
0.00100722
0.00100697
0.00100674
0.0010065
0.00100627
0.00100605
0.0010167
0.00101621
0.00101574
0.00101528
0.00101483
0.00101439
0.00101397
0.00101356
0.00101316
0.00101277
0.00101239
0.00101202
0.00101166
0.0010113
0.00101096
0.00101062
0.0010103
0.00100997
0.00100966
0.00100935
0.00100905
0.00100875
0.00100845
0.00100817
0.00100788
0.0010076
0.00100732
0.00100705
0.00100678
0.00100652
0.00100625
0.00100599
0.00100574
0.0010167
0.00101621
0.00101574
0.00101528
0.00101483
0.00101439
0.00101397
0.00101356
0.00101316
0.00101276
0.00101237
0.00101199
0.00101162
0.00101125
0.00101088
0.00101051
0.00101015
0.00100979
0.00100942
0.00100906
0.00100869
0.00100833
0.00100796
0.00100759
0.00100721
0.00100684
0.00100646
0.00100608
0.00100569
0.00100531
0.00100492
0.00100453
0.00100414
0.0010167
0.00101621
0.00101574
0.00101527
0.00101482
0.00101438
0.00101394
0.0010135
0.00101305
0.0010126
0.00101213
0.00101165
0.00101115
0.00101063
0.00101009
0.00100952
0.00100894
0.00100833
0.00100769
0.00100704
0.00100636
0.00100566
0.00100493
0.00100419
0.00100343
0.00100265
0.00100186
0.00100105
0.00100023
0.000999399
0.000998556
0.000997704
0.000996846
0.0010167
0.00101621
0.00101571
0.00101519
0.00101464
0.00101403
0.00101334
0.00101256
0.00101168
0.00101069
0.00100959
0.00100838
0.00100706
0.00100564
0.00100412
0.00100251
0.00100082
0.000999044
0.000997202
0.000995298
0.000993339
0.000991333
0.000989287
0.000987207
0.000985099
0.00098297
0.000980825
0.000978669
0.000976506
0.000974342
0.000972179
0.000970021
0.000967872
0.00101669
0.00101596
0.00101486
0.00101329
0.00101119
0.00100856
0.00100543
0.00100183
0.000997807
0.000993404
0.000988676
0.000983674
0.000978448
0.000973043
0.000967502
0.000961862
0.000956157
0.000950417
0.000944666
0.000938928
0.00093322
0.00092756
0.00092196
0.000916433
0.000910986
0.000905628
0.000900364
0.0008952
0.00089014
0.000885186
0.000880339
0.000875602
0.000870975
0.00101524
0.00100707
0.000994966
0.000980639
0.000964802
0.000947911
0.00093035
0.000912464
0.000894547
0.000876829
0.000859472
0.00084259
0.000826258
0.000810519
0.000795396
0.000780895
0.000767011
0.000753732
0.000741038
0.000728909
0.000717321
0.000706251
0.000695672
0.000685563
0.000675898
0.000666654
0.000657811
0.000649347
0.000641242
0.000633479
0.000626038
0.000618903
0.000612059
0.000934352
0.000813408
0.000726835
0.00065883
0.000603158
0.000556807
0.000517878
0.000484892
0.000456663
0.000432268
0.000410999
0.000392307
0.000375765
0.000361031
0.000347834
0.000335954
0.000325211
0.000315458
0.000306571
0.000298447
0.000290999
0.00028415
0.000277838
0.000272007
0.000266609
0.000261601
0.000256946
0.000252612
0.000248571
0.000244796
0.000241264
0.000237955
0.00023485
0.000125479
0.000128845
0.000132087
0.000135185
0.000138141
0.000140961
0.00014365
0.000146214
0.000148657
0.000150984
0.000153199
0.000155307
0.000157311
0.000159216
0.000161027
0.000162746
0.000164378
0.000165927
0.000167397
0.000168791
0.000170112
0.000171365
0.000172553
0.000173678
0.000174744
0.000175754
0.00017671
0.000177616
0.000178473
0.000179285
0.000180053
0.000180781
0.00018147
8.00984e-05
9.66177e-05
0.000120794
0.000154029
0.000194987
0.000240243
0.000286562
0.000332387
0.000378107
0.000425474
0.000476758
0.000534077
0.000598826
0.00067114
0.000750362
0.000835522
0.000925429
0.00101935
0.0011166
0.00121623
0.00131729
0.00141892
0.00152
0.00161877
0.00171271
0.00179848
0.00187224
0.0019297
0.00196664
0.00197921
0.00196421
0.00191917
0.00184238
0.0017328
0.00158994
0.00141381
0.00120597
0.00097489
0.000747081
0.000571139
0.000500134
0.000570365
0.000775897
0.00104781
0.00132005
0.00157548
0.00181713
0.00204478
0.00225298
0.00243516
0.00258631
0.00270415
0.00278926
0.00284453
0.00287418
0.00288278
0.00287463
0.0028534
0.0028221
0.00278316
0.00273852
0.00268971
0.002638
0.00258442
0.00252981
0.00247486
0.00242012
0.00236606
0.00231302
0.0022612
0.00221066
0.00216158
0.00211422
0.00206877
0.00202534
0.00198399
0.00194474
0.00190759
0.00187249
0.00183939
0.00180824
0.00177898
0.00175154
0.00172586
0.00170188
0.00167956
0.00165887
0.00163977
0.00162224
0.00160631
0.00159196
0.00157925
0.00156821
0.00155891
0.00155142
0.0015458
0.00154216
0.00154072
0.00154012
0.00154759
6.88694e-05
7.07989e-05
7.39853e-05
7.922e-05
8.74844e-05
9.97634e-05
0.000116886
0.000139558
0.000168595
0.000205191
0.000250972
0.000307588
0.000375105
0.000450708
0.000530959
0.000614054
0.000700087
0.000789077
0.000879864
0.000971018
0.0010618
0.00115192
0.00124086
0.00132744
0.00140981
0.00148537
0.00155084
0.0016024
0.001636
0.0016478
0.00163441
0.00159315
0.00152208
0.00141997
0.00128638
0.00112232
0.000933598
0.000738739
0.000574649
0.00048695
0.000512538
0.000663033
0.000896317
0.00114237
0.0013693
0.00158143
0.00178791
0.00198949
0.00218023
0.00235242
0.00249961
0.00261783
0.002706
0.00276563
0.00280002
0.00281326
0.00280946
0.00279228
0.0027648
0.00272951
0.00268839
0.00264302
0.00259466
0.00254434
0.00249289
0.00244098
0.00238918
0.00233791
0.00228752
0.00223815
0.00218987
0.00214292
0.00209756
0.00205398
0.0020123
0.00197259
0.00193488
0.00189915
0.00186539
0.00183355
0.00180359
0.00177545
0.00174909
0.00172446
0.0017015
0.00168019
0.00166049
0.0016424
0.00162591
0.00161102
0.00159777
0.00158619
0.00157634
0.00156828
0.00156209
0.00155782
0.00155559
0.00155557
0.00155636
0.00156577
0.000109025
0.000107127
0.000105495
0.000104351
0.000103809
0.00010393
0.000104774
0.000106445
0.000109241
0.000113924
0.00012222
0.000137185
0.000163468
0.000206643
0.000270244
0.000352393
0.000445464
0.000540628
0.000632823
0.000721349
0.000807133
0.000890525
0.000971012
0.00104773
0.00111958
0.00118497
0.00124151
0.00128605
0.00131502
0.00132478
0.001312
0.00127389
0.00120837
0.00111435
0.000992392
0.000847133
0.000692483
0.000556357
0.000475927
0.000484605
0.000598383
0.00079383
0.00101324
0.00121513
0.00139433
0.00156368
0.00173449
0.00190881
0.00208117
0.00224337
0.00238774
0.00250866
0.00260313
0.00267084
0.00271376
0.00273517
0.00273882
0.00272835
0.00270689
0.00267707
0.00264097
0.00260025
0.00255626
0.00251003
0.00246243
0.00241414
0.00236571
0.0023176
0.00227014
0.00222344
0.00217758
0.00213287
0.00208957
0.00204788
0.00200792
0.00196978
0.0019335
0.00189908
0.00186653
0.00183581
0.00180688
0.00177972
0.00175428
0.00173052
0.00170842
0.00168794
0.00166907
0.00165181
0.00163615
0.00162212
0.00160975
0.00159908
0.00159017
0.00158308
0.0015779
0.00157467
0.00157349
0.00157452
0.00157629
0.00158699
0.000250999
0.00024531
0.000240183
0.000235882
0.000232459
0.000229777
0.000227561
0.000225305
0.000222253
0.000217945
0.000210161
0.000199108
0.000191075
0.000183261
0.000177353
0.000185659
0.000219138
0.000279309
0.000359514
0.00044909
0.000538512
0.0006225
0.000699677
0.000770412
0.000834936
0.000892562
0.000941558
0.000979419
0.00100327
0.0010101
0.000997032
0.000961608
0.00090235
0.000819664
0.000717745
0.000607935
0.000511597
0.000457499
0.000472952
0.000571847
0.000738788
0.000931513
0.0011125
0.00126814
0.00140407
0.00153399
0.00166958
0.00181482
0.00196608
0.00211577
0.00225574
0.00237904
0.00248082
0.00255875
0.00261298
0.00264554
0.00265953
0.00265832
0.00264508
0.00262257
0.00259302
0.00255824
0.00251966
0.00247841
0.0024354
0.00239135
0.00234683
0.00230233
0.00225817
0.00221445
0.00217131
0.00212906
0.00208799
0.00204831
0.00201016
0.00197364
0.00193882
0.00190571
0.00187433
0.00184468
0.00181673
0.00179046
0.00176585
0.00174288
0.00172151
0.00170175
0.00168358
0.001667
0.00165203
0.00163869
0.00162702
0.00161707
0.00160888
0.00160253
0.0015981
0.00159561
0.00159517
0.00159692
0.00159933
0.00161078
0.000427293
0.000420229
0.000413641
0.000407723
0.000402569
0.000398133
0.000394254
0.000390591
0.000386616
0.000382003
0.000374946
0.00036511
0.000358099
0.000360405
0.00037208
0.000366136
0.000315052
0.000257123
0.000234696
0.000250592
0.000294445
0.000355218
0.000423095
0.000490531
0.00055259
0.000606051
0.000649493
0.000681861
0.00070166
0.000706941
0.0006958
0.000667143
0.000621732
0.00056372
0.000502634
0.000454645
0.000440644
0.000479859
0.000579629
0.000726336
0.000891371
0.00104912
0.00118663
0.00130246
0.00140311
0.00149955
0.00160252
0.00171788
0.00184496
0.00197817
0.00210995
0.00223284
0.00234058
0.00242889
0.00249584
0.00254174
0.00256853
0.00257901
0.0025762
0.00256288
0.00254147
0.00251394
0.00248188
0.00244653
0.00240889
0.00236975
0.00232972
0.00228933
0.00224891
0.00220857
0.00216851
0.00212905
0.00209049
0.00205304
0.00201689
0.00198215
0.0019489
0.00191719
0.00188706
0.00185852
0.00183157
0.0018062
0.00178241
0.00176018
0.00173952
0.00172041
0.00170286
0.00168688
0.00167249
0.00165972
0.00164861
0.00163921
0.00163157
0.00162576
0.00162185
0.00161987
0.0016199
0.00162209
0.00162487
0.00163665
0.000592747
0.000585181
0.000578018
0.000571353
0.000565239
0.000559651
0.00055448
0.000549512
0.00054443
0.000538939
0.000532335
0.000524243
0.000515297
0.000508224
0.000510893
0.000536457
0.000593112
0.000637327
0.000579178
0.000451529
0.000351184
0.00030299
0.000293607
0.000308091
0.000335743
0.000368738
0.000401141
0.000428443
0.000447612
0.00045698
0.000456266
0.000446969
0.000433183
0.000422513
0.000426167
0.000456815
0.000523503
0.000625837
0.000752771
0.000888155
0.00101814
0.00113473
0.00123514
0.00132023
0.00139421
0.00146442
0.00153954
0.00162642
0.00172737
0.00183992
0.00195842
0.00207601
0.00218592
0.00228244
0.00236164
0.00242177
0.00246312
0.00248741
0.00249714
0.00249496
0.00248336
0.0024645
0.00244012
0.00241165
0.00238021
0.00234667
0.00231174
0.002276
0.00223982
0.00220331
0.00216674
0.00213044
0.00209472
0.00205983
0.00202594
0.00199321
0.00196175
0.00193163
0.0019029
0.0018756
0.00184974
0.00182536
0.00180244
0.00178101
0.00176106
0.0017426
0.00172565
0.00171024
0.00169637
0.0016841
0.00167345
0.00166449
0.00165727
0.00165184
0.00164828
0.00164662
0.00164691
0.00164932
0.00165226
0.00166404
0.000730857
0.000723467
0.000716372
0.000709618
0.00070323
0.000697185
0.000691404
0.000685749
0.000680028
0.000674015
0.000667387
0.000659932
0.000651516
0.000642081
0.000632583
0.000627466
0.000637196
0.000672621
0.000731321
0.000782115
0.00076685
0.000673259
0.000558616
0.000468958
0.000412789
0.000384871
0.000374531
0.000374793
0.000381236
0.000391414
0.000404835
0.000423056
0.000449529
0.000488781
0.000544769
0.000618932
0.00070902
0.000809395
0.000912857
0.00101302
0.0011057
0.00118882
0.00126164
0.00132449
0.00137932
0.00143035
0.00148377
0.00154598
0.00162128
0.00171037
0.00181053
0.00191677
0.002023
0.00212307
0.00221164
0.00228498
0.00234135
0.00238086
0.00240497
0.00241584
0.00241582
0.00240715
0.00239176
0.00237124
0.00234687
0.00231969
0.00229051
0.00225998
0.00222855
0.00219635
0.00216372
0.002131
0.00209851
0.00206651
0.00203522
0.00200481
0.00197541
0.00194711
0.00192
0.00189414
0.00186956
0.0018463
0.00182439
0.00180384
0.00178469
0.00176695
0.00175064
0.0017358
0.00172245
0.00171064
0.00170042
0.00169183
0.00168493
0.00167978
0.00167645
0.00167497
0.00167537
0.00167784
0.00168077
0.00169233
0.000835831
0.000829348
0.000823022
0.000816881
0.000810939
0.00080518
0.000799556
0.000793983
0.000788344
0.000782495
0.000776263
0.000769518
0.00076215
0.000754049
0.000745043
0.000735238
0.000726697
0.000724627
0.000735295
0.000761158
0.000794013
0.000814503
0.000804412
0.000758686
0.000695513
0.000641396
0.000602225
0.000577976
0.000567315
0.000568959
0.000582087
0.000606381
0.000641788
0.000688079
0.00074437
0.000808852
0.000878884
0.000951422
0.00102356
0.00109296
0.00115802
0.00121769
0.00127129
0.00131853
0.00135998
0.00139774
0.00143564
0.00147866
0.00153151
0.00159709
0.00167565
0.00176489
0.00186063
0.00195756
0.00205003
0.00213301
0.00220282
0.0022576
0.00229718
0.00232272
0.00233603
0.00233921
0.00233424
0.00232289
0.00230663
0.00228664
0.0022639
0.0022392
0.00221304
0.00218565
0.00215741
0.00212869
0.00209983
0.00207111
0.00204277
0.00201501
0.00198799
0.00196181
0.0019366
0.00191242
0.00188933
0.00186741
0.00184667
0.00182718
0.00180895
0.00179203
0.00177645
0.00176225
0.00174947
0.00173815
0.00172834
0.00172011
0.0017135
0.00170857
0.0017054
0.00170399
0.00170441
0.00170682
0.00170964
0.0017208
0.000908696
0.000903599
0.000898539
0.000893534
0.000888592
0.000883708
0.000878855
0.000873988
0.000869044
0.000863943
0.000858592
0.00085292
0.00084686
0.000840367
0.000833403
0.000825837
0.000817638
0.000809632
0.000804098
0.000804122
0.000811344
0.000823759
0.000835754
0.000839182
0.000831414
0.000816723
0.00080032
0.000786625
0.000778669
0.000778227
0.000786142
0.000802603
0.000827313
0.000859572
0.000898318
0.000942183
0.000989604
0.00103896
0.00108875
0.00113763
0.00118454
0.0012286
0.00126907
0.00130542
0.00133758
0.00136639
0.00139393
0.00142351
0.00145904
0.00150411
0.00156091
0.00162978
0.0017091
0.00179552
0.00188449
0.00197087
0.00204983
0.00211768
0.00217232
0.00221329
0.00224135
0.00225799
0.00226503
0.00226426
0.00225729
0.00224549
0.00223001
0.0022118
0.0021915
0.00216944
0.00214606
0.00212176
0.00209693
0.00207187
0.00204685
0.00202209
0.00199776
0.00197403
0.001951
0.00192878
0.00190746
0.0018871
0.00186777
0.00184952
0.0018324
0.00181645
0.00180173
0.00178828
0.00177615
0.00176539
0.00175606
0.0017482
0.00174189
0.00173717
0.00173412
0.00173277
0.00173313
0.00173542
0.00173806
0.00174872
0.000954815
0.000951206
0.000947558
0.000943882
0.000940183
0.000936458
0.000932698
0.00092888
0.000924976
0.000920946
0.000916751
0.000912357
0.000907735
0.00090287
0.000897767
0.00089243
0.000886817
0.000880931
0.000875121
0.000870357
0.000867997
0.000868979
0.00087306
0.000878411
0.000883107
0.000886203
0.000887936
0.000889403
0.000892067
0.000897342
0.000906339
0.000919762
0.000937902
0.000960672
0.000987668
0.00101824
0.00105156
0.00108671
0.00112275
0.00115877
0.00119397
0.0012276
0.00125903
0.00128769
0.00131331
0.0013361
0.00135702
0.00137797
0.00140165
0.00143114
0.00146925
0.0015179
0.00157771
0.00164777
0.00172559
0.00180737
0.00188848
0.00196432
0.00203114
0.00208657
0.00212975
0.00216103
0.00218158
0.00219291
0.00219664
0.00219423
0.00218701
0.00217611
0.00216234
0.00214619
0.00212816
0.00210873
0.00208833
0.0020673
0.00204594
0.00202452
0.00200322
0.00198224
0.0019617
0.00194174
0.00192244
0.00190392
0.00188623
0.00186945
0.00185364
0.00183886
0.00182517
0.00181262
0.00180127
0.00179118
0.0017824
0.00177499
0.00176903
0.00176456
0.00176165
0.00176034
0.00176064
0.00176279
0.00176522
0.00177533
0.000981358
0.000979029
0.000976633
0.000974173
0.000971652
0.000969068
0.000966418
0.000963694
0.000960884
0.000957975
0.000954955
0.000951816
0.000948555
0.000945175
0.000941693
0.00093814
0.000934545
0.000930925
0.000927323
0.000923922
0.000921152
0.000919605
0.000919786
0.000921754
0.000925203
0.000929731
0.000935056
0.000941156
0.000948275
0.000956838
0.000967327
0.000980167
0.000995646
0.00101387
0.00103475
0.00105801
0.00108325
0.00110992
0.00113744
0.00116521
0.00119262
0.00121911
0.00124416
0.00126731
0.00128824
0.00130686
0.00132356
0.00133929
0.00135565
0.00137476
0.00139905
0.00143082
0.00147187
0.00152314
0.0015844
0.00165398
0.00172886
0.00180499
0.00187805
0.00194422
0.00200088
0.00204671
0.00208163
0.00210642
0.00212232
0.00213071
0.00213298
0.00213042
0.00212405
0.00211451
0.00210242
0.00208835
0.00207279
0.00205617
0.00203883
0.00202105
0.0020031
0.00198515
0.00196739
0.00194996
0.00193297
0.00191653
0.00190073
0.00188566
0.00187138
0.00185798
0.00184551
0.00183403
0.00182362
0.00181434
0.00180624
0.00179939
0.00179387
0.00178972
0.00178701
0.00178578
0.00178605
0.00178809
0.00179033
0.00179987
0.000995201
0.000993798
0.000992332
0.000990801
0.000989205
0.000987543
0.000985813
0.000984013
0.000982142
0.000980196
0.00097818
0.000976098
0.000973961
0.000971785
0.000969594
0.000967418
0.000965299
0.00096328
0.000961401
0.000959722
0.000958359
0.000957523
0.000957495
0.000958524
0.000960762
0.000964261
0.000969008
0.000974992
0.00098224
0.000990845
0.00100094
0.00101268
0.00102618
0.0010415
0.00105859
0.00107732
0.00109744
0.00111863
0.00114051
0.00116266
0.00118467
0.00120611
0.00122659
0.00124571
0.00126318
0.00127884
0.00129277
0.00130539
0.00131751
0.00133042
0.00134579
0.00136551
0.00139153
0.00142557
0.00146882
0.00152162
0.0015831
0.00165104
0.00172206
0.00179219
0.00185765
0.00191554
0.00196412
0.00200284
0.00203204
0.00205263
0.0020658
0.00207286
0.00207497
0.00207297
0.00206758
0.00205949
0.00204929
0.00203749
0.00202451
0.00201071
0.00199638
0.00198175
0.00196702
0.00195237
0.00193792
0.00192381
0.00191013
0.00189699
0.00188447
0.00187265
0.0018616
0.00185139
0.0018421
0.00183378
0.00182652
0.00182036
0.00181539
0.00181167
0.00180925
0.0018082
0.00180851
0.00181048
0.00181258
0.00182159
0.00100172
0.00100089
0.00100002
0.000999096
0.000998122
0.000997095
0.000996015
0.000994881
0.000993695
0.000992461
0.000991186
0.000989883
0.000988567
0.000987259
0.000985987
0.00098478
0.000983679
0.000982726
0.000981965
0.000981445
0.000981222
0.000981378
0.00098204
0.00098336
0.000985485
0.000988542
0.000992628
0.000997817
0.00100417
0.00101173
0.00102058
0.00103075
0.00104229
0.0010552
0.00106943
0.00108487
0.00110136
0.00111868
0.00113657
0.00115474
0.00117287
0.00119065
0.00120776
0.00122389
0.00123879
0.00125226
0.00126428
0.00127496
0.00128471
0.00129419
0.0013044
0.00131661
0.00133235
0.00135324
0.0013809
0.00141669
0.00146139
0.00151484
0.00157562
0.00164108
0.00170776
0.00177203
0.00183079
0.0018819
0.00192431
0.0019579
0.00198322
0.00200128
0.0020132
0.00201991
0.00202224
0.00202096
0.0020168
0.00201036
0.00200219
0.00199272
0.0019823
0.00197125