/*--------------------------------*- C++ -*----------------------------------*\
| =========                 |                                                 |
| \\      /  F ield         | OpenFOAM: The Open Source CFD Toolbox           |
|  \\    /   O peration     | Version:  4.1                                   |
|   \\  /    A nd           | Web:      www.OpenFOAM.org                      |
|    \\/     M anipulation  |                                                 |
\*---------------------------------------------------------------------------*/
FoamFile
{
    version     2.0;
    format      ascii;
    class       volScalarField;
    location    "100";
    object      p;
}
// * * * * * * * * * * * * * * * * * * * * * * * * * * * * * * * * * * * * * //

dimensions      [0 2 -2 0 0 0 0];

internalField   nonuniform List<scalar> 
6820
(
-7.56512
-8.36494
-8.82562
-8.97074
-9.04967
-9.12443
-9.18482
-9.23106
-9.27052
-9.30685
-9.34062
-9.37203
-9.40159
-9.4297
-9.45665
-9.48263
-9.50783
-9.53245
-9.55666
-9.58065
-9.6046
-9.6287
-9.65314
-9.67813
-9.70393
-9.73079
-9.75902
-9.78902
-9.82111
-9.85617
-9.89318
-9.93827
-9.96821
-9.23881
-9.40467
-9.39044
-9.31115
-9.26927
-9.26648
-9.27708
-9.29129
-9.30934
-9.33098
-9.35463
-9.3791
-9.40387
-9.42873
-9.45347
-9.47799
-9.50225
-9.52628
-9.55015
-9.57396
-9.59783
-9.62191
-9.64634
-9.67133
-9.69707
-9.72382
-9.75186
-9.78155
-9.81324
-9.84781
-9.88545
-9.93073
-9.98523
-9.21722
-9.02923
-9.0108
-9.04556
-9.08773
-9.13645
-9.18351
-9.22464
-9.26189
-9.2971
-9.33047
-9.36194
-9.39175
-9.4202
-9.4475
-9.47381
-9.4993
-9.52417
-9.54857
-9.57269
-9.59669
-9.62077
-9.6451
-9.66988
-9.69532
-9.72166
-9.74917
-9.77819
-9.80907
-9.84256
-9.87907
-9.92158
-9.96804
-9.13505
-9.03275
-9.08236
-9.14328
-9.17708
-9.20804
-9.24012
-9.26958
-9.2971
-9.3242
-9.35095
-9.37711
-9.40265
-9.42767
-9.45222
-9.47634
-9.50009
-9.52357
-9.54686
-9.57009
-9.59337
-9.61683
-9.64062
-9.66489
-9.68981
-9.71559
-9.74243
-9.7706
-9.80041
-9.83233
-9.86666
-9.90451
-9.94447
-9.12748
-9.08766
-9.12001
-9.15803
-9.18059
-9.20591
-9.23562
-9.26458
-9.29223
-9.31957
-9.34666
-9.37319
-9.39909
-9.42442
-9.44922
-9.47353
-9.49743
-9.52099
-9.54432
-9.56752
-9.59071
-9.61401
-9.63756
-9.66151
-9.686
-9.7112
-9.73728
-9.76446
-9.79292
-9.82294
-9.85463
-9.88825
-9.92281
-9.1366
-9.11657
-9.13267
-9.16271
-9.18699
-9.21282
-9.24167
-9.26996
-9.29702
-9.32365
-9.34997
-9.37575
-9.40094
-9.4256
-9.44976
-9.47349
-9.49683
-9.51988
-9.54272
-9.56544
-9.58816
-9.61097
-9.63401
-9.65737
-9.68119
-9.7056
-9.73071
-9.75665
-9.78354
-9.81146
-9.84035
-9.87005
-9.89969
-9.14595
-9.13486
-9.14614
-9.1727
-9.19702
-9.22138
-9.24802
-9.27479
-9.3008
-9.32644
-9.35185
-9.37685
-9.40136
-9.42541
-9.44904
-9.47228
-9.49519
-9.51782
-9.54026
-9.56259
-9.5849
-9.60727
-9.6298
-9.65259
-9.67572
-9.69929
-9.72337
-9.74801
-9.77325
-9.79903
-9.82517
-9.8513
-9.87666
-9.15596
-9.15095
-9.16076
-9.18348
-9.20622
-9.229
-9.25381
-9.27923
-9.30425
-9.329
-9.35357
-9.37784
-9.40169
-9.42515
-9.44824
-9.47098
-9.49342
-9.5156
-9.53759
-9.55947
-9.58129
-9.60314
-9.62509
-9.64721
-9.66956
-9.6922
-9.71514
-9.7384
-9.76192
-9.78557
-9.8091
-9.83205
-9.85375
-9.16673
-9.16545
-9.1744
-9.19376
-9.21483
-9.23636
-9.25962
-9.28372
-9.30771
-9.33154
-9.35526
-9.37875
-9.40193
-9.42476
-9.44727
-9.46947
-9.4914
-9.51308
-9.53459
-9.55596
-9.57725
-9.59853
-9.61984
-9.64124
-9.66275
-9.68439
-9.70616
-9.72801
-9.74984
-9.77146
-9.79258
-9.81274
-9.83137
-9.17777
-9.17853
-9.18695
-9.20378
-9.22326
-9.24359
-9.26542
-9.28821
-9.31114
-9.33404
-9.3569
-9.37961
-9.40208
-9.42426
-9.44617
-9.4678
-9.48919
-9.51034
-9.53131
-9.55214
-9.57286
-9.59352
-9.61414
-9.63476
-9.65539
-9.67601
-9.69658
-9.71703
-9.73722
-9.75694
-9.7759
-9.79366
-9.80974
-9.18871
-9.19054
-9.1986
-9.21352
-9.23145
-9.25057
-9.27109
-9.29263
-9.31452
-9.3365
-9.35849
-9.38041
-9.40215
-9.42367
-9.44496
-9.466
-9.48681
-9.5074
-9.5278
-9.54805
-9.56815
-9.58815
-9.60805
-9.62786
-9.64757
-9.66715
-9.68654
-9.70563
-9.72427
-9.74226
-9.7593
-9.77502
-9.78901
-9.19935
-9.2017
-9.20943
-9.22286
-9.23934
-9.2573
-9.27661
-9.29697
-9.31783
-9.33888
-9.36002
-9.38115
-9.40216
-9.423
-9.44364
-9.46406
-9.48427
-9.50428
-9.52408
-9.54371
-9.56317
-9.58247
-9.60162
-9.6206
-9.63939
-9.65793
-9.67616
-9.69396
-9.71117
-9.72759
-9.74296
-9.75696
-9.76927
-9.20957
-9.21211
-9.2195
-9.23173
-9.24691
-9.26375
-9.28193
-9.30118
-9.32103
-9.34117
-9.36146
-9.3818
-9.40207
-9.42222
-9.4422
-9.462
-9.48159
-9.50097
-9.52016
-9.53914
-9.55793
-9.57652
-9.5949
-9.61304
-9.6309
-9.64844
-9.66555
-9.68213
-9.69803
-9.71306
-9.727
-9.73958
-9.75055
-9.21927
-9.22185
-9.22887
-9.2401
-9.25413
-9.26989
-9.28702
-9.30522
-9.32409
-9.34334
-9.3628
-9.38235
-9.40188
-9.42133
-9.44064
-9.45979
-9.47875
-9.4975
-9.51604
-9.53437
-9.55247
-9.57033
-9.58792
-9.60523
-9.62219
-9.63874
-9.65481
-9.67026
-9.68498
-9.69878
-9.7115
-9.72291
-9.73282
-9.22841
-9.23093
-9.23757
-9.24796
-9.26095
-9.27571
-9.29185
-9.30906
-9.32699
-9.34536
-9.364
-9.38277
-9.40157
-9.42031
-9.43895
-9.45744
-9.47574
-9.49385
-9.51174
-9.52939
-9.54679
-9.56391
-9.58073
-9.59721
-9.61329
-9.62891
-9.64399
-9.65841
-9.67206
-9.6848
-9.69649
-9.70695
-9.71603
-9.23696
-9.23938
-9.24563
-9.25527
-9.26734
-9.28117
-9.29638
-9.31265
-9.32968
-9.34721
-9.36504
-9.38304
-9.40111
-9.41915
-9.43711
-9.45493
-9.47258
-9.49003
-9.50725
-9.52422
-9.54092
-9.55731
-9.57336
-9.58903
-9.60427
-9.619
-9.63315
-9.64664
-9.65934
-9.67116
-9.68197
-9.69166
-9.7001
-9.24489
-9.24718
-9.25305
-9.26204
-9.27329
-9.28624
-9.30058
-9.31597
-9.33215
-9.34885
-9.36589
-9.38314
-9.40048
-9.41783
-9.43511
-9.45226
-9.46925
-9.48604
-9.50259
-9.51888
-9.53487
-9.55054
-9.56584
-9.58072
-9.59515
-9.60905
-9.62235
-9.63498
-9.64684
-9.65786
-9.66793
-9.67699
-9.68494
-9.25218
-9.25435
-9.25985
-9.26824
-9.27875
-9.29091
-9.30442
-9.31899
-9.33435
-9.35026
-9.36654
-9.38305
-9.39968
-9.41634
-9.43294
-9.44942
-9.46575
-9.48188
-9.49776
-9.51337
-9.52867
-9.54362
-9.55818
-9.57232
-9.58597
-9.59909
-9.6116
-9.62346
-9.63458
-9.64489
-9.65435
-9.66288
-9.67044
-9.25883
-9.26086
-9.26602
-9.27387
-9.28371
-9.29513
-9.30788
-9.32167
-9.33626
-9.35141
-9.36695
-9.38275
-9.39868
-9.41466
-9.43059
-9.44642
-9.46209
-9.47755
-9.49277
-9.50771
-9.52232
-9.53657
-9.55043
-9.56384
-9.57676
-9.58915
-9.60094
-9.61209
-9.62254
-9.63225
-9.64117
-9.64927
-9.65651
-9.26481
-9.26672
-9.27156
-9.27891
-9.28814
-9.29889
-9.31093
-9.32399
-9.33785
-9.35228
-9.36711
-9.38222
-9.39747
-9.41278
-9.42805
-9.44323
-9.45825
-9.47306
-9.48763
-9.5019
-9.51585
-9.52942
-9.54259
-9.55531
-9.56754
-9.57924
-9.59037
-9.60088
-9.61073
-9.61989
-9.62834
-9.63606
-9.64303
-9.27011
-9.27191
-9.27645
-9.28335
-9.29203
-9.30216
-9.31353
-9.32592
-9.33909
-9.35283
-9.367
-9.38143
-9.39603
-9.41069
-9.42532
-9.43986
-9.45424
-9.46842
-9.48234
-9.49597
-9.50927
-9.52219
-9.53469
-9.54676
-9.55833
-9.56939
-9.57989
-9.58981
-9.59912
-9.60779
-9.61581
-9.6232
-9.62991
-9.27472
-9.27641
-9.28068
-9.28717
-9.29534
-9.30491
-9.31568
-9.32743
-9.33996
-9.35306
-9.36658
-9.38038
-9.39434
-9.40837
-9.42238
-9.4363
-9.45006
-9.46362
-9.47692
-9.48992
-9.50258
-9.51487
-9.52675
-9.53818
-9.54914
-9.5596
-9.56952
-9.57889
-9.58769
-9.59591
-9.60354
-9.6106
-9.61707
-9.27862
-9.28022
-9.28423
-9.29035
-9.29806
-9.30711
-9.31732
-9.3285
-9.34042
-9.35292
-9.36583
-9.37903
-9.39239
-9.40582
-9.41923
-9.43255
-9.44571
-9.45867
-9.47136
-9.48376
-9.49582
-9.5075
-9.51877
-9.52961
-9.53998
-9.54986
-9.55924
-9.5681
-9.57642
-9.58421
-9.59146
-9.5982
-9.60442
-9.2818
-9.28331
-9.2871
-9.29287
-9.30017
-9.30875
-9.31845
-9.32909
-9.34046
-9.3524
-9.36475
-9.37738
-9.39017
-9.40303
-9.41586
-9.42861
-9.4412
-9.45357
-9.46569
-9.4775
-9.48897
-9.50007
-9.51077
-9.52103
-9.53085
-9.54019
-9.54905
-9.55742
-9.56529
-9.57266
-9.57954
-9.58596
-9.59191
-9.28424
-9.28567
-9.28924
-9.29471
-9.30162
-9.30978
-9.31903
-9.32918
-9.34005
-9.35148
-9.3633
-9.3754
-9.38766
-9.39998
-9.41228
-9.42447
-9.43651
-9.44833
-9.45989
-9.47115
-9.48207
-9.49261
-9.50275
-9.51248
-9.52176
-9.53059
-9.53896
-9.54685
-9.55428
-9.56124
-9.56775
-9.57383
-9.57948
-9.28592
-9.28727
-9.29065
-9.29583
-9.30241
-9.31018
-9.31902
-9.32874
-9.33917
-9.35012
-9.36147
-9.37309
-9.38485
-9.39667
-9.40846
-9.42015
-9.43167
-9.44296
-9.454
-9.46472
-9.47511
-9.48512
-9.49474
-9.50395
-9.51273
-9.52106
-9.52895
-9.53639
-9.54338
-9.54993
-9.55606
-9.56179
-9.5671
-9.28681
-9.28809
-9.29129
-9.2962
-9.30248
-9.30992
-9.3184
-9.32775
-9.33777
-9.34832
-9.35925
-9.37042
-9.38174
-9.3931
-9.40442
-9.41563
-9.42666
-9.43747
-9.44801
-9.45823
-9.46812
-9.47763
-9.48675
-9.49547
-9.50376
-9.51162
-9.51905
-9.52604
-9.5326
-9.53875
-9.54448
-9.54983
-9.55478
-9.2869
-9.28811
-9.29112
-9.29579
-9.3018
-9.30896
-9.31714
-9.32616
-9.33585
-9.34605
-9.3566
-9.3674
-9.37832
-9.38926
-9.40016
-9.41092
-9.42151
-9.43186
-9.44193
-9.45168
-9.46109
-9.47013
-9.47878
-9.48702
-9.49485
-9.50225
-9.50922
-9.51578
-9.52191
-9.52763
-9.53296
-9.53791
-9.54248
-9.28616
-9.28729
-9.29013
-9.29455
-9.30031
-9.30724
-9.31518
-9.32395
-9.33337
-9.34328
-9.35353
-9.364
-9.37458
-9.38516
-9.39568
-9.40606
-9.41624
-9.42618
-9.43582
-9.44514
-9.45412
-9.46271
-9.47092
-9.47872
-9.4861
-9.49306
-9.49961
-9.50573
-9.51144
-9.51674
-9.52165
-9.52619
-9.53034
-9.28457
-9.28561
-9.28824
-9.29242
-9.29797
-9.30472
-9.3125
-9.32108
-9.33031
-9.34
-9.35001
-9.36021
-9.3705
-9.38077
-9.39094
-9.40096
-9.41077
-9.42032
-9.42956
-9.43848
-9.44703
-9.4552
-9.46298
-9.47036
-9.47731
-9.48385
-9.48996
-9.49566
-9.50094
-9.50583
-9.51031
-9.51443
-9.51816
-9.28214
-9.28306
-9.28541
-9.28931
-9.29469
-9.30134
-9.30902
-9.3175
-9.32662
-9.33621
-9.34608
-9.35613
-9.36622
-9.37627
-9.38621
-9.39596
-9.40547
-9.4147
-9.42361
-9.43218
-9.44037
-9.44817
-9.45556
-9.46254
-9.4691
-9.47523
-9.48094
-9.48622
-9.49109
-9.49554
-9.4996
-9.50326
-9.50653
-9.27888
-9.27961
-9.28154
-9.28509
-9.29036
-9.29703
-9.30472
-9.31318
-9.32224
-9.33172
-9.34145
-9.3513
-9.36118
-9.37099
-9.38066
-9.39012
-9.39933
-9.40825
-9.41683
-9.42506
-9.4329
-9.44035
-9.44738
-9.454
-9.46018
-9.46594
-9.47127
-9.47616
-9.48064
-9.4847
-9.48835
-9.49161
-9.49448
-9.27489
-9.27527
-9.27652
-9.27959
-9.28478
-9.29159
-9.29951
-9.30828
-9.31769
-9.32748
-9.33744
-9.34745
-9.35739
-9.3672
-9.3768
-9.38613
-9.39516
-9.40385
-9.41217
-9.4201
-9.42763
-9.43474
-9.44141
-9.44766
-9.45345
-9.45881
-9.46373
-9.4682
-9.47225
-9.47586
-9.47904
-9.4818
-9.48412
-9.27041
-9.27001
-9.27004
-9.27271
-9.27808
-9.28485
-9.29243
-9.30084
-9.30996
-9.31952
-9.32929
-9.33913
-9.34894
-9.35863
-9.36811
-9.37733
-9.38625
-9.39482
-9.40302
-9.41081
-9.41819
-9.42514
-9.43164
-9.43769
-9.44329
-9.44844
-9.45312
-9.45736
-9.46115
-9.46449
-9.4674
-9.46991
-9.472
-9.26613
-9.26388
-9.26097
-9.26319
-9.27051
-9.27984
-9.28972
-9.30001
-9.31055
-9.32109
-9.33146
-9.34162
-9.35151
-9.3611
-9.37036
-9.37925
-9.38776
-9.39587
-9.40357
-9.41084
-9.41768
-9.42407
-9.43001
-9.4355
-9.44053
-9.44511
-9.44922
-9.45288
-9.45609
-9.45884
-9.46114
-9.46298
-9.46432
-9.26327
-9.25811
-9.2505
-9.24807
-9.2505
-9.25583
-9.26365
-9.27338
-9.28411
-9.29519
-9.30638
-9.31752
-9.32847
-9.33912
-9.3494
-9.35926
-9.36867
-9.37761
-9.38607
-9.39403
-9.40148
-9.40842
-9.41485
-9.42076
-9.42616
-9.43105
-9.43543
-9.43931
-9.4427
-9.4456
-9.44803
-9.45001
-9.45157
-9.26343
-9.24348
-9.24618
-9.2658
-9.2823
-9.29291
-9.30238
-9.31235
-9.32214
-9.33137
-9.34022
-9.34882
-9.35719
-9.36527
-9.37307
-9.38056
-9.38774
-9.39457
-9.40105
-9.40716
-9.41288
-9.4182
-9.4231
-9.42759
-9.43164
-9.43526
-9.43845
-9.44119
-9.44348
-9.44533
-9.44672
-9.44764
-9.44805
-9.30068
-9.17738
-9.11416
-9.11761
-9.1397
-9.16108
-9.18198
-9.20325
-9.22383
-9.24308
-9.26099
-9.27767
-9.2932
-9.30762
-9.32102
-9.33348
-9.34506
-9.3558
-9.36575
-9.37493
-9.3834
-9.39116
-9.39824
-9.40467
-9.41045
-9.41561
-9.42016
-9.42412
-9.42749
-9.43031
-9.43258
-9.43433
-9.43558
-9.46044
-9.47353
-9.4321
-9.38974
-9.36547
-9.35458
-9.34963
-9.34718
-9.34673
-9.34828
-9.35139
-9.3555
-9.36025
-9.36543
-9.37088
-9.37646
-9.38206
-9.38758
-9.39295
-9.39811
-9.40301
-9.40762
-9.4119
-9.41583
-9.41938
-9.42254
-9.4253
-9.42763
-9.42954
-9.43102
-9.43206
-9.43266
-9.43281
-8.2961
-8.59636
-8.8612
-8.98687
-9.05154
-9.10728
-9.15638
-9.19422
-9.22333
-9.24757
-9.26868
-9.28716
-9.30343
-9.31796
-9.3311
-9.34306
-9.35397
-9.36395
-9.37308
-9.38143
-9.38904
-9.39594
-9.40218
-9.40776
-9.41271
-9.41704
-9.42078
-9.42392
-9.42648
-9.42847
-9.42989
-9.43077
-9.43109
-10.0746
-10.0112
-10.2011
-10.3353
-10.3317
-10.2317
-10.0516
-9.80112
-9.50808
-9.21403
-8.9643
-8.80076
-8.75467
-8.84126
-9.05972
-9.3966
-9.82826
-10.3264
-10.8637
-11.4164
-11.9656
-12.497
-13.0004
-13.4692
-13.8992
-14.2872
-14.6306
-14.9267
-15.1722
-15.3625
-15.4919
-15.5529
-15.5357
-15.4281
-15.2152
-14.8786
-14.3965
-13.7469
-12.9164
-11.909
-10.7491
-9.47973
-8.15948
-6.85282
-5.61702
-4.4938
-3.50589
-2.65784
-1.94148
-1.34271
-0.846292
-0.437948
-0.105004
0.163595
0.377457
0.544942
0.673341
0.769018
0.837519
0.883648
0.911545
0.924744
0.926238
0.918535
0.903715
0.883491
0.859254
0.832134
0.803038
0.772667
0.741534
0.710024
0.678452
0.647072
0.616068
0.585574
0.555675
0.526428
0.497859
0.469975
0.442766
0.416214
0.390289
0.364963
0.340199
0.315964
0.292221
0.26894
0.246087
0.223628
0.201545
0.179779
0.158379
0.137124
0.116472
0.0952169
0.0761815
0.0524845
0.0398847
0.000267494
-10.0779
-10.1317
-10.2494
-10.3008
-10.2467
-10.122
-9.94058
-9.70642
-9.43876
-9.17132
-8.94399
-8.79654
-8.76023
-8.8502
-9.06464
-9.38918
-9.80184
-10.2786
-10.7958
-11.3314
-11.8668
-12.3874
-12.8826
-13.3458
-13.7721
-14.1578
-14.4999
-14.7949
-15.0389
-15.2268
-15.3522
-15.4066
-15.3798
-15.2588
-15.0277
-14.6673
-14.1562
-13.4772
-12.6252
-11.6122
-10.4665
-9.23203
-7.96203
-6.70985
-5.52238
-4.4365
-3.47476
-2.64375
-1.93781
-1.34506
-0.851953
-0.445362
-0.113323
0.15484
0.368545
0.536059
0.664618
0.760549
0.829366
0.87585
0.904123
0.917706
0.919579
0.912242
0.89777
0.877871
0.853934
0.827085
0.798232
0.768068
0.737111
0.705745
0.674292
0.643011
0.612089
0.581661
0.551816
0.52261
0.494072
0.46621
0.439015
0.41247
0.386547
0.361217
0.336446
0.312203
0.288452
0.265164
0.242307
0.219848
0.197772
0.176019
0.154649
0.133421
0.112853
0.0916038
0.0728906
0.0488669
0.0380661
-0.0046343
-10.0334
-10.0791
-10.1321
-10.1624
-10.1317
-10.0416
-9.89772
-9.70445
-9.47828
-9.24761
-9.04574
-8.90601
-8.85708
-8.9186
-9.0985
-9.3919
-9.78111
-10.2397
-10.7396
-11.2571
-11.7746
-12.2793
-12.7616
-13.2145
-13.6328
-14.012
-14.3483
-14.6378
-14.876
-15.0572
-15.1741
-15.2179
-15.1773
-15.0387
-14.7853
-14.3977
-13.8582
-13.1566
-12.2957
-11.2927
-10.1779
-8.99246
-7.78068
-6.5852
-5.44561
-4.39593
-3.45907
-2.64378
-1.947
-1.3591
-0.86817
-0.462247
-0.130086
0.138587
0.352992
0.521305
0.650718
0.747531
0.817235
0.864593
0.893711
0.908097
0.910724
0.904085
0.890254
0.870935
0.847518
0.821133
0.792684
0.762864
0.732201
0.701083
0.669842
0.638738
0.607964
0.577658
0.547912
0.518787
0.490313
0.4625
0.435342
0.408822
0.382915
0.357594
0.332826
0.308582
0.284828
0.261535
0.238676
0.216218
0.194149
0.172409
0.151066
0.129866
0.10938
0.0881464
0.0697487
0.0454389
0.036436
-0.00929664
-9.99512
-10.0389
-10.0803
-10.1062
-10.0814
-9.9993
-9.86876
-9.69961
-9.50746
-9.31614
-9.15368
-9.04678
-9.01696
-9.07814
-9.23488
-9.48384
-9.8168
-10.2211
-10.679
-11.1684
-11.6676
-12.1586
-12.6286
-13.0696
-13.4764
-13.8449
-14.171
-14.4507
-14.6787
-14.8488
-14.953
-14.9817
-14.9232
-14.7629
-14.4842
-14.0708
-13.5103
-12.7993
-11.9452
-10.9675
-9.89605
-8.76664
-7.615
-6.47584
-5.38372
-4.37028
-3.45849
-2.65899
-1.97124
-1.38783
-0.898521
-0.492497
-0.159292
0.110894
0.327027
0.497152
0.628398
0.727023
0.798489
0.847535
0.878245
0.894114
0.898107
0.892713
0.880004
0.861689
0.839163
0.813565
0.785793
0.756559
0.726397
0.695711
0.664839
0.63405
0.603542
0.57346
0.543903
0.514934
0.486588
0.458879
0.431804
0.40535
0.379493
0.354209
0.329467
0.30524
0.281498
0.258214
0.235362
0.212913
0.190857
0.169134
0.147822
0.126654
0.106251
0.0850438
0.0669639
0.0424019
0.0351982
-0.0135045
-9.96325
-10.0008
-10.0296
-10.0406
-10.012
-9.93833
-9.82701
-9.68668
-9.52963
-9.37482
-9.24528
-9.1634
-9.14831
-9.21333
-9.36388
-9.59731
-9.90361
-10.268
-10.6756
-11.1128
-11.5663
-12.0223
-12.4677
-12.8915
-13.2854
-13.6426
-13.9576
-14.2252
-14.4398
-14.5948
-14.6822
-14.6919
-14.6119
-14.4286
-14.128
-13.6976
-13.13
-12.4246
-11.5912
-10.6499
-9.62859
-8.55689
-7.4639
-6.37913
-5.33347
-4.35627
-3.47002
-2.68674
-2.00819
-1.42918
-0.94113
-0.534427
-0.199432
0.0731112
0.291844
0.464644
0.598553
0.699779
0.773749
0.825176
0.858122
0.876066
0.881962
0.878297
0.867145
0.850219
0.828925
0.804409
0.77757
0.749145
0.719683
0.689601
0.659251
0.628907
0.598779
0.569019
0.539733
0.510992
0.482835
0.455284
0.428337
0.401986
0.37621
0.350989
0.326295
0.302103
0.278388
0.255123
0.232287
0.209853
0.187815
0.166112
0.144833
0.1237
0.103381
0.0822089
0.0644431
0.0396661
0.0342212
-0.0173355
-9.93252
-9.96282
-9.98278
-9.98575
-9.95872
-9.8964
-9.80312
-9.6864
-9.55721
-9.4317
-9.32922
-9.26859
-9.26584
-9.33242
-9.47405
-9.68988
-9.97184
-10.307
-10.6815
-11.0825
-11.4973
-11.9142
-12.3227
-12.7136
-13.079
-13.4122
-13.7068
-13.9561
-14.1531
-14.2901
-14.3585
-14.3485
-14.2496
-14.05
-13.7383
-13.3045
-12.7422
-12.0531
-11.2487
-10.3492
-9.379
-8.36285
-7.32542
-6.29266
-5.29234
-4.35139
-3.49139
-2.72516
-2.05639
-1.48197
-0.995054
-0.587266
-0.249857
0.025802
0.247953
0.424244
0.561597
0.66616
0.743323
0.79777
0.833544
0.854108
0.862407
0.860924
0.851736
0.836564
0.816826
0.793676
0.768017
0.740621
0.712053
0.682748
0.653067
0.623299
0.593663
0.564321
0.53539
0.506948
0.479044
0.451701
0.424926
0.398714
0.373051
0.347918
0.323292
0.299153
0.275476
0.252241
0.229428
0.207014
0.184996
0.163316
0.14207
0.120975
0.100738
0.07961
0.0621487
0.0372011
0.0334328
-0.020798
-9.9035
-9.92753
-9.94135
-9.93966
-9.91417
-9.86068
-9.78219
-9.68555
-9.58056
-9.48072
-9.40201
-9.3601
-9.36852
-9.43685
-9.56996
-9.76781
-10.0251
-10.3322
-10.6766
-11.0451
-11.4252
-11.8067
-12.181
-12.5401
-12.8763
-13.1822
-13.4507
-13.675
-13.8483
-13.963
-14.0111
-13.9837
-13.8711
-13.6627
-13.3477
-12.9169
-12.3658
-11.6981
-10.9262
-10.0687
-9.14698
-8.18261
-7.19727
-6.21409
-5.25794
-4.35326
-3.52032
-2.77222
-2.11416
-1.54494
-1.05937
-0.65037
-0.310143
-0.0307586
0.195536
0.376082
0.51763
0.626242
0.707262
0.765348
0.804521
0.828231
0.839416
0.840557
0.833733
0.820675
0.802815
0.781314
0.757088
0.730946
0.703471
0.675118
0.646262
0.617204
0.588176
0.559355
0.530867
0.5028
0.47521
0.448131
0.421574
0.39554
0.370021
0.345002
0.320465
0.296393
0.272768
0.249571
0.226788
0.204398
0.182402
0.160747
0.139534
0.118477
0.0983197
0.077245
0.0600731
0.0350061
0.0327966
-0.0238707
-9.87588
-9.89486
-9.9043
-9.89999
-9.87654
-9.83115
-9.76612
-9.68736
-9.60336
-9.52539
-9.46666
-9.44032
-9.45779
-9.52731
-9.65305
-9.83485
-10.0685
-10.3471
-10.6612
-10.9987
-11.3479
-11.6985
-12.0421
-12.371
-12.678
-12.9559
-13.1976
-13.3966
-13.5462
-13.6394
-13.6685
-13.6257
-13.5018
-13.2869
-12.971
-12.5461
-12.0092
-11.365
-10.6254
-9.80742
-8.93043
-8.01388
-7.07731
-6.14139
-5.22822
-4.35968
-3.55453
-2.82574
-2.17958
-1.61646
-1.13279
-0.722777
-0.379614
-0.0961276
0.13487
0.320328
0.466759
0.580091
0.665604
0.72792
0.771042
0.798407
0.812946
0.817141
0.813073
0.802485
0.786825
0.767258
0.744723
0.720062
0.693886
0.666667
0.638795
0.610588
0.582293
0.554099
0.526146
0.498534
0.471328
0.44457
0.418279
0.392465
0.367123
0.342244
0.317818
0.29383
0.270268
0.247119
0.224371
0.202008
0.180037
0.158406
0.137224
0.116206
0.0961244
0.0751122
0.0582094
0.0330792
0.0322789
-0.0265343
-9.84977
-9.86484
-9.87128
-9.86583
-9.84499
-9.80706
-9.75395
-9.69066
-9.62452
-9.56499
-9.52304
-9.50963
-9.53442
-9.60445
-9.72346
-9.89148
-10.105
-10.3577
-10.6418
-10.9479
-11.2665
-11.5878
-11.903
-12.2041
-12.484
-12.7355
-12.9519
-13.1267
-13.2536
-13.3261
-13.3375
-13.2807
-13.1472
-12.9277
-12.6129
-12.1958
-11.6743
-11.0534
-10.3443
-9.56297
-8.72711
-7.85476
-6.96386
-6.07292
-5.20144
-4.36878
-3.59201
-2.88365
-2.25064
-1.69473
-1.21377
-0.803244
-0.457326
-0.169634
0.0664004
0.257266
0.409158
0.527815
0.618411
0.685517
0.733112
0.76462
0.782965
0.79063
0.789702
0.781935
0.768791
0.751442
0.73086
0.707913
0.683244
0.657345
0.630625
0.603416
0.575982
0.548529
0.521209
0.494136
0.467387
0.441012
0.41504
0.389488
0.364358
0.339649
0.315355
0.291469
0.267983
0.244889
0.222181
0.199849
0.177902
0.156296
0.135143
0.114164
0.0941515
0.07321
0.0565505
0.0314169
0.0318481
-0.028773
-9.82522
-9.83737
-9.84189
-9.83634
-9.81845
-9.78733
-9.74468
-9.69477
-9.64384
-9.59986
-9.57192
-9.56916
-9.59967
-9.66948
-9.78187
-9.93705
-10.1322
-10.3621
-10.6199
-10.8975
-11.1864
-11.4784
-11.7654
-12.0395
-12.2935
-12.5201
-12.7126
-12.8646
-12.9703
-13.0239
-13.0194
-12.9503
-12.8085
-12.5856
-12.2729
-11.8643
-11.3586
-10.7604
-10.0804
-9.33313
-8.53534
-7.70399
-6.8558
-6.00752
-5.17628
-4.37904
-3.63104
-2.94408
-2.32546
-1.77794
-1.30068
-0.890348
-0.542114
-0.250386
-0.00923508
0.187321
0.345098
0.469577
0.565779
0.638192
0.690753
0.726866
0.74945
0.760987
0.763571
0.758968
0.748654
0.73381
0.715441
0.694442
0.671492
0.647105
0.621706
0.595648
0.569211
0.542617
0.516035
0.489591
0.463376
0.43745
0.411853
0.386609
0.36173
0.337221
0.313083
0.289316
0.265919
0.242889
0.220227
0.197927
0.176006
0.154422
0.133296
0.112353
0.0924027
0.0715391
0.055092
0.0300167
0.0314777
-0.0305709
-9.80224
-9.81231
-9.81573
-9.81077
-9.796
-9.77107
-9.73758
-9.69917
-9.66115
-9.63019
-9.61384
-9.61971
-9.65457
-9.72351
-9.8294
-9.97254
-10.1507
-10.3595
-10.5931
-10.8445
-11.1062
-11.3707
-11.6305
-11.8783
-12.107
-12.3095
-12.479
-12.6097
-12.6958
-12.7321
-12.7131
-12.6327
-12.4836
-12.2579
-11.948
-11.5488
-11.0592
-10.4835
-9.83139
-9.11633
-8.35409
-7.56088
-6.75255
-5.94446
-5.15177
-4.38921
-3.67016
-3.00545
-2.40235
-1.86443
-1.39192
-0.982615
-0.632677
-0.337301
-0.091196
0.111098
0.274985
0.405637
0.507866
0.586034
0.644007
0.685158
0.712392
0.728188
0.734644
0.733539
0.726362
0.714308
0.698413
0.679598
0.65858
0.635898
0.611996
0.587245
0.561944
0.536334
0.510599
0.484881
0.459282
0.433876
0.408714
0.383828
0.35924
0.334964
0.311008
0.28738
0.264085
0.241128
0.218518
0.196253
0.174356
0.152792
0.131689
0.11078
0.0908829
0.0701027
0.0538319
0.0288771
0.0311451
-0.0319123
-9.78078
-9.78944
-9.7924
-9.78847
-9.77683
-9.75749
-9.73198
-9.7034
-9.67625
-9.65613
-9.64927
-9.66201
-9.69999
-9.7675
-9.867
-9.99881
-10.1612
-10.3504
-10.5616
-10.7885
-11.0247
-11.2633
-11.4973
-11.7199
-11.9242
-12.1035
-12.2513
-12.3618
-12.4296
-12.4499
-12.4173
-12.3264
-12.1705
-11.9426
-11.6364
-11.2471
-10.7741
-10.2208
-9.59583
-8.91154
-8.18277
-7.42515
-6.65393
-5.88347
-5.12737
-4.39842
-3.7082
-3.06635
-2.47985
-1.9527
-1.48602
-1.07865
-0.727706
-0.429197
-0.178478
0.0293954
0.199406
0.336396
0.444929
0.529196
0.592961
0.639537
0.6718
0.69222
0.702895
0.705613
0.701876
0.692893
0.679731
0.663333
0.644461
0.623679
0.60145
0.578167
0.554147
0.52965
0.504876
0.479984
0.45509
0.43028
0.405616
0.381143
0.356891
0.332883
0.309137
0.285668
0.262491
0.239618
0.217064
0.194836
0.172963
0.151419
0.130332
0.109454
0.0895994
0.0689061
0.0527714
0.0279975
0.0308324
-0.0327804
-9.76079
-9.76855
-9.77149
-9.76887
-9.76026
-9.74593
-9.72731
-9.70707
-9.68901
-9.6778
-9.67862
-9.69671
-9.73674
-9.8023
-9.89547
-10.0166
-10.1642
-10.3354
-10.5257
-10.7298
-10.942
-11.156
-11.3655
-11.564
-11.745
-11.9021
-12.0293
-12.1209
-12.1717
-12.1768
-12.1315
-12.0306
-11.8683
-11.6388
-11.3367
-10.958
-10.5017
-9.97079
-9.37248
-8.71791
-8.02098
-7.29676
-6.56007
-5.82463
-5.10291
-4.40613
-3.74424
-3.12562
-2.55665
-2.04141
-1.58169
-1.17721
-0.826006
-0.524931
-0.270018
-0.0568552
0.119124
0.262432
0.377374
0.467946
0.537776
0.59009
0.627714
0.653091
0.668311
0.675163
0.67516
0.669529
0.659356
0.64561
0.629096
0.610407
0.59003
0.568376
0.545785
0.522532
0.498839
0.474878
0.450781
0.426647
0.402552
0.378549
0.354681
0.33098
0.307475
0.28419
0.261147
0.238369
0.215878
0.19369
0.171841
0.150312
0.129239
0.108386
0.0885617
0.0679565
0.0519135
0.027378
0.0305252
-0.0331588
-9.74213
-9.7494
-9.75264
-9.75145
-9.7457
-9.7358
-9.72307
-9.70984
-9.6993
-9.69535
-9.70227
-9.72437
-9.76549
-9.82864
-9.91556
-10.0266
-10.1605
-10.3148
-10.4857
-10.6686
-10.8582
-11.0489
-11.235
-11.4104
-11.5692
-11.7054
-11.8132
-11.887
-11.9218
-11.9129
-11.8555
-11.7451
-11.577
-11.3462
-11.0484
-10.6804
-10.241
-9.73229
-9.16023
-8.53462
-7.86829
-7.17568
-6.47122
-5.76827
-5.07855
-4.41217
-3.77771
-3.18232
-2.63157
-2.12935
-1.67776
-1.27719
-0.926544
-0.623506
-0.364837
-0.146711
0.0349999
0.184478
0.305779
0.402704
0.478736
0.536992
0.580228
0.610842
0.630898
0.642176
0.646191
0.644183
0.637253
0.626394
0.61245
0.596048
0.5777
0.557838
0.536822
0.51495
0.492458
0.469537
0.446334
0.422962
0.399507
0.376037
0.352606
0.329255
0.306025
0.282949
0.26006
0.23739
0.214971
0.192827
0.171001
0.149486
0.12842
0.107587
0.0877809
0.0672623
0.0512634
0.0270188
0.0302124
-0.0330304
-9.72469
-9.73174
-9.73549
-9.73575
-9.73262
-9.72658
-9.71886
-9.71146
-9.70706
-9.70892
-9.72054
-9.74548
-9.78688
-9.84722
-9.92795
-10.0294
-10.1505
-10.2891
-10.4419
-10.6049
-10.7733
-10.942
-11.1059
-11.2594
-11.3971
-11.5134
-11.6029
-11.6601
-11.68
-11.6578
-11.5892
-11.4701
-11.2965
-11.0647
-10.7715
-10.414
-9.99113
-9.50424
-8.958
-8.36078
-7.72418
-7.06179
-6.38764
-5.71483
-5.05472
-4.4167
-3.80837
-3.23579
-2.70365
-2.21537
-1.77306
-1.37755
-1.0284
-0.724087
-0.462132
-0.239358
-0.0521453
0.103325
0.230852
0.334057
0.416286
0.480556
0.529542
0.565583
0.590705
0.606659
0.61495
0.616828
0.613391
0.605655
0.594492
0.580571
0.564429
0.546521
0.52723
0.506872
0.485705
0.463935
0.441725
0.419202
0.396465
0.373595
0.350656
0.327702
0.304784
0.281947
0.259234
0.236688
0.214351
0.192256
0.170455
0.148953
0.127889
0.107071
0.0872682
0.0668323
0.0508272
0.0269198
0.0298847
-0.0323792
-9.70831
-9.71535
-9.7197
-9.72138
-9.72058
-9.71787
-9.71434
-9.7117
-9.71224
-9.71862
-9.73375
-9.7605
-9.80147
-9.85866
-9.93326
-10.0255
-10.1346
-10.2585
-10.3945
-10.5388
-10.6873
-10.8354
-10.9783
-11.111
-11.2287
-11.3263
-11.3984
-11.44
-11.446
-11.4116
-11.3326
-11.2055
-11.027
-10.7946
-10.5057
-10.1584
-9.75149
-9.28579
-8.76482
-8.19548
-7.58797
-6.95481
-6.30946
-5.66479
-5.032
-4.42019
-3.83634
-3.28569
-2.77213
-2.29845
-1.8665
-1.47723
-1.13067
-0.825923
-0.561252
-0.334176
-0.141661
0.0196675
0.153306
0.262683
0.351022
0.421258
0.476002
0.517542
0.54786
0.568669
0.581449
0.587444
0.587739
0.583357
0.575189
0.563945
0.550188
0.534398
0.51698
0.498273
0.478553
0.458046
0.436929
0.415345
0.393406
0.371204
0.348817
0.32631
0.303745
0.281179
0.258668
0.236264
0.214021
0.191984
0.170212
0.148722
0.127656
0.106847
0.0870342
0.0666744
0.0506112
0.02708
0.0295344
-0.0311899
-9.69285
-9.69999
-9.70499
-9.70796
-9.70921
-9.7093
-9.70921
-9.71041
-9.7148
-9.7246
-9.74218
-9.76988
-9.80979
-9.86354
-9.93208
-10.0156
-10.1133
-10.2235
-10.3437
-10.4706
-10.6005
-10.7291
-10.8523
-10.9655
-11.0643
-11.144
-11.1998
-11.2267
-11.2196
-11.1739
-11.0856
-10.9514
-10.7688
-10.536
-10.2513
-9.91352
-9.52171
-9.07629
-8.57982
-8.03779
-7.45885
-6.85424
-6.23661
-5.61847
-5.011
-4.42326
-3.86202
-3.33206
-2.83659
-2.37779
-1.95705
-1.57518
-1.23239
-0.928232
-0.661595
-0.430681
-0.233098
-0.0660032
0.0737064
0.189208
0.283582
0.359692
0.420114
0.467109
0.502632
0.528367
0.545761
0.556044
0.560276
0.559463
0.554499
0.546129
0.534942
0.521439
0.506046
0.489127
0.470979
0.451845
0.431923
0.411367
0.390306
0.368844
0.347069
0.325061
0.302893
0.280634
0.258352
0.236112
0.213979
0.19201
0.170273
0.148798
0.127728
0.106923
0.0870865
0.0667941
0.0506203
0.0274961
0.0291541
-0.0294509
-9.67815
-9.68546
-9.69108
-9.6952
-9.69819
-9.70058
-9.70325
-9.70745
-9.71477
-9.72701
-9.74613
-9.77402
-9.81235
-9.86241
-9.92496
-10
-10.087
-10.1843
-10.2897
-10.4004
-10.5129
-10.6234
-10.7281
-10.823
-10.904
-10.9668
-11.007
-11.0199
-11.0007
-10.9447
-10.8482
-10.7079
-10.522
-10.2891
-10.0085
-9.67944
-9.30165
-8.87534
-8.40234
-7.88686
-7.33598
-6.75944
-6.1688
-5.57603
-4.99223
-4.42662
-3.88607
-3.37522
-2.89693
-2.45284
-2.04382
-1.67034
-1.33252
-1.03013
-0.762487
-0.528401
-0.326116
-0.15339
-0.00760506
0.114068
0.2145
0.296451
0.362467
0.414812
0.45545
0.486062
0.508083
0.522725
0.531025
0.533947
0.532376
0.527073
0.518643
0.507601
0.494394
0.479406
0.462957
0.445311
0.426684
0.407247
0.387144
0.366491
0.345391
0.323935
0.302208
0.280294
0.258272
0.23622
0.214216
0.192327
0.170634
0.149178
0.128105
0.1073
0.0874281
0.0671929
0.0508564
0.0281612
0.028736
-0.0271555
-9.66407
-9.67156
-9.67774
-9.68283
-9.68725
-9.69148
-9.69629
-9.70275
-9.71216
-9.72603
-9.74591
-9.77333
-9.80963
-9.8558
-9.91239
-9.97939
-10.0561
-10.1413
-10.233
-10.3285
-10.4247
-10.5184
-10.6059
-10.6836
-10.7478
-10.7946
-10.8201
-10.8198
-10.7892
-10.7239
-10.6201
-10.4749
-10.2864
-10.0539
-9.77716
-9.45626
-9.09131
-8.68276
-8.23196
-7.74204
-7.21856
-6.66965
-6.10553
-5.53738
-4.97605
-4.43094
-3.90923
-3.41578
-2.95339
-2.52338
-2.12618
-1.76177
-1.43001
-1.13061
-0.863107
-0.62675
-0.420353
-0.242279
-0.0904652
0.0374689
0.144083
0.231964
0.303586
0.361217
0.406856
0.442222
0.468771
0.487725
0.500112
0.506852
0.508805
0.506728
0.501229
0.492825
0.481972
0.469069
0.454456
0.438419
0.421191
0.402965
0.383899
0.364125
0.343759
0.322907
0.301667
0.280135
0.258405
0.236567
0.214711
0.192919
0.171281
0.149851
0.128777
0.107972
0.0880548
0.067866
0.0513167
0.0290636
0.028271
-0.0243065
-9.65046
-9.65811
-9.66475
-9.67063
-9.67616
-9.6818
-9.6882
-9.69626
-9.70706
-9.72182
-9.7418
-9.76821
-9.80208
-9.84419
-9.89489
-9.9541
-10.0212
-10.095
-10.1737
-10.255
-10.3363
-10.4142
-10.4857
-10.5474
-10.5959
-10.6277
-10.6391
-10.6263
-10.5851
-10.5114
-10.4013
-10.2521
-10.0619
-9.83032
-9.55745