/*--------------------------------*- C++ -*----------------------------------*\
| =========                 |                                                 |
| \\      /  F ield         | OpenFOAM: The Open Source CFD Toolbox           |
|  \\    /   O peration     | Version:  4.1                                   |
|   \\  /    A nd           | Web:      www.OpenFOAM.org                      |
|    \\/     M anipulation  |                                                 |
\*---------------------------------------------------------------------------*/
FoamFile
{
    version     2.0;
    format      ascii;
    class       surfaceScalarField;
    location    "100";
    object      phi;
}
// * * * * * * * * * * * * * * * * * * * * * * * * * * * * * * * * * * * * * //

dimensions      [0 3 -1 0 0 0 0];

internalField   nonuniform List<scalar> 
13452
(
6.02921e-05
-2.36412e-08
5.98979e-05
3.94188e-07
5.93104e-05
5.87535e-07
5.85593e-05
7.51091e-07
5.76928e-05
8.66521e-07
5.67867e-05
9.06045e-07
5.58873e-05
8.99403e-07
5.5015e-05
8.72363e-07
5.41799e-05
8.35083e-07
5.33881e-05
7.91731e-07
5.2643e-05
7.45141e-07
5.19456e-05
6.97386e-07
5.12958e-05
6.49846e-07
5.06923e-05
6.03426e-07
5.01336e-05
5.5873e-07
4.96175e-05
5.16151e-07
4.91415e-05
4.75912e-07
4.87034e-05
4.3811e-07
4.83007e-05
4.02742e-07
4.7931e-05
3.69734e-07
4.7592e-05
3.38959e-07
4.72818e-05
3.10254e-07
4.69983e-05
2.83421e-07
4.67401e-05
2.5824e-07
4.65056e-05
2.34465e-07
4.62938e-05
2.11824e-07
4.61038e-05
1.90035e-07
4.59351e-05
1.68713e-07
4.57872e-05
1.47872e-07
4.56609e-05
1.26284e-07
4.55524e-05
1.08543e-07
4.54623e-05
9.00238e-08
8.73851e-08
4.53749e-05
6.22178e-05
-2.51088e-07
6.23094e-05
3.02536e-07
6.24259e-05
4.71053e-07
6.25752e-05
6.01799e-07
6.27375e-05
7.04205e-07
6.28831e-05
7.60492e-07
6.29942e-05
7.88283e-07
6.30644e-05
8.02195e-07
6.30933e-05
8.06174e-07
6.30836e-05
8.01358e-07
6.30395e-05
7.89314e-07
6.29651e-05
7.71723e-07
6.2865e-05
7.49965e-07
6.27433e-05
7.25147e-07
6.26038e-05
6.98189e-07
6.24501e-05
6.69856e-07
6.22853e-05
6.40757e-07
6.2112e-05
6.11363e-07
6.19328e-05
5.82025e-07
6.17495e-05
5.52989e-07
6.1564e-05
5.24412e-07
6.13779e-05
4.96375e-07
6.11924e-05
4.68895e-07
6.10088e-05
4.41923e-07
6.08279e-05
4.15358e-07
6.06507e-05
3.8903e-07
6.0478e-05
3.6274e-07
6.03106e-05
3.36113e-07
6.01493e-05
3.09098e-07
5.99953e-05
2.80344e-07
5.98516e-05
2.52214e-07
5.97269e-05
2.14754e-07
1.81738e-07
5.96325e-05
6.36312e-05
-1.20928e-07
6.36864e-05
2.47421e-07
6.37574e-05
4.0002e-07
6.38548e-05
5.04387e-07
6.39633e-05
5.95721e-07
6.40671e-05
6.56708e-07
6.41622e-05
6.93118e-07
6.42489e-05
7.15537e-07
6.4327e-05
7.28051e-07
6.43964e-05
7.31967e-07
6.4457e-05
7.28706e-07
6.45089e-05
7.19795e-07
6.45524e-05
7.06491e-07
6.45878e-05
6.89783e-07
6.46155e-05
6.70489e-07
6.4636e-05
6.49299e-07
6.465e-05
6.26771e-07
6.4658e-05
6.03348e-07
6.46607e-05
5.79366e-07
6.46586e-05
5.55068e-07
6.46524e-05
5.30619e-07
6.46427e-05
5.0611e-07
6.463e-05
4.81566e-07
6.4615e-05
4.56947e-07
6.45982e-05
4.32152e-07
6.45802e-05
4.07005e-07
6.45617e-05
3.81272e-07
6.45432e-05
3.54555e-07
6.45258e-05
3.26533e-07
6.45101e-05
2.96038e-07
6.44992e-05
2.63074e-07
6.44921e-05
2.21912e-07
1.76824e-07
6.4497e-05
6.54961e-05
-3.39731e-08
6.55393e-05
2.04238e-07
6.55814e-05
3.57918e-07
6.56306e-05
4.5519e-07
6.56872e-05
5.39096e-07
6.57446e-05
5.99288e-07
6.58012e-05
6.36608e-07
6.58569e-05
6.59831e-07
6.59114e-05
6.73558e-07
6.5964e-05
6.79288e-07
6.60145e-05
6.7827e-07
6.60624e-05
6.71863e-07
6.61077e-05
6.61222e-07
6.61502e-05
6.47249e-07
6.619e-05
6.30687e-07
6.62271e-05
6.1216e-07
6.62617e-05
5.92178e-07
6.62939e-05
5.71143e-07
6.63239e-05
5.49358e-07
6.6352e-05
5.27044e-07
6.63782e-05
5.04343e-07
6.6403e-05
4.81332e-07
6.64266e-05
4.58019e-07
6.64492e-05
4.3435e-07
6.64711e-05
4.10206e-07
6.64927e-05
3.85389e-07
6.65144e-05
3.59627e-07
6.65364e-05
3.32498e-07
6.65594e-05
3.03521e-07
6.65838e-05
2.71659e-07
6.66107e-05
2.36185e-07
6.6639e-05
1.9365e-07
1.44689e-07
6.66711e-05
6.74176e-05
5.2181e-09
6.7438e-05
1.83843e-07
6.74642e-05
3.31661e-07
6.74962e-05
4.23277e-07
6.75366e-05
4.98617e-07
6.75805e-05
5.55397e-07
6.76249e-05
5.92186e-07
6.76693e-05
6.15433e-07
6.77134e-05
6.29474e-07
6.77568e-05
6.35882e-07
6.77993e-05
6.35824e-07
6.78406e-05
6.30561e-07
6.78806e-05
6.21183e-07
6.79193e-05
6.08542e-07
6.79567e-05
5.93334e-07
6.79927e-05
5.7614e-07
6.80274e-05
5.57434e-07
6.8061e-05
5.37588e-07
6.80935e-05
5.16883e-07
6.8125e-05
4.9552e-07
6.81557e-05
4.73625e-07
6.81858e-05
4.5126e-07
6.82154e-05
4.28422e-07
6.82447e-05
4.05044e-07
6.82739e-05
3.80994e-07
6.83032e-05
3.5606e-07
6.83329e-05
3.29953e-07
6.83632e-05
3.02246e-07
6.83943e-05
2.72405e-07
6.84264e-05
2.39543e-07
6.84598e-05
2.0277e-07
6.84935e-05
1.59919e-07
1.10764e-07
6.85275e-05
6.93641e-05
2.51463e-08
6.9376e-05
1.71988e-07
6.94005e-05
3.0707e-07
6.94291e-05
3.94707e-07
6.94637e-05
4.64051e-07
6.95013e-05
5.17789e-07
6.95395e-05
5.53957e-07
6.95779e-05
5.77081e-07
6.96162e-05
5.91126e-07
6.96543e-05
5.97783e-07
6.96919e-05
5.98204e-07
6.97289e-05
5.93575e-07
6.97652e-05
5.84929e-07
6.98006e-05
5.73079e-07
6.98353e-05
5.58684e-07
6.98691e-05
5.42291e-07
6.99022e-05
5.24347e-07
6.99346e-05
5.05201e-07
6.99664e-05
4.85115e-07
6.99976e-05
4.64275e-07
7.00285e-05
4.42797e-07
7.0059e-05
4.20731e-07
7.00893e-05
3.98067e-07
7.01197e-05
3.74732e-07
7.01501e-05
3.50589e-07
7.01807e-05
3.25429e-07
7.02117e-05
2.98962e-07
7.02431e-05
2.70787e-07
7.02751e-05
2.40395e-07
7.03076e-05
2.07054e-07
7.03404e-05
1.69971e-07
7.03726e-05
1.27781e-07
8.02167e-08
7.04031e-05
7.13552e-05
3.62569e-08
7.13654e-05
1.61804e-07
7.13896e-05
2.82871e-07
7.14171e-05
3.67221e-07
7.14487e-05
4.32436e-07
7.14831e-05
4.83423e-07
7.15182e-05
5.18806e-07
7.15536e-05
5.41726e-07
7.1589e-05
5.55698e-07
7.16243e-05
5.62484e-07
7.16593e-05
5.63231e-07
7.16938e-05
5.59055e-07
7.17278e-05
5.50939e-07
7.17612e-05
5.39664e-07
7.1794e-05
5.25858e-07
7.18263e-05
5.10044e-07
7.1858e-05
4.92643e-07
7.18892e-05
4.73988e-07
7.192e-05
4.54325e-07
7.19504e-05
4.3383e-07
7.19806e-05
4.12611e-07
7.20106e-05
3.90713e-07
7.20406e-05
3.68124e-07
7.20705e-05
3.44771e-07
7.21006e-05
3.20525e-07
7.21308e-05
2.95188e-07
7.21613e-05
2.68493e-07
7.2192e-05
2.40088e-07
7.22229e-05
2.09532e-07
7.22537e-05
1.7626e-07
7.2284e-05
1.39665e-07
7.23128e-05
9.8922e-08
5.39631e-08
7.23391e-05
7.33999e-05
4.16173e-08
7.34096e-05
1.52078e-07
7.34323e-05
2.60258e-07
7.34588e-05
3.4069e-07
7.34888e-05
4.02379e-07
7.35216e-05
4.50679e-07
7.35553e-05
4.85095e-07
7.35892e-05
5.07773e-07
7.36233e-05
5.21688e-07
7.36571e-05
5.28598e-07
7.36907e-05
5.29637e-07
7.37239e-05
5.25863e-07
7.37567e-05
5.1821e-07
7.37889e-05
5.07429e-07
7.38206e-05
4.94127e-07
7.38519e-05
4.78801e-07
7.38827e-05
4.61855e-07
7.3913e-05
4.43607e-07
7.39431e-05
4.24293e-07
7.39728e-05
4.04081e-07
7.40024e-05
3.83075e-07
7.40317e-05
3.6132e-07
7.40611e-05
3.38806e-07
7.40904e-05
3.15472e-07
7.41197e-05
2.91198e-07
7.41491e-05
2.65815e-07
7.41785e-05
2.39094e-07
7.42078e-05
2.10745e-07
7.42369e-05
1.80421e-07
7.42655e-05
1.47718e-07
7.42929e-05
1.12232e-07
7.43183e-05
7.35101e-08
3.17048e-08
7.43406e-05
7.55008e-05
4.32725e-08
7.55103e-05
1.4258e-07
7.55312e-05
2.39401e-07
7.55567e-05
3.15125e-07
7.55857e-05
3.73434e-07
7.56173e-05
4.19072e-07
7.56501e-05
4.52295e-07
7.56833e-05
4.74593e-07
7.57165e-05
4.88403e-07
7.57497e-05
4.95403e-07
7.57827e-05
4.96708e-07
7.58152e-05
4.93311e-07
7.58473e-05
4.86094e-07
7.5879e-05
4.7578e-07
7.59102e-05
4.62951e-07
7.59409e-05
4.48085e-07
7.59712e-05
4.31569e-07
7.60011e-05
4.13708e-07
7.60306e-05
3.94731e-07
7.60599e-05
3.74802e-07
7.6089e-05
3.54024e-07
7.61178e-05
3.32446e-07
7.61466e-05
3.10067e-07
7.61752e-05
2.86838e-07
7.62037e-05
2.62664e-07
7.62321e-05
2.37408e-07
7.62603e-05
2.10888e-07
7.62882e-05
1.82888e-07
7.63155e-05
1.53162e-07
7.63417e-05
1.21451e-07
7.63664e-05
8.75361e-08
7.63887e-05
5.12256e-08
1.28503e-08
7.64076e-05
7.76601e-05
4.27359e-08
7.76696e-05
1.33134e-07
7.76889e-05
2.20057e-07
7.77134e-05
2.90614e-07
7.77413e-05
3.45539e-07
7.77719e-05
3.88523e-07
7.78038e-05
4.20307e-07
7.78364e-05
4.42014e-07
7.78692e-05
4.55597e-07
7.7902e-05
4.62605e-07
7.79346e-05
4.64113e-07
7.79669e-05
4.61047e-07
7.79987e-05
4.54237e-07
7.80302e-05
4.44367e-07
7.80611e-05
4.31996e-07
7.80916e-05
4.17582e-07
7.81217e-05
4.01495e-07
7.81514e-05
3.8403e-07
7.81807e-05
3.6541e-07
7.82097e-05
3.45796e-07
7.82384e-05
3.25293e-07
7.82669e-05
3.03959e-07
7.82952e-05
2.81803e-07
7.83232e-05
2.58796e-07
7.8351e-05
2.34871e-07
7.83785e-05
2.09928e-07
7.84055e-05
1.8384e-07
7.8432e-05
1.56464e-07
7.84575e-05
1.2765e-07
7.84817e-05
9.72683e-08
7.85039e-05
6.52477e-08
7.85236e-05
3.158e-08
-3.28009e-09
7.85397e-05
7.98801e-05
4.09567e-08
7.98895e-05
1.23687e-07
7.99076e-05
2.01989e-07
7.9931e-05
2.67216e-07
7.99579e-05
3.18686e-07
7.99874e-05
3.59005e-07
8.00185e-05
3.89146e-07
8.00505e-05
4.10039e-07
8.00829e-05
4.23242e-07
8.01153e-05
4.30142e-07
8.01477e-05
4.3176e-07
8.01798e-05
4.28956e-07
8.02115e-05
4.22501e-07
8.02428e-05
4.1304e-07
8.02737e-05
4.01106e-07
8.03042e-05
3.87133e-07
8.03342e-05
3.71478e-07
8.03638e-05
3.54425e-07
8.0393e-05
3.36191e-07
8.04219e-05
3.16936e-07
8.04504e-05
2.9677e-07
8.04786e-05
2.75759e-07
8.05065e-05
2.53928e-07
8.0534e-05
2.31269e-07
8.05611e-05
2.07746e-07
8.05878e-05
1.833e-07
8.06137e-05
1.57857e-07
8.06389e-05
1.31344e-07
8.06628e-05
1.03697e-07
8.06852e-05
7.48903e-08
8.07055e-05
4.49678e-08
8.0723e-05
1.40434e-08
-1.73531e-08
8.07371e-05
8.21629e-05
3.8501e-08
8.21723e-05
1.14281e-07
8.21893e-05
1.84998e-07
8.22116e-05
2.44925e-07
8.22374e-05
2.92853e-07
8.22659e-05
3.30487e-07
8.22962e-05
3.58834e-07
8.23276e-05
3.78715e-07
8.23594e-05
3.91381e-07
8.23915e-05
3.98049e-07
8.24236e-05
3.9967e-07
8.24555e-05
3.97042e-07
8.24872e-05
3.90875e-07
8.25184e-05
3.81776e-07
8.25493e-05
3.70245e-07
8.25797e-05
3.56698e-07
8.26097e-05
3.41474e-07
8.26393e-05
3.24845e-07
8.26685e-05
3.07025e-07
8.26972e-05
2.88175e-07
8.27256e-05
2.68408e-07
8.27535e-05
2.47801e-07
8.27811e-05
2.26396e-07
8.28081e-05
2.04208e-07
8.28347e-05
1.81232e-07
8.28605e-05
1.57448e-07
8.28855e-05
1.32834e-07
8.29095e-05
1.07377e-07
8.29321e-05
8.10861e-08
8.2953e-05
5.40161e-08
8.29717e-05
2.62924e-08
8.29876e-05
-1.89428e-09
-2.99792e-08
8.30002e-05
8.45106e-05
3.57065e-08
8.45199e-05
1.04991e-07
8.45359e-05
1.68922e-07
8.45572e-05
2.23686e-07
8.4582e-05
2.68013e-07
8.46096e-05
3.02938e-07
8.4639e-05
3.29379e-07
8.46697e-05
3.48081e-07
8.4701e-05
3.60063e-07
8.47326e-05
3.66377e-07
8.47644e-05
3.67894e-07
8.47961e-05
3.65352e-07
8.48276e-05
3.59403e-07
8.48587e-05
3.50611e-07
8.48895e-05
3.39447e-07
8.49199e-05
3.26303e-07
8.49499e-05
3.11502e-07
8.49794e-05
2.95308e-07
8.50085e-05
2.77927e-07
8.50372e-05
2.59522e-07
8.50654e-05
2.40213e-07
8.50931e-05
2.20087e-07
8.51203e-05
1.99201e-07
8.51469e-05
1.77596e-07
8.51729e-05
1.55293e-07
8.5198e-05
1.32311e-07
8.52222e-05
1.08673e-07
8.52451e-05
8.44152e-08
8.52666e-05
5.96051e-08
8.52863e-05
3.43554e-08
8.53037e-05
8.84546e-09
8.53185e-05
-1.66924e-08
-4.1689e-08
8.53302e-05
8.69251e-05
3.2772e-08
8.69342e-05
9.58816e-08
8.69495e-05
1.53635e-07
8.69698e-05
2.03427e-07
8.69936e-05
2.44128e-07
8.70203e-05
2.76318e-07
8.70489e-05
3.0077e-07
8.70788e-05
3.18157e-07
8.71095e-05
3.29324e-07
8.71407e-05
3.3517e-07
8.71721e-05
3.36484e-07
8.72036e-05
3.33942e-07
8.72348e-05
3.2814e-07
8.72658e-05
3.19601e-07
8.72965e-05
3.08764e-07
8.73268e-05
2.95999e-07
8.73567e-05
2.81614e-07
8.73861e-05
2.6586e-07
8.74151e-05
2.48942e-07
8.74436e-05
2.3102e-07
8.74716e-05
2.12221e-07
8.74991e-05
1.92643e-07
8.75259e-05
1.7236e-07
8.75521e-05
1.51431e-07
8.75775e-05
1.29907e-07
8.76019e-05
1.07838e-07
8.76253e-05
8.52825e-08
8.76474e-05
6.23188e-08
8.7668e-05
3.90553e-08
8.76867e-05
1.56437e-08
8.77032e-05
-7.70627e-09
8.77173e-05
-3.07462e-08
-5.29247e-08
8.77285e-05
8.94085e-05
2.98113e-08
8.94174e-05
8.70053e-08
8.9432e-05
1.39042e-07
8.94513e-05
1.84069e-07
8.94743e-05
2.21154e-07
8.95e-05
2.5059e-07
8.95278e-05
2.7299e-07
8.9557e-05
2.88952e-07
8.95871e-05
2.99187e-07
8.96179e-05
3.04463e-07
8.96489e-05
3.05482e-07
8.96799e-05
3.02859e-07
8.97109e-05
2.97139e-07
8.97417e-05
2.888e-07
8.97723e-05
2.78254e-07
8.98024e-05
2.65846e-07
8.98322e-05
2.51868e-07
8.98614e-05
2.36561e-07
8.98903e-05
2.20124e-07
8.99186e-05
2.02719e-07
8.99463e-05
1.84477e-07
8.99734e-05
1.65506e-07
8.99999e-05
1.45895e-07
9.00256e-05
1.2572e-07
9.00505e-05
1.05057e-07
9.00743e-05
8.39803e-08
9.0097e-05
6.25783e-08
9.01184e-05
4.09582e-08
9.01382e-05
1.92563e-08
9.01562e-05
-2.35347e-09
9.01721e-05
-2.36491e-08
9.01858e-05
-4.43849e-08
-6.40418e-08
9.01969e-05
9.19628e-05
2.68875e-08
9.19714e-05
7.8394e-08
9.19854e-05
1.25073e-07
9.20039e-05
1.65538e-07
9.2026e-05
1.99042e-07
9.20509e-05
2.2571e-07
9.20779e-05
2.4601e-07
9.21064e-05
2.60461e-07
9.21359e-05
2.69666e-07
9.21661e-05
2.74278e-07
9.21966e-05
2.74918e-07
9.22273e-05
2.72142e-07
9.2258e-05
2.66442e-07
9.22886e-05
2.58258e-07
9.23189e-05
2.47968e-07
9.23488e-05
2.35897e-07
9.23784e-05
2.22318e-07
9.24075e-05
2.07463e-07
9.24361e-05
1.91525e-07
9.24641e-05
1.74667e-07
9.24916e-05
1.57023e-07
9.25184e-05
1.38709e-07
9.25444e-05
1.19826e-07
9.25697e-05
1.00466e-07
9.2594e-05
8.07223e-08
9.26173e-05
6.06901e-08
9.26394e-05
4.04779e-08
9.26602e-05
2.02124e-08
9.26794e-05
4.55979e-11
9.26969e-05
-1.98397e-08
9.27124e-05
-3.92232e-08
9.27259e-05
-5.78744e-08
-7.53152e-08
9.27372e-05
9.459e-05
2.40337e-08
9.45983e-05
7.00646e-08
9.46117e-05
1.11671e-07
9.46295e-05
1.4776e-07
9.46508e-05
1.77739e-07
9.46749e-05
2.01636e-07
9.47011e-05
2.198e-07
9.47289e-05
2.32672e-07
9.47578e-05
2.40762e-07
9.47874e-05
2.4463e-07
9.48175e-05
2.44818e-07
9.48479e-05
2.41821e-07
9.48782e-05
2.36088e-07
9.49085e-05
2.28015e-07
9.49385e-05
2.17951e-07
9.49682e-05
2.06197e-07
9.49975e-05
1.93011e-07
9.50263e-05
1.78613e-07
9.50547e-05
1.63191e-07
9.50824e-05
1.46905e-07
9.51096e-05
1.29893e-07
9.5136e-05
1.12276e-07
9.51617e-05
9.41646e-08
9.51865e-05
7.56633e-08
9.52103e-05
5.6877e-08
9.52331e-05
3.79158e-08
9.52547e-05
1.89008e-08
9.52749e-05
-3.05677e-11
9.52937e-05
-1.87206e-08
9.53108e-05
-3.69882e-08
9.53262e-05
-5.46243e-08
9.53398e-05
-7.14213e-08
-8.69468e-08
9.53514e-05
9.72923e-05
2.12653e-08
9.73003e-05
6.20211e-08
9.73132e-05
9.87902e-08
9.73303e-05
1.30673e-07
9.73508e-05
1.57192e-07
9.73742e-05
1.78325e-07
9.73996e-05
1.94327e-07
9.74267e-05
2.05565e-07
9.7455e-05
2.12473e-07
9.74841e-05
2.15525e-07
9.75137e-05
2.15195e-07
9.75436e-05
2.11921e-07
9.75736e-05
2.06104e-07
9.76035e-05
1.98103e-07
9.76333e-05
1.88238e-07
9.76627e-05
1.76786e-07
9.76917e-05
1.63987e-07
9.77203e-05
1.50051e-07
9.77483e-05
1.35159e-07
9.77757e-05
1.19466e-07
9.78025e-05
1.03113e-07
9.78286e-05
8.62239e-08
9.78538e-05
6.89154e-08
9.78782e-05
5.12998e-08
9.79016e-05
3.34901e-08
9.79239e-05
1.56045e-08
9.7945e-05
-2.22934e-09
9.79648e-05
-1.98713e-08
9.79833e-05
-3.71656e-08
9.80002e-05
-5.39405e-08
9.80156e-05
-7.00046e-08
9.80294e-05
-8.51772e-08
-9.90729e-08
9.80415e-05
0.000100072
1.85882e-08
0.00010008
5.42587e-08
0.000100092
8.63909e-08
0.000100108
1.14218e-07
0.000100128
1.37347e-07
0.000100151
1.55732e-07
0.000100176
1.69556e-07
0.000100202
1.79119e-07
0.00010023
1.84787e-07
0.000100258
1.86964e-07
0.000100287
1.86058e-07
0.000100317
1.82455e-07
0.000100346
1.76512e-07
0.000100376
1.68551e-07
0.000100405
1.5886e-07
0.000100434
1.47695e-07
0.000100463
1.35279e-07
0.000100491
1.21809e-07
0.000100519
1.07457e-07
0.000100546
9.23748e-08
0.000100573
7.6701e-08
0.000100598
6.05615e-08
0.000100623
4.40754e-08
0.000100647
2.73589e-08
0.00010067
1.05288e-08
0.000100692
-6.29387e-09
0.000100713
-2.29811e-08
0.000100732
-3.93955e-08
0.00010075
-5.53898e-08
0.000100767
-7.08057e-08
0.000100783
-8.5474e-08
0.000100797
-9.92416e-08
-1.1177e-07
0.00010081
0.000102931
1.60022e-08
0.000102938
4.67667e-08
0.00010295
7.44362e-08
0.000102966
9.83424e-08
0.000102985
1.18153e-07
0.000103007
1.3381e-07
0.000103031
1.45446e-07
0.000103057
1.53303e-07
0.000103084
1.57686e-07
0.000103112
1.58938e-07
0.000103141
1.57408e-07
0.00010317
1.53433e-07
0.000103199
1.47326e-07
0.000103228
1.39375e-07
0.000103257
1.29839e-07
0.000103286
1.1895e-07
0.000103314
1.06913e-07
0.000103342
9.39111e-08
0.00010337
8.01075e-08
0.000103396
6.56488e-08
0.000103422
5.06689e-08
0.000103448
3.52923e-08
0.000103472
1.96381e-08
0.000103496
3.82241e-09
0.000103518
-1.20381e-08
0.00010354
-2.78242e-08
0.00010356
-4.34119e-08
0.000103579
-5.86716e-08
0.000103597
-7.34678e-08
0.000103614
-8.76597e-08
0.00010363
-1.01101e-07
0.000103644
-1.13666e-07
-1.25062e-07
0.000103658
0.000105871
1.35042e-08
0.000105878
3.95305e-08
0.00010589
6.28915e-08
0.000105905
8.29958e-08
0.000105924
9.95566e-08
0.000105945
1.12513e-07
0.000105969
1.21958e-07
0.000105994
1.28085e-07
0.00010602
1.31148e-07
0.000106048
1.31434e-07
0.000106076
1.29239e-07
0.000106105
1.24855e-07
0.000106134
1.18554e-07
0.000106162
1.10589e-07
0.000106191
1.01191e-07
0.000106219
9.05673e-08
0.000106247
7.8906e-08
0.000106275
6.63753e-08
0.000106302
5.31271e-08
0.000106328
3.93003e-08
0.000106354
2.50231e-08
0.000106379
1.04161e-08
0.000106403
-4.40517e-09
0.000106426
-1.93274e-08
0.000106448
-3.42379e-08
0.000106469
-4.90228e-08
0.000106489
-6.35657e-08
0.000106509
-7.77481e-08
0.000106527
-9.14486e-08
0.000106543
-1.04545e-07
0.000106559
-1.16915e-07
0.000106574
-1.28458e-07
-1.38922e-07
0.000106588
0.000108896
1.10894e-08
0.000108903
3.2533e-08
0.000108914
5.17235e-08
0.000108929
6.81319e-08
0.000108947
8.15073e-08
0.000108968
9.17896e-08
0.000108991
9.90445e-08
0.000109015
1.03425e-07
0.000109041
1.0514e-07
0.000109068
1.04427e-07
0.000109096
1.01537e-07
0.000109124
9.67136e-08
0.000109152
9.01935e-08
0.000109181
8.21956e-08
0.000109209
7.29222e-08
0.000109237
6.25577e-08
0.000109265
5.12703e-08
0.000109292
3.92128e-08
0.000109318
2.6525e-08
0.000109344
1.33361e-08
0.00010937
-2.33625e-10
0.000109394
-1.40698e-08
0.000109418
-2.80629e-08
0.000109441
-4.21054e-08
0.000109462
-5.60915e-08
0.000109483
-6.99154e-08
0.000109503
-8.34711e-08
0.000109522
-9.66526e-08
0.00010954
-1.09355e-07
0.000109557
-1.21474e-07
0.000109573
-1.3291e-07
0.000109588
-1.43585e-07
-1.53286e-07
0.000109602
0.000112007
8.75227e-09
0.000112014
2.57568e-08
0.000112024
4.08999e-08
0.000112039
5.37057e-08
0.000112056
6.39534e-08
0.000112077
7.15877e-08
0.000112099
7.66563e-08
0.000112123
7.92794e-08
0.000112149
7.96252e-08
0.000112175
7.78888e-08
0.000112202
7.42758e-08
0.00011223
6.89917e-08
0.000112258
6.2234e-08
0.000112286
5.41896e-08
0.000112314
4.50324e-08
0.000112342
3.4923e-08
0.000112369
2.40095e-08
0.000112396
1.24281e-08
0.000112422
3.05201e-10
0.000112448
-1.22417e-08
0.000112472
-2.51016e-08
0.000112496
-3.8169e-08
0.00011252
-5.13422e-08
0.000112542
-6.45222e-08
0.000112564
-7.7612e-08
0.000112584
-9.05161e-08
0.000112604
-1.0314e-07
0.000112623
-1.15392e-07
0.000112641
-1.27183e-07
0.000112657
-1.38428e-07
0.000112674
-1.49045e-07
0.000112689
-1.5898e-07
-1.68051e-07
0.000112704
0.000115207
6.48715e-09
0.000115213
1.91842e-08
0.000115224
3.03896e-08
0.000115238
3.96731e-08
0.000115255
4.68422e-08
0.000115275
5.18511e-08
0.000115297
5.47371e-08
0.00011532
5.55941e-08
0.000115345
5.45554e-08
0.000115371
5.17766e-08
0.000115398
4.74236e-08
0.000115426
4.16625e-08
0.000115453
3.46552e-08
0.000115481
2.65563e-08
0.000115508
1.75114e-08
0.000115536
7.6569e-09
0.000115563
-2.88008e-09
0.000115589
-1.39807e-08
0.000115615
-2.55339e-08
0.00011564
-3.74346e-08
0.000115664
-4.95835e-08
0.000115688
-6.18853e-08
0.000115711
-7.42483e-08
0.000115733
-8.65834e-08
0.000115754
-9.88042e-08
0.000115775
-1.10827e-07
0.000115794
-1.22569e-07
0.000115813
-1.33954e-07
0.00011583
-1.44908e-07
0.000115847
-1.55362e-07
0.000115864
-1.65254e-07
0.000115879
-1.74546e-07
-1.83086e-07
0.000115894
0.000118498
4.28885e-09
0.000118504
1.27991e-08
0.000118515
2.01636e-08
0.000118528
2.5991e-08
0.000118545
3.01189e-08
0.000118564
3.25184e-08
0.000118586
3.32235e-08
0.000118609
3.23074e-08
0.000118634
2.98725e-08
0.00011866
2.60388e-08
0.000118686
2.09342e-08
0.000118713
1.46875e-08
0.00011874
7.42533e-09
0.000118768
-7.29837e-10
0.000118795
-9.66077e-09
0.000118822
-1.92561e-08
0.000118848
-2.94102e-08
0.000118874
-4.00229e-08
0.0001189
-5.09994e-08
0.000118925
-6.22488e-08
0.000118949
-7.36845e-08
0.000118972
-8.52229e-08
0.000118995
-9.67838e-08
0.000119016
-1.08289e-07
0.000119037
-1.19665e-07
0.000119057
-1.30838e-07
0.000119076
-1.41741e-07
0.000119095
-1.52309e-07
0.000119112
-1.62483e-07
0.000119129
-1.72211e-07
0.000119145
-1.81446e-07
0.000119161
-1.90164e-07
-1.98239e-07
0.000119176
0.000121883
2.15337e-09
0.00012189
6.58888e-09
0.0001219
1.01961e-08
0.000121913
1.26169e-08
0.000121929
1.37259e-08
0.000121948
1.35214e-08
0.00012197
1.20423e-08
0.000121993
9.34552e-09
0.000122017
5.50561e-09
0.000122042
6.09466e-10
0.000122069
-5.25137e-09
0.000122095
-1.19849e-08
0.000122122
-1.94998e-08
0.000122149
-2.77059e-08
0.000122176
-3.65149e-08
0.000122203
-4.5841e-08
0.000122229
-5.56011e-08
0.000122254
-6.57148e-08
0.000122279
-7.61041e-08
0.000122304
-8.6694e-08
0.000122328
-9.74112e-08
0.000122351
-1.08186e-07
0.000122373
-1.18949e-07
0.000122394
-1.29635e-07
0.000122415
-1.40182e-07
0.000122434
-1.50529e-07
0.000122453
-1.60622e-07
0.000122471
-1.70409e-07
0.000122489
-1.79845e-07
0.000122505
-1.8889e-07
0.000122521
-1.97512e-07
0.000122537
-2.05697e-07
-2.13343e-07
0.000122552
0.000125366
7.929e-11
0.000125372
5.47281e-10
0.000125381
4.67561e-10
0.000125394
-4.89837e-10
0.000125411
-2.39908e-09
0.000125429
-5.21711e-09
0.00012545
-8.8919e-09
0.000125473
-1.33798e-08
0.000125497
-1.8632e-08
0.000125522
-2.45932e-08
0.000125548
-3.12078e-08
0.000125575
-3.84215e-08
0.000125601
-4.61788e-08
0.000125628
-5.44225e-08
0.000125655
-6.30941e-08
0.000125681
-7.21342e-08
0.000125707
-8.14832e-08
0.000125732
-9.1081e-08
0.000125757
-1.00868e-07
0.000125781
-1.10785e-07
0.000125804
-1.20774e-07
0.000125827
-1.30778e-07
0.000125849
-1.40742e-07
0.00012587
-1.50612e-07
0.00012589
-1.60338e-07
0.000125909
-1.69873e-07
0.000125928
-1.79173e-07
0.000125946
-1.88199e-07
0.000125963
-1.96918e-07
0.000125979
-2.05302e-07
0.000125995
-2.13328e-07
0.00012601
-2.20994e-07
-2.28215e-07
0.000126025
0.000128947
-1.93012e-09
0.000128953
-5.31931e-09
0.000128962
-9.02991e-09
0.000128975
-1.33673e-08
0.000128991
-1.83244e-08
0.00012901
-2.37867e-08
0.000129031
-2.96806e-08
0.000129053
-3.59755e-08
0.000129077
-4.26469e-08
0.000129102
-4.96707e-08
0.000129128
-5.70288e-08
0.000129154
-6.47063e-08
0.000129181
-7.26855e-08
0.000129207
-8.09434e-08
0.000129234
-8.94527e-08
0.00012926
-9.81815e-08
0.000129285
-1.07094e-07
0.000129311
-1.16153e-07
0.000129335
-1.25315e-07
0.000129359
-1.3454e-07
0.000129382
-1.43784e-07
0.000129404
-1.53005e-07
0.000129425
-1.6216e-07
0.000129446
-1.71208e-07
0.000129466
-1.80111e-07
0.000129485
-1.88834e-07
0.000129503
-1.97344e-07
0.00012952
-2.05613e-07
0.000129537
-2.13618e-07
0.000129553
-2.21342e-07
0.000129568
-2.2877e-07
0.000129583
-2.35908e-07
-2.42689e-07
0.000129598
0.000132631
-3.86203e-09
0.000132637
-1.09803e-08
0.000132646
-1.82833e-08
0.000132659
-2.60483e-08
0.000132674
-3.41278e-08
0.000132693
-4.22939e-08
0.000132714
-5.04467e-08
0.000132736
-5.85719e-08
0.00013276
-6.66696e-08
0.000132785
-7.47486e-08
0.000132811
-8.28317e-08
0.000132837
-9.09472e-08
0.000132864
-9.91172e-08
0.00013289
-1.07355e-07
0.000132916
-1.15667e-07
0.000132942
-1.24048e-07
0.000132968
-1.3249e-07
0.000132993
-1.40975e-07
0.000133017
-1.49482e-07
0.00013304
-1.57986e-07
0.000133063
-1.66459e-07
0.000133085
-1.74874e-07
0.000133106
-1.83201e-07
0.000133126
-1.91411e-07
0.000133145
-1.99477e-07
0.000133164
-2.07374e-07
0.000133182
-2.15081e-07
0.000133199
-2.2258e-07
0.000133215
-2.29855e-07
0.00013323
-2.36897e-07
0.000133245
-2.43701e-07
0.00013326
-2.50273e-07
-2.5656e-07
0.000133274
0.00013642
-5.68478e-09
0.000136425
-1.63584e-08
0.000136434
-2.72423e-08
0.000136447
-3.85577e-08
0.000136463
-4.98997e-08
0.000136481
-6.08695e-08
0.000136502
-7.13447e-08
0.000136525
-8.13334e-08
0.000136549
-9.08609e-08
0.000136574
-9.99741e-08
0.0001366
-1.08747e-07
0.000136627
-1.17258e-07
0.000136653
-1.25572e-07
0.000136679
-1.33742e-07
0.000136706
-1.41808e-07
0.000136731
-1.49796e-07
0.000136757
-1.57723e-07
0.000136781
-1.65593e-07
0.000136805
-1.73405e-07
0.000136828
-1.81152e-07
0.000136851
-1.88822e-07
0.000136872
-1.96399e-07
0.000136893
-2.03868e-07
0.000136913
-2.11212e-07
0.000136932
-2.18414e-07
0.00013695
-2.2546e-07
0.000136967
-2.32337e-07
0.000136983
-2.39035e-07
0.000136999
-2.45548e-07
0.000137014
-2.51872e-07
0.000137028
-2.5801e-07
0.000137042
-2.63973e-07
-2.69723e-07
0.000137055
0.000140317
-7.32658e-09
0.000140322
-2.12825e-08
0.000140331
-3.57942e-08
0.000140343
-5.0915e-08
0.000140359
-6.57486e-08
0.000140378
-7.96663e-08
0.000140399
-9.25612e-08
0.000140422
-1.04474e-07
0.000140447
-1.15448e-07
0.000140472
-1.25574e-07
0.000140499
-1.3499e-07
0.000140525
-1.43833e-07
0.000140552
-1.52221e-07
0.000140578
-1.6025e-07
0.000140605
-1.67997e-07
0.00014063
-1.75522e-07
0.000140655
-1.82868e-07
0.00014068
-1.90062e-07
0.000140704
-1.97124e-07
0.000140727
-2.04062e-07
0.000140749
-2.1088e-07
0.00014077
-2.17576e-07
0.00014079
-2.24145e-07
0.000140809
-2.30583e-07
0.000140828
-2.36881e-07
0.000140845
-2.43035e-07
0.000140862
-2.4904e-07
0.000140878
-2.54893e-07
0.000140893
-2.60592e-07
0.000140907
-2.66141e-07
0.000140921
-2.71542e-07
0.000140934
-2.76806e-07
-2.81901e-07
0.000140946
0.000144326
-8.63022e-09
0.00014433
-2.53872e-08
0.000144338
-4.37103e-08
0.00014435
-6.31489e-08
0.000144366
-8.18491e-08
0.000144385
-9.89003e-08
0.000144407
-1.14302e-07
0.000144431
-1.28161e-07
0.000144456
-1.40556e-07
0.000144482
-1.51646e-07
0.000144509
-1.61649e-07
0.000144536
-1.70764e-07
0.000144563
-1.7916e-07
0.000144589
-1.8698e-07
0.000144616
-1.94341e-07
0.000144642
-2.01336e-07
0.000144667
-2.08034e-07
0.000144691
-2.14488e-07
0.000144715
-2.20737e-07
0.000144737
-2.26806e-07
0.000144759
-2.32713e-07
0.00014478
-2.38471e-07
0.0001448
-2.44085e-07
0.000144819
-2.49562e-07
0.000144837
-2.54902e-07
0.000144854
-2.60108e-07
0.00014487
-2.65183e-07
0.000144886
-2.7013e-07
0.0001449
-2.74955e-07
0.000144913
-2.79664e-07
0.000144926
-2.84267e-07
0.000144938
-2.88785e-07
-2.93198e-07
0.000144949
0.000148449
-9.237e-09
0.000148451
-2.79507e-08
0.000148458
-5.05679e-08
0.00014847
-7.5191e-08
0.000148487
-9.8374e-08
0.000148507
-1.19006e-07
0.00014853
-1.37219e-07
0.000148555
-1.53117e-07
0.000148581
-1.66849e-07
0.000148608
-1.78734e-07
0.000148635
-1.89125e-07
0.000148663
-1.98315e-07
0.00014869
-2.06538e-07
0.000148717
-2.13988e-07
0.000148744
-2.20824e-07
0.00014877
-2.2717e-07
0.000148795
-2.33122e-07
0.000148819
-2.38751e-07
0.000148842
-2.44112e-07
0.000148865
-2.49247e-07
0.000148886
-2.54187e-07
0.000148907
-2.58952e-07
0.000148926
-2.63561e-07
0.000148945
-2.68025e-07
0.000148962
-2.72356e-07
0.000148979
-2.76562e-07
0.000148994
-2.80651e-07
0.000149009
-2.8463e-07
0.000149022
-2.88507e-07
0.000149035
-2.92291e-07
0.000149046
-2.95987e-07
0.000149057
-2.99603e-07
-3.03124e-07
0.000149067
0.000152688
-8.13587e-09
0.000152688
-2.75369e-08
0.000152693
-5.61478e-08
0.000152705
-8.71225e-08
0.000152722
-1.14905e-07
0.000152742
-1.39215e-07
0.000152765
-1.60538e-07
0.000152791
-1.78779e-07
0.000152818
-1.94066e-07
0.000152846
-2.06872e-07
0.000152875
-2.17698e-07
0.000152903
-2.26936e-07
0.000152932
-2.34908e-07
0.00015296
-2.41879e-07
0.000152987
-2.48065e-07
0.000153013
-2.5363e-07
0.000153039
-2.58703e-07
0.000153064
-2.6338e-07
0.000153087
-2.67735e-07
0.00015311
-2.71826e-07
0.000153131
-2.75694e-07
0.000153152
-2.79372e-07
0.000153171
-2.82886e-07
0.000153189
-2.86256e-07
0.000153206
-2.89497e-07
0.000153222
-2.92625e-07
0.000153237
-2.95651e-07
0.000153251
-2.98588e-07
0.000153264
-3.01448e-07
0.000153276
-3.04245e-07
0.000153287
-3.06996e-07
0.000153297
-3.09727e-07
-3.12429e-07
0.000153307
0.000157046
-2.85516e-09
0.000157039
-1.98583e-08
0.000157042
-6.00297e-08
0.000157057
-1.01571e-07
0.000157077
-1.35469e-07
0.000157102
-1.63496e-07
0.000157128
-1.87107e-07
0.000157156
-2.06559e-07
0.000157184
-2.22402e-07
0.000157213
-2.3541e-07
0.000157241
-2.46191e-07
0.00015727
-2.55183e-07
0.000157297
-2.62745e-07
0.000157325
-2.69179e-07
0.000157351
-2.7472e-07
0.000157377
-2.7955e-07
0.000157402
-2.8381e-07
0.000157427
-2.87608e-07
0.00015745
-2.91032e-07
0.000157472
-2.94147e-07
0.000157494
-2.97004e-07
0.000157514
-2.99646e-07
0.000157533
-3.02104e-07
0.000157551
-3.04406e-07
0.000157568
-3.06572e-07
0.000157584
-3.08623e-07
0.000157599
-3.10573e-07
0.000157613
-3.12438e-07
0.000157626
-3.14227e-07
0.000157638
-3.15952e-07
0.000157648
-3.17617e-07
0.000157658
-3.1922e-07
-3.2076e-07
0.000157666
0.000161526
9.69193e-09
0.000161505
7.73178e-10
0.000161498
-5.23167e-08
0.000161502
-1.05663e-07
0.000161516
-1.50271e-07
0.00016154
-1.87436e-07
0.00016157
-2.17022e-07
0.000161603
-2.39537e-07
0.000161638
-2.56657e-07
0.000161672
-2.69949e-07
0.000161706
-2.80411e-07
0.00016174
-2.88711e-07
0.000161772
-2.95374e-07
0.000161804
-3.00798e-07
0.000161835
-3.05273e-07
0.000161864
-3.09007e-07
0.000161892
-3.12153e-07
0.00016192
-3.14827e-07
0.000161946
-3.17117e-07
0.000161971
-3.19092e-07
0.000161994
-3.20803e-07
0.000162017
-3.22291e-07
0.000162039
-3.23592e-07
0.000162059
-3.24731e-07
0.000162078
-3.25734e-07
0.000162096
-3.26621e-07
0.000162113
-3.2741e-07
0.000162129
-3.28119e-07
0.000162143
-3.28766e-07
0.000162157
-3.2937e-07
0.000162169
-3.29953e-07
0.00016218
-3.30546e-07
-3.3114e-07
0.000162191
0.0001661
6.36228e-08
0.000166096
4.44528e-09
0.000166113
-6.91202e-08
0.000166129
-1.21416e-07
0.000166144
-1.65734e-07
0.000166162
-2.05562e-07
0.000166184
-2.38425e-07
0.000166208
-2.64122e-07
0.000166236
-2.84244e-07
0.000166266
-3.00158e-07
0.000166298
-3.12722e-07
0.000166332
-3.22603e-07
0.000166367
-3.30372e-07
0.000166403
-3.36481e-07
0.000166439
-3.41265e-07
0.000166475
-3.44982e-07
0.00016651