/*--------------------------------*- C++ -*----------------------------------*\
| =========                 |                                                 |
| \\      /  F ield         | OpenFOAM: The Open Source CFD Toolbox           |
|  \\    /   O peration     | Version:  4.1                                   |
|   \\  /    A nd           | Web:      www.OpenFOAM.org                      |
|    \\/     M anipulation  |                                                 |
\*---------------------------------------------------------------------------*/
FoamFile
{
    version     2.0;
    format      ascii;
    class       volVectorField;
    location    "100";
    object      U;
}
// * * * * * * * * * * * * * * * * * * * * * * * * * * * * * * * * * * * * * //

dimensions      [0 1 -1 0 0 0 0];

internalField   nonuniform List<vector> 
6820
(
(7.316 -0.463594 0)
(7.31114 -0.449233 0)
(7.26531 -0.315615 0)
(7.17913 -0.205441 0)
(7.0748 -0.128593 0)
(6.9651 -0.0771291 0)
(6.8548 -0.0428905 0)
(6.74656 -0.0200089 0)
(6.64231 -0.00473017 0)
(6.54314 0.00533943 0)
(6.44956 0.011793 0)
(6.36177 0.0157239 0)
(6.27979 0.0178935 0)
(6.20356 0.0188382 0)
(6.13288 0.0189399 0)
(6.06753 0.0184722 0)
(6.00722 0.0176307 0)
(5.95166 0.0165549 0)
(5.90056 0.0153434 0)
(5.85361 0.0140646 0)
(5.81054 0.0127652 0)
(5.77108 0.0114755 0)
(5.73499 0.0102137 0)
(5.70207 0.00898882 0)
(5.67212 0.00780273 0)
(5.64498 0.00665118 0)
(5.62054 0.00552619 0)
(5.5987 0.00440924 0)
(5.57948 0.0033051 0)
(5.56257 0.00213958 0)
(5.54914 0.00106295 0)
(5.5344 0.000632916 0)
(5.53312 -0.00475245 0)
(7.3428 0.124508 0)
(7.36544 0.210889 0)
(7.37962 0.198743 0)
(7.39312 0.165725 0)
(7.41121 0.136318 0)
(7.43039 0.112936 0)
(7.44626 0.0948896 0)
(7.45712 0.0812569 0)
(7.4629 0.0709512 0)
(7.46395 0.0630298 0)
(7.46068 0.0568212 0)
(7.45357 0.0518634 0)
(7.44314 0.0478277 0)
(7.42991 0.0444764 0)
(7.41436 0.0416376 0)
(7.39693 0.0391873 0)
(7.37801 0.0370346 0)
(7.35795 0.0351121 0)
(7.33703 0.0333692 0)
(7.31553 0.0317666 0)
(7.29368 0.0302735 0)
(7.27165 0.0288643 0)
(7.24964 0.0275169 0)
(7.22777 0.026211 0)
(7.20617 0.0249266 0)
(7.18496 0.0236422 0)
(7.16424 0.0223359 0)
(7.14409 0.0209747 0)
(7.12465 0.0195553 0)
(7.1059 0.0179559 0)
(7.08839 0.0165287 0)
(7.07177 0.0141697 0)
(7.05952 0.0149994 0)
(7.32611 0.0048433 0)
(7.31951 -0.0105739 0)
(7.3261 -0.0226109 0)
(7.33751 -0.0194876 0)
(7.34983 -0.00949585 0)
(7.3622 0.000449664 0)
(7.37382 0.00874179 0)
(7.38432 0.0155238 0)
(7.39376 0.0209761 0)
(7.40223 0.0252379 0)
(7.40972 0.0284855 0)
(7.4162 0.0308993 0)
(7.42168 0.0326331 0)
(7.4262 0.0338125 0)
(7.42982 0.034542 0)
(7.43258 0.0349087 0)
(7.43455 0.0349842 0)
(7.4358 0.0348266 0)
(7.4364 0.0344824 0)
(7.43641 0.0339878 0)
(7.43592 0.0333703 0)
(7.43499 0.0326501 0)
(7.43368 0.0318399 0)
(7.43207 0.0309463 0)
(7.43022 0.0299695 0)
(7.4282 0.0289026 0)
(7.42609 0.0277332 0)
(7.42394 0.0264347 0)
(7.42186 0.0249894 0)
(7.41991 0.0233111 0)
(7.41835 0.0214371 0)
(7.41719 0.0189077 0)
(7.41705 0.0159539 0)
(7.32909 -0.00529829 0)
(7.32383 0.00296807 0)
(7.32885 0.0147331 0)
(7.33563 0.0243664 0)
(7.34158 0.0306838 0)
(7.34775 0.0341149 0)
(7.35419 0.0358703 0)
(7.36052 0.0368453 0)
(7.36667 0.0373931 0)
(7.37266 0.0376275 0)
(7.37844 0.0376197 0)
(7.38395 0.0374298 0)
(7.38916 0.0371006 0)
(7.39407 0.0366612 0)
(7.39868 0.0361338 0)
(7.40298 0.0355359 0)
(7.40698 0.0348814 0)
(7.41071 0.0341804 0)
(7.41418 0.0334395 0)
(7.41742 0.0326624 0)
(7.42045 0.0318497 0)
(7.4233 0.0309992 0)
(7.42599 0.0301053 0)
(7.42856 0.0291589 0)
(7.43104 0.0281467 0)
(7.43346 0.02705 0)
(7.43587 0.0258442 0)
(7.4383 0.0244923 0)
(7.4408 0.0229545 0)
(7.44343 0.0211364 0)
(7.44628 0.0189843 0)
(7.44933 0.0161122 0)
(7.45271 0.0125713 0)
(7.3315 -0.0013824 0)
(7.32878 0.0083045 0)
(7.33149 0.015867 0)
(7.33554 0.0197667 0)
(7.33945 0.0226784 0)
(7.34391 0.0251261 0)
(7.3488 0.027072 0)
(7.35369 0.0286458 0)
(7.35849 0.0299273 0)
(7.36324 0.0309248 0)
(7.36792 0.0316533 0)
(7.37248 0.0321445 0)
(7.3769 0.0324301 0)
(7.38118 0.0325366 0)
(7.38532 0.0324873 0)
(7.3893 0.0323034 0)
(7.39315 0.0320031 0)
(7.39686 0.0316014 0)
(7.40044 0.03111 0)
(7.40391 0.0305371 0)
(7.40729 0.0298874 0)
(7.41059 0.0291622 0)
(7.41383 0.0283589 0)
(7.41702 0.0274705 0)
(7.42019 0.0264852 0)
(7.42337 0.0253849 0)
(7.42656 0.0241445 0)
(7.42981 0.0227265 0)
(7.43314 0.0210836 0)
(7.43656 0.0191314 0)
(7.44012 0.0167836 0)
(7.44377 0.0138027 0)
(7.44745 0.0101514 0)
(7.33229 0.000720528 0)
(7.33092 0.00772288 0)
(7.33282 0.0133852 0)
(7.33614 0.0171103 0)
(7.33954 0.0205205 0)
(7.34329 0.0235024 0)
(7.34735 0.0257773 0)
(7.35144 0.0274881 0)
(7.3555 0.0287995 0)
(7.35953 0.0297758 0)
(7.36354 0.0304564 0)
(7.36749 0.0308856 0)
(7.37136 0.0311033 0)
(7.37515 0.0311411 0)
(7.37885 0.0310252 0)
(7.38247 0.0307778 0)
(7.38601 0.0304176 0)
(7.38946 0.0299592 0)
(7.39285 0.0294133 0)
(7.39618 0.028787 0)
(7.39945 0.0280839 0)
(7.40269 0.0273035 0)
(7.4059 0.0264416 0)
(7.4091 0.0254897 0)
(7.41231 0.0244341 0)
(7.41552 0.023255 0)
(7.41877 0.0219255 0)
(7.42207 0.0204074 0)
(7.42542 0.0186514 0)
(7.42882 0.0165831 0)
(7.43227 0.0141174 0)
(7.43571 0.0110974 0)
(7.43902 0.00746331 0)
(7.3326 0.00131492 0)
(7.33198 0.00681305 0)
(7.33365 0.0120943 0)
(7.33665 0.0160384 0)
(7.3398 0.0193813 0)
(7.34315 0.0221609 0)
(7.34674 0.0242699 0)
(7.3504 0.0258581 0)
(7.35404 0.0270772 0)
(7.35767 0.0279876 0)
(7.36129 0.0286239 0)
(7.36486 0.0290249 0)
(7.36838 0.0292263 0)
(7.37184 0.0292564 0)
(7.37525 0.0291386 0)
(7.37859 0.0288924 0)
(7.38187 0.0285342 0)
(7.3851 0.0280765 0)
(7.38829 0.0275284 0)
(7.39143 0.0268954 0)
(7.39454 0.0261797 0)
(7.39763 0.02538 0)
(7.4007 0.0244912 0)
(7.40378 0.0235038 0)
(7.40686 0.0224037 0)
(7.40995 0.0211713 0)
(7.41307 0.0197798 0)
(7.4162 0.0181934 0)
(7.41936 0.0163664 0)
(7.42253 0.0142368 0)
(7.42568 0.0117332 0)
(7.42873 0.00875134 0)
(7.43156 0.00524928 0)
(7.3328 0.00157722 0)
(7.33265 0.00636828 0)
(7.33417 0.0112283 0)
(7.33686 0.0150023 0)
(7.3398 0.0180879 0)
(7.34291 0.0206661 0)
(7.34625 0.0226882 0)
(7.34966 0.024237 0)
(7.35306 0.0254264 0)
(7.35645 0.0263144 0)
(7.35982 0.0269356 0)
(7.36316 0.0273263 0)
(7.36645 0.0275199 0)
(7.3697 0.0275436 0)
(7.37289 0.0274194 0)
(7.37604 0.0271656 0)
(7.37913 0.0267974 0)
(7.38219 0.0263265 0)
(7.3852 0.0257612 0)
(7.38819 0.0251064 0)
(7.39114 0.0243637 0)
(7.39408 0.0235315 0)
(7.39701 0.0226043 0)
(7.39994 0.0215729 0)
(7.40286 0.0204237 0)
(7.40579 0.0191379 0)
(7.40872 0.0176909 0)
(7.41166 0.0160509 0)
(7.41458 0.0141788 0)
(7.41746 0.0120256 0)
(7.42026 0.0095374 0)
(7.42292 0.00664757 0)
(7.42529 0.00333811 0)
(7.33292 0.00170107 0)
(7.33307 0.00599473 0)
(7.33445 0.0103533 0)
(7.33686 0.0138871 0)
(7.33961 0.0167859 0)
(7.34255 0.0192274 0)
(7.34569 0.0211807 0)
(7.34892 0.0226887 0)
(7.35216 0.0238433 0)
(7.35538 0.0247028 0)
(7.3586 0.0253028 0)
(7.36178 0.0256772 0)
(7.36492 0.0258575 0)
(7.36802 0.0258694 0)
(7.37107 0.0257338 0)
(7.37407 0.0254683 0)
(7.37703 0.0250869 0)
(7.37995 0.0246005 0)
(7.38284 0.0240167 0)
(7.38569 0.02334 0)
(7.38852 0.0225716 0)
(7.39133 0.0217097 0)
(7.39413 0.020749 0)
(7.39691 0.0196808 0)
(7.39969 0.0184925 0)
(7.40245 0.0171673 0)
(7.4052 0.0156836 0)
(7.40792 0.0140151 0)
(7.4106 0.0121303 0)
(7.4132 0.00999307 0)
(7.41569 0.00756655 0)
(7.41799 0.00481165 0)
(7.41998 0.0017315 0)
(7.33299 0.00171864 0)
(7.33331 0.00560795 0)
(7.33459 0.00951768 0)
(7.33676 0.0128188 0)
(7.33932 0.0155535 0)
(7.3421 0.0178561 0)
(7.34506 0.0197197 0)
(7.34813 0.0211716 0)
(7.35122 0.0222843 0)
(7.35432 0.023112 0)
(7.35741 0.0236889 0)
(7.36048 0.024046 0)
(7.36351 0.0242125 0)
(7.3665 0.0242125 0)
(7.36944 0.0240658 0)
(7.37234 0.0237889 0)
(7.3752 0.0233949 0)
(7.37802 0.0228939 0)
(7.3808 0.0222931 0)
(7.38355 0.0215965 0)
(7.38628 0.0208052 0)
(7.38898 0.0199177 0)
(7.39165 0.0189291 0)
(7.39431 0.0178317 0)
(7.39695 0.0166146 0)
(7.39955 0.0152635 0)
(7.40213 0.0137607 0)
(7.40466 0.0120857 0)
(7.40711 0.0102151 0)
(7.40946 0.00812479 0)
(7.41166 0.00579264 0)
(7.41366 0.00319976 0)
(7.41534 0.000365643 0)
(7.33302 0.00166926 0)
(7.33343 0.00521932 0)
(7.33464 0.00874293 0)
(7.33661 0.0118058 0)
(7.33899 0.0143702 0)
(7.34159 0.0165286 0)
(7.34439 0.0182918 0)
(7.3473 0.0196791 0)
(7.35027 0.020745 0)
(7.35325 0.0215368 0)
(7.35622 0.0220873 0)
(7.35919 0.0224246 0)
(7.36212 0.0225755 0)
(7.36501 0.0225624 0)
(7.36787 0.0224039 0)
(7.37068 0.0221153 0)
(7.37346 0.0217089 0)
(7.37619 0.0211943 0)
(7.37889 0.0205781 0)
(7.38156 0.0198642 0)
(7.38419 0.0190538 0)
(7.38679 0.0181457 0)
(7.38936 0.017136 0)
(7.3919 0.0160181 0)
(7.39441 0.0147833 0)
(7.39688 0.0134202 0)
(7.3993 0.0119155 0)
(7.40164 0.0102542 0)
(7.4039 0.008421 0)
(7.40603 0.0064018 0)
(7.408 0.00418687 0)
(7.40975 0.0017718 0)
(7.41119 -0.00081245 0)
(7.33304 0.00158308 0)
(7.33349 0.00483367 0)
(7.33463 0.00801804 0)
(7.33643 0.0108399 0)
(7.33863 0.0132299 0)
(7.34108 0.0152447 0)
(7.34371 0.0169018 0)
(7.34648 0.0182162 0)
(7.34931 0.0192282 0)
(7.35217 0.0199787 0)
(7.35504 0.0204978 0)
(7.3579 0.0208115 0)
(7.36073 0.0209437 0)
(7.36354 0.0209152 0)
(7.36631 0.0207434 0)
(7.36905 0.0204424 0)
(7.37174 0.0200238 0)
(7.3744 0.0194965 0)
(7.37702 0.0188667 0)
(7.37961 0.0181383 0)
(7.38216 0.0173128 0)
(7.38467 0.0163895 0)
(7.38714 0.0153656 0)
(7.38958 0.0142361 0)
(7.39197 0.0129945 0)
(7.39431 0.0116324 0)
(7.39658 0.0101408 0)
(7.39877 0.00851033 0)
(7.40085 0.00673248 0)
(7.4028 0.00480166 0)
(7.40457 0.00271763 0)
(7.40613 0.000486095 0)
(7.40739 -0.00185461 0)
(7.33305 0.0014778 0)
(7.33351 0.0044525 0)
(7.33458 0.00733375 0)
(7.33623 0.00991911 0)
(7.33828 0.0121334 0)
(7.34057 0.0140048 0)
(7.34305 0.0155509 0)
(7.34567 0.0167846 0)
(7.34837 0.0177362 0)
(7.35111 0.0184397 0)
(7.35387 0.0189225 0)
(7.35663 0.0192083 0)
(7.35937 0.0193184 0)
(7.36209 0.019272 0)
(7.36478 0.019085 0)
(7.36743 0.0187706 0)
(7.37005 0.0183394 0)
(7.37263 0.0178 0)
(7.37518 0.0171582 0)
(7.37768 0.016418 0)
(7.38015 0.0155813 0)
(7.38257 0.014648 0)
(7.38495 0.0136165 0)
(7.38729 0.0124836 0)
(7.38957 0.0112448 0)
(7.39179 0.00989516 0)
(7.39393 0.00842937 0)
(7.39598 0.00684296 0)
(7.39791 0.00513339 0)
(7.3997 0.00330167 0)
(7.40132 0.00135454 0)
(7.40272 -0.000695687 0)
(7.40387 -0.00280658 0)
(7.33305 0.00136363 0)
(7.3335 0.00407806 0)
(7.33451 0.00668433 0)
(7.33604 0.0090413 0)
(7.33794 0.0110792 0)
(7.34009 0.012807 0)
(7.34243 0.0142386 0)
(7.34491 0.0153856 0)
(7.34748 0.0162708 0)
(7.3501 0.0169222 0)
(7.35274 0.0173642 0)
(7.35539 0.0176178 0)
(7.35804 0.0177025 0)
(7.36067 0.0176355 0)
(7.36327 0.0174313 0)
(7.36585 0.0171022 0)
(7.36838 0.0166581 0)
(7.37089 0.016107 0)
(7.37335 0.0154547 0)
(7.37578 0.0147052 0)
(7.37816 0.0138608 0)
(7.3805 0.0129223 0)
(7.38279 0.0118892 0)
(7.38502 0.01076 0)
(7.3872 0.00953251 0)
(7.38931 0.00820455 0)
(7.39133 0.00677437 0)
(7.39325 0.00524164 0)
(7.39505 0.00360848 0)
(7.39671 0.00188086 0)
(7.39821 7.02575e-05 0)
(7.39951 -0.00180699 0)
(7.40057 -0.00370702 0)
(7.33305 0.00124651 0)
(7.33349 0.00371256 0)
(7.33444 0.00606549 0)
(7.33585 0.00820322 0)
(7.33761 0.0100656 0)
(7.33963 0.0116494 0)
(7.34183 0.0129642 0)
(7.34418 0.0140197 0)
(7.34662 0.0148334 0)
(7.34913 0.0154281 0)
(7.35166 0.015825 0)
(7.35421 0.0160428 0)
(7.35676 0.0160989 0)
(7.3593 0.0160086 0)
(7.36181 0.0157854 0)
(7.3643 0.0154405 0)
(7.36676 0.0149832 0)
(7.36918 0.0144209 0)
(7.37156 0.0137594 0)
(7.37391 0.0130029 0)
(7.3762 0.0121541 0)
(7.37846 0.0112146 0)
(7.38065 0.0101851 0)
(7.3828 0.00906568 0)
(7.38487 0.00785633 0)
(7.38687 0.00655728 0)
(7.38878 0.00516974 0)
(7.39059 0.00369671 0)
(7.39229 0.00214383 0)
(7.39384 0.000520492 0)
(7.39524 -0.00115886 0)
(7.39646 -0.00287596 0)
(7.39747 -0.00458737 0)
(7.33305 0.00112977 0)
(7.33347 0.00335753 0)
(7.33435 0.00547388 0)
(7.33567 0.00740158 0)
(7.33731 0.00909039 0)
(7.3392 0.0105304 0)
(7.34128 0.0117267 0)
(7.3435 0.0126869 0)
(7.34582 0.0134249 0)
(7.34821 0.0139588 0)
(7.35064 0.0143068 0)
(7.35308 0.0144854 0)
(7.35554 0.0145099 0)
(7.35798 0.0143941 0)
(7.36041 0.0141502 0)
(7.36281 0.0137885 0)
(7.36518 0.0133177 0)
(7.36752 0.0127448 0)
(7.36982 0.0120755 0)
(7.37208 0.011314 0)
(7.3743 0.0104637 0)
(7.37646 0.00952696 0)
(7.37857 0.00850553 0)
(7.38062 0.00740099 0)
(7.3826 0.00621504 0)
(7.3845 0.00495004 0)
(7.38631 0.00360959 0)
(7.38802 0.00219915 0)
(7.38962 0.000726847 0)
(7.39109 -0.000795784 0)
(7.39241 -0.00235281 0)
(7.39357 -0.00392556 0)
(7.39456 -0.00547236 0)
(7.33304 0.00101526 0)
(7.33344 0.00301384 0)
(7.33427 0.00490691 0)
(7.3355 0.00663326 0)
(7.33703 0.00815131 0)
(7.33881 0.00944803 0)
(7.34076 0.0105247 0)
(7.34287 0.011387 0)
(7.34507 0.0120457 0)
(7.34735 0.0125152 0)
(7.34967 0.0128109 0)
(7.35202 0.0129472 0)
(7.35437 0.0129376 0)
(7.35672 0.0127943 0)
(7.35906 0.0125284 0)
(7.36138 0.0121491 0)
(7.36366 0.0116646 0)
(7.36592 0.0110816 0)
(7.36814 0.0104057 0)
(7.37031 0.0096413 0)
(7.37244 0.00879215 0)
(7.37452 0.00786133 0)
(7.37654 0.00685161 0)
(7.3785 0.00576578 0)
(7.38039 0.00460703 0)
(7.3822 0.00337938 0)
(7.38392 0.00208816 0)
(7.38554 0.000740593 0)
(7.38706 -0.000653665 0)
(7.38845 -0.00208198 0)
(7.38972 -0.00352809 0)
(7.39085 -0.00497395 0)
(7.39183 -0.00638061 0)
(7.33304 0.000903866 0)
(7.33342 0.00268182 0)
(7.33419 0.00436248 0)
(7.33534 0.00589543 0)
(7.33678 0.00724607 0)
(7.33844 0.00840035 0)
(7.34029 0.00935671 0)
(7.34228 0.0101191 0)
(7.34437 0.0106955 0)
(7.34654 0.0110977 0)
(7.34876 0.0113383 0)
(7.35101 0.0114297 0)
(7.35327 0.0113837 0)
(7.35553 0.0112112 0)
(7.35778 0.0109219 0)
(7.36001 0.0105245 0)
(7.36221 0.0100263 0)
(7.36438 0.00943387 0)
(7.36652 0.00875252 0)
(7.36861 0.00798693 0)
(7.37065 0.00714117 0)
(7.37264 0.00621891 0)
(7.37458 0.00522375 0)
(7.37645 0.00415945 0)
(7.37825 0.00303034 0)
(7.37998 0.00184164 0)
(7.38162 0.000599901 0)
(7.38317 -0.000686599 0)
(7.38461 -0.00200745 0)
(7.38595 -0.00334978 0)
(7.38717 -0.00469781 0)
(7.38827 -0.00603487 0)
(7.38925 -0.00732522 0)
(7.33304 0.000795997 0)
(7.33339 0.00236139 0)
(7.33412 0.00383883 0)
(7.33519 0.00518552 0)
(7.33654 0.00637233 0)
(7.3381 0.0073854 0)
(7.33985 0.00822128 0)
(7.34173 0.00888216 0)
(7.34372 0.00937418 0)
(7.34579 0.00970646 0)
(7.34791 0.00988948 0)
(7.35006 0.00993379 0)
(7.35223 0.00984955 0)
(7.3544 0.0096463 0)
(7.35656 0.00933273 0)
(7.3587 0.00891663 0)
(7.36082 0.00840488 0)
(7.36291 0.00780351 0)
(7.36496 0.00711783 0)
(7.36697 0.00635257 0)
(7.36893 0.00551207 0)
(7.37084 0.00460046 0)
(7.37269 0.00362193 0)
(7.37448 0.002581 0)
(7.3762 0.00148277 0)
(7.37785 0.000333257 0)
(7.37942 -0.000860281 0)
(7.38089 -0.00208909 0)
(7.38228 -0.00334264 0)
(7.38357 -0.00460845 0)
(7.38476 -0.00587182 0)
(7.38584 -0.00711784 0)
(7.38683 -0.0083143 0)
(7.33304 0.00069174 0)
(7.33337 0.00205219 0)
(7.33405 0.00333436 0)
(7.33506 0.00450118 0)
(7.33632 0.00552782 0)
(7.33779 0.00640118 0)
(7.33944 0.00711667 0)
(7.34123 0.00767509 0)
(7.34312 0.00808093 0)
(7.34509 0.0083413 0)
(7.34711 0.00846472 0)
(7.34917 0.00846004 0)
(7.35125 0.00833596 0)
(7.35333 0.00810077 0)
(7.3554 0.00776214 0)
(7.35746 0.00732707 0)
(7.3595 0.00680186 0)
(7.36151 0.00619216 0)
(7.36348 0.00550313 0)
(7.3654 0.00473949 0)
(7.36728 0.00390574 0)
(7.36911 0.00300632 0)
(7.37089 0.00204583 0)
(7.3726 0.00102923 0)
(7.37424 -3.78705e-05 0)
(7.37582 -0.00114905 0)
(7.37731 -0.0022968 0)
(7.37873 -0.00347236 0)
(7.38006 -0.00466558 0)
(7.38131 -0.00586479 0)
(7.38247 -0.00705672 0)
(7.38354 -0.00822846 0)
(7.38454 -0.00935143 0)
(7.33303 0.00059102 0)
(7.33334 0.00175367 0)
(7.33399 0.00284758 0)
(7.33493 0.00384026 0)
(7.33612 0.00471028 0)
(7.33751 0.00544559 0)
(7.33907 0.00604106 0)
(7.34076 0.00649642 0)
(7.34256 0.0068148 0)
(7.34444 0.00700168 0)
(7.34637 0.00706386 0)
(7.34834 0.00700869 0)
(7.35033 0.00684351 0)
(7.35232 0.00657544 0)
(7.35432 0.00621118 0)
(7.35629 0.00575696 0)
(7.35825 0.00521849 0)
(7.36017 0.00460104 0)
(7.36206 0.00390951 0)
(7.36391 0.00314855 0)
(7.36572 0.00232271 0)
(7.36747 0.00143657 0)
(7.36916 0.000494914 0)
(7.3708 -0.000497045 0)
(7.37237 -0.00153354 0)
(7.37388 -0.00260806 0)
(7.37531 -0.0037132 0)
(7.37668 -0.00484057 0)
(7.37796 -0.0059807 0)
(7.37917 -0.00712308 0)
(7.38031 -0.00825603 0)
(7.38137 -0.00936874 0)
(7.38237 -0.0104362 0)
(7.33303 0.000493672 0)
(7.33332 0.00146516 0)
(7.33393 0.00237707 0)
(7.33482 0.00320072 0)
(7.33594 0.00391747 0)
(7.33725 0.00451647 0)
(7.33872 0.00499248 0)
(7.34033 0.00534448 0)
(7.34204 0.0055745 0)
(7.34383 0.00568668 0)
(7.34568 0.00568638 0)
(7.34757 0.00557956 0)
(7.34947 0.00537233 0)
(7.35139 0.0050707 0)
(7.3533 0.00468046 0)
(7.35519 0.00420705 0)
(7.35707 0.0036556 0)
(7.35892 0.00303095 0)
(7.36073 0.0023377 0)
(7.3625 0.00158032 0)
(7.36423 0.00076326 0)
(7.36591 -0.000108899 0)
(7.36753 -0.00103135 0)
(7.36909 -0.0019989 0)
(7.3706 -0.00300584 0)
(7.37204 -0.00404587 0)
(7.37342 -0.00511196 0)
(7.37473 -0.00619633 0)
(7.37597 -0.00729045 0)
(7.37714 -0.00838512 0)
(7.37826 -0.00947036 0)
(7.3793 -0.0105374 0)
(7.38031 -0.0115646 0)
(7.33303 0.000399483 0)
(7.33331 0.00118596 0)
(7.33387 0.00192147 0)
(7.33471 0.00258062 0)
(7.33577 0.00314717 0)
(7.33701 0.00361156 0)
(7.33841 0.00396877 0)
(7.33994 0.00421732 0)
(7.34157 0.0043584 0)
(7.34328 0.00439503 0)
(7.34505 0.00433134 0)
(7.34685 0.00417204 0)
(7.34868 0.0039221 0)
(7.35051 0.00358651 0)
(7.35235 0.00317013 0)
(7.35417 0.00267767 0)
(7.35596 0.00211364 0)
(7.35774 0.00148237 0)
(7.35947 0.000788107 0)
(7.36117 3.50497e-05 0)
(7.36282 -0.000772545 0)
(7.36443 -0.00163027 0)
(7.36598 -0.00253348 0)
(7.36748 -0.00347717 0)
(7.36892 -0.00445593 0)
(7.3703 -0.00546383 0)
(7.37162 -0.00649445 0)
(7.37288 -0.0075408 0)
(7.37408 -0.00859545 0)
(7.37522 -0.00965055 0)
(7.37631 -0.0106978 0)
(7.37734 -0.0117303 0)
(7.37834 -0.0127297 0)
(7.33303 0.000308225 0)
(7.33329 0.000915324 0)
(7.33382 0.00147945 0)
(7.33462 0.00197806 0)
(7.33562 0.00239714 0)
(7.33679 0.00272846 0)
(7.33813 0.00296753 0)
(7.33958 0.00311269 0)
(7.34114 0.00316448 0)
(7.34277 0.003125 0)
(7.34446 0.00299731 0)
(7.34619 0.00278503 0)
(7.34794 0.00249205 0)
(7.34971 0.00212235 0)
(7.35146 0.00167993 0)
(7.35321 0.00116872 0)
(7.35494 0.000592591 0)
(7.35663 -4.46455e-05 0)
(7.3583 -0.000739193 0)
(7.35993 -0.00148722 0)
(7.36151 -0.00228477 0)
(7.36304 -0.00312775 0)
(7.36453 -0.00401181 0)
(7.36596 -0.00493231 0)
(7.36734 -0.00588425 0)
(7.36867 -0.0068623 0)
(7.36993 -0.00786073 0)
(7.37114 -0.00887351 0)
(7.3723 -0.00989431 0)
(7.37341 -0.0109167 0)
(7.37446 -0.0119339 0)
(7.37548 -0.0129407 0)
(7.37646 -0.0139217 0)
(7.33303 0.000219678 0)
(7.33327 0.000652564 0)
(7.33378 0.00104974 0)
(7.33453 0.0013912 0)
(7.33548 0.00166503 0)
(7.3366 0.00186458 0)
(7.33787 0.00198608 0)
(7.33926 0.00202794 0)
(7.34075 0.00199025 0)
(7.34231 0.00187435 0)
(7.34393 0.00168237 0)
(7.34559 0.00141691 0)
(7.34727 0.00108083 0)
(7.34896 0.000677166 0)
(7.35065 0.000209039 0)
(7.35233 -0.000320396 0)
(7.35398 -0.000907955 0)
(7.35561 -0.00155041 0)
(7.35721 -0.00224447 0)
(7.35877 -0.00298675 0)
(7.36028 -0.00377374 0)
(7.36175 -0.0046017 0)
(7.36318 -0.00546674 0)
(7.36455 -0.00636468 0)
(7.36587 -0.00729109 0)
(7.36713 -0.0082413 0)
(7.36835 -0.00921041 0)
(7.36951 -0.0101933 0)
(7.37062 -0.0111849 0)
(7.37169 -0.0121798 0)
(7.37272 -0.013173 0)
(7.3737 -0.0141607 0)
(7.37467 -0.01513 0)
(7.33303 0.000133656 0)
(7.33326 0.000397068 0)
(7.33374 0.00063117 0)
(7.33445 0.000818193 0)
(7.33535 0.000948426 0)
(7.33642 0.00101704 0)
(7.33763 0.00102135 0)
(7.33897 0.000959957 0)
(7.3404 0.000832686 0)
(7.3419 0.000640255 0)
(7.34346 0.00038395 0)
(7.34505 6.54032e-05 0)
(7.34667 -0.0003135 0)
(7.34829 -0.000750674 0)
(7.34991 -0.00124388 0)
(7.35153 -0.00179076 0)
(7.35312 -0.00238884 0)
(7.35468 -0.00303553 0)
(7.35621 -0.00372811 0)
(7.3577 -0.00446372 0)
(7.35915 -0.00523934 0)
(7.36056 -0.00605175 0)
(7.36192 -0.00689755 0)
(7.36323 -0.00777315 0)
(7.36449 -0.00867476 0)
(7.3657 -0.00959844 0)
(7.36687 -0.0105401 0)
(7.36798 -0.0114957 0)
(7.36905 -0.012461 0)
(7.37007 -0.0134322 0)
(7.37106 -0.0144052 0)
(7.37201 -0.0153777 0)
(7.37295 -0.016339 0)
(7.33302 5.0046e-05 0)
(7.33324 0.000148416 0)
(7.3337 0.000222763 0)
(7.33437 0.000257256 0)
(7.33524 0.00024472 0)
(7.33626 0.000182674 0)
(7.33742 6.977e-05 0)
(7.33871 -9.49716e-05 0)
(7.34008 -0.000311904 0)
(7.34153 -0.000580818 0)
(7.34303 -0.000901213 0)
(7.34457 -0.00127241 0)
(7.34613 -0.00169353 0)
(7.34769 -0.00216345 0)
(7.34925 -0.00268086 0)
(7.3508 -0.00324423 0)
(7.35233 -0.00385185 0)
(7.35383 -0.00450181 0)
(7.3553 -0.005192 0)
(7.35673 -0.00592016 0)
(7.35812 -0.0066838 0)
(7.35947 -0.00748029 0)
(7.36077 -0.00830679 0)
(7.36202 -0.00916033 0)
(7.36322 -0.0100378 0)
(7.36438 -0.010936 0)
(7.36549 -0.0118518 0)
(7.36656 -0.0127818 0)
(7.36758 -0.013723 0)
(7.36856 -0.0146725 0)
(7.3695 -0.0156276 0)
(7.37041 -0.0165868 0)
(7.37131 -0.0175415 0)
(7.33302 -3.11194e-05 0)
(7.33323 -9.34544e-05 0)
(7.33366 -0.00017614 0)
(7.3343 -0.000293332 0)
(7.33513 -0.000448916 0)
(7.33611 -0.000642203 0)
(7.33724 -0.000872829 0)
(7.33848 -0.00114129 0)
(7.33981 -0.00144803 0)
(7.34121 -0.00179329 0)
(7.34266 -0.00217732 0)
(7.34415 -0.0026004 0)
(7.34565 -0.00306264 0)
(7.34716 -0.0035639 0)
(7.34867 -0.00410381 0)
(7.35016 -0.00468173 0)
(7.35163 -0.00529676 0)
(7.35308 -0.00594776 0)
(7.35449 -0.00663332 0)
(7.35586 -0.00735181 0)
(7.35719 -0.00810141 0)
(7.35848 -0.00888007 0)
(7.35972 -0.00968561 0)
(7.36092 -0.0105157 0)
(7.36207 -0.011368 0)
(7.36317 -0.01224 0)
(7.36423 -0.0131292 0)
(7.36524 -0.0140334 0)
(7.36621 -0.0149503 0)
(7.36715 -0.0158779 0)
(7.36804 -0.0168145 0)
(7.36891 -0.0177596 0)
(7.36976 -0.0187064 0)
(7.33302 -0.000109527 0)
(7.33322 -0.000327926 0)
(7.33362 -0.000565593 0)
(7.33423 -0.000835139 0)
(7.33502 -0.00113563 0)
(7.33598 -0.00146192 0)
(7.33707 -0.00181155 0)
(7.33827 -0.00218444 0)
(7.33957 -0.00258109 0)
(7.34093 -0.00300228 0)
(7.34234 -0.00344927 0)
(7.34378 -0.00392353 0)
(7.34524 -0.00442629 0)
(7.34671 -0.00495849 0)
(7.34817 -0.00552067 0)
(7.34961 -0.00611309 0)
(7.35103 -0.00673562 0)
(7.35242 -0.00738782 0)
(7.35378 -0.00806895 0)
(7.35509 -0.00877804 0)
(7.35637 -0.00951384 0)
(7.3576 -0.010275 0)
(7.35879 -0.0110598 0)
(7.35993 -0.0118668 0)
(7.36103 -0.0126941 0)
(7.36208 -0.01354 0)
(7.36308 -0.0144029 0)
(7.36404 -0.0152811 0)
(7.36496 -0.0161732 0)
(7.36584 -0.0170781 0)
(7.36669 -0.0179948 0)
(7.3675 -0.0189234 0)
(7.36829 -0.0198587 0)
(7.33302 -0.000184302 0)
(7.3332 -0.000553072 0)
(7.33357 -0.000944608 0)
(7.33415 -0.00136953 0)
(7.33492 -0.00181892 0)
(7.33585 -0.00228143 0)
(7.33691 -0.00275254 0)
(7.33809 -0.00323166 0)
(7.33936 -0.00371884 0)
(7.3407 -0.00421494 0)
(7.34207 -0.00472211 0)
(7.34348 -0.00524309 0)
(7.3449 -0.00578058 0)
(7.34633 -0.00633689 0)
(7.34774 -0.00691392 0)
(7.34914 -0.0075131 0)
(7.35051 -0.00813537 0)
(7.35186 -0.00878124 0)
(7.35316 -0.00945079 0)
(7.35443 -0.0101438 0)
(7.35566 -0.0108596 0)
(7.35684 -0.0115976 0)
(7.35797 -0.0123568 0)
(7.35906 -0.0131361 0)
(7.3601 -0.0139344 0)
(7.3611 -0.0147506 0)
(7.36205 -0.0155837 0)
(7.36296 -0.0164327 0)
(7.36382 -0.0172969 0)
(7.36465 -0.0181757 0)
(7.36544 -0.0190689 0)
(7.36619 -0.0199771 0)
(7.36692 -0.0208967 0)
(7.33302 -0.000253433 0)
(7.33317 -0.000764346 0)
(7.33352 -0.00131026 0)
(7.33406 -0.00189787 0)
(7.3348 -0.00250366 0)
(7.33571 -0.00310683 0)
(7.33677 -0.00370159 0)
(7.33793 -0.00428863 0)
(7.33919 -0.00486917 0)
(7.3405 -0.00544524 0)
(7.34186 -0.00602006 0)
(7.34325 -0.00659723 0)
(7.34464 -0.00718005 0)
(7.34603 -0.00777149 0)
(7.34741 -0.00837412 0)
(7.34877 -0.00899007 0)
(7.3501 -0.00962101 0)
(7.3514 -0.0102682 0)
(7.35266 -0.0109324 0)
(7.35388 -0.0116141 0)
(7.35506 -0.0123135 0)
(7.35619 -0.0130305 0)
(7.35728 -0.013765 0)
(7.35831 -0.0145165 0)
(7.3593 -0.0152847 0)
(7.36025 -0.016069 0)
(7.36114 -0.0168692 0)
(7.362 -0.0176849 0)
(7.3628 -0.018516 0)
(7.36357 -0.0193625 0)
(7.3643 -0.0202246 0)
(7.36499 -0.0211033 0)
(7.36565 -0.0219956 0)
(7.33301 -0.000312528 0)
(7.33314 -0.000952339 0)
(7.33343 -0.00165569 0)
(7.33393 -0.00241954 0)
(7.33465 -0.00319644 0)
(7.33556 -0.00395224 0)
(7.33661 -0.00467588 0)
(7.33777 -0.00536445 0)
(7.33902 -0.00601876 0)
(7.34033 -0.00664444 0)
(7.34167 -0.00724992 0)
(7.34304 -0.00784339 0)
(7.34441 -0.00843169 0)
(7.34578 -0.0090205 0)
(7.34713 -0.00961445 0)
(7.34845 -0.0102171 0)
(7.34975 -0.0108312 0)
(7.35101 -0.0114585 0)
(7.35224 -0.0121004 0)
(7.35342 -0.0127578 0)
(7.35455 -0.013431 0)
(7.35564 -0.0141203 0)
(7.35667 -0.0148256 0)
(7.35766 -0.015547 0)
(7.35861 -0.0162842 0)
(7.3595 -0.0170371 0)
(7.36034 -0.0178057 0)
(7.36114 -0.0185899 0)
(7.36189 -0.0193901 0)
(7.3626 -0.0202066 0)
(7.36327 -0.02104 0)
(7.3639 -0.0218917 0)
(7.3645 -0.0227602 0)
(7.33301 -0.000351211 0)
(7.33307 -0.00109932 0)
(7.33328 -0.00197374 0)
(7.33373 -0.00293097 0)
(7.33444 -0.00388523 0)
(7.33536 -0.00480867 0)
(7.33643 -0.00570376 0)
(7.33762 -0.00656471 0)
(7.33889 -0.00738195 0)
(7.34022 -0.00815351 0)
(7.34157 -0.00888401 0)
(7.34294 -0.00958003 0)
(7.3443 -0.0102484 0)
(7.34564 -0.0108958 0)
(7.34697 -0.0115287 0)
(7.34826 -0.0121528 0)
(7.34952 -0.0127729 0)
(7.35074 -0.0133931 0)
(7.35192 -0.0140165 0)
(7.35305 -0.0146459 0)
(7.35414 -0.0152831 0)
(7.35518 -0.01593 0)
(7.35617 -0.0165876 0)
(7.3571 -0.017257 0)
(7.35799 -0.0179389 0)
(7.35883 -0.0186341 0)
(7.35962 -0.0193433 0)
(7.36036 -0.020067 0)
(7.36105 -0.0208059 0)
(7.3617 -0.0215609 0)
(7.3623 -0.0223327 0)
(7.36286 -0.0231225 0)
(7.36338 -0.0239288 0)
(7.33299 -0.000343362 0)
(7.33294 -0.00115657 0)
(7.333 -0.00226066 0)
(7.33339 -0.00349041 0)
(7.3341 -0.00462473 0)
(7.335 -0.00560531 0)
(7.33606 -0.00646417 0)
(7.33724 -0.00723526 0)
(7.33852 -0.00794241 0)
(7.33986 -0.00860611 0)
(7.34122 -0.00924269 0)
(7.3426 -0.00986327 0)
(7.34397 -0.0104754 0)
(7.34533 -0.0110843 0)
(7.34666 -0.011694 0)
(7.34795 -0.0123069 0)
(7.3492 -0.0129249 0)
(7.35041 -0.0135493 0)
(7.35157 -0.014181 0)
(7.35268 -0.0148207 0)
(7.35374 -0.015469 0)
(7.35474 -0.0161265 0)
(7.3557 -0.0167934 0)
(7.3566 -0.0174702 0)
(7.35745 -0.0181574 0)
(7.35825 -0.0188554 0)
(7.359 -0.0195648 0)
(7.35969 -0.0202863 0)
(7.36034 -0.0210206 0)
(7.36094 -0.0217688 0)
(7.36149 -0.022532 0)
(7.36199 -0.023312 0)
(7.36247 -0.0241088 0)
(7.33295 -0.000244881 0)
(7.33262 -0.00101487 0)
(7.3324 -0.00233333 0)
(7.33276 -0.00400665 0)
(7.33363 -0.00579461 0)
(7.33474 -0.00754792 0)
(7.33594 -0.00915521 0)
(7.33722 -0.0105549 0)
(7.33853 -0.0117457 0)
(7.33987 -0.0127574 0)
(7.3412 -0.0136228 0)
(7.34253 -0.0143711 0)
(7.34384 -0.0150288 0)
(7.34513 -0.0156193 0)
(7.34639 -0.0161615 0)
(7.34762 -0.0166708 0)
(7.34882 -0.017159 0)
(7.34997 -0.0176352 0)
(7.35108 -0.0181064 0)
(7.35215 -0.018578 0)
(7.35317 -0.0190542 0)
(7.35414 -0.0195378 0)
(7.35506 -0.0200313 0)
(7.35593 -0.0205363 0)
(7.35676 -0.0210544 0)
(7.35753 -0.0215866 0)
(7.35825 -0.0221338 0)
(7.35892 -0.022697 0)
(7.35955 -0.0232769 0)
(7.36012 -0.0238743 0)
(7.36064 -0.0244899 0)
(7.36111 -0.0251245 0)
(7.36153 -0.0257772 0)
(7.33289 9.06358e-05 0)
(7.33206 -0.000971934 0)
(7.33123 -0.00232944 0)
(7.33106 -0.00304519 0)
(7.33153 -0.00337239 0)
(7.33245 -0.00377199 0)
(7.3337 -0.00435602 0)
(7.33515 -0.00506301 0)
(7.3367 -0.00584663 0)
(7.33828 -0.00668786 0)
(7.33984 -0.007568 0)
(7.34139 -0.00846675 0)
(7.34289 -0.00936863 0)
(7.34435 -0.0102639 0)
(7.34576 -0.0111464 0)
(7.34713 -0.0120126 0)
(7.34844 -0.0128605 0)
(7.3497 -0.0136899 0)
(7.35091 -0.0145013 0)
(7.35207 -0.0152958 0)
(7.35318 -0.0160748 0)
(7.35423 -0.0168401 0)
(7.35524 -0.0175935 0)
(7.35619 -0.0183368 0)
(7.35708 -0.019072 0)
(7.35793 -0.0198008 0)
(7.35872 -0.0205253 0)
(7.35946 -0.0212471 0)
(7.36014 -0.0219682 0)
(7.36078 -0.0226904 0)
(7.36136 -0.0234157 0)
(7.3619 -0.0241461 0)
(7.3624 -0.0248827 0)
(7.33241 0.00204768 0)
(7.33045 -0.000649948 0)
(7.33028 -0.0073972 0)
(7.33135 -0.0138651 0)
(7.33232 -0.0185973 0)
(7.33301 -0.0217961 0)
(7.3338 -0.0238794 0)
(7.33481 -0.0251527 0)
(7.33598 -0.0258544 0)
(7.33727 -0.0261744 0)
(7.33865 -0.0262521 0)
(7.34011 -0.0261853 0)
(7.34164 -0.0260414 0)
(7.34321 -0.0258659 0)
(7.34479 -0.0256884 0)
(7.34638 -0.0255281 0)
(7.34797 -0.0253966 0)
(7.34953 -0.0253005 0)
(7.35107 -0.0252434 0)
(7.35257 -0.0252264 0)
(7.35403 -0.0252496 0)
(7.35545 -0.025312 0)
(7.35681 -0.0254122 0)
(7.35811 -0.0255486 0)
(7.35936 -0.0257197 0)
(7.36054 -0.0259239 0)
(7.36167 -0.0261596 0)
(7.36273 -0.0264257 0)
(7.36373 -0.026721 0)
(7.36466 -0.0270445 0)
(7.36552 -0.0273957 0)
(7.36632 -0.0277741 0)
(7.36705 -0.0281787 0)
(7.32877 0.00626459 0)
(7.31724 0.0179072 0)
(7.31239 0.0250836 0)
(7.3139 0.0271036 0)
(7.3177 0.0257591 0)
(7.32184 0.022907 0)
(7.32601 0.019504 0)
(7.33018 0.0159072 0)
(7.33425 0.0122991 0)
(7.33819 0.00881817 0)
(7.34197 0.00554919 0)
(7.3456 0.00252425 0)
(7.34909 -0.000253962 0)
(7.35244 -0.00279478 0)
(7.35566 -0.00511308 0)
(7.35875 -0.007227 0)
(7.3617 -0.00915598 0)
(7.36453 -0.0109192 0)
(7.36723 -0.0125346 0)
(7.36981 -0.0140188 0)
(7.37226 -0.0153869 0)
(7.3746 -0.0166524 0)
(7.37682 -0.0178275 0)
(7.37893 -0.018923 0)
(7.38092 -0.0199486 0)
(7.3828 -0.0209129 0)
(7.38457 -0.0218237 0)
(7.38624 -0.0226878 0)
(7.3878 -0.0235114 0)
(7.38926 -0.0242997 0)
(7.39063 -0.0250577 0)
(7.39189 -0.0257888 0)
(7.39308 -0.0264964 0)
(7.33378 -0.0333063 0)
(7.33299 -0.0723299 0)
(7.32809 -0.0857211 0)
(7.32653 -0.0871776 0)
(7.33009 -0.0848094 0)
(7.3373 -0.0808685 0)
(7.34624 -0.0760573 0)
(7.35572 -0.0710321 0)
(7.36518 -0.0662498 0)
(7.37437 -0.061883 0)
(7.38314 -0.0579604 0)
(7.39138 -0.0544726 0)
(7.39906 -0.0513975 0)
(7.40617 -0.048702 0)
(7.41273 -0.0463471 0)
(7.41876 -0.0442943 0)
(7.42428 -0.0425084 0)
(7.42933 -0.0409576 0)
(7.43393 -0.0396136 0)
(7.43812 -0.0384515 0)
(7.44192 -0.0374496 0)
(7.44535 -0.0365893 0)
(7.44845 -0.0358541 0)
(7.45122 -0.0352302 0)
(7.4537 -0.0347054 0)
(7.4559 -0.0342695 0)
(7.45785 -0.0339134 0)
(7.45955 -0.0336296 0)
(7.46103 -0.0334117 0)