/*--------------------------------*- C++ -*----------------------------------*\
| =========                 |                                                 |
| \\      /  F ield         | OpenFOAM: The Open Source CFD Toolbox           |
|  \\    /   O peration     | Version:  4.1                                   |
|   \\  /    A nd           | Web:      www.OpenFOAM.org                      |
|    \\/     M anipulation  |                                                 |
\*---------------------------------------------------------------------------*/
FoamFile
{
    version     2.0;
    format      ascii;
    class       volScalarField;
    location    "1200";
    object      epsilon;
}
// * * * * * * * * * * * * * * * * * * * * * * * * * * * * * * * * * * * * * //

dimensions      [0 2 -3 0 0 0 0];

internalField   nonuniform List<scalar> 
6820
(
115.949
152.042
190.661
230.213
269.213
306.364
340.623
371.268
397.899
420.4
438.869
453.554
464.803
473.009
478.58
481.91
483.37
483.292
481.971
479.663
476.587
472.927
468.838
464.447
459.86
455.162
450.422
445.696
441.025
436.448
431.983
427.735
425.107
9.48476
17.5528
23.8082
29.343
34.5615
39.5638
44.3524
48.9031
53.1856
57.1731
60.8487
64.2073
67.2547
70.0051
72.4792
74.7011
76.6969
78.4928
80.114
81.5839
82.9237
84.153
85.2887
86.3455
87.3357
88.2698
89.156
90.0017
90.8114
91.5917
92.3416
93.0695
93.768
4.14146
5.59602
6.98297
8.20862
9.27788
10.2173
11.0506
11.7953
12.4652
13.0716
13.6233
14.1277
14.5907
15.0172
15.4112
15.7762
16.1152
16.4306
16.7248
16.9994
17.258
17.5082
17.7522
17.9906
18.224
18.453
18.6778
18.8989
19.1166
19.3311
19.5426
19.7517
19.9563
3.60121
3.91796
4.33109
4.75787
5.16049
5.52671
5.85474
6.14666
6.40579
6.6357
6.83984
7.02136
7.18307
7.32748
7.45674
7.57272
7.67703
7.77107
7.85602
7.93291
8.00259
8.06661
8.12605
8.18167
8.23408
8.28376
8.33112
8.37649
8.42017
8.46238
8.50337
8.54328
8.58245
3.52798
3.56982
3.67476
3.81744
3.97488
4.1328
4.28383
4.42458
4.55377
4.67122
4.77737
4.87291
4.95865
5.03543
5.10409
5.1654
5.22009
5.26883
5.31223
5.35082
5.38509
5.41551
5.44254
5.46658
5.48801
5.50713
5.52424
5.53957
5.55335
5.56576
5.57697
5.58711
5.5964
3.5197
3.49572
3.49766
3.52374
3.56745
3.62175
3.681
3.74133
3.80034
3.85661
3.90933
3.95814
4.00291
4.04368
4.08059
4.11385
4.14366
4.17029
4.19396
4.21492
4.23339
4.24958
4.26371
4.27597
4.28654
4.29559
4.30327
4.30973
4.31508
4.31945
4.32294
4.32564
4.32766
3.51928
3.48173
3.4529
3.43487
3.42775
3.42982
3.4388
3.45249
3.46904
3.48707
3.50557
3.52383
3.54138
3.55792
3.57325
3.58728
3.59995
3.61129
3.6213
3.63006
3.63761
3.64407
3.64949
3.65395
3.65752
3.66027
3.66225
3.66354
3.6642
3.66428
3.66383
3.66292
3.66159
3.51938
3.47956
3.44297
3.41081
3.38393
3.36257
3.34634
3.33451
3.32623
3.32072
3.31725
3.31524
3.31422
3.31382
3.31376
3.31382
3.31384
3.31373
3.31338
3.31277
3.31185
3.31061
3.30906
3.30718
3.30501
3.30253
3.29978
3.29677
3.29352
3.29004
3.28636
3.28249
3.27846
3.51942
3.47931
3.44106
3.40504
3.37162
3.34118
3.31388
3.28963
3.26823
3.24937
3.23274
3.218
3.20484
3.19299
3.1822
3.17226
3.16303
3.15434
3.1461
3.13822
3.13062
3.12325
3.11606
3.10902
3.10209
3.09526
3.08851
3.08183
3.07521
3.06865
3.06213
3.05566
3.04923
3.51943
3.47931
3.44074
3.4038
3.36856
3.33518
3.30378
3.27441
3.24705
3.22164
3.19808
3.17623
3.15594
3.13705
3.11941
3.10289
3.08735
3.07269
3.0588
3.04559
3.03299
3.02092
3.00935
2.9982
2.98745
2.97705
2.96698
2.9572
2.94769
2.93844
2.92943
2.92063
2.91204
3.51944
3.47931
3.44068
3.40355
3.36786
3.33364
3.30091
3.26968
3.23994
3.2117
3.18491
3.15952
3.13547
3.1127
3.09111
3.07063
3.05118
3.03267
3.01505
2.99824
2.98217
2.96679
2.95204
2.93788
2.92427
2.91116
2.89853
2.88633
2.87454
2.86314
2.85209
2.84139
2.83101
3.51944
3.47931
3.44066
3.40348
3.3677
3.33326
3.30016
3.26835
3.23781
3.20852
3.18044
3.15355
3.12781
3.10317
3.0796
3.05704
3.03545
3.01477
2.99495
2.97596
2.95773
2.94023
2.92341
2.90724
2.89167
2.87667
2.86221
2.84827
2.8348
2.82179
2.80921
2.79703
2.78524
3.51944
3.47931
3.44064
3.40345
3.36764
3.33315
3.29995
3.26797
3.23718
3.20753
3.17899
3.15152
3.12508
3.09964
3.07516
3.05161
3.02896
3.00716
2.98618
2.96598
2.94653
2.9278
2.90975
2.89234
2.87556
2.85936
2.84373
2.82863
2.81404
2.79993
2.78629
2.77309
2.76031
3.51944
3.4793
3.44063
3.40343
3.36761
3.3331
3.29987
3.26785
3.23698
3.20723
3.17853
3.15087
3.12418
3.09844
3.07362
3.04966
3.02655
3.00426
2.98274
2.96197
2.94191
2.92255
2.90385
2.88578
2.86832
2.85145
2.83513
2.81935
2.80408
2.78931
2.775
2.76115
2.74773
3.51944
3.4793
3.44063
3.40341
3.36758
3.33307
3.29982
3.26778
3.23689
3.2071
3.17836
3.15063
3.12386
3.09801
3.07305
3.04894
3.02564
3.00313
2.98138
2.96035
2.94002
2.92035
2.90133
2.88294
2.86513
2.8479
2.83122
2.81507
2.79942
2.78427
2.76959
2.75535
2.74156
3.51944
3.4793
3.44062
3.4034
3.36756
3.33304
3.29979
3.26774
3.23684
3.20703
3.17827
3.15051
3.12371
3.09783
3.07282
3.04865
3.02529
3.00271
2.98087
2.95974
2.93929
2.91951
2.90035
2.88181
2.86385
2.84646
2.82961
2.81328
2.79745
2.78211
2.76723
2.75281
2.73881
3.51944
3.4793
3.44061
3.40339
3.36754
3.33302
3.29976
3.2677
3.23679
3.20698
3.17821
3.15044
3.12362
3.09772
3.07269
3.0485
3.02512
3.0025
2.98062
2.95945
2.93896
2.91912
2.89991
2.8813
2.86327
2.84581
2.82887
2.81246
2.79655
2.78111
2.76614
2.75161
2.73751
3.51944
3.47929
3.44061
3.40338
3.36753
3.333
3.29974
3.26767
3.23675
3.20693
3.17816
3.15038
3.12355
3.09764
3.07261
3.0484
3.02501
3.00237
2.98048
2.95929
2.93878
2.91892
2.89969
2.88106
2.863
2.84551
2.82854
2.8121
2.79615
2.78067
2.76566
2.75109
2.73695
3.51944
3.47929
3.44061
3.40337
3.36752
3.33299
3.29972
3.26765
3.23672
3.2069
3.17811
3.15033
3.1235
3.09758
3.07253
3.04832
3.02492
3.00228
2.98037
2.95917
2.93865
2.91878
2.89954
2.88089
2.86282
2.84531
2.82833
2.81187
2.7959
2.7804
2.76537
2.75078
2.73661
3.51944
3.47929
3.44061
3.40337
3.36752
3.33298
3.2997
3.26763
3.2367
3.20686
3.17807
3.15028
3.12345
3.09752
3.07247
3.04826
3.02484
3.00219
2.98028
2.95908
2.93855
2.91867
2.89942
2.88077
2.86269
2.84517
2.82818
2.81171
2.79573
2.78023
2.76519
2.75059
2.73641
3.51944
3.47929
3.4406
3.40337
3.36751
3.33297
3.29969
3.26761
3.23668
3.20684
3.17804
3.15025
3.1234
3.09747
3.07242
3.0482
3.02478
3.00212
2.98021
2.959
2.93846
2.91858
2.89932
2.88066
2.86258
2.84505
2.82806
2.81158
2.79559
2.78009
2.76504
2.75043
2.73625
3.51944
3.47929
3.4406
3.40336
3.36751
3.33296
3.29968
3.2676
3.23666
3.20682
3.17802
3.15022
3.12337
3.09743
3.07237
3.04815
3.02472
3.00206
2.98014
2.95892
2.93839
2.9185
2.89923
2.88057
2.86248
2.84495
2.82795
2.81147
2.79548
2.77997
2.76491
2.7503
2.73611
3.51944
3.47929
3.4406
3.40336
3.3675
3.33296
3.29967
3.26759
3.23665
3.2068
3.178
3.15019
3.12334
3.0974
3.07233
3.0481
3.02467
3.00201
2.98008
2.95886
2.93832
2.91843
2.89916
2.88049
2.8624
2.84487
2.82786
2.81138
2.79538
2.77986
2.76481
2.75019
2.736
3.51944
3.47929
3.4406
3.40336
3.3675
3.33295
3.29967
3.26758
3.23664
3.20678
3.17798
3.15017
3.12331
3.09737
3.0723
3.04807
3.02463
3.00197
2.98004
2.95881
2.93827
2.91837
2.8991
2.88043
2.86233
2.84479
2.82778
2.81129
2.79529
2.77977
2.76471
2.75009
2.7359
3.51944
3.47929
3.4406
3.40336
3.3675
3.33295
3.29966
3.26757
3.23663
3.20678
3.17797
3.15016
3.1233
3.09735
3.07228
3.04804
3.02461
3.00194
2.98001
2.95878
2.93823
2.91833
2.89906
2.88038
2.86228
2.84474
2.82773
2.81124
2.79524
2.77972
2.76465
2.75003
2.73583
3.51944
3.47929
3.4406
3.40336
3.3675
3.33295
3.29966
3.26757
3.23662
3.20677
3.17796
3.15015
3.12329
3.09734
3.07227
3.04803
3.02459
3.00192
2.97998
2.95875
2.9382
2.9183
2.89902
2.88034
2.86224
2.84469
2.82768
2.81118
2.79518
2.77965
2.76459
2.74996
2.73576
3.51944
3.47929
3.4406
3.40336
3.3675
3.33295
3.29966
3.26757
3.23662
3.20677
3.17796
3.15014
3.12328
3.09733
3.07226
3.04802
3.02458
3.00191
2.97998
2.95875
2.93819
2.91829
2.89902
2.88034
2.86224
2.84469
2.82768
2.81119
2.79518
2.77966
2.76459
2.74996
2.73577
3.51944
3.47929
3.4406
3.40336
3.3675
3.33295
3.29966
3.26757
3.23662
3.20677
3.17796
3.15014
3.12328
3.09733
3.07226
3.04801
3.02457
3.0019
2.97996
2.95873
2.93818
2.91827
2.89899
2.88031
2.86221
2.84466
2.82764
2.81114
2.79514
2.77961
2.76454
2.74991
2.73571
3.51944
3.47929
3.4406
3.40336
3.3675
3.33295
3.29966
3.26757
3.23663
3.20678
3.17797
3.15016
3.1233
3.09735
3.07228
3.04804
3.02461
3.00194
2.98001
2.95878
2.93823
2.91833
2.89906
2.88038
2.86228
2.84474
2.82773
2.81123
2.79523
2.77971
2.76464
2.75001
2.73581
3.51944
3.47929
3.4406
3.40336
3.3675
3.33296
3.29967
3.26758
3.23663
3.20678
3.17797
3.15016
3.1233
3.09735
3.07227
3.04803
3.02459
3.00192
2.97999
2.95875
2.9382
2.9183
2.89902
2.88034
2.86224
2.8447
2.82769
2.81119
2.79519
2.77967
2.76461
2.74998
2.73579
3.51944
3.47929
3.4406
3.40336
3.3675
3.33296
3.29968
3.26759
3.23666
3.20681
3.17802
3.15022
3.12337
3.09744
3.07238
3.04815
3.02473
3.00207
2.98015
2.95894
2.9384
2.91852
2.89925
2.88059
2.86251
2.84498
2.82799
2.81151
2.79553
2.78002
2.76498
2.75037
2.7362
3.51944
3.47929
3.4406
3.40337
3.36751
3.33297
3.29968
3.2676
3.23666
3.20681
3.178
3.1502
3.12335
3.09742
3.07236
3.04814
3.02472
3.00208
2.98018
2.95898
2.93847
2.91861
2.89938
2.88075
2.86271
2.84522
2.82827
2.81184
2.79591
2.78046
2.76547
2.75093
2.73681
3.51944
3.47929
3.44061
3.40337
3.36753
3.333
3.29975
3.26771
3.23682
3.20703
3.17829
3.15055
3.12378
3.09793
3.07296
3.04883
3.02551
3.00298
2.98118
2.96011
2.93972
2.92
2.9009
2.88242
2.86453
2.8472
2.83042
2.81415
2.79839
2.78311
2.7683
2.75394
2.74
3.51944
3.47929
3.44061
3.40338
3.36754
3.33305
3.29985
3.26787
3.23707
3.2074
3.1788
3.15124
3.12468
3.09906
3.07436
3.05054
3.02756
3.00539
2.98399
2.96333
2.94338
2.92411
2.9055
2.88751
2.87013
2.85332
2.83707
2.82135
2.80613
2.79141
2.77715
2.76335
2.74997
3.51943
3.4793
3.44066
3.40356
3.36794
3.33374
3.30092
3.26945
3.23927
3.21034
3.18261
3.15603
3.13055
3.10613
3.08271
3.06025
3.03869
3.018
2.99812
2.97902
2.96065
2.94298
2.92596
2.90957
2.89378
2.87855
2.86385
2.84966
2.83596
2.82272
2.80992
2.79753
2.78555
3.51942
3.47942
3.4412
3.4049
3.37061
3.33828
3.30787
3.27931
3.25251
3.22735
3.20374
3.18153
3.16063
3.14093
3.12231
3.1047
3.08799
3.07211
3.05699
3.04257
3.02878
3.01558
3.00292
2.99077
2.97909
2.96783
2.95698
2.94651
2.93639
2.9266
2.91712
2.90793
2.89902
3.5196
3.48203
3.4494
3.42177
3.39875
3.37983
3.36442
3.35191
3.34178
3.33354
3.32681
3.32126
3.31662
3.31268
3.30926
3.30623
3.30346
3.30087
3.29841
3.296
3.29362
3.29123
3.28881
3.28634
3.28382
3.28124
3.27859
3.27587
3.27309
3.27024
3.26733
3.26436
3.26135
3.53049
3.53942
3.57109
3.61695
3.67052
3.72753
3.78534
3.84241
3.89782
3.951
4.00161
4.0495
4.09463
4.13704
4.17681
4.21406
4.24892
4.28151
4.31198
4.34045
4.36707
4.39194
4.41519
4.43694
4.45727
4.4763
4.49411
4.51078
4.52639
4.54103
4.55475
4.56763
4.57975
4.00122
4.78106
5.43755
6.00229
6.50073
6.94822
7.35501
7.72858
8.07457
8.39729
8.70007
8.9856
9.256
9.51301
9.75807
9.99236
10.2169
10.4324
10.6398
10.8395
11.0321
11.2181
11.3978
11.5716
11.7399
11.9029
12.0609
12.2141
12.3627
12.507
12.6471
12.7832
12.9159
31.176
33.6247
36.0474
38.4445
40.8147
43.1561
45.4659
47.7407
49.9772
52.1722
54.323
56.4269
58.4817
60.4855
62.4367
64.3341
66.1767
67.964
69.6956
71.3714
72.9915
74.5563
76.0663
77.5223
78.9251
80.2756
81.575
82.8243
84.0249
85.1779
86.2848
87.3473
88.3743
437.055
505.772
598.188
699.848
791.764
861.343
904.41
922.583
920.834
905.097
880.574
851.006
818.945
786.052
753.296
721.234
689.919
659.467
629.7
600.643
572.438
545.235
519.143
494.244
470.609
448.306
427.379
407.825
389.601
372.642
356.888
342.285
328.772
316.272
304.701
293.979
284.029
274.776
266.146
258.064
250.46
243.268
236.428
229.881
223.577
217.466
211.507
205.661
199.895
194.181
188.495
182.82
177.142
171.451
165.744
160.018
154.277
148.526
142.775
137.035
131.319
125.642
120.022
114.476
109.023
103.68
98.4666
93.3994
88.495
83.7683
79.2326
74.8991
70.7771
66.8736
63.1931
59.7377
56.5074
53.4995
50.709
48.1285
45.7487
43.5593
41.5489
39.7057
38.0176
36.4724
35.0577
33.7613
32.5715
31.4766
30.4656
29.5277
28.6533
27.8327
27.0599
26.3254
25.6354
24.977
24.3998
23.7666
95.1662
100.433
110.609
127.824
152.602
183.945
219.915
257.835
294.878
328.679
357.633
380.916
398.41
410.527
417.975
421.547
421.889
419.517
415.041
408.895
401.416
392.877
383.5
373.48
363.006
352.262
341.419
330.618
319.962
309.531
299.391
289.597
280.186
271.174
262.566
254.358
246.537
239.083
231.971
225.171
218.652
212.381
206.325
200.452
194.731
189.135
183.638
178.217
172.852
167.527
162.228
156.947
151.676
146.413
141.157
135.91
130.678
125.466
120.284
115.142
110.053
105.029
100.086
95.2367
90.4973
85.8822
81.4057
77.081
72.92
68.9335
65.1301
61.5169
58.099
54.8797
51.8602
49.0398
46.4162
43.9851
41.7404
39.6746
37.7786
36.0427
34.4564
33.0092
31.6903
30.4891
29.395
28.3976
27.4867
26.6526
25.8858
25.1773
24.519
23.9025
23.3229
22.7722
22.2557
21.763
21.3346
20.8708
20.2129
20.6074
21.3102
22.633
24.9491
28.6569
33.9841
41.1069
50.122
61.0184
73.591
87.4819
102.242
117.391
132.471
147.068
160.824
173.341
184.462
194.126
202.317
209.046
214.342
218.255
220.862
222.264
222.584
221.95
220.485
218.312
215.548
212.305
208.686
204.779
200.658
196.388
192.019
187.593
183.14
178.683
174.236
169.808
165.403
161.022
156.662
152.321
147.992
143.673
139.357
135.042
130.724
126.401
122.075
117.745
113.417
109.095
104.785
100.495
96.2346
92.0147
87.8465
83.7421
79.7143
75.7759
71.9393
68.2168
64.6196
61.1578
57.8402
54.6744
51.6661
48.8196
46.1375
43.6211
41.2699
39.0821
37.0548
35.1834
33.4623
31.8848
30.4431
29.1291
27.934
26.8492
25.8658
24.9753
24.169
23.4386
22.7759
22.1729
21.622
21.1159
20.648
20.2114
19.802
19.4135
19.0502
18.7039
18.4069
18.0926
8.62701
8.68177
8.75149
8.85997
9.04338
9.35931
9.88111
10.6903
11.8811
13.5003
15.6219
18.3293
21.6937
25.7692
30.5864
36.1442
42.3996
49.2521
56.5403
64.1205
71.8414
79.542
87.0578
94.2309
100.921
107.017
112.437
117.13
121.073
124.269
126.739
128.524
129.676
130.252
130.314
129.921
129.132
128.001
126.578
124.905
123.02
120.955
118.735
116.383
113.915
111.346
108.688
105.949
103.138
100.261
97.3242
94.3347
91.2988
88.2234
85.1163
81.9861
78.8422
75.6945
72.5538
69.4314
66.3388
63.2879
60.2905
57.3579
54.5012
51.7305
49.0553
46.4835
44.0223
41.6772
39.4525
37.3513
35.3753
33.5251
31.8001
30.1987
28.7184
27.3557
26.1062
24.9649
23.9258
22.9828
22.1295
21.3592
20.6653
20.0414
19.481
18.9777
18.5254
18.1178
17.7492
17.4137
17.1062
16.8213
16.5557
16.3043
16.0709
15.8487
15.6631
15.4759
5.60583
5.61695
5.62974
5.64579
5.66846
5.70375
5.76193
5.85746
6.00908
6.23761
6.56254
7.00475
7.59093
8.35143
9.31952
10.5306
12.0198
13.8194
15.9439
18.4074
21.2144
24.356
27.8069
31.5239
35.4473
39.5048
43.6153
47.6949
51.6611
55.4383
58.9619
62.1811
65.0593
67.5743
69.7165
71.4874
72.8971
73.962
74.7029
75.1426
75.3051
75.2142
74.8924
74.3608
73.639
72.7444
71.6932
70.4995
69.1762
67.7352
66.1874
64.5436
62.814
61.0088
59.1383
57.213
55.2437
53.2414
51.2171
49.182
47.1473
45.1239
43.1225
41.1535
39.2263
37.3499
35.5323
33.7803
32.1001
30.4964
28.9732
27.5331
26.1782
24.9092
23.7263
22.6287
21.6151
20.6835
19.8311
19.0547
18.3504
17.7143
17.142
16.6291
16.171
15.7633
15.4014
15.0809
14.7973
14.5461
14.3231
14.1239
13.9447
13.7811
13.6308
13.4897
13.361
13.2392
13.1436
13.059
4.32911
4.32998
4.33076
4.33163
4.33291
4.33542
4.34058
4.35067
4.36919
4.40085
4.4514
4.52643
4.6335
4.78105
4.97875
5.23763
5.56995
5.98924
6.50788
7.13859
7.89456
8.7884
9.83097
11.0301
12.3895
13.9072
15.5751
17.3782
19.2948
21.2968
23.3517
25.4241
27.4777
29.4773
31.3907
33.1896
34.8511
36.3575
37.6963
38.8603
39.8461
40.6541
41.2874
41.751
42.0517
42.1969
42.1948
42.0537
41.7821
41.3885
40.8814
40.2694
39.561
38.7649
37.89
36.9453
35.94
34.8834
33.785
32.6542
31.5004
30.3327
29.1602
27.9913
26.834
25.696
24.5839
23.5038
22.461
21.4599
20.5042
19.5969
18.74
17.9352
17.1833
16.4847
15.8391
15.246
14.7041
14.2119
13.7674
13.3683
13.0121
12.6963
12.418
12.1745
11.9628
11.7801
11.6233
11.4895
11.3755
11.2784
11.1951
11.1226
11.0591
11.0015
10.9522
10.907
10.8796
10.873
3.65947
3.65643
3.65283
3.64897
3.64472
3.64019
3.63564
3.63147
3.62851
3.62777
3.63064
3.63876
3.65423
3.67962
3.71796
3.7728
3.84818
3.94861
4.07893
4.2437
4.44815
4.69759
4.99739
5.35277
5.76858
6.24901
6.79724
7.41509
8.10264
8.85787
9.67652
10.552
11.4753
12.4355
13.42
14.4151
15.4064
16.3798
17.3218
18.2197
19.0626
19.8411
20.5474
21.1756
21.7215
22.1823
22.5565
22.8439
23.0453
23.1622
23.1968
23.1524
23.0322
22.8406
22.582
22.2616
21.8848
21.4573
20.9854
20.4751
19.933
19.3655
18.7789
18.1794
17.5731
16.9656
16.3621
15.7675
15.1861
14.6218
14.0777
13.5568
13.0614
12.5932
12.1537
11.744
11.3647
11.016
10.698
10.4102
10.152
9.92237
9.72023
9.54428
9.39309
9.26511
9.1587
9.07209
9.00342
8.95074
8.91203
8.88513
8.86806
8.85851
8.85524
8.85574
8.86214
8.87075
8.89114
8.93881
3.27351
3.26749
3.26101
3.25423
3.24712
3.23969
3.23199
3.22409
3.2161
3.20827
3.20093
3.19453
3.18969
3.1872
3.18803
3.19339
3.2047
3.22359
3.25191
3.29155
3.34454
3.41302
3.49928
3.60556
3.73403
3.88674
4.06555
4.27207
4.50755
4.7728
5.06814
5.39324
5.74709
6.12792
6.53319
6.95962
7.40326
7.85955
8.32342
8.78951
9.25225
9.70607
10.1455
10.5654
10.961
11.328
11.6627
11.9617
12.2226
12.4432
12.6222
12.7588
12.8525
12.9037
12.9133
12.8825
12.8132
12.7075
12.5682
12.3983
12.2009
11.9795
11.7378
11.4795
11.2082
10.9276
10.6411
10.3522
10.0637
9.77875
9.49976
9.22907
8.9687
8.72039
8.48565
8.2657
8.06154
7.87391
7.70335
7.55012
7.4143
7.29576
7.19419
7.10914
7.04005
6.98621
6.94681
6.9209
6.90742
6.9052
6.91296
6.92928
6.95281
6.98192
7.01573
7.05233
7.09337
7.13584
7.18584
7.26653
3.04175
3.03305
3.02408
3.01485
3.00543
2.99579
2.98592
2.97582
2.96549
2.95499
2.94441
2.93391
2.92365
2.91385
2.9048
2.89689
2.89062
2.88656
2.88543
2.88807
2.89529
2.90802
2.92728
2.95407
2.98942
3.03433
3.08972
3.15644
3.23519
3.32673
3.43151
3.54978
3.68156
3.82665
3.98461
4.15476
4.33619
4.52771
4.72788
4.93506
5.14739
5.36286
5.57932
5.79455
6.00628
6.21223
6.41019
6.59801
6.77367
6.9353
7.08122
7.20998
7.32035
7.41139
7.48243
7.53312
7.56341
7.57355
7.5641
7.53592
7.4901
7.42801
7.35117
7.2613
7.16021
7.0498
6.93199
6.8087
6.68181
6.55311
6.42433
6.29705
6.17275
6.0528
5.9384
5.83065
5.73049
5.63876
5.5561
5.48307
5.42003
5.36724
5.32482
5.29279
5.27104
5.25937
5.25748
5.26493
5.2812
5.30563
5.33747
5.37581
5.41979
5.46827
5.52067
5.57554
5.63412
5.69396
5.75859
5.8546
2.90223
2.89105
2.87974
2.86829
2.85673
2.84506
2.83326
2.82131
2.80922
2.79699
2.78464
2.7722
2.75971
2.74724
2.73489
2.72278
2.71107
2.69996
2.6897
2.6806
2.67299
2.66727
2.66389
2.66331
2.66603
2.67255
2.68338
2.69899
2.71983
2.74627
2.77867
2.81726
2.8622
2.91351
2.9713
3.03544
3.10569
3.1817
3.26303
3.34914
3.43941
3.53314
3.62955
3.7278
3.82699
3.9262
4.02447
4.1208
4.21423
4.30379
4.38851
4.46751
4.53994
4.60503
4.66211
4.71061
4.75012
4.78032
4.80109
4.81244
4.81453
4.80768
4.79238
4.7692
4.73888
4.70221
4.66009
4.61344
4.56325
4.5105
4.45616
4.4012
4.34654
4.2931
4.2417
4.19315
4.14819
4.10747
4.07162
4.04114
4.01648
3.998
3.98599
3.98063
3.98207
3.99036
4.00545
4.02723
4.05548
4.08989
4.13004
4.1754
4.22543
4.27939
4.33689
4.39687
4.46024
4.52499
4.59292
4.69074
2.81924
2.80595
2.79261
2.77922
2.76578
2.75229
2.73877
2.72518
2.71152
2.69778
2.68396
2.67007
2.65612
2.64214
2.62814
2.61416
2.60025
2.58647
2.57291
2.55969
2.54692
2.53476
2.52339
2.513
2.50382
2.49608
2.49004
2.48596
2.48408
2.48464
2.48788
2.49397
2.50308
2.51531
2.53074
2.54939
2.57128
2.59635
2.6245
2.65552
2.6892
2.72526
2.76339
2.80325
2.84448
2.88669
2.92946
2.97237
3.01498
3.05685
3.09754
3.13659
3.17359
3.2081
3.23974
3.26815
3.29301
3.31405
3.33106
3.3439
3.35248
3.35681
3.35697
3.35311
3.34545
3.33428
3.31996
3.3029
3.28354
3.26236
3.23987
3.21659
3.19304
3.16978
3.14731
3.12616
3.10683
3.08979
3.07552
3.06441
3.05686
3.05321
3.05375
3.05874
3.06838
3.08284
3.10221
3.12652
3.15574
3.18975
3.22838
3.27134
3.31831
3.36883
3.42268
3.47907
3.53869
3.5999
3.66343
3.75381
2.77193
2.75693
2.74194
2.72695
2.71195
2.69695
2.68195
2.66693
2.65191
2.63685
2.62178
2.60667
2.59153
2.57637
2.5612
2.54602
2.53084
2.5157
2.50061
2.4856
2.47073
2.45603
2.44157
2.42743
2.41371
2.40049
2.38789
2.37604
2.36506
2.35508
2.34623
2.33864
2.33242
2.32767
2.32449
2.32291
2.32302
2.32485
2.3284
2.33361
2.34041
2.34872
2.3584
2.36932
2.38132
2.39424
2.40788
2.42205
2.43656
2.4512
2.46575
2.48001
2.49377
2.50682
2.51896
2.53
2.53977
2.5481
2.55487
2.55995
2.56325
2.56474
2.56438
2.5622
2.55826
2.55264
2.54547
2.53693
2.5272
2.51651
2.5051
2.49324
2.48123
2.46935
2.45791
2.44724
2.43765
2.42945
2.42297
2.4185
2.41635
2.41679
2.42007
2.42643
2.4361
2.44925
2.46603
2.48655
2.51087
2.539
2.5709
2.60642
2.64544
2.68767
2.733
2.78088
2.83184
2.88454
2.93914
3.01662
2.74589
2.72965
2.71343
2.69723
2.68105
2.66489
2.64874
2.63261
2.61648
2.60036
2.58425
2.56813
2.552
2.53588
2.51976
2.50364
2.48753
2.47144
2.45536
2.43932
2.42332
2.40738
2.39151
2.37574
2.36011
2.34464
2.32939
2.3144
2.29972
2.28543
2.27157
2.25822
2.24547
2.23338
2.22202
2.21145
2.20171
2.19284
2.18487
2.1778
2.17164
2.16637
2.16194
2.15831
2.15542
2.15321
2.15158
2.15046
2.14975
2.14936
2.14918
2.1491
2.14904
2.14888
2.14854
2.1479
2.1469
2.14543
2.14342
2.14081
2.13755
2.1336
2.12892
2.12352
2.1174
2.11059
2.10313
2.0951
2.08659
2.07768
2.0685
2.0592
2.04991
2.0408
2.03206
2.02386
2.01641
2.00989
2.00454
2.00054
1.99812
1.99748
1.99884
2.00238
2.0083
2.01678
2.02798
2.04202
2.05902
2.07905
2.10213
2.12826
2.15738
2.18935
2.22416
2.2614
2.30152
2.34341
2.38706
2.44921
2.73258
2.7155
2.69845
2.68142
2.66441
2.64741
2.63043
2.61347
2.59653
2.5796
2.56269
2.54579
2.5289
2.51202
2.49516
2.47831
2.46148
2.44467
2.42788
2.41112
2.39437
2.37766
2.36098
2.34433
2.32774
2.3112
2.29473
2.27835
2.26207
2.24593
2.22995
2.21417
2.19862
2.18336
2.16844
2.15389
2.13974
2.12601
2.11272
2.09991
2.08758
2.07573
2.06438
2.0535
2.04308
2.0331
2.02354
2.01435
2.00549
1.99693
1.98861
1.9805
1.97253
1.96467
1.95685
1.94905
1.9412
1.93327
1.92522
1.91701
1.90863
1.90003
1.89122
1.88217
1.8729
1.8634
1.85371
1.84384
1.83384
1.82376
1.81366
1.8036
1.79367
1.78395
1.77455
1.76558
1.75715
1.7494
1.74244
1.73643
1.73152
1.72784
1.72557
1.72485
1.72584
1.7287
1.73357
1.74059
1.74988
1.76154
1.77566
1.79226
1.81138
1.83296
1.85705
1.88337
1.9123
1.94292
1.97527
2.02173
2.72596
2.70839
2.69082
2.67326
2.65571
2.63818
2.62065
2.60314
2.58565
2.56817
2.5507
2.53325
2.51581
2.49838
2.48098
2.46359
2.44622
2.42887
2.41154
2.39424
2.37696
2.35971
2.34247
2.32527
2.30809
2.29094
2.27382
2.25673
2.23968
2.2227
2.20579
2.18897
2.17225
2.15565
2.1392
2.12292
2.10682
2.09092
2.07524
2.0598
2.0446
2.02967
2.015
2.00061
1.98649
1.97263
1.95904
1.9457
1.9326
1.91972
1.90705
1.89456
1.88223
1.87004
1.85797
1.846
1.83409
1.82224
1.81042
1.79862
1.78683
1.77502
1.76319
1.75135
1.73948
1.72759
1.71569
1.7038
1.69193
1.68011
1.66836
1.65673
1.64526
1.634
1.623
1.61233
1.60205
1.59225
1.58301
1.57441
1.56656
1.55956
1.55352
1.54857
1.54482
1.54239
1.54142
1.54202
1.54432
1.54842
1.55443
1.56241
1.57244
1.58452
1.59873
1.61489
1.63336
1.65333
1.6751
1.70673
2.72298
2.70512
2.68726
2.6694
2.65155
2.63369
2.61584
2.59799
2.58015
2.56232
2.5445
2.52668
2.50888
2.49109
2.47331
2.45555
2.4378
2.42008
2.40237
2.38469
2.36703
2.3494
2.33178
2.31419
2.29662
2.27907
2.26154
2.24404
2.22655
2.20909
2.19167
2.17431
2.15701
2.13979
2.12265
2.1056
2.08864
2.07179
2.05505
2.03844
2.02196
2.00562
1.98944
1.9734
1.95753
1.94182
1.92627
1.91089
1.89566
1.88059
1.86568
1.85091
1.83628
1.82177
1.80738
1.79311
1.77893
1.76485
1.75084
1.73692
1.72306
1.70926
1.69552
1.68183
1.6682
1.65463
1.64112
1.62768
1.61431
1.60104
1.58787
1.57482
1.56192
1.54919
1.53667
1.52439
1.51238
1.5007
1.4894
1.47852
1.46814
1.45832
1.44914
1.44068
1.43303
1.42628
1.42054
1.41589
1.41246
1.41033
1.40961
1.41039
1.41275
1.41674
1.42246
1.4298
1.4391
1.44964
1.46209
1.48039
2.72156
2.70356
2.68555
2.66753
2.64951
2.63148
2.61344
2.5954
2.57737
2.55933
2.5413
2.52327
2.50524
2.48723
2.46922
2.45122
2.43324
2.41527
2.39732
2.37938
2.36147
2.34357
2.3257
2.30785
2.29001
2.2722
2.2544
2.23663
2.2189
2.20119
2.18351
2.16588
2.14829
2.13075
2.11326
2.09584
2.07847
2.06118
2.04396
2.02681
2.00975
1.99278
1.9759
1.95912
1.94244
1.92586
1.9094
1.89304
1.87679
1.86066
1.84464
1.82873
1.81294
1.79725
1.78166
1.76618
1.75079
1.73551
1.72031
1.7052
1.69018
1.67525
1.66039
1.64562
1.63092
1.61631
1.60178
1.58733
1.57298
1.55871
1.54455
1.5305
1.51658
1.50278
1.48914
1.47567
1.46239
1.44933
1.43651
1.42397
1.41174
1.39987
1.3884
1.3774
1.36691
1.357
1.34774
1.33921
1.33149
1.32466
1.31881
1.31401
1.31037
1.30793
1.30682
1.30696
1.30869
1.31133
1.31598
1.32278
2.72094
2.70288
2.68479
2.6667
2.64859
2.63047
2.61234
2.59421
2.57607
2.55793
2.53978
2.52163
2.50349
2.48534
2.4672
2.44907
2.43094
2.41283
2.39472
2.37663
2.35856
2.3405
2.32246
2.30444
2.28644
2.26845
2.25048
2.23253
2.2146
2.1967
2.17885
2.16103
2.14327
2.12555
2.10787
2.09025
2.07269
2.05517
2.03772
2.02033
2.003
1.98573
1.96854
1.95142
1.93437
1.91741
1.90052
1.88371
1.867
1.85036
1.83382
1.81737
1.80101
1.78474
1.76856
1.75247
1.73648
1.72058
1.70476
1.68904
1.6734
1.65785
1.64239
1.62702
1.61173
1.59652
1.5814
1.56637
1.55142
1.53657
1.5218
1.50713
1.49256
1.4781
1.46375
1.44952
1.43542
1.42147
1.40768
1.39406
1.38064
1.36745
1.3545
1.34184
1.32949
1.3175
1.30591
1.29477
1.28414
1.27408
1.26464
1.2559
1.24793
1.24078
1.23457
1.22924
1.22513
1.22155
1.22009
1.2174
2.72058
2.70248
2.68436
2.66623
2.64808
2.62992
2.61175
2.59356
2.57537
2.55717
2.53897
2.52076
2.50255
2.48434
2.46613
2.44792
2.42972
2.41152
2.39334
2.37516
2.35699
2.33884
2.3207
2.30258
2.28447
2.26638
2.2483
2.23026
2.21224
2.19425
2.17629
2.15838
2.1405
2.12267
2.10489
2.08715
2.06946
2.05183
2.03425
2.01672
1.99925
1.98184
1.96449
1.94721
1.92999
1.91283
1.89575
1.87873
1.8618
1.84493
1.82814
1.81144
1.79481
1.77826
1.7618
1.74542
1.72913
1.71293
1.69681
1.68077
1.66482
1.64896
1.63319
1.6175
1.60189
1.58638
1.57094
1.55559
1.54032
1.52513
1.51003
1.49501
1.48008
1.46523
1.45048
1.43581
1.42124
1.40677
1.39242
1.37818
1.36406
1.35009
1.33627
1.32263
1.30918
1.29594
1.28294
1.27022
1.25779
1.2457
1.23399
1.22271
1.2119
1.2016
1.19192
1.18278
1.17453
1.16642
1.16052
1.15051
2.72037
2.70226
2.68412
2.66597
2.6478
2.62962
2.61143
2.59322
2.57501
2.55678
2.53855
2.52031
2.50207
2.48383
2.46558
2.44734
2.4291
2.41086
2.39263
2.3744
2.35619
2.33798
2.31979
2.30161
2.28344
2.26529
2.24715
2.22903
2.21093
2.19288
2.17485
2.15687
2.13893
2.12103
2.10318
2.08538
2.06762
2.04991
2.03226
2.01466
1.99711
1.97963
1.9622
1.94483
1.92752
1.91028
1.8931
1.87598
1.85894
1.84197
1.82507
1.80824
1.79149
1.77481
1.75822
1.7417
1.72527
1.70892
1.69266
1.67647
1.66037
1.64436
1.62843
1.61259
1.59683
1.58115
1.56556
1.55005
1.53462
1.51926
1.50399
1.48879
1.47367
1.45862
1.44365
1.42876
1.41394
1.3992
1.38454
1.36997
1.35548
1.3411
1.32681
1.31263
1.29858
1.28466
1.27088
1.25727
1.24383
1.23059
1.21756
1.20478
1.19228
1.18007
1.16824
1.15669
1.14578
1.13467
1.12585
1.11065
2.7202
2.70207
2.68393
2.66576
2.64759
2.62939
2.61119
2.59297
2.57474
2.5565
2.53826
2.52001
2.50175
2.48349
2.46522
2.44696
2.4287
2.41044
2.39218
2.37394
2.3557
2.33746
2.31924
2.30103
2.28283
2.26464
2.24647
2.22833
2.21021
2.19212
2.17407
2.15605
2.13807
2.12013
2.10224
2.08439
2.06659
2.04884
2.03114
2.01349
1.9959
1.97836
1.96089
1.94347
1.92611
1.90881
1.89158
1.87442
1.85732
1.84029
1.82333
1.80644
1.78963
1.7729
1.75624
1.73966
1.72317
1.70675
1.69042
1.67417
1.658
1.64192
1.62592
1.61001
1.59418
1.57843
1.56277
1.54719
1.53168
1.51625
1.5009
1.48562
1.47042
1.45528
1.44021
1.42522
1.41028
1.39542
1.38062
1.36589
1.35123
1.33665
1.32213
1.3077
1.29335
1.27909
1.26492
1.25085
1.23689
1.22304
1.20933
1.19575
1.18232
1.16905
1.156
1.14307
1.13061
1.11769
1.10715
1.08861
2.72006
2.70193
2.68377
2.66561
2.64742
2.62922
2.61101
2.59279
2.57455
2.55631
2.53805
2.51979
2.50153
2.48326
2.46499
2.44672
2.42844
2.41017
2.39191
2.37365
2.35539
2.33715
2.31891
2.30068
2.28246
2.26425
2.24606
2.2279
2.20976
2.19165
2.17358
2.15554
2.13754
2.11958
2.10166
2.08378
2.06596
2.04818
2.03045
2.01278
1.99515
1.97759
1.96008
1.94263
1.92525
1.90792
1.89066
1.87347
1.85634
1.83928
1.82229
1.80538
1.78854
1.77178
1.75509
1.73849
1.72196
1.70552
1.68916
1.67288
1.65669
1.64058
1.62456
1.60863
1.59278
1.57701
1.56132
1.54572
1.53019
1.51475
1.49937
1.48407
1.46885
1.45369
1.43859
1.42357
1.4086
1.3937
1.37886
1.36407
1.34935
1.3347
1.3201
1.30556
1.2911
1.27669
1.26236
1.24809
1.23389
1.21977
1.20572
1.19175
1.17787
1.16407
1.1504
1.13674
1.12345
1.10954
1.09809
1.07762
2.71994
2.7018
2.68365
2.66547
2.64728
2.62908
2.61086
2.59263
2.57439
2.55614
2.53789
2.51962
2.50135
2.48308
2.4648
2.44652
2.42824
2.40997
2.3917
2.37343
2.35517
2.33691
2.31866
2.30043
2.2822
2.26398
2.24578
2.2276
2.20946
2.19134
2.17325
2.1552
2.13719
2.11922
2.10128
2.08339
2.06555
2.04776
2.03001
2.01232
1.99468
1.97709
1.95957
1.9421
1.92469
1.90735
1.89007
1.87286
1.85572
1.83864
1.82164
1.80471
1.78786
1.77109
1.75439
1.73778
1.72124
1.7048
1.68843
1.67215
1.65596
1.63986
1.62384
1.60791
1.59206
1.5763
1.56063
1.54503
1.52952
1.51409
1.49873
1.48345
1.46824
1.4531
1.43802
1.42301
1.40807
1.39318
1.37835
1.36359
1.34887
1.33422
1.31962
1.30508
1.2906
1.27617
1.2618
1.24747
1.23321
1.21899
1.20482
1.19069
1.17662
1.16259
1.14864
1.13464
1.12096
1.10656
1.09468
1.07319
2.71983
2.70169
2.68353
2.66535
2.64716
2.62895
2.61073
2.5925
2.57425
2.556
2.53774
2.51947
2.50119
2.48292
2.46463
2.44635
2.42807
2.40979
2.39151
2.37324
2.35497
2.33671
2.31846
2.30021
2.28197
2.26376
2.24556
2.22738
2.20923
2.19111
2.17302
2.15497
2.13694
2.11896
2.10102
2.08312
2.06527
2.04746
2.0297
2.012
1.99435
1.97675
1.95921
1.94174
1.92432
1.90697
1.88968
1.87246
1.85531
1.83823
1.82122
1.80429
1.78744
1.77067
1.75397
1.73736
1.72084
1.7044
1.68804
1.67178
1.6556
1.63952
1.62352
1.60761
1.5918
1.57607
1.56042
1.54487
1.52939
1.514
1.49869
1.48345
1.46829
1.4532
1.43818
1.42322
1.40833
1.3935