/*--------------------------------*- C++ -*----------------------------------*\
| =========                 |                                                 |
| \\      /  F ield         | OpenFOAM: The Open Source CFD Toolbox           |
|  \\    /   O peration     | Version:  4.1                                   |
|   \\  /    A nd           | Web:      www.OpenFOAM.org                      |
|    \\/     M anipulation  |                                                 |
\*---------------------------------------------------------------------------*/
FoamFile
{
    version     2.0;
    format      ascii;
    class       volScalarField;
    location    "1200";
    object      k;
}
// * * * * * * * * * * * * * * * * * * * * * * * * * * * * * * * * * * * * * //

dimensions      [0 2 -2 0 0 0 0];

internalField   nonuniform List<scalar> 
6820
(
0.241787
0.289665
0.336844
0.381951
0.423953
0.46211
0.495948
0.525265
0.550093
0.57064
0.587232
0.60026
0.610145
0.617305
0.622142
0.625026
0.626287
0.62622
0.625078
0.623081
0.620414
0.617234
0.613671
0.609833
0.605811
0.601678
0.597494
0.593307
0.589155
0.585071
0.581074
0.577259
0.574892
0.202474
0.204679
0.206995
0.209467
0.212041
0.214681
0.217362
0.220056
0.222733
0.22537
0.227954
0.230479
0.232942
0.235349
0.237707
0.240025
0.242313
0.244581
0.246837
0.249089
0.251344
0.253607
0.255883
0.258175
0.260482
0.262807
0.265146
0.2675
0.269864
0.272236
0.274614
0.276992
0.279891
0.199741
0.199215
0.198471
0.197596
0.196619
0.195573
0.194483
0.193366
0.192235
0.191099
0.18997
0.188855
0.187761
0.186695
0.185662
0.184667
0.183716
0.182812
0.181958
0.181158
0.180414
0.179725
0.179091
0.17851
0.177983
0.177509
0.177086
0.176713
0.176389
0.176112
0.175879
0.175696
0.175595
0.199153
0.198176
0.197113
0.195992
0.194809
0.193571
0.192297
0.191001
0.189694
0.188384
0.187078
0.185782
0.184501
0.183238
0.181997
0.180781
0.179591
0.178431
0.177301
0.176204
0.17514
0.17411
0.173114
0.172153
0.171225
0.170332
0.169471
0.168644
0.16785
0.167087
0.166355
0.165653
0.164982
0.198981
0.1979
0.196807
0.195699
0.194559
0.193388
0.192197
0.190994
0.189785
0.188574
0.187366
0.186167
0.184978
0.183802
0.182643
0.181503
0.180382
0.179283
0.178206
0.177153
0.176124
0.175121
0.174143
0.17319
0.172263
0.171361
0.170485
0.169633
0.168807
0.168005
0.167226
0.166471
0.165731
0.198926
0.197795
0.196678
0.195576
0.194473
0.193363
0.192249
0.191134
0.190019
0.188909
0.187806
0.186711
0.185628
0.184558
0.183504
0.182465
0.181444
0.180441
0.179457
0.178492
0.177548
0.176624
0.17572
0.174837
0.173974
0.173133
0.172312
0.171511
0.17073
0.169969
0.169228
0.168505
0.167791
0.198906
0.197755
0.196631
0.195537
0.194463
0.193399
0.192342
0.191294
0.190254
0.189222
0.188201
0.187192
0.186194
0.18521
0.184241
0.183286
0.182348
0.181426
0.180521
0.179633
0.178762
0.177909
0.177075
0.176258
0.175459
0.174677
0.173914
0.173168
0.17244
0.171729
0.171035
0.170356
0.169684
0.1989
0.19774
0.196611
0.195517
0.194452
0.193408
0.192382
0.191373
0.19038
0.189401
0.188437
0.187487
0.186552
0.185631
0.184727
0.183837
0.182964
0.182107
0.181266
0.180441
0.179633
0.178841
0.178066
0.177307
0.176564
0.175838
0.175127
0.174433
0.173754
0.173091
0.172443
0.171808
0.171178
0.198897
0.197734
0.196603
0.195508
0.194448
0.193415
0.192408
0.191424
0.19046
0.189517
0.188591
0.187683
0.186792
0.185919
0.185061
0.184221
0.183396
0.182588
0.181796
0.18102
0.18026
0.179516
0.178787
0.178074
0.177376
0.176694
0.176026
0.175373
0.174735
0.174111
0.173501
0.172903
0.17231
0.198896
0.197732
0.1966
0.195505
0.194445
0.193417
0.192417
0.191444
0.190496
0.189571
0.188668
0.187785
0.186923
0.186079
0.185254
0.184446
0.183657
0.182884
0.182128
0.181388
0.180664
0.179956
0.179264
0.178587
0.177925
0.177278
0.176645
0.176026
0.175422
0.174831
0.174253
0.173687
0.173124
0.198896
0.197731
0.196599
0.195504
0.194444
0.193417
0.192421
0.191454
0.190514
0.1896
0.18871
0.187844
0.186999
0.186175
0.185371
0.184587
0.183821
0.183073
0.182342
0.181629
0.180931
0.18025
0.179585
0.178935
0.1783
0.177679
0.177073
0.17648
0.175902
0.175336
0.174784
0.174242
0.173704
0.198896
0.19773
0.196599
0.195504
0.194444
0.193418
0.192423
0.191458
0.190521
0.189612
0.188729
0.18787
0.187035
0.186222
0.18543
0.184659
0.183908
0.183176
0.182462
0.181765
0.181086
0.180423
0.179777
0.179146
0.17853
0.177929
0.177342
0.176769
0.17621
0.175664
0.175131
0.174609
0.174091
0.198896
0.19773
0.196599
0.195504
0.194444
0.193418
0.192424
0.19146
0.190525
0.189618
0.188738
0.187884
0.187054
0.186247
0.185463
0.1847
0.183958
0.183235
0.182532
0.181847
0.181179
0.180529
0.179895
0.179277
0.178675
0.178088
0.177515
0.176956
0.176411
0.175879
0.17536
0.174852
0.174348
0.198896
0.19773
0.196599
0.195504
0.194445
0.193419
0.192425
0.191461
0.190527
0.189621
0.188743
0.18789
0.187062
0.186259
0.185478
0.184719
0.183981
0.183264
0.182567
0.181888
0.181227
0.180584
0.179958
0.179349
0.178755
0.178176
0.177612
0.177063
0.176528
0.176006
0.175496
0.174998
0.174504
0.198896
0.19773
0.196599
0.195505
0.194445
0.193419
0.192425
0.191462
0.190528
0.189623
0.188745
0.187893
0.187067
0.186265
0.185486
0.184729
0.183994
0.18328
0.182586
0.181911
0.181254
0.180616
0.179995
0.17939
0.178802
0.178229
0.177671
0.177127
0.176598
0.176082
0.17558
0.175088
0.174601
0.198896
0.19773
0.196599
0.195505
0.194446
0.19342
0.192426
0.191463
0.190529
0.189624
0.188747
0.187895
0.187069
0.186268
0.18549
0.184734
0.184
0.183288
0.182595
0.181922
0.181267
0.180631
0.180012
0.179411
0.178825
0.178255
0.177701
0.177161
0.176635
0.176123
0.175625
0.175137
0.174654
0.198896
0.19773
0.1966
0.195505
0.194446
0.19342
0.192426
0.191463
0.19053
0.189625
0.188748
0.187896
0.187071
0.18627
0.185492
0.184737
0.184004
0.183292
0.1826
0.181928
0.181275
0.18064
0.180023
0.179422
0.178838
0.17827
0.177718
0.17718
0.176657
0.176147
0.175651
0.175166
0.174686
0.198896
0.19773
0.1966
0.195505
0.194446
0.19342
0.192427
0.191464
0.19053
0.189626
0.188748
0.187897
0.187072
0.186271
0.185493
0.184739
0.184006
0.183294
0.182603
0.181931
0.181279
0.180644
0.180028
0.179428
0.178845
0.178278
0.177726
0.17719
0.176667
0.176159
0.175664
0.175181
0.174702
0.198896
0.197729
0.1966
0.195506
0.194446
0.193421
0.192427
0.191464
0.190531
0.189626
0.188749
0.187898
0.187073
0.186272
0.185494
0.18474
0.184007
0.183296
0.182605
0.181933
0.181281
0.180647
0.180031
0.179432
0.178849
0.178283
0.177732
0.177195
0.176674
0.176166
0.175672
0.17519
0.174712
0.198896
0.197729
0.1966
0.195506
0.194446
0.193421
0.192427
0.191464
0.190531
0.189627
0.188749
0.187899
0.187073
0.186272
0.185495
0.184741
0.184008
0.183297
0.182606
0.181935
0.181283
0.180649
0.180033
0.179434
0.178852
0.178285
0.177734
0.177199
0.176677
0.17617
0.175676
0.175194
0.174717
0.198896
0.197729
0.1966
0.195506
0.194447
0.193421
0.192427
0.191465
0.190532
0.189627
0.18875
0.187899
0.187074
0.186273
0.185496
0.184742
0.184009
0.183298
0.182607
0.181936
0.181284
0.18065
0.180034
0.179435
0.178853
0.178287
0.177737
0.177201
0.17668
0.176173
0.175679
0.175197
0.17472
0.198896
0.197729
0.1966
0.195506
0.194447
0.193421
0.192428
0.191465
0.190532
0.189627
0.18875
0.1879
0.187074
0.186274
0.185497
0.184742
0.18401
0.183299
0.182608
0.181937
0.181285
0.180651
0.180035
0.179437
0.178855
0.178288
0.177738
0.177202
0.176681
0.176174
0.175681
0.175199
0.174722
0.198896
0.197729
0.1966
0.195506
0.194447
0.193421
0.192428
0.191465
0.190532
0.189628
0.188751
0.1879
0.187075
0.186274
0.185497
0.184743
0.18401
0.183299
0.182608
0.181937
0.181285
0.180652
0.180036
0.179437
0.178855
0.178289
0.177739
0.177203
0.176683
0.176176
0.175682
0.1752
0.174723
0.198896
0.19773
0.1966
0.195506
0.194447
0.193421
0.192428
0.191465
0.190532
0.189628
0.188751
0.1879
0.187075
0.186274
0.185497
0.184743
0.184011
0.1833
0.182609
0.181938
0.181286
0.180652
0.180037
0.179438
0.178856
0.17829
0.17774
0.177204
0.176683
0.176176
0.175683
0.175201
0.174724
0.198896
0.197729
0.1966
0.195506
0.194447
0.193421
0.192428
0.191465
0.190532
0.189628
0.188751
0.1879
0.187075
0.186274
0.185497
0.184743
0.184011
0.1833
0.182609
0.181938
0.181286
0.180653
0.180037
0.179438
0.178856
0.17829
0.17774
0.177204
0.176683
0.176176
0.175683
0.175201
0.174724
0.198896
0.197729
0.1966
0.195506
0.194447
0.193421
0.192428
0.191465
0.190532
0.189628
0.188751
0.1879
0.187075
0.186274
0.185497
0.184743
0.184011
0.1833
0.182609
0.181938
0.181286
0.180653
0.180037
0.179438
0.178856
0.17829
0.17774
0.177204
0.176683
0.176177
0.175683
0.175201
0.174724
0.198896
0.197729
0.1966
0.195506
0.194447
0.193421
0.192428
0.191465
0.190532
0.189628
0.188751
0.1879
0.187075
0.186274
0.185497
0.184743
0.18401
0.183299
0.182608
0.181937
0.181285
0.180652
0.180036
0.179437
0.178855
0.178289
0.177738
0.177203
0.176682
0.176175
0.175681
0.175199
0.174722
0.198896
0.197729
0.1966
0.195506
0.194447
0.193421
0.192428
0.191465
0.190532
0.189628
0.188751
0.1879
0.187075
0.186274
0.185497
0.184743
0.18401
0.183299
0.182608
0.181937
0.181285
0.180652
0.180036
0.179437
0.178855
0.178289
0.177738
0.177203
0.176682
0.176175
0.175681
0.175199
0.174722
0.198896
0.197729
0.1966
0.195506
0.194447
0.193421
0.192428
0.191465
0.190532
0.189627
0.18875
0.187899
0.187074
0.186273
0.185496
0.184741
0.184009
0.183297
0.182606
0.181935
0.181283
0.180649
0.180033
0.179434
0.178852
0.178285
0.177735
0.177199
0.176678
0.176171
0.175677
0.175195
0.174718
0.198896
0.197729
0.1966
0.195506
0.194447
0.193421
0.192427
0.191465
0.190532
0.189627
0.18875
0.187899
0.187074
0.186273
0.185496
0.184742
0.184009
0.183298
0.182607
0.181936
0.181283
0.18065
0.180034
0.179435
0.178852
0.178286
0.177735
0.177199
0.176678
0.176171
0.175677
0.175195
0.174717
0.198896
0.197729
0.1966
0.195506
0.194447
0.193421
0.192427
0.191464
0.190531
0.189626
0.188749
0.187898
0.187072
0.186271
0.185493
0.184738
0.184005
0.183294
0.182602
0.181931
0.181278
0.180644
0.180028
0.179428
0.178846
0.178279
0.177728
0.177192
0.17667
0.176162
0.175668
0.175185
0.174708
0.198896
0.197729
0.1966
0.195506
0.194446
0.193421
0.192427
0.191464
0.190531
0.189627
0.18875
0.187899
0.187074
0.186273
0.185496
0.184741
0.184008
0.183297
0.182605
0.181934
0.181281
0.180646
0.18003
0.17943
0.178847
0.17828
0.177728
0.177191
0.176669
0.176161
0.175666
0.175182
0.174704
0.198896
0.19773
0.1966
0.195505
0.194446
0.19342
0.192426
0.191462
0.190528
0.189623
0.188745
0.187893
0.187067
0.186265
0.185487
0.184732
0.183998
0.183286
0.182594
0.181921
0.181267
0.180632
0.180014
0.179413
0.178829
0.178261
0.177708
0.17717
0.176646
0.176136
0.175639
0.175154
0.174674
0.198896
0.19773
0.1966
0.195506
0.194447
0.193422
0.192429
0.191467
0.190534
0.18963
0.188753
0.187901
0.187075
0.186274
0.185495
0.184739
0.184004
0.183291
0.182597
0.181923
0.181267
0.180629
0.180009
0.179405
0.178818
0.178247
0.17769
0.177149
0.176621
0.176108
0.175607
0.175118
0.174633
0.198896
0.19773
0.1966
0.195504
0.194443
0.193416
0.192421
0.191457
0.190522
0.189617
0.188738
0.187885
0.187057
0.186253
0.185472
0.184713
0.183975
0.183258
0.18256
0.181881
0.181221
0.180578
0.179952
0.179343
0.17875
0.178172
0.177609
0.177061
0.176527
0.176007
0.175499
0.175004
0.174512
0.198897
0.197733
0.196606
0.195516
0.194462
0.193441
0.19245
0.191489
0.190556
0.18965
0.18877
0.187914
0.187082
0.186273
0.185486
0.18472
0.183974
0.183248
0.182541
0.181852
0.181181
0.180527
0.17989
0.17927
0.178665
0.178075
0.1775
0.17694
0.176393
0.17586
0.175341
0.174832
0.174328
0.1989
0.197735
0.196605
0.195515
0.194465
0.193449
0.192464
0.191508
0.190579
0.189676
0.188796
0.187939
0.187104
0.186291
0.185497
0.184724
0.18397
0.183235
0.182518
0.181819
0.181138
0.180473
0.179825
0.179193
0.178577
0.177976
0.177391
0.176819
0.176262
0.175719
0.175189
0.174672
0.174158
0.198944
0.197852
0.196795
0.195774
0.194787
0.193827
0.192894
0.191986
0.191101
0.190238
0.189397
0.188577
0.187778
0.186998
0.186237
0.185495
0.184771
0.184066
0.183378
0.182708
0.182054
0.181417
0.180797
0.180192
0.179603
0.179029
0.178471
0.177927
0.177397
0.176881
0.176379
0.175889
0.175406
0.199227
0.198572
0.198048
0.197613
0.197233
0.196892
0.196584
0.196305
0.196052
0.195821
0.19561
0.195418
0.195243
0.195084
0.194942
0.194813
0.194699
0.194597
0.194508
0.194431
0.194364
0.194308
0.194261
0.194224
0.194195
0.194174
0.194162
0.194156
0.194157
0.194164
0.194178
0.194197
0.194225
0.209515
0.220347
0.230808
0.24093
0.250733
0.260233
0.269438
0.278351
0.286978
0.295321
0.303382
0.311166
0.318675
0.325913
0.332885
0.339595
0.346049
0.352252
0.35821
0.363929
0.369416
0.374677
0.379719
0.38455
0.389175
0.393602
0.397838
0.401889
0.405764
0.409467
0.413007
0.416391
0.419648
0.644258
0.805083
0.984482
1.16997
1.33647
1.47316
1.57918
1.65841
1.71681
1.76018
1.79289
1.81768
1.8366
1.851
1.86171
1.86908
1.87291
1.87357
1.87079
1.86487
1.85629
1.84556
1.83318
1.81967
1.80558
1.79141
1.7776
1.76447
1.75225
1.74111
1.73121
1.72267
1.71555
1.70986
1.70555
1.70255
1.70074
1.7
1.70014
1.70098
1.70231
1.70393
1.70561
1.70715
1.70834
1.70897
1.70884
1.70778
1.70562
1.70222
1.69743
1.69115
1.68329
1.67378
1.66258
1.64966
1.63502
1.61868
1.60068
1.58109
1.55997
1.53744
1.51362
1.48863
1.46262
1.43576
1.4082
1.38013
1.35173
1.32318
1.29465
1.26634
1.23841
1.21103
1.18435
1.15852
1.13365
1.10984
1.08715
1.06564
1.04531
1.02618
1.00823
0.991444
0.975768
0.961151
0.947524
0.934806
0.92291
0.911739
0.901191
0.891164
0.881562
0.872289
0.863318
0.854613
0.846452
0.839004
0.833689
0.830601
0.287841
0.30752
0.342161
0.396111
0.468651
0.556221
0.652977
0.752617
0.849885
0.941069
1.02403
1.09793
1.16296
1.21991
1.2698
1.31347
1.35141
1.38398
1.41195
1.43561
1.45528
1.47126
1.48386
1.49345
1.50046
1.50534
1.50851
1.51034
1.51118
1.51133
1.51107
1.51064
1.51023
1.50999
1.51002
1.51039
1.51111
1.51217
1.51351
1.51505
1.51668
1.51827
1.51968
1.52077
1.52138
1.52137
1.52058
1.51888
1.51614
1.51223
1.50706
1.50055
1.49263
1.48325
1.47239
1.46002
1.44617
1.43086
1.41413
1.39605
1.37671
1.35619
1.33461
1.31211
1.28881
1.26487
1.24044
1.21568
1.19075
1.16581
1.14104
1.11657
1.09256
1.06915
1.04647
1.02463
1.00373
0.983842
0.965029
0.947317
0.930716
0.915222
0.900818
0.887471
0.875137
0.86376
0.853272
0.843598
0.834653
0.826344
0.818579
0.811257
0.804292
0.797593
0.791131
0.784876
0.779069
0.773857
0.770444
0.76878
0.175883
0.177379
0.180713
0.187103
0.197763
0.213718
0.236281
0.266323
0.303961
0.348549
0.399026
0.454032
0.51208
0.571722
0.631657
0.690747
0.747976
0.802297
0.853521
0.901439
0.945895
0.98678
1.02404
1.05768
1.08782
1.11461
1.13829
1.1591
1.1773
1.19318
1.20703
1.21913
1.22974
1.2391
1.24743
1.25489
1.26164
1.26778
1.27337
1.27846
1.28306
1.28714
1.29066
1.29357
1.29579
1.29724
1.29784
1.2975
1.29614
1.29368
1.29005
1.28519
1.27905
1.27161
1.26284
1.25274
1.24134
1.22865
1.21473
1.19965
1.18347
1.1663
1.14824
1.12941
1.10995
1.08997
1.06963
1.04907
1.02843
1.00784
0.987453
0.967393
0.947789
0.928756
0.910403
0.892823
0.876096
0.860284
0.845432
0.831562
0.81868
0.80678
0.795842
0.785835
0.776717
0.768436
0.76093
0.754131
0.74796
0.742334
0.737168
0.732371
0.727863
0.723561
0.719439
0.715465
0.711852
0.708715
0.707064
0.706689
0.164172
0.163488
0.163038
0.16304
0.163751
0.165459
0.168527
0.173355
0.180333
0.189998
0.202773
0.218999
0.238945
0.262767
0.290477
0.321909
0.356678
0.394159
0.433598
0.474403
0.515938
0.557562
0.59866
0.638683
0.677176
0.713786
0.748262
0.780444
0.810253
0.837686
0.862802
0.885703
0.906524
0.925417
0.942545
0.958073
0.972155
0.984933
0.996526
1.00703
1.01653
1.02506
1.03267
1.03936
1.04512
1.04993
1.05377
1.05658
1.05834
1.059
1.05852
1.05686
1.05399
1.04991
1.04461
1.03809
1.03039
1.02152
1.01155
1.00054
0.988555
0.975695
0.962054
0.94774
0.932868
0.917557
0.90193
0.88611
0.87022
0.85438
0.838708
0.823314
0.808304
0.793778
0.779823
0.76652
0.753935
0.742122
0.731117
0.720943
0.711604
0.703097
0.695404
0.6885
0.682349
0.676907
0.672121
0.667931
0.664269
0.661063
0.658237
0.65571
0.65341
0.651264
0.649248
0.647331
0.645697
0.644428
0.644352
0.645109
0.164797
0.163875
0.162998
0.162212
0.161573
0.161149
0.161034
0.161341
0.162195
0.163748
0.166181
0.169687
0.174467
0.180726
0.18868
0.198534
0.210473
0.224619
0.240987
0.259611
0.280449
0.303374
0.328171
0.354547
0.382147
0.410575
0.439421
0.468285
0.496798
0.52464
0.551553
0.577336
0.601848
0.625004
0.646762
0.66712
0.686102
0.70375
0.720115
0.735253
0.749215
0.762049
0.773791
0.784469
0.7941
0.80269
0.810236
0.816729
0.822153
0.826491
0.829726
0.831843
0.83283
0.832685
0.831414
0.829029
0.825556
0.821032
0.815502
0.809024
0.801666
0.793506
0.784629
0.775129
0.765103
0.754653
0.743884
0.7329
0.721804
0.710699
0.699682
0.688848
0.678286
0.668079
0.658304
0.649027
0.640309
0.632195
0.624722
0.617911
0.611772
0.606305
0.601499
0.597337
0.593791
0.590828
0.588405
0.586473
0.584975
0.583851
0.583036
0.58246
0.58206
0.581773
0.581575
0.581439
0.581519
0.581867
0.583142
0.584851
0.166889
0.165976
0.165066
0.164173
0.163312
0.162504
0.161777
0.16117
0.160729
0.160505
0.160562
0.160974
0.16182
0.163187
0.165168
0.167861
0.171369
0.175793
0.181214
0.187722
0.195406
0.204344
0.214598
0.226202
0.239159
0.25343
0.268935
0.285552
0.303117
0.321442
0.340316
0.359522
0.378848
0.398095
0.417085
0.435666
0.453714
0.471131
0.487843
0.503796
0.518952
0.533284
0.546773
0.559407
0.571171
0.582056
0.592046
0.601127
0.609284
0.616499
0.622757
0.628045
0.632354
0.63568
0.638024
0.639398
0.639818
0.639312
0.637916
0.635674
0.63264
0.628875
0.624447
0.619432
0.613907
0.607955
0.601661
0.595111
0.588389
0.58158
0.574765
0.568022
0.561427
0.555051
0.548958
0.543209
0.537856
0.532943
0.528505
0.524565
0.521139
0.518232
0.515842
0.51396
0.512569
0.511644
0.511155
0.511064
0.511326
0.511892
0.512707
0.513715
0.514862
0.516092
0.517385
0.518714
0.520206
0.521886
0.524259
0.526721
0.168835
0.167969
0.1671
0.16623
0.165369
0.16452
0.163693
0.162901
0.16216
0.161491
0.160916
0.160469
0.160182
0.160095
0.160251
0.160697
0.161481
0.162654
0.164261
0.166348
0.168961
0.172151
0.175963
0.180444
0.185634
0.19157
0.198277
0.205769
0.214043
0.223082
0.23285
0.243293
0.25434
0.265905
0.277893
0.2902
0.302722
0.315355
0.327999
0.34056
0.352954
0.365103
0.37694
0.388402
0.399435
0.409991
0.420024
0.429493
0.43836
0.44659
0.454151
0.461016
0.467161
0.472567
0.477223
0.481124
0.48427
0.486672
0.488348
0.489321
0.489626
0.489302
0.488396
0.486961
0.485054
0.482735
0.480069
0.477121
0.473958
0.470645
0.467247
0.463829
0.460452
0.457176
0.454056
0.451145
0.448489
0.446129
0.4441
0.442428
0.441132
0.440224
0.439708
0.439583
0.439842
0.44047
0.441446
0.442743
0.444329
0.446163
0.448205
0.450405
0.452719
0.455101
0.457532
0.459988
0.462569
0.465274
0.468476
0.471481
0.170384
0.169571
0.168753
0.16793
0.167106
0.166282
0.16546
0.164646
0.163847
0.16307
0.162326
0.161627
0.160989
0.16043
0.15997
0.159633
0.159443
0.159428
0.159616
0.160031
0.160701
0.161651
0.162908
0.164498
0.166443
0.168768
0.171494
0.174639
0.178219
0.182247
0.186729
0.191667
0.197056
0.202886
0.209136
0.215781
0.222788
0.230119
0.23773
0.245572
0.253594
0.261744
0.269967
0.278209
0.286417
0.294539
0.302523
0.310319
0.317879
0.325158
0.332111
0.338699
0.344885
0.350635
0.355923
0.360726
0.365027
0.368818
0.372096
0.374863
0.377131
0.378918
0.380246
0.381146
0.381652
0.381802
0.381638
0.381207
0.380553
0.379727
0.378775
0.377749
0.376695
0.375662
0.374695
0.373839
0.373133
0.372616
0.37232
0.37227
0.37249
0.372994
0.373793
0.374891
0.376289
0.37798
0.379953
0.382188
0.384663
0.387348
0.390211
0.393213
0.396318
0.399487
0.402703
0.405943
0.409285
0.412707
0.416465
0.419806
0.171562
0.170796
0.170024
0.169247
0.168465
0.167679
0.166891
0.166103
0.165316
0.164535
0.163764
0.163006
0.162269
0.161561
0.160892
0.160272
0.159716
0.159237
0.158851
0.158576
0.158426
0.158419
0.158571
0.158899
0.159418
0.160143
0.161088
0.162265
0.163684
0.165357
0.16729
0.16949
0.171963
0.17471
0.177732
0.181027
0.18459
0.188413
0.192486
0.196795
0.201323
0.20605
0.210955
0.216012
0.221194
0.226472
0.231813
0.237187
0.242557
0.247889
0.253148
0.258297
0.263303
0.268132
0.272753
0.277139
0.281264
0.285107
0.288654
0.291893
0.294818
0.297429
0.299731
0.301734
0.303451
0.304903
0.306113
0.307106
0.307912
0.308561
0.309088
0.309527
0.309912
0.310279
0.310665
0.311104
0.31163
0.312275
0.313066
0.31403
0.315189
0.316558
0.318153
0.319982
0.32205
0.324355
0.326893
0.329654
0.332621
0.335773
0.339086
0.34253
0.346075
0.34969
0.35336
0.357061
0.360854
0.364696
0.368754
0.372239
0.172416
0.17169
0.170959
0.170221
0.169479
0.168731
0.16798
0.167224
0.166466
0.165707
0.164948
0.164191
0.16344
0.162697
0.161967
0.161255
0.160569
0.159915
0.159302
0.158739
0.158237
0.157806
0.157456
0.157199
0.157046
0.157007
0.157092
0.157312
0.157673
0.158184
0.158852
0.159681
0.160677
0.161843
0.163181
0.164694
0.166382
0.168245
0.170281
0.172488
0.174862
0.177397
0.180088
0.182925
0.185898
0.188997
0.192208
0.195514
0.198901
0.202348
0.205835
0.209342
0.212845
0.216321
0.219748
0.223103
0.226364
0.229511
0.232526
0.235394
0.238103
0.240644
0.243011
0.245203
0.247221
0.249072
0.250764
0.25231
0.253725
0.255027
0.256235
0.257372
0.258462
0.259528
0.260598
0.261697
0.262852
0.264087
0.265428
0.266896
0.268511
0.270291
0.27225
0.274398
0.276743
0.279289
0.282035
0.284976
0.288101
0.291398
0.294847
0.298425
0.30211
0.305876
0.30971
0.313589
0.317556
0.321557
0.325688
0.329151
0.173028
0.172334
0.171635
0.170931
0.170221
0.169507
0.168787
0.168063
0.167336
0.166604
0.16587
0.165134
0.164396
0.16366
0.162925
0.162195
0.161473
0.160762
0.160068
0.159394
0.158747
0.158133
0.157558
0.15703
0.156556
0.156143
0.1558
0.155533
0.155349
0.155254
0.155254
0.155354
0.155558
0.155871
0.156294
0.156831
0.157484
0.158252
0.159138
0.160142
0.161262
0.162497
0.163848
0.16531
0.16688
0.168556
0.170333
0.172203
0.174161
0.176198
0.178305
0.180471
0.182685
0.184934
0.187204
0.189481
0.191752
0.194001
0.196217
0.198384
0.200493
0.202534
0.204498
0.206379
0.208175
0.209884
0.211508
0.213051
0.214519
0.215922
0.217269
0.218574
0.219852
0.221119
0.222393
0.223692
0.225036
0.226445
0.227938
0.229533
0.231248
0.233098
0.235098
0.237258
0.239588
0.242093
0.244776
0.247635
0.250666
0.253858
0.2572
0.260673
0.264262
0.267943
0.271708
0.275533
0.279449
0.283393
0.287411
0.290721
0.173439
0.172772
0.172099
0.171421
0.170738
0.170051
0.169359
0.168662
0.167961
0.167256
0.166547
0.165834
0.165117
0.164398
0.163677
0.162955
0.162234
0.161514
0.160799
0.160091
0.159393
0.158709
0.158042
0.157396
0.156777
0.156189
0.155638
0.155127
0.154663
0.154251
0.153894
0.153598
0.153366
0.153202
0.15311
0.153091
0.153148
0.153283
0.153497
0.153792
0.154167
0.154624
0.155162
0.155781
0.15648
0.157259
0.158115
0.159047
0.160053
0.161128
0.16227
0.163473
0.164732
0.166042
0.167395
0.168784
0.170201
0.171638
0.173086
0.174537
0.175982
0.177415
0.178829
0.180218
0.181577
0.182905
0.184199
0.185459
0.186689
0.187891
0.189072
0.190238
0.191398
0.192563
0.193745
0.194957
0.196212
0.197527
0.198914
0.20039
0.201969
0.203666
0.205491
0.207458
0.209575
0.211849
0.214284
0.216883
0.219643
0.222559
0.225622
0.228821
0.232142
0.235568
0.23909
0.242687
0.246381
0.250104
0.253871
0.256935
0.173715
0.173067
0.172414
0.171756
0.171094
0.170428
0.169757
0.169082
0.168403
0.16772
0.167032
0.166341
0.165645
0.164946
0.164243
0.163537
0.162829
0.162119
0.161408
0.160698
0.15999
0.159286
0.158588
0.157899
0.15722
0.156557
0.15591
0.155285
0.154683
0.15411
0.153568
0.153061
0.152591
0.152163
0.151779
0.151441
0.151152
0.150914
0.150729
0.150598
0.150521
0.150501
0.150538
0.150632
0.150784
0.150993
0.151259
0.151582
0.151962
0.152397
0.152885
0.153425
0.154015
0.154653
0.155334
0.156056
0.156814
0.157605
0.158423
0.159264
0.160124
0.160997
0.161878
0.162765
0.163654
0.164541
0.165426
0.166307
0.167185
0.168061
0.168938
0.169821
0.170714
0.171624
0.17256
0.17353
0.174545
0.175615
0.176753
0.177969
0.179277
0.180688
0.182214
0.183865
0.18565
0.187578
0.189654
0.191882
0.194262
0.196792
0.199468
0.202281
0.205223
0.208278
0.211441
0.214693
0.218046
0.221433
0.224855
0.227615
0.173885
0.17325
0.172612
0.171969
0.171323
0.170672
0.170018
0.16936
0.168698
0.168031
0.167362
0.166688
0.16601
0.165328
0.164642
0.163953
0.16326
0.162564
0.161865
0.161165
0.160462
0.15976
0.159058
0.158358
0.157662
0.156972
0.156288
0.155614
0.154952
0.154303
0.153671
0.153058
0.152465
0.151897
0.151353
0.150838
0.150353
0.1499
0.14948
0.149095
0.148747
0.148436
0.148164
0.147931
0.147738
0.147585
0.147473
0.147403
0.147373
0.147384
0.147436
0.147528
0.14766
0.147829
0.148036
0.148279
0.148556
0.148864
0.149202
0.149568
0.149958
0.150371
0.150803
0.151253
0.151718
0.152196
0.152687
0.15319
0.153704
0.15423
0.15477
0.155326
0.155902
0.156503
0.157132
0.157798
0.158507
0.159268
0.16009
0.160982
0.161954
0.163017
0.164181
0.165456
0.16685
0.168373
0.17003
0.171827
0.173767
0.175851
0.178077
0.180439
0.182933
0.185548
0.188279
0.191108
0.194045
0.197024
0.200042
0.202468
0.173991
0.173366
0.172737
0.172105
0.17147
0.170831
0.170188
0.169542
0.168892
0.168239
0.167582
0.166922
0.166257
0.16559
0.164918
0.164243
0.163564
0.162882
0.162196
0.161508
0.160816
0.160123
0.159428
0.158732
0.158035
0.15734
0.156647
0.155957
0.155272
0.154592
0.153921
0.153258
0.152607
0.151968
0.151343
0.150733
0.150142
0.149569
0.149016
0.148485
0.147977
0.147493
0.147034
0.146601
0.146195
0.145817
0.145466
0.145144
0.144851
0.144587
0.144353
0.144147
0.143971
0.143824
0.143705
0.143615
0.143552
0.143515
0.143505
0.143519
0.143557
0.143617
0.143698
0.1438
0.14392
0.144058
0.144213
0.144385
0.144575
0.144781
0.145006
0.145252
0.145519
0.145813
0.146135
0.146492
0.146888
0.147329
0.147824
0.148378
0.149002
0.149702
0.150489
0.151371
0.152357
0.153455
0.154673
0.156018
0.157493
0.159103
0.160848
0.162726
0.164736
0.16687
0.169125
0.171486
0.17396
0.176486
0.179066
0.181145
0.17405
0.173431
0.172809
0.172184
0.171556
0.170924
0.170289
0.169652
0.169011
0.168366
0.167719
0.167068
0.166415
0.165757
0.165097
0.164432
0.163765
0.163094
0.16242
0.161742
0.161061
0.160378
0.159692
0.159004
0.158314
0.157623
0.156932
0.156241
0.155551
0.154863
0.154177
0.153496
0.15282
0.152149
0.151486
0.150831
0.150185
0.14955
0.148926
0.148315
0.147718
0.147136
0.146569
0.146018
0.145485
0.14497
0.144473
0.143995
0.143537
0.143099
0.142681
0.142283
0.141907
0.141551
0.141216
0.140901
0.140608
0.140335
0.140082
0.139848
0.139634
0.139439
0.139262
0.139103
0.138962
0.138837
0.138729
0.138638
0.138564
0.138507
0.138468
0.138448
0.138448
0.138472
0.138522
0.1386
0.138712
0.138861
0.139053
0.139294
0.13959
0.139949
0.140379
0.140886
0.14148
0.142168
0.142958
0.143857
0.144872
0.146008
0.147268
0.148653
0.150165
0.1518
0.153556
0.155423
0.157407
0.159453
0.161575
0.163296
0.174085
0.17347
0.172852
0.172231
0.171608
0.170981
0.170352
0.16972
0.169084
0.168446
0.167805
0.167161
0.166514
0.165864
0.165211
0.164555
0.163896
0.163233
0.162568
0.161899
0.161227
0.160553
0.159875
0.159196
0.158513
0.157829
0.157144
0.156457
0.15577
0.155082
0.154395
0.153709
0.153025
0.152343
0.151664
0.150989
0.150318
0.149653
0.148994
0.148342
0.147698
0.147062
0.146435
0.145819
0.145212
0.144618
0.144034
0.143463
0.142905
0.14236
0.141829
0.141312
0.140809
0.14032
0.139846
0.139386
0.138942
0.138512
0.138097
0.137697
0.137311
0.13694
0.136583
0.136241
0.135912
0.135598
0.135297
0.13501
0.134737
0.134479
0.134236
0.134008
0.133798
0.133606
0.133434
0.133285
0.133161
0.133066
0.133003
0.132978
0.132994
0.133059
0.133176
0.133355
0.1336
0.13392
0.134322
0.134813
0.1354
0.136089
0.136886
0.137795
0.138819
0.139958
0.141214
0.142579
0.144061
0.145614
0.147262
0.148616
0.174103
0.17349
0.172875
0.172257
0.171636
0.171012
0.170386
0.169757
0.169125
0.168491
0.167854
0.167214
0.166572
0.165927
0.165279
0.164628
0.163974
0.163318
0.162659
0.161996
0.161331
0.160663
0.159993
0.15932
0.158645
0.157967
0.157288
0.156607
0.155924
0.155241
0.154556
0.153872
0.153187
0.152503
0.15182
0.151138
0.150458
0.14978
0.149106
0.148435
0.147767
0.147105
0.146448
0.145796
0.14515
0.144512
0.14388
0.143256
0.14264
0.142032
0.141434
0.140844
0.140264
0.139694
0.139133
0.138583
0.138043
0.137514
0.136995
0.136486
0.135989
0.135501
0.135025
0.134559
0.134104
0.133659
0.133224
0.132801
0.132388
0.131986
0.131595
0.131216
0.13085
0.130498
0.13016
0.129839
0.129535
0.129252
0.128992
0.128758
0.128554
0.128384
0.128252
0.128163
0.128123
0.128138
0.128214
0.128357
0.128575
0.128873
0.129258
0.129735
0.13031
0.130984
0.131764
0.132643
0.133634
0.134696
0.135868
0.136844
0.174113
0.173502
0.172888
0.172272
0.171652
0.171031
0.170406
0.169779
0.16915
0.168518
0.167883
0.167246
0.166607
0.165964
0.16532
0.164672
0.164022
0.16337
0.162715
0.162057
0.161396
0.160733
0.160068
0.1594
0.15873
0.158057
0.157383
0.156707
0.156029
0.15535
0.15467
0.153988
0.153306
0.152623
0.151941
0.151258
0.150576
0.149894
0.149214
0.148535
0.147858
0.147183
0.146511
0.145842
0.145177
0.144515
0.143857
0.143204
0.142556
0.141913
0.141276
0.140645
0.14002
0.139401
0.138789
0.138184
0.137586
0.136996
0.136412
0.135836
0.135268
0.134707
0.134154
0.133609
0.133071
0.132541
0.132018
0.131504
0.130997
0.130497
0.130006
0.129524
0.12905
0.128585
0.128131
0.127688
0.127256
0.126838
0.126436
0.12605
0.125684
0.125341
0.125022
0.124733
0.124477
0.124259
0.124083
0.123954
0.123877
0.12386
0.123906
0.124022
0.124213
0.124484
0.124841
0.125282
0.125819
0.12642
0.127137
0.127735
0.174119
0.173508
0.172895
0.172279
0.171661
0.17104
0.170417
0.169791
0.169163
0.168532
0.167899
0.167263
0.166625
0.165985
0.165342
0.164697
0.164049
0.163399
0.162746
0.162091
0.161433
0.160773
0.160111
0.159447
0.15878
0.158112
0.157441
0.156769
0.156095
0.155419
0.154742
0.154064
0.153385
0.152705
0.152024
0.151343
0.150661
0.149979
0.149298
0.148617
0.147937
0.147257
0.146579
0.145902
0.145228
0.144555
0.143885
0.143217
0.142552
0.141891
0.141233
0.140578
0.139928
0.139282
0.138641
0.138004
0.137372
0.136745
0.136123
0.135506
0.134895
0.134289
0.133689
0.133094
0.132505
0.131921
0.131343
0.13077
0.130202
0.12964
0.129084
0.128533
0.127988
0.12745
0.126917
0.126392
0.125874
0.125365
0.124865
0.124376
0.123899
0.123435
0.122988
0.122558
0.12215