/*--------------------------------*- C++ -*----------------------------------*\
| =========                 |                                                 |
| \\      /  F ield         | OpenFOAM: The Open Source CFD Toolbox           |
|  \\    /   O peration     | Version:  4.1                                   |
|   \\  /    A nd           | Web:      www.OpenFOAM.org                      |
|    \\/     M anipulation  |                                                 |
\*---------------------------------------------------------------------------*/
FoamFile
{
    version     2.0;
    format      ascii;
    class       volScalarField;
    location    "1200";
    object      nut;
}
// * * * * * * * * * * * * * * * * * * * * * * * * * * * * * * * * * * * * * //

dimensions      [0 2 -1 0 0 0 0];

internalField   nonuniform List<scalar> 
6820
(
4.53774e-05
4.96674e-05
5.35596e-05
5.7033e-05
6.00872e-05
6.27329e-05
6.49892e-05
6.68824e-05
6.84449e-05
6.97114e-05
7.07177e-05
7.14978e-05
7.20841e-05
7.25058e-05
7.27893e-05
7.29578e-05
7.30314e-05
7.30275e-05
7.29609e-05
7.28442e-05
7.26882e-05
7.25016e-05
7.22921e-05
7.20657e-05
7.18277e-05
7.15822e-05
7.13329e-05
7.10825e-05
7.08333e-05
7.05874e-05
7.03458e-05
7.01145e-05
6.99707e-05
0.000389004
0.000214804
0.000161971
0.000134577
0.000117082
0.000104841
9.58724e-05
8.91195e-05
8.39493e-05
7.99547e-05
7.68576e-05
7.44593e-05
7.26133e-05
7.12095e-05
7.01639e-05
6.94111e-05
6.88998e-05
6.85893e-05
6.84467e-05
6.84457e-05
6.85646e-05
6.87854e-05
6.90931e-05
6.94752e-05
6.99209e-05
7.04212e-05
7.09681e-05
7.15548e-05
7.21759e-05
7.28246e-05
7.35008e-05
7.41943e-05
7.51909e-05
0.000867009
0.000638273
0.00050769
0.000428082
0.000375014
0.000336916
0.000308048
0.000285295
0.000266813
0.00025144
0.000238413
0.00022721
0.000217458
0.00020889
0.000201303
0.000194545
0.000188496
0.000183062
0.000178166
0.00017375
0.000169743
0.000166041
0.000162606
0.000159413
0.000156443
0.00015368
0.000151107
0.000148711
0.000146478
0.000144399
0.000142458
0.000140657
0.000139055
0.000991214
0.000902164
0.000807377
0.000726622
0.000661863
0.000610175
0.000568431
0.000534166
0.000505567
0.000481331
0.000460513
0.000442414
0.000426509
0.0004124
0.00039978
0.000388413
0.000378111
0.000368724
0.000360134
0.000352242
0.000344971
0.00033822
0.000331916
0.000326008
0.000320452
0.000315214
0.000310264
0.000305579
0.000301136
0.000296916
0.000292902
0.000289081
0.000285433
0.00101005
0.00098739
0.000948626
0.000902916
0.000857083
0.00081444
0.000776076
0.000742011
0.000711858
0.000685132
0.000661359
0.000640115
0.000621037
0.000603821
0.00058821
0.00057399
0.000560984
0.000549041
0.000538035
0.000527861
0.000518429
0.000509658
0.000501477
0.000493823
0.000486643
0.000479889
0.000473523
0.000467508
0.000461815
0.000456416
0.000451288
0.000446407
0.000441712
0.00101185
0.00100724
0.000995356
0.000976942
0.000954121
0.000929118
0.000903659
0.000878801
0.000855099
0.000832805
0.000812001
0.000792668
0.000774737
0.000758113
0.000742692
0.000728374
0.00071506
0.000702662
0.000691095
0.000680287
0.00067017
0.000660683
0.000651773
0.000643389
0.000635487
0.000628027
0.000620973
0.000614293
0.000607959
0.000601943
0.000596222
0.000590768
0.0005855
0.00101178
0.00101089
0.00100777
0.00100182
0.000992905
0.000981471
0.000968242
0.00095392
0.000939072
0.000924117
0.000909347
0.000894953
0.000881053
0.000867715
0.00085497
0.000842827
0.00083128
0.000820311
0.000809899
0.000800017
0.000790637
0.000781725
0.000773254
0.0007652
0.000757539
0.000750246
0.0007433
0.00073668
0.000730366
0.000724339
0.000718581
0.000713066
0.000707706
0.00101168
0.00101136
0.00101047
0.00100868
0.00100565
0.0010012
0.000995412
0.000988494
0.000980691
0.000972245
0.000963375
0.000954264
0.000945058
0.000935871
0.000926788
0.00091787
0.000909162
0.000900694
0.000892486
0.000884548
0.000876885
0.000869497
0.00086238
0.000855529
0.000848937
0.000842597
0.000836499
0.000830636
0.000824999
0.000819577
0.00081436
0.000809329
0.000804393
0.00101165
0.00101137
0.00101095
0.0010103
0.00100928
0.00100769
0.00100543
0.00100251
0.000998941
0.000994803
0.000990178
0.00098516
0.000979838
0.000974296
0.000968606
0.00096283
0.000957019
0.000951215
0.00094545
0.00093975
0.000934136
0.000928624
0.000923226
0.000917951
0.000912805
0.000907792
0.000902914
0.000898172
0.000893566
0.000889095
0.000884756
0.000880532
0.000876338
0.00101164
0.00101135
0.00101102
0.00101063
0.00101016
0.00100951
0.0010086
0.00100738
0.00100583
0.00100394
0.00100172
0.000999201
0.000996409
0.000993382
0.000990158
0.000986773
0.000983263
0.000979658
0.000975986
0.000972273
0.000968538
0.0009648
0.000961074
0.000957374
0.000953709
0.000950089
0.000946521
0.000943011
0.000939564
0.000936182
0.000932867
0.000929606
0.000926318
0.00101163
0.00101134
0.00101103
0.0010107
0.00101036
0.00100998
0.00100952
0.00100894
0.00100823
0.00100736
0.00100632
0.00100511
0.00100373
0.00100219
0.00100049
0.000998656
0.000996699
0.000994636
0.000992481
0.00099025
0.000987958
0.000985618
0.000983241
0.000980839
0.000978421
0.000975996
0.000973572
0.000971156
0.000968753
0.000966369
0.000964005
0.000961652
0.000959227
0.00101163
0.00101134
0.00101103
0.00101072
0.00101041
0.0010101
0.00100977
0.00100939
0.00100897
0.00100849
0.00100793
0.0010073
0.00100658
0.00100577
0.00100487
0.00100388
0.00100282
0.00100167
0.00100045
0.000999166
0.000997824
0.00099643
0.000994992
0.000993517
0.00099201
0.000990479
0.000988927
0.000987362
0.000985787
0.000984206
0.000982622
0.000981024
0.000979332
0.00101163
0.00101133
0.00101104
0.00101073
0.00101043
0.00101014
0.00100984
0.00100953
0.00100921
0.00100886
0.0010085
0.0010081
0.00100766
0.00100719
0.00100667
0.00100611
0.00100551
0.00100486
0.00100416
0.00100342
0.00100265
0.00100183
0.00100098
0.0010001
0.000999189
0.000998253
0.000997294
0.000996317
0.000995323
0.000994316
0.000993296
0.00099225
0.000991102
0.00101163
0.00101133
0.00101104
0.00101074
0.00101045
0.00101016
0.00100987
0.00100958
0.00100929
0.00100899
0.00100869
0.00100837
0.00100804
0.0010077
0.00100734
0.00100696
0.00100657
0.00100615
0.0010057
0.00100524
0.00100476
0.00100425
0.00100372
0.00100317
0.00100261
0.00100202
0.00100142
0.00100081
0.00100018
0.000999537
0.000998884
0.000998207
0.000997426
0.00101163
0.00101133
0.00101104
0.00101075
0.00101046
0.00101018
0.00100989
0.00100961
0.00100933
0.00100905
0.00100877
0.00100848
0.0010082
0.00100791
0.00100761
0.00100732
0.00100701
0.0010067
0.00100638
0.00100604
0.0010057
0.00100536
0.001005
0.00100463
0.00100425
0.00100386
0.00100346
0.00100306
0.00100264
0.00100222
0.00100179
0.00100134
0.00100078
0.00101163
0.00101133
0.00101105
0.00101075
0.00101047
0.00101019
0.00100991
0.00100963
0.00100936
0.00100908
0.00100881
0.00100854
0.00100827
0.001008
0.00100773
0.00100746
0.00100719
0.00100692
0.00100665
0.00100637
0.0010061
0.00100582
0.00100553
0.00100525
0.00100496
0.00100467
0.00100437
0.00100407
0.00100377
0.00100346
0.00100315
0.00100282
0.0010024
0.00101163
0.00101133
0.00101105
0.00101076
0.00101048
0.0010102
0.00100992
0.00100965
0.00100938
0.00100911
0.00100884
0.00100858
0.00100831
0.00100805
0.0010078
0.00100754
0.00100729
0.00100704
0.00100679
0.00100654
0.00100629
0.00100605
0.0010058
0.00100556
0.00100531
0.00100507
0.00100483
0.00100458
0.00100434
0.0010041
0.00100385
0.00100359
0.00100323
0.00101163
0.00101133
0.00101105
0.00101076
0.00101048
0.00101021
0.00100994
0.00100966
0.0010094
0.00100913
0.00100887
0.00100861
0.00100835
0.00100809
0.00100784
0.00100759
0.00100735
0.00100711
0.00100687
0.00100663
0.00100639
0.00100616
0.00100593
0.00100571
0.00100548
0.00100526
0.00100504
0.00100482
0.00100461
0.00100439
0.00100418
0.00100395
0.00100363
0.00101163
0.00101133
0.00101105
0.00101077
0.00101049
0.00101022
0.00100994
0.00100968
0.00100941
0.00100915
0.00100889
0.00100863
0.00100838
0.00100812
0.00100788
0.00100763
0.00100739
0.00100716
0.00100692
0.00100669
0.00100647
0.00100624
0.00100602
0.00100581
0.00100559
0.00100538
0.00100517
0.00100497
0.00100477
0.00100457
0.00100437
0.00100416
0.00100386
0.00101163
0.00101133
0.00101105
0.00101077
0.00101049
0.00101022
0.00100995
0.00100969
0.00100942
0.00100916
0.0010089
0.00100865
0.0010084
0.00100815
0.00100791
0.00100767
0.00100743
0.0010072
0.00100697
0.00100674
0.00100652
0.0010063
0.00100608
0.00100587
0.00100567
0.00100546
0.00100526
0.00100506
0.00100487
0.00100468
0.00100449
0.00100428
0.00100399
0.00101163
0.00101133
0.00101105
0.00101077
0.0010105
0.00101023
0.00100996
0.00100969
0.00100943
0.00100917
0.00100892
0.00100867
0.00100842
0.00100817
0.00100793
0.00100769
0.00100746
0.00100723
0.001007
0.00100678
0.00100656
0.00100635
0.00100614
0.00100593
0.00100572
0.00100552
0.00100533
0.00100513
0.00100495
0.00100476
0.00100457
0.00100438
0.00100409
0.00101163
0.00101133
0.00101105
0.00101077
0.0010105
0.00101023
0.00100996
0.0010097
0.00100944
0.00100918
0.00100893
0.00100868
0.00100843
0.00100819
0.00100795
0.00100772
0.00100749
0.00100726
0.00100704
0.00100682
0.0010066
0.00100639
0.00100618
0.00100597
0.00100577
0.00100557
0.00100538
0.00100519
0.00100501
0.00100482
0.00100464
0.00100445
0.00100416
0.00101163
0.00101133
0.00101105
0.00101077
0.0010105
0.00101023
0.00100997
0.00100971
0.00100945
0.00100919
0.00100894
0.00100869
0.00100845
0.00100821
0.00100797
0.00100774
0.00100751
0.00100728
0.00100706
0.00100684
0.00100663
0.00100642
0.00100621
0.00100601
0.00100581
0.00100562
0.00100542
0.00100524
0.00100505
0.00100487
0.00100469
0.0010045
0.00100422
0.00101163
0.00101133
0.00101105
0.00101077
0.0010105
0.00101023
0.00100997
0.00100971
0.00100945
0.0010092
0.00100895
0.0010087
0.00100846
0.00100822
0.00100798
0.00100775
0.00100753
0.0010073
0.00100708
0.00100687
0.00100665
0.00100644
0.00100624
0.00100604
0.00100584
0.00100565
0.00100546
0.00100527
0.00100509
0.00100491
0.00100474
0.00100455
0.00100427
0.00101163
0.00101133
0.00101105
0.00101077
0.0010105
0.00101024
0.00100997
0.00100971
0.00100946
0.0010092
0.00100895
0.00100871
0.00100847
0.00100823
0.00100799
0.00100776
0.00100754
0.00100731
0.00100709
0.00100688
0.00100667
0.00100646
0.00100626
0.00100606
0.00100586
0.00100567
0.00100548
0.00100529
0.00100511
0.00100493
0.00100476
0.00100457
0.00100429
0.00101163
0.00101133
0.00101105
0.00101077
0.0010105
0.00101024
0.00100997
0.00100971
0.00100946
0.0010092
0.00100895
0.00100871
0.00100847
0.00100823
0.001008
0.00100777
0.00100754
0.00100732
0.0010071
0.00100689
0.00100668
0.00100647
0.00100627
0.00100607
0.00100588
0.00100568
0.0010055
0.00100531
0.00100513
0.00100496
0.00100478
0.00100459
0.00100432
0.00101163
0.00101133
0.00101105
0.00101077
0.0010105
0.00101024
0.00100997
0.00100971
0.00100946
0.0010092
0.00100896
0.00100871
0.00100847
0.00100823
0.001008
0.00100777
0.00100754
0.00100732
0.0010071
0.00100688
0.00100667
0.00100646
0.00100626
0.00100606
0.00100586
0.00100567
0.00100548
0.0010053
0.00100512
0.00100494
0.00100476
0.00100457
0.00100429
0.00101163
0.00101133
0.00101105
0.00101077
0.0010105
0.00101024
0.00100997
0.00100971
0.00100945
0.0010092
0.00100895
0.00100871
0.00100847
0.00100823
0.00100799
0.00100776
0.00100754
0.00100732
0.0010071
0.00100688
0.00100667
0.00100647
0.00100627
0.00100607
0.00100587
0.00100568
0.00100549
0.00100531
0.00100513
0.00100495
0.00100478
0.00100459
0.00100431
0.00101163
0.00101133
0.00101105
0.00101077
0.0010105
0.00101023
0.00100997
0.00100971
0.00100945
0.0010092
0.00100894
0.0010087
0.00100845
0.00100821
0.00100797
0.00100774
0.00100751
0.00100729
0.00100706
0.00100684
0.00100663
0.00100642
0.00100621
0.00100601
0.00100581
0.00100562
0.00100542
0.00100524
0.00100505
0.00100487
0.00100469
0.0010045
0.00100422
0.00101163
0.00101133
0.00101105
0.00101077
0.0010105
0.00101023
0.00100997
0.0010097
0.00100945
0.00100919
0.00100894
0.00100869
0.00100845
0.00100821
0.00100798
0.00100775
0.00100752
0.0010073
0.00100708
0.00100686
0.00100665
0.00100644
0.00100623
0.00100603
0.00100583
0.00100564
0.00100544
0.00100526
0.00100507
0.00100489
0.00100471
0.00100451
0.00100423
0.00101163
0.00101133
0.00101105
0.00101077
0.0010105
0.00101023
0.00100996
0.00100969
0.00100943
0.00100917
0.00100891
0.00100866
0.00100841
0.00100816
0.00100791
0.00100767
0.00100744
0.0010072
0.00100697
0.00100674
0.00100652
0.0010063
0.00100608
0.00100587
0.00100566
0.00100545
0.00100525
0.00100505
0.00100486
0.00100466
0.00100447
0.00100426
0.00100397
0.00101163
0.00101133
0.00101105
0.00101077
0.00101049
0.00101022
0.00100996
0.0010097
0.00100944
0.00100918
0.00100893
0.00100868
0.00100843
0.00100819
0.00100795
0.00100771
0.00100747
0.00100723
0.00100699
0.00100676
0.00100653
0.0010063
0.00100606
0.00100584
0.00100561
0.00100538
0.00100516
0.00100493
0.00100471
0.00100449
0.00100426
0.00100403
0.00100369
0.00101163
0.00101133
0.00101105
0.00101077
0.00101048
0.0010102
0.00100992
0.00100964
0.00100935
0.00100907
0.00100879
0.00100851
0.00100822
0.00100794
0.00100766
0.00100738
0.0010071
0.00100681
0.00100653
0.00100624
0.00100595
0.00100566
0.00100536
0.00100507
0.00100477
0.00100447
0.00100416
0.00100386
0.00100355
0.00100325
0.00100293
0.00100261
0.00100218
0.00101163
0.00101134
0.00101105
0.00101077
0.00101049
0.00101021
0.00100993
0.00100964
0.00100934
0.00100903
0.00100871
0.00100837
0.00100802
0.00100766
0.00100728
0.00100689
0.00100648
0.00100606
0.00100562
0.00100516
0.00100469
0.00100421
0.00100371
0.0010032
0.00100268
0.00100215
0.00100161
0.00100106
0.00100051
0.000999942
0.00099937
0.000998776
0.000998084
0.00101163
0.00101134
0.00101103
0.00101069
0.00101033
0.00100994
0.00100951
0.00100904
0.00100853
0.00100796
0.00100734
0.00100667
0.00100594
0.00100515
0.00100431
0.00100342
0.00100248
0.00100149
0.00100047
0.000999414
0.000998324
0.000997207
0.000996067
0.000994906
0.00099373
0.000992542
0.000991344
0.000990139
0.00098893
0.00098772
0.000986508
0.000985283
0.000983969
0.00101164
0.00101133
0.00101094
0.00101042
0.00100973
0.00100883
0.0010077
0.00100635
0.00100478
0.001003
0.00100104
0.000998909
0.000996631
0.000994228
0.000991719
0.000989125
0.000986463
0.00098375
0.000981
0.000978226
0.00097544
0.000972653
0.000969872
0.000967103
0.000964354
0.00096163
0.000958937
0.000956278
0.000953656
0.000951075
0.000948535
0.000946023
0.000943466
0.00101162
0.0010106
0.00100853
0.00100543
0.0010014
0.000996513
0.00099091
0.000984747
0.000978174
0.000971314
0.000964272
0.000957136
0.000949978
0.000942854
0.000935809
0.000928876
0.000922082
0.000915443
0.000908975
0.000902685
0.000896578
0.000890657
0.000884923
0.000879373
0.000874006
0.000868819
0.000863806
0.000858963
0.000854286
0.000849769
0.000845405
0.000841179
0.000837016
0.00100895
0.000995379
0.000976042
0.000953694
0.00093032
0.000907093
0.000884657
0.000863329
0.000843228
0.000824388
0.000806781
0.000790352
0.000775024
0.00076072
0.000747357
0.00073486
0.000723158
0.000712183
0.000701876
0.000692182
0.000683051
0.000674439
0.000666305
0.000658613
0.000651329
0.000644424
0.000637871
0.000631644
0.000625722
0.000620084
0.00061471
0.00060958
0.000604632
0.000892788
0.000742255
0.000649202
0.00058554
0.000538566
0.000502138
0.000472884
0.000448753
0.000428416
0.000410981
0.000395823
0.000382492
0.000370655
0.000360056
0.0003505
0.000341831
0.000333927
0.000326686
0.000320026
0.000313879
0.000308188
0.000302904
0.000297984
0.000293395
0.000289104
0.000285084
0.000281313
0.000277768
0.000274431
0.000271286
0.000268318
0.000265514
0.000262862
0.000126722
0.000129956
0.000133005
0.000135891
0.000138628
0.00014123
0.000143705
0.000146063
0.000148309
0.00015045
0.000152489
0.000154433
0.000156285
0.00015805
0.000159732
0.000161334
0.00016286
0.000164313
0.000165696
0.000167014
0.000168268
0.000169462
0.000170599
0.00017168
0.00017271
0.000173689
0.000174621
0.000175508
0.000176352
0.000177155
0.000177919
0.000178647
0.000179344
8.54725e-05
0.000115337
0.000145821
0.000176029
0.000203032
0.000226761
0.000248164
0.000268299
0.000288076
0.00030808
0.000328537
0.000349419
0.000370693
0.000392288
0.000414095
0.000435937
0.000457593
0.000479059
0.000500216
0.000521102
0.00054176
0.000562232
0.000582593
0.000602959
0.00062347
0.000644258
0.000665426
0.000687065
0.000709271
0.000732152
0.000755803
0.000780294
0.000805669
0.000831963
0.000859206
0.00088741
0.000916553
0.000946586
0.000977444
0.00100905
0.00104132
0.00107414
0.0011074
0.001141
0.0011748
0.0012087
0.00124257
0.00127631
0.00130981
0.00134297
0.0013757
0.00140793
0.00143958
0.00147061
0.00150096
0.0015306
0.00155951
0.00158768
0.0016151
0.00164181
0.00166782
0.00169319
0.00171796
0.0017422
0.00176599
0.0017894
0.00181252
0.00183544
0.00185825
0.00188105
0.00190391
0.00192694
0.0019502
0.00197378
0.00199773
0.0020221
0.00204689
0.0020721
0.00209767
0.00212353
0.00214958
0.00217575
0.00220194
0.00222805
0.00225398
0.00227962
0.00230484
0.00232952
0.00235355
0.00237681
0.0023992
0.00242063
0.00244103
0.00246041
0.00247889
0.00249693
0.0025154
0.00253647
0.00256369
0.00261253
7.83549e-05
8.47446e-05
9.52606e-05
0.000110475
0.000129533
0.000151373
0.000174495
0.000197719
0.000220456
0.000242501
0.000263893
0.000284814
0.00030552
0.000326257
0.000347185
0.000368328
0.000389598
0.000410917
0.000432303
0.000453635
0.000474836
0.000495867
0.000516729
0.000537474
0.000558187
0.000578956
0.000599857
0.000620963
0.000642356
0.000664134
0.00068639
0.000709201
0.00073263
0.000756737
0.000781576
0.000807189
0.000833594
0.000860789
0.000888754
0.000917453
0.000946836
0.000976838
0.00100738
0.00103839
0.00106975
0.00110139
0.00113318
0.00116504
0.00119686
0.00122856
0.00126003
0.0012912
0.001322
0.00135236
0.00138224
0.00141159
0.00144039
0.00146862
0.00149629
0.00152339
0.00154997
0.00157606
0.0016017
0.00162696
0.0016519
0.0016766
0.00170112
0.00172556
0.00174999
0.00177448
0.00179912
0.00182397
0.00184911
0.00187459
0.00190046
0.00192674
0.00195345
0.00198056
0.00200801
0.00203573
0.00206363
0.0020916
0.00211957
0.00214742
0.00217504
0.00220234
0.00222918
0.00225545
0.00228103
0.00230582
0.00232971
0.00235261
0.00237447
0.00239531
0.00241523
0.00243467
0.00245445
0.00247653
0.00250403
0.00254863
0.00013774
0.000137412
0.000137921
0.000139206
0.000141084
0.000143448
0.000147851
0.00015529
0.000165902
0.000179188
0.000194724
0.000212079
0.000230829
0.000250598
0.000271071
0.000291986
0.000313088
0.000334204
0.000355438
0.000376731
0.000398012
0.00041922
0.000440318
0.000461305
0.000482207
0.000503061
0.000523908
0.00054479
0.000565768
0.000586918
0.000608322
0.000630057
0.000652192
0.000674796
0.000697936
0.000721673
0.000746051
0.000771101
0.000796837
0.000823259
0.000850351
0.00087808
0.000906404
0.000935264
0.000964594
0.000994315
0.00102434
0.00105459
0.00108497
0.0011154
0.00114578
0.00117605
0.00120613
0.00123596
0.00126549
0.00129468
0.0013235
0.00135194
0.00137998
0.00140764
0.00143494
0.0014619
0.00148858
0.00151502
0.00154128
0.00156741
0.00159349
0.00161957
0.00164573
0.00167202
0.00169852
0.00172526
0.00175231
0.00177971
0.00180749
0.00183567
0.00186424
0.00189317
0.0019224
0.00195186
0.00198144
0.00201107
0.00204062
0.00207002
0.00209914
0.00212788
0.00215612
0.00218376
0.00221067
0.00223676
0.00226193
0.0022861
0.00230921
0.00233129
0.00235245
0.0023731
0.00239399
0.00241688
0.00244443
0.00248426
0.000281176
0.000277081
0.000273363
0.000270021
0.000266857
0.000263257
0.000258688
0.000253003
0.000246342
0.000240656
0.00023688
0.000235494
0.000236866
0.000241147
0.000248278
0.000258031
0.000270044
0.000283897
0.000299268
0.000315893
0.000333475
0.000351748
0.000370506
0.000389601
0.000408942
0.000428475
0.000448169
0.000468013
0.000488017
0.000508209
0.000528632
0.00054933
0.00057035
0.000591741
0.00061356
0.00063586
0.00065869
0.000682091
0.000706094
0.000730719
0.000755972
0.000781847
0.000808326
0.000835378
0.000862962
0.000891022
0.000919497
0.000948319
0.000977414
0.00100671
0.00103614
0.00106562
0.0010951
0.00112452
0.00115382
0.00118298
0.00121195
0.00124072
0.00126928
0.00129764
0.0013258
0.00135378
0.00138163
0.00140938
0.00143707
0.00146474
0.00149246
0.00152026
0.0015482
0.00157633
0.00160468
0.00163331
0.00166224
0.0016915
0.0017211
0.00175106
0.00178135
0.00181195
0.00184278
0.00187376
0.00190482
0.00193584
0.00196673
0.0019974
0.00202775
0.00205765
0.00208702
0.00211573
0.0021437
0.00217082
0.00219699
0.00222216
0.00224626
0.00226933
0.00229148
0.0023131
0.00233485
0.0023583
0.00238567
0.00242022
0.000436014
0.000430299
0.000424734
0.000419453
0.000414492
0.000409768
0.00040505
0.000399966
0.000394013
0.000386882
0.000378731
0.000369955
0.000360888
0.000351986
0.000343795
0.00033687
0.000331693
0.000328585
0.000327819
0.000329532
0.000333673
0.000340088
0.00034857
0.000358881
0.000370782
0.000384041
0.000398441
0.0004138
0.00042997
0.000446844
0.00046435
0.000482437
0.00050108
0.000520267
0.000540003
0.000560301
0.000581179
0.000602657
0.000624754
0.000647485
0.000670859
0.000694878
0.000719536
0.000744818
0.0007707
0.000797146
0.000824115
0.000851555
0.00087941
0.000907622
0.000936131
0.000964876
0.0009938
0.00102285
0.00105198
0.00108115
0.00111033
0.0011395
0.00116863
0.00119773
0.0012268
0.00125585
0.00128489
0.00131396
0.00134309
0.00137229
0.00140162
0.00143109
0.00146075
0.00149061
0.00152072
0.00155108
0.00158172
0.00161265
0.00164386
0.00167536
0.00170712
0.00173909
0.00177121
0.00180341
0.00183559
0.00186767
0.00189955
0.00193113
0.00196233
0.00199305
0.00202318
0.00205263
0.0020813
0.00210911
0.00213597
0.00216181
0.00218661
0.00221037
0.00223322
0.00225553
0.00227787
0.00230159
0.0023285
0.00235734
0.000579025
0.000572595
0.000566233
0.000560009
0.000553989
0.000548199
0.00054266
0.00053735
0.000532144
0.000526846
0.00052123
0.000515223
0.000508626
0.000501294
0.000493145
0.000484182
0.000474524
0.000464379
0.000454136
0.000444283
0.0004353
0.000427618
0.000421596
0.000417498
0.000415491
0.000415642
0.000417935
0.000422286
0.000428573
0.00043665
0.000446362
0.00045756
0.000470103
0.00048387
0.00049876
0.000514693
0.000531608
0.000549456
0.000568204
0.000587822
0.00060829
0.000629585
0.000651688
0.000674575
0.00069822
0.000722588
0.000747643
0.000773341
0.000799634
0.000826469
0.000853794
0.000881554
0.000909696
0.000938168
0.000966925
0.000995923
0.00102513
0.00105451
0.00108404
0.00111371
0.00114351
0.00117344
0.0012035
0.00123369
0.00126404
0.00129455
0.00132524
0.00135612
0.00138721
0.00141851
0.00145004
0.00148179
0.00151377
0.00154597
0.00157839
0.001611
0.00164378
0.00167667
0.00170963
0.00174256
0.00177541
0.00180807
0.00184046
0.00187251
0.00190413
0.00193521
0.00196569
0.00199546
0.00202445
0.00205257
0.00207974
0.00210592
0.00213107
0.00215521
0.00217845
0.00220114
0.00222377
0.00224745
0.00227364
0.00229644
0.000701047
0.000694453
0.00068796
0.000681542
0.00067528
0.000669198
0.000663319
0.00065767
0.000652234
0.00064699
0.000641889
0.000636897
0.000631936
0.000626897
0.000621644
0.000616021
0.000609863
0.000603012
0.000595344
0.000586855
0.000577615
0.000567786
0.000557624
0.000547453
0.000537638
0.000528552
0.000520542
0.000513906
0.000508883
0.000505642
0.000504286
0.000504858
0.00050735
0.000511719
0.000517897
0.0005258
0.00053534
0.000546428
0.000558978
0.000572912
0.00058816
0.000604656
0.000622342
0.000641163
0.000661067
0.000682001
0.000703913
0.000726747
0.00075045
0.000774964
0.000800229
0.000826189
0.000852784
0.000879958
0.000907659
0.000935835
0.000964441
0.000993436
0.00102278
0.00105246
0.00108243
0.00111268
0.00114319
0.00117395
0.00120496
0.00123621
0.00126769
0.00129938
0.0013313
0.00136342
0.00139573
0.00142823
0.00146091
0.00149373
0.00152669
0.00155976
0.0015929
0.00162607
0.00165921
0.00169227
0.00172516
0.00175782
0.00179017
0.00182214
0.00185365
0.00188462
0.00191498
0.00194464
0.00197353
0.00200157
0.0020287
0.00205487
0.00208004
0.00210425
0.00212758
0.00215036
0.00217299
0.00219634
0.00222156
0.00223816
0.000798149
0.000792013
0.000785946
0.000779924
0.000773977
0.000768116
0.000762357
0.000756729
0.000751261
0.000745971
0.000740873
0.000735979
0.000731288
0.000726784
0.000722433
0.00071818
0.000713948
0.000709633
0.000705108
0.000700249
0.000694934
0.000689069
0.000682576
0.000675443
0.000667722
0.000659534
0.000651057
0.000642518
0.000634178
0.000626309
0.000619179
0.000613037
0.000608101
0.00060455
0.000602524
0.00060212
0.000603399
0.000606389
0.000611094
0.000617497
0.000625566
0.00063526
0.000646529
0.000659322
0.00067358
0.000689244
0.000706254
0.000724545
0.000744053
0.000764712
0.000786454
0.000809213
0.000832919
0.000857507
0.000882911
0.000909067
0.000935915
0.000963399
0.000991464
0.00102006
0.00104915
0.00107868
0.00110863
0.00113895
0.00116961
0.00120059
0.00123185
0.00126338
0.00129513
0.00132709
0.00135923
0.00139152
0.00142394
0.00145647
0.00148906
0.00152171
0.00155436
0.00158699
0.00161955
0.00165198
0.00168423
0.00171623
0.00174792
0.00177925
0.00181013
0.00184052
0.00187032
0.00189948
0.00192791
0.00195555
0.00198234
0.00200821
0.00203315
0.00205718
0.00208037
0.002103
0.00212541
0.00214823
0.00217231
0.0021828
0.000870887
0.000865604
0.000860342
0.000855102
0.000849871
0.000844671
0.000839517
0.000834429
0.000829427
0.000824528
0.000819745
0.000815085
0.000810568
0.000806214
0.000802037
0.000798044
0.000794232
0.000790585
0.00078707
0.000783626
0.000780196
0.000776708
0.000773084
0.000769245
0.000765123
0.000760673
0.000755875
0.000750745
0.000745344
0.000739722
0.000734001
0.000728336
0.000722904
0.000717894
0.000713493
0.000709878
0.000707214
0.000705646
0.000705301
0.00070628
0.000708664
0.000712511
0.00071786
0.000724732
0.000733134
0.000743057
0.000754483
0.00076738
0.000781711
0.000797429
0.000814483
0.000832813
0.000852358
0.000873052
0.000894828
0.000917618
0.000941352
0.000965963
0.000991382
0.00101755
0.00104439
0.00107186
0.00109989
0.00112843
0.00115743
0.00118684
0.0012166
0.00124668
0.00127703
0.00130761
0.00133838
0.00136931
0.00140036
0.0014315
0.00146271
0.00149396
0.00152521
0.00155644
0.00158761
0.00161868
0.00164961
0.00168035
0.00171084
0.00174104
0.00177089
0.00180032
0.00182927
0.00185766
0.00188542
0.00191248
0.00193877
0.00196424
0.00198884
0.0020126
0.00203556
0.00205798
0.00208007
0.00210228
0.0021252
0.00213005
0.000921864
0.000917653
0.000913422
0.000909175
0.000904908
0.000900622
0.000896334
0.000892053
0.000887789
0.000883555
0.000879362
0.000875223
0.000871153
0.000867167
0.000863285
0.000859524
0.000855902
0.000852438
0.000849141
0.000846016
0.000843066
0.000840272
0.000837614
0.000835064
0.000832587
0.000830144
0.000827695
0.000825206
0.000822654
0.000820024
0.000817318
0.000814561
0.000811802
0.000809119
0.00080656
0.000804224
0.000802228
0.000800696
0.000799752
0.000799517
0.000800109
0.000801634
0.00080419
0.000807859
0.000812712
0.000818805
0.000826182
0.000834869
0.000844883
0.000856227
0.00086889
0.000882853
0.000898087
0.000914553
0.000932205
0.00095099
0.000970851
0.000991727
0.00101355
0.00103626
0.00105979
0.00108407
0.00110903
0.00113461
0.00116075
0.00118738
0.00121445
0.0012419
0.00126968
0.00129775
0.00132605
0.00135455
0.00138322
0.00141202
0.00144094
0.00146994
0.00149902
0.00152814
0.00155729
0.00158644
0.00161556
0.00164461
0.00167356
0.00170236
0.00173096
0.00175929
0.0017873
0.00181489
0.001842
0.00186855
0.00189444
0.00191962
0.00194403
0.00196767
0.00199055
0.00201289
0.00203482
0.00205656
0.00207853
0.0020787
0.000955744
0.000952591
0.000949392
0.000946151
0.000942872
0.000939552
0.000936196
0.000932812
0.000929409
0.000925994
0.000922575
0.00091916
0.000915755
0.000912367
0.000909011
0.000905702
0.000902459
0.000899301
0.000896244
0.000893305
0.000890507
0.000887867
0.000885397
0.000883107
0.000881003
0.000879084
0.000877345
0.000875776
0.000874365
0.000873098
0.000871963
0.000870953
0.000870068
0.000869319
0.000868721
0.000868303
0.000868091
0.00086812
0.000868454
0.000869162
0.000870325
0.000872023
0.00087434
0.000877357
0.000881151
0.000885795
0.000891355
0.000897887
0.00090544
0.00091405
0.000923746
0.000934544
0.00094645
0.000959458
0.000973556
0.000988717
0.00100491
0.0010221
0.00104023
0.00105926
0.00107914
0.00109979
0.00112117
0.00114321
0.00116586
0.00118905
0.00121273
0.00123684
0.00126134
0.00128618
0.00131132
0.00133673
0.00136238
0.00138824
0.00141431
0.00144056
0.001467
0.00149362
0.0015204
0.00154734
0.00157443
0.00160164
0.00162895
0.00165631
0.00168369
0.00171102
0.00173824
0.00176525
0.00179197
0.00181831
0.00184416
0.00186944
0.00189406
0.001918
0.00194124
0.00196393
0.00198611
0.00200784
0.00202937
0.00202639
0.000976687
0.000974454
0.000972165
0.000969824
0.000967435
0.000965
0.000962515
0.000959986
0.000957418
0.000954814
0.000952179
0.000949516
0.000946828
0.000944122
0.000941403
0.000938679
0.000935963
0.000933266
0.000930605
0.000927996
0.00092546
0.000923022
0.000920698
0.000918512
0.000916483
0.00091463
0.000912971
0.000911517
0.000910281
0.000909267
0.000908481
0.000907925
0.000907601
0.000907511
0.000907657
0.000908048
0.000908684
0.00090957
0.000910726
0.000912183
0.000913977
0.00091615
0.000918749
0.000921825
0.00092543
0.00092962
0.000934448
0.000939963
0.000946216
0.000953248
0.000961098
0.000969796
0.000979366
0.000989822
0.00100117
0.00101341
0.00102654
0.00104052
0.00105535
0.00107099
0.0010874
0.00110454
0.00112237
0.00114084
0.0011599
0.00117951
0.00119963
0.0012202
0.00124119
0.00126257
0.00128431
0.00130638
0.00132877
0.00135147
0.00137448
0.0013978
0.00142143
0.00144539
0.00146969
0.00149434
0.00151934
0.00154469
0.00157037
0.00159637
0.00162265
0.00164915
0.00167581
0.00170254
0.00172923
0.00175577
0.00178206
0.00180796
0.00183337
0.00185822
0.00188245
0.00190614
0.00192925
0.00195167
0.00197355
0.00196955
0.000989089
0.00098756
0.000985979
0.000984348
0.00098267
0.000980945
0.000979173
0.000977355
0.000975493
0.000973591
0.000971648
0.000969668
0.00096765
0.000965597
0.000963513
0.000961399
0.000959262
0.000957107
0.000954945
0.000952785
0.000950643
0.000948536
0.00094648
0.000944495
0.000942602
0.000940823
0.00093918
0.000937694
0.000936385
0.00093527
0.000934367
0.00093369
0.000933245
0.000933037
0.000933075
0.000933368
0.000933924
0.000934751
0.000935859
0.000937258
0.000938966
0.000941003
0.000943391
0.000946156
0.00094933
0.000952944
0.000957032
0.000961629