/*--------------------------------*- C++ -*----------------------------------*\
| =========                 |                                                 |
| \\      /  F ield         | OpenFOAM: The Open Source CFD Toolbox           |
|  \\    /   O peration     | Version:  4.1                                   |
|   \\  /    A nd           | Web:      www.OpenFOAM.org                      |
|    \\/     M anipulation  |                                                 |
\*---------------------------------------------------------------------------*/
FoamFile
{
    version     2.0;
    format      ascii;
    class       volScalarField;
    location    "1200";
    object      p;
}
// * * * * * * * * * * * * * * * * * * * * * * * * * * * * * * * * * * * * * //

dimensions      [0 2 -2 0 0 0 0];

internalField   nonuniform List<scalar> 
6820
(
-8.2434
-8.50095
-8.59857
-8.61929
-8.65253
-8.69786
-8.73949
-8.77568
-8.80941
-8.84154
-8.87163
-8.89954
-8.92554
-8.94988
-8.97274
-8.9943
-9.0147
-9.03411
-9.05265
-9.07045
-9.08761
-9.10423
-9.12039
-9.13616
-9.15161
-9.16681
-9.18182
-9.19668
-9.21149
-9.22613
-9.24151
-9.25537
-9.28549
-8.35618
-8.52224
-8.60096
-8.62185
-8.64879
-8.68406
-8.71569
-8.74263
-8.76795
-8.79271
-8.8166
-8.83951
-8.86158
-8.88298
-8.90375
-8.92394
-8.94358
-8.96274
-8.98144
-8.99974
-9.01767
-9.03527
-9.05257
-9.06961
-9.08643
-9.10306
-9.11953
-9.13589
-9.15219
-9.16841
-9.1848
-9.20131
-9.21802
-8.41244
-8.51715
-8.59517
-8.62709
-8.6553
-8.68852
-8.71898
-8.74531
-8.76995
-8.7939
-8.81692
-8.83891
-8.86
-8.88033
-8.89996
-8.91896
-8.93737
-8.95525
-8.97267
-8.98966
-9.00629
-9.02258
-9.03858
-9.05433
-9.06988
-9.08525
-9.10049
-9.11562
-9.13072
-9.14575
-9.16093
-9.17582
-9.19135
-8.46222
-8.53722
-8.60987
-8.64504
-8.67252
-8.7041
-8.73414
-8.76049
-8.78489
-8.80833
-8.83071
-8.85197
-8.87226
-8.89176
-8.91054
-8.92869
-8.94628
-8.96336
-8.98001
-8.99627
-9.01219
-9.02782
-9.04318
-9.05832
-9.07328
-9.08809
-9.10279
-9.1174
-9.13197
-9.14652
-9.16111
-9.17569
-9.19035
-8.50371
-8.55494
-8.61516
-8.65002
-8.67727
-8.70754
-8.73679
-8.76282
-8.78697
-8.81019
-8.83247
-8.85375
-8.87417
-8.89384
-8.91285
-8.93125
-8.94909
-8.96644
-8.98333
-8.99982
-9.01594
-9.03174
-9.04726
-9.06253
-9.07758
-9.09245
-9.10717
-9.12178
-9.13632
-9.15081
-9.1653
-9.17982
-9.19442
-8.5385
-8.57436
-8.6252
-8.66049
-8.68816
-8.71722
-8.74557
-8.77129
-8.79526
-8.81827
-8.84034
-8.86144
-8.88166
-8.90111
-8.91988
-8.93802
-8.95559
-8.97266
-8.98926
-9.00546
-9.02129
-9.0368
-9.05203
-9.067
-9.08177
-9.09635
-9.11078
-9.1251
-9.13934
-9.15353
-9.16772
-9.18194
-9.19628
-8.56835
-8.59391
-8.6358
-8.66898
-8.69546
-8.72256
-8.74947
-8.7744
-8.79778
-8.82026
-8.84189
-8.86265
-8.88261
-8.90188
-8.92052
-8.93859
-8.95613
-8.97319
-8.98983
-9.00607
-9.02196
-9.03753
-9.05282
-9.06785
-9.08266
-9.09728
-9.11173
-9.12605
-9.14026
-9.1544
-9.16849
-9.18259
-9.19675
-8.59428
-8.61286
-8.64728
-8.67813
-8.70386
-8.72974
-8.75566
-8.78006
-8.80309
-8.82524
-8.84661
-8.86717
-8.88698
-8.90611
-8.92463
-8.94257
-8.95999
-8.97693
-8.99342
-9.00952
-9.02525
-9.04066
-9.05577
-9.07061
-9.08522
-9.09962
-9.11384
-9.12791
-9.14185
-9.15569
-9.16946
-9.18318
-9.19688
-8.61714
-8.63097
-8.65927
-8.68737
-8.71183
-8.73614
-8.76061
-8.78403
-8.80631
-8.82781
-8.84863
-8.86874
-8.88816
-8.90697
-8.9252
-8.94291
-8.96013
-8.9769
-8.99326
-9.00923
-9.02486
-9.04017
-9.0552
-9.06996
-9.08448
-9.0988
-9.11292
-9.12687
-9.14068
-9.15436
-9.16793
-9.18141
-9.19481
-8.63751
-8.64805
-8.67141
-8.69672
-8.7198
-8.74274
-8.76599
-8.78861
-8.81032
-8.83136
-8.8518
-8.8716
-8.89079
-8.9094
-8.92748
-8.94505
-8.96215
-8.9788
-8.99505
-9.01092
-9.02643
-9.04162
-9.05651
-9.07113
-9.08549
-9.09963
-9.11355
-9.12728
-9.14084
-9.15423
-9.16748
-9.18057
-9.1935
-8.65584
-8.66405
-8.68347
-8.7061
-8.7277
-8.74927
-8.77124
-8.79286
-8.81381
-8.83419
-8.85405
-8.87337
-8.89213
-8.91038
-8.92813
-8.94541
-8.96224
-8.97866
-8.99469
-9.01036
-9.02568
-9.04069
-9.05541
-9.06985
-9.08403
-9.09799
-9.11172
-9.12524
-9.13857
-9.15171
-9.16467
-9.17745
-9.19003
-8.67246
-8.67897
-8.69526
-8.71543
-8.73551
-8.75575
-8.7765
-8.79718
-8.8174
-8.83718
-8.85655
-8.87546
-8.89389
-8.91185
-8.92936
-8.94644
-8.9631
-8.97936
-8.99524
-9.01076
-9.02595
-9.04083
-9.0554
-9.06969
-9.08372
-9.09749
-9.11103
-9.12433
-9.13742
-9.15028
-9.16293
-9.17535
-9.18751
-8.68759
-8.69285
-8.70664
-8.72461
-8.74318
-8.76216
-8.78173
-8.80144
-8.82089
-8.84001
-8.8588
-8.87722
-8.89521
-8.91279
-8.92996
-8.94673
-8.96311
-8.9791
-8.99474
-9.01003
-9.02499
-9.03964
-9.05399
-9.06806
-9.08185
-9.09539
-9.10868
-9.12173
-9.13453
-9.1471
-9.15942
-9.17149
-9.1833
-8.70142
-8.70573
-8.71753
-8.73356
-8.75069
-8.76845
-8.78691
-8.80566
-8.82434
-8.84282
-8.86105
-8.87898
-8.89658
-8.91381
-8.93067
-8.94717
-8.9633
-8.97908
-8.99452
-9.00962
-9.0244
-9.03887
-9.05304
-9.06692
-9.08053
-9.09387
-9.10694
-9.11976
-9.13231
-9.1446
-9.15663
-9.16837
-9.1798
-8.71408
-8.71764
-8.72785
-8.74219
-8.75797
-8.77459
-8.79198
-8.80982
-8.82773
-8.84555
-8.86321
-8.88064
-8.89779
-8.91463
-8.93115
-8.94732
-8.96316
-8.97866
-8.99383
-9.00868
-9.02322
-9.03744
-9.05137
-9.06501
-9.07836
-9.09144
-9.10424
-9.11677
-9.12903
-9.14101
-9.1527
-9.1641
-9.17519
-8.72567
-8.72864
-8.73755
-8.75044
-8.76498
-8.78052
-8.79692
-8.81388
-8.83104
-8.84821
-8.8653
-8.88224
-8.89895
-8.91541
-8.93157
-8.94744
-8.96299
-8.97823
-8.99316
-9.00778
-9.02209
-9.03609
-9.04981
-9.06323
-9.07636
-9.0892
-9.10177
-9.11405
-9.12604
-9.13775
-9.14915
-9.16024
-9.171
-8.73625
-8.73876
-8.7466
-8.75825
-8.77167
-8.78621
-8.80169
-8.81781
-8.83424
-8.85078
-8.86731
-8.88375
-8.90003
-8.91608
-8.93189
-8.94743
-8.96267
-8.97763
-8.99228
-9.00663
-9.02068
-9.03444
-9.04789
-9.06105
-9.07392
-9.0865
-9.09879
-9.11078
-9.12248
-9.13388
-9.14497
-9.15574
-9.16617
-8.74589
-8.74801
-8.75499
-8.76557
-8.77799
-8.7916
-8.80623
-8.82157
-8.83731
-8.85324
-8.86922
-8.88518
-8.90101
-8.91668
-8.93212
-8.94733
-8.96227
-8.97694
-8.99133
-9.00542
-9.01922
-9.03273
-9.04594
-9.05886
-9.07148
-9.08381
-9.09584
-9.10757
-9.119
-9.13012
-9.14092
-9.1514
-9.16154
-8.7546
-8.75642
-8.76267
-8.77236
-8.78388
-8.79667
-8.81051
-8.82512
-8.84021
-8.85555
-8.87101
-8.88649
-8.9019
-8.91717
-8.93226
-8.94714
-8.96177
-8.97615
-8.99025
-9.00407
-9.01761
-9.03085
-9.0438
-9.05646
-9.06882
-9.08088
-9.09263
-9.10409
-9.11523
-9.12606
-9.13657
-9.14676
-9.1566
-8.76243
-8.76399
-8.76965
-8.77857
-8.78932
-8.80136
-8.81448
-8.82843
-8.84291
-8.8577
-8.87266
-8.88768
-8.90267
-8.91757
-8.9323
-8.94685
-8.96118
-8.97526
-8.98908
-9.00263
-9.0159
-9.02889
-9.04158
-9.05398
-9.06609
-9.07789
-9.08938
-9.10057
-9.11145
-9.12201
-9.13225
-9.14216
-9.15173
-8.76937
-8.77072
-8.77589
-8.78417
-8.79424
-8.80562
-8.81811
-8.83146
-8.84537
-8.85965
-8.87414
-8.88873
-8.90332
-8.91784
-8.93224
-8.94646
-8.96048
-8.97427
-8.98782
-9.00109
-9.0141
-9.02682
-9.03926
-9.0514
-9.06324
-9.07477
-9.08601
-9.09693
-9.10753
-9.11782
-9.12779
-9.13743
-9.14673
-8.77543
-8.7766
-8.78137
-8.78911
-8.79862
-8.80942
-8.82135
-8.83415
-8.84756
-8.86136
-8.87542
-8.8896
-8.90381
-8.91798
-8.93205
-8.94596
-8.95968
-8.97319
-8.98645
-8.99946
-9.01221
-9.02467
-9.03684
-9.04873
-9.06031
-9.07159
-9.08256
-9.09322
-9.10357
-9.1136
-9.1233
-9.13269
-9.14174
-8.78059
-8.78162
-8.78607
-8.79337
-8.8024
-8.81272
-8.82416
-8.83648
-8.84944
-8.86282
-8.87647
-8.89028
-8.90414
-8.91798
-8.93172
-8.94533
-8.95877
-8.972
-8.98499
-8.99774
-9.01022
-9.02243
-9.03435
-9.04598
-9.05731
-9.06833
-9.07905
-9.08946
-9.09956
-9.10933
-9.11879
-9.12793
-9.13674
-8.78483
-8.78575
-8.78995
-8.7969
-8.80554
-8.81546
-8.82648
-8.83841
-8.85097
-8.86397
-8.87727
-8.89073
-8.90427
-8.91779
-8.93124
-8.94457
-8.95772
-8.97068
-8.98341
-8.9959
-9.00813
-9.02008
-9.03175
-9.04313
-9.05421
-9.06499
-9.07545
-9.08561
-9.09546
-9.10499
-9.1142
-9.1231
-9.13167
-8.7881
-8.78895
-8.79296
-8.79965
-8.808
-8.81759
-8.82829
-8.83988
-8.85211
-8.86479
-8.87777
-8.89093
-8.90417
-8.91741
-8.93058
-8.94364
-8.95654
-8.96924
-8.98172
-8.99396
-9.00594
-9.01765
-9.02908
-9.04022
-9.05107
-9.06161
-9.07184
-9.08177
-9.09138
-9.10068
-9.10967
-9.11834
-9.12669
-8.79036
-8.79116
-8.79504
-8.80156
-8.80969
-8.81905
-8.8295
-8.84083
-8.85279
-8.8652
-8.87791
-8.89081
-8.90379
-8.91677
-8.92969
-8.9425
-8.95515
-8.9676
-8.97984
-8.99184
-9.00358
-9.01504
-9.02623
-9.03713
-9.04773
-9.05803
-9.06802
-9.07771
-9.08708
-9.09615
-9.1049
-9.11335
-9.12148
-8.79153
-8.79231
-8.79612
-8.80254
-8.81056
-8.81977
-8.83005
-8.84119
-8.85295
-8.86515
-8.87765
-8.89033
-8.90309
-8.91585
-8.92854
-8.94112
-8.95355
-8.96578
-8.9778
-8.98958
-9.0011
-9.01236
-9.02333
-9.03401
-9.0444
-9.05448
-9.06427
-9.07374
-9.08291
-9.09177
-9.10032
-9.10857
-9.11649
-8.79154
-8.79233
-8.79615
-8.80257
-8.81056
-8.81972
-8.82992
-8.84096
-8.8526
-8.86465
-8.87699
-8.88949
-8.90206
-8.91462
-8.92711
-8.93948
-8.95169
-8.9637
-8.9755
-8.98705
-8.99834
-9.00937
-9.02011
-9.03056
-9.04071
-9.05057
-9.06012
-9.06936
-9.0783
-9.08694
-9.09527
-9.10331
-9.11104
-8.79029
-8.79114
-8.79505
-8.80157
-8.80966
-8.81888
-8.8291
-8.84013
-8.85172
-8.86371
-8.87594
-8.88833
-8.90077
-8.91319
-8.92553
-8.93774
-8.94978
-8.96163
-8.97325
-8.98462
-8.99574
-9.00658
-9.01714
-9.02741
-9.03738
-9.04705
-9.05642
-9.06549
-9.07425
-9.08271
-9.09086
-9.09871
-9.10623
-8.78765
-8.78861
-8.79271
-8.79948
-8.80779
-8.8172
-8.82755
-8.83866
-8.8503
-8.86227
-8.87446
-8.88675
-8.89908
-8.91136
-8.92354
-8.93557
-8.94743
-8.95907
-8.97049
-8.98165
-8.99256
-9.00318
-9.01352
-9.02357
-9.03332
-9.04277
-9.05192
-9.06077
-9.06932
-9.07756
-9.08551
-9.09317
-9.10055
-8.78346
-8.78457
-8.78901
-8.79619
-8.8049
-8.81463
-8.82525
-8.83657
-8.84836
-8.86044
-8.87269
-8.88501
-8.89732
-8.90957
-8.92169
-8.93364
-8.94541
-8.95695
-8.96824
-8.97928
-8.99005
-9.00054
-9.01074
-9.02064
-9.03024
-9.03954
-9.04854
-9.05724
-9.06563
-9.07372
-9.0815
-9.08898
-9.09614
-8.77746
-8.77883
-8.78379
-8.79162
-8.80092
-8.81112
-8.82212
-8.83372
-8.8457
-8.85788
-8.87017
-8.88247
-8.89473
-8.90687
-8.91887
-8.93069
-8.94229
-8.95366
-8.96478
-8.97563
-8.9862
-8.99649
-9.00649
-9.01619
-9.02559
-9.03469
-9.04349
-9.05199
-9.06019
-9.06809
-9.0757
-9.08304
-9.0901
-8.76934
-8.7711
-8.77686
-8.78564
-8.79579
-8.80671
-8.81833
-8.83048
-8.8429
-8.85543
-8.86797
-8.88046
-8.89283
-8.90505
-8.91708
-8.92888
-8.94045
-8.95176
-8.9628
-8.97356
-8.98404
-8.99422
-9.00409
-9.01367
-9.02294
-9.03191
-9.04057
-9.04892
-9.05698
-9.06473
-9.07217
-9.07931
-9.08613
-8.75864
-8.76099
-8.76802
-8.77817
-8.78935
-8.80099
-8.81316
-8.82574
-8.83847
-8.85118
-8.86383
-8.87637
-8.88875
-8.90093
-8.91289
-8.9246
-8.93606
-8.94724
-8.95814
-8.96875
-8.97907
-8.98908
-8.9988
-9.00821
-9.01731
-9.02611
-9.03461
-9.04281
-9.0507
-9.05831
-9.06564
-9.07269
-9.07948
-8.74463
-8.74795
-8.75702
-8.76936
-8.78229
-8.79535
-8.80873
-8.82228
-8.8357
-8.84891
-8.86191
-8.87469
-8.88722
-8.89948
-8.91146
-8.92315
-8.93456
-8.94568
-8.95649
-8.96699
-8.97719
-8.98708
-8.99666
-9.00593
-9.01489
-9.02353
-9.03187
-9.03991
-9.04763
-9.05506
-9.06218
-9.069
-9.0755
-8.72624
-8.73133
-8.74342
-8.75792
-8.77187
-8.78574
-8.80002
-8.81433
-8.82829
-8.84188
-8.85517
-8.86816
-8.88081
-8.89313
-8.90513
-8.9168
-8.92815
-8.93918
-8.9499
-8.9603
-8.97038
-8.98016
-8.98962
-8.99877
-9.00761
-9.01615
-9.02438
-9.03232
-9.03995
-9.0473
-9.05436
-9.06115
-9.06768
-8.70131
-8.71046
-8.72986
-8.7496
-8.76603
-8.78143
-8.79695
-8.81206
-8.82644
-8.84023
-8.85362
-8.86661
-8.87922
-8.89145
-8.90333
-8.91486
-8.92606
-8.93693
-8.94746
-8.95767
-8.96756
-8.97713
-8.98638
-8.99531
-9.00393
-9.01224
-9.02024
-9.02795
-9.03535
-9.04246
-9.04928
-9.0558
-9.06203
-8.66637
-8.68003
-8.70566
-8.72892
-8.74787
-8.76589
-8.78353
-8.79998
-8.81519
-8.82957
-8.84333
-8.85653
-8.86921
-8.88144
-8.89326
-8.90471
-8.91581
-8.92658
-8.93702
-8.94714
-8.95695
-8.96645
-8.97564
-8.98453
-8.99312
-9.00141
-9.0094
-9.0171
-9.0245
-9.0316
-9.03841
-9.0449
-9.05105
-8.61898
-8.66664
-8.70602
-8.72629
-8.74256
-8.76091
-8.77887
-8.79482
-8.80937
-8.8233
-8.83673
-8.84962
-8.86199
-8.87392
-8.88547
-8.89666
-8.9075
-8.91801
-8.9282
-8.93808
-8.94765
-8.95693
-8.96591
-8.9746
-8.98301
-8.99113
-8.99898
-9.00655
-9.01387
-9.02095
-9.02781
-9.03451
-9.04107
-8.48465
-8.60683
-8.68148
-8.70571
-8.72203
-8.74305
-8.76353
-8.78073
-8.79606
-8.81087
-8.8254
-8.83951
-8.85323
-8.86664
-8.87979
-8.89266
-8.90526
-8.91758
-8.92959
-8.94131
-8.95272
-8.96381
-8.97457
-8.985
-8.9951
-9.00486
-9.01427
-9.02334
-9.03207
-9.04044
-9.04846
-9.05611
-9.06351
-9.33296
-9.48895
-9.70631
-9.8107
-9.92151
-10.0277
-10.1092
-10.1722
-10.2215
-10.2579
-10.2827
-10.2974
-10.3037
-10.3038
-10.3
-10.2951
-10.2896
-10.2812
-10.2764
-10.2794
-10.2914
-10.312
-10.3399
-10.3731
-10.4095
-10.4474
-10.4855
-10.523
-10.5592
-10.5932
-10.6241
-10.6509
-10.673
-10.6897
-10.7008
-10.7059
-10.7049
-10.6975
-10.6836
-10.6629
-10.6354
-10.6007
-10.5587
-10.5092
-10.4521
-10.3871
-10.3142
-10.2331
-10.1436
-10.0456
-9.93881
-9.82298
-9.69792
-9.56346
-9.41943
-9.26575
-9.10233
-8.92919
-8.74638
-8.554
-8.35226
-8.14139
-7.92176
-7.69376
-7.45792
-7.21482
-6.96513
-6.70958
-6.44893
-6.18399
-5.91559
-5.6446
-5.3719
-5.09842
-4.82518
-4.55318
-4.28355
-4.01743
-3.75606
-3.5006
-3.25209
-3.01116
-2.77821
-2.55357
-2.33756
-2.13046
-1.93246
-1.74371
-1.5642
-1.39389
-1.23244
-1.07975
-0.934702
-0.797759
-0.665017
-0.541284
-0.410585
-0.30215
-0.144474
-0.0949873
-9.24834
-9.30098
-9.39315
-9.43925
-9.4927
-9.5604
-9.62685
-9.69023
-9.75077
-9.80598
-9.85412
-9.8946
-9.92769
-9.95429
-9.97604
-9.9953
-10.0144
-10.0296
-10.0453
-10.0658
-10.0928
-10.1264
-10.1656
-10.2087
-10.2539
-10.2997
-10.3448
-10.3884
-10.4298
-10.4683
-10.5029
-10.5329
-10.5577
-10.5767
-10.5896
-10.5962
-10.5963
-10.5898
-10.5766
-10.5564
-10.5291
-10.4947
-10.4528
-10.4034
-10.3464
-10.2815
-10.2086
-10.1276
-10.0383
-9.94054
-9.83401
-9.71856
-9.594
-9.46016
-9.31689
-9.16412
-9.00178
-8.82988
-8.64849
-8.45772
-8.25776
-8.04888
-7.83142
-7.60578
-7.37248
-7.1321
-6.88528
-6.63274
-6.37523
-6.11355
-5.84849
-5.58091
-5.31168
-5.04171
-4.77198
-4.50348
-4.2373
-3.97455
-3.71641
-3.46399
-3.21828
-2.97993
-2.74933
-2.52685
-2.31278
-2.10741
-1.91094
-1.7235
-1.5451
-1.3757
-1.215
-1.06288
-0.91825
-0.781633
-0.649156
-0.525789
-0.395668
-0.288529
-0.133496
-0.0881476
-9.20979
-9.23117
-9.2757
-9.30323
-9.3266
-9.35926
-9.39462
-9.42942
-9.46447
-9.49913
-9.53234
-9.56353
-9.59251
-9.61963
-9.64588
-9.67288
-9.70186
-9.73184
-9.76299
-9.79806
-9.83862
-9.88473
-9.93548
-9.98936
-10.0447
-10.0998
-10.1537
-10.2053
-10.254
-10.2989
-10.3393
-10.3745
-10.4038
-10.4269
-10.4434
-10.4532
-10.456
-10.452
-10.4408
-10.4225
-10.3968
-10.3638
-10.3233
-10.2751
-10.2192
-10.1554
-10.0837
-10.0038
-9.9156
-9.81895
-9.71365
-9.59951
-9.47636
-9.34404
-9.20242
-9.05143
-8.89102
-8.7212
-8.54204
-8.35367
-8.15627
-7.95012
-7.73554
-7.51295
-7.28285
-7.0458
-6.80245
-6.55347
-6.29962
-6.04166
-5.78038
-5.51661
-5.2512
-4.98505
-4.7191
-4.45434
-4.1918
-3.93257
-3.67778
-3.42849
-3.18566
-2.94991
-2.72169
-2.50134
-2.28919
-2.0855
-1.89049
-1.70429
-1.52692
-1.35836
-1.19829
-1.04665
-0.902353
-0.765971
-0.633701
-0.510618
-0.381128
-0.275141
-0.123146
-0.0811746
-9.20767
-9.23072
-9.26705
-9.29518
-9.31409
-9.33465
-9.35509
-9.37245
-9.38778
-9.40192
-9.41477
-9.42646
-9.43749
-9.44869
-9.46123
-9.47662
-9.49615
-9.52028
-9.54816
-9.58132
-9.62098
-9.66708
-9.71865
-9.77421
-9.83205
-9.89055
-9.94833
-10.0043
-10.0575
-10.107
-10.152
-10.1916
-10.2252
-10.2525
-10.2729
-10.2864
-10.2927
-10.2918
-10.2836
-10.268
-10.2449
-10.2143
-10.1761
-10.1301
-10.0762
-10.0145
-9.94471
-9.8668
-9.78061
-9.68598
-9.58273
-9.47071
-9.34974
-9.2197
-9.08047
-8.93198
-8.77419
-8.60712
-8.43085
-8.2455
-8.05128
-7.84843
-7.6373
-7.4183
-7.1919
-6.95866
-6.7192
-6.4742
-6.22437
-5.97046
-5.71326
-5.45356
-5.1922
-4.93006
-4.66805
-4.40714
-4.14834
-3.89269
-3.64128
-3.39514
-3.15516
-2.92201
-2.69611
-2.47784
-2.26751
-2.06542
-1.87177
-1.6867
-1.51024
-1.34237
-1.18282
-1.03152
-0.887447
-0.75118
-0.619038
-0.496127
-0.367301
-0.262264
-0.113648
-0.0742114
-9.21202
-9.23408
-9.26184
-9.28546
-9.3023
-9.31915
-9.33622
-9.35102
-9.36351
-9.37413
-9.38268
-9.38911
-9.39389
-9.39783
-9.40211
-9.4082
-9.41754
-9.43102
-9.44885
-9.47214
-9.50191
-9.53828
-9.58058
-9.62764
-9.67807
-9.7304
-9.78331
-9.83564
-9.88632
-9.93432
-9.97865
-10.0184
-10.0529
-10.0814
-10.1036
-10.119
-10.1275
-10.1288
-10.1229
-10.1096
-10.0889
-10.0605
-10.0245
-9.9808
-9.92921
-9.8697
-9.80217
-9.72651
-9.64258
-9.55026
-9.44938
-9.33979
-9.22135
-9.09392
-8.95742
-8.81177
-8.65695
-8.49299
-8.31995
-8.13797
-7.94724
-7.74803
-7.54065
-7.3255
-7.10306
-6.87387
-6.63853
-6.39769
-6.15205
-5.90234
-5.64932
-5.39378
-5.13654
-4.87844
-4.6204
-4.36334
-4.10824
-3.85613
-3.60804
-3.36497
-3.12777
-2.8971
-2.67342
-2.45711
-2.24849
-2.04785
-1.85541
-1.67131
-1.49561
-1.32829
-1.1691
-1.018
-0.873996
-0.737703
-0.605581
-0.482712
-0.354535
-0.250241
-0.105196
-0.0675229
-9.2134
-9.23397
-9.25759
-9.27999
-9.29819
-9.31524
-9.33176
-9.34605
-9.35768
-9.367
-9.37403
-9.37885
-9.38189
-9.3839
-9.38588
-9.38903
-9.39455
-9.40333
-9.41598
-9.43319
-9.45578
-9.484
-9.51742
-9.55521
-9.5963
-9.63953
-9.68381
-9.72812
-9.7715
-9.81301
-9.85174
-9.88681
-9.91747
-9.94305
-9.96301
-9.97694
-9.98451
-9.98545
-9.97957
-9.96665
-9.94654
-9.91909
-9.88417
-9.84167
-9.79147
-9.73348
-9.66759
-9.59367
-9.51161
-9.42125
-9.32245
-9.21507
-9.09897
-8.97402
-8.84013
-8.69724
-8.54533
-8.38442
-8.21459
-8.03595
-7.84871
-7.6531
-7.44946
-7.23816
-7.01966
-6.79449
-6.56322
-6.3265
-6.08499
-5.83942
-5.59051
-5.33905
-5.08582
-4.83168
-4.57748
-4.32415
-4.07263
-3.82392
-3.57901
-3.33885
-3.10429
-2.87595
-2.65433
-2.43981
-2.23272
-2.03336
-1.84196
-1.65867
-1.48354
-1.31659
-1.15759
-1.0065
-0.862416
-0.725935
-0.593709
-0.470729
-0.343154
-0.239371
-0.0979727
-0.0613157
-9.21344
-9.2332
-9.25452
-9.27515
-9.29276
-9.30865
-9.32362
-9.33682
-9.34781
-9.35681
-9.36388
-9.36911
-9.3728
-9.37556
-9.37819
-9.38164
-9.38692
-9.39482
-9.40599
-9.42095
-9.44034
-9.46438
-9.49274
-9.52475
-9.55952
-9.59609
-9.6335
-9.67088
-9.70738
-9.74217
-9.77447
-9.80351
-9.8286
-9.84915
-9.86464
-9.87466
-9.87886
-9.87697
-9.86874
-9.85393
-9.83236
-9.80384
-9.7682
-9.72531
-9.67501
-9.61718
-9.5517
-9.47841
-9.39719
-9.30789
-9.21034
-9.10441
-8.98995
-8.86685
-8.735
-8.59434
-8.44484
-8.28654
-8.11948
-7.9438
-7.75967
-7.56734
-7.36711
-7.15934
-6.94449
-6.72305
-6.49559
-6.26272
-6.02509
-5.7834
-5.53837
-5.29075
-5.04132
-4.79089
-4.54033
-4.2905
-4.04236
-3.79683
-3.55489
-3.31745
-3.08531
-2.85912
-2.63937
-2.42644
-2.2207
-2.02243
-1.83187
-1.64918
-1.47444
-1.30767
-1.14867
-0.997422
-0.853077
-0.71624
-0.583768
-0.460515
-0.333458
-0.229946
-0.0921336
-0.0558086
-9.21284
-9.23156
-9.25108
-9.27005
-9.28711
-9.30265
-9.31722
-9.33034
-9.34155
-9.35088
-9.35841
-9.36422
-9.36861
-9.3721
-9.3754
-9.37933
-9.38475
-9.39238
-9.40282
-9.4166
-9.43415
-9.45566
-9.48085
-9.50916
-9.53982
-9.57199
-9.60481
-9.63745
-9.66913
-9.69908
-9.72656
-9.75088
-9.77141
-9.78759
-9.79896
-9.80511
-9.80574
-9.80055
-9.78933
-9.77184
-9.74788
-9.71728
-9.67986
-9.63547
-9.58396
-9.5252
-9.45903
-9.38533
-9.30393
-9.21469
-9.11745
-9.01206
-8.89838
-8.7763
-8.6457
-8.50652
-8.35874
-8.20236
-8.03745
-7.86411
-7.68253
-7.49291
-7.29557
-7.09085
-6.87917
-6.66102
-6.43694
-6.20752
-5.97339
-5.73523
-5.49373
-5.24962
-5.00367
-4.75667
-4.50945
-4.26287
-4.01783
-3.77525
-3.53604
-3.30108
-3.07116
-2.84691
-2.62882
-2.41729
-2.21269
-2.01532
-1.82541
-1.64313
-1.46859
-1.30181
-1.14262
-0.991031
-0.846254
-0.70889
-0.576025
-0.452334
-0.325684
-0.222196
-0.0877894
-0.0511739
-9.21038
-9.2283
-9.2466
-9.26442
-9.28091
-9.29604
-9.31005
-9.32269
-9.33365
-9.34292
-9.35061
-9.35685
-9.36192
-9.36627
-9.3705
-9.37529
-9.38135
-9.38932
-9.39973
-9.41303
-9.42956
-9.44944
-9.47248
-9.49818
-9.52589
-9.55486
-9.58431
-9.61349
-9.64164
-9.66805
-9.69203
-9.71292
-9.73011
-9.74309
-9.75138
-9.75461
-9.75246
-9.74465
-9.73094
-9.71113
-9.68501
-9.65241
-9.61317
-9.56714
-9.51417
-9.45413
-9.38688
-9.31228
-9.23018
-9.14045
-9.04292
-8.93746
-8.82394
-8.70223
-8.57224
-8.43391
-8.2872
-8.13212
-7.96874
-7.79716
-7.61753
-7.43008
-7.23509
-7.03289
-6.82389
-6.60855
-6.3874
-6.161
-5.92996
-5.69493
-5.4566
-5.21567
-4.97287
-4.72899
-4.48483
-4.24122
-3.99903
-3.75913
-3.52242
-3.28974
-3.06182
-2.83931
-2.6227
-2.41239
-2.20876
-2.0121
-1.82265
-1.64062
-1.46609
-1.29913
-1.13959
-0.987486
-0.842116
-0.704066
-0.570664
-0.446373
-0.319997
-0.216291
-0.0849999
-0.0475432
-9.20832
-9.22539
-9.2426
-9.2594
-9.27514
-9.28973
-9.30326
-9.31561
-9.32656
-9.33606
-9.34419
-9.35108
-9.35694
-9.36218
-9.36728
-9.37284
-9.37946
-9.38769
-9.39801
-9.41082
-9.42638
-9.44483
-9.46597
-9.48939
-9.51453
-9.54072
-9.56727
-9.59347
-9.61864
-9.64208
-9.66316
-9.68123
-9.69573
-9.70615
-9.71203
-9.71299
-9.7087
-9.69888
-9.6833
-9.66172
-9.63396
-9.59984
-9.55919
-9.51186
-9.45771
-9.39661
-9.32841
-9.25298
-9.1702
-9.07992
-8.982
-8.87631
-8.76273
-8.64115
-8.51148
-8.37366
-8.22768
-8.07354
-7.91131
-7.74107
-7.56301
-7.37731
-7.18426
-6.98419
-6.77748
-6.56457
-6.34598
-6.12224
-5.89395
-5.66174
-5.42627
-5.18822
-4.94831
-4.70729
-4.46594
-4.22506
-3.9855
-3.74809
-3.51368
-3.28308
-3.05701
-2.83608
-2.62079
-2.41155
-2.20872
-2.01263
-1.82351
-1.64157
-1.46691
-1.29962
-1.13957
-0.986811
-0.840707
-0.701828
-0.567757
-0.442716
-0.316469
-0.212311
-0.0837584
-0.0449826
-9.20449
-9.22088
-9.23726
-9.25325
-9.26839
-9.28253
-9.29574
-9.30785
-9.31874
-9.32835
-9.33673
-9.34403
-9.35045
-9.35635
-9.36214
-9.36834
-9.37546
-9.38397
-9.39429
-9.40675
-9.42161
-9.4389
-9.45849
-9.48002
-9.50298
-9.5268
-9.55086
-9.5745
-9.59708
-9.61796
-9.63653
-9.65218
-9.66438
-9.67262
-9.67647
-9.67554
-9.66951
-9.65807
-9.64099
-9.61804
-9.58901
-9.55372
-9.512
-9.4637
-9.40867
-9.34678
-9.27788
-9.20186
-9.11858
-9.0279
-8.9297
-8.82386
-8.71026
-8.58881
-8.45943
-8.32207
-8.17671
-8.02338
-7.86214
-7.69308
-7.51638
-7.33223
-7.14091
-6.94273
-6.73807
-6.52736
-6.31109
-6.08978
-5.86402
-5.63441
-5.40158
-5.16621
-4.92899
-4.69064
-4.45193
-4.21362
-3.97653
-3.74146
-3.50921
-3.28056
-3.05621
-2.83674
-2.62266
-2.41438
-2.21226
-2.01662
-1.82771
-1.64575
-1.47085
-1.30311
-1.14244
-0.988906
-0.84195
-0.702125
-0.567271
-0.441349
-0.315081
-0.210252
-0.0839954
-0.0434921
-9.20132
-9.21702
-9.23264
-9.2479
-9.26246
-9.27615
-9.28896
-9.30082
-9.3116
-9.32128
-9.3299
-9.33761
-9.34458
-9.3511
-9.35755
-9.36434
-9.3719
-9.38064
-9.39092
-9.40303
-9.41716
-9.43334
-9.45146
-9.4712
-9.49212
-9.51371
-9.53541
-9.55663
-9.57677
-9.59523
-9.61144
-9.62482
-9.63486
-9.64108
-9.64305
-9.64038
-9.63275
-9.61985
-9.60144
-9.57728
-9.54716
-9.51089
-9.4683
-9.41923
-9.36352
-9.30104
-9.23165
-9.15522
-9.07161
-8.98072
-8.8824
-8.77654
-8.66305
-8.54183
-8.41281
-8.27596
-8.13127
-7.97876
-7.81849
-7.65059
-7.4752
-7.29253
-7.10285
-6.90647
-6.70376
-6.49513
-6.28107
-6.06208
-5.83872
-5.61158
-5.38128
-5.14847
-4.91383
-4.67805
-4.44187
-4.20604
-3.97132
-3.73848
-3.50831
-3.28154
-3.05883
-2.84075
-2.62781
-2.42042
-2.21893
-2.02367
-1.8349
-1.65284
-1.47761
-1.30934
-1.14797
-0.993571
-0.845676
-0.704813
-0.569079
-0.442165
-0.315725
-0.210023
-0.0855803
-0.0430036
-9.19674
-9.21187
-9.22686
-9.24151
-9.25556
-9.26887
-9.28135
-9.29298
-9.3037
-9.31346
-9.32229
-9.33032
-9.33771
-9.34472
-9.35166
-9.35887
-9.36674
-9.37561
-9.38579
-9.39751
-9.41094
-9.42612
-9.44291
-9.46103
-9.4801
-9.49966
-9.51922
-9.53823
-9.55615
-9.5724
-9.58644
-9.59774
-9.60581
-9.61018
-9.61042
-9.60617
-9.59709
-9.58288
-9.56328
-9.53805
-9.50697
-9.46986
-9.42653
-9.37681
-9.32056
-9.25762
-9.18786
-9.11115
-9.02735
-8.93635
-8.83803
-8.73228
-8.61899
-8.4981
-8.36954
-8.23327
-8.08931
-7.93767
-7.77843
-7.61169
-7.43763
-7.25645
-7.06841
-6.87381
-6.67301
-6.46644
-6.25454
-6.03781
-5.81681
-5.5921
-5.36428
-5.13398
-4.90186
-4.6686
-4.43491
-4.20149
-3.96909
-3.73846
-3.51032
-3.28538
-3.06427
-2.84756
-2.63573
-2.42918
-2.22829
-2.03338
-1.84469
-1.66248
-1.48687
-1.31801
-1.15588
-1.00055
-0.85165
-0.70968
-0.572987
-0.444989
-0.318228
-0.211466
-0.0883395
-0.0433953
-9.19271
-9.20729
-9.22171
-9.23578
-9.24935
-9.26226
-9.27441
-9.28578
-9.29638
-9.30616
-9.31515
-9.32343
-9.33117
-9.33857
-9.34591
-9.35348
-9.36158
-9.37053
-9.38056
-9.39189
-9.40463
-9.41883
-9.43434
-9.45093
-9.46823
-9.48586
-9.50337
-9.52027
-9.53604
-9.55015
-9.5621
-9.57139
-9.57754
-9.58009
-9.57866
-9.57286
-9.56236
-9.54687
-9.52611
-9.49985
-9.46786
-9.42995
-9.38592
-9.33562
-9.27887
-9.21554
-9.14548
-9.06856
-8.98466
-8.89364
-8.7954
-8.68983
-8.57683
-8.45635
-8.32832
-8.19271
-8.04954
-7.89883
-7.74066
-7.57515
-7.40246
-7.22279
-7.0364
-6.8436
-6.64473
-6.44021
-6.23047
-6.01601
-5.79736
-5.57506
-5.34971
-5.12191
-4.89231
-4.66155
-4.43032
-4.19931
-3.96922
-3.74077
-3.51465
-3.29153
-3.07202
-2.85666
-2.64593
-2.44023
-2.23992
-2.04532
-1.85671
-1.67431
-1.4983
-1.32881
-1.16587
-1.00957
-0.859615
-0.716486
-0.578768
-0.449606
-0.322378
-0.214383
-0.0920758
-0.0445101
-9.18775
-9.20183
-9.21572
-9.2293
-9.24243
-9.25497
-9.26686
-9.27803
-9.28849
-9.29826
-9.30736
-9.31584
-9.32384
-9.33155
-9.33919
-9.347
-9.35524
-9.36417
-9.37399
-9.38488
-9.39692
-9.41015
-9.42444
-9.43956
-9.45521
-9.47103
-9.48662
-9.50153
-9.51528
-9.52738
-9.53737
-9.54475
-9.54908
-9.54994
-9.54692
-9.53965
-9.52782
-9.51112
-9.48928
-9.46206
-9.42922
-9.39057
-9.34592
-9.29509
-9.23792
-9.17425
-9.10395
-9.02689
-8.94293
-8.85195
-8.75385
-8.64852
-8.53588
-8.41586
-8.28841
-8.15352
-8.01119
-7.86146
-7.70441
-7.54016
-7.36887
-7.19075
-7.00605
-6.81506
-6.61815
-6.41569
-6.20814
-5.99596
-5.77966
-5.55979
-5.33691
-5.11163
-4.88455
-4.6563
-4.42755
-4.19895
-3.97118
-3.74492
-3.52083
-3.29955
-3.08164
-2.86765
-2.65803
-2.45318
-2.25345
-2.05917
-1.87062
-1.68802
-1.51158
-1.34145
-1.17767
-1.02037
-0.869322
-0.724992
-0.58619
-0.455794
-0.327949
-0.218562
-0.0965911
-0.0461811
-9.18312
-9.19673
-9.21016
-9.22329
-9.236
-9.24821
-9.25983
-9.27081
-9.28114
-9.29084
-9.29996
-9.30858
-9.31676
-9.32468
-9.33251
-9.34047
-9.34877
-9.35762
-9.36718
-9.37761
-9.38896
-9.40123
-9.41433
-9.42805
-9.44212
-9.45621
-9.46996
-9.48296
-9.49477
-9.50493
-9.513
-9.51853
-9.52109
-9.52027
-9.51568
-9.50696
-9.4938
-9.4759
-9.45297
-9.42479
-9.3911
-9.35172
-9.30644
-9.25509
-9.1975
-9.13351
-9.06299
-8.9858
-8.90181
-8.81091
-8.71298
-8.60793
-8.49568
-8.37616
-8.24934
-8.1152
-7.97375
-7.82504
-7.66914
-7.50619
-7.33633
-7.15979
-6.9768
-6.78766
-6.59272
-6.39236
-6.18701
-5.97712
-5.7632
-5.54578
-5.3254
-5.10265
-4.87811
-4.6524
-4.42614
-4.19998
-3.97455
-3.75051
-3.52847
-3.30903
-3.09277
-2.88017
-2.67168
-2.46769
-2.26856
-2.07461
-1.88612
-1.70334
-1.52646
-1.35566
-1.19103
-1.03271
-0.880542
-0.734979
-0.595036
-0.463343
-0.334731
-0.223802
-0.101705
-0.0482557
-9.17795
-9.19113
-9.20412
-9.21682
-9.22915
-9.24103
-9.25239
-9.26318
-9.27339
-9.28302
-9.29213
-9.30079
-9.30909
-9.31714
-9.3251
-9.33313
-9.3414
-9.35009
-9.35935
-9.36927
-9.37991
-9.39123
-9.40317
-9.41554
-9.4281
-9.44055
-9.45255
-9.46374
-9.4737
-9.48201
-9.48825
-9.49201
-9.49286
-9.49043
-9.48433
-9.47422
-9.45978
-9.44071
-9.41675
-9.38763
-9.35314
-9.31305
-9.26718
-9.21533
-9.15735
-9.09308
-9.02237
-8.94508
-8.86109
-8.77029
-8.67256
-8.56782
-8.45598
-8.337
-8.21083
-8.07747
-7.93693
-7.78925
-7.63454
-7.4729
-7.3045
-7.12955
-6.9483
-6.76103
-6.56808
-6.36983
-6.16669
-5.95912
-5.7476
-5.53265
-5.31479
-5.09459
-4.87262
-4.64947
-4.42573
-4.20203
-3.97898
-3.75717
-3.53722
-3.31967
-3.10507
-2.8939
-2.68657
-2.48349
-2.28498
-2.09139
-1.90297
-1.72
-1.54269
-1.37123
-1.20574
-1.04639
-0.893078
-0.746256
-0.60512
-0.472071
-0.342542
-0.229934
-0.107275
-0.050621
-9.17295
-9.18572
-9.19831
-9.21063
-9.22261
-9.23419
-9.24529
-9.25589
-9.26597
-9.27553
-9.2846
-9.29325
-9.30158
-9.30968
-9.31769
-9.32571
-9.33388
-9.34235
-9.35124
-9.36062
-9.37052
-9.3809
-9.39173
-9.40282
-9.41393
-9.42482
-9.43516
-9.44461
-9.45279
-9.45931
-9.46379
-9.46582
-9.46501
-9.46099
-9.4534
-9.44191
-9.42619
-9.40596
-9.38095
-9.3509
-9.31558
-9.27478
-9.2283
-9.17595
-9.11757
-9.053
-8.98209
-8.90471
-8.82072
-8.73002
-8.6325
-8.52807
-8.41666
-8.29823
-8.17272
-8.04015
-7.90053
-7.75391
-7.60038
-7.44008
-7.27315
-7.0998
-6.92029
-6.7349
-6.54395
-6.34782
-6.14691
-5.94167
-5.73257
-5.5201
-5.30478
-5.08716
-4.86778
-4.64721
-4.42603
-4.20482
-3.98416
-3.76463
-3.54679
-3.33117
-3.11828
-2.90856
-2.70244
-2.50029
-2.30245
-2.10923
-1.92092
-1.73778
-1.56005
-1.38794
-1.22159
-1.0612
-0.906735
-0.758636
-0.616263
-0.481808
-0.351217
-0.236813
-0.113186
-0.053204
-9.16768
-9.18007
-9.19228
-9.20423
-9.21587
-9.22714
-9.23799
-9.24839
-9.25832
-9.26778
-9.27679
-9.28539
-9.29368
-9.30175
-9.30971
-9.31765
-9.32567
-9.33388
-9.34236
-9.35116
-9.36032
-9.36982
-9.37957
-9.38942
-9.39916
-9.40854
-9.41728
-9.42507
-9.43155
-9.43636
-9.43914
-9.4395
-9.43709
-9.43153
-9.4225
-9.40966
-9.3927
-9.37133
-9.34529
-9.31432
-9.27819
-9.23669
-9.18962
-9.13679
-9.07802
-9.01316
-8.94207
-8.86459
-8.78062
-8.69003
-8.59273
-8.48863
-8.37766
-8.25977
-8.13494
-8.00316
-7.86446
-7.7189
-7.56657
-7.40759
-7.24214
-7.0704
-6.89263
-6.70911
-6.52017
-6.32616
-6.12749
-5.92459
-5.7179
-5.50793
-5.29516
-5.08013
-4.86336
-4.6454
-4.42679
-4.2081
-3.98987
-3.77265
-3.55695
-3.34329
-3.13214
-2.92392
-2.71904
-2.51786
-2.3207
-2.12789
-1.93971
-1.75643
-1.57829
-1.40554
-1.23834
-1.07692
-0.9213
-0.771916
-0.62827
-0.492372
-0.360584
-0.244293
-0.119331
-0.0559541
-9.16248
-9.17451
-9.18637
-9.19798
-9.2093
-9.22029
-9.23089
-9.24109
-9.25085
-9.26019
-9.26912
-9.27766
-9.28587
-9.29384
-9.30166
-9.30944
-9.31722
-9.3251
-9.33314
-9.34138
-9.34983
-9.35846
-9.36718
-9.37584
-9.38426
-9.39221
-9.39943
-9.40562
-9.41047
-9.41363
-9.41476
-9.41352
-9.40954
-9.40249
-9.39204