/*--------------------------------*- C++ -*----------------------------------*\
| =========                 |                                                 |
| \\      /  F ield         | OpenFOAM: The Open Source CFD Toolbox           |
|  \\    /   O peration     | Version:  4.1                                   |
|   \\  /    A nd           | Web:      www.OpenFOAM.org                      |
|    \\/     M anipulation  |                                                 |
\*---------------------------------------------------------------------------*/
FoamFile
{
    version     2.0;
    format      ascii;
    class       volScalarField;
    location    "1100";
    object      p;
}
// * * * * * * * * * * * * * * * * * * * * * * * * * * * * * * * * * * * * * //

dimensions      [0 2 -2 0 0 0 0];

internalField   nonuniform List<scalar> 
6820
(
-6.95652
-7.18336
-7.26027
-7.2723
-7.29166
-7.31373
-7.33029
-7.34314
-7.3543
-7.36387
-7.37174
-7.37805
-7.3829
-7.38629
-7.3882
-7.38855
-7.38724
-7.38411
-7.37897
-7.37156
-7.36154
-7.34846
-7.33173
-7.31051
-7.28366
-7.24949
-7.20524
-7.14691
-7.06496
-6.95047
-6.74089
-6.48841
-5.4336
-7.0285
-7.16952
-7.23313
-7.25349
-7.27729
-7.30125
-7.31922
-7.33307
-7.34487
-7.35491
-7.36317
-7.3698
-7.37492
-7.37855
-7.38065
-7.38116
-7.37999
-7.37698
-7.37195
-7.36463
-7.3547
-7.34174
-7.32515
-7.30419
-7.2778
-7.24453
-7.20216
-7.14794
-7.07595
-6.98459
-6.85245
-6.72958
-6.6426
-7.08591
-7.17394
-7.23407
-7.25906
-7.28146
-7.30371
-7.32119
-7.33489
-7.34655
-7.3565
-7.36473
-7.37136
-7.3765
-7.38018
-7.38235
-7.38297
-7.38194
-7.37911
-7.37431
-7.36729
-7.35776
-7.34532
-7.32946
-7.30951
-7.28461
-7.2536
-7.2149
-7.16687
-7.10664
-7.03611
-6.9516
-6.89937
-6.88533
-7.12466
-7.18304
-7.23726
-7.26365
-7.28453
-7.30537
-7.32251
-7.33611
-7.34762
-7.35747
-7.36567
-7.37231
-7.37748
-7.38122
-7.3835
-7.38425
-7.38339
-7.3808
-7.37631
-7.3697
-7.36071
-7.34899
-7.33412
-7.31557
-7.29268
-7.26468
-7.23066
-7.19003
-7.14223
-7.09078
-7.03878
-7.01523
-7.02477
-7.15581
-7.19563
-7.24152
-7.26777
-7.28767
-7.30727
-7.32395
-7.33738
-7.34875
-7.35851
-7.36669
-7.37335
-7.37859
-7.38244
-7.38487
-7.38583
-7.38524
-7.38299
-7.37893
-7.37288
-7.36463
-7.35388
-7.34033
-7.32358
-7.30323
-7.27888
-7.25022
-7.2175
-7.18162
-7.14664
-7.11789
-7.11384
-7.14308
-7.18193
-7.20943
-7.2472
-7.27247
-7.2915
-7.30982
-7.32587
-7.33906
-7.35025
-7.35991
-7.36806
-7.37476
-7.38009
-7.38408
-7.3867
-7.38792
-7.38766
-7.38584
-7.38232
-7.37698
-7.36963
-7.36008
-7.3481
-7.33348
-7.31602
-7.29568
-7.27261
-7.24763
-7.22241
-7.2009
-7.18854
-7.19708
-7.23367
-7.2041
-7.2234
-7.25412
-7.27774
-7.29583
-7.31289
-7.32822
-7.3411
-7.35211
-7.36164
-7.36976
-7.37651
-7.38195
-7.3861
-7.38896
-7.39049
-7.39063
-7.38932
-7.38645
-7.38194
-7.37565
-7.36746
-7.35727
-7.34499
-7.33064
-7.31443
-7.29685
-7.27904
-7.26292
-7.252
-7.25091
-7.26696
-7.30505
-7.22321
-7.23707
-7.26194
-7.28348
-7.30054
-7.31644
-7.33099
-7.34351
-7.35429
-7.36369
-7.37178
-7.37859
-7.38415
-7.38851
-7.39164
-7.39353
-7.39414
-7.39341
-7.39129
-7.38771
-7.38261
-7.37592
-7.36765
-7.35785
-7.34668
-7.33453
-7.32212
-7.31067
-7.30209
-7.29928
-7.30585
-7.32633
-7.36377
-7.23999
-7.2502
-7.27033
-7.28963
-7.3056
-7.3204
-7.33416
-7.34627
-7.35682
-7.36608
-7.37414
-7.38101
-7.38672
-7.3913
-7.39475
-7.39705
-7.39818
-7.39811
-7.39681
-7.39426
-7.39043
-7.38535
-7.37908
-7.37178
-7.36374
-7.35546
-7.34773
-7.34177
-7.33929
-7.34258
-7.35432
-7.37727
-7.41324
-7.25495
-7.26267
-7.27902
-7.29612
-7.31095
-7.32474
-7.33772
-7.34937
-7.35967
-7.36881
-7.37684
-7.38378
-7.38966
-7.39449
-7.39829
-7.40104
-7.40274
-7.40339
-7.40297
-7.4015
-7.39902
-7.39559
-7.39134
-7.38652
-7.38147
-7.37676
-7.37318
-7.37184
-7.3742
-7.38203
-7.39719
-7.42139
-7.45558
-7.26845
-7.27445
-7.28783
-7.30286
-7.31655
-7.3294
-7.34162
-7.35281
-7.36286
-7.37185
-7.37987
-7.3869
-7.39296
-7.39807
-7.40224
-7.40549
-7.40781
-7.40921
-7.40972
-7.40939
-7.40828
-7.40651
-7.40426
-7.40182
-7.39957
-7.39807
-7.39809
-7.40058
-7.40673
-7.41786
-7.43525
-7.45991
-7.4923
-7.28077
-7.28555
-7.2966
-7.30979
-7.32235
-7.33431
-7.34583
-7.35656
-7.36635
-7.37522
-7.38322
-7.39035
-7.39661
-7.40203
-7.40661
-7.41037
-7.41334
-7.41554
-7.41702
-7.41784
-7.41811
-7.41798
-7.41766
-7.41745
-7.41776
-7.41911
-7.42219
-7.4278
-7.43688
-7.45038
-7.46917
-7.49382
-7.52448
-7.29212
-7.29601
-7.30524
-7.31681
-7.3283
-7.33945
-7.35031
-7.3606
-7.37014
-7.37889
-7.38689
-7.39414
-7.40062
-7.40636
-7.41137
-7.41568
-7.41932
-7.42233
-7.42479
-7.42677
-7.4284
-7.42985
-7.43136
-7.43322
-7.43583
-7.43967
-7.44532
-7.45344
-7.46475
-7.47993
-7.49954
-7.52387
-7.55293
-7.30263
-7.30586
-7.31368
-7.32386
-7.33437
-7.34477
-7.35502
-7.3649
-7.37419
-7.38285
-7.39087
-7.39824
-7.40495
-7.41103
-7.41649
-7.42137
-7.4257
-7.42954
-7.43297
-7.43609
-7.43904
-7.44201
-7.44522
-7.44897
-7.45361
-7.45958
-7.46736
-7.47748
-7.49047
-7.5068
-7.52683
-7.55067
-7.57825
-7.31243
-7.31516
-7.32186
-7.33087
-7.34049
-7.35021
-7.35993
-7.36943
-7.3785
-7.38707
-7.39512
-7.40263
-7.4096
-7.41604
-7.42196
-7.42741
-7.43244
-7.4371
-7.44149
-7.44573
-7.44994
-7.45432
-7.4591
-7.46454
-7.47097
-7.47875
-7.48828
-7.49996
-7.51419
-7.53129
-7.55145
-7.57472
-7.60095
-7.32159
-7.32395
-7.32977
-7.33781
-7.34664
-7.35575
-7.36499
-7.37414
-7.38303
-7.39153
-7.39963
-7.4073
-7.41454
-7.42134
-7.42774
-7.43377
-7.43949
-7.44496
-7.45029
-7.45559
-7.46099
-7.46669
-7.47289
-7.47983
-7.48779
-7.49709
-7.50803
-7.52093
-7.53606
-7.55364
-7.57375
-7.59639
-7.6214
-7.33017
-7.33224
-7.33738
-7.34461
-7.35276
-7.36134
-7.37016
-7.37902
-7.38774
-7.39621
-7.40438
-7.41222
-7.41973
-7.42691
-7.43378
-7.44039
-7.44679
-7.45306
-7.45929
-7.46559
-7.47211
-7.479
-7.48647
-7.49473
-7.50401
-7.51457
-7.52664
-7.54047
-7.55624
-7.57407
-7.59401
-7.616
-7.6399
-7.33823
-7.34007
-7.34467
-7.35124
-7.35882
-7.36693
-7.3754
-7.38401
-7.3926
-7.40105
-7.40931
-7.41735
-7.42514
-7.4327
-7.44005
-7.44723
-7.4543
-7.46133
-7.46842
-7.47566
-7.4832
-7.49118
-7.49978
-7.50918
-7.51957
-7.53116
-7.54413
-7.55865
-7.57484
-7.59278
-7.61246
-7.63382
-7.65671
-7.34578
-7.34745
-7.35162
-7.35767
-7.36477
-7.3725
-7.38066
-7.38908
-7.39758
-7.40604
-7.41441
-7.42265
-7.43074
-7.43868
-7.44651
-7.45425
-7.46196
-7.46972
-7.4776
-7.48572
-7.49419
-7.50315
-7.51274
-7.52311
-7.53444
-7.54686
-7.56053
-7.57556
-7.59202
-7.60994
-7.62932
-7.65005
-7.67202
-7.35285
-7.35439
-7.35823
-7.36386
-7.37057
-7.37799
-7.38592
-7.39419
-7.40263
-7.41113
-7.41963
-7.42809
-7.43648
-7.44481
-7.4531
-7.46138
-7.46971
-7.47815
-7.48679
-7.49571
-7.50502
-7.51483
-7.52528
-7.53649
-7.54859
-7.56169
-7.57589
-7.59127
-7.60787
-7.62571
-7.64473
-7.66487
-7.686
-7.35945
-7.36088
-7.36447
-7.36978
-7.37619
-7.38336
-7.39111
-7.39928
-7.40771
-7.41628
-7.42493
-7.43362
-7.44232
-7.45103
-7.45977
-7.46858
-7.4775
-7.48658
-7.4959
-7.50555
-7.51561
-7.52619
-7.53738
-7.54929
-7.56201
-7.57564
-7.59024
-7.60586
-7.62251
-7.6402
-7.65886
-7.67843
-7.6988
-7.36556
-7.36692
-7.37032
-7.37539
-7.38157
-7.38857
-7.3962
-7.40432
-7.41277
-7.42144
-7.43026
-7.43919
-7.44821
-7.4573
-7.46649
-7.47579
-7.48526
-7.49494
-7.50489
-7.5152
-7.52593
-7.53716
-7.54898
-7.56148
-7.57471
-7.58875
-7.60364
-7.6194
-7.63604
-7.65353
-7.67182
-7.69085
-7.71052
-7.37117
-7.37248
-7.37575
-7.38066
-7.38669
-7.39357
-7.40115
-7.40926
-7.41777
-7.42657
-7.43558
-7.44477
-7.4541
-7.46357
-7.47318
-7.48296
-7.49294
-7.50317
-7.5137
-7.5246
-7.53591
-7.54772
-7.56007
-7.57305
-7.58669
-7.60104
-7.61612
-7.63196
-7.64852
-7.66579
-7.68372
-7.70224
-7.72127
-7.37626
-7.37753
-7.38073
-7.38554
-7.39148
-7.39832
-7.40589
-7.41405
-7.42266
-7.43161
-7.44084
-7.4503
-7.45995
-7.46978
-7.4798
-7.49003
-7.5005
-7.51123
-7.52229
-7.5337
-7.54553
-7.55782
-7.57063
-7.58399
-7.59795
-7.61253
-7.62775
-7.64359
-7.66005
-7.67708
-7.69465
-7.71269
-7.73113
-7.38078
-7.38205
-7.38521
-7.38998
-7.39591
-7.40275
-7.41038
-7.41863
-7.42738
-7.43653
-7.44599
-7.45572
-7.46569
-7.47589
-7.48631
-7.49696
-7.50788
-7.51907
-7.53059
-7.54247
-7.55474
-7.56745
-7.58063
-7.59431
-7.60852
-7.62326
-7.63854
-7.65435
-7.67067
-7.68746
-7.70468
-7.72227
-7.74017
-7.3847
-7.38597
-7.38914
-7.39394
-7.39991
-7.40683
-7.41456
-7.42296
-7.43189
-7.44125
-7.45097
-7.461
-7.47129
-7.48184
-7.49264
-7.5037
-7.51503
-7.52664
-7.53858
-7.55086
-7.56352
-7.57658
-7.59007
-7.604
-7.61839
-7.63324
-7.64855
-7.6643
-7.68046
-7.697
-7.71388
-7.73105
-7.74845
-7.38795
-7.38924
-7.39246
-7.39735
-7.40344
-7.41049
-7.41839
-7.42698
-7.43613
-7.44575
-7.45574
-7.46607
-7.4767
-7.4876
-7.49876
-7.51019
-7.5219
-7.5339
-7.54621
-7.55885
-7.57184
-7.5852
-7.59893
-7.61306
-7.62759
-7.6425
-7.6578
-7.67346
-7.68946
-7.70575
-7.72231
-7.73909
-7.75603
-7.39045
-7.39178
-7.39511
-7.40014
-7.40641
-7.41368
-7.4218
-7.43063
-7.44006
-7.44995
-7.46025
-7.4709
-7.48186
-7.4931
-7.50462
-7.5164
-7.52847
-7.54082
-7.55346
-7.56641
-7.57968
-7.59328
-7.60722
-7.62151
-7.63612
-7.65107
-7.66633
-7.68189
-7.69771
-7.71377
-7.73002
-7.74643
-7.76295
-7.3921
-7.3935
-7.39698
-7.40224
-7.40877
-7.41631
-7.42473
-7.43387
-7.4436
-7.45382
-7.46445
-7.47543
-7.48672
-7.49831
-7.51016
-7.52229
-7.53468
-7.54735
-7.56029
-7.57351
-7.58703
-7.60083
-7.61494
-7.62933
-7.64401
-7.65896
-7.67417
-7.68961
-7.70526
-7.72108
-7.73704
-7.75311
-7.76925
-7.39278
-7.39427
-7.39797
-7.40354
-7.41043
-7.41834
-7.42712
-7.43663
-7.44673
-7.45731
-7.46829
-7.47962
-7.49126
-7.50318
-7.51536
-7.52781
-7.54051
-7.55346
-7.56667
-7.58013
-7.59386
-7.60784
-7.62207
-7.63655
-7.65126
-7.6662
-7.68134
-7.69666
-7.71214
-7.72774
-7.74344
-7.7592
-7.77498
-7.39233
-7.39395
-7.39796
-7.40397
-7.41133
-7.4197
-7.42893
-7.43887
-7.44939
-7.46037
-7.47174
-7.48343
-7.49542
-7.50768
-7.52019
-7.53294
-7.54592
-7.55914
-7.57258
-7.58626
-7.60015
-7.61427
-7.62861
-7.64315
-7.65788
-7.67279
-7.68785
-7.70305
-7.71836
-7.73375
-7.74919
-7.76466
-7.78013
-7.39055
-7.39235
-7.39679
-7.40339
-7.41136
-7.42031
-7.43008
-7.44055
-7.45155
-7.46297
-7.47474
-7.48682
-7.49917
-7.51177
-7.52459
-7.53763
-7.55089
-7.56435
-7.57801
-7.59187
-7.60593
-7.62017
-7.63459
-7.64918
-7.66392
-7.67879
-7.69378
-7.70886
-7.72402
-7.73922
-7.75443
-7.76964
-7.78482
-7.38717
-7.38923
-7.39429
-7.4017
-7.41045
-7.42011
-7.43055
-7.44163
-7.45319
-7.46511
-7.47733
-7.48982
-7.50253
-7.51546
-7.52858
-7.54189
-7.55538
-7.56905
-7.5829
-7.59692
-7.6111
-7.62543
-7.63991
-7.65452
-7.66924
-7.68407
-7.69897
-7.71394
-7.72894
-7.74396
-7.75897
-7.77394
-7.78887
-7.38183
-7.38426
-7.39024
-7.39878
-7.40856
-7.41906
-7.43026
-7.44203
-7.45419
-7.46665
-7.47936
-7.49227
-7.50538
-7.51866
-7.53211
-7.54571
-7.55946
-7.57336
-7.5874
-7.60158
-7.61589
-7.63032
-7.64486
-7.6595
-7.67422
-7.68901
-7.70385
-7.71871
-7.73358
-7.74844
-7.76326
-7.77802
-7.7927
-7.37399
-7.37703
-7.38437
-7.39452
-7.40565
-7.41729
-7.42949
-7.44212
-7.45497
-7.46797
-7.48112
-7.49441
-7.50783
-7.52137
-7.53504
-7.54884
-7.56276
-7.57681
-7.59097
-7.60525
-7.61963
-7.63412
-7.64868
-7.66333
-7.67802
-7.69276
-7.70752
-7.72229
-7.73704
-7.75176
-7.76643
-7.78102
-7.79553
-7.36282
-7.36697
-7.37665
-7.38882
-7.40119
-7.41388
-7.4272
-7.44088
-7.45464
-7.46842
-7.48226
-7.49615
-7.51009
-7.52408
-7.53812
-7.55224
-7.56643
-7.58069
-7.59503
-7.60945
-7.62394
-7.63849
-7.6531
-7.66775
-7.68243
-7.69712
-7.71181
-7.72649
-7.74112
-7.7557
-7.7702
-7.78459
-7.79887
-7.34691
-7.35269
-7.36731
-7.38367
-7.39818
-7.41207
-7.42628
-7.44053
-7.45459
-7.46855
-7.48252
-7.49652
-7.51056
-7.52464
-7.53879
-7.55301
-7.56731
-7.58168
-7.59612
-7.61063
-7.6252
-7.63982
-7.65448
-7.66917
-7.68387
-7.69857
-7.71325
-7.72789
-7.74248
-7.75701
-7.77145
-7.7858
-7.80005
-7.32543
-7.33213
-7.35062
-7.37033
-7.38807
-7.40545
-7.42273
-7.43935
-7.45523
-7.47062
-7.48569
-7.50051
-7.51514
-7.52964
-7.54408
-7.55848
-7.57289
-7.58731
-7.60176
-7.61624
-7.63075
-7.6453
-7.65986
-7.67444
-7.68902
-7.70358
-7.71811
-7.73259
-7.74701
-7.76135
-7.77557
-7.78967
-7.8036
-7.29236
-7.3273
-7.35634
-7.37193
-7.38537
-7.40111
-7.41734
-7.43284
-7.44792
-7.46297
-7.47801
-7.49299
-7.50789
-7.52276
-7.5376
-7.55244
-7.56728
-7.58213
-7.59698
-7.61184
-7.6267
-7.64156
-7.65642
-7.67126
-7.68607
-7.70084
-7.71556
-7.73021
-7.74478
-7.75926
-7.77364
-7.78792
-7.80209
-7.15111
-7.25848
-7.33199
-7.36384
-7.38649
-7.41018
-7.4318
-7.45001
-7.46619
-7.4815
-7.49629
-7.51066
-7.52476
-7.53873
-7.55266
-7.5666
-7.58057
-7.5946
-7.60869
-7.62285
-7.63706
-7.65132
-7.66562
-7.67994
-7.69427
-7.7086
-7.72289
-7.73714
-7.75133
-7.76544
-7.77945
-7.79334
-7.80711
-6.59448
-6.64925
-7.53184
-8.00665
-8.06098
-8.08291
-8.13194
-8.17228
-8.20453
-8.23681
-8.26986
-8.30295
-8.33622
-8.36988
-8.40387
-8.43808
-8.47241
-8.50675
-8.54096
-8.57491
-8.60847
-8.64149
-8.67384
-8.70541
-8.73607
-8.76569
-8.79418
-8.82142
-8.84731
-8.87175
-8.89465
-8.91591
-8.93545
-8.95317
-8.969
-8.98283
-8.9946
-9.00421
-9.01156
-9.01657
-9.01914
-9.01916
-9.01653
-9.01113
-9.00284
-8.99153
-8.97704
-8.95924
-8.93796
-8.91302
-8.88424
-8.85143
-8.81437
-8.77285
-8.72666
-8.67556
-8.61935
-8.55779
-8.49066
-8.41775
-8.33884
-8.25372
-8.16216
-8.06393
-7.9588
-7.84652
-7.72684
-7.59951
-7.46428
-7.32091
-7.16918
-7.00891
-6.83991
-6.66205
-6.47523
-6.27941
-6.07461
-5.86088
-5.63838
-5.40734
-5.1681
-4.92107
-4.66679
-4.40592
-4.13923
-3.86758
-3.59196
-3.31345
-3.03319
-2.7524
-2.47228
-2.19405
-1.91877
-1.64765
-1.38091
-1.12045
-0.862776
-0.616013
-0.357794
-0.137385
-7.16468
-7.32247
-7.66121
-7.92986
-8.00332
-8.04604
-8.10222
-8.14883
-8.18581
-8.22107
-8.25626
-8.29095
-8.32541
-8.35993
-8.39456
-8.42924
-8.4639
-8.49847
-8.53283
-8.56686
-8.60045
-8.63347
-8.6658
-8.69732
-8.72791
-8.75746
-8.78586
-8.813
-8.83879
-8.86313
-8.88592
-8.90708
-8.9265
-8.94411
-8.95982
-8.97354
-8.98519
-8.99467
-9.00189
-9.00676
-9.00919
-9.00906
-9.00627
-9.00071
-8.99225
-8.98075
-8.96608
-8.94808
-8.92659
-8.90143
-8.87243
-8.83939
-8.80209
-8.76035
-8.71392
-8.6626
-8.60616
-8.54438
-8.47705
-8.40393
-8.32483
-8.23952
-8.14779
-8.0494
-7.94412
-7.83171
-7.71192
-7.58451
-7.44923
-7.30585
-7.15417
-6.99398
-6.82512
-6.64747
-6.46093
-6.26546
-6.06107
-5.84785
-5.62593
-5.39556
-5.15706
-4.91086
-4.65748
-4.39758
-4.1319
-3.8613
-3.58677
-3.30933
-3.03014
-2.75035
-2.47115
-2.19375
-1.91914
-1.64852
-1.38201
-1.1217
-0.863406
-0.617153
-0.355105
-0.142936
-7.17422
-7.35737
-7.58785
-7.8377
-7.95734
-8.0181
-8.07687
-8.12777
-8.16893
-8.20676
-8.24371
-8.27976
-8.31519
-8.3504
-8.3855
-8.42051
-8.45538
-8.49006
-8.52446
-8.55849
-8.59203
-8.62497
-8.65719
-8.6886
-8.71906
-8.74848
-8.77674
-8.80374
-8.82939
-8.85359
-8.87624
-8.89725
-8.91654
-8.93401
-8.94958
-8.96316
-8.97466
-8.98399
-8.99106
-8.99578
-8.99805
-8.99776
-8.9948
-8.98906
-8.9804
-8.96871
-8.95383
-8.93562
-8.91391
-8.88853
-8.85929
-8.82601
-8.78848
-8.74649
-8.69982
-8.64827
-8.5916
-8.5296
-8.46205
-8.38873
-8.30943
-8.22394
-8.13203
-8.03348
-7.92806
-7.81552
-7.69564
-7.56816
-7.43285
-7.28948
-7.13785
-6.97777
-6.80909
-6.63168
-6.44544
-6.25035
-6.04643
-5.83375
-5.61246
-5.3828
-5.1451
-4.89978
-4.64736
-4.38848
-4.12388
-3.8544
-3.58101
-3.30472
-3.02664
-2.74792
-2.4697
-2.19317
-1.91926
-1.64919
-1.38294
-1.1228
-0.863936
-0.618174
-0.352479
-0.148299
-7.20486
-7.38683
-7.58625
-7.79815
-7.9228
-7.99167
-8.05282
-8.10741
-8.15245
-8.19276
-8.23135
-8.26865
-8.30498
-8.34079
-8.37629
-8.41155
-8.44655
-8.48126
-8.51564
-8.54959
-8.58301
-8.61581
-8.64788
-8.67912
-8.7094
-8.73864
-8.76672
-8.79354
-8.81901
-8.84304
-8.86551
-8.88636
-8.90547
-8.92278
-8.93818
-8.9516
-8.96294
-8.97211
-8.97901
-8.98356
-8.98565
-8.98518
-8.98204
-8.9761
-8.96725
-8.95534
-8.94025
-8.92181
-8.89987
-8.87425
-8.84478
-8.81125
-8.77347
-8.73123
-8.68432
-8.63252
-8.57562
-8.51339
-8.44563
-8.3721
-8.29261
-8.20694
-8.11486
-8.01615
-7.9106
-7.79795
-7.67798
-7.55045
-7.41512
-7.27178
-7.12023
-6.96029
-6.79181
-6.61466
-6.42877
-6.23409
-6.03067
-5.81857
-5.59796
-5.36907
-5.13221
-4.88782
-4.63642
-4.37862
-4.11515
-3.84686
-3.57466
-3.29957
-3.02266
-2.74506
-2.46788
-2.19226
-1.91911
-1.64961
-1.38366
-1.12372
-0.864343
-0.619057
-0.349932
-0.153407
-7.26766
-7.42828
-7.59754
-7.76975
-7.88965
-7.96596
-8.03034
-8.08757
-8.13575
-8.17839
-8.21856
-8.25705
-8.29426
-8.33066
-8.36654
-8.40202
-8.43712
-8.47184
-8.50615
-8.53999
-8.57326
-8.60588
-8.63775
-8.66877
-8.69884
-8.72786
-8.75573
-8.78234
-8.8076
-8.83141
-8.85369
-8.87433
-8.89326
-8.91038
-8.9256
-8.93883
-8.94999
-8.95897
-8.9657
-8.97006
-8.97196
-8.97129
-8.96795
-8.96181
-8.95274
-8.94062
-8.9253
-8.90663
-8.88444
-8.85858
-8.82885
-8.79507
-8.75703
-8.71454
-8.66738
-8.61534
-8.5582
-8.49575
-8.42777
-8.35404
-8.27436
-8.1885
-8.09626
-7.99742
-7.89174
-7.77899
-7.65895
-7.53138
-7.39606
-7.25277
-7.10133
-6.94155
-6.7733
-6.59645
-6.41093
-6.21671
-6.01383
-5.80236
-5.58247
-5.35439
-5.11844
-4.87504
-4.6247
-4.36803
-4.10576
-3.8387
-3.56776
-3.29393
-3.01825
-2.74182
-2.46571
-2.19104
-1.91868
-1.6498
-1.38418
-1.12446
-0.864632
-0.619795
-0.347502
-0.158175
-7.32763
-7.46248
-7.60642
-7.75051
-7.86357
-7.94376
-8.01
-8.0686
-8.11903
-8.16369
-8.20529
-8.24487
-8.2829
-8.31987
-8.35611
-8.39179
-8.42698
-8.46169
-8.49591
-8.5296
-8.5627
-8.59511
-8.62675
-8.65753
-8.68736
-8.71613
-8.74375
-8.77011
-8.79513
-8.81872
-8.84077
-8.86119
-8.8799
-8.89681
-8.91182
-8.92485
-8.93581
-8.94459
-8.95112
-8.95528
-8.95697
-8.9561
-8.95254
-8.94618
-8.93689
-8.92453
-8.90898
-8.89006
-8.86763
-8.84151
-8.81152
-8.77748
-8.73919
-8.69644
-8.64903
-8.59674
-8.53937
-8.47668
-8.40849
-8.33456
-8.25469
-8.16867
-8.07627
-7.97729
-7.8715
-7.75867
-7.63857
-7.51099
-7.37569
-7.23249
-7.08117
-6.92159
-6.75359
-6.57708
-6.39197
-6.19826
-5.99596
-5.78516
-5.56604
-5.33882
-5.10382
-4.86146
-4.61224
-4.35677
-4.09575
-3.82998
-3.56034
-3.28782
-3.01341
-2.73819
-2.46321
-2.18953
-1.91799
-1.64975
-1.38451
-1.12502
-0.864811
-0.620383
-0.345229
-0.162533
-7.38112
-7.49381
-7.61735
-7.74068
-7.84484
-7.92506
-7.99184
-8.05097
-8.10284
-8.14904
-8.19182
-8.2323
-8.27104
-8.30851
-8.34507
-8.38092
-8.41616
-8.45084
-8.48496
-8.51848
-8.55137
-8.58355
-8.61493
-8.64545
-8.675
-8.70349
-8.73083
-8.75693
-8.78169
-8.80501
-8.82681
-8.84698
-8.86546
-8.88213
-8.89692
-8.90972
-8.92046
-8.92902
-8.93533
-8.93927
-8.94075
-8.93965
-8.93586
-8.92927
-8.91974
-8.90715
-8.89134
-8.87217
-8.84948
-8.8231
-8.79285
-8.75854
-8.71999
-8.67698
-8.62931
-8.57677
-8.51916
-8.45625
-8.38784
-8.31372
-8.23367
-8.14748
-8.05494
-7.95584
-7.84995
-7.73705
-7.61692
-7.48933
-7.35409
-7.21098
-7.05983
-6.90047
-6.73277
-6.55662
-6.37196
-6.17878
-5.97711
-5.76703
-5.54872
-5.32241
-5.08842
-4.84715
-4.5991
-4.34487
-4.08514
-3.82071
-3.55244
-3.28126
-3.00817
-2.7342
-2.46038
-2.18773
-1.91705
-1.64947
-1.38464
-1.12541
-0.864889
-0.62082
-0.343145
-0.166425
-7.42842
-7.52353
-7.63001
-7.7369
-7.83176
-7.90975
-7.97607
-8.03508
-8.08762
-8.13483
-8.17846
-8.21963
-8.25893
-8.2968
-8.33361
-8.36958
-8.40484
-8.43944
-8.47342
-8.50675
-8.53941
-8.57132
-8.60242
-8.63264
-8.66189
-8.69008
-8.71712
-8.74291
-8.76737
-8.79041
-8.81193
-8.83183
-8.85004
-8.86646
-8.88099
-8.89355
-8.90404
-8.91237
-8.91844
-8.92214
-8.92338
-8.92204
-8.91802
-8.91118
-8.9014
-8.88855
-8.87248
-8.85305
-8.83009
-8.80344
-8.77292
-8.73834
-8.69951
-8.65623
-8.60831
-8.55552
-8.49767
-8.43454
-8.36592
-8.2916
-8.21138
-8.12503
-8.03236
-7.93314
-7.82716
-7.71421
-7.59406
-7.4665
-7.33133
-7.18835
-7.03738
-6.87827
-6.71089
-6.53515
-6.35098
-6.15837
-5.95736
-5.74805
-5.53059
-5.30523
-5.07229
-4.83215
-4.58532
-4.33238
-4.074
-3.81095
-3.54407
-3.27428
-3.00255
-2.72988
-2.45724
-2.18565
-1.91585
-1.64897
-1.38458
-1.12562
-0.864869
-0.621106
-0.341274
-0.169811
-7.46985
-7.55127
-7.64351
-7.73713
-7.82328
-7.89778
-7.96275
-8.02104
-8.07361
-8.12132
-8.16549
-8.20712
-8.24679
-8.28494
-8.32191
-8.35794
-8.39317
-8.42766
-8.46147
-8.49458
-8.52697
-8.55859
-8.58939
-8.61928
-8.64819
-8.67605
-8.70275
-8.72822
-8.75236
-8.77508
-8.79629
-8.8159
-8.83381
-8.84994
-8.8642
-8.87649
-8.88671
-8.89478
-8.90059
-8.90404
-8.90502
-8.90342
-8.89913
-8.89203
-8.88199
-8.86887
-8.85253
-8.83282
-8.80958
-8.78265
-8.75185
-8.71699
-8.67788
-8.63434
-8.58615
-8.53311
-8.47502
-8.41166
-8.34283
-8.26833
-8.18793
-8.10143
-8.00863
-7.90931
-7.80326
-7.69027
-7.57012
-7.4426
-7.30752
-7.16469
-7.01393
-6.8551
-6.68807
-6.51276
-6.32911
-6.13711
-5.9368
-5.72829
-5.51173
-5.28736
-5.0555
-4.81654
-4.57097
-4.31935
-4.06236
-3.80073
-3.53529
-3.26692
-2.99658
-2.72523
-2.45381
-2.1833
-1.91442
-1.64825
-1.38434
-1.12566
-0.864759
-0.621244
-0.339631
-0.172667
-7.50613
-7.57692
-7.65745
-7.74017
-7.81845
-7.88881
-7.95172
-8.00882
-8.06092
-8.10868
-8.15307
-8.19493
-8.2348
-8.2731
-8.31015
-8.34617
-8.38131
-8.41565
-8.44925
-8.48211
-8.51421
-8.54552
-8.57598
-8.60552
-8.63408
-8.66157
-8.68791
-8.71302
-8.73681
-8.75919
-8.78006
-8.79934
-8.81694
-8.83276
-8.84672
-8.85871
-8.86864
-8.87642
-8.88195
-8.88512
-8.88582
-8.88395
-8.87938
-8.872
-8.86167
-8.84826
-8.83164
-8.81164
-8.78811
-8.76089
-8.72979
-8.69465
-8.65526
-8.61144
-8.56298
-8.50969
-8.45135
-8.38777
-8.31873
-8.24403
-8.16346
-8.07682
-7.9839
-7.88449
-7.77838
-7.66536
-7.54522
-7.41776
-7.28279
-7.14013
-6.9896
-6.83107
-6.66443
-6.48957
-6.30647
-6.1151
-5.91553
-5.70785
-5.49222
-5.26888
-5.03814
-4.8004
-4.55611
-4.30586
-4.05028
-3.7901
-3.52612
-3.25922
-2.99029
-2.72028
-2.4501
-2.18069
-1.91275
-1.64732
-1.38391
-1.12553
-0.864562
-0.621238
-0.338226
-0.174983
-7.53806
-7.60052
-7.67148
-7.74515
-7.81641
-7.88242
-7.9428
-7.99833
-8.04956
-8.097
-8.14131
-8.18318
-8.22309
-8.26141
-8.29843
-8.33437
-8.36937
-8.40353
-8.43689
-8.46947
-8.50126
-8.53223
-8.56233
-8.5915
-8.61968
-8.64679
-8.67275
-8.69748
-8.72089
-8.7429
-8.76341
-8.78234
-8.7996
-8.81509
-8.82871
-8.84038
-8.85
-8.85748
-8.8627
-8.86556
-8.86597
-8.86379
-8.85893
-8.85124
-8.84062
-8.82691
-8.80998
-8.78968
-8.76585
-8.73832
-8.70692
-8.67148
-8.6318
-8.58769
-8.53896
-8.48541
-8.42682
-8.36301
-8.29376
-8.21887
-8.13814
-8.05135
-7.95832
-7.85882
-7.75265
-7.63961
-7.5195
-7.39212
-7.25727
-7.11479
-6.96452
-6.80632
-6.64007
-6.4657
-6.28317
-6.09247
-5.89366
-5.68683
-5.47216
-5.24988
-5.02029
-4.78379
-4.54082
-4.29196
-4.03782
-3.77911
-3.51663
-3.2512
-2.9837
-2.71505
-2.44613
-2.17785
-1.91085
-1.64618
-1.3833
-1.12525
-0.864282
-0.621094
-0.337056
-0.176767
-7.56633
-7.62217
-7.68531
-7.7514
-7.81647
-7.87817
-7.93576
-7.98944
-8.03951
-8.0863
-8.13027
-8.17195
-8.21174
-8.24995
-8.28685
-8.32264
-8.35745
-8.39138
-8.42447
-8.45674
-8.4882
-8.51881
-8.54854
-8.57732
-8.60511
-8.63182
-8.65738
-8.68171
-8.70473
-8.72635
-8.74648
-8.76504
-8.78193
-8.79706
-8.81034
-8.82167
-8.83096
-8.8381
-8.84299
-8.84553
-8.84562
-8.84313
-8.83794
-8.82994
-8.819
-8.80498
-8.78773
-8.76711
-8.74296
-8.71512
-8.68341
-8.64765
-8.60767
-8.56327
-8.51426
-8.46044
-8.4016
-8.33756
-8.26809
-8.19301
-8.11211
-8.02518
-7.93203
-7.83245
-7.72624
-7.61319
-7.49311
-7.36581
-7.23111
-7.08883
-6.93882
-6.78096
-6.61513
-6.44127
-6.25933
-6.06932
-5.87129
-5.66534
-5.45165
-5.23045
-5.00204
-4.76679
-4.52517
-4.27771
-4.02503
-3.76782
-3.50684
-3.24289
-2.97685
-2.70957
-2.44192
-2.17477
-1.90875
-1.64484
-1.38252
-1.1248
-0.863923
-0.620819
-0.336113
-0.17804
-7.59152
-7.64202
-7.69874
-7.75847
-7.81809
-7.87568
-7.93037
-7.98202
-8.0307
-8.07658
-8.11999
-8.16129
-8.2008
-8.23879
-8.27548
-8.31104
-8.34561
-8.37926
-8.41205
-8.44399
-8.4751
-8.50534
-8.53468
-8.56306
-8.59044
-8.61674
-8.64189
-8.66581
-8.68842
-8.70964
-8.72938
-8.74755
-8.76405
-8.77881
-8.79173
-8.8027
-8.81163
-8.81842
-8.82297
-8.82518
-8.82492
-8.8221
-8.81658
-8.80825
-8.79697
-8.78261
-8.76504
-8.74408
-8.71961
-8.69143
-8.6594
-8.62333
-8.58304
-8.53834
-8.48904
-8.43494
-8.37585
-8.31157
-8.24189
-8.16661
-8.08554
-7.99847
-7.9052
-7.80554
-7.69928
-7.58623
-7.4662
-7.33899
-7.20444
-7.06237
-6.91265
-6.75514
-6.58974
-6.4164
-6.23506
-6.04575
-5.84852
-5.64348
-5.43079
-5.21068
-4.98345
-4.74948
-4.50921
-4.26318
-4.01197
-3.75626
-3.49679
-3.23435
-2.96976
-2.70386
-2.43749
-2.17148
-1.90643
-1.64331
-1.38157
-1.1242
-0.863485
-0.620422
-0.335383
-0.178834
-7.6141
-7.66023
-7.71166
-7.766
-7.82084
-7.87459
-7.9264
-7.9759
-8.02303
-8.06783
-8.11047
-8.15122
-8.19032
-8.22796
-8.26435
-8.29962
-8.33389
-8.36722
-8.39968
-8.43127
-8.46201
-8.49186
-8.5208
-8.54877
-8.57574
-8.60161
-8.62634
-8.64984
-8.67204
-8.69284
-8.71218
-8.72994
-8.74606
-8.76043
-8.77297
-8.78356
-8.79213
-8.79856
-8.80275
-8.8046
-8.804
-8.80082
-8.79496
-8.78628
-8.77466
-8.75996
-8.74204
-8.72075
-8.69593
-8.66742
-8.63506
-8.59866
-8.55805
-8.51304
-8.46345
-8.40907
-8.34972
-8.28519
-8.21529
-8.13981
-8.05857
-7.97135
-7.87798
-7.77824
-7.67194
-7.55889
-7.4389
-7.31179
-7.1774
-7.03555
-6.88611
-6.72897
-6.56402
-6.3912
-6.21049
-6.02189
-5.82547
-5.62134
-5.40965
-5.19065
-4.96462
-4.73193
-4.49303
-4.24842
-3.99869
-3.74449
-3.48653
-3.22559
-2.96245
-2.69794
-2.43285
-2.16799
-1.90392
-1.64159
-1.38046
-1.12346
-0.86297
-0.619911
-0.334844
-0.179191
-7.63445
-7.67694
-7.72397
-7.77374
-7.82439
-7.87461
-7.92361
-7.97094
-8.01641
-8.05997
-8.10171
-8.14177
-8.18032
-8.21752
-8.25352
-8.28842
-8.32233
-8.35531
-8.3874
-8.41862
-8.44896
-8.47841
-8.50694
-8.5345
-8.56103
-8.58649
-8.61079
-8.63386
-8.65563
-8.67602
-8.69494
-8.7123
-8.72801
-8.74199
-8.75413
-8.76435
-8.77254
-8.7786
-8.78242
-8.78391
-8.78294
-8.77941
-8.77319
-8.76416
-8.75218
-8.73713
-8.71885
-8.69721
-8.67204
-8.64319
-8.61049
-8.57376
-8.53283
-8.48751
-8.43761
-8.38295
-8.32333
-8.25855
-8.18843
-8.11275
-8.03133
-7.94398
-7.85048
-7.75067
-7.64433
-7.53128
-7.41135
-7.28434
-7.15011
-7.00849
-6.85934
-6.70257
-6.53807
-6.36579
-6.1857
-5.99783
-5.80223
-5.59901
-5.38834
-5.17044
-4.94562
-4.71422
-4.47667
-4.23349
-3.98523
-3.73254
-3.4761
-3.21665
-2.95497
-2.69184
-2.42802
-2.1643
-1.90123
-1.6397
-1.37919
-1.12257
-0.862377
-0.619296
-0.334472
-0.179161
-7.65287
-7.69231
-7.73564
-7.78151
-7.82848
-7.87548
-7.9218
-7.96697
-8.01073
-8.05297
-8.09367
-8.13292
-8.17082
-8.20748
-8.243
-8.27748
-8.31098
-8.34356
-8.37525
-8.40606
-8.436
-8.46503
-8.49314
-8.52027
-8.54637
-8.57139
-8.59526
-8.6179
-8.63925
-8.65921
-8.67771
-8.69466
-8.70996
-8.72354
-8.73529
-8.74511
-8.75292
-8.7586
-8.76205
-8.76316
-8.76183
-8.75793
-8.75135
-8.74195
-8.72961
-8.7142
-8.69557
-8.67357
-8.64805
-8.61885
-8.5858
-8.54874
-8.50748
-8.46184
-8.41165
-8.3567
-8.29681
-8.23178
-8.16142
-8.08555
-8.00395
-7.91645
-7.82284
-7.72295
-7.61657
-7.50353
-7.38365
-7.25675
-7.12268
-6.98129
-6.83245
-6.67605
-6.512
-6.34026
-6.16081
-5.97366
-5.77888
-5.57657
-5.36692
-5.15013
-4.9265
-4.69639
-4.46021
-4.21844
-3.97165
-3.72046
-3.46552
-3.20756
-2.94732
-2.68556
-2.42302
-2.16044
-1.89836
-1.63764
-1.37777
-1.12155
-0.861706
-0.618583
-0.334237
-0.178797
-7.66961
-7.70645
-7.74664
-7.78918
-7.83291
-7.877
-7.9208
-7.96386
-8.00589
-8.04674
-8.08633
-8.12468
-8.16183
-8.19786
-8.23284
-8.26682
-8.29986
-8.332
-8.36326
-8.39365
-8.42315
-8.45175
-8.47942
-8.50612
-8.53178
-8.55636
-8.57979
-8.602
-8.62291
-8.64245
-8.66052
-8.67705
-8.69195
-8.70512
-8.71647
-8.7259
-8.73332
-8.73861
-8.74169
-8.74242
-8.74072
-8.73645
-8.72949
-8.71973
-8.70703
-8.69125
-8.67226
-8.6499
-8.62403
-8.59448
-8.56109
-8.52368
-8.48209
-8.43614
-8.38564
-8.3304
-8.27024
-8.20496
-8.13437
-8.05829
-7.97652
-7.88887
-7.79515
-7.69518
-7.58877
-7.47573
-7.35591
-7.22912
-7.09522
-6.95406
-6.80552
-6.64949
-6.4859
-6.31471
-6.13588
-5.94946
-5.75549
-5.55411
-5.34546
-5.12978
-4.90735
-4.67851
-4.44367
-4.20332
-3.95799
-3.70828
-3.45483
-3.19834
-2.93953
-2.67913
-2.41785
-2.15641
-1.89532
-1.63541
-1.3762
-1.1204
-0.860955
-0.617783
-0.334111
-0.178156
-7.68487
-7.71947
-7.75699
-7.79664
-7.83754
-7.87898
-7.92043
-7.96147
-8.00179
-8.04121
-8.07963
-8.117
-8.15334
-8.18868
-8.22304
-8.25648
-8.28901
-8.32067
-8.35146
-8.38139
-8.41045
-8.4386
-8.46582
-8.49207
-8.51729
-8.54143
-8.56442
-8.58619
-8.60667
-8.62577
-8.64342
-8.65953
-8.67401
-8.68678
-8.69772
-8.70676
-8.71378
-8.71869
-8.72138
-8.72174
-8.71966
-8.71501
-8.70769
-8.69756
-8.68449
-8.66835
-8.64899
-8.62628
-8.60004
-8.57014
-8.5364
-8.49866
-8.45674
-8.41047
-8.35966
-8.30414
-8.2437
-8.17817
-8.10736
-8.03108
-7.94913
-7.86133
-7.7675
-7.66745
-7.56101
-7.44798
-7.32821
-7.20153
-7.0678
-6.92687
-6.77863
-6.62299
-6.45986
-6.2892
-6.11101
-5.9253
-5.73215
-5.53167
-5.32403
-5.10945
-4.8882
-4.66062
-4.42712
-4.18817
-3.94428
-3.69603
-3.44406
-3.18902
-2.93163
-2.67257
-2.41254
-2.15222
-1.89212
-1.63302
-1.37448
-1.11912
-0.860122
-0.616901
-0.334064
-0.177291
-7.69881
-7.73148
-7.76669
-7.80384
-7.84222
-7.88128
-7.92056
-7.95967
-7.99833
-8.03632
-8.07353
-8.10988
-8.14535
-8.17993
-8.21363
-8.24646
-8.27844
-8.30958
-8.33988
-8.36933
-8.39792
-8.42561
-8.45237
-8.47817
-8.50294
-8.52663
-8.54917
-8.5705
-8.59054
-8.60921
-8.62643
-8.64212
-8.65619
-8.66854
-8.67908
-8.68772
-8.69435
-8.69887
-8.70117
-8.70115
-8.69869
-8.69368
-8.68598
-8.67548
-8.66204
-8.64554
-8.62582
-8.60274
-8.57616
-8.5459
-8.51182
-8.47374
-8.4315
-8.38491
-8.3338
-8.27798
-8.21728
-8.1515
-8.08046
-8.00397
-7.92185
-7.83391
-7.73997
-7.63984
-7.53336
-7.42034
-7.30063
-7.17407
-7.0405
-6.89981
-6.75187
-6.5966
-6.43393
-6.26381
-6.08624
-5.90125
-5.70891
-5.50934
-5.30269
-5.08919
-4.86911
-4.64278
-4.4106
-4.17302
-3.93055
-3.68375
-3.43323
-3.17963
-2.92362
-2.66589
-2.4071
-2.14789
-1.88877
-1.63049
-1.37263
-1.11771
-0.859206
-0.615945
-0.334066
-0.176255
-7.71158
-7.74256
-7.77576
-7.81073
-7.84689
-7.8838
-7.92107
-7.95837
-7.99541
-8.032
-8.06799
-8.10328
-8.13784
-8.17161
-8.2046
-8.23679
-8.26818
-8.29877
-8.32855
-8.35749
-8.38559
-8.41281
-8.4391
-8.46443
-8.48874
-8.51198
-8.53407
-8.55496
-8.57456
-8.59279
-8.60959
-8.62486
-8.63851
-8.65045
-8.66059
-8.66882
-8.67506
-8.67919
-8.68111
-8.68071
-8.67787
-8.67248
-8.66441
-8.65354
-8.63974