/*--------------------------------*- C++ -*----------------------------------*\
| =========                 |                                                 |
| \\      /  F ield         | OpenFOAM: The Open Source CFD Toolbox           |
|  \\    /   O peration     | Version:  4.1                                   |
|   \\  /    A nd           | Web:      www.OpenFOAM.org                      |
|    \\/     M anipulation  |                                                 |
\*---------------------------------------------------------------------------*/
FoamFile
{
    version     2.0;
    format      ascii;
    class       surfaceScalarField;
    location    "1100";
    object      phi;
}
// * * * * * * * * * * * * * * * * * * * * * * * * * * * * * * * * * * * * * //

dimensions      [0 3 -1 0 0 0 0];

internalField   nonuniform List<scalar> 
13452
(
5.98811e-05
3.87334e-07
5.95252e-05
3.55936e-07
5.92696e-05
2.55584e-07
5.90615e-05
2.08067e-07
5.88793e-05
1.82248e-07
5.87167e-05
1.6263e-07
5.85688e-05
1.47861e-07
5.84321e-05
1.36715e-07
5.83044e-05
1.27683e-07
5.81844e-05
1.20047e-07
5.80708e-05
1.13547e-07
5.79628e-05
1.08016e-07
5.78595e-05
1.03313e-07
5.77601e-05
9.93376e-08
5.76641e-05
9.60264e-08
5.75708e-05
9.33406e-08
5.74795e-05
9.12643e-08
5.73897e-05
8.98059e-08
5.73007e-05
8.90001e-08
5.72118e-05
8.8915e-08
5.71221e-05
8.9663e-08
5.70307e-05
9.14208e-08
5.69362e-05
9.44658e-08
5.6837e-05
9.92411e-08
5.67305e-05
1.06485e-07
5.6613e-05
1.17484e-07
5.64783e-05
1.34699e-07
5.63155e-05
1.62835e-07
5.61018e-05
2.13679e-07
5.57942e-05
3.07649e-07
5.52647e-05
5.2952e-07
5.42154e-05
1.04929e-06
1.53817e-06
5.26772e-05
6.20749e-05
3.0276e-07
6.19987e-05
4.32109e-07
6.18517e-05
4.0267e-07
6.16884e-05
3.71287e-07
6.15293e-05
3.41399e-07
6.13798e-05
3.1213e-07
6.12402e-05
2.87426e-07
6.11095e-05
2.67424e-07
6.09865e-05
2.50739e-07
6.087e-05
2.36508e-07
6.07592e-05
2.24301e-07
6.06534e-05
2.13807e-07
6.0552e-05
2.0479e-07
6.04542e-05
1.97086e-07
6.03597e-05
1.90588e-07
6.02678e-05
1.8523e-07
6.0178e-05
1.80986e-07
6.009e-05
1.77868e-07
6.00031e-05
1.7593e-07
5.99167e-05
1.75281e-07
5.98303e-05
1.76099e-07
5.9743e-05
1.7866e-07
5.96541e-05
1.83389e-07
5.95624e-05
1.9094e-07
5.94665e-05
2.02362e-07
5.93646e-05
2.19348e-07
5.92544e-05
2.44988e-07
5.9133e-05
2.8422e-07
5.89974e-05
3.49275e-07
5.88511e-05
4.53914e-07
5.87175e-05
6.63157e-07
5.87644e-05
1.00237e-06
1.63612e-06
5.86665e-05
6.38373e-05
2.26834e-07
6.38685e-05
4.00964e-07
6.38445e-05
4.26689e-07
6.37851e-05
4.3068e-07
6.37048e-05
4.21702e-07
6.36142e-05
4.02674e-07
6.35198e-05
3.81805e-07
6.34248e-05
3.62418e-07
6.33308e-05
3.4479e-07
6.32384e-05
3.28894e-07
6.3148e-05
3.14739e-07
6.30595e-05
3.02249e-07
6.2973e-05
2.91315e-07
6.28882e-05
2.81855e-07
6.2805e-05
2.73819e-07
6.2723e-05
2.67188e-07
6.26421e-05
2.61978e-07
6.25617e-05
2.58245e-07
6.24815e-05
2.56099e-07
6.24011e-05
2.55711e-07
6.23198e-05
2.57348e-07
6.22371e-05
2.61399e-07
6.2152e-05
2.68445e-07
6.20636e-05
2.7935e-07
6.19705e-05
2.9545e-07
6.18711e-05
3.18793e-07
6.17632e-05
3.52847e-07
6.16447e-05
4.0274e-07
6.15148e-05
4.79161e-07
6.1376e-05
5.92747e-07
6.12586e-05
7.80575e-07
6.12267e-05
1.0342e-06
1.47448e-06
6.13884e-05
6.5637e-05
1.72889e-07
6.56889e-05
3.49046e-07
6.57122e-05
4.03384e-07
6.57127e-05
4.30221e-07
6.56932e-05
4.41236e-07
6.5658e-05
4.37824e-07
6.56121e-05
4.27711e-07
6.5559e-05
4.15484e-07
6.55013e-05
4.02573e-07
6.54404e-05
3.89732e-07
6.53776e-05
3.77533e-07
6.53136e-05
3.66294e-07
6.52487e-05
3.56171e-07
6.51833e-05
3.47268e-07
6.51175e-05
3.39672e-07
6.50512e-05
3.33472e-07
6.49844e-05
3.28772e-07
6.49169e-05
3.25709e-07
6.48485e-05
3.24468e-07
6.4779e-05
3.25307e-07
6.47077e-05
3.28583e-07
6.46343e-05
3.34797e-07
6.45581e-05
3.44658e-07
6.44783e-05
3.59188e-07
6.43938e-05
3.79888e-07
6.43037e-05
4.08955e-07
6.42067e-05
4.49807e-07
6.41023e-05
5.07177e-07
6.39921e-05
5.8931e-07
6.38811e-05
7.03742e-07
6.37921e-05
8.69636e-07
6.37502e-05
1.07609e-06
1.36344e-06
6.38612e-05
6.74946e-05
1.35099e-07
6.75432e-05
3.00458e-07
6.75779e-05
3.68604e-07
6.76013e-05
4.06829e-07
6.76127e-05
4.29912e-07
6.76119e-05
4.38585e-07
6.76009e-05
4.38729e-07
6.75816e-05
4.34812e-07
6.75555e-05
4.28588e-07
6.75242e-05
4.21075e-07
6.74886e-05
4.1312e-07
6.74496e-05
4.05301e-07
6.74078e-05
3.97992e-07
6.73636e-05
3.91468e-07
6.73173e-05
3.85956e-07
6.72691e-05
3.81662e-07
6.72191e-05
3.78788e-07
6.71672e-05
3.77562e-07
6.71134e-05
3.78253e-07
6.70576e-05
3.81202e-07
6.69993e-05
3.86849e-07
6.69383e-05
3.95783e-07
6.68742e-05
4.08801e-07
6.68063e-05
4.27003e-07
6.67343e-05
4.51925e-07
6.66576e-05
4.85693e-07
6.6576e-05
5.31351e-07
6.64904e-05
5.92809e-07
6.64039e-05
6.75806e-07
6.63226e-05
7.84996e-07
6.62635e-05
9.28741e-07
6.62424e-05
1.09726e-06
1.29588e-06
6.63099e-05
6.94108e-05
1.08306e-07
6.9452e-05
2.59316e-07
6.94866e-05
3.33945e-07
6.95155e-05
3.77926e-07
6.95381e-05
4.0732e-07
6.95532e-05
4.2349e-07
6.95611e-05
4.30865e-07
6.95624e-05
4.33492e-07
6.95578e-05
4.33163e-07
6.9548e-05
4.30892e-07
6.95336e-05
4.27549e-07
6.95151e-05
4.23794e-07
6.9493e-05
4.20092e-07
6.94676e-05
4.16811e-07
6.94393e-05
4.14265e-07
6.94083e-05
4.12739e-07
6.93745e-05
4.12513e-07
6.93382e-05
4.13885e-07
6.92993e-05
4.17192e-07
6.92576e-05
4.22838e-07
6.92132e-05
4.31323e-07
6.91657e-05
4.43288e-07
6.91149e-05
4.59567e-07
6.90606e-05
4.81255e-07
6.90028e-05
5.09806e-07
6.89413e-05
5.47116e-07
6.8877e-05
5.9567e-07
6.88114e-05
6.5839e-07
6.87484e-05
7.38867e-07
6.8694e-05
8.39395e-07
6.86604e-05
9.62317e-07
6.86582e-05
1.09944e-06
1.24499e-06
6.87091e-05
7.13857e-05
8.89834e-08
7.14198e-05
2.25196e-07
7.14515e-05
3.02216e-07
7.148e-05
3.49467e-07
7.1505e-05
3.82259e-07
7.15256e-05
4.02938e-07
7.15414e-05
4.1501e-07
7.15528e-05
4.22116e-07
7.15599e-05
4.26092e-07
7.15628e-05
4.27936e-07
7.15619e-05
4.28475e-07
7.15573e-05
4.28366e-07
7.15493e-05
4.28094e-07
7.15381e-05
4.28055e-07
7.15238e-05
4.28594e-07
7.15065e-05
4.30036e-07
7.14863e-05
4.32701e-07
7.14632e-05
4.36925e-07
7.14373e-05
4.43084e-07
7.14086e-05
4.51617e-07
7.13768e-05
4.63051e-07
7.13421e-05
4.78037e-07
7.13043e-05
4.9739e-07
7.12634e-05
5.22133e-07
7.12196e-05
5.5355e-07
7.11736e-05
5.93209e-07
7.11262e-05
6.42979e-07
7.10798e-05
7.04826e-07
7.1038e-05
7.80683e-07
7.10062e-05
8.71165e-07
7.09929e-05
9.7561e-07
7.10051e-05
1.08728e-06
1.19829e-06
7.10518e-05
7.34195e-05
7.47506e-08
7.34477e-05
1.96996e-07
7.34761e-05
2.73781e-07
7.35027e-05
3.22938e-07
7.35272e-05
3.57753e-07
7.35488e-05
3.81343e-07
7.35672e-05
3.96617e-07
7.35825e-05
4.06814e-07
7.35947e-05
4.13819e-07
7.3604e-05
4.18662e-07
7.36103e-05
4.22148e-07
7.36138e-05
4.24927e-07
7.36144e-05
4.27489e-07
7.36122e-05
4.30234e-07
7.36073e-05
4.33517e-07
7.35996e-05
4.37673e-07
7.35893e-05
4.43036e-07
7.35763e-05
4.49957e-07
7.35605e-05
4.58823e-07
7.35421e-05
4.70077e-07
7.35209e-05
4.84242e-07
7.3497e-05
5.0194e-07
7.34705e-05
5.2392e-07
7.34415e-05
5.51082e-07
7.34106e-05
5.84485e-07
7.33784e-05
6.25333e-07
7.33465e-05
6.74908e-07
7.3317e-05
7.34358e-07
7.32932e-05
8.04443e-07
7.32797e-05
8.84709e-07
7.32821e-05
9.73207e-07
7.33049e-05
1.06446e-06
1.15139e-06
7.33518e-05
7.55132e-05
6.4014e-08
7.55366e-05
1.7364e-07
7.55619e-05
2.48451e-07
7.55863e-05
2.98507e-07
7.56095e-05
3.3459e-07
7.56306e-05
3.60202e-07
7.56494e-05
3.77852e-07
7.56658e-05
3.90371e-07
7.568e-05
3.99638e-07
7.56919e-05
4.06732e-07
7.57016e-05
4.12461e-07
7.57091e-05
4.17474e-07
7.57143e-05
4.22276e-07
7.57173e-05
4.27272e-07
7.5718e-05
4.32823e-07
7.57164e-05
4.39265e-07
7.57125e-05
4.46936e-07
7.57062e-05
4.56183e-07
7.56977e-05
4.67388e-07
7.56868e-05
4.80977e-07
7.56736e-05
4.9744e-07
7.56582e-05
5.17341e-07
7.56408e-05
5.41334e-07
7.56217e-05
5.70161e-07
7.56015e-05
6.04638e-07
7.55812e-05
6.45612e-07
7.55623e-05
6.93857e-07
7.55468e-05
7.49883e-07
7.55375e-05
8.13676e-07
7.55381e-05
8.84193e-07
7.55522e-05
9.59096e-07
7.55826e-05
1.03398e-06
1.10328e-06
7.56307e-05
7.76679e-05
5.57094e-08
7.76873e-05
1.5419e-07
7.77099e-05
2.25926e-07
7.77323e-05
2.76049e-07
7.7754e-05
3.12865e-07
7.77743e-05
3.39909e-07
7.77928e-05
3.5941e-07
7.78093e-05
3.73809e-07
7.78241e-05
3.8491e-07
7.7837e-05
3.93824e-07
7.78481e-05
4.01361e-07
7.78574e-05
4.08178e-07
7.78649e-05
4.1479e-07
7.78705e-05
4.21614e-07
7.78743e-05
4.29016e-07
7.78762e-05
4.37335e-07
7.78763e-05
4.46902e-07
7.78744e-05
4.5806e-07
7.78706e-05
4.71168e-07
7.7865e-05
4.86625e-07
7.78575e-05
5.0487e-07
7.78485e-05
5.26391e-07
7.78381e-05
5.51728e-07
7.78268e-05
5.81453e-07
7.78153e-05
6.16149e-07
7.78046e-05
6.5634e-07
7.7796e-05
7.02396e-07
7.77916e-05
7.54364e-07
7.77935e-05
8.11763e-07
7.78044e-05
8.73291e-07
7.78268e-05
9.36659e-07
7.78624e-05
9.98378e-07
1.05429e-06
7.79114e-05
7.98849e-05
4.91217e-08
7.99012e-05
1.37864e-07
7.99213e-05
2.05895e-07
7.99419e-05
2.55394e-07
7.99623e-05
2.92496e-07
7.99817e-05
3.20515e-07
7.99996e-05
3.41461e-07
8.0016e-05
3.57425e-07
8.00308e-05
3.70088e-07
8.00441e-05
3.80558e-07
8.00558e-05
3.89643e-07
8.0066e-05
3.97996e-07
8.00747e-05
4.06141e-07
8.00818e-05
4.14502e-07
8.00873e-05
4.23448e-07
8.00913e-05
4.33318e-07
8.00938e-05
4.44437e-07
8.00947e-05
4.57131e-07
8.00942e-05
4.71736e-07
8.00922e-05
4.8861e-07
8.00889e-05
5.08133e-07
8.00846e-05
5.30709e-07
8.00796e-05
5.56757e-07
8.00743e-05
5.86688e-07
8.00696e-05
6.20871e-07
8.00664e-05
6.59567e-07
8.0066e-05
7.02839e-07
8.00699e-05
7.50426e-07
8.00801e-05
8.01601e-07
8.00983e-05
8.55011e-07
8.01264e-05
9.08608e-07
8.01651e-05
9.59659e-07
1.00512e-06
8.02143e-05
8.21658e-05
4.37663e-08
8.21796e-05
1.24019e-07
8.21975e-05
1.88049e-07
8.22165e-05
2.36372e-07
8.22356e-05
2.7337e-07
8.22542e-05
3.01975e-07
8.22716e-05
3.24012e-07
8.22878e-05
3.41268e-07
8.23026e-05
3.55272e-07
8.23161e-05
3.67102e-07
8.23281e-05
3.7755e-07
8.23389e-05
3.87258e-07
8.23483e-05
3.96745e-07
8.23563e-05
4.06439e-07
8.23631e-05
4.16707e-07
8.23685e-05
4.27882e-07
8.23727e-05
4.40276e-07
8.23756e-05
4.54197e-07
8.23774e-05
4.69949e-07
8.23782e-05
4.87845e-07
8.23781e-05
5.08202e-07
8.23775e-05
5.31337e-07
8.23767e-05
5.57553e-07
8.23762e-05
5.87117e-07
8.23769e-05
6.20215e-07
8.23796e-05
6.56905e-07
8.23854e-05
6.97035e-07
8.23956e-05
7.40161e-07
8.24118e-05
7.85456e-07
8.24352e-05
8.31636e-07
8.24668e-05
8.76957e-07
8.25072e-05
9.19301e-07
9.56464e-07
8.25558e-05
8.45122e-05
3.93109e-08
8.45241e-05
1.12142e-07
8.45401e-05
1.7209e-07
8.45576e-05
2.18819e-07
8.45756e-05
2.55366e-07
8.45934e-05
2.84223e-07
8.46104e-05
3.07027e-07
8.46263e-05
3.25315e-07
8.46411e-05
3.40454e-07
8.46548e-05
3.53466e-07
8.46672e-05
3.65116e-07
8.46784e-05
3.76025e-07
8.46885e-05
3.867e-07
8.46974e-05
3.97563e-07
8.47051e-05
4.08973e-07
8.47117e-05
4.21252e-07
8.47173e-05
4.34694e-07
8.47219e-05
4.49581e-07
8.47257e-05
4.66184e-07
8.47288e-05
4.84767e-07
8.47314e-05
5.05581e-07
8.47339e-05
5.28862e-07
8.47366e-05
5.54808e-07
8.47402e-05
5.8356e-07
8.47452e-05
6.15162e-07
8.47526e-05
6.49521e-07
8.47633e-05
6.8635e-07
8.47783e-05
7.25112e-07
8.47988e-05
7.64973e-07
8.48257e-05
8.04781e-07
8.48595e-05
8.43095e-07
8.49005e-05
8.78286e-07
9.0876e-07
8.49482e-05
8.6926e-05
3.55241e-08
8.69363e-05
1.01822e-07
8.69506e-05
1.57741e-07
8.69669e-05
2.0257e-07
8.69839e-05
2.38367e-07
8.70009e-05
2.67178e-07
8.70175e-05
2.90456e-07
8.70333e-05
3.09525e-07
8.70481e-05
3.25593e-07
8.7062e-05
3.39609e-07
8.70748e-05
3.52301e-07
8.70866e-05
3.64262e-07
8.70973e-05
3.7598e-07
8.7107e-05
3.8786e-07
8.71157e-05
4.00249e-07
8.71235e-05
4.1345e-07
8.71305e-05
4.27738e-07
8.71367e-05
4.43364e-07
8.71423e-05
4.6056e-07
8.71475e-05
4.79542e-07
8.71526e-05
5.005e-07
8.71579e-05
5.23591e-07
8.71638e-05
5.48925e-07
8.71708e-05
5.76539e-07
8.71796e-05
6.06373e-07
8.71909e-05
6.38231e-07
8.72055e-05
6.7175e-07
8.72242e-05
7.06365e-07
8.72479e-05
7.4129e-07
8.72772e-05
7.75528e-07
8.73123e-05
8.07911e-07
8.73534e-05
8.37196e-07
8.62231e-07
8.74e-05
8.94088e-05
3.22413e-08
8.94179e-05
9.2733e-08
8.94309e-05
1.44745e-07
8.9446e-05
1.87461e-07
8.94621e-05
2.22251e-07
8.94786e-05
2.50755e-07
8.94948e-05
2.74239e-07
8.95104e-05
2.93848e-07
8.95254e-05
3.10639e-07
8.95395e-05
3.25478e-07
8.95528e-05
3.3905e-07
8.95651e-05
3.5191e-07
8.95766e-05
3.6452e-07
8.95872e-05
3.77266e-07
8.9597e-05
3.90474e-07
8.9606e-05
4.04426e-07
8.96144e-05
4.19369e-07
8.96222e-05
4.35525e-07
8.96297e-05
4.53085e-07
8.9637e-05
4.72217e-07
8.96444e-05
4.93054e-07
8.96523e-05
5.15686e-07
8.96611e-05
5.40149e-07
8.96713e-05
5.66402e-07
8.96833e-05
5.94309e-07
8.96979e-05
6.23613e-07
8.97158e-05
6.53918e-07
8.97375e-05
6.84674e-07
8.97636e-05
7.15172e-07
8.97945e-05
7.4457e-07
8.98305e-05
7.71938e-07
8.98714e-05
7.96328e-07
8.16912e-07
8.99167e-05
9.19628e-05
2.93425e-08
9.19709e-05
8.46156e-08
9.19827e-05
1.32873e-07
9.19969e-05
1.73333e-07
9.20122e-05
2.06899e-07
9.20281e-05
2.34861e-07
9.20441e-05
2.58309e-07
9.20597e-05
2.78227e-07
9.20748e-05
2.95537e-07
9.20892e-05
3.11018e-07
9.2103e-05
3.25301e-07
9.2116e-05
3.38902e-07
9.21283e-05
3.52251e-07
9.21398e-05
3.65708e-07
9.21507e-05
3.79575e-07
9.2161e-05
3.94107e-07
9.21709e-05
4.09525e-07
9.21804e-05
4.26016e-07
9.21897e-05
4.43733e-07
9.21992e-05
4.62798e-07
9.22089e-05
4.83295e-07
9.22193e-05
5.05257e-07
9.22308e-05
5.28661e-07
9.22438e-05
5.53408e-07
9.22588e-05
5.79316e-07
9.22763e-05
6.06098e-07
9.22969e-05
6.33355e-07
9.2321e-05
6.60574e-07
9.2349e-05
6.8714e-07
9.23812e-05
7.12353e-07
9.24177e-05
7.3548e-07
9.24582e-05
7.55802e-07
7.72727e-07
9.25024e-05
9.45898e-05
2.67381e-08
9.45971e-05
7.7261e-08
9.46081e-05
1.21918e-07
9.46214e-05
1.60028e-07
9.46361e-05
1.92187e-07
9.46515e-05
2.194e-07
9.46673e-05
2.42588e-07
9.46829e-05
2.62598e-07
9.46982e-05
2.80227e-07
9.47131e-05
2.96167e-07
9.47274e-05
3.10991e-07
9.47411e-05
3.25172e-07
9.47542e-05
3.39103e-07
9.47668e-05
3.53115e-07
9.47789e-05
3.6748e-07
9.47906e-05
3.82428e-07
9.4802e-05
3.98148e-07
9.48132e-05
4.14792e-07
9.48245e-05
4.32481e-07
9.4836e-05
4.51294e-07
9.4848e-05
4.7127e-07
9.48609e-05
4.92399e-07
9.48749e-05
5.14613e-07
9.48905e-05
5.37777e-07
9.49082e-05
5.61681e-07
9.49282e-05
5.86029e-07
9.49511e-05
6.10442e-07
9.49773e-05
6.34461e-07
9.50068e-05
6.57558e-07
9.504e-05
6.79165e-07
9.50768e-05
6.98706e-07
9.5117e-05
7.15642e-07
7.29549e-07
9.51601e-05
9.72919e-05
2.43588e-08
9.72987e-05
7.04998e-08
9.73089e-05
1.11698e-07
9.73215e-05
1.47396e-07
9.73357e-05
1.77993e-07
9.73508e-05
2.04268e-07
9.73664e-05
2.26993e-07
9.73821e-05
2.4689e-07
9.73977e-05
2.64643e-07
9.7413e-05
2.80862e-07
9.7428e-05
2.96058e-07
9.74425e-05
3.10655e-07
9.74566e-05
3.25011e-07
9.74703e-05
3.39421e-07
9.74836e-05
3.54128e-07
9.74967e-05
3.69331e-07
9.75097e-05
3.85189e-07
9.75226e-05
4.01824e-07
9.75358e-05
4.1932e-07
9.75494e-05
4.37723e-07
9.75636e-05
4.57036e-07
9.75788e-05
4.77213e-07
9.75953e-05
4.98156e-07
9.76133e-05
5.19709e-07
9.76334e-05
5.41649e-07
9.76557e-05
5.63692e-07
9.76806e-05
5.85488e-07
9.77085e-05
6.06634e-07
9.77393e-05
6.2669e-07
9.77733e-05
6.45197e-07
9.78103e-05
6.61709e-07
9.78501e-05
6.75822e-07
6.87236e-07
9.78924e-05
0.000100071
2.21498e-08
0.000100078
6.41917e-08
0.000100087
1.02049e-07
0.000100099
1.3529e-07
0.000100113
1.64192e-07
0.000100128
1.8936e-07
0.000100144
2.11433e-07
0.000100159
2.31023e-07
0.000100175
2.48715e-07
0.000100191
2.65036e-07
0.000100207
2.80435e-07
0.000100222
2.95288e-07
0.000100237
3.09912e-07
0.000100252
3.24566e-07
0.000100267
3.39463e-07
0.000100281
3.54769e-07
0.000100296
3.70615e-07
0.000100311
3.87093e-07
0.000100326
4.04255e-07
0.000100341
4.22119e-07
0.000100358
4.40658e-07
0.000100375
4.59802e-07
0.000100394
4.79435e-07
0.000100414
4.99388e-07
0.000100436
5.19443e-07
0.000100461
5.39332e-07
0.000100488
5.58743e-07
0.000100517
5.77332e-07
0.000100549
5.94734e-07
0.000100583
6.10583e-07
0.000100621
6.24537e-07
0.00010066
6.36295e-07
6.45648e-07
0.000100702
0.00010293
2.00661e-08
0.000102936
5.82188e-08
0.000102945
9.28242e-08
0.000102957
1.23569e-07
0.000102971
1.50658e-07
0.000102985
1.74564e-07
0.000103001
1.95811e-07
0.000103017
2.14914e-07
0.000103033
2.32366e-07
0.00010305
2.48617e-07
0.000103066
2.64054e-07
0.000103083
2.79007e-07
0.000103099
2.93747e-07
0.000103115
3.08497e-07
0.000103131
3.23438e-07
0.000103147
3.38707e-07
0.000103163
3.54404e-07
0.00010318
3.70594e-07
0.000103197
3.87304e-07
0.000103214
4.04526e-07
0.000103233
4.22213e-07
0.000103252
4.40277e-07
0.000103273
4.58592e-07
0.000103295
4.76988e-07
0.00010332
4.95259e-07
0.000103346
5.13159e-07
0.000103374
5.30418e-07
0.000103405
5.46744e-07
0.000103438
5.61839e-07
0.000103473
5.75415e-07
0.00010351
5.87213e-07
0.000103549
5.97008e-07
6.04661e-07
0.00010359
0.000105871
1.80698e-08
0.000105876
5.2479e-08
0.000105885
8.38911e-08
0.000105897
1.12098e-07
0.00010591
1.37265e-07
0.000105925
1.59765e-07
0.000105941
1.80024e-07
0.000105957
1.98469e-07
0.000105974
2.15512e-07
0.000105991
2.31528e-07
0.000106008
2.46848e-07
0.000106026
2.61747e-07
0.000106043
2.76457e-07
0.00010606
2.91164e-07
0.000106078
3.06014e-07
0.000106095
3.21116e-07
0.000106113
3.36543e-07
0.000106131
3.52335e-07
0.00010615
3.68496e-07
0.00010617
3.84999e-07
0.00010619
4.01781e-07
0.000106212
4.18745e-07
0.000106235
4.35762e-07
0.000106259
4.52668e-07
0.000106285
4.69271e-07
0.000106313
4.85354e-07
0.000106342
5.00684e-07
0.000106374
5.15019e-07
0.000106408
5.28119e-07
0.000106444
5.39759e-07
0.000106481
5.49742e-07
0.00010652
5.57907e-07
5.64161e-07
0.000106561
0.000108895
1.61279e-08
0.000108901
4.68816e-08
0.00010891
7.5126e-08
0.000108921
1.00746e-07
0.000108934
1.23886e-07
0.000108949
1.44844e-07
0.000108965
1.63963e-07
0.000108982
1.8159e-07
0.000109
1.98064e-07
0.000109018
2.13691e-07
0.000109036
2.28742e-07
0.000109054
2.43444e-07
0.000109072
2.57987e-07
0.000109091
2.72519e-07
0.00010911
2.87155e-07
0.000109129
3.01975e-07
0.000109149
3.17027e-07
0.000109169
3.32328e-07
0.000109189
3.47865e-07
0.000109211
3.63594e-07
0.000109233
3.79444e-07
0.000109256
3.95313e-07
0.000109281
4.11073e-07
0.000109307
4.2657e-07
0.000109335
4.41632e-07
0.000109364
4.5607e-07
0.000109395
4.69684e-07
0.000109428
4.82278e-07
0.000109462
4.9366e-07
0.000109498
5.03656e-07
0.000109536
5.1212e-07
0.000109575
5.18936e-07
5.24047e-07
0.000109615
0.000112006
1.42103e-08
0.000112012
4.13436e-08
0.000112021
6.64119e-08
0.000112032
8.9382e-08
0.000112046
1.10391e-07
0.000112061
1.29677e-07
0.000112077
1.47512e-07
0.000112095
1.64173e-07
0.000112113
1.79927e-07
0.000112131
1.95019e-07
0.00011215
2.09661e-07
0.00011217
2.24034e-07
0.00011219
2.38282e-07
0.00011221
2.5252e-07
0.00011223
2.66831e-07
0.000112251
2.81268e-07
0.000112272
2.95856e-07
0.000112293
3.10593e-07
0.000112316
3.2545e-07
0.000112339
3.40373e-07
0.000112363
3.55283e-07
0.000112389
3.7008e-07
0.000112415
3.84639e-07
0.000112443
3.98822e-07
0.000112472
4.12475e-07
0.000112503
4.25434e-07
0.000112535
4.37534e-07
0.000112568
4.48615e-07
0.000112603
4.58526e-07
0.00011264
4.67135e-07
0.000112678
4.74334e-07
0.000112717
4.80042e-07
4.84227e-07
0.000112756
0.000115206
1.22887e-08
0.000115212
3.57858e-08
0.000115221
5.76346e-08
0.000115232
7.78757e-08
0.000115246
9.66445e-08
0.000115262
1.14132e-07
0.000115278
1.30547e-07
0.000115297
1.46103e-07
0.000115315
1.61e-07
0.000115335
1.75422e-07
0.000115355
1.89527e-07
0.000115376
2.03447e-07
0.000115397
2.17287e-07
0.000115418
2.31125e-07
0.00011544
2.45015e-07
0.000115462
2.58983e-07
0.000115485
2.73035e-07
0.000115509
2.87152e-07
0.000115533
3.01292e-07
0.000115558
3.15394e-07
0.000115584
3.29375e-07
0.000115611
3.43138e-07
0.000115639
3.56567e-07
0.000115668
3.69536e-07
0.000115698
3.81911e-07
0.00011573
3.93553e-07
0.000115764
4.04327e-07
0.000115798
4.14102e-07
0.000115834
4.22763e-07
0.000115871
4.30209e-07
0.000115909
4.36363e-07
0.000115948
4.4117e-07
4.44617e-07
0.000115987
0.000118498
1.03353e-08
0.000118503
3.01295e-08
0.000118512
4.86789e-08
0.000118524
6.60916e-08
0.000118538
8.25053e-08
0.000118554
9.80698e-08
0.000118572
1.12938e-07
0.000118591
1.27259e-07
0.000118611
1.41173e-07
0.000118631
1.54803e-07
0.000118653
1.68255e-07
0.000118674
1.81614e-07
0.000118697
1.94945e-07
0.00011872
2.08292e-07
0.000118743
2.21679e-07
0.000118767
2.3511e-07
0.000118791
2.48571e-07
0.000118816
2.62029e-07
0.000118842
2.75432e-07
0.000118869
2.88713e-07
0.000118897
3.01791e-07
0.000118925
3.14571e-07
0.000118955
3.26946e-07
0.000118985
3.38806e-07
0.000119017
3.50034e-07
0.00011905
3.60514e-07
0.000119085
3.70135e-07
0.00011912
3.78794e-07
0.000119156
3.86401e-07
0.000119194
3.92882e-07
0.000119232
3.98183e-07
0.000119271
4.02269e-07
4.05141e-07
0.00011931
0.000121883
8.32117e-09
0.000121889
2.4293e-08
0.000121898
3.94233e-08
0.000121911
5.38857e-08
0.000121925
6.78206e-08
0.000121942
8.13394e-08
0.00012196
9.45391e-08
0.00012198
1.07508e-07
0.000122001
1.20326e-07
0.000122023
1.33058e-07
0.000122045
1.45757e-07
0.000122068
1.58462e-07
0.000122092
1.71198e-07
0.000122116
1.83978e-07
0.000122141
1.96797e-07
0.000122167
2.09638e-07
0.000122193
2.22469e-07
0.00012222
2.35245e-07
0.000122247
2.47906e-07
0.000122276
2.60383e-07
0.000122305
2.72594e-07
0.000122335
2.84451e-07
0.000122366
2.95857e-07
0.000122398
3.06714e-07
0.000122431
3.16922e-07
0.000122465
3.26385e-07
0.0001225
3.35014e-07
0.000122537
3.42726e-07
0.000122573
3.49455e-07
0.000122611
3.55147e-07
0.00012265
3.59764e-07
0.000122689
3.63287e-07
3.65725e-07
0.000122728
0.000125366
6.21482e-09
0.000125372
1.81864e-08
0.000125381
2.97345e-08
0.000125394
4.10987e-08
0.00012541
5.24217e-08
0.000125427
6.37733e-08
0.000125446
7.51921e-08
0.000125467
8.67052e-08
0.000125489
9.83296e-08
0.000125512
1.10073e-07
0.000125536
1.21935e-07
0.000125561
1.3391e-07
0.000125586
1.45985e-07
0.000125612
1.58138e-07
0.000125638
1.70341e-07
0.000125665
1.82555e-07
0.000125693
1.94733e-07
0.000125721
2.06819e-07
0.000125751
2.18748e-07
0.00012578
2.30448e-07
0.000125811
2.4184e-07
0.000125843
2.52841e-07
0.000125875
2.63364e-07
0.000125909
2.73324e-07
0.000125943
2.82635e-07
0.000125978
2.91219e-07
0.000126014
2.99003e-07
0.000126051
3.05925e-07
0.000126088
3.11933e-07
0.000126127
3.1699e-07
0.000126165
3.21072e-07
0.000126204
3.2417e-07
3.26299e-07
0.000126244
0.000128947
3.97975e-09
0.000128954
1.17059e-08
0.000128964
1.94582e-08
0.000128978
2.75483e-08
0.000128994
3.61166e-08
0.000129013
4.51824e-08
0.000129033
5.47188e-08
0.000129055
6.46868e-08
0.000129078
7.50394e-08
0.000129103
8.57237e-08
0.000129128
9.66861e-08
0.000129154
1.07874e-07
0.000129181
1.19238e-07
0.000129208
1.30724e-07
0.000129236
1.42279e-07
0.000129265
1.53846e-07
0.000129294
1.65364e-07
0.000129324
1.76766e-07
0.000129355
1.87985e-07
0.000129387
1.98946e-07
0.000129419
2.09574e-07
0.000129452
2.19791e-07
0.000129486
2.29521e-07
0.00012952
2.38687e-07
0.000129556
2.4722e-07
0.000129592
2.55053e-07
0.000129629
2.62129e-07
0.000129666
2.684e-07
0.000129704
2.73829e-07
0.000129743
2.78389e-07
0.000129782
2.82069e-07
0.000129821
2.84864e-07
2.86795e-07
0.000129861
0.000132631
1.57139e-09
0.000132638
4.72439e-09
0.00013265
8.40799e-09
0.000132664
1.30171e-08
0.000132681
1.86803e-08
0.000132701
2.53482e-08
0.000132723
3.29154e-08
0.000132747
4.12694e-08
0.000132771
5.02941e-08
0.000132797
5.9872e-08
0.000132824
6.98936e-08
0.000132852
8.02604e-08
0.00013288
9.08837e-08
0.000132909
1.01681e-07
0.000132939
1.12576e-07
0.000132969
1.23492e-07
0.000133
1.34356e-07
0.000133032
1.45096e-07
0.000133064
1.55637e-07
0.000133097
1.65906e-07
0.000133131
1.75832e-07
0.000133165
1.85341e-07
0.0001332
1.94367e-07
0.000133236
2.02842e-07
0.000133273
2.10707e-07
0.00013331
2.1791e-07
0.000133348
2.24404e-07
0.000133386
2.30152e-07
0.000133425
2.35129e-07
0.000133464
2.39317e-07
0.000133503
2.4271e-07
0.000133543
2.45312e-07
2.47142e-07
0.000133582
0.000136421
-1.06793e-09
0.000136429
-2.92212e-09
0.000136441
-3.65286e-09
0.000136456
-2.76362e-09
0.000136475
-1.58426e-10
0.000136497
4.01251e-09
0.00013652
9.54487e-09
0.000136545
1.62426e-08
0.000136571
2.39117e-08
0.000136599
3.23642e-08
0.000136627
4.14307e-08
0.000136657
5.09657e-08
0.000136687
6.08429e-08
0.000136717
7.09509e-08
0.000136749
8.11895e-08
0.000136781
9.14675e-08
0.000136813
1.017e-07
0.000136847
1.11808e-07
0.000136881
1.21715e-07
0.000136915
1.31348e-07
0.00013695
1.40638e-07
0.000136986
1.49518e-07
0.000137023
1.57928e-07
0.00013706
1.6581e-07
0.000137097
1.73116e-07
0.000137135
1.798e-07
0.000137174
1.85827e-07
0.000137213
1.9117e-07
0.000137252
1.95809e-07
0.000137292
1.99736e-07
0.000137332
2.02949e-07
0.000137372
2.05455e-07
2.07276e-07
0.000137411
0.000140319
-4.01704e-09
0.000140327
-1.14573e-08
0.000140341
-1.70391e-08
0.000140358
-2.01378e-08
0.000140379
-2.07341e-08
0.000140402
-1.9135e-08
0.000140427
-1.56722e-08
0.000140454
-1.06383e-08
0.000140482
-4.31617e-09
0.000140511
3.02557e-09
0.000140542
1.11541e-08
0.000140573
1.98755e-08
0.000140605
2.90263e-08
0.000140637
3.84662e-08
0.00014067
4.80739e-08
0.000140704
5.77436e-08
0.000140738
6.7381e-08
0.000140773
7.69009e-08
0.000140809
8.62255e-08
0.000140845
9.52829e-08
0.000140881
1.04007e-07
0.000140918
1.12338e-07
0.000140956
1.2022e-07
0.000140994
1.27605e-07
0.000141033
1.34449e-07
0.000141072
1.40719e-07
0.000141112
1.46386e-07
0.000141151
1.51429e-07
0.000141191
1.55835e-07
0.000141231
1.59601e-07
0.000141272
1.62727e-07
0.000141312
1.65223e-07
1.6711e-07
0.000141352
0.000144328
-7.39022e-09
0.000144338
-2.1203e-08
0.000144353
-3.21868e-08
0.000144372
-3.95582e-08
0.000144395
-4.34701e-08
0.00014442
-4.44762e-08
0.000144448
-4.30685e-08
0.000144477
-3.96529e-08
0.000144507
-3.46209e-08
0.000144538
-2.8334e-08
0.000144571
-2.10921e-08
0.000144604
-1.3137e-08
0.000144637
-4.66839e-09
0.000144672
4.14606e-09
0.000144707
1.31659e-08
0.000144742
2.22723e-08
0.000144778
3.13632e-08
0.000144815
4.03493e-08
0.000144852
4.91519e-08
0.000144889
5.77009e-08
0.000144927
6.59337e-08
0.000144966
7.37948e-08
0.000145005
8.12355e-08
0.000145044
8.82133e-08
0.000145084
9.46929e-08
0.000145124
1.00646e-07
0.000145164
1.06049e-07
0.000145205
1.1089e-07
0.000145246
1.15158e-07
0.000145286
1.18854e-07
0.000145327
1.21981e-07
0.000145368
1.24551e-07
1.26585e-07
0.000145408
0.000148452
-1.13631e-08
0.000148463
-3.26523e-08
0.000148481
-4.97234e-08
0.000148503
-6.16257e-08
0.000148528
-6.89042e-08
0.000148556
-7.24942e-08
0.000148586
-7.30659e-08
0.000148618
-7.11529e-08
0.000148651
-6.72859e-08
0.000148684
-6.19376e-08
0.000148719
-5.54795e-08
0.000148754
-4.82009e-08
0.000148789
-4.03366e-08
0.000148826
-3.20791e-08
0.000148862
-2.35852e-08
0.0001489
-1.49832e-08
0.000148937
-6.38049e-09
0.000148976
2.13175e-09
0.000149014
1.04754e-08
0.000149053
1.85832e-08
0.000149093
2.63965e-08
0.000149133
3.38651e-08
0.000149173
4.09457e-08
0.000149214
4.7602e-08
0.000149255
5.38043e-08
0.000149296
5.95295e-08
0.000149337
6.47606e-08
0.000149378
6.94868e-08
0.00014942
7.37031e-08
0.000149461
7.74101e-08
0.000149503
8.06131e-08
0.000149544
8.33212e-08
8.55535e-08
0.000149585
0.000152694
-1.62176e-08
0.000152708
-4.66044e-08
0.000152729
-7.0609e-08
0.000152754
-8.71671e-08
0.000152783
-9.76991e-08
0.000152814
-1.03731e-07
0.000152847
-1.0611e-07
0.000152882
-1.05512e-07
0.000152917
-1.02638e-07
0.000152953
-9.80792e-08
0.00015299
-9.22732e-08
0.000153027
-8.5554e-08
0.000153065
-7.81902e-08
0.000153104
-7.03969e-08
0.000153142
-6.2344e-08
0.000153182
-5.41669e-08
0.000153221
-4.59758e-08
0.000153261
-3.7862e-08
0.000153302
-2.9901e-08
0.000153342
-2.21566e-08
0.000153383
-1.46822e-08
0.000153425
-7.52292e-09
0.000153466
-7.16382e-10
0.000153508
5.70663e-09
0.00015355
1.17217e-08
0.000153593
1.73102e-08
0.000153635
2.24595e-08
0.000153677
2.7162e-08
0.000153719
3.14156e-08
0.000153762
3.52228e-08
0.000153804
3.85911e-08
0.000153845
4.15323e-08
4.40641e-08
0.000153887
0.000157058
-2.24738e-08
0.000157075
-6.43622e-08
0.000157101
-9.62684e-08
0.000157131
-1.17436e-07
0.000157165
-1.30978e-07
0.0001572
-1.39124e-07
0.000157237
-1.42885e-07
0.000157275
-1.43194e-07
0.000157313
-1.40992e-07
0.000157352
-1.36985e-07
0.000157391
-1.31652e-07
0.000157431
-1.25357e-07
0.000157471
-1.1839e-07
0.000157512
-1.10978e-07
0.000157553
-1.03292e-07
0.000157594
-9.5468e-08
0.000157636
-8.76153e-08
0.000157678
-7.98213e-08
0.00015772
-7.21579e-08
0.000157762
-6.46839e-08
0.000157805
-5.74482e-08
0.000157848
-5.0491e-08
0.000157891
-4.38454e-08
0.000157934
-3.75377e-08
0.000157978
-3.15887e-08
0.000158021
-2.60136e-08
0.000158064
-2.08229e-08
0.000158108
-1.60225e-08
0.000158151
-1.16144e-08
0.000158193
-7.59702e-09
0.000158236
-3.96631e-09
0.000158278
-7.16923e-10
2.16481e-09
0.00015832
0.000161547
-3.13541e-08
0.000161572
-8.85791e-08
0.000161604
-1.28396e-07
0.00016164
-1.53387e-07
0.000161678
-1.698e-07
0.000161719
-1.79978e-07
0.000161761
-1.8484e-07
0.000161804
-1.85709e-07
0.000161847
-1.83842e-07
0.00016189
-1.80055e-07
0.000161933
-1.74874e-07
0.000161976
-1.68696e-07
0.00016202
-1.61834e-07
0.000162063
-1.54521e-07
0.000162107
-1.4693e-07
0.000162151
-1.39193e-07
0.000162194
-1.31414e-07
0.000162238
-1.23678e-07
0.000162282
-1.1605e-07
0.000162326
-1.08585e-07
0.00016237
-1.01328e-07
0.000162414
-9.43152e-08
0.000162457
-8.75754e-08
0.000162501
-8.11324e-08
0.000162544
-7.50043e-08
0.000162588
-6.92044e-08
0.000162631
-6.37415e-08
0.000162673
-5.86201e-08
0.000162715
-5.38408e-08
0.000162757
-4.94003e-08
0.000162799
-4.52912e-08
0.000162839
-4.15013e-08
-3.802e-08
0.00016288
0.000166166
-4.41089e-08
0.000166205
-1.26814e-07
0.000166249
-1.73079e-07
0.000166295
-1.99471e-07
0.000166343
-2.17468e-07
0.000166392
-2.28652e-07
0.000166441
-2.33786e-07
0.00016649
-2.34627e-07
0.000166538
-2.32591e-07
0.000166587
-2.28474e-07
0.000166635
-2.22804e-07
0.000166682
-2.1602e-07
0.000166729
-2.08471e-07
0.000166775
-2.00415e-07
0.00016682
-1.92047e-07
0.000166864
-1.83517e-07
0.000166907
-1.74944e-07
0.00016695
-1.66421e-07
0.000166992
-1.58021e-07
0.000167033
-1.49802e-07
0.000167074
-1.41809e-07
0.000167114
-1.34078e-07
0.000167153
-1.26636e-07
0.000167191
-1.19504e-07
0.000167229
-1.12697e-07
0.000167266
-1.06226e-07
0.000167302
-1.00095e-07
0.000167338
-9.43076e-08
0.000167373
-8.88631e-08
0.000167407
-8.37599e-08
0.000167441