/*--------------------------------*- C++ -*----------------------------------*\
| =========                 |                                                 |
| \\      /  F ield         | OpenFOAM: The Open Source CFD Toolbox           |
|  \\    /   O peration     | Version:  4.1                                   |
|   \\  /    A nd           | Web:      www.OpenFOAM.org                      |
|    \\/     M anipulation  |                                                 |
\*---------------------------------------------------------------------------*/
FoamFile
{
    version     2.0;
    format      ascii;
    class       volVectorField;
    location    "1100";
    object      U;
}
// * * * * * * * * * * * * * * * * * * * * * * * * * * * * * * * * * * * * * //

dimensions      [0 1 -1 0 0 0 0];

internalField   nonuniform List<vector> 
6820
(
(7.30076 0.0105784 0)
(7.26066 0.0145399 0)
(7.22719 0.0116116 0)
(7.19817 0.00889169 0)
(7.17426 0.00729661 0)
(7.15367 0.00634264 0)
(7.13496 0.00573831 0)
(7.11768 0.00533691 0)
(7.10162 0.00504561 0)
(7.08659 0.00481602 0)
(7.07241 0.00462883 0)
(7.05895 0.00447609 0)
(7.04611 0.00435319 0)
(7.0338 0.00425716 0)
(7.02194 0.00418633 0)
(7.01043 0.00414011 0)
(6.99922 0.00411897 0)
(6.98822 0.00412445 0)
(6.97736 0.00415947 0)
(6.96656 0.00422869 0)
(6.95572 0.00433916 0)
(6.94473 0.00450152 0)
(6.93347 0.00473198 0)
(6.92174 0.00505609 0)
(6.9093 0.00551566 0)
(6.8958 0.006184 0)
(6.88069 0.00719712 0)
(6.86285 0.0088288 0)
(6.84111 0.0117041 0)
(6.8091 0.0171937 0)
(6.77017 0.0286547 0)
(6.65297 0.0702426 0)
(6.63991 -0.0294899 0)
(7.3396 0.0129479 0)
(7.34154 0.0168192 0)
(7.32732 0.0138363 0)
(7.30715 0.0119872 0)
(7.28756 0.0109486 0)
(7.26941 0.0100962 0)
(7.25237 0.00941825 0)
(7.23638 0.00890342 0)
(7.22139 0.00849438 0)
(7.20725 0.00815832 0)
(7.19384 0.00788284 0)
(7.18104 0.00765994 0)
(7.1688 0.00748317 0)
(7.15703 0.00734844 0)
(7.14567 0.00725378 0)
(7.13465 0.00719896 0)
(7.12392 0.00718534 0)
(7.11342 0.00721613 0)
(7.10309 0.00729676 0)
(7.09285 0.00743553 0)
(7.08265 0.00764478 0)
(7.0724 0.00794278 0)
(7.062 0.00835707 0)
(7.05135 0.00893018 0)
(7.0403 0.00973118 0)
(7.02865 0.0108754 0)
(7.01619 0.0125801 0)
(7.00248 0.0152251 0)
(6.9876 0.0197878 0)
(6.96985 0.0276019 0)
(6.955 0.0454579 0)
(6.93765 0.0768877 0)
(6.97928 0.170811 0)
(7.33613 0.0108741 0)
(7.34462 0.0173198 0)
(7.34579 0.0178695 0)
(7.34012 0.0178779 0)
(7.33147 0.0174234 0)
(7.3215 0.0166038 0)
(7.31078 0.0157926 0)
(7.29981 0.0151128 0)
(7.2889 0.014545 0)
(7.27817 0.0140679 0)
(7.26765 0.0136717 0)
(7.25736 0.0133481 0)
(7.2473 0.0130905 0)
(7.23746 0.012895 0)
(7.2278 0.0127605 0)
(7.21831 0.0126882 0)
(7.20895 0.0126813 0)
(7.19968 0.0127457 0)
(7.19046 0.0128906 0)
(7.18124 0.0131294 0)
(7.17196 0.0134815 0)
(7.16255 0.0139752 0)
(7.15292 0.0146515 0)
(7.14298 0.0155721 0)
(7.13258 0.016833 0)
(7.12156 0.0185851 0)
(7.10971 0.0210932 0)
(7.09672 0.0247702 0)
(7.0826 0.0305465 0)
(7.06671 0.039487 0)
(7.0521 0.0556557 0)
(7.03857 0.0799685 0)
(7.05091 0.126588 0)
(7.33465 0.00788228 0)
(7.34191 0.0151072 0)
(7.34712 0.0174404 0)
(7.34828 0.0186841 0)
(7.34686 0.0192149 0)
(7.3437 0.0191484 0)
(7.33911 0.0188423 0)
(7.33348 0.0184842 0)
(7.32722 0.0181218 0)
(7.32055 0.0177791 0)
(7.31362 0.0174758 0)
(7.30651 0.0172217 0)
(7.2993 0.0170219 0)
(7.29201 0.0168803 0)
(7.28467 0.0168019 0)
(7.27728 0.0167923 0)
(7.26985 0.0168595 0)
(7.26235 0.0170138 0)
(7.25476 0.0172693 0)
(7.24706 0.0176455 0)
(7.23919 0.018169 0)
(7.23112 0.0188772 0)
(7.22278 0.0198234 0)
(7.21408 0.021085 0)
(7.20493 0.0227779 0)
(7.1952 0.0250766 0)
(7.18478 0.0282644 0)
(7.17353 0.0327563 0)
(7.16155 0.0393331 0)
(7.14889 0.0488136 0)
(7.13748 0.0634281 0)
(7.12828 0.0825292 0)
(7.13118 0.111071 0)
(7.334 0.00602353 0)
(7.33938 0.0130425 0)
(7.3447 0.0160231 0)
(7.34792 0.017845 0)
(7.34963 0.0190477 0)
(7.35018 0.0196453 0)
(7.34954 0.0198899 0)
(7.34784 0.0199697 0)
(7.34533 0.0199573 0)
(7.34218 0.0198956 0)
(7.33852 0.0198211 0)
(7.33445 0.019759 0)
(7.33004 0.0197256 0)
(7.32535 0.0197342 0)
(7.32043 0.0197969 0)
(7.31529 0.0199258 0)
(7.30996 0.0201342 0)
(7.30442 0.020438 0)
(7.29868 0.0208567 0)
(7.29273 0.0214158 0)
(7.28653 0.0221487 0)
(7.28006 0.0231008 0)
(7.27327 0.0243345 0)
(7.26612 0.0259376 0)
(7.25853 0.0280359 0)
(7.25046 0.0308104 0)
(7.24187 0.0345319 0)
(7.23276 0.0395725 0)
(7.22335 0.0465234 0)
(7.214 0.0559557 0)
(7.20607 0.0689856 0)
(7.20085 0.0849584 0)
(7.20248 0.105302 0)
(7.33365 0.00477995 0)
(7.33758 0.0112541 0)
(7.34215 0.0145218 0)
(7.34564 0.0166274 0)
(7.34826 0.0181724 0)
(7.35025 0.0191682 0)
(7.35148 0.0197976 0)
(7.35195 0.0202308 0)
(7.35176 0.0205402 0)
(7.35098 0.0207675 0)
(7.34969 0.020951 0)
(7.34794 0.0211207 0)
(7.34578 0.0212988 0)
(7.34327 0.0215039 0)
(7.34043 0.0217532 0)
(7.33729 0.0220638 0)
(7.33386 0.0224536 0)
(7.33016 0.0229431 0)
(7.32619 0.0235568 0)
(7.32193 0.024325 0)
(7.31739 0.0252865 0)
(7.31254 0.0264923 0)
(7.30735 0.02801 0)
(7.30181 0.0299316 0)
(7.29589 0.0323831 0)
(7.28959 0.0355361 0)
(7.28293 0.0396284 0)
(7.27602 0.0449627 0)
(7.26914 0.0519505 0)
(7.26274 0.0609431 0)
(7.25782 0.0724135 0)
(7.25549 0.0857948 0)
(7.2576 0.100958 0)
(7.33343 0.00388668 0)
(7.33634 0.00974896 0)
(7.34013 0.0131373 0)
(7.34337 0.0153877 0)
(7.34606 0.017093 0)
(7.34839 0.0183077 0)
(7.35029 0.0191729 0)
(7.35169 0.0198399 0)
(7.35263 0.0203805 0)
(7.35314 0.0208335 0)
(7.35324 0.0212344 0)
(7.35295 0.0216126 0)
(7.3523 0.0219916 0)
(7.35131 0.0223915 0)
(7.35 0.0228317 0)
(7.34837 0.0233317 0)
(7.34644 0.0239126 0)
(7.34422 0.0245977 0)
(7.34171 0.0254146 0)
(7.33891 0.026397 0)
(7.3358 0.0275869 0)
(7.33239 0.0290376 0)
(7.32866 0.0308184 0)
(7.32462 0.0330194 0)
(7.32027 0.0357583 0)
(7.31565 0.0391871 0)
(7.31082 0.0434998 0)
(7.30595 0.0489235 0)
(7.30133 0.0557201 0)
(7.29739 0.0640701 0)
(7.29487 0.0740947 0)
(7.29457 0.0852995 0)
(7.29736 0.0971158 0)
(7.3333 0.00323152 0)
(7.33547 0.00850265 0)
(7.33859 0.0118946 0)
(7.3415 0.0142186 0)
(7.34402 0.0160055 0)
(7.34631 0.0173484 0)
(7.34832 0.0183606 0)
(7.35001 0.0191757 0)
(7.35138 0.0198679 0)
(7.35246 0.0204768 0)
(7.35324 0.0210362 0)
(7.35373 0.0215748 0)
(7.35393 0.0221158 0)
(7.35385 0.0226797 0)
(7.3535 0.0232865 0)
(7.35287 0.0239568 0)
(7.35197 0.0247126 0)
(7.35081 0.025579 0)
(7.34937 0.0265849 0)
(7.34766 0.0277655 0)
(7.34569 0.0291636 0)
(7.34343 0.0308323 0)
(7.34092 0.0328384 0)
(7.33814 0.0352655 0)
(7.33514 0.0382174 0)
(7.33197 0.0418204 0)
(7.32874 0.0462229 0)
(7.32561 0.0515813 0)
(7.32287 0.0580442 0)
(7.32088 0.0656735 0)
(7.32018 0.0744163 0)
(7.32131 0.0838528 0)
(7.32467 0.0933968 0)
(7.33321 0.00274259 0)
(7.33487 0.00747173 0)
(7.33744 0.0107861 0)
(7.34001 0.0131397 0)
(7.34231 0.0149709 0)
(7.34445 0.0163955 0)
(7.3464 0.0175076 0)
(7.34812 0.0184236 0)
(7.3496 0.0192187 0)
(7.35087 0.0199352 0)
(7.35192 0.0206066 0)
(7.35276 0.0212618 0)
(7.35337 0.0219245 0)
(7.35377 0.0226157 0)
(7.35395 0.0233556 0)
(7.35391 0.0241652 0)
(7.35364 0.0250672 0)
(7.35315 0.026087 0)
(7.35243 0.0272539 0)
(7.35149 0.0286027 0)
(7.35032 0.0301752 0)
(7.34893 0.032022 0)
(7.34733 0.0342043 0)
(7.34555 0.0367958 0)
(7.34364 0.0398835 0)
(7.34165 0.0435663 0)
(7.33971 0.0479497 0)
(7.33798 0.0531313 0)
(7.33671 0.0591792 0)
(7.3362 0.0660805 0)
(7.33681 0.0737079 0)
(7.3389 0.0817122 0)
(7.34265 0.0896037 0)
(7.33315 0.00236899 0)
(7.33444 0.00661487 0)
(7.33657 0.00979983 0)
(7.33882 0.0121482 0)
(7.34092 0.0139998 0)
(7.3429 0.0154776 0)
(7.34474 0.0166628 0)
(7.3464 0.017655 0)
(7.34787 0.0185272 0)
(7.34918 0.0193238 0)
(7.35031 0.0200788 0)
(7.35127 0.0208215 0)
(7.35207 0.0215763 0)
(7.35269 0.0223651 0)
(7.35314 0.0232087 0)
(7.35341 0.0241283 0)
(7.3535 0.0251467 0)
(7.35342 0.0262894 0)
(7.35315 0.027585 0)
(7.35271 0.0290671 0)
(7.35209 0.0307749 0)
(7.35131 0.0327547 0)
(7.35038 0.0350604 0)
(7.34935 0.0377539 0)
(7.34826 0.0409043 0)
(7.34719 0.0445842 0)
(7.34624 0.0488628 0)
(7.34558 0.0537916 0)
(7.3454 0.0593852 0)
(7.34594 0.0655884 0)
(7.34745 0.0722514 0)
(7.35015 0.0790887 0)
(7.35411 0.0857207 0)
(7.33312 0.00207616 0)
(7.33413 0.00589774 0)
(7.3359 0.00892298 0)
(7.33788 0.0112371 0)
(7.33979 0.0130898 0)
(7.34161 0.0145999 0)
(7.34333 0.0158394 0)
(7.34492 0.0168923 0)
(7.34635 0.017827 0)
(7.34764 0.0186884 0)
(7.34879 0.0195107 0)
(7.34979 0.0203235 0)
(7.35066 0.021152 0)
(7.35138 0.0220184 0)
(7.35196 0.0229442 0)
(7.35241 0.0239508 0)
(7.3527 0.025061 0)
(7.35286 0.0262996 0)
(7.35288 0.0276942 0)
(7.35276 0.0292763 0)
(7.35251 0.0310816 0)
(7.35216 0.0331509 0)
(7.35173 0.0355298 0)
(7.35124 0.038268 0)
(7.35077 0.0414175 0)
(7.35038 0.0450275 0)
(7.35018 0.049138 0)
(7.35031 0.0537669 0)
(7.35091 0.0588957 0)
(7.35217 0.064449 0)
(7.35425 0.0702798 0)
(7.35729 0.0761581 0)
(7.36131 0.0817984 0)
(7.33309 0.00184085 0)
(7.33391 0.00529216 0)
(7.33539 0.00814257 0)
(7.33713 0.0103988 0)
(7.33886 0.0122361 0)
(7.34055 0.0137615 0)
(7.34216 0.0150392 0)
(7.34367 0.0161402 0)
(7.34505 0.0171267 0)
(7.34631 0.0180427 0)
(7.34745 0.0189222 0)
(7.34847 0.0197943 0)
(7.34937 0.0206844 0)
(7.35015 0.0216153 0)
(7.35081 0.0226084 0)
(7.35135 0.0236852 0)
(7.35178 0.0248681 0)
(7.3521 0.0261808 0)
(7.35231 0.0276494 0)
(7.35242 0.0293026 0)
(7.35245 0.031172 0)
(7.35241 0.0332925 0)
(7.35234 0.0357009 0)
(7.35227 0.0384355 0)
(7.35227 0.0415326 0)
(7.35239 0.0450223 0)
(7.35275 0.048922 0)
(7.35343 0.053227 0)
(7.35457 0.0579 0)
(7.3563 0.0628593 0)
(7.35873 0.0679722 0)
(7.36193 0.0730552 0)
(7.3659 0.0778959 0)
(7.33307 0.00164722 0)
(7.33374 0.00477523 0)
(7.33499 0.00744597 0)
(7.33652 0.00962618 0)
(7.3381 0.0114337 0)
(7.33966 0.0129594 0)
(7.34117 0.0142611 0)
(7.34261 0.0153985 0)
(7.34395 0.0164271 0)
(7.34518 0.017389 0)
(7.34631 0.0183173 0)
(7.34734 0.0192403 0)
(7.34827 0.0201833 0)
(7.34909 0.0211687 0)
(7.34981 0.0222179 0)
(7.35043 0.0233519 0)
(7.35096 0.0245922 0)
(7.3514 0.0259612 0)
(7.35176 0.0274828 0)
(7.35206 0.0291827 0)
(7.3523 0.0310881 0)
(7.35251 0.0332274 0)
(7.35273 0.0356296 0)
(7.35299 0.0383219 0)
(7.35335 0.0413278 0)
(7.35387 0.044662 0)
(7.35463 0.0483259 0)
(7.35572 0.0523004 0)
(7.35724 0.0565391 0)
(7.35927 0.0609624 0)
(7.36189 0.0654556 0)
(7.36513 0.0698735 0)
(7.36898 0.0740581 0)
(7.33306 0.00148432 0)
(7.33362 0.0043286 0)
(7.33469 0.00682126 0)
(7.33604 0.00891226 0)
(7.33747 0.0106773 0)
(7.33892 0.0121905 0)
(7.34034 0.013503 0)
(7.34172 0.0146654 0)
(7.34301 0.0157266 0)
(7.34423 0.0167259 0)
(7.34535 0.017695 0)
(7.34639 0.0186612 0)
(7.34734 0.0196488 0)
(7.3482 0.02068 0)
(7.34898 0.0217755 0)
(7.34967 0.0229553 0)
(7.35029 0.0242397 0)
(7.35085 0.0256496 0)
(7.35135 0.0272063 0)
(7.3518 0.028932 0)
(7.35223 0.0308493 0)
(7.35266 0.0329809 0)
(7.35312 0.035348 0)
(7.35365 0.0379687 0)
(7.35431 0.0408557 0)
(7.35514 0.0440123 0)
(7.35621 0.047429 0)
(7.3576 0.0510785 0)
(7.35937 0.0549118 0)
(7.36159 0.0588557 0)
(7.36429 0.0628136 0)
(7.36751 0.0666711 0)
(7.3712 0.0703105 0)
(7.33305 0.00134445 0)
(7.33353 0.00393764 0)
(7.33445 0.00625742 0)
(7.33565 0.00825004 0)
(7.33696 0.00996174 0)
(7.33831 0.011451 0)
(7.33965 0.0127624 0)
(7.34097 0.0139388 0)
(7.34223 0.0150229 0)
(7.34342 0.0160509 0)
(7.34455 0.0170526 0)
(7.3456 0.0180539 0)
(7.34657 0.0190781 0)
(7.34748 0.0201464 0)
(7.34831 0.0212784 0)
(7.34908 0.0224933 0)
(7.34979 0.0238096 0)
(7.35046 0.0252462 0)
(7.35108 0.0268217 0)
(7.35168 0.0285549 0)
(7.35228 0.030464 0)
(7.35291 0.0325659 0)
(7.35358 0.0348752 0)
(7.35435 0.0374025 0)
(7.35525 0.0401519 0)
(7.35633 0.0431188 0)
(7.35764 0.0462868 0)
(7.35925 0.0496247 0)
(7.36119 0.0530849 0)
(7.36352 0.0566023 0)
(7.36626 0.0600972 0)
(7.36942 0.0634796 0)
(7.37295 0.0666613 0)
(7.33304 0.00122205 0)
(7.33345 0.0035907 0)
(7.33426 0.00574445 0)
(7.33534 0.00763263 0)
(7.33654 0.00928187 0)
(7.3378 0.0107371 0)
(7.33907 0.0120363 0)
(7.34034 0.0132162 0)
(7.34157 0.0143136 0)
(7.34275 0.0153614 0)
(7.34387 0.0163872 0)
(7.34494 0.0174153 0)
(7.34595 0.0184675 0)
(7.3469 0.0195639 0)
(7.34779 0.0207229 0)
(7.34864 0.0219621 0)
(7.34944 0.0232984 0)
(7.35021 0.0247484 0)
(7.35096 0.0263279 0)
(7.3517 0.0280524 0)
(7.35246 0.0299357 0)
(7.35326 0.0319898 0)
(7.35412 0.0342238 0)
(7.35509 0.0366419 0)
(7.3562 0.0392422 0)
(7.35748 0.0420147 0)
(7.35899 0.044939 0)
(7.36076 0.0479833 0)
(7.36283 0.0511032 0)
(7.36522 0.0542427 0)
(7.36796 0.0573362 0)
(7.37103 0.0603131 0)
(7.37441 0.0631071 0)
(7.33304 0.00111301 0)
(7.3334 0.00327846 0)
(7.33411 0.00527338 0)
(7.33508 0.0070533 0)
(7.33619 0.00863236 0)
(7.33737 0.0100444 0)
(7.33859 0.0113214 0)
(7.33981 0.0124947 0)
(7.34102 0.013596 0)
(7.34219 0.0146545 0)
(7.34332 0.0156957 0)
(7.34441 0.0167419 0)
(7.34545 0.0178134 0)
(7.34645 0.0189287 0)
(7.3474 0.0201049 0)
(7.34832 0.0213578 0)
(7.34922 0.0227025 0)
(7.35009 0.0241532 0)
(7.35096 0.0257232 0)
(7.35183 0.0274244 0)
(7.35274 0.029267 0)
(7.3537 0.0312587 0)
(7.35473 0.0334039 0)
(7.35588 0.0357021 0)
(7.35716 0.0381472 0)
(7.35861 0.0407256 0)
(7.36027 0.0434156 0)
(7.36216 0.0461862 0)
(7.36431 0.0489978 0)
(7.36674 0.0518024 0)
(7.36945 0.0545469 0)
(7.37244 0.0571758 0)
(7.37567 0.0596389 0)
(7.33304 0.00101421 0)
(7.33335 0.00299337 0)
(7.334 0.00483622 0)
(7.33488 0.00650549 0)
(7.33591 0.0080079 0)
(7.33703 0.00936864 0)
(7.3382 0.0106142 0)
(7.33938 0.0117712 0)
(7.34056 0.012867 0)
(7.34173 0.0139273 0)
(7.34287 0.0149749 0)
(7.34398 0.0160304 0)
(7.34506 0.0171122 0)
(7.34611 0.0182372 0)
(7.34713 0.0194207 0)
(7.34812 0.020677 0)
(7.3491 0.022019 0)
(7.35008 0.0234586 0)
(7.35106 0.0250066 0)
(7.35206 0.0266717 0)
(7.3531 0.0284611 0)
(7.35421 0.0303786 0)
(7.35539 0.0324251 0)
(7.35669 0.0345967 0)
(7.35812 0.0368843 0)
(7.35971 0.0392727 0)
(7.36148 0.0417401 0)
(7.36346 0.0442577 0)
(7.36567 0.0467906 0)
(7.36811 0.0492985 0)
(7.37079 0.0517384 0)
(7.37369 0.0540667 0)
(7.37678 0.0562452 0)
(7.33303 0.000923218 0)
(7.33332 0.00272926 0)
(7.33391 0.00442584 0)
(7.33472 0.00598292 0)
(7.33569 0.0074031 0)
(7.33675 0.0087051 0)
(7.33787 0.00991067 0)
(7.33903 0.0110424 0)
(7.3402 0.0121235 0)
(7.34137 0.0131766 0)
(7.34252 0.0142218 0)
(7.34366 0.0152777 0)
(7.34478 0.0163608 0)
(7.34587 0.0174861 0)
(7.34695 0.0186674 0)
(7.34802 0.0199168 0)
(7.34909 0.0212455 0)
(7.35016 0.0226631 0)
(7.35125 0.0241779 0)
(7.35237 0.025796 0)
(7.35353 0.0275216 0)
(7.35477 0.0293559 0)
(7.35609 0.0312968 0)
(7.35751 0.0333381 0)
(7.35906 0.0354691 0)
(7.36076 0.037674 0)
(7.36263 0.0399319 0)
(7.36468 0.0422166 0)
(7.36692 0.044498 0)
(7.36936 0.0467426 0)
(7.37199 0.0489156 0)
(7.3748 0.0509826 0)
(7.37778 0.0529146 0)
(7.33303 0.000838058 0)
(7.33329 0.00248094 0)
(7.33383 0.00403588 0)
(7.3346 0.00547952 0)
(7.33551 0.00681255 0)
(7.33653 0.00804898 0)
(7.33762 0.00920656 0)
(7.33876 0.0103043 0)
(7.33992 0.011362 0)
(7.34109 0.012399 0)
(7.34226 0.0134331 0)
(7.34342 0.0144805 0)
(7.34458 0.0155559 0)
(7.34573 0.0166725 0)
(7.34687 0.017842 0)
(7.34801 0.019075 0)
(7.34916 0.0203805 0)
(7.35032 0.0217661 0)
(7.35151 0.0232378 0)
(7.35274 0.0247996 0)
(7.35402 0.0264531 0)
(7.35536 0.0281974 0)
(7.3568 0.0300284 0)
(7.35833 0.0319383 0)
(7.35999 0.0339157 0)
(7.36178 0.035945 0)
(7.36371 0.0380068 0)
(7.36581 0.0400779 0)
(7.36807 0.0421325 0)
(7.37049 0.0441428 0)
(7.37308 0.0460808 0)
(7.37581 0.0479195 0)
(7.37867 0.0496365 0)
(7.33303 0.000757098 0)
(7.33327 0.002244 0)
(7.33378 0.00366058 0)
(7.3345 0.00498947 0)
(7.33538 0.0062308 0)
(7.33636 0.00739528 0)
(7.33743 0.00849735 0)
(7.33855 0.00955291 0)
(7.33971 0.0105786 0)
(7.34088 0.011591 0)
(7.34207 0.0126053 0)
(7.34327 0.0136356 0)
(7.34446 0.0146946 0)
(7.34566 0.0157935 0)
(7.34687 0.0169424 0)
(7.34808 0.0181498 0)
(7.3493 0.0194231 0)
(7.35055 0.0207678 0)
(7.35183 0.0221879 0)
(7.35316 0.0236855 0)
(7.35454 0.0252604 0)
(7.35599 0.0269099 0)
(7.35752 0.0286286 0)
(7.35915 0.0304079 0)
(7.36089 0.0322363 0)
(7.36275 0.0340989 0)
(7.36474 0.035978 0)
(7.36686 0.0378535 0)
(7.36913 0.0397033 0)
(7.37153 0.0415047 0)
(7.37407 0.0432351 0)
(7.37672 0.044873 0)
(7.37948 0.0464014 0)
(7.33303 0.000678935 0)
(7.33326 0.00201458 0)
(7.33374 0.00329468 0)
(7.33443 0.00450713 0)
(7.33528 0.00565237 0)
(7.33624 0.00673883 0)
(7.33728 0.00777824 0)
(7.3384 0.00878379 0)
(7.33956 0.00976937 0)
(7.34075 0.0107488 0)
(7.34196 0.0117349 0)
(7.34319 0.0127397 0)
(7.34443 0.0137738 0)
(7.34568 0.0148467 0)
(7.34694 0.0159664 0)
(7.34822 0.0171399 0)
(7.34952 0.0183727 0)
(7.35085 0.0196686 0)
(7.35221 0.0210299 0)
(7.35362 0.0224571 0)
(7.35509 0.0239485 0)
(7.35663 0.0255002 0)
(7.35825 0.027106 0)
(7.35996 0.028757 0)
(7.36176 0.0304419 0)
(7.36368 0.032147 0)
(7.3657 0.0338565 0)
(7.36785 0.0355529 0)
(7.37011 0.0372177 0)
(7.37249 0.0388322 0)
(7.37497 0.0403783 0)
(7.37755 0.0418388 0)
(7.38022 0.0432009 0)
(7.33303 0.000602318 0)
(7.33325 0.00178918 0)
(7.33371 0.00293321 0)
(7.33438 0.00402699 0)
(7.33521 0.0050717 0)
(7.33615 0.00607423 0)
(7.33719 0.00704414 0)
(7.3383 0.00799223 0)
(7.33947 0.00892988 0)
(7.34068 0.00986838 0)
(7.34192 0.0108184 0)
(7.34318 0.0117897 0)
(7.34446 0.0127909 0)
(7.34576 0.0138297 0)
(7.34708 0.0149124 0)
(7.34842 0.0160444 0)
(7.34979 0.0172293 0)
(7.35119 0.0184696 0)
(7.35264 0.0197661 0)
(7.35413 0.0211179 0)
(7.35568 0.0225224 0)
(7.35729 0.0239747 0)
(7.35898 0.0254683 0)
(7.36075 0.0269943 0)
(7.36261 0.028542 0)
(7.36457 0.0300989 0)
(7.36662 0.0316512 0)
(7.36878 0.0331837 0)
(7.37103 0.0346811 0)
(7.37337 0.036128 0)
(7.37581 0.0375096 0)
(7.37832 0.0388127 0)
(7.3809 0.0400271 0)
(7.33302 0.000526093 0)
(7.33324 0.00156454 0)
(7.3337 0.00257144 0)
(7.33435 0.00354355 0)
(7.33517 0.00448307 0)
(7.3361 0.00539586 0)
(7.33714 0.00628967 0)
(7.33826 0.00717319 0)
(7.33944 0.0080555 0)
(7.34067 0.00894558 0)
(7.34194 0.00985186 0)
(7.34324 0.010782 0)
(7.34456 0.0117429 0)
(7.34591 0.0127402 0)
(7.34728 0.0137789 0)
(7.34869 0.0148623 0)
(7.35012 0.015993 0)
(7.35159 0.017172 0)
(7.35311 0.0183988 0)
(7.35467 0.0196717 0)
(7.35628 0.020987 0)
(7.35796 0.0223395 0)
(7.35971 0.0237226 0)
(7.36154 0.0251276 0)
(7.36344 0.0265447 0)
(7.36543 0.0279626 0)
(7.3675 0.0293692 0)
(7.36965 0.0307518 0)
(7.37189 0.0320973 0)
(7.3742 0.0333933 0)
(7.37659 0.0346279 0)
(7.37904 0.0357905 0)
(7.38154 0.0368733 0)
(7.33302 0.000449149 0)
(7.33324 0.00133748 0)
(7.33369 0.00220464 0)
(7.33434 0.00305121 0)
(7.33515 0.00388053 0)
(7.33609 0.00469775 0)
(7.33714 0.00550908 0)
(7.33827 0.00632126 0)
(7.33947 0.00714126 0)
(7.34073 0.00797584 0)
(7.34202 0.00883132 0)
(7.34336 0.00971339 0)
(7.34473 0.010627 0)
(7.34612 0.0115762 0)
(7.34755 0.0125642 0)
(7.34901 0.0135932 0)
(7.35051 0.0146642 0)
(7.35204 0.0157771 0)
(7.35362 0.0169306 0)
(7.35524 0.0181218 0)
(7.35692 0.0193468 0)
(7.35865 0.0206002 0)
(7.36045 0.0218751 0)
(7.36232 0.0231637 0)
(7.36425 0.0244569 0)
(7.36626 0.0257446 0)
(7.36834 0.0270165 0)
(7.37049 0.0282615 0)
(7.37271 0.0294691 0)
(7.37499 0.0306289 0)
(7.37733 0.0317314 0)
(7.37972 0.0327681 0)
(7.38214 0.0337331 0)
(7.33302 0.000370359 0)
(7.33324 0.00110478 0)
(7.33369 0.00182797 0)
(7.33435 0.00254411 0)
(7.33517 0.00325776 0)
(7.33612 0.00397351 0)
(7.33718 0.00469614 0)
(7.33833 0.00543059 0)
(7.33955 0.00618177 0)
(7.34084 0.00695433 0)
(7.34217 0.00775253 0)
(7.34354 0.00858011 0)
(7.34496 0.00944024 0)
(7.3464 0.0103354 0)
(7.34788 0.0112672 0)
(7.3494 0.0122366 0)
(7.35095 0.0132433 0)
(7.35254 0.0142864 0)
(7.35417 0.0153635 0)
(7.35585 0.0164716 0)
(7.35758 0.017606 0)
(7.35936 0.0187615 0)
(7.3612 0.0199314 0)
(7.3631 0.0211084 0)
(7.36506 0.0222843 0)
(7.36708 0.0234502 0)
(7.36917 0.0245972 0)
(7.37131 0.0257161 0)
(7.37351 0.026798 0)
(7.37575 0.0278344 0)
(7.37805 0.0288178 0)
(7.38038 0.0297413 0)
(7.38274 0.0306004 0)
(7.33302 0.000288523 0)
(7.33325 0.000862989 0)
(7.3337 0.00143618 0)
(7.33437 0.00201589 0)
(7.3352 0.00260786 0)
(7.33617 0.00321613 0)
(7.33726 0.00384405 0)
(7.33844 0.00449476 0)
(7.33969 0.00517116 0)
(7.34101 0.00587581 0)
(7.34238 0.00661093 0)
(7.3438 0.00737837 0)
(7.34525 0.00817957 0)
(7.34675 0.00901543 0)
(7.34828 0.00988625 0)
(7.34984 0.0107917 0)
(7.35144 0.0117305 0)
(7.35309 0.0127008 0)
(7.35477 0.0136999 0)
(7.3565 0.0147239 0)
(7.35827 0.0157683 0)
(7.36009 0.0168277 0)
(7.36197 0.017896 0)
(7.36389 0.0189664 0)
(7.36587 0.0200314 0)
(7.3679 0.0210835 0)
(7.36999 0.0221149 0)
(7.37212 0.0231179 0)
(7.37429 0.024085 0)
(7.37651 0.0250094 0)
(7.37875 0.025885 0)
(7.38103 0.0267063 0)
(7.38333 0.0274699 0)
(7.33303 0.00020229 0)
(7.33325 0.000608223 0)
(7.33373 0.00102342 0)
(7.33441 0.00145941 0)
(7.33527 0.00192311 0)
(7.33627 0.0024178 0)
(7.33738 0.00294525 0)
(7.3386 0.0035067 0)
(7.33989 0.00410299 0)
(7.34125 0.00473455 0)
(7.34266 0.00540157 0)
(7.34412 0.00610402 0)
(7.34562 0.00684167 0)
(7.34716 0.00761394 0)
(7.34874 0.00841983 0)
(7.35035 0.00925787 0)
(7.352 0.010126 0)
(7.35369 0.0110216 0)
(7.35542 0.0119414 0)
(7.35719 0.0128813 0)
(7.359 0.0138368 0)
(7.36086 0.0148025 0)
(7.36276 0.0157728 0)
(7.36471 0.0167414 0)
(7.3667 0.0177019 0)
(7.36874 0.0186475 0)
(7.37081 0.0195716 0)
(7.37293 0.0204677 0)
(7.37508 0.0213297 0)
(7.37726 0.022152 0)
(7.37947 0.0229296 0)
(7.3817 0.0236582 0)
(7.38394 0.0243352 0)
(7.33303 0.000110052 0)
(7.33327 0.000335873 0)
(7.33376 0.000582735 0)
(7.33448 0.000866346 0)
(7.33537 0.0011946 0)
(7.33641 0.0015696 0)
(7.33756 0.00199117 0)
(7.33882 0.00245846 0)
(7.34015 0.00297009 0)
(7.34155 0.00352426 0)
(7.34301 0.00411905 0)
(7.34452 0.00475255 0)
(7.34607 0.0054229 0)
(7.34765 0.0061281 0)
(7.34928 0.00686597 0)
(7.35094 0.00763404 0)
(7.35263 0.00842949 0)
(7.35437 0.0092491 0)
(7.35613 0.0100892 0)
(7.35794 0.0109456 0)
(7.35979 0.0118137 0)
(7.36167 0.0126885 0)
(7.3636 0.0135647 0)
(7.36556 0.0144366 0)
(7.36756 0.0152985 0)
(7.3696 0.0161445 0)
(7.37167 0.0169691 0)
(7.37377 0.0177668 0)
(7.3759 0.0185325 0)
(7.37805 0.0192617 0)
(7.38022 0.0199502 0)
(7.3824 0.0205947 0)
(7.38459 0.0211931 0)
(7.33303 9.77474e-06 0)
(7.33328 4.015e-05 0)
(7.33381 0.000105555 0)
(7.33457 0.000226597 0)
(7.33551 0.000411769 0)
(7.3366 0.000661122 0)
(7.3378 0.000971951 0)
(7.33911 0.00134097 0)
(7.34049 0.00176437 0)
(7.34195 0.00223791 0)
(7.34345 0.00275746 0)
(7.34501 0.00331924 0)
(7.3466 0.00391972 0)
(7.34823 0.00455554 0)
(7.3499 0.00522337 0)
(7.35161 0.00591984 0)
(7.35335 0.00664145 0)
(7.35512 0.0073845 0)
(7.35693 0.00814502 0)
(7.35877 0.00891878 0)
(7.36064 0.00970128 0)
(7.36255 0.0104878 0)
(7.36449 0.0112734 0)
(7.36647 0.012053 0)
(7.36847 0.0128215 0)
(7.37051 0.0135741 0)
(7.37257 0.0143058 0)
(7.37465 0.0150121 0)
(7.37676 0.0156888 0)
(7.37888 0.0163321 0)
(7.38101 0.0169389 0)
(7.38316 0.0175063 0)
(7.3853 0.0180328 0)
(7.33303 -0.000101255 0)
(7.33331 -0.000286611 0)
(7.33388 -0.00041923 0)
(7.33469 -0.000472521 0)
(7.3357 -0.00043831 0)
(7.33685 -0.000320039 0)
(7.33812 -0.00012386 0)
(7.33948 0.000143977 0)
(7.34093 0.000476711 0)
(7.34244 0.00086735 0)
(7.34399 0.00130944 0)
(7.3456 0.00179731 0)
(7.34724 0.00232593 0)
(7.34892 0.00289064 0)
(7.35064 0.0034871 0)
(7.35239 0.00411116 0)
(7.35416 0.00475874 0)
(7.35597 0.00542574 0)
(7.35781 0.006108 0)
(7.35968 0.00680123 0)
(7.36158 0.00750107 0)
(7.36351 0.00820305 0)
(7.36547 0.00890264 0)
(7.36745 0.00959533 0)
(7.36946 0.0102767 0)
(7.37149 0.0109423 0)
(7.37354 0.0115882 0)
(7.37561 0.0122105 0)
(7.3777 0.0128057 0)
(7.37979 0.0133708 0)
(7.38189 0.013903 0)
(7.384 0.0144003 0)
(7.3861 0.0148615 0)
(7.33303 -0.000226878 0)
(7.33334 -0.000655138 0)
(7.33397 -0.00100661 0)
(7.33487 -0.00124732 0)
(7.33595 -0.00137175 0)
(7.33718 -0.00138931 0)
(7.33853 -0.00131043 0)
(7.33997 -0.00114464 0)
(7.34148 -0.000902215 0)
(7.34305 -0.000593625 0)
(7.34466 -0.000228138 0)
(7.34632 0.000186433 0)
(7.34802 0.000643367 0)
(7.34975 0.00113674 0)
(7.35151 0.00166125 0)
(7.35329 0.0022121 0)
(7.35511 0.0027848 0)
(7.35695 0.00337503 0)
(7.35882 0.00397857 0)
(7.36072 0.00459127 0)
(7.36264 0.00520898 0)
(7.36459 0.00582757 0)
(7.36656 0.00644297 0)
(7.36855 0.00705118 0)
(7.37056 0.00764832 0)
(7.37259 0.00823069 0)
(7.37463 0.00879482 0)
(7.37669 0.00933752 0)
(7.37875 0.00985592 0)
(7.38082 0.0103475 0)
(7.38289 0.0108102 0)
(7.38496 0.0112422 0)
(7.38703 0.0116428 0)
(7.33304 -0.000372825 0)
(7.33339 -0.00108132 0)
(7.3341 -0.00167796 0)
(7.33511 -0.00211938 0)
(7.3363 -0.0024079 0)
(7.33763 -0.0025641 0)
(7.33907 -0.00260476 0)
(7.34059 -0.00254315 0)
(7.34218 -0.00239315 0)
(7.34382 -0.00216836 0)
(7.3455 -0.00188042 0)
(7.34722 -0.00153901 0)
(7.34896 -0.00115244 0)
(7.35074 -0.000727975 0)
(7.35254 -0.000271944 0)
(7.35437 0.00021006 0)
(7.35622 0.000712989 0)
(7.3581 0.00123218 0)
(7.36 0.00176328 0)
(7.36192 0.00230211 0)
(7.36386 0.00284469 0)
(7.36583 0.00338718 0)
(7.36781 0.00392588 0)
(7.36981 0.00445724 0)
(7.37182 0.00497791 0)
(7.37385 0.00548473 0)
(7.37588 0.00597478 0)
(7.37793 0.00644542 0)
(7.37997 0.0068943 0)
(7.38202 0.00731938 0)
(7.38407 0.00771894 0)
(7.38611 0.00809153 0)
(7.38814 0.00843646 0)
(7.33305 -0.000548207 0)
(7.33346 -0.00158919 0)
(7.3343 -0.00246451 0)
(7.33545 -0.0031212 0)
(7.33678 -0.00357631 0)
(7.33823 -0.00386483 0)
(7.33978 -0.00401202 0)
(7.3414 -0.00403936 0)
(7.34308 -0.00396869 0)
(7.3448 -0.00381898 0)
(7.34655 -0.00360464 0)
(7.34833 -0.00333683 0)
(7.35014 -0.00302474 0)
(7.35197 -0.00267606 0)
(7.35382 -0.00229722 0)
(7.35569 -0.00189372 0)
(7.35758 -0.00147045 0)
(7.3595 -0.00103183 0)
(7.36143 -0.000581976 0)
(7.36337 -0.00012473 0)
(7.36534 0.000336254 0)
(7.36732 0.000797499 0)
(7.36931 0.0012557 0)
(7.37132 0.00170772 0)
(7.37334 0.00215064 0)
(7.37536 0.00258173 0)
(7.37739 0.0029985 0)
(7.37943 0.0033987 0)
(7.38146 0.0037804 0)
(7.38349 0.00414191 0)
(7.38551 0.00448188 0)
(7.38752 0.00479927 0)
(7.38952 0.00509372 0)
(7.33306 -0.000769946 0)
(7.33358 -0.0022188 0)
(7.3346 -0.00340285 0)
(7.33596 -0.00428392 0)
(7.33747 -0.0049246 0)
(7.33908 -0.00537314 0)
(7.34077 -0.00564974 0)
(7.34252 -0.00577722 0)
(7.34429 -0.00578499 0)
(7.3461 -0.00569888 0)
(7.34793 -0.00553818 0)
(7.34978 -0.00531805 0)
(7.35164 -0.00505104 0)
(7.35353 -0.00474734 0)
(7.35543 -0.00441505 0)
(7.35735 -0.00406069 0)
(7.35929 -0.00368969 0)
(7.36124 -0.00330662 0)
(7.36321 -0.00291546 0)
(7.36519 -0.00251973 0)
(7.36718 -0.00212261 0)
(7.36918 -0.001727 0)
(7.37119 -0.00133559 0)
(7.37321 -0.000950872 0)
(7.37523 -0.000575139 0)
(7.37725 -0.000210494 0)
(7.37928 0.000141158 0)
(7.38129 0.000478111 0)
(7.38331 0.000798865 0)
(7.38531 0.00110212 0)
(7.38731 0.00138675 0)
(7.38929 0.00165177 0)
(7.39125 0.00189663 0)
(7.33308 -0.00106662 0)
(7.33378 -0.00306825 0)
(7.3351 -0.00458501 0)
(7.33672 -0.00560855 0)
(7.33845 -0.00632254 0)
(7.34025 -0.00683711 0)
(7.34214 -0.00718723 0)
(7.34406 -0.0074006 0)
(7.346 -0.00750776 0)
(7.34795 -0.00753116 0)
(7.34991 -0.00748529 0)
(7.35188 -0.00738136 0)
(7.35385 -0.00722915 0)
(7.35582 -0.00703693 0)
(7.3578 -0.00681163 0)
(7.35978 -0.00655921 0)
(7.36177 -0.00628492 0)
(7.36376 -0.00599345 0)
(7.36575 -0.005689 0)
(7.36775 -0.00537536 0)
(7.36974 -0.00505596 0)
(7.37173 -0.00473395 0)
(7.37372 -0.00441219 0)
(7.3757 -0.00409325 0)
(7.37768 -0.0037795 0)
(7.37964 -0.00347305 0)
(7.3816 -0.00317575 0)
(7.38354 -0.00288924 0)
(7.38546 -0.00261492 0)
(7.38737 -0.00235393 0)
(7.38926 -0.00210717 0)
(7.39112 -0.00187522 0)
(7.39296 -0.00165827 0)
(7.3331 -0.00144803 0)
(7.33415 -0.00420818 0)
(7.33607 -0.00631378 0)
(7.33822 -0.00776599 0)
(7.34032 -0.00875021 0)
(7.34242 -0.0093757 0)
(7.34457 -0.00972035 0)
(7.34674 -0.00986668 0)
(7.3489 -0.00988149 0)
(7.35104 -0.00980712 0)
(7.35317 -0.00967051 0)
(7.35527 -0.00949076 0)
(7.35735 -0.00928127 0)
(7.35939 -0.00905092 0)
(7.3614 -0.00880553 0)
(7.36337 -0.00854915 0)
(7.36531 -0.00828479 0)
(7.36721 -0.00801476 0)
(7.36908 -0.00774099 0)
(7.37092 -0.00746517 0)
(7.37272 -0.00718891 0)
(7.37449 -0.0069137 0)
(7.37623 -0.00664101 0)
(7.37794 -0.00637225 0)
(7.37962 -0.00610877 0)
(7.38127 -0.00585184 0)
(7.38289 -0.00560266 0)
(7.38448 -0.00536231 0)
(7.38604 -0.00513179 0)
(7.38757 -0.00491202 0)
(7.38907 -0.00470387 0)
(7.39054 -0.00450821 0)
(7.39199 -0.00432574 0)
(7.33311 -0.00228421 0)
(7.33485 -0.00521442 0)
(7.33794 -0.0068811 0)
(7.34136 -0.00825382 0)
(7.34468 -0.00954477 0)
(7.34787 -0.0106141 0)
(7.35087 -0.0114198 0)
(7.35363 -0.0120094 0)
(7.3561 -0.0124233 0)
(7.35832 -0.012683 0)
(7.36029 -0.0128088 0)
(7.36204 -0.0128238 0)
(7.36359 -0.0127496 0)
(7.36497 -0.0126043 0)
(7.36618 -0.0124029 0)
(7.36726 -0.0121583 0)
(7.36822 -0.0118812 0)
(7.36908 -0.0115803 0)
(7.36985 -0.0112629 0)
(7.37055 -0.0109348 0)
(7.37119 -0.010601 0)
(7.37177 -0.0102654 0)
(7.37231 -0.00993119 0)
(7.37281 -0.00960111 0)
(7.37328 -0.00927729 0)
(7.37373 -0.00896148 0)
(7.37415 -0.0086551 0)
(7.37456 -0.00835925 0)
(7.37494 -0.00807478 0)
(7.37532 -0.00780228 0)
(7.37568 -0.00754213 0)
(7.37603 -0.00729454 0)
(7.37636 -0.00705939 0)
(7.3363 -0.00651751 0)
(7.34557 -0.0134875 0)
(7.35343 -0.0156879 0)
(7.35888 -0.0161922 0)
(7.36267 -0.0161566 0)
(7.36523 -0.0157429 0)
(7.36659 -0.0150805 0)
(7.36685 -0.0143356 0)
(7.36623 -0.0136016 0)
(7.36493 -0.0129062 0)
(7.36313 -0.0122564 0)
(7.36094 -0.0116546 0)
(7.35847 -0.0111 0)
(7.35581 -0.0105884 0)
(7.35304 -0.010115 0)
(7.3502 -0.00967479 0)
(7.34735 -0.00926378 0)
(7.34451 -0.00887838 0)
(7.34172 -0.00851567 0)
(7.33899 -0.00817327 0)
(7.33633 -0.00784931 0)
(7.33376 -0.00754235 0)
(7.33128 -0.00725125 0)
(7.3289 -0.00697514 0)
(7.32661 -0.00671335 0)
(7.32443 -0.00646533 0)
(7.32235 -0.00623066 0)
(7.32036 -0.00600895 0)
(7.31846 -0.00579981 0)
(7.31666 -0.00560284 0)
(7.31495 -0.00541751 0)
(7.31333 -0.00524316 0)
(7.31179 -0.00507834 0)
(7.32508 -0.00547004 0)
(7.31334 -0.0121257 0)
(7.29927 -0.0150438 0)
(7.28288 -0.0161335 0)
(7.26681 -0.0163132 0)
(7.25211 -0.0158774 0)
(7.23866 -0.0150378 0)
(7.22631 -0.0139942 0)
(7.21505 -0.0128822 0)
(7.20482 -0.0117762 0)
(7.19555 -0.0107172 0)
(7.18712 -0.00972825 0)
(7.17943 -0.00882072 0)
(7.17242 -0.00799731 0)
(7.166 -0.00725567 0)