/*--------------------------------*- C++ -*----------------------------------*\
| =========                 |                                                 |
| \\      /  F ield         | OpenFOAM: The Open Source CFD Toolbox           |
|  \\    /   O peration     | Version:  4.1                                   |
|   \\  /    A nd           | Web:      www.OpenFOAM.org                      |
|    \\/     M anipulation  |                                                 |
\*---------------------------------------------------------------------------*/
FoamFile
{
    version     2.0;
    format      ascii;
    class       volScalarField;
    location    "300";
    object      epsilon;
}
// * * * * * * * * * * * * * * * * * * * * * * * * * * * * * * * * * * * * * //

dimensions      [0 2 -3 0 0 0 0];

internalField   nonuniform List<scalar> 
6820
(
115.949
152.042
190.662
230.216
269.219
306.376
340.645
371.303
397.954
420.48
438.98
453.703
464.997
473.254
478.884
482.28
483.813
483.815
482.581
480.368
477.393
473.843
469.872
465.608
461.156
456.604
452.02
447.462
442.974
438.596
434.349
430.344
427.94
9.48469
17.5524
23.8069
29.3403
34.5566
39.5559
44.3404
48.886
53.1624
57.1426
60.8097
64.1587
67.1953
69.9337
72.3943
74.6014
76.5807
78.3584
79.9595
81.407
82.7222
83.9239
85.0291
86.0517
87.0038
87.8948
88.7322
89.5222
90.2674
90.9719
91.6314
92.2433
92.8153
4.14147
5.59606
6.98304
8.20875
9.27809
10.2176
11.051
11.7958
12.4658
13.0721
13.6238
14.1281
14.5908
15.0168
15.4102
15.7744
16.1123
16.4264
16.719
16.9918
17.2479
17.4951
17.7356
17.97
18.199
18.4228
18.6418
18.8563
19.0664
19.2722
19.4738
19.6713
19.8631
3.60121
3.91798
4.33112
4.75793
5.1606
5.52688
5.855
6.14703
6.40629
6.63637
6.84069
7.02241
7.18435
7.329
7.45851
7.57475
7.67933
7.77364
7.85886
7.93602
8.006
8.07005
8.12946
8.18503
8.23739
8.28701
8.3343
8.3796
8.42322
8.46539
8.5064
8.54646
8.58596
3.52798
3.56982
3.67477
3.81745
3.9749
4.13283
4.28387
4.42463
4.55383
4.6713
4.77747
4.87303
4.95878
5.03559
5.10426
5.16559
5.22029
5.26903
5.31242
5.351
5.38525
5.41564
5.44259
5.46656
5.48791
5.50696
5.52398
5.5392
5.55283
5.56506
5.57604
5.58592
5.59487
3.5197
3.49572
3.49766
3.52374
3.56745
3.62176
3.681
3.74133
3.80034
3.8566
3.90932
3.95811
4.00286
4.04362
4.08051
4.11373
4.14352
4.1701
4.19373
4.21463
4.23304
4.24918
4.26324
4.27542
4.28589
4.29484
4.3024
4.30872
4.31392
4.3181
4.32136
4.32379
4.32549
3.51928
3.48173
3.4529
3.43487
3.42775
3.42982
3.4388
3.45248
3.46902
3.48704
3.50552
3.52377
3.5413
3.55781
3.57311
3.58709
3.59973
3.61101
3.62096
3.62967
3.6372
3.64362
3.649
3.65341
3.65691
3.65957
3.66146
3.66264
3.66317
3.66311
3.66249
3.66137
3.6598
3.51938
3.47956
3.44297
3.41081
3.38393
3.36257
3.34634
3.33451
3.32623
3.32071
3.31724
3.31522
3.31419
3.31377
3.31369
3.31372
3.31372
3.31358
3.3132
3.31255
3.3116
3.31033
3.30873
3.30682
3.30459
3.30206
3.29924
3.29616
3.29281
3.28923
3.28543
3.28142
3.27723
3.51942
3.47931
3.44106
3.40504
3.37162
3.34119
3.31388
3.28964
3.26824
3.24938
3.23275
3.218
3.20483
3.19296
3.18216
3.17221
3.16296
3.15426
3.14601
3.13812
3.1305
3.12311
3.1159
3.10883
3.10187
3.095
3.08821
3.08148
3.07481
3.06817
3.06158
3.05501
3.04848
3.51943
3.47931
3.44074
3.4038
3.36856
3.33518
3.30378
3.27442
3.24706
3.22166
3.1981
3.17625
3.15596
3.13707
3.11943
3.1029
3.08736
3.07269
3.05879
3.04558
3.03297
3.0209
3.00931
2.99815
2.98739
2.97697
2.96687
2.95706
2.94753
2.93823
2.92917
2.92032
2.91166
3.51944
3.47931
3.44068
3.40355
3.36787
3.33364
3.30092
3.26969
3.23996
3.21172
3.18493
3.15955
3.1355
3.11273
3.09115
3.07067
3.05122
3.03272
3.0151
2.99828
2.98222
2.96683
2.95209
2.93793
2.92431
2.9112
2.89855
2.88634
2.87454
2.86312
2.85205
2.84131
2.83089
3.51944
3.47931
3.44066
3.40349
3.3677
3.33327
3.30016
3.26836
3.23782
3.20853
3.18046
3.15357
3.12784
3.10321
3.07964
3.05709
3.0355
3.01483
2.99502
2.97603
2.95781
2.94032
2.9235
2.90733
2.89177
2.87678
2.86232
2.84837
2.8349
2.82189
2.80929
2.79711
2.7853
3.51944
3.47931
3.44065
3.40345
3.36764
3.33316
3.29995
3.26798
3.23719
3.20755
3.17901
3.15154
3.12511
3.09967
3.0752
3.05166
3.02902
3.00723
2.98625
2.96607
2.94663
2.9279
2.90986
2.89246
2.87569
2.8595
2.84387
2.82878
2.81419
2.80009
2.78645
2.77325
2.76047
3.51944
3.4793
3.44063
3.40343
3.36761
3.33311
3.29987
3.26785
3.23699
3.20724
3.17855
3.15089
3.12421
3.09848
3.07366
3.04971
3.02661
3.00432
2.98281
2.96205
2.942
2.92265
2.90396
2.88591
2.86846
2.85159
2.83529
2.81951
2.80426
2.78949
2.77519
2.76134
2.74793
3.51944
3.4793
3.44063
3.40341
3.36758
3.33307
3.29983
3.26779
3.2369
3.20711
3.17838
3.15065
3.12388
3.09804
3.07308
3.04898
3.02569
3.00319
2.98144
2.96042
2.9401
2.92045
2.90144
2.88305
2.86526
2.84804
2.83137
2.81522
2.79959
2.78445
2.76977
2.75555
2.74176
3.51944
3.4793
3.44062
3.4034
3.36756
3.33305
3.29979
3.26774
3.23684
3.20704
3.17829
3.15053
3.12373
3.09785
3.07285
3.04869
3.02534
3.00276
2.98092
2.9598
2.93937
2.91959
2.90045
2.88192
2.86397
2.84658
2.82974
2.81342
2.79761
2.78227
2.76741
2.75299
2.739
3.51944
3.4793
3.44061
3.40339
3.36755
3.33302
3.29976
3.26771
3.2368
3.20699
3.17822
3.15045
3.12364
3.09774
3.07272
3.04854
3.02516
3.00254
2.98067
2.95951
2.93902
2.91919
2.89999
2.88139
2.86337
2.84591
2.82899
2.81259
2.79668
2.78125
2.76629
2.75177
2.73768
3.51944
3.4793
3.44061
3.40338
3.36753
3.33301
3.29974
3.26768
3.23676
3.20694
3.17817
3.15039
3.12357
3.09766
3.07263
3.04843
3.02504
3.00241
2.98052
2.95934
2.93884
2.91898
2.89976
2.88113
2.86309
2.8456
2.82864
2.8122
2.79626
2.78079
2.76579
2.75122
2.73708
3.51944
3.47929
3.44061
3.40337
3.36752
3.33299
3.29972
3.26765
3.23673
3.2069
3.17812
3.15034
3.12351
3.09759
3.07255
3.04835
3.02494
3.00231
2.98041
2.95921
2.9387
2.91883
2.89959
2.88095
2.86289
2.84538
2.82841
2.81195
2.79599
2.7805
2.76547
2.75088
2.73672
3.51944
3.47929
3.44061
3.40337
3.36752
3.33298
3.2997
3.26763
3.2367
3.20687
3.17808
3.15029
3.12346
3.09754
3.07249
3.04828
3.02486
3.00222
2.98031
2.95911
2.93859
2.91871
2.89947
2.88082
2.86275
2.84523
2.82825
2.81178
2.7958
2.78031
2.76527
2.75067
2.7365
3.51944
3.47929
3.4406
3.40337
3.36751
3.33297
3.29969
3.26761
3.23668
3.20684
3.17805
3.15025
3.12341
3.09749
3.07243
3.04821
3.02479
3.00214
2.98023
2.95902
2.93849
2.91861
2.89936
2.8807
2.86262
2.8451
2.82811
2.81163
2.79565
2.78014
2.76509
2.75049
2.73631
3.51944
3.47929
3.4406
3.40336
3.36751
3.33296
3.29968
3.2676
3.23666
3.20682
3.17802
3.15022
3.12338
3.09744
3.07238
3.04816
3.02473
3.00208
2.98016
2.95894
2.93841
2.91852
2.89926
2.8806
2.86251
2.84498
2.82799
2.8115
2.79551
2.78
2.76495
2.75034
2.73615
3.51944
3.47929
3.4406
3.40336
3.3675
3.33296
3.29967
3.26759
3.23665
3.2068
3.178
3.15019
3.12334
3.09741
3.07234
3.04811
3.02468
3.00202
2.9801
2.95888
2.93833
2.91844
2.89918
2.88051
2.86242
2.84488
2.82788
2.81139
2.7954
2.77988
2.76482
2.7502
2.73601
3.51944
3.47929
3.4406
3.40336
3.3675
3.33296
3.29967
3.26758
3.23664
3.20679
3.17798
3.15017
3.12332
3.09737
3.07231
3.04807
3.02464
3.00197
2.98004
2.95882
2.93827
2.91838
2.8991
2.88043
2.86234
2.8448
2.82779
2.81129
2.7953
2.77977
2.76471
2.75009
2.73589
3.51944
3.47929
3.4406
3.40336
3.3675
3.33295
3.29966
3.26757
3.23663
3.20678
3.17797
3.15016
3.1233
3.09735
3.07228
3.04804
3.02461
3.00194
2.98
2.95878
2.93823
2.91833
2.89905
2.88038
2.86228
2.84473
2.82772
2.81123
2.79522
2.7797
2.76463
2.75
2.7358
3.51944
3.47929
3.4406
3.40336
3.3675
3.33295
3.29966
3.26757
3.23662
3.20677
3.17796
3.15015
3.12329
3.09734
3.07226
3.04802
3.02458
3.00191
2.97997
2.95874
2.93819
2.91828
2.899
2.88032
2.86222
2.84467
2.82766
2.81116
2.79515
2.77962
2.76454
2.74991
2.73571
3.51944
3.47929
3.4406
3.40336
3.3675
3.33295
3.29966
3.26757
3.23662
3.20676
3.17795
3.15014
3.12328
3.09733
3.07225
3.04801
3.02457
3.0019
2.97996
2.95873
2.93818
2.91827
2.89899
2.88031
2.86221
2.84466
2.82764
2.81114
2.79513
2.7796
2.76453
2.74989
2.73569
3.51944
3.47929
3.4406
3.40336
3.3675
3.33295
3.29966
3.26757
3.23662
3.20676
3.17795
3.15014
3.12327
3.09732
3.07225
3.048
3.02456
3.00188
2.97994
2.95871
2.93815
2.91824
2.89896
2.88027
2.86216
2.84461
2.82759
2.81108
2.79507
2.77953
2.76445
2.74982
2.73561
3.51944
3.47929
3.4406
3.40336
3.3675
3.33295
3.29966
3.26757
3.23662
3.20677
3.17796
3.15015
3.12329
3.09734
3.07227
3.04803
3.02459
3.00192
2.97998
2.95875
2.9382
2.91829
2.89901
2.88033
2.86222
2.84467
2.82766
2.81115
2.79514
2.77961
2.76453
2.7499
2.73569
3.51944
3.47929
3.4406
3.40336
3.3675
3.33295
3.29966
3.26758
3.23663
3.20678
3.17796
3.15015
3.12329
3.09734
3.07226
3.04801
3.02457
3.00189
2.97995
2.95872
2.93816
2.91825
2.89896
2.88028
2.86217
2.84462
2.8276
2.8111
2.79509
2.77955
2.76448
2.74984
2.73564
3.51944
3.47929
3.4406
3.40336
3.3675
3.33296
3.29967
3.26759
3.23665
3.20681
3.17801
3.1502
3.12336
3.09742
3.07236
3.04813
3.0247
3.00204
2.98011
2.95889
2.93835
2.91846
2.89919
2.88052
2.86243
2.84489
2.82789
2.8114
2.79541
2.77989
2.76483
2.75021
2.73602
3.51944
3.47929
3.4406
3.40336
3.36751
3.33297
3.29968
3.26759
3.23665
3.2068
3.17799
3.15018
3.12333
3.09739
3.07233
3.04811
3.02469
3.00204
2.98013
2.95893
2.93842
2.91855
2.89931
2.88068
2.86262
2.84513
2.82817
2.81173
2.79578
2.78032
2.76532
2.75076
2.73663
3.51944
3.47929
3.4406
3.40337
3.36752
3.333
3.29975
3.2677
3.23681
3.20702
3.17828
3.15054
3.12376
3.09791
3.07293
3.0488
3.02548
3.00294
2.98114
2.96006
2.93967
2.91993
2.90084
2.88235
2.86444
2.84711
2.83031
2.81404
2.79826
2.78297
2.76815
2.75377
2.73982
3.51944
3.47929
3.44061
3.40338
3.36754
3.33305
3.29985
3.26787
3.23707
3.2074
3.1788
3.15124
3.12467
3.09906
3.07436
3.05053
3.02755
3.00538
2.98398
2.96332
2.94337
2.9241
2.90549
2.8875
2.87011
2.8533
2.83704
2.8213
2.80608
2.79134
2.77707
2.76324
2.74985
3.51943
3.47929
3.44066
3.40356
3.36793
3.33373
3.30092
3.26944
3.23926
3.21033
3.18259
3.15601
3.13053
3.1061
3.08268
3.06021
3.03865
3.01795
2.99806
2.97895
2.96058
2.9429
2.92587
2.90948
2.89367
2.87843
2.86372
2.84952
2.83581
2.82255
2.80973
2.79733
2.78532
3.51942
3.47942
3.4412
3.4049
3.3706
3.33828
3.30787
3.2793
3.25249
3.22734
3.20371
3.18151
3.1606
3.14089
3.12227
3.10465
3.08793
3.07205
3.05692
3.04249
3.02869
3.01549
3.00282
2.99065
2.97894
2.96766
2.95679
2.94628
2.93612
2.9263
2.91678
2.90755
2.89859
3.5196
3.48202
3.44939
3.42176
3.39873
3.37979
3.36436
3.35184
3.34168
3.33341
3.32665
3.32107
3.31639
3.31241
3.30894
3.30585
3.30303
3.30038
3.29785
3.29537
3.29291
3.29043
3.28792
3.28536
3.28273
3.28003
3.27725
3.2744
3.27147
3.26847
3.2654
3.26226
3.25906
3.53048
3.53941
3.57105
3.61689
3.67042
3.7274
3.78518
3.84219
3.89754
3.95065
4.00119
4.049
4.09405
4.13637
4.17605
4.21319
4.24793
4.28039
4.31072
4.33905
4.3655
4.39021
4.41327
4.43482
4.45494
4.47375
4.49132
4.50774
4.52309
4.53745
4.55088
4.56344
4.57525
4.00124
4.78121
5.43791
6.00293
6.50174
6.9497
7.35707
7.73134
8.07817
8.40186
8.70577
8.99257
9.26442
9.52308
9.76997
10.0063
10.2331
10.4511
10.6611
10.8638
11.0596
11.249
11.4324
11.6103
11.7828
11.9503
12.1131
12.2713
12.4253
12.5752
12.7212
12.8634
13.0025
31.176
33.6247
36.0473
38.4443
40.8144
43.1557
45.4652
47.7397
49.9757
52.1702
54.3202
56.4232
58.4769
60.4793
62.429
64.3245
66.165
67.9498
69.6785
71.3511
72.9676
74.5284
76.0341
77.4852
78.8827
80.2274
81.5205
82.763
83.9563
85.1016
86.2002
87.254
88.2716
438.958
506.103
595.825
694.291
783.232
850.147
890.754
906.926
904.208
888.882
865.814
838.047
807.182
774.275
740.467
707.064
674.876
644.315
614.989
586.483
558.653
531.651
505.74
481.064
457.548
434.959
413.064
391.774
371.17
351.422
332.674
314.939
298.065
281.76
265.655
249.368
232.516
214.677
195.334
173.951
150.3
124.934
99.5771
77.4393
62.8172
58.563
64.4039
78.7753
100.439
128.442
161.667
198.779
237.724
272.724
289.39
264.798
198.469
134.344
94.1867
73.0316
61.946
55.6704
52.1524
51.0952
52.4331
53.7557
52.0994
46.4687
38.1066
29.1062
21.0703
14.6511
9.89864
6.83525
5.33251
4.90655
5.07211
5.53566
6.14273
6.80821
7.48144
8.13169
8.74134
9.30141
9.80827
10.2611
10.6605
11.0074
11.3031
11.549
11.7468
11.8986
12.0068
12.0738
12.1034
12.0976
12.0631
11.9973
11.9214
11.7858
93.8745
98.5511
108.135
124.456
147.954
177.615
211.29
246.328
280.281
311.34
338.324
360.496
377.441
389.133
396.047
399.088
399.226
397.2
393.574
388.507
382.027
374.233
365.328
355.533
344.962
333.609
321.432
308.469
294.908
281.046
267.184
253.514
240.054
226.649
213.023
198.855
183.833
167.668
150.108
131.038
110.72
90.0275
70.5141
54.5227
44.9975
43.6812
50.1777
63.5223
83.2355
109.151
140.965
178.091
219.123
258.727
282.196
264.274
201.815
138.99
98.7396
77.0064
65.4054
58.8211
55.1899
54.0892
54.827
55.1738
52.4813
46.0445
37.2244
28.0859
20.136
13.9298
9.39995
6.46394
5.006
4.58906
4.74891
5.20112
5.79517
6.44667
7.1044
7.73716
8.32754
8.86746
9.35455
9.78931
10.1735
10.5089
10.7974
11.0407
11.2406
11.3986
11.517
11.5978
11.644
11.6572
11.6435
11.6005
11.5468
11.4432
20.1018
20.4759
21.1667
22.4658
24.6872
28.0373
32.7944
39.1712
47.2611
57.0379
68.35
80.9096
94.3023
108.044
121.677
134.852
147.336
158.864
169.312
178.541
186.393
192.741
197.528
200.744
202.385
202.42
200.823
197.633
192.994
187.155
180.404
172.983
165.02
156.508
147.329
137.313
126.304
114.206
101.018
86.9112
72.3405
58.1079
45.3299
35.5075
30.4376
31.117
37.3306
48.7039
65.2971
87.4929
115.716
150.316
191.086
234.095
265.891
260.89
208.106
147.632
106.342
83.0228
70.1846
62.8601
58.9117
57.516
57.451
56.6109
52.7212
45.3829
36.0887
26.8575
19.0619
13.1362
8.90442
6.14758
4.72922
4.28943
4.40989
4.82166
5.37986
6.00152
6.63435
7.24522
7.81505
8.33495
8.80255
9.21901
9.5869
9.90906
10.1881
10.4261
10.6251
10.7867
10.913
11.0055
11.0667
11.098
11.1044
11.084
11.0529
10.9822
8.63152
8.68926
8.76476
8.88272
9.07713
9.4041
9.90256
10.6254
11.6433
13.0345
14.8783
17.2469
20.1971
23.7652
27.9677
32.8038
38.2508
44.2421
50.6474
57.3266
64.1067
70.791
77.1776
83.0702
88.2777
92.6157
95.9211
98.0825
99.0684
98.9321
97.7855
95.7508
92.9142
89.3003
84.878
79.5924
73.4076
66.3464
58.5224
50.1741
41.697
33.6377
26.6761
21.7145
19.8092
21.5628
26.9998
36.1616
49.4013
67.3407
90.7917
120.841
158.722
202.844
241.959
251.497
213.22
157.988
115.971
90.5578
75.975
67.6153
63.3239
61.5285
60.3111
57.9836
52.6972
44.3746
34.6266
25.3772
17.8156
12.2247
8.33361
5.81098
4.46493
4.00294
4.06946
4.42097
4.92334
5.49862
6.09562
6.67959
7.22869
7.73148
8.18387
8.58625
8.94121
9.252
9.52183
9.7535
9.94941
10.1116
10.2419
10.3421
10.4144
10.4597
10.4826
10.4815
10.4702
10.4294
5.60416
5.61496
5.62751
5.6438
5.66735
5.70495
5.76458
5.85476
5.98844
6.18231
6.45633
6.83285
7.33572
7.98988
8.82184
9.8603
11.1349
12.6731
14.4844
16.5723
18.925
21.5127
24.2862
27.1767
30.0955
32.9352
35.5778
37.9081
39.8309
41.2814
42.2254
42.648
42.5369
41.8707
40.6185
38.7517
36.2647
33.1959
29.6428
25.773
21.8259
18.1008
14.9659
12.955
12.7362
14.7579
19.1941
26.2728
36.4443
50.372
68.9343
93.4391
126.01
167.795
211.519
234.665
213.553
167.229
126.107
98.8337
82.4036
73.0313
68.3585
65.9114
63.3991
59.1962
52.2906
42.9335
32.7973
23.6366
16.4048
11.2092
7.68608
5.42831
4.19009
3.72399
3.7386
4.0221
4.45519
4.96879
5.51633
6.06382
6.58751
7.07291
7.51301
7.90607
8.25338
8.55772
8.82227
9.0501
9.24399
9.40629
9.53922
9.64452
9.72449
9.78014
9.8156
9.82968
9.83418
9.81786
4.32648
4.32672
4.32672
4.32673
4.32709
4.32875
4.33301
4.34149
4.35679
4.38253
4.42337
4.48487
4.57358
4.69696
4.86321
5.08162
5.36259
5.71735
6.15524
6.68403
7.30935
8.03353
8.85452
9.76465
10.7491
11.7849
12.8406
13.8791
14.8607
15.7471
16.503
17.0952
17.4906
17.6544
17.552
17.1549
16.4496
15.4463
14.1859
12.7431
11.225
9.7687
8.56336
7.93267
8.32999
10.1179
13.5173
18.7931
26.3728
36.8654
51.0788
70.2043
96.4257
132.705
176.734
210.127
206.398
172.365
134.795
106.798
89.0274
79.0516
73.7162
70.2628
66.2096
59.9084
51.274
40.9415
30.5635
21.6434
14.8535
10.116
6.98441
5.00467
3.89722
3.44772
3.42224
3.64137
4.0017
4.44471
4.93118
5.43082
5.92014
6.38266
6.80845
7.19297
7.53537
7.83697
8.10019
8.32777
8.52244
8.6867
8.82293
8.93307
9.01949
9.0834
9.12867
9.15461
9.17152
9.17425
3.65733
3.65382
3.64962
3.64505
3.63997
3.6345
3.62887
3.62347
3.61902
3.61632
3.61647
3.62092
3.63146
3.65025
3.67989
3.72337
3.78423
3.86633
3.97352
4.10893
4.27553
4.47541
4.70964
4.97792
5.27817
5.60614
5.95515
6.31631
6.67901
7.03145
7.36088
7.65319
7.89246
8.06072
8.13897
8.10964
7.96
7.68638
7.298
6.8185
6.28674
5.75891
5.3291
5.1956
5.67185
7.04029
9.50383
13.2996
18.7849
26.4703
37.0467
51.5028
71.6321
100.829
140.914
179.374
190.655
170.908
139.925
113.181
95.2455
84.9289
78.66
73.8467
68.0204
59.6842
49.3983
38.2939
27.9095
19.4222
13.1967
8.97688
6.25433
4.5567
3.59102
3.17313
3.12103
3.28581
3.5783
3.94977
4.36924
4.81219
5.25779
5.68935
6.09501
6.46767
6.80402
7.10345
7.36699
7.59651
7.79428
7.96255
8.10366
8.21958
8.31272
8.38446
8.43848
8.4745
8.5017
8.51958
3.27204
3.26569
3.25882
3.25156
3.24388
3.2358
3.22734
3.21856
3.20961
3.20071
3.19216
3.18435
3.17779
3.1731
3.17109
3.17277
3.17937
3.19231
3.21315
3.24331
3.28411
3.33667
3.40179
3.47982
3.57059
3.6732
3.78597
3.90645
4.03155
4.15767
4.28073
4.396
4.4978
4.5793
4.63262
4.64959
4.62258
4.54738
4.42542
4.26287
4.07261
3.87657
3.71871
3.71485
4.08017
5.03137
6.73306
9.3721
13.2264
18.6985
26.3471
36.964
51.8854
73.9658
106.994
145.003
166.983
161.566
139.769
116.638
99.9479
89.3466
82.0263
75.689
68.0613
57.993
46.418
34.9244
24.8581
17.0238
11.4835
7.83023
5.52405
4.10423
3.28339
2.90527
2.83652
2.95796
3.19214
3.49745
3.85004
4.23189
4.62658
5.01918
5.39742
5.75244
6.07873
6.37363
6.63648
6.86793
7.0694
7.24262
7.3896
7.51219
7.61266
7.69246
7.75509
7.80051
7.83706
7.86788
3.04084
3.03193
3.02271
3.01316
3.00338
2.99331
2.98293
2.97224
2.96128
2.9501
2.9388
2.92749
2.91631
2.90546
2.89518
2.88579
2.87772
2.87149
2.86766
2.86686
2.86964
2.87656
2.88808
2.90454
2.9261
2.95266
2.98381
3.01885
3.05682
3.09651
3.13654
3.17523
3.21051
3.23979
3.25987
3.26728
3.25836
3.23148
3.18613
3.12353
3.0479
2.96775
2.90142
2.90888
3.13129
3.73737
4.85915
6.63337
9.26157
13.0445
18.4124
25.9816
36.7264
52.6447
77.4062
110.175
137.212
144.11
133.041
115.614
101.031
90.5457
82.4254
74.7823
65.6751
54.4141
42.1939
30.8507
21.4874
14.5287
9.77477
6.71733
4.82153
3.6662
2.98763
2.65317
2.57283
2.65897
2.84517
3.09356
3.38457
3.70574
4.04575
4.39307
4.73669
5.06726
5.37782
5.66386
5.92299
6.15443
6.35852
6.53623
6.68902
6.81841
6.92644
7.01447
7.08573
7.14035
7.18584
7.22856
2.90176
2.89045
2.87898
2.86733
2.85554
2.84359
2.83147
2.81915
2.80666
2.794
2.78119
2.76827
2.75527
2.74224
2.72925
2.71641
2.70384
2.69174
2.68029
2.66974
2.66029
2.65218
2.64564
2.64084
2.63794
2.63697
2.63789
2.64052
2.64457
2.64966
2.65531
2.66097
2.66589
2.66907
2.66927
2.6654
2.656
2.63991
2.61652
2.58605
2.54993
2.51147
2.47745
2.47284
2.57883
2.92403
3.62117
4.77025
6.5083
9.04556
12.6948
17.9156
25.417
36.4902
53.687
78.4726
104.467
119.304
118.643
108.428
96.7778
87.1183
78.8393
70.479
60.5322
48.8381
36.782
26.2153
17.9422
12.0458
8.13962
5.67893
4.1721
3.25898
2.71481
2.42679
2.33719
2.39127
2.53682
2.73816
2.97641
3.24195
3.5278
3.8265
4.12973
4.42916
4.71747
4.98898
5.23981
5.46776
5.67192
5.85232
6.00971
6.14513
6.26021
6.35612
6.43578
6.4993
6.55346
6.6075
2.81908
2.8057
2.79227
2.77876
2.76518
2.75152
2.73779
2.72398
2.71006
2.69605
2.68195
2.66776
2.65349
2.63915
2.62476
2.61036
2.59598
2.58169
2.56755
2.55363
2.53999
2.52673
2.51391
2.50161
2.4899
2.4788
2.46833
2.45845
2.44908
2.44015
2.43152
2.42312
2.41475
2.40605
2.39655
2.38576
2.37315
2.35824
2.34073
2.32062
2.29839
2.27531
2.2538
2.24165
2.27485
2.43879
2.83264
3.53844
4.64746
6.29701
8.69891
12.1751
17.2237
24.6744
36.0005
52.7888
73.323
90.1322
96.7881
93.8545
86.3118
78.4997
70.9513
62.6682
52.7223
41.5018
30.4851
21.2963
14.4252
9.69987
6.64605
4.75001
3.59556
2.89528
2.47194
2.23265
2.13783
2.16039
2.26746
2.42838
2.62303
2.84119
3.07774
3.32856
3.58859
3.85175
4.11164
4.36243
4.59938
4.81911
5.01954
5.19968
5.35941
5.49915
5.62001
5.72285
5.81017
5.88202
5.94435
6.00916
2.77197
2.75693
2.74188
2.72682
2.71175
2.69664
2.68152
2.66637
2.65119
2.63597
2.62072
2.60543
2.5901
2.57473
2.55933
2.5439
2.52846
2.51301
2.49759
2.48219
2.46685
2.45156
2.43634
2.42123
2.40622
2.39132
2.37654
2.36188
2.34732
2.33299
2.31886
2.30487
2.29096
2.27704
2.26297
2.24859
2.23375
2.21829
2.20211
2.18524
2.16785
2.1504
2.1338
2.12005
2.12008
2.17582
2.3631
2.7582
3.42927
4.46272
5.99194
8.22584
11.4924
16.313
23.4884
34.0103
47.8893
61.8723
70.9944
73.1179
70.0658
65.0743
59.1517
51.813
42.8297
33.0338
23.8399
16.4719
11.1636
7.60989
5.34974
3.95493
3.10381
2.58311
2.26282
2.07166
1.979
1.97335
2.04124
2.16296
2.3196
2.49855
2.69341
2.90109
3.11902
3.34376
3.57085
3.79538
4.01268
4.21878
4.41073
4.5866
4.7454
4.88682
5.01135
5.11945
5.2131
5.29221
5.36187
5.4366
2.74603
2.72978
2.71353
2.6973
2.68108
2.66486
2.64865
2.63244
2.61623
2.60001
2.58379
2.56757
2.55133
2.53509
2.51883
2.50257
2.48631
2.47004
2.45377
2.4375
2.42123
2.40494
2.38864
2.37232
2.35597
2.33957
2.32315
2.30678
2.29047
2.27422
2.25804
2.24192
2.22587
2.20986
2.1939
2.17795
2.16201
2.14606
2.13011
2.1142
2.09843
2.08294
2.06804
2.05434
2.04413
2.05076
2.11501
2.30043
2.66909
3.28106
4.21663
5.60136
7.63459
10.6257
15.0043
21.2697
29.6726
39.1163
46.9128
50.8401
50.9559
48.7817
44.8963
39.2106
32.0515
24.4242
17.5122
12.1387
8.35886
5.8638
4.28361
3.30426
2.70024
2.32489
2.08877
1.9411
1.85797
1.83281
1.86402
1.94506
2.06387
2.20784
2.36796
2.53942
2.71996
2.90788
3.10083
3.29562
3.48851
3.67579
3.85419
4.02115
4.17496
4.3146
4.4399
4.55083
4.64881
4.73353
4.80916
4.89249
2.73277
2.7157
2.69864
2.6816
2.66456
2.64754
2.63053
2.61353
2.59654
2.57957
2.5626
2.54564
2.52869
2.51175
2.49482
2.47789
2.46098
2.44407
2.42717
2.41027
2.39336
2.37644
2.35949
2.34251
2.32547
2.30838
2.29128
2.27422
2.25721
2.24024
2.22332
2.20646
2.18965
2.17292
2.15629
2.13978
2.12342
2.10726
2.09133
2.0757
2.0604
2.04549
2.03104
2.01722
2.00451
1.99567
2.00423
2.06599
2.23358
2.55962
3.09745
3.9192
5.13686
6.92009
9.49099
13.079
17.8173
23.357
28.5319
32.0271
33.4451
32.9818
30.8185
26.9965
22.0293
16.7971
12.1571
8.61188
6.13578
4.49881
3.45259
2.79444
2.38084
2.11813
1.94831
1.83729
1.76753
1.73351
1.73685
1.77943
1.8585
1.96657
2.09463
2.23546
2.38478
2.54054
2.70149
2.86604
3.03197
3.19655
3.35687
3.51031
3.65474
3.78861
3.91115
4.02182
4.12148
4.20953
4.28921
4.37917
2.72617
2.7086
2.69103
2.67347
2.65592
2.63837
2.62084
2.60331
2.58579
2.56829
2.5508
2.53332
2.51585
2.4984
2.48096
2.46354
2.44612
2.42873
2.41134
2.39397
2.37659
2.35921
2.34181
2.32438
2.30697
2.28957
2.27219
2.25483
2.23752
2.22025
2.20304
2.18589
2.16881
2.15184
2.13499
2.1183
2.10181
2.08557
2.06962
2.05402
2.03879
2.02394
2.00946
1.99534
1.98168
1.96897
1.96009
1.96702
2.01916
2.15973
2.43387
2.88824
3.58357
4.60578
6.0612
8.04712
10.6001
13.578
16.5296
18.8857
20.262
20.439
19.3799
17.1297
14.1125
10.9369
8.14335
6.01301
4.50839
3.49664
2.83613
2.4106
2.1363
1.95723
1.83774
1.75609
1.70019
1.66527
1.65232
1.66525
1.70712
1.77736
1.87142
1.98264
2.10481
2.23375
2.36727
2.50423
2.64358
2.78386
2.92313
3.05928
3.19027
3.31433
3.4303
3.53724
3.63543
3.72402
3.80529
3.89927
2.72317
2.70533
2.68747
2.66962
2.65176
2.63391
2.61605
2.5982
2.58035
2.56251
2.54468
2.52686
2.50904
2.49124
2.47345
2.45567
2.43791
2.42017
2.40243
2.38471
2.36699
2.34928
2.33155
2.31382
2.29612
2.27847
2.26086
2.24331
2.22582
2.20839
2.19103
2.17375
2.15657
2.1395
2.12258
2.10583
2.08928
2.073
2.057
2.04133
2.02601
2.01102
1.99632
1.98186
1.96758
1.95355
1.94029
1.93042
1.93351
1.97234
2.08168
2.29981
2.66555
3.22217
4.01594
5.08214
6.41766
7.94654
9.50033
10.8636
11.7714
12.0317
11.5536
10.3649
8.72347
6.98281
5.44945
4.25862
3.39573
2.79891
2.39769
2.13143
1.95449
1.83513
1.75243
1.69321
1.64967
1.61807
1.59826
1.59308
1.60672
1.64249
1.70108
1.78003
1.87445
1.97896
2.08933
2.20305
2.31887
2.43603
2.55361
2.67041
2.78496
2.89576
3.00157
3.10124
3.19462
3.28066
3.36072
3.45555
2.72174
2.70374
2.68574
2.66772
2.6497
2.63167
2.61364
2.5956
2.57756
2.55953
2.54149
2.52346
2.50544
2.48742
2.46941
2.45141
2.43342
2.41545
2.39748
2.37952
2.36157
2.34363
2.32571
2.30782
2.28997
2.27216
2.25441
2.23671
2.21909
2.20154
2.18407
2.1667
2.14944
2.1323
2.11531
2.0985
2.0819
2.06553
2.04945
2.03365
2.01816
2.00294
1.98796
1.97313
1.95837
1.94362
1.92895
1.91486
1.90342
1.90166
1.92633
2.00431
2.16647
2.44123
2.84997
3.40256
4.08572
4.85579
5.64868
6.36853
6.87772
7.06568
6.86255
6.28077
5.45484
4.56921
3.78007
3.14677
2.67194
2.33222
2.09615
1.93417
1.82268
1.74445
1.68773
1.64487
1.61123
1.58426
1.56327
1.5495
1.54597
1.55648
1.58415
1.63038
1.69417
1.77224
1.86008
1.95351
2.04966
2.14698
2.24476
2.34247
2.43944
2.5348
2.62765
2.71694
2.80234
2.88272
2.95863
3.05088
2.72109
2.70303
2.68495
2.66686
2.64875
2.63064
2.61251
2.59438
2.57624
2.5581
2.53995
2.52181
2.50366
2.48552
2.46738
2.44925
2.43112
2.413
2.39488
2.37678
2.35867
2.34058
2.32252
2.3045
2.28652
2.2686
2.25074
2.23295
2.21523
2.19759
2.18004
2.16259
2.14526
2.12806
2.111
2.09412
2.07744
2.06098
2.04477
2.02882
2.01313
1.99766
1.98238
1.9672
1.95203
1.93677
1.92139
1.90594
1.89083
1.87753
1.87091
1.88264
1.9321
2.04149
2.22709
2.49378
2.83031
3.21206
3.6105
3.97651
4.24488
4.35893
4.27782
4.00718
3.61307
3.18689
2.79581
2.47003
2.21684
2.02927
1.89429
1.79818
1.72917
1.6783
1.63928
1.60793
1.58163
1.55891
1.53917
1.52271
1.51094
1.50647
1.5125
1.53184
1.56612
1.6154
1.67777
1.7498
1.82761
1.90808
1.98926
2.07028
2.15076
2.23043
2.30897
2.38579
2.46066
2.5326
2.6016
2.68782
2.7207
2.7026
2.68449
2.66635
2.64821
2.63005
2.61188
2.59369
2.5755
2.5573
2.5391
2.52089
2.50268
2.48447
2.46626
2.44805
2.42984
2.41164
2.39344
2.37525
2.35707
2.33892
2.3208
2.30272
2.28467
2.26668
2.24875
2.23089
2.21309
2.19538
2.17777
2.16025
2.14285
2.12558
2.10845
2.09149
2.07471
2.05814
2.04179
2.02566
2.00976
1.99404
1.97847
1.96296
1.94743
1.93178
1.91592
1.89982
1.88352
1.86728
1.85212
1.8413
1.84235
1.86766
1.93034
2.03803
2.18725
2.36594
2.55971
2.74179
2.87996
2.94487
2.91497
2.79435
2.61592
2.41897
2.23096
2.06852
1.93777
1.83741
1.76234
1.70641
1.664
1.6307
1.60332
1.57974
1.55864
1.53926
1.52127
1.50474
1.49015
1.47871
1.47243
1.47391
1.48555
1.509
1.54488
1.59242
1.64939
1.71257
1.77882
1.84585
1.91246
1.97818
2.04301
2.10684
2.16982
2.23137
2.29125
2.3683
2.72046
2.70235
2.68421
2.66606
2.6479
2.62971
2.61152
2.59331
2.57509
2.55687
2.53863
2.52039
2.50214
2.48389
2.46565
2.44739
2.42914
2.41089
2.39264
2.3744
2.35618
2.33798
2.31982
2.3017
2.28361
2.26558
2.2476
2.22969
2.21185
2.19409
2.17642
2.15885
2.14139
2.12406
2.10686
2.08982
2.07295
2.05626
2.03977
2.02347
2.00736
1.99141
1.97557
1.95977
1.94392
1.92795
1.91174
1.89523
1.87837
1.86117
1.84381
1.82701
1.81276
1.80541
1.81152
1.83795
1.88745
1.95743
2.04172
2.12562
2.19212
2.22537
2.2149
2.1648
2.08882
2.00099
1.91391
1.83596
1.7709
1.71888
1.67799
1.6456
1.61918
1.59669
1.57667
1.55817
1.54061
1.52369
1.5073
1.49148
1.47643
1.46263
1.45093
1.4428
1.44022
1.44519
1.45926
1.48326
1.51719
1.5599
1.60916
1.66221
1.71661
1.77075
1.82398
1.87613
1.92755
1.97811
2.0277
2.0932
2.72026
2.70213
2.68399
2.66582
2.64764
2.62945
2.61124
2.59302
2.57478
2.55654
2.53829
2.52003
2.50176
2.48349
2.46521
2.44694
2.42866
2.41039
2.39212
2.37388
2.35564
2.33744
2.31925
2.30111
2.283
2.26494
2.24694
2.22899
2.21112
2.19332
2.17561
2.15799
2.14048
2.12309
2.10582
2.0887
2.07174
2.05494
2.03831
2.02186
2.00556
1.98939
1.97331
1.95725
1.94114
1.92489
1.9084
1.8916
1.8744
1.85677
1.8387
1.82032
1.80203
1.78495
1.77132
1.76456
1.76812
1.78385
1.80962
1.83902
1.86345
1.87503
1.87006
1.84993
1.81825
1.78038
1.74156
1.70552
1.6741
1.64754
1.62514
1.60581
1.58849
1.57235
1.5568
1.54151
1.52632
1.51116
1.49608
1.48113
1.46643
1.45219
1.43874
1.42669
1.41699
1.41107
1.41055
1.4168
1.43069
1.45258
1.48213
1.51814
1.55864
1.60137
1.64454
1.68703
1.72864
1.76924
1.80886
1.86179
2.72009
2.70196
2.68381
2.66563
2.64745
2.62924
2.61102
2.59279
2.57455
2.55629
2.53803
2.51976
2.50148
2.48319
2.46491
2.44661
2.42832
2.41003
2.39176
2.3735
2.35526
2.33704
2.31885
2.30069
2.28258
2.2645
2.24648
2.22851
2.21061
2.19279
2.17504
2.15739
2.13983
2.12239
2.10506
2.08787
2.07082
2.05392
2.03717
2.02058
2.00411
1.98776
1.97147
1.95519
1.93885
1.92237
1.90566
1.88864
1.87122
1.85334
1.83498
1.81607
1.79661
1.77696
1.75824
1.74221
1.73015
1.72316
1.72117
1.72204
1.72233
1.71963
1.71309
1.70202
1.68712
1.66996
1.65228
1.63534
1.61975
1.60554
1.59237
1.57976
1.56731
1.55471
1.54179
1.52851
1.51489
1.50103
1.487
1.4729
1.45881
1.44485
1.43114
1.41792
1.40556
1.39466
1.38617
1.38129
1.38121
1.3868
1.3985
1.41641
1.44014
1.4686
1.50021
1.5332
1.56635
1.59869
1.63002
1.67106
2.71995
2.70181
2.68365
2.66547
2.64727
2.62906
2.61084
2.5926
2.57435
2.55608
2.53781
2.51953
2.50124
2.48294
2.46464
2.44634
2.42804
2.40975
2.39148
2.37321
2.35497
2.33675
2.31855
2.30039
2.28226
2.26418
2.24614
2.22816
2.21024
2.19239
2.17461
2.15693
2.13933
2.12184
2.10446
2.08721
2.07008
2.05309
2.03624
2.01952
2.00291
1.9864
1.96993
1.95347
1.93694
1.92027
1.90338
1.88619
1.86861
1.85059
1.83208
1.81294
1.79305
1.7729
1.75379
1.73613
1.72008
1.70591
1.69357
1.68219
1.67072
1.65964
1.64923
1.63895
1.62862
1.61839
1.60847
1.59899
1.58987
1.58092
1.57184
1.56239
1.55235
1.54165
1.53027
1.51828
1.5058
1.49293
1.47981
1.46653
1.45315
1.43975
1.42636
1.41308
1.40001
1.38739
1.37559
1.36518
1.35697
1.35192
1.35084
1.35425
1.36239
1.37526
1.39255
1.41339
1.43669
1.4608
1.48508
1.51595
2.71982
2.70167
2.68351
2.66532
2.64712
2.6289
2.61067
2.59242
2.57416
2.55589
2.53761
2.51932
2.50102
2.48272
2.46442
2.44612
2.42782
2.40953
2.39125
2.37299
2.35474
2.33652
2.31832
2.30015
2.28201
2.26392
2.24587
2.22787
2.20994
2.19206
2.17427
2.15655
2.13892
2.12139
2.10397
2.08666
2.06947
2.0524
2.03546
2.01863
2.00191
1.98526
1.96865
1.95203
1.93535
1.91853
1.90151
1.88418
1.86649
1.84839
1.82981
1.81054
1.79053
1.77057
1.75173
1.734
1.71726
1.70139
1.68615
1.67078
1.65476
1.63953
1.6262
1.61459
1.60447
1.59556
1.5876
1.58025
1.57318
1.56604
1.55851
1.55037
1.54148
1.53182
1.52141
1.51036