/*--------------------------------*- C++ -*----------------------------------*\
| =========                 |                                                 |
| \\      /  F ield         | OpenFOAM: The Open Source CFD Toolbox           |
|  \\    /   O peration     | Version:  4.1                                   |
|   \\  /    A nd           | Web:      www.OpenFOAM.org                      |
|    \\/     M anipulation  |                                                 |
\*---------------------------------------------------------------------------*/
FoamFile
{
    version     2.0;
    format      ascii;
    class       volScalarField;
    location    "300";
    object      k;
}
// * * * * * * * * * * * * * * * * * * * * * * * * * * * * * * * * * * * * * //

dimensions      [0 2 -2 0 0 0 0];

internalField   nonuniform List<scalar> 
6820
(
0.241787
0.289666
0.336845
0.381953
0.42396
0.462122
0.495969
0.525298
0.550143
0.570712
0.587331
0.600391
0.610314
0.617518
0.622405
0.625344
0.626668
0.62667
0.625604
0.623689
0.621112
0.618029
0.614571
0.610847
0.606948
0.602947
0.598905
0.594873
0.590889
0.58699
0.583197
0.579608
0.577451
0.202474
0.204679
0.206995
0.209466
0.212038
0.214674
0.217352
0.220041
0.222711
0.225341
0.227915
0.230428
0.232879
0.235271
0.237613
0.239911
0.242178
0.244421
0.24665
0.248871
0.251092
0.253316
0.255549
0.257792
0.260046
0.262309
0.26458
0.266855
0.26913
0.271398
0.273652
0.275881
0.278571
0.199741
0.199215
0.198471
0.197595
0.196618
0.19557
0.194479
0.19336
0.192227
0.191089
0.189956
0.188837
0.187738
0.186666
0.185627
0.184626
0.183667
0.182754
0.18189
0.181079
0.180322
0.179618
0.178968
0.17837
0.177822
0.177325
0.176876
0.176473
0.176113
0.175795
0.175513
0.175269
0.17509
0.199153
0.198176
0.197113
0.195992
0.194808
0.193569
0.192295
0.190999
0.189691
0.188379
0.187071
0.185773
0.18449
0.183225
0.181981
0.180761
0.179568
0.178404
0.17727
0.176168
0.175098
0.174062
0.173059
0.17209
0.171155
0.170252
0.169381
0.168542
0.167734
0.166955
0.166206
0.165484
0.164788
0.198981
0.1979
0.196807
0.195699
0.194559
0.193388
0.192196
0.190992
0.189782
0.188571
0.187363
0.186162
0.184972
0.183795
0.182635
0.181492
0.18037
0.179268
0.178189
0.177134
0.176102
0.175095
0.174114
0.173157
0.172226
0.17132
0.170438
0.169582
0.168749
0.16794
0.167154
0.166391
0.165642
0.198926
0.197795
0.196678
0.195576
0.194473
0.193363
0.192248
0.191133
0.190018
0.188907
0.187803
0.186708
0.185625
0.184554
0.183498
0.182459
0.181436
0.180432
0.179447
0.178481
0.177534
0.176608
0.175703
0.174818
0.173953
0.173109
0.172285
0.171481
0.170697
0.169933
0.169188
0.168462
0.167745
0.198906
0.197755
0.196631
0.195537
0.194463
0.193398
0.192342
0.191293
0.190253
0.189221
0.1882
0.18719
0.186192
0.185207
0.184237
0.183282
0.182343
0.18142
0.180514
0.179625
0.178753
0.177899
0.177063
0.176245
0.175444
0.174662
0.173897
0.173149
0.172419
0.171706
0.171011
0.17033
0.169657
0.1989
0.19774
0.196611
0.195517
0.194452
0.193408
0.192382
0.191373
0.190379
0.1894
0.188436
0.187485
0.18655
0.185629
0.184724
0.183834
0.18296
0.182102
0.181261
0.180435
0.179626
0.178834
0.178058
0.177298
0.176554
0.175827
0.175115
0.17442
0.17374
0.173076
0.172427
0.171791
0.171161
0.198897
0.197734
0.196603
0.195508
0.194448
0.193415
0.192408
0.191423
0.19046
0.189516
0.18859
0.187682
0.186791
0.185917
0.18506
0.184218
0.183394
0.182585
0.181792
0.181016
0.180255
0.17951
0.178781
0.178067
0.177369
0.176686
0.176017
0.175364
0.174725
0.1741
0.17349
0.172892
0.172298
0.198896
0.197732
0.1966
0.195505
0.194445
0.193417
0.192417
0.191443
0.190495
0.18957
0.188667
0.187784
0.186922
0.186078
0.185252
0.184445
0.183655
0.182881
0.182125
0.181385
0.180661
0.179952
0.17926
0.178582
0.17792
0.177272
0.176638
0.176019
0.175414
0.174823
0.174245
0.173679
0.173116
0.198896
0.197731
0.196599
0.195504
0.194444
0.193417
0.192421
0.191454
0.190514
0.1896
0.18871
0.187843
0.186998
0.186174
0.18537
0.184585
0.183819
0.183071
0.18234
0.181626
0.180929
0.180247
0.179582
0.178931
0.178296
0.177675
0.177068
0.176475
0.175896
0.17533
0.174778
0.174236
0.173698
0.198896
0.19773
0.196599
0.195504
0.194444
0.193418
0.192423
0.191458
0.190521
0.189612
0.188729
0.18787
0.187034
0.186221
0.185429
0.184658
0.183907
0.183174
0.18246
0.181763
0.181084
0.180421
0.179774
0.179143
0.178527
0.177925
0.177339
0.176766
0.176206
0.17566
0.175127
0.174605
0.174087
0.198896
0.19773
0.196599
0.195504
0.194444
0.193418
0.192424
0.19146
0.190525
0.189618
0.188738
0.187884
0.187053
0.186247
0.185462
0.184699
0.183957
0.183234
0.182531
0.181845
0.181178
0.180527
0.179893
0.179275
0.178673
0.178085
0.177512
0.176953
0.176408
0.175876
0.175357
0.174849
0.174345
0.198896
0.19773
0.196599
0.195504
0.194445
0.193419
0.192425
0.191461
0.190527
0.189621
0.188743
0.18789
0.187062
0.186258
0.185477
0.184718
0.183981
0.183263
0.182566
0.181887
0.181226
0.180583
0.179957
0.179347
0.178753
0.178174
0.177611
0.177061
0.176525
0.176003
0.175494
0.174996
0.174502
0.198896
0.19773
0.196599
0.195505
0.194445
0.193419
0.192425
0.191462
0.190528
0.189623
0.188745
0.187893
0.187067
0.186264
0.185485
0.184729
0.183994
0.18328
0.182585
0.18191
0.181254
0.180615
0.179994
0.179389
0.1788
0.178227
0.177669
0.177126
0.176597
0.176081
0.175578
0.175087
0.1746
0.198896
0.19773
0.196599
0.195505
0.194446
0.19342
0.192426
0.191463
0.190529
0.189624
0.188746
0.187895
0.187069
0.186268
0.185489
0.184734
0.184
0.183287
0.182595
0.181921
0.181267
0.180631
0.180012
0.17941
0.178824
0.178254
0.1777
0.17716
0.176634
0.176122
0.175624
0.175137
0.174654
0.198896
0.19773
0.1966
0.195505
0.194446
0.19342
0.192426
0.191463
0.19053
0.189625
0.188747
0.187896
0.187071
0.186269
0.185492
0.184737
0.184004
0.183292
0.1826
0.181928
0.181275
0.18064
0.180022
0.179422
0.178838
0.17827
0.177717
0.17718
0.176656
0.176147
0.175651
0.175166
0.174686
0.198896
0.19773
0.1966
0.195505
0.194446
0.19342
0.192427
0.191464
0.19053
0.189626
0.188748
0.187897
0.187072
0.186271
0.185493
0.184739
0.184006
0.183294
0.182603
0.181931
0.181278
0.180644
0.180027
0.179428
0.178845
0.178278
0.177726
0.17719
0.176667
0.176159
0.175664
0.175181
0.174702
0.198896
0.197729
0.1966
0.195506
0.194446
0.193421
0.192427
0.191464
0.190531
0.189626
0.188749
0.187898
0.187073
0.186272
0.185494
0.18474
0.184007
0.183296
0.182605
0.181933
0.181281
0.180647
0.180031
0.179432
0.178849
0.178283
0.177732
0.177196
0.176674
0.176167
0.175673
0.17519
0.174712
0.198896
0.197729
0.1966
0.195506
0.194446
0.193421
0.192427
0.191464
0.190531
0.189627
0.188749
0.187899
0.187073
0.186272
0.185495
0.184741
0.184008
0.183297
0.182606
0.181935
0.181283
0.180649
0.180033
0.179434
0.178852
0.178286
0.177735
0.177199
0.176678
0.176171
0.175677
0.175195
0.174718
0.198896
0.197729
0.1966
0.195506
0.194447
0.193421
0.192427
0.191465
0.190532
0.189627
0.18875
0.187899
0.187074
0.186273
0.185496
0.184742
0.184009
0.183298
0.182607
0.181936
0.181284
0.18065
0.180034
0.179436
0.178854
0.178288
0.177737
0.177201
0.17668
0.176174
0.17568
0.175198
0.174721
0.198896
0.197729
0.1966
0.195506
0.194447
0.193421
0.192428
0.191465
0.190532
0.189627
0.18875
0.1879
0.187074
0.186274
0.185497
0.184742
0.18401
0.183299
0.182608
0.181937
0.181285
0.180651
0.180036
0.179437
0.178855
0.178289
0.177738
0.177203
0.176682
0.176175
0.175682
0.1752
0.174723
0.198896
0.197729
0.1966
0.195506
0.194447
0.193421
0.192428
0.191465
0.190532
0.189628
0.188751
0.1879
0.187075
0.186274
0.185497
0.184743
0.18401
0.183299
0.182609
0.181938
0.181286
0.180652
0.180036
0.179438
0.178856
0.17829
0.177739
0.177204
0.176683
0.176176
0.175683
0.175201
0.174725
0.198896
0.19773
0.1966
0.195506
0.194447
0.193421
0.192428
0.191465
0.190532
0.189628
0.188751
0.1879
0.187075
0.186274
0.185497
0.184743
0.184011
0.1833
0.182609
0.181938
0.181286
0.180653
0.180037
0.179438
0.178856
0.178291
0.17774
0.177205
0.176684
0.176177
0.175684
0.175202
0.174725
0.198896
0.197729
0.1966
0.195506
0.194447
0.193421
0.192428
0.191465
0.190532
0.189628
0.188751
0.1879
0.187075
0.186274
0.185497
0.184743
0.184011
0.1833
0.182609
0.181938
0.181286
0.180653
0.180037
0.179438
0.178856
0.17829
0.17774
0.177205
0.176684
0.176177
0.175684
0.175202
0.174725
0.198896
0.197729
0.1966
0.195506
0.194447
0.193421
0.192428
0.191465
0.190532
0.189628
0.188751
0.1879
0.187075
0.186274
0.185497
0.184743
0.184011
0.1833
0.182609
0.181938
0.181286
0.180653
0.180037
0.179438
0.178856
0.17829
0.17774
0.177205
0.176684
0.176177
0.175684
0.175202
0.174725
0.198896
0.197729
0.1966
0.195506
0.194447
0.193421
0.192428
0.191465
0.190532
0.189628
0.188751
0.1879
0.187075
0.186274
0.185497
0.184743
0.18401
0.183299
0.182608
0.181937
0.181285
0.180652
0.180036
0.179437
0.178855
0.178289
0.177739
0.177203
0.176682
0.176175
0.175682
0.1752
0.174723
0.198896
0.197729
0.1966
0.195506
0.194447
0.193421
0.192428
0.191465
0.190532
0.189628
0.188751
0.1879
0.187075
0.186274
0.185497
0.184743
0.18401
0.183299
0.182608
0.181937
0.181285
0.180652
0.180036
0.179437
0.178855
0.178289
0.177739
0.177203
0.176682
0.176175
0.175682
0.1752
0.174723
0.198896
0.197729
0.1966
0.195506
0.194447
0.193421
0.192428
0.191465
0.190532
0.189627
0.18875
0.187899
0.187074
0.186273
0.185496
0.184741
0.184009
0.183297
0.182606
0.181935
0.181283
0.180649
0.180033
0.179434
0.178852
0.178286
0.177735
0.177199
0.176678
0.176171
0.175678
0.175196
0.174719
0.198896
0.197729
0.1966
0.195506
0.194447
0.193421
0.192427
0.191465
0.190532
0.189627
0.18875
0.187899
0.187074
0.186273
0.185496
0.184742
0.184009
0.183298
0.182607
0.181936
0.181284
0.18065
0.180034
0.179435
0.178853
0.178287
0.177736
0.1772
0.176679
0.176172
0.175678
0.175196
0.174719
0.198896
0.197729
0.1966
0.195506
0.194447
0.193421
0.192427
0.191464
0.190531
0.189626
0.188749
0.187898
0.187072
0.186271
0.185493
0.184738
0.184006
0.183294
0.182603
0.181931
0.181278
0.180644
0.180028
0.179429
0.178846
0.17828
0.177728
0.177192
0.176671
0.176163
0.175669
0.175187
0.174709
0.198896
0.197729
0.1966
0.195506
0.194446
0.193421
0.192427
0.191464
0.190531
0.189627
0.18875
0.187899
0.187074
0.186273
0.185496
0.184741
0.184008
0.183297
0.182606
0.181934
0.181281
0.180647
0.18003
0.179431
0.178848
0.178281
0.177729
0.177193
0.176671
0.176163
0.175668
0.175185
0.174706
0.198896
0.19773
0.1966
0.195505
0.194446
0.19342
0.192426
0.191462
0.190528
0.189623
0.188745
0.187893
0.187067
0.186266
0.185488
0.184732
0.183999
0.183286
0.182594
0.181922
0.181268
0.180633
0.180015
0.179415
0.17883
0.178262
0.177709
0.177171
0.176648
0.176138
0.175642
0.175157
0.174677
0.198896
0.19773
0.1966
0.195506
0.194447
0.193422
0.192429
0.191467
0.190534
0.18963
0.188753
0.187902
0.187076
0.186274
0.185496
0.18474
0.184005
0.183292
0.182598
0.181924
0.181268
0.180631
0.180011
0.179407
0.178821
0.178249
0.177693
0.177152
0.176625
0.176112
0.175612
0.175123
0.174639
0.198896
0.19773
0.1966
0.195504
0.194443
0.193416
0.192421
0.191457
0.190523
0.189617
0.188738
0.187885
0.187057
0.186254
0.185473
0.184714
0.183976
0.183259
0.182561
0.181883
0.181223
0.18058
0.179955
0.179346
0.178753
0.178176
0.177614
0.177066
0.176533
0.176013
0.175507
0.175012
0.174521
0.198897
0.197733
0.196606
0.195516
0.194462
0.193441
0.192451
0.19149
0.190557
0.189651
0.188771
0.187915
0.187084
0.186275
0.185488
0.184722
0.183977
0.183251
0.182545
0.181856
0.181186
0.180533
0.179897
0.179277
0.178673
0.178084
0.17751
0.176951
0.176406
0.175874
0.175356
0.174849
0.174346
0.1989
0.197735
0.196605
0.195515
0.194465
0.19345
0.192465
0.191509
0.19058
0.189676
0.188797
0.18794
0.187106
0.186293
0.1855
0.184728
0.183975
0.18324
0.182524
0.181827
0.181146
0.180483
0.179836
0.179206
0.178592
0.177993
0.177409
0.17684
0.176285
0.175744
0.175217
0.174702
0.174192
0.198944
0.197852
0.196795
0.195774
0.194787
0.193829
0.192896
0.191988
0.191103
0.190242
0.189402
0.188582
0.187784
0.187005
0.186246
0.185506
0.184784
0.184081
0.183395
0.182727
0.182077
0.181443
0.180826
0.180225
0.17964
0.17907
0.178516
0.177977
0.177452
0.176942
0.176445
0.175962
0.175486
0.199227
0.198571
0.198048
0.197613
0.197233
0.196892
0.196585
0.196308
0.196056
0.195826
0.195617
0.195428
0.195256
0.195102
0.194963
0.19484
0.194731
0.194636
0.194554
0.194485
0.194427
0.19438
0.194344
0.194318
0.194302
0.194295
0.194296
0.194305
0.194322
0.194346
0.194377
0.194415
0.194463
0.209515
0.220347
0.230808
0.240929
0.250732
0.260231
0.269435
0.278348
0.286973
0.295313
0.303372
0.311152
0.318657
0.325891
0.332858
0.339562
0.346008
0.352203
0.358152
0.363861
0.369336
0.374584
0.379612
0.384427
0.389035
0.393444
0.39766
0.401691
0.405543
0.409222
0.412736
0.416093
0.419322
0.645301
0.804478
0.980269
1.16156
1.32416
1.45735
1.5602
1.63674
1.6932
1.73536
1.76705
1.79067
1.80746
1.81844
1.82476
1.82771
1.82794
1.82612
1.82178
1.81476
1.8052
1.79351
1.78012
1.76526
1.74884
1.73054
1.71011
1.68753
1.66302
1.63693
1.60941
1.58029
1.54892
1.51421
1.47471
1.42871
1.37432
1.30957
1.23284
1.14396
1.04642
0.950917
0.881089
0.875753
0.964417
1.13084
1.33237
1.53798
1.7314
1.90172
2.03894
2.13383
2.17843
2.16392
2.07604
1.88506
1.59533
1.31657
1.12252
1.00849
0.944515
0.904236
0.871123
0.835572
0.788902
0.727258
0.652298
0.571974
0.495557
0.429767
0.379095
0.348287
0.342491
0.361381
0.395587
0.435114
0.475023
0.513249
0.548565
0.580138
0.607521
0.630612
0.649565
0.664683
0.676336
0.684896
0.690712
0.694094
0.695315
0.694614
0.692202
0.688269
0.682993
0.67653
0.669051
0.660687
0.651705
0.642267
0.633447
0.626403
0.286
0.304792
0.338867
0.391649
0.462076
0.545832
0.637498
0.731545
0.823371
0.909737
0.988638
1.05909
1.12092
1.17466
1.22135
1.26215
1.29788
1.329
1.35607
1.37903
1.39785
1.41259
1.42337
1.43026
1.43319
1.43202
1.42669
1.41733
1.40432
1.38808
1.36891
1.34676
1.32109
1.29096
1.25509
1.21203
1.16034
1.09882
1.02693
0.945825
0.859957
0.779951
0.727996
0.740023
0.840285
1.00846
1.20473
1.404
1.59437
1.7677
1.91546
2.0284
2.09686
2.10851
2.04607
1.88089
1.617
1.3568
1.17021
1.05479
0.983789
0.933683
0.889879
0.843607
0.787427
0.7186
0.639507
0.557624
0.481073
0.415473
0.364506
0.332592
0.325511
0.343944
0.378333
0.418002
0.457868
0.495958
0.531091
0.562436
0.589535
0.612297
0.630905
0.6457
0.657092
0.665484
0.671247
0.674701
0.676117
0.675729
0.673735
0.670312
0.665622
0.659804
0.653016
0.645376
0.637132
0.628447
0.62032
0.613892
0.175218
0.176455
0.179384
0.185108
0.19485
0.210044
0.231615
0.260065
0.295384
0.337028
0.383995
0.434989
0.488638
0.543692
0.599118
0.654051
0.707647
0.758869
0.807314
0.852509
0.89404
0.931571
0.964814
0.993482
1.01728
1.03596
1.04943
1.05776
1.06124
1.06021
1.0549
1.04528
1.03097
1.01125
0.985184
0.951803
0.910272
0.860169
0.801885
0.737302
0.67092
0.61226
0.581219
0.609931
0.717014
0.880302
1.06513
1.25236
1.43393
1.60444
1.75767
1.88569
1.97851
2.02105
1.9924
1.86631
1.64017
1.4012
1.2193
1.09875
1.0182
0.957441
0.903408
0.847486
0.78288
0.708007
0.62566
0.542759
0.466417
0.401307
0.350268
0.31703
0.307696
0.32453
0.358373
0.397633
0.436887
0.474328
0.508943
0.539943
0.566836
0.589472
0.607997
0.622739
0.634114
0.642544
0.648416
0.652065
0.653772
0.653772
0.65226
0.649405
0.645355
0.640242
0.634206
0.627356
0.619921
0.612062
0.604699
0.59894
0.163935
0.163188
0.162638
0.162476
0.16293
0.164288
0.166945
0.17132
0.177821
0.186823
0.198648
0.213549
0.231721
0.253305
0.278362
0.30682
0.338376
0.372442
0.408232
0.445064
0.4822
0.518885
0.55436
0.587872
0.618704
0.646236
0.670007
0.689755
0.705392
0.716916
0.724284
0.727297
0.725558
0.71849
0.705442
0.685828
0.659305
0.625971
0.586645
0.543282
0.499773
0.464098
0.453585
0.496034
0.604668
0.757767
0.926976
1.09841
1.2669
1.42917
1.58129
1.71774
1.83023
1.90331
1.91172
1.82873
1.64763
1.43552
1.26007
1.13438
1.04427
0.973259
0.909739
0.845223
0.773454
0.693662
0.608938
0.525691
0.450132
0.386091
0.335612
0.301464
0.289422
0.303522
0.336094
0.374608
0.412883
0.449228
0.482928
0.513355
0.540019
0.56269
0.581411
0.596434
0.608126
0.616892
0.62312
0.627152
0.629283
0.629756
0.628774
0.626506
0.623101
0.618684
0.61339
0.607321
0.600691
0.593656
0.58706
0.581956
0.164695
0.163757
0.162856
0.162033
0.161333
0.160815
0.160572
0.160723
0.161402
0.162754
0.164932
0.168094
0.172405
0.178044
0.185204
0.194069
0.204784
0.217418
0.231904
0.248177
0.266093
0.285423
0.305845
0.326939
0.34821
0.369129
0.389186
0.40793
0.424975
0.439966
0.452529
0.462224
0.468527
0.470869
0.46871
0.461643
0.449514
0.432553
0.411527
0.387999
0.364946
0.348772
0.354145
0.404178
0.507919
0.646338
0.797326
0.950882
1.10379
1.25418
1.39967
1.53686
1.6602
1.75701
1.80139
1.76281
1.62942
1.44947
1.28492
1.15697
1.05931
0.979737
0.908217
0.836463
0.758759
0.675112
0.588872
0.505981
0.431825
0.369463
0.320229
0.285891
0.271244
0.281568
0.311869
0.349347
0.386553
0.421587
0.454048
0.483587
0.509824
0.532493
0.551529
0.567062
0.579365
0.588779
0.595658
0.600333
0.6031
0.604208
0.603869
0.602261
0.599538
0.59583
0.59127
0.585963
0.580111
0.573871
0.568008
0.563507
0.166838
0.165921
0.165006
0.164105
0.163231
0.162401
0.161641
0.16099
0.160491
0.160195
0.160163
0.160458
0.161152
0.162325
0.164059
0.166444
0.169561
0.17348
0.178239
0.183867
0.190382
0.197783
0.206038
0.215079
0.224797
0.235045
0.24565
0.256416
0.267121
0.277498
0.287216
0.295871
0.302993
0.308088
0.310698
0.310475
0.307263
0.301169
0.292662
0.282741
0.273466
0.269778
0.283705
0.33399
0.427182
0.547948
0.679452
0.814308
0.950427
1.08685
1.22217
1.35428
1.47973
1.58988
1.66245
1.66647
1.58061
1.43669
1.28854
1.16295
1.06118
0.975539
0.897911
0.820546
0.73834
0.652023
0.565219
0.483469
0.411406
0.35138
0.304084
0.270372
0.253716
0.259655
0.286394
0.322266
0.358415
0.3922
0.423325
0.451752
0.477311
0.499787
0.519055
0.535134
0.548176
0.55843
0.566184
0.571733
0.57535
0.577282
0.577744
0.576917
0.574965
0.572023
0.56823
0.563696
0.558616
0.55315
0.547993
0.544042
0.168806
0.16794
0.16707
0.166201
0.165339
0.164488
0.163657
0.162856
0.162099
0.161406
0.1608
0.160308
0.159963
0.159802
0.159864
0.160192
0.160827
0.161808
0.163164
0.164915
0.167082
0.169676
0.172701
0.176155
0.180022
0.184278
0.188891
0.193816
0.198989
0.20431
0.209634
0.214754
0.219413
0.223319
0.226182
0.227764
0.227922
0.226659
0.22419
0.221072
0.218646
0.220557
0.236271
0.280956
0.360288
0.462504
0.574567
0.690787
0.809728
0.930996
1.05387
1.17696
1.29804
1.41185
1.50281
1.54224
1.50089
1.39482
1.26808
1.15011
1.04845
0.959865
0.878461
0.797326
0.712097
0.624279
0.537883
0.458112
0.388893
0.331902
0.287243
0.25497
0.237187
0.23877
0.260703
0.293964
0.328875
0.36158
0.391496
0.418772
0.443483
0.465554
0.484871
0.501382
0.515136
0.526275
0.535005
0.541562
0.546183
0.549093
0.5505
0.550585
0.549512
0.547424
0.544464
0.540748
0.536468
0.531783
0.527332
0.523906
0.170366
0.169554
0.168737
0.167916
0.167094
0.166273
0.165454
0.164641
0.16384
0.163058
0.162304
0.16159
0.160931
0.160342
0.159844
0.159458
0.159204
0.159106
0.159185
0.159456
0.159935
0.160633
0.16156
0.162719
0.164113
0.165738
0.167591
0.169663
0.171936
0.174378
0.176933
0.179515
0.182008
0.184272
0.186162
0.187546
0.188337
0.188515
0.188176
0.187622
0.187696
0.190928
0.204343
0.240191
0.30452
0.388906
0.482739
0.581233
0.68332
0.788982
0.897984
1.00945
1.12173
1.23164
1.33051
1.39511
1.39295
1.32484
1.22346
1.11805
1.02079
0.932582
0.849874
0.766735
0.679838
0.591664
0.50673
0.429906
0.364393
0.311198
0.269875
0.23981
0.221879
0.219723
0.236039
0.265375
0.298462
0.330131
0.359058
0.38531
0.409137
0.430644
0.449807
0.466564
0.480895
0.492849
0.502545
0.510145
0.515838
0.519816
0.522267
0.523362
0.523265
0.522117
0.520064
0.517226
0.513794
0.509923
0.506202
0.503307
0.171551
0.170786
0.170015
0.16924
0.168461
0.167679
0.166895
0.16611
0.165326
0.164546
0.163773
0.163011
0.162268
0.161549
0.160865
0.160225
0.159641
0.159125
0.158691
0.15835
0.158115
0.157995
0.158001
0.158139
0.158415
0.158833
0.159394
0.160099
0.160942
0.161914
0.162992
0.16414
0.165308
0.166432
0.167444
0.168281
0.168896
0.169275
0.169463
0.169628
0.170271
0.172998
0.182582
0.208566
0.257941
0.325833
0.403271
0.485619
0.571833
0.662101
0.756583
0.854844
0.955641
1.05682
1.15397
1.23145
1.26014
1.22837
1.15531
1.06689
0.978127
0.89352
0.81184
0.728213
0.640934
0.553725
0.471586
0.398925
0.338142
0.289562
0.25225
0.225068
0.207917
0.203038
0.213613
0.237719
0.267944
0.298289
0.326372
0.351816
0.374856
0.395741
0.414581
0.431373
0.446083
0.458698
0.469258
0.477853
0.484611
0.489681
0.49322
0.495384
0.496326
0.496184
0.495102
0.493201
0.490669
0.487653
0.484698
0.482362
0.172409
0.171683
0.170953
0.170218
0.169478
0.168734
0.167985
0.167234
0.166479
0.165722
0.164964
0.164208
0.163455
0.162709
0.161975
0.161256
0.160559
0.159889
0.159255
0.158665
0.158126
0.157646
0.157233
0.156894
0.156635
0.156463
0.15638
0.156389
0.156493
0.156686
0.156962
0.157306
0.157698
0.158109
0.158509
0.158869
0.159166
0.159392
0.159573
0.159796
0.160339
0.162113
0.167997
0.184736
0.219801
0.272345
0.335178
0.403279
0.475151
0.550907
0.630942
0.715247
0.803032
0.892709
0.981637
1.06023
1.10757
1.10658
1.06278
0.995046
0.918652
0.840759
0.762353
0.679929
0.594109
0.509868
0.432412
0.365473
0.310595
0.267465
0.234758
0.210982
0.195368
0.188926
0.194382
0.212383
0.238412
0.266666
0.293767
0.318572
0.341017
0.361347
0.379785
0.396433
0.411299
0.424363
0.435613
0.445076
0.452819
0.45894
0.463558
0.466804
0.468812
0.469713
0.469643
0.468724
0.467133
0.465012
0.462863
0.461117
0.173023
0.17233
0.171632
0.170929
0.170222
0.16951
0.168793
0.168072
0.167347
0.166619
0.165886
0.165152
0.164415
0.163679
0.162943
0.162212
0.161486
0.160771
0.160068
0.159384
0.158723
0.158091
0.157492
0.156933
0.156419
0.155955
0.155545
0.155193
0.154901
0.154671
0.1545
0.154384
0.154316
0.154285
0.154278
0.154284
0.154293
0.154303
0.154327
0.15441
0.154693
0.155636
0.158756
0.168142
0.190336
0.228238
0.277624
0.333195
0.392514
0.455218
0.521656
0.592094
0.666235
0.742917
0.820439
0.892134
0.945105
0.964188
0.945874
0.900011
0.838985
0.77079
0.698191
0.619673
0.538373
0.460075
0.389755
0.330322
0.28253
0.245574
0.217893
0.197835
0.184268
0.177324
0.17884
0.190657
0.211249
0.236215
0.261727
0.285804
0.307806
0.327744
0.345827
0.362243
0.377087
0.390375
0.402095
0.412237
0.420818
0.427885
0.433516
0.437807
0.440868
0.442815
0.443773
0.443857
0.443236
0.44204
0.440725
0.4396
0.173436
0.172768
0.172097
0.17142
0.170739
0.170054
0.169364
0.168669
0.167971
0.167268
0.16656
0.165849
0.165134
0.164416
0.163696
0.162975
0.162253
0.161533
0.160817
0.160106
0.159406
0.158718
0.158045
0.157393
0.156765
0.156164
0.155595
0.155061
0.154564
0.154106
0.153689
0.153313
0.152975
0.152674
0.152405
0.152166
0.151955
0.151771
0.151624
0.151534
0.151568
0.151935
0.153338
0.157861
0.169918
0.194148
0.2304
0.274448
0.322812
0.374189
0.428515
0.486052
0.54684
0.610293
0.675054
0.736102
0.785483
0.812642
0.811267
0.784138
0.738977
0.682611
0.618679
0.547726
0.474851
0.405896
0.345205
0.294878
0.255074
0.224718
0.202201
0.185906
0.174615
0.167973
0.166938
0.173381
0.187894
0.208262
0.23111
0.253913
0.27537
0.295028
0.312889
0.329112
0.343852
0.357197
0.369172
0.379773
0.388994
0.396845
0.403363
0.408609
0.412664
0.415621
0.417589
0.418671
0.419024
0.418765
0.418302
0.417814
0.173713
0.173065
0.172413
0.171756
0.171095
0.17043
0.169761
0.169088
0.168411
0.167729
0.167043
0.166353
0.165659
0.164961
0.16426
0.163555
0.162848
0.162139
0.16143
0.160721
0.160015
0.159314
0.158619
0.157933
0.157259
0.156601
0.155959
0.155338
0.154739
0.154165
0.153617
0.153097
0.152606
0.152146
0.151715
0.151316
0.150949
0.150618
0.150326
0.150085
0.149923
0.149928
0.150393
0.152228
0.157742
0.170791
0.194185
0.226733
0.265026
0.306613
0.350581
0.396841
0.445478
0.496312
0.548333
0.597764
0.63923
0.665951
0.672409
0.657951
0.62626
0.582039
0.528869
0.468815
0.407718
0.350752
0.301392
0.261056
0.22955
0.205749
0.188177
0.175415
0.166368
0.160508
0.158177
0.160683
0.169438
0.184284
0.203191
0.223713
0.244074
0.2633
0.281002
0.297136
0.31181
0.325146
0.337228
0.348092
0.357743
0.36618
0.373416
0.379478
0.384419
0.388305
0.391226
0.393268
0.394572
0.395238
0.395621
0.395773
0.173883
0.173249
0.172611
0.171969
0.171324
0.170674
0.170021
0.169364
0.168704
0.168039
0.16737
0.166698
0.166021
0.165341
0.164656
0.163968
0.163277
0.162583
0.161886
0.161188
0.16049
0.159793
0.159097
0.158406
0.15772
0.157041
0.156372
0.155714
0.15507
0.15444
0.153828
0.153234
0.152661
0.152111
0.151585
0.151087
0.150619
0.150183
0.149783
0.149426
0.149122
0.148905
0.148887
0.149424
0.151506
0.157282
0.169767
0.190687
0.218788
0.251386
0.286522
0.323356
0.361668
0.401371
0.441737
0.480066
0.512576
0.534835
0.54295
0.535397
0.513491
0.480112
0.438277
0.390784
0.343002
0.298994
0.261302
0.230805
0.207152
0.189336
0.176148
0.166467
0.159433
0.154547
0.151823
0.151954
0.156192
0.165484
0.179442
0.196461
0.214742
0.232943
0.250257
0.266304
0.280984
0.294349
0.306495
0.3175
0.327408
0.336239
0.344001
0.350707
0.356386
0.36108
0.364857
0.367784
0.369981
0.371531
0.37273
0.373504
0.17399
0.173365
0.172737
0.172106
0.171471
0.170833
0.170191
0.169546
0.168897
0.168245
0.167589
0.16693
0.166267
0.1656
0.16493
0.164256
0.163579
0.162899
0.162215
0.16153
0.160843
0.160155
0.159467
0.15878
0.158096
0.157415
0.156738
0.156068
0.155406
0.154753
0.154111
0.153482
0.152867
0.152269
0.15169
0.151133
0.150601
0.150096
0.149622
0.14918
0.148777
0.148423
0.148156
0.148105
0.148643
0.150696
0.156053
0.166984
0.184671
0.208106
0.235146
0.264073
0.294004
0.324589
0.355195
0.383926
0.408177
0.425009
0.431877
0.427458
0.412109
0.387597
0.35625
0.321114
0.286198
0.254365
0.227308
0.205507
0.188595
0.175787
0.166195
0.159029
0.153679
0.149755
0.147151
0.146148
0.147505
0.152262
0.161079
0.173606
0.188643
0.204833
0.221102
0.236741
0.251353
0.264783
0.277028
0.288153
0.298228
0.307308
0.315424
0.322595
0.328842
0.334194
0.338695
0.342398
0.345398
0.347758
0.349713
0.351075
0.174049
0.173431
0.17281
0.172185
0.171557
0.170926
0.170292
0.169655
0.169015
0.168372
0.167725
0.167076
0.166423
0.165766
0.165107
0.164444
0.163778
0.163109
0.162437
0.161763
0.161086
0.160408
0.159729
0.15905
0.158372
0.157695
0.157021
0.15635
0.155684
0.155023
0.15437
0.153725
0.153091
0.152469
0.151862
0.151272
0.150702
0.150153
0.149629
0.149131
0.148659
0.148218
0.147817
0.1475
0.147393
0.147842
0.149624
0.154124
0.163023
0.177218
0.196006
0.21768
0.240688
0.264109
0.287154
0.30836
0.32595
0.338007
0.342927
0.339845
0.328953
0.311458
0.288981
0.264579
0.240595
0.218884
0.200473
0.185592
0.173948
0.165003
0.158175
0.152954
0.148942
0.145867
0.143606
0.142231
0.142103
0.143903
0.148463
0.156297
0.167185
0.180268
0.194504
0.209003
0.223123
0.236451
0.248779
0.260047
0.270285
0.279553
0.28791
0.295398
0.302052
0.307899
0.312974
0.317316
0.321001
0.324069
0.326692
0.328583
0.174085
0.17347
0.172853
0.172233
0.17161
0.170984
0.170355
0.169723
0.169089
0.168451
0.167811
0.167168
0.166522
0.165872
0.16522
0.164565
0.163907
0.163247
0.162584
0.161918
0.16125
0.160581
0.15991
0.159239
0.158567
0.157896
0.157226
0.156558
0.155894
0.155232
0.154576
0.153926
0.153284
0.152651
0.152029
0.151421
0.150828
0.150252
0.149695
0.149158
0.14864
0.148142
0.147664
0.147218
0.146843
0.146656
0.146943
0.148306
0.151761
0.158518
0.169286
0.183633
0.200254
0.217786
0.235143
0.250879
0.263668
0.272248
0.275643
0.273407
0.265815
0.253787
0.238567
0.222384
0.206665
0.192492
0.180428
0.170575
0.162742
0.156599
0.1518
0.148034
0.145055
0.142684
0.140817
0.139449
0.138717
0.138963
0.140751
0.144742
0.151379
0.160586
0.17178
0.184164
0.196994
0.209686
0.221822
0.233144
0.243541
0.252999
0.261562
0.269286
0.276225
0.282425
0.287924
0.292759
0.296991
0.300642
0.303824
0.306167
0.174103
0.173491
0.172876
0.172258
0.171638
0.171015
0.170389
0.169761
0.16913
0.168496
0.16786
0.167221
0.166579
0.165935
0.165288
0.164638
0.163986
0.163331
0.162674
0.162014
0.161353
0.16069
0.160026
0.15936
0.158695
0.158029
0.157364
0.1567
0.156038
0.155379
0.154724
0.154073
0.153428
0.15279
0.152161
0.151542
0.150936
0.150343
0.149765
0.149202
0.148653
0.148116
0.147591
0.147077
0.146583
0.146145
0.145859
0.145944
0.146837
0.149242
0.153999
0.161646
0.171963
0.18403
0.196688
0.208393
0.217908
0.224275
0.226871
0.225521
0.220549
0.212669
0.202857
0.192555
0.182606
0.173612
0.165881
0.159467
0.154265
0.150092
0.14675
0.144057
0.141863
0.140056
0.13856
0.137347
0.136458
0.136037
0.136374
0.137916
0.141185
0.146581
0.154148
0.163531
0.174139
0.185357
0.196662
0.207642
0.21801
0.227604
0.236364
0.244305
0.251477
0.257937
0.263741
0.268934
0.273573
0.277672
0.281289
0.283998
0.174115
0.173503
0.17289
0.172274
0.171655
0.171034
0.17041
0.169783
0.169154
0.168523
0.167889
0.167253
0.166614
0.165972
0.165329
0.164682
0.164034
0.163383
0.16273
0.162074
0.161417
0.160759
0.160099
0.159438
0.158777
0.158115
0.157454
0.156793
0.156134
0.155477
0.154823
0.154173
0.153527
0.152887
0.152254
0.151629
0.151014
0.15041
0.149817
0.149236
0.148665
0.148103
0.147546
0.146992
0.14644
0.145898
0.145393
0.144999
0.144873
0.145313
0.146783
0.149834
0.154847
0.161754
0.169965
0.178206
0.185249
0.190176
0.192466
0.192023
0.189123
0.184298
0.178281
0.171961
0.165834
0.160242
0.155366
0.151248
0.147838
0.14504
0.142742
0.140839
0.139241
0.137877
0.136698
0.135677
0.13482
0.134181
0.133887
0.134169
0.13537
0.137899
0.142109
0.148133
0.155797
0.164693
0.174331
0.184253
0.194074
0.203496
0.212316
0.220429
0.227815
0.234503
0.240546
0.246
0.25093
0.25535
0.259292
0.262269
0.17412
0.17351
0.172897
0.172282
0.171664
0.171043
0.17042
0.169795
0.169167
0.168537
0.167905
0.16727
0.166632
0.165993
0.165351
0.164707
0.16406
0.163412
0.162761
0.162108
0.161454
0.160799
0.160142
0.159484
0.158825
0.158166
0.157508
0.15685
0.156193
0.155538
0.154885
0.154235
0.153589
0.152948
0.152312
0.151684
0.151063
0.150451
0.149847
0.149253
0.148666
0.148085
0.147506
0.146926
0.146341
0.14575
0.145159
0.144587
0.144086
0.143762
0.143808
0.144514
0.14622
0.149187
0.153431
0.158362
0.163071
0.166713
0.16874
0.16898
0.167579
0.16489
0.161431
0.157729
0.154082
0.150701
0.147701
0.14512
0.142938
0.141105
0.139558
0.138236
0.137087
0.136067
0.135146
0.134306
0.133545
0.132882
0.132368
0.132106
0.132271
0.133119
0.134963
0.138107