/*--------------------------------*- C++ -*----------------------------------*\
| =========                 |                                                 |
| \\      /  F ield         | OpenFOAM: The Open Source CFD Toolbox           |
|  \\    /   O peration     | Version:  4.1                                   |
|   \\  /    A nd           | Web:      www.OpenFOAM.org                      |
|    \\/     M anipulation  |                                                 |
\*---------------------------------------------------------------------------*/
FoamFile
{
    version     2.0;
    format      ascii;
    class       volScalarField;
    location    "300";
    object      nut;
}
// * * * * * * * * * * * * * * * * * * * * * * * * * * * * * * * * * * * * * //

dimensions      [0 2 -1 0 0 0 0];

internalField   nonuniform List<scalar> 
6820
(
4.53774e-05
4.96674e-05
5.35597e-05
5.70332e-05
6.00876e-05
6.27338e-05
6.49905e-05
6.68845e-05
6.84479e-05
6.97158e-05
7.07235e-05
7.15055e-05
7.20939e-05
7.25182e-05
7.28045e-05
7.29762e-05
7.30534e-05
7.30535e-05
7.29913e-05
7.28795e-05
7.27288e-05
7.2548e-05
7.23448e-05
7.21253e-05
7.18947e-05
7.16574e-05
7.14169e-05
7.11762e-05
7.09376e-05
7.07034e-05
7.04747e-05
7.02579e-05
7.01278e-05
0.000389006
0.000214809
0.000161979
0.000134587
0.000117095
0.000104856
9.58893e-05
8.91382e-05
8.39696e-05
7.99763e-05
7.68805e-05
7.44832e-05
7.26381e-05
7.12352e-05
7.01903e-05
6.94381e-05
6.89273e-05
6.86173e-05
6.84752e-05
6.84745e-05
6.85938e-05
6.8815e-05
6.91233e-05
6.9506e-05
6.99526e-05
7.0454e-05
7.10027e-05
7.15918e-05
7.22163e-05
7.287e-05
7.35524e-05
7.42592e-05
7.52481e-05
0.000867008
0.000638268
0.000507683
0.000428072
0.000374999
0.000336897
0.000308025
0.000285267
0.000266778
0.0002514
0.000238369
0.000227161
0.000217405
0.000208832
0.000201242
0.00019448
0.000188429
0.000182992
0.000178094
0.000173675
0.000169669
0.000165969
0.000162535
0.000159344
0.000156375
0.000153612
0.000151039
0.000148642
0.000146405
0.000144319
0.000142367
0.000140547
0.000138905
0.000991214
0.000902161
0.00080737
0.000726609
0.000661844
0.000610149
0.000568395
0.000534119
0.000505507
0.000481257
0.000460423
0.000442307
0.000426384
0.000412255
0.000399615
0.000388227
0.000377902
0.000368492
0.000359877
0.000351959
0.000344659
0.000337889
0.000331567
0.000325638
0.000320059
0.000314794
0.000309815
0.000305095
0.000300611
0.000296344
0.000292274
0.000288382
0.000284646
0.00101005
0.000987389
0.000948623
0.000902911
0.000857075
0.000814429
0.00077606
0.00074199
0.000711832
0.0006851
0.000661319
0.000640067
0.000620981
0.000603755
0.000588134
0.000573904
0.000560886
0.000548932
0.000537914
0.000527728
0.000518282
0.000509499
0.000501306
0.00049364
0.000486444
0.000479673
0.000473288
0.000467254
0.000461541
0.000456122
0.000450975
0.000446074
0.00044136
0.00101185
0.00100724
0.000995355
0.00097694
0.000954117
0.000929112
0.000903651
0.000878792
0.000855088
0.000832791
0.000811985
0.000792649
0.000774715
0.000758088
0.000742665
0.000728343
0.000715027
0.000702625
0.000691056
0.000680244
0.000670123
0.000660633
0.000651718
0.00064333
0.000635425
0.000627961
0.000620905
0.000614223
0.000607888
0.000601875
0.000596161
0.000590719
0.000585471
0.00101178
0.00101089
0.00100777
0.00100182
0.000992902
0.000981468
0.000968238
0.000953916
0.000939068
0.000924113
0.000909343
0.00089495
0.000881051
0.000867714
0.000854971
0.000842831
0.000831287
0.000820322
0.000809914
0.000800034
0.000790649
0.000781732
0.000773259
0.000765205
0.000757544
0.000750253
0.000743312
0.000736698
0.000730393
0.00072438
0.000718641
0.000713151
0.000707826
0.00101168
0.00101136
0.00101047
0.00100868
0.00100564
0.0010012
0.000995407
0.000988488
0.000980684
0.000972237
0.000963366
0.000954255
0.00094505
0.000935864
0.000926781
0.000917865
0.000909159
0.000900693
0.000892487
0.000884551
0.00087689
0.000869503
0.000862387
0.000855538
0.000848949
0.000842612
0.000836521
0.000830667
0.00082504
0.000819634
0.000814439
0.000809435
0.000804534
0.00101165
0.00101137
0.00101095
0.0010103
0.00100927
0.00100768
0.00100543
0.0010025
0.000998933
0.000994793
0.000990167
0.000985149
0.000979828
0.000974287
0.000968599
0.000962824
0.000957012
0.000951206
0.000945439
0.000939738
0.000934124
0.000928612
0.000923214
0.00091794
0.000912796
0.000907786
0.000902913
0.000898178
0.000893582
0.000889124
0.000884803
0.000880602
0.000876438
0.00101164
0.00101135
0.00101102
0.00101063
0.00101016
0.00100951
0.00100859
0.00100737
0.00100582
0.00100393
0.00100171
0.000999186
0.000996392
0.000993363
0.000990137
0.000986751
0.000983239
0.000979632
0.000975958
0.000972242
0.000968505
0.000964765
0.000961038
0.000957336
0.000953671
0.000950052
0.000946486
0.000942979
0.000939538
0.000936165
0.000932862
0.000929618
0.000926351
0.00101163
0.00101134
0.00101102
0.0010107
0.00101036
0.00100998
0.00100951
0.00100894
0.00100822
0.00100735
0.00100631
0.0010051
0.00100371
0.00100217
0.00100047
0.000998629
0.000996669
0.000994602
0.000992444
0.000990209
0.000987913
0.000985569
0.000983189
0.000980783
0.000978363
0.000975936
0.000973511
0.000971095
0.000968695
0.000966315
0.000963958
0.000961614
0.000959204
0.00101163
0.00101134
0.00101103
0.00101072
0.00101041
0.0010101
0.00100976
0.00100939
0.00100897
0.00100848
0.00100792
0.00100729
0.00100656
0.00100575
0.00100485
0.00100386
0.00100278
0.00100163
0.00100041
0.000999121
0.000997774
0.000996375
0.000994932
0.000993452
0.00099194
0.000990404
0.00098885
0.000987282
0.000985705
0.000984125
0.000982543
0.000980949
0.000979265
0.00101163
0.00101133
0.00101103
0.00101073
0.00101043
0.00101014
0.00100984
0.00100953
0.0010092
0.00100886
0.00100849
0.00100809
0.00100765
0.00100717
0.00100665
0.00100609
0.00100548
0.00100482
0.00100412
0.00100338
0.0010026
0.00100178
0.00100092
0.00100003
0.000999118
0.000998177
0.000997214
0.000996233
0.000995236
0.000994226
0.000993205
0.000992161
0.000991015
0.00101163
0.00101133
0.00101104
0.00101074
0.00101045
0.00101016
0.00100987
0.00100958
0.00100928
0.00100899
0.00100868
0.00100836
0.00100803
0.00100769
0.00100732
0.00100694
0.00100654
0.00100612
0.00100567
0.0010052
0.00100471
0.0010042
0.00100367
0.00100311
0.00100254
0.00100195
0.00100134
0.00100072
0.00100009
0.000999448
0.000998792
0.000998113
0.000997332
0.00101163
0.00101133
0.00101104
0.00101075
0.00101046
0.00101018
0.00100989
0.00100961
0.00100933
0.00100904
0.00100876
0.00100847
0.00100819
0.0010079
0.0010076
0.0010073
0.00100699
0.00100667
0.00100635
0.00100601
0.00100567
0.00100531
0.00100495
0.00100457
0.00100419
0.0010038
0.00100339
0.00100298
0.00100257
0.00100214
0.00100171
0.00100125
0.0010007
0.00101163
0.00101133
0.00101105
0.00101075
0.00101047
0.00101019
0.00100991
0.00100963
0.00100935
0.00100908
0.0010088
0.00100853
0.00100826
0.00100799
0.00100772
0.00100745
0.00100717
0.0010069
0.00100662
0.00100635
0.00100606
0.00100578
0.00100549
0.0010052
0.00100491
0.00100461
0.00100431
0.00100401
0.0010037
0.0010034
0.00100308
0.00100275
0.00100232
0.00101163
0.00101133
0.00101105
0.00101076
0.00101048
0.0010102
0.00100992
0.00100965
0.00100938
0.0010091
0.00100884
0.00100857
0.00100831
0.00100805
0.00100779
0.00100753
0.00100727
0.00100702
0.00100677
0.00100652
0.00100627
0.00100602
0.00100577
0.00100552
0.00100527
0.00100503
0.00100478
0.00100453
0.00100429
0.00100404
0.00100379
0.00100353
0.00100317
0.00101163
0.00101133
0.00101105
0.00101076
0.00101048
0.00101021
0.00100993
0.00100966
0.00100939
0.00100913
0.00100886
0.0010086
0.00100834
0.00100809
0.00100783
0.00100758
0.00100734
0.00100709
0.00100685
0.00100661
0.00100637
0.00100614
0.00100591
0.00100568
0.00100545
0.00100523
0.001005
0.00100478
0.00100457
0.00100435
0.00100413
0.0010039
0.00100358
0.00101163
0.00101133
0.00101105
0.00101077
0.00101049
0.00101021
0.00100994
0.00100967
0.00100941
0.00100914
0.00100888
0.00100863
0.00100837
0.00100812
0.00100787
0.00100763
0.00100738
0.00100715
0.00100691
0.00100668
0.00100645
0.00100622
0.001006
0.00100578
0.00100557
0.00100536
0.00100515
0.00100494
0.00100474
0.00100454
0.00100434
0.00100413
0.00100383
0.00101163
0.00101133
0.00101105
0.00101077
0.00101049
0.00101022
0.00100995
0.00100968
0.00100942
0.00100916
0.0010089
0.00100865
0.00100839
0.00100815
0.0010079
0.00100766
0.00100742
0.00100719
0.00100696
0.00100673
0.00100651
0.00100629
0.00100607
0.00100586
0.00100565
0.00100544
0.00100524
0.00100504
0.00100485
0.00100466
0.00100447
0.00100426
0.00100397
0.00101163
0.00101133
0.00101105
0.00101077
0.0010105
0.00101022
0.00100996
0.00100969
0.00100943
0.00100917
0.00100892
0.00100866
0.00100841
0.00100817
0.00100793
0.00100769
0.00100745
0.00100722
0.001007
0.00100677
0.00100655
0.00100634
0.00100613
0.00100592
0.00100571
0.00100551
0.00100532
0.00100512
0.00100493
0.00100475
0.00100456
0.00100437
0.00100408
0.00101163
0.00101133
0.00101105
0.00101077
0.0010105
0.00101023
0.00100996
0.0010097
0.00100944
0.00100918
0.00100893
0.00100868
0.00100843
0.00100819
0.00100795
0.00100771
0.00100748
0.00100725
0.00100703
0.00100681
0.00100659
0.00100638
0.00100617
0.00100597
0.00100577
0.00100557
0.00100538
0.00100519
0.001005
0.00100482
0.00100464
0.00100445
0.00100416
0.00101163
0.00101133
0.00101105
0.00101077
0.0010105
0.00101023
0.00100997
0.0010097
0.00100945
0.00100919
0.00100894
0.00100869
0.00100845
0.00100821
0.00100797
0.00100774
0.00100751
0.00100728
0.00100706
0.00100684
0.00100663
0.00100642
0.00100621
0.00100601
0.00100581
0.00100561
0.00100542
0.00100524
0.00100505
0.00100487
0.0010047
0.00100451
0.00100423
0.00101163
0.00101133
0.00101105
0.00101077
0.0010105
0.00101023
0.00100997
0.00100971
0.00100945
0.0010092
0.00100895
0.0010087
0.00100846
0.00100822
0.00100798
0.00100775
0.00100752
0.0010073
0.00100708
0.00100686
0.00100665
0.00100644
0.00100624
0.00100604
0.00100584
0.00100565
0.00100546
0.00100528
0.0010051
0.00100492
0.00100475
0.00100456
0.00100428
0.00101163
0.00101133
0.00101105
0.00101077
0.0010105
0.00101024
0.00100997
0.00100971
0.00100946
0.0010092
0.00100895
0.00100871
0.00100847
0.00100823
0.00100799
0.00100776
0.00100754
0.00100731
0.0010071
0.00100688
0.00100667
0.00100646
0.00100626
0.00100606
0.00100587
0.00100567
0.00100549
0.0010053
0.00100512
0.00100495
0.00100477
0.00100459
0.00100431
0.00101163
0.00101133
0.00101105
0.00101077
0.0010105
0.00101024
0.00100997
0.00100971
0.00100946
0.0010092
0.00100896
0.00100871
0.00100847
0.00100823
0.001008
0.00100777
0.00100754
0.00100732
0.0010071
0.00100689
0.00100668
0.00100648
0.00100628
0.00100608
0.00100588
0.0010057
0.00100551
0.00100533
0.00100515
0.00100498
0.00100481
0.00100462
0.00100435
0.00101163
0.00101133
0.00101105
0.00101077
0.0010105
0.00101024
0.00100997
0.00100971
0.00100946
0.0010092
0.00100896
0.00100871
0.00100847
0.00100823
0.001008
0.00100777
0.00100754
0.00100732
0.0010071
0.00100689
0.00100668
0.00100647
0.00100627
0.00100607
0.00100588
0.00100569
0.0010055
0.00100532
0.00100514
0.00100496
0.00100479
0.00100461
0.00100433
0.00101163
0.00101133
0.00101105
0.00101077
0.0010105
0.00101024
0.00100997
0.00100971
0.00100946
0.0010092
0.00100895
0.00100871
0.00100847
0.00100823
0.001008
0.00100777
0.00100754
0.00100732
0.00100711
0.00100689
0.00100668
0.00100648
0.00100628
0.00100608
0.00100589
0.0010057
0.00100552
0.00100534
0.00100516
0.00100499
0.00100482
0.00100463
0.00100436
0.00101163
0.00101133
0.00101105
0.00101077
0.0010105
0.00101023
0.00100997
0.00100971
0.00100945
0.0010092
0.00100895
0.0010087
0.00100846
0.00100822
0.00100798
0.00100775
0.00100752
0.00100729
0.00100707
0.00100686
0.00100664
0.00100643
0.00100623
0.00100603
0.00100583
0.00100564
0.00100545
0.00100527
0.00100509
0.00100491
0.00100474
0.00100455
0.00100428
0.00101163
0.00101133
0.00101105
0.00101077
0.0010105
0.00101023
0.00100997
0.0010097
0.00100945
0.00100919
0.00100894
0.0010087
0.00100846
0.00100822
0.00100798
0.00100775
0.00100753
0.00100731
0.00100709
0.00100687
0.00100666
0.00100646
0.00100625
0.00100606
0.00100586
0.00100567
0.00100548
0.0010053
0.00100512
0.00100494
0.00100476
0.00100458
0.0010043
0.00101163
0.00101133
0.00101105
0.00101077
0.0010105
0.00101023
0.00100996
0.0010097
0.00100943
0.00100917
0.00100892
0.00100866
0.00100841
0.00100817
0.00100792
0.00100768
0.00100745
0.00100721
0.00100699
0.00100676
0.00100654
0.00100632
0.00100611
0.0010059
0.0010057
0.00100549
0.0010053
0.0010051
0.00100491
0.00100472
0.00100454
0.00100434
0.00100405
0.00101163
0.00101133
0.00101105
0.00101077
0.00101049
0.00101022
0.00100996
0.0010097
0.00100944
0.00100919
0.00100893
0.00100869
0.00100844
0.0010082
0.00100796
0.00100772
0.00100748
0.00100725
0.00100701
0.00100678
0.00100655
0.00100632
0.0010061
0.00100587
0.00100565
0.00100543
0.00100521
0.00100499
0.00100477
0.00100456
0.00100434
0.00100411
0.00100379
0.00101163
0.00101133
0.00101105
0.00101077
0.00101048
0.0010102
0.00100992
0.00100964
0.00100936
0.00100907
0.00100879
0.00100851
0.00100823
0.00100795
0.00100767
0.00100739
0.00100711
0.00100683
0.00100655
0.00100626
0.00100597
0.00100569
0.0010054
0.0010051
0.00100481
0.00100452
0.00100422
0.00100392
0.00100362
0.00100332
0.00100302
0.0010027
0.00100229
0.00101163
0.00101134
0.00101105
0.00101077
0.00101049
0.00101021
0.00100993
0.00100964
0.00100934
0.00100903
0.00100871
0.00100838
0.00100803
0.00100767
0.00100729
0.0010069
0.00100649
0.00100607
0.00100563
0.00100518
0.00100471
0.00100423
0.00100374
0.00100323
0.00100272
0.00100219
0.00100166
0.00100112
0.00100057
0.00100002
0.000999455
0.000998873
0.000998195
0.00101163
0.00101134
0.00101103
0.00101069
0.00101033
0.00100994
0.00100951
0.00100905
0.00100853
0.00100797
0.00100735
0.00100668
0.00100595
0.00100516
0.00100433
0.00100344
0.0010025
0.00100152
0.00100051
0.000999453
0.00099837
0.000997259
0.000996126
0.000994973
0.000993806
0.000992626
0.000991439
0.000990245
0.000989049
0.000987852
0.000986655
0.000985446
0.000984149
0.00101164
0.00101133
0.00101094
0.00101042
0.00100973
0.00100883
0.0010077
0.00100636
0.00100479
0.00100302
0.00100106
0.000998929
0.000996656
0.000994257
0.000991754
0.000989166
0.000986511
0.000983805
0.000981063
0.000978298
0.000975522
0.000972744
0.000969974
0.00096722
0.000964487
0.000961783
0.00095911
0.000956474
0.000953877
0.000951322
0.000948809
0.000946327
0.000943801
0.00101162
0.0010106
0.00100853
0.00100543
0.0010014
0.000996525
0.000990927
0.000984772
0.000978208
0.000971358
0.000964327
0.000957205
0.000950061
0.000942954
0.000935927
0.000929015
0.000922243
0.00091563
0.000909188
0.000902928
0.000896853
0.000890967
0.00088527
0.000879762
0.000874439
0.000869298
0.000864336
0.000859548
0.000854928
0.000850472
0.000846174
0.000842017
0.000837926
0.00100895
0.000995386
0.000976056
0.000953717
0.000930353
0.000907135
0.000884709
0.000863396
0.000843312
0.000824489
0.000806902
0.000790492
0.000775186
0.000760905
0.000747568
0.000735098
0.000723426
0.000712483
0.000702211
0.000692555
0.000683464
0.000674896
0.000666808
0.000659166
0.000651935
0.000645085
0.000638591
0.000632426
0.00062657
0.000621
0.000615698
0.000610643
0.000605774
0.000892781
0.000742229
0.000649156
0.000585477
0.000538482
0.000502033
0.000472757
0.000448602
0.000428241
0.00041078
0.000395595
0.000382236
0.000370369
0.00035974
0.000350151
0.00034145
0.000333511
0.000326234
0.000319537
0.000313352
0.000307622
0.000302297
0.000297336
0.000292704
0.000288369
0.000284305
0.000280488
0.000276898
0.000273514
0.000270321
0.000267305
0.000264452
0.000261752
0.000126722
0.000129956
0.000133005
0.00013589
0.000138627
0.000141229
0.000143705
0.000146062
0.000148308
0.000150448
0.000152487
0.00015443
0.000156281
0.000158045
0.000159725
0.000161326
0.00016285
0.000164301
0.000165683
0.000166998
0.00016825
0.000169441
0.000170575
0.000171653
0.000172679
0.000173654
0.000174582
0.000175465
0.000176304
0.000177102
0.000177861
0.000178582
0.000179274
8.53776e-05
0.000115089
0.000145149
0.000174898
0.000201479
0.000224841
0.000245949
0.000265847
0.000285359
0.000304913
0.000324576
0.000344352
0.000364259
0.000384364
0.000404715
0.000425207
0.000445595
0.000465804
0.000485701
0.000505389
0.00052499
0.000544531
0.000563918
0.000582987
0.000601594
0.000619665
0.000637195
0.000654195
0.000670605
0.000686233
0.00070074
0.000713657
0.00072442
0.000732378
0.000736778
0.000736702
0.000731086
0.000718981
0.000700288
0.000677074
0.000655686
0.000651401
0.000701652
0.000891343
0.00133258
0.00196527
0.00248073
0.00270244
0.00268616
0.00253413
0.00231436
0.00206154
0.00179663
0.00154526
0.00134038
0.00120775
0.00115412
0.00116121
0.00120404
0.00125337
0.00129612
0.00132185
0.00130957
0.00122979
0.00106827
0.000885514
0.000735024
0.000633628
0.000580003
0.000571115
0.000613857
0.000745155
0.00106651
0.00171957
0.00264115
0.00347274
0.00400389
0.00428283
0.00440897
0.0044491
0.00443997
0.00440135
0.0043442
0.00427487
0.00419734
0.00411431
0.00402772
0.00393909
0.00384955
0.00375998
0.00367102
0.00358313
0.00349661
0.0034117
0.00332853
0.0032474
0.00316872
0.00309448
0.00302926
0.00299634
7.84201e-05
8.48378e-05
9.5573e-05
0.000110923
0.00012988
0.000150966
0.00017311
0.000195529
0.000217691
0.000239243
0.000260006
0.000280031
0.000299602
0.000319133
0.00033898
0.000359246
0.000379745
0.000400207
0.000420512
0.000440547
0.000460332
0.000479882
0.00049911
0.000517837
0.000535895
0.000553229
0.00056992
0.000586105
0.000601846
0.00061701
0.000631224
0.000643901
0.000654334
0.000661782
0.000665525
0.000664863
0.000659163
0.0006481
0.000632294
0.00061442
0.000601132
0.000608137
0.000676433
0.000903973
0.00141224
0.00209539
0.00260324
0.00279285
0.00274859
0.00257652
0.00234248
0.00207925
0.0018059
0.00154651
0.00133516
0.0012048
0.00116603
0.00119203
0.00124818
0.00130031
0.00133178
0.00133385
0.00129135
0.00118417
0.00101781
0.000842333
0.00070134
0.000607783
0.000559547
0.000553148
0.000593851
0.000714695
0.00101449
0.00164711
0.00257335
0.00342669
0.00397309
0.00425632
0.00438041
0.00441624
0.00440286
0.004361
0.00430183
0.0042316
0.00415405
0.00407161
0.00398602
0.0038986
0.00381037
0.00372211
0.0036344
0.00354768
0.00346224
0.0033783
0.00329601
0.00321569
0.00313775
0.00306411
0.00299924
0.00296401
0.000137456
0.000136857
0.000136822
0.000137269
0.000138412
0.00014162
0.000147223
0.000155396
0.000166155
0.00017923
0.000194158
0.000210474
0.000227874
0.000246235
0.000265497
0.000285503
0.000305892
0.000326249
0.000346449
0.000366355
0.000385947
0.000405229
0.000424133
0.000442506
0.0004602
0.000477178
0.000493552
0.000509515
0.0005252
0.000540534
0.000555161
0.000568467
0.000579689
0.000588055
0.000592912
0.00059378
0.000590427
0.00058307
0.000572887
0.000562934
0.000560019
0.000580603
0.000670712
0.000942941
0.00152015
0.00224134
0.00273519
0.00289828
0.00283403
0.00264801
0.00240285
0.00212902
0.00184369
0.00157039
0.00134367
0.00120158
0.00116342
0.00119691
0.00125823
0.00130871
0.00132944
0.00131248
0.00124684
0.00112388
0.000960142
0.000796925
0.000668242
0.000584205
0.000542525
0.000539672
0.000579264
0.000688608
0.000956932
0.00154187
0.00244413
0.00331747
0.0038954
0.00419955
0.00433322
0.00437198
0.00435872
0.00431636
0.00425709
0.00418747
0.0041112
0.00403054
0.00394704
0.00386182
0.00377576
0.00368956
0.00360374
0.00351871
0.00343476
0.00335214
0.00327102
0.00319174
0.00311473
0.00304185
0.00297746
0.00293981
0.000280218
0.000275826
0.000271611
0.000267469
0.000263207
0.000258307
0.000253304
0.000248608
0.000244418
0.000240996
0.000238702
0.000237972
0.000239268
0.000242989
0.000249349
0.000258277
0.000269403
0.000282178
0.000296142
0.000310978
0.000326432
0.0003423
0.000358373
0.000374423
0.000390263
0.000405826
0.000421199
0.000436557
0.000452032
0.000467565
0.00048282
0.000497192
0.000509924
0.000520273
0.000527678
0.000531865
0.000532935
0.000531537
0.000529262
0.000529436
0.000539117
0.000576282
0.000694124
0.0010198
0.00166115
0.00239667
0.0028643
0.00300277
0.00292407
0.00272982
0.00247869
0.00219757
0.00189941
0.00160731
0.0013594
0.00119676
0.00114586
0.00117391
0.0012322
0.0012789
0.0012918
0.00126082
0.00117627
0.00104498
0.000892718
0.00074685
0.000633286
0.000560491
0.000526637
0.000528661
0.000569004
0.000669073
0.00090463
0.00142684
0.00227693
0.00315513
0.00377016
0.00410826
0.00426332
0.00431345
0.00430569
0.0042661
0.00420872
0.004141
0.00406698
0.00398894
0.00390831
0.00382607
0.00374295
0.00365954
0.0035763
0.00349361
0.00341175
0.00333098
0.0032515
0.00317366
0.00309795
0.00302614
0.00296246
0.00292256
0.000435606
0.00042983
0.000424164
0.000418675
0.000413342
0.000407987
0.000402546
0.000397093
0.000391515
0.000385618
0.0003792
0.000372171
0.000364667
0.000357075
0.000349933
0.000343767
0.00033896
0.000335698
0.000334163
0.000334491
0.000336723
0.000340821
0.000346646
0.00035398
0.000362597
0.000372338
0.000383158
0.000395076
0.000408083
0.000422013
0.000436478
0.000450868
0.000464459
0.000476577
0.000486773
0.000494953
0.00050147
0.000507267
0.000514185
0.000525701
0.000549196
0.000604821
0.000754229
0.00113489
0.00182302
0.00254764
0.00298089
0.00309735
0.00300877
0.00281043
0.00255774
0.00227502
0.0019686
0.00165581
0.00138073
0.00119181
0.00111893
0.0011307
0.00117831
0.00121893
0.00122558
0.00118291
0.001086
0.000955379
0.000817273
0.000692949
0.000596843
0.000536679
0.000511706
0.000519757
0.000562592
0.000656251
0.000861503
0.00131446
0.00208912
0.0029495
0.00359709
0.00397708
0.00416466
0.00423585
0.00424066
0.00420848
0.00415583
0.00409172
0.00402099
0.00394627
0.00386905
0.00379026
0.00371057
0.00363046
0.00355033
0.00347051
0.00339128
0.00331288
0.00323555
0.00315964
0.00308566
0.00301531
0.00295266
0.00291088
0.000579026
0.000572648
0.000566348
0.000560176
0.000554179
0.000548346
0.000542697
0.000537281
0.000532079
0.000527008
0.000521928
0.00051667
0.000511045
0.000504888
0.000498106
0.000490653
0.000482525
0.000473748
0.000464519
0.000455211
0.000446289
0.000438241
0.00043149
0.000426365
0.000423105
0.00042191
0.000422952
0.000426357
0.000432136
0.00044011
0.000449881
0.000460864
0.000472394
0.000483884
0.000494986
0.000505717
0.000516543
0.000528493
0.000543396
0.000564605
0.000599605
0.000670533
0.000845925
0.00126558
0.00197162
0.00267073
0.00307377
0.00317557
0.00308265
0.00288377
0.00263188
0.00235124
0.00204369
0.00171429
0.00140741
0.00118947
0.0010894
0.00107776
0.00110857
0.00113973
0.0011384
0.00108348
0.000984343
0.000862428
0.000741027
0.000638676
0.000560762
0.000513825
0.000498402
0.000513418
0.000560276
0.000650365
0.000829482
0.00121244
0.00189415
0.00271106
0.00337835
0.00380183
0.00403038
0.00413237
0.00415809
0.0041395
0.00409579
0.00403799
0.00397224
0.00390186
0.00382872
0.00375388
0.003678
0.00360156
0.00352492
0.00344838
0.00337219
0.00329662
0.00322188
0.00314835
0.00307653
0.00300807
0.00294681
0.0029036
0.00070122
0.00069471
0.000688325
0.000682035
0.000675917
0.000669987
0.000664262
0.000658753
0.000653453
0.000648362
0.000643473
0.000638756
0.000634164
0.000629626
0.000625043
0.000620278
0.000615152
0.000609455
0.000602994
0.000595711
0.00058764
0.00057896
0.000569963
0.000561028
0.000552599
0.000545164
0.00053923
0.000535254
0.000533565
0.00053429
0.000537323
0.000542355
0.000548978
0.000556824
0.000565705
0.00057572
0.000587354
0.00060154
0.000619826
0.000645093
0.000684386
0.000760229
0.000942779
0.00136736
0.00205976
0.00273453
0.00312625
0.00322919
0.00314131
0.00294699
0.00269815
0.00242069
0.00211694
0.00177924
0.00144243
0.00119341
0.00106339
0.0010245
0.0010343
0.00105184
0.00103871
0.000976355
0.000882946
0.00077479
0.000670937
0.000587681
0.000527116
0.000493238
0.000487696
0.000510463
0.000562698
0.000651774
0.000809551
0.00112604
0.0017034
0.00245101
0.00311893
0.00358103
0.00385496
0.00399601
0.00405127
0.00405358
0.00402431
0.00397666
0.00391843
0.00385408
0.00378611
0.00371594
0.00364442
0.00357208
0.0034993
0.00342641
0.00335364
0.00328126
0.00320951
0.00313875
0.00306949
0.00300329
0.00294378
0.00289955
0.000798344
0.000792289
0.000786327
0.000780436
0.000774644
0.000768962
0.000763399
0.000757979
0.000752715
0.00074762
0.000742707
0.000737993
0.000733493
0.000729216
0.000725153
0.000721266
0.000717483
0.000713695
0.000709764
0.000705564
0.000700989
0.000695986
0.000690562
0.000684801
0.000678872
0.000673046
0.000667681
0.000663184
0.000659939
0.000658227
0.000658177
0.000659762
0.000662861
0.000667364
0.000673281
0.000680838
0.000690601
0.000703355
0.000720138
0.000743202
0.000778543
0.000846323
0.00101058
0.0013977
0.00204548
0.00270548
0.00311498
0.00324418
0.00317724
0.0029962
0.00275453
0.00248102
0.00218262
0.00184578
0.00148909
0.00120805
0.00104579
0.000977726
0.000963852
0.000964542
0.000938302
0.000876069
0.000792498
0.000699038
0.000611158
0.000543271
0.000497863
0.000476278
0.000480746
0.000511987
0.000570813
0.000661002
0.000802082
0.00105868
0.00152717
0.00218161
0.00282641
0.00331607
0.00363489
0.00382043
0.00391304
0.00394407
0.00393581
0.0039033
0.00385617
0.00380031
0.0037392
0.00367488
0.00360854
0.00354092
0.00347252
0.0034037
0.00333476
0.00326596
0.00319757
0.00312995
0.00306362
0.00300005
0.00294264
0.00289768
0.000871032
0.000865816
0.000860641
0.000855511
0.000850413
0.000845371
0.000840396
0.000835503
0.000830701
0.000825999
0.000821402
0.000816926
0.000812592
0.000808421
0.000804435
0.000800643
0.000797044
0.000793622
0.000790346
0.000787177
0.000784077
0.00078101
0.000777951
0.000774894
0.000771872
0.000768969
0.000766329
0.000764145
0.00076263
0.000761972
0.000762297
0.000763654
0.000766044
0.000769484
0.000774075
0.000780057
0.000787918
0.000798043
0.000811204
0.000829068
0.000856102
0.000907608
0.00103407
0.00134587
0.00191232
0.00255663
0.00301215
0.00319963
0.00317757
0.00302457
0.00279798
0.00253133
0.00223797
0.00190936
0.00154829
0.00123877
0.00104157
0.000942344
0.000902934
0.000886081
0.000852274
0.000793567
0.000719652
0.000638206
0.000562948
0.00050713
0.000474368
0.000464257
0.000478914
0.000519396
0.000585868
0.00067869
0.000806931
0.001012
0.00137458
0.00191692
0.00251143
0.00301163
0.00336946
0.00360093
0.00373651
0.00380356
0.0038235
0.00381224
0.00378092
0.003737
0.00368519
0.00362844
0.00356852
0.00350655
0.00344324
0.00337909
0.00331447
0.00324971
0.00318509
0.00312102
0.00305798
0.0029974
0.00294244
0.00289692
0.00092193
0.000917769
0.000913603
0.00090944
0.000905275
0.000901112
0.000896963
0.000892835
0.000888733
0.00088466
0.000880626
0.00087664
0.000872719
0.000868884
0.000865154
0.000861547
0.000858081
0.000854769
0.000851626
0.000848664
0.000845901
0.000843344
0.000841007
0.000838904
0.000837061
0.000835521
0.000834345
0.00083362
0.000833442
0.000833899
0.000835056
0.000836942
0.000839561
0.000842939
0.000847151
0.000852234
0.000858445
0.000866142
0.00087586
0.000888658
0.000907387
0.000941778
0.00102528
0.00124208
0.00168608
0.00228297
0.00279219
0.00306841
0.00312203
0.00301969
0.00282226
0.00256994
0.00228341
0.00196556
0.00161538
0.00128922
0.00105682
0.000923742
0.00085682
0.00082184
0.000784818
0.000730257
0.000663457
0.00059035
0.000524793
0.000479071
0.000457513
0.000458561
0.000483898
0.000534492
0.000609369
0.000705451
0.000823368
0.000985695
0.00125261
0.00167282
0.00218879
0.00267639
0.00306166
0.0033358
0.00351642
0.00362482
0.00367972
0.0036964
0.00368669
0.00365928
0.00362022
0.00357355
0.0035219
0.00346693
0.00340974
0.00335107
0.00329145
0.00323129
0.00317096
0.00311088
0.00305157
0.00299437
0.00294223
0.0028962
0.000955743
0.000952624
0.00094947
0.000946288
0.000943083
0.00093985
0.000936595
0.000933322
0.000930038
0.000926746
0.00092345
0.000920157
0.000916874
0.000913614
0.000910387
0.000907208
0.000904091
0.000901054
0.000898119
0.000895312
0.000892669
0.000890219
0.000887996
0.000886038
0.000884383
0.000883076
0.000882166
0.000881708
0.000881757
0.000882353
0.000883531
0.000885263
0.000887546
0.000890395
0.000893847
0.000897955
0.000902831
0.000908659
0.000915743
0.000924676
0.000937043
0.000958125
0.00100643
0.00113508
0.00143327
0.00192239
0.00244887
0.00282377
0.00298358
0.00296174
0.00281544
0.00259151
0.00231937
0.00201315
0.00168278
0.00135694
0.00109638
0.000928296
0.000831931
0.000776754
0.000733973
0.000681156
0.000618345
0.000551469
0.000494782
0.000459021
0.000448474
0.000461119
0.000498021
0.000559555
0.000642935
0.00074157
0.000849911
0.000977431
0.00116448
0.0014653
0.0018787
0.00232448
0.00271894
0.00302735
0.00325083
0.0034026
0.00349726
0.00354803
0.00356616
0.00356082
0.00353904
0.00350598
0.00346523
0.00341925
0.00336968
0.00331765
0.00326395
0.00320916
0.00315376
0.00309825
0.00304315
0.00298978
0.00294086
0.0028943
0.000976633
0.00097442
0.00097216
0.000969859
0.000967518
0.000965141
0.000962724
0.000960271
0.000957784
0.000955267
0.000952719
0.000950144
0.000947547
0.000944933
0.00094231
0.000939685
0.000937071
0.000934479
0.00093193
0.000929448
0.000927061
0.000924805
0.000922715
0.000920828
0.000919187
0.00091784
0.000916829
0.000916195
0.000915976
0.000916155
0.000916758
0.000917807
0.000919316
0.000921298
0.00092377
0.000926762
0.000930327
0.000934553
0.000939586
0.00094572
0.000953729
0.000966139
0.000991724
0.00105791
0.00122566
0.00155914
0.00202175
0.00245774
0.00273489
0.00282374
0.00275808
0.00258481
0.00234182
0.00205488
0.00174609
0.00143387
0.00115952
0.000960606
0.000834344
0.000756839
0.000701453
0.000644435
0.000582378
0.000521112
0.000473819
0.000448862
0.000449875
0.000475099
0.000524531
0.000597229
0.000687824
0.000786481
0.000884122
0.000983058
0.00110841
0.00130595
0.00160555
0.00197815
0.00235497
0.00268266
0.00294212
0.00313532
0.00327131
0.00336024
0.00341168
0.00343418
0.00343502
0.00342007
0.00339386
0.00335968
0.0033199
0.00327618
0.00322971
0.00318135
0.00313174
0.00308152
0.00303127
0.00298227
0.00293702
0.00288989
0.000989009
0.000987491
0.000985928
0.000984321
0.000982673
0.000980986
0.000979257
0.000977487
0.000975679
0.000973832
0.000971948
0.000970026
0.00096807
0.000966082
0.000964064
0.000962022
0.00095996
0.000957889
0.000955819
0.000953769
0.000951762
0.000949823
0.000947982
0.000946271
0.000944727
0.000943396
0.000942295
0.000941432
0.00094084
0.000940544
0.000940565
0.000940927
0.000941649
0.000942748
0.000944244
0.000946159
0.000948523
0.000951377
0.000954788
0.000958887
0.000964011
0.00097125
0.000984322