/*--------------------------------*- C++ -*----------------------------------*\
| =========                 |                                                 |
| \\      /  F ield         | OpenFOAM: The Open Source CFD Toolbox           |
|  \\    /   O peration     | Version:  4.1                                   |
|   \\  /    A nd           | Web:      www.OpenFOAM.org                      |
|    \\/     M anipulation  |                                                 |
\*---------------------------------------------------------------------------*/
FoamFile
{
    version     2.0;
    format      ascii;
    class       volScalarField;
    location    "300";
    object      p;
}
// * * * * * * * * * * * * * * * * * * * * * * * * * * * * * * * * * * * * * //

dimensions      [0 2 -2 0 0 0 0];

internalField   nonuniform List<scalar> 
6820
(
-9.21551
-9.47315
-9.57099
-9.59205
-9.62573
-9.67159
-9.71386
-9.75078
-9.78536
-9.81846
-9.84962
-9.87873
-9.90605
-9.93186
-9.95633
-9.97965
-10.002
-10.0235
-10.0443
-10.0646
-10.0845
-10.104
-10.1234
-10.1427
-10.162
-10.1814
-10.201
-10.221
-10.2415
-10.2626
-10.2854
-10.3078
-10.3477
-9.32826
-9.4944
-9.57334
-9.59456
-9.62194
-9.65773
-9.68999
-9.71766
-9.74382
-9.76953
-9.79448
-9.81856
-9.84195
-9.86478
-9.88713
-9.90904
-9.93058
-9.95179
-9.97273
-9.99347
-10.014
-10.0345
-10.055
-10.0754
-10.0959
-10.1166
-10.1376
-10.1588
-10.1805
-10.2028
-10.226
-10.2501
-10.2754
-9.38449
-9.48929
-9.56753
-9.59978
-9.62842
-9.66216
-9.69325
-9.72031
-9.74578
-9.77067
-9.79475
-9.81791
-9.84029
-9.86206
-9.88326
-9.90398
-9.92426
-9.94419
-9.96383
-9.98324
-10.0025
-10.0216
-10.0407
-10.0598
-10.079
-10.0984
-10.118
-10.1379
-10.1582
-10.1789
-10.2003
-10.222
-10.2445
-9.43423
-9.50931
-9.58218
-9.61767
-9.64558
-9.67768
-9.70833
-9.73541
-9.76064
-9.78501
-9.80843
-9.83085
-9.85243
-9.87334
-9.89368
-9.91353
-9.93297
-9.95207
-9.97092
-9.98956
-10.0081
-10.0265
-10.0449
-10.0633
-10.0819
-10.1005
-10.1194
-10.1386
-10.1581
-10.178
-10.1983
-10.2188
-10.2394
-9.47566
-9.52698
-9.5874
-9.62259
-9.65026
-9.68103
-9.7109
-9.73764
-9.76261
-9.78675
-9.81006
-9.83249
-9.85417
-9.87524
-9.89578
-9.91585
-9.93552
-9.95485
-9.9739
-9.99272
-10.0114
-10.0299
-10.0484
-10.0669
-10.0854
-10.104
-10.1227
-10.1416
-10.1608
-10.1802
-10.1998
-10.2197
-10.2394
-9.51038
-9.54631
-9.59737
-9.63297
-9.66105
-9.69061
-9.71957
-9.74599
-9.77076
-9.79467
-9.81776
-9.83999
-9.86145
-9.88228
-9.90255
-9.92233
-9.94169
-9.96069
-9.9794
-9.99788
-10.0162
-10.0343
-10.0524
-10.0705
-10.0886
-10.1067
-10.125
-10.1434
-10.1619
-10.1806
-10.1994
-10.2184
-10.2373
-9.54013
-9.56577
-9.60787
-9.64135
-9.66824
-9.69584
-9.72333
-9.74895
-9.77312
-9.79648
-9.81911
-9.84097
-9.86215
-9.88276
-9.90287
-9.92253
-9.94182
-9.96077
-9.97945
-9.99791
-10.0162
-10.0343
-10.0524
-10.0704
-10.0883
-10.1063
-10.1244
-10.1425
-10.1607
-10.1789
-10.1972
-10.2155
-10.2337
-9.56595
-9.58461
-9.61923
-9.65038
-9.6765
-9.70287
-9.72936
-9.75444
-9.77822
-9.80124
-9.82358
-9.84522
-9.86622
-9.88666
-9.9066
-9.9261
-9.94521
-9.96398
-9.98246
-10.0007
-10.0187
-10.0366
-10.0543
-10.072
-10.0896
-10.1072
-10.1248
-10.1424
-10.16
-10.1776
-10.1951
-10.2126
-10.2298
-9.58867
-9.60258
-9.63107
-9.65947
-9.68431
-9.70909
-9.73412
-9.7582
-9.78122
-9.80356
-9.82533
-9.84648
-9.86705
-9.88712
-9.90674
-9.92595
-9.94481
-9.96334
-9.9816
-9.99963
-10.0175
-10.0351
-10.0527
-10.0701
-10.0874
-10.1047
-10.122
-10.1392
-10.1563
-10.1734
-10.1904
-10.2072
-10.2238
-9.60889
-9.6195
-9.64305
-9.66864
-9.6921
-9.71549
-9.73929
-9.76253
-9.78497
-9.80682
-9.82817
-9.84899
-9.86929
-9.88912
-9.90853
-9.92754
-9.94621
-9.96456
-9.98263
-10.0005
-10.0181
-10.0355
-10.0527
-10.0699
-10.0869
-10.1038
-10.1206
-10.1373
-10.1539
-10.1704
-10.1867
-10.2027
-10.2185
-9.62705
-9.63533
-9.65492
-9.67784
-9.69979
-9.7218
-9.74429
-9.76652
-9.78816
-9.80932
-9.83006
-9.85035
-9.87018
-9.88959
-9.90862
-9.92728
-9.94561
-9.96364
-9.98141
-9.99892
-10.0162
-10.0333
-10.0503
-10.0671
-10.0837
-10.1002
-10.1166
-10.1328
-10.1489
-10.1648
-10.1805
-10.1959
-10.211
-9.64347
-9.65005
-9.66651
-9.68694
-9.70736
-9.72803
-9.74928
-9.77053
-9.79142
-9.81195
-9.83215
-9.85199
-9.87144
-9.89051
-9.90924
-9.92763
-9.9457
-9.96349
-9.981
-9.99827
-10.0153
-10.0322
-10.0488
-10.0653
-10.0816
-10.0977
-10.1136
-10.1294
-10.145
-10.1603
-10.1754
-10.1901
-10.2045
-9.65838
-9.6637
-9.67766
-9.69587
-9.71477
-9.73415
-9.7542
-9.77446
-9.79454
-9.81437
-9.83396
-9.85325
-9.87221
-9.89084
-9.90916
-9.92716
-9.94487
-9.96229
-9.97946
-9.99637
-10.0131
-10.0295
-10.0458
-10.0619
-10.0777
-10.0934
-10.1089
-10.1241
-10.1391
-10.1539
-10.1683
-10.1825
-10.1962
-9.67196
-9.67632
-9.68828
-9.70454
-9.72199
-9.74013
-9.75903
-9.77831
-9.79758
-9.81673
-9.83571
-9.85447
-9.87296
-9.89118
-9.90911
-9.92677
-9.94414
-9.96125
-9.9781
-9.99471
-10.0111
-10.0272
-10.0431
-10.0588
-10.0743
-10.0896
-10.1046
-10.1194
-10.1339
-10.1481
-10.162
-10.1755
-10.1886
-9.68434
-9.68796
-9.69831
-9.71287
-9.72895
-9.74591
-9.76373
-9.78206
-9.80052
-9.81897
-9.83732
-9.85552
-9.87352
-9.89127
-9.90877
-9.92602
-9.943
-9.95973
-9.9762
-9.99242
-10.0084
-10.0241
-10.0396
-10.0549
-10.0699
-10.0847
-10.0992
-10.1135
-10.1275
-10.1411
-10.1544
-10.1674
-10.1799
-9.69563
-9.69866
-9.7077
-9.72079
-9.73561
-9.75147
-9.76826
-9.78567
-9.80334
-9.82109
-9.83883
-9.85647
-9.87396
-9.89125
-9.90832
-9.92516
-9.94176
-9.95811
-9.97422
-9.99007
-10.0057
-10.021
-10.0362
-10.051
-10.0656
-10.08
-10.094
-10.1078
-10.1213
-10.1344
-10.1472
-10.1596
-10.1716
-9.70588
-9.70844
-9.71641
-9.72824
-9.74191
-9.75674
-9.77258
-9.78912
-9.80602
-9.82308
-9.8402
-9.85728
-9.87425
-9.89107
-9.90769
-9.92411
-9.94029
-9.95624
-9.97194
-9.98739
-10.0026
-10.0175
-10.0322
-10.0466
-10.0608
-10.0746
-10.0882
-10.1015
-10.1144
-10.127
-10.1392
-10.1511
-10.1625
-9.71516
-9.71733
-9.72442
-9.73517
-9.74781
-9.7617
-9.77664
-9.79235
-9.80851
-9.82491
-9.84142
-9.85795
-9.87441
-9.89075
-9.90692
-9.9229
-9.93867
-9.95421
-9.9695
-9.98455
-9.99935
-10.0139
-10.0281
-10.0421
-10.0558
-10.0692
-10.0823
-10.0951
-10.1076
-10.1196
-10.1314
-10.1427
-10.1537
-9.7235
-9.72535
-9.73171
-9.74154
-9.75326
-9.76629
-9.78041
-9.79535
-9.8108
-9.82656
-9.84248
-9.85846
-9.87441
-9.89027
-9.90599
-9.92153
-9.93687
-9.95199
-9.96687
-9.9815
-9.99587
-10.01
-10.0238
-10.0373
-10.0506
-10.0635
-10.0761
-10.0884
-10.1003
-10.1119
-10.1231
-10.134
-10.1444
-9.73092
-9.73251
-9.73826
-9.7473
-9.75822
-9.77046
-9.78383
-9.79806
-9.81285
-9.828
-9.84335
-9.85879
-9.87424
-9.88963
-9.90489
-9.92
-9.93491
-9.94961
-9.96407
-9.97828
-9.99223
-10.0059
-10.0193
-10.0324
-10.0452
-10.0576
-10.0698
-10.0816
-10.093
-10.1041
-10.1148
-10.1252
-10.1351
-9.73743
-9.7388
-9.74404
-9.75243
-9.76264
-9.77419
-9.78688
-9.80045
-9.81463
-9.82919
-9.844
-9.85893
-9.8739
-9.88882
-9.90364
-9.9183
-9.93279
-9.94706
-9.9611
-9.97489
-9.98841
-10.0016
-10.0146
-10.0272
-10.0396
-10.0516
-10.0632
-10.0745
-10.0855
-10.0961
-10.1063
-10.1162
-10.1257
-9.74303
-9.74422
-9.74904
-9.75687
-9.76648
-9.77742
-9.7895
-9.80248
-9.81609
-9.83012
-9.84442
-9.85886
-9.87336
-9.88783
-9.9022
-9.91644
-9.9305
-9.94436
-9.95797
-9.97134
-9.98443
-9.99723
-10.0097
-10.0219
-10.0338
-10.0453
-10.0565
-10.0674
-10.0779
-10.088
-10.0978
-10.1072
-10.1162
-9.7477
-9.74875
-9.75324
-9.7606
-9.76971
-9.78012
-9.79167
-9.80412
-9.81722
-9.83075
-9.84457
-9.85855
-9.8726
-9.88664
-9.90059
-9.91441
-9.92805
-9.94149
-9.95469
-9.96763
-9.9803
-9.99267
-10.0047
-10.0165
-10.0279
-10.039
-10.0497
-10.0601
-10.0702
-10.0798
-10.0891
-10.0981
-10.1066
-9.75143
-9.75237
-9.75658
-9.76358
-9.77226
-9.78223
-9.79332
-9.80532
-9.81796
-9.83104
-9.84443
-9.85798
-9.87161
-9.88523
-9.89878
-9.91219
-9.92542
-9.93845
-9.95124
-9.96377
-9.97601
-9.98796
-9.9996
-10.0109
-10.0219
-10.0325
-10.0428
-10.0527
-10.0623
-10.0715
-10.0804
-10.0888
-10.0969
-9.75419
-9.75504
-9.75905
-9.76576
-9.77411
-9.78372
-9.79443
-9.80604
-9.81828
-9.83097
-9.84396
-9.85712
-9.87036
-9.88359
-9.89675
-9.90977
-9.92261
-9.93524
-9.94763
-9.95976
-9.97159
-9.98313
-9.99434
-10.0052
-10.0158
-10.026
-10.0358
-10.0453
-10.0545
-10.0632
-10.0716
-10.0796
-10.0873
-9.7559
-9.7567
-9.76057
-9.76707
-9.77518
-9.78452
-9.79493
-9.80621
-9.81812
-9.83047
-9.84312
-9.85593
-9.86881
-9.88167
-9.89446
-9.9071
-9.91957
-9.93181
-9.94381
-9.95553
-9.96696
-9.97808
-9.98888
-9.99934
-10.0095
-10.0192
-10.0286
-10.0377
-10.0464
-10.0547
-10.0626
-10.0702
-10.0774
-9.75652
-9.75729
-9.76107
-9.76745
-9.77541
-9.78455
-9.79474
-9.80578
-9.81743
-9.8295
-9.84184
-9.85434
-9.8669
-9.87944
-9.89188
-9.90419
-9.9163
-9.92818
-9.93981
-9.95116
-9.96221
-9.97295
-9.98335
-9.99341
-10.0031
-10.0125
-10.0215
-10.0301
-10.0384
-10.0463
-10.0538
-10.061
-10.0677
-9.75596
-9.75674
-9.76051
-9.76686
-9.77476
-9.78381
-9.79388
-9.80475
-9.81621
-9.82806
-9.84016
-9.85239
-9.86467
-9.8769
-9.88902
-9.90099
-9.91275
-9.92428
-9.93554
-9.94651
-9.95717
-9.96751
-9.97751
-9.98716
-9.99645
-10.0054
-10.014
-10.0222
-10.03
-10.0374
-10.0445
-10.0513
-10.0576
-9.75414
-9.75497
-9.75882
-9.76524
-9.77321
-9.78228
-9.79231
-9.80312
-9.81447
-9.82617
-9.83809
-9.85012
-9.86217
-9.87415
-9.88601
-9.8977
-9.90917
-9.92039
-9.93133
-9.94197
-9.9523
-9.96229
-9.97194
-9.98123
-9.99016
-9.99872
-10.0069
-10.0147
-10.0222
-10.0293
-10.036
-10.0423
-10.0482
-9.75094
-9.75186
-9.75589
-9.76253
-9.77069
-9.7799
-9.79002
-9.80086
-9.81218
-9.8238
-9.83559
-9.84744
-9.85927
-9.87101
-9.8826
-9.894
-9.90515
-9.91604
-9.92664
-9.93693
-9.94688
-9.95649
-9.96575
-9.97465
-9.98318
-9.99134
-9.99912
-10.0065
-10.0136
-10.0202
-10.0265
-10.0324
-10.038
-9.74618
-9.74726
-9.7516
-9.75864
-9.76715
-9.77665
-9.78698
-9.79797
-9.80939
-9.82104
-9.83281
-9.84461
-9.85634
-9.86794
-9.87937
-9.89057
-9.90151
-9.91216
-9.92251
-9.93253
-9.9422
-9.95152
-9.96047
-9.96906
-9.97727
-9.98509
-9.99254
-9.9996
-10.0063
-10.0126
-10.0185
-10.0241
-10.0292
-9.73964
-9.74097
-9.74582
-9.75347
-9.76254
-9.77247
-9.78314
-9.79436
-9.8059
-9.81759
-9.82932
-9.84101
-9.8526
-9.86401
-9.87521
-9.88615
-9.89681
-9.90717
-9.9172
-9.92689
-9.93623
-9.9452
-9.9538
-9.96202
-9.96986
-9.97731
-9.98438
-9.99106
-9.99736
-10.0033
-10.0088
-10.014
-10.0189
-9.731
-9.7327
-9.73834
-9.74692
-9.75681
-9.76742
-9.77866
-9.79038
-9.80231
-9.81428
-9.82619
-9.83799
-9.84961
-9.861
-9.87213
-9.88296
-9.89348
-9.90367
-9.9135
-9.92297
-9.93207
-9.94079
-9.94913
-9.95707
-9.96462
-9.97178
-9.97854
-9.98492
-9.99089
-9.99648
-10.0017
-10.0065
-10.0109
-9.7198
-9.7221
-9.72898
-9.73892
-9.74981
-9.7611
-9.77285
-9.78495
-9.79712
-9.80921
-9.82117
-9.83294
-9.84448
-9.85575
-9.86671
-9.87735
-9.88765
-9.89759
-9.90716
-9.91636
-9.92517
-9.93359
-9.94162
-9.94925
-9.95648
-9.96331
-9.96975
-9.97579
-9.98145
-9.98672
-9.99161
-9.99614
-10.0003
-9.70534
-9.7086
-9.71751
-9.72961
-9.74223
-9.7549
-9.76783
-9.78085
-9.79367
-9.80621
-9.81846
-9.83041
-9.84203
-9.85329
-9.8642
-9.87474
-9.8849
-9.89467
-9.90406
-9.91304
-9.92163
-9.92981
-9.93758
-9.94494
-9.9519
-9.95844
-9.96458
-9.97032
-9.97565
-9.98058
-9.98511
-9.98924
-9.99296
-9.68654
-9.69156
-9.70348
-9.71772
-9.73133
-9.74478
-9.75857
-9.77231
-9.78561
-9.79847
-9.81095
-9.82304
-9.83471
-9.84596
-9.85679
-9.86722
-9.87723
-9.88682
-9.89601
-9.90478
-9.91313
-9.92108
-9.92861
-9.93572
-9.94243
-9.94873
-9.95462
-9.96011
-9.9652
-9.9699
-9.97422
-9.97816
-9.98176
-9.66127
-9.67034
-9.68956
-9.70904
-9.72512
-9.74007
-9.75508
-9.7696
-9.78329
-9.79632
-9.80885
-9.82091
-9.83248
-9.84359
-9.85426
-9.86449
-9.87428
-9.88364
-9.89258
-9.90109
-9.90917
-9.91682
-9.92405
-9.93086
-9.93725
-9.94323
-9.94879
-9.95395
-9.9587
-9.96305
-9.967
-9.97055
-9.97369
-9.62605
-9.63962
-9.66504
-9.688
-9.70657
-9.72412
-9.7412
-9.75701
-9.77149
-9.78505
-9.79791
-9.81011
-9.8217
-9.83274
-9.84328
-9.85335
-9.86297
-9.87215
-9.8809
-9.88923
-9.89714
-9.90463
-9.91171
-9.91837
-9.92463
-9.93047
-9.93591
-9.94094
-9.94557
-9.9498
-9.95362
-9.95702
-9.96
-9.57848
-9.62608
-9.66529
-9.68527
-9.70116
-9.71904
-9.73645
-9.75176
-9.76558
-9.77868
-9.7912
-9.80308
-9.81434
-9.82508
-9.83533
-9.84512
-9.85445
-9.86336
-9.87184
-9.8799
-9.88755
-9.89479
-9.90163
-9.90806
-9.91409
-9.91973
-9.92498
-9.92985
-9.93435
-9.9385
-9.94232
-9.94586
-9.94916
-9.44389
-9.56598
-9.64042
-9.66432
-9.68023
-9.70074
-9.72063
-9.73715
-9.7517
-9.76564
-9.7792
-9.79225
-9.8048
-9.81696
-9.82874
-9.84015
-9.85117
-9.8618
-9.87203
-9.88185
-9.89125
-9.90021
-9.90873
-9.91681
-9.92444
-9.93161
-9.93832
-9.94458
-9.95037
-9.95569
-9.96055
-9.96493
-9.96892
-10.4066
-10.5629
-10.7874
-10.8931
-11.0012
-11.1057
-11.1857
-11.2443
-11.2849
-11.3089
-11.3203
-11.3249
-11.3278
-11.332
-11.3383
-11.3477
-11.361
-11.3776
-11.4063
-11.4527
-11.5174
-11.5982
-11.6918
-11.7954
-11.9073
-12.0263
-12.1511
-12.279
-12.4069
-12.531
-12.6488
-12.7588
-12.861
-12.956
-13.0432
-13.1195
-13.1789
-13.213
-13.2115
-13.1603
-13.0361
-12.8007
-12.4006
-11.8002
-11.0439
-10.2431
-9.48467
-8.78717
-8.13567
-7.53068
-6.98238
-6.45401
-5.90158
-5.37
-4.92822
-4.61647
-4.75824
-5.64489
-7.30916
-9.5464
-12.0595
-14.5281
-16.5391
-17.7531
-17.9433
-17.0869
-15.4482
-13.3725
-11.1572
-9.01919
-7.09547
-5.46403
-4.17142
-3.22453
-2.55752
-2.05356
-1.63943
-1.29926
-1.03064
-0.82656
-0.675935
-0.566814
-0.488519
-0.432405
-0.391872
-0.362011
-0.33921
-0.320831
-0.304903
-0.290068
-0.275141
-0.259644
-0.242335
-0.22405
-0.201361
-0.179809
-0.14525
-0.124984
-0.0558898
-0.0709444
-10.315
-10.3715
-10.4688
-10.5169
-10.5692
-10.6352
-10.6992
-10.7572
-10.8087
-10.8521
-10.8884
-10.9204
-10.951
-10.9817
-11.0131
-11.0465
-11.0844
-11.1248
-11.1739
-11.2369
-11.315
-11.4066
-11.5092
-11.6205
-11.7388
-11.863
-11.9913
-12.1214
-12.2498
-12.3733
-12.4894
-12.597
-12.6959
-12.7864
-12.8674
-12.9355
-12.9845
-13.0055
-12.9874
-12.9143
-12.7616
-12.492
-12.0594
-11.4428
-10.6941
-9.91779
-9.18989
-8.52198
-7.89664
-7.31423
-6.78693
-6.27687
-5.72706
-5.16076
-4.63794
-4.25278
-4.42737
-5.44331
-7.23695
-9.5313
-12.0153
-14.38
-16.2548
-17.36
-17.4942
-16.6576
-15.09
-13.0995
-10.9609
-8.88321
-7.00076
-5.387
-4.08387
-3.10619
-2.41549
-1.91212
-1.51373
-1.19282
-0.94166
-0.751706
-0.611913
-0.511008
-0.439084
-0.388128
-0.351971
-0.32597
-0.30666
-0.291485
-0.278512
-0.266404
-0.253982
-0.240783
-0.225563
-0.209199
-0.188241
-0.168361
-0.135335
-0.116776
-0.0496346
-0.0667419
-10.2705
-10.2968
-10.3458
-10.3766
-10.4014
-10.4345
-10.4687
-10.4999
-10.5282
-10.5539
-10.5778
-10.6022
-10.6291
-10.6597
-10.6945
-10.7346
-10.7813
-10.835
-10.8975
-10.9724
-11.0608
-11.1614
-11.2721
-11.3907
-11.5157
-11.6455
-11.7783
-11.9115
-12.0421
-12.1668
-12.2834
-12.3906
-12.4882
-12.5759
-12.6522
-12.7134
-12.753
-12.7621
-12.7285
-12.6354
-12.4573
-12.1594
-11.7039
-11.0838
-10.3557
-9.61313
-8.91779
-8.2759
-7.67203
-7.10799
-6.59715
-6.10641
-5.57703
-5.01023
-4.43852
-3.98734
-4.15835
-5.24665
-7.11788
-9.43328
-11.8653
-14.1179
-15.8674
-16.882
-16.9845
-16.1863
-14.7007
-12.8033
-10.7494
-8.7405
-6.9083
-5.32236
-4.01984
-3.02027
-2.30626
-1.79853
-1.41082
-1.10486
-0.867773
-0.689481
-0.558807
-0.464877
-0.398326
-0.351645
-0.31903
-0.296084
-0.279492
-0.266783
-0.256074
-0.246057
-0.235566
-0.224156
-0.210584
-0.195759
-0.176232
-0.157747
-0.126128
-0.109028
-0.0441838
-0.0625399
-10.2633
-10.2918
-10.3324
-10.3638
-10.3844
-10.4052
-10.4249
-10.4398
-10.4506
-10.4587
-10.4656
-10.4734
-10.4846
-10.5006
-10.5224
-10.5512
-10.5886
-10.6359
-10.6938
-10.7643
-10.8486
-10.9456
-11.0534
-11.1699
-11.2934
-11.4221
-11.554
-11.6863
-11.8159
-11.9398
-12.0556
-12.162
-12.2581
-12.3432
-12.4153
-12.4704
-12.5019
-12.5004
-12.4534
-12.3432
-12.1449
-11.8265
-11.3579
-10.742
-10.0365
-9.32475
-8.65724
-8.03605
-7.44897
-6.89885
-6.39555
-5.91095
-5.40042
-4.86808
-4.32375
-3.87492
-4.03614
-5.13044
-7.00584
-9.29262
-11.6493
-13.786
-15.417
-16.3503
-16.4346
-15.6847
-14.2864
-12.4861
-10.5219
-8.58765
-6.812
-5.26127
-3.96775
-2.95396
-2.2179
-1.70083
-1.31895
-1.02456
-0.798981
-0.630432
-0.507561
-0.419788
-0.358144
-0.315483
-0.286279
-0.26632
-0.252405
-0.242133
-0.233657
-0.225695
-0.217094
-0.207426
-0.195461
-0.18213
-0.164024
-0.146896
-0.116773
-0.101056
-0.0389663
-0.0580096
-10.2627
-10.2899
-10.3216
-10.3482
-10.3668
-10.3843
-10.4011
-10.4143
-10.4237
-10.4303
-10.4351
-10.4398
-10.4462
-10.4559
-10.4701
-10.4902
-10.5178
-10.5546
-10.6019
-10.6612
-10.7335
-10.8182
-10.9139
-11.019
-11.1318
-11.2506
-11.3732
-11.4972
-11.6194
-11.7369
-11.8473
-11.9488
-12.0402
-12.12
-12.1857
-12.233
-12.2551
-12.2423
-12.1819
-12.0559
-11.8405
-11.5073
-11.0335
-10.4283
-9.74675
-9.06269
-8.41914
-7.81675
-7.24638
-6.71218
-6.21884
-5.73773
-5.23567
-4.7324
-4.24335
-3.85729
-4.03584
-5.10417
-6.9269
-9.13689
-11.3888
-13.3981
-14.9124
-15.7733
-15.8511
-15.1569
-13.8497
-12.1501
-10.2808
-8.42738
-6.71496
-5.20728
-3.93232
-2.91308
-2.1586
-1.62796
-1.24588
-0.958795
-0.741886
-0.580991
-0.464311
-0.381423
-0.323658
-0.284155
-0.257617
-0.23999
-0.228174
-0.219826
-0.213132
-0.206825
-0.199766
-0.191532
-0.180916
-0.168849
-0.151992
-0.13605
-0.107381
-0.0928641
-0.0338327
-0.0529847
-10.2593
-10.2847
-10.312
-10.3373
-10.3574
-10.3753
-10.3918
-10.405
-10.4145
-10.4211
-10.4259
-10.4303
-10.4358
-10.4439
-10.4559
-10.4731
-10.4968
-10.5287
-10.57
-10.622
-10.6852
-10.7595
-10.8439
-10.937
-11.0375
-11.1437
-11.2539
-11.3655
-11.4761
-11.5827
-11.6831
-11.7753
-11.8577
-11.9282
-11.984
-12.0204
-12.0303
-12.0041
-11.9289
-11.7873
-11.5569
-11.2128
-10.738
-10.1452
-9.48533
-8.82359
-8.1976
-7.60868
-7.05093
-6.52967
-6.04785
-5.57922
-5.09607
-4.6226
-4.18823
-3.88576
-4.10209
-5.13282
-6.86795
-8.96622
-11.0913
-12.9674
-14.3703
-15.1672
-15.2461
-14.6107
-13.3953
-11.7979
-10.027
-8.25959
-6.616
-5.15776
-3.90989
-2.89362
-2.12529
-1.57881
-1.19043
-0.905449
-0.693787
-0.538323
-0.42634
-0.347314
-0.292707
-0.255833
-0.231546
-0.215912
-0.205906
-0.199233
-0.194104
-0.189265
-0.183585
-0.176644
-0.167259
-0.15635
-0.140678
-0.125842
-0.0986513
-0.0852452
-0.0294618
-0.048441
-10.2548
-10.2789
-10.3037
-10.327
-10.3464
-10.3633
-10.3785
-10.3911
-10.4008
-10.4082
-10.4143
-10.4202
-10.427
-10.4362
-10.4488
-10.466
-10.489
-10.5192
-10.5577
-10.6055
-10.6631
-10.7305
-10.8067
-10.8906
-10.9811
-11.0766
-11.1754
-11.2753
-11.3741
-11.469
-11.558
-11.639
-11.71
-11.7688
-11.812
-11.8349
-11.8304
-11.789
-11.6979
-11.5407
-11.297
-10.9451
-10.4723
-9.89265
-9.25233
-8.60979
-7.9993
-7.42331
-6.87758
-6.36602
-5.89016
-5.43239
-4.97544
-4.53977
-4.1606
-3.94209
-4.20153
-5.18947
-6.81776
-8.78192
-10.7657
-12.5073
-13.8056
-14.5462
-14.6301
-14.0528
-12.9274
-11.4326
-9.76289
-8.08589
-6.51607
-5.11259
-3.89906
-2.89407
-2.11739
-1.55528
-1.15618
-0.868183
-0.657867
-0.505114
-0.395886
-0.319283
-0.26673
-0.231606
-0.208846
-0.194587
-0.185855
-0.180389
-0.176417
-0.172692
-0.168089
-0.162184
-0.15382
-0.143891
-0.12928
-0.115428
-0.0897011
-0.077288
-0.0248788
-0.0435605
-10.2497
-10.2723
-10.2951
-10.3166
-10.3355
-10.3521
-10.3672
-10.3802
-10.3908
-10.3995
-10.407
-10.4142
-10.4222
-10.4323
-10.4453
-10.4625
-10.485
-10.5139
-10.5502
-10.5948
-10.6479
-10.7097
-10.7793
-10.8557
-10.9378
-11.0242
-11.1132
-11.2028
-11.2909
-11.3751
-11.4531
-11.523
-11.5824
-11.629
-11.6591
-11.668
-11.6485
-11.5916
-11.485
-11.3136
-11.0588
-10.7021
-10.2337
-9.6674
-9.04448
-8.41747
-7.81909
-7.25436
-6.72141
-6.22192
-5.75369
-5.30606
-4.87498
-4.47974
-4.15627
-4.01536
-4.3152
-5.25831
-6.77222
-8.59113
-10.4263
-12.0348
-13.2349
-13.9243
-14.0126
-13.4892
-12.45
-11.057
-9.4906
-7.90743
-6.41533
-5.07088
-3.89717
-2.91077
-2.13154
-1.55537
-1.14281
-0.847276
-0.634338
-0.481425
-0.372942
-0.297323
-0.245768
-0.211594
-0.189734
-0.176341
-0.168461
-0.163844
-0.160724
-0.15785
-0.154104
-0.149047
-0.141553
-0.132475
-0.118842
-0.105888
-0.0816211
-0.0701311
-0.0210906
-0.0395077
-10.2428
-10.2643
-10.2855
-10.3057
-10.324
-10.3404
-10.355
-10.3679
-10.3788
-10.3881
-10.3965
-10.4048
-10.4139
-10.4249
-10.4387
-10.4563
-10.4786
-10.5067
-10.5414
-10.5833
-10.6328
-10.6898
-10.7537
-10.8235
-10.8982
-10.9765
-11.0567
-11.1369
-11.2152
-11.2893
-11.357
-11.4161
-11.4644
-11.499
-11.5164
-11.5115
-11.4778
-11.4062
-11.2856
-11.1019
-10.8388
-10.4805
-10.0193
-9.46755
-8.86159
-8.24873
-7.66086
-7.10577
-6.58385
-6.09619
-5.63846
-5.20411
-4.79863
-4.44204
-4.1711
-4.09665
-4.42897
-5.32624
-6.72622
-8.39875
-10.0849
-11.5633
-12.6696
-13.3097
-13.3991
-12.9237
-11.9667
-10.6746
-9.21271
-7.72588
-6.31439
-5.03216
-3.90233
-2.94051
-2.16497
-1.57774
-1.15075
-0.844245
-0.624876
-0.468686
-0.358621
-0.282247
-0.230353
-0.196073
-0.174257
-0.161022
-0.153395
-0.149116
-0.14641
-0.144015
-0.140811
-0.136339
-0.129505
-0.121107
-0.108337
-0.0961798
-0.0733556
-0.062723
-0.0170429
-0.0353693
-10.2364
-10.2566
-10.2766
-10.2956
-10.3131
-10.3289
-10.3433
-10.3562
-10.3676
-10.3777
-10.3871
-10.3965
-10.4067
-10.4185
-10.4329
-10.4506
-10.4726
-10.4997
-10.5326
-10.5719
-10.6178
-10.6702
-10.7285
-10.7921
-10.8597
-10.9302
-11.002
-11.0734
-11.1423
-11.2067
-11.2644
-11.3132
-11.3506
-11.3738
-11.379
-11.3613
-11.3142
-11.2294
-11.0965
-10.9029
-10.6344
-10.2777
-9.82636
-9.29086
-8.70245
-8.10329
-7.525
-6.97889
-6.46729
-5.99094
-5.54531
-5.1272
-4.74767
-4.42727
-4.20399
-4.18242
-4.53508
-5.38347
-6.67239
-8.20327
-9.74553
-11.0983
-12.1134
-12.7044
-12.7909
-12.3587
-11.4808
-10.2886
-8.93211
-7.54301
-6.2138
-4.99586
-3.91275
-2.97985
-2.21374
-1.61959
-1.17881
-0.859234
-0.630236
-0.467744
-0.353706
-0.274783
-0.221192
-0.185751
-0.163141
-0.149381
-0.141444
-0.13703
-0.134342
-0.132089
-0.129145
-0.125021
-0.118654
-0.110775
-0.0987541
-0.0872921
-0.0658718
-0.0560366
-0.0136171
-0.0319993
-10.2282
-10.2474
-10.2663
-10.2844
-10.3012
-10.3166
-10.3308
-10.3437
-10.3553
-10.366
-10.3761
-10.3862
-10.3971
-10.4095
-10.4241
-10.4418
-10.4634
-10.4894
-10.5206
-10.5574
-10.5999
-10.648
-10.7013
-10.7589
-10.8199
-10.8831
-10.947
-11.01
-11.07
-11.1252
-11.1734
-11.2122
-11.2392
-11.2514
-11.2451
-11.2154
-11.1562
-11.0597
-10.9164
-10.7151
-10.4438
-10.0913
-9.65248
-9.13561
-8.56654
-7.98214
-7.41334
-6.87531
-6.37318
-5.9079
-5.47561
-5.07573
-4.72194
-4.43526
-4.25429
-4.27284
-4.6323
-5.42613
-6.60522
-7.99935
-9.40415
-10.6372
-11.5643
-12.1066
-12.1886
-11.7971
-10.9965
-9.90352
-8.6521
-7.36084
-6.11433
-4.96156
-3.92694
-3.02612
-2.27427
-1.67791
-1.22544
-0.892127
-0.651175
-0.479568
-0.359018
-0.275517
-0.21865
-0.1808
-0.156383
-0.141261
-0.13231
-0.127169
-0.123996
-0.121463
-0.118427
-0.114359
-0.108228
-0.100683
-0.0892821
-0.0784127
-0.0583551
-0.0492738
-0.0100417
-0.0287055
-10.2207
-10.239
-10.2568
-10.274
-10.2902
-10.3052
-10.319
-10.3318
-10.3436
-10.3546
-10.3652
-10.376
-10.3874
-10.4002
-10.4151
-10.4326
-10.4535
-10.4784
-10.5078
-10.542
-10.5811
-10.625
-10.6733
-10.7252
-10.7797
-10.8358
-10.892
-10.9468
-10.9982
-11.0444
-11.0833
-11.1125
-11.1295
-11.1313
-11.1141
-11.0734
-11.0032
-10.8964
-10.7445
-10.5376
-10.2656
-9.91948
-9.49526
-8.99932
-8.45225
-7.88522
-7.32751
-6.79733
-6.30343
-5.84843
-5.43008
-5.04964
-4.72112
-4.46556
-4.32115
-4.36914
-4.72374
-5.45705
-6.52627
-7.78696
-9.05946
-10.1786
-11.0223
-11.5178
-11.5956
-11.2441
-10.5195
-9.52416
-8.3763
-7.18151
-6.01674
-4.92889
-3.94348
-3.0769
-2.34318
-1.74923
-1.28821
-0.941869
-0.687824
-0.504972
-0.375564
-0.285409
-0.223602
-0.182038
-0.154774
-0.137442
-0.126773
-0.120309
-0.116149
-0.112911
-0.109423
-0.105112
-0.0989708
-0.0915586
-0.0806255
-0.0702242
-0.0514528
-0.0430596
-0.0068945
-0.0259365
-10.2118
-10.2292
-10.2462
-10.2626
-10.2781
-10.2927
-10.3063
-10.319
-10.3309
-10.3421
-10.3531
-10.3642
-10.376
-10.389
-10.4038
-10.4209
-10.4411
-10.4647
-10.4921
-10.5237
-10.5595
-10.5993
-10.6428
-10.6892
-10.7375
-10.7868
-10.8357
-10.8826
-10.9258
-10.9635
-10.9934
-11.0134
-11.0209
-11.0128
-10.9856
-10.9348
-10.8549
-10.7393
-10.5805
-10.3699
-10.099
-9.76077
-9.35241
-8.87904
-8.35667
-7.81052
-7.26702
-6.74613
-6.26006
-5.81437
-5.40951
-5.04849
-4.74449
-4.51752
-4.404
-4.47274
-4.81418
-5.48333
-6.44376
-7.57431
-8.71863
-9.72853
-10.4936
-10.9447
-11.0193
-10.7072
-10.0565
-9.15592
-8.10838
-7.00706
-5.92182
-4.89766
-3.96125
-3.13009
-2.41752
-1.83024
-1.36435
-1.00675
-0.739555
-0.544194
-0.404
-0.305136
-0.23656
-0.189785
-0.158472
-0.137949
-0.124747
-0.116275
-0.110546
-0.106111
-0.101763
-0.0968696
-0.0904448
-0.0829471
-0.0723193
-0.0622624
-0.0446995
-0.0369416
-0.00376403
-0.0232748
-10.2034
-10.22
-10.2362
-10.2519
-10.2668
-10.2809
-10.2941
-10.3066
-10.3184
-10.3298
-10.3409
-10.3523
-10.3642
-10.3772
-10.3917
-10.4084
-10.4276
-10.4498
-10.4752
-10.5042
-10.5367
-10.5725
-10.6113
-10.6522
-10.6946
-10.7373
-10.779
-10.8183
-10.8535
-10.8828
-10.9042
-10.9153
-10.9137
-10.8964
-10.8599
-10.7999
-10.7114
-10.5883
-10.424
-10.2113
-9.94302
-9.61382
-9.2219
-8.77176
-8.27601
-7.7545
-7.22969
-6.72134
-6.2442
-5.8073
-5.41475
-5.07173
-4.79055
-4.58959
-4.50186
-4.58449
-4.90765
-5.51217
-6.36734
-7.37265
-8.39342
-9.29818
-9.98821
-10.3972
-10.4691
-10.1947
-9.61445
-8.80392
-7.85163
-6.83926
-5.83018
-4.86768
-3.97941
-3.18399
-2.4946
-1.91765
-1.45084
-1.08461
-0.805153
-0.596924
-0.44478
-0.33555
-0.258448
-0.204892
-0.168237
-0.14348
-0.126889
-0.115693
-0.107788
-0.10164
-0.0959904
-0.0901453
-0.0831307
-0.0752971
-0.0647771
-0.0549092
-0.0384382
-0.0312277
-0.000946647
-0.0208508
-10.1941
-10.2099
-10.2253
-10.2403
-10.2546
-10.2683
-10.2812
-10.2934
-10.3051
-10.3165
-10.3277
-10.339
-10.3509
-10.3637
-10.3779
-10.3938
-10.412
-10.4326
-10.456
-10.4823
-10.5115
-10.5434
-10.5775
-10.6133
-10.6498
-10.6861
-10.721
-10.7531
-10.7806
-10.802
-10.8152
-10.8179
-10.8078
-10.7818
-10.7368
-10.6685
-10.5725
-10.4433
-10.275
-10.0615
-9.79712
-9.47766
-9.10226
-8.67509
-8.20648
-7.71218
-7.21055
-6.71947
-6.25446
-5.8274
-5.44631
-5.1191
-4.85796
-4.67965
-4.61295
-4.70401
-5.00609
-5.54822
-6.30416
-7.19115
-8.09451
-8.89873
-9.5167
-9.88499
-9.95379
-9.71418
-9.19931
-8.4723
-7.60853
-6.67928
-5.74217
-4.83877
-3.99737
-3.23746
-2.57234
-2.00842
-1.54438
-1.17284
-0.882938
-0.662177
-0.497566
-0.376907
-0.289816
-0.2279
-0.184468
-0.154281
-0.133331
-0.118616
-0.10787
-0.0994461
-0.0920211
-0.0848252
-0.0768917
-0.068456
-0.0578332
-0.0479931
-0.0324895
-0.0257391
0.00170425
-0.0184544
-10.1851
-10.2001
-10.2149
-10.2292
-10.243
-10.2561
-10.2687
-10.2806
-10.2921
-10.3032
-10.3143
-10.3255
-10.3372
-10.3497
-10.3633
-10.3784
-10.3953
-10.4143
-10.4356
-10.4592
-10.4851
-10.5131
-10.5427
-10.5734
-10.6043
-10.6344
-10.6627
-10.6877
-10.708
-10.7217
-10.727
-10.7218
-10.7035
-10.6696
-10.6167
-10.5411
-10.4386
-10.3044
-10.1334
-9.92034
-9.6607
-9.35145
-8.99239
-8.58744
-8.1454
-7.67921
-7.20393
-6.73489
-6.28674
-5.87253
-5.5033
-5.18994
-4.94548
-4.78562
-4.73493
-4.82976
-5.10942
-5.59311
-6.25772
-7.03509
-7.82856
-8.53804
-9.08694
-9.41572
-9.48024
-9.27135
-8.81517
-8.16361
-7.38037
-6.52765
-5.65784
-4.8107
-4.01466
-3.28973
-2.64936
-2.1002
-1.6418
-1.26828
-0.970688
-0.738727
-0.561693
-0.429037
-0.331044
-0.259529
-0.207935
-0.171027
-0.144632
-0.125516
-0.111211
-0.0999123
-0.0902047
-0.0812281
-0.0720131
-0.062676
-0.0517045
-0.0417001
-0.0270038
-0.0205936
0.00408248
-0.0160825
-10.1754
-10.1898
-10.2039
-10.2175
-10.2307
-10.2434
-10.2555
-10.2671
-10.2783
-10.2892
-10.3
-10.3109
-10.3223
-10.3342
-10.3471
-10.3613
-10.3769
-10.3941
-10.4132
-10.4341
-10.4568
-10.4809
-10.5062
-10.5319
-10.5574
-10.5816
-10.6035
-10.6218
-10.635
-10.6415
-10.6394
-10.6267
-10.6009
-10.5596
-10.4996
-10.4176
-10.3097
-10.1716
-9.99889
-9.78733
-9.53326
-9.23452
-8.89143
-8.50777
-8.09116
-7.65258
-7.20477
-6.76091
-6.33408
-5.93698
-5.58198
-5.28203
-5.05148
-4.90564
-4.8657
-4.95988
-5.21628
-5.64614
-6.22821
-6.90588
-7.59807
-8.21944
-8.70294
-8.99351
-9.05202
-8.86874
-8.46345
-7.87839
-7.16721
-6.38421
-5.57698
-4.78321
-4.03093
-3.34028
-2.72481
-2.19145
-1.74066
-1.36782
-1.06539
-0.82454
-0.636158
-0.491383
-0.381847
-0.299911
-0.239098
-0.194238
-0.161202
-0.136666
-0.117979
-0.103146
-0.0906171
-0.0794127
-0.0685406
-0.0579915
-0.0464121
-0.0360411
-0.0219759
-0.015778
0.00621343
-0.0137034
-10.1659
-10.1796
-10.193
-10.2061
-10.2187
-10.2309
-10.2425
-10.2538
-10.2646
-10.2752
-10.2856
-10.2961
-10.3069
-10.3182
-10.3303
-10.3433
-10.3574
-10.3729
-10.3897
-10.4079
-10.4273
-10.4477
-10.4687
-10.4896
-10.5098
-10.5283
-10.5442
-10.5561
-10.5626
-10.5622
-10.553
-10.5332
-10.5005
-10.4524
-10.3861
-10.2984
-10.1859
-10.0449
-9.87153
-9.6623
-9.41437
-9.12628
-8.79874
-8.43534
-8.04285
-7.63072
-7.21006
-6.79246
-6.38965
-6.01336
-5.67577
-5.39045
-5.17243
-5.03702
-5.0029
-5.09218
-5.32446
-5.70477
-6.21296
-6.8013
-7.4017
-7.94222
-8.36455
-8.61831
-8.66868
-8.50537
-8.1429
-7.61541
-6.9681
-6.24837
-5.49924
-4.75606
-4.04596
-3.38883
-2.79817
-2.28126
-1.83941
-1.46916
-1.16418
-0.9168
-0.719047
-0.563157
-0.441949
-0.348903
-0.2781
-0.224405
-0.18367
-0.152621
-0.12859
-0.109446
-0.0934844
-0.0795659
-0.0666389
-0.0545513
-0.0420864
-0.0311285
-0.0174909
-0.0113598
0.00808139
-0.0113729
-10.1561
-10.1691
-10.1819
-10.1943
-10.2063
-10.218
-10.2291
-10.2399
-10.2503
-10.2605
-10.2704
-10.2804
-10.2906
-10.3011
-10.3122
-10.324
-10.3366
-10.3502
-10.3647
-10.3802
-10.3964
-10.4131
-10.4299
-10.4462
-10.4614
-10.4745
-10.4845
-10.4903
-10.4904
-10.4835
-10.4678
-10.4414
-10.4022
-10.348
-10.276
-10.1835
-10.0673
-9.92425
-9.75108
-9.54491
-9.30357
-9.02617
-8.71369
-8.36956
-7.99981
-7.61274
-7.21815
-6.82647
-6.44837
-6.0947
-5.77692
-5.50799
-5.30256
-5.17553
-5.14355
-5.22428
-5.43141
-5.76566
-6.20765
-6.71647
-7.23478
-7.70209
-8.06767
-8.286
-8.3261
-8.17741
-7.85029
-7.37233
-6.78161
-6.11937
-5.42427
-4.72905
-4.05958
-3.43517
-2.86917
-2.36911
-1.93708
-1.57075
-1.26493
-1.01295
-0.807717
-0.64236
-0.510474
-0.406311
-0.324822
-0.261497
-0.212297
-0.173851
-0.143501
-0.11914
-0.0990045
-0.0818013
-0.0663797
-0.0524116
-0.0387767
-0.0270092
-0.0135815
-0.00737006
0.00973225