/*--------------------------------*- C++ -*----------------------------------*\
| =========                 |                                                 |
| \\      /  F ield         | OpenFOAM: The Open Source CFD Toolbox           |
|  \\    /   O peration     | Version:  4.1                                   |
|   \\  /    A nd           | Web:      www.OpenFOAM.org                      |
|    \\/     M anipulation  |                                                 |
\*---------------------------------------------------------------------------*/
FoamFile
{
    version     2.0;
    format      ascii;
    class       surfaceScalarField;
    location    "300";
    object      phi;
}
// * * * * * * * * * * * * * * * * * * * * * * * * * * * * * * * * * * * * * //

dimensions      [0 3 -1 0 0 0 0];

internalField   nonuniform List<scalar> 
13452
(
5.95314e-05
7.37014e-07
5.86598e-05
8.71635e-07
5.78175e-05
8.42355e-07
5.69833e-05
8.34171e-07
5.61584e-05
8.24863e-07
5.53557e-05
8.02688e-07
5.45825e-05
7.7322e-07
5.38413e-05
7.41192e-07
5.31333e-05
7.08016e-07
5.2459e-05
6.74271e-07
5.18184e-05
6.40607e-07
5.12108e-05
6.07599e-07
5.06352e-05
5.75605e-07
5.00904e-05
5.44811e-07
4.95751e-05
5.15305e-07
4.9088e-05
4.87116e-07
4.86278e-05
4.60234e-07
4.81931e-05
4.34619e-07
4.77829e-05
4.10216e-07
4.7396e-05
3.86959e-07
4.70312e-05
3.64779e-07
4.66876e-05
3.43602e-07
4.63642e-05
3.23352e-07
4.60603e-05
3.03952e-07
4.5775e-05
2.85318e-07
4.55076e-05
2.67364e-07
4.52576e-05
2.49974e-07
4.50245e-05
2.33077e-07
4.48082e-05
2.16308e-07
4.46081e-05
2.00175e-07
4.44262e-05
1.81813e-07
4.42596e-05
1.66603e-07
1.33315e-07
4.41263e-05
6.23701e-05
3.57255e-07
6.26549e-05
5.86828e-07
6.28762e-05
6.21009e-07
6.30528e-05
6.57572e-07
6.31876e-05
6.90077e-07
6.32841e-05
7.06191e-07
6.33458e-05
7.11504e-07
6.33759e-05
7.11097e-07
6.33777e-05
7.0623e-07
6.33547e-05
6.97308e-07
6.33102e-05
6.85053e-07
6.32476e-05
6.70257e-07
6.31696e-05
6.53556e-07
6.3079e-05
6.35431e-07
6.2978e-05
6.16273e-07
6.28688e-05
5.96404e-07
6.27529e-05
5.76081e-07
6.2632e-05
5.55508e-07
6.25074e-05
5.34842e-07
6.23802e-05
5.14202e-07
6.22513e-05
4.9368e-07
6.21215e-05
4.73338e-07
6.19916e-05
4.53218e-07
6.18623e-05
4.33341e-07
6.17339e-05
4.13704e-07
6.16069e-05
3.9429e-07
6.14819e-05
3.75039e-07
6.13591e-05
3.55905e-07
6.12387e-05
3.3664e-07
6.11215e-05
3.17382e-07
6.10066e-05
2.96727e-07
6.08968e-05
2.76361e-07
2.51791e-07
6.07784e-05
6.38366e-05
2.821e-07
6.38981e-05
5.25318e-07
6.39337e-05
5.85388e-07
6.39624e-05
6.28877e-07
6.39864e-05
6.66106e-07
6.40064e-05
6.86179e-07
6.4024e-05
6.93863e-07
6.40401e-05
6.9502e-07
6.40547e-05
6.91596e-07
6.40678e-05
6.84214e-07
6.40792e-05
6.73642e-07
6.40888e-05
6.60689e-07
6.40964e-05
6.45973e-07
6.41019e-05
6.2994e-07
6.41052e-05
6.12937e-07
6.41064e-05
5.95247e-07
6.41053e-05
5.77092e-07
6.41022e-05
5.58644e-07
6.4097e-05
5.40031e-07
6.40899e-05
5.21352e-07
6.40809e-05
5.02677e-07
6.40702e-05
4.84052e-07
6.40579e-05
4.65508e-07
6.40442e-05
4.47051e-07
6.40292e-05
4.28671e-07
6.40131e-05
4.10339e-07
6.39962e-05
3.91993e-07
6.39785e-05
3.73561e-07
6.39603e-05
3.54862e-07
6.39419e-05
3.35806e-07
6.39227e-05
3.15883e-07
6.39041e-05
2.94945e-07
2.72846e-07
6.38831e-05
6.56441e-05
2.21072e-07
6.5711e-05
4.58382e-07
6.57553e-05
5.41087e-07
6.57905e-05
5.93709e-07
6.58206e-05
6.35983e-07
6.58461e-05
6.60668e-07
6.58682e-05
6.71833e-07
6.58877e-05
6.7547e-07
6.59053e-05
6.73981e-07
6.59213e-05
6.68197e-07
6.5936e-05
6.58958e-07
6.59496e-05
6.47122e-07
6.59622e-05
6.33352e-07
6.5974e-05
6.18128e-07
6.59851e-05
6.01823e-07
6.59957e-05
5.84737e-07
6.60056e-05
5.67107e-07
6.60152e-05
5.49114e-07
6.60243e-05
5.30894e-07
6.60331e-05
5.12548e-07
6.60416e-05
4.94148e-07
6.605e-05
4.7574e-07
6.60581e-05
4.57349e-07
6.60662e-05
4.38981e-07
6.60742e-05
4.20619e-07
6.60823e-05
4.0223e-07
6.60906e-05
3.83747e-07
6.60991e-05
3.65091e-07
6.61078e-05
3.46111e-07
6.61169e-05
3.26684e-07
6.61263e-05
3.06522e-07
6.61358e-05
2.8544e-07
2.63789e-07
6.61449e-05
6.75015e-05
1.76345e-07
6.75609e-05
3.99021e-07
6.76066e-05
4.95383e-07
6.76462e-05
5.54095e-07
6.7683e-05
5.99149e-07
6.77167e-05
6.27036e-07
6.77474e-05
6.41132e-07
6.77758e-05
6.47026e-07
6.78025e-05
6.4733e-07
6.78276e-05
6.43064e-07
6.78514e-05
6.35143e-07
6.78741e-05
6.2446e-07
6.78957e-05
6.11702e-07
6.79165e-05
5.97372e-07
6.79364e-05
5.81856e-07
6.79557e-05
5.65465e-07
6.79744e-05
5.48442e-07
6.79925e-05
5.30973e-07
6.80102e-05
5.13198e-07
6.80275e-05
4.95221e-07
6.80446e-05
4.77116e-07
6.80614e-05
4.58931e-07
6.8078e-05
4.40691e-07
6.80946e-05
4.224e-07
6.81112e-05
4.04044e-07
6.81278e-05
3.85587e-07
6.81446e-05
3.66969e-07
6.81616e-05
3.48112e-07
6.81788e-05
3.28896e-07
6.81963e-05
3.09198e-07
6.8214e-05
2.88859e-07
6.82317e-05
2.67711e-07
2.45988e-07
6.82495e-05
6.94169e-05
1.43447e-07
6.94689e-05
3.47086e-07
6.95139e-05
4.50381e-07
6.95544e-05
5.13523e-07
6.95929e-05
5.6068e-07
6.96287e-05
5.91201e-07
6.9662e-05
6.07878e-07
6.96932e-05
6.15797e-07
6.97228e-05
6.17715e-07
6.97511e-05
6.14838e-07
6.97781e-05
6.0815e-07
6.9804e-05
5.98559e-07
6.98289e-05
5.86768e-07
6.9853e-05
5.73292e-07
6.98763e-05
5.58528e-07
6.9899e-05
5.42796e-07
6.99211e-05
5.26342e-07
6.99427e-05
5.0936e-07
6.99639e-05
4.91993e-07
6.99848e-05
4.74351e-07
7.00054e-05
4.56509e-07
7.00258e-05
4.38518e-07
7.00461e-05
4.20407e-07
7.00663e-05
4.02182e-07
7.00865e-05
3.8383e-07
7.01068e-05
3.65321e-07
7.01271e-05
3.466e-07
7.01476e-05
3.27599e-07
7.01683e-05
3.08223e-07
7.01891e-05
2.88369e-07
7.02101e-05
2.67934e-07
7.0231e-05
2.46776e-07
2.25059e-07
7.02519e-05
7.13908e-05
1.1896e-07
7.14351e-05
3.02819e-07
7.1477e-05
4.08446e-07
7.15161e-05
4.74489e-07
7.15539e-05
5.22874e-07
7.15899e-05
5.55189e-07
7.16239e-05
5.73889e-07
7.16562e-05
5.83506e-07
7.1687e-05
5.86831e-07
7.17167e-05
5.85196e-07
7.17452e-05
5.7962e-07
7.17727e-05
5.71017e-07
7.17994e-05
5.60101e-07
7.18253e-05
5.47398e-07
7.18505e-05
5.33316e-07
7.18751e-05
5.18182e-07
7.18992e-05
5.02248e-07
7.19229e-05
4.85713e-07
7.19461e-05
4.68726e-07
7.19691e-05
4.51397e-07
7.19918e-05
4.33807e-07
7.20143e-05
4.1601e-07
7.20367e-05
3.98035e-07
7.2059e-05
3.79894e-07
7.20812e-05
3.61577e-07
7.21035e-05
3.43059e-07
7.21258e-05
3.24295e-07
7.21482e-05
3.05228e-07
7.21706e-05
2.85786e-07
7.21931e-05
2.65887e-07
7.22155e-05
2.45462e-07
7.22379e-05
2.24404e-07
2.02825e-07
7.22602e-05
7.34238e-05
1.00427e-07
7.34614e-05
2.65223e-07
7.35003e-05
3.69521e-07
7.3538e-05
4.36781e-07
7.35753e-05
4.85569e-07
7.36115e-05
5.19005e-07
7.36461e-05
5.39309e-07
7.36792e-05
5.50399e-07
7.37111e-05
5.54993e-07
7.37417e-05
5.54502e-07
7.37714e-05
5.49973e-07
7.38001e-05
5.42317e-07
7.38279e-05
5.32251e-07
7.3855e-05
5.20312e-07
7.38814e-05
5.06913e-07
7.39072e-05
4.92384e-07
7.39325e-05
4.76983e-07
7.39573e-05
4.60911e-07
7.39817e-05
4.44319e-07
7.40058e-05
4.27324e-07
7.40296e-05
4.10008e-07
7.40532e-05
3.92428e-07
7.40766e-05
3.74619e-07
7.40999e-05
3.56596e-07
7.41231e-05
3.38355e-07
7.41463e-05
3.19879e-07
7.41694e-05
3.01133e-07
7.41926e-05
2.82074e-07
7.42157e-05
2.6265e-07
7.42388e-05
2.42802e-07
7.42618e-05
2.22485e-07
7.42846e-05
2.01638e-07
1.80356e-07
7.4307e-05
7.55168e-05
8.6051e-08
7.55488e-05
2.33252e-07
7.55846e-05
3.33777e-07
7.56204e-05
4.00926e-07
7.56564e-05
4.49533e-07
7.56919e-05
4.83522e-07
7.57263e-05
5.04975e-07
7.57594e-05
5.17234e-07
7.57915e-05
5.22879e-07
7.58227e-05
5.23373e-07
7.58529e-05
5.1977e-07
7.58822e-05
5.12969e-07
7.59108e-05
5.03683e-07
7.59387e-05
4.9245e-07
7.59659e-05
4.79688e-07
7.59925e-05
4.65728e-07
7.60187e-05
4.50832e-07
7.60444e-05
4.35202e-07
7.60697e-05
4.18995e-07
7.60947e-05
4.02329e-07
7.61194e-05
3.8529e-07
7.61439e-05
3.6794e-07
7.61682e-05
3.50317e-07
7.61924e-05
3.32442e-07
7.62164e-05
3.14317e-07
7.62404e-05
2.95934e-07
7.62642e-05
2.77271e-07
7.6288e-05
2.58296e-07
7.63117e-05
2.38975e-07
7.63352e-05
2.1927e-07
7.63585e-05
1.99157e-07
7.63816e-05
1.78586e-07
1.57637e-07
7.64043e-05
7.7671e-05
7.46093e-08
7.76983e-05
2.05938e-07
7.7731e-05
3.01114e-07
7.7765e-05
3.66962e-07
7.77997e-05
4.14784e-07
7.78345e-05
4.48745e-07
7.78686e-05
4.70866e-07
7.79019e-05
4.83976e-07
7.79343e-05
4.90464e-07
7.79658e-05
4.91795e-07
7.79966e-05
4.89011e-07
7.80266e-05
4.8299e-07
7.80558e-05
4.74431e-07
7.80844e-05
4.63871e-07
7.81124e-05
4.51727e-07
7.81398e-05
4.38329e-07
7.81667e-05
4.2394e-07
7.81931e-05
4.08764e-07
7.82191e-05
3.9296e-07
7.82448e-05
3.76648e-07
7.82702e-05
3.59917e-07
7.82953e-05
3.42834e-07
7.83202e-05
3.25441e-07
7.83448e-05
3.07764e-07
7.83694e-05
2.89814e-07
7.83937e-05
2.7159e-07
7.84179e-05
2.53081e-07
7.84419e-05
2.34271e-07
7.84657e-05
2.1514e-07
7.84893e-05
1.9567e-07
7.85126e-05
1.75855e-07
7.85356e-05
1.55683e-07
1.35249e-07
7.85579e-05
7.98877e-05
6.52643e-08
7.99112e-05
1.82412e-07
7.9941e-05
2.71324e-07
7.9973e-05
3.34911e-07
8.00064e-05
3.81447e-07
8.00402e-05
4.14929e-07
8.00737e-05
4.37314e-07
8.01067e-05
4.50994e-07
8.01391e-05
4.58125e-07
8.01707e-05
4.6014e-07
8.02017e-05
4.58058e-07
8.02319e-05
4.52726e-07
8.02615e-05
4.44826e-07
8.02905e-05
4.34888e-07
8.03189e-05
4.23323e-07
8.03468e-05
4.10461e-07
8.03742e-05
3.96561e-07
8.04011e-05
3.8183e-07
8.04276e-05
3.66427e-07
8.04538e-05
3.50473e-07
8.04797e-05
3.34064e-07
8.05052e-05
3.17267e-07
8.05305e-05
3.00131e-07
8.05556e-05
2.82688e-07
8.05805e-05
2.64955e-07
8.06051e-05
2.46941e-07
8.06296e-05
2.28647e-07
8.06538e-05
2.10067e-07
8.06777e-05
1.91198e-07
8.07013e-05
1.72036e-07
8.07246e-05
1.52589e-07
8.07474e-05
1.32849e-07
1.129e-07
8.07698e-05
8.21683e-05
5.74433e-08
8.21887e-05
1.61946e-07
8.22159e-05
2.4415e-07
8.22461e-05
3.04729e-07
8.2278e-05
3.4953e-07
8.23108e-05
3.82124e-07
8.23437e-05
4.04379e-07
8.23764e-05
4.18325e-07
8.24087e-05
4.2588e-07
8.24404e-05
4.28408e-07
8.24715e-05
4.26898e-07
8.25021e-05
4.22157e-07
8.25321e-05
4.14845e-07
8.25615e-05
4.05475e-07
8.25904e-05
3.94455e-07
8.26187e-05
3.82106e-07
8.26466e-05
3.68687e-07
8.2674e-05
3.54401e-07
8.27011e-05
3.39408e-07
8.27277e-05
3.23832e-07
8.2754e-05
3.07771e-07
8.278e-05
2.91294e-07
8.28056e-05
2.74457e-07
8.2831e-05
2.57296e-07
8.28561e-05
2.39836e-07
8.2881e-05
2.22095e-07
8.29056e-05
2.04083e-07
8.29298e-05
1.85807e-07
8.29537e-05
1.67274e-07
8.29773e-05
1.48496e-07
8.30004e-05
1.29494e-07
8.30229e-05
1.10288e-07
9.09767e-08
8.30449e-05
8.45145e-05
5.07525e-08
8.45325e-05
1.43947e-07
8.45573e-05
2.19309e-07
8.45857e-05
2.76331e-07
8.46162e-05
3.19007e-07
8.4648e-05
3.50369e-07
8.46802e-05
3.72155e-07
8.47124e-05
3.86099e-07
8.47444e-05
3.93879e-07
8.47761e-05
3.9677e-07
8.48073e-05
3.95714e-07
8.48379e-05
3.91476e-07
8.48681e-05
3.84683e-07
8.48977e-05
3.75835e-07
8.49269e-05
3.65323e-07
8.49555e-05
3.53466e-07
8.49837e-05
3.40514e-07
8.50114e-05
3.26671e-07
8.50387e-05
3.12094e-07
8.50656e-05
2.96909e-07
8.50922e-05
2.81214e-07
8.51184e-05
2.65085e-07
8.51443e-05
2.48579e-07
8.51698e-05
2.31739e-07
8.51951e-05
2.14598e-07
8.522e-05
1.9718e-07
8.52446e-05
1.79505e-07
8.52688e-05
1.61589e-07
8.52926e-05
1.43453e-07
8.5316e-05
1.25115e-07
8.53389e-05
1.06608e-07
8.53612e-05
8.79499e-08
6.92267e-08
8.5383e-05
8.6928e-05
4.49172e-08
8.6944e-05
1.27942e-07
8.69668e-05
1.96523e-07
8.69935e-05
2.49604e-07
8.70227e-05
2.89827e-07
8.70534e-05
3.19661e-07
8.70849e-05
3.40678e-07
8.71166e-05
3.54361e-07
8.71483e-05
3.62167e-07
8.71798e-05
3.65263e-07
8.7211e-05
3.64534e-07
8.72418e-05
3.60699e-07
8.72721e-05
3.54351e-07
8.7302e-05
3.45966e-07
8.73314e-05
3.35924e-07
8.73603e-05
3.24531e-07
8.73888e-05
3.12033e-07
8.74169e-05
2.98627e-07
8.74445e-05
2.84471e-07
8.74717e-05
2.69691e-07
8.74985e-05
2.54386e-07
8.7525e-05
2.38633e-07
8.75511e-05
2.22495e-07
8.75768e-05
2.0602e-07
8.76021e-05
1.89246e-07
8.76271e-05
1.72204e-07
8.76517e-05
1.54923e-07
8.76758e-05
1.37428e-07
8.76996e-05
1.19746e-07
8.77228e-05
1.01907e-07
8.77454e-05
8.39505e-08
8.77675e-05
6.59127e-08
4.78871e-08
8.77888e-05
8.94107e-05
3.97421e-08
8.94251e-05
1.1355e-07
8.94461e-05
1.75526e-07
8.94713e-05
2.24419e-07
8.94992e-05
2.61921e-07
8.95289e-05
2.89976e-07
8.95596e-05
3.09962e-07
8.95908e-05
3.23152e-07
8.96222e-05
3.30799e-07
8.96535e-05
3.33953e-07
8.96846e-05
3.33436e-07
8.97154e-05
3.29915e-07
8.97458e-05
3.23944e-07
8.97758e-05
3.15974e-07
8.98053e-05
3.06368e-07
8.98344e-05
2.95419e-07
8.98631e-05
2.83365e-07
8.98913e-05
2.70399e-07
8.99191e-05
2.56674e-07
8.99465e-05
2.42315e-07
8.99735e-05
2.27423e-07
9e-05
2.12077e-07
9.00262e-05
1.96343e-07
9.00519e-05
1.80273e-07
9.00773e-05
1.6391e-07
9.01022e-05
1.47293e-07
9.01266e-05
1.30456e-07
9.01506e-05
1.13431e-07
9.01741e-05
9.62519e-08
9.01971e-05
7.89556e-08
9.02194e-05
6.1585e-08
9.02412e-05
4.41745e-08
2.68056e-08
9.02623e-05
9.19645e-05
3.50855e-08
9.19776e-05
1.00471e-07
9.1997e-05
1.56073e-07
9.20208e-05
2.00639e-07
9.20475e-05
2.35208e-07
9.20762e-05
2.61269e-07
9.21062e-05
2.8e-07
9.21369e-05
2.92487e-07
9.21679e-05
2.99801e-07
9.21989e-05
3.02873e-07
9.22299e-05
3.02452e-07
9.22607e-05
2.99154e-07
9.22911e-05
2.9349e-07
9.23212e-05
2.85884e-07
9.23509e-05
2.76676e-07
9.23802e-05
2.66147e-07
9.2409e-05
2.54525e-07
9.24374e-05
2.41994e-07
9.24654e-05
2.28706e-07
9.24929e-05
2.14783e-07
9.252e-05
2.00325e-07
9.25467e-05
1.85414e-07
9.25729e-05
1.70117e-07
9.25987e-05
1.5449e-07
9.2624e-05
1.38582e-07
9.26489e-05
1.22434e-07
9.26733e-05
1.06087e-07
9.26971e-05
8.95784e-08
9.27204e-05
7.29479e-08
9.27431e-05
5.62361e-08
9.27652e-05
3.94903e-08
9.27867e-05
2.27535e-08
6.10914e-09
9.28074e-05
9.45914e-05
3.08416e-08
9.46034e-05
8.84659e-08
9.46215e-05
1.37946e-07
9.46441e-05
1.78121e-07
9.46697e-05
2.09597e-07
9.46974e-05
2.33487e-07
9.47267e-05
2.50771e-07
9.47568e-05
2.62369e-07
9.47874e-05
2.69189e-07
9.48182e-05
2.72048e-07
9.48491e-05
2.71617e-07
9.48798e-05
2.68457e-07
9.49102e-05
2.63037e-07
9.49403e-05
2.55746e-07
9.49701e-05
2.46906e-07
9.49995e-05
2.36778e-07
9.50284e-05
2.2558e-07
9.50569e-05
2.13487e-07
9.5085e-05
2.00647e-07
9.51126e-05
1.87178e-07
9.51397e-05
1.7318e-07
9.51664e-05
1.58735e-07
9.51926e-05
1.43911e-07
9.52184e-05
1.28767e-07
9.52436e-05
1.13354e-07
9.52683e-05
9.77203e-08
9.52925e-05
8.19076e-08
9.53161e-05
6.59587e-08
9.53391e-05
4.99164e-08
9.53615e-05
3.38238e-08
9.53833e-05
1.77293e-08
9.54044e-05
1.67348e-09
-1.42704e-08
9.54248e-05
9.72934e-05
2.69297e-08
9.73046e-05
7.73397e-08
9.73216e-05
1.20947e-07
9.7343e-05
1.56723e-07
9.73676e-05
1.8499e-07
9.73945e-05
2.06563e-07
9.7423e-05
2.22237e-07
9.74526e-05
2.32783e-07
9.74828e-05
2.38966e-07
9.75134e-05
2.4149e-07
9.7544e-05
2.4095e-07
9.75747e-05
2.37848e-07
9.76051e-05
2.32609e-07
9.76352e-05
2.25589e-07
9.76651e-05
2.17084e-07
9.76945e-05
2.07339e-07
9.77235e-05
1.96555e-07
9.77521e-05
1.84902e-07
9.77802e-05
1.72519e-07
9.78079e-05
1.59521e-07
9.78351e-05
1.46005e-07
9.78618e-05
1.32053e-07
9.78879e-05
1.17734e-07
9.79136e-05
1.03108e-07
9.79387e-05
8.82297e-08
9.79633e-05
7.31478e-08
9.79873e-05
5.79085e-08
9.80107e-05
4.25567e-08
9.80335e-05
2.71372e-08
9.80556e-05
1.1695e-08
9.8077e-05
-3.72061e-09
9.80978e-05
-1.90665e-08
-3.42712e-08
9.81178e-05
0.000100073
2.32859e-08
0.000100083
6.69336e-08
0.000100099
1.04903e-07
0.00010012
1.36304e-07
0.000100143
1.61282e-07
0.000100169
1.8042e-07
0.000100197
1.94349e-07
0.000100226
2.03704e-07
0.000100256
2.09122e-07
0.000100287
2.112e-07
0.000100317
2.1046e-07
0.000100348
2.07343e-07
0.000100378
2.02229e-07
0.000100408
1.9544e-07
0.000100438
1.87243e-07
0.000100467
1.77864e-07
0.000100496
1.67492e-07
0.000100525
1.56283e-07
0.000100553
1.44369e-07
0.000100581
1.31861e-07
0.000100608
1.18853e-07
0.000100635
1.05424e-07
0.000100661
9.16439e-08
0.000100686
7.75735e-08
0.000100711
6.32678e-08
0.000100736
4.87774e-08
0.000100759
3.41498e-08
0.000100782
1.94315e-08
0.000100805
4.66811e-09
0.000100827
-1.0095e-08
0.000100848
-2.48102e-08
0.000100868
-3.94362e-08
-5.39102e-08
0.000100888
0.000102931
1.98584e-08
0.000102941
5.71144e-08
0.000102957
8.96546e-08
0.000102976
1.16726e-07
0.000102999
1.38364e-07
0.000103024
1.54975e-07
0.000103052
1.67047e-07
0.00010308
1.75091e-07
0.00010311
1.79633e-07
0.00010314
1.8117e-07
0.00010317
1.80148e-07
0.000103201
1.76951e-07
0.000103231
1.71912e-07
0.000103261
1.65316e-07
0.000103291
1.57404e-07
0.00010332
1.4838e-07
0.000103349
1.38415e-07
0.000103378
1.27656e-07
0.000103406
1.16224e-07
0.000103434
1.04225e-07
0.000103461
9.17482e-08
0.000103488
7.88711e-08
0.000103514
6.56615e-08
0.000103539
5.21801e-08
0.000103564
3.84819e-08
0.000103588
2.46178e-08
0.000103611
1.06361e-08
0.000103634
-3.41665e-09
0.000103656
-1.74947e-08
0.000103678
-3.15535e-08
0.000103699
-4.55463e-08
0.000103719
-5.94327e-08
-7.31538e-08
0.000103738
0.000105872
1.66036e-08
0.000105881
4.77671e-08
0.000105896
7.50592e-08
0.000105915
9.78536e-08
0.000105937
1.16121e-07
0.000105962
1.30134e-07
0.000105989
1.40257e-07
0.000106017
1.46893e-07
0.000106046
1.50464e-07
0.000106076
1.51377e-07
0.000106106
1.50003e-07
0.000106136
1.4667e-07
0.000106167
1.41663e-07
0.000106197
1.3523e-07
0.000106226
1.27584e-07
0.000106256
1.18905e-07
0.000106285
1.09349e-07
0.000106314
9.90475e-08
0.000106342
8.81135e-08
0.000106369
7.66446e-08
0.000106396
6.47253e-08
0.000106423
5.24296e-08
0.000106449
3.98231e-08
0.000106474
2.6965e-08
0.000106498
1.39095e-08
0.000106522
7.0675e-10
0.000106545
-1.25951e-08
0.000106568
-2.59506e-08
0.00010659
-3.93145e-08
0.000106611
-5.26439e-08
0.000106631
-6.58943e-08
0.000106651
-7.90281e-08
-9.19918e-08
0.00010667
0.000108897
1.34827e-08
0.000108906
3.87886e-08
0.00010892
6.09826e-08
0.000108938
7.9552e-08
0.00010896
9.44318e-08
0.000108984
1.05794e-07
0.00010901
1.13897e-07
0.000109038
1.19046e-07
0.000109067
1.21568e-07
0.000109097
1.21787e-07
0.000109127
1.20004e-07
0.000109157
1.16488e-07
0.000109187
1.11479e-07
0.000109217
1.05186e-07
0.000109247
9.77926e-08
0.000109276
8.94557e-08
0.000109305
8.03119e-08
0.000109334
7.04793e-08
0.000109362
6.00601e-08
0.000109389
4.91438e-08
0.000109416
3.78085e-08
0.000109443
2.6124e-08
0.000109468
1.41525e-08
0.000109493
1.95101e-09
0.000109518
-1.04284e-08
0.000109541
-2.29364e-08
0.000109564
-3.55268e-08
0.000109586
-4.8155e-08
0.000109608
-6.0778e-08
0.000109629
-7.33544e-08
0.000109649
-8.58426e-08
0.000109668
-9.82072e-08
-1.104e-07
0.000109686
0.000112008
1.04601e-08
0.000112016
3.00834e-08
0.00011203
4.72952e-08
0.000112048
6.16847e-08
0.000112069
7.31682e-08
0.000112093
8.18396e-08
0.000112119
8.78681e-08
0.000112147
9.14688e-08
0.000112175
9.2883e-08
0.000112205
9.23554e-08
0.000112235
9.01183e-08
0.000112265
8.6385e-08
0.000112295
8.13484e-08
0.000112325
7.51802e-08
0.000112355
6.80324e-08
0.000112384
6.00385e-08
0.000112413
5.13157e-08
0.000112442
4.19669e-08
0.00011247
3.20826e-08
0.000112497
2.1743e-08
0.000112524
1.10196e-08
0.00011255
-2.33681e-11
0.000112575
-1.13275e-08
0.0001126
-2.28394e-08
0.000112624
-3.45091e-08
0.000112648
-4.62899e-08
0.00011267
-5.81372e-08
0.000112692
-7.00089e-08
0.000112713
-8.1864e-08
0.000112733
-9.36635e-08
0.000112753
-1.05368e-07
0.000112772
-1.16945e-07
-1.2835e-07
0.00011279
0.000115207
7.5001e-09
0.000115216
2.15586e-08
0.000115229
3.38697e-08
0.000115247
4.41119e-08
0.000115268
5.21942e-08
0.000115292
5.81479e-08
0.000115317
6.20628e-08
0.000115345
6.40718e-08
0.000115373
6.43353e-08
0.000115403
6.3023e-08
0.000115433
6.03015e-08
0.000115463
5.63284e-08
0.000115493
5.12501e-08
0.000115523
4.52003e-08
0.000115552
3.82998e-08
0.000115582
3.06571e-08
0.000115611
2.23695e-08
0.000115639
1.35238e-08
0.000115667
4.19824e-09
0.000115694
-5.53697e-09
0.000115721
-1.56181e-08
0.000115747
-2.5987e-08
0.000115772
-3.65902e-08
0.000115797
-4.73781e-08
0.000115821
-5.8304e-08
0.000115844
-6.93241e-08
0.000115866
-8.03968e-08
0.000115887
-9.14822e-08
0.000115908
-1.02542e-07
0.000115928
-1.13541e-07
0.000115947
-1.24442e-07
0.000115965
-1.35217e-07
-1.45826e-07
0.000115983
0.000118499
4.56464e-09
0.000118507
1.31209e-08
0.000118521
2.05751e-08
0.000118538
2.6687e-08
0.000118559
3.13634e-08
0.000118582
3.45816e-08
0.000118608
3.63586e-08
0.000118635
3.67494e-08
0.000118664
3.58372e-08
0.000118693
3.37195e-08
0.000118723
3.04984e-08
0.000118753
2.62765e-08
0.000118783
2.11538e-08
0.000118813
1.52258e-08
0.000118843
8.58166e-09
0.000118872
1.30452e-09
0.000118901
-6.52907e-09
0.000118929
-1.48486e-08
0.000118957
-2.35892e-08
0.000118984
-3.26909e-08
0.000119011
-4.20986e-08
0.000119037
-5.17608e-08
0.000119062
-6.16296e-08
0.000119086
-7.16596e-08
0.000119109
-8.18085e-08
0.000119132
-9.20355e-08
0.000119154
-1.02302e-07
0.000119175
-1.12572e-07
0.000119195
-1.22809e-07
0.000119215
-1.32981e-07
0.000119233
-1.43053e-07
0.000119251
-1.52998e-07
-1.62778e-07
0.000119268
0.000121884
1.62308e-09
0.000121893
4.68251e-09
0.000121906
7.28127e-09
0.000121923
9.25791e-09
0.000121944
1.05191e-08
0.000121968
1.09909e-08
0.000121994
1.06187e-08
0.000122021
9.38128e-09
0.000122049
7.28646e-09
0.000122079
4.36032e-09
0.000122109
6.41204e-10
0.000122139
-3.82317e-09
0.000122169
-8.97899e-09
0.000122199
-1.47694e-08
0.000122229
-2.11369e-08
0.000122258
-2.80243e-08
0.000122287
-3.53761e-08
0.000122315
-4.31389e-08
0.000122343
-5.12613e-08
0.00012237
-5.96948e-08
0.000122396
-6.83927e-08
0.000122422
-7.73112e-08
0.000122446
-8.64081e-08
0.00012247
-9.56435e-08
0.000122494
-1.04979e-07
0.000122516
-1.14378e-07
0.000122537
-1.23806e-07
0.000122558
-1.33228e-07
0.000122578
-1.42614e-07
0.000122597
-1.51933e-07
0.000122615
-1.61155e-07
0.000122632
-1.70259e-07
-1.79213e-07
0.000122649
0.000125366
-1.33871e-09
0.000125375
-3.83965e-09
0.000125388
-6.14736e-09
0.000125406
-8.33933e-09
0.000125427
-1.05108e-08
0.000125451
-1.2792e-08
0.000125477
-1.53123e-08
0.000125504
-1.81709e-08
0.000125533
-2.14368e-08
0.000125562
-2.51561e-08
0.000125592
-2.93552e-08
0.000125623
-3.40414e-08
0.000125653
-3.92074e-08
0.000125683
-4.4835e-08
0.000125713
-5.08984e-08
0.000125742
-5.73666e-08
0.000125771
-6.42053e-08
0.000125799
-7.13781e-08
0.000125827
-7.88479e-08
0.000125854
-8.65772e-08
0.00012588
-9.45291e-08
0.000125905
-1.02667e-07
0.00012593
-1.10955e-07
0.000125953
-1.1936e-07
0.000125976
-1.27846e-07
0.000125998
-1.36383e-07
0.000126019
-1.44938e-07
0.00012604
-1.53481e-07
0.000126059
-1.61984e-07
0.000126078
-1.70419e-07
0.000126095
-1.78758e-07
0.000126112
-1.86977e-07
-1.95045e-07
0.000126128
0.000128948
-4.36612e-09
0.000128957
-1.25686e-08
0.000128971
-1.9891e-08
0.000128989
-2.63137e-08
0.00012901
-3.1941e-08
0.000129034
-3.6973e-08
0.00012906
-4.16236e-08
0.000129088
-4.6075e-08
0.000129117
-5.04761e-08
0.000129147
-5.49486e-08
0.000129177
-5.95852e-08
0.000129208
-6.44496e-08
0.000129238
-6.95814e-08
0.000129268
-7.50013e-08
0.000129298
-8.07157e-08
0.000129328
-8.67198e-08
0.000129356
-9.30005e-08
0.000129385
-9.95388e-08
0.000129412
-1.06311e-07
0.000129439
-1.13293e-07
0.000129465
-1.20455e-07
0.00012949
-1.2777e-07
0.000129514
-1.35208e-07
0.000129537
-1.42741e-07
0.00012956
-1.5034e-07
0.000129581
-1.57976e-07
0.000129602
-1.65623e-07
0.000129622
-1.73254e-07
0.000129641
-1.80844e-07
0.000129659
-1.8837e-07
0.000129676
-1.95808e-07
0.000129692
-2.03145e-07
-2.10354e-07
0.000129707
0.000132632
-7.52379e-09
0.000132641
-2.16723e-08
0.000132656
-3.41871e-08
0.000132674
-4.49325e-08
0.000132696
-5.40392e-08
0.000132721
-6.18047e-08
0.000132748
-6.85457e-08
0.000132777
-7.45365e-08
0.000132806
-8.00133e-08
0.000132836
-8.51784e-08
0.000132867
-9.01935e-08
0.000132898
-9.51795e-08
0.000132928
-1.00223e-07
0.000132959
-1.05382e-07
0.000132989
-1.10697e-07
0.000133018
-1.16188e-07
0.000133047
-1.21862e-07
0.000133075
-1.27718e-07
0.000133103
-1.33746e-07
0.000133129
-1.39934e-07
0.000133155
-1.46261e-07
0.00013318
-1.52708e-07
0.000133204
-1.59253e-07
0.000133227
-1.65872e-07
0.000133249
-1.72541e-07
0.000133271
-1.79238e-07
0.000133291
-1.85938e-07
0.00013331
-1.92619e-07
0.000133329
-1.99258e-07
0.000133346
-2.05833e-07
0.000133363
-2.12321e-07
0.000133378
-2.18702e-07
-2.24949e-07
0.000133393
0.000136422
-1.08923e-08
0.000136431
-3.13719e-08
0.000136447
-4.93448e-08
0.000136466
-6.45362e-08
0.000136489
-7.71396e-08
0.000136515
-8.75972e-08
0.000136543
-9.63529e-08
0.000136572
-1.03785e-07
0.000136602
-1.10229e-07
0.000136633
-1.15978e-07
0.000136664
-1.21268e-07
0.000136695
-1.26279e-07
0.000136726
-1.31145e-07
0.000136757
-1.35963e-07
0.000136787
-1.40804e-07
0.000136816
-1.45712e-07
0.000136845
-1.50716e-07
0.000136873
-1.55831e-07
0.000136901
-1.61059e-07
0.000136927
-1.66399e-07
0.000136953
-1.71841e-07
0.000136977
-1.77373e-07
0.000137001
-1.82978e-07
0.000137024
-1.88639e-07
0.000137046
-1.94338e-07
0.000137066
-2.00055e-07
0.000137086
-2.05771e-07
0.000137105
-2.11467e-07
0.000137123
-2.17124e-07
0.00013714
-2.22727e-07
0.000137156
-2.2826e-07
0.000137171
-2.33714e-07
-2.3907e-07
0.000137185
0.000140319
-1.45828e-08
0.00014033
-4.19753e-08
0.000140346
-6.57811e-08
0.000140368
-8.5563e-08
0.000140392
-1.01659e-07
0.000140419
-1.14739e-07
0.000140448
-1.25409e-07
0.000140479
-1.34163e-07
0.00014051
-1.41448e-07
0.000140542
-1.47657e-07
0.000140573
-1.53105e-07
0.000140605
-1.58031e-07
0.000140637
-1.62616e-07
0.000140668
-1.66998e-07
0.000140698
-1.71276e-07
0.000140728
-1.7552e-07
0.000140757
-1.79777e-07
0.000140785
-1.84078e-07
0.000140813
-1.88439e-07
0.000140839
-1.92868e-07
0.000140865
-1.97364e-07
0.000140889
-2.01922e-07
0.000140913
-2.06533e-07
0.000140935
-2.11183e-07
0.000140957
-2.1586e-07
0.000140977
-2.20548e-07
0.000140997
-2.25232e-07
0.000141015
-2.29895e-07
0.000141033
-2.34522e-07
0.000141049
-2.39094e-07
0.000141064
-2.43595e-07
0.000141079
-2.48004e-07
-2.52301e-07
0.000141092
0.000144329
-1.87584e-08
0.000144341
-5.39326e-08
0.000144359
-8.40836e-08
0.000144382
-1.08594e-07
0.000144409
-1.28105e-07
0.000144437
-1.43639e-07
0.000144468
-1.56008e-07
0.0001445
-1.65847e-07
0.000144532
-1.73745e-07
0.000144565
-1.8021e-07
0.000144597
-1.85639e-07
0.000144629
-1.90328e-07
0.000144661
-1.94501e-07
0.000144693
-1.98332e-07
0.000144723
-2.01947e-07
0.000144753
-2.05438e-07
0.000144782
-2.0887e-07
0.00014481
-2.12285e-07
0.000144838
-2.15712e-07
0.000144864
-2.19168e-07
0.000144889
-2.2266e-07
0.000144914
-2.26191e-07
0.000144937
-2.29755e-07
0.000144959
-2.33346e-07
0.00014498
-2.36956e-07
0.000145
-2.40572e-07
0.000145019
-2.44184e-07
0.000145037
-2.47779e-07
0.000145054
-2.51347e-07
0.00014507
-2.54876e-07
0.000145084
-2.58358e-07
0.000145098
-2.61792e-07
-2.65162e-07
0.000145111
0.000148453
-2.3675e-08
0.000148467
-6.7925e-08
0.000148488
-1.05078e-07
0.000148514
-1.34421e-07
0.000148543
-1.57244e-07
0.000148574
-1.75075e-07
0.000148607
-1.88924e-07
0.000148641
-1.99579e-07
0.000148675
-2.07812e-07
0.000148709
-2.14273e-07
0.000148743
-2.19444e-07
0.000148776
-2.23677e-07
0.000148809
-2.27246e-07
0.000148841
-2.30356e-07
0.000148872
-2.3316e-07
0.000148903
-2.35766e-07
0.000148932
-2.38254e-07
0.00014896
-2.40678e-07
0.000148988
-2.43076e-07
0.000149014
-2.45471e-07
0.000149039
-2.47879e-07
0.000149063
-2.50306e-07
0.000149086
-2.52754e-07
0.000149108
-2.55219e-07
0.000149129
-2.57697e-07
0.000149148
-2.60179e-07
0.000149167
-2.62659e-07
0.000149184
-2.65124e-07
0.000149201
-2.67565e-07
0.000149216
-2.6997e-07
0.00014923
-2.72323e-07
0.000149242
-2.74606e-07
-2.76807e-07
0.000149254
0.000152695
-2.97842e-08
0.000152712
-8.51105e-08
0.000152737
-1.29951e-07
0.000152767
-1.63833e-07
0.000152799
-1.89452e-07
0.000152833
-2.0911e-07
0.000152868
-2.23992e-07
0.000152903
-2.35057e-07
0.000152939
-2.43283e-07
0.000152974
-2.4946e-07
0.000153009
-2.54136e-07
0.000153043
-2.57713e-07
0.000153076
-2.60502e-07
0.000153109
-2.62739e-07
0.00015314
-2.64596e-07
0.00015317
-2.66197e-07
0.0001532
-2.67633e-07
0.000153228
-2.68969e-07
0.000153255
-2.70249e-07
0.000153281
-2.71505e-07
0.000153306
-2.72756e-07
0.00015333
-2.74013e-07
0.000153352
-2.75282e-07
0.000153374
-2.76565e-07
0.000153394
-2.7786e-07
0.000153413
-2.79163e-07
0.000153431
-2.80468e-07
0.000153447
-2.81769e-07
0.000153463
-2.83062e-07
0.000153477
-2.8434e-07
0.00015349
-2.85602e-07
0.000153503
-2.86852e-07
-2.88077e-07
0.000153514
0.00015706
-3.78359e-08
0.000157082
-1.07454e-07
0.000157113
-1.60919e-07
0.000157148
-1.99026e-07
0.000157185
-2.26922e-07
0.000157224
-2.47741e-07
0.000157263
-2.6284e-07
0.000157301
-2.73513e-07
0.000157339
-2.81055e-07
0.000157376
-2.86388e-07
0.000157412
-2.90108e-07
0.000157447
-2.92648e-07
0.000157481
-2.94347e-07
0.000157514
-2.95458e-07
0.000157545
-2.96158e-07
0.000157576
-2.96578e-07
0.000157605
-2.96812e-07
0.000157633
-2.96929e-07
0.000157659
-2.96976e-07
0.000157685
-2.96987e-07
0.000157709
-2.96986e-07
0.000157732
-2.96986e-07
0.000157754
-2.96997e-07
0.000157774
-2.97023e-07
0.000157793
-2.97063e-07
0.000157811
-2.97118e-07
0.000157828
-2.97182e-07
0.000157844
-2.97252e-07
0.000157858
-2.97321e-07
0.000157871
-2.97381e-07
0.000157883
-2.9742e-07
0.000157893
-2.97425e-07
-2.97388e-07
0.000157903
0.00016155
-4.9674e-08
0.00016158
-1.37589e-07
0.000161618
-1.98402e-07
0.000161658
-2.38854e-07
0.000161699
-2.68238e-07
0.000161741
-2.89664e-07
0.000161782
-3.04295e-07
0.000161823
-3.13917e-07
0.000161862
-3.20212e-07
0.0001619
-3.24216e-07
0.000161936
-3.26549e-07
0.000161971
-3.27679e-07
0.000162005
-3.27971e-07
0.000162037
-3.27684e-07
0.000162068
-3.27002e-07
0.000162097
-3.26052e-07
0.000162126
-3.24928e-07
0.000162152
-3.23696e-07
0.000162178
-3.22405e-07
0.000162202
-3.21087e-07
0.000162225
-3.19765e-07
0.000162246
-3.18452e-07
0.000162266
-3.17158e-07
0.000162285
-3.15889e-07
0.000162303
-3.14645e-07
0.000162319
-3.13427e-07
0.000162334
-3.12233e-07
0.000162348
-3.1106e-07
0.00016236
-3.09906e-07
0.000162372
-3.08771e-07
0.000162382
-3.07654e-07
0.000162391
-3.06567e-07
-3.05502e-07
0.000162399
0.000166174
-7.01698e-08
0.000166223
-1.86113e-07
0.000166274
-2.50266e-07
0.000166324
-2.88053e-07
0.000166371
-3.15455e-07
0.000166416
-3.34621e-07
0.000166458
-3.46501e-07
0.000166498
-3.53455e-07
0.000166535
-3.57382e-07
0.00016657
-3.59249e-07
0.000166603
-3.59606e-07
0.000166634
-3.58896e-07
0.000166664
-3.5746e-07
0.000166691
-3.55537e-07
0.000166718
-3.53285e-07
0.000166742
-3.50818e-07
0.000166766
-3.48218e-07
0.000166788