/*--------------------------------*- C++ -*----------------------------------*\
| =========                 |                                                 |
| \\      /  F ield         | OpenFOAM: The Open Source CFD Toolbox           |
|  \\    /   O peration     | Version:  4.1                                   |
|   \\  /    A nd           | Web:      www.OpenFOAM.org                      |
|    \\/     M anipulation  |                                                 |
\*---------------------------------------------------------------------------*/
FoamFile
{
    version     2.0;
    format      ascii;
    class       volSymmTensorField;
    location    "300";
    object      R;
}
// * * * * * * * * * * * * * * * * * * * * * * * * * * * * * * * * * * * * * //

dimensions      [0 2 -2 0 0 0 0];

internalField   nonuniform List<symmTensor> 
6820
(
(0.205732 -0.0655182 0 0.119059 0 0.158783)
(0.282327 -0.095738 0 0.109535 0 0.187468)
(0.351933 -0.111302 0 0.106213 0 0.215544)
(0.414148 -0.120961 0 0.107186 0 0.242573)
(0.468932 -0.128214 0 0.110861 0 0.268126)
(0.516429 -0.134409 0 0.116016 0 0.2918)
(0.556918 -0.139957 0 0.121763 0 0.313258)
(0.590824 -0.14491 0 0.127496 0 0.332277)
(0.618687 -0.149218 0 0.132836 0 0.348763)
(0.641118 -0.152838 0 0.137571 0 0.362735)
(0.65875 -0.155765 0 0.141609 0 0.374303)
(0.672211 -0.158028 0 0.144932 0 0.38364)
(0.682098 -0.159683 0 0.147572 0 0.390957)
(0.688965 -0.160801 0 0.149587 0 0.396484)
(0.693308 -0.161455 0 0.151047 0 0.400455)
(0.695567 -0.161717 0 0.152028 0 0.403093)
(0.696128 -0.161657 0 0.152601 0 0.404608)
(0.69532 -0.161335 0 0.152833 0 0.405186)
(0.693424 -0.160804 0 0.152786 0 0.404998)
(0.690678 -0.160111 0 0.152513 0 0.404188)
(0.687281 -0.159295 0 0.152059 0 0.402884)
(0.683399 -0.158388 0 0.151465 0 0.401194)
(0.67917 -0.157418 0 0.150763 0 0.399209)
(0.674705 -0.156408 0 0.149983 0 0.397006)
(0.670098 -0.155377 0 0.149147 0 0.39465)
(0.665424 -0.15434 0 0.148275 0 0.392194)
(0.660745 -0.15331 0 0.147384 0 0.389681)
(0.65611 -0.152296 0 0.146487 0 0.387149)
(0.651559 -0.151308 0 0.145594 0 0.384626)
(0.647127 -0.150352 0 0.144715 0 0.382139)
(0.642832 -0.149442 0 0.143859 0 0.379703)
(0.638777 -0.148597 0 0.143065 0 0.377373)
(0.636075 -0.14867 0 0.143249 0 0.375579)
(0.141614 -0.00846579 0 0.126764 0 0.13657)
(0.150538 -0.0154126 0 0.119379 0 0.139441)
(0.159407 -0.0210904 0 0.112609 0 0.141974)
(0.168019 -0.0259282 0 0.106665 0 0.144247)
(0.176193 -0.0300958 0 0.101599 0 0.146283)
(0.183844 -0.0337078 0 0.0973975 0 0.148107)
(0.190954 -0.0368633 0 0.0939978 0 0.149752)
(0.197526 -0.0396409 0 0.0913121 0 0.151243)
(0.203576 -0.0421024 0 0.0892432 0 0.152603)
(0.209135 -0.0443001 0 0.0876958 0 0.15385)
(0.214246 -0.0462801 0 0.0865818 0 0.155002)
(0.218958 -0.0480828 0 0.0858224 0 0.156076)
(0.223322 -0.049743 0 0.0853494 0 0.157087)
(0.227388 -0.05129 0 0.0851051 0 0.15805)
(0.231205 -0.0527482 0 0.0850424 0 0.158978)
(0.234818 -0.0541368 0 0.0851228 0 0.159882)
(0.238267 -0.0554713 0 0.0853156 0 0.160773)
(0.241587 -0.0567634 0 0.0855964 0 0.161659)
(0.244806 -0.058022 0 0.085946 0 0.162547)
(0.247949 -0.0592534 0 0.0863494 0 0.163443)
(0.251036 -0.0604624 0 0.0867949 0 0.164352)
(0.254082 -0.0616523 0 0.0872733 0 0.165278)
(0.2571 -0.0628254 0 0.0877775 0 0.166221)
(0.260098 -0.0639829 0 0.0883017 0 0.167185)
(0.263082 -0.0651251 0 0.0888413 0 0.168168)
(0.266054 -0.0662519 0 0.0893924 0 0.169171)
(0.269016 -0.0673626 0 0.0899515 0 0.170193)
(0.271964 -0.0684561 0 0.0905156 0 0.17123)
(0.274897 -0.0695312 0 0.0910819 0 0.172281)
(0.277808 -0.0705848 0 0.091647 0 0.173341)
(0.280689 -0.0716187 0 0.0922103 0 0.174406)
(0.283528 -0.0726171 0 0.0927629 0 0.17547)
(0.286837 -0.0738107 0 0.09359 0 0.176715)
(0.135647 -0.00198136 0 0.129365 0 0.13447)
(0.138142 -0.00333232 0 0.124876 0 0.135412)
(0.140541 -0.00436707 0 0.120289 0 0.136112)
(0.142754 -0.00524983 0 0.11586 0 0.136575)
(0.144721 -0.00600344 0 0.111699 0 0.136816)
(0.14644 -0.00665905 0 0.107833 0 0.136867)
(0.147931 -0.00725589 0 0.104262 0 0.136765)
(0.14921 -0.00782259 0 0.100977 0 0.136534)
(0.150294 -0.00837676 0 0.0979609 0 0.136199)
(0.151202 -0.00892971 0 0.0951975 0 0.135778)
(0.151956 -0.00948895 0 0.0926677 0 0.135289)
(0.152574 -0.0100591 0 0.0903527 0 0.134746)
(0.153078 -0.0106427 0 0.0882342 0 0.134164)
(0.153484 -0.0112407 0 0.086295 0 0.133554)
(0.15381 -0.011853 0 0.0845189 0 0.132926)
(0.154073 -0.0124788 0 0.0828911 0 0.132288)
(0.154287 -0.0131168 0 0.0813982 0 0.131648)
(0.154466 -0.0137657 0 0.080028 0 0.131013)
(0.154622 -0.0144238 0 0.0787695 0 0.130388)
(0.154764 -0.0150893 0 0.0776132 0 0.12978)
(0.154903 -0.0157603 0 0.0765502 0 0.12919)
(0.155043 -0.0164345 0 0.0755721 0 0.128622)
(0.155188 -0.0171098 0 0.0746716 0 0.128076)
(0.155343 -0.0177842 0 0.073842 0 0.127554)
(0.155511 -0.0184558 0 0.0730774 0 0.127057)
(0.155693 -0.019123 0 0.0723725 0 0.126585)
(0.155891 -0.0197841 0 0.0717226 0 0.126138)
(0.156106 -0.0204376 0 0.0711234 0 0.125716)
(0.156337 -0.0210818 0 0.0705705 0 0.125319)
(0.156584 -0.0217152 0 0.0700607 0 0.124945)
(0.156843 -0.0223348 0 0.0695885 0 0.124594)
(0.157117 -0.0229417 0 0.0691562 0 0.124265)
(0.157439 -0.0235434 0 0.068775 0 0.123965)
(0.134186 -0.000782622 0 0.130263 0 0.133856)
(0.13519 -0.00139722 0 0.126845 0 0.134317)
(0.13619 -0.00187989 0 0.12338 0 0.134656)
(0.137116 -0.00231521 0 0.120011 0 0.134857)
(0.137916 -0.0027048 0 0.116781 0 0.134919)
(0.138584 -0.00305143 0 0.113699 0 0.134856)
(0.13913 -0.00336757 0 0.110771 0 0.134688)
(0.139565 -0.00366321 0 0.108002 0 0.134431)
(0.139894 -0.00394454 0 0.10539 0 0.134097)
(0.140127 -0.0042164 0 0.102931 0 0.1337)
(0.140275 -0.00448307 0 0.100619 0 0.133249)
(0.140346 -0.00474804 0 0.0984454 0 0.132755)
(0.140351 -0.00501391 0 0.0964033 0 0.132226)
(0.140297 -0.00528259 0 0.0944839 0 0.131668)
(0.140194 -0.00555541 0 0.092679 0 0.131089)
(0.140048 -0.00583326 0 0.090981 0 0.130494)
(0.139866 -0.00611667 0 0.0893824 0 0.129888)
(0.139656 -0.00640586 0 0.0878764 0 0.129276)
(0.139423 -0.00670083 0 0.0864565 0 0.12866)
(0.139173 -0.00700142 0 0.0851168 0 0.128045)
(0.138911 -0.00730727 0 0.0838521 0 0.127433)
(0.138639 -0.00761779 0 0.0826573 0 0.126827)
(0.138362 -0.00793229 0 0.0815279 0 0.126229)
(0.138082 -0.00824999 0 0.0804595 0 0.125639)
(0.137802 -0.00857011 0 0.0794483 0 0.125059)
(0.137523 -0.00889183 0 0.0784906 0 0.12449)
(0.137246 -0.00921429 0 0.0775832 0 0.123932)
(0.136974 -0.00953657 0 0.0767228 0 0.123387)
(0.136706 -0.00985773 0 0.0759068 0 0.122855)
(0.136444 -0.0101766 0 0.0751323 0 0.122335)
(0.136187 -0.0104921 0 0.0743967 0 0.121828)
(0.135936 -0.0108035 0 0.0736974 0 0.121334)
(0.13569 -0.0111125 0 0.0730366 0 0.120849)
(0.133619 -0.000369448 0 0.1308 0 0.133544)
(0.13399 -0.000662519 0 0.128075 0 0.133735)
(0.134404 -0.000891342 0 0.125333 0 0.133877)
(0.134813 -0.0011142 0 0.122632 0 0.133953)
(0.135166 -0.00132845 0 0.120005 0 0.133946)
(0.13545 -0.00152654 0 0.117465 0 0.133861)
(0.135666 -0.0017116 0 0.115022 0 0.133705)
(0.135818 -0.00188793 0 0.11268 0 0.133487)
(0.135907 -0.00205775 0 0.110443 0 0.133215)
(0.135938 -0.00222262 0 0.108308 0 0.132895)
(0.135916 -0.00238416 0 0.106274 0 0.132535)
(0.135846 -0.00254379 0 0.104336 0 0.132142)
(0.135734 -0.00270262 0 0.102491 0 0.131719)
(0.135583 -0.00286146 0 0.100734 0 0.131273)
(0.135399 -0.00302095 0 0.0990628 0 0.130808)
(0.135185 -0.00318154 0 0.0974719 0 0.130327)
(0.134947 -0.00334358 0 0.0959577 0 0.129835)
(0.134687 -0.00350725 0 0.0945162 0 0.129334)
(0.134409 -0.00367267 0 0.0931435 0 0.128826)
(0.134116 -0.00383984 0 0.0918361 0 0.128315)
(0.133812 -0.00400872 0 0.0905906 0 0.127802)
(0.133498 -0.00417916 0 0.0894036 0 0.12729)
(0.133176 -0.00435094 0 0.088272 0 0.126779)
(0.13285 -0.00452376 0 0.0871931 0 0.126272)
(0.13252 -0.00469728 0 0.0861639 0 0.125768)
(0.132187 -0.00487112 0 0.085182 0 0.12527)
(0.131854 -0.00504484 0 0.084245 0 0.124778)
(0.13152 -0.00521793 0 0.0833504 0 0.124293)
(0.131187 -0.00538982 0 0.0824962 0 0.123814)
(0.130856 -0.00555989 0 0.0816802 0 0.123344)
(0.130528 -0.00572747 0 0.0809001 0 0.122881)
(0.130201 -0.00589231 0 0.0801539 0 0.122427)
(0.129872 -0.00605567 0 0.0794377 0 0.121974)
(0.133352 -0.000209458 0 0.131146 0 0.133353)
(0.133394 -0.000361788 0 0.128833 0 0.133362)
(0.13348 -0.000469047 0 0.126517 0 0.133359)
(0.133594 -0.000575577 0 0.124227 0 0.133331)
(0.133695 -0.000682519 0 0.121988 0 0.133262)
(0.133767 -0.000783213 0 0.119813 0 0.133145)
(0.133804 -0.000878818 0 0.117708 0 0.132984)
(0.133806 -0.00097182 0 0.115676 0 0.132782)
(0.133772 -0.00106295 0 0.113722 0 0.132542)
(0.133702 -0.00115245 0 0.111844 0 0.132269)
(0.133599 -0.00124079 0 0.110042 0 0.131965)
(0.133466 -0.00132853 0 0.108314 0 0.131637)
(0.133304 -0.00141613 0 0.106659 0 0.131286)
(0.133118 -0.00150396 0 0.105074 0 0.130916)
(0.132908 -0.00159229 0 0.103557 0 0.130531)
(0.132679 -0.00168136 0 0.102105 0 0.130133)
(0.132432 -0.00177131 0 0.100716 0 0.129725)
(0.13217 -0.00186225 0 0.0993854 0 0.129308)
(0.131895 -0.0019542 0 0.0981121 0 0.128886)
(0.131609 -0.00204715 0 0.0968931 0 0.128459)
(0.131314 -0.00214105 0 0.0957258 0 0.128029)
(0.131011 -0.00223579 0 0.0946079 0 0.127598)
(0.130701 -0.00233123 0 0.0935371 0 0.127167)
(0.130387 -0.00242717 0 0.0925112 0 0.126737)
(0.130069 -0.00252338 0 0.0915281 0 0.126308)
(0.129749 -0.00261958 0 0.0905858 0 0.125882)
(0.129427 -0.00271547 0 0.0896825 0 0.12546)
(0.129104 -0.00281067 0 0.0888165 0 0.125042)
(0.128781 -0.00290478 0 0.0879859 0 0.124628)
(0.128458 -0.00299736 0 0.0871891 0 0.124219)
(0.128137 -0.00308797 0 0.0864243 0 0.123815)
(0.127817 -0.00317647 0 0.0856894 0 0.123417)
(0.127493 -0.00326343 0 0.084978 0 0.123018)
(0.133205 -0.00013973 0 0.131382 0 0.133226)
(0.133061 -0.000231429 0 0.129346 0 0.133103)
(0.132945 -0.000280585 0 0.127335 0 0.132982)
(0.132862 -0.00032294 0 0.125354 0 0.132858)
(0.13279 -0.000366059 0 0.123416 0 0.13272)
(0.132712 -0.000407192 0 0.121525 0 0.13256)
(0.132624 -0.00044711 0 0.119684 0 0.132375)
(0.132521 -0.000487402 0 0.117899 0 0.132166)
(0.1324 -0.000528287 0 0.116171 0 0.131934)
(0.132261 -0.000569565 0 0.114503 0 0.131679)
(0.132102 -0.000611275 0 0.112893 0 0.131404)
(0.131926 -0.00065358 0 0.111342 0 0.131111)
(0.131732 -0.000696605 0 0.109849 0 0.130803)
(0.131522 -0.000740437 0 0.108412 0 0.13048)
(0.131298 -0.000785137 0 0.10703 0 0.130146)
(0.131062 -0.000830744 0 0.1057 0 0.129803)
(0.130813 -0.000877268 0 0.104422 0 0.129451)
(0.130554 -0.000924691 0 0.103193 0 0.129092)
(0.130287 -0.000972967 0 0.102012 0 0.128729)
(0.130011 -0.00102203 0 0.100877 0 0.128361)
(0.129729 -0.00107178 0 0.0997859 0 0.127991)
(0.129442 -0.0011221 0 0.098737 0 0.12762)
(0.12915 -0.00117286 0 0.0977287 0 0.127248)
(0.128855 -0.00122388 0 0.0967594 0 0.126876)
(0.128557 -0.00127498 0 0.0958275 0 0.126505)
(0.128257 -0.00132592 0 0.0949315 0 0.126135)
(0.127956 -0.00137646 0 0.09407 0 0.125768)
(0.127654 -0.00142631 0 0.0932415 0 0.125404)
(0.127352 -0.00147516 0 0.0924446 0 0.125042)
(0.12705 -0.00152268 0 0.0916779 0 0.124685)
(0.12675 -0.00156856 0 0.0909399 0 0.124331)
(0.126451 -0.00161263 0 0.0902285 0 0.123981)
(0.126147 -0.00165503 0 0.089536 0 0.12363)
(0.133111 -0.000104208 0 0.131554 0 0.133134)
(0.132854 -0.000170778 0 0.129711 0 0.132914)
(0.132609 -0.000197772 0 0.127912 0 0.132699)
(0.132392 -0.000211625 0 0.126149 0 0.132492)
(0.132193 -0.000222392 0 0.124425 0 0.132285)
(0.132002 -0.000230438 0 0.122741 0 0.132072)
(0.131814 -0.000237185 0 0.121099 0 0.131851)
(0.131626 -0.000244485 0 0.119502 0 0.131618)
(0.131433 -0.00025296 0 0.117951 0 0.131374)
(0.131234 -0.000262613 0 0.116449 0 0.131118)
(0.131027 -0.00027346 0 0.114994 0 0.13085)
(0.130811 -0.00028555 0 0.113588 0 0.130571)
(0.130587 -0.000298885 0 0.112229 0 0.130283)
(0.130355 -0.00031343 0 0.110918 0 0.129986)
(0.130115 -0.000329141 0 0.109652 0 0.129681)
(0.129868 -0.000345965 0 0.108431 0 0.129369)
(0.129614 -0.000363841 0 0.107254 0 0.129052)
(0.129355 -0.000382692 0 0.106119 0 0.128731)
(0.12909 -0.000402431 0 0.105025 0 0.128406)
(0.128821 -0.000422957 0 0.103971 0 0.128079)
(0.128548 -0.000444156 0 0.102956 0 0.127749)
(0.128272 -0.000465898 0 0.101977 0 0.127419)
(0.127993 -0.00048804 0 0.101033 0 0.127089)
(0.127712 -0.000510422 0 0.100124 0 0.126759)
(0.12743 -0.000532863 0 0.0992485 0 0.12643)
(0.127147 -0.000555165 0 0.0984044 0 0.126102)
(0.126864 -0.000577107 0 0.0975908 0 0.125776)
(0.126581 -0.000598451 0 0.0968067 0 0.125452)
(0.126298 -0.000618942 0 0.0960507 0 0.125131)
(0.126016 -0.000638328 0 0.0953217 0 0.124813)
(0.125736 -0.000656358 0 0.0946184 0 0.124499)
(0.125457 -0.000672875 0 0.0939386 0 0.124187)
(0.125174 -0.000687791 0 0.0932741 0 0.123873)
(0.133044 -8.29431e-05 0 0.131686 0 0.133064)
(0.132713 -0.000138292 0 0.129984 0 0.132771)
(0.132384 -0.000158994 0 0.128338 0 0.132484)
(0.132075 -0.0001627 0 0.126735 0 0.132207)
(0.131784 -0.000159105 0 0.125174 0 0.131937)
(0.131506 -0.000150492 0 0.123653 0 0.131672)
(0.131238 -0.000139049 0 0.12217 0 0.131407)
(0.130978 -0.000127076 0 0.120727 0 0.131141)
(0.130722 -0.000115722 0 0.119324 0 0.130873)
(0.130469 -0.000105374 0 0.117962 0 0.130601)
(0.130216 -9.62365e-05 0 0.116639 0 0.130325)
(0.129962 -8.84518e-05 0 0.115358 0 0.130045)
(0.129706 -8.20676e-05 0 0.114116 0 0.12976)
(0.129449 -7.70658e-05 0 0.112914 0 0.129471)
(0.129189 -7.33968e-05 0 0.111751 0 0.129179)
(0.128927 -7.09918e-05 0 0.110626 0 0.128884)
(0.128663 -6.97656e-05 0 0.109539 0 0.128585)
(0.128397 -6.96187e-05 0 0.108487 0 0.128285)
(0.128129 -7.04401e-05 0 0.107472 0 0.127984)
(0.12786 -7.21088e-05 0 0.10649 0 0.127681)
(0.12759 -7.44939e-05 0 0.105543 0 0.127378)
(0.127318 -7.74549e-05 0 0.104627 0 0.127076)
(0.127046 -8.08408e-05 0 0.103743 0 0.126773)
(0.126774 -8.449e-05 0 0.102889 0 0.126472)
(0.126502 -8.82289e-05 0 0.102064 0 0.126172)
(0.12623 -9.18719e-05 0 0.101268 0 0.125873)
(0.125959 -9.52215e-05 0 0.100499 0 0.125577)
(0.125689 -9.80711e-05 0 0.0997558 0 0.125283)
(0.125421 -0.000100209 0 0.0990383 0 0.124991)
(0.125154 -0.000101429 0 0.098345 0 0.124702)
(0.124888 -0.000101528 0 0.0976748 0 0.124417)
(0.124625 -0.000100348 0 0.0970255 0 0.124134)
(0.124359 -9.76041e-05 0 0.0963887 0 0.123849)
(0.132993 -6.84001e-05 0 0.131791 0 0.133009)
(0.132607 -0.000117368 0 0.130197 0 0.132659)
(0.132221 -0.000137625 0 0.128664 0 0.132315)
(0.131848 -0.00014014 0 0.12718 0 0.131982)
(0.131491 -0.000132958 0 0.12574 0 0.131659)
(0.131148 -0.000118953 0 0.124341 0 0.131345)
(0.130817 -0.000100444 0 0.12298 0 0.131037)
(0.130497 -7.9793e-05 0 0.121655 0 0.130735)
(0.130187 -5.84755e-05 0 0.120367 0 0.130436)
(0.129885 -3.72374e-05 0 0.119116 0 0.13014)
(0.129588 -1.65517e-05 0 0.1179 0 0.129846)
(0.129296 3.2504e-06 0 0.11672 0 0.129552)
(0.129008 2.19785e-05 0 0.115575 0 0.12926)
(0.128723 3.95487e-05 0 0.114465 0 0.128967)
(0.128441 5.59416e-05 0 0.113389 0 0.128675)
(0.12816 7.11795e-05 0 0.112347 0 0.128383)
(0.127881 8.53161e-05 0 0.111337 0 0.128092)
(0.127603 9.8429e-05 0 0.11036 0 0.1278)
(0.127327 0.000110613 0 0.109413 0 0.12751)
(0.127051 0.000121978 0 0.108498 0 0.127221)
(0.126778 0.000132642 0 0.107611 0 0.126932)
(0.126505 0.000142737 0 0.106754 0 0.126646)
(0.126234 0.000152403 0 0.105925 0 0.12636)
(0.125964 0.000161787 0 0.105123 0 0.126077)
(0.125696 0.000171048 0 0.104347 0 0.125796)
(0.12543 0.000180351 0 0.103596 0 0.125517)
(0.125166 0.000189867 0 0.10287 0 0.12524)
(0.124904 0.000199771 0 0.102168 0 0.124966)
(0.124644 0.000210239 0 0.101489 0 0.124696)
(0.124387 0.000221436 0 0.100831 0 0.124428)
(0.124132 0.000233523 0 0.100195 0 0.124163)
(0.12388 0.000246651 0 0.0995768 0 0.123901)
(0.123626 0.000261212 0 0.0989694 0 0.123637)
(0.132951 -5.7542e-05 0 0.131876 0 0.132965)
(0.132525 -0.000101683 0 0.130368 0 0.132569)
(0.132096 -0.000122822 0 0.128923 0 0.132179)
(0.131677 -0.00012732 0 0.12753 0 0.131801)
(0.131272 -0.00012127 0 0.126182 0 0.131434)
(0.13088 -0.000107412 0 0.124877 0 0.131078)
(0.1305 -8.78596e-05 0 0.12361 0 0.130732)
(0.130134 -6.47964e-05 0 0.122379 0 0.130394)
(0.129779 -3.98046e-05 0 0.121184 0 0.130064)
(0.129434 -1.38478e-05 0 0.120024 0 0.129741)
(0.129099 1.24119e-05 0 0.118897 0 0.129424)
(0.128772 3.84879e-05 0 0.117802 0 0.129111)
(0.128453 6.40532e-05 0 0.11674 0 0.128804)
(0.12814 8.89089e-05 0 0.115709 0 0.128499)
(0.127833 0.000112942 0 0.114708 0 0.128199)
(0.127531 0.0001361 0 0.113738 0 0.127902)
(0.127234 0.000158378 0 0.112797 0 0.127608)
(0.126941 0.000179804 0 0.111885 0 0.127316)
(0.126651 0.000200437 0 0.111001 0 0.127028)
(0.126366 0.000220353 0 0.110144 0 0.126742)
(0.126084 0.000239646 0 0.109314 0 0.12646)
(0.125806 0.000258425 0 0.108509 0 0.12618)
(0.125531 0.000276807 0 0.10773 0 0.125903)
(0.125258 0.000294922 0 0.106975 0 0.125629)
(0.12499 0.000312906 0 0.106243 0 0.125358)
(0.124724 0.0003309 0 0.105535 0 0.125091)
(0.124461 0.00034905 0 0.104848 0 0.124826)
(0.124202 0.0003675 0 0.104183 0 0.124565)
(0.123946 0.000386392 0 0.103539 0 0.124307)
(0.123693 0.000405858 0 0.102915 0 0.124053)
(0.123444 0.000426022 0 0.102309 0 0.123802)
(0.123198 0.000447023 0 0.101721 0 0.123554)
(0.122951 0.000469314 0 0.101141 0 0.123305)
(0.132917 -4.89928e-05 0 0.131947 0 0.132928)
(0.132457 -8.88096e-05 0 0.13051 0 0.132494)
(0.131995 -0.000110499 0 0.129135 0 0.132068)
(0.131542 -0.000117472 0 0.127813 0 0.131653)
(0.1311 -0.000114131 0 0.126537 0 0.131251)
(0.130671 -0.000102843 0 0.125304 0 0.13086)
(0.130255 -8.54019e-05 0 0.12411 0 0.13048)
(0.129851 -6.36664e-05 0 0.122953 0 0.130111)
(0.129461 -3.91147e-05 0 0.12183 0 0.129752)
(0.129081 -1.27439e-05 0 0.120741 0 0.129402)
(0.128713 1.47236e-05 0 0.119684 0 0.12906)
(0.128356 4.27309e-05 0 0.118658 0 0.128726)
(0.128007 7.08703e-05 0 0.117662 0 0.128399)
(0.127668 9.88595e-05 0 0.116695 0 0.128079)
(0.127337 0.000126509 0 0.115757 0 0.127765)
(0.127013 0.000153699 0 0.114847 0 0.127457)
(0.126696 0.000180362 0 0.113964 0 0.127154)
(0.126386 0.000206475 0 0.113107 0 0.126856)
(0.126082 0.000232049 0 0.112275 0 0.126563)
(0.125783 0.000257121 0 0.111469 0 0.126275)
(0.12549 0.000281748 0 0.110687 0 0.125991)
(0.125202 0.000306005 0 0.109929 0 0.125711)
(0.124919 0.000329979 0 0.109194 0 0.125436)
(0.124641 0.00035377 0 0.10848 0 0.125164)
(0.124367 0.000377482 0 0.107789 0 0.124897)
(0.124098 0.000401229 0 0.107119 0 0.124634)
(0.123833 0.000425122 0 0.106468 0 0.124376)
(0.123573 0.000449274 0 0.105838 0 0.124121)
(0.123317 0.000473792 0 0.105226 0 0.12387)
(0.123065 0.000498771 0 0.104633 0 0.123623)
(0.122817 0.000524306 0 0.104057 0 0.12338)
(0.122573 0.000550514 0 0.103496 0 0.12314)
(0.12233 0.000577895 0 0.102943 0 0.1229)
(0.132888 -4.20344e-05 0 0.132006 0 0.132898)
(0.1324 -7.77786e-05 0 0.130629 0 0.132432)
(0.131911 -9.93092e-05 0 0.129312 0 0.131975)
(0.131431 -0.000108244 0 0.128047 0 0.13153)
(0.130961 -0.000107654 0 0.126829 0 0.131098)
(0.130504 -9.94746e-05 0 0.125654 0 0.130679)
(0.130059 -8.51711e-05 0 0.124518 0 0.130271)
(0.129627 -6.62558e-05 0 0.123418 0 0.129874)
(0.129207 -4.40167e-05 0 0.122353 0 0.129489)
(0.1288 -1.93915e-05 0 0.121321 0 0.129115)
(0.128405 6.91205e-06 0 0.120321 0 0.12875)
(0.128021 3.433e-05 0 0.119351 0 0.128395)
(0.127648 6.24268e-05 0 0.118409 0 0.128049)
(0.127285 9.08801e-05 0 0.117496 0 0.127712)
(0.126932 0.000119456 0 0.11661 0 0.127382)
(0.126588 0.000147987 0 0.11575 0 0.12706)
(0.126252 0.000176363 0 0.114916 0 0.126745)
(0.125925 0.000204518 0 0.114107 0 0.126437)
(0.125605 0.000232422 0 0.113321 0 0.126135)
(0.125292 0.000260073 0 0.112559 0 0.125839)
(0.124987 0.000287493 0 0.111819 0 0.12555)
(0.124687 0.000314722 0 0.111102 0 0.125265)
(0.124395 0.000341818 0 0.110405 0 0.124987)
(0.124108 0.000368846 0 0.109729 0 0.124713)
(0.123827 0.000395882 0 0.109073 0 0.124445)
(0.123551 0.000423007 0 0.108437 0 0.124182)
(0.123281 0.000450303 0 0.107819 0 0.123924)
(0.123017 0.00047785 0 0.10722 0 0.12367)
(0.122757 0.000505723 0 0.106638 0 0.123421)
(0.122503 0.000533985 0 0.106072 0 0.123177)
(0.122254 0.000562701 0 0.105523 0 0.122938)
(0.122009 0.00059197 0 0.104988 0 0.122702)
(0.121765 0.000622288 0 0.104459 0 0.122466)
(0.132863 -3.62387e-05 0 0.132057 0 0.132872)
(0.132351 -6.81404e-05 0 0.13073 0 0.132378)
(0.13184 -8.8878e-05 0 0.129462 0 0.131896)
(0.131337 -9.90185e-05 0 0.128245 0 0.131426)
(0.130846 -0.000100642 0 0.127075 0 0.130969)
(0.130366 -9.52862e-05 0 0.125946 0 0.130525)
(0.129898 -8.41376e-05 0 0.124857 0 0.130094)
(0.129443 -6.84115e-05 0 0.123804 0 0.129675)
(0.129001 -4.91947e-05 0 0.122786 0 0.129268)
(0.128571 -2.73228e-05 0 0.121799 0 0.128872)
(0.128154 -3.44336e-06 0 0.120844 0 0.128487)
(0.127749 2.19184e-05 0 0.119918 0 0.128113)
(0.127355 4.83438e-05 0 0.119021 0 0.127749)
(0.126972 7.55101e-05 0 0.118151 0 0.127394)
(0.126599 0.000103172 0 0.117307 0 0.127049)
(0.126237 0.000131146 0 0.116488 0 0.126712)
(0.125884 0.000159299 0 0.115694 0 0.126384)
(0.12554 0.00018754 0 0.114923 0 0.126063)
(0.125206 0.000215812 0 0.114175 0 0.125751)
(0.124879 0.000244087 0 0.113449 0 0.125445)
(0.12456 0.00027236 0 0.112745 0 0.125147)
(0.124249 0.000300645 0 0.112061 0 0.124855)
(0.123946 0.000328968 0 0.111398 0 0.12457)
(0.123649 0.00035737 0 0.110754 0 0.124291)
(0.123359 0.000385898 0 0.110128 0 0.124019)
(0.123076 0.000414603 0 0.109521 0 0.123752)
(0.122799 0.000443538 0 0.108931 0 0.12349)
(0.122529 0.000472755 0 0.108359 0 0.123235)
(0.122264 0.000502299 0 0.107802 0 0.122984)
(0.122005 0.000532206 0 0.107262 0 0.122739)
(0.121753 0.000562513 0 0.106736 0 0.122499)
(0.121505 0.000593304 0 0.106224 0 0.122264)
(0.121258 0.000625078 0 0.105718 0 0.122029)
(0.132842 -3.13233e-05 0 0.132101 0 0.132849)
(0.132309 -5.96324e-05 0 0.130818 0 0.132333)
(0.131779 -7.91247e-05 0 0.129592 0 0.131828)
(0.131257 -8.97808e-05 0 0.128415 0 0.131337)
(0.130747 -9.29654e-05 0 0.127284 0 0.130859)
(0.130249 -8.98688e-05 0 0.126195 0 0.130395)
(0.129762 -8.14497e-05 0 0.125145 0 0.129943)
(0.129289 -6.86796e-05 0 0.12413 0 0.129505)
(0.128829 -5.24581e-05 0 0.123149 0 0.129078)
(0.128381 -3.35081e-05 0 0.122201 0 0.128664)
(0.127946 -1.24026e-05 0 0.121282 0 0.128262)
(0.127523 1.03879e-05 0 0.120393 0 0.127871)
(0.127111 3.448e-05 0 0.119532 0 0.12749)
(0.126712 5.95701e-05 0 0.118697 0 0.12712)
(0.126323 8.54206e-05 0 0.117887 0 0.12676)
(0.125945 0.000111848 0 0.117103 0 0.12641)
(0.125577 0.000138712 0 0.116342 0 0.126069)
(0.12522 0.000165913 0 0.115603 0 0.125736)
(0.124871 0.000193378 0 0.114887 0 0.125412)
(0.124532 0.000221064 0 0.114192 0 0.125097)
(0.124201 0.000248947 0 0.113517 0 0.124789)
(0.123879 0.000277019 0 0.112863 0 0.124488)
(0.123565 0.000305288 0 0.112227 0 0.124195)
(0.123259 0.000333771 0 0.11161 0 0.123909)
(0.12296 0.000362491 0 0.111011 0 0.12363)
(0.122668 0.000391477 0 0.110429 0 0.123357)
(0.122384 0.000420758 0 0.109864 0 0.123091)
(0.122107 0.00045036 0 0.109314 0 0.122831)
(0.121836 0.000480305 0 0.108781 0 0.122577)
(0.121572 0.000510606 0 0.108262 0 0.122329)
(0.121314 0.000541278 0 0.107757 0 0.122086)
(0.121062 0.000572386 0 0.107265 0 0.121848)
(0.120811 0.000604404 0 0.106778 0 0.121611)
(0.132823 -2.70895e-05 0 0.13214 0 0.132829)
(0.132271 -5.20655e-05 0 0.130895 0 0.132293)
(0.131725 -7.00308e-05 0 0.129705 0 0.131769)
(0.131188 -8.06603e-05 0 0.128563 0 0.131259)
(0.130661 -8.48132e-05 0 0.127466 0 0.130763)
(0.130148 -8.33892e-05 0 0.12641 0 0.130282)
(0.129646 -7.71577e-05 0 0.125392 0 0.129813)
(0.129157 -6.6897e-05 0 0.12441 0 0.129358)
(0.128682 -5.33477e-05 0 0.123461 0 0.128916)
(0.128219 -3.71281e-05 0 0.122543 0 0.128486)
(0.127769 -1.87386e-05 0 0.121655 0 0.128068)
(0.127332 1.40667e-06 0 0.120796 0 0.127662)
(0.126906 2.29658e-05 0 0.119964 0 0.127267)
(0.126493 4.56633e-05 0 0.119158 0 0.126884)
(0.126091 6.92802e-05 0 0.118378 0 0.126511)
(0.125699 9.36441e-05 0 0.117621 0 0.126148)
(0.125319 0.000118621 0 0.116887 0 0.125794)
(0.124949 0.000144109 0 0.116175 0 0.125451)
(0.124589 0.000170035 0 0.115484 0 0.125116)
(0.124238 0.000196346 0 0.114814 0 0.12479)
(0.123897 0.000223009 0 0.114164 0 0.124473)
(0.123564 0.000250007 0 0.113533 0 0.124163)
(0.123241 0.000277331 0 0.112921 0 0.123862)
(0.122925 0.000304984 0 0.112326 0 0.123568)
(0.122618 0.000332973 0 0.111749 0 0.123282)
(0.122319 0.000361308 0 0.111188 0 0.123002)
(0.122027 0.000390001 0 0.110643 0 0.12273)
(0.121743 0.000419059 0 0.110113 0 0.122464)
(0.121465 0.000448485 0 0.109598 0 0.122205)
(0.121195 0.000478276 0 0.109098 0 0.121952)
(0.120932 0.000508433 0 0.108611 0 0.121705)
(0.120675 0.000539005 0 0.108136 0 0.121463)
(0.120419 0.000570454 0 0.107666 0 0.121222)
(0.132806 -2.33914e-05 0 0.132174 0 0.132812)
(0.132239 -4.52876e-05 0 0.130963 0 0.132258)
(0.131678 -6.15716e-05 0 0.129804 0 0.131717)
(0.131126 -7.17788e-05 0 0.128693 0 0.131191)
(0.130587 -7.64194e-05 0 0.127626 0 0.13068)
(0.130059 -7.61554e-05 0 0.126598 0 0.130183)
(0.129545 -7.15971e-05 0 0.125608 0 0.129699)
(0.129043 -6.33682e-05 0 0.124653 0 0.12923)
(0.128555 -5.20748e-05 0 0.123731 0 0.128774)
(0.12808 -3.82404e-05 0 0.12284 0 0.12833)
(0.127618 -2.22972e-05 0 0.121978 0 0.127899)
(0.127168 -4.60576e-06 0 0.121144 0 0.127481)
(0.126731 1.45335e-05 0 0.120337 0 0.127074)
(0.126306 3.48757e-05 0 0.119555 0 0.126678)
(0.125892 5.62234e-05 0 0.118798 0 0.126293)
(0.12549 7.84193e-05 0 0.118064 0 0.125919)
(0.125099 0.000101339 0 0.117353 0 0.125556)
(0.124718 0.000124887 0 0.116663 0 0.125202)
(0.124348 0.000148989 0 0.115994 0 0.124857)
(0.123988 0.000173592 0 0.115346 0 0.124522)
(0.123638 0.000198659 0 0.114716 0 0.124195)
(0.123296 0.000224164 0 0.114105 0 0.123878)
(0.122964 0.000250091 0 0.113512 0 0.123568)
(0.122641 0.000276432 0 0.112936 0 0.123267)
(0.122326 0.000303183 0 0.112377 0 0.122973)
(0.122019 0.00033034 0 0.111834 0 0.122687)
(0.121721 0.000357902 0 0.111306 0 0.122408)
(0.12143 0.000385862 0 0.110793 0 0.122136)
(0.121147 0.000414211 0 0.110295 0 0.121872)
(0.120871 0.000442933 0 0.10981 0 0.121613)
(0.120602 0.000472016 0 0.109338 0 0.121361)
(0.12034 0.000501499 0 0.108878 0 0.121115)
(0.12008 0.000531805 0 0.108422 0 0.12087)
(0.132792 -2.01192e-05 0 0.132204 0 0.132797)
(0.13221 -3.91713e-05 0 0.131023 0 0.132227)
(0.131635 -5.37055e-05 0 0.129893 0 0.131671)
(0.131072 -6.32147e-05 0 0.128808 0 0.131131)
(0.13052 -6.79728e-05 0 0.127767 0 0.130606)
(0.129981 -6.8452e-05 0 0.126764 0 0.130095)
(0.129456 -6.51286e-05 0 0.125799 0 0.129599)
(0.128943 -5.84994e-05 0 0.124867 0 0.129117)
(0.128444 -4.90579e-05 0 0.123968 0 0.128649)
(0.127958 -3.7243e-05 0 0.123099 0 0.128194)
(0.127485 -2.3425e-05 0 0.12226 0 0.127751)
(0.127026 -7.91604e-06 0 0.121447 0 0.127322)
(0.126578 9.02174e-06 0 0.120661 0 0.126904)
(0.126143 2.71722e-05 0 0.1199 0 0.126498)
(0.12572 4.63597e-05 0 0.119163 0 0.126103)
(0.125309 6.64427e-05 0 0.118449 0 0.125719)
(0.124909 8.73082e-05 0 0.117757 0 0.125346)
(0.12452 0.000108867 0 0.117086 0 0.124983)
(0.124141 0.000131051 0 0.116435 0 0.12463)
(0.123773 0.000153808 0 0.115803 0 0.124286)
(0.123414 0.000177098 0 0.115191 0 0.123952)
(0.123065 0.000200893 0 0.114597 0 0.123626)
(0.122726 0.000225173 0 0.11402 0 0.123309)
(0.122396 0.000249922 0 0.113459 0 0.123001)
(0.122074 0.000275128 0 0.112915 0 0.1227)
(0.121761 0.000300781 0 0.112387 0 0.122408)
(0.121456 0.000326869 0 0.111873 0 0.122123)
(0.12116 0.000353377 0 0.111374 0 0.121845)
(0.120871 0.000380287 0 0.110889 0 0.121575)
(0.12059 0.000407575 0 0.110417 0 0.121311)
(0.120316 0.000435222 0 0.109958 0 0.121054)
(0.120049 0.000463258 0 0.10951 0 0.120803)
(0.119785 0.000492093 0 0.109067 0 0.120554)
(0.132779 -1.71885e-05 0 0.13223 0 0.132783)
(0.132183 -3.36084e-05 0 0.131077 0 0.132199)
(0.131598 -4.6379e-05 0 0.129971 0 0.13163)
(0.131023 -5.50041e-05 0 0.128911 0 0.131077)
(0.130461 -5.96023e-05 0 0.127892 0 0.13054)
(0.129912 -6.04978e-05 0 0.126912 0 0.130018)
(0.129376 -5.80537e-05 0 0.125968 0 0.12951)
(0.128854 -5.26618e-05 0 0.125057 0 0.129017)
(0.128346 -4.47196e-05 0 0.124178 0 0.128538)
(0.127851 -3.45908e-05 0 0.123329 0 0.128073)
(0.127369 -2.25888e-05 0 0.122508 0 0.12762)
(0.1269 -8.98116e-06 0 0.121715 0 0.127181)
(0.126444 6.00585e-06 0 0.120947 0 0.126754)
(0.126001 2.21836e-05 0 0.120203 0 0.126339)
(0.12557 3.93974e-05 0 0.119483 0 0.125935)
(0.125151 5.75215e-05 0 0.118786 0 0.125543)
(0.124743 7.64544e-05 0 0.11811 0 0.125161)
(0.124346 9.61154e-05 0 0.117455 0 0.12479)
(0.123961 0.000116441 0 0.116819 0 0.12443)
(0.123585 0.000137381 0 0.116203 0 0.124078)
(0.12322 0.000158896 0 0.115605 0 0.123737)
(0.122865 0.000180958 0 0.115025 0 0.123405)
(0.122519 0.000203542 0 0.114461 0 0.123081)
(0.122183 0.000226629 0 0.113914 0 0.122766)
(0.121856 0.000250203 0 0.113383 0 0.12246)
(0.121537 0.000274245 0 0.112867 0 0.122161)
(0.121227 0.000298739 0 0.112366 0 0.121871)
(0.120926 0.000323664 0 0.111878 0 0.121588)
(0.120632 0.000348995 0 0.111404 0 0.121312)
(0.120347 0.000374703 0 0.110943 0 0.121043)
(0.120069 0.000400765 0 0.110495 0 0.120782)
(0.119797 0.00042721 0 0.110057 0 0.120526)
(0.119529 0.000454411 0 0.109624 0 0.120272)
(0.132767 -1.4533e-05 0 0.132254 0 0.132771)
(0.13216 -2.85068e-05 0 0.131125 0 0.132174)
(0.131563 -3.95326e-05 0 0.130042 0 0.131593)
(0.130979 -4.71525e-05 0 0.129003 0 0.131029)
(0.130407 -5.1387e-05 0 0.128005 0 0.130481)
(0.129849 -5.24469e-05 0 0.127044 0 0.129948)
(0.129305 -5.06008e-05 0 0.126119 0 0.12943)
(0.128774 -4.61522e-05 0 0.125227 0 0.128928)
(0.128258 -3.94167e-05 0 0.124366 0 0.128439)
(0.127755 -3.06905e-05 0 0.123534 0 0.127965)
(0.127265 -2.02348e-05 0 0.12273 0 0.127504)
(0.126789 -8.27542e-06 0 0.121953 0 0.127056)
(0.126326 4.99435e-06 0 0.1212 0 0.12662)
(0.125875 1.94119e-05 0 0.120472 0 0.126197)
(0.125437 3.48423e-05 0 0.119767 0 0.125786)
(0.125011 5.11749e-05 0 0.119084 0 0.125386)
(0.124597 6.83194e-05 0 0.118422 0 0.124998)
(0.124194 8.62028e-05 0 0.11778 0 0.12462)
(0.123802 0.000104767 0 0.117158 0 0.124252)
(0.123421 0.000123964 0 0.116554 0 0.123894)
(0.12305 0.000143758 0 0.115969 0 0.123547)