/*--------------------------------*- C++ -*----------------------------------*\
| =========                 |                                                 |
| \\      /  F ield         | OpenFOAM: The Open Source CFD Toolbox           |
|  \\    /   O peration     | Version:  4.1                                   |
|   \\  /    A nd           | Web:      www.OpenFOAM.org                      |
|    \\/     M anipulation  |                                                 |
\*---------------------------------------------------------------------------*/
FoamFile
{
    version     2.0;
    format      ascii;
    class       volVectorField;
    location    "300";
    object      U;
}
// * * * * * * * * * * * * * * * * * * * * * * * * * * * * * * * * * * * * * //

dimensions      [0 1 -1 0 0 0 0];

internalField   nonuniform List<vector> 
6820
(
(7.28131 0.0192569 0)
(7.1894 0.0329121 0)
(7.08961 0.0360512 0)
(6.98511 0.037447 0)
(6.88259 0.0386998 0)
(6.78359 0.0397117 0)
(6.68786 0.0404622 0)
(6.59563 0.0409661 0)
(6.50735 0.0411974 0)
(6.42323 0.0411339 0)
(6.34325 0.0407821 0)
(6.26732 0.0401689 0)
(6.19535 0.0393298 0)
(6.1272 0.0383022 0)
(6.06273 0.0371224 0)
(6.00177 0.0358243 0)
(5.94416 0.0344379 0)
(5.88974 0.032989 0)
(5.83836 0.0314994 0)
(5.78988 0.0299872 0)
(5.74417 0.0284668 0)
(5.70109 0.0269495 0)
(5.66053 0.0254441 0)
(5.62238 0.0239567 0)
(5.58654 0.0224913 0)
(5.55292 0.0210499 0)
(5.52145 0.0196319 0)
(5.49208 0.0182373 0)
(5.4647 0.0168514 0)
(5.43949 0.0154912 0)
(5.41578 0.0140843 0)
(5.39644 0.012507 0)
(5.37381 0.0123102 0)
(7.35129 0.0206715 0)
(7.39586 0.0322434 0)
(7.42787 0.0326052 0)
(7.44988 0.033158 0)
(7.46741 0.0343017 0)
(7.48123 0.0350703 0)
(7.49071 0.0354275 0)
(7.49604 0.0355439 0)
(7.49779 0.0354795 0)
(7.49645 0.0352547 0)
(7.49238 0.0349029 0)
(7.48597 0.0344618 0)
(7.47758 0.0339607 0)
(7.46754 0.0334195 0)
(7.45615 0.0328519 0)
(7.44367 0.0322674 0)
(7.43031 0.0316721 0)
(7.41627 0.0310694 0)
(7.40171 0.030461 0)
(7.38678 0.0298473 0)
(7.37161 0.029228 0)
(7.35629 0.0286018 0)
(7.34092 0.027967 0)
(7.32557 0.0273212 0)
(7.31031 0.0266611 0)
(7.29519 0.0259828 0)
(7.28027 0.0252795 0)
(7.2656 0.0245475 0)
(7.25121 0.0237584 0)
(7.23715 0.0229535 0)
(7.22347 0.0218937 0)
(7.20997 0.0211381 0)
(7.19781 0.0185855 0)
(7.33499 0.0124906 0)
(7.34479 0.0201272 0)
(7.35185 0.0214084 0)
(7.35505 0.0232638 0)
(7.35745 0.025162 0)
(7.35999 0.0263008 0)
(7.36227 0.0269191 0)
(7.36419 0.0273348 0)
(7.36592 0.0276484 0)
(7.36752 0.0278778 0)
(7.36894 0.0280408 0)
(7.37015 0.0281551 0)
(7.37114 0.0282293 0)
(7.3719 0.0282649 0)
(7.37241 0.0282617 0)
(7.37267 0.028219 0)
(7.37268 0.0281363 0)
(7.37244 0.0280134 0)
(7.37196 0.0278498 0)
(7.37125 0.0276457 0)
(7.37032 0.0274009 0)
(7.36918 0.0271154 0)
(7.36786 0.0267888 0)
(7.36636 0.0264204 0)
(7.3647 0.0260086 0)
(7.36292 0.0255507 0)
(7.36101 0.025042 0)
(7.35902 0.0244765 0)
(7.35695 0.0238409 0)
(7.35484 0.0231209 0)
(7.35269 0.0222859 0)
(7.35048 0.0212425 0)
(7.34833 0.0200865 0)
(7.3347 0.00984817 0)
(7.34306 0.0202098 0)
(7.35049 0.0246883 0)
(7.35477 0.0279967 0)
(7.35793 0.030695 0)
(7.36099 0.0325748 0)
(7.36373 0.0338875 0)
(7.36605 0.0348802 0)
(7.36809 0.0356213 0)
(7.36995 0.0361202 0)
(7.37167 0.0364004 0)
(7.37325 0.0364952 0)
(7.37471 0.0364344 0)
(7.37607 0.0362429 0)
(7.37735 0.0359427 0)
(7.37856 0.0355534 0)
(7.3797 0.0350916 0)
(7.38079 0.034571 0)
(7.38183 0.0340022 0)
(7.38283 0.0333938 0)
(7.3838 0.0327519 0)
(7.38474 0.0320808 0)
(7.38566 0.031383 0)
(7.38657 0.030659 0)
(7.38747 0.0299078 0)
(7.38837 0.0291265 0)
(7.38928 0.0283095 0)
(7.39021 0.0274496 0)
(7.39117 0.0265318 0)
(7.39217 0.0255461 0)
(7.3932 0.0244522 0)
(7.39426 0.0232427 0)
(7.39532 0.0219011 0)
(7.33418 0.00783594 0)
(7.34051 0.017249 0)
(7.34715 0.0211829 0)
(7.3518 0.0236522 0)
(7.35562 0.025732 0)
(7.35941 0.0272329 0)
(7.36298 0.0282346 0)
(7.36619 0.0289329 0)
(7.36916 0.0294183 0)
(7.37196 0.0297242 0)
(7.37462 0.029885 0)
(7.37715 0.0299362 0)
(7.37955 0.0299044 0)
(7.38185 0.0298072 0)
(7.38407 0.0296571 0)
(7.3862 0.0294629 0)
(7.38826 0.0292307 0)
(7.39026 0.0289643 0)
(7.3922 0.0286658 0)
(7.3941 0.0283359 0)
(7.39597 0.0279745 0)
(7.39781 0.0275804 0)
(7.39962 0.0271517 0)
(7.40143 0.0266856 0)
(7.40323 0.0261782 0)
(7.40503 0.0256242 0)
(7.40685 0.0250168 0)
(7.40868 0.024347 0)
(7.41054 0.0236023 0)
(7.41242 0.0227686 0)
(7.41434 0.0218262 0)
(7.41626 0.0207562 0)
(7.4182 0.01957 0)
(7.33381 0.00629294 0)
(7.33863 0.0150077 0)
(7.34446 0.0195983 0)
(7.34912 0.0228022 0)
(7.35309 0.0255158 0)
(7.35697 0.0275713 0)
(7.36066 0.0290399 0)
(7.36407 0.0301341 0)
(7.36727 0.0309658 0)
(7.37032 0.0315748 0)
(7.37323 0.0319928 0)
(7.37603 0.0322511 0)
(7.37871 0.0323745 0)
(7.3813 0.032381 0)
(7.3838 0.0322856 0)
(7.38623 0.0321011 0)
(7.38859 0.0318383 0)
(7.3909 0.0315062 0)
(7.39316 0.031112 0)
(7.39538 0.0306616 0)
(7.39757 0.0301593 0)
(7.39974 0.0296079 0)
(7.40189 0.029009 0)
(7.40403 0.0283627 0)
(7.40616 0.0276675 0)
(7.4083 0.0269204 0)
(7.41045 0.0261162 0)
(7.41261 0.0252479 0)
(7.41478 0.0243055 0)
(7.41697 0.0232776 0)
(7.41918 0.0221511 0)
(7.42139 0.0209098 0)
(7.42361 0.0195657 0)
(7.33357 0.00517484 0)
(7.33724 0.0130985 0)
(7.34219 0.0177603 0)
(7.34655 0.0208827 0)
(7.35037 0.0233364 0)
(7.35411 0.0251364 0)
(7.35774 0.0263815 0)
(7.36116 0.0272648 0)
(7.36439 0.0278942 0)
(7.36749 0.0283122 0)
(7.37048 0.0285536 0)
(7.37336 0.0286529 0)
(7.37614 0.0286379 0)
(7.37884 0.0285293 0)
(7.38146 0.0283431 0)
(7.38402 0.028092 0)
(7.38652 0.0277859 0)
(7.38897 0.0274319 0)
(7.39138 0.027035 0)
(7.39375 0.0265982 0)
(7.3961 0.0261231 0)
(7.39842 0.0256099 0)
(7.40072 0.0250574 0)
(7.40302 0.0244634 0)
(7.4053 0.0238241 0)
(7.40759 0.0231347 0)
(7.40988 0.0223887 0)
(7.41217 0.021578 0)
(7.41447 0.0206932 0)
(7.41678 0.0197233 0)
(7.41909 0.0186574 0)
(7.4214 0.0174812 0)
(7.42369 0.0162001 0)
(7.33341 0.00433316 0)
(7.33623 0.0114501 0)
(7.34043 0.0160757 0)
(7.34447 0.0192846 0)
(7.34815 0.021846 0)
(7.35178 0.0238339 0)
(7.35534 0.0253066 0)
(7.35874 0.0264113 0)
(7.36197 0.0272468 0)
(7.36509 0.027859 0)
(7.3681 0.028283 0)
(7.37102 0.0285515 0)
(7.37384 0.0286903 0)
(7.37658 0.0287182 0)
(7.37925 0.0286497 0)
(7.38186 0.0284964 0)
(7.38441 0.0282675 0)
(7.38691 0.0279701 0)
(7.38936 0.0276097 0)
(7.39178 0.0271902 0)
(7.39417 0.0267143 0)
(7.39654 0.0261834 0)
(7.39888 0.0255978 0)
(7.40122 0.0249566 0)
(7.40354 0.0242577 0)
(7.40586 0.0234978 0)
(7.40817 0.0226722 0)
(7.41048 0.021775 0)
(7.4128 0.0207989 0)
(7.4151 0.0197359 0)
(7.41741 0.0185781 0)
(7.41969 0.0173154 0)
(7.42196 0.0159508 0)
(7.3333 0.00368743 0)
(7.33551 0.0100559 0)
(7.33906 0.0145362 0)
(7.34275 0.0177248 0)
(7.34622 0.0202273 0)
(7.34966 0.0221543 0)
(7.35307 0.023564 0)
(7.35636 0.0245892 0)
(7.35953 0.0253323 0)
(7.36259 0.0258469 0)
(7.36557 0.0261709 0)
(7.36846 0.0263382 0)
(7.37127 0.0263761 0)
(7.37401 0.026305 0)
(7.37669 0.026141 0)
(7.3793 0.0258972 0)
(7.38187 0.0255838 0)
(7.38438 0.0252088 0)
(7.38686 0.0247778 0)
(7.3893 0.0242951 0)
(7.39172 0.023763 0)
(7.3941 0.0231827 0)
(7.39647 0.022554 0)
(7.39882 0.0218754 0)
(7.40116 0.0211445 0)
(7.40349 0.0203575 0)
(7.40582 0.0195095 0)
(7.40813 0.0185948 0)
(7.41043 0.0176068 0)
(7.41273 0.0165383 0)
(7.415 0.0153828 0)
(7.41726 0.0141314 0)
(7.41948 0.0127866 0)
(7.33324 0.00318005 0)
(7.33499 0.00886604 0)
(7.338 0.0131212 0)
(7.34133 0.0162415 0)
(7.34459 0.0186937 0)
(7.34785 0.0206155 0)
(7.35112 0.0220668 0)
(7.35431 0.0231558 0)
(7.35741 0.023973 0)
(7.36043 0.0245687 0)
(7.36337 0.0249779 0)
(7.36624 0.0252315 0)
(7.36904 0.0253546 0)
(7.37177 0.0253663 0)
(7.37444 0.0252813 0)
(7.37705 0.0251111 0)
(7.37961 0.0248649 0)
(7.38213 0.0245496 0)
(7.3846 0.0241702 0)
(7.38704 0.0237302 0)
(7.38945 0.0232317 0)
(7.39184 0.0226757 0)
(7.3942 0.0220623 0)
(7.39653 0.0213902 0)
(7.39886 0.0206574 0)
(7.40116 0.0198611 0)
(7.40345 0.0189974 0)
(7.40573 0.0180619 0)
(7.40799 0.0170497 0)
(7.41023 0.0159556 0)
(7.41245 0.0147752 0)
(7.41463 0.0135024 0)
(7.41677 0.0121405 0)
(7.33319 0.00277061 0)
(7.33461 0.00784443 0)
(7.33718 0.0118315 0)
(7.34018 0.0148442 0)
(7.34321 0.0172201 0)
(7.34628 0.0190944 0)
(7.34938 0.0205221 0)
(7.35245 0.02159 0)
(7.35545 0.0223791 0)
(7.35839 0.0229405 0)
(7.36126 0.0233102 0)
(7.36407 0.0235192 0)
(7.36682 0.0235932 0)
(7.36951 0.0235517 0)
(7.37214 0.0234102 0)
(7.37473 0.0231812 0)
(7.37726 0.0228743 0)
(7.37975 0.0224971 0)
(7.38221 0.0220554 0)
(7.38463 0.0215533 0)
(7.38701 0.0209935 0)
(7.38937 0.0203775 0)
(7.39171 0.0197056 0)
(7.39402 0.0189773 0)
(7.39631 0.0181908 0)
(7.39858 0.0173439 0)
(7.40084 0.0164334 0)
(7.40307 0.0154558 0)
(7.40528 0.0144071 0)
(7.40747 0.0132833 0)
(7.40962 0.0120812 0)
(7.41174 0.0107966 0)
(7.41382 0.0094326 0)
(7.33316 0.00243187 0)
(7.33433 0.0069595 0)
(7.33653 0.0106554 0)
(7.33923 0.0135265 0)
(7.34204 0.0158063 0)
(7.34493 0.0176187 0)
(7.34787 0.0190185 0)
(7.35081 0.0200786 0)
(7.35371 0.020871 0)
(7.35657 0.0214449 0)
(7.35937 0.0218347 0)
(7.36213 0.0220693 0)
(7.36483 0.0221723 0)
(7.36748 0.0221624 0)
(7.37008 0.0220538 0)
(7.37264 0.0218579 0)
(7.37514 0.0215838 0)
(7.37761 0.0212383 0)
(7.38004 0.0208264 0)
(7.38244 0.0203517 0)
(7.3848 0.0198165 0)
(7.38713 0.0192219 0)
(7.38943 0.0185681 0)
(7.39171 0.0178546 0)
(7.39397 0.0170798 0)
(7.3962 0.0162419 0)
(7.3984 0.0153383 0)
(7.40058 0.0143662 0)
(7.40273 0.013323 0)
(7.40485 0.0122058 0)
(7.40694 0.0110127 0)
(7.40897 0.00974104 0)
(7.41096 0.008395 0)
(7.33314 0.00214507 0)
(7.33412 0.00618486 0)
(7.33602 0.00958142 0)
(7.33844 0.0122869 0)
(7.34105 0.0144549 0)
(7.34375 0.0161903 0)
(7.34654 0.0175445 0)
(7.34935 0.0185766 0)
(7.35214 0.0193477 0)
(7.3549 0.0199027 0)
(7.35763 0.0202743 0)
(7.36031 0.0204895 0)
(7.36296 0.0205708 0)
(7.36555 0.0205363 0)
(7.3681 0.0204002 0)
(7.37061 0.0201738 0)
(7.37307 0.0198661 0)
(7.3755 0.0194842 0)
(7.37788 0.0190334 0)
(7.38024 0.0185177 0)
(7.38256 0.0179397 0)
(7.38485 0.0173011 0)
(7.38711 0.0166026 0)
(7.38934 0.0158441 0)
(7.39154 0.0150251 0)
(7.39372 0.0141442 0)
(7.39587 0.0131998 0)
(7.39798 0.0121902 0)
(7.40007 0.0111136 0)
(7.40212 0.00996838 0)
(7.40413 0.00875381 0)
(7.40609 0.00746868 0)
(7.40801 0.00611734 0)
(7.33313 0.00189723 0)
(7.33396 0.00549931 0)
(7.33562 0.00859793 0)
(7.3378 0.0111208 0)
(7.3402 0.0131628 0)
(7.34274 0.0148081 0)
(7.34537 0.0161033 0)
(7.34805 0.0170975 0)
(7.35073 0.0178427 0)
(7.3534 0.0183804 0)
(7.35605 0.0187415 0)
(7.35866 0.0189515 0)
(7.36124 0.0190316 0)
(7.36378 0.0189988 0)
(7.36628 0.0188666 0)
(7.36874 0.0186459 0)
(7.37116 0.0183452 0)
(7.37355 0.017971 0)
(7.3759 0.0175284 0)
(7.37821 0.017021 0)
(7.38049 0.0164514 0)
(7.38274 0.015821 0)
(7.38495 0.0151307 0)
(7.38714 0.0143803 0)
(7.38929 0.0135695 0)
(7.39141 0.0126974 0)
(7.39351 0.0117628 0)
(7.39556 0.0107645 0)
(7.39758 0.0097015 0)
(7.39956 0.00857297 0)
(7.4015 0.00737897 0)
(7.40339 0.00611906 0)
(7.40522 0.00479795 0)
(7.33311 0.00167917 0)
(7.33383 0.00488586 0)
(7.33529 0.00769356 0)
(7.33726 0.0100228 0)
(7.33948 0.0119276 0)
(7.34186 0.0134722 0)
(7.34434 0.0146969 0)
(7.34689 0.0156425 0)
(7.34947 0.0163523 0)
(7.35204 0.0168631 0)
(7.3546 0.017203 0)
(7.35714 0.0173952 0)
(7.35965 0.017459 0)
(7.36213 0.0174104 0)
(7.36457 0.017262 0)
(7.36698 0.017024 0)
(7.36935 0.0167046 0)
(7.37168 0.0163102 0)
(7.37398 0.0158458 0)
(7.37624 0.0153149 0)
(7.37847 0.0147204 0)
(7.38067 0.0140639 0)
(7.38283 0.0133466 0)
(7.38496 0.012569 0)
(7.38705 0.011731 0)
(7.38911 0.0108325 0)
(7.39114 0.00987304 0)
(7.39313 0.00885221 0)
(7.39508 0.00776982 0)
(7.39698 0.00662592 0)
(7.39884 0.00542134 0)
(7.40065 0.00415669 0)
(7.40241 0.00283674 0)
(7.3331 0.00148433 0)
(7.33373 0.00433101 0)
(7.33503 0.00685778 0)
(7.33681 0.00898729 0)
(7.33887 0.0107461 0)
(7.34109 0.0121806 0)
(7.34344 0.0133249 0)
(7.34587 0.0142123 0)
(7.34833 0.0148789 0)
(7.35081 0.0153568 0)
(7.35329 0.0156714 0)
(7.35575 0.0158441 0)
(7.3582 0.0158928 0)
(7.36061 0.0158322 0)
(7.363 0.0156743 0)
(7.36535 0.0154288 0)
(7.36767 0.0151034 0)
(7.36995 0.0147043 0)
(7.3722 0.0142362 0)
(7.37441 0.0137027 0)
(7.37659 0.0131065 0)
(7.37873 0.0124493 0)
(7.38084 0.0117325 0)
(7.38291 0.0109567 0)
(7.38495 0.0101221 0)
(7.38695 0.00922905 0)
(7.38892 0.00827738 0)
(7.39084 0.0072672 0)
(7.39272 0.0061988 0)
(7.39456 0.00507272 0)
(7.39635 0.00389025 0)
(7.39808 0.00265234 0)
(7.39976 0.00136367 0)
(7.3331 0.00130786 0)
(7.33365 0.003824 0)
(7.33481 0.00608105 0)
(7.33644 0.00800818 0)
(7.33834 0.00961425 0)
(7.34042 0.0109314 0)
(7.34264 0.0119868 0)
(7.34495 0.0128077 0)
(7.34732 0.0134237 0)
(7.3497 0.0138624 0)
(7.3521 0.0141463 0)
(7.35448 0.0142944 0)
(7.35686 0.0143229 0)
(7.35921 0.014245 0)
(7.36153 0.0140718 0)
(7.36382 0.0138122 0)
(7.36609 0.0134733 0)
(7.36831 0.0130608 0)
(7.37051 0.0125794 0)
(7.37266 0.0120324 0)
(7.37479 0.0114225 0)
(7.37687 0.0107516 0)
(7.37892 0.010021 0)
(7.38094 0.00923191 0)
(7.38291 0.00838481 0)
(7.38485 0.00748027 0)
(7.38675 0.00651879 0)
(7.3886 0.00550094 0)
(7.39041 0.00442752 0)
(7.39217 0.00329962 0)
(7.39388 0.00211893 0)
(7.39554 0.000887012 0)
(7.39716 -0.000391557 0)
(7.33309 0.00114608 0)
(7.33359 0.00335618 0)
(7.33463 0.00535482 0)
(7.33613 0.00707942 0)
(7.33789 0.0085281 0)
(7.33985 0.00972167 0)
(7.34195 0.0106811 0)
(7.34415 0.0114281 0)
(7.34641 0.011987 0)
(7.3487 0.0123807 0)
(7.35102 0.0126291 0)
(7.35333 0.0127489 0)
(7.35563 0.0127544 0)
(7.35792 0.0126578 0)
(7.36018 0.0124691 0)
(7.36241 0.0121965 0)
(7.36462 0.0118467 0)
(7.36679 0.0114251 0)
(7.36893 0.010936 0)
(7.37103 0.0103827 0)
(7.37309 0.009768 0)
(7.37512 0.0090938 0)
(7.37712 0.00836163 0)
(7.37907 0.00757268 0)
(7.38099 0.00672789 0)
(7.38286 0.00582809 0)
(7.38469 0.00487408 0)
(7.38648 0.00386678 0)
(7.38822 0.00280734 0)
(7.38991 0.0016971 0)
(7.39156 0.00053801 0)
(7.39315 -0.000668283 0)
(7.39468 -0.00191748 0)
(7.33309 0.000996173 0)
(7.33353 0.0029205 0)
(7.33449 0.00467145 0)
(7.33586 0.006195 0)
(7.33751 0.00748318 0)
(7.33935 0.00854832 0)
(7.34133 0.0094058 0)
(7.34343 0.0100728 0)
(7.3456 0.0105685 0)
(7.34781 0.0109122 0)
(7.35004 0.0111206 0)
(7.35228 0.0112083 0)
(7.35451 0.0111878 0)
(7.35673 0.01107 0)
(7.35893 0.0108636 0)
(7.3611 0.0105761 0)
(7.36325 0.0102136 0)
(7.36536 0.00978103 0)
(7.36744 0.0092823 0)
(7.36949 0.00872063 0)
(7.3715 0.00809854 0)
(7.37347 0.00741803 0)
(7.3754 0.00668069 0)
(7.37729 0.00588784 0)
(7.37914 0.00504062 0)
(7.38095 0.00414009 0)
(7.38272 0.00318732 0)
(7.38443 0.00218351 0)
(7.38611 0.00113006 0)
(7.38773 2.85632e-05 0)
(7.3893 -0.00111888 0)
(7.39082 -0.00231036 0)
(7.39229 -0.00354179 0)
(7.33308 0.000855845 0)
(7.33349 0.00251111 0)
(7.33436 0.00402413 0)
(7.33564 0.00534904 0)
(7.33718 0.00647484 0)
(7.33891 0.00740779 0)
(7.3408 0.00815851 0)
(7.3428 0.00874005 0)
(7.34488 0.00916759 0)
(7.347 0.00945656 0)
(7.34916 0.00962103 0)
(7.35132 0.00967336 0)
(7.35349 0.00962436 0)
(7.35564 0.00948333 0)
(7.35778 0.00925814 0)
(7.3599 0.00895536 0)
(7.36198 0.00858046 0)
(7.36404 0.00813793 0)
(7.36606 0.00763145 0)
(7.36805 0.00706403 0)
(7.37 0.00643811 0)
(7.37191 0.00575571 0)
(7.37379 0.0050185 0)
(7.37562 0.00422792 0)
(7.3774 0.00338528 0)
(7.37915 0.00249184 0)
(7.38085 0.00154888 0)
(7.3825 0.000557807 0)
(7.3841 -0.000479819 0)
(7.38566 -0.00156226 0)
(7.38716 -0.00268736 0)
(7.38861 -0.00385323 0)
(7.39001 -0.00505612 0)
(7.33308 0.000723213 0)
(7.33345 0.00212304 0)
(7.33426 0.00340667 0)
(7.33545 0.00453575 0)
(7.3369 0.00549823 0)
(7.33854 0.0062961 0)
(7.34034 0.00693612 0)
(7.34225 0.00742778 0)
(7.34424 0.00778267 0)
(7.34629 0.00801293 0)
(7.34837 0.00812997 0)
(7.35047 0.00814402 0)
(7.35257 0.00806413 0)
(7.35466 0.00789821 0)
(7.35674 0.007653 0)
(7.35879 0.0073342 0)
(7.36082 0.0069466 0)
(7.36282 0.00649419 0)
(7.36478 0.00598028 0)
(7.36671 0.0054076 0)
(7.3686 0.00477844 0)
(7.37046 0.00409473 0)
(7.37227 0.00335812 0)
(7.37404 0.0025701 0)
(7.37576 0.00173203 0)
(7.37744 0.000845285 0)
(7.37907 -8.87536e-05 0)
(7.38066 -0.00106859 0)
(7.3822 -0.00209257 0)
(7.38368 -0.00315889 0)
(7.38512 -0.00426542 0)
(7.3865 -0.00541021 0)
(7.38784 -0.00658979 0)
(7.33308 0.000596649 0)
(7.33343 0.00175192 0)
(7.33418 0.00281336 0)
(7.3353 0.00374943 0)
(7.33667 0.00454825 0)
(7.33823 0.00520897 0)
(7.33994 0.00573523 0)
(7.34177 0.00613346 0)
(7.34369 0.0064121 0)
(7.34567 0.00658035 0)
(7.34768 0.00664709 0)
(7.34971 0.00662048 0)
(7.35174 0.00650787 0)
(7.35377 0.00631576 0)
(7.35579 0.00604976 0)
(7.35779 0.00571469 0)
(7.35976 0.00531466 0)
(7.3617 0.00485313 0)
(7.3636 0.00433303 0)
(7.36548 0.00375686 0)
(7.36731 0.00312673 0)
(7.3691 0.00244448 0)
(7.37085 0.00171175 0)
(7.37256 0.000930056 0)
(7.37422 0.00010083 0)
(7.37584 -0.000774494 0)
(7.37741 -0.00169444 0)
(7.37893 -0.00265745 0)
(7.3804 -0.00366182 0)
(7.38182 -0.00470575 0)
(7.38319 -0.00578715 0)
(7.38451 -0.00690417 0)
(7.38577 -0.00805367 0)
(7.33308 0.000474681 0)
(7.3334 0.00139377 0)
(7.33411 0.00223878 0)
(7.33517 0.0029843 0)
(7.33647 0.00361936 0)
(7.33796 0.00414131 0)
(7.3396 0.00455132 0)
(7.34137 0.00485318 0)
(7.34322 0.00505258 0)
(7.34512 0.00515602 0)
(7.34707 0.00517004 0)
(7.34904 0.0051008 0)
(7.35101 0.00495397 0)
(7.35298 0.00473464 0)
(7.35494 0.00444729 0)
(7.35688 0.00409583 0)
(7.35879 0.00368363 0)
(7.36068 0.00321359 0)
(7.36253 0.00268821 0)
(7.36434 0.00210964 0)
(7.36612 0.00147977 0)
(7.36785 0.000800289 0)
(7.36954 7.2734e-05 0)
(7.37119 -0.000701447 0)
(7.37279 -0.00152084 0)
(7.37434 -0.00238402 0)
(7.37585 -0.00328952 0)
(7.3773 -0.00423579 0)
(7.37871 -0.00522116 0)
(7.38006 -0.00624387 0)
(7.38137 -0.00730192 0)
(7.38262 -0.00839353 0)
(7.38382 -0.00951578 0)
(7.33308 0.000355845 0)
(7.33338 0.00104473 0)
(7.33406 0.00167766 0)
(7.33507 0.00223473 0)
(7.33631 0.00270627 0)
(7.33774 0.00308851 0)
(7.33933 0.00338064 0)
(7.34103 0.00358414 0)
(7.34281 0.00370223 0)
(7.34466 0.00373895 0)
(7.34655 0.00369861 0)
(7.34846 0.00358547 0)
(7.35038 0.00340353 0)
(7.35229 0.00315654 0)
(7.35419 0.00284784 0)
(7.35608 0.00248043 0)
(7.35793 0.00205696 0)
(7.35976 0.00157978 0)
(7.36156 0.00105094 0)
(7.36331 0.000472297 0)
(7.36503 -0.000154507 0)
(7.3667 -0.000827942 0)
(7.36833 -0.00154658 0)
(7.36992 -0.00230904 0)
(7.37146 -0.00311395 0)
(7.37295 -0.00395992 0)
(7.37439 -0.00484551 0)
(7.37578 -0.0057692 0)
(7.37713 -0.00672938 0)
(7.37842 -0.00772439 0)
(7.37966 -0.00875234 0)
(7.38085 -0.00981166 0)
(7.38198 -0.0108997 0)
(7.33307 0.000238648 0)
(7.33337 0.0007007 0)
(7.33402 0.00112397 0)
(7.33499 0.00149357 0)
(7.33619 0.00180139 0)
(7.33758 0.00204295 0)
(7.33911 0.00221582 0)
(7.34075 0.0023194 0)
(7.34249 0.00235462 0)
(7.34428 0.00232324 0)
(7.34612 0.00222744 0)
(7.34797 0.00206959 0)
(7.34984 0.00185208 0)
(7.3517 0.00157723 0)
(7.35355 0.00124726 0)
(7.35538 0.000864187 0)
(7.35718 0.000429888 0)
(7.35895 -5.39299e-05 0)
(7.36069 -0.000585694 0)
(7.36239 -0.00116395 0)
(7.36405 -0.00178734 0)
(7.36567 -0.00245456 0)
(7.36724 -0.00316436 0)
(7.36877 -0.00391547 0)
(7.37025 -0.00470661 0)
(7.37168 -0.00553649 0)
(7.37306 -0.00640372 0)
(7.37439 -0.00730686 0)
(7.37567 -0.00824439 0)
(7.3769 -0.00921473 0)
(7.37808 -0.0102161 0)
(7.3792 -0.011247 0)
(7.38028 -0.012305 0)
(7.33307 0.000122157 0)
(7.33336 0.000359311 0)
(7.33399 0.000574531 0)
(7.33494 0.000757503 0)
(7.33611 0.00090177 0)
(7.33745 0.00100239 0)
(7.33894 0.00105544 0)
(7.34055 0.00105842 0)
(7.34223 0.00101011 0)
(7.34398 0.000910087 0)
(7.34577 0.000758508 0)
(7.34757 0.000555927 0)
(7.34939 0.000303193 0)
(7.3512 1.33048e-06 0)
(7.353 -0.000348553 0)
(7.35478 -0.000745314 0)
(7.35653 -0.00118781 0)
(7.35825 -0.00167492 0)
(7.35993 -0.00220554 0)
(7.36158 -0.00277858 0)
(7.36318 -0.00339299 0)
(7.36474 -0.0040477 0)
(7.36626 -0.00474165 0)
(7.36773 -0.00547374 0)
(7.36915 -0.00624282 0)
(7.37051 -0.00704771 0)
(7.37183 -0.00788715 0)
(7.3731 -0.00875984 0)
(7.37432 -0.00966438 0)
(7.37549 -0.0105994 0)
(7.3766 -0.0115632 0)
(7.37767 -0.0125547 0)
(7.37868 -0.0135717 0)
(7.33307 5.07888e-06 0)
(7.33335 1.61341e-05 0)
(7.33397 2.22056e-05 0)
(7.3349 1.76543e-05 0)
(7.33605 -2.32549e-06 0)
(7.33737 -4.3167e-05 0)
(7.33883 -0.000110288 0)
(7.3404 -0.000208099 0)
(7.34205 -0.000339961 0)
(7.34376 -0.00050848 0)
(7.3455 -0.000715613 0)
(7.34727 -0.000962698 0)
(7.34904 -0.00125054 0)
(7.35081 -0.00157955 0)
(7.35256 -0.0019498 0)
(7.35429 -0.00236115 0)
(7.35599 -0.00281326 0)
(7.35766 -0.00330564 0)
(7.35929 -0.0038377 0)
(7.36089 -0.00440876 0)
(7.36244 -0.00501807 0)
(7.36395 -0.0056648 0)
(7.36541 -0.00634807 0)
(7.36682 -0.00706693 0)
(7.36818 -0.00782035 0)
(7.36949 -0.00860724 0)
(7.37076 -0.00942645 0)
(7.37197 -0.0102768 0)
(7.37313 -0.0111569 0)
(7.37423 -0.0120654 0)
(7.37529 -0.013001 0)
(7.37629 -0.0139622 0)
(7.37725 -0.0149471 0)
(7.33307 -0.000114037 0)
(7.33335 -0.000333543 0)
(7.33397 -0.000540429 0)
(7.33489 -0.000735094 0)
(7.33603 -0.000920772 0)
(7.33733 -0.00110372 0)
(7.33878 -0.0012911 0)
(7.34032 -0.00148935 0)
(7.34195 -0.00170399 0)
(7.34363 -0.00193977 0)
(7.34534 -0.00220061 0)
(7.34707 -0.00248957 0)
(7.3488 -0.00280892 0)
(7.35052 -0.00316033 0)
(7.35223 -0.00354498 0)
(7.35391 -0.00396362 0)
(7.35557 -0.00441668 0)
(7.35719 -0.00490433 0)
(7.35877 -0.00542653 0)
(7.36031 -0.00598306 0)
(7.36181 -0.00657356 0)
(7.36326 -0.00719753 0)
(7.36467 -0.00785438 0)
(7.36602 -0.00854339 0)
(7.36733 -0.00926378 0)
(7.36858 -0.0100147 0)
(7.36978 -0.0107951 0)
(7.37093 -0.011604 0)
(7.37203 -0.0124404 0)
(7.37308 -0.0133031 0)
(7.37408 -0.0141908 0)
(7.37502 -0.0151028 0)
(7.37591 -0.0160372 0)
(7.33307 -0.000236902 0)
(7.33336 -0.00069418 0)
(7.33398 -0.00111961 0)
(7.33491 -0.00150764 0)
(7.33606 -0.00186023 0)
(7.33736 -0.00218514 0)
(7.3388 -0.00249179 0)
(7.34034 -0.00278904 0)
(7.34195 -0.00308505 0)
(7.34361 -0.00338724 0)
(7.34529 -0.00370197 0)
(7.34699 -0.00403436 0)
(7.34869 -0.0043884 0)
(7.35038 -0.00476715 0)
(7.35205 -0.0051729 0)
(7.35369 -0.00560728 0)
(7.35531 -0.00607141 0)
(7.35689 -0.00656598 0)
(7.35842 -0.00709136 0)
(7.35992 -0.00764763 0)
(7.36137 -0.00823467 0)
(7.36277 -0.00885217 0)
(7.36413 -0.00949967 0)
(7.36543 -0.0101766 0)
(7.36669 -0.0108823 0)
(7.36789 -0.0116158 0)
(7.36904 -0.0123765 0)
(7.37014 -0.0131633 0)
(7.37118 -0.0139752 0)
(7.37217 -0.0148112 0)
(7.37311 -0.01567 0)
(7.374 -0.0165505 0)
(7.37483 -0.0174512 0)
(7.33307 -0.000366526 0)
(7.33337 -0.00107412 0)
(7.33401 -0.00172752 0)
(7.33497 -0.00231421 0)
(7.33614 -0.00283571 0)
(7.33747 -0.00330254 0)
(7.33891 -0.00372689 0)
(7.34045 -0.00411991 0)
(7.34206 -0.00449205 0)
(7.3437 -0.00485304 0)
(7.34537 -0.00521141 0)
(7.34704 -0.00557416 0)
(7.34871 -0.00594696 0)
(7.35037 -0.00633436 0)
(7.352 -0.00673995 0)
(7.3536 -0.0071665 0)
(7.35518 -0.00761605 0)
(7.35671 -0.00809011 0)
(7.3582 -0.00858971 0)
(7.35964 -0.00911552 0)
(7.36104 -0.00966789 0)
(7.36239 -0.0102469 0)
(7.3637 -0.0108525 0)
(7.36495 -0.0114844 0)
(7.36614 -0.0121421 0)
(7.36729 -0.0128251 0)
(7.36838 -0.0135329 0)
(7.36942 -0.0142646 0)
(7.37041 -0.0150195 0)
(7.37134 -0.0157969 0)
(7.37223 -0.0165957 0)
(7.37306 -0.0174155 0)
(7.37384 -0.0182549 0)
(7.33307 -0.000506748 0)
(7.33339 -0.00148379 0)
(7.33408 -0.0023786 0)
(7.33508 -0.00317035 0)
(7.3363 -0.00386191 0)
(7.33766 -0.00446931 0)
(7.33913 -0.00500977 0)
(7.34069 -0.0054987 0)
(7.34231 -0.00595054 0)
(7.34396 -0.00637846 0)
(7.34562 -0.0067935 0)
(7.34728 -0.00720439 0)
(7.34894 -0.00761807 0)
(7.35057 -0.00804002 0)
(7.35218 -0.00847452 0)
(7.35376 -0.00892483 0)
(7.3553 -0.00939339 0)
(7.3568 -0.00988199 0)
(7.35825 -0.0103919 0)
(7.35966 -0.010924 0)
(7.36102 -0.0114788 0)
(7.36233 -0.0120565 0)
(7.36358 -0.0126572 0)
(7.36479 -0.0132806 0)
(7.36594 -0.0139266 0)
(7.36704 -0.0145945 0)
(7.36808 -0.015284 0)
(7.36907 -0.0159943 0)
(7.37001 -0.0167248 0)
(7.37089 -0.0174747 0)
(7.37172 -0.018243 0)
(7.3725 -0.0190289 0)
(7.37322 -0.0198311 0)
(7.33308 -0.000663009 0)
(7.33343 -0.00193797 0)
(7.33418 -0.00309312 0)
(7.33526 -0.00409826 0)
(7.33655 -0.00496065 0)
(7.33796 -0.00570319 0)
(7.33948 -0.00634669 0)
(7.34107 -0.00690941 0)
(7.3427 -0.00740992 0)
(7.34435 -0.00786593 0)
(7.34601 -0.00829226 0)
(7.34766 -0.0087007 0)
(7.34929 -0.00910073 0)
(7.3509 -0.00949993 0)
(7.35248 -0.00990425 0)
(7.35402 -0.0103182 0)
(7.35552 -0.0107453 0)
(7.35697 -0.0111881 0)
(7.35838 -0.0116484 0)
(7.35975 -0.0121276 0)
(7.36106 -0.0126266 0)
(7.36232 -0.013146 0)
(7.36352 -0.0136861 0)
(7.36468 -0.0142468 0)
(7.36578 -0.0148283 0)
(7.36682 -0.0154301 0)
(7.36781 -0.0160521 0)
(7.36875 -0.0166936 0)
(7.36963 -0.0173543 0)
(7.37046 -0.0180336 0)
(7.37123 -0.0187308 0)
(7.37196 -0.0194458 0)
(7.37263 -0.0201774 0)
(7.33308 -0.000843701 0)
(7.33349 -0.0024586 0)
(7.33434 -0.00389774 0)
(7.33553 -0.00512279 0)
(7.33692 -0.00615855 0)
(7.33843 -0.00704644 0)
(7.34002 -0.00781586 0)
(7.34168 -0.00848881 0)
(7.34336 -0.0090869 0)
(7.34505 -0.00962998 0)
(7.34673 -0.0101339 0)
(7.34839 -0.010611 0)
(7.35002 -0.0110712 0)
(7.35162 -0.0115226 0)
(7.35319 -0.0119716 0)
(7.35471 -0.0124231 0)
(7.35618 -0.012881 0)
(7.35761 -0.0133482 0)
(7.35899 -0.013827 0)
(7.36031 -0.014319 0)
(7.36159 -0.0148254 0)
(7.36281 -0.0153469 0)
(7.36397 -0.0158841 0)
(7.36508 -0.0164372 0)
(7.36613 -0.0170062 0)
(7.36713 -0.0175912 0)
(7.36807 -0.0181918 0)
(7.36895 -0.0188078 0)
(7.36978 -0.0194388 0)
(7.37056 -0.0200842 0)
(7.37127 -0.0207434 0)
(7.37194 -0.021416 0)
(7.37254 -0.022101 0)
(7.33309 -0.00106244 0)
(7.33359 -0.00308211 0)
(7.33459 -0.00483835 0)
(7.33595 -0.00627993 0)
(7.33747 -0.0074522 0)
(7.33906 -0.00841529 0)
(7.34073 -0.00921062 0)
(7.34243 -0.00987328 0)
(7.34414 -0.0104379 0)
(7.34584 -0.0109332 0)
(7.34752 -0.0113803 0)
(7.34917 -0.011795 0)
(7.35079 -0.0121893 0)
(7.35237 -0.0125729 0)
(7.3539 -0.0129528 0)
(7.35539 -0.0133342 0)
(7.35682 -0.0137213 0)
(7.35821 -0.014117 0)
(7.35954 -0.0145236 0)
(7.36082 -0.0149428 0)
(7.36204 -0.0153756 0)
(7.36321 -0.0158231 0)
(7.36432 -0.0162857 0)
(7.36537 -0.0167638 0)
(7.36637 -0.0172575 0)
(7.36731 -0.0177668 0)
(7.36819 -0.0182917 0)
(7.36902 -0.0188319 0)
(7.36979 -0.0193871 0)
(7.37051 -0.019957 0)
(7.37117 -0.0205412 0)
(7.37179 -0.0211395 0)
(7.37235 -0.021751 0)
(7.33311 -0.00134305 0)
(7.33374 -0.00385724 0)
(7.335 -0.00597098 0)
(7.33662 -0.00767823 0)
(7.33836 -0.00909176 0)
(7.34014 -0.0102828 0)
(7.34195 -0.0112784 0)
(7.34377 -0.0121103 0)
(7.34555 -0.0128184 0)
(7.3473 -0.0134357 0)
(7.349 -0.0139851 0)
(7.35066 -0.0144845 0)
(7.35226 -0.0149483 0)
(7.35382 -0.0153883 0)
(7.35532 -0.0158133 0)
(7.35677 -0.0162299 0)
(7.35816 -0.0166431 0)
(7.35949 -0.0170569 0)
(7.36077 -0.017474 0)
(7.36199 -0.0178967 0)
(7.36315 -0.0183264 0)
(7.36425 -0.0187644 0)
(7.36529 -0.0192112 0)
(7.36628 -0.0196676 0)
(7.3672 -0.0201337 0)
(7.36807 -0.0206098 0)
(7.36888 -0.0210959 0)
(7.36963 -0.0215919 0)
(7.37033 -0.0220978 0)
(7.37097 -0.0226135 0)
(7.37155 -0.0231387 0)
(7.37207 -0.0236734 0)
(7.37253 -0.0242173 0)
(7.33314 -0.00174241 0)
(7.33402 -0.00489774 0)
(7.33561 -0.00728354 0)
(7.33748 -0.00897788 0)
(7.33935 -0.010266 0)
(7.34123 -0.0113005 0)
(7.34312 -0.0121306 0)
(7.34499 -0.0128015 0)
(7.3468 -0.0133628 0)
(7.34855 -0.0138494 0)
(7.35024 -0.0142822 0)
(7.35186 -0.0146764 0)
(7.35342 -0.0150439 0)
(7.35491 -0.0153942 0)
(7.35634 -0.0157343 0)
(7.35771 -0.0160693 0)
(7.35902 -0.0164036 0)
(7.36027 -0.0167401 0)
(7.36145 -0.0170815 0)
(7.36258 -0.0174296 0)
(7.36364 -0.0177859 0)
(7.36464 -0.0181514 0)
(7.36559 -0.0185269 0)
(7.36648 -0.0189129 0)
(7.3673 -0.0193097 0)
(7.36807 -0.0197175 0)
(7.36878 -0.0201363 0)
(7.36944 -0.0205659 0)
(7.37004 -0.0210062 0)
(7.37058 -0.0214568 0)
(7.37107 -0.0219174 0)
(7.37151 -0.0223875 0)
(7.3719 -0.0228664 0)
(7.33321 -0.00233026 0)
(7.33466 -0.00649867 0)
(7.33704 -0.00963554 0)
(7.33947 -0.0119277 0)
(7.34161 -0.0136823 0)
(7.3436 -0.0150335 0)
(7.34551 -0.0160607 0)
(7.34733 -0.0168559 0)
(7.34902 -0.0174963 0)
(7.35061 -0.0180297 0)
(7.35211 -0.0184867 0)
(7.35353 -0.0188904 0)
(7.35487 -0.0192581 0)
(7.35613 -0.0196018 0)
(7.35733 -0.0199298 0)
(7.35845 -0.0202479 0)
(7.35951 -0.0205602 0)
(7.36051 -0.0208698 0)
(7.36144 -0.0211788 0)
(7.36231 -0.0214887 0)
(7.36312 -0.0218008 0)
(7.36387 -0.022116 0)
(7.36456 -0.0224348 0)
(7.36519 -0.0227578 0)
(7.36577 -0.0230854 0)
(7.36629 -0.0234178 0)
(7.36675 -0.0237554 0)
(7.36715 -0.0240984 0)
(7.3675 -0.0244469 0)
(7.3678 -0.0248015 0)
(7.36804 -0.0251627 0)
(7.36823 -0.0255321 0)
(7.36837 -0.0259108 0)
(7.33323 -0.00332406 0)
(7.33507 -0.0075353 0)
(7.3378 -0.00971545 0)
(7.3403 -0.0112745 0)
(7.34235 -0.012642 0)
(7.34415 -0.0137275 0)
(7.34578 -0.014534 0)
(7.3472 -0.0151636 0)
(7.34842 -0.0156869 0)
(7.34949 -0.0161301 0)
(7.35044 -0.0165088 0)
(7.35129 -0.01684 0)
(7.35205 -0.0171389 0)
(7.35274 -0.017416 0)
(7.35336 -0.0176791 0)
(7.35392 -0.0179339 0)
(7.35443 -0.018185 0)
(7.35489 -0.0184359 0)
(7.35531 -0.0186889 0)
(7.35568 -0.0189458 0)
(7.356 -0.0192078 0)
(7.35629 -0.0194756 0)
(7.35653 -0.0197499 0)
(7.35674 -0.0200308 0)
(7.35691 -0.0203184 0)
(7.35703 -0.0206126 0)
(7.35712 -0.020913 0)
(7.35718 -0.0212192 0)
(7.35719 -0.0215305 0)
(7.35717 -0.0218454 0)
(7.35711 -0.0221625 0)
(7.35701 -0.0224772 0)
(7.35686 -0.0227897 0)
(7.33597 -0.00736447 0)
(7.34632 -0.015144 0)
(7.35619 -0.0178152 0)
(7.36438 -0.0190076 0)
(7.37193 -0.0199227 0)
(7.37929 -0.0205348 0)
(7.38627 -0.0208596 0)
(7.39275 -0.0210464 0)
(7.39878 -0.0211933 0)
(7.40445 -0.0213257 0)
(7.40981 -0.0214481 0)
(7.41486 -0.0215662 0)
(7.41965 -0.0216851 0)
(7.42417 -0.0218068 0)
(7.42846 -0.0219318 0)
(7.43252 -0.0220598 0)
(7.43636 -0.0221912 0)
(7.44 -0.022326 0)
(7.44344 -0.0224643 0)
(7.4467 -0.0226065 0)
(7.44978 -0.0227527 0)
(7.45268 -0.0229033 0)
(7.45541 -0.0230586 0)
(7.45798 -0.0232189 0)
(7.4604 -0.0233845 0)
(7.46266 -0.0235557 0)
(7.46479 -0.0237331 0)
(7.46677 -0.0239168 0)
(7.46863 -0.0241074 0)
(7.47036 -0.0243053 0)
(7.47199 -0.0245108 0)
(7.4735 -0.0247251 0)
(7.47494 -0.0249466 0)
(7.32333 -0.00890086 0)