/*--------------------------------*- C++ -*----------------------------------*\
| =========                 |                                                 |
| \\      /  F ield         | OpenFOAM: The Open Source CFD Toolbox           |
|  \\    /   O peration     | Version:  4.1                                   |
|   \\  /    A nd           | Web:      www.OpenFOAM.org                      |
|    \\/     M anipulation  |                                                 |
\*---------------------------------------------------------------------------*/
FoamFile
{
    version     2.0;
    format      ascii;
    class       volScalarField;
    location    "300";
    object      p;
}
// * * * * * * * * * * * * * * * * * * * * * * * * * * * * * * * * * * * * * //

dimensions      [0 2 -2 0 0 0 0];

internalField   nonuniform List<scalar> 
26785
(
-333.737
-358.863
-389.321
-425.35
-460.988
-490.287
-513.018
-532.196
-549.618
-566.656
-583.753
-599.318
-610.548
-615.179
-614.478
-609.572
-601.004
-590.647
-581.276
-574.522
-568.592
-559.778
-561.802
-598.65
-662.062
-712.881
-754.452
-790.161
-820.155
-843.964
-861.073
-873.159
-886.408
-902.228
-919.483
-937.376
-954.626
-970.295
-983.447
-993.73
-1000.12
-1002.41
-1000.4
-993.828
-982.58
-966.643
-946.194
-921.513
-892.653
-859.295
-820.882
-777.556
-730.271
-680.45
-630.051
-581.64
-538.331
-503.34
-472.786
-441.606
-411.281
-382.876
-355.006
-327.406
-301.582
-278.585
-258.405
-241.016
-226.345
-214.043
-203.888
-195.507
-188.403
-182.273
-176.751
-171.452
-166.026
-160.101
-153.355
-145.525
-136.369
-125.576
-112.625
-96.9493
-78.1034
-55.8446
-30.3113
-1.98235
28.6362
61.1067
94.8882
129.71
165.056
196.693
218.621
231.075
229.524
215.768
154.277
128.475
-333.723
-358.827
-389.311
-425.38
-461.034
-490.317
-513.045
-532.22
-549.627
-566.661
-583.779
-599.379
-610.641
-615.269
-614.576
-609.679
-601.089
-590.702
-581.334
-574.659
-568.971
-560.723
-563.003
-600.011
-662.929
-713.297
-754.701
-790.355
-820.353
-844.124
-861.167
-873.159
-886.329
-902.139
-919.428
-937.388
-954.675
-970.381
-983.558
-993.876
-1000.3
-1002.62
-1000.64
-994.082
-982.846
-966.915
-946.468
-921.803
-892.98
-859.684
-821.321
-778.022
-730.731
-680.85
-630.304
-581.656
-538.068
-503.158
-472.782
-441.522
-411.095
-382.679
-354.827
-327.216
-301.381
-278.36
-258.142
-240.736
-226.078
-213.798
-203.675
-195.337
-188.272
-182.181
-176.701
-171.444
-166.06
-160.178
-153.477
-145.693
-136.593
-125.873
-113.002
-97.4099
-78.666
-56.5415
-31.1537
-2.92566
27.6765
60.2031
94.0782
128.84
163.607
194.518
216.203
228.554
226.324
212.593
152.517
123.218
-333.674
-358.747
-389.284
-425.432
-461.113
-490.369
-513.095
-532.266
-549.648
-566.676
-583.832
-599.497
-610.813
-615.433
-614.744
-609.853
-601.22
-590.788
-581.439
-574.924
-569.712
-562.671
-565.568
-601.942
-663.538
-713.745
-755.111
-790.735
-820.748
-844.413
-861.303
-873.119
-886.137
-901.942
-919.313
-937.406
-954.759
-970.53
-983.762
-994.153
-1000.63
-1003.01
-1001.07
-994.551
-983.345
-967.436
-947.012
-922.395
-893.649
-860.46
-822.177
-778.926
-731.63
-681.637
-630.817
-581.732
-537.651
-502.857
-472.755
-441.337
-410.715
-382.273
-354.447
-326.764
-300.842
-277.769
-257.516
-240.133
-225.54
-213.3
-203.231
-194.974
-187.986
-181.971
-176.57
-171.39
-166.085
-160.283
-153.663
-145.966
-136.972
-126.385
-113.663
-98.2306
-79.6806
-57.8043
-32.6826
-4.64992
25.8866
58.441
92.3554
126.964
161.031
190.972
212.045
223.969
221.044
207.101
149.452
113.585
-333.598
-358.631
-389.243
-425.508
-461.219
-490.441
-513.167
-532.331
-549.68
-566.702
-583.915
-599.675
-611.067
-615.675
-614.985
-610.083
-601.38
-590.891
-581.576
-575.28
-570.67
-565.104
-568.699
-604.01
-663.864
-714.197
-755.695
-791.347
-821.379
-844.855
-861.502
-873.082
-885.867
-901.688
-919.188
-937.442
-954.88
-970.758
-984.084
-994.592
-1001.17
-1003.63
-1001.76
-995.295
-984.13
-968.247
-947.846
-923.285
-894.641
-861.597
-823.424
-780.239
-732.942
-682.802
-631.608
-581.912
-537.143
-502.499
-472.765
-441.102
-410.131
-381.579
-353.806
-326.051
-300.042
-276.929
-256.623
-239.254
-224.752
-212.567
-202.577
-194.451
-187.581
-181.683
-176.406
-171.349
-166.167
-160.49
-153.996
-146.431
-137.588
-127.19
-114.684
-99.4881
-81.2114
-59.6689
-34.9118
-7.19558
23.1348
55.5774
89.3855
123.678
156.97
185.918
206.332
217.747
214.033
199.648
144.9
101.9
-333.496
-358.476
-389.185
-425.603
-461.344
-490.526
-513.255
-532.415
-549.723
-566.742
-584.034
-599.919
-611.411
-616.004
-615.302
-610.375
-601.568
-591.008
-581.739
-575.696
-571.728
-567.626
-571.877
-606.129
-664.294
-714.743
-756.473
-792.162
-822.222
-845.446
-861.784
-873.05
-885.475
-901.331
-919.037
-937.501
-955.031
-971.046
-984.503
-995.17
-1001.88
-1004.44
-1002.66
-996.264
-985.154
-969.311
-948.947
-924.46
-895.952
-863.089
-825.053
-781.944
-734.649
-684.331
-632.672
-582.199
-536.516
-502.025
-472.755
-440.766
-409.283
-380.522
-352.826
-325.023
-298.935
-275.804
-255.438
-238.061
-223.682
-211.58
-201.681
-193.728
-187.018
-181.272
-176.154
-171.255
-166.231
-160.718
-154.389
-146.996
-138.353
-128.201
-115.982
-101.104
-83.178
-62.0336
-37.6919
-10.3564
19.658
51.8311
85.3493
119.158
151.594
179.513
199.241
210.101
205.644
190.659
138.758
89.459
-333.348
-358.27
-389.106
-425.72
-461.487
-490.625
-513.362
-532.521
-549.784
-566.801
-584.192
-600.232
-611.845
-616.427
-615.699
-610.737
-601.795
-591.151
-581.93
-576.151
-572.823
-570.078
-574.977
-608.342
-665.059
-715.493
-757.524
-793.217
-823.301
-846.157
-862.075
-872.929
-884.9
-900.895
-918.891
-937.57
-955.207
-971.404
-985.034
-995.907
-1002.78
-1005.47
-1003.8
-997.493
-986.454
-970.66
-950.342
-925.931
-897.578
-864.92
-827.047
-784.023
-736.739
-686.231
-634.051
-582.667
-535.837
-501.475
-472.788
-440.388
-408.187
-379.095
-351.424
-323.641
-297.492
-274.366
-253.968
-236.571
-222.343
-210.371
-200.565
-192.825
-186.324
-180.771
-175.855
-171.158
-166.339
-161.034
-154.916
-147.741
-139.34
-129.482
-117.618
-103.14
-85.6482
-64.9759
-41.1112
-14.2209
15.387
47.1636
80.24
113.438
144.98
171.884
190.915
201.166
196.044
180.345
131.055
77.371
-333.153
-358.008
-388.996
-425.855
-461.646
-490.735
-513.491
-532.654
-549.865
-566.883
-584.392
-600.613
-612.366
-616.951
-616.173
-611.177
-602.075
-591.331
-582.152
-576.636
-573.932
-572.431
-578.008
-610.656
-666.085
-716.425
-758.791
-794.401
-824.51
-846.942
-862.472
-872.936
-884.177
-900.348
-918.765
-937.664
-955.411
-971.832
-985.674
-996.796
-1003.86
-1006.71
-1005.17
-998.964
-988.012
-972.279
-952.019
-927.685
-899.505
-867.08
-829.391
-786.466
-739.201
-688.503
-635.773
-583.382
-535.163
-500.82
-472.801
-439.949
-406.857
-377.282
-349.482
-321.853
-295.673
-272.581
-252.207
-234.782
-220.708
-208.942
-199.232
-191.718
-185.48
-180.156
-175.479
-171.022
-166.444
-161.384
-155.516
-148.598
-140.482
-130.961
-119.519
-105.523
-88.5475
-68.4238
-45.1047
-18.7279
10.3938
41.6753
74.1929
106.676
137.279
163.174
181.481
191.066
185.468
169.068
122.172
66.2654
-332.931
-357.7
-388.854
-426.002
-461.824
-490.861
-513.646
-532.818
-549.971
-566.991
-584.634
-601.06
-612.969
-617.577
-616.729
-611.699
-602.421
-591.563
-582.412
-577.146
-575.057
-574.701
-581.001
-613.052
-667.209
-717.458
-760.189
-795.708
-825.992
-848.126
-863.354
-873.26
-883.203
-899.398
-918.421
-937.744
-955.63
-972.325
-986.431
-997.843
-1005.14
-1008.17
-1006.77
-1000.69
-989.843
-974.18
-953.986
-929.737
-901.732
-869.561
-832.074
-789.263
-742.027
-691.149
-637.875
-584.446
-534.648
-500.079
-472.761
-439.508
-405.37
-375.082
-346.969
-319.599
-293.417
-270.387
-250.111
-232.677
-218.741
-207.281
-197.709
-190.413
-184.487
-179.438
-175.042
-170.868
-166.576
-161.807
-156.236
-149.622
-141.828
-132.679
-121.718
-108.277
-91.894
-72.3943
-49.6968
-23.9151
4.63144
35.3263
67.1991
98.9081
128.568
153.493
171.069
179.921
174.08
157.092
112.452
56.3738
-332.672
-357.336
-388.669
-426.143
-462.019
-491.01
-513.836
-533.015
-550.102
-567.126
-584.92
-601.572
-613.653
-618.3
-617.377
-612.306
-602.845
-591.856
-582.714
-577.682
-576.208
-576.922
-583.984
-615.497
-668.346
-718.532
-761.657
-797.163
-827.858
-849.738
-864.414
-873.326
-881.669
-898.381
-918.182
-937.804
-955.825
-972.883
-987.318
-999.054
-1006.62
-1009.86
-1008.62
-1002.68
-991.944
-976.356
-956.233
-932.079
-904.254
-872.354
-835.089
-792.406
-745.21
-694.17
-640.381
-585.935
-534.455
-499.208
-472.574
-439.154
-403.787
-372.48
-343.936
-316.813
-290.655
-267.712
-247.615
-230.229
-216.413
-205.344
-196.007
-188.914
-183.336
-178.612
-174.534
-170.683
-166.715
-162.277
-157.044
-150.779
-143.343
-134.597
-124.179
-111.364
-95.6499
-76.8473
-54.8455
-29.7378
-1.85072
28.1726
59.3245
90.2115
118.929
142.925
159.787
167.889
162.012
144.652
102.202
47.6577
-332.386
-356.924
-388.445
-426.281
-462.243
-491.195
-514.068
-533.25
-550.26
-567.291
-585.25
-602.151
-614.421
-619.123
-618.127
-613.002
-603.353
-592.219
-583.057
-578.234
-577.38
-579.104
-586.955
-617.931
-669.459
-719.608
-763.121
-798.696
-830.047
-851.59
-865.36
-873.349
-880.398
-897.534
-917.995
-937.76
-956.106
-973.545
-988.34
-1000.44
-1008.31
-1011.77
-1010.72
-1004.93
-994.319
-978.81
-958.755
-934.706
-907.066
-875.454
-838.431
-795.89
-748.744
-697.563
-643.305
-587.906
-534.749
-498.174
-472.113
-439.012
-402.149
-369.444
-340.417
-313.392
-287.319
-264.504
-244.653
-227.406
-213.718
-203.079
-194.121
-187.235
-182.019
-177.675
-173.957
-170.472
-166.872
-162.809
-157.962
-152.091
-145.051
-136.737
-126.917
-114.794
-99.8237
-81.7925
-60.5624
-36.2068
-9.05701
20.2233
50.5976
80.6352
108.426
131.54
147.717
155.128
149.355
131.86
91.6036
39.9058
-332.055
-356.486
-388.188
-426.411
-462.506
-491.428
-514.347
-533.521
-550.445
-567.485
-585.628
-602.801
-615.283
-620.058
-618.994
-613.801
-603.958
-592.659
-583.439
-578.795
-578.555
-581.217
-589.871
-620.269
-670.504
-720.648
-764.5
-800.137
-832.201
-852.915
-865.749
-872.96
-878.951
-897.033
-918.83
-937.913
-956.376
-974.326
-989.518
-1002
-1010.22
-1013.93
-1013.07
-1007.44
-996.969
-981.543
-961.549
-937.613
-910.162
-878.85
-842.094
-799.71
-752.626
-701.322
-646.647
-590.39
-535.704
-497.146
-471.375
-439.318
-400.491
-366.031
-336.391
-309.246
-283.386
-260.737
-241.176
-224.171
-210.664
-200.452
-192.018
-185.396
-180.535
-176.622
-173.309
-170.232
-167.042
-163.397
-158.978
-153.546
-146.94
-139.095
-129.918
-118.546
-104.404
-87.2226
-66.8449
-43.3217
-16.9849
11.4878
41.0393
70.2136
97.1045
119.391
134.934
141.772
136.185
118.782
80.5734
32.9392
-331.657
-356.048
-387.915
-426.528
-462.802
-491.714
-514.677
-533.831
-550.657
-567.711
-586.059
-603.531
-616.248
-621.119
-619.998
-614.727
-604.677
-593.186
-583.865
-579.365
-579.717
-583.217
-592.666
-622.406
-671.414
-721.606
-765.765
-801.457
-834.402
-853.976
-866.146
-872.903
-877.561
-896.129
-919.282
-937.676
-956.742
-975.204
-990.849
-1003.76
-1012.35
-1016.34
-1015.69
-1010.23
-999.895
-984.556
-964.617
-940.798
-913.535
-882.537
-846.079
-803.865
-756.852
-705.441
-650.396
-593.395
-537.451
-496.433
-470.48
-440.335
-398.805
-362.358
-331.834
-304.371
-278.871
-256.413
-237.155
-220.49
-207.253
-197.448
-189.648
-183.405
-178.89
-175.445
-172.591
-169.963
-167.229
-164.046
-160.103
-155.157
-149.03
-141.69
-133.178
-122.621
-109.393
-93.1447
-73.7038
-51.0944
-25.6442
1.9629
30.6566
58.965
84.9929
106.518
121.494
127.903
122.623
105.546
69.0315
26.6081
-331.197
-355.598
-387.636
-426.624
-463.11
-492.037
-515.05
-534.177
-550.894
-567.97
-586.549
-604.346
-617.322
-622.315
-621.151
-615.801
-605.534
-593.815
-584.341
-579.943
-580.849
-585.059
-595.262
-624.239
-672.104
-722.452
-766.961
-802.655
-836.527
-854.011
-865.663
-872.994
-876.955
-895.407
-920.034
-937.413
-957.188
-976.177
-992.336
-1005.7
-1014.72
-1019.01
-1018.59
-1013.3
-1003.1
-987.853
-967.96
-944.26
-917.185
-886.504
-850.383
-808.355
-761.422
-709.914
-654.528
-596.886
-539.975
-496.164
-469.842
-442.423
-397.078
-358.433
-326.726
-298.857
-273.801
-251.545
-232.588
-216.34
-203.479
-194.078
-186.96
-181.25
-177.099
-174.138
-171.798
-169.666
-167.432
-164.757
-161.335
-156.923
-151.326
-144.537
-136.692
-127.02
-114.793
-99.5671
-81.1528
-59.5427
-35.0521
-8.3649
19.4431
46.8921
72.1027
92.9423
107.447
113.595
108.769
92.2843
57.3977
20.889
-330.657
-355.128
-387.369
-426.754
-463.422
-492.379
-515.456
-534.555
-551.156
-568.267
-587.102
-605.246
-618.505
-623.645
-622.457
-617.036
-606.542
-594.559
-584.88
-580.532
-581.94
-586.712
-597.578
-625.682
-672.504
-723.182
-768.146
-803.71
-838.809
-853.549
-864.573
-873.287
-877.515
-894.536
-920.492
-937.236
-957.797
-977.275
-993.985
-1007.83
-1017.31
-1021.94
-1021.76
-1016.64
-1006.59
-991.437
-971.582
-948
-921.107
-890.745
-855.008
-813.178
-766.336
-714.738
-659.016
-600.785
-543.063
-496.304
-470.213
-445.61
-395.301
-354.161
-321.167
-292.869
-268.181
-246.153
-227.494
-211.722
-199.334
-190.364
-183.926
-178.897
-175.176
-172.702
-170.926
-169.342
-167.654
-165.535
-162.681
-158.853
-153.848
-147.658
-140.464
-131.751
-120.609
-106.506
-89.2147
-68.6936
-45.2373
-19.5217
7.37849
33.9818
58.4294
78.6727
92.8227
98.8927
94.6896
79.0429
45.89
15.659
-329.998
-354.675
-387.231
-427.044
-463.768
-492.736
-515.889
-534.961
-551.442
-568.603
-587.719
-606.228
-619.788
-625.1
-623.913
-618.438
-607.702
-595.416
-585.49
-581.132
-582.976
-588.167
-599.583
-626.696
-672.575
-723.797
-769.327
-804.608
-841.652
-853.98
-863.834
-873.695
-878.803
-893.737
-920.475
-937.205
-958.617
-978.548
-995.814
-1010.17
-1020.14
-1025.14
-1025.23
-1020.28
-1010.37
-995.315
-975.491
-952.016
-925.302
-895.249
-859.957
-818.331
-771.597
-719.915
-663.851
-605.028
-546.479
-496.641
-471.477
-448.888
-393.3
-349.383
-315.298
-286.451
-261.999
-240.257
-221.901
-206.654
-194.818
-186.331
-180.545
-176.306
-173.125
-171.143
-169.969
-168.989
-167.898
-166.383
-164.146
-160.955
-156.612
-151.073
-144.518
-136.826
-126.852
-113.981
-97.9177
-78.5823
-56.2379
-31.5452
-5.5715
20.2062
43.9537
63.7029
77.6356
83.8258
80.4362
65.8639
34.6198
10.8687
-329.135
-354.237
-387.29
-427.554
-464.188
-493.12
-516.351
-535.397
-551.752
-568.98
-588.397
-607.28
-621.157
-626.666
-625.516
-620.01
-609.014
-596.38
-586.163
-581.736
-583.946
-589.417
-601.256
-627.3
-672.303
-724.304
-770.497
-805.274
-843.802
-854.896
-863.669
-874.084
-879.625
-893.068
-919.911
-937.409
-959.676
-980.055
-997.856
-1012.73
-1023.22
-1028.61
-1028.98
-1024.21
-1014.44
-999.494
-979.696
-956.311
-929.768
-900.014
-865.225
-823.819
-777.208
-725.453
-669.037
-609.608
-550.188
-497.744
-472.951
-450.825
-390.75
-343.905
-309.102
-279.48
-255.249
-233.861
-215.84
-201.158
-189.932
-181.994
-176.84
-173.439
-170.935
-169.474
-168.926
-168.609
-168.168
-167.308
-165.738
-163.243
-159.631
-154.804
-148.918
-142.25
-133.528
-122.018
-107.298
-89.2534
-68.1035
-44.486
-19.4549
5.52274
28.6417
48.0123
61.8832
68.4031
66.0349
52.7729
23.6619
6.47643
-327.993
-353.713
-387.381
-428.215
-464.682
-493.53
-516.84
-535.861
-552.086
-569.399
-589.127
-608.384
-622.594
-628.324
-627.256
-621.754
-610.481
-597.459
-586.895
-582.339
-584.865
-590.443
-602.559
-627.56
-671.69
-724.716
-771.652
-805.586
-843.801
-855.415
-863.984
-874.253
-879.299
-892.509
-918.908
-937.835
-960.979
-981.836
-1000.14
-1015.54
-1026.58
-1032.35
-1033.03
-1028.45
-1018.82
-1003.99
-984.212
-960.883
-934.508
-905.043
-870.787
-829.655
-783.177
-731.36
-674.586
-614.561
-554.377
-500.63
-474.322
-450.608
-387.296
-337.629
-302.452
-271.945
-247.927
-226.978
-209.336
-195.251
-184.68
-177.354
-172.84
-170.279
-168.58
-167.708
-167.797
-168.198
-168.466
-168.318
-167.471
-165.728
-162.915
-158.881
-153.741
-148.016
-140.657
-130.645
-117.4
-100.76
-80.8943
-58.4069
-34.3332
-10.1253
12.4456
31.5662
45.5468
52.6172
51.4952
39.7811
13.0442
2.45746
-326.646
-353.063
-387.452
-428.936
-465.217
-493.959
-517.354
-536.351
-552.447
-569.858
-589.896
-609.52
-624.075
-630.049
-629.122
-623.67
-612.107
-598.662
-587.696
-582.945
-585.7
-591.228
-603.46
-627.525
-670.705
-725.012
-772.733
-805.717
-842.803
-855.545
-864.259
-874.114
-878.31
-892.286
-918.081
-938.497
-962.52
-983.895
-1002.7
-1018.65
-1030.24
-1036.38
-1037.39
-1033.01
-1023.52
-1008.81
-989.062
-965.726
-939.519
-910.344
-876.635
-835.847
-789.514
-737.642
-680.506
-619.894
-559.095
-504.758
-474.978
-446.886
-382.972
-330.62
-295.203
-264.013
-240.044
-219.631
-202.418
-188.948
-179.06
-172.406
-168.565
-166.831
-166.03
-165.849
-166.594
-167.756
-168.798
-169.422
-169.356
-168.427
-166.481
-163.34
-159.047
-154.168
-148.288
-139.898
-128.273
-113.166
-94.6814
-73.383
-50.2813
-26.8081
-4.69571
14.3165
28.5929
36.4466
36.8114
26.8878
2.7752
-1.20246
-325.363
-352.458
-387.662
-429.645
-465.75
-494.393
-517.887
-536.866
-552.833
-570.353
-590.692
-610.669
-625.582
-631.823
-631.1
-625.754
-613.896
-599.99
-588.574
-583.577
-586.42
-591.785
-603.955
-627.211
-669.328
-725.048
-773.63
-805.827
-841.468
-855.068
-863.984
-873.667
-877.202
-892.515
-917.892
-939.39
-964.298
-986.217
-1005.56
-1022.1
-1034.28
-1040.75
-1042.05
-1037.88
-1028.56
-1013.97
-994.276
-970.84
-944.793
-915.916
-882.768
-842.404
-796.23
-744.305
-686.791
-625.556
-564.087
-508.967
-474.54
-440.028
-378.388
-323.048
-287.243
-255.758
-231.66
-211.836
-195.106
-182.258
-173.078
-167.146
-164.03
-163.117
-163.262
-163.892
-165.329
-167.286
-169.168
-170.63
-171.413
-171.362
-170.354
-168.214
-164.887
-160.848
-156.448
-149.803
-139.978
-126.544
-109.547
-89.5015
-67.3867
-44.6087
-22.8563
-3.7983
10.9745
19.8581
21.9653
14.0821
-7.1476
-4.50854
-324.257
-352.122
-388.043
-430.312
-466.27
-494.827
-518.439
-537.405
-553.244
-570.877
-591.504
-611.818
-627.101
-633.626
-633.173
-627.996
-615.848
-601.434
-589.551
-584.273
-587.047
-592.184
-604.088
-626.64
-667.67
-724.568
-774.205
-805.821
-839.615
-853.977
-863.196
-872.929
-876.067
-892.901
-918.172
-940.451
-966.282
-988.806
-1008.78
-1025.96
-1038.74
-1045.49
-1047.03
-1043.08
-1033.95
-1019.51
-999.881
-976.279
-950.329
-921.748
-889.173
-849.337
-803.338
-751.357
-693.437
-631.482
-569.099
-512.702
-473.647
-432.545
-374.012
-315.124
-278.528
-247.118
-222.836
-203.603
-187.418
-175.19
-166.74
-161.576
-159.24
-159.162
-160.271
-161.821
-164.016
-166.797
-169.583
-171.957
-173.659
-174.558
-174.562
-173.524
-171.307
-168.23
-165.134
-160.404
-152.577
-140.974
-125.584
-106.861
-85.7487
-63.6223
-42.122
-22.8515
-7.36663
2.80852
6.92942
1.3466
-16.7279
-7.45841
-323.294
-352.126
-388.597
-430.961
-466.773
-495.256
-519.011
-537.968
-553.677
-571.423
-592.322
-612.958
-628.624
-635.448
-635.326
-630.38
-617.962
-602.993
-590.647
-585.018
-587.585
-592.492
-603.934
-625.843
-665.829
-723.33
-774.198
-805.53
-837.752
-852.828
-862.067
-872.008
-875.044
-893.288
-918.566
-941.632
-968.394
-991.656
-1012.44
-1030.3
-1043.69
-1050.69
-1052.38
-1048.59
-1039.69
-1025.43
-1005.9
-982.137
-956.13
-927.822
-895.828
-856.657
-810.848
-758.809
-700.442
-637.63
-573.995
-515.718
-472.005
-425.551
-369.81
-306.969
-269.071
-238.007
-213.618
-194.945
-179.365
-167.759
-160.056
-155.7
-154.197
-154.988
-157.066
-159.622
-162.668
-166.305
-170.051
-173.416
-176.119
-178.046
-179.143
-179.303
-178.353
-176.427
-174.442
-171.797
-166.144
-156.548
-142.892
-125.569
-105.477
-83.9542
-62.5893
-42.9269
-26.4987
-14.7529
-8.33147
-11.3396
-25.9662
-10.0441
-322.328
-352.391
-389.325
-431.605
-467.258
-495.681
-519.606
-538.557
-554.13
-571.982
-593.136
-614.08
-630.146
-637.289
-637.56
-632.901
-620.24
-604.674
-591.876
-585.79
-588.06
-592.756
-603.567
-624.862
-663.827
-721.288
-773.307
-804.778
-836.041
-851.681
-860.815
-871.014
-874.314
-893.844
-918.97
-942.911
-970.592
-994.761
-1016.56
-1035.2
-1049.2
-1056.42
-1058.15
-1054.43
-1045.78
-1031.75
-1012.35
-988.49
-962.204
-934.116
-902.719
-864.391
-818.767
-766.675
-707.813
-643.98
-578.727
-517.967
-469.389
-419.257
-365.196
-298.548
-258.924
-228.345
-204.037
-185.874
-170.954
-159.979
-153.042
-149.531
-148.905
-150.609
-153.67
-157.29
-161.287
-165.832
-170.589
-175.025
-178.817
-181.862
-184.142
-185.598
-186.069
-185.513
-184.653
-184.044
-180.734
-173.363
-161.581
-145.741
-126.688
-105.718
-84.3626
-64.1163
-46.4968
-32.8827
-23.8576
-23.9986
-34.8557
-12.2542
-321.272
-352.488
-390.119
-432.241
-467.725
-496.104
-520.232
-539.176
-554.6
-572.538
-593.932
-615.174
-631.668
-639.164
-639.903
-635.577
-622.696
-606.499
-593.242
-586.599
-588.507
-592.985
-603.033
-623.73
-661.712
-718.571
-771.387
-803.491
-834.559
-850.195
-859.664
-870.049
-873.953
-894.514
-919.535
-944.302
-972.887
-998.131
-1021.16
-1040.71
-1055.34
-1062.75
-1064.43
-1060.63
-1052.23
-1038.51
-1019.28
-995.373
-968.65
-940.631
-909.844
-872.545
-827.109
-774.967
-715.559
-650.53
-583.307
-519.513
-465.829
-413.302
-359.506
-289.722
-248.156
-218.087
-194.094
-176.414
-162.192
-151.871
-145.715
-143.08
-143.37
-146.035
-150.104
-154.826
-159.877
-165.401
-171.217
-176.805
-181.781
-186.04
-189.603
-192.459
-194.494
-195.545
-196.048
-197.164
-196.432
-191.522
-181.763
-167.494
-149.5
-129.028
-107.549
-86.5154
-67.4397
-51.6404
-39.6921
-36.6503
-43.3802
-14.0759
-319.865
-351.977
-390.888
-432.864
-468.178
-496.529
-520.893
-539.825
-555.077
-573.07
-594.688
-616.234
-633.195
-641.103
-642.392
-638.442
-625.349
-608.492
-594.745
-587.464
-588.931
-593.165
-602.371
-622.467
-659.533
-715.361
-768.517
-801.673
-833.616
-848.409
-858.847
-869.246
-873.942
-894.998
-920.32
-945.845
-975.347
-1001.8
-1026.23
-1046.86
-1062.17
-1069.78
-1071.32
-1067.26
-1059.02
-1045.7
-1026.71
-1002.81
-975.664
-947.39
-917.194
-881.042
-835.909
-783.698
-723.696
-657.301
-587.792
-520.472
-461.2
-406.903
-352.367
-280.335
-236.832
-207.229
-183.773
-166.589
-153.086
-143.452
-138.093
-136.361
-137.6
-141.27
-146.388
-152.246
-158.439
-165.035
-171.967
-178.78
-185.04
-190.62
-195.578
-199.955
-203.689
-206.585
-208.762
-211.352
-213.396
-211.126
-203.546
-190.937
-174.024
-153.992
-132.252
-110.217
-89.4048
-71.0849
-55.8781
-49.311
-51.5117
-15.497
-318.377
-351.364
-391.608
-433.463
-468.617
-496.955
-521.593
-540.498
-555.542
-573.555
-595.387
-617.261
-634.745
-643.14
-645.051
-641.526
-628.219
-610.678
-596.389
-588.381
-589.302
-593.245
-601.609
-621.101
-657.339
-711.859
-764.99
-799.37
-833.34
-846.598
-858.408
-868.676
-874.281
-895.251
-921.279
-947.466
-978.016
-1005.91
-1031.85
-1053.68
-1069.75
-1077.57
-1078.94
-1074.43
-1066.18
-1053.33
-1034.67
-1010.83
-983.374
-954.488
-924.747
-889.799
-845.2
-792.894
-732.244
-664.329
-592.273
-521.023
-455.651
-399.831
-343.564
-270.221
-225.019
-195.816
-173.055
-156.415
-143.645
-134.738
-130.193
-129.387
-131.604
-136.318
-142.534
-149.565
-156.98
-164.754
-172.872
-180.98
-188.626
-195.643
-202.119
-208.153
-213.734
-218.686
-222.859
-227.029
-231.715
-232.241
-227.02
-216.154
-200.343
-180.693
-158.551
-135.297
-112.458
-91.2684
-72.455
-61.9907
-59.2086
-16.5092
-317.169
-351.086
-392.239
-434.034
-469.043
-497.384
-522.331
-541.182
-555.971
-573.986
-596.031
-618.275
-636.344
-645.295
-647.884
-644.841
-631.322
-613.077
-598.178
-589.354
-589.573
-593.102
-600.731
-619.663
-655.171
-708.214
-761.134
-796.822
-833.709
-845.198
-858.091
-868.221
-874.957
-895.635
-922.446
-949.086
-980.858
-1010.53
-1038.09
-1061.24
-1078.11
-1086.21
-1087.36
-1082.26
-1073.75
-1061.38
-1043.21
-1019.47
-991.803
-962.151
-932.514
-898.792
-855.01
-802.598
-741.227
-671.666
-596.872
-521.439
-449.843
-391.924
-332.735
-259.253
-212.818
-183.941
-161.935
-145.894
-133.877
-125.737
-122.028
-122.169
-125.39
-131.183
-138.545
-146.801
-155.51
-164.575
-173.967
-183.442
-192.573
-201.147
-209.279
-217.121
-224.709
-231.906
-238.389
-244.517
-251.401
-254.936
-252.232
-243.186
-228.487
-209.162
-186.48
-161.792
-136.638
-112.225
-89.4528
-74.691
-66.4138
-17.1108
-316.289
-350.964
-392.784
-434.588
-469.454
-497.815
-523.104
-541.86
-556.349
-574.364
-596.638
-619.302
-638.003
-647.562
-650.876
-648.378
-634.66
-615.702
-600.12
-590.417
-589.758
-592.699
-599.761
-618.227
-653.056
-704.515
-757.168
-794.33
-834.684
-844.367
-857.609
-867.814
-875.874
-896.663
-923.852
-950.674
-983.837
-1015.61
-1044.99
-1069.51
-1087.27
-1095.76
-1096.71
-1090.94
-1081.84
-1069.84
-1052.33
-1028.78
-1000.95
-970.604
-940.507
-908.015
-865.394
-812.851
-750.677
-679.368
-601.72
-522.072
-444.769
-383.069
-319.844
-247.489
-200.403
-171.742
-150.425
-135.02
-123.786
-116.455
-113.612
-114.719
-118.967
-125.869
-134.426
-143.965
-154.042
-164.511
-175.286
-186.202
-196.915
-207.175
-217.107
-226.923
-236.7
-246.334
-255.418
-263.89
-272.654
-279.313
-279.172
-271.989
-258.395
-239.331
-215.98
-189.664
-161.923
-133.953
-106.881
-87.4012
-73.0529
-17.3111
-315.6
-350.984
-393.273
-435.124
-469.843
-498.245
-523.905
-542.517
-556.672
-574.699
-597.228
-620.357
-639.72
-649.924
-654.019
-652.128
-638.225
-618.556
-602.213
-591.559
-589.881
-592.092
-598.714
-616.851
-650.962
-700.798
-753.215
-792.14
-836.161
-843.861
-857.007
-867.559
-876.954
-898.481
-925.459
-952.262
-986.979
-1021.04
-1052.42
-1078.42
-1097.21
-1106.24
-1107.06
-1100.6
-1090.62
-1078.72
-1062.04
-1038.8
-1010.87
-979.968
-948.859
-917.417
-876.438
-823.691
-760.63
-687.49
-606.926
-523.179
-440.744
-373.223
-305.381
-235.304
-188.014
-159.377
-138.556
-123.784
-113.37
-106.892
-104.955
-107.046
-112.34
-120.377
-130.173
-141.062
-152.585
-164.571
-176.853
-189.3
-201.691
-213.766
-225.652
-237.617
-249.779
-262.047
-273.971
-285.091
-295.804
-305.395
-307.712
-302.395
-289.863
-270.989
-246.852
-218.743
-188.191
-156.377
-124.709
-100.092
-79.0323
-17.1355
-315.015
-351.128
-393.718
-435.638
-470.201
-498.668
-524.724
-543.139
-556.94
-574.987
-597.811
-621.445
-641.485
-652.373
-657.325
-656.096
-642.024
-621.641
-604.453
-592.759
-589.922
-591.273
-597.47
-615.491
-648.819
-697.064
-749.273
-790.253
-837.868
-843.542
-856.441
-867.585
-878.354
-900.906
-927.118
-953.924
-990.32
-1026.7
-1060.23
-1087.9
-1107.94
-1117.69
-1118.51
-1111.39
-1100.29
-1088.08
-1072.31
-1049.57
-1021.59
-990.294
-957.952
-926.98
-888.055
-835.176
-771.131
-696.074
-612.543
-524.798
-437.457
-362.494
-290.139
-223.354
-175.904
-147.007
-126.379
-112.179
-102.624
-97.0488
-96.062
-99.1576
-105.514
-114.71
-125.784
-138.09
-151.148
-164.761
-178.685
-192.769
-206.936
-220.961
-234.961
-249.256
-264.003
-279.103
-294.041
-308.008
-320.937
-332.948
-337.595
-334.079
-322.523
-303.738
-278.702
-248.674
-215.157
-179.305
-142.832
-112.7
-84.2416
-16.6333
-314.329
-351.344
-394.128
-436.13
-470.522
-499.079
-525.539
-543.714
-557.155
-575.229
-598.397
-622.573
-643.293
-654.909
-660.819
-660.301
-646.07
-624.962
-606.834
-593.998
-589.859
-590.204
-595.909
-614.061
-646.52
-693.28
-745.328
-788.319
-839.355
-843.489
-855.826
-867.977
-880.052
-903.478
-928.683
-955.719
-993.899
-1032.6
-1068.34
-1097.88
-1119.44
-1130.08
-1131.13
-1123.42
-1111.07
-1098.02
-1083.11
-1061.1
-1033.17
-1001.59
-968.118
-936.775
-900.024
-847.4
-782.225
-705.158
-618.589
-526.86
-434.681
-351.728
-275.96
-212.131
-164.287
-134.771
-113.967
-100.206
-91.5404
-86.9258
-86.9387
-91.0616
-98.492
-108.868
-121.255
-135.044
-149.727
-165.082
-180.791
-196.637
-212.688
-228.796
-245.071
-261.877
-279.404
-297.519
-315.592
-332.517
-347.844
-361.625
-368.467
-366.589
-355.872
-337.029
-310.962
-278.905
-242.337
-202.374
-161.027
-125.11
-88.5696
-15.8906
-313.258
-351.559
-394.502
-436.598
-470.805
-499.472
-526.322
-544.234
-557.332
-575.443
-599.006
-623.746
-645.14
-657.539
-664.519
-664.758
-650.379
-628.522
-609.353
-595.262
-589.693
-588.888
-594.006
-612.474
-643.931
-689.385
-741.419
-785.868
-840.108
-844.008
-855.036
-868.588
-881.668
-905.424
-930.054
-957.668
-997.782
-1038.79
-1076.69
-1108.33
-1131.68
-1143.42
-1145
-1136.8
-1123.15
-1108.74
-1094.41
-1073.43
-1045.67
-1013.9
-979.508
-946.973
-912.274
-860.462
-793.967
-714.768
-625.066
-529.288
-432.328
-342.02
-264.508
-201.523
-153.404
-122.808
-101.382
-87.8806
-80.1166
-76.5271
-77.5888
-82.7638
-91.2756
-102.852
-116.582
-131.915
-148.317
-165.531
-183.172
-200.926
-218.976
-237.303
-256.012
-275.505
-295.992
-317.267
-338.516
-358.376
-376.056
-391.177
-399.939
-399.473
-389.406
-370.298
-343.01
-308.781
-269.096
-225.05
-178.916
-137.125
-91.9576
-15.0516
-311.851
-351.724
-394.831
-437.045
-471.043
-499.841
-527.056
-544.688
-557.493
-575.66
-599.66
-624.967
-647.023
-660.269
-668.435
-669.475
-654.964
-632.325
-612.011
-596.544
-589.431
-587.346
-591.79
-610.648
-640.958
-685.326
-737.519
-782.729
-838.679
-845.779
-854.121
-869.048
-882.9
-906.29
-931.225
-959.763
-1001.99
-1045.22
-1085.18
-1119.24
-1144.61
-1157.69
-1160.15
-1151.6
-1136.64
-1120.5
-1106.22
-1086.53
-1059.15
-1027.28
-992.227
-958.025
-924.872
-874.444
-806.422
-724.926
-631.985
-532.058
-430.331
-333.919
-255.126
-191.508
-143.339
-111.22
-88.7423
-75.2165
-68.356
-65.8631
-68.0165
-74.2697
-83.8667
-96.6588
-111.76
-128.693
-146.907
-166.099
-185.823
-205.645
-225.825
-246.505
-267.806
-290.149
-313.748
-338.262
-362.631
-385.239
-404.985
-421.276
-431.752
-432.464
-422.849
-403.215
-374.427
-337.772
-294.826
-246.734
-196.002
-148.472
-94.5164
-14.3465
-310.213
-351.811
-395.098
-437.465
-471.223
-500.155
-527.749
-545.072
-557.628
-575.882
-600.358
-626.229
-648.939
-663.113
-672.577
-674.464
-659.838
-636.374
-614.805
-597.841
-589.084
-585.597
-589.306
-608.494
-637.424
-680.989
-733.563
-779.503
-833.745
-848.996
-853.269
-869.12
-883.571
-906.195
-932.276
-961.979
-1006.44
-1051.75
-1093.78
-1130.51
-1158.09
-1172.85
-1176.6
-1167.9
-1151.64
-1133.57
-1118.63
-1100.37
-1073.63
-1041.78
-1006.3
-970.48
-937.977
-889.476
-819.665
-735.64
-639.365
-535.204
-428.741
-327.48
-246.175
-182.351
-133.999
-100.131
-76.1396
-62.2323
-56.28
-54.9514
-58.2277
-65.586
-76.2669
-90.2876
-106.783
-125.368
-145.483
-166.776
-188.734
-210.797
-233.251
-256.421
-280.461
-305.803
-332.625
-360.384
-387.723
-412.803
-434.246
-451.627
-463.941
-465.633
-456.327
-435.886
-405.227
-365.741
-319.216
-267
-211.821
-158.872
-96.6951