/*--------------------------------*- C++ -*----------------------------------*\
| =========                 |                                                 |
| \\      /  F ield         | OpenFOAM: The Open Source CFD Toolbox           |
|  \\    /   O peration     | Version:  4.1                                   |
|   \\  /    A nd           | Web:      www.OpenFOAM.org                      |
|    \\/     M anipulation  |                                                 |
\*---------------------------------------------------------------------------*/
FoamFile
{
    version     2.0;
    format      ascii;
    class       surfaceScalarField;
    location    "300";
    object      phi;
}
// * * * * * * * * * * * * * * * * * * * * * * * * * * * * * * * * * * * * * //

dimensions      [0 3 -1 0 0 0 0];

internalField   nonuniform List<scalar> 
52920
(
2104.24
-75.0097
2204.85
-100.593
2293.93
-89.0626
2380.62
-86.654
2461.84
-81.1786
2520.11
-58.2331
2557.86
-37.7141
2590.41
-32.5254
2633.54
-43.0928
2690.72
-57.1432
2751.9
-61.1428
2802.2
-50.2659
2827.53
-25.3032
2829.13
-1.56501
2794.71
34.448
2707.45
87.2872
2559.39
148.092
2355.87
203.553
2114.08
241.822
1813.61
300.508
1301.81
511.837
146.94
1154.92
-1459.98
1606.95
-2885.67
1425.72
-3570.2
684.554
-3677.06
106.892
-3738.97
61.9336
-3830.2
91.2568
-3902.98
72.8046
-3945.96
43.0062
-3888.59
-57.3445
-3773.48
-115.087
-3710.31
-63.1418
-3720.46
10.1703
-3796.64
76.2057
-3945.36
148.741
-4121.23
175.89
-4271.04
149.834
-4389.41
118.391
-4509.28
119.898
-4642.03
132.773
-4792.45
150.442
-4958.18
165.751
-5130.21
172.052
-5300.38
170.194
-5461.25
160.894
-5607.45
146.24
-5737.9
130.465
-5846.25
108.384
-5914.28
68.0306
-5916.8
2.54724
-5844.19
-72.6047
-5703
-141.162
-5502.73
-200.275
-5254.95
-247.757
-4981.99
-272.965
-4737.59
-244.376
-4709.65
-27.9369
-4862.52
152.893
-4995.63
133.106
-5182.39
186.779
-5579.86
397.462
-6167.06
587.212
-6815.78
648.712
-7422.39
606.615
-7914.16
491.77
-8247.47
333.317
-8452.83
205.355
-8619.28
166.448
-8810.1
190.82
-9028.45
218.351
-9254.9
226.448
-9485.14
230.241
-9722.63
237.486
-9961.82
239.19
-10192.9
231.109
-10406.4
213.425
-10591.9
185.525
-10738.8
146.876
-10837
98.2098
-10879.5
42.5343
-10862.4
-17.1095
-10781.8
-80.5467
-10633.3
-148.525
-10411.5
-221.858
-10107.8
-303.627
-9707.4
-400.435
-9188.8
-518.609
-8532.1
-656.698
-7730.78
-801.33
-6800.52
-930.262
-5773.38
-1027.14
-4625.55
-1147.84
-3215.66
-1409.89
-1416.06
-1799.6
817.433
-2233.5
3424.75
-2607.32
6390.66
-2965.9
9793.96
-3403.31
-5547.34
2049.46
-121.119
2116.87
-167.988
2168.22
-140.384
2216.2
-134.604
2269.73
-134.666
2309.3
-97.7675
2329.18
-57.5539
2340.59
-43.8979
2359.38
-61.8462
2392.32
-90.0378
2435.01
-103.802
2477.43
-92.6427
2506.55
-54.3841
2522.29
-17.2771
2508.62
48.1502
2447.59
148.358
2327.68
268.024
2148.99
382.286
1925.99
464.847
1636.51
590.033
1142.81
1005.57
165.177
2132.58
-1193.12
2965.28
-2509.96
2742.58
-3381.35
1555.97
-3628.79
354.36
-3692.09
125.258
-3781.95
181.153
-3863.88
154.755
-3902.08
81.2449
-3843.9
-115.503
-3725.04
-233.921
-3646.29
-141.867
-3647.74
11.6443
-3725.88
154.372
-3871.15
294.032
-4042.85
347.612
-4201.19
308.194
-4336.73
253.951
-4471.37
254.57
-4614.59
276.014
-4772.99
308.866
-4945.68
338.471
-5123.05
349.442
-5293.48
340.646
-5445.96
313.396
-5574.1
274.426
-5680.1
236.468
-5760.44
188.758
-5797.63
105.228
-5768.51
-26.5471
-5667.91
-173.203
-5504.45
-304.598
-5285.9
-418.826
-5023.89
-509.752
-4748
-548.856
-4519.79
-472.559
-4487.12
-60.6011
-4612.44
278.231
-4707.26
227.923
-4816.79
296.323
-5108.75
689.427
-5617.06
1095.53
-6255.68
1287.33
-6934.63
1285.57
-7563.7
1120.84
-8041.14
810.76
-8328.52
492.728
-8497.71
335.647
-8661.66
354.761
-8869.73
426.432
-9096.38
453.09
-9319.06
452.92
-9542.59
461.018
-9765.71
462.309
-9978.08
443.482
-10170.6
405.896
-10335.6
350.545
-10466.7
277.959
-10558.8
190.342
-10608.8
92.59
-10613.1
-12.9044
-10562.9
-130.701
-10445.2
-266.246
-10244.9
-422.113
-9948.77
-599.787
-9546.48
-802.726
-9031.45
-1033.64
-8397.64
-1290.51
-7633.8
-1565.18
-6720.5
-1843.56
-5633.53
-2114.12
-4351.27
-2430.1
-2848.52
-2912.64
-1080.55
-3567.58
944.717
-4258.77
3378.99
-5041.59
6072.52
-5659.44
9491.35
-6822.13
-10339.4
2011.76
-152.973
2067.05
-223.256
2098.21
-171.525
2115.63
-151.988
2142.16
-161.143
2159.66
-115.241
2156.7
-54.5522
2143.4
-30.5606
2138.75
-57.1506
2154.48
-105.737
2189.08
-138.354
2229.24
-132.771
2256.48
-81.5854
2269.44
-30.2104
2251.37
66.2607
2190.48
209.286
2080.09
378.437
1916.67
545.745
1709.79
671.761
1435.83
864.027
1003.4
1438.03
296.625
2839.38
-655.23
3917.15
-1800.1
3887.47
-2907.51
2663.4
-3482.25
929.129
-3660.87
303.893
-3762
282.311
-3843.98
236.756
-3867.8
105.094
-3804.35
-178.928
-3687.16
-351.084
-3595.81
-233.2
-3581.77
-2.36542
-3652.64
225.267
-3788.55
429.957
-3954.73
513.812
-4123.46
476.952
-4277.77
408.28
-4426.94
403.763
-4576.66
425.765
-4733.05
465.274
-4896.05
501.493
-5057.7
511.12
-5209.18
492.139
-5344.62
448.868
-5462.31
392.151
-5563.75
337.919
-5637.98
263.023
-5663.5
130.757
-5621.81
-68.2118
-5515.81
-279.197
-5353.57
-466.807
-5137.47
-634.926
-4877.79
-769.412
-4609.28
-817.373
-4393.11
-688.711
-4358.26
-95.4446
-4462.71
382.696
-4510.3
275.518
-4513.24
299.277
-4649.82
825.998
-5016.59
1462.32
-5568.35
1839.08
-6247.37
1964.6
-6991.01
1864.48
-7666.66
1486.41
-8131.98
958.044
-8367.35
571.023
-8509.07
496.477
-8694.93
612.293
-8925.49
683.645
-9151.75
679.18
-9370.29
679.554
-9586.91
678.936
-9793.17
649.74
-9979.61
592.335
-10139.7
510.658
-10268.7
406.95
-10362.7
284.32
-10418.4
148.323
-10431.6
0.300899
-10394
-168.348
-10292.6
-367.676
-10111.8
-602.91
-9837.31
-874.239
-9456.86
-1183.18
-8960.52
-1529.98
-8339.5
-1911.54
-7582.82
-2321.85
-6674.04
-2752.35
-5589.53
-3198.62
-4311.21
-3708.42
-2835.72
-4388.14
-1143.19
-5260.1
783.118
-6185.08
3069.57
-7328.04
5618.91
-8208.79
8898.71
-10101.9
-14343.4
1983.56
-180.464
2041.5
-281.178
2066.65
-196.645
2058.92
-144.223
2057.59
-159.757
2053.39
-111.007
2032.95
-34.0714
2007.05
-4.61943
1997.65
-47.7055
2017.45
-125.488
2060.22
-181.09
2103.67
-176.182
2123.92
-101.796
2120.37
-26.617
2077.62
109.043
1993.62
293.325
1871.46
500.629
1707.7
709.544
1506.6
872.893
1244.81
1125.85
875.953
1806.91
377.205
3338.15
-281.06
4575.44
-1191.13
4797.55
-2331.23
3803.52
-3203.62
1801.54
-3594.19
694.484
-3758.98
447.135
-3846.99
324.79
-3842.86
100.997
-3757.87
-263.896
-3642.34
-466.587
-3556.2
-319.31
-3539.06
-19.4861
-3597.34
283.574
-3715.17
547.804
-3870.49
669.16
-4045.95
652.426
-4215.18
577.537
-4374.91
563.516
-4527.01
577.889
-4676.95
615.237
-4827.88
652.453
-4977.14
660.403
-5120.04
635.053
-5253.15
582.011
-5373.06
512.101
-5474.19
439.059
-5538.77
327.63
-5549.43
141.425
-5497.18
-120.436
-5389.85
-386.526
-5229.44
-627.195
-5013.44
-850.922
-4754.16
-1028.68
-4495.54
-1076
-4300.6
-883.624
-4292.55
-103.495
-4414.08
504.244
-4446.69
308.125
-4365.86
218.468
-4349.22
809.365
-4551.96
1665.06
-4962.71
2249.83
-5550.65
2552.55
-6309.95
2623.77
-7142.78
2319.24
-7835.8
1651.07
-8220.65
955.876
-8376.34
652.165
-8529.92
765.87
-8755.58
909.306
-8990.6
914.199
-9210.28
899.233
-9423.84
892.497
-9627.75
853.648
-9812.59
777.179
-9971.88
669.949
-10101.9
536.938
-10199.5
381.991
-10261.6
210.367
-10283.3
22.0073
-10256.1
-195.564
-10167.4
-456.327
-10002.1
-768.22
-9746.11
-1130.25
-9386.52
-1542.77
-8911.94
-2004.56
-8311.86
-2511.62
-7575.29
-3058.43
-6688.27
-3639.36
-5631.31
-4255.59
-4390.18
-4949.56
-2969.1
-5809.22
-1365.46
-6863.74
452.984
-8003.52
2574.24
-9449.3
4994.36
-10628.9
8004.2
-13111.8
-17590.8
1956.32
-207.505
2022.52
-347.363
2051.79
-225.886
2023.6
-116.005
1993.88
-129.985
1971.34
-88.4227
1943.41
-6.09678
1919.32
19.5054
1918.93
-47.2744
1950.11
-156.627
2000.94
-231.886
2044.77
-219.977
2057.34
-114.328
2036.67
-5.91259
1966.44
179.312
1853.2
406.599
1708.13
645.73
1531.6
886.11
1325.87
1078.66
1072.99
1378.76
758.764
2121.16
396.899
3700.04
-136.534
5108.89
-879.381
5540.42
-1863.42
4787.56
-2857.25
2795.39
-3466.05
1303.3
-3752.98
734.093
-3894.78
466.608
-3897.26
103.5
-3792.27
-368.86
-3638.64
-620.192
-3512.48
-445.456
-3493.81
-38.1267
-3563.9
353.687
-3664.52
648.447
-3796.45
801.113
-3968.9
824.895
-4148.62
757.285
-4315.51
730.423
-4467.28
729.689
-4611.59
759.568
-4755.72
796.611
-4902.54
807.237
-5047.79
780.33
-5183.22
717.466
-5301.09
630.007
-5393.63
531.618
-5445.07
379.098
-5446.17
142.534
-5392.02
-174.561
-5288.23
-490.307
-5130.63
-784.768
-4913.7
-1067.86
-4649.22
-1293.13
-4390.84
-1334.39
-4216.73
-1057.72
-4250.43
-69.7917
-4417.31
671.136
-4479.18
369.996
-4362.54
101.843
-4222.92
669.737
-4269.53
1711.67
-4525.73
2506.04
-4967.9
2994.73
-5640.62
3296.48
-6528.82
3207.44
-7425.41
2547.66
-8022.67
1553.13
-8254.48
883.971
-8381.83
893.223
-8587.65
1115.12
-8830.01
1156.56
-9057.02
1126.24
-9271.51
1106.99
-9476.17
1058.3
-9663.31
964.328
-9825.91
832.544
-9960.44
671.466
-10064.3
485.9
-10134.1
280.097
-10164.9
52.7819
-10148.4
-211.991
-10073.2
-531.588
-9924.25
-917.138
-9687.77
-1366.74
-9350.53
-1880
-8900.34
-2454.76
-8325.93
-3086.03
-7616.6
-3767.77
-6760.49
-4495.47
-5742.92
-5273.16
-4554.75
-6137.72
-3203.44
-7160.54
-1695.04
-8372.14
9.32548
-9707.89
1963.77
-11403.7
4226.87
-12892
6876.33
-15761.2
-20146.2
1921.95
-236.617
1993.43
-418.828
2031.05
-263.475
1993.36
-78.288
1941.82
-78.3834
1906.23
-52.7947
1877.34
22.8492
1859.31
37.574
1866.38
-54.3003
1902.62
-192.82
1955.37
-284.595
1998.11
-262.68
2007.76
-123.944
1976.42
25.4688
1885.11
270.665
1748
543.742
1579.18
814.582
1385.12
1080.21
1171.61
1292.19
931.23
1619.18
667.279
2385.14
396.16
3971.18
-124.841
5629.91
-809.848
6225.44
-1580.26
5557.98
-2515.07
3730.23
-3226.66
2014.91
-3586.92
1094.38
-3783.33
663.046
-3839.15
159.35
-3763.9
-444.082
-3620.18
-763.884
-3488.4
-577.207
-3467.75
-58.7536
-3538.79
424.744
-3620.21
729.888
-3728.11
909.039
-3892.45
989.254
-4077.62
942.476
-4250.66
903.486
-4403.56
882.617
-4546.53
902.556
-4690.11
940.222
-4839.57
956.717
-4988.29
929.074
-5122.14
851.336
-5233.31
741.223
-5316.06
614.384
-5358.53
421.596
-5357.07
141.074
-5304.88
-226.719
-5205.19
-590.002
-5051.87
-938.065
-4836.2
-1283.53
-4563.81
-1565.51
-4291.4
-1606.8
-4125.53
-1223.57
-4196.42
1.10536
-4428.27
903.001
-4566.92
508.644
-4467.13
2.06865
-4241.48
444.087
-4149.2
1619.41
-4262.36
2619.2
-4547.98
3280.35
-5073.3
3821.79
-5908.88
4043.04
-6922.83
3561.61
-7743.93
2374.23
-8120.43
1260.47
-8251.66
1024.45
-8426.19
1289.66
-8667.81
1398.18
-8906.35
1364.78
-9126.49
1327.13
-9334.29
1266.1
-9525.92
1155.96
-9694.17
1000.79
-9835.21
812.507
-9946.88
597.571
-10025.6
358.791
-10066.8
93.9605
-10062.7
-216.039
-10002.7
-591.634
-9872.25
-1047.56
-9657.68
-1581.31
-9345.79
-2191.89
-8924.11
-2876.43
-8381.22
-3628.92
-7706.73
-4442.27
-6890.33
-5311.87
-5921.09
-6242.4
-4793.88
-7264.93
-3517.79
-8436.63
-2103.73
-9786.2
-516.784
-11294.8
1265.36
-13185.9
3331.09
-14957.7
5584.37
-18014.5
-22106.3
1897.63
-269.28
1964.01
-485.187
2001.56
-301.001
1961.49
-38.1826
1896.9
-13.7347
1852.82
-8.67732
1824.8
50.9155
1810
52.4134
1817.84
-62.0944
1852.72
-227.663
1904.14
-335.984
1946.25
-304.762
1956.85
-134.506
1919.97
62.3842
1815.22
375.452
1663.27
695.726
1476.14
1001.75
1266.79
1289.58
1049.82
1509.19
829.396
1839.64
610.925
2603.63
396.688
4185.44
-154.396
6181
-851.657
6922.71
-1447.69
6154.02
-2238.87
4521.42
-2961.04
2737.1
-3381.1
1514.45
-3655.56
937.528
-3750.95
254.767
-3653.53
-541.484
-3500.31
-917.079
-3411.05
-666.447
-3458.02
-11.7515
-3549.63
516.374
-3598.45
778.724
-3668.43
979.043
-3813.96
1134.81
-4001.7
1130.24
-4183.64
1085.44
-4342.11
1041.11
-4488.33
1048.8
-4634.86
1086.77
-4786.64
1108.52
-4934.93
1077.38
-5063.35
979.779
-5167.36
845.28
-5243.53
690.566
-5282.81
460.905
-5282.73
141.002
-5234.05
-275.373
-5139.29
-684.751
-4992.47
-1084.86
-4781.44
-1494.55
-4502.2
-1844.73
-4202.03
-1906.98
-4017.81
-1407.77
-4092.55
75.8405
-4393.84
1204.31
-4652.81
767.612
-4618.35
-32.3829
-4348.48
174.207
-4144.23
1415.17
-4140.44
2615.41
-4289.98
3429.89
-4654.23
4186.03
-5360.35
4749.15
-6379.06
4580.32
-7376.03
3371.2
-7947.15
1831.59
-8133.83
1211.13
-8278.32
1434.14
-8506.98
1626.84
-8757.13
1614.93
-8988
1558
-9201.86
1479.96
-9399.62
1353.72
-9575.26
1176.44
-9724.56
961.805
-9845.63
718.643
-9934.82
447.978
-9987.97
147.112
-9998.26
-205.748
-9955.76
-634.135
-9846.6
-1156.72
-9656.98
-1770.93
-9373.74
-2475.14
-8984.34
-3265.83
-8477.49
-4135.77
-7843.35
-5076.4
-7073.05
-6082.17
-6158.49
-7156.96
-5097.19
-8326.23
-3898.49
-9635.33
-2574.21
-11110.5
-1106.47
-12762.6
497.433
-14789.8
2334.23
-16794.5
4199.05
-19879.3
-23577.9
1873.84
-305.164
1928.62
-539.949
1956.14
-328.485
1918.74
-0.748775
1854.85
50.2209
1810.62
35.5889
1785.9
75.6923
1770.78
67.5748
1773.43
-64.7032
1802.35
-256.536
1850.31
-383.905
1891.95
-346.364
1903.88
-146.404
1863.49
102.816
1751.7
487.287
1591.95
855.507
1394.27
1199.46
1174.92
1508.96
961.137
1723.01
768.893
2031.91
589.361
2783.19
400.192
4374.63
-182.243
6763.45
-911.101
7651.58
-1401.1
6644.03
-2040.47
5160.81
-2717.07
3413.72
-3185.77
1983.18
-3574.51
1326.29
-3792.8
473.089
-3789.27
-544.984
-3637.94
-1068.39
-3437
-867.369
-3460.76
12.0346
-3590.19
645.822
-3603.12
791.682
-3626.73
1002.67
-3742.99
1251.08
-3923.78
1311.05
-4115.34
1277.02
-4285.58
1211.38
-4438.11
1201.36
-4587.96
1236.64
-4739.67
1260.26
-4883.81
1221.54
-5005.7
1101.69
-5104.45
944.075
-5177.68
763.811
-5218.46
501.712
-5221.83
144.376
-5177.42
-319.758
-5088.67
-773.5
-4949.97
-1223.54
-4746.71
-1697.82
-4464.63
-2126.79
-4128.81
-2242.81
-3894.86
-1641.71
-3923
103.982
-4279.81
1561.13
-4685.21
1173
-4762.84
45.2689
-4499.28
-89.3546
-4215.46
1131.36
-4122.48
2522.43
-4170.2
3477.62
-4389.86
4405.7
-4928.92
5288.21
-5850.05
5501.44
-6932.47
4453.63
-7710.29
2609.41
-8013.39
1514.23
-8147.73
1568.48
-8352.16
1831.27
-8608.44
1871.21
-8853.74
1803.29
-9077.21
1703.44
-9282.74
1559.25
-9467.2
1360.9
-9626.49
1121.09
-9758.83
850.99
-9860.69
549.83
-9927.92
214.343
-9954.82
-178.848
-9932.39
-656.56
-9847.53
-1241.58
-9686.16
-1932.3
-9435.16
-2726.14
-9082
-3618.99
-8615.55
-4602.22
-8026.5
-5665.46
-7307.1
-6801.56
-6451.45
-8012.62
-5459.08
-9318.6
-4339.29
-10755.1
-3104.74
-12345
-1755.59
-14111.7
-323.766
-16221.6
1271.86
-18390.2
2778.76
-21386.2
-24663.2
1845.86
-339.4
1879.26
-573.339
1888.98
-338.171
1861.62
26.6416
1816.74
95.1662
1784.45
67.9178
1764.58
95.6057
1745.16
87.0391
1738.17
-57.6691
1758.24
-276.575
1802
-427.63
1844.16
-388.497
1857.55
-159.762
1813.98
146.423
1697.81
603.495
1533.02
1020.33
1328.87
1403.63
1102.05
1735.81
895.405
1929.68
736.96
2190.38
589.214
2930.95
398.688
4565.18
-195.574
7357.72
-943.327
8399.34
-1387.79
7088.5
-1897.04
5670.08
-2488.05
4004.74
-2962.28
2457.42
-3433.97
1798
-3729.28
768.416
-3732.57
-541.672
-3567.62
-1233.31
-3351.96
-1083
-3400.15
60.2522
-3592.04
837.737
-3619.38
819.039
-3614.36
997.68
-3695.71
1332.45
-3854.64
1469.99
-4047.13
1469.54
-4232.71
1396.97
-4394.36
1363.04
-4546.68
1388.98
-4696.02
1409.62
-4834.21
1359.75
-4950.33
1217.85
-5046.77
1040.55
-5120.36
837.411
-5165.3
546.692
-5173.73
152.81
-5134.6
-358.865
-5053.13
-854.964
-4923.81
-1352.83
-4730.67
-1890.95
-4451.12
-2406.32
-4080.17
-2613.76
-3766.34
-1955.52
-3695.8
33.4392
-4091.52
1956.86
-4655.61
1737.09
-4887.89
277.557
-4682.91
-294.346
-4350.78
799.237
-4181.81
2353.46
-4155.43
3451.24
-4258.74
4509.01
-4624.11
5653.58
-5377.86
6255.19
-6442.74
5518.51
-7395.77
3562.43
-7868.25
1986.71
-8031.85
1732.08
-8208.65
2008.07
-8461.28
2123.83
-8721.77
2063.79
-8958.87
1940.53
-9174.44
1774.82
-9369.07
1555.53
-9539.89
1291.91
-9685.41
996.508
-9802.55
666.964
-9886.69
298.482
-9932.83
-132.71
-9933.16
-656.23
-9875.81
-1298.92
-9746.09
-2062.02
-9530.89
-2941.34
-9217.65
-3932.24
-8795.36
-5024.5
-8255.09
-6205.73
-7590.03
-7466.61
-6795.98
-8806.67
-5874.12
-10240.5
-4834.23
-11795
-3690.23
-13489
-2452.34
-15349.6
-1174.96
-17499
181.073
-19746.2
1371.48
-22576.6
-25449.6
1810.83
-364.371
1810.92
-573.4
1801.67
-328.889
1794.15
34.2048
1782.5
106.876
1772.34
78.1229
1758.58
109.413
1733.64
112.028
1715.89
-39.8803
1726.71
-287.35
1767.47
-468.358
1812.18
-433.172
1828.15
-175.688
1781.04
193.566
1659.71
724.868
1488.4
1191.67
1274.66
1617.4
1038.96
1971.53
840.192
2128.48
713.268
2317.34
586.612
3057.63
380.937
4770.87
-191.563
7930.24
-931.142
9138.93
-1373.81
7531.17
-1778.33
6074.62
-2257.08
4483.5
-2678.94
2879.3
-3045.89
2164.98
-2919.64
642.195
-2420.76
-1040.52
-2174.99
-1479.05
-2324.65
-933.313
-2963.75
699.373
-3561.95
1435.96
-3665.75
922.851
-3630.56
962.516
-3678.79
1380.7
-3809.44
1600.67
-3986.09
1646.21
-4180.77
1591.67
-4353.99
1536.28
-4509.26
1544.28
-4654.94
1555.33
-4787.24
1492.06
-4899.57
1330.21
-4996.38
1137.41
-5072.88
913.924
-5123.43
597.27
-5138.06
167.445
-5105.7
-391.205
-5033.13
-927.532
-4914.32
-1471.62
-4732.71
-2072.56
-4461.06
-2677.97
-4064.79
-3010.03
-3643.37
-2376.94
-3411.96
-197.965
-3817.8
2362.71
-4548.37
2467.67
-4978.84
708.036
-4876.09
-397.096
-4524.8
447.955
-4289.1
2117.76
-4206.99
3369.13
-4223.63
4525.65
-4430.53
5860.47
-4985.74
6810.4
-5943.66
6476.43
-7004.56
4623.34
-7674.43
2656.58
-7920.01
1977.65
-8079.73
2167.8
-8318.12
2362.22
-8590.46
2336.13
-8844.54
2194.61
-9073.31
2003.59
-9280.04
1762.26
-9464.37
1476.24
-9625.54
1157.68
-9761.04
802.458
-9865.23
402.678
-9933.27
-64.6681
-9959
-630.511
-9932.44
-1325.48
-9837.79
-2156.68
-9661.85
-3117.28
-9391.94
-4202.15
-9017.06
-5399.38
-8528.47
-6694.32
-7920.06
-8075.02
-7188.96
-9537.78
-6337.82
-11091.6
-5377.39
-12755.4
-4323.4
-14543
-3194.37
-16478.6
-2053.26
-18640.1
-907.663
-20891.8
22.1485
-23506.4
-26010.8
1753.06
-367.732
1716.39
-536.714
1704.55
-317.012
1731.19
7.60172
1758.47
79.656
1772.91
63.7194
1765.85
116.517
1736.69
141.222
1709.17
-12.3212
1711.92
-290.072
1751.78
-508.182
1800.4
-481.767
1818.83
-194.081
1767.8
244.629
1641.35
851.346
1460.08
1372.97
1230.42
1847.08
985.025
2216.96
793.574
2319.95
685.931
2425
562.7
3180.88
339.692
4993.9
-169.982
8439.92
-867.583
9836.54
-1337.49
8001.09
-1667.41
6404.55
-2030.12
4846.23
-2399.57
3248.76
-2744.62
2510.05
-2534.91
432.504
-2027.13
-1548.26
-1975.53
-1530.63
-2372.83
-535.977
-2975.79
1302.36
-3362.98
1823.17
-3532.17
1092.06
-3645.97
1076.33
-3689.96
1424.72
-3791.27
1701.99
-3942.26
1797.22
-4131.25
1780.68
-4313.41
1718.47
-4473.26
1704.15
-4615.93
1698.02
-4743.71
1619.86
-4854.9
1441.42
-4954.26
1236.81
-5035.49
995.17
-5092.73
654.543
-5115
189.723
-5091.47
-414.707
-5029.66
-989.335
-4922.35
-1578.91
-4752.7
-2242.2
-4492.84
-2937.81
-4088.64
-3414.24
-3545.38
-2920.18
-3072.77
-670.579
-3427.35
2717.3
-4322.47
3362.78
-4986.09
1371.66
-5037.71
-345.477
-4698.15
108.394
-4409.57
1829.18
-4285.46
3245.02
-4243.06
4483.25
-4321.45
5938.86
-4680.51
7169.46
-5470.67
7266.59
-6553.17
5705.84
-7412.84
3516.25
-7794.26
2359.07
-7964.3
2337.84
-8182.47
2580.39
-8459.7
2613.36
-8732.36
2467.28
-8978.15
2249.38
-9199.65
1983.76
-9399.57
1676.16
-9578.64
1336.75
-9735.02
958.834
-9862.21
529.868
-9956.01
29.1363
-10010.7
-575.825
-10018
-1318.16
-9961.79
-2212.9
-9828.4
-3250.67
-9604.91
-4425.63
-9280.18
-5724.11
-8845.5
-7129
-8295.21
-8625.32
-7627.47
-10205.5
-6846.28
-11872.8
-5963.74
-13638
-4998.23
-15508.5
-3975.36
-17501.5
-2956.36
-19659.1
-1979.96
-21868.2
-1235.47
-24250.9
-26418.8
1674.01
-329.791
1608.07
-470.743
1622.71
-331.612
1688.44
-58.0935
1748.31
19.8516
1783.48
28.5904
1783.29
116.752
1752.2
172.355
1717.14
22.7867
1714.29
-287.183
1754.54
-548.405
1805.57
-532.759
1823.7
-212.172
1767.6
300.759
1637.32
981.67
1445.46
1564.86
1198.75
2093.82
945.67
2470.06
757.84
2507.81
651.244
2531.63
510.717
3321.43
274.881
5229.75
-133.922
8848.73
-752.895
10455.5
-1266.21
8514.41
-1568.53
6706.89
-1850.09
5127.8
-2154.98
3553.67
-2404.65
2759.74
-2086.17
114.053
-1593.95
-2040.45
-1493.72
-1630.83
-1840.87
-188.786
-2423.25
1884.77
-2828.82
2228.76
-3240.2
1503.47
-3568.43
1404.58
-3687.13
1543.44
-3788.55
1803.43
-3917.72
1926.41
-4088.89
1951.87
-4271.83
1901.43
-4436.3
1868.65
-4578.13
1839.87
-4703.79
1745.55
-4816.68
1554.34
-4920.33
1340.5
-5007.81
1082.66
-5073.03
719.795
-5104.88
221.581
-5092.69
-426.876
-5043.48
-1038.54
-4948.4
-1673.97
-4790.32
-2400.29
-4542.95
-3185.17
-4147.44
-3809.75
-3514.09
-3553.52
-2767.14
-1417.53
-2952.82
2903
-3961.47
4371.44
-4861.33
2271.53
-5134.17
-72.6315
-4852.05
-173.718
-4522.27
1499.4
-4363.19
3085.95
-4282.37
4402.43
-4267.07
5923.57
-4455.38
7357.77
-5050.33
7861.54
-6069.69
6725.19
-7075.62
4522.18
-7632.71
2916.15
-7855.06
2560.18
-8057.04
2782.37
-8330.86
2887.18
-8620.95
2757.36
-8887.5
2515.93
-9127.29
2223.55
-9345.38
1894.26
-9544.75
1536.12
-9724.59
1138.67
-9877.93
683.208
-10001.6
152.763
-10089
-488.359
-10133.1
-1274.13
-10118.4
-2227.51
-10030.6
-3338.52
-9856.25
-4599.98
-9583.89
-5996.47
-9204.69
-7508.2
-8713.26
-9116.76
-8108.61
-10810.2
-7396.01
-12585.4
-6589.04
-14444.9
-5708.79
-16388.8
-4786.3
-18424
-3881.4
-20564
-3045.99
-22703.6
-2424.03
-24872.9
-26740.4
1560.97
-230.785
1472.73
-382.48
1534.92
-393.766
1644.73
-167.866
1740.33
-75.6986
1796.29
-27.333
1804.91
108.168
1775.18
202.123
1736.61
61.3929
1731.57
-282.107
1771.53
-588.342
1820.16
-581.366
1833.01
-224.985
1769.35
364.448
1635.59
1115.46
1436.11
1764.36
1179.51
2350.44
924.088
2725.5
734.966
2696.95
611.01
2655.61
433.813
3498.65
191.761
5471.82
-90.6951
9131.2
-598.584
10963.4
-1158.67
9074.5
-1490.43
7038.66
-1754.59
5391.97
-2009.88
3808.98
-2075.56
2825.43
-1556.51
-404.965
-1124.15
-2472.78
-1056.04
-1698.91
-1339.82
95.038
-1823.39
2368.36
-2179.7
2585.09
-2788.22
2112.01
-3352.05
1968.42
-3626.25
1817.66
-3777.27
1954.48
-3904.78
2053.94
-4055.87
2102.97
-4231.19
2076.78
-4398.38
2035.86
-4541.63
1983.14
-4667.87
1871.81
-4784.91
1671.4
-4894.25
1449.88
-4989.59
1178.01
-5064.48
794.72
-5108.15
265.257
-5109.92
-425.08
-5074.99
-1073.46
-4992.71
-1756.22
-4845.46
-2547.53
-4608.16
-3422.45
-4225.54
-4192.38
-3559.36
-4219.69
-2624.42
-2352.46
-2522.09
2800.68
-3509.45
5358.79
-4606.51
3368.6
-5143.64
464.49
-4977.73
-339.629
-4623.71
1145.38
-4428.4
2890.64
-4318.5
4292.52
-4240.62
5845.69
-4294.53
7411.67
-4696.67
8263.69
-5587.06
7615.57
-6669.67
5604.8
-7415.04
3661.51
-7738.28
2883.43
-7941.74
2985.83
-8206.29
3151.73
-8509.96
3061.03
-8800.03
2805.99
-9062.3
2485.82
-9301.85
2133.81
-9524.42
1758.68
-9731.16
1345.41
-9914.64
866.696
-10071
309.135
-10194.3
-365.109
-10277.8
-1190.63
-10307.7
-2197.55
-10268.1
-3378.11
-10145.2
-4722.89
-9926.96
-6214.73
-9604.23
-7830.93
-9171.8
-9549.19
-8629.42
-11352.5
-7983.57
-13231.2
-7249.3
-15179.2
-6450.13
-17188
-5620.93
-19253.2
-4820.14
-21364.8
-4105.31
-23418.4
-3585.05
-25393.1
-27003.8
1414.82
-61.6751
1292.34
-259.973
1391.16
-492.543
1577.59
-354.265
1728.43
-226.488
1806.55
-105.423
1825.31
89.4593
1800.36
227.113
1763.68
98.1198
1759.84
-278.23
1796.69
-625.158
1836.54
-621.187
1838.88
-227.289
1765
438.367
1626.95
1253.55
1422.69
1968.65
1165.8
2607.36
916.462
2974.86
723.593
2889.85
566.721
2812.5
339.051
3726.34
98.1754
5712.72
-49.4867
9278.87
-427.078
11341
-1026.57
9674
-1427.76
7439.86
-1713.27
5677.49
-1951.67
4047.4
-1878.85
2752.63
-1232.53
-1051.24
-884.312
-2820.97
-804.966
-1778.22
-942.797
232.925
-1346.56
2772.15
-1657.91
2896.46
-2279.36
2733.49
-3008.79
2697.87
-3481.47
2290.36
-3734.13
2207.15
-3892.3
2212.14
-4031.35
2242.04
-4193.73
2239.18
-4360.95
2203.11
-4507.43
2129.64
-4636.7
2001.1
-4759.7
1794.43
-4875.92
1566.14
-4981.05
1283.16
-5067.6
881.308
-5125.22
322.879
-5143.49
-406.785
-5124.29
-1092.67
-5055.52
-1824.97
-4918.97
-2684.08
-4689.36
-3652.06
-4315.83
-4565.9
-3660.64
-4874.87
-2697.78
-3315.33
-2253.22
2356.15
-3031.08
6136.65
-4253.79
4591.31
-5057.42
1268.12
-5064.95
-332.091
-4710
790.437
-4477.5
2658.14
-4341.72
4156.75
-4223.51
5727.48
-4180.05
7368.22
-4412.68
8496.32
-5136.12
8339.02
-6215.83
6684.51
-7128.66
4574.34
-7595.79
3350.55
-7831.86
3221.9
-8087.98
3407.84
-8399.94
3373
-8714.4
3120.45
-9003.4
2774.82
-9268.39
2398.79
-9517.53
2007.83
-9754.75
1582.63
-9973.01
1084.95
-10165
501.085
-10326.7
-203.401
-10452
-1065.27
-10529.3
-2120.33
-10540.3
-3367.04
-10470.8
-4792.45
-10307.9
-6377.63
-10042.1
-8096.67
-9668.36
-9922.95
-9186.99
-11833.9
-8605.62
-13812.6
-7940.67
-15844.2
-7217.65
-17911
-6473.74
-19997.1
-5765.25
-22073.3
-5149.61
-24034.1
-4709.87
-25832.9
-27227.1
1246.85
175.626
1142.71
-155.812
1311.38
-661.189
1560
-602.863
1730.06
-396.509
1814.59
-189.919
1841.03
63.0568
1823.39
244.786
1793.93
127.618
1793.4
-277.676
1822.7
-654.43
1847.61
-646.073
1835.78
-215.429
1751.06
523.117
1608.47
1396.17
1400.26
2176.88
1148.67
2858.97
908.783
3214.77
706.528
3092.12
507.672
3011.38
230.158
4003.87
0.70658
5942.18
-18.0792
9297.67
-260.949
11583.9
-887.295
10300.4
-1369.09
7921.66
-1665.63
5974.04
-1867.72
4249.49
-1689.89
2574.81
-1088.63
-1652.44
-900.518
-3009.06
-790.049
-1888.66
-692.228
135.155
-949.28
3029.22
-1296.84
3244.04
-1823.96
3260.64
-2596.26
3470.18
-3248.51
2942.63
-3639.7
2598.37
-3869.03
2441.48
-4014.26
2387.29
-4161.55
2386.49
-4325.05
2366.63
-4475.89
2280.5
-4610.66
2135.89
-4741.16
1924.96
-4865.52
1690.54
-4982.47
1400.12
-5082.61
981.474
-5156.07
396.347
-5193.45
-369.38
-5191.13
-1094.99
-5136.72
-1879.35
-5011.75
-2809.05
-4790.13
-3873.67
-4423.8
-4932.23
-3795.29
-5503.37
-2961.91
-4148.7
-2221.55
1615.8
-2619.6
6534.71
-3840.95
5812.66
-4874.88
2302.05
-5102.93
-104.034
-4781.86
469.357
-4513.71
2389.99
-4352.1
3995.13
-4206.71
5582.09
-4097.51
7259.01
-4194.43
8593.24
-4740.29
8884.88
-5744
7688.22
-6773.31
5603.65
-7408.99
3986.24
-7717.49
3530.4
-7975.96
3666.31
-8291.86
3688.9
-8629.48
3458.08
-8948.76
3094.1
-9243.6
2693.64
-9522.84
2287.06
-9793.3
1853.08
-10050.6
1342.25
-10282.5
732.956
-10486
0.0899688
-10655.5
-895.746
-10782.3
-1993.54
-10846.1
-3303.21
-10831.4
-4807.11
-10724.8
-6484.3
-10516.1
-8305.29
-10200.4
-10238.7
-9778.39
-12255.9
-9258.87
-14332.1
-8659.4
-16443.6
-8006.96
-18563.4
-7339.83
-20664.2
-6711.6
-22701.5
-6176.44
-24569.2
-5798.18
-26211.1
-27424.4
1084.53
430.83
1094.48
-165.735
1330.99
-897.674
1574.99
-846.84
1730.03
-551.51
1813.98
-273.835
1847.79
29.2952
1840.02
252.601
1822.09
145.595
1824.89
-280.442
1841.35
-670.855
1846.52
-651.22
1819.19
-188.064
1725.59
616.764
1580.15
1541.64
1369.5
2387.55
1125.69
3102.81
892.279
3448.2
669.038
3315.38
421.525
3258.92
105.157
4320.26
-99.5745
6146.93
-1.53766
9199.65
-113.085
11695.5
-752.997
10940.3
-1314.09
8482.77
-1598.2
6258.17
-1698.77
4350.07
-1355.96
2232.02
-927.173
-2081.16
-977.454
-2958.74
-905.908
-1960.17
-724.881
-45.8195
-795.494
3099.86
-1096.43
3544.99
-1486.6
3650.84
-2186.15
4169.74
-2943.7
3700.2
-3479.98
3134.67
-3820.85
2782.37
-4002.48
2568.95
-4137.72
2521.74
-4291.71
2520.65
-4446.31
2435.12
-4589.22
2278.82
-4729.16
2064.93
-4863.27
1824.7
-4993.63
1530.49
-5108.79
1096.67
-5200.39
487.959
-5259.56
-310.194
-5274.67
-1079.87
-5235.54
-1918.45
-5123.79
-2920.81
-4913.04
-4084.41
-4558.32
-5286.95
-3967.44
-6094.24
-3180.59
-4935.55
-2249.46
684.688
-2362.9
6648.15
-3424.95
6874.72
-4618.13
3495.23
-5086.66
364.509
-4840.34
223.034
-4542.71
2092.37
-4352.81
3805.23
-4187.64
5416.93
-4037.7
7109.06
-4034.28
8589.82
-4412.63
9263.23
-5285.94
8561.52
-6362.04
6679.75
-7163.99
4788.19
-7584.61
3951.02
-7866.95
3948.65
-8186.36
4008.3
-8544.5
3816.22
-8896.39
3445.98
-9225.58
3022.83
-9538.64
2600.12
-9844.68
2159.13
-10143.4
1640.99
-10419.9
1009.39
-10670.2
250.414
-10887.6
-678.351
-11065.5
-1815.58
-11184
-3184.74
-11225.5
-4765.65
-11175.6
-6534.15
-11023.9
-8456.98
-10765.2
-10497.5
-10400.7
-12620.3
-9940.13
-14792.7
-9401.89
-16981.9
-8813.93
-19151.4
-8214.78
-21263.4
-7654.99
-23261.3
-7184.13
-25040.1
-6851.84
-26543.4
-27605.4
965.651
654.219
1133.37
-333.431
1376.13
-1140.42
1581.13
-1051.82
1718.18
-688.525
1802.71
-358.338
1843.83
-11.7849
1847.43
249.031
1843.26
149.807
1847.68
-284.836
1846.73
-669.889
1829.49
-633.957
1787.27
-145.81
1687.64
716.42
1543.01
1686.31
1334.42
2596.15
1102.69
3334.56
875.598
3675.31
618.873
3572.13
311.249
3566.56
-39.0437
4670.56
-208.57
6316.47
-2.75604
8993.84
15.6438
11677.1
-615.673
11571.6
-1256.12
9123.23
-1518.81
6520.86
-1522.17
4353.44
-1170.61
1880.47
-881.031
-2370.69
-973.256
-2866.49
-993.213
-1940.18
-935.361
-103.624
-876.925
3041.45
-993.271
3661.36
-1255.34
3912.92
-1813.79
4728.21
-2587.82
4474.25
-3248.41
3795.28
-3729.92
3263.89
-3988.77
2827.82
-4125.34
2658.33
-4263.69
2659.02
-4418.21
2589.66
-4571.34
2431.96
-4723.3
2216.92
-4869.62
1971.06
-5014.59
1675.47
-5146.05
1228.16
-5257.99
599.902
-5340.77
-227.394
-5373.58
-1047.05
-5350.74
-1941.28
-5254.23
-3017.31
-5057.88
-4280.74
-4721.17
-5623.67
-4174.9
-6640.5
-3335.15
-5775.3
-2312.72
-337.733
-2260.57
6596
-3065.69
7679.84
-4317.1
4746.64
-5008.78
1056.19
-4880.1
94.3488
-4565.42
1777.69
-4346.34
3586.14
-4166.66
5237.25
-3994.77
6937.17
-3922.16
8517.22
-4155.59
9496.66
-4868.29
9274.22
-5918.33
7729.79
-6856.04
5725.9
-7417.93
4512.9
-7753.95
4284.68
-8083
4337.35
-8459.1
4192.31
-8844.49
3831.38
-9212.29
3390.62
-9563.69
2951.52
-9908.98
2504.42
-10252.1
1984.12
-10577.9
1335.2
-10878.4
550.93
-11147.2
-409.571
-11377.5
-1585.27
-11552.2
-3010.04
-11650.8
-4667.08
-11658.1
-6526.88
-11562.9
-8552.12
-11360
-10700.4
-11051
-12929.3
-10646.2
-15197.6
-10164.6
-17463.5
-9634.71
-19681.3
-9094.7
-21803.4
-8592
-23764
-8171.42
-25460.7
-7872.3
-26842.6
-27777.4
793.893
880.473
1088.39
-627.906
1377.17
-1429.18
1569.48
-1244.12
1697.24
-816.244
1782.42
-443.482
1829.47
-58.7961
1844.6
233.95
1854.75
139.706
1859.69
-289.739
1839.75
-649.921
1799.53
-593.705
1743.11
-89.3588
1638.88
820.695
1499.47
1825.76
1300.07
2795.58
1085.77
3548.87
867.372
3893.73
568.302
3871.21
187.085
3947.8
-199.456
5057.12
-329.814
6446.85
-23.7511
8687.79
128.557
11524.8
-449.628
12149.8
-1161.11
9834.73
-1425.19
6784.95
-1379.65
4307.93
-1071.41
1572.25
-844.383
-2597.66
-919.837
-2791.01
-966.489
-1893.5
-999.052