/*--------------------------------*- C++ -*----------------------------------*\
| =========                 |                                                 |
| \\      /  F ield         | OpenFOAM: The Open Source CFD Toolbox           |
|  \\    /   O peration     | Version:  4.1                                   |
|   \\  /    A nd           | Web:      www.OpenFOAM.org                      |
|    \\/     M anipulation  |                                                 |
\*---------------------------------------------------------------------------*/
FoamFile
{
    version     2.0;
    format      ascii;
    class       volVectorField;
    location    "300";
    object      U;
}
// * * * * * * * * * * * * * * * * * * * * * * * * * * * * * * * * * * * * * //

dimensions      [0 1 -1 0 0 0 0];

internalField   nonuniform List<vector> 
26785
(
(-4.45428e-14 -0.00714492 17.0658)
(-3.86215e-14 -0.0166506 17.0154)
(-4.10767e-14 -0.0142938 16.972)
(-1.43428e-14 -0.0118009 17.0091)
(-1.23411e-14 -0.00467974 17.117)
(2.72518e-14 0.00606427 17.0802)
(3.86874e-14 0.0133571 16.8246)
(2.71445e-14 0.0144224 16.5033)
(-3.72103e-14 0.00972996 16.2489)
(-3.66634e-14 0.00393074 16.106)
(-1.85385e-14 0.00240302 16.0417)
(-9.2738e-15 0.00700456 15.9805)
(-9.10483e-15 0.0162836 15.8404)
(-6.87983e-15 0.0241064 15.5954)
(1.48401e-15 0.0362214 15.2178)
(1.22296e-14 0.0559397 14.6186)
(2.22936e-14 0.0791933 13.7075)
(3.06932e-14 0.0988237 12.4673)
(2.97277e-14 0.110662 11.0143)
(7.05398e-14 0.127695 9.44367)
(7.71225e-14 0.191584 7.54156)
(6.63301e-14 0.407953 4.65257)
(1.68662e-13 0.546438 -3.77992)
(7.06168e-14 0.418266 -11.3836)
(6.65184e-14 0.152539 -15.2208)
(2.9929e-14 -0.00477171 -15.845)
(3.37415e-14 -0.00125128 -15.616)
(6.56702e-14 0.00311146 -15.7896)
(9.24676e-14 -0.00753125 -15.7104)
(1.04359e-13 -0.0172628 -15.7665)
(7.47407e-14 -0.0534083 -15.4983)
(4.9719e-14 -0.0753629 -14.8671)
(5.58525e-14 -0.0552062 -14.2715)
(8.11803e-14 -0.0197476 -13.9755)
(1.28378e-13 0.00922703 -13.9391)
(7.11118e-14 0.0306915 -14.1465)
(7.0834e-14 0.0323594 -14.5278)
(6.26526e-14 0.0152873 -14.8468)
(3.18714e-14 -0.000858149 -14.9739)
(-2.26185e-14 -0.00306027 -15.0193)
(-6.15561e-14 -0.00150215 -15.0915)
(-2.30009e-14 0.00140438 -15.1973)
(-1.94359e-14 0.00346028 -15.3446)
(-1.50087e-15 0.00337513 -15.5137)
(-1.56115e-14 0.00316472 -15.6749)
(1.27633e-14 0.00401824 -15.809)
(-1.0903e-14 0.00578351 -15.8983)
(3.21844e-15 0.00685579 -15.9362)
(1.19948e-14 0.00278118 -15.9203)
(1.24254e-14 -0.0115172 -15.8176)
(2.19793e-14 -0.0371303 -15.5582)
(8.54991e-14 -0.0659178 -15.0898)
(1.03043e-13 -0.0905482 -14.4268)
(1.07499e-13 -0.109183 -13.6151)
(1.17141e-13 -0.11906 -12.7071)
(1.47534e-13 -0.115966 -11.7763)
(1.69789e-13 -0.0946026 -10.9626)
(1.49894e-13 -0.0288951 -10.6051)
(1.51802e-13 0.0267608 -10.7515)
(9.61774e-14 0.032531 -11.0809)
(-3.46607e-15 0.066292 -11.3921)
(-1.31176e-14 0.148273 -12.0522)
(2.30912e-14 0.209742 -13.2841)
(3.4255e-14 0.213413 -14.8194)
(-1.41148e-14 0.17994 -16.3037)
(-5.07009e-14 0.131301 -17.5349)
(-9.23332e-14 0.0799033 -18.3843)
(-1.40408e-13 0.0454289 -18.8311)
(-1.76726e-13 0.0381417 -19.0568)
(-1.88867e-13 0.0441875 -19.2893)
(-1.95996e-13 0.0481467 -19.5936)
(-2.14939e-13 0.04868 -19.9147)
(-2.22029e-13 0.0494393 -20.2254)
(-2.29295e-13 0.0502661 -20.5383)
(-2.4102e-13 0.0485695 -20.8512)
(-2.45966e-13 0.0434207 -21.1452)
(-2.35885e-13 0.0345571 -21.4005)
(-2.32446e-13 0.021512 -21.5991)
(-2.26732e-13 0.00395912 -21.7222)
(-2.15958e-13 -0.0177867 -21.7514)
(-1.99705e-13 -0.0420855 -21.6734)
(-1.85002e-13 -0.0665648 -21.4819)
(-1.73976e-13 -0.0898814 -21.1749)
(-1.56037e-13 -0.111535 -20.7489)
(-1.40698e-13 -0.132066 -20.1943)
(-1.32061e-13 -0.155346 -19.5023)
(-1.19023e-13 -0.188544 -18.6591)
(-1.01467e-13 -0.237064 -17.6384)
(-8.62403e-14 -0.296444 -16.4032)
(-7.57948e-14 -0.349492 -14.9286)
(-6.77226e-14 -0.375574 -13.2244)
(-5.99744e-14 -0.374761 -11.3106)
(-5.01399e-14 -0.410975 -9.18965)
(-3.57457e-14 -0.578065 -6.78265)
(-2.67742e-14 -0.834052 -3.93105)
(-3.10862e-14 -1.0547 -0.371948)
(-4.87436e-14 -1.11403 2.91054)
(-5.91073e-14 -1.18514 9.22997)
(-6.18843e-14 -1.22143 11.1638)
(-6.33517e-14 -2.07716 23.7959)
(-4.72026e-14 0.017126 16.7501)
(-1.77555e-14 -0.00718436 16.4544)
(4.00609e-15 -0.00020688 16.1736)
(1.29617e-14 -0.00183951 15.928)
(-3.23113e-14 0.00475827 15.8305)
(7.09561e-15 0.0255263 15.6974)
(-1.24197e-14 0.0416971 15.375)
(-5.51817e-14 0.0434329 14.9765)
(7.89117e-15 0.0299588 14.6255)
(3.27629e-14 0.0129637 14.3769)
(2.08753e-14 0.00601896 14.2284)
(6.51797e-15 0.0136855 14.1412)
(4.40395e-15 0.0336667 14.0452)
(-3.68321e-15 0.0503793 13.908)
(4.54972e-14 0.0843416 13.6769)
(8.68709e-14 0.143584 13.2404)
(3.45647e-14 0.214936 12.4928)
(4.12043e-15 0.27628 11.4006)
(2.97604e-14 0.314508 10.0707)
(-8.04961e-15 0.371236 8.5905)
(3.93747e-14 0.577997 6.73944)
(1.83814e-14 1.1713 3.85944)
(1.47127e-13 1.60877 -2.6932)
(7.07908e-14 1.4448 -9.12278)
(7.38691e-14 0.68896 -13.8201)
(7.80299e-14 0.0337593 -15.5849)
(4.74868e-14 -0.0231538 -15.4742)
(7.3436e-14 0.0211302 -15.5534)
(9.69433e-14 0.00104004 -15.5646)
(8.5254e-14 -0.0239907 -15.6053)
(4.80842e-14 -0.11228 -15.3277)
(8.65796e-14 -0.170782 -14.7021)
(9.30251e-14 -0.127255 -14.0716)
(9.92958e-14 -0.0492235 -13.7207)
(1.03828e-13 0.021443 -13.6884)
(7.65023e-14 0.0893163 -13.8932)
(6.40035e-14 0.108455 -14.2478)
(5.59306e-14 0.0714376 -14.5787)
(4.81992e-14 0.0299827 -14.7729)
(3.34203e-14 0.0266701 -14.8782)
(3.24349e-15 0.0359923 -14.9904)
(-2.94192e-14 0.0514292 -15.124)
(-1.76046e-14 0.0656251 -15.2937)
(-2.12289e-14 0.070245 -15.4849)
(1.37956e-14 0.064679 -15.6595)
(4.9827e-14 0.0485812 -15.7857)
(1.17845e-13 0.024319 -15.8366)
(1.57915e-13 -0.00200098 -15.8088)
(2.25544e-13 -0.0321332 -15.7154)
(2.55308e-13 -0.0785542 -15.5322)
(3.8748e-13 -0.150355 -15.192)
(4.24853e-13 -0.229665 -14.6531)
(4.70365e-13 -0.296253 -13.9415)
(4.52827e-13 -0.343762 -13.0983)
(3.57939e-13 -0.363679 -12.1621)
(2.92679e-13 -0.339595 -11.1983)
(1.55691e-13 -0.24821 -10.3546)
(-2.16795e-14 -0.0212204 -10.0289)
(-7.17154e-14 0.154538 -10.1003)
(-1.34234e-14 0.146751 -10.3725)
(3.53538e-14 0.200045 -10.5863)
(5.92416e-14 0.411815 -11.0363)
(3.64336e-14 0.616806 -12.046)
(2.17448e-14 0.69171 -13.4802)
(1.16744e-14 0.647684 -15.0472)
(-3.61842e-14 0.515632 -16.5521)
(-9.30068e-14 0.327292 -17.7738)
(-1.37252e-13 0.167402 -18.5127)
(-1.76449e-13 0.109232 -18.8199)
(-2.16048e-13 0.129268 -18.9866)
(-2.18001e-13 0.156479 -19.2435)
(-2.21629e-13 0.160471 -19.5733)
(-2.40943e-13 0.158068 -19.8827)
(-2.46769e-13 0.160343 -20.172)
(-2.46562e-13 0.1574 -20.4575)
(-2.40135e-13 0.144322 -20.7206)
(-2.36107e-13 0.121818 -20.9394)
(-2.25207e-13 0.0897072 -21.0997)
(-2.15524e-13 0.0477518 -21.1899)
(-2.03922e-13 -0.00309596 -21.2011)
(-1.79622e-13 -0.0598478 -21.1293)
(-1.6136e-13 -0.11991 -20.9718)
(-1.57014e-13 -0.184544 -20.7209)
(-1.47646e-13 -0.255905 -20.3609)
(-1.31293e-13 -0.335195 -19.8622)
(-1.13911e-13 -0.424416 -19.2004)
(-1.03977e-13 -0.527557 -18.3601)
(-9.61668e-14 -0.647425 -17.3344)
(-8.61886e-14 -0.781021 -16.1198)
(-7.52383e-14 -0.918189 -14.707)
(-6.76756e-14 -1.0438 -13.0706)
(-6.24295e-14 -1.14929 -11.1485)
(-5.18885e-14 -1.28904 -8.86801)
(-4.31733e-14 -1.58398 -6.26089)
(-1.77123e-14 -2.02301 -3.42459)
(-5.5923e-15 -2.446 -0.00422217)
(-2.79802e-14 -2.80771 3.12293)
(-3.38996e-14 -3.10229 8.78267)
(-3.66853e-14 -3.62208 10.8931)
(-4.43138e-14 -5.72824 22.4953)
(-3.27159e-14 0.0462306 16.4945)
(-5.24221e-14 0.00457393 16.109)
(-2.05093e-14 0.0217537 15.7489)
(2.65884e-16 0.0216019 15.3033)
(-4.4912e-14 0.0226654 15.0069)
(-2.6075e-14 0.0498896 14.7477)
(-4.65364e-14 0.0769523 14.3126)
(-5.61092e-14 0.0831356 13.7932)
(-4.89848e-14 0.0630882 13.3233)
(-3.35107e-14 0.0333546 12.9827)
(-2.14228e-14 0.0147551 12.8003)
(-1.37631e-14 0.0165844 12.7347)
(-6.54581e-15 0.0390062 12.673)
(-8.44412e-16 0.0584725 12.5663)
(-2.74353e-15 0.112355 12.3605)
(8.54831e-14 0.20906 11.9416)
(3.70909e-14 0.326212 11.2383)
(4.97659e-14 0.430037 10.2267)
(-2.8852e-15 0.499008 8.9969)
(8.62618e-15 0.603098 7.60811)
(5.06011e-14 0.940948 5.85592)
(-7.17874e-14 1.80325 3.3954)
(6.59529e-14 2.47124 -0.990361)
(8.5519e-14 2.39743 -5.80978)
(7.37479e-14 1.41869 -10.8817)
(9.88103e-14 0.268416 -14.5182)
(8.63843e-14 -0.019178 -15.3211)
(7.35079e-14 0.02213 -15.4436)
(8.88559e-14 -0.000465926 -15.5055)
(7.40377e-14 -0.061759 -15.496)
(5.12616e-14 -0.215536 -15.17)
(6.61658e-14 -0.319758 -14.5587)
(1.32717e-13 -0.247043 -13.9238)
(1.2378e-13 -0.0887406 -13.5067)
(9.76091e-14 0.0462077 -13.4442)
(8.86653e-14 0.146563 -13.6212)
(7.46732e-14 0.1721 -13.9377)
(6.31943e-14 0.124016 -14.2822)
(5.37006e-14 0.0618228 -14.549)
(4.9153e-14 0.0482931 -14.7179)
(5.28818e-14 0.0538003 -14.8668)
(6.09587e-14 0.071968 -15.0092)
(6.83345e-14 0.0898913 -15.1608)
(7.77718e-14 0.0926675 -15.3152)
(1.0291e-13 0.0787598 -15.4378)
(1.49959e-13 0.0496766 -15.5089)
(2.24903e-13 0.0117865 -15.5186)
(3.21199e-13 -0.0245371 -15.4728)
(4.29067e-13 -0.067339 -15.3714)
(5.3925e-13 -0.142325 -15.1712)
(6.3913e-13 -0.261133 -14.8022)
(7.08615e-13 -0.3885 -14.2524)
(7.3913e-13 -0.494233 -13.5591)
(7.45665e-13 -0.574359 -12.7465)
(7.18691e-13 -0.615787 -11.8344)
(5.92109e-13 -0.586001 -10.8838)
(3.08514e-13 -0.445518 -10.0422)
(4.80335e-14 -0.095546 -9.74118)
(-3.09147e-14 0.183741 -9.74504)
(-1.9968e-14 0.172183 -9.93967)
(1.53334e-14 0.241704 -9.99689)
(1.14221e-14 0.57913 -10.1134)
(5.29132e-17 0.946208 -10.7544)
(1.64652e-14 1.13292 -11.9269)
(3.73302e-14 1.14347 -13.3888)
(-6.41993e-15 1.00151 -15.0377)
(-8.58964e-14 0.708205 -16.6747)
(-1.57829e-13 0.380506 -17.923)
(-2.12448e-13 0.192079 -18.5327)
(-2.37544e-13 0.184177 -18.6962)
(-2.41553e-13 0.244634 -18.8648)
(-2.46213e-13 0.264968 -19.1926)
(-2.57051e-13 0.253194 -19.5277)
(-2.55241e-13 0.248681 -19.8144)
(-2.45023e-13 0.24026 -20.0893)
(-2.35606e-13 0.214096 -20.3439)
(-2.24574e-13 0.171741 -20.5545)
(-2.11639e-13 0.115138 -20.7076)
(-1.98311e-13 0.0455344 -20.7945)
(-1.85158e-13 -0.0345886 -20.8096)
(-1.69782e-13 -0.120827 -20.75)
(-1.51163e-13 -0.210937 -20.6101)
(-1.35889e-13 -0.31002 -20.3811)
(-1.28191e-13 -0.425192 -20.0505)
(-1.17968e-13 -0.559637 -19.5876)
(-1.10605e-13 -0.71493 -18.9673)
(-1.04502e-13 -0.893981 -18.1713)
(-9.58742e-14 -1.09711 -17.186)
(-8.42816e-14 -1.31885 -16.0002)
(-7.46791e-14 -1.54966 -14.602)
(-6.84739e-14 -1.78037 -12.9705)
(-5.99023e-14 -2.0094 -11.0581)
(-4.33058e-14 -2.28008 -8.80892)
(-2.54693e-14 -2.69128 -6.25701)
(-2.20078e-14 -3.25308 -3.49819)
(-1.19339e-14 -3.82029 -0.250459)
(-2.54107e-14 -4.47724 2.85643)
(-2.81843e-14 -4.9414 7.9218)
(-3.63746e-14 -6.00759 10.477)
(-4.86466e-14 -8.7882 20.5112)
(-2.60791e-14 0.0810633 16.2666)
(-4.32555e-14 0.024408 15.8883)
(-9.20408e-14 0.0622297 15.5752)
(-1.39323e-13 0.0716323 15.0002)
(-1.09375e-13 0.0616044 14.4928)
(-1.01085e-13 0.0897351 14.0859)
(-9.88864e-14 0.126319 13.5444)
(-3.54068e-14 0.135711 12.9501)
(-9.19364e-17 0.104919 12.4489)
(1.60626e-15 0.0552709 12.1329)
(-5.77854e-15 0.0188895 12.0219)
(-2.77708e-14 0.0150679 12.0236)
(-2.31627e-14 0.0454699 11.9707)
(-7.36322e-14 0.073491 11.8228)
(-8.62462e-14 0.151339 11.536)
(-4.36381e-14 0.282483 11.0068)
(-3.47395e-16 0.434908 10.2205)
(-3.80348e-14 0.572196 9.19619)
(-4.42207e-15 0.668889 8.00391)
(3.0352e-14 0.819657 6.66955)
(2.88621e-14 1.25583 5.0227)
(-9.06894e-14 2.26962 3.02265)
(1.31044e-14 3.07751 0.127481)
(7.53544e-14 3.16017 -3.48235)
(5.58145e-14 2.26403 -7.85283)
(5.87646e-14 0.788222 -12.6571)
(5.38457e-14 0.127541 -14.8337)
(6.0195e-14 0.0447759 -15.3586)
(5.80702e-14 -0.00354572 -15.544)
(3.38381e-14 -0.0946556 -15.4574)
(3.73751e-14 -0.282721 -15.0027)
(6.89922e-14 -0.416427 -14.3701)
(1.03132e-13 -0.340426 -13.7733)
(1.08749e-13 -0.145827 -13.3739)
(1.02646e-13 0.0429088 -13.2796)
(9.62473e-14 0.192758 -13.394)
(1.47317e-13 0.241023 -13.6502)
(4.35956e-14 0.19564 -13.992)
(3.80327e-14 0.119096 -14.3184)
(9.07986e-14 0.0952468 -14.5388)
(2.07726e-14 0.0940421 -14.714)
(9.7394e-15 0.110824 -14.8526)
(9.2252e-14 0.12952 -14.9735)
(1.52402e-13 0.129248 -15.0905)
(1.67956e-13 0.107437 -15.1819)
(2.25846e-13 0.0673947 -15.2386)
(2.94549e-13 0.0163124 -15.2529)
(4.24866e-13 -0.0360136 -15.2178)
(5.81983e-13 -0.104051 -15.1058)
(7.23399e-13 -0.217535 -14.8742)
(8.08182e-13 -0.381718 -14.4732)
(8.84778e-13 -0.547277 -13.9244)
(8.71046e-13 -0.684957 -13.2535)
(9.01769e-13 -0.79439 -12.4616)
(8.8914e-13 -0.852047 -11.5597)
(7.58328e-13 -0.803682 -10.6152)
(5.03342e-13 -0.596864 -9.7936)
(1.55269e-13 -0.11315 -9.58474)
(2.0077e-14 0.259536 -9.62531)
(2.43977e-15 0.20597 -9.82951)
(2.47409e-14 0.23104 -9.78868)
(-2.30311e-14 0.644085 -9.59308)
(-1.75908e-14 1.16637 -9.83016)
(-7.02068e-16 1.49289 -10.6505)
(2.41284e-14 1.61541 -11.8346)
(6.62178e-15 1.55779 -13.3739)
(-4.09137e-14 1.25055 -15.2282)
(-1.27735e-13 0.766257 -17.0058)
(-2.03045e-13 0.361932 -18.1288)
(-2.43112e-13 0.239421 -18.4508)
(-2.56691e-13 0.322589 -18.5294)
(-2.5129e-13 0.383517 -18.8125)
(-2.45132e-13 0.367859 -19.1772)
(-2.24907e-13 0.351938 -19.4795)
(-2.23857e-13 0.339468 -19.7512)
(-2.21333e-13 0.305156 -20.0036)
(-2.08938e-13 0.248445 -20.2145)
(-1.96349e-13 0.173568 -20.3687)
(-1.77401e-13 0.0828725 -20.4592)
(-1.63227e-13 -0.0212331 -20.4824)
(-1.51569e-13 -0.134834 -20.4366)
(-1.37128e-13 -0.256523 -20.3142)
(-1.19051e-13 -0.392934 -20.1041)
(-1.03576e-13 -0.553399 -19.7965)
(-9.75785e-14 -0.742923 -19.3615)
(-9.27834e-14 -0.961604 -18.7748)
(-8.6344e-14 -1.2108 -18.0179)
(-7.55101e-14 -1.49027 -17.0739)
(-6.75715e-14 -1.79605 -15.9274)
(-6.46674e-14 -2.12152 -14.5638)
(-6.34049e-14 -2.46038 -12.9655)
(-6.00661e-14 -2.81386 -11.0982)
(-4.72543e-14 -3.21918 -8.92299)
(-3.11825e-14 -3.75426 -6.46814)
(-2.16116e-14 -4.43717 -3.81193)
(-1.22046e-14 -5.15143 -0.759873)
(-2.59606e-14 -6.03507 2.25123)
(-3.04441e-14 -6.69582 6.77873)
(-4.50787e-14 -8.24737 9.68785)
(-5.13498e-14 -11.3308 17.991)
(-2.6693e-14 0.110891 16.0401)
(-2.75555e-14 0.0315499 15.6813)
(-2.21277e-14 0.0965221 15.4897)
(-5.17164e-14 0.133942 14.8561)
(-7.54583e-14 0.116253 14.1268)
(2.31351e-14 0.140219 13.5663)
(-2.29265e-15 0.181699 12.9595)
(-7.21581e-14 0.188868 12.3691)
(-8.37144e-14 0.140991 11.9254)
(-4.8416e-14 0.0675594 11.6932)
(-5.10517e-15 0.0149103 11.6576)
(-7.51073e-14 0.0121605 11.6958)
(-7.24912e-14 0.0583326 11.6258)
(-8.92927e-14 0.102519 11.433)
(-9.47209e-14 0.209766 11.0461)
(-7.82656e-15 0.374788 10.3754)
(3.13208e-14 0.553848 9.45186)
(-1.36838e-14 0.715191 8.35252)
(-1.8598e-14 0.834525 7.13647)
(-6.74373e-15 1.02558 5.81755)
(3.20092e-15 1.52493 4.28347)
(-9.33898e-14 2.60786 2.6689)
(-6.54159e-15 3.52196 0.673452)
(6.54164e-14 3.73978 -2.63462)
(4.91855e-14 3.05017 -5.89703)
(4.28813e-14 1.48896 -10.6094)
(4.88411e-14 0.464726 -13.9411)
(5.55805e-14 0.151357 -15.1517)
(8.40976e-14 0.00443466 -15.665)
(9.25124e-14 -0.180232 -15.6657)
(1.01238e-13 -0.427089 -15.1628)
(1.08861e-13 -0.568156 -14.4254)
(1.10023e-13 -0.447886 -13.6538)
(1.15742e-13 -0.175635 -13.1722)
(1.24536e-13 0.0531971 -13.1684)
(8.60537e-14 0.222326 -13.2648)
(7.68502e-14 0.291825 -13.4215)
(5.15107e-14 0.26626 -13.7139)
(4.20116e-14 0.182641 -14.0788)
(3.53552e-14 0.14191 -14.3426)
(2.02237e-14 0.125406 -14.5326)
(3.06867e-14 0.133459 -14.6646)
(7.65156e-14 0.14912 -14.7642)
(9.49161e-14 0.146963 -14.8666)
(1.73802e-13 0.120802 -14.9632)
(2.73387e-13 0.0732468 -15.0335)
(3.8339e-13 0.0106518 -15.0514)
(5.07477e-13 -0.0581806 -15.0022)
(6.41388e-13 -0.151182 -14.8567)
(7.68959e-13 -0.298472 -14.5984)
(8.36265e-13 -0.50011 -14.191)
(9.14422e-13 -0.698555 -13.6631)
(9.46369e-13 -0.87027 -13.0173)
(9.80315e-13 -1.01498 -12.2432)
(9.53339e-13 -1.09566 -11.3421)
(8.25422e-13 -1.03029 -10.3759)
(5.79854e-13 -0.753178 -9.53872)
(2.29043e-13 -0.138863 -9.46358)
(5.38124e-14 0.322074 -9.60751)
(5.092e-14 0.213229 -9.92014)
(5.78318e-14 0.154256 -9.8926)
(3.13636e-15 0.603991 -9.4818)
(-2.31777e-15 1.26905 -9.34495)
(-7.30331e-15 1.74144 -9.80403)
(1.26348e-14 1.99753 -10.6418)
(1.74274e-14 2.09041 -11.8762)
(-3.80134e-14 1.88384 -13.6687)
(-1.01635e-13 1.32784 -15.7939)
(-1.81551e-13 0.670444 -17.51)
(-2.31919e-13 0.321126 -18.1938)
(-2.6038e-13 0.372192 -18.2539)
(-2.63904e-13 0.489367 -18.4478)
(-2.53304e-13 0.484504 -18.8206)
(-2.29479e-13 0.451311 -19.1537)
(-2.15949e-13 0.428124 -19.4332)
(-1.98892e-13 0.382744 -19.6886)
(-1.95237e-13 0.308226 -19.9069)
(-1.90315e-13 0.210732 -20.0705)
(-1.74264e-13 0.0953968 -20.1719)
(-1.61516e-13 -0.0342939 -20.209)
(-1.38181e-13 -0.174512 -20.1803)
(-1.2613e-13 -0.324611 -20.0765)
(-1.22777e-13 -0.493845 -19.8855)
(-1.06499e-13 -0.695892 -19.601)
(-9.25567e-14 -0.937917 -19.1951)
(-8.32559e-14 -1.21889 -18.6433)
(-7.42243e-14 -1.53889 -17.9268)
(-6.37964e-14 -1.89616 -17.0267)
(-5.63273e-14 -2.28609 -15.9257)
(-5.46209e-14 -2.70293 -14.6082)
(-5.7297e-14 -3.14263 -13.0589)
(-5.65257e-14 -3.60876 -11.2538)
(-4.9314e-14 -4.13292 -9.16941)
(-3.22874e-14 -4.77747 -6.83222)
(-2.46021e-14 -5.56531 -4.30128)
(-2.33067e-14 -6.4172 -1.44679)
(-3.07304e-14 -7.49532 1.4259)
(-4.17926e-14 -8.37642 5.47343)
(-4.84335e-14 -10.2699 8.52307)
(-5.04913e-14 -13.3668 15.1374)
(-1.66925e-14 0.150025 15.762)
(-2.5869e-14 0.0368652 15.4128)
(-3.94455e-14 0.128554 15.3097)
(-7.15957e-14 0.210874 14.7162)
(-8.72083e-14 0.190235 13.8296)
(-4.84479e-14 0.200953 13.1414)
(-6.41283e-14 0.237907 12.5082)
(-1.17108e-13 0.23633 11.96)
(-1.07865e-13 0.168869 11.5789)
(1.11536e-14 0.0732809 11.3949)
(4.73846e-14 0.00777625 11.3855)
(-1.62201e-14 0.00979198 11.4317)
(-4.29599e-14 0.0745636 11.3521)
(-2.7447e-14 0.142001 11.1553)
(-1.26709e-14 0.28569 10.6959)
(-4.06909e-15 0.486134 9.91009)
(-9.28012e-15 0.687762 8.85647)
(1.51767e-14 0.866525 7.66342)
(2.22246e-15 1.00242 6.3949)
(-5.1603e-14 1.22141 5.0896)
(-8.34905e-14 1.75259 3.70051)
(-8.72391e-14 2.86046 2.40611)
(-2.40324e-14 3.92008 0.94436)
(4.08939e-14 4.2295 -2.69752)
(7.06855e-14 3.68157 -5.1206)
(4.48459e-14 2.21195 -8.93328)
(5.06458e-14 0.942786 -12.7121)
(6.95154e-14 0.35651 -14.3834)
(9.93794e-14 0.0825839 -15.1063)
(1.13758e-13 -0.194884 -15.3509)
(1.06713e-13 -0.504235 -15.0252)
(1.35731e-13 -0.695402 -14.3379)
(1.4588e-13 -0.594043 -13.5733)
(1.35152e-13 -0.240588 -13.0662)
(9.34603e-14 0.0653061 -13.0891)
(7.07562e-14 0.247289 -13.1576)
(6.47659e-14 0.326763 -13.2217)
(4.92328e-14 0.333596 -13.4524)
(4.16442e-14 0.255647 -13.8291)
(4.845e-14 0.198536 -14.129)
(7.1657e-14 0.163128 -14.3359)
(6.6311e-14 0.160726 -14.4695)
(8.15011e-14 0.174355 -14.5663)
(1.50511e-13 0.174458 -14.6728)
(1.9348e-13 0.146809 -14.7856)
(3.11895e-13 0.0889788 -14.8648)
(4.40936e-13 0.00879282 -14.8682)
(5.68519e-13 -0.0817236 -14.7936)
(6.80868e-13 -0.202082 -14.6198)
(7.71714e-13 -0.380051 -14.3561)
(8.37976e-13 -0.614899 -13.96)
(8.91224e-13 -0.843698 -13.4535)
(9.42255e-13 -1.0494 -12.8312)
(9.78572e-13 -1.23188 -12.0795)
(9.91341e-13 -1.34126 -11.1828)
(9.31978e-13 -1.25743 -10.1759)
(7.00867e-13 -0.880895 -9.25734)
(3.20044e-13 -0.100351 -9.30136)
(8.68909e-14 0.444015 -9.57063)
(1.60931e-14 0.26275 -10.0992)
(1.52779e-14 0.0744807 -10.2096)
(-1.2233e-14 0.49032 -9.69779)
(-1.0776e-14 1.26267 -9.23216)
(-1.90662e-14 1.87843 -9.3566)
(1.0565e-15 2.26448 -9.8621)
(6.58423e-15 2.53161 -10.7184)
(-2.98562e-14 2.52032 -12.2348)
(-8.4332e-14 2.02309 -14.4273)
(-1.65655e-13 1.15598 -16.6337)
(-2.4048e-13 0.488601 -17.8378)
(-2.74676e-13 0.414115 -18.0239)
(-2.52965e-13 0.580499 -18.1173)
(-2.41018e-13 0.610895 -18.4589)
(-2.44192e-13 0.565502 -18.827)
(-2.36107e-13 0.527986 -19.1281)
(-2.02662e-13 0.473105 -19.3923)
(-1.87717e-13 0.385296 -19.6214)
(-1.74432e-13 0.269819 -19.7992)
(-1.49835e-13 0.134239 -19.9157)
(-1.31442e-13 -0.017597 -19.9695)
(-1.23503e-13 -0.183353 -19.9602)
(-1.26047e-13 -0.363301 -19.8774)
(-1.26621e-13 -0.567352 -19.7082)
(-1.13078e-13 -0.811276 -19.4496)
(-8.50708e-14 -1.10497 -19.0763)
(-7.47181e-14 -1.44668 -18.5629)
(-7.08563e-14 -1.83558 -17.8908)
(-6.28722e-14 -2.26913 -17.0404)
(-5.54639e-14 -2.74242 -15.9934)
(-5.19582e-14 -3.25018 -14.7344)
(-5.25627e-14 -3.78957 -13.2498)
(-5.39898e-14 -4.36514 -11.5224)
(-4.41209e-14 -5.00292 -9.53938)
(-3.48504e-14 -5.75145 -7.32641)
(-3.04145e-14 -6.63312 -4.9282)
(-2.75047e-14 -7.6084 -2.26277)
(-3.46681e-14 -8.84029 0.444942)
(-4.26212e-14 -9.93463 4.03341)
(-4.51577e-14 -12.0194 7.01878)
(-5.17503e-14 -14.9624 12.1317)
(-2.40174e-14 0.174789 15.5724)
(-7.47515e-15 0.0350473 15.2154)
(-2.10444e-14 0.149573 15.053)
(-7.21149e-14 0.28541 14.5191)
(-1.13425e-13 0.273307 13.5657)
(-3.5758e-14 0.267796 12.7845)
(1.27169e-14 0.293492 12.1461)
(1.863e-14 0.279726 11.637)
(6.73723e-14 0.192703 11.2803)
(1.23222e-13 0.0759548 11.0969)
(3.84242e-14 -0.00214407 11.0839)
(-1.5887e-14 0.00469518 11.1314)
(-2.07686e-14 0.0876373 11.0557)
(-1.7325e-14 0.184021 10.885)
(-2.88217e-14 0.372448 10.3831)
(3.30223e-14 0.610299 9.52324)
(4.26453e-14 0.834865 8.37754)
(-2.73464e-14 1.02794 7.1044)
(-2.06503e-14 1.17291 5.79091)
(-8.65846e-14 1.40419 4.53148)
(-5.18397e-14 1.94426 3.31898)
(-4.73938e-14 3.05718 2.27072)
(-2.55475e-14 4.32876 1.09946)
(3.90101e-14 4.70953 -3.02521)
(7.2922e-14 4.15887 -5.05193)
(6.34557e-14 2.84763 -7.82685)
(8.98226e-14 1.46819 -11.4718)
(9.36502e-14 0.620947 -13.4159)
(7.90655e-14 0.223289 -14.4264)
(1.09847e-13 -0.160441 -15.0141)
(8.23061e-14 -0.590539 -14.6838)
(1.05189e-13 -0.8382 -13.8694)
(1.36502e-13 -0.706707 -13.1614)
(1.59273e-13 -0.293785 -12.9355)
(1.43437e-13 0.0494828 -13.1479)
(1.0638e-13 0.245077 -13.1495)
(9.96884e-14 0.341734 -13.0793)
(7.8857e-14 0.39535 -13.1978)
(7.04372e-14 0.33385 -13.5634)
(7.75375e-14 0.260882 -13.9021)
(9.20585e-14 0.202609 -14.1399)
(6.76658e-14 0.187421 -14.2891)
(1.13655e-13 0.198488 -14.3973)
(1.42951e-13 0.201022 -14.5144)
(2.38226e-13 0.17028 -14.6346)
(3.62336e-13 0.0975337 -14.7079)
(4.88794e-13 -0.0031262 -14.6887)
(5.91239e-13 -0.114134 -14.593)
(6.91933e-13 -0.257441 -14.4087)
(7.46492e-13 -0.460378 -14.1535)
(7.88648e-13 -0.725152 -13.7756)
(8.49209e-13 -0.983107 -13.2893)
(9.5129e-13 -1.22234 -12.6927)
(9.91871e-13 -1.44582 -11.9691)
(1.0172e-12 -1.59543 -11.0868)
(9.94087e-13 -1.51011 -10.0384)
(8.13643e-13 -1.02425 -8.96803)
(4.08233e-13 -0.0355337 -9.0316)
(1.35934e-13 0.623136 -9.37835)
(-8.69281e-16 0.372482 -10.2193)
(4.28194e-15 0.0053945 -10.5847)
(1.96268e-14 0.318707 -10.0804)
(6.57085e-15 1.16283 -9.36691)
(-1.97568e-14 1.91691 -9.20676)
(-1.32382e-14 2.42116 -9.44318)
(-1.57039e-14 2.85447 -9.94875)
(-7.67425e-15 3.08611 -11.0905)
(-5.62487e-14 2.77021 -13.0913)
(-1.48599e-13 1.80449 -15.5414)
(-2.37545e-13 0.787577 -17.3048)
(-2.85052e-13 0.475016 -17.7983)
(-2.58723e-13 0.646986 -17.8375)
(-2.39935e-13 0.733022 -18.1065)
(-2.2817e-13 0.688702 -18.4972)
(-2.21605e-13 0.632141 -18.8326)
(-2.08228e-13 0.563084 -19.1141)
(-1.83017e-13 0.460106 -19.3572)
(-1.58693e-13 0.324357 -19.5522)
(-1.36366e-13 0.165777 -19.6873)
(-1.21374e-13 -0.00988939 -19.7607)
(-1.09206e-13 -0.201127 -19.7738)
(-1.00991e-13 -0.408794 -19.7149)
(-1.02889e-13 -0.643889 -19.5705)
(-9.48566e-14 -0.925996 -19.3414)
(-8.29261e-14 -1.26791 -19.0053)
(-7.44263e-14 -1.66736 -18.5354)
(-6.66263e-14 -2.12292 -17.913)
(-5.94826e-14 -2.63135 -17.1179)
(-5.4619e-14 -3.18685 -16.132)
(-5.21046e-14 -3.78329 -14.9404)
(-5.01157e-14 -4.41754 -13.5313)
(-4.77952e-14 -5.09399 -11.8925)
(-4.21728e-14 -5.83436 -10.0181)
(-3.85839e-14 -6.67699 -7.93212)
(-4.16818e-14 -7.64262 -5.66864)
(-3.47123e-14 -8.72435 -3.17855)
(-3.75573e-14 -10.0699 -0.653382)
(-4.46165e-14 -11.3529 2.48251)
(-5.00569e-14 -13.5007 5.25457)
(-5.31995e-14 -16.193 9.11789)
(-4.57085e-14 0.200661 15.3896)
(-5.10736e-14 0.0428288 15.022)
(-4.31406e-14 0.171424 14.6993)
(-9.65867e-14 0.354283 14.1795)
(-9.55131e-14 0.361103 13.2876)
(-4.03269e-14 0.339418 12.4851)
(-2.8527e-14 0.348106 11.877)
(5.01163e-14 0.321324 11.3973)
(7.65996e-14 0.216723 11.0252)
(2.55884e-14 0.0792938 10.8059)
(-6.17458e-15 -0.0127413 10.7695)
(-1.30631e-14 -0.00262597 10.8132)
(-1.49255e-14 0.0971932 10.7487)
(-1.82185e-14 0.226534 10.602)
(-1.14936e-14 0.464713 10.0769)
(-4.95512e-14 0.741588 9.17588)
(-2.75848e-14 0.990442 7.98688)
(-3.67407e-14 1.19672 6.66057)
(-2.9299e-14 1.34176 5.32571)
(-5.1175e-14 1.56874 4.1497)
(-2.21526e-14 2.10606 3.14525)
(-1.67149e-14 3.22271 2.25029)
(-3.02163e-14 4.75921 1.16777)
(3.11649e-14 5.21382 -3.26783)
(7.10713e-14 4.52767 -5.23742)
(7.62882e-14 3.36159 -7.20286)
(1.0093e-13 1.97962 -10.4069)
(6.4014e-14 0.931014 -12.4521)
(8.06075e-14 0.405608 -13.8133)
(7.86662e-14 -0.174715 -14.9416)
(8.15231e-14 -0.804612 -15.0395)
(9.41169e-14 -1.07615 -14.4924)
(1.25776e-13 -0.797992 -13.4496)
(1.54461e-13 -0.157723 -12.7746)
(1.5996e-13 0.146181 -13.2986)
(1.49973e-13 0.225481 -13.2461)
(1.60919e-13 0.319921 -13.0152)
(1.33143e-13 0.437605 -12.9921)
(1.13873e-13 0.414088 -13.3031)
(1.07015e-13 0.333434 -13.6592)
(1.1497e-13 0.249838 -13.9522)
(9.51383e-14 0.21903 -14.1313)
(1.03778e-13 0.226336 -14.2554)
(1.40416e-13 0.229758 -14.3808)
(2.56362e-13 0.193968 -14.4962)
(3.98989e-13 0.104402 -14.5533)
(5.43093e-13 -0.0162191 -14.515)
(6.52443e-13 -0.145778 -14.4062)
(7.1206e-13 -0.309724 -14.2272)
(7.87496e-13 -0.536271 -13.9892)
(8.58517e-13 -0.830316 -13.6302)
(9.00892e-13 -1.11631 -13.1652)
(9.75138e-13 -1.38771 -12.5959)
(1.01761e-12 -1.65342 -11.904)
(1.04576e-12 -1.85317 -11.0469)
(1.04663e-12 -1.79107 -9.97208)
(9.42227e-13 -1.2041 -8.70886)
(5.43263e-13 0.0325847 -8.63843)
(2.06159e-13 0.864898 -8.98029)
(2.59605e-14 0.584033 -10.1553)
(3.01762e-15 -0.00520273 -10.8786)
(3.06175e-14 0.121407 -10.5048)
(5.33613e-14 0.992589 -9.65829)
(4.45963e-14 1.88159 -9.25861)
(2.57207e-14 2.48903 -9.30544)
(8.26073e-15 3.06147 -9.53735)
(1.21066e-14 3.5375 -10.2957)
(-1.86257e-14 3.48207 -11.9331)
(-1.0495e-13 2.5608 -14.3348)
(-2.11312e-13 1.24621 -16.5531)
(-2.76302e-13 0.600429 -17.5124)
(-2.67319e-13 0.697501 -17.6066)
(-2.41661e-13 0.84325 -17.7816)
(-2.22452e-13 0.82238 -18.1663)
(-2.04891e-13 0.749315 -18.541)
(-1.85784e-13 0.662846 -18.8501)
(-1.77075e-13 0.545535 -19.1114)
(-1.59985e-13 0.392437 -19.3257)
(-1.37066e-13 0.21369 -19.4825)
(-1.18027e-13 0.0165056 -19.579)
(-9.95338e-14 -0.199251 -19.6177)
(-9.60915e-14 -0.435262 -19.5868)
(-9.51195e-14 -0.702082 -19.4719)
(-8.53382e-14 -1.02155 -19.276)
(-7.82735e-14 -1.40989 -18.9823)
(-6.83615e-14 -1.86493 -18.5613)
(-6.23992e-14 -2.38468 -17.9945)
(-5.66915e-14 -2.96557 -17.2612)
(-5.27744e-14 -3.60116 -16.3436)
(-5.03415e-14 -4.28438 -15.2274)
(-4.75331e-14 -5.01115 -13.902)
(-4.10844e-14 -5.78457 -12.3591)
(-3.83588e-14 -6.62196 -10.5975)
(-3.90497e-14 -7.55334 -8.63959)
(-4.14082e-14 -8.59696 -6.51253)
(-4.30628e-14 -9.76338 -4.19448)
(-4.19669e-14 -11.1837 -1.85735)
(-4.96441e-14 -12.6112 0.860812)
(-5.04587e-14 -14.728 3.31936)
(-5.37527e-14 -17.1315 6.1927)
(-5.1357e-14 0.225372 15.2151)
(-8.75125e-14 0.0596716 14.7581)
(-8.56834e-14 0.199374 14.1971)
(-1.18654e-13 0.416911 13.6652)
(-5.07618e-14 0.445879 12.9785)
(3.98365e-14 0.409374 12.2749)
(1.34447e-14 0.400796 11.733)
(4.53883e-18 0.365621 11.2602)
(2.80755e-14 0.246845 10.8386)
(1.16117e-16 0.0878255 10.5579)
(-2.26063e-14 -0.0213947 10.4859)
(-3.68147e-14 -0.011022 10.5269)
(-2.40875e-14 0.105089 10.4816)
(-1.65311e-14 0.269863 10.35)
(-1.18237e-14 0.560439 9.80462)
(-3.17128e-14 0.876485 8.87401)
(-3.31948e-14 1.15036 7.67093)
(1.57504e-14 1.36989 6.30261)
(5.78224e-14 1.50466 4.95961)
(-3.10045e-14 1.70868 3.88953)
(-2.02391e-14 2.24278 3.11631)
(-6.26409e-15 3.37943 2.28472)
(-3.59669e-14 5.20258 1.13908)
(5.35041e-14 5.74423 -3.29988)
(5.25833e-14 4.84129 -5.41698)
(6.34648e-14 3.76449 -6.8771)
(7.7595e-14 2.44113 -9.51321)
(9.23592e-14 1.27356 -11.4517)
(6.20626e-14 0.711368 -13.0214)
(6.45274e-14 0.0362189 -14.5826)
(9.26818e-14 -0.766815 -14.9091)
(6.71898e-14 -1.19891 -14.2067)
(1.21756e-13 -1.04725 -13.1231)
(1.61054e-13 -0.253075 -12.4393)
(1.65791e-13 0.176772 -13.2044)
(1.86311e-13 0.184202 -13.3291)
(2.14654e-13 0.284448 -13.0569)
(1.8897e-13 0.459829 -12.8859)
(1.56778e-13 0.482348 -13.104)
(1.10141e-13 0.413297 -13.4143)
(6.23202e-14 0.309167 -13.7673)
(5.32211e-14 0.256221 -13.993)
(1.06216e-13 0.256081 -14.1342)
(1.63072e-13 0.257302 -14.2618)
(2.98071e-13 0.213538 -14.3646)
(4.49003e-13 0.106414 -14.4019)
(5.88891e-13 -0.0325479 -14.3521)
(6.94135e-13 -0.177759 -14.2405)
(7.64549e-13 -0.359393 -14.0756)
(8.23995e-13 -0.608313 -13.8608)
(8.84672e-13 -0.930846 -13.5217)
(9.43119e-13 -1.24361 -13.0805)
(9.97017e-13 -1.54578 -12.5401)
(1.04503e-12 -1.85385 -11.8817)
(1.07948e-12 -2.11185 -11.0582)
(1.09511e-12 -2.10374 -9.98046)
(1.02086e-12 -1.44774 -8.5291)
(6.93492e-13 0.0656555 -8.14523)
(3.55383e-13 1.15026 -8.42236)
(1.31119e-13 0.903418 -9.89449)
(2.92459e-14 0.07012 -11.0672)
(7.64684e-15 -0.0619421 -10.9468)
(5.41779e-14 0.777606 -10.091)
(8.53071e-14 1.78809 -9.47123)
(8.28003e-14 2.49162 -9.36813)
(4.56688e-14 3.16966 -9.41117)
(3.36426e-14 3.85887 -9.82532)
(7.737e-15 4.09162 -11.022)
(-6.56339e-14 3.34776 -13.1326)
(-1.77301e-13 1.85942 -15.5937)
(-2.65198e-13 0.83591 -17.0951)
(-2.77e-13 0.753418 -17.3986)
(-2.45421e-13 0.933925 -17.4991)
(-2.035e-13 0.95902 -17.8422)
(-1.91669e-13 0.879175 -18.2494)
(-1.97267e-13 0.77137 -18.5962)
(-1.8048e-13 0.636391 -18.882)
(-1.579e-13 0.464889 -19.1181)
(-1.44019e-13 0.265087 -19.2991)
(-1.1541e-13 0.0458324 -19.4221)
(-9.35151e-14 -0.193891 -19.4899)
(-8.73987e-14 -0.456774 -19.4923)
(-8.89624e-14 -0.752988 -19.4133)
(-8.04501e-14 -1.10703 -19.2545)
(-6.3086e-14 -1.53844 -19.0086)
(-5.71475e-14 -2.0462 -18.6422)
(-5.19187e-14 -2.62743 -18.1369)
(-4.86007e-14 -3.27816 -17.4718)
(-4.86758e-14 -3.99104 -16.6288)
(-4.78761e-14 -4.75775 -15.5942)
(-4.24159e-14 -5.57286 -14.3586)
(-3.49019e-14 -6.43779 -12.9162)
(-3.36221e-14 -7.36579 -11.2693)
(-3.959e-14 -8.38016 -9.43933)
(-4.57824e-14 -9.49623 -7.45044)
(-4.32244e-14 -10.731 -5.3037)
(-4.49035e-14 -12.189 -3.13729)
(-4.79146e-14 -13.706 -0.784693)
(-5.24392e-14 -15.7287 1.30394)
(-5.41952e-14 -17.8451 3.41749)