/*--------------------------------*- C++ -*----------------------------------*\
| =========                 |                                                 |
| \\      /  F ield         | OpenFOAM: The Open Source CFD Toolbox           |
|  \\    /   O peration     | Version:  4.1                                   |
|   \\  /    A nd           | Web:      www.OpenFOAM.org                      |
|    \\/     M anipulation  |                                                 |
\*---------------------------------------------------------------------------*/
FoamFile
{
    version     2.0;
    format      ascii;
    class       volScalarField;
    location    "600";
    object      p;
}
// * * * * * * * * * * * * * * * * * * * * * * * * * * * * * * * * * * * * * //

dimensions      [0 2 -2 0 0 0 0];

internalField   nonuniform List<scalar> 
26785
(
77.5449
77.6326
77.4539
77.3866
77.4159
77.5142
77.7076
78.1781
79.1326
80.671
82.6511
84.7998
86.9729
89.2529
91.697
94.1898
96.6245
98.9174
100.996
102.785
104.237
105.18
105.507
105.077
103.822
101.628
98.4381
94.4331
89.8843
85.07
80.5087
77.7448
78.189
82.3476
90.0907
99.6218
109.271
118.231
126.247
133.301
139.448
144.73
149.164
152.708
155.199
156.433
156.052
153.647
149.124
142.733
134.903
126.131
116.891
107.571
98.4656
89.8018
81.7855
74.6209
68.5009
63.557
59.7865
57.0357
55.0464
53.5385
52.2816
51.1186
49.9539
48.7333
47.4215
45.9751
44.3152
42.3166
39.8383
36.787
33.2096
29.4531
26.197
24.0435
23.2832
23.8887
25.4228
27.3462
29.2782
31.0192
32.4914
33.6811
34.6012
35.267
35.6881
35.8565
35.731
35.2433
34.2298
32.4119
29.2522
24.2073
17.8698
11.4084
6.19833
1.50531
77.5372
77.6262
77.4505
77.3842
77.4137
77.512
77.7048
78.1746
79.1266
80.6607
82.6346
84.7806
86.9561
89.2398
91.6803
94.1684
96.5981
98.8862
100.96
102.745
104.194
105.133
105.457
105.024
103.768
101.57
98.3764
94.3679
89.813
84.9911
80.4045
77.6059
78.027
82.1596
89.9307
99.5087
109.194
118.177
126.208
133.274
139.432
144.727
149.177
152.744
155.262
156.525
156.165
153.755
149.203
142.773
134.905
126.103
116.842
107.511
98.3987
89.7294
81.7065
74.5346
68.4096
63.4677
59.7086
56.9763
55.0082
53.519
52.2765
51.1232
49.9647
48.7481
47.4404
45.9997
44.3469
42.3535
39.872
36.8045
33.1945
29.3818
26.0578
23.8537
23.06
23.6695
25.2348
27.1938
29.1556
30.9193
32.409
33.6135
34.5477
35.2287
35.668
35.8601
35.7649
35.321
34.3697
32.6252
29.4918
24.3308
17.813
11.234
6.02103
1.42754
77.5185
77.6126
77.4437
77.3792
77.4092
77.5075
77.6994
78.1676
79.1148
80.6417
82.6074
84.7465
86.9232
89.2108
91.644
94.1232
96.5438
98.8234
100.889
102.667
104.111
105.044
105.363
104.926
103.669
101.468
98.2702
94.2607
89.703
84.8819
80.2599
77.379
77.7308
81.7952
89.6134
99.2816
109.038
118.067
126.128
133.216
139.398
144.72
149.203
152.816
155.388
156.706
156.387
153.967
149.36
142.857
134.918
126.06
116.762
107.409
98.2843
89.6041
81.5681
74.3811
68.2443
63.304
59.5643
56.8655
54.9359
53.4811
52.2645
51.1284
49.9797
48.7682
47.4644
46.0302
44.3875
42.4055
39.9303
36.8592
33.2281
29.352
25.9208
23.6246
22.7453
23.3288
24.9229
26.9273
28.9314
30.7296
32.2478
33.4778
34.4377
35.1471
35.6204
35.8572
35.8192
35.4576
34.6218
33.0097
29.9306
24.554
17.6988
10.903
5.69282
1.27614
77.4886
77.5919
77.4334
77.3713
77.402
77.5005
77.6913
78.1567
79.096
80.6114
82.566
84.6968
86.874
89.1624
91.585
94.0522
96.4603
98.7281
100.782
102.55
103.988
104.912
105.226
104.784
103.528
101.326
98.1265
94.1204
89.5643
84.7546
80.101
77.1231
77.3899
81.3461
89.199
98.9709
108.815
117.905
126.007
133.131
139.347
144.709
149.241
152.92
155.57
156.965
156.704
154.271
149.589
142.984
134.948
126.011
116.658
107.271
98.1267
89.429
81.3724
74.1616
68.0061
63.0669
59.3547
56.7039
54.8289
53.4221
52.2407
51.1274
49.9913
48.7855
47.4861
46.06
44.432
42.4687
40.0091
36.944
33.3029
29.3704
25.8245
23.4257
22.4251
22.9455
24.5484
26.5916
28.6384
30.4748
32.0269
33.289
34.2825
35.0296
35.5487
35.8462
35.8851
35.6354
34.9599
33.5304
30.5445
24.858
17.5137
10.4065
5.21185
1.04423
77.4495
77.5654
77.4195
77.3599
77.3917
77.4906
77.6804
78.1414
79.07
80.569
82.5087
84.6312
86.8083
89.0941
91.5035
93.956
96.3492
98.6028
100.643
102.399
103.83
104.743
105.052
104.606
103.354
101.152
97.9552
93.9587
89.411
84.6259
79.9472
76.856
77.0179
80.8414
88.72
98.6024
108.543
117.701
125.854
133.021
139.282
144.696
149.289
153.051
155.8
157.291
157.103
154.658
149.882
143.151
134.989
125.948
116.522
107.093
97.9231
89.205
81.1238
73.8838
67.7042
62.7657
59.0886
56.4988
54.6925
53.345
52.2064
51.1203
49.9987
48.7985
47.5026
46.0843
44.4725
42.533
40.0977
37.0511
33.4157
29.4444
25.7935
23.2862
22.1528
22.5827
24.1673
26.23
28.3077
30.1765
31.7608
33.0562
34.0869
34.8773
35.4496
35.8189
35.9475
35.8307
35.3517
34.147
31.2967
25.1917
17.2001
9.68849
4.53407
0.720561
77.4038
77.5335
77.4012
77.3443
77.3776
77.4775
77.6659
78.1208
79.0355
80.513
82.4334
84.5481
86.725
89.0052
91.3991
93.8348
96.211
98.4484
100.473
102.215
103.639
104.54
104.843
104.395
103.15
100.953
97.7641
93.7845
89.252
84.5055
79.813
76.6024
76.6396
80.3178
88.2127
98.2043
108.242
117.469
125.676
132.891
139.206
144.68
149.344
153.203
156.067
157.666
157.57
155.113
150.228
143.345
135.029
125.86
116.348
106.871
97.6775
88.9401
80.8326
73.558
67.347
62.4068
58.7705
56.2529
54.528
53.2499
52.1607
51.1055
49.9998
48.8047
47.511
46.0998
44.5053
42.5934
40.1894
37.1701
33.553
29.5632
25.8269
23.2098
21.9512
22.2777
23.8177
25.8753
27.9657
29.8549
31.4647
32.7906
33.8584
34.6939
35.3224
35.7693
35.9934
36.0208
35.7633
34.8229
32.1378
25.4894
16.6896
8.6877
3.60608
0.305125
77.3551
77.4958
77.3775
77.3234
77.3593
77.4608
77.6474
78.0942
78.9917
80.443
82.3391
84.4463
86.6232
88.8958
91.2722
93.6892
96.0467
98.2662
100.274
102.001
103.415
104.304
104.602
104.154
102.921
100.734
97.5591
93.6049
89.0953
84.402
79.7072
76.3747
76.2696
79.7971
87.7011
97.7975
107.926
117.221
125.481
132.747
139.119
144.659
149.4
153.366
156.362
158.079
158.092
155.624
150.611
143.548
135.052
125.738
116.133
106.609
97.3968
88.6432
80.508
73.1926
66.9412
61.9951
58.4043
55.9683
54.3361
53.1391
52.1071
51.0852
49.9952
48.804
47.5103
46.104
44.5264
42.6446
40.2781
37.2948
33.7065
29.7154
25.918
23.2045
21.8344
22.0544
23.5259
25.5519
27.6327
29.5265
31.1515
32.5016
33.6031
34.4823
35.166
35.6912
36.0098
36.181
36.1595
35.5162
32.9967
25.6972
15.9699
7.43663
2.46185
-0.163513
77.3023
77.4517
77.3472
77.2967
77.3366
77.4401
77.6245
78.0611
78.9383
80.359
82.2258
84.3237
86.5017
88.7666
91.1236
93.5202
95.8574
98.0574
100.046
101.758
103.162
104.038
104.331
103.886
102.67
100.498
97.3449
93.4255
88.9465
84.3212
79.6382
76.1849
75.93
79.3011
87.207
97.4003
107.611
116.965
125.276
132.592
139.023
144.632
149.454
153.534
156.674
158.515
158.654
156.173
151.01
143.743
135.046
125.576
115.874
106.309
97.0864
88.3214
80.1578
72.7947
66.4916
61.5335
57.9891
55.6415
54.1141
53.0125
52.0477
51.0626
49.9871
48.7971
47.4998
46.0955
44.5332
42.6832
40.3594
37.4197
33.8689
29.8908
26.0603
23.276
21.8077
21.9236
23.3073
25.2756
27.3235
29.2039
30.8315
32.1972
33.3266
34.2449
34.9791
35.5789
35.9857
36.286
36.5079
36.1658
33.7961
25.8082
15.1271
6.07353
1.22836
-0.633167
77.2446
77.4004
77.3092
77.2638
77.3091
77.4153
77.5968
78.021
78.875
80.2615
82.0941
84.1787
86.3587
88.6176
90.9546
93.329
95.6442
97.8234
99.7927
101.487
102.88
103.742
104.032
103.592
102.399
100.247
97.1252
93.2508
88.8102
84.268
79.6116
76.0395
75.6342
78.8443
86.7471
97.027
107.305
116.71
125.065
132.428
138.917
144.596
149.499
153.698
156.992
158.961
159.246
156.741
151.405
143.912
134.998
125.365
115.571
105.973
96.7513
87.982
79.79
72.3717
66.0025
61.0245
57.5212
55.2676
53.861
52.8714
51.9842
51.0413
49.981
48.7892
47.4816
46.073
44.5233
42.7055
40.4298
37.5411
34.0352
30.0819
26.2431
23.417
21.867
21.8862
23.1681
25.0556
27.0478
28.8965
30.513
31.884
33.0334
33.9844
34.7615
35.4279
35.9121
36.3123
36.7756
36.6909
34.4773
25.886
14.3554
4.80801
0.0648609
-1.048
77.1812
77.3412
77.2632
77.2247
77.2766
77.3859
77.5642
77.9738
78.8017
80.1508
81.9456
84.0115
86.192
88.4478
90.7664
93.1167
95.4084
97.5652
99.5143
101.191
102.572
103.419
103.706
103.276
102.11
99.9845
96.9026
93.0839
88.6894
84.246
79.6325
75.9438
75.3899
78.4369
86.3341
96.6888
107.02
116.462
124.853
132.258
138.803
144.55
149.531
153.853
157.306
159.406
159.85
157.303
151.771
144.037
134.897
125.099
115.221
105.606
96.4004
87.6364
79.4162
71.9338
65.4801
60.4703
56.9969
54.8416
53.5759
52.7166
51.9179
51.0228
49.9795
48.7849
47.4618
46.039
44.4944
42.7086
40.4861
37.6557
34.2015
30.2831
26.4558
23.6183
22.0069
21.9381
23.1089
24.8954
26.811
28.6103
30.2018
31.5673
32.7276
33.7032
34.5133
35.2354
35.7831
36.2416
36.9301
37.0233
35.0095
26.035
13.8968
3.93669
-0.825312
-1.36006
77.1117
77.2738
77.2094
77.1796
77.2388
77.3517
77.5263
77.9194
78.7186
80.0276
81.7817
83.824
86.0006
88.2552
90.559
92.8848
95.1511
97.2842
99.2126
100.872
102.238
103.07
103.356
102.939
101.804
99.7115
96.6788
92.9271
88.5864
84.2579
79.7053
75.9011
75.2021
78.0865
85.9781
96.3945
106.76
116.225
124.643
132.083
138.679
144.49
149.545
153.99
157.607
159.839
160.448
157.833
152.086
144.101
134.731
124.775
114.83
105.22
96.0502
87.3024
79.0538
71.496
64.9344
59.8718
56.4139
54.3605
53.2586
52.5497
51.8508
51.0086
49.9845
48.7867
47.4453
46.0002
44.45
42.6892
40.525
37.7607
34.3648
30.4923
26.6934
23.8731
22.2225
22.0724
23.1253
24.794
26.6149
28.3489
29.9024
31.2513
32.413
33.4042
34.2357
35.0006
35.5964
36.065
36.9473
37.1516
35.3875
26.2922
13.7794
3.54429
-1.24543
-1.49521
77.0375
77.1984
77.1483
77.1284
77.1958
77.3127
77.4833
77.8583
78.6262
79.8923
81.6034
83.6186
85.7851
88.0369
90.3305
92.6343
94.8735
96.9817
98.8892
100.531
101.882
102.699
102.984
102.584
101.485
99.4295
96.4553
92.7819
88.503
84.3055
79.8349
75.9153
75.0753
77.7996
85.6869
96.1504
106.531
116.005
124.437
131.904
138.546
144.415
149.536
154.105
157.891
160.248
161.015
158.297
152.321
144.084
134.493
124.401
114.417
104.838
95.726
87.005
78.7262
71.0794
64.3815
59.2317
55.7702
53.8226
52.9094
52.3724
51.7851
51.0009
49.9975
48.7971
47.4356
45.9636
44.3962
42.6487
40.5438
37.8538
34.5231
30.7088
26.9542
24.1741
22.5091
22.2797
23.2096
24.7475
26.4588
28.1139
29.6175
30.9395
32.0926
33.09
33.931
34.7248
35.3528
35.7901
36.8147
37.1487
35.6136
26.6798
14.0301
3.47983
-1.10641
-1.43508
76.9555
77.1156
77.0807
77.0716
77.1475
77.2686
77.4351
77.7908
78.5253
79.7461
81.412
83.3972
85.5488
87.7925
90.0768
92.3635
94.5768
96.6592
98.5456
100.17
101.505
102.307
102.595
102.215
101.153
99.1403
96.2339
92.6507
88.4414
84.3903
80.0265
75.9905
75.0142
77.5821
85.4665
95.9615
106.337
115.803
124.239
131.724
138.404
144.324
149.503
154.19
158.149
160.621
161.525
158.658
152.447
143.975
134.193
124.001
114.013
104.492
95.4572
86.7722
78.4605
70.7107
63.844
58.5604
55.0698
53.2298
52.5309
52.1882
51.7237
51.0021
50.0208
48.8175
47.4367
45.9334
44.3384
42.5964
40.5405
37.9327
34.6719
30.9271
27.2296
24.5013
22.8575
22.5483
23.3517
24.7493
26.3399
27.9052
29.3488
30.6342
31.7695
32.7639
33.6031
34.4108
35.0588
35.428
36.5501
37.0638
35.6016
27.2458
15.025
4.18185
-0.601759
-1.15456
76.8644
77.0262
77.0071
77.0095
77.0942
77.2197
77.382
77.7177
78.417
79.5903
81.2086
83.1614
85.2945
87.5249
89.7965
92.0688
94.2605
96.3181
98.1831
99.7907
101.11
101.899
102.192
101.835
100.81
98.8455
96.0173
92.5366
88.4048
84.5142
80.2861
76.1314
75.0229
77.4399
85.322
95.831
106.18
115.622
124.05
131.543
138.254
144.217
149.442
154.242
158.377
160.938
161.94
158.867
152.442
143.778
133.853
123.607
113.651
104.213
95.2695
86.629
78.2827
70.4189
63.3507
57.876
54.3271
52.59
52.1289
52.0019
51.6705
51.0149
50.0563
48.8502
47.4505
45.9134
44.2866
42.5383
40.5138
37.9947
34.8067
31.1454
27.5261
24.8337
23.2495
22.8652
23.5402
24.7919
26.2543
27.7218
29.0972
30.3377
31.4466
32.4288
33.2561
34.0645
34.7218
34.9865
36.1884
36.8283
35.1658
27.7281
16.8271
6.68399
1.26131
-0.429077
76.7653
76.9312
76.9282
76.9424
77.0362
77.166
77.3244
77.6398
78.3028
79.4264
80.9951
82.9127
85.0245
87.2377
89.4909
91.747
93.9217
95.9589
97.803
99.3945
100.698
101.477
101.778
101.448
100.46
98.5474
95.8084
92.4413
88.3954
84.6799
80.6215
76.3451
75.1055
77.3793
85.2575
95.7613
106.063
115.466
123.873
131.364
138.098
144.096
149.353
154.254
158.563
161.19
162.209
158.886
152.302
143.507
133.501
123.251
113.358
104.017
95.177
86.5902
78.2109
70.2288
62.9344
57.2052
53.5685
51.9191
51.7135
51.8207
51.6299
51.0424
50.1064
48.8968
47.4785
45.909
44.2468
42.4761
40.4717
38.0377
34.9274
31.3701
27.8812
25.1901
23.669
23.2183
23.7636
24.8669
26.1975
27.562
28.8628
30.0515
31.1268
32.0889
32.8956
33.6926
34.3444
34.5048
35.6516
36.4075
34.3706
27.8182
18.289
9.40206
3.92866
0.817607
76.6587
76.8312
76.8444
76.8709
76.974
77.108
77.2628
77.5582
78.1841
79.2565
80.7733
82.6533
84.7406
86.9335
89.164
91.3978
93.5557
95.5789
97.4061
98.9828
100.271
101.044
101.358
101.056
100.104
98.2483
95.6088
92.3614
88.4133
84.8925
81.0431
76.6431
75.2671
77.4074
85.2768
95.7538
105.987
115.335
123.71
131.19
137.937
143.96
149.234
154.224
158.692
161.375
162.271
158.704
152.041
143.19
133.165
122.951
113.142
103.91
95.1799
86.6564
78.2499
70.1534
62.6235
56.5803
52.8323
51.2426
51.2998
51.654
51.6078
51.0884
50.1736
48.9593
47.5223
45.9222
44.2204
42.4173
40.4295
38.0634
35.0405
31.6011
28.2919
25.6018
24.1119
23.596
24.0106
24.9661
26.1643
27.4237
28.6459
29.7776
30.8128
31.7459
32.5255
33.3054
33.9303
34.0173
34.9839
35.7204
33.4121
27.5653
19.2028
11.3766
6.02783
1.80229
76.5506
76.727
76.7565
76.7955
76.908
77.046
77.1979
77.4743
78.0626
79.0827
80.5459
82.3856
84.4453
86.6146
88.819
91.0256
93.1614
95.1724
96.9897
98.5565
99.8322
100.602
100.933
100.661
99.7453
97.9504
95.4165
92.2904
88.4597
85.1551
81.5585
77.042
75.5122
77.5329
85.3835
95.8094
105.953
115.232
123.563
131.023
137.776
143.814
149.086
154.148
158.746
161.495
162.093
158.351
151.69
142.852
132.862
122.715
113.004
103.886
95.2675
86.8156
78.3899
70.1892
62.4348
56.0285
52.1557
50.5913
50.9066
51.513
51.6107
51.1567
50.2607
49.0397
47.5834
45.9547
44.2116
42.3753
40.3925
38.0699
35.1483
31.8337
28.7144
26.0705
24.5686
23.9835
24.2701
25.082
26.1506
27.305
28.4456
29.5149
30.5056
31.4052
32.1578
32.9019
33.463
33.5336
34.2843
34.7446
32.3221
27.002
19.6695
12.7626
7.5732
2.49463
76.438
76.6192
76.6648
76.7167
76.8389
76.9807
77.1306
77.3892
77.9401
78.9071
80.3152
82.1124
84.1415
86.2838
88.4585
90.6339
92.7426
94.7374
96.5484
98.113
99.3815
100.153
100.506
100.263
99.386
97.6549
95.2286
92.2271
88.5364
85.46
82.1649
77.5618
75.841
77.765
85.5815
95.9284
105.963
115.159
123.435
130.866
137.617
143.66
148.915
154.023
158.7
161.545
161.715
157.876
151.277
142.513
132.601
122.546
112.941
103.934
95.4249
87.0499
78.6133
70.3207
62.3709
55.5637
51.5568
49.992
50.5538
51.4099
51.6456
51.2512
50.3701
49.14
47.6636
46.0077
44.2261
42.3584
40.3588
38.0597
35.2522
32.0707
29.1067
26.5751
25.018
24.3662
24.532
25.2069
26.1503
27.2023
28.2614
29.2685
30.2133
31.0668
31.7727
32.4554
32.928
33.0029
33.5187
33.5423
31.1522
26.2326
19.7631
13.6208
8.63148
2.97011
76.3207
76.5083
76.5701
76.6352
76.7672
76.9126
77.0615
77.3041
77.8183
78.7318
80.0837
81.8364
83.8323
85.9445
88.0859
90.226
92.3034
94.2768
96.0788
97.6458
98.9166
99.6966
100.075
99.8642
99.0285
97.3615
95.0458
92.1766
88.6399
85.791
82.8528
78.2025
76.2213
78.1082
85.8743
96.1109
106.018
115.118
123.33
130.724
137.464
143.503
148.723
153.856
158.515
161.489
161.21
157.323
150.828
142.187
132.391
122.447
112.95
104.047
95.6394
87.3435
78.9058
70.5346
62.4291
55.1995
51.0319
49.4627
50.2606
51.357
51.7192
51.3759
50.5042
49.2618
47.764
46.0813
44.2651
42.365
40.3362
38.0548
35.3734
32.3614
29.4586
27.0551
25.4433
24.7308
24.7867
25.3354
26.1628
27.1175
28.0936
29.0277
29.9074
30.6973
31.3475
31.9587
32.3215
32.3773
32.6619
32.2621
29.8914
25.3559
19.579
14.0557
9.28427
3.26892
76.2
76.395
76.4728
76.5515
76.6936
76.8422
76.9913
77.2201
77.6982
78.5586
79.8537
81.5601
83.5208
85.6002
87.7049
89.8057
91.8478
93.7952
95.5836
97.1508
98.4294
99.2292
99.6403
99.4639
98.6728
97.0697
94.873
92.1422
88.7555
86.1399
83.5971
78.8691
76.4733
78.5422
86.2644
96.3562
106.118
115.111
123.249
130.6
137.323
143.347
148.52
153.649
158.181
161.235
160.604
156.717
150.36
141.885
132.238
122.42
113.03
104.22
95.9019
87.6852
79.2613
70.8301
62.6224
54.9694
50.5699
49.0135
50.0456
51.3662
51.8381
51.5342
50.6649
49.4065
47.8853
46.1754
44.3293
42.398
40.3361
38.0732
35.5091
32.6874
29.8183
27.463
25.8341
25.075
25.0343
25.4649
26.1754
27.0263
27.9134
28.7684
29.5753
30.2909
30.8768
31.3994
31.6416
31.64
31.6882
30.9487
28.5638
24.3883
19.1741
14.1659
9.6378
3.43369
76.0764
76.2798
76.3737
76.4664
76.6185
76.77
76.9203
77.1376
77.581
78.3887
79.6268
81.2858
83.2095
85.2541
87.3194
89.3774
91.3798
93.2969
95.0674
96.6308
97.9159
98.7421
99.1953
99.0609
98.317
96.7805
94.7158
92.1176
88.8695
86.5157
84.3186
79.3769
76.4223
79.06
86.7606
96.6645
106.264
115.14
123.197
130.499
137.2
143.196
148.32
153.415
157.798
160.702
159.861
156.068
149.886
141.614
132.147
122.467
113.179
104.449
96.207
88.0684
79.6792
71.2177
62.9799
54.9323
50.1892
48.6665
49.9323
51.4498
52.0081
51.7287
50.8533
49.5748
48.0279
46.2902
44.4184
42.4556
40.3655
38.1403
35.6877
32.9664
30.1695
27.8176
26.1991
25.3941
25.2631
25.5899
26.1888
26.9291
27.7158
28.4856
29.214
29.8431
30.3494
30.7632
30.8885
30.8011
30.6156
29.6277
27.2411
23.3728
18.6268
14.0599
9.77873
3.50062
75.9525
76.1631
76.2732
76.3802
76.5424
76.6964
76.8488
77.0575
77.4672
78.2231
79.4042
81.0149
82.9006
84.9088
86.933
88.9453
90.9043
92.7865
94.5349
96.0909
97.38
98.2331
98.7321
98.648
97.9572
96.4991
94.5795
92.0962
88.9896
86.94
84.9563
79.7238
76.5087
79.7537
87.3708
97.034
106.457
115.207
123.177
130.426
137.099
143.059
148.125
153.18
157.347
159.929
159.023
155.395
149.422
141.382
132.118
122.588
113.399
104.734
96.5533
88.4904
80.1556
71.7004
63.5146
55.1607
49.9436
48.4759
49.947
51.6184
52.2335
51.9612
51.0702
49.7668
48.1915
46.4263
44.5304
42.5381
40.4341
38.2432
35.8755
33.1889
30.448
28.1409
26.5448
25.7115
25.4996
25.7155
26.194
26.8163
27.4979
28.1779
28.8139
29.3424
29.7561
30.0524
30.0722
29.8886
29.4941
28.3299
25.9681
22.362
18.0035
13.8118
9.76915
3.49659
75.8268
76.0455
76.1719
76.2933
76.4656
76.6216
76.7771
76.9799
77.3574
78.0623
79.1867
80.7484
82.5954
84.5665
86.5483
88.5132
90.4261
92.2692
93.991
95.5357
96.8264
97.7064
98.2512
98.2195
97.5865
96.2283
94.4639
92.0772
89.1379
87.4211
85.5372
80.2343
77.0991
80.6281
88.07
97.4606
106.699
115.315
123.195
130.388
137.025
142.94
147.944
152.993
156.942
159.029
158.16
154.721
148.975
141.19
132.148
122.779
113.686
105.075
96.9444
88.9502
80.6764
72.2608
64.2017
55.6841
49.8712
48.5105
50.1101
51.8772
52.5157
52.2319
51.3149
49.9813
48.3758
46.5821
44.6606
42.6468
40.5468
38.3729
36.0177
33.3599
30.6942
28.4548
26.897
26.0338
25.7306
25.8262
26.1789
26.683
27.2571
27.8345
28.3624
28.7855
29.103
29.2858
29.2122
28.9325
28.3642
27.074
24.7532
21.3731
17.3391
13.4688
9.6509
3.44066
75.6996
75.9273
76.0699
76.2061
76.3885
76.546
76.7053
76.9052
77.2518
77.9069
78.9747
80.4868
82.2947
84.2285
86.1674
88.0839
89.949
91.75
93.4413
94.9704
96.2596
97.1661
97.7562
97.7761
97.2058
95.97
94.3631
92.0633
89.3301
87.9372
86.0849
80.9344
78.1415
81.6987
88.8742
97.9609
106.996
115.472
123.257
130.385
136.979
142.831
147.798
152.913
156.831
158.095
157.313
154.057
148.55
141.04
132.243
123.041
114.037
105.467
97.3812
89.44
81.2152
72.8637
64.9705
56.4102
49.9543
48.8222
50.4355
52.2262
52.8528
52.5383
51.5856
50.2174
48.5794
46.7546
44.8053
42.7746
40.6815
38.5124
36.1436
33.5151
30.9302
28.7735
27.2474
26.3409
25.9401
25.9128
26.1402
26.5253
26.9836
27.447
27.8625
28.1837
28.4068
28.4858
28.3281
27.9555
27.2462
25.8662
23.5934
20.4097
16.6525
13.061
9.45159
3.34621
75.5715
75.8088
75.9677
76.1187
76.3113
76.4697
76.6334
76.8329
77.1508
77.7571
78.7686
80.2304
81.9991
83.8953
85.7914
87.6596
89.476
91.2331
92.8907
94.4005
95.685
96.6166
97.2499
97.3201
96.8203
95.726
94.2718
92.0605
89.5744
88.4706
86.6049
81.7318
79.4047
82.9527
89.8083
98.5516
107.361
115.688
123.37
130.421
136.958
142.742
147.708
152.864
156.732
157.22
156.485
153.399
148.139
140.931
132.415
123.402
114.481
105.934
97.8712
89.951
81.7586
73.5095
65.7787
57.2192
50.1149
49.2927
50.8972
52.6548
53.2385
52.878
51.8807
50.4716
48.798
46.9411
44.9638
42.921
40.8324
38.6518
36.2645
33.6738
31.1724
29.0931
27.5822
26.6224
26.1208
25.9721
26.0754
26.3372
26.6743
27.0217
27.3271
27.5515
27.684
27.669
27.4334
26.9717
26.1478
24.7042
22.4826
19.4716
15.9547
12.6076
9.19002
3.22298
75.4429
75.6901
75.8654
76.0314
76.234
76.393
76.5616
76.7624
77.0546
77.6133
78.5687
79.9794
81.7086
83.5675
85.4211
87.2412
89.009
90.7213
92.3436
93.8311
95.1083
96.0633
96.7362
96.8546
96.4348
95.4965
94.1865
92.077
89.8725
89.0156
87.1382
82.649
80.8075
84.3204
90.8473
99.2366
107.807
115.972
123.533
130.498
136.969
142.7
147.678
152.744
156.341
156.441
155.682
152.755
147.747
140.859
132.656
123.87
115.054
106.54
98.48
90.538
82.3638
74.2641
66.6954
58.184
50.5311
49.8246
51.4551
53.155
53.6646
53.2432
52.1915
50.7384
49.0327
47.1438
45.1342
43.081
40.9948
38.791
36.3863
33.8373
31.4234
29.4064
27.8947
26.8725
26.2697
26.003
25.9831
26.1205
26.3361
26.5683
26.7676
26.9003
26.9459
26.8443
26.5343
25.9879
25.07
23.5824
21.414
18.557
15.2526
12.1221
8.88027
3.07854
75.3144
75.5715
75.7632
75.9441
76.1569
76.316
76.49
76.6936
76.9633
77.4757
78.3751
79.7339
81.4235
83.2452
85.0567
86.8294
88.5491
90.2167
91.8029
93.2662
94.5345
95.5113
96.2195
96.3846
96.0546
95.2796
94.1048
92.1207
90.2195
89.5667
87.7078
83.6573
82.2846
85.7541
91.9765
100.018
108.334
116.314
123.738
130.622
137.038
142.701
147.667
152.557
155.742
155.735
154.922
152.141
147.381
140.822
132.958
124.429
115.753
107.305
99.2517
91.2566
83.093
75.1524
67.717
59.3752
51.6902
50.4897
52.0756
53.6957
54.1114
53.6225
52.5175
51.0213
49.2775
47.3458
45.3103
43.2602
41.1643
38.9238
36.5095
34.0182
31.6821
29.707
28.1784
27.0884
26.3873
26.0072
25.8663
25.8797
25.9741
26.0934
26.192
26.2369
26.1983
26.0152
25.6325
25.0068
24.0116
22.4954
20.3818
17.6647
14.5513
11.6145
8.53402
2.91918
75.1856
75.4532
75.6612
75.8571
76.0801
76.239
76.4186
76.6269
76.8771
77.3446
78.1881
79.4938
81.1439
82.9286
84.6984
86.4243
88.0967
89.7203
91.2704
92.7086
93.9676
94.9647
95.7038
95.9154
95.684
95.0725
94.0262
92.1979
90.6121
90.1243
88.3217
84.7473
83.8265
87.2631
93.2064
100.893
108.926
116.697
123.986
130.808
137.168
142.73
147.646
152.328
155.079
155.076
154.212
151.567
147.047
140.816
133.305
125.064
116.57
108.228
100.189
92.1307
83.9807
76.1799
68.8026
60.6464
53.3467
51.4231
52.8671
54.2579
54.564
54.0188
52.8527
51.2945
49.5074
47.5665
45.5378
43.456
41.3118
39.0618
36.6615
34.2222
31.9426
29.9875
28.4299
27.2714
26.4766
25.987
25.7256
25.6149
25.5905
25.6016
25.6044
25.564
25.4431
25.1816
24.7279
24.0291
22.9713
21.4392
19.3822
16.7941
13.8548
11.0928
8.16138
2.75024
75.0568
75.3351
75.5595
75.7705
76.0038
76.1621
76.3478
76.5624
76.7962
77.2202
78.0079
79.2593
80.8696
82.6176
84.3462
86.026
87.652
89.2325
90.747
92.1601
93.41
94.4263
95.1927
95.4521
95.3259
94.872
93.9504
92.3101
91.0438
90.6927
88.9917
85.9298
85.4566
88.8727
94.5331
101.832
109.554
117.113
124.287
131.063
137.348
142.781
147.617
152.074
154.429
154.451
153.557
151.038
146.75
140.839
133.684
125.752
117.488
109.296
101.292
93.1888
85.073
77.3897
70.0152
61.9981
55.0153
52.6844
53.8574
54.9352
55.0373
54.3797
53.1511
51.5597
49.7788
47.8484
45.7807
43.6698
41.5122
39.2441
36.8496
34.4446
32.1973
30.2439
28.65
27.4241
26.5387
25.9396
25.5575
25.3254
25.1872
25.0953
25.0058
24.8814
24.6796
24.3424
23.8202
23.0555
21.9484
20.4115
18.4128
15.9455
13.1667
10.5637
7.771
2.57621
74.928
75.2174
75.4581
75.6842
75.928
76.0856
76.2777
76.5007
76.7207
77.1028
77.8346
79.0303
80.6009
82.3123
84.0001
85.6345
87.215
88.7534
90.2328
91.6212
92.863
93.8972
94.6885
94.9984
94.9814
94.6753
93.8774
92.4529
91.5004
91.2674
89.7162
87.1949
87.1629
90.5529
95.9027
102.785
110.197
117.569
124.65
131.376
137.558
142.854
147.578
151.793
153.817
153.855
152.957
150.558
146.493
140.89
134.082
126.473
118.476
110.478
102.543
94.4434
86.3976
78.8063
71.4079
63.511
56.7686
54.1291
54.8454
55.7203
55.6475
54.8335
53.5276
51.8951
50.0798
48.1498
46.1009
43.9778
41.7802
39.4723
37.0687
34.6774
32.4413
30.4759
28.8411
27.5473
26.57
25.8605
25.36
25.0118
24.7655
24.5746
24.3952
24.1877
23.9065
23.4966
22.9096
22.0871
20.9428
19.4108
17.4723
15.1191
12.4897
10.0325
7.36999
2.40074
74.7995
75.1
75.3572
75.5985
75.853
76.0098
76.2086
76.4419
76.6508
76.9925
77.6684
78.8068
80.3376
82.0126
83.66
85.2497
86.7855
88.2828
89.728
91.0923
92.327
93.3778
94.1923
94.5563
94.6499
94.48
93.8075
92.618
91.9631
91.838
90.4781
88.5013
88.8783
92.2087
97.2379
103.717
110.859
118.076
125.074
131.724
137.778
142.94
147.546
151.5
153.242
153.294
152.41
150.127
146.277
140.968
134.494
127.208
119.503
111.731
103.907
95.88
87.9572
80.4573
73.0304
65.2037
58.5708
55.5801
55.7773
56.4394
56.3087
55.4399
54.0759
52.3975
50.5457
48.6002
46.5315
44.3593
42.0979
39.7373
37.3098
34.9142
32.673
30.6854
29.0041
27.6383
26.5661
25.7473
25.1334
24.675
24.3251
24.0382
23.7707
23.481
23.1226
22.6435
21.9966
21.1251
19.9549
18.4363
16.5594
14.315
11.8259
9.50342
6.96399
2.22673
74.671
74.983
75.2567
75.5133
75.7788
75.935
76.1406
76.3864
76.5868
76.8895
77.5094
78.5888
80.0797
81.7186
83.3259
84.8713
86.3634
87.8205
89.2322
90.5732
91.8017
92.8679
93.7046
94.1265
94.3297
94.2849
93.7405
92.7953
92.4149
92.3947
91.2583
89.8065
90.5326
93.7605
98.4915
104.625
111.55
118.636
125.537
132.083
137.993
143.031
147.534
151.227
152.707
152.777
151.916
149.747
146.102
141.075
134.917
127.948
120.543
113.01
105.336
97.4497
89.705
82.3281
74.9463
67.2865
60.7861
57.4285
57.0107
57.3381
57.0694
56.1535
54.7785
53.0902
51.1951
49.1787
47.0376
44.7884
42.4502
40.0287
37.5659
35.1522
32.8932
30.8736
29.1381
27.6942
26.5256
25.6007
24.8785
24.3148
23.8648
23.4842
23.1298
22.7596
22.3271
21.7832
21.0824
20.1707
18.9848
17.4869
15.6731
13.5331
11.1767
8.97952
6.55742
2.05644
74.5426
74.8664
75.1568
75.4286
75.7056
75.8613
76.0739
76.3343
76.5287
76.7941
77.3578
78.3762
79.8272
81.43
82.9976
84.4993
85.9484
87.3662
88.7452
90.0637
91.2868
92.3668
93.2257
93.7088
94.019
94.089
93.6763
92.9756
92.8424
92.9298
92.0433
91.0852
92.0927
95.1924
99.6582
105.521
112.277
119.234
126.017
132.433
138.199
143.122
147.526
150.985
152.22
152.303
151.472
149.415
145.969
141.209
135.353
128.69
121.581
114.288
106.787
99.0851
91.5492
84.3218
77.0581
69.6715
63.4348
59.8892
58.9009
58.7767
58.2507
57.1871
55.711
53.9357
51.949
49.8281
47.5894
45.2492
42.8274
40.3398
37.8336
35.391
33.103
31.0406
29.2414
27.7145
26.4497
25.4222
24.5961
23.9304
23.3828
22.9104
22.4708
22.0222
21.5194
20.9161
20.1681
19.225
18.0324
16.5615
14.8121
12.7729
10.5428
8.46316
6.1537
1.89156
74.4145
74.7502
75.0574
75.3445
75.6334
75.789
76.009
76.2859
76.4766
76.7062
77.2136
78.1689
79.5801
81.1469
82.675
84.1335
85.5402
86.9197
88.2666
89.5636
90.7818
91.8741
92.7555
93.3026
93.7155
93.8924
93.615
93.1526
93.2387
93.4391
92.8242
92.3246
93.5559
96.5241
100.76
106.42
113.032
119.85
126.492
132.768
138.391
143.204
147.512
150.775
151.777
151.87
151.076
149.13
145.876
141.371
135.801
129.437
122.614
115.555
108.238
100.741
93.4185
86.35
79.2341
72.1165
66.1356
62.5182
61.1243
60.5464
59.7039
58.4149
56.768
54.8572
52.7525
50.5157
48.1703
45.733
43.2247
40.6682
38.1125
35.6314
33.3024
31.1853
29.3139
27.7005
26.3404
25.2129
24.2857
23.5205
22.8771
22.3145
21.7919
21.2682
20.6997
20.0426
19.2543
18.2882
17.0971
15.6588
13.9748
12.0336
9.92454
7.95599
5.75536
1.73332
74.2865
74.6344
74.9585
75.2611
75.5623
75.7183
75.946
76.2414
76.4308
76.6261
77.0767
77.9671
79.3384
80.8691
82.3579
83.7736
85.1388
86.4805
87.7961
89.0726
90.2861
91.3893
92.2939
92.9067
93.4175
93.6949
93.5561
93.3218
93.6015
93.9221
93.5952
93.5225
94.9402
97.7831
101.83
107.331
113.802
120.465
126.956
133.088
138.568
143.271
147.479
150.573
151.376
151.474
150.725
148.891
145.823
141.561
136.265
130.188
123.642
116.81
109.687
102.401
95.2834
88.3767
81.4324
74.5696
68.7902
65.104
63.3766
62.3775
61.2217
59.7022
57.8735
55.8154
53.5839
51.228
48.7731
46.2371
43.6418
41.0143
38.4029
35.8728
33.4901
31.3069
29.3563
27.6542
26.1992
24.9734
23.9466
23.0833
22.3457
21.6949
21.0919
20.497
19.8679
19.1631
18.3417
17.3603
16.1781
14.7772
13.1597
11.3142
9.32194
7.45913
5.36415
1.58255
74.159
74.519
74.8602
75.1783
75.4924
75.6494
75.8852
76.2007
76.3912
76.5536
76.947
77.7705
79.1021
80.5967
82.0464
83.4196
84.7437
86.0483
87.3334
88.5902
89.7992
90.9118
91.8406
92.5201
93.1234
93.4968
93.4989
93.4803
93.9321
94.3798
94.3493
94.6747
96.2602
98.9895
102.886
108.253
114.57
121.065
127.404
133.396
138.73
143.32
147.419
150.336
151.014
151.115
150.418
148.697
145.808
141.778
136.746
130.946
124.665
118.055
111.133
104.059
97.1334
90.3806
83.6112
76.9876
71.3789
67.6231
65.5978
64.2092
62.7518
61.0101
59.0027
56.796
54.4356
51.9609
49.397
46.7626
44.0799
41.3784
38.7034
36.1127
33.6639
31.405
29.37
27.5772
26.0271
24.7032
23.5774
22.617
21.7866
21.0501
20.3701
19.7083
19.0241
18.2777
17.4301
16.441
15.2742
13.915
12.3652
10.6137
8.73468
6.97318
4.9811
1.43971
74.0313
74.404
74.7624
75.096
75.4237
75.5822
75.8268
76.1637
76.3573
76.4878
76.8245
77.5792
78.8713
80.3296
81.7402
83.0712
84.3547
85.6228
86.878
88.116
89.3203
90.4413
91.3954
92.1416
92.8319
93.298
93.4422
93.6262
94.2328
94.8138
95.077
95.7659
97.5085
100.146
103.926
109.17
115.319
121.641
127.837
133.694
138.883
143.357
147.336
150.06
150.684
150.79
150.153
148.545
145.832
142.024
137.243
131.712
125.684
119.292
112.574
105.71
98.9696
92.3652
85.7619
79.349
73.8815
70.0598
67.7699
66.0278
64.2831
62.3282
60.1478
57.7953
55.3074
52.716
50.0444
47.3115
44.5397
41.7586
39.0107
36.3477
33.822
31.4798
29.3562
27.4706
25.8242
24.4014
23.1767
22.1198
21.1986
20.3791
19.6258
18.9018
18.1681
17.3863
16.5192
15.5292
14.3839
13.0704
11.5895
9.93079