/*--------------------------------*- C++ -*----------------------------------*\
| =========                 |                                                 |
| \\      /  F ield         | OpenFOAM: The Open Source CFD Toolbox           |
|  \\    /   O peration     | Version:  4.1                                   |
|   \\  /    A nd           | Web:      www.OpenFOAM.org                      |
|    \\/     M anipulation  |                                                 |
\*---------------------------------------------------------------------------*/
FoamFile
{
    version     2.0;
    format      ascii;
    class       surfaceScalarField;
    location    "600";
    object      phi;
}
// * * * * * * * * * * * * * * * * * * * * * * * * * * * * * * * * * * * * * //

dimensions      [0 3 -1 0 0 0 0];

internalField   nonuniform List<scalar> 
52920
(
9.4868
121.102
-88.5125
97.9941
-148.046
59.5277
-196.895
48.8419
-239.337
42.4344
-273.743
34.3986
-300.96
27.2111
-319.515
18.5471
-325.23
5.70904
-309.421
-15.8168
-268.899
-40.5294
-187.808
-81.099
-39.6852
-148.129
164.247
-203.937
390.891
-226.647
639.588
-248.7
910.328
-270.742
1203.16
-292.837
1517.76
-314.602
1853.48
-335.72
2211.56
-358.076
2591.73
-380.171
2993.15
-401.421
3412.9
-419.75
3848.27
-435.374
4295.09
-446.826
4746.12
-451.031
5192.95
-446.824
5622.8
-429.857
6009.03
-386.224
6304.66
-295.633
6462.89
-158.229
6460.2
2.69108
6307.2
152.991
6060.94
246.265
5777.45
283.485
5490.21
287.24
5214.97
275.242
4958.16
256.806
4722.52
235.644
4510.05
212.468
4323.54
186.512
4168.51
155.027
4055.42
113.088
3998.94
56.4799
4019.23
-20.2949
4133.21
-113.977
4338.13
-204.926
4614.37
-276.235
4936.36
-321.99
5279.7
-343.342
5624.61
-344.913
5956.91
-332.294
6267.2
-310.292
6549.21
-282.011
6798.1
-248.895
7009.64
-211.534
7180.17
-170.53
7307.93
-127.763
7395.12
-87.1939
7448.81
-53.6862
7480.13
-31.3239
7502.13
-21.9995
7526.98
-24.8526
7564.34
-37.3542
7621.01
-56.67
7701.54
-80.5342
7809.45
-107.907
7948.91
-139.466
8126.2
-177.282
8349.22
-223.023
8623.81
-274.591
8946.32
-322.512
9295.1
-348.782
9625.71
-330.605
9876.58
-250.869
9989.53
-112.953
9932.9
56.6319
9713.43
219.467
9373.86
339.574
8965.53
408.323
8528.38
437.155
8087.72
440.664
7657.8
429.916
7246.12
411.679
6856.67
389.453
6492.13
364.541
6155.21
336.916
5849.87
305.339
5582.57
267.297
5362.89
219.688
5205.98
156.908
5134.05
71.9255
5185.37
-51.3216
5388.83
-203.459
5693.55
-304.713
5998.61
-305.066
6223.81
-225.201
6349.9
-126.089
-18.0872
10.6152
240.029
-86.4379
195.043
-147.086
120.17
-197.169
98.9183
-238.823
84.0804
-270.18
65.7487
-291.389
48.4126
-300.371
27.5205
-291.443
-3.22553
-255.125
-52.1426
-174.516
-121.146
-39.4716
-216.15
131.644
-319.249
326.132
-398.428
545.224
-445.742
786.917
-490.395
1050.23
-534.055
1334.5
-577.111
1639.02
-619.124
1963.06
-659.758
2307.67
-702.695
2672.52
-745.018
3056.56
-785.466
3456.83
-820.021
3870.57
-849.109
4293.29
-869.554
4717.24
-874.981
5134.1
-863.679
5534.47
-830.229
5901.16
-752.915
6198.07
-592.542
6376.15
-336.312
6394.94
-16.0999
6251.63
296.302
6004.11
493.777
5714.06
573.538
5419.3
581.998
5137.96
556.583
4877.57
517.19
4641.36
471.856
4431.59
422.235
4251.2
366.903
4105.49
300.738
4003.79
214.787
3959.25
101.017
3991.86
-52.9084
4118.29
-240.409
4332.02
-418.65
4607.9
-552.113
4917.67
-631.767
5238.38
-664.048
5554.26
-660.792
5855.58
-633.617
6136.53
-591.244
6393.11
-538.59
6621.58
-477.361
6817.9
-407.86
6978.05
-330.683
7099.49
-249.202
7183.45
-171.157
7235.94
-106.172
7266.93
-62.3158
7288.2
-43.2656
7310.46
-47.1099
7341.69
-68.5896
7386.95
-101.93
7448.96
-142.545
7529.21
-188.157
7629.43
-239.686
7753.14
-300.995
7906.6
-376.481
8097.74
-465.73
8331.83
-556.606
8604.1
-621.044
8891.62
-618.129
9149.33
-508.575
9316.61
-280.231
9338.06
35.1771
9193.2
364.328
8913.9
618.869
8552.08
770.15
8151.26
837.973
7740.02
851.899
7334.84
835.096
6944.6
801.922
6574.15
759.908
6226.72
711.969
5905.38
658.255
5614.27
596.45
5359.83
521.735
5151.36
428.157
5003.5
304.771
4935.15
140.27
4984.97
-101.14
5191.03
-409.521
5503.26
-616.935
5816.16
-617.969
6046.97
-456.017
6178.99
-258.105
-38.0255
13.6443
351.801
-76.9977
285.682
-137.414
180.582
-189.182
150.681
-230.334
125.225
-258.899
94.3082
-275.021
64.5275
-277.314
29.8059
-259.672
-20.8733
-213.119
-98.7027
-122.552
-211.717
13.485
-352.191
176.469
-482.236
359.583
-581.544
565.216
-651.377
791.428
-716.608
1036.95
-779.58
1301.1
-841.26
1583.27
-901.295
1883.02
-959.51
2201.78
-1021.46
2539.47
-1082.7
2895.15
-1141.14
3265.86
-1190.73
3648.97
-1232.22
4040
-1260.59
4431.1
-1266.08
4814.19
-1246.77
5181.5
-1197.54
5521.72
-1093.13
5811.07
-881.894
6013.52
-538.766
6083.63
-86.2086
5993.4
386.533
5785.94
701.232
5522.48
836.994
5245.06
859.426
4975.97
825.673
4725.86
767.294
4500.04
697.677
4302.03
620.242
4135.22
533.711
4004.25
431.71
3916.53
302.51
3882.8
134.742
3920.72
-90.8258
4043.88
-363.578
4241.73
-616.497
4489.32
-799.703
4764.74
-907.186
5053.31
-952.625
5344.99
-952.471
5631.71
-920.333
5906.33
-865.863
6162.21
-794.478
6392.88
-708.03
6592.07
-607.048
6754.15
-492.758
6875.47
-370.522
6956.56
-252.249
7002.82
-152.432
7023.52
-83.0157
7029.61
-49.3638
7030.94
-48.4316
7034.63
-72.2834
7045.14
-112.441
7064.88
-162.288
7095.19
-218.464
7137.61
-282.107
7195.5
-358.886
7275.47
-456.453
7387.33
-577.587
7540.9
-710.173
7739.98
-820.124
7975.68
-853.83
8220.66
-753.553
8426.11
-485.682
8526.26
-64.9718
8469.19
421.394
8267.49
820.572
7969.09
1068.54
7619.62
1187.45
7250.58
1220.93
6880.86
1204.82
6521.02
1161.76
6177.08
1103.85
5853.07
1035.97
5552.54
958.785
5279.83
869.166
5041.27
760.298
4845.48
623.947
4706.21
444.042
4639.09
207.381
4685.61
-147.654
4902.46
-626.371
5239.79
-954.273
5578.95
-957.127
5826.43
-703.499
5965.87
-397.539
-56.3333
16.6613
453.364
-64.8258
367.166
-126.946
242.698
-183.19
206.919
-225.747
167.774
-253.412
121.967
-267.233
78.341
-266.525
29.0904
-245.423
-41.982
-195.87
-148.262
-106.478
-301.114
22.8021
-481.475
178.496
-637.933
354.262
-757.313
550.225
-847.342
764.464
-930.849
995.682
-1010.8
1243.22
-1088.8
1506.52
-1164.6
1785.32
-1238.3
2081.35
-1317.5
2394.71
-1396.06
2724.49
-1470.92
3067.65
-1533.9
3421.72
-1586.29
3782.26
-1621.13
4141.43
-1625.25
4491.51
-1596.85
4825.57
-1531.6
5135.4
-1402.97
5404.58
-1151.07
5607.84
-742.025
5704.45
-182.821
5653.11
437.869
5484.17
870.174
5254.03
1067.13
5004.21
1109.25
4758.29
1071.59
4528.59
996.997
4321.8
904.459
4142.27
799.779
3993.26
682.714
3878.24
546.73
3802.5
378.246
3773.79
163.452
3805.7
-122.738
3909.62
-467.497
4077.27
-784.149
4293.48
-1015.91
4547.86
-1161.56
4830.61
-1235.37
5128.6
-1250.47
5427.19
-1218.92
5713.4
-1152.07
5977.17
-1058.25
6210.76
-941.617
6407.94
-804.232
6563.6
-648.413
6674.51
-481.438
6741.53
-319.267
6770.2
-181.104
6769.77
-82.5854
6751.17
-30.7572
6724.14
-21.4044
6695.73
-43.8786
6670.33
-87.042
6650.36
-142.318
6637.19
-205.294
6632.44
-277.349
6639.55
-366.001
6665.48
-482.379
6720.79
-632.9
6816.65
-806.033
6959.35
-962.827
7145.88
-1040.36
7360.54
-968.208
7569.21
-694.356
7711.17
-206.927
7715.23
417.329
7575.81
959.994
7333.86
1310.49
7033.88
1487.43
6707.92
1546.89
6375.67
1537.07
6048.53
1488.9
5733.28
1419.1
5434.53
1334.72
5156.17
1237.14
4902.6
1122.74
4679.86
983.043
4495.49
808.315
4362.57
576.959
4291.97
277.981
4329.61
-185.291
4571.08
-867.842
4965.72
-1348.91
5360.65
-1352.06
5639.59
-982.439
5784.64
-542.589
-65.5352
18.8145
543.201
-54.477
440.455
-121.189
309.407
-182.648
268.374
-226.183
211.304
-253.343
149.122
-266.449
91.4399
-264.967
27.6019
-243.516
-63.4377
-195.408
-196.374
-112.353
-384.173
6.49477
-600.325
152.855
-784.296
319.95
-924.409
505.461
-1032.86
707.558
-1132.95
925.026
-1228.27
1157.26
-1321.04
1403.68
-1411.02
1664.08
-1498.7
1940.44
-1593.87
2232.93
-1688.55
2540.54
-1778.53
2860.03
-1853.39
3189.03
-1915.29
3523.15
-1955.26
3854.54
-1956.64
4175.83
-1918.14
4480.71
-1836.48
4762.91
-1685.16
5010.33
-1398.49
5205.48
-937.176
5314.31
-291.655
5288.12
464.059
5148.91
1009.38
4949.36
1266.68
4728.87
1329.74
4510.19
1290.27
4305.59
1201.6
4121.91
1088.14
3963.32
958.369
3832.37
813.664
3731.2
647.894
3663.54
445.91
3634.03
192.956
3651.5
-140.209
3729.11
-545.107
3869.91
-924.944
4073.59
-1219.6
4335.11
-1423.08
4637.12
-1537.39
4955.22
-1568.57
5267.62
-1531.32
5559.57
-1444.01
5822.24
-1320.92
6049.85
-1169.23
6237.84
-992.222
6381.98
-792.557
6479.22
-578.674
6530.32
-370.372
6540.82
-191.599
6519.84
-61.6057
6478.55
10.535
6426.96
30.1789
6371.87
11.2175
6317.31
-32.4825
6265.5
-90.5108
6217.5
-157.294
6174.68
-234.532
6140.47
-331.793
6122.27
-464.175
6131.69
-642.317
6181.05
-855.391
6277.5
-1059.28
6420.09
-1182.95
6599.58
-1147.69
6793.53
-888.306
6950.81
-364.207
6991.36
376.784
6895.41
1055.94
6697.28
1508.62
6439.26
1745.44
6152.29
1833.87
5855.46
1833.9
5560.08
1784.28
5273.07
1706.12
4999.27
1608.52
4742.65
1493.76
4507.44
1357.94
4299.02
1191.46
4123.9
983.434
3994.38
706.477
3911.79
360.569
3936.38
-209.881
4230.52
-1161.98
4716.86
-1835.24
5179.46
-1814.66
5485.13
-1288.11
5623.08
-680.542
-55.53
18.6445
618.051
-49.5734
508.67
-122.424
382.254
-186.812
332.757
-230.34
254.827
-257.759
176.535
-271.373
105.047
-270.344
26.5648
-250.205
-83.5824
-205.798
-240.785
-131.397
-458.578
-25.2294
-706.496
109.385
-918.912
265.831
-1080.86
439.503
-1206.53
628.683
-1322.13
832.26
-1431.85
1049.66
-1538.44
1280.18
-1641.55
1523.56
-1742.08
1782.06
-1852.36
2055.88
-1962.37
2343.92
-2066.57
2642.7
-2152.18
2950.09
-2222.67
3261.72
-2266.89
3569.63
-2264.55
3866.76
-2215.27
4147.16
-2116.88
4405.68
-1943.68
4632.75
-1625.56
4816.54
-1120.97
4929.92
-405.034
4920.19
473.791
4803.7
1125.87
4630.85
1439.54
4438.55
1522.03
4247.62
1481.2
4069.09
1380.12
3908.94
1248.3
3770.5
1096.81
3655.31
928.848
3564.56
738.64
3501.18
509.289
3466.71
227.433
3465.48
-138.982
3518.96
-598.591
3648.38
-1054.36
3863.26
-1434.48
4149.93
-1709.75
4475.83
-1863.29
4808.46
-1901.2
5125.9
-1848.76
5416.31
-1734.42
5673.6
-1578.21
5893.69
-1389.32
6072.86
-1171.39
6207.03
-926.734
6292.71
-664.347
6330.3
-407.966
6325.21
-186.509
6286.02
-22.4161
6224.9
71.6579
6153.19
101.884
6077.45
86.9614
6000.46
44.5057
5923.61
-13.6634
5847.83
-81.5102
5774.02
-160.726
5705.41
-263.177
5649.91
-408.684
5620.6
-613
5631.22
-866.011
5689.16
-1117.23
5793.26
-1287.05
5936.86
-1291.29
6105.73
-1057.18
6259.31
-517.787
6316.48
319.618
6247.09
1125.33
6080.37
1675.34
5855.99
1969.83
5602.61
2087.24
5337.75
2098.77
5071.82
2050.21
4811.41
1966.53
4561.2
1858.72
4325
1729.96
4106.53
1576.41
3910.29
1387.71
3742.31
1151.42
3611.56
837.218
3506.93
465.208
3523.66
-226.613
3890.59
-1528.91
4454.77
-2399.43
4945.69
-2305.57
5245.77
-1588.2
5361.97
-796.737
-23.0151
15.216
683.422
-52.486
576.371
-130.298
460.064
-194.144
396.6
-237.33
298.008
-265.43
204.631
-279.781
119.392
-279.72
26.4978
-261.749
-101.557
-222
-280.538
-156.785
-523.795
-64.0123
-799.271
57.0097
-1039.94
200.962
-1224.81
361.74
-1367.31
537.61
-1498
727.422
-1621.66
930.487
-1741.5
1145.76
-1856.82
1372.77
-1969.1
1614.12
-2093.71
1870.21
-2218.46
2139.92
-2336.28
2419.68
-2431.94
2707.73
-2510.71
2999.8
-2558.97
3287.71
-2552.46
3564.63
-2492.19
3824.77
-2377.02
4063.52
-2182.44
4272.49
-1834.53
4443.83
-1292.31
4557.03
-518.23
4557.69
473.134
4458.96
1224.59
4309.59
1588.91
4143.66
1687.97
3979.32
1645.53
3825.69
1533.76
3687.33
1386.65
3566.5
1217.64
3463.82
1031.53
3379.99
822.469
3317.79
571.488
3275.78
269.443
3255.47
-118.673
3293.59
-636.714
3429.71
-1190.49
3670.53
-1675.3
3984.73
-2023.95
4328.9
-2207.46
4670.46
-2242.76
4990.63
-2168.94
5279.75
-2023.54
5532.96
-1831.43
5747.03
-1603.39
5918.92
-1343.28
6044.78
-1052.6
6120.64
-740.209
6146.72
-434.043
6127.57
-167.356
6071.18
33.9732
5991.83
151.001
5902.92
190.796
5811.33
178.555
5718.76
137.069
5624.57
80.5262
5528.11
14.9543
5429.72
-62.3348
5332.44
-165.898
5244.69
-320.934
5181.33
-549.644
5158.22
-842.899
5183.12
-1142.13
5253.57
-1357.51
5362.89
-1400.61
5501.37
-1195.66
5638.28
-654.699
5695.63
262.271
5637.79
1183.16
5491.42
1821.71
5293.02
2168.23
5067.99
2312.26
4831.4
2335.36
4592.22
2289.38
4356.27
2202.48
4127.81
2087.18
3910.24
1947.53
3706.4
1780.25
3520.19
1573.93
3357.22
1314.39
3218.61
975.822
3086.53
597.29
3098.76
-238.841
3509.58
-1939.73
4076.7
-2966.55
4531.16
-2760.04
4793.82
-1850.85
4886.82
-889.737
23.8708
6.9575
743.874
-63.5234
646.849
-142.648
539.186
-203.477
457.426
-246.335
340.862
-274.962
233.253
-290.03
134.453
-291.365
27.8255
-276.05
-116.877
-241.184
-315.408
-184.225
-580.757
-104.06
-879.438
1.37666
-1145.38
130.296
-1353.73
277.334
-1514.35
439.801
-1660.47
616.225
-1798.08
805.588
-1930.87
1006.13
-2057.36
1217.04
-2180.01
1441.42
-2318.09
1680.05
-2457.09
1931.92
-2588.15
2193.48
-2693.5
2463.62
-2780.86
2738.3
-2833.65
3008.97
-2823.13
3268.97
-2752.19
3512.5
-2620.55
3735.09
-2405.03
3928.45
-2027.89
4087.35
-1451.22
4197.38
-628.26
4203.85
466.664
4119.29
1309.15
3990.91
1717.28
3849.38
1829.5
3709.71
1785.2
3578.72
1664.74
3459.44
1505.94
3353.06
1324.01
3259.6
1124.99
3179.65
902.42
3116.17
634.962
3065.19
320.426
3028.03
-81.5177
3062.03
-670.709
3218.58
-1347.04
3490.04
-1946.75
3829.11
-2363.02
4189.74
-2568.09
4541.53
-2594.56
4866.55
-2493.95
5155.51
-2312.5
5404.76
-2080.67
5612.61
-1811.24
5777.35
-1508.02
5895.57
-1170.82
5962.76
-807.399
5978.85
-450.13
5945.92
-134.432
5872.18
107.72
5775.31
247.867
5670.56
295.546
5565.55
283.569
5462.13
240.485
5358.22
184.434
5250.2
122.972
5135.41
52.4629
5015.65
-46.1376
4900.36
-205.648
4806.48
-455.764
4752.72
-789.14
4747.88
-1137.28
4788.11
-1397.74
4865.31
-1477.81
4971.53
-1301.88
5083.54
-766.702
5127.41
218.399
5068.31
1242.27
4932.94
1957.08
4754.09
2347.09
4552.82
2513.54
4341.04
2547.15
4125.88
2504.54
3912.09
2416.27
3703.28
2295.99
3502.26
2148.55
3310.8
1971.71
3132.81
1751.92
2972.17
1475.03
2819.54
1128.45
2660.65
756.187
2650.17
-228.365
3030.43
-2319.98
3513.63
-3449.76
3883.65
-3130.06
4090.99
-2058.19
4167.61
-966.365
73.2744
-7.24338
804.617
-80.938
720.543
-157.005
615.251
-214.067
514.484
-256.468
383.26
-285.3
262.08
-301.148
150.296
-304.214
30.8869
-291.891
-129.203
-262.002
-345.299
-212.617
-630.144
-143.97
-948.086
-54.4933
-1234.85
57.796
-1466.02
190.286
-1646.84
339.307
-1809.49
502.765
-1961.54
679.07
-2107.17
865.316
-2243.61
1060.36
-2375.05
1267.88
-2525.62
1489.04
-2678.25
1722.92
-2822.03
1966.2
-2936.78
2218.89
-3033.54
2477.4
-3092.17
2732.79
-3078.52
2978.49
-2997.9
3208.56
-2850.62
3418.3
-2614.77
3598.66
-2208.25
3745.66
-1598.22
3850.61
-733.205
3859.59
457.682
3786.53
1382.21
3677.18
1826.63
3558.12
1948.56
3440.84
1902.47
3329.83
1775.75
3226.61
1609.17
3131.59
1419.03
3044.46
1212.12
2965.94
980.938
2899.2
701.7
2838.26
381.367
2787.72
-30.9862
2828.42
-711.402
3013.66
-1532.29
3316.48
-2249.57
3680.51
-2727.05
4059.76
-2947.34
4422.92
-2957.72
4751.31
-2822.34
5037.29
-2598.48
5280.24
-2323.63
5481.13
-2012.13
5639.64
-1666.54
5752.29
-1283.46
5813.51
-868.621
5821.99
-458.612
5775.9
-88.3366
5684.42
199.203
5570.02
362.267
5450.2
415.363
5333.34
400.429
5221.15
352.679
5111.38
294.196
4999.27
235.087
4878.6
173.131
4745.8
86.6634
4608.79
-68.6367
4487.87
-334.842
4405.47
-706.744
4372.59
-1104.4
4384.69
-1409.84
4431.87
-1524.99
4505.81
-1375.83
4587.7
-848.587
4607.06
199.035
4536.38
1312.95
4404.74
2088.71
4240.39
2511.43
4059.08
2694.85
3869.04
2737.19
3675.27
2698.31
3481.27
2610.28
3289.91
2487.36
3103.24
2335.22
2922.1
2152.85
2750.78
1923.25
2589.55
1636.25
2419.75
1298.25
2236.34
939.593
2166.39
-158.415
2437.47
-2591.06
2775.05
-3787.34
3035.35
-3390.36
3168.76
-2191.61
3225.53
-1023.13
117.603
-26.9252
869.713
-101.557
795.172
-171.713
685.405
-225.331
568.099
-266.927
424.851
-295.726
290.875
-312.388
166.951
-317.348
35.8405
-308.198
-138.358
-283.3
-370.201
-241.046
-672.401
-182.352
-1006.78
-107.15
-1310.06
-12.1415
-1561.03
104.478
-1763.46
239.81
-1944.83
390.613
-2112.35
554.434
-2271
726.938
-2416.12
906.776
-2554.89
1097.89
-2716.73
1301.4
-2881.77
1516.38
-3037.01
1740.13
-3160.53
1974.58
-3267.99
2217.05
-3334.64
2458.13
-3319.6
2691.39
-3231.16
2910.57
-3069.8
3110.42
-2814.62
3280.44
-2378.27
3416.7
-1734.48
3515.65
-832.155
3524.74
448.584
3461.21
1445.74
3369.29
1918.55
3270.83
2047.02
3173.6
1999.71
3079.82
1869.53
2989.78
1699.2
2903.4
1505.41
2820.29
1295.23
2741.27
1059.96
2669.36
773.601
2597.5
453.234
2537.6
28.9084
2594.01
-767.819
2812.07
-1750.34
3146.73
-2584.24
3536.55
-3116.87
3932.34
-3343.13
4300.42
-3325.81
4624.37
-3146.29
4901.64
-2875.75
5136.32
-2558.31
5331.88
-2207.69
5488.4
-1823.05
5601.22
-1396.29
5662.61
-930.013
5667.83
-463.825
5610.68
-31.1854
5502.33
307.55
5370.74
493.852
5236.62
549.491
5109.14
527.9
4989.74
472.085
4875.78
408.157
4762.36
348.508
4642.75
292.74
4508.58
220.828
4359.87
80.0736
4216.74
-191.71
4107.75
-597.752
4047.75
-1044.41
4033.05
-1395.14
4052.24
-1544.18
4094.8
-1418.38
4142.84
-896.619
4128.55
213.317
4038.43
1403.08
3905.37
2221.77
3751.9
2664.91
3587.53
2859.21
3416.52
2908.2
3241.6
2873.23
3065.01
2786.86
2888.86
2663.51
2714.41
2509.67
2541.95
2325.31
2375.92
2089.27
2211.83
1800.33
2024.35
1485.74
1820.36
1143.58
1658.6
3.34178
1767.15
-2699.61
1921.11
-3941.3
2062.13
-3531.38
2093.08
-2222.55
2096.83
-1026.89
162.744
-50.5808
936.281
-122.475
867.066
-186.026
748.954
-236.709
618.78
-277.105
465.244
-305.72
319.487
-323.13
184.357
-330.051
42.7572
-324.208
-144.204
-304.323
-390.088
-268.807
-707.918
-218.689
-1056.9
-155.506
-1373.24
-76.6592
-1639.88
23.5203
-1863.64
144.501
-2065.81
282.67
-2250.52
434.362
-2422.69
593.977
-2575.73
760.017
-2720.93
935.522
-2892.24
1121.03
-3067.27
1315.45
-3231.43
1517.39
-3362.47
1731.78
-3482.38
1957.36
-3560.22
2184.13
-3546.38
2405.88
-3452.91
2616.02
-3279.94
2808.49
-3007.09
2970.77
-2540.55
3097.85
-1861.56
3190.8
-925.098
3198.51
440.872
3143.18
1501.07
3067.41
1994.32
2987.76
2126.67
2908.27
2079.2
2829.15
1948.65
2749.75
1778.6
2669.88
1585.28
2589.13
1375.97
2507.94
1141.15
2428.72
852.821
2345.25
536.702
2280
94.1601
2357.88
-845.698
2609.83
-2002.29
2975.58
-2949.99
3385.65
-3526.94
3785.39
-3742.87
4143.62
-3684.04
4451.93
-3454.61
4715.38
-3139.2
4942.56
-2785.48
5138.09
-2403.22
5300.82
-1985.78
5423.75
-1519.21
5495.54
-1001.81
5505.33
-473.608
5442
32.1416
5319.37
430.177
5172.02
641.198
5024.97
696.549
4888.32
664.547
4763.19
597.208
4646.49
524.864
4533.08
461.919
4416.57
409.246
4288.85
348.549
4140.55
228.378
3983.17
-34.3299
3850.67
-465.26
3764.4
-958.129
3723.94
-1354.68
3717.5
-1537.74
3730.45
-1431.33
3741.2
-907.376
3685.38
269.137
3570.46
1518.01
3432.97
2359.25
3288
2809.88
3138.19
3009.02
2983.74
3062.66
2825.22
3031.74
2663.73
2948.36
2500.63
2826.61
2336.55
2673.75
2171.62
2490.24
2009.67
2251.23
1841.4
1968.6
1637.52
1689.62
1424.86
1356.24
1163.08
265.124
1081.36
-2617.89
1024.16
-3884.11
1052.55
-3559.77
997.193
-2167.19
901.868
-931.566
305.061
-75.7308
1004.37
-142.029
933.362
-199.66
806.583
-247.679
666.797
-286.568
504.129
-314.834
347.748
-332.833
202.35
-341.726
51.6439
-339.3
-146.634
-324.491
-404.9
-295.505
-736.906
-253.127
-1099.28
-199.37
-1427
-133.3
-1705.95
-49.1977
-1947.74
55.9608
-2170.97
181.006
-2375.56
320.478
-2562.16
468.307
-2723.56
622.395
-2875.02
783.249
-3053.1
950.412
-3234.44
1122.45
-3403.47
1300.15
-3540.18
1492.4
-3674.63
1699.51
-3767.33
1910.87
-3757.74
2120.84
-3662.87
2322.73
-3481.83
2509.55
-3193.91
2666.38
-2697.39
2786.16
-1981.34
2873.94
-1012.89
2879.69
435.124
2831.88
1548.88
2771.31
2054.89
2708.85
2189.12
2644.97
2143.08
2578.21
2015.41
2507.39
1849.41
2432.52
1660.16
2353.01
1455.47
2268.01
1226.15
2179.32
941.515
2084.53
631.491
2015.57
163.116
2116.79
-946.918
2402.14
-2287.65
2792.83
-3340.68
3206.18
-3940.29
3588.21
-4124.91
3919.09
-4014.92
4202
-3737.52
4449.1
-3386.29
4671.9
-3008.28
4874.68
-2606.01
5053.93
-2165.04
5199.57
-1664.85
5295.02
-1097.26
5320.96
-499.552
5259.98
93.1199
5128.01
562.156
4968.05
801.152
4810.6
854.004
4666.96
808.181
4537.97
726.205
4419.99
642.836
4307.78
574.132
4195.55
521.48
4075.77
468.32
3936.9
367.25
3776.88
125.689
3625.38
-313.755
3514.22
-846.975
3448.91
-1289.37
3419.57
-1508.4
3405.94
-1417.71
3375.2
-876.628
3270.81
373.518
3128.52
1660.3
2985.66
2502.12
2847.85
2947.69
2710.62
3146.24
2570.41
3202.87
2425.95
3176.2
2277.36
3096.94
2125.45
2978.53
1970.33
2828.86
1812.1
2648.47
1653.34
2409.99
1480.7
2141.24
1263.79
1906.54
1059.51
1560.52
730.383
594.252
437.015
-2324.52
148.484
-3595.58
57.8399
-3469.12
83.6923
-2193.04
-128.945
-718.928
417.14
-99.944
1070.38
-159.687
993.105
-212.438
859.332
-257.821
712.178
-294.975
541.28
-322.655
375.426
-341.028
220.719
-351.856
62.4681
-352.914
-145.579
-343.227
-414.589
-320.625
-759.51
-285.434
-1134.48
-239.7
-1472.74
-183.522
-1762.13
-112.869
-2018.4
-23.5889
-2260.25
86.9659
-2486.12
213.519
-2688.72
350.442
-2860.49
494.089
-3018.67
641.297
-3200.3
790.41
-3383.55
939.261
-3552.32
1091.58
-3692.5
1260.14
-3843.19
1446.56
-3953.74
1640.01
-3951.2
1836.25
-3859.11
2029.18
-3674.76
2210.86
-3375.59
2363.92
-2850.46
2478.36
-2095.77
2562.7
-1097.23
2566.95
430.87
2526.69
1589.14
2480.69
2100.88
2434.01
2235.8
2383.84
2193.24
2327.52
2071.74
2263.79
1913.14
2192.94
1731
2113.72
1534.69
2023.07
1316.8
1923.66
1040.92
1818.71
736.448
1743.27
238.55
1868.29
-1071.94
2185.55
-2604.9
2585.22
-3740.35
2976.34
-4331.4
3319.16
-4467.73
3610.15
-4305.91
3862.17
-3989.54
4091.72
-3615.84
4312.06
-3228.62
4527.06
-2821
4731.13
-2369.1
4911.17
-1844.89
5044.11
-1230.2
5100.29
-555.732
5054
139.409
4920.63
695.528
4753.24
968.546
4589.29
1017.95
4441.8
955.672
4311.33
856.67
4193.92
760.247
4084.35
683.704
3976.77
629.059
3865.04
580.049
3741.07
491.223
3588.35
278.402
3424.27
-149.667
3291.39
-714.103
3201.96
-1199.93
3151.56
-1458.01
3116.04
-1382.19
3037.38
-797.962
2877.95
532.949
2709.02
1829.22
2561.69
2649.44
2430.41
3078.97
2304.02
3272.63
2175.87
3331.02
2043.27
3308.81
1905.69
3234.52
1763.44
3120.78
1616.22
2976.08
1464.36
2800.32
1309.03
2565.32
1130.8
2319.47
905.47
2131.87
703.381
1762.61
429.2
868.432
-126.956
-1768.36
-688.586
-3033.95
-1029.22
-3128.49
-1027.15
-2195.11
-987.338
-758.741
447.253
-121.837
1131.59
-175.486
1046.75
-224.163
908.008
-266.813
754.825
-302.009
576.472
-328.786
402.198
-347.274
239.202
-359.931
75.1184
-364.47
-141.044
-359.9
-419.164
-343.56
-775.853
-315.206
-1162.83
-276.651
-1511.29
-228.411
-1810.38
-168.409
-2078.4
-93.4454
-2335.22
1.5639
-2581.13
113.822
-2800.98
239.759
-2986.42
373.45
-3152.36
508.183
-3335.04
640.665
-3516.03
767.706
-3679.36
896.052
-3820.84
1040.36
-3987.5
1203.19
-4116.58
1374.79
-4122.8
1553.24
-4037.56
1734.5
-3856.02
1910.07
-3551.16
2060.17
-3000.56
2171.16
-2206.77
2254.6
-1180.67
2258.99
426.474
2227.05
1621.08
2195.38
2132.55
2163.27
2267.92
2125.2
2231.31
2077.83
2119.1
2020.2
1970.77
1952.74
1798.46
1872.72
1614.72
1774.56
1414.96
1664.95
1150.53
1549.15
852.242
1462.95
324.743
1616.62
-1225.61
1959.8
-2948.08
2343.43
-4123.99
2689.67
-4677.64
2982.63
-4760.68
3230.63
-4553.91
3450.09
-4209.01
3659.29
-3825.04
3873.8
-3443.13
4099.11
-3046.31
4329.5
-2599.49
4549.86
-2065.25
4730.81
-1411.16
4831.46
-656.383
4814.95
155.921
4690.62
819.862
4522.75
1136.41
4357.49
1183.22
4210.1
1103.06
4081.22
985.549
3966.68
874.79
3861.04
789.342
3759.09
731.01
3656.7
682.441
3546.17
601.751
3406.93
417.645
3242.12
15.1414
3093.55
-565.532
2981.48
-1087.87
2907.82
-1384.35
2851.99
-1326.35
2717.51
-663.486
2500.72
749.744
2309.22
2020.72
2159.63
2799.04
2034.54
3204.06
1917.32
3389.85
1799.2
3449.14
1676.56
3431.44
1548.46
3362.62
1414.71
3254.53
1275.03
3115.76
1130.4
2944.95
977.693
2718.03
789.348
2507.81
568.193
2353.02
342.59
1988.21
184.861
1026.16
-527.946
-1055.55
-1276.28
-2285.61
-1934.5
-2470.28
-2354.82
-1774.79
-2557.97
-555.585
522.836
-141.061
1186.65
-189.57
1095.26
-234.623
953.06
-274.39
794.59
-307.36
609.44
-332.861
427.697
-351.171
257.508
-365.469
89.4117
-373.385
-133.13
-373.828
-418.723
-363.592
-786.091
-341.858
-1184.57
-310.156
-1543
-269.134
-1851.4
-217.739
-2129.8
-154.348
-2398.61
-74.7045
-2660.77
21.8148
-2897.5
135.297
-3099.91
258.338
-3275.4
381.717
-3458.42
499.922
-3634.24
609.152
-3788.59
717.782
-3929.47
838.288
-4108.01
974.674
-4252.96
1119.7
-4267.83
1274.08
-4191.93
1438.75
-4020.7
1605.33
-3717.74
1752.05
-3147.28
1861.3
-2316.01
1947.21
-1266.59
1954.69
418.994
1932.68
1643.09
1915.41
2149.81
1896.87
2286.46
1869.56
2258.62
1830.1
2158.56
1777.99
2022.88
1713.33
1863.12
1630.93
1697.11
1523.71
1522.18
1405.6
1268.64
1273.73
984.104
1180.98
417.49
1374.77
-1419.4
1727.05
-3300.36
2069.69
-4466.63
2362.76
-4970.71
2609.45
-5007.37
2819.34
-4763.8
3006.68
-4396.36
3190.48
-4008.84
3390.39
-3643.05
3616.57
-3272.48
3865.93
-2848.86
4122.98
-2322.3
4353.95
-1642.13
4508.36
-810.794
4536.5
127.776
4432.99
923.377
4272.95
1296.45
4112.55
1343.62
3970
1245.61
3846.26
1109.28
3737.01
984.045
3637.08
889.268
3542.41
825.682
3449.01
775.839
3348.83
701.934
3227.99
538.484
3074.59
168.544
2918.95
-409.896
2789.32
-958.246
2687.56
-1282.59
2599.49
-1238.28
2401.09
-465.087
2135.28
1015.56
1927.51
2228.49
1778.18
2948.37
1658.9
3323.34
1549.31
3499.45
1439.49
3558.96
1325.28
3545.65
1205.45
3482.46
1079.99
3379.99
948.519
3247.23
811.111
3082.36
656.324
2872.82
455.057
2709.08
250.074
2558
75.8495
2162.43
-109.536
1211.55
-763.498
-401.591
-1534.03
-1515.08
-2282.02
-1722.29
-2864.68
-1192.12
-3217.86
-202.402
660.889
-157.795
1230.67
-202.006
1139.47
-243.61
994.662
-280.317
831.295
-310.753
639.872
-334.611
451.55
-352.441
275.333
-368.109
105.073
-379.165
-122.079
-384.358
-413.533
-379.925
-790.527
-364.547
-1199.95
-339.562
-1567.98
-305.706
-1885.26
-262.401
-2173.1
-208.596
-2452.41
-142.141
-2727.23
-61.5521
-2978.09
36.7944
-3198.26
147.525
-3386.14
259.834
-3570.73
366.348
-3740.75
463.499
-3885.74
558.396
-4024.37
656.945
-4206.56
765.925
-4361.94
880.233
-4382.14
1002.84
-4314.54
1144.19
-4162.05
1296.36
-3869.92
1437.22
-3288.13
1545.76
-2424.56
1638.35
-1359.18
1653.3
404.042
1643.55
1652.84
1641.05
2152.31
1635.23
2292.27
1617.63
2276.22
1585.41
2190.78
1538.5
2069.79
1475.78
1925.84
1388.71
1784.18
1272.15
1638.74
1147.28
1393.51
990.731
1140.65
913.395
494.822
1156.29
-1662.3
1489.74
-3633.81
1778.32
-4755.21
2024.91
-5217.3
2236.7
-5219.17
2416.64
-4943.73
2574.48
-4554.2
2729.46
-4163.82
2906.11
-3819.7
3121.19
-3487.56
3376.37
-3104.04
3657.15
-2603.08
3928.77
-1913.74
4135.84
-1017.87
4218.22
45.3967
4146.01
995.587
4002.21
1440.24
3853.26
1492.58
3720.6
1378.26
3605.67
1224.21
3504.38
1085.34
3412.47
981.175
3326.36
911.789
3241.6
860.606
3153.02
790.51
3053.67
637.833
2917.11
305.11
2762.63
-255.419
2626.3
-821.913
2497.69
-1153.98
2357.44
-1098.03
2084.36
-192.002
1779.95
1319.97
1563
2445.43
1416.23
3095.14
1302.24
3437.33
1198.86
3602.82
1095.82
3662
988.795
3652.68
877.126
3594.12
760.804
3496.31
636.881
3371.16
504.393
3214.84
339.651
3037.56
131.171
2917.56
-38.3659
2727.54
-160.268
2284.34
-351.359
1402.64
-929.38
176.43
-1655.37
-789.085
-2354.08
-1023.59
-2919.21
-626.993
-3271.93
150.316
813.179
-172.334
1270.91
-212.76
1179.9
-250.93
1032.83
-284.399
864.763
-312.019
667.49
-333.94
473.469
-351.029
292.419
-367.742
121.781
-381.559
-108.264
-391.045
-404.05
-391.91
-789.663
-382.468
-1209.39
-364.002
-1586.45
-337.38
-1911.88
-302.281
-2208.2
-257.817
-2496.88
-202.892
-2782.16
-136.418
-3044.56
-54.6425
-3280.03
41.2783
-3482.06
141.437
-3670.89
238.269
-3837.59
328.51
-3975.98
415.473
-4111.34
496.326
-4287.41
580.634
-4446.25
662.376
-4463.88
747.226
-4399.39
857.738
-4272.56
986.604
-3998.78
1115.45
-3416.98
1222.39
-2531.5
1326.12
-1462.9
1354.42
375.734
1359.97
1647.3
1372.71
2139.56
1378.89
2286.1
1370.23
2284.87
1344.96
2216.05
1302.81
2111.94
1240.09
1988.55
1145.56
1878.71
1022.38
1761.93
890.536
1525.35
701.381
1329.8
677.431
518.767
962.946
-1947.81
1250.77
-3921.63
1486.93
-4991.38
1698.42
-5428.78
1885.43
-5406.19
2043.69
-5101.98
2178.36
-4688.88
2307.22
-4292.68
2457.95
-3970.42
2653.68
-3683.29
2901.81
-3352.17
3189.47
-2890.75
3484
-2208.27
3730.49
-1264.36
3866.46
-90.5702
3831.63
1030.41
3711.12
1560.76
3579.8
1623.9
3461.89
1496.17
3359.39
1326.71
3268.92
1175.81
3187.1
1063
3110.42
988.467
3035.45
935.576
2960.9
865.056
2880.54
718.199
2762.4
423.252
2617.47
-110.498
2485.88
-690.314
2343.21
-1011.31
2131.3
-886.124
1768.49
170.805
1433.78
1654.67
1215.16
2664.06
1072.5
3237.8
962.894
3546.93
864.341
3701.38
767.204
3759.13
667.973
3751.91
565.857
3696.24
457.121
3605.05
336.919
3491.36
203.651
3348.11
28.488
3212.73
-161.753
3107.8
-299.888
2865.68
-417.991
2402.44
-624.54
1609.19
-1087.54
639.433
-1739.65
-136.975
-2369.53
-393.704
-2887.89
-108.633
-3210.38
472.796
963.601
-184.823
1307.91
-221.737
1216.81
-256.426
1067.52
-286.527
894.862
-311.163
692.123
-330.996
493.298
-347.169
308.587
-364.575
139.18
-380.667
-92.1764
-393.805
-390.916
-399.23
-784.24
-395.042
-1213.58
-382.653
-1598.84
-363.16
-1931.37
-336.481
-2234.88
-301.779
-2531.58
-258.059
-2825.88
-204.22
-3098.4
-138.097
-3346.16
-58.7326
-3561.42
27.253
-3756.87
115.047
-3925.38
200.597
-4061.53
283.691
-4194.43
353.787
-4357.51
419.29
-4511.76
471.208
-4515.8
519.097
-4447.28
592.036
-4345.5
685.748
-4092.5
790.545
-3521.77
890.278
-2631.24
1008.85
-1581.47
1057.98
326.596
1082.44
1622.84
1110.91
2111.09
1128.42
2268.59
1128.23
2285.06
1109.58
2234.7
1070.79
2150.73
1005.21
2054.13
902.929
1980.99
780.484
1884.37
637.989
1667.84
403.448
1564.34
478.438
443.77
785.833
-2255.21
1015.24
-4151.03
1206.72
-5182.86
1389.63
-5611.7
1557.32
-5573.88
1701.37
-5246.03
1822.18
-4809.69
1933.09
-4403.59
2061.03
-4098.36
2233.65
-3855.9
2465
-3583.53
2745.16
-3170.91
3045.05
-2508.16
3311.95
-1531.25
3490.95
-269.57
3494.14
1027.22
3401.79
1653.11
3293.39
1732.3
3194.65
1594.91
3108.04
1413.32
3030.96
1252.88
2960.62
1133.34
2894.34
1054.75
2831.3
998.617
2771.88
924.47
2706.6
783.482
2610.76
519.091
2482.87
17.3958
2354.65
-562.096
2213.14
-869.803
1907.58
-580.566
1443.58
634.809
1095.61