/*--------------------------------*- C++ -*----------------------------------*\
| =========                 |                                                 |
| \\      /  F ield         | OpenFOAM: The Open Source CFD Toolbox           |
|  \\    /   O peration     | Version:  4.1                                   |
|   \\  /    A nd           | Web:      www.OpenFOAM.org                      |
|    \\/     M anipulation  |                                                 |
\*---------------------------------------------------------------------------*/
FoamFile
{
    version     2.0;
    format      ascii;
    class       volVectorField;
    location    "600";
    object      U;
}
// * * * * * * * * * * * * * * * * * * * * * * * * * * * * * * * * * * * * * //

dimensions      [0 1 -1 0 0 0 0];

internalField   nonuniform List<vector> 
26785
(
(3.41991e-16 0.0456752 0.594803)
(-3.28235e-15 0.0328818 -0.526078)
(-7.35867e-15 0.0187623 -0.959126)
(-6.43195e-15 0.0145132 -1.29143)
(4.05737e-15 0.0120377 -1.56154)
(2.6366e-15 0.00909428 -1.77369)
(1.73082e-14 0.00636447 -1.9257)
(1.2732e-14 0.0034685 -2.01078)
(7.95751e-15 -0.000439671 -2.00127)
(-1.61247e-14 -0.00777839 -1.87049)
(6.51073e-15 -0.0192994 -1.5832)
(5.18648e-15 -0.0354031 -1.17763)
(5.17199e-15 -0.0566865 -0.521359)
(5.60014e-15 -0.0713186 0.523737)
(5.17571e-15 -0.0776511 1.62943)
(4.23568e-15 -0.0839827 2.8016)
(3.68273e-15 -0.0900926 4.03203)
(3.57263e-15 -0.0961042 5.31555)
(3.65782e-15 -0.101934 6.64712)
(4.16324e-15 -0.107485 8.0191)
(3.5419e-15 -0.113453 9.42989)
(2.55337e-15 -0.1193 10.8801)
(1.18937e-15 -0.124848 12.3658)
(3.34817e-15 -0.129338 13.875)
(1.61918e-15 -0.132865 15.3935)
(2.39263e-15 -0.134982 16.909)
(2.24051e-15 -0.134692 18.398)
(2.6332e-15 -0.131517 19.8289)
(2.98677e-15 -0.123367 21.1725)
(2.9312e-15 -0.104261 22.3651)
(2.56582e-15 -0.0674491 23.2671)
(4.17658e-15 -0.0159955 23.7121)
(3.24236e-15 0.040181 23.5816)
(4.44536e-15 0.0895083 22.8706)
(3.96536e-15 0.119408 21.7447)
(5.57621e-15 0.130846 20.4407)
(5.77629e-15 0.131119 19.1242)
(6.38151e-15 0.126028 17.8723)
(6.46652e-15 0.118697 16.7127)
(6.16115e-15 0.110405 15.6532)
(7.95412e-15 0.101447 14.6951)
(4.85984e-15 0.0916136 13.8399)
(4.31239e-15 0.0799038 13.0945)
(1.62235e-15 0.0644993 12.4781)
(3.48411e-15 0.0439518 12.021)
(-4.63449e-15 0.0168896 11.7692)
(-3.59192e-16 -0.0152238 11.7784)
(-1.34463e-16 -0.0466046 12.0658)
(3.20031e-16 -0.0721732 12.5858)
(3.03043e-16 -0.0897075 13.2601)
(3.03095e-15 -0.0989705 14.0099)
(1.74041e-15 -0.100969 14.7699)
(1.74323e-15 -0.0973179 15.4934)
(1.47589e-15 -0.0896205 16.1508)
(1.63486e-15 -0.0790436 16.7248)
(1.96342e-15 -0.0662486 17.2051)
(1.59058e-15 -0.0516164 17.5839)
(2.20496e-15 -0.035522 17.8549)
(2.46426e-15 -0.0187794 18.014)
(2.38564e-15 -0.00290142 18.0642)
(3.50068e-15 0.0102882 18.0197)
(3.58592e-15 0.019235 17.9062)
(3.63424e-15 0.0232267 17.7566)
(2.75288e-15 0.022564 17.6036)
(3.6625e-15 0.0181299 17.4737)
(4.17426e-15 0.0108986 17.3852)
(4.69026e-15 0.00163168 17.3492)
(5.1399e-15 -0.00936065 17.3725)
(5.58654e-15 -0.0223965 17.4609)
(5.74489e-15 -0.0382398 17.6232)
(5.94314e-15 -0.0572728 17.8731)
(7.34637e-15 -0.0780503 18.2249)
(7.3472e-15 -0.0959608 18.6821)
(7.26584e-15 -0.103199 19.2187)
(7.15271e-15 -0.0910222 19.7621)
(7.3681e-15 -0.0548378 20.1971)
(6.71277e-15 0.000712143 20.3952)
(6.34246e-15 0.0635089 20.257)
(6.24983e-15 0.119872 19.7652)
(6.32508e-15 0.159569 18.9915)
(6.52095e-15 0.181182 18.0488)
(6.51941e-15 0.189035 17.0357)
(6.91043e-15 0.188186 16.0169)
(6.94586e-15 0.182437 15.0286)
(6.70788e-15 0.174127 14.0887)
(7.13929e-15 0.164476 13.2057)
(7.09835e-15 0.153947 12.3835)
(7.39012e-15 0.142535 11.6249)
(5.56712e-15 0.129803 10.9342)
(5.45109e-15 0.114875 10.3188)
(5.23682e-15 0.0966957 9.79044)
(5.16473e-15 0.0733316 9.36918)
(4.99065e-15 0.0423161 9.08216)
(4.59428e-15 -0.00157783 8.97263)
(4.15866e-15 -0.0541406 9.11495)
(2.91379e-15 -0.0894551 9.49789)
(1.56764e-15 -0.0903988 9.98608)
(5.78487e-16 -0.0628218 10.3684)
(-3.71175e-16 -0.0272897 10.623)
(-1.82688e-15 0.0116157 10.5973)
(3.95913e-16 0.131059 0.599173)
(-6.41071e-15 0.099714 -0.494237)
(1.17963e-15 0.0577235 -0.942959)
(6.40708e-15 0.0446996 -1.2927)
(2.16348e-14 0.0360887 -1.56437)
(-4.66266e-15 0.0260739 -1.76408)
(2.44429e-14 0.0163762 -1.88931)
(-4.42445e-15 0.00556805 -1.92675)
(-8.53731e-15 -0.00910209 -1.83884)
(3.02969e-15 -0.0341233 -1.60491)
(4.01021e-15 -0.0710526 -1.19007)
(6.65439e-15 -0.123048 -0.543461)
(6.1942e-15 -0.171938 0.34443)
(7.08313e-15 -0.206264 1.33718)
(9.15925e-16 -0.227379 2.40093)
(4.12991e-15 -0.247024 3.53037)
(7.83932e-15 -0.265528 4.71603)
(4.23648e-15 -0.283213 5.95028)
(4.22717e-15 -0.299934 7.22688)
(6.86547e-15 -0.315578 8.53799)
(1.65584e-15 -0.332115 9.8824)
(5.10039e-15 -0.348018 11.2607)
(2.80791e-15 -0.362742 12.6687)
(4.45037e-15 -0.374189 14.0944)
(3.60793e-15 -0.382672 15.5237)
(1.66644e-15 -0.386597 16.9445)
(2.09254e-15 -0.382724 18.3315)
(2.07586e-15 -0.370128 19.6513)
(2.12141e-15 -0.345109 20.878)
(1.78602e-15 -0.293552 21.972)
(1.95091e-15 -0.19416 22.8403)
(1.36795e-15 -0.0469472 23.3446)
(2.02048e-15 0.125569 23.3151)
(2.45659e-15 0.282403 22.6674)
(2.19783e-15 0.376808 21.5538)
(3.6673e-15 0.410629 20.2342)
(4.53117e-15 0.40809 18.8944)
(5.24822e-15 0.38861 17.6223)
(5.31971e-15 0.36256 16.4506)
(5.16982e-15 0.334105 15.3884)
(4.8359e-15 0.304098 14.4379)
(5.78607e-15 0.271748 13.6006)
(2.70881e-15 0.234078 12.8833)
(6.51917e-15 0.186204 12.3032)
(5.04088e-15 0.124102 11.8848)
(5.25987e-15 0.0413711 11.6697)
(-2.6113e-17 -0.0585636 11.718)
(6.6759e-16 -0.154809 12.0423)
(-1.76681e-15 -0.228926 12.5792)
(3.12483e-15 -0.274279 13.2371)
(-3.94743e-16 -0.292516 13.9368)
(1.61704e-15 -0.289309 14.6237)
(7.17737e-16 -0.271269 15.2649)
(6.16052e-16 -0.243939 15.8425)
(4.83796e-15 -0.210845 16.3469)
(2.0657e-15 -0.173589 16.7715)
(5.80846e-16 -0.132732 17.1096)
(1.78615e-15 -0.088735 17.3538)
(3.51237e-15 -0.0434033 17.4982)
(2.79411e-15 -0.000761118 17.543)
(2.30424e-15 0.0341021 17.4997)
(2.74876e-15 0.0567848 17.3909)
(4.8917e-15 0.0653695 17.2466)
(6.56282e-15 0.0610293 17.0964)
(6.29669e-15 0.0467242 16.963)
(6.24788e-15 0.025656 16.861)
(6.5863e-15 0.000347745 16.7977)
(6.93201e-15 -0.0279688 16.7761)
(7.12141e-15 -0.0598065 16.7977)
(8.44304e-15 -0.0971449 16.8661)
(8.71812e-15 -0.141827 16.9898)
(8.99653e-15 -0.192357 17.1827)
(1.02106e-14 -0.240182 17.4597)
(1.05713e-14 -0.267831 17.823)
(1.02721e-14 -0.251539 18.2432)
(9.20219e-15 -0.17182 18.6495)
(9.21532e-15 -0.0290671 18.9332)
(8.4594e-15 0.151657 18.9622)
(8.10961e-15 0.325212 18.6476)
(8.31007e-15 0.451438 18.0216)
(8.08539e-15 0.521591 17.1925)
(7.80078e-15 0.548248 16.267)
(7.77523e-15 0.547407 15.318)
(8.15633e-15 0.531211 14.3874)
(8.19296e-15 0.507084 13.4969)
(6.82764e-15 0.478865 12.657)
(6.38513e-15 0.447981 11.8731)
(6.17286e-15 0.414418 11.1491)
(7.52073e-15 0.376852 10.4896)
(6.84453e-15 0.332718 9.90248)
(6.38122e-15 0.278873 9.3991)
(5.92188e-15 0.209669 8.99944)
(6.29459e-15 0.119294 8.72962)
(3.77801e-15 -0.0100857 8.62291)
(2.82439e-15 -0.169223 8.76514)
(1.42692e-15 -0.275636 9.16051)
(-3.94559e-16 -0.276117 9.66692)
(-2.32008e-15 -0.191117 10.0632)
(-3.78937e-15 -0.0851061 10.3279)
(-5.23996e-15 0.0322831 10.3167)
(3.17407e-16 0.214588 0.583474)
(-1.5537e-15 0.165346 -0.41389)
(1.45798e-15 0.0976488 -0.856027)
(2.27277e-14 0.0760415 -1.23076)
(1.52294e-14 0.0594642 -1.50979)
(2.36582e-16 0.0402333 -1.70038)
(1.64341e-14 0.0212592 -1.80205)
(-2.18254e-15 0.000269771 -1.80237)
(1.12229e-15 -0.0285005 -1.66862)
(1.72145e-16 -0.0745082 -1.39095)
(2.9818e-15 -0.140953 -0.939726)
(8.81068e-15 -0.220503 -0.263503)
(6.454e-15 -0.286489 0.591089)
(7.33012e-15 -0.335101 1.52212)
(7.72112e-15 -0.369499 2.52005)
(2.2914e-15 -0.40127 3.57615)
(6.70209e-15 -0.431104 4.68002)
(4.26293e-16 -0.459567 5.82416)
(4.87396e-15 -0.486509 7.00346)
(1.0931e-15 -0.511898 8.21141)
(-4.08135e-16 -0.53897 9.449)
(2.80383e-15 -0.565096 10.7188)
(2.39093e-15 -0.589245 12.0175)
(9.44961e-16 -0.607922 13.3331)
(1.62403e-15 -0.621679 14.652)
(-2.46393e-16 -0.627648 15.9624)
(1.8629e-16 -0.620238 17.2391)
(-9.38906e-18 -0.598497 18.4478)
(5.11287e-16 -0.559042 19.5651)
(9.43292e-16 -0.483829 20.5622)
(1.22119e-15 -0.339398 21.3775)
(1.80983e-15 -0.116016 21.929)
(3.5353e-16 0.164949 22.0819)
(1.64952e-15 0.437582 21.6643)
(2.63689e-15 0.608977 20.7343)
(2.26337e-15 0.674627 19.5389)
(2.35777e-15 0.674783 18.2803)
(2.67814e-15 0.643502 17.0641)
(2.97463e-15 0.599434 15.9361)
(3.29586e-15 0.550329 14.9141)
(3.50381e-15 0.498047 14.0056)
(3.4312e-15 0.441584 13.2147)
(3.3613e-15 0.376529 12.548)
(3.36263e-15 0.295606 12.0188)
(3.33911e-15 0.192532 11.6435)
(3.1195e-15 0.0553916 11.4568)
(2.84506e-15 -0.109466 11.5145)
(2.51902e-15 -0.263512 11.8167)
(2.18496e-15 -0.375768 12.2917)
(1.72791e-15 -0.439317 12.8598)
(1.14545e-15 -0.46136 13.4673)
(6.12852e-16 -0.453324 14.081)
(-1.67406e-16 -0.425647 14.6771)
(-7.42995e-16 -0.38573 15.2358)
(-1.09743e-15 -0.337487 15.7402)
(-2.16346e-15 -0.2821 16.1756)
(-1.07149e-16 -0.219646 16.5283)
(-4.41844e-16 -0.150528 16.786)
(-1.10025e-15 -0.0776967 16.9394)
(1.34917e-15 -0.00798513 16.9872)
(1.21542e-15 0.0500314 16.9393)
(1.05648e-15 0.0889864 16.8171)
(1.25534e-15 0.105715 16.6492)
(1.6241e-15 0.102276 16.4634)
(1.75983e-15 0.0836466 16.2808)
(3.86928e-15 0.0550541 16.1145)
(5.62167e-15 0.0205467 15.9714)
(5.88793e-15 -0.0178097 15.8546)
(6.79122e-15 -0.0606129 15.7658)
(7.52282e-15 -0.111049 15.7087)
(8.25711e-15 -0.17322 15.692)
(9.03943e-15 -0.247892 15.7318)
(9.35145e-15 -0.326462 15.8494)
(9.45266e-15 -0.386514 16.0604)
(9.49661e-15 -0.392951 16.3585)
(9.50872e-15 -0.30986 16.7062)
(9.31515e-15 -0.122036 17.0315)
(8.76323e-15 0.152742 17.2137)
(8.16137e-15 0.445931 17.1)
(7.74213e-15 0.67291 16.6601)
(7.53903e-15 0.80634 15.9836)
(7.50184e-15 0.863423 15.1808)
(7.13708e-15 0.871005 14.3315)
(7.49857e-15 0.850364 13.4838)
(7.44551e-15 0.81477 12.6636)
(7.20163e-15 0.771226 11.8844)
(6.88283e-15 0.722492 11.1538)
(6.46614e-15 0.668815 10.4768)
(6.44369e-15 0.608193 9.85892)
(5.73142e-15 0.536588 9.30846)
(4.82076e-15 0.449062 8.83581)
(4.63316e-15 0.336414 8.46053)
(2.33439e-15 0.191323 8.20754)
(2.23841e-15 -0.0202993 8.09988)
(8.76162e-16 -0.291326 8.24458)
(-1.07294e-15 -0.473542 8.67639)
(-3.83097e-15 -0.473221 9.23844)
(-5.06818e-15 -0.327513 9.67768)
(-6.16846e-15 -0.149863 9.9648)
(-6.95942e-15 0.0493552 9.96187)
(1.28195e-16 0.293037 0.544892)
(9.36715e-15 0.22704 -0.317388)
(2.6492e-14 0.139348 -0.751143)
(1.79822e-14 0.110644 -1.17589)
(1.34826e-14 0.0842399 -1.47692)
(1.70919e-14 0.0542534 -1.66915)
(-1.9485e-15 0.0252539 -1.75993)
(-1.28119e-14 -0.00594605 -1.74193)
(-2.09862e-15 -0.0483716 -1.59202)
(-2.46877e-15 -0.114465 -1.30498)
(3.22145e-15 -0.209059 -0.856464)
(1.09735e-14 -0.314615 -0.20785)
(5.41738e-15 -0.397695 0.605713)
(1.03355e-14 -0.459151 1.50028)
(4.08888e-15 -0.505407 2.45509)
(1.66332e-15 -0.54778 3.45843)
(-1.09997e-16 -0.587343 4.50032)
(3.33588e-15 -0.625047 5.57383)
(-2.07559e-15 -0.660806 6.67479)
(-3.5435e-16 -0.694771 7.79739)
(2.97747e-16 -0.731518 8.94445)
(2.1344e-15 -0.767252 10.1203)
(7.03877e-16 -0.800327 11.3222)
(5.36217e-16 -0.825781 12.5382)
(1.41727e-16 -0.844512 13.7545)
(-1.51512e-16 -0.852327 14.9607)
(1.73366e-16 -0.841244 16.1314)
(3.23125e-16 -0.810349 17.2326)
(3.60644e-16 -0.756818 18.2429)
(4.34662e-16 -0.660928 19.1397)
(1.11129e-15 -0.482397 19.8765)
(-1.11909e-15 -0.205046 20.4067)
(-1.74011e-15 0.160227 20.6404)
(-1.16485e-15 0.542741 20.3815)
(-8.06567e-16 0.798069 19.6161)
(2.22689e-15 0.905121 18.5636)
(-6.28031e-16 0.915837 17.4228)
(1.36132e-15 0.878024 16.3033)
(3.73609e-15 0.818931 15.2573)
(-2.12508e-17 0.750504 14.3086)
(1.33227e-15 0.676262 13.4688)
(3.13858e-15 0.595739 12.7433)
(3.03711e-15 0.504048 12.137)
(-1.26145e-15 0.392397 11.6587)
(2.85651e-15 0.252751 11.3168)
(1.88436e-15 0.0676102 11.1358)
(3.85438e-15 -0.153731 11.1619)
(2.66698e-15 -0.355882 11.3927)
(-5.08337e-16 -0.500139 11.7767)
(-6.00694e-15 -0.583584 12.272)
(-3.15408e-15 -0.618067 12.8507)
(-5.007e-15 -0.616091 13.4779)
(-3.7473e-15 -0.587443 14.1111)
(-2.26541e-15 -0.539336 14.7113)
(-3.3933e-15 -0.476292 15.249)
(-3.22626e-15 -0.40036 15.7043)
(-4.76322e-15 -0.312556 16.063)
(-2.1943e-15 -0.214239 16.3146)
(-3.34137e-15 -0.110022 16.4519)
(-2.00943e-15 -0.0097518 16.4745)
(-1.87316e-15 0.0745652 16.3935)
(-1.35848e-15 0.132732 16.2304)
(-2.39957e-15 0.160442 16.0139)
(-1.22042e-15 0.160763 15.7724)
(5.13401e-17 0.140721 15.5267)
(6.17079e-16 0.107472 15.29)
(3.95788e-16 0.0664466 15.0693)
(1.72795e-15 0.0204494 14.868)
(3.58316e-15 -0.0312421 14.6885)
(4.4962e-15 -0.0929967 14.5346)
(4.24501e-15 -0.17113 14.4157)
(3.55624e-15 -0.268682 14.3489)
(3.92715e-15 -0.377265 14.3577)
(3.10908e-15 -0.47087 14.4612)
(4.85053e-15 -0.507 14.6608)
(7.27296e-15 -0.438834 14.9342)
(8.47669e-15 -0.236526 15.24)
(8.44237e-15 0.100676 15.4902)
(7.46218e-15 0.502074 15.5102)
(6.99822e-15 0.833109 15.2169)
(6.73865e-15 1.03756 14.6739)
(6.70164e-15 1.13262 13.9876)
(6.86393e-15 1.15491 13.2392)
(6.54644e-15 1.13488 12.4786)
(6.9382e-15 1.09191 11.7341)
(6.69502e-15 1.03639 11.021)
(7.6121e-15 0.972612 10.3482)
(7.36658e-15 0.901289 9.72202)
(7.38185e-15 0.819938 9.14846)
(5.87648e-15 0.723256 8.6362)
(6.12634e-15 0.605004 8.19376)
(4.51101e-15 0.45232 7.84021)
(3.43546e-15 0.258206 7.60114)
(1.85725e-15 -0.0332103 7.48075)
(-2.79076e-16 -0.429554 7.62539)
(-1.22708e-15 -0.702034 8.14077)
(-2.37785e-15 -0.701745 8.82269)
(-1.90307e-15 -0.483966 9.34308)
(-1.74285e-15 -0.222201 9.66589)
(-1.95116e-15 0.0673971 9.65023)
(6.23932e-18 0.362531 0.492686)
(1.74343e-14 0.282942 -0.224082)
(2.3652e-14 0.183759 -0.674886)
(1.91023e-14 0.14915 -1.16279)
(1.2408e-14 0.109923 -1.48056)
(6.78685e-15 0.0673078 -1.67115)
(1.3479e-14 0.0272998 -1.75709)
(-4.54952e-15 -0.0148005 -1.73273)
(-6.13211e-15 -0.070879 -1.58222)
(-4.66853e-15 -0.155709 -1.30456)
(3.87599e-15 -0.275454 -0.880288)
(1.18938e-14 -0.405435 -0.283029)
(2.84107e-15 -0.506359 0.476939)
(5.69564e-15 -0.580686 1.3305)
(6.83751e-16 -0.637764 2.23948)
(-3.79986e-15 -0.689655 3.1904)
(-6.69239e-16 -0.737865 4.17428)
(-8.96344e-16 -0.783754 5.18473)
(-7.37099e-16 -0.827273 6.21819)
(7.02799e-16 -0.868834 7.26876)
(1.91448e-15 -0.91448 8.34045)
(2.09706e-15 -0.959127 9.43897)
(1.38988e-15 -1.00041 10.5616)
(7.80233e-16 -1.03182 11.6955)
(4.56345e-16 -1.05482 12.8266)
(2.43398e-16 -1.06382 13.9456)
(1.75036e-16 -1.04842 15.0272)
(2.20197e-15 -1.00808 16.0372)
(1.04357e-15 -0.940919 16.9567)
(1.18411e-15 -0.826549 17.7674)
(1.11631e-15 -0.61915 18.4305)
(9.70647e-16 -0.298113 18.9204)
(6.19432e-16 0.135677 19.1866)
(-5.99335e-16 0.618585 19.0319)
(-1.69749e-15 0.955235 18.3908)
(-8.96426e-16 1.10466 17.4642)
(-7.93069e-16 1.12853 16.4433)
(-3.32531e-16 1.08705 15.4338)
(5.28445e-16 1.01539 14.487)
(9.93019e-16 0.929582 13.628)
(1.01124e-15 0.835056 12.869)
(1.72548e-15 0.732406 12.2146)
(1.01566e-15 0.616852 11.6663)
(3.34992e-15 0.47841 11.2299)
(2.34373e-15 0.308053 10.9087)
(1.47802e-15 0.0837162 10.7135)
(-4.22472e-16 -0.184862 10.6806)
(-2.61498e-15 -0.430473 10.8286)
(-4.29146e-15 -0.611909 11.1554)
(-9.80929e-15 -0.728173 11.6544)
(-6.0265e-15 -0.787327 12.2871)
(-7.15398e-15 -0.796691 12.9829)
(-4.35761e-15 -0.765251 13.671)
(-3.42482e-15 -0.703372 14.3022)
(-2.41331e-15 -0.619429 14.8495)
(-2.45514e-15 -0.518046 15.2986)
(-3.73115e-15 -0.401578 15.6414)
(-3.40129e-15 -0.271956 15.8709)
(-4.81023e-15 -0.134836 15.9813)
(-4.82408e-15 -0.00270277 15.9725)
(-3.98062e-15 0.109222 15.8552)
(-3.35602e-15 0.187957 15.6509)
(-4.2557e-15 0.227993 15.3887)
(-3.39799e-15 0.233462 15.0979)
(-3.09867e-15 0.213578 14.7997)
(-3.84931e-15 0.177438 14.5063)
(-1.45379e-15 0.131814 14.2244)
(-1.83842e-15 0.0802539 13.9568)
(-1.04149e-15 0.0218777 13.7056)
(-1.70152e-15 -0.0489484 13.4746)
(-2.80347e-15 -0.141051 13.2733)
(-3.82324e-15 -0.260262 13.1208)
(-4.37067e-15 -0.398779 13.0429)
(-3.22952e-15 -0.527219 13.0612)
(-4.85354e-16 -0.597019 13.179)
(2.43414e-15 -0.553563 13.3795)
(4.98899e-15 -0.355212 13.6403)
(6.7377e-15 0.0183947 13.9044)
(7.56812e-15 0.51353 14.0016)
(7.90187e-15 0.945889 13.8104)
(7.00019e-15 1.22362 13.3699)
(6.49498e-15 1.3603 12.7814)
(6.61862e-15 1.40124 12.1235)
(5.9898e-15 1.38572 11.4452)
(5.38865e-15 1.33898 10.7742)
(5.50067e-15 1.2747 10.1262)
(5.85489e-15 1.19875 9.51103)
(6.10307e-15 1.11246 8.93537)
(6.01677e-15 1.01302 8.40533)
(7.89086e-15 0.894165 7.92979)
(7.1406e-15 0.748863 7.51398)
(6.80099e-15 0.559874 7.1783)
(4.16249e-15 0.32504 6.94834)
(2.6295e-15 -0.0428928 6.79067)
(-4.95259e-16 -0.596615 6.95154)
(-5.46438e-16 -0.990792 7.62661)
(2.85557e-16 -0.985653 8.47159)
(3.0825e-16 -0.671176 9.07019)
(2.03162e-16 -0.299867 9.41546)
(6.22381e-16 0.0928589 9.35701)
(3.27884e-16 0.42298 0.424551)
(2.3117e-14 0.333725 -0.154774)
(2.27856e-14 0.231693 -0.660796)
(1.78495e-14 0.190216 -1.19184)
(9.40304e-15 0.135383 -1.50972)
(1.30557e-14 0.0799297 -1.6993)
(1.41089e-14 0.0292491 -1.78799)
(2.11696e-15 -0.0238896 -1.76426)
(-7.88831e-15 -0.0933848 -1.62026)
(-1.28282e-14 -0.19542 -1.3606)
(3.00154e-15 -0.337387 -0.970085)
(5.44434e-15 -0.490087 -0.434462)
(4.83261e-16 -0.610247 0.258189)
(-1.36924e-16 -0.698186 1.06132)
(-5.34321e-17 -0.765588 1.91783)
(-8.44753e-17 -0.826498 2.81308)
(4.05927e-16 -0.882884 3.73907)
(-1.36114e-15 -0.936498 4.68968)
(6.76973e-17 -0.987265 5.66153)
(3.45372e-15 -1.03591 6.64772)
(3.26506e-15 -1.09011 7.65319)
(2.79244e-15 -1.14334 8.685)
(3.7229e-15 -1.19238 9.74036)
(3.5356e-15 -1.22912 10.8051)
(1.11445e-15 -1.25585 11.8653)
(1.95556e-15 -1.2655 12.913)
(2.27544e-15 -1.24521 13.9224)
(2.08876e-15 -1.19503 14.8589)
(1.42779e-15 -1.11411 15.7057)
(2.11517e-15 -0.982227 16.4477)
(1.88585e-15 -0.749892 17.0484)
(9.91944e-16 -0.394198 17.4947)
(1.92266e-15 0.093999 17.7694)
(1.11934e-15 0.669597 17.6868)
(-3.57578e-16 1.08463 17.1406)
(-1.82931e-15 1.27535 16.3213)
(-1.7088e-15 1.31284 15.4135)
(-8.58483e-16 1.26921 14.5147)
(-7.07759e-17 1.18703 13.6714)
(7.57196e-16 1.08613 12.9056)
(-2.48289e-15 0.973909 12.2279)
(-1.13047e-15 0.852285 11.6402)
(2.08632e-16 0.716718 11.1411)
(-2.94921e-15 0.556049 10.7359)
(-1.45975e-15 0.361586 10.4252)
(-3.01565e-15 0.10804 10.2028)
(-4.21862e-15 -0.201406 10.1011)
(-5.41036e-15 -0.495136 10.1905)
(-6.25974e-15 -0.728524 10.5268)
(-5.99912e-15 -0.89107 11.0984)
(-4.0786e-15 -0.978013 11.8163)
(-2.27884e-15 -0.993152 12.5728)
(-1.528e-15 -0.950965 13.2907)
(-1.55455e-15 -0.869072 13.929)
(-1.6608e-15 -0.760572 14.47)
(-1.85075e-15 -0.631925 14.9057)
(-2.14731e-15 -0.485901 15.2313)
(-3.19058e-15 -0.324247 15.4413)
(-3.75424e-15 -0.153166 15.5296)
(-3.26644e-15 0.0122128 15.4949)
(-4.61935e-15 0.153294 15.3472)
(-3.95475e-15 0.254146 15.1077)
(-5.61022e-15 0.307596 14.8049)
(-7.48544e-15 0.31892 14.473)
(-9.4537e-15 0.300145 14.1337)
(-9.71986e-15 0.262491 13.7978)
(-1.01414e-14 0.213818 13.4687)
(-8.53328e-15 0.158377 13.1495)
(-7.37184e-15 0.0951305 12.8413)
(-8.40083e-15 0.0169924 12.5473)
(-8.05648e-15 -0.0876934 12.2774)
(-7.59795e-15 -0.227883 12.0526)
(-3.91357e-15 -0.396256 11.9024)
(8.45491e-16 -0.559516 11.8509)
(4.13496e-15 -0.663532 11.9006)
(3.95314e-15 -0.648908 12.0337)
(4.26323e-15 -0.466184 12.2373)
(5.3903e-15 -0.07548 12.4797)
(6.23747e-15 0.497938 12.6097)
(6.97363e-15 1.02558 12.4814)
(6.98551e-15 1.37484 12.1139)
(6.94808e-15 1.55322 11.603)
(6.39173e-15 1.61422 11.0228)
(7.61256e-15 1.60544 10.4186)
(6.56043e-15 1.55752 9.81583)
(4.78793e-15 1.48717 9.22952)
(4.45195e-15 1.40167 8.66934)
(4.26709e-15 1.30303 8.14185)
(4.14144e-15 1.18829 7.65282)
(4.07443e-15 1.0506 7.21079)
(4.99689e-15 0.882018 6.81689)
(5.76659e-15 0.661158 6.49591)
(1.47757e-15 0.398345 6.26305)
(-1.30368e-15 -0.049286 6.04566)
(-5.69206e-16 -0.819368 6.26926)
(9.42647e-16 -1.35925 7.12162)
(8.41412e-16 -1.31959 8.06425)
(1.62086e-16 -0.875839 8.671)
(-3.25604e-16 -0.372569 9.00105)
(-4.96996e-16 0.130222 8.89392)
(8.30387e-16 0.472272 0.353744)
(2.44034e-14 0.381743 -0.136044)
(2.52903e-14 0.282559 -0.71817)
(1.24801e-14 0.231164 -1.24854)
(1.34122e-15 0.160014 -1.5569)
(-5.96701e-15 0.0925872 -1.74879)
(-3.5541e-15 0.0314426 -1.84099)
(-8.79261e-15 -0.0328579 -1.81967)
(-8.11656e-15 -0.115136 -1.68538)
(-2.80642e-15 -0.232537 -1.44719)
(7.41239e-15 -0.393513 -1.09319)
(3.20121e-16 -0.566989 -0.619449)
(-3.27279e-16 -0.70758 -0.00226886)
(-1.15158e-16 -0.810366 0.73958)
(-1.13991e-16 -0.888074 1.53736)
(-2.32805e-15 -0.957922 2.3748)
(8.03631e-16 -1.02238 3.24371)
(3.84797e-15 -1.08356 4.13756)
(9.52599e-16 -1.14125 5.05215)
(3.8132e-15 -1.1966 5.9781)
(2.10728e-15 -1.25918 6.92131)
(4.22492e-15 -1.32088 7.89084)
(6.81497e-15 -1.37749 8.88435)
(5.09509e-15 -1.41924 9.88686)
(4.2776e-15 -1.44954 10.8845)
(3.5711e-15 -1.45969 11.8721)
(3.00571e-15 -1.43419 12.8226)
(1.89174e-15 -1.37403 13.7002)
(1.93418e-15 -1.2794 14.49)
(4.96761e-16 -1.13055 15.1792)
(1.53586e-15 -0.874836 15.7299)
(9.79776e-16 -0.489542 16.1344)
(1.04837e-15 0.0435773 16.4045)
(1.22751e-15 0.703337 16.3713)
(7.48336e-16 1.19178 15.8995)
(1.52684e-16 1.42054 15.1733)
(-1.40917e-15 1.47044 14.3707)
(-8.45374e-16 1.42523 13.5786)
(-9.68101e-17 1.33427 12.8356)
(8.54712e-16 1.22083 12.1591)
(-1.23049e-15 1.09409 11.5562)
(5.8666e-16 0.957255 11.0264)
(-3.56279e-15 0.805794 10.566)
(-1.94447e-15 0.627188 10.1822)
(-2.10815e-15 0.415088 9.87491)
(-2.61552e-15 0.141381 9.61869)
(-4.42978e-15 -0.208586 9.45468)
(-3.51985e-15 -0.563615 9.53099)
(-4.0379e-15 -0.864661 9.93611)
(-1.04291e-15 -1.07782 10.6045)
(1.28899e-15 -1.18616 11.395)
(3.54905e-15 -1.19864 12.192)
(1.29766e-15 -1.13992 12.9285)
(1.517e-15 -1.0349 13.5721)
(1.68393e-15 -0.900177 14.1094)
(1.73109e-15 -0.743211 14.5354)
(1.65815e-15 -0.566879 14.8474)
(1.40979e-15 -0.372463 15.0417)
(-1.3581e-15 -0.166347 15.1116)
(-1.58119e-15 0.033509 15.055)
(-3.23692e-15 0.205244 14.882)
(-4.84698e-15 0.329825 14.6096)
(-6.10479e-15 0.397283 14.2688)
(-5.88888e-15 0.414172 13.9004)
(-7.94873e-15 0.396341 13.5282)
(-8.93157e-15 0.357942 13.1623)
(-1.21315e-14 0.307958 12.802)
(-1.09746e-14 0.250707 12.4464)
(-1.0452e-14 0.18491 12.0949)
(-1.06262e-14 0.101898 11.7502)
(-7.47575e-15 -0.0133842 11.4221)
(-2.78297e-15 -0.173805 11.1339)
(6.58978e-15 -0.372587 10.92)
(1.2852e-14 -0.571328 10.8084)
(1.66082e-14 -0.709419 10.8001)
(1.69798e-14 -0.72434 10.8727)
(1.34491e-14 -0.562348 11.0157)
(7.56116e-15 -0.1658 11.2155)
(4.99566e-15 0.470211 11.3429)
(5.27385e-15 1.08465 11.2421)
(5.83569e-15 1.50044 10.9213)
(6.17364e-15 1.71784 10.4697)
(6.75583e-15 1.79827 9.9549)
(8.21996e-15 1.79712 9.41617)
(8.30675e-15 1.74979 8.87567)
(7.64676e-15 1.67553 8.34649)
(6.4941e-15 1.58285 7.8376)
(5.07633e-15 1.47439 7.3549)
(5.04303e-15 1.34735 6.9034)
(4.15777e-15 1.19438 6.49062)
(5.25936e-15 1.00607 6.11478)
(3.98958e-15 0.7605 5.80375)
(-7.68199e-16 0.484285 5.54993)
(-2.2792e-15 -0.0584771 5.27503)
(-1.08285e-15 -1.10124 5.5732)
(1.5516e-15 -1.77147 6.48574)
(4.49654e-16 -1.6584 7.38361)
(-5.47613e-16 -1.07038 7.92155)
(-1.75587e-15 -0.435235 8.21053)
(-2.69919e-15 0.173816 8.08803)
(7.40134e-15 0.515884 0.278324)
(2.18523e-14 0.42919 -0.191213)
(2.15952e-14 0.334105 -0.828135)
(1.0518e-14 0.269667 -1.31967)
(-1.80729e-15 0.183676 -1.61861)
(-5.20887e-15 0.105078 -1.81176)
(-8.42722e-15 0.0335451 -1.90534)
(-1.14847e-14 -0.0416588 -1.8884)
(2.27161e-15 -0.135997 -1.76598)
(8.62405e-16 -0.26718 -1.55027)
(-1.14891e-15 -0.444201 -1.23147)
(4.79815e-16 -0.636565 -0.810188)
(-1.14186e-15 -0.796892 -0.271208)
(-6.85836e-16 -0.915614 0.391157)
(-5.38479e-16 -1.00447 1.12383)
(1.73845e-15 -1.08369 1.90245)
(9.33846e-16 -1.15644 2.71584)
(7.66461e-16 -1.22519 3.55657)
(9.07731e-16 -1.28944 4.41769)
(3.6487e-15 -1.35098 5.28564)
(5.85137e-15 -1.42175 6.16779)
(6.90551e-15 -1.49195 7.07634)
(7.9982e-15 -1.55621 8.00993)
(8.12547e-15 -1.60298 8.95309)
(5.99334e-15 -1.63717 9.89306)
(5.11087e-15 -1.64814 10.8281)
(3.33617e-15 -1.61747 11.7299)
(1.96525e-15 -1.54745 12.5605)
(1.06942e-15 -1.43922 13.3066)
(9.44233e-16 -1.27372 13.957)
(1.67535e-15 -0.995424 14.4698)
(1.60933e-15 -0.58398 14.8367)
(1.12555e-15 -0.0126495 15.095)
(7.88358e-16 0.723592 15.0943)
(6.20825e-16 1.27997 14.6816)
(5.87836e-18 1.54258 14.0381)
(-1.01416e-15 1.60304 13.3334)
(2.75154e-17 1.55654 12.6418)
(5.56499e-16 1.4586 11.9925)
(1.03053e-15 1.33541 11.3973)
(-1.5224e-15 1.19762 10.86)
(-2.29957e-15 1.04947 10.378)
(-7.04753e-15 0.886086 9.9467)
(-3.05778e-15 0.693435 9.57652)
(-3.57669e-15 0.469571 9.26736)
(-3.78416e-15 0.182692 8.97499)
(-5.43217e-15 -0.213937 8.76615)
(-6.44121e-15 -0.64735 8.87759)
(-8.2795e-16 -1.02584 9.38273)
(4.47111e-16 -1.28587 10.1428)
(1.32604e-15 -1.40784 10.9951)
(4.59013e-15 -1.41218 11.8328)
(4.35762e-15 -1.33344 12.5941)
(5.26444e-15 -1.20244 13.2474)
(5.87042e-15 -1.03912 13.7819)
(6.11734e-15 -0.852168 14.197)
(4.43162e-15 -0.6446 14.4947)
(8.73799e-15 -0.416807 14.6738)
(7.1717e-15 -0.174746 14.7272)
(5.77283e-15 0.0606421 14.6519)
(3.05612e-15 0.264916 14.4569)
(1.76816e-15 0.415301 14.1498)
(-2.99008e-16 0.497055 13.7716)
(-2.35929e-15 0.518454 13.3683)
(-4.07795e-15 0.500111 12.9675)
(-5.41551e-15 0.460058 12.579)
(-6.13933e-15 0.409476 12.2016)
(-7.23676e-15 0.35274 11.8276)
(-5.56946e-15 0.28752 11.4512)
(-3.24572e-15 0.202749 11.0699)
(1.27879e-15 0.0795059 10.6944)
(8.70814e-15 -0.0998462 10.3503)
(1.65703e-14 -0.329413 10.0783)
(2.18897e-14 -0.564397 9.91171)
(2.45377e-14 -0.736288 9.85122)
(2.46075e-14 -0.779971 9.86869)
(2.20067e-14 -0.640182 9.9522)
(1.60017e-14 -0.245282 10.0982)
(9.5151e-15 0.441758 10.196)
(6.19458e-15 1.13372 10.0923)
(5.32975e-15 1.60836 9.79554)
(5.28301e-15 1.85975 9.38798)
(6.58363e-15 1.95744 8.92785)
(7.02218e-15 1.96382 8.44685)
(8.90017e-15 1.91818 7.9626)
(9.5189e-15 1.84176 7.48571)
(9.50942e-15 1.74404 7.02388)
(8.26015e-15 1.62824 6.58211)
(6.81372e-15 1.49209 6.16395)
(7.63845e-15 1.32713 5.77621)
(5.6169e-15 1.12294 5.41586)
(6.80174e-16 0.863044 5.10558)
(-2.80356e-15 0.584029 4.81966)
(-2.31127e-15 -0.0678299 4.50446)
(1.86912e-15 -1.40024 4.79609)
(6.10087e-16 -2.16351 5.58663)
(-1.63415e-15 -1.9648 6.32155)
(-3.22733e-15 -1.2473 6.7483)
(-3.52431e-15 -0.499973 6.98478)
(-4.18859e-15 0.206835 6.8956)
(1.61917e-14 0.556559 0.184143)
(1.92768e-14 0.476567 -0.323182)
(1.91995e-14 0.383383 -0.960163)
(6.99155e-15 0.304714 -1.39904)
(-7.30133e-15 0.20632 -1.6903)
(6.35264e-16 0.117154 -1.8804)
(6.06145e-15 0.035563 -1.97475)
(-1.31168e-15 -0.0499771 -1.964)
(-5.68376e-16 -0.155679 -1.85494)
(6.45695e-15 -0.299431 -1.66238)
(-1.59848e-15 -0.490199 -1.37738)
(-8.16782e-16 -0.698449 -1.00194)
(-2.01528e-15 -0.876343 -0.535762)
(-1.48166e-15 -1.01206 0.037321)
(-7.76127e-16 -1.11395 0.697682)
(-5.51412e-16 -1.20354 1.41662)
(1.69698e-16 -1.28513 2.17548)
(-1.26577e-15 -1.36157 2.9668)
(-2.25252e-16 -1.43185 3.7774)
(7.57832e-15 -1.49882 4.58885)
(8.01705e-15 -1.57753 5.41074)
(8.64368e-15 -1.6563 6.25865)
(1.01116e-14 -1.72841 7.13201)
(6.62923e-15 -1.78048 8.01501)
(8.23856e-15 -1.81939 8.89751)
(7.17589e-15 -1.83206 9.78361)
(6.19585e-15 -1.79671 10.6432)
(3.87953e-15 -1.71732 11.4357)
(3.22845e-15 -1.59587 12.1492)
(2.8546e-15 -1.41395 12.7735)
(3.3449e-15 -1.1129 13.2599)
(4.57142e-15 -0.676654 13.5949)
(2.68194e-15 -0.0732878 13.8373)
(1.98845e-15 0.733321 13.8571)
(1.5175e-15 1.35165 13.492)
(1.16717e-15 1.64334 12.9232)
(4.75293e-16 1.71233 12.3101)
(7.45088e-16 1.66488 11.7118)
(6.57135e-16 1.56194 11.148)
(7.44566e-16 1.43198 10.6248)
(7.44328e-16 1.28667 10.1434)
(8.03862e-16 1.13097 9.69988)
(-4.68707e-15 0.959282 9.28956)
(-3.911e-16 0.756063 8.9271)
(-1.61109e-15 0.525485 8.6115)
(-3.45016e-15 0.229408 8.28235)
(-6.30299e-15 -0.225597 8.05196)
(-4.37904e-15 -0.754001 8.23776)
(1.1093e-16 -1.213 8.85162)
(3.45698e-15 -1.51399 9.69847)
(5.21461e-15 -1.64425 10.6172)
(5.95022e-15 -1.63613 11.5021)
(5.78066e-15 -1.53266 12.287)
(5.98863e-15 -1.37131 12.9426)
(6.46849e-15 -1.17645 13.4662)
(6.93288e-15 -0.958146 13.866)
(7.05672e-15 -0.719097 14.1496)
(9.9298e-15 -0.457885 14.3177)
(1.10006e-14 -0.17939 14.3605)
(1.24373e-14 0.0925954 14.2738)
(1.0833e-14 0.332189 14.0607)
(9.96467e-15 0.510812 13.718)
(8.58609e-15 0.606695 13.3013)
(6.05505e-15 0.630874 12.8636)
(5.02141e-15 0.60984 12.4366)
(3.48476e-15 0.566024 12.0297)
(7.03279e-16 0.513474 11.641)
(1.49071e-15 0.457896 11.2615)
(3.21468e-15 0.396422 10.8795)
(5.55869e-15 0.314992 10.4841)
(1.11472e-14 0.188239 10.0759)
(1.53063e-14 -0.00741182 9.68494)
(1.91027e-14 -0.26753 9.35881)
(1.89982e-14 -0.539619 9.13952)
(1.99772e-14 -0.745253 9.02941)
(2.25672e-14 -0.816364 8.99526)
(2.11765e-14 -0.698271 9.02206)
(1.74933e-14 -0.308804 9.10939)
(1.22812e-14 0.422091 9.15677)
(6.77351e-15 1.18177 9.02537)
(5.07909e-15 1.70513 8.73471)
(5.24385e-15 1.98361 8.35917)
(5.95083e-15 2.09523 7.94506)
(7.16153e-15 2.10831 7.51501)
(7.49397e-15 2.06499 7.08138)
(8.35916e-15 1.98789 6.65184)
(1.00736e-14 1.8871 6.23263)
(1.04859e-14 1.76641 5.82767)
(9.19808e-15 1.62432 5.43839)
(7.78707e-15 1.45025 5.07235)
(6.57234e-15 1.23504 4.7253)
(1.60615e-15 0.97262 4.40404)
(-3.46692e-15 0.695611 4.08976)
(-8.82528e-16 -0.0551463 3.74012)
(-1.07012e-15 -1.65523 3.89241)
(-2.84697e-15 -2.482 4.41328)
(-4.51488e-15 -2.2138 4.92055)
(-5.24185e-15 -1.39997 5.21317)
(-5.22245e-15 -0.577987 5.36144)
(-5.34869e-15 0.220778 5.34607)
(1.37065e-14 0.597617 0.0522742)
(1.71834e-14 0.523259 -0.505457)
(1.31569e-14 0.428135 -1.09202)
(1.294e-15 0.336381 -1.48425)
(-9.61707e-15 0.227876 -1.76605)
(-2.04563e-15 0.12877 -1.94953)
(-9.97427e-15 0.0376942 -2.04483)
(-1.85926e-15 -0.0574531 -2.04104)
(-1.90702e-15 -0.173768 -1.94607)
(-2.99549e-15 -0.329117 -1.7769)
(-6.99806e-16 -0.532156 -1.52447)
(-3.82281e-16 -0.753319 -1.19106)
(-2.512e-15 -0.946307 -0.784809)
(-8.00611e-16 -1.09843 -0.297304)
(-9.13967e-16 -1.21525 0.279589)
(-4.24216e-16 -1.31688 0.936595)
(2.19922e-16 -1.40826 1.64032)
(-2.14008e-15 -1.49264 2.38559)
(1.48031e-15 -1.56829 3.14755)