/*--------------------------------*- C++ -*----------------------------------*\
| =========                 |                                                 |
| \\      /  F ield         | OpenFOAM: The Open Source CFD Toolbox           |
|  \\    /   O peration     | Version:  4.1                                   |
|   \\  /    A nd           | Web:      www.OpenFOAM.org                      |
|    \\/     M anipulation  |                                                 |
\*---------------------------------------------------------------------------*/
FoamFile
{
    version     2.0;
    format      ascii;
    class       volScalarField;
    location    "800";
    object      p;
}
// * * * * * * * * * * * * * * * * * * * * * * * * * * * * * * * * * * * * * //

dimensions      [0 2 -2 0 0 0 0];

internalField   nonuniform List<scalar> 
6820
(
-7.89274
-8.69248
-9.15298
-9.29782
-9.37638
-9.45069
-9.51053
-9.55612
-9.59484
-9.63032
-9.66312
-9.69345
-9.72179
-9.74855
-9.77398
-9.79827
-9.82159
-9.84412
-9.86601
-9.88741
-9.90847
-9.92934
-9.95016
-9.9711
-9.99231
-10.014
-10.0363
-10.0596
-10.0839
-10.1102
-10.1369
-10.1707
-10.1859
-9.56645
-9.73223
-9.71783
-9.63826
-9.59601
-9.59277
-9.60282
-9.61639
-9.63369
-9.65449
-9.67718
-9.70056
-9.72413
-9.74763
-9.77087
-9.79371
-9.8161
-9.83806
-9.85963
-9.88088
-9.9019
-9.92278
-9.94365
-9.96464
-9.98588
-10.0076
-10.0298
-10.053
-10.0771
-10.1031
-10.1307
-10.164
-10.2054
-9.54488
-9.35681
-9.33821
-9.37268
-9.41449
-9.46276
-9.50927
-9.54977
-9.58628
-9.62065
-9.65307
-9.68347
-9.71208
-9.73919
-9.765
-9.78965
-9.8133
-9.83611
-9.85824
-9.87984
-9.90103
-9.92198
-9.94281
-9.96368
-9.98474
-10.0061
-10.0281
-10.0508
-10.0744
-10.0995
-10.1263
-10.1571
-10.1888
-9.46274
-9.36036
-9.4098
-9.47044
-9.50387
-9.53438
-9.56592
-9.59475
-9.62155
-9.6478
-9.67362
-9.69871
-9.72307
-9.74676
-9.76984
-9.79232
-9.81425
-9.83572
-9.85678
-9.87753
-9.89806
-9.91847
-9.93886
-9.95934
-9.98004
-10.0011
-10.0226
-10.0447
-10.0677
-10.0917
-10.1169
-10.1439
-10.1705
-9.45522
-9.41532
-9.4475
-9.48524
-9.50744
-9.53232
-9.56149
-9.58983
-9.61675
-9.64328
-9.66943
-9.69492
-9.71965
-9.74367
-9.76702
-9.78973
-9.81185
-9.83344
-9.85458
-9.87537
-9.89589
-9.91624
-9.93652
-9.95683
-9.97727
-9.99797
-10.019
-10.0406
-10.0627
-10.0855
-10.109
-10.1331
-10.1565
-9.4644
-9.4443
-9.46023
-9.49
-9.51392
-9.53932
-9.56764
-9.59531
-9.62167
-9.64749
-9.67289
-9.69765
-9.72169
-9.74507
-9.76782
-9.78998
-9.81159
-9.83272
-9.85344
-9.87383
-9.89398
-9.91396
-9.93387
-9.95378
-9.97379
-9.99398
-10.0144
-10.0352
-10.0564
-10.0779
-10.0997
-10.1214
-10.1423
-9.47383
-9.46267
-9.47378
-9.50008
-9.52405
-9.54798
-9.57411
-9.60028
-9.62559
-9.65045
-9.67497
-9.69896
-9.72236
-9.74516
-9.76742
-9.78914
-9.81037
-9.83115
-9.85156
-9.87166
-9.89151
-9.91119
-9.93077
-9.95033
-9.96992
-9.98961
-10.0094
-10.0295
-10.0496
-10.0699
-10.0901
-10.11
-10.1288
-9.48393
-9.47885
-9.4885
-9.51096
-9.53337
-9.55573
-9.58004
-9.60488
-9.62922
-9.65321
-9.67692
-9.70021
-9.72298
-9.74524
-9.767
-9.78828
-9.80911
-9.82952
-9.84958
-9.86933
-9.88884
-9.90816
-9.92736
-9.94649
-9.9656
-9.98472
-10.0039
-10.0231
-10.0423
-10.0614
-10.0802
-10.0984
-10.1156
-9.49482
-9.49347
-9.50226
-9.52137
-9.54212
-9.56325
-9.58603
-9.60956
-9.6329
-9.65599
-9.67887
-9.70143
-9.72356
-9.74524
-9.76648
-9.78729
-9.80768
-9.82769
-9.84736
-9.86673
-9.88587
-9.9048
-9.92358
-9.94225
-9.96083
-9.97936
-9.99783
-10.0162
-10.0345
-10.0525
-10.07
-10.0869
-10.1028
-9.50598
-9.50669
-9.51495
-9.53155
-9.55071
-9.57065
-9.59201
-9.61426
-9.63657
-9.65876
-9.68081
-9.70263
-9.7241
-9.74519
-9.76589
-9.7862
-9.80613
-9.82571
-9.84497
-9.86394
-9.88266
-9.90116
-9.91949
-9.93766
-9.9557
-9.97361
-9.99138
-10.009
-10.0263
-10.0433
-10.0597
-10.0754
-10.0902
-9.51708
-9.51885
-9.52676
-9.54145
-9.55908
-9.57783
-9.59791
-9.61893
-9.64022
-9.66151
-9.68275
-9.70382
-9.72462
-9.7451
-9.76524
-9.78504
-9.80449
-9.82361
-9.84243
-9.86096
-9.87924
-9.89729
-9.91514
-9.93279
-9.95025
-9.96752
-9.98458
-10.0014
-10.0178
-10.0339
-10.0493
-10.064
-10.0778
-9.52789
-9.53017
-9.53777
-9.55098
-9.56717
-9.58478
-9.60367
-9.62354
-9.64382
-9.66423
-9.68465
-9.70498
-9.7251
-9.74497
-9.76454
-9.78381
-9.80276
-9.82141
-9.83976
-9.85783
-9.87565
-9.89321
-9.91055
-9.92765
-9.94453
-9.96116
-9.97752
-9.99355
-10.0092
-10.0243
-10.0389
-10.0527
-10.0657
-9.53829
-9.54078
-9.54804
-9.56006
-9.57497
-9.59147
-9.60926
-9.62805
-9.64736
-9.66689
-9.68651
-9.7061
-9.72555
-9.74479
-9.76378
-9.7825
-9.80094
-9.81909
-9.83696
-9.85455
-9.87188
-9.88894
-9.90575
-9.9223
-9.93858
-9.95457
-9.97024
-9.98553
-10.0004
-10.0147
-10.0285
-10.0415
-10.0538
-9.5482
-9.55073
-9.55763
-9.56867
-9.58244
-9.59789
-9.61465
-9.63241
-9.65079
-9.66947
-9.6883
-9.70715
-9.72593
-9.74454
-9.76295
-9.78112
-9.79903
-9.81667
-9.83404
-9.85113
-9.86795
-9.8845
-9.90077
-9.91675
-9.93244
-9.94779
-9.96279
-9.97738
-9.9915
-10.0051
-10.0181
-10.0304
-10.042
-9.55758
-9.56005
-9.56657
-9.57678
-9.58953
-9.60401
-9.6198
-9.63661
-9.65408
-9.67193
-9.68999
-9.70812
-9.72623
-9.74422
-9.76203
-9.77964
-9.79702
-9.81414
-9.83099
-9.84757
-9.86388
-9.87989
-9.89562
-9.91103
-9.92612
-9.94085
-9.95519
-9.96911
-9.98254
-9.99545
-10.0078
-10.0194
-10.0304
-9.56638
-9.56875
-9.57489
-9.58437
-9.59623
-9.60979
-9.62468
-9.64059
-9.6572
-9.67425
-9.69156
-9.70899
-9.72643
-9.74379
-9.76102
-9.77807
-9.7949
-9.81149
-9.82782
-9.84388
-9.85966
-9.87514
-9.89031
-9.90515
-9.91965
-9.93377
-9.94749
-9.96076
-9.97354
-9.9858
-9.99747
-10.0085
-10.019
-9.57458
-9.57683
-9.5826
-9.59144
-9.60249
-9.61521
-9.62926
-9.64433
-9.66012
-9.6764
-9.69298
-9.70972
-9.72651
-9.74325
-9.75989
-9.77637
-9.79266
-9.80871
-9.82452
-9.84005
-9.85529
-9.87024
-9.88486
-9.89914
-9.91306
-9.92658
-9.93969
-9.95235
-9.96451
-9.97616
-9.98725
-9.99775
-10.0076
-9.58217
-9.58429
-9.58971
-9.59797
-9.6083
-9.62025
-9.63351
-9.64779
-9.66282
-9.67835
-9.69423
-9.7103
-9.72644
-9.74258
-9.75864
-9.77456
-9.79029
-9.80581
-9.82108
-9.83609
-9.8508
-9.86521
-9.87928
-9.893
-9.90635
-9.9193
-9.93182
-9.94389
-9.95548
-9.96655
-9.97708
-9.98706
-9.99646
-9.58912
-9.59113
-9.59621
-9.60395
-9.61363
-9.62488
-9.6374
-9.65095
-9.66525
-9.68008
-9.69528
-9.7107
-9.72622
-9.74177
-9.75725
-9.77261
-9.7878
-9.80278
-9.81753
-9.832
-9.84619
-9.86006
-9.87359
-9.88677
-9.89956
-9.91195
-9.92391
-9.93542
-9.94644
-9.95697
-9.96698
-9.97646
-9.98539
-9.59544
-9.59733
-9.6021
-9.60936
-9.61846
-9.62906
-9.64091
-9.65377
-9.66738
-9.68155
-9.6961
-9.7109
-9.72582
-9.74078
-9.7557
-9.77051
-9.78517
-9.79962
-9.81384
-9.82779
-9.84145
-9.8548
-9.8678
-9.88044
-9.89269
-9.90454
-9.91596
-9.92693
-9.93743
-9.94745
-9.95696
-9.96597
-9.97445
-9.6011
-9.60288
-9.60737
-9.61419
-9.62277
-9.63277
-9.644
-9.65622
-9.6692
-9.68274
-9.69668
-9.71088
-9.72522
-9.73962
-9.75399
-9.76826
-9.78239
-9.79632
-9.81003
-9.82347
-9.83661
-9.84944
-9.86192
-9.87404
-9.88577
-9.8971
-9.908
-9.91845
-9.92845
-9.93797
-9.94702
-9.95557
-9.96363
-9.60609
-9.60776
-9.61199
-9.61843
-9.62652
-9.63599
-9.64665
-9.65828
-9.67067
-9.68362
-9.69698
-9.71061
-9.7244
-9.73826
-9.7521
-9.76585
-9.77947
-9.79289
-9.80609
-9.81903
-9.83167
-9.84399
-9.85597
-9.86758
-9.87881
-9.88963
-9.90003
-9.91
-9.91951
-9.92857
-9.93716
-9.94528
-9.95293
-9.61039
-9.61197
-9.61596
-9.62204
-9.6297
-9.63869
-9.64883
-9.65992
-9.67176
-9.68416
-9.69698
-9.71008
-9.72335
-9.73669
-9.75002
-9.76327
-9.77639
-9.78932
-9.80203
-9.81448
-9.82663
-9.83846
-9.84995
-9.86108
-9.87182
-9.88216
-9.89208
-9.90158
-9.91063
-9.91924
-9.9274
-9.93511
-9.94237
-9.61398
-9.61548
-9.61925
-9.62501
-9.63228
-9.64083
-9.6505
-9.6611
-9.67244
-9.68435
-9.69666
-9.70926
-9.72204
-9.73489
-9.74774
-9.76051
-9.77316
-9.78562
-9.79785
-9.80983
-9.82151
-9.83287
-9.84389
-9.85455
-9.86482
-9.8747
-9.88416
-9.89321
-9.90182
-9.91001
-9.91775
-9.92507
-9.93194
-9.61684
-9.61827
-9.62184
-9.62731
-9.63423
-9.64238
-9.65164
-9.6618
-9.67269
-9.68414
-9.696
-9.70814
-9.72046
-9.73286
-9.74525
-9.75757
-9.76976
-9.78177
-9.79356
-9.80508
-9.81631
-9.82722
-9.83779
-9.848
-9.85783
-9.86726
-9.87629
-9.88491
-9.89311
-9.90088
-9.90824
-9.91516
-9.92167
-9.61896
-9.62031
-9.6237
-9.6289
-9.63551
-9.64332
-9.65221
-9.66199
-9.67248
-9.68352
-9.69496
-9.70669
-9.71859
-9.73057
-9.74254
-9.75444
-9.76621
-9.77779
-9.78915
-9.80025
-9.81105
-9.82153
-9.83167
-9.84145
-9.85086
-9.85987
-9.86849
-9.8767
-9.8845
-9.89188
-9.89886
-9.90542
-9.91157
-9.6203
-9.62158
-9.6248
-9.62976
-9.63609
-9.64361
-9.65217
-9.66162
-9.67176
-9.68245
-9.69353
-9.7049
-9.71642
-9.72802
-9.73961
-9.75112
-9.7625
-9.77368
-9.78464
-9.79534
-9.80574
-9.81582
-9.82556
-9.83493
-9.84394
-9.85256
-9.86078
-9.86861
-9.87603
-9.88304
-9.88966
-9.89587
-9.90168
-9.62083
-9.62205
-9.62511
-9.62984
-9.63593
-9.64319
-9.6515
-9.66067
-9.67053
-9.68092
-9.6917
-9.70274
-9.71394
-9.7252
-9.73645
-9.74761
-9.75862
-9.76944
-9.78003
-9.79035
-9.80038
-9.81008
-9.81944
-9.82843
-9.83706
-9.84531
-9.85316
-9.86062
-9.86768
-9.87434
-9.88061
-9.88649
-9.89198
-9.62055
-9.6217
-9.62458
-9.6291
-9.63496
-9.64203
-9.65013
-9.65909
-9.66873
-9.67889
-9.68942
-9.70021
-9.71114
-9.72211
-9.73306
-9.74392
-9.75462
-9.76512
-9.77538
-9.78536
-9.79504
-9.8044
-9.81341
-9.82206
-9.83034
-9.83824
-9.84575
-9.85287
-9.85959
-9.86593
-9.87187
-9.87743
-9.88261
-9.61941
-9.62048
-9.62317
-9.62745
-9.63313
-9.64006
-9.64803
-9.65685
-9.66634
-9.67634
-9.68669
-9.69727
-9.70798
-9.71871
-9.7294
-9.73998
-9.75039
-9.76059
-9.77054
-9.78021
-9.78957
-9.7986
-9.80728
-9.81561
-9.82356
-9.83113
-9.83832
-9.84512
-9.85153
-9.85756
-9.8632
-9.86846
-9.87335
-9.61742
-9.61837
-9.6208
-9.62482
-9.63036
-9.63721
-9.64512
-9.65388
-9.66332
-9.67325
-9.68353
-9.69402
-9.7046
-9.71519
-9.72571
-9.7361
-9.7463
-9.75627
-9.76597
-9.77539
-9.78448
-9.79324
-9.80164
-9.80967
-9.81734
-9.82462
-9.83151
-9.83802
-9.84414
-9.84987
-9.85522
-9.86019
-9.86478
-9.61459
-9.61535
-9.61738
-9.62107
-9.62652
-9.63341
-9.64137
-9.65015
-9.65957
-9.66946
-9.67964
-9.69
-9.70043
-9.71084
-9.72117
-9.73135
-9.74132
-9.75107
-9.76053
-9.7697
-9.77855
-9.78705
-9.79519
-9.80297
-9.81038
-9.8174
-9.82404
-9.83029
-9.83616
-9.84165
-9.84676
-9.8515
-9.85589
-9.61101
-9.61143
-9.61278
-9.61601
-9.62141
-9.62847
-9.63669
-9.64582
-9.65563
-9.66587
-9.67634
-9.68691
-9.69747
-9.70795
-9.71827
-9.72839
-9.73827
-9.74787
-9.75716
-9.76613
-9.77475
-9.78301
-9.7909
-9.79842
-9.80555
-9.8123
-9.81866
-9.82463
-9.83022
-9.83542
-9.84024
-9.84468
-9.84873
-9.60692
-9.60656
-9.60671
-9.60954
-9.61514
-9.62219
-9.63011
-9.6389
-9.64847
-9.65853
-9.66885
-9.67931
-9.68979
-9.70021
-9.71049
-9.72057
-9.73041
-9.73997
-9.74921
-9.75813
-9.7667
-9.7749
-9.78272
-9.79016
-9.79721
-9.80388
-9.81014
-9.81602
-9.82151
-9.82662
-9.83136
-9.83574
-9.83978
-9.603
-9.6008
-9.59801
-9.60041
-9.60798
-9.61761
-9.62786
-9.63857
-9.6496
-9.66067
-9.67164
-9.68246
-9.69308
-9.70346
-9.71357
-9.72339
-9.73289
-9.74206
-9.75089
-9.75937
-9.76749
-9.77523
-9.78259
-9.78958
-9.79617
-9.80239
-9.80822
-9.81366
-9.81873
-9.82341
-9.82771
-9.83162
-9.83513
-9.60044
-9.59534
-9.58785
-9.58563
-9.58832
-9.59398
-9.60218
-9.61237
-9.62361
-9.63527
-9.6471
-9.65894
-9.67067
-9.68216
-9.69335
-9.70419
-9.71466
-9.72473
-9.7344
-9.74364
-9.75245
-9.76084
-9.76878
-9.7763
-9.78338
-9.79004
-9.79627
-9.80208
-9.80749
-9.81249
-9.81711
-9.82137
-9.8253
-9.60088
-9.58098
-9.58382
-9.60365
-9.62044
-9.63139
-9.64127
-9.65172
-9.66205
-9.67189
-9.68141
-9.69076
-9.69994
-9.70891
-9.71766
-9.72619
-9.73448
-9.74251
-9.75026
-9.75771
-9.76487
-9.7717
-9.77821
-9.78438
-9.79021
-9.79569
-9.80083
-9.80562
-9.81005
-9.81413
-9.81785
-9.8212
-9.82416
-9.63834
-9.5151
-9.45201
-9.45568
-9.47807
-9.49982
-9.52115
-9.54291
-9.56406
-9.58394
-9.60255
-9.62001
-9.63638
-9.65172
-9.66612
-9.67966
-9.69239
-9.70437
-9.71564
-9.72625
-9.73621
-9.74557
-9.75434
-9.76255
-9.77021
-9.77735
-9.78399
-9.79013
-9.7958
-9.80101
-9.80579
-9.81015
-9.81411
-9.79824
-9.8114
-9.77009
-9.72793
-9.70396
-9.69344
-9.68894
-9.687
-9.68713
-9.68933
-9.69316
-9.69806
-9.70368
-9.7098
-9.71628
-9.72296
-9.72974
-9.73653
-9.74325
-9.74986
-9.7563
-9.76253
-9.76853
-9.77427
-9.77974
-9.78491
-9.78978
-9.79434
-9.79858
-9.8025
-9.8061
-9.80938
-9.81233
-8.63399
-8.93432
-9.19935
-9.32529
-9.39027
-9.44637
-9.4959
-9.53425
-9.56394
-9.58884
-9.61068
-9.62996
-9.64712
-9.66261
-9.6768
-9.68989
-9.70202
-9.71331
-9.72384
-9.73369
-9.7429
-9.75151
-9.75955
-9.76705
-9.77404
-9.78053
-9.78654
-9.79209
-9.79718
-9.80184
-9.80608
-9.8099
-9.81332
-10.2739
-10.1758
-10.2256
-10.2801
-10.3047
-10.32
-10.3311
-10.3358
-10.335
-10.3311
-10.3262
-10.3223
-10.321
-10.3238
-10.3319
-10.3459
-10.3662
-10.3925
-10.4241
-10.4602
-10.4998
-10.5418
-10.5848
-10.6276
-10.6689
-10.7075
-10.7427
-10.7733
-10.7985
-10.8174
-10.829
-10.8325
-10.8271
-10.8123
-10.7874
-10.7514
-10.7037
-10.6436
-10.5708
-10.4847
-10.385
-10.2714
-10.1437
-10.0017
-9.84538
-9.67491
-9.49045
-9.29231
-9.08091
-8.8568
-8.62065
-8.37326
-8.11555
-7.84856
-7.57341
-7.29133
-7.0036
-6.71157
-6.4166
-6.1201
-5.82345
-5.52802
-5.23511
-4.94599
-4.66184
-4.38375
-4.11268
-3.84952
-3.59501
-3.34977
-3.1143
-2.88899
-2.6741
-2.46977
-2.27608
-2.09299
-1.92039
-1.75809
-1.60584
-1.46332
-1.33018
-1.20601
-1.09039
-0.982882
-0.883046
-0.790429
-0.70459
-0.625094
-0.551514
-0.483445
-0.420477
-0.362242
-0.308287
-0.258371
-0.211658
-0.168718
-0.126312
-0.0906525
-0.0435134
-0.0296349
-10.2706
-10.2651
-10.2933
-10.3129
-10.3087
-10.2989
-10.2912
-10.2843
-10.2777
-10.2726
-10.2696
-10.2694
-10.2729
-10.2808
-10.2938
-10.3121
-10.3356
-10.3642
-10.3971
-10.4336
-10.473
-10.5141
-10.556
-10.5974
-10.6373
-10.6746
-10.7084
-10.7378
-10.7617
-10.7794
-10.7898
-10.7921
-10.7858
-10.77
-10.7441
-10.7073
-10.659
-10.5985
-10.5253
-10.4391
-10.3395
-10.2262
-10.0989
-9.95764
-9.80228
-9.63297
-9.4499
-9.25339
-9.04384
-8.82179
-8.58791
-8.34297
-8.0879
-7.82369
-7.55144
-7.27236
-6.98768
-6.69874
-6.40686
-6.1134
-5.81973
-5.52717
-5.23701
-4.95048
-4.66873
-4.39284
-4.12377
-3.86237
-3.6094
-3.36546
-3.13107
-2.90661
-2.69235
-2.48845
-2.295
-2.11197
-1.93927
-1.77673
-1.62411
-1.4811
-1.34737
-1.22253
-1.10618
-0.997896
-0.897236
-0.803767
-0.717053
-0.636667
-0.562189
-0.493214
-0.429334
-0.370183
-0.315303
-0.264458
-0.216781
-0.172926
-0.129382
-0.0931862
-0.0435712
-0.0330939
-10.2289
-10.235
-10.2402
-10.253
-10.2604
-10.2645
-10.2686
-10.271
-10.2706
-10.2684
-10.2656
-10.2636
-10.2639
-10.2678
-10.2764
-10.2904
-10.3101
-10.3354
-10.3658
-10.4005
-10.4387
-10.4791
-10.5205
-10.5615
-10.6009
-10.6376
-10.6705
-10.6988
-10.7216
-10.738
-10.7472
-10.7484
-10.7409
-10.7241
-10.6974
-10.6599
-10.6109
-10.55
-10.4766
-10.3904
-10.291
-10.1781
-10.0515
-9.91108
-9.75683
-9.58888
-9.40741
-9.21273
-9.00525
-8.78549
-8.55411
-8.31187
-8.05966
-7.79845
-7.52933
-7.25346
-6.97204
-6.68637
-6.39775
-6.1075
-5.81694
-5.52738
-5.24007
-4.95622
-4.67696
-4.40334
-4.13632
-3.87673
-3.62532
-3.38271
-3.14941
-2.9258
-2.71217
-2.50869
-2.31545
-2.13246
-1.95962
-1.79679
-1.64374
-1.50019
-1.36582
-1.24026
-1.12311
-1.01398
-0.912427
-0.818036
-0.730378
-0.649032
-0.573585
-0.503636
-0.438778
-0.378644
-0.322775
-0.270936
-0.222239
-0.177396
-0.132698
-0.0958117
-0.0439236
-0.036217
-10.2019
-10.2187
-10.2299
-10.2471
-10.2595
-10.2646
-10.2661
-10.2656
-10.2632
-10.26
-10.2575
-10.2568
-10.2588
-10.2644
-10.2742
-10.2884
-10.3073
-10.3305
-10.3578
-10.3885
-10.4221
-10.4576
-10.4941
-10.5306
-10.5659
-10.5991
-10.6293
-10.6553
-10.6763
-10.6912
-10.6992
-10.6994
-10.6911
-10.6736
-10.6462
-10.6081
-10.5588
-10.4977
-10.4242
-10.3382
-10.2392
-10.1268
-10.0011
-9.86171
-9.70878
-9.54239
-9.36273
-9.1701
-8.9649
-8.74765
-8.51897
-8.27963
-8.03048
-7.77247
-7.50665
-7.23414
-6.95614
-6.67389
-6.38866
-6.10173
-5.81441
-5.52796
-5.2436
-4.96253
-4.68584
-4.41458
-4.14968
-3.89198
-3.64221
-3.40099
-3.16883
-2.94612
-2.73315
-2.53012
-2.33713
-2.15418
-1.98121
-1.81808
-1.66459
-1.52047
-1.38543
-1.2591
-1.14111
-1.03108
-0.92858
-0.833208
-0.744545
-0.662178
-0.5857
-0.514712
-0.448811
-0.387631
-0.33071
-0.277814
-0.228041
-0.18214
-0.136264
-0.0985467
-0.0445818
-0.0389652
-10.1824
-10.2017
-10.2141
-10.2274
-10.2372
-10.2417
-10.2439
-10.2452
-10.2456
-10.2454
-10.2456
-10.247
-10.2505
-10.2567
-10.2664
-10.2801
-10.2978
-10.3196
-10.3452
-10.3741
-10.4055
-10.4387
-10.4726
-10.5062
-10.5385
-10.5686
-10.5954
-10.6181
-10.6359
-10.6477
-10.653
-10.6507
-10.6403
-10.6211
-10.5923
-10.5532
-10.5031
-10.4416
-10.3681
-10.2822
-10.1836
-10.072
-9.94718
-9.80903
-9.65757
-9.4929
-9.31521
-9.12479
-8.92202
-8.70742
-8.48161
-8.24531
-7.99936
-7.74468
-7.48229
-7.21329
-6.93884
-6.66013
-6.37842
-6.09495
-5.81099
-5.52777
-5.2465
-4.96834
-4.69436
-4.42559
-4.16295
-3.90726
-3.65925
-3.41954
-3.18863
-2.96693
-2.75473
-2.55223
-2.35954
-2.1767
-2.00365
-1.84027
-1.68636
-1.5417
-1.40598
-1.27888
-1.16004
-1.04908
-0.945604
-0.849213
-0.7595
-0.676064
-0.5985
-0.526419
-0.459419
-0.397134
-0.339103
-0.285089
-0.234187
-0.187161
-0.140086
-0.101395
-0.0455813
-0.0412673
-10.1647
-10.1841
-10.1977
-10.2102
-10.2205
-10.2272
-10.2313
-10.2341
-10.2357
-10.2365
-10.2375
-10.2395
-10.2434
-10.2498
-10.2594
-10.2724
-10.2891
-10.3094
-10.333
-10.3594
-10.388
-10.4181
-10.4487
-10.4791
-10.5082
-10.5351
-10.5589
-10.5789
-10.5939
-10.6034
-10.6063
-10.6019
-10.5896
-10.5686
-10.5382
-10.4978
-10.4466
-10.3843
-10.3104
-10.2243
-10.1259
-10.0147
-9.89064
-9.75358
-9.6035
-9.4405
-9.26476
-9.07655
-8.87626
-8.66436
-8.44147
-8.20829
-7.96562
-7.71437
-7.45553
-7.19014
-6.91935
-6.64432
-6.36625
-6.08638
-5.80592
-5.52609
-5.24805
-4.97294
-4.70183
-4.43569
-4.17545
-3.92192
-3.67581
-3.43774
-3.20821
-2.98763
-2.77631
-2.57446
-2.38219
-2.19955
-2.0265
-1.86294
-1.70869
-1.56353
-1.42718
-1.29934
-1.17967
-1.06779
-0.963338
-0.865916
-0.775135
-0.6906
-0.611918
-0.538703
-0.470558
-0.40712
-0.347928
-0.292744
-0.240663
-0.19245
-0.144158
-0.104355
-0.0469478
-0.043062
-10.1489
-10.1677
-10.1819
-10.1942
-10.2045
-10.2118
-10.2167
-10.2202
-10.2227
-10.2247
-10.2268
-10.2299
-10.2345
-10.2414
-10.2509
-10.2635
-10.2792
-10.298
-10.3197
-10.3439
-10.3699
-10.3972
-10.4249
-10.4521
-10.478
-10.5018
-10.5225
-10.5394
-10.5516
-10.5582
-10.5585
-10.5518
-10.5373
-10.5143
-10.4823
-10.4404
-10.3882
-10.3251
-10.2507
-10.1644
-10.0661
-9.95533
-9.83199
-9.69595
-9.54722
-9.38585
-9.21204
-9.02603
-8.8282
-8.61903
-8.39909
-8.16907
-7.92975
-7.68199
-7.42676
-7.16508
-6.89805
-6.6268
-6.3525
-6.07634
-5.7995
-5.52317
-5.24849
-4.97655
-4.7084
-4.44501
-4.18728
-3.936
-3.69188
-3.45554
-3.22748
-3.00811
-2.79774
-2.5966
-2.40482
-2.22245
-2.04947
-1.88579
-1.73126
-1.58566
-1.44874
-1.32021
-1.19973
-1.08698
-0.981567
-0.883131
-0.791286
-0.70565
-0.625837
-0.551468
-0.482153
-0.417529
-0.357139
-0.300741
-0.247442
-0.197986
-0.148462
-0.107424
-0.0486873
-0.0443146
-10.134
-10.1519
-10.1663
-10.1785
-10.1888
-10.1967
-10.2024
-10.2068
-10.2103
-10.2133
-10.2164
-10.2202
-10.2254
-10.2325
-10.2418
-10.2538
-10.2685
-10.2859
-10.3058
-10.3277
-10.3513
-10.3758
-10.4006
-10.4248
-10.4477
-10.4684
-10.4861
-10.5
-10.5093
-10.5132
-10.5109
-10.5018
-10.4851
-10.4602
-10.4264
-10.383
-10.3296
-10.2656
-10.1905
-10.104
-10.0056
-9.89519
-9.77249
-9.63743
-9.48998
-9.33023
-9.15832
-8.97451
-8.77916
-8.57273
-8.35577
-8.12895
-7.89302
-7.64881
-7.39726
-7.13936
-6.87616
-6.60875
-6.33828
-6.0659
-5.79275
-5.51998
-5.2487
-4.97998
-4.71485
-4.45425
-4.19905
-3.95006
-3.70796
-3.47338
-3.2468
-3.02866
-2.81927
-2.61886
-2.42758
-2.24549
-2.0726
-1.90881
-1.75401
-1.60799
-1.47051
-1.34131
-1.22007
-1.10645
-1.0001
-0.900671
-0.807778
-0.721051
-0.640113
-0.56459
-0.494095
-0.428269
-0.36666
-0.309022
-0.254474
-0.203736
-0.152967
-0.110588
-0.0507807
-0.045026
-10.1198
-10.1368
-10.1511
-10.1632
-10.1735
-10.1818
-10.1882
-10.1933
-10.1976
-10.2014
-10.2052
-10.2097
-10.2153
-10.2225
-10.2317
-10.243
-10.2568
-10.2728
-10.2909
-10.3108
-10.3319
-10.3539
-10.3758
-10.3972
-10.4171
-10.4348
-10.4495
-10.4606
-10.4671
-10.4683
-10.4635
-10.4521
-10.4333
-10.4064
-10.3709
-10.3261
-10.2715
-10.2065
-10.1308
-10.044
-9.94564
-9.83552
-9.71346
-9.57936
-9.43319
-9.27502
-9.10501
-8.92339
-8.73052
-8.52682
-8.31285
-8.08923
-7.85669
-7.61604
-7.36818
-7.11405
-6.85467
-6.59112
-6.32448
-6.05587
-5.7864
-5.51718
-5.2493
-4.9838
-4.72168
-4.46385
-4.21119
-3.96448
-3.7244
-3.49156
-3.26647
-3.04955
-2.84113
-2.64144
-2.45066
-2.26885
-2.09603
-1.93213
-1.77705
-1.6306
-1.49256
-1.36268
-1.24065
-1.12617
-1.01888
-0.918453
-0.824511
-0.736693
-0.654629
-0.577949
-0.506272
-0.439238
-0.3764
-0.317506
-0.261693
-0.209645
-0.157628
-0.113826
-0.0531782
-0.0452384
-10.106
-10.1223
-10.1363
-10.1482
-10.1585
-10.1671
-10.174
-10.1798
-10.1847
-10.1892
-10.1937
-10.1986
-10.2045
-10.2118
-10.2206
-10.2314
-10.2441
-10.2587
-10.2751
-10.293
-10.3119
-10.3313
-10.3505
-10.3691
-10.3861
-10.401
-10.4129
-10.4211
-10.4249
-10.4235
-10.4163
-10.4026
-10.3817
-10.353
-10.3158
-10.2696
-10.2139
-10.1481
-10.0718
-9.98467
-9.88635
-9.77657
-9.65517
-9.52205
-9.37717
-9.2206
-9.05248
-8.87305
-8.68265
-8.48168
-8.27068
-8.05024
-7.82107
-7.58395
-7.33974
-7.08935
-6.83378
-6.57404
-6.31119
-6.04632
-5.7805
-5.51481
-5.2503
-4.98799
-4.72885
-4.47379
-4.22365
-3.9792
-3.74113
-3.51004
-3.28643
-3.07074
-2.86329
-2.66433
-2.47404
-2.29251
-2.11977
-1.95577
-1.8004
-1.65352
-1.51492
-1.38434
-1.26153
-1.14617
-1.03793
-0.936485
-0.841478
-0.752554
-0.669349
-0.591498
-0.518624
-0.45037
-0.38629
-0.326126
-0.269035
-0.215658
-0.162391
-0.117105
-0.0557995
-0.0450355
-10.0927
-10.1082
-10.1218
-10.1336
-10.1438
-10.1526
-10.1599
-10.1661
-10.1716
-10.1766
-10.1816
-10.187
-10.193
-10.2002
-10.2087
-10.2188
-10.2305
-10.2438
-10.2586
-10.2745
-10.2911
-10.3081
-10.3248
-10.3406
-10.3549
-10.3669
-10.3761
-10.3816
-10.3827
-10.3789
-10.3693
-10.3534
-10.3305
-10.2999
-10.2611
-10.2136
-10.1567
-10.0901
-10.0133
-9.92594
-9.82767
-9.71826
-9.59754
-9.4654
-9.32182
-9.16685
-9.00063
-8.82338
-8.63543
-8.43718
-8.22912
-8.01184
-7.78601
-7.55239
-7.31179
-7.06511
-6.81329
-6.55733
-6.29824
-6.03707
-5.77487
-5.51268
-5.25151
-4.99237
-4.7362
-4.48388
-4.23625
-3.99407
-3.758
-3.52865
-3.30653
-3.09207
-2.8856
-2.68738
-2.4976
-2.31637
-2.14371
-1.97961
-1.82398
-1.67668
-1.53751
-1.40626
-1.28265
-1.16641
-1.05722
-0.954757
-0.858677
-0.768633
-0.684272
-0.605234
-0.531146
-0.461651
-0.39631
-0.334857
-0.276471
-0.221743
-0.167224
-0.120404
-0.0585524
-0.04454
-10.0797
-10.0945
-10.1076
-10.1192
-10.1294
-10.1383
-10.1459
-10.1525
-10.1583
-10.1638
-10.1691
-10.1747
-10.1809
-10.1879
-10.196
-10.2054
-10.2161
-10.2281
-10.2412
-10.2553
-10.2698
-10.2844
-10.2986
-10.3118
-10.3234
-10.3328
-10.3392
-10.3421
-10.3407
-10.3344
-10.3225
-10.3044
-10.2795
-10.2472
-10.2069
-10.158
-10.1001
-10.0327
-9.95536
-9.86775
-9.76956
-9.66053
-9.54049
-9.40934
-9.26706
-9.11368
-8.94935
-8.77427
-8.58875
-8.39319
-8.18805
-7.97389
-7.75137
-7.5212
-7.28418
-7.04117
-6.79307
-6.54085
-6.28548
-6.02798
-5.76936
-5.51063
-5.25279
-4.99679
-4.74357
-4.49398
-4.24886
-4.00893
-3.77487
-3.54727
-3.32664
-3.11341
-2.90793
-2.71047
-2.52121
-2.34029
-2.16774
-2.00356
-1.84767
-1.69996
-1.56025
-1.42832
-1.30394
-1.18683
-1.07669
-0.97321
-0.876057
-0.784893
-0.69937
-0.619136
-0.543823
-0.473074
-0.406457
-0.343698
-0.284001
-0.227902
-0.172123
-0.123727
-0.0613644
-0.0439015
-10.067
-10.0811
-10.0938
-10.1051
-10.1152
-10.1241
-10.1319
-10.1387
-10.1449
-10.1506
-10.1562
-10.162
-10.1681
-10.1749
-10.1826
-10.1913
-10.201
-10.2116
-10.2232
-10.2354
-10.2479
-10.2602
-10.272
-10.2827
-10.2918
-10.2985
-10.3023
-10.3026
-10.2987
-10.2901
-10.2759
-10.2557
-10.2289
-10.1949
-10.153
-10.1029
-10.0439
-9.97576
-9.89795
-9.81013
-9.71201
-9.60337
-9.48401
-9.35385
-9.21286
-9.06106
-8.8986
-8.72567
-8.54256
-8.34965
-8.14739
-7.93633
-7.71707
-7.49032
-7.25684
-7.01745
-6.77303
-6.5245
-6.27282
-6.01895
-5.76388
-5.50858
-5.25403
-5.00116
-4.75087
-4.50401
-4.26138
-4.02371
-3.79165
-3.56581
-3.34668
-3.1347
-2.93022
-2.73352
-2.5448
-2.3642
-2.19177
-2.02752
-1.8714
-1.72329
-1.58304
-1.45046
-1.32531
-1.20734
-1.09626
-0.991771
-0.89355
-0.801268
-0.714586
-0.633156
-0.556614
-0.484607
-0.416707
-0.352633
-0.291615
-0.234132
-0.177086
-0.127088
-0.0641875
-0.0432647
-10.0546
-10.068
-10.0802
-10.0913
-10.1012
-10.11
-10.1179
-10.1249
-10.1313
-10.1372
-10.1429
-10.1487
-10.1547
-10.1613
-10.1684
-10.1764
-10.185
-10.1945
-10.2045
-10.2149
-10.2254
-10.2356
-10.2451
-10.2534
-10.2599
-10.2641
-10.2654
-10.2633
-10.257
-10.246
-10.2296
-10.2074
-10.1787
-10.143
-10.0997
-10.0483
-9.98832
-9.9194
-9.8411
-9.75309
-9.65506
-9.5468
-9.42813
-9.29895
-9.15922
-9.00899
-8.84837
-8.67756
-8.49683
-8.30655
-8.10714
-7.89912
-7.68309
-7.45971
-7.22972
-6.99391
-6.75313
-6.50825
-6.26021
-6.00993
-5.75838
-5.50649
-5.25521
-5.00545
-4.75807
-4.51392
-4.27377
-4.03835
-3.8083
-3.58421
-3.36659
-3.15587
-2.9524
-2.75648
-2.56831
-2.38804
-2.21575
-2.05145
-1.8951
-1.74661
-1.60584
-1.47261
-1.34671
-1.22789
-1.11588
-1.01038
-0.9111
-0.817705
-0.729865
-0.64724
-0.56947
-0.496204
-0.427019
-0.361627
-0.299285
-0.240412
-0.182095
-0.130484
-0.0669809
-0.0427327
-10.0424
-10.0551
-10.0669
-10.0776
-10.0873
-10.0961
-10.104
-10.111
-10.1175
-10.1235
-10.1293
-10.135
-10.1409
-10.147
-10.1537
-10.1608
-10.1685
-10.1767
-10.1852
-10.1939
-10.2025
-10.2106
-10.2179
-10.2238
-10.2279
-10.2297
-10.2286
-10.224
-10.2154
-10.2021
-10.1837
-10.1595
-10.1289
-10.0916
-10.0468
-9.9942
-9.93328
-9.86363
-9.78487
-9.69667
-9.59874
-9.49086
-9.37287
-9.24465
-9.10618
-8.95749
-8.7987
-8.62997
-8.45159
-8.26389
-8.06728
-7.86227
-7.64942
-7.42937
-7.20283
-6.97055
-6.73335
-6.49208
-6.24764
-6.00092
-5.75285
-5.50433
-5.25629
-5.00961
-4.76513
-4.52367
-4.286
-4.05282
-3.82478
-3.60245
-3.38634
-3.17688
-2.97444
-2.7793
-2.5917
-2.41178
-2.23964
-2.0753
-1.91874
-1.76988
-1.62861
-1.49475
-1.3681
-1.24844
-1.1355
-1.02901
-0.928667
-0.834162
-0.745168
-0.661349
-0.582351
-0.507825
-0.437354
-0.370643
-0.306976
-0.246713
-0.187119
-0.133901
-0.0697049
-0.0423554
-10.0303
-10.0425
-10.0538
-10.0642
-10.0737
-10.0823
-10.0901
-10.0971
-10.1036
-10.1096
-10.1153
-10.1209
-10.1265
-10.1322
-10.1383
-10.1446
-10.1513
-10.1583
-10.1653
-10.1724
-10.1791
-10.1853
-10.1904
-10.1941
-10.1959
-10.1953
-10.1919
-10.185
-10.1741
-10.1586
-10.1381
-10.112
-10.0797
-10.0407
-9.99453
-9.94074
-9.87887
-9.80852
-9.72931
-9.64093
-9.5431
-9.4356
-9.31827
-9.19101
-9.05378
-8.90661
-8.7496
-8.58294
-8.40686
-8.2217
-8.02786
-7.8258
-7.61608
-7.39931
-7.17616
-6.94736
-6.7137
-6.47599
-6.2351
-5.99189
-5.74726
-5.50209
-5.25726
-5.01362
-4.77202
-4.53325
-4.29804
-4.0671
-3.84105
-3.62048
-3.40589
-3.1977
-2.99629
-2.80196
-2.61493
-2.43538
-2.2634
-2.09904
-1.94228
-1.79308
-1.65131
-1.51683
-1.38945
-1.26895
-1.1551
-1.04762
-0.946223
-0.850612
-0.760466
-0.675455
-0.59523
-0.519444
-0.447686
-0.379655
-0.314662
-0.253009
-0.192132
-0.13732
-0.0723305
-0.0421456
-10.0185
-10.0301
-10.0409
-10.0509
-10.0601
-10.0685
-10.0762
-10.0831
-10.0895
-10.0954
-10.101
-10.1064
-10.1117
-10.117
-10.1224
-10.1279
-10.1336
-10.1393
-10.145
-10.1504
-10.1554
-10.1596
-10.1627
-10.1642
-10.1638
-10.161
-10.1552
-10.1461
-10.133
-10.1155
-10.093
-10.0649
-10.0309
-9.99038
-9.94287
-9.88794
-9.82515
-9.75411
-9.67447
-9.58592
-9.48819
-9.38107
-9.26439
-9.13807
-9.00205
-8.85637
-8.70113
-8.53648
-8.36268
-8.18002
-7.98888
-7.78974
-7.58309
-7.36954
-7.14973
-6.92436
-6.69419
-6.45999
-6.2226
-5.98286
-5.74162
-5.49975
-5.25809
-5.01749
-4.77874
-4.54262
-4.30986
-4.08115
-3.8571
-3.63829
-3.42521
-3.2183
-3.01793
-2.82441
-2.63798
-2.4588
-2.287
-2.12263
-1.9657
-1.81615
-1.6739
-1.53881
-1.41072
-1.2894
-1.17464
-1.06618
-0.96374
-0.867029
-0.775735
-0.689534
-0.608084
-0.531039
-0.457994
-0.388645
-0.322325
-0.259284
-0.197115
-0.140728
-0.0748456
-0.0420961
-10.0067
-10.0178
-10.0282
-10.0378
-10.0467
-10.0549
-10.0623
-10.0691
-10.0754
-10.0811
-10.0865
-10.0916
-10.0965
-10.1013
-10.106
-10.1107
-10.1154
-10.1199
-10.1242
-10.1281
-10.1314
-10.1337
-10.1348
-10.1343
-10.1317
-10.1267
-10.1188
-10.1075
-10.0923
-10.0727
-10.0483
-10.0184
-9.98275
-9.94073
-9.8919
-9.83586
-9.77217
-9.70047
-9.62042
-9.5317
-9.43407
-9.32732
-9.21129
-9.08589
-8.95107
-8.80685
-8.65333
-8.49067
-8.31908
-8.13888
-7.95041
-7.75411
-7.55049
-7.34011
-7.12358
-6.90158
-6.67482
-6.44408
-6.21014
-5.97382
-5.73593
-5.49732
-5.2588
-5.02118
-4.78526
-4.55177
-4.32145
-4.09495
-3.87289
-3.65583
-3.44427
-3.23865
-3.03933
-2.84663
-2.6608
-2.48201
-2.3104
-2.14604
-1.98895
-1.83908
-1.69636
-1.56068
-1.43188
-1.30975
-1.1941
-1.08467
-0.981192
-0.883387
-0.790952
-0.703567
-0.620894
-0.542593
-0.468264
-0.397598
-0.329951
-0.265527
-0.202056
-0.144117
-0.077252
-0.0421903
-9.99518
-10.0057
-10.0156
-10.0249
-10.0334
-10.0413
-10.0485
-10.0551
-10.0611
-10.0666
-10.0717
-10.0765
-10.0809
-10.0852
-10.0892
-10.0931
-10.0968
-10.1001
-10.1031
-10.1055
-10.1071
-10.1076
-10.1068
-10.1043
-10.0997
-10.0926
-10.0826
-10.0692
-10.052
-10.0305
-10.0041
-9.97256
-9.93526
-9.89177
-9.84168
-9.78455
-9.72
-9.64766
-9.56721
-9.47834
-9.38081
-9.27443
-9.15903
-9.03453
-8.90087
-8.75809
-8.60627
-8.44554
-8.27614
-8.09833
-7.91247
-7.71897
-7.51831
-7.31103
-7.09772
-6.87902
-6.65564
-6.42829
-6.19774
-5.96478
-5.73019
-5.49479
-5.25936
-5.0247
-4.79157
-4.5607
-4.33278
-4.10848
-3.8884
-3.67309
-3.46305
-3.25871
-3.06045
-2.86858
-2.68335
-2.50497
-2.33357
-2.16923
-2.01199
-1.86182
-1.71865
-1.58239
-1.45289
-1.32998
-1.21344
-1.10305
-0.998549
-0.89966
-0.806091
-0.717528
-0.63364
-0.554088
-0.478479
-0.4065
-0.337529
-0.271727
-0.206949
-0.147482
-0.0795589
-0.0424059
-9.98376
-9.99381
-10.0033
-10.0121
-10.0203
-10.0278
-10.0347
-10.0411
-10.0468
-10.052
-10.0568
-10.0611
-10.0651
-10.0688
-10.0721
-10.0751
-10.0778
-10.08
-10.0817
-10.0826
-10.0826
-10.0814