/*--------------------------------*- C++ -*----------------------------------*\
| =========                 |                                                 |
| \\      /  F ield         | OpenFOAM: The Open Source CFD Toolbox           |
|  \\    /   O peration     | Version:  4.1                                   |
|   \\  /    A nd           | Web:      www.OpenFOAM.org                      |
|    \\/     M anipulation  |                                                 |
\*---------------------------------------------------------------------------*/
FoamFile
{
    version     2.0;
    format      ascii;
    class       volScalarField;
    location    "600";
    object      p;
}
// * * * * * * * * * * * * * * * * * * * * * * * * * * * * * * * * * * * * * //

dimensions      [0 2 -2 0 0 0 0];

internalField   nonuniform List<scalar> 
26785
(
-53.5173
-50.4012
-48.318
-46.7501
-45.0759
-43.3802
-41.7748
-40.2717
-38.8965
-37.6749
-36.6143
-35.6768
-34.8634
-34.2099
-33.6669
-33.2027
-32.8646
-32.5831
-32.4286
-32.5436
-32.9103
-33.5787
-34.6198
-36.1108
-38.1507
-40.8854
-44.4461
-48.9551
-54.5002
-61.1163
-68.8213
-77.6231
-87.4686
-98.2972
-109.983
-122.283
-134.941
-147.619
-159.791
-170.924
-180.403
-186.911
-189.043
-186.254
-178.457
-167.147
-154.347
-141.443
-129.124
-117.655
-107.088
-97.3892
-88.5022
-80.3704
-72.9458
-66.1889
-60.0684
-54.5556
-49.6226
-45.2378
-41.3769
-37.9941
-35.0703
-32.5936
-30.4876
-28.7982
-27.498
-26.257
-25.5006
-25.2179
-25.4018
-26.1989
-27.6233
-29.5332
-31.7224
-34.0221
-36.4041
-38.969
-41.7934
-44.8113
-47.7322
-49.8816
-50.5389
-49.3612
-46.4596
-42.5878
-38.448
-34.301
-30.1355
-25.911
-21.68
-17.5919
-13.8301
-10.5441
-7.80211
-5.60326
-3.85897
-2.52339
-1.31283
-0.600467
-53.4964
-50.402
-48.3236
-46.7555
-45.081
-43.3852
-41.7794
-40.2759
-38.9004
-37.6789
-36.6189
-35.6814
-34.8662
-34.2102
-33.6656
-33.2
-32.8627
-32.5795
-32.4219
-32.5422
-32.9153
-33.5897
-34.6368
-36.1335
-38.1788
-40.9199
-44.4875
-49.0049
-54.5594
-61.1848
-68.899
-77.7101
-87.5636
-98.4002
-110.095
-122.401
-135.068
-147.756
-159.941
-171.088
-180.596
-187.155
-189.328
-186.584
-178.779
-167.416
-154.562
-141.618
-129.274
-117.788
-107.209
-97.502
-88.6078
-80.4692
-73.038
-66.2743
-60.147
-54.6271
-49.6871
-45.295
-41.4274
-38.038
-35.108
-32.6244
-30.5096
-28.8109
-27.5069
-26.2221
-25.5025
-25.2683
-25.4964
-26.3291
-27.7759
-29.6956
-31.8832
-34.1709
-36.536
-39.0905
-41.9197
-44.9561
-47.9135
-50.1131
-50.8044
-49.6502
-46.712
-42.7801
-38.6005
-34.434
-30.2515
-25.9998
-21.7303
-17.5996
-13.8006
-10.4893
-7.73634
-5.53963
-3.80868
-2.4896
-1.30253
-0.593244
-53.4766
-50.4079
-48.3364
-46.7674
-45.0918
-43.3957
-41.7892
-40.2848
-38.9088
-37.6874
-36.6288
-35.6912
-34.8725
-34.2121
-33.6647
-33.1964
-32.8613
-32.5766
-32.4172
-32.5486
-32.9321
-33.6184
-34.6776
-36.185
-38.24
-40.9921
-44.5723
-49.1049
-54.6765
-61.3185
-69.0486
-77.8752
-87.7408
-98.5891
-110.295
-122.61
-135.288
-147.99
-160.187
-171.339
-180.88
-187.532
-189.803
-187.168
-179.368
-167.922
-154.975
-141.961
-129.571
-118.054
-107.454
-97.7299
-88.8211
-80.6688
-73.2241
-66.4467
-60.3055
-54.7714
-49.8176
-45.411
-41.5299
-38.127
-35.1845
-32.6868
-30.5572
-28.8466
-27.5387
-26.1881
-25.5616
-25.4171
-25.7053
-26.5735
-28.0364
-29.9593
-32.1391
-34.4073
-36.7456
-39.2792
-42.1031
-45.1418
-48.1321
-50.4352
-51.2285
-50.1519
-47.1705
-43.138
-38.8918
-34.6949
-30.4836
-26.1802
-21.8348
-17.6193
-13.7457
-10.3835
-7.60834
-5.41551
-3.71076
-2.42361
-1.28706
-0.574632
-53.456
-50.4124
-48.3523
-46.7836
-45.1072
-43.4109
-41.8035
-40.2979
-38.9213
-37.7003
-36.6437
-35.7063
-34.8833
-34.2178
-33.6673
-33.1959
-32.8627
-32.5751
-32.4208
-32.5697
-32.97
-33.6725
-34.7462
-36.266
-38.3328
-41.0997
-44.6972
-49.2512
-54.8468
-61.5119
-69.2638
-78.1109
-87.9915
-98.8538
-110.574
-122.899
-135.588
-148.309
-160.519
-171.673
-181.245
-187.996
-190.381
-187.884
-180.118
-168.593
-155.545
-142.449
-130.001
-118.445
-107.815
-98.0661
-89.1355
-80.9625
-73.4974
-66.6994
-60.5375
-54.9824
-50.0081
-45.5801
-41.679
-38.2566
-35.2958
-32.777
-30.6291
-28.9125
-27.6187
-26.2074
-25.7184
-25.6607
-25.9942
-26.8868
-28.3613
-30.2874
-32.4615
-34.711
-37.0194
-39.5261
-42.3389
-45.368
-48.3675
-50.7573
-51.6542
-50.6832
-47.7051
-43.5896
-39.288
-35.0706
-30.8289
-26.4542
-21.9984
-17.6581
-13.6746
-10.2371
-7.42833
-5.24029
-3.57287
-2.33105
-1.26846
-0.548604
-53.4383
-50.4202
-48.373
-46.8044
-45.1271
-43.4306
-41.8221
-40.315
-38.9379
-37.7173
-36.6635
-35.7267
-34.8988
-34.2284
-33.6762
-33.2041
-32.8668
-32.582
-32.4436
-32.6123
-33.031
-33.7505
-34.8402
-36.3746
-38.4559
-41.2413
-44.8608
-49.4419
-55.0674
-61.7607
-69.5382
-78.4086
-88.3046
-99.1804
-110.914
-123.247
-135.946
-148.686
-160.907
-172.055
-181.656
-188.516
-191.035
-188.693
-180.975
-169.376
-156.229
-143.052
-130.546
-118.946
-108.282
-98.5031
-89.5448
-81.345
-73.8532
-67.0282
-60.839
-55.2564
-50.2552
-45.7993
-41.8722
-38.4242
-35.4406
-32.8939
-30.725
-29.0178
-27.7745
-26.3219
-25.9858
-25.9914
-26.355
-27.2618
-28.7413
-30.667
-32.8347
-35.0656
-37.3413
-39.8142
-42.6063
-45.61
-48.5993
-51.0665
-52.0626
-51.1855
-48.2402
-44.0718
-39.7484
-35.5391
-31.2784
-26.8207
-22.2249
-17.7234
-13.5971
-10.0607
-7.20661
-5.02334
-3.40253
-2.21737
-1.24696
-0.52392
-53.4077
-50.4308
-48.3987
-46.8297
-45.1511
-43.4544
-41.8447
-40.3361
-38.9583
-37.7385
-36.6884
-35.7526
-34.9198
-34.2458
-33.6955
-33.2318
-32.8748
-32.6091
-32.4915
-32.6781
-33.115
-33.8527
-34.9601
-36.511
-38.6094
-41.4171
-45.063
-49.6766
-55.3372
-62.0628
-69.8689
-78.7639
-88.6738
-99.5609
-111.306
-123.642
-136.348
-149.106
-161.337
-172.474
-182.099
-189.067
-191.728
-189.55
-181.888
-170.224
-156.988
-143.741
-131.182
-119.541
-108.841
-99.03
-90.0399
-81.8084
-74.2844
-67.4265
-61.2042
-55.5881
-50.5543
-46.0646
-42.1057
-38.6269
-35.6175
-33.0365
-30.8444
-29.1659
-28.0193
-26.562
-26.3615
-26.3972
-26.7751
-27.6852
-29.1621
-31.0836
-33.2448
-35.4587
-37.6998
-40.1318
-42.8921
-45.8526
-48.8072
-51.3343
-52.4206
-51.6172
-48.7139
-44.5273
-40.2333
-36.0786
-31.8226
-27.2777
-22.5168
-17.8213
-13.5215
-9.86366
-6.95236
-4.77376
-3.20778
-2.08881
-1.2244
-0.511171
-53.3587
-50.4399
-48.4268
-46.858
-45.1785
-43.4818
-41.8711
-40.361
-38.9828
-37.764
-36.7183
-35.7844
-34.9473
-34.2717
-33.7314
-33.2853
-32.9012
-32.6605
-32.5655
-32.7667
-33.2215
-33.9782
-35.1048
-36.674
-38.7921
-41.6258
-45.3026
-49.9534
-55.6537
-62.415
-70.2515
-79.1714
-89.0925
-99.9868
-111.738
-124.072
-136.78
-149.554
-161.792
-172.913
-182.56
-189.636
-192.443
-190.433
-182.824
-171.1
-157.792
-144.489
-131.889
-120.213
-109.48
-99.6353
-90.6109
-82.344
-74.7834
-67.8877
-61.627
-55.972
-50.9006
-46.372
-42.3763
-38.8619
-35.8257
-33.2047
-30.9875
-29.3534
-28.3316
-26.9209
-26.8227
-26.8634
-27.2449
-28.149
-29.6155
-31.5275
-33.6806
-35.8776
-38.0812
-40.4643
-43.1826
-46.0805
-48.9769
-51.548
-52.717
-51.9634
-49.0921
-44.9172
-40.7125
-36.6703
-32.4516
-27.8206
-22.8732
-17.9537
-13.4525
-9.65187
-6.67179
-4.49872
-2.99584
-1.951
-1.2043
-0.521553
-53.3139
-50.4522
-48.4585
-46.8897
-45.2092
-43.5128
-41.9011
-40.3897
-39.0113
-37.7939
-36.7535
-35.8228
-34.983
-34.3082
-33.7915
-33.3676
-32.9611
-32.7338
-32.6617
-32.8765
-33.3494
-34.1261
-35.2732
-36.8625
-39.003
-41.8664
-45.5782
-50.2704
-56.0142
-62.8136
-70.6818
-79.6261
-89.555
-100.452
-112.204
-124.528
-137.231
-150.02
-162.262
-173.36
-183.029
-190.213
-193.166
-191.321
-183.755
-171.976
-158.614
-145.275
-132.647
-120.945
-110.183
-100.307
-91.2471
-82.9424
-75.3419
-68.4044
-62.1011
-56.4028
-51.2895
-46.7178
-42.6809
-39.1268
-36.0655
-33.4007
-31.1559
-29.5642
-28.5987
-27.3466
-27.337
-27.3732
-27.7522
-28.6423
-30.0904
-31.9872
-34.13
-36.3093
-38.4724
-40.8001
-43.4668
-46.28
-49.0907
-51.6915
-52.9271
-52.2037
-49.3462
-45.2106
-41.1615
-37.298
-33.1556
-28.4431
-23.2901
-18.1202
-13.3924
-9.4298
-6.37127
-4.20754
-2.77726
-1.81155
-1.19488
-0.565776
-53.272
-50.4637
-48.4921
-46.9242
-45.2431
-43.5473
-41.9349
-40.4224
-39.044
-37.8285
-36.7943
-35.8688
-35.0281
-34.3629
-33.8706
-33.487
-33.0486
-32.8278
-32.7781
-33.0066
-33.498
-34.2957
-35.4644
-37.0756
-39.2413
-42.1377
-45.888
-50.6249
-56.4148
-63.2543
-71.1552
-80.1231
-90.0558
-100.949
-112.696
-125.001
-137.692
-150.493
-162.736
-173.805
-183.498
-190.791
-193.889
-192.201
-184.661
-172.831
-159.433
-146.078
-133.44
-121.723
-110.938
-101.032
-91.9379
-83.5944
-75.9517
-68.9694
-62.6201
-56.8751
-51.7167
-47.0987
-43.0167
-39.4197
-36.3384
-33.6286
-31.3529
-29.7866
-28.7466
-27.81
-27.8733
-27.9095
-28.284
-29.1539
-30.5764
-32.452
-34.5808
-36.7417
-38.8634
-41.1291
-43.7304
-46.434
-49.1299
-51.7528
-53.0354
-52.3261
-49.4575
-45.3851
-41.5619
-37.9485
-33.9254
-29.1383
-23.7633
-18.3196
-13.3423
-9.19907
-6.0531
-3.9062
-2.56118
-1.676
-1.20672
-0.654461
-53.2345
-50.4756
-48.5278
-46.9615
-45.2801
-43.5852
-41.9724
-40.4591
-39.0811
-37.8679
-36.8414
-35.9236
-35.087
-34.4341
-33.9667
-33.6243
-33.1566
-32.9441
-32.9144
-33.1561
-33.6662
-34.4859
-35.6774
-37.3124
-39.5061
-42.4385
-46.2299
-51.0136
-56.8513
-63.7322
-71.6667
-80.6576
-90.5901
-101.474
-113.208
-125.486
-138.154
-150.965
-163.206
-174.239
-183.959
-191.364
-194.606
-193.063
-185.526
-173.646
-160.232
-146.885
-134.253
-122.532
-111.732
-101.8
-92.6729
-84.2907
-76.6046
-69.5756
-63.1778
-57.3838
-52.1781
-47.5118
-43.3815
-39.7397
-36.6462
-33.8958
-31.5818
-30.0422
-28.9228
-28.3272
-28.4072
-28.4554
-28.8263
-29.672
-31.0626
-32.9099
-35.0205
-37.1646
-39.2459
-41.4386
-43.9601
-46.5399
-49.0947
-51.7289
-53.0399
-52.3273
-49.4143
-45.4259
-41.9006
-38.6104
-34.7503
-29.8952
-24.2838
-18.5484
-13.3029
-8.96272
-5.72216
-3.604
-2.35643
-1.54915
-1.25875
-0.814527
-53.1932
-50.4886
-48.5664
-47.0018
-45.3203
-43.6268
-42.014
-40.5003
-39.123
-37.9125
-36.8955
-35.9887
-35.1648
-34.5167
-34.0755
-33.7594
-33.2845
-33.0837
-33.0702
-33.3238
-33.8528
-34.6955
-35.9114
-37.5725
-39.797
-42.7677
-46.6015
-51.4329
-57.319
-64.2422
-72.2114
-81.2245
-91.1529
-102.021
-113.735
-125.975
-138.611
-151.428
-163.663
-174.653
-184.406
-191.926
-195.311
-193.897
-186.335
-174.408
-160.999
-147.68
-135.072
-123.359
-112.551
-102.6
-93.4422
-85.0225
-77.2929
-70.2162
-63.7685
-57.9241
-52.67
-47.9544
-43.7735
-40.0871
-36.9909
-34.2109
-31.8451
-30.3276
-29.2359
-28.8821
-28.9226
-28.9965
-29.3663
-30.1858
-31.5387
-33.3496
-35.4393
-37.5701
-39.6085
-41.7158
-44.1597
-46.6187
-48.9883
-51.6124
-52.9451
-52.2107
-49.2106
-45.325
-42.1691
-39.2746
-35.6237
-30.7087
-24.8484
-18.8089
-13.282
-8.73059
-5.38744
-3.31512
-2.17259
-1.43797
-1.33801
-1.01517
-53.1446
-50.5002
-48.6065
-47.0444
-45.3634
-43.672
-42.0598
-40.5461
-39.1699
-37.963
-36.9576
-36.0678
-35.2602
-34.6156
-34.1926
-33.8954
-33.433
-33.2462
-33.2454
-33.5092
-34.0567
-34.9234
-36.1654
-37.8553
-40.1136
-43.1241
-47.0006
-51.8789
-57.8131
-64.7793
-72.7841
-81.8187
-91.7394
-102.586
-114.272
-126.464
-139.056
-151.875
-164.102
-175.041
-184.831
-192.473
-195.997
-194.694
-187.078
-175.106
-161.724
-148.454
-135.886
-124.194
-113.387
-103.421
-94.2367
-85.7815
-78.0094
-70.8849
-64.3868
-58.4919
-53.1893
-48.4244
-44.1919
-40.4631
-37.3723
-34.5809
-32.1587
-30.6603
-29.5912
-29.4095
-29.4121
-29.5235
-29.8937
-30.6857
-31.9946
-33.7616
-35.8307
-37.9486
-39.9343
-41.9563
-44.345
-46.6668
-48.7647
-51.3786
-52.7668
-51.9895
-48.8513
-45.0862
-42.3633
-39.9282
-36.5267
-31.5572
-25.4401
-19.0895
-13.2725
-8.50399
-5.05639
-3.05205
-2.02249
-1.40877
-1.59481
-1.30641
-53.1019
-50.5126
-48.6488
-47.0896
-45.4095
-43.7208
-42.1099
-40.5969
-39.2221
-38.0203
-37.029
-36.1644
-35.3726
-34.7371
-34.3211
-34.0421
-33.6024
-33.429
-33.4395
-33.7117
-34.2764
-35.1682
-36.4385
-38.1604
-40.4554
-43.5065
-47.425
-52.3485
-58.3293
-65.3385
-73.3797
-82.4349
-92.3444
-103.163
-114.814
-126.947
-139.484
-152.301
-164.516
-175.393
-185.226
-192.998
-196.658
-195.444
-187.743
-175.732
-162.397
-149.198
-136.686
-125.026
-114.229
-104.254
-95.048
-86.5604
-78.7474
-71.576
-65.0278
-59.0832
-53.7328
-48.92
-44.6371
-40.8693
-37.7865
-35.0058
-32.5371
-31.1091
-29.9179
-29.865
-29.8818
-30.0327
-30.4016
-31.1638
-32.4218
-34.1395
-36.1892
-38.2859
-40.2095
-42.1697
-44.5138
-46.6336
-48.4604
-51.2211
-52.6949
-51.7143
-48.3547
-44.7301
-42.4877
-40.5632
-37.4573
-32.4498
-26.0714
-19.405
-13.2915
-8.30001
-4.73899
-2.8357
-1.85877
-1.34912
-2.13391
-1.88627
-53.0645
-50.5239
-48.6928
-47.1373
-45.4586
-43.7732
-42.1643
-40.6529
-39.2805
-38.0854
-37.1129
-36.2751
-35.5062
-34.8808
-34.4642
-34.2039
-33.7913
-33.6288
-33.6503
-33.9307
-34.5112
-35.4284
-36.7295
-38.4868
-40.8213
-43.9135
-47.8725
-52.8388
-58.8639
-65.9153
-73.993
-83.0674
-92.9624
-103.748
-115.356
-127.422
-139.89
-152.699
-164.9
-175.704
-185.584
-193.495
-197.285
-196.138
-188.324
-176.281
-163.014
-149.904
-137.463
-125.847
-115.069
-105.092
-95.8689
-87.3525
-79.5012
-72.2843
-65.6871
-59.6945
-54.2979
-49.44
-45.11
-41.3062
-38.2273
-35.4728
-32.9939
-31.5431
-30.2585
-30.2963
-30.3513
-30.5264
-30.8881
-31.6155
-32.8149
-34.4802
-36.5073
-38.5673
-40.4341
-42.3704
-44.6355
-46.4936
-48.2542
-51.3747
-52.9148
-51.4196
-47.7471
-44.3075
-42.5492
-41.1656
-38.3742
-33.3366
-26.734
-19.7749
-13.3621
-8.15053
-4.46089
-2.66569
-1.79993
-1.18561
-1.91366
-2.21351
-53.0333
-50.5351
-48.7386
-47.1875
-45.5109
-43.8293
-42.2232
-40.7141
-39.3459
-38.1596
-37.2117
-36.3978
-35.6606
-35.0409
-34.6197
-34.3807
-33.9974
-33.843
-33.875
-34.1647
-34.7601
-35.7023
-37.0367
-38.833
-41.21
-44.3436
-48.3416
-53.3474
-59.4136
-66.5057
-74.619
-83.7102
-93.588
-104.336
-115.895
-127.884
-140.271
-153.066
-165.25
-175.965
-185.895
-193.955
-197.868
-196.764
-188.812
-176.748
-163.571
-150.568
-138.212
-126.65
-115.899
-105.928
-96.6927
-88.152
-80.2655
-73.0052
-66.3604
-60.3224
-54.8818
-49.9837
-45.612
-41.7727
-38.6884
-35.9676
-33.5625
-31.9507
-30.7123
-30.7725
-30.8347
-31.0096
-31.3541
-32.0381
-33.1721
-34.7847
-36.7795
-38.7877
-40.6188
-42.5521
-44.6659
-46.2759
-48.1052
-51.1731
-52.7136
-51.0394
-47.0892
-43.9441
-42.5925
-41.7231
-39.2937
-34.2066
-27.3577
-20.1581
-13.5036
-8.10201
-4.29984
-2.55616
-1.77727
-1.33236
-1.76764
-2.01764
-53.0024
-50.5474
-48.787
-47.2406
-45.5665
-43.8894
-42.2868
-40.7812
-39.4186
-38.2466
-37.3217
-36.5354
-35.8296
-35.2109
-34.7846
-34.5703
-34.2177
-34.069
-34.1107
-34.4112
-35.0221
-35.9889
-37.3583
-39.197
-41.6194
-44.795
-48.8307
-53.8726
-59.9759
-67.1062
-75.2528
-84.3576
-94.2159
-104.923
-116.427
-128.329
-140.623
-153.397
-165.561
-176.172
-186.152
-194.375
-198.4
-197.312
-189.202
-177.133
-164.066
-151.185
-138.926
-127.43
-116.714
-106.755
-97.5139
-88.9536
-81.0355
-73.7345
-67.044
-60.9635
-55.482
-50.5506
-46.1427
-42.265
-39.1645
-36.4813
-34.2069
-32.563
-31.2659
-31.2784
-31.3318
-31.4855
-31.7999
-32.4284
-33.492
-35.0516
-36.999
-38.9484
-40.769
-42.6822
-44.5819
-46.0357
-47.98
-50.7525
-51.9524
-50.2302
-46.4437
-43.6699
-42.6862
-42.2668
-40.31
-35.2735
-28.1108
-20.613
-13.7661
-8.30689
-4.51325
-2.65566
-1.79767
-1.40998
-1.71069
-2.01758
-52.9679
-50.5595
-48.8374
-47.2963
-45.6255
-43.9536
-42.3552
-40.8548
-39.5
-38.3483
-37.4413
-36.6885
-36.0079
-35.3869
-34.9568
-34.77
-34.449
-34.3043
-34.355
-34.6672
-35.2952
-36.2868
-37.692
-39.5761
-42.0468
-45.2655
-49.3378
-54.4126
-60.5485
-67.7137
-75.8899
-85.0043
-94.8415
-105.505
-116.947
-128.757
-140.945
-153.688
-165.831
-176.318
-186.344
-194.749
-198.875
-197.773
-189.488
-177.433
-164.495
-151.752
-139.602
-128.179
-117.508
-107.568
-98.3272
-89.7526
-81.8072
-74.4682
-67.7339
-61.6144
-56.0961
-51.1394
-46.6991
-42.7758
-39.6538
-37.005
-34.8582
-33.2803
-31.8588
-31.806
-31.8374
-31.9542
-32.223
-32.7833
-33.7742
-35.2741
-37.1529
-39.0455
-40.8801
-42.7551
-44.4325
-45.7887
-47.7678
-50.148
-50.9566
-49.2545
-45.9197
-43.5201
-42.7194
-42.5211
-40.931
-36.2655
-28.9684
-21.1972
-14.1694
-8.62233
-4.8717
-2.98062
-2.03962
-1.57603
-1.69058
-1.97399
-52.9381
-50.573
-48.8898
-47.3542
-45.6878
-44.0221
-42.4289
-40.935
-39.5931
-38.4609
-37.5746
-36.8538
-36.1925
-35.5678
-35.135
-34.976
-34.6878
-34.5461
-34.6054
-34.93
-35.5768
-36.5944
-38.036
-39.9675
-42.4892
-45.7525
-49.8608
-54.9655
-61.1296
-68.3255
-76.5264
-85.6459
-95.4603
-106.078
-117.453
-129.165
-141.236
-153.935
-166.054
-176.399
-186.464
-195.072
-199.286
-198.138
-189.667
-177.648
-164.859
-152.265
-140.234
-128.896
-118.276
-108.362
-99.1281
-90.5448
-82.5765
-75.2026
-68.4263
-62.2715
-56.7214
-51.7452
-47.2756
-43.2972
-40.1562
-37.5305
-35.4681
-33.9189
-32.4723
-32.3526
-32.3448
-32.4118
-32.6201
-33.1081
-34.0314
-35.4632
-37.2528
-39.0936
-40.9418
-42.7435
-44.2299
-45.5569
-47.4933
-49.4776
-49.9315
-48.2975
-45.3767
-43.2577
-42.5093
-42.4219
-40.9436
-36.7033
-29.6671
-21.835
-14.6445
-9.08626
-5.45865
-3.48847
-2.47698
-1.83236
-1.71696
-1.90642
-52.9124
-50.5869
-48.9443
-47.4145
-45.7533
-44.0946
-42.5082
-41.0222
-39.6994
-38.5827
-37.7228
-37.027
-36.3816
-35.7532
-35.3179
-35.1847
-34.9307
-34.792
-34.8597
-35.197
-35.864
-36.9097
-38.3884
-40.3681
-42.943
-46.2526
-50.397
-55.5294
-61.7172
-68.9389
-77.1588
-86.2786
-96.0684
-106.638
-117.943
-129.555
-141.496
-154.131
-166.225
-176.408
-186.497
-195.338
-199.628
-198.399
-189.736
-177.779
-165.156
-152.724
-140.821
-129.575
-119.015
-109.134
-99.9124
-91.3262
-83.3396
-75.9339
-69.1173
-62.9314
-57.3539
-52.3619
-47.8577
-43.8266
-40.6664
-38.0546
-36.0145
-34.3886
-33.0932
-32.9101
-32.8465
-32.8532
-32.9957
-33.4173
-34.2718
-35.6171
-37.3039
-39.099
-40.9481
-42.6577
-44.0057
-45.3287
-47.1476
-48.7796
-48.9497
-47.3825
-44.7796
-42.8086
-41.9304
-41.6376
-40.225
-36.456
-29.9672
-22.3848
-15.3328
-9.92307
-6.29344
-4.17913
-2.98708
-2.13189
-1.81221
-1.87375
-52.8916
-50.6019
-49.0009
-47.4771
-45.822
-44.1713
-42.5929
-41.1189
-39.8141
-38.7178
-37.8834
-37.2054
-36.5739
-35.9428
-35.5047
-35.3943
-35.1749
-35.0397
-35.1158
-35.4662
-36.154
-37.2297
-38.7473
-40.7756
-43.4047
-46.7622
-50.9431
-56.1016
-62.309
-69.5513
-77.7841
-86.8995
-96.6624
-107.183
-118.416
-129.922
-141.722
-154.273
-166.333
-176.332
-186.425
-195.544
-199.894
-198.547
-189.693
-177.827
-165.387
-153.126
-141.36
-130.213
-119.72
-109.879
-100.676
-92.0929
-84.0932
-76.6586
-69.8036
-63.5898
-57.9875
-52.9849
-48.4293
-44.3633
-41.1737
-38.5756
-36.5193
-34.7413
-33.6992
-33.4638
-33.3362
-33.2789
-33.3601
-33.7189
-34.4976
-35.7398
-37.3151
-39.0615
-40.8854
-42.4985
-43.7671
-45.0951
-46.7395
-48.0358
-48.0138
-46.482
-44.1255
-42.2679
-41.2049
-40.527
-38.9961
-35.499
-29.6554
-22.6724
-16.0476
-10.819
-7.17059
-4.91319
-3.5094
-2.45054
-1.95031
-1.86991
-52.8696
-50.62
-49.0605
-47.5423
-45.8941
-44.2524
-42.6827
-41.2263
-39.935
-38.8679
-38.0526
-37.387
-36.7684
-36.1357
-35.6958
-35.6049
-35.4183
-35.2874
-35.3719
-35.7356
-36.4447
-37.5514
-39.11
-41.1876
-43.8711
-47.2776
-51.4958
-56.6794
-62.9026
-70.1601
-78.3997
-87.5061
-97.2396
-107.711
-118.868
-130.263
-141.917
-154.362
-166.367
-176.156
-186.226
-195.686
-200.074
-198.571
-189.537
-177.792
-165.55
-153.469
-141.848
-130.808
-120.389
-110.594
-101.416
-92.8415
-84.8336
-77.3729
-70.4814
-64.2413
-58.6159
-53.5982
-48.9882
-44.9034
-41.6727
-39.0907
-37.0036
-35.1443
-34.2758
-33.999
-33.8108
-33.6932
-33.719
-34.016
-34.7104
-35.8357
-37.2937
-38.9781
-40.7468
-42.2721
-43.5079
-44.8289
-46.2869
-47.2612
-47.0928
-45.5775
-43.4174
-41.6441
-40.4333
-39.4164
-37.6601
-34.2491
-28.9369
-22.6166
-16.5292
-11.5718
-7.97799
-5.6105
-4.02161
-2.77622
-2.11178
-1.89002
-52.8401
-50.6395
-49.1226
-47.6102
-45.9699
-44.3375
-42.7795
-41.3392
-40.0662
-39.0306
-38.2277
-37.5705
-36.9638
-36.3312
-35.8909
-35.8158
-35.6597
-35.5338
-35.6266
-36.0035
-36.734
-37.8725
-39.4736
-41.6019
-44.3395
-47.7953
-52.0515
-57.2596
-63.4951
-70.7628
-79.0031
-88.0961
-97.7981
-108.22
-119.296
-130.578
-142.084
-154.399
-166.317
-175.888
-185.891
-195.761
-200.159
-198.459
-189.267
-177.678
-165.646
-153.753
-142.283
-131.358
-121.018
-111.275
-102.128
-93.5684
-85.5575
-78.0738
-71.1458
-64.8806
-59.2285
-54.1852
-49.5411
-45.4389
-42.1626
-39.5962
-37.4664
-35.6308
-34.8148
-34.5095
-34.269
-34.0988
-34.0746
-34.3087
-34.9124
-35.9124
-37.2471
-38.8461
-40.5282
-41.9767
-43.2077
-44.4996
-45.7771
-46.4663
-46.1526
-44.6627
-42.6712
-40.974
-39.6656
-38.3816
-36.4046
-33.0377
-28.1545
-22.4318
-16.867
-12.207
-8.69515
-6.24963
-4.50998
-3.10045
-2.28992
-1.93193
-52.8126
-50.6615
-49.1868
-47.6805
-46.0496
-44.4259
-42.8845
-41.4548
-40.2096
-39.2022
-38.4067
-37.7548
-37.1592
-36.5287
-36.0886
-36.0251
-35.8986
-35.778
-35.879
-36.2688
-37.0206
-38.1909
-39.8352
-42.0157
-44.8081
-48.3127
-52.6068
-57.8387
-64.0836
-71.3567
-79.5921
-88.6677
-98.3363
-108.707
-119.696
-130.869
-142.228
-154.384
-166.195
-175.579
-185.423
-195.758
-200.136
-198.201
-188.886
-177.484
-165.674
-153.977
-142.664
-131.859
-121.606
-111.92
-102.809
-94.2701
-86.2615
-78.7569
-71.7929
-65.5
-59.8143
-54.7441
-50.0865
-45.9647
-42.6441
-40.0892
-37.9067
-36.1225
-35.3165
-34.9946
-34.7115
-34.4965
-34.4262
-34.5973
-35.1071
-35.9789
-37.1842
-38.6702
-40.2359
-41.6093
-42.8338
-44.0651
-45.1611
-45.6339
-45.1815
-43.7428
-41.91
-40.2864
-38.8954
-37.4042
-35.2636
-31.9596
-27.4369
-22.2256
-17.1212
-12.7395
-9.31876
-6.82487
-4.96512
-3.416
-2.4803
-1.99174
-52.787
-50.6854
-49.2533
-47.7534
-46.1324
-44.5188
-42.9925
-41.577
-40.364
-39.3794
-38.5883
-37.9389
-37.3537
-36.7276
-36.2882
-36.2312
-36.1346
-36.0197
-36.1283
-36.5307
-37.3033
-38.505
-40.1924
-42.4261
-45.2749
-48.8286
-53.1598
-58.4139
-64.6654
-71.9395
-80.1645
-89.2193
-98.8524
-109.169
-120.069
-131.138
-142.344
-154.325
-166.039
-175.268
-184.796
-195.582
-199.98
-197.783
-188.397
-177.213
-165.635
-154.138
-142.989
-132.31
-122.148
-112.525
-103.456
-94.9431
-86.9424
-79.4167
-72.4205
-66.0883
-60.3733
-55.2803
-50.6207
-46.4777
-43.1164
-40.5686
-38.329
-36.5834
-35.7897
-35.4551
-35.1395
-34.8862
-34.7718
-34.8822
-35.2987
-36.0449
-37.1165
-38.4654
-39.8913
-41.18
-42.3715
-43.5166
-44.4245
-44.7445
-44.1964
-42.837
-41.1532
-39.5882
-38.1215
-36.4762
-34.2301
-31.0054
-26.7909
-22.011
-17.3032
-13.1753
-9.8524
-7.33517
-5.38192
-3.71758
-2.67865
-2.06469
-52.7638
-50.7112
-49.322
-47.8291
-46.2172
-44.6173
-43.1002
-41.7086
-40.5258
-39.5602
-38.7716
-38.122
-37.5466
-36.9279
-36.4894
-36.4332
-36.3675
-36.2582
-36.3742
-36.7885
-37.5812
-38.8136
-40.5436
-42.8303
-45.7369
-49.3421
-53.7109
-58.9846
-65.2384
-72.5088
-80.7187
-89.7501
-99.3443
-109.603
-120.416
-131.383
-142.426
-154.238
-165.879
-174.92
-183.911
-195.001
-199.655
-197.19
-187.806
-176.866
-165.527
-154.238
-143.257
-132.71
-122.644
-113.087
-104.065
-95.5843
-87.5946
-80.0526
-73.0197
-66.6435
-60.913
-55.7978
-51.1432
-46.9773
-43.5772
-41.0325
-38.7397
-37.0176
-36.2451
-35.8932
-35.5526
-35.2668
-35.1107
-35.1635
-35.4909
-36.1185
-37.0565
-38.2544
-39.5281
-40.7188
-41.8434
-42.8899
-43.6223
-43.8264
-43.2362
-41.97
-40.4138
-38.8869
-37.3546
-35.5959
-33.2858
-30.1488
-26.2001
-21.7862
-17.4207
-13.5235
-10.3026
-7.78199
-5.75825
-4.00176
-2.88084
-2.14597
-52.738
-50.7414
-49.394
-47.9073
-46.3043
-44.716
-43.2114
-41.8493
-40.6923
-39.7432
-38.956
-38.3037
-37.7374
-37.1296
-36.6914
-36.6291
-36.5969
-36.4934
-36.6161
-37.0418
-37.8537
-39.1158
-40.8875
-43.2263
-46.1905
-49.8496
-54.2592
-59.5522
-65.8043
-73.0643
-81.254
-90.2587
-99.8091
-110.008
-120.74
-131.6
-142.47
-154.147
-165.715
-174.471
-182.714
-194.084
-199.162
-196.408
-187.116
-176.444
-165.351
-154.273
-143.467
-133.055
-123.09
-113.605
-104.634
-96.1891
-88.2146
-80.6602
-73.5792
-67.1768
-61.438
-56.3034
-51.657
-47.4671
-44.0251
-41.4774
-39.1444
-37.4334
-36.693
-36.3132
-35.9499
-35.6361
-35.4422
-35.4414
-35.6864
-36.2053
-37.0144
-38.0593
-39.1809
-40.2644
-41.2971
-42.2369
-42.8322
-42.9374
-42.3362
-41.1557
-39.6962
-38.1886
-36.601
-34.7595
-32.4146
-29.3678
-25.6505
-21.5494
-17.4813
-13.7937
-10.6765
-8.16798
-6.09351
-4.26606
-3.08238
-2.23089
-52.7021
-50.7745
-49.4695
-47.9872
-46.395
-44.8112
-43.3296
-41.9967
-40.8616
-39.9275
-39.1411
-38.4838
-37.9258
-37.3325
-36.8936
-36.8191
-36.8222
-36.7249
-36.8538
-37.2901
-38.1204
-39.4111
-41.223
-43.6125
-46.6336
-50.3471
-54.8004
-60.1158
-66.3656
-73.6092
-81.7727
-90.7445
-100.244
-110.385
-121.04
-131.779
-142.48
-154.071
-165.52
-173.904
-181.443
-193.682
-198.547
-195.423
-186.331
-175.945
-165.106
-154.245
-143.617
-133.346
-123.486
-114.074
-105.158
-96.752
-88.8002
-81.223
-74.1017
-67.6955
-61.954
-56.8046
-52.167
-47.9533
-44.4624
-41.901
-39.5459
-37.8294
-37.1432
-36.7191
-36.332
-35.9927
-35.7655
-35.716
-35.887
-36.3082
-36.9964
-37.8955
-38.8739
-39.8475
-40.7805
-41.5997
-42.0987
-42.1146
-41.5094
-40.3939
-38.9998
-37.4979
-35.8644
-33.963
-31.6042
-28.6467
-25.1322
-21.3005
-17.492
-13.9951
-10.9812
-8.49645
-6.38803
-4.50853
-3.27849
-2.315
-52.6668
-50.8114
-49.548
-48.0678
-46.4843
-44.9066
-43.4555
-42.1483
-41.0326
-40.1124
-39.3266
-38.6622
-38.1112
-37.5356
-37.0967
-37.0091
-37.0426
-36.9523
-37.0869
-37.533
-38.3806
-39.6988
-41.5494
-43.988
-47.0643
-50.8319
-55.3303
-60.6702
-66.9198
-74.1458
-82.279
-91.2082
-100.65
-110.736
-121.312
-131.916
-142.469
-154.014
-165.258
-173.221
-180.454
-193.708
-197.678
-194.23
-185.453
-175.37
-164.791
-154.153
-143.706
-133.58
-123.827
-114.494
-105.634
-97.2718
-89.3383
-81.7314
-74.597
-68.2039
-62.4663
-57.308
-52.678
-48.4415
-44.8948
-42.3052
-39.9425
-38.1848
-37.5941
-37.1116
-36.6984
-36.3361
-36.0806
-35.9876
-36.0931
-36.4275
-37.0048
-37.77
-38.6175
-39.4831
-40.3237
-41.0129
-41.4293
-41.3652
-40.7511
-39.677
-38.3227
-36.818
-35.1465
-33.203
-30.845
-27.9743
-24.6387
-21.0407
-17.4599
-14.1363
-11.2237
-8.77124
-6.6429
-4.72783
-3.46466
-2.39438
-52.6329
-50.8521
-49.6285
-48.1505
-46.5666
-45.0068
-43.5874
-42.3026
-41.2045
-40.2974
-39.5121
-38.8389
-38.2931
-37.7381
-37.3008
-37.2026
-37.2581
-37.1753
-37.3149
-37.77
-38.634
-39.9784
-41.8662
-44.3518
-47.4816
-51.3021
-55.846
-61.2119
-67.4625
-74.6713
-82.7732
-91.6519
-101.03
-111.06
-121.551
-132.008
-142.445
-153.951
-164.891
-172.433
-179.727
-192.743
-196.429
-192.872
-184.487
-174.721
-164.409
-153.995
-143.734
-133.755
-124.113
-114.859
-106.059
-97.7429
-89.8121
-82.1897
-75.0715
-68.7058
-62.9793
-57.8183
-53.1941
-48.9365
-45.3289
-42.6943
-40.3279
-38.4958
-38.0161
-37.4844
-37.047
-36.6664
-36.3873
-36.2563
-36.3047
-36.5624
-37.0389
-37.6836
-38.4133
-39.1752
-39.9232
-40.4994
-40.8192
-40.6815
-40.0496
-38.9968
-37.6637
-36.1509
-34.4487
-32.4769
-30.1301
-27.3427
-24.1659
-20.772
-17.3917
-14.2256
-11.4108
-8.99659
-6.85996
-4.9233
-3.63731
-2.46586
-52.6005
-50.897
-49.7096
-48.232
-46.6444
-45.1137
-43.7234
-42.4586
-41.3768
-40.482
-39.6975
-39.0143
-38.4717
-37.9393
-37.5044
-37.3979
-37.4685
-37.3937
-37.5375
-38.0006
-38.8799
-40.2492
-42.1726
-44.7034
-47.8844
-51.7562
-56.345
-61.7376
-67.991
-75.1834
-83.2524
-92.0735
-101.386
-111.36
-121.75
-132.052
-142.407
-153.851
-164.404
-171.575
-179.075
-191.282
-194.889
-191.348
-183.424
-173.997
-163.959
-153.773
-143.698
-133.871
-124.344
-115.172
-106.433
-98.1478
-90.2167
-82.607
-75.5307
-69.2045
-63.496
-58.3382
-53.718
-49.4426
-45.7715
-43.0732
-40.6831
-38.776
-38.3697
-37.8309
-37.3768
-36.9838
-36.6861
-36.5222
-36.5212
-36.7109
-37.0963
-37.6336
-38.2579
-38.9272
-39.5651
-40.0515
-40.262
-40.0524
-39.3942
-38.3471
-37.0221
-35.4984
-33.7718
-31.7825
-29.4543
-26.7465
-23.7114
-20.4966
-17.2936
-14.2704
-11.5492
-9.17703
-7.04152
-5.09495
-3.79399
-2.52705
-52.5671
-50.9485
-49.7918
-48.304
-46.7239
-45.2264
-43.8619
-42.6159
-41.5492
-40.666
-39.8826
-39.1889
-38.6473
-38.1382
-37.7066
-37.5933
-37.6738
-37.607
-37.7544
-38.2246
-39.1179
-40.5108
-42.4681
-45.0419
-48.2721
-52.1931
-56.8255
-62.2445
-68.5021
-75.6799
-83.7142
-92.4725
-101.72
-111.632
-121.903
-132.05
-142.351
-153.689
-163.808
-170.706
-178.47
-190.034
-193.173
-189.689
-182.253
-173.193
-163.443
-153.489
-143.605
-133.931
-124.522
-115.434
-106.744
-98.4755
-90.56
-82.9943
-75.9806
-69.7031
-64.0184
-58.8693
-54.2512
-49.9628
-46.2294
-43.4497
-41.0007
-39.0059
-38.6364
-38.1483
-37.6892
-37.2892
-36.9773
-36.7856
-36.742
-36.8713
-37.1748
-37.6167
-38.146
-38.7274
-39.2546
-39.6451
-39.7489
-39.4678
-38.7767
-37.7239
-36.3978
-34.862
-33.1165
-31.1184
-28.8143
-26.1819
-23.2738
-20.2169
-17.1711
-14.2775
-11.6449
-9.31709
-7.1902
-5.24333
-3.93337
-2.57634
-52.5261
-51.0043
-49.8748
-48.3647
-46.8089
-45.3433
-44.0021
-42.7739
-41.7214
-40.8491
-40.0672
-39.3636
-38.8208
-38.335
-37.9071
-37.788
-37.8739
-37.8151
-37.9652
-38.4414
-39.3475
-40.7624
-42.752
-45.3669
-48.6439
-52.6121
-57.2863
-62.7307
-68.9935
-76.1579
-84.1562
-92.8485
-102.033
-111.874
-122.009
-132.007
-142.267
-153.448
-163.123
-169.857
-177.81
-188.557
-191.346
-187.96
-180.992
-172.308
-162.857
-153.144
-143.457
-133.941
-124.648
-115.63
-106.973
-98.7299
-90.8573
-83.3631
-76.4269
-70.2043
-64.5481
-59.4121
-54.7951
-50.4978
-46.7069
-43.8346
-41.2935
-39.1841
-38.8429
-38.4364
-37.9851
-37.5834
-37.2615
-37.0467
-36.9662
-37.0416
-37.2714
-37.6294
-38.0766
-38.5563
-38.9901
-39.2693
-39.2726
-38.9204
-38.1913
-37.1246
-35.7913
-34.2432
-32.4836
-30.4835
-28.207
-25.6462
-22.8522
-19.9351
-17.0288
-14.2526
-11.7036
-9.42117
-7.30874
-5.36942
-4.05504
-2.61282
-52.4893
-51.0634
-49.9502
-48.421
-46.8998
-45.4628
-44.1436
-42.9325
-41.8933
-41.0311
-40.2512
-39.5389
-38.9936
-38.53
-38.107
-37.9813
-38.0688
-38.0177
-38.1697
-38.6507
-39.5682
-41.0036
-43.0236
-45.6776
-48.9993
-53.0126
-57.7264
-63.1949
-69.4635
-76.6153
-84.5758
-93.2018
-102.325
-112.086
-122.07
-131.929
-142.143
-153.113
-162.368
-169.02
-177.063
-186.974
-189.462
-186.207
-179.663
-171.35
-162.205
-152.739
-143.251
-133.89
-124.702
-115.741
-107.122
-98.9272
-91.1256
-83.7236
-76.8745
-70.7106
-65.0863
-59.9672
-55.3507
-51.0477
-47.2064
-44.2412
-41.6091
-39.3496
-39.0031
-38.6869
-38.2644
-37.8672
-37.5393
-37.3055
-37.1929
-37.2209
-37.385
-37.6677
-38.0342
-38.418