/*--------------------------------*- C++ -*----------------------------------*\
| =========                 |                                                 |
| \\      /  F ield         | OpenFOAM: The Open Source CFD Toolbox           |
|  \\    /   O peration     | Version:  4.1                                   |
|   \\  /    A nd           | Web:      www.OpenFOAM.org                      |
|    \\/     M anipulation  |                                                 |
\*---------------------------------------------------------------------------*/
FoamFile
{
    version     2.0;
    format      ascii;
    class       surfaceScalarField;
    location    "600";
    object      phi;
}
// * * * * * * * * * * * * * * * * * * * * * * * * * * * * * * * * * * * * * //

dimensions      [0 3 -1 0 0 0 0];

internalField   nonuniform List<scalar> 
52920
(
1282.49
65.309
1225.43
57.0586
1168.54
56.8901
1110.74
57.8111
1052.11
58.629
992.432
59.6815
931.656
60.7793
869.763
61.8958
805.701
64.0655
737.907
67.7981
664.637
73.2752
587.149
77.4938
514.153
73.0017
460.214
53.946
438.306
21.9161
447.409
-9.09529
468.93
-21.513
499.983
-31.0438
550.775
-50.7859
634.237
-83.4574
767.476
-133.235
950.928
-183.449
1177.53
-226.595
1441.37
-263.837
1739.92
-298.552
2071.86
-331.941
2436.52
-364.652
2832.75
-396.232
3258.71
-425.963
3712.39
-453.679
4191.52
-479.123
4692.81
-501.294
5212.35
-519.538
5744.89
-532.533
6284.01
-539.123
6823.49
-539.477
7356.81
-533.32
7876.41
-519.599
8370.82
-494.414
8816.18
-445.359
9169.44
-353.255
9379.7
-210.264
9410.08
-30.3788
9252.48
157.598
8948.34
304.144
8558.76
389.586
8131.6
427.159
7695.18
436.416
7263.45
431.737
6842
421.45
6432.3
409.693
6034.09
398.211
5646.58
387.513
5269.07
377.512
4901.19
367.875
4543.04
358.156
4195.07
347.97
3858.12
336.947
3533.13
324.994
3221.38
311.744
2923.93
297.459
2641.52
282.402
2373.57
267.957
2120.22
253.351
1885.27
234.943
1664.23
221.045
1475.02
189.207
1481.51
-6.48372
1752.76
-271.248
2219.31
-466.555
2788.83
-569.522
3396.23
-607.397
4004.03
-607.799
4591.85
-587.816
5153.19
-561.343
5694.49
-541.297
6228.4
-533.908
6761.89
-533.49
7285.21
-523.322
7763.9
-478.693
8137.63
-373.73
8340.03
-202.399
8331.53
8.50114
8123.78
207.753
7787.19
336.585
7400.81
386.38
7016.62
384.189
6659.42
357.197
6338.57
320.853
6057.51
281.059
5818.54
238.971
5623.69
194.85
5473.55
150.144
5365.75
107.795
5294.4
71.3473
5251.46
42.9421
5227.16
24.3048
5214.42
12.7336
5201.9
12.5277
16.6177
1269.8
125.399
1218.23
108.638
1166.48
108.635
1113.13
111.162
1058.17
113.6
1001.29
116.558
942.458
119.618
881.578
122.779
817.581
128.066
749.154
136.229
675.08
147.354
597.097
155.483
523.099
147.005
463.838
113.214
426.661
59.102
407.697
9.87758
388.006
-1.81127
379.742
-22.7685
425.584
-96.6202
545.853
-203.721
728.415
-315.793
949.993
-405.023
1199.03
-475.629
1472.67
-537.471
1771.94
-597.826
2098.07
-658.067
2451.92
-718.497
2833.24
-777.557
3240.68
-833.395
3672.44
-885.438
4126.35
-933.036
4599.18
-974.118
5087.09
-1007.45
5585.16
-1030.6
6087.4
-1041.37
6587.89
-1039.96
7080.1
-1025.54
7557.16
-996.66
8011.81
-949.058
8430.8
-864.347
8785.3
-707.756
9029.56
-454.528
9111.77
-112.583
9000.64
268.73
8727.03
577.749
8354.06
762.562
7935
846.216
7502.55
868.865
7073.25
861.04
6654.03
840.671
6246.96
816.762
5852
793.171
5468.42
771.092
5095.5
750.427
4732.84
730.537
4380.47
710.527
4038.82
689.628
3708.65
667.108
3390.88
642.768
3086.81
615.812
2797.21
587.064
2522.41
557.203
2262.42
527.947
2018.26
497.513
1788.05
465.153
1559.24
449.849
1365.73
382.724
1425.16
-65.9137
1768.08
-614.167
2255.31
-953.789
2792.85
-1107.06
3342.01
-1156.55
3883.43
-1149.22
4404.35
-1108.73
4900.52
-1057.52
5379.02
-1019.79
5853.37
-1008.26
6332.9
-1013.02
6814.57
-1004.99
7278.75
-942.88
7682.28
-777.253
7956.93
-477.051
8032.93
-67.4957
7888.89
351.786
7590.08
635.404
7225.93
750.526
6857.67
752.45
6514.63
700.233
6207.53
627.954
5939.64
548.947
5712.46
466.155
5527.09
380.219
5383.44
293.793
5278.92
212.321
5207.81
142.451
5162.61
88.146
5134.17
52.7406
5116.61
30.2964
5097.38
31.7568
37.575
1243.39
183.074
1194.34
157.692
1145.89
157.09
1096.25
160.797
1045.04
164.817
991.673
169.926
935.834
175.461
877.101
181.514
814.146
191.024
745.77
204.609
671.349
221.78
593.458
233.378
519.527
220.942
456.03
176.716
401.922
113.217
346.114
65.6951
280.056
64.2571
265.556
-8.25409
354.396
-185.454
522.462
-371.784
723.926
-517.254
944.985
-626.08
1184.91
-715.553
1445.6
-798.159
1729.68
-881.904
2038.83
-967.214
2374
-1053.66
2734.79
-1138.35
3119.56
-1218.16
3526.18
-1292.06
3952.16
-1359.02
4393.96
-1415.91
4847.56
-1461.06
5308.03
-1491.07
5769.52
-1502.86
6226.28
-1496.72
6671.77
-1471.02
7098.92
-1423.81
7501.62
-1351.76
7872.56
-1235.29
8196.86
-1032.05
8447.26
-704.924
8576.93
-242.259
8532.63
313.036
8319.56
790.818
7992.05
1090.07
7604.69
1233.57
7194.16
1279.4
6780.54
1274.66
6373.31
1247.9
5976.2
1213.87
5590.23
1179.14
5215.32
1146.01
4851.14
1114.61
4497.51
1084.17
4154.6
1053.44
3822.87
1021.35
3503.11
986.872
3196.18
949.693
2903.33
908.67
2624.8
865.593
2360.86
821.146
2112.03
776.774
1877.86
731.682
1649.92
693.094
1414.11
685.662
1207.11
589.719
1272.59
-131.391
1593.82
-935.393
2016.4
-1376.37
2476.4
-1567.07
2953.56
-1633.71
3430.2
-1625.86
3890.23
-1568.76
4326.91
-1494.21
4747.08
-1439.96
5165.46
-1426.64
5591.96
-1439.51
6023.6
-1436.64
6446.65
-1365.92
6838.63
-1169.24
7161.41
-799.831
7348.31
-254.389
7330.61
369.481
7134.46
831.558
6845.8
1039.18
6533.08
1065.17
6231.89
1001.42
5956.36
903.487
5711.21
794.093
5498.5
678.868
5319.87
558.85
5176.39
437.274
5067.38
321.328
4989.48
220.352
4937.27
140.356
4903.23
86.778
4882.5
51.029
4862.31
51.9465
57.5942
1210.77
237.791
1164.43
204.039
1119.08
202.439
1072.78
207.101
1024.84
212.762
974.457
220.311
921.052
228.869
863.846
238.723
801.251
253.623
732.32
273.543
657.33
296.774
579.627
311.086
505.047
295.528
434.903
246.866
359.899
188.228
264.998
160.606
170.789
158.48
190.007
-27.4558
320.087
-315.528
495.543
-547.236
688.112
-709.821
898.186
-836.151
1127.34
-944.7
1376.99
-1047.81
1649.38
-1154.29
1946.01
-1263.85
2267.75
-1375.39
2613.94
-1484.54
2982.53
-1586.75
3371.04
-1680.57
3776.65
-1764.63
4195.48
-1834.73
4623.32
-1888.91
5055.08
-1922.82
5484.74
-1932.52
5906.51
-1918.49
6313.67
-1878.18
6698.86
-1809
7056.15
-1709.05
7380.59
-1559.73
7664.58
-1316.05
7893.63
-933.975
8031.8
-380.427
8020.54
324.303
7849.42
961.931
7562.28
1377.22
7209.51
1586.34
6827.25
1661.67
6436.49
1665.42
6048
1636.39
5666.76
1595.11
5294.8
1551.1
4932.83
1507.98
4581.08
1466.36
4239.75
1425.49
3909.27
1383.92
3590.2
1340.42
3283.38
1293.7
2989.62
1243.45
2709.89
1188.4
2443.94
1131.54
2192.24
1072.85
1954.86
1014.15
1728.49
958.047
1499.11
922.477
1251.23
933.549
1013.74
827.207
1070.8
-188.448
1363.58
-1228.17
1733.37
-1746.16
2140.35
-1974.05
2571.21
-2064.56
3005.72
-2060.37
3424.74
-1987.78
3819.59
-1889.05
4196.8
-1817.17
4571.97
-1801.81
4955.27
-1822.81
5341.75
-1823.13
5716.04
-1740.21
6062.68
-1515.88
6366.16
-1103.32
6589.19
-477.417
6652.97
305.696
6546.65
937.881
6338.92
1246.91
6093.22
1310.88
5844.5
1250.14
5607.38
1140.61
5387.56
1013.91
5188.51
877.92
5013.87
733.498
4867.36
583.779
4751.44
437.252
4665.8
305.984
4607.43
198.732
4570.61
123.592
4551.29
70.3518
4537.33
65.9027
70.9417
1175.32
288.809
1132.36
246.994
1090.58
244.226
1047.82
249.858
1003.1
257.485
955.371
268.044
903.745
280.498
847.055
295.415
783.593
317.088
713.072
344.066
636.905
372.945
558.63
389.365
481.502
372.661
400.68
327.693
299.989
288.925
164.839
295.763
71.1
252.232
135.922
-92.2661
280.479
-460.081
445.488
-712.242
626.716
-891.046
826.168
-1035.6
1044.13
-1162.66
1281.63
-1285.31
1541.08
-1413.74
1824.18
-1546.95
2131.8
-1683.01
2463.09
-1815.82
2815.62
-1939.28
3186.72
-2051.66
3573.46
-2151.37
3971.85
-2233.13
4377.68
-2294.74
4785.71
-2330.85
5189.75
-2336.55
5583.86
-2312.59
5961.13
-2255.46
6313.92
-2161.78
6636.34
-2031.47
6924.55
-1847.93
7174.61
-1566.11
7380.02
-1139.38
7513.77
-514.185
7516.39
321.688
7369.93
1108.39
7112.21
1634.94
6789.49
1909.05
6435.41
2015.75
6069.89
2030.94
5703.61
2002.66
5342
1956.72
4987.7
1905.4
4642.06
1853.63
4305.82
1802.6
3979.58
1751.72
3664.03
1699.48
3359.82
1644.63
3067.84
1585.68
2788.76
1522.53
2523.09
1454.07
2270.17
1384.46
2030.74
1312.29
1803.36
1241.53
1580.66
1180.75
1342.1
1161.03
1075.2
1200.44
812.283
1090.13
879.878
-256.042
1151.69
-1499.98
1476.41
-2070.89
1839.7
-2337.33
2232.41
-2457.28
2632.8
-2460.75
3019.08
-2374.07
3379.11
-2249.08
3716.86
-2154.92
4048.34
-2133.29
4386.86
-2161.33
4730.19
-2166.46
5062.57
-2072.59
5367.48
-1820.78
5636.39
-1372.23
5854.54
-695.558
5954
206.228
5906.94
984.939
5765.91
1387.95
5582.75
1494.03
5385.79
1447.1
5186.93
1339.47
4991.91
1208.92
4805.96
1063.87
4635.39
904.069
4487.08
732.08
4366.64
557.701
4276.53
396.09
4215.59
259.677
4179.79
159.392
4166.15
83.9902
4163.44
68.6075
74.3257
1130.89
333.504
1094.36
283.529
1058.48
280.112
1020.81
287.525
980.178
298.124
935.386
312.839
885.301
330.586
828.41
352.309
763.108
382.394
690.158
417.02
612.147
450.96
531.962
469.555
448.95
455.677
352.292
424.357
219.564
421.659
45.7482
469.586
-11.7134
309.707
99.3433
-203.313
235.393
-596.126
387.757
-864.603
558.224
-1061.51
746.679
-1224.05
952.726
-1368.7
1177.41
-1509.99
1423.41
-1659.74
1692.51
-1816.05
1985.44
-1975.94
2301
-2131.38
2636.48
-2274.76
2989.23
-2404.41
3356.61
-2518.75
3734.83
-2611.35
4119.91
-2679.81
4506.6
-2717.54
4888.51
-2718.46
5259.58
-2683.66
5612.71
-2608.59
5939.89
-2488.96
6235.15
-2326.74
6495.14
-2107.93
6717.75
-1788.72
6901.55
-1323.18
7026.44
-639.065
7032.98
315.144
6899.99
1241.38
6662.94
1871.99
6365.19
2206.8
6037.39
2343.56
5697.4
2370.93
5354.94
2345.13
5015.21
2296.45
4681.12
2239.49
4354.37
2180.38
4036.1
2120.87
3727.24
2060.59
3428.62
1998.1
3140.98
1932.27
2865.18
1861.48
2601.55
1786.17
2350
1705.61
2109.64
1624.82
1881.49
1540.44
1661
1462.02
1434.77
1406.98
1176
1419.81
889.384
1487.06
625.352
1354.16
724.626
-355.316
974.918
-1750.28
1257.07
-2353.04
1579.75
-2660.01
1936.51
-2814.04
2305.79
-2830.03
2663.77
-2732.04
2993.27
-2578.58
3293.1
-2454.75
3577.88
-2418.07
3865.16
-2448.62
4159.38
-2460.68
4448.85
-2362.06
4716.03
-2087.96
4951.5
-1607.7
5151.79
-895.852
5262.62
95.406
5251.57
995.987
5161.91
1477.6
5032.98
1622.96
4883.43
1596.66
4720.39
1502.51
4548.97
1380.34
4376.11
1236.73
4210.92
1069.26
4063.4
879.599
3942.03
679.075
3851.59
486.526
3791.99
319.276
3760.51
190.878
3756.15
88.3481
3768.19
56.567
66.8417
1095.89
375.621
1062.32
317.101
1030.08
312.355
996.023
321.587
958.422
335.727
915.694
355.569
866.285
379.998
808.289
410.307
740.329
450.357
664.395
492.956
583.918
531.44
499.734
553.743
406.423
548.992
286.291
544.493
108.593
599.362
-53.9225
632.105
-52.5532
308.348
61.5407
-317.4
184.991
-719.573
326.442
-1006.05
486.359
-1221.43
663.94
-1401.63
858.446
-1563.21
1070.88
-1722.42
1304.09
-1892.95
1559.68
-2071.64
1837.94
-2254.2
2137.19
-2430.64
2454.54
-2592.11
2787.71
-2737.59
3134.79
-2865.82
3492.52
-2969.08
3857.37
-3044.65
4224.18
-3084.35
4586.34
-3080.62
4937.7
-3035.02
5270.92
-2941.8
5577.53
-2795.57
5851.41
-2600.61
6089.36
-2345.87
6289.92
-1989.28
6454.78
-1488.03
6568.78
-753.069
6572.91
311.017
6445.93
1368.36
6223.52
2094.41
5946.91
2483.41
5643.61
2646.86
5328.9
2685.63
5011.02
2663.02
4694.59
2612.87
4382.45
2551.63
4076.49
2486.34
3778.08
2419.28
3488.31
2350.36
3208.1
2278.31
2938.16
2202.21
2679.2
2120.43
2430.97
2034.4
2192.75
1943.83
1963.73
1853.84
1744.89
1759.27
1525.86
1681.06
1285.57
1647.26
996.385
1709
700.722
1782.72
469.561
1585.32
610.243
-495.997
833.342
-1973.37
1073.05
-2592.74
1353.96
-2940.92
1672.54
-3132.63
2009.6
-3167.09
2340.71
-3063.16
2644.31
-2882.18
2912.49
-2722.93
3154.9
-2660.48
3390.47
-2684.18
3630.62
-2700.83
3871.24
-2602.68
4097.14
-2313.86
4297.09
-1807.65
4473.44
-1072.19
4583.27
-14.4306
4594.31
984.952
4545.65
1526.26
4464.45
1704.16
4358.35
1702.76
4228.71
1632.15
4079.61
1529.43
3919.67
1396.67
3760.72
1228.22
3615.85
1024.46
3496.33
798.592
3409.03
573.827
3354.07
374.243
3329.35
215.595
3337.8
79.8961
3367.84
26.5339
49.7221
1066.31
413.022
1036.25
347.17
1007
341.603
975.338
353.252
939.37
371.699
897.265
397.677
847.12
430.145
786.771
470.659
715.297
521.834
635.954
572.303
552.057
615.341
461.035
644.769
351.478
658.553
191.941
704.034
-5.81426
797.122
-113.91
740.207
-73.7753
268.228
21.035
-412.204
132.667
-831.2
263.379
-1136.76
412.888
-1370.93
580.026
-1568.77
763.676
-1746.85
964.883
-1923.63
1186.58
-2114.65
1429.74
-2314.8
1693.81
-2518.27
1976.47
-2713.29
2274.77
-2890.4
2587.24
-3050.06
2913.07
-3191.65
3249.82
-3305.84
3594.59
-3389.42
3942.39
-3432.16
4286.41
-3424.64
4620.44
-3369.05
4936.91
-3258.27
5226.81
-3085.46
5483.72
-2857.53
5704.49
-2566.64
5887.51
-2172.3
6036.14
-1636.66
6138.43
-855.36
6135.66
313.789
6009.53
1494.49
5797.84
2306.1
5540.01
2741.25
5260.06
2926.8
4970.4
2975.3
4677.52
2955.9
4385.29
2905.1
4096.3
2840.62
3812.45
2770.19
3535.19
2696.54
3265.63
2619.92
3004.65
2539.29
2752.83
2454.04
2510.58
2362.68
2276.85
2268.13
2050.44
2170.24
1831.08
2073.2
1618.2
1972.15
1392.02
1907.24
1125.31
1913.97
802.477
2031.83
511.524
2073.67
352.509
1744.34
533.203
-676.69
723.944
-2164.12
920.948
-2789.75
1157.29
-3177.26
1433.53
-3408.87
1734.32
-3467.88
2036.27
-3365.12
2316.02
-3161.93
2559.64
-2966.54
2768.42
-2869.26
2957.86
-2873.62
3143.59
-2886.55
3330.4
-2789.49
3509.05
-2492.52
3667.58
-1966.18
3813.74
-1218.36
3914.34
-115.024
3939.81
959.479
3927.23
1538.84
3890.71
1740.67
3825.8
1767.67
3727.67
1730.29
3599.42
1657.68
3451.48
1544.61
3298.45
1381.25
3156.74
1166.17
3040.62
914.713
2959.05
655.396
2911.14
422.152
2894.2
232.536
2919.78
54.3124
2971.68
-25.3567
26.7024
1039.9
445.416
1013.68
373.398
987.363
367.919
957.615
383.001
922.446
406.871
879.842
440.282
827.644
482.346
763.676
534.629
687.858
597.654
604.549
655.614
515.65
704.243
413.427
746.995
276.236
795.748
79.9262
900.347
-93.8757
970.927
-146.882
793.217
-97.1152
218.473
-18.401
-490.914
81.0178
-930.616
200.712
-1256.45
339.787
-1510.01
496.609
-1725.59
669.955
-1920.2
861.193
-2114.86
1073.06
-2326.51
1305.27
-2547.01
1555.97
-2768.97
1822.15
-2979.47
2100.96
-3169.21
2392.03
-3341.12
2695.9
-3495.52
3011.1
-3621.04
3335.48
-3713.8
3664.44
-3761.11
3991.06
-3751.26
4309.2
-3687.19
4611.13
-3560.2
4887.13
-3361.47
5130.47
-3100.87
5337.9
-2774.06
5507.13
-2341.54
5642.14
-1771.67
5732.54
-945.759
5719.6
326.73
5590.82
1623.27
5387.61
2509.31
5147.39
2981.47
4890.29
3183.9
4625.58
3240.01
4357.98
3223.5
4090.48
3172.6
3825.33
3105.76
3564.34
3031.19
3308.87
2952.01
3059.95
2868.83
2818.28
2780.96
2584.24
2688.09
2357.74
2589.18
2136.85
2489.02
1920.38
2386.7
1708.51
2285.07
1495.81
2184.85
1250.67
2152.39
947.919
2216.72
601.818
2377.93
330.595
2344.9
278.996
1795.94
488.094
-885.788
643.787
-2319.81
798.599
-2944.56
987.92
-3366.58
1217.63
-3638.57
1477.24
-3727.5
1745.39
-3633.26
1999.14
-3415.68
2220.9
-3188.3
2403.44
-3051.81
2555.19
-3025.37
2690.49
-3021.85
2821.43
-2920.43
2947.7
-2618.79
3057.88
-2076.36
3167.28
-1327.76
3251.88
-199.624
3288.83
922.533
3312.49
1515.18
3321.07
1732.09
3296.85
1791.89
3228.78
1798.35
3119.52
1766.94
2981.67
1682.47
2832.84
1530.08
2693.2
1305.81
2580.58
1027.34
2506.6
729.37
2467.65
461.103
2459.74
240.446
2509.62
4.4332
2586.49
-102.227
5.85469
1016.45
472.991
993.814
396.033
970.031
391.704
941.694
411.34
906.683
441.886
862.717
484.251
807.351
537.715
738.644
603.338
657.692
678.609
569.521
743.789
472.954
800.813
351.481
868.473
175.89
971.342
-26.4
1102.64
-148.874
1093.41
-170.959
815.307
-122.075
169.606
-55.8428
-557.14
32.0398
-1018.5
140.476
-1364.89
268.666
-1638.19
414.922
-1871.84
578.433
-2083.71
761.021
-2297.45
964.666
-2530.15
1187.27
-2769.61
1425.56
-3007.25
1675.9
-3229.81
1935.57
-3428.89
2205.28
-3610.83
2486.9
-3777.14
2779.85
-3913.99
3083.03
-4016.98
3392.54
-4070.61
3701.66
-4060.38
4004.54
-3990.07
4293.35
-3849.02
4557.53
-3625.64
4789.84
-3333.18
4986.97
-2971.19
5145.5
-2500.07
5269.29
-1895.46
5348.05
-1024.52
5322.67
352.117
5189.16
1756.77
4993.56
2704.92
4770.73
3204.3
4536.43
3418.2
4296.69
3479.75
4054.43
3465.76
3811.82
3415.21
3570.72
3346.86
3332.72
3269.19
3099
3185.72
2870.4
3097.44
2647.38
3003.99
2429.99
2905.47
2217.53
2801.64
2007.37
2699.19
1798.82
2595.24
1591.12
2492.78
1369.36
2406.61
1092.98
2428.77
754.683
2555.02
411.844
2720.77
191.797
2564.94
250.696
1737.04
465.084
-1100.18
587.95
-2442.67
702.86
-3059.47
844.314
-3508.03
1024.4
-3818.66
1238.85
-3941.95
1468.8
-3863.21
1691.75
-3638.63
1888.34
-3384.88
2046.92
-3210.39
2168.79
-3147.25
2260.67
-3113.73
2337.21
-2996.97
2407.33
-2688.91
2461.74
-2130.77
2527.3
-1393.32
2590.35
-262.673
2640.53
872.353
2705.39
1450.32
2762.52
1674.96
2779.79
1774.62
2740.45
1837.69
2647.77
1859.62
2517.26
1812.97
2369.7
1677.64
2229.66
1445.86
2119.52
1137.48
2054.99
793.894
2026.21
489.888
2028.31
238.344
2111.69
-78.9521
2216.87
-207.403
1.9094
991.846
494.51
973.609
414.272
952.535
412.779
925.504
438.372
890.443
476.949
844.723
529.972
785.485
596.955
711.189
677.636
624.327
765.473
529.812
838.306
420.535
910.093
269.271
1019.74
65.7003
1174.92
-107.643
1275.99
-182.052
1167.82
-193.606
826.864
-146.828
122.84
-89.8052
-614.16
-12.5306
-1095.77
84.3649
-1461.78
201.051
-1754.88
336.382
-2007.17
490.39
-2237.72
665.149
-2472.21
861.348
-2726.35
1075.07
-2983.33
1301.92
-3234.1
1537.73
-3465.62
1779.64
-3670.8
2028.97
-3860.15
2288.47
-4036.65
2558.36
-4183.87
2838.98
-4297.6
3127.77
-4359.4
3418.62
-4351.23
3706.25
-4277.7
3982.84
-4125.6
4236.69
-3879.5
4459.94
-3556.43
4649.21
-3160.46
4799.61
-2650.48
4914.29
-2010.14
4981.91
-1092.13
4942.68
391.352
4803.69
1895.76
4615.97
2892.64
4411.02
3409.25
4199.73
3629.5
3984.89
3694.59
3767.81
3682.85
3549.84
3633.18
3332.44
3564.26
3116.93
3484.7
2904.24
3398.41
2694.92
3306.76
2489.17
3209.74
2286.64
3108
2086.01
3002.28
1884.3
2900.89
1681.44
2798.11
1472.25
2701.97
1229.07
2649.79
914.513
2743.33
556.458
2913.08
250.65
3026.58
101.504
2714.09
243.32
1595.23
453.452
-1310.31
549.734
-2538.96
628.572
-3138.31
723.755
-3603.22
852.933
-3947.84
1019.34
-4108.36
1208
-4051.87
1395.77
-3826.39
1560.81
-3549.93
1691.5
-3341.08
1786.3
-3242.04
1843.28
-3170.72
1870.84
-3024.52
1881.61
-2699.68
1871.87
-2121.03
1885.13
-1406.58
1921.74
-299.285
1993.08
801.015
2109.22
1334.18
2221.15
1563.04
2281.84
1713.93
2269.84
1849.69
2190.52
1938.94
2063.3
1940.19
1912.68
1828.26
1768.65
1589.89
1659.3
1246.83
1606.57
846.628
1588.56
507.897
1597.29
229.619
1731.42
-213.087
1891.01
-366.993
18.9773
972.9
514.523
955.851
431.323
935.481
433.151
908.476
465.381
872.622
512.806
824.713
577.883
761.151
660.52
680.677
758.113
587.111
859.042
483.43
941.989
353.285
1040.24
167.772
1205.26
-35.5841
1378.28
-161.687
1402.09
-206.301
1212.43
-214.476
835.044
-171.18
79.5582
-120.246
-665.09
-52.267
-1163.74
33.613
-1547.66
138.549
-1859.81
262.607
-2131.23
406.999
-2382.11
573.676
-2638.88
761.973
-2914.65
966.843
-3188.2
1183.3
-3450.56
1406.58
-3688.9
1633.04
-3897.25
1863.79
-4090.91
2101.76
-4274.62
2347.73
-4429.83
2604.1
-4553.98
2870.47
-4625.76
3141.82
-4622.58
3413.77
-4549.65
3678.59
-4390.41
3923.22
-4124.14
4138.93
-3772.13
4322.31
-3343.84
4466.71
-2794.87
4574.13
-2117.57
4631.24
-1149.24
4577.56
445.037
4433.56
2039.76
4254.94
3071.25
4068.75
3595.44
3880.7
3817.55
3690.54
3884.75
3498.1
3875.29
3304.06
3827.22
3109.48
3758.84
2915.36
3678.81
2722.33
3591.45
2530.65
3498.43
2340.24
3400.16
2150.29
3297.94
1959.05
3193.51
1763.62
3096.33
1563.59
2998.14
1343.85
2921.71
1066.45
2927.2
718.541
3091.23
370.565
3261.05
129.841
3267.31
26.6516
2817.28
236.397
1385.48
447.571
-1521.48
520.325
-2611.71
568.104
-3186.09
621.57
-3656.68
701.175
-4027.44
817.764
-4224.95
962.805
-4196.91
1113.31
-3976.9
1242.49
-3679.11
1338.02
-3436.61
1400.54
-3304.56
1428.84
-3199.02
1411.73
-3007.4
1357.87
-2645.82
1272.95
-2036.12
1222.29
-1355.91
1231.42
-308.415
1343.58
688.854
1527.42
1150.34
1702.85
1387.6
1809.23
1607.56
1822.69
1836.23
1753.36
2008.26
1625.36
2068.19
1465.76
1987.85
1310.49
1745.16
1195.85
1361.47
1158.63
883.846
1153.25
513.28
1206.06
176.805
1428.35
-435.372
1607.56
-546.21
91.68
956.99
532.375
940.484
447.83
919.537
454.1
891.158
493.76
853.263
550.704
802.227
628.92
733.658
729.092
646.44
845.332
544.964
960.519
426.725
1060.23
266.689
1200.28
60.1687
1411.78
-113.926
1552.37
-196.781
1484.95
-227.609
1243.26
-233.381
840.819
-193.37
39.5532
-147.112
-711.345
-86.7205
-1224.13
-10.8109
-1623.57
82.5446
-1953.17
195.009
-2243.69
329.039
-2516.13
486.287
-2796.13
665.25
-3093.61
860.824
-3383.77
1067.88
-3657.61
1280.87
-3901.9
1494.71
-4111.09
1709.29
-4305.49
1926.78
-4492.11
2148.28
-4651.33
2378.85
-4784.55
2620.99
-4867.9
2871.24
-4872.83
3126.58
-4804.99
3379.65
-4643.48
3615.76
-4360.25
3825.02
-3981.38
4004.11
-3522.93
4144.28
-2935.04
4246.06
-2219.35
4293.4
-1196.58
4225.45
512.993
4077.99
2187.21
3910.37
3238.88
3743.97
3761.84
3579.26
3982.26
3413.22
4050.78
3244.51
4044
3073.23
3998.51
2900.07
3932.01
2725.72
3853.15
2550.48
3766.7
2374.38
3674.53
2196.99
3577.55
2017.13
3477.8
1832.96
3377.68
1641.72
3287.57
1440.3
3199.56
1197.45
3164.55
877.977
3246.67
516.174
3453.04
212.524
3564.7
54.281
3425.55
-21.5835
2893.15
258.844
1105.06
442.392
-1705.03
489.89
-2659.21
512.185
-3208.38
530.981
-3675.48
565.628
-4062.09
632.684
-4292
732.156
-4296.38
844.562
-4089.3
937.882
-3772.43
993.558
-3492.28
1013.65
-3324.66
1008.22
-3193.59
944.596
-2943.78
828.986
-2530.21
690.872
-1898.01
550.071
-1215.11
498.761
-257.105
688.691
498.925
963.469
875.564
1214.13
1136.94
1370.93
1450.75
1408.54
1798.62
1341.84
2074.97
1203.61
2206.43
1027.71
2163.75
855.934
1916.94
731.65
1485.75
716.654
898.842
749.932
480.003
897.334
29.403
1013.72
-551.759
958.234
-490.724
322.038
942.078
548.524
925.853
464.057
903.907
476.048
873.492
524.177
832.567
591.632
777.229
684.261
702.581
803.742
607.777
940.139
495.818
1072.48
354.903
1201.15
162.407
1392.78
-40.1886
1614.38
-168.764
1680.95
-222.191
1538.38
-246.962
1268.04
-250.177
844.039
-212.764
2.15147
-170.489
-753.616
-116.307
-1278.31
-48.9562
-1690.91
33.7657
-2035.88
134.538
-2344.46
257.052
-2638.65
402.964
-2942.04
570.727
-3261.37
756.155
-3569.2
954.291
-3855.74
1158.8
-4106.4
1362.74
-4315.03
1563.89
-4506.64
1762.7
-4690.92
1960.01
-4848.64
2163.87
-4988.41
2380.12
-5084.15
2607.3
-5100.01
2844.5
-5042.19
3085.26
-4884.24
3313.05
-4588.04
3516.51
-4184.84
3692.55
-3698.97
3830.02
-3072.5
3927.58
-2316.92
3966.04
-1235.04
3884.76
594.278
3736.32
2335.65
3581.96
3393.24
3436.31
3907.48
3294.71
4123.86
3151.89
4193.6
3005.59
4190.31
2855.47
4148.62
2701.92
4085.56
2545.34
4009.74
2385.71
3926.32
2222.92
3837.32
2056.06
3744.4
1883.85
3650.01
1704.76
3556.77
1515.4
3476.93
1305.82
3409.14
1026.31
3444.06
668.502
3604.49
323.844
3797.69
89.0399
3799.51
5.37417
3509.22
14.4558
2884.06
317.18
802.335
428.811
-1816.66
450.35
-2680.74
452.061
-3210.09
443.983
-3667.4
441.043
-4059.15
462.016
-4312.97
515.102
-4349.47
587.665
-4161.87
646.773
-3831.54
664.173
-3509.68
635.598
-3296.08
577.305
-3135.3
463.868
-2830.34
302.757
-2369.1
185.472
-1780.72
-23.5204
-1006.12
-186.21
-94.415
54.1882
258.527
443.646
486.106
774.834
805.754
973.311
1252.28
1025.17
1746.77
961.535
2138.6
817.722
2350.24
620.443
2361.03
417.853
2119.53
268.142
1635.46
242.443
924.541
421.256
301.19
420.507
30.1515
-201.384
70.133
-954.992
262.884
679.52
927.623
563.586
911.285
480.396
888.051
499.284
855.282
556.948
810.605
636.311
749.686
745.182
667.539
885.891
563.628
1044.05
436.183
1199.93
264.587
1372.75
52.7029
1604.66
-120.806
1787.89
-206.394
1766.54
-243.025
1575.01
-263.957
1288.97
-264.571
844.656
-229.184
-33.2319
-190.358
-792.44
-141.283
-1327.38
-80.9624
-1751.23
-7.65064
-2109.2
81.6412
-2433.75
191.631
-2748.63
324.401
-3074.81
479.066
-3416.03
653.003
-3743.13
841.758
-4044.5
1038.53
-4303.18
1234.72
-4511.21
1425.33
-4697.25
1608.02
-4873.61
1782.71
-5023.33
1960.14
-5165.83
2149.32
-5273.33
2351.13
-5301.81
2567.9
-5258.97
2795.01
-5111.36
3013.99
-4807.02
3211.74
-4382.59
3385.65
-3872.88
3521.75
-3208.6
3616.44
-2411.61
3647.09
-1265.69
3554.17
687.206
3407.92
2481.9
3269.19
3531.97
3144.95
4031.73
3025.86
4242.95
2904.94
4314.52
2779.36
4315.88
2648.5
4279.49
2512.47
4221.59
2371.44
4150.77
2225.17
4072.6
2073.33
3989.16
1914.55
3903.18
1747.89
3816.68
1572.21
3732.45
1381.13
3668.01
1153.73
3636.54
828.896
3768.89
451.745
3981.64
158.152
4091.29
1.50893
3956.15
-22.2964
3533.02
57.4885
2804.28
337.123
522.701
398.677
-1878.21
398.486
-2680.55
382.19
-3193.8
353.278
-3638.49
320.795
-4026.66
301.859
-4294.04
310.112
-4357.72
340.64
-4192.39
365.397
-3856.29
349.809
-3494.09
275.775
-3222.05
147.596
-3007.12
-33.4476
-2649.3
-268.543
-2134
-537.234
-1512.03
-842.654
-700.698
-892.21
-44.8582
-666.205
32.5223
-98.9091
-81.1895
434.714
272.132
709.78
977.21
763.473
1693.07
673.594
2228.48
487.089
2536.74
240.756
2607.36
-24.468
2384.76
-282.129
1893.12
-540.732
1183.14
-736.186
496.644
-1215.04
509.011
-1792.66
647.748
-2266.86
737.082
953.214
909.478
577.607
893.501
496.375
869.659
523.128
835.225
591.384
786.823
684.716
719.233
812.774
627.9
977.226
512.028
1159.93
361.758
1350.2
158.517
1575.99
-49.3316
1812.52
-179.016
1917.57
-233.608
1821.13
-260.967
1602.37
-278.179
1306.19
-276.196
842.678
-242.411
-67.0073
-206.677
-828.17
-162.002
-1372.06
-107.615
-1805.62
-42.3818
-2174.43
36.3465
-2512.48
133.455
-2845.74
251.785
-3193.14
391.622
-3555.87
552.222
-3903.73
730.074
-4222.35
918.659
-4491.76
1108.36
-4700.91
1291
-4879.89
1460.67
-5043.29
1615.79
-5178.45
1768.7
-5318.74
1930.49
-5435.12
2104.57
-5475.9
2297.88
-5452.27
2508.97
-5322.45
2717.76
-5015.8
2909.21
-4574.04
3081.52
-4045.18
3217.48
-3344.56
3310.59
-2504.72
3334.74
-1289.83
3232.57
789.373
3092.16
2622.31
2971.26
3652.87
2868.64
4134.35
2771.04
4340.55
2670.4
4415.16
2563.61
4422.67
2449.89
4393.21
2329.18
4342.3
2201.46
4278.49
2066.33
4207.73
1923.19
4132.3
1770.23
4056.14
1607.52
3979.38
1433.28
3906.69
1234.35
3866.94
978.612
3892.28
611.835
4135.67
246.316
4347.16
28.213
4309.39
-53.3411
4037.7
-22.3984
3502.08
86.1268
2695.75
325.782
283.046
356.31
-1908.74
336.303
-2660.55
301.719
-3159.21
254.533
-3591.3
198.549
-3970.68
146.382
-4241.87
113.579
-4324.92
101.614
-4180.43
90.2225
-3844.9
44.4657
-3448.34
-67.6266
-3109.95
-254.998
-2819.75
-482.916
-2421.38
-732.28
-1884.64
-1022.93
-1221.38
-1282.32
-441.311
-1322.73
-4.44341
-1155.36
-134.844
-734.889
-501.665
-97.9208
-364.835
439.712
439.578
600.718
1532.07
504.135
2325.06
265.818
2775.06
-45.961
2919.14
-356.31
2695.11
-553.808
2090.62
-760.972
1390.31
-1377.24
1112.92
-2054
1185.77
-2506.52
1100.27
-2832.1
1062.66
1180.3
891.61
593.687
873.755
514.231
848.312
548.573
812.266
627.431
760.207
736.777
684.974
888.008
582.414
1079.79
449.765
1292.58
269.568
1530.4
47.896
1797.66
-131.811
1992.22
-219.118
2004.88
-254.622
1856.64
-276.154
1623.91
-289.34
1319.38
-284.737
838.078
-252.27
-99.4718
-219.331
-861.107
-178.59
-1412.8
-129.32
-1854.89
-70.9268
-2232.82
-1.58534
-2581.82
82.9784
-2930.3
186.262
-3296.42
309.862
-3679.47
455.025
-4048.89
619.732
-4387.06
798.67
-4670.7
982.003
-4884.24
1158.32
-5056.21
1318.06
-5203.03
1458.09
-5318.47
1590.18
-5450.83
1725.53
-5570.48
1870.1
-5620.46
2036.29
-5618.46
2227.86
-5514.02
2423.98
-5211.92
2607.71
-4757.77
2778.44
-4215.92
2915.34
-3481.46
3008.14
-2597.52
3027.41
-1309.1
2919.1
897.683
2788.38
2753.04
2687.12
3754.14
2605.86
4215.61
2528.37
4418.04
2446.13
4497.4
2356.05
4512.75
2257.3
4491.96
2149.73
4449.86
2033.2
4395.03
1907.17
4333.76
1770.62
4268.85
1621.64
4205.13
1461.57
4139.45
1285.29
4082.97
1069.82
4082.42
779.231
4182.87
389.403
4525.5
69.7266
4666.83
-65.4477
4444.57
-84.7827
4057.04
-8.29739
3425.6
105.064
2582.39
302.41
85.7008
307.732
-1914.06
267.891
-2620.71
213.783
-3105.11
147.586
-3525.1
70.3269
-3893.42
-10.1797
-4161.36
-79.5864
-4255.51
-131.994
-4128.02
-178.689
-3798.21
-247.992
-3379.03
-376.09
-2981.86
-583.504
-2612.33
-842.085
-2162.8
-1119.5
-1607.23
-1410.69
-930.185
-1633.5
-218.503
-1681.84
43.9007
-1585.59
-231.095
-1393.46
-693.803
-1010.75
-747.544
-433.972
-137.196
78.2826
1019.81
236.818
2166.53
82.4265
2929.45
-196.97
3198.53
-466.577
2964.71
-770.147
2394.19
-1363.38
1983.54
-2106.47
1856.01
-2582.33
1661.63
-2877.57
1395.5
-3126.26
1311.35
1377.69
873.829
611.246
853.566
534.497
825.415
576.726
786.788
666.06
730.112
793.456
645.669
972.454
528.921
1196.54
372.914
1448.58
162.285
1741.03
-55.3414
2015.29
-192.167
2129.05
-247.384
2060.1
-271.417
1880.68
-288.329
1640.82
-297.297
1328.35
-290.108
830.894
-258.839
-130.733
-228.426
-891.515
-191.254
-1449.97
-146.519
-1899.62
-94.0837
-2285.25
-32.9078
-2642.99
40.1797
-3003.39
128.563
-3384.8
235.004
-3785.91
362.796
-4176.69
511.944
-4536.2
679.104
-4837.86
854.883
-5060.02
1025.17
-5226.5
1177.59
-5355.45
1307.87
-5448.74
1424.07
-5567.03
1535.64
-5682.05
1650.36
-5735.18
1785.75
-5753.85
1953.47
-5681.74
2133.33
-5391.79
2306.81
-4931.25
2475.23
-4384.33
2613.84
-3620.07
2707.59
-2691.27
2724.02
-1325.53
2613.21
1008.49
2495.94
2870.3
2415.59
3834.49
2354.94
4276.26
2295.88
4477.1
2230.04
4563.24
2154.58
4588.21
2068.71
4577.83
1972.25
4546.33
1864.99
4502.28
1746.21
4452.54
1614.39
4400.67
1467.96
4351.55
1308.79
4298.62
1124.47
4267.29
883.613
4323.28
561.091
4505.39
179.859
4906.73
-66.3599
4913.05
-126.448
4504.65
-101.351
4031.94
2.14803
3322.1
115.513
2469.03
274.281
-73.0656
256.169
-1895.95
197.264
-2561.8
123.054
-3030.89
35.3725
-3437.42
-63.6268
-3794.42
-166.782
-4058.21
-262.914
-4159.38
-345.176
-4045.76
-418.463
-3724.92
-508.627
-3288.87
-654.859
-2835.62
-876.692
-2390.5
-1144.45
-1895.05
-1428
-1323.67
-1717.17
-641.019
-1932.34
-3.33264
-2071.37
182.935
-2184.9
-117.564
-2238.22
-640.488
-2094.67
-891.086
-1634.82
-597.051
-1055.18
440.171
-659.816
1771.17
-544.209
2813.85
-650.286
3304.61
-948.127
3262.55
-1498.88
2944.94
-2175.54