/*--------------------------------*- C++ -*----------------------------------*\
| =========                 |                                                 |
| \\      /  F ield         | OpenFOAM: The Open Source CFD Toolbox           |
|  \\    /   O peration     | Version:  4.1                                   |
|   \\  /    A nd           | Web:      www.OpenFOAM.org                      |
|    \\/     M anipulation  |                                                 |
\*---------------------------------------------------------------------------*/
FoamFile
{
    version     2.0;
    format      ascii;
    class       volVectorField;
    location    "600";
    object      U;
}
// * * * * * * * * * * * * * * * * * * * * * * * * * * * * * * * * * * * * * //

dimensions      [0 1 -1 0 0 0 0];

internalField   nonuniform List<vector> 
26785
(
(1.6032e-15 0.048288 10.757)
(1.49359e-15 0.040934 9.85017)
(1.56183e-15 0.0381782 9.04905)
(8.15232e-16 0.0364383 8.32319)
(1.05766e-15 0.0349724 7.63386)
(1.07688e-15 0.0338357 6.9781)
(-8.36827e-16 0.0329145 6.35738)
(-1.76384e-15 0.0321568 5.76929)
(-5.42126e-16 0.0318974 5.20688)
(5.35703e-16 0.0322995 4.65721)
(-3.91562e-15 0.0333924 4.10968)
(-3.89585e-15 0.0339512 3.55945)
(-3.85674e-15 0.03108 3.02216)
(-3.36273e-15 0.0225572 2.56203)
(-3.04894e-15 0.0092536 2.27897)
(-2.89518e-15 -0.00299383 2.2073)
(-2.19732e-15 -0.00781226 2.24206)
(-1.24698e-15 -0.0105712 2.2852)
(9.96626e-16 -0.0141651 2.35792)
(2.91861e-15 -0.0186191 2.55918)
(7.72651e-17 -0.0306396 2.98142)
(2.06017e-15 -0.0474975 3.63526)
(3.31582e-15 -0.0642598 4.47231)
(2.8639e-15 -0.0790908 5.44522)
(1.52777e-15 -0.0923346 6.52767)
(8.76982e-18 -0.104329 7.70699)
(7.3603e-16 -0.115446 8.97459)
(9.07939e-16 -0.125683 10.3225)
(1.50152e-15 -0.134912 11.7404)
(1.38514e-15 -0.143162 13.2168)
(1.15844e-15 -0.150412 14.7402)
(1.72691e-15 -0.15637 16.2984)
(2.27073e-15 -0.160831 17.8762)
(1.37965e-15 -0.163321 19.4562)
(2.88432e-15 -0.163455 21.0174)
(1.63438e-15 -0.161364 22.5388)
(2.09601e-15 -0.157027 24.0003)
(2.41774e-15 -0.149945 25.382)
(2.80746e-15 -0.138112 26.6629)
(3.54499e-15 -0.116186 27.7962)
(1.12959e-15 -0.0774773 28.6783)
(3.28845e-15 -0.0217966 29.1675)
(2.93274e-15 0.0432013 29.1319)
(6.32453e-15 0.106584 28.5073)
(5.37712e-15 0.154022 27.3762)
(8.2091e-15 0.18069 25.9335)
(8.37712e-15 0.191334 24.3631)
(9.1805e-15 0.192441 22.78)
(9.58934e-15 0.18879 21.2407)
(9.71595e-15 0.183187 19.7675)
(8.4298e-15 0.177056 18.3656)
(1.00914e-14 0.171017 17.0328)
(9.64062e-15 0.16527 15.7644)
(9.37071e-15 0.159803 14.5557)
(9.08045e-15 0.154514 13.403)
(9.54236e-15 0.14926 12.3038)
(8.25725e-15 0.143919 11.2567)
(5.85343e-15 0.138365 10.2614)
(7.38098e-15 0.132573 9.31851)
(6.46368e-15 0.126433 8.42852)
(5.50178e-15 0.120025 7.59206)
(5.45219e-15 0.11334 6.8116)
(4.70476e-15 0.107075 6.0839)
(-5.14333e-16 0.101415 5.39896)
(-6.01482e-15 0.0940324 4.77199)
(-7.22544e-15 0.0865494 4.19208)
(-9.19252e-15 0.0708964 3.6273)
(-7.85687e-15 0.0140988 3.31253)
(-6.66147e-15 -0.0615853 3.61919)
(-4.82558e-15 -0.133339 4.46265)
(-5.10226e-15 -0.182349 5.58423)
(-5.26564e-15 -0.205943 6.81047)
(-4.64597e-15 -0.210996 8.04222)
(-4.44307e-15 -0.20497 9.22251)
(-4.47872e-15 -0.19455 10.3253)
(-4.21289e-15 -0.18545 11.3545)
(-3.38827e-15 -0.1804 12.3355)
(-3.79471e-15 -0.17736 13.2935)
(-4.15283e-15 -0.169697 14.2314)
(-4.54922e-15 -0.147592 15.1076)
(-5.12742e-15 -0.102709 15.825)
(-5.05457e-15 -0.0371412 16.2579)
(-5.74548e-15 0.0363343 16.2991)
(-5.59633e-15 0.10137 15.9229)
(-4.32456e-15 0.142384 15.2295)
(-4.29303e-15 0.157847 14.3867)
(-3.95613e-15 0.1564 13.5285)
(-3.85223e-15 0.146745 12.7235)
(-3.03287e-15 0.133946 11.9955)
(-2.79235e-15 0.119931 11.3491)
(-2.27592e-15 0.105 10.7848)
(-1.97112e-15 0.0891415 10.3042)
(-1.75668e-15 0.0728054 9.90889)
(-1.57114e-15 0.0570153 9.59657)
(-1.30537e-15 0.0430599 9.35991)
(-9.20123e-16 0.031801 9.18307)
(-8.00651e-16 0.0240496 9.05569)
(-4.39687e-16 0.0190809 8.94387)
(-9.02223e-17 0.018429 8.88104)
(5.17787e-16 0.0196272 8.7283)
(1.75537e-15 0.123378 10.6309)
(1.78723e-15 0.108798 9.77273)
(4.29436e-16 0.10526 9.01561)
(6.11975e-16 0.10337 8.32622)
(3.14032e-16 0.101314 7.66546)
(2.14144e-15 0.0995262 7.03069)
(-4.6802e-16 0.0978885 6.42397)
(2.3135e-15 0.0964147 5.84343)
(2.53522e-15 0.0961803 5.28201)
(-1.82263e-15 0.097635 4.7279)
(-1.91467e-15 0.10083 4.17348)
(-2.60546e-15 0.102464 3.61757)
(-3.19035e-15 0.0952996 3.07778)
(-2.24625e-15 0.0741906 2.60689)
(-2.28898e-15 0.0397699 2.2714)
(-7.33294e-15 0.00646379 2.08538)
(-3.61647e-15 -0.00321123 1.94129)
(3.41599e-15 -0.00622379 1.74793)
(6.03249e-15 -0.025294 1.67452)
(5.61751e-15 -0.0729 2.02016)
(5.28759e-15 -0.135221 2.71363)
(6.66644e-15 -0.188224 3.58901)
(6.61665e-15 -0.228535 4.55844)
(3.79759e-15 -0.261016 5.59259)
(5.31503e-15 -0.290579 6.6885)
(6.01653e-15 -0.318805 7.84966)
(3.4422e-15 -0.34634 9.07737)
(2.73624e-15 -0.372597 10.3695)
(2.83424e-15 -0.39674 11.7192)
(3.08386e-15 -0.418538 13.1167)
(2.94218e-15 -0.43771 14.5519)
(3.52609e-15 -0.453242 16.0131)
(2.16493e-15 -0.464503 17.4857)
(1.44824e-15 -0.470189 18.9533)
(2.51444e-15 -0.469222 20.3969)
(2.24489e-15 -0.461824 21.7972)
(2.42241e-15 -0.447705 23.1346)
(2.30941e-15 -0.426104 24.3891)
(2.13917e-15 -0.393732 25.5447)
(1.81844e-15 -0.338232 26.5772)
(2.39139e-15 -0.239199 27.4268)
(8.12897e-17 -0.0874166 27.9928)
(3.28412e-16 0.105254 28.1284)
(-2.92156e-15 0.305403 27.6829)
(-8.91299e-16 0.458671 26.6801)
(-5.11007e-17 0.544757 25.3121)
(4.11463e-15 0.578175 23.782)
(5.66325e-15 0.580437 22.2214)
(8.3965e-15 0.567519 20.6972)
(5.7131e-15 0.548716 19.237)
(8.72801e-15 0.528642 17.8484)
(7.42203e-15 0.509234 16.5301)
(7.96194e-15 0.491043 15.2776)
(8.41112e-15 0.473961 14.0862)
(6.45195e-15 0.457612 12.952)
(7.65872e-15 0.441497 11.8723)
(6.01331e-15 0.425199 10.8456)
(3.55993e-15 0.408322 9.87157)
(5.64065e-15 0.390779 8.95038)
(8.27134e-15 0.372156 8.08272)
(8.12297e-15 0.352816 7.26919)
(5.19528e-15 0.333081 6.51084)
(1.13247e-15 0.314443 5.80376)
(3.918e-15 0.296061 5.14205)
(5.57788e-15 0.274965 4.5403)
(1.4962e-15 0.26121 3.96264)
(-4.1813e-16 0.215234 3.36526)
(1.86973e-15 -0.00896293 3.07729)
(-5.44484e-15 -0.29517 3.57249)
(-1.04429e-14 -0.491695 4.5305)
(-5.63359e-15 -0.58381 5.62689)
(-2.89985e-15 -0.609684 6.74733)
(-9.1776e-16 -0.599679 7.84511)
(1.85849e-15 -0.57098 8.88799)
(3.37968e-15 -0.537239 9.85808)
(5.39037e-15 -0.511286 10.7609)
(5.6956e-15 -0.499061 11.6228)
(6.02507e-15 -0.494512 12.4716)
(6.86344e-15 -0.481041 13.3169)
(6.09571e-15 -0.433557 14.1372)
(4.7924e-15 -0.323693 14.872)
(3.70704e-15 -0.142415 15.4223)
(1.58024e-15 0.0842377 15.6444)
(-8.10554e-16 0.297314 15.425)
(-1.3544e-15 0.433068 14.8281)
(-1.43253e-15 0.482612 14.0392)
(1.43286e-17 0.475604 13.2163)
(-4.35269e-16 0.442136 12.4408)
(-1.05378e-15 0.399525 11.741)
(-6.43012e-16 0.354319 11.122)
(-3.92237e-16 0.307599 10.583)
(-1.88902e-16 0.259351 10.1238)
(-9.90185e-17 0.210845 9.74473)
(2.25812e-16 0.164967 9.44265)
(2.11313e-16 0.125276 9.21036)
(4.75899e-16 0.0939596 9.03296)
(6.01249e-16 0.0731016 8.90118)
(7.1091e-16 0.0599133 8.78291)
(9.38441e-16 0.0600936 8.7129)
(1.32548e-15 0.0633972 8.54845)
(1.5358e-15 0.200453 10.4048)
(8.54659e-16 0.177695 9.57353)
(2.33372e-15 0.17115 8.84664)
(1.84561e-16 0.167872 8.18932)
(2.21695e-15 0.164827 7.55996)
(4.92916e-15 0.162504 6.9539)
(1.11795e-15 0.160588 6.37162)
(3.54691e-15 0.159108 5.80972)
(1.94218e-15 0.159757 5.25943)
(1.30288e-15 0.162964 4.70887)
(1.72925e-16 0.168532 4.1532)
(-9.47327e-16 0.170939 3.59617)
(-1.64485e-15 0.159145 3.06066)
(-1.56305e-15 0.12728 2.58928)
(8.48329e-16 0.0793976 2.2094)
(-5.91625e-16 0.0396669 1.88708)
(2.52112e-15 0.0349566 1.49533)
(9.39096e-15 0.0234787 1.07873)
(3.03755e-16 -0.0609834 1.18047)
(4.51015e-15 -0.179161 1.86165)
(-9.35469e-16 -0.274115 2.70692)
(3.75707e-15 -0.340381 3.60332)
(6.87649e-15 -0.390142 4.53998)
(6.48675e-15 -0.433413 5.52165)
(6.13462e-15 -0.476183 6.55677)
(5.19523e-15 -0.519146 7.65222)
(2.52029e-15 -0.562207 8.81016)
(3.43128e-15 -0.603742 10.0285)
(4.53171e-15 -0.642008 11.2996)
(4.7862e-15 -0.676469 12.6126)
(5.03998e-15 -0.706576 13.9566)
(3.3137e-15 -0.730602 15.3189)
(3.29679e-15 -0.747614 16.6846)
(2.63967e-15 -0.755617 18.0371)
(2.44383e-15 -0.752956 19.3582)
(2.52873e-15 -0.73993 20.6296)
(2.21987e-15 -0.715766 21.8326)
(2.34769e-15 -0.679632 22.9466)
(2.01229e-15 -0.629025 23.9556)
(1.77066e-15 -0.549468 24.8439)
(1.78031e-15 -0.411649 25.5808)
(1.55667e-15 -0.194252 26.1217)
(1.54281e-15 0.102111 26.3759)
(1.62948e-15 0.438177 26.1573)
(1.79948e-15 0.710946 25.3803)
(2.1037e-15 0.871657 24.1877)
(2.89465e-15 0.939308 22.7822)
(3.95338e-15 0.950108 21.3091)
(5.00088e-15 0.932333 19.8481)
(5.73918e-15 0.902837 18.4364)
(6.19578e-15 0.870177 17.0876)
(6.56999e-15 0.838073 15.8042)
(6.69346e-15 0.807723 14.5843)
(6.57263e-15 0.779095 13.4245)
(6.50067e-15 0.751641 12.3216)
(6.37424e-15 0.724567 11.2734)
(4.25085e-15 0.697202 10.2786)
(3.62197e-15 0.668909 9.3368)
(5.06636e-15 0.639529 8.44821)
(6.86172e-15 0.608337 7.61358)
(8.53595e-15 0.576295 6.83282)
(6.96918e-15 0.543921 6.1053)
(5.53162e-15 0.512608 5.42846)
(6.79831e-15 0.481641 4.79827)
(1.98548e-15 0.452546 4.2194)
(-3.66891e-15 0.439241 3.63569)
(-4.49795e-15 0.358086 3.01477)
(-4.97157e-15 -0.0556827 2.7189)
(-8.41066e-15 -0.530197 3.23067)
(-8.54132e-15 -0.803395 4.08123)
(-4.35977e-15 -0.917071 5.01316)
(-8.1102e-17 -0.948465 5.97803)
(4.73755e-15 -0.933904 6.94139)
(9.0893e-15 -0.89128 7.86411)
(1.19789e-14 -0.83968 8.72051)
(1.35532e-14 -0.800633 9.51306)
(1.49667e-14 -0.78524 10.2701)
(1.6351e-14 -0.784598 11.0218)
(1.69832e-14 -0.774327 11.7771)
(1.64294e-14 -0.720514 12.5165)
(1.46938e-14 -0.581304 13.1996)
(1.16014e-14 -0.328471 13.7839)
(8.74515e-15 0.0254827 14.1889)
(4.59951e-15 0.398492 14.2409)
(2.12572e-15 0.65507 13.88)
(8.59568e-16 0.759433 13.2635)
(3.89733e-16 0.759613 12.5656)
(2.45484e-16 0.709972 11.8839)
(2.2522e-16 0.64276 11.2558)
(8.89136e-16 0.570701 10.6906)
(7.10093e-16 0.496406 10.1891)
(7.43608e-16 0.420016 9.75225)
(7.84312e-16 0.343345 9.38194)
(9.58065e-16 0.270672 9.07828)
(9.71904e-16 0.207453 8.83819)
(8.59558e-16 0.157136 8.6513)
(8.84973e-16 0.123278 8.51128)
(8.5965e-16 0.101102 8.38971)
(8.31186e-16 0.102046 8.31817)
(1.10369e-15 0.105653 8.16135)
(1.49732e-15 0.273926 10.1272)
(1.26371e-15 0.243068 9.32706)
(1.09917e-15 0.23303 8.63174)
(9.80961e-16 0.228158 8.00588)
(2.42672e-15 0.224272 7.40631)
(3.72875e-15 0.22178 6.82704)
(6.44312e-15 0.22011 6.26722)
(4.72266e-15 0.219331 5.72183)
(2.09139e-15 0.221704 5.18018)
(1.73564e-15 0.227394 4.63052)
(8.59057e-16 0.235584 4.07217)
(1.68552e-16 0.238424 3.51606)
(-9.29416e-16 0.222488 2.98697)
(6.1727e-16 0.183947 2.50771)
(6.61207e-15 0.132583 2.06911)
(6.62575e-15 0.099378 1.592)
(8.72629e-15 0.0922246 0.958964)
(4.65477e-15 0.0464467 0.509893)
(1.64489e-15 -0.145738 0.99024)
(-1.86637e-15 -0.304296 1.77355)
(1.16355e-15 -0.40863 2.58499)
(2.55366e-15 -0.483241 3.43087)
(4.44968e-15 -0.543752 4.32196)
(5.58614e-15 -0.599358 5.26055)
(6.1479e-15 -0.655956 6.25228)
(6.55494e-15 -0.713545 7.30305)
(5.95808e-15 -0.771577 8.41464)
(6.76568e-15 -0.827484 9.58443)
(6.94301e-15 -0.878617 10.8036)
(6.67785e-15 -0.924169 12.0598)
(6.25531e-15 -0.963363 13.3411)
(5.90012e-15 -0.993779 14.634)
(6.10979e-15 -1.01429 15.9228)
(4.81512e-15 -1.02229 17.191)
(5.53765e-15 -1.01563 18.4199)
(2.99075e-15 -0.994786 19.5914)
(5.3495e-15 -0.958366 20.687)
(4.70689e-15 -0.905169 21.6854)
(1.93489e-15 -0.833588 22.5701)
(4.87599e-15 -0.729339 23.3285)
(3.74782e-15 -0.560291 23.9419)
(6.07346e-17 -0.298924 24.3979)
(-2.57567e-16 0.0695695 24.6537)
(1.82033e-15 0.52112 24.5372)
(2.7839e-15 0.911704 23.9083)
(3.74022e-15 1.15448 22.863)
(2.6069e-15 1.26528 21.586)
(2.14265e-15 1.29203 20.2188)
(3.23539e-15 1.2748 18.8439)
(4.6397e-15 1.2383 17.5027)
(4.00742e-15 1.19545 16.213)
(6.17315e-15 1.15215 14.981)
(4.64042e-15 1.11054 13.8073)
(4.86914e-15 1.07088 12.6906)
(6.70326e-15 1.03258 11.6289)
(6.07123e-15 0.994657 10.621)
(4.82421e-15 0.956273 9.66607)
(3.57051e-15 0.916594 8.7638)
(5.43146e-15 0.875413 7.91444)
(5.38686e-15 0.831812 7.11865)
(6.54249e-15 0.787596 6.375)
(5.98742e-15 0.743004 5.68195)
(7.75377e-15 0.699343 5.03888)
(8.47282e-15 0.657899 4.43892)
(3.17133e-15 0.62713 3.87459)
(8.07595e-15 0.620725 3.27543)
(1.51267e-15 0.514457 2.61226)
(-1.06684e-14 -0.0932706 2.26612)
(-1.29231e-14 -0.743951 2.76814)
(-9.32894e-15 -1.07886 3.51602)
(-2.58948e-15 -1.21688 4.33082)
(3.69494e-15 -1.26071 5.19768)
(9.5573e-15 -1.2445 6.07766)
(1.25549e-14 -1.18739 6.92372)
(1.42123e-14 -1.11625 7.7044)
(1.59569e-14 -1.06323 8.41968)
(1.86033e-14 -1.0451 9.09925)
(1.96062e-14 -1.04842 9.77514)
(2.10621e-14 -1.03856 10.4551)
(2.0529e-14 -0.975294 11.1146)
(1.93889e-14 -0.816183 11.7116)
(1.78104e-14 -0.528676 12.2278)
(1.42067e-14 -0.103877 12.6517)
(1.02225e-14 0.403051 12.852)
(5.46837e-15 0.788725 12.6815)
(2.72562e-15 0.965345 12.2402)
(1.19818e-15 0.98847 11.6896)
(3.91502e-16 0.935271 11.1264)
(9.49219e-18 0.853891 10.5887)
(3.87465e-16 0.764096 10.0875)
(-8.9108e-17 0.670358 9.62617)
(3.12338e-16 0.572804 9.20914)
(2.44965e-16 0.473293 8.84307)
(3.6524e-18 0.377007 8.5338)
(-2.75584e-16 0.291148 8.28407)
(-4.31608e-16 0.220847 8.08901)
(-1.94077e-16 0.17172 7.94514)
(-2.42301e-17 0.137965 7.82914)
(3.6736e-16 0.137088 7.76494)
(8.51972e-16 0.140562 7.63571)
(1.51459e-15 0.337354 9.82388)
(1.0351e-15 0.300594 9.06146)
(1.70249e-15 0.289391 8.40271)
(1.01929e-15 0.284211 7.81132)
(3.01858e-15 0.280225 7.24249)
(3.5097e-15 0.278124 6.68905)
(3.75395e-15 0.277292 6.14885)
(5.32684e-15 0.277975 5.61503)
(3.78323e-15 0.282895 5.07515)
(2.82198e-15 0.29153 4.51953)
(1.42369e-15 0.302071 3.95462)
(1.90698e-15 0.304736 3.3981)
(2.45945e-15 0.285712 2.87019)
(5.89452e-15 0.245488 2.36942)
(1.30408e-14 0.200421 1.84588)
(5.29858e-15 0.183251 1.19652)
(3.03611e-15 0.156033 0.333141)
(-2.06804e-15 0.0198326 0.151084)
(-2.40947e-15 -0.25324 0.843162)
(1.27453e-15 -0.42478 1.58093)
(3.05425e-15 -0.536971 2.33805)
(4.1127e-15 -0.622277 3.14047)
(6.94474e-15 -0.694056 3.9898)
(8.267e-15 -0.761519 4.88425)
(7.16346e-15 -0.831438 5.82984)
(7.49136e-15 -0.903338 6.83372)
(6.93664e-15 -0.976139 7.89809)
(6.8013e-15 -1.04612 9.01998)
(7.87557e-15 -1.10959 10.1892)
(6.86622e-15 -1.16551 11.3923)
(6.80216e-15 -1.2129 12.6171)
(6.79781e-15 -1.24865 13.85)
(7.3184e-15 -1.27149 15.0752)
(6.28014e-15 -1.27819 16.2761)
(7.72573e-15 -1.26608 17.4338)
(6.68246e-15 -1.23585 18.5297)
(6.1908e-15 -1.18549 19.545)
(5.62619e-15 -1.11349 20.4577)
(5.21718e-15 -1.01956 21.251)
(4.46116e-15 -0.890406 21.9139)
(3.99341e-15 -0.692849 22.4328)
(2.79281e-15 -0.395871 22.8117)
(4.35382e-15 0.0301966 23.0427)
(3.53323e-15 0.581245 22.9713)
(2.99256e-15 1.08104 22.4299)
(2.8934e-15 1.40356 21.4892)
(3.40531e-15 1.55899 20.3201)
(3.66766e-15 1.6049 19.0549)
(3.60252e-15 1.59178 17.7716)
(5.21599e-15 1.55149 16.5107)
(4.22294e-15 1.50108 15.2913)
(5.10372e-15 1.44857 14.1215)
(5.24406e-15 1.3971 13.0041)
(6.16334e-15 1.34735 11.9393)
(5.84676e-15 1.29884 10.9268)
(6.4364e-15 1.25047 9.96616)
(6.98498e-15 1.20137 9.05706)
(6.63821e-15 1.15055 8.19947)
(5.05033e-15 1.09786 7.39364)
(3.40316e-15 1.04237 6.63966)
(4.59041e-15 0.986795 5.93441)
(3.92109e-15 0.930597 5.27634)
(8.28973e-15 0.875852 4.66628)
(9.39221e-15 0.827375 4.09049)
(9.2371e-15 0.802818 3.52773)
(1.00186e-14 0.812379 2.88927)
(3.36415e-16 0.689121 2.16742)
(-1.44752e-14 -0.135328 1.82379)
(-1.33549e-14 -0.945868 2.34327)
(-7.93279e-15 -1.3238 2.99876)
(-2.1831e-16 -1.48608 3.71696)
(4.74859e-15 -1.54667 4.50326)
(9.40458e-15 -1.53208 5.31507)
(1.20959e-14 -1.46209 6.10086)
(1.3861e-14 -1.37132 6.82191)
(1.53786e-14 -1.30345 7.4705)
(1.74142e-14 -1.28227 8.07384)
(1.82576e-14 -1.29037 8.66814)
(1.95827e-14 -1.28155 9.26942)
(1.83172e-14 -1.20718 9.8581)
(1.8188e-14 -1.02567 10.3851)
(1.99919e-14 -0.70913 10.8278)
(1.77094e-14 -0.240169 11.2117)
(1.50178e-14 0.363777 11.4598)
(1.05845e-14 0.862431 11.405)
(5.97807e-15 1.11002 11.1001)
(3.16402e-15 1.16236 10.684)
(1.49584e-15 1.11521 10.2381)
(6.91435e-16 1.03033 9.79253)
(-3.14067e-16 0.93307 9.35613)
(-2.78645e-16 0.828812 8.93477)
(-5.64753e-16 0.717096 8.53783)
(-5.05022e-16 0.599493 8.17802)
(-8.99975e-16 0.482019 7.86733)
(-1.10743e-15 0.373776 7.61387)
(-1.24894e-15 0.28212 7.41764)
(-9.70437e-16 0.215015 7.27701)
(-7.19182e-16 0.166538 7.17515)
(-5.72603e-16 0.160163 7.12561)
(2.31888e-16 0.164053 7.03631)
(1.3826e-15 0.405863 9.43439)
(2.35953e-15 0.356522 8.7388)
(2.38576e-15 0.341966 8.13937)
(2.72989e-15 0.336112 7.59762)
(3.23321e-15 0.33244 7.06838)
(2.69314e-15 0.331464 6.54485)
(2.61087e-15 0.332399 6.02458)
(6.14736e-15 0.335651 5.49932)
(7.27042e-15 0.344116 4.95564)
(5.03706e-15 0.356002 4.38837)
(1.1094e-15 0.368393 3.81352)
(3.78489e-15 0.370584 3.25341)
(5.98558e-15 0.35014 2.71615)
(1.01047e-14 0.313835 2.16944)
(1.46757e-14 0.287197 1.53355)
(7.04102e-15 0.284153 0.676479)
(2.09623e-15 0.22441 -0.342325)
(5.36817e-15 -0.0803677 0.0408991)
(-4.85235e-15 -0.361984 0.677459)
(9.57467e-16 -0.537708 1.34536)
(2.44088e-15 -0.65966 2.05595)
(3.1963e-15 -0.755849 2.81597)
(7.21593e-15 -0.838404 3.6215)
(9.42244e-15 -0.917377 4.46957)
(7.9514e-15 -1.00056 5.36753)
(7.08022e-15 -1.08683 6.32359)
(6.78482e-15 -1.17443 7.33968)
(6.1773e-15 -1.25831 8.41186)
(6.70278e-15 -1.33373 9.52846)
(5.93149e-15 -1.39955 10.6753)
(6.12378e-15 -1.45472 11.8416)
(7.80476e-15 -1.49538 13.0149)
(7.832e-15 -1.52017 14.1799)
(8.79687e-15 -1.52511 15.3211)
(8.64624e-15 -1.50688 16.4186)
(8.08321e-15 -1.46649 17.4534)
(8.02325e-15 -1.40122 18.4063)
(7.94747e-15 -1.30914 19.2542)
(7.91273e-15 -1.19142 19.9796)
(6.75588e-15 -1.03645 20.5727)
(8.38282e-15 -0.811766 21.021)
(1.125e-14 -0.485612 21.3371)
(7.51454e-15 -0.01396 21.5385)
(8.49351e-15 0.625406 21.486)
(6.55258e-15 1.2276 20.996)
(4.98852e-15 1.62587 20.128)
(4.17708e-15 1.82444 19.0464)
(4.28768e-15 1.89005 17.8741)
(4.4968e-15 1.88285 16.6812)
(4.7613e-15 1.84106 15.5041)
(4.91526e-15 1.78528 14.3608)
(5.15715e-15 1.72543 13.2601)
(5.64742e-15 1.6656 12.2059)
(5.82316e-15 1.60689 11.1998)
(5.42878e-15 1.54899 10.2425)
(5.97578e-15 1.49083 9.33449)
(6.19127e-15 1.43157 8.47573)
(6.46138e-15 1.37011 7.66637)
(4.6388e-15 1.30656 6.90648)
(2.61824e-15 1.24017 6.19494)
(2.04546e-15 1.17442 5.52696)
(3.24358e-15 1.10755 4.90203)
(7.68538e-15 1.04409 4.32112)
(9.76553e-15 0.994194 3.75834)
(1.17667e-14 0.986917 3.17521)
(3.18051e-16 1.0178 2.46767)
(-1.27387e-14 0.872534 1.70498)
(-1.75113e-14 -0.200302 1.46202)
(-1.01545e-14 -1.13485 1.99727)
(-7.65253e-15 -1.53965 2.56016)
(9.40115e-16 -1.72915 3.18966)
(3.3072e-15 -1.81119 3.8989)
(5.11435e-15 -1.80171 4.64618)
(7.39135e-15 -1.72005 5.37891)
(9.71994e-15 -1.60738 6.0497)
(1.37111e-14 -1.5197 6.63807)
(1.5489e-14 -1.49092 7.16312)
(1.58327e-14 -1.50297 7.66385)
(1.77385e-14 -1.49844 8.17039)
(1.88092e-14 -1.41745 8.67896)
(1.9308e-14 -1.21642 9.1403)
(1.80455e-14 -0.874871 9.51916)
(1.43516e-14 -0.376685 9.85438)
(9.69336e-15 0.299638 10.1077)
(9.1806e-15 0.893939 10.1181)
(7.79995e-15 1.20424 9.91266)
(4.32548e-15 1.28635 9.61094)
(2.85295e-15 1.25193 9.27298)
(1.89246e-15 1.17306 8.91499)
(1.28105e-15 1.07802 8.54123)
(9.75243e-17 0.971529 8.15946)
(2.22576e-17 0.851837 7.78434)
(7.2855e-17 0.720033 7.43485)
(-2.9727e-16 0.583095 7.12888)
(-4.18936e-16 0.452272 6.87906)
(-3.13097e-16 0.337805 6.68934)
(-5.09109e-16 0.250071 6.55863)
(-5.66669e-16 0.18365 6.47787)
(-2.9228e-16 0.168414 6.44931)
(5.89901e-16 0.175256 6.40622)
(1.49171e-15 0.459191 9.13657)
(1.64109e-15 0.40363 8.4736)
(1.02225e-15 0.388116 7.91067)
(2.75836e-15 0.382934 7.40437)
(3.2509e-15 0.380655 6.90566)
(2.68348e-15 0.381835 6.40548)
(1.89399e-15 0.385669 5.89943)
(4.49754e-15 0.392775 5.37702)
(5.96851e-15 0.405845 4.82404)
(3.18455e-15 0.421177 4.24117)
(1.9124e-15 0.434881 3.65451)
(5.6397e-15 0.436981 3.0864)
(7.65812e-15 0.4182 2.52174)
(1.14187e-14 0.393447 1.90066)
(1.34453e-14 0.394042 1.10189)
(-8.57302e-15 0.406002 -0.0426171)
(1.82419e-15 0.227637 -0.605171)
(-6.62599e-15 -0.178656 -0.0713092)
(-6.71779e-15 -0.457927 0.474943)
(2.0622e-16 -0.643371 1.08958)
(3.17754e-15 -0.776801 1.75672)
(3.20359e-15 -0.884 2.47494)
(6.64658e-15 -0.977108 3.23835)
(7.41241e-15 -1.06731 4.04256)
(6.27655e-15 -1.16359 4.896)
(6.24768e-15 -1.26404 5.80725)
(5.04503e-15 -1.3661 6.77656)
(3.42026e-15 -1.46333 7.79808)
(4.32106e-15 -1.55002 8.85867)
(4.98722e-15 -1.62526 9.94473)
(4.69583e-15 -1.6881 11.0484)
(5.98419e-15 -1.73381 12.1597)
(7.40089e-15 -1.76086 13.2654)
(8.8204e-15 -1.76431 14.3506)
(1.03403e-14 -1.74004 15.395)
(1.0963e-14 -1.68943 16.3788)
(1.18359e-14 -1.60897 17.2822)
(1.18717e-14 -1.49625 18.0805)
(1.22542e-14 -1.35413 18.7556)
(1.1465e-14 -1.1728 19.2979)
(1.32155e-14 -0.921126 19.6943)
(1.15902e-14 -0.568558 19.9608)
(1.46307e-14 -0.05834 20.1329)
(1.01823e-14 0.661359 20.0834)
(7.40904e-15 1.35932 19.6203)
(5.2312e-15 1.82762 18.8032)
(4.57143e-15 2.06554 17.7943)
(2.7839e-15 2.14946 16.7069)
(2.8714e-15 2.14861 15.6016)
(1.26572e-15 2.1067 14.5092)
(8.66332e-16 2.04726 13.4452)
(1.84777e-15 1.9817 12.4178)
(4.42317e-15 1.91492 11.4316)
(4.67079e-15 1.84843 10.489)
(4.75676e-15 1.78212 9.59139)
(4.62547e-15 1.71501 8.73976)
(4.66654e-15 1.64638 7.93423)
(4.88365e-15 1.57509 7.17498)
(5.45652e-15 1.50177 6.46145)
(2.89706e-15 1.42595 5.79071)
(1.76001e-15 1.35151 5.15676)
(2.43612e-15 1.27526 4.56155)
(5.04442e-15 1.20726 4.00259)
(1.20034e-14 1.1647 3.43383)
(1.04418e-14 1.18711 2.80069)
(5.61026e-15 1.23124 2.00641)
(-2.04525e-14 1.04339 1.26702)
(-2.09641e-14 -0.292079 1.20678)
(-1.15182e-14 -1.30511 1.73021)
(-8.01591e-15 -1.72568 2.19939)
(-2.71894e-15 -1.94473 2.73952)
(-1.80616e-15 -2.05207 3.3657)
(-3.35573e-16 -2.05235 4.04324)
(2.71738e-15 -1.96242 4.72185)
(6.58541e-15 -1.82724 5.34812)
(1.14481e-14 -1.7144 5.88845)
(1.40613e-14 -1.67069 6.34767)
(1.58411e-14 -1.68231 6.75871)
(1.83497e-14 -1.68374 7.16283)
(2.02493e-14 -1.60219 7.57779)
(2.19621e-14 -1.38725 7.9627)
(2.20182e-14 -1.02434 8.2726)
(1.79771e-14 -0.505781 8.55332)
(9.97106e-15 0.224744 8.79323)
(6.20392e-15 0.89752 8.84085)
(3.71821e-15 1.25811 8.7102)
(2.6562e-15 1.36643 8.50783)
(2.07104e-15 1.34879 8.26962)
(9.7263e-16 1.28396 7.99468)
(1.0268e-15 1.19979 7.68096)
(3.79705e-16 1.09837 7.33782)
(9.01573e-16 0.97595 6.98538)
(9.81837e-16 0.833025 6.64896)
(3.67809e-16 0.677805 6.35214)
(-2.21852e-17 0.524085 6.11164)
(-4.0693e-16 0.38585 5.93476)
(-5.47375e-16 0.275478 5.81935)
(-3.52225e-16 0.187509 5.76544)
(1.47658e-16 0.160336 5.76526)
(8.14621e-16 0.174279 5.77063)
(1.98377e-15 0.512061 8.87801)
(1.93899e-15 0.45009 8.25615)
(1.66093e-15 0.432487 7.72614)
(2.47144e-15 0.427604 7.24601)
(3.49421e-15 0.426879 6.76699)
(2.84733e-15 0.430693 6.27954)
(2.74543e-15 0.438189 5.77776)
(3.45197e-15 0.450131 5.24928)
(2.1746e-15 0.468557 4.68023)
(2.37424e-15 0.487224 4.07858)
(3.42961e-15 0.501868 3.47902)
(4.9888e-15 0.505398 2.89378)
(8.49543e-15 0.492577 2.27993)
(1.20039e-14 0.490764 1.54363)
(9.59454e-15 0.525049 0.455774)
(-8.41996e-15 0.494973 -0.580513)
(-1.55778e-15 0.20865 -0.6647)
(-1.2012e-14 -0.255621 -0.222503)
(-9.22533e-15 -0.545673 0.258941)
(1.37638e-15 -0.74342 0.824033)
(2.26843e-15 -0.888707 1.44818)
(1.93344e-15 -1.00704 2.12643)
(3.8232e-15 -1.11053 2.85046)
(1.07163e-15 -1.21173 3.61453)
(2.96517e-15 -1.32093 4.42875)
(3.57541e-15 -1.43515 5.30059)
(2.50082e-15 -1.55086 6.22644)
(2.83034e-16 -1.66034 7.19742)
(1.41321e-15 -1.75723 8.19913)
(2.42902e-15 -1.84133 9.21985)
(2.52097e-15 -1.91195 10.2565)
(3.66658e-15 -1.96328 11.3032)
(5.5937e-15 -1.99351 12.3489)
(7.45636e-15 -1.99637 13.3801)
(9.80079e-15 -1.9667 14.3757)
(1.043e-14 -1.90636 15.3152)
(1.24178e-14 -1.81095 16.1785)
(1.40035e-14 -1.67739 16.9387)
(1.55615e-14 -1.51048 17.5765)
(1.60079e-14 -1.30243 18.0827)
(1.76551e-14 -1.02364 18.442)
(1.81221e-14 -0.646458 18.6706)
(2.04078e-14 -0.102298 18.8161)
(1.44373e-14 0.692788 18.7587)
(9.84086e-15 1.48089 18.3048)
(6.41059e-15 2.01275 17.5234)
(5.00073e-15 2.28502 16.5776)
(4.53558e-15 2.38475 15.5699)
(2.5384e-15 2.38981 14.5502)
(1.52291e-15 2.34856 13.5426)
(2.44877e-15 2.28675 12.5594)
(2.06984e-15 2.2169 11.6079)
(3.06084e-15 2.14449 10.6927)
(3.51022e-15 2.07141 9.81672)
(3.96842e-15 1.99776 8.98158)
(4.15841e-15 1.92274 8.18843)
(2.79837e-15 1.84579 7.43722)
(3.95183e-15 1.7658 6.72808)
(5.59631e-15 1.68429 6.05918)
(4.67602e-15 1.60099 5.42541)
(4.69555e-15 1.51948 4.82102)
(2.49863e-15 1.43581 4.25114)
(2.93391e-15 1.37027 3.70113)
(1.11511e-14 1.34701 3.09811)
(1.10762e-14 1.408 2.38624)
(9.907e-15 1.44105 1.51754)
(-5.53125e-15 1.24355 0.877516)
(-2.09606e-14 -0.396335 1.05237)
(-1.47066e-14 -1.45137 1.53396)
(-1.18739e-14 -1.88134 1.91078)
(-9.26498e-15 -2.13089 2.35743)
(-7.28755e-15 -2.26671 2.89122)
(-4.36329e-15 -2.28214 3.48915)
(-9.26668e-16 -2.18939 4.10512)
(3.59843e-15 -2.03444 4.68475)
(9.82339e-15 -1.89375 5.1869)
(1.31989e-14 -1.82722 5.59898)
(1.599e-14 -1.83037 5.93653)
(1.77523e-14 -1.83467 6.24306)
(1.98582e-14 -1.75586 6.55719)
(2.27037e-14 -1.53288 6.85302)
(2.6137e-14 -1.15426 7.08054)
(2.50096e-14 -0.624138 7.29456)
(1.74021e-14 0.144766 7.50815)
(7.84403e-15 0.880189 7.57668)
(3.57047e-15 1.27717 7.5077)
(1.21686e-15 1.40621 7.39771)
(5.5415e-16 1.40821 7.25545)
(4.44743e-16 1.36477 7.0607)
(-3.91541e-16 1.29963 6.80433)
(2.94659e-16 1.2101 6.4976)
(1.25419e-15 1.08964 6.16663)
(6.21942e-16 0.937949 5.84351)
(1.30357e-16 0.764706 5.55776)
(-1.98392e-17 0.586688 5.3302)
(3.36529e-16 0.42315 5.17094)
(4.06014e-16 0.288185 5.07443)
(5.76115e-16 0.174009 5.05162)
(8.0879e-16 0.133083 5.09051)
(1.026e-15 0.16364 5.14303)
(1.3523e-15 0.561344 8.6438)
(2.56672e-15 0.493832 8.06554)
(2.1615e-15 0.474583 7.56877)
(3.75393e-15 0.470517 7.11173)
(5.61368e-15 0.47192 6.64677)
(3.64864e-15 0.479028 6.16468)
(4.17418e-15 0.490975 5.65852)
(3.73922e-15 0.508569 5.11501)
(2.60895e-15 0.532708 4.523)
(2.22037e-15 0.554262 3.89991)
(3.59943e-15 0.57006 3.28436)
(4.01646e-15 0.577394 2.66766)
(8.02891e-15 0.57868 1.97141)
(9.2071e-15 0.610158 1.02995)
(6.29657e-15 0.653876 -0.221123)
(2.1531e-15 0.54328 -0.815725)
(-5.61526e-15 0.201853 -0.758584)
(-1.27259e-14 -0.321886 -0.374411)
(-7.31813e-15 -0.626222 0.0465417)
(-8.35615e-16 -0.837385 0.559407)
(-9.83555e-16 -0.99528 1.14039)
(-1.10424e-15 -1.12509 1.77893)
(1.265e-15 -1.239 2.46463)
(-2.80625e-15 -1.35128 3.19245)
(-1.70926e-15 -1.47342 3.97424)
(3.63431e-16 -1.60076 4.81368)
(-7.69215e-16 -1.72878 5.70051)
(-1.54688e-15 -1.84879 6.62228)
(-6.595e-16 -1.95433 7.56376)
(4.60038e-16 -2.04655 8.51621)
(1.43843e-15 -2.12517 9.48282)
(1.54204e-15 -2.18297 10.4621)
(3.99479e-15 -2.21766 11.4456)
(4.95793e-15 -2.2213 12.4223)
(7.0792e-15 -2.18739 13.3705)
(7.73323e-15 -2.11838 14.2692)
(1.13673e-14 -2.0088 15.0983)
(1.44698e-14 -1.85469 15.8285)
(1.65849e-14 -1.66302 16.4388)
(1.77007e-14 -1.42815 16.9202)
(1.91484e-14 -1.12177 17.2543)
(1.85076e-14 -0.720439 17.455)
(2.04306e-14 -0.144481 17.5778)
(1.40475e-14 0.72331 17.5048)
(1.01079e-14 1.59599 17.0468)
(6.86039e-15 2.18395 16.2916)
(5.17396e-15 2.48464 15.4036)
(4.69463e-15 2.59704 14.4729)
(4.20299e-15 2.60714 13.5375)
(3.40105e-15 2.56698 12.6144)
(2.83875e-15 2.50383 11.7127)
(2.75031e-15 2.43091 10.8384)
(2.52248e-15 2.35413 9.99579)
(2.80617e-15 2.27566 9.18777)
(3.26051e-15 2.19587 8.41601)
(3.87074e-15 2.11416 7.68149)
(2.02734e-15 2.03018 6.98381)
(3.00562e-15 1.94302 6.32279)
(3.83238e-15 1.85538 5.69467)
(5.00527e-15 1.76676 5.09252)
(4.11184e-15 1.67982 4.51305)
(2.43345e-15 1.59232 3.96213)
(1.92131e-15 1.5402 3.39842)
(1.0091e-14 1.54915 2.72738)
(9.54611e-15 1.64657 1.92683)
(5.32041e-15 1.64136 1.04029)
(-4.48232e-16 1.39517 0.560814)
(-1.87694e-14 -0.527946 0.985287)
(-1.36347e-14 -1.57009 1.39935)
(-1.51963e-14 -2.00579 1.68911)
(-1.20386e-14 -2.28477 2.03916)
(-1.09457e-14 -2.45113 2.47195)
(-7.48536e-15 -2.48684 2.97969)
(-2.97854e-15 -2.39757 3.52172)
(3.10735e-15 -2.22868 4.04559)
(6.22692e-15 -2.06196 4.50909)
(1.01878e-14 -1.96756 4.8852)
(1.31304e-14 -1.95289 5.16811)
(1.4681e-14 -1.95182 5.3916)
(1.81299e-14 -1.87433 5.60584)
(2.02685e-14 -1.64777 5.80432)
(2.62424e-14 -1.2574 5.93467)
(2.73002e-14 -0.726692 6.06651)
(1.9354e-14 0.0643297 6.24242)
(1.13953e-14 0.845659 6.32286)
(6.92244e-15 1.26329 6.31218)
(2.58115e-15 1.40685 6.29568)
(8.72638e-16 1.43141 6.25028)
(3.4245e-16 1.41697 6.13466)
(1.75916e-16 1.37883 5.93256)
(2.8083e-16 1.30751 5.65831)
(1.06596e-15 1.19336 5.34516)
(1.15555e-15 1.03502 5.03276)
(1.11451e-15 0.843779 4.75719)
(1.30512e-15 0.639937 4.54406)
(9.99081e-16 0.450348 4.40634)
(1.3288e-15 0.289356 4.33097)
(1.49663e-15 0.140936 4.34592)
(1.81042e-15 0.0858326 4.43806)
(1.45838e-15 0.149275 4.52999)
(1.82569e-15 0.603121 8.43475)
(2.03413e-15 0.53233 7.8974)
(2.24042e-15 0.513548 7.43054)
(3.27847e-15 0.511663 6.99262)
(4.1141e-15 0.516178 6.53725)
(3.48212e-15 0.527485 6.05523)
(5.35196e-15 0.544812 5.53784)
(3.67379e-15 0.568799 4.97151)
(3.30117e-15 0.59866 4.35056)
(4.07222e-15 0.622596 3.70306)
(4.73927e-15 0.640371 3.06475)
(5.21715e-15 0.656552 2.39367)
(7.68086e-15 0.683305 1.54895)
(9.91838e-15 0.743032 0.354716)
(3.2155e-15 0.747259 -0.672562)
(7.09222e-16 0.570161 -0.93406)
(-9.42764e-15 0.199256 -0.881025)
(-1.3935e-14 -0.378896 -0.522213)
(-8.5475e-15 -0.698879 -0.153012)
(-2.79096e-15 -0.924774 0.306399)
(-4.34935e-15 -1.09609 0.842049)
(-3.41176e-15 -1.23785 1.43873)
(-1.29952e-15 -1.36268 2.08585)
(-4.81319e-15 -1.48673 2.78156)
(-4.22787e-15 -1.62207 3.53778)
(-3.61247e-15 -1.76165 4.35093)
(-4.36487e-15 -1.90015 5.20282)
(-2.36512e-15 -2.02848 6.07794)
(-1.06077e-15 -2.14071 6.96055)
(-8.79445e-16 -2.24004 7.84488)
(-6.75725e-16 -2.32674 8.74047)
(-3.19368e-16 -2.39182 9.64992)
(6.74106e-17 -2.4324 10.5678)
(1.40136e-15 -2.43851 11.4867)
(4.11931e-15 -2.40197 12.3856)
(5.8443e-15 -2.32588 13.244)
(1.01704e-14 -2.20349 14.0421)
(1.19071e-14 -2.02952 14.7479)