/*--------------------------------*- C++ -*----------------------------------*\
| =========                 |                                                 |
| \\      /  F ield         | OpenFOAM: The Open Source CFD Toolbox           |
|  \\    /   O peration     | Version:  4.1                                   |
|   \\  /    A nd           | Web:      www.OpenFOAM.org                      |
|    \\/     M anipulation  |                                                 |
\*---------------------------------------------------------------------------*/
FoamFile
{
    version     2.0;
    format      ascii;
    class       volScalarField;
    location    "800";
    object      p;
}
// * * * * * * * * * * * * * * * * * * * * * * * * * * * * * * * * * * * * * //

dimensions      [0 2 -2 0 0 0 0];

internalField   nonuniform List<scalar> 
26785
(
46.7062
52.8062
57.1655
60.8511
64.5034
67.9531
71.2836
74.1374
76.224
77.4991
77.4827
76.4744
74.4582
71.2972
66.941
61.4383
54.9176
47.5631
39.5849
31.181
22.499
13.622
4.5937
-4.52504
-13.5997
-22.4008
-30.6296
-37.9676
-44.1338
-48.943
-52.3653
-54.5667
-55.8962
-56.8252
-57.8253
-59.2046
-61.0447
-63.0625
-64.3617
-63.9446
-61.2125
-55.9683
-48.9703
-41.3444
-33.9118
-27.0959
-21.0461
-15.7611
-11.1705
-7.17962
-3.69196
-0.618941
2.11624
4.57768
6.81712
8.87482
10.7806
12.5553
14.2119
15.7579
17.1974
18.534
19.773
20.9239
22.0009
23.0214
24.0032
24.961
25.903
26.8301
27.7367
28.6119
29.4423
30.2132
30.9099
31.5182
32.0242
32.4143
32.6748
32.7916
32.7533
32.5402
32.1294
31.4921
30.5811
29.3142
27.5608
25.1383
21.8228
17.3869
11.6972
4.91333
-2.23414
-8.35133
-11.9404
-12.6685
-11.1077
-8.35107
-4.54905
-2.08079
46.7317
52.8095
57.1594
60.8445
64.4966
67.9463
71.2819
74.1448
76.2349
77.5161
77.4964
76.4854
74.4642
71.2947
66.9289
61.417
54.8884
47.5276
39.5451
31.139
22.4568
13.5805
4.55237
-4.56796
-13.6464
-22.4529
-30.6876
-38.0304
-44.1987
-49.0055
-52.4194
-54.6063
-55.9175
-56.8283
-57.8167
-59.1966
-61.0536
-63.109
-64.4527
-64.0678
-61.3663
-56.1217
-49.0971
-41.4405
-33.9835
-27.151
-21.0907
-15.7996
-11.2056
-7.2131
-3.72474
-0.651521
2.08369
4.54523
6.78502
8.84344
10.7504
12.5266
14.1852
15.7334
17.1752
18.5138
19.7544
20.9064
21.9837
23.004
23.9855
24.9429
25.885
26.8126
27.7204
28.5975
29.4308
30.2053
30.9064
31.5197
32.0311
32.4263
32.6914
32.8113
32.7754
32.5633
32.1528
31.5163
30.6078
29.3455
27.5973
25.1775
21.8566
17.3968
11.6482
4.75304
-2.54952
-8.78686
-12.3694
-13.0234
-11.3744
-8.52624
-4.63707
-2.09461
46.7548
52.809
57.1435
60.8289
64.4816
67.9313
71.2768
74.1584
76.2545
77.5483
77.5211
76.5013
74.4669
71.2803
66.8953
61.3647
54.8203
47.448
39.4588
31.0507
22.3703
13.4973
4.47116
-4.65099
-13.7359
-22.5521
-30.7974
-38.1493
-44.3216
-49.1238
-52.5218
-54.6815
-55.958
-56.8341
-57.7985
-59.1745
-61.053
-63.1734
-64.6271
-64.3403
-61.715
-56.4659
-49.3783
-41.6512
-34.1394
-27.2701
-21.187
-15.8823
-11.2806
-7.28384
-3.79334
-0.719067
2.01675
4.47895
6.71979
8.77988
10.6893
12.4687
14.1313
15.6839
17.1302
18.473
19.7169
20.8708
21.9489
22.969
23.9497
24.9066
25.8487
26.7774
27.6874
28.5684
29.407
30.1884
30.898
31.5208
32.0424
32.4476
32.7213
32.847
32.8157
32.6055
32.1954
31.5603
30.6568
29.4031
27.6645
25.2488
21.9172
17.4135
11.5531
4.43944
-3.17612
-9.65531
-13.2194
-13.7227
-11.8964
-8.86515
-4.81322
-2.11113
46.7787
52.8139
57.124
60.8075
64.4599
67.9083
71.267
74.1759
76.2801
77.5926
77.5531
76.5162
74.4582
71.2426
66.8285
61.2739
54.7123
47.329
39.3347
30.9267
22.2508
13.3838
4.36138
-4.76276
-13.8562
-22.6858
-30.9461
-38.3107
-44.4891
-49.2859
-52.6627
-54.7853
-56.0136
-56.84
-57.7677
-59.1326
-61.0307
-63.2217
-64.8052
-64.6405
-62.1327
-56.9069
-49.7591
-41.9521
-34.3733
-27.4563
-21.3416
-16.0166
-11.402
-7.39708
-3.90145
-0.823813
1.91452
4.37903
6.62248
8.68588
10.5995
12.3842
14.0528
15.6122
17.0652
18.414
19.6626
20.8195
21.8984
22.9179
23.8974
24.8532
25.7952
26.7254
27.6388
28.5251
29.3712
30.1625
30.8839
31.5202
32.0562
32.4754
32.7613
32.8951
32.8699
32.6624
32.2526
31.6195
30.7232
29.4813
27.7549
25.3462
22.0055
17.4491
11.4377
4.01036
-4.06994
-10.9022
-14.4242
-14.7187
-12.6508
-9.35724
-5.08168
-2.12346
46.7971
52.8158
57.0974
60.7789
64.4307
67.8767
71.2508
74.1946
76.3094
77.6468
77.586
76.5189
74.4257
71.1744
66.73
61.1524
54.5743
47.1804
39.181
30.7741
22.1043
13.2453
4.22807
-4.89793
-14.0015
-22.8474
-31.126
-38.5067
-44.6935
-49.4847
-52.8366
-54.9143
-56.0831
-56.8468
-57.7257
-59.0702
-60.9821
-63.2463
-64.9813
-64.9671
-62.6073
-57.4221
-50.2144
-42.3219
-34.6698
-27.6995
-21.5483
-16.1987
-11.5675
-7.55144
-4.04807
-0.964827
1.77795
4.24654
6.4943
8.56271
10.4824
12.2742
13.9511
15.5193
16.9813
18.3381
19.5928
20.7532
21.8331
22.8515
23.8291
24.7834
25.7253
26.6573
27.5748
28.4678
29.3234
30.1269
30.8629
31.516
32.07
32.5069
32.8084
32.952
32.934
32.7297
32.3201
31.6891
30.801
29.5727
27.8636
25.4719
22.1351
17.5327
11.3531
3.54467
-5.12626
-12.3953
-15.8273
-15.8754
-13.5388
-9.94032
-5.41218
-2.12663
46.8354
52.8146
57.0625
60.7425
64.3938
67.8361
71.2265
74.211
76.3397
77.7042
77.607
76.4967
74.3629
71.0759
66.6022
61.0021
54.4079
47.0036
39.0002
30.596
21.9349
13.0867
4.0766
-5.05062
-14.1653
-23.0294
-31.3292
-38.7286
-44.9257
-49.7118
-53.0364
-55.0634
-56.1636
-56.8532
-57.672
-58.9867
-60.9036
-63.2324
-65.1245
-65.2809
-63.0904
-57.9632
-50.7031
-42.7293
-35.0073
-27.9856
-21.7981
-16.423
-11.7735
-7.74419
-4.23093
-1.14002
1.60915
4.08362
6.33744
8.4126
10.3401
12.141
13.8282
15.4074
16.8803
18.2468
19.5089
20.6734
21.7542
22.7709
23.7458
24.6981
25.6396
26.5736
27.496
28.3969
29.2635
30.0811
30.8342
31.5068
32.082
32.5398
32.8598
33.0147
33.0045
32.8035
32.3933
31.7638
30.8842
29.6737
27.9926
25.6333
22.315
17.677
11.3277
3.10093
-6.25204
-14.002
-17.2678
-17.0398
-14.4344
-10.5236
-5.75301
-2.12909
46.9023
52.8159
57.0239
60.7013
64.3504
67.7863
71.1913
74.2213
76.367
77.7546
77.6023
76.4414
74.2673
70.9464
66.445
60.8238
54.2147
46.8015
38.7955
30.3963
21.7464
12.9116
3.91072
-5.21705
-14.3436
-23.2279
-31.5511
-38.9718
-45.1814
-49.9631
-53.2589
-55.2305
-56.2543
-56.8601
-57.6084
-58.8837
-60.7964
-63.1792
-65.2268
-65.5711
-63.5617
-58.5059
-51.2013
-43.1531
-35.3683
-28.3008
-22.0807
-16.6815
-12.0139
-7.97044
-4.44597
-1.34588
1.41124
3.89314
6.15452
8.23795
10.1748
11.9866
13.6858
15.278
16.7637
18.1415
19.4121
20.5812
21.6625
22.6769
23.6484
24.598
25.5389
26.4753
27.403
28.3128
29.1916
30.0248
30.7969
31.4912
32.0901
32.5717
32.913
33.0802
33.0777
32.8798
32.4673
31.8379
30.9692
29.7843
28.1399
25.8138
22.512
17.8462
11.3451
2.70991
-7.3269
-15.4914
-18.5391
-18.0398
-15.2053
-11.0275
-6.06175
-2.14961
46.9658
52.8114
56.9788
60.6545
64.3007
67.727
71.1436
74.2212
76.3858
77.7856
77.5599
76.3489
74.1378
70.7854
66.2585
60.6181
53.9962
46.576
38.5697
30.1777
21.5419
12.7234
3.7338
-5.39383
-14.5331
-23.4394
-31.7885
-39.2331
-45.4574
-50.2358
-53.5016
-55.4139
-56.3546
-56.8675
-57.5359
-58.7629
-60.662
-63.0857
-65.2768
-65.8151
-63.9929
-59.0213
-51.6837
-43.5729
-35.7364
-28.6322
-22.3856
-16.966
-12.2818
-8.2245
-4.68837
-1.57822
1.18789
3.67835
5.94846
8.04137
9.989
11.813
13.526
15.1328
16.633
18.0236
19.3035
20.4774
21.559
22.5703
23.5376
24.484
25.4241
26.3629
27.2965
28.2158
29.1078
29.9579
30.7502
31.4679
32.0926
32.6002
32.9652
33.1452
33.1497
32.9541
32.537
31.9082
31.0555
29.8948
28.2706
25.9601
22.668
17.9833
11.3706
2.41802
-8.14779
-16.526
-19.3081
-18.6725
-15.6904
-11.3255
-6.25243
-2.20206
47.0268
52.8068
56.9294
60.6023
64.2443
67.6579
71.0815
74.2052
76.3944
77.7832
77.4719
76.2173
73.9731
70.5927
66.0432
60.3867
53.7548
46.33
38.3256
29.9435
21.3247
12.5253
3.54907
-5.57781
-14.7307
-23.661
-32.0386
-39.5099
-45.7515
-50.5283
-53.7637
-55.6135
-56.4649
-56.8764
-57.4558
-58.6266
-60.5041
-62.9561
-65.2733
-65.9997
-64.3662
-59.4878
-52.1301
-43.9716
-36.0976
-28.9681
-22.7031
-17.2682
-12.5702
-8.50046
-4.95301
-1.8326
0.943019
3.44269
5.72227
7.82551
9.78487
11.6223
13.3504
14.9734
16.4895
17.8941
19.1842
20.3632
21.4445
22.452
23.4143
24.3569
25.2961
26.2373
27.1771
28.1064
29.0123
29.8799
30.6935
31.4356
32.0873
32.6227
33.0136
33.2061
33.2165
33.0217
32.5987
31.9736
31.1303
29.9718
28.3469
26.0436
22.7569
18.0669
11.4157
2.32123
-8.5105
-16.9268
-19.3335
-18.7738
-15.7984
-11.4061
-6.31932
-2.29955
47.081
52.7997
56.876
60.5452
64.1812
67.5788
71.0032
74.167
76.3958
77.731
77.3338
76.045
73.7729
70.3685
65.8003
60.1313
53.4926
46.0662
38.0663
29.6966
21.0978
12.3204
3.35953
-5.766
-14.9334
-23.8898
-32.2984
-39.7995
-46.0616
-50.8389
-54.0442
-55.8289
-56.5854
-56.8875
-57.3697
-58.4766
-60.3257
-62.7937
-65.2166
-66.1178
-64.6694
-59.8876
-52.5234
-44.3347
-36.4399
-29.2985
-23.0245
-17.5805
-12.8726
-8.79248
-5.23479
-2.10454
0.680534
3.18958
5.47895
7.593
9.56472
11.4165
13.1607
14.8011
16.3344
17.7542
19.0552
20.2393
21.32
22.3229
23.2794
24.2178
25.1557
26.0993
27.0455
27.9851
28.9051
29.7907
30.6258
31.3928
32.0722
32.6362
33.0547
33.259
33.2747
33.0773
32.6491
32.0227
31.1729
30.0114
28.3797
26.0668
22.7812
18.1139
11.5248
2.51656
-8.25445
-16.6534
-19.1084
-18.5002
-15.5956
-11.2748
-6.20483
-2.38821
47.1439
52.7859
56.8168
60.4826
64.1109
67.4895
70.9065
74.0985
76.3928
77.615
77.1446
75.8314
73.5368
70.113
65.5304
59.8532
53.2116
45.7868
37.7942
29.4398
20.8639
12.1113
3.16778
-5.95578
-15.1387
-24.123
-32.5653
-40.0994
-46.3855
-51.1664
-54.3426
-56.0603
-56.7168
-56.902
-57.2789
-58.3153
-60.1305
-62.6037
-65.1104
-66.1693
-64.8961
-60.2078
-52.8498
-44.6507
-36.7537
-29.6148
-23.3421
-17.896
-13.1827
-9.09505
-5.52882
-2.38974
0.404213
2.92233
5.22139
7.34632
9.33072
11.1973
12.9585
14.6171
16.1687
17.6046
18.9173
20.1068
21.1866
22.1841
23.1342
24.0676
25.0039
25.9498
26.9024
27.8523
28.7865
29.6899
30.5464
31.338
32.0446
32.6369
33.0838
33.2996
33.3129
33.1122
32.6821
32.0496
31.1878
30.0001
28.3405
26.0088
22.7261
18.1139
11.692
3.02056
-7.28314
-15.4718
-18.2256
-17.8178
-15.1134
-10.944
-6.03211
-2.4398
47.2303
52.7723
56.7552
60.4158
64.0338
67.3898
70.788
73.9919
76.3846
77.4323
76.9064
75.5766
73.2648
69.8262
65.2342
59.5536
52.9135
45.4939
37.5114
29.1751
20.625
11.9001
2.97601
-6.14491
-15.3441
-24.3583
-32.8369
-40.4074
-46.7213
-51.5093
-54.6583
-56.308
-56.8601
-56.921
-57.185
-58.1446
-59.9215
-62.3909
-64.9599
-66.1563
-65.0434
-60.4387
-53.099
-44.9103
-37.0309
-29.9098
-23.6494
-18.2086
-13.495
-9.40313
-5.83058
-2.68418
0.117613
2.64407
4.95233
7.08787
9.08488
10.9665
12.745
14.4226
15.9934
17.4464
18.7716
19.9669
21.0454
22.0369
22.9796
23.9075
24.8419
25.7898
26.7484
27.7084
28.6564
29.5771
30.4543
31.2695
32.0019
32.6208
33.0942
33.3191
33.32
33.1266
32.6951
32.0453
31.1469
29.9168
28.215
25.8528
22.5748
18.0466
11.8714
3.72114
-5.77106
-13.4462
-16.5372
-16.532
-14.1954
-10.3531
-5.88324
-2.4905
47.3106
52.7552
56.6927
60.3469
63.9509
67.2802
70.6449
73.8309
76.3614
77.1961
76.6241
75.2815
72.9568
69.5085
64.9123
59.2336
52.5997
45.189
37.2198
28.9044
20.3831
11.6886
2.78604
-6.33152
-15.5477
-24.5934
-33.1109
-40.7214
-47.0675
-51.8668
-54.9911
-56.5724
-57.0162
-56.9457
-57.0894
-57.9666
-59.7017
-62.1605
-64.7719
-66.0832
-65.1107
-60.5739
-53.2635
-45.1072
-37.2657
-30.178
-23.9409
-18.5132
-13.8045
-9.71217
-6.13596
-2.98416
-0.175976
2.35771
4.67433
6.81986
8.82906
10.7255
12.5215
14.2186
15.8094
17.2805
18.619
19.8206
20.8978
21.8825
22.817
23.7387
24.6704
25.6198
26.5841
27.5537
28.5148
29.4519
30.3485
31.1855
31.9413
32.5835
33.0764
33.3124
33.3125
33.1128
32.6674
31.9875
31.0421
29.752
27.9935
25.5955
22.328
17.9086
12.0301
4.49369
-4.03206
-10.9752
-14.2167
-14.6105
-12.7502
-9.43629
-5.66328
-2.52192
47.3835
52.7361
56.6294
60.2765
63.8632
67.1611
70.4753
73.5914
76.3034
76.9246
76.3025
74.9469
72.6132
69.1602
64.5655
58.8943
52.2715
44.8737
36.9209
28.6291
20.1396
11.4783
2.59941
-6.51399
-15.7478
-24.8267
-33.3853
-41.0394
-47.4225
-52.238
-55.341
-56.8543
-57.1862
-56.9772
-56.9936
-57.7828
-59.4735
-61.9167
-64.5535
-65.9554
-65.0991
-60.6098
-53.3388
-45.237
-37.4539
-30.4149
-24.2121
-18.8052
-14.107
-10.0182
-6.44127
-3.28634
-0.473543
2.06595
4.38975
6.54432
8.56496
10.4757
12.289
14.006
15.6175
17.1079
18.4609
19.6693
20.745
21.7223
22.6476
23.5622
24.4906
25.4409
26.4102
27.3885
28.3618
29.3139
30.2281
31.0845
31.8601
32.5208
33.0271
33.2627
33.2709
33.054
32.5829
31.859
30.8559
29.4993
27.677
25.241
21.9942
17.7046
12.1495
5.24545
-2.33051
-8.52555
-11.7624
-12.4552
-11.074
-8.36764
-5.3497
-2.51152
47.4484
52.7157
56.5658
60.205
63.7713
67.0347
70.2739
73.2853
76.1734
76.6144
75.9422
74.5739
72.2347
68.7821
64.1946
58.5366
51.93
44.5491
36.6159
28.3507
19.8958
11.2706
2.41742
-6.69093
-15.9427
-25.0562
-33.6583
-41.3597
-47.785
-52.6222
-55.7081
-57.1543
-57.3713
-57.0166
-56.8986
-57.5949
-59.2392
-61.6629
-64.31
-65.7776
-65.0098
-60.5454
-53.3236
-45.2982
-37.5931
-30.6175
-24.4595
-19.0809
-14.3988
-10.3177
-6.74326
-3.58772
-0.772353
1.77125
4.10078
6.26311
8.29416
10.2185
12.0488
13.7857
15.4187
16.9296
18.2983
19.5144
20.5885
21.5575
22.4727
23.3792
24.3033
25.2536
26.227
27.2132
28.1972
29.1625
30.092
30.9647
31.7552
32.4292
32.9365
33.1725
33.1826
32.937
32.4256
31.6475
30.5796
29.155
27.2717
24.8016
21.587
17.447
12.2274
5.93605
-0.775183
-6.29031
-9.42578
-10.336
-9.39169
-7.28254
-4.97207
-2.45787
47.5124
52.6899
56.5009
60.1323
63.6752
66.9007
70.0434
72.9233
75.9227
76.2356
75.5413
74.1634
71.8226
68.3752
63.8005
58.1614
51.5762
44.2164
36.306
28.0701
19.6528
11.0664
2.24116
-6.86109
-16.1312
-25.2803
-33.9279
-41.6805
-48.1535
-53.0186
-56.0925
-57.4734
-57.5728
-57.065
-56.8055
-57.4041
-59.0007
-61.4017
-64.0455
-65.554
-64.8438
-60.3817
-53.2188
-45.2909
-37.6823
-30.7839
-24.6806
-19.3376
-14.6769
-10.6077
-7.0391
-3.88564
-1.06994
1.47585
3.8094
5.97797
8.0181
9.95503
11.8018
13.5587
15.2141
16.7467
18.1326
19.3573
20.4298
21.3896
22.2933
23.1905
24.1094
25.0587
26.0352
27.0279
28.021
28.9975
29.9393
30.8238
31.6231
32.3036
32.8052
33.0477
33.0377
32.7496
32.1872
31.3502
30.2167
28.7258
26.7887
24.2959
21.1231
17.1419
12.2557
6.53333
0.582645
-4.32703
-7.29681
-8.36099
-7.79523
-6.23367
-4.55003
-2.36471
47.5922
52.6631
56.4353
60.0579
63.5755
66.7542
69.8036
72.4558
75.5587
75.8039
75.1025
73.7177
71.3783
67.9408
63.3843
57.7697
51.211
43.8764
35.992
27.7883
19.4113
10.8667
2.07161
-7.02339
-16.3117
-25.4973
-34.1921
-41.9997
-48.5265
-53.4264
-56.4942
-57.8123
-57.792
-57.1231
-56.7153
-57.2117
-58.7592
-61.135
-63.7636
-65.2892
-64.6011
-60.1214
-53.028
-45.2171
-37.7218
-30.913
-24.8735
-19.5729
-14.9389
-10.8857
-7.32633
-4.17775
-1.3641
1.18176
3.51743
5.69051
7.73821
9.68656
11.5491
13.3261
15.0045
16.5602
17.965
19.1994
20.2703
21.2198
22.1107
22.9973
23.9097
24.8567
25.8351
26.8328
27.8331
28.8181
29.7685
30.6585
31.461
32.1433
32.6354
32.8735
32.8213
32.4814
31.8645
30.9697
29.775
28.2259
26.2459
23.7439
20.6246
16.8033
12.2352
7.03154
1.74706
-2.62502
-5.40922
-6.58
-6.33341
-5.24973
-4.09681
-2.23726
47.6645
52.6353
56.3708
59.982
63.4715
66.6006
69.5512
71.9345
75.0999
75.3301
74.6291
73.2391
70.9038
67.4802
62.9472
57.3625
50.8351
43.5298
35.6747
27.5061
19.1724
10.6723
1.9096
-7.17681
-16.483
-25.7054
-34.4488
-42.315
-48.9019
-53.8444
-56.913
-58.1717
-58.0301
-57.1919
-56.629
-57.0191
-58.5159
-60.8644
-63.4663
-64.9887
-64.2813
-59.7689
-52.7564
-45.0805
-37.7131
-31.0047
-25.037
-19.7851
-15.1828
-11.1497
-7.60282
-4.46196
-1.65286
0.890847
3.22657
5.40227
7.45589
9.41436
11.292
13.0889
14.791
16.3713
17.7967
19.042
20.1112
21.0494
21.9259
22.8005
23.7051
24.6484
25.6271
26.6281
27.6333
28.6238
29.5768
30.4658
31.2698
31.9464
32.4231
32.6309
32.5235
32.1301
31.4612
30.5132
29.2646
27.668
25.659
23.1641
20.1123
16.4532
12.1844
7.45055
2.74439
-1.16479
-3.76963
-5.01031
-5.02768
-4.34661
-3.6272
-2.08195
47.727
52.6073
56.3085
59.9055
63.3592
66.4461
69.2885
71.4896
74.5552
74.8226
74.1253
72.731
70.4015
66.9953
62.4903
56.9405
50.4494
43.1775
35.3548
27.2242
18.9367
10.484
1.75593
-7.32041
-16.6437
-25.9027
-34.6955
-42.6238
-49.2776
-54.2709
-57.3484
-58.552
-58.2885
-57.2719
-56.5475
-56.8272
-58.2727
-60.5901
-63.1527
-64.6602
-63.8844
-59.3301
-52.4108
-44.8855
-37.6583
-31.0594
-25.1707
-19.9731
-15.4071
-11.3979
-7.86677
-4.73647
-1.93443
0.60481
2.93846
5.11481
7.1726
9.13975
11.0314
12.8481
14.5745
16.1809
17.6287
18.8864
19.954
20.8796
21.74
22.6011
23.496
24.4341
25.4117
26.4141
27.4218
28.4126
29.3606
30.2461
31.0501
31.7075
32.1577
32.3077
32.1429
31.7005
30.985
29.9906
28.697
27.0641
25.0398
22.5672
19.5969
16.1048
12.1197
7.8066
3.59323
0.0743271
-2.36307
-3.64642
-3.87836
-3.52903
-3.15681
-1.90568
47.7815
52.5808
56.2487
59.8293
63.2418
66.2833
69.0163
71.1585
73.9473
74.2874
73.5953
72.1965
69.874
66.4881
62.0151
56.5048
50.0545
42.8199
35.033
26.9434
18.7051
10.3025
1.61134
-7.45333
-16.7925
-26.0873
-34.9295
-42.9231
-49.6509
-54.7039
-57.7995
-58.9533
-58.5683
-57.3634
-56.4718
-56.6375
-58.0313
-60.3095
-62.8204
-64.316
-63.4133
-58.8128
-51.9995
-44.6375
-37.5602
-31.0782
-25.2744
-20.136
-15.6105
-11.6288
-8.11662
-4.99967
-2.20721
0.325267
2.6547
4.8297
6.88982
8.86409
10.7687
12.6046
14.3559
15.9897
17.4619
18.7335
19.7997
20.7115
21.5541
22.3998
23.2835
24.2149
25.1895
26.1911
27.1968
28.1797
29.1184
30.0031
30.7945
31.4231
31.8206
31.9006
31.685
31.2008
30.4453
29.412
28.0828
26.4251
24.3982
21.9603
19.0812
15.7581
12.0417
8.10268
4.30731
1.11885
-1.16494
-2.47044
-2.87444
-2.7951
-2.69909
-1.71499
47.8305
52.554
56.1926
59.7519
63.1279
66.1088
68.718
70.8092
73.3031
73.7285
73.0435
71.6395
69.3244
65.9608
61.5232
56.0564
49.6509
42.4575
34.7099
26.6646
18.4785
10.1286
1.47654
-7.5748
-16.9284
-26.2572
-35.1481
-43.2094
-50.0184
-55.1408
-58.2646
-59.3753
-58.8706
-57.4665
-56.4025
-56.4515
-57.7924
-60.0207
-62.4757
-63.9807
-62.8791
-58.2275
-51.5313
-44.3423
-37.4219
-31.0624
-25.3483
-20.2735
-15.7922
-11.8414
-8.35108
-5.25013
-2.46967
0.0537889
2.37688
4.54851
6.60904
8.5887
10.5049
12.3593
14.1357
15.7983
17.2971
18.5845
19.6496
20.5462
21.3692
22.1978
23.0685
23.9907
24.9601
25.9573
26.953
27.9223
28.8556
29.7345
30.4963
31.0787
31.398
31.416
31.1599
30.6405
29.8517
28.7871
27.4314
25.7595
23.7415
21.3491
18.568
15.4122
11.9471
8.34007
4.90182
1.99549
-0.14829
-1.46056
-2.001
-2.14011
-2.2636
-1.51555
47.889
52.529
56.1411
59.6754
63.0187
65.9278
68.389
70.3814
72.6378
73.1499
72.4741
71.0636
68.7556
65.4158
61.0162
55.5963
49.2394
42.0909
34.3862
26.3885
18.2579
9.9634
1.35222
-7.68414
-17.05
-26.4105
-35.348
-43.4789
-50.3762
-55.578
-58.7418
-59.8168
-59.1962
-57.5804
-56.34
-56.2707
-57.5569
-59.7258
-62.1149
-63.652
-62.2954
-57.5848
-51.0154
-44.0057
-37.2466
-31.0137
-25.3932
-20.3854
-15.9517
-12.0346
-8.56899
-5.48654
-2.72038
-0.208079
2.10662
4.27282
6.33174
8.31485
10.241
12.1129
13.9143
15.607
17.1346
18.44
19.5048
20.3851
21.1868
21.9961
22.8507
23.7616
24.7228
25.7076
26.687
27.6465
28.5762
29.4303
30.1441
30.6512
30.8952
30.8668
30.5785
30.0297
29.2136
28.1246
26.7509
25.0746
23.0753
20.7369
18.0582
15.0661
11.8347
8.52251
5.3917
2.72835
0.712014
-0.59563
-1.24309
-1.55844
-1.85593
-1.31203
47.9404
52.5068
56.0934
59.6073
62.9092
65.7467
68.0561
69.9513
71.959
72.5558
71.8908
70.4729
68.171
64.8556
60.4959
55.1257
48.8207
41.7207
34.0626
26.1161
18.0443
9.80769
1.23905
-7.7808
-17.1565
-26.5451
-35.5262
-43.7272
-50.7199
-56.0112
-59.2278
-60.2758
-59.5456
-57.7038
-56.2842
-56.0965
-57.3255
-59.4221
-61.7136
-63.2732
-61.6573
-56.8934
-50.4603
-43.6335
-37.0378
-30.9338
-25.4096
-20.4719
-16.0885
-12.2079
-8.76934
-5.70767
-2.95794
-0.458828
1.84545
4.00415
6.05929
8.04371
9.97783
11.866
13.692
15.4159
16.9745
18.3003
19.3659
20.2293
21.0076
21.795
22.632
23.5289
24.4736
25.439
26.4054
27.3616
28.271
29.0715
29.7118
30.1407
30.3293
30.2664
29.9511
29.3774
28.5392
27.4322
26.0483
24.376
22.4038
20.1261
17.5525
14.719
11.7042
8.65459
5.79049
3.3382
1.43791
0.143315
-0.586994
-1.04415
-1.47861
-1.10826
47.982
52.4888
56.0507
59.5509
62.7954
65.5702
67.7615
69.5993
71.2777
71.9501
71.2968
69.871
67.574
64.2829
59.9643
54.6457
48.3953
41.3475
33.7399
25.8487
17.839
9.66249
1.13764
-7.86429
-17.2471
-26.6591
-35.6791
-43.9495
-51.0439
-56.4349
-59.7187
-60.7488
-59.9185
-57.8339
-56.2347
-55.9308
-57.0962
-59.1095
-61.2954
-62.8025
-60.9512
-56.161
-49.8741
-43.231
-36.7987
-30.8247
-25.3986
-20.5332
-16.2024
-12.3605
-8.95117
-5.91233
-3.18099
-0.697009
1.59485
3.7439
5.79296
7.77631
9.71621
11.6188
13.4689
15.2245
16.8168
18.1661
19.234
20.0802
20.8336
21.5973
22.4128
23.2867
24.2083
25.1594
26.1223
27.0569
27.9056
28.6312
29.1981
29.5687
29.7172
29.6259
29.2866
28.6917
27.836
26.7166
25.3291
23.6683
21.7304
19.5186
17.0513
14.3708
11.5563
8.74131
6.11025
3.84272
2.04828
0.772977
-0.0203103
-0.591193
-1.13242
-0.907356
48.0171
52.4748
56.0188
59.5031
62.6778
65.3963
67.5125
69.3418
70.6149
71.3383
70.6947
69.2608
66.9677
63.7005
59.4234
54.1577
47.9644
40.972
33.4191
25.5873
17.6432
9.52876
1.0486
-7.93418
-17.3208
-26.7509
-35.8036
-44.1406
-51.3421
-56.8426
-60.209
-61.2307
-60.3151
-57.9696
-56.1918
-55.7751
-56.8653
-58.797
-60.9151
-62.2513
-60.1849
-55.3985
-49.2645
-42.8031
-36.5324
-30.6881
-25.3612
-20.5696
-16.2933
-12.492
-9.11367
-6.0995
-3.38835
-0.921333
1.35614
3.49334
5.53387
7.51355
9.45667
11.3716
13.2444
15.0321
16.6589
18.0328
19.1045
19.9342
20.6625
21.3987
22.184
23.0315
23.9399
24.8828
25.8132
26.6799
27.4554
28.1168
28.6285
28.956
29.0715
28.9542
28.5931
27.9799
27.1105
25.9835
24.5985
22.9557
21.0581
18.9164
16.5554
14.0216
11.3925
8.78777
6.36172
4.2571
2.55952
1.30814
0.468251
-0.193467
-0.817354
-0.711907
48.047
52.4644
56.0025
59.4586
62.5584
65.218
67.2695
69.0951
69.9912
70.7265
70.087
68.6441
66.355
63.111
58.8753
53.6633
47.5288
40.5952
33.1012
25.3333
17.458
9.40736
0.972469
-7.99003
-17.3771
-26.8188
-35.8963
-44.2951
-51.6076
-57.2261
-60.6925
-61.7174
-60.7383
-58.1122
-56.1537
-55.629
-56.6307
-58.4811
-60.5749
-61.6323
-59.3778
-54.6185
-48.639
-42.3546
-36.2419
-30.526
-25.2985
-20.5815
-16.3609
-12.6016
-9.25589
-6.26803
-3.57881
-1.13058
1.13048
3.25353
5.28294
7.25615
9.19959
11.1243
13.0177
14.8353
16.4955
17.895
18.9717
19.7848
20.4856
21.1899
21.9499
22.7816
23.6663
24.559
25.4204
26.223
26.9451
27.5576
28.0256
28.3161
28.4011
28.259
27.8774
27.2483
26.3683
25.2383
23.8611
22.242
20.3899
18.3214
16.066
13.6724
11.2146
8.79903
6.55448
4.59455
2.98595
1.76192
0.888928
0.155013
-0.532911
-0.524048
48.0847
52.4637
56.001
59.4141
62.4385
65.0317
67.0043
68.7889
69.4106
70.12
69.4774
68.0218
65.7367
62.5165
58.3219
53.1639
47.0898
40.2181
32.7874
25.0878
17.2845
9.29899
0.909735
-8.03131
-17.415
-26.8613
-35.9545
-44.408
-51.8331
-57.5763
-61.1612
-62.207
-61.1911
-58.2642
-56.1118
-55.4904
-56.3929
-58.1708
-60.2607
-60.9551
-58.5482
-53.8319
-48.0035
-41.8892
-35.9299
-30.3402
-25.2113
-20.5694
-16.4053
-12.6892
-9.37757
-6.41757
-3.75187
-1.32414
0.918597
3.02527
5.04094
7.00472
8.94546
10.8761
12.7856
14.6298
16.3234
17.7509
18.8339
19.6298
20.3035
20.9844
21.7178
22.5033
23.3271
24.1592
24.9689
25.7266
26.4049
26.9741
27.4023
27.6577
27.7129
27.5464
27.1455
26.5023
25.6148
24.4857
23.1213
21.531
19.7286
17.7354
15.5843
13.3241
11.0248
8.77993
6.69707
4.86652
3.34005
2.14585
1.25086
0.460051
-0.2778
-0.345461
48.1156
52.4791
56.0108
59.3693
62.3196
64.8373
66.7087
68.4384
68.8697
69.5231
68.8703
67.3967
65.1128
61.9174
57.7651
52.6612
46.6489
39.8421
32.4791
24.852
17.1235
9.20408
0.860836
-8.05735
-17.4339
-26.8775
-35.9764
-44.475
-52.011
-57.8831
-61.6045
-62.6945
-61.667
-58.4255
-56.0598
-55.3555
-56.1452
-57.8607
-59.9459
-60.2632
-57.7202
-53.0521
-47.3653
-41.4113
-35.599
-30.1322
-25.1006
-20.5334
-16.4262
-12.754
-9.47758
-6.54672
-3.90605
-1.50052
0.7219
2.80974
4.80852
6.75894
8.69205
10.6232
12.5441
14.4135
16.1419
17.6008
18.6945
19.4778
20.1273
20.7666
21.441
22.1688
22.9433
23.7317
24.499
25.214
25.8493
26.3769
26.7662
26.987
27.0125
26.822
26.4026
25.7473
24.855
23.7306
22.3833
20.8261
19.0768
17.1603
15.1112
12.9779
10.8252
8.73502
6.79702
5.08292
3.63262
2.46998
1.56203
0.727232
-0.0494521
-0.177327
48.1407
52.513
56.0283
59.3253
62.2028
64.6368
66.393
68.0737
68.3656
68.9388
68.269
66.7729
64.4851
61.3126
57.2047
52.1568
46.2073
39.4685
32.1775
24.627
16.9755
9.12279
0.82614
-8.06728
-17.4326
-26.8666
-35.9611
-44.4929
-52.1345
-58.1359
-62.0106
-63.1683
-62.1488
-58.5873
-55.9994
-55.221
-55.8858
-57.5695
-59.5926
-59.5678
-56.8839
-52.2636
-46.7142
-40.9163
-35.2481
-29.9022
-24.9668
-20.4742
-16.4247
-12.7981
-9.55869
-6.6591
-4.04557
-1.66432
0.535629
2.60208
4.58065
6.51348
8.43387
10.3608
12.2913
14.1865
15.9533
17.4519
18.5591
19.323
19.9295
20.5105
21.1348
21.8206
22.5535
23.2985
24.0216
24.6928
25.2853
25.7716
26.1224
26.3086
26.3046
26.0905
25.6537
24.9878
24.0934
22.9772
21.6508
20.1305
18.437
16.5976
14.648
12.635
10.618
8.66851
6.861
5.2523
3.87294
2.74299
1.82934
0.961926
0.156174
-0.0203073
48.1692
52.5642
56.0517
59.2833
62.0886
64.4349
66.0778
67.7152
67.8953
68.3697
67.6762
66.1539
63.8574
60.7033
56.6391
51.6504
45.7667
39.0987
31.8838
24.4134
16.8406
9.055
0.805938
-8.06007
-17.41
-26.8281
-35.9085
-44.46
-52.1977
-58.3244
-62.3653
-63.6135
-62.6187
-58.7368
-55.9302
-55.0748
-55.6383
-57.3469
-59.1512
-58.8179
-55.9936
-51.4302
-46.0276
-40.3924
-34.872
-29.6489
-24.8115
-20.3957
-16.4067
-12.8286
-9.62928
-6.76375
-4.1798
-1.8249
0.350612
2.39357
4.34945
6.26168
8.16669
10.0883
12.0289
13.9526
15.7663
17.3066
18.4049
19.138
19.6966
20.2336
20.8212
21.4687
22.1594
22.8602
23.5389
24.1666
24.7166
25.1619
25.4744
25.6263
25.5932
25.356
24.9028
24.2283
23.3343
22.2294
20.9274
19.4469
17.8112
16.0488
14.1957
12.2966
10.4055
8.58433
6.89488
5.38203
4.06896
2.97232
2.05875
1.16927
0.344375
0.125443
48.2077
52.6287
56.0795
59.2437
61.9779
64.2345
65.7652
67.3773
67.4555
67.817
67.0938
65.5425
63.2333
60.0932
56.0691
51.1405
45.327
38.734
31.599
24.2118
16.7186
9.00034
0.800452
-8.03455
-17.3645
-26.7615
-35.8191
-44.3764
-52.1969
-58.438
-62.6518
-64.0134
-63.058
-58.8642
-55.8487
-54.8988
-55.4094
-57.1647
-58.6129
-57.9714
-55.0324
-50.5486
-45.304
-39.8379
-34.4694
-29.3728
-24.637
-20.3017
-16.3767
-12.8503
-9.69384
-6.86468
-4.31233
-1.98565
0.163608
2.18127
4.11281
6.00315
7.89216
9.80865
11.7606
13.7183
15.5833
17.1348
18.203
18.9041
19.4257
19.9355
20.4943
21.1074
21.7584
22.4168
23.0525
23.6375
24.1456
24.5505
24.8253
24.9434
24.8816
24.6221
24.1539
23.4725
22.5814
21.4906
20.2159
18.7778
17.201
15.5151
13.7554
11.9642
10.1899
8.48619
6.90391
5.47849
4.22754
3.16444
2.25542
1.35415
0.521043
0.26018
48.2741
52.7031
56.1102
59.2058
61.8704
64.0395
65.4632
67.064
67.043
67.2815
66.5235
64.9409
62.6156
59.4855
55.498
50.6274
44.8869
38.3744
31.3239
24.0223
16.6091
8.95834
0.809872
-7.98946
-17.2945
-26.6659
-35.6939
-44.2441
-52.1289
-58.4662
-62.8523
-64.3497
-63.4459
-58.9656
-55.7543
-54.7048
-55.2393
-56.9341
-57.9937
-57.0334
-54.0219
-49.6356
-44.5534
-39.2573
-34.0422
-29.0749
-24.4441
-20.193
-16.3353
-12.8634
-9.75191
-6.96096
-4.44178
-2.14459
-0.0225139
1.96907
3.87542
5.7427
7.61426
9.5248
11.4902
13.4846
15.3753
16.8965
17.9329
18.6072
19.114
19.6121
20.1506
20.7346
21.3497
21.9684
22.5629
23.1065
23.5738
23.9392
24.177
24.2621
24.1727
23.892
23.41
22.7238
21.8379
20.7639
19.519
18.1252
16.6083
14.9979
13.3286
11.6393
9.97367
8.37754
6.89277
5.54725
4.3546
3.32493
2.42395
1.52101
0.69156
0.384398
48.3573
52.785
56.143
59.1686
61.7632
63.853
65.1848
66.7678
66.652
66.7635
65.9662
64.3509
62.0068
58.8829
54.9284
50.1138
44.4467
38.0191
31.0584
23.8454
16.5119
8.92842
0.834292
-7.92348
-17.1977
-26.5398
-35.5337
-44.0657
-51.9907
-58.4049
-62.9555
-64.6065
-63.7595
-59.0323
-55.6553
-54.5386
-55.1186
-56.5972
-57.2591
-56.0307
-52.9835
-48.703
-43.7816
-38.6535
-33.5921
-28.7562
-24.2337
-20.0701
-16.2827
-12.8677
-9.80308
-7.05162
-4.56639
-2.29896
-0.204027
1.76124
3.64118
5.48333
7.33565
9.23977
11.216
13.2252
15.0949
16.5725
17.5854
18.2531
18.7673
19.2652
19.7904
20.3502
20.9331
21.515
22.0706
22.5745
23.0022
23.3294
23.5314
23.5846
23.4687
23.1681
22.6741
21.9849
21.1065
20.0517
18.8389
17.4912
16.0346
14.4988
12.9165
11.3238
9.75909
8.26162
6.86562
5.59315
4.45528
3.45869
2.56842
1.67371
0.859792
0.498638
48.4519
52.8724
56.1776
59.132
61.6539
63.6667
64.9062
66.4765
66.2779
66.2631
65.4227
63.7737
61.409
58.288
54.363
49.6021
44.0085
37.6684
30.8018
23.6809
16.4283
8.9111
0.873659
-7.83557
-17.0719
-26.3808
-35.3386
-43.842
-51.7828
-58.2619
-62.9573
-64.7703
-63.9718
-59.0538
-55.5567
-54.4391
-54.9888
-56.1523
-56.4263
-54.9865
-51.9267
-47.7534
-42.9894
-38.028
-33.1214
-28.4194
-24.0083
-19.935
-16.2202
-12.8637
-9.84717
-7.1359
-4.68509
-2.44796
-0.38077
1.55753
3.41038
5.22662
7.0574
8.94747
10.9144
12.9027
14.7294
16.1722
17.1761
17.8584
18.3928
18.8972
19.4141
19.954
20.5085
21.0567
21.5757
22.0418
22.4317
22.7222
22.8898
22.9125
22.7714
22.4525
21.9482
21.2582
20.3896
19.3563
18.1778
16.8776
15.4819
14.0194
12.521
11.0193
9.54833
8.14126
6.82605
5.62039
4.53402
3.57001
2.69248
1.81537
1.02823
0.603436
48.5583
52.9639
56.2138
59.0966
61.5411
63.4701
64.6078
66.1731
65.9189
65.7801
64.8932
63.21
60.8236
57.7031
53.8044
49.0946
43.574
37.3236
30.5546
23.5286
16.3592
8.90991
0.930445
-7.72487
-16.9151
-26.186
-35.1071
-43.573
-51.5107
-58.0403
-62.8468
-64.8272
-64.0516
-59.0187
-55.4741
-54.3866
-54.7876
-55.5863
-55.5208
-53.9124
-50.8521
-46.7853
-42.1777
-37.3838
-32.6341
-28.0687
-23.7712
-19.7901
-16.1491
-12.8523
-9.88453
-7.21424
-4.7988
-2.59298
-0.554408
1.35622
3.18047
4.96665
6.76781
8.63141
10.572
12.5234
14.3059
15.722
16.7288
17.4363
17.9957
18.5102
19.0228
19.5467
20.076
20.5935
21.0784
21.5089
21.8628
22.1182
22.2531
22.247
22.0824
21.747
21.2345
20.5458
19.6893
18.68
17.5378
16.2865
14.9519
13.5613
12.1434
10.7275
9.34319
8.01883
6.7771
5.63251
4.5946
3.66265
2.79924
1.94835
1.19977
0.699488
48.6716
53.0589
56.2514
59.0628
61.4257
63.2647
64.3018
65.85
65.5719
65.3144
64.3781
62.6604
60.2517
57.1298
53.2547
48.5935
43.1451
36.9858
30.3171
23.3884
16.3044
8.92778
1.01193
-7.58586
-16.7249
-25.953
-34.837