/*--------------------------------*- C++ -*----------------------------------*\
| =========                 |                                                 |
| \\      /  F ield         | OpenFOAM: The Open Source CFD Toolbox           |
|  \\    /   O peration     | Version:  4.1                                   |
|   \\  /    A nd           | Web:      www.OpenFOAM.org                      |
|    \\/     M anipulation  |                                                 |
\*---------------------------------------------------------------------------*/
FoamFile
{
    version     2.0;
    format      ascii;
    class       surfaceScalarField;
    location    "800";
    object      phi;
}
// * * * * * * * * * * * * * * * * * * * * * * * * * * * * * * * * * * * * * //

dimensions      [0 3 -1 0 0 0 0];

internalField   nonuniform List<scalar> 
52920
(
1462.76
66.3116
1406.54
56.2166
1346.61
59.929
1279.91
66.706
1205.75
74.1565
1127.68
78.0697
1064.25
63.4261
1034.29
29.9624
1044.85
-10.5572
1108.06
-63.2152
1206.27
-98.2107
1337.87
-131.598
1507.66
-169.797
1718.55
-210.886
1967.96
-249.406
2248.58
-280.624
2551.39
-302.81
2868.13
-316.737
3192.51
-324.382
3520.47
-327.961
3849.82
-329.35
4179.49
-329.668
4508.57
-329.088
4835.5
-326.922
5157.58
-322.087
5471.27
-313.692
5772.7
-301.428
6058.5
-285.794
6326.67
-268.173
6577.46
-250.796
6813.9
-236.438
7041.5
-227.6
7267.08
-225.577
7496.75
-229.666
7733.12
-236.37
7971.59
-238.477
8195.57
-223.98
8374.54
-178.969
8473.32
-98.7752
8465.23
8.08957
8342.41
122.822
8127.99
214.415
7858.87
269.117
7566.03
292.842
7269.33
296.703
6979.43
289.897
6700.97
278.461
6435.08
265.888
6181.1
253.98
5937.59
243.514
5702.92
234.668
5475.62
227.296
5254.53
221.096
5038.81
215.714
4828.01
210.801
4621.96
206.049
4420.76
201.207
4224.67
196.088
4034.11
190.564
3849.55
184.559
3671.49
178.052
3500.39
171.099
3336.51
163.88
3179.78
156.733
3029.63
150.151
2884.93
144.699
2744.08
140.849
2605.3
138.783
2467.05
138.245
2328.54
138.513
2190.03
138.511
2053.01
137.024
1920.08
132.926
1794.73
125.348
1680.99
113.738
1583.15
97.8451
1505.49
77.6624
1451.98
53.5066
1426.07
25.9085
1429.84
-3.77288
1465.13
-35.288
1532.49
-67.3542
1631.84
-99.3508
1763.94
-132.105
1932.13
-168.191
2142.74
-210.607
2403.7
-260.955
2721.84
-318.15
3099.78
-377.932
3531.44
-431.668
3995.78
-464.333
4450.04
-454.267
4830.73
-380.688
5077.2
-246.471
5171.47
-94.2682
5128.57
42.9042
4980.99
147.577
4768.75
212.245
4528.42
240.323
225.576
1452.56
131.196
1397.46
111.309
1338.31
119.083
1272.14
132.873
1198.5
147.795
1120.82
155.75
1056.21
128.041
1022.18
63.9909
1024.88
-13.2628
1077.42
-115.752
1168.19
-188.98
1309.42
-272.833
1513.86
-374.235
1777.33
-474.354
2082.86
-554.938
2412.39
-610.15
2752.75
-643.172
3095.93
-659.924
3437.59
-666.036
3775.73
-666.101
4109.85
-663.473
4440.12
-659.94
4766.53
-655.498
5088.18
-648.568
5402.97
-636.883
5707.89
-618.61
5999.55
-593.09
6274.99
-561.234
6532.47
-525.647
6772.24
-490.564
6997.11
-461.308
7212.22
-442.716
7423.88
-437.233
7637.56
-443.345
7855.77
-454.581
8076.18
-458.887
8288.2
-436.002
8467.12
-357.892
8573.74
-205.394
8569.35
12.4784
8438.51
253.663
8205.38
447.543
7911.26
563.24
7591.32
612.776
7268.25
619.773
6954.22
603.928
6654.53
578.158
6370.51
549.907
6101.48
523.009
5845.87
499.121
5601.88
478.653
5367.83
461.347
5142.31
446.622
4924.23
433.788
4712.87
422.16
4507.8
411.128
4308.81
400.192
4115.92
388.973
3929.29
377.196
3749.18
364.669
3575.93
351.305
3409.84
337.19
3251.03
322.69
3099.23
308.533
2953.61
295.769
2812.76
285.545
2674.89
278.724
2538.18
275.489
2401.32
275.107
2263.86
275.971
2126.48
275.899
1990.91
272.591
1859.81
264.028
1736.43
248.723
1624.42
225.752
1527.58
194.681
1449.82
155.428
1394.85
108.473
1366.1
54.6573
1365.71
-3.37906
1395.83
-65.411
1457.48
-129.003
1550.77
-192.642
1676.41
-257.744
1837.38
-329.158
2039.77
-412.995
2292.51
-513.703
2604.61
-630.247
2980.07
-753.392
3412.47
-864.072
3879.56
-931.416
4337.54
-912.252
4720.37
-763.52
4964.35
-490.447
5052.72
-182.635
5001.87
93.7493
4845.34
304.105
4624.85
432.735
4374.16
491.014
456.11
1431.47
196.491
1375.28
167.501
1314.94
179.426
1247.69
200.124
1173.19
222.289
1094.97
233.968
1029.26
193.756
990.864
102.384
981.572
-3.97183
1022.78
-156.957
1123.75
-289.957
1305.61
-454.693
1561.4
-630.021
1862.78
-775.734
2184.68
-876.845
2513.28
-938.744
2842.38
-972.27
3169.16
-986.712
3492.16
-989.037
3810.69
-984.623
4124.68
-977.462
4434.39
-969.651
4739.8
-960.912
5040.02
-948.793
5333.02
-929.884
5615.86
-901.448
5885.25
-862.481
6138.29
-814.271
6373.21
-760.566
6590.15
-707.503
6791.73
-662.891
6982.97
-633.959
7170.25
-624.513
7359.43
-632.52
7553.69
-648.841
7752.1
-657.305
7947.99
-631.889
8125.01
-534.913
8253.67
-334.049
8293.66
-27.5139
8212.75
334.572
8020.77
639.519
7754.15
829.864
7449.05
917.877
7131.22
937.601
6816.05
919.095
6511.49
882.72
6220.86
840.537
5944.89
798.985
5682.96
761.05
5433.89
727.716
5196.36
698.876
4969.11
673.874
4751.07
651.835
4541.38
631.85
4339.41
613.092
4144.73
594.871
3957.07
576.636
3776.32
557.943
3602.55
538.444
3435.91
517.941
3276.56
496.547
3124.37
474.873
2978.78
454.123
2838.59
435.956
2702.09
422.051
2567.34
413.474
2432.69
410.138
2297.21
410.585
2160.97
412.21
2025.06
411.811
1891.42
406.23
1762.6
392.848
1641.52
369.805
1531.34
335.934
1435.41
290.612
1357.3
233.534
1300.64
165.137
1269
86.293
1264.6
1.02444
1290
-90.8152
1346.83
-185.835
1435.48
-281.291
1556.29
-378.554
1712
-484.863
1910.76
-611.755
2164.61
-767.555
2481.16
-946.801
2857.91
-1130.14
3283.41
-1289.57
3737.19
-1385.2
4181.74
-1356.81
4552.64
-1134.42
4783.31
-721.111
4860.24
-259.568
4799.11
154.883
4631.84
471.376
4401.62
662.951
4138.79
753.844
691.24
1402.72
262.181
1345.15
225.07
1283
241.573
1213.8
269.327
1137.46
298.622
1058.15
313.275
990.766
261.144
944.045
149.104
918.22
21.8526
957.689
-196.427
1085.74
-418.009
1301.89
-670.84
1572.01
-900.144
1865.52
-1069.24
2168.34
-1179.67
2475.53
-1245.94
2784.58
-1281.31
3093.16
-1295.29
3399.19
-1295.07
3701.25
-1286.69
3998.78
-1274.99
4291.72
-1262.59
4579.92
-1249.11
4862.46
-1231.33
5137.32
-1204.74
5401.59
-1165.72
5652.02
-1112.91
5885.67
-1047.92
6100.69
-975.586
6297.07
-903.88
6477.3
-843.124
6646.44
-803.099
6811.19
-789.26
6978.06
-799.389
7151.16
-821.945
7330.85
-836.993
7512.71
-813.748
7684.66
-706.866
7822.7
-472.087
7888.98
-93.7937
7844.67
378.883
7691.22
792.963
7459.35
1061.73
7182.28
1194.95
6885.08
1234.8
6583.9
1220.27
6288.13
1178.49
6002.66
1126.01
5729.62
1072.03
5469.54
1021.13
5222.11
975.147
4986.59
934.398
4762.09
898.374
4547.72
866.202
4342.67
836.905
4146.2
809.562
3957.7
783.368
3776.71
757.625
3602.96
731.698
3436.36
705.041
3276.96
677.346
3124.69
648.809
2979.19
620.378
2839.5
593.809
2704.11
571.354
2571.09
555.066
2438.61
545.954
2305.37
543.381
2170.95
544.998
2035.95
547.215
1901.77
545.989
1770.42
537.58
1644.24
519.03
1525.76
488.283
1417.7
443.994
1323.02
385.294
1245.06
311.489
1187.46
222.742
1154.14
119.611
1147.41
7.75919
1170.2
-113.61
1224.81
-240.444
1311.27
-367.752
1429.36
-496.641
1584.36
-639.858
1787.02
-814.424
2042.13
-1022.66
2341.91
-1246.59
2676.22
-1464.45
3042.66
-1656
3439.94
-1782.48
3845.92
-1762.79
4193.89
-1482.38
4405.41
-932.637
4470.39
-324.547
4404.2
221.075
4236.73
638.84
4010.15
889.535
3750.83
1013.17
920.94
1367.7
327.778
1309.09
283.675
1245.29
305.37
1174.15
340.465
1096
376.773
1015.4
393.873
944.121
332.426
885.127
208.097
844.32
62.658
888.037
-240.145
1033.18
-563.151
1254.79
-892.453
1514.32
-1159.68
1791.64
-1346.56
2079.45
-1467.47
2373.66
-1540.15
2670.44
-1578.09
2966.27
-1591.12
3258.47
-1587.27
3545.52
-1573.73
3826.94
-1556.42
4102.94
-1538.59
4373.6
-1519.77
4638.2
-1495.93
4894.84
-1461.39
5140.7
-1411.58
5372.52
-1344.73
5587.34
-1262.75
5783.23
-1171.47
5959.99
-1080.65
6120.03
-1003.16
6268.46
-951.531
6412.37
-933.168
6558.97
-945.985
6713.27
-976.248
6876.79
-1000.51
7047.03
-983.986
7215.06
-874.901
7360.33
-617.35
7445.82
-179.29
7427.13
397.58
7301.38
918.706
7097.56
1265.56
6847.07
1445.45
6573.29
1508.58
6291.57
1501.99
6011.34
1458.72
5738.09
1399.26
5474.8
1335.32
5222.82
1273.1
4982.57
1215.4
4753.84
1163.12
4536.13
1116.08
4328.77
1073.56
4131.01
1034.67
3942.06
998.506
3761.23
964.202
3587.94
930.915
3421.84
897.793
3262.79
864.094
3110.68
829.457
2965.23
794.261
2825.72
759.883
2690.9
728.628
2559.04
703.211
2428.29
685.818
2297.13
677.12
2164.77
675.734
2031.39
678.38
1897.98
680.625
1766.14
677.836
1637.76
665.957
1514.88
641.903
1399.63
603.543
1294.25
549.368
1201.35
478.192
1124.1
388.745
1066.18
280.664
1032.03
153.754
1024.09
15.6983
1045.67
-135.183
1099.35
-294.123
1184.41
-452.816
1302.86
-615.092
1460.86
-797.855
1654.77
-1008.33
1866.27
-1234.16
2082.22
-1462.54
2313.25
-1695.47
2586.63
-1929.39
2921.56
-2117.41
3299.07
-2140.3
3633.48
-1816.8
3824.38
-1123.54
3874.3
-374.47
3802.94
292.442
3639.81
801.966
3425.43
1103.91
3181.91
1256.68
1137.22
1313.28
392.509
1255.69
341.272
1192.62
368.439
1121.94
411.147
1043.68
455.031
961.39
476.16
883.636
410.179
812.11
279.623
758.024
116.743
801.53
-283.651
952.988
-714.61
1174.85
-1114.31
1429.6
-1414.43
1701.3
-1618.26
1983
-1749.17
2269.53
-1826.68
2556.42
-1864.99
2840.13
-1874.83
3118.24
-1865.39
3389.59
-1845.08
3654.11
-1820.93
3912.36
-1796.84
4164.76
-1772.17
4410.78
-1741.95
4648.61
-1699.22
4875.41
-1638.37
5087.88
-1557.2
5283
-1457.87
5458.74
-1347.21
5614.87
-1236.78
5753.78
-1142.07
5880.8
-1078.55
6003.54
-1055.91
6130.01
-1072.45
6266
-1112.25
6413.82
-1148.33
6572.33
-1142.49
6735.46
-1038.04
6886.42
-768.31
6989.18
-282.048
6992.56
394.197
6888.66
1022.6
6706.85
1447.37
6478.76
1673.53
6226.87
1760.47
5965.41
1763.46
5703.18
1720.95
5445.62
1656.81
5196.01
1584.94
4956.14
1512.96
4726.87
1444.67
4508.39
1381.6
4300.48
1323.99
4102.62
1271.43
3914.1
1223.19
3734.13
1178.47
3561.96
1136.37
3397.02
1095.86
3238.92
1055.89
3087.45
1015.57
2942.31
974.594
2802.93
933.638
2668.31
894.51
2536.99
859.946
2407.31
832.89
2277.74
815.385
2147.31
807.554
2015.84
807.201
1883.99
810.23
1753.02
811.602
1624.48
806.373
1500.03
790.407
1381.29
760.644
1269.89
714.942
1167.64
651.617
1076.76
569.074
1000.24
465.259
941.92
338.986
906.928
188.746
897.885
24.7421
918.296
-155.595
970.933
-346.759
1056.71
-538.591
1175.88
-734.26
1313.41
-935.393
1437.84
-1132.76
1533.5
-1329.82
1623.03
-1552.07
1751.62
-1824.07
1957.41
-2135.17
2253.72
-2413.72
2609.28
-2495.85
2918.53
-2126.05
3065.08
-1270.09
3085.55
-394.938
3007.03
370.965
2853.37
955.623
2660.74
1296.54
2446.57
1470.85
1333.59
1260.64
459.725
1199.9
402.007
1134.21
434.133
1061.69
483.663
981.803
534.918
896.543
561.42
812.522
494.199
729.522
362.622
659.432
186.832
703.146
-327.365
868.229
-879.694
1098.75
-1344.84
1355.34
-1671.02
1625.12
-1888.04
1902.12
-2026.17
2181.39
-2105.95
2458.72
-2142.31
2730.87
-2146.98
2995.71
-2130.23
3252.34
-2101.72
3501.01
-2069.6
3742.58
-2038.41
3977.73
-2007.32
4206.09
-1970.31
4425.85
-1918.98
4634.06
-1846.58
4827.29
-1750.43
5002.38
-1632.96
5157.22
-1502.06
5291.55
-1371.1
5407.85
-1258.37
5511.84
-1182.54
5611.83
-1155.9
5716.75
-1177.37
5833.22
-1228.71
5964
-1279.12
6108.79
-1287.28
6263.87
-1193.12
6416.4
-920.841
6532.63
-398.276
6555.16
371.667
6469.49
1108.27
6305.65
1611.21
6096.54
1882.64
5864.38
1992.63
5622.47
2005.37
5378.83
1964.59
5138.49
1897.15
4904.64
1818.79
4679.24
1738.37
4463.34
1660.57
4257.36
1587.58
4061.21
1520.14
3874.47
1458.17
3696.43
1401.23
3526.3
1348.6
3363.36
1299.31
3207.05
1252.17
3057
1205.95
2912.81
1159.75
2773.95
1113.46
2639.54
1068.05
2508.41
1025.64
2379.19
989.169
2250.56
961.511
2121.6
944.354
1991.95
937.2
1862.01
937.14
1732.74
939.498
1605.42
938.926
1481.37
930.424
1361.82
909.956
1247.9
874.568
1140.71
822.126
1041.61
750.721
952.438
658.245
876.05
541.647
816.489
398.547
779.845
225.39
768.999
35.5882
787.218
-173.814
840.091
-399.633
924.758
-623.258
1013.63
-823.133
1061.44
-983.204
1051.47
-1122.79
1020.43
-1298.78
1023.76
-1555.4
1096.66
-1896.98
1252.75
-2291.26
1493.54
-2654.51
1785.11
-2787.42
2025.21
-2366.15
2095.87
-1340.76
2074.4
-373.469
1998.82
446.55
1877.08
1077.36
1731.17
1442.45
1569.22
1632.8
1506.73
1207.58
527.058
1144.58
465.013
1075.57
503.138
999.504
559.73
916.056
618.366
826.953
650.523
737.082
584.069
639.574
460.129
554.25
272.154
611.569
-384.684
799.77
-1067.89
1038.46
-1583.52
1294.32
-1926.88
1560.16
-2153.89
1831.36
-2297.37
2103.22
-2377.81
2371.67
-2410.77
2633.6
-2408.9
2886.94
-2383.58
3130.93
-2345.7
3365.95
-2304.63
3593.11
-2265.57
3813.3
-2227.51
4026.21
-2183.23
4229.99
-2122.76
4421.51
-2038.1
4597.1
-1926.02
4753.4
-1789.26
4888.12
-1636.77
5000.88
-1483.86
5094.27
-1351.77
5174.43
-1262.7
5250.49
-1231.96
5332.51
-1259.39
5428.01
-1324.22
5540.15
-1391.26
5668.96
-1416.09
5812.48
-1336.64
5961.61
-1069.97
6085.98
-522.64
6123.35
334.292
6052.33
1179.29
5903.39
1760.14
5710.74
2075.29
5496.56
2206.81
5273.32
2228.61
5048.18
2189.73
4825.63
2119.7
4608.59
2035.83
4398.94
1948.01
4197.8
1861.72
4005.61
1779.77
3822.36
1703.39
3647.61
1632.93
3480.65
1568.19
3320.75
1508.5
3167.23
1452.83
3019.57
1399.83
2877.27
1348.24
2739.72
1297.31
2606.05
1247.12
2475.23
1198.87
2346.15
1154.72
2217.86
1117.46
2089.7
1089.67
1961.43
1072.62
1833.34
1065.29
1706.17
1064.31
1580.91
1064.75
1458.62
1061.22
1340.16
1048.88
1226.26
1023.86
1117.49
983.342
1014.44
925.173
918.012
847.149
829.721
746.536
752.284
619.083
690.018
460.814
650.475
264.932
636.358
49.7059
652.411
-189.867
703.508
-450.729
753.421
-673.171
739.695
-809.407
646.146
-889.655
524.681
-1001.32
436.676
-1210.78
402.675
-1521.4
421.098
-1915.4
496.395
-2366.55
633.996
-2792.12
810.369
-2963.79
958.239
-2514.01
971.411
-1353.93
921.094
-323.153
854.299
513.345
771.662
1160
679.22
1534.89
602.103
1709.92
1658.81
1152.3
593.876
1088.03
529.277
1016.53
574.638
937.071
639.192
849.667
705.769
756.689
743.5
659.561
681.197
542.709
576.981
452.164
362.698
537.944
-470.464
745.894
-1275.85
984.331
-1821.96
1234.94
-2177.48
1494.89
-2413.85
1759.68
-2562.16
2024.43
-2642.55
2285
-2671.35
2538.23
-2662.12
2782.01
-2627.36
3015.57
-2579.25
3239.38
-2528.44
3454.7
-2480.9
3662.56
-2435.37
3862.74
-2383.4
4053.24
-2313.26
4230.72
-2215.57
4391.23
-2086.52
4531.11
-1929.14
4647.78
-1753.45
4740.64
-1576.72
4812.25
-1423.37
4869.07
-1319.52
4921.13
-1284.03
4979.79
-1318.04
5053.68
-1398.1
5146.37
-1483.95
5257.97
-1527.69
5387.51
-1466.18
5528.9
-1211.36
5655.7
-649.444
5702.52
287.474
5642.11
1239.71
5505.31
1896.94
5327.26
2253.34
5129.81
2404.26
4924.5
2433.92
4717.61
2396.61
4512.98
2324.33
4313.19
2235.63
4119.91
2141.29
3934.17
2047.46
3756.41
1957.53
3586.52
1873.27
3424.06
1795.4
3268.34
1723.9
3118.7
1658.15
2974.51
1597.01
2835.2
1539.15
2700.02
1483.42
2568.05
1429.28
2438.2
1376.97
2309.49
1327.58
2181.24
1282.97
2053.23
1245.47
1925.62
1217.28
1798.9
1199.35
1673.75
1190.44
1550.97
1187.1
1431.3
1184.42
1315.29
1177.23
1203.27
1160.89
1095.37
1131.75
991.64
1087.07
892.201
1024.61
797.55
941.8
708.909
835.178
628.868
699.124
561.932
527.75
517.848
309.016
499.472
68.082
512.422
-202.817
531.936
-470.243
476.38
-617.616
322.497
-655.524
139.635
-706.793
-8.51731
-853.168
-120.674
-1098.62
-210.622
-1431.45
-275.152
-1850.87
-307.637
-2334.07
-305.38
-2794.37
-267.456
-3001.72
-186.497
-2594.97
-114.859
-1425.57
-296.52
-141.492
-347.032
563.857
-360.697
1173.66
-353.785
1527.98
-338.623
1694.76
1793.32
1095.95
659.199
1031.15
594.071
957.656
648.133
875.099
721.748
783.933
796.935
686.944
840.488
578.99
789.15
439.293
716.677
358.57
443.419
479.514
-591.408
695.039
-1491.37
926.218
-2053.14
1169.55
-2420.82
1423.07
-2667.37
1681.51
-2820.6
1939.7
-2900.75
2193.4
-2925.04
2439.3
-2908.03
2675.21
-2863.27
2900.27
-2804.31
3115.01
-2743.18
3320.8
-2686.68
3518.79
-2633.37
3708.79
-2573.4
3888.66
-2493.13
4054.78
-2381.69
4202.89
-2234.63
4328.97
-2055.23
4430.1
-1854.58
4505.31
-1651.93
4556.97
-1475.03
4591.77
-1354.31
4620.59
-1312.85
4656.23
-1353.69
4708.67
-1450.54
4782.05
-1557.34
4876.37
-1622.01
4990.87
-1580.68
5121.43
-1341.92
5245.47
-773.484
5295.96
236.981
5241.84
1293.83
5114.59
2024.18
4949.68
2418.25
4768.1
2585.84
4580.2
2621.83
4391.27
2585.54
4204.49
2511.11
4021.99
2418.12
3845.23
2318.04
3675.07
2217.62
3511.8
2120.8
3355.27
2029.8
3204.99
1945.67
3060.36
1868.53
2920.77
1797.74
2785.57
1732.21
2653.97
1670.75
2524.91
1612.48
2397.16
1557.03
2269.63
1504.5
2141.72
1455.49
2013.55
1411.14
1885.85
1373.17
1759.65
1343.48
1635.94
1323.05
1515.51
1310.87
1398.86
1303.75
1286.19
1297.09
1177.42
1286
1072.25
1266.06
970.273
1233.73
871.055
1186.29
774.327
1121.34
680.255
1035.87
589.798
925.635
505.377
783.545
431.518
601.609
379.773
360.76
358.548
89.3075
348.592
-192.861
271.872
-393.523
83.5583
-429.302
-134.525
-437.44
-325.494
-515.824
-501.23
-677.432
-670.301
-929.55
-827.404
-1274.35
-974.178
-1704.09
-1116.5
-2191.75
-1257.82
-2653.05
-1376.48
-2883.06
-1414.93
-2556.51
-1359.82
-1480.68
-1326.36
-174.95
-1384.49
621.987
-1410.72
1199.89
-1462.61
1579.86
-1595.16
1827.31
1976.43
1025.33
718.886
965.475
653.921
894.57
719.037
811.902
804.417
718.414
890.423
616.653
942.249
492.948
912.854
330.454
879.171
274.472
499.4
428.594
-745.531
640.334
-1703.11
861.696
-2274.5
1097.55
-2656.67
1344.57
-2914.39
1596.8
-3072.83
1848.89
-3152.84
2096.49
-3172.65
2336.16
-3147.7
2565.55
-3092.66
2783.7
-3022.46
2991.13
-2950.61
3189.33
-2884.88
3379.55
-2823.6
3561.6
-2755.45
3733.17
-2664.7
3890.31
-2538.84
4028.43
-2372.74
4143.14
-2169.94
4231.11
-1942.54
4290.92
-1711.75
4324.62
-1508.74
4338.96
-1368.65
4345.61
-1319.5
4359
-1367.07
4390.69
-1482.23
4445.58
-1612.22
4523.34
-1699.77
4622.76
-1680.1
4740.5
-1459.67
4857.24
-890.223
4905.57
188.653
4853.33
1346.07
4733.23
2144.28
4580.36
2571.13
4414.08
2752.11
4243.2
2792.71
4071.92
2756.82
3902.73
2680.3
3737.34
2583.52
3576.9
2478.48
3422.08
2372.44
3273.03
2269.85
3129.51
2173.32
2991.06
2084.12
2857.17
2002.43
2727.21
1927.7
2600.38
1859.04
2475.52
1795.6
2351.23
1736.77
2226.18
1682.08
2099.59
1631.09
1971.63
1583.45
1843.45
1539.31
1716.83
1499.79
1593.51
1466.81
1474.7
1441.87
1360.88
1424.69
1251.94
1412.68
1147.35
1401.69
1046.32
1387.03
947.96
1364.42
851.397
1330.3
755.823
1281.87
660.652
1216.51
565.794
1130.73
471.971
1019.46
381.299
874.217
298.116
684.792
233.659
425.217
203.717
119.25
122.934
-112.078
-73.7795
-196.81
-317.35
-185.732
-548.748
-206.042
-777.504
-287.068
-999.683
-455.253
-1213.56
-715.677
-1424.46
-1063.44
-1641.49
-1487.07
-1877.87
-1955.37
-2142.8
-2388.12
-2413.06
-2612.8
-2609.94
-2359.63
-2650.17
-1440.45
-2606.38
-218.741
-2662.91
678.516
-2786.87
1323.86
-2989.25
1782.24
-3239.69
2077.75
2173.62
958.123
783.661
896.442
715.601
826.673
788.805
745.237
885.853
650.786
984.873
542.793
1050.24
399.061
1056.59
217.641
1060.59
199.943
517.095
380.065
-925.653
581.469
-1904.52
792.857
-2485.89
1021.09
-2884.9
1261.26
-3154.56
1507.14
-3318.71
1753.33
-3399.03
1995.39
-3414.7
2229.67
-3381.99
2453.64
-3316.62
2666.18
-3235
2867.8
-3152.23
3060.06
-3077.14
3244.33
-3007.87
3420.37
-2931.49
3585.66
-2829.98
3735.92
-2689.1
3866.18
-2503
3971.69
-2275.45
4048.67
-2019.52
4095.2
-1758.29
4112.89
-1526.42
4108.36
-1364.12
4094.02
-1305.16
4086.07
-1359.12
4098
-1494.16
4135.58
-1649.8
4197.98
-1762.17
4282.85
-1764.97
4386.51
-1563.33
4491.94
-995.654
4532.24
148.353
4477.57
1400.74
4362.54
2259.31
4220.89
2712.78
4069.55
2903.46
3915.37
2946.89
3761.39
2910.8
3609.4
2832.29
3460.69
2732.23
3316.12
2623.05
3176.13
2512.43
3040.73
2405.25
2909.68
2304.38
2782.58
2211.22
2658.92
2126.08
2537.96
2048.66
2418.54
1978.45
2299.13
1915.02
2178.09
1857.8
2054.31
1805.86
1927.69
1757.71
1799.46
1711.68
1671.92
1666.85
1547.79
1623.92
1429.24
1585.35
1317.31
1553.8
1211.83
1530.17
1111.81
1512.7
1015.91
1497.59
922.644
1480.3
830.643
1456.42
738.662
1422.28
645.621
1374.91
550.712
1311.42
453.652
1227.79
354.949
1118.16
256.319
972.846
161.418
779.694
76.8263
509.808
9.18997
186.886
-154.822
51.9346
-423.863
72.2299
-695.869
86.2747
-966.072
64.1605
-1225.46
-27.6758
-1477.01
-203.705
-1726
-466.694
-1979.69
-809.749
-2250.85
-1215.91
-2557.21
-1649
-2913.24
-2032.09
-3305.69
-2220.34
-3666.58
-1998.75
-3890.18
-1216.86
-3977.54
-131.38
-4081.83
782.813
-4238.4
1480.43
-4432.72
1976.56
-4618.22
2263.25
2315.41
895.205
850.387
829.509
781.297
757.349
860.966
675.273
967.928
579.144
1081
462.466
1166.92
297.282
1221.77
97.2171
1260.66
133.677
480.632
332.111
-1124.09
520.484
-2092.89
721.952
-2687.36
941.88
-3104.83
1174.53
-3387.21
1413.71
-3557.89
1654.02
-3639.34
1890.88
-3651.56
2120.45
-3611.56
2339.92
-3536.09
2547.97
-3443.05
2745.06
-3349.32
2932.82
-3264.9
3112.72
-3187.77
3284.47
-3103.24
3445.3
-2990.81
3590.57
-2834.37
3714.92
-2627.36
3813.23
-2373.76
3881.28
-2087.57
3916.58
-1793.59
3920.16
-1530
3898.38
-1342.35
3864.25
-1271.03
3835.93
-1330.79
3829.19
-1487.43
3850.86
-1671.47
3899.33
-1810.63
3970.41
-1836.05
4059.13
-1652.05
4149.64
-1086.16
4176.11
121.876
4114.98
1461.88
4003.34
2370.95
3872.41
2843.71
3735.76
3040.11
3597.97
3084.68
3460.85
3047.92
3325.53
2967.61
3192.89
2864.87
3063.52
2752.42
2937.63
2638.32
2815.19
2527.69
2695.97
2423.6
2579.62
2327.57
2465.54
2240.16
2352.67
2161.53
2239.41
2091.71
2123.93
2030.5
2004.68
1977.05
1881.11
1929.43
1754.13
1884.69
1626.13
1839.69
1500.5
1792.48
1380.67
1743.75
1268.91
1697.11
1165.69
1657.02
1069.9
1625.97
979.542
1603.05
892.436
1584.7
806.541
1566.19
720.099
1542.86
631.624
1510.75
539.862
1466.67
443.877
1407.4
343.275
1328.39
238.44
1223
130.355
1080.93
23.7072
886.342
-71.7572
605.272
-216.559
331.687
-465.336
300.712
-759.268
366.162
-1063.41
390.421
-1360.47
361.214
-1645.29
257.15
-1920.77
71.7664
-2194.62
-192.836
-2477.91
-526.466
-2785.21
-908.599
-3134.77
-1299.45
-3541.41
-1625.45
-3997.83
-1763.91
-4449.97
-1546.61
-4797.52
-869.302
-5002.24
73.3348
-5149.1
929.674
-5283.78
1615.1
-5408.2
2100.98
-5511.13
2366.18
2411.35
834.443
917.133
765.346
850.394
688.905
937.406
603.567
1053.27
503.24
1181.33
374.635
1295.52
184.3
1412.1
-23.0754
1468.03
81.3396
376.215
285.422
-1328.17
459.151
-2266.62
650.244
-2878.45
860.864
-3315.45
1085.18
-3611.53
1317.18
-3789.88
1551.47
-3873.63
1783.34
-3883.43
2008.71
-3836.93
2224.43
-3751.81
2428.94
-3647.57
2622.6
-3542.98
2807.1
-3449.4
2984.02
-3364.68
3153.01
-3272.23
3311.01
-3148.82
3453.02
-2976.37
3573.29
-2747.63
3666.32
-2466.79
3727.43
-2148.68
3753.53
-1819.69
3744.94
-1521.42
3707.58
-1304.99
3654.88
-1218.33
3607.12
-1283.04
3582.81
-1463.11
3590.01
-1678.68
3625.96
-1846.57
3684.01
-1894.1
3757.14
-1725.18
3829.43
-1158.46
3836.57
114.741
3765.49
1532.96
3656.12
2480.31
3535.72
2964.1
3413.59
3162.24
3291.82
3206.44
3171.02
3168.73
3051.69
3086.93
2934.36
2982.21
2819.33
2867.45
2706.72
2750.93
2596.46
2637.94
2488.39
2531.66
2382.11
2433.86
2276.71
2345.56
2170.71
2267.54
2062.12
2200.29
1949.08
2143.55
1830.5
2095.63
1706.72
2053.21
1579.75
2011.66
1453.11
1966.34
1331.07
1914.51
1217.49
1857.33
1114.39
1800.21
1021.35
1750.06
936.11
1711.21
855.635
1683.53
777.002
1663.33
697.725
1645.47
615.8
1624.79
529.607
1596.95
437.831
1558.45
339.526
1505.71
234.281
1433.64
122.151
1335.13
4.41026
1198.67
-108.671
999.424
-228.477
725.078
-441.891
545.101
-745.534
604.355
-1075.32
695.95
-1404.54
719.635
-1721.41
678.092
-2024.75
560.491
-2317.94
364.95
-2608.67
97.9006
-2909.84
-225.303
-3237.3
-581.135
-3607.6
-929.158
-4032.12
-1200.93
-4503.23
-1292.81
-4974.97
-1074.87
-5362.36
-481.913
-5618.98
329.953
-5787.89
1098.59
-5906.5
1733.71
-5993.43
2187.91
-6063.02
2435.77
2489.45
775.812
982.276
704.055
922.15
622.421
1019.04
531.648
1144.04
423.749
1289.23
276.846
1442.43
59.075
1629.87
-76.3375
1603.44
73.1597
226.716
240.375
-1495.39
398.636
-2424.88
578.534
-3058.35
778.765
-3515.68
993.881
-3826.64
1218.11
-4014.11
1446.11
-4101.63
1673.06
-4110.38
1894.57
-4058.44
2107.12
-3964.36
2308.83
-3849.27
2499.91
-3734.06
2682.15
-3631.64
2857.22
-3539.75
3024.73
-3439.74
3181.36
-3305.44
3321.69
-3116.71
3439.61
-2865.55
3529.23
-2556.41
3585.41
-2204.85
3604.37
-1838.65
3585.65
-1502.69
3534.45
-1253.79
3464.4
-1148.28
3398.08
-1216.72
3357.11
-1422.15
3351.1
-1672.67
3375.77
-1871.24
3421.46
-1939.79
3478.44
-1782.16
3529.51
-1209.54
3512.34
131.919
3428.71
1616.59
3321.18
2587.84
3211.38
3073.91
3103.6
3270.01
2997.39
3312.65
2892.23
3273.9
2788.08
3191.07
2685.13
3085.15
2583.52
2969.06
2483.3
2851.15
2384.46
2736.78
2286.82
2629.31
2189.72
2530.96
2091.85
2443.43
1991.25
2368.13
1885.84
2305.71
1774.06
2255.33
1655.63
2214.06
1531.92
2176.91
1406
2137.58
1282.27
2090.07
1165.64
2031.14
1060.11
1962.86
967.174
1893.15
885.303
1831.93
810.961
1785.55
740.131
1754.36
669.283
1734.18
595.619
1719.13
517.018
1703.39
431.854
1682.11
338.854
1651.45
237.117
1607.45
126.054
1544.7
6.21748
1454.96
-117.361
1322.25
-234.883
1116.95
-392.318
882.512
-671.23
824.014
-1022.01
955.136
-1376.9
1050.84
-1719.01
1061.74
-2044.56
1003.65
-2356.04
871.969
-2658.88
667.794
-2960.35
399.37
-3271.18
85.5251
-3606.76
-245.561
-3982.06
-553.849
-4404.56
-778.43
-4864.24
-833.125
-5319.93
-619.185
-5702.6
-99.2377
-5970.07
597.419
-6147.88
1276.4
-6263.48
1849.31
-6340.68
2265.11
-6402.53
2497.63
2561.37
710.395
1037.61
642.309
990.237
557.722
1103.63
460.363
1241.4
341.054
1408.53
166.799
1616.68
-48.9641
1845.64
-116.18
1670.66
53.8029
56.7319
194.918
-1636.5
339.83
-2569.79
507.571
-3226.09
696.358
-3704.47
901.357
-4031.64
1117.11
-4229.86
1338.41
-4322.93
1560.34
-4332.31
1778.17
-4276.27
1987.91
-4174.1
2187.3
-4048.66
2376.4
-3923.16
2557.05
-3812.3
2731.1
-3713.8
2898.14
-3606.78
3054.62
-3461.92
3194.72
-3256.81
3311.94
-2982.77
3400.01
-2644.48
3453.26
-2258.1
3467.22
-1852.61
3440.49
-1475.96
3377.33
-1190.62
3291.2
-1062.14
3207.04
-1132.56
3150.06
-1365.17
3131.75
-1654.35
3146.04
-1885.53
3179.81
-1973.56
3220.11
-1822.46
3247.19
-1236.62
3201.62
177.491
3104.05
1714.15
2998.66
2693.23
2899.71
3172.86
2806.09
3363.64
2714.86
3403.88
2624.53
3364.23
2534.63
3280.98
2445.06
3174.72
2355.9
3058.23
2267.22
2939.83
2179.03
2824.97
2090.95
2717.39
2001.92
2619.99
1910.14
2535.21
1813.45
2464.82
1709.97
2409.19
1598.85
2366.44
1480.79
2332.13
1358.13
2299.57
1234.73
2260.98
1115.6
2209.2
1006.04
2140.71
910.002
2058.89
828.266
1974.89
758.035
1902.16
694.479
1849.11
632.69
1816.15
568.678
1798.19
499.484
1788.33
422.991
1779.88
337.619
1767.48
242.148
1746.92
135.71
1713.88
18.4168
1661.99
-106.577
1579.96
-231.241
1446.91
-358.869
1244.57
-570.839
1094.48
-914.291
1167.47
-1296.69
1337.54
-1659.65
1413.8
-2001.83
1403.92
-2325.3
1327.11
-2635.29
1181.96
-2938.74
971.246
-3243.68
704.31
-3559.09
400.938
-3896.05
91.3943
-4266.4
-183.491
-4675.28
-369.555
-5111.27
-397.132
-5538.05
-192.406
-5899.52
262.231
-6162.08
859.979
-6340.63
1454.95
-6455.97
1964.65
-6530.99
2340.13
-6590.55
2557.19
2629.6
646.453
1096.74
579.282
1057.41
493.482
1189.43
389.232
1345.65
253.229
1544.54
54.2038
1815.71
-124.329
2024.17
-133.83
1680.16
29.0627
-106.161
151.85
-1759.29
283.512
-2701.46
438.123
-3380.7
614.463
-3880.81
808.385
-4225.57
1014.87
-4436.35
1228.92
-4536.98
1445.56
-4548.95
1659.69
-4490.41
1866.78
-4381.19
2064.07
-4245.95
2251.43
-4110.52
2430.82
-3991.69
2604.3
-3887.27
2771.56
-3774.04
2928.84
-3619.2
3069.98
-3397.95
3188.09
-3100.88
3276.45
-2732.85
3328.85
-2310.5
3340.03
-1863.79
3307.57
-1443.5
3234.5
-1117.55
3133.63
-961.28
3032.24
-1031.17
2959.53
-1292.47
2929.35
-1624.18
2933.76
-1889.93
2955.76
-1995.57
2978.75
-1845.44
2979.15
-1237.02
2902.3
254.344
2790.86
1825.59
2688.6
2795.49
2600.9
3260.56
2521.12
3443.42
2444.16
3480.83
2367.75
3440.64
2291.05
3357.68
2213.84
3251.92
2136.2
3135.88
2058.24
3017.78
1979.85
2903.36
1900.26
2796.97
1817.93
2702.32
1730.74
2622.4
1636.65
2558.91
1534.41
2511.43
1424.1
2476.75
1307.35
2448.88
1187.2
2419.73
1067.96
2380.21
954.97
2322.19
853.761
2241.92
768.173
2144.48
698.159
2044.9
639.574
1960.75
586.314
1902.37
532.707
1869.75
474.467
1856.43
408.564
1854.23
332.857
1855.59
245.838
1854.5
146.591
1846.16
35.1964
1825.28
-85.8502
1783.04
-213.144
1707.25
-337.597
1571.37
-490.919
1397.9
-775.445
1379.01
-1172.08
1564.1
-1562.23
1727.69
-1918.22
1769.78
-2250.9
1736.6
-2564.87
1641.09
-2866.66
1483.75
-3163.58
1268.16
-3463.83
1004.56
-3776.15
713.265
-4108.96
424.196
-4469.31
176.86
-4858.83
19.9693
-5266.3
10.3415
-5660.65
201.944
-5996.24
597.819
-6247.52
1111.26
-6421.77
1629.2
-6535.78
2078.66
-6610.27
2414.61
-6669.49
2616.42
2695.69
585.396
1158.92
516.561
1126.24
429.083
1276.9
317.188
1457.54
158.038
1703.69
-48.9883
2022.73
-173.887
2149.07
-143.475
1649.75
5.37655
-255.013
112.175
-1866.09
230.268
-2819.55
370.939
-3521.37
533.882
-4043.75
715.748
-4407.43
912.08
-4632.68
1118.22
-4743.12
1329.17
-4759.9
1539.41
-4700.66
1743.77
-4585.55
1938.92
-4441.09
2124.47
-4296.08
2302.53
-4169.74
2475.48
-4060.23
2643.27
-3941.82
2802.02
-3777.95
2945.28
-3541.2
3065.75
-3221.36
3156.26
-2823.35
3209.91
-2364.16
3220.63
-1874.5
3184.87
-1407.75
3104.2
-1036.88
2990.13
-847.215
2872.07
-913.103
2783.6
-1203.99
2741.54
-1582.12
2736.03
-1884.42
2745.91
-2005.45
2750.81
-1850.35
2721.8
-1208.01
2612.24
363.903
2488.56
1949.27
2391.03
2893.02
2314.96
3336.63
2248.56
3509.82
2185.03
3544.36
2121.51
3504.17
2056.94
3422.25
1991.11
3317.76
1924.12
3202.87
1856.04
3085.86
1786.43
2972.97
1714.01
2869.39
1636.86
2779.48
1552.89
2706.37
1460.62
2651.18
1359.69
2612.36
1251.11
2585.33
1137.14
2562.85
1021.15
2535.71
907.587
2493.78
801.904
2427.87
709.827
2333.99
635.099
2219.2
576.848
2103.15
529.541
2008.05
485.85
1946.06
439.48
1916.12
385.885
1910.03
321.859
1918.26
245.39
1932.06
155.628
1944.26
52.7839
1949.01
-60.9923
1939.06
-185.467
1907.52
-314.137
1835.92
-439.859
1697.09
-647.786
1605.82
-1014.83
1746.05
-1435.19
1984.45
-1810.53
2103.04
-2150.36
2109.62
-2468.06
2054.29
-2768.77
1941.8
-3058.98
1773.96
-3345.53
1554.72
-3636.23
1295.25
-3939.05
1016.08
-4261.12
746.27
-4606.76
522.501
-4974.5
387.712
-5352.88
388.714
-5714.78
563.849
-6024.1
907.138
-6260.79
1347.95