/*--------------------------------*- C++ -*----------------------------------*\
| =========                 |                                                 |
| \\      /  F ield         | OpenFOAM: The Open Source CFD Toolbox           |
|  \\    /   O peration     | Version:  4.1                                   |
|   \\  /    A nd           | Web:      www.OpenFOAM.org                      |
|    \\/     M anipulation  |                                                 |
\*---------------------------------------------------------------------------*/
FoamFile
{
    version     2.0;
    format      ascii;
    class       volVectorField;
    location    "800";
    object      U;
}
// * * * * * * * * * * * * * * * * * * * * * * * * * * * * * * * * * * * * * //

dimensions      [0 1 -1 0 0 0 0];

internalField   nonuniform List<vector> 
26785
(
(2.31767e-15 0.0513569 12.2177)
(2.26626e-15 0.0430836 11.2574)
(2.44182e-15 0.0415842 10.4003)
(2.0764e-15 0.0417871 9.58482)
(1.98533e-15 0.0424738 8.76057)
(-1.12148e-15 0.0418747 7.92878)
(-2.41975e-16 0.0345943 7.18349)
(-1.64172e-15 0.0216235 6.6391)
(4.43346e-15 0.00591325 6.36139)
(-2.35596e-15 -0.0118283 6.39871)
(-6.18943e-16 -0.0244427 6.69269)
(-4.69873e-16 -0.0350638 7.15776)
(2.41703e-16 -0.0444522 7.79543)
(9.2249e-16 -0.0531026 8.62352)
(1.43262e-15 -0.0615595 9.62939)
(1.76765e-15 -0.0694559 10.7697)
(1.98416e-15 -0.0759458 11.9892)
(2.0991e-15 -0.0804916 13.2375)
(2.1471e-15 -0.0831184 14.4772)
(1.85905e-15 -0.0842479 15.6846)
(2.36762e-15 -0.0844118 16.8481)
(2.14005e-15 -0.0839947 17.9642)
(2.74923e-15 -0.0830859 19.0324)
(3.05311e-15 -0.0814798 20.0513)
(3.72084e-15 -0.078828 21.0153)
(4.14438e-15 -0.0748484 21.9147)
(4.09964e-15 -0.0694682 22.7374)
(3.68029e-15 -0.0629058 23.4729)
(4.90989e-15 -0.0557002 24.1149)
(5.90198e-15 -0.0486928 24.6644)
(7.24857e-15 -0.042903 25.1322)
(6.4838e-15 -0.0392322 25.5388)
(6.56712e-15 -0.0381631 25.9108)
(4.69264e-15 -0.0394743 26.2744)
(5.46334e-15 -0.0417988 26.6474)
(6.76548e-15 -0.0420909 27.0306)
(7.71654e-15 -0.0355451 27.3903)
(8.45935e-15 -0.0178616 27.6456)
(8.76721e-15 0.0107682 27.6882)
(9.51948e-15 0.0465786 27.418)
(7.72792e-15 0.0834046 26.7827)
(7.60172e-15 0.112156 25.8279)
(7.77618e-15 0.128971 24.6742)
(9.48761e-15 0.135794 23.4416)
(1.03913e-14 0.136142 22.2105)
(1.18684e-14 0.132954 21.0239)
(1.23121e-14 0.128188 19.9002)
(1.22853e-14 0.123001 18.8438)
(1.20785e-14 0.118005 17.8517)
(1.18237e-14 0.113476 16.9178)
(1.11609e-14 0.109483 16.0352)
(1.06725e-14 0.105983 15.1977)
(1.02949e-14 0.102876 14.3998)
(9.83271e-15 0.100043 13.6373)
(9.31086e-15 0.0973651 12.9073)
(8.93168e-15 0.0947366 12.2078)
(8.13758e-15 0.0920717 11.5376)
(7.42809e-15 0.0893067 10.8962)
(6.96575e-15 0.0863999 10.2833)
(5.47754e-15 0.0833299 9.69917)
(4.58351e-15 0.0800966 9.144)
(3.6824e-15 0.0767279 8.618)
(3.13162e-15 0.0732914 8.12112)
(1.1317e-15 0.0699056 7.65272)
(-2.6217e-16 0.0667372 7.21116)
(-1.46411e-15 0.0639775 6.79363)
(-2.71652e-15 0.061792 6.39607)
(-4.2537e-15 0.0602571 6.01379)
(-6.22861e-15 0.0593057 5.64229)
(-7.84686e-15 0.0587058 5.27838)
(-1.10204e-14 0.0580884 4.92111)
(-1.48172e-14 0.0570148 4.57213)
(-1.72896e-14 0.0550596 4.23569)
(-1.90912e-14 0.0518807 3.91801)
(-2.19723e-14 0.0472543 3.62658)
(-1.94086e-14 0.0410822 3.3694)
(-2.00929e-14 0.0333734 3.15443)
(-2.16353e-14 0.0242697 2.98896)
(-2.25905e-14 0.0140082 2.87926)
(-2.31247e-14 0.0031383 2.82926)
(-2.229e-14 -0.00818046 2.84088)
(-2.73556e-14 -0.0195803 2.91482)
(-2.9814e-14 -0.0308646 3.0497)
(-3.03158e-14 -0.0423456 3.24376)
(-3.44332e-14 -0.0549357 3.49841)
(-3.49302e-14 -0.0697278 3.82094)
(-3.40831e-14 -0.0872877 4.22349)
(-3.14909e-14 -0.107077 4.7186)
(-2.89947e-14 -0.127383 5.31375)
(-2.54309e-14 -0.145139 6.00505)
(-2.12361e-14 -0.155218 6.76882)
(-1.83794e-14 -0.150145 7.54979)
(-1.66583e-14 -0.122737 8.25515)
(-1.56235e-14 -0.0740928 8.76745)
(-1.50812e-14 -0.0195072 9.00764)
(-1.46952e-14 0.0289053 8.96787)
(-1.50593e-14 0.0654545 8.72358)
(-1.52138e-14 0.0880011 8.29763)
(-1.54586e-14 0.097598 7.92315)
(-1.62459e-14 0.0917267 7.22008)
(2.31271e-15 0.13386 12.1283)
(1.75375e-15 0.116723 11.1823)
(2.70514e-15 0.116718 10.3355)
(2.00457e-15 0.120143 9.52674)
(3.36545e-15 0.123923 8.7078)
(-4.0775e-16 0.123479 7.88188)
(5.70008e-15 0.10385 7.13885)
(2.29169e-15 0.0679986 6.57972)
(-1.34212e-15 0.0225126 6.26589)
(5.59566e-17 -0.0303947 6.24883)
(1.93181e-15 -0.0670918 6.47792)
(3.77745e-15 -0.101734 6.93562)
(4.53683e-15 -0.142707 7.7056)
(4.70059e-15 -0.187267 8.79432)
(2.93504e-15 -0.226831 10.1026)
(3.37207e-15 -0.255347 11.5102)
(4.25854e-15 -0.271834 12.9293)
(3.14546e-15 -0.278391 14.3093)
(2.79079e-15 -0.278059 15.6252)
(2.38079e-15 -0.2737 16.8679)
(2.18512e-15 -0.267513 18.0373)
(1.80712e-15 -0.26074 19.138)
(1.26772e-15 -0.253545 20.1757)
(1.63817e-15 -0.245178 21.153)
(1.24861e-15 -0.234484 22.0675)
(2.04246e-15 -0.220532 22.912)
(2.65729e-15 -0.203019 23.6772)
(2.42998e-15 -0.182484 24.3542)
(1.92295e-15 -0.160375 24.9383)
(2.77826e-15 -0.13899 25.4311)
(2.44516e-15 -0.121161 25.8428)
(1.443e-15 -0.109391 26.1927)
(1.60772e-15 -0.104874 26.5059)
(1.535e-15 -0.106678 26.8066)
(2.4774e-15 -0.111138 27.1105)
(2.43733e-15 -0.111167 27.4202)
(2.16322e-15 -0.0945725 27.7162)
(2.13054e-15 -0.0462628 27.9434)
(2.30995e-15 0.0401971 28.0036)
(2.70367e-15 0.156709 27.7577)
(3.92563e-15 0.278886 27.1118)
(2.94847e-15 0.372717 26.1071)
(3.4043e-15 0.425053 24.8779)
(3.0075e-15 0.443175 23.5603)
(3.76048e-15 0.439665 22.2457)
(4.92341e-15 0.42485 20.9833)
(7.1106e-15 0.405457 19.7938)
(8.13853e-15 0.385324 18.6823)
(9.09935e-15 0.366394 17.6454)
(8.96527e-15 0.349463 16.6764)
(8.99283e-15 0.334671 15.7676)
(9.09525e-15 0.321815 14.9119)
(9.11147e-15 0.310528 14.1028)
(8.7616e-15 0.300396 13.3353)
(8.70125e-15 0.29102 12.6055)
(8.26507e-15 0.282047 11.9105)
(7.57447e-15 0.273195 11.2482)
(6.84036e-15 0.26425 10.6172)
(6.87276e-15 0.255068 10.0168)
(6.18676e-15 0.245556 9.44625)
(5.78931e-15 0.235683 8.90539)
(4.09102e-15 0.225505 8.39404)
(2.58366e-15 0.215217 7.91181)
(2.6984e-15 0.205187 7.45767)
(2.2639e-15 0.195951 7.02948)
(1.49819e-15 0.188104 6.62374)
(-1.19967e-16 0.182122 6.23588)
(-8.56197e-16 0.178142 5.86096)
(-8.07757e-15 0.175824 5.49476)
(-1.13332e-14 0.174341 5.13487)
(-1.34966e-14 0.172523 4.78126)
(-1.85172e-14 0.169096 4.43643)
(-2.34103e-14 0.162924 4.10493)
(-2.73233e-14 0.153164 3.79276)
(-2.54162e-14 0.139308 3.50669)
(-3.03889e-14 0.12115 3.25377)
(-3.19269e-14 0.0987047 3.04101)
(-3.16415e-14 0.0723 2.87511)
(-3.71848e-14 0.0424876 2.76213)
(-3.93355e-14 0.010738 2.70607)
(-3.87486e-14 -0.0226505 2.70927)
(-4.19813e-14 -0.056515 2.77365)
(-4.1725e-14 -0.0900699 2.89843)
(-3.47795e-14 -0.124113 3.08198)
(-2.9377e-14 -0.161332 3.32538)
(-2.67503e-14 -0.204851 3.63487)
(-2.41657e-14 -0.256301 4.02285)
(-1.9302e-14 -0.314735 4.50554)
(-1.33293e-14 -0.376066 5.09478)
(-1.19927e-14 -0.431289 5.78742)
(-1.19452e-14 -0.464147 6.55714)
(-1.19773e-14 -0.451034 7.34598)
(-1.15952e-14 -0.36911 8.05867)
(-9.90295e-15 -0.221318 8.57273)
(-8.424e-15 -0.0552028 8.80714)
(-7.03737e-15 0.0922735 8.75675)
(-5.0306e-15 0.203011 8.49961)
(-3.92703e-15 0.269963 8.05879)
(-3.18941e-15 0.298834 7.67397)
(-2.67183e-15 0.278586 6.95291)
(2.34057e-15 0.221557 11.9588)
(3.01091e-15 0.19509 11.0126)
(9.44273e-16 0.194499 10.1637)
(2.51549e-15 0.199713 9.35228)
(3.57384e-15 0.205633 8.53205)
(-1.8306e-16 0.204712 7.70749)
(3.90567e-15 0.172875 6.96681)
(3.11124e-15 0.115353 6.40271)
(4.29787e-15 0.042939 6.04598)
(5.41624e-15 -0.0424541 5.93798)
(6.24921e-15 -0.109595 6.13877)
(5.83232e-15 -0.190007 6.76768)
(4.42015e-15 -0.283424 7.84354)
(3.47257e-15 -0.366569 9.19318)
(3.18429e-15 -0.424327 10.6316)
(1.87492e-15 -0.456228 12.0546)
(3.55024e-15 -0.468543 13.4206)
(2.44424e-15 -0.467961 14.7155)
(2.56111e-15 -0.459716 15.9352)
(1.50308e-15 -0.447659 17.08)
(1.98573e-15 -0.434459 18.1531)
(1.63386e-15 -0.421444 19.1599)
(6.31233e-16 -0.408433 20.1058)
(8.65658e-16 -0.393934 20.9932)
(8.05059e-16 -0.375917 21.8196)
(9.00497e-16 -0.352787 22.5783)
(1.33207e-15 -0.324009 23.26)
(1.02111e-15 -0.290424 23.8562)
(7.47977e-16 -0.254325 24.362)
(5.40575e-16 -0.219382 24.7786)
(4.12608e-16 -0.190161 25.1157)
(-1.177e-15 -0.170749 25.3915)
(-4.54914e-16 -0.163112 25.6311)
(3.86872e-16 -0.165701 25.8593)
(-4.51271e-16 -0.17281 26.0935)
(-1.4543e-15 -0.174473 26.3392)
(-1.72687e-15 -0.153786 26.5834)
(-1.50267e-15 -0.0865227 26.7894)
(-9.72817e-16 0.0445352 26.8934)
(-9.7947e-17 0.23556 26.7829)
(9.86549e-16 0.447464 26.3181)
(1.9217e-15 0.615819 25.4756)
(2.78187e-15 0.712868 24.3622)
(3.39875e-15 0.749079 23.1143)
(3.97673e-15 0.745932 21.8335)
(4.52096e-15 0.721678 20.5806)
(5.19775e-15 0.688409 19.3863)
(5.81438e-15 0.653123 18.2627)
(6.41519e-15 0.619428 17.2114)
(6.8752e-15 0.588883 16.2291)
(7.27534e-15 0.56188 15.3102)
(7.5909e-15 0.538184 14.4486)
(7.81638e-15 0.517266 13.6385)
(7.86468e-15 0.498491 12.8747)
(7.8418e-15 0.481229 12.153)
(7.3875e-15 0.464917 11.4699)
(6.90566e-15 0.449093 10.8227)
(7.05591e-15 0.433398 10.2092)
(6.34549e-15 0.417564 9.62759)
(6.40686e-15 0.401395 9.07684)
(6.11949e-15 0.384788 8.55618)
(5.74872e-15 0.367812 8.06505)
(4.87332e-15 0.350803 7.60264)
(4.43783e-15 0.334433 7.16731)
(2.94869e-15 0.319651 6.75612)
(4.2114e-16 0.307451 6.36479)
(1.09768e-15 0.298515 5.98825)
(-2.0308e-16 0.292876 5.62167)
(-2.79397e-15 0.289747 5.26158)
(-6.37535e-15 0.287611 4.90674)
(-1.03407e-14 0.284528 4.55827)
(-1.55611e-14 0.278533 4.21939)
(-1.78255e-14 0.26797 3.89474)
(-1.88087e-14 0.251669 3.58978)
(-2.1846e-14 0.22893 3.31033)
(-2.49008e-14 0.199441 3.06241)
(-2.69415e-14 0.163138 2.85224)
(-2.80284e-14 0.120415 2.68608)
(-2.85963e-14 0.0719811 2.57021)
(-2.7932e-14 0.0202525 2.50889)
(-2.56911e-14 -0.0345946 2.50484)
(-2.04403e-14 -0.0906796 2.56153)
(-2.00895e-14 -0.146448 2.6791)
(-1.8103e-14 -0.203025 2.85607)
(-1.62204e-14 -0.264489 3.09189)
(-1.37662e-14 -0.336255 3.39334)
(-1.08839e-14 -0.423015 3.78005)
(-1.08036e-14 -0.524527 4.27249)
(-1.32554e-14 -0.631884 4.87302)
(-1.80038e-14 -0.726972 5.56385)
(-1.82023e-14 -0.782273 6.31475)
(-1.60211e-14 -0.760028 7.07797)
(-1.27859e-14 -0.621495 7.7696)
(-9.93433e-15 -0.371032 8.26571)
(-7.6067e-15 -0.0919657 8.48182)
(-5.72991e-15 0.155861 8.41607)
(-3.88918e-15 0.342773 8.14385)
(-2.02787e-15 0.454432 7.68647)
(-4.41134e-16 0.504858 7.28982)
(1.06242e-15 0.46545 6.54972)
(2.28344e-15 0.308421 11.7279)
(3.44452e-15 0.27334 10.7819)
(4.06574e-15 0.27172 9.92954)
(4.28661e-15 0.278158 9.11241)
(3.37562e-15 0.285921 8.28588)
(5.81948e-15 0.284354 7.45823)
(5.93188e-15 0.240608 6.72174)
(3.42848e-15 0.164584 6.14884)
(5.21186e-15 0.0713106 5.70582)
(6.29449e-15 -0.0516284 5.50113)
(5.13098e-15 -0.172347 5.80119)
(3.31764e-15 -0.316081 6.67392)
(2.17925e-15 -0.452723 7.9067)
(4.98454e-15 -0.552602 9.25681)
(3.92205e-15 -0.612454 10.6055)
(4.20318e-15 -0.641777 11.9169)
(4.0527e-15 -0.65052 13.1799)
(3.6081e-15 -0.645812 14.3868)
(2.83714e-15 -0.632716 15.5306)
(3.21892e-15 -0.615221 16.6067)
(3.05358e-15 -0.596385 17.6151)
(2.15685e-15 -0.57782 18.5591)
(1.23396e-15 -0.559243 19.443)
(8.97542e-16 -0.53862 20.269)
(5.61834e-16 -0.513186 21.0345)
(1.06319e-16 -0.480762 21.7329)
(3.75692e-17 -0.44061 22.3549)
(-3.4842e-16 -0.393864 22.8922)
(-9.12104e-16 -0.343627 23.3395)
(-1.18822e-15 -0.294895 23.6977)
(-2.66773e-15 -0.253976 23.9756)
(-4.51983e-15 -0.226639 24.1914)
(-4.24307e-15 -0.215834 24.3706)
(-4.23813e-15 -0.219676 24.5398)
(-2.5593e-15 -0.230534 24.7193)
(-4.6483e-15 -0.235504 24.9176)
(-3.38688e-15 -0.214078 25.1271)
(-2.3009e-15 -0.136612 25.3197)
(-5.24352e-15 0.0220935 25.4484)
(-3.61161e-15 0.268509 25.4198)
(-1.73453e-15 0.562332 25.084)
(-2.02911e-15 0.809148 24.3846)
(-1.57362e-15 0.960618 23.404)
(1.07093e-15 1.02561 22.2667)
(2.62448e-15 1.03206 21.0707)
(3.57619e-15 1.00537 19.8788)
(3.66572e-15 0.963022 18.7263)
(3.44729e-15 0.915555 17.6306)
(4.0555e-15 0.868671 16.5984)
(5.26712e-15 0.825082 15.6303)
(5.98337e-15 0.785749 14.7236)
(6.50605e-15 0.750665 13.8743)
(6.77368e-15 0.719335 13.0778)
(7.02919e-15 0.691051 12.3296)
(7.26742e-15 0.665065 11.6257)
(7.47849e-15 0.640688 10.9624)
(6.78396e-15 0.617331 10.3364)
(7.60689e-15 0.594511 9.74511)
(7.19407e-15 0.571817 9.18624)
(7.59237e-15 0.548913 8.65826)
(7.22304e-15 0.525602 8.16014)
(8.19518e-15 0.501977 7.69097)
(8.10627e-15 0.478573 7.24943)
(7.73302e-15 0.456427 6.83311)
(6.06559e-15 0.436919 6.43827)
(5.63603e-15 0.421364 6.06002)
(3.04883e-15 0.410484 5.69324)
(-2.23326e-15 0.403995 5.33371)
(-5.44918e-15 0.400509 4.97914)
(-9.20618e-15 0.397784 4.62957)
(-1.12739e-14 0.393216 4.28713)
(-1.5098e-14 0.384342 3.95545)
(-1.49813e-14 0.369196 3.63895)
(-1.97763e-14 0.346426 3.34236)
(-2.74861e-14 0.315205 3.07059)
(-2.47304e-14 0.275078 2.82872)
(-2.4913e-14 0.225783 2.62237)
(-1.88705e-14 0.167619 2.45758)
(-1.63657e-14 0.101232 2.34112)
(-1.41579e-14 0.030128 2.27772)
(-1.11501e-14 -0.0458559 2.27043)
(-1.15906e-14 -0.124283 2.3243)
(-1.36901e-14 -0.202556 2.44038)
(-2.018e-14 -0.281382 2.61502)
(-1.76196e-14 -0.366763 2.84752)
(-1.30399e-14 -0.469658 3.15417)
(-1.10644e-14 -0.597328 3.55474)
(-1.69413e-14 -0.742362 4.04238)
(-2.15368e-14 -0.8863 4.59052)
(-2.13108e-14 -1.00774 5.18376)
(-1.63409e-14 -1.07785 5.8239)
(-1.18911e-14 -1.04872 6.50041)
(-8.66347e-15 -0.858867 7.145)
(-7.07775e-15 -0.507836 7.61609)
(-6.10247e-15 -0.121159 7.81196)
(-5.87172e-15 0.222414 7.73649)
(-5.31914e-15 0.483573 7.46668)
(-4.9462e-15 0.638894 7.01685)
(-3.80484e-15 0.712741 6.63406)
(-1.96126e-15 0.650313 5.90736)
(2.36436e-15 0.385471 11.445)
(3.029e-15 0.344604 10.5036)
(2.60292e-15 0.345533 9.65135)
(4.00191e-15 0.35519 8.83066)
(4.0254e-15 0.365363 7.99883)
(-1.28397e-15 0.3626 7.16996)
(5.19897e-15 0.307866 6.43562)
(4.73113e-15 0.219247 5.83023)
(7.63441e-15 0.108639 5.27667)
(6.74639e-15 -0.0674388 5.02377)
(2.06441e-15 -0.258169 5.44999)
(3.32712e-15 -0.457407 6.42378)
(3.76642e-15 -0.619683 7.63364)
(6.33284e-15 -0.728152 8.90318)
(6.23552e-15 -0.79124 10.1746)
(5.51405e-15 -0.821732 11.4258)
(6.11967e-15 -0.829507 12.6389)
(5.71863e-15 -0.821563 13.7981)
(5.34339e-15 -0.803426 14.8919)
(4.92144e-15 -0.779888 15.9146)
(4.40404e-15 -0.754798 16.8665)
(3.57737e-15 -0.730229 17.7521)
(2.88866e-15 -0.705829 18.577)
(2.35894e-15 -0.678998 19.3443)
(2.08895e-15 -0.646173 20.0523)
(1.37998e-15 -0.604542 20.6943)
(2.53078e-15 -0.553123 21.2615)
(1.8214e-15 -0.493288 21.7453)
(5.68143e-16 -0.428896 22.1402)
(2.75058e-16 -0.366233 22.4464)
(2.30119e-16 -0.313381 22.6723)
(4.94789e-16 -0.277927 22.8357)
(1.37908e-15 -0.263993 22.9627)
(2.01574e-16 -0.269555 23.0822)
(7.5876e-16 -0.285307 23.2168)
(1.65564e-15 -0.295801 23.3785)
(1.62394e-15 -0.277214 23.5641)
(1.34885e-15 -0.194219 23.7524)
(7.10613e-16 -0.0132744 23.9073)
(-4.23477e-16 0.281337 23.9476)
(-1.47517e-15 0.651293 23.7113)
(-2.40278e-15 0.973148 23.1189)
(-8.60406e-16 1.17826 22.2449)
(-2.18248e-16 1.27387 21.2091)
(6.57362e-16 1.29348 20.1043)
(1.7038e-15 1.26847 18.9896)
(2.54993e-15 1.22089 17.9001)
(3.16292e-15 1.16437 16.8551)
(3.67654e-15 1.10659 15.864)
(4.78045e-15 1.05149 14.9301)
(5.27877e-15 1.00073 14.0533)
(5.67901e-15 0.954694 13.2314)
(5.94349e-15 0.913063 12.4612)
(6.11698e-15 0.875197 11.7391)
(6.19193e-15 0.840346 11.0613)
(6.7733e-15 0.807782 10.4242)
(6.9923e-15 0.776848 9.82439)
(7.46325e-15 0.746944 9.25873)
(6.69424e-15 0.7175 8.72488)
(6.88521e-15 0.688022 8.22115)
(5.96874e-15 0.658239 7.74632)
(7.45296e-15 0.628325 7.29909)
(7.6087e-15 0.599085 6.87747)
(7.69181e-15 0.571953 6.47831)
(7.67428e-15 0.548686 6.09726)
(2.99447e-15 0.530777 5.72935)
(2.11052e-15 0.518789 5.37)
(-3.98657e-15 0.511956 5.01613)
(-7.29864e-15 0.508222 4.6668)
(-1.38749e-14 0.504688 4.32326)
(-1.73725e-14 0.498247 3.9883)
(-2.17253e-14 0.486133 3.66556)
(-2.00406e-14 0.466228 3.35895)
(-2.47372e-14 0.4371 3.07236)
(-3.10705e-14 0.397807 2.80971)
(-3.50014e-14 0.347704 2.57525)
(-4.02412e-14 0.286198 2.37402)
(-3.19844e-14 0.213328 2.21194)
(-2.96993e-14 0.129404 2.09653)
(-2.19927e-14 0.039252 2.03303)
(-1.79981e-14 -0.0577935 2.02496)
(-2.82114e-14 -0.158921 2.07928)
(-2.42655e-14 -0.259395 2.19579)
(-1.45034e-14 -0.359916 2.36949)
(-6.71504e-15 -0.472437 2.60927)
(-8.62207e-15 -0.610301 2.9246)
(-1.84681e-14 -0.769784 3.28814)
(-2.52782e-14 -0.933159 3.65552)
(-2.30568e-14 -1.08838 4.02115)
(-1.44134e-14 -1.22827 4.4279)
(-8.11414e-15 -1.32645 4.92791)
(-5.6081e-15 -1.31478 5.53151)
(-5.63951e-15 -1.09067 6.15525)
(-6.11433e-15 -0.642184 6.61463)
(-6.48719e-15 -0.152932 6.78601)
(-7.18765e-15 0.279635 6.69885)
(-7.80175e-15 0.609415 6.43886)
(-7.51559e-15 0.803499 6.01061)
(-6.1842e-15 0.899287 5.66187)
(-4.67085e-15 0.815776 4.97522)
(2.36708e-15 0.47339 10.9969)
(2.97047e-15 0.418038 10.0801)
(2.44422e-15 0.41814 9.25051)
(3.99876e-15 0.429859 8.44863)
(4.18833e-15 0.442245 7.63119)
(3.39236e-15 0.438695 6.81101)
(5.14944e-15 0.375897 6.06834)
(1.11264e-14 0.279841 5.41286)
(1.20043e-14 0.151106 4.7674)
(1.26444e-15 -0.0905134 4.47387)
(5.49737e-16 -0.354333 4.96907)
(6.64307e-15 -0.601025 5.98109)
(6.86776e-15 -0.784071 7.18073)
(7.74455e-15 -0.901503 8.4312)
(7.97829e-15 -0.968677 9.68496)
(7.76701e-15 -0.999772 10.9138)
(7.58931e-15 -1.00516 12.0952)
(6.6256e-15 -0.992523 13.2128)
(6.94111e-15 -0.968235 14.2566)
(6.5348e-15 -0.937955 15.2232)
(5.92661e-15 -0.906276 16.1151)
(5.80604e-15 -0.875658 16.9387)
(5.94031e-15 -0.845609 17.7014)
(4.72523e-15 -0.812873 18.4073)
(4.70701e-15 -0.773018 19.0553)
(4.58655e-15 -0.722551 19.6389)
(4.272e-15 -0.660216 20.1489)
(4.64004e-15 -0.58761 20.5763)
(4.11002e-15 -0.509316 20.9154)
(4.82329e-15 -0.432883 21.1662)
(4.8539e-15 -0.368201 21.3367)
(5.48731e-15 -0.324804 21.4451)
(5.21646e-15 -0.308215 21.5187)
(5.18729e-15 -0.316461 21.5886)
(3.55548e-15 -0.338571 21.6804)
(1.57893e-15 -0.356584 21.8081)
(1.15065e-15 -0.344108 21.9714)
(9.18395e-16 -0.261586 22.1542)
(6.83162e-16 -0.0672276 22.3308)
(-3.68364e-16 0.266718 22.4348)
(8.77192e-17 0.710694 22.292)
(1.09392e-15 1.10854 21.7918)
(3.1743e-16 1.36802 21.0047)
(1.59325e-15 1.49515 20.0551)
(1.55166e-15 1.5297 19.0342)
(1.76112e-15 1.50889 17.9976)
(2.24336e-15 1.45884 16.9779)
(2.85063e-15 1.39586 15.9939)
(3.43033e-15 1.32936 15.0558)
(4.04229e-15 1.26442 14.1685)
(4.51414e-15 1.20344 13.3333)
(4.8962e-15 1.14727 12.5495)
(5.09418e-15 1.09589 11.8149)
(5.15115e-15 1.04882 11.1265)
(5.07381e-15 1.00541 10.481)
(5.13116e-15 0.964955 9.87473)
(5.27492e-15 0.926767 9.30417)
(5.67489e-15 0.890118 8.76629)
(4.96508e-15 0.854269 8.25874)
(5.17622e-15 0.818585 7.7798)
(4.86833e-15 0.782782 7.328)
(6.08797e-15 0.747196 6.90151)
(6.65547e-15 0.712943 6.49763)
(7.01738e-15 0.681813 6.11266)
(5.42458e-15 0.655814 5.74218)
(1.76556e-15 0.636426 5.3818)
(-3.39513e-15 0.623883 5.02809)
(-1.01186e-14 0.616846 4.67942)
(-1.29041e-14 0.612627 4.33618)
(-1.95729e-14 0.607814 4.00045)
(-2.22172e-14 0.59899 3.67522)
(-2.71005e-14 0.583262 3.36374)
(-2.87042e-14 0.558484 3.06909)
(-3.11769e-14 0.523198 2.79415)
(-2.60935e-14 0.476343 2.54186)
(-2.90087e-14 0.417017 2.31556)
(-3.45381e-14 0.344156 2.11981)
(-3.02725e-14 0.257344 1.96042)
(-2.9601e-14 0.156206 1.84605)
(-2.87667e-14 0.0471956 1.78227)
(-2.53655e-14 -0.0709472 1.77378)
(-1.15228e-14 -0.194811 1.82858)
(1.73676e-15 -0.317088 1.94516)
(1.56683e-14 -0.442337 2.12665)
(3.50984e-15 -0.582668 2.36652)
(-1.91002e-14 -0.735751 2.60919)
(-2.69766e-14 -0.888776 2.7903)
(-2.22169e-14 -1.04185 2.91682)
(-1.17725e-14 -1.20992 3.06793)
(-5.10607e-15 -1.39431 3.32904)
(-3.52036e-15 -1.55327 3.74619)
(-6.41418e-15 -1.58459 4.30935)
(-8.50324e-15 -1.33365 4.90355)
(-9.95106e-15 -0.779846 5.32131)
(-1.23738e-14 -0.189233 5.43229)
(-1.45133e-14 0.326744 5.3233)
(-1.32541e-14 0.719715 5.08189)
(-1.1192e-14 0.94896 4.68959)
(-9.99255e-15 1.06442 4.39784)
(-7.89621e-15 0.961386 3.776)
(2.40647e-15 0.545237 10.5788)
(2.24381e-15 0.483419 9.65277)
(3.56203e-15 0.485382 8.81684)
(4.25855e-15 0.499906 8.01393)
(4.68067e-15 0.515134 7.20068)
(2.2639e-15 0.512409 6.38196)
(3.07527e-15 0.444613 5.62515)
(5.56995e-15 0.344748 4.93361)
(-6.47507e-16 0.198077 4.19892)
(-2.40878e-15 -0.11674 3.83349)
(5.64497e-15 -0.460424 4.43555)
(7.38785e-15 -0.751843 5.5375)
(8.24674e-15 -0.951743 6.77154)
(8.33347e-15 -1.07564 8.02983)
(8.21085e-15 -1.14476 9.27577)
(7.22957e-15 -1.17447 10.4834)
(7.59126e-15 -1.17579 11.6323)
(7.13684e-15 -1.15712 12.7084)
(6.94432e-15 -1.12563 13.7038)
(6.82401e-15 -1.08781 14.6168)
(6.84286e-15 -1.04901 15.4515)
(7.79859e-15 -1.01208 16.2161)
(6.98161e-15 -0.976346 16.9192)
(6.11691e-15 -0.937811 17.5661)
(5.94721e-15 -0.891072 18.1559)
(5.33781e-15 -0.83189 18.6817)
(6.41167e-15 -0.758715 19.1337)
(7.35837e-15 -0.67338 19.5025)
(5.05183e-15 -0.581211 19.7819)
(4.77134e-15 -0.491043 19.9718)
(4.67867e-15 -0.41465 20.0803)
(4.3488e-15 -0.363663 20.1264)
(3.72841e-15 -0.345192 20.1394)
(3.13187e-15 -0.357458 20.1533)
(3.12533e-15 -0.387786 20.1967)
(2.05689e-15 -0.415566 20.2855)
(2.10598e-15 -0.412092 20.4207)
(2.09432e-15 -0.334549 20.5891)
(1.98946e-15 -0.133596 20.7742)
(8.90813e-16 0.231577 20.9266)
(1.6569e-15 0.746453 20.8683)
(7.5986e-16 1.22099 20.4506)
(1.18311e-15 1.53499 19.7381)
(1.25037e-15 1.69325 18.863)
(1.21307e-15 1.74283 17.9179)
(1.46077e-15 1.72715 16.956)
(2.01205e-15 1.67618 16.0069)
(1.89079e-15 1.6085 15.0878)
(1.97772e-15 1.53498 14.2087)
(2.01711e-15 1.4617 13.3748)
(2.34077e-15 1.39175 12.5884)
(3.0494e-15 1.32646 11.8494)
(3.98897e-15 1.26615 11.1563)
(4.58724e-15 1.21058 10.5067)
(4.73324e-15 1.15925 9.89729)
(4.60244e-15 1.11153 9.32455)
(4.22527e-15 1.06669 8.78508)
(4.723e-15 1.02385 8.27603)
(3.7424e-15 0.982123 7.79519)
(3.62396e-15 0.940808 7.34076)
(3.26644e-15 0.89969 6.9108)
(3.50992e-15 0.85932 6.50281)
(3.64345e-15 0.821091 6.11358)
(6.03268e-15 0.787022 5.73938)
(5.13213e-15 0.759185 5.37644)
(4.41176e-15 0.738881 5.02164)
(-2.03143e-15 0.725918 4.6731)
(-1.17474e-14 0.718404 4.33064)
(-1.38321e-14 0.713152 3.99564)
(-2.14874e-14 0.706431 3.67046)
(-2.04248e-14 0.694703 3.35776)
(-2.57179e-14 0.675088 3.05997)
(-2.64795e-14 0.645489 2.7791)
(-2.6458e-14 0.60444 2.51693)
(-2.47247e-14 0.550731 2.27537)
(-1.67431e-14 0.483129 2.05693)
(-9.11415e-15 0.39994 1.8657)
(-6.08997e-15 0.300063 1.70747)
(-8.61154e-15 0.181998 1.59259)
(-9.98045e-15 0.0541672 1.52666)
(2.51516e-15 -0.0849283 1.51637)
(1.63998e-15 -0.231717 1.56914)
(-1.70625e-15 -0.378619 1.69341)
(-5.01889e-15 -0.525927 1.86844)
(-1.50012e-14 -0.664907 2.00479)
(-2.20836e-14 -0.786658 2.01778)
(-1.96486e-14 -0.91009 1.93344)
(-9.57138e-15 -1.07191 1.86616)
(-3.84199e-15 -1.28913 1.90895)
(-3.41705e-15 -1.54217 2.09357)
(-7.07736e-15 -1.77101 2.42658)
(-1.02411e-14 -1.84624 2.89068)
(-1.17487e-14 -1.56118 3.36042)
(-1.51918e-14 -0.886373 3.67596)
(-1.80629e-14 -0.22856 3.69571)
(-2.02422e-14 0.354454 3.569)
(-1.92239e-14 0.797524 3.38293)
(-1.73006e-14 1.04822 3.0681)
(-1.41933e-14 1.17722 2.88236)
(-1.08295e-14 1.07263 2.34781)
(2.25668e-15 0.618701 10.1508)
(2.52976e-15 0.550588 9.22905)
(3.98167e-15 0.553202 8.38674)
(4.28478e-15 0.56941 7.57235)
(4.40393e-15 0.586737 6.7491)
(4.33145e-15 0.585042 5.92012)
(4.39734e-15 0.513736 5.15085)
(-8.50992e-16 0.415107 4.42982)
(-6.38033e-16 0.249481 3.5622)
(3.57933e-15 -0.151537 3.1827)
(6.46827e-15 -0.583928 3.99363)
(7.35372e-15 -0.911572 5.19168)
(7.04106e-15 -1.12155 6.44254)
(6.70202e-15 -1.24895 7.69332)
(6.17078e-15 -1.31834 8.92141)
(6.56412e-15 -1.34535 10.1034)
(5.52676e-15 -1.34146 11.2202)
(4.98747e-15 -1.31575 12.2589)
(4.94085e-15 -1.27616 13.2123)
(5.08874e-15 -1.23005 14.0796)
(5.2858e-15 -1.18355 14.8655)
(5.85051e-15 -1.13993 15.5795)
(5.11377e-15 -1.09831 16.2313)
(4.62476e-15 -1.05386 16.8269)
(4.72149e-15 -1.00011 17.3655)
(4.51079e-15 -0.931997 17.8397)
(4.7388e-15 -0.847668 18.2387)
(3.56847e-15 -0.749213 18.5522)
(3.03636e-15 -0.642745 18.7737)
(3.1448e-15 -0.538443 18.9023)
(3.69796e-15 -0.450092 18.9464)
(3.97908e-15 -0.391618 18.9259)
(4.18604e-15 -0.371965 18.8725)
(4.70201e-15 -0.389666 18.8238)
(5.39894e-15 -0.430153 18.8121)
(4.49712e-15 -0.469847 18.8553)
(4.11041e-15 -0.477947 18.9548)
(4.1556e-15 -0.409724 19.0986)
(4.28181e-15 -0.209397 19.277)
(2.88668e-15 0.178895 19.458)
(3.64271e-15 0.760317 19.468)
(3.54626e-15 1.3126 19.1207)
(4.27018e-15 1.68167 18.4726)
(3.07724e-15 1.87051 17.6632)
(1.92805e-15 1.93462 16.7876)
(1.59978e-15 1.92422 15.8966)
(1.79314e-15 1.8731 15.017)
(2.03793e-15 1.80188 14.164)
(1.84505e-15 1.72267 13.3466)
(1.57753e-15 1.64233 12.5698)
(1.94226e-15 1.56459 11.836)
(2.3855e-15 1.49124 11.1457)
(3.35664e-15 1.42296 10.4976)
(4.37924e-15 1.35979 9.88935)
(4.94809e-15 1.30141 9.31791)
(5.2413e-15 1.24725 8.77989)
(4.40686e-15 1.1965 8.27217)
(4.74108e-15 1.14817 7.79215)
(3.97446e-15 1.10127 7.33767)
(4.51682e-15 1.05512 6.90656)
(4.16259e-15 1.00966 6.49624)
(3.73503e-15 0.965625 6.10365)
(3.06693e-15 0.924547 5.72552)
(3.03213e-15 0.888479 5.35888)
(2.45823e-15 0.859383 5.00138)
(2.05738e-15 0.838281 4.65166)
(-4.09744e-15 0.824577 4.30948)
(-1.43886e-14 0.815963 3.97574)
(-1.97359e-14 0.808949 3.65218)
(-2.6085e-14 0.799688 3.34081)
(-2.4424e-14 0.784675 3.04344)
(-2.65245e-14 0.761127 2.76133)
(-2.72569e-14 0.727022 2.49536)
(-2.75011e-14 0.680872 2.24615)
(-2.05369e-14 0.62127 2.01467)
(-1.63659e-14 0.546564 1.80265)
(-5.67888e-15 0.454285 1.61388)
(5.41961e-15 0.342355 1.45408)
(5.60528e-15 0.207568 1.33591)
(7.50465e-15 0.0608739 1.26547)
(3.70837e-15 -0.0991089 1.24878)
(-1.64591e-14 -0.271877 1.30468)
(-2.58428e-14 -0.439018 1.42386)
(-1.85324e-14 -0.5718 1.47639)
(-1.37588e-14 -0.658502 1.35133)
(-1.90648e-14 -0.73831 1.10097)
(-1.30184e-14 -0.872984 0.874845)
(-3.94294e-15 -1.08394 0.752945)
(-4.96264e-15 -1.35547 0.730461)
(-6.80154e-15 -1.66209 0.800613)
(-9.9333e-15 -1.94663 0.975182)
(-1.12443e-14 -2.05608 1.24228)
(-1.4617e-14 -1.73769 1.49455)
(-2.29516e-14 -0.940472 1.70643)
(-3.27731e-14 -0.273716 1.71481)
(-3.18782e-14 0.332826 1.59327)
(-2.7024e-14 0.824953 1.48326)
(-2.15326e-14 1.1039 1.22457)
(-1.81371e-14 1.24787 1.1931)
(-1.31493e-14 1.15994 0.775997)
(4.13997e-15 0.690187 9.70114)
(3.25186e-15 0.616889 8.79152)
(3.89069e-15 0.62029 7.95154)
(4.3952e-15 0.638413 7.13001)
(3.64964e-15 0.65797 6.29482)
(4.43938e-15 0.657149 5.45218)
(9.20888e-15 0.583906 4.67359)
(6.22792e-15 0.494434 3.90227)
(3.83841e-15 0.303994 2.86277)
(6.90164e-15 -0.206212 2.6312)
(5.09956e-15 -0.725339 3.66848)
(5.40568e-15 -1.07521 4.89844)
(4.27194e-15 -1.29049 6.13001)
(3.44109e-15 -1.42058 7.35792)
(2.57725e-15 -1.48985 8.56225)
(1.87152e-15 -1.51363 9.71831)
(1.45041e-15 -1.50392 10.8067)
(6.03364e-16 -1.47051 11.8144)
(1.22183e-15 -1.42212 12.7342)
(1.97373e-15 -1.36704 13.5652)
(2.0137e-15 -1.31224 14.3127)
(2.63992e-15 -1.26146 14.9866)
(1.93568e-15 -1.21361 15.5976)
(3.23045e-15 -1.16295 16.1524)
(3.47339e-15 -1.10184 16.65)
(3.1515e-15 -1.02431 17.0821)
(2.23107e-15 -0.928192 17.4371)
(4.04798e-15 -0.815839 17.7035)
(4.90191e-15 -0.694183 17.8738)
(4.81561e-15 -0.574814 17.9465)
(7.2451e-15 -0.473682 17.9294)
(6.84903e-15 -0.407269 17.8433)
(6.59873e-15 -0.386668 17.722)
(7.54822e-15 -0.410924 17.6076)
(7.75596e-15 -0.46339 17.5368)
(6.79886e-15 -0.517029 17.5302)
(6.74579e-15 -0.538799 17.5892)
(7.76702e-15 -0.482946 17.7015)
(8.3785e-15 -0.28884 17.8611)
(7.0397e-15 0.114847 18.052)
(4.08402e-15 0.757239 18.1098)
(1.23215e-15 1.38689 17.8176)
(2.46519e-15 1.81059 17.2233)
(2.20913e-15 2.02886 16.4727)
(1.78098e-15 2.10651 15.6618)
(1.51647e-15 2.10106 14.8388)
(1.54568e-15 2.05013 14.0273)
(1.8324e-15 1.97616 13.2403)
(1.978e-15 1.89224 12.4854)
(1.9614e-15 1.80596 11.7673)
(2.06668e-15 1.72153 11.088)
(2.3187e-15 1.64121 10.4481)
(3.0018e-15 1.56601 9.84634)
(3.95107e-15 1.49628 9.28045)
(4.79519e-15 1.43184 8.74746)
(5.69152e-15 1.37215 8.24428)
(5.37085e-15 1.31632 7.76814)
(5.31615e-15 1.2633 7.31664)
(4.54795e-15 1.21211 6.88733)
(3.59195e-15 1.16219 6.4774)
(2.75783e-15 1.1136 6.08361)
(3.12955e-15 1.06713 5.70276)
(2.85598e-15 1.02423 5.33233)
(2.33278e-15 0.986789 4.97092)
(-1.35753e-15 0.956541 4.61826)
(-3.6716e-15 0.934262 4.27488)
(-9.17948e-15 0.919103 3.94183)
(-1.87614e-14 0.908557 3.62043)
(-2.47146e-14 0.899049 3.31202)
(-2.95649e-14 0.886783 3.01765)
(-2.7259e-14 0.868376 2.73786)
(-2.69657e-14 0.841164 2.47265)
(-2.57323e-14 0.803179 2.2217)
(-2.9039e-14 0.752874 1.98466)
(-3.2775e-14 0.688586 1.76165)
(-2.15479e-14 0.608165 1.55376)
(-2.02928e-15 0.508228 1.36455)
(2.2067e-15 0.385451 1.1997)
(1.33531e-14 0.233876 1.07452)
(1.73091e-14 0.0685103 0.996588)
(8.85877e-15 -0.114281 0.970882)
(-2.91265e-14 -0.310366 1.02925)
(-2.56981e-14 -0.457865 1.02889)
(5.28526e-15 -0.521987 0.803429)
(-1.2511e-14 -0.560089 0.433841)
(-2.14184e-14 -0.658395 0.104183)
(-1.05276e-14 -0.838731 -0.133768)
(-2.85305e-15 -1.07921 -0.321144)
(-5.06401e-15 -1.37649 -0.464207)
(-8.66717e-15 -1.7175 -0.553194)
(-1.00585e-14 -2.04109 -0.58438)
(-1.12413e-14 -2.17849 -0.576352)
(-1.76559e-14 -1.86182 -0.561249)
(-2.67194e-14 -0.995009 -0.396674)
(-3.1665e-14 -0.123737 -0.184068)
(-3.92913e-14 0.418248 -0.438743)
(-3.04388e-14 0.856801 -0.514853)
(-2.28917e-14 1.10299 -0.619774)
(-2.01812e-14 1.20492 -0.446332)
(-1.47594e-14 1.20507 -0.758984)
(2.61289e-15 0.751902 9.23981)
(3.02841e-15 0.678346 8.34904)
(2.98603e-15 0.685822 7.51603)
(3.87511e-15 0.707061 6.69046)
(3.70092e-15 0.729143 5.8445)
(5.18874e-15 0.728943 4.9896)
(4.0992e-15 0.65706 4.19799)
(5.58431e-15 0.585549 3.33326)
(2.75812e-15 0.356401 2.12532)
(2.62022e-15 -0.28864 2.21509)
(4.28406e-15 -0.877473 3.39239)
(2.57145e-15 -1.23761 4.59088)
(6.87224e-16 -1.45749 5.78628)
(8.60395e-16 -1.591 6.98733)
(-1.62732e-15 -1.6603 8.16782)
(-2.00249e-15 -1.68069 9.30052)
(-2.41763e-15 -1.66485 10.3653)
(-2.90227e-15 -1.6233 11.3485)
(-1.97131e-15 -1.56559 12.2427)
(-1.72447e-15 -1.50097 13.0464)
(-1.36567e-15 -1.43735 13.7648)
(-8.45913e-16 -1.37897 14.4086)
(-8.32824e-16 -1.32454 14.989)
(2.42136e-16 -1.26735 15.5133)
(1.2718e-15 -1.19846 15.9801)