/*--------------------------------*- C++ -*----------------------------------*\
| =========                 |                                                 |
| \\      /  F ield         | OpenFOAM: The Open Source CFD Toolbox           |
|  \\    /   O peration     | Version:  4.1                                   |
|   \\  /    A nd           | Web:      www.OpenFOAM.org                      |
|    \\/     M anipulation  |                                                 |
\*---------------------------------------------------------------------------*/
FoamFile
{
    version     2.0;
    format      ascii;
    class       volScalarField;
    location    "100";
    object      epsilon;
}
// * * * * * * * * * * * * * * * * * * * * * * * * * * * * * * * * * * * * * //

dimensions      [0 2 -3 0 0 0 0];

internalField   nonuniform List<scalar> 
6820
(
115.949
152.041
190.655
230.195
269.171
306.28
340.474
371.025
397.532
419.871
438.14
452.586
463.554
471.436
476.638
479.553
480.548
479.952
478.057
475.112
471.33
466.885
461.923
456.556
450.873
444.937
438.79
432.448
425.909
419.143
412.082
404.782
399.299
9.48523
17.5562
23.8179
29.3636
34.5987
39.624
44.4426
49.0308
53.3584
57.399
61.1359
64.5645
67.6915
70.532
73.1082
75.446
77.5736
79.5202
81.3142
82.9832
84.5541
86.0528
87.5045
88.9338
90.3659
91.828
93.3505
94.9694
96.7288
98.6932
100.92
103.552
106.657
4.14141
5.59576
6.98243
8.20756
9.27613
10.2148
11.0471
11.7908
12.4599
13.0657
13.6172
14.122
14.5861
15.0146
15.4118
15.7813
16.1263
16.4495
16.754
17.0405
17.3199
17.5965
17.8723
18.1493
18.4297
18.7165
19.0133
19.3249
19.6579
20.0221
20.4305
20.9062
21.4643
3.6012
3.91787
4.33085
4.75738
5.15964
5.52534
5.85269
6.14373
6.40178
6.63039
6.83302
7.0128
7.17259
7.31485
7.44176
7.55517
7.65669
7.74763
7.82989
7.90441
7.9723
8.03461
8.09219
8.14571
8.19571
8.24258
8.28658
8.32787
8.36648
8.40219
8.43507
8.46368
8.48452
3.52798
3.56981
3.67471
3.81734
3.97473
4.13258
4.28353
4.4242
4.55329
4.67063
4.77666
4.87207
4.95767
5.03432
5.10286
5.16406
5.21867
5.26735
5.31076
5.3495
5.38411
5.41507
5.44287
5.46792
5.49059
5.51123
5.53012
5.5475
5.56355
5.57837
5.59203
5.60414
5.61371
3.51971
3.49572
3.49764
3.52371
3.5674
3.62171
3.68097
3.74133
3.80038
3.85672
3.90954
3.95846
4.00338
4.04433
4.08146
4.11498
4.14512
4.17212
4.19625
4.21775
4.23687
4.25398
4.26935
4.28321
4.29576
4.30722
4.31778
4.32766
4.33707
4.34619
4.35525
4.36435
4.3735
3.51928
3.48173
3.45289
3.43485
3.42774
3.42983
3.43884
3.45257
3.4692
3.48733
3.50595
3.52438
3.54214
3.55892
3.57454
3.58892
3.602
3.61381
3.62439
3.63379
3.6421
3.64941
3.65583
3.66148
3.66648
3.67094
3.67498
3.67873
3.68232
3.68585
3.68948
3.69328
3.69732
3.51938
3.47956
3.44297
3.4108
3.3839
3.36254
3.34631
3.33449
3.32624
3.32077
3.31737
3.31546
3.31456
3.31431
3.31442
3.31469
3.31497
3.31515
3.31515
3.31494
3.31448
3.31378
3.31285
3.31173
3.31049
3.30918
3.30781
3.30646
3.30515
3.30394
3.3029
3.30204
3.30134
3.51942
3.47931
3.44106
3.40502
3.37159
3.34114
3.31383
3.28957
3.26817
3.24936
3.23278
3.21811
3.20503
3.19328
3.18262
3.17284
3.16379
3.15532
3.14733
3.13974
3.13248
3.12549
3.11874
3.11221
3.10589
3.09978
3.09388
3.08819
3.08274
3.07752
3.07257
3.06785
3.06341
3.51943
3.4793
3.44073
3.40379
3.36854
3.33514
3.30372
3.27433
3.24695
3.22154
3.19797
3.17613
3.15584
3.13698
3.11938
3.1029
3.08744
3.07286
3.05908
3.04601
3.03358
3.02171
3.01037
2.99951
2.98909
2.97908
2.96949
2.96028
2.95146
2.94303
2.93499
2.92738
2.9202
3.51943
3.47931
3.44067
3.40354
3.36784
3.3336
3.30085
3.2696
3.23985
3.21157
3.18476
3.15935
3.13528
3.11248
3.09089
3.07042
3.05099
3.03253
3.01497
2.99823
2.98225
2.96698
2.95238
2.93838
2.92496
2.91208
2.89972
2.88783
2.8764
2.86542
2.85494
2.84496
2.83549
3.51944
3.47931
3.44065
3.40347
3.36768
3.33323
3.30011
3.26828
3.23772
3.20839
3.18029
3.15336
3.12759
3.10292
3.07931
3.05672
3.0351
3.0144
2.99458
2.97558
2.95736
2.93988
2.9231
2.90698
2.8915
2.87661
2.86229
2.84853
2.83529
2.82257
2.81036
2.79867
2.78748
3.51944
3.4793
3.44064
3.40344
3.36762
3.33312
3.2999
3.26791
3.2371
3.20742
3.17885
3.15134
3.12487
3.09939
3.07487
3.05129
3.02859
3.00675
2.98574
2.96551
2.94603
2.92728
2.90922
2.89182
2.87506
2.85891
2.84334
2.82834
2.81389
2.79998
2.78658
2.77371
2.76134
3.51944
3.4793
3.44063
3.40342
3.36759
3.33307
3.29983
3.26779
3.2369
3.20713
3.17841
3.15071
3.12399
3.09822
3.07335
3.04936
3.02621
3.00387
2.98231
2.9615
2.94141
2.92201
2.90329
2.8852
2.86774
2.85088
2.8346
2.81887
2.80369
2.78904
2.77491
2.76129
2.74815
3.51944
3.4793
3.44062
3.4034
3.36756
3.33304
3.29979
3.26773
3.23682
3.20701
3.17825
3.15049
3.12369
3.09781
3.07281
3.04867
3.02534
3.00279
2.981
2.95993
2.93957
2.91987
2.90083
2.88241
2.8646
2.84738
2.83072
2.81461
2.79903
2.78398
2.76942
2.75536
2.74178
3.51944
3.4793
3.44061
3.40339
3.36755
3.33302
3.29975
3.26769
3.23678
3.20695
3.17817
3.15039
3.12357
3.09766
3.07262
3.04842
3.02503
3.00242
2.98054
2.95938
2.93891
2.9191
2.89993
2.88138
2.86342
2.84603
2.8292
2.81291
2.79714
2.78188
2.76712
2.75283
2.73901
3.51944
3.47929
3.44061
3.40338
3.36753
3.333
3.29973
3.26766
3.23674
3.20691
3.17812
3.15033
3.1235
3.09757
3.07252
3.04831
3.0249
3.00226
2.98035
2.95916
2.93865
2.9188
2.89957
2.88096
2.86294
2.84549
2.82859
2.81222
2.79636
2.781
2.76613
2.75173
2.73779
3.51944
3.47929
3.44061
3.40337
3.36752
3.33299
3.29971
3.26764
3.23671
3.20688
3.17808
3.15029
3.12345
3.09752
3.07246
3.04825
3.02483
3.00218
2.98027
2.95906
2.93854
2.91868
2.89944
2.88081
2.86277
2.8453
2.82837
2.81197
2.79608
2.78068
2.76576
2.75131
2.73731
3.51944
3.47929
3.4406
3.40337
3.36751
3.33298
3.2997
3.26762
3.23669
3.20685
3.17805
3.15026
3.12341
3.09748
3.07242
3.0482
3.02478
3.00212
2.98021
2.959
2.93848
2.91861
2.89937
2.88073
2.86268
2.8452
2.82826
2.81185
2.79594
2.78052
2.76558
2.7511
2.73706
3.51944
3.47929
3.4406
3.40336
3.36751
3.33297
3.29969
3.26761
3.23667
3.20683
3.17803
3.15023
3.12338
3.09745
3.07238
3.04816
3.02474
3.00208
2.98017
2.95896
2.93844
2.91856
2.89932
2.88069
2.86264
2.84515
2.82821
2.81179
2.79587
2.78045
2.76549
2.751
2.73694
3.51944
3.47929
3.4406
3.40336
3.3675
3.33296
3.29968
3.26759
3.23666
3.20681
3.17801
3.15021
3.12336
3.09742
3.07236
3.04813
3.02471
3.00205
2.98014
2.95893
2.9384
2.91853
2.89929
2.88065
2.8626
2.84511
2.82816
2.81174
2.79582
2.78038
2.76542
2.75091
2.73683
3.51944
3.47929
3.4406
3.40336
3.3675
3.33296
3.29967
3.26759
3.23665
3.2068
3.17799
3.15019
3.12334
3.0974
3.07234
3.04811
3.02468
3.00203
2.98011
2.9589
2.93838
2.91851
2.89926
2.88063
2.86257
2.84508
2.82813
2.8117
2.79577
2.78033
2.76536
2.75084
2.73675
3.51944
3.47929
3.4406
3.40336
3.3675
3.33296
3.29967
3.26758
3.23664
3.20679
3.17798
3.15018
3.12333
3.09739
3.07232
3.04809
3.02467
3.00201
2.9801
2.95889
2.93836
2.91849
2.89924
2.88061
2.86255
2.84506
2.8281
2.81167
2.79574
2.78029
2.76531
2.75078
2.73668
3.51944
3.47929
3.4406
3.40336
3.3675
3.33295
3.29967
3.26758
3.23663
3.20678
3.17798
3.15017
3.12332
3.09738
3.07231
3.04808
3.02466
3.002
2.98009
2.95888
2.93835
2.91848
2.89923
2.88059
2.86254
2.84504
2.82808
2.81165
2.79571
2.78026
2.76527
2.75073
2.73662
3.51944
3.47929
3.4406
3.40336
3.3675
3.33295
3.29966
3.26758
3.23663
3.20678
3.17798
3.15017
3.12331
3.09738
3.07231
3.04808
3.02466
3.002
2.98009
2.95888
2.93835
2.91848
2.89924
2.8806
2.86254
2.84504
2.82809
2.81165
2.79571
2.78025
2.76526
2.75071
2.73659
3.51944
3.47929
3.4406
3.40336
3.3675
3.33296
3.29967
3.26758
3.23663
3.20678
3.17798
3.15017
3.12332
3.09738
3.07232
3.04809
3.02467
3.00201
2.9801
2.95889
2.93836
2.91849
2.89924
2.8806
2.86255
2.84505
2.82808
2.81164
2.7957
2.78024
2.76524
2.75068
2.73656
3.51944
3.47929
3.4406
3.40336
3.3675
3.33296
3.29967
3.26758
3.23664
3.20679
3.17798
3.15018
3.12333
3.09739
3.07233
3.04811
3.02469
3.00204
2.98012
2.95892
2.9384
2.91853
2.89929
2.88065
2.86259
2.8451
2.82814
2.8117
2.79575
2.78029
2.76529
2.75074
2.73661
3.51944
3.47929
3.4406
3.40336
3.3675
3.33296
3.29967
3.26758
3.23664
3.2068
3.178
3.15019
3.12334
3.09741
3.07235
3.04813
3.02471
3.00206
2.98014
2.95894
2.93842
2.91855
2.89931
2.88067
2.86261
2.84511
2.82815
2.81171
2.79576
2.78029
2.76529
2.75073
2.73659
3.51944
3.47929
3.4406
3.40336
3.36751
3.33296
3.29968
3.26759
3.23666
3.20681
3.17802
3.15022
3.12338
3.09745
3.07239
3.04818
3.02477
3.00213
2.98022
2.95903
2.93851
2.91865
2.89942
2.88079
2.86274
2.84525
2.82829
2.81185
2.79591
2.78045
2.76545
2.75089
2.73675
3.51944
3.47929
3.4406
3.40337
3.36751
3.33297
3.29969
3.2676
3.23667
3.20683
3.17803
3.15023
3.12339
3.09746
3.07241
3.04819
3.02478
3.00214
2.98023
2.95904
2.93852
2.91866
2.89943
2.8808
2.86275
2.84526
2.8283
2.81186
2.79592
2.78046
2.76546
2.7509
2.73677
3.51944
3.47929
3.44061
3.40337
3.36751
3.33298
3.2997
3.26762
3.2367
3.20687
3.17809
3.1503
3.12348
3.09757
3.07253
3.04834
3.02494
3.00232
2.98044
2.95926
2.93876
2.91892
2.89971
2.8811
2.86307
2.84559
2.82866
2.81224
2.79632
2.78087
2.76589
2.75135
2.73723
3.51944
3.47929
3.44061
3.40337
3.36752
3.33299
3.29971
3.26763
3.2367
3.20687
3.17808
3.1503
3.12347
3.09756
3.07253
3.04834
3.02496
3.00235
2.98049
2.95933
2.93886
2.91905
2.89987
2.88129
2.8633
2.84587
2.82898
2.81261
2.79673
2.78134
2.76641
2.75193
2.73787
3.51944
3.4793
3.44061
3.40338
3.36754
3.33302
3.29978
3.26774
3.23687
3.20709
3.17837
3.15065
3.1239
3.09807
3.07313
3.04903
3.02575
3.00324
2.98149
2.96046
2.94012
2.92044
2.9014
2.88297
2.86514
2.84787
2.83114
2.81494
2.79924
2.78403
2.76928
2.75498
2.7411
3.51944
3.4793
3.44062
3.40339
3.36755
3.33307
3.29986
3.26789
3.23709
3.20743
3.17884
3.15129
3.12473
3.09912
3.07444
3.05063
3.02768
3.00554
2.98419
2.96358
2.94369
2.92449
2.90594
2.88802
2.87071
2.85397
2.83779
2.82213
2.80698
2.79232
2.77813
2.76439
2.75107
3.51943
3.4793
3.44067
3.40357
3.36795
3.33376
3.30096
3.2695
3.23934
3.21043
3.18272
3.15617
3.13073
3.10634
3.08295
3.06053
3.03901
3.01836
2.99853
2.97947
2.96116
2.94354
2.92659
2.91026
2.89453
2.87936
2.86473
2.85061
2.83697
2.8238
2.81106
2.79874
2.78681
3.51942
3.47943
3.44121
3.40492
3.37063
3.33832
3.30793
3.27939
3.25261
3.22749
3.20391
3.18175
3.16088
3.14122
3.12265
3.10509
3.08845
3.07266
3.05764
3.04332
3.02965
3.01656
3.00402
2.99198
2.9804
2.96925
2.95851
2.94813
2.9381
2.9284
2.91901
2.90991
2.90108
3.5196
3.48204
3.44944
3.42187
3.39892
3.38009
3.36479
3.35242
3.34243
3.33435
3.3278
3.32244
3.31801
3.31428
3.31108
3.30827
3.30574
3.30341
3.30119
3.29905
3.29693
3.29481
3.29266
3.29047
3.28823
3.28592
3.28354
3.28108
3.27856
3.27596
3.27328
3.27053
3.26772
3.5305
3.53954
3.57136
3.61741
3.67119
3.72842
3.78645
3.84387
3.89966
3.95324
4.00427
4.0526
4.09819
4.14108
4.18136
4.21913
4.25453
4.28769
4.31873
4.34779
4.375
4.40047
4.42431
4.44663
4.46753
4.48709
4.50542
4.52258
4.53865
4.5537
4.5678
4.58099
4.59338
4.00104
4.78011
5.43534
5.99843
6.49473
6.93956
7.34318
7.71306
8.05487
8.37291
8.67055
8.95045
9.2148
9.46536
9.70358
9.93071
10.1478
10.3557
10.5552
10.747
10.9317
11.1099
11.282
11.4485
11.6098
11.7663
11.9183
12.0663
12.2104
12.351
12.4883
12.6224
12.7544
31.176
33.6248
36.0477
38.4452
40.816
43.1583
45.4693
47.7458
49.9844
52.1822
54.3363
56.4442
58.5038
60.5131
62.4707
64.3753
66.226
68.0222
69.7635
71.4499
73.0815
74.6585
76.1815
77.6511
79.068
80.4331
81.7474
83.0119
84.2278
85.3962
86.5183
87.5959
88.6378
419.954
513.43
646.072
784.135
870.969
887.372
855.226
798.446
725.495
639.455
548.246
461.807
386.49
324.935
277.834
244.025
223.461
212.225
205.509
199.769
192.058
178.625
156.964
130.543
107.884
98.14
105.42
128.822
166.935
208.855
230.947
220.119
186.567
148.483
116.864
94.2824
79.3539
69.8676
63.4157
58.9146
55.4986
51.9993
47.3903
41.6096
35.2117
28.8627
23.0407
18.0219
13.9413
10.804
8.49935
6.85422
5.69321
4.87317
4.29096
3.87746
3.58824
3.39465
3.27714
3.2212
3.21586
3.25322
3.32786
3.43595
3.57444
3.74035
3.93033
4.14042
4.36604
4.60209
4.84308
5.08343
5.31763
5.54046
5.74721
5.93382
6.09727
6.23585
6.34802
6.43238
6.48812
6.51515
6.51408
6.48611
6.43294
6.35669
6.25975
6.1447
6.01419
5.87089
5.71747
5.55644
5.39038
5.22144
5.05252
4.88617
4.72592
4.56873
4.42808
4.23725
113.366
128.628
162.518
227.875
319.481
416.203
501.305
569.936
620.514
647.047
643.105
610.077
557.595
497.646
439.832
390.187
345.923
304.838
266.527
231.353
197.968
163.42
127.86
96.2158
73.8865
64.7322
69.6522
87.0887
116.731
154.346
185.404
194.326
179.965
153.55
126.474
104.351
88.2531
77.3324
69.7519
64.2178
59.4288
53.9932
47.2384
39.9404
32.781
26.2541
20.6088
15.9469
12.2827
9.53741
7.55542
6.15354
5.16692
4.46902
3.97132
3.61525
3.36365
3.19341
3.08919
3.03904
3.0329
3.06307
3.1247
3.21542
3.3342
3.48032
3.65258
3.84883
4.0659
4.29959
4.54483
4.79595
5.04696
5.2918
5.52465
5.74039
5.93519
6.10624
6.25084
6.36687
6.45298
6.50861
6.53404
6.53029
6.499
6.44231
6.36274
6.26302
6.14605
6.01474
5.872
5.72061
5.56337
5.40263
5.24141
5.08141
4.9272
4.77487
4.64075
4.45467
22.3864
23.7561
26.2412
33.2539
49.4823
76.2681
111.356
152.727
199.652
249.274
294.248
325.944
339.551
335.651
318.373
291.89
258.88
222.439
185.969
152.105
121.533
93.9095
69.8828
51.2737
39.835
36.7751
42.1306
55.364
77.1828
106.771
137.417
157.118
158.884
146.117
126.993
108.17
93.4855
82.7091
74.4711
67.6508
61.0401
53.6523
45.2448
36.9856
29.5826
23.2537
18.0249
13.8596
10.6791
8.34603
6.68243
5.51135
4.68663
4.10103
3.68092
3.3776
3.16002
3.00946
2.91465
2.86733
2.85945
2.88331
2.9331
3.00597
3.10157
3.22088
3.36492
3.53395
3.72706
3.94198
4.17515
4.42194
4.67681
4.93361
5.18595
5.42792
5.65498
5.86277
6.04693
6.20389
6.33107
6.4269
6.49083
6.52324
6.52535
6.49904
6.44671
6.37115
6.27537
6.16248
6.03565
5.89792
5.75238
5.60166
5.44898
5.29586
5.14727
4.99907
4.86903
4.68494
8.51099
8.52301
8.31445
7.83275
7.91237
9.77397
14.0909
21.1362
31.3593
45.3499
62.6688
80.8346
96.0832
105.275
106.973
101.826
92.5063
80.7515
68.1988
56.1372
45.216
35.6623
27.738
21.9491
19.0459
19.8644
24.8817
34.4695
49.584
70.5724
95.2678
116.932
128.163
126.992
116.943
104.117
92.6666
83.0843
74.7426
66.9168
58.8629
50.2114
41.1775
32.8726
25.8327
20.0571
15.4378
11.8598
9.1891
7.25936
5.89305
4.93184
4.25261
3.76767
3.41743
3.1623
2.97651
2.84426
2.75679
2.70918
2.69695
2.71432
2.75511
2.81472
2.89136
2.98574
3.09993
3.23609
3.39557
3.57847
3.78348
4.00789
4.24772
4.49791
4.75262
5.00625
5.25414
5.49068
5.71018
5.90752
6.07854
6.22013
6.33034
6.40833
6.45429
6.46934
6.45533
6.41468
6.35025
6.26513
6.16257
6.04581
5.91817
5.78253
5.64239
5.49936
5.35874
5.21637
5.09103
4.9095
5.62114
5.6273
5.59243
5.40547
5.03032
4.657
4.57058
4.96362
5.94773
7.66821
10.2933
13.8084
17.7678
21.3578
23.7949
24.741
24.2877
22.77
20.6166
18.2257
15.8693
13.7009
11.8355
10.4945
10.1919
11.6413
15.3818
21.8917
31.8717
45.7694
63.1916
81.3026
95.1116
100.867
98.4607
91.8132
84.3108
76.7414
69.1076
61.1937
52.8299
44.1494
35.5959
28.0603
21.8502
16.8708
12.9751
10.0192
7.84752
6.29177
5.19213
4.41615
3.86473
3.46831
3.17978
2.9677
2.81127
2.69714
2.61766
2.56931
2.55039
2.55851
2.58946
2.63825
2.70113
2.77681
2.86644
2.97254
3.09784
3.24439
3.41305
3.60329
3.8132
4.03951
4.27784
4.52402
4.77401
5.02213
5.26226
5.48843
5.69522
5.87805
6.0334
6.15886
6.25319
6.3162
6.34866
6.35212
6.3288
6.28135
6.21276
6.12618
6.02492
5.91201
5.79109
5.66396
5.53615
5.40362
5.28594
5.10995
4.38434
4.39809
4.41297
4.41513
4.3726
4.27057
4.13737
4.02101
3.96483
4.01724
4.24858
4.73097
5.47868
6.40375
7.36026
8.13713
8.53896
8.5825
8.35966
7.97193
7.49947
7.00067
6.5312
6.22751
6.43244
7.62334
10.1859
14.4731
20.913
29.7971
41.144
54.0188
65.9405
73.8512
76.0518
74.0299
70.0285
64.8032
58.6589
51.7458
44.2905
36.6851
29.4091
23.1066
17.965
13.8885
10.7436
8.38916
6.67445
5.44912
4.58061
3.96406
3.5227
3.20287
2.96805
2.79369
2.66343
2.56649
2.4962
2.44921
2.42464
2.42235
2.44115
2.47796
2.5288
2.5905
2.66203
2.74458
2.8408
2.95366
3.08562
3.23808
3.41111
3.60341
3.81246
4.03578
4.27053
4.512
4.7546
4.99242
5.21961
5.43074
5.62111
5.78694
5.92551
6.03516
6.1153
6.16625
6.18916
6.18582
6.15855
6.11001
6.04318
5.96091
5.86675
5.76253
5.65391
5.53688
5.43162
5.26643
3.70254
3.70961
3.72033
3.73526
3.749
3.75309
3.74298
3.71981
3.68637
3.64898
3.62716
3.65577
3.76803
3.97012
4.23811
4.50562
4.7009
4.80146
4.8154
4.76304
4.66538
4.54275
4.41982
4.37497
4.62291
5.4702
7.17499
9.96984
14.1007
19.72
26.8489
35.1822
43.704
50.6758
54.4335
55.0524
53.5494
50.4737
46.1601
40.9
35.063
29.0921
23.4147
18.4713
14.4335
11.2463
8.80629
6.99195
5.67369
4.72915
4.05536
3.57307
3.22477
2.97012
2.78139
2.63971
2.53238
2.45097
2.39004
2.34647
2.31915
2.30842
2.3149
2.33813
2.37591
2.42501
2.48272
2.54805
2.62205
2.70727
2.80673
2.92316
3.05834
3.21284
3.386
3.57704
3.7846
4.00542
4.23505
4.46836
4.6998
4.92382
5.13518
5.3292
5.50202
5.65073
5.77335
5.86893
5.93737
5.97936
5.99628
5.98997
5.96277
5.91703
5.85593
5.78107
5.69797
5.60258
5.51522
5.3677
3.30109
3.30213
3.30533
3.31142
3.31989
3.32901
3.3369
3.34245
3.34462
3.34138
3.33194
3.3217
3.32336
3.34874
3.40065
3.46548
3.52209
3.55704
3.56959
3.56061
3.53459
3.49833
3.46198
3.46881
3.65188
4.21135
5.32095
7.12843
9.77107
13.3208
17.7603
22.9349
28.422
33.3894
36.8069
38.4387
38.397
36.9381
34.2872
30.7195
26.5816
22.2632
18.1164
14.4337
11.4028
9.01041
7.1839
5.82698
4.83807
4.12463
3.61097
3.23953
2.96853
2.76843
2.61861
2.50483
2.41738
2.34971
2.2976
2.25843
2.23096
2.21513
2.21182
2.22199
2.24566
2.28133
2.32642
2.37851
2.43655
2.50132
2.57509
2.6608
2.7613
2.87867
3.014
3.16804
3.34109
3.53156
3.73653
3.95208
4.17357
4.39593
4.61395
4.82264
5.01745
5.19451
5.35076
5.48402
5.59299
5.67721
5.73698
5.77318
5.78732
5.78102
5.75686
5.716
5.66353
5.59522
5.53094
5.40835
3.05896
3.05487
3.05207
3.05086
3.05127
3.05288
3.05514
3.05762
3.06004
3.06156
3.06051
3.05561
3.04826
3.04245
3.04188
3.04573
3.04908
3.04932
3.04456
3.03382
3.01799
2.99967
2.98263
2.98788
3.09405
3.43453
4.13253
5.28371
6.96299
9.20049
11.9652
15.1469
18.521
21.6876
24.2536
25.8928
26.4482
25.949
24.4945
22.2719
19.5422
16.6035
13.7246
11.1025
8.91844
7.18883
5.86581
4.87873
4.15379
3.62535
3.24043
2.95878
2.75092
2.59572
2.4782
2.38784
2.31731
2.26163
2.21751
2.18292
2.15676
2.13871
2.12917
2.12916
2.13979
2.16141
2.19308
2.23279
2.2784
2.32875
2.38424
2.44676
2.51905
2.60392
2.70371
2.82044
2.95596
3.11043
3.28266
3.47028
3.66997
3.87766
4.08879
4.29858
4.50232
4.69562
4.87464
5.03622
5.17799
5.29838
5.39659
5.47249
5.52666
5.55989
5.57398
5.56953
5.55099
5.51388
5.47693
5.38608
2.91245
2.90429
2.89695
2.89054
2.88513
2.88056
2.87658
2.87299
2.86964
2.8663
2.86233
2.85667
2.84865
2.83866
2.82795
2.81689
2.80569
2.79431
2.7819
2.76791
2.75261
2.73729
2.72344
2.71926
2.76575
2.94927
3.36245
4.07355
5.12455
6.52455
8.2436
10.2003
12.2456
14.2239
15.968
17.2425
17.8852
17.8328
17.1036
15.8002
14.0928
12.1846
10.2639
8.47315
6.95897
5.75248
4.82326
4.12349
3.60351
3.21946
2.93591
2.72566
2.5685
2.44967
2.35853
2.28746
2.23106
2.18558
2.14852
2.11831
2.09409
2.07552
2.06267
2.05612
2.05685
2.06597
2.08405
2.11062
2.14419
2.1829
2.22548
2.272
2.32387
2.38351
2.45362
2.53693
2.63634
2.75361
2.88926
3.04258
3.21182
3.3943
3.58658
3.78464
3.98417
4.18078
4.37033
4.54903
4.7137
4.86181
4.99156
5.10179
5.1921
5.26241
5.31367
5.34581
5.36251
5.35902
5.35227
5.29894
2.82507
2.81374
2.80296
2.79279
2.78326
2.77431
2.7658
2.75759
2.74956
2.74155
2.73331
2.72436
2.71411
2.70231
2.68902
2.67486
2.66067
2.64646
2.63203
2.61719
2.60201
2.58712
2.57335
2.56318
2.57377
2.65441
2.87379
3.28798
3.92578
4.78788
5.84895
7.04833
8.29327
9.53544
10.6695
11.5583
12.0901
12.1932
11.854
11.1205
10.0919
8.89542
7.65484
6.47469
5.46554
4.65221
4.01799
3.53369
3.16842
2.89451
2.68922
2.53475
2.41763
2.32778
2.2578
2.20231
2.15744
2.12043
2.08942
2.0632
2.0411
2.02285
2.00846
1.99818
1.99257
1.9925
1.99898
2.01273
2.03367
2.06077
2.09246
2.12747
2.16551
2.20756
2.25561
2.31226
2.3807
2.46377
2.5634
2.68044
2.81475
2.9652
3.12972
3.30544
3.48891
3.6763
3.86366
4.04712
4.22309
4.38839
4.54043
4.67716
4.79724
4.8997
4.9846
5.05117
5.10217
5.13272
5.15725
5.14549
2.77504
2.76131
2.74798
2.73507
2.72259
2.71053
2.69879
2.68729
2.67591
2.66453
2.653
2.64108
2.62847
2.61488
2.60021
2.58529
2.57036
2.55546
2.54055
2.52558
2.51054
2.49566
2.48141
2.46852
2.4624
2.48527
2.58101
2.79682
3.16054
3.67391
4.31702
5.0457
5.81512
6.59394
7.31724
7.90808
8.29492
8.42476
8.27884
7.8768
7.27281
6.54285
5.76425
5.01253
4.36285
3.83075
3.4089
3.08127
2.82996
2.63836
2.49239
2.38076
2.29468
2.22749
2.17417
2.13102
2.09531
2.06512
2.03909
2.01632
1.9963
1.97879
1.96379
1.95147
1.94212
1.9362
1.93444
1.93773
1.94684
1.96199
1.98257
2.00736
2.03513
2.06534
2.0985
2.13618
2.18094
2.23585
2.30367
2.38649
2.48562
2.60149
2.73341
2.87976
3.03825
3.20593
3.37957
3.55567
3.73075
3.90148
4.0648
4.21807
4.3592
4.48642
4.59893
4.69528
4.77725
4.83993
4.89466
4.92602
2.7475
2.73211
2.717
2.70219
2.68767
2.67345
2.65949
2.64571
2.63201
2.6183
2.60449
2.59043
2.57598
2.56089
2.54531
2.52973
2.51427
2.49894
2.4837
2.46852
2.45334
2.43822
2.42334
2.40899
2.39651
2.39331
2.42071
2.51186
2.69516
2.97958
3.35329
3.7874
4.26135
4.74706
5.20374
5.58692
5.85211
5.96529
5.91093
5.69622
5.35012
4.91601
4.43978
3.97634
3.56965
3.23062
2.95681
2.74022
2.57108
2.43982
2.33798
2.2586
2.19613
2.14628
2.10576
2.07212
2.04352
2.01864
1.99654
1.9766
1.95842
1.94181
1.92675
1.91334
1.90178
1.89234
1.88541
1.88153
1.88145
1.88594
1.89541
1.90963
1.92777
1.94873
1.9718
1.99706
2.02572
2.06
2.10264
2.15633
2.22357
2.30627
2.40483
2.51882
2.64716
2.78797
2.93898
3.0975
3.26059
3.42519
3.58826
3.74696
3.89875
4.04132
4.17319
4.29228
4.39943
4.48984
4.57132
4.64421
2.7334
2.71691
2.70063
2.68455
2.66867
2.653
2.63752
2.62218
2.60691
2.59163
2.57627
2.56075
2.54497
2.52874
2.51239
2.4962
2.48022
2.46442
2.44875
2.43316
2.4176
2.40204
2.38651
2.37111
2.35617
2.3435
2.34056
2.36424
2.43656
2.57223
2.76994
3.01717
3.30019
3.59688
3.88078
4.12471
4.30109
4.38864
4.37639
4.26637
4.07334
3.8206
3.53578
3.25825
3.01089
2.80068
2.62755
2.48795
2.37685
2.28891
2.21921
2.16357
2.1186
2.08166
2.05069
2.02415
2.00086
1.97997
1.96085
1.9431
1.92642
1.91069
1.89584
1.88193
1.86908
1.85749
1.84738
1.83905
1.8329
1.82952
1.82961
1.8337
1.84189
1.85371
1.86832
1.88492
1.9033
1.92417
1.94921
1.98082
2.022
2.07637
2.14442
2.22651
2.32336
2.4337
2.5566
2.69032
2.8327
2.98134
3.13362
3.28685
3.43849
3.586
3.72746
3.86043
3.9849
4.09635
4.1989
4.30834
2.72649
2.70935
2.69234
2.67547
2.65875
2.64216
2.6257
2.60934
2.59305
2.57675
2.56038
2.54389
2.5272
2.51019
2.4933
2.47663
2.46016
2.44387
2.42771
2.41162
2.39556
2.37948
2.36334
2.34714
2.33093
2.31509
2.30156
2.29636
2.31088
2.35794
2.44411
2.56977
2.72598
2.89786
3.06839
3.21912
3.33294
3.39629
3.40137
3.34781
3.24242
3.09732
2.93233
2.77155
2.62575
2.49933
2.39307
2.30563
2.23453
2.1769
2.12995
2.09126
2.05885
2.03119
2.00709
1.98563
1.96615
1.94811
1.93115
1.91499
1.89946
1.88444
1.8699
1.85583
1.84229
1.8294
1.8173
1.80619
1.79629
1.78788
1.78142
1.77749
1.77666
1.77925
1.78517
1.79388
1.80466
1.81701
1.83109
1.84809
1.87023
1.9011
1.94474
2.00086
2.06856
2.14773
2.24053
2.34549
2.46152
2.58706
2.72013
2.85857
3.00011
3.14238
3.28334
3.42046
3.55307
3.67722
3.79338
3.93125
2.72342
2.7059
2.68848
2.67115
2.65391
2.63676
2.6197
2.6027
2.58575
2.56881
2.5518
2.53469
2.5174
2.49993
2.48261
2.46551
2.4486
2.43186
2.41523
2.39868
2.38214
2.36558
2.34894
2.33215
2.31517
2.29803
2.28149
2.26714
2.25865
2.26277
2.28697
2.33573
2.40752
2.4952
2.58838
2.67504
2.74386
2.78564
2.79455
2.76901
2.71176
2.63012
2.53956
2.45027
2.36751
2.29409
2.23096
2.17775
2.1333
2.0961
2.06463
2.03755
2.01378
1.99249
1.97308
1.95509
1.93818
1.92207
1.90657
1.89151
1.87678
1.8623
1.84804
1.83397
1.8201
1.80647
1.79317
1.7803
1.76802
1.7565
1.74595
1.7367
1.72921
1.72401
1.72156
1.72208
1.72538
1.73084
1.73776
1.74596
1.75624
1.77072
1.79297
1.82698
1.87229
1.92787
1.99324
2.06838
2.15542
2.25375
2.36193
2.47866
2.60211
2.73034
2.86151
2.99328
3.12463
3.25232
3.37365
3.52952
2.72205
2.70433
2.68667
2.66908
2.65155
2.63407
2.61665
2.59928
2.58193
2.56458
2.54718
2.52968
2.51203
2.4943
2.47671
2.45931
2.44207
2.42497
2.40796
2.39101
2.37408
2.35713
2.34008
2.32288
2.30538
2.28758
2.27034
2.25404
2.23941
2.22843
2.22467
2.23214
2.25295
2.28594
2.32634
2.36752
2.40236
2.42456
2.42963
2.4157
2.38405
2.34144
2.2943
2.24662
2.2012
2.15981
2.12322
2.0914
2.06382
2.03968
2.01817
1.9986
1.98042
1.96325
1.94686
1.93108
1.91578
1.90088
1.88628
1.87192
1.85771
1.84361
1.82956
1.81555
1.80153
1.78752
1.77353
1.75961
1.74583
1.73232
1.71922
1.70669
1.69497
1.6844
1.67543
1.66859
1.66432
1.66266
1.66319
1.66521
1.66836
1.67316
1.6814
1.69616
1.72126
1.75691
1.8019
1.85541
1.91721
1.98727
2.06754
2.15846
2.25828
2.36589
2.47974
2.59794
2.71937
2.8417
2.95971
3.12196
2.72149
2.70366
2.68588
2.66814
2.65044
2.63278
2.61515
2.59755
2.57996
2.56235
2.54469
2.52697
2.50911
2.49119
2.47341
2.45578
2.43829
2.42092
2.40364
2.3864
2.36918
2.35193
2.33458
2.31707
2.29924
2.28118
2.26359
2.24669
2.2306
2.21564
2.20274
2.19355
2.18988
2.19247
2.20039
2.21108
2.2209
2.22628
2.22427
2.21357
2.19659
2.17488
2.15034
2.12486
2.09992
2.0765
2.05507
2.03562
2.0179
2.00147
1.9859
1.97083
1.95602
1.94133
1.92674
1.91224
1.89786
1.88362
1.86953
1.85555
1.84166
1.8278
1.81392
1.79997
1.78591
1.77172
1.75736
1.74284
1.72817
1.71343
1.6987
1.6841
1.66977
1.65589
1.64271
1.63059
1.62006
1.61161
1.60548
1.60147
1.59906
1.59785
1.5981
1.60114
1.60935
1.62624
1.65313
1.68873
1.73206
1.78244
1.83982
1.90422
1.97712
2.06019
2.15147
2.2499
2.35441
2.46366
2.5707
2.72781
2.7212
2.70331
2.68545
2.66763
2.64983
2.63205
2.6143
2.59655
2.57881
2.56104
2.54324
2.52537
2.50739
2.48937
2.47147
2.4537
2.43604
2.41849
2.40101
2.38358
2.36614
2.34866
2.33108
2.31334
2.29529
2.2771
2.2593
2.24205
2.22537
2.20929
2.19389
2.17951
2.16675
2.15618
2.14791
2.14149
2.13561
2.12948
2.12213
2.11261
2.10087
2.0873
2.07257
2.05738
2.04234
2.02786
2.01411
2.00104
1.98846
1.97611
1.96373
1.95111
1.93815
1.92482
1.9112
1.89737
1.88345
1.86952
1.85565
1.84185
1.82812
1.8144
1.80064
1.78677
1.77274
1.75848
1.74395
1.72912
1.71396
1.6985
1.68277
1.66685
1.65086
1.63493
1.61919
1.60383
1.58914
1.57556
1.56356
1.55351
1.54541
1.539
1.53393
1.53028
1.52889
1.53158
1.54104
1.55987
1.58695
1.62127
1.66199
1.70859
1.76105
1.81959
1.88499
1.95991
2.04271
2.13298
2.22301
2.3648
2.72104
2.70312
2.68522
2.66734
2.64947
2.63162
2.61378
2.59594
2.5781
2.56023
2.54232
2.52437
2.50633
2.48823
2.47024
2.45236
2.43459
2.41691
2.39929
2.3817
2.3641
2.34645
2.32869
2.31079
2.29262
2.27436
2.25643
2.23893
2.22187
2.20523
2.18895
2.173
2.15739
2.14221
2.12761
2.11423
2.1019
2.09033
2.07919
2.06812
2.0569
2.04553
2.03409
2.02274
2.01163
2.00083
1.99031
1.97998
1.96967
1.95917
1.94827
1.93684
1.92479
1.91215
1.89901
1.88549
1.87175
1.85793
1.84411
1.83036
1.81668
1.80304
1.78937
1.77561
1.76165
1.74742
1.73285
1.71788
1.70247
1.68661
1.67031
1.65361
1.63658
1.61933
1.60197
1.58463
1.56748
1.55071
1.53466
1.51974
1.50635
1.49469
1.48468
1.47614
1.46903
1.46389
1.46191
1.46519
1.47639
1.49554
1.52169
1.55392
1.59149
1.63398
1.68138
1.734
1.79243
1.8598
1.92899
2.04738
2.72092
2.70297
2.68503
2.66711
2.6492
2.63129
2.61338
2.59548
2.57756
2.55963
2.54166
2.52365
2.50557
2.48744
2.46939
2.45144
2.43359
2.41581
2.39808
2.38037
2.36264
2.34484
2.32695
2.30893
2.29068
2.27241
2.25439
2.2367
2.21936
2.20233
2.18556
2.16894
2.15235
2.13561
2.11925
2.10361
2.08888
2.07506
2.06206
2.04976
2.03803
2.02679
2.016
2.0056
1.99556
1.9858
1.97625
1.96677
1.95719
1.94733
1.937
1.92606
1.91444
1.90213
1.88921
1.87584
1.86216
1.84833
1.83449
1.82071
1.80704
1.79344
1.77986
1.7662
1.75237
1.73825
1.72374
1.70876
1.69326
1.67721
1.6606
1.64346
1.62581
1.60775
1.58935
1.57075
1.55207
1.53343
1.51497
1.49695
1.4797
1.46359
1.4489
1.43574
1.42406
1.41385
1.40541
1.39955
1.39768
1.402
1.41388
1.43249
1.45703
1.4867
1.52087
1.55913
1.60158
1.64879
1.69684
1.78551
2.72082
2.70285
2.68488
2.66693
2.64897
2.63102
2.61307
2.59512
2.57715
2.55917
2.54116
2.52311
2.505
2.48685
2.46876
2.45075
2.43281
2.41495
2.39712
2.3793
2.36146
2.34355
2.32557
2.30746
2.28919
2.27092
2.25285
2.23503
2.21746
2.20014
2.18301
2.16599
2.14892
2.13152
2.11456
2.09828
2.08283
2.06826
2.05454
2.04163
2.02944
2.01792
2.00697
1.99651
1.98644
1.97669
1.96714
1.95769
1.94816
1.9384
1.92823
1.91747
1.90605
1.89393
1.88117
1.86788
1.85423
1.84039
1.82651
1.81269
1.799
1.78543
1.77193
1.75841
1.74474
1.73078
1.71642
1.70154
1.68608
1.66998
1.65322
1.63583
1.61783
1.59928
1.58026
1.56086
1.54119
1.52137
1.50149
1.48167
1.46211
1.44303
1.42477
1.40761
1.39176
1.37731
1.36432
1.35296
1.34375
1.33771
1.33634
1.34155
1.35319
1.37063
1.39315
1.41998
1.45077
1.48493
1.52017
1.58172
2.72074
2.70275
2.68476
2.66678
2.64879
2.63081
2.61282
2.59482
2.57682
2.5588
2.54075
2.52267
2.50454
2.48637
2.46825
2.45019
2.43219
2.41425
2.39633
2.37843
2.36049
2.34251
2.32446
2.30629
2.28803
2.26977
2.25167
2.23374
2.21599
2.19843
2.18103
2.1637
2.14629
2.12861
2.11142
2.09493
2.07924
2.06438
2.05034
2.0371
2.0246
2.01276
2.00149
1.9907
1.98031
1.97023
1.9604
1.95069
1.941
1.93115
1.92098
1.91031
1.89903
1.88708
1.87448
1.86132
1.84774
1.83392
1.82003
1.80619
1.79249
1.77896
1.76555
1.75217
1.73868
1.72494
1.7108
1.69611
1.68078
1.66473
1.64795
1.63045
1.61225
1.59341
1.574
1.5541
1.5338
1.51321
1.49241
1.47152
1.45062
1.42984
1.40938
1.38947
1.37038
1.35233
1.33551
1.32004
1.30609
1.29405
1.28457
1.2788
1.27819
1.28354
1.29447
1.31029
1.33067
1.35443
1.38032
1.42431
2.72066
2.70265
2.68464
2.66664
2.64863
2.63061
2.61259
2.59457
2.57653
2.55848
2.5404
2.52229
2.50414
2.48597
2.46782
2.44973
2.43168
2.41367
2.39569
2.37772
2.35973
2.34169
2.32359
2.3054
2.28712
2.26887
2.25073
2.23271
2.21482
2.19707
2.17944
2.16184
2.14416
2.12645
2.10923
2.09266
2.07682
2.06175
2.04748
2.03397
2.02118
2.00902
1.99741
1.98626
1.9755
1.96506
1.95488
1.94489
1.93498
1.92501
1.91482
1.90423
1.89311
1.88136
1.86898
1.85601
1.84258
1.82886
1.81502
1.80121
1.78755
1.77407
1.76076
1.74754
1.73427
1.72078
1.7069
1.69246
1.67734
1.66144
1.64473
1.6272
1.60889
1.58987
1.5702