/*--------------------------------*- C++ -*----------------------------------*\
| =========                 |                                                 |
| \\      /  F ield         | OpenFOAM: The Open Source CFD Toolbox           |
|  \\    /   O peration     | Version:  4.1                                   |
|   \\  /    A nd           | Web:      www.OpenFOAM.org                      |
|    \\/     M anipulation  |                                                 |
\*---------------------------------------------------------------------------*/
FoamFile
{
    version     2.0;
    format      ascii;
    class       volScalarField;
    location    "100";
    object      k;
}
// * * * * * * * * * * * * * * * * * * * * * * * * * * * * * * * * * * * * * //

dimensions      [0 2 -2 0 0 0 0];

internalField   nonuniform List<scalar> 
6820
(
0.241787
0.289663
0.336837
0.38193
0.423908
0.462023
0.495799
0.525029
0.549743
0.570145
0.586559
0.599375
0.60901
0.615883
0.620393
0.622905
0.62375
0.623216
0.621554
0.618976
0.61566
0.611756
0.607382
0.602634
0.597585
0.592286
0.586772
0.581056
0.57513
0.568968
0.562502
0.555785
0.55072
0.202473
0.20468
0.207
0.20948
0.212067
0.214727
0.217435
0.220164
0.222884
0.225573
0.228219
0.230815
0.233362
0.235866
0.238336
0.240784
0.243222
0.245663
0.248121
0.250608
0.253138
0.255724
0.25838
0.261121
0.263963
0.266927
0.270038
0.273332
0.276854
0.28067
0.284879
0.289586
0.295885
0.199741
0.199216
0.198474
0.197602
0.196631
0.195591
0.194511
0.193407
0.192292
0.191177
0.190072
0.188985
0.187925
0.186898
0.185912
0.184971
0.184083
0.183252
0.182484
0.181784
0.181156
0.180602
0.180127
0.179736
0.179435
0.179234
0.179144
0.179181
0.179367
0.179734
0.180323
0.181213
0.182607
0.199153
0.198177
0.197114
0.195995
0.194814
0.193579
0.19231
0.191021
0.189722
0.188421
0.187126
0.185843
0.184577
0.183333
0.182113
0.180921
0.179759
0.178631
0.177538
0.176483
0.175468
0.174495
0.173564
0.172679
0.171842
0.171056
0.170325
0.169655
0.169052
0.168526
0.168091
0.167766
0.167601
0.198982
0.197901
0.196808
0.195701
0.194563
0.193394
0.192205
0.191005
0.1898
0.188594
0.187392
0.186199
0.185018
0.183852
0.182704
0.181575
0.180468
0.179385
0.178326
0.177293
0.176288
0.175311
0.174363
0.173446
0.172559
0.171705
0.170884
0.170098
0.16935
0.16864
0.167972
0.167349
0.166776
0.198926
0.197795
0.196679
0.195577
0.194475
0.193366
0.192254
0.191141
0.190029
0.188922
0.187821
0.186731
0.185653
0.184588
0.18354
0.182508
0.181494
0.1805
0.179526
0.178572
0.17764
0.17673
0.175842
0.174977
0.174136
0.173317
0.172522
0.171751
0.171003
0.170279
0.169578
0.168897
0.168228
0.198906
0.197755
0.196631
0.195538
0.194464
0.193401
0.192345
0.191298
0.19026
0.189231
0.188212
0.187205
0.18621
0.18523
0.184264
0.183314
0.18238
0.181463
0.180564
0.179682
0.178819
0.177975
0.177149
0.176342
0.175555
0.174786
0.174035
0.173303
0.172589
0.171891
0.171208
0.170536
0.169865
0.1989
0.19774
0.196611
0.195517
0.194453
0.19341
0.192385
0.191377
0.190385
0.189407
0.188444
0.187496
0.186563
0.185645
0.184743
0.183856
0.182986
0.182132
0.181295
0.180475
0.179672
0.178885
0.178115
0.177362
0.176626
0.175906
0.175202
0.174514
0.173839
0.173179
0.172529
0.171888
0.171243
0.198897
0.197734
0.196603
0.195509
0.194449
0.193417
0.19241
0.191426
0.190464
0.189521
0.188596
0.18769
0.186801
0.185928
0.185073
0.184234
0.183412
0.182606
0.181817
0.181044
0.180287
0.179546
0.178821
0.178111
0.177417
0.176738
0.176073
0.175421
0.174783
0.174156
0.17354
0.17293
0.172317
0.198897
0.197732
0.1966
0.195505
0.194446
0.193418
0.192418
0.191446
0.190498
0.189574
0.188672
0.18779
0.186929
0.186087
0.185263
0.184457
0.183669
0.182898
0.182144
0.181406
0.180684
0.179979
0.179288
0.178613
0.177953
0.177307
0.176675
0.176055
0.175448
0.174852
0.174266
0.173687
0.173104
0.198896
0.197731
0.196599
0.195504
0.194445
0.193418
0.192422
0.191455
0.190516
0.189603
0.188714
0.187848
0.187004
0.186181
0.185378
0.184595
0.18383
0.183083
0.182354
0.181642
0.180946
0.180266
0.179602
0.178953
0.178318
0.177698
0.177091
0.176496
0.175914
0.175343
0.174781
0.174227
0.17367
0.198896
0.19773
0.196599
0.195504
0.194445
0.193418
0.192424
0.191459
0.190523
0.189614
0.188732
0.187873
0.187039
0.186226
0.185436
0.184665
0.183915
0.183184
0.182471
0.181775
0.181097
0.180435
0.179789
0.179158
0.178543
0.177941
0.177353
0.176778
0.176214
0.175663
0.175121
0.174587
0.174053
0.198896
0.19773
0.196599
0.195504
0.194445
0.193419
0.192425
0.191461
0.190526
0.18962
0.18874
0.187886
0.187057
0.186251
0.185467
0.184705
0.183963
0.183241
0.182538
0.181854
0.181187
0.180537
0.179903
0.179285
0.178682
0.178094
0.177519
0.176958
0.176409
0.175871
0.175345
0.174827
0.174309
0.198896
0.19773
0.196599
0.195505
0.194445
0.193419
0.192425
0.191462
0.190528
0.189623
0.188744
0.187892
0.187065
0.186261
0.185481
0.184722
0.183985
0.183269
0.182571
0.181893
0.181233
0.18059
0.179964
0.179354
0.178759
0.178179
0.177613
0.177061
0.176522
0.175994
0.175479
0.174972
0.174467
0.198896
0.19773
0.1966
0.195505
0.194446
0.19342
0.192426
0.191463
0.190529
0.189624
0.188746
0.187895
0.187069
0.186267
0.185488
0.184732
0.183997
0.183283
0.182589
0.181914
0.181258
0.180619
0.179997
0.179392
0.178803
0.178228
0.177668
0.177122
0.176589
0.176069
0.17556
0.175062
0.174566
0.198896
0.19773
0.1966
0.195505
0.194446
0.19342
0.192426
0.191463
0.19053
0.189625
0.188747
0.187896
0.18707
0.186269
0.185491
0.184736
0.184002
0.183289
0.182597
0.181924
0.181269
0.180633
0.180013
0.179411
0.178824
0.178253
0.177696
0.177154
0.176625
0.176109
0.175605
0.175112
0.174622
0.198896
0.19773
0.1966
0.195505
0.194446
0.19342
0.192427
0.191464
0.19053
0.189626
0.188748
0.187897
0.187072
0.186271
0.185493
0.184738
0.184005
0.183293
0.182601
0.181929
0.181275
0.18064
0.180022
0.179421
0.178836
0.178266
0.177712
0.177171
0.176645
0.176132
0.175632
0.175142
0.174655
0.198896
0.19773
0.1966
0.195506
0.194446
0.193421
0.192427
0.191464
0.190531
0.189626
0.188749
0.187898
0.187072
0.186271
0.185494
0.184739
0.184006
0.183295
0.182603
0.181931
0.181278
0.180643
0.180026
0.179425
0.178841
0.178273
0.177719
0.17718
0.176656
0.176144
0.175646
0.175158
0.174674
0.198896
0.19773
0.1966
0.195506
0.194446
0.193421
0.192427
0.191464
0.190531
0.189627
0.188749
0.187898
0.187073
0.186272
0.185495
0.18474
0.184007
0.183296
0.182604
0.181933
0.18128
0.180645
0.180028
0.179428
0.178845
0.178277
0.177724
0.177186
0.176662
0.176152
0.175655
0.175169
0.174687
0.198896
0.197729
0.1966
0.195506
0.194447
0.193421
0.192427
0.191465
0.190532
0.189627
0.18875
0.187899
0.187074
0.186273
0.185495
0.184741
0.184008
0.183297
0.182605
0.181934
0.181281
0.180647
0.18003
0.17943
0.178847
0.178279
0.177727
0.17719
0.176667
0.176157
0.175661
0.175176
0.174695
0.198896
0.197729
0.1966
0.195506
0.194447
0.193421
0.192428
0.191465
0.190532
0.189627
0.18875
0.187899
0.187074
0.186273
0.185496
0.184741
0.184009
0.183297
0.182606
0.181935
0.181282
0.180648
0.180032
0.179432
0.178849
0.178282
0.17773
0.177193
0.17667
0.176161
0.175665
0.175181
0.174702
0.198896
0.197729
0.1966
0.195506
0.194447
0.193421
0.192428
0.191465
0.190532
0.189627
0.18875
0.1879
0.187074
0.186274
0.185496
0.184742
0.184009
0.183298
0.182607
0.181936
0.181283
0.180649
0.180033
0.179433
0.178851
0.178284
0.177732
0.177195
0.176673
0.176165
0.175669
0.175186
0.174707
0.198896
0.19773
0.1966
0.195506
0.194447
0.193421
0.192428
0.191465
0.190532
0.189628
0.188751
0.1879
0.187075
0.186274
0.185497
0.184743
0.18401
0.183299
0.182608
0.181936
0.181284
0.18065
0.180034
0.179435
0.178852
0.178285
0.177734
0.177197
0.176675
0.176167
0.175673
0.17519
0.174711
0.198896
0.19773
0.1966
0.195506
0.194447
0.193421
0.192428
0.191465
0.190532
0.189628
0.188751
0.1879
0.187075
0.186274
0.185497
0.184743
0.184011
0.183299
0.182608
0.181937
0.181285
0.180651
0.180035
0.179436
0.178853
0.178287
0.177736
0.177199
0.176678
0.17617
0.175676
0.175193
0.174715
0.198896
0.19773
0.1966
0.195506
0.194447
0.193421
0.192428
0.191465
0.190532
0.189628
0.188751
0.1879
0.187075
0.186275
0.185498
0.184743
0.184011
0.1833
0.182609
0.181938
0.181285
0.180652
0.180035
0.179436
0.178854
0.178288
0.177737
0.177201
0.176679
0.176171
0.175677
0.175195
0.174717
0.198896
0.19773
0.1966
0.195506
0.194447
0.193421
0.192428
0.191465
0.190532
0.189628
0.188751
0.1879
0.187075
0.186275
0.185498
0.184743
0.184011
0.1833
0.182609
0.181938
0.181286
0.180652
0.180036
0.179437
0.178855
0.178288
0.177737
0.177202
0.17668
0.176173
0.175679
0.175197
0.174719
0.198896
0.19773
0.1966
0.195506
0.194447
0.193421
0.192428
0.191465
0.190532
0.189628
0.188751
0.1879
0.187075
0.186274
0.185497
0.184743
0.184011
0.183299
0.182608
0.181937
0.181285
0.180651
0.180035
0.179436
0.178854
0.178287
0.177737
0.177201
0.176679
0.176172
0.175678
0.175196
0.174718
0.198896
0.197729
0.1966
0.195506
0.194447
0.193421
0.192428
0.191465
0.190532
0.189628
0.188751
0.1879
0.187075
0.186274
0.185497
0.184743
0.18401
0.183299
0.182608
0.181937
0.181285
0.180651
0.180035
0.179436
0.178854
0.178288
0.177737
0.177201
0.17668
0.176172
0.175678
0.175196
0.174719
0.198896
0.197729
0.1966
0.195506
0.194447
0.193421
0.192428
0.191465
0.190532
0.189627
0.18875
0.187899
0.187074
0.186273
0.185496
0.184741
0.184009
0.183297
0.182606
0.181935
0.181282
0.180648
0.180032
0.179433
0.178851
0.178284
0.177733
0.177197
0.176675
0.176168
0.175674
0.175192
0.174714
0.198896
0.197729
0.1966
0.195506
0.194447
0.193421
0.192427
0.191465
0.190532
0.189627
0.18875
0.187899
0.187074
0.186273
0.185496
0.184741
0.184009
0.183298
0.182607
0.181935
0.181283
0.180649
0.180033
0.179433
0.178851
0.178284
0.177733
0.177197
0.176676
0.176168
0.175674
0.175192
0.174714
0.198896
0.197729
0.1966
0.195506
0.194446
0.193421
0.192427
0.191464
0.190531
0.189626
0.188748
0.187897
0.187072
0.18627
0.185493
0.184738
0.184005
0.183293
0.182602
0.18193
0.181277
0.180643
0.180026
0.179426
0.178843
0.178276
0.177725
0.177188
0.176666
0.176158
0.175664
0.175181
0.174703
0.198896
0.197729
0.1966
0.195506
0.194446
0.193421
0.192427
0.191464
0.190531
0.189627
0.18875
0.187899
0.187073
0.186272
0.185495
0.18474
0.184007
0.183295
0.182604
0.181932
0.181279
0.180644
0.180027
0.179427
0.178844
0.178276
0.177724
0.177187
0.176665
0.176156
0.17566
0.175177
0.174698
0.198896
0.19773
0.1966
0.195505
0.194446
0.19342
0.192425
0.191462
0.190528
0.189622
0.188744
0.187893
0.187066
0.186265
0.185486
0.184731
0.183997
0.183284
0.182591
0.181919
0.181264
0.180629
0.18001
0.179409
0.178824
0.178255
0.177702
0.177163
0.176639
0.176129
0.175631
0.175146
0.174665
0.198896
0.19773
0.1966
0.195506
0.194447
0.193422
0.192429
0.191466
0.190534
0.189629
0.188752
0.1879
0.187074
0.186272
0.185493
0.184736
0.184001
0.183287
0.182593
0.181918
0.181262
0.180623
0.180003
0.179398
0.178811
0.178238
0.177681
0.177139
0.176611
0.176097
0.175596
0.175106
0.174621
0.198896
0.19773
0.196599
0.195504
0.194443
0.193416
0.19242
0.191456
0.190522
0.189615
0.188736
0.187883
0.187055
0.18625
0.185469
0.184709
0.183971
0.183252
0.182554
0.181874
0.181213
0.180569
0.179942
0.179332
0.178738
0.178159
0.177595
0.177046
0.176511
0.175989
0.175481
0.174984
0.174492
0.198897
0.197733
0.196606
0.195516
0.194462
0.19344
0.192449
0.191487
0.190554
0.189647
0.188766
0.187909
0.187077
0.186266
0.185478
0.184711
0.183963
0.183236
0.182527
0.181837
0.181164
0.180509
0.17987
0.179247
0.178641
0.178049
0.177473
0.176911
0.176363
0.175829
0.175308
0.174799
0.174293
0.1989
0.197735
0.196605
0.195515
0.194465
0.193449
0.192463
0.191506
0.190576
0.189671
0.18879
0.187932
0.187095
0.186279
0.185483
0.184707
0.183951
0.183212
0.182492
0.18179
0.181105
0.180437
0.179785
0.17915
0.17853
0.177925
0.177336
0.176761
0.176201
0.175655
0.175122
0.174602
0.174086
0.198943
0.197851
0.196793
0.195771
0.194782
0.193821
0.192886
0.191975
0.191087
0.190222
0.189377
0.188553
0.187749
0.186963
0.186197
0.185449
0.18472
0.184008
0.183313
0.182635
0.181975
0.181331
0.180703
0.180091
0.179495
0.178914
0.178349
0.177799
0.177263
0.176742
0.176235
0.175742
0.175256
0.199228
0.198573
0.19805
0.197615
0.197233
0.196889
0.196577
0.196294
0.196033
0.195794
0.195573
0.195369
0.195181
0.195009
0.19485
0.194705
0.194573
0.194453
0.194344
0.194247
0.19416
0.194084
0.194018
0.193962
0.193915
0.193878
0.19385
0.193831
0.193821
0.19382
0.193828
0.193844
0.193872
0.209515
0.220347
0.230809
0.240933
0.250739
0.260242
0.269452
0.278372
0.287007
0.29536
0.303434
0.311232
0.318759
0.326017
0.333011
0.339747
0.346229
0.352463
0.358455
0.36421
0.369736
0.375038
0.380124
0.385
0.389672
0.394147
0.398432
0.402534
0.406459
0.410213
0.413803
0.417236
0.420543
0.642361
0.85186
1.07434
1.28163
1.43403
1.52101
1.55376
1.54629
1.50643
1.43937
1.35284
1.25627
1.15792
1.06447
0.981147
0.910526
0.851707
0.799447
0.752883
0.710069
0.666826
0.619995
0.580031
0.583382
0.673979
0.845383
1.03922
1.20933
1.3335
1.38042
1.33638
1.22855
1.09996
0.97998
0.880129
0.801468
0.74021
0.689637
0.639337
0.587247
0.533605
0.480703
0.431597
0.388392
0.351562
0.320494
0.294373
0.272619
0.254816
0.240489
0.229041
0.219876
0.212553
0.206872
0.202885
0.200851
0.201131
0.204005
0.209464
0.217118
0.226305
0.23632
0.246596
0.25677
0.266639
0.2761
0.285087
0.293544
0.301408
0.308608
0.31507
0.320726
0.325513
0.329386
0.332313
0.334274
0.335266
0.335311
0.334472
0.332799
0.330351
0.3272
0.323422
0.319102
0.314325
0.309176
0.303744
0.298112
0.292364
0.286579
0.280836
0.275211
0.269777
0.264601
0.259761
0.255293
0.251313
0.24774
0.244945
0.242776
0.313422
0.357273
0.4371
0.556319
0.70322
0.859164
1.00653
1.13226
1.22713
1.28399
1.29935
1.27657
1.22545
1.15846
1.08691
1.01662
0.939155
0.858795
0.779559
0.703233
0.628488
0.555399
0.494429
0.472446
0.526879
0.665655
0.841308
1.00584
1.13866
1.2167
1.223
1.16523
1.07229
0.972302
0.881184
0.804192
0.740199
0.683817
0.6275
0.570664
0.514584
0.461796
0.414675
0.374191
0.339947
0.310952
0.28637
0.26574
0.248758
0.235014
0.223963
0.215054
0.207874
0.202212
0.198075
0.19566
0.195284
0.197245
0.201623
0.208152
0.216271
0.22533
0.234784
0.244276
0.253618
0.262723
0.271544
0.280036
0.288139
0.295773
0.302848
0.309268
0.314942
0.319788
0.323741
0.326748
0.328772
0.329835
0.329973
0.329229
0.327657
0.325326
0.322312
0.318701
0.314582
0.310047
0.305188
0.300097
0.294865
0.289578
0.284323
0.279179
0.274228
0.269538
0.265191
0.261222
0.257744
0.254668
0.252335
0.25052
0.186249
0.195176
0.214429
0.24837
0.297183
0.359632
0.434322
0.518185
0.605641
0.688483
0.757417
0.805088
0.828408
0.828719
0.810096
0.774171
0.722963
0.662396
0.59848
0.535245
0.474658
0.419464
0.377355
0.365551
0.411549
0.526879
0.678895
0.828257
0.957816
1.04962
1.08899
1.07305
1.01622
0.940318
0.862262
0.790472
0.72656
0.667082
0.607878
0.549577
0.494
0.44335
0.39911
0.361369
0.329286
0.301867
0.278467
0.258788
0.242582
0.229446
0.21885
0.210271
0.203309
0.19774
0.193515
0.190753
0.189708
0.190674
0.193829
0.199075
0.206001
0.214027
0.2226
0.23133
0.240005
0.248542
0.25692
0.265125
0.27313
0.280876
0.288281
0.295247
0.301664
0.307426
0.312433
0.316594
0.319839
0.322168
0.323574
0.324072
0.323696
0.322501
0.320555
0.317937
0.314736
0.311045
0.306959
0.302577
0.297995
0.293306
0.288605
0.283978
0.279511
0.27528
0.271366
0.267808
0.264717
0.261998
0.259979
0.258361
0.167825
0.169187
0.173199
0.182046
0.196823
0.21689
0.241668
0.271304
0.30547
0.342465
0.37899
0.410658
0.433271
0.444056
0.442102
0.429257
0.411143
0.388873
0.364093
0.338376
0.313202
0.291003
0.277453
0.285527
0.335496
0.434884
0.561637
0.689137
0.80524
0.896017
0.950602
0.962935
0.937041
0.886011
0.824121
0.760936
0.700378
0.641196
0.582469
0.525727
0.47286
0.42546
0.384253
0.348887
0.318497
0.292331
0.269992
0.251287
0.23595
0.223541
0.213523
0.205393
0.198763
0.193394
0.189192
0.186206
0.184608
0.184649
0.18656
0.190406
0.195984
0.202857
0.210503
0.218476
0.22649
0.234415
0.242223
0.249927
0.257537
0.265038
0.272386
0.279504
0.286296
0.292653
0.29846
0.3036
0.307993
0.31159
0.314341
0.316222
0.317235
0.317404
0.316777
0.315414
0.313393
0.310799
0.307726
0.304269
0.300529
0.296603
0.292589
0.28858
0.284668
0.280933
0.27746
0.274293
0.271541
0.269112
0.267327
0.265841
0.166154
0.165779
0.166052
0.167793
0.171967
0.17898
0.188689
0.200757
0.214518
0.228934
0.242792
0.254863
0.263884
0.268639
0.268372
0.264164
0.258693
0.252141
0.244778
0.236982
0.22942
0.223801
0.224793
0.243062
0.292974
0.377209
0.480094
0.5847
0.682709
0.764019
0.820911
0.847824
0.843871
0.814758
0.770005
0.718128
0.664264
0.609
0.553822
0.500796
0.451693
0.40767
0.369114
0.33566
0.306693
0.281758
0.260627
0.243097
0.228817
0.217291
0.207983
0.200414
0.194217
0.189145
0.185075
0.182
0.180021
0.179324
0.180129
0.182595
0.186713
0.192249
0.198805
0.205939
0.213291
0.220642
0.227901
0.235064
0.242159
0.249212
0.256219
0.263148
0.269935
0.276492
0.282716
0.288493
0.293743
0.298375
0.302309
0.305485
0.307868
0.309449
0.310239
0.310275
0.309608
0.308307
0.306451
0.304129
0.301433
0.298459
0.295305
0.292064
0.288832
0.28569
0.28273
0.279995
0.277601
0.275456
0.273889
0.272518
0.167398
0.166595
0.165917
0.165599
0.166043
0.167711
0.170959
0.175855
0.182058
0.188859
0.195422
0.201026
0.20514
0.207399
0.207644
0.206406
0.204625
0.202452
0.200002
0.197464
0.195325
0.195057
0.200792
0.221355
0.266753
0.336794
0.419749
0.504396
0.584713
0.653729
0.706011
0.737441
0.745976
0.733152
0.703985
0.66457
0.619788
0.57121
0.521734
0.473681
0.428783
0.388111
0.352084
0.320568
0.293257
0.269918
0.250365
0.234305
0.221295
0.210805
0.20232
0.195403
0.189714
0.185014
0.181164
0.178119
0.175925
0.174706
0.174639
0.175905
0.178607
0.1827
0.187967
0.194068
0.20064
0.207385
0.214121
0.220779
0.227361
0.233905
0.240441
0.246979
0.253496
0.259942
0.266242
0.272309
0.27806
0.283393
0.288212
0.292434
0.295994
0.298849
0.30098
0.302389
0.303102
0.303159
0.302619
0.301552
0.300039
0.298164
0.296017
0.293689
0.29127
0.288843
0.286496
0.284279
0.282306
0.280491
0.279174
0.277946
0.16901
0.168126
0.16724
0.166416
0.165784
0.165534
0.165889
0.167049
0.16909
0.171869
0.175001
0.177987
0.180394
0.18196
0.182598
0.182547
0.182159
0.181534
0.180761
0.179996
0.17968
0.181121
0.1879
0.207189
0.246183
0.303673
0.370651
0.439097
0.504379
0.561583
0.606816
0.637154
0.650857
0.647966
0.630705
0.602701
0.567496
0.526999
0.484472
0.442228
0.402059
0.365166
0.332158
0.303176
0.278164
0.257001
0.239458
0.225149
0.21358
0.204236
0.196651
0.190441
0.185305
0.181023
0.177455
0.174534
0.172265
0.170722
0.170033
0.170356
0.171834
0.174538
0.178418
0.183289
0.188875
0.194873
0.201032
0.207194
0.213295
0.219341
0.22537
0.231419
0.237507
0.243626
0.249741
0.255807
0.261744
0.267457
0.272846
0.277819
0.282291
0.286196
0.289485
0.292133
0.294132
0.295498
0.296263
0.296475
0.296194
0.29549
0.294441
0.293125
0.291625
0.290018
0.288388
0.286784
0.285319
0.283911
0.282912
0.281887
0.170418
0.169553
0.16866
0.167756
0.166885
0.166114
0.165533
0.165244
0.165338
0.165853
0.166736
0.167838
0.168948
0.169865
0.170463
0.170787
0.170943
0.17096
0.170889
0.170849
0.1712
0.173019
0.179207
0.19546
0.22736
0.273879
0.328027
0.383555
0.436651
0.483685
0.521778
0.548767
0.563356
0.565318
0.555684
0.536367
0.509318
0.476928
0.441728
0.405864
0.371126
0.3388
0.309651
0.284027
0.262028
0.243559
0.228339
0.215947
0.205904
0.197753
0.191098
0.185612
0.181042
0.177198
0.173947
0.171215
0.168981
0.167278
0.16619
0.165838
0.166358
0.167866
0.170416
0.173968
0.178379
0.183424
0.188855
0.194454
0.200076
0.205657
0.211199
0.21674
0.222322
0.227977
0.233713
0.239534
0.245379
0.251172
0.256826
0.262248
0.267346
0.272038
0.276255
0.279946
0.283075
0.285632
0.287619
0.289061
0.289996
0.290473
0.290552
0.290299
0.289784
0.289074
0.288247
0.287345
0.286479
0.285567
0.284971
0.284227
0.171533
0.170711
0.16986
0.168984
0.168099
0.167231
0.166412
0.165687
0.165103
0.164702
0.164503
0.164496
0.164629
0.164827
0.165016
0.165185
0.165338
0.165463
0.165569
0.165732
0.166204
0.167773
0.172585
0.184981
0.209625
0.246385
0.289982
0.335166
0.378512
0.417154
0.448895
0.472072
0.485676
0.489518
0.484157
0.470626
0.449938
0.424551
0.396242
0.36683
0.337917
0.310723
0.286059
0.264375
0.245817
0.230284
0.217482
0.207021
0.19849
0.191511
0.185764
0.180987
0.176972
0.173562
0.170641
0.168135
0.16601
0.164272
0.162966
0.162176
0.162011
0.162586
0.163998
0.166296
0.169457
0.173373
0.177872
0.182747
0.187807
0.192918
0.198011
0.203082
0.208164
0.213306
0.218553
0.223949
0.229474
0.235082
0.240708
0.246273
0.251693
0.25688
0.261755
0.266246
0.270298
0.273873
0.276947
0.279519
0.281601
0.283219
0.284415
0.285235
0.285736
0.285972
0.28601
0.285885
0.285701
0.285377
0.285275
0.284899
0.172362
0.171586
0.170785
0.16996
0.169117
0.168268
0.167425
0.166607
0.165837
0.165139
0.164536
0.164042
0.163659
0.163375
0.163167
0.16303
0.162955
0.162922
0.16293
0.163014
0.163331
0.164388
0.167607
0.176069
0.193699
0.221535
0.25607
0.292771
0.328296
0.360137
0.38653
0.406169
0.418258
0.422633
0.4196
0.409819
0.394011
0.374284
0.351986
0.328547
0.305281
0.283248
0.263196
0.245556
0.230453
0.217778
0.207275
0.198626
0.191508
0.185626
0.18073
0.176618
0.173127
0.170131
0.167536
0.165272
0.163302
0.161613
0.160224
0.159186
0.158575
0.158486
0.159018
0.160255
0.162244
0.16498
0.168389
0.172341
0.176669
0.181208
0.185828
0.19046
0.195091
0.199749
0.204487
0.209369
0.214432
0.219654
0.225006
0.230435
0.235876
0.241251
0.246481
0.251489
0.256203
0.260567
0.264534
0.268078
0.271184
0.273857
0.276112
0.277977
0.27949
0.28069
0.28163
0.282337
0.282905
0.283253
0.283733
0.283815
0.172964
0.172228
0.171472
0.170697
0.169904
0.169098
0.168287
0.16748
0.166687
0.165921
0.165198
0.164532
0.163936
0.163413
0.162964
0.162591
0.16229
0.162054
0.16188
0.161787
0.161857
0.162382
0.164202
0.169281
0.180657
0.200269
0.226568
0.255948
0.28505
0.311406
0.333431
0.350063
0.360678
0.365079
0.363457
0.356276
0.344281
0.329147
0.311911
0.293678
0.275486
0.258197
0.242422
0.228504
0.216532
0.206414
0.197956
0.19092
0.185064
0.180167
0.176042
0.172536
0.169528
0.166919
0.164633
0.162612
0.160818
0.159229
0.157849
0.156701
0.155833
0.155313
0.155223
0.155648
0.156662
0.158314
0.160612
0.163513
0.166925
0.170716
0.174745
0.178892
0.183086
0.187305
0.191574
0.195948
0.200493
0.205219
0.210129
0.215208
0.220414
0.225694
0.23098
0.236201
0.241283
0.246159
0.25077
0.255066
0.259014
0.262593
0.265795
0.268625
0.271101
0.273243
0.27509
0.276656
0.278022
0.279107
0.280245
0.280866
0.173377
0.172674
0.171956
0.171223
0.170474
0.169714
0.168946
0.168174
0.167406
0.166649
0.165912
0.165205
0.164537
0.163918
0.163351
0.162843
0.162393
0.162002
0.161669
0.161403
0.161245
0.161345
0.162148
0.164762
0.171212
0.183617
0.202187
0.224754
0.248243
0.270055
0.288554
0.302754
0.312118
0.316431
0.315823
0.310574
0.301754
0.290416
0.277392
0.263548
0.249688
0.23647
0.224356
0.213605
0.204283
0.19633
0.189612
0.18396
0.179197
0.175163
0.17172
0.168757
0.166184
0.163929
0.161932
0.160145
0.158533
0.157072
0.155755
0.154589
0.1536
0.152831
0.15234
0.152198
0.152477
0.153243
0.154547
0.156409
0.158811
0.161693
0.164956
0.168484
0.172173
0.175947
0.179782
0.183693
0.187735
0.191938
0.196331
0.200926
0.205717
0.210677
0.215762
0.220915
0.226073
0.231169
0.236139
0.240925
0.245476
0.249754
0.253729
0.257386
0.26072
0.263733
0.266443
0.268854
0.271029
0.272886
0.274727
0.275949
0.173656
0.17298
0.172291
0.17159
0.170878
0.170155
0.169424
0.16869
0.167955
0.167226
0.166506
0.165803
0.165124
0.164474
0.16386
0.163285
0.162754
0.162267
0.161824
0.161429
0.161101
0.16091
0.161071
0.162137
0.165257
0.172072
0.183712
0.199652
0.217747
0.235465
0.250982
0.263217
0.271585
0.275862
0.276127
0.272607
0.266411
0.258189
0.248617
0.238366
0.228044
0.218141
0.209003
0.200826
0.193669
0.187498
0.182227
0.177736
0.173903
0.170612
0.167765
0.165282
0.1631
0.161165
0.159433
0.157865
0.15643
0.155108
0.153884
0.152757
0.151737
0.150847
0.150125
0.14962
0.149392
0.149504
0.150015
0.150974
0.152411
0.154329
0.156695
0.159441
0.16248
0.16572
0.169092
0.172563
0.176141
0.17985
0.18372
0.187783
0.192058
0.196549
0.20124
0.206097
0.211074
0.216116
0.221165
0.226161
0.231048
0.235776
0.240301
0.244591
0.248621
0.252375
0.255853
0.259042
0.261987
0.264607
0.267158
0.269008
0.173831
0.173175
0.172508
0.171833
0.171148
0.170455
0.169756
0.169052
0.168347
0.167646
0.16695
0.166264
0.165593
0.164941
0.164314
0.163713
0.163142
0.162601
0.16209
0.161611
0.16117
0.160797
0.160589
0.160796
0.161981
0.165121
0.171347
0.181188
0.193849
0.207429
0.220083
0.230536
0.238055
0.242336
0.243379
0.241468
0.237426
0.231751
0.22497
0.217598
0.210093
0.202825
0.196058
0.189942
0.184529
0.179808
0.175725
0.172201
0.169152
0.166498
0.164169
0.16211
0.160276
0.158629
0.157136
0.155769
0.154502
0.153316
0.152198
0.15114
0.150142
0.149216
0.148382
0.14767
0.147123
0.146791
0.146727
0.146984
0.147612
0.148645
0.1501
0.151968
0.154212
0.156771
0.159571
0.162551
0.16567
0.16892
0.172304
0.175847
0.17958
0.183529
0.187706
0.192106
0.196705
0.201466
0.206344
0.211287
0.216243
0.221158
0.225982
0.230672
0.235191
0.239505
0.2436
0.247447
0.251072
0.254394
0.257613
0.260075
0.173942
0.1733
0.17265
0.171992
0.171328
0.170657
0.169981
0.169301
0.16862
0.167941
0.167265
0.166597
0.165939
0.165295
0.164668
0.164059
0.163469
0.162899
0.162348
0.161815
0.161304
0.160824
0.160416
0.160184
0.160375
0.16147
0.164193
0.169261
0.176862
0.186131
0.195669
0.204172
0.210741
0.214914
0.216518
0.215996
0.213733
0.210124
0.205581
0.200499
0.195228
0.19005
0.185166
0.180692
0.176679
0.173131
0.170021
0.1673
0.164912
0.162803
0.160925
0.159238
0.157712
0.156321
0.155043
0.153856
0.152743
0.151687
0.150675
0.149698
0.148753
0.14784
0.14697
0.146159
0.145433
0.144825
0.144379
0.144139
0.144154
0.144469
0.145123
0.146144
0.14754
0.149299
0.151388
0.153754
0.156345
0.159119
0.16204
0.165101
0.168319
0.17172
0.175335
0.179185
0.183273
0.187587
0.192097
0.196765
0.201549
0.206401
0.211273
0.216118
0.22089
0.22555
0.230068
0.234405
0.23857
0.24248
0.246274
0.249286
0.174006
0.173374
0.172735
0.172091
0.171441
0.170787
0.170128
0.169466
0.168802
0.16814
0.16748
0.166827
0.166181
0.165545
0.164921
0.16431
0.163712
0.163125
0.16255
0.161985
0.161431
0.160891
0.160379
0.159933
0.159654
0.159751
0.160585
0.162641
0.166348
0.171632
0.177844
0.184026
0.189293
0.193037
0.195027
0.195469
0.194555
0.192554
0.189765
0.186482
0.182967
0.179434
0.176032
0.172857
0.169961
0.167361
0.165047
0.162992
0.161161
0.159517
0.158027
0.156665
0.155409
0.154244
0.153155
0.152129
0.151153
0.150214
0.149303
0.148409
0.147527
0.146655
0.145794
0.144951
0.144141
0.143382
0.142704
0.14214
0.141731
0.141519
0.141546
0.141852
0.14247
0.143425
0.144723
0.146354
0.148296
0.150503
0.15292
0.155506
0.158243
0.161134
0.1642
0.167475
0.170985
0.174744
0.178748
0.182975
0.187394
0.19197
0.196661
0.201423
0.206214
0.210989
0.215712
0.220339
0.224861
0.229203
0.233433
0.236888
0.174046
0.17342
0.17279
0.172154
0.171515
0.170871
0.170225
0.169575
0.168924
0.168274
0.167626
0.166983
0.166346
0.165716
0.165095
0.164483
0.163879
0.163282
0.162693
0.162109
0.161529
0.160954
0.160387
0.15984
0.15935
0.158999
0.158945
0.15943
0.160756
0.163107
0.16636
0.17008
0.173662
0.176545
0.178508
0.179455
0.179431
0.17858
0.17709
0.175163
0.172985
0.170708
0.168449
0.166287
0.164274
0.162432
0.160764
0.159257
0.15789
0.156638
0.155478
0.154394
0.153371
0.152401
0.151475
0.150587
0.149729
0.148894
0.148072
0.147257
0.146442
0.145621
0.144793
0.143958
0.143122
0.142295
0.141493
0.140739
0.14006
0.139492
0.139071
0.138836
0.138828
0.139082
0.13963
0.140495
0.141698
0.143223
0.145034
0.147082
0.149323
0.151728
0.154291
0.157024
0.159955
0.163117
0.166531
0.170201
0.174116
0.178251
0.182576
0.187053
0.191646
0.196315
0.201021
0.205722
0.210398
0.21498
0.219473
0.223229
0.174068
0.173448
0.172822
0.172193
0.171561
0.170925
0.170286
0.169645
0.169004
0.168362
0.167722
0.167086
0.166454
0.165828
0.165208
0.164594
0.163986
0.163383
0.162784
0.162188
0.161593
0.160997
0.160401
0.159805
0.159222
0.158682
0.158245
0.158019
0.158151
0.158797
0.160014
0.161693
0.163571
0.165366
0.166818
0.167759
0.168127
0.167947
0.167305
0.16631
0.165078
0.163713
0.1623
0.160903
0.159568
0.158317
0.15716
0.156091
0.155099
0.154167
0.15328
0.152427
0.151599
0.150792
0.150003
0.149231
0.148472
0.147724
0.146979
0.146234
0.14548
0.144714
0.143928
0.143122
0.142295
0.14145
0.140595
0.139743
0.138911
0.138123
0.137408
0.136799
0.136332
0.136044
0.135972
0.136154
0.136632
0.137428
0.138541
0.13995
0.141617
0.1435
0.145566
0.147798
0.150199
0.15279
0.1556
0.158657
0.161973
0.165548
0.169366
0.1734
0.17762
0.18199
0.186478
0.191045
0.195667
0.200286
0.204848
0.208741
0.174083
0.173466
0.172844
0.172219
0.171592
0.170961
0.170328
0.169693
0.169058
0.168422
0.167788
0.167156
0.166527
0.165902
0.165282
0.164666
0.164054
0.163445
0.16284
0.162235
0.161629
0.16102
0.160406
0.159786
0.159161
0.158543
0.157954
0.157434
0.157049
0.156878
0.156986
0.157386
0.158019
0.158772
0.1595
0.160075
0.160406
0.160456
0.16023
0.159768
0.159124
0.158358
0.157524
0.156667
0.155821
0.155005
0.15423
0.153493
0.152787
0.152104
0.151431
0.150762
0.15009
0.149415
0.148737
0.148058
0.147379
0.1467
0.146019
0.145332
0.144633
0.143917
0.143177
0.142409
0.141609
0.140775
0.13991
0.139019
0.138112
0.137203
0.136313
0.135466
0.13469
0.134019
0.133487
0.13313
0.132996
0.133121
0.133533
0.134247
0.135256
0.136535
0.138051
0.13977
0.141668
0.143738
0.145992
0.148453
0.151148
0.154098
0.157311
0.16078
0.164489
0.16841
0.172515
0.176768
0.181146
0.185607
0.190046
0.193908
0.174093
0.173478
0.172859
0.172237
0.171612
0.170985
0.170356
0.169726
0.169094
0.168462
0.167831
0.167202
0.166574
0.165949
0.165328
0.164709
0.164094
0.163481
0.16287
0.162259
0.161645
0.161026
0.1604
0.159766
0.159124
0.158475
0.157827
0.157196
0.156608
0.156098
0.155707
0.155462
0.155369
0.155404
0.155517
0.155644
0.155722
0.155707
0.155575
0.155323
0.154967
0.15453
0.15404
0.15352
0.152991
0.152465
0.151949
0.151442
0.150941
0.150436
0.149921
0.149389
0.148836
0.148262
0.147669
0.147062
0.146444
0.145819
0.145187
0.144546
0.143893
0.143221
0.142525
0.141797
0.141031
0.140224
0.139373
0.138479