/*--------------------------------*- C++ -*----------------------------------*\
| =========                 |                                                 |
| \\      /  F ield         | OpenFOAM: The Open Source CFD Toolbox           |
|  \\    /   O peration     | Version:  4.1                                   |
|   \\  /    A nd           | Web:      www.OpenFOAM.org                      |
|    \\/     M anipulation  |                                                 |
\*---------------------------------------------------------------------------*/
FoamFile
{
    version     2.0;
    format      ascii;
    class       volScalarField;
    location    "100";
    object      nut;
}
// * * * * * * * * * * * * * * * * * * * * * * * * * * * * * * * * * * * * * //

dimensions      [0 2 -1 0 0 0 0];

internalField   nonuniform List<scalar> 
6820
(
4.53773e-05
4.96672e-05
5.3559e-05
5.70314e-05
6.00837e-05
6.27266e-05
6.49786e-05
6.68661e-05
6.8421e-05
6.96782e-05
7.0673e-05
7.14395e-05
7.20097e-05
7.2413e-05
7.26754e-05
7.28199e-05
7.28664e-05
7.28319e-05
7.27311e-05
7.25761e-05
7.2377e-05
7.21421e-05
7.18782e-05
7.15905e-05
7.12832e-05
7.0959e-05
7.06196e-05
7.02658e-05
6.98968e-05
6.95113e-05
6.91048e-05
6.86807e-05
6.83606e-05
0.000388983
0.000214764
0.000161912
0.000134499
0.000116985
0.000104726
9.57423e-05
8.89748e-05
8.37911e-05
7.97838e-05
7.66744e-05
7.42638e-05
7.24053e-05
7.09884e-05
6.99289e-05
6.91609e-05
6.86329e-05
6.83037e-05
6.814e-05
6.81148e-05
6.82059e-05
6.83943e-05
6.86641e-05
6.90014e-05
6.93942e-05
6.98314e-05
7.03034e-05
7.08009e-05
7.13164e-05
7.18367e-05
7.23747e-05
7.28857e-05
7.3875e-05
0.000867022
0.00063831
0.000507743
0.000428163
0.000375126
0.000337064
0.000308236
0.000285524
0.000267085
0.000251756
0.000238774
0.000227615
0.000217907
0.000209382
0.000201838
0.000195123
0.000189119
0.000183733
0.000178884
0.000174531
0.00017053
0.000166825
0.000163388
0.000160197
0.000157232
0.000154476
0.000151912
0.000149524
0.000147296
0.000145209
0.00014324
0.000141367
0.000139817
0.000991218
0.000902188
0.000807433
0.000726718
0.000662009
0.000610382
0.000568711
0.00053453
0.00050603
0.000481905
0.00046121
0.000443246
0.000427488
0.00041354
0.000401095
0.000389919
0.000379824
0.000370669
0.000362302
0.000354634
0.00034758
0.000341068
0.000335041
0.000329454
0.000324277
0.00031949
0.000315084
0.000311057
0.000307424
0.000304216
0.000301469
0.000299289
0.000297966
0.00101005
0.000987397
0.000948647
0.000902956
0.000857145
0.000814528
0.000776193
0.000742161
0.000712048
0.000685366
0.000661641
0.000640452
0.000621434
0.000604283
0.000588742
0.000574598
0.000561673
0.00054982
0.000538907
0.000528826
0.000519486
0.000510806
0.000502717
0.000495162
0.000488089
0.000481459
0.000475239
0.000469403
0.000463936
0.000458834
0.000454098
0.000449761
0.000445922
0.00101185
0.00100725
0.000995365
0.000976963
0.000954153
0.000929161
0.000903712
0.000878866
0.000855174
0.00083289
0.000812096
0.000792773
0.000774851
0.000758236
0.000742824
0.000728513
0.000715206
0.000702812
0.000691248
0.000680438
0.000670317
0.000660798
0.000651821
0.000643336
0.000635298
0.000627666
0.000620399
0.00061346
0.000606813
0.000600421
0.000594249
0.000588254
0.000582383
0.00101178
0.00101089
0.00100778
0.00100184
0.000992923
0.000981492
0.000968265
0.000953943
0.000939092
0.00092413
0.000909349
0.000894938
0.000881017
0.000867652
0.000854875
0.000842693
0.000831098
0.000820074
0.000809597
0.000799638
0.000790169
0.000781156
0.000772565
0.000764363
0.000756516
0.000748992
0.000741757
0.000734779
0.000728024
0.000721456
0.000715034
0.000708702
0.000702364
0.00101168
0.00101136
0.00101047
0.00100869
0.00100566
0.00100123
0.000995444
0.000988534
0.000980735
0.00097229
0.000963415
0.000954296
0.000945077
0.000935872
0.000926765
0.000917818
0.000909075
0.000900563
0.000892303
0.000884303
0.000876567
0.000869093
0.000861873
0.000854891
0.000848125
0.00084156
0.000835181
0.000828969
0.000822902
0.000816956
0.000811098
0.000805286
0.000799424
0.00101165
0.00101137
0.00101095
0.00101031
0.00100929
0.00100771
0.00100547
0.00100255
0.000998992
0.000994853
0.000990224
0.000985198
0.000979866
0.000974309
0.0009686
0.000962798
0.000956955
0.000951111
0.000945299
0.000939543
0.000933864
0.000928274
0.000922783
0.000917394
0.000912108
0.000906921
0.000901826
0.000896815
0.000891876
0.000886993
0.000882147
0.000877306
0.000872357
0.00101164
0.00101135
0.00101102
0.00101064
0.00101018
0.00100953
0.00100863
0.00100742
0.00100588
0.00100401
0.0010018
0.00099929
0.000996505
0.000993485
0.000990264
0.00098688
0.000983365
0.000979751
0.000976064
0.000972328
0.000968564
0.000964786
0.000961009
0.000957241
0.000953489
0.000949756
0.000946042
0.000942341
0.00093865
0.000934956
0.000931241
0.000927462
0.000923519
0.00101163
0.00101134
0.00101103
0.0010107
0.00101038
0.00101
0.00100955
0.00100898
0.00100828
0.00100743
0.0010064
0.00100521
0.00100384
0.00100232
0.00100063
0.000998809
0.000996858
0.000994795
0.000992636
0.000990397
0.000988089
0.000985726
0.000983317
0.000980871
0.000978396
0.000975895
0.000973372
0.000970827
0.000968261
0.000965669
0.000963019
0.000960273
0.000957341
0.00101163
0.00101134
0.00101103
0.00101072
0.00101042
0.00101012
0.00100979
0.00100943
0.00100902
0.00100855
0.00100801
0.00100739
0.00100669
0.0010059
0.00100502
0.00100406
0.00100301
0.00100188
0.00100067
0.000999402
0.000998067
0.000996677
0.000995234
0.000993744
0.000992211
0.000990636
0.000989019
0.000987362
0.00098566
0.000983911
0.000982103
0.000980204
0.000978125
0.00101163
0.00101133
0.00101104
0.00101074
0.00101044
0.00101016
0.00100986
0.00100956
0.00100925
0.00100892
0.00100856
0.00100818
0.00100776
0.00100731
0.00100681
0.00100627
0.00100569
0.00100506
0.00100438
0.00100366
0.0010029
0.0010021
0.00100125
0.00100037
0.000999447
0.000998485
0.000997483
0.000996438
0.000995348
0.000994209
0.000993014
0.000991736
0.00099029
0.00101163
0.00101133
0.00101104
0.00101075
0.00101046
0.00101018
0.00100989
0.00100961
0.00100932
0.00100904
0.00100874
0.00100844
0.00100813
0.0010078
0.00100746
0.0010071
0.00100672
0.00100632
0.0010059
0.00100546
0.00100499
0.00100449
0.00100397
0.00100343
0.00100285
0.00100225
0.00100162
0.00100095
0.00100025
0.000999505
0.000998716
0.000997857
0.000996847
0.00101163
0.00101133
0.00101105
0.00101075
0.00101047
0.00101019
0.00100991
0.00100963
0.00100936
0.00100909
0.00100881
0.00100854
0.00100827
0.00100799
0.00100771
0.00100743
0.00100714
0.00100684
0.00100654
0.00100622
0.00100589
0.00100555
0.0010052
0.00100483
0.00100444
0.00100404
0.00100361
0.00100316
0.00100268
0.00100217
0.00100163
0.00100103
0.00100029
0.00101163
0.00101133
0.00101105
0.00101076
0.00101048
0.0010102
0.00100993
0.00100965
0.00100938
0.00100912
0.00100885
0.00100859
0.00100833
0.00100807
0.00100781
0.00100756
0.0010073
0.00100704
0.00100678
0.00100651
0.00100624
0.00100597
0.00100569
0.0010054
0.0010051
0.00100479
0.00100446
0.00100412
0.00100376
0.00100338
0.00100297
0.00100252
0.00100195
0.00101163
0.00101133
0.00101105
0.00101076
0.00101048
0.00101021
0.00100994
0.00100967
0.0010094
0.00100914
0.00100888
0.00100862
0.00100836
0.00100811
0.00100786
0.00100762
0.00100737
0.00100713
0.00100689
0.00100665
0.0010064
0.00100616
0.00100591
0.00100566
0.0010054
0.00100513
0.00100486
0.00100457
0.00100428
0.00100396
0.00100363
0.00100326
0.00100278
0.00101163
0.00101133
0.00101105
0.00101077
0.00101049
0.00101022
0.00100995
0.00100968
0.00100941
0.00100915
0.00100889
0.00100864
0.00100839
0.00100814
0.00100789
0.00100765
0.00100741
0.00100718
0.00100694
0.00100671
0.00100647
0.00100624
0.001006
0.00100576
0.00100552
0.00100527
0.00100502
0.00100476
0.0010045
0.00100422
0.00100393
0.00100361
0.00100318
0.00101163
0.00101133
0.00101105
0.00101077
0.00101049
0.00101022
0.00100995
0.00100969
0.00100942
0.00100917
0.00100891
0.00100866
0.00100841
0.00100816
0.00100792
0.00100768
0.00100744
0.00100721
0.00100697
0.00100674
0.00100651
0.00100628
0.00100605
0.00100582
0.00100559
0.00100536
0.00100512
0.00100487
0.00100462
0.00100437
0.0010041
0.00100381
0.00100341
0.00101163
0.00101133
0.00101105
0.00101077
0.0010105
0.00101023
0.00100996
0.00100969
0.00100943
0.00100918
0.00100892
0.00100867
0.00100842
0.00100818
0.00100794
0.0010077
0.00100746
0.00100723
0.001007
0.00100677
0.00100654
0.00100632
0.00100609
0.00100586
0.00100563
0.0010054
0.00100517
0.00100493
0.00100469
0.00100445
0.0010042
0.00100392
0.00100355
0.00101163
0.00101133
0.00101105
0.00101077
0.0010105
0.00101023
0.00100996
0.0010097
0.00100944
0.00100918
0.00100893
0.00100868
0.00100843
0.00100819
0.00100795
0.00100771
0.00100748
0.00100725
0.00100702
0.00100679
0.00100657
0.00100634
0.00100612
0.00100589
0.00100567
0.00100544
0.00100521
0.00100499
0.00100475
0.00100452
0.00100428
0.00100402
0.00100367
0.00101163
0.00101133
0.00101105
0.00101077
0.0010105
0.00101023
0.00100997
0.00100971
0.00100945
0.00100919
0.00100894
0.00100869
0.00100845
0.0010082
0.00100796
0.00100773
0.00100749
0.00100726
0.00100704
0.00100681
0.00100658
0.00100636
0.00100614
0.00100592
0.0010057
0.00100547
0.00100525
0.00100503
0.0010048
0.00100458
0.00100434
0.0010041
0.00100376
0.00101163
0.00101133
0.00101105
0.00101077
0.0010105
0.00101023
0.00100997
0.00100971
0.00100945
0.0010092
0.00100895
0.0010087
0.00100845
0.00100821
0.00100797
0.00100774
0.00100751
0.00100728
0.00100705
0.00100682
0.0010066
0.00100638
0.00100616
0.00100594
0.00100572
0.0010055
0.00100528
0.00100506
0.00100484
0.00100462
0.0010044
0.00100416
0.00100383
0.00101163
0.00101133
0.00101105
0.00101077
0.0010105
0.00101024
0.00100997
0.00100971
0.00100945
0.0010092
0.00100895
0.0010087
0.00100846
0.00100822
0.00100798
0.00100775
0.00100752
0.00100729
0.00100706
0.00100684
0.00100661
0.00100639
0.00100617
0.00100596
0.00100574
0.00100552
0.00100531
0.00100509
0.00100488
0.00100467
0.00100445
0.00100422
0.0010039
0.00101163
0.00101133
0.00101105
0.00101077
0.0010105
0.00101024
0.00100997
0.00100971
0.00100946
0.0010092
0.00100895
0.00100871
0.00100846
0.00100822
0.00100798
0.00100775
0.00100752
0.00100729
0.00100706
0.00100684
0.00100662
0.0010064
0.00100618
0.00100596
0.00100575
0.00100553
0.00100532
0.00100511
0.00100489
0.00100468
0.00100447
0.00100425
0.00100393
0.00101163
0.00101133
0.00101105
0.00101077
0.0010105
0.00101023
0.00100997
0.00100971
0.00100945
0.0010092
0.00100895
0.0010087
0.00100846
0.00100822
0.00100798
0.00100775
0.00100752
0.00100729
0.00100706
0.00100684
0.00100662
0.0010064
0.00100618
0.00100597
0.00100575
0.00100554
0.00100533
0.00100512
0.00100491
0.00100471
0.0010045
0.00100428
0.00100397
0.00101163
0.00101133
0.00101105
0.00101077
0.0010105
0.00101023
0.00100997
0.00100971
0.00100945
0.0010092
0.00100895
0.0010087
0.00100846
0.00100821
0.00100798
0.00100774
0.00100751
0.00100728
0.00100705
0.00100682
0.0010066
0.00100638
0.00100616
0.00100594
0.00100572
0.00100551
0.0010053
0.00100509
0.00100488
0.00100467
0.00100447
0.00100425
0.00100394
0.00101163
0.00101133
0.00101105
0.00101077
0.0010105
0.00101023
0.00100997
0.00100971
0.00100945
0.00100919
0.00100894
0.00100869
0.00100845
0.00100821
0.00100797
0.00100773
0.0010075
0.00100727
0.00100704
0.00100681
0.00100659
0.00100637
0.00100615
0.00100593
0.00100572
0.00100551
0.0010053
0.00100509
0.00100488
0.00100468
0.00100447
0.00100426
0.00100395
0.00101163
0.00101133
0.00101105
0.00101077
0.0010105
0.00101023
0.00100996
0.0010097
0.00100944
0.00100918
0.00100893
0.00100868
0.00100843
0.00100818
0.00100794
0.0010077
0.00100746
0.00100722
0.00100699
0.00100676
0.00100653
0.0010063
0.00100608
0.00100586
0.00100564
0.00100542
0.0010052
0.00100499
0.00100478
0.00100457
0.00100436
0.00100415
0.00100384
0.00101163
0.00101133
0.00101105
0.00101077
0.0010105
0.00101023
0.00100996
0.0010097
0.00100943
0.00100918
0.00100892
0.00100867
0.00100842
0.00100818
0.00100793
0.00100769
0.00100746
0.00100722
0.00100699
0.00100676
0.00100653
0.0010063
0.00100608
0.00100586
0.00100564
0.00100542
0.0010052
0.00100499
0.00100478
0.00100457
0.00100436
0.00100414
0.00100383
0.00101163
0.00101133
0.00101105
0.00101077
0.00101049
0.00101022
0.00100995
0.00100968
0.00100942
0.00100915
0.00100889
0.00100863
0.00100837
0.00100811
0.00100786
0.00100761
0.00100736
0.00100711
0.00100687
0.00100662
0.00100638
0.00100615
0.00100591
0.00100567
0.00100544
0.00100521
0.00100498
0.00100476
0.00100453
0.00100431
0.00100409
0.00100386
0.00100353
0.00101163
0.00101133
0.00101105
0.00101077
0.00101049
0.00101022
0.00100995
0.00100968
0.00100942
0.00100916
0.0010089
0.00100865
0.00100839
0.00100814
0.00100788
0.00100763
0.00100738
0.00100713
0.00100687
0.00100662
0.00100637
0.00100612
0.00100587
0.00100562
0.00100536
0.00100511
0.00100486
0.00100461
0.00100436
0.00100411
0.00100386
0.0010036
0.00100324
0.00101163
0.00101133
0.00101105
0.00101076
0.00101048
0.0010102
0.00100991
0.00100962
0.00100933
0.00100905
0.00100876
0.00100847
0.00100818
0.00100789
0.00100759
0.0010073
0.001007
0.0010067
0.0010064
0.00100609
0.00100578
0.00100547
0.00100515
0.00100483
0.0010045
0.00100417
0.00100384
0.00100351
0.00100317
0.00100283
0.00100249
0.00100213
0.00100168
0.00101163
0.00101133
0.00101105
0.00101076
0.00101048
0.0010102
0.00100992
0.00100962
0.00100932
0.00100901
0.00100868
0.00100834
0.00100799
0.00100762
0.00100724
0.00100683
0.00100641
0.00100597
0.0010055
0.00100503
0.00100453
0.00100402
0.00100349
0.00100295
0.0010024
0.00100183
0.00100126
0.00100068
0.00100009
0.000999494
0.00099889
0.000998271
0.000997552
0.00101163
0.00101134
0.00101103
0.00101069
0.00101032
0.00100993
0.0010095
0.00100902
0.0010085
0.00100792
0.00100729
0.0010066
0.00100585
0.00100505
0.00100419
0.00100328
0.00100232
0.00100132
0.00100027
0.000999182
0.000998063
0.000996915
0.000995742
0.000994548
0.000993337
0.000992112
0.000990878
0.000989637
0.000988392
0.000987146
0.000985899
0.000984645
0.000983299
0.00101164
0.00101133
0.00101094
0.00101042
0.00100972
0.00100881
0.00100767
0.0010063
0.00100472
0.00100293
0.00100094
0.00099879
0.000996489
0.000994062
0.000991526
0.000988899
0.000986198
0.000983441
0.000980643
0.000977817
0.000974978
0.000972134
0.000969297
0.000966473
0.00096367
0.000960894
0.000958149
0.000955441
0.000952773
0.000950148
0.000947564
0.000945016
0.000942422
0.00101162
0.00101059
0.00100851
0.0010054
0.00100134
0.000996428
0.000990786
0.000984578
0.000977952
0.000971033
0.000963925
0.000956719
0.000949485
0.000942281
0.000935152
0.000928132
0.000921247
0.000914515
0.000907949
0.00090156
0.000895352
0.000889329
0.000883492
0.00087784
0.000872371
0.000867083
0.000861972
0.000857034
0.000852266
0.000847663
0.000843218
0.000838921
0.000834692
0.00100894
0.000995336
0.00097595
0.000953545
0.00093011
0.00090682
0.000884323
0.000862906
0.000842712
0.000823776
0.000806072
0.000789542
0.000774112
0.000759701
0.000746229
0.000733619
0.0007218
0.000710708
0.000700282
0.000690469
0.000681219
0.00067249
0.000664243
0.00065644
0.000649052
0.000642048
0.000635402
0.000629092
0.000623094
0.00061739
0.000611959
0.000606785
0.000601803
0.000892835
0.000742414
0.000649479
0.000585927
0.000539065
0.000502752
0.000473615
0.000449601
0.000429382
0.000412063
0.00039702
0.000383803
0.000372077
0.000361588
0.000352137
0.000343571
0.000335765
0.000328617
0.000322046
0.000315981
0.000310365
0.000305148
0.000300289
0.000295751
0.000291502
0.000287514
0.000283765
0.000280232
0.000276896
0.000273741
0.000270753
0.00026792
0.000265223
0.000126722
0.000129957
0.000133006
0.000135891
0.000138629
0.000141232
0.00014371
0.000146069
0.000148318
0.000150461
0.000152504
0.000154452
0.000156308
0.000158079
0.000159766
0.000161375
0.000162908
0.000164369
0.000165761
0.000167088
0.000168352
0.000169557
0.000170704
0.000171797
0.000172838
0.00017383
0.000174774
0.000175674
0.000176531
0.000177347
0.000178124
0.000178864
0.000179574
8.84299e-05
0.000127203
0.000160784
0.00018853
0.000212497
0.00023464
0.000254056
0.000269512
0.00028152
0.000291593
0.000300443
0.00030757
0.000312218
0.000313843
0.000311836
0.000305769
0.00029216
0.000271035
0.000248238
0.000227152
0.000208371
0.000193677
0.000192905
0.000234637
0.000378948
0.000655396
0.000922013
0.00102174
0.000958701
0.000821144
0.000695967
0.000617118
0.000583667
0.000582104
0.000596559
0.000613174
0.000621418
0.000612643
0.000580104
0.000526818
0.000461742
0.000399942
0.000353761
0.00032628
0.000315907
0.000320292
0.000338487
0.000371153
0.000419172
0.000481779
0.000555499
0.000634805
0.000714202
0.000790379
0.000863351
0.000936355
0.00101466
0.00110339
0.00120494
0.00131709
0.00143329
0.001545
0.00164457
0.00172697
0.00179012
0.00183426
0.00186109
0.00187303
0.00187268
0.00186252
0.00184474
0.00182118
0.00179334
0.00176241
0.00172934
0.00169479
0.00165915
0.00162272
0.00158608
0.00154965
0.00151382
0.00147892
0.00144521
0.00141292
0.00138226
0.00135339
0.00132648
0.00130167
0.00127912
0.001259
0.0012415
0.00122681
0.00121516
0.0012068
0.00120193
0.00120047
0.00120278
0.00120904
0.00121945
0.0012519
7.79862e-05
8.93117e-05
0.000105805
0.000122234
0.000139309
0.000159621
0.000181884
0.000202446
0.000218408
0.000229315
0.000236274
0.000240406
0.000242389
0.000242709
0.000241737
0.000238387
0.000229476
0.000217747
0.00020521
0.000192382
0.000179573
0.000169882
0.000172073
0.000208785
0.000338142
0.000616057
0.000914572
0.00104553
0.000999646
0.000863205
0.000726062
0.000628836
0.000575011
0.000554108
0.000552556
0.000557786
0.00055874
0.000544203
0.000508058
0.000456403
0.000401013
0.00035547
0.000327614
0.000315512
0.000317279
0.00033146
0.000358133
0.000398547
0.000453421
0.000521193
0.000597498
0.000676416
0.000752679
0.000823463
0.000889135
0.000953029
0.00102038
0.00109648
0.00118435
0.00128312
0.00138798
0.00149185
0.0015877
0.00167019
0.00173624
0.00178492
0.00181687
0.00183376
0.00183776
0.00183118
0.00181624
0.00179489
0.00176878
0.00173926
0.00170739
0.00167389
0.00163907
0.00160348
0.0015677
0.00153219
0.00149734
0.00146349
0.00143091
0.00139983
0.00137045
0.00134293
0.00131745
0.00129414
0.00127319
0.00125475
0.00123902
0.00122621
0.00121654
0.00121026
0.00120757
0.00120859
0.00121344
0.00122245
0.00123484
0.00126797
0.000139458
0.000144318
0.000157698
0.000166954
0.000160635
0.000152622
0.000152458
0.000158232
0.000165348
0.00017114
0.000175468
0.000178972
0.000181897
0.000184149
0.000185515
0.000184798
0.000181709
0.000177528
0.000173341
0.000169514
0.000166844
0.000168625
0.000183389
0.000234554
0.000382667
0.000679376
0.000984577
0.00111518
0.00106976
0.000928648
0.000776689
0.00065957
0.000584978
0.000544619
0.000526914
0.000519888
0.000508207
0.000484226
0.000446568
0.000401815
0.000359817
0.000329721
0.000316854
0.000317769
0.000329877
0.00035268
0.000387184
0.000434889
0.000495932
0.000567707
0.000645064
0.00072201
0.000793773
0.000858099
0.000915616
0.00096957
0.001025
0.00108727
0.0011601
0.00124393
0.00133567
0.00142984
0.00152043
0.00160222
0.00167148
0.00172611
0.00176548
0.00179013
0.00180141
0.00180118
0.00179144
0.00177419
0.00175122
0.00172409
0.00169406
0.00166194
0.00162807
0.00159332
0.00155831
0.00152356
0.0014895
0.00145648
0.00142478
0.00139464
0.00136626
0.0013398
0.00131542
0.00129329
0.00127356
0.00125641
0.00124201
0.00123059
0.00122234
0.00121751
0.00121629
0.00121886
0.00122526
0.00123581
0.00124933
0.0012823
0.000297833
0.000302263
0.000324713
0.000380795
0.000440642
0.000433161
0.000373029
0.000313421
0.000267801
0.000232755
0.000206275
0.000187761
0.000175838
0.000168575
0.000164443
0.000162862
0.000164459
0.000168542
0.00017494
0.000183565
0.000195253
0.000213712
0.000249774
0.000334287
0.000531881
0.000856867
0.00114097
0.00123999
0.00117693
0.00102386
0.000853677
0.000713682
0.000616593
0.000556346
0.000522697
0.000500517
0.000476414
0.000445354
0.000408526
0.00037173
0.000341875
0.000324458
0.000322714
0.000333255
0.000353414
0.000383463
0.00042497
0.000479185
0.000545267
0.000619525
0.000696294
0.000769848
0.000836103
0.000893419
0.000942648
0.000986799
0.00103047
0.00107887
0.00113626
0.00120438
0.00128177
0.00136447
0.00144751
0.00152621
0.00159676
0.00165639
0.00170342
0.00173719
0.00175796
0.0017667
0.0017649
0.0017543
0.00173667
0.00171371
0.00168687
0.00165704
0.00162488
0.00159141
0.00155738
0.00152342
0.00149006
0.0014577
0.00142667
0.00139721
0.00136954
0.00134383
0.00132024
0.00129892
0.00128004
0.00126376
0.00125025
0.00123971
0.00123235
0.00122837
0.00122795
0.00123129
0.00123837
0.00124951
0.00126335
0.00129553
0.000442016
0.000439541
0.000443742
0.000468766
0.000529101
0.000619076
0.000701073
0.000730777
0.000696335
0.000615131
0.000515414
0.000423363
0.000352724
0.000304105
0.000272416
0.000253847
0.000247986
0.000251285
0.000261559
0.000277326
0.0002985
0.000329016
0.000384254
0.000506658
0.00075796
0.00110004
0.00134862
0.00140549
0.00131616
0.00114782
0.000959787
0.000795701
0.000673846
0.00059231
0.000541959
0.000505524
0.000471021
0.000434958
0.000399445
0.000368857
0.000347576
0.000338794
0.000344479
0.000361368
0.00038743
0.000423506
0.000471163
0.000530843
0.000600463
0.000675389
0.000749811
0.000818572
0.000878413
0.000928356
0.000969484
0.00100454
0.0010375
0.00107304
0.00111557
0.0011679
0.00123022
0.00130012
0.00137368
0.00144678
0.00151581
0.00157788
0.00163077
0.00167297
0.00170368
0.00172285
0.0017311
0.00172959
0.00171977
0.00170325
0.00168159
0.00165573
0.00162665
0.00159544
0.00156304
0.00153029
0.00149783
0.00146618
0.00143574
0.00140681
0.00137964
0.00135442
0.00133132
0.00131051
0.00129212
0.00127632
0.00126328
0.00125317
0.00124618
0.00124251
0.00124229
0.00124573
0.00125279
0.00126375
0.00127723
0.00130803
0.000575228
0.00056794
0.000561426
0.000559006
0.000567473
0.000592763
0.000635771
0.000692173
0.000752377
0.000799079
0.000808997
0.000768771
0.000691302
0.000604535
0.000527215
0.000471213
0.000441322
0.000429805
0.000430648
0.000440205
0.000457856
0.00048913
0.000555573
0.000708118
0.000995601
0.00133914
0.00155676
0.00158207
0.00147134
0.00129082
0.00109033
0.000906051
0.000759521
0.000655047
0.000586489
0.000536929
0.000493689
0.000453145
0.000417645
0.000390247
0.000373599
0.000369542
0.000379362
0.000400264
0.000430835
0.000472119
0.000525098
0.000588964
0.000660344
0.000733967
0.000804263
0.000866896
0.000919532
0.000961862
0.000995208
0.00102208
0.00104582
0.00107033
0.00109963
0.00113703
0.00118411
0.00124018
0.00130261
0.00136791
0.00143272
0.00149421
0.00155006
0.00159838
0.0016377
0.0016671
0.00168623
0.00169541
0.00169547
0.00168764
0.00167336
0.00165363
0.00162944
0.00160196
0.00157236
0.00154165
0.00151067
0.00148009
0.00145043
0.00142209
0.00139538
0.00137055
0.00134777
0.00132723
0.00130908
0.00129347
0.00128055
0.0012705
0.00126348
0.00125966
0.00125916
0.00126217
0.00126863
0.00127884
0.00129141
0.00132022
0.000694331
0.000685779
0.000676612
0.000667284
0.000659798
0.000657095
0.000661701
0.000675163
0.000698038
0.000728558
0.000759903
0.000779901
0.00077727
0.00075057
0.000708049
0.000665634
0.000635277
0.000617713
0.000610686
0.000612187
0.000622808
0.000649923
0.00071894
0.000883082
0.0011799
0.00151723
0.00172326
0.00174051
0.00162373
0.00143934
0.00123432
0.0010385
0.000872355
0.00074567
0.000657701
0.000593841
0.00054127
0.000495219
0.000457629
0.000430341
0.000414929
0.000412522
0.000424077
0.000447854
0.000482472
0.000528574
0.000586013
0.000652503
0.000723595
0.00079382
0.000858237
0.000913531
0.000958335
0.000992969
0.00101896
0.00103859
0.00105465
0.00107025
0.00108869
0.00111312
0.00114586
0.0011877
0.00123761
0.00129315
0.00135133
0.00140939
0.00146503
0.00151632
0.00156158
0.00159938
0.00162867
0.00164887
0.00166001
0.00166265
0.00165782
0.00164643
0.0016292
0.00160732
0.00158205
0.0015546
0.00152601
0.00149715
0.00146872
0.00144125
0.00141516
0.00139074
0.00136826
0.0013479
0.00132984
0.00131424
0.00130124
0.00129099
0.00128364
0.00127934
0.00127821
0.00128039
0.00128583
0.00129485
0.00130612
0.0013323
0.000791801
0.000783536
0.000774552
0.000764862
0.000755009
0.000745998
0.000739039
0.000735241
0.000735598
0.000740901
0.00075094
0.000763241
0.000772981
0.000775479
0.000769023
0.000757515
0.000746695
0.000739512
0.000736299
0.000737806
0.000746297
0.000770143
0.000834891
0.000991238
0.00127395
0.00160302
0.00182
0.0018574
0.00175618
0.00158066
0.00137963
0.00118174
0.00100497
0.000861428
0.00075504
0.000673594
0.000608028
0.000554209
0.000512176
0.000482602
0.00046634
0.000464025
0.000476336
0.000503019
0.000541909
0.000592522
0.000653194
0.000720264
0.000788678
0.000853306
0.000910186
0.000957138
0.000993715
0.00102077
0.00103994
0.00105329
0.0010631
0.00107178
0.00108188
0.00109599
0.00111645
0.0011449
0.00118171
0.00122586
0.00127521
0.00132729
0.00137979
0.00143078
0.00147862
0.0015218
0.00155896
0.00158894
0.00161099
0.00162491
0.00163104
0.00162999
0.00162191
0.00160775
0.00158874
0.00156617
0.00154128
0.00151514
0.00148865
0.00146253
0.00143735
0.00141355
0.00139143
0.00137127
0.00135326
0.00133758
0.00132436
0.00131377
0.00130591
0.00130094
0.00129893
0.00130004
0.00130419
0.00131172
0.00132143
0.00134433
0.000865698
0.00085857
0.000850807
0.000842389
0.000833479
0.000824449
0.000815796
0.000808046
0.000801727
0.000797434
0.000795788
0.00079699
0.000800208
0.000803671
0.000805661
0.000806297
0.000806902
0.000808052
0.000810359
0.000814822
0.000823772
0.00084453
0.000898773
0.00103071
0.00127821
0.00159076
0.00183134
0.00191348
0.00185185
0.00170226
0.0015157
0.00132414
0.00114623
0.000994416
0.000869841
0.000769867
0.000688894
0.000625145
0.000576893
0.000543771
0.000525882
0.000523348
0.000536603
0.000566579
0.000609788
0.000663913
0.000725707
0.000790613
0.000853638
0.000910503
0.00095844
0.000996379
0.00102465
0.00104446
0.00105748
0.0010655
0.00107035
0.00107386
0.00107789
0.00108438
0.00109529
0.00111239
0.00113687
0.00116896
0.00120779
0.00125161
0.00129838
0.00134615
0.00139328
0.00143835
0.00148003
0.00151702
0.00154817
0.00157262
0.00159
0.00160039
0.00160329
0.00159904
0.00158853
0.00157294
0.00155353
0.00153156
0.00150812
0.00148417
0.00146047
0.00143763
0.0014161
0.00139624
0.00137832
0.00136253
0.00134905
0.00133803
0.00132957
0.00132381
0.00132081
0.00132071
0.00132341
0.0013293
0.00133731
0.00135629
0.000918056
0.000912361
0.000906154
0.00089941
0.000892183
0.000884642
0.000877014
0.000869556
0.00086254
0.000856288
0.000851221
0.000847793
0.000846224
0.000846253
0.000847295
0.000849201
0.000851797
0.000854924
0.000858818
0.000864054
0.000872241
0.000888507
0.00092835
0.00102603
0.00122091
0.00149765
0.00175511
0.00189377
0.00189285
0.00178908
0.00163114
0.0014556
0.00128574
0.00113018
0.000992349
0.000876651
0.000781205
0.000707009
0.000651937
0.000614857
0.000595175
0.000592604
0.00060742
0.000640468
0.000686851
0.000742019
0.000801673
0.000861096
0.00091599
0.000963244
0.00100129
0.00103001
0.00105025
0.00106342
0.00107107
0.00107471
0.00107576
0.00107554
0.00107537
0.00107662
0.00108072
0.00108918
0.00110333
0.00112413
0.0011518
0.00118571
0.00122451
0.00126651
0.00131009
0.00135382
0.00139651
0.00143696
0.00147402
0.00150658
0.00153379
0.0015551
0.00156972
0.00157695
0.00157704
0.00157072
0.00155905
0.00154323
0.00152451
0.00150402
0.00148277
0.00146158
0.0014411
0.00142182
0.00140414
0.00138833
0.0013746
0.00136313
0.00135404
0.00134744
0.0013434
0.00134204
0.00134325
0.00134743
0.00135371
0.00136812
0.000953074
0.000948786
0.000944092
0.000938976
0.000933459
0.000927607
0.000921561
0.000915458
0.000909459
0.000903754
0.000898593
0.000894296
0.000891172
0.000889365
0.000888854
0.000889471
0.00089091
0.000893091
0.000896066
0.000900104
0.000906145
0.000917273
0.000942974
0.00100619
0.00114126
0.00135988
0.00160763
0.00179315
0.00186277
0.00182285
0.00171072
0.00156477
0.00141174
0.00125799
0.0011143
0.000988376
0.000882346
0.000799659
0.000738651
0.000698005
0.000676814
0.000674497
0.000690957
0.000725792
0.000772067
0.000824256
0.00087775
0.000928358
0.000972841
0.00100929
0.00103717
0.00105698
0.00106988
0.00107724
0.00108041
0.00108061
0.00107888
0.00107613
0.00107325
0.00107113
0.00107076
0.00107323
0.00107967
0.00109118
0.00110856
0.0011321
0.00116142
0.00119554
0.00123312
0.0012728
0.00131339
0.00135383
0.00139313
0.0014303
0.00146437
0.00149447
0.00151963
0.00153842
0.00155025
0.00155508
0.0015534
0.00154607
0.00153422
0.00151907
0.00150178
0.00148342
0.00146485
0.00144678
0.00142975
0.00141417
0.00140036
0.00138852
0.00137884
0.00137142
0.00136635
0.00136374
0.00136347
0.00136596
0.00137057
0.0013798
0.000974889
0.000971814
0.000968423
0.000964709
0.000960679
0.000956364
0.000951845
0.000947213
0.000942573
0.000938053
0.000933811
0.000930046
0.000926976
0.000924792
0.000923593
0.000923143
0.000923386
0.000924303
0.000925911
0.000928335
0.000932071
0.00093879
0.000953606
0.000989732
0.0010714
0.00122095
0.00142548
0.00162552
0.00175483
0.00178657
0.00173585
0.00163494
0.00150772
0.00136665
0.00122683
0.00109774
0.000987954
0.000901
0.000836491
0.000793622
0.000771501
0.000769179
0.000785914
0.000819232
0.000860867
0.000905593
0.00094921
0.00098846
0.00102123
0.00104663
0.00106479
0.00107659
0.00108318
0.00108577
0.00108546
0.00108314
0.00107952
0.00107521
0.00107075
0.0010667
0.00106366
0.00106234
0.00106359
0.00106831
0.00107739
0.00109158
0.00111125
0.00113625
0.00116593
0.00119929
0.00123523
0.00127273
0.00131093
0.00134902
0.0013862
0.00142164
0.00145442
0.00148294
0.00150591
0.00152249
0.00153232
0.00153552
0.00153281
0.00152523
0.00151396
0.00150019
0.00148497
0.00146921
0.00145367
0.00143892
0.00142542
0.00141351
0.00140341
0.00139531
0.0013893
0.00138552
0.00138387
0.00138473
0.00138779
0.00139125
0.000987831
0.000985676
0.000983283
0.000980646
0.000977771
0.000974674
0.000971392
0.000968006
0.00096459
0.000961231
0.000958031
0.000955115
0.000952619
0.000950706
0.000949397
0.000948556
0.000948186
0.0009483
0.000948919
0.000950103
0.000952097
0.000955734
0.000963523
0.000982137
0.00102561
0.00111343
0.00125481
0.00142822
0.0015833
0.00167471
0.00169066
0.00164637
0.00155779
0.00144278
0.00131869
0.00119714
0.00109153
0.00100574
0.000941127
0.000897727
0.000874813
0.000871172
0.000885492
0.000912847
0.00094566
0.000979382
0.00101075
0.00103755
0.00105862
0.00107375
0.00108343
0.00108857