/*--------------------------------*- C++ -*----------------------------------*\
| =========                 |                                                 |
| \\      /  F ield         | OpenFOAM: The Open Source CFD Toolbox           |
|  \\    /   O peration     | Version:  4.1                                   |
|   \\  /    A nd           | Web:      www.OpenFOAM.org                      |
|    \\/     M anipulation  |                                                 |
\*---------------------------------------------------------------------------*/
FoamFile
{
    version     2.0;
    format      ascii;
    class       volScalarField;
    location    "100";
    object      p;
}
// * * * * * * * * * * * * * * * * * * * * * * * * * * * * * * * * * * * * * //

dimensions      [0 2 -2 0 0 0 0];

internalField   nonuniform List<scalar> 
6820
(
-9.08302
-9.33989
-9.4358
-9.45389
-9.48372
-9.52484
-9.56144
-9.59169
-9.61855
-9.6428
-9.66393
-9.68172
-9.69631
-9.70786
-9.71641
-9.72194
-9.72444
-9.72383
-9.72001
-9.71279
-9.70192
-9.68706
-9.66781
-9.64363
-9.61384
-9.57762
-9.53391
-9.48139
-9.41842
-9.34282
-9.25317
-9.14352
-9.03765
-9.19606
-9.36144
-9.43849
-9.45679
-9.48035
-9.51146
-9.5381
-9.55916
-9.57769
-9.59467
-9.60973
-9.62267
-9.63354
-9.64237
-9.64908
-9.65356
-9.65567
-9.65526
-9.65213
-9.64605
-9.6367
-9.62376
-9.6068
-9.58532
-9.5587
-9.52621
-9.48696
-9.4399
-9.38372
-9.31696
-9.23759
-9.14335
-9.02513
-9.25251
-9.35654
-9.43289
-9.46222
-9.48708
-9.51617
-9.54168
-9.56219
-9.58009
-9.59632
-9.61059
-9.6227
-9.63269
-9.64059
-9.64633
-9.64981
-9.65092
-9.64954
-9.64548
-9.63854
-9.62845
-9.61492
-9.59758
-9.57599
-9.54964
-9.51794
-9.48019
-9.43562
-9.38334
-9.32241
-9.2519
-9.17065
-9.07963
-9.30262
-9.37696
-9.44796
-9.48059
-9.50477
-9.53227
-9.55741
-9.57801
-9.59576
-9.61158
-9.62532
-9.63683
-9.64619
-9.65344
-9.65855
-9.66146
-9.66209
-9.66031
-9.65597
-9.6489
-9.63887
-9.6256
-9.60879
-9.58808
-9.56305
-9.53324
-9.49814
-9.45724
-9.41003
-9.35612
-9.29535
-9.22856
-9.15818
-9.34456
-9.39515
-9.45374
-9.4861
-9.5101
-9.53635
-9.56078
-9.58116
-9.59877
-9.6145
-9.6283
-9.64003
-9.64973
-9.65742
-9.66308
-9.66661
-9.66795
-9.66696
-9.66353
-9.65749
-9.64863
-9.63675
-9.62159
-9.60287
-9.58029
-9.55354
-9.52231
-9.48636
-9.44553
-9.39996
-9.35016
-9.29785
-9.24588
-9.37993
-9.41516
-9.46441
-9.49725
-9.52173
-9.54686
-9.5705
-9.59068
-9.60824
-9.62393
-9.63773
-9.64951
-9.65928
-9.66708
-9.67288
-9.67661
-9.67822
-9.67761
-9.67468
-9.6693
-9.66131
-9.65055
-9.63684
-9.61998
-9.59979
-9.5761
-9.5488
-9.51786
-9.48347
-9.44612
-9.40679
-9.36756
-9.33135
-9.41049
-9.43544
-9.47578
-9.50657
-9.52995
-9.55322
-9.57553
-9.59506
-9.61221
-9.62757
-9.64116
-9.65288
-9.66273
-9.67073
-9.67686
-9.68106
-9.68328
-9.68345
-9.68146
-9.67722
-9.67062
-9.66153
-9.64984
-9.63544
-9.61824
-9.5982
-9.57538
-9.54997
-9.52237
-9.49334
-9.46412
-9.4368
-9.414
-9.43729
-9.45528
-9.48819
-9.51672
-9.53944
-9.5616
-9.58305
-9.60222
-9.61921
-9.63448
-9.64808
-9.65993
-9.67
-9.67831
-9.68484
-9.68954
-9.69236
-9.69326
-9.69217
-9.68901
-9.68373
-9.67625
-9.66651
-9.6545
-9.64023
-9.62377
-9.60533
-9.58524
-9.56409
-9.54277
-9.52261
-9.50555
-9.49385
-9.46116
-9.47443
-9.50127
-9.52713
-9.54868
-9.5694
-9.58956
-9.60794
-9.6244
-9.6393
-9.65266
-9.66442
-9.67454
-9.68303
-9.68987
-9.69503
-9.69849
-9.70019
-9.7001
-9.69818
-9.6944
-9.68875
-9.68122
-9.67186
-9.66077
-9.64813
-9.63424
-9.61955
-9.60474
-9.59076
-9.57891
-9.57092
-9.56872
-9.48272
-9.49271
-9.51467
-9.53782
-9.55811
-9.5776
-9.59673
-9.61451
-9.63066
-9.64538
-9.65872
-9.67058
-9.68094
-9.6898
-9.69713
-9.70292
-9.70715
-9.70978
-9.71082
-9.71024
-9.70806
-9.70431
-9.69904
-9.69236
-9.68443
-9.67552
-9.66601
-9.65641
-9.64745
-9.64007
-9.63548
-9.63519
-9.6408
-9.5024
-9.51008
-9.52816
-9.54874
-9.56767
-9.58595
-9.60398
-9.62102
-9.63668
-9.65108
-9.66422
-9.67605
-9.68652
-9.69562
-9.70335
-9.70968
-9.71462
-9.71815
-9.72029
-9.72107
-9.72051
-9.71869
-9.71571
-9.71173
-9.70698
-9.70176
-9.6965
-9.69176
-9.68826
-9.68689
-9.68875
-9.69514
-9.70738
-9.52053
-9.52655
-9.54157
-9.55979
-9.57734
-9.59447
-9.6115
-9.62784
-9.6431
-9.65726
-9.67032
-9.68223
-9.69294
-9.70242
-9.71067
-9.71769
-9.72348
-9.72805
-9.73143
-9.73367
-9.73484
-9.73503
-9.73441
-9.73314
-9.73152
-9.72987
-9.72865
-9.72841
-9.72985
-9.7338
-9.74122
-9.75318
-9.77078
-9.53737
-9.54215
-9.55476
-9.57089
-9.58709
-9.60315
-9.61924
-9.63489
-9.6497
-9.66359
-9.67654
-9.68848
-9.69937
-9.70917
-9.7179
-9.72556
-9.73215
-9.73771
-9.74229
-9.74595
-9.7488
-9.75096
-9.7526
-9.75395
-9.7553
-9.75701
-9.75953
-9.7634
-9.76927
-9.77788
-9.79007
-9.80671
-9.82871
-9.55308
-9.55695
-9.56764
-9.58196
-9.59688
-9.61193
-9.62716
-9.64216
-9.65656
-9.67022
-9.6831
-9.69513
-9.70625
-9.71646
-9.72574
-9.7341
-9.74158
-9.74822
-9.75407
-9.75922
-9.7638
-9.76795
-9.77186
-9.77577
-9.77999
-9.78488
-9.79086
-9.79847
-9.80827
-9.82092
-9.83713
-9.85759
-9.88303
-9.56782
-9.57097
-9.58015
-9.59292
-9.60667
-9.62079
-9.63523
-9.64964
-9.66365
-9.6771
-9.68992
-9.70204
-9.71341
-9.724
-9.73382
-9.74289
-9.75123
-9.75891
-9.76599
-9.77258
-9.77882
-9.78485
-9.7909
-9.79721
-9.80407
-9.81184
-9.82094
-9.83182
-9.84502
-9.86108
-9.88059
-9.90411
-9.93224
-9.58166
-9.58427
-9.59225
-9.60371
-9.61641
-9.62969
-9.64342
-9.65729
-9.67095
-9.68422
-9.69701
-9.70925
-9.7209
-9.73191
-9.74231
-9.7521
-9.76134
-9.77008
-9.77841
-9.78644
-9.79432
-9.8022
-9.81031
-9.81889
-9.82822
-9.83865
-9.85055
-9.86433
-9.88046
-9.89938
-9.92158
-9.9475
-9.97762
-9.5947
-9.59687
-9.60389
-9.61426
-9.62604
-9.63856
-9.65168
-9.66507
-9.67843
-9.69155
-9.70435
-9.71673
-9.72866
-9.74011
-9.75108
-9.76161
-9.77172
-9.7815
-9.79104
-9.80044
-9.80987
-9.81948
-9.8295
-9.84014
-9.8517
-9.86448
-9.87881
-9.89506
-9.91361
-9.93485
-9.95916
-9.98688
-10.0184
-9.60697
-9.60881
-9.61506
-9.62453
-9.63551
-9.64738
-9.65995
-9.67294
-9.68604
-9.69906
-9.71188
-9.72444
-9.73668
-9.74858
-9.76014
-9.77139
-9.78238
-9.79318
-9.80389
-9.81463
-9.82554
-9.83678
-9.84857
-9.86112
-9.87468
-9.88954
-9.90599
-9.92434
-9.94491
-9.968
-9.99395
-10.023
-10.0554
-9.61852
-9.62008
-9.62572
-9.63446
-9.64477
-9.65607
-9.66819
-9.68084
-9.69374
-9.70669
-9.71959
-9.73234
-9.74491
-9.75726
-9.76941
-9.78138
-9.79322
-9.80501
-9.81684
-9.82883
-9.84111
-9.85386
-9.86725
-9.88149
-9.89681
-9.91346
-9.93169
-9.95175
-9.97392
-9.99844
-10.0255
-10.0554
-10.0882
-9.62936
-9.6307
-9.63586
-9.644
-9.65376
-9.6646
-9.67634
-9.68873
-9.70148
-9.71441
-9.7274
-9.74038
-9.75329
-9.76611
-9.77884
-9.79151
-9.80418
-9.81691
-9.8298
-9.84296
-9.85652
-9.87063
-9.88547
-9.90121
-9.91807
-9.93624
-9.95595
-9.97741
-10.0008
-10.0264
-10.0543
-10.0846
-10.1175
-9.63948
-9.64066
-9.64544
-9.65312
-9.66244
-9.67291
-9.68435
-9.69654
-9.70919
-9.72214
-9.73527
-9.74849
-9.76176
-9.77504
-9.78835
-9.80171
-9.81517
-9.82879
-9.84267
-9.85691
-9.87163
-9.88697
-9.90308
-9.92012
-9.93827
-9.95771
-9.97861
-10.0011
-10.0255
-10.0517
-10.0801
-10.1105
-10.1432
-9.64888
-9.64993
-9.65443
-9.66176
-9.67074
-9.68092
-9.69216
-9.70421
-9.71683
-9.72984
-9.74313
-9.75662
-9.77025
-9.78401
-9.79788
-9.8119
-9.8261
-9.84056
-9.85535
-9.87058
-9.88634
-9.90276
-9.91998
-9.93813
-9.95736
-9.97782
-9.99965
-10.023
-10.0479
-10.0746
-10.1031
-10.1334
-10.1656
-9.65753
-9.65849
-9.66278
-9.66986
-9.6786
-9.68859
-9.69969
-9.71168
-9.72432
-9.73744
-9.75093
-9.7647
-9.77871
-9.79292
-9.80734
-9.82198
-9.83689
-9.85212
-9.86775
-9.88386
-9.90054
-9.9179
-9.93606
-9.95514
-9.97524
-9.9965
-10.019
-10.0429
-10.0682
-10.095
-10.1234
-10.1534
-10.185
-9.66539
-9.66629
-9.67045
-9.67736
-9.68596
-9.69584
-9.70688
-9.71887
-9.73158
-9.74486
-9.75857
-9.77264
-9.78703
-9.8017
-9.81664
-9.83188
-9.84744
-9.86338
-9.87976
-9.89664
-9.91412
-9.93229
-9.95123
-9.97105
-9.99184
-10.0137
-10.0367
-10.0609
-10.0864
-10.1131
-10.1412
-10.1706
-10.2014
-9.6724
-9.67328
-9.67737
-9.6842
-9.69274
-9.7026
-9.71365
-9.72571
-9.73855
-9.75201
-9.76598
-9.78038
-9.79514
-9.81026
-9.8257
-9.84149
-9.85766
-9.87424
-9.89128
-9.90885
-9.92702
-9.94586
-9.96544
-9.98585
-10.0072
-10.0294
-10.0527
-10.077
-10.1025
-10.1291
-10.1568
-10.1855
-10.2154
-9.67848
-9.67936
-9.68344
-9.69028
-9.69884
-9.70876
-9.7199
-9.73209
-9.74512
-9.75881
-9.77306
-9.78778
-9.80294
-9.81848
-9.8344
-9.8507
-9.86741
-9.88456
-9.90218
-9.92033
-9.93907
-9.95845
-9.97852
-9.99936
-10.021
-10.0435
-10.0669
-10.0912
-10.1165
-10.1427
-10.1698
-10.1978
-10.2267
-9.68354
-9.68444
-9.68857
-9.69549
-9.70417
-9.71422
-9.72553
-9.73791
-9.75117
-9.76513
-9.77969
-9.79477
-9.8103
-9.82627
-9.84264
-9.85942
-9.87663
-9.89428
-9.91242
-9.93107
-9.95029
-9.9701
-9.99057
-10.0117
-10.0336
-10.0562
-10.0796
-10.1038
-10.1288
-10.1545
-10.181
-10.2082
-10.2361
-9.68747
-9.68843
-9.69268
-9.69977
-9.70865
-9.71892
-9.73047
-9.74313
-9.75667
-9.77094
-9.78584
-9.80127
-9.81718
-9.83355
-9.85033
-9.86754
-9.88518
-9.90326
-9.92181
-9.94086
-9.96043
-9.98055
-10.0013
-10.0226
-10.0445
-10.0671
-10.0904
-10.1143
-10.1389
-10.164
-10.1898
-10.2161
-10.2429
-9.69014
-9.6912
-9.69565
-9.70301
-9.71221
-9.7228
-9.73468
-9.74768
-9.76157
-9.7762
-9.79146
-9.80728
-9.82359
-9.84035
-9.85755
-9.87518
-9.89323
-9.91171
-9.93064
-9.95003
-9.96991
-9.99029
-10.0112
-10.0326
-10.0546
-10.0771
-10.1002
-10.1238
-10.1479
-10.1725
-10.1976
-10.2229
-10.2487
-9.69138
-9.69259
-9.69734
-9.7051
-9.71474
-9.72577
-9.73807
-9.75148
-9.76578
-9.7808
-9.79644
-9.81263
-9.8293
-9.84643
-9.86397
-9.88193
-9.9003
-9.91907
-9.93826
-9.95788
-9.97794
-9.99844
-10.0194
-10.0408
-10.0627
-10.085
-10.1077
-10.1309
-10.1545
-10.1784
-10.2027
-10.2272
-10.252
-9.69098
-9.6924
-9.69758
-9.70591
-9.71613
-9.72772
-9.74056
-9.75449
-9.76929
-9.78479
-9.80089
-9.81752
-9.83462
-9.85216
-9.8701
-9.88843
-9.90714
-9.92623
-9.9457
-9.96555
-9.98579
-10.0064
-10.0274
-10.0488
-10.0706
-10.0927
-10.1151
-10.1379
-10.161
-10.1843
-10.2078
-10.2314
-10.2552
-9.68866
-9.69036
-9.69616
-9.70528
-9.71627
-9.72856
-9.74203
-9.75653
-9.77183
-9.78778
-9.80428
-9.82127
-9.8387
-9.85654
-9.87475
-9.89332
-9.91225
-9.93153
-9.95114
-9.97109
-9.99137
-10.012
-10.0329
-10.0541
-10.0757
-10.0975
-10.1195
-10.1418
-10.1643
-10.1869
-10.2096
-10.2324
-10.2554
-9.68404
-9.68616
-9.69285
-9.70306
-9.71506
-9.72826
-9.7426
-9.7579
-9.77394
-9.79054
-9.80761
-9.82512
-9.84302
-9.86127
-9.87985
-9.89876
-9.91797
-9.93748
-9.95728
-9.97736
-9.99773
-10.0184
-10.0392
-10.0604
-10.0817
-10.1032
-10.1249
-10.1468
-10.1687
-10.1907
-10.2127
-10.2347
-10.2567
-9.6766
-9.67936
-9.68739
-9.69909
-9.71229
-9.72639
-9.74148
-9.75746
-9.77405
-9.79111
-9.80859
-9.82646
-9.84466
-9.86318
-9.88199
-9.90109
-9.92045
-9.94008
-9.95995
-9.98006
-10.0004
-10.0209
-10.0417
-10.0626
-10.0836
-10.1048
-10.1261
-10.1475
-10.1688
-10.1902
-10.2116
-10.2329
-10.2541
-9.66559
-9.66934
-9.67948
-9.69348
-9.70856
-9.72424
-9.74073
-9.75787
-9.77538
-9.79317
-9.81125
-9.8296
-9.8482
-9.86705
-9.88613
-9.90544
-9.92497
-9.94471
-9.96466
-9.98479
-10.0051
-10.0256
-10.0462
-10.0669
-10.0877
-10.1086
-10.1295
-10.1504
-10.1713
-10.1921
-10.2128
-10.2333
-10.2537
-9.64984
-9.6554
-9.66862
-9.68488
-9.70111
-9.71776
-9.73533
-9.75343
-9.77169
-9.79008
-9.80867
-9.82747
-9.84643
-9.86556
-9.88486
-9.90435
-9.924
-9.94382
-9.9638
-9.98392
-10.0042
-10.0245
-10.045
-10.0655
-10.086
-10.1066
-10.1271
-10.1476
-10.168
-10.1883
-10.2085
-10.2285
-10.2483
-9.62717
-9.63681
-9.65738
-9.67893
-9.69771
-9.71598
-9.73489
-9.75392
-9.77273
-9.79147
-9.81031
-9.82928
-9.84836
-9.86756
-9.88691
-9.9064
-9.92604
-9.94581
-9.96571
-9.98571
-10.0058
-10.026
-10.0462
-10.0665
-10.0867
-10.107
-10.1271
-10.1472
-10.1672
-10.187
-10.2066
-10.2259
-10.245
-9.59399
-9.60824
-9.63515
-9.66036
-9.68181
-9.70285
-9.72404
-9.74456
-9.76437
-9.78385
-9.80323
-9.82256
-9.84185
-9.86118
-9.8806
-9.90012
-9.91974
-9.93947
-9.95931
-9.97923
-9.99922
-10.0193
-10.0393
-10.0594
-10.0794
-10.0994
-10.1193
-10.139
-10.1586
-10.178
-10.1972
-10.216
-10.2346
-9.54775
-9.59584
-9.63639
-9.65853
-9.67728
-9.69866
-9.72021
-9.74027
-9.75949
-9.7786
-9.79773
-9.81683
-9.83592
-9.85506
-9.87429
-9.89364
-9.9131
-9.93268
-9.95235
-9.97212
-9.99197
-10.0119
-10.0318
-10.0517
-10.0716
-10.0915
-10.1113
-10.1309
-10.1504
-10.1697
-10.1888
-10.2075
-10.226
-9.41504
-9.53776
-9.61374
-9.63998
-9.65889
-9.68302
-9.70715
-9.72854
-9.74858
-9.76863
-9.78889
-9.80925
-9.8297
-9.85033
-9.87115
-9.89216
-9.91332
-9.93461
-9.956
-9.97745
-9.99894
-10.0204
-10.0419
-10.0633
-10.0845
-10.1057
-10.1266
-10.1474
-10.168
-10.1883
-10.2083
-10.2281
-10.2477
-8.90193
-8.88233
-8.99868
-9.1607
-9.44805
-9.80693
-10.2035
-10.6514
-11.182
-11.8288
-12.6085
-13.5044
-14.4598
-15.3797
-16.1424
-16.6314
-16.7573
-16.4622
-15.7471
-14.6997
-13.4798
-12.2454
-11.0281
-9.72041
-8.30269
-7.03704
-6.27184
-6.18298
-6.82051
-8.20672
-10.2595
-12.8374
-15.7521
-18.7844
-21.7082
-24.314
-26.4187
-27.8799
-28.6219
-28.5684
-27.7103
-26.1281
-23.9832
-21.4827
-18.8314
-16.1963
-13.6922
-11.3872
-9.31296
-7.47804
-5.88064
-4.51645
-3.37811
-2.4505
-1.70908
-1.12356
-0.66382
-0.304369
-0.0259341
0.185269
0.33962
0.446238
0.514149
0.552226
0.568504
0.569593
0.560499
0.544802
0.524973
0.502703
0.47916
0.455175
0.431346
0.408114
0.385802
0.364597
0.344585
0.325746
0.307985
0.291177
0.275211
0.259965
0.245314
0.231124
0.217273
0.20364
0.190124
0.176628
0.16309
0.149435
0.135672
0.121698
0.107738
0.0933456
0.0797962
0.0643991
0.054363
0.0331803
0.0425199
-0.0209203
-8.88359
-8.79327
-8.84498
-8.98657
-9.24252
-9.58711
-9.99597
-10.4742
-11.0396
-11.7126
-12.5029
-13.3911
-14.3196
-15.1978
-15.9171
-16.3715
-16.479
-16.1845
-15.4982
-14.5068
-13.352
-12.161
-10.9585
-9.68251
-8.36542
-7.24259
-6.59521
-6.56474
-7.19865
-8.52277
-10.4532
-12.8487
-15.5427
-18.3466
-21.0583
-23.4824
-25.4424
-26.806
-27.4944
-27.4359
-26.6288
-25.1532
-23.158
-20.8278
-18.3444
-15.8587
-13.4803
-11.2784
-9.28706
-7.51519
-5.96093
-4.62159
-3.4938
-2.56748
-1.82246
-1.23133
-0.765383
-0.399568
-0.11453
0.103813
0.266024
0.381061
0.457475
0.503582
0.527021
0.534246
0.530313
0.518951
0.502805
0.483711
0.462943
0.44139
0.419688
0.398299
0.377575
0.35775
0.338937
0.321096
0.304149
0.288015
0.272603
0.257804
0.243504
0.229579
0.215917
0.202406
0.18895
0.175463
0.161887
0.148158
0.134288
0.120182
0.106081
0.0915233
0.0778578
0.0622516
0.0523122
0.0306205
0.0411207
-0.0242872
-8.97681
-8.89678
-8.90567
-8.99223
-9.17326
-9.44937
-9.80754
-10.2499
-10.7904
-11.4425
-12.2067
-13.0578
-13.939
-14.7653
-15.435
-15.8506
-15.9436
-15.6747
-15.0548
-14.1586
-13.103
-11.9904
-10.8492
-9.65997
-8.48408
-7.51982
-6.98681
-6.99956
-7.60785
-8.84209
-10.6339
-12.8507
-15.3354
-17.9174
-20.4154
-22.6514
-24.4606
-25.7233
-26.3583
-26.3002
-25.5517
-24.1882
-22.3432
-20.1793
-17.8572
-15.5146
-13.2577
-11.1578
-9.25088
-7.54555
-6.03881
-4.72847
-3.61415
-2.69051
-1.94215
-1.34513
-0.872669
-0.500398
-0.208874
0.0163479
0.186109
0.309329
0.394195
0.448523
0.47953
0.493445
0.49529
0.488883
0.477008
0.461633
0.444131
0.42546
0.406296
0.387118
0.368304
0.350111
0.332681
0.315999
0.300011
0.284658
0.269871
0.255563
0.241638
0.227992
0.214524
0.201135
0.187741
0.174264
0.160655
0.146856
0.132888
0.118659
0.104426
0.0897131
0.0759341
0.0601395
0.050276
0.0281865
0.0396841
-0.0270935
-9.08313
-9.02816
-9.04057
-9.12387
-9.28537
-9.52838
-9.84604
-10.2402
-10.7225
-11.3043
-11.985
-12.7418
-13.5237
-14.2544
-14.8443
-15.2107
-15.2967
-15.0699
-14.5366
-13.755
-12.8171
-11.8066
-10.7581
-9.68212
-8.65132
-7.82903
-7.3921
-7.44006
-8.02203
-9.16406
-10.8129
-12.8519
-15.135
-17.5038
-19.7934
-21.8433
-23.503
-24.6656
-25.2486
-25.1931
-24.5039
-23.249
-21.5463
-19.5384
-17.3679
-15.1618
-13.0234
-11.0251
-9.20375
-7.56726
-6.11127
-4.83343
-3.73556
-2.81639
-2.06526
-1.46221
-0.982913
-0.604036
-0.306172
-0.0744274
0.10249
0.233629
0.326918
0.389686
0.42867
0.449781
0.457916
0.456927
0.449711
0.438375
0.424413
0.408869
0.392465
0.375715
0.359018
0.342628
0.326703
0.311264
0.296287
0.281738
0.267572
0.253728
0.240134
0.226708
0.213369
0.200035
0.186636
0.173105
0.159404
0.145484
0.131375
0.116987
0.102591
0.0877022
0.0737796
0.0577895
0.0479284
0.0254956
0.0377701
-0.0301024
-9.19556
-9.16604
-9.18902
-9.27377
-9.4262
-9.64976
-9.94142
-10.3029
-10.7424
-11.2659
-11.8693
-12.5314
-13.2094
-13.8397
-14.3482
-14.6661
-14.7412
-14.5444
-14.0819
-13.3992
-12.5687
-11.6585
-10.7074
-9.74556
-8.84872
-8.15203
-7.79708
-7.86918
-8.41859
-9.46838
-10.976
-12.8417
-14.9321
-17.0997
-19.1927
-21.0652
-22.5803
-23.6443
-24.1761
-24.1231
-23.4899
-22.3364
-20.766
-18.9036
-16.8763
-14.8015
-12.7794
-10.8823
-9.14713
-7.58097
-6.17839
-4.93657
-3.85853
-2.94628
-2.19355
-1.58458
-1.09804
-0.712099
-0.407713
-0.169668
0.0138628
0.152296
0.253561
0.324666
0.371889
0.400737
0.415861
0.421021
0.419148
0.412445
0.402522
0.390526
0.377256
0.363278
0.349013
0.334729
0.320611
0.306697
0.292976
0.279429
0.266036
0.252764
0.239572
0.226404
0.213204
0.199913
0.186481
0.172857
0.159019
0.144928
0.130625
0.116031
0.101426
0.0863259
0.0722243
0.0560342
0.0461342
0.0234504
0.036357
-0.0322285
-9.30081
-9.29132
-9.32503
-9.4127
-9.55998
-9.77049
-10.0437
-10.3806
-10.7861
-11.2622
-11.8019
-12.3844
-12.9726
-13.5137
-13.9466
-14.2137
-14.2703
-14.0937
-13.69
-13.0937
-12.3602
-11.5452
-10.6897
-9.83484
-9.05439
-8.46299
-8.17776
-8.27085
-8.78835
-9.74948
-11.1201
-12.8167
-14.7212
-16.6982
-18.6072
-20.3139
-21.6938
-22.6638
-23.1462
-23.0941
-22.5111
-21.45
-20.0014
-18.2746
-16.3829
-14.4354
-12.528
-10.7314
-9.08181
-7.58624
-6.23871
-5.03586
-3.9811
-3.07865
-2.32605
-1.71174
-1.21772
-0.82412
-0.512635
-0.267974
-0.0778903
0.0674568
0.176197
0.255245
0.310575
0.347325
0.369833
0.381671
0.3857
0.384148
0.378704
0.370611
0.36076
0.349789
0.338149
0.32615
0.314025
0.301831
0.289558
0.277194
0.264737
0.252174
0.23949
0.226657
0.213646
0.200423
0.186961
0.173232
0.159228
0.144928
0.130385
0.115531
0.100657
0.0852846
0.0709286
0.0544814
0.0444275
0.0214987
0.0348103
-0.0342887
-9.39939
-9.40652
-9.45097
-9.54233
-9.68591
-9.88538
-10.1417
-10.4555
-10.8286
-11.2606
-11.743
-12.2559
-12.7663
-13.2298
-13.5962
-13.8188
-13.8613
-13.7051
-13.3536
-12.8325
-12.1849
-11.4579
-10.6935
-9.93818
-9.26137
-8.76011
-8.53206
-8.64041
-9.12677
-10.0056
-11.2474
-12.7817
-14.5066
-16.3004
-18.0347
-19.5855
-20.8389
-21.7194
-22.1542
-22.1013
-21.5635
-20.5874
-19.2519
-17.6525
-15.8905
-14.0668
-12.2722
-10.5744
-9.00889
-7.58317
-6.29158
-5.13026
-4.10225
-3.21288
-2.46273
-1.84416
-1.34276
-0.941057
-0.62187
-0.370122
-0.173296
-0.0211632
0.0946947
0.181281
0.244448
0.289078
0.319219
0.338199
0.34872
0.352943
0.352568
0.348892
0.342887
0.335275
0.326555
0.317094
0.307183
0.296915
0.28629
0.275303
0.26396
0.252266
0.240227
0.227839
0.215099
0.202002
0.188545
0.174723
0.160551
0.146026
0.131217
0.11607
0.100889
0.0852057
0.0705443
0.0538067
0.0435114
0.0203601
0.0338547
-0.0355935
-9.492
-9.51241
-9.56582
-9.66
-9.80006
-9.98957
-10.2299
-10.5212
-10.8634
-11.2538
-11.6831
-12.1329
-12.5748
-12.972
-13.2829
-13.4695
-13.5018
-13.3636
-13.0568
-12.6011
-12.031
-11.3869
-10.7095
-10.0463
-9.4617
-9.03882
-8.85925
-8.97831
-9.43333
-10.2353
-11.3579
-12.7402
-14.2938
-15.9114
-17.4778
-18.8795
-20.0135
-20.8089
-21.1982
-21.1435
-20.6473
-19.7501
-18.5203
-17.0411
-15.4035
-13.6999
-12.0152
-10.4133
-8.92924
-7.57167
-6.33609
-5.21828
-4.22028
-3.34753
-2.60264
-1.98144
-1.47312
-1.06298
-0.735399
-0.475874
-0.271847
-0.112793
0.01001
0.103763
0.174366
0.226599
0.264311
0.290597
0.307955
0.318409
0.323591
0.324801
0.323053
0.319142
0.313626
0.30695
0.299465
0.291324
0.282542
0.273127
0.26309
0.252448
0.24122
0.229421
0.217073
0.204194
0.19081
0.17694
0.162624
0.14788
0.132795
0.117334
0.10181
0.0857758
0.0707523
0.0536819
0.0430447
0.0196782
0.0331028
-0.0364917
-9.57758
-9.60869
-9.66933
-9.76567
-9.90222
-10.0823
-10.3072
-10.5766
-10.8891
-11.2405
-11.6216
-12.0156
-12.3981
-12.7384
-13.0024
-13.1589
-13.1828
-13.0607
-12.7931
-12.3957
-11.8963
-11.3297
-10.7345
-10.1563
-9.65415
-9.29955
-9.16108
-9.28703
-9.71032
-10.4398
-11.4519
-12.6932
-14.0862
-15.5366
-16.9426
-18.2015
-19.2221
-19.9361
-20.2813
-20.224
-19.7662
-18.9426
-17.8116
-16.446
-14.9271
-13.3391
-11.7601
-10.2501
-8.84375
-7.55192
-6.37171
-5.29876
-4.33369
-3.48113
-2.74476
-2.12316
-1.60895
-1.19037
-0.853817
-0.585748
-0.373856
-0.20748
-0.0776311
0.0231311
0.100859
0.160379
0.205473
0.239081
0.263506
0.280585
0.291818
0.298427
0.301419
0.301621
0.299644
0.296011
0.291152
0.285303
0.278521
0.270834
0.262266
0.25284
0.242582
0.231521
0.219694
0.207142
0.193916
0.180062
0.165645
0.150705
0.135353
0.11957
0.103683
0.0872678
0.0718305
0.0543829
0.0432939
0.0196997
0.0327511
-0.0368029
-9.65808
-9.69746
-9.76345
-9.86083
-9.99327
-10.1637
-10.3734
-10.6216
-10.906
-11.2216
-11.5595
-11.9048
-12.2364
-12.5285
-12.7529
-12.8838
-12.901
-12.7932
-12.5603
-12.2147
-11.7794
-11.2847
-10.7659
-10.2653
-9.83654
-9.54155
-9.43823
-9.56822
-9.95999
-10.6208
-11.5302
-12.6412
-13.8856
-15.1802
-16.4351
-17.5591
-18.4719
-19.1075
-19.4098
-19.349
-18.9263
-18.1707
-17.1318
-15.873
-14.4665
-12.9883
-11.5094
-10.0861
-8.75333
-7.52423
-6.39811
-5.37065
-4.44087
-3.61192
-2.88756
-2.26833
-1.74982
-1.32328
-0.977399
-0.700037
-0.479492
-0.30519
-0.167975
-0.0601669
0.024498
0.0909868
0.143134
0.18384
0.215284
0.239138
0.256732
0.269159
0.277348
0.282109
0.284078
0.283824
0.281851
0.278492
0.273873
0.268065
0.26112
0.253072
0.243951
0.23379
0.222637
0.210549
0.197596
0.183851
0.1694
0.154314
0.138723
0.122633
0.106381
0.0895719
0.0736868
0.0558339
0.0441954
0.0203717
0.0327138
-0.036529
-9.73173
-9.77758
-9.84741
-9.94484
-10.0728
-10.2338
-10.4288
-10.6568
-10.915
-11.198
-11.4974
-11.7997
-12.0871
-12.3377
-12.5284
-12.6382
-12.6505
-12.5557
-12.3536
-12.0543
-11.6775
-11.2493
-10.8013
-10.3717
-10.0082
-9.76489
-9.69132
-9.82316
-10.1843
-10.7804
-11.5941
-12.5846
-13.692
-14.8428
-15.9578
-16.9559
-17.7666
-18.3272
-18.588
-18.5231
-18.1325
-17.4396
-16.4861
-15.3267
-14.0255
-12.6502
-11.265
-9.92296
-8.65907
-7.48932
-6.41538
-5.43328
-4.54045
-3.73811
-3.02932
-2.41564
-1.89505
-1.46161
-1.10645
-0.819215
-0.589182
-0.406169
-0.261024
-0.145883
-0.0542479
0.0190539
0.0779978
0.125541
0.163836
0.194446
0.21855
0.237086
0.250855
0.260591
0.266912
0.270398
0.271608
0.270956
0.268656
0.264852
0.259646
0.253098
0.24525
0.236137
0.225809
0.21433
0.201783
0.188258
0.173867
0.158704
0.142921
0.126551
0.109941
0.0927336
0.07637
0.058083
0.0457915
0.0217302
0.03297
-0.0356017
-9.80052
-9.85106
-9.92322
-10.0197
-10.1427
-10.2942
-10.4749
-10.6837
-10.9173
-11.1704
-11.435
-11.6995
-11.9483
-12.1635
-12.3259
-12.4184
-12.4271
-12.3442
-12.1698
-11.9125
-11.5889
-11.2217
-10.8387
-10.4736
-10.1682
-9.96947
-9.92068
-10.0525
-10.3843
-10.9203
-11.6452
-12.5242
-13.5051
-14.5236
-15.5096
-16.3913
-17.106
-17.596
-17.8181
-17.7494
-17.3883
-16.7528
-15.8774
-14.8098
-13.6062
-12.3265
-11.0285
-9.76194
-8.56233
-7.44828
-6.42406
-5.48635
-4.63129
-3.85797
-3.16809
-2.56339
-2.04348
-1.60482
-1.241
-0.943639
-0.703389
-0.510797
-0.356965
-0.23398
-0.135139
-0.0550289
0.0105338
0.0646483
0.109527
0.14671
0.177282
0.202042
0.221647
0.236704
0.24777
0.255391
0.260142
0.262481
0.262709
0.261055
0.257697
0.252749
0.246279
0.238335
0.228968
0.218242
0.206245
0.193077
0.178865
0.163725
0.147829
0.131238
0.114307
0.09672
0.0798689
0.0611369
0.0480996
0.0238061
0.0334967
-0.0339013
-9.86281
-9.91672
-9.99006
-10.0848
-10.2025
-10.3447
-10.5117
-10.7023
-10.9131
-11.1391
-11.3728
-11.6041
-11.8199
-12.0051
-12.1439
-12.2221
-12.2283
-12.1564
-12.007
-11.7876
-11.5122
-11.2003
-10.8761
-10.5691
-10.3155
-10.1555
-10.1269
-10.257
-10.5612
-11.0417
-11.6848
-12.461
-13.3254
-14.2221
-15.0892
-15.8639
-16.4893
-16.9143
-17.1012
-17.029
-16.6941
-16.11
-15.3056
-14.3222
-13.2089
-12.0179
-10.8009
-9.60456
-8.46475
-7.40265
-6.42517
-5.53012
-4.71272
-3.97005
-3.30198
-2.70969
-2.1936
-1.75202
-1.38076
-1.07352
-0.822582
-0.619575
-0.45616
-0.32458
-0.218037
-0.130893
-0.0587147
0.0018059
0.0530184
0.0965213
0.133378
0.164303
0.189828
0.210421
0.226533
0.23864
0.247291
0.252944
0.255955
0.256636
0.25525
0.251986
0.246968
0.240272
0.231962
0.222104
0.210785
0.198106
0.184201
0.1692
0.153291
0.136559
0.119366
0.101439
0.0841102
0.0649386
0.0510725
0.0265656
0.0342063
-0.0313506
-9.92026
-9.97631
-10.0498
-10.142
-10.2541
-10.387
-10.5409
-10.7143
-10.9041
-11.1055
-11.3119
-11.5144
-11.7018
-11.8615
-11.9802
-12.0464
-12.051
-11.9895
-11.8628
-11.6776
-11.4455
-11.183
-10.9112
-10.656
-10.4483
-10.3223
-10.3105
-10.437
-10.7152
-11.1452
-11.714
-12.396
-13.153
-13.9373
-14.6946
-15.3704
-15.9134
-16.2789
-16.4336
-16.3575
-16.0453
-15.5071
-14.7677
-13.8625
-12.8332
-11.7248
-10.5832
-9.45225
-8.36812
-7.35424
-6.42021
-5.56537
-4.78461
-4.07329
-3.42929
-2.85258
-2.34363
-1.90191
-1.52506
-1.20878
-0.947111
-0.733054
-0.559143
-0.418053
-0.30307
-0.208421
-0.129427
-0.0625247
-0.00515612
0.0444102
0.0872894
0.124181
0.155541
0.181724
0.203062
0.219931
0.232811
0.242116
0.248218
0.25148
0.252238
0.250767
0.247267
0.241871
0.234677
0.225765
0.215221
0.203146
0.189672
0.174934
0.159128
0.142356
0.124983
0.106781
0.0890088
0.0694244
0.0546625
0.0299829
0.035029
-0.0278419
-9.97182
-10.0291
-10.1018
-10.1911
-10.2973
-10.4211
-10.5625
-10.72
-10.8907
-11.0702
-11.2525
-11.4298
-11.5926
-11.7303
-11.8321
-11.8885
-11.8926
-11.8411
-11.7352
-11.5805
-11.3868
-11.1681
-10.9425
-10.7328
-10.5654
-10.4693
-10.4717
-10.5936
-10.8467
-11.2306
-11.7325
-12.3292
-12.988
-13.6683
-14.3237
-14.9072
-15.3739
-15.6845
-15.809
-15.7282
-15.4357
-14.9398
-14.261
-13.4289
-12.4781
-11.4467
-10.3757
-9.30615
-8.27416
-7.30503
-6.41101
-5.59339
-4.8474
-4.16715
-3.54863
-2.9902
-2.49165
-2.05291
-1.67288
-1.34899
-1.07709
-0.851698
-0.666512
-0.514928
-0.390561
-0.287662
-0.201386
-0.127915
-0.0644314
-0.00899512
0.0396382
0.0822195
0.119192
0.150845
0.177417
0.199183
0.216522
0.229778
0.239292
0.245428
0.248562
0.249041
0.24715
0.243101
0.237052
0.229118
0.219402
0.208008
0.195063
0.1807
0.165111
0.148412
0.130956
0.112564
0.0944051
0.0744559
0.0587495
0.0339606
0.0358394
-0.0233339
-10.0187
-10.0763
-10.1477
-10.2333
-10.3335
-10.4485
-10.5782
-10.7211
-10.8745
-11.0343
-11.1952
-11.3504
-11.492
-11.6109
-11.6986
-11.7473
-11.7518
-11.7098
-11.6225
-11.4946
-11.3344
-11.1539
-10.9688
-10.7987
-10.6662
-10.5958
-10.6101
-10.727
-10.9565
-11.298
-11.7394
-12.2596
-12.8298
-13.4151
-13.9769
-14.4748
-14.8703
-15.1292
-15.2242
-15.1372
-14.8621
-14.4052
-13.7831
-13.0194
-12.1418
-11.1826
-10.1782
-9.16691
-8.18425
-7.25687
-6.39954
-5.61585
-4.90203
-4.25167
-3.65912
-3.12095
-2.63576
-2.20319
-1.82282
-1.49338
-1.21233
-0.975805
-0.77885
-0.615864
-0.481063
-0.368944
-0.27464
-0.194143
-0.124374
-0.0631321
-0.00896504
0.0390118
0.0812985
0.118177
0.149833
0.17646
0.198342
0.21575
0.228955
0.238273
0.244069
0.246723
0.246589
0.243965
0.23909
0.232142
0.223264
0.21258
0.200219
0.186309
0.171036
0.154515
0.137084
0.1186
0.100128
0.0798824
0.0632041
0.0383931
0.0365263
-0.0178011
-10.0604
-10.1176
-10.187
-10.2688
-10.363
-10.4696
-10.5883
-10.7178
-10.8555
-10.9978
-11.1397
-11.2756
-11.3988
-11.5019
-11.578
-11.621
-11.6267
-11.5934
-11.5224
-11.4177
-11.2865
-11.1392
-10.9892
-10.8533
-10.7508
-10.702
-10.7259
-10.8374
-11.0447
-11.3472
-11.734
-12.1857
-12.6767
-13.177
-13.6538
-14.0731
-14.4021
-14.6113
-14.6766
-14.582
-14.322
-13.901
-13.3313
-12.6308
-11.8215
-10.9305
-9.98968
-9.03457
-8.0993
-7.21133
-6.38771
-5.63459
-4.9499
-4.32742
-3.76039
-3.24364
-2.77421
-2.35088
-1.97324
-1.6408
-1.3523
-1.1054
-0.896608
-0.721536
-0.575273
-0.452817
-0.349487
-0.261213
-0.184709
-0.117511
-0.0579022
-0.00478536
0.0424818
0.0842493
0.120704
0.151996
0.17834
0.199947
0.217008
0.229763
0.238517
0.243626
0.245472
0.244418
0.240786
0.234839
0.226787
0.216798
0.205023
0.191599
0.176701
0.160441
0.143128
0.124649
0.105948
0.0854882
0.0678319
0.0431053
0.0369397
-0.011314
-10.0976
-10.1539
-10.2209
-10.2987
-10.3869
-10.4855
-10.5941
-10.7114
-10.8349
-10.9614
-11.0866
-11.2057
-11.3131
-11.403
-11.4697
-11.5083
-11.5156
-11.4901
-11.4331
-11.3483
-11.242
-11.1233
-11.0036
-10.8971
-10.8199
-10.7889
-10.8199
-10.9251
-11.1114
-11.3779
-11.7151
-12.1057
-12.5267
-12.9517
-13.3524
-13.7001
-13.9672
-14.1287
-14.1644
-14.0611
-13.8137
-13.4247
-12.9026
-12.2601
-11.5145
-10.6882
-9.80891
-8.90866
-8.01964
-7.16947
-6.37712
-5.65144
-4.99264
-4.39543
-3.85258
-3.35751
-2.90556
-2.49418
-2.12235
-1.78979
-1.49609
-1.24018
-1.02001
-0.832537
-0.673949
-0.540017
-0.426483
-0.329411
-0.245426
-0.171839
-0.106661
-0.0485258
0.00342995
0.0497114
0.0905858
0.126221
0.156803
0.182494
0.20342
0.219745
0.231689
0.239538
0.243639
0.244374
0.242127
0.237241
0.230015
0.220686
0.209458
0.196494
0.181973
0.166008
0.148873
0.130479
0.111629
0.0910407
0.0724204
0.0478966
0.0369432
-0.00401896
-10.1303
-10.1853
-10.2496
-10.3232
-10.4057
-10.4967
-10.5959
-10.7019
-10.8126
-10.9251
-11.0356
-11.1402
-11.2343
-11.3132
-11.3722
-11.4075
-11.4163
-11.3976
-11.3526
-11.2848
-11.1999
-11.1057
-11.012
-10.9305
-10.8745
-10.8578
-10.8932
-10.9911
-11.157
-11.3902
-11.6825
-12.0186
-12.3778
-12.7367
-13.0702
-13.3537
-13.564
-13.6806
-13.6877
-13.5747
-13.3369
-12.9751
-12.4947
-11.9047
-11.2184
-10.4538
-9.63445
-8.78833
-7.94509
-7.13182
-6.36896
-5.66805
-5.03194
-4.45702
-3.93633
-3.4623
-3.02871
-2.63141
-2.26829
-1.93864
-1.64241
-1.37944
-1.14895
-0.949249
-0.777794
-0.63136
-0.50638
-0.399283
-0.306781
-0.226069
-0.154915
-0.0916661
-0.0351794
0.0152832
0.0601568
0.0997116
0.134164
0.163664
0.188296
0.208159
0.223391
0.234186
0.240814
0.243613
0.242972
0.239292
0.232953
0.224281
0.213554
0.200992
0.186801
0.17111
0.154164
0.135897
0.116957
0.0963161
0.0767625
0.052559
0.0364457
0.00384968
-10.159
-10.2123
-10.2738
-10.3432
-10.4201
-10.504
-10.5945
-10.6903
-10.7895
-10.8895
-10.9873
-11.0795
-11.1623
-11.2319
-11.2845
-11.317
-11.3272
-11.3143
-11.2796
-11.2263