/*--------------------------------*- C++ -*----------------------------------*\
| =========                 |                                                 |
| \\      /  F ield         | OpenFOAM: The Open Source CFD Toolbox           |
|  \\    /   O peration     | Version:  4.1                                   |
|   \\  /    A nd           | Web:      www.OpenFOAM.org                      |
|    \\/     M anipulation  |                                                 |
\*---------------------------------------------------------------------------*/
FoamFile
{
    version     2.0;
    format      ascii;
    class       surfaceScalarField;
    location    "100";
    object      phi;
}
// * * * * * * * * * * * * * * * * * * * * * * * * * * * * * * * * * * * * * //

dimensions      [0 3 -1 0 0 0 0];

internalField   nonuniform List<scalar> 
13452
(
5.95299e-05
7.38543e-07
5.86546e-05
8.75278e-07
5.78065e-05
8.48098e-07
5.69645e-05
8.42025e-07
5.61297e-05
8.3485e-07
5.53148e-05
8.1484e-07
5.45272e-05
7.87591e-07
5.37694e-05
7.57868e-07
5.30422e-05
7.27127e-07
5.23463e-05
6.95984e-07
5.16811e-05
6.65135e-07
5.10459e-05
6.352e-07
5.04393e-05
6.0659e-07
4.98598e-05
5.79549e-07
4.93055e-05
5.54235e-07
4.87748e-05
5.30757e-07
4.82656e-05
5.09201e-07
4.77759e-05
4.89646e-07
4.73038e-05
4.72181e-07
4.68468e-05
4.56921e-07
4.64028e-05
4.44025e-07
4.59691e-05
4.33713e-07
4.55428e-05
4.26288e-07
4.51206e-05
4.22172e-07
4.46987e-05
4.21943e-07
4.42723e-05
4.26405e-07
4.38356e-05
4.36665e-07
4.33813e-05
4.54327e-07
4.29e-05
4.81291e-07
4.2378e-05
5.21997e-07
4.18036e-05
5.74371e-07
4.11427e-05
6.60943e-07
7.29292e-07
4.04134e-05
6.23705e-05
3.58419e-07
6.26552e-05
5.90554e-07
6.2876e-05
6.27268e-07
6.30516e-05
6.66482e-07
6.31846e-05
7.018e-07
6.32786e-05
7.20885e-07
6.33368e-05
7.29338e-07
6.33624e-05
7.32264e-07
6.33586e-05
7.30959e-07
6.33287e-05
7.25866e-07
6.32761e-05
7.17751e-07
6.32038e-05
7.07461e-07
6.31147e-05
6.95695e-07
6.30113e-05
6.83009e-07
6.28956e-05
6.69883e-07
6.27696e-05
6.56744e-07
6.26348e-05
6.4398e-07
6.24925e-05
6.31946e-07
6.23437e-05
6.2099e-07
6.21892e-05
6.11469e-07
6.20294e-05
6.03768e-07
6.18648e-05
5.98328e-07
6.16954e-05
5.9567e-07
6.15212e-05
5.96443e-07
6.13416e-05
6.0147e-07
6.11562e-05
6.11826e-07
6.09639e-05
6.2896e-07
6.07635e-05
6.54798e-07
6.05527e-05
6.92024e-07
6.03299e-05
7.44831e-07
6.00875e-05
8.16814e-07
5.98256e-05
9.22789e-07
1.07918e-06
5.94757e-05
6.3836e-05
2.83857e-07
6.38958e-05
5.30699e-07
6.39288e-05
5.94293e-07
6.39539e-05
6.41342e-07
6.39735e-05
6.8225e-07
6.39882e-05
7.06151e-07
6.39997e-05
7.17844e-07
6.40087e-05
7.23236e-07
6.40154e-05
7.24327e-07
6.40194e-05
7.21793e-07
6.40207e-05
7.16466e-07
6.4019e-05
7.09222e-07
6.40139e-05
7.00758e-07
6.40053e-05
6.91614e-07
6.39929e-05
6.82244e-07
6.39766e-05
6.7306e-07
6.39562e-05
6.64436e-07
6.39314e-05
6.5673e-07
6.39021e-05
6.50295e-07
6.3868e-05
6.45506e-07
6.3829e-05
6.42779e-07
6.37848e-05
6.42594e-07
6.37349e-05
6.4553e-07
6.3679e-05
6.52297e-07
6.36167e-05
6.63797e-07
6.35474e-05
6.81186e-07
6.34703e-05
7.05994e-07
6.33849e-05
7.40212e-07
6.32903e-05
7.86598e-07
6.31861e-05
8.49039e-07
6.30706e-05
9.32314e-07
6.29474e-05
1.04606e-06
1.2e-06
6.28265e-05
6.56435e-05
2.23443e-07
6.57086e-05
4.65538e-07
6.575e-05
5.52916e-07
6.57811e-05
6.10218e-07
6.58061e-05
6.57275e-07
6.58254e-05
6.86895e-07
6.584e-05
7.03194e-07
6.5851e-05
7.12226e-07
6.58589e-05
7.16458e-07
6.58639e-05
7.16789e-07
6.58662e-05
7.14138e-07
6.5866e-05
7.09449e-07
6.58633e-05
7.03481e-07
6.58581e-05
6.96828e-07
6.58503e-05
6.89992e-07
6.584e-05
6.83428e-07
6.58268e-05
6.77556e-07
6.58108e-05
6.72773e-07
6.57916e-05
6.69479e-07
6.5769e-05
6.68097e-07
6.57427e-05
6.69094e-07
6.57123e-05
6.7301e-07
6.56773e-05
6.80483e-07
6.56373e-05
6.92297e-07
6.55917e-05
7.09423e-07
6.55398e-05
7.33091e-07
6.54809e-05
7.64883e-07
6.54143e-05
8.06826e-07
6.53393e-05
8.61594e-07
6.52555e-05
9.32799e-07
6.51632e-05
1.02464e-06
6.50652e-05
1.1441e-06
1.29642e-06
6.49688e-05
6.75009e-05
1.79333e-07
6.75585e-05
4.07966e-07
6.76012e-05
5.10148e-07
6.76368e-05
5.74659e-07
6.76685e-05
6.256e-07
6.76958e-05
6.59527e-07
6.77191e-05
6.79883e-07
6.7739e-05
6.92331e-07
6.77559e-05
6.99561e-07
6.77701e-05
7.02676e-07
6.77815e-05
7.02684e-07
6.77904e-05
7.0058e-07
6.77967e-05
6.97166e-07
6.78004e-05
6.93073e-07
6.78016e-05
6.88842e-07
6.78001e-05
6.84959e-07
6.77957e-05
6.81875e-07
6.77885e-05
6.80023e-07
6.77781e-05
6.79838e-07
6.77644e-05
6.81783e-07
6.77472e-05
6.86366e-07
6.7726e-05
6.9417e-07
6.77006e-05
7.05878e-07
6.76706e-05
7.22314e-07
6.76355e-05
7.44485e-07
6.7595e-05
7.73634e-07
6.75486e-05
8.11318e-07
6.74959e-05
8.59477e-07
6.7437e-05
9.20548e-07
6.73721e-05
9.97628e-07
6.73027e-05
1.09407e-06
6.72319e-05
1.21493e-06
1.36232e-06
6.7166e-05
6.94163e-05
1.47053e-07
6.94664e-05
3.57838e-07
6.95085e-05
4.68106e-07
6.9545e-05
5.38176e-07
6.95782e-05
5.92328e-07
6.96078e-05
6.29995e-07
6.96336e-05
6.54053e-07
6.96562e-05
6.69673e-07
6.96761e-05
6.79703e-07
6.96933e-05
6.85448e-07
6.9708e-05
6.87997e-07
6.97202e-05
6.88375e-07
6.973e-05
6.87416e-07
6.97373e-05
6.85781e-07
6.97421e-05
6.84038e-07
6.97443e-05
6.82701e-07
6.9744e-05
6.82248e-07
6.97408e-05
6.8314e-07
6.97348e-05
6.85842e-07
6.97258e-05
6.90845e-07
6.97135e-05
6.98687e-07
6.96976e-05
7.09974e-07
6.96781e-05
7.25411e-07
6.96546e-05
7.45829e-07
6.96269e-05
7.72222e-07
6.95947e-05
8.0579e-07
6.9558e-05
8.47981e-07
6.9517e-05
9.00543e-07
6.9472e-05
9.6555e-07
6.94241e-05
1.04547e-06
6.93755e-05
1.14273e-06
6.93296e-05
1.26078e-06
1.39961e-06
6.92923e-05
7.13902e-05
1.23184e-07
7.14327e-05
3.15386e-07
7.14716e-05
4.29141e-07
7.15065e-05
5.03245e-07
7.15391e-05
5.59738e-07
7.15688e-05
6.0031e-07
7.15954e-05
6.27509e-07
7.16191e-05
6.45967e-07
7.16402e-05
6.58578e-07
7.16589e-05
6.66785e-07
7.16751e-05
6.71726e-07
7.16891e-05
6.74446e-07
7.17007e-05
6.75801e-07
7.171e-05
6.76482e-07
7.17169e-05
6.77081e-07
7.17215e-05
6.78135e-07
7.17236e-05
6.80145e-07
7.17231e-05
6.83593e-07
7.172e-05
6.88965e-07
7.17141e-05
6.96768e-07
7.17052e-05
7.07553e-07
7.16933e-05
7.21933e-07
7.16781e-05
7.40608e-07
7.16595e-05
7.64386e-07
7.16375e-05
7.94208e-07
7.16121e-05
8.31177e-07
7.15835e-05
8.76579e-07
7.15522e-05
9.31896e-07
7.1519e-05
9.98782e-07
7.14854e-05
1.07908e-06
7.14538e-05
1.17433e-06
7.14278e-05
1.28677e-06
1.41495e-06
7.14124e-05
7.34232e-05
1.05265e-07
7.3459e-05
2.79606e-07
7.34949e-05
3.93187e-07
7.35285e-05
4.69637e-07
7.35606e-05
5.27646e-07
7.35905e-05
5.70445e-07
7.36176e-05
6.00363e-07
7.36422e-05
6.21426e-07
7.36643e-05
6.36466e-07
7.36841e-05
6.47019e-07
7.37015e-05
6.54258e-07
7.37167e-05
6.59239e-07
7.37297e-05
6.62835e-07
7.37404e-05
6.65756e-07
7.37489e-05
6.68613e-07
7.37551e-05
6.71959e-07
7.37589e-05
6.76309e-07
7.37603e-05
6.8216e-07
7.37593e-05
6.90005e-07
7.37557e-05
7.00361e-07
7.37495e-05
7.13775e-07
7.37406e-05
7.30852e-07
7.37289e-05
7.52262e-07
7.37145e-05
7.78763e-07
7.36975e-05
8.11214e-07
7.36781e-05
8.50585e-07
7.36567e-05
8.9796e-07
7.36341e-05
9.54524e-07
7.36114e-05
1.02151e-06
7.35903e-05
1.10017e-06
7.35733e-05
1.19133e-06
7.35637e-05
1.29631e-06
1.4127e-06
7.3566e-05
7.55162e-05
9.15007e-08
7.55464e-05
2.49441e-07
7.55792e-05
3.60398e-07
7.5611e-05
4.37857e-07
7.56418e-05
4.96789e-07
7.5671e-05
5.41238e-07
7.5698e-05
5.73406e-07
7.57227e-05
5.96754e-07
7.57451e-05
6.13986e-07
7.57655e-05
6.26697e-07
7.57836e-05
6.36078e-07
7.57997e-05
6.43182e-07
7.58136e-05
6.48887e-07
7.58255e-05
6.53915e-07
7.58352e-05
6.58888e-07
7.58428e-05
6.64369e-07
7.58482e-05
6.7088e-07
7.58515e-05
6.78924e-07
7.58525e-05
6.88996e-07
7.58512e-05
7.01606e-07
7.58477e-05
7.1729e-07
7.58419e-05
7.36623e-07
7.5834e-05
7.60231e-07
7.58239e-05
7.888e-07
7.58121e-05
8.23082e-07
7.57988e-05
8.63891e-07
7.57846e-05
9.12093e-07
7.57706e-05
9.68573e-07
7.57579e-05
1.03417e-06
7.57485e-05
1.10962e-06
7.57446e-05
1.19519e-06
7.57494e-05
1.2915e-06
1.39557e-06
7.57665e-05
7.76704e-05
8.06635e-08
7.76959e-05
2.23915e-07
7.77257e-05
3.30659e-07
7.77556e-05
4.07922e-07
7.77852e-05
4.67156e-07
7.78138e-05
5.12658e-07
7.78407e-05
5.46576e-07
7.78655e-05
5.71869e-07
7.78885e-05
5.91057e-07
7.79094e-05
6.05743e-07
7.79284e-05
6.17119e-07
7.79453e-05
6.26217e-07
7.79603e-05
6.33912e-07
7.79733e-05
6.40927e-07
7.79843e-05
6.47891e-07
7.79933e-05
6.55365e-07
7.80003e-05
6.63874e-07
7.80053e-05
6.73916e-07
7.80083e-05
6.85978e-07
7.80094e-05
7.00555e-07
7.80085e-05
7.18156e-07
7.80058e-05
7.39315e-07
7.80015e-05
7.64596e-07
7.79957e-05
7.946e-07
7.79888e-05
8.29956e-07
7.79814e-05
8.71313e-07
7.79741e-05
9.19319e-07
7.79681e-05
9.74576e-07
7.79647e-05
1.03757e-06
7.79657e-05
1.10865e-06
7.79733e-05
1.18762e-06
7.79901e-05
1.27464e-06
1.36647e-06
7.80192e-05
7.98871e-05
7.19137e-08
7.99088e-05
2.02147e-07
7.99357e-05
3.03742e-07
7.99638e-05
3.79828e-07
7.99922e-05
4.38841e-07
8.00199e-05
4.84919e-07
8.00463e-05
5.20156e-07
8.00711e-05
5.4708e-07
8.00942e-05
5.67987e-07
8.01155e-05
5.84451e-07
8.01349e-05
5.97647e-07
8.01526e-05
6.08583e-07
8.01684e-05
6.18118e-07
8.01823e-05
6.26971e-07
8.01944e-05
6.35764e-07
8.02048e-05
6.45057e-07
8.02133e-05
6.55364e-07
8.022e-05
6.67171e-07
8.0225e-05
6.80951e-07
8.02284e-05
6.97172e-07
8.02303e-05
7.16305e-07
8.02308e-05
7.38834e-07
8.02301e-05
7.65252e-07
8.02286e-05
7.96062e-07
8.02268e-05
8.31767e-07
8.02253e-05
8.72853e-07
8.02248e-05
9.1976e-07
8.02266e-05
9.72841e-07
8.02319e-05
1.03229e-06
8.02424e-05
1.09814e-06
8.02601e-05
1.16988e-06
8.02874e-05
1.24734e-06
1.32721e-06
8.03267e-05
8.21677e-05
6.46745e-08
8.21864e-05
1.83399e-07
8.22108e-05
2.79374e-07
8.22371e-05
3.53507e-07
8.22641e-05
4.11819e-07
8.2291e-05
4.58032e-07
8.2317e-05
4.94157e-07
8.23417e-05
5.22368e-07
8.2365e-05
5.44725e-07
8.23867e-05
5.62743e-07
8.24068e-05
5.77565e-07
8.24252e-05
5.90164e-07
8.24419e-05
6.01375e-07
8.2457e-05
6.11902e-07
8.24704e-05
6.22356e-07
8.24822e-05
6.33282e-07
8.24924e-05
6.45181e-07
8.2501e-05
6.5852e-07
8.25082e-05
6.73745e-07
8.25141e-05
6.91292e-07
8.25188e-05
7.11587e-07
8.25226e-05
7.35053e-07
8.25258e-05
7.62106e-07
8.25287e-05
7.93148e-07
8.25319e-05
8.28558e-07
8.25361e-05
8.68665e-07
8.25421e-05
9.13727e-07
8.25511e-05
9.63883e-07
8.25643e-05
1.0191e-06
8.25832e-05
1.07916e-06
8.26097e-05
1.14337e-06
8.26457e-05
1.21138e-06
1.27992e-06
8.2693e-05
8.45139e-05
5.85486e-08
8.45302e-05
1.67067e-07
8.45524e-05
2.57251e-07
8.4577e-05
3.28845e-07
8.46028e-05
3.86027e-07
8.46288e-05
4.31989e-07
8.46544e-05
4.68618e-07
8.4679e-05
4.97797e-07
8.47023e-05
5.2135e-07
8.47244e-05
5.40704e-07
8.4745e-05
5.56958e-07
8.47641e-05
5.71041e-07
8.47817e-05
5.83754e-07
8.47978e-05
5.95781e-07
8.48125e-05
6.07711e-07
8.48257e-05
6.20072e-07
8.48375e-05
6.33341e-07
8.48481e-05
6.47961e-07
8.48575e-05
6.64346e-07
8.48659e-05
6.8289e-07
8.48735e-05
7.0397e-07
8.48806e-05
7.27945e-07
8.48876e-05
7.5515e-07
8.48948e-05
7.85889e-07
8.4903e-05
8.20421e-07
8.49127e-05
8.58939e-07
8.49249e-05
9.01541e-07
8.49406e-05
9.48196e-07
8.4961e-05
9.98697e-07
8.49875e-05
1.05266e-06
8.50216e-05
1.10927e-06
8.50649e-05
1.16808e-06
1.22596e-06
8.51188e-05
8.69275e-05
5.32565e-08
8.69419e-05
1.52661e-07
8.6962e-05
2.37073e-07
8.69852e-05
3.05698e-07
8.70098e-05
3.61376e-07
8.70351e-05
4.06741e-07
8.70602e-05
4.43519e-07
8.70846e-05
4.73347e-07
8.71081e-05
4.9783e-07
8.71306e-05
5.18286e-07
8.71518e-05
5.35757e-07
8.71717e-05
5.51124e-07
8.71903e-05
5.65147e-07
8.72076e-05
5.7848e-07
8.72236e-05
5.91687e-07
8.72384e-05
6.05269e-07
8.72521e-05
6.19676e-07
8.72647e-05
6.3532e-07
8.72765e-05
6.52577e-07
8.72876e-05
6.71798e-07
8.72982e-05
6.93304e-07
8.73088e-05
7.17389e-07
8.73196e-05
7.44308e-07
8.73313e-05
7.74275e-07
8.73442e-05
8.0744e-07
8.73593e-05
8.43875e-07
8.73773e-05
8.83551e-07
8.73992e-05
9.26304e-07
8.74261e-05
9.71805e-07
8.74592e-05
1.01956e-06
8.74997e-05
1.06873e-06
8.7549e-05
1.11881e-06
1.16689e-06
8.7608e-05
8.94102e-05
4.85988e-08
8.94231e-05
1.3979e-07
8.94416e-05
2.18551e-07
8.94634e-05
2.83908e-07
8.9487e-05
3.37757e-07
8.95115e-05
3.82213e-07
8.95362e-05
4.18815e-07
8.95606e-05
4.4899e-07
8.95843e-05
4.7414e-07
8.96071e-05
4.95466e-07
8.96289e-05
5.13941e-07
8.96496e-05
5.30391e-07
8.96693e-05
5.45528e-07
8.96878e-05
5.5997e-07
8.97052e-05
5.74251e-07
8.97216e-05
5.88838e-07
8.97372e-05
6.0415e-07
8.97519e-05
6.20562e-07
8.97661e-05
6.38411e-07
8.97799e-05
6.57998e-07
8.97936e-05
6.79591e-07
8.98076e-05
7.03417e-07
8.98222e-05
7.29659e-07
8.9838e-05
7.58444e-07
8.98557e-05
7.89833e-07
8.98757e-05
8.23797e-07
8.98991e-05
8.60206e-07
8.99266e-05
8.98803e-07
8.99592e-05
9.39181e-07
8.9998e-05
9.80794e-07
9.00439e-05
1.02279e-06
9.0098e-05
1.06469e-06
1.10377e-06
9.01612e-05
9.1964e-05
4.44283e-08
9.19757e-05
1.28138e-07
9.19928e-05
2.01418e-07
9.20134e-05
2.63303e-07
9.20361e-05
3.15045e-07
9.206e-05
3.58311e-07
9.20844e-05
3.9444e-07
9.21087e-05
4.24672e-07
9.21326e-05
4.50229e-07
9.21559e-05
4.72187e-07
9.21784e-05
4.91444e-07
9.22e-05
5.08764e-07
9.22208e-05
5.24809e-07
9.22406e-05
5.40153e-07
9.22595e-05
5.55293e-07
9.22777e-05
5.70662e-07
9.22952e-05
5.86641e-07
9.23122e-05
6.03567e-07
9.23289e-05
6.21732e-07
9.23455e-05
6.4139e-07
9.23623e-05
6.62754e-07
9.23798e-05
6.85991e-07
9.23982e-05
7.11217e-07
9.24182e-05
7.38484e-07
9.24402e-05
7.67776e-07
9.2465e-05
7.98987e-07
9.24933e-05
8.31914e-07
9.25259e-05
8.66238e-07
9.25636e-05
9.0151e-07
9.26072e-05
9.37168e-07
9.26576e-05
9.72399e-07
9.27155e-05
1.00675e-06
1.03775e-06
9.27815e-05
9.4591e-05
4.06346e-08
9.46016e-05
1.17449e-07
9.46176e-05
1.85428e-07
9.46372e-05
2.43706e-07
9.46592e-05
2.93107e-07
9.46825e-05
3.34927e-07
9.47067e-05
3.70308e-07
9.4731e-05
4.00324e-07
9.47552e-05
4.26031e-07
9.4779e-05
4.48385e-07
9.48023e-05
4.68201e-07
9.48248e-05
4.86177e-07
9.48467e-05
5.0292e-07
9.48679e-05
5.18959e-07
9.48885e-05
5.34746e-07
9.49085e-05
5.50678e-07
9.4928e-05
5.67094e-07
9.49473e-05
5.8429e-07
9.49665e-05
6.02514e-07
9.49859e-05
6.21975e-07
9.50058e-05
6.42831e-07
9.50266e-05
6.65195e-07
9.50487e-05
6.89122e-07
9.50726e-05
7.14605e-07
9.50988e-05
7.41565e-07
9.5128e-05
7.6984e-07
9.51607e-05
7.99177e-07
9.51977e-05
8.29225e-07
9.52397e-05
8.59519e-07
9.52874e-05
8.8951e-07
9.53413e-05
9.18441e-07
9.54022e-05
9.45914e-07
9.69689e-07
9.54702e-05
9.7293e-05
3.71311e-08
9.7303e-05
1.07515e-07
9.7318e-05
1.7036e-07
9.73368e-05
2.24939e-07
9.73581e-05
2.71801e-07
9.73811e-05
3.11941e-07
9.74051e-05
3.46321e-07
9.74295e-05
3.75861e-07
9.74541e-05
4.0147e-07
9.74785e-05
4.23985e-07
9.75026e-05
4.44136e-07
9.75262e-05
4.62552e-07
9.75493e-05
4.79783e-07
9.7572e-05
4.96305e-07
9.75942e-05
5.12528e-07
9.76161e-05
5.28803e-07
9.76377e-05
5.45432e-07
9.76593e-05
5.62666e-07
9.76811e-05
5.80712e-07
9.77034e-05
5.9973e-07
9.77264e-05
6.19833e-07
9.77505e-05
6.41084e-07
9.77761e-05
6.63488e-07
9.78037e-05
6.86989e-07
9.78339e-05
7.11462e-07
9.7867e-05
7.36707e-07
9.79037e-05
7.62444e-07
9.79446e-05
7.88308e-07
9.79903e-05
8.13843e-07
9.80413e-05
8.38533e-07
9.8098e-05
8.61691e-07
9.8161e-05
8.8299e-07
9.00416e-07
9.82302e-05
0.000100072
3.3849e-08
0.000100082
9.81597e-08
0.000100096
1.56013e-07
0.000100114
2.06827e-07
0.000100135
2.50976e-07
0.000100158
2.89225e-07
0.000100182
3.22367e-07
0.000100206
3.51186e-07
0.000100231
3.76456e-07
0.000100256
3.98902e-07
0.000100281
4.19167e-07
0.000100306
4.3781e-07
0.000100331
4.55319e-07
0.000100355
4.72118e-07
0.000100379
4.8857e-07
0.000100403
5.04983e-07
0.000100426
5.21613e-07
0.00010045
5.38673e-07
0.000100475
5.56326e-07
0.0001005
5.74691e-07
0.000100526
5.93839e-07
0.000100553
6.13788e-07
0.000100582
6.34504e-07
0.000100613
6.55894e-07
0.000100647
6.77802e-07
0.000100684
7.00006e-07
0.000100724
7.22214e-07
0.000100768
7.44066e-07
0.000100817
7.65131e-07
0.00010087
7.8494e-07
0.000100929
8.02882e-07
0.000100993
8.18699e-07
8.30584e-07
0.000101063
0.000102931
3.07305e-08
0.00010294
8.92341e-08
0.000102954
1.42204e-07
0.000102972
1.89197e-07
0.000102992
2.30479e-07
0.000103015
2.66639e-07
0.000103039
2.98324e-07
0.000103064
3.2619e-07
0.000103089
3.50891e-07
0.000103115
3.73046e-07
0.000103141
3.93209e-07
0.000103167
4.11869e-07
0.000103193
4.29453e-07
0.000103219
4.46329e-07
0.000103244
4.62812e-07
0.00010327
4.79164e-07
0.000103296
4.95602e-07
0.000103323
5.12296e-07
0.00010335
5.29369e-07
0.000103377
5.46903e-07
0.000103406
5.64931e-07
0.000103437
5.83438e-07
0.000103469
6.02357e-07
0.000103503
6.2157e-07
0.00010354
6.40902e-07
0.00010358
6.60121e-07
0.000103623
6.78938e-07
0.00010367
6.97013e-07
0.000103721
7.13951e-07
0.000103777
7.29335e-07
0.000103837
7.42635e-07
0.000103902
7.53658e-07
7.60796e-07
0.000103972
0.000105872
2.77268e-08
0.00010588
8.06071e-08
0.000105894
1.28762e-07
0.000105911
1.71877e-07
0.000105931
2.10151e-07
0.000105954
2.44039e-07
0.000105978
2.74061e-07
0.000106004
3.00756e-07
0.00010603
3.24669e-07
0.000106057
3.46318e-07
0.000106084
3.66172e-07
0.000106111
3.84648e-07
0.000106138
4.02111e-07
0.000106166
4.18874e-07
0.000106193
4.35202e-07
0.000106221
4.51314e-07
0.000106249
4.67384e-07
0.000106278
4.83544e-07
0.000106308
4.99882e-07
0.000106338
5.16444e-07
0.00010637
5.33232e-07
0.000106403
5.50204e-07
0.000106438
5.67272e-07
0.000106475
5.843e-07
0.000106515
6.01104e-07
0.000106558
6.17456e-07
0.000106604
6.3308e-07
0.000106653
6.47663e-07
0.000106706
6.60853e-07
0.000106763
6.72288e-07
0.000106824
6.81519e-07
0.00010689
6.8841e-07
6.91534e-07
0.000106959
0.000108896
2.47933e-08
0.000108905
7.216e-08
0.000108918
1.15529e-07
0.000108935
1.54698e-07
0.000108956
1.89829e-07
0.000108978
2.21271e-07
0.000109003
2.49435e-07
0.000109029
2.74756e-07
0.000109056
2.97674e-07
0.000109084
3.18614e-07
0.000109112
3.37962e-07
0.00010914
3.56064e-07
0.000109169
3.73222e-07
0.000109198
3.89695e-07
0.000109228
4.05698e-07
0.000109258
4.21407e-07
0.000109288
4.36958e-07
0.000109319
4.52443e-07
0.000109351
4.6792e-07
0.000109384
4.83406e-07
0.000109419
4.98876e-07
0.000109455
5.14268e-07
0.000109492
5.29479e-07
0.000109532
5.44364e-07
0.000109575
5.58742e-07
0.00010962
5.72394e-07
0.000109668
5.85066e-07
0.000109719
5.96477e-07
0.000109774
6.0632e-07
0.000109832
6.14292e-07
0.000109893
6.20013e-07
0.000109958
6.23408e-07
6.23208e-07
0.000110026
0.000112007
2.18894e-08
0.000112016
6.37819e-08
0.000112029
1.02351e-07
0.000112046
1.37491e-07
0.000112067
1.69343e-07
0.00011209
1.98174e-07
0.000112115
2.24298e-07
0.000112142
2.48053e-07
0.000112169
2.69784e-07
0.000112198
2.89826e-07
0.000112228
3.08484e-07
0.000112258
3.26036e-07
0.000112288
3.4272e-07
0.000112319
3.58741e-07
0.000112351
3.74269e-07
0.000112383
3.89435e-07
0.000112415
4.04337e-07
0.000112449
4.19037e-07
0.000112483
4.33561e-07
0.000112519
4.47901e-07
0.000112555
4.62014e-07
0.000112594
4.75822e-07
0.000112634
4.89215e-07
0.000112676
5.02047e-07
0.000112721
5.14144e-07
0.000112768
5.25302e-07
0.000112818
5.35295e-07
0.00011287
5.43878e-07
0.000112926
5.50789e-07
0.000112984
5.55777e-07
0.000113046
5.58533e-07
0.00011311
5.5903e-07
5.56148e-07
0.000113177
0.000115207
1.89739e-08
0.000115216
5.53653e-08
0.000115229
8.90765e-08
0.000115246
1.20085e-07
0.000115267
1.4852e-07
0.000115291
1.7458e-07
0.000115317
1.98492e-07
0.000115344
2.20504e-07
0.000115373
2.4087e-07
0.000115403
2.5984e-07
0.000115434
2.77642e-07
0.000115466
2.94482e-07
0.000115498
3.10541e-07
0.00011553
3.25971e-07
0.000115564
3.40893e-07
0.000115598
3.55399e-07
0.000115633
3.69552e-07
0.000115668
3.83383e-07
0.000115705
3.96894e-07
0.000115743
4.10056e-07
0.000115782
4.22812e-07
0.000115823
4.35074e-07
0.000115865
4.46729e-07
0.00011591
4.57635e-07
0.000115956
4.67633e-07
0.000116005
4.76536e-07
0.000116056
4.84147e-07
0.00011611
4.90258e-07
0.000116166
4.94652e-07
0.000116225
4.97128e-07
0.000116286
4.97437e-07
0.000116349
4.95591e-07
4.90604e-07
0.000116415
0.000118499
1.60044e-08
0.000118507
4.68034e-08
0.000118521
7.55534e-08
0.000118539
1.02305e-07
0.00011856
1.27178e-07
0.000118584
1.50311e-07
0.000118611
1.7185e-07
0.000118639
1.91956e-07
0.00011867
2.10798e-07
0.000118701
2.28539e-07
0.000118733
2.45335e-07
0.000118766
2.61324e-07
0.0001188
2.76627e-07
0.000118835
2.91344e-07
0.00011887
3.05553e-07
0.000118906
3.19307e-07
0.000118943
3.32636e-07
0.000118981
3.45546e-07
0.00011902
3.58014e-07
0.00011906
3.69999e-07
0.000119101
3.81429e-07
0.000119144
3.92215e-07
0.000119189
4.02244e-07
0.000119235
4.11385e-07
0.000119283
4.19489e-07
0.000119333
4.26397e-07
0.000119385
4.31937e-07
0.00011944
4.35938e-07
0.000119496
4.38225e-07
0.000119555
4.38642e-07
0.000119615
4.36995e-07
0.000119677
4.33332e-07
4.26787e-07
0.000119741
0.000121884
1.29453e-08
0.000121893
3.79956e-08
0.000121907
6.16313e-08
0.000121925
8.39719e-08
0.000121947
1.05129e-07
0.000121973
1.25182e-07
0.000122
1.44197e-07
0.00012203
1.62251e-07
0.000122061
1.79425e-07
0.000122094
1.95803e-07
0.000122128
2.11466e-07
0.000122163
2.26484e-07
0.000122198
2.40923e-07
0.000122235
2.54832e-07
0.000122272
2.68246e-07
0.00012231
2.81184e-07
0.000122349
2.93645e-07
0.000122389
3.0561e-07
0.00012243
3.17041e-07
0.000122472
3.2788e-07
0.000122516
3.38053e-07
0.000122561
3.47466e-07
0.000122607
3.56013e-07
0.000122655
3.63573e-07
0.000122704
3.70015e-07
0.000122755
3.75201e-07
0.000122808
3.7899e-07
0.000122863
3.81242e-07
0.000122919
3.81821e-07
0.000122977
3.80609e-07
0.000123037
3.7746e-07
0.000123098
3.72442e-07
3.64795e-07
0.00012316
0.000125367
9.7788e-09
0.000125376
2.8848e-08
0.00012539
4.7158e-08
0.000125409
6.49e-08
0.000125432
8.21749e-08
0.000125458
9.89964e-08
0.000125487
1.15348e-07
0.000125518
1.31217e-07
0.000125551
1.46602e-07
0.000125585
1.61504e-07
0.000125621
1.75927e-07
0.000125658
1.89878e-07
0.000125695
2.03367e-07
0.000125734
2.16394e-07
0.000125773
2.28955e-07
0.000125813
2.41035e-07
0.000125854
2.52607e-07
0.000125896
2.6363e-07
0.000125939
2.74051e-07
0.000125983
2.83805e-07
0.000126028
2.92811e-07
0.000126075
3.00978e-07
0.000126123
3.08208e-07
0.000126172
3.1439e-07
0.000126222
3.19411e-07
0.000126274
3.23157e-07
0.000126328
3.25513e-07
0.000126383
3.26369e-07
0.000126439
3.25623e-07
0.000126496
3.23193e-07
0.000126555
3.18972e-07
0.000126614
3.13054e-07
3.04775e-07
0.000126674
0.000128948
6.45604e-09
0.000128958
1.92285e-08
0.000128973
3.19389e-08
0.000128993
4.48622e-08
0.000129017
5.80792e-08
0.000129045
7.15248e-08
0.000129075
8.50883e-08
0.000129108
9.86663e-08
0.000129142
1.12167e-07
0.000129178
1.25507e-07
0.000129215
1.38615e-07
0.000129254
1.51436e-07
0.000129293
1.63921e-07
0.000129334
1.76026e-07
0.000129375
1.87709e-07
0.000129417
1.98922e-07
0.00012946
2.09616e-07
0.000129504
2.19732e-07
0.000129549
2.29204e-07
0.000129595
2.3796e-07
0.000129641
2.45918e-07
0.000129689
2.52991e-07
0.000129739
2.59086e-07
0.000129789
2.64109e-07
0.00012984
2.67963e-07
0.000129893
2.70554e-07
0.000129947
2.71792e-07
0.000130001
2.71593e-07
0.000130057
2.69883e-07
0.000130114
2.66609e-07
0.000130171
2.6169e-07
0.000130229
2.5523e-07
2.46645e-07
0.000130287
0.000132633
2.9099e-09
0.000132643
8.96198e-09
0.000132659
1.57256e-08
0.00013268
2.35768e-08
0.000132706
3.25584e-08
0.000132735
4.24978e-08
0.000132767
5.31724e-08
0.000132801
6.43776e-08
0.000132837
7.59259e-08
0.000132875
8.76454e-08
0.000132914
9.93888e-08
0.000132955
1.11035e-07
0.000132996
1.22483e-07
0.000133039
1.33646e-07
0.000133082
1.44444e-07
0.000133126
1.54803e-07
0.000133171
1.64651e-07
0.000133217
1.73914e-07
0.000133264
1.82517e-07
0.000133311
1.90381e-07
0.00013336
1.97427e-07
0.000133409
2.0357e-07
0.000133459
2.08728e-07
0.000133511
2.12817e-07
0.000133563
2.1576e-07
0.000133616
2.17478e-07
0.00013367
2.17904e-07
0.000133724
2.16978e-07
0.00013378
2.1465e-07
0.000133835
2.10891e-07
0.000133891
2.05652e-07
0.000133948
1.99051e-07
1.90586e-07
0.000134004
0.000136422
-9.42475e-10
0.000136433
-2.17829e-09
0.000136451
-1.79913e-09
0.000136474
6.93812e-10
0.000136501
5.26789e-09
0.000136532
1.15955e-08
0.000136566
1.93175e-08
0.000136602
2.81165e-08
0.00013664
3.76984e-08
0.00013668
4.77933e-08
0.000136721
5.81727e-08
0.000136764
6.86509e-08
0.000136807
7.90754e-08
0.000136851
8.93163e-08
0.000136897
9.92619e-08
0.000136943
1.08812e-07
0.000136989
1.17877e-07
0.000137037
1.2637e-07
0.000137085
1.34207e-07
0.000137134
1.41309e-07
0.000137184
1.47595e-07
0.000137235
1.52988e-07
0.000137286
1.57414e-07
0.000137338
1.60801e-07
0.000137391
1.63085e-07
0.000137444
1.64205e-07
0.000137498
1.64112e-07
0.000137552
1.62764e-07
0.000137606
1.60129e-07
0.000137661
1.56193e-07
0.000137716
1.50924e-07
0.000137771
1.44431e-07
1.36273e-07
0.000137825
0.00014032
-5.21343e-09
0.000140332
-1.45032e-08
0.000140352
-2.10566e-08
0.000140377
-2.42298e-08
0.000140406
-2.42137e-08
0.000140439
-2.15744e-08
0.000140475
-1.68416e-08
0.000140514
-1.04571e-08
0.000140554
-2.83325e-09
0.000140597
5.65351e-09
0.00014064
1.46907e-08
0.000140685
2.40294e-08
0.00014073
3.34653e-08
0.000140777
4.28297e-08
0.000140824
5.19784e-08
0.000140872
6.07907e-08
0.000140921
6.91576e-08
0.00014097
7.69842e-08
0.00014102
8.41802e-08
0.000141071
9.06646e-08
0.000141122
9.63589e-08
0.000141174
1.01193e-07
0.000141226
1.05099e-07
0.000141279
1.08019e-07
0.000141332
1.09897e-07
0.000141386
1.10691e-07
0.000141439
1.10364e-07
0.000141493
1.08891e-07
0.000141547
1.06255e-07
0.000141601
1.02461e-07
0.000141654
9.74972e-08
0.000141707
9.1487e-08
8.40518e-08
0.00014176
0.000144329
-1.00668e-08
0.000144343
-2.84639e-08
0.000144365
-4.26349e-08
0.000144393
-5.17749e-08
0.000144425
-5.63913e-08
0.000144461
-5.7415e-08
0.000144499
-5.5589e-08
0.00014454
-5.15056e-08
0.000144583
-4.5724e-08
0.000144628
-3.8743e-08
0.000144673
-3.09585e-08
0.00014472
-2.268e-08
0.000144768
-1.41566e-08
0.000144816
-5.59445e-09
0.000144865
2.8383e-09
0.000144915
1.1e-08
0.000144965
1.8772e-08
0.000145016
2.60488e-08
0.000145068
3.2739e-08
0.00014512
3.87591e-08
0.000145172
4.40362e-08
0.000145225
4.85027e-08
0.000145278
5.21011e-08
0.000145331
5.47795e-08
0.000145384
5.64962e-08
0.000145438
5.72164e-08
0.000145491
5.69163e-08
0.000145545
5.55798e-08
0.000145598
5.32014e-08
0.00014565
4.9788e-08
0.000145702
4.5334e-08
0.000145754
3.99382e-08
3.32749e-08
0.000145805
0.000148454
-1.57579e-08
0.00014847
-4.47402e-08
0.000148495
-6.73566e-08
0.000148526
-8.27283e-08
0.000148561
-9.20245e-08
0.000148601
-9.66936e-08
0.000148643
-9.76848e-08
0.000148687
-9.57517e-08
0.000148733
-9.16414e-08
0.00014878
-8.59982e-08
0.000148828
-7.93078e-08
0.000148878
-7.19387e-08
0.000148928
-6.41863e-08
0.000148978
-5.62896e-08
0.00014903
-4.84401e-08
0.000149081
-4.07927e-08
0.000149134
-3.3476e-08
0.000149186
-2.65992e-08
0.000149239
-2.02555e-08
0.000149293
-1.45257e-08
0.000149346
-9.47987e-09
0.0001494
-5.17844e-09
0.000149454
-1.67286e-09
0.000149507
9.94154e-10
0.000149561
2.78884e-09
0.000149615
3.68641e-09
0.000149668
3.67131e-09
0.000149721
2.73787e-09
0.000149773
8.88985e-10
0.000149825
-1.85655e-09
0.000149875
-5.48946e-09
0.000149925
-9.89726e-09
-1.53572e-08
0.000149974
0.000152696
-2.27377e-08
0.000152716
-6.44858e-08
0.000152745
-9.64012e-08
0.00015278
-1.17867e-07
0.000152819
-1.31475e-07
0.000152862
-1.39456e-07
0.000152908
-1.42944e-07
0.000152955
-1.42868e-07
0.000153003
-1.40191e-07
0.000153053
-1.35694e-07
0.000153103
-1.29937e-07
0.000153155
-1.23333e-07
0.000153207
-1.16218e-07
0.000153259
-1.08858e-07
0.000153313
-1.01461e-07
0.000153366
-9.41928e-08
0.00015342
-8.71879e-08
0.000153474
-8.05572e-08
0.000153528
-7.43948e-08
0.000153582
-6.87781e-08
0.000153636
-6.3774e-08
0.000153691
-5.9437e-08
0.000153745
-5.58133e-08
0.000153799
-5.29385e-08
0.000153852
-5.08405e-08
0.000153905
-4.95377e-08
0.000153958
-4.90408e-08
0.00015401
-4.93517e-08
0.000154062
-5.04665e-08
0.000154112
-5.23703e-08
0.000154162
-5.50608e-08
0.00015421
-5.84574e-08
-6.27953e-08
0.000154258
0.00015706
-3.17563e-08
0.000157086
-8.96615e-08
0.000157121
-1.31971e-07
0.000157163
-1.59364e-07
0.000157208
-1.76901e-07
0.000157256
-1.87655e-07
0.000157306
-1.92938e-07
0.000157357
-1.94025e-07
0.000157409
-1.92194e-07
0.000157462
-1.88369e-07
0.000157515
-1.8315e-07
0.000157569
-1.76988e-07
0.000157623
-1.70242e-07
0.000157677
-1.63192e-07
0.000157732
-1.56049e-07
0.000157787
-1.4898e-07
0.000157842
-1.42114e-07
0.000157897
-1.35562e-07
0.000157952
-1.29411e-07
0.000158007
-1.23735e-07
0.000158061
-1.18593e-07
0.000158116
-1.14035e-07
0.00015817
-1.101e-07
0.000158224
-1.06819e-07
0.000158278
-1.04212e-07
0.00015833
-1.02295e-07
0.000158382
-1.01072e-07
0.000158434
-1.00541e-07
0.000158484
-1.00692e-07
0.000158533
-1.01507e-07
0.000158581
-1.02969e-07
0.000158627
-1.0499e-07
-1.0777e-07
0.000158672
0.000161551
-4.4655e-08
0.000161585
-1.22897e-07
0.000161627
-1.74488e-07
0.000161674
-2.06088e-07
0.000161724
-2.26908e-07
0.000161776
-2.40006e-07
0.00016183
-2.46516e-07
0.000161884
-2.48205e-07
0.000161938
-2.46748e-07
0.000161993
-2.43181e-07
0.000162048
-2.38134e-07
0.000162103
-2.32086e-07
0.000162159
-2.25423e-07
0.000162214
-2.18428e-07
0.000162269
-2.11311e-07
0.000162324
-2.04229e-07
0.000162379
-1.9731e-07
0.000162435
-1.90651e-07
0.000162489
-1.84333e-07
0.000162544
-1.78421e-07
0.000162599
-1.72967e-07
0.000162653
-1.68012e-07
0.000162706
-1.63591e-07
0.000162759
-1.59726e-07
0.000162811
-1.56436e-07
0.000162863
-1.53731e-07
0.000162913
-1.51616e-07
0.000162963
-1.50089e-07
0.000163011
-1.49146e-07
0.000163058
-1.48775e-07
0.000163104
-1.48979e-07
0.000163149
-1.49706e-07
-1.51126e-07
0.000163192
0.000166175
-6.63168e-08
0.000166227
-1.74716e-07
0.000166284
-2.3171e-07
0.000166341
-2.62643e-07
0.000166397
-2.8341e-07
0.000166453
-2.96121e-07
0.000166509
-3.01701e-07
0.000166563
-3.02499e-07
0.000166617
-3.00407e-07
0.00016667
-2.96393e-07
0.000166723
-2.91018e-07
0.000166775
-2.84735e-07
0.000166828
-2.77904e-07
0.00016688
-2.70782e-07
0.000166932
-2.63551e-07
0.000166985
-2.5635e-07
0.000167037
-2.49286e-07
0.000167088
-2.42444e-07
0.00016714
-2.35892e-07
0.000167191
-2.29682e-07
0.000167242
-2.23856e-07
0.000167292
-2.18447e-07
0.000167342
-2.1348e-07
0.000167392
-2.08974e-07
0.00016744
-2.04939e-07
0.000167488
-2.0138e-07
0.000167534
-1.98299e-07
0.00016758
-1.95688e-07
0.000167624
-1.93541e-07
0.000167667
-1.9184e-07
0.000167709