/*--------------------------------*- C++ -*----------------------------------*\
| =========                 |                                                 |
| \\      /  F ield         | OpenFOAM: The Open Source CFD Toolbox           |
|  \\    /   O peration     | Version:  4.1                                   |
|   \\  /    A nd           | Web:      www.OpenFOAM.org                      |
|    \\/     M anipulation  |                                                 |
\*---------------------------------------------------------------------------*/
FoamFile
{
    version     2.0;
    format      ascii;
    class       volSymmTensorField;
    location    "100";
    object      R;
}
// * * * * * * * * * * * * * * * * * * * * * * * * * * * * * * * * * * * * * //

dimensions      [0 2 -2 0 0 0 0];

internalField   nonuniform List<symmTensor> 
6820
(
(0.205733 -0.0655176 0 0.119058 0 0.158783)
(0.282327 -0.0957352 0 0.109532 0 0.187468)
(0.351927 -0.111293 0 0.106205 0 0.215541)
(0.414126 -0.120943 0 0.107171 0 0.242562)
(0.468878 -0.128179 0 0.110837 0 0.2681)
(0.51632 -0.13435 0 0.115978 0 0.291748)
(0.556726 -0.139867 0 0.121706 0 0.313167)
(0.590514 -0.144779 0 0.127414 0 0.332131)
(0.618223 -0.149037 0 0.132721 0 0.348542)
(0.640458 -0.152595 0 0.137415 0 0.362418)
(0.65785 -0.155448 0 0.141402 0 0.373867)
(0.671027 -0.157626 0 0.144664 0 0.383059)
(0.680582 -0.159182 0 0.147233 0 0.390206)
(0.687066 -0.160187 0 0.149165 0 0.395536)
(0.690974 -0.160714 0 0.150531 0 0.39928)
(0.692744 -0.160833 0 0.151405 0 0.401662)
(0.692755 -0.160613 0 0.151857 0 0.402887)
(0.691334 -0.160111 0 0.151955 0 0.403142)
(0.688757 -0.159379 0 0.151757 0 0.402593)
(0.685254 -0.158461 0 0.151316 0 0.401382)
(0.681015 -0.157393 0 0.150674 0 0.399632)
(0.676197 -0.156204 0 0.149869 0 0.397445)
(0.670924 -0.154917 0 0.148932 0 0.394908)
(0.665293 -0.153548 0 0.147887 0 0.392088)
(0.659377 -0.152108 0 0.146752 0 0.38904)
(0.653227 -0.150603 0 0.14554 0 0.385805)
(0.646874 -0.149033 0 0.144259 0 0.382412)
(0.640325 -0.147391 0 0.142912 0 0.378874)
(0.633567 -0.145665 0 0.141496 0 0.375196)
(0.62657 -0.143827 0 0.139998 0 0.371368)
(0.619246 -0.141869 0 0.138405 0 0.367354)
(0.611668 -0.139732 0 0.136715 0 0.363186)
(0.605651 -0.138536 0 0.136122 0 0.359666)
(0.141615 -0.00846859 0 0.126762 0 0.13657)
(0.150544 -0.0154204 0 0.119372 0 0.139443)
(0.159425 -0.0211058 0 0.112595 0 0.141979)
(0.168057 -0.0259534 0 0.106644 0 0.144259)
(0.176259 -0.0301327 0 0.101572 0 0.146303)
(0.183949 -0.033758 0 0.0973649 0 0.14814)
(0.191107 -0.0369284 0 0.0939629 0 0.149801)
(0.197738 -0.0397224 0 0.0912781 0 0.151313)
(0.203857 -0.0422021 0 0.0892139 0 0.152698)
(0.209497 -0.0444201 0 0.0876755 0 0.153974)
(0.214701 -0.046423 0 0.0865749 0 0.155162)
(0.219519 -0.0482519 0 0.0858334 0 0.156278)
(0.224004 -0.0499421 0 0.0853831 0 0.157338)
(0.228208 -0.0515238 0 0.0851667 0 0.158358)
(0.232183 -0.053022 0 0.0851373 0 0.159352)
(0.235977 -0.0544571 0 0.0852569 0 0.160334)
(0.239633 -0.0558454 0 0.0854955 0 0.161314)
(0.243192 -0.0571999 0 0.0858294 0 0.162304)
(0.246687 -0.0585309 0 0.0862407 0 0.163314)
(0.250149 -0.0598462 0 0.0867156 0 0.164351)
(0.253606 -0.0611529 0 0.087244 0 0.165425)
(0.257085 -0.0624569 0 0.087819 0 0.166544)
(0.260609 -0.0637633 0 0.0884359 0 0.167715)
(0.264202 -0.0650773 0 0.0890925 0 0.168946)
(0.267889 -0.0664041 0 0.0897881 0 0.170248)
(0.271697 -0.0677503 0 0.0905246 0 0.171632)
(0.275659 -0.0691242 0 0.091306 0 0.173112)
(0.279818 -0.0705371 0 0.0921392 0 0.174706)
(0.28423 -0.0720053 0 0.0930357 0 0.176442)
(0.288972 -0.0735488 0 0.0940109 0 0.178357)
(0.294162 -0.0752094 0 0.095095 0 0.180501)
(0.299917 -0.077005 0 0.096311 0 0.182945)
(0.307508 -0.0793559 0 0.0980936 0 0.186167)
(0.135649 -0.00198383 0 0.129362 0 0.134471)
(0.13815 -0.00333578 0 0.124865 0 0.135416)
(0.140559 -0.00437019 0 0.120268 0 0.136121)
(0.142786 -0.00525171 0 0.115828 0 0.136589)
(0.144771 -0.00600356 0 0.111653 0 0.136837)
(0.146513 -0.00665725 0 0.107772 0 0.136897)
(0.148031 -0.00725243 0 0.104186 0 0.136804)
(0.149343 -0.00781816 0 0.100885 0 0.136586)
(0.150466 -0.00837245 0 0.0978548 0 0.136264)
(0.151418 -0.00892699 0 0.0950768 0 0.135858)
(0.152223 -0.00948966 0 0.0925329 0 0.135387)
(0.152899 -0.0100655 0 0.0902046 0 0.134866)
(0.153468 -0.0106573 0 0.0880737 0 0.134308)
(0.153948 -0.0112665 0 0.086123 0 0.133725)
(0.154359 -0.0118933 0 0.0843364 0 0.133128)
(0.154717 -0.0125377 0 0.0826994 0 0.132526)
(0.15504 -0.013199 0 0.0811985 0 0.131928)
(0.155342 -0.0138763 0 0.0798218 0 0.13134)
(0.155639 -0.014569 0 0.0785586 0 0.13077)
(0.155944 -0.0152766 0 0.0773996 0 0.130224)
(0.156269 -0.0159979 0 0.0763359 0 0.129706)
(0.156623 -0.0167325 0 0.07536 0 0.129221)
(0.157017 -0.0174803 0 0.0744652 0 0.128772)
(0.157463 -0.0182424 0 0.0736461 0 0.128363)
(0.157972 -0.0190207 0 0.0728985 0 0.128)
(0.158561 -0.0198185 0 0.0722195 0 0.127688)
(0.159247 -0.020641 0 0.0716076 0 0.127434)
(0.160052 -0.0214963 0 0.071063 0 0.127248)
(0.161004 -0.0223957 0 0.0705887 0 0.127141)
(0.162144 -0.0233567 0 0.0701918 0 0.127131)
(0.163524 -0.0244037 0 0.0698822 0 0.12724)
(0.165229 -0.0255869 0 0.0696916 0 0.127507)
(0.167493 -0.0270129 0 0.0696948 0 0.128026)
(0.134188 -0.000786002 0 0.13026 0 0.133858)
(0.135199 -0.00140371 0 0.126833 0 0.134322)
(0.136209 -0.00188891 0 0.123354 0 0.134665)
(0.137148 -0.00232634 0 0.119969 0 0.134873)
(0.137965 -0.00271768 0 0.116721 0 0.134942)
(0.138652 -0.00306585 0 0.11362 0 0.134887)
(0.139222 -0.00338344 0 0.11067 0 0.134728)
(0.139683 -0.00368066 0 0.107878 0 0.134481)
(0.140043 -0.00396389 0 0.105242 0 0.134159)
(0.14031 -0.00423822 0 0.102758 0 0.133773)
(0.140496 -0.00450817 0 0.10042 0 0.133336)
(0.14061 -0.00477747 0 0.0982196 0 0.132857)
(0.140662 -0.00504901 0 0.096149 0 0.132344)
(0.14066 -0.00532499 0 0.0941998 0 0.131805)
(0.140615 -0.0056071 0 0.0923637 0 0.131247)
(0.140534 -0.00589662 0 0.0906327 0 0.130674)
(0.140426 -0.00619452 0 0.0889993 0 0.130093)
(0.140297 -0.00650156 0 0.0874563 0 0.129508)
(0.140155 -0.00681835 0 0.085997 0 0.128924)
(0.140008 -0.0071455 0 0.0846152 0 0.128344)
(0.13986 -0.00748351 0 0.0833052 0 0.127771)
(0.139719 -0.00783299 0 0.0820617 0 0.127209)
(0.13959 -0.00819482 0 0.0808796 0 0.126659)
(0.139479 -0.00857028 0 0.0797544 0 0.126125)
(0.139393 -0.00896128 0 0.078682 0 0.12561)
(0.139338 -0.00937057 0 0.0776586 0 0.125116)
(0.139324 -0.00980203 0 0.0766812 0 0.124645)
(0.139359 -0.0102612 0 0.0757475 0 0.124203)
(0.139455 -0.0107561 0 0.0748563 0 0.123791)
(0.139626 -0.0112976 0 0.0740084 0 0.123417)
(0.139889 -0.0119026 0 0.0732078 0 0.123085)
(0.140264 -0.0125962 0 0.0724646 0 0.122803)
(0.140798 -0.013426 0 0.0718159 0 0.122588)
(0.133621 -0.000373322 0 0.130797 0 0.133545)
(0.133999 -0.000670452 0 0.128063 0 0.133739)
(0.134422 -0.000903208 0 0.125308 0 0.133886)
(0.134843 -0.00113001 0 0.122591 0 0.133968)
(0.135212 -0.00134833 0 0.119945 0 0.133968)
(0.135514 -0.00155072 0 0.117384 0 0.13389)
(0.135751 -0.00174046 0 0.114917 0 0.133742)
(0.135926 -0.00192202 0 0.112551 0 0.133534)
(0.136041 -0.00209778 0 0.110287 0 0.133272)
(0.136101 -0.00226951 0 0.108123 0 0.132963)
(0.136111 -0.00243902 0 0.106058 0 0.132615)
(0.136076 -0.00260798 0 0.104088 0 0.132234)
(0.136002 -0.00277773 0 0.102209 0 0.131826)
(0.135894 -0.00294937 0 0.100416 0 0.131395)
(0.135757 -0.00312387 0 0.0987058 0 0.130945)
(0.135595 -0.00330205 0 0.0970734 0 0.130482)
(0.135413 -0.00348469 0 0.0955145 0 0.130009)
(0.135216 -0.0036725 0 0.0940248 0 0.129528)
(0.135008 -0.00386621 0 0.0926001 0 0.129043)
(0.134793 -0.00406659 0 0.0912363 0 0.128557)
(0.134574 -0.00427453 0 0.0899294 0 0.128072)
(0.134357 -0.00449107 0 0.0886755 0 0.12759)
(0.134143 -0.00471751 0 0.087471 0 0.127112)
(0.133937 -0.0049555 0 0.0863121 0 0.126642)
(0.133743 -0.00520723 0 0.0851956 0 0.12618)
(0.133564 -0.00547559 0 0.0841182 0 0.125728)
(0.133404 -0.00576437 0 0.0830773 0 0.125287)
(0.133267 -0.00607866 0 0.0820704 0 0.124859)
(0.133157 -0.00642519 0 0.0810963 0 0.124445)
(0.133079 -0.00681278 0 0.080155 0 0.124046)
(0.133034 -0.00725345 0 0.0792491 0 0.123662)
(0.133022 -0.00776236 0 0.0783857 0 0.123291)
(0.133043 -0.00836635 0 0.0775799 0 0.122929)
(0.133354 -0.000213689 0 0.131143 0 0.133355)
(0.133402 -0.000370606 0 0.128822 0 0.133366)
(0.133497 -0.000482498 0 0.126494 0 0.133367)
(0.133622 -0.000593825 0 0.124188 0 0.133344)
(0.133738 -0.000705835 0 0.121931 0 0.133281)
(0.133826 -0.00081198 0 0.119735 0 0.133172)
(0.133882 -0.000913554 0 0.117606 0 0.133019)
(0.133906 -0.0010132 0 0.11555 0 0.132826)
(0.133895 -0.00111183 0 0.113568 0 0.132595)
(0.133851 -0.00120987 0 0.111661 0 0.132331)
(0.133776 -0.00130801 0 0.109828 0 0.132039)
(0.133673 -0.00140703 0 0.108068 0 0.131721)
(0.133545 -0.00150765 0 0.106377 0 0.131383)
(0.133395 -0.00161052 0 0.104755 0 0.131026)
(0.133226 -0.00171626 0 0.103198 0 0.130655)
(0.133041 -0.00182549 0 0.101702 0 0.130272)
(0.132842 -0.00193881 0 0.100266 0 0.12988)
(0.132633 -0.00205685 0 0.0988852 0 0.129482)
(0.132416 -0.0021803 0 0.0975572 0 0.129078)
(0.132193 -0.00230992 0 0.0962789 0 0.128672)
(0.131968 -0.00244665 0 0.0950471 0 0.128265)
(0.131742 -0.00259156 0 0.0938589 0 0.127859)
(0.131519 -0.00274601 0 0.0927116 0 0.127454)
(0.131299 -0.00291171 0 0.0916023 0 0.127053)
(0.131086 -0.00309082 0 0.0905285 0 0.126656)
(0.130881 -0.00328609 0 0.089488 0 0.126265)
(0.130686 -0.00350102 0 0.0884788 0 0.125879)
(0.130501 -0.00374005 0 0.0874998 0 0.1255)
(0.130328 -0.00400874 0 0.0865507 0 0.125127)
(0.130166 -0.00431385 0 0.0856325 0 0.12476)
(0.130011 -0.00466371 0 0.0847488 0 0.124396)
(0.129855 -0.00506744 0 0.0839058 0 0.124032)
(0.129687 -0.00554136 0 0.0831103 0 0.123658)
(0.133207 -0.000144274 0 0.131379 0 0.133227)
(0.133068 -0.000240943 0 0.129336 0 0.133106)
(0.13296 -0.00029519 0 0.127314 0 0.132988)
(0.132887 -0.000342874 0 0.125319 0 0.13287)
(0.132828 -0.000391663 0 0.123363 0 0.132737)
(0.132766 -0.000438918 0 0.121452 0 0.132583)
(0.132696 -0.000485539 0 0.119589 0 0.132406)
(0.132612 -0.000533264 0 0.11778 0 0.132205)
(0.132513 -0.000582485 0 0.116026 0 0.131981)
(0.132397 -0.00063319 0 0.114329 0 0.131735)
(0.132264 -0.000685627 0 0.112689 0 0.13147)
(0.132115 -0.00074019 0 0.111106 0 0.131188)
(0.131952 -0.000797271 0 0.109578 0 0.130891)
(0.131775 -0.000857251 0 0.108104 0 0.13058)
(0.131587 -0.000920536 0 0.106682 0 0.130259)
(0.131388 -0.00098756 0 0.10531 0 0.129929)
(0.131182 -0.0010588 0 0.103986 0 0.129591)
(0.130969 -0.00113479 0 0.102708 0 0.129249)
(0.130752 -0.00121614 0 0.101474 0 0.128902)
(0.130531 -0.00130358 0 0.100281 0 0.128553)
(0.130309 -0.00139799 0 0.0991266 0 0.128203)
(0.130088 -0.00150042 0 0.0980097 0 0.127853)
(0.129867 -0.00161219 0 0.0969279 0 0.127503)
(0.12965 -0.00173492 0 0.0958793 0 0.127156)
(0.129436 -0.0018706 0 0.0948621 0 0.126811)
(0.129227 -0.00202173 0 0.0938751 0 0.126469)
(0.129023 -0.00219133 0 0.0929171 0 0.126131)
(0.128823 -0.00238305 0 0.0919881 0 0.125795)
(0.128626 -0.00260123 0 0.0910887 0 0.125463)
(0.128429 -0.00285065 0 0.0902212 0 0.125131)
(0.128228 -0.00313661 0 0.0893896 0 0.124799)
(0.128011 -0.00346394 0 0.0885998 0 0.124461)
(0.127767 -0.00384286 0 0.0878544 0 0.124108)
(0.133113 -0.000109048 0 0.131552 0 0.133135)
(0.13286 -0.000180917 0 0.129703 0 0.132917)
(0.132623 -0.000213357 0 0.127894 0 0.132705)
(0.132416 -0.000232925 0 0.126117 0 0.132502)
(0.132229 -0.000249785 0 0.124377 0 0.1323)
(0.132052 -0.000264415 0 0.122675 0 0.132093)
(0.13188 -0.000278367 0 0.121012 0 0.131877)
(0.13171 -0.000293643 0 0.119392 0 0.131652)
(0.131537 -0.000311029 0 0.117816 0 0.131416)
(0.131359 -0.000330716 0 0.116287 0 0.131168)
(0.131175 -0.000352928 0 0.114804 0 0.130909)
(0.130985 -0.000377951 0 0.113367 0 0.13064)
(0.130789 -0.000406052 0 0.111975 0 0.130361)
(0.130587 -0.000437499 0 0.110629 0 0.130075)
(0.130379 -0.000472599 0 0.109325 0 0.129781)
(0.130166 -0.000511704 0 0.108064 0 0.129482)
(0.12995 -0.000555224 0 0.106843 0 0.129179)
(0.129732 -0.00060364 0 0.105662 0 0.128871)
(0.129511 -0.000657523 0 0.104518 0 0.128562)
(0.12929 -0.000717556 0 0.103409 0 0.128251)
(0.129069 -0.000784566 0 0.102335 0 0.127939)
(0.128849 -0.000859552 0 0.101294 0 0.127627)
(0.128631 -0.000943727 0 0.100283 0 0.127317)
(0.128415 -0.00103856 0 0.0993023 0 0.127008)
(0.128202 -0.00114583 0 0.0983503 0 0.1267)
(0.127991 -0.00126764 0 0.0974263 0 0.126395)
(0.127783 -0.00140648 0 0.0965302 0 0.126092)
(0.127575 -0.00156519 0 0.0956624 0 0.12579)
(0.127365 -0.00174687 0 0.0948244 0 0.125489)
(0.127151 -0.00195465 0 0.0940189 0 0.125188)
(0.126925 -0.00219151 0 0.09325 0 0.124883)
(0.12668 -0.00245943 0 0.0925229 0 0.124572)
(0.126403 -0.00276527 0 0.0918375 0 0.124246)
(0.133046 -8.80736e-05 0 0.131684 0 0.133065)
(0.132718 -0.000149034 0 0.129977 0 0.132773)
(0.132396 -0.000175499 0 0.128321 0 0.132488)
(0.132096 -0.000185249 0 0.126706 0 0.132215)
(0.131817 -0.000188092 0 0.125131 0 0.13195)
(0.131552 -0.000186434 0 0.123593 0 0.131689)
(0.131299 -0.000182594 0 0.122091 0 0.13143)
(0.131055 -0.000179025 0 0.120627 0 0.131171)
(0.130818 -0.000177044 0 0.119201 0 0.130909)
(0.130584 -0.000177221 0 0.117813 0 0.130645)
(0.130352 -0.000179974 0 0.116464 0 0.130377)
(0.130121 -0.000185677 0 0.115153 0 0.130105)
(0.129891 -0.000194646 0 0.113881 0 0.129829)
(0.129661 -0.000207169 0 0.112646 0 0.12955)
(0.12943 -0.000223545 0 0.111448 0 0.129268)
(0.1292 -0.000244111 0 0.110285 0 0.128984)
(0.128969 -0.00026925 0 0.109157 0 0.128698)
(0.12874 -0.000299411 0 0.108063 0 0.12841)
(0.128511 -0.000335123 0 0.107001 0 0.128122)
(0.128284 -0.000377018 0 0.10597 0 0.127834)
(0.128058 -0.000425854 0 0.104969 0 0.127546)
(0.127835 -0.000482534 0 0.103998 0 0.12726)
(0.127614 -0.000548135 0 0.103054 0 0.126974)
(0.127395 -0.000623933 0 0.102137 0 0.12669)
(0.127179 -0.000711416 0 0.101247 0 0.126408)
(0.126964 -0.000812299 0 0.100383 0 0.126128)
(0.12675 -0.000928496 0 0.0995468 0 0.125849)
(0.126534 -0.00106206 0 0.098738 0 0.125571)
(0.126314 -0.00121503 0 0.097959 0 0.125293)
(0.126087 -0.00138916 0 0.0972126 0 0.125014)
(0.125846 -0.00158576 0 0.0965027 0 0.124731)
(0.125585 -0.00180507 0 0.0958332 0 0.124442)
(0.125292 -0.00205193 0 0.0952022 0 0.12414)
(0.132994 -7.38158e-05 0 0.131789 0 0.13301)
(0.132613 -0.000128699 0 0.13019 0 0.132661)
(0.132232 -0.000155022 0 0.128649 0 0.132319)
(0.131868 -0.000163886 0 0.127154 0 0.131989)
(0.131521 -0.000163455 0 0.125701 0 0.13167)
(0.131189 -0.000156726 0 0.124286 0 0.131359)
(0.130872 -0.000146161 0 0.122908 0 0.131057)
(0.130568 -0.000134274 0 0.121564 0 0.13076)
(0.130274 -0.000122711 0 0.120255 0 0.130467)
(0.12999 -0.000112405 0 0.11898 0 0.130178)
(0.129713 -0.00010404 0 0.11774 0 0.129891)
(0.129443 -9.81821e-05 0 0.116533 0 0.129605)
(0.129178 -9.52865e-05 0 0.11536 0 0.12932)
(0.128917 -9.57395e-05 0 0.11422 0 0.129036)
(0.128661 -9.99051e-05 0 0.113112 0 0.128753)
(0.128408 -0.000108157 0 0.112035 0 0.128471)
(0.128159 -0.000120896 0 0.110988 0 0.12819)
(0.127914 -0.00013857 0 0.109972 0 0.12791)
(0.127672 -0.000161692 0 0.108984 0 0.127631)
(0.127433 -0.000190856 0 0.108024 0 0.127354)
(0.127198 -0.000226753 0 0.107092 0 0.127079)
(0.126966 -0.00027019 0 0.106185 0 0.126806)
(0.126737 -0.0003221 0 0.105305 0 0.126535)
(0.126511 -0.000383551 0 0.10445 0 0.126266)
(0.126288 -0.000455744 0 0.10362 0 0.125999)
(0.126065 -0.000539995 0 0.102815 0 0.125734)
(0.125842 -0.000637689 0 0.102037 0 0.125471)
(0.125617 -0.000750176 0 0.101286 0 0.125209)
(0.125386 -0.000878627 0 0.100564 0 0.124946)
(0.125147 -0.00102375 0 0.0998745 0 0.124683)
(0.124895 -0.00118575 0 0.0992203 0 0.124417)
(0.124624 -0.00136383 0 0.0986043 0 0.124145)
(0.124324 -0.00156165 0 0.0980232 0 0.123861)
(0.132953 -6.32363e-05 0 0.131874 0 0.132965)
(0.132529 -0.00011359 0 0.130362 0 0.13257)
(0.132106 -0.00014109 0 0.12891 0 0.132183)
(0.131695 -0.000152232 0 0.127506 0 0.131807)
(0.131299 -0.000153233 0 0.126147 0 0.131443)
(0.130918 -0.000146959 0 0.124827 0 0.131091)
(0.130551 -0.000135669 0 0.123545 0 0.130749)
(0.130198 -0.000121703 0 0.122296 0 0.130416)
(0.129859 -0.000106816 0 0.121082 0 0.130091)
(0.129531 -9.21601e-05 0 0.119901 0 0.129774)
(0.129214 -7.86083e-05 0 0.118751 0 0.129462)
(0.128906 -6.68808e-05 0 0.117632 0 0.129157)
(0.128608 -5.75665e-05 0 0.116544 0 0.128856)
(0.128317 -5.11598e-05 0 0.115486 0 0.128559)
(0.128033 -4.81079e-05 0 0.114456 0 0.128267)
(0.127756 -4.88425e-05 0 0.113455 0 0.127978)
(0.127486 -5.38018e-05 0 0.112481 0 0.127693)
(0.127221 -6.34482e-05 0 0.111535 0 0.127411)
(0.126961 -7.82854e-05 0 0.110614 0 0.127133)
(0.126707 -9.88728e-05 0 0.109718 0 0.126858)
(0.126458 -0.000125837 0 0.108848 0 0.126586)
(0.126214 -0.000159881 0 0.108001 0 0.126318)
(0.125973 -0.000201788 0 0.107179 0 0.126052)
(0.125735 -0.000252418 0 0.106381 0 0.12579)
(0.1255 -0.000312691 0 0.105606 0 0.12553)
(0.125266 -0.000383554 0 0.104856 0 0.125273)
(0.125032 -0.000465915 0 0.104131 0 0.125018)
(0.124795 -0.000560545 0 0.103433 0 0.124765)
(0.124553 -0.000667935 0 0.102763 0 0.124511)
(0.124303 -0.00078807 0 0.102125 0 0.124258)
(0.124041 -0.00092043 0 0.101519 0 0.124002)
(0.123761 -0.00106369 0 0.100949 0 0.123743)
(0.123456 -0.00122079 0 0.100411 0 0.123474)
(0.132918 -5.49568e-05 0 0.131945 0 0.132929)
(0.132461 -0.000101275 0 0.130504 0 0.132495)
(0.132005 -0.00012961 0 0.129123 0 0.132071)
(0.131558 -0.000143515 0 0.127792 0 0.131658)
(0.131125 -0.000147516 0 0.126505 0 0.131259)
(0.130706 -0.000144108 0 0.12526 0 0.130871)
(0.130301 -0.000135231 0 0.124051 0 0.130495)
(0.129911 -0.000122904 0 0.122878 0 0.130129)
(0.129534 -0.000108776 0 0.121738 0 0.129775)
(0.12917 -9.40357e-05 0 0.12063 0 0.129429)
(0.128818 -7.96132e-05 0 0.119552 0 0.129093)
(0.128477 -6.62959e-05 0 0.118504 0 0.128765)
(0.128148 -5.47477e-05 0 0.117485 0 0.128444)
(0.127828 -4.55364e-05 0 0.116494 0 0.12813)
(0.127518 -3.91709e-05 0 0.11553 0 0.127823)
(0.127216 -3.61304e-05 0 0.114593 0 0.127522)
(0.126923 -3.68836e-05 0 0.113681 0 0.127227)
(0.126637 -4.1905e-05 0 0.112793 0 0.126937)
(0.126358 -5.16885e-05 0 0.111931 0 0.126652)
(0.126086 -6.67588e-05 0 0.111092 0 0.126373)
(0.12582 -8.76778e-05 0 0.110276 0 0.126098)
(0.12556 -0.000115048 0 0.109483 0 0.125827)
(0.125304 -0.00014951 0 0.108713 0 0.125561)
(0.125052 -0.000191729 0 0.107966 0 0.125299)
(0.124803 -0.00024237 0 0.107242 0 0.12504)
(0.124555 -0.000302056 0 0.106542 0 0.124785)
(0.124307 -0.000371303 0 0.105866 0 0.124532)
(0.124057 -0.000450426 0 0.105216 0 0.124282)
(0.123802 -0.000539425 0 0.104594 0 0.124033)
(0.123541 -0.000637807 0 0.104 0 0.123784)
(0.123269 -0.000744638 0 0.103439 0 0.123534)
(0.122982 -0.000858356 0 0.10291 0 0.123283)
(0.122674 -0.000981439 0 0.102409 0 0.123023)
(0.132889 -4.82566e-05 0 0.132005 0 0.132898)
(0.132404 -9.07789e-05 0 0.130623 0 0.132433)
(0.13192 -0.000119229 0 0.129301 0 0.131978)
(0.131446 -0.000135371 0 0.128028 0 0.131535)
(0.130984 -0.000142401 0 0.1268 0 0.131105)
(0.130536 -0.000142386 0 0.125614 0 0.130688)
(0.130101 -0.000136935 0 0.124465 0 0.130283)
(0.129681 -0.000127721 0 0.123351 0 0.12989)
(0.129274 -0.000116204 0 0.12227 0 0.129509)
(0.12888 -0.00010351 0 0.121221 0 0.129138)
(0.1285 -9.0551e-05 0 0.120203 0 0.128778)
(0.128132 -7.81169e-05 0 0.119213 0 0.128428)
(0.127775 -6.68901e-05 0 0.118251 0 0.128087)
(0.12743 -5.74658e-05 0 0.117316 0 0.127755)
(0.127095 -5.03796e-05 0 0.116407 0 0.127431)
(0.12677 -4.61306e-05 0 0.115524 0 0.127115)
(0.126454 -4.51979e-05 0 0.114665 0 0.126807)
(0.126148 -4.80527e-05 0 0.113829 0 0.126505)
(0.125849 -5.51681e-05 0 0.113017 0 0.12621)
(0.125558 -6.70263e-05 0 0.112228 0 0.125922)
(0.125274 -8.41208e-05 0 0.11146 0 0.125639)
(0.124997 -0.000106954 0 0.110715 0 0.125362)
(0.124724 -0.000136031 0 0.109992 0 0.12509)
(0.124456 -0.000171836 0 0.109291 0 0.124824)
(0.124191 -0.000214811 0 0.108612 0 0.124562)
(0.123929 -0.000265307 0 0.107956 0 0.124303)
(0.123666 -0.000323525 0 0.107324 0 0.124049)
(0.123402 -0.000389442 0 0.106716 0 0.123797)
(0.123135 -0.000462718 0 0.106135 0 0.123548)
(0.122861 -0.000542563 0 0.105582 0 0.1233)
(0.122579 -0.000627835 0 0.105058 0 0.123052)
(0.122286 -0.000716922 0 0.104563 0 0.122804)
(0.121974 -0.000812006 0 0.104093 0 0.12255)
(0.132864 -4.27052e-05 0 0.132056 0 0.132872)
(0.132355 -8.16465e-05 0 0.130726 0 0.132379)
(0.131848 -0.000109562 0 0.129452 0 0.131898)
(0.131351 -0.000127169 0 0.128228 0 0.13143)
(0.130866 -0.000136676 0 0.127049 0 0.130975)
(0.130395 -0.000139749 0 0.12591 0 0.130533)
(0.129936 -0.000137721 0 0.12481 0 0.130104)
(0.129492 -0.000131964 0 0.123744 0 0.129688)
(0.129061 -0.000123737 0 0.122711 0 0.129284)
(0.128644 -0.000114057 0 0.12171 0 0.128892)
(0.128239 -0.000103774 0 0.120739 0 0.128511)
(0.127848 -9.36275e-05 0 0.119796 0 0.12814)
(0.127468 -8.42732e-05 0 0.11888 0 0.12778)
(0.127101 -7.62906e-05 0 0.117991 0 0.12743)
(0.126744 -7.02046e-05 0 0.117127 0 0.12709)
(0.126398 -6.65031e-05 0 0.116288 0 0.126758)
(0.126063 -6.5649e-05 0 0.115473 0 0.126435)
(0.125736 -6.80883e-05 0 0.114681 0 0.12612)
(0.125419 -7.42565e-05 0 0.113911 0 0.125813)
(0.125109 -8.45808e-05 0 0.113163 0 0.125513)
(0.124808 -9.94793e-05 0 0.112437 0 0.125221)
(0.124513 -0.000119354 0 0.111733 0 0.124934)
(0.124223 -0.000144581 0 0.111049 0 0.124654)
(0.123939 -0.000175483 0 0.110388 0 0.12438)
(0.123658 -0.000212311 0 0.109748 0 0.124111)
(0.12338 -0.000255195 0 0.10913 0 0.123847)
(0.123103 -0.000304101 0 0.108536 0 0.123588)
(0.122825 -0.000358762 0 0.107965 0 0.123332)
(0.122545 -0.000418617 0 0.107419 0 0.123079)
(0.12226 -0.000482715 0 0.1069 0 0.122829)
(0.121969 -0.000549842 0 0.106407 0 0.122581)
(0.121669 -0.000618445 0 0.105942 0 0.122333)
(0.121354 -0.000690489 0 0.105499 0 0.122081)
(0.132843 -3.80177e-05 0 0.1321 0 0.132849)
(0.132312 -7.36094e-05 0 0.130814 0 0.132333)
(0.131786 -0.00010052 0 0.129583 0 0.13183)
(0.13127 -0.000118882 0 0.1284 0 0.13134)
(0.130766 -0.00013019 0 0.127262 0 0.130864)
(0.130275 -0.000135764 0 0.126163 0 0.130401)
(0.129797 -0.000136707 0 0.125102 0 0.129952)
(0.129333 -0.000134144 0 0.124076 0 0.129516)
(0.128882 -0.000129142 0 0.123083 0 0.129092)
(0.128446 -0.000122602 0 0.122121 0 0.128681)
(0.128022 -0.00011529 0 0.121189 0 0.128282)
(0.127611 -0.000107882 0 0.120285 0 0.127894)
(0.127213 -0.000100984 0 0.119408 0 0.127517)
(0.126826 -9.51379e-05 0 0.118556 0 0.127151)
(0.126451 -9.08374e-05 0 0.11773 0 0.126795)
(0.126087 -8.8539e-05 0 0.116928 0 0.126448)
(0.125733 -8.86712e-05 0 0.11615 0 0.126111)
(0.125389 -9.16399e-05 0 0.115394 0 0.125783)
(0.125054 -9.78302e-05 0 0.11466 0 0.125463)
(0.124728 -0.000107606 0 0.113948 0 0.125152)
(0.12441 -0.000121307 0 0.113257 0 0.124848)
(0.124099 -0.000139236 0 0.112588 0 0.124552)
(0.123794 -0.000161648 0 0.111939 0 0.124262)
(0.123494 -0.00018873 0 0.111311 0 0.123979)
(0.123198 -0.000220571 0 0.110705 0 0.123702)
(0.122905 -0.000257131 0 0.110121 0 0.123431)
(0.122614 -0.000298198 0 0.109558 0 0.123164)
(0.122323 -0.000343343 0 0.109019 0 0.122902)
(0.122031 -0.00039187 0 0.108503 0 0.122645)
(0.121735 -0.000442766 0 0.108012 0 0.12239)
(0.121436 -0.00049483 0 0.107546 0 0.122139)
(0.12113 -0.000546636 0 0.107105 0 0.121889)
(0.120811 -0.000600002 0 0.106682 0 0.121637)
(0.132824 -3.39924e-05 0 0.132139 0 0.13283)
(0.132274 -6.64729e-05 0 0.130891 0 0.132293)
(0.131732 -9.20736e-05 0 0.129697 0 0.131771)
(0.131199 -0.000110625 0 0.12855 0 0.131262)
(0.130678 -0.000123116 0 0.127446 0 0.130767)
(0.130171 -0.000130576 0 0.126382 0 0.130287)
(0.129677 -0.000133914 0 0.125355 0 0.12982)
(0.129196 -0.00013406 0 0.124363 0 0.129367)
(0.12873 -0.000131916 0 0.123403 0 0.128927)
(0.128277 -0.000128271 0 0.122474 0 0.1285)
(0.127837 -0.000123809 0 0.121574 0 0.128085)
(0.12741 -0.000119139 0 0.120702 0 0.127681)
(0.126995 -0.000114807 0 0.119856 0 0.12729)
(0.126592 -0.000111308 0 0.119037 0 0.126909)
(0.126202 -0.000109091 0 0.118242 0 0.126539)
(0.125822 -0.000108567 0 0.117471 0 0.126179)
(0.125452 -0.00011012 0 0.116723 0 0.125829)
(0.125093 -0.000114102 0 0.115997 0 0.125488)
(0.124743 -0.000120841 0 0.115293 0 0.125157)
(0.124402 -0.000130632 0 0.114611 0 0.124834)
(0.124069 -0.000143732 0 0.11395 0 0.124519)
(0.123743 -0.000160352 0 0.113309 0 0.124213)
(0.123424 -0.000180637 0 0.112689 0 0.123914)
(0.12311 -0.000204655 0 0.11209 0 0.123621)
(0.1228 -0.000232367 0 0.111512 0 0.123336)
(0.122494 -0.000263602 0 0.110955 0 0.123056)
(0.12219 -0.000298024 0 0.11042 0 0.122782)
(0.121887 -0.000335097 0 0.109906 0 0.122514)
(0.121584 -0.000374064 0 0.109415 0 0.12225)
(0.12128 -0.000413912 0 0.108947 0 0.121991)
(0.120973 -0.000453509 0 0.108502 0 0.121735)
(0.120661 -0.000491576 0 0.10808 0 0.121482)
(0.12034 -0.000529798 0 0.107675 0 0.121228)
(0.132807 -3.04809e-05 0 0.132173 0 0.132812)
(0.132241 -6.00792e-05 0 0.13096 0 0.132258)
(0.131683 -8.41905e-05 0 0.129797 0 0.131718)
(0.131136 -0.000102508 0 0.128682 0 0.131193)
(0.130601 -0.000115672 0 0.127608 0 0.130683)
(0.13008 -0.000124471 0 0.126574 0 0.130187)
(0.129572 -0.000129652 0 0.125576 0 0.129706)
(0.129077 -0.000131986 0 0.124612 0 0.129238)
(0.128597 -0.000132232 0 0.123681 0 0.128783)
(0.12813 -0.000131078 0 0.122779 0 0.128342)
(0.127676 -0.000129128 0 0.121907 0 0.127913)
(0.127235 -0.000126923 0 0.121063 0 0.127497)
(0.126807 -0.000124951 0 0.120244 0 0.127092)
(0.126391 -0.000123654 0 0.119451 0 0.126699)
(0.125987 -0.000123432 0 0.118683 0 0.126316)
(0.125593 -0.000124648 0 0.117938 0 0.125945)
(0.125211 -0.000127634 0 0.117216 0 0.125583)
(0.124838 -0.000132689 0 0.116516 0 0.125231)
(0.124475 -0.000140079 0 0.115838 0 0.124889)
(0.124121 -0.000150031 0 0.11518 0 0.124556)
(0.123775 -0.000162726 0 0.114544 0 0.124231)
(0.123436 -0.00017829 0 0.113928 0 0.123915)
(0.123104 -0.000196775 0 0.113333 0 0.123607)
(0.122778 -0.000218152 0 0.112758 0 0.123306)
(0.122456 -0.000242281 0 0.112203 0 0.123012)
(0.122139 -0.000268896 0 0.111669 0 0.122725)
(0.121824 -0.000297579 0 0.111156 0 0.122444)
(0.121511 -0.00032774 0 0.110664 0 0.122168)
(0.121199 -0.000358608 0 0.110193 0 0.121898)
(0.120887 -0.000389214 0 0.109744 0 0.121634)
(0.120574 -0.000418523 0 0.109316 0 0.121373)
(0.120258 -0.000445405 0 0.108909 0 0.121117)
(0.119935 -0.000471441 0 0.108517 0 0.12086)
(0.132792 -2.73705e-05 0 0.132203 0 0.132797)
(0.132212 -5.42947e-05 0 0.13102 0 0.132227)
(0.13164 -7.68198e-05 0 0.129887 0 0.131672)
(0.13108 -9.45969e-05 0 0.128798 0 0.131133)
(0.130533 -0.000108029 0 0.127752 0 0.130608)
(0.129999 -0.000117713 0 0.126743 0 0.130099)
(0.129479 -0.000124257 0 0.125771 0 0.129604)
(0.128972 -0.000128297 0 0.124832 0 0.129124)
(0.12848 -0.000130475 0 0.123925 0 0.128657)
(0.128001 -0.000131382 0 0.123048 0 0.128203)
(0.127535 -0.000131549 0 0.1222 0 0.127762)
(0.127083 -0.000131452 0 0.121379 0 0.127334)
(0.126643 -0.000131524 0 0.120584 0 0.126918)
(0.126215 -0.000132155 0 0.119814 0 0.126514)
(0.125799 -0.000133693 0 0.119068 0 0.126121)
(0.125394 -0.000136455 0 0.118345 0 0.125739)
(0.125 -0.00014072 0 0.117645 0 0.125368)
(0.124616 -0.000146732 0 0.116967 0 0.125006)
(0.124242 -0.0001547 0 0.11631 0 0.124654)
(0.123876 -0.000164785 0 0.115674 0 0.124312)
(0.123519 -0.000177099 0 0.115059 0 0.123979)
(0.123169 -0.000191694 0 0.114464 0 0.123654)
(0.122826 -0.000208546 0 0.113889 0 0.123337)
(0.122489 -0.000227546 0 0.113334 0 0.123028)
(0.122157 -0.000248481 0 0.112799 0 0.122726)
(0.12183 -0.00027102 0 0.112284 0 0.122432)
(0.121506 -0.000294698 0 0.111789 0 0.122144)
(0.121185 -0.00031891 0 0.111314 0 0.121863)
(0.120865 -0.000342902 0 0.110859 0 0.121587)
(0.120547 -0.000365773 0 0.110425 0 0.121317)
(0.120229 -0.000386592 0 0.11001 0 0.121052)
(0.11991 -0.000404372 0 0.109614 0 0.120791)
(0.119586 -0.000420586 0 0.109232 0 0.120531)
(0.132779 -2.4574e-05 0 0.13223 0 0.132783)
(0.132185 -4.90055e-05 0 0.131074 0 0.132199)
(0.131602 -6.98987e-05 0 0.129967 0 0.131631)
(0.13103 -8.69153e-05 0 0.128903 0 0.131079)
(0.130471 -0.000100301 0 0.12788 0 0.130542)
(0.129927 -0.000110502 0 0.126895 0 0.130021)
(0.129396 -0.000118007 0 0.125945 0 0.129514)
(0.128878 -0.00012334 0 0.125028 0 0.129022)
(0.128375 -0.000127038 0 0.124143 0 0.128544)
(0.127886 -0.000129606 0 0.123287 0 0.12808)
(0.12741 -0.000131504 0 0.12246 0 0.127629)
(0.126947 -0.000133148 0 0.121659 0 0.127191)
(0.126497 -0.000134916 0 0.120884 0 0.126765)
(0.126059 -0.000137145 0 0.120134 0 0.126351)
(0.125633 -0.000140138 0 0.119408 0 0.125949)
(0.125218 -0.000144161 0 0.118704 0 0.125558)
(0.124814 -0.000149444 0 0.118023 0 0.125178)
(0.12442 -0.000156181 0 0.117364 0 0.124808)
(0.124036 -0.000164524 0 0.116726 0 0.124448)
(0.12366 -0.000174578 0 0.116108 0 0.124097)
(0.123294 -0.000186395 0 0.11551 0 0.123756)
(0.122934 -0.000199966 0 0.114933 0 0.123423)
(0.122582 -0.000215205 0 0.114375 0 0.123099)
(0.122236 -0.000231946 0 0.113837 0 0.122783)
(0.121896 -0.000249925 0 0.113318 0 0.122475)
(0.121561 -0.000268773 0 0.112819 0 0.122174)
(0.121229 -0.000288009 0 0.112339 0 0.12188)
(0.120901 -0.000307035 0 0.111878 0 0.121593)
(0.120576 -0.000325139 0 0.111436 0 0.121312)
(0.120253 -0.000341499 0 0.111013 0 0.121038)
(0.119932 -0.000355288 0 0.110609 0 0.120769)
(0.119611 -0.000365653 0 0.110222 0 0.120504)
(0.119286 -0.000373982 0 0.109847 0 0.120241)
(0.132767 -2.20222e-05 0 0.132254 0 0.132771)
(0.132162 -4.41138e-05 0 0.131123 0 0.132174)
(0.131567 -6.33591e-05 0 0.130038 0 0.131594)
(0.130985 -7.94571e-05 0 0.128997 0 0.13103)
(0.130416 -9.2553e-05 0 0.127995 0 0.130482)
(0.129861 -0.000102974 0 0.12703 0 0.12995)
(0.129321 -0.00011111 0 0.126101 0 0.129434)
(0.128794 -0.000117388 0 0.125204 0 0.128932)
(0.128281 -0.000122252 0 0.124338 0 0.128444)
(0.127783 -0.000126128 0 0.123501 0 0.12797)
(0.127297 -0.000129411 0 0.122692 0 0.12751)
(0.126825 -0.000132457 0 0.121909 0 0.127063)
(0.126366 -0.000135592 0 0.121152 0 0.126629)
(0.125919 -0.000139103 0 0.120419 0 0.126207)
(0.125484 -0.000143247 0 0.11971 0 0.125796)
(0.125061 -0.000148244 0 0.119024 0 0.125397)