/*--------------------------------*- C++ -*----------------------------------*\
| =========                 |                                                 |
| \\      /  F ield         | OpenFOAM: The Open Source CFD Toolbox           |
|  \\    /   O peration     | Version:  4.1                                   |
|   \\  /    A nd           | Web:      www.OpenFOAM.org                      |
|    \\/     M anipulation  |                                                 |
\*---------------------------------------------------------------------------*/
FoamFile
{
    version     2.0;
    format      ascii;
    class       volVectorField;
    location    "100";
    object      U;
}
// * * * * * * * * * * * * * * * * * * * * * * * * * * * * * * * * * * * * * //

dimensions      [0 1 -1 0 0 0 0];

internalField   nonuniform List<vector> 
6820
(
(7.28126 0.0192858 0)
(7.18905 0.0329994 0)
(7.0887 0.0362002 0)
(6.98337 0.0376616 0)
(6.87976 0.0389832 0)
(6.77942 0.0400659 0)
(6.68207 0.0408891 0)
(6.58796 0.041468 0)
(6.49751 0.0417778 0)
(6.4109 0.0417977 0)
(6.32811 0.0415359 0)
(6.24901 0.0410216 0)
(6.17349 0.040293 0)
(6.10135 0.0393903 0)
(6.0324 0.0383534 0)
(5.96643 0.0372206 0)
(5.9032 0.0360269 0)
(5.84246 0.0348046 0)
(5.78399 0.0335833 0)
(5.7275 0.0323908 0)
(5.67273 0.0312541 0)
(5.61937 0.0302008 0)
(5.5671 0.0292609 0)
(5.51554 0.028469 0)
(5.46424 0.0278676 0)
(5.41271 0.0275114 0)
(5.36029 0.0274736 0)
(5.30621 0.0278591 0)
(5.24941 0.0287974 0)
(5.18882 0.0305693 0)
(5.12162 0.0331598 0)
(5.05076 0.0378058 0)
(4.95952 0.0430212 0)
(7.35131 0.0207235 0)
(7.39591 0.0323985 0)
(7.42789 0.0328667 0)
(7.4498 0.0335333 0)
(7.46717 0.0348002 0)
(7.48073 0.0357022 0)
(7.48987 0.0362039 0)
(7.49473 0.0364779 0)
(7.49588 0.0365867 0)
(7.4938 0.0365537 0)
(7.48884 0.0364157 0)
(7.48138 0.0362142 0)
(7.47176 0.0359829 0)
(7.46031 0.0357471 0)
(7.44729 0.0355267 0)
(7.43295 0.035339 0)
(7.41748 0.0351993 0)
(7.40105 0.0351228 0)
(7.3838 0.0351253 0)
(7.36582 0.0352253 0)
(7.3472 0.0354453 0)
(7.32799 0.0358134 0)
(7.30821 0.0363664 0)
(7.28786 0.0371524 0)
(7.26691 0.0382361 0)
(7.24529 0.0397052 0)
(7.22292 0.0416813 0)
(7.19965 0.044335 0)
(7.17531 0.0478955 0)
(7.14959 0.0527836 0)
(7.12232 0.0591253 0)
(7.09184 0.0686915 0)
(7.06151 0.0793461 0)
(7.33497 0.0125485 0)
(7.34465 0.0203038 0)
(7.35147 0.0217059 0)
(7.3543 0.0236906 0)
(7.35625 0.0257306 0)
(7.35823 0.0270256 0)
(7.35985 0.0278163 0)
(7.36101 0.0284228 0)
(7.36188 0.0289485 0)
(7.36249 0.0294146 0)
(7.36281 0.0298426 0)
(7.36279 0.0302545 0)
(7.3624 0.0306642 0)
(7.36162 0.0310794 0)
(7.36042 0.0315075 0)
(7.35877 0.0319571 0)
(7.35665 0.0324392 0)
(7.35405 0.0329672 0)
(7.35094 0.033558 0)
(7.34729 0.034233 0)
(7.34308 0.0350193 0)
(7.33828 0.0359515 0)
(7.33286 0.0370738 0)
(7.32677 0.0384436 0)
(7.31995 0.0401364 0)
(7.31236 0.0422519 0)
(7.30391 0.0449262 0)
(7.29453 0.0483393 0)
(7.28414 0.0527551 0)
(7.27266 0.0585136 0)
(7.26001 0.0661243 0)
(7.24606 0.0763286 0)
(7.23186 0.0906983 0)
(7.33468 0.0099309 0)
(7.34292 0.0204655 0)
(7.3501 0.0251213 0)
(7.35397 0.0286156 0)
(7.35662 0.0315125 0)
(7.35905 0.0336054 0)
(7.36103 0.035148 0)
(7.36245 0.0363905 0)
(7.36347 0.0374051 0)
(7.36418 0.0382058 0)
(7.36459 0.038821 0)
(7.3647 0.0392896 0)
(7.36453 0.0396484 0)
(7.36408 0.0399303 0)
(7.36336 0.0401667 0)
(7.36234 0.0403888 0)
(7.36103 0.0406269 0)
(7.3594 0.0409113 0)
(7.35742 0.0412732 0)
(7.35509 0.0417463 0)
(7.35235 0.0423687 0)
(7.34917 0.0431844 0)
(7.34551 0.044247 0)
(7.34132 0.0456226 0)
(7.33652 0.0473949 0)
(7.33106 0.0496721 0)
(7.32485 0.0525961 0)
(7.31782 0.0563538 0)
(7.30988 0.0611963 0)
(7.30097 0.0674701 0)
(7.29109 0.0755988 0)
(7.28025 0.0863449 0)
(7.26918 0.100548 0)
(7.33416 0.00794384 0)
(7.34038 0.0175776 0)
(7.34677 0.0217365 0)
(7.35103 0.0244405 0)
(7.35435 0.0267691 0)
(7.35752 0.0285365 0)
(7.36034 0.0298257 0)
(7.36269 0.0308367 0)
(7.36466 0.0316647 0)
(7.36634 0.0323485 0)
(7.36773 0.0329284 0)
(7.36883 0.0334469 0)
(7.36965 0.0339386 0)
(7.3702 0.0344307 0)
(7.37046 0.0349468 0)
(7.37044 0.0355093 0)
(7.37012 0.0361403 0)
(7.36949 0.0368632 0)
(7.36853 0.0377036 0)
(7.36722 0.0386917 0)
(7.36554 0.0398633 0)
(7.36344 0.0412627 0)
(7.36091 0.0429446 0)
(7.35789 0.0449782 0)
(7.35435 0.0474514 0)
(7.35023 0.0504768 0)
(7.34549 0.0541995 0)
(7.34009 0.0588069 0)
(7.334 0.0645427 0)
(7.32723 0.0717266 0)
(7.31988 0.0807435 0)
(7.31208 0.0921846 0)
(7.30457 0.106523 0)
(7.3338 0.00642564 0)
(7.3385 0.0154094 0)
(7.34408 0.0202743 0)
(7.34837 0.0237631 0)
(7.35184 0.0267771 0)
(7.35511 0.0291525 0)
(7.35808 0.0309645 0)
(7.36065 0.0324305 0)
(7.36287 0.0336676 0)
(7.36482 0.0347221 0)
(7.36651 0.0356321 0)
(7.36793 0.0364373 0)
(7.36909 0.0371716 0)
(7.36999 0.037864 0)
(7.37062 0.0385423 0)
(7.37099 0.0392345 0)
(7.37109 0.0399697 0)
(7.37091 0.0407786 0)
(7.37042 0.0416951 0)
(7.36962 0.042757 0)
(7.36849 0.0440082 0)
(7.367 0.0455003 0)
(7.36513 0.0472951 0)
(7.36285 0.0494679 0)
(7.36013 0.0521114 0)
(7.35696 0.0553405 0)
(7.35331 0.0592986 0)
(7.34918 0.0641644 0)
(7.34461 0.0701599 0)
(7.33966 0.0775635 0)
(7.33451 0.086686 0)
(7.32936 0.0979724 0)
(7.32496 0.111663 0)
(7.33355 0.00533235 0)
(7.33711 0.0135742 0)
(7.34182 0.0185601 0)
(7.34581 0.0220186 0)
(7.34915 0.0248253 0)
(7.3523 0.0270002 0)
(7.35522 0.0286468 0)
(7.35781 0.029964 0)
(7.3601 0.0310656 0)
(7.36214 0.0320015 0)
(7.36393 0.0328141 0)
(7.36548 0.0335473 0)
(7.36679 0.0342393 0)
(7.36787 0.0349229 0)
(7.3687 0.0356284 0)
(7.36929 0.0363854 0)
(7.36963 0.0372236 0)
(7.36971 0.0381739 0)
(7.36953 0.0392696 0)
(7.36906 0.0405482 0)
(7.3683 0.0420528 0)
(7.36723 0.0438344 0)
(7.36583 0.0459535 0)
(7.36409 0.0484835 0)
(7.362 0.0515137 0)
(7.35955 0.0551527 0)
(7.35676 0.0595328 0)
(7.35366 0.064814 0)
(7.35032 0.0711866 0)
(7.34684 0.0788779 0)
(7.34345 0.0881195 0)
(7.34038 0.0992297 0)
(7.3383 0.112262 0)
(7.3334 0.00451541 0)
(7.33611 0.0119999 0)
(7.34007 0.0169991 0)
(7.34375 0.0205946 0)
(7.34697 0.0235608 0)
(7.35002 0.025977 0)
(7.3529 0.0279071 0)
(7.35549 0.0295043 0)
(7.35781 0.0308743 0)
(7.3599 0.0320707 0)
(7.36176 0.0331373 0)
(7.36339 0.0341168 0)
(7.36479 0.0350463 0)
(7.36598 0.0359579 0)
(7.36693 0.0368814 0)
(7.36766 0.0378466 0)
(7.36816 0.0388839 0)
(7.36842 0.0400255 0)
(7.36844 0.0413068 0)
(7.36821 0.0427673 0)
(7.36771 0.0444523 0)
(7.36695 0.0464143 0)
(7.36592 0.0487151 0)
(7.36461 0.0514274 0)
(7.36304 0.0546375 0)
(7.36121 0.0584473 0)
(7.35916 0.0629766 0)
(7.35694 0.0683647 0)
(7.35465 0.0747689 0)
(7.35242 0.0823659 0)
(7.35049 0.091316 0)
(7.34909 0.101836 0)
(7.34879 0.113855 0)
(7.33329 0.0038943 0)
(7.33539 0.0106795 0)
(7.33872 0.0155829 0)
(7.34205 0.0192086 0)
(7.34508 0.022168 0)
(7.34796 0.0245775 0)
(7.35071 0.0265016 0)
(7.35323 0.0280797 0)
(7.35551 0.0294218 0)
(7.35759 0.0305899 0)
(7.35946 0.0316314 0)
(7.36112 0.0325909 0)
(7.36257 0.0335082 0)
(7.36382 0.0344177 0)
(7.36487 0.0353521 0)
(7.36571 0.0363434 0)
(7.36634 0.0374241 0)
(7.36676 0.0386281 0)
(7.36696 0.0399917 0)
(7.36695 0.0415551 0)
(7.36672 0.0433634 0)
(7.36626 0.0454677 0)
(7.36559 0.0479272 0)
(7.36471 0.05081 0)
(7.36363 0.0541948 0)
(7.3624 0.058172 0)
(7.36105 0.0628443 0)
(7.35967 0.0683262 0)
(7.35835 0.0747396 0)
(7.35725 0.0822121 0)
(7.35658 0.0908423 0)
(7.35658 0.100767 0)
(7.35773 0.111834 0)
(7.33323 0.00341131 0)
(7.33488 0.00956292 0)
(7.33767 0.0142903 0)
(7.34067 0.0178975 0)
(7.34349 0.0208578 0)
(7.34622 0.0233151 0)
(7.34885 0.025336 0)
(7.3513 0.0270358 0)
(7.35356 0.028513 0)
(7.35563 0.0298269 0)
(7.35751 0.0310224 0)
(7.35921 0.0321417 0)
(7.36072 0.0332231 0)
(7.36204 0.0343002 0)
(7.36317 0.0354048 0)
(7.36411 0.0365681 0)
(7.36486 0.0378219 0)
(7.36543 0.0391993 0)
(7.36581 0.040736 0)
(7.36599 0.0424711 0)
(7.366 0.0444481 0)
(7.36583 0.0467161 0)
(7.36549 0.0493302 0)
(7.365 0.0523532 0)
(7.3644 0.0558553 0)
(7.36371 0.0599147 0)
(7.36301 0.0646168 0)
(7.36237 0.0700517 0)
(7.3619 0.0763093 0)
(7.36177 0.083475 0)
(7.36216 0.0915992 0)
(7.36329 0.10076 0)
(7.36555 0.11076 0)
(7.33318 0.00302593 0)
(7.3345 0.00861361 0)
(7.33686 0.0131212 0)
(7.33954 0.0166699 0)
(7.34216 0.0196044 0)
(7.34472 0.0220664 0)
(7.34722 0.0241182 0)
(7.34958 0.0258543 0)
(7.35178 0.0273641 0)
(7.35382 0.0287082 0)
(7.35569 0.0299332 0)
(7.35739 0.0310818 0)
(7.35892 0.0321932 0)
(7.36029 0.0333022 0)
(7.36148 0.0344418 0)
(7.36251 0.035644 0)
(7.36338 0.0369416 0)
(7.36407 0.0383683 0)
(7.36461 0.0399596 0)
(7.36499 0.0417543 0)
(7.36523 0.0437942 0)
(7.36533 0.0461256 0)
(7.36532 0.0487994 0)
(7.36522 0.0518715 0)
(7.36506 0.0554026 0)
(7.3649 0.0594579 0)
(7.36479 0.0641046 0)
(7.36484 0.0694098 0)
(7.36515 0.0754338 0)
(7.36586 0.0822272 0)
(7.36715 0.0898027 0)
(7.36921 0.0981969 0)
(7.37235 0.107185 0)
(7.33315 0.00271077 0)
(7.33423 0.00779954 0)
(7.33623 0.0120632 0)
(7.33862 0.0155184 0)
(7.34104 0.0184059 0)
(7.34345 0.0208567 0)
(7.34581 0.0229334 0)
(7.34809 0.0247167 0)
(7.35024 0.0262876 0)
(7.35224 0.0277048 0)
(7.35411 0.0290137 0)
(7.35583 0.0302553 0)
(7.3574 0.0314669 0)
(7.35882 0.0326825 0)
(7.36009 0.0339337 0)
(7.36121 0.0352518 0)
(7.36219 0.036668 0)
(7.36302 0.0382145 0)
(7.36373 0.0399252 0)
(7.36431 0.041836 0)
(7.36478 0.0439855 0)
(7.36515 0.0464153 0)
(7.36546 0.0491705 0)
(7.36572 0.0522988 0)
(7.36599 0.0558507 0)
(7.36631 0.0598775 0)
(7.36676 0.0644296 0)
(7.36742 0.0695526 0)
(7.3684 0.0752824 0)
(7.36983 0.081642 0)
(7.37186 0.0886171 0)
(7.37464 0.0962146 0)
(7.37844 0.1042 0)
(7.33313 0.00244693 0)
(7.33402 0.00709385 0)
(7.33574 0.0111042 0)
(7.33788 0.0144402 0)
(7.34011 0.0172634 0)
(7.34236 0.0196863 0)
(7.34461 0.0217681 0)
(7.34679 0.0235763 0)
(7.34888 0.0251811 0)
(7.35085 0.0266376 0)
(7.3527 0.0279893 0)
(7.35443 0.0292755 0)
(7.35602 0.0305327 0)
(7.35749 0.0317941 0)
(7.35882 0.0330912 0)
(7.36003 0.0344546 0)
(7.36111 0.035915 0)
(7.36208 0.0375035 0)
(7.36295 0.0392525 0)
(7.36371 0.0411958 0)
(7.36441 0.0433689 0)
(7.36504 0.0458092 0)
(7.36565 0.0485558 0)
(7.36626 0.0516491 0)
(7.36692 0.0551294 0)
(7.36769 0.0590356 0)
(7.36863 0.0634027 0)
(7.36983 0.0682587 0)
(7.3714 0.0736197 0)
(7.37343 0.0794875 0)
(7.37606 0.0858286 0)
(7.37942 0.0926303 0)
(7.38372 0.0996574 0)
(7.33312 0.00222124 0)
(7.33387 0.00647482 0)
(7.33535 0.0102314 0)
(7.33727 0.0134295 0)
(7.33933 0.0161723 0)
(7.34144 0.0185519 0)
(7.34357 0.020623 0)
(7.34567 0.0224432 0)
(7.3477 0.024074 0)
(7.34964 0.025567 0)
(7.35149 0.0269642 0)
(7.35322 0.0283031 0)
(7.35485 0.0296187 0)
(7.35636 0.030943 0)
(7.35777 0.0323062 0)
(7.35907 0.0337376 0)
(7.36026 0.035266 0)
(7.36137 0.0369206 0)
(7.3624 0.0387311 0)
(7.36336 0.0407279 0)
(7.36428 0.0429425 0)
(7.36517 0.0454069 0)
(7.36606 0.0481536 0)
(7.36701 0.0512144 0)
(7.36804 0.0546199 0)
(7.36922 0.0583969 0)
(7.37061 0.0625669 0)
(7.37229 0.0671427 0)
(7.37434 0.0721246 0)
(7.37687 0.0774984 0)
(7.37999 0.0832176 0)
(7.38378 0.0892575 0)
(7.38841 0.0953895 0)
(7.3331 0.00202438 0)
(7.33375 0.00592491 0)
(7.33505 0.00943278 0)
(7.33677 0.0124797 0)
(7.33868 0.0151284 0)
(7.34066 0.0174514 0)
(7.34269 0.0194973 0)
(7.34471 0.0213156 0)
(7.34669 0.0229591 0)
(7.3486 0.0244747 0)
(7.35043 0.0259015 0)
(7.35218 0.0272748 0)
(7.35383 0.0286272 0)
(7.3554 0.029989 0)
(7.35687 0.031389 0)
(7.35826 0.0328547 0)
(7.35957 0.0344132 0)
(7.36081 0.0360915 0)
(7.36199 0.0379166 0)
(7.36314 0.0399158 0)
(7.36426 0.0421164 0)
(7.36539 0.0445453 0)
(7.36656 0.047229 0)
(7.36781 0.0501917 0)
(7.36918 0.0534552 0)
(7.37072 0.0570363 0)
(7.3725 0.0609453 0)
(7.37458 0.0651833 0)
(7.37705 0.0697386 0)
(7.37998 0.074586 0)
(7.38346 0.0796718 0)
(7.38757 0.0849651 0)
(7.39243 0.0902487 0)
(7.3331 0.00184955 0)
(7.33366 0.00543005 0)
(7.3348 0.00869669 0)
(7.33637 0.0115837 0)
(7.33813 0.0141267 0)
(7.34 0.0163807 0)
(7.34194 0.0183881 0)
(7.34389 0.020191 0)
(7.34582 0.021835 0)
(7.34771 0.0233622 0)
(7.34953 0.0248088 0)
(7.35129 0.0262079 0)
(7.35298 0.02759 0)
(7.3546 0.0289838 0)
(7.35615 0.030416 0)
(7.35762 0.0319125 0)
(7.35905 0.0334981 0)
(7.36042 0.0351974 0)
(7.36176 0.0370343 0)
(7.36309 0.0390324 0)
(7.36442 0.0412147 0)
(7.36578 0.0436028 0)
(7.36721 0.0462168 0)
(7.36873 0.049074 0)
(7.37041 0.0521879 0)
(7.37227 0.0555667 0)
(7.37439 0.0592112 0)
(7.37682 0.063113 0)
(7.37962 0.0672514 0)
(7.38287 0.0715943 0)
(7.38662 0.0760849 0)
(7.39095 0.0806898 0)
(7.39594 0.0852053 0)
(7.33309 0.00169172 0)
(7.33358 0.00497885 0)
(7.33461 0.00801259 0)
(7.33604 0.010734 0)
(7.33769 0.0131614 0)
(7.33945 0.0153355 0)
(7.34131 0.017292 0)
(7.34319 0.0190669 0)
(7.34508 0.0206992 0)
(7.34695 0.022226 0)
(7.34877 0.0236807 0)
(7.35055 0.0250932 0)
(7.35228 0.0264917 0)
(7.35395 0.0279026 0)
(7.35557 0.0293504 0)
(7.35714 0.0308586 0)
(7.35867 0.0324497 0)
(7.36017 0.0341454 0)
(7.36166 0.0359664 0)
(7.36316 0.0379327 0)
(7.36468 0.0400628 0)
(7.36626 0.0423736 0)
(7.36792 0.0448795 0)
(7.3697 0.0475915 0)
(7.37164 0.0505164 0)
(7.37378 0.0536552 0)
(7.37618 0.0570013 0)
(7.37888 0.0605396 0)
(7.38195 0.064244 0)
(7.38543 0.0680787 0)
(7.38937 0.0719869 0)
(7.39384 0.0759356 0)
(7.39887 0.0797357 0)
(7.33309 0.00154701 0)
(7.33353 0.00456203 0)
(7.33446 0.00737089 0)
(7.33577 0.00992313 0)
(7.33732 0.0122266 0)
(7.339 0.0143106 0)
(7.34078 0.0162047 0)
(7.34261 0.0179394 0)
(7.34447 0.019548 0)
(7.34632 0.0210628 0)
(7.34815 0.0225138 0)
(7.34995 0.0239282 0)
(7.35171 0.0253317 0)
(7.35343 0.026748 0)
(7.35513 0.0281997 0)
(7.35679 0.0297077 0)
(7.35843 0.0312921 0)
(7.36006 0.0329717 0)
(7.36169 0.0347641 0)
(7.36335 0.0366854 0)
(7.36505 0.0387503 0)
(7.36683 0.0409708 0)
(7.3687 0.0433563 0)
(7.37071 0.0459125 0)
(7.37288 0.0486403 0)
(7.37526 0.0515348 0)
(7.3779 0.054584 0)
(7.38082 0.057768 0)
(7.38409 0.0610578 0)
(7.38774 0.0644159 0)
(7.3918 0.0677877 0)
(7.39633 0.0711416 0)
(7.40134 0.0743029 0)
(7.33308 0.00141237 0)
(7.33348 0.00417192 0)
(7.33434 0.0067629 0)
(7.33556 0.00914355 0)
(7.33702 0.0113157 0)
(7.33862 0.0133004 0)
(7.34034 0.0151215 0)
(7.34213 0.0168044 0)
(7.34396 0.0183775 0)
(7.3458 0.0198687 0)
(7.34764 0.0213044 0)
(7.34946 0.0227088 0)
(7.35126 0.024105 0)
(7.35305 0.025514 0)
(7.35481 0.026956 0)
(7.35656 0.0284493 0)
(7.35831 0.0300112 0)
(7.36006 0.0316574 0)
(7.36183 0.0334025 0)
(7.36364 0.0352591 0)
(7.36551 0.0372377 0)
(7.36746 0.0393463 0)
(7.36952 0.0415899 0)
(7.37172 0.0439695 0)
(7.37409 0.0464813 0)
(7.37667 0.0491161 0)
(7.37949 0.0518581 0)
(7.38259 0.0546849 0)
(7.386 0.057566 0)
(7.38975 0.0604645 0)
(7.39388 0.0633284 0)
(7.3984 0.0661292 0)
(7.40333 0.0687068 0)
(7.33308 0.00128529 0)
(7.33345 0.00380199 0)
(7.33424 0.00618069 0)
(7.33539 0.00838786 0)
(7.33678 0.0104224 0)
(7.33832 0.0122991 0)
(7.33999 0.014037 0)
(7.34174 0.0156572 0)
(7.34355 0.0171834 0)
(7.34539 0.0186395 0)
(7.34724 0.0200482 0)
(7.34909 0.021431 0)
(7.35094 0.0228079 0)
(7.35278 0.0241975 0)
(7.35461 0.0256172 0)
(7.35645 0.0270828 0)
(7.3583 0.0286088 0)
(7.36016 0.0302081 0)
(7.36206 0.0318922 0)
(7.36401 0.0336704 0)
(7.36603 0.0355498 0)
(7.36814 0.0375346 0)
(7.37036 0.0396261 0)
(7.37273 0.0418215 0)
(7.37527 0.0441135 0)
(7.37801 0.0464898 0)
(7.38097 0.0489325 0)
(7.38419 0.0514177 0)
(7.38769 0.0539149 0)
(7.3915 0.0563886 0)
(7.39563 0.0587907 0)
(7.40011 0.0610957 0)
(7.40492 0.0631586 0)
(7.33308 0.00116367 0)
(7.33342 0.00344664 0)
(7.33417 0.00561702 0)
(7.33526 0.00764879 0)
(7.33659 0.00953977 0)
(7.33808 0.0113004 0)
(7.33971 0.0129455 0)
(7.34144 0.0144924 0)
(7.34324 0.0159607 0)
(7.34508 0.0173704 0)
(7.34694 0.0187408 0)
(7.34882 0.0200905 0)
(7.35072 0.0214364 0)
(7.35261 0.0227945 0)
(7.35452 0.0241795 0)
(7.35644 0.0256047 0)
(7.35838 0.0270818 0)
(7.36036 0.0286209 0)
(7.36237 0.0302305 0)
(7.36445 0.0319169 0)
(7.3666 0.0336839 0)
(7.36885 0.0355329 0)
(7.37121 0.0374617 0)
(7.37372 0.0394646 0)
(7.37639 0.041532 0)
(7.37925 0.0436493 0)
(7.38232 0.0457977 0)
(7.38562 0.0479529 0)
(7.38917 0.0500853 0)
(7.39299 0.0521617 0)
(7.39708 0.0541384 0)
(7.40147 0.0559939 0)
(7.40614 0.0575973 0)
(7.33308 0.00104567 0)
(7.3334 0.00310084 0)
(7.33411 0.0050651 0)
(7.33516 0.00691915 0)
(7.33644 0.00866086 0)
(7.3379 0.0102976 0)
(7.33951 0.0118409 0)
(7.34122 0.0133045 0)
(7.34301 0.0147044 0)
(7.34486 0.0160569 0)
(7.34674 0.0173782 0)
(7.34866 0.0186835 0)
(7.35059 0.0199872 0)
(7.35255 0.0213025 0)
(7.35453 0.0226415 0)
(7.35653 0.0240147 0)
(7.35856 0.0254312 0)
(7.36063 0.0268988 0)
(7.36275 0.0284229 0)
(7.36494 0.0300073 0)
(7.36721 0.0316531 0)
(7.36958 0.0333591 0)
(7.37206 0.0351206 0)
(7.37468 0.0369299 0)
(7.37745 0.0387754 0)
(7.3804 0.040642 0)
(7.38353 0.04251 0)
(7.38687 0.0443561 0)
(7.39044 0.0461522 0)
(7.39423 0.0478681 0)
(7.39826 0.049465 0)
(7.40253 0.0509252 0)
(7.40702 0.0521309 0)
(7.33307 0.000929604 0)
(7.33339 0.00275998 0)
(7.33407 0.00451847 0)
(7.33509 0.00619173 0)
(7.33634 0.00777834 0)
(7.33778 0.00928365 0)
(7.33936 0.0107162 0)
(7.34107 0.0120869 0)
(7.34286 0.0134082 0)
(7.34472 0.0146931 0)
(7.34663 0.0159546 0)
(7.34858 0.017205 0)
(7.35057 0.0184558 0)
(7.35258 0.0197175 0)
(7.35462 0.0209996 0)
(7.3567 0.0223101 0)
(7.35881 0.0236558 0)
(7.36097 0.0250416 0)
(7.36319 0.0264708 0)
(7.36548 0.0279446 0)
(7.36785 0.029462 0)
(7.37031 0.0310194 0)
(7.37289 0.0326104 0)
(7.3756 0.0342259 0)
(7.37844 0.0358533 0)
(7.38145 0.0374769 0)
(7.38462 0.0390776 0)
(7.38797 0.0406331 0)
(7.39152 0.0421177 0)
(7.39525 0.0435046 0)
(7.39918 0.0447595 0)
(7.40332 0.0458688 0)
(7.40761 0.0467266 0)
(7.33307 0.000813799 0)
(7.33338 0.0024196 0)
(7.33405 0.0039709 0)
(7.33504 0.00545955 0)
(7.33628 0.00688521 0)
(7.3377 0.00825177 0)
(7.33928 0.00956542 0)
(7.34099 0.0108342 0)
(7.34279 0.0120675 0)
(7.34467 0.0132751 0)
(7.34661 0.014467 0)
(7.3486 0.0156526 0)
(7.35063 0.0168406 0)
(7.3527 0.018039 0)
(7.3548 0.0192547 0)
(7.35695 0.0204934 0)
(7.35914 0.0217595 0)
(7.36138 0.0230557 0)
(7.36368 0.0243832 0)
(7.36605 0.0257412 0)
(7.36851 0.0271267 0)
(7.37105 0.0285347 0)
(7.3737 0.0299575 0)
(7.37647 0.031385 0)
(7.37936 0.0328044 0)
(7.3824 0.0341999 0)
(7.38558 0.0355536 0)
(7.38892 0.0368446 0)
(7.39241 0.0380502 0)
(7.39607 0.0391465 0)
(7.39988 0.0401041 0)
(7.40386 0.0409125 0)
(7.40795 0.0414769 0)
(7.33307 0.000696571 0)
(7.33338 0.00207503 0)
(7.33403 0.00341541 0)
(7.33502 0.00471421 0)
(7.33625 0.00597231 0)
(7.33767 0.00719255 0)
(7.33925 0.00837903 0)
(7.34097 0.00953716 0)
(7.34279 0.0106734 0)
(7.34469 0.0117947 0)
(7.34666 0.0129078 0)
(7.34869 0.0140194 0)
(7.35077 0.0151356 0)
(7.35289 0.0162618 0)
(7.35506 0.0174024 0)
(7.35727 0.0185608 0)
(7.35953 0.0197394 0)
(7.36184 0.0209387 0)
(7.36422 0.0221582 0)
(7.36666 0.0233951 0)
(7.36918 0.0246453 0)
(7.37179 0.0259023 0)
(7.37449 0.0271576 0)
(7.3773 0.0284008 0)
(7.38022 0.029619 0)
(7.38327 0.0307973 0)
(7.38643 0.0319188 0)
(7.38973 0.0329648 0)
(7.39316 0.0339151 0)
(7.39672 0.0347491 0)
(7.4004 0.0354415 0)
(7.40421 0.0359852 0)
(7.4081 0.0362955 0)
(7.33308 0.000576806 0)
(7.33338 0.00172338 0)
(7.33404 0.00284796 0)
(7.33503 0.0039512 0)
(7.33626 0.00503524 0)
(7.33769 0.00610204 0)
(7.33928 0.00715374 0)
(7.34101 0.00819327 0)
(7.34286 0.00922432 0)
(7.34479 0.0102509 0)
(7.3468 0.011277 0)
(7.34887 0.0123065 0)
(7.35099 0.013343 0)
(7.35316 0.0143896 0)
(7.35539 0.0154485 0)
(7.35766 0.0165211 0)
(7.35998 0.0176077 0)
(7.36235 0.0187074 0)
(7.36479 0.0198178 0)
(7.36729 0.020935 0)
(7.36986 0.0220537 0)
(7.37251 0.0231666 0)
(7.37525 0.0242649 0)
(7.37808 0.025338 0)
(7.38101 0.0263734 0)
(7.38404 0.0273573 0)
(7.38717 0.0282742 0)
(7.39041 0.0291076 0)
(7.39376 0.0298395 0)
(7.39721 0.0304526 0)
(7.40074 0.0309254 0)
(7.40438 0.0312529 0)
(7.40805 0.0313602 0)
(7.33308 0.000453051 0)
(7.33338 0.00135973 0)
(7.33404 0.00226065 0)
(7.33505 0.00316064 0)
(7.3363 0.00406302 0)
(7.33774 0.00496884 0)
(7.33936 0.00587821 0)
(7.34111 0.00679161 0)
(7.34299 0.00770995 0)
(7.34495 0.00863433 0)
(7.347 0.00956589 0)
(7.34911 0.0105058 0)
(7.35128 0.0114551 0)
(7.35351 0.0124145 0)
(7.35578 0.013384 0)
(7.35811 0.0143631 0)
(7.36048 0.0153503 0)
(7.36291 0.0163432 0)
(7.3654 0.0173381 0)
(7.36795 0.01833 0)
(7.37056 0.0193129 0)
(7.37324 0.020279 0)
(7.376 0.0212195 0)
(7.37884 0.0221239 0)
(7.38176 0.0229806 0)
(7.38476 0.0237769 0)
(7.38785 0.024499 0)
(7.39102 0.0251323 0)
(7.39427 0.0256618 0)
(7.3976 0.0260726 0)
(7.40099 0.0263469 0)
(7.40445 0.0264822 0)
(7.40792 0.0264125 0)
(7.33308 0.000323716 0)
(7.33339 0.000978984 0)
(7.33407 0.00164543 0)
(7.33509 0.00233255 0)
(7.33637 0.00304476 0)
(7.33784 0.00378178 0)
(7.33949 0.00454149 0)
(7.34128 0.00532178 0)
(7.34319 0.00612077 0)
(7.3452 0.00693677 0)
(7.34729 0.00776825 0)
(7.34944 0.00861393 0)
(7.35166 0.00947256 0)
(7.35393 0.0103428 0)
(7.35625 0.0112228 0)
(7.35863 0.0121103 0)
(7.36105 0.0130024 0)
(7.36352 0.0138953 0)
(7.36604 0.0147843 0)
(7.36862 0.0156637 0)
(7.37126 0.0165266 0)
(7.37396 0.0173653 0)
(7.37672 0.0181709 0)
(7.37955 0.0189334 0)
(7.38244 0.019642 0)
(7.3854 0.0202852 0)
(7.38843 0.0208507 0)
(7.39152 0.0213259 0)
(7.39466 0.021698 0)
(7.39786 0.0219548 0)
(7.40109 0.0220814 0)
(7.40438 0.0220769 0)
(7.40765 0.0218826 0)
(7.33308 0.000186978 0)
(7.3334 0.00057635 0)
(7.33411 0.000995538 0)
(7.33517 0.00145936 0)
(7.33648 0.00197298 0)
(7.338 0.00253413 0)
(7.33969 0.00313789 0)
(7.34152 0.00377919 0)
(7.34348 0.00445293 0)
(7.34553 0.00515412 0)
(7.34767 0.00587814 0)
(7.34987 0.00662098 0)
(7.35214 0.00737902 0)
(7.35446 0.00814879 0)
(7.35683 0.00892678 0)
(7.35924 0.00970922 0)
(7.36171 0.010492 0)
(7.36422 0.0112702 0)
(7.36678 0.0120387 0)
(7.36938 0.012791 0)
(7.37204 0.0135204 0)
(7.37475 0.0142191 0)
(7.37751 0.0148786 0)
(7.38032 0.0154896 0)
(7.38318 0.0160425 0)
(7.38609 0.0165269 0)
(7.38905 0.0169323 0)
(7.39205 0.017248 0)
(7.39509 0.0174634 0)
(7.39816 0.0175687 0)
(7.40125 0.0175521 0)
(7.40437 0.0174142 0)
(7.40744 0.0171039 0)
(7.33308 3.97413e-05 0)
(7.33342 0.000143241 0)
(7.33417 0.000298408 0)
(7.33528 0.000526355 0)
(7.33665 0.000832124 0)
(7.33822 0.00121019 0)
(7.33997 0.00165237 0)
(7.34186 0.00215077 0)
(7.34387 0.0026975 0)
(7.34597 0.00328466 0)
(7.34815 0.00390494 0)
(7.3504 0.00455187 0)
(7.35271 0.00521959 0)
(7.35507 0.00590261 0)
(7.35748 0.00659565 0)
(7.35993 0.00729339 0)
(7.36242 0.00799042 0)
(7.36496 0.00868096 0)
(7.36754 0.00935889 0)
(7.37016 0.0100175 0)
(7.37282 0.0106498 0)
(7.37552 0.011248 0)
(7.37826 0.0118039 0)
(7.38103 0.0123092 0)
(7.38385 0.0127548 0)
(7.3867 0.0131319 0)
(7.38958 0.0134311 0)
(7.39248 0.0136435 0)
(7.39541 0.0137603 0)
(7.39835 0.0137734 0)
(7.40128 0.0136731 0)
(7.40423 0.0134611 0)
(7.40713 0.0130922 0)
(7.33308 -0.000121896 0)
(7.33345 -0.000330945 0)
(7.33426 -0.00046066 0)
(7.33544 -0.000482321 0)
(7.33689 -0.000392823 0)
(7.33853 -0.000203726 0)
(7.34035 7.12478e-05 0)
(7.34231 0.000419462 0)
(7.34438 0.000828538 0)
(7.34655 0.00128667 0)
(7.34879 0.00178357 0)
(7.35109 0.00231055 0)
(7.35345 0.00286006 0)
(7.35586 0.00342529 0)
(7.35831 0.00399989 0)
(7.3608 0.00457782 0)
(7.36333 0.00515304 0)
(7.3659 0.00571946 0)
(7.3685 0.00627071 0)
(7.37113 0.00680018 0)
(7.37379 0.00730091 0)
(7.37648 0.00776568 0)
(7.37921 0.00818695 0)
(7.38195 0.00855706 0)
(7.38472 0.00886816 0)
(7.38751 0.00911248 0)
(7.39032 0.00928228 0)
(7.39313 0.00937017 0)
(7.39595 0.00936892 0)
(7.39876 0.00927242 0)
(7.40156 0.00907305 0)
(7.40435 0.00877365 0)
(7.40707 0.00833527 0)
(7.33308 -0.000303405 0)
(7.3335 -0.000861054 0)
(7.33438 -0.00130203 0)
(7.33566 -0.00158894 0)
(7.33721 -0.00172368 0)
(7.33895 -0.00172517 0)
(7.34085 -0.00161119 0)
(7.34288 -0.00139771 0)
(7.34502 -0.0011017 0)
(7.34724 -0.000739911 0)
(7.34953 -0.000326836 0)
(7.35188 0.000125434 0)
(7.35428 0.000606494 0)
(7.35672 0.00110718 0)
(7.3592 0.00161931 0)
(7.36171 0.00213545 0)
(7.36426 0.00264859 0)
(7.36684 0.003152 0)
(7.36944 0.00363898 0)
(7.37206 0.00410286 0)
(7.37471 0.00453687 0)
(7.37738 0.0049342 0)
(7.38007 0.00528797 0)
(7.38277 0.00559127 0)
(7.38548 0.00583726 0)
(7.3882 0.00601925 0)
(7.39091 0.00613076 0)
(7.39363 0.00616567 0)
(7.39633 0.00611812 0)
(7.39902 0.0059832 0)
(7.40168 0.00575469 0)
(7.40433 0.00543537 0)
(7.40689 0.00499138 0)
(7.33309 -0.000513177 0)
(7.33357 -0.00146901 0)
(7.33456 -0.0022523 0)
(7.33598 -0.00281832 0)
(7.33766 -0.00318707 0)
(7.33952 -0.00339645 0)
(7.34153 -0.00347323 0)
(7.34367 -0.00343749 0)
(7.3459 -0.0033096 0)
(7.34821 -0.00310879 0)
(7.35057 -0.0028509 0)
(7.35299 -0.0025488 0)
(7.35544 -0.00221362 0)
(7.35793 -0.00185518 0)
(7.36045 -0.00148219 0)
(7.363 -0.00110256 0)
(7.36557 -0.000723606 0)
(7.36816 -0.00035233 0)
(7.37077 4.51345e-06 0)
(7.3734 0.000340279 0)
(7.37603 0.000648453 0)
(7.37868 0.000922573 0)
(7.38134 0.00115631 0)
(7.384 0.00134344 0)
(7.38665 0.00147794 0)
(7.3893 0.00155403 0)
(7.39194 0.00156628 0)
(7.39456 0.00150967 0)
(7.39716 0.00137961 0)
(7.39973 0.00117238 0)
(7.40226 0.000883267 0)
(7.40476 0.000515602 0)
(7.40716 4.03538e-05 0)
(7.3331 -0.000764799 0)
(7.33367 -0.00219113 0)
(7.33483 -0.00335706 0)
(7.33643 -0.00420582 0)
(7.33826 -0.00477869 0)
(7.34024 -0.00513287 0)
(7.34236 -0.00530761 0)
(7.34458 -0.00533649 0)
(7.34689 -0.00525318 0)
(7.34925 -0.00508615 0)
(7.35166 -0.00485665 0)
(7.35411 -0.004581 0)
(7.3566 -0.00427268 0)
(7.35911 -0.00394286 0)
(7.36165 -0.00360088 0)
(7.36421 -0.00325475 0)
(7.36678 -0.00291164 0)
(7.36936 -0.00257818 0)
(7.37196 -0.00226061 0)
(7.37457 -0.0019649 0)
(7.37717 -0.00169683 0)
(7.37978 -0.00146202 0)
(7.38238 -0.0012659 0)
(7.38498 -0.00111371 0)
(7.38757 -0.00101047 0)
(7.39013 -0.000960911 0)
(7.39268 -0.000969456 0)
(7.3952 -0.0010401 0)
(7.39768 -0.0011765 0)
(7.40013 -0.00138149 0)
(7.40253 -0.00165886 0)
(7.4049 -0.0020057 0)
(7.40716 -0.00244677 0)
(7.33311 -0.00108207 0)
(7.33383 -0.00307607 0)
(7.33526 -0.00467225 0)
(7.33714 -0.00585959 0)
(7.33921 -0.0067471 0)
(7.34141 -0.00740334 0)
(7.3437 -0.00785366 0)
(7.34607 -0.00812866 0)
(7.34848 -0.00826765 0)
(7.35093 -0.00830349 0)
(7.3534 -0.00825965 0)
(7.3559 -0.00815472 0)
(7.35841 -0.00800464 0)
(7.36094 -0.00782283 0)
(7.36349 -0.0076203 0)
(7.36604 -0.00740631 0)
(7.3686 -0.00718894 0)
(7.37117 -0.0069754 0)
(7.37374 -0.00677224 0)
(7.37631 -0.00658553 0)
(7.37887 -0.00642092 0)
(7.38143 -0.0062838 0)
(7.38397 -0.00617922 0)
(7.3865 -0.00611196 0)
(7.389 -0.00608649 0)
(7.39148 -0.00610696 0)
(7.39393 -0.00617717 0)
(7.39634 -0.00630052 0)
(7.39871 -0.00648002 0)
(7.40103 -0.00671789 0)
(7.40329 -0.00701706 0)
(7.40551 -0.00737448 0)
(7.40761 -0.00781162 0)
(7.33315 -0.00152176 0)
(7.33412 -0.00423679 0)
(7.33589 -0.00618538 0)
(7.33803 -0.00744237 0)
(7.34026 -0.00828991 0)
(7.34257 -0.008878 0)
(7.34498 -0.00925416 0)
(7.34743 -0.00946248 0)
(7.34991 -0.0095518 0)
(7.35239 -0.00955692 0)
(7.35488 -0.00949909 0)
(7.35738 -0.00939396 0)
(7.35988 -0.00925476 0)
(7.36239 -0.0090924 0)
(7.3649 -0.00891566 0)
(7.36741 -0.00873198 0)
(7.36991 -0.00854793 0)
(7.37242 -0.00836944 0)
(7.37492 -0.00820191 0)
(7.3774 -0.00805033 0)
(7.37988 -0.00791933 0)
(7.38234 -0.00781321 0)
(7.38478 -0.00773601 0)
(7.3872 -0.00769143 0)
(7.38958 -0.00768291 0)
(7.39194 -0.00771355 0)
(7.39425 -0.00778618 0)
(7.39653 -0.00790333 0)
(7.39875 -0.00806731 0)
(7.40093 -0.00827985 0)
(7.40304 -0.00854341 0)
(7.40511 -0.00885558 0)
(7.40707 -0.00923359 0)
(7.33322 -0.0021546 0)
(7.33476 -0.00596722 0)
(7.33733 -0.00874573 0)
(7.34004 -0.0106754 0)
(7.34255 -0.0120617 0)
(7.34499 -0.013038 0)
(7.34744 -0.0136831 0)
(7.34986 -0.0140889 0)
(7.35225 -0.0143324 0)
(7.3546 -0.0144619 0)
(7.35694 -0.0145084 0)
(7.35927 -0.0144955 0)
(7.36159 -0.0144419 0)
(7.3639 -0.0143608 0)
(7.36621 -0.0142623 0)
(7.36851 -0.0141539 0)
(7.37081 -0.0140421 0)
(7.3731 -0.0139323 0)
(7.37538 -0.0138292 0)
(7.37765 -0.0137373 0)
(7.3799 -0.0136607 0)
(7.38214 -0.013603 0)
(7.38436 -0.0135679 0)
(7.38654 -0.0135588 0)
(7.3887 -0.0135787 0)
(7.39083 -0.0136305 0)
(7.39291 -0.0137167 0)
(7.39495 -0.0138396 0)
(7.39693 -0.0140013 0)
(7.39887 -0.0142034 0)
(7.40073 -0.0144486 0)
(7.40254 -0.0147356 0)
(7.40423 -0.0150813 0)
(7.33325 -0.00319872 0)
(7.33518 -0.00716536 0)
(7.33812 -0.00910821 0)
(7.34092 -0.0104315 0)
(7.34335 -0.0115598 0)
(7.34561 -0.0124005 0)
(7.34778 -0.0129554 0)
(7.3498 -0.0133256 0)
(7.3517 -0.0135817 0)
(7.35352 -0.01375 0)
(7.35529 -0.0138466 0)
(7.35702 -0.0138892 0)
(7.35872 -0.0138939 0)
(7.36041 -0.0138725 0)
(7.3621 -0.0138339 0)
(7.36378 -0.0137856 0)
(7.36546 -0.0137334 0)
(7.36714 -0.0136825 0)
(7.36882 -0.013637 0)
(7.37049 -0.0136004 0)
(7.37216 -0.0135757 0)
(7.37383 -0.0135654 0)
(7.37548 -0.0135718 0)
(7.37711 -0.0135967 0)
(7.37873 -0.0136418 0)
(7.38032 -0.0137084 0)
(7.38188 -0.0137978 0)
(7.38341 -0.0139109 0)
(7.3849 -0.0140488 0)
(7.38635 -0.0142115 0)
(7.38774 -0.0144014 0)
(7.3891 -0.014614 0)
(7.39034 -0.0148671 0)
(7.33595 -0.00724844 0)
(7.34625 -0.0148042 0)
(7.35609 -0.0172565 0)
(7.36429 -0.0182309 0)
(7.37186 -0.0189276 0)
(7.37928 -0.0193208 0)
(7.38635 -0.0194258 0)
(7.39295 -0.0193916 0)
(7.39915 -0.0193158 0)
(7.40504 -0.019224 0)
(7.41066 -0.0191204 0)
(7.41604 -0.0190112 0)
(7.4212 -0.0189019 0)
(7.42616 -0.0187954 0)
(7.43093 -0.0186931 0)
(7.43553 -0.018596 0)
(7.43998 -0.0185055 0)
(7.44428 -0.0184234 0)
(7.44844 -0.0183514 0)
(7.45248 -0.0182914 0)
(7.45639 -0.0182452 0)
(7.46018 -0.0182151 0)
(7.46386 -0.0182028 0)
(7.46744 -0.0182103 0)
(7.47092 -0.018239 0)
(7.4743 -0.0182904 0)
(7.47759 -0.0183654 0)
(7.48079 -0.0184648 0)
(7.48391 -0.0185883 0)
(7.48695 -0.0187359 0)
(7.48991 -0.0189058 0)
(7.49278 -0.0190963 0)
(7.49558 -0.019308 0)
(7.32337 -0.00883475 0)
(7.31001 -0.018013 0)
(7.29302 -0.0219826 0)
(7.27194 -0.0239496 0)
(7.25002 -0.0251573 0)
(7.22868 -0.0258601 0)
(7.20782 -0.0261965 0)
(7.18727 -0.0263263 0)
(7.16715 -0.0263578 0)
(7.14755 -0.0263411 0)
(7.12848 -0.0262998 0)
(7.10994 -0.0262491 0)
(7.0919 -0.0261985 0)
(7.07435 -0.026153 0)
(7.05728 -0.0261145 0)
(7.04067 -0.0260837 0)
(7.0245 -0.0260609 0)
(7.00876 -0.0260463 0)
(6.99343 -0.0260402 0)
(6.97848 -0.0260431 0)
(6.96391 -0.0260556 0)