/*--------------------------------*- C++ -*----------------------------------*\
| =========                 |                                                 |
| \\      /  F ield         | OpenFOAM: The Open Source CFD Toolbox           |
|  \\    /   O peration     | Version:  4.1                                   |
|   \\  /    A nd           | Web:      www.OpenFOAM.org                      |
|    \\/     M anipulation  |                                                 |
\*---------------------------------------------------------------------------*/
FoamFile
{
    version     2.0;
    format      ascii;
    class       volScalarField;
    location    "2000";
    object      p;
}
// * * * * * * * * * * * * * * * * * * * * * * * * * * * * * * * * * * * * * //

dimensions      [0 2 -2 0 0 0 0];

internalField   nonuniform List<scalar> 
6820
(
-6.8664
-7.09324
-7.17015
-7.18218
-7.20154
-7.22361
-7.24017
-7.25302
-7.26416
-7.27373
-7.2816
-7.28791
-7.29275
-7.29614
-7.29804
-7.29838
-7.29706
-7.29393
-7.28878
-7.28136
-7.27133
-7.25824
-7.24149
-7.22026
-7.19339
-7.1592
-7.11493
-7.05659
-6.97461
-6.86009
-6.65048
-6.39796
-5.34311
-6.93838
-7.0794
-7.14301
-7.16337
-7.18716
-7.21113
-7.22909
-7.24294
-7.25474
-7.26477
-7.27303
-7.27966
-7.28477
-7.28839
-7.29049
-7.291
-7.28982
-7.2868
-7.28176
-7.27443
-7.26449
-7.25151
-7.23491
-7.21394
-7.18754
-7.15425
-7.11186
-7.05762
-6.9856
-6.89421
-6.76204
-6.63913
-6.55211
-6.99579
-7.08383
-7.14395
-7.16894
-7.19134
-7.21358
-7.23107
-7.24477
-7.25642
-7.26636
-7.27459
-7.28121
-7.28635
-7.29002
-7.29219
-7.29281
-7.29176
-7.28893
-7.28412
-7.27709
-7.26755
-7.25509
-7.23922
-7.21926
-7.19434
-7.16331
-7.12459
-7.07654
-7.01629
-6.94574
-6.8612
-6.80893
-6.79486
-7.03455
-7.09293
-7.14714
-7.17353
-7.1944
-7.21525
-7.23239
-7.24598
-7.25749
-7.26734
-7.27553
-7.28216
-7.28733
-7.29107
-7.29334
-7.29408
-7.29322
-7.29062
-7.28612
-7.2795
-7.2705
-7.25877
-7.24388
-7.22532
-7.20242
-7.1744
-7.14036
-7.09971
-7.05188
-7.00041
-6.94839
-6.92481
-6.93432
-7.06569
-7.10551
-7.1514
-7.17765
-7.19755
-7.21715
-7.23383
-7.24725
-7.25862
-7.26837
-7.27655
-7.28321
-7.28845
-7.29229
-7.29471
-7.29566
-7.29506
-7.2928
-7.28874
-7.28268
-7.27442
-7.26366
-7.25009
-7.23334
-7.21297
-7.1886
-7.15992
-7.12718
-7.09128
-7.05628
-7.02751
-7.02343
-7.05264
-7.09182
-7.11932
-7.15708
-7.18235
-7.20138
-7.21969
-7.23574
-7.24893
-7.26012
-7.26977
-7.27792
-7.28462
-7.28994
-7.29393
-7.29654
-7.29775
-7.29749
-7.29566
-7.29214
-7.28678
-7.27942
-7.26986
-7.25787
-7.24323
-7.22577
-7.2054
-7.18232
-7.15733
-7.13208
-7.11055
-7.09817
-7.10668
-7.14326
-7.11398
-7.13328
-7.164
-7.18762
-7.20571
-7.22277
-7.23809
-7.25098
-7.26198
-7.2715
-7.27962
-7.28637
-7.2918
-7.29595
-7.2988
-7.30032
-7.30046
-7.29914
-7.29627
-7.29174
-7.28544
-7.27724
-7.26704
-7.25475
-7.24039
-7.22416
-7.20657
-7.18874
-7.1726
-7.16166
-7.16055
-7.17659
-7.21466
-7.1331
-7.14695
-7.17183
-7.19336
-7.21042
-7.22631
-7.24086
-7.25338
-7.26416
-7.27356
-7.28165
-7.28845
-7.29401
-7.29836
-7.30149
-7.30337
-7.30397
-7.30324
-7.30111
-7.29752
-7.2924
-7.28571
-7.27743
-7.26761
-7.25643
-7.24427
-7.23184
-7.22037
-7.21178
-7.20895
-7.21551
-7.23597
-7.2734
-7.14987
-7.16009
-7.18021
-7.19951
-7.21548
-7.23028
-7.24404
-7.25614
-7.26669
-7.27595
-7.28401
-7.29087
-7.29658
-7.30116
-7.3046
-7.30689
-7.30802
-7.30794
-7.30663
-7.30407
-7.30023
-7.29514
-7.28886
-7.28155
-7.2735
-7.2652
-7.25746
-7.25148
-7.24899
-7.25227
-7.26399
-7.28693
-7.32288
-7.16483
-7.17256
-7.18891
-7.206
-7.22083
-7.23462
-7.2476
-7.25925
-7.26955
-7.27868
-7.2867
-7.29364
-7.29952
-7.30435
-7.30814
-7.31088
-7.31258
-7.31322
-7.31279
-7.31132
-7.30882
-7.30538
-7.30113
-7.29629
-7.29124
-7.28651
-7.28292
-7.28157
-7.28392
-7.29172
-7.30688
-7.33106
-7.36524
-7.17834
-7.18434
-7.19771
-7.21275
-7.22643
-7.23928
-7.2515
-7.26269
-7.27273
-7.28173
-7.28973
-7.29676
-7.30282
-7.30792
-7.31209
-7.31533
-7.31764
-7.31904
-7.31955
-7.31921
-7.31809
-7.31631
-7.31406
-7.3116
-7.30934
-7.30783
-7.30783
-7.31032
-7.31645
-7.32757
-7.34495
-7.3696
-7.40198
-7.19066
-7.19543
-7.20649
-7.21967
-7.23223
-7.2442
-7.25571
-7.26644
-7.27622
-7.28509
-7.29309
-7.30022
-7.30647
-7.31189
-7.31646
-7.32022
-7.32318
-7.32538
-7.32684
-7.32766
-7.32792
-7.32778
-7.32746
-7.32724
-7.32754
-7.32888
-7.33195
-7.33755
-7.34662
-7.36011
-7.37889
-7.40352
-7.43418
-7.20201
-7.20589
-7.21513
-7.22669
-7.23819
-7.24934
-7.26019
-7.27048
-7.28001
-7.28877
-7.29677
-7.304
-7.31048
-7.31621
-7.32122
-7.32553
-7.32916
-7.33217
-7.33462
-7.33659
-7.33822
-7.33967
-7.34117
-7.34302
-7.34562
-7.34945
-7.35509
-7.3632
-7.3745
-7.38967
-7.40927
-7.43359
-7.46264
-7.21252
-7.21575
-7.22356
-7.23374
-7.24425
-7.25465
-7.26491
-7.27478
-7.28407
-7.29273
-7.30074
-7.30811
-7.31482
-7.32089
-7.32635
-7.33122
-7.33555
-7.33938
-7.34281
-7.34592
-7.34887
-7.35183
-7.35503
-7.35877
-7.36341
-7.36937
-7.37714
-7.38726
-7.40024
-7.41656
-7.43658
-7.46041
-7.48799
-7.22232
-7.22505
-7.23175
-7.24076
-7.25038
-7.2601
-7.26981
-7.27931
-7.28838
-7.29695
-7.305
-7.31251
-7.31947
-7.3259
-7.33182
-7.33727
-7.34229
-7.34695
-7.35134
-7.35556
-7.35977
-7.36415
-7.36892
-7.37435
-7.38077
-7.38855
-7.39807
-7.40975
-7.42397
-7.44106
-7.46122
-7.48447
-7.5107
-7.23148
-7.23384
-7.23966
-7.2477
-7.25653
-7.26564
-7.27487
-7.28403
-7.29291
-7.30141
-7.30951
-7.31718
-7.32441
-7.33121
-7.3376
-7.34363
-7.34934
-7.35482
-7.36014
-7.36543
-7.37083
-7.37652
-7.38271
-7.38965
-7.39761
-7.4069
-7.41784
-7.43073
-7.44586
-7.46342
-7.48353
-7.50616
-7.53117
-7.24006
-7.24213
-7.24727
-7.2545
-7.26265
-7.27123
-7.28004
-7.2889
-7.29762
-7.30609
-7.31425
-7.3221
-7.3296
-7.33678
-7.34365
-7.35026
-7.35665
-7.36292
-7.36914
-7.37544
-7.38195
-7.38884
-7.39631
-7.40456
-7.41384
-7.42439
-7.43646
-7.45028
-7.46604
-7.48387
-7.50381
-7.52579
-7.54969
-7.24812
-7.24997
-7.25456
-7.26114
-7.26871
-7.27682
-7.28528
-7.2939
-7.30249
-7.31094
-7.31919
-7.32723
-7.33502
-7.34258
-7.34992
-7.3571
-7.36417
-7.3712
-7.37827
-7.38552
-7.39305
-7.40103
-7.40962
-7.41902
-7.42941
-7.44099
-7.45396
-7.46847
-7.48466
-7.5026
-7.52228
-7.54363
-7.56651
-7.25568
-7.25735
-7.26152
-7.26757
-7.27466
-7.28239
-7.29055
-7.29897
-7.30747
-7.31593
-7.3243
-7.33253
-7.34062
-7.34856
-7.35638
-7.36412
-7.37183
-7.37959
-7.38747
-7.39558
-7.40405
-7.413
-7.42259
-7.43296
-7.44428
-7.45671
-7.47037
-7.48539
-7.50185
-7.51977
-7.53914
-7.55987
-7.58184
-7.26275
-7.26429
-7.26812
-7.27376
-7.28047
-7.28788
-7.29581
-7.30408
-7.31252
-7.32102
-7.32952
-7.33797
-7.34636
-7.35469
-7.36298
-7.37126
-7.37959
-7.38803
-7.39666
-7.40557
-7.41488
-7.4247
-7.43515
-7.44635
-7.45844
-7.47154
-7.48574
-7.50112
-7.51772
-7.53555
-7.55458
-7.57471
-7.59585
-7.26934
-7.27078
-7.27437
-7.27968
-7.28608
-7.29325
-7.30101
-7.30917
-7.3176
-7.32617
-7.33482
-7.34351
-7.3522
-7.36092
-7.36966
-7.37846
-7.38738
-7.39646
-7.40578
-7.41543
-7.42549
-7.43606
-7.44725
-7.45916
-7.47188
-7.48551
-7.5001
-7.51572
-7.53238
-7.55006
-7.56873
-7.58829
-7.60866
-7.27545
-7.27681
-7.28022
-7.28529
-7.29147
-7.29846
-7.3061
-7.31422
-7.32267
-7.33134
-7.34016
-7.34909
-7.3581
-7.36719
-7.37637
-7.38568
-7.39514
-7.40482
-7.41478
-7.42508
-7.43581
-7.44704
-7.45887
-7.47136
-7.48459
-7.49863
-7.51351
-7.52928
-7.54591
-7.56341
-7.5817
-7.60073
-7.6204
-7.28107
-7.28238
-7.28565
-7.29056
-7.29659
-7.30347
-7.31104
-7.31916
-7.32767
-7.33647
-7.34548
-7.35467
-7.364
-7.37346
-7.38307
-7.39285
-7.40284
-7.41307
-7.4236
-7.43449
-7.4458
-7.45761
-7.46996
-7.48294
-7.49658
-7.51093
-7.52602
-7.54185
-7.55842
-7.57569
-7.59362
-7.61214
-7.63117
-7.28616
-7.28743
-7.29063
-7.29544
-7.30138
-7.30822
-7.31579
-7.32395
-7.33256
-7.34152
-7.35074
-7.3602
-7.36985
-7.37968
-7.3897
-7.39993
-7.4104
-7.42113
-7.43218
-7.4436
-7.45543
-7.46772
-7.48053
-7.49389
-7.50785
-7.52244
-7.53765
-7.55349
-7.56995
-7.58699
-7.60456
-7.6226
-7.64105
-7.29069
-7.29195
-7.29511
-7.29988
-7.30581
-7.31266
-7.32028
-7.32854
-7.33729
-7.34643
-7.35589
-7.36563
-7.3756
-7.38579
-7.39621
-7.40687
-7.41778
-7.42898
-7.4405
-7.45237
-7.46465
-7.47736
-7.49054
-7.50422
-7.51843
-7.53317
-7.54846
-7.56427
-7.58059
-7.59739
-7.61461
-7.6322
-7.6501
-7.29461
-7.29588
-7.29905
-7.30384
-7.30982
-7.31674
-7.32447
-7.33287
-7.3418
-7.35116
-7.36088
-7.37091
-7.3812
-7.39175
-7.40255
-7.41361
-7.42494
-7.43656
-7.44849
-7.46078
-7.47344
-7.4865
-7.49999
-7.51392
-7.52831
-7.54317
-7.55848
-7.57423
-7.5904
-7.60694
-7.62383
-7.641
-7.6584
-7.29786
-7.29915
-7.30237
-7.30726
-7.31334
-7.3204
-7.3283
-7.33689
-7.34604
-7.35566
-7.36566
-7.37599
-7.38661
-7.39751
-7.40868
-7.42011
-7.43182
-7.44382
-7.45613
-7.46877
-7.48177
-7.49512
-7.50886
-7.523
-7.53752
-7.55244
-7.56774
-7.58341
-7.59941
-7.61571
-7.63227
-7.64905
-7.666
-7.30036
-7.30169
-7.30502
-7.31005
-7.31632
-7.32359
-7.33171
-7.34055
-7.34997
-7.35987
-7.37017
-7.38081
-7.39177
-7.40302
-7.41454
-7.42633
-7.43839
-7.45074
-7.46339
-7.47634
-7.48962
-7.50322
-7.51716
-7.53145
-7.54607
-7.56102
-7.57629
-7.59185
-7.60768
-7.62374
-7.64
-7.65641
-7.67294
-7.30201
-7.30341
-7.30689
-7.31215
-7.31868
-7.32623
-7.33464
-7.34379
-7.35352
-7.36374
-7.37437
-7.38535
-7.39664
-7.40823
-7.42009
-7.43222
-7.44461
-7.45728
-7.47022
-7.48345
-7.49697
-7.51078
-7.52489
-7.53928
-7.55397
-7.56892
-7.58414
-7.59958
-7.61524
-7.63107
-7.64704
-7.66311
-7.67926
-7.30269
-7.30418
-7.30788
-7.31346
-7.32035
-7.32826
-7.33704
-7.34655
-7.35665
-7.36723
-7.37821
-7.38954
-7.40118
-7.4131
-7.42529
-7.43774
-7.45044
-7.4634
-7.47661
-7.49008
-7.5038
-7.51779
-7.53203
-7.54651
-7.56123
-7.57618
-7.59132
-7.60665
-7.62213
-7.63774
-7.65345
-7.66921
-7.68501
-7.30225
-7.30386
-7.30787
-7.31388
-7.32124
-7.32961
-7.33885
-7.34879
-7.35932
-7.3703
-7.38166
-7.39336
-7.40535
-7.41761
-7.43012
-7.44288
-7.45586
-7.46908
-7.48253
-7.49621
-7.51011
-7.52424
-7.53858
-7.55312
-7.56786
-7.58277
-7.59784
-7.61305
-7.62836
-7.64376
-7.65922
-7.67469
-7.69017
-7.30047
-7.30227
-7.30671
-7.31331
-7.32128
-7.33023
-7.34001
-7.35047
-7.36147
-7.3729
-7.38467
-7.39675
-7.40911
-7.4217
-7.43453
-7.44758
-7.46083
-7.4743
-7.48797
-7.50183
-7.5159
-7.53014
-7.54457
-7.55916
-7.57391
-7.58879
-7.60378
-7.61887
-7.63403
-7.64924
-7.66447
-7.67969
-7.69487
-7.29709
-7.29915
-7.30421
-7.31162
-7.32038
-7.33004
-7.34047
-7.35156
-7.36312
-7.37504
-7.38727
-7.39975
-7.41247
-7.4254
-7.43852
-7.45183
-7.46533
-7.47901
-7.49286
-7.50688
-7.52107
-7.53541
-7.54989
-7.56451
-7.57924
-7.59407
-7.60899
-7.62396
-7.63897
-7.65399
-7.66901
-7.684
-7.69893
-7.29175
-7.29419
-7.30016
-7.30871
-7.31848
-7.32899
-7.34018
-7.35195
-7.36413
-7.37659
-7.38929
-7.40221
-7.41532
-7.42861
-7.44206
-7.45566
-7.46942
-7.48332
-7.49737
-7.51155
-7.52587
-7.5403
-7.55485
-7.5695
-7.58423
-7.59902
-7.61387
-7.62874
-7.64362
-7.65849
-7.67332
-7.68809
-7.70278
-7.28391
-7.28695
-7.2943
-7.30444
-7.31557
-7.32722
-7.33942
-7.35205
-7.3649
-7.37791
-7.39106
-7.40435
-7.41777
-7.43132
-7.445
-7.4588
-7.47272
-7.48677
-7.50094
-7.51523
-7.52962
-7.54411
-7.55868
-7.57333
-7.58804
-7.60278
-7.61755
-7.63233
-7.64709
-7.66182
-7.67649
-7.6911
-7.70562
-7.27275
-7.2769
-7.28657
-7.29874
-7.31112
-7.32381
-7.33713
-7.35082
-7.36458
-7.37836
-7.3922
-7.4061
-7.42004
-7.43403
-7.44808
-7.4622
-7.47639
-7.49066
-7.50501
-7.51943
-7.53393
-7.54849
-7.5631
-7.57776
-7.59245
-7.60715
-7.62185
-7.63653
-7.65118
-7.66576
-7.68027
-7.69468
-7.70896
-7.25684
-7.26261
-7.27724
-7.2936
-7.30811
-7.32201
-7.33621
-7.35047
-7.36453
-7.37849
-7.39246
-7.40647
-7.42051
-7.4346
-7.44875
-7.46297
-7.47728
-7.49165
-7.5061
-7.52062
-7.5352
-7.54982
-7.56449
-7.57919
-7.5939
-7.6086
-7.62329
-7.63794
-7.65254
-7.66708
-7.68153
-7.69589
-7.71015
-7.23536
-7.24206
-7.26055
-7.28026
-7.298
-7.31538
-7.33267
-7.34929
-7.36517
-7.38057
-7.39564
-7.41046
-7.42509
-7.4396
-7.45404
-7.46845
-7.48286
-7.49729
-7.51174
-7.52623
-7.54075
-7.5553
-7.56988
-7.58446
-7.59905
-7.61362
-7.62816
-7.64265
-7.65708
-7.67142
-7.68566
-7.69977
-7.71371
-7.20229
-7.23723
-7.26627
-7.28186
-7.29531
-7.31104
-7.32727
-7.34278
-7.35786
-7.37291
-7.38796
-7.40294
-7.41784
-7.43271
-7.44757
-7.46241
-7.47726
-7.49211
-7.50696
-7.52183
-7.5367
-7.55157
-7.56643
-7.58128
-7.5961
-7.61088
-7.62561
-7.64027
-7.65485
-7.66934
-7.68374
-7.69802
-7.7122
-7.06104
-7.1684
-7.24192
-7.27377
-7.29642
-7.32012
-7.34174
-7.35995
-7.37613
-7.39145
-7.40624
-7.42061
-7.43471
-7.44869
-7.46262
-7.47657
-7.49054
-7.50458
-7.51868
-7.53284
-7.54706
-7.56133
-7.57564
-7.58997
-7.60431
-7.61864
-7.63294
-7.6472
-7.6614
-7.67552
-7.68955
-7.70345
-7.71723
-6.50389
-6.55868
-7.44127
-7.91607
-7.97039
-7.99231
-8.04134
-8.08167
-8.11392
-8.14619
-8.17922
-8.2123
-8.24556
-8.2792
-8.31318
-8.34738
-8.3817
-8.41603
-8.45023
-8.48418
-8.51773
-8.55075
-8.58312
-8.6147
-8.64539
-8.67505
-8.70359
-8.7309
-8.75687
-8.78141
-8.80443
-8.82583
-8.84554
-8.86347
-8.87953
-8.89364
-8.90572
-8.91569
-8.92346
-8.92893
-8.93202
-8.93263
-8.93065
-8.92596
-8.91846
-8.908
-8.89444
-8.87764
-8.85742
-8.8336
-8.80599
-8.77439
-8.73857
-8.6983
-8.65334
-8.60344
-8.54834
-8.48777
-8.42148
-8.34919
-8.27061
-8.18548
-8.09348
-7.99432
-7.88766
-7.77318
-7.65053
-7.5194
-7.37946
-7.23043
-7.07206
-6.90416
-6.7266
-6.5393
-6.34229
-6.13567
-5.91968
-5.69462
-5.46095
-5.21922
-4.97011
-4.71441
-4.453
-4.18689
-3.91713
-3.64484
-3.37119
-3.09737
-2.82452
-2.55378
-2.2862
-2.02277
-1.76424
-1.51144
-1.26437
-1.02424
-0.788174
-0.561607
-0.328602
-0.12078
-7.07413
-7.23191
-7.57065
-7.83929
-7.91274
-7.95546
-8.01164
-8.05824
-8.0952
-8.13046
-8.16563
-8.20032
-8.23476
-8.26927
-8.30389
-8.33855
-8.37321
-8.40777
-8.44212
-8.47615
-8.50974
-8.54277
-8.57511
-8.60665
-8.63727
-8.66686
-8.69531
-8.72253
-8.7484
-8.77284
-8.79576
-8.81706
-8.83666
-8.85448
-8.87043
-8.88443
-8.89639
-8.90623
-8.91387
-8.91921
-8.92216
-8.92262
-8.92048
-8.91563
-8.90794
-8.89729
-8.88354
-8.86652
-8.84608
-8.82203
-8.79418
-8.76233
-8.72625
-8.68571
-8.64048
-8.59031
-8.53493
-8.4741
-8.40753
-8.33497
-8.25614
-8.17075
-8.07851
-7.97911
-7.87223
-7.75755
-7.63474
-7.50348
-7.36347
-7.21442
-7.0561
-6.88832
-6.71096
-6.52395
-6.32733
-6.12121
-5.90581
-5.68145
-5.44858
-5.20774
-4.95961
-4.70496
-4.44468
-4.17973
-3.91116
-3.64008
-3.36762
-3.09493
-2.82316
-2.55341
-2.28669
-2.02399
-1.766
-1.51356
-1.26657
-1.02642
-0.789631
-0.563339
-0.326609
-0.126139
-7.08371
-7.26684
-7.49731
-7.74715
-7.86678
-7.92753
-7.9863
-8.03719
-8.07834
-8.11616
-8.1531
-8.18914
-8.22457
-8.25976
-8.29486
-8.32985
-8.36471
-8.39938
-8.43378
-8.46781
-8.50135
-8.5343
-8.56655
-8.59797
-8.62847
-8.65793
-8.68625
-8.71332
-8.73906
-8.76336
-8.78614
-8.80731
-8.82677
-8.84445
-8.86026
-8.87412
-8.88595
-8.89565
-8.90313
-8.90832
-8.91111
-8.9114
-8.90908
-8.90405
-8.89617
-8.88532
-8.87134
-8.8541
-8.83342
-8.80912
-8.78101
-8.74889
-8.71254
-8.67173
-8.62621
-8.57575
-8.52009
-8.45898
-8.39213
-8.3193
-8.2402
-8.15455
-8.06206
-7.96243
-7.85534
-7.74048
-7.61752
-7.48616
-7.34608
-7.19704
-7.03881
-6.87119
-6.69407
-6.50741
-6.31123
-6.10566
-5.89091
-5.66732
-5.43531
-5.19543
-4.94835
-4.69484
-4.43575
-4.17204
-3.90473
-3.63491
-3.3637
-3.09221
-2.82157
-2.55284
-2.28703
-2.02507
-1.76765
-1.51559
-1.26869
-1.02853
-0.791026
-0.564988
-0.324625
-0.131386
-7.11437
-7.29632
-7.49573
-7.70763
-7.83226
-7.90112
-7.96227
-8.01685
-8.06188
-8.10218
-8.14077
-8.17805
-8.21438
-8.25018
-8.28567
-8.32092
-8.35591
-8.39062
-8.425
-8.45895
-8.49238
-8.52519
-8.55728
-8.58854
-8.61886
-8.64814
-8.67628
-8.70318
-8.72875
-8.75288
-8.77549
-8.79648
-8.81579
-8.8333
-8.84896
-8.86265
-8.87431
-8.88385
-8.89117
-8.89619
-8.8988
-8.89891
-8.8964
-8.89116
-8.88307
-8.872
-8.8578
-8.84031
-8.81938
-8.79482
-8.76644
-8.73403
-8.69739
-8.65629
-8.61048
-8.55973
-8.50378
-8.44237
-8.37524
-8.30213
-8.22276
-8.13686
-8.04413
-7.94427
-7.83698
-7.72195
-7.59885
-7.4674
-7.32731
-7.17831
-7.02018
-6.85277
-6.67595
-6.48968
-6.294
-6.08903
-5.875
-5.65223
-5.42116
-5.18232
-4.93636
-4.68405
-4.42622
-4.16382
-3.89785
-3.62936
-3.35945
-3.08921
-2.81974
-2.55209
-2.28721
-2.02602
-1.76918
-1.51752
-1.27072
-1.03055
-0.792355
-0.566547
-0.322686
-0.136443
-7.1772
-7.3378
-7.50705
-7.67924
-7.79914
-7.87544
-7.93981
-7.99703
-8.0452
-8.08784
-8.128
-8.16648
-8.20368
-8.24008
-8.27595
-8.31142
-8.34652
-8.38124
-8.41555
-8.44939
-8.48267
-8.51531
-8.5472
-8.57825
-8.60836
-8.63743
-8.66536
-8.69204
-8.7174
-8.74133
-8.76374
-8.78454
-8.80366
-8.82099
-8.83646
-8.84997
-8.86145
-8.87081
-8.87794
-8.88277
-8.88519
-8.88509
-8.88238
-8.87693
-8.86861
-8.8573
-8.84286
-8.82512
-8.80392
-8.77908
-8.75041
-8.71772
-8.68078
-8.63938
-8.59327
-8.54221
-8.48596
-8.42426
-8.35684
-8.28345
-8.20382
-8.11766
-8.02469
-7.92462
-7.81714
-7.70195
-7.57875
-7.44724
-7.30714
-7.15822
-7.00025
-6.83308
-6.6566
-6.47078
-6.27565
-6.07135
-5.85811
-5.63623
-5.40616
-5.16843
-4.92367
-4.67262
-4.41613
-4.1551
-3.89052
-3.62342
-3.35487
-3.08593
-2.81768
-2.55113
-2.28722
-2.02683
-1.7706
-1.51933
-1.27266
-1.03248
-0.793622
-0.568007
-0.320836
-0.141227
-7.23719
-7.37202
-7.51595
-7.66003
-7.77308
-7.85326
-7.9195
-7.97808
-8.02851
-8.07317
-8.11476
-8.15433
-8.19235
-8.22932
-8.26556
-8.30123
-8.33641
-8.37112
-8.40535
-8.43905
-8.47216
-8.50459
-8.53625
-8.56707
-8.59694
-8.62576
-8.65345
-8.67989
-8.70501
-8.72871
-8.7509
-8.77148
-8.79038
-8.80751
-8.82277
-8.83608
-8.84736
-8.85651
-8.86345
-8.86807
-8.87028
-8.86997
-8.86703
-8.86135
-8.85279
-8.84124
-8.82653
-8.80852
-8.78704
-8.76192
-8.73296
-8.69996
-8.66272
-8.621
-8.57458
-8.52322
-8.46666
-8.40466
-8.33696
-8.26329
-8.18339
-8.09698
-8.00379
-7.90351
-7.79586
-7.68053
-7.55725
-7.4257
-7.28564
-7.13683
-6.97906
-6.81217
-6.63609
-6.45076
-6.25625
-6.05268
-5.84028
-5.61936
-5.39036
-5.15379
-4.91029
-4.66059
-4.40549
-4.1459
-3.88277
-3.61711
-3.34997
-3.08238
-2.81538
-2.54997
-2.28706
-2.0275
-1.77189
-1.52104
-1.2745
-1.03431
-0.794826
-0.569359
-0.319117
-0.145664
-7.2907
-7.40338
-7.5269
-7.65022
-7.75437
-7.83458
-7.90136
-7.96048
-8.01235
-8.05855
-8.10131
-8.14179
-8.18052
-8.21799
-8.25455
-8.2904
-8.32564
-8.36032
-8.39444
-8.42798
-8.46088
-8.49308
-8.5245
-8.55505
-8.58464
-8.61319
-8.64061
-8.66679
-8.69164
-8.71508
-8.73702
-8.75736
-8.77602
-8.79292
-8.80795
-8.82104
-8.8321
-8.84103
-8.84774
-8.85214
-8.85412
-8.85358
-8.8504
-8.84447
-8.83566
-8.82384
-8.80887
-8.79058
-8.76881
-8.74338
-8.71412
-8.68081
-8.64325
-8.60122
-8.55448
-8.5028
-8.44594
-8.38364
-8.31565
-8.24171
-8.16154
-8.07489
-7.98148
-7.88101
-7.7732
-7.65777
-7.53441
-7.40287
-7.26288
-7.11421
-6.95667
-6.79012
-6.61447
-6.4297
-6.23585
-6.03307
-5.82157
-5.60167
-5.3738
-5.13847
-4.89629
-4.64799
-4.39434
-4.13624
-3.87462
-3.61045
-3.34476
-3.07856
-2.81286
-2.54862
-2.28672
-2.02801
-1.77304
-1.52262
-1.27623
-1.03603
-0.795971
-0.570597
-0.317562
-0.149691
-7.33802
-7.43312
-7.53958
-7.64647
-7.74132
-7.8193
-7.88562
-7.94462
-7.99716
-8.04436
-8.08799
-8.12916
-8.16845
-8.20631
-8.24312
-8.2791
-8.31436
-8.34897
-8.38295
-8.4163
-8.44897
-8.48091
-8.51205
-8.54231
-8.5716
-8.59985
-8.62696
-8.65284
-8.67741
-8.70057
-8.72223
-8.7423
-8.7607
-8.77733
-8.79211
-8.80496
-8.81577
-8.82446
-8.83093
-8.83508
-8.83681
-8.83602
-8.83259
-8.8264
-8.81732
-8.80522
-8.78996
-8.77137
-8.7493
-8.72357
-8.69398
-8.66036
-8.62247
-8.58011
-8.53305
-8.48106
-8.42388
-8.36128
-8.293
-8.21878
-8.13837
-8.05148
-7.95786
-7.85722
-7.74927
-7.63374
-7.51035
-7.37883
-7.23894
-7.09045
-6.93319
-6.76702
-6.59185
-6.40768
-6.21455
-6.0126
-5.80206
-5.58324
-5.35656
-5.12252
-4.88172
-4.63486
-4.38273
-4.12617
-3.86609
-3.60346
-3.33927
-3.07449
-2.81011
-2.54707
-2.28622
-2.02837
-1.77405
-1.52406
-1.27784
-1.03763
-0.797057
-0.571716
-0.316199
-0.15326
-7.37948
-7.46088
-7.55311
-7.64672
-7.73286
-7.80736
-7.87232
-7.93061
-7.98318
-8.03088
-8.07505
-8.11667
-8.15634
-8.19449
-8.23147
-8.2675
-8.30273
-8.33724
-8.37105
-8.40418
-8.43659
-8.46824
-8.49907
-8.52901
-8.55798
-8.58589
-8.61267
-8.63823
-8.66247
-8.68532
-8.70667
-8.72645
-8.74455
-8.7609
-8.77541
-8.78798
-8.79852
-8.80694
-8.81315
-8.81703
-8.8185
-8.81744
-8.81373
-8.80726
-8.79789
-8.7855
-8.76993
-8.75104
-8.72865
-8.70259
-8.67268
-8.63872
-8.60051
-8.55781
-8.51043
-8.45811
-8.40062
-8.33771
-8.26914
-8.19466
-8.11399
-8.02688
-7.93305
-7.83225
-7.72418
-7.60858
-7.48517
-7.35371
-7.21394
-7.06567
-6.90872
-6.74297
-6.56833
-6.3848
-6.19243
-5.99137
-5.78184
-5.56415
-5.3387
-5.106
-4.86663
-4.62127
-4.37069
-4.11571
-3.85723
-3.59617
-3.3335
-3.07018
-2.80715
-2.54532
-2.28553
-2.02856
-1.77492
-1.52538
-1.27934
-1.03913
-0.798085
-0.572714
-0.315046
-0.156342
-7.41578
-7.48655
-7.56707
-7.64979
-7.72806
-7.79842
-7.86132
-7.91841
-7.97051
-8.01827
-8.06266
-8.10451
-8.14439
-8.18269
-8.21974
-8.25577
-8.29092
-8.32527
-8.35889
-8.39177
-8.42389
-8.45523
-8.48572
-8.51531
-8.54393
-8.57149
-8.59791
-8.62311
-8.64701
-8.66951
-8.69053
-8.70998
-8.72777
-8.74381
-8.75801
-8.77028
-8.78053
-8.78866
-8.79457
-8.79817
-8.79935
-8.79799
-8.79399
-8.78721
-8.77754
-8.76484
-8.74895
-8.72973
-8.70701
-8.68062
-8.65037
-8.61607
-8.5775
-8.53447
-8.48675
-8.4341
-8.37629
-8.31308
-8.24422
-8.16946
-8.08855
-8.00122
-7.90721
-7.80625
-7.69808
-7.58242
-7.45902
-7.32763
-7.18803
-7.04
-6.8834
-6.71809
-6.54402
-6.36117
-6.16962
-5.96949
-5.76101
-5.54448
-5.32031
-5.08899
-4.85109
-4.60727
-4.35828
-4.10492
-3.84806
-3.5886
-3.32748
-3.06564
-2.80398
-2.54339
-2.28467
-2.02859
-1.77563
-1.52654
-1.28071
-1.0405
-0.799054
-0.573592
-0.314114
-0.15892
-7.44772
-7.51017
-7.58112
-7.65478
-7.72605
-7.79204
-7.85242
-7.90795
-7.95918
-8.00662
-8.05093
-8.0928
-8.13272
-8.17104
-8.20807
-8.24401
-8.27903
-8.3132
-8.34658
-8.37918
-8.411
-8.442
-8.47214
-8.50136
-8.5296
-8.55678
-8.58282
-8.60764
-8.63117
-8.6533
-8.67396
-8.69306
-8.71051
-8.72621
-8.74008
-8.75203
-8.76196
-8.76978
-8.77538
-8.77866
-8.77952
-8.77785
-8.77353
-8.76644
-8.75644
-8.74341
-8.72718
-8.70762
-8.68456
-8.65781
-8.62721
-8.59255
-8.55364
-8.51026
-8.46219
-8.4092
-8.35107
-8.28755
-8.2184
-8.14338
-8.06222
-7.97467
-7.88048
-7.77939
-7.67112
-7.55542
-7.43205
-7.30076
-7.16134
-7.01359
-6.85736
-6.69253
-6.51906
-6.33693
-6.14621
-5.94704
-5.73965
-5.52433
-5.30148
-5.07157
-4.83517
-4.59292
-4.34554
-4.09383
-3.83862
-3.58079
-3.32124
-3.06088
-2.80061
-2.54127
-2.28364
-2.02846
-1.77619
-1.52757
-1.28195
-1.04174
-0.799965
-0.57435
-0.313405
-0.160996
-7.47601
-7.53185
-7.59497
-7.66106
-7.72613
-7.78782
-7.84541
-7.89909
-7.94916
-7.99595
-8.03992
-8.0816
-8.1214
-8.15962
-8.19653
-8.23233
-8.26715
-8.30109
-8.3342
-8.3665
-8.39799
-8.42864
-8.45841
-8.48725
-8.51509
-8.54188
-8.56752
-8.59195
-8.61508
-8.63683
-8.65711
-8.67584
-8.69292
-8.70827
-8.72179
-8.73339
-8.74298
-8.75045
-8.75572
-8.75867
-8.7592
-8.75719
-8.75254
-8.7451
-8.73476
-8.72138
-8.7048
-8.68488
-8.66146
-8.63435
-8.60338
-8.56836
-8.52908
-8.48534
-8.43692
-8.38359
-8.32513
-8.2613
-8.19186
-8.11656
-8.03516
-7.94741
-7.85304
-7.75181
-7.64346
-7.52775
-7.40442
-7.27324
-7.13402
-6.98657
-6.83073
-6.66642
-6.49357
-6.31218
-6.12233
-5.92416
-5.71788
-5.50379
-5.28228
-5.05381
-4.81893
-4.57827
-4.33254
-4.08249
-3.82894
-3.57274
-3.31478
-3.05593
-2.79705
-2.53896
-2.28243
-2.02816
-1.77658
-1.52844
-1.28306
-1.04287
-0.800815
-0.574993
-0.312913
-0.162585
-7.50122
-7.55172
-7.60844
-7.66815
-7.72777
-7.78536
-7.84005
-7.8917
-7.94038
-7.98627
-8.02968
-8.07098
-8.11049
-8.14849
-8.18519
-8.22077
-8.25535
-8.28902
-8.32183
-8.35381
-8.38495
-8.41523
-8.44461
-8.47305
-8.50049
-8.52687
-8.5521
-8.57612
-8.59885
-8.6202
-8.64008
-8.65842
-8.67512
-8.69009
-8.70324
-8.71448
-8.72371
-8.73083
-8.73574
-8.73834
-8.73852
-8.73616
-8.73115
-8.72336
-8.71266
-8.69891
-8.68197
-8.66168
-8.63788
-8.6104
-8.57905
-8.54365
-8.504
-8.45989
-8.41111
-8.35744
-8.29864
-8.2345
-8.16476
-8.08919
-8.00755
-7.91958
-7.82505
-7.7237
-7.61528
-7.49955
-7.37627
-7.24523
-7.10623
-6.95909
-6.80367
-6.63988
-6.46767
-6.28705
-6.09809
-5.90093
-5.69579
-5.48295
-5.2628
-5.03578
-4.80245
-4.56339
-4.31931
-4.07093
-3.81906
-3.56451
-3.30813
-3.05079
-2.79331
-2.53648
-2.28105
-2.02768
-1.77682
-1.52916
-1.28403
-1.04386
-0.801601
-0.575523
-0.312624
-0.163715
-7.52383
-7.56995
-7.62137
-7.67571
-7.73054
-7.7843
-7.8361
-7.88561
-7.93274
-7.97754
-8.02019
-8.06095
-8.10005
-8.13771
-8.17411
-8.20939
-8.24367
-8.27703
-8.30952
-8.34114
-8.37191
-8.40181
-8.43079
-8.45883
-8.48585
-8.51181
-8.53663
-8.56023
-8.58254
-8.60348
-8.62296
-8.64089
-8.6572
-8.67178
-8.68455
-8.69541
-8.70426
-8.71102
-8.71556
-8.71779
-8.7176
-8.71488
-8.7095
-8.70134
-8.69026
-8.67614
-8.65882
-8.63814
-8.61396
-8.58609
-8.55436
-8.51857
-8.47854
-8.43406
-8.38491
-8.33089
-8.27175
-8.20729
-8.13725
-8.06141
-7.97953
-7.89136
-7.79666
-7.69519
-7.5867
-7.47097
-7.34776
-7.21686
-7.07809
-6.93128
-6.77629
-6.61305
-6.4415
-6.26166
-6.0736
-5.87747
-5.67347
-5.4619
-5.24311
-5.01757
-4.78578
-4.54833
-4.3059
-4.05921
-3.809
-3.5561
-3.30132
-3.04548
-2.78939
-2.53383
-2.27949
-2.02705
-1.77689
-1.52972
-1.28486
-1.04473
-0.802322
-0.575948
-0.31252
-0.164424
-7.54419
-7.58669
-7.63371
-7.68347
-7.73412
-7.78434
-7.83334
-7.88068
-7.92615
-7.96972
-8.01146
-8.05153
-8.09009
-8.1273
-8.16331
-8.19824
-8.23217
-8.26517
-8.29729
-8.32854
-8.35892
-8.38842
-8.41699
-8.44461
-8.47122
-8.49675
-8.52114
-8.54432
-8.56621
-8.58672
-8.60579
-8.62332
-8.63922
-8.6534
-8.66578
-8.67625
-8.68472
-8.69109
-8.69526
-8.69711
-8.69655
-8.69344
-8.68768
-8.67914
-8.66768
-8.65317
-8.63546
-8.6144
-8.58982
-8.56156
-8.52943
-8.49326
-8.45284
-8.40798
-8.35846
-8.30408
-8.2446
-8.17982
-8.10948
-8.03337
-7.95125
-7.86288
-7.76802
-7.66643
-7.55789
-7.44215
-7.31902
-7.18828
-7.04975
-6.90327
-6.74873
-6.58604
-6.41516
-6.23611
-6.04896
-5.85386
-5.65102
-5.44071
-5.2233
-4.99922
-4.76898
-4.53315
-4.29237
-4.04735
-3.79881
-3.54755
-3.29435
-3.04002
-2.78532
-2.53102
-2.27777
-2.02624
-1.7768
-1.53012
-1.28555
-1.04547
-0.802972
-0.576271
-0.312576
-0.164757
-7.56263
-7.60207
-7.64539
-7.69127
-7.73824
-7.78524
-7.83156
-7.87674
-7.9205
-7.96274
-8.00346
-8.04272
-8.08063
-8.1173
-8.15284
-8.18734
-8.22086
-8.25347
-8.28519
-8.31604
-8.34601
-8.37509
-8.40325
-8.43044
-8.45662
-8.48172
-8.50568
-8.52843
-8.54989
-8.56998
-8.58863
-8.60574
-8.62123
-8.63501
-8.64699
-8.65706
-8.66514
-8.67112
-8.6749
-8.67637
-8.67542
-8.67193
-8.66579
-8.65686
-8.64501
-8.63011
-8.612
-8.59054
-8.56556
-8.5369
-8.50438
-8.46781
-8.427
-8.38176
-8.33187
-8.27713
-8.21731
-8.1522
-8.08157
-8.00519
-7.92283
-7.83425
-7.73923
-7.63754
-7.52894
-7.41322
-7.29017
-7.15959
-7.02131
-6.87518
-6.72108
-6.55895
-6.38875
-6.21049
-6.02426
-5.8302
-5.62851
-5.41947
-5.20343
-4.98081
-4.75211
-4.51788
-4.27875
-4.03539
-3.78851
-3.53888
-3.28726
-3.03441
-2.7811
-2.52804
-2.27589
-2.02526
-1.77654
-1.53036
-1.2861
-1.04607
-0.803547
-0.576499
-0.312767
-0.164765
-7.57939
-7.61623
-7.65642
-7.69896
-7.7427
-7.78678
-7.83059
-7.87366
-7.91569
-7.95654
-7.99614
-8.0345
-8.07168
-8.10772
-8.14272
-8.17672
-8.20979
-8.24196
-8.27325
-8.30367
-8.33322
-8.36187
-8.38959
-8.41635
-8.44209
-8.46675
-8.49028
-8.51259
-8.53362
-8.55329
-8.57151
-8.5882
-8.60328
-8.61665
-8.62822
-8.6379
-8.64558
-8.65117
-8.65455
-8.65563
-8.65429
-8.65041
-8.64387
-8.63455
-8.62231
-8.60701
-8.58851
-8.56665
-8.54127
-8.5122
-8.47928
-8.44232
-8.40112
-8.35549
-8.30523
-8.25013
-8.18997
-8.12454
-8.05361
-7.97696
-7.89437
-7.8056
-7.71042
-7.60862
-7.49998
-7.38427
-7.26131
-7.13089
-6.99287
-6.84709
-6.69345
-6.53188
-6.36236
-6.1849
-5.99958
-5.80655
-5.60601
-5.39824
-5.18356
-4.96239
-4.73522
-4.50258
-4.26508
-4.02336
-3.77813
-3.53011
-3.28005
-3.02868
-2.77673
-2.52491
-2.27384
-2.02412
-1.77611
-1.53044
-1.2865
-1.04655
-0.804043
-0.576637
-0.313062
-0.164499
-7.59467
-7.62928
-7.66679
-7.70645
-7.74734
-7.78879
-7.83025
-7.87129
-7.91162
-7.95105
-7.98948
-8.02687
-8.06322
-8.09858
-8.13296
-8.16642
-8.19898
-8.23067
-8.2615
-8.29147
-8.32057
-8.34877
-8.37605
-8.40237
-8.42766
-8.45188
-8.47497
-8.49684
-8.51743
-8.53667
-8.55447
-8.57074
-8.5854
-8.59836
-8.60952
-8.61879
-8.62607
-8.63126
-8.63425
-8.63494
-8.6332
-8.62893
-8.622
-8.61228
-8.59964
-8.58395
-8.56504
-8.54278
-8.517
-8.48754
-8.45421
-8.41685
-8.37527
-8.32926
-8.27863
-8.22317
-8.16267
-8.09692
-8.0257
-7.94879
-7.86596
-7.77699
-7.68167
-7.57977
-7.47108
-7.3554
-7.23253
-7.10229
-6.96452
-6.8191
-6.66592
-6.50491
-6.33606
-6.1594
-5.975
-5.78299
-5.5836
-5.37707
-5.16374
-4.94401
-4.71835
-4.48728
-4.25139
-4.0113
-3.76769
-3.52127
-3.27274
-3.02283
-2.77223
-2.52163
-2.27163
-2.02281
-1.77552
-1.53035
-1.28675
-1.0469
-0.804455
-0.57669
-0.313434
-0.164012
-7.60864
-7.64131
-7.67652
-7.71367
-7.75206
-7.79112
-7.8304
-7.86953
-7.90819
-7.94619
-7.98342
-8.01978
-8.05527
-8.08986
-8.12358
-8.15644
-8.18845
-8.21963
-8.24996
-8.27946
-8.30809
-8.33583
-8.36266
-8.38852
-8.41336
-8.43714
-8.45977
-8.48121
-8.50136
-8.52017
-8.53753
-8.55338
-8.56762
-8.58017
-8.59092
-8.59979
-8.60666
-8.61145
-8.61405
-8.61434
-8.61221
-8.60754
-8.60022
-8.5901
-8.57706
-8.56097
-8.54166
-8.519
-8.49282
-8.46296
-8.42924
-8.39149
-8.34951
-8.30313
-8.25213
-8.19632
-8.13549
-8.06942
-7.99791
-7.92074
-7.83768
-7.74853
-7.65306
-7.55107
-7.44234
-7.32669
-7.20391
-7.07385
-6.93635
-6.79128
-6.63856
-6.47811
-6.30994
-6.13406
-5.95056
-5.75958
-5.56131
-5.35602
-5.14402
-4.92571
-4.70154
-4.47202
-4.23771
-3.99923
-3.75722
-3.51236
-3.26535
-3.01687
-2.76761
-2.51821
-2.26927
-2.02134
-1.77476
-1.53011
-1.28686
-1.04711
-0.804777
-0.576662
-0.313853
-0.163354
-7.62143
-7.6524
-7.68561
-7.72058
-7.75675
-7.79366
-7.83094
-7.86825
-7.9053
-7.9419
-7.9779
-8.01322
-8.04779
-8.08158
-8.11459
-8.14681
-8.17823
-8.20886
-8.23867
-8.26767
-8.29581
-8.32308
-8.34944
-8.37484
-8.39923
-8.42255
-8.44474
-8.46572
-8.48544
-8.50381
-8.52075
-8.53617
-8.54999
-8.56212
-8.57246
-8.58092
-8.58739
-8.59178
-8.59398
-8.59387
-8.59135
-8.58629
-8.57857
-8.56805
-8.55462
-8.53813