/*--------------------------------*- C++ -*----------------------------------*\
| =========                 |                                                 |
| \\      /  F ield         | OpenFOAM: The Open Source CFD Toolbox           |
|  \\    /   O peration     | Version:  4.1                                   |
|   \\  /    A nd           | Web:      www.OpenFOAM.org                      |
|    \\/     M anipulation  |                                                 |
\*---------------------------------------------------------------------------*/
FoamFile
{
    version     2.0;
    format      ascii;
    class       surfaceScalarField;
    location    "2000";
    object      phi;
}
// * * * * * * * * * * * * * * * * * * * * * * * * * * * * * * * * * * * * * //

dimensions      [0 3 -1 0 0 0 0];

internalField   nonuniform List<scalar> 
13452
(
5.98811e-05
3.87334e-07
5.95252e-05
3.55937e-07
5.92696e-05
2.55585e-07
5.90615e-05
2.08069e-07
5.88793e-05
1.82251e-07
5.87167e-05
1.62632e-07
5.85688e-05
1.47864e-07
5.84321e-05
1.36719e-07
5.83044e-05
1.27687e-07
5.81843e-05
1.20051e-07
5.80708e-05
1.13552e-07
5.79628e-05
1.08021e-07
5.78594e-05
1.03318e-07
5.77601e-05
9.9344e-08
5.76641e-05
9.60334e-08
5.75707e-05
9.33481e-08
5.74794e-05
9.12726e-08
5.73896e-05
8.98149e-08
5.73006e-05
8.901e-08
5.72117e-05
8.89258e-08
5.7122e-05
8.96748e-08
5.70306e-05
9.14338e-08
5.69361e-05
9.44801e-08
5.68368e-05
9.92569e-08
5.67303e-05
1.06502e-07
5.66128e-05
1.17503e-07
5.64781e-05
1.34721e-07
5.63153e-05
1.62861e-07
5.61016e-05
2.13709e-07
5.57939e-05
3.07685e-07
5.52643e-05
5.29564e-07
5.4215e-05
1.04935e-06
1.53825e-06
5.26767e-05
6.20749e-05
3.02761e-07
6.19987e-05
4.3211e-07
6.18517e-05
4.02672e-07
6.16884e-05
3.7129e-07
6.15293e-05
3.41403e-07
6.13798e-05
3.12135e-07
6.12402e-05
2.87431e-07
6.11095e-05
2.67431e-07
6.09864e-05
2.50746e-07
6.087e-05
2.36517e-07
6.07592e-05
2.2431e-07
6.06534e-05
2.13817e-07
6.05519e-05
2.04801e-07
6.04542e-05
1.97098e-07
6.03596e-05
1.90601e-07
6.02677e-05
1.85245e-07
6.0178e-05
1.81002e-07
6.00899e-05
1.77885e-07
6.0003e-05
1.75949e-07
5.99166e-05
1.75302e-07
5.98302e-05
1.76122e-07
5.97429e-05
1.78685e-07
5.9654e-05
1.83416e-07
5.95623e-05
1.9097e-07
5.94664e-05
2.02395e-07
5.93645e-05
2.19385e-07
5.92542e-05
2.4503e-07
5.91328e-05
2.84267e-07
5.89971e-05
3.49329e-07
5.88509e-05
4.53978e-07
5.87172e-05
6.63235e-07
5.87641e-05
1.00247e-06
1.63626e-06
5.86661e-05
6.38373e-05
2.26834e-07
6.38685e-05
4.00966e-07
6.38445e-05
4.26692e-07
6.37851e-05
4.30684e-07
6.37048e-05
4.21708e-07
6.36142e-05
4.02681e-07
6.35198e-05
3.81813e-07
6.34248e-05
3.62428e-07
6.33308e-05
3.44801e-07
6.32384e-05
3.28906e-07
6.31479e-05
3.14753e-07
6.30595e-05
3.02264e-07
6.2973e-05
2.91332e-07
6.28882e-05
2.81873e-07
6.2805e-05
2.73838e-07
6.2723e-05
2.6721e-07
6.2642e-05
2.62002e-07
6.25616e-05
2.58271e-07
6.24814e-05
2.56127e-07
6.2401e-05
2.55742e-07
6.23197e-05
2.57381e-07
6.2237e-05
2.61436e-07
6.21519e-05
2.68485e-07
6.20635e-05
2.79395e-07
6.19704e-05
2.95499e-07
6.18709e-05
3.18848e-07
6.1763e-05
3.52908e-07
6.16445e-05
4.02809e-07
6.15146e-05
4.7924e-07
6.13757e-05
5.9284e-07
6.12583e-05
7.80685e-07
6.12264e-05
1.03433e-06
1.47465e-06
6.1388e-05
6.5637e-05
1.7289e-07
6.56889e-05
3.49049e-07
6.57122e-05
4.03389e-07
6.57127e-05
4.30227e-07
6.56932e-05
4.41244e-07
6.5658e-05
4.37834e-07
6.56121e-05
4.27722e-07
6.5559e-05
4.15497e-07
6.55012e-05
4.02588e-07
6.54404e-05
3.89749e-07
6.53776e-05
3.77552e-07
6.53135e-05
3.66314e-07
6.52487e-05
3.56193e-07
6.51833e-05
3.47292e-07
6.51174e-05
3.39699e-07
6.50511e-05
3.33501e-07
6.49843e-05
3.28804e-07
6.49168e-05
3.25743e-07
6.48485e-05
3.24506e-07
6.47789e-05
3.25349e-07
6.47076e-05
3.28628e-07
6.46342e-05
3.34846e-07
6.4558e-05
3.44712e-07
6.44781e-05
3.59247e-07
6.43937e-05
3.79953e-07
6.43035e-05
4.09027e-07
6.42065e-05
4.49888e-07
6.4102e-05
5.07268e-07
6.39919e-05
5.89413e-07
6.38809e-05
7.03861e-07
6.37918e-05
8.69775e-07
6.37498e-05
1.07626e-06
1.36364e-06
6.38609e-05
6.74946e-05
1.35101e-07
6.75432e-05
3.00462e-07
6.75779e-05
3.6861e-07
6.76013e-05
4.06837e-07
6.76127e-05
4.29922e-07
6.76119e-05
4.38597e-07
6.76009e-05
4.38743e-07
6.75815e-05
4.34829e-07
6.75555e-05
4.28606e-07
6.75242e-05
4.21096e-07
6.74886e-05
4.13143e-07
6.74496e-05
4.05327e-07
6.74077e-05
3.9802e-07
6.73635e-05
3.91499e-07
6.73172e-05
3.8599e-07
6.7269e-05
3.81698e-07
6.7219e-05
3.78828e-07
6.71672e-05
3.77605e-07
6.71134e-05
3.78301e-07
6.70575e-05
3.81254e-07
6.69992e-05
3.86906e-07
6.69382e-05
3.95844e-07
6.6874e-05
4.08869e-07
6.68062e-05
4.27077e-07
6.67341e-05
4.52006e-07
6.66574e-05
4.85783e-07
6.65758e-05
5.31451e-07
6.64902e-05
5.92921e-07
6.64037e-05
6.75932e-07
6.63224e-05
7.8514e-07
6.62632e-05
9.28906e-07
6.6242e-05
1.09746e-06
1.29611e-06
6.63096e-05
6.94108e-05
1.08307e-07
6.9452e-05
2.5932e-07
6.94866e-05
3.33952e-07
6.95155e-05
3.77936e-07
6.95381e-05
4.07332e-07
6.95532e-05
4.23504e-07
6.95611e-05
4.30882e-07
6.95624e-05
4.33512e-07
6.95578e-05
4.33185e-07
6.9548e-05
4.30917e-07
6.95335e-05
4.27577e-07
6.9515e-05
4.23824e-07
6.94929e-05
4.20126e-07
6.94676e-05
4.16848e-07
6.94393e-05
4.14305e-07
6.94082e-05
4.12783e-07
6.93745e-05
4.12561e-07
6.93381e-05
4.13938e-07
6.92992e-05
4.1725e-07
6.92575e-05
4.229e-07
6.9213e-05
4.31391e-07
6.91655e-05
4.43362e-07
6.91148e-05
4.59648e-07
6.90605e-05
4.81344e-07
6.90026e-05
5.09903e-07
6.89411e-05
5.47224e-07
6.88768e-05
5.95789e-07
6.88112e-05
6.58522e-07
6.87481e-05
7.39014e-07
6.86937e-05
8.39562e-07
6.86601e-05
9.62505e-07
6.86579e-05
1.09966e-06
1.24524e-06
6.87088e-05
7.13857e-05
8.89853e-08
7.14198e-05
2.25201e-07
7.14515e-05
3.02224e-07
7.148e-05
3.49479e-07
7.1505e-05
3.82273e-07
7.15256e-05
4.02955e-07
7.15414e-05
4.1503e-07
7.15528e-05
4.22139e-07
7.15599e-05
4.26118e-07
7.15628e-05
4.27965e-07
7.15619e-05
4.28508e-07
7.15573e-05
4.28401e-07
7.15493e-05
4.28134e-07
7.1538e-05
4.28098e-07
7.15237e-05
4.28642e-07
7.15064e-05
4.30088e-07
7.14862e-05
4.32757e-07
7.14632e-05
4.36986e-07
7.14373e-05
4.43151e-07
7.14085e-05
4.51689e-07
7.13767e-05
4.6313e-07
7.1342e-05
4.78123e-07
7.13041e-05
4.97484e-07
7.12632e-05
5.22236e-07
7.12195e-05
5.53663e-07
7.11734e-05
5.93333e-07
7.1126e-05
6.43115e-07
7.10796e-05
7.04976e-07
7.10378e-05
7.8085e-07
7.1006e-05
8.71351e-07
7.09927e-05
9.75818e-07
7.10048e-05
1.08752e-06
1.19855e-06
7.10515e-05
7.34195e-05
7.47527e-08
7.34477e-05
1.97002e-07
7.34761e-05
2.73791e-07
7.35027e-05
3.22951e-07
7.35272e-05
3.57769e-07
7.35488e-05
3.81363e-07
7.35672e-05
3.9664e-07
7.35825e-05
4.0684e-07
7.35947e-05
4.13849e-07
7.3604e-05
4.18695e-07
7.36103e-05
4.22186e-07
7.36137e-05
4.24968e-07
7.36143e-05
4.27534e-07
7.36122e-05
4.30283e-07
7.36072e-05
4.33571e-07
7.35996e-05
4.37732e-07
7.35892e-05
4.431e-07
7.35762e-05
4.50027e-07
7.35605e-05
4.58899e-07
7.3542e-05
4.7016e-07
7.35208e-05
4.84332e-07
7.34969e-05
5.02038e-07
7.34703e-05
5.24027e-07
7.34414e-05
5.51198e-07
7.34104e-05
5.84613e-07
7.33783e-05
6.25472e-07
7.33463e-05
6.75061e-07
7.33168e-05
7.34527e-07
7.3293e-05
8.04628e-07
7.32794e-05
8.84914e-07
7.32818e-05
9.73434e-07
7.33046e-05
1.06471e-06
1.15166e-06
7.33515e-05
7.55132e-05
6.40164e-08
7.55366e-05
1.73646e-07
7.55619e-05
2.48461e-07
7.55863e-05
2.98522e-07
7.56095e-05
3.34609e-07
7.56306e-05
3.60225e-07
7.56494e-05
3.77878e-07
7.56658e-05
3.90401e-07
7.568e-05
3.99672e-07
7.56919e-05
4.0677e-07
7.57016e-05
4.12503e-07
7.57091e-05
4.17521e-07
7.57143e-05
4.22327e-07
7.57172e-05
4.27328e-07
7.57179e-05
4.32884e-07
7.57163e-05
4.39332e-07
7.57124e-05
4.47008e-07
7.57062e-05
4.56262e-07
7.56976e-05
4.67473e-07
7.56867e-05
4.8107e-07
7.56735e-05
4.97541e-07
7.56581e-05
5.17451e-07
7.56406e-05
5.41454e-07
7.56215e-05
5.70291e-07
7.56014e-05
6.0478e-07
7.55811e-05
6.45766e-07
7.55621e-05
6.94026e-07
7.55466e-05
7.50068e-07
7.55373e-05
8.13878e-07
7.55378e-05
8.84415e-07
7.55519e-05
9.59338e-07
7.55824e-05
1.03424e-06
1.10357e-06
7.56305e-05
7.76679e-05
5.5712e-08
7.76873e-05
1.54198e-07
7.77099e-05
2.25938e-07
7.77323e-05
2.76065e-07
7.7754e-05
3.12885e-07
7.77743e-05
3.39934e-07
7.77928e-05
3.59439e-07
7.78093e-05
3.73842e-07
7.7824e-05
3.84948e-07
7.78369e-05
3.93866e-07
7.7848e-05
4.01408e-07
7.78573e-05
4.0823e-07
7.78648e-05
4.14847e-07
7.78705e-05
4.21676e-07
7.78743e-05
4.29084e-07
7.78762e-05
4.37409e-07
7.78762e-05
4.46983e-07
7.78743e-05
4.58147e-07
7.78705e-05
4.71263e-07
7.78649e-05
4.86728e-07
7.78574e-05
5.04982e-07
7.78484e-05
5.26513e-07
7.7838e-05
5.51859e-07
7.78267e-05
5.81596e-07
7.78151e-05
6.16304e-07
7.78044e-05
6.56508e-07
7.77959e-05
7.0258e-07
7.77914e-05
7.54563e-07
7.77933e-05
8.1198e-07
7.78041e-05
8.73527e-07
7.78266e-05
9.36916e-07
7.78622e-05
9.98657e-07
1.05459e-06
7.79111e-05
7.98849e-05
4.91246e-08
7.99012e-05
1.37872e-07
7.99213e-05
2.05908e-07
7.99419e-05
2.55412e-07
7.99623e-05
2.92519e-07
7.99817e-05
3.20542e-07
7.99996e-05
3.41493e-07
8.0016e-05
3.57462e-07
8.00308e-05
3.70129e-07
8.00441e-05
3.80604e-07
8.00558e-05
3.89694e-07
8.0066e-05
3.98053e-07
8.00746e-05
4.06203e-07
8.00817e-05
4.1457e-07
8.00873e-05
4.23523e-07
8.00913e-05
4.334e-07
8.00937e-05
4.44526e-07
8.00947e-05
4.57227e-07
8.00941e-05
4.7184e-07
8.00921e-05
4.88723e-07
8.00888e-05
5.08255e-07
8.00845e-05
5.30841e-07
8.00795e-05
5.569e-07
8.00742e-05
5.86843e-07
8.00695e-05
6.21039e-07
8.00662e-05
6.59748e-07
8.00658e-05
7.03035e-07
8.00697e-05
7.50639e-07
8.00798e-05
8.01832e-07
8.00981e-05
8.5526e-07
8.01262e-05
9.08877e-07
8.01649e-05
9.5995e-07
1.00544e-06
8.0214e-05
8.21658e-05
4.37695e-08
8.21796e-05
1.24028e-07
8.21975e-05
1.88064e-07
8.22165e-05
2.36392e-07
8.22356e-05
2.73394e-07
8.22542e-05
3.02005e-07
8.22716e-05
3.24046e-07
8.22878e-05
3.41308e-07
8.23026e-05
3.55317e-07
8.2316e-05
3.67153e-07
8.23281e-05
3.77607e-07
8.23389e-05
3.8732e-07
8.23482e-05
3.96813e-07
8.23563e-05
4.06514e-07
8.2363e-05
4.16788e-07
8.23685e-05
4.2797e-07
8.23726e-05
4.40372e-07
8.23755e-05
4.54301e-07
8.23773e-05
4.70062e-07
8.23781e-05
4.87967e-07
8.2378e-05
5.08334e-07
8.23774e-05
5.31479e-07
8.23766e-05
5.57707e-07
8.23761e-05
5.87283e-07
8.23768e-05
6.20395e-07
8.23794e-05
6.57098e-07
8.23852e-05
6.97244e-07
8.23955e-05
7.40386e-07
8.24116e-05
7.85698e-07
8.2435e-05
8.31896e-07
8.24666e-05
8.77237e-07
8.25069e-05
9.19601e-07
9.56784e-07
8.25556e-05
8.45122e-05
3.93144e-08
8.45241e-05
1.12152e-07
8.45401e-05
1.72106e-07
8.45576e-05
2.1884e-07
8.45756e-05
2.55393e-07
8.45934e-05
2.84255e-07
8.46103e-05
3.07064e-07
8.46263e-05
3.25358e-07
8.46411e-05
3.40503e-07
8.46547e-05
3.5352e-07
8.46672e-05
3.65177e-07
8.46784e-05
3.76091e-07
8.46884e-05
3.86774e-07
8.46973e-05
3.97644e-07
8.4705e-05
4.09061e-07
8.47117e-05
4.21347e-07
8.47172e-05
4.34797e-07
8.47218e-05
4.49693e-07
8.47256e-05
4.66305e-07
8.47287e-05
4.84897e-07
8.47313e-05
5.05722e-07
8.47337e-05
5.29014e-07
8.47365e-05
5.54972e-07
8.474e-05
5.83736e-07
8.47451e-05
6.15352e-07
8.47524e-05
6.49725e-07
8.47631e-05
6.8657e-07
8.47782e-05
7.25348e-07
8.47986e-05
7.65226e-07
8.48255e-05
8.05052e-07
8.48593e-05
8.43384e-07
8.49003e-05
8.78594e-07
9.09087e-07
8.4948e-05
8.6926e-05
3.55278e-08
8.69363e-05
1.01832e-07
8.69506e-05
1.57758e-07
8.69669e-05
2.02593e-07
8.69839e-05
2.38395e-07
8.70009e-05
2.67212e-07
8.70175e-05
2.90496e-07
8.70333e-05
3.09572e-07
8.70481e-05
3.25645e-07
8.7062e-05
3.39667e-07
8.70748e-05
3.52366e-07
8.70865e-05
3.64334e-07
8.70973e-05
3.76058e-07
8.7107e-05
3.87946e-07
8.71157e-05
4.00343e-07
8.71235e-05
4.13552e-07
8.71304e-05
4.27849e-07
8.71366e-05
4.43483e-07
8.71422e-05
4.60689e-07
8.71475e-05
4.79681e-07
8.71525e-05
5.0065e-07
8.71578e-05
5.23752e-07
8.71637e-05
5.49098e-07
8.71707e-05
5.76725e-07
8.71795e-05
6.06573e-07
8.71907e-05
6.38445e-07
8.72053e-05
6.71979e-07
8.72241e-05
7.0661e-07
8.72477e-05
7.41552e-07
8.7277e-05
7.75807e-07
8.73122e-05
8.08208e-07
8.73532e-05
8.3751e-07
8.62563e-07
8.73998e-05
8.94088e-05
3.22453e-08
8.94179e-05
9.27442e-08
8.94309e-05
1.44763e-07
8.9446e-05
1.87485e-07
8.94621e-05
2.22282e-07
8.94785e-05
2.50791e-07
8.94948e-05
2.74282e-07
8.95104e-05
2.93898e-07
8.95254e-05
3.10695e-07
8.95395e-05
3.25541e-07
8.95528e-05
3.39119e-07
8.95651e-05
3.51986e-07
8.95766e-05
3.64604e-07
8.95871e-05
3.77358e-07
8.95969e-05
3.90574e-07
8.96059e-05
4.04534e-07
8.96143e-05
4.19486e-07
8.96221e-05
4.35651e-07
8.96296e-05
4.53221e-07
8.96369e-05
4.72364e-07
8.96444e-05
4.93212e-07
8.96522e-05
5.15856e-07
8.9661e-05
5.40331e-07
8.96711e-05
5.66597e-07
8.96832e-05
5.94517e-07
8.96978e-05
6.23836e-07
8.97156e-05
6.54156e-07
8.97373e-05
6.84927e-07
8.97634e-05
7.15441e-07
8.97944e-05
7.44856e-07
8.98303e-05
7.72241e-07
8.98712e-05
7.96648e-07
8.17249e-07
8.99165e-05
9.19628e-05
2.93468e-08
9.19709e-05
8.46274e-08
9.19827e-05
1.32892e-07
9.19969e-05
1.73359e-07
9.20122e-05
2.06932e-07
9.20281e-05
2.349e-07
9.2044e-05
2.58354e-07
9.20597e-05
2.7828e-07
9.20748e-05
2.95596e-07
9.20892e-05
3.11084e-07
9.2103e-05
3.25374e-07
9.2116e-05
3.38982e-07
9.21282e-05
3.52339e-07
9.21398e-05
3.65805e-07
9.21507e-05
3.7968e-07
9.2161e-05
3.94221e-07
9.21708e-05
4.09649e-07
9.21803e-05
4.26148e-07
9.21897e-05
4.43876e-07
9.21991e-05
4.62952e-07
9.22088e-05
4.8346e-07
9.22193e-05
5.05434e-07
9.22307e-05
5.2885e-07
9.22437e-05
5.53611e-07
9.22587e-05
5.79533e-07
9.22762e-05
6.06328e-07
9.22968e-05
6.336e-07
9.23209e-05
6.60835e-07
9.23489e-05
6.87416e-07
9.23811e-05
7.12645e-07
9.24176e-05
7.35788e-07
9.24581e-05
7.56126e-07
7.73067e-07
9.25023e-05
9.45898e-05
2.67425e-08
9.45971e-05
7.72735e-08
9.46081e-05
1.21938e-07
9.46214e-05
1.60056e-07
9.46361e-05
1.92222e-07
9.46515e-05
2.19441e-07
9.46673e-05
2.42636e-07
9.46829e-05
2.62653e-07
9.46982e-05
2.80289e-07
9.4713e-05
2.96236e-07
9.47273e-05
3.11068e-07
9.47411e-05
3.25256e-07
9.47542e-05
3.39196e-07
9.47668e-05
3.53216e-07
9.47789e-05
3.6759e-07
9.47906e-05
3.82547e-07
9.48019e-05
3.98276e-07
9.48132e-05
4.14931e-07
9.48244e-05
4.3263e-07
9.48359e-05
4.51454e-07
9.48479e-05
4.71442e-07
9.48608e-05
4.92583e-07
9.48748e-05
5.1481e-07
9.48904e-05
5.37987e-07
9.49081e-05
5.61903e-07
9.49281e-05
5.86265e-07
9.4951e-05
6.10693e-07
9.49771e-05
6.34727e-07
9.50067e-05
6.57839e-07
9.50399e-05
6.79461e-07
9.50767e-05
6.99017e-07
9.51168e-05
7.15969e-07
7.29891e-07
9.516e-05
9.72919e-05
2.43635e-08
9.72987e-05
7.05128e-08
9.73089e-05
1.11719e-07
9.73215e-05
1.47424e-07
9.73357e-05
1.78029e-07
9.73508e-05
2.04312e-07
9.73664e-05
2.27043e-07
9.73821e-05
2.46947e-07
9.73977e-05
2.64708e-07
9.7413e-05
2.80935e-07
9.74279e-05
2.96138e-07
9.74425e-05
3.10744e-07
9.74565e-05
3.25108e-07
9.74702e-05
3.39526e-07
9.74836e-05
3.54242e-07
9.74967e-05
3.69455e-07
9.75096e-05
3.85323e-07
9.75226e-05
4.01968e-07
9.75357e-05
4.19475e-07
9.75493e-05
4.37889e-07
9.75635e-05
4.57213e-07
9.75787e-05
4.77402e-07
9.75952e-05
4.98358e-07
9.76132e-05
5.19923e-07
9.76333e-05
5.41877e-07
9.76556e-05
5.63934e-07
9.76805e-05
5.85744e-07
9.77084e-05
6.06905e-07
9.77392e-05
6.26975e-07
9.77732e-05
6.45496e-07
9.78102e-05
6.62022e-07
9.785e-05
6.76149e-07
6.87577e-07
9.78923e-05
0.000100071
2.21546e-08
0.000100078
6.42053e-08
0.000100087
1.0207e-07
0.000100099
1.35319e-07
0.000100113
1.64229e-07
0.000100128
1.89405e-07
0.000100144
2.11485e-07
0.000100159
2.31083e-07
0.000100175
2.48783e-07
0.000100191
2.65111e-07
0.000100207
2.80518e-07
0.000100222
2.9538e-07
0.000100237
3.10013e-07
0.000100252
3.24676e-07
0.000100267
3.39581e-07
0.000100281
3.54897e-07
0.000100296
3.70753e-07
0.000100311
3.87241e-07
0.000100326
4.04414e-07
0.000100341
4.22289e-07
0.000100358
4.4084e-07
0.000100375
4.59997e-07
0.000100394
4.79641e-07
0.000100414
4.99607e-07
0.000100436
5.19675e-07
0.000100461
5.39577e-07
0.000100487
5.59003e-07
0.000100517
5.77605e-07
0.000100549
5.95021e-07
0.000100583
6.10884e-07
0.00010062
6.24851e-07
0.00010066
6.36623e-07
6.45989e-07
0.000100702
0.00010293
2.00711e-08
0.000102936
5.82329e-08
0.000102945
9.28467e-08
0.000102957
1.23599e-07
0.000102971
1.50696e-07
0.000102985
1.7461e-07
0.000103001
1.95865e-07
0.000103017
2.14975e-07
0.000103033
2.32436e-07
0.00010305
2.48694e-07
0.000103066
2.64141e-07
0.000103083
2.79101e-07
0.000103099
2.9385e-07
0.000103115
3.0861e-07
0.000103131
3.2356e-07
0.000103147
3.38838e-07
0.000103163
3.54546e-07
0.00010318
3.70746e-07
0.000103196
3.87467e-07
0.000103214
4.04701e-07
0.000103233
4.22399e-07
0.000103252
4.40475e-07
0.000103273
4.58802e-07
0.000103295
4.77211e-07
0.000103319
4.95494e-07
0.000103346
5.13407e-07
0.000103374
5.30679e-07
0.000103405
5.47018e-07
0.000103437
5.62126e-07
0.000103473
5.75716e-07
0.00010351
5.87526e-07
0.000103549
5.97335e-07
6.05e-07
0.00010359
0.000105871
1.8075e-08
0.000105876
5.24934e-08
0.000105885
8.39143e-08
0.000105897
1.1213e-07
0.00010591
1.37305e-07
0.000105925
1.59813e-07
0.000105941
1.80079e-07
0.000105957
1.98532e-07
0.000105974
2.15583e-07
0.000105991
2.31608e-07
0.000106008
2.46936e-07
0.000106026
2.61844e-07
0.000106043
2.76563e-07
0.00010606
2.91279e-07
0.000106078
3.06138e-07
0.000106095
3.2125e-07
0.000106113
3.36687e-07
0.000106131
3.5249e-07
0.00010615
3.68662e-07
0.00010617
3.85176e-07
0.00010619
4.01969e-07
0.000106212
4.18946e-07
0.000106235
4.35974e-07
0.000106259
4.52892e-07
0.000106285
4.69507e-07
0.000106313
4.85604e-07
0.000106342
5.00946e-07
0.000106374
5.15293e-07
0.000106408
5.28406e-07
0.000106443
5.40058e-07
0.000106481
5.50054e-07
0.00010652
5.58231e-07
5.64496e-07
0.000106561
0.000108895
1.61332e-08
0.000108901
4.68964e-08
0.00010891
7.51497e-08
0.000108921
1.00778e-07
0.000108934
1.23927e-07
0.000108949
1.44893e-07
0.000108965
1.64019e-07
0.000108982
1.81655e-07
0.000109
1.98137e-07
0.000109018
2.13772e-07
0.000109036
2.28832e-07
0.000109054
2.43543e-07
0.000109072
2.58095e-07
0.000109091
2.72636e-07
0.00010911
2.87281e-07
0.000109129
3.02111e-07
0.000109149
3.17173e-07
0.000109169
3.32485e-07
0.000109189
3.48032e-07
0.000109211
3.63773e-07
0.000109233
3.79634e-07
0.000109256
3.95514e-07
0.000109281
4.11286e-07
0.000109307
4.26795e-07
0.000109335
4.41869e-07
0.000109364
4.56319e-07
0.000109395
4.69946e-07
0.000109428
4.82551e-07
0.000109462
4.93945e-07
0.000109498
5.03953e-07
0.000109536
5.12429e-07
0.000109575
5.19256e-07
5.24377e-07
0.000109615
0.000112006
1.42156e-08
0.000112012
4.13586e-08
0.000112021
6.64359e-08
0.000112032
8.94148e-08
0.000112046
1.10432e-07
0.000112061
1.29726e-07
0.000112077
1.47569e-07
0.000112095
1.64239e-07
0.000112113
1.80001e-07
0.000112131
1.95101e-07
0.00011215
2.09752e-07
0.00011217
2.24133e-07
0.00011219
2.38391e-07
0.00011221
2.52638e-07
0.00011223
2.66959e-07
0.000112251
2.81406e-07
0.000112272
2.96004e-07
0.000112293
3.10751e-07
0.000112316
3.25618e-07
0.000112339
3.40552e-07
0.000112363
3.55474e-07
0.000112389
3.70281e-07
0.000112415
3.84852e-07
0.000112443
3.99047e-07
0.000112472
4.12711e-07
0.000112502
4.25681e-07
0.000112535
4.37793e-07
0.000112568
4.48886e-07
0.000112603
4.58808e-07
0.00011264
4.67428e-07
0.000112678
4.74637e-07
0.000112717
4.80355e-07
4.8455e-07
0.000112756
0.000115206
1.22941e-08
0.000115212
3.58009e-08
0.000115221
5.76589e-08
0.000115232
7.79087e-08
0.000115246
9.6686e-08
0.000115262
1.14182e-07
0.000115278
1.30606e-07
0.000115297
1.46169e-07
0.000115315
1.61075e-07
0.000115335
1.75505e-07
0.000115355
1.89619e-07
0.000115376
2.03547e-07
0.000115397
2.17396e-07
0.000115418
2.31244e-07
0.00011544
2.45143e-07
0.000115462
2.59121e-07
0.000115485
2.73183e-07
0.000115509
2.8731e-07
0.000115533
3.01461e-07
0.000115558
3.15573e-07
0.000115584
3.29565e-07
0.000115611
3.43338e-07
0.000115639
3.56778e-07
0.000115668
3.69758e-07
0.000115698
3.82144e-07
0.00011573
3.93798e-07
0.000115764
4.04582e-07
0.000115798
4.14369e-07
0.000115834
4.2304e-07
0.000115871
4.30497e-07
0.000115909
4.3666e-07
0.000115948
4.41477e-07
4.44933e-07
0.000115987
0.000118498
1.03407e-08
0.000118503
3.01447e-08
0.000118512
4.87032e-08
0.000118524
6.61247e-08
0.000118538
8.25469e-08
0.000118554
9.81197e-08
0.000118572
1.12996e-07
0.000118591
1.27326e-07
0.000118611
1.41248e-07
0.000118631
1.54886e-07
0.000118653
1.68347e-07
0.000118674
1.81715e-07
0.000118697
1.95054e-07
0.00011872
2.0841e-07
0.000118743
2.21806e-07
0.000118767
2.35247e-07
0.000118791
2.48718e-07
0.000118816
2.62186e-07
0.000118842
2.75599e-07
0.000118869
2.88891e-07
0.000118897
3.01979e-07
0.000118925
3.14769e-07
0.000118955
3.27155e-07
0.000118985
3.39025e-07
0.000119017
3.50264e-07
0.00011905
3.60754e-07
0.000119085
3.70385e-07
0.00011912
3.79054e-07
0.000119156
3.86671e-07
0.000119194
3.93162e-07
0.000119232
3.98473e-07
0.000119271
4.02568e-07
4.05447e-07
0.00011931
0.000121883
8.3266e-09
0.000121889
2.43081e-08
0.000121898
3.94476e-08
0.000121911
5.39186e-08
0.000121925
6.78619e-08
0.000121942
8.1389e-08
0.00012196
9.45969e-08
0.00012198
1.07574e-07
0.000122001
1.204e-07
0.000122023
1.3314e-07
0.000122045
1.45848e-07
0.000122068
1.58561e-07
0.000122092
1.71307e-07
0.000122116
1.84095e-07
0.000122141
1.96923e-07
0.000122167
2.09774e-07
0.000122193
2.22614e-07
0.00012222
2.35399e-07
0.000122247
2.48071e-07
0.000122276
2.60557e-07
0.000122305
2.72779e-07
0.000122335
2.84645e-07
0.000122366
2.96061e-07
0.000122398
3.06928e-07
0.000122431
3.17146e-07
0.000122465
3.26619e-07
0.0001225
3.35257e-07
0.000122537
3.4298e-07
0.000122574
3.49718e-07
0.000122611
3.55418e-07
0.00012265
3.60044e-07
0.000122689
3.63575e-07
3.66021e-07
0.000122728
0.000125366
6.22018e-09
0.000125372
1.82014e-08
0.000125381
2.97584e-08
0.000125394
4.11312e-08
0.00012541
5.24625e-08
0.000125427
6.38222e-08
0.000125446
7.52491e-08
0.000125467
8.67702e-08
0.000125489
9.84027e-08
0.000125512
1.10154e-07
0.000125536
1.22025e-07
0.000125561
1.34008e-07
0.000125586
1.46091e-07
0.000125612
1.58253e-07
0.000125638
1.70465e-07
0.000125665
1.82688e-07
0.000125693
1.94875e-07
0.000125721
2.0697e-07
0.000125751
2.18909e-07
0.00012578
2.30618e-07
0.000125811
2.4202e-07
0.000125843
2.5303e-07
0.000125875
2.63563e-07
0.000125909
2.73532e-07
0.000125943
2.82853e-07
0.000125978
2.91446e-07
0.000126014
2.99239e-07
0.000126051
3.0617e-07
0.000126089
3.12186e-07
0.000126127
3.17251e-07
0.000126165
3.21342e-07
0.000126205
3.24447e-07
3.26582e-07
0.000126244
0.000128947
3.98499e-09
0.000128954
1.17205e-08
0.000128964
1.94816e-08
0.000128978
2.75801e-08
0.000128994
3.61565e-08
0.000129013
4.52302e-08
0.000129033
5.47745e-08
0.000129055
6.47503e-08
0.000129078
7.51107e-08
0.000129103
8.5803e-08
0.000129128
9.67734e-08
0.000129154
1.0797e-07
0.000129181
1.19341e-07
0.000129208
1.30836e-07
0.000129236
1.424e-07
0.000129265
1.53975e-07
0.000129294
1.65501e-07
0.000129324
1.76913e-07
0.000129355
1.88141e-07
0.000129387
1.99111e-07
0.000129419
2.09748e-07
0.000129452
2.19974e-07
0.000129486
2.29712e-07
0.00012952
2.38888e-07
0.000129556
2.47429e-07
0.000129592
2.55271e-07
0.000129629
2.62355e-07
0.000129666
2.68635e-07
0.000129705
2.74071e-07
0.000129743
2.7864e-07
0.000129782
2.82326e-07
0.000129822
2.85128e-07
2.87065e-07
0.000129861
0.000132631
1.57647e-09
0.000132638
4.73855e-09
0.00013265
8.43065e-09
0.000132664
1.30479e-08
0.000132681
1.87189e-08
0.000132701
2.53945e-08
0.000132723
3.29693e-08
0.000132747
4.13309e-08
0.000132771
5.03631e-08
0.000132797
5.99487e-08
0.000132824
6.99779e-08
0.000132852
8.03525e-08
0.00013288
9.09837e-08
0.000132909
1.01789e-07
0.000132939
1.12692e-07
0.000132969
1.23616e-07
0.000133
1.34489e-07
0.000133032
1.45237e-07
0.000133064
1.55786e-07
0.000133097
1.66064e-07
0.000133131
1.75998e-07
0.000133165
1.85516e-07
0.0001332
1.9455e-07
0.000133236
2.03033e-07
0.000133273
2.10907e-07
0.00013331
2.18118e-07
0.000133348
2.24619e-07
0.000133386
2.30375e-07
0.000133425
2.35359e-07
0.000133464
2.39554e-07
0.000133503
2.42954e-07
0.000133543
2.45562e-07
2.47398e-07
0.000133582
0.000136421
-1.06305e-09
0.000136429
-2.90854e-09
0.000136441
-3.63115e-09
0.000136456
-2.73413e-09
0.000136475
-1.21411e-10
0.000136497
4.05688e-09
0.00013652
9.59649e-09
0.000136545
1.63014e-08
0.000136571
2.39778e-08
0.000136599
3.24375e-08
0.000136627
4.15113e-08
0.000136657
5.10537e-08
0.000136687
6.09384e-08
0.000136717
7.1054e-08
0.000136749
8.13002e-08
0.000136781
9.1586e-08
0.000136814
1.01827e-07
0.000136847
1.11942e-07
0.000136881
1.21857e-07
0.000136915
1.31498e-07
0.000136951
1.40796e-07
0.000136986
1.49684e-07
0.000137023
1.58101e-07
0.00013706
1.65992e-07
0.000137097
1.73304e-07
0.000137136
1.79996e-07
0.000137174
1.8603e-07
0.000137213
1.9138e-07
0.000137252
1.96026e-07
0.000137292
1.99959e-07
0.000137332
2.03178e-07
0.000137372
2.05689e-07
2.07515e-07
0.000137412
0.000140319
-4.01242e-09
0.000140327
-1.14445e-08
0.000140341
-1.70186e-08
0.000140358
-2.01099e-08
0.000140379
-2.06991e-08
0.000140402
-1.90931e-08
0.000140427
-1.56235e-08
0.000140454
-1.05827e-08
0.000140482
-4.25381e-09
0.000140511
3.09475e-09
0.000140542
1.12302e-08
0.000140573
1.99585e-08
0.000140605
2.91163e-08
0.000140637
3.85633e-08
0.00014067
4.81782e-08
0.000140704
5.7855e-08
0.000140738
6.74997e-08
0.000140773
7.70269e-08
0.000140809
8.63588e-08
0.000140845
9.54235e-08
0.000140881
1.04155e-07
0.000140919
1.12493e-07
0.000140956
1.20382e-07
0.000140995
1.27774e-07
0.000141033
1.34625e-07
0.000141072
1.40902e-07
0.000141112
1.46575e-07
0.000141152
1.51624e-07
0.000141192
1.56036e-07
0.000141232
1.59807e-07
0.000141272
1.62939e-07
0.000141312
1.6544e-07
1.67331e-07
0.000141352
0.000144328
-7.38591e-09
0.000144338
-2.11911e-08
0.000144353
-3.21677e-08
0.000144372
-3.95322e-08
0.000144395
-4.34375e-08
0.00014442
-4.44372e-08
0.000144448
-4.30231e-08
0.000144477
-3.96012e-08
0.000144507
-3.45629e-08
0.000144538
-2.82697e-08
0.000144571
-2.10214e-08
0.000144604
-1.30599e-08
0.000144637
-4.58483e-09
0.000144672
4.23615e-09
0.000144707
1.32626e-08
0.000144742
2.23756e-08
0.000144778
3.14731e-08
0.000144815
4.0466e-08
0.000144852
4.92752e-08
0.000144889
5.78308e-08
0.000144928
6.60702e-08
0.000144966
7.39379e-08
0.000145005
8.13849e-08
0.000145044
8.83691e-08
0.000145084
9.48549e-08
0.000145124
1.00814e-07
0.000145165
1.06223e-07
0.000145205
1.11069e-07
0.000145246
1.15343e-07
0.000145287
1.19043e-07
0.000145327
1.22175e-07
0.000145368
1.2475e-07
1.26787e-07
0.000145409
0.000148452
-1.13592e-08
0.000148463
-3.26414e-08
0.000148481
-4.9706e-08
0.000148503
-6.1602e-08
0.000148528
-6.88744e-08
0.000148556
-7.24585e-08
0.000148586
-7.30245e-08
0.000148618
-7.11057e-08
0.000148651
-6.72329e-08
0.000148684
-6.18789e-08
0.000148719
-5.5415e-08
0.000148754
-4.81306e-08
0.000148789
-4.02604e-08
0.000148826
-3.19971e-08
0.000148862
-2.34971e-08
0.0001489
-1.48892e-08
0.000148937
-6.28048e-09
0.000148976
2.23774e-09
0.000149014
1.05874e-08
0.000149053
1.87011e-08
0.000149093
2.65204e-08
0.000149133
3.39948e-08
0.000149173
4.10811e-08
0.000149214
4.7743e-08
0.000149255
5.39508e-08
0.000149296
5.96812e-08
0.000149337
6.49174e-08
0.000149379
6.96484e-08
0.00014942
7.38694e-08
0.000149462
7.75808e-08
0.000149503
8.07879e-08
0.000149544
8.34997e-08
8.57354e-08
0.000149585
0.000152694
-1.62141e-08
0.000152708
-4.65947e-08
0.000152729
-7.05934e-08
0.000152754
-8.71459e-08
0.000152783
-9.76725e-08
0.000152814
-1.03699e-07
0.000152847
-1.06073e-07
0.000152882
-1.05469e-07
0.000152917
-1.0259e-07
0.000152953
-9.80268e-08
0.00015299
-9.22157e-08
0.000153027
-8.54913e-08
0.000153065
-7.81223e-08
0.000153104
-7.03238e-08
0.000153142
-6.22657e-08
0.000153182
-5.40832e-08
0.000153221
-4.58869e-08
0.000153261
-3.77678e-08
0.000153302
-2.98016e-08
0.000153342
-2.20519e-08
0.000153383
-1.45723e-08
0.000153425
-7.40798e-09
0.000153467
-5.96456e-10
0.000153508
5.83144e-09
0.000153551
1.18512e-08
0.000153593
1.74444e-08
0.000153635
2.2598e-08
0.000153677
2.73048e-08
0.00015372
3.15623e-08
0.000153762
3.53733e-08
0.000153804
3.87451e-08
0.000153846
4.16895e-08
4.42241e-08
0.000153887
0.000157058
-2.24708e-08
0.000157075
-6.43537e-08
0.000157101
-9.62549e-08
0.000157131
-1.17418e-07
0.000157165
-1.30955e-07
0.0001572
-1.39096e-07
0.000157237
-1.42853e-07
0.000157275
-1.43158e-07
0.000157313
-1.40951e-07
0.000157352
-1.36939e-07
0.000157391
-1.31602e-07
0.000157431
-1.25303e-07
0.000157471
-1.18332e-07
0.000157512
-1.10915e-07
0.000157553
-1.03224e-07
0.000157594
-9.53958e-08
0.000157636
-8.75386e-08
0.000157678
-7.97401e-08
0.00015772
-7.20721e-08
0.000157763
-6.45937e-08
0.000157805
-5.73536e-08
0.000157848
-5.03921e-08
0.000157891
-4.37422e-08
0.000157935
-3.74304e-08
0.000157978
-3.14774e-08
0.000158021
-2.58984e-08
0.000158065
-2.0704e-08
0.000158108
-1.59001e-08
0.000158151
-1.14886e-08
0.000158194
-7.46808e-09
0.000158236
-3.83445e-09
0.000158279
-5.82378e-10
2.3017e-09
0.000158321
0.000161547
-3.13515e-08
0.000161572
-8.85721e-08
0.000161604
-1.28384e-07
0.00016164
-1.53372e-07
0.000161678
-1.69781e-07
0.000161719
-1.79955e-07
0.000161761
-1.84814e-07
0.000161804
-1.85679e-07
0.000161847
-1.83808e-07
0.00016189
-1.80018e-07
0.000161933
-1.74832e-07
0.000161976
-1.68651e-07
0.00016202
-1.61785e-07
0.000162063
-1.54469e-07
0.000162107
-1.46874e-07
0.000162151
-1.39133e-07
0.000162194
-1.31351e-07
0.000162238
-1.23611e-07
0.000162282
-1.15979e-07
0.000162326
-1.08511e-07
0.00016237
-1.0125e-07
0.000162414
-9.42335e-08
0.000162458
-8.74902e-08
0.000162501
-8.10438e-08
0.000162545
-7.49125e-08
0.000162588
-6.91095e-08
0.000162631
-6.36435e-08
0.000162673
-5.85192e-08
0.000162716
-5.37372e-08
0.000162758
-4.92942e-08
0.000162799
-4.51828e-08
0.00016284
-4.13907e-08
-3.79076e-08
0.00016288
0.000166166
-4.41069e-08
0.000166205
-1.26809e-07
0.000166249
-1.7307e-07
0.000166295
-1.99459e-07
0.000166343
-2.17453e-07
0.000166392
-2.28634e-07
0.000166441
-2.33765e-07
0.00016649
-2.34603e-07
0.000166538
-2.32565e-07
0.000166587
-2.28445e-07
0.000166635
-2.22772e-07
0.000166682
-2.15985e-07
0.000166729
-2.08433e-07
0.000166775
-2.00374e-07
0.00016682
-1.92003e-07
0.000166864
-1.83471e-07
0.000166908
-1.74895e-07
0.00016695
-1.66369e-07
0.000166992
-1.57966e-07
0.000167034
-1.49744e-07
0.000167074
-1.41748e-07
0.000167114
-1.34014e-07
0.000167153
-1.2657e-07
0.000167191
-1.19436e-07
0.000167229
-1.12626e-07
0.000167266
-1.06152e-07
0.000167302
-1.00019e-07
0.000167338
-9.42295e-08
0.000167373
-8.87831e-08
0.000167408
-8.36779e-08