/*--------------------------------*- C++ -*----------------------------------*\
| =========                 |                                                 |
| \\      /  F ield         | OpenFOAM: The Open Source CFD Toolbox           |
|  \\    /   O peration     | Version:  4.1                                   |
|   \\  /    A nd           | Web:      www.OpenFOAM.org                      |
|    \\/     M anipulation  |                                                 |
\*---------------------------------------------------------------------------*/
FoamFile
{
    version     2.0;
    format      ascii;
    class       volScalarField;
    location    "400";
    object      p;
}
// * * * * * * * * * * * * * * * * * * * * * * * * * * * * * * * * * * * * * //

dimensions      [0 2 -2 0 0 0 0];

internalField   nonuniform List<scalar> 
26785
(
-6.48205
-3.18564
-0.793449
0.758959
2.12687
3.32785
4.31895
5.1552
5.87481
6.49248
7.01436
7.42678
7.70646
7.85801
7.92515
7.95977
7.9885
8.01048
8.03491
8.09084
8.18605
8.32381
8.51413
8.76026
9.06291
9.42162
9.83499
10.3009
10.8167
11.3793
11.9856
12.6326
13.318
14.0403
14.7986
15.5924
16.419
17.2717
18.1367
18.9933
19.8151
20.572
21.2291
21.7439
22.0621
22.1137
21.8114
21.0511
19.7126
17.6627
14.7611
10.8753
5.90345
-0.195068
-7.36601
-15.4255
-24.0289
-32.6587
-40.5769
-46.875
-50.8814
-52.3292
-51.316
-48.3701
-44.295
-39.8285
-35.4524
-31.4101
-27.7908
-24.6009
-21.8082
-19.367
-17.2297
-15.3526
-13.6977
-12.2327
-10.9308
-9.76979
-8.7312
-7.7997
-6.96244
-6.20853
-5.52866
-4.91473
-4.35965
-3.85713
-3.40149
-2.98763
-2.61089
-2.26706
-1.95224
-1.66312
-1.39623
-1.14983
-0.918954
-0.708497
-0.497865
-0.337968
-0.0801625
-0.191777
-6.47419
-3.18026
-0.791324
0.760491
2.12875
3.32929
4.32006
5.15597
5.87485
6.49108
7.01076
7.42083
7.69906
7.8507
7.91941
7.95654
7.98759
8.01005
8.03377
8.08901
8.18337
8.32
8.50939
8.75472
9.05661
9.41454
9.82712
10.2922
10.8071
11.3688
11.9742
12.6202
13.3045
14.0257
14.7831
15.5759
16.4018
17.254
18.1187
18.975
19.7964
20.5528
21.2093
21.7235
22.041
22.0918
21.7885
21.0267
19.6861
17.6335
14.7286
10.8391
5.86304
-0.24012
-7.41651
-15.4847
-24.1045
-32.7625
-40.7275
-47.08
-51.1334
-52.6164
-51.6059
-48.625
-44.4972
-39.9809
-35.566
-31.4959
-27.8572
-24.6537
-21.8514
-19.4031
-17.2606
-15.3795
-13.7214
-12.254
-10.9502
-9.78772
-8.74796
-7.81553
-6.97753
-6.223
-5.54259
-4.92818
-4.37263
-3.86962
-3.41346
-2.99904
-2.62169
-2.27719
-1.96165
-1.67176
-1.40405
-1.15681
-0.925052
-0.713802
-0.50238
-0.341726
-0.0864313
-0.18801
-6.47145
-3.17202
-0.788425
0.762396
2.13166
3.33157
4.32188
5.15694
5.87387
6.48696
7.0025
7.40845
7.68437
7.83685
7.90978
7.9533
7.98961
8.01331
8.03518
8.08835
8.18103
8.31582
8.50372
8.74761
9.04799
9.40433
9.81524
10.2786
10.7916
11.3514
11.9546
12.5985
13.2806
13.9995
14.7545
15.545
16.3686
17.2186
18.081
18.9345
19.7527
20.5052
21.1572
21.6666
21.9791
22.0248
21.7163
20.9494
19.6045
17.5486
14.6424
10.7539
5.78169
-0.314938
-7.48272
-15.545
-24.1712
-32.8623
-40.9237
-47.4267
-51.6025
-53.1704
-52.1745
-49.1296
-44.8995
-40.2854
-35.7941
-31.669
-27.9918
-24.7611
-21.9394
-19.4769
-17.3236
-15.4343
-13.7699
-12.2976
-10.9899
-9.8243
-8.78211
-7.84774
-7.00814
-6.25229
-5.57072
-4.95523
-4.39865
-3.89458
-3.43732
-3.0217
-2.64304
-2.29713
-1.98005
-1.68853
-1.41908
-1.17006
-0.936407
-0.723447
-0.510152
-0.348207
-0.0938174
-0.184448
-6.47241
-3.15615
-0.781578
0.766643
2.13683
3.33542
4.32476
5.15808
5.87174
6.48013
6.98983
7.39026
7.66359
7.81824
7.89841
7.9509
7.99213
8.01497
8.03332
8.08461
8.1758
8.30782
8.49303
8.73463
9.03307
9.38762
9.79672
10.2581
10.7691
11.3267
11.9276
12.5691
13.2486
13.9648
14.7168
15.5041
16.3242
17.1702
18.028
18.8763
19.6883
20.4338
21.078
21.5789
21.8825
21.9186
21.6001
20.8227
19.4675
17.4028
14.4906
10.6006
5.63282
-0.452605
-7.60194
-15.6433
-24.2572
-32.9584
-41.1018
-47.7908
-52.1397
-53.8644
-52.9402
-49.84
-45.4805
-40.7313
-36.1304
-31.9247
-28.1901
-24.9189
-22.0682
-19.5845
-17.4155
-15.5143
-13.8408
-12.3614
-11.0482
-9.87827
-8.83259
-7.89537
-7.05341
-6.2955
-5.61208
-4.99485
-4.43654
-3.93071
-3.4716
-3.05401
-2.67324
-2.32506
-2.00557
-1.71152
-1.43941
-1.18772
-0.951272
-0.735831
-0.519742
-0.356151
-0.100818
-0.182804
-6.47826
-3.13624
-0.77375
0.771148
2.14277
3.33984
4.32778
5.15811
5.86683
6.4691
6.97189
7.36645
7.63807
7.79674
7.88537
7.94528
7.98884
8.00928
8.02448
8.07501
8.16483
8.29477
8.47898
8.71982
9.01715
9.3702
9.77744
10.2367
10.7453
11.3002
11.8982
12.5365
13.2127
13.9252
14.6733
15.456
16.2709
17.1108
17.9615
18.8014
19.6036
20.3377
20.9692
21.4562
21.7449
21.7651
21.4296
20.6347
19.2626
17.1835
14.2617
10.3695
5.40942
-0.656987
-7.77483
-15.7762
-24.3559
-33.0424
-41.2411
-48.1328
-52.7055
-54.6279
-53.8372
-50.7086
-46.2076
-41.2967
-36.5602
-32.2529
-28.4454
-25.1224
-22.2345
-19.7238
-17.5348
-15.6185
-13.9335
-12.4452
-11.1249
-9.94939
-8.89915
-7.95814
-7.11294
-6.35216
-5.6661
-5.04634
-4.48553
-3.97714
-3.51535
-3.09495
-2.7112
-2.35988
-2.0371
-1.73962
-1.46397
-1.20876
-0.968661
-0.75001
-0.53021
-0.364706
-0.106261
-0.183212
-6.47755
-3.10932
-0.763424
0.776988
2.15012
3.3451
4.33034
5.15577
5.8579
6.45306
6.94863
7.33786
7.60911
7.77291
7.86923
7.93412
7.97768
7.99488
8.00893
8.06191
8.15207
8.28116
8.46444
8.70394
8.99958
9.35063
9.75559
10.2123
10.718
11.2697
11.8642
12.4988
13.1709
13.8789
14.6219
15.3988
16.2068
17.0385
17.8794
18.7077
19.4964
20.2151
20.8297
21.2986
21.568
21.5677
21.2104
20.3929
18.9986
16.9003
13.9652
10.0696
5.11922
-0.922484
-7.99898
-15.9447
-24.4693
-33.1151
-41.3258
-48.3991
-53.2492
-55.3772
-54.7874
-51.6795
-47.0433
-41.9565
-37.0663
-32.6417
-28.7492
-25.3653
-22.4337
-19.8912
-17.6787
-15.7448
-14.0462
-12.5473
-11.2188
-10.0365
-8.98067
-8.03494
-7.1856
-6.42109
-5.73153
-5.10839
-4.54421
-4.03239
-3.56707
-3.14298
-2.75538
-2.40005
-2.07311
-1.77138
-1.4914
-1.23192
-0.987478
-0.765035
-0.540764
-0.373266
-0.109416
-0.186248
-6.47059
-3.07664
-0.751342
0.783871
2.15847
3.35041
4.33131
5.15
5.84431
6.43189
6.9206
7.30556
7.57753
7.74659
7.84956
7.91749
7.95917
7.97307
7.98895
8.0467
8.13663
8.26522
8.44767
8.68585
8.97979
9.32883
9.73146
10.1855
10.6882
11.2365
11.8273
12.4576
13.1251
13.8279
14.5649
15.3346
16.1341
16.9555
17.784
18.5977
19.3696
20.0695
20.6637
21.1109
21.3573
21.3326
20.9493
20.1046
18.6836
16.5619
13.6108
9.71085
4.77224
-1.23914
-8.26532
-16.1415
-24.5931
-33.1786
-41.3631
-48.5702
-53.7312
-56.0595
-55.7275
-52.7038
-47.953
-42.6857
-37.631
-33.0786
-29.0924
-25.6411
-22.661
-20.0831
-17.8445
-15.8909
-14.1772
-12.6665
-11.3284
-10.1383
-9.07596
-8.12457
-7.27019
-6.50105
-5.80711
-5.1797
-4.61127
-4.09514
-3.6254
-3.19676
-2.80446
-2.44429
-2.11241
-1.80567
-1.52064
-1.25624
-1.00682
-0.780079
-0.550687
-0.381143
-0.109687
-0.191715
-6.46816
-3.04167
-0.739788
0.790414
2.16682
3.35448
4.32934
5.13994
5.82583
6.40596
6.88867
7.27045
7.54361
7.71709
7.82512
7.89441
7.93331
7.94455
7.96593
8.02996
8.11919
8.24764
8.42926
8.66598
8.9581
9.30502
9.70522
10.1565
10.656
11.2007
11.7875
12.4134
13.0758
13.7729
14.503
15.2645
16.054
16.8632
17.6772
18.4737
19.2259
19.9041
20.4749
20.8975
21.1181
21.0661
20.6537
19.7786
18.3274
16.1793
13.2099
9.30491
4.37983
-1.59656
-8.56529
-16.3609
-24.7234
-33.2327
-41.3594
-48.6382
-54.1109
-56.658
-56.6062
-53.7361
-48.9036
-43.4605
-38.2369
-33.5509
-29.4659
-25.9432
-22.9114
-20.2958
-18.0292
-16.0544
-14.3244
-12.8007
-11.4521
-10.2533
-9.18345
-8.2255
-7.36518
-6.59051
-5.89129
-5.25872
-4.68516
-4.16385
-3.68884
-3.25481
-2.85701
-2.49123
-2.15367
-1.84126
-1.55059
-1.28074
-1.02591
-0.794508
-0.559572
-0.388023
-0.10728
-0.199318
-6.46747
-2.99975
-0.725614
0.79846
2.17559
3.35668
4.32366
5.12535
5.80278
6.37598
6.85375
7.23315
7.50721
7.68377
7.7957
7.86594
7.90222
7.91183
7.94121
8.01136
8.09996
8.22839
8.40901
8.64412
8.93432
9.27906
9.67679
10.1252
10.6215
11.1625
11.7451
12.3663
13.0234
13.7142
14.4369
15.1893
15.9676
16.7632
17.5608
18.3379
19.0681
19.7221
20.2672
20.6629
20.8555
20.7739
20.3303
19.4223
17.9389
15.7624
12.7735
8.86339
3.95359
-1.98365
-8.88903
-16.5959
-24.8563
-33.2769
-41.3268
-48.615
-54.3645
-57.1914
-57.3894
-54.7367
-49.8648
-44.2583
-38.8675
-34.0465
-29.8607
-26.2647
-23.1798
-20.5252
-18.2296
-16.2326
-14.4853
-12.9478
-11.5879
-10.3795
-9.30139
-8.33601
-7.46887
-6.6878
-5.98243
-5.34384
-4.76428
-4.23696
-3.75587
-3.31567
-2.91163
-2.53958
-2.19574
-1.87711
-1.58035
-1.30468
-1.04414
-0.807877
-0.567188
-0.39369
-0.102655
-0.208245
-6.47137
-2.9571
-0.712356
0.806372
2.18334
3.35559
4.31348
5.10627
5.77568
6.34282
6.81666
7.19396
7.46819
7.64658
7.76201
7.83373
7.86824
7.87802
7.91573
7.99049
8.07902
8.20747
8.38691
8.62027
8.90847
9.25099
9.6462
10.0917
10.5846
11.1219
11.7002
12.3165
12.968
13.6522
14.3669
15.1096
15.8758
16.6565
17.436
18.1919
18.8981
19.526
20.0435
20.4105
20.5733
20.4607
19.9843
19.0424
17.5256
15.3201
12.3115
8.39693
3.50429
-2.39011
-9.22727
-16.8395
-24.9874
-33.3088
-41.2707
-48.5176
-54.4894
-57.6576
-58.0417
-55.6665
-50.8078
-45.058
-39.5071
-34.5538
-30.2682
-26.5992
-23.461
-20.7673
-18.4422
-16.4227
-14.6576
-13.1057
-11.7338
-10.515
-9.42781
-8.45419
-7.57943
-6.79112
-6.07877
-5.43333
-4.84698
-4.31287
-3.82496
-3.37792
-2.96702
-2.58815
-2.23756
-1.91236
-1.60923
-1.32756
-1.06122
-0.820044
-0.573621
-0.398253
-0.0966358
-0.21783
-6.46237
-2.91259
-0.700356
0.81358
2.18852
3.34973
4.29835
5.08298
5.74524
6.30734
6.77796
7.15304
7.42657
7.60593
7.72491
7.799
7.83267
7.84471
7.89038
7.96769
8.05666
8.18492
8.36292
8.59438
8.8805
9.22077
9.61343
10.056
10.5455
11.0788
11.6527
12.264
12.9097
13.5871
14.2935
15.0258
15.7791
16.5438
17.3039
18.0371
18.7176
19.3177
19.806
20.1429
20.2748
20.1301
19.6201
18.6437
17.0935
14.8594
11.8321
7.91471
3.04145
-2.80667
-9.57142
-17.0848
-25.1128
-33.3259
-41.1961
-48.3661
-54.482
-58.0201
-58.5403
-56.4913
-51.7065
-45.8402
-40.141
-35.0617
-30.68
-26.9401
-23.75
-21.0177
-18.6635
-16.6214
-14.8383
-13.2717
-11.8872
-10.6576
-9.56062
-8.57805
-7.6949
-6.8986
-6.1785
-5.52547
-4.93161
-4.39003
-3.89469
-3.44025
-3.02204
-2.63596
-2.27837
-1.94641
-1.63682
-1.34912
-1.07705
-0.831039
-0.579073
-0.40189
-0.0899846
-0.227364
-6.43577
-2.86475
-0.688635
0.820815
2.19137
3.33982
4.27921
5.05628
5.71226
6.2702
6.73799
7.11053
7.38258
7.56246
7.68536
7.76268
7.79676
7.81204
7.86591
7.94386
8.03319
8.16077
8.33703
8.56644
8.85041
9.18838
9.57845
10.018
10.504
11.0334
11.6027
12.2088
12.8485
13.5188
14.2166
14.9381
15.6778
16.4256
17.1652
17.8743
18.5278
19.0988
19.5565
19.8622
19.9623
19.7847
19.2409
18.2301
16.6472
14.3859
11.3419
7.42405
2.5729
-3.22555
-9.91406
-17.3257
-25.2288
-33.3255
-41.1018
-48.1735
-54.3657
-58.2849
-58.9194
-57.205
-52.5449
-46.5894
-40.7566
-35.5603
-31.0881
-27.2812
-24.0415
-21.2723
-18.8899
-16.8257
-15.0248
-13.4432
-12.0459
-10.805
-9.69764
-8.7055
-7.81331
-7.00834
-6.27982
-5.61856
-5.0166
-4.46702
-3.96378
-3.50158
-3.07577
-2.68232
-2.31762
-1.9789
-1.66293
-1.36935
-1.09175
-0.841081
-0.583901
-0.404928
-0.083484
-0.236371
-6.40759
-2.81847
-0.680307
0.825659
2.19043
3.32606
4.25694
5.02697
5.6775
6.23191
6.69697
7.06661
7.33671
7.51701
7.64424
7.72541
7.76141
7.78073
7.84331
7.92007
8.00887
8.13503
8.30922
8.53643
8.81819
9.15382
9.54125
9.97772
10.4602
10.9854
11.5501
12.1509
12.7845
13.4475
14.1364
14.8468
15.5723
16.3024
17.0204
17.7043
18.3296
18.8702
19.2965
19.57
19.6374
19.4267
18.8488
17.8042
16.1899
13.9035
10.8456
6.93058
2.10478
-3.64057
-10.2492
-17.5568
-25.3319
-33.3053
-40.988
-47.9558
-54.1596
-58.4025
-59.1891
-57.7984
-53.3089
-47.2926
-41.3425
-36.0403
-31.4853
-27.6164
-24.3308
-21.5269
-19.1177
-17.0323
-15.214
-13.6176
-12.2073
-10.9547
-9.83666
-8.83446
-7.9327
-7.11851
-6.38105
-5.71106
-5.10056
-4.54263
-4.03123
-3.56109
-3.12759
-2.72676
-2.35505
-2.00973
-1.68761
-1.38838
-1.10555
-0.850465
-0.58848
-0.407692
-0.0777588
-0.244456
-6.37616
-2.7684
-0.673439
0.827911
2.18558
3.30918
4.23223
4.99576
5.64156
6.1928
6.65509
7.02163
7.28963
7.47048
7.60241
7.68784
7.7267
7.75198
7.82201
7.89648
7.98363
8.10766
8.27948
8.50437
8.78385
9.11707
9.50179
9.93508
10.4138
10.9348
11.4947
12.0901
12.7175
13.3731
14.0528
14.7517
15.4626
16.1744
16.87
17.5276
18.1236
18.633
19.0268
19.2675
19.3018
19.0574
18.4457
17.368
15.7241
13.4152
10.3467
6.43841
1.64172
-4.04697
-10.5722
-17.7739
-25.4193
-33.2637
-40.8517
-47.7117
-53.8664
-58.3816
-59.4321
-58.2914
-53.9919
-47.9392
-41.8891
-36.4935
-31.8647
-27.9402
-24.6128
-21.7772
-19.3433
-17.238
-15.4029
-13.7921
-12.369
-11.1046
-9.97553
-8.96293
-8.0512
-7.22742
-6.48066
-5.80164
-5.18237
-4.61592
-4.09627
-3.6182
-3.17712
-2.7691
-2.39061
-2.03898
-1.71102
-1.40648
-1.11877
-0.859539
-0.593208
-0.410529
-0.0733425
-0.251384
-6.34582
-2.71871
-0.669947
0.826582
2.17696
3.28986
4.20566
4.96329
5.60489
6.15309
6.61253
6.97598
7.24203
7.42368
7.56042
7.65061
7.69335
7.72683
7.79996
7.87208
7.95713
8.07861
8.24785
8.4703
8.7474
9.07813
9.46001
9.88999
10.3649
10.8815
11.4365
12.0263
12.6473
13.2954
13.9658
14.6529
15.3488
16.0416
16.714
17.3446
17.9105
18.3878
18.7485
18.9556
18.9563
18.6782
18.0329
16.923
15.2513
12.923
9.84782
5.95056
1.18713
-4.44124
-10.8794
-17.9736
-25.4886
-33.1996
-40.6916
-47.4504
-53.5303
-58.291
-59.6755
-58.6778
-54.5805
-48.5182
-42.387
-36.9124
-32.2199
-28.247
-24.8831
-22.0194
-19.5632
-17.4395
-15.5888
-13.9642
-12.5285
-11.2523
-10.1122
-9.08905
-8.16717
-7.3336
-6.57738
-5.88922
-5.26113
-4.68619
-4.15843
-3.67262
-3.22422
-2.80931
-2.42441
-2.06683
-1.73343
-1.42395
-1.13176
-0.868649
-0.598441
-0.413735
-0.070627
-0.256988
-6.30186
-2.6719
-0.672922
0.820197
2.16467
3.26853
4.17766
4.93007
5.5678
6.11296
6.56952
6.93006
7.19452
7.37729
7.51853
7.61386
7.66234
7.70425
7.77577
7.84625
7.92921
8.04789
8.2144
8.43427
8.70887
9.03697
9.41586
9.84236
10.3132
10.8253
11.3752
11.9593
12.5739
13.2143
13.8752
14.5502
15.2307
15.904
16.5527
17.1555
17.6905
18.1351
18.4621
18.6352
18.602
18.29
17.6115
16.4705
14.7732
12.4286
9.35078
5.46919
0.743501
-4.82079
-11.1685
-18.153
-25.5378
-33.1118
-40.5057
-47.1707
-53.1527
-58.0816
-59.7972
-58.9096
-55.0532
-49.0179
-42.8282
-37.2902
-32.5452
-28.5319
-25.1372
-22.2495
-19.7739
-17.6339
-15.7689
-14.1313
-12.6835
-11.3959
-10.2449
-9.2112
-8.27918
-7.43583
-6.6702
-5.97299
-5.33624
-4.75305
-4.21745
-3.72425
-3.2689
-2.84753
-2.45664
-2.09356
-1.75514
-1.44111
-1.14482
-0.878115
-0.604491
-0.417574
-0.0699065
-0.261173
-6.23749
-2.62486
-0.679996
0.810655
2.14975
3.24551
4.14864
4.89648
5.53051
6.0726
6.52629
6.8842
7.14759
7.33166
7.4771
7.57792
7.63465
7.682
7.74914
7.81915
7.9
8.01565
8.17922
8.39636
8.66829
8.99356
9.36925
9.79205
10.2587
10.7661
11.3107
11.8891
12.497
13.1295
13.7808
14.4435
15.1082
15.7616
16.386
16.9604
17.4641
17.8755
18.1683
18.3071
18.2395
17.8937
17.1824
16.0116
14.2909
11.9333
8.85709
4.99594
0.312632
-5.18376
-11.4375
-18.3103
-25.5654
-32.9997
-40.2928
-46.87
-52.7334
-57.7487
-59.775
-58.9884
-55.404
-49.4322
-43.2067
-37.6213
-32.8356
-28.7904
-25.3711
-22.464
-19.9723
-17.8183
-15.9406
-14.2911
-12.8321
-11.5336
-10.372
-9.32802
-8.38609
-7.53318
-6.75838
-6.05242
-5.40734
-4.81628
-4.27328
-3.77313
-3.31133
-2.88398
-2.48758
-2.11946
-1.77645
-1.45827
-1.15826
-0.88821
-0.611606
-0.422246
-0.0713721
-0.263883
-6.17271
-2.583
-0.691871
0.799442
2.13317
3.2211
4.11896
4.86279
5.49317
6.03219
6.48308
6.83872
7.10163
7.287
7.43645
7.54342
7.6102
7.65942
7.72072
7.79127
7.86972
7.98202
8.14243
8.35663
8.62566
8.94785
9.32008
9.73895
10.2012
10.7037
11.2429
11.8153
12.4164
13.041
13.6824
14.3325
14.9811
15.6142
16.2138
16.7595
17.2314
17.6092
17.8676
17.9717
17.8698
17.4902
16.7466
15.5472
13.8054
11.4384
8.36795
4.53203
-0.104174
-5.52883
-11.6851
-18.4439
-25.5699
-32.863
-40.0516
-46.5473
-52.2863
-57.3496
-59.7054
-58.9631
-55.6418
-49.7605
-43.5191
-37.9016
-33.0868
-29.0186
-25.5814
-22.6597
-20.1555
-17.9902
-16.1018
-14.4418
-12.9725
-11.6638
-10.4922
-9.43846
-8.48704
-7.62499
-6.84146
-6.1272
-5.47429
-4.87587
-4.32598
-3.81944
-3.35172
-2.9189
-2.5175
-2.1448
-1.79763
-1.47568
-1.17232
-0.899152
-0.619967
-0.427899
-0.0751275
-0.265102
-6.10767
-2.54419
-0.707697
0.78745
2.11533
3.19562
4.08894
4.82914
5.45594
5.99194
6.44013
6.79387
7.05694
7.24339
7.39691
7.51079
7.58719
7.6363
7.69149
7.76305
7.83853
7.9471
8.10411
8.31512
8.58097
8.89977
9.26825
9.68293
10.1406
10.6379
11.1717
11.7379
12.3321
12.9484
13.5797
14.217
14.8491
15.4616
16.0362
16.5527
16.9927
17.3368
17.5605
17.6297
17.4933
17.08
16.3049
15.0783
13.3179
10.9448
7.88437
4.07835
-0.506053
-5.85513
-11.9105
-18.5528
-25.5503
-32.7012
-39.781
-46.204
-51.8251
-56.9081
-59.5936
-58.8558
-55.7794
-50.0062
-43.7643
-38.1281
-33.2955
-29.2132
-25.7649
-22.8338
-20.3211
-18.1474
-16.2504
-14.5817
-13.1033
-11.7854
-10.6046
-9.54176
-8.58147
-7.71088
-6.9192
-6.19724
-5.53709
-4.93192
-4.37575
-3.86339
-3.39031
-2.95257
-2.54665
-2.16984
-1.81894
-1.49356
-1.18717
-0.911099
-0.629687
-0.434622
-0.0811889
-0.264848
-6.04834
-2.51024
-0.725972
0.775273
2.0963
3.16937
4.0588
4.79565
5.41896
5.95203
6.39767
6.74988
7.01369
7.20089
7.35879
7.48007
7.56449
7.61233
7.66202
7.73472
7.80648
7.91096
8.06431
8.27184
8.53418
8.84926
9.21369
9.62394
10.0767
10.5689
11.0969
11.6568
12.2438
12.8517
13.4726
14.0967
14.712
15.3037
15.8529
16.3402
16.7482
17.0585
17.2474
17.2817
17.1108
16.6641
15.8581
14.6058
12.8294
10.4536
7.40717
3.63549
-0.892543
-6.16225
-12.1136
-18.6364
-25.5057
-32.5138
-39.48
-45.8362
-51.3472
-56.4142
-59.3649
-58.6587
-55.8311
-50.1756
-43.9429
-38.299
-33.4589
-29.3713
-25.9189
-22.984
-20.467
-18.2881
-16.3851
-14.7094
-13.2234
-11.8976
-10.7085
-9.63743
-8.66904
-7.79064
-6.99153
-6.26256
-5.59586
-4.98459
-4.42278
-3.90522
-3.42735
-2.98522
-2.57528
-2.19478
-1.84054
-1.51207
-1.20295
-0.924141
-0.64081
-0.442448
-0.0894888
-0.263175
-5.98179
-2.48691
-0.747069
0.762893
2.07617
3.14268
4.02869
4.7624
5.38236
5.91264
6.3559
6.70691
6.97191
7.15969
7.32214
7.45061
7.54179
7.58716
7.63254
7.70623
7.77348
7.87356
8.02301
8.22675
8.48523
8.79627
9.15637
9.56196
10.0097
10.4964
11.0185
11.5719
12.1515
12.7507
13.3608
13.9714
14.5697
15.1402
15.664
16.1221
16.498
16.7747
16.9289
16.9283
16.7229
16.2431
15.4071
14.1309
12.3409
9.96575
6.93698
3.20374
-1.26361
-6.45021
-12.2942
-18.6944
-25.4353
-32.3006
-39.148
-45.4403
-50.8405
-55.8448
-58.9949
-58.3844
-55.8125
-50.2768
-44.0565
-38.4133
-33.5752
-29.4909
-26.0416
-23.1086
-20.5917
-18.4111
-16.5047
-14.8242
-13.3323
-11.9998
-10.8036
-9.72522
-8.74963
-7.86426
-7.05851
-6.3233
-5.65078
-5.0341
-4.46731
-3.94516
-3.46306
-3.01705
-2.60356
-2.21979
-1.86255
-1.53129
-1.21971
-0.938307
-0.653312
-0.451355
-0.099882
-0.26018
-5.89092
-2.46871
-0.768858
0.749993
2.05504
3.11582
3.99871
4.72947
5.34624
5.87387
6.315
6.66505
6.93158
7.11995
7.28693
7.42165
7.51824
7.56006
7.60323
7.67731
7.73929
7.83479
7.98011
8.17976
8.43407
8.74077
9.09631
9.49705
9.93965
10.4207
10.9367
11.4833
12.0552
12.6453
13.2443
13.8411
14.422
14.9712
15.4695
15.8984
16.2426
16.4857
16.6053
16.57
16.3304
15.8181
14.9532
13.6546
11.8534
9.48192
6.47415
2.78301
-1.61965
-6.71948
-12.4529
-18.727
-25.3386
-32.0612
-38.7839
-45.0155
-50.3068
-55.2109
-58.5398
-58.0775
-55.736
-50.315
-44.1067
-38.4702
-33.643
-29.5705
-26.1316
-23.2063
-20.6941
-18.5155
-16.6085
-14.9254
-13.4294
-12.0917
-10.8896
-9.80507
-8.82327
-7.93184
-7.1203
-6.37964
-5.70205
-5.08068
-4.50954
-3.98339
-3.49762
-3.04821
-2.63159
-2.24493
-1.88503
-1.55125
-1.23743
-0.953561
-0.667108
-0.461274
-0.112155
-0.255993
-5.801
-2.45551
-0.789135
0.736558
2.03315
3.08896
3.9689
4.69692
5.3107
5.83582
6.27506
6.62436
6.8927
7.08183
7.25317
7.39299
7.49286
7.53038
7.57452
7.64749
7.70367
7.79453
7.93549
8.13077
8.38064
8.68278
9.03357
9.42931
9.86657
10.3419
10.8515
11.391
11.9549
12.5355
13.1231
13.7057
14.269
14.7967
15.2695
15.6694
15.982
16.1919
16.2773
16.2075
15.9342
15.3901
14.4973
13.1783
11.3681
9.00278
6.01877
2.37286
-1.96152
-6.97099
-12.5907
-18.7347
-25.2151
-31.7954
-38.3873
-44.559
-49.7562
-54.5443
-58.0762
-57.8097
-55.6217
-50.2943
-44.0941
-38.4694
-33.6615
-29.6091
-26.1879
-23.2764
-20.7738
-18.6008
-16.6962
-15.0129
-13.5146
-12.1732
-10.9666
-9.87707
-8.89008
-7.99354
-7.17708
-6.43179
-5.74987
-5.12449
-4.54965
-4.02008
-3.53113
-3.07879
-2.65945
-2.27025
-1.90798
-1.57192
-1.25605
-0.969812
-0.682058
-0.472092
-0.126038
-0.250775
-5.71607
-2.44574
-0.807613
0.72256
2.01077
3.06221
3.93933
4.66483
5.27583
5.79857
6.23619
6.58486
6.85528
7.04526
7.22065
7.36439
7.46513
7.49814
7.54696
7.61623
7.6664
7.75259
7.889
8.07969
8.32494
8.62237
8.96828
9.35889
9.79066
10.26
10.763
11.2951
11.8506
12.4214
12.9972
13.5653
14.1107
14.6169
15.0643
15.4355
15.7169
15.8939
15.9454
15.8417
15.5354
14.9604
14.0411
12.7031
10.886
8.52876
5.57065
1.97251
-2.29042
-7.20605
-12.7086
-18.7184
-25.0646
-31.5025
-37.9576
-44.0665
-49.1874
-53.857
-57.6124
-57.6098
-55.4833
-50.2169
-44.0186
-38.4105
-33.6302
-29.6065
-26.2103
-23.3186
-20.8304
-18.667
-16.7679
-15.0867
-13.5881
-12.2446
-11.0348
-9.94139
-8.95026
-8.04954
-7.22905
-6.47993
-5.79442
-5.1657
-4.58775
-4.0553
-3.56367
-3.10882
-2.68712
-2.29569
-1.93133
-1.59319
-1.27544
-0.986922
-0.697982
-0.483667
-0.141226
-0.244709
-5.63665
-2.43771
-0.824662
0.707992
1.98815
3.03562
3.91003
4.63324
5.24167
5.76218
6.19844
6.5466
6.81931
7.01004
7.18923
7.33512
7.43425
7.4641
7.52055
7.58306
7.62734
7.70883
7.84054
8.0265
8.26702
8.55964
8.90058
9.28594
9.71206
10.1752
10.6713
11.1957
11.7424
12.3031
12.8668
13.42
13.9474
14.432
14.8542
15.1969
15.4474
15.592
15.6102
15.4733
15.1349
14.5301
13.5858
12.2304
10.4078
8.0601
5.12944
1.58106
-2.60771
-7.42617
-12.8083
-18.6795
-24.8871
-31.1822
-37.4939
-43.5346
-48.5902
-53.1334
-57.0756
-57.39
-55.2873
-50.0749
-43.8781
-38.293
-33.5492
-29.5627
-26.1991
-23.3333
-20.8644
-18.7143
-16.8236
-15.1471
-13.6501
-12.3061
-11.0944
-9.99824
-9.004
-8.10005
-7.27637
-6.5242
-5.8358
-5.20438
-4.62391
-4.08908
-3.59521
-3.13825
-2.71455
-2.32119
-1.95497
-1.61494
-1.29545
-1.00471
-0.714665
-0.495828
-0.15739
-0.237991
-5.55374
-2.43465
-0.840944
0.692992
1.96546
3.00924
3.88104
4.6022
5.20828
5.72671
6.16182
6.50961
6.78467
6.97606
7.15871
7.30463
7.39874
7.4294
7.4944
7.54768
7.58641
7.66315
7.79006
7.97123
8.20696
8.49471
8.8306
9.2106
9.63089
10.0876
10.5765
11.0929
11.6306
12.1807
12.7319
13.27
13.7792
14.2423
14.6395
14.954
15.1742
15.287
15.2726
15.1034
14.7341
14.101
13.1329
11.7615
9.93436
7.59699
4.69481
1.19776
-2.9146
-7.63284
-12.8912
-18.6194
-24.6831
-30.834
-36.9956
-42.9592
-47.9587
-52.353
-56.407
-57.0367
-54.9716
-49.8519
-43.6692
-38.1163
-33.4189
-29.4784
-26.1549
-23.3211
-20.8763
-18.7433
-16.8641
-15.1944
-13.7008
-12.3579
-11.1456
-10.0478
-9.05149
-8.14521
-7.31916
-6.56468
-5.87408
-5.24057
-4.65811
-4.12139
-3.62572
-3.16702
-2.74163
-2.3466
-1.97873
-1.63698
-1.31587
-1.02298
-0.731873
-0.508394
-0.174194
-0.230819
-5.44486
-2.43384
-0.857024
0.677655
1.94282
2.98309
3.85241
4.57175
5.17569
5.69219
6.12633
6.47386
6.75114
6.9431
7.12863
7.27261
7.35785
7.39507
7.46694
7.50994
7.54355
7.61552
7.73758
7.91395
8.14487
8.42771
8.75846
9.13297
9.54725
9.99727
10.4788
10.9869
11.5152
12.0545
12.5929
13.1157
13.6067
14.0482
14.4206
14.7074
14.8977
14.9792
14.9332
14.733
14.3342
13.6742
12.6838
11.2973
9.46629
7.13968
4.26677
0.822298
-3.21187
-7.8272
-12.9587
-18.5397
-24.4536
-30.4574
-36.4628
-42.3351
-47.291
-51.5162
-55.6157
-56.535
-54.5006
-49.5336
-43.3889
-37.8805
-33.24
-29.3548
-26.0787
-23.2829
-20.8668
-18.7547
-16.8897
-15.2291
-13.7408
-12.4004
-11.1886
-10.0904
-9.09288
-8.18512
-7.35749
-6.60141
-5.90926
-5.27423
-4.69031
-4.15216
-3.65508
-3.19499
-2.7682
-2.37174
-2.00244
-1.65911
-1.33649
-1.04149
-0.749359
-0.521175
-0.191314
-0.223387
-5.34376
-2.4343
-0.872615
0.66211
1.92028
2.95718
3.82416
4.5419
5.14393
5.65862
6.09196
6.43926
6.71847
6.91097
7.09843
7.23887
7.31231
7.363
7.43663
7.46973
7.49874
7.56595
7.68318
7.85477
8.08088
8.35875
8.68426
9.05311
9.46118
9.9043
10.3782
10.8777
11.3963
11.9246
12.45
12.9574
13.43
13.8502
14.198
14.4574
14.6183
14.6695
14.5928
14.3631
13.9365
13.2513
12.2396
10.8388
9.00425
6.68877
3.84593
0.455083
-3.49954
-8.00975
-13.0116
-18.4421
-24.1999
-30.052
-35.8956
-41.659
-46.5807
-50.6315
-54.7446
-55.9831
-53.894
-49.1153
-43.036
-37.5863
-33.014
-29.1932
-25.9721
-23.22
-20.8371
-18.7492
-16.9012
-15.2518
-13.7705
-12.4338
-11.2238
-10.126
-9.12825
-8.21984
-7.39136
-6.63438
-5.94128
-5.3053
-4.72041
-4.18126
-3.68316
-3.22199
-2.79408
-2.39643
-2.02586
-1.6811
-1.35705
-1.06002
-0.766879
-0.533982
-0.208444
-0.215871
-5.25813
-2.43628
-0.887708
0.646461
1.89787
2.93155
3.79633
4.51269
5.11302
5.62597
6.0587
6.40571
6.68647
6.87946
7.06751
7.20338
7.2631
7.3325
7.40229
7.42707
7.452
7.51452
7.62697
7.79381
8.01511
8.28792
8.60803
8.97104
9.37268
9.8087
10.2747
10.7655
11.2742
11.7912
12.3035
12.7952
13.2495
13.6486
13.9721
14.2045
14.3367
14.3582
14.2523
13.9947
13.5422
12.8334
11.8015
10.3868
8.54907
6.2453
3.43349
0.0972731
-3.77682
-8.1803
-13.0505
-18.3278
-23.9237
-29.6185
-35.2946
-40.9303
-45.8164
-49.708
-53.7774
-55.4471
-53.1977
-48.6079
-42.614
-37.2356
-32.7426
-28.9956
-25.8366
-23.1338
-20.7883
-18.7278
-16.8992
-15.263
-13.7901
-12.4585
-11.2513
-10.1549
-9.15766
-8.24935
-7.42075
-6.6635
-5.97006
-5.33366
-4.74826
-4.20854
-3.70977
-3.24784
-2.81907
-2.42044
-2.04877
-1.7027
-1.37733
-1.07833
-0.784192
-0.546635
-0.225311
-0.208427
-5.18357
-2.43965
-0.90244
0.630757
1.87563
2.90621
3.76896
4.48414
5.08295
5.59421
6.02655
6.37308
6.65486
6.84832
7.03513
7.16641
7.21183
7.29845
7.3633
7.38219
7.40343
7.46133
7.56907
7.73123
7.94765
8.21526
8.52977
8.88673
9.28175
9.71048
10.1684
10.6503
11.149
11.6546
12.1536
12.6297
13.0657
13.4437
13.7433
13.9492
14.0532
14.0461
13.9124
13.6289
13.1526
12.4216
11.37
9.94194
8.1018
5.81071
3.03116
-0.249434
-4.04231
-8.33801
-13.0752
-18.198
-23.6273
-29.1581
-34.6625
-40.1505
-44.9904
-48.7431
-52.6731
-54.7941
-52.3775
-48.0172
-42.1298
-36.8322
-32.4287
-28.7641
-25.6741
-23.0257
-20.7215
-18.6914
-16.8845
-15.2633
-13.8002
-12.4747
-11.2712
-10.177
-9.18109
-8.27361
-7.44556
-6.68868
-5.99546
-5.35914
-4.7737
-4.2338
-3.73471
-3.27231
-2.84293
-2.44351
-2.07091
-1.72367
-1.39706
-1.09618
-0.801073
-0.558966
-0.241677
-0.201188
-5.11758
-2.44548
-0.916838
0.61503
1.85357
2.8812
3.74207
4.45624
5.05373
5.5633
5.99546
6.34124
6.62324
6.81734
7.00059
7.12833
7.161
7.2574
7.32001
7.33543
7.35316
7.40653
7.50966
7.66714
7.87859
8.14077
8.44944
8.80013
9.18834
9.60964
10.0594
10.5323
11.0209
11.5149
12.0005
12.461
12.8788
13.2361
13.512
13.6917
13.7683
13.7337
13.5739
13.2667
12.7686
12.0165
10.9458
9.50506
7.6636
5.38658
2.64078
-0.583179
-4.29433
-8.48168
-13.0854
-18.0534
-23.3131
-28.6735
-34.003
-39.325
-44.1007
-47.7269
-51.4438
-53.8868
-51.4127
-47.3401
-41.588
-36.3801
-32.0752
-28.5013
-25.4866
-22.8973
-20.6379
-18.6409
-16.8578
-15.253
-13.8009
-12.4826
-11.2837
-10.1924
-9.1985
-8.29253
-7.46567
-6.70976
-6.01731
-5.38158
-4.79653
-4.25683
-3.75774
-3.29516
-2.8654
-2.4654
-2.09202
-1.74375
-1.41601
-1.11335
-0.817317
-0.570824
-0.257343
-0.194255
-5.04321
-2.45297
-0.931006
0.599289
1.83172
2.85656
3.71569
4.42901
5.02532
5.53323
5.96538
6.31002
6.59112
6.78632
6.96338
7.08955
7.11316
7.21005
7.27336
7.28709
7.30135
7.35028
7.44888
7.60166
7.80792
8.0644
8.36695
8.71114
9.09241
9.50619
9.94777
10.4115
10.8899
11.3723
11.8445
12.2894
12.6891
13.0259
13.2785
13.4326
13.4825
13.4217
13.2377
12.9091
12.391
11.6187
10.5293
9.07688
7.23565
4.9744
2.26393
-0.902337
-4.53133
-8.61013
-13.0804
-17.8945
-22.9836
-28.1684
-33.3209
-38.4652
-43.1467
-46.6679
-50.1084
-52.8122
-50.5113
-46.6167
-40.996
-35.8832
-31.6849
-28.2095
-25.2762
-22.7502
-20.5386
-18.5771
-16.8195
-15.2327
-13.7927
-12.4823
-11.2886
-10.201
-9.2098
-8.30599
-7.48094
-6.72657
-6.03543
-5.40076
-4.81652
-4.27739
-3.77863
-3.31613
-2.88622
-2.48584
-2.11186
-1.7627
-1.43396
-1.12965
-0.83274
-0.582077
-0.272154
-0.187705
-4.98196
-2.46156
-0.94486
0.583549
1.8101
2.83231
3.68985
4.40243
4.99771
5.50394
5.93615
6.27918
6.55811
6.755
6.92352
7.05074
7.07163
7.15933
7.22441
7.23747
7.24817
7.29274
7.38688
7.53485
7.73563
7.98604
8.28217
8.61968
8.99389
9.40012
9.83346
10.2881
10.7563
11.227
11.6858
12.1151
12.497
12.8134
13.0431
13.1721
13.1962
13.1106
12.9047
12.557
12.0205
11.2284
10.1207
8.65807
6.81892
4.57528
1.90179
-1.20576
-4.75221
-8.72247
-13.06
-17.7218
-22.6406
-27.6468
-32.624
-37.5865
-42.1382
-45.5749
-48.715
-51.5789
-49.6953
-45.7871
-40.3403
-35.3423
-31.2605
-27.8914
-25.0449
-22.586
-20.4249
-18.5008
-16.7704
-15.2027
-13.7756
-12.4739
-11.2861
-10.2028
-9.21488
-8.31384
-7.49119
-6.73892
-6.04959
-5.41644
-4.83343
-4.29521
-3.79709
-3.33494
-2.90512
-2.50456
-2.13016
-1.78028
-1.45068
-1.14488
-0.847188
-0.592614
-0.285994
-0.181585
-4.93658
-2.47106
-0.958393
0.567832
1.78875
2.8085
3.66456
4.37648
4.97087
5.4754
5.90762
6.24844
6.52403
6.72324
6.88181
7.01267
7.04515
7.10875
7.17428
7.18685
7.19382
7.23409
7.32378
7.46672
7.66163
7.90557
8.19499
8.52564
8.89274
9.29141
9.71654
10.1621
10.6201
11.0792
11.5246
11.9384
12.3026
12.599
12.8061
12.9105
12.9098
12.8012
12.5756
12.2112
11.6573
10.8455
9.72037
8.24922
6.41413
4.18998
1.55504
-1.49282
-4.95637
-8.8183
-13.0241
-17.5356
-22.286
-27.1146
-31.9205
-36.6997
-41.0906
-44.4406
-47.3221
-50.1229
-48.8228
-44.6997
-39.5807
-34.7528
-30.8031
-27.5493
-24.7948
-22.4061
-20.2977
-18.4129
-16.711
-15.1633
-13.75
-12.4576
-11.2762
-10.1976
-9.2136
-8.31589
-7.49621
-6.74658
-6.05955
-5.42837
-4.84697
-4.31003
-3.81285
-3.35133
-2.92184
-2.52132
-2.1467
-1.79629
-1.466
-1.15889
-0.860532
-0.602346
-0.298786
-0.175919
-4.90167
-2.48119
-0.971643
0.552169
1.7677
2.78513
3.63983
4.35115
4.9448
5.4475
5.87959
6.21761
6.48902
6.69084
6.83906
6.97534
7.03344
7.06116
7.1243
7.13552
7.13849
7.17448
7.25963
7.39722
7.58579
7.82284
8.10526
8.42892
8.78889
9.18006
9.59706
10.0336
10.4814
10.9289
11.3611
11.7595
12.1061
12.3829
12.5678
12.6482
12.6238