/*--------------------------------*- C++ -*----------------------------------*\
| =========                 |                                                 |
| \\      /  F ield         | OpenFOAM: The Open Source CFD Toolbox           |
|  \\    /   O peration     | Version:  4.1                                   |
|   \\  /    A nd           | Web:      www.OpenFOAM.org                      |
|    \\/     M anipulation  |                                                 |
\*---------------------------------------------------------------------------*/
FoamFile
{
    version     2.0;
    format      ascii;
    class       surfaceScalarField;
    location    "400";
    object      phi;
}
// * * * * * * * * * * * * * * * * * * * * * * * * * * * * * * * * * * * * * //

dimensions      [0 3 -1 0 0 0 0];

internalField   nonuniform List<scalar> 
52920
(
1219.29
23.338
1206.6
12.6827
1201.84
4.76477
1201.88
-0.0369393
1205.73
-3.85799
1212.43
-6.69812
1221.15
-8.71692
1228.9
-7.74857
1227.66
1.23399
1205.87
21.7951
1154.72
51.1512
1074.17
80.5497
973.652
100.517
868.1
105.551
773.138
94.9623
701.769
71.37
662.919
38.8495
659.84
3.07944
688.809
-28.9688
742.665
-53.8554
814.101
-71.4361
898.365
-84.2637
993.699
-95.3342
1099.41
-105.715
1215.27
-115.856
1341.23
-125.958
1477.33
-136.099
1623.62
-146.295
1780.15
-156.528
1946.91
-166.762
2123.86
-176.951
2310.91
-187.051
2507.95
-197.032
2714.85
-206.907
2931.61
-216.758
3158.38
-226.771
3395.61
-237.233
3644.09
-248.477
3904.88
-260.784
4179.19
-274.318
4468.33
-289.134
4773.59
-305.264
5096.38
-322.786
5438.24
-341.857
5800.9
-362.667
6186.26
-385.359
6596.21
-409.944
7032.4
-436.195
7495.94
-463.535
7986.79
-490.85
8503.07
-516.285
9040.19
-537.12
9589.96
-549.765
10139.9
-549.904
10672.5
-532.62
11164.9
-492.436
11588.9
-423.995
11912.7
-323.749
12105.7
-193.065
12149
-43.2761
12041.7
107.339
11802.1
239.543
11465.7
336.429
11074.6
391.058
10665.3
409.332
10262
403.259
9878.32
383.718
9520.25
358.075
9189.58
330.665
8885.76
303.824
8607.05
278.714
8351.19
255.855
8115.76
235.432
7898.31
217.452
7696.47
201.832
7508.04
188.433
7330.96
177.078
7163.4
167.562
7003.74
159.658
6850.62
153.123
6702.92
147.707
6559.76
143.16
6420.51
139.241
6284.79
135.722
6152.39
132.398
6023.31
129.087
5897.67
125.632
5775.77
121.909
5657.95
117.815
5544.67
113.279
5436.42
108.251
5333.71
102.712
5237.06
96.6499
5146.96
90.1031
5063.89
83.0632
4988.21
75.681
4920.29
67.9247
4860.54
59.7449
4806.89
53.6525
38.7854
1237.73
42.0706
1228.88
21.5354
1226.6
7.04319
1227.65
-1.08538
1231.42
-7.63269
1237.57
-12.842
1245.56
-16.715
1251.28
-13.4645
1244.35
8.1666
1212.11
54.0299
1148.06
115.202
1056.94
171.671
952.541
204.918
851.943
206.149
771.716
175.189
726.287
116.799
724.626
40.5112
762.08
-34.3739
822.531
-89.4204
893.121
-124.445
968.559
-146.874
1048.22
-163.926
1133.62
-180.737
1226.15
-198.239
1326.71
-216.419
1435.88
-235.127
1554
-254.219
1681.29
-273.582
1817.87
-293.109
1963.8
-312.688
2119.04
-332.193
2283.48
-351.489
2456.9
-370.455
2639.02
-389.024
2829.51
-407.254
3028.15
-425.409
3234.92
-444.001
3450.17
-463.727
3674.69
-485.3
3909.66
-509.29
4156.61
-536.09
4417.38
-566.025
4694.06
-599.468
4989.1
-636.898
5305.26
-678.834
5645.59
-725.687
6013.23
-777.578
6411.17
-834.134
6841.88
-894.249
7306.75
-955.726
7805.36
-1014.89
8334.62
-1066.38
8888.08
-1103.22
9455.36
-1117.18
10021.8
-1099.03
10567.6
-1038.26
11066.9
-923.338
11486.2
-742.966
11783.8
-490.705
11920.1
-179.627
11878.2
149.296
11674.2
443.559
11351.2
659.381
10961.8
780.455
10550.1
821.039
10144.7
808.686
9760.69
767.721
9404.48
714.276
9077.51
657.643
8778.63
602.705
8505.54
551.799
8255.5
505.895
8025.68
465.256
7813.34
429.791
7615.95
399.221
7431.21
373.17
7257.09
351.2
7091.82
332.83
6933.92
317.556
6782.19
304.859
6635.67
294.222
6493.69
285.143
6355.78
277.147
6221.71
269.794
6091.42
262.693
5965
255.502
5842.7
247.934
5724.85
239.756
5611.88
230.79
5504.24
220.912
5402.45
210.044
5307
198.163
5218.38
185.274
5137.01
171.472
5063.3
156.771
4997.47
141.512
4939.82
125.572
4890.24
109.33
4848.15
95.7366
69.0764
1259.64
57.0874
1253.61
27.5612
1252.72
7.93279
1253.61
-1.97369
1256.15
-10.1781
1260.64
-17.3282
1265.83
-21.9064
1264.58
-12.2152
1243.7
29.0468
1191.94
105.796
1108.91
198.234
1006.47
274.104
902.79
308.6
816.156
292.784
761.252
230.093
743.774
134.277
754.294
29.9905
772.413
-52.4919
783.618
-100.626
787.63
-128.456
790.649
-149.893
798.829
-172.106
816.595
-198.502
845.672
-227.315
886.299
-257.046
938.271
-287.098
1001.4
-317.348
1075.63
-347.815
1161.02
-378.501
1257.66
-409.327
1365.6
-440.132
1484.8
-470.689
1615.11
-500.762
1756.27
-530.182
1907.99
-558.974
2070.09
-587.513
2242.72
-616.631
2426.53
-647.538
2622.76
-681.53
2833.14
-719.663
3059.68
-762.635
3304.58
-810.919
3570.07
-864.968
3858.53
-925.351
4172.39
-992.696
4514.18
-1067.47
4886.34
-1149.74
5291.08
-1238.87
5730.05
-1333.21
6203.95
-1429.63
6712.04
-1522.97
7251.47
-1605.82
7816.87
-1668.63
8400.05
-1700.36
8989.9
-1688.87
9572.04
-1620.41
10127.7
-1479
10631.3
-1246.54
11045.9
-905.326
11322.4
-456.176
11416.1
55.6311
11316.5
543.215
11062.1
913.747
10714.7
1127.89
10329.3
1206.42
9942.18
1195.78
9572.72
1137.18
9229.24
1057.75
8913.96
972.929
8625.92
890.74
8362.78
814.942
8121.65
747.028
7899.58
687.326
7693.79
635.581
7501.76
591.251
7321.28
553.645
7150.48
522.002
6987.79
495.517
6831.97
473.379
6682.05
454.781
6537.33
438.94
6397.36
425.116
6261.88
412.625
6130.83
400.847
6004.28
389.237
5882.46
377.328
5765.65
364.737
5654.25
351.16
5548.66
336.378
5449.33
320.247
5356.67
302.698
5271.09
283.742
5192.93
263.434
5122.44
241.962
5059.81
219.401
5005.02
196.304
4958.14
172.449
4918.63
148.846
4886.48
127.884
92.4484
1283.59
69.1739
1279.42
31.7358
1278.65
8.70142
1278.18
-1.50908
1278.75
-10.7427
1280.9
-19.4856
1280.88
-21.8786
1266.7
1.95916
1223.71
72.0391
1146.43
183.08
1044.12
300.542
935.888
382.335
841.877
402.611
776.468
358.193
741.689
264.872
721.744
154.223
691.072
60.6619
635.078
3.50307
559.459
-25.0066
483.639
-52.6357
426.356
-92.6097
394.995
-140.745
387.529
-191.036
397.984
-237.77
421.619
-280.681
455.898
-321.377
499.809
-361.259
553.156
-401.162
616.12
-441.465
689.016
-482.222
772.169
-523.285
865.879
-564.399
970.428
-605.312
1086.14
-645.894
1213.48
-686.311
1353.19
-727.221
1506.42
-769.869
1674.79
-815.902
1860.14
-866.878
2064.28
-923.806
2288.73
-987.079
2534.62
-1056.81
2802.9
-1133.25
3094.52
-1216.98
3410.66
-1308.83
3752.7
-1409.52
4122.22
-1519.26
4520.77
-1637.42
4949.66
-1762.11
5409.61
-1889.58
5900.22
-2013.58
6419.46
-2125.06
6963.27
-2212.44
7525.42
-2262.5
8097.73
-2261.18
8670.21
-2192.89
9230.57
-2039.36
9762.48
-1778.46
10239.8
-1382.64
10617.4
-833.778
10834.3
-161.27
10847.2
530.279
10676.5
1084.52
10386.3
1418.01
10041.1
1551.66
9684.12
1552.76
9338.82
1482.48
9015.62
1380.95
8717.7
1270.84
8444.62
1163.82
8194.27
1065.3
7963.93
977.369
7750.81
900.439
7552.33
834.069
7366.16
777.415
7190.36
729.443
7023.32
689.042
6863.77
655.075
6710.72
626.423
6563.5
602.002
6421.65
580.79
6284.93
561.84
6153.26
544.293
6026.72
527.386
5905.49
510.462
5789.85
492.972
5680.11
474.474
5576.64
454.637
5479.78
433.234
5389.88
410.144
5307.24
385.339
5232.09
358.895
5164.58
330.948
5104.74
301.795
5052.55
271.595
5007.74
241.113
4970.18
210.014
4939.01
180.015
4914.48
152.41
110.843
1307.29
79.6235
1303.46
35.567
1301.22
10.9406
1298.24
1.46656
1296.25
-8.74456
1294.99
-18.2264
1285.9
-12.7967
1252
35.8591
1180.94
143.104
1077.6
286.421
962.126
416.015
857.918
486.543
781.06
479.47
733.817
405.436
701.567
297.123
658.702
197.089
584.759
134.605
479.751
108.511
365.541
89.2044
278.867
34.0385
240.53
-54.2727
238.291
-138.505
253.822
-206.566
277.429
-261.378
306.117
-309.369
339.481
-354.741
377.925
-399.702
422.073
-445.31
472.566
-491.958
530
-539.657
594.944
-588.228
668
-637.454
749.903
-687.215
841.625
-737.616
944.49
-789.176
1060.26
-842.99
1191.12
-900.726
1339.44
-964.224
1507.36
-1034.8
1696.34
-1112.79
1907.03
-1197.77
2139.46
-1289.24
2393.51
-1387.29
2669.26
-1492.73
2967.27
-1606.84
3288.54
-1730.79
3634.36
-1865.09
4006.17
-2009.23
4405.31
-2161.25
4832.71
-2316.98
5288.43
-2469.3
5771.1
-2607.73
6277.55
-2718.89
6802.72
-2787.68
7340.11
-2798.57
7882.38
-2735.16
8421.53
-2578.5
8948.37
-2305.3
9448.13
-1882.39
9887.65
-1273.3
10204.4
-477.997
10326.3
408.398
10242.4
1168.36
10014
1646.41
9713.42
1852.25
9390.98
1875.2
9073.9
1799.57
8774.39
1680.46
8496.54
1548.7
8240.4
1419.96
8004.24
1301.46
7785.67
1195.94
7582.23
1103.88
7391.64
1024.66
7211.93
957.119
7041.49
899.887
6879.02
851.508
6723.57
810.529
6574.44
775.549
6431.2
745.241
6293.62
718.377
6161.61
693.842
6035.26
670.643
5914.73
647.916
5800.26
624.933
5692.13
601.1
5590.65
575.958
5496.11
549.18
5408.77
520.569
5328.86
490.052
5256.53
457.671
5191.84
423.588
5134.75
388.036
5085.11
351.434
5042.67
314.038
5006.97
276.811
4977.67
239.318
4953.67
204.012
4935.4
170.675
125.589
1329.64
90.4155
1323.49
41.7209
1317.34
17.0847
1310.24
8.56651
1304.45
-2.95436
1296.97
-10.7448
1273.16
11.0189
1213.5
95.5176
1113.12
243.482
989.987
409.556
872.374
533.629
781.405
577.511
722.114
538.761
682.558
444.992
640.21
339.471
574.817
262.482
481.63
227.793
375.127
215.014
281.695
182.637
229.957
85.7765
223.08
-47.3944
238.298
-153.724
260.168
-228.435
284.737
-285.946
311.819
-336.451
341.997
-384.918
375.946
-433.651
414.279
-483.643
457.503
-535.182
506.045
-588.198
560.329
-642.512
620.905
-698.03
688.581
-754.89
764.564
-813.599
850.575
-875.187
948.886
-941.301
1062.18
-1014.02
1193.13
-1095.17
1343.82
-1185.5
1515.35
-1284.31
1707.77
-1390.19
1920.63
-1502.1
2153.45
-1620.11
2406.2
-1745.47
2679.35
-1880
2973.82
-2025.25
3290.73
-2181.99
3631.28
-2349.78
3996.64
-2526.61
4387.76
-2708.1
4804.93
-2886.48
5247.32
-3050.11
5712.48
-3184.05
6196.23
-3271.43
6693.11
-3295.45
7197.29
-3239.35
7703.32
-3084.52
8206.7
-2808.69
8701.89
-2377.58
9169.7
-1741.1
9558.71
-867.003
9780.86
186.24
9784.14
1165.08
9618.43
1812.12
9363.16
2107.53
9075.98
2162.37
8787.94
2087.61
8512.94
1955.46
8255.86
1805.78
8017.22
1658.59
7795.7
1522.97
7589.32
1402.32
7395.99
1297.21
7213.84
1206.81
7041.28
1129.68
6877.04
1064.13
6720.16
1008.38
6569.99
960.704
6426.09
919.452
6288.23
883.094
6156.37
850.239
6030.57
819.643
5910.99
790.221
5797.86
761.045
5691.44
731.352
5592.01
700.538
5499.81
668.158
5415.06
633.922
5337.94
597.688
5268.54
559.46
5206.84
519.37
5152.73
477.691
5106
434.773
5066.26
391.168
5033.05
347.248
5005.71
304.156
4983.64
261.382
4965.58
222.071
4951.98
184.283
138.306
1336.78
103.238
1327.83
50.6749
1318.24
26.6745
1308.36
18.4426
1299.52
5.88948
1283.12
5.65723
1238.58
55.5603
1149.28
184.817
1023.55
369.207
891.815
541.292
783.425
642.019
709.731
651.206
662.4
586.091
620.78
486.613
564.062
396.189
483.325
343.219
388.246
322.873
300.765
302.496
241.79
241.612
223.424
104.144
234.481
-58.4518
255.32
-174.562
278.252
-251.368
302.594
-310.288
328.944
-362.801
357.994
-413.968
390.361
-466.017
426.534
-519.816
466.867
-575.515
511.624
-632.954
561.081
-691.97
615.675
-752.624
676.156
-815.371
743.739
-881.183
820.219
-951.667
907.979
-1029.06
1009.77
-1115.81
1128.21
-1213.61
1265.16
-1322.45
1421.37
-1440.52
1596.65
-1565.47
1790.41
-1695.86
2002.28
-1831.99
2232.4
-1975.6
2481.41
-2129
2750.18
-2294.02
3039.62
-2471.43
3350.53
-2660.7
3683.7
-2859.78
4039.87
-3064.26
4419.44
-3266.05
4822.01
-3452.69
5245.85
-3607.88
5687.59
-3713.17
6142.63
-3750.48
6606.09
-3702.82
7073.87
-3552.3
7543.92
-3278.74
8016.91
-2850.58
8486.8
-2210.99
8918.99
-1299.19
9225.82
-120.594
9314.13
1076.78
9210.95
1915.3
9000.32
2318.16
8747.6
2415.09
8487.97
2347.24
8237.03
2206.4
8000.41
2042.41
7779.11
1879.9
7572.21
1729.87
7378.14
1596.39
7195.25
1480.1
7022.05
1380.01
6857.34
1294.39
6700.19
1221.27
6549.98
1158.6
6406.28
1104.4
6268.9
1056.83
6137.81
1014.19
6013.07
974.972
5894.87
937.841
5783.44
901.654
5679.03
865.457
5581.9
828.483
5492.28
790.151
5410.38
750.061
5336.31
707.991
5270.11
663.886
5211.72
617.856
5160.93
570.157
5117.43
521.192
5080.75
471.452
5050.3
421.625
5025.34
372.203
5005.02
324.473
4988.54
277.867
4974.54
236.073
4963.35
195.47
150.946
1335.86
119.135
1323.62
62.9225
1310.82
39.4696
1298.6
30.6605
1284.99
19.5042
1253.84
36.8102
1181.6
127.793
1062.02
304.399
919.929
511.301
792.239
668.983
700.48
733.777
642.36
709.326
599.614
628.838
550.597
535.63
482.515
464.271
398.422
427.312
316.071
405.224
254.651
363.917
225.19
271.073
230.263
99.0708
251.866
-80.0542
275.492
-198.187
299.03
-274.905
323.403
-334.661
349.532
-388.93
378.153
-442.589
409.859
-497.723
445.082
-555.038
484.092
-614.525
527.058
-675.919
574.156
-739.068
625.729
-804.196
682.436
-872.079
745.414
-944.16
816.379
-1022.63
897.62
-1110.3
991.752
-1209.94
1101.18
-1323.04
1227.5
-1448.77
1371.19
-1584.22
1531.93
-1726.2
1709.19
-1873.12
1902.8
-2025.6
2113.18
-2185.98
2341.18
-2357
2587.66
-2540.51
2853.27
-2737.04
3138.33
-2945.76
3443.07
-3164.52
3767.83
-3389.01
4112.92
-3611.14
4478.23
-3818
4862.69
-3992.34
5263.79
-4114.27
5677.75
-4164.44
6100.42
-4125.49
6528.46
-3980.34
6960.81
-3711.09
7401.22
-3290.98
7853.26
-2663.03
8300.43
-1746.37
8671.1
-491.255
8839.98
907.895
8798.48
1956.8
8631.27
2485.37
8411.63
2634.72
8179.19
2579.68
7951.36
2434.23
7734.5
2259.26
7530.09
2084.31
7337.61
1922.35
7155.9
1778.1
6983.72
1652.29
6819.97
1543.75
6663.82
1450.55
6514.66
1370.43
6372.14
1301.12
6236.08
1240.46
6106.48
1186.43
5983.45
1137.22
5867.18
1091.24
5757.93
1047.09
5655.96
1003.63
5561.53
959.885
5474.88
915.138
5396.17
868.863
5325.49
820.741
5262.82
770.657
5208.02
718.68
5160.82
665.059
5120.78
610.198
5087.33
554.646
5059.75
499.032
5037.21
444.162
5018.79
390.623
5003.49
339.771
4990.37
290.984
4978.15
248.295
4967
206.626
165.394
1327.97
138.377
1312.53
78.3595
1297.12
54.888
1282.37
45.408
1260.14
41.7283
1206.66
90.2907
1102.04
232.42
957.412
449.023
811.589
657.124
698.296
782.276
625.008
807.065
577.356
756.978
533.44
672.755
476.807
592.264
404.773
536.305
328.588
503.497
266.479
467.333
230.29
400.106
223.934
277.43
244.592
78.413
271.487
-106.949
296.05
-222.75
319.577
-298.431
343.732
-358.816
369.558
-414.756
397.809
-470.84
429.067
-528.981
463.731
-589.702
502.019
-652.813
544.033
-717.934
589.879
-784.914
639.813
-854.13
694.403
-926.668
754.669
-1004.43
822.188
-1090.15
899.082
-1187.2
987.757
-1298.61
1090.39
-1425.67
1208.32
-1566.7
1341.86
-1717.76
1490.62
-1874.96
1654.17
-2036.67
1832.56
-2203.99
2026.49
-2379.91
2236.99
-2567.49
2464.97
-2768.49
2710.83
-2982.9
2974.4
-3209.33
3255.26
-3445.38
3553.14
-3686.89
3868.02
-3926.02
4199.9
-4149.89
4548.25
-4340.69
4911.43
-4477.45
5286.52
-4539.53
5670.07
-4509.04
6059.19
-4369.46
6453.01
-4104.91
6856.28
-3694.25
7278.45
-3085.21
7717.37
-2185.28
8126.18
-900.068
8367.61
666.467
8385.82
1938.58
8260.43
2610.76
8072.24
2822.91
7865.6
2786.33
7659.78
2640.04
7461.91
2457.13
7273.89
2272.33
7095.62
2100.63
6926.32
1947.4
6765.14
1813.46
6611.37
1697.52
6464.49
1597.43
6324.21
1510.71
6190.4
1434.92
6063.12
1367.74
5942.52
1307.03
5828.83
1250.92
5722.32
1197.74
5623.3
1146.12
5532.04
1094.89
5448.75
1043.17
5373.6
990.287
5306.64
935.829
5247.78
879.602
5196.8
821.633
5153.33
762.147
5116.84
701.552
5086.64
640.402
5061.9
579.378
5041.72
519.215
5025.1
460.786
5011
404.718
4998.42
352.356
4986.38
303.021
4973.78
260.896
4960.65
219.754
183.103
1313.51
160.979
1295.28
96.5966
1277.84
72.3193
1259.23
64.0265
1222.41
78.5415
1139.2
173.499
1002.5
369.126
843.731
607.792
707.005
793.85
613.652
875.63
556.215
864.502
513.494
799.699
465.926
720.323
405.316
652.873
337.488
604.134
276.498
564.486
236.105
507.726
221.26
414.951
231.934
266.757
261.804
48.5434
290.569
-135.714
314.993
-247.174
338.102
-321.54
361.808
-382.521
387.182
-440.129
414.988
-498.646
445.812
-559.805
480.039
-623.928
517.851
-690.625
559.301
-759.384
604.433
-830.046
653.427
-903.124
706.751
-979.991
765.292
-1062.97
830.459
-1155.32
904.169
-1260.9
988.61
-1383.06
1085.74
-1522.8
1196.74
-1677.7
1321.79
-1842.82
1460.51
-2013.68
1612.56
-2188.72
1778.19
-2369.62
1958.33
-2560.05
2154.23
-2763.39
2366.86
-2981.12
2596.46
-3212.5
2842.41
-3455.28
3103.62
-3706.59
3379.11
-3962.38
3668.32
-4215.23
3971.11
-4452.68
4287.32
-4656.9
4616.13
-4806.25
4955.51
-4878.92
5302.75
-4856.28
5655.38
-4722.08
6012.36
-4461.9
6377.88
-4059.76
6763.86
-3471.19
7179.19
-2600.61
7601.87
-1322.75
7902.9
365.442
7976.91
1864.58
7891.14
2696.53
7732.59
2981.46
7550.31
2968.61
7365.44
2824.91
7185.82
2636.75
7013.78
2444.37
6849.56
2264.84
6692.79
2104.18
6542.98
1963.27
6399.76
1840.75
6262.91
1734.27
6132.42
1641.21
6008.38
1558.96
5891.01
1485.11
5780.6
1417.44
5677.47
1354.04
5581.95
1293.26
5494.32
1233.74
5414.83
1174.39
5343.58
1114.41
5280.6
1053.27
5225.74
990.687
5178.71
926.636
5139.03
861.311
5106.07
795.106
5079.05
728.574
5057.06
662.392
5039.11
597.325
5024.17
534.158
5011.19
473.765
4999.15
416.756
4987.11
364.396
4974.18
315.955
4959.47
275.604
4942.92
236.301
205.043
1285.41
187.456
1264.9
117.103
1245.57
91.6552
1220.51
89.0781
1163.71
135.344
1048.88
288.328
888.499
529.509
730.024
766.267
611.988
911.886
539.024
948.594
492.744
910.781
451.129
841.314
400.724
770.728
341.511
712.087
284.212
661.433
241.278
607.42
220.387
528.617
221.964
413.375
244.5
244.221
279.138
13.9061
307.853
-164.429
331.461
-270.782
353.756
-343.835
376.687
-405.452
401.332
-464.774
428.483
-525.797
458.745
-590.067
492.5
-657.683
529.906
-728.031
570.972
-800.449
615.678
-874.753
664.127
-951.573
716.677
-1032.54
774.069
-1120.36
837.52
-1218.77
908.727
-1332.11
989.659
-1463.99
1082.09
-1615.24
1187.08
-1782.68
1304.76
-1960.49
1434.75
-2143.67
1576.85
-2330.81
1731.46
-2524.23
1899.71
-2728.31
2083.05
-2946.73
2282.57
-3180.64
2498.4
-3428.34
2729.63
-3686.5
2974.56
-3951.53
3231.49
-4219.31
3499.19
-4482.93
3777.17
-4730.66
4065.43
-4945.16
4363.8
-5104.62
4671.17
-5186.29
4985.59
-5170.7
5305.02
-5041.51
5628.24
-4785.12
5958.36
-4389.88
6307.54
-3820.36
6690.9
-2983.97
7106.45
-1738.3
7450.55
21.343
7574.84
1740.28
7526
2745.38
7395.13
3112.32
7235.79
3127.96
7070.89
2989.81
6908.91
2798.74
6752.52
2600.76
6602.35
2415.02
6458.33
2248.19
6320.34
2101.26
6188.32
1972.77
6062.33
1860.26
5942.58
1760.96
5829.36
1672.19
5723.02
1591.44
5623.95
1516.51
5532.51
1445.48
5449.02
1376.76
5373.7
1309.06
5306.66
1241.42
5247.89
1173.19
5197.17
1103.99
5154.13
1033.72
5118.22
962.543
5088.72
890.81
5064.77
819.06
5045.39
747.956
5029.54
678.239
5016.17
610.699
5004.22
546.102
4992.72
485.266
4980.73
428.744
4967.46
377.671
4952.12
331.294
4934.08
293.644
4913.2
257.182
231.743
1256.87
217.125
1234.01
139.964
1210.31
115.356
1171.42
127.96
1086.17
220.596
940.57
433.931
769.07
701.009
624.114
911.224
529.146
1006.85
473.361
1004.38
433.628
950.515
391.76
883.183
341.576
820.912
288.922
764.741
245.638
704.717
220.113
632.945
215.021
533.71
228.452
399.945
258.689
213.985
294.971
-22.3759
322.41
-191.867
344.603
-292.975
365.607
-364.839
387.34
-427.185
410.899
-488.333
437.12
-552.018
466.642
-619.589
499.851
-690.892
536.877
-765.056
577.671
-841.244
622.147
-919.229
670.317
-999.743
722.425
-1084.65
779.054
-1176.99
841.219
-1280.93
910.387
-1401.28
988.309
-1541.91
1076.6
-1703.53
1176.22
-1882.3
1287.28
-2071.56
1409.46
-2265.85
1542.64
-2463.99
1687.38
-2668.97
1844.99
-2885.91
2017.09
-3118.83
2204.9
-3368.45
2408.58
-3632.02
2626.97
-3904.89
2857.99
-4182.55
3099.27
-4460.6
3348.93
-4732.59
3605.97
-4987.7
3870.32
-5209.51
4142.23
-5376.54
4421.44
-5465.5
4706.77
-5456.03
4996.71
-5331.46
5289.91
-5078.32
5588.09
-4688.06
5902.03
-4134.3
6249.7
-3331.64
6642.91
-2131.52
7013.51
-349.251
7181.72
1572.07
7166.88
2760.21
7061.76
3217.44
6924.03
3265.69
6778.24
3135.6
6633.41
2943.57
6492.52
2741.64
6356.49
2551.05
6225.59
2379.09
6099.98
2226.87
5979.89
2092.86
5865.64
1974.51
5757.61
1868.99
5656.24
1773.55
5561.98
1685.7
5475.25
1603.24
5396.4
1524.34
5325.65
1447.5
5263.12
1371.59
5208.74
1295.81
5162.25
1219.68
5123.23
1143.01
5091.04
1065.91
5064.91
988.679
5043.9
911.823
5026.99
835.968
5013.12
761.824
5001.22
690.136
4990.27
621.653
4979.3
557.075
4967.44
497.12
4953.92
442.265
4938.1
393.496
4919.32
350.071
4897.18
315.785
4871.47
282.886
263.398
1226.47
248.794
1201.83
164.605
1170.71
146.478
1110.1
188.568
991.177
339.521
821.683
603.425
653.456
869.237
530.937
1033.74
458.477
1079.31
415.083
1047.77
378.634
986.964
337.261
924.555
291.109
867.065
248.705
807.145
220.231
733.191
209.718
643.459
216.578
526.85
237.759
378.764
272.442
179.303
308.139
-58.0728
333.336
-217.064
353.468
-313.107
372.628
-383.998
392.691
-447.248
414.79
-510.431
439.822
-577.05
468.467
-648.233
501.103
-723.528
537.808
-801.761
578.458
-881.894
622.876
-963.647
670.98
-1047.85
722.894
-1136.56
779.051
-1233.14
840.266
-1342.15
907.773
-1468.79
983.106
-1617.24
1067.72
-1788.14
1162.49
-1977.07
1267.52
-2176.59
1382.54
-2380.87
1507.51
-2588.96
1643.14
-2804.6
1790.89
-3033.66
1952.56
-3280.51
2129.52
-3545.4
2321.96
-3824.46
2528.66
-4111.58
2747.24
-4401.13
2974.93
-4688.28
3209.22
-4966.89
3448.59
-5227.06
3692.66
-5453.58
3941.9
-5625.77
4196.65
-5720.25
4456.53
-5715.91
4720.6
-5595.53
4987.55
-5345.26
5257.83
-4958.34
5540.34
-4416.81
5854.05
-3645.36
6217.35
-2494.81
6597.13
-729.029
6800.83
1368.36
6815.96
2745.08
6734.25
3299.15
6616.75
3383.19
6489.31
3263.04
6361.28
3071.6
6235.88
2867.05
6114.24
2672.69
5996.91
2496.41
5884.33
2339.45
5776.97
2200.23
5675.33
2076.15
5579.96
1964.37
5491.37
1862.14
5410.06
1767.01
5336.4
1676.9
5270.66
1590.08
5212.93
1505.23
5163.13
1421.39
5120.98
1337.96
5085.99
1254.67
5057.49
1171.52
5034.63
1088.77
5016.45
1006.86
5001.91
926.364
4989.93
847.949
4979.44
772.306
4969.46
700.123
4959.05
632.062
4947.39
568.728
4933.79
510.724
4917.61
458.449
4898.36
412.739
4875.53
372.901
4848.9
342.419
4818.2
313.581
299.942
1193.69
282.099
1166.37
191.928
1122.77
190.077
1033.44
277.895
881.793
491.169
700.906
784.312
548.84
1021.3
452.227
1130.36
398.496
1133.04
362.946
1083.32
328.276
1021.63
289.363
963.468
250.495
905.934
220.056
837.584
205.239
748.008
206.898
641.8
222.406
511.343
248.566
352.604
285.165
142.704
317.845
-90.7523
339.656
-238.874
356.971
-330.422
373.687
-400.714
391.623
-465.184
411.958
-530.766
435.655
-600.747
463.414
-675.992
495.569
-755.682
532.101
-838.293
572.772
-922.565
617.302
-1008.18
665.51
-1096.05
717.423
-1188.48
773.34
-1289.06
833.896
-1402.7
900.102
-1534.99
973.269
-1690.41
1054.68
-1869.55
1145.1
-2067.5
1244.63
-2276.12
1353
-2489.24
1470.3
-2706.26
1597.35
-2931.65
1735.78
-3172.09
1887.55
-3432.28
2054.18
-3712.03
2235.93
-4006.21
2431.55
-4307.2
2638.56
-4608.15
2853.95
-4903.67
3074.81
-5187.75
3299.09
-5451.34
3525.99
-5680.48
3755.9
-5855.68
3989.59
-5953.93
4227.34
-5953.66
4468.87
-5837.07
4713.09
-5589.48
4959.43
-5204.69
5214.28
-4671.66
5494.43
-3925.51
5822.35
-2822.73
6196.46
-1103.14
6431.26
1133.56
6473.98
2702.37
6413.88
3359.24
6315.45
3481.62
6205.73
3372.76
6094.31
3183.02
5984.48
2976.87
5877.59
2779.59
5774.38
2599.62
5675.52
2438.3
5581.67
2294.08
5493.47
2164.35
5411.54
2046.29
5336.45
1937.23
5268.64
1834.83
5208.39
1737.15
5155.83
1642.65
5110.85
1550.2
5073.17
1459.07
5042.26
1368.87
5017.42
1279.51
4997.78
1191.15
4982.37
1104.18
4970.13
1019.1
4959.98
936.51
4950.9
857.036
4941.9
781.304
4932.11
709.909
4920.77
643.402
4907.22
582.281
4890.9
527.039
4871.34
478.012
4848.19
435.894
4821.01
400.076
4789.77
373.661
4754.14
349.208
341.133
1159.16
316.64
1126.98
224.104
1064.21
252.843
941.492
400.615
764.252
668.41
586.66
961.903
459.261
1148.7
387.264
1202.35
347.307
1173
316.369
1114.26
283.536
1054.47
249.317
997.687
219.74
935.511
201.253
856.07
197.933
751.329
208.826
630.908
230.145
490.023
259.321
323.429
295.188
106.837
322.792
-118.356
340.117
-256.199
353.856
-344.161
367.597
-414.454
383.095
-480.682
401.57
-549.241
424.014
-623.191
451.091
-703.069
483.013
-787.605
519.604
-874.883
560.478
-963.439
605.248
-1052.95
653.665
-1144.47
705.695
-1240.51
761.545
-1344.91
821.702
-1462.86
886.97
-1600.26
958.426
-1761.86
1037.15
-1948.27
1123.76
-2154.11
1218.3
-2370.65
1320.53
-2591.48
1430.63
-2816.36
1549.54
-3050.56
1679.07
-3301.61
1821.34
-3574.56
1978.01
-3868.69
2149.42
-4177.62
2334.31
-4492.09
2530.2
-4804.04
2734.05
-5107.51
2942.73
-5396.44
3153.81
-5662.42
3366.02
-5892.69
3579.45
-6069.11
3795.03
-6169.51
4013.59
-6172.22
4235.51
-6058.98
4460.09
-5814.06
4686.1
-5430.7
4917.94
-4903.5
5170.45
-4178.03
5466.18
-3118.46
5821.36
-1458.32
6076.92
878.005
6142.6
2636.69
6101.92
3399.92
6021.46
3562.09
5928.99
3465.23
5834.09
3277.92
5740.06
3070.9
5648.33
2871.32
5559.81
2688.13
5475.34
2522.78
5395.68
2373.74
5321.57
2238.46
5253.65
2114.21
5192.44
1998.44
5138.28
1888.99
5091.32
1784.11
5051.48
1682.49
5018.46
1583.22
4991.74
1485.79
4970.61
1390
4954.21
1295.91
4941.55
1203.81
4931.59
1114.14
4923.27
1027.41
4915.61
944.177
4907.65
864.989
4898.59
790.37
4887.7
720.801
4874.37
656.724
4858.12
598.538
4838.51
546.644
4815.19
501.33
4787.92
463.166
4756.35
431.647
4720.58
409.429
4680.24
389.548
386.594
1111.63
353.251
1072.68
263.049
988.067
337.457
835.602
553.081
646.371
857.64
485.371
1122.9
385.679
1248.39
334.014
1254.02
303.244
1203.77
275.284
1142.22
245.349
1084.4
217.633
1025.4
198.047
955.098
190.313
863.805
196.056
745.586
213.518
613.446
238.679
464.863
268.719
293.389
300.422
75.1344
321.355
-139.289
333.295
-268.139
342.872
-353.737
353.376
-424.958
366.472
-493.778
383.351
-566.119
404.947
-644.787
431.776
-729.897
463.834
-819.663
500.727
-911.776
541.919
-1004.63
586.952
-1097.98
635.564
-1193.08
687.723
-1292.66
743.604
-1400.79
803.585
-1522.84
868.275
-1664.95
938.498
-1832.09
1015.08
-2024.85
1098.46
-2237.5
1188.56
-2460.75
1285.16
-2688.08
1388.52
-2919.72
1499.74
-3161.78
1620.76
-3422.63
1753.9
-3707.7
1900.94
-4015.73
2062.27
-4338.95
2236.64
-4666.45
2421.61
-4989.02
2614.23
-5300.13
2811.42
-5593.63
3010.53
-5861.53
3209.89
-6092.05
3409.15
-6268.37
3609.17
-6369.53
3811.11
-6374.16
4015.94
-6263.81
4223.53
-6021.65
4432.25
-5639.42
4644.3
-5115.55
4872.97
-4406.69
5141.4
-3386.88
5473.9
-1790.83
5740.75
611.154
5823.82
2553.62
5799.83
3423.9
5736.13
3625.79
5660.48
3540.88
5582.11
3356.29
5504.14
3148.86
5428.01
2947.46
5354.71
2761.43
5285.16
2592.33
5220.21
2438.7
5160.58
2298.09
5106.89
2167.9
5059.54
2045.79
5018.73
1929.79
4984.43
1818.41
4956.37
1710.55
4934.04
1605.55
4916.75
1503.08
4903.66
1403.09
4893.8
1305.77
4886.16
1211.45
4879.73
1120.57
4873.55
1033.59
4866.73
950.99
4858.51
873.21
4848.23
800.658
4835.32
733.708
4819.34
672.701
4799.92
617.962
4776.74
569.819
4749.54
528.535
4718.15
494.557
4682.29
467.5
4642.22
449.503
4597.5
434.273
435.851
1066.03
397.568
1010.53
318.554
897.816
450.167
722.191
728.705
536.003
1043.83
400.429
1258.48
326.8
1322.02
290.108
1290.71
265.105
1228.77
239.806
1167.52
214.161
1110.05
193.972
1045.59
183.972
965.098
185.215
862.562
197.774
733.027
219.534
591.686
246.584
437.812
274.842
265.132
299.159
50.8176
312.029
-152.158
317.923
-274.034
323.193
-359.007
330.751
-432.516
342.024
-505.051
358.024
-582.12
379.48
-666.242
406.628
-757.046
439.171
-852.205
476.486
-949.091
517.934
-1046.08
563.068
-1143.11
611.701
-1241.72
663.878
-1344.84
719.801
-1456.72
779.776
-1582.82
844.222
-1729.4
913.683
-1901.55
988.681
-2099.85
1069.4
-2318.22
1155.62
-2546.96
1247.12
-2779.58
1344.26
-3016.86
1448.25
-3265.78
1561.21
-3535.59
1685.6
-3832.09
1823.31
-4153.44
1974.77
-4490.41
2138.68
-4830.37
2312.7
-5163.04
2494.09
-5481.52
2679.98
-5779.52
2867.77
-6049.32
3055.52
-6279.79
3242.42
-6455.27
3429.03
-6556.14
3616.62
-6561.76
3806.56
-6453.75
3999.31
-6214.4
4193.37
-5833.48
4389.36
-5311.54
4596.85
-4614.18
4836.95
-3626.98
5143.73
-2097.61
5418.89
335.994
5517.31
2455.21
5508.42
3432.8
5460.6
3673.61
5401.47
3600
5339.69
3418.08
5278.05
3210.5
5217.89
3007.62
5160.21
2819.11
5105.94
2646.6
5055.92
2488.72
5010.83
2343.17
4971.18
2207.55
4937.23
2079.74
4909.01
1958.01
4886.31
1841.11
4868.67
1728.19
4855.44
1618.78
4845.82
1512.7
4838.88
1410.03
4833.67
1310.98
4829.23
1215.9
4824.64
1125.16
4819.09
1039.14
4811.87
958.218
4802.35
882.722
4790.06
812.951
4774.58
749.186
4755.59
691.696
4732.8
640.752
4705.98
596.633
4674.93
559.584
4639.56
529.931
4599.65
507.405
4555.59
493.564
4506.91
482.956
488.342
1018.45
450.431
940.62
396.381
798.01
592.777
609.352
917.363
439.094
1214.09
332.245
1365.33
280.138
1374.13
253.437
1317.41
232.136
1250.08
209.964
1189.69
189.783
1130.23
177.333
1058.04
175.748
966.684
184.191
854.119
201.773
715.445
226.008
567.452
252.67
411.15
275.767
242.035
289.757
36.8278
293.566
-155.967
293.416
-273.883
295.087
-360.678
300.779
-438.208
311.399
-515.67
327.581
-598.302
349.703
-688.363
377.641
-784.984
410.794
-885.357
448.38
-986.677
489.768
-1087.47
534.632
-1187.98
582.952
-1290.03
634.922
-1396.81
690.816
-1512.61
750.889
-1642.89
815.365
-1793.87
884.473
-1970.66
958.382
-2173.76
1036.97
-2396.81
1119.85
-2629.84
1206.79
-2866.52
1298.25
-3108.32
1395.55
-3363.08
1500.92
-3640.96
1616.96
-3948.12
1745.62
-4282.11
1887.32
-4632.11
2040.69
-4983.74
2203.48
-5325.83
2373.3
-5651.34
2547.68
-5953.9
2724.28
-6225.93
2901.12
-6456.63
3077
-6631.15
3252.01
-6731.16
3427.26
-6737.01
3604.33
-6630.82
3784.2
-6394.26
3965.44
-6014.72
4148.14
-5494.24
4339.87
-4805.91
4556.18
-3843.28
4833.44
-2374.88
5111.27
58.1677
5222.86
2343.62
5228.1
3427.56
5195.72
3705.99
5153
3642.72
5107.91
3463.17
5062.82
3255.59
5018.87
3051.57
4977.01
2860.98
4938.09
2685.51
4902.9
2523.91
4872.02
2374.06
4845.8
2233.77
4824.37
2101.17
4807.57
1974.8
4795.04
1853.64
4786.2
1737.04
4780.3
1624.68
4776.49
1516.51
4773.88
1412.63
4771.58
1313.28
4768.75
1218.73
4764.63
1129.28
4758.57
1045.2
4750.02
966.77
4738.54
894.201
4723.77
827.714
4705.44
767.52
4683.29
713.844
4657.12
666.925
4626.75
627.007
4592.02
594.317
4552.89
569.053
4509.26
551.044
4461.61
541.207
4409.48
535.086
543.436
965.491
514.949
861.758
500.114
693.423
761.112
504.292
1106.49
358.619
1359.76
279.053