/*--------------------------------*- C++ -*----------------------------------*\
| =========                 |                                                 |
| \\      /  F ield         | OpenFOAM: The Open Source CFD Toolbox           |
|  \\    /   O peration     | Version:  4.1                                   |
|   \\  /    A nd           | Web:      www.OpenFOAM.org                      |
|    \\/     M anipulation  |                                                 |
\*---------------------------------------------------------------------------*/
FoamFile
{
    version     2.0;
    format      ascii;
    class       volVectorField;
    location    "400";
    object      U;
}
// * * * * * * * * * * * * * * * * * * * * * * * * * * * * * * * * * * * * * //

dimensions      [0 1 -1 0 0 0 0];

internalField   nonuniform List<vector> 
26785
(
(1.20828e-15 0.0298553 10.0619)
(1.32084e-15 0.0229802 9.52188)
(1.58699e-15 0.0185257 9.09795)
(1.33263e-15 0.0156526 8.77167)
(1.46022e-15 0.0134048 8.4937)
(7.14054e-16 0.0117681 8.25027)
(4.41934e-16 0.0106738 8.0402)
(3.05493e-16 0.0107858 7.85352)
(1.7515e-15 0.0135915 7.6551)
(1.18894e-15 0.020071 7.38029)
(9.03615e-17 0.0293395 6.96492)
(-1.62896e-15 0.0387072 6.38943)
(-3.82519e-15 0.0450861 5.69551)
(-5.72275e-15 0.0463832 4.96599)
(-6.83391e-15 0.0420833 4.29127)
(-7.11886e-15 0.0334288 3.74497)
(-6.71789e-15 0.0231656 3.37283)
(-6.03424e-15 0.0133801 3.19101)
(-4.92433e-15 0.00379522 3.18895)
(-5.58797e-15 -0.00511797 3.32316)
(-5.62609e-15 -0.0122785 3.54511)
(-4.88703e-15 -0.0178068 3.82229)
(-6.62263e-15 -0.0223832 4.13879)
(-6.69358e-15 -0.0263739 4.48768)
(-7.4285e-15 -0.0300218 4.86531)
(-7.68034e-15 -0.0334831 5.26948)
(-7.39573e-15 -0.0368482 5.6987)
(-7.02042e-15 -0.0401643 6.15174)
(-7.4129e-15 -0.0434518 6.62746)
(-8.80546e-15 -0.0467144 7.12468)
(-1.02633e-14 -0.0499475 7.64217)
(-9.94755e-15 -0.0531447 8.17862)
(-9.69229e-15 -0.0563071 8.73265)
(-8.2523e-15 -0.0594529 9.30294)
(-8.71695e-15 -0.0626299 9.8884)
(-9.19727e-15 -0.0659249 10.4885)
(-9.42036e-15 -0.0694574 11.1034)
(-9.4701e-15 -0.0733533 11.7347)
(-9.42089e-15 -0.0777022 12.3845)
(-9.66149e-15 -0.0825319 13.0558)
(-9.00077e-15 -0.0878162 13.7516)
(-8.84941e-15 -0.0935086 14.4751)
(-8.63652e-15 -0.0995738 15.2289)
(-9.53323e-15 -0.105998 16.0164)
(-9.65353e-15 -0.112777 16.8409)
(-1.05426e-14 -0.119884 17.7063)
(-1.09941e-14 -0.127245 18.6164)
(-1.0956e-14 -0.13471 19.5748)
(-1.09489e-14 -0.142021 20.5837)
(-1.10064e-14 -0.148759 21.6428)
(-1.08095e-14 -0.154283 22.748)
(-1.07085e-14 -0.157677 23.8891)
(-1.08827e-14 -0.157742 25.0479)
(-1.1017e-14 -0.15302 26.1966)
(-1.10283e-14 -0.141834 27.2965)
(-1.11266e-14 -0.122413 28.2974)
(-1.0701e-14 -0.0934029 29.1372)
(-1.00178e-14 -0.0546127 29.7434)
(-9.85669e-15 -0.00790304 30.0432)
(-8.46747e-15 0.0422321 29.983)
(-7.91277e-15 0.0907306 29.5476)
(-7.17346e-15 0.13279 28.772)
(-6.61015e-15 0.163464 27.7358)
(-5.09854e-15 0.180488 26.5455)
(-4.28943e-15 0.185567 25.3022)
(-3.41307e-15 0.182435 24.0782)
(-2.76619e-15 0.174605 22.9146)
(-2.16289e-15 0.164545 21.8298)
(-1.58645e-15 0.153759 20.8289)
(-1.17722e-15 0.143094 19.9098)
(-5.18753e-16 0.132992 19.067)
(1.66548e-16 0.123667 18.2937)
(5.96685e-16 0.115208 17.5824)
(9.55554e-16 0.107638 16.9262)
(1.36205e-15 0.100943 16.3183)
(1.20038e-15 0.0950828 15.7525)
(1.38684e-15 0.0900039 15.2232)
(1.61424e-15 0.0856381 14.7253)
(1.76826e-15 0.0819073 14.2544)
(1.87301e-15 0.0787255 13.8069)
(1.88048e-15 0.0760024 13.3794)
(2.13155e-15 0.0736461 12.9697)
(2.13632e-15 0.071567 12.5756)
(2.0242e-15 0.06968 12.1959)
(2.02704e-15 0.0679073 11.8295)
(1.90029e-15 0.0661801 11.4759)
(1.72206e-15 0.0644396 11.1349)
(1.49314e-15 0.0626372 10.8065)
(1.35998e-15 0.0607349 10.4911)
(1.17982e-15 0.0587049 10.189)
(8.83645e-16 0.0565283 9.90079)
(5.97916e-16 0.0541962 9.62694)
(3.20802e-16 0.051704 9.36809)
(4.00956e-17 0.0490632 9.12456)
(-2.49794e-16 0.0462693 8.89738)
(-5.358e-16 0.0433693 8.68534)
(-8.36562e-16 0.0403632 8.49314)
(-1.15327e-15 0.0371556 8.30766)
(-1.43028e-15 0.0348817 8.1696)
(-1.93136e-15 0.0291276 7.95991)
(1.26436e-15 0.0766832 10.1951)
(1.27473e-15 0.0615595 9.68454)
(1.35475e-15 0.051639 9.27913)
(1.34617e-15 0.0454145 8.95886)
(1.82429e-15 0.0402453 8.67679)
(1.45604e-15 0.0361175 8.42388)
(2.10694e-15 0.0328699 8.20435)
(2.68467e-15 0.0329908 8.00724)
(1.78027e-15 0.0418897 7.78386)
(1.26004e-15 0.06304 7.45578)
(2.385e-16 0.092717 6.96355)
(-1.73407e-15 0.120871 6.31362)
(-4.09931e-15 0.137448 5.5774)
(-5.52209e-15 0.137445 4.85311)
(-7.67021e-15 0.12111 4.23243)
(-8.34532e-15 0.0918197 3.79016)
(-5.7493e-15 0.0540838 3.57826)
(-4.17085e-15 0.0128818 3.59972)
(-3.47679e-15 -0.0224516 3.7738)
(-1.37412e-15 -0.0474982 4.00718)
(-2.45679e-15 -0.0637754 4.25613)
(-1.59951e-15 -0.0750848 4.51171)
(-2.84501e-15 -0.0844795 4.77846)
(-3.59166e-15 -0.0931447 5.06249)
(-3.11777e-15 -0.101562 5.36743)
(-4.46561e-15 -0.109912 5.69486)
(-5.11641e-15 -0.118239 6.04515)
(-4.92655e-15 -0.12653 6.41802)
(-4.5677e-15 -0.134752 6.81282)
(-5.68552e-15 -0.142859 7.22867)
(-5.18464e-15 -0.150804 7.66448)
(-5.17881e-15 -0.158539 8.11892)
(-5.45252e-15 -0.166034 8.59043)
(-5.27956e-15 -0.173299 9.07723)
(-6.08016e-15 -0.180408 9.57747)
(-6.51897e-15 -0.187537 10.0895)
(-6.7302e-15 -0.194968 10.6121)
(-6.96202e-15 -0.203036 11.1454)
(-7.18317e-15 -0.212039 11.6906)
(-7.28986e-15 -0.222169 12.2505)
(-7.69787e-15 -0.23352 12.8287)
(-6.90058e-15 -0.246168 13.4298)
(-6.96667e-15 -0.260237 14.0588)
(-6.47921e-15 -0.275936 14.7213)
(-6.79423e-15 -0.293517 15.4238)
(-7.2327e-15 -0.313187 16.1732)
(-8.23114e-15 -0.335012 16.9767)
(-8.6402e-15 -0.358804 17.841)
(-9.745e-15 -0.383983 18.7718)
(-9.40528e-15 -0.409374 19.7721)
(-9.85879e-15 -0.432995 20.8409)
(-1.01962e-14 -0.451925 21.9712)
(-1.05449e-14 -0.462331 23.148)
(-1.06906e-14 -0.459661 24.3474)
(-1.09397e-14 -0.438748 25.5357)
(-1.13249e-14 -0.39379 26.6694)
(-1.12464e-14 -0.318918 27.6931)
(-1.09276e-14 -0.209523 28.5358)
(-1.1261e-14 -0.0661029 29.11)
(-1.07385e-14 0.0989418 29.3192)
(-1.02943e-14 0.263644 29.0899)
(-8.58438e-15 0.404932 28.4378)
(-7.67032e-15 0.504717 27.4572)
(-8.12371e-15 0.557065 26.2822)
(-7.18274e-15 0.569683 25.0375)
(-6.04784e-15 0.556179 23.8097)
(-5.0252e-15 0.528572 22.6458)
(-4.41106e-15 0.494937 21.5658)
(-2.42259e-15 0.459986 20.5742)
(-1.7566e-15 0.426215 19.6677)
(-1.30393e-15 0.394827 18.8393)
(-2.26811e-16 0.366321 18.0808)
(1.01301e-16 0.340829 17.3842)
(5.6277e-16 0.318299 16.7414)
(6.7696e-16 0.298584 16.1455)
(7.29592e-16 0.281482 15.5899)
(1.06912e-15 0.266758 15.0689)
(1.24487e-15 0.254155 14.5778)
(1.61957e-15 0.243396 14.1124)
(1.79362e-15 0.234196 13.6692)
(1.82671e-15 0.226269 13.2455)
(2.01893e-15 0.219334 12.8392)
(2.08946e-15 0.213123 12.4488)
(2.05674e-15 0.20739 12.073)
(1.84327e-15 0.201911 11.7112)
(1.80065e-15 0.196495 11.3631)
(1.67072e-15 0.190976 11.0287)
(1.55673e-15 0.185224 10.7081)
(1.26903e-15 0.179136 10.4018)
(9.06239e-16 0.172639 10.11)
(6.18244e-16 0.165687 9.83336)
(3.34984e-16 0.158261 9.57236)
(3.55757e-17 0.150357 9.32755)
(-2.2262e-16 0.142017 9.09913)
(-5.18305e-16 0.133241 8.88798)
(-8.24712e-16 0.124193 8.69269)
(-1.12984e-15 0.114833 8.51765)
(-1.47169e-15 0.105181 8.35001)
(-1.75236e-15 0.0975149 8.22725)
(-2.2561e-15 0.0815178 8.04215)
(1.23608e-15 0.125343 10.36)
(1.57959e-15 0.10226 9.87009)
(1.62484e-15 0.0864735 9.47505)
(1.50083e-15 0.0769698 9.15195)
(2.14293e-15 0.0690428 8.85675)
(1.90618e-15 0.0623306 8.58733)
(2.6264e-15 0.0571601 8.35109)
(3.23054e-15 0.0592061 8.12442)
(3.3102e-15 0.0780825 7.83443)
(2.77084e-15 0.117533 7.39699)
(1.13791e-15 0.167817 6.78181)
(-1.26933e-15 0.210411 6.04193)
(-3.50402e-15 0.229941 5.28081)
(-4.79977e-15 0.220418 4.60468)
(-4.79427e-15 0.183024 4.09944)
(-6.51046e-15 0.123819 3.81543)
(-3.11512e-15 0.05356 3.73205)
(-2.26909e-15 -0.00981531 3.7409)
(-2.7139e-16 -0.0516375 3.73245)
(-8.76241e-16 -0.0759398 3.67879)
(-2.24785e-15 -0.090835 3.60603)
(2.9014e-16 -0.102941 3.54824)
(9.35081e-16 -0.11594 3.52929)
(-6.92787e-16 -0.130188 3.55858)
(-9.03673e-16 -0.145232 3.63572)
(-1.94157e-15 -0.160651 3.75708)
(-3.29439e-15 -0.17619 3.91899)
(-3.60892e-15 -0.191708 4.11859)
(-3.25117e-15 -0.207112 4.3538)
(-3.15393e-15 -0.222313 4.62298)
(-2.98735e-15 -0.237204 4.92461)
(-1.49101e-15 -0.251663 5.25703)
(-2.29074e-15 -0.265575 5.61833)
(-3.48798e-15 -0.278862 6.00628)
(-4.26277e-15 -0.291558 6.41855)
(-4.44791e-15 -0.303881 6.85302)
(-4.9271e-15 -0.31629 7.30841)
(-5.3564e-15 -0.329439 7.78494)
(-5.11307e-15 -0.344029 8.28471)
(-5.12001e-15 -0.36065 8.81154)
(-5.35673e-15 -0.379734 9.37033)
(-5.27355e-15 -0.401618 9.96634)
(-5.21562e-15 -0.426641 10.6048)
(-5.61006e-15 -0.455196 11.2909)
(-6.16283e-15 -0.487683 12.0297)
(-6.73114e-15 -0.524382 12.8264)
(-7.05531e-15 -0.565307 13.6859)
(-7.0601e-15 -0.610039 14.6125)
(-7.01773e-15 -0.657519 15.609)
(-7.16047e-15 -0.705761 16.6762)
(-7.34977e-15 -0.751532 17.8115)
(-7.58868e-15 -0.790197 19.0076)
(-7.77391e-15 -0.815809 20.2513)
(-8.05359e-15 -0.821454 21.5226)
(-8.65548e-15 -0.799444 22.7952)
(-8.99422e-15 -0.740987 24.0363)
(-9.2854e-15 -0.636127 25.2057)
(-1.06115e-14 -0.473856 26.2516)
(-1.12181e-14 -0.246421 27.1032)
(-1.18034e-14 0.0359226 27.6647)
(-1.21873e-14 0.33882 27.8143)
(-1.16258e-14 0.609582 27.4745)
(-1.05498e-14 0.804574 26.7071)
(-9.70121e-15 0.909331 25.6635)
(-7.88256e-15 0.938661 24.4995)
(-6.85588e-15 0.918995 23.3256)
(-6.56899e-15 0.873276 22.2028)
(-5.96478e-15 0.81664 21.1576)
(-5.24573e-15 0.757752 20.1974)
(-4.50195e-15 0.701107 19.3196)
(-3.7881e-15 0.648802 18.5176)
(-2.99983e-15 0.601648 17.7829)
(-2.64373e-15 0.559794 17.1071)
(-2.57584e-15 0.523064 16.4823)
(-2.24252e-15 0.49112 15.9014)
(-1.839e-15 0.463538 15.3581)
(-1.39961e-15 0.439855 14.8472)
(-9.79922e-16 0.419582 14.3641)
(-5.99562e-16 0.402218 13.9053)
(-2.80803e-16 0.387266 13.4678)
(-2.00706e-17 0.374241 13.0495)
(1.56388e-16 0.36268 12.6487)
(4.59095e-16 0.352154 12.2642)
(5.36384e-16 0.342272 11.8953)
(5.88169e-16 0.33269 11.5415)
(5.54122e-16 0.32311 11.2028)
(4.69808e-16 0.313287 10.8792)
(3.5107e-16 0.303025 10.571)
(1.68587e-16 0.292178 10.2785)
(4.0392e-17 0.280647 10.0021)
(-2.02853e-16 0.268376 9.74223)
(-4.49447e-16 0.255358 9.49907)
(-6.9506e-16 0.241609 9.27299)
(-9.96168e-16 0.227224 9.06387)
(-1.29229e-15 0.212236 8.87227)
(-1.59332e-15 0.196948 8.69632)
(-1.87716e-15 0.181257 8.54005)
(-2.18509e-15 0.165581 8.39031)
(-2.44123e-15 0.152079 8.28258)
(-2.89348e-15 0.128267 8.11686)
(1.33903e-15 0.173084 10.5455)
(1.40666e-15 0.143054 10.0684)
(1.76072e-15 0.122764 9.67437)
(2.40261e-15 0.111153 9.33866)
(2.52412e-15 0.101008 9.02313)
(3.28286e-15 0.0917472 8.7346)
(4.23037e-15 0.0855879 8.47621)
(3.60681e-15 0.0927666 8.19505)
(3.22341e-15 0.126203 7.79013)
(2.50258e-15 0.186153 7.19575)
(9.56926e-16 0.253906 6.44082)
(-1.03312e-15 0.303082 5.63284)
(-2.94295e-15 0.315749 4.89511)
(-2.44589e-15 0.287479 4.32285)
(-1.92304e-15 0.224608 3.95787)
(-1.24342e-15 0.143489 3.75379)
(-5.16984e-16 0.065896 3.56941)
(2.47853e-15 0.00975145 3.2738)
(1.06513e-15 -0.0223633 2.86382)
(-7.31065e-17 -0.0432571 2.41944)
(-8.17142e-16 -0.0630538 2.04569)
(1.79998e-15 -0.0869706 1.80384)
(1.11016e-15 -0.11462 1.69068)
(8.42787e-16 -0.142445 1.67205)
(6.3008e-16 -0.168956 1.71691)
(1.15435e-16 -0.194211 1.8069)
(-1.25367e-15 -0.218653 1.933)
(-1.6918e-15 -0.24264 2.09127)
(-1.94817e-15 -0.266359 2.28016)
(-2.54675e-15 -0.289838 2.49908)
(-2.17938e-15 -0.312981 2.74768)
(-1.3196e-15 -0.335613 3.02557)
(-3.24089e-15 -0.357543 3.3323)
(-3.7521e-15 -0.378633 3.66744)
(-6.32348e-15 -0.398917 4.0309)
(-3.78415e-15 -0.418727 4.42331)
(-5.344e-15 -0.438781 4.84644)
(-5.64013e-15 -0.460104 5.30349)
(-3.31608e-15 -0.483762 5.79871)
(-4.68459e-15 -0.510577 6.33651)
(-4.67166e-15 -0.541032 6.92035)
(-3.36683e-15 -0.575401 7.5523)
(-3.96091e-15 -0.61394 8.23329)
(-6.29542e-15 -0.65702 8.96391)
(-6.65316e-15 -0.705083 9.74512)
(-6.8763e-15 -0.758459 10.5786)
(-5.8289e-15 -0.817162 11.4664)
(-4.94587e-15 -0.880661 12.4111)
(-4.62829e-15 -0.947628 13.4145)
(-5.25892e-15 -1.01555 14.4774)
(-5.20499e-15 -1.08034 15.5979)
(-5.34141e-15 -1.13612 16.7709)
(-5.00753e-15 -1.17541 17.9861)
(-5.31187e-15 -1.18966 19.2282)
(-5.90524e-15 -1.16955 20.4769)
(-7.00004e-15 -1.10454 21.7082)
(-7.21976e-15 -0.982524 22.895)
(-8.7454e-15 -0.788652 24.0045)
(-9.68854e-15 -0.506212 24.99)
(-1.18459e-14 -0.133134 25.7781)
(-1.26319e-14 0.300721 26.2437)
(-1.41424e-14 0.719676 26.2252)
(-1.37267e-14 1.03683 25.7082)
(-1.27616e-14 1.21587 24.8365)
(-1.13267e-14 1.27582 23.79)
(-1.08214e-14 1.25798 22.7015)
(-9.26689e-15 1.19872 21.6456)
(-7.56394e-15 1.12189 20.6557)
(-6.71099e-15 1.04104 19.7423)
(-5.76194e-15 0.96312 18.9048)
(-5.73656e-15 0.891346 18.1373)
(-4.96157e-15 0.826919 17.4319)
(-4.77617e-15 0.770019 16.7807)
(-3.97807e-15 0.720323 16.1763)
(-2.97104e-15 0.677266 15.6121)
(-2.9701e-15 0.640172 15.0825)
(-2.54866e-15 0.608318 14.5827)
(-2.56298e-15 0.580965 14.1091)
(-2.21858e-15 0.557385 13.6585)
(-1.90657e-15 0.536871 13.2288)
(-1.65372e-15 0.518754 12.8181)
(-1.44578e-15 0.50241 12.4254)
(-1.29631e-15 0.487271 12.0497)
(-1.15978e-15 0.472832 11.6907)
(-1.02599e-15 0.458653 11.3481)
(-9.2653e-16 0.444365 11.022)
(-1.06899e-15 0.429668 10.7124)
(-1.1585e-15 0.414332 10.4196)
(-1.29469e-15 0.398195 10.1438)
(-1.34969e-15 0.381158 9.88516)
(-1.50145e-15 0.363186 9.64386)
(-1.7475e-15 0.344306 9.4199)
(-1.89751e-15 0.324583 9.21328)
(-2.1233e-15 0.304183 9.02348)
(-2.3806e-15 0.283193 8.85072)
(-2.66213e-15 0.262059 8.69266)
(-2.92369e-15 0.240616 8.55312)
(-3.16016e-15 0.219709 8.41841)
(-3.37897e-15 0.200993 8.32316)
(-3.72828e-15 0.171575 8.17133)
(1.39063e-15 0.217309 10.735)
(1.5854e-15 0.180757 10.2592)
(1.84434e-15 0.15764 9.85376)
(2.18752e-15 0.145185 9.49536)
(2.66064e-15 0.133286 9.15473)
(1.93571e-15 0.122084 8.84592)
(2.83028e-15 0.118035 8.55416)
(3.82486e-15 0.136761 8.18218)
(3.62648e-15 0.190509 7.61679)
(2.46484e-15 0.270666 6.84431)
(5.52881e-16 0.348356 5.97251)
(2.12479e-16 0.392782 5.1521)
(-1.12354e-15 0.388105 4.49802)
(1.50434e-16 0.336751 4.05343)
(1.39478e-15 0.256402 3.7719)
(3.18596e-16 0.174446 3.52166)
(5.43646e-16 0.113528 3.15977)
(9.50598e-16 0.07764 2.62529)
(-5.63986e-17 0.0533611 1.99911)
(-3.18397e-16 0.020513 1.43941)
(-8.95255e-17 -0.0267365 1.1233)
(7.61013e-16 -0.0780703 1.03822)
(2.13566e-16 -0.12321 1.06559)
(2.26467e-15 -0.160411 1.13673)
(3.29462e-16 -0.19254 1.22829)
(-1.04089e-15 -0.222214 1.33477)
(-3.76942e-15 -0.250984 1.45617)
(-3.08098e-15 -0.279637 1.59391)
(-2.78289e-15 -0.308496 1.74962)
(-3.89466e-15 -0.337596 1.9247)
(-5.03971e-15 -0.366812 2.12023)
(-7.16073e-15 -0.395948 2.33724)
(-7.78688e-15 -0.424821 2.57699)
(-6.02687e-15 -0.453359 2.8413)
(-7.08554e-15 -0.481722 3.13293)
(-5.93283e-15 -0.510452 3.45586)
(-4.90163e-15 -0.540508 3.81541)
(-4.60257e-15 -0.573089 4.21772)
(-4.96915e-15 -0.609216 4.66855)
(-4.97143e-15 -0.649404 5.1717)
(-5.76993e-15 -0.693692 5.72809)
(-6.51081e-15 -0.741982 6.33613)
(-8.46979e-15 -0.794393 6.99306)
(-9.01186e-15 -0.851419 7.69646)
(-8.46768e-15 -0.913793 8.44524)
(-7.56216e-15 -0.982162 9.23979)
(-6.66392e-15 -1.05678 10.0817)
(-5.90267e-15 -1.13722 10.9729)
(-5.14355e-15 -1.22206 11.9157)
(-4.94896e-15 -1.30846 12.9112)
(-4.36823e-15 -1.39158 13.9591)
(-4.38925e-15 -1.46445 15.0556)
(-4.57028e-15 -1.51822 16.1929)
(-5.10044e-15 -1.5429 17.3583)
(-5.64755e-15 -1.52808 18.535)
(-6.81139e-15 -1.46228 19.7043)
(-7.67111e-15 -1.33225 20.8466)
(-8.6387e-15 -1.12131 21.9426)
(-8.15253e-15 -0.806145 22.9666)
(-8.37066e-15 -0.370162 23.8738)
(-7.67856e-15 0.170584 24.5682)
(-1.01706e-14 0.741037 24.8481)
(-1.1225e-14 1.20009 24.5884)
(-1.13771e-14 1.47243 23.9006)
(-1.14878e-14 1.57578 22.9833)
(-9.63426e-15 1.56759 21.9919)
(-8.92652e-15 1.49984 21.0136)
(-7.56325e-15 1.40646 20.0882)
(-6.99282e-15 1.30655 19.2293)
(-5.59243e-15 1.20983 18.4377)
(-4.95689e-15 1.12076 17.7088)
(-4.43254e-15 1.04098 17.0357)
(-4.61088e-15 0.970711 16.4113)
(-4.10717e-15 0.909488 15.829)
(-3.53902e-15 0.856516 15.2832)
(-2.84794e-15 0.810863 14.7689)
(-2.15488e-15 0.77155 14.2822)
(-2.2544e-15 0.737604 13.8202)
(-1.95592e-15 0.708082 13.3804)
(-1.94016e-15 0.682092 12.961)
(-1.92123e-15 0.658804 12.5609)
(-1.31599e-15 0.637462 12.1793)
(-1.23368e-15 0.61739 11.8156)
(-1.12755e-15 0.597997 11.4696)
(-1.02156e-15 0.578781 11.1412)
(-1.10583e-15 0.559327 10.8304)
(-1.22586e-15 0.53931 10.5373)
(-1.38442e-15 0.518492 10.262)
(-1.5525e-15 0.496718 10.0045)
(-1.7688e-15 0.473914 9.76491)
(-2.00387e-15 0.45008 9.54304)
(-2.21379e-15 0.425296 9.33859)
(-2.41177e-15 0.399685 9.15126)
(-2.64535e-15 0.373489 8.98019)
(-2.84448e-15 0.346851 8.8253)
(-3.05317e-15 0.320348 8.68378)
(-3.27094e-15 0.293748 8.55939)
(-3.46203e-15 0.268359 8.4377)
(-3.66584e-15 0.245006 8.35337)
(-3.96593e-15 0.211721 8.21198)
(1.47499e-15 0.270129 10.9239)
(1.68185e-15 0.225541 10.4288)
(1.87321e-15 0.199064 9.99208)
(2.29322e-15 0.184846 9.59709)
(2.74929e-15 0.170014 9.22548)
(2.77559e-15 0.157039 8.88904)
(3.50396e-15 0.158728 8.53754)
(4.86819e-15 0.195123 8.03222)
(5.03014e-15 0.272075 7.27978)
(2.65198e-15 0.367529 6.34967)
(6.68434e-17 0.443974 5.42402)
(7.16036e-16 0.472121 4.66197)
(1.97599e-16 0.444451 4.12682)
(3.19607e-16 0.374608 3.77846)
(1.2512e-15 0.290162 3.49918)
(2.13402e-15 0.220295 3.15497)
(2.96329e-15 0.178831 2.67353)
(-6.07473e-16 0.156368 2.08708)
(-2.44803e-15 0.127924 1.51969)
(1.56307e-15 0.0691546 1.12084)
(8.57518e-16 -0.0153318 0.986812)
(-4.42387e-15 -0.0860775 1.0163)
(-1.96531e-16 -0.136718 1.08788)
(3.59089e-15 -0.17536 1.16955)
(-1.96583e-15 -0.208707 1.25734)
(-2.46473e-15 -0.2402 1.35278)
(-3.43282e-15 -0.271459 1.45815)
(-4.88947e-15 -0.303202 1.57547)
(-3.6121e-15 -0.335661 1.70621)
(-6.22151e-15 -0.368809 1.85137)
(-6.74345e-15 -0.402506 2.01167)
(-9.27229e-15 -0.436618 2.18799)
(-8.46982e-15 -0.471105 2.38187)
(-7.55423e-15 -0.506115 2.59592)
(-6.54707e-15 -0.542098 2.83424)
(-4.55824e-15 -0.579908 3.10259)
(-4.99031e-15 -0.620747 3.4082)
(-5.93608e-15 -0.665813 3.75867)
(-6.76406e-15 -0.715766 4.16015)
(-6.4678e-15 -0.770467 4.61557)
(-8.74236e-15 -0.829278 5.12406)
(-9.53393e-15 -0.891696 5.68222)
(-8.84467e-15 -0.957807 6.28604)
(-9.46264e-15 -1.02838 6.93255)
(-8.58978e-15 -1.10453 7.6206)
(-7.42716e-15 -1.18726 8.35059)
(-6.59393e-15 -1.27703 9.12385)
(-5.71306e-15 -1.37353 9.94202)
(-4.84341e-15 -1.47529 10.8067)
(-4.05534e-15 -1.57923 11.719)
(-3.71704e-15 -1.67996 12.6791)
(-4.05072e-15 -1.76954 13.6846)
(-4.94033e-15 -1.8379 14.7294)
(-5.84657e-15 -1.87377 15.803)
(-6.49034e-15 -1.86584 16.8913)
(-7.03632e-15 -1.80229 17.9782)
(-7.45305e-15 -1.66986 19.0487)
(-8.55461e-15 -1.45225 20.0916)
(-8.23505e-15 -1.1231 21.0965)
(-8.87322e-15 -0.65193 22.043)
(-8.92849e-15 -0.0351041 22.8756)
(-9.82938e-15 0.675679 23.4129)
(-1.00116e-14 1.29206 23.4089)
(-1.04746e-14 1.67691 22.9091)
(-9.63585e-15 1.83682 22.1234)
(-8.54837e-15 1.84616 21.231)
(-7.40988e-15 1.77498 20.3328)
(-6.00619e-15 1.66881 19.4744)
(-5.46121e-15 1.55293 18.6721)
(-4.28068e-15 1.4401 17.9283)
(-4.14858e-15 1.33607 17.2395)
(-3.58381e-15 1.24296 16.6)
(-3.45021e-15 1.16104 16.0037)
(-3.05666e-15 1.08972 15.4449)
(-3.63502e-15 1.02798 14.919)
(-3.35763e-15 0.974643 14.422)
(-2.75083e-15 0.928501 13.9507)
(-2.70402e-15 0.888365 13.5028)
(-2.28954e-15 0.853108 13.0765)
(-1.97313e-15 0.82168 12.6705)
(-1.76704e-15 0.793122 12.2841)
(-1.65684e-15 0.766576 11.9167)
(-1.5503e-15 0.741288 11.568)
(-1.96306e-15 0.716611 11.2378)
(-2.04738e-15 0.692005 10.9262)
(-1.65021e-15 0.667039 10.6331)
(-1.60749e-15 0.641384 10.3586)
(-1.67941e-15 0.614816 10.1026)
(-1.81291e-15 0.587208 9.86503)
(-1.98224e-15 0.558527 9.64555)
(-2.24655e-15 0.528824 9.44385)
(-2.45385e-15 0.498239 9.25931)
(-2.59639e-15 0.466967 9.09131)
(-2.80073e-15 0.435329 8.93863)
(-3.07476e-15 0.403539 8.8009)
(-3.27867e-15 0.372293 8.67479)
(-3.48224e-15 0.341312 8.56412)
(-3.72898e-15 0.312353 8.45332)
(-3.90615e-15 0.28521 8.37821)
(-4.16868e-15 0.249987 8.24296)
(1.57364e-15 0.314347 10.9926)
(1.65218e-15 0.265661 10.4753)
(1.8452e-15 0.238243 10.0113)
(2.42973e-15 0.223108 9.59123)
(3.12179e-15 0.205909 9.20451)
(2.70866e-15 0.194047 8.84134)
(2.38787e-15 0.20808 8.39859)
(3.11856e-15 0.268455 7.72011)
(3.59334e-15 0.367929 6.7802)
(1.57822e-15 0.469321 5.75128)
(8.46868e-16 0.532327 4.8539)
(4.4991e-16 0.536762 4.20294)
(2.72374e-17 0.487671 3.77891)
(1.17852e-16 0.408594 3.47149)
(1.90823e-15 0.330064 3.14591)
(6.89448e-16 0.275675 2.71487)
(8.17679e-17 0.246917 2.18358)
(3.1817e-15 0.223212 1.65007)
(8.02167e-16 0.178124 1.23703)
(1.52947e-15 0.0948929 1.02796)
(-5.18539e-15 -0.0149786 1.01894)
(-6.39158e-15 -0.0945674 1.08844)
(-1.95777e-16 -0.147242 1.16708)
(-6.13703e-18 -0.187032 1.24726)
(-2.23479e-15 -0.221841 1.33105)
(-2.31196e-15 -0.255227 1.42109)
(-4.14028e-15 -0.288785 1.51965)
(-5.38816e-15 -0.32317 1.62844)
(-3.70583e-15 -0.358542 1.74848)
(-7.30606e-15 -0.39483 1.88023)
(-8.5171e-15 -0.431919 2.02397)
(-8.54882e-15 -0.469792 2.18024)
(-7.89948e-15 -0.508629 2.35043)
(-7.29984e-15 -0.548891 2.53724)
(-7.46552e-15 -0.591414 2.74509)
(-5.55475e-15 -0.637439 2.98026)
(-6.26966e-15 -0.688416 3.25048)
(-7.53684e-15 -0.745451 3.56357)
(-7.89279e-15 -0.808691 3.9253)
(-6.71891e-15 -0.877215 4.33771)
(-8.56848e-15 -0.949694 4.79898)
(-7.60524e-15 -1.0253 5.30525)
(-8.54251e-15 -1.10421 5.85272)
(-7.82414e-15 -1.18751 6.43913)
(-7.08752e-15 -1.27671 7.06412)
(-6.53401e-15 -1.37302 7.72846)
(-6.0607e-15 -1.47704 8.43321)
(-4.90585e-15 -1.58846 9.17913)
(-3.70567e-15 -1.70584 9.96673)
(-2.71693e-15 -1.82601 10.7965)
(-2.6612e-15 -1.94322 11.6684)
(-3.35186e-15 -2.04884 12.5813)
(-4.42197e-15 -2.13167 13.5308)
(-5.0917e-15 -2.17922 14.5085)
(-5.28575e-15 -2.17932 15.5028)
(-5.63715e-15 -2.11996 16.4996)
(-5.14398e-15 -1.98821 17.4863)
(-6.30026e-15 -1.76929 18.4558)
(-6.49882e-15 -1.43767 19.407)
(-8.16534e-15 -0.952906 20.3368)
(-9.79287e-15 -0.289437 21.23)
(-1.03834e-14 0.533337 21.9597)
(-9.92924e-15 1.31394 22.2006)
(-1.09396e-14 1.82949 21.89)
(-1.03027e-14 2.05929 21.2352)
(-1.01941e-14 2.09393 20.4402)
(-8.75481e-15 2.02419 19.6207)
(-6.64296e-15 1.90882 18.8284)
(-6.48111e-15 1.77999 18.0823)
(-5.57104e-15 1.65365 17.3861)
(-5.615e-15 1.53695 16.7376)
(-5.03831e-15 1.43247 16.1321)
(-4.7277e-15 1.34054 15.5646)
(-4.45346e-15 1.26044 15.0306)
(-3.97222e-15 1.19096 14.5262)
(-4.05976e-15 1.13071 14.0484)
(-4.07034e-15 1.07826 13.5948)
(-3.72273e-15 1.03226 13.1636)
(-3.57526e-15 0.99142 12.7535)
(-3.25089e-15 0.954565 12.3638)
(-3.12425e-15 0.920641 11.9939)
(-2.87687e-15 0.888714 11.6436)
(-2.84461e-15 0.85798 11.3127)
(-2.98036e-15 0.827761 11.001)
(-2.99733e-15 0.797506 10.7087)
(-2.9681e-15 0.766784 10.4357)
(-2.92626e-15 0.735287 10.1818)
(-2.8871e-15 0.702822 9.94683)
(-2.96882e-15 0.669306 9.73048)
(-3.08572e-15 0.634763 9.53221)
(-3.30421e-15 0.599313 9.35135)
(-3.42947e-15 0.563172 9.18694)
(-3.56969e-15 0.526617 9.03798)
(-3.75243e-15 0.490053 8.90284)
(-3.91482e-15 0.453778 8.78082)
(-4.13947e-15 0.418583 8.66808)
(-4.31047e-15 0.384164 8.56857)
(-4.4874e-15 0.352643 8.46545)
(-4.64387e-15 0.322767 8.39675)
(-4.796e-15 0.287302 8.26229)
(1.49326e-15 0.362602 10.9995)
(1.73373e-15 0.309297 10.4551)
(1.91469e-15 0.2798 9.96506)
(2.44743e-15 0.262497 9.52727)
(3.01045e-15 0.243505 9.12851)
(3.44747e-15 0.237505 8.71527)
(3.41303e-15 0.271024 8.13046)
(1.77493e-15 0.357945 7.24546)
(2.21166e-15 0.472848 6.15254)
(1.54944e-15 0.567357 5.10914)
(5.60606e-16 0.607243 4.3111)
(-3.47826e-16 0.586823 3.78614)
(-4.11643e-16 0.522938 3.43709)
(6.5673e-16 0.443729 3.12454)
(2.24276e-15 0.376249 2.74286)
(4.78678e-15 0.334686 2.26861)
(3.67544e-15 0.308771 1.76704)
(3.66153e-15 0.273323 1.34995)
(-1.82226e-15 0.208462 1.09123)
(-6.69041e-15 0.101386 1.02115)
(-5.56531e-15 -0.0229494 1.08915)
(-4.6426e-15 -0.105346 1.17689)
(-5.28862e-16 -0.158232 1.25786)
(-3.05264e-15 -0.19852 1.33675)
(-3.97406e-15 -0.234374 1.41808)
(-2.48592e-15 -0.269292 1.50493)
(-1.87877e-15 -0.304788 1.59961)
(-4.30068e-15 -0.341415 1.70368)
(-7.25836e-15 -0.379235 1.81792)
(-7.80746e-15 -0.418113 1.94251)
(-9.61408e-15 -0.457956 2.07741)
(-9.07484e-15 -0.498867 2.2229)
(-7.68679e-15 -0.541262 2.38013)
(-7.6427e-15 -0.585938 2.55159)
(-7.62979e-15 -0.634141 2.74156)
(-6.43391e-15 -0.687517 2.95617)
(-7.80649e-15 -0.747741 3.20292)
(-8.41798e-15 -0.815779 3.4892)
(-7.42516e-15 -0.891202 3.82011)
(-5.3325e-15 -0.9723 4.19692)
(-5.86634e-15 -1.05713 4.61736)
(-6.80369e-15 -1.14467 5.07761)
(-7.67399e-15 -1.23528 5.5746)
(-6.38967e-15 -1.33046 6.1071)
(-5.92973e-15 -1.43197 6.67571)
(-5.52164e-15 -1.54116 7.28168)
(-4.69849e-15 -1.65851 7.92577)
(-3.90549e-15 -1.78363 8.60769)
(-2.43701e-15 -1.91507 9.32647)
(-2.38506e-15 -2.04975 10.0813)
(-3.06985e-15 -2.18181 10.8717)
(-3.26423e-15 -2.30215 11.6969)
(-3.54328e-15 -2.3987 12.5543)
(-3.71842e-15 -2.45784 13.4377)
(-3.72192e-15 -2.46644 14.3379)
(-4.16726e-15 -2.41241 15.2431)
(-2.72758e-15 -2.28326 16.1418)
(-2.80593e-15 -2.06599 17.029)
(-2.49882e-15 -1.7385 17.9081)
(-4.7176e-15 -1.25628 18.785)
(-7.14037e-15 -0.573996 19.6729)
(-1.00407e-14 0.324771 20.5184)
(-1.12897e-14 1.2672 20.9825)
(-1.12745e-14 1.93033 20.86)
(-1.05932e-14 2.2439 20.3343)
(-1.01274e-14 2.31178 19.6335)
(-8.80824e-15 2.2482 18.8898)
(-7.0887e-15 2.12704 18.1614)
(-6.63587e-15 1.98806 17.4698)
(-6.07362e-15 1.85067 16.8202)
(-6.31782e-15 1.72341 16.2115)
(-5.6439e-15 1.60935 15.6401)
(-4.94392e-15 1.50888 15.1021)
(-4.2825e-15 1.42118 14.5939)
(-4.22204e-15 1.34485 14.1126)
(-3.73384e-15 1.27833 13.6558)
(-3.83418e-15 1.22002 13.222)
(-3.96546e-15 1.1684 12.8099)
(-3.80296e-15 1.12209 12.4187)
(-3.77403e-15 1.0798 12.0479)
(-3.4993e-15 1.04042 11.6973)
(-3.1718e-15 1.00296 11.3668)
(-3.28216e-15 0.96659 11.0562)
(-3.14428e-15 0.930629 10.7657)
(-3.43763e-15 0.894533 10.495)
(-3.5308e-15 0.857896 10.2441)
(-3.61047e-15 0.820449 10.0126)
(-3.69794e-15 0.782053 9.80019)
(-3.77638e-15 0.742693 9.60615)
(-4.03364e-15 0.702469 9.42963)
(-4.19896e-15 0.661588 9.26955)
(-4.27395e-15 0.620355 9.12454)
(-4.32103e-15 0.579137 8.9932)
(-4.49142e-15 0.538423 8.87347)
(-4.68123e-15 0.498582 8.76441)
(-4.81332e-15 0.460462 8.66174)
(-4.96637e-15 0.423746 8.56975)
(-5.06433e-15 0.390777 8.47034)
(-5.13346e-15 0.359405 8.40466)
(-5.19408e-15 0.325111 8.26585)
(1.43232e-15 0.412202 10.9508)
(1.79171e-15 0.354729 10.3794)
(1.97117e-15 0.322676 9.86804)
(2.70898e-15 0.302342 9.42053)
(3.19699e-15 0.283522 9.00222)
(3.32954e-15 0.290023 8.49594)
(4.21228e-15 0.349512 7.7148)
(2.83649e-15 0.460595 6.62415)
(1.72767e-15 0.578833 5.45277)
(2.18271e-15 0.654064 4.48169)
(4.11847e-16 0.666489 3.82082)
(-1.14981e-15 0.625492 3.40321)
(-6.43282e-16 0.555 3.08786)
(1.12027e-15 0.481755 2.74775)
(2.61212e-15 0.425216 2.33123)
(5.52045e-15 0.389878 1.87087)
(5.44253e-15 0.358044 1.45528)
(-3.92721e-16 0.306335 1.16881)
(-1.03172e-14 0.222099 1.03723)
(-8.12732e-15 0.0940175 1.06761)
(-5.16386e-15 -0.0354551 1.17594)
(-5.01901e-15 -0.116497 1.26894)
(-2.21334e-15 -0.168587 1.34834)
(-7.96027e-15 -0.209171 1.42449)
(-5.03515e-15 -0.246029 1.50279)
(-2.15333e-15 -0.282453 1.58647)
(-2.39249e-15 -0.319837 1.67785)
(-6.98629e-15 -0.358611 1.7784)
(-8.89932e-15 -0.39872 1.88876)
(-8.24417e-15 -0.43996 2.00889)
(-1.04573e-14 -0.48225 2.13852)
(-8.49882e-15 -0.525815 2.27767)
(-7.00053e-15 -0.571302 2.42724)
(-7.35782e-15 -0.619844 2.58942)
(-7.83151e-15 -0.673093 2.76811)
(-7.27594e-15 -0.733088 2.96903)
(-9.15761e-15 -0.80171 3.19914)
(-8.12658e-15 -0.879754 3.46524)
(-5.66422e-15 -0.966201 3.7718)
(-3.52254e-15 -1.05859 4.11953)
(-4.0763e-15 -1.15443 4.50594)
(-3.36423e-15 -1.25266 4.92751)
(-5.10548e-15 -1.35392 5.38188)
(-4.89704e-15 -1.46011 5.86883)
(-4.84103e-15 -1.57324 6.38988)
(-3.92068e-15 -1.6946 6.94679)
(-2.69453e-15 -1.8244 7.54011)
(-1.82534e-15 -1.96196 8.16852)
(-1.77617e-15 -2.1058 8.82942)
(-2.18163e-15 -2.25298 9.52025)
(-2.73303e-15 -2.3978 10.2394)
(-3.1079e-15 -2.531 10.986)
(-3.21478e-15 -2.63996 11.7585)
(-3.09934e-15 -2.71004 12.5533)
(-2.88102e-15 -2.72716 13.3634)
(-2.90232e-15 -2.67894 14.1797)
(-1.17187e-15 -2.55329 14.9916)
(-5.74559e-16 -2.33885 15.7946)
(4.81479e-16 -2.01814 16.5942)
(1.95757e-15 -1.54721 17.3998)
(2.60402e-15 -0.866417 18.2394)
(-1.17645e-15 0.0669765 19.1209)
(-6.63873e-15 1.15614 19.7707)
(-1.02275e-14 1.98059 19.831)
(-9.90526e-15 2.39187 19.4312)
(-1.00602e-14 2.50095 18.8208)
(-9.03685e-15 2.44806 18.1494)
(-7.42503e-15 2.32426 17.4821)
(-6.75719e-15 2.17773 16.8431)
(-6.22434e-15 2.03151 16.2389)
(-6.32664e-15 1.8956 15.6694)
(-6.05632e-15 1.77356 15.1321)
(-5.34901e-15 1.66586 14.624)
(-4.36668e-15 1.57157 14.1427)
(-3.14911e-15 1.48916 13.6859)
(-3.01847e-15 1.41691 13.2521)
(-3.53736e-15 1.35308 12.8402)
(-3.51394e-15 1.29606 12.4495)
(-3.65127e-15 1.24434 12.0796)
(-3.69787e-15 1.1966 11.7302)
(-3.4463e-15 1.15166 11.4015)
(-3.17199e-15 1.10853 11.0933)
(-3.13489e-15 1.06638 10.8055)
(-3.23371e-15 1.02454 10.5383)
(-3.36308e-15 0.982488 10.2913)
(-3.29981e-15 0.939883 10.0642)
(-3.46175e-15 0.896516 9.85645)
(-3.65833e-15 0.852327 9.66728)
(-3.85122e-15 0.80739 9.49565)
(-4.05419e-15 0.761901 9.34026)
(-4.25909e-15 0.716161 9.19959)
(-4.35922e-15 0.670564 9.07188)
(-4.449e-15 0.625556 8.95536)
(-4.61477e-15 0.58168 8.84769)
(-4.70677e-15 0.539348 8.74783)
(-4.78788e-15 0.499409 8.65128)
(-4.85826e-15 0.461536 8.56287)
(-4.95823e-15 0.428139 8.46335)
(-4.99492e-15 0.396412 8.39756)
(-5.04268e-15 0.364247 8.25051)
(1.69122e-15 0.456746 10.8487)
(1.82491e-15 0.395294 10.2524)
(1.95508e-15 0.362021 9.72691)
(2.25783e-15 0.340758 9.27519)
(2.22382e-15 0.328342 8.81521)
(2.70161e-15 0.356206 8.15797)
(2.84086e-15 0.444427 7.14493)
(2.34604e-15 0.570428 5.89733)
(1.17552e-15 0.677447 4.74446)
(1.15155e-15 0.725013 3.90908)
(1.50954e-15 0.711403 3.3864)
(1.7989e-15 0.656968 3.04157)
(1.64165e-15 0.586742 2.73008)
(4.81006e-15 0.521532 2.36481)
(5.09235e-15 0.471936 1.95049)
(4.93316e-15 0.435546 1.55139)