/*--------------------------------*- C++ -*----------------------------------*\
| =========                 |                                                 |
| \\      /  F ield         | OpenFOAM: The Open Source CFD Toolbox           |
|  \\    /   O peration     | Version:  4.1                                   |
|   \\  /    A nd           | Web:      www.OpenFOAM.org                      |
|    \\/     M anipulation  |                                                 |
\*---------------------------------------------------------------------------*/
FoamFile
{
    version     2.0;
    format      ascii;
    class       volScalarField;
    location    "700";
    object      p;
}
// * * * * * * * * * * * * * * * * * * * * * * * * * * * * * * * * * * * * * //

dimensions      [0 2 -2 0 0 0 0];

internalField   nonuniform List<scalar> 
26785
(
-126.975
-130.651
-135.53
-141.026
-146.985
-153.199
-159.664
-166.499
-173.917
-182.15
-191.363
-201.602
-212.743
-224.568
-236.789
-248.805
-259.944
-269.42
-275.414
-276.594
-272.712
-263.889
-252.138
-239.699
-227.695
-216.469
-206.043
-196.315
-187.158
-178.457
-170.12
-162.078
-154.279
-146.691
-139.297
-132.103
-125.122
-118.382
-111.92
-105.785
-100.045
-94.7736
-90.0368
-85.8924
-82.3812
-79.5295
-77.3222
-75.6988
-74.5611
-73.633
-72.6599
-71.5061
-70.1073
-68.455
-66.5667
-64.4714
-62.2077
-59.8282
-57.4048
-55.0357
-52.8534
-51.0294
-49.7678
-49.2769
-49.7203
-51.1602
-53.517
-56.5664
-59.9809
-63.4225
-66.6473
-69.5379
-72.033
-74.0269
-75.3229
-75.6634
-74.833
-72.7675
-69.5874
-65.5956
-61.206
-56.8427
-52.8652
-49.52
-46.911
-44.9668
-43.3864
-41.6811
-39.3814
-36.1801
-32.1271
-27.6273
-23.1486
-19.0025
-15.2732
-11.9369
-8.78245
-6.02644
-2.76209
-1.87916
-127.021
-130.659
-135.545
-141.046
-147.007
-153.22
-159.684
-166.517
-173.933
-182.166
-191.38
-201.621
-212.766
-224.595
-236.821
-248.846
-259.998
-269.501
-275.527
-276.729
-272.87
-264.03
-252.243
-239.778
-227.757
-216.523
-206.092
-196.361
-187.202
-178.499
-170.161
-162.117
-154.316
-146.726
-139.33
-132.132
-125.148
-118.404
-111.937
-105.796
-100.05
-94.7711
-90.0273
-85.8766
-82.3606
-79.5087
-77.3063
-75.6881
-74.563
-73.6449
-72.6749
-71.5232
-70.125
-68.4723
-66.5834
-64.4875
-62.2229
-59.842
-57.4169
-55.0459
-52.8625
-51.0398
-49.7842
-49.3066
-49.7717
-51.2393
-53.6253
-56.6997
-60.1286
-63.5703
-66.7836
-69.6605
-72.1496
-74.1499
-75.4617
-75.8178
-74.9909
-72.9098
-69.6911
-65.6444
-61.1979
-56.7885
-52.7838
-49.4345
-46.8454
-44.9446
-43.4268
-41.7872
-39.5429
-36.3668
-32.2926
-27.7467
-23.2256
-19.0555
-15.3198
-11.9851
-8.83263
-6.06768
-2.8143
-1.84432
-127.063
-130.665
-135.573
-141.086
-147.051
-153.264
-159.725
-166.553
-173.964
-182.195
-191.41
-201.656
-212.806
-224.643
-236.879
-248.92
-260.093
-269.65
-275.757
-277.018
-273.209
-264.335
-252.471
-239.946
-227.89
-216.636
-206.193
-196.455
-187.291
-178.584
-170.242
-162.195
-154.391
-146.796
-139.395
-132.192
-125.202
-118.45
-111.973
-105.82
-100.06
-94.7678
-90.0099
-85.8464
-82.3209
-79.4685
-77.2743
-75.6683
-74.5728
-73.6732
-72.7097
-71.5628
-70.1637
-68.5099
-66.6208
-64.5241
-62.2574
-59.873
-57.4432
-55.0674
-52.8807
-51.0607
-49.8198
-49.373
-49.8833
-51.4041
-53.8422
-56.9581
-60.4077
-63.843
-67.0285
-69.875
-72.3514
-74.3646
-75.7095
-76.1006
-75.2876
-73.1861
-69.9032
-65.7604
-61.2121
-56.7164
-52.6524
-49.2759
-46.6929
-44.838
-43.4203
-41.9175
-39.7958
-36.6847
-32.5813
-27.9552
-23.3595
-19.1494
-15.407
-12.0792
-8.93293
-6.15077
-2.91584
-1.78764
-127.1
-130.685
-135.625
-141.152
-147.122
-153.332
-159.786
-166.606
-174.01
-182.235
-191.452
-201.702
-212.859
-224.704
-236.954
-249.013
-260.212
-269.84
-276.07
-277.422
-273.7
-264.785
-252.813
-240.202
-228.093
-216.807
-206.346
-196.597
-187.424
-178.711
-170.363
-162.311
-154.502
-146.901
-139.494
-132.282
-125.282
-118.519
-112.029
-105.86
-100.08
-94.7669
-89.988
-85.8061
-82.2677
-79.4155
-77.2347
-75.6502
-74.5956
-73.7149
-72.7687
-71.6266
-70.2267
-68.5725
-66.6827
-64.5838
-62.3134
-59.9237
-57.4874
-55.1052
-52.9163
-51.1059
-49.8934
-49.496
-50.0716
-51.6637
-54.1677
-57.3323
-60.8005
-64.2164
-67.3538
-70.1516
-72.6079
-74.6412
-76.0386
-76.4888
-75.7074
-73.5908
-70.2283
-65.9565
-61.2675
-56.6482
-52.4928
-49.0631
-46.4667
-44.6428
-43.3168
-41.959
-39.9861
-36.9897
-32.8881
-28.1879
-23.5149
-19.267
-15.5275
-12.2163
-9.08114
-6.2737
-3.05744
-1.72157
-127.134
-130.72
-135.7
-141.244
-147.218
-153.421
-159.865
-166.671
-174.064
-182.284
-191.501
-201.755
-212.92
-224.775
-237.039
-249.12
-260.346
-270.054
-276.445
-277.918
-274.319
-265.366
-253.263
-240.542
-228.362
-217.035
-206.549
-196.783
-187.599
-178.877
-170.521
-162.462
-154.647
-147.04
-139.624
-132.403
-125.391
-118.614
-112.107
-105.917
-100.112
-94.7719
-89.9661
-85.7619
-82.2088
-79.3561
-77.1946
-75.6397
-74.6373
-73.7734
-72.8583
-71.7179
-70.3158
-68.6601
-66.7682
-64.6659
-62.3906
-59.9947
-57.5515
-55.1646
-52.9796
-51.1907
-50.023
-49.6925
-50.3477
-52.019
-54.5895
-57.7978
-61.274
-64.6534
-67.7211
-70.4521
-72.8825
-74.945
-76.4173
-76.956
-76.2308
-74.1148
-70.6676
-66.2418
-61.3794
-56.6055
-52.3299
-48.8199
-46.185
-44.3709
-43.1248
-41.9174
-40.1063
-37.2464
-33.1634
-28.395
-23.6507
-19.3785
-15.6612
-12.3837
-9.2685
-6.4312
-3.22836
-1.65806
-127.202
-130.777
-135.803
-141.363
-147.338
-153.529
-159.96
-166.749
-174.127
-182.338
-191.554
-201.813
-212.985
-224.85
-237.129
-249.234
-260.488
-270.278
-276.861
-278.479
-275.039
-266.057
-253.804
-240.955
-228.692
-217.314
-206.796
-197.011
-187.813
-179.079
-170.714
-162.648
-154.826
-147.211
-139.785
-132.553
-125.529
-118.736
-112.21
-105.995
-100.16
-94.7866
-89.9502
-85.7222
-82.1531
-79.2978
-77.1593
-75.6413
-74.7038
-73.8647
-72.9778
-71.8348
-70.4283
-68.7695
-66.8743
-64.7683
-62.4886
-60.0875
-57.6399
-55.2537
-53.0825
-51.3292
-50.222
-49.9696
-50.7063
-52.4495
-55.0748
-58.3152
-61.7872
-65.1143
-68.0928
-70.741
-73.1417
-75.2441
-76.8159
-77.4768
-76.8384
-74.7479
-71.222
-66.6264
-61.5603
-56.6028
-52.1835
-48.5701
-45.8728
-44.042
-42.8475
-41.7719
-40.1259
-37.4095
-33.358
-28.5319
-23.7311
-19.4585
-15.792
-12.5714
-9.48777
-6.61827
-3.41868
-1.60456
-127.301
-130.857
-135.932
-141.506
-147.479
-153.654
-160.066
-166.835
-174.196
-182.396
-191.61
-201.873
-213.052
-224.928
-237.221
-249.35
-260.632
-270.502
-277.301
-279.088
-275.84
-266.838
-254.423
-241.431
-229.074
-217.638
-207.084
-197.276
-188.061
-179.314
-170.94
-162.865
-155.036
-147.413
-139.978
-132.733
-125.695
-118.886
-112.339
-106.096
-100.225
-94.8157
-89.9478
-85.6958
-82.1094
-79.2487
-77.1414
-75.6502
-74.7745
-73.9893
-73.1214
-71.9723
-70.5598
-68.8971
-66.9991
-64.8905
-62.6079
-60.204
-57.7559
-55.3775
-53.2321
-51.5287
-50.4914
-50.3161
-51.1236
-52.9232
-55.5884
-58.8491
-62.3064
-65.5672
-68.4382
-70.9885
-73.3558
-75.5083
-77.2043
-78.024
-77.5099
-75.4789
-71.888
-67.114
-61.8225
-56.6534
-52.069
-48.3339
-45.5535
-43.6821
-42.5095
-41.5424
-40.0564
-37.4718
-33.4526
-28.5735
-23.7318
-19.4875
-15.9066
-12.7709
-9.73224
-6.82996
-3.62037
-1.56587
-127.412
-130.964
-136.087
-141.671
-147.637
-153.792
-160.184
-166.929
-174.269
-182.457
-191.667
-201.933
-213.119
-225.004
-237.312
-249.465
-260.774
-270.718
-277.751
-279.732
-276.701
-267.693
-255.105
-241.96
-229.501
-218.001
-207.408
-197.574
-188.341
-179.581
-171.196
-163.113
-155.277
-147.646
-140.201
-132.943
-125.891
-119.064
-112.494
-106.22
-100.312
-94.8647
-89.9667
-85.6912
-82.0856
-79.2099
-77.1485
-75.6613
-74.8412
-74.1401
-73.2797
-72.1235
-70.7052
-69.0399
-67.141
-65.0318
-62.7483
-60.3443
-57.9011
-55.5403
-53.4327
-51.7875
-50.8197
-50.712
-51.5748
-53.4138
-56.1042
-59.3741
-62.8073
-65.9889
-68.7347
-71.1713
-73.5008
-75.7114
-77.5542
-78.5694
-78.2232
-76.2911
-72.6553
-67.6978
-62.1703
-56.7694
-51.9973
-48.127
-45.2488
-43.3144
-42.1329
-41.2453
-39.8968
-37.4254
-33.4321
-28.5013
-23.6348
-19.4518
-15.9961
-12.9766
-9.99711
-7.062
-3.82698
-1.54362
-127.533
-131.1
-136.266
-141.855
-147.81
-153.942
-160.31
-167.029
-174.346
-182.519
-191.724
-201.993
-213.184
-225.078
-237.4
-249.576
-260.912
-270.921
-278.195
-280.4
-277.607
-268.603
-255.837
-242.531
-229.965
-218.397
-207.763
-197.902
-188.651
-179.876
-171.481
-163.39
-155.547
-147.909
-140.453
-133.184
-126.116
-119.271
-112.677
-106.37
-100.422
-94.94
-90.0141
-85.7157
-82.089
-79.1855
-77.1824
-75.7025
-74.9256
-74.3106
-73.4469
-72.2828
-70.8611
-69.196
-67.2984
-65.1904
-62.9087
-60.5092
-58.0783
-55.7444
-53.6819
-52.0963
-51.1919
-51.1394
-52.0415
-53.9034
-56.6046
-59.8735
-63.2738
-66.3639
-68.9665
-71.2733
-73.5593
-75.8329
-77.8397
-79.0848
-78.9502
-77.1578
-73.5055
-68.3638
-62.5952
-56.9587
-51.9766
-47.9578
-44.9756
-42.9627
-41.7455
-40.9019
-39.6588
-37.2791
-33.294
-28.3065
-23.4303
-19.344
-16.0567
-13.1864
-10.2797
-7.31028
-4.03264
-1.53765
-127.664
-131.259
-136.467
-142.056
-147.998
-154.103
-160.444
-167.133
-174.425
-182.581
-191.781
-202.05
-213.247
-225.15
-237.483
-249.681
-261.043
-271.108
-278.622
-281.082
-278.542
-269.555
-256.606
-243.135
-230.459
-218.822
-208.145
-198.257
-188.987
-180.198
-171.792
-163.694
-155.846
-148.201
-140.736
-133.453
-126.37
-119.507
-112.888
-106.547
-100.562
-95.047
-90.0949
-85.7752
-82.1233
-79.1769
-77.2354
-75.7864
-75.0396
-74.4855
-73.6157
-72.4455
-71.0246
-69.3627
-67.4688
-65.365
-63.0891
-60.6997
-58.2879
-55.9874
-53.9735
-52.4453
-51.5959
-51.5854
-52.511
-54.3798
-57.0784
-60.3366
-63.6962
-66.6833
-69.1253
-71.286
-73.5216
-75.8594
-78.0401
-79.5425
-79.66
-78.0465
-74.4162
-69.0939
-63.0807
-57.2169
-52.0187
-47.834
-44.7453
-42.6465
-41.3708
-40.5349
-39.3658
-37.0503
-33.0436
-27.9885
-23.1155
-19.163
-16.0888
-13.4008
-10.579
-7.573
-4.2355
-1.54678
-127.84
-131.444
-136.688
-142.273
-148.196
-154.271
-160.583
-167.24
-174.505
-182.643
-191.837
-202.106
-213.307
-225.217
-237.561
-249.779
-261.165
-271.277
-279.022
-281.763
-279.488
-270.532
-257.401
-243.763
-230.976
-219.269
-208.55
-198.635
-189.347
-180.545
-172.129
-164.025
-156.172
-148.52
-141.046
-133.752
-126.653
-119.77
-113.126
-106.753
-100.735
-95.1894
-90.2114
-85.8727
-82.1874
-79.1821
-77.2854
-75.8703
-75.1675
-74.6558
-73.7806
-72.6092
-71.1927
-69.537
-67.6502
-65.5546
-63.289
-60.9151
-58.5282
-56.2655
-54.3008
-52.8255
-52.0217
-52.0402
-52.9745
-54.8359
-57.5196
-60.7578
-64.0696
-66.9428
-69.2074
-71.2068
-73.386
-75.7859
-78.142
-79.9174
-80.3218
-78.9208
-75.3609
-69.8669
-63.6074
-57.5268
-52.1312
-47.7632
-44.5625
-42.3799
-41.0295
-40.1694
-39.0443
-36.7592
-32.692
-27.5541
-22.6956
-18.9144
-16.0972
-13.6215
-10.8914
-7.84115
-4.42986
-1.57931
-128.035
-131.651
-136.926
-142.501
-148.402
-154.443
-160.725
-167.349
-174.587
-182.706
-191.893
-202.162
-213.366
-225.282
-237.634
-249.868
-261.279
-271.427
-279.392
-282.426
-280.424
-271.517
-258.209
-244.407
-231.511
-219.736
-208.975
-199.035
-189.73
-180.915
-172.49
-164.38
-156.523
-148.867
-141.385
-134.078
-126.964
-120.061
-113.393
-106.992
-100.944
-95.3683
-90.3634
-86.0068
-82.2789
-79.2172
-77.3426
-75.9229
-75.2911
-74.8184
-73.9444
-72.7777
-71.3664
-69.7177
-67.8407
-65.7571
-63.5067
-61.1534
-58.7963
-56.574
-54.6571
-53.2289
-52.461
-52.4963
-53.4261
-55.2669
-57.9238
-61.1327
-64.3897
-67.1396
-69.2127
-71.0397
-73.1592
-75.6177
-78.1415
-80.1895
-80.903
-79.739
-76.3084
-70.658
-64.1532
-57.8682
-52.3025
-47.7536
-44.4291
-42.1695
-40.7388
-39.8282
-38.7186
-36.4249
-32.255
-27.0185
-22.1839
-18.6109
-16.093
-13.8574
-11.2207
-8.10826
-4.59749
-1.59918
-128.234
-131.885
-137.18
-142.739
-148.612
-154.617
-160.868
-167.459
-174.669
-182.771
-191.951
-202.219
-213.424
-225.344
-237.701
-249.949
-261.382
-271.556
-279.728
-283.062
-281.336
-272.497
-259.019
-245.059
-232.057
-220.217
-209.418
-199.455
-190.133
-181.307
-172.873
-164.758
-156.899
-149.239
-141.749
-134.431
-127.301
-120.379
-113.691
-107.265
-101.191
-95.5831
-90.5497
-86.1789
-82.4087
-79.295
-77.3394
-75.9307
-75.4105
-74.9747
-74.1129
-72.9594
-71.5547
-69.9101
-68.0406
-65.9708
-63.7399
-61.4122
-59.0884
-56.9076
-55.036
-53.6483
-52.9068
-52.9478
-53.8613
-55.6693
-58.2872
-61.4561
-64.6516
-67.2712
-69.1443
-70.7956
-72.8564
-75.3688
-78.0448
-80.3463
-81.3745
-80.4606
-77.2257
-71.4399
-64.6968
-58.2212
-52.5104
-47.8125
-44.3479
-42.0168
-40.5121
-39.5364
-38.4172
-36.0674
-31.7551
-26.4093
-21.6065
-18.2701
-16.0771
-14.0958
-11.5569
-8.38053
-4.77571
-1.66283
-128.436
-132.143
-137.447
-142.983
-148.824
-154.791
-161.01
-167.569
-174.753
-182.838
-192.012
-202.278
-213.483
-225.405
-237.764
-250.02
-261.474
-271.666
-280.026
-283.67
-282.216
-273.458
-259.821
-245.712
-232.611
-220.71
-209.875
-199.891
-190.556
-181.719
-173.277
-165.157
-157.297
-149.634
-142.137
-134.808
-127.663
-120.726
-114.021
-107.574
-101.474
-95.835
-90.7695
-86.3919
-82.5976
-79.427
-77.2582
-75.9426
-75.5221
-75.1299
-74.291
-73.153
-71.7562
-70.1178
-68.2548
-66.1965
-63.9863
-61.6878
-59.4001
-57.2608
-55.4311
-54.0772
-53.3532
-53.3899
-54.2763
-56.0396
-58.6054
-61.7226
-64.85
-67.3365
-69.0099
-70.4901
-72.4964
-75.0614
-77.8709
-80.3854
-81.7183
-81.0575
-78.082
-72.1839
-65.2144
-58.5647
-52.7342
-47.9284
-44.323
-41.9186
-40.3527
-39.311
-38.1605
-35.7049
-31.2233
-25.7667
-21.0044
-17.9319
-16.0883
-14.3681
-11.8927
-8.61231
-4.90069
-1.7195
-128.647
-132.421
-137.723
-143.228
-149.033
-154.962
-161.151
-167.68
-174.84
-182.909
-192.078
-202.341
-213.543
-225.465
-237.821
-250.083
-261.556
-271.756
-280.284
-284.25
-283.058
-274.391
-260.607
-246.359
-233.167
-221.21
-210.344
-200.343
-190.995
-182.148
-173.7
-165.576
-157.715
-150.05
-142.548
-135.209
-128.051
-121.1
-114.383
-107.917
-101.79
-96.1212
-91.0201
-86.6449
-82.8611
-79.6256
-77.214
-76.0178
-75.6256
-75.2925
-74.4773
-73.3522
-71.9644
-70.3359
-68.4835
-66.4374
-64.2462
-61.9768
-59.7266
-57.6283
-55.8365
-54.5097
-53.7947
-53.818
-54.6674
-56.3745
-58.8746
-61.9273
-64.9809
-67.337
-68.8186
-70.1384
-72.1011
-74.7204
-77.6333
-80.2993
-81.915
-81.5112
-78.8442
-72.8588
-65.6838
-58.8838
-52.9557
-48.0746
-44.362
-41.871
-40.2521
-39.1578
-37.9425
-35.3461
-30.7097
-25.1655
-20.4462
-17.6066
-16.0745
-14.6006
-12.1834
-8.75848
-4.9414
-1.76422
-128.895
-132.718
-138.004
-143.472
-149.238
-155.13
-161.292
-167.794
-174.931
-182.985
-192.148
-202.407
-213.604
-225.523
-237.873
-250.135
-261.626
-271.825
-280.501
-284.809
-283.859
-275.286
-261.367
-246.995
-233.721
-221.716
-210.823
-200.807
-191.449
-182.595
-174.14
-166.013
-158.151
-150.485
-142.978
-135.631
-128.462
-121.503
-114.777
-108.29
-102.139
-96.4354
-91.2987
-86.9358
-83.1835
-79.8734
-77.2549
-76.1672
-75.7482
-75.454
-74.675
-73.5673
-72.1864
-70.5633
-68.7217
-66.6924
-64.5218
-62.2791
-60.064
-58.0047
-56.2469
-54.9408
-54.2272
-54.2289
-55.032
-56.6715
-59.0914
-62.0661
-65.0416
-67.276
-68.5788
-69.7588
-71.7023
-74.3644
-77.3197
-80.0626
-81.9311
-81.8117
-79.4619
-73.4278
-66.0797
-59.1579
-53.1561
-48.2335
-44.4639
-41.8689
-40.183
-39.0723
-37.794
-35.0165
-30.2463
-24.6561
-20.0245
-17.403
-16.1135
-14.8766
-12.5248
-8.97891
-5.0632
-1.90743
-129.155
-133.028
-138.287
-143.712
-149.437
-155.295
-161.433
-167.91
-175.027
-183.066
-192.223
-202.477
-213.667
-225.579
-237.92
-250.177
-261.684
-271.875
-280.681
-285.339
-284.614
-276.135
-262.096
-247.615
-234.271
-222.224
-211.31
-201.282
-191.917
-183.056
-174.594
-166.464
-158.603
-150.936
-143.426
-136.073
-128.896
-121.932
-115.196
-108.692
-102.513
-96.7742
-91.6065
-87.2595
-83.5349
-80.1421
-77.4036
-76.3591
-75.9163
-75.6415
-74.8946
-73.806
-72.4339
-70.8137
-68.976
-66.9586
-64.8102
-62.5955
-60.4117
-58.3858
-56.6565
-55.3651
-54.6463
-54.6189
-55.3672
-56.9282
-59.2536
-62.1374
-65.0334
-67.1572
-68.3015
-69.3832
-71.3391
-74.019
-76.9775
-79.7291
-81.7677
-81.9567
-79.848
-73.8411
-66.3788
-59.3736
-53.3247
-48.3893
-44.5979
-41.9086
-40.1739
-39.0546
-37.6598
-34.6649
-29.7736
-24.2679
-19.8018
-17.2902
-16.1011
-14.9875
-12.6923
-8.95251
-4.77021
-1.81294
-129.424
-133.351
-138.568
-143.946
-149.632
-155.459
-161.575
-168.03
-175.126
-183.152
-192.303
-202.549
-213.73
-225.634
-237.96
-250.208
-261.729
-271.904
-280.827
-285.821
-285.313
-276.93
-262.787
-248.213
-234.811
-222.731
-211.8
-201.765
-192.396
-183.529
-175.063
-166.93
-159.069
-151.402
-143.889
-136.532
-129.352
-122.383
-115.638
-109.113
-102.907
-97.1391
-91.9412
-87.611
-83.9005
-80.4336
-77.6826
-76.5875
-76.1282
-75.8572
-75.1365
-74.0655
-72.7031
-71.0885
-69.2557
-67.2453
-65.111
-62.9209
-60.7679
-58.7702
-57.0612
-55.7767
-55.0456
-54.9819
-55.6673
-57.1396
-59.3584
-62.1427
-64.9577
-66.9763
-67.9943
-69.0338
-71.0094
-73.6831
-76.6625
-79.4079
-81.4811
-81.9164
-79.8732
-74.0328
-66.5551
-59.5149
-53.4547
-48.5406
-44.757
-41.9996
-40.2364
-39.0648
-37.4182
-34.093
-29.1859
-23.8843
-19.6807
-17.278
-16.0039
-14.815
-12.5795
-9.00103
-5.12569
-2.16359
-129.698
-133.679
-138.845
-144.175
-149.822
-155.621
-161.719
-168.152
-175.23
-183.242
-192.386
-202.625
-213.793
-225.685
-237.993
-250.227
-261.761
-271.911
-280.94
-286.247
-285.958
-277.668
-263.436
-248.788
-235.34
-223.235
-212.293
-202.255
-192.884
-184.014
-175.544
-167.408
-159.547
-151.88
-144.366
-137.008
-129.824
-122.85
-116.095
-109.546
-103.323
-97.5273
-92.3002
-87.9876
-84.2818
-80.7524
-78.0324
-76.8636
-76.385
-76.1036
-75.4029
-74.3465
-72.9927
-71.3837
-69.5573
-67.5558
-65.4334
-63.2604
-61.1294
-59.155
-57.4622
-56.1779
-55.4259
-55.3169
-55.9302
-57.3031
-59.4032
-62.0778
-64.7998
-66.7101
-67.6446
-68.6802
-70.6403
-73.2765
-76.2832
-79.0476
-81.066
-81.6891
-79.5495
-73.9719
-66.5845
-59.5661
-53.5415
-48.6825
-44.9123
-42.1509
-40.3553
-39.0003
-36.9201
-33.3677
-28.5907
-23.6346
-19.7284
-17.2964
-15.8025
-14.3537
-12.0841
-8.84925
-5.67349
-2.68606
-129.979
-134.011
-139.117
-144.399
-150.009
-155.784
-161.865
-168.277
-175.336
-183.335
-192.473
-202.701
-213.855
-225.733
-238.019
-250.233
-261.779
-271.896
-281.02
-286.623
-286.551
-278.346
-264.039
-249.336
-235.854
-223.732
-212.786
-202.749
-193.379
-184.508
-176.035
-167.897
-160.036
-152.368
-144.854
-137.497
-130.307
-123.326
-116.554
-109.991
-103.761
-97.937
-92.6814
-88.3874
-84.6814
-81.0998
-78.4101
-77.1857
-76.6837
-76.3806
-75.6929
-74.648
-73.3018
-71.698
-69.8775
-67.8848
-65.7751
-63.6188
-61.5067
-59.5485
-57.863
-56.5715
-55.7921
-55.6307
-56.1636
-57.4252
-59.3893
-61.929
-64.5303
-66.3311
-67.2199
-68.2568
-70.1596
-72.7474
-75.8053
-78.6441
-80.5902
-81.1866
-78.9332
-73.6087
-66.4511
-59.5417
-53.6059
-48.8165
-45.0825
-42.3643
-40.4514
-38.7259
-36.2786
-32.6269
-28.0492
-23.4395
-19.7526
-17.2924
-15.601
-13.924
-11.6177
-8.63076
-5.93366
-3.07375
-130.283
-134.342
-139.384
-144.618
-150.194
-155.946
-162.011
-168.404
-175.445
-183.431
-192.562
-202.779
-213.916
-225.776
-238.036
-250.226
-261.784
-271.858
-281.067
-286.952
-287.093
-278.959
-264.592
-249.853
-236.352
-224.222
-213.276
-203.244
-193.879
-185.01
-176.534
-168.394
-160.534
-152.866
-145.353
-137.993
-130.798
-123.802
-117.015
-110.451
-104.216
-98.3669
-93.0837
-88.8072
-85.0977
-81.4736
-78.804
-77.544
-77.0158
-76.6854
-76.004
-74.9673
-73.6274
-72.0286
-70.2138
-68.2292
-66.1309
-63.9897
-61.8943
-59.9492
-58.2668
-56.9624
-56.1485
-55.9256
-56.3661
-57.5005
-59.3075
-61.6766
-64.1139
-65.8004
-66.6783
-67.7188
-69.5382
-72.0717
-75.1875
-78.1401
-80.0465
-80.4415
-78.1691
-73.0651
-66.2261
-59.4999
-53.653
-48.9502
-45.2937
-42.5362
-40.3882
-38.3117
-35.5928
-31.9006
-27.5185
-23.1997
-19.7029
-17.2403
-15.3887
-13.5675
-11.2743
-8.46403
-5.99338
-3.32649
-130.594
-134.672
-139.646
-144.834
-150.377
-156.107
-162.158
-168.532
-175.555
-183.529
-192.653
-202.857
-213.975
-225.815
-238.045
-250.205
-261.775
-271.796
-281.081
-287.234
-287.585
-279.504
-265.091
-250.337
-236.83
-224.701
-213.762
-203.739
-194.381
-185.516
-177.04
-168.899
-161.04
-153.372
-145.857
-138.493
-131.287
-124.272
-117.482
-110.925
-104.689
-98.8162
-93.5063
-89.2425
-85.5247
-81.8713
-79.2096
-77.9261
-77.3706
-77.0125
-76.3327
-75.3013
-73.9662
-72.3718
-70.5623
-68.5852
-66.4973
-64.3691
-62.2872
-60.3513
-58.6677
-57.3454
-56.4906
-56.1979
-56.5348
-57.5287
-59.1621
-61.329
-63.5608
-65.128
-66.0167
-67.0563
-68.7704
-71.2201
-74.3496
-77.3926
-79.3222
-79.5976
-77.3192
-72.4153
-65.9208
-59.4233
-53.7247
-49.0985
-45.43
-42.5535
-40.181
-37.813
-34.8831
-31.1749
-26.9697
-22.9048
-19.5807
-17.1228
-15.1669
-13.271
-11.0093
-8.31294
-5.92501
-3.47911
-130.908
-135
-139.903
-145.046
-150.557
-156.268
-162.304
-168.659
-175.666
-183.628
-192.745
-202.935
-214.032
-225.848
-238.045
-250.171
-261.75
-271.708
-281.06
-287.475
-288.028
-279.977
-265.533
-250.785
-237.288
-225.168
-214.24
-204.23
-194.883
-186.025
-177.551
-169.41
-161.552
-153.883
-146.362
-138.988
-131.759
-124.739
-117.956
-111.409
-105.176
-99.2845
-93.9479
-89.6899
-85.9582
-82.2883
-79.6282
-78.3194
-77.7394
-77.3557
-76.6749
-75.6465
-74.3152
-72.7244
-70.9195
-68.9489
-66.8699
-64.7526
-62.6813
-60.751
-59.0621
-57.7173
-56.8163
-56.4467
-56.6703
-57.513
-58.9595
-60.8976
-62.8912
-64.3295
-65.2297
-66.2571
-67.8597
-70.2117
-73.3146
-76.3914
-78.3007
-78.4742
-76.2389
-71.5986
-65.4704
-59.2441
-53.6961
-49.1056
-45.4088
-42.4288
-39.8577
-37.2441
-34.1483
-30.4443
-26.4077
-22.5699
-19.3928
-16.9407
-14.9244
-12.9905
-10.7572
-8.14719
-5.83536
-3.57408
-131.221
-135.326
-140.155
-145.256
-150.735
-156.426
-162.449
-168.786
-175.777
-183.729
-192.838
-203.013
-214.086
-225.876
-238.036
-250.123
-261.711
-271.594
-281.004
-287.677
-288.421
-280.377
-265.916
-251.196
-237.722
-225.62
-214.709
-204.716
-195.382
-186.533
-178.063
-169.924
-162.068
-154.392
-146.863
-139.466
-132.222
-125.209
-118.437
-111.905
-105.678
-99.7711
-94.4071
-90.1471
-86.3977
-82.7183
-80.0568
-78.7168
-78.1148
-77.7088
-77.0262
-75.9995
-74.6709
-73.0832
-71.2821
-69.3169
-67.2452
-65.1365
-63.0728
-61.1448
-59.4469
-58.0756
-57.1239
-56.6719
-56.7746
-57.4581
-58.7077
-60.3996
-62.1382
-63.4386
-64.3333
-65.33
-66.8168
-69.0505
-72.0836
-75.176
-77.0773
-77.1192
-74.8823
-70.5047
-64.7675
-58.8429
-53.4713
-48.9495
-45.2448
-42.1728
-39.4243
-36.6067
-33.391
-29.7222
-25.853
-22.2107
-19.1486
-16.7031
-14.6531
-12.6964
-10.4876
-7.98343
-5.84256
-3.6446
-131.534
-135.648
-140.404
-145.463
-150.909
-156.583
-162.591
-168.912
-175.888
-183.83
-192.931
-203.09
-214.14
-225.899
-238.019
-250.061
-261.657
-271.453
-280.913
-287.834
-288.762
-280.704
-266.239
-251.568
-238.131
-226.056
-215.167
-205.193
-195.876
-187.038
-178.574
-170.438
-162.582
-154.902
-147.35
-139.926
-132.682
-125.681
-118.924
-112.41
-106.193
-100.275
-94.8827
-90.6127
-86.8452
-83.1613
-80.4928
-79.1152
-78.4904
-78.0659
-77.3824
-76.3568
-75.0304
-73.4453
-71.6474
-69.6865
-67.6205
-65.5182
-63.4594
-61.5304
-59.8202
-58.4191
-57.4133
-56.8748
-56.852
-57.371
-58.4161
-59.8546
-61.3383
-62.4955
-63.3569
-64.296
-65.654
-67.7323
-70.616
-73.6595
-75.6163
-75.6321
-73.3972
-69.2346
-63.8652
-58.2535
-53.0812
-48.6473
-44.9397
-41.7816
-38.8816
-35.9108
-32.6315
-29.0276
-25.3121
-21.8319
-18.8647
-16.4353
-14.3667
-12.3927
-10.2059
-7.83113
-5.93011
-3.69235
-131.868
-135.966
-140.648
-145.666
-151.08
-156.736
-162.731
-169.035
-175.996
-183.93
-193.023
-203.165
-214.191
-225.917
-237.992
-249.986
-261.587
-271.285
-280.786
-287.944
-289.049
-280.959
-266.503
-251.9
-238.514
-226.474
-215.611
-205.66
-196.362
-187.539
-179.082
-170.95
-163.092
-155.399
-147.814
-140.377
-133.141
-126.155
-119.416
-112.925
-106.72
-100.796
-95.3739
-91.0857
-87.3023
-83.6196
-80.9359
-79.5118
-78.8607
-78.4218
-77.7396
-76.7155
-75.3912
-73.8083
-72.0131
-70.0556
-67.9937
-65.8959
-63.8396
-61.9069
-60.1815
-58.7478
-57.6855
-57.0581
-56.9079
-57.2597
-58.0954
-59.2809
-60.5212
-61.5344
-62.3346
-63.1903
-64.4075
-66.2981
-68.9568
-71.8541
-73.8568
-73.9541
-71.799
-67.8746
-62.8389
-57.524
-52.5462
-48.2007
-44.4928
-41.2627
-38.2493
-35.1811
-31.8803
-28.348
-24.7699
-21.433
-18.5552
-16.1523
-14.074
-12.0884
-9.92677
-7.68129
-5.99771
-3.70645
-132.205
-136.281
-140.89
-145.867
-151.248
-156.885
-162.867
-169.154
-176.103
-184.03
-193.114
-203.239
-214.24
-225.93
-237.956
-249.899
-261.502
-271.09
-280.615
-288.009
-289.278
-281.139
-266.708
-252.191
-238.87
-226.872
-216.041
-206.116
-196.839
-188.031
-179.583
-171.453
-163.591
-155.867
-148.26
-140.825
-133.6
-126.632
-119.915
-113.448
-107.26
-101.333
-95.8798
-91.5657
-87.7684
-84.09
-81.3832
-79.9029
-79.2218
-78.7724
-78.0948
-77.0731
-75.7511
-74.1705
-72.3776
-70.4227
-68.3639
-66.2689
-64.2129
-62.274
-60.531
-59.0627
-57.9422
-57.2254
-56.9482
-57.1331
-57.7583
-58.6971
-59.7092
-60.5779
-61.2919
-62.0418
-63.1067
-64.785
-67.1596
-69.8051
-71.7592
-71.9712
-70.0023
-66.3878
-61.6825
-56.6548
-51.8666
-47.6119
-43.9138
-40.6338
-37.5424
-34.4121
-31.1086
-27.6499
-24.2009
-20.9982
-18.2135
-15.8478
-13.7708
-11.7853
-9.65844
-7.52804
-5.99563
-3.68536
-132.545
-136.592
-141.129
-146.064
-151.411
-157.031
-162.999
-169.27
-176.206
-184.127
-193.203
-203.31
-214.286
-225.937
-237.911
-249.801
-261.403
-270.866
-280.394
-288.026
-289.449
-281.241
-266.853
-252.443
-239.198
-227.25
-216.455
-206.558
-197.303
-188.512
-180.072
-171.945
-164.066
-156.312
-148.699
-141.27
-134.061
-127.113
-120.419
-113.98
-107.811
-101.884
-96.3991
-92.0518
-88.2432
-84.5693
-81.8329
-80.2866
-79.5729
-79.1154
-78.4453
-77.4276
-76.1085
-74.5305
-72.7398
-70.787
-68.7304
-66.6368
-64.5792
-62.6323
-60.8698
-59.3654
-58.186
-57.3804
-56.9791
-56.9999
-57.4177
-58.1209
-58.9204
-59.6418
-60.2466
-60.8728
-61.7774
-63.2292
-65.2864
-67.5971
-69.3692
-69.6407
-67.9468
-64.6993
-60.3502
-55.6196
-51.0291
-46.8746
-43.1983
-39.8851
-36.7366
-33.5651
-30.2737
-26.8944
-23.575
-20.5111
-17.8289
-15.5121
-13.4512
-11.481
-9.39932
-7.36945
-5.93447
-3.63753
-132.881
-136.898
-141.366
-146.258
-151.571
-157.172
-163.126
-169.381
-176.305
-184.221
-193.289
-203.378
-214.328
-225.938
-237.856
-249.694
-261.289
-270.616
-280.119
-287.995
-289.554
-281.261
-266.939
-252.653
-239.497
-227.607
-216.851
-206.984
-197.753
-188.977
-180.547
-172.416
-164.511
-156.744
-149.132
-141.717
-134.527
-127.6
-120.929
-114.52
-108.373
-102.448
-96.9305
-92.5435
-88.7268
-85.0568
-82.2859
-80.6657
-79.9159
-79.4506
-78.789
-77.7774
-76.4623
-74.8873
-73.099
-71.1482
-69.0932
-66.9999
-64.9394
-62.9826
-61.1992
-59.6578
-58.4194
-57.527
-57.0058
-56.868
-57.0862
-57.5681
-58.169
-58.7389
-59.2151
-59.7036
-60.4428
-61.6626
-63.3901
-65.3204
-66.8043
-67.0456
-65.6361
-62.7657
-58.7913
-54.3714
-49.9954
-45.9554
-42.3133
-38.9798
-35.7916
-32.6008
-29.3434
-26.0629
-22.8893
-19.9743
-17.4011
-15.1435
-13.1135
-11.1727
-9.14418
-7.20367
-5.83848
-3.5729
-133.217
-137.198
-141.602
-146.449
-151.727
-157.309
-163.248
-169.486
-176.4
-184.311
-193.37
-203.44
-214.366
-225.932
-237.792
-249.58
-261.162
-270.342
-279.79
-287.917
-289.588
-281.193
-266.965
-252.823
-239.766
-227.94
-217.228
-207.393
-198.184
-189.426
-181.003
-172.856
-164.935
-157.164
-149.563
-142.166
-134.998
-128.093
-121.445
-115.067
-108.945
-103.024
-97.4739
-93.0408
-89.2201
-85.5549
-82.7446
-81.044
-80.2531
-79.7778
-79.1248
-78.1215
-76.8114
-75.2402
-73.4548
-71.5062
-69.4524
-67.3588
-65.2941
-63.3263
-61.521
-59.9421
-58.6453
-57.6686
-57.0328
-56.7438
-56.7735
-57.0505
-57.4644
-57.877
-58.2096
-58.5538
-59.1273
-60.1143
-61.5126
-63.0509
-64.2005
-64.3474
-63.1618
-60.6158
-56.989
-52.8739
-48.7227
-44.8133
-41.2227
-37.8903
-34.6911
-31.5167
-28.3303
-25.1779
-22.1643
-19.3998
-16.9361
-14.7453
-12.7586
-10.8582
-8.88823
-7.02924
-5.72325
-3.49867
-133.573
-137.491
-141.837
-146.637
-151.88
-157.441
-163.364
-169.587
-176.491
-184.398
-193.447
-203.497
-214.399
-225.92
-237.72
-249.463
-261.024
-270.05
-279.411
-287.794
-289.544
-281.032
-266.93
-252.951
-240.005
-228.25
-217.585
-207.782
-198.595
-189.854
-181.426
-173.267
-165.341
-157.577
-149.996
-142.622
-135.477
-128.592
-121.966
-115.62
-109.528
-103.613
-98.0296
-93.5439
-89.7206
-86.0608
-83.2094
-81.4236
-80.5859
-80.097
-79.452
-78.459
-77.1552
-75.5889
-73.8071
-71.8611
-69.8087
-67.7143
-65.6446
-63.6648
-61.837
-60.2205
-58.8663
-57.8082
-57.0636
-56.632
-56.4866
-56.5755
-56.8113
-57.0602
-57.2395
-57.4389
-57.851
-58.6093
-59.69
-60.854
-61.6817
-61.7165
-60.6674
-58.3427
-54.9977
-51.1554
-47.2227
-43.4554
-39.9397
-36.6417
-33.4733
-30.3586
-27.2777
-24.2707
-21.4172
-18.7962
-16.4396
-14.3207
-12.3864
-10.5355
-8.62789
-6.84555
-5.59582
-3.41916
-133.932
-137.777
-142.074
-146.823
-152.029
-157.568
-163.474
-169.681
-176.577
-184.482
-193.519
-203.55
-214.426
-225.901
-237.642
-249.341
-260.875
-269.749
-278.98
-287.626
-289.413
-280.774
-266.838
-253.037
-240.212
-228.534
-217.919
-208.148
-198.984
-190.246
-181.813
-173.656
-165.734
-157.988
-150.431
-143.083
-135.962
-129.098
-122.494
-116.18
-110.121
-104.215
-98.5979
-94.0532
-90.2253
-86.5722
-83.676
-81.8055
-80.9148
-80.4081
-79.7701
-78.7891
-77.4932
-75.933
-74.156
-72.2133
-70.1626
-68.0672
-65.992
-63.9995
-62.1487
-60.4949
-59.0846
-57.9485
-57.1004
-56.5352
-56.2291
-56.1458
-56.2102
-56.2894
-56.3101
-56.3697
-56.628
-57.1673
-57.951
-58.7807
-59.3344
-59.2662
-58.2576
-56.0516
-52.9182
-49.3058
-45.5736
-41.9526
-38.5327
-35.3017
-32.1999
-29.1752
-26.2164
-23.3559
-20.6536
-18.1666
-15.9138
-13.8708
-11.9964
-10.2023
-8.36066
-6.65269
-5.45977
-3.3369
-134.293
-138.059
-142.312
-147.006
-152.176
-157.689
-163.578
-169.77
-176.661
-184.563
-193.588
-203.599
-214.449
-225.874
-237.556
-249.217
-260.719
-269.439
-278.471
-287.426
-289.183
-280.416
-266.688
-253.082
-240.387
-228.791
-218.226
-208.489
-199.339
-190.598
-182.171
-174.026
-166.121
-158.399
-150.872
-143.552
-136.456
-129.613
-123.029
-116.747
-110.724
-104.829
-99.1791
-94.5706
-90.7369
-87.0976
-84.1465
-82.187
-81.2404
-80.7113
-80.0788
-79.1113
-77.8251
-76.2726
-74.5016
-72.5633
-70.5149
-68.4186
-66.3375
-64.3319
-62.4579
-60.7672
-59.3022
-58.0913
-57.145
-56.4551
-56.002
-55.7606
-55.6585
-55.5645
-55.4286
-55.3577
-55.4715
-55.8071
-56.3224
-56.8693
-57.2054