/*--------------------------------*- C++ -*----------------------------------*\
| =========                 |                                                 |
| \\      /  F ield         | OpenFOAM: The Open Source CFD Toolbox           |
|  \\    /   O peration     | Version:  4.1                                   |
|   \\  /    A nd           | Web:      www.OpenFOAM.org                      |
|    \\/     M anipulation  |                                                 |
\*---------------------------------------------------------------------------*/
FoamFile
{
    version     2.0;
    format      ascii;
    class       surfaceScalarField;
    location    "700";
    object      phi;
}
// * * * * * * * * * * * * * * * * * * * * * * * * * * * * * * * * * * * * * //

dimensions      [0 3 -1 0 0 0 0];

internalField   nonuniform List<scalar> 
52920
(
1052.56
-197.173
1263.98
-211.423
1490.05
-226.064
1727.04
-236.989
1972.49
-245.452
2226.1
-253.604
2488.5
-262.397
2761.26
-272.765
3046.03
-284.771
3343.66
-297.629
3653.42
-309.751
3972.42
-319.007
4296.09
-323.664
4618.06
-321.965
4928.73
-310.673
5214.72
-285.992
5456.19
-241.466
5624.19
-167.996
5694.56
-70.3757
5657.09
37.4749
5515.47
141.615
5303.33
212.144
5060.38
242.955
4811.5
248.879
4568.6
242.904
4336.49
232.103
4116.64
219.859
3909.02
207.619
3713.1
195.917
3528.17
184.931
3353.44
174.731
3188.09
165.352
3031.35
156.747
2882.64
148.712
2741.71
140.931
2608.57
133.137
2483.4
125.175
2366.5
116.904
2258.25
108.254
2158.86
99.3843
2068.43
90.4371
1987.84
80.5953
1918.83
69.0044
1862.14
56.697
1814.31
47.8254
1760.6
53.7202
1680.4
80.1956
1572.34
108.063
1455.55
116.797
1361.14
94.4137
1310.68
50.4625
1311.13
-0.441573
1363.3
-52.167
1462.05
-98.7513
1599.18
-137.13
1768.6
-169.419
1967.89
-199.288
2197.86
-229.972
2461.94
-264.073
2765.58
-303.645
3115.42
-349.831
3517.5
-402.086
3975.06
-457.555
4486.04
-510.977
5041.55
-555.519
5626.05
-584.499
6219.37
-593.316
6800.06
-580.686
7349.23
-549.169
7853.46
-504.236
8305.17
-451.71
8700.5
-395.324
9036.75
-336.257
9311.23
-274.475
9522.17
-210.942
9672.21
-150.045
9772.08
-99.8696
9841.35
-69.2671
9905.91
-64.5595
9991.96
-86.0469
10120.1
-128.093
10301.5
-181.403
10535.8
-234.365
10809.4
-273.564
11094.1
-284.728
11349.4
-255.302
11529.3
-179.849
11595.1
-65.7956
11528.3
66.7511
11340.2
188.068
11066.1
274.171
10746.1
319.96
10412.6
333.494
10086
326.633
9776.34
309.643
9487.32
289.017
9218.34
268.983
8971.63
246.706
8735.91
235.724
190.219
1140.07
-379.032
1348.84
-420.198
1580.7
-457.922
1828.25
-484.538
2085.29
-502.491
2349.01
-517.315
2618.85
-532.235
2896.05
-549.971
3182.34
-571.058
3478.75
-594.038
3784.72
-615.718
4097.59
-631.88
4413.07
-639.138
4725.22
-634.119
5025.46
-610.912
5302.74
-563.271
5541.26
-479.985
5714.23
-340.959
5790.73
-146.873
5751.16
77.0464
5597.72
295.058
5369.1
440.763
5110.14
501.911
4848.58
510.444
4597.22
494.259
4360.76
468.565
4140.04
440.579
3934.34
413.324
3742.4
387.855
3562.89
364.444
3394.49
343.135
3235.94
323.904
3086.09
306.592
2944.05
290.762
2809.18
275.802
2681.09
261.229
2559.47
246.788
2444.11
232.272
2334.73
217.636
2230.97
203.149
2132.94
188.463
2042.64
170.9
1963.03
148.619
1893.67
126.058
1826.5
114.995
1743.53
136.699
1629.1
194.622
1492.38
244.786
1356.47
252.716
1255.77
195.115
1227.61
78.6281
1283.29
-56.1267
1401.74
-170.614
1556.8
-253.805
1733.99
-314.316
1929.77
-365.198
2145.58
-415.096
2384.97
-469.366
2652.84
-531.94
2955.17
-605.971
3298.99
-693.653
3692.11
-795.204
4141.1
-906.548
4647.03
-1016.91
5201.52
-1110.01
5786.64
-1169.62
6378.8
-1185.48
6953.99
-1155.87
7492.44
-1087.62
7981.31
-993.106
8414.43
-884.83
8789.56
-770.449
9105.36
-652.066
9359.92
-529.032
9551.29
-402.306
9680.63
-279.388
9755.96
-175.204
9793.37
-106.674
9815.63
-86.8222
9847.15
-117.559
9908.71
-189.654
10014.6
-287.261
10170.6
-390.414
10372.8
-475.714
10605.1
-517.08
10838.1
-488.241
11028.5
-370.306
11128
-165.263
11100.9
93.8087
10946.2
342.785
10696.2
524.184
10393.2
622.964
10072.4
654.322
9756.28
642.708
9456.29
609.633
9176.58
568.728
8916.8
528.767
8679.1
484.405
8453.43
461.389
372.097
1170.72
-556.435
1387.89
-637.365
1633.09
-703.13
1891.92
-743.36
2154.53
-765.105
2417.51
-780.286
2681.06
-795.788
2947.52
-816.427
3219.56
-843.097
3499
-873.48
3785.96
-902.68
4078.55
-924.462
4373.41
-933.999
4665.92
-926.629
4949.32
-894.313
5215.43
-829.377
5452.76
-717.321
5638.48
-526.679
5738.99
-247.378
5724.13
91.9071
5586.15
433.036
5363.45
663.472
5105.35
760.008
4843.57
772.227
4593.13
744.699
4359.58
702.117
4143.86
656.295
3944.98
612.21
3761.25
571.581
3590.9
534.801
3432.17
501.868
3283.4
472.673
3143.05
446.941
3009.79
424.023
2882.55
403.051
2760.42
383.356
2642.59
364.621
2528.16
346.707
2416
329.796
2305.13
314.021
2196.4
297.196
2093.75
273.547
2000.02
242.349
1909.07
217.017
1805.52
218.545
1672.52
269.703
1507.65
359.486
1337.65
414.789
1193.5
396.872
1118.29
270.332
1148.43
48.4896
1261.55
-169.239
1408.25
-317.311
1566.07
-411.623
1733.43
-481.682
1914.12
-545.886
2112.09
-613.063
2331.25
-688.521
2576.02
-776.714
2852.76
-882.713
3172.09
-1012.98
3548.52
-1171.64
3993.59
-1351.61
4506.4
-1529.72
5070.73
-1674.34
5660.47
-1759.36
6247.7
-1772.7
6808.21
-1716.39
7324.48
-1603.88
7786.63
-1455.26
8191.19
-1289.39
8537.83
-1117.08
8826.09
-940.326
9053.79
-756.73
9217.45
-565.967
9315.47
-377.404
9352.34
-212.08
9340.54
-94.8715
9300.63
-46.9128
9256.8
-73.7264
9231.97
-164.824
9245.15
-300.439
9309.28
-454.545
9428.84
-595.274
9597.63
-685.872
9797.29
-687.907
9996.44
-569.447
10150.7
-319.493
10209
35.4841
10143.6
408.203
9971.88
695.881
9732.76
862.079
9463.14
923.938
9188.5
917.354
8922.62
875.511
8671.49
819.854
8436.17
764.087
8219.41
701.169
8014.01
666.789
538.906
1169.95
-740.998
1402.47
-869.884
1659.4
-960.054
1921.53
-1005.49
2179.85
-1023.42
2433.26
-1033.69
2683.85
-1046.38
2935.07
-1067.64
3190.1
-1098.13
3450.99
-1134.36
3718
-1169.69
3989.58
-1196.03
4263
-1207.42
4534.59
-1198.22
4798.91
-1158.63
5049.84
-1080.31
5279.75
-947.229
5471.3
-718.225
5593
-369.079
5607.81
77.0967
5495.67
545.176
5290.91
868.232
5045.24
1005.68
4793.35
1024.13
4552.15
985.897
4328.11
926.158
4122.47
861.933
3934.21
800.477
3761.45
744.335
3602.17
694.087
3454.31
649.726
3315.89
611.094
3184.99
577.843
3059.87
549.147
2939.05
523.876
2821.27
501.137
2705.3
480.587
2589.64
462.373
2472.39
447.048
2352.59
433.817
2232.89
416.899
2118.51
387.931
2007.58
353.285
1883.96
340.64
1728.44
374.059
1536.08
462.071
1325.69
569.88
1139.68
600.801
1009.51
527.047
989.59
290.252
1080.14
-42.0577
1210.58
-299.68
1343.2
-449.923
1476.38
-544.797
1617.42
-622.721
1771.54
-700.004
1942.37
-783.892
2133.53
-879.684
2350.8
-993.982
2606.01
-1137.92
2918.51
-1325.48
3306.95
-1560.08
3775.39
-1820.06
4308.07
-2062.4
4877.25
-2243.52
5454.36
-2336.47
6015.76
-2334.1
6543.44
-2244.08
7025.05
-2085.49
7454.21
-1884.42
7829.59
-1664.77
8151.82
-1439.31
8420.29
-1208.8
8631.58
-968.014
8779.72
-714.109
8859.59
-457.278
8871.87
-224.359
8825.22
-48.2194
8738.07
40.2344
8634.07
30.2718
8537.26
-68.0096
8470.13
-233.305
8451.66
-436.076
8493.82
-637.432
8597.86
-789.913
8752.48
-842.528
8933.58
-750.552
9103.16
-489.068
9208.93
-70.2846
9207.45
409.684
9102.76
800.566
8927.26
1037.58
8715.44
1135.76
8492.13
1140.67
8271.15
1096.49
8058.84
1032.17
7857
965.921
7668.66
889.516
7489.84
845.608
686.12
1160.99
-942.467
1407.57
-1116.47
1667.58
-1220.06
1923.95
-1261.86
2171.85
-1271.32
2412.81
-1274.65
2650.02
-1283.6
2887.13
-1304.75
3127.14
-1338.13
3371.83
-1379.05
3621.36
-1419.23
3874.34
-1449.01
4128.56
-1461.64
4381.07
-1450.74
4627.34
-1404.89
4862.52
-1315.49
5081.57
-1166.28
5272.04
-908.694
5406.68
-503.72
5445.93
37.8473
5358.95
632.158
5174.91
1052.28
4946.38
1234.21
4709.66
1260.85
4482.67
1212.89
4272.33
1136.5
4080.03
1054.23
3904.71
975.799
3744.39
904.66
3596.83
841.648
3459.76
786.797
3330.9
739.956
3207.99
700.747
3088.99
668.154
2972.17
640.7
2856.13
617.179
2739.39
597.328
2619.89
581.872
2495.43
571.511
2366.18
563.065
2236.84
546.243
2110.41
514.366
1974.42
489.272
1803.3
511.764
1585.54
591.823
1339.99
707.62
1104.82
805.051
930.411
775.214
839.921
617.542
881.33
248.847
1001.01
-161.731
1112.7
-411.37
1211.67
-548.891
1310.9
-644.021
1419.56
-731.387
1542.86
-823.297
1685.13
-926.162
1852.59
-1047.15
2057.29
-1198.68
2319.22
-1399.86
2658.64
-1664.89
3080.65
-1982.08
3569.06
-2308.47
4096.2
-2589.54
4636.12
-2783.43
5169.84
-2870.2
5683.67
-2847.93
6166.24
-2726.64
6608.47
-2527.73
7005.46
-2281.41
7356.62
-2015.93
7662.68
-1745.38
7922.23
-1468.34
8129.98
-1175.76
8276.88
-861.011
8353.78
-534.178
8357.26
-227.838
8291.81
17.2287
8174.23
157.814
8027.41
177.095
7874.97
84.4246
7740.78
-99.1097
7648.47
-343.767
7617.54
-606.5
7657.09
-829.468
7762.33
-947.768
7914.56
-902.781
8080.79
-655.301
8210.94
-200.43
8250.79
369.836
8194.63
856.721
8070.71
1161.51
7910.98
1295.48
7738.05
1313.6
7563.88
1270.65
7393.58
1202.47
7228.68
1130.82
7071.91
1046.28
6922.29
995.236
811.653
1148.69
-1162.97
1400.03
-1367.81
1653.38
-1473.41
1898.44
-1506.92
2134.06
-1506.94
2362.95
-1503.54
2588.2
-1508.86
2813.02
-1529.56
3039.91
-1565.02
3270.34
-1609.48
3504.4
-1653.29
3740.93
-1685.54
3978.21
-1698.91
4213.89
-1686.41
4444.05
-1635.05
4664.72
-1536.16
4872.64
-1374.19
5059.26
-1095.32
5201.9
-646.361
5260.98
-21.2262
5196.56
696.572
5032.82
1216.02
4822.88
1444.15
4603.77
1479.95
4393.62
1423.04
4199.26
1330.85
4021.97
1231.52
3860.54
1137.23
3712.84
1052.36
3576.48
978.014
3448.99
914.287
3327.88
861.064
3210.69
817.944
3095.19
783.649
2979.69
756.207
2862.81
734.055
2742.88
717.263
2617.47
707.285
2484.87
704.113
2347.24
700.7
2209.36
684.12
2066.06
657.673
1891.2
664.129
1658.69
744.279
1380.86
869.652
1103.28
985.204
874.075
1034.26
744.164
905.128
714.399
647.312
792.793
170.456
894.221
-263.155
966.009
-483.156
1024.45
-607.325
1087.4
-706.969
1164.86
-808.845
1263.69
-922.126
1391.18
-1053.65
1558.44
-1214.4
1782.33
-1422.57
2079.63
-1697.16
2453.86
-2039.12
2889.02
-2417.24
3359.22
-2778.68
3842.45
-3072.76
4325.45
-3266.42
4800.46
-3345.21
5260.43
-3307.9
5696.64
-3162.86
6100.68
-2931.76
6468.06
-2648.79
6799.07
-2346.94
7095.09
-2041.39
7354.21
-1727.47
7569.29
-1390.83
7727.75
-1019.47
7815.87
-622.301
7825.11
-237.077
7754.77
87.568
7621.38
291.209
7449.05
349.415
7259.47
274.006
7074.13
86.2325
6918.59
-188.23
6819.29
-507.193
6794.33
-804.514
6846.51
-999.941
6962.32
-1018.6
7112.71
-805.692
7250.87
-338.588
7315.45
305.252
7292.41
879.761
7208.01
1245.91
7092.5
1410.98
6965.76
1440.34
6836.75
1399.66
6708.18
1331.05
6580.51
1258.49
6455.76
1171.03
6335.49
1115.51
915.254
1130.09
-1387.91
1374.59
-1612.32
1616.12
-1714.93
1849.27
-1740.07
2074.02
-1731.69
2292.62
-1722.14
2507.46
-1723.69
2721.12
-1743.22
2935.76
-1779.66
3152.78
-1826.5
3372.52
-1873.03
3594.21
-1907.23
3816.63
-1921.34
4037.83
-1907.61
4254.09
-1851.31
4461.81
-1743.89
4658.89
-1571.27
4840.07
-1276.5
4987.44
-793.727
5063.14
-96.9296
5019.31
740.403
4874.92
1360.41
4683.67
1635.4
4483
1680.63
4290.66
1615.38
4113.03
1508.49
3950.98
1393.57
3803.08
1285.13
3667.03
1188.41
3540.35
1104.7
3420.49
1034.15
3304.89
976.665
3191.02
931.811
3076.73
897.945
2960.45
872.482
2840.91
853.601
2716.19
841.988
2583.95
839.522
2443.94
844.126
2299.72
844.926
2151.38
832.462
1979.9
829.156
1749.96
894.061
1451.44
1042.8
1130.9
1190.2
852.975
1263.13
660.709
1226.52
587.833
978.007
608.776
626.375
693.164
86.0722
752.507
-322.495
777.793
-508.439
797.37
-626.898
831.767
-741.365
892.658
-869.733
988.282
-1017.75
1127.15
-1192.51
1320.35
-1407.61
1578.67
-1680.88
1903.5
-2021.99
2281.13
-2416.74
2689.2
-2825.31
3109.04
-3198.52
3531.18
-3494.91
3952.33
-3687.58
4370.04
-3762.91
4779.18
-3717.03
5171.14
-3554.82
5537.23
-3297.85
5873.81
-2985.37
6183.37
-2656.51
6469.5
-2327.51
6730.95
-1988.91
6959.21
-1619.1
7138.25
-1198.51
7249.03
-733.079
7276.2
-264.25
7212.32
151.443
7074.36
429.17
6890.54
533.242
6682.13
482.413
6465.12
303.242
6261.18
15.7062
6101.08
-347.094
6013.03
-716.457
6009.45
-996.362
6082.69
-1091.84
6207.37
-930.371
6339.99
-471.206
6415.59
229.652
6413.22
882.135
6358.48
1300.65
6280.43
1489.03
6195.77
1525.01
6109.55
1485.88
6021.22
1419.38
5929.65
1350.06
5835.93
1264.75
5743.7
1207.74
997.994
1098.2
-1608.1
1331.09
-1845.21
1561
-1944.84
1784.12
-1963.18
1999.42
-1946.99
2208.23
-1930.95
2412.42
-1927.88
2614.39
-1945.2
2816.36
-1981.63
3020.03
-2030.17
3226.19
-2079.18
3434.55
-2115.59
3644.3
-2131.09
3853.67
-2116.97
4058.85
-2056.49
4256.13
-1941.16
4443.78
-1758.92
4618.94
-1451.66
4768.4
-943.179
4857.83
-186.357
4832.95
765.282
4706.92
1486.44
4533.88
1808.45
4351.39
1863.11
4176.6
1790.17
4015.15
1669.95
3867.43
1541.29
3731.73
1420.83
3605.67
1314.47
3486.75
1223.62
3372.5
1148.4
3260.43
1088.73
3148.11
1044.13
3033.55
1012.51
2915.34
990.688
2792.14
976.804
2661.92
972.206
2523.23
978.219
2377.6
989.756
2226.99
995.54
2060.4
999.048
1844.39
1045.17
1548.57
1189.88
1194.99
1396.39
859.925
1525.26
614.338
1508.72
475.778
1365.09
447.135
1006.66
502.237
571.28
574.01
14.3038
580.945
-329.426
563.75
-491.241
558.651
-621.796
585.828
-768.539
654.303
-938.206
768.512
-1131.96
932.875
-1356.87
1152.14
-1626.88
1426.39
-1955.13
1745.88
-2341.48
2093.33
-2764.19
2452.61
-3184.59
2815.17
-3561.07
3179.17
-3858.91
3545.08
-4053.49
3911.86
-4129.7
4274.67
-4079.84
4624.13
-3904.28
4950.83
-3624.55
5252.27
-3286.81
5534.58
-2938.82
5805.5
-2598.44
6066.16
-2249.58
6307.93
-1860.87
6511.76
-1402.33
6652.59
-873.913
6707.13
-318.788
6659.38
199.192
6525.71
562.845
6340.18
718.774
6126.93
695.663
5897.54
532.631
5665.15
248.095
5457.07
-139.016
5310.34
-569.721
5249.96
-935.983
5276.17
-1118.05
5367.43
-1021.64
5482.75
-586.528
5556.07
156.335
5563.18
875.023
5529.96
1333.87
5484.15
1534.84
5438.46
1570.7
5392.99
1531.34
5343.22
1469.15
5286.09
1407.18
5221.57
1329.27
5155.2
1274.1
1061.79
1053.44
-1816.37
1274.17
-2065.94
1494.23
-2164.9
1707.9
-2176.85
1912.99
-2152.08
2110.66
-2128.63
2302.84
-2120.06
2492.1
-2134.46
2680.98
-2170.5
2871.68
-2220.87
3065.46
-2272.97
3262.37
-2312.5
3461.75
-2330.47
3661.83
-2317.04
3858.57
-2253.23
4047.99
-2130.59
4228.3
-1939.23
4398.11
-1621.46
4548.21
-1093.28
4648.75
-286.899
4641.14
772.896
4532.28
1595.29
4376.49
1964.24
4211.25
2028.35
4052.9
1948.52
3906.31
1816.54
3771.38
1676.22
3646.2
1546.01
3528.36
1432.31
3415.49
1336.49
3305.28
1258.61
3195.43
1198.59
3083.67
1155.89
2968.17
1128.02
2847.53
1111.32
2720.22
1104.12
2584.54
1107.88
2440.68
1122.09
2290.66
1139.77
2129.32
1156.89
1930.19
1198.18
1654.17
1321.19
1295.58
1548.48
914.022
1777.95
596.7
1842.59
403
1702.42
323.34
1444.75
333.958
996.042
398.329
506.916
430.614
-17.9768
391.081
-289.888
351.741
-451.898
347.611
-617.663
389.876
-810.801
478.639
-1026.97
612.502
-1265.82
791.729
-1536.1
1015.83
-1850.98
1279.21
-2218.51
1570.13
-2632.41
1875.19
-3069.24
2185.01
-3494.42
2496.41
-3872.47
2810.34
-4172.84
3128.54
-4371.69
3450.77
-4451.92
3772.1
-4401.17
4081.53
-4213.71
4367.64
-3910.66
4628.68
-3547.85
4875.47
-3185.61
5122.05
-2845.01
5374.11
-2501.64
5624.76
-2111.52
5852.69
-1630.26
6026.72
-1047.94
6115.45
-407.519
6092.21
222.429
5969.83
685.231
5789.65
898.955
5580.55
904.759
5353.43
759.755
5112.99
488.532
4875.59
98.3811
4679.89
-374.016
4564.55
-820.644
4541.1
-1094.6
4592.53
-1073.07
4679.88
-673.875
4737.67
98.5364
4743.58
869.123
4724.93
1352.51
4707.58
1552.19
4698.92
1579.36
4692.85
1537.42
4680.11
1481.89
4655.47
1431.82
4617.87
1366.88
4574.73
1317.24
1109.17
998.305
-2008.93
1208.75
-2276.38
1419.04
-2375.19
1621.72
-2379.53
1814.77
-2345.12
1999.67
-2313.53
2178.52
-2298.91
2354.29
-2310.22
2530.07
-2346.28
2708.7
-2399.51
2891.87
-2456.14
3079.65
-2500.28
3271.21
-2522.02
3464.4
-2510.24
3654.84
-2443.67
3838.39
-2314.13
4013.06
-2113.91
4178.33
-1786.72
4328.29
-1243.24
4437.93
-396.534
4446.16
764.666
4353.28
1688.17
4213.62
2103.91
4064.4
2177.57
3921.08
2091.84
3787.8
1949.83
3664.06
1799.95
3547.83
1662.25
3436.75
1543.39
3328.62
1444.62
3221.37
1365.86
3112.94
1307.02
3001.27
1267.57
2884.56
1244.72
2761.24
1234.65
2629.66
1235.7
2489.2
1248.34
2341.55
1269.74
2185.44
1295.88
2002.53
1339.8
1753.44
1447.27
1411.54
1663.1
1011.03
1948.98
638.006
2150.97
367.699
2112.9
232.684
1837.44
209.442
1468
254.164
951.326
294.069
467.02
270.11
5.98773
209.066
-228.839
176.105
-418.933
191.039
-632.592
251.337
-871.097
351.868
-1127.49
490.514
-1404.46
666.581
-1712.16
877.421
-2061.82
1116.15
-2457.24
1372.61
-2888.87
1637.09
-3333.72
1903.7
-3761.02
2171.37
-4140.14
2442.41
-4443.88
2719.75
-4649.03
3003.85
-4736.02
3289.16
-4686.49
3561.86
-4486.4
3807.09
-4155.89
4022.93
-3763.7
4225.41
-3388.08
4436.62
-3056.22
4669.35
-2734.37
4920.55
-2362.73
5167.61
-1877.31
5373.9
-1254.23
5500.73
-534.353
5509.2
213.963
5404.02
790.412
5234.54
1068.43
5035.66
1103.64
4819.73
975.684
4586.57
721.689
4341.22
343.735
4111.96
-144.762
3947.39
-656.066
3873.76
-1020.97
3880.41
-1079.72
3930.02
-723.483
3958.89
69.6665
3953.13
874.883
3943.1
1362.54
3951.83
1543.47
3979.48
1551.71
4012.15
1504.74
4035.09
1458.95
4040.81
1426.1
4027.5
1380.19
4004.54
1340.19
1143.07
936.889
-2195.46
1137.88
-2477.38
1336.38
-2573.68
1526.11
-2569.26
1705.31
-2524.32
1875.68
-2483.9
2039.84
-2463.08
2201.57
-2471.95
2364.82
-2509.53
2533.03
-2567.72
2707.97
-2631.07
2889.3
-2681.62
3075.64
-2708.36
3264.24
-2698.84
3450.18
-2629.61
3629.24
-2493.19
3799.38
-2284.04
3960.58
-1947.92
4109.62
-1392.28
4226.79
-513.705
4249.54
741.916
4171.62
1766.09
4047.09
2228.44
3912.72
2311.93
3783.1
2221.46
3661.69
2071.24
3547.71
1913.94
3439.04
1770.91
3333.47
1648.96
3229.02
1549.08
3123.9
1470.97
3016.36
1414.56
2904.5
1379.43
2786.41
1362.81
2660.21
1360.86
2524.61
1371.3
2380.51
1392.44
2229.06
1421.19
2059.9
1465.04
1839.1
1560.61
1526.89
1759.47
1129.38
2060.61
720.006
2358.36
387.6
2483.38
182.646
2317.85
110.851
1909.24
130.147
1448.7
178.039
903.44
176.538
468.53
119.853
62.6788
66.3772
-175.357
53.9525
-406.504
83.1458
-661.781
147.844
-935.793
245.876
-1225.52
376.691
-1535.28
539.042
-1874.51
729.238
-2252.01
940.542
-2668.54
1164.44
-3112.76
1393.31
-3562.59
1622.82
-3990.54
1853.01
-4370.32
2087.33
-4678.2
2329.74
-4891.45
2580.96
-4987.24
2834.26
-4939.79
3072.61
-4724.75
3277.12
-4360.4
3444.77
-3931.35
3596.36
-3539.67
3762.88
-3222.74
3965.94
-2937.43
4208.17
-2604.96
4466.42
-2135.56
4699.79
-1487.6
4864.62
-699.187
4910.38
168.207
4827.3
873.492
4672.93
1222.8
4488.98
1287.6
4289.37
1175.29
4073.61
937.456
3837.84
579.499
3594.1
98.9815
3390.57
-452.533
3268.75
-899.149
3227.27
-1038.25
3229.9
-726.105
3216.16
83.4051
3188.73
902.31
3182.49
1368.78
3216.38
1509.57
3280.9
1487.19
3352.31
1433.34
3409.38
1401.87
3442.88
1392.61
3451.59
1371.48
3446.04
1345.74
1168.24
874.529
-2369.29
1062.25
-2665.1
1247.38
-2758.82
1422.36
-2744.24
1585.4
-2687.36
1739.27
-2637.76
1887.89
-2611.7
2036.19
-2620.25
2188.8
-2662.13
2349.26
-2728.18
2518.79
-2800.59
2696.2
-2859.03
2879.36
-2891.52
3064.92
-2884.4
3247.48
-2812.16
3422.83
-2668.54
3589
-2450.21
3746.21
-2105.13
3893.38
-1539.45
4016.45
-636.771
4052.24
706.13
3988.38
1829.95
3878.15
2338.68
3757.66
2432.42
3640.55
2338.57
3529.68
2182.11
3424.08
2019.54
3321.69
1873.31
3220.44
1750.2
3118.67
1650.86
3014.96
1574.68
2907.89
1521.63
2795.66
1491.66
2676.08
1482.4
2547.11
1489.83
2408.36
1510.04
2261.51
1539.3
2102.74
1579.96
1907.53
1660.25
1632.08
1836.07
1256.11
2135.45
828.575
2488.14
442.33
2744.61
165.945
2759.77
28.0582
2455.74
22.7735
1914.52
69.5058
1401.97
105.416
867.538
70.1536
503.803
5.21097
127.629
-31.4533
-138.686
-31.8038
-406.149
-1.14244
-692.437
58.1899
-995.123
146.595
-1313.92
264.167
-1652.85
409.027
-2019.37
576.998
-2419.98
761.879
-2853.42
956.389
-3307.27
1154.09
-3760.29
1351.45
-4187.9
1549.11
-4567.98
1751.2
-4880.29
1962.22
-5102.46
2182.76
-5207.77
2405.1
-5162.13
2609.8
-4929.46
2774.36
-4524.96
2894.06
-4051.05
2993.48
-3639.09
3111.92
-3341.18
3279.61
-3105.11
3505
-2830.36
3764.59
-2395.15
4015.18
-1738.2
4212.44
-896.45
4298.01
82.6424
4240.21
931.292
4104.45
1358.55
3939.28
1452.78
3760.17
1354.39
3567.25
1130.38
3351.46
795.293
3113.21
337.234
2885.51
-224.838
2720.69
-734.323
2628.7
-946.256
2574.05
-671.458
2503.88
153.573
2445.61
960.583
2439.64
1374.75
2499.64
1449.56
2603.17
1383.66
2713.83
1322.69
2803.19
1312.51
2861.58
1334.23
2888.47
1344.59
2896.46
1337.75
1186.67
809.324
-2529.25
984.018
-2839.79
1154.33
-2929.13
1311.69
-2901.6
1456.16
-2831.82
1592.71
-2774.31
1726.75
-2745.74
1863.95
-2757.45
2008.97
-2807.16
2164.75
-2883.96
2331.39
-2967.23
2506.58
-3034.22
2687.49
-3072.44
2870.41
-3067.31
3049.69
-2991.44
3221.35
-2840.2
3383.58
-2612.44
3536.62
-2258.17
3680.84
-1683.67
3807.68
-763.608
3854.72
659.086
3803.82
1880.85
3707.03
2435.47
3599.44
2540.01
3493.67
2444.35
3392.06
2283.71
3293.54
2118.06
3196.19
1970.66
3098.2
1848.19
2998.26
1750.8
2895.4
1677.55
2788.55
1628.48
2675.89
1604.33
2554.92
1603.37
2423.84
1620.9
2283.18
1650.71
2132.62
1689.86
1957.77
1754.82
1719.9
1898.11
1380.51
2175.46
956.586
2559.37
530.806
2913.92
188.997
3086.42
-26.5359
2975.3
-104.597
2533.8
-51.8035
1861.73
22.0736
1328.1
54.0683
835.553
-19.4457
577.331
-103.662
211.854
-136.022
-106.319
-125.869
-416.298
-87.1811
-731.121
-28.0582
-1054.24
51.7982
-1393.78
155.061
-1756.11
281.484
-2145.79
427.537
-2566.04
587.697
-3013.58
755.569
-3475.15
925.428
-3930.15
1094.18
-4356.65
1262.57
-4736.37
1434.69
-5052.41
1615.08
-5282.86
1804.51
-5397.2
1995.16
-5352.78
2166.68
-5100.98
2293.62
-4651.89
2368.84
-4126.27
2420.48
-3690.74
2494.99
-3415.69
2627.56
-3237.68
2829.61
-3032.4
3078.16
-2643.7
3331.97
-1992
3550.84
-1115.32
3675.27
-41.7883
3644.02
962.537
3529.49
1473.09
3386.57
1595.69
3231.45
1509.5
3064.04
1297.79
2875.76
983.572
2658.96
554.038
2424.67
9.45124
2226.67
-536.323
2081.64
-801.22
1954.35
-544.167
1814.46
293.457
1717.45
1057.6
1709.68
1382.52
1798.67
1360.58
1944.44
1237.89
2095.56
1171.57
2216.3
1191.76
2295.86
1254.66
2337.36
1303.09
2357.16
1317.95
1203.62
744.852
-2675.96
905.937
-3000.88
1058.51
-3081.7
1195.68
-3038.77
1321.01
-2957.15
1441.69
-2894.99
1563.96
-2868.01
1693.43
-2886.92
1834
-2947.73
1987.44
-3037.4
2152.53
-3132.32
2325.92
-3207.6
2504.36
-3250.87
2684.03
-3246.99
2859.32
-3166.72
3026.64
-3007.53
3184.42
-2770.21
3332.86
-2406.61
3473.16
-1823.97
3601.51
-891.954
3657.44
603.154
3617.8
1920.49
3533.18
2520.09
3437.33
2635.87
3341.7
2539.98
3248.16
2377.25
3155.64
2210.59
3062.39
2063.91
2966.91
1943.66
2868.28
1849.43
2765.99
1779.84
2659.27
1735.2
2546.2
1717.4
2424.24
1725.33
2292.17
1752.98
2150.06
1792.81
1990.91
1849.01
1786.07
1959.65
1491.32
2192.87
1093.01
2573.78
649.317
3003.06
253.071
3310.17
-29.0996
3368.59
-177.095
3123.3
-205.94
2562.65
-134.473
1790.27
-96.6094
1290.24
-91.498
830.456
-187.322
673.186
-257.576
282.12
-263.925
-99.9604
-233.245
-446.973
-182.604
-781.756
-117.956
-1118.89
-40.5781
-1471.15
51.3223
-1848.01
160.294
-2254.76
285.565
-2691.31
422.722
-3150.73
565.949
-3618.37
710.055
-4074.25
852.274
-4498.87
993.165
-4877.26
1136.13
-5195.37
1285.38
-5432.11
1442.43
-5554.26
1600.67
-5511.02
1740.58
-5240.89
1833.73
-4745.04
1869.41
-4161.96
1879.74
-3701.06
1917.4
-3453.36
2015.22
-3335.5
2181.04
-3198.22
2399
-2861.66
2641.25
-2234.25
2874.37
-1348.44
3040.4
-207.814
3038.53
964.411
2948.05
1563.57
2831.09
1712.65
2703.3
1637.28
2564.76
1436.33
2408.96
1139.38
2221.42
741.58
2002.25
228.623
1787.24
-321.315
1586.83
-600.809
1362.82
-320.16
1138.91
517.365
996.33
1200.18
985.365
1393.48
1109.61
1236.33
1305.74
1041.76
1499.67
977.635
1642.04
1049.4
1725.51
1171.19
1779.7
1248.9
1822.5
1275.16
1220.12
683.427
-2810.75
829.419
-3146.87
961.607
-3213.89
1078.08
-3155.24
1186.15
-3065.22
1294.34
-3003.17
1408.64
-2982.32
1533.63
-3011.91
1671.82
-3085.92
1823.68
-3189.26
1986.92
-3295.56
2157.57
-3378.25
2332.36
-3425.67
2507.6
-3422.23
2677.79
-3336.91
2839.85
-3169.59
2992.42
-2922.78
3135.65
-2549.83
3271.06
-1959.38
3398.71
-1019.6
3460.93
540.935
3430.39
1951.03
3356.28
2594.2
3270.8
2721.35
3184.17
2626.6
3097.77
2463.66
3010.53
2297.83
2920.89
2153.55
2827.61
2036.94
2730.13
1946.92
2628.34
1881.64
2521.69
1841.86
2408.29
1830.8
2285.95
1847.67
2153.69
1885.24
2007.96
1938.54
1830.08
2026.9
1579.68
2210.05
1223.68
2548.87
786.657
3010.8
353.372
3436.35
9.3471
3654.19
-200.365
3578.3
-283.589
3206.52
-276.064
2555.13
-225.885
1740.09
-250.272
1314.63
-339.434
919.634
-427.108
760.892
-370.093
225.115
-343.665
-126.38
-314.71
-475.924
-270.862
-825.599
-208.794
-1180.95
-133.403
-1546.54
-48.4559
-1932.95
46.8867
-2350.1
153.592
-2798.01
269.335
-3266.47
389.217
-3738.25
508.701
-4193.73
625.496
-4615.67
739.915
-4991.68
854.261
-5309.72
971.885
-5549.73
1095.21
-5677.59
1220.21
-5636.01
1329.99
-5350.67
1393.44
-4808.49
1395.23
-4163.75
1369.68
-3675.51
1374.05
-3457.74
1431.38
-3392.82
1536.77
-3303.62
1691.75
-3016.65
1902.49
-2444.99
2150.64
-1596.58
2376.08
-433.25
2418.91
921.575
2359.21
1623.27
2272.91
1798.96
2175.57
1734.62
2068.28
1543.62
1945.92
1261.74
1794.51
892.983
1612.43
410.71
1399.71
-108.602
1138.57
-339.665
788.929
29.4812
466.125
840.169
273.925
1392.38
255.507
1411.9
420.164
1071.67
673.483
788.445
907.582
743.536
1072.54
884.44
1166.15
1077.58
1222.47
1192.58
1298.88
1198.75
1217.76
626.984
-2942.84
755.634
-3275.52
866.459
-3324.71
964.233
-3253.02
1058.91
-3159.9
1158.9
-3103.16
1268.71
-3092.12
1391.12
-3134.31
1527.16
-3221.96
1676.42
-3338.52
1836.15
-3455.29
2002.25
-3544.35
2171.78
-3595.2
2341.25
-3591.69
2505.24
-3500.9
2661.24
-3325.59
2808.01
-3069.55
2945.42
-2687.24
3075.01
-2088.97
3199.84
-1144.43
3265.9
474.884
3242.34
1974.58
3177.03
2659.52
3100.59
2797.79
3021.98
2705.21
2942.07
2543.57
2859.75
2380.16
2773.58
2239.73
2682.51
2128.01
2586.23
2043.2
2484.91
1982.96
2378.21
1948.55
2264.57
1944.44
2142.33
1969.91
2009.06
2018.5
1853.04
2094.57
1642.11
2237.83
1335.21
2516.95
928.21
2955.87
481.383
3457.63
87.8147
3829.92
-184.828
3926.84
-321.78
3715.26
-353.919
3238.66
-326.302
2527.51
-302.387
1716.18
-303.878
1316.13
-343.404
959.176
-397.154
814.669
-392.4
220.373
-376.956
-141.817
-355.652
-497.223
-325.324
-855.923
-282.165
-1224.11
-221.822
-1606.88
-145.921
-2008.85
-60.4284
-2435.59
31.4839
-2889.92
127.975
-3362.96
225.673
-3835.95
321.299
-4289.36
413.381
-4707.75
502.089
-5080.39
588.431
-5396.06
674.239
-5635.54
762.286
-5765.63
851.918
-5725.64
930.696
-5429.45
967.957
-4845.75
945.133
-4140.93
892.969
-3623.34
868.372
-3433.14
884.302
-3408.75
919.645
-3338.96
989.053
-3086.05
1127.82
-2583.76
1359.59
-1828.35
1654.04
-727.695
1775.93
799.687
1759.88
1639.31
1710.56
1848.27
1647.49
1797.69
1573.94
1617.17
1487.16
1348.51
1379.45
1000.69
1241.05
549.111
1036.13
96.3238
701.098
-4.63634
204.57
526.01
-220.083
1264.82
-440.364
1612.66
-472.946
1444.48
-282.298
881.027
84.9535
421.193
429.744
398.746
679.052
635.132
815.563
941.068
915.595
1092.55
1029.34
1085
1245.39
576.835
-3062.46
685.473
-3384.16
776.587
-3415.82
859.62
-3336.05
945.63
-3245.91
1041.18
-3198.71
1148.27
-3199.21
1267.85
-3253.88
1400.13
-3354.24
1544.65
-3483.03
1698.74
-3609.38
1858.46
-3704.06
2021.26
-3758
2183.87
-3754.3
2340.85
-3657.88
2490.25
-3475
2630.95
-3210.24
2762.26
-2818.55
2885.44
-2212.15
3005.77
-1264.76
3073.38
407.274
3055.01
1992.96
2997.11
2717.41
2928.63
2866.27
2857.26
2776.57
2783.37
2617.46
2705.76
2457.77
2623.04
2322.45
2534.25
2216.8
2439.22
2138.23
2338.27
2083.9
2231.39
2055.43
2117.6
2058.23
1995.09
2092.42
1856.71
2156.89
1678.74
2272.55
1420.57
2496
1057.34
2880.18
622.291
3390.92
197.854
3882.07
-130.53
4158.3
-325.646
4121.95
-401.971
3791.58
-400.053
3236.75
-366.14
2493.6
-355.347
1705.39
-344.888
1305.67
-374.45
988.749
-413.841
854.078
-421.459
227.998
-413.446
-149.823
-396.029
-514.636
-370.303
-881.646
-336.196
-1258.22
-292.114
-1650.96
-234.443
-2066.52
-162.637
-2507.39
-83.2039
-2969.36
-2.96796
-3443.2
74.5151
-3913.43
147.422
-4362.27
215.475
-4775.8
279.007
-5143.92
337.833
-5454.89
391.881
-5689.59
443.245
-5817
494.335
-5776.73
538.783
-5473.9
552.995
-4859.96
520.086
-4108.02
461.634
-3564.89
424.363
-3395.87
418.924
-3403.31
422.125
-3342.16
438.974
-3102.9
471.71
-2616.5
593.129
-1949.77
885.36
-1019.93
1104.06
580.987
1148.22
1595.16
1144.38
1852.11
1118.71
1823.36
1077.52
1658.36
1020.01
1406.03
946.97
1073.73
855.959
640.123
639.129
313.155
135.67
498.823
-469.616
1131.3
-860.012
1655.22
-1047.34
1799.99
-1051.36
1448.5
-936.878
766.546
-804.958
289.273
-674.536
268.324
-589.906
550.503
-647.744
998.906
-951.281
1396.09
-1487.28
1621
1630.23
530.833
-3169.51
620.725
-3474.05
695.269
-3490.37
768.262
-3409.04
849.684
-3327.33
942.641
-3291.67
1046.53
-3303.1
1161.32
-3368.67
1287.38
-3480.31
1424.9
-3620.55
1571.59
-3756.07
1723.58
-3856.05
1878.68
-3913.1
2033.78
-3909.39
2183.3
-3807.4
2325.92
-3617.61
2460.53
-3344.86
2585.85
-2943.87
2702.52
-2328.81
2817.22
-1379.46
2884.32
340.181
2869.71
2007.57
2818.35
2768.77
2757.08
2927.55
2692.32
2841.34
2623.98
2685.8
2550.82
2530.93
2471.46
2401.82
2384.94
2303.32
2291.1
2232.07
2190.41
2184.6
2083.31
2162.53
1969.23
2172.32
1844.11
2217.54
1692.06
2308.94
1477.71
2486.9
1164.45
2809.27
758.399
3286.23
324.755
3824.56
-46.6737
4253.5
-295.041
4406.67
-421.002
4247.92
-453.951
3824.53
-433.078
3215.88
-400.984
2461.51
-395.153
1699.56
-383.957
1294.48
-406.337
1011.14
-436.044
883.803
-451.88
243.843
-449.549
-152.147
-436.282
-527.898
-414.62
-903.303
-385.324
-1287.51
-348.313
-1687.97
-303.305
-2111.53
-249.835
-2560.86
-188.795
-3030.39
-125.377
-3506.62
-66.2256
-3972.58
-14.4349
-4414.05
30.4617
-4820.7
69.2364
-5182.69
100.86
-5486.51
123.446
-5712.17
137.496
-5831.05
147.239
-5786.47
153.74
-5480.4
146.566
-4852.78
115.254
-4076.7
70.587
-3520.22
38.4696
-3363.75
31.5335
-3396.38
43.4384
-3354.07
58.9457
-3118.41
26.2571
-2583.81
-18.2854
-1905.23
123.434
-1161.64
408.427
295.995
522.628
1480.96
567.333
1807.41
576.998
1813.7
564.47
1670.89
543.627
1426.87
540.051
1077.31
441.972
738.201
29.0093
726.119
-611.709
1139.54