/*--------------------------------*- C++ -*----------------------------------*\
| =========                 |                                                 |
| \\      /  F ield         | OpenFOAM: The Open Source CFD Toolbox           |
|  \\    /   O peration     | Version:  4.1                                   |
|   \\  /    A nd           | Web:      www.OpenFOAM.org                      |
|    \\/     M anipulation  |                                                 |
\*---------------------------------------------------------------------------*/
FoamFile
{
    version     2.0;
    format      ascii;
    class       volVectorField;
    location    "700";
    object      U;
}
// * * * * * * * * * * * * * * * * * * * * * * * * * * * * * * * * * * * * * //

dimensions      [0 1 -1 0 0 0 0];

internalField   nonuniform List<vector> 
26785
(
(1.40459e-15 -0.0714966 7.73786)
(9.83202e-16 -0.0667944 9.03864)
(1.54244e-15 -0.0660347 10.3715)
(1.73465e-15 -0.0653948 11.6971)
(-1.82321e-15 -0.0648742 13.0006)
(2.80201e-15 -0.0650114 14.275)
(2.45175e-15 -0.0658908 15.5239)
(2.45828e-15 -0.0676375 16.7578)
(-7.90249e-16 -0.0701319 17.9891)
(3.4085e-15 -0.0730244 19.227)
(1.03131e-15 -0.0757299 20.4727)
(1.5491e-15 -0.0774898 21.715)
(1.7831e-15 -0.0777193 22.9328)
(1.97397e-15 -0.0758221 24.0987)
(2.0795e-15 -0.0705801 25.1745)
(2.23783e-15 -0.0604803 26.1113)
(2.36172e-15 -0.0428934 26.8383)
(2.47323e-15 -0.0150114 27.2411)
(2.38279e-15 0.0197409 27.2114)
(4.6692e-15 0.0562296 26.6923)
(3.65413e-15 0.0899997 25.6888)
(3.5446e-15 0.112105 24.3202)
(5.45029e-15 0.120975 22.7893)
(4.48136e-15 0.121415 21.2551)
(6.76767e-15 0.117732 19.7928)
(4.65204e-15 0.112338 18.4281)
(5.71456e-15 0.106414 17.1658)
(5.51333e-15 0.100482 16.0019)
(9.82599e-15 0.0947488 14.9291)
(6.87638e-15 0.0892946 13.9401)
(7.19377e-15 0.084159 13.0273)
(5.692e-15 0.0793651 12.1837)
(1.14006e-14 0.074907 11.4026)
(8.30064e-15 0.0707184 10.6781)
(1.3142e-14 0.0666865 10.0058)
(5.91305e-15 0.0627109 9.3824)
(4.57556e-15 0.0587355 8.80571)
(2.70753e-15 0.054718 8.27391)
(1.79897e-15 0.0506524 7.7855)
(-1.47726e-16 0.0466207 7.3391)
(-2.11322e-15 0.042715 6.93151)
(3.86681e-15 0.0387178 6.56068)
(4.05461e-15 0.0344188 6.2301)
(4.69912e-15 0.0301273 5.9419)
(-5.19125e-16 0.0267969 5.6932)
(-7.88674e-15 0.0278769 5.46176)
(-1.84943e-14 0.0358294 5.18372)
(-1.98385e-14 0.044698 4.81104)
(-2.68244e-14 0.0452654 4.39291)
(-3.78352e-14 0.0340439 4.0369)
(-3.41687e-14 0.0199675 3.81093)
(-2.88604e-14 0.00975649 3.72283)
(-3.25733e-14 -0.00129646 3.77209)
(-2.97729e-14 -0.0153959 3.94905)
(-2.65291e-14 -0.0300981 4.22843)
(-2.19439e-14 -0.043581 4.587)
(-2.14232e-14 -0.0558609 5.01159)
(-2.46483e-14 -0.0677849 5.49853)
(-2.05821e-14 -0.0803207 6.0513)
(-1.92627e-14 -0.0943129 6.67881)
(-1.96306e-14 -0.110287 7.39356)
(-1.59952e-14 -0.128096 8.20835)
(-1.29599e-14 -0.146622 9.13157)
(-1.10608e-14 -0.163879 10.1618)
(-1.05661e-14 -0.177556 11.2836)
(-7.82114e-15 -0.185636 12.4658)
(-6.11875e-15 -0.186839 13.6655)
(-4.79714e-15 -0.180857 14.8342)
(-3.7305e-15 -0.168539 15.9271)
(-2.89892e-15 -0.151661 16.9105)
(-1.21677e-15 -0.132119 17.7656)
(-8.00592e-16 -0.11113 18.485)
(-1.37796e-16 -0.0890835 19.067)
(3.34785e-16 -0.0660306 19.5106)
(1.23363e-15 -0.042496 19.8141)
(6.57678e-16 -0.0203238 19.9812)
(8.30311e-16 -0.00262231 20.0287)
(1.03387e-15 0.00740932 19.9911)
(1.41433e-15 0.0077002 19.9185)
(1.85411e-15 -0.00164182 19.8656)
(2.02433e-15 -0.0183963 19.8795)
(2.85849e-15 -0.0389162 19.9909)
(3.76564e-15 -0.0585257 20.2085)
(3.86774e-15 -0.0717907 20.5166)
(4.57067e-15 -0.0732482 20.8728)
(5.46347e-15 -0.0589669 21.2086)
(6.05251e-15 -0.028689 21.4399)
(6.54556e-15 0.0132077 21.4867)
(7.86132e-15 0.0591781 21.2963)
(8.42637e-15 0.10002 20.8678)
(9.1321e-15 0.128683 20.2547)
(9.45527e-15 0.143776 19.5352)
(9.56246e-15 0.147958 18.7796)
(9.54456e-15 0.145137 18.0352)
(9.44353e-15 0.138771 17.329)
(9.57386e-15 0.131078 16.6658)
(9.36034e-15 0.123564 16.0602)
(9.16829e-15 0.115116 15.4651)
(9.01501e-15 0.110899 15.0204)
(8.58892e-15 0.093892 14.3107)
(1.57038e-15 -0.160347 8.49269)
(1.65499e-15 -0.170034 9.7028)
(4.87686e-17 -0.181998 11.0309)
(1.02994e-15 -0.189281 12.4022)
(-3.85816e-16 -0.193142 13.7661)
(3.77756e-15 -0.196158 15.0923)
(1.69883e-15 -0.199564 16.3739)
(4.19753e-15 -0.204505 17.6193)
(5.61409e-15 -0.211113 18.8427)
(2.1615e-15 -0.218561 20.0559)
(2.35839e-15 -0.225145 21.2626)
(2.13604e-15 -0.228611 22.4539)
(2.00386e-15 -0.227202 23.611)
(1.64082e-15 -0.219145 24.7091)
(3.5034e-15 -0.201169 25.7136)
(2.46994e-15 -0.169858 26.5832)
(1.04525e-15 -0.118774 27.2633)
(1.95638e-15 -0.0384387 27.6618)
(1.68328e-15 0.0655568 27.6636)
(-5.61193e-16 0.179698 27.1514)
(3.00588e-15 0.285985 26.1003)
(-3.411e-16 0.353788 24.6512)
(3.40701e-15 0.378641 23.0368)
(1.18002e-15 0.376589 21.4337)
(1.49876e-15 0.361858 19.9228)
(3.74745e-15 0.342371 18.5295)
(3.04124e-15 0.321918 17.2551)
(4.448e-15 0.302101 16.0919)
(4.58335e-15 0.283481 15.0292)
(5.97349e-15 0.266199 14.0563)
(1.04021e-15 0.250275 13.1633)
(6.36327e-15 0.235686 12.3411)
(5.97791e-15 0.222339 11.5816)
(5.79019e-15 0.209991 10.8777)
(5.17415e-15 0.198292 10.2237)
(3.22555e-15 0.186958 9.61526)
(1.61528e-15 0.175842 9.0489)
(1.28116e-15 0.164836 8.52144)
(1.14826e-15 0.153933 8.02981)
(1.05834e-15 0.143343 7.57085)
(-2.9073e-16 0.133137 7.14037)
(1.45916e-15 0.122249 6.73873)
(6.15565e-15 0.109745 6.3747)
(3.37644e-15 0.0969432 6.05275)
(1.25083e-14 0.0885562 5.76031)
(1.18144e-14 0.0966651 5.45669)
(-1.28382e-15 0.124776 5.0788)
(-1.46797e-14 0.150375 4.61164)
(-3.41554e-14 0.149096 4.13186)
(-4.33203e-14 0.114016 3.74483)
(-3.94334e-14 0.0611449 3.5323)
(-3.87247e-14 0.00211024 3.55371)
(-2.03333e-14 -0.0565592 3.7757)
(-1.56988e-14 -0.104955 4.11478)
(-1.46391e-14 -0.141015 4.51181)
(-5.81552e-15 -0.169606 4.94653)
(-6.64071e-15 -0.195801 5.41739)
(-9.25332e-15 -0.223205 5.92992)
(-5.02028e-15 -0.254411 6.49315)
(4.12346e-16 -0.291334 7.11857)
(1.80735e-15 -0.334853 7.81942)
(2.75993e-15 -0.384142 8.61064)
(2.09909e-15 -0.436276 9.5075)
(5.71394e-15 -0.486136 10.5181)
(7.06244e-15 -0.526875 11.632)
(6.87864e-15 -0.551431 12.8149)
(7.01461e-15 -0.554749 14.0151)
(6.63026e-15 -0.535438 15.1765)
(7.06321e-15 -0.496412 16.2504)
(5.27434e-15 -0.443722 17.2034)
(4.84012e-15 -0.383696 18.0194)
(4.96741e-15 -0.32034 18.695)
(3.80813e-15 -0.254912 19.2321)
(3.26768e-15 -0.187369 19.632)
(1.48613e-15 -0.118767 19.8941)
(1.95151e-15 -0.0537894 20.0202)
(1.61119e-15 -0.000768303 20.0229)
(1.42025e-15 0.0314741 19.9302)
(2.14445e-15 0.0368857 19.7852)
(1.91632e-15 0.0153458 19.6377)
(1.65386e-15 -0.0274312 19.5337)
(2.05995e-15 -0.0820316 19.5071)
(1.64733e-15 -0.136696 19.5763)
(8.44894e-16 -0.177852 19.7411)
(1.02177e-15 -0.190742 19.9807)
(2.24479e-15 -0.161511 20.2499)
(3.78685e-15 -0.083019 20.4802)
(5.88667e-15 0.0379436 20.5844)
(7.16715e-15 0.179407 20.4769)
(8.02918e-15 0.307711 20.1251)
(8.83129e-15 0.397119 19.57)
(9.5752e-15 0.442534 18.8917)
(1.00574e-14 0.452913 18.1666)
(1.08556e-14 0.441284 17.447)
(1.08971e-14 0.418961 16.7629)
(1.07952e-14 0.393068 16.1208)
(1.07531e-14 0.368251 15.5355)
(1.02764e-14 0.341258 14.9609)
(9.93026e-15 0.326892 14.533)
(9.27147e-15 0.275254 13.8524)
(9.14418e-16 -0.254872 8.73435)
(2.39458e-15 -0.287412 9.96455)
(6.05141e-15 -0.313009 11.3831)
(1.86717e-15 -0.326127 12.8427)
(7.34733e-16 -0.330167 14.2536)
(3.45676e-15 -0.331141 15.5789)
(9.08752e-16 -0.332547 16.8194)
(2.72952e-15 -0.33704 17.9942)
(2.42875e-15 -0.345072 19.1266)
(2.32825e-15 -0.355234 20.2358)
(2.03759e-15 -0.364585 21.3303)
(1.71546e-15 -0.36935 22.4059)
(1.52542e-15 -0.366666 23.4486)
(1.25062e-15 -0.353719 24.4396)
(3.84268e-16 -0.32552 25.3517)
(2.28997e-15 -0.277445 26.1534)
(-1.59175e-15 -0.199983 26.807)
(2.56015e-15 -0.0748515 27.2412)
(-1.38267e-15 0.0963431 27.3498)
(4.02197e-15 0.294159 26.9759)
(1.84757e-15 0.481918 26.0253)
(-1.86256e-15 0.601092 24.62)
(7.11671e-17 0.643311 23.0146)
(1.24414e-15 0.637501 21.4094)
(3.86221e-16 0.609406 19.8987)
(3.63805e-15 0.573391 18.513)
(2.06721e-15 0.536292 17.2548)
(3.46521e-15 0.500942 16.1151)
(3.89491e-15 0.468276 15.0812)
(3.49661e-15 0.438451 14.1404)
(3.19409e-15 0.4114 13.2809)
(2.59148e-15 0.386994 12.492)
(7.86835e-15 0.365015 11.7643)
(3.41937e-15 0.345024 11.0892)
(4.24593e-16 0.326454 10.4597)
(1.35816e-15 0.308869 9.87018)
(8.04255e-16 0.29206 9.31562)
(6.05711e-16 0.275908 8.79146)
(4.3886e-16 0.260504 8.2926)
(3.87265e-16 0.246097 7.81337)
(1.49765e-16 0.232027 7.34949)
(6.78167e-16 0.215436 6.90753)
(1.77367e-16 0.195025 6.50326)
(8.76368e-16 0.176172 6.13319)
(3.10476e-15 0.170003 5.75824)
(7.31519e-15 0.193129 5.3221)
(3.15095e-15 0.24327 4.78761)
(-8.13042e-15 0.277487 4.19559)
(-2.00399e-14 0.258664 3.66212)
(-1.95285e-14 0.182897 3.30717)
(-1.28212e-14 0.0679936 3.22127)
(-8.13867e-15 -0.0549543 3.42525)
(-3.79836e-15 -0.149624 3.76275)
(9.8284e-16 -0.211828 4.1313)
(5.04785e-15 -0.255138 4.51219)
(6.2737e-15 -0.291964 4.91274)
(3.00618e-15 -0.329107 5.34201)
(8.15262e-15 -0.370499 5.80822)
(1.24073e-14 -0.419026 6.31986)
(1.31505e-14 -0.476964 6.88704)
(1.413e-14 -0.546096 7.52638)
(1.30379e-14 -0.627228 8.26671)
(1.23946e-14 -0.71767 9.14121)
(1.14913e-14 -0.807858 10.1627)
(1.12926e-14 -0.882216 11.3059)
(9.12358e-15 -0.925348 12.5138)
(7.74035e-15 -0.928264 13.7195)
(7.87648e-15 -0.890471 14.8629)
(7.40479e-15 -0.81918 15.8991)
(7.36091e-15 -0.726171 16.8018)
(7.17242e-15 -0.622743 17.5618)
(6.95094e-15 -0.515541 18.1808)
(5.40602e-15 -0.406154 18.664)
(3.099e-15 -0.293733 19.0132)
(1.35863e-15 -0.178998 19.2259)
(-4.03385e-16 -0.0685896 19.2994)
(-1.90766e-15 0.0245362 19.2397)
(-3.22952e-15 0.0861166 19.0677)
(-4.25542e-15 0.10536 18.8204)
(-4.90699e-15 0.0804709 18.5451)
(-5.09322e-15 0.018783 18.2901)
(-5.0611e-15 -0.066626 18.097)
(-4.1149e-15 -0.158888 17.9964)
(-3.90302e-15 -0.238002 18.0038)
(-3.23245e-15 -0.281375 18.1152)
(-2.97491e-15 -0.265486 18.3044)
(-2.96021e-15 -0.17236 18.5232)
(-2.39169e-15 -0.00100956 18.7041)
(-7.98513e-16 0.223818 18.7549)
(2.45454e-15 0.444058 18.5877)
(4.63835e-15 0.605756 18.2009)
(6.70077e-15 0.693263 17.6613)
(8.86603e-15 0.719284 17.0471)
(9.91375e-15 0.705793 16.4169)
(1.04907e-14 0.672559 15.8064)
(1.063e-14 0.632202 15.2258)
(1.07581e-14 0.592861 14.6928)
(1.0364e-14 0.549655 14.1645)
(1.00344e-14 0.525642 13.7721)
(9.23979e-15 0.442707 13.1432)
(1.00665e-15 -0.349252 8.67238)
(2.33703e-15 -0.410026 10.0228)
(4.33818e-15 -0.449932 11.5587)
(4.96808e-15 -0.46536 13.068)
(3.26411e-15 -0.464901 14.463)
(2.91553e-15 -0.460068 15.7296)
(4.84453e-15 -0.457036 16.8879)
(4.46536e-15 -0.459668 17.9686)
(1.37315e-15 -0.46834 19.0007)
(2.04023e-15 -0.480794 20.0055)
(1.82565e-15 -0.492767 20.9929)
(1.68428e-15 -0.499047 21.9598)
(1.72991e-15 -0.49585 22.895)
(-5.91436e-16 -0.479584 23.7841)
(1.97553e-16 -0.443879 24.6052)
(-6.27635e-16 -0.383542 25.3337)
(-2.25617e-16 -0.287294 25.9445)
(-2.72469e-15 -0.128546 26.3879)
(-4.80651e-16 0.0989531 26.5818)
(-2.23173e-15 0.377319 26.3615)
(-5.50107e-16 0.653296 25.5622)
(-1.85451e-15 0.832384 24.2632)
(-3.09513e-16 0.897649 22.7269)
(-2.326e-16 0.890798 21.1722)
(3.63042e-16 0.85021 19.7047)
(4.52281e-16 0.797649 18.3607)
(5.41409e-16 0.743577 17.1446)
(8.72743e-16 0.692374 16.0478)
(1.06997e-15 0.645486 15.057)
(1.67799e-15 0.603139 14.1586)
(-3.36447e-15 0.565194 13.3396)
(-1.29411e-15 0.531423 12.5886)
(3.29307e-15 0.501496 11.8946)
(1.90057e-15 0.4748 11.2482)
(3.80608e-15 0.450565 10.6411)
(1.91919e-15 0.428194 10.0665)
(5.39683e-15 0.407422 9.51882)
(-4.12195e-15 0.388232 8.99237)
(-1.44871e-15 0.370945 8.47996)
(2.84078e-15 0.355538 7.97415)
(-3.92024e-15 0.339443 7.47402)
(-5.37299e-16 0.317477 6.99535)
(3.55297e-15 0.290779 6.55312)
(2.26513e-16 0.273269 6.11531)
(-2.88507e-15 0.281357 5.6124)
(-3.87189e-16 0.32789 4.99971)
(4.98881e-16 0.395975 4.30314)
(3.81618e-15 0.419468 3.62572)
(7.41486e-15 0.36094 3.10062)
(2.74599e-15 0.225055 2.85479)
(-7.42354e-15 0.0286181 2.97649)
(-6.42053e-15 -0.14111 3.28506)
(1.70001e-16 -0.24568 3.61034)
(1.67718e-14 -0.309118 3.92124)
(1.90736e-14 -0.357031 4.23752)
(1.82449e-14 -0.402124 4.5743)
(1.57109e-14 -0.450108 4.94031)
(1.34263e-14 -0.504592 5.34252)
(1.41896e-14 -0.568775 5.78921)
(1.27442e-14 -0.647008 6.29705)
(1.09779e-14 -0.745889 6.90205)
(9.24513e-15 -0.869959 7.65442)
(8.76111e-15 -1.01211 8.58418)
(5.59111e-15 -1.14991 9.67088)
(2.90212e-15 -1.25525 10.8523)
(1.17322e-16 -1.3076 12.0559)
(-1.66493e-16 -1.29961 13.2206)
(-9.84145e-16 -1.23535 14.3014)
(-3.6444e-16 -1.12736 15.2675)
(2.26618e-15 -0.992702 16.1022)
(4.25276e-15 -0.846735 16.8019)
(7.52143e-15 -0.697745 17.3716)
(8.50245e-15 -0.546695 17.8168)
(1.05971e-14 -0.391039 18.1377)
(1.24784e-14 -0.230234 18.3276)
(1.11594e-14 -0.072153 18.3771)
(1.00386e-14 0.0658638 18.2848)
(7.04805e-15 0.16402 18.064)
(5.65996e-15 0.20578 17.7455)
(4.88903e-15 0.186191 17.3741)
(4.56021e-15 0.11261 16.9988)
(4.48297e-15 0.00020007 16.6663)
(4.22061e-15 -0.130396 16.4174)
(4.98096e-15 -0.253167 16.2817)
(4.45555e-15 -0.337795 16.27)
(4.47153e-15 -0.352496 16.369)
(2.61596e-15 -0.270715 16.5418)
(1.26153e-15 -0.0815088 16.7344)
(-1.15672e-16 0.200198 16.8641)
(3.64509e-16 0.504371 16.8235)
(1.42924e-15 0.742881 16.5752)
(3.71024e-15 0.881473 16.1682)
(5.7889e-15 0.932294 15.6746)
(7.17001e-15 0.924825 15.1517)
(8.32958e-15 0.887165 14.6355)
(8.87751e-15 0.837652 14.137)
(9.12001e-15 0.788002 13.6745)
(8.88332e-15 0.732288 13.2084)
(8.83904e-15 0.699945 12.8629)
(8.33022e-15 0.590548 12.2999)
(1.21662e-15 -0.454083 8.52527)
(2.9254e-15 -0.546963 10.0331)
(3.73521e-15 -0.595858 11.6338)
(3.68052e-15 -0.606546 13.1215)
(5.0691e-15 -0.596997 14.4508)
(4.49839e-15 -0.584181 15.6365)
(1.47165e-15 -0.575803 16.7114)
(4.39279e-15 -0.576099 17.7092)
(2.60585e-15 -0.584947 18.6587)
(1.78109e-15 -0.599129 19.5792)
(2.18196e-15 -0.613113 20.4795)
(4.70076e-16 -0.620439 21.3568)
(2.29142e-15 -0.616644 22.2019)
(2.32945e-16 -0.597526 23.0041)
(1.86012e-15 -0.555483 23.7456)
(3.56789e-15 -0.485142 24.4063)
(2.0997e-15 -0.374714 24.9686)
(2.10899e-15 -0.190716 25.3982)
(1.39111e-15 0.0827026 25.6386)
(1.15752e-16 0.434236 25.5398)
(-7.05074e-16 0.800109 24.884)
(-2.65992e-15 1.04421 23.7029)
(-8.878e-16 1.13647 22.2584)
(-7.87893e-16 1.13089 20.7806)
(-8.69313e-16 1.07908 19.3817)
(-1.01996e-15 1.0107 18.1011)
(7.75868e-16 0.940179 16.9444)
(-1.7103e-15 0.873593 15.9034)
(9.13933e-16 0.812995 14.9645)
(-2.65127e-16 0.758728 14.1136)
(-9.48335e-16 0.710614 13.3375)
(-5.94591e-16 0.668365 12.6238)
(-3.81086e-16 0.631572 11.9607)
(-8.11061e-16 0.59946 11.338)
(3.54963e-15 0.571025 10.7465)
(2.5476e-15 0.545458 10.1796)
(1.53423e-15 0.522479 9.63144)
(-1.60793e-16 0.502358 9.09552)
(-2.87333e-16 0.485661 8.56283)
(-6.9994e-16 0.471272 8.02675)
(-3.71453e-16 0.453564 7.49412)
(1.06659e-15 0.426562 6.98658)
(-1.30197e-16 0.399239 6.49905)
(-4.30834e-15 0.396102 5.95471)
(-2.87372e-15 0.430872 5.27582)
(-3.58892e-15 0.500164 4.4784)
(-1.88188e-15 0.568937 3.66998)
(1.51482e-15 0.558495 2.98185)
(-4.19402e-17 0.43949 2.5497)
(-2.77367e-15 0.216008 2.47387)
(1.00782e-15 -0.0491134 2.76171)
(6.5904e-15 -0.226933 3.05837)
(9.66432e-15 -0.325344 3.30169)
(1.57604e-14 -0.388496 3.52649)
(1.43084e-14 -0.442186 3.76282)
(1.35034e-14 -0.496274 4.02491)
(1.36353e-14 -0.5554 4.32186)
(1.12274e-14 -0.623404 4.66342)
(6.55041e-15 -0.705944 5.06708)
(2.43302e-15 -0.81341 5.56951)
(5.48165e-16 -0.957774 6.22434)
(-5.37542e-16 -1.13898 7.06657)
(-7.92353e-16 -1.33454 8.07605)
(-4.59648e-15 -1.50783 9.18752)
(-7.42886e-15 -1.62676 10.33)
(-9.23219e-15 -1.67452 11.4506)
(-1.19995e-14 -1.64888 12.515)
(-1.06609e-14 -1.5574 13.4978)
(-1.02091e-14 -1.41551 14.3785)
(-7.33234e-15 -1.24368 15.1443)
(-4.62909e-15 -1.0603 15.7932)
(-4.1082e-16 -0.874591 16.3305)
(2.57193e-15 -0.686209 16.7606)
(7.63186e-15 -0.490254 17.0807)
(1.24576e-14 -0.284143 17.2781)
(1.53982e-14 -0.0764427 17.3357)
(1.96121e-14 0.111039 17.2438)
(1.86538e-14 0.252904 17.0072)
(1.86277e-14 0.325714 16.6506)
(1.65609e-14 0.320748 16.2183)
(1.47258e-14 0.244349 15.7576)
(1.49297e-14 0.111514 15.3153)
(1.22411e-14 -0.0551377 14.9387)
(1.02571e-14 -0.225065 14.6709)
(8.96256e-15 -0.359769 14.5393)
(6.73825e-15 -0.41744 14.5439)
(6.31598e-15 -0.361885 14.6566)
(6.39299e-15 -0.172787 14.8322)
(6.00288e-15 0.145149 14.9988)
(4.35726e-15 0.519968 15.0414)
(3.06668e-15 0.829593 14.8935)
(3.09251e-15 1.01798 14.5919)
(4.47103e-15 1.09493 14.2044)
(5.44801e-15 1.09648 13.7846)
(6.49006e-15 1.05844 13.3651)
(6.96255e-15 1.00433 12.9547)
(7.39553e-15 0.948798 12.5694)
(7.50155e-15 0.885017 12.1723)
(7.74452e-15 0.846411 11.8785)
(7.38503e-15 0.716438 11.3876)
(1.86262e-15 -0.58527 8.37983)
(2.73497e-15 -0.693782 9.98792)
(4.16658e-15 -0.741151 11.5674)
(4.71709e-15 -0.742791 12.9816)
(6.20039e-15 -0.723344 14.2287)
(3.78601e-15 -0.702924 15.338)
(2.07039e-15 -0.68964 16.3434)
(1.66417e-15 -0.687747 17.2756)
(2.81237e-15 -0.696573 18.1595)
(3.01604e-15 -0.712029 19.0118)
(2.71013e-15 -0.727486 19.8405)
(2.49766e-15 -0.735453 20.6435)
(2.84506e-15 -0.731004 21.4138)
(2.82283e-15 -0.709475 22.1441)
(2.98818e-15 -0.662089 22.8197)
(3.0975e-15 -0.583417 23.4228)
(3.01768e-15 -0.461966 23.942)
(4.50709e-15 -0.259022 24.3528)
(3.32675e-15 0.051473 24.6199)
(9.39862e-16 0.467714 24.6181)
(-1.73132e-15 0.922904 24.0915)
(-1.9134e-15 1.23507 23.0246)
(-4.21213e-15 1.35693 21.6775)
(-5.58335e-15 1.35441 20.2883)
(-2.53601e-15 1.29273 18.9716)
(-3.65183e-15 1.20973 17.7665)
(-3.2211e-15 1.12385 16.6789)
(-2.82737e-15 1.04296 15.7001)
(-2.82472e-15 0.969739 14.8164)
(-1.078e-15 0.904679 14.0137)
(-2.76968e-15 0.847601 13.2782)
(-6.89658e-16 0.798186 12.5972)
(-3.44397e-15 0.75597 11.9588)
(-3.10425e-15 0.719988 11.352)
(-2.64789e-16 0.688915 10.7683)
(2.67126e-15 0.661677 10.2014)
(1.90795e-15 0.638117 9.64596)
(7.8286e-16 0.61898 9.09444)
(1.99839e-16 0.604728 8.53728)
(6.59616e-16 0.591995 7.97264)
(3.39104e-15 0.572201 7.41611)
(-2.68826e-15 0.543098 6.88105)
(-5.18493e-15 0.52694 6.31898)
(-9.03534e-15 0.55414 5.61497)
(-9.21578e-15 0.620121 4.73351)
(-7.10639e-15 0.698295 3.7975)
(-8.63665e-15 0.746487 2.96066)
(-1.05378e-14 0.670986 2.35903)
(-7.32545e-15 0.477125 2.11177)
(1.03421e-14 0.160211 2.21801)
(2.22658e-14 -0.131465 2.51683)
(2.77668e-14 -0.293289 2.71827)
(2.18991e-14 -0.382681 2.85488)
(1.44993e-14 -0.447836 2.98585)
(8.66067e-15 -0.509381 3.14167)
(5.86899e-15 -0.574675 3.33905)
(2.79416e-15 -0.648222 3.59186)
(3.61658e-15 -0.735953 3.91809)
(-1.1328e-15 -0.848686 4.34905)
(-4.68418e-15 -1.00145 4.92893)
(-4.89981e-15 -1.20163 5.6867)
(-6.07727e-15 -1.4341 6.60152)
(-8.06101e-15 -1.66317 7.61016)
(-1.06466e-14 -1.85031 8.6476)
(-1.19422e-14 -1.96916 9.67243)
(-1.27627e-14 -2.00843 10.6637)
(-1.29659e-14 -1.96793 11.6074)
(-1.30889e-14 -1.85509 12.4876)
(-1.34656e-14 -1.68595 13.2858)
(-1.19369e-14 -1.48366 13.9888)
(-1.24515e-14 -1.26962 14.5957)
(-1.04283e-14 -1.05373 15.1132)
(-7.64467e-15 -0.833691 15.5455)
(-3.20669e-15 -0.601464 15.8868)
(-1.87133e-15 -0.351469 16.1182)
(3.11286e-15 -0.092502 16.2129)
(7.10875e-15 0.149105 16.1525)
(9.12319e-15 0.342188 15.9289)
(1.0921e-14 0.454055 15.5615)
(1.09862e-14 0.471729 15.0996)
(1.04825e-14 0.40214 14.5914)
(8.17794e-15 0.258719 14.0747)
(7.17985e-15 0.0621445 13.5959)
(4.9066e-15 -0.154232 13.209)
(5.10506e-15 -0.34445 12.9596)
(6.60847e-15 -0.455952 12.8646)
(5.63599e-15 -0.441704 12.906)
(4.20947e-15 -0.27039 13.045)
(3.89156e-15 0.0643438 13.2184)
(4.50536e-15 0.499093 13.3132)
(4.04214e-15 0.875423 13.2355)
(4.16651e-15 1.11101 13.014)
(4.99953e-15 1.21274 12.7148)
(5.29001e-15 1.22366 12.388)
(5.2402e-15 1.18735 12.061)
(5.87667e-15 1.13208 11.7378)
(6.21496e-15 1.07462 11.4304)
(6.50795e-15 1.00705 11.1034)
(6.64805e-15 0.964367 10.862)
(6.54622e-15 0.819598 10.4439)
(3.55505e-15 -0.715902 8.24251)
(3.55656e-15 -0.839898 9.83266)
(3.57663e-15 -0.883187 11.3332)
(4.20528e-15 -0.875396 12.6647)
(5.13985e-15 -0.846723 13.8425)
(5.08608e-15 -0.819359 14.8935)
(1.94839e-15 -0.801426 15.8456)
(1.91993e-15 -0.797186 16.7245)
(2.28191e-15 -0.805509 17.5522)
(1.62456e-15 -0.821618 18.3444)
(9.99571e-16 -0.837973 19.1097)
(3.84812e-15 -0.84621 19.8486)
(3.11913e-15 -0.841035 20.5568)
(2.8761e-15 -0.817324 21.2296)
(2.6186e-15 -0.765131 21.8533)
(4.19927e-15 -0.67916 22.4103)
(2.76963e-15 -0.548876 22.8925)
(-1.08197e-16 -0.331839 23.2828)
(1.67305e-15 0.00795878 23.5635)
(-3.58074e-15 0.48042 23.6416)
(4.82e-16 1.02357 23.2342)
(-1.76898e-15 1.40571 22.2765)
(-4.09213e-15 1.55854 21.0268)
(-4.10965e-15 1.56012 19.7303)
(-4.77066e-15 1.48971 18.5013)
(-4.72397e-15 1.39339 17.377)
(-2.09331e-15 1.29359 16.3616)
(-2.74881e-15 1.19987 15.4459)
(-3.48198e-15 1.11553 14.6159)
(-1.36015e-15 1.04118 13.8574)
(-3.4755e-15 0.976664 13.1569)
(-2.85993e-15 0.921638 12.502)
(-2.89471e-15 0.875582 11.881)
(-3.07732e-15 0.837286 11.2832)
(-2.86008e-15 0.805008 10.7008)
(-1.17178e-16 0.777433 10.1288)
(-2.08513e-16 0.754743 9.56193)
(-1.10439e-15 0.738161 8.99159)
(-7.74274e-16 0.727223 8.41051)
(1.19721e-15 0.71559 7.82486)
(-1.49199e-16 0.694413 7.25147)
(-5.87423e-15 0.67168 6.67193)
(-5.35721e-15 0.683737 5.98374)
(-9.96389e-15 0.753064 5.07553)
(-8.65244e-15 0.840575 4.0139)
(-1.11314e-14 0.901072 3.02728)
(-1.58645e-14 0.89837 2.26323)
(-7.94844e-15 0.732734 1.82762)
(2.03486e-14 0.483915 1.76717)
(2.75652e-14 0.102759 1.98581)
(2.48412e-14 -0.190703 2.19753)
(2.68451e-14 -0.332464 2.27316)
(1.70663e-14 -0.416127 2.30208)
(3.1678e-15 -0.487696 2.35207)
(-2.93547e-16 -0.562374 2.45662)
(3.3119e-16 -0.645661 2.63532)
(-6.44609e-15 -0.742554 2.90364)
(-5.06784e-15 -0.861829 3.28177)
(-6.19217e-15 -1.01699 3.79714)
(-9.02331e-15 -1.21926 4.46758)
(-1.03434e-14 -1.46405 5.27477)
(-1.25474e-14 -1.7255 6.16452)
(-1.33875e-14 -1.96711 7.07956)
(-1.2057e-14 -2.15668 7.98606)
(-9.87594e-15 -2.27354 8.87242)
(-8.71879e-15 -2.30805 9.73481)
(-7.95917e-15 -2.25865 10.5662)
(-7.88461e-15 -2.13067 11.3517)
(-8.99701e-15 -1.94026 12.071)
(-8.97825e-15 -1.71379 12.711)
(-1.2364e-14 -1.47634 13.2735)
(-1.26125e-14 -1.23826 13.7702)
(-1.333e-14 -0.994256 14.2084)
(-1.20059e-14 -0.73185 14.5813)
(-1.07395e-14 -0.441154 14.8633)
(-8.12015e-15 -0.130398 15.0176)
(-6.34206e-15 0.169934 15.0146)
(-4.65074e-15 0.422731 14.8285)
(-2.15424e-15 0.581636 14.4725)
(4.50873e-16 0.62788 14.0043)
(5.59919e-16 0.571985 13.4793)
(3.07108e-15 0.429414 12.9294)
(7.43053e-15 0.214256 12.3839)
(1.27655e-14 -0.0431685 11.8981)
(1.7673e-14 -0.290637 11.5366)
(1.95032e-14 -0.463432 11.3385)
(1.749e-14 -0.501221 11.2992)
(1.2922e-14 -0.361229 11.3853)
(6.01653e-15 -0.0256504 11.5414)
(3.52552e-15 0.45666 11.6617)
(2.7948e-15 0.892874 11.6299)
(3.42642e-15 1.17006 11.4677)
(4.7751e-15 1.29213 11.2416)
(5.32899e-15 1.31022 10.9982)
(5.81394e-15 1.27603 10.7586)
(5.51762e-15 1.22214 10.5197)
(5.68318e-15 1.16628 10.2883)
(5.63794e-15 1.09902 10.0298)
(5.86234e-15 1.05457 9.83919)
(5.91972e-15 0.900593 9.49054)
(4.58357e-15 -0.854764 8.0277)
(4.61901e-15 -0.985215 9.54011)
(2.3147e-15 -1.02152 10.9567)
(3.48909e-15 -1.00519 12.2239)
(3.14368e-15 -0.968371 13.35)
(3.03064e-15 -0.934487 14.3524)
(2.8654e-15 -0.911786 15.2545)
(3.52493e-15 -0.904801 16.08)
(1.70403e-15 -0.912142 16.8507)
(2.59258e-15 -0.928527 17.5838)
(1.95444e-15 -0.945632 18.2906)
(1.64136e-15 -0.954262 18.9745)
(1.51158e-15 -0.948728 19.6332)
(1.24957e-15 -0.923293 20.2636)
(1.25956e-15 -0.866684 20.8517)
(-8.90723e-16 -0.773804 21.3779)
(9.06599e-17 -0.635678 21.8345)
(5.32134e-17 -0.407928 22.2079)
(8.26451e-16 -0.045636 22.4933)
(7.24794e-16 0.47402 22.6347)
(-2.90424e-16 1.10302 22.3379)
(-1.01224e-15 1.55664 21.4849)
(-3.64645e-15 1.74136 20.3305)
(-5.32456e-15 1.74769 19.1264)
(-4.72729e-15 1.66956 17.9854)
(-5.16699e-15 1.56132 16.9412)
(-2.39129e-15 1.44925 15.9962)
(-7.36537e-15 1.34446 15.14)
(-5.06179e-15 1.25076 14.3587)
(-4.52347e-15 1.16884 13.6386)
(-3.45468e-15 1.09852 12.9669)
(-2.91532e-15 1.03945 12.3319)
(-2.67805e-15 0.991056 11.7226)
(-2.45865e-15 0.951823 11.1294)
(-2.78891e-15 0.91955 10.5454)
(-1.10542e-16 0.892813 9.96631)
(-1.37219e-16 0.872293 9.38624)
(-1.21927e-15 0.859262 8.79708)
(-1.12649e-15 0.851381 8.19753)
(1.51436e-15 0.840333 7.60004)
(8.26176e-16 0.822579 7.00426)
(-6.80581e-15 0.821248 6.33822)
(-7.89328e-15 0.878535 5.46633)
(-9.35831e-15 0.98946 4.34995)
(-1.13609e-14 1.07401 3.18457)
(-1.6123e-14 1.0863 2.24569)
(-1.91406e-14 1.01209 1.64743)
(-6.02289e-15 0.759389 1.38458)
(-3.34457e-15 0.461898 1.45301)
(6.01673e-15 0.0439391 1.73433)
(-3.16769e-15 -0.221023 1.80493)
(-9.8896e-16 -0.343677 1.75211)
(-5.05441e-16 -0.429737 1.70023)
(-4.91568e-15 -0.51713 1.71724)
(-4.64436e-15 -0.614699 1.83046)
(-4.2157e-15 -0.725218 2.04888)
(-1.57747e-14 -0.85379 2.37787)
(-1.52154e-14 -1.01039 2.82714)
(-1.19896e-14 -1.20649 3.40413)
(-1.3405e-14 -1.44583 4.09597)
(-1.47348e-14 -1.71596 4.86302)
(-1.51471e-14 -1.98959 5.65752)
(-1.27381e-14 -2.2352 6.44777)
(-9.75318e-15 -2.42607 7.22376)
(-7.35691e-15 -2.54373 7.98663)
(-5.15264e-15 -2.57764 8.73714)
(-4.07566e-15 -2.52372 9.46964)
(-3.15477e-15 -2.38465 10.1681)
(-3.45812e-15 -2.17685 10.8096)
(-3.81796e-15 -1.93105 11.3799)
(-6.57097e-15 -1.67721 11.8865)
(-8.33536e-15 -1.42608 12.35)
(-1.01795e-14 -1.16793 12.7852)
(-1.05373e-14 -0.884128 13.1871)
(-1.07274e-14 -0.558653 13.5253)
(-8.03738e-15 -0.197556 13.7525)
(-4.89473e-15 0.165482 13.8252)
(-2.16563e-15 0.487056 13.6976)
(1.48774e-15 0.701344 13.3717)
(6.28634e-15 0.781023 12.9149)
(1.15327e-14 0.742383 12.3935)
(1.77771e-14 0.608005 11.8432)
(2.1541e-14 0.38934 11.2752)
(2.42813e-14 0.102901 10.7234)
(2.47522e-14 -0.198335 10.2633)
(2.65827e-14 -0.4372 9.96224)
(2.68277e-14 -0.536507 9.83549)
(2.39627e-14 -0.439824 9.85587)
(1.75693e-14 -0.115839 9.97549)
(8.28553e-15 0.401693 10.0952)
(4.19642e-15 0.890262 10.0865)
(3.87088e-15 1.20182 9.96547)
(4.54241e-15 1.33787 9.80016)
(5.10533e-15 1.35927 9.6329)
(4.68596e-15 1.32661 9.47639)
(5.01535e-15 1.27619 9.31902)
(5.35838e-15 1.22532 9.16093)
(5.54698e-15 1.16237 8.96782)
(5.51921e-15 1.11865 8.8249)
(5.76164e-15 0.960872 8.54027)
(2.49495e-15 -0.988243 7.71901)
(3.70311e-15 -1.12491 9.134)
(1.4895e-15 -1.15736 10.4863)
(8.08992e-16 -1.13409 11.7029)
(2.80807e-15 -1.08928 12.7779)
(2.00338e-15 -1.04861 13.726)
(6.3937e-16 -1.02084 14.5711)
(2.12367e-15 -1.01091 15.3378)
(1.99852e-15 -1.01719 16.0496)
(1.31638e-15 -1.03398 16.7263)
(1.27494e-15 -1.05216 17.3823)
(3.88748e-16 -1.06168 18.0226)
(1.99772e-16 -1.0564 18.6459)
(2.72415e-16 -1.02986 19.249)
(-4.43397e-16 -0.969272 19.8165)
(-4.03995e-16 -0.869681 20.3263)
(-1.02282e-16 -0.723969 20.7705)
(2.69279e-15 -0.487294 21.1356)
(5.31171e-15 -0.107372 21.4236)
(2.40569e-15 0.450708 21.6149)
(3.20343e-15 1.16254 21.4195)
(1.3268e-15 1.68863 20.6661)
(-2.5559e-15 1.90585 19.603)
(6.94764e-18 1.91745 18.4882)
(-5.60144e-15 1.8326 17.4316)
(-5.75325e-15 1.71394 16.4635)
(-5.79805e-15 1.59136 15.5837)
(-3.11661e-15 1.47735 14.7816)
(-5.00166e-15 1.3761 14.0433)
(-3.15682e-15 1.28832 13.3559)
(-3.2857e-15 1.21375 12.7079)
(-4.80022e-15 1.15207 12.0887)
(-1.25384e-15 1.10264 11.4883)
(-6.40658e-15 1.06362 10.898)
(-6.3696e-15 1.03242 10.312)
(-4.67367e-15 1.00766 9.72548)
(-3.59221e-16 0.990407 9.13208)
(-8.73219e-16 0.981115 8.52709)
(-5.97239e-16 0.975428 7.91718)
(1.54481e-15 0.966824 7.31004)
(5.17744e-16 0.963659 6.66334)
(-4.72165e-15 1.00239 5.85045)
(-9.91787e-15 1.11332 4.76235)
(-1.1196e-14 1.24878 3.49529)
(-1.48608e-14 1.29903 2.33767)
(-2.04024e-14 1.23246 1.53226)
(-1.90632e-14 1.08395 1.12683)
(-1.03711e-14 0.755008 1.03893)
(-3.46202e-15 0.404619 1.19696)
(-1.02014e-14 0.000329765 1.42847)
(-9.37678e-15 -0.217991 1.34971)
(-1.29294e-14 -0.333663 1.21056)
(-7.73266e-15 -0.4367 1.14239)
(-7.77633e-15 -0.551535 1.19057)
(-7.46586e-15 -0.679182 1.35541)
(-1.0994e-14 -0.820137 1.62756)
(-2.08502e-14 -0.980343 2.00299)
(-1.45842e-14 -1.16985 2.48193)
(-1.10287e-14 -1.39674 3.05714)
(-1.43457e-14 -1.65951 3.70408)
(-1.64429e-14 -1.94312 4.38649)
(-1.57957e-14 -2.22251 5.07322)
(-1.0793e-14 -2.47067 5.7493)
(-7.83074e-15 -2.66403 6.41405)
(-5.04621e-15 -2.7847 7.07245)
(-4.72957e-15 -2.8207 7.72724)
(-4.57133e-15 -2.76505 8.37388)
(-4.0451e-15 -2.61698 8.99427)
(-3.14624e-15 -2.39322 9.55969)
(-2.71191e-15 -2.13054 10.0531)
(-4.2462e-15 -1.86603 10.488)
(-5.23042e-15 -1.61126 10.8984)
(-7.06992e-15 -1.35051 11.3114)
(-8.41208e-15 -1.05689 11.729)
(-6.04859e-15 -0.705717 12.1185)
(-7.47681e-15 -0.298296 12.4217)
(-8.55764e-15 0.129517 12.5806)
(-4.40966e-15 0.528487 12.5297)
(-3.34354e-17 0.807196 12.2504)
(6.16535e-15 0.924755 11.8182)
(1.20919e-14 0.905471 11.3153)
(1.68746e-14 0.782118 10.7833)
(1.93771e-14 0.570197 10.2301)
(1.84561e-14 0.273525 9.65635)
(2.06345e-14 -0.0708843 9.12426)
(2.08509e-14 -0.375612 8.72763)
(2.2498e-14 -0.542978 8.51035)
(2.31608e-14 -0.49871 8.4555)
(2.04688e-14 -0.19708 8.52126)
(1.35574e-14 0.34467 8.61537)
(6.91365e-15 0.876188 8.60697)
(4.57343e-15 1.21235 8.51078)
(4.82846e-15 1.35371 8.3964)
(4.96454e-15 1.37312 8.3002)
(5.79483e-15 1.34078 8.22432)
(5.5697e-15 1.29584 8.14627)
(5.53989e-15 1.25347 8.05866)
(5.58143e-15 1.19925 7.92691)
(5.40491e-15 1.1591 7.82784)
(6.03138e-15 1.00229 7.60016)
(2.11729e-15 -1.1162 7.31529)
(2.15972e-15 -1.26239 8.65585)
(2.65235e-15 -1.29226 9.95649)
(2.24145e-15 -1.26167 11.1157)
(1.27769e-15 -1.20857 12.1285)
(9.51393e-16 -1.16116 13.0126)
(2.89154e-15 -1.12852 13.7936)
(8.00468e-16 -1.11589 14.4974)
(1.73229e-15 -1.12151 15.1504)
(1.51901e-15 -1.1393 15.7762)
(-1.57262e-16 -1.15928 16.392)
(-1.50165e-15 -1.17038 17.0035)
(-9.27349e-17 -1.16597 17.6071)
(-1.55906e-15 -1.13879 18.198)
(1.71008e-17 -1.07452 18.7579)
(-7.35393e-16 -0.968387 19.2623)
(-4.92175e-16 -0.81511 19.7039)
(5.16004e-15 -0.570439 20.0682)
(3.40264e-15 -0.176614 20.3596)
(4.08405e-15 0.412136 20.5907)
(3.50978e-15 1.20335 20.4894)
(2.44746e-15 1.80264 19.8304)
(7.07957e-16 2.05282 18.8542)
(-9.64681e-16 2.07019 17.8241)
(-1.26184e-15 1.97965 16.847)