/*--------------------------------*- C++ -*----------------------------------*\
| =========                 |                                                 |
| \\      /  F ield         | OpenFOAM: The Open Source CFD Toolbox           |
|  \\    /   O peration     | Version:  4.1                                   |
|   \\  /    A nd           | Web:      www.OpenFOAM.org                      |
|    \\/     M anipulation  |                                                 |
\*---------------------------------------------------------------------------*/
FoamFile
{
    version     2.0;
    format      ascii;
    class       volScalarField;
    location    "1100";
    object      p;
}
// * * * * * * * * * * * * * * * * * * * * * * * * * * * * * * * * * * * * * //

dimensions      [0 2 -2 0 0 0 0];

internalField   nonuniform List<scalar> 
26785
(
-883.419
-893.564
-903.219
-913.939
-925.181
-937.126
-949.601
-962.561
-975.971
-989.935
-1004.7
-1020.71
-1038.57
-1059.08
-1083.26
-1112.14
-1146.46
-1185.85
-1226.29
-1253.55
-1248.84
-1215.18
-1164.84
-1106.06
-1046.79
-990.375
-940.1
-896.971
-859.88
-827.09
-796.492
-766.153
-734.996
-702.902
-670.469
-638.674
-608.435
-580.004
-552.728
-527.047
-504.133
-482.179
-459.697
-440.377
-424.758
-410.659
-396.037
-381.272
-367.03
-353.525
-340.917
-329.374
-318.966
-309.657
-301.329
-293.808
-286.976
-280.926
-275.951
-272.355
-270.26
-269.522
-269.75
-270.406
-270.942
-270.902
-269.988
-268.068
-265.166
-261.359
-256.767
-251.573
-245.919
-239.88
-233.468
-226.636
-219.278
-211.286
-202.458
-192.701
-182.059
-170.578
-158.861
-147.718
-137.347
-128.137
-120.286
-112.553
-103.87
-93.1683
-80.6008
-67.0271
-53.2023
-39.4833
-26.702
-14.461
-5.92679
4.70077
-2.5215
23.4611
-883.414
-893.562
-903.213
-913.934
-925.175
-937.122
-949.598
-962.559
-975.969
-989.931
-1004.7
-1020.7
-1038.55
-1059.06
-1083.22
-1112.12
-1146.47
-1185.97
-1226.66
-1254.22
-1249.53
-1215.79
-1165.39
-1106.55
-1047.25
-990.788
-940.459
-897.279
-860.153
-827.352
-796.762
-766.438
-735.283
-703.176
-670.715
-638.874
-608.557
-580.086
-553.095
-527.827
-504.76
-482.563
-460.196
-440.747
-424.753
-410.467
-395.867
-381.135
-366.907
-353.41
-340.81
-329.274
-318.875
-309.577
-301.261
-293.75
-286.917
-280.856
-275.874
-272.284
-270.212
-269.506
-269.767
-270.454
-271.012
-270.987
-270.079
-268.16
-265.257
-261.445
-256.846
-251.645
-245.99
-239.957
-233.558
-226.746
-219.419
-211.467
-202.681
-192.963
-182.353
-170.898
-159.214
-148.102
-137.656
-128.4
-120.584
-112.779
-104.139
-93.403
-80.7877
-67.1918
-53.3547
-39.622
-26.8362
-14.5581
-6.01324
4.79304
-2.77703
24.4632
-883.397
-893.559
-903.202
-913.923
-925.164
-937.113
-949.592
-962.556
-975.965
-989.924
-1004.68
-1020.67
-1038.51
-1059
-1083.15
-1112.06
-1146.51
-1186.25
-1227.49
-1255.74
-1251.1
-1217.12
-1166.53
-1107.57
-1048.24
-991.676
-941.256
-897.982
-860.79
-827.966
-797.394
-767.098
-735.944
-703.801
-671.269
-639.326
-608.877
-580.293
-553.439
-528.564
-505.662
-483.198
-460.499
-440.906
-424.821
-410.363
-395.675
-380.927
-366.695
-353.198
-340.605
-329.08
-318.694
-309.415
-301.125
-293.633
-286.797
-280.718
-275.726
-272.153
-270.125
-269.481
-269.809
-270.553
-271.154
-271.156
-270.259
-268.341
-265.433
-261.607
-256.991
-251.78
-246.123
-240.1
-233.725
-226.952
-219.682
-211.805
-203.105
-193.465
-182.905
-171.483
-159.851
-148.846
-138.354
-128.911
-121.007
-113.118
-104.729
-93.9711
-81.3132
-67.7229
-53.8844
-40.1203
-27.2899
-14.8964
-6.23436
4.87472
-2.85033
25.7646
-883.373
-893.555
-903.185
-913.907
-925.149
-937.101
-949.584
-962.552
-975.962
-989.917
-1004.67
-1020.64
-1038.45
-1058.92
-1083.06
-1112
-1146.58
-1186.69
-1228.72
-1257.96
-1253.37
-1219.09
-1168.18
-1109.05
-1049.69
-993.006
-942.481
-899.091
-861.816
-828.963
-798.416
-768.166
-737.025
-704.841
-672.224
-640.157
-609.558
-580.866
-554.096
-529.449
-506.598
-483.999
-461.138
-441.299
-424.938
-410.209
-395.404
-380.627
-366.383
-352.884
-340.3
-328.789
-318.423
-309.173
-300.918
-293.452
-286.61
-280.504
-275.502
-271.96
-270.003
-269.454
-269.879
-270.708
-271.373
-271.414
-270.533
-268.615
-265.7
-261.855
-257.215
-251.989
-246.332
-240.323
-233.981
-227.265
-220.075
-212.307
-203.734
-194.212
-183.728
-172.387
-160.804
-149.849
-139.315
-129.792
-121.755
-113.888
-105.655
-94.8367
-82.1555
-68.5825
-54.7563
-40.9757
-28.1194
-15.6221
-6.84189
4.54409
-3.00041
26.2592
-883.341
-893.549
-903.163
-913.887
-925.128
-937.086
-949.575
-962.547
-975.959
-989.91
-1004.65
-1020.6
-1038.39
-1058.83
-1082.96
-1111.94
-1146.7
-1187.3
-1230.39
-1260.9
-1256.31
-1221.66
-1170.29
-1110.95
-1051.56
-994.746
-944.121
-900.608
-863.243
-830.361
-799.847
-769.654
-738.527
-706.293
-673.574
-641.363
-610.581
-581.741
-554.997
-530.505
-507.662
-484.878
-461.841
-441.741
-425.075
-410.058
-395.106
-380.273
-365.995
-352.482
-339.9
-328.401
-318.059
-308.844
-300.635
-293.201
-286.349
-280.212
-275.205
-271.711
-269.852
-269.428
-269.98
-270.92
-271.667
-271.762
-270.902
-268.984
-266.057
-262.183
-257.513
-252.268
-246.61
-240.621
-234.324
-227.682
-220.598
-212.973
-204.571
-195.209
-184.833
-173.633
-162.028
-151.13
-140.584
-131.336
-122.591
-115.166
-106.784
-95.849
-83.1889
-69.6862
-55.9296
-42.184
-29.3464
-16.8022
-7.95898
3.53902
-3.41475
25.1091
-883.302
-893.543
-903.136
-913.862
-925.104
-937.069
-949.565
-962.544
-975.958
-989.905
-1004.63
-1020.56
-1038.32
-1058.74
-1082.85
-1111.89
-1146.88
-1188.08
-1232.43
-1264.43
-1259.8
-1224.73
-1172.78
-1113.21
-1053.8
-996.855
-946.154
-902.526
-865.072
-832.157
-801.675
-771.545
-740.433
-708.146
-675.321
-642.967
-612.005
-582.997
-556.201
-531.749
-508.843
-485.87
-462.677
-442.292
-425.261
-409.908
-394.768
-379.851
-365.524
-351.987
-339.403
-327.917
-317.601
-308.428
-300.272
-292.872
-286.006
-279.835
-274.831
-271.405
-269.671
-269.403
-270.113
-271.189
-272.041
-272.202
-271.369
-269.451
-266.507
-262.598
-257.892
-252.625
-246.965
-241.003
-234.762
-228.212
-221.262
-213.814
-205.631
-196.481
-186.242
-175.25
-163.565
-152.712
-142.137
-133.281
-123.761
-116.781
-108.111
-97.0426
-84.396
-70.9511
-57.2739
-43.5978
-30.8306
-18.3277
-9.5009
1.88619
-4.10161
22.2746
-883.281
-893.535
-903.106
-913.834
-925.076
-937.049
-949.554
-962.543
-975.961
-989.905
-1004.62
-1020.53
-1038.26
-1058.64
-1082.75
-1111.86
-1147.13
-1189.02
-1234.81
-1268.48
-1263.7
-1228.23
-1175.58
-1115.77
-1056.36
-999.306
-948.571
-904.845
-867.31
-834.357
-803.895
-773.819
-742.712
-710.358
-677.417
-644.92
-613.784
-584.603
-557.707
-533.201
-510.157
-486.954
-463.592
-442.919
-425.489
-409.762
-394.406
-379.378
-364.982
-351.408
-338.813
-327.336
-317.045
-307.917
-299.818
-292.457
-285.575
-279.371
-274.382
-271.044
-269.462
-269.38
-270.277
-271.518
-272.496
-272.739
-271.938
-270.02
-267.053
-263.099
-258.351
-253.059
-247.4
-241.47
-235.299
-228.863
-222.077
-214.839
-206.932
-198.049
-187.978
-177.272
-165.505
-154.814
-144.295
-135.562
-125.969
-118.888
-109.788
-98.5112
-85.8154
-72.3737
-58.7366
-45.1113
-32.4131
-19.9866
-11.1966
-0.0546632
-4.87544
18.6571
-883.26
-893.526
-903.072
-913.803
-925.046
-937.028
-949.544
-962.544
-975.969
-989.911
-1004.61
-1020.5
-1038.2
-1058.55
-1082.66
-1111.85
-1147.43
-1190.1
-1237.48
-1272.94
-1267.91
-1232.09
-1178.63
-1118.59
-1059.22
-1002.07
-951.358
-907.564
-869.962
-836.966
-806.507
-776.466
-745.346
-712.908
-679.838
-647.193
-615.889
-586.535
-559.502
-534.854
-511.602
-488.142
-464.591
-443.619
-425.762
-409.631
-394.026
-378.858
-364.372
-350.745
-338.129
-326.654
-316.388
-307.306
-299.269
-291.949
-285.051
-278.818
-273.856
-270.627
-269.224
-269.359
-270.475
-271.91
-273.037
-273.377
-272.614
-270.695
-267.7
-263.693
-258.895
-253.575
-247.917
-242.028
-235.943
-229.643
-223.054
-216.062
-208.489
-199.929
-190.046
-179.751
-167.947
-157.516
-147.264
-138.371
-129.41
-121.509
-111.843
-100.297
-87.4919
-74.0007
-60.3565
-46.7395
-34.0701
-21.6888
-12.8859
-1.97256
-5.62851
15.3019
-883.237
-893.517
-903.036
-913.769
-925.012
-937.005
-949.535
-962.549
-975.983
-989.925
-1004.61
-1020.48
-1038.15
-1058.48
-1082.58
-1111.87
-1147.8
-1191.29
-1240.37
-1277.7
-1272.35
-1236.24
-1181.88
-1121.64
-1062.32
-1005.12
-954.499
-910.674
-873.027
-839.987
-809.514
-779.492
-748.337
-715.789
-682.567
-649.76
-618.288
-588.76
-561.567
-536.703
-513.165
-489.424
-465.674
-444.386
-426.078
-409.521
-393.636
-378.296
-363.697
-350
-337.35
-325.87
-315.624
-306.588
-298.617
-291.342
-284.428
-278.172
-273.252
-270.154
-268.958
-269.343
-270.711
-272.37
-273.67
-274.124
-273.404
-271.483
-268.451
-264.382
-259.529
-254.177
-248.524
-242.686
-236.706
-230.57
-224.211
-217.495
-210.314
-202.122
-192.451
-182.752
-170.964
-160.885
-151.082
-140.804
-133.311
-124.572
-114.312
-102.427
-89.445
-75.8522
-62.1586
-48.5121
-35.8338
-23.4524
-14.5744
-3.78882
-6.36448
12.699
-883.209
-893.506
-902.997
-913.733
-924.977
-936.982
-949.527
-962.557
-976.004
-989.95
-1004.63
-1020.47
-1038.11
-1058.42
-1082.53
-1111.93
-1148.22
-1192.6
-1243.45
-1282.7
-1276.98
-1240.64
-1185.3
-1124.88
-1065.65
-1008.43
-957.976
-914.164
-876.497
-843.415
-812.915
-782.897
-751.695
-719.014
-685.612
-652.62
-620.966
-591.255
-563.882
-538.751
-514.857
-490.797
-466.839
-445.219
-426.44
-409.435
-393.24
-377.698
-362.96
-349.174
-336.476
-324.982
-314.75
-305.758
-297.855
-290.626
-283.699
-277.429
-272.565
-269.622
-268.664
-269.332
-270.988
-272.903
-274.404
-274.986
-274.315
-272.394
-269.314
-265.171
-260.256
-254.871
-249.227
-243.454
-237.603
-231.66
-225.566
-219.154
-212.412
-204.619
-195.201
-186.31
-174.556
-164.947
-157.68
-143.951
-137.287
-128.112
-117.233
-104.92
-91.6867
-77.9368
-64.1505
-50.4381
-37.7187
-25.2977
-16.3015
-5.5366
-7.13754
10.7858
-883.167
-893.498
-902.956
-913.695
-924.94
-936.958
-949.52
-962.57
-976.033
-989.986
-1004.66
-1020.49
-1038.1
-1058.38
-1082.5
-1112.02
-1148.7
-1193.98
-1246.65
-1287.9
-1281.75
-1245.25
-1188.85
-1128.3
-1069.18
-1011.99
-961.775
-918.021
-880.364
-847.238
-816.694
-786.674
-755.418
-722.591
-688.985
-655.78
-623.923
-594.014
-566.419
-540.976
-516.691
-492.28
-468.086
-446.115
-426.849
-409.378
-392.843
-377.067
-362.164
-348.268
-335.506
-323.985
-313.761
-304.81
-296.974
-289.791
-282.854
-276.578
-271.789
-269.027
-268.341
-269.33
-271.312
-273.519
-275.25
-275.975
-275.354
-273.436
-270.295
-266.067
-261.083
-255.663
-250.036
-244.35
-238.657
-232.94
-227.142
-221.055
-214.779
-207.408
-198.309
-190.387
-178.796
-169.758
-168.227
-149.966
-142.283
-132.283
-120.634
-107.785
-94.2212
-80.2565
-66.3329
-52.517
-39.7247
-27.2257
-18.0827
-7.24063
-7.99069
9.34936
-883.165
-893.487
-902.914
-913.656
-924.902
-936.934
-949.515
-962.589
-976.07
-990.035
-1004.71
-1020.52
-1038.1
-1058.36
-1082.5
-1112.15
-1149.22
-1195.42
-1249.95
-1293.26
-1286.64
-1250.03
-1192.51
-1131.88
-1072.89
-1015.77
-965.882
-922.233
-884.617
-851.445
-820.835
-790.803
-759.497
-726.523
-692.698
-659.254
-627.165
-597.038
-569.172
-543.36
-518.656
-493.879
-469.424
-447.076
-427.309
-409.354
-392.448
-376.407
-361.312
-347.283
-334.439
-322.879
-312.653
-303.737
-295.963
-288.826
-281.881
-275.61
-270.915
-268.365
-267.987
-269.34
-271.691
-274.229
-276.219
-277.103
-276.534
-274.61
-271.399
-267.075
-262.015
-256.563
-250.968
-245.394
-239.894
-234.436
-228.963
-223.213
-217.407
-210.472
-201.789
-194.873
-183.775
-175.071
-179.975
-160.161
-148.994
-137.236
-124.537
-111.023
-97.0473
-82.8088
-68.7023
-54.7438
-41.8463
-29.2287
-19.9168
-8.90494
-8.92795
8.24515
-883.162
-893.476
-902.87
-913.616
-924.863
-936.911
-949.513
-962.612
-976.118
-990.098
-1004.77
-1020.57
-1038.13
-1058.37
-1082.53
-1112.3
-1149.77
-1196.9
-1253.32
-1298.74
-1291.61
-1254.98
-1196.22
-1135.6
-1076.75
-1019.75
-970.28
-926.784
-889.244
-856.025
-825.325
-795.266
-763.914
-730.8
-696.751
-663.049
-630.7
-600.332
-572.151
-545.93
-520.768
-495.597
-470.852
-448.105
-427.823
-409.365
-392.06
-375.721
-360.406
-346.22
-333.274
-321.659
-311.421
-302.531
-294.811
-287.714
-280.764
-274.51
-269.934
-267.631
-267.604
-269.367
-272.133
-275.044
-277.33
-278.387
-277.868
-275.924
-272.63
-268.201
-263.062
-257.583
-252.041
-246.615
-241.345
-236.182
-231.052
-225.65
-220.289
-213.794
-205.64
-199.647
-189.501
-181.206
-189.245
-173.046
-157.364
-143.003
-128.939
-114.625
-100.158
-85.5877
-71.2528
-57.1113
-44.075
-31.2952
-21.7944
-10.5244
-9.92957
7.39532
-883.153
-893.465
-902.826
-913.575
-924.824
-936.888
-949.513
-962.642
-976.175
-990.176
-1004.86
-1020.64
-1038.19
-1058.42
-1082.59
-1112.5
-1150.36
-1198.39
-1256.71
-1304.31
-1296.64
-1260.04
-1199.93
-1139.43
-1080.74
-1023.93
-974.946
-931.655
-894.229
-860.968
-830.153
-800.046
-768.651
-735.409
-701.142
-667.168
-634.536
-603.879
-575.343
-548.692
-523.038
-497.453
-472.378
-449.208
-428.395
-409.415
-391.682
-375.014
-359.448
-345.079
-332.01
-320.322
-310.058
-301.182
-293.504
-286.439
-279.485
-273.262
-268.833
-266.817
-267.191
-269.418
-272.652
-275.981
-278.6
-279.847
-279.378
-277.391
-273.996
-269.454
-264.234
-258.741
-253.282
-248.043
-243.045
-238.207
-233.432
-228.381
-223.422
-217.358
-209.84
-204.63
-195.816
-188.8
-196.111
-186.294
-166.856
-149.502
-133.812
-118.571
-103.537
-88.5819
-73.9759
-59.6119
-46.4031
-33.4165
-23.7065
-12.0974
-10.9763
6.74717
-883.14
-893.453
-902.781
-913.534
-924.784
-936.866
-949.517
-962.679
-976.244
-990.269
-1004.96
-1020.74
-1038.27
-1058.49
-1082.68
-1112.71
-1150.95
-1199.88
-1260.1
-1309.94
-1301.68
-1265.19
-1203.59
-1143.34
-1084.82
-1028.26
-979.858
-936.82
-899.55
-866.258
-835.308
-805.131
-773.693
-740.337
-705.862
-671.612
-638.683
-607.68
-578.754
-551.649
-525.466
-499.45
-474.011
-450.39
-429.03
-409.507
-391.319
-374.289
-358.442
-343.863
-330.647
-318.866
-308.558
-299.68
-292.026
-284.983
-278.024
-271.848
-267.601
-265.92
-266.751
-269.501
-273.261
-277.061
-280.054
-281.507
-281.09
-279.035
-275.513
-270.846
-265.547
-260.06
-254.72
-249.713
-245.027
-240.539
-236.117
-231.417
-226.811
-221.154
-214.348
-209.806
-202.445
-197.592
-202.613
-198.753
-176.927
-156.584
-139.098
-122.826
-107.162
-91.7746
-76.8586
-62.2349
-48.8216
-35.5851
-25.6466
-13.628
-12.0533
6.25795
-883.106
-893.443
-902.736
-913.494
-924.745
-936.846
-949.525
-962.723
-976.324
-990.38
-1005.09
-1020.87
-1038.39
-1058.59
-1082.81
-1112.96
-1151.56
-1201.34
-1263.48
-1315.6
-1306.7
-1270.35
-1207.14
-1147.3
-1088.97
-1032.75
-984.991
-942.255
-905.182
-871.876
-840.781
-810.512
-779.028
-745.572
-710.902
-676.377
-643.139
-611.753
-582.406
-554.814
-528.078
-501.599
-475.757
-451.659
-429.733
-409.648
-390.974
-373.55
-357.39
-342.571
-329.182
-317.285
-306.915
-298.014
-290.363
-283.326
-276.36
-270.249
-266.223
-264.934
-266.286
-269.628
-273.981
-278.307
-281.719
-283.398
-283.031
-280.882
-277.203
-272.394
-267.022
-261.568
-256.389
-251.661
-247.32
-243.196
-239.116
-234.757
-230.458
-225.181
-219.111
-215.195
-209.197
-206.744
-210.375
-210.318
-187.155
-164.054
-144.716
-127.348
-111.004
-95.1445
-79.8844
-64.9672
-51.3194
-37.793
-27.6071
-15.1201
-13.1474
5.89247
-883.123
-893.43
-902.691
-913.454
-924.707
-936.829
-949.537
-962.774
-976.417
-990.508
-1005.24
-1021.02
-1038.53
-1058.73
-1082.97
-1113.23
-1152.16
-1202.76
-1266.79
-1321.26
-1311.67
-1275.44
-1210.51
-1151.29
-1093.15
-1037.36
-990.323
-947.936
-911.099
-877.8
-846.557
-816.182
-784.648
-751.104
-716.254
-681.46
-647.883
-616.098
-586.31
-558.182
-530.88
-503.909
-477.627
-453.022
-430.51
-409.84
-390.653
-372.801
-356.296
-341.206
-327.615
-315.576
-305.12
-296.171
-288.496
-281.449
-274.472
-268.446
-264.689
-263.856
-265.805
-269.818
-274.836
-279.75
-283.63
-285.555
-285.24
-282.969
-279.097
-274.126
-268.688
-263.297
-258.326
-253.916
-249.944
-246.183
-242.428
-238.39
-234.362
-229.441
-224.082
-220.791
-216.01
-215.563
-219.039
-221.013
-197.249
-171.722
-150.571
-132.083
-115.03
-98.6675
-83.0351
-67.7941
-53.8841
-40.0316
-29.58
-16.577
-14.2473
5.62299
-883.137
-893.418
-902.647
-913.415
-924.671
-936.813
-949.553
-962.834
-976.522
-990.653
-1005.41
-1021.2
-1038.7
-1058.89
-1083.15
-1113.52
-1152.74
-1204.1
-1270.03
-1326.88
-1316.58
-1280.38
-1213.66
-1155.27
-1097.33
-1042.08
-995.832
-953.84
-917.275
-884.007
-852.623
-822.134
-790.548
-756.925
-721.912
-686.861
-652.904
-620.711
-590.479
-561.771
-533.883
-506.388
-479.629
-454.487
-431.368
-410.091
-390.36
-372.048
-355.163
-339.77
-325.945
-313.736
-303.165
-294.14
-286.412
-279.333
-272.335
-266.417
-262.985
-262.684
-265.318
-270.092
-275.859
-281.43
-285.828
-288.02
-287.771
-285.341
-281.233
-276.073
-270.576
-265.284
-260.563
-256.504
-252.908
-249.497
-246.04
-242.297
-238.515
-233.932
-229.223
-226.532
-222.861
-223.78
-227.432
-230.727
-206.971
-179.414
-156.567
-136.977
-119.202
-102.318
-86.291
-70.7007
-56.5039
-42.2934
-31.5583
-18.0019
-15.344
5.42715
-883.139
-893.405
-902.604
-913.377
-924.636
-936.801
-949.574
-962.902
-976.64
-990.818
-1005.6
-1021.41
-1038.91
-1059.09
-1083.37
-1113.82
-1153.3
-1205.35
-1273.14
-1332.41
-1321.41
-1285.05
-1216.52
-1159.19
-1101.49
-1046.9
-1001.5
-959.948
-923.686
-890.473
-858.964
-828.361
-796.721
-763.03
-727.87
-692.572
-658.223
-625.61
-594.908
-565.595
-537.096
-509.047
-481.772
-456.064
-432.315
-410.406
-390.102
-371.296
-353.997
-338.265
-324.172
-311.759
-301.043
-291.907
-284.094
-276.96
-269.926
-264.143
-261.098
-261.419
-264.843
-270.481
-277.091
-283.395
-288.365
-290.835
-290.689
-288.057
-283.659
-278.275
-272.727
-267.566
-263.13
-259.438
-256.208
-253.121
-249.932
-246.455
-242.895
-238.638
-234.503
-232.338
-229.678
-231.436
-235.115
-239.54
-216.162
-186.98
-162.611
-141.973
-123.484
-106.069
-89.6326
-73.6724
-59.1673
-44.5719
-33.5362
-19.3985
-16.431
5.28603
-883.135
-893.392
-902.562
-913.342
-924.603
-936.792
-949.601
-962.979
-976.772
-991.001
-1005.82
-1021.65
-1039.14
-1059.33
-1083.61
-1114.13
-1153.83
-1206.49
-1276.08
-1337.78
-1326.16
-1289.3
-1219.07
-1163.02
-1105.6
-1051.79
-1007.3
-966.243
-930.312
-897.176
-865.565
-834.856
-803.165
-769.414
-734.123
-698.563
-663.853
-630.827
-599.595
-569.662
-540.528
-511.893
-484.066
-457.761
-433.357
-410.792
-389.884
-370.55
-352.801
-336.694
-322.297
-309.643
-298.747
-289.462
-281.529
-274.31
-267.221
-261.599
-259.016
-260.066
-264.403
-271.023
-278.582
-285.702
-291.301
-294.051
-294.041
-291.2
-286.438
-280.781
-275.182
-270.177
-266.048
-262.72
-259.829
-257.029
-254.075
-250.833
-247.477
-243.531
-239.89
-238.146
-236.368
-238.645
-242.336
-247.627
-224.719
-194.295
-168.621
-147.015
-127.839
-109.895
-93.0411
-76.6957
-61.8642
-46.8618
-35.5091
-20.7704
-17.5028
5.18356
-883.108
-893.38
-902.52
-913.308
-924.573
-936.786
-949.634
-963.065
-976.918
-991.204
-1006.07
-1021.91
-1039.41
-1059.59
-1083.88
-1114.45
-1154.32
-1207.48
-1278.78
-1342.88
-1330.76
-1293.02
-1221.26
-1166.7
-1109.64
-1056.74
-1013.21
-972.708
-937.134
-904.098
-872.413
-841.613
-809.877
-776.077
-740.674
-704.828
-669.777
-636.361
-604.558
-573.98
-544.188
-514.936
-486.521
-459.587
-434.504
-411.257
-389.715
-369.818
-351.583
-335.062
-320.321
-307.386
-296.268
-286.793
-278.703
-271.364
-264.193
-258.764
-256.728
-258.634
-264.026
-271.761
-280.387
-288.418
-294.712
-297.738
-297.865
-294.849
-289.642
-283.646
-277.985
-273.149
-269.327
-266.336
-263.744
-261.188
-258.436
-255.399
-252.228
-248.576
-245.35
-243.926
-242.867
-245.47
-249.283
-254.937
-232.556
-201.266
-174.523
-152.053
-132.232
-113.772
-96.4988
-79.7583
-64.5856
-49.1587
-37.4733
-22.1215
-18.5552
5.10595
-883.134
-893.366
-902.481
-913.276
-924.545
-936.784
-949.672
-963.161
-977.077
-991.426
-1006.34
-1022.21
-1039.71
-1059.88
-1084.17
-1114.78
-1154.75
-1208.31
-1281.14
-1347.47
-1335.06
-1296.15
-1223.07
-1170.18
-1113.58
-1061.72
-1019.22
-979.328
-944.135
-911.223
-879.495
-848.627
-816.855
-783.015
-747.51
-711.403
-676.027
-642.194
-609.801
-578.558
-548.084
-518.185
-489.147
-461.554
-435.766
-411.81
-389.603
-369.109
-350.349
-333.375
-318.248
-304.987
-293.603
-283.89
-275.603
-268.105
-260.817
-255.614
-254.224
-257.136
-263.743
-272.737
-282.559
-291.61
-298.678
-301.989
-302.245
-299.079
-293.341
-286.929
-281.18
-276.503
-272.963
-270.264
-267.918
-265.561
-262.979
-260.119
-257.114
-253.732
-250.846
-249.662
-249.135
-251.865
-255.826
-261.319
-239.615
-207.824
-180.258
-157.045
-136.633
-117.678
-99.9899
-82.8491
-67.3237
-51.4592
-39.426
-23.4552
-19.5842
5.04103
-883.154
-893.351
-902.443
-913.246
-924.52
-936.786
-949.717
-963.267
-977.251
-991.667
-1006.63
-1022.53
-1040.03
-1060.2
-1084.49
-1115.1
-1155.13
-1208.94
-1283.05
-1351.33
-1338.92
-1298.55
-1224.53
-1173.43
-1117.39
-1066.72
-1025.31
-986.088
-951.3
-918.538
-886.803
-855.89
-824.096
-790.231
-754.589
-718.281
-682.637
-648.335
-615.333
-583.402
-552.223
-521.649
-491.954
-463.671
-437.151
-412.459
-389.557
-368.431
-349.109
-331.64
-316.081
-302.447
-290.746
-280.745
-272.219
-264.511
-257.065
-252.124
-251.498
-255.585
-263.58
-273.981
-285.136
-295.33
-303.278
-306.917
-307.315
-303.983
-297.614
-290.687
-284.802
-280.252
-276.943
-274.471
-272.313
-270.11
-267.668
-264.96
-262.102
-258.96
-256.343
-255.329
-255.143
-257.765
-261.748
-266.707
-245.875
-213.918
-185.781
-161.955
-141.014
-121.594
-103.501
-85.9591
-70.0721
-53.7608
-41.3649
-24.7753
-20.5869
4.97796
-883.158
-893.336
-902.406
-913.218
-924.497
-936.792
-949.768
-963.382
-977.438
-991.927
-1006.95
-1022.88
-1040.39
-1060.55
-1084.82
-1115.42
-1155.44
-1209.35
-1284.43
-1354.37
-1342.37
-1300.05
-1225.64
-1176.44
-1121.06
-1071.71
-1031.45
-992.973
-958.617
-926.032
-894.327
-863.399
-831.599
-797.724
-761.938
-725.466
-689.584
-654.788
-621.158
-588.519
-556.613
-525.336
-494.952
-465.95
-438.673
-413.217
-389.588
-367.795
-347.873
-329.866
-313.829
-299.768
-287.695
-277.35
-268.54
-260.562
-252.91
-248.274
-248.544
-253.99
-263.543
-275.486
-288.115
-299.596
-308.566
-312.648
-313.227
-309.699
-302.554
-294.979
-288.882
-284.393
-281.24
-278.919
-276.886
-274.797
-272.469
-269.889
-267.162
-264.225
-261.808
-260.897
-260.864
-263.165
-266.976
-271.149
-251.349
-219.52
-191.062
-166.757
-145.355
-125.505
-107.021
-89.0813
-72.8262
-56.0625
-43.2892
-26.0853
-21.5608
4.90712
-883.155
-893.32
-902.371
-913.193
-924.477
-936.802
-949.825
-963.507
-977.64
-992.206
-1007.29
-1023.25
-1040.77
-1060.92
-1085.16
-1115.73
-1155.69
-1209.53
-1285.21
-1356.47
-1345.54
-1300.53
-1226.36
-1179.21
-1124.57
-1076.68
-1037.65
-999.968
-966.075
-933.699
-902.06
-871.148
-839.367
-805.468
-769.613
-733.032
-696.862
-661.558
-627.281
-593.915
-561.263
-529.257
-498.155
-468.405
-440.343
-414.096
-389.709
-367.214
-346.653
-328.065
-311.5
-296.957
-284.449
-273.699
-264.555
-256.236
-248.33
-244.044
-245.359
-252.344
-263.591
-277.187
-291.424
-304.355
-314.535
-319.257
-320.137
-316.379
-308.256
-299.855
-293.436
-288.914
-285.82
-283.565
-281.598
-279.585
-277.349
-274.878
-272.263
-269.496
-267.217
-266.337
-266.286
-268.109
-271.552
-274.763
-256.087
-224.624
-196.081
-171.433
-149.64
-129.398
-110.542
-92.2105
-75.5829
-58.3638
-45.1987
-27.3891
-22.5044
4.82004
-883.128
-893.305
-902.337
-913.169
-924.46
-936.816
-949.888
-963.641
-977.855
-992.504
-1007.65
-1023.66
-1041.18
-1061.31
-1085.52
-1116.03
-1155.88
-1209.49
-1285.34
-1357.57
-1348.62
-1299.99
-1226.59
-1181.69
-1127.95
-1081.6
-1043.88
-1007.06
-973.665
-941.53
-909.998
-879.139
-847.399
-813.455
-777.597
-740.971
-704.477
-668.649
-633.706
-599.598
-566.182
-533.424
-501.574
-471.049
-442.177
-415.11
-389.934
-366.703
-345.464
-326.252
-309.108
-294.022
-281.01
-269.79
-260.254
-251.509
-243.306
-239.426
-241.944
-250.605
-263.623
-278.932
-294.897
-309.458
-321.089
-326.732
-328.146
-324.157
-314.802
-305.348
-298.464
-293.791
-290.644
-288.369
-286.411
-284.44
-282.278
-279.898
-277.379
-274.749
-272.553
-271.635
-271.419
-272.671
-275.563
-277.703
-260.158
-229.241
-200.831
-175.971
-153.86
-133.267
-114.058
-95.3443
-78.341
-60.6661
-47.0944
-28.6906
-23.4167
4.7095
-883.152
-893.289
-902.306
-913.148
-924.446
-936.833
-949.957
-963.784
-978.084
-992.82
-1008.04
-1024.08
-1041.61
-1061.72
-1085.88
-1116.32
-1156
-1209.23
-1284.77
-1357.38
-1351.35
-1298.52
-1226.33
-1183.79
-1131.2
-1086.46
-1050.13
-1014.24
-981.381
-949.522
-918.141
-887.371
-855.679
-821.751
-785.946
-749.258
-712.432
-676.062
-640.441
-605.577
-571.38
-537.849
-505.226
-473.899
-444.189
-416.276
-390.28
-366.279
-344.324
-324.441
-306.666
-290.973
-277.382
-265.622
-255.624
-246.363
-237.831
-234.427
-238.294
-248.695
-263.475
-280.502
-298.287
-314.666
-328.022
-334.97
-337.217
-333.085
-322.239
-311.468
-303.951
-298.988
-295.671
-293.291
-291.29
-289.332
-287.226
-284.924
-282.487
-279.962
-277.806
-276.786
-276.288
-276.924
-279.098
-280.092
-263.639
-233.405
-205.313
-180.368
-158.01
-137.109
-117.568
-98.4821
-81.101
-62.9715
-48.9781
-29.994
-24.2977
4.56946
-883.17
-893.272
-902.276
-913.129
-924.434
-936.853
-950.031
-963.937
-978.325
-993.154
-1008.44
-1024.53
-1042.06
-1062.14
-1086.24
-1116.58
-1156.06
-1208.78
-1283.48
-1355.26
-1352.92
-1296.22
-1225.71
-1185.45
-1134.29
-1091.26
-1056.39
-1021.5
-989.216
-957.675
-926.491
-895.843
-864.174
-830.359
-794.698
-757.907
-720.729
-683.803
-647.492
-611.861
-576.87
-542.547
-509.128
-476.972
-446.4
-417.61
-390.765
-365.961
-343.252
-322.655
-304.194
-287.828
-273.572
-261.199
-250.65
-240.79
-231.915
-229.077
-234.402
-246.51
-262.97
-281.679
-301.35
-319.722
-335.059
-343.747
-347.107
-343.082
-330.557
-318.197
-309.865
-304.463
-300.857
-298.294
-296.205
-294.234
-292.17
-289.933
-287.565
-285.121
-282.969
-281.795
-280.926
-280.927
-282.212
-281.989
-266.586
-237.172
-209.544
-184.628
-162.091
-140.924
-121.074
-101.626
-83.8655
-65.2834
-50.8528
-31.3035
-25.148
4.39505
-883.169
-893.255
-902.248
-913.112
-924.423
-936.877
-950.11
-964.097
-978.579
-993.504
-1008.87
-1025.01
-1042.53
-1062.58
-1086.6
-1116.82
-1156.05
-1208.17
-1281.48
-1350.86
-1352.97
-1293.06
-1224.91
-1186.66
-1137.21
-1095.98
-1062.64
-1028.83
-997.169
-965.994
-935.051
-904.544
-872.955
-839.326
-803.82
-766.915
-729.372
-691.879
-654.869
-618.463
-582.667
-547.536
-513.297
-480.29
-448.828
-419.134
-391.409
-365.769
-342.27
-320.914
-301.715
-284.604
-269.594
-256.525
-245.315
-234.799
-225.588
-223.431
-230.265
-243.97
-261.997
-282.345
-303.952
-324.465
-341.97
-352.759
-357.401
-353.913
-339.683
-325.491
-316.158
-310.169
-306.16
-303.343
-301.127
-299.121
-297.086
-294.905
-292.596
-290.212
-288.037
-286.666
-285.374
-284.718
-284.975
-283.437
-269.046
-240.613
-213.552
-188.761
-166.111
-144.717
-124.578
-104.781
-86.6386
-67.6068
-52.7227
-32.6237
-25.9691
4.18252
-883.16
-893.237
-902.221
-913.097
-924.415
-936.902
-950.193
-964.266
-978.845
-993.87
-1009.32
-1025.5
-1043.02
-1063.03
-1086.95
-1117.02
-1155.97
-1207.41
-1278.87
-1344.35
-1351.9
-1288.81
-1224
-1187.51
-1139.94
-1100.62
-1068.87
-1036.22
-1005.24
-974.481
-943.817
-913.458
-882.068
-848.717
-813.328
-776.289
-738.365
-700.296
-662.582
-625.396
-588.788
-552.834
-517.755
-483.872
-451.494
-420.868
-392.235
-365.729
-341.402
-319.244
-299.254
-281.325
-265.462
-251.606
-239.605
-228.424
-218.904
-217.557
-225.886
-241.046
-260.55
-282.521
-306.122
-328.912
-348.684
-361.786
-367.699
-365.246
-349.491
-333.283
-322.773
-316.05
-311.535
-308.405
-306.029
-303.971
-301.954
-299.821
-297.566
-295.226
-293.007
-291.408
-289.672
-288.325
-287.468
-284.526
-271.077
-243.801
-217.374
-192.785
-170.08
-148.498
-128.089
-107.952
-89.4264
-69.9474
-54.5928
-33.9594
-26.7636
3.92906
-883.129
-893.22
-902.196
-913.083
-924.408
-936.93
-950.28
-964.441
-979.121
-994.252
-1009.78
-1026.01
-1043.53
-1063.48
-1087.29
-1117.18
-1155.82
-1206.54
-1275.83
-1336.25
-1349.99
-1283.33
-1222.84
-1188.07
-1142.47
-1105.16
-1075.08
-1043.66
-1013.42
-983.133
-952.786
-922.63
-891.534
-858.503
-823.219
-786.03
-747.715
-709.065
-670.646
-632.678
-595.251
-558.462
-522.524
-487.741
-454.422
-422.835
-393.266
-365.864
-340.676
-317.676
-296.842
-278.018
-261.199
-246.448
-233.516
-221.715
-211.926
-211.507
-221.267
-237.75
-258.687
-282.301
-307.987
-333.202
-355.337
-370.851
-377.876
-376.803
-359.84
-341.498
-329.644
-322.05
-316.939
-313.446
-310.886
-308.763
-306.756
-304.667
-302.461
-300.156
-297.878
-296.03
-293.853
-291.792
-289.766
-285.379
-272.757
-246.798
-221.055
-196.724
-174.016
-152.278
-131.617
-111.15
-92.2369
-72.3127
-56.4693
-35.3158
-27.5348
3.63279
-883.144
-893.203
-902.173
-913.071
-924.402
-936.959
-950.37
-964.623
-979.407
-994.647
-1010.26
-1026.54
-1044.04
-1063.93
-1087.62
-1117.29
-1155.58
-1205.59
-1272.65
-1326.91
-1346.28
-1276.95
-1221.23
-1188.37
-1144.82
-1109.6
-1081.27
-1051.15
-1021.71
-991.943
-961.954
-932.121
-901.41
-868.695
-833.499
-796.144
-757.43
-718.197
-679.076
-640.328
-602.077
-564.443
-527.626
-491.921
-457.634
-425.058
-394.528
-366.204
-340.123
-316.24
-294.514
-274.716
-256.831
-241.055
-227.064
-214.732
-204.71
-205.307
-216.4
-234.104
-256.457
-281.754
-309.652
-337.477
-362.18
-380.076
-388.126
-388.5
-370.631
-350.064
-336.7
-328.107
-322.324
-318.433
-315.671
-313.475
-311.475
-309.428
-307.273
-304.998
-302.652
-300.545
-297.945
-295.166
-291.958
-286.124
-274.178
-249.665
-224.638
-200.608
-177.938
-156.073
-135.173
-114.385
-95.0797
-74.711
-58.3597
-36.6987
-28.2869
3.29251
-883.154
-893.187
-902.153
-913.06
-924.397
-936.988
-950.461
-964.809
-979.702
-995.055
-1010.76
-1027.08
-1044.57
-1064.39
-1087.92
-1117.35
-1155.24
-1204.58
-1269.61
-1316.77
-1340.96
-1270.2
-1219.08
-1188.38
-1147.02
-1113.92
-1087.42
-1058.69
-1030.11
-1000.91
-971.335
-941.943
-911.702
-879.296
-844.173
-806.637
-767.518
-727.708
-687.89
-648.366
-609.29
-570.799
-533.086
-496.435
-461.153
-427.563
-396.048
-366.777
-339.773
-314.972
-292.306
-271.457
-252.388
-235.434
-220.279
-207.532
-197.297
-198.965
-211.278
-230.116
-253.874
-280.89
-311.148
-341.806
-369.398
-389.562
-398.796
-400.491
-381.831
-358.919
-343.868
-334.156
-327.641
-323.328
-320.357
-318.088
-316.097
-314.095
-311.995
-309.749
-307.332