/*--------------------------------*- C++ -*----------------------------------*\
| =========                 |                                                 |
| \\      /  F ield         | OpenFOAM: The Open Source CFD Toolbox           |
|  \\    /   O peration     | Version:  4.1                                   |
|   \\  /    A nd           | Web:      www.OpenFOAM.org                      |
|    \\/     M anipulation  |                                                 |
\*---------------------------------------------------------------------------*/
FoamFile
{
    version     2.0;
    format      ascii;
    class       surfaceScalarField;
    location    "1100";
    object      phi;
}
// * * * * * * * * * * * * * * * * * * * * * * * * * * * * * * * * * * * * * //

dimensions      [0 3 -1 0 0 0 0];

internalField   nonuniform List<scalar> 
52920
(
-2936.96
155.237
-3101.04
164.084
-3267.57
166.542
-3440.79
173.234
-3620.47
179.688
-3807.69
187.231
-4003.2
195.521
-4208.64
205.446
-4426.61
217.987
-4661
234.397
-4916.64
255.648
-5198.96
282.335
-5513.74
314.783
-5867.11
353.379
-6265.7
398.602
-6715.69
449.993
-7218.05
502.374
-7756.95
538.905
-8277.27
520.326
-8652.34
375.07
-8735.34
83.0041
-8533.32
-202.01
-8124.07
-409.251
-7570.03
-554.032
-6929.96
-640.062
-6247.39
-682.566
-5577.77
-669.614
-4972.1
-605.663
-4461.56
-510.539
-4057.14
-404.403
-3748.25
-308.886
-3509.13
-239.108
-3315.36
-193.757
-3151.53
-163.819
-3007.8
-143.714
-2875.53
-132.252
-2745.15
-130.358
-2613.66
-131.468
-2506.93
-106.699
-2315.83
-191.073
-1631.48
-684.318
-468.765
-1162.69
307.468
-776.213
538.955
-231.468
696.155
-157.183
993.423
-297.248
1330.77
-337.317
1642.55
-311.772
1928.26
-285.685
2196.94
-268.674
2454.04
-257.077
2701.41
-247.369
2939.76
-238.328
3170.16
-230.394
3396.57
-226.397
3630.5
-233.923
3893.03
-262.525
4206.15
-313.112
4579.84
-373.682
5006.25
-426.41
5462.82
-456.564
5919.97
-457.155
6348.76
-428.785
6725.84
-377.076
7035.78
-309.933
7270.8
-235.022
7430.01
-159.208
7518.72
-88.7087
7546.49
-27.774
7525.38
21.1106
7467.98
57.3981
7384.56
83.4196
7281.96
102.608
7163.53
118.425
7029.13
134.404
6875.07
154.058
6695.88
179.198
6478.38
217.498
6211.8
266.576
5901.75
310.053
5535.63
366.119
5072.6
463.029
4489.66
582.942
3804.99
684.668
3088.47
716.527
2427.75
660.716
1882.01
545.739
1678.88
203.133
1945.11
-266.227
2604.22
-659.112
3494.35
-890.132
4498.42
-1004.07
5552.7
-1054.27
6633.06
-1080.36
7733.33
-1100.27
8882.51
-1149.17
10097.1
-1214.6
11492.4
-1395.3
12956.9
-1464.54
-2041.75
-2938.38
314.887
-3105.68
331.389
-3276.15
337.022
-3453.34
350.435
-3636.98
363.336
-3827.9
378.167
-4026.74
394.37
-4235.13
413.843
-4455.96
438.822
-4693.71
472.166
-4954.3
516.246
-5244.65
572.69
-5572.42
642.564
-5946.04
727.009
-6374.69
827.26
-6867.14
942.445
-7426.43
1061.67
-8036.72
1149.2
-8637.74
1121.36
-9091.23
828.559
-9236.18
227.959
-9076.82
-361.357
-8703.04
-783.032
-8179.07
-1078
-7554.11
-1265.01
-6867.27
-1369.4
-6170.72
-1366.16
-5515.72
-1260.66
-4939.12
-1087.14
-4458.9
-884.61
-4069.2
-698.588
-3743.58
-564.711
-3454.34
-482.989
-3188.63
-429.519
-2948.34
-383.988
-2740.48
-340.101
-2564.36
-306.464
-2397.65
-298.156
-2165.39
-338.929
-1828.2
-528.233
-1515.93
-996.562
-1224.19
-1454.41
-635.092
-1365.29
106.742
-973.279
628.026
-678.447
971.245
-640.446
1271.87
-637.915
1560.71
-600.597
1835.35
-560.299
2096.47
-529.787
2343.46
-504.053
2576.62
-480.51
2797.55
-459.247
3009.14
-441.978
3217.56
-434.795
3437.6
-453.964
3695.04
-519.948
4015.4
-633.476
4407.77
-766.045
4858.59
-877.224
5338.09
-936.058
5811.54
-930.61
6248.17
-865.402
6625.38
-754.288
6929.74
-614.291
7155.62
-460.903
7304.12
-307.702
7381.96
-166.552
7399.34
-45.1561
7368.35
52.1052
7300.98
124.768
7207.33
177.066
7094.81
215.133
6967.71
245.53
6826.65
275.457
6668.28
312.431
6485.41
362.069
6261.21
441.699
5989.05
538.739
5674.29
624.808
5273.14
767.274
4728.65
1007.52
4068.92
1242.68
3375.52
1378.07
2714.97
1377.09
2086.89
1288.79
1467.65
1164.98
1262.65
408.135
1676.48
-680.057
2496.9
-1479.53
3523.46
-1916.69
4658.53
-2139.14
5852.44
-2248.18
7074.86
-2302.79
8310.09
-2335.5
9571.96
-2411.04
10888.7
-2531.38
12334.7
-2841.28
13925.3
-3055.1
-4070.49
-2937.39
479.464
-3109.22
503.222
-3284.8
512.618
-3467.28
532.925
-3656.18
552.243
-3852.03
574.026
-4055.23
597.587
-4267.35
625.965
-4491.42
662.9
-4732.41
713.167
-4997.02
780.868
-5293.29
868.964
-5630.2
979.48
-6017.54
1114.36
-6465.64
1275.37
-6983.67
1460.48
-7573.62
1651.62
-8215.84
1791.43
-8842.61
1748.13
-9307.91
1293.86
-9452.48
372.53
-9297.15
-516.677
-8937.55
-1142.64
-8430.91
-1584.62
-7821.3
-1874.62
-7145.02
-2045.67
-6451.14
-2060.04
-5788.42
-1923.37
-5193.83
-1681.73
-4687.97
-1390.46
-4269.6
-1116.95
-3915.04
-919.266
-3593.32
-804.694
-3283.3
-739.532
-2979.13
-688.154
-2688.81
-630.407
-2425.68
-569.571
-2183.3
-540.519
-1910.59
-611.619
-1556.15
-882.649
-1154.8
-1397.9
-781.705
-1827.48
-424.705
-1722.27
10.0142
-1407.98
485.488
-1153.9
880.908
-1035.85
1205.31
-962.296
1499.65
-894.919
1774.58
-835.213
2031.43
-786.624
2271.06
-743.669
2495.09
-704.532
2705.83
-669.968
2906.85
-642.99
3106.08
-634.016
3322.58
-670.462
3588.13
-785.481
3930.63
-975.972
4353.73
-1189.14
4833.98
-1357.47
5333.7
-1435.77
5815.33
-1412.24
6249.35
-1299.41
6616.31
-1121.25
6906
-903.985
7115.43
-670.33
7247.98
-440.255
7311.64
-230.209
7315.73
-49.2402
7271.07
96.762
7188.7
207.143
7078.3
287.462
6947.59
345.845
6801.47
391.649
6640.98
435.946
6462.83
490.58
6257.52
567.386
6007.74
691.472
5714.98
831.5
5365.37
974.426
4869.72
1262.92
4198.29
1678.95
3509.18
1931.78
2947.02
1940.23
2422.53
1901.58
1760.09
1951.22
1078.88
1846.19
1058.78
428.239
1624.55
-1245.83
2382.56
-2237.53
3256.57
-2790.7
4248.33
-3130.91
5351.89
-3351.74
6550.35
-3501.24
7822.43
-3607.58
9160.21
-3748.82
10584.2
-3955.39
12128.3
-4385.31
13895.3
-4822.12
-6178.79
-2931.07
647.612
-3107.24
679.402
-3287.45
692.836
-3474.7
720.187
-3668.24
745.788
-3868.28
774.078
-4074.98
804.301
-4289.75
840.741
-4515.66
888.818
-4757.89
955.409
-5023.53
1046.51
-5321.11
1166.55
-5660.22
1318.6
-6051.29
1505.43
-6505.12
1729.2
-7031.13
1986.5
-7631.03
2251.53
-8283.7
2444.11
-8917.17
2381.6
-9378.22
1754.91
-9503.71
498.032
-9329.96
-690.424
-8963
-1509.59
-8458.01
-2089.61
-7854.28
-2478.36
-7185.89
-2714.05
-6500.97
-2744.96
-5846.79
-2577.54
-5258.66
-2269.86
-4755.06
-1894.04
-4333.47
-1538.54
-3970.58
-1282.14
-3636.57
-1138.7
-3310.03
-1066.06
-2981.22
-1016.95
-2650.07
-961.543
-2323.94
-895.695
-2009.92
-854.523
-1690.89
-930.628
-1346.47
-1227.05
-997.386
-1746.96
-652.33
-2172.52
-286.988
-2087.6
93.1746
-1788.13
482.313
-1543.03
846.539
-1400.05
1172.71
-1288.44
1468.11
-1190.3
1740.04
-1107.12
1990.89
-1037.45
2222.91
-975.677
2438.67
-920.285
2641.16
-872.438
2834.91
-836.729
3029.98
-829.073
3250.03
-890.505
3531.98
-1067.42
3902.71
-1346.7
4357.02
-1643.44
4861.56
-1862.02
5373.8
-1948.01
5856.46
-1894.9
6282.86
-1725.81
6636.81
-1475.19
6910.7
-1177.87
7103.42
-863.055
7220.08
-556.911
7269.45
-279.579
7259.97
-39.7591
7201.52
155.216
7104.34
304.319
6977.94
413.861
6830.1
493.684
6665.34
556.416
6483.3
617.987
6278.93
694.949
6039.7
806.616
5752.37
978.804
5423.07
1160.8
4997.17
1400.32
4364.85
1895.24
3613.75
2430.05
3009.19
2536.35
2506.68
2442.74
1810.53
2597.73
986.213
2775.54
615.607
2216.8
1082.9
-39.0502
1775.05
-1937.98
2444.71
-2907.19
3148.53
-3494.52
3935.64
-3918.01
4831.62
-4247.72
5850.02
-4519.64
6995.54
-4753.1
8265.53
-5018.81
9691.82
-5381.69
11261.5
-5954.99
13134.7
-6695.35
-8340.21
-2917.62
816.99
-3097.43
859.225
-3280.95
876.359
-3471.67
910.913
-3668.4
942.531
-3871.13
976.817
-4079.76
1012.94
-4295.52
1056.51
-4521.44
1114.75
-4762.73
1196.71
-5026.55
1310.34
-5321.56
1461.57
-5657.53
1654.58
-6045.14
1893.06
-6495.68
2179.75
-7019.2
2510.02
-7618.11
2850.45
-8270.77
3096.78
-8900.28
3011.11
-9342.51
2197.15
-9429.21
584.734
-9220.93
-898.699
-8836.16
-1894.35
-8324.79
-2600.98
-7720.65
-3082.49
-7055.66
-3379.04
-6377.38
-3423.23
-5733
-3221.92
-5158.27
-2844.58
-4670.74
-2381.58
-4264.92
-1944.36
-3913.83
-1633.23
-3585.6
-1466.92
-3259.08
-1392.57
-2924.49
-1351.54
-2579.04
-1306.98
-2224.61
-1250.11
-1869.42
-1209.7
-1518.36
-1281.67
-1167.41
-1577.98
-824.74
-2089.62
-493.743
-2503.51
-150.877
-2430.45
191.859
-2130.85
533.209
-1884.36
864.849
-1731.68
1176.4
-1599.97
1463.8
-1477.69
1728.43
-1371.74
1971.69
-1280.7
2195.99
-1199.96
2404.23
-1128.52
2599.97
-1068.16
2788.66
-1025.4
2982.31
-1022.71
3208.76
-1116.96
3508.78
-1367.43
3906.16
-1744.08
4386.51
-2123.79
4908.88
-2384.38
5428.4
-2467.53
5909.3
-2375.79
6327.6
-2144.11
6669.63
-1817.22
6929.54
-1437.78
7107.58
-1041.09
7210.14
-659.471
7246.41
-315.842
7223.55
-16.905
7150.53
228.241
7037.3
417.552
6893.92
557.236
6728.59
659.021
6544.72
740.284
6338.95
823.754
6102.88
931.025
5821.16
1088.33
5487.87
1312.09
5102.87
1545.81
4564.18
1939.01
3810.82
2648.6
3080.25
3160.62
2542.22
3074.38
1859.12
3125.84
927.912
3528.93
29.1065
3674.35
275.993
1969.91
1241.14
-1004.2
2000.03
-2696.87
2670.63
-3577.79
3329.36
-4153.25
4018.43
-4607.08
4768.27
-4997.56
5608.83
-5360.2
6574.46
-5718.73
7682.67
-6127.02
8990.13
-6689.15
10450.5
-7415.36
12231.2
-8476.06
-10389.9
-2898.42
994.947
-3078.67
1039.48
-3264.54
1062.24
-3457.17
1103.55
-3655.63
1141
-3859.55
1180.75
-4068.64
1222.04
-4283.97
1271.84
-4508.43
1339.22
-4747.14
1435.43
-5007.15
1570.37
-5297.02
1751.45
-5626.46
1984.03
-6006.31
2272.91
-6448.24
2621.68
-6963.11
3024.9
-7554.24
3441.58
-8199.25
3741.79
-8815.2
3627.08
-9226.08
2608.04
-9262.19
620.847
-9015.86
-1145.02
-8614.13
-2296.08
-8097.16
-3117.95
-7493.39
-3686.26
-6832.45
-4039.97
-6160.5
-4095.18
-5523.85
-3858.57
-4959.32
-3409.1
-4485.67
-2855.22
-4097.21
-2332.81
-3763.87
-1966.56
-3450.09
-1780.68
-3133.57
-1709.09
-2804.84
-1680.26
-2460.78
-1651.04
-2100.72
-1610.16
-1730.42
-1579.99
-1363.13
-1648.95
-1007.56
-1933.54
-668.372
-2428.79
-347.639
-2824.23
-25.2317
-2752.85
292.683
-2448.75
606.358
-2198.03
913.172
-2038.47
1206.64
-1893.41
1481.51
-1752.55
1736.12
-1626.33
1970.58
-1515.16
2186.86
-1416.22
2387.88
-1329.53
2577.53
-1257.8
2761.87
-1209.73
2954.42
-1215.25
3186.75
-1349.28
3502.89
-1683.57
3923.19
-2164.37
4424.93
-2625.53
4961.23
-2920.68
5486.03
-2992.32
5965.08
-2854.84
6376.61
-2555.63
6708.77
-2149.38
6956.98
-1685.98
7122.52
-1206.64
7212.89
-749.836
7237.32
-340.278
7201.48
18.9394
7113.41
316.304
6983.12
547.853
6821.57
718.776
6637.17
843.425
6431.26
946.193
6196.3
1058.72
5920.32
1207
5587.14
1421.51
5199.5
1699.73
4738.84
2006.47
4077.69
2600.16
3271.88
3454.41
2610.21
3822.29
2010.03
3674.56
1046.79
4089.08
104.161
4471.56
-437.542
4216.05
397.438
1134.93
1434.29
-2041.05
2192.23
-3454.81
2884.36
-4269.93
3567.35
-4836.24
4263.5
-5303.23
4993
-5727.06
5781.1
-6148.29
6665.83
-6603.46
7669.62
-7130.81
8845.92
-7865.45
10148.6
-8718
11663.6
-9991.12
-12129.3
-2871.08
1172.89
-3051.76
1220.16
-3238.58
1249.07
-3431.87
1296.85
-3630.82
1339.95
-3834.8
1384.74
-4043.35
1430.59
-4257.32
1485.82
-4479.42
1561.33
-4714.57
1670.58
-4969.57
1825.37
-5252.73
2034.61
-5573.6
2304.9
-5943
2642.32
-6372.89
3051.58
-6874.77
3526.78
-7452.66
4019.47
-8083.3
4372.44
-8677.94
4221.73
-9050.52
2980.61
-9034.51
604.845
-8756.16
-1423.37
-8343.11
-2709.12
-7823.61
-3637.45
-7222.85
-4287.01
-6569.48
-4693.35
-5908.02
-4756.63
-5282.5
-4484.09
-4728.86
-3962.73
-4265.93
-3318.15
-3889.13
-2709.6
-3568.2
-2287.49
-3265.71
-2083.16
-2958.66
-2016.13
-2638.2
-2000.71
-2301.64
-1987.58
-1947.3
-1964.49
-1578.31
-1948.97
-1209.63
-2017.61
-853.374
-2289.78
-514.745
-2767.41
-206.022
-3132.94
91.6925
-3050.55
390.817
-2747.86
689.371
-2496.57
978.658
-2327.75
1255.42
-2170.15
1516.69
-2013.81
1760.09
-1869.72
1985.08
-1740.14
2193.1
-1624.23
2386.91
-1523.34
2570.48
-1441.35
2750.03
-1389.28
2940.18
-1405.38
3176.19
-1585.28
3505.82
-2013.19
3946.13
-2604.68
4466.58
-3145.98
5015.11
-3469.21
5544.8
-3522
6022.77
-3332.81
6429.02
-2961.89
6753.15
-2473.51
6991.43
-1924.26
7146.15
-1361.35
7225.73
-829.412
7239.1
-353.652
7190.25
67.79
7086.6
419.96
6938.49
695.964
6757.76
899.505
6551.93
1049.25
6318.74
1179.39
6045.88
1331.58
5719.34
1533.54
5325.41
1815.45
4875.13
2150.01
4326.12
2555.49
3568.96
3357.33
2784.37
4239
2152.45
4454.21
1406.09
4420.92
331.734
5163.44
-404.242
5207.54
-427.707
4239.52
687.38
19.8498
1588.47
-2942.14
2337.66
-4204
3045.49
-4977.76
3754.19
-5544.93
4480.71
-6029.76
5240.42
-6486.77
6051.69
-6959.56
6941.83
-7493.6
7926.63
-8115.61
9027.44
-8966.25
10223.2
-9913.78
11475.3
-11243.2
-13514
-2836.74
1348.76
-3017.48
1400.91
-3204.03
1435.63
-3397.04
1489.86
-3595.58
1538.51
-3798.88
1588.05
-4006.32
1638.04
-4218.5
1698.02
-4437.87
1780.71
-4668.99
1901.71
-4918.31
2074.7
-5193.82
2310.13
-5504.78
2615.88
-5861.89
2999.43
-6277.16
3466.86
-6762.45
4012.08
-7322.31
4579.33
-7932.98
4983.11
-8501.61
4790.36
-8835.51
3314.52
-8773.94
543.278
-8473.09
-1724.21
-8052.42
-3129.8
-7530.04
-4159.82
-6931.84
-4885.2
-6287.44
-5337.75
-5640.56
-5403.51
-5032.7
-5091.94
-4497.35
-4498.09
-4050.29
-3765.21
-3685.52
-3074.37
-3372.59
-2600.42
-3074.41
-2381.34
-2769.76
-2320.77
-2452.28
-2318.18
-2121.14
-2318.71
-1774.8
-2310.83
-1414.36
-2309.4
-1054.42
-2377.53
-702.053
-2642.13
-364.325
-3105.13
-67.2309
-3430.02
209.697
-3327.47
493.366
-3031.52
779.436
-2782.63
1054.77
-2603.07
1317.22
-2432.58
1565.54
-2262.12
1797.7
-2101.86
2013.01
-1955.43
2212.57
-1823.78
2398.95
-1709.71
2575.95
-1618.34
2749.65
-1562.98
2935.57
-1591.3
3173.32
-1823.03
3514.98
-2354.84
3974.06
-3063.75
4512.01
-3683.92
5071.97
-4029.18
5606.53
-4056.56
6084.12
-3810.4
6486.23
-3364
6803.55
-2790.83
7033.07
-2153.78
7177.98
-1506.26
7247.53
-898.964
7249.95
-356.067
7187.61
130.127
7067.66
539.916
6901.02
862.6
6699.71
1100.82
6468.62
1280.34
6200.27
1447.74
5878.32
1653.53
5489.81
1922.05
5027.48
2277.77
4509.33
2668.16
3874.42
3190.39
3074.17
4157.58
2347.74
4965.42
1676.57
5125.38
814.147
5283.34
-193.053
6170.63
-737.772
5752.25
-420.948
3922.7
823.908
-1225.01
1714.75
-3832.98
2470.63
-4959.87
3186.82
-5693.94
3905.81
-6263.92
4648.16
-6772.11
5430.31
-7268.91
6268.57
-7797.83
7180.01
-8405.05
8174.81
-9110.41
9243.11
-10034.5
10389.4
-11060.1
11500.6
-12354.4
-14656
-2796.48
1520.84
-2976.66
1581.09
-3162.05
1621.02
-3354.04
1681.86
-3551.54
1736.02
-3753.73
1790.25
-3959.81
1844.13
-4170.13
1908.34
-4386.7
1997.29
-4613.66
2128.67
-4856.99
2318.04
-5124.26
2577.4
-5424.39
2916.02
-5767.78
3342.82
-6166.29
3865.37
-6631.89
4477.68
-7169.64
5117.09
-7756.19
5569.67
-8297.44
5331.61
-8597.84
3614.93
-8501.31
446.746
-8186.01
-2039.5
-7757.13
-3558.68
-7228.07
-4688.87
-6629.24
-5484.03
-5992.59
-5974.39
-5361.61
-6034.48
-4775.48
-5678.07
-4265.25
-5008.32
-3842.56
-4187.89
-3497.23
-3419.68
-3195.62
-2902.02
-2900.06
-2676.89
-2592.58
-2628.25
-2271.49
-2639.26
-1939.94
-2650.26
-1598.32
-2652.44
-1246.79
-2660.92
-893.037
-2731.28
-541.116
-2994.05
-213.123
-3433.11
64.3276
-3707.47
325.662
-3588.8
599.441
-3305.29
875.456
-3058.64
1139.15
-2866.75
1389.2
-2682.61
1625.52
-2498.43
1846.75
-2323.09
2052.36
-2161.03
2243.3
-2014.71
2421.97
-1888.36
2591.87
-1788.23
2758.78
-1729.88
2939.33
-1771.84
3178.23
-2061.93
3531.97
-2708.58
4009.45
-3541.22
4563.95
-4238.42
5134.56
-4599.78
5673.8
-4595.8
6151.41
-4288
6550.11
-3762.7
6861.39
-3102.11
7082.72
-2375.11
7218.22
-1641.77
7277.91
-958.651
7268.81
-346.968
7192.15
206.793
7055.07
676.991
6868.93
1048.74
6644.52
1325.23
6381.99
1542.87
6067.96
1761.77
5684.65
2036.84
5224.51
2382.2
4690.52
2811.76
4105.87
3252.81
3405.61
3890.65
2621.74
4941.45
1952.57
5634.6
1215.57
5862.38
336.63
6162.28
-529.758
7037.02
-1284.53
6507.03
-547.501
3185.67
916.969
-2689.47
1834.15
-4750.16
2602.66
-5728.39
3326.64
-6417.92
4049.97
-6987.26
4796.79
-7518.93
5585.39
-8057.52
6432.24
-8644.67
7347.84
-9320.65
8340.12
-10102.7
9383.09
-11077.5
10491.6
-12168.6
11548.2
-13410.9
-15673.1
-2750.86
1687.73
-2930.22
1760.46
-3113.68
1804.49
-3304.1
1872.29
-3500.11
1932.04
-3700.92
1991.06
-3905.57
2048.79
-4114.09
2116.86
-4328
2211.22
-4550.86
2351.54
-4788.1
2555.28
-5046.78
2836.09
-5335.41
3204.65
-5663.97
3671.39
-6043.97
4245.38
-6487.27
4920.99
-6999.59
5629.41
-7559.36
6129.45
-8074.64
5846.89
-8350.07
3890.37
-8229.22
325.904
-7903.55
-2365.17
-7462.88
-3999.34
-6922.86
-5228.89
-6320.5
-6086.38
-5690.65
-6604.23
-5076.16
-6648.97
-4513.15
-6241.07
-4030.2
-5491.26
-3635.76
-4582.33
-3316
-3739.44
-3032.19
-3185.83
-2743.26
-2965.81
-2433.34
-2938.16
-2106.04
-2966.55
-1769.84
-2986.45
-1428.85
-2993.42
-1083.8
-3005.96
-733.092
-3081.97
-380.683
-3346.44
-66.0674
-3747.72
191.979
-3965.5
442.976
-3839.78
710.004
-3572.31
977.191
-3325.81
1230.66
-3120.21
1469.65
-2921.58
1694.78
-2723.55
1905.41
-2533.71
2101.33
-2356.94
2283.54
-2196.91
2454.33
-2059.14
2616.9
-1950.79
2776.76
-1889.73
2952.08
-1947.15
3193.06
-2302.9
3559.66
-3075.17
4054.99
-4036.56
4624.69
-4808.11
5204.92
-5180.01
5748.61
-5139.49
6226.58
-4765.97
6622.43
-4158.54
6928.12
-3407.81
7141.46
-2588.45
7267.51
-1767.82
7317.02
-1008.16
7295.17
-325.112
7202.98
298.985
7047.77
832.198
6840.45
1256.06
6588.52
1577.16
6285.65
1845.74
5913.68
2133.74
5458.06
2492.46
4921.32
2918.94
4319.4
3413.69
3678.51
3893.69
2947.88
4621.28
2227.6
5661.73
1600.52
6261.68
833.223
6629.68
31.6492
6963.85
-657.387
7726.06
-1392.28
7241.93
-266.545
2059.93
1028.55
-3984.57
1944.9
-5666.5
2727.76
-6511.25
3461.78
-7151.93
4189.88
-7715.37
4938.18
-8267.23
5725.43
-8844.76
6567.36
-9486.6
7469.72
-10223
8438.39
-11071.4
9442.61
-12081.7
10495.3
-13221.3
11504.5
-14420.1
-16613.9
-2703.4
1865.76
-2878.48
1935.55
-3059.94
1985.95
-3248.25
2060.61
-3442.41
2126.21
-3641.62
2190.29
-3844.81
2251.99
-4051.64
2323.69
-4263.09
2422.67
-4482.01
2570.46
-4713.18
2786.46
-4963.11
3086.03
-5239.79
3481.34
-5552.69
3984.3
-5912.8
4605.5
-6331.74
5339.93
-6816.08
6113.75
-7347.54
6660.91
-7839.69
6339.04
-8098.9
4149.58
-7961.19
188.2
-7625.25
-2701.1
-7168.48
-4456.11
-6614.78
-5782.59
-6008.13
-6693.03
-5386.16
-7226.19
-4790.53
-7244.61
-4252.67
-6778.92
-3797.21
-5946.72
-3429.76
-4949.77
-3135.67
-4033.53
-2872.7
-3448.8
-2594.82
-3243.68
-2286
-3246.97
-1953.96
-3298.58
-1612.44
-3327.97
-1269.95
-3335.9
-929.558
-3346.34
-581.191
-3430.33
-230.919
-3696.71
71.0619
-4049.69
318.186
-4212.62
564.597
-4086.19
825.665
-3833.37
1084.49
-3584.63
1328.61
-3364.32
1557.36
-3150.32
1771.84
-2938.03
1972.08
-2733.94
2158.32
-2543.17
2331.77
-2370.35
2494.75
-2222.11
2650.26
-2106.28
2803.76
-2043.23
2975.31
-2118.69
3220.15
-2547.74
3600.1
-3455.11
4111.96
-4548.41
4695.11
-5391.26
5284.02
-5768.92
5832.17
-5687.64
6311.04
-5244.84
6704.66
-4552.16
7005.17
-3708.32
7210.5
-2793.78
7326.7
-1884.02
7365.2
-1046.66
7328.92
-288.832
7219.77
408.137
7044.92
1007.05
6813.42
1487.56
6527.12
1863.46
6172.69
2200.18
5730.81
2575.62
5196.3
3026.97
4585.43
3529.81
3927.84
4071.27
3249.37
4572.16
2529.32
5341.33
1896.41
6294.65
1302.33
6855.76
572.761
7359.25
-93.048
7629.66
-575.154
8208.16
-1136.32
7803.09
41.8201
881.791
1133.38
-5076.13
2045.62
-6578.75
2842.1
-7307.73
3585.54
-7895.37
4317.9
-8447.72
5066.26
-9015.59
5848.63
-9627.13
6678.71
-10316.7
7558.2
-11102.5
8490.17
-12003.3
9444.66
-13036.2
10429.6
-14206.2
11377.2
-15367.8
-17490.8
-2651.02
2037.91
-2822.58
2107.11
-3001.6
2164.98
-3187.33
2246.35
-3379.3
2318.18
-3576.69
2387.68
-3778.34
2453.65
-3983.56
2528.92
-4192.71
2631.82
-4407.88
2785.65
-4633.12
3011.71
-4874.28
3327.2
-5138.78
3745.84
-5435.49
4281.01
-5774.72
4944.74
-6167.73
5732.94
-6622.17
6568.2
-7124.43
7163.17
-7596.31
6810.93
-7845.82
4399.09
-7694.08
36.4678
-7345.18
-3049.99
-6868.64
-4932.64
-6300.5
-6350.72
-5690.79
-7302.74
-5079.6
-7837.38
-4507.06
-7817.14
-3998.55
-7287.42
-3572.37
-6372.9
-3229.85
-5292.3
-2957.53
-4305.84
-2713.49
-3692.84
-2447.91
-3509.25
-2143.21
-3551.67
-1809.44
-3632.34
-1464.38
-3673.02
-1120.37
-3679.91
-779.573
-3687.12
-429.513
-3780.38
-87.1283
-4039.08
200.266
-4337.07
443.65
-4455.99
690.065
-4332.59
946.136
-4089.44
1197
-3835.49
1432.24
-3599.55
1651.27
-3369.32
1855.44
-3142.19
2045.41
-2923.9
2221.98
-2719.73
2386.74
-2535.1
2542.21
-2377.57
2691.39
-2255.45
2840.05
-2191.88
3010.12
-2288.75
3260.65
-2798.26
3653.57
-3848.02
4179.93
-5074.76
4774.84
-5986.17
5372.03
-6366.1
5925.19
-6240.8
6405.88
-5725.53
6798.09
-4944.36
7093.85
-4004.07
7291.05
-2990.98
7396.8
-1989.76
7423.04
-1072.89
7370.46
-236.255
7242.48
536.12
7045.62
1203.9
6785.09
1748.09
6455.09
2193.46
6037.01
2618.26
5516.54
3096.09
4903.85
3639.67
4230.29
4203.37
3537.25
4764.32
2845.53
5263.88
2173.33
6013.53
1628.62
6839.37
1071.12
7413.27
436.042
7994.32
-101.541
8167.24
-446.002
8552.62
-907.447
8264.54
204.423
-230.079
1228.2
-6099.91
2139.91
-7490.46
2946.44
-8114.26
3695.69
-8644.62
4429.23
-9181.26
5174.6
-9760.96
5948.56
-10401.1
6762.43
-11130.6
7615.04
-11955.1
8507.15
-12895.4
9411.88
-13941
10333.8
-15128.2
11221
-16255
-18314
-2594.62
2202.99
-2763.32
2275.82
-2939.3
2340.96
-3122.08
2429.14
-3311.48
2507.59
-3506.75
2582.96
-3706.7
2653.6
-3910.3
2732.52
-4117.27
2838.81
-4328.91
2997.3
-4548.42
3231.22
-4780.94
3559.72
-5033.22
3998.13
-5313.45
4561.25
-5631.18
5262.47
-5997.16
6098.93
-6420.3
6991.34
-6892.64
7635.51
-7346.07
7264.37
-7588.99
4642.01
-7421.94
-130.582
-7056.34
-3415.58
-6557.85
-5431.13
-5976.15
-6932.41
-5365.82
-7913.07
-4769.21
-8433.98
-4224.6
-8361.75
-3750.59
-7761.43
-3357.5
-6765.98
-3039.89
-5609.9
-2785.36
-4560.36
-2555.65
-3922.54
-2300.45
-3764.44
-2000.92
-3851.19
-1668.04
-3965.22
-1321.99
-4019.06
-977.661
-4024.23
-633.467
-4031.31
-281.156
-4132.68
50.5281
-4370.76
327.753
-4614.29
572.342
-4700.58
819.214
-4579.46
1070.52
-4340.74
1313.85
-4078.81
1540.65
-3826.35
1750.36
-3579.03
1944.51
-3336.33
2124.32
-3103.7
2291.23
-2886.63
2447.4
-2691.27
2595.79
-2525.96
2739.68
-2399.33
2885.44
-2337.63
3056.56
-2459.87
3314.07
-3055.76
3718.73
-4252.68
4257.41
-5613.44
4863.04
-6591.81
5468.93
-6971.99
6028.35
-6800.22
6512.21
-6209.39
6904.04
-5336.19
7195.52
-4295.55
7384.44
-3179.9
7479.01
-2084.34
7491.54
-1085.41
7420.46
-165.18
7271.15
685.434
7048.73
1426.32
6752.12
2044.71
6367.4
2578.18
5875.22
3110.44
5273.82
3697.49
4592.65
4320.84
3876.46
4919.55
3173.25
5467.53
2494.85
5942.28
1896.41
6611.97
1429.02
7306.76
921.839
7920.44
410.302
8505.86
-38.483
8616.03
-307.866
8822.01
-591.683
8548.36
347.676
-1169.44
1323.62
-7075.85
2232.83
-8399.67
3043.52
-8924.94
3793.68
-9394.79
4524.16
-9911.74
5262.37
-10499.2
6023.89
-11162.6
6818.03
-11924.7
7642.11
-12779.2
8495.77
-13749.1
9355.91
-14801.1
10225.8
-15998.1
11063.2
-17092.4
-19096.4
-2535.3
2360.33
-2701.21
2441.74
-2873.63
2513.38
-3053.1
2608.61
-3239.55
2694.05
-3432.36
2775.78
-3630.33
2851.59
-3832.18
2934.37
-4037.02
3043.66
-4245.31
3205.59
-4459.35
3445.27
-4683.46
3783.83
-4923.66
4238.34
-5187.38
4824.98
-5483.3
5558.4
-5821.58
6437.21
-6212.36
7382.13
-6653.9
8077.06
-7089.03
7699.49
-7324.99
4877.98
-7138.9
-316.657
-6753.67
-3800.8
-6233.02
-5951.78
-5640.1
-7525.33
-5032.42
-8520.74
-4454.61
-9011.79
-3942.35
-8874.01
-3507.18
-8196.6
-3151.17
-7121.99
-2860.26
-5900.81
-2621.19
-4799.42
-2401.02
-4142.7
-2152.71
-4012.75
-1857.82
-4146.08
-1527.51
-4295.52
-1182.77
-4363.79
-839.827
-4367.16
-493.712
-4377.42
-142.205
-4484.18
179.786
-4692.74
453.924
-4888.42
703.414
-4950.06
950.862
-4826.9
1197.59
-4587.46
1433.91
-4315.11
1652.8
-4045.23
1853.69
-3779.91
2038.17
-3520.8
2207.96
-3273.48
2365.23
-3043.89
2512.9
-2838.93
2654.61
-2667.66
2794.25
-2538.95
2939.08
-2482.45
3113.51
-2634.3
3378.57
-3320.81
3793.32
-4667.42
4342.66
-6162.78
4959.05
-7208.19
5575.1
-7588.04
6142.73
-7367.85
6631.48
-6698.14
7024.1
-5728.8
7311.77
-4583.22
7492.19
-3360.32
7574.77
-2166.91
7571.72
-1082.36
7479.56
-73.0253
7305.83
859.169
7052.73
1679.42
6711
2386.44
6260.52
3028.66
5688.3
3682.66
5012.13
4373.66
4280.93
5052.05
3548.11
5652.37
2860.87
6154.77
2221.23
6581.92
1707.34
7125.86
1307.06
7707.05
866.069
8361.43
475.65
8896.28
95.0722
8996.61
-96.0179
9013.1
-142.602
8594.94
515.675
-1827.71
1426.7
-7986.87
2326.75
-9299.72
3135.59
-9733.78
3882
-10141.2
4605.35
-10635.1
5332.45
-11226.3
6077.88
-11908
6849.46
-12696.3
7644.18
-13573.9
8461.47
-14566.4
9282.05
-15621.7
10109.2
-16825.2
10907.2
-17890.5
-19850
-2473.45
2509.56
-2636.77
2605.06
-2805.14
2681.75
-2980.97
2784.45
-3164.06
2877.15
-3353.98
2965.7
-3549.62
3047.24
-3749.47
3134.23
-3952.13
3246.32
-4157.21
3410.68
-4366.06
3654.12
-4582.1
3999.87
-4810.52
4466.77
-5057.91
5072.37
-5332
5832.49
-5642.23
6747.44
-5999.86
7739.76
-6409.37
8486.58
-6824.67
8114.79
-7050.74
5104.05
-6841.08
-526.318
-6434.66
-4207.21
-5893.64
-6492.8
-5293.53
-8125.44
-4692.81
-9121.46
-4138.3
-9566.29
-3662.01
-9350.3
-3268.28
-8590.32
-2951.87
-7438.4
-2689.56
-6163.11
-2464.92
-5024.06
-2250.35
-4357.27
-2005.29
-4257.8
-1713.81
-4437.55
-1387.04
-4622.29
-1045.36
-4705.47
-702.484
-4710.03
-353.862
-4726.03
-6.46999
-4831.57
307.814
-5007.02
582.448
-5163.05
836.039
-5203.65
1083.51
-5074.36
1325.98
-4829.93
1555.96
-4545.09
1767.65
-4256.91
1960.38
-3972.63
2135.67
-3696.08
2295.66
-3433.47
2443.31
-3191.54
2582.47
-2978.08
2717.72
-2802.9
2853.91
-2675.13
2999.46
-2628
3178.95
-2813.78
3451.56
-3593.43
3874.9
-5090.76
4434.34
-6722.21
5062.89
-7836.74
5691.69
-8216.84
6270.14
-7946.3
6765.82
-7193.82
7160.45
-6123.43
7444.68
-4867.46
7616.22
-3531.85
7685.62
-2236.32
7664.54
-1061.28
7548.26
43.2511
7346.19
1061.25
7055.67
1969.94
6658.72
2783.39
6133.81
3553.57
5482.62
4333.86
4746.61
5109.66
3990.05
5808.61
3268.23
6374.19
2619.87
6803.14
2039.99
7161.8
1607.87
7557.98
1269.37
8045.55
902.839
8727.97
605.713
9193.4
301.9
9300.42
196.551
9118.45
336.539
8454.96
708.763
-2199.94
1537.65
-8815.76
2422.04
-10184.1
3224.3
-10536
3962.97
-10879.9
4675.67
-11347.8
5388.5
-11939.1
6115.18
-12634.7
6862.55
-13443.6
7627.98
-14339.3
8411.24
-15349.6
9196.75
-16407.2
9988.13
-17616.6
10754.8
-18657.2
-20583.8
-2412.39
2671.61
-2570.03
2762.7
-2734.37
2846.1
-2906.2
2956.29
-3085.51
3056.47
-3272.09
3152.29
-3464.95
3240.1
-3662.46
3331.75
-3862.78
3446.65
-4064.72
3612.64
-4268.67
3858.07
-4477.03
4208.24
-4694.1
4683.85
-4925.54
5303.81
-5178.03
6084.99
-5460.17
7029.59
-5784.03
8063.63
-6159.92
8862.48
-6552.48
8507.35
-6763.75
5315.33
-6525.83
-764.226
-6098.4
-4634.64
-5540.99
-7050.2
-4939.57
-8726.85
-4351.37
-9709.66
-3825.03
-10092.6
-3387.36
-9787.96
-3035.78
-8941.9
-2759.39
-7714.79
-2526.41
-6396.09
-2315.38
-5235.08
-2103.36
-4569.29
-1858.56
-4502.59
-1569.24
-4726.86
-1246.54
-4944.98
-909.2
-5042.81
-566.362
-5052.86
-216.935
-5075.45
123.71
-5172.2
433.437
-5316.74
711.564
-5441.17
968.576
-5460.65
1215.67
-5321.45
1454.34
-5068.58
1678.83
-4769.57
1884.23
-4462.31
2069.65
-4158.04
2236.38
-3862.8
2386.88
-3583.96
2524.91
-3329.55
2655.41
-3108.57
2784.16
-2931.64
2917.3
-2808.26
3064.68
-2775.37
3250.31
-2999.4
3530.18
-3873.29
3961.32
-5521.89
4531.84
-7292.73
5175.6
-8480.49
5820.86
-8862.11
6413.33
-8538.76
6918.15
-7698.64
7315.98
-6521.25
7596.93
-5148.41
7758.93
-3693.85
7813.65
-2291.03
7771.55
-1019.18
7627.38
187.424
7391.71
1296.91
7055.51
2306.13
6593.71
3245.19
5990.43
4156.85
5269.39
5054.89
4495.35
5883.71
3740.34
6563.62
3054.22
7060.32
2461.74
7395.62
1955.14
7668.39
1594.87
7918.25
1314.49
8325.93
1020.42
9022.03
787.602
9426.23
587.36
9500.66
560.385
9145.42
764.517
8250.82
912.767
-2348.18
1657.28
-9560.27
2519.69
-11046.5
3311.01
-11327.4
4038.41
-11607.3
4737.54
-12046.9
5433.7
-12635.3
6139.97
-13341
6862.55
-14166.2
7599.68
-15076.5
8351.69
-16101.7
9106.3
-17161.8
9867.55
-18377.8
10608.7
-19398.3
-21304.6
-2349.25
2825.85
-2501.59
2915.04
-2661.8
3006.31
-2829.28
3123.78
-3004.42
3231.61
-3187.19
3335.07
-3376.75
3429.67
-3571.48
3526.49
-3769.18
3644.35
-3967.98
3811.44
-4167.26
4057.36
-4368.39
4409.38
-4574.63
4890.09
-4790.62
5519.81
-5021.96
6316.33
-5276.21
7283.84
-5565.87
8353.3
-5906.3
9202.91
-6272.02
8873.08
-6461.94
5505.24
-6191.72
-1034.43
-5745.36
-5081
-5177.44
-7618.12
-4582.08
-9322.21
-4013.19
-10278.5
-3520.23
-10585.6
-3122.8
-10185.4
-2812.38
-9252.31
-2574.58
-7952.59
-2369.95
-6600.7
-2171.24
-5433.79
-1959.37
-4781.16
-1712.63
-4749.32
-1424.54
-5014.94
-1106.2
-5263.32
-774.154
-5374.84
-433.07
-5393.94
-84.2625
-5424.25
251.514
-5507.98
559.097
-5624.32
840.114
-5722.18
1099.54
-5720.07
1346.07
-5567.98
1581.52
-5304.03
1801.49
-4989.54
2001.68
-4662.5
2180.81
-4337.16
2339.76
-4021.74
2481.16
-3725.35
2609.54
-3457.94
2731.09
-3230.11
2852.97
-3053.52
2982.98
-2938.26
3132.65
-2925.03
3324.89
-3191.63
3611.66
-4160.06
4050.97
-5961.19
4635.48
-7877.25
5299.18
-9144.19
5965.64
-9528.57
6575.73
-9148.84
7091.97
-8214.88
7494.08
-6923.36
7771.75
-5426.09
7923.31
-3845.4
7961.74
-2329.47
7894.99
-952.435
7717.96
364.452
7441.76
1573.12
7050.69
2697.21
6516.59
3779.28
5837.33
4836.12
5062.84
5829.38
4275.87
6670.67
3547.28
7292.21
2915.21
7692.38
2388.71
7922.12
1960.09
8097.02
1661.52
8216.82
1434.22
8553.22
1206.42
9249.84
1025.6
9607.04
937.019
9589.25
973.994
9108.45
1152.48
8072.34
1131.35
-2327.05
1787.08
-10216
2620.59
-11880
3396.74
-12103.5
4109.69
-12320.2
4792.72
-12729.9
5470.33
-13312.9
6155.13
-14025.8
6852.98
-14864.1
7563.2
-15786.7
8286.65
-16825.1
9013.94
-17889.1
9749.4
-19113.3
10469.2
-20118.1
-22016.9
-2284.15
2970.95
-2432.01
3062.91
-2587.81
3162.12
-2750.66
3286.64
-2921.27
3402.23
-3099.75
3513.56
-3285.49
3615.42
-3476.92
3717.92
-3671.62
3839.06
-3867.13
4006.96
-4061.92
4252.16
-4256.24
4603.71
-4452.24
5086.09
-4653.44
5721.03
-4864.24
6527.13
-5091.03
7510.64
-5346.26
8608.53
-5649.26
9505.91
-5983.28
9207.1
-6144.3
5666.27
-5839.22
-1339.51
-5377.56
-5542.65
-4806.15
-8189.54
-4224.76
-9903.59
-3682.63
-10820.7
-3228.49
-11039.7
-2872.01
-10541.9
-2600.55
-9523.77
-2398.55
-8154.59
-2219.66
-6779.58
-2031.23
-5622.22
-1817.65
-4994.73
-1567.58
-4999.38
-1280.13
-5302.39
-966.293
-5577.15
-638.507
-5702.62
-299.098
-5733.34
45.7161
-5769.06
376.386
-5838.64
683.555
-5931.48