/*--------------------------------*- C++ -*----------------------------------*\
| =========                 |                                                 |
| \\      /  F ield         | OpenFOAM: The Open Source CFD Toolbox           |
|  \\    /   O peration     | Version:  4.1                                   |
|   \\  /    A nd           | Web:      www.OpenFOAM.org                      |
|    \\/     M anipulation  |                                                 |
\*---------------------------------------------------------------------------*/
FoamFile
{
    version     2.0;
    format      ascii;
    class       volVectorField;
    location    "1100";
    object      U;
}
// * * * * * * * * * * * * * * * * * * * * * * * * * * * * * * * * * * * * * //

dimensions      [0 1 -1 0 0 0 0];

internalField   nonuniform List<vector> 
26785
(
(-2.4661e-14 0.0141276 -23.4075)
(-2.05196e-14 0.0176136 -23.7705)
(-1.96211e-14 0.017468 -24.1687)
(-1.07818e-14 0.0192065 -24.5587)
(-1.51274e-14 0.020777 -24.9737)
(-1.46317e-15 0.0227438 -25.4056)
(-9.85208e-15 0.0249483 -25.8615)
(-8.84696e-15 0.0276853 -26.3448)
(-1.77404e-14 0.0312418 -26.867)
(4.12569e-15 0.0359741 -27.4448)
(-2.70714e-15 0.0421161 -28.1005)
(-1.62218e-15 0.0497594 -28.8586)
(-8.80665e-16 0.0588986 -29.7429)
(-1.35234e-15 0.0695488 -30.7761)
(-2.83083e-15 0.0817543 -31.9814)
(-5.35639e-15 0.0952412 -33.3814)
(-9.10684e-15 0.108217 -34.9873)
(-1.4622e-14 0.115182 -36.7713)
(-2.36105e-14 0.10356 -38.5806)
(-2.8054e-14 0.051411 -39.9438)
(-3.8209e-14 -0.0468048 -40.1479)
(-4.23387e-14 -0.143887 -38.9421)
(-4.24126e-14 -0.213209 -36.7078)
(-5.18277e-14 -0.25971 -33.822)
(-4.67239e-14 -0.282403 -30.5511)
(-4.99708e-14 -0.288435 -27.1305)
(-4.93421e-14 -0.274808 -23.7586)
(-5.31155e-14 -0.244077 -20.6544)
(-4.91953e-14 -0.204587 -17.9737)
(-5.91776e-14 -0.163299 -15.7685)
(-4.81124e-14 -0.127147 -14.0119)
(-4.44884e-14 -0.100949 -12.597)
(-5.02039e-14 -0.0851764 -11.3991)
(-7.99607e-14 -0.0792028 -10.341)
(-4.12237e-14 -0.0821671 -9.38465)
(-3.1344e-14 -0.0906154 -8.51383)
(-3.04894e-14 -0.101171 -7.71998)
(-2.72622e-14 -0.118092 -6.96653)
(-2.6462e-14 -0.164092 -6.11892)
(-5.59065e-15 -0.29794 -5.16864)
(-4.13826e-14 -0.555041 -3.85446)
(3.46644e-14 -0.835687 -1.35688)
(6.6754e-15 -0.453898 1.53872)
(-6.10806e-14 0.00146391 2.62518)
(-8.79183e-14 0.0841077 2.83737)
(-7.7063e-14 -0.0187407 3.63895)
(-1.05146e-13 -0.0662868 4.59122)
(-9.90855e-14 -0.0680725 5.39544)
(-9.99746e-14 -0.0634655 6.07518)
(-1.1114e-13 -0.0612632 6.66774)
(-1.07203e-13 -0.0610289 7.19953)
(-6.64392e-14 -0.0611065 7.689)
(-5.57999e-14 -0.0607735 8.1467)
(-4.71945e-14 -0.060186 8.57962)
(-3.90424e-14 -0.0603411 8.99667)
(-2.61096e-14 -0.0635851 9.41784)
(-2.79938e-14 -0.0726823 9.88354)
(-4.45349e-14 -0.0878353 10.4464)
(-4.06195e-14 -0.105648 11.1429)
(-4.62755e-14 -0.121069 11.9699)
(-5.68147e-14 -0.129706 12.8832)
(-5.22653e-14 -0.12917 13.8143)
(-4.48839e-14 -0.119282 14.6915)
(-4.30995e-14 -0.10157 15.4541)
(-4.67364e-14 -0.0785352 16.0611)
(-4.02614e-14 -0.0527857 16.4919)
(-3.68222e-14 -0.0267226 16.7428)
(-3.50532e-14 -0.00255763 16.825)
(-3.43242e-14 0.0181607 16.7618)
(-3.10787e-14 0.0344161 16.5831)
(-3.38732e-14 0.0460393 16.3213)
(-4.15732e-14 0.0540011 16.0047)
(-3.85949e-14 0.0596236 15.6541)
(-3.66727e-14 0.0641682 15.2812)
(-3.89335e-14 0.068813 14.89)
(-3.47568e-14 0.0746932 14.477)
(-2.38103e-14 0.0821302 14.0331)
(-2.26927e-14 0.0931925 13.5449)
(-1.8255e-14 0.108171 12.9791)
(-1.58582e-14 0.122491 12.332)
(-7.85308e-15 0.137995 11.6245)
(-5.07076e-15 0.163456 10.7953)
(-2.9203e-14 0.199359 9.74698)
(-5.5173e-14 0.232564 8.46869)
(-1.05498e-13 0.232805 7.07143)
(-1.36164e-13 0.22882 5.68527)
(-1.25149e-13 0.188153 4.47764)
(-1.01074e-13 0.0480353 3.79713)
(-9.54592e-14 -0.0861808 4.0067)
(-8.967e-14 -0.180503 4.98952)
(-6.94165e-14 -0.239865 6.42973)
(-5.70104e-14 -0.273977 8.09515)
(-4.7988e-14 -0.294447 9.84661)
(-4.34164e-14 -0.312656 11.6363)
(-3.92352e-14 -0.331043 13.3951)
(-3.75497e-14 -0.360297 15.2633)
(-3.85769e-14 -0.390509 16.995)
(-3.96649e-14 -0.464951 19.3977)
(-4.11879e-14 -0.482917 20.7844)
(-4.3184e-14 -0.697879 25.2897)
(-2.98105e-14 0.0481768 -23.4053)
(-2.15178e-14 0.0540926 -23.7902)
(-1.18112e-14 0.0545851 -24.2166)
(-8.25685e-15 0.0594186 -24.6336)
(-1.72845e-14 0.0639201 -25.0744)
(-4.6475e-16 0.0694529 -25.5295)
(-1.52848e-14 0.0756826 -26.005)
(-7.26193e-15 0.0835994 -26.5039)
(5.31305e-15 0.0942825 -27.0389)
(-9.7332e-16 0.109075 -27.6293)
(-2.03007e-15 0.128992 -28.3026)
(-3.45488e-15 0.15461 -29.0898)
(-5.77479e-15 0.186183 -30.0233)
(-9.67877e-15 0.223979 -31.1358)
(-5.86374e-15 0.268263 -32.4607)
(-1.44625e-14 0.318101 -34.0314)
(-2.74256e-14 0.367362 -35.868)
(-3.18069e-14 0.397317 -37.9462)
(-3.76522e-14 0.365722 -40.1018)
(-4.44693e-14 0.201808 -41.8273)
(-3.43846e-14 -0.110653 -42.3323)
(-4.17624e-14 -0.418245 -41.2974)
(-3.10404e-14 -0.633829 -39.1691)
(-3.44971e-14 -0.78192 -36.3853)
(-3.52343e-14 -0.866184 -33.1667)
(-3.05419e-14 -0.903426 -29.7259)
(-3.33474e-14 -0.882464 -26.2527)
(-3.60303e-14 -0.807506 -22.9615)
(-4.37309e-14 -0.700337 -20.0269)
(-4.53945e-14 -0.583261 -17.5319)
(-5.67363e-14 -0.48025 -15.4768)
(-6.17174e-14 -0.407071 -13.7648)
(-7.05201e-14 -0.359079 -12.2567)
(-8.193e-14 -0.32161 -10.8628)
(-6.72888e-14 -0.285506 -9.56321)
(-7.94003e-14 -0.250033 -8.3807)
(-9.159e-14 -0.218843 -7.34014)
(-1.01973e-13 -0.194322 -6.40393)
(-1.13121e-13 -0.188867 -5.40129)
(-1.11624e-13 -0.321259 -4.17622)
(-7.9154e-14 -0.719753 -3.01329)
(-6.1256e-14 -1.08414 -2.34368)
(-1.12313e-13 -0.793569 -1.4596)
(-9.85891e-14 -0.345071 0.782592)
(-6.9577e-14 -0.188917 2.55128)
(-5.42861e-14 -0.239277 3.63153)
(-5.61951e-14 -0.260703 4.4534)
(-7.59128e-14 -0.238719 5.17481)
(-7.96061e-14 -0.214213 5.81653)
(-6.67115e-14 -0.197143 6.39292)
(-3.54001e-14 -0.184883 6.90747)
(-3.80793e-14 -0.175248 7.36918)
(-9.65765e-15 -0.167906 7.78894)
(-1.0733e-14 -0.163538 8.17786)
(-1.29989e-14 -0.164693 8.54988)
(1.28781e-14 -0.178169 8.93157)
(3.11176e-15 -0.21226 9.37386)
(-9.79119e-15 -0.26686 9.94196)
(5.2573e-15 -0.329617 10.6775)
(2.08388e-14 -0.382457 11.5675)
(2.07939e-14 -0.410375 12.5484)
(1.60641e-14 -0.406476 13.5346)
(6.28458e-15 -0.371945 14.4455)
(1.48742e-14 -0.313256 15.2205)
(2.39855e-14 -0.23917 15.8231)
(1.99188e-14 -0.158014 16.2385)
(1.55762e-14 -0.0771087 16.4682)
(1.62694e-14 -0.0029656 16.5281)
(7.62663e-15 0.0598288 16.4435)
(-1.22415e-14 0.108652 16.2463)
(-1.09776e-14 0.143297 15.9667)
(-1.92563e-14 0.16657 15.6319)
(-3.34072e-14 0.182249 15.2634)
(-3.93272e-14 0.194107 14.8746)
(-3.58777e-14 0.205955 14.4714)
(-3.25892e-14 0.221576 14.0514)
(-4.46835e-14 0.243013 13.6054)
(-3.86548e-14 0.279114 13.1124)
(-3.58098e-14 0.32576 12.5313)
(-4.27175e-14 0.365386 11.8839)
(-3.23946e-14 0.424198 11.1636)
(-3.51309e-14 0.531143 10.2105)
(-6.26506e-14 0.657982 8.96918)
(-6.32399e-14 0.761338 7.58945)
(-6.37414e-14 0.806497 6.26933)
(-8.47383e-14 0.730524 5.02514)
(-1.05917e-13 0.511927 3.82559)
(-1.00039e-13 0.138216 2.9732)
(-4.40031e-14 -0.338771 3.31996)
(-2.236e-14 -0.732728 4.56277)
(-2.30015e-14 -0.959146 6.23524)
(-1.90657e-14 -1.06622 8.11838)
(-1.36791e-14 -1.10662 10.1075)
(-2.36993e-14 -1.11846 12.1492)
(-3.06908e-14 -1.12233 14.1547)
(-2.72026e-14 -1.15556 16.2355)
(-2.8775e-14 -1.21173 18.1476)
(-2.87437e-14 -1.38112 20.6735)
(-2.6652e-14 -1.46244 22.1646)
(-1.99921e-14 -2.02312 26.8185)
(-6.48064e-15 0.0842132 -23.3782)
(-9.41998e-15 0.0936618 -23.7972)
(-1.83182e-15 0.0946445 -24.2604)
(-4.30585e-15 0.102528 -24.7142)
(-1.12003e-14 0.109729 -25.19)
(2.12871e-15 0.118443 -25.6765)
(-1.343e-14 0.128205 -26.1784)
(-5.26339e-15 0.140789 -26.698)
(-3.58978e-15 0.158238 -27.2484)
(-3.28428e-15 0.183098 -27.8515)
(-4.04048e-15 0.217417 -28.5384)
(-5.65483e-15 0.262505 -29.3458)
(-8.05666e-15 0.319091 -30.3123)
(-1.0712e-14 0.387851 -31.4771)
(-1.48017e-14 0.469334 -32.8791)
(-1.43826e-14 0.561834 -34.5547)
(-3.26831e-14 0.654398 -36.5215)
(-2.75017e-14 0.713707 -38.743)
(-3.88642e-14 0.665037 -41.0297)
(-3.03381e-14 0.385916 -42.8344)
(-2.92193e-14 -0.149657 -43.3321)
(-3.56204e-14 -0.673221 -42.2588)
(-2.61668e-14 -1.03411 -40.1598)
(-2.15849e-14 -1.28365 -37.4313)
(-2.61342e-14 -1.43408 -34.2642)
(-2.04966e-14 -1.51009 -30.8616)
(-1.35632e-14 -1.49208 -27.4017)
(-1.34923e-14 -1.38443 -24.0885)
(-1.2081e-14 -1.21837 -21.0934)
(-1.07383e-14 -1.0287 -18.5064)
(-1.26253e-14 -0.856654 -16.3456)
(-3.70153e-14 -0.73499 -14.5347)
(-2.90707e-14 -0.663588 -12.938)
(-3.12566e-14 -0.619097 -11.4447)
(-4.14514e-14 -0.579408 -10.0001)
(-5.40964e-14 -0.534092 -8.60269)
(-7.03249e-14 -0.49028 -7.28681)
(-7.85974e-14 -0.47414 -6.0845)
(-1.10419e-13 -0.510183 -4.93842)
(-1.40099e-13 -0.653491 -3.73058)
(-1.026e-13 -0.978373 -2.46815)
(-6.94289e-14 -1.33369 -1.37416)
(-1.41185e-13 -1.21095 -0.502319)
(-1.80219e-13 -0.846366 0.608926)
(-1.54481e-13 -0.554048 2.06339)
(-1.21147e-13 -0.444484 3.32265)
(-8.45431e-14 -0.407788 4.23534)
(-4.65971e-14 -0.373224 4.97913)
(-1.21895e-14 -0.342468 5.63164)
(7.70605e-15 -0.319426 6.20576)
(1.99985e-14 -0.300207 6.70841)
(2.05219e-14 -0.283576 7.15239)
(1.70297e-14 -0.270344 7.5505)
(1.39847e-14 -0.262304 7.91503)
(1.60902e-14 -0.26453 8.26239)
(1.16064e-14 -0.290143 8.62628)
(-4.82407e-15 -0.354959 9.07271)
(1.06617e-14 -0.45778 9.6816)
(3.122e-14 -0.572882 10.4912)
(3.38401e-14 -0.66486 11.4647)
(3.64956e-14 -0.707595 12.5127)
(2.92748e-14 -0.692466 13.536)
(2.35501e-14 -0.625292 14.4541)
(2.17659e-14 -0.519531 15.2133)
(1.61786e-14 -0.390788 15.7861)
(7.62102e-15 -0.25285 16.1648)
(1.55653e-14 -0.117634 16.3569)
(2.58778e-14 0.00492022 16.3835)
(2.41426e-14 0.108252 16.2703)
(2.38751e-14 0.18883 16.0458)
(2.64664e-14 0.246675 15.7375)
(2.67542e-14 0.285881 15.3708)
(2.85105e-14 0.311954 14.9673)
(3.84836e-14 0.33075 14.5418)
(3.98825e-14 0.348727 14.1018)
(2.8033e-14 0.372659 13.645)
(1.73053e-14 0.408178 13.1623)
(7.81961e-15 0.471086 12.6227)
(-3.03514e-15 0.5462 11.9932)
(-1.86283e-14 0.613753 11.3216)
(-3.26638e-14 0.747964 10.4969)
(-3.97786e-14 0.973283 9.28384)
(-6.59279e-14 1.16493 7.82259)
(-8.21887e-14 1.23741 6.56477)
(-6.67589e-14 1.19104 5.63117)
(-6.5455e-14 1.13027 4.49999)
(-7.00673e-14 0.993429 3.06364)
(-3.77211e-14 0.305332 2.33359)
(-2.2836e-14 -0.673072 3.15173)
(-3.62407e-14 -1.30722 4.40114)
(-2.88542e-14 -1.6417 5.82326)
(-1.57238e-14 -1.82435 7.43055)
(-1.94552e-14 -1.92186 9.21453)
(-2.24184e-14 -1.97094 11.1672)
(-2.25885e-14 -1.99494 13.1981)
(-1.99648e-14 -2.04722 15.395)
(-1.89477e-14 -2.13941 17.4662)
(-1.41991e-14 -2.3811 20.191)
(-7.64336e-15 -2.58507 21.8457)
(2.45267e-16 -3.4029 26.8589)
(-3.27274e-15 0.124156 -23.3078)
(-7.94989e-15 0.137086 -23.7629)
(-1.01447e-14 0.138787 -24.2608)
(-1.23995e-14 0.149562 -24.7493)
(-6.99806e-15 0.159203 -25.2577)
(-1.7282e-14 0.170615 -25.7726)
(-1.5218e-14 0.183297 -26.2973)
(-2.33668e-15 0.199902 -26.8331)
(-3.70175e-15 0.223603 -27.3933)
(-4.2351e-15 0.258334 -28.0011)
(-4.59007e-15 0.307339 -28.6898)
(-6.46832e-15 0.372786 -29.4989)
(-7.23415e-15 0.455929 -30.47)
(-1.67649e-14 0.557771 -31.6456)
(-1.7035e-14 0.678856 -33.0673)
(-2.08701e-14 0.816131 -34.7727)
(-2.29422e-14 0.952891 -36.7793)
(-2.98083e-14 1.03983 -39.0467)
(-2.47173e-14 0.968064 -41.3759)
(-3.02035e-14 0.563642 -43.1923)
(-2.87639e-14 -0.202744 -43.6235)
(-3.37524e-14 -0.935945 -42.4332)
(-2.94243e-14 -1.4314 -40.2749)
(-2.68181e-14 -1.77696 -37.5395)
(-2.46705e-14 -1.99123 -34.3895)
(-2.32159e-14 -2.1053 -31.0165)
(-2.20836e-14 -2.09116 -27.5921)
(-1.89258e-14 -1.9541 -24.3167)
(-1.56729e-14 -1.7347 -21.356)
(-6.74592e-15 -1.47923 -18.7921)
(1.30348e-15 -1.24331 -16.6365)
(-8.39696e-15 -1.07379 -14.8123)
(-5.3133e-15 -0.974844 -13.1906)
(-1.51529e-14 -0.917358 -11.6675)
(-2.63269e-14 -0.870731 -10.1861)
(-4.45978e-14 -0.815653 -8.72661)
(-1.86721e-14 -0.749807 -7.29244)
(-4.11661e-14 -0.700653 -5.90434)
(-9.73876e-14 -0.73199 -4.58821)
(-9.67781e-14 -0.917615 -3.33078)
(-1.2629e-13 -1.2624 -2.16718)
(-1.03192e-13 -1.55114 -1.19793)
(-1.61732e-13 -1.42064 -0.246247)
(-1.55127e-13 -1.0927 0.843616)
(-1.07029e-13 -0.820016 2.03968)
(-5.55531e-14 -0.681335 3.17531)
(-2.88049e-14 -0.604577 4.09951)
(1.51441e-14 -0.542157 4.85872)
(5.07637e-14 -0.490494 5.51466)
(2.43861e-14 -0.449728 6.08166)
(8.42669e-16 -0.415917 6.57116)
(-8.6221e-15 -0.387866 6.99859)
(-2.28153e-14 -0.366326 7.37834)
(1.46624e-14 -0.353805 7.7245)
(3.77722e-14 -0.358535 8.05666)
(5.20401e-14 -0.401685 8.4171)
(4.62118e-14 -0.507209 8.88787)
(2.93814e-14 -0.668701 9.55801)
(2.22502e-14 -0.840637 10.4505)
(3.83552e-15 -0.968076 11.4994)
(-1.22743e-14 -1.01692 12.5952)
(-2.24859e-14 -0.981162 13.635)
(-2.41666e-14 -0.873888 14.544)
(-3.17573e-14 -0.71625 15.2775)
(-3.60308e-14 -0.530309 15.8155)
(-2.83088e-14 -0.334723 16.1557)
(-1.36209e-14 -0.145809 16.3096)
(-2.20178e-14 0.0238936 16.3022)
(-2.59574e-14 0.16715 16.1592)
(-2.04581e-14 0.279712 15.9063)
(-7.95264e-15 0.361737 15.5684)
(6.95089e-15 0.418135 15.17)
(2.10042e-14 0.455737 14.7331)
(3.88552e-14 0.482416 14.2724)
(3.1815e-14 0.507558 13.794)
(3.47709e-14 0.541072 13.2915)
(4.29215e-14 0.593763 12.7529)
(3.96322e-14 0.685017 12.1377)
(3.6151e-14 0.783946 11.4399)
(8.9101e-15 0.897504 10.7007)
(-2.68784e-14 1.15739 9.65118)
(-3.71592e-14 1.50066 8.13318)
(-4.83519e-14 1.63391 6.69083)
(-7.7479e-14 1.57261 5.77374)
(-7.88713e-14 1.58607 4.75304)
(-6.72687e-14 1.68747 3.06992)
(-1.36484e-14 1.3832 1.68791)
(-1.24775e-14 0.0921299 2.05227)
(-2.60063e-14 -1.09866 3.37627)
(-1.94622e-14 -1.75756 4.5693)
(-6.02294e-15 -2.15072 5.73891)
(-7.45444e-16 -2.42125 7.01485)
(-1.40342e-14 -2.61487 8.43314)
(-2.26664e-14 -2.75494 10.0495)
(-2.38453e-14 -2.85573 11.8148)
(-1.63083e-14 -2.97201 13.8639)
(-6.5194e-15 -3.14012 15.8724)
(3.93452e-15 -3.46291 18.6798)
(7.28198e-15 -3.84942 20.3736)
(6.24277e-15 -4.86773 25.6643)
(-6.36416e-15 0.168368 -23.1802)
(-6.29612e-15 0.184457 -23.6726)
(-1.1457e-14 0.186712 -24.1966)
(-1.81881e-14 0.200403 -24.7134)
(-1.62897e-14 0.212213 -25.2468)
(-4.75486e-15 0.225896 -25.7826)
(-1.39481e-14 0.240918 -26.3226)
(-7.32764e-15 0.260886 -26.8672)
(-5.39956e-15 0.290202 -27.4296)
(-5.24767e-15 0.334277 -28.0334)
(-4.35137e-15 0.397629 -28.713)
(-1.34727e-14 0.483348 -29.5086)
(-1.05965e-14 0.593278 -30.4631)
(-1.84221e-14 0.728829 -31.6202)
(-1.76987e-14 0.890618 -33.0236)
(-1.78311e-14 1.07433 -34.7137)
(-2.51128e-14 1.2575 -36.7117)
(-2.65634e-14 1.37418 -38.9798)
(-2.96867e-14 1.2789 -41.3125)
(-3.18544e-14 0.742397 -43.0957)
(-3.00271e-14 -0.266011 -43.3853)
(-3.55537e-14 -1.20838 -41.998)
(-2.28653e-14 -1.82945 -39.7419)
(-1.86714e-14 -2.26288 -36.9754)
(-1.81691e-14 -2.53641 -33.8249)
(-2.05592e-14 -2.68592 -30.4726)
(-1.71905e-14 -2.67302 -27.0815)
(-2.88621e-14 -2.50414 -23.8512)
(-3.3607e-14 -2.22958 -20.949)
(-3.40172e-14 -1.90859 -18.4563)
(-2.65196e-14 -1.61228 -16.3776)
(-1.56604e-14 -1.40109 -14.621)
(-2.56788e-15 -1.28182 -13.0464)
(-1.99581e-14 -1.21862 -11.5513)
(-1.23729e-14 -1.17385 -10.0844)
(-1.94316e-14 -1.12364 -8.62588)
(-2.92573e-14 -1.06042 -7.16868)
(-3.91747e-14 -1.00112 -5.71514)
(-5.44416e-14 -1.01172 -4.30346)
(-8.12325e-14 -1.1805 -2.99178)
(-1.37646e-13 -1.50961 -1.82154)
(-1.0089e-13 -1.78796 -0.847338)
(-1.45353e-13 -1.68203 0.0774303)
(-1.23097e-13 -1.36464 1.08719)
(-6.02122e-14 -1.07472 2.14686)
(-2.54815e-14 -0.900579 3.17782)
(-1.81869e-14 -0.788399 4.06455)
(-1.85499e-14 -0.699664 4.81259)
(-4.00614e-15 -0.629013 5.45855)
(6.91643e-15 -0.572818 6.01308)
(8.24894e-15 -0.526315 6.48832)
(2.49961e-14 -0.48814 6.90021)
(4.63881e-14 -0.459231 7.26424)
(8.43194e-14 -0.443277 7.59636)
(9.25289e-14 -0.45267 7.91911)
(8.61272e-14 -0.518482 8.28317)
(6.16936e-14 -0.672914 8.78524)
(2.0136e-14 -0.899608 9.51786)
(-2.71451e-14 -1.12828 10.4839)
(-5.78231e-14 -1.28498 11.5914)
(-7.18178e-14 -1.33158 12.7188)
(-7.1838e-14 -1.2679 13.7643)
(-6.09586e-14 -1.11541 14.6602)
(-6.34277e-14 -0.902881 15.3688)
(-6.03326e-14 -0.658271 15.8754)
(-6.61235e-14 -0.40472 16.1811)
(-7.72963e-14 -0.162886 16.3011)
(-7.47996e-14 0.0527137 16.2629)
(-7.63202e-14 0.235163 16.0914)
(-7.6378e-14 0.379533 15.8087)
(-8.13794e-14 0.485929 15.4381)
(-7.49966e-14 0.559627 15.0047)
(-5.37454e-14 0.608805 14.5325)
(-2.38045e-14 0.644093 14.0361)
(-9.70998e-15 0.678874 13.5171)
(5.38787e-15 0.726454 12.9609)
(3.64409e-15 0.802989 12.3505)
(6.37437e-15 0.924634 11.6398)
(1.60738e-14 1.04934 10.8594)
(7.42489e-15 1.24622 9.98942)
(-1.43318e-14 1.6631 8.63335)
(-5.39616e-14 2.03647 6.95396)
(-5.82395e-14 2.01097 5.79402)
(-1.0234e-13 1.95721 4.88801)
(-1.02524e-13 2.18416 3.19434)
(-5.98673e-14 2.14596 1.2621)
(-4.93144e-14 1.59087 0.348042)
(-4.39967e-14 -0.382125 2.17498)
(-2.75796e-14 -1.59281 3.6872)
(-9.11387e-15 -2.2036 4.92214)
(5.46e-15 -2.5924 6.05957)
(4.49404e-15 -2.89272 7.21505)
(-1.60025e-14 -3.14272 8.41825)
(-3.07608e-14 -3.36192 9.75105)
(-2.55328e-14 -3.56104 11.1972)
(-9.70571e-15 -3.78137 12.9609)
(3.10074e-15 -4.08672 14.7198)
(6.33404e-15 -4.51683 17.3784)
(2.44381e-15 -5.14539 18.9039)
(-2.74509e-15 -6.35387 23.9838)
(-7.05247e-15 0.214006 -23.0302)
(-1.0802e-14 0.235621 -23.5129)
(-2.36429e-15 0.238348 -24.0638)
(-7.31536e-15 0.254919 -24.599)
(-5.90202e-15 0.268677 -25.1499)
(-3.08286e-15 0.284248 -25.6993)
(-6.34553e-15 0.301081 -26.2478)
(-1.38513e-14 0.323794 -26.795)
(-9.33177e-15 0.35808 -27.3539)
(-2.55881e-15 0.410869 -27.9479)
(-6.43188e-15 0.48797 -28.6112)
(-1.50516e-14 0.593411 -29.384)
(-1.27992e-14 0.729687 -30.3092)
(-1.50215e-14 0.89873 -31.431)
(-1.80954e-14 1.10142 -32.7947)
(-2.19422e-14 1.33242 -34.4444)
(-2.54251e-14 1.56358 -36.4064)
(-2.60316e-14 1.71118 -38.6463)
(-3.40502e-14 1.58943 -40.9499)
(-3.58399e-14 0.909335 -42.6543)
(-2.9728e-14 -0.354658 -42.7424)
(-1.77468e-14 -1.49858 -41.13)
(-1.25005e-14 -2.23049 -38.79)
(-1.3839e-14 -2.74309 -36.0054)
(-3.83481e-15 -3.07147 -32.8644)
(-8.17999e-15 -3.254 -29.5444)
(-1.11396e-14 -3.24054 -26.1952)
(-1.70173e-14 -3.03799 -23.0115)
(-2.58541e-14 -2.70524 -20.1617)
(-3.0691e-14 -2.31508 -17.7317)
(-3.76078e-14 -1.95612 -15.7305)
(-3.0072e-14 -1.70411 -14.0595)
(-2.2031e-14 -1.56749 -12.5624)
(-1.28362e-14 -1.50111 -11.1293)
(-4.59658e-15 -1.45915 -9.71146)
(-2.3632e-14 -1.41385 -8.29255)
(-2.9339e-14 -1.35586 -6.86391)
(-2.91813e-14 -1.29682 -5.41812)
(-4.12827e-14 -1.29825 -3.98462)
(-6.75522e-14 -1.45121 -2.64975)
(-1.13032e-13 -1.75674 -1.4812)
(-5.5143e-14 -2.00714 -0.501676)
(-1.41377e-13 -1.90341 0.397056)
(-8.72443e-14 -1.58763 1.33995)
(-4.74543e-14 -1.29325 2.31339)
(-2.18831e-14 -1.10503 3.26665)
(-1.85104e-14 -0.971554 4.1059)
(1.75779e-15 -0.860963 4.82837)
(2.75228e-14 -0.770017 5.45514)
(6.24351e-14 -0.695617 5.9928)
(9.88932e-14 -0.633993 6.45211)
(1.3367e-13 -0.584145 6.84838)
(1.47731e-13 -0.54732 7.19774)
(1.38524e-13 -0.528524 7.51741)
(1.03997e-13 -0.544995 7.83193)
(5.23529e-14 -0.639164 8.19946)
(-2.06992e-15 -0.85076 8.73033)
(-2.9535e-14 -1.14823 9.51842)
(-5.85193e-14 -1.4327 10.5464)
(-7.79014e-14 -1.61286 11.7007)
(-7.80174e-14 -1.65032 12.8517)
(-7.39589e-14 -1.55295 13.9003)
(-6.4786e-14 -1.35124 14.7846)
(-6.27329e-14 -1.08133 15.4722)
(-6.03887e-14 -0.776606 15.9525)
(-6.15363e-14 -0.464502 16.2286)
(-6.71472e-14 -0.170039 16.3192)
(-8.02474e-14 0.0909564 16.2537)
(-8.82679e-14 0.31302 16.0552)
(-9.78129e-14 0.490345 15.7423)
(-1.07226e-13 0.622345 15.3367)
(-9.83415e-14 0.713901 14.8655)
(-9.10612e-14 0.774784 14.3551)
(-7.8112e-14 0.81971 13.8185)
(-4.30617e-14 0.867619 13.2502)
(2.75875e-15 0.935238 12.6257)
(5.83774e-15 1.04294 11.9239)
(7.09035e-15 1.19605 11.1006)
(2.08476e-15 1.35749 10.2207)
(-6.60878e-15 1.67871 9.15551)
(-2.38789e-14 2.22702 7.52096)
(-5.67517e-14 2.51501 5.92405)
(-5.50577e-14 2.37415 4.99995)
(-9.57341e-14 2.54611 3.63866)
(-1.30655e-13 2.90447 1.35453)
(-1.40118e-13 2.63588 -0.115799)
(-9.10014e-14 0.920177 0.202829)
(-4.09655e-14 -1.14103 2.48402)
(-1.95039e-14 -2.13027 3.95556)
(-1.10408e-14 -2.67604 5.21967)
(5.90573e-15 -3.04627 6.41133)
(-4.62612e-16 -3.34782 7.59989)
(-2.99334e-14 -3.61723 8.79347)
(-3.59249e-14 -3.87821 10.0633)
(-1.81141e-14 -4.15066 11.3912)
(1.18479e-15 -4.46247 12.9939)
(6.87639e-15 -4.90754 14.5664)
(3.52023e-15 -5.43719 16.9518)
(-2.90765e-15 -6.27828 18.2862)
(-1.12484e-14 -7.67403 22.5503)
(-3.91138e-15 0.269247 -22.8073)
(-5.42166e-16 0.288672 -23.2954)
(-6.16702e-15 0.293716 -23.8635)
(-9.23932e-15 0.312729 -24.4103)
(-4.14684e-15 0.328361 -24.9725)
(2.72519e-15 0.345485 -25.5298)
(-6.95542e-15 0.363681 -26.0824)
(-7.87139e-15 0.388571 -26.629)
(-1.27826e-15 0.427177 -27.1817)
(-2.34001e-16 0.487964 -27.7631)
(-1.3885e-14 0.578031 -28.4067)
(-1.16294e-14 0.702358 -29.1519)
(-1.40512e-14 0.864149 -30.0407)
(-1.67646e-14 1.066 -31.1175)
(-2.068e-14 1.3093 -32.4289)
(-2.00915e-14 1.58793 -34.0218)
(-2.7728e-14 1.8681 -35.9272)
(-3.53895e-14 2.04713 -38.1134)
(-3.15708e-14 1.8952 -40.3574)
(-2.80854e-14 1.06007 -41.9497)
(-9.08917e-15 -0.469603 -41.8132)
(-5.99659e-15 -1.80172 -39.9997)
(-7.57294e-15 -2.63003 -37.616)
(-4.56542e-15 -3.21438 -34.8339)
(-6.87091e-15 -3.59373 -31.7157)
(-8.67934e-15 -3.80722 -28.4442)
(-8.34366e-15 -3.79256 -25.1563)
(-5.05078e-15 -3.55697 -22.0383)
(-1.62778e-14 -3.16622 -19.2527)
(-1.57341e-14 -2.70555 -16.8819)
(-2.5201e-14 -2.28123 -14.9397)
(-3.19058e-14 -1.98671 -13.3317)
(-3.20052e-14 -1.83377 -11.8957)
(-2.5267e-14 -1.76683 -10.5172)
(-1.93641e-14 -1.73066 -9.14972)
(-2.92794e-14 -1.69329 -7.78051)
(-2.8788e-14 -1.64411 -6.40187)
(-2.28444e-14 -1.59026 -5.00132)
(-2.87117e-14 -1.5852 -3.59699)
(-4.51334e-14 -1.71967 -2.27842)
(-8.29461e-14 -1.99944 -1.11698)
(-5.41309e-14 -2.22044 -0.131449)
(-1.28336e-13 -2.11151 0.716725)
(-6.41042e-14 -1.79793 1.58928)
(-2.36894e-14 -1.50238 2.5118)
(-1.6018e-14 -1.30093 3.40856)
(-1.07757e-14 -1.14697 4.20303)
(1.26732e-14 -1.01559 4.89506)
(5.12534e-14 -0.905154 5.49767)
(8.63873e-14 -0.813306 6.01531)
(1.07835e-13 -0.737148 6.45706)
(1.33916e-13 -0.676153 6.83714)
(1.17156e-13 -0.632043 7.17169)
(6.54753e-14 -0.611285 7.47833)
(1.93793e-14 -0.636661 7.78228)
(-1.48919e-14 -0.76371 8.14858)
(-4.97977e-14 -1.03938 8.70211)
(-5.57419e-14 -1.41202 9.53865)
(-6.57182e-14 -1.75095 10.621)
(-7.99453e-14 -1.94942 11.816)
(-8.20197e-14 -1.97196 12.9877)
(-8.31044e-14 -1.83623 14.0398)
(-8.49153e-14 -1.58203 14.9151)
(-7.91828e-14 -1.25263 15.5856)
(-7.17462e-14 -0.886445 16.0437)
(-6.97136e-14 -0.515189 16.2939)
(-6.25092e-14 -0.16828 16.3586)
(-6.98796e-14 0.137878 16.2681)
(-7.79446e-14 0.400294 16.0433)
(-7.97484e-14 0.611915 15.699)
(-7.80238e-14 0.770727 15.2565)
(-7.03256e-14 0.880664 14.7456)
(-7.43049e-14 0.953889 14.194)
(-5.87784e-14 1.011 13.6097)
(-2.91133e-14 1.07773 12.9772)
(1.36934e-14 1.17312 12.2627)
(4.77278e-14 1.31912 11.4468)
(4.91516e-14 1.50445 10.4965)
(1.83181e-14 1.72061 9.49812)
(-1.7655e-14 2.18741 8.20479)
(-2.69059e-14 2.78955 6.43479)
(-4.9313e-14 2.94217 5.0681)
(-3.49293e-14 2.82319 4.07524)
(-5.29652e-14 3.28101 2.22146)
(-1.4786e-13 3.48349 0.0189857)
(-1.41082e-13 2.66242 -0.818497)
(-5.19432e-14 0.0140532 0.73857)
(-3.69126e-14 -1.80496 2.72516)
(-2.08924e-14 -2.65072 4.15777)
(-1.93891e-15 -3.16227 5.43985)
(4.13639e-15 -3.52649 6.67323)
(-1.2906e-14 -3.83138 7.91159)
(-3.36638e-14 -4.11409 9.15908)
(-2.6079e-14 -4.40223 10.4757)
(-7.52882e-15 -4.72579 11.833)
(4.61117e-15 -5.10294 13.417)
(5.65805e-15 -5.64396 14.9479)
(-2.19129e-15 -6.24476 17.093)
(-1.13608e-14 -7.17584 18.3753)
(-1.86485e-14 -8.70926 21.6773)
(-3.37508e-15 0.325239 -22.5248)
(-1.62164e-16 0.345071 -23.0259)
(-2.71832e-15 0.352174 -23.6017)
(-9.81722e-15 0.373646 -24.1557)
(-1.06534e-14 0.391074 -24.7244)
(-1.2861e-14 0.409527 -25.2863)
(-1.37083e-14 0.428728 -25.8412)
(-2.92314e-15 0.455283 -26.3864)
(-7.85349e-15 0.497548 -26.9328)
(-9.59858e-15 0.565523 -27.5014)
(-9.98895e-15 0.667603 -28.1244)
(-1.20956e-14 0.809744 -28.8395)
(-1.44834e-14 0.995925 -29.6879)
(-1.7615e-14 1.22953 -30.7136)
(-2.07132e-14 1.51263 -31.9635)
(-2.8819e-14 1.83863 -33.4867)
(-2.84703e-14 2.16814 -35.3172)
(-3.00864e-14 2.37851 -37.4265)
(-2.65253e-14 2.19263 -39.587)
(-1.74113e-14 1.19237 -41.0537)
(-9.01534e-15 -0.609578 -40.7082)
(-6.96025e-15 -2.11312 -38.7483)
(-1.02521e-14 -3.0255 -36.3558)
(-1.15027e-14 -3.67652 -33.579)
(-9.36094e-15 -4.10294 -30.4807)
(-1.20813e-14 -4.3439 -27.2602)
(-9.07921e-15 -4.32575 -24.0457)
(-1.47837e-14 -4.05722 -21.0164)
(-9.97008e-15 -3.61034 -18.3252)
(-1.30861e-14 -3.08213 -16.041)
(-2.02232e-14 -2.59456 -14.1691)
(-2.64217e-14 -2.25815 -12.614)
(-3.24712e-14 -2.08883 -11.2145)
(-3.09144e-14 -2.02049 -9.86166)
(-2.74166e-14 -1.98834 -8.51894)
(-3.92469e-14 -1.95688 -7.18226)
(-2.89056e-14 -1.91573 -5.84813)
(-1.74756e-14 -1.86943 -4.50171)
(-1.90701e-14 -1.86174 -3.15137)
(-2.71126e-14 -1.98066 -1.88156)
(-4.92152e-14 -2.23774 -0.732752)
(-4.6677e-14 -2.42331 0.247187)
(-9.7306e-14 -2.29839 1.04714)
(-4.93526e-14 -1.99007 1.86291)
(-2.49909e-14 -1.6989 2.73912)
(-1.34856e-14 -1.48615 3.58722)
(7.25602e-15 -1.31409 4.34182)
(2.20667e-14 -1.16393 5.00298)
(3.528e-14 -1.03501 5.57971)
(4.35238e-14 -0.926027 6.07555)
(3.79677e-14 -0.835293 6.49835)
(1.593e-14 -0.763124 6.86118)
(3.44474e-15 -0.711896 7.17979)
(-1.78051e-14 -0.689599 7.47135)
(-3.22245e-14 -0.725315 7.76072)
(-3.91205e-14 -0.889809 8.12028)
(-6.34031e-14 -1.23695 8.69216)
(-8.44552e-14 -1.68954 9.57413)
(-8.7396e-14 -2.08191 10.7075)
(-9.01926e-14 -2.29406 11.94)
(-8.994e-14 -2.29659 13.1311)
(-9.23079e-14 -2.11839 14.1872)
(-9.06986e-14 -1.80879 15.0556)
(-8.72518e-14 -1.4179 15.7118)
(-8.60655e-14 -0.988819 16.1502)
(-8.26865e-14 -0.557681 16.3767)
(-7.62673e-14 -0.158266 16.4173)
(-8.50446e-14 0.193325 16.3028)
(-9.43584e-14 0.497438 16.051)
(-9.42626e-14 0.745105 15.6735)
(-9.25144e-14 0.93207 15.1924)
(-8.19951e-14 1.06123 14.6401)
(-7.42164e-14 1.1487 14.0426)
(-6.15238e-14 1.22286 13.3985)
(-3.17888e-14 1.31636 12.6803)
(1.37987e-14 1.44779 11.8507)
(5.18731e-14 1.6371 10.8992)
(7.0549e-14 1.85435 9.81346)
(3.47533e-14 2.14234 8.68379)
(-2.12211e-14 2.74057 7.18485)
(-3.24218e-14 3.30972 5.47394)
(-6.01896e-14 3.37326 4.28334)
(-1.20812e-14 3.37286 2.99417)
(-1.3725e-14 4.01329 1.00401)
(-1.02385e-13 3.91682 -0.778689)
(-7.54744e-14 2.57791 -1.204)
(-5.28531e-14 -0.697065 1.01191)
(-3.50562e-14 -2.4144 2.89625)
(-2.12499e-14 -3.17487 4.347)
(-3.35821e-15 -3.65557 5.64552)
(-4.37412e-15 -4.01674 6.89481)
(-2.22457e-14 -4.33117 8.15369)
(-3.03368e-14 -4.63378 9.43373)
(-1.4781e-14 -4.95286 10.7923)
(3.08556e-16 -5.32214 12.1982)
(9.90342e-16 -5.75329 13.8)
(-2.65932e-15 -6.35053 15.351)
(-1.133e-14 -7.00561 17.3412)
(-1.61386e-14 -7.92179 18.6673)
(-1.98671e-14 -9.51135 21.3377)
(-3.18165e-15 0.38209 -22.1955)
(-8.84908e-15 0.404461 -22.7089)
(-1.49639e-14 0.413469 -23.2866)
(-2.07233e-14 0.437485 -23.844)
(-1.1693e-14 0.456711 -24.4162)
(-1.33998e-14 0.476383 -24.9811)
(-2.01453e-14 0.496339 -25.538)
(-1.06782e-14 0.524108 -26.0828)
(-8.07958e-15 0.569355 -26.6243)
(-1.54761e-14 0.643608 -27.1816)
(-1.09396e-14 0.756582 -27.7843)
(-1.21752e-14 0.915253 -28.4684)
(-1.48641e-14 1.12443 -29.274)
(-1.82266e-14 1.38838 -30.2439)
(-2.18582e-14 1.71 -31.4251)
(-2.49451e-14 2.08246 -32.8671)
(-2.74759e-14 2.46096 -34.6066)
(-2.41687e-14 2.70233 -36.6193)
(-2.00518e-14 2.47989 -38.6813)
(-1.81301e-14 1.30768 -40.0302)
(-8.4851e-15 -0.769435 -39.5193)
(-9.72704e-15 -2.4279 -37.4725)
(-1.72615e-14 -3.41687 -35.0842)
(-5.95377e-15 -4.13217 -32.2969)
(-1.34092e-14 -4.60123 -29.2018)
(-1.49992e-14 -4.86441 -26.0238)
(-1.64198e-14 -4.83807 -22.8833)
(-1.07677e-14 -4.53397 -19.954)
(-1.01823e-14 -4.03069 -17.3794)
(-1.19247e-14 -3.43806 -15.2129)
(-2.59982e-15 -2.8929 -13.4443)
(-1.7369e-14 -2.5209 -11.9637)
(-2.92409e-14 -2.34007 -10.6017)
(-2.99669e-14 -2.27221 -9.25853)
(-3.26567e-14 -2.24278 -7.91532)
(-3.36648e-14 -2.21368 -6.58461)
(-3.21038e-14 -2.17644 -5.27393)
(-1.33038e-14 -2.1352 -3.97086)
(-1.09424e-14 -2.1255 -2.67688)
(-1.43348e-14 -2.23427 -1.44673)
(-5.61199e-14 -2.46815 -0.313364)
(-2.31268e-14 -2.61357 0.618576)
(-7.09493e-14 -2.47091 1.37111)
(-4.00155e-14 -2.1711 2.15367)
(-2.77805e-14 -1.88565 2.99188)
(-6.21374e-15 -1.662 3.79702)
(2.06706e-14 -1.47294 4.51517)
(3.75895e-14 -1.30507 5.14591)
(4.07216e-14 -1.15853 5.69605)
(2.83242e-14 -1.03308 6.16885)
(1.46864e-14 -0.928226 6.57135)
(-2.87389e-15 -0.845224 6.9157)
(-9.47829e-15 -0.787081 7.21703)
(-1.94715e-14 -0.763297 7.4914)
(-3.45524e-14 -0.810268 7.76289)
(-5.09547e-14 -1.01671 8.11285)
(-8.46343e-14 -1.44297 8.7029)
(-9.40687e-14 -1.98005 9.63036)
(-8.98197e-14 -2.42447 10.8125)
(-9.12906e-14 -2.64578 12.0795)
(-9.09568e-14 -2.62367 13.2882)
(-8.94064e-14 -2.39934 14.3484)
(-7.96768e-14 -2.03171 15.2111)
(-7.71622e-14 -1.57739 15.8545)
(-7.93449e-14 -1.08394 16.2746)
(-8.26777e-14 -0.59211 16.4782)
(-8.17101e-14 -0.139976 16.4952)
(-8.80489e-14 0.257633 16.3561)
(-9.58782e-14 0.605004 16.0753)
(-1.03116e-13 0.890455 15.6625)
(-1.0442e-13 1.10685 15.1409)
(-9.5635e-14 1.25675 14.5445)
(-8.47997e-14 1.36241 13.8927)
(-6.93078e-14 1.46143 13.1708)
(-5.71358e-14 1.59139 12.3406)
(-2.17136e-14 1.76622 11.3713)
(4.80691e-14 2.00025 10.2695)
(7.87109e-14 2.24696 9.05134)
(4.34272e-14 2.6138 7.79313)
(-2.03401e-14 3.29549 6.1695)
(-5.54021e-14 3.78114 4.67865)
(-6.73436e-14 3.84815 3.48852)
(2.28755e-14 3.96755 1.96505)
(7.82096e-15 4.65781 0.171987)
(-6.32795e-14 4.32254 -1.29069)
(-7.06546e-14 2.98424 -2.14729)
(-5.83416e-14 -1.51457 1.17195)
(-3.09308e-14 -3.04869 3.05936)
(-1.40491e-14 -3.70843 4.54091)
(-4.18298e-15 -4.15303 5.85819)
(-1.23236e-14 -4.50907 7.11671)
(-2.29138e-14 -4.83476 8.38062)
(-1.86154e-14 -5.16114 9.66872)
(-5.91953e-15 -5.51553 11.0387)
(-2.40557e-15 -5.92962 12.4608)
(-5.38591e-15 -6.41219 14.0556)
(-8.60851e-15 -7.04589 15.609)
(-1.39577e-14 -7.74917 17.4921)
(-1.73677e-14 -8.61991 18.8398)
(-2.04077e-14 -10.1968 21.2204)
(-7.30246e-15 0.439592 -21.821)
(-1.66215e-14 0.467031 -22.3516)
(-1.8753e-14 0.477268 -22.9252)
(-2.11457e-14 0.504125 -23.4838)
(-1.39971e-14 0.525214 -24.0572)