/*--------------------------------*- C++ -*----------------------------------*\
| =========                 |                                                 |
| \\      /  F ield         | OpenFOAM: The Open Source CFD Toolbox           |
|  \\    /   O peration     | Version:  4.1                                   |
|   \\  /    A nd           | Web:      www.OpenFOAM.org                      |
|    \\/     M anipulation  |                                                 |
\*---------------------------------------------------------------------------*/
FoamFile
{
    version     2.0;
    format      ascii;
    class       volScalarField;
    location    "300";
    object      p;
}
// * * * * * * * * * * * * * * * * * * * * * * * * * * * * * * * * * * * * * //

dimensions      [0 2 -2 0 0 0 0];

internalField   nonuniform List<scalar> 
6820
(
-9.01417
-9.24097
-9.31779
-9.32967
-9.34884
-9.37067
-9.38695
-9.39947
-9.41024
-9.41938
-9.42677
-9.43254
-9.4368
-9.43955
-9.44075
-9.44033
-9.43818
-9.43415
-9.42803
-9.41957
-9.4084
-9.39409
-9.37603
-9.35339
-9.32499
-9.28916
-9.2431
-9.18281
-9.0987
-8.98182
-8.7696
-8.51397
-7.45618
-9.08615
-9.22714
-9.29065
-9.31085
-9.33446
-9.35818
-9.37586
-9.38938
-9.40079
-9.41039
-9.41817
-9.42426
-9.42878
-9.43176
-9.43315
-9.43289
-9.43087
-9.42694
-9.42092
-9.41254
-9.40146
-9.38724
-9.36932
-9.34692
-9.31898
-9.28403
-9.23984
-9.18365
-9.10949
-9.01574
-8.88093
-8.75496
-8.66424
-9.14358
-9.23158
-9.2916
-9.31644
-9.33865
-9.36065
-9.37785
-9.39122
-9.40249
-9.41201
-9.41975
-9.42585
-9.4304
-9.43343
-9.4349
-9.43475
-9.43287
-9.42914
-9.42335
-9.41528
-9.4046
-9.39093
-9.37375
-9.35238
-9.32594
-9.29328
-9.25279
-9.20283
-9.14051
-9.0677
-8.98071
-8.92574
-8.9089
-9.18235
-9.2407
-9.29481
-9.32105
-9.34174
-9.36234
-9.3792
-9.39246
-9.4036
-9.41302
-9.42074
-9.42684
-9.43143
-9.43453
-9.4361
-9.43609
-9.4344
-9.43091
-9.42544
-9.41778
-9.40766
-9.39473
-9.37855
-9.3586
-9.3342
-9.30458
-9.26881
-9.2263
-9.17649
-9.12288
-9.06858
-9.0426
-9.04974
-9.21352
-9.25331
-9.29911
-9.32521
-9.34491
-9.36428
-9.38068
-9.39378
-9.40477
-9.4141
-9.4218
-9.42794
-9.43261
-9.43582
-9.43755
-9.43775
-9.43634
-9.4332
-9.42818
-9.4211
-9.41173
-9.39979
-9.38495
-9.36683
-9.345
-9.31907
-9.28872
-9.25419
-9.21639
-9.17939
-9.14852
-9.14229
-9.16943
-9.23968
-9.26715
-9.30481
-9.32994
-9.34878
-9.36687
-9.38264
-9.3955
-9.40633
-9.41556
-9.42325
-9.42943
-9.43419
-9.43755
-9.43949
-9.43996
-9.43889
-9.43619
-9.43174
-9.42538
-9.41694
-9.40621
-9.39297
-9.37701
-9.35812
-9.33624
-9.31155
-9.28485
-9.25781
-9.2344
-9.2201
-9.22667
-9.2614
-9.26189
-9.28115
-9.31178
-9.33526
-9.35316
-9.37
-9.38505
-9.39761
-9.40825
-9.41737
-9.42503
-9.43127
-9.43615
-9.43969
-9.44187
-9.44267
-9.44202
-9.43985
-9.43607
-9.43056
-9.4232
-9.41387
-9.40245
-9.38887
-9.37314
-9.35545
-9.33632
-9.31687
-9.29904
-9.28635
-9.28347
-9.29774
-9.33413
-9.28105
-9.29488
-9.31966
-9.34106
-9.35794
-9.37361
-9.38789
-9.4001
-9.41052
-9.41952
-9.42716
-9.43347
-9.43848
-9.44223
-9.44471
-9.44589
-9.44572
-9.44416
-9.44114
-9.43659
-9.43045
-9.42266
-9.41321
-9.40215
-9.38965
-9.37609
-9.3622
-9.3492
-9.33902
-9.33456
-9.33948
-9.35832
-9.3942
-9.29789
-9.30807
-9.32811
-9.34727
-9.36307
-9.37765
-9.39115
-9.40295
-9.41315
-9.42202
-9.42964
-9.43602
-9.4412
-9.44519
-9.448
-9.44961
-9.44999
-9.44911
-9.44694
-9.44344
-9.43862
-9.43247
-9.42506
-9.41656
-9.40725
-9.39763
-9.3885
-9.38108
-9.3771
-9.37887
-9.38908
-9.41052
-9.44503
-9.31292
-9.32061
-9.33688
-9.35384
-9.3685
-9.38208
-9.3948
-9.40616
-9.41612
-9.42487
-9.43248
-9.43895
-9.44431
-9.44857
-9.45175
-9.45383
-9.45481
-9.45467
-9.45341
-9.45105
-9.4476
-9.44315
-9.43782
-9.43185
-9.42559
-9.41961
-9.41471
-9.41202
-9.41298
-9.41938
-9.43313
-9.45593
-9.48877
-9.32651
-9.33248
-9.34577
-9.36068
-9.37419
-9.38683
-9.39881
-9.40972
-9.41943
-9.42806
-9.43566
-9.44224
-9.4478
-9.45236
-9.45594
-9.45854
-9.46016
-9.46082
-9.46053
-9.45933
-9.45731
-9.45456
-9.45129
-9.44776
-9.44437
-9.44168
-9.44046
-9.44168
-9.44653
-9.45635
-9.47243
-9.4958
-9.52692
-9.33892
-9.34367
-9.35464
-9.3677
-9.3801
-9.39187
-9.40315
-9.41361
-9.42308
-9.4316
-9.4392
-9.44589
-9.45168
-9.45657
-9.46058
-9.46373
-9.46603
-9.46751
-9.46822
-9.46823
-9.46763
-9.46658
-9.46529
-9.46406
-9.4633
-9.46354
-9.46547
-9.46991
-9.47779
-9.49007
-9.50765
-9.5311
-9.56058
-9.35037
-9.35423
-9.36339
-9.37484
-9.38618
-9.39714
-9.40777
-9.4178
-9.42703
-9.43545
-9.44308
-9.4499
-9.45593
-9.46117
-9.46564
-9.46936
-9.47237
-9.47471
-9.47644
-9.47765
-9.47847
-9.47906
-9.47966
-9.48057
-9.48218
-9.48499
-9.48958
-9.49662
-9.50682
-9.52089
-9.53938
-9.5626
-9.59057
-9.361
-9.36421
-9.37194
-9.38201
-9.39238
-9.4026
-9.41264
-9.42227
-9.43128
-9.43961
-9.44727
-9.45425
-9.46054
-9.46615
-9.4711
-9.47542
-9.47916
-9.48237
-9.48512
-9.48752
-9.48971
-9.49188
-9.49425
-9.49711
-9.50084
-9.50586
-9.51267
-9.5218
-9.53378
-9.54909
-9.5681
-9.59093
-9.61751
-9.37092
-9.37364
-9.38027
-9.38917
-9.39865
-9.4082
-9.41772
-9.42698
-9.43579
-9.44406
-9.45178
-9.45892
-9.46549
-9.47148
-9.47693
-9.48187
-9.48634
-9.49042
-9.49418
-9.49775
-9.50126
-9.50491
-9.50891
-9.51355
-9.51914
-9.52605
-9.5347
-9.54548
-9.5588
-9.57498
-9.59422
-9.61656
-9.64188
-9.38023
-9.38256
-9.38832
-9.39626
-9.40496
-9.41392
-9.42297
-9.43191
-9.44054
-9.44877
-9.45656
-9.46389
-9.47075
-9.47715
-9.4831
-9.48866
-9.49388
-9.49881
-9.50357
-9.50825
-9.51302
-9.51805
-9.52354
-9.52975
-9.53697
-9.54549
-9.55564
-9.56773
-9.58205
-9.59879
-9.61809
-9.6399
-9.66409
-9.38897
-9.39101
-9.39609
-9.40323
-9.41127
-9.4197
-9.42834
-9.43701
-9.4455
-9.45371
-9.4616
-9.46913
-9.4763
-9.48311
-9.48958
-9.49576
-9.50171
-9.50749
-9.51319
-9.51895
-9.52489
-9.53119
-9.53803
-9.54564
-9.55425
-9.56412
-9.5755
-9.58861
-9.60366
-9.62077
-9.63999
-9.66125
-9.68443
-9.39719
-9.39901
-9.40355
-9.41005
-9.41752
-9.4255
-9.43381
-9.44224
-9.45063
-9.45885
-9.46685
-9.47461
-9.4821
-9.48932
-9.49632
-9.50312
-9.50978
-9.51637
-9.523
-9.52976
-9.53679
-9.54424
-9.55229
-9.56112
-9.57094
-9.58193
-9.5943
-9.6082
-9.62378
-9.64109
-9.66016
-9.68089
-9.70316
-9.40492
-9.40658
-9.4107
-9.41668
-9.42368
-9.43129
-9.43932
-9.44757
-9.45589
-9.46415
-9.4723
-9.48029
-9.48811
-9.49576
-9.50327
-9.51068
-9.51804
-9.52542
-9.5329
-9.5406
-9.54864
-9.55714
-9.56626
-9.57616
-9.58699
-9.59891
-9.61207
-9.62658
-9.64253
-9.65994
-9.6788
-9.69902
-9.72048
-9.41219
-9.41371
-9.41751
-9.42308
-9.4297
-9.43702
-9.44483
-9.45296
-9.46125
-9.46958
-9.47788
-9.48612
-9.49429
-9.50237
-9.51039
-9.51839
-9.52642
-9.53455
-9.54285
-9.55142
-9.56036
-9.56981
-9.57987
-9.59069
-9.60238
-9.61507
-9.62886
-9.64383
-9.66003
-9.67746
-9.69608
-9.71581
-9.73655
-9.41899
-9.42041
-9.42396
-9.42922
-9.43556
-9.44264
-9.4503
-9.45835
-9.46665
-9.47508
-9.48357
-9.49208
-9.50059
-9.5091
-9.51763
-9.5262
-9.53488
-9.5437
-9.55276
-9.56213
-9.57191
-9.58219
-9.59308
-9.60468
-9.6171
-9.63042
-9.64471
-9.66002
-9.67638
-9.69377
-9.71214
-9.73142
-9.75151
-9.42532
-9.42667
-9.43004
-9.43507
-9.4412
-9.44813
-9.45568
-9.46371
-9.47206
-9.48061
-9.48931
-9.49811
-9.50697
-9.51591
-9.52493
-9.53406
-9.54334
-9.55283
-9.56259
-9.57269
-9.58321
-9.59423
-9.60584
-9.61812
-9.63115
-9.64498
-9.65966
-9.67522
-9.69167
-9.70898
-9.7271
-9.74596
-9.76547
-9.43116
-9.43246
-9.43571
-9.44059
-9.44658
-9.45341
-9.46093
-9.46898
-9.47742
-9.48614
-9.49506
-9.50415
-9.51338
-9.52274
-9.53224
-9.5419
-9.55176
-9.56187
-9.57227
-9.58303
-9.59422
-9.6059
-9.61813
-9.63099
-9.64452
-9.65876
-9.67375
-9.68949
-9.70597
-9.72318
-9.74105
-9.75953
-9.77852
-9.43649
-9.43776
-9.44094
-9.44573
-9.45165
-9.45846
-9.46599
-9.47411
-9.48268
-9.49159
-9.50077
-9.51017
-9.51976
-9.52954
-9.5395
-9.54967
-9.56008
-9.57076
-9.58175
-9.59312
-9.6049
-9.61715
-9.62992
-9.64327
-9.65721
-9.67179
-9.68701
-9.70287
-9.71936
-9.73645
-9.75409
-9.7722
-9.79074
-9.44127
-9.44253
-9.44568
-9.45045
-9.45637
-9.46321
-9.47082
-9.47906
-9.4878
-9.49693
-9.50638
-9.5161
-9.52606
-9.53625
-9.54667
-9.55733
-9.56824
-9.57945
-9.59099
-9.60289
-9.6152
-9.62796
-9.64119
-9.65495
-9.66924
-9.68408
-9.69948
-9.71542
-9.73189
-9.74885
-9.76626
-9.78406
-9.80218
-9.44544
-9.44671
-9.44989
-9.45469
-9.46067
-9.4676
-9.47535
-9.48376
-9.49271
-9.50209
-9.51184
-9.5219
-9.53223
-9.54283
-9.55368
-9.5648
-9.5762
-9.5879
-9.59993
-9.61231
-9.62509
-9.63829
-9.65192
-9.66602
-9.6806
-9.69565
-9.71119
-9.72718
-9.74361
-9.76045
-9.77764
-9.79514
-9.8129
-9.44896
-9.45025
-9.45349
-9.45839
-9.4645
-9.47159
-9.47952
-9.48816
-9.49736
-9.50704
-9.5171
-9.52751
-9.53822
-9.54922
-9.56049
-9.57205
-9.58389
-9.59605
-9.60852
-9.62135
-9.63454
-9.64812
-9.6621
-9.67649
-9.6913
-9.70653
-9.72216
-9.73818
-9.75456
-9.77127
-9.78826
-9.8055
-9.82293
-9.45173
-9.45307
-9.45641
-9.46148
-9.46779
-9.4751
-9.48329
-9.4922
-9.5017
-9.5117
-9.5221
-9.53287
-9.54396
-9.55536
-9.56704
-9.57902
-9.59128
-9.60385
-9.61674
-9.62996
-9.64351
-9.65743
-9.6717
-9.68634
-9.70135
-9.71671
-9.73241
-9.74844
-9.76476
-9.78135
-9.79816
-9.81516
-9.8323
-9.45365
-9.45506
-9.45857
-9.46387
-9.47046
-9.47808
-9.48658
-9.49582
-9.50567
-9.51602
-9.5268
-9.53794
-9.54942
-9.56121
-9.57329
-9.58566
-9.59833
-9.61128
-9.62454
-9.63811
-9.65199
-9.66619
-9.68072
-9.69557
-9.71074
-9.72621
-9.74196
-9.75799
-9.77425
-9.79072
-9.80737
-9.82415
-9.84104
-9.4546
-9.45611
-9.45984
-9.46548
-9.47244
-9.48044
-9.48933
-9.49897
-9.50922
-9.51997
-9.53113
-9.54267
-9.55454
-9.56672
-9.57919
-9.59194
-9.60497
-9.61829
-9.63188
-9.64577
-9.65994
-9.6744
-9.68915
-9.70418
-9.71948
-9.73503
-9.75083
-9.76684
-9.78304
-9.79941
-9.81591
-9.8325
-9.84916
-9.45442
-9.45606
-9.46011
-9.46619
-9.47364
-9.48213
-9.49149
-9.50159
-9.51229
-9.52348
-9.53507
-9.54702
-9.55929
-9.57185
-9.5847
-9.59781
-9.61119
-9.62483
-9.63874
-9.65291
-9.66734
-9.68202
-9.69696
-9.71214
-9.72755
-9.74317
-9.75899
-9.77498
-9.79113
-9.80739
-9.82376
-9.84018
-9.85664
-9.45291
-9.45473
-9.45922
-9.4659
-9.47398
-9.48306
-9.49299
-9.50364
-9.51485
-9.52651
-9.53855
-9.55092
-9.5636
-9.57655
-9.58976
-9.60323
-9.61694
-9.63089
-9.64508
-9.65951
-9.67418
-9.68906
-9.70417
-9.71948
-9.73499
-9.75067
-9.76651
-9.78249
-9.79859
-9.81477
-9.83101
-9.84729
-9.86358
-9.44978
-9.45186
-9.45698
-9.46448
-9.47336
-9.48317
-9.49379
-9.50508
-9.51688
-9.52907
-9.5416
-9.55441
-9.5675
-9.58082
-9.59438
-9.60817
-9.62218
-9.63641
-9.65085
-9.6655
-9.68035
-9.69541
-9.71065
-9.72607
-9.74165
-9.75737
-9.77322
-9.78918
-9.80522
-9.82132
-9.83746
-9.85361
-9.86975
-9.44467
-9.44714
-9.45318
-9.46183
-9.47174
-9.48242
-9.49381
-9.50581
-9.51825
-9.53101
-9.54405
-9.55734
-9.57086
-9.58458
-9.59851
-9.61264
-9.62696
-9.64147
-9.65617
-9.67104
-9.6861
-9.70132
-9.7167
-9.73222
-9.74788
-9.76365
-9.77952
-9.79546
-9.81146
-9.8275
-9.84355
-9.85958
-9.87558
-9.43705
-9.44012
-9.44754
-9.4578
-9.46908
-9.48091
-9.49333
-9.50621
-9.51936
-9.53269
-9.5462
-9.5599
-9.57377
-9.5878
-9.602
-9.61636
-9.6309
-9.64561
-9.66048
-9.67552
-9.69071
-9.70605
-9.72152
-9.73711
-9.75282
-9.76862
-9.78449
-9.80041
-9.81638
-9.83236
-9.84834
-9.8643
-9.88022
-9.42608
-9.43027
-9.44002
-9.45231
-9.46485
-9.47774
-9.4913
-9.50526
-9.51933
-9.53347
-9.5477
-9.56203
-9.57645
-9.59096
-9.60557
-9.6203
-9.63515
-9.65012
-9.66522
-9.68045
-9.6958
-9.71126
-9.72683
-9.7425
-9.75825
-9.77407
-9.78994
-9.80585
-9.82177
-9.83769
-9.85358
-9.86942
-9.88519
-9.41034
-9.41615
-9.43086
-9.44735
-9.46203
-9.47613
-9.49059
-9.50513
-9.51953
-9.53387
-9.54825
-9.56272
-9.57726
-9.5919
-9.60665
-9.62151
-9.63651
-9.65163
-9.66687
-9.68223
-9.69771
-9.71329
-9.72897
-9.74472
-9.76055
-9.77643
-9.79234
-9.80828
-9.82422
-9.84014
-9.85604
-9.87191
-9.88772
-9.38899
-9.39573
-9.41431
-9.43416
-9.45209
-9.46968
-9.48723
-9.50416
-9.52039
-9.53617
-9.55168
-9.56698
-9.58214
-9.59722
-9.61229
-9.62737
-9.64251
-9.65771
-9.67299
-9.68836
-9.70382
-9.71937
-9.73499
-9.75068
-9.76643
-9.78222
-9.79803
-9.81386
-9.82968
-9.84547
-9.86121
-9.87688
-9.89243
-9.356
-9.39098
-9.42011
-9.43583
-9.44947
-9.46543
-9.48193
-9.49775
-9.51319
-9.52865
-9.54415
-9.55962
-9.57507
-9.59053
-9.60602
-9.62156
-9.63715
-9.65279
-9.6685
-9.68427
-9.7001
-9.71599
-9.73193
-9.7479
-9.76391
-9.77994
-9.79597
-9.81199
-9.828
-9.84397
-9.8599
-9.87579
-9.89163
-9.21487
-9.32227
-9.39588
-9.42787
-9.45071
-9.47464
-9.49653
-9.51506
-9.53161
-9.54733
-9.56259
-9.57746
-9.59212
-9.60669
-9.62128
-9.63593
-9.65067
-9.66552
-9.68049
-9.69557
-9.71077
-9.72608
-9.74149
-9.75697
-9.77252
-9.78812
-9.80375
-9.8194
-9.83504
-9.85065
-9.86622
-9.88172
-9.89713
-8.60867
-8.66679
-9.5496
-10.0236
-10.0775
-10.0982
-10.1448
-10.1817
-10.2093
-10.2356
-10.2614
-10.2857
-10.3086
-10.3302
-10.3503
-10.3688
-10.3855
-10.4001
-10.4126
-10.423
-10.4314
-10.4379
-10.4431
-10.4475
-10.4521
-10.458
-10.4667
-10.4798
-10.4994
-10.5276
-10.5666
-10.6186
-10.6856
-10.7695
-10.8717
-10.9929
-11.1334
-11.2929
-11.4702
-11.6636
-11.8707
-12.0888
-12.3149
-12.5456
-12.7775
-13.0073
-13.2317
-13.4472
-13.6508
-13.8392
-14.009
-14.1567
-14.2784
-14.3699
-14.4261
-14.4416
-14.4097
-14.323
-14.173
-13.9503
-13.6454
-13.2491
-12.7542
-12.1577
-11.4626
-10.6798
-9.82845
-8.93404
-8.02513
-7.12969
-6.27259
-5.47292
-4.74195
-4.08715
-3.5168
-3.02902
-2.60731
-2.26315
-2.05948
-2.04175
-2.25825
-2.76064
-3.58008
-4.66736
-5.88866
-7.09468
-8.15126
-8.91236
-9.28686
-9.20822
-8.67124
-7.77982
-6.68985
-5.54296
-4.43411
-3.41912
-2.50544
-1.71675
-0.955143
-0.401855
-9.18116
-9.33949
-9.67894
-9.94702
-10.0197
-10.0609
-10.1146
-10.1576
-10.1898
-10.2192
-10.2471
-10.273
-10.2972
-10.3199
-10.3408
-10.3601
-10.3774
-10.3927
-10.4059
-10.4171
-10.4263
-10.4338
-10.4401
-10.4457
-10.4517
-10.4591
-10.4694
-10.4843
-10.5056
-10.5353
-10.5757
-10.6289
-10.6968
-10.7811
-10.8831
-11.0037
-11.1431
-11.3009
-11.4759
-11.6666
-11.8706
-12.0853
-12.3077
-12.5345
-12.7624
-12.9881
-13.2082
-13.4196
-13.6189
-13.803
-13.9684
-14.1116
-14.2286
-14.3151
-14.3662
-14.3762
-14.3387
-14.2462
-14.0903
-13.8621
-13.5524
-13.1524
-12.6559
-12.0604
-11.3696
-10.5946
-9.75411
-8.87269
-7.97766
-7.09572
-6.25058
-5.46046
-4.73636
-4.08613
-3.51781
-3.02862
-2.60288
-2.25213
-2.03226
-1.99892
-2.22093
-2.75318
-3.6054
-4.70532
-5.9138
-7.09052
-8.11147
-8.84327
-9.20154
-9.1103
-8.5692
-7.68453
-6.60877
-5.4786
-4.38509
-3.38254
-2.47656
-1.6947
-0.931237
-0.395318
-9.19437
-9.37642
-9.6067
-9.85553
-9.97383
-10.0328
-10.0889
-10.1361
-10.1725
-10.2044
-10.2341
-10.2616
-10.2869
-10.3104
-10.3322
-10.3521
-10.3701
-10.386
-10.4
-10.412
-10.4222
-10.4308
-10.4383
-10.4454
-10.4529
-10.462
-10.474
-10.4907
-10.5137
-10.5451
-10.587
-10.6412
-10.7098
-10.7944
-10.8961
-11.0158
-11.1537
-11.3094
-11.4818
-11.6693
-11.8697
-12.0804
-12.2986
-12.5209
-12.7443
-12.9653
-13.1807
-13.3873
-13.5818
-13.761
-13.9214
-14.0595
-14.1712
-14.2522
-14.2976
-14.3016
-14.2579
-14.1592
-13.9972
-13.7634
-13.449
-13.046
-12.5489
-11.9558
-11.2709
-10.5055
-9.67774
-8.81112
-7.93165
-7.06471
-6.2329
-5.45356
-4.73754
-4.09302
-3.5277
-3.03834
-2.61102
-2.25719
-2.02434
-1.97483
-2.19477
-2.7453
-3.6198
-4.72592
-5.91898
-7.06506
-8.04893
-8.75059
-9.09228
-8.99169
-8.45201
-7.57947
-6.52201
-5.41132
-4.33492
-3.34588
-2.4484
-1.67372
-0.909475
-0.39048
-9.22702
-9.40727
-9.60595
-9.81668
-9.93972
-10.0065
-10.0649
-10.1157
-10.1559
-10.1903
-10.2218
-10.2507
-10.2771
-10.3015
-10.3241
-10.3447
-10.3634
-10.3801
-10.3949
-10.4079
-10.4191
-10.429
-10.4379
-10.4465
-10.4557
-10.4666
-10.4805
-10.4991
-10.5239
-10.557
-10.6003
-10.6556
-10.7248
-10.8094
-10.9106
-11.0291
-11.1652
-11.3183
-11.4876
-11.6714
-11.8677
-12.0739
-12.2873
-12.5046
-12.7228
-12.9386
-13.1487
-13.3499
-13.5389
-13.7126
-13.8675
-13.9999
-14.1057
-14.1806
-14.2196
-14.2172
-14.1669
-14.0616
-13.8934
-13.6541
-13.3354
-12.9301
-12.4333
-11.844
-11.1668
-10.4127
-9.59944
-8.74937
-7.88712
-7.03676
-6.21974
-5.45262
-4.74613
-4.10872
-3.54765
-3.0598
-2.63398
-2.28222
-2.04505
-1.98647
-2.20107
-2.755
-3.6332
-4.73127
-5.90143
-7.01388
-7.9598
-8.63101
-8.95516
-8.84815
-8.3155
-7.46106
-6.42691
-5.33941
-4.2827
-3.30885
-2.42108
-1.65424
-0.890243
-0.387872
-9.29163
-9.45034
-9.61842
-9.78921
-9.90728
-9.98132
-10.0427
-10.0961
-10.1395
-10.1764
-10.2096
-10.2398
-10.2675
-10.2929
-10.3163
-10.3377
-10.3572
-10.3748
-10.3906
-10.4046
-10.417
-10.4282
-10.4386
-10.4489
-10.46
-10.4728
-10.4887
-10.5092
-10.536
-10.5707
-10.6153
-10.6716
-10.7413
-10.8258
-10.9262
-11.0433
-11.1771
-11.3273
-11.493
-11.6727
-11.8643
-12.0655
-12.2734
-12.4852
-12.6976
-12.9075
-13.1116
-13.3069
-13.4899
-13.6576
-13.8062
-13.9323
-14.0317
-14.0999
-14.1322
-14.1229
-14.0657
-13.9538
-13.7795
-13.5349
-13.2125
-12.8057
-12.3104
-11.7263
-11.0581
-10.317
-9.51979
-8.68774
-7.84411
-7.01163
-6.21066
-5.45699
-4.7613
-4.13219
-3.57648
-3.09153
-2.66931
-2.32278
-2.08775
-2.02774
-2.23855
-2.78699
-3.65398
-4.73044
-5.8691
-6.94359
-7.84995
-8.49003
-8.79528
-8.68358
-8.16202
-7.33032
-6.3236
-5.2625
-4.22784
-3.27079
-2.39397
-1.63563
-0.8729
-0.38684
-9.35325
-9.4861
-9.62853
-9.771
-9.88205
-9.95982
-10.023
-10.0778
-10.1235
-10.1625
-10.1973
-10.229
-10.2578
-10.2842
-10.3086
-10.3309
-10.3513
-10.3699
-10.3867
-10.4019
-10.4156
-10.4283
-10.4404
-10.4525
-10.4655
-10.4804
-10.4983
-10.5209
-10.5495
-10.5859
-10.6318
-10.689
-10.759
-10.8432
-10.9425
-11.0578
-11.1891
-11.336
-11.4977
-11.6727
-11.8592
-12.0547
-12.2567
-12.4623
-12.6683
-12.8717
-13.0693
-13.258
-13.4345
-13.5954
-13.7374
-13.8566
-13.949
-14.0102
-14.0353
-14.0189
-13.9547
-13.836
-13.6558
-13.4064
-13.0811
-12.6738
-12.1812
-11.6036
-10.946
-10.2193
-9.43949
-8.62676
-7.80294
-6.9895
-6.20568
-5.4666
-4.78289
-4.16324
-3.61409
-3.13356
-2.71683
-2.37755
-2.14826
-2.09132
-2.29963
-2.83703
-3.68211
-4.72615
-5.82558
-6.85765
-7.72258
-8.33068
-8.61611
-8.5011
-7.9938
-7.18853
-6.21266
-5.18075
-4.17026
-3.23152
-2.36682
-1.61767
-0.857178
-0.386995
-9.40826
-9.51893
-9.64075
-9.76231
-9.86436
-9.94206
-10.0058
-10.0611
-10.1084
-10.1491
-10.1853
-10.2182
-10.2482
-10.2756
-10.301
-10.3243
-10.3457
-10.3653
-10.3832
-10.3997
-10.4149
-10.4291
-10.443
-10.457
-10.472
-10.4889
-10.509
-10.5336
-10.5641
-10.6021
-10.6493
-10.7072
-10.7774
-10.861
-10.9591
-11.0723
-11.2007
-11.344
-11.5013
-11.6712
-11.852
-12.0414
-12.2369
-12.4357
-12.6348
-12.8312
-13.0217
-13.2032
-13.3725
-13.5262
-13.6609
-13.7727
-13.8578
-13.9115
-13.9292
-13.9054
-13.8342
-13.709
-13.5232
-13.2697
-12.9421
-12.5354
-12.0468
-11.477
-10.8314
-10.1203
-9.35921
-8.56688
-7.7639
-6.97046
-6.20477
-5.48131
-4.81067
-4.20159
-3.66025
-3.1858
-2.77652
-2.44634
-2.22515
-2.17337
-2.3788
-2.9004
-3.71548
-4.71874
-5.77256
-6.75827
-7.58001
-8.15535
-8.42051
-8.30346
-7.81292
-7.037
-6.09476
-5.0944
-4.10994
-3.19091
-2.33948
-1.60016
-0.842873
-0.388011
-9.45705
-9.55015
-9.65479
-9.7598
-9.85248
-9.9279
-9.99115
-10.0464
-10.0945
-10.1364
-10.1738
-10.2078
-10.2388
-10.2673
-10.2935
-10.3178
-10.3402
-10.361
-10.3801
-10.3979
-10.4146
-10.4305
-10.4461
-10.462
-10.4791
-10.4981
-10.5203
-10.5469
-10.5792
-10.6188
-10.6672
-10.7258
-10.7959
-10.8789
-10.9755
-11.0864
-11.2117
-11.3509
-11.5035
-11.6679
-11.8426
-12.0255
-12.214
-12.4055
-12.5971
-12.7859
-12.9687
-13.1425
-13.3041
-13.4501
-13.577
-13.6811
-13.7583
-13.8044
-13.8144
-13.7832
-13.705
-13.5737
-13.3827
-13.1257
-12.7969
-12.3919
-11.9085
-11.3478
-10.7153
-10.021
-9.27954
-8.5085
-7.72717
-6.95454
-6.2078
-5.50088
-4.84428
-4.24679
-3.71446
-3.24768
-2.84761
-2.52821
-2.31693
-2.27132
-2.47265
-2.97416
-3.75279
-4.70872
-5.71173
-6.64777
-7.42476
-7.96661
-8.2114
-8.09337
-7.62147
-6.8771
-5.97065
-5.00375
-4.04693
-3.14885
-2.31178
-1.58294
-0.829789
-0.389574
-9.49995
-9.5794
-9.66975
-9.76142
-9.84536
-9.91728
-9.97921
-10.0339
-10.0822
-10.1248
-10.1631
-10.1979
-10.2298
-10.2592
-10.2864
-10.3117
-10.3351
-10.3569
-10.3773
-10.3965
-10.4146
-10.4322
-10.4496
-10.4675
-10.4866
-10.5077
-10.532
-10.5605
-10.5946
-10.6357
-10.6851
-10.7442
-10.8142
-10.8963
-10.9913
-11.0997
-11.2215
-11.3566
-11.504
-11.6627
-11.831
-12.0068
-12.1879
-12.3717
-12.5554
-12.7361
-12.9108
-13.0764
-13.2298
-13.3676
-13.4863
-13.5823
-13.6515
-13.6896
-13.6919
-13.6534
-13.5684
-13.4312
-13.2357
-12.976
-12.6469
-12.2446
-11.7675
-11.217
-10.5987
-9.92214
-9.20104
-8.45197
-7.69291
-6.9417
-6.21461
-5.52498
-4.88329
-4.29831
-3.77611
-3.3184
-2.92888
-2.62151
-2.42137
-2.38236
-2.5782
-3.05607
-3.7933
-4.69685
-5.64492
-6.52856
-7.25947
-7.76723
-7.99175
-7.8736
-7.42165
-6.7103
-5.84116
-4.90918
-3.98132
-3.1053
-2.28358
-1.56581
-0.817736
-0.39139
-9.53772
-9.6066
-9.68523
-9.76598
-9.84205
-9.90987
-9.96981
-10.0234
-10.0714
-10.1144
-10.1532
-10.1887
-10.2214
-10.2516
-10.2797
-10.3059
-10.3303
-10.3532
-10.3748
-10.3953
-10.415
-10.4342
-10.4534
-10.4732
-10.4942
-10.5174
-10.5436
-10.574
-10.6098
-10.6522
-10.7026
-10.762
-10.8318
-10.9129
-11.0061
-11.1118
-11.2301
-11.3607
-11.5028
-11.6555
-11.817
-11.9856
-12.159
-12.3347
-12.5101
-12.6823
-12.8484
-13.0054
-13.1502
-13.2795
-13.3897
-13.4772
-13.5381
-13.5682
-13.5628
-13.5171
-13.4256
-13.283
-13.0836
-12.8219
-12.4935
-12.0949
-11.6251
-11.0858
-10.4825
-9.82435
-9.12422
-8.39757
-7.66122
-6.93189
-6.22496
-5.55328
-4.92723
-4.35557
-3.84453
-3.39708
-3.01905
-2.72439
-2.53597
-2.50342
-2.69246
-3.14405
-3.83636
-4.68391
-5.57394
-6.40306
-7.08686
-7.5601
-7.76457
-7.64691
-7.21563
-6.53812
-5.70722
-4.81115
-3.91327
-3.06021
-2.25476
-1.5486
-0.806538
-0.393193
-9.57117
-9.63179
-9.70089
-9.7726
-9.8417
-9.90522
-9.96274
-10.0149
-10.0623
-10.1052
-10.1444
-10.1804
-10.2137
-10.2446
-10.2735
-10.3005
-10.3259
-10.3499
-10.3727
-10.3945
-10.4156
-10.4364
-10.4573
-10.4789
-10.5019
-10.527
-10.5551
-10.5873
-10.6246
-10.6682
-10.7193
-10.7791
-10.8485
-10.9284
-11.0197
-11.1225
-11.2371
-11.3631
-11.4999
-11.6463
-11.801
-11.9621
-12.1275
-12.2948
-12.4616
-12.625
-12.7823
-12.9303
-13.0662
-13.1866
-13.2881
-13.3671
-13.4196
-13.4415
-13.4285
-13.3757
-13.2782
-13.1307
-12.9279
-12.6651
-12.3381
-11.9442
-11.4826
-10.9553
-10.3676
-9.7283
-9.04948
-8.34553
-7.63214
-6.92499
-6.23861
-5.58539
-4.97558
-4.41795
-3.91895
-3.48274
-3.11683
-2.83504
-2.65834
-2.63166
-2.81262
-3.23609
-3.88128
-4.67057
-5.50049
-6.27367
-6.90969
-7.34812
-7.5328
-7.416
-7.0056
-6.36212
-5.5698
-4.71019
-3.84297
-3.01361
-2.22522
-1.53118
-0.796027
-0.394753
-9.60101
-9.65511
-9.71644
-9.78063
-9.8436
-9.90292
-9.95778
-10.0083
-10.0548
-10.0974
-10.1366
-10.1729
-10.2067
-10.2382
-10.2677
-10.2956
-10.3219
-10.3469
-10.3709
-10.3939
-10.4165
-10.4388
-10.4614
-10.4847
-10.5095
-10.5363
-10.5662
-10.6
-10.6387
-10.6834
-10.7352
-10.795
-10.8639
-10.9426
-11.0318
-11.1318
-11.2426
-11.3639
-11.4952
-11.6353
-11.783
-11.9365
-12.0938
-12.2526
-12.4106
-12.565
-12.7132
-12.8521
-12.9789
-13.0902
-13.1828
-13.253
-13.2971
-13.311
-13.2905
-13.2309
-13.1276
-12.9757
-12.7703
-12.507
-12.1823
-11.7937
-11.341
-10.8262
-10.2546
-9.63453
-8.97718
-8.29602
-7.60568
-6.92085
-6.25528
-5.6209
-5.02783
-4.48482
-3.99858
-3.57437
-3.2209
-2.95179
-2.78634
-2.76454
-2.93622
-3.33041
-3.92745
-4.65742
-5.42614
-6.14265
-6.73072
-7.13419
-7.29931
-7.18344
-6.79367
-6.18382
-5.42988
-4.60683
-3.77068
-2.96553
-2.19488
-1.5134
-0.786052
-0.395876
-9.62784
-9.6767
-9.7317
-9.7896
-9.84722
-9.90256
-9.95469
-10.0034
-10.0487
-10.0908
-10.1299
-10.1663
-10.2004
-10.2324
-10.2626
-10.2912
-10.3184
-10.3444
-10.3694
-10.3937
-10.4175
-10.4413
-10.4654
-10.4904
-10.5168
-10.5454
-10.5769
-10.6121
-10.6521
-10.6977
-10.75
-10.8098
-10.878
-10.9554
-11.0424
-11.1394
-11.2464
-11.3631
-11.4888
-11.6226
-11.7633
-11.9091
-12.0583
-12.2086
-12.3576
-12.503
-12.6419
-12.7715
-12.8891
-12.9913
-13.0748
-13.1363
-13.172
-13.178
-13.1501
-13.0841
-12.9755
-12.8196
-12.6121
-12.349
-12.0271
-11.6446
-11.2013
-10.6995
-10.1443
-9.54345
-8.90758
-8.24915
-7.5818
-6.91931
-6.27468
-5.6594
-5.08343
-4.55551
-4.08261
-3.67092
-3.32998
-3.07311
-2.91804
-2.89991
-3.06118
-3.4255
-3.97427
-4.64492
-5.35227
-6.01202
-6.55243
-6.92099
-7.06676
-6.95166
-6.5818
-6.0047
-5.28846
-4.50167
-3.69666
-2.91606
-2.1637
-1.49515
-0.776467
-0.396409
-9.65213
-9.69673
-9.74655
-9.79918
-9.85214
-9.90379
-9.95323
-10.0001
-10.0441
-10.0855
-10.1242
-10.1606
-10.1949
-10.2273
-10.258
-10.2873
-10.3153
-10.3422
-10.3682
-10.3937
-10.4188
-10.4439
-10.4695
-10.496
-10.524
-10.5541
-10.587
-10.6236
-10.6646
-10.711
-10.7636
-10.8233
-10.8907
-10.9667
-11.0515
-11.1455
-11.2486
-11.3606
-11.4808
-11.6084
-11.742
-11.8803
-12.0213
-12.163
-12.3032
-12.4394
-12.5691
-12.6895
-12.7977
-12.8907
-12.9653
-13.0181
-13.0455
-13.0437
-13.0088
-12.9366
-12.823
-12.6637
-12.4547
-12.1923
-11.8739
-11.4978
-11.0643
-10.5758
-10.037
-9.45542
-8.84086
-8.20496
-7.56043
-6.92018
-6.29651
-5.70048
-5.14187
-4.62937
-4.17024
-3.77136
-3.44282
-3.19756
-3.05177
-3.03594
-3.18578
-3.52008
-4.02123
-4.63343
-5.28006
-5.88357
-6.37696
-6.71088
-6.83752
-6.72282
-6.37182
-5.82615
-5.14649
-4.39529
-3.62121
-2.86529
-2.13164
-1.47635
-0.767143
-0.396236
-9.67426
-9.71536
-9.7609
-9.8091
-9.85802
-9.90632
-9.95317
-9.99807
-10.0408
-10.0813
-10.1196
-10.1559
-10.1902
-10.2229
-10.2541
-10.2839
-10.3126
-10.3404
-10.3674
-10.3939
-10.4202
-10.4467
-10.4736
-10.5015
-10.5309
-10.5624
-10.5966
-10.6344
-10.6763
-10.7233
-10.7761
-10.8355
-10.9021
-10.9764
-11.059
-11.15
-11.2492
-11.3566
-11.4713
-11.5927
-11.7195
-11.8502
-11.9831
-12.1164
-12.2478
-12.375
-12.4954
-12.6066
-12.7056
-12.7895
-12.8552
-12.8994
-12.9186
-12.9093
-12.8676
-12.7896
-12.6714
-12.5091
-12.299
-12.0378
-11.7233
-11.3541
-10.9308
-10.4556
-9.93319
-9.37068
-8.77716
-8.16349
-7.54149
-6.92327
-6.32047
-5.74373
-5.20261
-4.70577
-4.26066
-3.8747
-3.55826
-3.32384
-3.18604
-3.1711
-3.30865
-3.61314
-4.06786
-4.62317
-5.21043
-5.75878
-6.20608
-6.5059
-6.61363
-6.49878
-6.1653
-5.6494
-5.00485
-4.28825
-3.54465
-2.81337
-2.09871
-1.45692
-0.75796
-0.395284
-9.69456
-9.73274
-9.77473
-9.81918
-9.86459
-9.90988
-9.95428
-9.99731
-10.0387
-10.0782
-10.116
-10.152
-10.1864
-10.2192
-10.2508
-10.2811
-10.3105
-10.339
-10.3669
-10.3944
-10.4218
-10.4494
-10.4776
-10.5068
-10.5375
-10.5703
-10.6057
-10.6444
-10.6871
-10.7346
-10.7874
-10.8464
-10.912
-10.9847
-11.065
-11.1529
-11.2483
-11.3511
-11.4605
-11.5757
-11.6957
-11.819
-11.9441
-12.069
-12.1917
-12.3099
-12.4213
-12.5234
-12.6133
-12.6882
-12.7452
-12.781
-12.7923
-12.7756
-12.7274
-12.644
-12.5216
-12.3567
-12.1459
-11.8864
-11.5762
-11.2142
-10.801
-10.3392
-9.83311
-9.28938
-8.71655
-8.1247
-7.52486
-6.92838
-6.34628
-5.78876
-5.26518
-4.78408
-4.35311
-3.98003
-3.67525
-3.45073
-3.31959
-3.30417
-3.42869
-3.70384
-4.11373
-4.61423
-5.14405
-5.63879
-6.04121
-6.30768
-6.39674
-6.28107
-5.96359
-5.47554
-4.86436
-4.1811
-3.4673
-2.76042
-2.06492
-1.43682
-0.748809
-0.393512
-9.71326
-9.74899
-9.78801
-9.82929
-9.87167
-9.91425
-9.95639
-9.99762
-10.0376
-10.0762
-10.1133
-10.149
-10.1832
-10.2162
-10.248
-10.2788
-10.3087
-10.3379
-10.3667
-10.3951
-10.4235
-10.4522
-10.4816
-10.512
-10.5438
-10.5777
-10.6141
-10.6537
-10.697
-10.7448
-10.7975
-10.8559
-10.9205
-10.9916
-11.0695
-11.1543
-11.2459
-11.3441
-11.4482
-11.5575
-11.6708
-11.7869
-11.9042
-12.021
-12.1352
-12.2447
-12.3472
-12.4403
-12.5213
-12.5875
-12.6359
-12.6635
-12.6671
-12.6434
-12.5891
-12.5005
-12.3744
-12.2073
-11.9962
-11.7387
-11.433
-11.0783
-10.6755
-10.227
-9.73693
-9.21163
-8.65904
-8.08855
-7.51043
-6.93532
-6.37365
-5.83521
-5.32908
-4.86373
-4.44688
-4.08648
-3.7928
-3.57717
-3.45137
-3.43417
-3.54505
-3.79152
-4.15845
-4.60657
-5.08129
-5.52437
-5.88336
-6.1174
-6.18808
-6.07087
-5.76774
-5.30548
-4.72572
-4.07434
-3.38946
-2.70661
-2.03031
-1.41603
-0.739596
-0.390916
-9.73057
-9.76423
-9.80074
-9.83933
-9.87907
-9.91925
-9.95933
-9.99884
-10.0375
-10.0751
-10.1115
-10.1468
-10.1809
-10.2139
-10.2459
-10.277
-10.3074
-10.3373
-10.3667
-10.396
-10.4254
-10.4551
-10.4854
-10.5169
-10.5498
-10.5846
-10.6219
-10.6622
-10.706
-10.7539
-10.8065
-10.8642
-10.9276
-10.9969
-11.0725
-11.1542
-11.2421
-11.3358
-11.4348
-11.5382
-11.645
-11.7541
-11.8639
-11.9726
-12.0785
-12.1795
-12.2734
-12.3577
-12.43
-12.4877
-12.5278
-12.5475
-12.5437
-12.5133
-12.4531
-12.3598
-12.2302
-12.0613
-11.8503
-11.5951
-11.2941
-10.947
-10.5545
-10.119
-9.64476
-9.13748
-8.60464
-8.05497
-7.49807
-6.9439
-6.40232
-5.88271
-5.39388
-4.94416
-4.54127
-4.19324
-3.91001
-3.70225
-3.5805
-3.56032
-3.65711
-3.8757
-4.20167
-4.60007
-5.02234
-5.41598
-5.73317
-5.93587
-5.98849
-5.86902
-5.57855
-5.13993
-4.58955
-3.96844
-3.31145
-2.65212
-1.99495
-1.39454
-0.73024
-0.387519
-9.74666
-9.77855
-9.81294
-9.84923
-9.88669
-9.92474
-9.96293
-10.0008
-10.0382
-10.0748
-10.1105
-10.1453
-10.1792
-10.2121
-10.2443
-10.2757
-10.3066
-10.337
-10.3671
-10.3971
-10.4273
-10.4579
-10.4892
-10.5216
-10.5554
-10.5911
-10.6291
-10.6699
-10.7141
-10.762
-10.8143
-10.8713
-10.9334
-11.0009
-11.0741
-11.1528
-11.237
-11.3263
-11.4201
-11.5178
-11.6184
-11.7206
-11.823
-11.924
-12.0219
-12.1146
-12.2
-12.2759
-12.3397
-12.3891
-12.4212
-12.4333
-12.4224
-12.3856
-12.3199
-12.2221
-12.0895
-11.9191
-11.7085
-11.4559
-11.1599
-10.8203
-10.438
-10.0155
-9.55665
-9.06692
-8.55329
-8.02388
-7.48764
-6.95392
-6.43202
-5.93093
-5.45916
-5.02484
-4.63566
-4.29959
-4.0261
-3.8252
-3.70628
-3.68205
-3.76441
-3.95601
-4.2431
-4.59454
-4.96718
-5.31383
-5.59101
-5.76353
-5.79847
-5.67606
-5.3966
-4.97947
-4.45634
-3.8638
-3.23355
-2.59711
-1.95889
-1.37238
-0.720673
-0.383368
-9.76166
-9.79204
-9.82462
-9.85894
-9.89441
-9.93058
-9.96707
-10.0035
-10.0397
-10.0753
-10.1103
-10.1446
-10.1782
-10.211
-10.2433
-10.2749
-10.3061
-10.337
-10.3677
-10.3984
-10.4293
-10.4607
-10.4928
-10.526
-10.5606
-10.597
-10.6357
-10.6769
-10.7213
-10.7691
-10.821
-10.8771
-10.9379
-11.0036
-11.0743
-11.15
-11.2305
-11.3155
-11.4044
-11.4966
-11.591
-11.6865
-11.7818
-11.8754
-11.9654
-12.0501
-12.1273
-12.195
-12.2507
-12.292
-12.3164
-12.3212
-12.3035
-12.2607
-12.1898
-12.088
-11.9526
-11.7811