/*--------------------------------*- C++ -*----------------------------------*\
| =========                 |                                                 |
| \\      /  F ield         | OpenFOAM: The Open Source CFD Toolbox           |
|  \\    /   O peration     | Version:  4.1                                   |
|   \\  /    A nd           | Web:      www.OpenFOAM.org                      |
|    \\/     M anipulation  |                                                 |
\*---------------------------------------------------------------------------*/
FoamFile
{
    version     2.0;
    format      ascii;
    class       surfaceScalarField;
    location    "300";
    object      phi;
}
// * * * * * * * * * * * * * * * * * * * * * * * * * * * * * * * * * * * * * //

dimensions      [0 3 -1 0 0 0 0];

internalField   nonuniform List<scalar> 
13452
(
5.98811e-05
3.8738e-07
5.9525e-05
3.56055e-07
5.92693e-05
2.5577e-07
5.90609e-05
2.08317e-07
5.88784e-05
1.82564e-07
5.87154e-05
1.63011e-07
5.85671e-05
1.4831e-07
5.84298e-05
1.37235e-07
5.83015e-05
1.28277e-07
5.81808e-05
1.20719e-07
5.80665e-05
1.14302e-07
5.79577e-05
1.08858e-07
5.78534e-05
1.04248e-07
5.7753e-05
1.00371e-07
5.76559e-05
9.7165e-08
5.75613e-05
9.45909e-08
5.74687e-05
9.2634e-08
5.73774e-05
9.13031e-08
5.72867e-05
9.06342e-08
5.7196e-05
9.06961e-08
5.71044e-05
9.16027e-08
5.70109e-05
9.35327e-08
5.69141e-05
9.67659e-08
5.68124e-05
1.01749e-07
5.67031e-05
1.09224e-07
5.65827e-05
1.20487e-07
5.64447e-05
1.38009e-07
5.62781e-05
1.66514e-07
5.60603e-05
2.17818e-07
5.57479e-05
3.124e-07
5.52128e-05
5.3509e-07
5.41567e-05
1.05613e-06
1.54656e-06
5.26101e-05
6.20749e-05
3.0282e-07
6.19987e-05
4.32299e-07
6.18514e-05
4.02988e-07
6.1688e-05
3.71732e-07
6.15286e-05
3.41973e-07
6.13788e-05
3.12834e-07
6.12388e-05
2.88264e-07
6.11077e-05
2.68402e-07
6.09841e-05
2.51862e-07
6.0867e-05
2.37783e-07
6.07556e-05
2.25737e-07
6.0649e-05
2.15413e-07
6.05467e-05
2.06575e-07
6.0448e-05
1.99062e-07
6.03524e-05
1.92766e-07
6.02594e-05
1.87623e-07
6.01684e-05
1.83608e-07
6.0079e-05
1.80734e-07
5.99906e-05
1.79058e-07
5.99026e-05
1.78689e-07
5.98144e-05
1.79808e-07
5.97252e-05
1.82695e-07
5.96342e-05
1.87778e-07
5.95402e-05
1.95717e-07
5.94419e-05
2.07569e-07
5.93373e-05
2.25038e-07
5.92241e-05
2.51232e-07
5.90995e-05
2.91118e-07
5.89603e-05
3.5697e-07
5.88101e-05
4.62644e-07
5.86719e-05
6.73296e-07
5.87133e-05
1.0147e-06
1.65158e-06
5.86083e-05
6.38373e-05
2.26921e-07
6.38684e-05
4.0124e-07
6.38442e-05
4.27153e-07
6.37846e-05
4.31333e-07
6.3704e-05
4.22548e-07
6.36131e-05
4.03716e-07
6.35184e-05
3.83048e-07
6.34229e-05
3.63872e-07
6.33283e-05
3.46463e-07
6.32353e-05
3.30796e-07
6.31441e-05
3.16883e-07
6.30549e-05
3.04648e-07
6.29675e-05
2.93984e-07
6.28817e-05
2.8481e-07
6.27974e-05
2.77078e-07
6.27143e-05
2.7077e-07
6.2632e-05
2.65904e-07
6.25502e-05
2.62537e-07
6.24685e-05
2.60782e-07
6.23863e-05
2.60813e-07
6.23032e-05
2.629e-07
6.22185e-05
2.67436e-07
6.21313e-05
2.75008e-07
6.20405e-05
2.86489e-07
6.19448e-05
3.03223e-07
6.18426e-05
3.27274e-07
6.17317e-05
3.62132e-07
6.16099e-05
4.1296e-07
6.14763e-05
4.90498e-07
6.13335e-05
6.05473e-07
6.12117e-05
7.95094e-07
6.11752e-05
1.05119e-06
1.49484e-06
6.13319e-05
6.5637e-05
1.73007e-07
6.56888e-05
3.49415e-07
6.5712e-05
4.04004e-07
6.57122e-05
4.31092e-07
6.56924e-05
4.42364e-07
6.56569e-05
4.39214e-07
6.56106e-05
4.29371e-07
6.5557e-05
4.17426e-07
6.54987e-05
4.04809e-07
6.54372e-05
3.92277e-07
6.53737e-05
3.80403e-07
6.53088e-05
3.69507e-07
6.5243e-05
3.59746e-07
6.51766e-05
3.51228e-07
6.51097e-05
3.4404e-07
6.50422e-05
3.38273e-07
6.4974e-05
3.34034e-07
6.49051e-05
3.31462e-07
6.48351e-05
3.30745e-07
6.47638e-05
3.32145e-07
6.46907e-05
3.36022e-07
6.46152e-05
3.42883e-07
6.45368e-05
3.53445e-07
6.44546e-05
3.68739e-07
6.43675e-05
3.90278e-07
6.42745e-05
4.20275e-07
6.41745e-05
4.62176e-07
6.40667e-05
5.20747e-07
6.39529e-05
6.04284e-07
6.3838e-05
7.20404e-07
6.37447e-05
8.88373e-07
6.36984e-05
1.09746e-06
1.38811e-06
6.38051e-05
6.74945e-05
1.35248e-07
6.7543e-05
3.00923e-07
6.75777e-05
3.69384e-07
6.76008e-05
4.07924e-07
6.76119e-05
4.31329e-07
6.76107e-05
4.4033e-07
6.75993e-05
4.40815e-07
6.75795e-05
4.37252e-07
6.75529e-05
4.31397e-07
6.75209e-05
4.24272e-07
6.74846e-05
4.16726e-07
6.74447e-05
4.09339e-07
6.7402e-05
4.02487e-07
6.73568e-05
3.96446e-07
6.73094e-05
3.91447e-07
6.72599e-05
3.87697e-07
6.72086e-05
3.85403e-07
6.71552e-05
3.84793e-07
6.70998e-05
3.86142e-07
6.70422e-05
3.89794e-07
6.6982e-05
3.96194e-07
6.6919e-05
4.05937e-07
6.68526e-05
4.1983e-07
6.67823e-05
4.38981e-07
6.67077e-05
4.64941e-07
6.66281e-05
4.99854e-07
6.65435e-05
5.46788e-07
6.64545e-05
6.09688e-07
6.63645e-05
6.94339e-07
6.62794e-05
8.05457e-07
6.62163e-05
9.51479e-07
6.61911e-05
1.12273e-06
1.32454e-06
6.62546e-05
6.94108e-05
1.08486e-07
6.94518e-05
2.59879e-07
6.94863e-05
3.34888e-07
6.9515e-05
3.7925e-07
6.95373e-05
4.09031e-07
6.9552e-05
4.25597e-07
6.95595e-05
4.33382e-07
6.95603e-05
4.36435e-07
6.95551e-05
4.36551e-07
6.95447e-05
4.34748e-07
6.95295e-05
4.31898e-07
6.95102e-05
4.28663e-07
6.94871e-05
4.25512e-07
6.94608e-05
4.22813e-07
6.94313e-05
4.20885e-07
6.9399e-05
4.20015e-07
6.93639e-05
4.20487e-07
6.93261e-05
4.22601e-07
6.92856e-05
4.26698e-07
6.92422e-05
4.33187e-07
6.91958e-05
4.42575e-07
6.91462e-05
4.55509e-07
6.90932e-05
4.72831e-07
6.90366e-05
4.95648e-07
6.89761e-05
5.25428e-07
6.89118e-05
5.64083e-07
6.88445e-05
6.14123e-07
6.87757e-05
6.78499e-07
6.87092e-05
7.6084e-07
6.86512e-05
8.63486e-07
6.86138e-05
9.88826e-07
6.86078e-05
1.12872e-06
1.27737e-06
6.8655e-05
7.13856e-05
8.91953e-08
7.14196e-05
2.25858e-07
7.14512e-05
3.03324e-07
7.14794e-05
3.51022e-07
7.15042e-05
3.84267e-07
7.15244e-05
4.0541e-07
7.15398e-05
4.17962e-07
7.15507e-05
4.25566e-07
7.15572e-05
4.30064e-07
7.15595e-05
4.32455e-07
7.15578e-05
4.3357e-07
7.15524e-05
4.34069e-07
7.15435e-05
4.34441e-07
7.15312e-05
4.35083e-07
7.15157e-05
4.36344e-07
7.14972e-05
4.38553e-07
7.14756e-05
4.42031e-07
7.14511e-05
4.4712e-07
7.14236e-05
4.54201e-07
7.13931e-05
4.63715e-07
7.13595e-05
4.76198e-07
7.13227e-05
4.92307e-07
7.12826e-05
5.12866e-07
7.12394e-05
5.38909e-07
7.11931e-05
5.71733e-07
7.11442e-05
6.12923e-07
7.1094e-05
6.64367e-07
7.10444e-05
7.28057e-07
7.09993e-05
8.05954e-07
7.09641e-05
8.98702e-07
7.09473e-05
1.00567e-06
7.09558e-05
1.12013e-06
1.23416e-06
7.09991e-05
7.34195e-05
7.49943e-08
7.34476e-05
1.97758e-07
7.34758e-05
2.75056e-07
7.35021e-05
3.24726e-07
7.35263e-05
3.60061e-07
7.35476e-05
3.84183e-07
7.35655e-05
4.00006e-07
7.35803e-05
4.10774e-07
7.3592e-05
4.18376e-07
7.36006e-05
4.23845e-07
7.36062e-05
4.27991e-07
7.36088e-05
4.31465e-07
7.36085e-05
4.34763e-07
7.36053e-05
4.38286e-07
7.35992e-05
4.42394e-07
7.35904e-05
4.47424e-07
7.35787e-05
4.53716e-07
7.35642e-05
4.61622e-07
7.35468e-05
4.71537e-07
7.35266e-05
4.83908e-07
7.35036e-05
4.99262e-07
7.34777e-05
5.18231e-07
7.34489e-05
5.41573e-07
7.34177e-05
5.70195e-07
7.33842e-05
6.05171e-07
7.33494e-05
6.47718e-07
7.33147e-05
6.99136e-07
7.32821e-05
7.60591e-07
7.32552e-05
8.32861e-07
7.32384e-05
9.15512e-07
7.32375e-05
1.0066e-06
7.32569e-05
1.10065e-06
1.19056e-06
7.33005e-05
7.55132e-05
6.42895e-08
7.55364e-05
1.74502e-07
7.55616e-05
2.49892e-07
7.55858e-05
3.00529e-07
7.56087e-05
3.37199e-07
7.56294e-05
3.63412e-07
7.56477e-05
3.8168e-07
7.56637e-05
3.94842e-07
7.56773e-05
4.04781e-07
7.56885e-05
4.1258e-07
7.56975e-05
4.1905e-07
7.57041e-05
4.24846e-07
7.57084e-05
4.30474e-07
7.57103e-05
4.36344e-07
7.57099e-05
4.4282e-07
7.57071e-05
4.50244e-07
7.57018e-05
4.58954e-07
7.56942e-05
4.69304e-07
7.5684e-05
4.81681e-07
7.56714e-05
4.96516e-07
7.56564e-05
5.14304e-07
7.5639e-05
5.35617e-07
7.56194e-05
5.61117e-07
7.55981e-05
5.91554e-07
7.55755e-05
6.27757e-07
7.55526e-05
6.70582e-07
7.55309e-05
7.20819e-07
7.55126e-05
7.78989e-07
7.55003e-05
8.45089e-07
7.54977e-05
9.18088e-07
7.55087e-05
9.95643e-07
7.5536e-05
1.07334e-06
1.14559e-06
7.5581e-05
7.76679e-05
5.60167e-08
7.76872e-05
1.55152e-07
7.77096e-05
2.27535e-07
7.77318e-05
2.78305e-07
7.77532e-05
3.15774e-07
7.77731e-05
3.43487e-07
7.77911e-05
3.63677e-07
7.78072e-05
3.78791e-07
7.78213e-05
3.90638e-07
7.78336e-05
4.00334e-07
7.78439e-05
4.08694e-07
7.78524e-05
4.16378e-07
7.7859e-05
4.23906e-07
7.78636e-05
4.31698e-07
7.78663e-05
4.40124e-07
7.7867e-05
4.49526e-07
7.78657e-05
4.60243e-07
7.78624e-05
4.72617e-07
7.78571e-05
4.87016e-07
7.78498e-05
5.03843e-07
7.78405e-05
5.23541e-07
7.78295e-05
5.46608e-07
7.78171e-05
5.73587e-07
7.78036e-05
6.05062e-07
7.77897e-05
6.41622e-07
7.77765e-05
6.83802e-07
7.77653e-05
7.31981e-07
7.77581e-05
7.86212e-07
7.77572e-05
8.46023e-07
7.77651e-05
9.10112e-07
7.77846e-05
9.76184e-07
7.78172e-05
1.04073e-06
1.09958e-06
7.78632e-05
7.98849e-05
4.94606e-08
7.99011e-05
1.38925e-07
7.9921e-05
2.0767e-07
7.99414e-05
2.57882e-07
7.99615e-05
2.95704e-07
7.99805e-05
3.24459e-07
7.9998e-05
3.46163e-07
8.00139e-05
3.62913e-07
8.00281e-05
3.76396e-07
8.00407e-05
3.87724e-07
8.00517e-05
3.97712e-07
8.00611e-05
4.07016e-07
8.00688e-05
4.16164e-07
8.00749e-05
4.25585e-07
8.00794e-05
4.35651e-07
8.00822e-05
4.46706e-07
8.00834e-05
4.59079e-07
8.00829e-05
4.73099e-07
8.00808e-05
4.89108e-07
8.00772e-05
5.0747e-07
8.00722e-05
5.28568e-07
8.0066e-05
5.52814e-07
8.00589e-05
5.80632e-07
8.00515e-05
6.12441e-07
8.00445e-05
6.48614e-07
8.00389e-05
6.89421e-07
8.0036e-05
7.34931e-07
8.00373e-05
7.84887e-07
8.00448e-05
8.38562e-07
8.00603e-05
8.94601e-07
8.00855e-05
9.50948e-07
8.01214e-05
1.00485e-06
1.05325e-06
8.01677e-05
8.21658e-05
4.41363e-08
8.21795e-05
1.25179e-07
8.21972e-05
1.89988e-07
8.2216e-05
2.3909e-07
8.22348e-05
2.76873e-07
8.2253e-05
3.06281e-07
8.227e-05
3.29143e-07
8.22857e-05
3.47255e-07
8.22999e-05
3.62152e-07
8.23127e-05
3.74916e-07
8.23241e-05
3.86345e-07
8.2334e-05
3.97086e-07
8.23425e-05
4.07661e-07
8.23496e-05
4.18504e-07
8.23553e-05
4.29985e-07
8.23595e-05
4.42441e-07
8.23624e-05
4.5619e-07
8.2364e-05
4.71542e-07
8.23643e-05
4.88807e-07
8.23635e-05
5.08302e-07
8.23617e-05
5.30349e-07
8.23592e-05
5.5527e-07
8.23565e-05
5.83374e-07
8.2354e-05
6.14932e-07
8.23525e-05
6.50135e-07
8.23528e-05
6.89045e-07
8.23563e-05
7.31515e-07
8.2364e-05
7.77101e-07
8.23776e-05
8.24974e-07
8.23984e-05
8.73844e-07
8.24274e-05
9.21957e-07
8.24651e-05
9.67175e-07
1.00729e-06
8.2511e-05
8.45122e-05
3.97115e-08
8.4524e-05
1.13398e-07
8.45398e-05
1.74191e-07
8.45571e-05
2.21762e-07
8.45748e-05
2.5916e-07
8.45922e-05
2.88883e-07
8.46088e-05
3.1258e-07
8.46242e-05
3.31793e-07
8.46385e-05
3.47895e-07
8.46515e-05
3.61913e-07
8.46632e-05
3.74621e-07
8.46737e-05
3.86641e-07
8.46828e-05
3.98488e-07
8.46908e-05
4.10586e-07
8.46974e-05
4.23298e-07
8.47029e-05
4.36951e-07
8.47073e-05
4.51844e-07
8.47106e-05
4.68262e-07
8.47129e-05
4.86481e-07
8.47144e-05
5.06768e-07
8.47154e-05
5.29379e-07
8.47161e-05
5.54554e-07
8.4717e-05
5.82495e-07
8.47186e-05
6.13347e-07
8.47216e-05
6.47157e-07
8.47268e-05
6.83834e-07
8.47352e-05
7.23093e-07
8.47479e-05
7.64395e-07
8.4766e-05
8.06902e-07
8.47904e-05
8.49454e-07
8.48217e-05
8.90601e-07
8.48602e-05
9.28693e-07
9.62139e-07
8.49053e-05
8.69259e-05
3.59545e-08
8.69361e-05
1.03173e-07
8.69503e-05
1.59999e-07
8.69664e-05
2.05733e-07
8.69831e-05
2.42443e-07
8.69998e-05
2.72185e-07
8.70159e-05
2.96419e-07
8.70313e-05
3.1648e-07
8.70456e-05
3.33578e-07
8.70588e-05
3.48672e-07
8.70709e-05
3.62496e-07
8.70819e-05
3.75644e-07
8.70918e-05
3.88612e-07
8.71006e-05
4.0181e-07
8.71083e-05
4.15587e-07
8.7115e-05
4.30251e-07
8.71208e-05
4.46081e-07
8.71257e-05
4.63331e-07
8.71299e-05
4.82239e-07
8.71337e-05
5.03023e-07
8.71372e-05
5.25876e-07
8.71408e-05
5.5096e-07
8.71449e-05
5.78387e-07
8.715e-05
6.08197e-07
8.71569e-05
6.4033e-07
8.71661e-05
6.74593e-07
8.71786e-05
7.10621e-07
8.71951e-05
7.47846e-07
8.72166e-05
7.85477e-07
8.72435e-05
8.22509e-07
8.72763e-05
8.57763e-07
8.73151e-05
8.89979e-07
9.1801e-07
8.73592e-05
8.94088e-05
3.27005e-08
8.94178e-05
9.41752e-08
8.94306e-05
1.47156e-07
8.94455e-05
1.90837e-07
8.94614e-05
2.26601e-07
8.94775e-05
2.56096e-07
8.94933e-05
2.80599e-07
8.95085e-05
3.01263e-07
8.95229e-05
3.1915e-07
8.95365e-05
3.35135e-07
8.95491e-05
3.49907e-07
8.95607e-05
3.64028e-07
8.95713e-05
3.77964e-07
8.9581e-05
3.92105e-07
8.95898e-05
4.06781e-07
8.95978e-05
4.22279e-07
8.9605e-05
4.3885e-07
8.96116e-05
4.56717e-07
8.96178e-05
4.76078e-07
8.96237e-05
4.97101e-07
8.96297e-05
5.19924e-07
8.9636e-05
5.44639e-07
8.96431e-05
5.71283e-07
8.96515e-05
5.99817e-07
8.96617e-05
6.30105e-07
8.96744e-05
6.6189e-07
8.96903e-05
6.94773e-07
8.97099e-05
7.282e-07
8.97339e-05
7.61456e-07
8.97627e-05
7.93693e-07
8.97965e-05
8.23968e-07
8.98352e-05
8.51319e-07
8.74925e-07
8.98783e-05
9.19627e-05
2.98292e-08
9.19708e-05
8.61452e-08
9.19825e-05
1.35429e-07
9.19964e-05
1.76913e-07
9.20115e-05
2.1151e-07
9.20271e-05
2.40522e-07
9.20426e-05
2.65047e-07
9.20578e-05
2.86081e-07
9.20724e-05
3.04549e-07
9.20863e-05
3.2124e-07
9.20994e-05
3.36789e-07
9.21117e-05
3.51719e-07
9.21232e-05
3.66465e-07
9.21339e-05
3.8139e-07
9.21439e-05
3.968e-07
9.21533e-05
4.12955e-07
9.2162e-05
4.30079e-07
9.21704e-05
4.48362e-07
9.21785e-05
4.6796e-07
9.21866e-05
4.88999e-07
9.2195e-05
5.11563e-07
9.22039e-05
5.35687e-07
9.22138e-05
5.6135e-07
9.22252e-05
5.88454e-07
9.22385e-05
6.16814e-07
9.22542e-05
6.46141e-07
9.2273e-05
6.76036e-07
9.22952e-05
7.0598e-07
9.23213e-05
7.3535e-07
9.23516e-05
7.6344e-07
9.2386e-05
7.89505e-07
9.24245e-05
8.12817e-07
8.3279e-07
9.24667e-05
9.45897e-05
2.72508e-08
9.4597e-05
7.88733e-08
9.46078e-05
1.24612e-07
9.46209e-05
1.63801e-07
9.46354e-05
1.97045e-07
9.46506e-05
2.25362e-07
9.46659e-05
2.49684e-07
9.46811e-05
2.70865e-07
9.4696e-05
2.89711e-07
9.47103e-05
3.06921e-07
9.4724e-05
3.23073e-07
9.47371e-05
3.38646e-07
9.47495e-05
3.54039e-07
9.47613e-05
3.69585e-07
9.47726e-05
3.85563e-07
9.47833e-05
4.02204e-07
9.47937e-05
4.19701e-07
9.48038e-05
4.3821e-07
9.48139e-05
4.57853e-07
9.48242e-05
4.78711e-07
9.4835e-05
5.00826e-07
9.48465e-05
5.24188e-07
9.48591e-05
5.48729e-07
9.48732e-05
5.74313e-07
9.48893e-05
6.00729e-07
9.49078e-05
6.27678e-07
9.4929e-05
6.54779e-07
9.49534e-05
6.81566e-07
9.49813e-05
7.07506e-07
9.50127e-05
7.32021e-07
9.50477e-05
7.54529e-07
9.5086e-05
7.74478e-07
7.91456e-07
9.51274e-05
9.72919e-05
2.48957e-08
9.72986e-05
7.21891e-08
9.73086e-05
1.14521e-07
9.73211e-05
1.51348e-07
9.73351e-05
1.83081e-07
9.73499e-05
2.10512e-07
9.73652e-05
2.34421e-07
9.73805e-05
2.55541e-07
9.73957e-05
2.74565e-07
9.74105e-05
2.92108e-07
9.74248e-05
3.08688e-07
9.74388e-05
3.24736e-07
9.74522e-05
3.40612e-07
9.74652e-05
3.56617e-07
9.74777e-05
3.72997e-07
9.749e-05
3.89956e-07
9.7502e-05
4.07655e-07
9.7514e-05
4.26219e-07
9.75261e-05
4.45732e-07
9.75386e-05
4.66244e-07
9.75517e-05
4.87757e-07
9.75656e-05
5.10226e-07
9.75808e-05
5.33553e-07
9.75975e-05
5.5758e-07
9.76162e-05
5.82082e-07
9.76371e-05
6.06772e-07
9.76606e-05
6.31295e-07
9.76869e-05
6.55245e-07
9.77162e-05
6.78173e-07
9.77486e-05
6.99614e-07
9.7784e-05
7.19113e-07
9.78223e-05
7.36257e-07
7.50758e-07
9.7863e-05
0.000100071
2.27087e-08
0.000100078
6.59514e-08
0.000100087
1.04989e-07
0.000100099
1.39405e-07
0.000100113
1.69489e-07
0.000100127
1.95859e-07
0.000100142
2.19163e-07
0.000100158
2.40024e-07
0.000100174
2.59035e-07
0.000100189
2.76729e-07
0.000100204
2.93562e-07
0.000100219
3.09917e-07
0.000100233
3.26113e-07
0.000100248
3.42416e-07
0.000100262
3.5904e-07
0.000100275
3.76157e-07
0.000100289
3.93898e-07
0.000100303
4.12358e-07
0.000100317
4.31592e-07
0.000100332
4.51617e-07
0.000100347
4.72408e-07
0.000100363
4.93893e-07
0.000100381
5.15955e-07
0.0001004
5.38425e-07
0.000100421
5.6108e-07
0.000100444
5.83651e-07
0.00010047
6.0582e-07
0.000100498
6.27237e-07
0.000100528
6.47531e-07
0.000100562
6.6633e-07
0.000100597
6.83286e-07
0.000100636
6.98085e-07
7.10535e-07
0.000100676
0.00010293
2.06447e-08
0.000102936
6.00413e-08
0.000102945
9.58698e-08
0.000102957
1.2783e-07
0.00010297
1.56142e-07
0.000102985
1.8129e-07
0.000103
2.03809e-07
0.000103016
2.24225e-07
0.000103032
2.43037e-07
0.000103048
2.60704e-07
0.000103064
2.7762e-07
0.00010308
2.94118e-07
0.000103095
3.10475e-07
0.000103111
3.26919e-07
0.000103126
3.43633e-07
0.000103142
3.60757e-07
0.000103157
3.78395e-07
0.000103173
3.96613e-07
0.000103189
4.15438e-07
0.000103206
4.34863e-07
0.000103223
4.5484e-07
0.000103242
4.75283e-07
0.000103262
4.96061e-07
0.000103283
5.17005e-07
0.000103306
5.37903e-07
0.000103331
5.58509e-07
0.000103359
5.78544e-07
0.000103388
5.97712e-07
0.00010342
6.1571e-07
0.000103454
6.32245e-07
0.00010349
6.47047e-07
0.000103529
6.59887e-07
6.70636e-07
0.000103569
0.000105871
1.86653e-08
0.000105876
5.43556e-08
0.000105885
8.7027e-08
0.000105897
1.16485e-07
0.00010591
1.4291e-07
0.000105924
1.66687e-07
0.00010594
1.88252e-07
0.000105956
2.08045e-07
0.000105973
2.26483e-07
0.000105989
2.43952e-07
0.000106006
2.60785e-07
0.000106023
2.77266e-07
0.00010604
2.93629e-07
0.000106057
3.10066e-07
0.000106074
3.26725e-07
0.000106091
3.43719e-07
0.000106108
3.61122e-07
0.000106126
3.78974e-07
0.000106144
3.97283e-07
0.000106163
4.16019e-07
0.000106182
4.35121e-07
0.000106203
4.54489e-07
0.000106225
4.73992e-07
0.000106249
4.93464e-07
0.000106274
5.1271e-07
0.000106301
5.31509e-07
0.00010633
5.49622e-07
0.000106361
5.66803e-07
0.000106394
5.82806e-07
0.000106429
5.974e-07
0.000106465
6.10383e-07
0.000106504
6.21583e-07
6.30923e-07
0.000106543
0.000108895
1.67372e-08
0.000108901
4.88025e-08
0.00010891
7.83358e-08
0.000108921
1.05236e-07
0.000108934
1.29662e-07
0.000108949
1.51925e-07
0.000108965
1.72378e-07
0.000108981
1.91381e-07
0.000108999
2.09278e-07
0.000109016
2.26384e-07
0.000109034
2.42977e-07
0.000109052
2.59289e-07
0.00010907
2.75512e-07
0.000109088
2.91801e-07
0.000109107
3.08272e-07
0.000109125
3.25009e-07
0.000109145
3.42061e-07
0.000109164
3.59445e-07
0.000109184
3.7715e-07
0.000109205
3.95131e-07
0.000109227
4.13316e-07
0.00010925
4.31602e-07
0.000109274
4.49857e-07
0.000109299
4.67927e-07
0.000109327
4.85635e-07
0.000109355
5.02786e-07
0.000109386
5.1918e-07
0.000109418
5.34611e-07
0.000109452
5.48884e-07
0.000109487
5.61819e-07
0.000109525
5.73264e-07
0.000109563
5.83094e-07
5.91268e-07
0.000109603
0.000112006
1.48299e-08
0.000112012
4.32979e-08
0.000112021
6.96773e-08
0.000112032
9.39491e-08
0.000112045
1.16265e-07
0.00011206
1.36876e-07
0.000112077
1.56066e-07
0.000112094
1.74122e-07
0.000112112
1.91319e-07
0.00011213
2.07909e-07
0.000112149
2.24112e-07
0.000112168
2.40112e-07
0.000112188
2.56059e-07
0.000112208
2.7207e-07
0.000112228
2.88232e-07
0.000112248
3.046e-07
0.000112269
3.212e-07
0.00011229
3.38031e-07
0.000112312
3.55064e-07
0.000112335
3.72245e-07
0.000112359
3.89493e-07
0.000112384
4.06706e-07
0.00011241
4.23758e-07
0.000112437
4.40506e-07
0.000112466
4.56793e-07
0.000112497
4.72452e-07
0.000112529
4.87313e-07
0.000112562
5.0121e-07
0.000112597
5.13987e-07
0.000112633
5.25507e-07
0.000112671
5.35655e-07
0.000112709
5.44344e-07
5.51556e-07
0.000112749
0.000115206
1.29148e-08
0.000115212
3.77614e-08
0.000115221
6.09355e-08
0.000115232
8.24917e-08
0.000115246
1.0258e-07
0.000115261
1.21405e-07
0.000115278
1.39187e-07
0.000115296
1.56149e-07
0.000115315
1.725e-07
0.000115334
1.8843e-07
0.000115354
2.04104e-07
0.000115375
2.19659e-07
0.000115396
2.35205e-07
0.000115417
2.50822e-07
0.000115439
2.66567e-07
0.000115461
2.82468e-07
0.000115483
2.98533e-07
0.000115507
3.14741e-07
0.000115531
3.31053e-07
0.000115556
3.47404e-07
0.000115581
3.63713e-07
0.000115608
3.79878e-07
0.000115636
3.95782e-07
0.000115665
4.11295e-07
0.000115696
4.2628e-07
0.000115728
4.40594e-07
0.000115761
4.54096e-07
0.000115796
4.66652e-07
0.000115831
4.7814e-07
0.000115868
4.88455e-07
0.000115907
4.97514e-07
0.000115946
5.05255e-07
5.11679e-07
0.000115986
0.000118498
1.09637e-08
0.000118503
3.21132e-08
0.000118512
5.19931e-08
0.000118524
7.07255e-08
0.000118538
8.8463e-08
0.000118554
1.05368e-07
0.000118572
1.21606e-07
0.000118591
1.37334e-07
0.000118611
1.52703e-07
0.000118631
1.67841e-07
0.000118652
1.82861e-07
0.000118674
1.97853e-07
0.000118696
2.12884e-07
0.000118719
2.28004e-07
0.000118743
2.43238e-07
0.000118767
2.58592e-07
0.000118791
2.74053e-07
0.000118816
2.89587e-07
0.000118842
3.05143e-07
0.000118869
3.20653e-07
0.000118896
3.36033e-07
0.000118925
3.51187e-07
0.000118955
3.66005e-07
0.000118986
3.80374e-07
0.000119018
3.94172e-07
0.000119051
4.07281e-07
0.000119086
4.19583e-07
0.000119121
4.30973e-07
0.000119158
4.41354e-07
0.000119196
4.50647e-07
0.000119235
4.58795e-07
0.000119274
4.65752e-07
4.71536e-07
0.000119314
0.000121883
8.94742e-09
0.000121889
2.62703e-08
0.000121898
4.27268e-08
0.000121911
5.85039e-08
0.000121925
7.3757e-08
0.000121942
8.86103e-08
0.000121961
1.03172e-07
0.00012198
1.17541e-07
0.000122001
1.31803e-07
0.000122023
1.46032e-07
0.000122046
1.60286e-07
0.000122069
1.74609e-07
0.000122093
1.89031e-07
0.000122117
2.03565e-07
0.000122142
2.1821e-07
0.000122168
2.3295e-07
0.000122194
2.47754e-07
0.000122221
2.62577e-07
0.000122249
2.77359e-07
0.000122278
2.92028e-07
0.000122307
3.06502e-07
0.000122338
3.2069e-07
0.000122369
3.34492e-07
0.000122402
3.47806e-07
0.000122435
3.60531e-07
0.00012247
3.72565e-07
0.000122506
3.83813e-07
0.000122543
3.94191e-07
0.00012258
4.03625e-07
0.000122619
4.12057e-07
0.000122658
4.19445e-07
0.000122698
4.25762e-07
4.31031e-07
0.000122739
0.000125366
6.83394e-09
0.000125372
2.01419e-08
0.000125381
3.30012e-08
0.000125394
4.5665e-08
0.00012541
5.82904e-08
0.000125427
7.09597e-08
0.000125447
8.37227e-08
0.000125468
9.66159e-08
0.00012549
1.09665e-07
0.000125513
1.22883e-07
0.000125537
1.36276e-07
0.000125562
1.49843e-07
0.000125587
1.63573e-07
0.000125613
1.77449e-07
0.00012564
1.91444e-07
0.000125668
2.0552e-07
0.000125696
2.1963e-07
0.000125725
2.33719e-07
0.000125754
2.47722e-07
0.000125785
2.61563e-07
0.000125816
2.75163e-07
0.000125848
2.88435e-07
0.000125881
3.01292e-07
0.000125916
3.13643e-07
0.000125951
3.25401e-07
0.000125987
3.36481e-07
0.000126024
3.46807e-07
0.000126062
3.56313e-07
0.0001261
3.64942e-07
0.00012614
3.72652e-07
0.00012618
3.79414e-07
0.00012622
3.85212e-07
3.90075e-07
0.000126261
0.000128947
4.58654e-09
0.000128954
1.3623e-08
0.000128964
2.26606e-08
0.000128978
3.20241e-08
0.000128994
4.18681e-08
0.000129013
5.22239e-08
0.000129034
6.30755e-08
0.000129056
7.43931e-08
0.000129079
8.61374e-08
0.000129104
9.82622e-08
0.00012913
1.10719e-07
0.000129156
1.23459e-07
0.000129183
1.36436e-07
0.000129211
1.496e-07
0.000129239
1.62899e-07
0.000129269
1.76276e-07
0.000129299
1.89671e-07
0.000129329
2.03018e-07
0.000129361
2.16247e-07
0.000129393
2.29282e-07
0.000129426
2.42047e-07
0.00012946
2.54462e-07
0.000129495
2.66446e-07
0.000129531
2.77922e-07
0.000129567
2.88814e-07
0.000129605
2.99053e-07
0.000129643
3.08577e-07
0.000129682
3.17335e-07
0.000129722
3.25283e-07
0.000129762
3.32393e-07
0.000129803
3.38645e-07
0.000129844
3.4403e-07
3.48582e-07
0.000129885
0.000132631
2.1603e-09
0.000132639
6.58552e-09
0.00013265
1.15169e-08
0.000132664
1.73616e-08
0.000132682
2.42621e-08
0.000132702
3.21807e-08
0.000132724
4.10224e-08
0.000132748
5.06836e-08
0.000132773
6.10554e-08
0.000132799
7.20267e-08
0.000132826
8.34927e-08
0.000132854
9.53591e-08
0.000132883
1.0754e-07
0.000132913
1.19957e-07
0.000132943
1.32532e-07
0.000132974
1.45191e-07
0.000133006
1.57862e-07
0.000133039
1.70472e-07
0.000133072
1.82944e-07
0.000133106
1.95206e-07
0.000133141
2.07182e-07
0.000133177
2.18798e-07
0.000133213
2.29982e-07
0.00013325
2.40667e-07
0.000133288
2.50789e-07
0.000133327
2.6029e-07
0.000133367
2.69122e-07
0.000133407
2.77243e-07
0.000133447
2.84622e-07
0.000133489
2.91237e-07
0.00013353
2.9708e-07
0.000133572
3.02145e-07
3.06466e-07
0.000133614
0.000136421
-5.02662e-10
0.000136429
-1.13532e-09
0.000136441
-6.68269e-10
0.000136457
1.40676e-09
0.000136476
5.19891e-09
0.000136497
1.05691e-08
0.000136521
1.7323e-08
0.000136547
2.52728e-08
0.000136573
3.42319e-08
0.000136601
4.40175e-08
0.00013663
5.44654e-08
0.00013666
6.54336e-08
0.000136691
7.67988e-08
0.000136723
8.84515e-08
0.000136755
1.00293e-07
0.000136788
1.12233e-07
0.000136822
1.24187e-07
0.000136856
1.36074e-07
0.000136891
1.47817e-07
0.000136927
1.59343e-07
0.000136963
1.7058e-07
0.000137001
1.81459e-07
0.000137039
1.91916e-07
0.000137078
2.01892e-07
0.000137117
2.11333e-07
0.000137157
2.20192e-07
0.000137198
2.28429e-07
0.000137239
2.36013e-07
0.000137281
2.4292e-07
0.000137323
2.49137e-07
0.000137365
2.54659e-07
0.000137408
2.59485e-07
2.6365e-07
0.000137451
0.000140319
-3.48145e-09
0.000140327
-9.76394e-09
0.000140341
-1.42107e-08
0.000140359
-1.6186e-08
0.000140379
-1.56581e-08
0.000140403
-1.29237e-08
0.000140428
-8.30508e-09
0.000140456
-2.08678e-09
0.000140485
5.4547e-09
0.000140515
1.40562e-08
0.000140546
2.34892e-08
0.000140577
3.35633e-08
0.00014061
4.41176e-08
0.000140644
5.50136e-08
0.000140678
6.61314e-08
0.000140713
7.73656e-08
0.000140748
8.86219e-08
0.000140784
9.98147e-08
0.000140821
1.10865e-07
0.000140859
1.217e-07
0.000140897
1.32251e-07
0.000140936
1.42455e-07
0.000140976
1.52256e-07
0.000141016
1.616e-07
0.000141057
1.70444e-07
0.000141099
1.78747e-07
0.000141141
1.86478e-07
0.000141183
1.93614e-07
0.000141226
2.00136e-07
0.000141269
2.06037e-07
0.000141312
2.11315e-07
0.000141356
2.15971e-07
2.20039e-07
0.000141399
0.000144328
-6.89049e-09
0.000144338
-1.96228e-08
0.000144353
-2.95473e-08
0.000144373
-3.58705e-08
0.000144396
-3.8734e-08
0.000144422
-3.86815e-08
0.00014445
-3.61965e-08
0.000144479
-3.16774e-08
0.00014451
-2.55098e-08
0.000144542
-1.80503e-08
0.000144575
-9.59475e-09
0.000144609
-3.81794e-10
0.000144644
9.39111e-09
0.000144679
1.95581e-08
0.000144716
2.99797e-08
0.000144752
4.05377e-08
0.00014479
5.11297e-08
0.000144828
6.1666e-08
0.000144867
7.20669e-08
0.000144906
8.22606e-08
0.000144946
9.2183e-08
0.000144987
1.01776e-07
0.000145028
1.10989e-07
0.00014507
1.19777e-07
0.000145113
1.281e-07
0.000145155
1.35928e-07
0.000145199
1.43235e-07
0.000145242
1.50002e-07
0.000145286
1.56218e-07
0.00014533
1.61877e-07
0.000145375
1.66982e-07
0.000145419
1.71536e-07
1.75572e-07
0.000145464
0.000148452
-1.09056e-08
0.000148464
-3.12051e-08
0.000148481
-4.73061e-08
0.000148504
-5.82486e-08
0.00014853
-6.45671e-08
0.000148558
-6.71882e-08
0.000148589
-6.67741e-08
0.000148621
-6.38518e-08
0.000148654
-5.89464e-08
0.000148689
-5.25265e-08
0.000148724
-4.49596e-08
0.00014876
-3.65323e-08
0.000148797
-2.74775e-08
0.000148835
-1.79861e-08
0.000148873
-8.21391e-09
0.000148912
1.71095e-09
0.000148951
1.16811e-08
0.000148991
2.16046e-08
0.000149032
3.14026e-08
0.000149073
4.10062e-08
0.000149115
5.03553e-08
0.000149157
5.93975e-08
0.0001492
6.80872e-08
0.000149244
7.63856e-08
0.000149287
8.42603e-08
0.000149332
9.16851e-08
0.000149376
9.86399e-08
0.000149421
1.05111e-07
0.000149466
1.11089e-07
0.000149512
1.16572e-07
0.000149557
1.21562e-07
0.000149602
1.26062e-07
1.30101e-07
0.000149648
0.000152694
-1.58086e-08
0.000152708
-4.53103e-08
0.000152729
-6.8447e-08
0.000152755
-8.41467e-08
0.000152784
-9.38203e-08
0.000152816
-9.8986e-08
0.00015285
-1.00483e-07
0.000152885
-9.89832e-08
0.000152921
-9.51816e-08
0.000152958
-8.96658e-08
0.000152996
-8.28699e-08
0.000153035
-7.51255e-08
0.000153074
-6.66995e-08
0.000153114
-5.78057e-08
0.000153154
-4.86132e-08
0.000153195
-3.92572e-08
0.000153237
-2.98482e-08
0.000153279
-2.04777e-08
0.000153322
-1.12224e-08
0.000153365
-2.14719e-09
0.000153408
6.69279e-09
0.000153453
1.52507e-08
0.000153497
2.34866e-08
0.000153542
3.13677e-08
0.000153588
3.88669e-08
0.000153633
4.5963e-08
0.000153679
5.26405e-08
0.000153726
5.88889e-08
0.000153772
6.4703e-08
0.000153818
7.00824e-08
0.000153865
7.50315e-08
0.000153911
7.95577e-08
8.36863e-08
0.000153958
0.000157058
-2.21196e-08
0.000157076
-6.32411e-08
0.000157102
-9.43946e-08
0.000157132
-1.14818e-07
0.000157166
-1.27616e-07
0.000157202
-1.3501e-07
0.00015724
-1.38007e-07
0.000157278
-1.37535e-07
0.000157318
-1.34529e-07
0.000157358
-1.29691e-07
0.000157398
-1.23501e-07
0.000157439
-1.16318e-07
0.000157481
-1.08431e-07
0.000157523
-1.00065e-07
0.000157566
-9.13929e-08
0.000157609
-8.25489e-08
0.000157653
-7.36423e-08
0.000157698
-6.47614e-08
0.000157742
-5.59787e-08
0.000157788
-4.73544e-08
0.000157833
-3.89387e-08
0.000157879
-3.07736e-08
0.000157926
-2.28937e-08
0.000157972
-1.53278e-08
0.000158019
-8.09851e-09
0.000158066
-1.22372e-09
0.000158114
5.28379e-09
0.000158161
1.14155e-08
0.000158209
1.7167e-08
0.000158256
2.2537e-08
0.000158304
2.75271e-08
0.000158351
3.21386e-08
3.6392e-08
0.000158399
0.000161547
-3.10609e-08
0.000161572
-8.76504e-08
0.000161604
-1.26842e-07
0.000161641
-1.51216e-07
0.00016168
-1.6701e-07
0.000161722
-1.76564e-07
0.000161764
-1.80791e-07
0.000161808
-1.81009e-07
0.000161852
-1.78473e-07
0.000161896
-1.73996e-07
0.000161941
-1.681e-07
0.000161986
-1.61183e-07
0.000162031
-1.53556e-07
0.000162076
-1.4545e-07
0.000162122
-1.37037e-07
0.000162168
-1.28451e-07
0.000162214
-1.19796e-07
0.00016226
-1.11155e-07
0.000162307
-1.02597e-07
0.000162354
-9.41762e-08
0.000162401
-8.59385e-08
0.000162448
-7.79219e-08
0.000162495
-7.01573e-08
0.000162542
-6.26699e-08
0.00016259
-5.54798e-08
0.000162637
-4.86021e-08
0.000162684
-4.20476e-08
0.000162732
-3.58231e-08
0.000162779
-2.99314e-08
0.000162826
-2.43711e-08
0.000162872
-1.9137e-08
0.000162919
-1.42198e-08
-9.60327e-09
0.000162965
0.000166166
-4.38846e-08
0.000166205
-1.26094e-07
0.00016625
-1.71872e-07
0.000166296
-1.97782e-07
0.000166345
-2.15297e-07
0.000166394
-2.25991e-07
0.000166444
-2.30626e-07
0.000166494
-2.30955e-07
0.000166544
-2.28392e-07
0.000166594
-2.2373e-07
0.000166643
-2.17497e-07
0.000166692
-2.1013e-07
0.00016674
-2.01978e-07
0.000166788
-1.93297e-07
0.000166835
-1.84282e-07
0.000166882
-1.75083e-07
0.000166928
-1.6582e-07
0.000166974
-1.56586e-07
0.000167018
-1.47454e-07
0.000167063
-1.38483e-07
0.000167106
-1.2972e-07
0.00016715
-1.21201e-07
0.000167193
-1.12956e-07
0.000167235
-1.05005e-07
0.000167277
-9.73665e-08
0.000167318
-9.00511e-08
0.000167359
-8.30666e-08
0.0001674
-7.64173e-08
0.00016744
-7.01045e-08
0.00016748
-6.41282e-08
0.000167519
-5.84874e-08