/*--------------------------------*- C++ -*----------------------------------*\
| =========                 |                                                 |
| \\      /  F ield         | OpenFOAM: The Open Source CFD Toolbox           |
|  \\    /   O peration     | Version:  4.1                                   |
|   \\  /    A nd           | Web:      www.OpenFOAM.org                      |
|    \\/     M anipulation  |                                                 |
\*---------------------------------------------------------------------------*/
FoamFile
{
    version     2.0;
    format      ascii;
    class       volVectorField;
    location    "300";
    object      U;
}
// * * * * * * * * * * * * * * * * * * * * * * * * * * * * * * * * * * * * * //

dimensions      [0 1 -1 0 0 0 0];

internalField   nonuniform List<vector> 
6820
(
(7.30076 0.0105796 0)
(7.26064 0.0145435 0)
(7.22716 0.0116175 0)
(7.19812 0.00890003 0)
(7.17417 0.00730739 0)
(7.15353 0.00635597 0)
(7.13478 0.00575436 0)
(7.11744 0.00535588 0)
(7.10131 0.00506773 0)
(7.0862 0.00484157 0)
(7.07193 0.0046581 0)
(7.05838 0.00450941 0)
(7.04543 0.00439093 0)
(7.033 0.00429973 0)
(7.021 0.00423417 0)
(7.00935 0.00419372 0)
(6.99798 0.00417888 0)
(6.98681 0.00419126 0)
(6.97576 0.00423386 0)
(6.96475 0.00431141 0)
(6.95368 0.00443107 0)
(6.94245 0.0046036 0)
(6.93091 0.0048454 0)
(6.91889 0.00518222 0)
(6.90614 0.00565623 0)
(6.89228 0.0063412 0)
(6.87679 0.00737386 0)
(6.85853 0.00902921 0)
(6.83632 0.0119342 0)
(6.80378 0.017463 0)
(6.76421 0.0289801 0)
(6.6463 0.0706329 0)
(6.6322 -0.0289464 0)
(7.3396 0.0129501 0)
(7.34153 0.0168254 0)
(7.3273 0.0138464 0)
(7.30711 0.0120014 0)
(7.2875 0.010967 0)
(7.26931 0.0101191 0)
(7.25223 0.00944585 0)
(7.23619 0.00893615 0)
(7.22114 0.00853267 0)
(7.20694 0.00820266 0)
(7.19344 0.00793375 0)
(7.18057 0.00771803 0)
(7.16823 0.00754911 0)
(7.15635 0.00742294 0)
(7.14487 0.00733766 0)
(7.13373 0.00729309 0)
(7.12286 0.00729071 0)
(7.1122 0.00733382 0)
(7.10169 0.00742798 0)
(7.09128 0.00758165 0)
(7.08087 0.00780735 0)
(7.0704 0.00812358 0)
(7.05977 0.00855817 0)
(7.04886 0.00915407 0)
(7.03753 0.00998089 0)
(7.02558 0.0111548 0)
(7.01279 0.0128943 0)
(6.99871 0.0155811 0)
(6.98343 0.0201959 0)
(6.96524 0.0280791 0)
(6.94989 0.0460277 0)
(6.93195 0.0776147 0)
(6.97287 0.1717 0)
(7.33613 0.0108772 0)
(7.34461 0.0173294 0)
(7.34577 0.0178858 0)
(7.34008 0.0179013 0)
(7.3314 0.0174542 0)
(7.32139 0.0166426 0)
(7.31064 0.0158399 0)
(7.29961 0.0151692 0)
(7.28864 0.0146113 0)
(7.27784 0.0141448 0)
(7.26725 0.0137603 0)
(7.25688 0.0134495 0)
(7.24672 0.0132057 0)
(7.23677 0.0130253 0)
(7.22699 0.0129074 0)
(7.21737 0.0128532 0)
(7.20786 0.0128661 0)
(7.19844 0.0129522 0)
(7.18905 0.0131209 0)
(7.17964 0.0133858 0)
(7.17015 0.0137668 0)
(7.16052 0.0142923 0)
(7.15066 0.015004 0)
(7.14045 0.015964 0)
(7.12977 0.0172694 0)
(7.11844 0.0190723 0)
(7.10626 0.021639 0)
(7.09291 0.0253855 0)
(7.07838 0.0312462 0)
(7.06205 0.0402943 0)
(7.04696 0.0566067 0)
(7.03291 0.0811275 0)
(7.0447 0.128061 0)
(7.33465 0.00788656 0)
(7.3419 0.0151205 0)
(7.3471 0.0174631 0)
(7.34823 0.0187166 0)
(7.34679 0.0192579 0)
(7.3436 0.0192025 0)
(7.33896 0.0189084 0)
(7.33328 0.0185631 0)
(7.32696 0.0182146 0)
(7.32023 0.017887 0)
(7.31322 0.0176 0)
(7.30603 0.0173638 0)
(7.29871 0.0171835 0)
(7.29132 0.0170632 0)
(7.28386 0.0170079 0)
(7.27634 0.0170237 0)
(7.26876 0.0171186 0)
(7.26111 0.0173033 0)
(7.25335 0.0175921 0)
(7.24546 0.0180048 0)
(7.2374 0.0185685 0)
(7.22911 0.0193211 0)
(7.22052 0.0203165 0)
(7.21156 0.0216328 0)
(7.20213 0.0233872 0)
(7.1921 0.0257556 0)
(7.18135 0.0290235 0)
(7.16973 0.033609 0)
(7.15737 0.0402975 0)
(7.14429 0.0499156 0)
(7.13242 0.0647042 0)
(7.12273 0.0840359 0)
(7.12513 0.11288 0)
(7.334 0.00602911 0)
(7.33937 0.0130598 0)
(7.34468 0.0160524 0)
(7.34788 0.017887 0)
(7.34956 0.0191031 0)
(7.35008 0.0197151 0)
(7.34939 0.0199751 0)
(7.34764 0.0200715 0)
(7.34507 0.020077 0)
(7.34185 0.0200348 0)
(7.33812 0.0199816 0)
(7.33396 0.0199425 0)
(7.32946 0.0199343 0)
(7.32467 0.0199704 0)
(7.31963 0.0200631 0)
(7.31437 0.0202248 0)
(7.30889 0.0204691 0)
(7.3032 0.0208121 0)
(7.29729 0.0212739 0)
(7.29115 0.0218801 0)
(7.28476 0.0226649 0)
(7.27807 0.0236741 0)
(7.27105 0.024971 0)
(7.26364 0.0266443 0)
(7.25578 0.0288213 0)
(7.24741 0.0316843 0)
(7.2385 0.0355068 0)
(7.22904 0.040664 0)
(7.21926 0.0477515 0)
(7.20951 0.0573472 0)
(7.20115 0.0705756 0)
(7.19549 0.0867941 0)
(7.19667 0.107437 0)
(7.33365 0.00478685 0)
(7.33757 0.0112753 0)
(7.34213 0.0145579 0)
(7.3456 0.0166791 0)
(7.34819 0.0182406 0)
(7.35014 0.019254 0)
(7.35134 0.0199023 0)
(7.35176 0.0203558 0)
(7.35151 0.0206872 0)
(7.35067 0.0209385 0)
(7.3493 0.0211481 0)
(7.34746 0.0213462 0)
(7.34522 0.0215553 0)
(7.3426 0.0217941 0)
(7.33964 0.0220803 0)
(7.33638 0.0224312 0)
(7.33282 0.022865 0)
(7.32896 0.0234027 0)
(7.32483 0.0240691 0)
(7.32039 0.0248951 0)
(7.31565 0.0259201 0)
(7.31059 0.0271957 0)
(7.30518 0.0287905 0)
(7.29939 0.0307976 0)
(7.29321 0.0333442 0)
(7.28662 0.0366039 0)
(7.27965 0.0408167 0)
(7.27241 0.0462886 0)
(7.26518 0.0534349 0)
(7.2584 0.0626123 0)
(7.25309 0.0742999 0)
(7.25036 0.0879378 0)
(7.25206 0.103399 0)
(7.33343 0.00389491 0)
(7.33633 0.00977429 0)
(7.34011 0.0131803 0)
(7.34333 0.0154492 0)
(7.34599 0.0171741 0)
(7.34829 0.0184096 0)
(7.35015 0.0192973 0)
(7.3515 0.0199884 0)
(7.35238 0.0205551 0)
(7.35283 0.0210366 0)
(7.35286 0.0214683 0)
(7.35249 0.0218803 0)
(7.35175 0.022296 0)
(7.35066 0.0227359 0)
(7.34923 0.0232198 0)
(7.34748 0.0237676 0)
(7.34542 0.0244007 0)
(7.34305 0.0251427 0)
(7.34038 0.026022 0)
(7.33741 0.0270727 0)
(7.33411 0.0283374 0)
(7.3305 0.0298704 0)
(7.32655 0.0317418 0)
(7.32228 0.0340428 0)
(7.31767 0.0368928 0)
(7.31277 0.0404453 0)
(7.30766 0.0448966 0)
(7.30247 0.0504767 0)
(7.29752 0.0574507 0)
(7.29323 0.0660033 0)
(7.29035 0.0762597 0)
(7.28969 0.0877289 0)
(7.2921 0.0998431 0)
(7.3333 0.00324109 0)
(7.33547 0.0085321 0)
(7.33857 0.0119446 0)
(7.34146 0.0142901 0)
(7.34395 0.0160996 0)
(7.34621 0.0174667 0)
(7.34818 0.0185048 0)
(7.34982 0.0193479 0)
(7.35114 0.0200703 0)
(7.35215 0.0207121 0)
(7.35286 0.0213072 0)
(7.35327 0.0218847 0)
(7.35338 0.0224681 0)
(7.35321 0.0230783 0)
(7.35275 0.0237356 0)
(7.352 0.024461 0)
(7.35098 0.025277 0)
(7.34967 0.026209 0)
(7.34808 0.0272868 0)
(7.34621 0.028546 0)
(7.34405 0.03003 0)
(7.3416 0.0317931 0)
(7.33887 0.0339027 0)
(7.33587 0.0364438 0)
(7.33263 0.0395217 0)
(7.32921 0.0432642 0)
(7.3257 0.0478218 0)
(7.32228 0.0533534 0)
(7.31923 0.0600102 0)
(7.31692 0.0678569 0)
(7.31589 0.0768432 0)
(7.31668 0.0865509 0)
(7.3197 0.0963933 0)
(7.33321 0.00275351 0)
(7.33486 0.00750533 0)
(7.33742 0.0108431 0)
(7.33997 0.0132212 0)
(7.34225 0.0150782 0)
(7.34435 0.0165302 0)
(7.34626 0.0176717 0)
(7.34794 0.0186195 0)
(7.34937 0.0194489 0)
(7.35057 0.0202027 0)
(7.35156 0.0209146 0)
(7.35231 0.021614 0)
(7.35284 0.0223248 0)
(7.35315 0.0230683 0)
(7.35322 0.0238654 0)
(7.35307 0.0247374 0)
(7.35268 0.0257074 0)
(7.35205 0.0268014 0)
(7.35119 0.0280493 0)
(7.35008 0.0294866 0)
(7.34874 0.0311559 0)
(7.34716 0.0331085 0)
(7.34537 0.0354068 0)
(7.34337 0.0381256 0)
(7.34123 0.0413533 0)
(7.339 0.0451901 0)
(7.3368 0.0497436 0)
(7.3348 0.0551133 0)
(7.33324 0.0613693 0)
(7.33243 0.0685007 0)
(7.33273 0.0763816 0)
(7.33452 0.0846634 0)
(7.33796 0.0928554 0)
(7.33315 0.00238127 0)
(7.33444 0.00665262 0)
(7.33655 0.00986388 0)
(7.33878 0.0122397 0)
(7.34086 0.0141202 0)
(7.3428 0.0156288 0)
(7.3446 0.016847 0)
(7.34622 0.0178747 0)
(7.34764 0.0187853 0)
(7.34889 0.0196235 0)
(7.34996 0.0204238 0)
(7.35085 0.0212157 0)
(7.35156 0.0220242 0)
(7.35209 0.0228715 0)
(7.35243 0.0237787 0)
(7.3526 0.0247678 0)
(7.35257 0.0258619 0)
(7.35236 0.0270871 0)
(7.35195 0.0284727 0)
(7.35135 0.0300529 0)
(7.35057 0.0318679 0)
(7.34961 0.0339646 0)
(7.3485 0.036398 0)
(7.34726 0.0392312 0)
(7.34595 0.0425345 0)
(7.34465 0.0463819 0)
(7.34346 0.050844 0)
(7.34255 0.0559742 0)
(7.34211 0.0617884 0)
(7.34237 0.0682328 0)
(7.3436 0.0751582 0)
(7.34601 0.082279 0)
(7.34969 0.0892149 0)
(7.33312 0.00208978 0)
(7.33413 0.00593964 0)
(7.33588 0.00899404 0)
(7.33784 0.0113385 0)
(7.33973 0.0132233 0)
(7.34152 0.0147675 0)
(7.34321 0.0160434 0)
(7.34475 0.0171356 0)
(7.34613 0.0181127 0)
(7.34736 0.0190201 0)
(7.34844 0.0198924 0)
(7.34938 0.0207595 0)
(7.35016 0.0216471 0)
(7.3508 0.0225779 0)
(7.35129 0.0235738 0)
(7.35162 0.0246568 0)
(7.35181 0.0258502 0)
(7.35184 0.0271794 0)
(7.35172 0.0286726 0)
(7.35146 0.0303621 0)
(7.35106 0.0322844 0)
(7.35054 0.0344811 0)
(7.34992 0.0369988 0)
(7.34925 0.0398883 0)
(7.34857 0.0432026 0)
(7.34797 0.0469923 0)
(7.34754 0.0512986 0)
(7.34743 0.0561407 0)
(7.34779 0.0615012 0)
(7.34879 0.0673055 0)
(7.35062 0.0734069 0)
(7.3534 0.0795748 0)
(7.35716 0.0855236 0)
(7.33309 0.00185581 0)
(7.3339 0.00533818 0)
(7.33537 0.00822059 0)
(7.33709 0.0105102 0)
(7.3388 0.0123827 0)
(7.34046 0.0139453 0)
(7.34203 0.015263 0)
(7.3435 0.0164069 0)
(7.34484 0.0174398 0)
(7.34604 0.0184061 0)
(7.34712 0.0193401 0)
(7.34807 0.0202715 0)
(7.3489 0.0212262 0)
(7.34959 0.0222272 0)
(7.35016 0.0232967 0)
(7.35061 0.0244566 0)
(7.35092 0.0257299 0)
(7.35112 0.027141 0)
(7.3512 0.0287165 0)
(7.35118 0.0304859 0)
(7.35106 0.0324817 0)
(7.35086 0.0347394 0)
(7.35062 0.0372971 0)
(7.35038 0.0401937 0)
(7.35018 0.0434666 0)
(7.35011 0.0471472 0)
(7.35025 0.0512538 0)
(7.35072 0.0557826 0)
(7.35164 0.0606973 0)
(7.35314 0.0659164 0)
(7.35533 0.0713075 0)
(7.35829 0.0766864 0)
(7.36201 0.0818409 0)
(7.33307 0.0016635 0)
(7.33374 0.00482531 0)
(7.33498 0.00753085 0)
(7.33649 0.00974733 0)
(7.33804 0.011593 0)
(7.33957 0.0131592 0)
(7.34105 0.0145043 0)
(7.34245 0.0156883 0)
(7.34374 0.0167671 0)
(7.34493 0.0177835 0)
(7.346 0.0187708 0)
(7.34696 0.0197581 0)
(7.34781 0.0207707 0)
(7.34856 0.021832 0)
(7.34919 0.0229636 0)
(7.34972 0.0241872 0)
(7.35014 0.0255248 0)
(7.35047 0.0269996 0)
(7.35071 0.0286361 0)
(7.35088 0.0304606 0)
(7.35098 0.0325012 0)
(7.35105 0.0347871 0)
(7.35111 0.0373481 0)
(7.3512 0.0402124 0)
(7.35139 0.0434043 0)
(7.35172 0.0469396 0)
(7.35229 0.0508203 0)
(7.35318 0.0550283 0)
(7.35449 0.0595175 0)
(7.35631 0.0642089 0)
(7.35871 0.0689876 0)
(7.36174 0.0737077 0)
(7.36536 0.0782118 0)
(7.33306 0.0015019 0)
(7.33361 0.00438266 0)
(7.33467 0.00691287 0)
(7.33601 0.00904297 0)
(7.33742 0.0108491 0)
(7.33884 0.012406 0)
(7.34023 0.0137651 0)
(7.34157 0.0149777 0)
(7.34282 0.0160929 0)
(7.34398 0.0171507 0)
(7.34506 0.0181832 0)
(7.34603 0.0192183 0)
(7.34691 0.0202807 0)
(7.3477 0.0213932 0)
(7.34839 0.0225768 0)
(7.349 0.0238524 0)
(7.34953 0.0252409 0)
(7.34997 0.0267636 0)
(7.35036 0.0284426 0)
(7.35069 0.0303009 0)
(7.35099 0.0323618 0)
(7.35128 0.0346486 0)
(7.3516 0.0371834 0)
(7.35198 0.0399853 0)
(7.35247 0.0430675 0)
(7.35313 0.0464344 0)
(7.35403 0.050077 0)
(7.35523 0.0539686 0)
(7.35682 0.0580606 0)
(7.35884 0.0622801 0)
(7.36135 0.0665303 0)
(7.36437 0.0706964 0)
(7.36786 0.0746613 0)
(7.33305 0.00136329 0)
(7.33352 0.00399557 0)
(7.33443 0.00635557 0)
(7.33562 0.00839004 0)
(7.33691 0.0101457 0)
(7.33823 0.0116817 0)
(7.33955 0.0130429 0)
(7.34083 0.0142729 0)
(7.34205 0.0154147 0)
(7.34319 0.0165051 0)
(7.34427 0.0175744 0)
(7.34526 0.0186491 0)
(7.34617 0.0197529 0)
(7.34701 0.0209076 0)
(7.34777 0.0221334 0)
(7.34845 0.0234499 0)
(7.34907 0.0248766 0)
(7.34964 0.0264326 0)
(7.35016 0.0281375 0)
(7.35065 0.0300106 0)
(7.35113 0.0320709 0)
(7.35163 0.034336 0)
(7.35217 0.0368213 0)
(7.3528 0.039538 0)
(7.35355 0.0424911 0)
(7.35447 0.0456765 0)
(7.35563 0.0490785 0)
(7.35707 0.0526664 0)
(7.35885 0.0563927 0)
(7.361 0.0601927 0)
(7.36356 0.0639864 0)
(7.36654 0.0676833 0)
(7.36989 0.0711964 0)
(7.33304 0.0012421 0)
(7.33345 0.00365236 0)
(7.33425 0.00584889 0)
(7.33531 0.00778158 0)
(7.33649 0.00947757 0)
(7.33773 0.0109823 0)
(7.33897 0.0123344 0)
(7.34021 0.0135711 0)
(7.3414 0.0147298 0)
(7.34254 0.0158437 0)
(7.34361 0.0169411 0)
(7.34463 0.0180468 0)
(7.34558 0.0191833 0)
(7.34646 0.0203709 0)
(7.34729 0.0216289 0)
(7.34806 0.0229753 0)
(7.34878 0.0244278 0)
(7.34946 0.0260034 0)
(7.35011 0.0277188 0)
(7.35075 0.02959 0)
(7.3514 0.0316315 0)
(7.35209 0.0338562 0)
(7.35283 0.0362735 0)
(7.35367 0.0388886 0)
(7.35464 0.0417001 0)
(7.35579 0.0446984 0)
(7.35715 0.047864 0)
(7.35877 0.0511652 0)
(7.36069 0.0545579 0)
(7.36293 0.0579861 0)
(7.36551 0.0613844 0)
(7.36842 0.0646816 0)
(7.37163 0.0678127 0)
(7.33304 0.00113421 0)
(7.33339 0.00334368 0)
(7.3341 0.00538382 0)
(7.33506 0.00721075 0)
(7.33615 0.00883921 0)
(7.33731 0.0103036 0)
(7.3385 0.0116364 0)
(7.33969 0.0128695 0)
(7.34086 0.0140353 0)
(7.34199 0.0151635 0)
(7.34308 0.01628 0)
(7.34412 0.0174078 0)
(7.34511 0.0185678 0)
(7.34605 0.0197789 0)
(7.34694 0.0210589 0)
(7.34779 0.0224242 0)
(7.34861 0.0238904 0)
(7.3494 0.0254725 0)
(7.35018 0.0271843 0)
(7.35097 0.0290383 0)
(7.35178 0.0310455 0)
(7.35264 0.0332142 0)
(7.35356 0.0355494 0)
(7.35459 0.0380512 0)
(7.35576 0.040714 0)
(7.35708 0.0435249 0)
(7.35862 0.0464624 0)
(7.36038 0.049496 0)
(7.3624 0.0525862 0)
(7.36469 0.0556852 0)
(7.36726 0.0587397 0)
(7.37011 0.061694 0)
(7.3732 0.0644995 0)
(7.33303 0.0010365 0)
(7.33335 0.00306193 0)
(7.33398 0.00495229 0)
(7.33486 0.00667095 0)
(7.33588 0.00822519 0)
(7.33697 0.00964082 0)
(7.33811 0.0109449 0)
(7.33927 0.0121647 0)
(7.34043 0.013328 0)
(7.34156 0.0144612 0)
(7.34266 0.0155877 0)
(7.34373 0.0167284 0)
(7.34476 0.0179026 0)
(7.34575 0.0191276 0)
(7.34671 0.0204193 0)
(7.34765 0.0217925 0)
(7.34856 0.0232609 0)
(7.34946 0.024837 0)
(7.35037 0.026532 0)
(7.35129 0.0283555 0)
(7.35225 0.0303151 0)
(7.35326 0.0324153 0)
(7.35435 0.0346575 0)
(7.35555 0.0370384 0)
(7.35687 0.0395495 0)
(7.35836 0.042176 0)
(7.36002 0.0448963 0)
(7.36189 0.0476821 0)
(7.36399 0.0504985 0)
(7.36631 0.0533055 0)
(7.36887 0.05606 0)
(7.37165 0.0587182 0)
(7.37462 0.0612436 0)
(7.33303 0.000946511 0)
(7.33332 0.0028009 0)
(7.33389 0.00454712 0)
(7.3347 0.00615575 0)
(7.33566 0.00763003 0)
(7.3367 0.00898928 0)
(7.3378 0.0102559 0)
(7.33894 0.011453 0)
(7.34008 0.0126044 0)
(7.34121 0.0137333 0)
(7.34233 0.0148605 0)
(7.34343 0.016005 0)
(7.34451 0.017184 0)
(7.34556 0.018413 0)
(7.34659 0.0197063 0)
(7.3476 0.0210769 0)
(7.34861 0.0225363 0)
(7.34962 0.0240948 0)
(7.35064 0.0257613 0)
(7.35169 0.0275425 0)
(7.35279 0.0294431 0)
(7.35394 0.031465 0)
(7.35518 0.0336065 0)
(7.35652 0.035862 0)
(7.35798 0.0382212 0)
(7.3596 0.0406687 0)
(7.36137 0.0431839 0)
(7.36333 0.045741 0)
(7.36547 0.04831 0)
(7.36781 0.0508575 0)
(7.37035 0.0533488 0)
(7.37306 0.0557493 0)
(7.37593 0.0580317 0)
(7.33303 0.000862259 0)
(7.33329 0.00255537 0)
(7.33383 0.00416187 0)
(7.33458 0.00565902 0)
(7.33548 0.00704818 0)
(7.33649 0.00834398 0)
(7.33756 0.0095648 0)
(7.33867 0.0107303 0)
(7.33981 0.0118608 0)
(7.34095 0.0129762 0)
(7.34209 0.014095 0)
(7.34323 0.015234 0)
(7.34435 0.0164083 0)
(7.34546 0.0176318 0)
(7.34656 0.0189169 0)
(7.34765 0.0202745 0)
(7.34875 0.0217144 0)
(7.34986 0.0232447 0)
(7.35099 0.024872 0)
(7.35216 0.0266008 0)
(7.35338 0.0284333 0)
(7.35467 0.0303691 0)
(7.35603 0.0324046 0)
(7.3575 0.0345325 0)
(7.35908 0.0367419 0)
(7.3608 0.0390174 0)
(7.36266 0.0413399 0)
(7.36468 0.0436866 0)
(7.36687 0.0460317 0)
(7.36921 0.0483477 0)
(7.37172 0.0506067 0)
(7.37438 0.0527814 0)
(7.37716 0.0548513 0)
(7.33303 0.000782099 0)
(7.33327 0.00232089 0)
(7.33377 0.00379071 0)
(7.33449 0.00517482 0)
(7.33535 0.00647406 0)
(7.33632 0.00769975 0)
(7.33737 0.00886698 0)
(7.33848 0.00999228 0)
(7.33962 0.0110929 0)
(7.34077 0.012186 0)
(7.34194 0.0132874 0)
(7.3431 0.0144117 0)
(7.34427 0.0155722 0)
(7.34544 0.0167807 0)
(7.34661 0.0180479 0)
(7.34778 0.019383 0)
(7.34897 0.0207936 0)
(7.35017 0.022286 0)
(7.35141 0.0238648 0)
(7.35269 0.0255325 0)
(7.35402 0.0272895 0)
(7.35542 0.0291336 0)
(7.3569 0.0310598 0)
(7.35848 0.0330599 0)
(7.36016 0.0351229 0)
(7.36197 0.0372341 0)
(7.3639 0.0393763 0)
(7.36597 0.0415294 0)
(7.36818 0.0436716 0)
(7.37053 0.0457804 0)
(7.373 0.0478331 0)
(7.3756 0.0498084 0)
(7.37831 0.051691 0)
(7.33303 0.000704609 0)
(7.33326 0.00209354 0)
(7.33373 0.00342828 0)
(7.33442 0.00469741 0)
(7.33526 0.00590204 0)
(7.33621 0.00705124 0)
(7.33724 0.0081574 0)
(7.33834 0.00923436 0)
(7.33949 0.0102966 0)
(7.34066 0.0113585 0)
(7.34185 0.0124337 0)
(7.34306 0.0135345 0)
(7.34428 0.0146722 0)
(7.3455 0.0158568 0)
(7.34674 0.017097 0)
(7.34799 0.0184003 0)
(7.34926 0.0197727 0)
(7.35055 0.0212186 0)
(7.35189 0.0227408 0)
(7.35327 0.0243403 0)
(7.3547 0.0260159 0)
(7.3562 0.0277643 0)
(7.35778 0.0295794 0)
(7.35945 0.031453 0)
(7.36122 0.033374 0)
(7.3631 0.0353291 0)
(7.36509 0.0373027 0)
(7.36719 0.0392776 0)
(7.36942 0.0412355 0)
(7.37176 0.0431577 0)
(7.37421 0.0450263 0)
(7.37676 0.0468241 0)
(7.37939 0.0485401 0)
(7.33302 0.000628526 0)
(7.33325 0.00186978 0)
(7.33371 0.00306957 0)
(7.33437 0.00422116 0)
(7.33519 0.0053264 0)
(7.33613 0.00639287 0)
(7.33716 0.00743076 0)
(7.33826 0.00845153 0)
(7.33942 0.00946716 0)
(7.34062 0.0104895 0)
(7.34184 0.0115299 0)
(7.34309 0.0125986 0)
(7.34435 0.0137049 0)
(7.34564 0.014857 0)
(7.34694 0.0160617 0)
(7.34826 0.0173249 0)
(7.34961 0.0186509 0)
(7.35099 0.0200427 0)
(7.35241 0.0215014 0)
(7.35388 0.0230269 0)
(7.35541 0.0246167 0)
(7.357 0.0262666 0)
(7.35867 0.0279703 0)
(7.36042 0.0297194 0)
(7.36226 0.0315036 0)
(7.36419 0.0333107 0)
(7.36623 0.0351268 0)
(7.36836 0.0369374 0)
(7.3706 0.0387271 0)
(7.37293 0.0404807 0)
(7.37535 0.0421837 0)
(7.37786 0.0438225 0)
(7.38043 0.045389 0)
(7.33302 0.000552681 0)
(7.33324 0.0016463 0)
(7.33369 0.00270975 0)
(7.33435 0.00374045 0)
(7.33516 0.0047413 0)
(7.33609 0.00571884 0)
(7.33713 0.00668145 0)
(7.33824 0.00763848 0)
(7.33941 0.00859962 0)
(7.34064 0.00957443 0)
(7.34189 0.0105719 0)
(7.34318 0.0116004 0)
(7.3445 0.0126672 0)
(7.34584 0.0137786 0)
(7.3472 0.01494 0)
(7.3486 0.0161554 0)
(7.35002 0.0174278 0)
(7.35148 0.0187588 0)
(7.35299 0.0201483 0)
(7.35454 0.0215949 0)
(7.35615 0.0230956 0)
(7.35782 0.0246457 0)
(7.35956 0.0262385 0)
(7.36138 0.027866 0)
(7.36328 0.0295187 0)
(7.36526 0.0311855 0)
(7.36733 0.0328545 0)
(7.36949 0.0345133 0)
(7.37173 0.036149 0)
(7.37405 0.0377492 0)
(7.37645 0.0393023 0)
(7.37891 0.0407975 0)
(7.38142 0.0422289 0)
(7.33302 0.000475944 0)
(7.33324 0.00141988 0)
(7.33369 0.002344 0)
(7.33434 0.00324957 0)
(7.33515 0.00414063 0)
(7.33609 0.00502298 0)
(7.33713 0.00590349 0)
(7.33826 0.00678955 0)
(7.33946 0.00768871 0)
(7.34071 0.00860833 0)
(7.34201 0.00955531 0)
(7.34334 0.0105359 0)
(7.34471 0.0115555 0)
(7.34611 0.0126189 0)
(7.34753 0.0137297 0)
(7.34899 0.0148906 0)
(7.35049 0.016103 0)
(7.35202 0.0173674 0)
(7.3536 0.0186829 0)
(7.35523 0.0200472 0)
(7.35691 0.0214565 0)
(7.35866 0.022906 0)
(7.36046 0.0243892 0)
(7.36234 0.0258984 0)
(7.36429 0.0274249 0)
(7.36631 0.028959 0)
(7.36841 0.0304903 0)
(7.37058 0.0320082 0)
(7.37283 0.0335022 0)
(7.37514 0.0349622 0)
(7.3775 0.0363787 0)
(7.37993 0.0377431 0)
(7.38239 0.0390515 0)
(7.33302 0.000397173 0)
(7.33324 0.00118724 0)
(7.33369 0.00196741 0)
(7.33435 0.00274255 0)
(7.33517 0.00351791 0)
(7.33612 0.00429873 0)
(7.33718 0.00509043 0)
(7.33834 0.0058986 0)
(7.33956 0.00672874 0)
(7.34085 0.00758607 0)
(7.34219 0.0084754 0)
(7.34357 0.00940104 0)
(7.34499 0.0103667 0)
(7.34644 0.0113752 0)
(7.34793 0.012429 0)
(7.34945 0.0135292 0)
(7.35101 0.0146762 0)
(7.35262 0.0158693 0)
(7.35426 0.0171069 0)
(7.35596 0.018386 0)
(7.35771 0.0197026 0)
(7.35951 0.0210517 0)
(7.36138 0.0224269 0)
(7.3633 0.0238213 0)
(7.36529 0.0252269 0)
(7.36735 0.0266351 0)
(7.36947 0.0280372 0)
(7.37165 0.0294241 0)
(7.3739 0.0307871 0)
(7.37619 0.0321179 0)
(7.37854 0.0334091 0)
(7.38093 0.0346537 0)
(7.38335 0.0358489 0)
(7.33302 0.000315155 0)
(7.33325 0.000944878 0)
(7.33371 0.00157465 0)
(7.33438 0.00221292 0)
(7.33521 0.0028661 0)
(7.33619 0.00353889 0)
(7.33728 0.00423527 0)
(7.33846 0.004959 0)
(7.33972 0.00571355 0)
(7.34105 0.00650207 0)
(7.34243 0.00732729 0)
(7.34386 0.00819161 0)
(7.34533 0.00909696 0)
(7.34684 0.0100448 0)
(7.34839 0.0110358 0)
(7.34997 0.0120701 0)
(7.35159 0.013147 0)
(7.35326 0.0142649 0)
(7.35497 0.0154216 0)
(7.35673 0.0166136 0)
(7.35853 0.0178367 0)
(7.36039 0.0190859 0)
(7.36231 0.0203553 0)
(7.36428 0.0216384 0)
(7.3663 0.0229281 0)
(7.36839 0.0242169 0)
(7.37052 0.0254974 0)
(7.37271 0.0267618 0)
(7.37495 0.0280031 0)
(7.37724 0.0292144 0)
(7.37956 0.0303898 0)
(7.38192 0.0315236 0)
(7.38431 0.0326142 0)
(7.33303 0.000228522 0)
(7.33326 0.000688879 0)
(7.33373 0.00115979 0)
(7.33442 0.00165342 0)
(7.33529 0.00217734 0)
(7.33629 0.00273548 0)
(7.33742 0.00333022 0)
(7.33864 0.00396341 0)
(7.33994 0.00463643 0)
(7.34132 0.00535029 0)
(7.34274 0.00610567 0)
(7.34422 0.00690307 0)
(7.34575 0.00774273 0)
(7.34731 0.00862454 0)
(7.34891 0.00954798 0)
(7.35056 0.010512 0)
(7.35224 0.011515 0)
(7.35396 0.0125546 0)
(7.35573 0.0136281 0)
(7.35754 0.0147317 0)
(7.3594 0.0158611 0)
(7.36131 0.0170115 0)
(7.36327 0.0181773 0)
(7.36527 0.0193526 0)
(7.36733 0.020531 0)
(7.36943 0.0217063 0)
(7.37159 0.0228718 0)
(7.37378 0.0240212 0)
(7.37602 0.0251487 0)
(7.37829 0.0262485 0)
(7.3806 0.027316 0)
(7.38293 0.0283466 0)
(7.38528 0.0293394 0)
(7.33303 0.000135651 0)
(7.33327 0.000414584 0)
(7.33377 0.0007158 0)
(7.33449 0.00105562 0)
(7.33539 0.00144259 0)
(7.33644 0.00187942 0)
(7.33761 0.00236653 0)
(7.33888 0.00290366 0)
(7.34023 0.00348996 0)
(7.34165 0.00412415 0)
(7.34313 0.00480481 0)
(7.34466 0.00553054 0)
(7.34624 0.00629991 0)
(7.34786 0.00711138 0)
(7.34952 0.00796319 0)
(7.35122 0.00885329 0)
(7.35295 0.00977926 0)
(7.35473 0.0107382 0)
(7.35655 0.0117269 0)
(7.35842 0.0127414 0)
(7.36032 0.0137774 0)
(7.36227 0.0148303 0)
(7.36426 0.015895 0)
(7.3663 0.0169659 0)
(7.36838 0.0180377 0)
(7.37051 0.0191047 0)
(7.37267 0.0201614 0)
(7.37487 0.0212025 0)
(7.3771 0.0222231 0)
(7.37937 0.0232186 0)
(7.38165 0.0241851 0)
(7.38396 0.0251191 0)
(7.38629 0.02602 0)
(7.33303 3.44986e-05 0)
(7.33329 0.000116166 0)
(7.33382 0.000234051 0)
(7.33459 0.000409347 0)
(7.33554 0.000651171 0)
(7.33664 0.000960157 0)
(7.33786 0.00133417 0)
(7.33918 0.00177048 0)
(7.34059 0.00226578 0)
(7.34207 0.00281635 0)
(7.3436 0.00341853 0)
(7.34519 0.00406898 0)
(7.34682 0.00476461 0)
(7.3485 0.00550249 0)
(7.35021 0.00627968 0)
(7.35196 0.0070932 0)
(7.35375 0.00793991 0)
(7.35558 0.00881645 0)
(7.35745 0.0097192 0)
(7.35936 0.0106442 0)
(7.36131 0.0115873 0)
(7.36329 0.0125439 0)
(7.36532 0.0135094 0)
(7.36738 0.0144789 0)
(7.36949 0.0154477 0)
(7.37163 0.0164108 0)
(7.3738 0.0173635 0)
(7.376 0.0183015 0)
(7.37823 0.0192206 0)
(7.38048 0.0201172 0)
(7.38276 0.0209881 0)
(7.38505 0.0218304 0)
(7.38735 0.022644 0)
(7.33303 -7.76617e-05 0)
(7.33331 -0.000214073 0)
(7.33389 -0.000296624 0)
(7.33471 -0.00029817 0)
(7.33573 -0.000209945 0)
(7.3369 -3.48402e-05 0)
(7.33819 0.000221534 0)
(7.33958 0.000553446 0)
(7.34105 0.000954627 0)
(7.34259 0.00141855 0)
(7.34418 0.0019392 0)
(7.34582 0.00251134 0)
(7.34751 0.00313034 0)
(7.34924 0.00379194 0)
(7.35101 0.00449216 0)
(7.35281 0.00522721 0)
(7.35465 0.00599335 0)
(7.35653 0.00678679 0)
(7.35844 0.00760366 0)
(7.36039 0.00843997 0)
(7.36237 0.00929161 0)
(7.3644 0.0101543 0)
(7.36645 0.0110238 0)
(7.36854 0.0118958 0)
(7.37066 0.0127659 0)
(7.37281 0.01363 0)
(7.37499 0.0144842 0)
(7.3772 0.0153246 0)
(7.37943 0.016148 0)
(7.38167 0.0169512 0)
(7.38393 0.0177318 0)
(7.3862 0.0184874 0)
(7.38848 0.0192181 0)
(7.33304 -0.000204679 0)
(7.33335 -0.000586887 0)
(7.33398 -0.000891256 0)
(7.33489 -0.0010833 0)
(7.33599 -0.00115695 0)
(7.33724 -0.00112109 0)
(7.33861 -0.000985656 0)
(7.34008 -0.00075968 0)
(7.34162 -0.000453001 0)
(7.34322 -7.56447e-05 0)
(7.34488 0.000363528 0)
(7.34658 0.000857098 0)
(7.34833 0.00139872 0)
(7.35011 0.00198282 0)
(7.35193 0.00260445 0)
(7.35379 0.00325914 0)
(7.35568 0.00394268 0)
(7.3576 0.00465106 0)
(7.35955 0.00538034 0)
(7.36154 0.0061266 0)
(7.36356 0.00688593 0)
(7.36561 0.00765441 0)
(7.36769 0.00842816 0)
(7.36981 0.00920335 0)
(7.37194 0.00997625 0)
(7.37411 0.0107433 0)
(7.3763 0.0115011 0)
(7.3785 0.0122466 0)
(7.38073 0.012977 0)
(7.38297 0.0136897 0)
(7.38522 0.0143829 0)
(7.38747 0.0150545 0)
(7.38973 0.015705 0)
(7.33304 -0.000352289 0)
(7.3334 -0.00101819 0)
(7.33412 -0.00157126 0)
(7.33513 -0.00196767 0)
(7.33635 -0.00220924 0)
(7.3377 -0.00231607 0)
(7.33916 -0.00230447 0)
(7.34072 -0.00218727 0)
(7.34234 -0.00197793 0)
(7.34402 -0.00168966 0)
(7.34575 -0.00133373 0)
(7.34751 -0.000919459 0)
(7.34932 -0.000454811 0)
(7.35116 5.32719e-05 0)
(7.35303 0.000598763 0)
(7.35493 0.00117637 0)
(7.35686 0.0017813 0)
(7.35883 0.00240918 0)
(7.36082 0.00305587 0)
(7.36285 0.00371743 0)
(7.3649 0.00439009 0)
(7.36698 0.00507018 0)
(7.36909 0.00575417 0)
(7.37122 0.00643868 0)
(7.37337 0.00712047 0)
(7.37555 0.00779649 0)
(7.37774 0.00846392 0)
(7.37995 0.00912019 0)
(7.38218 0.009763 0)
(7.38441 0.0103903 0)
(7.38665 0.0110005 0)
(7.3889 0.011592 0)
(7.39115 0.0121651 0)
(7.33305 -0.000529609 0)
(7.33347 -0.00153201 0)
(7.33432 -0.00236786 0)
(7.33548 -0.00298379 0)
(7.33683 -0.00339639 0)
(7.33831 -0.00364021 0)
(7.33988 -0.00374011 0)
(7.34154 -0.00371716 0)
(7.34326 -0.00359284 0)
(7.34502 -0.00338575 0)
(7.34683 -0.00310997 0)
(7.34867 -0.00277635 0)
(7.35053 -0.00239376 0)
(7.35243 -0.00196961 0)
(7.35436 -0.00151005 0)
(7.35631 -0.00102034 0)
(7.35829 -0.000505102 0)
(7.3603 3.14578e-05 0)
(7.36234 0.000585447 0)
(7.3644 0.00115321 0)
(7.36648 0.00173127 0)
(7.36859 0.00231633 0)
(7.37072 0.00290521 0)
(7.37288 0.00349492 0)
(7.37505 0.00408262 0)
(7.37724 0.0046657 0)
(7.37944 0.00524173 0)
(7.38165 0.00580855 0)
(7.38388 0.00636423 0)
(7.38611 0.00690714 0)
(7.38834 0.00743594 0)
(7.39058 0.00794945 0)
(7.39281 0.00844829 0)
(7.33306 -0.000753558 0)
(7.33358 -0.00216841 0)
(7.33462 -0.00331767 0)
(7.33599 -0.00416281 0)
(7.33753 -0.00476599 0)
(7.33917 -0.0051751 0)
(7.34089 -0.00540997 0)
(7.34267 -0.00549308 0)
(7.34449 -0.00545353 0)
(7.34634 -0.00531682 0)
(7.34823 -0.00510196 0)
(7.35014 -0.00482383 0)
(7.35207 -0.00449472 0)
(7.35404 -0.00412455 0)
(7.35602 -0.0037212 0)
(7.35803 -0.00329097 0)
(7.36006 -0.00283905 0)
(7.36212 -0.00236983 0)
(7.3642 -0.00188712 0)
(7.3663 -0.00139425 0)
(7.36842 -0.000894262 0)
(7.37056 -0.000389918 0)
(7.37272 0.000116212 0)
(7.37489 0.000621752 0)
(7.37708 0.0011245 0)
(7.37928 0.00162242 0)
(7.38149 0.00211368 0)
(7.3837 0.0025966 0)
(7.38592 0.00306972 0)
(7.38814 0.00353175 0)
(7.39036 0.0039816 0)
(7.39258 0.00441815 0)
(7.39479 0.00484168 0)
(7.33308 -0.00105272 0)
(7.33379 -0.00302544 0)
(7.33511 -0.00451264 0)
(7.33676 -0.0055057 0)
(7.33851 -0.00618794 0)
(7.34034 -0.00666911 0)
(7.34226 -0.00698389 0)
(7.34423 -0.00715968 0)
(7.34621 -0.00722672 0)
(7.34822 -0.00720722 0)
(7.35024 -0.00711542 0)
(7.35227 -0.00696229 0)
(7.35431 -0.00675739 0)
(7.35636 -0.00650879 0)
(7.35843 -0.0062232 0)
(7.36051 -0.00590641 0)
(7.3626 -0.00556349 0)
(7.3647 -0.00519897 0)
(7.36681 -0.0048169 0)
(7.36893 -0.00442092 0)
(7.37106 -0.00401435 0)
(7.3732 -0.00360022 0)
(7.37534 -0.00318128 0)
(7.37749 -0.00276004 0)
(7.37964 -0.00233878 0)
(7.38179 -0.00191956 0)
(7.38394 -0.00150417 0)
(7.38609 -0.00109422 0)
(7.38823 -0.000691069 0)
(7.39037 -0.000295855 0)
(7.39249 9.05503e-05 0)
(7.3946 0.000467476 0)
(7.3967 0.000835453 0)
(7.3331 -0.00143696 0)
(7.33416 -0.00417377 0)
(7.33608 -0.0062553 0)
(7.33826 -0.00768259 0)
(7.34038 -0.00864082 0)
(7.34251 -0.009239 0)
(7.3447 -0.00955479 0)
(7.34691 -0.00967047 0)
(7.34912 -0.00965261 0)
(7.35132 -0.00954331 0)
(7.3535 -0.00936934 0)
(7.35568 -0.00914956 0)
(7.35783 -0.00889722 0)
(7.35995 -0.00862101 0)
(7.36205 -0.00832659 0)
(7.36412 -0.00801787 0)
(7.36617 -0.00769771 0)
(7.36819 -0.00736828 0)
(7.37018 -0.00703141 0)
(7.37215 -0.00668868 0)
(7.37409 -0.00634158 0)
(7.37601 -0.00599154 0)
(7.37791 -0.00563994 0)
(7.37979 -0.00528813 0)
(7.38165 -0.00493742 0)
(7.38349 -0.00458902 0)
(7.38531 -0.00424411 0)
(7.38711 -0.00390375 0)
(7.38889 -0.00356894 0)
(7.39065 -0.00324059 0)
(7.3924 -0.00291957 0)
(7.39413 -0.00260685 0)
(7.39584 -0.00230253 0)
(7.33311 -0.00227621 0)
(7.33486 -0.00518994 0)
(7.33796 -0.00683974 0)
(7.3414 -0.00819476 0)
(7.34474 -0.00946693 0)
(7.34796 -0.0105162 0)
(7.351 -0.0113005 0)
(7.35379 -0.0118672 0)
(7.35631 -0.0122566 0)
(7.35858 -0.01249 0)
(7.36061 -0.0125876 0)
(7.36242 -0.0125724 0)
(7.36405 -0.0124659 0)
(7.3655 -0.012286 0)
(7.3668 -0.0120478 0)
(7.36798 -0.0117638 0)
(7.36904 -0.0114448 0)
(7.37001 -0.0110993 0)
(7.3709 -0.0107346 0)
(7.37172 -0.0103565 0)
(7.3725 -0.0099697 0)
(7.37323 -0.00957815 0)
(7.37392 -0.00918504 0)
(7.37459 -0.00879297 0)
(7.37523 -0.00840407 0)
(7.37586 -0.00802006 0)
(7.37648 -0.00764233 0)
(7.37709 -0.00727196 0)
(7.3777 -0.00690977 0)
(7.3783 -0.00655635 0)
(7.3789 -0.00621203 0)
(7.37949 -0.00587699 0)
(7.38009 -0.00555054 0)
(7.3363 -0.00651032 0)
(7.34557 -0.0134661 0)
(7.35343 -0.0156524 0)
(7.35889 -0.0161426 0)
(7.36269 -0.0160926 0)
(7.36526 -0.0156638 0)
(7.36663 -0.0149858 0)
(7.36692 -0.0142246 0)
(7.36633 -0.0134731 0)
(7.36507 -0.0127592 0)
(7.3633 -0.0120897 0)
(7.36116 -0.0114668 0)
(7.35874 -0.0108896 0)
(7.35614 -0.010354 0)
(7.35343 -0.00985482 0)
(7.35067 -0.00938723 0)
(7.34789 -0.00894701 0)
(7.34514 -0.00853056 0)
(7.34244 -0.00813489 0)
(7.3398 -0.00775757 0)
(7.33725 -0.0073967 0)
(7.3348 -0.00705078 0)
(7.33244 -0.00671866 0)
(7.33019 -0.00639945 0)
(7.32804 -0.00609246 0)
(7.32601 -0.00579718 0)
(7.32408 -0.00551318 0)
(7.32226 -0.00524013 0)
(7.32054 -0.00497771 0)
(7.31892 -0.00472563 0)
(7.3174 -0.00448349 0)
(7.31598 -0.00425084 0)
(7.31465 -0.00402628 0)
(7.32508 -0.00546587 0)
(7.31336 -0.0121126 0)
(7.29931 -0.0150213 0)
(7.28296 -0.0161011 0)
(7.26694 -0.0162707 0)
(7.25229 -0.0158245 0)
(7.23891 -0.0149742 0)
(7.22664 -0.0139196 0)
(7.21547 -0.0127961 0)
(7.20535 -0.0116781 0)
(7.19618 -0.0106063 0)
(7.18787 -0.00960388 0)
(7.18032 -0.008682 0)
(7.17345 -0.0078433 0)
(7.16719 -0.00708535 0)
(7.16148 -0.00640305 0)
(7.15626 -0.00579002 0)