/*--------------------------------*- C++ -*----------------------------------*\
| =========                 |                                                 |
| \\      /  F ield         | OpenFOAM: The Open Source CFD Toolbox           |
|  \\    /   O peration     | Version:  4.1                                   |
|   \\  /    A nd           | Web:      www.OpenFOAM.org                      |
|    \\/     M anipulation  |                                                 |
\*---------------------------------------------------------------------------*/
FoamFile
{
    version     2.0;
    format      ascii;
    class       volScalarField;
    location    "1900";
    object      nut;
}
// * * * * * * * * * * * * * * * * * * * * * * * * * * * * * * * * * * * * * //

dimensions      [0 2 -1 0 0 0 0];

internalField   nonuniform List<scalar> 
6820
(
4.53774e-05
4.96674e-05
5.35596e-05
5.7033e-05
6.00872e-05
6.27329e-05
6.49892e-05
6.68824e-05
6.84449e-05
6.97114e-05
7.07177e-05
7.14978e-05
7.20841e-05
7.25058e-05
7.27893e-05
7.29578e-05
7.30314e-05
7.30275e-05
7.29609e-05
7.28442e-05
7.26882e-05
7.25016e-05
7.22921e-05
7.20657e-05
7.18277e-05
7.15822e-05
7.13329e-05
7.10825e-05
7.08333e-05
7.05874e-05
7.03459e-05
7.01145e-05
6.99707e-05
0.000389004
0.000214804
0.000161971
0.000134577
0.000117082
0.000104841
9.58724e-05
8.91195e-05
8.39493e-05
7.99547e-05
7.68576e-05
7.44593e-05
7.26133e-05
7.12095e-05
7.01639e-05
6.94111e-05
6.88998e-05
6.85893e-05
6.84468e-05
6.84457e-05
6.85646e-05
6.87854e-05
6.90931e-05
6.94752e-05
6.99209e-05
7.04212e-05
7.09681e-05
7.15548e-05
7.21759e-05
7.28246e-05
7.35007e-05
7.41941e-05
7.51908e-05
0.000867009
0.000638273
0.00050769
0.000428082
0.000375014
0.000336916
0.000308048
0.000285295
0.000266813
0.00025144
0.000238413
0.00022721
0.000217458
0.00020889
0.000201303
0.000194545
0.000188496
0.000183062
0.000178166
0.00017375
0.000169743
0.000166041
0.000162606
0.000159413
0.000156443
0.00015368
0.000151107
0.000148711
0.000146478
0.000144399
0.000142458
0.000140657
0.000139055
0.000991214
0.000902164
0.000807377
0.000726622
0.000661863
0.000610175
0.000568431
0.000534166
0.000505567
0.000481331
0.000460513
0.000442414
0.000426509
0.0004124
0.00039978
0.000388413
0.000378111
0.000368724
0.000360134
0.000352242
0.000344971
0.00033822
0.000331916
0.000326008
0.000320452
0.000315214
0.000310264
0.000305579
0.000301135
0.000296916
0.000292902
0.000289081
0.000285433
0.00101005
0.00098739
0.000948626
0.000902916
0.000857083
0.00081444
0.000776076
0.000742011
0.000711858
0.000685132
0.000661359
0.000640115
0.000621037
0.000603821
0.00058821
0.00057399
0.000560984
0.000549041
0.000538035
0.000527861
0.000518429
0.000509658
0.000501477
0.000493823
0.000486643
0.000479889
0.000473523
0.000467508
0.000461815
0.000456416
0.000451288
0.000446407
0.000441712
0.00101185
0.00100724
0.000995356
0.000976942
0.000954121
0.000929118
0.000903659
0.000878801
0.000855099
0.000832805
0.000812001
0.000792668
0.000774737
0.000758113
0.000742692
0.000728374
0.00071506
0.000702662
0.000691095
0.000680287
0.00067017
0.000660683
0.000651773
0.000643389
0.000635487
0.000628027
0.000620973
0.000614293
0.000607959
0.000601943
0.000596222
0.000590768
0.0005855
0.00101178
0.00101089
0.00100777
0.00100182
0.000992905
0.000981471
0.000968242
0.00095392
0.000939072
0.000924117
0.000909347
0.000894953
0.000881053
0.000867715
0.00085497
0.000842827
0.00083128
0.000820311
0.000809899
0.000800017
0.000790637
0.000781725
0.000773254
0.0007652
0.000757539
0.000750246
0.0007433
0.00073668
0.000730366
0.000724339
0.000718581
0.000713066
0.000707706
0.00101168
0.00101136
0.00101047
0.00100868
0.00100565
0.0010012
0.000995412
0.000988494
0.000980691
0.000972245
0.000963375
0.000954264
0.000945058
0.000935871
0.000926788
0.00091787
0.000909162
0.000900694
0.000892486
0.000884548
0.000876885
0.000869497
0.00086238
0.000855529
0.000848937
0.000842597
0.000836499
0.000830636
0.000824999
0.000819577
0.00081436
0.000809329
0.000804393
0.00101165
0.00101137
0.00101095
0.0010103
0.00100928
0.00100769
0.00100543
0.00100251
0.000998941
0.000994803
0.000990178
0.00098516
0.000979838
0.000974296
0.000968606
0.00096283
0.000957019
0.000951215
0.00094545
0.00093975
0.000934136
0.000928624
0.000923226
0.000917951
0.000912805
0.000907792
0.000902914
0.000898172
0.000893566
0.000889095
0.000884756
0.000880532
0.000876338
0.00101164
0.00101135
0.00101102
0.00101063
0.00101016
0.00100951
0.0010086
0.00100738
0.00100583
0.00100394
0.00100172
0.000999201
0.000996409
0.000993382
0.000990158
0.000986773
0.000983263
0.000979658
0.000975986
0.000972273
0.000968538
0.0009648
0.000961074
0.000957374
0.000953709
0.000950089
0.000946521
0.000943011
0.000939564
0.000936182
0.000932867
0.000929606
0.000926318
0.00101163
0.00101134
0.00101103
0.0010107
0.00101036
0.00100998
0.00100952
0.00100894
0.00100823
0.00100736
0.00100632
0.00100511
0.00100373
0.00100219
0.00100049
0.000998656
0.000996699
0.000994636
0.000992481
0.00099025
0.000987958
0.000985618
0.000983241
0.000980839
0.000978421
0.000975996
0.000973572
0.000971156
0.000968753
0.000966369
0.000964006
0.000961652
0.000959227
0.00101163
0.00101134
0.00101103
0.00101072
0.00101041
0.0010101
0.00100977
0.00100939
0.00100897
0.00100849
0.00100793
0.0010073
0.00100658
0.00100577
0.00100487
0.00100388
0.00100282
0.00100167
0.00100045
0.000999166
0.000997824
0.00099643
0.000994992
0.000993517
0.00099201
0.000990479
0.000988927
0.000987362
0.000985787
0.000984206
0.000982622
0.000981024
0.000979332
0.00101163
0.00101133
0.00101104
0.00101073
0.00101043
0.00101014
0.00100984
0.00100953
0.00100921
0.00100886
0.0010085
0.0010081
0.00100766
0.00100719
0.00100667
0.00100611
0.00100551
0.00100486
0.00100416
0.00100342
0.00100265
0.00100183
0.00100098
0.0010001
0.000999189
0.000998253
0.000997294
0.000996317
0.000995323
0.000994316
0.000993296
0.00099225
0.000991102
0.00101163
0.00101133
0.00101104
0.00101074
0.00101045
0.00101016
0.00100987
0.00100958
0.00100929
0.00100899
0.00100869
0.00100837
0.00100804
0.0010077
0.00100734
0.00100696
0.00100657
0.00100615
0.0010057
0.00100524
0.00100476
0.00100425
0.00100372
0.00100317
0.00100261
0.00100202
0.00100142
0.00100081
0.00100018
0.000999537
0.000998884
0.000998207
0.000997426
0.00101163
0.00101133
0.00101104
0.00101075
0.00101046
0.00101018
0.00100989
0.00100961
0.00100933
0.00100905
0.00100877
0.00100848
0.0010082
0.00100791
0.00100761
0.00100732
0.00100701
0.0010067
0.00100638
0.00100604
0.0010057
0.00100536
0.001005
0.00100463
0.00100425
0.00100386
0.00100346
0.00100306
0.00100264
0.00100222
0.00100179
0.00100134
0.00100078
0.00101163
0.00101133
0.00101105
0.00101075
0.00101047
0.00101019
0.00100991
0.00100963
0.00100936
0.00100908
0.00100881
0.00100854
0.00100827
0.001008
0.00100773
0.00100746
0.00100719
0.00100692
0.00100665
0.00100637
0.0010061
0.00100582
0.00100553
0.00100525
0.00100496
0.00100467
0.00100437
0.00100407
0.00100377
0.00100346
0.00100315
0.00100282
0.0010024
0.00101163
0.00101133
0.00101105
0.00101076
0.00101048
0.0010102
0.00100992
0.00100965
0.00100938
0.00100911
0.00100884
0.00100858
0.00100831
0.00100805
0.0010078
0.00100754
0.00100729
0.00100704
0.00100679
0.00100654
0.00100629
0.00100605
0.0010058
0.00100556
0.00100531
0.00100507
0.00100483
0.00100458
0.00100434
0.0010041
0.00100385
0.00100359
0.00100323
0.00101163
0.00101133
0.00101105
0.00101076
0.00101048
0.00101021
0.00100994
0.00100966
0.0010094
0.00100913
0.00100887
0.00100861
0.00100835
0.00100809
0.00100784
0.00100759
0.00100735
0.00100711
0.00100687
0.00100663
0.00100639
0.00100616
0.00100593
0.00100571
0.00100548
0.00100526
0.00100504
0.00100482
0.00100461
0.00100439
0.00100418
0.00100395
0.00100363
0.00101163
0.00101133
0.00101105
0.00101077
0.00101049
0.00101022
0.00100994
0.00100968
0.00100941
0.00100915
0.00100889
0.00100863
0.00100838
0.00100812
0.00100788
0.00100763
0.00100739
0.00100716
0.00100692
0.00100669
0.00100647
0.00100624
0.00100602
0.00100581
0.00100559
0.00100538
0.00100517
0.00100497
0.00100477
0.00100457
0.00100437
0.00100416
0.00100386
0.00101163
0.00101133
0.00101105
0.00101077
0.00101049
0.00101022
0.00100995
0.00100969
0.00100942
0.00100916
0.0010089
0.00100865
0.0010084
0.00100815
0.00100791
0.00100767
0.00100743
0.0010072
0.00100697
0.00100674
0.00100652
0.0010063
0.00100608
0.00100587
0.00100567
0.00100546
0.00100526
0.00100506
0.00100487
0.00100468
0.00100449
0.00100428
0.00100399
0.00101163
0.00101133
0.00101105
0.00101077
0.0010105
0.00101023
0.00100996
0.00100969
0.00100943
0.00100917
0.00100892
0.00100867
0.00100842
0.00100817
0.00100793
0.00100769
0.00100746
0.00100723
0.001007
0.00100678
0.00100656
0.00100635
0.00100614
0.00100593
0.00100572
0.00100552
0.00100533
0.00100513
0.00100495
0.00100476
0.00100457
0.00100438
0.00100409
0.00101163
0.00101133
0.00101105
0.00101077
0.0010105
0.00101023
0.00100996
0.0010097
0.00100944
0.00100918
0.00100893
0.00100868
0.00100843
0.00100819
0.00100795
0.00100772
0.00100749
0.00100726
0.00100704
0.00100682
0.0010066
0.00100639
0.00100618
0.00100597
0.00100577
0.00100557
0.00100538
0.00100519
0.00100501
0.00100482
0.00100464
0.00100445
0.00100416
0.00101163
0.00101133
0.00101105
0.00101077
0.0010105
0.00101023
0.00100997
0.00100971
0.00100945
0.00100919
0.00100894
0.00100869
0.00100845
0.00100821
0.00100797
0.00100774
0.00100751
0.00100728
0.00100706
0.00100684
0.00100663
0.00100642
0.00100621
0.00100601
0.00100581
0.00100562
0.00100542
0.00100524
0.00100505
0.00100487
0.00100469
0.0010045
0.00100422
0.00101163
0.00101133
0.00101105
0.00101077
0.0010105
0.00101023
0.00100997
0.00100971
0.00100945
0.0010092
0.00100895
0.0010087
0.00100846
0.00100822
0.00100798
0.00100775
0.00100753
0.0010073
0.00100708
0.00100687
0.00100665
0.00100644
0.00100624
0.00100604
0.00100584
0.00100565
0.00100546
0.00100527
0.00100509
0.00100491
0.00100474
0.00100455
0.00100427
0.00101163
0.00101133
0.00101105
0.00101077
0.0010105
0.00101024
0.00100997
0.00100971
0.00100946
0.0010092
0.00100895
0.00100871
0.00100847
0.00100823
0.00100799
0.00100776
0.00100754
0.00100731
0.00100709
0.00100688
0.00100667
0.00100646
0.00100626
0.00100606
0.00100586
0.00100567
0.00100548
0.00100529
0.00100511
0.00100493
0.00100476
0.00100457
0.00100429
0.00101163
0.00101133
0.00101105
0.00101077
0.0010105
0.00101024
0.00100997
0.00100971
0.00100946
0.0010092
0.00100895
0.00100871
0.00100847
0.00100823
0.001008
0.00100777
0.00100754
0.00100732
0.0010071
0.00100689
0.00100668
0.00100647
0.00100627
0.00100607
0.00100588
0.00100568
0.0010055
0.00100531
0.00100513
0.00100496
0.00100478
0.00100459
0.00100432
0.00101163
0.00101133
0.00101105
0.00101077
0.0010105
0.00101024
0.00100997
0.00100971
0.00100946
0.0010092
0.00100896
0.00100871
0.00100847
0.00100823
0.001008
0.00100777
0.00100754
0.00100732
0.0010071
0.00100688
0.00100667
0.00100646
0.00100626
0.00100606
0.00100586
0.00100567
0.00100548
0.0010053
0.00100512
0.00100494
0.00100476
0.00100457
0.00100429
0.00101163
0.00101133
0.00101105
0.00101077
0.0010105
0.00101024
0.00100997
0.00100971
0.00100945
0.0010092
0.00100895
0.00100871
0.00100847
0.00100823
0.00100799
0.00100776
0.00100754
0.00100732
0.0010071
0.00100688
0.00100667
0.00100647
0.00100627
0.00100607
0.00100587
0.00100568
0.00100549
0.00100531
0.00100513
0.00100495
0.00100478
0.00100459
0.00100431
0.00101163
0.00101133
0.00101105
0.00101077
0.0010105
0.00101023
0.00100997
0.00100971
0.00100945
0.0010092
0.00100894
0.0010087
0.00100845
0.00100821
0.00100797
0.00100774
0.00100751
0.00100729
0.00100706
0.00100684
0.00100663
0.00100642
0.00100621
0.00100601
0.00100581
0.00100562
0.00100542
0.00100524
0.00100505
0.00100487
0.00100469
0.0010045
0.00100422
0.00101163
0.00101133
0.00101105
0.00101077
0.0010105
0.00101023
0.00100997
0.0010097
0.00100945
0.00100919
0.00100894
0.00100869
0.00100845
0.00100821
0.00100798
0.00100775
0.00100752
0.0010073
0.00100708
0.00100686
0.00100665
0.00100644
0.00100623
0.00100603
0.00100583
0.00100564
0.00100544
0.00100526
0.00100507
0.00100489
0.00100471
0.00100451
0.00100423
0.00101163
0.00101133
0.00101105
0.00101077
0.0010105
0.00101023
0.00100996
0.00100969
0.00100943
0.00100917
0.00100891
0.00100866
0.00100841
0.00100816
0.00100791
0.00100767
0.00100744
0.0010072
0.00100697
0.00100674
0.00100652
0.0010063
0.00100608
0.00100587
0.00100566
0.00100545
0.00100525
0.00100505
0.00100486
0.00100466
0.00100447
0.00100426
0.00100397
0.00101163
0.00101133
0.00101105
0.00101077
0.00101049
0.00101022
0.00100996
0.0010097
0.00100944
0.00100918
0.00100893
0.00100868
0.00100843
0.00100819
0.00100795
0.00100771
0.00100747
0.00100723
0.00100699
0.00100676
0.00100653
0.0010063
0.00100606
0.00100584
0.00100561
0.00100538
0.00100516
0.00100493
0.00100471
0.00100449
0.00100426
0.00100403
0.00100369
0.00101163
0.00101133
0.00101105
0.00101077
0.00101048
0.0010102
0.00100992
0.00100964
0.00100935
0.00100907
0.00100879
0.00100851
0.00100822
0.00100794
0.00100766
0.00100738
0.0010071
0.00100681
0.00100653
0.00100624
0.00100595
0.00100566
0.00100536
0.00100507
0.00100477
0.00100447
0.00100416
0.00100386
0.00100355
0.00100325
0.00100293
0.00100261
0.00100218
0.00101163
0.00101134
0.00101105
0.00101077
0.00101049
0.00101021
0.00100993
0.00100964
0.00100934
0.00100903
0.00100871
0.00100837
0.00100802
0.00100766
0.00100728
0.00100689
0.00100648
0.00100606
0.00100562
0.00100516
0.00100469
0.00100421
0.00100371
0.0010032
0.00100268
0.00100215
0.00100161
0.00100106
0.00100051
0.000999942
0.00099937
0.000998776
0.000998084
0.00101163
0.00101134
0.00101103
0.00101069
0.00101033
0.00100994
0.00100951
0.00100904
0.00100853
0.00100796
0.00100734
0.00100667
0.00100594
0.00100515
0.00100431
0.00100342
0.00100248
0.00100149
0.00100047
0.000999414
0.000998324
0.000997207
0.000996067
0.000994906
0.00099373
0.000992542
0.000991344
0.000990139
0.00098893
0.00098772
0.000986508
0.000985283
0.000983969
0.00101164
0.00101133
0.00101094
0.00101042
0.00100973
0.00100883
0.0010077
0.00100635
0.00100478
0.001003
0.00100104
0.000998909
0.000996631
0.000994228
0.000991719
0.000989125
0.000986463
0.00098375
0.000981
0.000978226
0.00097544
0.000972653
0.000969872
0.000967103
0.000964354
0.00096163
0.000958937
0.000956278
0.000953656
0.000951075
0.000948535
0.000946023
0.000943466
0.00101162
0.0010106
0.00100853
0.00100543
0.0010014
0.000996513
0.00099091
0.000984747
0.000978174
0.000971314
0.000964272
0.000957136
0.000949978
0.000942854
0.000935809
0.000928876
0.000922082
0.000915443
0.000908975
0.000902685
0.000896578
0.000890657
0.000884923
0.000879373
0.000874006
0.000868819
0.000863806
0.000858963
0.000854286
0.000849769
0.000845405
0.000841179
0.000837016
0.00100895
0.000995379
0.000976042
0.000953694
0.00093032
0.000907093
0.000884657
0.000863329
0.000843228
0.000824388
0.000806781
0.000790352
0.000775024
0.00076072
0.000747357
0.00073486
0.000723158
0.000712183
0.000701876
0.000692182
0.000683051
0.000674439
0.000666305
0.000658613
0.000651329
0.000644424
0.000637871
0.000631644
0.000625722
0.000620084
0.00061471
0.00060958
0.000604632
0.000892788
0.000742255
0.000649202
0.00058554
0.000538566
0.000502138
0.000472884
0.000448753
0.000428416
0.000410981
0.000395823
0.000382492
0.000370655
0.000360056
0.0003505
0.000341831
0.000333927
0.000326686
0.000320026
0.000313879
0.000308188
0.000302904
0.000297984
0.000293395
0.000289104
0.000285084
0.000281313
0.000277768
0.000274431
0.000271286
0.000268318
0.000265514
0.000262862
0.000126722
0.000129956
0.000133005
0.000135891
0.000138628
0.00014123
0.000143705
0.000146063
0.000148309
0.00015045
0.000152489
0.000154433
0.000156285
0.00015805
0.000159732
0.000161334
0.00016286
0.000164313
0.000165696
0.000167014
0.000168268
0.000169462
0.000170599
0.00017168
0.00017271
0.000173689
0.000174621
0.000175508
0.000176352
0.000177155
0.000177919
0.000178647
0.000179344
8.54716e-05
0.000115332
0.000145819
0.000176042
0.000203055
0.000226769
0.000248135
0.000268245
0.000288038
0.000308095
0.000328603
0.00034949
0.000370714
0.000392232
0.000413997
0.000435868
0.000457603
0.000479137
0.000500296
0.000521122
0.000541709
0.000562156
0.000582551
0.000602975
0.000623515
0.000644283
0.000665406
0.000687019
0.000709236
0.000732146
0.000755816
0.000780307
0.000805675
0.000831966
0.000859209
0.000887409
0.000916545
0.000946573
0.00097743
0.00100904
0.0010413
0.00107413
0.0011074
0.00114099
0.0011748
0.0012087
0.00124257
0.0012763
0.00130979
0.00134295
0.00137568
0.0014079
0.00143956
0.00147058
0.00150093
0.00153057
0.00155948
0.00158765
0.00161507
0.00164178
0.00166779
0.00169315
0.00171793
0.00174217
0.00176595
0.00178936
0.00181249
0.00183541
0.00185823
0.00188103
0.0019039
0.00192694
0.00195023
0.00197383
0.0019978
0.0020222
0.00204703
0.00207227
0.00209787
0.00212376
0.00214985
0.00217604
0.00220225
0.00222838
0.00225431
0.00227994
0.00230514
0.0023298
0.00235379
0.00237701
0.00239934
0.0024207
0.00244102
0.00246033
0.00247872
0.00249667
0.00251505
0.00253604
0.00256318
0.00261201
7.83535e-05
8.47403e-05
9.52606e-05
0.000110487
0.000129553
0.000151376
0.000174469
0.000197666
0.000220409
0.000242499
0.000263948
0.000284892
0.000305566
0.00032623
0.000347098
0.000368241
0.000389572
0.000410966
0.000432385
0.000453687
0.000474824
0.000495809
0.000516675
0.000537461
0.000558209
0.00057898
0.000599855
0.000620936
0.000642326
0.000664117
0.000686387
0.000709205
0.000732638
0.000756746
0.000781584
0.000807192
0.00083359
0.000860778
0.000888739
0.000917437
0.000946821
0.000976827
0.00100738
0.00103838
0.00106975
0.00110139
0.00113318
0.00116504
0.00119685
0.00122854
0.00126
0.00129117
0.00132197
0.00135233
0.00138221
0.00141156
0.00144036
0.00146859
0.00149626
0.00152336
0.00154994
0.00157603
0.00160167
0.00162693
0.00165187
0.00167657
0.0017011
0.00172554
0.00174997
0.00177447
0.00179912
0.00182399
0.00184914
0.00187465
0.00190054
0.00192685
0.00195359
0.00198073
0.00200822
0.00203597
0.00206389
0.00209189
0.00211987
0.00214773
0.00217536
0.00220264
0.00222946
0.00225571
0.00228125
0.00230599
0.00232982
0.00235265
0.00237444
0.00239519
0.00241502
0.00243438
0.00245407
0.00247607
0.00250349
0.00254808
0.000137741
0.000137412
0.000137918
0.000139198
0.000141079
0.000143457
0.00014784
0.000155261
0.000165882
0.0001792
0.000194773
0.00021214
0.000230861
0.000250575
0.000271003
0.000291916
0.000313063
0.000334238
0.000355503
0.000376779
0.000398013
0.00041918
0.000440273
0.000461285
0.000482215
0.000503077
0.00052391
0.000544773
0.000565743
0.000586898
0.000608312
0.000630055
0.000652197
0.000674806
0.000697947
0.000721679
0.000746051
0.000771093
0.000796823
0.000823242
0.000850333
0.000878065
0.000906393
0.000935259
0.000964592
0.000994314
0.00102434
0.00105459
0.00108496
0.00111538
0.00114576
0.00117602
0.0012061
0.00123593
0.00126546
0.00129465
0.00132348
0.00135191
0.00137995
0.00140761
0.00143491
0.00146188
0.00148856
0.00151499
0.00154125
0.00156739
0.00159347
0.00161956
0.00164572
0.00167202
0.00169852
0.00172528
0.00175235
0.00177977
0.00180758
0.00183578
0.00186438
0.00189334
0.0019226
0.00195209
0.0019817
0.00201134
0.00204092
0.00207032
0.00209944
0.00212817
0.00215639
0.002184
0.00221087
0.00223691
0.00226202
0.00228612
0.00230916
0.00233115
0.00235222
0.00237278
0.00239359
0.00241639
0.00244387
0.0024837
0.000281177
0.000277082
0.000273362
0.000270013
0.000266845
0.000263255
0.000258705
0.000253027
0.000246347
0.000240671
0.000236911
0.000235528
0.000236878
0.000241121
0.000248225
0.000257983
0.000270031
0.000283927
0.000299317
0.000315929
0.000333476
0.00035172
0.000370471
0.000389582
0.000408944
0.000428485
0.000448172
0.000468002
0.000487997
0.00050819
0.00052862
0.000549326
0.000570353
0.00059175
0.00061357
0.000635868
0.000658692
0.000682086
0.000706083
0.000730702
0.000755953
0.00078183
0.000808313
0.00083537
0.000862958
0.000891021
0.000919497
0.000948317
0.00097741
0.0010067
0.00103612
0.0010656
0.00109508
0.00112449
0.0011538
0.00118295
0.00121192
0.00124069
0.00126926
0.00129761
0.00132577
0.00135376
0.00138161
0.00140936
0.00143705
0.00146472
0.00149244
0.00152025
0.0015482
0.00157633
0.0016047
0.00163333
0.00166228
0.00169156
0.00172119
0.00175117
0.00178149
0.00181211
0.00184297
0.00187399
0.00190506
0.00193611
0.00196702
0.00199769
0.00202803
0.00205793
0.00208727
0.00211596
0.00214388
0.00217095
0.00219706
0.00222216
0.00224619
0.00226918
0.00229124
0.00231277
0.00233444
0.0023578
0.0023851
0.00241965
0.000436014
0.000430299
0.000424735
0.000419452
0.000414488
0.000409764
0.000405053
0.000399977
0.000394024
0.000386882
0.000378736
0.000369963
0.000360886
0.000351965
0.00034376
0.00033684
0.000331689
0.000328608
0.000327854
0.000329556
0.000333672
0.000340067
0.000348545
0.000358867
0.000370782
0.000384046
0.000398442
0.000413792
0.000429955
0.000446829
0.000464338
0.000482433
0.000501082
0.000520275
0.000540012
0.000560309
0.000581182
0.000602655
0.000624745
0.000647471
0.000670842
0.000694861
0.000719522
0.000744808
0.000770694
0.000797145
0.000824115
0.000851555
0.000879408
0.000907616
0.000936119
0.000964859
0.000993779
0.00102283
0.00105196
0.00108113
0.00111031
0.00113948
0.00116861
0.00119771
0.00122678
0.00125583
0.00128488
0.00131395
0.00134307
0.00137228
0.00140161
0.00143109
0.00146075
0.00149062
0.00152073
0.00155111
0.00158177
0.00161271
0.00164395
0.00167547
0.00170725
0.00173925
0.0017714
0.00180362
0.00183583
0.00186792
0.00189981
0.00193141
0.00196261
0.00199331
0.00202342
0.00205284
0.00208147
0.00210922
0.00213602
0.0021618
0.00218652
0.00221021
0.00223297
0.00225519
0.00227745
0.00230108
0.00232793
0.00235677
0.000579026
0.000572596
0.000566234
0.00056001
0.000553988
0.000548197
0.000542658
0.000537349
0.000532147
0.000526849
0.000521235
0.000515226
0.000508624
0.000501284
0.000493128
0.000484167
0.00047452
0.000464391
0.000454155
0.000444297
0.0004353
0.000427606
0.00042158
0.000417489
0.00041549
0.000415645
0.000417935
0.00042228
0.000428563
0.00043664
0.000446355
0.000457558
0.000470106
0.000483877
0.000498769
0.000514701
0.000531612
0.000549455
0.000568197
0.000587811
0.000608275
0.00062957
0.000651675
0.000674566
0.000698214
0.000722587
0.000747644
0.000773342
0.000799633
0.000826465
0.000853786
0.000881541
0.000909679
0.000938149
0.000966905
0.000995903
0.00102511
0.00105449
0.00108402
0.0011137
0.0011435
0.00117343
0.00120349
0.00123368
0.00126403
0.00129455
0.00132524
0.00135613
0.00138722
0.00141853
0.00145006
0.00148182
0.00151382
0.00154604
0.00157848
0.00161111
0.00164391
0.00167683
0.00170981
0.00174277
0.00177563
0.00180831
0.00184072
0.00187277
0.00190438
0.00193546
0.00196591
0.00199565
0.0020246
0.00205267
0.00207978
0.00210589
0.00213097
0.00215503
0.00217819
0.0022008
0.00222335
0.00224695
0.00227307
0.00229587
0.000701047
0.000694454
0.000687961
0.000681543
0.00067528
0.000669196
0.000663317
0.000657669
0.000652234
0.000646991
0.00064189
0.000636897
0.000631934
0.000626893
0.000621638
0.000616015
0.000609861
0.000603015
0.000595351
0.000586862
0.000577616
0.000567781
0.000557616
0.000547447
0.000537637
0.000528553
0.000520542
0.000513904
0.000508878
0.000505637
0.000504283
0.000504858
0.000507355
0.000511727
0.000517906
0.000525808
0.000535345
0.000546427
0.000558973
0.000572903
0.000588149
0.000604645
0.000622332
0.000641156
0.000661063
0.000682001
0.000703914
0.00072675
0.000750452
0.000774962
0.000800224
0.00082618
0.000852772
0.000879944
0.000907643
0.00093582
0.000964427
0.000993424
0.00102277
0.00105245
0.00108242
0.00111267
0.00114319
0.00117395
0.00120496
0.00123621
0.00126769
0.00129939
0.00133131
0.00136343
0.00139576
0.00142827
0.00146096
0.0014938
0.00152677
0.00155986
0.00159302
0.00162622
0.00165938
0.00169246
0.00172537
0.00175804
0.0017904
0.00182237
0.00185388
0.00188484
0.00191518
0.00194481
0.00197367
0.00200166
0.00202873
0.00205484
0.00207994
0.00210407
0.00212732
0.00215002
0.00217257
0.00219585
0.002221
0.0022376
0.000798149
0.000792013
0.000785946
0.000779924
0.000773977
0.000768115
0.000762356
0.000756729
0.000751261
0.000745972
0.000740874
0.00073598
0.000731287
0.000726782
0.00072243
0.000718178
0.000713947
0.000709634
0.000705111
0.000700252
0.000694934
0.000689066
0.000682572
0.000675439
0.00066772
0.000659533
0.000651057
0.000642517
0.000634176
0.000626307
0.000619178
0.000613039
0.000608105
0.000604557
0.000602532
0.000602127
0.000603403
0.00060639
0.000611091
0.000617491
0.000625559
0.000635252
0.000646523
0.000659318
0.000673579
0.000689246
0.000706257
0.000724549
0.000744056
0.000764713
0.000786453
0.000809208
0.000832912
0.000857498
0.000882901
0.000909057
0.000935907
0.000963392
0.000991459
0.00102006
0.00104915
0.00107868
0.00110863
0.00113895
0.00116961
0.00120059
0.00123186
0.00126339
0.00129515
0.00132711
0.00135926
0.00139156
0.00142399
0.00145653
0.00148914
0.0015218
0.00155448
0.00158713
0.00161971
0.00165216
0.00168442
0.00171644
0.00174814
0.00177947
0.00181035
0.00184072
0.00187051
0.00189964
0.00192804
0.00195563
0.00198236
0.00200818
0.00203305
0.002057
0.00208012
0.00210267
0.002125
0.00214774
0.00217176
0.00218226
0.000870887
0.000865604
0.000860342
0.000855102
0.000849871
0.000844671
0.000839517
0.000834429
0.000829427
0.000824529
0.000819745
0.000815085
0.000810568
0.000806214
0.000802037
0.000798044
0.000794231
0.000790585
0.000787071
0.000783627
0.000780196
0.000776707
0.000773082
0.000769243
0.000765122
0.000760672
0.000755874
0.000750744
0.000745343
0.000739721
0.000734001
0.000728337
0.000722906
0.000717899
0.000713498
0.000709883
0.000707217
0.000705648
0.0007053
0.000706277
0.00070866
0.000712507
0.000717857
0.000724731
0.000733135
0.00074306
0.000754487
0.000767385
0.000781715
0.000797432
0.000814483
0.000832811
0.000852354
0.000873047
0.000894823
0.000917613
0.000941348
0.00096596
0.000991382
0.00101755
0.0010444
0.00107186
0.0010999
0.00112844
0.00115744
0.00118685
0.00121661
0.0012467
0.00127705
0.00130763
0.00133841
0.00136935
0.00140041
0.00143156
0.00146278
0.00149404
0.00152532
0.00155656
0.00158775
0.00161884
0.00164979
0.00168054
0.00171104
0.00174125
0.00177109
0.00180052
0.00182945
0.00185781
0.00188554
0.00191256
0.0019388
0.00196421
0.00198875
0.00201244
0.00203533
0.00205766
0.00207968
0.00210181
0.00212467
0.00212953
0.000921864
0.000917653
0.000913422
0.000909175
0.000904908
0.000900622
0.000896334
0.000892053
0.000887789
0.000883555
0.000879362
0.000875223
0.000871153
0.000867167
0.000863285
0.000859524
0.000855903
0.000852438
0.000849141
0.000846016
0.000843065
0.000840271
0.000837613
0.000835063
0.000832586
0.000830143
0.000827694
0.000825205
0.000822653
0.000820023
0.000817317
0.000814561
0.000811803
0.000809121
0.000806563
0.000804226
0.00080223
0.000800697
0.000799752
0.000799516
0.000800107
0.000801632
0.000804188
0.000807858
0.000812713
0.000818808
0.000826185
0.000834873
0.000844887
0.00085623
0.000868892
0.000882854
0.000898086
0.000914551
0.000932203
0.000950988
0.00097085
0.000991727
0.00101355
0.00103627
0.00105979
0.00108407
0.00110904
0.00113462
0.00116076
0.00118739
0.00121446
0.00124192
0.0012697
0.00129777
0.00132608
0.00135458
0.00138326
0.00141207
0.001441
0.00147002
0.00149911
0.00152825
0.00155741
0.00158658
0.00161571
0.00164478
0.00167374
0.00170255
0.00173115
0.00175948
0.00178747
0.00181505
0.00184213
0.00186863
0.00189448
0.00191961
0.00194395
0.00196752
0.00199034
0.0020126
0.00203446
0.00205613
0.00207804
0.00207822
0.000955744
0.000952591
0.000949392
0.000946151
0.000942872
0.000939552
0.000936196
0.000932813
0.000929409
0.000925994
0.000922576
0.00091916
0.000915755
0.000912367
0.000909011
0.000905702
0.000902459
0.000899301
0.000896244
0.000893305
0.000890507
0.000887866
0.000885396
0.000883107
0.000881002
0.000879084
0.000877345
0.000875776
0.000874365
0.000873098
0.000871963
0.000870953
0.000870068
0.000869319
0.000868721
0.000868304
0.000868091
0.000868121
0.000868454
0.000869162
0.000870324
0.000872022
0.000874339
0.000877356
0.000881151
0.000885796
0.000891357
0.000897889
0.000905442
0.000914052
0.000923748
0.000934545
0.00094645
0.000959458
0.000973555
0.000988717
0.00100491
0.0010221
0.00104024
0.00105927
0.00107914
0.0010998
0.00112118
0.00114322
0.00116587
0.00118906
0.00121274
0.00123685
0.00126136
0.0012862
0.00131135
0.00133676
0.00136241
0.00138828
0.00141436
0.00144063
0.00146708
0.00149371
0.00152051
0.00154747
0.00157457
0.00160179
0.00162911
0.00165649
0.00168387
0.0017112
0.0017384
0.0017654
0.0017921
0.00181841
0.00184422
0.00186945
0.00189401
0.00191789
0.00194107
0.00196368
0.00198579
0.00200745
0.00202892
0.00202594
0.000976687
0.000974454
0.000972165
0.000969824
0.000967435
0.000965
0.000962515
0.000959986
0.000957418
0.000954815
0.000952179
0.000949516
0.000946828
0.000944122
0.000941403
0.00093868
0.000935963
0.000933266
0.000930604
0.000927996
0.00092546
0.000923021
0.000920698
0.000918512
0.000916482
0.00091463
0.00091297
0.000911517
0.00091028
0.000909267
0.000908481
0.000907925
0.000907601
0.00090751
0.000907656
0.000908048
0.000908684
0.00090957
0.000910726
0.000912183
0.000913976
0.000916149
0.000918748
0.000921824
0.00092543
0.00092962
0.000934448
0.000939964
0.000946216
0.000953249
0.000961098
0.000969796
0.000979365
0.000989821
0.00100117
0.00101341
0.00102654
0.00104052
0.00105535
0.00107099
0.0010874
0.00110454
0.00112237
0.00114084
0.00115991
0.00117952
0.00119963
0.00122021
0.0012412
0.00126259
0.00128433
0.0013064
0.0013288
0.00135151
0.00137452
0.00139785
0.00142149
0.00144546
0.00146978
0.00149444
0.00151946
0.00154482
0.00157052
0.00159653
0.00162282
0.00164932
0.00167598
0.00170269
0.00172937
0.00175589
0.00178213
0.001808
0.00183336
0.00185815
0.00188232
0.00190594
0.00192898
0.00195134
0.00197315
0.00196915
0.000989089
0.00098756
0.000985979
0.000984348
0.00098267
0.000980945
0.000979174
0.000977355
0.000975493
0.000973591
0.000971648
0.000969668
0.00096765
0.000965597
0.000963513
0.000961399
0.000959262
0.000957107
0.000954945
0.000952785
0.000950643
0.000948536
0.00094648
0.000944495
0.000942602
0.000940823
0.00093918
0.000937694
0.000936385
0.00093527
0.000934367
0.00093369
0.000933244
0.000933037
0.000933074
0.000933368
0.000933924
0.000934751
0.000935859
0.000937258
0.000938966
0.000941003
0.00094339
0.000946156
0.00094933
0.000952944