/*--------------------------------*- C++ -*----------------------------------*\
| =========                 |                                                 |
| \\      /  F ield         | OpenFOAM: The Open Source CFD Toolbox           |
|  \\    /   O peration     | Version:  4.1                                   |
|   \\  /    A nd           | Web:      www.OpenFOAM.org                      |
|    \\/     M anipulation  |                                                 |
\*---------------------------------------------------------------------------*/
FoamFile
{
    version     2.0;
    format      ascii;
    class       volScalarField;
    location    "1900";
    object      p;
}
// * * * * * * * * * * * * * * * * * * * * * * * * * * * * * * * * * * * * * //

dimensions      [0 2 -2 0 0 0 0];

internalField   nonuniform List<scalar> 
6820
(
-8.2431
-8.50065
-8.59827
-8.61899
-8.65223
-8.69756
-8.73919
-8.77537
-8.80911
-8.84124
-8.87133
-8.89924
-8.92523
-8.94957
-8.97244
-8.99399
-9.0144
-9.0338
-9.05235
-9.07015
-9.08731
-9.10393
-9.12008
-9.13586
-9.15131
-9.16651
-9.18152
-9.19638
-9.21119
-9.22582
-9.2412
-9.25505
-9.28514
-8.35588
-8.52194
-8.60066
-8.62155
-8.64849
-8.68376
-8.71539
-8.74233
-8.76765
-8.79241
-8.8163
-8.8392
-8.86128
-8.88268
-8.90345
-8.92363
-8.94328
-8.96243
-8.98114
-8.99944
-9.01737
-9.03497
-9.05227
-9.06931
-9.08613
-9.10275
-9.11923
-9.13558
-9.15188
-9.16811
-9.18449
-9.20099
-9.21769
-8.41214
-8.51685
-8.59487
-8.62679
-8.655
-8.68822
-8.71868
-8.74501
-8.76965
-8.79359
-8.81662
-8.8386
-8.85969
-8.88002
-8.89966
-8.91865
-8.93706
-8.95495
-8.97237
-8.98936
-9.00598
-9.02228
-9.03828
-9.05403
-9.06958
-9.08495
-9.10018
-9.11532
-9.13041
-9.14544
-9.16062
-9.17551
-9.19104
-8.46192
-8.53692
-8.60957
-8.64474
-8.67222
-8.7038
-8.73384
-8.76019
-8.78459
-8.80803
-8.8304
-8.85166
-8.87196
-8.89145
-8.91024
-8.92839
-8.94597
-8.96306
-8.97971
-8.99597
-9.01189
-9.02751
-9.04288
-9.05802
-9.07298
-9.08779
-9.10249
-9.1171
-9.13167
-9.14622
-9.16081
-9.17539
-9.19005
-8.50341
-8.55464
-8.61486
-8.64972
-8.67697
-8.70723
-8.73648
-8.76252
-8.78667
-8.80989
-8.83217
-8.85345
-8.87386
-8.89354
-8.91255
-8.93095
-8.94879
-8.96613
-8.98303
-8.99951
-9.01564
-9.03144
-9.04696
-9.06222
-9.07728
-9.09215
-9.10687
-9.12148
-9.13602
-9.15051
-9.165
-9.17952
-9.19413
-8.5382
-8.57406
-8.6249
-8.66019
-8.68786
-8.71691
-8.74527
-8.77099
-8.79496
-8.81796
-8.84004
-8.86114
-8.88136
-8.90081
-8.91958
-8.93772
-8.95529
-8.97235
-8.98896
-9.00515
-9.02099
-9.0365
-9.05172
-9.0667
-9.08147
-9.09605
-9.11048
-9.1248
-9.13904
-9.15323
-9.16742
-9.18165
-9.196
-8.56805
-8.59361
-8.6355
-8.66868
-8.69516
-8.72226
-8.74917
-8.7741
-8.79748
-8.81995
-8.84159
-8.86234
-8.88231
-8.90157
-8.92022
-8.93828
-8.95582
-8.97289
-8.98952
-9.00577
-9.02166
-9.03723
-9.05251
-9.06755
-9.08236
-9.09698
-9.11143
-9.12575
-9.13996
-9.1541
-9.1682
-9.1823
-9.19646
-8.59398
-8.61256
-8.64698
-8.67783
-8.70356
-8.72944
-8.75535
-8.77976
-8.80278
-8.82493
-8.84631
-8.86687
-8.88668
-8.90581
-8.92433
-8.94227
-8.95969
-8.97662
-8.99312
-9.00922
-9.02495
-9.04036
-9.05547
-9.07031
-9.08492
-9.09932
-9.11354
-9.12761
-9.14155
-9.15539
-9.16916
-9.18289
-9.19659
-8.61684
-8.63067
-8.65897
-8.68707
-8.71153
-8.73584
-8.76031
-8.78373
-8.80601
-8.82751
-8.84833
-8.86843
-8.88786
-8.90666
-8.9249
-8.94261
-8.95983
-8.9766
-8.99295
-9.00893
-9.02456
-9.03987
-9.05489
-9.06966
-9.08418
-9.0985
-9.11262
-9.12657
-9.14038
-9.15406
-9.16763
-9.18112
-9.19452
-8.63721
-8.64775
-8.67111
-8.69641
-8.7195
-8.74244
-8.76569
-8.7883
-8.81002
-8.83105
-8.85149
-8.8713
-8.89049
-8.9091
-8.92717
-8.94475
-8.96184
-8.9785
-8.99475
-9.01061
-9.02613
-9.04132
-9.05621
-9.07083
-9.08519
-9.09933
-9.11325
-9.12699
-9.14054
-9.15394
-9.16718
-9.18028
-9.19321
-8.65554
-8.66375
-8.68317
-8.7058
-8.7274
-8.74897
-8.77093
-8.79256
-8.81351
-8.83388
-8.85375
-8.87306
-8.89183
-8.91007
-8.92782
-8.9451
-8.96194
-8.97836
-8.99439
-9.01006
-9.02538
-9.04039
-9.0551
-9.06955
-9.08374
-9.09769
-9.11142
-9.12494
-9.13827
-9.15142
-9.16438
-9.17716
-9.18975
-8.67216
-8.67867
-8.69496
-8.71513
-8.73521
-8.75545
-8.7762
-8.79687
-8.8171
-8.83688
-8.85624
-8.87515
-8.89358
-8.91155
-8.92906
-8.94614
-8.96279
-8.97905
-8.99494
-9.01046
-9.02565
-9.04053
-9.0551
-9.06939
-9.08342
-9.09719
-9.11073
-9.12404
-9.13712
-9.14999
-9.16264
-9.17506
-9.18722
-8.68729
-8.69255
-8.70634
-8.72431
-8.74288
-8.76186
-8.78143
-8.80114
-8.82059
-8.83971
-8.8585
-8.87691
-8.89491
-8.91249
-8.92966
-8.94643
-8.9628
-8.9788
-8.99444
-9.00973
-9.02469
-9.03934
-9.05369
-9.06776
-9.08156
-9.0951
-9.10838
-9.12143
-9.13424
-9.14681
-9.15913
-9.1712
-9.18301
-8.70112
-8.70543
-8.71723
-8.73326
-8.75039
-8.76815
-8.78661
-8.80536
-8.82404
-8.84251
-8.86075
-8.87868
-8.89627
-8.9135
-8.93037
-8.94687
-8.963
-8.97878
-8.99421
-9.00932
-9.0241
-9.03857
-9.05274
-9.06663
-9.08023
-9.09357
-9.10665
-9.11946
-9.13202
-9.14431
-9.15634
-9.16808
-9.17951
-8.71378
-8.71735
-8.72755
-8.74189
-8.75767
-8.77428
-8.79168
-8.80952
-8.82743
-8.84525
-8.86291
-8.88034
-8.89749
-8.91433
-8.93084
-8.94702
-8.96286
-8.97836
-8.99353
-9.00838
-9.02292
-9.03714
-9.05107
-9.06471
-9.07807
-9.09114
-9.10395
-9.11648
-9.12874
-9.14072
-9.15241
-9.16382
-9.1749
-8.72537
-8.72835
-8.73725
-8.75014
-8.76468
-8.78022
-8.79662
-8.81358
-8.83074
-8.84791
-8.865
-8.88194
-8.89865
-8.9151
-8.93127
-8.94714
-8.96269
-8.97793
-8.99286
-9.00748
-9.02179
-9.0358
-9.04951
-9.06293
-9.07606
-9.08891
-9.10147
-9.11375
-9.12575
-9.13745
-9.14886
-9.15995
-9.17071
-8.73595
-8.73846
-8.7463
-8.75795
-8.77137
-8.78591
-8.80139
-8.81751
-8.83394
-8.85048
-8.86701
-8.88345
-8.89972
-8.91578
-8.93159
-8.94712
-8.96237
-8.97733
-8.99198
-9.00633
-9.02038
-9.03414
-9.0476
-9.06076
-9.07363
-9.08621
-9.0985
-9.11049
-9.12219
-9.13359
-9.14468
-9.15545
-9.16589
-8.74559
-8.74771
-8.75469
-8.76527
-8.77769
-8.7913
-8.80593
-8.82127
-8.83701
-8.85293
-8.86892
-8.88487
-8.90071
-8.91637
-8.93182
-8.94703
-8.96197
-8.97664
-8.99102
-9.00512
-9.01892
-9.03243
-9.04564
-9.05856
-9.07118
-9.08351
-9.09554
-9.10728
-9.11871
-9.12983
-9.14064
-9.15112
-9.16125
-8.75431
-8.75612
-8.76238
-8.77206
-8.78358
-8.79637
-8.81021
-8.82482
-8.83991
-8.85525
-8.87071
-8.88619
-8.9016
-8.91687
-8.93196
-8.94684
-8.96147
-8.97585
-8.98995
-9.00377
-9.01731
-9.03055
-9.0435
-9.05616
-9.06852
-9.08058
-9.09234
-9.1038
-9.11494
-9.12577
-9.13628
-9.14647
-9.15631
-8.76213
-8.76369
-8.76935
-8.77827
-8.78902
-8.80105
-8.81418
-8.82813
-8.84261
-8.8574
-8.87236
-8.88738
-8.90237
-8.91726
-8.932
-8.94655
-8.96088
-8.97496
-8.98878
-9.00233
-9.01561
-9.02859
-9.04129
-9.05369
-9.06579
-9.07759
-9.08909
-9.10028
-9.11116
-9.12172
-9.13196
-9.14187
-9.15144
-8.76907
-8.77042
-8.77559
-8.78387
-8.79394
-8.80532
-8.81781
-8.83115
-8.84507
-8.85934
-8.87383
-8.88842
-8.90302
-8.91754
-8.93193
-8.94616
-8.96018
-8.97397
-8.98752
-9.0008
-9.0138
-9.02653
-9.03896
-9.0511
-9.06294
-9.07448
-9.08571
-9.09663
-9.10724
-9.11753
-9.1275
-9.13714
-9.14645
-8.77513
-8.7763
-8.78107
-8.78881
-8.79832
-8.80912
-8.82105
-8.83385
-8.84726
-8.86106
-8.87511
-8.8893
-8.90351
-8.91768
-8.93175
-8.94566
-8.95938
-8.97289
-8.98615
-8.99916
-9.01191
-9.02437
-9.03655
-9.04843
-9.06001
-9.0713
-9.08227
-9.09293
-9.10328
-9.11331
-9.12302
-9.1324
-9.14145
-8.78029
-8.78132
-8.78577
-8.79307
-8.8021
-8.81242
-8.82385
-8.83618
-8.84914
-8.86252
-8.87617
-8.88998
-8.90384
-8.91767
-8.93142
-8.94503
-8.95847
-8.9717
-8.98469
-8.99744
-9.00992
-9.02213
-9.03405
-9.04568
-9.05701
-9.06804
-9.07876
-9.08917
-9.09927
-9.10905
-9.11851
-9.12765
-9.13645
-8.78453
-8.78545
-8.78965
-8.7966
-8.80524
-8.81515
-8.82618
-8.83811
-8.85067
-8.86367
-8.87696
-8.89043
-8.90397
-8.91749
-8.93094
-8.94427
-8.95742
-8.97038
-8.98312
-8.9956
-9.00783
-9.01979
-9.03146
-9.04284
-9.05392
-9.06469
-9.07516
-9.08532
-9.09517
-9.1047
-9.11392
-9.12281
-9.13139
-8.7878
-8.78865
-8.79266
-8.79935
-8.8077
-8.81729
-8.82799
-8.83958
-8.85181
-8.86448
-8.87746
-8.89063
-8.90387
-8.91711
-8.93028
-8.94334
-8.95624
-8.96894
-8.98142
-8.99366
-9.00565
-9.01736
-9.02879
-9.03993
-9.05077
-9.06131
-9.07155
-9.08148
-9.09109
-9.10039
-9.10938
-9.11805
-9.1264
-8.79006
-8.79086
-8.79474
-8.80126
-8.80939
-8.81875
-8.8292
-8.84052
-8.85249
-8.8649
-8.87761
-8.89051
-8.90349
-8.91647
-8.92939
-8.9422
-8.95485
-8.9673
-8.97954
-8.99154
-9.00328
-9.01475
-9.02594
-9.03684
-9.04744
-9.05774
-9.06773
-9.07742
-9.08679
-9.09586
-9.10462
-9.11306
-9.1212
-8.79123
-8.79201
-8.79582
-8.80224
-8.81026
-8.81947
-8.82975
-8.84089
-8.85265
-8.86485
-8.87735
-8.89003
-8.90279
-8.91555
-8.92824
-8.94083
-8.95325
-8.96549
-8.9775
-8.98928
-9.00081
-9.01206
-9.02303
-9.03372
-9.04411
-9.05419
-9.06398
-9.07346
-9.08263
-9.09149
-9.10004
-9.10828
-9.11621
-8.79124
-8.79203
-8.79585
-8.80227
-8.81026
-8.81942
-8.82962
-8.84066
-8.8523
-8.86435
-8.87669
-8.88919
-8.90176
-8.91432
-8.92681
-8.93918
-8.95139
-8.96341
-8.9752
-8.98675
-8.99805
-9.00907
-9.01981
-9.03027
-9.04042
-9.05028
-9.05983
-9.06908
-9.07802
-9.08666
-9.09499
-9.10302
-9.11076
-8.78999
-8.79084
-8.79475
-8.80127
-8.80936
-8.81858
-8.8288
-8.83982
-8.85142
-8.86341
-8.87564
-8.88803
-8.90047
-8.91289
-8.92523
-8.93744
-8.94948
-8.96133
-8.97295
-8.98433
-8.99544
-9.00629
-9.01685
-9.02712
-9.03709
-9.04676
-9.05614
-9.0652
-9.07397
-9.08242
-9.09058
-9.09843
-9.10596
-8.78735
-8.78831
-8.79241
-8.79918
-8.80749
-8.8169
-8.82725
-8.83836
-8.84999
-8.86197
-8.87416
-8.88645
-8.89878
-8.91106
-8.92324
-8.93527
-8.94713
-8.95878
-8.97019
-8.98136
-8.99226
-9.00289
-9.01323
-9.02328
-9.03303
-9.04248
-9.05164
-9.06048
-9.06903
-9.07728
-9.08523
-9.09289
-9.10027
-8.78316
-8.78427
-8.78871
-8.79589
-8.8046
-8.81433
-8.82495
-8.83627
-8.84806
-8.86014
-8.87239
-8.88471
-8.89702
-8.90927
-8.92139
-8.93335
-8.94511
-8.95665
-8.96795
-8.97899
-8.98976
-9.00025
-9.01044
-9.02035
-9.02995
-9.03926
-9.04825
-9.05695
-9.06534
-9.07343
-9.08122
-9.0887
-9.09586
-8.77716
-8.77853
-8.78349
-8.79132
-8.80062
-8.81082
-8.82182
-8.83342
-8.8454
-8.85758
-8.86987
-8.88217
-8.89443
-8.90658
-8.91857
-8.93039
-8.94199
-8.95336
-8.96448
-8.97533
-8.98591
-8.9962
-9.0062
-9.0159
-9.0253
-9.0344
-9.0432
-9.0517
-9.0599
-9.06781
-9.07542
-9.08276
-9.08982
-8.76904
-8.7708
-8.77656
-8.78534
-8.79549
-8.80641
-8.81803
-8.83018
-8.8426
-8.85513
-8.86767
-8.88016
-8.89253
-8.90475
-8.91678
-8.92858
-8.94015
-8.95147
-8.96251
-8.97327
-8.98374
-8.99392
-9.0038
-9.01338
-9.02265
-9.03162
-9.04028
-9.04864
-9.05669
-9.06445
-9.07189
-9.07903
-9.08585
-8.75834
-8.76069
-8.76772
-8.77787
-8.78905
-8.80069
-8.81286
-8.82544
-8.83817
-8.85088
-8.86353
-8.87607
-8.88845
-8.90063
-8.91259
-8.9243
-8.93576
-8.94694
-8.95784
-8.96846
-8.97877
-8.98879
-8.99851
-9.00792
-9.01702
-9.02582
-9.03432
-9.04252
-9.05042
-9.05803
-9.06536
-9.07241
-9.0792
-8.74433
-8.74765
-8.75672
-8.76906
-8.78199
-8.79504
-8.80843
-8.82198
-8.8354
-8.84861
-8.86161
-8.87439
-8.88692
-8.89918
-8.91116
-8.92286
-8.93427
-8.94538
-8.95619
-8.9667
-8.9769
-8.98679
-8.99637
-9.00564
-9.0146
-9.02325
-9.03159
-9.03962
-9.04735
-9.05478
-9.06191
-9.06872
-9.07522
-8.72594
-8.73103
-8.74312
-8.75762
-8.77157
-8.78544
-8.79972
-8.81403
-8.82799
-8.84158
-8.85487
-8.86786
-8.88051
-8.89283
-8.90483
-8.9165
-8.92785
-8.93889
-8.9496
-8.96
-8.97009
-8.97987
-8.98933
-8.99848
-9.00733
-9.01586
-9.0241
-9.03203
-9.03967
-9.04702
-9.05408
-9.06087
-9.0674
-8.70101
-8.71016
-8.72956
-8.7493
-8.76573
-8.78113
-8.79664
-8.81176
-8.82614
-8.83993
-8.85332
-8.86631
-8.87892
-8.89115
-8.90303
-8.91457
-8.92576
-8.93663
-8.94717
-8.95738
-8.96727
-8.97684
-8.98609
-8.99502
-9.00364
-9.01195
-9.01996
-9.02767
-9.03507
-9.04218
-9.049
-9.05553
-9.06176
-8.66607
-8.67973
-8.70536
-8.72862
-8.74757
-8.76559
-8.78323
-8.79968
-8.81489
-8.82927
-8.84303
-8.85623
-8.86891
-8.88114
-8.89296
-8.90442
-8.91552
-8.92628
-8.93672
-8.94685
-8.95666
-8.96616
-8.97535
-8.98425
-8.99284
-9.00113
-9.00912
-9.01682
-9.02422
-9.03132
-9.03813
-9.04462
-9.05078
-8.61868
-8.66634
-8.70572
-8.72599
-8.74226
-8.76061
-8.77857
-8.79452
-8.80907
-8.823
-8.83643
-8.84932
-8.86169
-8.87363
-8.88518
-8.89636
-8.9072
-8.91771
-8.9279
-8.93778
-8.94736
-8.95664
-8.96562
-8.97432
-8.98272
-8.99084
-8.99869
-9.00627
-9.01359
-9.02067
-9.02754
-9.03424
-9.0408
-8.48435
-8.60653
-8.68118
-8.70541
-8.72173
-8.74275
-8.76323
-8.78043
-8.79576
-8.81057
-8.8251
-8.83921
-8.85293
-8.86634
-8.87949
-8.89237
-8.90497
-8.91728
-8.9293
-8.94102
-8.95243
-8.96352
-8.97428
-8.98471
-8.99481
-9.00457
-9.01399
-9.02306
-9.03178
-9.04016
-9.04819
-9.05584
-9.06324
-9.33259
-9.48876
-9.70635
-9.81066
-9.92102
-10.0268
-10.1084
-10.172
-10.222
-10.2585
-10.2829
-10.2967
-10.3024
-10.3026
-10.2997
-10.2955
-10.2903
-10.2814
-10.2759
-10.2785
-10.2906
-10.3116
-10.3399
-10.3731
-10.4094
-10.4471
-10.4851
-10.5227
-10.559
-10.593
-10.6239
-10.6508
-10.6728
-10.6895
-10.7005
-10.7056
-10.7045
-10.6972
-10.6833
-10.6627
-10.6352
-10.6005
-10.5585
-10.509
-10.4519
-10.3869
-10.314
-10.2329
-10.1434
-10.0454
-9.93858
-9.82276
-9.69772
-9.56326
-9.41924
-9.26555
-9.10213
-8.92898
-8.74615
-8.55376
-8.352
-8.14113
-7.92148
-7.69347
-7.45762
-7.21451
-6.96481
-6.70924
-6.44857
-6.18362
-5.91521
-5.64421
-5.37149
-5.09802
-4.82476
-4.55277
-4.28314
-4.01703
-3.75567
-3.50024
-3.25174
-3.01084
-2.77793
-2.55332
-2.33736
-2.13029
-1.93234
-1.74363
-1.56416
-1.39389
-1.23248
-1.07981
-0.934778
-0.797844
-0.665106
-0.541364
-0.410654
-0.302193
-0.144501
-0.0949687
-9.24803
-9.3008
-9.3931
-9.43909
-9.49222
-9.55967
-9.62622
-9.69004
-9.75104
-9.80634
-9.85406
-9.89392
-9.92664
-9.95343
-9.97579
-9.99562
-10.0148
-10.0297
-10.0448
-10.065
-10.0921
-10.1261
-10.1655
-10.2087
-10.2538
-10.2993
-10.3444
-10.388
-10.4295
-10.4681
-10.5027
-10.5328
-10.5575
-10.5764
-10.5893
-10.5959
-10.596
-10.5895
-10.5763
-10.5561
-10.5289
-10.4945
-10.4527
-10.4033
-10.3462
-10.2813
-10.2084
-10.1274
-10.0381
-9.94029
-9.83378
-9.71834
-9.59379
-9.45996
-9.3167
-9.16392
-9.00157
-8.82967
-8.64826
-8.45748
-8.25751
-8.04862
-7.83114
-7.6055
-7.37218
-7.13179
-6.88496
-6.6324
-6.37488
-6.11318
-5.84811
-5.58052
-5.31128
-5.04131
-4.77157
-4.50308
-4.2369
-3.97415
-3.71602
-3.46363
-3.21794
-2.97961
-2.74905
-2.5266
-2.31257
-2.10724
-1.91081
-1.72342
-1.54506
-1.3757
-1.21503
-1.06293
-0.918322
-0.781715
-0.649241
-0.525866
-0.395735
-0.288571
-0.133523
-0.0881324
-9.2095
-9.23096
-9.27555
-9.30302
-9.32619
-9.35869
-9.3941
-9.4292
-9.46457
-9.49929
-9.53222
-9.56296
-9.59168
-9.61894
-9.64564
-9.67305
-9.70212
-9.73183
-9.76259
-9.79743
-9.83807
-9.88444
-9.9354
-9.98931
-10.0445
-10.0995
-10.1533
-10.205
-10.2537
-10.2987
-10.3392
-10.3743
-10.4036
-10.4267
-10.4431
-10.4529
-10.4557
-10.4517
-10.4405
-10.4222
-10.3966
-10.3636
-10.3231
-10.2749
-10.219
-10.1552
-10.0835
-10.0035
-9.91535
-9.81871
-9.71342
-9.59929
-9.47615
-9.34384
-9.20222
-9.05123
-8.89081
-8.72098
-8.54181
-8.35343
-8.15602
-7.94985
-7.73527
-7.51267
-7.28255
-7.04549
-6.80212
-6.55313
-6.29927
-6.04129
-5.78
-5.51622
-5.2508
-4.98465
-4.7187
-4.45393
-4.1914
-3.93218
-3.6774
-3.42813
-3.18532
-2.9496
-2.72141
-2.5011
-2.28898
-2.08534
-1.89037
-1.70421
-1.52688
-1.35835
-1.19832
-1.04669
-0.90242
-0.766047
-0.633781
-0.510692
-0.381192
-0.275181
-0.123171
-0.0811611
-9.20739
-9.23049
-9.26685
-9.29493
-9.31371
-9.33418
-9.35466
-9.37221
-9.38775
-9.40193
-9.41459
-9.42598
-9.43685
-9.44814
-9.46099
-9.47665
-9.49625
-9.5202
-9.54781
-9.58081
-9.62052
-9.66679
-9.71851
-9.7741
-9.83186
-9.89026
-9.948
-10.004
-10.0572
-10.1068
-10.1518
-10.1914
-10.225
-10.2522
-10.2726
-10.2861
-10.2924
-10.2915
-10.2833
-10.2678
-10.2447
-10.2141
-10.1759
-10.1299
-10.076
-10.0143
-9.94449
-9.86657
-9.78037
-9.68573
-9.5825
-9.47049
-9.34954
-9.2195
-9.08027
-8.93178
-8.77398
-8.6069
-8.43062
-8.24526
-8.05103
-7.84817
-7.63703
-7.41801
-7.1916
-6.95835
-6.71888
-6.47386
-6.22402
-5.9701
-5.71289
-5.45318
-5.19181
-4.92966
-4.66765
-4.40674
-4.14794
-3.8923
-3.6409
-3.39478
-3.15482
-2.92169
-2.69583
-2.47759
-2.2673
-2.06525
-1.87164
-1.68661
-1.51019
-1.34236
-1.18284
-1.03157
-0.887509
-0.751253
-0.619115
-0.496199
-0.367364
-0.262305
-0.113674
-0.0742019
-9.21174
-9.23383
-9.2616
-9.28519
-9.30196
-9.31874
-9.33584
-9.35077
-9.36339
-9.37403
-9.38246
-9.3887
-9.39337
-9.39738
-9.40186
-9.40813
-9.41753
-9.43088
-9.44854
-9.47171
-9.50151
-9.538
-9.58041
-9.62749
-9.67786
-9.73012
-9.783
-9.83535
-9.88607
-9.93411
-9.97848
-10.0183
-10.0527
-10.0812
-10.1033
-10.1187
-10.1272
-10.1285
-10.1226
-10.1094
-10.0887
-10.0603
-10.0244
-9.98061
-9.92901
-9.86949
-9.80195
-9.72627
-9.64234
-9.55002
-9.44915
-9.33957
-9.22114
-9.09372
-8.95722
-8.81157
-8.65674
-8.49277
-8.31972
-8.13773
-7.94699
-7.74776
-7.54037
-7.32522
-7.10277
-6.87356
-6.63821
-6.39735
-6.1517
-5.90198
-5.64895
-5.3934
-5.13615
-4.87805
-4.62
-4.36294
-4.10785
-3.85574
-3.60767
-3.36461
-3.12743
-2.89679
-2.67314
-2.45686
-2.24827
-2.04768
-1.85527
-1.67122
-1.49555
-1.32827
-1.16912
-1.01803
-0.874053
-0.73777
-0.605654
-0.482779
-0.354594
-0.25028
-0.105221
-0.0675152
-9.21312
-9.2337
-9.25734
-9.27971
-9.29787
-9.31488
-9.33143
-9.34579
-9.35751
-9.36684
-9.37379
-9.37849
-9.38146
-9.38352
-9.38562
-9.38889
-9.39445
-9.40315
-9.41569
-9.43283
-9.45544
-9.48373
-9.51722
-9.55503
-9.59608
-9.63927
-9.68352
-9.72784
-9.77125
-9.8128
-9.85155
-9.88662
-9.91726
-9.9428
-9.96274
-9.97666
-9.98423
-9.98519
-9.97932
-9.96642
-9.94632
-9.91889
-9.88398
-9.84147
-9.79127
-9.73327
-9.66737
-9.59344
-9.51137
-9.42101
-9.32222
-9.21485
-9.09876
-8.97381
-8.83993
-8.69704
-8.54512
-8.38421
-8.21436
-8.03571
-7.84846
-7.65285
-7.44919
-7.23788
-7.01937
-6.79418
-6.5629
-6.32617
-6.08465
-5.83906
-5.59015
-5.33867
-5.08544
-4.83128
-4.57709
-4.32375
-4.07224
-3.82354
-3.57864
-3.3385
-3.10395
-2.87564
-2.65405
-2.43956
-2.23251
-2.03319
-1.84182
-1.65857
-1.48348
-1.31657
-1.15759
-1.00653
-0.862467
-0.725998
-0.593777
-0.470794
-0.343212
-0.23941
-0.0979971
-0.0613111
-9.21316
-9.23293
-9.25425
-9.27487
-9.29246
-9.30832
-9.32331
-9.33656
-9.3476
-9.3566
-9.36362
-9.36878
-9.37243
-9.37522
-9.37793
-9.38146
-9.38677
-9.39463
-9.40572
-9.42063
-9.44003
-9.46412
-9.49253
-9.52455
-9.5593
-9.59584
-9.63323
-9.67062
-9.70714
-9.74196
-9.77427
-9.80331
-9.82838
-9.84891
-9.86438
-9.87438
-9.87859
-9.87671
-9.86849
-9.8537
-9.83215
-9.80364
-9.76801
-9.72511
-9.67481
-9.61697
-9.55148
-9.47819
-9.39696
-9.30766
-9.21012
-9.10419
-8.98974
-8.86664
-8.73479
-8.59413
-8.44463
-8.28632
-8.11925
-7.94356
-7.75943
-7.56708
-7.36684
-7.15906
-6.9442
-6.72275
-6.49527
-6.26239
-6.02475
-5.78305
-5.53801
-5.29038
-5.04094
-4.79051
-4.53994
-4.29012
-4.04197
-3.79645
-3.55452
-3.31709
-3.08498
-2.85881
-2.63908
-2.42619
-2.22048
-2.02225
-1.83173
-1.64908
-1.47437
-1.30764
-1.14867
-0.997448
-0.853121
-0.716297
-0.583831
-0.460576
-0.333513
-0.229984
-0.0921573
-0.0558061
-9.21256
-9.23128
-9.25081
-9.26977
-9.28681
-9.30234
-9.31692
-9.33007
-9.3413
-9.35064
-9.35814
-9.36391
-9.36828
-9.37179
-9.37514
-9.37912
-9.38456
-9.39217
-9.40257
-9.41631
-9.43387
-9.4554
-9.48063
-9.50895
-9.5396
-9.57175
-9.60455
-9.6372
-9.66889
-9.69886
-9.72635
-9.75067
-9.77119
-9.78735
-9.7987
-9.80485
-9.80548
-9.8003
-9.78909
-9.77161
-9.74766
-9.71707
-9.67966
-9.63527
-9.58376
-9.52499
-9.45882
-9.3851
-9.3037
-9.21446
-9.11723
-9.01184
-8.89817
-8.77609
-8.64549
-8.50631
-8.35852
-8.20214
-8.03722
-7.86388
-7.68228
-7.49266
-7.2953
-7.09057
-6.87888
-6.66072
-6.43663
-6.2072
-5.97306
-5.73488
-5.49337
-5.24926
-5.0033
-4.75629
-4.50907
-4.26249
-4.01745
-3.77487
-3.53567
-3.30073
-3.07083
-2.8466
-2.62853
-2.41704
-2.21248
-2.01514
-1.82526
-1.64303
-1.46852
-1.30177
-1.14261
-0.99105
-0.846293
-0.708942
-0.576084
-0.452392
-0.325736
-0.222234
-0.087813
-0.051174
-9.21009
-9.22802
-9.24632
-9.26414
-9.28062
-9.29575
-9.30976
-9.32242
-9.33339
-9.34266
-9.35034
-9.35656
-9.36162
-9.36598
-9.37024
-9.37506
-9.38114
-9.3891
-9.39947
-9.41276
-9.42929
-9.44919
-9.47225
-9.49796
-9.52566
-9.55461
-9.58406
-9.61324
-9.6414
-9.66783
-9.69182
-9.7127
-9.72989
-9.74285
-9.75113
-9.75436
-9.75221
-9.7444
-9.7307
-9.7109
-9.68479
-9.6522
-9.61297
-9.56694
-9.51397
-9.45392
-9.38666
-9.31206
-9.22996
-9.14022
-9.0427
-8.93725
-8.82373
-8.70202
-8.57203
-8.4337
-8.28698
-8.1319
-7.96851
-7.79692
-7.61729
-7.42983
-7.23482
-7.03261
-6.8236
-6.60825
-6.38709
-6.16068
-5.92963
-5.69459
-5.45625
-5.2153
-4.9725
-4.72862
-4.48445
-4.24084
-3.99865
-3.75876
-3.52206
-3.28939
-3.06149
-2.839
-2.62242
-2.41214
-2.20854
-2.01191
-1.82251
-1.64051
-1.46602
-1.29909
-1.13958
-0.987499
-0.842149
-0.704112
-0.570718
-0.446427
-0.320046
-0.216327
-0.0850229
-0.0475454
-9.20804
-9.22511
-9.24231
-9.25912
-9.27485
-9.28944
-9.30298
-9.31533
-9.32629
-9.3358
-9.34392
-9.35079
-9.35665
-9.3619
-9.36702
-9.3726
-9.37923
-9.38746
-9.39776
-9.41055
-9.42612
-9.44458
-9.46574
-9.48917
-9.51429
-9.54048
-9.56702
-9.59323
-9.6184
-9.64186
-9.66294
-9.68101
-9.69551
-9.70591
-9.71178
-9.71274
-9.70845
-9.69864
-9.68306
-9.6615
-9.63375
-9.59963
-9.55898
-9.51166
-9.4575
-9.39639
-9.32819
-9.25276
-9.16998
-9.0797
-8.98178
-8.87609
-8.76252
-8.64094
-8.51127
-8.37345
-8.22747
-8.07332
-7.91108
-7.74084
-7.56276
-7.37706
-7.184
-6.98391
-6.77719
-6.56428
-6.34567
-6.12192
-5.89362
-5.6614
-5.42592
-5.18786
-4.94794
-4.70692
-4.46556
-4.22469
-3.98512
-3.74772
-3.51332
-3.28273
-3.05668
-2.83577
-2.6205
-2.41129
-2.2085
-2.01244
-1.82336
-1.64145
-1.46683
-1.29957
-1.13955
-0.986818
-0.840733
-0.701868
-0.567806
-0.442767
-0.316516
-0.212347
-0.0837812
-0.0449869
-9.2042
-9.22059
-9.23697
-9.25297
-9.26811
-9.28225
-9.29545
-9.30758
-9.31847
-9.32807
-9.33646
-9.34375
-9.35017
-9.35607
-9.36188
-9.3681
-9.37522
-9.38373
-9.39404
-9.4065
-9.42136
-9.43866
-9.45826
-9.47979
-9.50275
-9.52657
-9.55062
-9.57426
-9.59685
-9.61773
-9.6363
-9.65196
-9.66415
-9.67239
-9.67623
-9.6753
-9.66926
-9.65783
-9.64076
-9.61781
-9.58879
-9.5535
-9.51179
-9.46349
-9.40846
-9.34656
-9.27767
-9.20164
-9.11836
-9.02768
-8.92948
-8.82365
-8.71005
-8.5886
-8.45922
-8.32186
-8.1765
-8.02316
-7.86191
-7.69285
-7.51614
-7.33198
-7.14065
-6.94246
-6.73778
-6.52706
-6.31078
-6.08947
-5.86369
-5.63407
-5.40123
-5.16585
-4.92862
-4.69028
-4.45156
-4.21325
-3.97616
-3.74109
-3.50886
-3.28022
-3.05588
-2.83644
-2.62238
-2.41413
-2.21204
-2.01643
-1.82756
-1.64563
-1.47076
-1.30305
-1.14242
-0.988907
-0.841971
-0.702161
-0.567315
-0.441396
-0.315125
-0.210287
-0.0840175
-0.0434983
-9.20103
-9.21674
-9.23236
-9.24761
-9.26218
-9.27587
-9.28868
-9.30054
-9.31133
-9.32101
-9.32963
-9.33733
-9.3443
-9.35083
-9.35729
-9.36409
-9.37165
-9.3804
-9.39068
-9.40278
-9.41691
-9.4331
-9.45123
-9.47097
-9.49188
-9.51347
-9.53517
-9.55639
-9.57654
-9.595
-9.61121
-9.6246
-9.63464
-9.64085
-9.64281
-9.64014
-9.63251
-9.61962
-9.60121
-9.57706
-9.54694
-9.51068
-9.46809
-9.41902
-9.36331
-9.30082
-9.23143
-9.155
-9.07139
-8.9805
-8.88218
-8.77633
-8.66283
-8.54161
-8.4126
-8.27575
-8.13105
-7.97853
-7.81826
-7.65035
-7.47495
-7.29228
-7.10259
-6.9062
-6.70347
-6.49484
-6.28076
-6.06176
-5.83839
-5.61125
-5.38094
-5.14812
-4.91347
-4.67769
-4.44151
-4.20567
-3.97095
-3.73813
-3.50797
-3.2812
-3.0585
-2.84045
-2.62754
-2.42017
-2.21871
-2.02349
-1.83475
-1.65271
-1.47752
-1.30928
-1.14794
-0.993567
-0.845691
-0.704843
-0.569119
-0.442209
-0.315767
-0.210057
-0.0856018
-0.0430116
-9.19646
-9.21159
-9.22658
-9.24122
-9.25528
-9.26859
-9.28107
-9.2927
-9.30343
-9.31318
-9.32202
-9.33004
-9.33744
-9.34446
-9.3514
-9.35862
-9.3665
-9.37537
-9.38554
-9.39726
-9.41069
-9.42587
-9.44267
-9.4608
-9.47986
-9.49942
-9.51898
-9.538
-9.55591
-9.57217
-9.58621
-9.59752
-9.60558
-9.60995
-9.61019
-9.60593
-9.59685
-9.58264
-9.56305
-9.53782
-9.50675
-9.46964
-9.42632
-9.3766
-9.32034
-9.2574
-9.18764
-9.11093
-9.02713
-8.93613
-8.83781
-8.73206
-8.61878
-8.49788
-8.36932
-8.23306
-8.08909
-7.93744
-7.77819
-7.61146
-7.43739
-7.2562
-7.06814
-6.87353
-6.67273
-6.46615
-6.25424
-6.0375
-5.81649
-5.59177
-5.36394
-5.13364
-4.90151
-4.66825
-4.43455
-4.20113
-3.96874
-3.73811
-3.50998
-3.28505
-3.06395
-2.84726
-2.63545
-2.42893
-2.22807
-2.03319
-1.84454
-1.66235
-1.48678
-1.31795
-1.15584
-1.00054
-0.85166
-0.709705
-0.573022
-0.445028
-0.318267
-0.211498
-0.0883601
-0.0434046
-9.19243
-9.20701
-9.22142
-9.2355
-9.24907
-9.26197
-9.27413
-9.2855
-9.2961
-9.30589
-9.31488
-9.32316
-9.3309
-9.33831
-9.34565
-9.35322
-9.36133
-9.37028
-9.38032
-9.39164
-9.40439
-9.41859
-9.43411
-9.45069
-9.46799
-9.48563
-9.50314
-9.52004
-9.5358
-9.54992
-9.56188
-9.57116
-9.57731
-9.57987
-9.57843
-9.57262
-9.56213
-9.54663
-9.52588
-9.49962
-9.46764
-9.42973
-9.38571
-9.3354
-9.27866
-9.21533
-9.14527
-9.06834
-8.98444
-8.89342
-8.79518
-8.68961
-8.57662
-8.45613
-8.3281
-8.19249
-8.04931
-7.8986
-7.74043
-7.57491
-7.40221
-7.22253
-7.03614
-6.84332
-6.64445
-6.43992
-6.23017
-6.01571
-5.79704
-5.57473
-5.34937
-5.12157
-4.89196
-4.6612
-4.42997
-4.19895
-3.96887
-3.74043
-3.51432
-3.29121
-3.07171
-2.85637
-2.64566
-2.43998
-2.2397
-2.04513
-1.85655
-1.67418
-1.4982
-1.32874
-1.16583
-1.00956
-0.85962
-0.716506
-0.578798
-0.449641
-0.322413
-0.214414
-0.0920954
-0.0445206
-9.18746
-9.20154
-9.21544
-9.22902
-9.24215
-9.25469
-9.26658
-9.27775
-9.28822
-9.29799
-9.30709
-9.31557
-9.32358
-9.33129
-9.33893
-9.34674
-9.35499
-9.36392
-9.37375
-9.38464
-9.39668
-9.40991
-9.4242
-9.43932
-9.45497
-9.47079
-9.48639
-9.50129
-9.51504
-9.52715
-9.53714
-9.54452
-9.54886
-9.54971
-9.54669
-9.53942
-9.52759
-9.51089
-9.48905
-9.46183
-9.429
-9.39036
-9.3457
-9.29487
-9.2377
-9.17403
-9.10374
-9.02667
-8.94271
-8.85173
-8.75363
-8.6483
-8.53566
-8.41564
-8.28819
-8.1533
-8.01096
-7.86123
-7.70418
-7.53992
-7.36862
-7.19049
-7.00578
-6.81479
-6.61787
-6.41541
-6.20784
-5.99565
-5.77935
-5.55947
-5.33658
-5.11129
-4.8842
-4.65596
-4.4272
-4.1986
-3.97084
-3.74459
-3.5205
-3.29922
-3.08134
-2.86736
-2.65776
-2.45293
-2.25323
-2.05898
-1.87046
-1.68789
-1.51148
-1.34137
-1.17762
-1.02035
-0.869321
-0.725007
-0.586215
-0.455825
-0.327981
-0.218591
-0.0966093
-0.0461923
-9.18283
-9.19645
-9.20988
-9.22301
-9.23573
-9.24793
-9.25955
-9.27053
-9.28086
-9.29057
-9.2997
-9.30831
-9.3165
-9.32442
-9.33226
-9.34022
-9.34852
-9.35737
-9.36694
-9.37736
-9.38872
-9.40099
-9.41409
-9.42782
-9.44188
-9.45598
-9.46973
-9.48273
-9.49454
-9.5047
-9.51277
-9.51831
-9.52086
-9.52004
-9.51545
-9.50673
-9.49357
-9.47567
-9.45275
-9.42456
-9.39088
-9.3515
-9.30622
-9.25487
-9.19728
-9.13329
-9.06277
-8.98558
-8.90159
-8.81069
-8.71276
-8.60771
-8.49546
-8.37594
-8.24912
-8.11498
-7.97352
-7.82481
-7.66891
-7.50595
-7.33609
-7.15953
-6.97654
-6.78739
-6.59244
-6.39207
-6.18671
-5.97682
-5.76289
-5.54546
-5.32508
-5.10232
-4.87777
-4.65206
-4.4258
-4.19964
-3.97422
-3.75017
-3.52814
-3.30872
-3.09247
-2.87988
-2.67141
-2.46745
-2.26835
-2.07443
-1.88596
-1.70321
-1.52636
-1.35559
-1.19098
-1.03268
-0.880536
-0.734989
-0.595057
-0.463369
-0.33476
-0.223829
-0.101722
-0.0482673
-9.17766
-9.19084
-9.20383
-9.21654
-9.22887
-9.24075
-9.25211
-9.26291
-9.27312
-9.28275
-9.29186
-9.30052
-9.30883
-9.31688
-9.32484
-9.33287
-9.34115
-9.34985
-9.3591
-9.36903
-9.37967
-9.39099
-9.40293
-9.4153
-9.42786
-9.44031
-9.45232
-9.46351
-9.47347
-9.48178
-9.48802
-9.49178
-9.49264
-9.4902
-9.4841
-9.47399
-9.45955
-9.44048
-9.41652
-9.38741
-9.35291
-9.31283
-9.26696
-9.21511
-9.15713
-9.09286
-9.02215
-8.94486
-8.86087
-8.77006
-8.67234
-8.56759
-8.45576
-8.33678
-8.21061
-8.07724
-7.9367
-7.78902
-7.6343
-7.47266
-7.30425
-7.1293
-6.94803
-6.76076
-6.5678
-6.36954
-6.1664
-5.95882
-5.74729
-5.53233
-5.31447
-5.09426
-4.87228
-4.64913
-4.4254
-4.2017
-3.97865
-3.75685
-3.5369
-3.31936
-3.10478
-2.89362
-2.68631
-2.48325
-2.28477
-2.0912
-1.90281
-1.71987
-1.54259
-1.37116
-1.20569
-1.04636
-0.893067
-0.746259
-0.605135
-0.472093
-0.342566
-0.229958
-0.10729
-0.0506324
-9.17266
-9.18544
-9.19803
-9.21035
-9.22234
-9.23391
-9.24502
-9.25562
-9.2657
-9.27526
-9.28433
-9.29299
-9.30132
-9.30942
-9.31743
-9.32545
-9.33363
-9.3421
-9.351
-9.36038
-9.37028
-9.38067
-9.39149
-9.40258
-9.4137
-9.42459
-9.43493
-9.44438
-9.45256
-9.45908
-9.46356
-9.46559
-9.46478
-9.46076
-9.45318
-9.44168
-9.42597
-9.40574
-9.38072
-9.35067
-9.31535
-9.27456
-9.22808
-9.17573
-9.11735
-9.05278
-8.98187
-8.90449
-8.8205
-8.7298
-8.63228
-8.52785
-8.41644
-8.298
-8.1725
-8.03992
-7.9003
-7.75368
-7.60015
-7.43983
-7.2729
-7.09955
-6.92003
-6.73463
-6.54367
-6.34754
-6.14662
-5.94138
-5.73226
-5.51979
-5.30446
-5.08683
-4.86745
-4.64688
-4.4257
-4.20449
-3.98384
-3.76431
-3.54648
-3.33087
-3.11799
-2.90829
-2.70219
-2.50006
-2.30224
-2.10904
-1.92076
-1.73765
-1.55994
-1.38786
-1.22153
-1.06116
-0.906718
-0.758634
-0.616273
-0.481826
-0.351237
-0.236834
-0.113199
-0.0532148
-9.16739
-9.17979
-9.19199
-9.20395
-9.21559
-9.22686
-9.23772
-9.24812
-9.25805
-9.26751
-9.27652
-9.28513
-9.29342
-9.3015
-9.30945
-9.31739
-9.32542
-9.33363
-9.34211
-9.35092
-9.36008
-9.36958
-9.37933
-9.38918
-9.39892
-9.40831
-9.41705
-9.42484
-9.43132
-9.43613
-9.43891
-9.43927
-9.43686
-9.43131
-9.42227
-9.40943
-9.39247
-9.3711
-9.34506
-9.3141
-9.27797
-9.23647
-9.1894
-9.13657
-9.0778
-9.01294
-8.94185
-8.86437
-8.7804
-8.68981
-8.59251
-8.4884
-8.37743
-8.25954
-8.13471
-8.00293
-7.86423
-7.71867
-7.56633
-7.40735
-7.24189
-7.07014
-6.89237
-6.70884
-6.51989
-6.32588
-6.1272
-5.92429
-5.7176
-5.50762
-5.29485
-5.07981
-4.86304
-4.64507
-4.42647
-4.20778
-3.98955
-3.77233
-3.55664
-3.34299
-3.13185
-2.92366
-2.71879
-2.51763
-2.3205
-2.1277
-1.93955
-1.75629
-1.57818
-1.40546
-1.23828
-1.07688
-0.921278
-0.771909
-0.628275
-0.492384
-0.360601
-0.24431
-0.119342
-0.0559639
-9.1622
-9.17423
-9.18609
-9.1977
-9.20902
-9.22001
-9.23062
-9.24082
-9.25059
-9.25993
-9.26885
-9.2774
-9.28561
-9.29358
-9.30141
-9.30918
-9.31697
-9.32486
-9.3329
-9.34114
-9.34959
-9.35822
-9.36694
-9.37561
-9.38403
-9.39198
-9.3992
-9.40539
-9.41024
-9.4134
-9.41454
-9.41329
-9.40931
-9.40226
-9.39181
-9.37764