/*--------------------------------*- C++ -*----------------------------------*\
| =========                 |                                                 |
| \\      /  F ield         | OpenFOAM: The Open Source CFD Toolbox           |
|  \\    /   O peration     | Version:  4.1                                   |
|   \\  /    A nd           | Web:      www.OpenFOAM.org                      |
|    \\/     M anipulation  |                                                 |
\*---------------------------------------------------------------------------*/
FoamFile
{
    version     2.0;
    format      ascii;
    class       surfaceScalarField;
    location    "1900";
    object      phi;
}
// * * * * * * * * * * * * * * * * * * * * * * * * * * * * * * * * * * * * * //

dimensions      [0 3 -1 0 0 0 0];

internalField   nonuniform List<scalar> 
13452
(
5.95313e-05
7.37189e-07
5.86592e-05
8.72055e-07
5.78162e-05
8.43022e-07
5.69811e-05
8.35092e-07
5.61551e-05
8.26044e-07
5.53509e-05
8.04137e-07
5.4576e-05
7.74945e-07
5.38328e-05
7.43204e-07
5.31224e-05
7.10328e-07
5.24455e-05
6.76897e-07
5.1802e-05
6.43566e-07
5.11911e-05
6.10909e-07
5.06118e-05
5.79288e-07
5.00629e-05
5.4889e-07
4.95431e-05
5.19806e-07
4.9051e-05
4.92069e-07
4.85853e-05
4.65671e-07
4.81448e-05
4.40577e-07
4.7728e-05
4.16737e-07
4.73339e-05
3.9409e-07
4.69614e-05
3.72576e-07
4.66092e-05
3.52129e-07
4.62765e-05
3.32689e-07
4.59623e-05
3.14194e-07
4.56658e-05
2.96587e-07
4.53859e-05
2.79815e-07
4.51221e-05
2.63813e-07
4.48735e-05
2.48586e-07
4.46397e-05
2.33885e-07
4.44192e-05
2.20437e-07
4.42136e-05
2.05599e-07
4.40178e-05
1.95833e-07
1.68084e-07
4.38497e-05
6.23701e-05
3.5739e-07
6.26549e-05
5.87255e-07
6.28762e-05
6.21723e-07
6.30527e-05
6.58587e-07
6.31874e-05
6.91411e-07
6.32837e-05
7.07861e-07
6.33451e-05
7.1353e-07
6.33748e-05
7.13499e-07
6.33761e-05
7.09031e-07
6.33524e-05
7.00534e-07
6.33073e-05
6.88731e-07
6.32438e-05
6.74416e-07
6.31648e-05
6.58228e-07
6.30731e-05
6.40651e-07
6.29708e-05
6.22079e-07
6.286e-05
6.02836e-07
6.27425e-05
5.83187e-07
6.26197e-05
5.63339e-07
6.2493e-05
5.43454e-07
6.23634e-05
5.2366e-07
6.2232e-05
5.04059e-07
6.20994e-05
4.84726e-07
6.19663e-05
4.65719e-07
6.18335e-05
4.47079e-07
6.17012e-05
4.28835e-07
6.157e-05
4.11008e-07
6.14402e-05
3.936e-07
6.13122e-05
3.76647e-07
6.1186e-05
3.60032e-07
6.10624e-05
3.44088e-07
6.09402e-05
3.27753e-07
6.08227e-05
3.13292e-07
2.97115e-07
6.06937e-05
6.38365e-05
2.82304e-07
6.38978e-05
5.25936e-07
6.39331e-05
5.86406e-07
6.39614e-05
6.30299e-07
6.39849e-05
6.67942e-07
6.40043e-05
6.88445e-07
6.40213e-05
6.96575e-07
6.40366e-05
6.982e-07
6.40503e-05
6.9527e-07
6.40624e-05
6.88411e-07
6.40728e-05
6.78394e-07
6.40812e-05
6.66033e-07
6.40874e-05
6.51949e-07
6.40915e-05
6.3659e-07
6.40933e-05
6.20311e-07
6.40927e-05
6.03398e-07
6.40898e-05
5.86079e-07
6.40846e-05
5.68531e-07
6.40772e-05
5.50893e-07
6.40676e-05
5.3327e-07
6.40559e-05
5.15746e-07
6.40422e-05
4.98383e-07
6.40267e-05
4.81227e-07
6.40095e-05
4.64314e-07
6.39906e-05
4.47666e-07
6.39704e-05
4.31299e-07
6.39487e-05
4.15214e-07
6.3926e-05
3.9943e-07
6.39021e-05
3.83892e-07
6.38775e-05
3.68698e-07
6.38516e-05
3.53611e-07
6.3826e-05
3.38912e-07
3.24631e-07
6.37985e-05
6.5644e-05
2.21346e-07
6.57108e-05
4.59203e-07
6.57547e-05
5.42439e-07
6.57894e-05
5.95592e-07
6.5819e-05
6.38406e-07
6.58438e-05
6.63645e-07
6.5865e-05
6.75382e-07
6.58835e-05
6.79616e-07
6.59001e-05
6.78754e-07
6.59148e-05
6.7363e-07
6.59282e-05
6.65089e-07
6.59402e-05
6.53994e-07
6.59511e-05
6.41012e-07
6.59611e-05
6.26628e-07
6.59702e-05
6.11221e-07
6.59785e-05
5.95096e-07
6.59861e-05
5.78499e-07
6.5993e-05
5.61616e-07
6.59993e-05
5.44595e-07
6.6005e-05
5.27547e-07
6.60102e-05
5.10558e-07
6.60149e-05
4.93691e-07
6.60191e-05
4.76994e-07
6.60229e-05
4.60501e-07
6.60264e-05
4.44232e-07
6.60295e-05
4.28201e-07
6.60323e-05
4.1241e-07
6.60348e-05
3.96864e-07
6.60372e-05
3.81533e-07
6.60394e-05
3.66455e-07
6.60415e-05
3.51536e-07
6.60435e-05
3.36881e-07
3.22843e-07
6.60453e-05
6.75014e-05
1.7669e-07
6.75606e-05
4.00047e-07
6.7606e-05
4.97072e-07
6.76451e-05
5.56441e-07
6.76814e-05
6.0216e-07
6.77143e-05
6.30726e-07
6.77441e-05
6.45522e-07
6.77716e-05
6.52144e-07
6.77972e-05
6.53209e-07
6.7821e-05
6.49742e-07
6.78435e-05
6.42666e-07
6.78646e-05
6.32876e-07
6.78845e-05
6.21068e-07
6.79034e-05
6.07748e-07
6.79213e-05
5.93309e-07
6.79383e-05
5.7807e-07
6.79546e-05
5.62281e-07
6.797e-05
5.46137e-07
6.79848e-05
5.29789e-07
6.7999e-05
5.13353e-07
6.80127e-05
4.9692e-07
6.80258e-05
4.80554e-07
6.80385e-05
4.64306e-07
6.80508e-05
4.4821e-07
6.80627e-05
4.32289e-07
6.80744e-05
4.16556e-07
6.80858e-05
4.01013e-07
6.8097e-05
3.85661e-07
6.8108e-05
3.70484e-07
6.8119e-05
3.55484e-07
6.81299e-05
3.40631e-07
6.81408e-05
3.25935e-07
3.11555e-07
6.81521e-05
6.94169e-05
1.43865e-07
6.94686e-05
3.48321e-07
6.95132e-05
4.5241e-07
6.95533e-05
5.16338e-07
6.95912e-05
5.64286e-07
6.96263e-05
5.95613e-07
6.96587e-05
6.13119e-07
6.9689e-05
6.21897e-07
6.97175e-05
6.24711e-07
6.97444e-05
6.22775e-07
6.977e-05
6.17076e-07
6.97944e-05
6.08532e-07
6.98176e-05
5.97851e-07
6.98398e-05
5.85554e-07
6.98611e-05
5.72046e-07
6.98815e-05
5.57652e-07
6.99011e-05
5.42631e-07
6.99201e-05
5.27184e-07
6.99384e-05
5.11468e-07
6.99561e-05
4.95603e-07
6.99734e-05
4.79683e-07
6.99902e-05
4.63779e-07
7.00065e-05
4.47942e-07
7.00225e-05
4.32209e-07
7.00382e-05
4.16605e-07
7.00536e-05
4.01144e-07
7.00688e-05
3.85829e-07
7.00838e-05
3.70658e-07
7.00987e-05
3.55618e-07
7.01135e-05
3.40697e-07
7.01282e-05
3.25872e-07
7.01431e-05
3.11092e-07
2.96419e-07
7.01582e-05
7.13907e-05
1.1945e-07
7.14348e-05
3.04263e-07
7.14764e-05
4.10817e-07
7.1515e-05
4.77777e-07
7.15522e-05
5.27081e-07
7.15874e-05
5.6033e-07
7.16206e-05
5.79989e-07
7.16519e-05
5.90597e-07
7.16816e-05
5.94955e-07
7.171e-05
5.94401e-07
7.17371e-05
5.89962e-07
7.17631e-05
5.8256e-07
7.1788e-05
5.72914e-07
7.1812e-05
5.61558e-07
7.18352e-05
5.48909e-07
7.18575e-05
5.353e-07
7.18791e-05
5.20996e-07
7.19001e-05
5.06204e-07
7.19205e-05
4.91084e-07
7.19404e-05
4.75764e-07
7.19597e-05
4.60338e-07
7.19786e-05
4.44881e-07
7.19971e-05
4.29447e-07
7.20152e-05
4.14075e-07
7.2033e-05
3.9879e-07
7.20506e-05
3.83607e-07
7.20679e-05
3.68531e-07
7.2085e-05
3.53558e-07
7.21019e-05
3.38675e-07
7.21187e-05
3.23862e-07
7.21355e-05
3.09091e-07
7.21523e-05
2.94292e-07
2.7947e-07
7.21693e-05
7.34237e-05
1.00988e-07
7.34611e-05
2.66878e-07
7.34997e-05
3.72237e-07
7.35369e-05
4.40544e-07
7.35736e-05
4.9038e-07
7.36091e-05
5.24879e-07
7.36428e-05
5.46272e-07
7.36749e-05
5.58487e-07
7.37056e-05
5.6425e-07
7.3735e-05
5.64983e-07
7.37633e-05
5.61738e-07
7.37904e-05
5.55435e-07
7.38165e-05
5.468e-07
7.38417e-05
5.36375e-07
7.3866e-05
5.24585e-07
7.38895e-05
5.11766e-07
7.39123e-05
4.98188e-07
7.39345e-05
4.84061e-07
7.3956e-05
4.69551e-07
7.3977e-05
4.54786e-07
7.39975e-05
4.39866e-07
7.40175e-05
4.24867e-07
7.40371e-05
4.09848e-07
7.40563e-05
3.94847e-07
7.40752e-05
3.79893e-07
7.40938e-05
3.65003e-07
7.41122e-05
3.50181e-07
7.41303e-05
3.35425e-07
7.41482e-05
3.20722e-07
7.41661e-05
3.06051e-07
7.41838e-05
2.91381e-07
7.42014e-05
2.76651e-07
2.61857e-07
7.4219e-05
7.55168e-05
8.66838e-08
7.55485e-05
2.35118e-07
7.55839e-05
3.36837e-07
7.56193e-05
4.05164e-07
7.56547e-05
4.54949e-07
7.56895e-05
4.90129e-07
7.5723e-05
5.12802e-07
7.57551e-05
5.26318e-07
7.57861e-05
5.33269e-07
7.5816e-05
5.35128e-07
7.58447e-05
5.32955e-07
7.58725e-05
5.27659e-07
7.58994e-05
5.19962e-07
7.59253e-05
5.1041e-07
7.59505e-05
4.99429e-07
7.59749e-05
4.87361e-07
7.59986e-05
4.74476e-07
7.60217e-05
4.60989e-07
7.60442e-05
4.47067e-07
7.60661e-05
4.32843e-07
7.60875e-05
4.18421e-07
7.61085e-05
4.03877e-07
7.61291e-05
3.89273e-07
7.61493e-05
3.74651e-07
7.61692e-05
3.6004e-07
7.61887e-05
3.45458e-07
7.6208e-05
3.30913e-07
7.6227e-05
3.16404e-07
7.62458e-05
3.01918e-07
7.62644e-05
2.87435e-07
7.62829e-05
2.72927e-07
7.63012e-05
2.58326e-07
2.43618e-07
7.63194e-05
7.76709e-05
7.53135e-08
7.76981e-05
2.08015e-07
7.77304e-05
3.04518e-07
7.77639e-05
3.71674e-07
7.7798e-05
4.20801e-07
7.78321e-05
4.56083e-07
7.78653e-05
4.79552e-07
7.78976e-05
4.94053e-07
7.79289e-05
5.01982e-07
7.79592e-05
5.04817e-07
7.79885e-05
5.03609e-07
7.80169e-05
4.99243e-07
7.80445e-05
4.92429e-07
7.80712e-05
4.83712e-07
7.80971e-05
4.73518e-07
7.81222e-05
4.62188e-07
7.81467e-05
4.49993e-07
7.81706e-05
4.37149e-07
7.81938e-05
4.23827e-07
7.82165e-05
4.10159e-07
7.82387e-05
3.9625e-07
7.82603e-05
3.82183e-07
7.82816e-05
3.68018e-07
7.83025e-05
3.53799e-07
7.83229e-05
3.3956e-07
7.83431e-05
3.25319e-07
7.83629e-05
3.11087e-07
7.83824e-05
2.96864e-07
7.84017e-05
2.82643e-07
7.84207e-05
2.68406e-07
7.84395e-05
2.54132e-07
7.84581e-05
2.3978e-07
2.25361e-07
7.84763e-05
7.98876e-05
6.60391e-08
7.99109e-05
1.84696e-07
7.99404e-05
2.75069e-07
7.99719e-05
3.40092e-07
8.00047e-05
3.88061e-07
8.00378e-05
4.2299e-07
8.00705e-05
4.46853e-07
8.01025e-05
4.62053e-07
8.01337e-05
4.7076e-07
8.01641e-05
4.74416e-07
8.01937e-05
4.74052e-07
8.02224e-05
4.70522e-07
8.02503e-05
4.6452e-07
8.02774e-05
4.56582e-07
8.03038e-05
4.47132e-07
8.03295e-05
4.36506e-07
8.03545e-05
4.24976e-07
8.03789e-05
4.12758e-07
8.04027e-05
4.00021e-07
8.0426e-05
3.86901e-07
8.04487e-05
3.73505e-07
8.0471e-05
3.59915e-07
8.04928e-05
3.46194e-07
8.05142e-05
3.32391e-07
8.05352e-05
3.18538e-07
8.05559e-05
3.04658e-07
8.05762e-05
2.90765e-07
8.05962e-05
2.76861e-07
8.06159e-05
2.62945e-07
8.06353e-05
2.49003e-07
8.06544e-05
2.3502e-07
8.06732e-05
2.20956e-07
2.06818e-07
8.06918e-05
8.21682e-05
5.82876e-08
8.21885e-05
1.64436e-07
8.22153e-05
2.4823e-07
8.2245e-05
3.10373e-07
8.22763e-05
3.56733e-07
8.23084e-05
3.90899e-07
8.23405e-05
4.14758e-07
8.23722e-05
4.30353e-07
8.24034e-05
4.39613e-07
8.24339e-05
4.43917e-07
8.24637e-05
4.44263e-07
8.24927e-05
4.41468e-07
8.2521e-05
4.362e-07
8.25486e-05
4.28985e-07
8.25755e-05
4.20236e-07
8.26017e-05
4.10287e-07
8.26273e-05
3.99404e-07
8.26523e-05
3.87801e-07
8.26767e-05
3.75648e-07
8.27005e-05
3.63082e-07
8.27238e-05
3.50208e-07
8.27466e-05
3.37111e-07
8.27689e-05
3.23856e-07
8.27908e-05
3.10492e-07
8.28123e-05
2.97055e-07
8.28334e-05
2.83571e-07
8.28541e-05
2.70055e-07
8.28744e-05
2.56515e-07
8.28944e-05
2.42953e-07
8.29141e-05
2.29365e-07
8.29333e-05
2.15743e-07
8.29522e-05
2.02073e-07
1.88387e-07
8.29707e-05
8.45144e-05
5.1665e-08
8.45322e-05
1.46639e-07
8.45567e-05
2.23719e-07
8.45846e-05
2.82428e-07
8.46146e-05
3.26785e-07
8.46457e-05
3.59842e-07
8.46771e-05
3.83355e-07
8.47083e-05
3.99072e-07
8.47393e-05
4.08686e-07
8.47697e-05
4.13483e-07
8.47995e-05
4.14416e-07
8.48287e-05
4.12262e-07
8.48573e-05
4.07656e-07
8.48852e-05
4.01107e-07
8.49124e-05
3.93018e-07
8.4939e-05
3.83713e-07
8.49649e-05
3.73455e-07
8.49903e-05
3.62453e-07
8.5015e-05
3.50877e-07
8.50393e-05
3.38861e-07
8.50629e-05
3.26512e-07
8.50861e-05
3.13916e-07
8.51089e-05
3.01138e-07
8.51311e-05
2.88229e-07
8.51529e-05
2.75228e-07
8.51744e-05
2.62163e-07
8.51954e-05
2.49054e-07
8.5216e-05
2.35913e-07
8.52362e-05
2.22745e-07
8.5256e-05
2.09554e-07
8.52754e-05
1.96339e-07
8.52944e-05
1.83086e-07
1.69823e-07
8.53129e-05
8.69279e-05
4.58958e-08
8.69437e-05
1.30829e-07
8.69662e-05
2.01253e-07
8.69925e-05
2.56142e-07
8.70211e-05
2.98165e-07
8.70511e-05
3.29813e-07
8.70818e-05
3.52675e-07
8.71126e-05
3.68252e-07
8.71433e-05
3.78015e-07
8.71737e-05
3.83142e-07
8.72035e-05
3.84531e-07
8.72329e-05
3.82911e-07
8.72617e-05
3.78884e-07
8.72898e-05
3.72937e-07
8.73174e-05
3.65458e-07
8.73443e-05
3.56762e-07
8.73707e-05
3.47103e-07
8.73965e-05
3.36686e-07
8.74217e-05
3.25678e-07
8.74463e-05
3.14211e-07
8.74704e-05
3.02392e-07
8.7494e-05
2.90306e-07
8.75172e-05
2.78021e-07
8.75398e-05
2.65589e-07
8.7562e-05
2.5305e-07
8.75837e-05
2.40435e-07
8.7605e-05
2.27767e-07
8.76258e-05
2.15064e-07
8.76462e-05
2.02335e-07
8.76662e-05
1.8959e-07
8.76857e-05
1.76838e-07
8.77047e-05
1.6408e-07
1.51363e-07
8.77232e-05
8.94106e-05
4.07846e-08
8.94249e-05
1.16626e-07
8.94455e-05
1.80564e-07
8.94703e-05
2.31382e-07
8.94977e-05
2.70799e-07
8.95267e-05
3.00781e-07
8.95566e-05
3.22727e-07
8.9587e-05
3.37925e-07
8.96173e-05
3.47646e-07
8.96475e-05
3.5295e-07
8.96774e-05
3.54672e-07
8.97068e-05
3.5349e-07
8.97357e-05
3.49968e-07
8.97641e-05
3.44566e-07
8.97919e-05
3.37654e-07
8.98191e-05
3.29535e-07
8.98458e-05
3.20453e-07
8.98719e-05
3.10608e-07
8.98974e-05
3.00162e-07
8.99223e-05
2.89245e-07
8.99468e-05
2.77962e-07
8.99707e-05
2.66397e-07
8.99941e-05
2.5462e-07
9.0017e-05
2.42683e-07
9.00394e-05
2.30629e-07
9.00613e-05
2.18491e-07
9.00828e-05
2.06295e-07
9.01038e-05
1.94063e-07
9.01243e-05
1.8181e-07
9.01444e-05
1.69549e-07
9.01639e-05
1.57294e-07
9.0183e-05
1.45048e-07
1.32852e-07
9.02015e-05
9.19645e-05
3.61888e-08
9.19774e-05
1.03727e-07
9.19965e-05
1.61405e-07
9.20199e-05
2.08007e-07
9.20461e-05
2.446e-07
9.20742e-05
2.72697e-07
9.21034e-05
2.93496e-07
9.21332e-05
3.081e-07
9.21633e-05
3.17598e-07
9.21933e-05
3.22932e-07
9.22231e-05
3.24864e-07
9.22526e-05
3.24021e-07
9.22816e-05
3.20924e-07
9.23102e-05
3.16003e-07
9.23382e-05
3.0961e-07
9.23657e-05
3.02031e-07
9.23927e-05
2.93501e-07
9.24191e-05
2.84211e-07
9.24449e-05
2.74317e-07
9.24702e-05
2.63946e-07
9.2495e-05
2.53202e-07
9.25192e-05
2.42168e-07
9.25429e-05
2.30912e-07
9.25661e-05
2.19488e-07
9.25888e-05
2.07941e-07
9.2611e-05
1.96307e-07
9.26327e-05
1.84613e-07
9.26538e-05
1.72885e-07
9.26745e-05
1.61142e-07
9.26946e-05
1.49402e-07
9.27143e-05
1.37685e-07
9.27333e-05
1.26004e-07
1.14408e-07
9.27517e-05
9.45913e-05
3.20023e-08
9.46032e-05
9.18914e-08
9.4621e-05
1.43555e-07
9.46432e-05
1.85871e-07
9.46683e-05
2.19473e-07
9.46955e-05
2.455e-07
9.4724e-05
2.64953e-07
9.47534e-05
2.7877e-07
9.47831e-05
2.87877e-07
9.48129e-05
2.93101e-07
9.48426e-05
2.95128e-07
9.48721e-05
2.94529e-07
9.49013e-05
2.91782e-07
9.493e-05
2.87286e-07
9.49582e-05
2.81368e-07
9.4986e-05
2.74297e-07
9.50132e-05
2.66297e-07
9.50398e-05
2.57548e-07
9.5066e-05
2.48201e-07
9.50915e-05
2.38378e-07
9.51165e-05
2.28179e-07
9.5141e-05
2.17687e-07
9.5165e-05
2.06969e-07
9.51884e-05
1.96079e-07
9.52113e-05
1.85063e-07
9.52336e-05
1.73958e-07
9.52554e-05
1.62795e-07
9.52767e-05
1.51601e-07
9.52974e-05
1.404e-07
9.53176e-05
1.29213e-07
9.53373e-05
1.18061e-07
9.53563e-05
1.06959e-07
9.59504e-08
9.53748e-05
9.72934e-05
2.81435e-08
9.73043e-05
8.09226e-08
9.73211e-05
1.26814e-07
9.73421e-05
1.64827e-07
9.73663e-05
1.95314e-07
9.73927e-05
2.19117e-07
9.74206e-05
2.37054e-07
9.74494e-05
2.49912e-07
9.74788e-05
2.58475e-07
9.75085e-05
2.63458e-07
9.75381e-05
2.65471e-07
9.75676e-05
2.65025e-07
9.75969e-05
2.62555e-07
9.76257e-05
2.58425e-07
9.76541e-05
2.52937e-07
9.76821e-05
2.46342e-07
9.77096e-05
2.38847e-07
9.77365e-05
2.30625e-07
9.77629e-05
2.21817e-07
9.77887e-05
2.1254e-07
9.7814e-05
2.02891e-07
9.78387e-05
1.92949e-07
9.78629e-05
1.82781e-07
9.78865e-05
1.72442e-07
9.79096e-05
1.61977e-07
9.79322e-05
1.51425e-07
9.79541e-05
1.40819e-07
9.79756e-05
1.30187e-07
9.79964e-05
1.19555e-07
9.80167e-05
1.08947e-07
9.80363e-05
9.83889e-08
9.80554e-05
8.78982e-08
7.75231e-08
9.80738e-05
0.000100073
2.45481e-08
0.000100083
7.06598e-08
0.000100099
1.11003e-07
0.000100119
1.44729e-07
0.000100142
1.72014e-07
0.000100168
1.93467e-07
0.000100195
2.09742e-07
0.000100224
2.21492e-07
0.000100253
2.29372e-07
0.000100282
2.33995e-07
0.000100312
2.3589e-07
0.000100341
2.35513e-07
0.00010037
2.33251e-07
0.000100399
2.29432e-07
0.000100428
2.24333e-07
0.000100456
2.18182e-07
0.000100484
2.11173e-07
0.000100511
2.03465e-07
0.000100538
1.9519e-07
0.000100564
1.86461e-07
0.000100589
1.77368e-07
0.000100614
1.67989e-07
0.000100639
1.58388e-07
0.000100662
1.48618e-07
0.000100686
1.38726e-07
0.000100708
1.28751e-07
0.000100731
1.18726e-07
0.000100752
1.08681e-07
0.000100773
9.86452e-08
0.000100793
8.86424e-08
0.000100813
7.86986e-08
0.000100832
6.88326e-08
5.90887e-08
0.00010085
0.000102931
2.11636e-08
0.000102941
6.09676e-08
0.000102956
9.59621e-08
0.000102975
1.25436e-07
0.000102998
1.49456e-07
0.000103023
1.68456e-07
0.00010305
1.82947e-07
0.000103078
1.93459e-07
0.000103107
2.00535e-07
0.000103136
2.04688e-07
0.000103166
2.06373e-07
0.000103195
2.05985e-07
0.000103224
2.03867e-07
0.000103254
2.00309e-07
0.000103282
1.95559e-07
0.000103311
1.89824e-07
0.000103339
1.8328e-07
0.000103366
1.76074e-07
0.000103393
1.68328e-07
0.000103419
1.60146e-07
0.000103445
1.51615e-07
0.00010347
1.42808e-07
0.000103495
1.33787e-07
0.000103519
1.24604e-07
0.000103542
1.15303e-07
0.000103565
1.05926e-07
0.000103587
9.65039e-08
0.000103609
8.70697e-08
0.00010363
7.76509e-08
0.00010365
6.82738e-08
0.00010367
5.89649e-08
0.000103689
4.97443e-08
4.06559e-08
0.000103707
0.000105872
1.79455e-08
0.000105881
5.17288e-08
0.000105896
8.15439e-08
0.000105914
1.06806e-07
0.000105936
1.2752e-07
0.000105961
1.43985e-07
0.000105987
1.56588e-07
0.000106015
1.65753e-07
0.000106043
1.71917e-07
0.000106073
1.75504e-07
0.000106102
1.76894e-07
0.000106132
1.76426e-07
0.000106161
1.74394e-07
0.00010619
1.71051e-07
0.000106219
1.66615e-07
0.000106248
1.6127e-07
0.000106276
1.55174e-07
0.000106303
1.4846e-07
0.000106331
1.41239e-07
0.000106357
1.33608e-07
0.000106383
1.25646e-07
0.000106408
1.17422e-07
0.000106433
1.08995e-07
0.000106457
1.00415e-07
0.000106481
9.17264e-08
0.000106504
8.29666e-08
0.000106526
7.41702e-08
0.000106548
6.53675e-08
0.000106569
5.65873e-08
0.00010659
4.78553e-08
0.000106609
3.91982e-08
0.000106628
3.06353e-08
2.22078e-08
0.000106647
0.000108896
1.48544e-08
0.000108905
4.28384e-08
0.000108919
6.76107e-08
0.000108937
8.87013e-08
0.000108959
1.06079e-07
0.000108983
1.19941e-07
0.000109009
1.30573e-07
0.000109036
1.38298e-07
0.000109065
1.43459e-07
0.000109094
1.46396e-07
0.000109123
1.4742e-07
0.000109153
1.4681e-07
0.000109183
1.44812e-07
0.000109212
1.41644e-07
0.000109241
1.37492e-07
0.00010927
1.32516e-07
0.000109298
1.26854e-07
0.000109326
1.20624e-07
0.000109353
1.13927e-07
0.00010938
1.06848e-07
0.000109406
9.94628e-08
0.000109432
9.18335e-08
0.000109457
8.40151e-08
0.000109481
7.60551e-08
0.000109505
6.79955e-08
0.000109528
5.9873e-08
0.000109551
5.17208e-08
0.000109572
4.35692e-08
0.000109593
3.54456e-08
0.000109614
2.73761e-08
0.000109634
1.93857e-08
0.000109653
1.14936e-08
3.73826e-09
0.000109671
0.000112007
1.18538e-08
0.000112016
3.41982e-08
0.00011203
5.40293e-08
0.000112047
7.09788e-08
0.000112069
8.49969e-08
0.000112092
9.62049e-08
0.000112118
1.04796e-07
0.000112145
1.11004e-07
0.000112174
1.15089e-07
0.000112203
1.17307e-07
0.000112232
1.17903e-07
0.000112262
1.17099e-07
0.000112292
1.15095e-07
0.000112321
1.12068e-07
0.000112351
1.08174e-07
0.00011238
1.03549e-07
0.000112408
9.83107e-08
0.000112436
9.25606e-08
0.000112464
8.63873e-08
0.000112491
7.98673e-08
0.000112517
7.30669e-08
0.000112543
6.60436e-08
0.000112568
5.88478e-08
0.000112593
5.15238e-08
0.000112616
4.41108e-08
0.00011264
3.66437e-08
0.000112662
2.91543e-08
0.000112684
2.16714e-08
0.000112705
1.42219e-08
0.000112726
6.83044e-09
0.000112746
-4.7865e-10
0.000112765
-7.68687e-09
-1.47576e-08
0.000112783
0.000115207
8.9073e-09
0.000115216
2.57134e-08
0.000115229
4.06686e-08
0.000115247
5.3494e-08
0.000115268
6.41325e-08
0.000115291
7.26428e-08
0.000115317
7.91382e-08
0.000115344
8.37716e-08
0.000115372
8.67196e-08
0.000115402
8.81652e-08
0.000115431
8.8286e-08
0.000115461
8.72482e-08
0.000115491
8.52049e-08
0.000115521
8.22947e-08
0.00011555
7.86418e-08
0.000115579
7.43562e-08
0.000115608
6.95352e-08
0.000115636
6.42643e-08
0.000115664
5.86189e-08
0.000115691
5.26648e-08
0.000115718
4.64604e-08
0.000115744
4.00566e-08
0.000115769
3.34991e-08
0.000115794
2.68278e-08
0.000115818
2.00793e-08
0.000115841
1.32858e-08
0.000115864
6.47744e-09
0.000115886
-3.19023e-10
0.000115907
-7.07807e-09
0.000115928
-1.37769e-08
0.000115948
-2.03928e-08
0.000115967
-2.69101e-08
-3.32958e-08
0.000115986
0.000118499
5.9761e-09
0.000118507
1.72882e-08
0.00011852
2.73939e-08
0.000118538
3.60951e-08
0.000118559
4.33324e-08
0.000118582
4.91104e-08
0.000118608
5.34694e-08
0.000118635
5.64837e-08
0.000118664
5.82529e-08
0.000118693
5.88873e-08
0.000118723
5.84993e-08
0.000118753
5.72e-08
0.000118783
5.50956e-08
0.000118813
5.22859e-08
0.000118843
4.88629e-08
0.000118872
4.49109e-08
0.000118901
4.05059e-08
0.00011893
3.57166e-08
0.000118958
3.06047e-08
0.000118985
2.52254e-08
0.000119012
1.96279e-08
0.000119038
1.3857e-08
0.000119064
7.95206e-09
0.000119089
1.9496e-09
0.000119113
-4.11822e-09
0.000119136
-1.02212e-08
0.000119159
-1.63324e-08
0.000119181
-2.24264e-08
0.000119203
-2.84801e-08
0.000119223
-3.44714e-08
0.000119243
-4.03796e-08
0.000119263
-4.61876e-08
-5.18642e-08
0.000119281
0.000121884
3.02872e-09
0.000121893
8.83264e-09
0.000121906
1.40712e-08
0.000121923
1.86248e-08
0.000121944
2.24337e-08
0.000121968
2.54504e-08
0.000121994
2.76433e-08
0.000122021
2.90105e-08
0.00012205
2.95753e-08
0.00012208
2.93763e-08
0.00012211
2.8462e-08
0.00012214
2.68878e-08
0.00012217
2.47133e-08
0.000122201
2.19994e-08
0.000122231
1.8806e-08
0.00012226
1.51907e-08
0.00012229
1.12083e-08
0.000122318
6.91012e-09
0.000122347
2.34375e-09
0.000122374
-2.44684e-09
0.000122401
-7.42121e-09
0.000122428
-1.25424e-08
0.000122454
-1.77762e-08
0.000122479
-2.30916e-08
0.000122503
-2.84595e-08
0.000122527
-3.38538e-08
0.000122549
-3.92495e-08
0.000122572
-4.46244e-08
0.000122593
-4.9957e-08
0.000122614
-5.52285e-08
0.000122634
-6.04201e-08
0.000122653
-6.55202e-08
-7.05021e-08
0.000122672
0.000125366
5.03019e-11
0.000125375
2.61272e-10
0.000125389
5.61472e-10
0.000125406
9.14542e-10
0.000125427
1.25788e-09
0.000125451
1.48754e-09
0.000125478
1.49635e-09
0.000125505
1.20381e-09
0.000125534
5.56143e-10
0.000125564
-4.80882e-10
0.000125595
-1.92388e-09
0.000125625
-3.77303e-09
0.000125656
-6.01554e-09
0.000125687
-8.62966e-09
0.000125717
-1.15878e-08
0.000125747
-1.48586e-08
0.000125777
-1.84088e-08
0.000125806
-2.22046e-08
0.000125834
-2.62125e-08
0.000125862
-3.04001e-08
0.00012589
-3.47362e-08
0.000125916
-3.91913e-08
0.000125942
-4.37373e-08
0.000125967
-4.83483e-08
0.000125992
-5.29995e-08
0.000126016
-5.76679e-08
0.000126039
-6.23321e-08
0.000126061
-6.69717e-08
0.000126083
-7.15679e-08
0.000126104
-7.61028e-08
0.000126124
-8.05584e-08
0.000126143
-8.49199e-08
-8.91608e-08
0.000126162
0.000128948
-3.00521e-09
0.000128957
-8.55089e-09
0.000128971
-1.33188e-08
0.000128989
-1.72493e-08
0.000129011
-2.04152e-08
0.000129035
-2.29908e-08
0.000129062
-2.51687e-08
0.00012909
-2.71129e-08
0.00012912
-2.89579e-08
0.00012915
-3.08138e-08
0.000129181
-3.27642e-08
0.000129212
-3.4866e-08
0.000129243
-3.71539e-08
0.000129274
-3.96454e-08
0.000129305
-4.23454e-08
0.000129335
-4.5249e-08
0.000129365
-4.83446e-08
0.000129395
-5.16156e-08
0.000129423
-5.50428e-08
0.000129452
-5.86051e-08
0.000129479
-6.22808e-08
0.000129506
-6.60479e-08
0.000129532
-6.98849e-08
0.000129558
-7.37705e-08
0.000129582
-7.76849e-08
0.000129606
-8.16083e-08
0.000129629
-8.55227e-08
0.000129652
-8.94107e-08
0.000129674
-9.32564e-08
0.000129694
-9.70451e-08
0.000129715
-1.00764e-07
0.000129734
-1.04405e-07
-1.07949e-07
0.000129753
0.000132632
-6.20315e-09
0.000132641
-1.77736e-08
0.000132656
-2.78101e-08
0.000132675
-3.61384e-08
0.000132697
-4.28585e-08
0.000132723
-4.82437e-08
0.00013275
-5.25897e-08
0.000132779
-5.61536e-08
0.000132809
-5.91579e-08
0.00013284
-6.17938e-08
0.000132872
-6.42146e-08
0.000132903
-6.65348e-08
0.000132935
-6.88361e-08
0.000132967
-7.11752e-08
0.000132998
-7.35892e-08
0.000133029
-7.60992e-08
0.000133059
-7.87144e-08
0.000133089
-8.1436e-08
0.000133118
-8.42582e-08
0.000133147
-8.71717e-08
0.000133174
-9.01638e-08
0.000133202
-9.32205e-08
0.000133228
-9.6326e-08
0.000133254
-9.94651e-08
0.000133279
-1.02622e-07
0.000133303
-1.0578e-07
0.000133326
-1.08925e-07
0.000133349
-1.12043e-07
0.000133371
-1.15118e-07
0.000133392
-1.18137e-07
0.000133412
-1.21086e-07
0.000133432
-1.23951e-07
-1.26709e-07
0.000133451
0.000136422
-9.62461e-09
0.000136432
-2.76299e-08
0.000136447
-4.32244e-08
0.000136467
-5.60968e-08
0.00013649
-6.64112e-08
0.000136517
-7.45865e-08
0.000136545
-8.10471e-08
0.000136575
-8.61552e-08
0.000136606
-9.02326e-08
0.000136638
-9.35622e-08
0.00013667
-9.63724e-08
0.000136703
-9.88372e-08
0.000136735
-1.01086e-07
0.000136767
-1.03215e-07
0.000136799
-1.05291e-07
0.00013683
-1.07362e-07
0.000136861
-1.09457e-07
0.000136891
-1.11593e-07
0.00013692
-1.13777e-07
0.000136949
-1.16011e-07
0.000136977
-1.18292e-07
0.000137005
-1.20612e-07
0.000137031
-1.22961e-07
0.000137057
-1.25331e-07
0.000137082
-1.27708e-07
0.000137107
-1.30081e-07
0.00013713
-1.32439e-07
0.000137153
-1.3477e-07
0.000137175
-1.37064e-07
0.000137196
-1.3931e-07
0.000137216
-1.41502e-07
0.000137236
-1.43637e-07
-1.45701e-07
0.000137255
0.00014032
-1.33813e-08
0.00014033
-3.84289e-08
0.000140347
-5.99811e-08
0.000140369
-7.75659e-08
0.000140394
-9.14938e-08
0.000140421
-1.02413e-07
0.000140451
-1.1091e-07
0.000140483
-1.17465e-07
0.000140515
-1.22512e-07
0.000140548
-1.26435e-07
0.000140581
-1.2954e-07
0.000140614
-1.32063e-07
0.000140647
-1.3418e-07
0.00014068
-1.36026e-07
0.000140712
-1.37701e-07
0.000140744
-1.39275e-07
0.000140776
-1.40797e-07
0.000140806
-1.42298e-07
0.000140836
-1.43801e-07
0.000140866
-1.45316e-07
0.000140894
-1.46847e-07
0.000140922
-1.48395e-07
0.000140949
-1.49957e-07
0.000140975
-1.51526e-07
0.000141001
-1.53095e-07
0.000141025
-1.54657e-07
0.000141049
-1.56201e-07
0.000141072
-1.57719e-07
0.000141094
-1.59201e-07
0.000141115
-1.60637e-07
0.000141136
-1.62016e-07
0.000141156
-1.63324e-07
-1.64546e-07
0.000141174
0.000144329
-1.76367e-08
0.000144341
-5.0622e-08
0.00014436
-7.86693e-08
0.000144383
-1.01129e-07
0.00014441
-1.18617e-07
0.00014444
-1.32135e-07
0.000144472
-1.42477e-07
0.000144505
-1.50266e-07
0.000144538
-1.56077e-07
0.000144572
-1.60413e-07
0.000144606
-1.63661e-07
0.00014464
-1.66112e-07
0.000144674
-1.6799e-07
0.000144707
-1.69464e-07
0.00014474
-1.70661e-07
0.000144773
-1.71673e-07
0.000144805
-1.72566e-07
0.000144836
-1.73385e-07
0.000144866
-1.74163e-07
0.000144896
-1.74919e-07
0.000144924
-1.75667e-07
0.000144952
-1.76412e-07
0.00014498
-1.77156e-07
0.000145006
-1.77899e-07
0.000145032
-1.78635e-07
0.000145056
-1.79363e-07
0.00014508
-1.80074e-07
0.000145103
-1.80764e-07
0.000145125
-1.81427e-07
0.000145147
-1.82059e-07
0.000145168
-1.82657e-07
0.000145187
-1.83225e-07
-1.83753e-07
0.000145207
0.000148453
-2.2647e-08
0.000148467
-6.48911e-08
0.000148489
-1.00116e-07
0.000148515
-1.2758e-07
0.000148545
-1.48548e-07
0.000148577
-1.64532e-07
0.000148612
-1.76523e-07
0.000148647
-1.853e-07
0.000148682
-1.91622e-07
0.000148718
-1.96132e-07
0.000148753
-1.99306e-07
0.000148789
-2.01494e-07
0.000148824
-2.02963e-07
0.000148858
-2.03918e-07
0.000148892
-2.04512e-07
0.000148925
-2.04854e-07
0.000148958
-2.05025e-07
0.000148989
-2.0508e-07
0.00014902
-2.05062e-07
0.00014905
-2.04997e-07
0.00014908
-2.04905e-07
0.000149108
-2.04795e-07
0.000149136
-2.04675e-07
0.000149162
-2.04548e-07
0.000149188
-2.04412e-07
0.000149213
-2.04266e-07
0.000149237
-2.04107e-07
0.00014926
-2.03931e-07
0.000149282
-2.03731e-07
0.000149304
-2.03502e-07
0.000149324
-2.03233e-07
0.000149344
-2.02913e-07
-2.02534e-07
0.000149363
0.000152695
-2.88637e-08
0.000152713
-8.23942e-08
0.000152738
-1.25508e-07
0.000152768
-1.57707e-07
0.000152801
-1.81666e-07
0.000152837
-1.99669e-07
0.000152873
-2.12887e-07
0.00015291
-2.2227e-07
0.000152947
-2.28785e-07
0.000152984
-2.33214e-07
0.000153021
-2.36102e-07
0.000153057
-2.37847e-07
0.000153093
-2.38756e-07
0.000153128
-2.39065e-07
0.000153163
-2.38945e-07
0.000153196
-2.38521e-07
0.000153229
-2.37885e-07
0.000153261
-2.37103e-07
0.000153292
-2.36224e-07
0.000153323
-2.35282e-07
0.000153352
-2.34298e-07
0.000153381
-2.3329e-07
0.000153408
-2.32268e-07
0.000153435
-2.31236e-07
0.000153461
-2.30197e-07
0.000153486
-2.29154e-07
0.00015351
-2.28104e-07
0.000153533
-2.27047e-07
0.000153555
-2.25981e-07
0.000153576
-2.24908e-07
0.000153597
-2.23827e-07
0.000153617
-2.22747e-07
-2.2166e-07
0.000153636
0.00015706
-3.70374e-08
0.000157082
-1.05096e-07
0.000157114
-1.57061e-07
0.00015715
-1.93704e-07
0.000157188
-2.20155e-07
0.000157228
-2.39535e-07
0.000157269
-2.53186e-07
0.000157309
-2.62394e-07
0.000157348
-2.68446e-07
0.000157387
-2.72258e-07
0.000157426
-2.7442e-07
0.000157463
-2.75365e-07
0.0001575
-2.75428e-07
0.000157536
-2.74859e-07
0.000157571
-2.73838e-07
0.000157605
-2.72496e-07
0.000157638
-2.70926e-07
0.00015767
-2.692e-07
0.000157701
-2.67369e-07
0.000157731
-2.65468e-07
0.00015776
-2.63525e-07
0.000157788
-2.61556e-07
0.000157816
-2.59574e-07
0.000157842
-2.57587e-07
0.000157868
-2.55599e-07
0.000157892
-2.53615e-07
0.000157916
-2.51632e-07
0.000157938
-2.49652e-07
0.00015796
-2.47672e-07
0.000157981
-2.45688e-07
0.000158
-2.43694e-07
0.000158019
-2.4168e-07
-2.39645e-07
0.000158037
0.00016155
-4.90114e-08
0.000161581
-1.35632e-07
0.000161619
-1.95198e-07
0.00016166
-2.34433e-07
0.000161702
-2.62615e-07
0.000161746
-2.8284e-07
0.000161789
-2.96263e-07
0.000161831
-3.04661e-07
0.000161872
-3.0971e-07
0.000161912
-3.12441e-07
0.000161951
-3.13471e-07
0.000161989
-3.13265e-07
0.000162026
-3.12185e-07
0.000162062
-3.10492e-07
0.000162096
-3.08367e-07
0.00016213
-3.05939e-07
0.000162162
-3.03303e-07
0.000162193
-3.00527e-07
0.000162224
-2.9766e-07
0.000162253
-2.94738e-07
0.000162281
-2.91786e-07
0.000162308
-2.88821e-07
0.000162335
-2.85855e-07
0.00016236
-2.82896e-07
0.000162384
-2.7995e-07
0.000162408
-2.77019e-07
0.00016243
-2.74106e-07
0.000162452
-2.7121e-07
0.000162473
-2.68334e-07
0.000162492
-2.65478e-07
0.000162511
-2.62645e-07
0.000162529
-2.59848e-07
-2.57083e-07
0.000162547
0.000166174
-6.96575e-08
0.000166223
-1.84583e-07
0.000166276
-2.4776e-07
0.000166326
-2.84598e-07
0.000166374
-3.1106e-07
0.000166421
-3.29288e-07
0.000166465
-3.40222e-07
0.000166506
-3.46216e-07
0.000166546
-3.49166e-07
0.000166583
-3.50033e-07
0.000166619
-3.49366e-07
0.000166654
-3.47605e-07
0.000166687
-3.4509e-07
0.000166718
-3.42059e-07
0.000166748
-3.3867e-07
0.000166777
-3.35038e-07
0.000166805
-3.31246e-07
0.000166832
-3.27354e-07
0.000166858
-3.23406e-07
0.000166883
-3.19431e-07
0.000166906
-3.15451e-07