/*--------------------------------*- C++ -*----------------------------------*\
| =========                 |                                                 |
| \\      /  F ield         | OpenFOAM: The Open Source CFD Toolbox           |
|  \\    /   O peration     | Version:  4.1                                   |
|   \\  /    A nd           | Web:      www.OpenFOAM.org                      |
|    \\/     M anipulation  |                                                 |
\*---------------------------------------------------------------------------*/
FoamFile
{
    version     2.0;
    format      ascii;
    class       volVectorField;
    location    "1900";
    object      U;
}
// * * * * * * * * * * * * * * * * * * * * * * * * * * * * * * * * * * * * * //

dimensions      [0 1 -1 0 0 0 0];

internalField   nonuniform List<vector> 
6820
(
(7.2813 0.0192603 0)
(7.18936 0.0329224 0)
(7.0895 0.0360689 0)
(6.98491 0.0374729 0)
(6.88226 0.0387345 0)
(6.7831 0.0397556 0)
(6.68718 0.0405158 0)
(6.59472 0.0410296 0)
(6.50618 0.0412713 0)
(6.42176 0.0412187 0)
(6.34143 0.0408782 0)
(6.26513 0.040277 0)
(6.19273 0.0394507 0)
(6.12412 0.0384369 0)
(6.05912 0.037272 0)
(5.99759 0.0359901 0)
(5.93934 0.0346214 0)
(5.88423 0.0331921 0)
(5.8321 0.0317243 0)
(5.78279 0.0302364 0)
(5.73617 0.0287434 0)
(5.6921 0.0272573 0)
(5.65046 0.0257874 0)
(5.61112 0.0243411 0)
(5.57397 0.0229237 0)
(5.53892 0.0215394 0)
(5.50586 0.0201903 0)
(5.47471 0.0188808 0)
(5.44533 0.0176026 0)
(5.41784 0.0163865 0)
(5.39148 0.0151669 0)
(5.36901 0.0139107 0)
(5.34246 0.0139914 0)
(7.35129 0.0206776 0)
(7.39587 0.0322614 0)
(7.42787 0.0326355 0)
(7.44987 0.0332017 0)
(7.46739 0.0343599 0)
(7.48118 0.0351444 0)
(7.49064 0.0355189 0)
(7.49593 0.0356541 0)
(7.49763 0.0356103 0)
(7.49622 0.0354081 0)
(7.49207 0.0350811 0)
(7.48557 0.0346671 0)
(7.47707 0.0341958 0)
(7.46691 0.0336874 0)
(7.45537 0.0331558 0)
(7.44272 0.0326108 0)
(7.42918 0.0320589 0)
(7.41493 0.0315041 0)
(7.40014 0.0309485 0)
(7.38495 0.0303934 0)
(7.36949 0.029839 0)
(7.35385 0.0292853 0)
(7.33812 0.0287319 0)
(7.32238 0.0281782 0)
(7.30668 0.0276235 0)
(7.29109 0.0270671 0)
(7.27564 0.0265071 0)
(7.26038 0.025947 0)
(7.24534 0.0253694 0)
(7.23054 0.0248336 0)
(7.21607 0.0241282 0)
(7.20165 0.0238801 0)
(7.18868 0.0220012 0)
(7.33498 0.0124973 0)
(7.34477 0.0201473 0)
(7.35181 0.021442 0)
(7.35496 0.0233119 0)
(7.35732 0.0252257 0)
(7.35979 0.0263816 0)
(7.362 0.0270188 0)
(7.36384 0.0274552 0)
(7.36547 0.0277917 0)
(7.36696 0.0280464 0)
(7.36826 0.0282374 0)
(7.36935 0.0283826 0)
(7.37019 0.0284909 0)
(7.37079 0.0285641 0)
(7.37113 0.0286024 0)
(7.3712 0.0286055 0)
(7.371 0.0285735 0)
(7.37054 0.0285065 0)
(7.36981 0.0284051 0)
(7.36883 0.0282699 0)
(7.3676 0.028102 0)
(7.36615 0.0279027 0)
(7.36447 0.0276731 0)
(7.36258 0.0274146 0)
(7.3605 0.0271284 0)
(7.35825 0.0268159 0)
(7.35584 0.0264775 0)
(7.35328 0.0261149 0)
(7.3506 0.0257266 0)
(7.34781 0.0253149 0)
(7.34491 0.0248786 0)
(7.34192 0.0243653 0)
(7.33896 0.023935 0)
(7.3347 0.00985765 0)
(7.34304 0.0202391 0)
(7.35045 0.0247379 0)
(7.35468 0.0280675 0)
(7.35778 0.0307884 0)
(7.36077 0.0326923 0)
(7.36343 0.0340309 0)
(7.36564 0.0350515 0)
(7.36756 0.0358228 0)
(7.3693 0.0363545 0)
(7.37087 0.0366705 0)
(7.37229 0.0368044 0)
(7.37357 0.0367864 0)
(7.37473 0.0366419 0)
(7.37579 0.0363934 0)
(7.37676 0.0360611 0)
(7.37765 0.0356621 0)
(7.37846 0.0352109 0)
(7.3792 0.0347191 0)
(7.37987 0.0341961 0)
(7.38048 0.0336495 0)
(7.38103 0.0330851 0)
(7.38153 0.0325071 0)
(7.38198 0.0319188 0)
(7.38238 0.0313223 0)
(7.38275 0.0307191 0)
(7.38307 0.0301094 0)
(7.38337 0.0294943 0)
(7.38365 0.02887 0)
(7.3839 0.028243 0)
(7.38414 0.0275949 0)
(7.38437 0.0269532 0)
(7.3846 0.0263151 0)
(7.33417 0.00784833 0)
(7.3405 0.0172866 0)
(7.34711 0.021246 0)
(7.35171 0.0237418 0)
(7.35548 0.0258495 0)
(7.3592 0.0273802 0)
(7.36268 0.0284139 0)
(7.3658 0.0291468 0)
(7.36865 0.0296697 0)
(7.37132 0.0300165 0)
(7.37384 0.030222 0)
(7.37621 0.0303221 0)
(7.37843 0.0303439 0)
(7.38054 0.0303055 0)
(7.38254 0.0302199 0)
(7.38444 0.0300967 0)
(7.38624 0.0299426 0)
(7.38796 0.0297624 0)
(7.38961 0.0295591 0)
(7.39118 0.0293346 0)
(7.39269 0.0290903 0)
(7.39415 0.0288267 0)
(7.39555 0.0285441 0)
(7.39691 0.0282425 0)
(7.39822 0.0279215 0)
(7.39951 0.0275805 0)
(7.40076 0.0272186 0)
(7.40198 0.0268349 0)
(7.40319 0.0264273 0)
(7.40439 0.0259957 0)
(7.40558 0.0255367 0)
(7.40676 0.0250535 0)
(7.40797 0.0245583 0)
(7.33381 0.00630819 0)
(7.33861 0.0150536 0)
(7.34442 0.0196755 0)
(7.34904 0.0229117 0)
(7.35294 0.0256592 0)
(7.35675 0.0277508 0)
(7.36037 0.029258 0)
(7.36368 0.0303936 0)
(7.36676 0.03127 0)
(7.36969 0.0319277 0)
(7.37246 0.0323985 0)
(7.3751 0.0327144 0)
(7.37761 0.0329006 0)
(7.38001 0.032976 0)
(7.3823 0.032956 0)
(7.3845 0.0328543 0)
(7.38662 0.0326824 0)
(7.38866 0.0324505 0)
(7.39063 0.0321668 0)
(7.39253 0.0318385 0)
(7.39438 0.0314716 0)
(7.39618 0.0310708 0)
(7.39793 0.0306401 0)
(7.39964 0.0301824 0)
(7.40131 0.0297 0)
(7.40295 0.0291944 0)
(7.40457 0.0286663 0)
(7.40616 0.0281159 0)
(7.40774 0.0275424 0)
(7.4093 0.0269453 0)
(7.41086 0.0263228 0)
(7.41242 0.0256726 0)
(7.41401 0.0250033 0)
(7.33356 0.00519296 0)
(7.33722 0.013153 0)
(7.34215 0.0178517 0)
(7.34647 0.0210123 0)
(7.35023 0.0235059 0)
(7.3539 0.0253482 0)
(7.35745 0.0266384 0)
(7.36077 0.0275703 0)
(7.36389 0.028252 0)
(7.36687 0.0287268 0)
(7.36972 0.02903 0)
(7.37245 0.0291967 0)
(7.37506 0.0292552 0)
(7.37757 0.0292269 0)
(7.37999 0.0291287 0)
(7.38233 0.0289742 0)
(7.38459 0.028774 0)
(7.38678 0.0285363 0)
(7.3889 0.0282674 0)
(7.39096 0.0279719 0)
(7.39298 0.0276528 0)
(7.39494 0.0273126 0)
(7.39686 0.0269524 0)
(7.39874 0.026573 0)
(7.40059 0.0261742 0)
(7.4024 0.0257556 0)
(7.40419 0.0253159 0)
(7.40596 0.0248537 0)
(7.40771 0.0243668 0)
(7.40944 0.0238525 0)
(7.41117 0.0233078 0)
(7.41289 0.0227261 0)
(7.41462 0.0221082 0)
(7.33341 0.00435415 0)
(7.33622 0.0115132 0)
(7.34039 0.0161814 0)
(7.34439 0.0194343 0)
(7.34802 0.0220416 0)
(7.35158 0.0240779 0)
(7.35506 0.0256023 0)
(7.35836 0.0267624 0)
(7.36149 0.0276575 0)
(7.36449 0.0283343 0)
(7.36737 0.0288284 0)
(7.37013 0.0291731 0)
(7.37279 0.0293949 0)
(7.37535 0.0295134 0)
(7.37782 0.0295438 0)
(7.38021 0.0294988 0)
(7.38252 0.0293885 0)
(7.38477 0.0292212 0)
(7.38695 0.0290037 0)
(7.38907 0.0287414 0)
(7.39114 0.0284388 0)
(7.39316 0.0280994 0)
(7.39514 0.0277259 0)
(7.39708 0.0273204 0)
(7.39898 0.0268842 0)
(7.40085 0.026418 0)
(7.4027 0.0259219 0)
(7.40452 0.0253953 0)
(7.40632 0.0248369 0)
(7.4081 0.0242445 0)
(7.40988 0.0236153 0)
(7.41164 0.0229432 0)
(7.4134 0.0222261 0)
(7.3333 0.00371129 0)
(7.3355 0.0101276 0)
(7.33902 0.0146562 0)
(7.34267 0.0178947 0)
(7.34609 0.0204492 0)
(7.34946 0.0224309 0)
(7.35279 0.023899 0)
(7.356 0.0249867 0)
(7.35906 0.0257971 0)
(7.36201 0.0263845 0)
(7.36486 0.0267874 0)
(7.3676 0.0270406 0)
(7.37025 0.0271718 0)
(7.37282 0.0272026 0)
(7.3753 0.0271498 0)
(7.3777 0.0270276 0)
(7.38004 0.0268472 0)
(7.38231 0.0266177 0)
(7.38452 0.0263463 0)
(7.38668 0.0260387 0)
(7.38878 0.0256991 0)
(7.39084 0.0253307 0)
(7.39286 0.0249358 0)
(7.39484 0.0245157 0)
(7.39678 0.024071 0)
(7.3987 0.0236015 0)
(7.40058 0.0231066 0)
(7.40244 0.0225848 0)
(7.40428 0.022034 0)
(7.40609 0.0214511 0)
(7.40789 0.0208323 0)
(7.40968 0.0201709 0)
(7.41145 0.0194639 0)
(7.33324 0.00320676 0)
(7.33498 0.00894628 0)
(7.33796 0.0132556 0)
(7.34125 0.0164315 0)
(7.34446 0.0189417 0)
(7.34766 0.0209245 0)
(7.35085 0.0224408 0)
(7.35396 0.0235993 0)
(7.35696 0.0244911 0)
(7.35986 0.0251673 0)
(7.36268 0.0256638 0)
(7.36541 0.026012 0)
(7.36805 0.0262381 0)
(7.37061 0.0263618 0)
(7.37309 0.0263989 0)
(7.3755 0.0263619 0)
(7.37785 0.0262611 0)
(7.38013 0.0261046 0)
(7.38235 0.0258989 0)
(7.38452 0.0256491 0)
(7.38663 0.025359 0)
(7.3887 0.0250318 0)
(7.39073 0.0246695 0)
(7.39272 0.0242738 0)
(7.39467 0.0238454 0)
(7.39659 0.0233845 0)
(7.39847 0.0228907 0)
(7.40033 0.0223631 0)
(7.40216 0.0218 0)
(7.40397 0.0211988 0)
(7.40576 0.0205565 0)
(7.40752 0.0198676 0)
(7.40926 0.0191301 0)
(7.33319 0.00280016 0)
(7.3346 0.00793319 0)
(7.33714 0.0119801 0)
(7.3401 0.0150542 0)
(7.34309 0.0174941 0)
(7.3461 0.0194358 0)
(7.34913 0.020935 0)
(7.35211 0.0220793 0)
(7.35502 0.0229504 0)
(7.35784 0.0236003 0)
(7.3606 0.0240659 0)
(7.36327 0.0243788 0)
(7.36587 0.0245656 0)
(7.3684 0.0246468 0)
(7.37085 0.024639 0)
(7.37324 0.0245555 0)
(7.37557 0.0244073 0)
(7.37784 0.0242032 0)
(7.38005 0.0239504 0)
(7.38221 0.0236546 0)
(7.38432 0.0233202 0)
(7.38638 0.0229507 0)
(7.38841 0.0225486 0)
(7.39039 0.0221154 0)
(7.39234 0.0216523 0)
(7.39425 0.0211593 0)
(7.39613 0.0206363 0)
(7.39798 0.0200821 0)
(7.3998 0.0194951 0)
(7.4016 0.0188729 0)
(7.40337 0.0182127 0)
(7.40511 0.0175097 0)
(7.40682 0.0167625 0)
(7.33316 0.00246423 0)
(7.33432 0.00705669 0)
(7.3365 0.010818 0)
(7.33915 0.0137564 0)
(7.34192 0.0161061 0)
(7.34475 0.0179919 0)
(7.34762 0.0194697 0)
(7.35048 0.020613 0)
(7.35329 0.0214947 0)
(7.35604 0.0221648 0)
(7.35873 0.0226586 0)
(7.36136 0.0230057 0)
(7.36392 0.0232309 0)
(7.36642 0.0233535 0)
(7.36885 0.023389 0)
(7.37122 0.0233499 0)
(7.37353 0.0232463 0)
(7.37578 0.0230864 0)
(7.37799 0.0228765 0)
(7.38014 0.0226218 0)
(7.38224 0.0223263 0)
(7.3843 0.0219928 0)
(7.38631 0.0216236 0)
(7.38828 0.0212201 0)
(7.39022 0.020783 0)
(7.39212 0.0203126 0)
(7.39398 0.0198085 0)
(7.39582 0.0192697 0)
(7.39762 0.0186951 0)
(7.39938 0.0180826 0)
(7.40112 0.01743 0)
(7.40282 0.0167337 0)
(7.40449 0.0159938 0)
(7.33314 0.00218019 0)
(7.33411 0.00629034 0)
(7.33599 0.00975789 0)
(7.33838 0.0125362 0)
(7.34093 0.0147799 0)
(7.34358 0.0165948 0)
(7.3463 0.0180333 0)
(7.34903 0.0191553 0)
(7.35174 0.0200228 0)
(7.3544 0.0206816 0)
(7.35702 0.0211652 0)
(7.35958 0.0215016 0)
(7.36209 0.0217143 0)
(7.36454 0.0218223 0)
(7.36693 0.0218408 0)
(7.36926 0.0217823 0)
(7.37154 0.021657 0)
(7.37377 0.0214733 0)
(7.37594 0.0212379 0)
(7.37807 0.020956 0)
(7.38015 0.0206321 0)
(7.38218 0.0202694 0)
(7.38417 0.0198705 0)
(7.38612 0.0194369 0)
(7.38804 0.01897 0)
(7.38991 0.0184702 0)
(7.39175 0.0179375 0)
(7.39356 0.0173715 0)
(7.39533 0.0167712 0)
(7.39706 0.0161353 0)
(7.39877 0.0154622 0)
(7.40043 0.0147496 0)
(7.40206 0.0139981 0)
(7.33312 0.00193504 0)
(7.33395 0.00561287 0)
(7.33559 0.0087879 0)
(7.33773 0.0113891 0)
(7.34009 0.0135125 0)
(7.34258 0.0152432 0)
(7.34515 0.0166289 0)
(7.34775 0.0177194 0)
(7.35035 0.0185678 0)
(7.35293 0.0192166 0)
(7.35547 0.0196975 0)
(7.35797 0.0200368 0)
(7.36043 0.0202569 0)
(7.36283 0.0203758 0)
(7.36518 0.0204081 0)
(7.36748 0.0203656 0)
(7.36973 0.020258 0)
(7.37193 0.0200932 0)
(7.37408 0.0198776 0)
(7.37618 0.0196162 0)
(7.37824 0.0193128 0)
(7.38025 0.0189707 0)
(7.38222 0.018592 0)
(7.38415 0.0181782 0)
(7.38604 0.0177305 0)
(7.38789 0.0172493 0)
(7.38971 0.0167346 0)
(7.39148 0.0161861 0)
(7.39322 0.0156031 0)
(7.39493 0.0149847 0)
(7.39659 0.0143298 0)
(7.39822 0.0136367 0)
(7.3998 0.012907 0)
(7.33311 0.00171959 0)
(7.33382 0.00500726 0)
(7.33526 0.0078966 0)
(7.3372 0.0103095 0)
(7.33938 0.0123012 0)
(7.34171 0.0139368 0)
(7.34413 0.0152579 0)
(7.34662 0.0163061 0)
(7.34911 0.0171257 0)
(7.3516 0.0177545 0)
(7.35407 0.0182216 0)
(7.3565 0.018551 0)
(7.35889 0.0187632 0)
(7.36124 0.0188751 0)
(7.36355 0.0189004 0)
(7.36581 0.0188505 0)
(7.36802 0.0187346 0)
(7.37018 0.0185604 0)
(7.37229 0.018334 0)
(7.37436 0.0180605 0)
(7.37639 0.0177439 0)
(7.37837 0.0173872 0)
(7.38031 0.016993 0)
(7.38221 0.016563 0)
(7.38407 0.0160985 0)
(7.38589 0.0156002 0)
(7.38767 0.0150685 0)
(7.38941 0.0145036 0)
(7.39111 0.0139053 0)
(7.39278 0.0132732 0)
(7.3944 0.012607 0)
(7.39598 0.0119059 0)
(7.39753 0.0111721 0)
(7.3331 0.00152725 0)
(7.33372 0.00445993 0)
(7.335 0.00707338 0)
(7.33676 0.00929166 0)
(7.33877 0.0111425 0)
(7.34095 0.0126736 0)
(7.34325 0.0139199 0)
(7.34561 0.0149158 0)
(7.34801 0.0156985 0)
(7.35041 0.016301 0)
(7.35279 0.0167498 0)
(7.35516 0.0170671 0)
(7.35749 0.0172719 0)
(7.35979 0.0173799 0)
(7.36205 0.0174043 0)
(7.36427 0.0173558 0)
(7.36644 0.0172432 0)
(7.36857 0.0170738 0)
(7.37065 0.0168536 0)
(7.37269 0.0165873 0)
(7.37468 0.0162788 0)
(7.37664 0.0159311 0)
(7.37855 0.0155466 0)
(7.38042 0.015127 0)
(7.38225 0.0146737 0)
(7.38404 0.0141874 0)
(7.38579 0.0136687 0)
(7.38749 0.0131178 0)
(7.38916 0.0125349 0)
(7.39079 0.0119199 0)
(7.39238 0.011273 0)
(7.39392 0.0105935 0)
(7.39541 0.00988421 0)
(7.3331 0.00135315 0)
(7.33364 0.00396006 0)
(7.33479 0.00630855 0)
(7.33639 0.00832928 0)
(7.33826 0.0100324 0)
(7.3403 0.0114512 0)
(7.34247 0.0126139 0)
(7.34472 0.0135489 0)
(7.34702 0.0142869 0)
(7.34933 0.0148563 0)
(7.35164 0.0152809 0)
(7.35394 0.0155804 0)
(7.35622 0.0157722 0)
(7.35846 0.0158705 0)
(7.36067 0.0158875 0)
(7.36284 0.015833 0)
(7.36497 0.0157153 0)
(7.36706 0.0155413 0)
(7.36911 0.0153165 0)
(7.37111 0.0150455 0)
(7.37307 0.0147321 0)
(7.37499 0.0143791 0)
(7.37687 0.0139891 0)
(7.3787 0.0135637 0)
(7.3805 0.0131044 0)
(7.38225 0.0126123 0)
(7.38396 0.0120881 0)
(7.38563 0.0115324 0)
(7.38726 0.0109458 0)
(7.38885 0.0103285 0)
(7.39039 0.00968119 0)
(7.39189 0.00900403 0)
(7.39335 0.00829983 0)
(7.33309 0.0011936 0)
(7.33358 0.00349891 0)
(7.33461 0.00559345 0)
(7.33608 0.00741617 0)
(7.33782 0.00896651 0)
(7.33973 0.0102665 0)
(7.34179 0.0113382 0)
(7.34394 0.0122045 0)
(7.34614 0.0128907 0)
(7.34837 0.0134209 0)
(7.35061 0.0138158 0)
(7.35284 0.0140933 0)
(7.35506 0.0142686 0)
(7.35725 0.014355 0)
(7.35941 0.0143635 0)
(7.36153 0.0143032 0)
(7.36362 0.0141821 0)
(7.36567 0.0140063 0)
(7.36768 0.0137814 0)
(7.36965 0.0135116 0)
(7.37158 0.0132005 0)
(7.37346 0.0128511 0)
(7.37531 0.0124656 0)
(7.37711 0.012046 0)
(7.37887 0.0115937 0)
(7.38059 0.0111099 0)
(7.38227 0.0105956 0)
(7.3839 0.0100514 0)
(7.3855 0.0094782 0)
(7.38705 0.00887655 0)
(7.38855 0.00824733 0)
(7.39001 0.00759091 0)
(7.39143 0.00691022 0)
(7.33309 0.00104574 0)
(7.33353 0.00306937 0)
(7.33447 0.00492031 0)
(7.33582 0.00654613 0)
(7.33744 0.0079402 0)
(7.33924 0.0091161 0)
(7.34119 0.0100904 0)
(7.34325 0.0108813 0)
(7.34536 0.0115093 0)
(7.34751 0.0119945 0)
(7.34968 0.0123548 0)
(7.35185 0.0126057 0)
(7.35401 0.0127609 0)
(7.35614 0.012832 0)
(7.35826 0.0128289 0)
(7.36034 0.0127601 0)
(7.36238 0.0126325 0)
(7.36439 0.0124521 0)
(7.36636 0.0122239 0)
(7.3683 0.0119517 0)
(7.37019 0.0116391 0)
(7.37204 0.0112888 0)
(7.37385 0.0109031 0)
(7.37561 0.0104837 0)
(7.37734 0.0100323 0)
(7.37902 0.00955018 0)
(7.38066 0.00903833 0)
(7.38226 0.00849776 0)
(7.38381 0.00792938 0)
(7.38532 0.0073341 0)
(7.38679 0.00671301 0)
(7.38821 0.00606686 0)
(7.38958 0.00539865 0)
(7.33308 0.000907244 0)
(7.33348 0.0026655 0)
(7.33435 0.00428219 0)
(7.3356 0.00571307 0)
(7.33712 0.00694856 0)
(7.33883 0.00799614 0)
(7.34068 0.00886767 0)
(7.34264 0.00957735 0)
(7.34468 0.0101414 0)
(7.34675 0.0105764 0)
(7.34885 0.0108974 0)
(7.35096 0.0111178 0)
(7.35306 0.0112493 0)
(7.35515 0.0113023 0)
(7.35721 0.0112856 0)
(7.35925 0.0112066 0)
(7.36125 0.0110719 0)
(7.36322 0.0108867 0)
(7.36515 0.0106556 0)
(7.36705 0.0103824 0)
(7.3689 0.0100703 0)
(7.37072 0.0097219 0)
(7.37249 0.0093395 0)
(7.37422 0.00892494 0)
(7.37591 0.00847979 0)
(7.37756 0.00800543 0)
(7.37917 0.00750305 0)
(7.38073 0.00697379 0)
(7.38225 0.0064187 0)
(7.38372 0.00583888 0)
(7.38515 0.00523555 0)
(7.38653 0.00460958 0)
(7.38787 0.00396391 0)
(7.33308 0.000776214 0)
(7.33345 0.00228225 0)
(7.33425 0.00367275 0)
(7.33542 0.00491103 0)
(7.33685 0.00598646 0)
(7.33847 0.00690233 0)
(7.34024 0.0076666 0)
(7.34212 0.00828995 0)
(7.34408 0.00878505 0)
(7.34608 0.00916511 0)
(7.34812 0.00944255 0)
(7.35017 0.00962861 0)
(7.35222 0.00973331 0)
(7.35425 0.00976549 0)
(7.35627 0.00973284 0)
(7.35826 0.00964196 0)
(7.36022 0.00949848 0)
(7.36216 0.00930722 0)
(7.36405 0.00907227 0)
(7.36591 0.00879707 0)
(7.36773 0.00848456 0)
(7.36951 0.00813721 0)
(7.37124 0.00775712 0)
(7.37294 0.00734609 0)
(7.3746 0.0069057 0)
(7.37621 0.00643732 0)
(7.37778 0.00594223 0)
(7.3793 0.00542162 0)
(7.38078 0.00487665 0)
(7.38222 0.00430851 0)
(7.38361 0.00371853 0)
(7.38496 0.00310771 0)
(7.38626 0.00247899 0)
(7.33308 0.000650989 0)
(7.33342 0.00191515 0)
(7.33417 0.00308613 0)
(7.33527 0.00413408 0)
(7.33663 0.00504857 0)
(7.33817 0.00583004 0)
(7.33986 0.00648337 0)
(7.34167 0.00701615 0)
(7.34356 0.00743795 0)
(7.3455 0.007759 0)
(7.34748 0.00798918 0)
(7.34947 0.00813766 0)
(7.35147 0.00821273 0)
(7.35346 0.00822178 0)
(7.35543 0.00817133 0)
(7.35738 0.00806705 0)
(7.3593 0.00791384 0)
(7.3612 0.00771593 0)
(7.36305 0.00747695 0)
(7.36487 0.00720003 0)
(7.36666 0.00688783 0)
(7.3684 0.00654268 0)
(7.3701 0.00616657 0)
(7.37177 0.00576125 0)
(7.37339 0.00532828 0)
(7.37496 0.00486907 0)
(7.3765 0.00438495 0)
(7.37799 0.00387717 0)
(7.37943 0.00334699 0)
(7.38083 0.00279563 0)
(7.38219 0.0022245 0)
(7.3835 0.00163461 0)
(7.38477 0.00102874 0)
(7.33308 0.000530064 0)
(7.3334 0.00156013 0)
(7.3341 0.00251675 0)
(7.33515 0.00337623 0)
(7.33644 0.00412905 0)
(7.33792 0.00477385 0)
(7.33955 0.00531304 0)
(7.34129 0.0057516 0)
(7.34312 0.00609631 0)
(7.34501 0.0063547 0)
(7.34693 0.00653432 0)
(7.34887 0.00664227 0)
(7.35082 0.00668515 0)
(7.35277 0.00666894 0)
(7.3547 0.00659895 0)
(7.3566 0.00647989 0)
(7.35849 0.00631588 0)
(7.36034 0.00611051 0)
(7.36216 0.00586692 0)
(7.36395 0.00558784 0)
(7.3657 0.00527562 0)
(7.36741 0.00493236 0)
(7.36907 0.00455987 0)
(7.3707 0.00415981 0)
(7.37229 0.00373364 0)
(7.37383 0.00328275 0)
(7.37533 0.00280843 0)
(7.37679 0.00231195 0)
(7.3782 0.00179455 0)
(7.37956 0.0012575 0)
(7.38089 0.000702174 0)
(7.38217 0.000129658 0)
(7.3834 -0.000457367 0)
(7.33307 0.000411948 0)
(7.33338 0.00121325 0)
(7.33405 0.00195921 0)
(7.33506 0.00263164 0)
(7.3363 0.00322233 0)
(7.33772 0.00372879 0)
(7.33929 0.00415146 0)
(7.34098 0.004493 0)
(7.34276 0.00475769 0)
(7.3446 0.00495061 0)
(7.34647 0.00507704 0)
(7.34837 0.00514215 0)
(7.35027 0.00515087 0)
(7.35217 0.00510775 0)
(7.35406 0.00501695 0)
(7.35593 0.00488223 0)
(7.35778 0.00470692 0)
(7.3596 0.00449401 0)
(7.36138 0.00424613 0)
(7.36313 0.00396563 0)
(7.36485 0.00365458 0)
(7.36652 0.00331485 0)
(7.36815 0.00294811 0)
(7.36975 0.00255587 0)
(7.3713 0.00213956 0)
(7.37281 0.00170049 0)
(7.37427 0.00123994 0)
(7.37569 0.000759152 0)
(7.37707 0.000259382 0)
(7.37841 -0.000258148 0)
(7.3797 -0.000792088 0)
(7.38094 -0.00134146 0)
(7.38214 -0.0019038 0)
(7.33307 0.000295112 0)
(7.33337 0.000870303 0)
(7.33402 0.00140731 0)
(7.33499 0.00189293 0)
(7.33619 0.00232053 0)
(7.33757 0.00268692 0)
(7.3391 0.00299086 0)
(7.34074 0.00323294 0)
(7.34248 0.00341513 0)
(7.34427 0.00354022 0)
(7.3461 0.00361132 0)
(7.34795 0.00363169 0)
(7.34982 0.00360458 0)
(7.35168 0.00353312 0)
(7.35353 0.00342027 0)
(7.35537 0.00326877 0)
(7.35718 0.00308113 0)
(7.35896 0.00285964 0)
(7.36071 0.00260639 0)
(7.36243 0.00232328 0)
(7.36411 0.00201204 0)
(7.36575 0.00167425 0)
(7.36735 0.00131138 0)
(7.36891 0.000924796 0)
(7.37043 0.000515785 0)
(7.37191 8.55927e-05 0)
(7.37334 -0.000364574 0)
(7.37473 -0.000833513 0)
(7.37608 -0.00132003 0)
(7.37738 -0.00182291 0)
(7.37864 -0.00234087 0)
(7.37985 -0.00287287 0)
(7.38103 -0.00341654 0)
(7.33307 0.000178595 0)
(7.33336 0.000528832 0)
(7.33399 0.000857704 0)
(7.33494 0.00115658 0)
(7.33611 0.00142044 0)
(7.33746 0.00164562 0)
(7.33896 0.0018294 0)
(7.34057 0.0019704 0)
(7.34226 0.00206845 0)
(7.34402 0.00212411 0)
(7.34581 0.00213844 0)
(7.34763 0.00211286 0)
(7.34946 0.00204904 0)
(7.35129 0.00194877 0)
(7.35311 0.00181386 0)
(7.35491 0.00164611 0)
(7.35668 0.00144727 0)
(7.35843 0.00121899 0)
(7.36015 0.000962841 0)
(7.36183 0.00068031 0)
(7.36348 0.00037278 0)
(7.36509 4.15652e-05 0)
(7.36666 -0.000312097 0)
(7.36818 -0.000687012 0)
(7.36967 -0.00108204 0)
(7.37111 -0.00149604 0)
(7.37251 -0.00192793 0)
(7.37387 -0.00237659 0)
(7.37519 -0.00284092 0)
(7.37646 -0.00331982 0)
(7.37768 -0.00381213 0)
(7.37887 -0.004317 0)
(7.38001 -0.00483234 0)
(7.33307 6.10713e-05 0)
(7.33336 0.000184315 0)
(7.33398 0.000303116 0)
(7.33491 0.000413489 0)
(7.33607 0.000512042 0)
(7.3374 0.000594587 0)
(7.33887 0.000656884 0)
(7.34045 0.000695623 0)
(7.34212 0.000708456 0)
(7.34385 0.000693721 0)
(7.34561 0.00065034 0)
(7.3474 0.000577801 0)
(7.3492 0.00047607 0)
(7.351 0.000345467 0)
(7.35278 0.000186568 0)
(7.35455 1.38106e-07 0)
(7.3563 -0.000212933 0)
(7.35802 -0.000451673 0)
(7.35971 -0.000715068 0)
(7.36136 -0.00100208 0)
(7.36298 -0.00131167 0)
(7.36456 -0.0016428 0)
(7.3661 -0.00199443 0)
(7.36759 -0.00236554 0)
(7.36905 -0.0027551 0)
(7.37047 -0.00316209 0)
(7.37184 -0.00358548 0)
(7.37317 -0.00402424 0)
(7.37445 -0.0044773 0)
(7.37569 -0.00494362 0)
(7.37689 -0.00542203 0)
(7.37805 -0.0059116 0)
(7.37916 -0.00641024 0)
(7.33307 -5.89363e-05 0)
(7.33336 -0.000168045 0)
(7.33398 -0.000264022 0)
(7.33491 -0.000345655 0)
(7.33606 -0.000414798 0)
(7.33738 -0.000476497 0)
(7.33884 -0.000536772 0)
(7.34041 -0.000601 0)
(7.34206 -0.00067372 0)
(7.34377 -0.000758776 0)
(7.34551 -0.000859249 0)
(7.34728 -0.000977405 0)
(7.34905 -0.00111479 0)
(7.35082 -0.0012724 0)
(7.35258 -0.00145078 0)
(7.35432 -0.00165011 0)
(7.35603 -0.00187033 0)
(7.35772 -0.00211115 0)
(7.35938 -0.00237215 0)
(7.361 -0.00265278 0)
(7.36259 -0.00295242 0)
(7.36414 -0.00327037 0)
(7.36564 -0.00360592 0)
(7.36711 -0.00395828 0)
(7.36854 -0.00432666 0)
(7.36992 -0.00471022 0)
(7.37126 -0.00510812 0)
(7.37256 -0.00551948 0)
(7.37381 -0.00594342 0)
(7.37502 -0.00637906 0)
(7.37619 -0.00682544 0)
(7.37732 -0.00728197 0)
(7.37841 -0.00774694 0)
(7.33307 -0.000183168 0)
(7.33336 -0.00053279 0)
(7.33399 -0.000850085 0)
(7.33494 -0.00112793 0)
(7.3361 -0.00136698 0)
(7.33743 -0.0015738 0)
(7.33889 -0.00175673 0)
(7.34046 -0.0019236 0)
(7.3421 -0.00208163 0)
(7.3438 -0.00223739 0)
(7.34553 -0.00239642 0)
(7.34728 -0.00256312 0)
(7.34903 -0.00274079 0)
(7.35078 -0.00293184 0)
(7.35252 -0.003138 0)
(7.35423 -0.00336037 0)
(7.35593 -0.0035996 0)
(7.35759 -0.00385598 0)
(7.35923 -0.00412951 0)
(7.36082 -0.00442001 0)
(7.36239 -0.0047271 0)
(7.36391 -0.00505032 0)
(7.36539 -0.00538908 0)
(7.36683 -0.00574276 0)
(7.36823 -0.00611065 0)
(7.36959 -0.00649201 0)
(7.37091 -0.00688605 0)
(7.37218 -0.00729199 0)
(7.37341 -0.00770895 0)
(7.3746 -0.0081361 0)
(7.37574 -0.00857246 0)
(7.37684 -0.00901721 0)
(7.3779 -0.00946862 0)
(7.33307 -0.000314657 0)
(7.33338 -0.000918336 0)
(7.33403 -0.00146737 0)
(7.33501 -0.00194776 0)
(7.3362 -0.00235974 0)
(7.33755 -0.00271271 0)
(7.33903 -0.00301782 0)
(7.3406 -0.00328525 0)
(7.34225 -0.00352455 0)
(7.34395 -0.00374465 0)
(7.34567 -0.00395332 0)
(7.3474 -0.00415686 0)
(7.34914 -0.00436031 0)
(7.35087 -0.00456764 0)
(7.35259 -0.00478188 0)
(7.35428 -0.00500533 0)
(7.35595 -0.00523961 0)
(7.35758 -0.00548585 0)
(7.35919 -0.00574475 0)
(7.36076 -0.00601672 0)
(7.36229 -0.00630189 0)
(7.36378 -0.0066002 0)
(7.36524 -0.00691144 0)
(7.36665 -0.00723528 0)
(7.36802 -0.00757128 0)
(7.36934 -0.00791894 0)
(7.37063 -0.00827768 0)
(7.37187 -0.0086469 0)
(7.37307 -0.00902596 0)
(7.37423 -0.00941422 0)
(7.37535 -0.00981098 0)
(7.37643 -0.0102159 0)
(7.37747 -0.0106276 0)
(7.33308 -0.000457266 0)
(7.3334 -0.00133518 0)
(7.3341 -0.00213044 0)
(7.33512 -0.00282081 0)
(7.33636 -0.00340795 0)
(7.33776 -0.00390683 0)
(7.33927 -0.00433369 0)
(7.34087 -0.00470302 0)
(7.34254 -0.00502842 0)
(7.34425 -0.0053223 0)
(7.34598 -0.00559499 0)
(7.34772 -0.00585458 0)
(7.34945 -0.0061074 0)
(7.35118 -0.0063584 0)
(7.35288 -0.00661137 0)
(7.35456 -0.00686913 0)
(7.35622 -0.00713372 0)
(7.35784 -0.0074066 0)
(7.35943 -0.00768875 0)
(7.36098 -0.00798081 0)
(7.36249 -0.00828309 0)
(7.36396 -0.00859569 0)
(7.3654 -0.00891855 0)
(7.36679 -0.00925144 0)
(7.36813 -0.00959406 0)
(7.36944 -0.00994596 0)
(7.3707 -0.0103067 0)
(7.37192 -0.0106757 0)
(7.3731 -0.0110524 0)
(7.37424 -0.0114362 0)
(7.37533 -0.0118263 0)
(7.37638 -0.012222 0)
(7.37739 -0.0126221 0)
(7.33308 -0.000616451 0)
(7.33344 -0.00179814 0)
(7.3342 -0.00285963 0)
(7.33531 -0.0037694 0)
(7.33662 -0.00453358 0)
(7.33808 -0.00517407 0)
(7.33964 -0.00571079 0)
(7.34128 -0.00616114 0)
(7.34298 -0.00654292 0)
(7.3447 -0.00687314 0)
(7.34643 -0.00716598 0)
(7.34816 -0.00743263 0)
(7.34989 -0.00768203 0)
(7.3516 -0.00792127 0)
(7.35329 -0.00815584 0)
(7.35495 -0.00838988 0)
(7.35658 -0.00862647 0)
(7.35818 -0.00886788 0)
(7.35974 -0.00911573 0)
(7.36126 -0.00937113 0)
(7.36275 -0.0096348 0)
(7.36419 -0.00990719 0)
(7.3656 -0.0101885 0)
(7.36696 -0.0104787 0)
(7.36828 -0.0107777 0)
(7.36955 -0.0110853 0)
(7.37079 -0.0114011 0)
(7.37198 -0.0117249 0)
(7.37313 -0.0120561 0)
(7.37424 -0.0123944 0)
(7.37531 -0.0127393 0)
(7.37634 -0.0130906 0)
(7.37733 -0.0134472 0)
(7.33308 -0.000800618 0)
(7.3335 -0.0023292 0)
(7.33436 -0.00368167 0)
(7.33559 -0.00481848 0)
(7.33701 -0.00576338 0)
(7.33856 -0.00655684 0)
(7.34021 -0.00722744 0)
(7.34192 -0.00779637 0)
(7.34367 -0.00828453 0)
(7.34544 -0.00871112 0)
(7.3472 -0.0090914 0)
(7.34896 -0.00943716 0)
(7.3507 -0.00975787 0)
(7.35241 -0.0100612 0)
(7.3541 -0.010353 0)
(7.35576 -0.010638 0)
(7.35738 -0.0109197 0)
(7.35897 -0.0112008 0)
(7.36051 -0.0114832 0)
(7.36202 -0.0117684 0)
(7.36348 -0.0120575 0)
(7.36491 -0.0123511 0)
(7.36629 -0.0126496 0)
(7.36763 -0.0129532 0)
(7.36892 -0.0132621 0)
(7.37017 -0.0135761 0)
(7.37138 -0.013895 0)
(7.37255 -0.0142186 0)
(7.37367 -0.0145467 0)
(7.37475 -0.0148787 0)
(7.37579 -0.0152143 0)
(7.37679 -0.015553 0)
(7.37774 -0.015894 0)
(7.33309 -0.00102339 0)
(7.3336 -0.00296482 0)
(7.33462 -0.00464247 0)
(7.33601 -0.00600405 0)
(7.33757 -0.00709398 0)
(7.33921 -0.0079716 0)
(7.34093 -0.00867757 0)
(7.3427 -0.0092463 0)
(7.34449 -0.00971173 0)
(7.34627 -0.0101021 0)
(7.34805 -0.010438 0)
(7.34981 -0.0107346 0)
(7.35154 -0.0110036 0)
(7.35325 -0.0112542 0)
(7.35492 -0.0114931 0)
(7.35655 -0.0117252 0)
(7.35815 -0.0119543 0)
(7.35971 -0.0121831 0)
(7.36123 -0.0124137 0)
(7.3627 -0.0126475 0)
(7.36414 -0.0128856 0)
(7.36553 -0.0131288 0)
(7.36687 -0.0133774 0)
(7.36818 -0.0136318 0)
(7.36944 -0.0138921 0)
(7.37066 -0.0141583 0)
(7.37183 -0.0144302 0)
(7.37296 -0.0147078 0)
(7.37405 -0.0149907 0)
(7.3751 -0.0152787 0)
(7.37611 -0.0155715 0)
(7.37708 -0.0158689 0)
(7.37801 -0.0161701 0)
(7.33311 -0.0013086 0)
(7.33375 -0.00375375 0)
(7.33503 -0.0057981 0)
(7.33669 -0.00743458 0)
(7.33847 -0.00877507 0)
(7.3403 -0.00989001 0)
(7.34218 -0.0108059 0)
(7.34406 -0.0115538 0)
(7.34593 -0.0121731 0)
(7.34777 -0.0126961 0)
(7.34958 -0.0131456 0)
(7.35135 -0.0135388 0)
(7.35308 -0.01389 0)
(7.35477 -0.0142104 0)
(7.35642 -0.0145086 0)
(7.35803 -0.0147909 0)
(7.3596 -0.0150622 0)
(7.36112 -0.0153261 0)
(7.3626 -0.0155854 0)
(7.36403 -0.0158419 0)
(7.36541 -0.0160971 0)
(7.36676 -0.0163521 0)
(7.36805 -0.0166076 0)
(7.36931 -0.0168641 0)
(7.37052 -0.0171218 0)
(7.37168 -0.0173809 0)
(7.3728 -0.0176416 0)
(7.37388 -0.0179038 0)
(7.37491 -0.0181675 0)
(7.3759 -0.0184327 0)
(7.37685 -0.0186993 0)
(7.37776 -0.0189673 0)
(7.37862 -0.0192367 0)
(7.33314 -0.00171311 0)
(7.33403 -0.00480965 0)
(7.33564 -0.00713657 0)
(7.33755 -0.00877125 0)
(7.33947 -0.00999824 0)
(7.3414 -0.0109694 0)
(7.34337 -0.0117333 0)
(7.34532 -0.0123347 0)
(7.34722 -0.0128226 0)
(7.34907 -0.0132315 0)
(7.35086 -0.0135819 0)
(7.35261 -0.0138885 0)
(7.35431 -0.0141631 0)
(7.35595 -0.0144147 0)
(7.35754 -0.01465 0)
(7.35908 -0.0148741 0)
(7.36058 -0.0150908 0)
(7.36202 -0.0153032 0)
(7.36342 -0.0155136 0)
(7.36477 -0.0157238 0)
(7.36608 -0.015935 0)
(7.36734 -0.0161483 0)
(7.36856 -0.0163642 0)
(7.36973 -0.0165833 0)
(7.37085 -0.0168059 0)
(7.37194 -0.017032 0)
(7.37298 -0.0172616 0)
(7.37398 -0.0174947 0)
(7.37494 -0.017731 0)
(7.37586 -0.0179703 0)
(7.37674 -0.0182123 0)
(7.37758 -0.0184563 0)
(7.37839 -0.0187019 0)
(7.33321 -0.00230683 0)
(7.33467 -0.00642729 0)
(7.33707 -0.00951514 0)
(7.33954 -0.0117567 0)
(7.34173 -0.0134588 0)
(7.34378 -0.0147552 0)
(7.34577 -0.0157247 0)
(7.34767 -0.0164591 0)
(7.34945 -0.0170352 0)
(7.35115 -0.0175005 0)
(7.35277 -0.0178853 0)
(7.35432 -0.0182124 0)
(7.3558 -0.0184989 0)
(7.35722 -0.0187565 0)
(7.35859 -0.0189933 0)
(7.3599 -0.0192149 0)
(7.36116 -0.0194254 0)
(7.36237 -0.0196275 0)
(7.36353 -0.0198234 0)
(7.36464 -0.0200145 0)
(7.36571 -0.0202019 0)
(7.36673 -0.0203865 0)
(7.36771 -0.0205688 0)
(7.36864 -0.0207493 0)
(7.36953 -0.0209286 0)
(7.37039 -0.0211067 0)
(7.3712 -0.0212842 0)
(7.37197 -0.0214611 0)
(7.37271 -0.0216378 0)
(7.3734 -0.0218148 0)
(7.37406 -0.0219928 0)
(7.37468 -0.0221735 0)
(7.37526 -0.0223582 0)
(7.33323 -0.00330733 0)
(7.33508 -0.00748597 0)
(7.33785 -0.0096344 0)
(7.34039 -0.0111617 0)
(7.34248 -0.0124964 0)
(7.34435 -0.0135478 0)
(7.34606 -0.0143184 0)
(7.34756 -0.0149099 0)
(7.34888 -0.0153926 0)
(7.35005 -0.0157925 0)
(7.35112 -0.016125 0)
(7.3521 -0.0164068 0)
(7.35301 -0.0166528 0)
(7.35385 -0.0168736 0)
(7.35463 -0.0170767 0)
(7.35537 -0.0172676 0)
(7.35607 -0.0174509 0)
(7.35673 -0.0176297 0)
(7.35736 -0.0178065 0)
(7.35796 -0.0179829 0)
(7.35853 -0.0181599 0)
(7.35907 -0.0183383 0)
(7.35958 -0.0185186 0)
(7.36006 -0.0187008 0)
(7.36052 -0.018885 0)
(7.36095 -0.019071 0)
(7.36136 -0.0192586 0)
(7.36174 -0.0194471 0)
(7.3621 -0.0196358 0)
(7.36243 -0.0198233 0)
(7.36274 -0.0200082 0)
(7.36301 -0.020186 0)
(7.36326 -0.0203573 0)
(7.33597 -0.00734845 0)
(7.3463 -0.0150967 0)
(7.35617 -0.0177367 0)
(7.36436 -0.0188971 0)
(7.37191 -0.0197792 0)
(7.37926 -0.0203568 0)
(7.38624 -0.0206456 0)
(7.39271 -0.0207945 0)
(7.39874 -0.0209012 0)
(7.40441 -0.0209912 0)
(7.40977 -0.0210685 0)
(7.41483 -0.0211386 0)
(7.41962 -0.0212065 0)
(7.42415 -0.0212743 0)
(7.42845 -0.0213419 0)
(7.43253 -0.0214093 0)
(7.43639 -0.0214765 0)
(7.44005 -0.0215436 0)
(7.44353 -0.0216107 0)
(7.44681 -0.0216779 0)
(7.44993 -0.0217455 0)
(7.45287 -0.0218139 0)
(7.45565 -0.0218832 0)
(7.45828 -0.0219538 0)
(7.46076 -0.0220261 0)
(7.4631 -0.0221004 0)
(7.46531 -0.022177 0)
(7.46739 -0.0222564 0)
(7.46934 -0.022339 0)
(7.47119 -0.0224252 0)
(7.47293 -0.0225149 0)
(7.47458 -0.0226094 0)
(7.47617 -0.0227065 0)
(7.32333 -0.00889149 0)
(7.30978 -0.0181851 0)
(7.29242 -0.0222751 0)
(7.27081 -0.0243669 0)
(7.24822 -0.0257011 0)