/*--------------------------------*- C++ -*----------------------------------*\
| =========                 |                                                 |
| \\      /  F ield         | OpenFOAM: The Open Source CFD Toolbox           |
|  \\    /   O peration     | Version:  4.1                                   |
|   \\  /    A nd           | Web:      www.OpenFOAM.org                      |
|    \\/     M anipulation  |                                                 |
\*---------------------------------------------------------------------------*/
FoamFile
{
    version     2.0;
    format      ascii;
    class       volScalarField;
    location    "700";
    object      p;
}
// * * * * * * * * * * * * * * * * * * * * * * * * * * * * * * * * * * * * * //

dimensions      [0 2 -2 0 0 0 0];

internalField   nonuniform List<scalar> 
6820
(
-7.34889
-7.57572
-7.65265
-7.66469
-7.68407
-7.70616
-7.72274
-7.73562
-7.74681
-7.75642
-7.76433
-7.77069
-7.77559
-7.77904
-7.78101
-7.78143
-7.7802
-7.77716
-7.77211
-7.7648
-7.75489
-7.74193
-7.72532
-7.70425
-7.67755
-7.64356
-7.5995
-7.54138
-7.45966
-7.34545
-7.13618
-6.88407
-5.82966
-7.42086
-7.56189
-7.62551
-7.64587
-7.66969
-7.69368
-7.71167
-7.72555
-7.73739
-7.74746
-7.75577
-7.76244
-7.76761
-7.7713
-7.77347
-7.77405
-7.77295
-7.77003
-7.76509
-7.75787
-7.74806
-7.73521
-7.71876
-7.69794
-7.67171
-7.63861
-7.59643
-7.54243
-7.47067
-7.37958
-7.24775
-7.12523
-7.0387
-7.47827
-7.56631
-7.62644
-7.65145
-7.67387
-7.69613
-7.71364
-7.72737
-7.73906
-7.74905
-7.75732
-7.764
-7.76919
-7.77293
-7.77517
-7.77586
-7.7749
-7.77215
-7.76744
-7.76053
-7.7511
-7.73878
-7.72305
-7.70325
-7.6785
-7.64766
-7.60914
-7.56132
-7.50132
-7.43104
-7.34682
-7.29491
-7.28121
-7.51703
-7.57541
-7.62963
-7.65603
-7.67693
-7.69779
-7.71496
-7.72858
-7.74013
-7.75002
-7.75826
-7.76494
-7.77017
-7.77396
-7.7763
-7.77713
-7.77635
-7.77384
-7.76944
-7.76293
-7.75404
-7.74244
-7.7277
-7.70929
-7.68655
-7.65872
-7.62488
-7.58444
-7.53686
-7.48565
-7.43391
-7.41064
-7.42047
-7.54817
-7.588
-7.63389
-7.66016
-7.68007
-7.69969
-7.7164
-7.72985
-7.74125
-7.75105
-7.75927
-7.76598
-7.77128
-7.77518
-7.77767
-7.7787
-7.77818
-7.77601
-7.77204
-7.76609
-7.75794
-7.74731
-7.73388
-7.71727
-7.69707
-7.67288
-7.64439
-7.61186
-7.57619
-7.54144
-7.51292
-7.50911
-7.5386
-7.57429
-7.60179
-7.63956
-7.66485
-7.6839
-7.70223
-7.71831
-7.73153
-7.74275
-7.75244
-7.76063
-7.76738
-7.77276
-7.77681
-7.77949
-7.78078
-7.78059
-7.77885
-7.77542
-7.77017
-7.76293
-7.75348
-7.74163
-7.72714
-7.70983
-7.68963
-7.66674
-7.64194
-7.61691
-7.5956
-7.58345
-7.59221
-7.62902
-7.59645
-7.61575
-7.64649
-7.67011
-7.68822
-7.7053
-7.72065
-7.73357
-7.7446
-7.75417
-7.76233
-7.76912
-7.77461
-7.77882
-7.78174
-7.78333
-7.78355
-7.78231
-7.77953
-7.77511
-7.76892
-7.76084
-7.75076
-7.73861
-7.7244
-7.70833
-7.69092
-7.67327
-7.65733
-7.64659
-7.64569
-7.66194
-7.70022
-7.61556
-7.62942
-7.6543
-7.67585
-7.69293
-7.70884
-7.72342
-7.73596
-7.74678
-7.75622
-7.76434
-7.77119
-7.77681
-7.78121
-7.78441
-7.78636
-7.78704
-7.78639
-7.78435
-7.78086
-7.77585
-7.76927
-7.76111
-7.75142
-7.74039
-7.72838
-7.71611
-7.70481
-7.6964
-7.69376
-7.7005
-7.72115
-7.75876
-7.63233
-7.64255
-7.66268
-7.682
-7.69798
-7.7128
-7.72659
-7.73872
-7.7493
-7.7586
-7.76669
-7.7736
-7.77936
-7.78399
-7.7875
-7.78986
-7.79106
-7.79106
-7.78984
-7.78737
-7.78363
-7.77865
-7.77249
-7.76531
-7.75739
-7.74924
-7.74164
-7.73583
-7.73349
-7.73694
-7.74883
-7.77194
-7.80804
-7.64729
-7.65501
-7.67137
-7.68848
-7.70333
-7.71713
-7.73013
-7.74181
-7.75214
-7.76131
-7.76938
-7.77636
-7.78228
-7.78717
-7.79102
-7.79383
-7.7956
-7.79631
-7.79597
-7.79458
-7.79219
-7.78885
-7.78471
-7.77999
-7.77506
-7.77046
-7.76701
-7.7658
-7.7683
-7.77626
-7.79156
-7.81589
-7.8502
-7.66078
-7.66678
-7.68017
-7.69522
-7.70892
-7.72178
-7.73402
-7.74524
-7.75531
-7.76434
-7.77239
-7.77946
-7.78556
-7.79072
-7.79495
-7.79825
-7.80063
-7.8021
-7.80269
-7.80243
-7.8014
-7.79972
-7.79757
-7.79522
-7.79308
-7.7917
-7.79182
-7.79444
-7.80071
-7.81195
-7.82947
-7.85425
-7.88675
-7.6731
-7.67788
-7.68893
-7.70213
-7.71471
-7.72669
-7.73822
-7.74898
-7.75879
-7.7677
-7.77573
-7.7829
-7.7892
-7.79466
-7.79929
-7.80311
-7.80613
-7.8084
-7.80994
-7.81084
-7.81118
-7.81114
-7.81091
-7.81079
-7.81119
-7.81265
-7.81583
-7.82155
-7.83074
-7.84434
-7.86324
-7.88799
-7.91874
-7.68443
-7.68832
-7.69756
-7.70914
-7.72065
-7.73182
-7.74269
-7.75301
-7.76256
-7.77135
-7.77938
-7.78666
-7.79318
-7.79896
-7.80402
-7.80838
-7.81208
-7.81515
-7.81767
-7.81972
-7.82142
-7.82295
-7.82454
-7.82649
-7.82918
-7.83311
-7.83885
-7.84707
-7.85848
-7.87375
-7.89345
-7.91787
-7.94701
-7.69494
-7.69817
-7.70599
-7.71618
-7.7267
-7.73712
-7.74739
-7.75729
-7.76661
-7.77529
-7.78334
-7.79074
-7.79749
-7.80361
-7.80912
-7.81404
-7.81842
-7.82232
-7.8258
-7.82899
-7.83201
-7.83504
-7.83833
-7.84215
-7.84688
-7.85293
-7.86079
-7.87099
-7.88407
-7.90048
-7.92058
-7.9445
-7.97215
-7.70472
-7.70746
-7.71417
-7.72319
-7.73282
-7.74255
-7.75228
-7.7618
-7.7709
-7.77949
-7.78757
-7.79511
-7.80212
-7.80859
-7.81455
-7.82005
-7.82512
-7.82983
-7.83428
-7.83857
-7.84284
-7.84729
-7.85213
-7.85764
-7.86414
-7.87199
-7.88159
-7.89335
-7.90765
-7.92481
-7.94505
-7.96837
-7.99466
-7.71387
-7.71623
-7.72206
-7.7301
-7.73895
-7.74807
-7.75733
-7.7665
-7.7754
-7.78393
-7.79206
-7.79976
-7.80702
-7.81386
-7.82029
-7.82636
-7.83212
-7.83765
-7.84302
-7.84837
-7.85383
-7.85958
-7.86584
-7.87284
-7.88086
-7.89022
-7.90123
-7.91419
-7.92938
-7.94701
-7.96718
-7.98987
-8.01492
-7.72244
-7.72451
-7.72965
-7.73689
-7.74505
-7.75364
-7.76248
-7.77136
-7.78009
-7.78858
-7.79678
-7.80465
-7.81218
-7.81939
-7.8263
-7.83294
-7.83938
-7.84569
-7.85196
-7.85831
-7.86487
-7.87182
-7.87934
-7.88765
-7.89698
-7.90759
-7.91972
-7.93359
-7.94941
-7.96728
-7.98727
-8.0093
-8.03324
-7.73048
-7.73233
-7.73693
-7.74351
-7.7511
-7.75922
-7.7677
-7.77633
-7.78493
-7.79341
-7.80169
-7.80974
-7.81756
-7.82515
-7.83253
-7.83974
-7.84685
-7.85391
-7.86103
-7.86831
-7.87589
-7.88392
-7.89256
-7.902
-7.91243
-7.92406
-7.93708
-7.95164
-7.96787
-7.98584
-8.00556
-8.02694
-8.04985
-7.73802
-7.7397
-7.74387
-7.74992
-7.75703
-7.76477
-7.77294
-7.78137
-7.78989
-7.79837
-7.80675
-7.81501
-7.82312
-7.83109
-7.83894
-7.84671
-7.85445
-7.86224
-7.87015
-7.8783
-7.88681
-7.8958
-7.90542
-7.91583
-7.92719
-7.93965
-7.95335
-7.9684
-7.98489
-8.00284
-8.02224
-8.04299
-8.06497
-7.74508
-7.74662
-7.75046
-7.7561
-7.76281
-7.77023
-7.77818
-7.78645
-7.79491
-7.80343
-7.81194
-7.82041
-7.82883
-7.83718
-7.84549
-7.85379
-7.86215
-7.87061
-7.87927
-7.88821
-7.89755
-7.90739
-7.91787
-7.92911
-7.94123
-7.95435
-7.96857
-7.98397
-8.00059
-8.01844
-8.03748
-8.05763
-8.07876
-7.75165
-7.75309
-7.75668
-7.762
-7.76841
-7.77558
-7.78335
-7.79153
-7.79996
-7.80855
-7.81721
-7.82591
-7.83462
-7.84335
-7.85211
-7.86094
-7.86987
-7.87897
-7.88832
-7.89798
-7.90806
-7.91866
-7.92987
-7.94179
-7.95454
-7.96818
-7.98279
-7.99842
-8.01508
-8.03277
-8.05144
-8.071
-8.09137
-7.75775
-7.75911
-7.76251
-7.76759
-7.77377
-7.78077
-7.78842
-7.79654
-7.805
-7.81368
-7.82251
-7.83145
-7.84047
-7.84958
-7.85877
-7.86809
-7.87757
-7.88726
-7.89723
-7.90755
-7.91829
-7.92954
-7.94137
-7.95387
-7.96712
-7.98116
-7.99605
-8.01181
-8.02845
-8.04594
-8.06423
-8.08324
-8.10289
-7.76334
-7.76465
-7.76792
-7.77283
-7.77887
-7.78575
-7.79333
-7.80145
-7.80997
-7.81877
-7.82779
-7.83698
-7.84632
-7.8558
-7.86542
-7.8752
-7.88519
-7.89543
-7.90597
-7.91687
-7.92819
-7.94
-7.95236
-7.96533
-7.97897
-7.99332
-8.0084
-8.02422
-8.04078
-8.05804
-8.07595
-8.09445
-8.11345
-7.76841
-7.76968
-7.77288
-7.77769
-7.78364
-7.79047
-7.79805
-7.80621
-7.81482
-7.82378
-7.83301
-7.84247
-7.85212
-7.86196
-7.87199
-7.88222
-7.89269
-7.90342
-7.91447
-7.92589
-7.93771
-7.95
-7.96281
-7.97617
-7.99012
-8.00468
-8.01988
-8.03571
-8.05215
-8.06916
-8.0867
-8.10471
-8.12312
-7.77291
-7.77418
-7.77734
-7.78211
-7.78804
-7.79489
-7.80251
-7.81076
-7.81952
-7.82866
-7.83812
-7.84785
-7.85783
-7.86802
-7.87844
-7.88909
-7.9
-7.91119
-7.9227
-7.93457
-7.94684
-7.95953
-7.9727
-7.98637
-8.00056
-8.01528
-8.03054
-8.04633
-8.06262
-8.07938
-8.09656
-8.11411
-8.13196
-7.77681
-7.77808
-7.78125
-7.78604
-7.79202
-7.79894
-7.80667
-7.81506
-7.82399
-7.83335
-7.84307
-7.85309
-7.86338
-7.87392
-7.88472
-7.89576
-7.90708
-7.91869
-7.93061
-7.94288
-7.95552
-7.96857
-7.98203
-7.99594
-8.01031
-8.02513
-8.04041
-8.05612
-8.07225
-8.08875
-8.10559
-8.12271
-8.14006
-7.78004
-7.78133
-7.78455
-7.78943
-7.79552
-7.80257
-7.81046
-7.81905
-7.8282
-7.83781
-7.8478
-7.85812
-7.86873
-7.87962
-7.89078
-7.9022
-7.91389
-7.92588
-7.93817
-7.95079
-7.96375
-7.97708
-7.99079
-8.00489
-8.01939
-8.03427
-8.04952
-8.06514
-8.08109
-8.09734
-8.11385
-8.13056
-8.14745
-7.78251
-7.78385
-7.78717
-7.7922
-7.79847
-7.80573
-7.81384
-7.82267
-7.83209
-7.84198
-7.85226
-7.8629
-7.87384
-7.88507
-7.89657
-7.90834
-7.92039
-7.93272
-7.94533
-7.95826
-7.9715
-7.98508
-7.99898
-8.01322
-8.0278
-8.04271
-8.05792
-8.07343
-8.0892
-8.1052
-8.12139
-8.13773
-8.15419
-7.78414
-7.78554
-7.78901
-7.79427
-7.8008
-7.80834
-7.81674
-7.82588
-7.8356
-7.84581
-7.85642
-7.86738
-7.87866
-7.89023
-7.90206
-7.91417
-7.92654
-7.93917
-7.95208
-7.96528
-7.97876
-7.99253
-8.00659
-8.02094
-8.03557
-8.05047
-8.06563
-8.08101
-8.0966
-8.11235
-8.12825
-8.14425
-8.16031
-7.7848
-7.78629
-7.78998
-7.79555
-7.80244
-7.81034
-7.81911
-7.82861
-7.83869
-7.84926
-7.86022
-7.87153
-7.88315
-7.89505
-7.90721
-7.91963
-7.9323
-7.94522
-7.95839
-7.97182
-7.9855
-7.99943
-8.01362
-8.02805
-8.04271
-8.05759
-8.07267
-8.08793
-8.10334
-8.11887
-8.13449
-8.15016
-8.16587
-7.78433
-7.78594
-7.78995
-7.79595
-7.8033
-7.81166
-7.82088
-7.83082
-7.84132
-7.85228
-7.86363
-7.8753
-7.88727
-7.8995
-7.91198
-7.9247
-7.93765
-7.95082
-7.96423
-7.97786
-7.99171
-8.00578
-8.02006
-8.03455
-8.04922
-8.06406
-8.07906
-8.09418
-8.10942
-8.12473
-8.14009
-8.15547
-8.17085
-7.78253
-7.78432
-7.78876
-7.79535
-7.80331
-7.81225
-7.82201
-7.83246
-7.84344
-7.85485
-7.8666
-7.87865
-7.89097
-7.90354
-7.91633
-7.92934
-7.94255
-7.95597
-7.96959
-7.9834
-7.99741
-8.0116
-8.02596
-8.04048
-8.05515
-8.06995
-8.08487
-8.09987
-8.11495
-8.13006
-8.14519
-8.1603
-8.17538
-7.77913
-7.78118
-7.78624
-7.79364
-7.80238
-7.81203
-7.82245
-7.83352
-7.84506
-7.85696
-7.86915
-7.88161
-7.89429
-7.90718
-7.92027
-7.93354
-7.94699
-7.96061
-7.97441
-7.98838
-8.0025
-8.01677
-8.03118
-8.04572
-8.06038
-8.07513
-8.08995
-8.10483
-8.11975
-8.13467
-8.14958
-8.16446
-8.17928
-7.77376
-7.7762
-7.78217
-7.7907
-7.80047
-7.81096
-7.82213
-7.83388
-7.84603
-7.85847
-7.87114
-7.88403
-7.8971
-7.91035
-7.92375
-7.93731
-7.95101
-7.96486
-7.97885
-7.99297
-8.00722
-8.02158
-8.03606
-8.05062
-8.06527
-8.07997
-8.09472
-8.1095
-8.12427
-8.13903
-8.15375
-8.16841
-8.18298
-7.76591
-7.76894
-7.77628
-7.78642
-7.79753
-7.80916
-7.82135
-7.83395
-7.84678
-7.85975
-7.87287
-7.88613
-7.89951
-7.91302
-7.92664
-7.94039
-7.95426
-7.96825
-7.98236
-7.99658
-8.0109
-8.02531
-8.0398
-8.05437
-8.06898
-8.08363
-8.09831
-8.11298
-8.12763
-8.14225
-8.1568
-8.17129
-8.18568
-7.75472
-7.75887
-7.76854
-7.7807
-7.79306
-7.80573
-7.81904
-7.8327
-7.84643
-7.86018
-7.87399
-7.88784
-7.90174
-7.91569
-7.92969
-7.94375
-7.95789
-7.97209
-7.98637
-8.00072
-8.01514
-8.02962
-8.04415
-8.05872
-8.07331
-8.08792
-8.10251
-8.11709
-8.13162
-8.14609
-8.16048
-8.17476
-8.18891
-7.7388
-7.74457
-7.75919
-7.77554
-7.79003
-7.80391
-7.8181
-7.83232
-7.84636
-7.86029
-7.87422
-7.88819
-7.90218
-7.91622
-7.93032
-7.94449
-7.95873
-7.97304
-7.98742
-8.00186
-8.01636
-8.0309
-8.04548
-8.06009
-8.0747
-8.0893
-8.10388
-8.11842
-8.1329
-8.14732
-8.16164
-8.17587
-8.19
-7.71731
-7.72401
-7.74249
-7.76219
-7.77991
-7.79727
-7.81454
-7.83113
-7.84698
-7.86234
-7.87738
-7.89215
-7.90674
-7.92119
-7.93558
-7.94993
-7.96428
-7.97864
-7.99302
-8.00743
-8.02187
-8.03634
-8.05082
-8.06531
-8.07979
-8.09425
-8.10868
-8.12306
-8.13737
-8.15159
-8.1657
-8.17967
-8.19348
-7.68423
-7.71917
-7.7482
-7.76378
-7.77721
-7.79293
-7.80913
-7.82461
-7.83966
-7.85467
-7.86968
-7.88462
-7.89948
-7.91429
-7.92909
-7.94388
-7.95865
-7.97343
-7.98822
-8.003
-8.01779
-8.03257
-8.04734
-8.06209
-8.07681
-8.09148
-8.10609
-8.12064
-8.1351
-8.14946
-8.16372
-8.17788
-8.19191
-7.54297
-7.65034
-7.72385
-7.75568
-7.77831
-7.80199
-7.82359
-7.84177
-7.85792
-7.8732
-7.88795
-7.90228
-7.91633
-7.93025
-7.94413
-7.95801
-7.97193
-7.98589
-7.99991
-8.014
-8.02813
-8.04231
-8.05652
-8.07076
-8.08499
-8.09921
-8.11341
-8.12755
-8.14162
-8.15562
-8.1695
-8.18327
-8.1969
-6.99145
-7.0461
-7.92877
-8.4037
-8.45805
-8.48
-8.52907
-8.56948
-8.60181
-8.63418
-8.66734
-8.70055
-8.73398
-8.7678
-8.80197
-8.83639
-8.87094
-8.90552
-8.93999
-8.97421
-9.00804
-9.04135
-9.07399
-9.10585
-9.13679
-9.16668
-9.19541
-9.22286
-9.24891
-9.27345
-9.29635
-9.31752
-9.33684
-9.35418
-9.36943
-9.38246
-9.39314
-9.40132
-9.40688
-9.40963
-9.40942
-9.40608
-9.3994
-9.38918
-9.37523
-9.35731
-9.3352
-9.30868
-9.27751
-9.24148
-9.20036
-9.15398
-9.10216
-9.04477
-8.9817
-8.91288
-8.83831
-8.75799
-8.67199
-8.58042
-8.48342
-8.3812
-8.27401
-8.16216
-8.04603
-7.92604
-7.8027
-7.67657
-7.54825
-7.41838
-7.28765
-7.15669
-7.02615
-6.89655
-6.76833
-6.64172
-6.51673
-6.39306
-6.27003
-6.14648
-6.02073
-5.89052
-5.75299
-5.60471
-5.44177
-5.25996
-5.05506
-4.82317
-4.56118
-4.26718
-3.94088
-3.58397
-3.19979
-2.79404
-2.37131
-1.94199
-1.50085
-1.07994
-0.607712
-0.277338
-7.56137
-7.71925
-8.05802
-8.32676
-8.40027
-8.44303
-8.49926
-8.54594
-8.58299
-8.61835
-8.65364
-8.68846
-8.72306
-8.75774
-8.79254
-8.82742
-8.8623
-8.89709
-8.93169
-8.96598
-8.99983
-9.03312
-9.06572
-9.0975
-9.12835
-9.15814
-9.18675
-9.21407
-9.23998
-9.26437
-9.28712
-9.30813
-9.32728
-9.34445
-9.35953
-9.37237
-9.38286
-9.39084
-9.39619
-9.39872
-9.39829
-9.39471
-9.38779
-9.37734
-9.36314
-9.34497
-9.32263
-9.29587
-9.26448
-9.22825
-9.18695
-9.14042
-9.08849
-9.03102
-8.96791
-8.89912
-8.8246
-8.7444
-8.65857
-8.56722
-8.4705
-8.36862
-8.26182
-8.15041
-8.03476
-7.9153
-7.79253
-7.66699
-7.53928
-7.41003
-7.27988
-7.14949
-7.01944
-6.89026
-6.76235
-6.63592
-6.51096
-6.38711
-6.26369
-6.13951
-6.01288
-5.88155
-5.74267
-5.59285
-5.42823
-5.24471
-5.03817
-4.80484
-4.54176
-4.24716
-3.92082
-3.56452
-3.18152
-2.77748
-2.35665
-1.92962
-1.4899
-1.07244
-0.597479
-0.281822
-7.57051
-7.75386
-7.98443
-8.2344
-8.35412
-8.41493
-8.47377
-8.52474
-8.56597
-8.6039
-8.64095
-8.67713
-8.7127
-8.74806
-8.78333
-8.81852
-8.85359
-8.88848
-8.92311
-8.95738
-8.99116
-9.02434
-9.05682
-9.08846
-9.11915
-9.14877
-9.17721
-9.20435
-9.23007
-9.25428
-9.27684
-9.29766
-9.31661
-9.33358
-9.34844
-9.36107
-9.37134
-9.37911
-9.38422
-9.38652
-9.38585
-9.38203
-9.37486
-9.36415
-9.3497
-9.3313
-9.30871
-9.28173
-9.25013
-9.21371
-9.17226
-9.1256
-9.07358
-9.01607
-8.95297
-8.88423
-8.80983
-8.72979
-8.64417
-8.5531
-8.45671
-8.35521
-8.24885
-8.13793
-8.02282
-7.90394
-7.78177
-7.65686
-7.52978
-7.40115
-7.2716
-7.14174
-7.01216
-6.88334
-6.75567
-6.62932
-6.50424
-6.38007
-6.25608
-6.13108
-6.00337
-5.8707
-5.73026
-5.5787
-5.41225
-5.2269
-5.01867
-4.78393
-4.51986
-4.22483
-3.89871
-3.5433
-3.1618
-2.75976
-2.34115
-1.91664
-1.47868
-1.06468
-0.58782
-0.2858
-7.6009
-7.78309
-7.98262
-8.19464
-8.31937
-8.38831
-8.44953
-8.50419
-8.54932
-8.58972
-8.62842
-8.66583
-8.7023
-8.73825
-8.77392
-8.80934
-8.84452
-8.87944
-8.91402
-8.94819
-8.98183
-9.01485
-9.04714
-9.07858
-9.10906
-9.13847
-9.16669
-9.1936
-9.2191
-9.24308
-9.26542
-9.28601
-9.30473
-9.32147
-9.3361
-9.34849
-9.35852
-9.36604
-9.37091
-9.37296
-9.37204
-9.36795
-9.36053
-9.34957
-9.33487
-9.31622
-9.29341
-9.26621
-9.23443
-9.19784
-9.15626
-9.10951
-9.05744
-8.99992
-8.93687
-8.86823
-8.79399
-8.71416
-8.62882
-8.53808
-8.44208
-8.34102
-8.23515
-8.12477
-8.01025
-7.89199
-7.77047
-7.64622
-7.51979
-7.39179
-7.26282
-7.13349
-7.00433
-6.87582
-6.74829
-6.6219
-6.49657
-6.37191
-6.24716
-6.12113
-5.99211
-5.85787
-5.71563
-5.56212
-5.39365
-5.20635
-4.99635
-4.7602
-4.49523
-4.19992
-3.87425
-3.52001
-3.14032
-2.74062
-2.32456
-1.90287
-1.46704
-1.05662
-0.578644
-0.289332
-7.66345
-7.8243
-7.99369
-8.166
-8.28601
-8.3624
-8.42684
-8.48415
-8.53241
-8.57515
-8.61542
-8.65402
-8.69135
-8.72789
-8.76392
-8.79955
-8.83482
-8.86972
-8.90422
-8.93824
-8.97171
-9.00453
-9.03658
-9.06778
-9.09801
-9.12716
-9.15511
-9.18177
-9.20701
-9.23072
-9.2528
-9.27313
-9.2916
-9.30808
-9.32245
-9.33459
-9.34435
-9.35161
-9.35622
-9.35801
-9.35682
-9.35247
-9.34479
-9.33357
-9.31862
-9.29974
-9.2767
-9.24931
-9.21735
-9.18062
-9.13893
-9.09212
-9.04003
-8.98255
-8.91959
-8.8511
-8.77706
-8.6975
-8.61249
-8.52212
-8.42656
-8.326
-8.22068
-8.1109
-7.997
-7.87941
-7.75857
-7.635
-7.50925
-7.38188
-7.2535
-7.12466
-6.99588
-6.86761
-6.74015
-6.61362
-6.48792
-6.36262
-6.23696
-6.10971
-5.97919
-5.84319
-5.69897
-5.54334
-5.37272
-5.18336
-4.97155
-4.73401
-4.46821
-4.17278
-3.84775
-3.49492
-3.1173
-2.72019
-2.30697
-1.88834
-1.45499
-1.04821
-0.569885
-0.292288
-7.72321
-7.85826
-8.00234
-8.14654
-8.25969
-8.33997
-8.40629
-8.46496
-8.51547
-8.56022
-8.60191
-8.64159
-8.67973
-8.71682
-8.7532
-8.78902
-8.82435
-8.85922
-8.89361
-8.92747
-8.96073
-8.9933
-9.0251
-9.05602
-9.08596
-9.11482
-9.14248
-9.16884
-9.19379
-9.21721
-9.239
-9.25904
-9.27722
-9.29342
-9.30751
-9.31937
-9.32886
-9.33584
-9.34017
-9.34168
-9.34021
-9.3356
-9.32765
-9.31618
-9.30098
-9.28187
-9.25862
-9.23104
-9.19893
-9.16207
-9.12031
-9.07346
-9.0214
-8.96399
-8.90116
-8.83286
-8.75908
-8.67983
-8.59519
-8.50526
-8.41019
-8.31017
-8.20545
-8.0963
-7.98308
-7.86619
-7.74606
-7.6232
-7.49813
-7.3714
-7.24358
-7.11521
-6.98677
-6.85868
-6.73121
-6.60444
-6.47824
-6.35217
-6.22543
-6.09681
-5.96462
-5.82669
-5.68034
-5.52246
-5.34958
-5.1581
-4.94447
-4.70557
-4.43904
-4.14363
-3.81942
-3.46821
-3.0929
-2.69862
-2.28849
-1.87313
-1.44256
-1.03947
-0.561553
-0.294606
-7.77648
-7.88936
-8.01304
-8.13648
-8.24073
-8.32104
-8.38789
-8.44709
-8.49904
-8.54532
-8.58818
-8.62875
-8.66759
-8.70517
-8.74185
-8.77782
-8.81319
-8.848
-8.88225
-8.91592
-8.94894
-8.98124
-9.01275
-9.04336
-9.07298
-9.10151
-9.12885
-9.15489
-9.17951
-9.20261
-9.22409
-9.24381
-9.26168
-9.27757
-9.29136
-9.30292
-9.31211
-9.3188
-9.32283
-9.32405
-9.3223
-9.31741
-9.30919
-9.29746
-9.28203
-9.26269
-9.23924
-9.21149
-9.17924
-9.14229
-9.10047
-9.05362
-9.0016
-8.94431
-8.88165
-8.81358
-8.74009
-8.6612
-8.57698
-8.48753
-8.393
-8.29357
-8.18948
-8.08101
-7.96851
-7.85234
-7.73295
-7.6108
-7.48642
-7.36033
-7.23306
-7.10512
-6.97698
-6.849
-6.72143
-6.59433
-6.46752
-6.34054
-6.21259
-6.08244
-5.94843
-5.80842
-5.65981
-5.49956
-5.32435
-5.13071
-4.91527
-4.67508
-4.40792
-4.11266
-3.78946
-3.44006
-3.06727
-2.67603
-2.26921
-1.8573
-1.42982
-1.03042
-0.553653
-0.296248
-7.82358
-7.91886
-8.02547
-8.13247
-8.22742
-8.30549
-8.37189
-8.43096
-8.48357
-8.53085
-8.57456
-8.61581
-8.65518
-8.69314
-8.73005
-8.76612
-8.80148
-8.8362
-8.87028
-8.90372
-8.93648
-8.96848
-8.99966
-9.02993
-9.05921
-9.08738
-9.11436
-9.14004
-9.16431
-9.18707
-9.20819
-9.22758
-9.24511
-9.26067
-9.27413
-9.28536
-9.29423
-9.3006
-9.30433
-9.30525
-9.30321
-9.29803
-9.28954
-9.27755
-9.26187
-9.24232
-9.21868
-9.19077
-9.15839
-9.12136
-9.07951
-9.03269
-8.98075
-8.92359
-8.86114
-8.79334
-8.72018
-8.6417
-8.55794
-8.46901
-8.37505
-8.27625
-8.17283
-8.06507
-7.9533
-7.83789
-7.71924
-7.59783
-7.47414
-7.34866
-7.22192
-7.09438
-6.96648
-6.83855
-6.7108
-6.58326
-6.45573
-6.32773
-6.19843
-6.06663
-5.93067
-5.78847
-5.63748
-5.47479
-5.2972
-5.10138
-4.88416
-4.64274
-4.37506
-4.0801
-3.75806
-3.41065
-3.04056
-2.65254
-2.24922
-1.84093
-1.41679
-1.02111
-0.54618
-0.297192
-7.86481
-7.94638
-8.03875
-8.13247
-8.21871
-8.29328
-8.35832
-8.41667
-8.4693
-8.51707
-8.5613
-8.603
-8.64274
-8.68096
-8.71801
-8.75411
-8.78942
-8.82399
-8.85788
-8.89106
-8.92352
-8.95519
-8.98602
-9.01592
-9.04481
-9.0726
-9.09919
-9.12448
-9.14837
-9.17074
-9.19149
-9.21051
-9.22767
-9.24287
-9.25598
-9.26686
-9.2754
-9.28144
-9.28483
-9.28544
-9.28309
-9.27761
-9.26884
-9.25659
-9.24067
-9.2209
-9.19708
-9.16902
-9.13653
-9.09944
-9.05758
-9.0108
-8.95896
-8.90197
-8.83975
-8.77225
-8.69946
-8.6214
-8.53814
-8.44976
-8.35641
-8.25827
-8.15555
-8.04853
-7.93752
-7.82287
-7.70498
-7.5843
-7.46129
-7.33642
-7.21017
-7.083
-6.95528
-6.82734
-6.69933
-6.57126
-6.44291
-6.31377
-6.18302
-6.04944
-5.91142
-5.76693
-5.61349
-5.4483
-5.2683
-5.07032
-4.85135
-4.60878
-4.34069
-4.04616
-3.72542
-3.38016
-3.01292
-2.62828
-2.22863
-1.82408
-1.40353
-1.01154
-0.539126
-0.297431
-7.90089
-7.97181
-8.05246
-8.13528
-8.21364
-8.28407
-8.34704
-8.40419
-8.45634
-8.50415
-8.54859
-8.5905
-8.63043
-8.66878
-8.70588
-8.74195
-8.77715
-8.81154
-8.84519
-8.87809
-8.91021
-8.94153
-8.97198
-9.00148
-9.02997
-9.05734
-9.08352
-9.10839
-9.13186
-9.15382
-9.17417
-9.19279
-9.20956
-9.22438
-9.2371
-9.24762
-9.25579
-9.26148
-9.26453
-9.2648
-9.26213
-9.25635
-9.24729
-9.23477
-9.21861
-9.19862
-9.17461
-9.14641
-9.11382
-9.07668
-9.03482
-8.9881
-8.93639
-8.87959
-8.81762
-8.75044
-8.67804
-8.60044
-8.51769
-8.42989
-8.33717
-8.23971
-8.13772
-8.03145
-7.9212
-7.80733
-7.69021
-7.57025
-7.44791
-7.32362
-7.19784
-7.07097
-6.9434
-6.81537
-6.68703
-6.55836
-6.42909
-6.29872
-6.16641
-6.03096
-5.8908
-5.74394
-5.58799
-5.42028
-5.23786
-5.03774
-4.81709
-4.57345
-4.30505
-4.01106
-3.69176
-3.34877
-2.98451
-2.60336
-2.20752
-1.80682
-1.39007
-1.00176
-0.532473
-0.296974
-7.93262
-7.9952
-8.06626
-8.14002
-8.21136
-8.27742
-8.33786
-8.39343
-8.44471
-8.49218
-8.53653
-8.57843
-8.61838
-8.65674
-8.69379
-8.72976
-8.76479
-8.79897
-8.83234
-8.86492
-8.8967
-8.92764
-8.95768
-8.98677
-9.01483
-9.04176
-9.0675
-9.09193
-9.11496
-9.13649
-9.15641
-9.1746
-9.19096
-9.20537
-9.2177
-9.22782
-9.23561
-9.24092
-9.24361
-9.24353
-9.24053
-9.23443
-9.22507
-9.21227
-9.19586
-9.17566
-9.15147
-9.12312
-9.09044
-9.05325
-9.01141
-8.96476
-8.91318
-8.85658
-8.79489
-8.72805
-8.65605
-8.57892
-8.49671
-8.40951
-8.31744
-8.22067
-8.11941
-8.0139
-7.90443
-7.79133
-7.67496
-7.55572
-7.43402
-7.31029
-7.18494
-7.05835
-6.93085
-6.80268
-6.67394
-6.54458
-6.41432
-6.28264
-6.14869
-6.0113
-5.86893
-5.71964
-5.56116
-5.39091
-5.20609
-5.00388
-4.7816
-4.53698
-4.26837
-3.97504
-3.65728
-3.31665
-2.95548
-2.57792
-2.18599
-1.78923
-1.37645
-0.991802
-0.526202
-0.295849
-7.96069
-8.01664
-8.07987
-8.14604
-8.21117
-8.27292
-8.33056
-8.38428
-8.43438
-8.48119
-8.52519
-8.56688
-8.60669
-8.64492
-8.68183
-8.71762
-8.75243
-8.78635
-8.81942
-8.85166
-8.88307
-8.91361
-8.94323
-8.97189
-8.9995
-9.02598
-9.05126
-9.07523
-9.0978
-9.11888
-9.13835
-9.1561
-9.17203
-9.18601
-9.19791
-9.20763
-9.21502
-9.21994
-9.22225
-9.22181
-9.21846
-9.21203
-9.20236
-9.18929
-9.17262
-9.15219
-9.12782
-9.09933
-9.06656
-9.02933
-8.9875
-8.94093
-8.8895
-8.83311
-8.77169
-8.7052
-8.63363
-8.55698
-8.47531
-8.38871
-8.2973
-8.20123
-8.10071
-7.99596
-7.88727
-7.77493
-7.65931
-7.54076
-7.41968
-7.29647
-7.17151
-7.04515
-6.91768
-6.78931
-6.66011
-6.52999
-6.39867
-6.26561
-6.12996
-5.99057
-5.84594
-5.6942
-5.53318
-5.36039
-5.1732
-4.96895
-4.74513
-4.4996
-4.23088
-3.93829
-3.62216
-3.28399
-2.92598
-2.55207
-2.16413
-1.77137
-1.36273
-0.981694
-0.520285
-0.294095
-7.98569
-8.03628
-8.09308
-8.15287
-8.21254
-8.27017
-8.32491
-8.37658
-8.42527
-8.47118
-8.51459
-8.55589
-8.5954
-8.63338
-8.67006
-8.7056
-8.74014
-8.77375
-8.80649
-8.83837
-8.86938
-8.89951
-8.9287
-8.95691
-8.98406
-9.01008
-9.03489
-9.05839
-9.0805
-9.1011
-9.12011
-9.13741
-9.15288
-9.16642
-9.1779
-9.18719
-9.19416
-9.19868
-9.20061
-9.19979
-9.19608
-9.18931
-9.17933
-9.16597
-9.14904
-9.12839
-9.10383
-9.0752
-9.04234
-9.00507
-8.96326
-8.91677
-8.86548
-8.80931
-8.74818
-8.68204
-8.61089
-8.53473
-8.45361
-8.36762
-8.27686
-8.18149
-8.0817
-7.97771
-7.86978
-7.7582
-7.64329
-7.52542
-7.40494
-7.28221
-7.1576
-7.03142
-6.90394
-6.77531
-6.64559
-6.51466
-6.38222
-6.24772
-6.11032
-5.96889
-5.82198
-5.66778
-5.50422
-5.32893
-5.13942
-4.93319
-4.70789
-4.46155
-4.19279
-3.90103
-3.58659
-3.25094
-2.89613
-2.52592
-2.14203
-1.75331
-1.34892
-0.971472
-0.514692
-0.291766
-8.00807
-8.05428
-8.10577
-8.16016
-8.21504
-8.26883
-8.32066
-8.37018
-8.41731
-8.46211
-8.50475
-8.54548
-8.58456
-8.62218
-8.65853
-8.69375
-8.72796
-8.76123
-8.7936
-8.82509
-8.8557
-8.8854
-8.91415
-8.94189
-8.96858
-8.99413
-9.01846
-9.04148
-9.06311
-9.08324
-9.10178
-9.11861
-9.13362
-9.14671
-9.15774
-9.1666
-9.17315
-9.17726
-9.17879
-9.17759
-9.17352
-9.16641
-9.15611
-9.14245
-9.12526
-9.10438
-9.07964
-9.05087
-9.01791
-8.98061
-8.93882
-8.89241
-8.84127
-8.78532
-8.72447
-8.65869
-8.58795
-8.51228
-8.43171
-8.34632
-8.25621
-8.16154
-8.06247
-7.95922
-7.85203
-7.74118
-7.62698
-7.50975
-7.38983
-7.26756
-7.14326
-7.01722
-6.88966
-6.76073
-6.63044
-6.49865
-6.36504
-6.22906
-6.08988
-5.94639
-5.79719
-5.64054
-5.47446
-5.29671
-5.10494
-4.8968
-4.67011
-4.42303
-4.15431
-3.86344
-3.55076
-3.21765
-2.86608
-2.49959
-2.11977
-1.73512
-1.33507
-0.961169
-0.50939
-0.288923
-8.02822
-8.07078
-8.11785
-8.16767
-8.21834
-8.26859
-8.3176
-8.36493
-8.41039
-8.45394
-8.49566
-8.53568
-8.5742
-8.61135
-8.64728
-8.68212
-8.71595
-8.74883
-8.7808
-8.81188
-8.84205
-8.87131
-8.8996
-8.92689
-8.9531
-8.97816
-9.00201
-9.02455
-9.0457
-9.06535
-9.08341
-9.09977
-9.11432
-9.12695
-9.13754
-9.14596
-9.15208
-9.15577
-9.1569
-9.15532
-9.15088
-9.14342
-9.1328
-9.11885
-9.1014
-9.08029
-9.05536
-9.02645
-8.9934
-8.95606
-8.91429
-8.86796
-8.81697
-8.76123
-8.70067
-8.63523
-8.56492
-8.48972
-8.40969
-8.3249
-8.23543
-8.14144
-8.04308
-7.94056
-7.83409
-7.72396
-7.61043
-7.49381
-7.37442
-7.25256
-7.12853
-7.00258
-6.87491
-6.74563
-6.61472
-6.48204
-6.34723
-6.20974
-6.06875
-5.9232
-5.77172
-5.61264
-5.44408
-5.26392
-5.06996
-4.85999
-4.63198
-4.38424
-4.11563
-3.8257
-3.5148
-3.18426
-2.83593
-2.47316
-2.09743
-1.71685
-1.3212
-0.950816
-0.504342
-0.285636
-8.04644
-8.08593
-8.12929
-8.1752
-8.22219
-8.2692
-8.31552
-8.36068
-8.40441
-8.44662
-8.48728
-8.52649
-8.56433
-8.60092
-8.63636
-8.67073
-8.70412
-8.73658
-8.76811
-8.79875
-8.82848
-8.85728
-8.88511
-8.91192
-8.93765
-8.96223
-8.9856
-9.00765
-9.02831
-9.04748
-9.06506
-9.08095
-9.09503
-9.1072
-9.11734
-9.12531
-9.13101
-9.13428
-9.13501
-9.13304
-9.12823
-9.12043
-9.10949
-9.09524
-9.07753
-9.0562
-9.03109
-9.00204
-8.96889
-8.93151
-8.88976
-8.84352
-8.79268
-8.73715
-8.67686
-8.61178
-8.54187
-8.46715
-8.38765
-8.30344
-8.2146
-8.12127
-8.0236
-7.92178
-7.81602
-7.70657
-7.59368
-7.47765
-7.35875
-7.23726
-7.11346
-6.98757
-6.85974
-6.73007
-6.59851
-6.46489
-6.32885
-6.18984
-6.04705
-5.89944
-5.74569
-5.58422
-5.41323
-5.23074
-5.03465
-4.82293
-4.59368
-4.34535
-4.0769
-3.78796
-3.47887
-3.1509
-2.8058
-2.44672
-2.07507
-1.69855
-1.30736
-0.940443
-0.49951
-0.281977
-8.06298
-8.09985
-8.14007
-8.18262
-8.22637
-8.27044
-8.31423
-8.35727
-8.39927
-8.44006
-8.4796
-8.51788
-8.55496
-8.5909
-8.62577
-8.65963
-8.69253
-8.72451
-8.75559
-8.78576
-8.81502
-8.84335
-8.8707
-8.89703
-8.92227
-8.94637
-8.96924
-8.99081
-9.01098
-9.02966
-9.04676
-9.06218
-9.07579
-9.0875
-9.09719
-9.10472
-9.10999
-9.11285
-9.11318
-9.11082
-9.10565
-9.09751
-9.08624
-9.07171
-9.05374
-9.03219
-9.00689
-8.9777
-8.94447
-8.90706
-8.86533
-8.81917
-8.76847
-8.71315
-8.65314
-8.58839
-8.51888
-8.44462
-8.36564
-8.282
-8.19377
-8.10109
-8.00409
-7.90295
-7.79787
-7.68907
-7.57679
-7.4613
-7.34285
-7.22171
-7.0981
-6.97222
-6.8442
-6.7141
-6.58186
-6.44728
-6.31
-6.16945
-6.02486
-5.87521
-5.71923
-5.55542
-5.38207
-5.1973
-4.99918
-4.78578
-4.55537
-4.30653
-4.0383
-3.75036
-3.44309
-3.11767
-2.77577
-2.42037
-2.05276
-1.68028
-1.29355
-0.930077
-0.49486
-0.278021
-8.07804
-8.11266
-8.15019
-8.18985
-8.23073
-8.27216
-8.31358
-8.35458
-8.39486
-8.43421
-8.47256
-8.50985
-8.54609
-8.58131
-8.61554
-8.64883
-8.68119
-8.71266
-8.74324
-8.77293
-8.8017
-8.82954
-8.85641
-8.88224
-8.907
-8.9306
-8.95298
-8.97406
-8.99374
-9.01194
-9.02856
-9.0435
-9.05665
-9.0679
-9.07714
-9.08424
-9.08907
-9.09152
-9.09145
-9.08872
-9.08318
-9.0747
-9.06312
-9.0483
-9.03008
-9.00831
-8.98283
-8.95351
-8.92019
-8.88274
-8.84104
-8.79496
-8.7444
-8.68929
-8.62954
-8.56513
-8.49601
-8.42221
-8.34373
-8.26064
-8.17301
-8.08095
-7.9846
-7.88411
-7.77967
-7.67149
-7.5598
-7.44482
-7.32679
-7.20594
-7.08248
-6.95658
-6.82834
-6.69778
-6.56483
-6.42927
-6.29073
-6.14866
-6.00228
-5.85062
-5.69246
-5.52636
-5.35071
-5.16376
-4.96368
-4.74869
-4.5172
-4.2679
-3.99993
-3.71304
-3.40757
-3.08469
-2.74595
-2.39416
-2.03055
-1.66208
-1.27981
-0.919745
-0.490354
-0.273841
-8.09178
-8.12445
-8.15966
-8.1968
-8.23517
-8.27419
-8.31343
-8.35249
-8.39108
-8.42899
-8.46611
-8.50236
-8.53771
-8.57215
-8.60569
-8.63835
-8.67014
-8.70106
-8.73111
-8.76029
-8.78856
-8.8159
-8.84226
-8.8676
-8.89186
-8.91496
-8.93685
-8.95743
-8.97663
-8.99435
-9.01049
-9.02496
-9.03764
-9.04844
-9.05722
-9.06389
-9.0683
-9.07034
-9.06987
-9.06676
-9.06087
-9.05206
-9.04017
-9.02507
-9.0066
-8.98461
-8.95896
-8.92951
-8.89611
-8.85863
-8.81695
-8.77095
-8.72054
-8.66562
-8.60614
-8.54205
-8.47332
-8.39995
-8.32196
-8.2394
-8.15235
-8.06089
-7.96516
-7.8653
-7.76148
-7.65389
-7.54274
-7.42823
-7.31059
-7.19
-7.06666
-6.9407
-6.8122
-6.68116
-6.54748
-6.41093
-6.27114
-6.12755
-5.97941
-5.82577
-5.66547
-5.49715
-5.31929
-5.13023
-4.92828
-4.71179
-4.4793
-4.2296
-3.96193
-3.67608
-3.37242
-3.05203
-2.7164
-2.36817
-2.00851
-1.644
-1.26615
-0.909469
-0.48596
-0.269507
-8.10435
-8.13531
-8.1685
-8.20345
-8.23958
-8.27644
-8.31366
-8.35088
-8.38785
-8.42434
-8.46022
-8.49539
-8.5298
-8.56342
-8.59623
-8.62822
-8.65939
-8.68973
-8.71923
-8.74787
-8.77561
-8.80244
-8.82829
-8.85313
-8.87688
-8.89949
-8.92088
-8.94097
-8.95968
-8.97692
-8.99258
-9.00658
-9.0188
-9.02914
-9.03749
-9.04372
-9.04772
-9.04935
-9.0485
-9.04501
-9.03877
-9.02963
-9.01744
-9.00206
-8.98335
-8.96115
-8.93534
-8.90576
-8.87228
-8.83477
-8.79311
-8.7472
-8.69692