/*--------------------------------*- C++ -*----------------------------------*\
| =========                 |                                                 |
| \\      /  F ield         | OpenFOAM: The Open Source CFD Toolbox           |
|  \\    /   O peration     | Version:  4.1                                   |
|   \\  /    A nd           | Web:      www.OpenFOAM.org                      |
|    \\/     M anipulation  |                                                 |
\*---------------------------------------------------------------------------*/
FoamFile
{
    version     2.0;
    format      ascii;
    class       surfaceScalarField;
    location    "700";
    object      phi;
}
// * * * * * * * * * * * * * * * * * * * * * * * * * * * * * * * * * * * * * //

dimensions      [0 3 -1 0 0 0 0];

internalField   nonuniform List<scalar> 
13452
(
5.98811e-05
3.8733e-07
5.95252e-05
3.55926e-07
5.92696e-05
2.55569e-07
5.90616e-05
2.08046e-07
5.88794e-05
1.82223e-07
5.87168e-05
1.626e-07
5.85689e-05
1.47826e-07
5.84323e-05
1.36675e-07
5.83046e-05
1.27637e-07
5.81846e-05
1.19995e-07
5.80711e-05
1.13489e-07
5.79632e-05
1.07952e-07
5.786e-05
1.03242e-07
5.77607e-05
9.92597e-08
5.76648e-05
9.59407e-08
5.75715e-05
9.32466e-08
5.74803e-05
9.11614e-08
5.73907e-05
8.96932e-08
5.73018e-05
8.88769e-08
5.7213e-05
8.87802e-08
5.71235e-05
8.95154e-08
5.70322e-05
9.1259e-08
5.69379e-05
9.42881e-08
5.68389e-05
9.90453e-08
5.67326e-05
1.06268e-07
5.66154e-05
1.17243e-07
5.64809e-05
1.34429e-07
5.63184e-05
1.62528e-07
5.61051e-05
2.13325e-07
5.57979e-05
3.0723e-07
5.52689e-05
5.2901e-07
5.42202e-05
1.04864e-06
1.53733e-06
5.26829e-05
6.20749e-05
3.02755e-07
6.19987e-05
4.32093e-07
6.18517e-05
4.02643e-07
6.16885e-05
3.7125e-07
6.15293e-05
3.41353e-07
6.13799e-05
3.12074e-07
6.12403e-05
2.8736e-07
6.11097e-05
2.67348e-07
6.09866e-05
2.50652e-07
6.08702e-05
2.3641e-07
6.07595e-05
2.24191e-07
6.06538e-05
2.13685e-07
6.05524e-05
2.04655e-07
6.04547e-05
1.96937e-07
6.03602e-05
1.90424e-07
6.02684e-05
1.8505e-07
6.01788e-05
1.80789e-07
6.00908e-05
1.77652e-07
6.0004e-05
1.75694e-07
5.99178e-05
1.75023e-07
5.98315e-05
1.75817e-07
5.97444e-05
1.78352e-07
5.96556e-05
1.83051e-07
5.95641e-05
1.90569e-07
5.94684e-05
2.01953e-07
5.93667e-05
2.18895e-07
5.92567e-05
2.44483e-07
5.91356e-05
2.83651e-07
5.90003e-05
3.48625e-07
5.88543e-05
4.53157e-07
5.87211e-05
6.62251e-07
5.87685e-05
1.00123e-06
1.63464e-06
5.86712e-05
6.38373e-05
2.26826e-07
6.38685e-05
4.0094e-07
6.38445e-05
4.26651e-07
6.37851e-05
4.30626e-07
6.37048e-05
4.21634e-07
6.36143e-05
4.02591e-07
6.352e-05
3.81706e-07
6.3425e-05
3.62305e-07
6.3331e-05
3.4466e-07
6.32387e-05
3.28747e-07
6.31483e-05
3.14575e-07
6.30599e-05
3.02066e-07
6.29734e-05
2.91112e-07
6.28887e-05
2.81631e-07
6.28056e-05
2.73573e-07
6.27237e-05
2.66918e-07
6.26428e-05
2.61683e-07
6.25626e-05
2.57923e-07
6.24825e-05
2.55746e-07
6.24022e-05
2.55326e-07
6.23211e-05
2.56927e-07
6.22385e-05
2.60938e-07
6.21536e-05
2.6794e-07
6.20654e-05
2.78797e-07
6.19725e-05
2.94842e-07
6.18733e-05
3.1812e-07
6.17657e-05
3.52099e-07
6.16474e-05
4.01901e-07
6.15178e-05
4.7821e-07
6.13793e-05
5.91654e-07
6.12623e-05
7.79292e-07
6.12309e-05
1.03265e-06
1.47257e-06
6.13929e-05
6.5637e-05
1.72879e-07
6.56889e-05
3.49015e-07
6.57123e-05
4.03333e-07
6.57127e-05
4.3015e-07
6.56932e-05
4.41146e-07
6.56581e-05
4.37713e-07
6.56122e-05
4.27579e-07
6.55592e-05
4.15332e-07
6.55015e-05
4.02399e-07
6.54407e-05
3.89536e-07
6.53779e-05
3.77313e-07
6.5314e-05
3.66049e-07
6.52492e-05
3.55899e-07
6.51838e-05
3.46968e-07
6.51181e-05
3.39343e-07
6.50519e-05
3.33111e-07
6.49852e-05
3.28377e-07
6.49178e-05
3.25276e-07
6.48496e-05
3.23996e-07
6.47801e-05
3.24792e-07
6.4709e-05
3.2802e-07
6.46358e-05
3.34181e-07
6.45597e-05
3.43984e-07
6.44801e-05
3.58449e-07
6.43958e-05
3.79077e-07
6.43059e-05
4.0806e-07
6.42092e-05
4.48815e-07
6.4105e-05
5.0607e-07
6.39952e-05
5.88063e-07
6.38845e-05
7.02323e-07
6.37958e-05
8.67999e-07
6.37543e-05
1.07417e-06
1.36116e-06
6.38657e-05
6.74946e-05
1.35086e-07
6.75432e-05
3.00419e-07
6.7578e-05
3.6854e-07
6.76014e-05
4.06739e-07
6.76127e-05
4.29798e-07
6.7612e-05
4.38445e-07
6.7601e-05
4.38564e-07
6.75817e-05
4.34621e-07
6.75557e-05
4.28369e-07
6.75245e-05
4.20828e-07
6.74889e-05
4.12843e-07
6.745e-05
4.04993e-07
6.74082e-05
3.97651e-07
6.73641e-05
3.91092e-07
6.73179e-05
3.85543e-07
6.72698e-05
3.81208e-07
6.72199e-05
3.78291e-07
6.71682e-05
3.77019e-07
6.71145e-05
3.7766e-07
6.70587e-05
3.80554e-07
6.70006e-05
3.86142e-07
6.69398e-05
3.95011e-07
6.68758e-05
4.07958e-07
6.68082e-05
4.2608e-07
6.67363e-05
4.50911e-07
6.66598e-05
4.84578e-07
6.65785e-05
5.30118e-07
6.64931e-05
5.91439e-07
6.64069e-05
6.74275e-07
6.6326e-05
7.8327e-07
6.62672e-05
9.26779e-07
6.62464e-05
1.09501e-06
1.29328e-06
6.63142e-05
6.94108e-05
1.0829e-07
6.9452e-05
2.59268e-07
6.94866e-05
3.33867e-07
6.95156e-05
3.77818e-07
6.95382e-05
4.07182e-07
6.95533e-05
4.23322e-07
6.95612e-05
4.30667e-07
6.95626e-05
4.33262e-07
6.9558e-05
4.329e-07
6.95483e-05
4.30595e-07
6.95339e-05
4.27216e-07
6.95155e-05
4.23422e-07
6.94934e-05
4.19681e-07
6.94682e-05
4.16357e-07
6.94399e-05
4.13766e-07
6.9409e-05
4.12192e-07
6.93753e-05
4.11915e-07
6.93391e-05
4.13231e-07
6.93003e-05
4.16478e-07
6.92588e-05
4.22059e-07
6.92145e-05
4.30473e-07
6.91671e-05
4.42361e-07
6.91165e-05
4.58555e-07
6.90625e-05
4.80148e-07
6.90048e-05
5.08594e-07
6.89436e-05
5.45786e-07
6.88795e-05
5.94204e-07
6.88142e-05
6.5677e-07
6.87514e-05
7.37067e-07
6.86972e-05
8.37385e-07
6.8664e-05
9.60059e-07
6.86621e-05
1.09689e-06
1.24211e-06
6.87133e-05
7.13857e-05
8.89647e-08
7.14198e-05
2.2514e-07
7.14515e-05
3.02124e-07
7.148e-05
3.49341e-07
7.15051e-05
3.82097e-07
7.15257e-05
4.02741e-07
7.15416e-05
4.14777e-07
7.1553e-05
4.21845e-07
7.15601e-05
4.25784e-07
7.15631e-05
4.27588e-07
7.15622e-05
4.28085e-07
7.15577e-05
4.27931e-07
7.15498e-05
4.27613e-07
7.15386e-05
4.27524e-07
7.15244e-05
4.2801e-07
7.15072e-05
4.29396e-07
7.14871e-05
4.32e-07
7.14642e-05
4.3616e-07
7.14384e-05
4.42249e-07
7.14097e-05
4.50707e-07
7.13782e-05
4.62059e-07
7.13436e-05
4.76956e-07
7.13059e-05
4.96211e-07
7.12652e-05
5.20847e-07
7.12217e-05
5.52144e-07
7.11758e-05
5.9167e-07
7.11287e-05
6.4129e-07
7.10825e-05
7.02967e-07
7.10409e-05
7.78631e-07
7.10094e-05
8.68892e-07
7.09964e-05
9.73085e-07
7.10088e-05
1.08447e-06
1.19516e-06
7.10558e-05
7.34195e-05
7.47291e-08
7.34477e-05
1.96932e-07
7.34762e-05
2.73676e-07
7.35027e-05
3.22792e-07
7.35272e-05
3.57567e-07
7.35489e-05
3.81117e-07
7.35673e-05
3.96349e-07
7.35826e-05
4.06504e-07
7.3595e-05
4.13465e-07
7.36043e-05
4.18262e-07
7.36107e-05
4.217e-07
7.36142e-05
4.24428e-07
7.36148e-05
4.26937e-07
7.36127e-05
4.29625e-07
7.36079e-05
4.32848e-07
7.36004e-05
4.3694e-07
7.35901e-05
4.42234e-07
7.35772e-05
4.49082e-07
7.35616e-05
4.57868e-07
7.35433e-05
4.69038e-07
7.35222e-05
4.8311e-07
7.34985e-05
5.00708e-07
7.34721e-05
5.22579e-07
7.34433e-05
5.49621e-07
7.34126e-05
5.82893e-07
7.33806e-05
6.23594e-07
7.33489e-05
6.73007e-07
7.33196e-05
7.32276e-07
7.32961e-05
8.02158e-07
7.32828e-05
8.82197e-07
7.32854e-05
9.70441e-07
7.33085e-05
1.06141e-06
1.14803e-06
7.33556e-05
7.55132e-05
6.39896e-08
7.55366e-05
1.73567e-07
7.55619e-05
2.48332e-07
7.55864e-05
2.98342e-07
7.56096e-05
3.3438e-07
7.56307e-05
3.59947e-07
7.56495e-05
3.77549e-07
7.5666e-05
3.9002e-07
7.56802e-05
3.99238e-07
7.56922e-05
4.06281e-07
7.5702e-05
4.11955e-07
7.57095e-05
4.16912e-07
7.57148e-05
4.21654e-07
7.57178e-05
4.26587e-07
7.57186e-05
4.3207e-07
7.57171e-05
4.3844e-07
7.57133e-05
4.46034e-07
7.57072e-05
4.55199e-07
7.56987e-05
4.66316e-07
7.56879e-05
4.79811e-07
7.56749e-05
4.96171e-07
7.56596e-05
5.15963e-07
7.56424e-05
5.39836e-07
7.56235e-05
5.68531e-07
7.56035e-05
6.02866e-07
7.55834e-05
6.43683e-07
7.55646e-05
6.91756e-07
7.55493e-05
7.47592e-07
7.55403e-05
8.11175e-07
7.5541e-05
8.81463e-07
7.55554e-05
9.56113e-07
7.55861e-05
1.03072e-06
1.09973e-06
7.56344e-05
7.76679e-05
5.56822e-08
7.76873e-05
1.54109e-07
7.77099e-05
2.25793e-07
7.77324e-05
2.75865e-07
7.77541e-05
3.1263e-07
7.77744e-05
3.39624e-07
7.77929e-05
3.59073e-07
7.78095e-05
3.73419e-07
7.78243e-05
3.84465e-07
7.78372e-05
3.93321e-07
7.78484e-05
4.00799e-07
7.78578e-05
4.07553e-07
7.78653e-05
4.14098e-07
7.7871e-05
4.20852e-07
7.78749e-05
4.28179e-07
7.7877e-05
4.36419e-07
7.78771e-05
4.45902e-07
7.78753e-05
4.56969e-07
7.78717e-05
4.69982e-07
7.78661e-05
4.85335e-07
7.78588e-05
5.03468e-07
7.78499e-05
5.2487e-07
7.78397e-05
5.50077e-07
7.78286e-05
5.79662e-07
7.78172e-05
6.14205e-07
7.78067e-05
6.54231e-07
7.77983e-05
7.00108e-07
7.7794e-05
7.51879e-07
7.77961e-05
8.09065e-07
7.78072e-05
8.70362e-07
7.78299e-05
9.33481e-07
7.78657e-05
9.94934e-07
1.05057e-06
7.79148e-05
7.98849e-05
4.90917e-08
7.99012e-05
1.37774e-07
7.99213e-05
2.05749e-07
7.9942e-05
2.55191e-07
7.99624e-05
2.92238e-07
7.99818e-05
3.202e-07
7.99998e-05
3.4109e-07
8.00162e-05
3.56995e-07
8.00311e-05
3.69598e-07
8.00444e-05
3.80004e-07
8.00561e-05
3.89024e-07
8.00664e-05
3.97308e-07
8.00751e-05
4.0538e-07
8.00823e-05
4.13664e-07
8.00879e-05
4.2253e-07
8.0092e-05
4.32313e-07
8.00946e-05
4.43341e-07
8.00956e-05
4.55937e-07
8.00952e-05
4.70437e-07
8.00933e-05
4.87199e-07
8.00902e-05
5.06603e-07
8.0086e-05
5.29051e-07
8.00811e-05
5.54961e-07
8.0076e-05
5.84744e-07
8.00715e-05
6.18767e-07
8.00684e-05
6.5729e-07
8.00682e-05
7.00376e-07
8.00723e-05
7.47763e-07
8.00826e-05
7.98723e-07
8.01011e-05
8.51902e-07
8.01293e-05
9.05255e-07
8.01682e-05
9.56049e-07
1.00125e-06
8.02175e-05
8.21658e-05
4.37336e-08
8.21797e-05
1.23922e-07
8.21975e-05
1.87889e-07
8.22166e-05
2.36151e-07
8.22357e-05
2.73088e-07
8.22543e-05
3.01632e-07
8.22718e-05
3.23606e-07
8.2288e-05
3.40799e-07
8.23028e-05
3.54738e-07
8.23163e-05
3.66499e-07
8.23285e-05
3.76876e-07
8.23393e-05
3.86509e-07
8.23487e-05
3.95917e-07
8.23569e-05
4.05528e-07
8.23637e-05
4.15708e-07
8.23692e-05
4.2679e-07
8.23735e-05
4.39086e-07
8.23765e-05
4.52901e-07
8.23784e-05
4.68541e-07
8.23793e-05
4.86318e-07
8.23793e-05
5.06548e-07
8.23788e-05
5.29547e-07
8.23782e-05
5.55619e-07
8.23779e-05
5.85027e-07
8.23787e-05
6.17959e-07
8.23815e-05
6.5447e-07
8.23875e-05
6.94411e-07
8.23979e-05
7.37334e-07
8.24142e-05
7.82414e-07
8.24378e-05
8.28366e-07
8.24696e-05
8.73448e-07
8.25101e-05
9.15543e-07
9.52451e-07
8.25589e-05
8.45122e-05
3.92755e-08
8.45241e-05
1.12036e-07
8.45401e-05
1.71917e-07
8.45577e-05
2.1858e-07
8.45757e-05
2.55061e-07
8.45935e-05
2.83851e-07
8.46105e-05
3.06588e-07
8.46265e-05
3.24808e-07
8.46413e-05
3.39876e-07
8.4655e-05
3.52814e-07
8.46675e-05
3.64388e-07
8.46788e-05
3.75216e-07
8.46889e-05
3.85807e-07
8.46979e-05
3.96581e-07
8.47057e-05
4.07897e-07
8.47124e-05
4.20076e-07
8.47181e-05
4.33413e-07
8.47228e-05
4.48188e-07
8.47266e-05
4.64673e-07
8.47298e-05
4.83129e-07
8.47326e-05
5.0381e-07
8.47352e-05
5.26949e-07
8.4738e-05
5.52743e-07
8.47417e-05
5.81334e-07
8.47469e-05
6.12764e-07
8.47545e-05
6.46942e-07
8.47653e-05
6.83578e-07
8.47805e-05
7.22137e-07
8.48011e-05
7.61784e-07
8.48281e-05
8.01367e-07
8.48621e-05
8.39448e-07
8.49033e-05
8.74398e-07
9.04628e-07
8.49511e-05
8.6926e-05
3.54861e-08
8.69363e-05
1.01709e-07
8.69506e-05
1.57555e-07
8.69669e-05
2.02313e-07
8.69839e-05
2.38039e-07
8.7001e-05
2.66779e-07
8.70176e-05
2.89985e-07
8.70334e-05
3.08981e-07
8.70483e-05
3.24973e-07
8.70622e-05
3.3891e-07
8.70751e-05
3.51521e-07
8.70869e-05
3.63396e-07
8.70977e-05
3.75023e-07
8.71075e-05
3.86809e-07
8.71163e-05
3.99098e-07
8.71242e-05
4.12194e-07
8.71312e-05
4.2637e-07
8.71375e-05
4.41878e-07
8.71432e-05
4.5895e-07
8.71486e-05
4.778e-07
8.71538e-05
4.98618e-07
8.71592e-05
5.21561e-07
8.71652e-05
5.46738e-07
8.71723e-05
5.74187e-07
8.71812e-05
6.03846e-07
8.71926e-05
6.3552e-07
8.72074e-05
6.68845e-07
8.72263e-05
7.03256e-07
8.72501e-05
7.37969e-07
8.72795e-05
7.71986e-07
8.73148e-05
8.04143e-07
8.7356e-05
8.33195e-07
8.57996e-07
8.74026e-05
8.94088e-05
3.22007e-08
8.94179e-05
9.26122e-08
8.94309e-05
1.44547e-07
8.94461e-05
1.87187e-07
8.94622e-05
2.21902e-07
8.94786e-05
2.5033e-07
8.94949e-05
2.73738e-07
8.95106e-05
2.93269e-07
8.95256e-05
3.09979e-07
8.95398e-05
3.24735e-07
8.95531e-05
3.38219e-07
8.95655e-05
3.50988e-07
8.9577e-05
3.63503e-07
8.95877e-05
3.76149e-07
8.95975e-05
3.89252e-07
8.96066e-05
4.03093e-07
8.96151e-05
4.1792e-07
8.9623e-05
4.33952e-07
8.96305e-05
4.51382e-07
8.9638e-05
4.70377e-07
8.96455e-05
4.91069e-07
8.96535e-05
5.13549e-07
8.96624e-05
5.37851e-07
8.96727e-05
5.63935e-07
8.96849e-05
5.91664e-07
8.96996e-05
6.20783e-07
8.97175e-05
6.50894e-07
8.97393e-05
6.81447e-07
8.97656e-05
7.11736e-07
8.97966e-05
7.40919e-07
8.98327e-05
7.68066e-07
8.98737e-05
7.92231e-07
8.1259e-07
8.99191e-05
9.19628e-05
2.92995e-08
9.19709e-05
8.44875e-08
9.19828e-05
1.32663e-07
9.19969e-05
1.73043e-07
9.20123e-05
2.06529e-07
9.20282e-05
2.34411e-07
9.20442e-05
2.57778e-07
9.20598e-05
2.77614e-07
9.2075e-05
2.94838e-07
9.20895e-05
3.10231e-07
9.21033e-05
3.24423e-07
9.21163e-05
3.37928e-07
9.21286e-05
3.51177e-07
9.21403e-05
3.6453e-07
9.21512e-05
3.78286e-07
9.21616e-05
3.92703e-07
9.21715e-05
4.07999e-07
9.21811e-05
4.24362e-07
9.21906e-05
4.41944e-07
9.22001e-05
4.60868e-07
9.22099e-05
4.81216e-07
9.22205e-05
5.03022e-07
9.2232e-05
5.26262e-07
9.22451e-05
5.50839e-07
9.22602e-05
5.76568e-07
9.22779e-05
6.03163e-07
9.22985e-05
6.30226e-07
9.23227e-05
6.57246e-07
9.23509e-05
6.83606e-07
9.23832e-05
7.08609e-07
9.24197e-05
7.31521e-07
9.24603e-05
7.51627e-07
7.68336e-07
9.25046e-05
9.45898e-05
2.66928e-08
9.45971e-05
7.71262e-08
9.46081e-05
1.21697e-07
9.46214e-05
1.59723e-07
9.46361e-05
1.91798e-07
9.46516e-05
2.18927e-07
9.46674e-05
2.4203e-07
9.4683e-05
2.61953e-07
9.46984e-05
2.79492e-07
9.47133e-05
2.9534e-07
9.47276e-05
3.10069e-07
9.47414e-05
3.24149e-07
9.47546e-05
3.37977e-07
9.47673e-05
3.51879e-07
9.47794e-05
3.6613e-07
9.47912e-05
3.80958e-07
9.48026e-05
3.96552e-07
9.48139e-05
4.13064e-07
9.48252e-05
4.30615e-07
9.48368e-05
4.49283e-07
9.48489e-05
4.69107e-07
9.48619e-05
4.90077e-07
9.4876e-05
5.12126e-07
9.48917e-05
5.35117e-07
9.49095e-05
5.58841e-07
9.49296e-05
5.83003e-07
9.49526e-05
6.07225e-07
9.49788e-05
6.31047e-07
9.50085e-05
6.53942e-07
9.50417e-05
6.75344e-07
9.50786e-05
6.94677e-07
9.51188e-05
7.11405e-07
7.25104e-07
9.5162e-05
9.72919e-05
2.43114e-08
9.72987e-05
7.03586e-08
9.73089e-05
1.11466e-07
9.73215e-05
1.47076e-07
9.73358e-05
1.77586e-07
9.73509e-05
2.03773e-07
9.73665e-05
2.26409e-07
9.73823e-05
2.46215e-07
9.73979e-05
2.63876e-07
9.74132e-05
2.79999e-07
9.74282e-05
2.95095e-07
9.74428e-05
3.09589e-07
9.74569e-05
3.23836e-07
9.74706e-05
3.38133e-07
9.74841e-05
3.52722e-07
9.74972e-05
3.67801e-07
9.75102e-05
3.8353e-07
9.75233e-05
4.0003e-07
9.75365e-05
4.17385e-07
9.75501e-05
4.3564e-07
9.75644e-05
4.54798e-07
9.75797e-05
4.74815e-07
9.75962e-05
4.95592e-07
9.76144e-05
5.16971e-07
9.76345e-05
5.38733e-07
9.76569e-05
5.60591e-07
9.76819e-05
5.82198e-07
9.77098e-05
6.03151e-07
9.77408e-05
6.2301e-07
9.77748e-05
6.41317e-07
9.78118e-05
6.57628e-07
9.78517e-05
6.71539e-07
6.82754e-07
9.78941e-05
0.000100071
2.21004e-08
0.000100078
6.40448e-08
0.000100087
1.01808e-07
0.000100099
1.34957e-07
0.000100113
1.63768e-07
0.000100128
1.88845e-07
0.000100144
2.10826e-07
0.00010016
2.30322e-07
0.000100176
2.47918e-07
0.000100191
2.64139e-07
0.000100207
2.79435e-07
0.000100222
2.94182e-07
0.000100238
3.08694e-07
0.000100253
3.23233e-07
0.000100267
3.38007e-07
0.000100282
3.53188e-07
0.000100296
3.68902e-07
0.000100311
3.85241e-07
0.000100326
4.0226e-07
0.000100342
4.19974e-07
0.000100359
4.38358e-07
0.000100376
4.57341e-07
0.000100395
4.76807e-07
0.000100415
4.96587e-07
0.000100437
5.16465e-07
0.000100462
5.36172e-07
0.000100489
5.55397e-07
0.000100518
5.73797e-07
0.00010055
5.91006e-07
0.000100585
6.06662e-07
0.000100622
6.20421e-07
0.000100661
6.31986e-07
6.41148e-07
0.000100703
0.00010293
2.0015e-08
0.000102936
5.80668e-08
0.000102945
9.2575e-08
0.000102957
1.23225e-07
0.000102971
1.5022e-07
0.000102985
1.74032e-07
0.000103001
1.95184e-07
0.000103017
2.1419e-07
0.000103034
2.31543e-07
0.00010305
2.47691e-07
0.000103066
2.63023e-07
0.000103083
2.77866e-07
0.000103099
2.92492e-07
0.000103115
3.07124e-07
0.000103131
3.21941e-07
0.000103147
3.37081e-07
0.000103164
3.52644e-07
0.00010318
3.68695e-07
0.000103197
3.8526e-07
0.000103215
4.02331e-07
0.000103233
4.19862e-07
0.000103253
4.37765e-07
0.000103274
4.55913e-07
0.000103296
4.74139e-07
0.00010332
4.92234e-07
0.000103347
5.09956e-07
0.000103375
5.27032e-07
0.000103406
5.43173e-07
0.000103438
5.58081e-07
0.000103474
5.71471e-07
0.000103511
5.83081e-07
0.00010355
5.9269e-07
6.0016e-07
0.000103591
0.000105871
1.80173e-08
0.000105876
5.23227e-08
0.000105885
8.36349e-08
0.000105897
1.11744e-07
0.00010591
1.36815e-07
0.000105925
1.59218e-07
0.000105941
1.79379e-07
0.000105957
1.97725e-07
0.000105974
2.14667e-07
0.000105991
2.30579e-07
0.000106009
2.4579e-07
0.000106026
2.60578e-07
0.000106043
2.75172e-07
0.000106061
2.89758e-07
0.000106078
3.04483e-07
0.000106096
3.19454e-07
0.000106114
3.34746e-07
0.000106132
3.50398e-07
0.000106151
3.66413e-07
0.00010617
3.82766e-07
0.000106191
3.99392e-07
0.000106212
4.16196e-07
0.000106235
4.33048e-07
0.00010626
4.49785e-07
0.000106286
4.66216e-07
0.000106313
4.82124e-07
0.000106343
4.97276e-07
0.000106375
5.11431e-07
0.000106409
5.2435e-07
0.000106444
5.35809e-07
0.000106482
5.45613e-07
0.000106521
5.53599e-07
5.59677e-07
0.000106561
0.000108895
1.60742e-08
0.000108901
4.67218e-08
0.00010891
7.48641e-08
0.000108921
1.00384e-07
0.000108934
1.23426e-07
0.000108949
1.44285e-07
0.000108965
1.63305e-07
0.000108982
1.80832e-07
0.000109
1.97202e-07
0.000109018
2.12723e-07
0.000109036
2.27664e-07
0.000109054
2.42253e-07
0.000109073
2.56679e-07
0.000109091
2.71089e-07
0.00010911
2.85599e-07
0.000109129
3.00287e-07
0.000109149
3.15204e-07
0.000109169
3.30364e-07
0.00010919
3.45756e-07
0.000109211
3.61336e-07
0.000109233
3.77031e-07
0.000109257
3.92742e-07
0.000109282
4.08339e-07
0.000109308
4.23671e-07
0.000109335
4.38564e-07
0.000109365
4.5283e-07
0.000109396
4.66272e-07
0.000109428
4.78692e-07
0.000109463
4.89899e-07
0.000109499
4.99721e-07
0.000109536
5.08012e-07
0.000109575
5.14657e-07
5.196e-07
0.000109616
0.000112006
1.41557e-08
0.000112012
4.11812e-08
0.000112021
6.61458e-08
0.000112032
8.90148e-08
0.000112046
1.09924e-07
0.000112061
1.29109e-07
0.000112077
1.46844e-07
0.000112095
1.63403e-07
0.000112113
1.79053e-07
0.000112131
1.94037e-07
0.000112151
2.08569e-07
0.00011217
2.22828e-07
0.00011219
2.36958e-07
0.00011221
2.51074e-07
0.00011223
2.65259e-07
0.000112251
2.79565e-07
0.000112272
2.94018e-07
0.000112294
3.08615e-07
0.000112316
3.23328e-07
0.000112339
3.38102e-07
0.000112364
3.52861e-07
0.000112389
3.67501e-07
0.000112415
3.81902e-07
0.000112443
3.95923e-07
0.000112472
4.0941e-07
0.000112503
4.22203e-07
0.000112535
4.34136e-07
0.000112569
4.45049e-07
0.000112604
4.54792e-07
0.00011264
4.63234e-07
0.000112678
4.70267e-07
0.000112717
4.75811e-07
4.79837e-07
0.000112756
0.000115206
1.22336e-08
0.000115212
3.56219e-08
0.000115221
5.73661e-08
0.000115232
7.75051e-08
0.000115246
9.61731e-08
0.000115262
1.1356e-07
0.000115279
1.29874e-07
0.000115297
1.45327e-07
0.000115316
1.60119e-07
0.000115335
1.74434e-07
0.000115355
1.88428e-07
0.000115376
2.02234e-07
0.000115397
2.15956e-07
0.000115418
2.29672e-07
0.00011544
2.43436e-07
0.000115462
2.57275e-07
0.000115485
2.71193e-07
0.000115509
2.85172e-07
0.000115533
2.9917e-07
0.000115558
3.13126e-07
0.000115584
3.26958e-07
0.000115611
3.40568e-07
0.000115639
3.53842e-07
0.000115668
3.66653e-07
0.000115698
3.78868e-07
0.00011573
3.9035e-07
0.000115764
4.00962e-07
0.000115798
4.10576e-07
0.000115834
4.19076e-07
0.000115871
4.26362e-07
0.000115908
4.32358e-07
0.000115947
4.37009e-07
4.40304e-07
0.000115987
0.000118498
1.02801e-08
0.000118503
2.99652e-08
0.000118512
4.84097e-08
0.000118524
6.57202e-08
0.000118538
8.20328e-08
0.000118554
9.74967e-08
0.000118572
1.12264e-07
0.000118591
1.26482e-07
0.000118611
1.40291e-07
0.000118631
1.53815e-07
0.000118653
1.67157e-07
0.000118674
1.80402e-07
0.000118697
1.93616e-07
0.00011872
2.06842e-07
0.000118743
2.20105e-07
0.000118767
2.33408e-07
0.000118791
2.46738e-07
0.000118816
2.6006e-07
0.000118842
2.73324e-07
0.000118869
2.86463e-07
0.000118896
2.99395e-07
0.000118925
3.12026e-07
0.000118955
3.24251e-07
0.000118985
3.35959e-07
0.000119017
3.47032e-07
0.00011905
3.57358e-07
0.000119084
3.66823e-07
0.000119119
3.75327e-07
0.000119156
3.8278e-07
0.000119193
3.89109e-07
0.000119231
3.9426e-07
0.00011927
3.98199e-07
4.00926e-07
0.000119309
0.000121883
8.26624e-09
0.000121889
2.41295e-08
0.000121898
3.91555e-08
0.000121911
5.35161e-08
0.000121925
6.73506e-08
0.000121942
8.07695e-08
0.00012196
9.38687e-08
0.00012198
1.06736e-07
0.000122001
1.1945e-07
0.000122023
1.32076e-07
0.000122045
1.44666e-07
0.000122068
1.5726e-07
0.000122092
1.69881e-07
0.000122116
1.82542e-07
0.000122141
1.95239e-07
0.000122167
2.07955e-07
0.000122193
2.20657e-07
0.00012222
2.333e-07
0.000122247
2.45827e-07
0.000122275
2.58165e-07
0.000122305
2.70235e-07
0.000122335
2.81948e-07
0.000122366
2.93209e-07
0.000122398
3.03919e-07
0.000122431
3.1398e-07
0.000122465
3.23295e-07
0.0001225
3.31775e-07
0.000122536
3.39341e-07
0.000122573
3.45923e-07
0.00012261
3.5147e-07
0.000122649
3.55945e-07
0.000122688
3.59328e-07
3.6163e-07
0.000122727
0.000125366
6.16056e-09
0.000125372
1.8025e-08
0.000125381
2.947e-08
0.000125394
4.07338e-08
0.00012541
5.19579e-08
0.000125427
6.3211e-08
0.000125446
7.45309e-08
0.000125467
8.59439e-08
0.000125489
9.74666e-08
0.000125512
1.09106e-07
0.000125536
1.20862e-07
0.000125561
1.32727e-07
0.000125586
1.4469e-07
0.000125612
1.56727e-07
0.000125638
1.68811e-07
0.000125665
1.80903e-07
0.000125693
1.92956e-07
0.000125721
2.04914e-07
0.00012575
2.16712e-07
0.00012578
2.28279e-07
0.000125811
2.39535e-07
0.000125842
2.50398e-07
0.000125875
2.60782e-07
0.000125908
2.70602e-07
0.000125942
2.79772e-07
0.000125977
2.88215e-07
0.000126013
2.95859e-07
0.00012605
3.0264e-07
0.000126087
3.0851e-07
0.000126125
3.1343e-07
0.000126164
3.17378e-07
0.000126203
3.20345e-07
3.22346e-07
0.000126242
0.000128947
3.92664e-09
0.000128954
1.15478e-08
0.000128964
1.91993e-08
0.000128978
2.71913e-08
0.000128994
3.56629e-08
0.000129012
4.46324e-08
0.000129033
5.40723e-08
0.000129055
6.39427e-08
0.000129078
7.41962e-08
0.000129103
8.47794e-08
0.000129128
9.56382e-08
0.000129154
1.0672e-07
0.00012918
1.17975e-07
0.000129208
1.29349e-07
0.000129236
1.4079e-07
0.000129265
1.52239e-07
0.000129294
1.63636e-07
0.000129324
1.74916e-07
0.000129355
1.86009e-07
0.000129386
1.96842e-07
0.000129418
2.0734e-07
0.000129451
2.17426e-07
0.000129485
2.27023e-07
0.000129519
2.36057e-07
0.000129555
2.44456e-07
0.000129591
2.52156e-07
0.000129628
2.59099e-07
0.000129665
2.65238e-07
0.000129703
2.70537e-07
0.000129741
2.74969e-07
0.00012978
2.78523e-07
0.000129819
2.81195e-07
2.83007e-07
0.000129859
0.000132631
1.5199e-09
0.000132638
4.5712e-09
0.000132649
8.15711e-09
0.000132664
1.26712e-08
0.000132681
1.82407e-08
0.000132701
2.48155e-08
0.000132723
3.22894e-08
0.000132746
4.05492e-08
0.000132771
4.94782e-08
0.000132797
5.89587e-08
0.000132824
6.88806e-08
0.000132851
7.91454e-08
0.00013288
8.96641e-08
0.000132909
1.00355e-07
0.000132938
1.11139e-07
0.000132969
1.21943e-07
0.000132999
1.32692e-07
0.000133031
1.43315e-07
0.000133063
1.53736e-07
0.000133096
1.63885e-07
0.00013313
1.73687e-07
0.000133164
1.83073e-07
0.000133199
1.91973e-07
0.000133235
2.00323e-07
0.000133272
2.08063e-07
0.000133309
2.1514e-07
0.000133346
2.2151e-07
0.000133384
2.27135e-07
0.000133423
2.3199e-07
0.000133462
2.36059e-07
0.000133501
2.39335e-07
0.00013354
2.41822e-07
2.43542e-07
0.00013358
0.000136421
-1.11728e-09
0.000136429
-3.06896e-09
0.000136441
-3.89331e-09
0.000136456
-3.09514e-09
0.000136475
-5.79576e-10
0.000136497
3.50229e-09
0.00013652
8.94541e-09
0.000136545
1.55531e-08
0.000136571
2.3131e-08
0.000136599
3.14905e-08
0.000136627
4.04622e-08
0.000136656
4.99001e-08
0.000136686
5.9678e-08
0.000136717
6.96843e-08
0.000136748
7.98189e-08
0.00013678
8.99906e-08
0.000136813
1.00115e-07
0.000136846
1.10112e-07
0.00013688
1.19907e-07
0.000136914
1.29426e-07
0.000136949
1.386e-07
0.000136985
1.47365e-07
0.000137021
1.55658e-07
0.000137058
1.63423e-07
0.000137096
1.70611e-07
0.000137134
1.77179e-07
0.000137172
1.8309e-07
0.000137211
1.88319e-07
0.00013725
1.92846e-07
0.00013729
1.96662e-07
0.000137329
1.99767e-07
0.000137369
2.02167e-07
2.03887e-07
0.000137408
0.000140319
-4.06375e-09
0.000140327
-1.15962e-08
0.000140341
-1.72666e-08
0.000140358
-2.04514e-08
0.000140379
-2.11324e-08
0.000140402
-1.96175e-08
0.000140427
-1.6239e-08
0.000140454
-1.12899e-08
0.000140482
-5.05381e-09
0.000140511
2.20044e-09
0.000140541
1.02398e-08
0.000140572
1.887e-08
0.000140604
2.79276e-08
0.000140637
3.72723e-08
0.00014067
4.67826e-08
0.000140703
5.63529e-08
0.000140737
6.5889e-08
0.000140772
7.5306e-08
0.000140808
8.4526e-08
0.000140844
9.34776e-08
0.00014088
1.02095e-07
0.000140917
1.10318e-07
0.000140955
1.18092e-07
0.000140993
1.25369e-07
0.000141031
1.32106e-07
0.00014107
1.38268e-07
0.000141109
1.43828e-07
0.000141149
1.48766e-07
0.000141189
1.5307e-07
0.000141229
1.56734e-07
0.000141269
1.59761e-07
0.000141309
1.6216e-07
1.63954e-07
0.000141349
0.000144328
-7.43374e-09
0.000144338
-2.13325e-08
0.000144353
-3.23988e-08
0.000144372
-3.98503e-08
0.000144395
-4.38412e-08
0.00014442
-4.49256e-08
0.000144448
-4.35962e-08
0.000144477
-4.02594e-08
0.000144507
-3.53073e-08
0.000144538
-2.91016e-08
0.00014457
-2.19423e-08
0.000144603
-1.40716e-08
0.000144637
-5.68919e-09
0.000144671
3.03726e-09
0.000144706
1.19673e-08
0.000144741
2.09821e-08
0.000144777
2.99799e-08
0.000144814
3.88713e-08
0.000144851
4.7578e-08
0.000144888
5.603e-08
0.000144926
6.4165e-08
0.000144964
7.19277e-08
0.000145003
7.92697e-08
0.000145042
8.6149e-08
0.000145082
9.25304e-08
0.000145122
9.83855e-08
0.000145162
1.03693e-07
0.000145202
1.08438e-07
0.000145243
1.12613e-07
0.000145283
1.16217e-07
0.000145324
1.19254e-07
0.000145364
1.21737e-07
1.23687e-07
0.000145404
0.000148452
-1.14029e-08
0.000148463
-3.27707e-08
0.000148481
-4.99173e-08
0.000148503
-6.18929e-08
0.000148528
-6.92434e-08
0.000148556
-7.29049e-08
0.000148586
-7.35482e-08
0.000148618
-7.17072e-08
0.00014865
-6.79129e-08
0.000148684
-6.26386e-08
0.000148718
-5.62558e-08
0.000148753
-4.90538e-08
0.000148789
-4.12678e-08
0.000148825
-3.30902e-08
0.000148861
-2.46777e-08
0.000148899
-1.61585e-08
0.000148936
-7.64016e-09
0.000148974
7.86562e-10
0.000149013
9.04367e-09
0.000149052
1.7064e-08
0.000149091
2.47893e-08
0.000149131
3.21694e-08
0.000149171
3.91614e-08
0.000149212
4.57293e-08
0.000149252
5.18436e-08
0.000149293
5.74814e-08
0.000149334
6.26261e-08
0.000149375
6.72672e-08
0.000149417
7.14e-08
0.000149458
7.50252e-08
0.000149499
7.81486e-08
0.00014954
8.07791e-08
8.2937e-08
0.000149581
0.000152694
-1.62532e-08
0.000152708
-4.67101e-08
0.000152729
-7.07821e-08
0.000152754
-8.74057e-08
0.000152783
-9.8002e-08
0.000152814
-1.04098e-07
0.000152847
-1.0654e-07
0.000152882
-1.06006e-07
0.000152917
-1.03197e-07
0.000152953
-9.87046e-08
0.00015299
-9.29656e-08
0.000153027
-8.63146e-08
0.000153065
-7.90203e-08
0.000153103
-7.12979e-08
0.000153141
-6.33172e-08
0.000153181
-5.52135e-08
0.00015322
-4.7097e-08
0.00015326
-3.90588e-08
0.0001533
-3.11743e-08
0.000153341
-2.3507e-08
0.000153381
-1.61102e-08
0.000153423
-9.02886e-09
0.000153464
-2.30027e-09
0.000153506
4.045e-09
0.000153548
9.98274e-09
0.00015359
1.54947e-08
0.000153632
2.05683e-08
0.000153674
2.51963e-08
0.000153716
2.93767e-08
0.000153758
3.31125e-08
0.000153799
3.64111e-08
0.000153841
3.92846e-08
4.17516e-08
0.000153882
0.000157058
-2.25046e-08
0.000157075
-6.44537e-08
0.000157101
-9.64182e-08
0.000157131
-1.17642e-07
0.000157165
-1.3124e-07
0.0001572
-1.39441e-07
0.000157237
-1.43258e-07
0.000157274
-1.43622e-07
0.000157313
-1.41477e-07
0.000157351
-1.37526e-07
0.000157391
-1.32251e-07
0.00015743
-1.26015e-07
0.00015747
-1.19108e-07
0.000157511
-1.11757e-07
0.000157552
-1.04133e-07
0.000157593
-9.63723e-08
0.000157634
-8.85837e-08
0.000157676
-8.08547e-08
0.000157718
-7.32569e-08
0.000157761
-6.58492e-08
0.000157803
-5.868e-08
0.000157846
-5.17896e-08
0.000157889
-4.52106e-08
0.000157932
-3.89695e-08
0.000157975
-3.30865e-08
0.000158018
-2.75769e-08
0.000158061
-2.24508e-08
0.000158104
-1.77139e-08
0.000158147
-1.33681e-08
0.000158189
-9.41153e-09
0.000158231
-5.84003e-09
0.000158273
-2.6481e-09
1.78611e-10
0.000158315
0.000161547
-3.13795e-08
0.000161572
-8.86548e-08
0.000161604
-1.2852e-07
0.00016164
-1.53558e-07
0.000161678
-1.70017e-07
0.000161719
-1.80241e-07
0.000161761
-1.85149e-07
0.000161803
-1.86064e-07
0.000161846
-1.84243e-07
0.000161889
-1.80504e-07
0.000161932
-1.7537e-07
0.000161976
-1.69241e-07
0.000162019
-1.62429e-07
0.000162062
-1.55167e-07
0.000162106
-1.47627e-07
0.000162149
-1.39942e-07
0.000162193
-1.32217e-07
0.000162237
-1.24534e-07
0.00016228
-1.16961e-07
0.000162324
-1.09551e-07
0.000162368
-1.02349e-07
0.000162411
-9.53903e-08
0.000162455
-8.87054e-08
0.000162498
-8.23171e-08
0.000162541
-7.62433e-08
0.000162584
-7.04972e-08
0.000162627
-6.50873e-08
0.000162669
-6.0018e-08
0.000162711
-5.52898e-08
0.000162753
-5.08991e-08
0.000162794
-4.68385e-08
0.000162834
-4.30956e-08
-3.96593e-08
0.000162874
0.000166166
-4.41283e-08
0.000166205
-1.26873e-07
0.000166249
-1.73175e-07
0.000166295
-1.99603e-07
0.000166343
-2.17637e-07
0.000166391
-2.28856e-07
0.00016644
-2.34026e-07
0.000166489
-2.34904e-07
0.000166538
-2.32905e-07
0.000166586
-2.28824e-07
0.000166634
-2.23192e-07
0.000166681
-2.16446e-07
0.000166728
-2.08936e-07
0.000166773
-2.0092e-07
0.000166818
-1.92592e-07
0.000166863
-1.84103e-07
0.000166906
-1.75571e-07
0.000166949
-1.6709e-07
0.00016699
-1.58732e-07
0.000167031
-1.50556e-07
0.000167072
-1.42605e-07
0.000167111
-1.34917e-07
0.00016715
-1.27517e-07
0.000167188
-1.20428e-07
0.000167225
-1.13663e-07
0.000167262
-1.07233e-07
0.000167298
-1.01143e-07
0.000167334
-9.53958e-08
0.000167368
-8.99907e-08
0.000167402
-8.49258e-08
0.000167436