/*--------------------------------*- C++ -*----------------------------------*\
| =========                 |                                                 |
| \\      /  F ield         | OpenFOAM: The Open Source CFD Toolbox           |
|  \\    /   O peration     | Version:  4.1                                   |
|   \\  /    A nd           | Web:      www.OpenFOAM.org                      |
|    \\/     M anipulation  |                                                 |
\*---------------------------------------------------------------------------*/
FoamFile
{
    version     2.0;
    format      ascii;
    class       volVectorField;
    location    "700";
    object      U;
}
// * * * * * * * * * * * * * * * * * * * * * * * * * * * * * * * * * * * * * //

dimensions      [0 1 -1 0 0 0 0];

internalField   nonuniform List<vector> 
6820
(
(7.30076 0.0105783 0)
(7.26066 0.0145396 0)
(7.22719 0.0116111 0)
(7.19818 0.00889102 0)
(7.17427 0.00729574 0)
(7.15368 0.00634157 0)
(7.13498 0.00573704 0)
(7.1177 0.00533542 0)
(7.10165 0.00504388 0)
(7.08662 0.00481404 0)
(7.07245 0.00462657 0)
(7.059 0.00447352 0)
(7.04617 0.0043503 0)
(7.03387 0.00425391 0)
(7.02201 0.00418268 0)
(7.01051 0.00413603 0)
(6.99931 0.00411441 0)
(6.98833 0.00411936 0)
(6.97748 0.00415379 0)
(6.96669 0.00422235 0)
(6.95587 0.00433209 0)
(6.94491 0.00449362 0)
(6.93366 0.00472313 0)
(6.92195 0.00504614 0)
(6.90955 0.00550444 0)
(6.89607 0.00617127 0)
(6.88099 0.00718255 0)
(6.86319 0.00881194 0)
(6.84149 0.0116843 0)
(6.80953 0.0171698 0)
(6.77065 0.0286248 0)
(6.65352 0.0702052 0)
(6.64056 -0.0295449 0)
(7.3396 0.0129478 0)
(7.34154 0.0168187 0)
(7.32732 0.0138354 0)
(7.30715 0.0119861 0)
(7.28757 0.0109472 0)
(7.26942 0.0100944 0)
(7.25238 0.00941608 0)
(7.2364 0.00890086 0)
(7.22141 0.00849141 0)
(7.20728 0.0081549 0)
(7.19387 0.00787893 0)
(7.18108 0.00765551 0)
(7.16884 0.00747816 0)
(7.15708 0.0073428 0)
(7.14573 0.00724745 0)
(7.13472 0.00719186 0)
(7.12401 0.00717739 0)
(7.11352 0.00720725 0)
(7.10319 0.00728683 0)
(7.09297 0.00742444 0)
(7.08278 0.00763238 0)
(7.07255 0.00792891 0)
(7.06217 0.00834152 0)
(7.05154 0.00891269 0)
(7.04051 0.00971144 0)
(7.02889 0.010853 0)
(7.01645 0.0125545 0)
(7.00277 0.0151955 0)
(6.98793 0.019753 0)
(6.97022 0.0275601 0)
(6.95541 0.0454062 0)
(6.93811 0.0768195 0)
(6.9798 0.170724 0)
(7.33613 0.0108738 0)
(7.34462 0.017319 0)
(7.34579 0.0178681 0)
(7.34013 0.017876 0)
(7.33147 0.0174209 0)
(7.3215 0.0166008 0)
(7.31079 0.0157889 0)
(7.29983 0.0151084 0)
(7.28892 0.0145399 0)
(7.27819 0.0140619 0)
(7.26768 0.0136649 0)
(7.2574 0.0133404 0)
(7.24735 0.0130817 0)
(7.23751 0.0128851 0)
(7.22786 0.0127495 0)
(7.21838 0.0126758 0)
(7.20903 0.0126675 0)
(7.19977 0.0127302 0)
(7.19057 0.0128733 0)
(7.18136 0.01311 0)
(7.17209 0.0134599 0)
(7.1627 0.013951 0)
(7.15309 0.0146245 0)
(7.14317 0.0155418 0)
(7.1328 0.0167988 0)
(7.1218 0.0185465 0)
(7.10998 0.0210492 0)
(7.09702 0.0247197 0)
(7.08293 0.0304878 0)
(7.06707 0.0394175 0)
(7.05251 0.0555715 0)
(7.03902 0.0798626 0)
(7.05141 0.126448 0)
(7.33465 0.00788192 0)
(7.34191 0.0151061 0)
(7.34712 0.0174386 0)
(7.34828 0.0186814 0)
(7.34686 0.0192115 0)
(7.34371 0.019144 0)
(7.33912 0.0188371 0)
(7.3335 0.018478 0)
(7.32724 0.0181146 0)
(7.32058 0.0177708 0)
(7.31365 0.0174663 0)
(7.30655 0.0172109 0)
(7.29934 0.0170096 0)
(7.29206 0.0168665 0)
(7.28473 0.0167864 0)
(7.27736 0.016775 0)
(7.26993 0.0168401 0)
(7.26244 0.016992 0)
(7.25487 0.017245 0)
(7.24718 0.0176184 0)
(7.23933 0.0181387 0)
(7.23128 0.0188434 0)
(7.22295 0.0197856 0)
(7.21427 0.0210426 0)
(7.20514 0.0227303 0)
(7.19544 0.0250229 0)
(7.18504 0.0282034 0)
(7.17382 0.0326866 0)
(7.16187 0.0392526 0)
(7.14925 0.0487194 0)
(7.13788 0.063316 0)
(7.12871 0.082393 0)
(7.13166 0.110903 0)
(7.334 0.00602306 0)
(7.33938 0.0130411 0)
(7.3447 0.0160207 0)
(7.34793 0.0178416 0)
(7.34964 0.0190432 0)
(7.35019 0.0196398 0)
(7.34955 0.0198832 0)
(7.34785 0.0199618 0)
(7.34535 0.019948 0)
(7.3422 0.0198849 0)
(7.33855 0.0198089 0)
(7.33448 0.019745 0)
(7.33008 0.0197098 0)
(7.32541 0.0197164 0)
(7.32049 0.0197769 0)
(7.31536 0.0199034 0)
(7.31004 0.0201091 0)
(7.30451 0.0204099 0)
(7.29879 0.0208254 0)
(7.29285 0.0213808 0)
(7.28667 0.0221097 0)
(7.28021 0.0230572 0)
(7.27344 0.0242858 0)
(7.26631 0.0258831 0)
(7.25874 0.0279748 0)
(7.25069 0.0307415 0)
(7.24213 0.034454 0)
(7.23304 0.0394838 0)
(7.22367 0.0464216 0)
(7.21434 0.0558378 0)
(7.20645 0.0688477 0)
(7.20127 0.0847948 0)
(7.20294 0.105106 0)
(7.33365 0.00477936 0)
(7.33758 0.0112523 0)
(7.34215 0.0145188 0)
(7.34565 0.0166232 0)
(7.34827 0.018167 0)
(7.35025 0.0191614 0)
(7.35149 0.0197894 0)
(7.35197 0.020221 0)
(7.35178 0.0205288 0)
(7.35101 0.0207543 0)
(7.34972 0.0209359 0)
(7.34798 0.0211036 0)
(7.34583 0.0212794 0)
(7.34332 0.021482 0)
(7.34049 0.0217286 0)
(7.33736 0.0220362 0)
(7.33394 0.0224227 0)
(7.33025 0.0229087 0)
(7.32629 0.0235184 0)
(7.32205 0.0242821 0)
(7.31752 0.0252387 0)
(7.31268 0.0264389 0)
(7.30752 0.0279505 0)
(7.30199 0.029865 0)
(7.29609 0.0323085 0)
(7.28981 0.0354523 0)
(7.28318 0.0395338 0)
(7.2763 0.0448557 0)
(7.26944 0.0518285 0)
(7.26307 0.0608032 0)
(7.25818 0.0722519 0)
(7.25588 0.0856069 0)
(7.25802 0.100738 0)
(7.33343 0.00388598 0)
(7.33634 0.00974685 0)
(7.34013 0.0131338 0)
(7.34338 0.0153827 0)
(7.34607 0.0170865 0)
(7.3484 0.0182996 0)
(7.3503 0.0191631 0)
(7.35171 0.0198283 0)
(7.35265 0.0203669 0)
(7.35316 0.0208179 0)
(7.35327 0.0212165 0)
(7.35299 0.0215923 0)
(7.35235 0.0219685 0)
(7.35136 0.0223655 0)
(7.35006 0.0228025 0)
(7.34844 0.023299 0)
(7.34652 0.023876 0)
(7.34431 0.0245568 0)
(7.34181 0.0253691 0)
(7.33902 0.0263462 0)
(7.33593 0.0275303 0)
(7.33253 0.0289746 0)
(7.32882 0.0307481 0)
(7.3248 0.0329409 0)
(7.32047 0.0356706 0)
(7.31586 0.0390888 0)
(7.31106 0.0433893 0)
(7.30621 0.0487989 0)
(7.30161 0.055579 0)
(7.2977 0.0639098 0)
(7.29521 0.0739118 0)
(7.29494 0.0850899 0)
(7.29775 0.0968756 0)
(7.3333 0.00323071 0)
(7.33548 0.00850021 0)
(7.3386 0.0118905 0)
(7.3415 0.0142128 0)
(7.34402 0.0159979 0)
(7.34631 0.017339 0)
(7.34833 0.0183493 0)
(7.35003 0.0191623 0)
(7.3514 0.0198522 0)
(7.35248 0.0204587 0)
(7.35327 0.0210155 0)
(7.35376 0.0215512 0)
(7.35397 0.0220891 0)
(7.3539 0.0226497 0)
(7.35355 0.0232528 0)
(7.35294 0.023919 0)
(7.35205 0.0246703 0)
(7.35089 0.0255318 0)
(7.34947 0.0265323 0)
(7.34778 0.0277069 0)
(7.34581 0.0290984 0)
(7.34357 0.0307597 0)
(7.34107 0.0327576 0)
(7.33831 0.0351754 0)
(7.33533 0.0381169 0)
(7.33218 0.0417081 0)
(7.32897 0.0460971 0)
(7.32587 0.0514402 0)
(7.32314 0.0578855 0)
(7.32118 0.0654945 0)
(7.3205 0.074214 0)
(7.32165 0.0836239 0)
(7.32503 0.093138 0)
(7.33321 0.00274167 0)
(7.33487 0.00746895 0)
(7.33744 0.0107814 0)
(7.34001 0.0131331 0)
(7.34232 0.0149623 0)
(7.34446 0.0163848 0)
(7.34641 0.0174946 0)
(7.34813 0.0184083 0)
(7.34962 0.0192008 0)
(7.35089 0.0199146 0)
(7.35195 0.020583 0)
(7.35279 0.021235 0)
(7.35341 0.0218942 0)
(7.35382 0.0225815 0)
(7.354 0.0233173 0)
(7.35397 0.0241223 0)
(7.35372 0.0250193 0)
(7.35324 0.0260335 0)
(7.35253 0.0271943 0)
(7.3516 0.0285364 0)
(7.35044 0.0301015 0)
(7.34906 0.03194 0)
(7.34748 0.0341132 0)
(7.34572 0.0366945 0)
(7.34382 0.0397707 0)
(7.34185 0.0434406 0)
(7.33993 0.0478095 0)
(7.33822 0.0529748 0)
(7.33697 0.0590042 0)
(7.33648 0.0658845 0)
(7.33711 0.0734882 0)
(7.33922 0.0814662 0)
(7.34299 0.0893285 0)
(7.33316 0.00236795 0)
(7.33444 0.00661174 0)
(7.33657 0.00979459 0)
(7.33882 0.0121408 0)
(7.34093 0.0139902 0)
(7.34291 0.0154656 0)
(7.34475 0.0166483 0)
(7.34641 0.0176379 0)
(7.34789 0.0185072 0)
(7.3492 0.0193008 0)
(7.35034 0.0200524 0)
(7.35131 0.0207915 0)
(7.35211 0.0215424 0)
(7.35274 0.0223269 0)
(7.35319 0.0231658 0)
(7.35347 0.0240803 0)
(7.35358 0.0250932 0)
(7.3535 0.0262297 0)
(7.35324 0.0275186 0)
(7.35281 0.0289932 0)
(7.3522 0.0306929 0)
(7.35144 0.0326637 0)
(7.35053 0.0349593 0)
(7.34951 0.0376417 0)
(7.34843 0.0407798 0)
(7.34738 0.0444459 0)
(7.34645 0.0487091 0)
(7.34581 0.0536207 0)
(7.34565 0.0591951 0)
(7.3462 0.0653769 0)
(7.34773 0.0720162 0)
(7.35044 0.0788273 0)
(7.35442 0.0854309 0)
(7.33312 0.00207501 0)
(7.33413 0.00589426 0)
(7.3359 0.00891717 0)
(7.33788 0.0112289 0)
(7.3398 0.0130791 0)
(7.34162 0.0145866 0)
(7.34334 0.0158233 0)
(7.34493 0.0168733 0)
(7.34637 0.0178048 0)
(7.34766 0.0186628 0)
(7.34881 0.0194815 0)
(7.34982 0.0202903 0)
(7.3507 0.0211145 0)
(7.35143 0.0219762 0)
(7.35202 0.0228968 0)
(7.35247 0.0238979 0)
(7.35277 0.025002 0)
(7.35294 0.0262338 0)
(7.35296 0.0276211 0)
(7.35286 0.0291951 0)
(7.35262 0.0309916 0)
(7.35228 0.0330511 0)
(7.35186 0.0354192 0)
(7.35139 0.0381455 0)
(7.35093 0.0412818 0)
(7.35056 0.0448773 0)
(7.35038 0.0489716 0)
(7.35052 0.0535827 0)
(7.35114 0.0586919 0)
(7.35241 0.0642234 0)
(7.35451 0.0700305 0)
(7.35757 0.075883 0)
(7.3616 0.0814957 0)
(7.33309 0.00183958 0)
(7.33391 0.00528835 0)
(7.33539 0.00813619 0)
(7.33713 0.0103898 0)
(7.33887 0.0122244 0)
(7.34055 0.0137469 0)
(7.34217 0.0150216 0)
(7.34368 0.0161194 0)
(7.34507 0.0171024 0)
(7.34633 0.0180147 0)
(7.34748 0.0188902 0)
(7.3485 0.019758 0)
(7.34941 0.0206434 0)
(7.35019 0.0215692 0)
(7.35086 0.0225567 0)
(7.35141 0.0236275 0)
(7.35185 0.0248037 0)
(7.35217 0.0261092 0)
(7.35239 0.0275698 0)
(7.35251 0.0292143 0)
(7.35255 0.0310743 0)
(7.35253 0.0331842 0)
(7.35247 0.0355813 0)
(7.35241 0.0383032 0)
(7.35242 0.0413864 0)
(7.35256 0.0448609 0)
(7.35293 0.0487439 0)
(7.35363 0.0530307 0)
(7.35479 0.0576836 0)
(7.35653 0.0626211 0)
(7.35897 0.0677103 0)
(7.36219 0.0727679 0)
(7.36616 0.0775816 0)
(7.33307 0.00164584 0)
(7.33374 0.00477109 0)
(7.335 0.00743903 0)
(7.33653 0.00961639 0)
(7.33811 0.0114209 0)
(7.33967 0.0129436 0)
(7.34118 0.014242 0)
(7.34262 0.0153759 0)
(7.34396 0.0164008 0)
(7.3452 0.0173587 0)
(7.34634 0.0182826 0)
(7.34737 0.019201 0)
(7.3483 0.0201389 0)
(7.34913 0.0211188 0)
(7.34985 0.022162 0)
(7.35048 0.0232895 0)
(7.35102 0.0245226 0)
(7.35147 0.0258838 0)
(7.35184 0.027397 0)
(7.35214 0.0290876 0)
(7.3524 0.0309829 0)
(7.35262 0.0331112 0)
(7.35285 0.0355013 0)
(7.35312 0.0381804 0)
(7.35349 0.0411719 0)
(7.35403 0.0444904 0)
(7.3548 0.0481371 0)
(7.35591 0.0520929 0)
(7.35743 0.0563114 0)
(7.35948 0.0607128 0)
(7.36211 0.0651826 0)
(7.36536 0.0695754 0)
(7.36922 0.0737337 0)
(7.33306 0.00148284 0)
(7.33362 0.00432413 0)
(7.33469 0.00681378 0)
(7.33604 0.00890171 0)
(7.33748 0.0106635 0)
(7.33893 0.0121734 0)
(7.34035 0.0134824 0)
(7.34173 0.0146411 0)
(7.34303 0.0156982 0)
(7.34425 0.0166932 0)
(7.34538 0.0176577 0)
(7.34642 0.0186189 0)
(7.34737 0.0196011 0)
(7.34824 0.0206264 0)
(7.34902 0.0217154 0)
(7.34972 0.0228883 0)
(7.35035 0.0241651 0)
(7.35091 0.0255668 0)
(7.35142 0.0271145 0)
(7.35188 0.0288304 0)
(7.35232 0.0307371 0)
(7.35276 0.0328572 0)
(7.35323 0.0352117 0)
(7.35377 0.0378187 0)
(7.35444 0.0406907 0)
(7.35528 0.0438312 0)
(7.35636 0.0472304 0)
(7.35776 0.050861 0)
(7.35955 0.0546739 0)
(7.36177 0.058596 0)
(7.36449 0.0625307 0)
(7.36772 0.0663637 0)
(7.37142 0.0699773 0)
(7.33305 0.00134287 0)
(7.33353 0.00393285 0)
(7.33445 0.00624942 0)
(7.33565 0.00823875 0)
(7.33696 0.00994704 0)
(7.33831 0.0114328 0)
(7.33966 0.0127403 0)
(7.34098 0.0139128 0)
(7.34224 0.0149926 0)
(7.34344 0.016016 0)
(7.34457 0.0170128 0)
(7.34562 0.0180087 0)
(7.3466 0.0190272 0)
(7.34751 0.0200892 0)
(7.34835 0.0212144 0)
(7.34913 0.0224219 0)
(7.34985 0.0237303 0)
(7.35052 0.0251582 0)
(7.35115 0.0267243 0)
(7.35176 0.0284473 0)
(7.35237 0.0303453 0)
(7.353 0.0324351 0)
(7.35368 0.0347314 0)
(7.35446 0.0372445 0)
(7.35537 0.0399787 0)
(7.35646 0.0429291 0)
(7.35778 0.0460794 0)
(7.3594 0.0493983 0)
(7.36135 0.0528381 0)
(7.36369 0.0563339 0)
(7.36644 0.0598058 0)
(7.3696 0.0631641 0)
(7.37314 0.0663206 0)
(7.33304 0.00122036 0)
(7.33345 0.00358562 0)
(7.33426 0.00573595 0)
(7.33534 0.00762063 0)
(7.33654 0.00926624 0)
(7.3378 0.0107177 0)
(7.33908 0.0120129 0)
(7.34035 0.0131885 0)
(7.34158 0.0142815 0)
(7.34276 0.0153244 0)
(7.34389 0.0163449 0)
(7.34496 0.0173674 0)
(7.34598 0.0184135 0)
(7.34693 0.0195033 0)
(7.34783 0.0206552 0)
(7.34868 0.0218867 0)
(7.34949 0.0232146 0)
(7.35026 0.0246555 0)
(7.35102 0.0262253 0)
(7.35177 0.0279391 0)
(7.35254 0.0298109 0)
(7.35334 0.0318526 0)
(7.35422 0.0340732 0)
(7.35519 0.0364768 0)
(7.35631 0.0390616 0)
(7.3576 0.0418173 0)
(7.35911 0.0447238 0)
(7.36089 0.047749 0)
(7.36297 0.0508487 0)
(7.36537 0.0539667 0)
(7.36811 0.0570376 0)
(7.37119 0.0599908 0)
(7.37458 0.0627602 0)
(7.33304 0.00111123 0)
(7.3334 0.00327309 0)
(7.33411 0.0052644 0)
(7.33509 0.00704062 0)
(7.3362 0.00861587 0)
(7.33738 0.0100239 0)
(7.3386 0.0112967 0)
(7.33982 0.0124655 0)
(7.34103 0.0135621 0)
(7.3422 0.0146155 0)
(7.34334 0.0156511 0)
(7.34443 0.0166914 0)
(7.34548 0.0177566 0)
(7.34648 0.018865 0)
(7.34744 0.0200337 0)
(7.34836 0.0212786 0)
(7.34926 0.0226146 0)
(7.35014 0.0240559 0)
(7.35101 0.0256157 0)
(7.3519 0.0273059 0)
(7.35281 0.0291367 0)
(7.35377 0.0311157 0)
(7.35482 0.0332472 0)
(7.35597 0.0355307 0)
(7.35725 0.03796 0)
(7.35871 0.0405216 0)
(7.36038 0.0431936 0)
(7.36228 0.0459453 0)
(7.36444 0.0487367 0)
(7.36687 0.0515201 0)
(7.36959 0.0542423 0)
(7.37258 0.056848 0)
(7.37581 0.0592871 0)
(7.33304 0.00101234 0)
(7.33335 0.00298774 0)
(7.334 0.00482679 0)
(7.33489 0.00649219 0)
(7.33592 0.00799059 0)
(7.33703 0.00934715 0)
(7.3382 0.0105883 0)
(7.33939 0.0117407 0)
(7.34058 0.0128315 0)
(7.34175 0.0138864 0)
(7.34289 0.0149283 0)
(7.344 0.0159776 0)
(7.34509 0.0170528 0)
(7.34614 0.0181706 0)
(7.34716 0.0193464 0)
(7.34816 0.0205943 0)
(7.34914 0.0219273 0)
(7.35012 0.0233573 0)
(7.35111 0.0248948 0)
(7.35212 0.0265487 0)
(7.35317 0.0283259 0)
(7.35427 0.0302305 0)
(7.35547 0.0322631 0)
(7.35677 0.0344198 0)
(7.3582 0.0366915 0)
(7.3598 0.0390631 0)
(7.36158 0.0415126 0)
(7.36356 0.0440113 0)
(7.36578 0.0465242 0)
(7.36822 0.0490112 0)
(7.3709 0.0514292 0)
(7.3738 0.0537348 0)
(7.3769 0.0558898 0)
(7.33303 0.000921264 0)
(7.33332 0.00272337 0)
(7.33391 0.004416 0)
(7.33473 0.00596904 0)
(7.33569 0.00738504 0)
(7.33676 0.00868268 0)
(7.33788 0.00988366 0)
(7.33904 0.0110105 0)
(7.34021 0.0120865 0)
(7.34138 0.013134 0)
(7.34254 0.0141733 0)
(7.34368 0.0152228 0)
(7.3448 0.016299 0)
(7.3459 0.017417 0)
(7.34698 0.0185902 0)
(7.34805 0.0198311 0)
(7.34912 0.0211505 0)
(7.3502 0.0225582 0)
(7.35129 0.0240623 0)
(7.35241 0.025669 0)
(7.35359 0.0273823 0)
(7.35482 0.0292034 0)
(7.35615 0.0311303 0)
(7.35758 0.0331566 0)
(7.35913 0.0352717 0)
(7.36084 0.0374598 0)
(7.36271 0.0396998 0)
(7.36476 0.0419658 0)
(7.36701 0.0442275 0)
(7.36945 0.0464516 0)
(7.37208 0.0486031 0)
(7.3749 0.0506479 0)
(7.37787 0.0525571 0)
(7.33303 0.000836031 0)
(7.33329 0.00247483 0)
(7.33383 0.00402567 0)
(7.3346 0.00546512 0)
(7.33552 0.00679382 0)
(7.33653 0.00802574 0)
(7.33763 0.00917857 0)
(7.33876 0.0102713 0)
(7.33993 0.0113236 0)
(7.3411 0.0123549 0)
(7.34227 0.0133829 0)
(7.34344 0.0144237 0)
(7.3446 0.0154921 0)
(7.34575 0.016601 0)
(7.34689 0.0177624 0)
(7.34804 0.0189866 0)
(7.34919 0.0202827 0)
(7.35035 0.0216582 0)
(7.35155 0.023119 0)
(7.35278 0.0246692 0)
(7.35406 0.0263103 0)
(7.35541 0.0280413 0)
(7.35685 0.0298582 0)
(7.35839 0.0317531 0)
(7.36004 0.0337147 0)
(7.36184 0.0357272 0)
(7.36378 0.0377714 0)
(7.36588 0.039824 0)
(7.36814 0.0418592 0)
(7.37056 0.0438493 0)
(7.37315 0.0457664 0)
(7.37588 0.0475834 0)
(7.37874 0.0492782 0)
(7.33303 0.000755007 0)
(7.33327 0.0022377 0)
(7.33378 0.00365005 0)
(7.3345 0.00497462 0)
(7.33538 0.00621149 0)
(7.33636 0.00737133 0)
(7.33743 0.00846851 0)
(7.33855 0.00951889 0)
(7.33971 0.0105391 0)
(7.34089 0.0115456 0)
(7.34208 0.0125536 0)
(7.34328 0.0135772 0)
(7.34448 0.014629 0)
(7.34568 0.0157201 0)
(7.34688 0.0168607 0)
(7.3481 0.0180592 0)
(7.34933 0.0193229 0)
(7.35058 0.0206574 0)
(7.35186 0.0220665 0)
(7.35319 0.0235524 0)
(7.35457 0.0251149 0)
(7.35602 0.0267511 0)
(7.35756 0.0284557 0)
(7.35919 0.0302201 0)
(7.36093 0.0320327 0)
(7.36279 0.0338787 0)
(7.36478 0.0357404 0)
(7.36691 0.0375977 0)
(7.36918 0.0394286 0)
(7.37158 0.0412102 0)
(7.37412 0.0429202 0)
(7.37677 0.044537 0)
(7.37953 0.0460438 0)
(7.33303 0.00067679 0)
(7.33326 0.00200812 0)
(7.33374 0.00328388 0)
(7.33443 0.00449191 0)
(7.33528 0.00563258 0)
(7.33624 0.00671428 0)
(7.33729 0.00774869 0)
(7.3384 0.00874896 0)
(7.33956 0.00972894 0)
(7.34076 0.0107023 0)
(7.34197 0.0116821 0)
(7.3432 0.0126801 0)
(7.34444 0.0137068 0)
(7.34569 0.0147718 0)
(7.34695 0.0158832 0)
(7.34823 0.0170477 0)
(7.34953 0.0182707 0)
(7.35086 0.0195563 0)
(7.35223 0.0209066 0)
(7.35365 0.0223221 0)
(7.35512 0.023801 0)
(7.35666 0.0253395 0)
(7.35828 0.0269313 0)
(7.35998 0.0285675 0)
(7.36179 0.0302369 0)
(7.36371 0.0319256 0)
(7.36574 0.033618 0)
(7.36788 0.0352966 0)
(7.37014 0.0369429 0)
(7.37252 0.0385381 0)
(7.375 0.0400643 0)
(7.37758 0.0415044 0)
(7.38024 0.0428454 0)
(7.33303 0.000600132 0)
(7.33325 0.0017826 0)
(7.33371 0.00292221 0)
(7.33438 0.00401148 0)
(7.33521 0.00505154 0)
(7.33615 0.00604923 0)
(7.33719 0.00701406 0)
(7.33831 0.00795679 0)
(7.33948 0.00888875 0)
(7.34068 0.00982119 0)
(7.34192 0.0107647 0)
(7.34319 0.0117291 0)
(7.34447 0.0127229 0)
(7.34577 0.0137538 0)
(7.34709 0.0148281 0)
(7.34843 0.0159509 0)
(7.3498 0.0171262 0)
(7.35121 0.0183561 0)
(7.35265 0.0196417 0)
(7.35414 0.0209818 0)
(7.35569 0.0223739 0)
(7.35731 0.0238131 0)
(7.359 0.0252928 0)
(7.36077 0.0268042 0)
(7.36263 0.0283366 0)
(7.36458 0.0298776 0)
(7.36664 0.0314131 0)
(7.36879 0.0329282 0)
(7.37104 0.0344075 0)
(7.37338 0.0358357 0)
(7.37582 0.0371981 0)
(7.37833 0.0384813 0)
(7.3809 0.0396754 0)
(7.33302 0.00052388 0)
(7.33324 0.00155788 0)
(7.3337 0.0025603 0)
(7.33435 0.00352785 0)
(7.33517 0.00446266 0)
(7.33611 0.00537056 0)
(7.33714 0.00625925 0)
(7.33826 0.00713735 0)
(7.33945 0.00801393 0)
(7.34068 0.0088979 0)
(7.34194 0.00979767 0)
(7.34324 0.0107209 0)
(7.34456 0.0116743 0)
(7.34591 0.0126637 0)
(7.34729 0.0136939 0)
(7.34869 0.0147683 0)
(7.35013 0.0158894 0)
(7.3516 0.0170581 0)
(7.35311 0.018274 0)
(7.35467 0.0195353 0)
(7.35629 0.0208383 0)
(7.35797 0.022178 0)
(7.35972 0.0235474 0)
(7.36154 0.0249381 0)
(7.36344 0.0263402 0)
(7.36543 0.0277425 0)
(7.3675 0.0291328 0)
(7.36965 0.0304984 0)
(7.37188 0.0318264 0)
(7.37419 0.0331043 0)
(7.37658 0.0343203 0)
(7.37902 0.0354637 0)
(7.38151 0.036527 0)
(7.33302 0.000446922 0)
(7.33324 0.00133078 0)
(7.33369 0.00219344 0)
(7.33434 0.00303542 0)
(7.33515 0.00386001 0)
(7.33609 0.00467232 0)
(7.33714 0.0054785 0)
(7.33827 0.00628526 0)
(7.33947 0.00709951 0)
(7.34073 0.00792799 0)
(7.34202 0.00877696 0)
(7.34336 0.00965209 0)
(7.34473 0.0105583 0)
(7.34612 0.0114996 0)
(7.34755 0.0124792 0)
(7.34901 0.0134993 0)
(7.35051 0.0145607 0)
(7.35204 0.0156635 0)
(7.35361 0.0168061 0)
(7.35524 0.017986 0)
(7.35691 0.019199 0)
(7.35865 0.0204397 0)
(7.36044 0.0217013 0)
(7.36231 0.022976 0)
(7.36424 0.0242545 0)
(7.36625 0.0255271 0)
(7.36833 0.0267831 0)
(7.37047 0.0280118 0)
(7.37269 0.0292024 0)
(7.37496 0.0303447 0)
(7.3773 0.0314292 0)
(7.37968 0.0324475 0)
(7.3821 0.0333937 0)
(7.33302 0.000368133 0)
(7.33324 0.00109808 0)
(7.33369 0.00181677 0)
(7.33435 0.00252834 0)
(7.33516 0.00323727 0)
(7.33612 0.00394812 0)
(7.33718 0.00466562 0)
(7.33833 0.00539467 0)
(7.33955 0.00614014 0)
(7.34084 0.00690664 0)
(7.34217 0.00769838 0)
(7.34354 0.0085191 0)
(7.34495 0.0093719 0)
(7.3464 0.0102592 0)
(7.34788 0.0111828 0)
(7.34939 0.0121433 0)
(7.35094 0.0131406 0)
(7.35253 0.0141737 0)
(7.35416 0.0152404 0)
(7.35584 0.0163373 0)
(7.35756 0.01746 0)
(7.35934 0.0186031 0)
(7.36118 0.0197601 0)
(7.36308 0.0209236 0)
(7.36504 0.0220853 0)
(7.36706 0.0232366 0)
(7.36913 0.0243683 0)
(7.37127 0.0254714 0)
(7.37346 0.026537 0)
(7.37571 0.0275566 0)
(7.37799 0.0285227 0)
(7.38032 0.0294286 0)
(7.38267 0.0302697 0)
(7.33302 0.000286316 0)
(7.33325 0.000856345 0)
(7.3337 0.00142508 0)
(7.33437 0.00200026 0)
(7.3352 0.00258756 0)
(7.33617 0.00319098 0)
(7.33726 0.00381383 0)
(7.33843 0.00445921 0)
(7.33969 0.00512997 0)
(7.34101 0.00582864 0)
(7.34238 0.0065574 0)
(7.34379 0.00731809 0)
(7.34525 0.00811209 0)
(7.34674 0.0089403 0)
(7.34827 0.00980298 0)
(7.34983 0.0106997 0)
(7.35143 0.0116294 0)
(7.35307 0.0125901 0)
(7.35475 0.0135788 0)
(7.35648 0.014592 0)
(7.35825 0.0156251 0)
(7.36007 0.0166726 0)
(7.36194 0.0177284 0)
(7.36386 0.0187856 0)
(7.36583 0.0198371 0)
(7.36786 0.0208751 0)
(7.36994 0.0218918 0)
(7.37206 0.0228796 0)
(7.37423 0.0238311 0)
(7.37644 0.0247395 0)
(7.37868 0.0255987 0)
(7.38095 0.0264031 0)
(7.38324 0.0271496 0)
(7.33303 0.000200121 0)
(7.33325 0.000601691 0)
(7.33372 0.00101251 0)
(7.33441 0.00144405 0)
(7.33527 0.00190316 0)
(7.33627 0.00239309 0)
(7.33738 0.00291557 0)
(7.33859 0.00347179 0)
(7.33988 0.00406256 0)
(7.34124 0.00468828 0)
(7.34265 0.00534908 0)
(7.34411 0.00604495 0)
(7.34561 0.00677559 0)
(7.34715 0.00754041 0)
(7.34872 0.00833839 0)
(7.35033 0.00916805 0)
(7.35198 0.0100273 0)
(7.35367 0.0109135 0)
(7.35539 0.0118234 0)
(7.35716 0.0127529 0)
(7.35897 0.0136974 0)
(7.36082 0.0146517 0)
(7.36272 0.01561 0)
(7.36466 0.0165661 0)
(7.36665 0.0175135 0)
(7.36868 0.0184456 0)
(7.37075 0.0193557 0)
(7.37286 0.0202374 0)
(7.375 0.0210846 0)
(7.37718 0.0218917 0)
(7.37938 0.0226537 0)
(7.3816 0.0233664 0)
(7.38383 0.0240272 0)
(7.33303 0.000107938 0)
(7.33327 0.000329509 0)
(7.33376 0.000572107 0)
(7.33448 0.000851381 0)
(7.33537 0.00117518 0)
(7.33641 0.00154555 0)
(7.33756 0.00196229 0)
(7.33881 0.0024245 0)
(7.34015 0.00293078 0)
(7.34155 0.00347928 0)
(7.343 0.00406806 0)
(7.34451 0.00469519 0)
(7.34605 0.00535877 0)
(7.34764 0.00605679 0)
(7.34926 0.00678704 0)
(7.35091 0.00754704 0)
(7.35261 0.00833397 0)
(7.35434 0.00914457 0)
(7.3561 0.00997516 0)
(7.3579 0.0108216 0)
(7.35975 0.0116792 0)
(7.36163 0.0125431 0)
(7.36354 0.0134079 0)
(7.3655 0.0142679 0)
(7.36749 0.0151174 0)
(7.36952 0.0159507 0)
(7.37159 0.0167621 0)
(7.37368 0.0175461 0)
(7.3758 0.0182978 0)
(7.37794 0.0190126 0)
(7.3801 0.0196864 0)
(7.38228 0.0203159 0)
(7.38446 0.0208991 0)
(7.33303 7.73707e-06 0)
(7.33328 3.40152e-05 0)
(7.33381 9.53103e-05 0)
(7.33457 0.000212173 0)
(7.33551 0.000393052 0)
(7.33659 0.000637954 0)
(7.3378 0.000944136 0)
(7.3391 0.00130828 0)
(7.34049 0.00172653 0)
(7.34194 0.00219464 0)
(7.34344 0.00270843 0)
(7.34499 0.00326411 0)
(7.34658 0.00385812 0)
(7.34821 0.00448708 0)
(7.34988 0.00514765 0)
(7.35158 0.00583643 0)
(7.35332 0.00654993 0)
(7.35508 0.00728442 0)
(7.35688 0.00803595 0)
(7.35872 0.00880026 0)
(7.36059 0.00957286 0)
(7.36249 0.010349 0)
(7.36443 0.0111238 0)
(7.3664 0.0118922 0)
(7.36839 0.0126492 0)
(7.37042 0.0133897 0)
(7.37247 0.014109 0)
(7.37455 0.0148025 0)
(7.37665 0.015466 0)
(7.37876 0.0160959 0)
(7.38088 0.0166889 0)
(7.38301 0.0172423 0)
(7.38515 0.0177547 0)
(7.33303 -0.000103196 0)
(7.33331 -0.000292455 0)
(7.33387 -0.000428988 0)
(7.33469 -0.000486257 0)
(7.3357 -0.000456133 0)
(7.33685 -0.000342095 0)
(7.33811 -0.000150332 0)
(7.33948 0.000112872 0)
(7.34092 0.000440727 0)
(7.34242 0.000826212 0)
(7.34398 0.00126285 0)
(7.34558 0.00174495 0)
(7.34722 0.00226744 0)
(7.3489 0.00282568 0)
(7.35061 0.00341529 0)
(7.35235 0.00403211 0)
(7.35413 0.00467206 0)
(7.35593 0.00533102 0)
(7.35776 0.00600483 0)
(7.35963 0.00668921 0)
(7.36152 0.00737978 0)
(7.36344 0.00807209 0)
(7.36539 0.00876161 0)
(7.36737 0.00944384 0)
(7.36937 0.0101143 0)
(7.37139 0.0107688 0)
(7.37344 0.0114031 0)
(7.3755 0.0120135 0)
(7.37757 0.0125966 0)
(7.37965 0.0131492 0)
(7.38174 0.0136687 0)
(7.38384 0.014153 0)
(7.38592 0.014601 0)
(7.33303 -0.000228702 0)
(7.33334 -0.000660627 0)
(7.33397 -0.00101577 0)
(7.33486 -0.00126021 0)
(7.33595 -0.00138848 0)
(7.33718 -0.00141001 0)
(7.33852 -0.00133528 0)
(7.33996 -0.00117382 0)
(7.34147 -0.000935966 0)
(7.34303 -0.000632196 0)
(7.34465 -0.000271805 0)
(7.3463 0.000137375 0)
(7.34799 0.000588604 0)
(7.34972 0.00107594 0)
(7.35147 0.00159408 0)
(7.35326 0.0021382 0)
(7.35507 0.0027038 0)
(7.35691 0.00328657 0)
(7.35877 0.00388229 0)
(7.36066 0.00448679 0)
(7.36257 0.00509594 0)
(7.36451 0.0057056 0)
(7.36648 0.00631171 0)
(7.36846 0.00691028 0)
(7.37046 0.00749745 0)
(7.37248 0.00806952 0)
(7.37451 0.00862304 0)
(7.37656 0.00915483 0)
(7.37861 0.00966205 0)
(7.38067 0.0101422 0)
(7.38273 0.0105932 0)
(7.38479 0.0110134 0)
(7.38684 0.011402 0)
(7.33304 -0.000374509 0)
(7.33339 -0.00108639 0)
(7.3341 -0.00168642 0)
(7.33511 -0.00213129 0)
(7.3363 -0.00242335 0)
(7.33762 -0.00258321 0)
(7.33906 -0.00262769 0)
(7.34058 -0.00257008 0)
(7.34217 -0.00242428 0)
(7.3438 -0.00220393 0)
(7.34548 -0.00192067 0)
(7.34719 -0.00158422 0)
(7.34894 -0.00120288 0)
(7.35071 -0.000783949 0)
(7.35251 -0.00033376 0)
(7.35433 0.000142085 0)
(7.35618 0.00063853 0)
(7.35805 0.00115091 0)
(7.35994 0.00167486 0)
(7.36185 0.00220622 0)
(7.36379 0.002741 0)
(7.36574 0.00327536 0)
(7.36772 0.00380562 0)
(7.3697 0.00432823 0)
(7.37171 0.00483985 0)
(7.37372 0.00533733 0)
(7.37575 0.00581777 0)
(7.37778 0.00627854 0)
(7.37982 0.00671731 0)
(7.38185 0.00713206 0)
(7.38389 0.00752108 0)
(7.38591 0.00788294 0)
(7.38793 0.00821702 0)
(7.33305 -0.00054973 0)
(7.33346 -0.00159378 0)
(7.3343 -0.00247216 0)
(7.33545 -0.00313197 0)
(7.33678 -0.00359028 0)
(7.33823 -0.00388211 0)
(7.33977 -0.00403274 0)
(7.34139 -0.00406369 0)
(7.34307 -0.00399682 0)
(7.34478 -0.0038511 0)
(7.34653 -0.00364098 0)
(7.34831 -0.00337763 0)
(7.35011 -0.00307026 0)
(7.35194 -0.00272655 0)
(7.35378 -0.00235295 0)
(7.35565 -0.00195498 0)
(7.35753 -0.00153752 0)
(7.35944 -0.001105 0)
(7.36136 -0.000661536 0)
(7.3633 -0.000210972 0)
(7.36526 0.000243041 0)
(7.36723 0.000697031 0)
(7.36921 0.0011477 0)
(7.37121 0.00159192 0)
(7.37322 0.00202678 0)
(7.37523 0.00244955 0)
(7.37725 0.00285777 0)
(7.37927 0.0032492 0)
(7.38129 0.00362191 0)
(7.38331 0.00397425 0)
(7.38532 0.00430487 0)
(7.38731 0.00461274 0)
(7.3893 0.00489757 0)
(7.33306 -0.000771285 0)
(7.33358 -0.00222284 0)
(7.3346 -0.00340958 0)
(7.33596 -0.0042934 0)
(7.33747 -0.00493689 0)
(7.33908 -0.00538835 0)
(7.34076 -0.00566798 0)
(7.3425 -0.00579864 0)
(7.34428 -0.00580974 0)
(7.34608 -0.00572714 0)
(7.3479 -0.00557015 0)
(7.34975 -0.00535394 0)
(7.35161 -0.00509106 0)
(7.35349 -0.00479172 0)
(7.35539 -0.00446402 0)
(7.3573 -0.0041145 0)
(7.35923 -0.00374858 0)
(7.36118 -0.00337084 0)
(7.36314 -0.00298527 0)
(7.36511 -0.00259537 0)
(7.36709 -0.00220432 0)
(7.36908 -0.00181504 0)
(7.37108 -0.00143019 0)
(7.37309 -0.00105226 0)
(7.3751 -0.00068354 0)
(7.37711 -0.000326119 0)
(7.37912 1.81067e-05 0)
(7.38113 0.000347444 0)
(7.38313 0.000660404 0)
(7.38512 0.0009557 0)
(7.3871 0.00123223 0)
(7.38907 0.001489 0)
(7.39102 0.00172554 0)
(7.33308 -0.00106776 0)
(7.33378 -0.00307167 0)
(7.3351 -0.00459073 0)
(7.33672 -0.00561659 0)
(7.33844 -0.00633297 0)
(7.34025 -0.00685 0)
(7.34213 -0.00720268 0)
(7.34405 -0.00741875 0)
(7.34599 -0.00752873 0)
(7.34793 -0.0075551 0)
(7.34989 -0.00751237 0)
(7.35185 -0.00741176 0)
(7.35381 -0.00726304 0)
(7.35578 -0.00707451 0)
(7.35775 -0.00685309 0)
(7.35973 -0.00660476 0)
(7.36171 -0.00633476 0)
(7.36369 -0.0060478 0)
(7.36568 -0.00574806 0)
(7.36766 -0.00543934 0)
(7.36964 -0.00512507 0)
(7.37162 -0.00480839 0)
(7.3736 -0.00449214 0)
(7.37557 -0.00417893 0)
(7.37754 -0.00387108 0)
(7.37949 -0.0035707 0)
(7.38143 -0.00327965 0)
(7.38336 -0.00299955 0)
(7.38527 -0.00273178 0)
(7.38717 -0.00247747 0)
(7.38904 -0.00223751 0)
(7.39089 -0.00201248 0)
(7.39271 -0.0018025 0)
(7.3331 -0.00144893 0)
(7.33415 -0.00421092 0)
(7.33606 -0.00631839 0)
(7.33822 -0.00777248 0)
(7.34031 -0.00875865 0)
(7.34241 -0.00938614 0)
(7.34456 -0.00973288 0)
(7.34672 -0.00988139 0)
(7.34888 -0.00989849 0)
(7.35102 -0.00982653 0)
(7.35314 -0.00969246 0)
(7.35524 -0.00951538 0)
(7.35731 -0.00930872 0)
(7.35935 -0.00908134 0)
(7.36135 -0.00883909 0)
(7.36332 -0.00858601 0)
(7.36525 -0.00832511 0)
(7.36714 -0.0080587 0)
(7.369 -0.00778873 0)
(7.37083 -0.00751687 0)
(7.37262 -0.00724472 0)
(7.37438 -0.0069738 0)
(7.37611 -0.00670554 0)
(7.37781 -0.00644137 0)
(7.37948 -0.00618262 0)
(7.38111 -0.00593056 0)
(7.38272 -0.00568637 0)
(7.3843 -0.00545114 0)
(7.38584 -0.00522585 0)
(7.38736 -0.00501143 0)
(7.38885 -0.00480871 0)
(7.3903 -0.00461858 0)
(7.39173 -0.00444168 0)
(7.33311 -0.00228486 0)
(7.33485 -0.00521638 0)
(7.33794 -0.00688439 0)
(7.34136 -0.00825846 0)
(7.34467 -0.00955082 0)
(7.34786 -0.0106216 0)
(7.35087 -0.0114289 0)
(7.35361 -0.0120201 0)
(7.35608 -0.0124358 0)
(7.35829 -0.0126973 0)
(7.36026 -0.012825 0)
(7.36201 -0.012842 0)
(7.36356 -0.0127699 0)
(7.36493 -0.0126268 0)
(7.36614 -0.0124278 0)
(7.36721 -0.0121857 0)
(7.36816 -0.0119111 0)
(7.36901 -0.011613 0)
(7.36978 -0.0112984 0)
(7.37047 -0.0109733 0)
(7.37109 -0.0106425 0)
(7.37167 -0.0103101 0)
(7.37219 -0.00997918 0)
(7.37268 -0.0096525 0)
(7.37314 -0.00933219 0)
(7.37358 -0.00902 0)
(7.37399 -0.00871733 0)
(7.37438 -0.00842527 0)
(7.37475 -0.00814468 0)
(7.37511 -0.00787613 0)
(7.37546 -0.00762001 0)
(7.37579 -0.00737649 0)
(7.37611 -0.00714544 0)
(7.3363 -0.00651808 0)
(7.34557 -0.0134892 0)
(7.35343 -0.0156906 0)
(7.35888 -0.016196 0)
(7.36267 -0.0161614 0)
(7.36523 -0.0157487 0)
(7.36658 -0.0150874 0)
(7.36684 -0.0143437 0)
(7.36622 -0.0136108 0)
(7.36492 -0.0129166 0)
(7.36312 -0.0122681 0)
(7.36092 -0.0116676 0)
(7.35845 -0.0111144 0)
(7.35579 -0.0106043 0)
(7.35301 -0.0101324 0)
(7.35016 -0.0096938 0)
(7.34731 -0.00928447 0)
(7.34446 -0.00890083 0)
(7.34166 -0.00853995 0)
(7.33892 -0.00819945 0)
(7.33625 -0.00787747 0)
(7.33367 -0.00757255 0)
(7.33119 -0.00728355 0)
(7.32879 -0.00700962 0)
(7.3265 -0.00675006 0)
(7.32431 -0.00650434 0)
(7.32221 -0.00627202 0)
(7.32021 -0.00605271 0)
(7.31831 -0.00584603 0)
(7.31649 -0.00565158 0)
(7.31477 -0.00546882 0)
(7.31313 -0.00529711 0)
(7.31158 -0.00513499 0)
(7.32508 -0.00547036 0)
(7.31334 -0.0121267 0)
(7.29926 -0.0150455 0)
(7.28288 -0.0161359 0)
(7.2668 -0.0163163 0)
(7.25209 -0.0158811 0)
(7.23864 -0.0150422 0)
(7.22629 -0.0139993 0)
(7.21502 -0.012888 0)
(7.20479 -0.0117827 0)
(7.1955 -0.0107244 0)
(7.18706 -0.00973626 0)
(7.17937 -0.00882952 0)
(7.17235 -0.00800694 0)