/*--------------------------------*- C++ -*----------------------------------*\
| =========                 |                                                 |
| \\      /  F ield         | OpenFOAM: The Open Source CFD Toolbox           |
|  \\    /   O peration     | Version:  4.1                                   |
|   \\  /    A nd           | Web:      www.OpenFOAM.org                      |
|    \\/     M anipulation  |                                                 |
\*---------------------------------------------------------------------------*/
FoamFile
{
    version     2.0;
    format      ascii;
    class       volScalarField;
    location    "1600";
    object      p;
}
// * * * * * * * * * * * * * * * * * * * * * * * * * * * * * * * * * * * * * //

dimensions      [0 2 -2 0 0 0 0];

internalField   nonuniform List<scalar> 
6820
(
-6.86403
-7.09087
-7.16778
-7.17981
-7.19917
-7.22124
-7.2378
-7.25064
-7.26179
-7.27136
-7.27923
-7.28553
-7.29037
-7.29376
-7.29567
-7.29601
-7.29469
-7.29155
-7.28641
-7.27899
-7.26895
-7.25586
-7.23911
-7.21788
-7.19101
-7.15682
-7.11255
-7.0542
-6.97222
-6.85771
-6.64809
-6.39557
-5.34071
-6.93601
-7.07703
-7.14064
-7.16099
-7.18479
-7.20875
-7.22672
-7.24057
-7.25237
-7.2624
-7.27066
-7.27728
-7.2824
-7.28602
-7.28811
-7.28862
-7.28744
-7.28442
-7.27938
-7.27205
-7.26211
-7.24913
-7.23254
-7.21156
-7.18515
-7.15187
-7.10947
-7.05523
-6.98322
-6.89183
-6.75966
-6.63674
-6.54972
-6.99342
-7.08145
-7.14157
-7.16657
-7.18897
-7.21121
-7.22869
-7.24239
-7.25404
-7.26399
-7.27221
-7.27884
-7.28398
-7.28765
-7.28982
-7.29043
-7.28939
-7.28655
-7.28174
-7.27471
-7.26517
-7.25272
-7.23684
-7.21688
-7.19196
-7.16093
-7.12221
-7.07416
-7.01391
-6.94335
-6.85881
-6.80654
-6.79247
-7.03217
-7.09055
-7.14477
-7.17115
-7.19203
-7.21287
-7.23001
-7.24361
-7.25512
-7.26497
-7.27316
-7.27979
-7.28496
-7.28869
-7.29096
-7.29171
-7.29085
-7.28825
-7.28374
-7.27712
-7.26812
-7.25639
-7.24151
-7.22294
-7.20004
-7.17202
-7.13798
-7.09732
-7.0495
-6.99802
-6.946
-6.92242
-6.93192
-7.06332
-7.10314
-7.14903
-7.17528
-7.19518
-7.21477
-7.23145
-7.24488
-7.25624
-7.266
-7.27417
-7.28083
-7.28607
-7.28992
-7.29234
-7.29329
-7.29269
-7.29043
-7.28636
-7.28031
-7.27204
-7.26128
-7.24771
-7.23096
-7.21059
-7.18622
-7.15754
-7.1248
-7.0889
-7.0539
-7.02512
-7.02104
-7.05025
-7.08944
-7.11694
-7.15471
-7.17998
-7.19901
-7.21732
-7.23337
-7.24656
-7.25775
-7.2674
-7.27555
-7.28224
-7.28757
-7.29155
-7.29417
-7.29538
-7.29511
-7.29328
-7.28976
-7.28441
-7.27705
-7.26748
-7.25549
-7.24085
-7.22339
-7.20302
-7.17994
-7.15494
-7.1297
-7.10817
-7.09579
-7.10429
-7.14087
-7.11161
-7.13091
-7.16163
-7.18525
-7.20334
-7.2204
-7.23572
-7.2486
-7.2596
-7.26913
-7.27725
-7.28399
-7.28943
-7.29358
-7.29643
-7.29795
-7.29808
-7.29676
-7.29389
-7.28937
-7.28307
-7.27487
-7.26466
-7.25237
-7.23801
-7.22178
-7.20419
-7.18635
-7.17022
-7.15928
-7.15817
-7.1742
-7.21227
-7.13072
-7.14458
-7.16945
-7.19099
-7.20805
-7.22394
-7.23849
-7.25101
-7.26179
-7.27119
-7.27927
-7.28607
-7.29163
-7.29598
-7.29911
-7.301
-7.3016
-7.30086
-7.29873
-7.29514
-7.29003
-7.28334
-7.27505
-7.26523
-7.25405
-7.24189
-7.22946
-7.21799
-7.20939
-7.20657
-7.21312
-7.23358
-7.27101
-7.1475
-7.15771
-7.17784
-7.19714
-7.21311
-7.22791
-7.24167
-7.25377
-7.26432
-7.27358
-7.28163
-7.2885
-7.29421
-7.29878
-7.30222
-7.30452
-7.30564
-7.30556
-7.30426
-7.30169
-7.29785
-7.29276
-7.28648
-7.27917
-7.27112
-7.26282
-7.25508
-7.2491
-7.2466
-7.24989
-7.26161
-7.28454
-7.32049
-7.16246
-7.17018
-7.18654
-7.20363
-7.21846
-7.23225
-7.24522
-7.25688
-7.26717
-7.2763
-7.28433
-7.29127
-7.29714
-7.30197
-7.30576
-7.30851
-7.31021
-7.31084
-7.31042
-7.30894
-7.30645
-7.30301
-7.29875
-7.29392
-7.28886
-7.28413
-7.28054
-7.27919
-7.28153
-7.28934
-7.30449
-7.32868
-7.36285
-7.17596
-7.18196
-7.19534
-7.21038
-7.22406
-7.2369
-7.24912
-7.26032
-7.27036
-7.27935
-7.28736
-7.29439
-7.30044
-7.30555
-7.30972
-7.31296
-7.31527
-7.31667
-7.31717
-7.31683
-7.31571
-7.31393
-7.31168
-7.30922
-7.30696
-7.30545
-7.30545
-7.30794
-7.31407
-7.32519
-7.34257
-7.36722
-7.39959
-7.18829
-7.19306
-7.20411
-7.2173
-7.22986
-7.24182
-7.25334
-7.26407
-7.27385
-7.28272
-7.29072
-7.29784
-7.3041
-7.30951
-7.31409
-7.31785
-7.32081
-7.323
-7.32447
-7.32528
-7.32555
-7.32541
-7.32508
-7.32486
-7.32516
-7.3265
-7.32957
-7.33517
-7.34424
-7.35773
-7.37651
-7.40114
-7.43179
-7.19963
-7.20352
-7.21275
-7.22432
-7.23581
-7.24696
-7.25782
-7.26811
-7.27764
-7.28639
-7.29439
-7.30163
-7.30811
-7.31384
-7.31885
-7.32315
-7.32679
-7.3298
-7.33224
-7.33422
-7.33584
-7.33729
-7.33879
-7.34064
-7.34324
-7.34707
-7.35271
-7.36082
-7.37212
-7.38729
-7.40689
-7.43121
-7.46026
-7.21015
-7.21338
-7.22119
-7.23137
-7.24188
-7.25228
-7.26253
-7.27241
-7.2817
-7.29035
-7.29837
-7.30573
-7.31245
-7.31852
-7.32398
-7.32885
-7.33317
-7.33701
-7.34043
-7.34355
-7.34649
-7.34945
-7.35266
-7.3564
-7.36103
-7.36699
-7.37477
-7.38488
-7.39786
-7.41418
-7.4342
-7.45803
-7.48561
-7.21994
-7.22268
-7.22938
-7.23839
-7.24801
-7.25773
-7.26744
-7.27694
-7.28601
-7.29458
-7.30263
-7.31013
-7.3171
-7.32353
-7.32945
-7.33489
-7.33992
-7.34458
-7.34896
-7.35319
-7.3574
-7.36177
-7.36654
-7.37198
-7.3784
-7.38617
-7.39569
-7.40737
-7.42159
-7.43868
-7.45884
-7.48209
-7.50832
-7.22911
-7.23147
-7.23729
-7.24532
-7.25415
-7.26327
-7.2725
-7.28166
-7.29053
-7.29904
-7.30714
-7.31481
-7.32203
-7.32883
-7.33523
-7.34125
-7.34697
-7.35244
-7.35776
-7.36305
-7.36846
-7.37415
-7.38034
-7.38727
-7.39523
-7.40452
-7.41546
-7.42835
-7.44348
-7.46104
-7.48115
-7.50378
-7.52879
-7.23769
-7.23976
-7.2449
-7.25213
-7.26028
-7.26885
-7.27767
-7.28653
-7.29525
-7.30372
-7.31188
-7.31972
-7.32723
-7.3344
-7.34128
-7.34788
-7.35428
-7.36055
-7.36677
-7.37307
-7.37958
-7.38647
-7.39393
-7.40218
-7.41146
-7.42201
-7.43408
-7.4479
-7.46366
-7.48149
-7.50143
-7.52342
-7.54731
-7.24575
-7.24759
-7.25219
-7.25876
-7.26634
-7.27445
-7.28291
-7.29153
-7.30011
-7.30857
-7.31682
-7.32485
-7.33265
-7.3402
-7.34755
-7.35473
-7.3618
-7.36882
-7.3759
-7.38314
-7.39068
-7.39866
-7.40725
-7.41664
-7.42703
-7.43862
-7.45158
-7.4661
-7.48229
-7.50022
-7.5199
-7.54125
-7.56414
-7.25331
-7.25498
-7.25914
-7.26519
-7.27229
-7.28002
-7.28818
-7.2966
-7.30509
-7.31356
-7.32192
-7.33016
-7.33825
-7.34619
-7.35401
-7.36175
-7.36946
-7.37721
-7.3851
-7.39321
-7.40168
-7.41063
-7.42021
-7.43059
-7.44191
-7.45433
-7.468
-7.48302
-7.49948
-7.5174
-7.53677
-7.5575
-7.57947
-7.26038
-7.26191
-7.26575
-7.27139
-7.27809
-7.28551
-7.29344
-7.30171
-7.31015
-7.31865
-7.32715
-7.3356
-7.34399
-7.35232
-7.36061
-7.36889
-7.37722
-7.38566
-7.39429
-7.4032
-7.41251
-7.42232
-7.43277
-7.44398
-7.45607
-7.46917
-7.48336
-7.49874
-7.51535
-7.53318
-7.55221
-7.57234
-7.59347
-7.26697
-7.26841
-7.272
-7.27731
-7.28371
-7.29088
-7.29864
-7.3068
-7.31523
-7.3238
-7.33245
-7.34113
-7.34983
-7.35855
-7.36729
-7.37609
-7.38501
-7.39409
-7.40341
-7.41305
-7.42311
-7.43369
-7.44488
-7.45678
-7.46951
-7.48313
-7.49773
-7.51335
-7.53
-7.54769
-7.56635
-7.58592
-7.60629
-7.27308
-7.27444
-7.27785
-7.28292
-7.2891
-7.29609
-7.30373
-7.31185
-7.32029
-7.32896
-7.33779
-7.34671
-7.35573
-7.36482
-7.374
-7.38331
-7.39277
-7.40245
-7.41241
-7.42271
-7.43344
-7.44467
-7.45649
-7.46899
-7.48222
-7.49626
-7.51114
-7.5269
-7.54354
-7.56103
-7.57933
-7.59836
-7.61803
-7.2787
-7.28001
-7.28328
-7.28819
-7.29422
-7.3011
-7.30867
-7.31679
-7.3253
-7.3341
-7.34311
-7.35229
-7.36162
-7.37109
-7.3807
-7.39048
-7.40046
-7.41069
-7.42122
-7.43212
-7.44343
-7.45523
-7.46759
-7.48057
-7.49421
-7.50856
-7.52364
-7.53948
-7.55604
-7.57332
-7.59125
-7.60977
-7.6288
-7.28379
-7.28506
-7.28826
-7.29307
-7.29901
-7.30585
-7.31342
-7.32158
-7.33019
-7.33914
-7.34837
-7.35783
-7.36747
-7.37731
-7.38733
-7.39756
-7.40803
-7.41876
-7.42981
-7.44123
-7.45305
-7.46535
-7.47816
-7.49152
-7.50548
-7.52007
-7.53528
-7.55112
-7.56758
-7.58462
-7.60219
-7.62023
-7.63868
-7.28832
-7.28958
-7.29274
-7.29751
-7.30344
-7.31029
-7.31791
-7.32617
-7.33492
-7.34406
-7.35352
-7.36326
-7.37323
-7.38342
-7.39384
-7.4045
-7.41541
-7.42661
-7.43813
-7.45
-7.46228
-7.47499
-7.48817
-7.50185
-7.51606
-7.5308
-7.54609
-7.5619
-7.57822
-7.59502
-7.61224
-7.62983
-7.64773
-7.29224
-7.29351
-7.29668
-7.30147
-7.30745
-7.31437
-7.3221
-7.3305
-7.33943
-7.34879
-7.35851
-7.36854
-7.37883
-7.38938
-7.40018
-7.41124
-7.42257
-7.43418
-7.44612
-7.45841
-7.47107
-7.48413
-7.49762
-7.51155
-7.52594
-7.5408
-7.55611
-7.57186
-7.58803
-7.60457
-7.62146
-7.63863
-7.65604
-7.29549
-7.29678
-7.3
-7.30489
-7.31097
-7.31803
-7.32593
-7.33452
-7.34367
-7.35329
-7.36329
-7.37361
-7.38424
-7.39514
-7.40631
-7.41774
-7.42945
-7.44145
-7.45376
-7.46641
-7.4794
-7.49275
-7.50649
-7.52063
-7.53515
-7.55007
-7.56538
-7.58104
-7.59704
-7.61334
-7.62991
-7.64669
-7.66363
-7.29799
-7.29932
-7.30265
-7.30768
-7.31395
-7.32122
-7.32934
-7.33818
-7.3476
-7.3575
-7.3678
-7.37844
-7.3894
-7.40065
-7.41217
-7.42396
-7.43602
-7.44837
-7.46102
-7.47397
-7.48725
-7.50085
-7.5148
-7.52908
-7.5437
-7.55865
-7.57392
-7.58948
-7.60531
-7.62137
-7.63763
-7.65405
-7.67058
-7.29964
-7.30104
-7.30452
-7.30978
-7.31631
-7.32386
-7.33227
-7.34142
-7.35115
-7.36137
-7.372
-7.38298
-7.39427
-7.40586
-7.41772
-7.42985
-7.44224
-7.45491
-7.46785
-7.48108
-7.4946
-7.50841
-7.52252
-7.53692
-7.5516
-7.56656
-7.58177
-7.59722
-7.61287
-7.6287
-7.64467
-7.66075
-7.67689
-7.30032
-7.30181
-7.30551
-7.31109
-7.31798
-7.32589
-7.33467
-7.34418
-7.35428
-7.36486
-7.37584
-7.38717
-7.39881
-7.41073
-7.42292
-7.43537
-7.44807
-7.46103
-7.47424
-7.48771
-7.50144
-7.51542
-7.52966
-7.54414
-7.55887
-7.57381
-7.58896
-7.60428
-7.61977
-7.63538
-7.65108
-7.66685
-7.68264
-7.29988
-7.30149
-7.3055
-7.31151
-7.31887
-7.32724
-7.33648
-7.34642
-7.35695
-7.36793
-7.37929
-7.39099
-7.40298
-7.41524
-7.42775
-7.44051
-7.45349
-7.46671
-7.48016
-7.49384
-7.50774
-7.52187
-7.53621
-7.55075
-7.56549
-7.58041
-7.59548
-7.61068
-7.626
-7.6414
-7.65685
-7.67233
-7.68781
-7.2981
-7.2999
-7.30434
-7.31094
-7.31891
-7.32786
-7.33764
-7.3481
-7.3591
-7.37053
-7.3823
-7.39438
-7.40674
-7.41933
-7.43216
-7.44521
-7.45846
-7.47193
-7.4856
-7.49947
-7.51353
-7.52778
-7.5422
-7.5568
-7.57154
-7.58642
-7.60142
-7.61651
-7.63167
-7.64688
-7.6621
-7.67732
-7.69251
-7.29472
-7.29678
-7.30184
-7.30925
-7.31801
-7.32767
-7.3381
-7.34919
-7.36075
-7.37267
-7.3849
-7.39738
-7.4101
-7.42303
-7.43615
-7.44947
-7.46297
-7.47664
-7.4905
-7.50452
-7.5187
-7.53304
-7.54753
-7.56214
-7.57688
-7.59171
-7.60662
-7.62159
-7.63661
-7.65163
-7.66665
-7.68164
-7.69657
-7.28938
-7.29182
-7.29779
-7.30634
-7.31611
-7.32662
-7.33781
-7.34958
-7.36176
-7.37422
-7.38692
-7.39984
-7.41296
-7.42624
-7.43969
-7.45329
-7.46705
-7.48095
-7.495
-7.50919
-7.5235
-7.53794
-7.55249
-7.56713
-7.58186
-7.59666
-7.6115
-7.62638
-7.64126
-7.65613
-7.67096
-7.68573
-7.70042
-7.28154
-7.28458
-7.29193
-7.30207
-7.3132
-7.32485
-7.33705
-7.34968
-7.36253
-7.37554
-7.38869
-7.40198
-7.41541
-7.42895
-7.44263
-7.45643
-7.47035
-7.4844
-7.49857
-7.51286
-7.52725
-7.54174
-7.55632
-7.57097
-7.58567
-7.60042
-7.61519
-7.62997
-7.64473
-7.65946
-7.67413
-7.68874
-7.70326
-7.27038
-7.27453
-7.28421
-7.29637
-7.30875
-7.32144
-7.33476
-7.34845
-7.36221
-7.37599
-7.38983
-7.40373
-7.41767
-7.43166
-7.44571
-7.45983
-7.47402
-7.48829
-7.50264
-7.51707
-7.53156
-7.54612
-7.56074
-7.5754
-7.59008
-7.60479
-7.61949
-7.63417
-7.64881
-7.6634
-7.67791
-7.69232
-7.70661
-7.25447
-7.26024
-7.27487
-7.29123
-7.30574
-7.31964
-7.33384
-7.3481
-7.36216
-7.37613
-7.3901
-7.4041
-7.41814
-7.43223
-7.44638
-7.46061
-7.47491
-7.48928
-7.50373
-7.51825
-7.53283
-7.54746
-7.56213
-7.57682
-7.59153
-7.60624
-7.62093
-7.63558
-7.65018
-7.66472
-7.67917
-7.69353
-7.70779
-7.23299
-7.23969
-7.25818
-7.27789
-7.29563
-7.31301
-7.3303
-7.34692
-7.3628
-7.3782
-7.39327
-7.40809
-7.42272
-7.43723
-7.45167
-7.46608
-7.48049
-7.49492
-7.50938
-7.52386
-7.53839
-7.55294
-7.56751
-7.5821
-7.59668
-7.61125
-7.62579
-7.64029
-7.65472
-7.66906
-7.6833
-7.69741
-7.71136
-7.19992
-7.23486
-7.2639
-7.27949
-7.29294
-7.30867
-7.3249
-7.34041
-7.35549
-7.37054
-7.38559
-7.40057
-7.41548
-7.43035
-7.4452
-7.46005
-7.47489
-7.48974
-7.5046
-7.51946
-7.53433
-7.54921
-7.56407
-7.57892
-7.59374
-7.60852
-7.62324
-7.63791
-7.65249
-7.66698
-7.68138
-7.69567
-7.70985
-7.05867
-7.16603
-7.23955
-7.2714
-7.29405
-7.31775
-7.33937
-7.35758
-7.37376
-7.38908
-7.40387
-7.41824
-7.43235
-7.44632
-7.46026
-7.4742
-7.48818
-7.50221
-7.51631
-7.53047
-7.54469
-7.55896
-7.57327
-7.5876
-7.60194
-7.61628
-7.63058
-7.64484
-7.65904
-7.67316
-7.68719
-7.70109
-7.71487
-6.5015
-6.55628
-7.43887
-7.91367
-7.96799
-7.98991
-8.03894
-8.07927
-8.11152
-8.14379
-8.17682
-8.20989
-8.24316
-8.2768
-8.31077
-8.34497
-8.37929
-8.41362
-8.44782
-8.48176
-8.51531
-8.54834
-8.5807
-8.61229
-8.64297
-8.67264
-8.70118
-8.72848
-8.75446
-8.779
-8.80202
-8.82343
-8.84315
-8.86108
-8.87715
-8.89128
-8.90338
-8.91336
-8.92115
-8.92664
-8.92976
-8.9304
-8.92845
-8.92381
-8.91635
-8.90594
-8.89244
-8.8757
-8.85555
-8.83182
-8.80429
-8.77278
-8.73706
-8.69689
-8.65204
-8.60224
-8.54724
-8.48678
-8.42059
-8.34838
-8.26989
-8.18481
-8.09285
-7.99369
-7.88701
-7.77246
-7.6497
-7.5184
-7.37823
-7.22892
-7.0702
-6.90189
-6.72384
-6.536
-6.33839
-6.13113
-5.91445
-5.68869
-5.45429
-5.21185
-4.96206
-4.70572
-4.44375
-4.17715
-3.90702
-3.63448
-3.36071
-3.08691
-2.81424
-2.54382
-2.27671
-2.01388
-1.75608
-1.50413
-1.258
-1.01889
-0.783965
-0.558492
-0.326885
-0.119867
-7.07173
-7.22951
-7.56825
-7.83689
-7.91034
-7.95306
-8.00924
-8.05584
-8.09281
-8.12806
-8.16323
-8.19792
-8.23236
-8.26687
-8.30148
-8.33615
-8.3708
-8.40536
-8.43971
-8.47374
-8.50733
-8.54036
-8.5727
-8.60424
-8.63486
-8.66445
-8.6929
-8.72012
-8.74599
-8.77044
-8.79336
-8.81466
-8.83427
-8.8521
-8.86806
-8.88207
-8.89405
-8.90391
-8.91157
-8.91693
-8.9199
-8.92039
-8.91829
-8.91348
-8.90584
-8.89524
-8.88155
-8.8646
-8.84422
-8.82025
-8.79248
-8.76072
-8.72473
-8.6843
-8.63917
-8.5891
-8.53383
-8.47309
-8.40662
-8.33415
-8.25539
-8.17005
-8.07784
-7.97844
-7.87153
-7.75678
-7.63385
-7.50242
-7.36218
-7.21284
-7.05417
-6.88598
-6.70814
-6.5206
-6.32339
-6.11663
-5.90055
-5.67549
-5.4419
-5.20037
-4.95156
-4.69629
-4.43546
-4.17004
-3.90111
-3.62978
-3.35721
-3.08455
-2.81296
-2.54352
-2.27727
-2.01516
-1.7579
-1.5063
-1.26025
-1.02112
-0.785452
-0.560237
-0.324919
-0.125184
-7.08131
-7.26445
-7.49491
-7.74476
-7.86438
-7.92514
-7.98391
-8.03479
-8.07594
-8.11376
-8.1507
-8.18674
-8.22216
-8.25736
-8.29245
-8.32745
-8.36231
-8.39698
-8.43138
-8.4654
-8.49894
-8.53189
-8.56413
-8.59556
-8.62606
-8.65552
-8.68384
-8.71091
-8.73665
-8.76096
-8.78374
-8.80491
-8.82439
-8.84208
-8.8579
-8.87177
-8.88361
-8.89333
-8.90083
-8.90605
-8.90886
-8.90918
-8.9069
-8.90191
-8.89408
-8.88327
-8.86936
-8.85218
-8.83157
-8.80735
-8.77932
-8.74729
-8.71103
-8.67031
-8.6249
-8.57454
-8.51898
-8.45796
-8.39121
-8.31845
-8.23942
-8.15382
-8.06136
-7.96172
-7.8546
-7.73966
-7.61657
-7.48503
-7.34473
-7.19541
-7.03682
-6.86879
-6.6912
-6.504
-6.30724
-6.10103
-5.88562
-5.66133
-5.42863
-5.18807
-4.94033
-4.6862
-4.42657
-4.16241
-3.89475
-3.6247
-3.35338
-3.08192
-2.81145
-2.54305
-2.2777
-2.01633
-1.75962
-1.50839
-1.26243
-1.02327
-0.786881
-0.561905
-0.322963
-0.130396
-7.11198
-7.29392
-7.49333
-7.70523
-7.82986
-7.89873
-7.95987
-8.01445
-8.05948
-8.09979
-8.13837
-8.17566
-8.21198
-8.24778
-8.28327
-8.31851
-8.3535
-8.38822
-8.42259
-8.45654
-8.48997
-8.52278
-8.55487
-8.58613
-8.61645
-8.64574
-8.67388
-8.70078
-8.72635
-8.75048
-8.77309
-8.7941
-8.81341
-8.83093
-8.8466
-8.86031
-8.87198
-8.88154
-8.88888
-8.89392
-8.89656
-8.8967
-8.89422
-8.88903
-8.88099
-8.86996
-8.85582
-8.8384
-8.81753
-8.79305
-8.76475
-8.73243
-8.69588
-8.65487
-8.60916
-8.5585
-8.50265
-8.44133
-8.37429
-8.30126
-8.22195
-8.13609
-8.04337
-7.94351
-7.83618
-7.72106
-7.59784
-7.46621
-7.32589
-7.1766
-7.01812
-6.8503
-6.67301
-6.48621
-6.28995
-6.08436
-5.86968
-5.64623
-5.41448
-5.17497
-4.92837
-4.67546
-4.41711
-4.15426
-3.88795
-3.61923
-3.34922
-3.07903
-2.80973
-2.54239
-2.27797
-2.01737
-1.76124
-1.51039
-1.26452
-1.02534
-0.788253
-0.56349
-0.321054
-0.135426
-7.1748
-7.3354
-7.50465
-7.67685
-7.79675
-7.87305
-7.93742
-7.99464
-8.04281
-8.08544
-8.1256
-8.16408
-8.20128
-8.23768
-8.27355
-8.30902
-8.34411
-8.37884
-8.41315
-8.44698
-8.48026
-8.5129
-8.54479
-8.57585
-8.60596
-8.63502
-8.66295
-8.68964
-8.715
-8.73893
-8.76135
-8.78216
-8.80128
-8.81862
-8.8341
-8.84763
-8.85913
-8.8685
-8.87566
-8.88051
-8.88295
-8.88289
-8.88021
-8.8748
-8.86653
-8.85527
-8.84088
-8.82321
-8.80207
-8.77731
-8.74872
-8.71612
-8.67927
-8.63795
-8.59193
-8.54097
-8.48481
-8.4232
-8.35587
-8.28255
-8.20297
-8.11684
-8.02389
-7.9238
-7.81627
-7.701
-7.57767
-7.44598
-7.30565
-7.15643
-6.99812
-6.83054
-6.65359
-6.46725
-6.27156
-6.06665
-5.85276
-5.63022
-5.39948
-5.16109
-4.91571
-4.66409
-4.40708
-4.14562
-3.88071
-3.6134
-3.34475
-3.07586
-2.80779
-2.54155
-2.27809
-2.01829
-1.76276
-1.5123
-1.26654
-1.02733
-0.789569
-0.564982
-0.319237
-0.140192
-7.2348
-7.36963
-7.51356
-7.65764
-7.77068
-7.85087
-7.9171
-7.97569
-8.02612
-8.07077
-8.11236
-8.15193
-8.18995
-8.22692
-8.26316
-8.29883
-8.33401
-8.36872
-8.40295
-8.43665
-8.46975
-8.50218
-8.53385
-8.56467
-8.59454
-8.62336
-8.65105
-8.6775
-8.70262
-8.72632
-8.74851
-8.76911
-8.78801
-8.80515
-8.82042
-8.83375
-8.84504
-8.85421
-8.86117
-8.86581
-8.86805
-8.86777
-8.86487
-8.85923
-8.85072
-8.83921
-8.82456
-8.80661
-8.7852
-8.76015
-8.73127
-8.69835
-8.66119
-8.61957
-8.57324
-8.52196
-8.46549
-8.40358
-8.33595
-8.26235
-8.1825
-8.09612
-8.00293
-7.90263
-7.79493
-7.67951
-7.55609
-7.42436
-7.28407
-7.13497
-6.97685
-6.80956
-6.63301
-6.44718
-6.2521
-6.04794
-5.8349
-5.61334
-5.38369
-5.14649
-4.90238
-4.65211
-4.39652
-4.13651
-3.87307
-3.6072
-3.33997
-3.07244
-2.80562
-2.54052
-2.27805
-2.01907
-1.76415
-1.51409
-1.26845
-1.02922
-0.790828
-0.566372
-0.31755
-0.144617
-7.28831
-7.40099
-7.52451
-7.64783
-7.75198
-7.83219
-7.89897
-7.95809
-8.00995
-8.05615
-8.09892
-8.1394
-8.17813
-8.2156
-8.25215
-8.288
-8.32324
-8.35792
-8.39204
-8.42558
-8.45848
-8.49068
-8.5221
-8.55265
-8.58225
-8.6108
-8.63821
-8.66439
-8.68926
-8.7127
-8.73464
-8.75499
-8.77366
-8.79056
-8.80561
-8.81871
-8.82979
-8.83874
-8.84547
-8.84989
-8.8519
-8.85139
-8.84825
-8.84236
-8.8336
-8.82183
-8.8069
-8.78867
-8.76697
-8.74162
-8.71242
-8.6792
-8.64172
-8.59977
-8.55312
-8.50153
-8.44475
-8.38252
-8.3146
-8.24072
-8.1606
-8.07398
-7.98056
-7.88007
-7.7722
-7.65667
-7.53318
-7.40145
-7.26122
-7.11227
-6.95439
-6.78744
-6.61133
-6.42606
-6.23166
-6.02829
-5.81618
-5.59565
-5.36715
-5.1312
-4.88843
-4.63958
-4.38546
-4.12696
-3.86503
-3.60067
-3.3349
-3.06875
-2.80323
-2.5393
-2.27785
-2.0197
-1.76541
-1.51577
-1.27027
-1.03102
-0.792032
-0.567652
-0.316029
-0.148638
-7.33564
-7.43073
-7.53719
-7.64408
-7.73893
-7.81691
-7.88323
-7.94223
-7.99476
-8.04197
-8.0856
-8.12676
-8.16605
-8.20392
-8.24073
-8.2767
-8.31196
-8.34657
-8.38056
-8.41391
-8.44658
-8.47851
-8.50965
-8.53991
-8.56921
-8.59746
-8.62457
-8.65046
-8.67503
-8.69819
-8.71986
-8.73994
-8.75834
-8.77498
-8.78978
-8.80264
-8.81346
-8.82217
-8.82866
-8.83284
-8.8346
-8.83384
-8.83044
-8.82429
-8.81526
-8.80321
-8.788
-8.76947
-8.74746
-8.7218
-8.69229
-8.65873
-8.62093
-8.57865
-8.53167
-8.47976
-8.42266
-8.36013
-8.29192
-8.21775
-8.13737
-8.05051
-7.95688
-7.8562
-7.7482
-7.63257
-7.50903
-7.37733
-7.2372
-7.08843
-6.93082
-6.76426
-6.58865
-6.40398
-6.21031
-6.0078
-5.79666
-5.57723
-5.34993
-5.11528
-4.87392
-4.62654
-4.37394
-4.11699
-3.85663
-3.59382
-3.32955
-3.06483
-2.80063
-2.5379
-2.27748
-2.02019
-1.76654
-1.51733
-1.27198
-1.0327
-0.793182
-0.568818
-0.314701
-0.152208
-7.37709
-7.45849
-7.55072
-7.64433
-7.73048
-7.80497
-7.86993
-7.92822
-7.98078
-8.02849
-8.07266
-8.11428
-8.15395
-8.1921
-8.22907
-8.26511
-8.30034
-8.33484
-8.36866
-8.40179
-8.4342
-8.46585
-8.49668
-8.52662
-8.55559
-8.5835
-8.61029
-8.63585
-8.6601
-8.68294
-8.70431
-8.72409
-8.74221
-8.75857
-8.77308
-8.78567
-8.79623
-8.80467
-8.81089
-8.8148
-8.81629
-8.81526
-8.81159
-8.80516
-8.79583
-8.78349
-8.76797
-8.74913
-8.72681
-8.70082
-8.67098
-8.63709
-8.59895
-8.55633
-8.50902
-8.45678
-8.39936
-8.33652
-8.26801
-8.19357
-8.11294
-8.02584
-7.93201
-7.83117
-7.72303
-7.60732
-7.48377
-7.35212
-7.21212
-7.06357
-6.90628
-6.74013
-6.56506
-6.38105
-6.18816
-5.98654
-5.77643
-5.55814
-5.3321
-5.09881
-4.85889
-4.61303
-4.362
-4.10666
-3.8479
-3.58667
-3.32393
-3.06067
-2.79782
-2.5363
-2.27694
-2.02052
-1.76754
-1.51875
-1.27357
-1.03428
-0.794278
-0.569868
-0.313583
-0.155296
-7.41339
-7.48416
-7.56468
-7.6474
-7.72567
-7.79603
-7.85893
-7.91602
-7.96812
-8.01588
-8.06027
-8.10212
-8.142
-8.1803
-8.21735
-8.25338
-8.28852
-8.32288
-8.3565
-8.38938
-8.4215
-8.45284
-8.48334
-8.51293
-8.54154
-8.5691
-8.59553
-8.62073
-8.64463
-8.66714
-8.68817
-8.70763
-8.72543
-8.74148
-8.75569
-8.76797
-8.77824
-8.78639
-8.79232
-8.79594
-8.79715
-8.79582
-8.79185
-8.78512
-8.77549
-8.76283
-8.74699
-8.72783
-8.70517
-8.67884
-8.64865
-8.61442
-8.57593
-8.53297
-8.48532
-8.43274
-8.375
-8.31185
-8.24305
-8.16833
-8.08744
-8.00012
-7.90609
-7.80509
-7.69685
-7.58108
-7.45754
-7.32596
-7.18612
-7.03781
-6.88088
-6.71519
-6.54069
-6.35737
-6.1653
-5.96463
-5.75558
-5.53848
-5.31374
-5.08186
-4.84342
-4.59912
-4.3497
-4.09599
-3.83886
-3.57925
-3.31807
-3.05629
-2.79481
-2.53453
-2.27624
-2.02069
-1.76838
-1.52004
-1.27505
-1.03574
-0.795319
-0.5708
-0.312685
-0.157885
-7.44534
-7.50779
-7.57874
-7.6524
-7.72366
-7.78966
-7.85004
-7.90556
-7.9568
-8.00423
-8.04854
-8.09041
-8.13033
-8.16865
-8.20568
-8.24163
-8.27664
-8.31081
-8.34419
-8.37679
-8.40861
-8.43961
-8.46975
-8.49898
-8.52722
-8.5544
-8.58044
-8.60527
-8.6288
-8.65094
-8.67161
-8.69071
-8.70817
-8.72389
-8.73777
-8.74973
-8.75968
-8.76751
-8.77313
-8.77644
-8.77733
-8.77569
-8.7714
-8.76435
-8.75439
-8.7414
-8.72523
-8.70572
-8.68271
-8.65603
-8.62549
-8.59089
-8.55205
-8.50873
-8.46073
-8.40782
-8.34975
-8.28628
-8.21718
-8.14219
-8.06105
-7.97351
-7.8793
-7.77815
-7.66981
-7.554
-7.43048
-7.299
-7.15934
-7.01131
-6.85476
-6.68956
-6.51566
-6.33307
-6.14186
-5.94217
-5.73422
-5.51835
-5.29494
-5.06449
-4.82758
-4.58486
-4.33708
-4.08503
-3.82957
-3.57158
-3.31199
-3.0517
-2.79161
-2.53257
-2.27536
-2.02071
-1.76908
-1.52119
-1.2764
-1.03708
-0.796304
-0.571616
-0.31201
-0.159977
-7.47363
-7.52946
-7.59259
-7.65868
-7.72374
-7.78544
-7.84303
-7.89671
-7.94678
-7.99356
-8.03754
-8.07922
-8.11901
-8.15723
-8.19414
-8.22994
-8.26477
-8.29871
-8.33182
-8.36412
-8.39561
-8.42626
-8.45603
-8.48487
-8.51272
-8.5395
-8.56515
-8.58958
-8.61272
-8.63448
-8.65476
-8.6735
-8.69059
-8.70595
-8.71948
-8.7311
-8.7407
-8.7482
-8.75348
-8.75646
-8.75701
-8.75504
-8.75041
-8.74301
-8.73271
-8.71937
-8.70284
-8.68298
-8.6596
-8.63256
-8.60165
-8.56669
-8.52747
-8.4838
-8.43544
-8.38217
-8.32377
-8.25999
-8.19059
-8.11532
-8.03393
-7.94617
-7.85178
-7.7505
-7.64207
-7.52624
-7.40276
-7.2714
-7.13194
-6.98421
-6.82805
-6.66337
-6.49011
-6.30828
-6.11794
-5.91926
-5.71245
-5.49783
-5.27578
-5.04679
-4.81142
-4.57032
-4.32419
-4.07382
-3.82004
-3.5637
-3.3057
-3.04692
-2.78822
-2.53044
-2.27431
-2.02056
-1.76962
-1.52219
-1.27762
-1.0383
-0.797231
-0.572318
-0.311552
-0.161586
-7.49884
-7.54934
-7.60605
-7.66577
-7.72539
-7.78297
-7.83767
-7.88931
-7.93799
-7.98388
-8.02729
-8.06859
-8.10811
-8.14611
-8.18281
-8.21838
-8.25297
-8.28664
-8.31945
-8.35143
-8.38257
-8.41285
-8.44223
-8.47068
-8.49812
-8.5245
-8.54974
-8.57376
-8.59649
-8.61785
-8.63774
-8.65609
-8.6728
-8.68778
-8.70094
-8.71219
-8.72144
-8.72858
-8.73351
-8.73613
-8.73634
-8.73401
-8.72903
-8.72127
-8.71061
-8.6969
-8.68001
-8.65977
-8.63602
-8.60859
-8.5773
-8.54196
-8.50237
-8.45832
-8.4096
-8.35598
-8.29724
-8.23313
-8.16343
-8.08789
-8.00625
-7.91828
-7.82372
-7.72231
-7.6138
-7.49795
-7.37453
-7.2433
-7.10406
-6.95665
-6.80091
-6.63677
-6.46416
-6.2831
-6.09368
-5.89602
-5.69036
-5.47701
-5.25634
-5.02883
-4.79502
-4.55554
-4.31108
-4.06241
-3.81031
-3.55563
-3.29922
-3.04195
-2.78466
-2.52813
-2.2731
-2.02025
-1.77
-1.52304
-1.27871
-1.03939
-0.798097
-0.572911
-0.311297
-0.162738
-7.52144
-7.56757
-7.61899
-7.67332
-7.72816
-7.78191
-7.83372
-7.88323
-7.93036
-7.97516
-8.01781
-8.05857
-8.09767
-8.13533
-8.17172
-8.20701
-8.24129
-8.27465
-8.30714
-8.33876
-8.36953
-8.39943
-8.42842
-8.45646
-8.48349
-8.50945
-8.53427
-8.55787
-8.58019
-8.60113
-8.62062
-8.63856
-8.65488
-8.66947
-8.68226
-8.69313
-8.702
-8.70877
-8.71333
-8.71559
-8.71543
-8.71273
-8.70738
-8.69925
-8.68821
-8.67413
-8.65685
-8.63623
-8.61209
-8.58427
-8.55259
-8.51687
-8.47689
-8.43246
-8.38337
-8.32939
-8.27031
-8.20588
-8.13587
-8.06005
-7.97817
-7.88999
-7.79525
-7.69372
-7.58515
-7.46929
-7.34593
-7.21484
-7.07584
-6.92876
-6.77347
-6.60987
-6.43793
-6.25767
-6.06916
-5.87255
-5.66806
-5.45598
-5.23671
-5.01068
-4.77844
-4.54059
-4.29781
-4.05082
-3.80041
-3.54739
-3.29258
-3.03683
-2.78092
-2.52566
-2.27172
-2.01977
-1.77022
-1.52374
-1.27966
-1.04036
-0.798898
-0.573399
-0.311227
-0.163471
-7.54181
-7.58431
-7.63133
-7.68109
-7.73174
-7.78196
-7.83096
-7.8783
-7.92377
-7.96734
-8.00908
-8.04915
-8.08771
-8.12492
-8.16093
-8.19586
-8.22979
-8.26279
-8.29491
-8.32616
-8.35655
-8.38605
-8.41463
-8.44225
-8.46886
-8.49439
-8.51879
-8.54197
-8.56386
-8.58439
-8.60346
-8.62099
-8.63691
-8.6511
-8.66349
-8.67398
-8.68246
-8.68885
-8.69304
-8.69491
-8.69437
-8.6913
-8.68557
-8.67706
-8.66564
-8.65116
-8.6335
-8.61248
-8.58794
-8.55973
-8.52765
-8.49153
-8.45117
-8.40635
-8.35689
-8.30255
-8.24311
-8.17836
-8.10805
-8.03195
-7.94983
-7.86143
-7.76653
-7.66488
-7.55624
-7.44039
-7.3171
-7.18617
-7.04742
-6.90068
-6.74583
-6.5828
-6.41154
-6.23208
-6.04449
-5.84893
-5.64562
-5.43483
-5.21695
-4.99241
-4.76173
-4.52551
-4.2844
-4.03911
-3.79038
-3.53901
-3.2858
-3.03154
-2.77703
-2.52302
-2.27017
-2.01913
-1.77028
-1.52427
-1.28047
-1.0412
-0.799631
-0.573787
-0.311316
-0.163831
-7.56026
-7.59969
-7.64302
-7.68889
-7.73586
-7.78286
-7.82919
-7.87436
-7.91812
-7.96036
-8.00108
-8.04034
-8.07825
-8.11493
-8.15046
-8.18496
-8.21849
-8.25109
-8.28282
-8.31367
-8.34364
-8.37273
-8.40089
-8.42808
-8.45426
-8.47937
-8.50333
-8.52608
-8.54755
-8.56765
-8.5863
-8.60342
-8.61892
-8.63272
-8.6447
-8.6548
-8.66289
-8.66889
-8.67269
-8.67418
-8.67325
-8.66979
-8.66367
-8.65477
-8.64296
-8.62809
-8.61003
-8.58861
-8.56368
-8.53506
-8.50259
-8.46606
-8.4253
-8.38011
-8.33026
-8.27556
-8.21578
-8.1507
-8.08008
-8.00371
-7.92134
-7.83274
-7.73767
-7.63591
-7.52722
-7.41137
-7.28817
-7.1574
-7.01889
-6.8725
-6.71811
-6.55565
-6.38508
-6.20642
-6.01977
-5.82527
-5.62312
-5.41362
-5.19713
-4.97407
-4.74496
-4.51036
-4.27091
-4.02729
-3.78024
-3.53051
-3.27888
-3.02612
-2.77299
-2.52022
-2.26846
-2.01832
-1.77017
-1.52465
-1.28114
-1.04191
-0.800289
-0.574081
-0.311539
-0.163867
-7.57702
-7.61385
-7.65405
-7.69658
-7.74032
-7.7844
-7.82821
-7.87128
-7.91332
-7.95417
-7.99377
-8.03213
-8.0693
-8.10535
-8.14034
-8.17435
-8.20742
-8.23959
-8.27088
-8.3013
-8.33085
-8.35951
-8.38723
-8.41399
-8.43974
-8.4644
-8.48793
-8.51025
-8.53129
-8.55096
-8.56919
-8.58589
-8.60098
-8.61436
-8.62594
-8.63563
-8.64333
-8.64894
-8.65234
-8.65344
-8.65212
-8.64827
-8.64176
-8.63247
-8.62026
-8.605
-8.58653
-8.56471
-8.53937
-8.51035
-8.47747
-8.44055
-8.3994
-8.35381
-8.30359
-8.24852
-8.1884
-8.12299
-8.05207
-7.97542
-7.89281
-7.80401
-7.70879
-7.60692
-7.49817
-7.38234
-7.25922
-7.12862
-6.99038
-6.84434
-6.69042
-6.52852
-6.35864
-6.1808
-5.99507
-5.80162
-5.60064
-5.39242
-5.17731
-4.95573
-4.72816
-4.49517
-4.25737
-4.01541
-3.77002
-3.52191
-3.27184
-3.02057
-2.76881
-2.51727
-2.26658
-2.01734
-1.7699
-1.52487
-1.28166
-1.0425
-0.800868
-0.574284
-0.311867
-0.16363
-7.5923
-7.6269
-7.66442
-7.70407
-7.74497
-7.78641
-7.82787
-7.86892
-7.90925
-7.94868
-7.9871
-8.02449
-8.06085
-8.0962
-8.13059
-8.16405
-8.19661
-8.2283
-8.25913
-8.2891
-8.3182
-8.34641
-8.3737
-8.40001
-8.42531
-8.44954
-8.47262
-8.4945
-8.5151
-8.53435
-8.55215
-8.56843
-8.5831
-8.59607
-8.60725
-8.61653
-8.62383
-8.62904
-8.63205
-8.63275
-8.63104
-8.62679
-8.61989
-8.6102
-8.59759
-8.58193
-8.56306
-8.54083
-8.51509
-8.48567
-8.45239
-8.41507
-8.37352
-8.32755
-8.27695
-8.22153
-8.16105
-8.09532
-8.02411
-7.94719
-7.86434
-7.77534
-7.67997
-7.57799
-7.4692
-7.35339
-7.23037
-7.09994
-6.96196
-6.81628
-6.66282
-6.5015
-6.3323
-6.15526
-5.97047
-5.77806
-5.57824
-5.37129
-5.15754
-4.93742
-4.71139
-4.47999
-4.24381
-4.0035
-3.75974
-3.51323
-3.26471
-3.0149
-2.76449
-2.51418
-2.26455
-2.01619
-1.76946
-1.52493
-1.28204
-1.04295
-0.801363
-0.574403
-0.312271
-0.163173
-7.60626
-7.63893
-7.67414
-7.71129
-7.74968
-7.78875
-7.82803
-7.86715
-7.90582
-7.94382
-7.98104
-8.01741
-8.0529
-8.08749
-8.12121
-8.15407
-8.18609
-8.21726
-8.2476
-8.27709
-8.30573
-8.33348
-8.36031
-8.38617
-8.41102
-8.43479
-8.45744
-8.47888
-8.49904
-8.51785
-8.53522
-8.55108
-8.56533
-8.57789
-8.58865
-8.59753
-8.60443
-8.60923
-8.61185
-8.61215
-8.61005
-8.6054
-8.5981
-8.58802
-8.57501
-8.55895
-8.53968
-8.51705
-8.4909
-8.46108
-8.4274
-8.38968
-8.34774
-8.30139
-8.25042
-8.19464
-8.13382
-8.06777
-7.99626
-7.91908
-7.836
-7.74681
-7.65128
-7.54921
-7.44038
-7.3246
-7.20167
-7.07142
-6.93371
-6.78839
-6.63539
-6.47465
-6.30614
-6.1299
-5.94602
-5.75464
-5.55597
-5.35027
-5.13788
-4.91919
-4.69467
-4.46484
-4.23026
-3.99157
-3.74942
-3.5045
-3.2575
-3.00912
-2.76005
-2.51093
-2.26236
-2.01489
-1.76885
-1.52482
-1.28226
-1.04327
-0.801769
-0.574441
-0.312721
-0.162545
-7.61905
-7.65003
-7.68324
-7.71821
-7.75438
-7.79129
-7.82857
-7.86588
-7.90293
-7.93953
-7.97553
-8.01085
-8.04542
-8.07922
-8.11223
-8.14445
-8.17587
-8.2065
-8.23631
-8.26531
-8.29346
-8.32073
-8.34709
-8.37249
-8.39688
-8.42021
-8.4424
-8.4634
-8.48312
-8.5015
-8.51844
-8.53387
-8.5477
-8.55984
-8.5702
-8.57867
-8.58516
-8.58957
-8.59178
-8.59169
-8.58919
-8.58415
-8.57645
-8.56597
-8.55257
-8.5361
-8.51643
-8.4934
-8.46686
-8.43663