/*--------------------------------*- C++ -*----------------------------------*\
| =========                 |                                                 |
| \\      /  F ield         | OpenFOAM: The Open Source CFD Toolbox           |
|  \\    /   O peration     | Version:  4.1                                   |
|   \\  /    A nd           | Web:      www.OpenFOAM.org                      |
|    \\/     M anipulation  |                                                 |
\*---------------------------------------------------------------------------*/
FoamFile
{
    version     2.0;
    format      ascii;
    class       surfaceScalarField;
    location    "1600";
    object      phi;
}
// * * * * * * * * * * * * * * * * * * * * * * * * * * * * * * * * * * * * * //

dimensions      [0 3 -1 0 0 0 0];

internalField   nonuniform List<scalar> 
13452
(
5.98811e-05
3.87334e-07
5.95252e-05
3.55937e-07
5.92696e-05
2.55585e-07
5.90615e-05
2.08069e-07
5.88793e-05
1.82251e-07
5.87167e-05
1.62633e-07
5.85688e-05
1.47864e-07
5.84321e-05
1.36719e-07
5.83044e-05
1.27687e-07
5.81843e-05
1.20051e-07
5.80708e-05
1.13552e-07
5.79628e-05
1.08021e-07
5.78594e-05
1.03319e-07
5.77601e-05
9.93444e-08
5.76641e-05
9.60338e-08
5.75707e-05
9.33486e-08
5.74794e-05
9.12731e-08
5.73896e-05
8.98155e-08
5.73006e-05
8.90106e-08
5.72117e-05
8.89265e-08
5.7122e-05
8.96755e-08
5.70306e-05
9.14346e-08
5.69361e-05
9.4481e-08
5.68368e-05
9.92579e-08
5.67303e-05
1.06504e-07
5.66128e-05
1.17505e-07
5.64781e-05
1.34723e-07
5.63152e-05
1.62862e-07
5.61015e-05
2.13711e-07
5.57938e-05
3.07687e-07
5.52643e-05
5.29567e-07
5.42149e-05
1.04936e-06
1.53825e-06
5.26767e-05
6.20749e-05
3.02761e-07
6.19987e-05
4.3211e-07
6.18517e-05
4.02672e-07
6.16884e-05
3.7129e-07
6.15293e-05
3.41403e-07
6.13798e-05
3.12135e-07
6.12402e-05
2.87432e-07
6.11095e-05
2.67431e-07
6.09864e-05
2.50747e-07
6.087e-05
2.36517e-07
6.07592e-05
2.24311e-07
6.06534e-05
2.13818e-07
6.05519e-05
2.04802e-07
6.04542e-05
1.97099e-07
6.03596e-05
1.90602e-07
6.02677e-05
1.85246e-07
6.0178e-05
1.81003e-07
6.00899e-05
1.77886e-07
6.0003e-05
1.7595e-07
5.99166e-05
1.75303e-07
5.98301e-05
1.76123e-07
5.97429e-05
1.78687e-07
5.9654e-05
1.83418e-07
5.95622e-05
1.90972e-07
5.94664e-05
2.02397e-07
5.93645e-05
2.19387e-07
5.92542e-05
2.45032e-07
5.91328e-05
2.8427e-07
5.89971e-05
3.49333e-07
5.88508e-05
4.53982e-07
5.87172e-05
6.6324e-07
5.8764e-05
1.00247e-06
1.63626e-06
5.8666e-05
6.38373e-05
2.26834e-07
6.38685e-05
4.00966e-07
6.38445e-05
4.26693e-07
6.37851e-05
4.30685e-07
6.37048e-05
4.21709e-07
6.36142e-05
4.02682e-07
6.35198e-05
3.81814e-07
6.34248e-05
3.62429e-07
6.33308e-05
3.44802e-07
6.32384e-05
3.28907e-07
6.31479e-05
3.14754e-07
6.30595e-05
3.02265e-07
6.2973e-05
2.91333e-07
6.28882e-05
2.81874e-07
6.2805e-05
2.7384e-07
6.2723e-05
2.67211e-07
6.2642e-05
2.62003e-07
6.25616e-05
2.58273e-07
6.24814e-05
2.56129e-07
6.2401e-05
2.55744e-07
6.23197e-05
2.57384e-07
6.2237e-05
2.61438e-07
6.21519e-05
2.68488e-07
6.20635e-05
2.79397e-07
6.19704e-05
2.95503e-07
6.18709e-05
3.18851e-07
6.1763e-05
3.52912e-07
6.16445e-05
4.02813e-07
6.15146e-05
4.79245e-07
6.13757e-05
5.92845e-07
6.12583e-05
7.80692e-07
6.12264e-05
1.03434e-06
1.47466e-06
6.1388e-05
6.5637e-05
1.7289e-07
6.56889e-05
3.49049e-07
6.57122e-05
4.03389e-07
6.57127e-05
4.30228e-07
6.56932e-05
4.41245e-07
6.5658e-05
4.37834e-07
6.56121e-05
4.27723e-07
6.5559e-05
4.15498e-07
6.55012e-05
4.02589e-07
6.54404e-05
3.8975e-07
6.53776e-05
3.77553e-07
6.53135e-05
3.66315e-07
6.52487e-05
3.56194e-07
6.51833e-05
3.47293e-07
6.51174e-05
3.39701e-07
6.50511e-05
3.33503e-07
6.49843e-05
3.28806e-07
6.49168e-05
3.25746e-07
6.48485e-05
3.24509e-07
6.47789e-05
3.25351e-07
6.47076e-05
3.28631e-07
6.46342e-05
3.34849e-07
6.4558e-05
3.44715e-07
6.44781e-05
3.59251e-07
6.43937e-05
3.79958e-07
6.43035e-05
4.09032e-07
6.42065e-05
4.49893e-07
6.4102e-05
5.07274e-07
6.39919e-05
5.8942e-07
6.38808e-05
7.03869e-07
6.37917e-05
8.69783e-07
6.37498e-05
1.07627e-06
1.36365e-06
6.38608e-05
6.74946e-05
1.35101e-07
6.75432e-05
3.00462e-07
6.75779e-05
3.68611e-07
6.76013e-05
4.06837e-07
6.76127e-05
4.29923e-07
6.76119e-05
4.38597e-07
6.76009e-05
4.38744e-07
6.75815e-05
4.3483e-07
6.75555e-05
4.28607e-07
6.75242e-05
4.21097e-07
6.74886e-05
4.13144e-07
6.74496e-05
4.05328e-07
6.74077e-05
3.98022e-07
6.73635e-05
3.91501e-07
6.73172e-05
3.85992e-07
6.7269e-05
3.81701e-07
6.7219e-05
3.78831e-07
6.71672e-05
3.77608e-07
6.71134e-05
3.78304e-07
6.70575e-05
3.81257e-07
6.69992e-05
3.86909e-07
6.69382e-05
3.95848e-07
6.6874e-05
4.08873e-07
6.68062e-05
4.27082e-07
6.67341e-05
4.52011e-07
6.66574e-05
4.85789e-07
6.65758e-05
5.31457e-07
6.64902e-05
5.92928e-07
6.64036e-05
6.7594e-07
6.63224e-05
7.85149e-07
6.62632e-05
9.28916e-07
6.6242e-05
1.09747e-06
1.29612e-06
6.63096e-05
6.94108e-05
1.08308e-07
6.9452e-05
2.5932e-07
6.94866e-05
3.33953e-07
6.95155e-05
3.77936e-07
6.95381e-05
4.07333e-07
6.95532e-05
4.23505e-07
6.95611e-05
4.30884e-07
6.95624e-05
4.33513e-07
6.95578e-05
4.33187e-07
6.9548e-05
4.30919e-07
6.95335e-05
4.27579e-07
6.9515e-05
4.23826e-07
6.94929e-05
4.20128e-07
6.94676e-05
4.1685e-07
6.94393e-05
4.14308e-07
6.94082e-05
4.12786e-07
6.93745e-05
4.12565e-07
6.93381e-05
4.13941e-07
6.92992e-05
4.17253e-07
6.92575e-05
4.22904e-07
6.9213e-05
4.31395e-07
6.91655e-05
4.43367e-07
6.91147e-05
4.59653e-07
6.90605e-05
4.81349e-07
6.90026e-05
5.0991e-07
6.89411e-05
5.4723e-07
6.88768e-05
5.95796e-07
6.88112e-05
6.58531e-07
6.87481e-05
7.39024e-07
6.86937e-05
8.39572e-07
6.86601e-05
9.62517e-07
6.86579e-05
1.09967e-06
1.24525e-06
6.87088e-05
7.13857e-05
8.89854e-08
7.14198e-05
2.25202e-07
7.14515e-05
3.02224e-07
7.148e-05
3.49479e-07
7.1505e-05
3.82274e-07
7.15256e-05
4.02956e-07
7.15414e-05
4.15032e-07
7.15528e-05
4.2214e-07
7.15599e-05
4.2612e-07
7.15628e-05
4.27967e-07
7.15619e-05
4.2851e-07
7.15573e-05
4.28404e-07
7.15493e-05
4.28136e-07
7.1538e-05
4.28101e-07
7.15237e-05
4.28645e-07
7.15064e-05
4.30091e-07
7.14862e-05
4.32761e-07
7.14632e-05
4.3699e-07
7.14373e-05
4.43155e-07
7.14085e-05
4.51694e-07
7.13767e-05
4.63135e-07
7.1342e-05
4.78129e-07
7.13041e-05
4.9749e-07
7.12632e-05
5.22242e-07
7.12195e-05
5.5367e-07
7.11734e-05
5.9334e-07
7.1126e-05
6.43124e-07
7.10796e-05
7.04986e-07
7.10377e-05
7.80861e-07
7.1006e-05
8.71363e-07
7.09926e-05
9.75831e-07
7.10048e-05
1.08753e-06
1.19857e-06
7.10515e-05
7.34195e-05
7.47528e-08
7.34477e-05
1.97002e-07
7.34761e-05
2.73792e-07
7.35027e-05
3.22952e-07
7.35272e-05
3.5777e-07
7.35488e-05
3.81364e-07
7.35672e-05
3.96641e-07
7.35825e-05
4.06842e-07
7.35947e-05
4.13851e-07
7.3604e-05
4.18698e-07
7.36103e-05
4.22188e-07
7.36137e-05
4.24971e-07
7.36143e-05
4.27537e-07
7.36122e-05
4.30287e-07
7.36072e-05
4.33574e-07
7.35996e-05
4.37736e-07
7.35892e-05
4.43104e-07
7.35762e-05
4.50031e-07
7.35605e-05
4.58904e-07
7.3542e-05
4.70166e-07
7.35208e-05
4.84338e-07
7.34969e-05
5.02044e-07
7.34703e-05
5.24034e-07
7.34414e-05
5.51206e-07
7.34104e-05
5.84621e-07
7.33783e-05
6.25481e-07
7.33463e-05
6.75071e-07
7.33168e-05
7.34538e-07
7.3293e-05
8.0464e-07
7.32794e-05
8.84927e-07
7.32818e-05
9.73448e-07
7.33046e-05
1.06472e-06
1.15168e-06
7.33515e-05
7.55132e-05
6.40165e-08
7.55366e-05
1.73647e-07
7.55619e-05
2.48462e-07
7.55863e-05
2.98523e-07
7.56095e-05
3.3461e-07
7.56306e-05
3.60226e-07
7.56494e-05
3.77879e-07
7.56658e-05
3.90402e-07
7.568e-05
3.99674e-07
7.56919e-05
4.06772e-07
7.57016e-05
4.12505e-07
7.5709e-05
4.17524e-07
7.57143e-05
4.22331e-07
7.57172e-05
4.27332e-07
7.57179e-05
4.32888e-07
7.57163e-05
4.39336e-07
7.57124e-05
4.47013e-07
7.57062e-05
4.56267e-07
7.56976e-05
4.67479e-07
7.56867e-05
4.81076e-07
7.56735e-05
4.97548e-07
7.5658e-05
5.17459e-07
7.56406e-05
5.41462e-07
7.56215e-05
5.70299e-07
7.56014e-05
6.04789e-07
7.55811e-05
6.45776e-07
7.55621e-05
6.94037e-07
7.55466e-05
7.5008e-07
7.55373e-05
8.13891e-07
7.55378e-05
8.84429e-07
7.55519e-05
9.59354e-07
7.55824e-05
1.03426e-06
1.10359e-06
7.56304e-05
7.76679e-05
5.57122e-08
7.76873e-05
1.54198e-07
7.77099e-05
2.25939e-07
7.77323e-05
2.76066e-07
7.7754e-05
3.12887e-07
7.77743e-05
3.39936e-07
7.77928e-05
3.59441e-07
7.78093e-05
3.73844e-07
7.7824e-05
3.8495e-07
7.78369e-05
3.93869e-07
7.7848e-05
4.01411e-07
7.78573e-05
4.08233e-07
7.78648e-05
4.1485e-07
7.78705e-05
4.2168e-07
7.78743e-05
4.29088e-07
7.78762e-05
4.37414e-07
7.78762e-05
4.46988e-07
7.78743e-05
4.58153e-07
7.78705e-05
4.7127e-07
7.78649e-05
4.86735e-07
7.78574e-05
5.04989e-07
7.78484e-05
5.26521e-07
7.7838e-05
5.51868e-07
7.78267e-05
5.81605e-07
7.78151e-05
6.16314e-07
7.78044e-05
6.56519e-07
7.77958e-05
7.02591e-07
7.77913e-05
7.54576e-07
7.77932e-05
8.11994e-07
7.78041e-05
8.73543e-07
7.78265e-05
9.36933e-07
7.78621e-05
9.98675e-07
1.05461e-06
7.79111e-05
7.98849e-05
4.91248e-08
7.99012e-05
1.37872e-07
7.99213e-05
2.05909e-07
7.99419e-05
2.55413e-07
7.99623e-05
2.9252e-07
7.99817e-05
3.20544e-07
7.99996e-05
3.41495e-07
8.0016e-05
3.57464e-07
8.00308e-05
3.70132e-07
8.00441e-05
3.80607e-07
8.00558e-05
3.89697e-07
8.0066e-05
3.98057e-07
8.00746e-05
4.06207e-07
8.00817e-05
4.14575e-07
8.00873e-05
4.23528e-07
8.00913e-05
4.33405e-07
8.00937e-05
4.44532e-07
8.00947e-05
4.57233e-07
8.00941e-05
4.71847e-07
8.00921e-05
4.8873e-07
8.00888e-05
5.08263e-07
8.00845e-05
5.3085e-07
8.00794e-05
5.56909e-07
8.00742e-05
5.86853e-07
8.00695e-05
6.2105e-07
8.00662e-05
6.5976e-07
8.00658e-05
7.03048e-07
8.00697e-05
7.50653e-07
8.00798e-05
8.01846e-07
8.00981e-05
8.55276e-07
8.01261e-05
9.08894e-07
8.01648e-05
9.59968e-07
1.00546e-06
8.0214e-05
8.21658e-05
4.37697e-08
8.21796e-05
1.24029e-07
8.21975e-05
1.88064e-07
8.22165e-05
2.36393e-07
8.22356e-05
2.73396e-07
8.22542e-05
3.02007e-07
8.22716e-05
3.24049e-07
8.22878e-05
3.4131e-07
8.23026e-05
3.5532e-07
8.2316e-05
3.67156e-07
8.23281e-05
3.7761e-07
8.23389e-05
3.87324e-07
8.23482e-05
3.96818e-07
8.23563e-05
4.06518e-07
8.2363e-05
4.16794e-07
8.23685e-05
4.27976e-07
8.23726e-05
4.40379e-07
8.23755e-05
4.54307e-07
8.23773e-05
4.70069e-07
8.23781e-05
4.87975e-07
8.2378e-05
5.08342e-07
8.23774e-05
5.31489e-07
8.23765e-05
5.57717e-07
8.23761e-05
5.87294e-07
8.23768e-05
6.20406e-07
8.23794e-05
6.57111e-07
8.23852e-05
6.97257e-07
8.23954e-05
7.40401e-07
8.24116e-05
7.85714e-07
8.24349e-05
8.31913e-07
8.24666e-05
8.77255e-07
8.25069e-05
9.1962e-07
9.56805e-07
8.25556e-05
8.45122e-05
3.93146e-08
8.45241e-05
1.12152e-07
8.45401e-05
1.72107e-07
8.45576e-05
2.18842e-07
8.45756e-05
2.55395e-07
8.45934e-05
2.84257e-07
8.46103e-05
3.07067e-07
8.46263e-05
3.25361e-07
8.46411e-05
3.40506e-07
8.46547e-05
3.53524e-07
8.46672e-05
3.6518e-07
8.46784e-05
3.76096e-07
8.46884e-05
3.86778e-07
8.46973e-05
3.97649e-07
8.4705e-05
4.09067e-07
8.47117e-05
4.21353e-07
8.47172e-05
4.34804e-07
8.47218e-05
4.497e-07
8.47256e-05
4.66313e-07
8.47287e-05
4.84906e-07
8.47313e-05
5.05732e-07
8.47337e-05
5.29024e-07
8.47365e-05
5.54983e-07
8.474e-05
5.83748e-07
8.47451e-05
6.15364e-07
8.47524e-05
6.49738e-07
8.47631e-05
6.86584e-07
8.47781e-05
7.25363e-07
8.47986e-05
7.65243e-07
8.48255e-05
8.0507e-07
8.48593e-05
8.43403e-07
8.49003e-05
8.78614e-07
9.09108e-07
8.4948e-05
8.6926e-05
3.55281e-08
8.69363e-05
1.01833e-07
8.69506e-05
1.57759e-07
8.69669e-05
2.02594e-07
8.69839e-05
2.38397e-07
8.70009e-05
2.67214e-07
8.70175e-05
2.90499e-07
8.70333e-05
3.09575e-07
8.70481e-05
3.25649e-07
8.7062e-05
3.39671e-07
8.70748e-05
3.52371e-07
8.70865e-05
3.64338e-07
8.70973e-05
3.76063e-07
8.7107e-05
3.87952e-07
8.71157e-05
4.00349e-07
8.71235e-05
4.13559e-07
8.71304e-05
4.27856e-07
8.71366e-05
4.43491e-07
8.71422e-05
4.60698e-07
8.71475e-05
4.7969e-07
8.71525e-05
5.00659e-07
8.71578e-05
5.23763e-07
8.71637e-05
5.49109e-07
8.71707e-05
5.76737e-07
8.71794e-05
6.06586e-07
8.71907e-05
6.38459e-07
8.72053e-05
6.71994e-07
8.72241e-05
7.06626e-07
8.72477e-05
7.41569e-07
8.7277e-05
7.75825e-07
8.73121e-05
8.08228e-07
8.73532e-05
8.37531e-07
8.62585e-07
8.73998e-05
8.94088e-05
3.22455e-08
8.94179e-05
9.27448e-08
8.94309e-05
1.44764e-07
8.9446e-05
1.87487e-07
8.94621e-05
2.22284e-07
8.94785e-05
2.50794e-07
8.94948e-05
2.74285e-07
8.95104e-05
2.93901e-07
8.95254e-05
3.10698e-07
8.95395e-05
3.25545e-07
8.95528e-05
3.39124e-07
8.95651e-05
3.51991e-07
8.95766e-05
3.64609e-07
8.95871e-05
3.77364e-07
8.95969e-05
3.9058e-07
8.96059e-05
4.04541e-07
8.96143e-05
4.19494e-07
8.96221e-05
4.35659e-07
8.96296e-05
4.5323e-07
8.96369e-05
4.72373e-07
8.96443e-05
4.93222e-07
8.96522e-05
5.15867e-07
8.9661e-05
5.40343e-07
8.96711e-05
5.6661e-07
8.96832e-05
5.94531e-07
8.96978e-05
6.2385e-07
8.97156e-05
6.54172e-07
8.97373e-05
6.84944e-07
8.97634e-05
7.15459e-07
8.97944e-05
7.44875e-07
8.98303e-05
7.72261e-07
8.98712e-05
7.96669e-07
8.17271e-07
8.99165e-05
9.19628e-05
2.9347e-08
9.19709e-05
8.46281e-08
9.19827e-05
1.32893e-07
9.19969e-05
1.7336e-07
9.20122e-05
2.06933e-07
9.20281e-05
2.34903e-07
9.2044e-05
2.58357e-07
9.20597e-05
2.78283e-07
9.20748e-05
2.95599e-07
9.20892e-05
3.11088e-07
9.2103e-05
3.25379e-07
9.2116e-05
3.38987e-07
9.21282e-05
3.52345e-07
9.21398e-05
3.65811e-07
9.21507e-05
3.79687e-07
9.2161e-05
3.94229e-07
9.21708e-05
4.09656e-07
9.21803e-05
4.26157e-07
9.21897e-05
4.43885e-07
9.21991e-05
4.62962e-07
9.22088e-05
4.83471e-07
9.22193e-05
5.05446e-07
9.22307e-05
5.28862e-07
9.22437e-05
5.53624e-07
9.22587e-05
5.79547e-07
9.22762e-05
6.06343e-07
9.22968e-05
6.33616e-07
9.23209e-05
6.60852e-07
9.23489e-05
6.87434e-07
9.23811e-05
7.12664e-07
9.24175e-05
7.35808e-07
9.24581e-05
7.56148e-07
7.7309e-07
9.25022e-05
9.45898e-05
2.67428e-08
9.45971e-05
7.72742e-08
9.46081e-05
1.21939e-07
9.46214e-05
1.60057e-07
9.46361e-05
1.92224e-07
9.46515e-05
2.19444e-07
9.46673e-05
2.42639e-07
9.46829e-05
2.62657e-07
9.46982e-05
2.80293e-07
9.4713e-05
2.96241e-07
9.47273e-05
3.11073e-07
9.47411e-05
3.25262e-07
9.47542e-05
3.39202e-07
9.47668e-05
3.53222e-07
9.47789e-05
3.67597e-07
9.47906e-05
3.82555e-07
9.48019e-05
3.98285e-07
9.48132e-05
4.1494e-07
9.48244e-05
4.3264e-07
9.48359e-05
4.51465e-07
9.48479e-05
4.71453e-07
9.48608e-05
4.92595e-07
9.48748e-05
5.14823e-07
9.48904e-05
5.38e-07
9.49081e-05
5.61918e-07
9.49281e-05
5.86281e-07
9.4951e-05
6.1071e-07
9.49771e-05
6.34744e-07
9.50067e-05
6.57857e-07
9.50399e-05
6.7948e-07
9.50767e-05
6.99038e-07
9.51168e-05
7.15991e-07
7.29913e-07
9.516e-05
9.72919e-05
2.43637e-08
9.72987e-05
7.05136e-08
9.73089e-05
1.1172e-07
9.73215e-05
1.47426e-07
9.73357e-05
1.78031e-07
9.73508e-05
2.04314e-07
9.73664e-05
2.27046e-07
9.73821e-05
2.46951e-07
9.73977e-05
2.64712e-07
9.7413e-05
2.80939e-07
9.74279e-05
2.96143e-07
9.74425e-05
3.10749e-07
9.74565e-05
3.25114e-07
9.74702e-05
3.39533e-07
9.74836e-05
3.54249e-07
9.74967e-05
3.69463e-07
9.75096e-05
3.85331e-07
9.75226e-05
4.01977e-07
9.75357e-05
4.19485e-07
9.75493e-05
4.379e-07
9.75635e-05
4.57225e-07
9.75787e-05
4.77415e-07
9.75952e-05
4.98371e-07
9.76132e-05
5.19938e-07
9.76333e-05
5.41892e-07
9.76556e-05
5.63949e-07
9.76805e-05
5.8576e-07
9.77084e-05
6.06922e-07
9.77392e-05
6.26994e-07
9.77732e-05
6.45516e-07
9.78102e-05
6.62043e-07
9.785e-05
6.76171e-07
6.876e-07
9.78923e-05
0.000100071
2.21549e-08
0.000100078
6.42061e-08
0.000100087
1.02072e-07
0.000100099
1.35321e-07
0.000100113
1.64231e-07
0.000100128
1.89408e-07
0.000100144
2.11488e-07
0.000100159
2.31087e-07
0.000100175
2.48787e-07
0.000100191
2.65116e-07
0.000100207
2.80523e-07
0.000100222
2.95386e-07
0.000100237
3.10019e-07
0.000100252
3.24683e-07
0.000100267
3.39589e-07
0.000100281
3.54905e-07
0.000100296
3.70762e-07
0.000100311
3.87251e-07
0.000100326
4.04425e-07
0.000100341
4.223e-07
0.000100358
4.40852e-07
0.000100375
4.60009e-07
0.000100394
4.79655e-07
0.000100414
4.99622e-07
0.000100436
5.1969e-07
0.000100461
5.39594e-07
0.000100487
5.5902e-07
0.000100517
5.77624e-07
0.000100549
5.9504e-07
0.000100583
6.10904e-07
0.00010062
6.24872e-07
0.00010066
6.36645e-07
6.46012e-07
0.000100702
0.00010293
2.00714e-08
0.000102936
5.82337e-08
0.000102945
9.28481e-08
0.000102957
1.23601e-07
0.000102971
1.50699e-07
0.000102985
1.74613e-07
0.000103001
1.95868e-07
0.000103017
2.14979e-07
0.000103033
2.3244e-07
0.00010305
2.48699e-07
0.000103066
2.64146e-07
0.000103083
2.79107e-07
0.000103099
2.93857e-07
0.000103115
3.08617e-07
0.000103131
3.23568e-07
0.000103147
3.38847e-07
0.000103163
3.54555e-07
0.00010318
3.70756e-07
0.000103196
3.87478e-07
0.000103214
4.04712e-07
0.000103233
4.22411e-07
0.000103252
4.40488e-07
0.000103273
4.58815e-07
0.000103295
4.77225e-07
0.000103319
4.95509e-07
0.000103346
5.13424e-07
0.000103374
5.30697e-07
0.000103405
5.47036e-07
0.000103437
5.62145e-07
0.000103473
5.75736e-07
0.00010351
5.87547e-07
0.000103549
5.97357e-07
6.05023e-07
0.00010359
0.000105871
1.80753e-08
0.000105876
5.24943e-08
0.000105885
8.39157e-08
0.000105897
1.12131e-07
0.00010591
1.37307e-07
0.000105925
1.59815e-07
0.000105941
1.80083e-07
0.000105957
1.98536e-07
0.000105974
2.15588e-07
0.000105991
2.31613e-07
0.000106008
2.46942e-07
0.000106026
2.6185e-07
0.000106043
2.76569e-07
0.00010606
2.91286e-07
0.000106078
3.06146e-07
0.000106095
3.21259e-07
0.000106113
3.36697e-07
0.000106131
3.525e-07
0.00010615
3.68673e-07
0.00010617
3.85187e-07
0.00010619
4.01982e-07
0.000106212
4.18959e-07
0.000106235
4.35988e-07
0.000106259
4.52907e-07
0.000106285
4.69523e-07
0.000106313
4.8562e-07
0.000106342
5.00964e-07
0.000106374
5.15312e-07
0.000106408
5.28425e-07
0.000106443
5.40078e-07
0.000106481
5.50075e-07
0.00010652
5.58253e-07
5.64519e-07
0.000106561
0.000108895
1.61335e-08
0.000108901
4.68972e-08
0.00010891
7.51511e-08
0.000108921
1.0078e-07
0.000108934
1.23929e-07
0.000108949
1.44896e-07
0.000108965
1.64023e-07
0.000108982
1.81659e-07
0.000109
1.98141e-07
0.000109018
2.13777e-07
0.000109036
2.28837e-07
0.000109054
2.43549e-07
0.000109072
2.58102e-07
0.000109091
2.72644e-07
0.00010911
2.8729e-07
0.000109129
3.0212e-07
0.000109149
3.17183e-07
0.000109169
3.32495e-07
0.000109189
3.48043e-07
0.000109211
3.63785e-07
0.000109233
3.79647e-07
0.000109256
3.95528e-07
0.000109281
4.113e-07
0.000109307
4.2681e-07
0.000109335
4.41885e-07
0.000109364
4.56335e-07
0.000109395
4.69963e-07
0.000109428
4.8257e-07
0.000109462
4.93964e-07
0.000109498
5.03973e-07
0.000109536
5.1245e-07
0.000109575
5.19277e-07
5.24399e-07
0.000109615
0.000112006
1.42159e-08
0.000112012
4.13595e-08
0.000112021
6.64374e-08
0.000112032
8.94167e-08
0.000112046
1.10435e-07
0.000112061
1.29729e-07
0.000112077
1.47573e-07
0.000112095
1.64243e-07
0.000112113
1.80006e-07
0.000112131
1.95107e-07
0.00011215
2.09758e-07
0.00011217
2.2414e-07
0.00011219
2.38398e-07
0.00011221
2.52646e-07
0.00011223
2.66967e-07
0.000112251
2.81414e-07
0.000112272
2.96013e-07
0.000112293
3.10761e-07
0.000112316
3.25629e-07
0.000112339
3.40564e-07
0.000112363
3.55486e-07
0.000112389
3.70295e-07
0.000112415
3.84866e-07
0.000112443
3.99062e-07
0.000112472
4.12726e-07
0.000112502
4.25698e-07
0.000112535
4.37811e-07
0.000112568
4.48904e-07
0.000112603
4.58827e-07
0.00011264
4.67448e-07
0.000112678
4.74658e-07
0.000112717
4.80377e-07
4.84572e-07
0.000112756
0.000115206
1.22944e-08
0.000115212
3.58018e-08
0.000115221
5.76603e-08
0.000115232
7.79107e-08
0.000115246
9.66886e-08
0.000115262
1.14185e-07
0.000115278
1.30609e-07
0.000115297
1.46174e-07
0.000115315
1.6108e-07
0.000115335
1.7551e-07
0.000115355
1.89624e-07
0.000115376
2.03554e-07
0.000115397
2.17403e-07
0.000115418
2.31251e-07
0.00011544
2.45151e-07
0.000115462
2.5913e-07
0.000115485
2.73193e-07
0.000115509
2.8732e-07
0.000115533
3.01471e-07
0.000115558
3.15584e-07
0.000115584
3.29578e-07
0.000115611
3.43352e-07
0.000115639
3.56792e-07
0.000115668
3.69773e-07
0.000115698
3.8216e-07
0.00011573
3.93814e-07
0.000115764
4.04599e-07
0.000115798
4.14387e-07
0.000115834
4.23059e-07
0.000115871
4.30516e-07
0.000115909
4.36681e-07
0.000115948
4.41498e-07
4.44955e-07
0.000115987
0.000118498
1.0341e-08
0.000118503
3.01456e-08
0.000118512
4.87047e-08
0.000118524
6.61267e-08
0.000118538
8.25494e-08
0.000118554
9.81228e-08
0.000118572
1.13e-07
0.000118591
1.2733e-07
0.000118611
1.41252e-07
0.000118631
1.54891e-07
0.000118653
1.68353e-07
0.000118674
1.81721e-07
0.000118697
1.95061e-07
0.00011872
2.08418e-07
0.000118743
2.21815e-07
0.000118767
2.35256e-07
0.000118791
2.48728e-07
0.000118816
2.62196e-07
0.000118842
2.7561e-07
0.000118869
2.88902e-07
0.000118897
3.01991e-07
0.000118925
3.14782e-07
0.000118955
3.27169e-07
0.000118985
3.3904e-07
0.000119017
3.50279e-07
0.00011905
3.6077e-07
0.000119085
3.70402e-07
0.00011912
3.79072e-07
0.000119156
3.86689e-07
0.000119194
3.93181e-07
0.000119232
3.98493e-07
0.000119271
4.02588e-07
4.05469e-07
0.00011931
0.000121883
8.32691e-09
0.000121889
2.4309e-08
0.000121898
3.9449e-08
0.000121911
5.39206e-08
0.000121925
6.78645e-08
0.000121942
8.13921e-08
0.00012196
9.46005e-08
0.00012198
1.07579e-07
0.000122001
1.20405e-07
0.000122023
1.33146e-07
0.000122045
1.45853e-07
0.000122068
1.58568e-07
0.000122092
1.71313e-07
0.000122116
1.84102e-07
0.000122141
1.96931e-07
0.000122167
2.09782e-07
0.000122193
2.22624e-07
0.00012222
2.35409e-07
0.000122247
2.48081e-07
0.000122276
2.60569e-07
0.000122305
2.72791e-07
0.000122335
2.84658e-07
0.000122366
2.96075e-07
0.000122398
3.06942e-07
0.000122431
3.17161e-07
0.000122465
3.26635e-07
0.0001225
3.35274e-07
0.000122537
3.42997e-07
0.000122574
3.49736e-07
0.000122611
3.55437e-07
0.00012265
3.60064e-07
0.000122689
3.63595e-07
3.66041e-07
0.000122728
0.000125366
6.22048e-09
0.000125372
1.82022e-08
0.000125381
2.97598e-08
0.000125394
4.11332e-08
0.00012541
5.2465e-08
0.000125427
6.38252e-08
0.000125446
7.52527e-08
0.000125467
8.67743e-08
0.000125489
9.84073e-08
0.000125512
1.10159e-07
0.000125536
1.22031e-07
0.000125561
1.34014e-07
0.000125586
1.46098e-07
0.000125612
1.5826e-07
0.000125638
1.70473e-07
0.000125665
1.82696e-07
0.000125693
1.94884e-07
0.000125721
2.0698e-07
0.000125751
2.18919e-07
0.00012578
2.30629e-07
0.000125811
2.42032e-07
0.000125843
2.53043e-07
0.000125875
2.63576e-07
0.000125909
2.73546e-07
0.000125943
2.82867e-07
0.000125978
2.91461e-07
0.000126014
2.99255e-07
0.000126051
3.06186e-07
0.000126089
3.12204e-07
0.000126127
3.17269e-07
0.000126165
3.2136e-07
0.000126205
3.24466e-07
3.26602e-07
0.000126244
0.000128947
3.98529e-09
0.000128954
1.17214e-08
0.000128964
1.9483e-08
0.000128978
2.7582e-08
0.000128994
3.6159e-08
0.000129013
4.52332e-08
0.000129033
5.4778e-08
0.000129055
6.47543e-08
0.000129078
7.51152e-08
0.000129103
8.5808e-08
0.000129128
9.67789e-08
0.000129154
1.07976e-07
0.000129181
1.19348e-07
0.000129208
1.30843e-07
0.000129236
1.42407e-07
0.000129265
1.53983e-07
0.000129294
1.6551e-07
0.000129324
1.76923e-07
0.000129355
1.88151e-07
0.000129387
1.99122e-07
0.000129419
2.09759e-07
0.000129452
2.19986e-07
0.000129486
2.29725e-07
0.00012952
2.38901e-07
0.000129556
2.47443e-07
0.000129592
2.55285e-07
0.000129629
2.62371e-07
0.000129666
2.68651e-07
0.000129705
2.74088e-07
0.000129743
2.78657e-07
0.000129782
2.82344e-07
0.000129822
2.85146e-07
2.87084e-07
0.000129861
0.000132631
1.57676e-09
0.000132638
4.73939e-09
0.00013265
8.43201e-09
0.000132664
1.30498e-08
0.000132681
1.87213e-08
0.000132701
2.53973e-08
0.000132723
3.29726e-08
0.000132747
4.13348e-08
0.000132771
5.03674e-08
0.000132797
5.99535e-08
0.000132824
6.99832e-08
0.000132852
8.03583e-08
0.00013288
9.09901e-08
0.000132909
1.01796e-07
0.000132939
1.12699e-07
0.000132969
1.23624e-07
0.000133
1.34498e-07
0.000133032
1.45246e-07
0.000133064
1.55796e-07
0.000133097
1.66075e-07
0.000133131
1.76009e-07
0.000133165
1.85528e-07
0.0001332
1.94562e-07
0.000133236
2.03046e-07
0.000133273
2.10921e-07
0.00013331
2.18132e-07
0.000133348
2.24634e-07
0.000133386
2.30391e-07
0.000133425
2.35375e-07
0.000133464
2.39571e-07
0.000133503
2.42971e-07
0.000133543
2.45579e-07
2.47416e-07
0.000133582
0.000136421
-1.06277e-09
0.000136429
-2.90774e-09
0.000136441
-3.62984e-09
0.000136456
-2.73234e-09
0.000136475
-1.19148e-10
0.000136497
4.05961e-09
0.00013652
9.59969e-09
0.000136545
1.6305e-08
0.000136571
2.39819e-08
0.000136599
3.24421e-08
0.000136627
4.15164e-08
0.000136657
5.10593e-08
0.000136687
6.09445e-08
0.000136717
7.10606e-08
0.000136749
8.13074e-08
0.000136781
9.15937e-08
0.000136814
1.01835e-07
0.000136847
1.11951e-07
0.000136881
1.21866e-07
0.000136915
1.31508e-07
0.000136951
1.40806e-07
0.000136986
1.49695e-07
0.000137023
1.58113e-07
0.00013706
1.66004e-07
0.000137097
1.73317e-07
0.000137136
1.80009e-07
0.000137174
1.86044e-07
0.000137213
1.91394e-07
0.000137252
1.96041e-07
0.000137292
1.99975e-07
0.000137332
2.03194e-07
0.000137372
2.05706e-07
2.07532e-07
0.000137412
0.000140319
-4.01216e-09
0.000140327
-1.14437e-08
0.000140341
-1.70174e-08
0.000140358
-2.01082e-08
0.000140379
-2.06969e-08
0.000140402
-1.90905e-08
0.000140427
-1.56204e-08
0.000140454
-1.05792e-08
0.000140482
-4.2499e-09
0.000140511
3.09911e-09
0.000140542
1.1235e-08
0.000140573
1.99638e-08
0.000140605
2.91221e-08
0.000140637
3.85695e-08
0.00014067
4.81849e-08
0.000140704
5.78623e-08
0.000140738
6.75074e-08
0.000140773
7.70352e-08
0.000140809
8.63675e-08
0.000140845
9.54328e-08
0.000140881
1.04165e-07
0.000140919
1.12503e-07
0.000140956
1.20393e-07
0.000140995
1.27785e-07
0.000141033
1.34637e-07
0.000141072
1.40914e-07
0.000141112
1.46588e-07
0.000141152
1.51637e-07
0.000141192
1.5605e-07
0.000141232
1.59822e-07
0.000141272
1.62954e-07
0.000141312
1.65455e-07
1.67347e-07
0.000141352
0.000144328
-7.38567e-09
0.000144338
-2.11904e-08
0.000144353
-3.21665e-08
0.000144372
-3.95306e-08
0.000144395
-4.34355e-08
0.00014442
-4.44348e-08
0.000144448
-4.30203e-08
0.000144477
-3.95979e-08
0.000144507
-3.45592e-08
0.000144538
-2.82656e-08
0.000144571
-2.10169e-08
0.000144604
-1.30549e-08
0.000144637
-4.57948e-09
0.000144672
4.24194e-09
0.000144707
1.32688e-08
0.000144742
2.23823e-08
0.000144778
3.14803e-08
0.000144815
4.04736e-08
0.000144852
4.92833e-08
0.000144889
5.78394e-08
0.000144928
6.60793e-08
0.000144966
7.39475e-08
0.000145005
8.1395e-08
0.000145044
8.83796e-08
0.000145084
9.48659e-08
0.000145124
1.00825e-07
0.000145165
1.06235e-07
0.000145205
1.11081e-07
0.000145246
1.15356e-07
0.000145287
1.19057e-07
0.000145327
1.22189e-07
0.000145368
1.24764e-07
1.26802e-07
0.000145409
0.000148452
-1.1359e-08
0.000148463
-3.26407e-08
0.000148481
-4.97049e-08
0.000148503
-6.16006e-08
0.000148528
-6.88725e-08
0.000148556
-7.24563e-08
0.000148586
-7.30219e-08
0.000148618
-7.11028e-08
0.000148651
-6.72296e-08
0.000148684
-6.18752e-08
0.000148719
-5.54109e-08
0.000148754
-4.81261e-08
0.000148789
-4.02555e-08
0.000148826
-3.19918e-08
0.000148862
-2.34914e-08
0.0001489
-1.4883e-08
0.000148937
-6.27395e-09
0.000148976
2.2447e-09
0.000149014
1.05948e-08
0.000149053
1.87089e-08
0.000149093
2.65286e-08
0.000149133
3.40035e-08
0.000149173
4.10902e-08
0.000149214
4.77525e-08
0.000149255
5.39608e-08
0.000149296
5.96916e-08
0.000149337
6.49282e-08
0.000149379
6.96597e-08
0.00014942
7.3881e-08
0.000149462
7.75928e-08
0.000149503
8.08002e-08
0.000149544
8.35125e-08
8.57484e-08
0.000149585
0.000152694
-1.62139e-08
0.000152708
-4.65941e-08
0.000152729
-7.05924e-08
0.000152754
-8.71446e-08
0.000152783
-9.76709e-08
0.000152814
-1.03697e-07
0.000152847
-1.0607e-07
0.000152882
-1.05467e-07
0.000152917
-1.02588e-07
0.000152953
-9.80235e-08
0.00015299
-9.22121e-08
0.000153027
-8.54873e-08
0.000153065
-7.8118e-08
0.000153104
-7.03191e-08
0.000153142
-6.22606e-08
0.000153182
-5.40778e-08
0.000153221
-4.58811e-08
0.000153261
-3.77616e-08
0.000153302
-2.9795e-08
0.000153342
-2.20449e-08
0.000153383
-1.4565e-08
0.000153425
-7.40027e-09
0.000153467
-5.88362e-10
0.000153508
5.83991e-09
0.000153551
1.18601e-08
0.000153593
1.74536e-08
0.000153635
2.26076e-08
0.000153677
2.73147e-08
0.00015372
3.15726e-08
0.000153762
3.53839e-08
0.000153804
3.8756e-08
0.000153846
4.17007e-08
4.42356e-08
0.000153887
0.000157058
-2.24706e-08
0.000157075
-6.43532e-08
0.000157101
-9.6254e-08
0.000157131
-1.17416e-07
0.000157165
-1.30954e-07
0.0001572
-1.39095e-07
0.000157237
-1.42851e-07
0.000157275
-1.43155e-07
0.000157313
-1.40949e-07
0.000157352
-1.36936e-07
0.000157391
-1.31599e-07
0.000157431
-1.25299e-07
0.000157471
-1.18328e-07
0.000157512
-1.1091e-07
0.000157553
-1.0322e-07
0.000157594
-9.53911e-08
0.000157636
-8.75335e-08
0.000157678
-7.97347e-08
0.00015772
-7.20665e-08
0.000157763
-6.45877e-08
0.000157805
-5.73473e-08
0.000157848
-5.03855e-08
0.000157891
-4.37352e-08
0.000157935
-3.74231e-08
0.000157978
-3.14697e-08
0.000158021
-2.58905e-08
0.000158065
-2.06958e-08
0.000158108
-1.58916e-08
0.000158151
-1.14798e-08
0.000158194
-7.45897e-09
0.000158236
-3.82507e-09
0.000158279
-5.7273e-10
2.31159e-09
0.000158321
0.000161547
-3.13514e-08
0.000161572
-8.85717e-08
0.000161604
-1.28384e-07
0.00016164
-1.53371e-07
0.000161678
-1.69779e-07
0.000161719
-1.79953e-07
0.000161761
-1.84812e-07
0.000161804
-1.85677e-07
0.000161847
-1.83806e-07
0.00016189
-1.80015e-07
0.000161933
-1.7483e-07
0.000161976
-1.68648e-07
0.00016202
-1.61782e-07
0.000162063
-1.54465e-07
0.000162107
-1.4687e-07
0.000162151
-1.39129e-07
0.000162195
-1.31347e-07
0.000162238
-1.23606e-07
0.000162282
-1.15974e-07
0.000162326
-1.08506e-07
0.00016237
-1.01245e-07
0.000162414
-9.4228e-08
0.000162458
-8.74844e-08
0.000162501
-8.10378e-08
0.000162545
-7.49062e-08
0.000162588
-6.91029e-08
0.000162631
-6.36367e-08
0.000162674
-5.85122e-08
0.000162716
-5.373e-08
0.000162758
-4.92867e-08
0.000162799
-4.5175e-08
0.00016284
-4.13828e-08
-3.78994e-08
0.00016288
0.000166166
-4.41068e-08
0.000166205
-1.26808e-07
0.000166249
-1.73069e-07
0.000166295
-1.99458e-07
0.000166343
-2.17452e-07
0.000166392
-2.28633e-07
0.000166441
-2.33764e-07
0.00016649
-2.34602e-07
0.000166538
-2.32563e-07
0.000166587
-2.28443e-07
0.000166635
-2.2277e-07
0.000166682
-2.15983e-07
0.000166729
-2.0843e-07
0.000166775
-2.00372e-07
0.00016682
-1.92e-07
0.000166864
-1.83467e-07
0.000166908
-1.74891e-07
0.00016695
-1.66365e-07
0.000166992
-1.57962e-07
0.000167034
-1.4974e-07
0.000167074
-1.41744e-07
0.000167114
-1.3401e-07
0.000167153
-1.26565e-07
0.000167191
-1.19431e-07
0.000167229
-1.12621e-07
0.000167266
-1.06147e-07
0.000167302
-1.00014e-07
0.000167338
-9.42241e-08
0.000167373
-8.87774e-08
0.000167408
-8.36721e-08
0.000167441
-7.89054e-08