/*--------------------------------*- C++ -*----------------------------------*\
| =========                 |                                                 |
| \\      /  F ield         | OpenFOAM: The Open Source CFD Toolbox           |
|  \\    /   O peration     | Version:  4.1                                   |
|   \\  /    A nd           | Web:      www.OpenFOAM.org                      |
|    \\/     M anipulation  |                                                 |
\*---------------------------------------------------------------------------*/
FoamFile
{
    version     2.0;
    format      ascii;
    class       volVectorField;
    location    "1600";
    object      U;
}
// * * * * * * * * * * * * * * * * * * * * * * * * * * * * * * * * * * * * * //

dimensions      [0 1 -1 0 0 0 0];

internalField   nonuniform List<vector> 
6820
(
(7.30076 0.0105784 0)
(7.26066 0.0145399 0)
(7.22719 0.0116116 0)
(7.19817 0.00889176 0)
(7.17426 0.00729669 0)
(7.15367 0.00634274 0)
(7.13496 0.00573843 0)
(7.11768 0.00533705 0)
(7.10162 0.00504577 0)
(7.08659 0.0048162 0)
(7.07241 0.00462903 0)
(7.05895 0.00447631 0)
(7.04611 0.00435344 0)
(7.0338 0.00425745 0)
(7.02193 0.00418664 0)
(7.01042 0.00414047 0)
(6.99921 0.00411936 0)
(6.98821 0.00412489 0)
(6.97735 0.00415996 0)
(6.96654 0.00422924 0)
(6.9557 0.00433977 0)
(6.94472 0.0045022 0)
(6.93345 0.00473275 0)
(6.92172 0.00505695 0)
(6.90928 0.00551663 0)
(6.89577 0.00618511 0)
(6.88066 0.00719839 0)
(6.86282 0.00883029 0)
(6.84108 0.0117059 0)
(6.80907 0.0171959 0)
(6.77013 0.0286574 0)
(6.65292 0.0702462 0)
(6.63986 -0.0294844 0)
(7.3396 0.0129479 0)
(7.34154 0.0168193 0)
(7.32732 0.0138363 0)
(7.30715 0.0119873 0)
(7.28756 0.0109488 0)
(7.26941 0.0100964 0)
(7.25237 0.00941845 0)
(7.23638 0.00890365 0)
(7.22139 0.00849464 0)
(7.20725 0.00815862 0)
(7.19383 0.00788318 0)
(7.18104 0.00766033 0)
(7.16879 0.00748361 0)
(7.15702 0.00734893 0)
(7.14566 0.00725433 0)
(7.13465 0.00719957 0)
(7.12392 0.00718602 0)
(7.11341 0.00721689 0)
(7.10308 0.00729761 0)
(7.09284 0.00743647 0)
(7.08264 0.00764583 0)
(7.07238 0.00794397 0)
(7.06199 0.0083584 0)
(7.05134 0.00893168 0)
(7.04028 0.00973288 0)
(7.02863 0.0108774 0)
(7.01617 0.0125824 0)
(7.00245 0.0152277 0)
(6.98757 0.0197909 0)
(6.96982 0.0276057 0)
(6.95497 0.0454626 0)
(6.93761 0.0768941 0)
(6.97923 0.17082 0)
(7.33613 0.0108741 0)
(7.34462 0.0173199 0)
(7.34579 0.0178696 0)
(7.34012 0.0178781 0)
(7.33147 0.0174236 0)
(7.3215 0.0166041 0)
(7.31078 0.0157929 0)
(7.29981 0.0151132 0)
(7.2889 0.0145454 0)
(7.27817 0.0140684 0)
(7.26765 0.0136723 0)
(7.25736 0.0133488 0)
(7.2473 0.0130912 0)
(7.23745 0.0128958 0)
(7.2278 0.0127615 0)
(7.2183 0.0126893 0)
(7.20894 0.0126825 0)
(7.19967 0.012747 0)
(7.19045 0.012892 0)
(7.18123 0.013131 0)
(7.17194 0.0134834 0)
(7.16253 0.0139772 0)
(7.15291 0.0146538 0)
(7.14296 0.0155747 0)
(7.13256 0.0168359 0)
(7.12154 0.0185884 0)
(7.10969 0.021097 0)
(7.0967 0.0247746 0)
(7.08257 0.0305517 0)
(7.06668 0.0394932 0)
(7.05207 0.0556634 0)
(7.03854 0.0799783 0)
(7.05087 0.126601 0)
(7.33465 0.00788232 0)
(7.34191 0.0151073 0)
(7.34712 0.0174406 0)
(7.34828 0.0186843 0)
(7.34686 0.0192152 0)
(7.3437 0.0191487 0)
(7.3391 0.0188428 0)
(7.33348 0.0184847 0)
(7.32722 0.0181224 0)
(7.32055 0.0177799 0)
(7.31362 0.0174766 0)
(7.30651 0.0172227 0)
(7.29929 0.0170229 0)
(7.29201 0.0168815 0)
(7.28466 0.0168032 0)
(7.27728 0.0167938 0)
(7.26984 0.0168612 0)
(7.26234 0.0170156 0)
(7.25475 0.0172714 0)
(7.24705 0.0176478 0)
(7.23918 0.0181715 0)
(7.23111 0.0188801 0)
(7.22277 0.0198266 0)
(7.21406 0.0210886 0)
(7.20491 0.0227819 0)
(7.19518 0.0250812 0)
(7.18476 0.0282697 0)
(7.1735 0.0327624 0)
(7.16152 0.0393401 0)
(7.14886 0.048822 0)
(7.13745 0.0634382 0)
(7.12824 0.0825416 0)
(7.13114 0.111087 0)
(7.334 0.00602358 0)
(7.33938 0.0130427 0)
(7.3447 0.0160233 0)
(7.34792 0.0178453 0)
(7.34963 0.0190481 0)
(7.35018 0.0196458 0)
(7.34954 0.0198905 0)
(7.34784 0.0199704 0)
(7.34532 0.0199581 0)
(7.34218 0.0198965 0)
(7.33851 0.0198222 0)
(7.33444 0.0197602 0)
(7.33003 0.019727 0)
(7.32535 0.0197357 0)
(7.32043 0.0197986 0)
(7.31529 0.0199277 0)
(7.30995 0.0201364 0)
(7.30441 0.0204404 0)
(7.29867 0.0208594 0)
(7.29272 0.0214188 0)
(7.28652 0.022152 0)
(7.28005 0.0231045 0)
(7.27326 0.0243387 0)
(7.2661 0.0259422 0)
(7.25852 0.0280412 0)
(7.25044 0.0308163 0)
(7.24185 0.0345387 0)
(7.23274 0.0395802 0)
(7.22332 0.0465323 0)
(7.21397 0.0559661 0)
(7.20604 0.0689979 0)
(7.20081 0.0849731 0)
(7.20245 0.10532 0)
(7.33365 0.00478001 0)
(7.33758 0.0112543 0)
(7.34215 0.0145221 0)
(7.34564 0.0166278 0)
(7.34826 0.0181729 0)
(7.35025 0.0191688 0)
(7.35148 0.0197984 0)
(7.35195 0.0202317 0)
(7.35176 0.0205412 0)
(7.35098 0.0207687 0)
(7.34969 0.0209523 0)
(7.34794 0.0211222 0)
(7.34578 0.0213005 0)
(7.34327 0.0215058 0)
(7.34043 0.0217553 0)
(7.33728 0.0220661 0)
(7.33386 0.0224562 0)
(7.33015 0.022946 0)
(7.32618 0.0235601 0)
(7.32192 0.0243286 0)
(7.31738 0.0252906 0)
(7.31252 0.0264968 0)
(7.30734 0.0280151 0)
(7.30179 0.0299373 0)
(7.29587 0.0323895 0)
(7.28957 0.0355433 0)
(7.28291 0.0396365 0)
(7.276 0.044972 0)
(7.26911 0.0519611 0)
(7.26271 0.0609554 0)
(7.25779 0.0724279 0)
(7.25546 0.0858116 0)
(7.25756 0.100977 0)
(7.33343 0.00388675 0)
(7.33634 0.00974916 0)
(7.34013 0.0131376 0)
(7.34337 0.0153881 0)
(7.34606 0.0170936 0)
(7.34839 0.0183084 0)
(7.35029 0.0191738 0)
(7.35169 0.019841 0)
(7.35263 0.0203817 0)
(7.35314 0.0208349 0)
(7.35324 0.0212359 0)
(7.35295 0.0216144 0)
(7.3523 0.0219936 0)
(7.35131 0.0223937 0)
(7.34999 0.0228342 0)
(7.34836 0.0233346 0)
(7.34644 0.0239157 0)
(7.34422 0.0246012 0)
(7.3417 0.0254185 0)
(7.3389 0.0264013 0)
(7.33579 0.0275916 0)
(7.33238 0.0290429 0)
(7.32865 0.0308244 0)
(7.32461 0.033026 0)
(7.32026 0.0357658 0)
(7.31563 0.0391955 0)
(7.3108 0.0435093 0)
(7.30593 0.0489342 0)
(7.3013 0.0557323 0)
(7.29736 0.0640841 0)
(7.29484 0.0741108 0)
(7.29454 0.085318 0)
(7.29732 0.0971373 0)
(7.3333 0.0032316 0)
(7.33547 0.00850289 0)
(7.33859 0.0118949 0)
(7.3415 0.0142191 0)
(7.34402 0.0160062 0)
(7.3463 0.0173493 0)
(7.34832 0.0183617 0)
(7.35001 0.019177 0)
(7.35138 0.0198693 0)
(7.35246 0.0204784 0)
(7.35324 0.0210381 0)
(7.35372 0.0215769 0)
(7.35392 0.0221181 0)
(7.35385 0.0226823 0)
(7.35349 0.0232894 0)
(7.35286 0.02396 0)
(7.35197 0.0247162 0)
(7.3508 0.025583 0)
(7.34936 0.0265894 0)
(7.34766 0.0277705 0)
(7.34568 0.0291691 0)
(7.34342 0.0308385 0)
(7.3409 0.0328453 0)
(7.33813 0.0352731 0)
(7.33512 0.0382259 0)
(7.33195 0.04183 0)
(7.32872 0.0462336 0)
(7.32559 0.0515934 0)
(7.32284 0.0580579 0)
(7.32086 0.065689 0)
(7.32015 0.0744339 0)
(7.32128 0.0838729 0)
(7.32463 0.0934196 0)
(7.33321 0.00274269 0)
(7.33487 0.007472 0)
(7.33744 0.0107865 0)
(7.34 0.0131403 0)
(7.34231 0.0149717 0)
(7.34445 0.0163965 0)
(7.3464 0.0175087 0)
(7.34812 0.018425 0)
(7.3496 0.0192203 0)
(7.35087 0.019937 0)
(7.35192 0.0206087 0)
(7.35275 0.0212642 0)
(7.35337 0.0219272 0)
(7.35377 0.0226186 0)
(7.35394 0.0233589 0)
(7.3539 0.0241689 0)
(7.35363 0.0250713 0)
(7.35314 0.0260915 0)
(7.35243 0.0272589 0)
(7.35148 0.0286083 0)
(7.35031 0.0301814 0)
(7.34892 0.0320289 0)
(7.34732 0.034212 0)
(7.34554 0.0368044 0)
(7.34362 0.0398931 0)
(7.34163 0.0435769 0)
(7.33969 0.0479616 0)
(7.33796 0.0531447 0)
(7.33669 0.0591943 0)
(7.33617 0.0660974 0)
(7.33678 0.0737269 0)
(7.33887 0.0817337 0)
(7.34262 0.0896277 0)
(7.33315 0.0023691 0)
(7.33444 0.00661517 0)
(7.33656 0.00980033 0)
(7.33882 0.0121489 0)
(7.34092 0.0140007 0)
(7.3429 0.0154787 0)
(7.34474 0.0166641 0)
(7.3464 0.0176566 0)
(7.34787 0.018529 0)
(7.34917 0.0193259 0)
(7.35031 0.0200811 0)
(7.35127 0.0208241 0)
(7.35206 0.0215793 0)
(7.35269 0.0223684 0)
(7.35313 0.0232124 0)
(7.35341 0.0241324 0)
(7.3535 0.0251513 0)
(7.35341 0.0262944 0)
(7.35314 0.0275906 0)
(7.3527 0.0290733 0)
(7.35208 0.0307819 0)
(7.3513 0.0327624 0)
(7.35037 0.0350689 0)
(7.34934 0.0377634 0)
(7.34824 0.0409149 0)
(7.34717 0.044596 0)
(7.34623 0.0488759 0)
(7.34556 0.0538061 0)
(7.34538 0.0594015 0)
(7.34592 0.0656066 0)
(7.34742 0.0722717 0)
(7.35012 0.0791113 0)
(7.35408 0.0857457 0)
(7.33312 0.00207627 0)
(7.33413 0.00589807 0)
(7.3359 0.00892353 0)
(7.33788 0.0112378 0)
(7.33979 0.0130908 0)
(7.34161 0.0146012 0)
(7.34333 0.0158409 0)
(7.34492 0.016894 0)
(7.34635 0.0178289 0)
(7.34764 0.0186906 0)
(7.34878 0.0195133 0)
(7.34979 0.0203264 0)
(7.35065 0.0211552 0)
(7.35138 0.0220221 0)
(7.35196 0.0229482 0)
(7.3524 0.0239553 0)
(7.3527 0.0250661 0)
(7.35285 0.0263052 0)
(7.35287 0.0277004 0)
(7.35275 0.0292832 0)
(7.35251 0.0310893 0)
(7.35215 0.0331594 0)
(7.35171 0.0355391 0)
(7.35123 0.0382784 0)
(7.35076 0.0414289 0)
(7.35037 0.0450402 0)
(7.35017 0.0491521 0)
(7.35029 0.0537825 0)
(7.35089 0.0589131 0)
(7.35215 0.0644682 0)
(7.35423 0.0703012 0)
(7.35727 0.0761817 0)
(7.36128 0.0818244 0)
(7.33309 0.00184097 0)
(7.33391 0.00529252 0)
(7.33539 0.00814317 0)
(7.33713 0.0103996 0)
(7.33886 0.0122372 0)
(7.34054 0.0137628 0)
(7.34216 0.0150408 0)
(7.34366 0.0161421 0)
(7.34505 0.0171288 0)
(7.34631 0.0180452 0)
(7.34745 0.018925 0)
(7.34847 0.0197974 0)
(7.34937 0.020688 0)
(7.35015 0.0216193 0)
(7.35081 0.0226129 0)
(7.35135 0.0236902 0)
(7.35178 0.0248736 0)
(7.35209 0.0261869 0)
(7.3523 0.0276562 0)
(7.35241 0.0293101 0)
(7.35244 0.0311803 0)
(7.3524 0.0333016 0)
(7.35233 0.0357111 0)
(7.35226 0.0384467 0)
(7.35225 0.0415449 0)
(7.35238 0.0450359 0)
(7.35273 0.048937 0)
(7.35341 0.0532436 0)
(7.35456 0.0579183 0)
(7.35629 0.0628795 0)
(7.35871 0.0679944 0)
(7.36191 0.0730796 0)
(7.36588 0.0779226 0)
(7.33307 0.00164735 0)
(7.33374 0.00477563 0)
(7.33499 0.00744662 0)
(7.33652 0.0096271 0)
(7.3381 0.0114349 0)
(7.33966 0.0129609 0)
(7.34117 0.0142629 0)
(7.34261 0.0154006 0)
(7.34395 0.0164295 0)
(7.34518 0.0173917 0)
(7.34631 0.0183204 0)
(7.34734 0.0192438 0)
(7.34826 0.0201872 0)
(7.34908 0.0211731 0)
(7.3498 0.0222228 0)
(7.35042 0.0233573 0)
(7.35095 0.0245982 0)
(7.35139 0.0259678 0)
(7.35175 0.0274901 0)
(7.35205 0.0291908 0)
(7.35229 0.031097 0)
(7.3525 0.0332372 0)
(7.35272 0.0356404 0)
(7.35298 0.0383339 0)
(7.35334 0.0413409 0)
(7.35386 0.0446765 0)
(7.35462 0.0483418 0)
(7.35571 0.0523179 0)
(7.35722 0.0565583 0)
(7.35925 0.0609834 0)
(7.36187 0.0654786 0)
(7.36511 0.0698986 0)
(7.36896 0.0740855 0)
(7.33306 0.00148447 0)
(7.33362 0.00432903 0)
(7.33469 0.00682196 0)
(7.33604 0.00891325 0)
(7.33747 0.0106785 0)
(7.33892 0.0121921 0)
(7.34034 0.0135049 0)
(7.34172 0.0146676 0)
(7.34301 0.0157291 0)
(7.34423 0.0167288 0)
(7.34535 0.0176983 0)
(7.34639 0.0186649 0)
(7.34734 0.019653 0)
(7.3482 0.0206847 0)
(7.34897 0.0217806 0)
(7.34967 0.022961 0)
(7.35029 0.0242461 0)
(7.35084 0.0256566 0)
(7.35134 0.0272141 0)
(7.35179 0.0289406 0)
(7.35222 0.0308588 0)
(7.35265 0.0329914 0)
(7.35311 0.0353595 0)
(7.35364 0.0379814 0)
(7.35429 0.0408695 0)
(7.35512 0.0440275 0)
(7.3562 0.0474457 0)
(7.35758 0.0510968 0)
(7.35935 0.0549318 0)
(7.36157 0.0588774 0)
(7.36428 0.0628373 0)
(7.36749 0.0666969 0)
(7.37119 0.0703385 0)
(7.33305 0.00134461 0)
(7.33353 0.0039381 0)
(7.33445 0.00625818 0)
(7.33565 0.0082511 0)
(7.33696 0.00996311 0)
(7.3383 0.0114527 0)
(7.33965 0.0127644 0)
(7.34096 0.0139412 0)
(7.34223 0.0150256 0)
(7.34342 0.016054 0)
(7.34454 0.0170561 0)
(7.34559 0.0180579 0)
(7.34657 0.0190826 0)
(7.34747 0.0201514 0)
(7.34831 0.021284 0)
(7.34908 0.0224994 0)
(7.34979 0.0238164 0)
(7.35045 0.0252537 0)
(7.35107 0.02683 0)
(7.35168 0.028564 0)
(7.35228 0.030474 0)
(7.3529 0.0325769 0)
(7.35357 0.0348873 0)
(7.35434 0.0374157 0)
(7.35524 0.0401664 0)
(7.35631 0.0431347 0)
(7.35763 0.0463042 0)
(7.35923 0.0496437 0)
(7.36118 0.0531055 0)
(7.36351 0.0566248 0)
(7.36625 0.0601215 0)
(7.3694 0.0635059 0)
(7.37294 0.0666896 0)
(7.33304 0.00122222 0)
(7.33345 0.00359119 0)
(7.33426 0.00574526 0)
(7.33534 0.00763376 0)
(7.33654 0.00928332 0)
(7.33779 0.0107389 0)
(7.33907 0.0120384 0)
(7.34034 0.0132187 0)
(7.34156 0.0143165 0)
(7.34275 0.0153647 0)
(7.34387 0.0163909 0)
(7.34494 0.0174195 0)
(7.34595 0.0184722 0)
(7.3469 0.0195692 0)
(7.34779 0.0207287 0)
(7.34863 0.0219686 0)
(7.34944 0.0233056 0)
(7.3502 0.0247563 0)
(7.35095 0.0263366 0)
(7.3517 0.028062 0)
(7.35245 0.0299462 0)
(7.35325 0.0320014 0)
(7.35412 0.0342364 0)
(7.35508 0.0366557 0)
(7.35619 0.0392573 0)
(7.35747 0.0420312 0)
(7.35898 0.0449569 0)
(7.36075 0.0480028 0)
(7.36281 0.0511244 0)
(7.36521 0.0542656 0)
(7.36794 0.0573609 0)
(7.37102 0.0603398 0)
(7.37439 0.0631358 0)
(7.33304 0.00111319 0)
(7.3334 0.00327898 0)
(7.33411 0.00527423 0)
(7.33508 0.00705448 0)
(7.33619 0.0086339 0)
(7.33737 0.0100463 0)
(7.33859 0.0113237 0)
(7.33981 0.0124973 0)
(7.34102 0.013599 0)
(7.34219 0.014658 0)
(7.34332 0.0156996 0)
(7.34441 0.0167463 0)
(7.34545 0.0178183 0)
(7.34644 0.0189342 0)
(7.3474 0.020111 0)
(7.34832 0.0213646 0)
(7.34921 0.02271 0)
(7.35008 0.0241615 0)
(7.35095 0.0257323 0)
(7.35183 0.0274344 0)
(7.35274 0.029278 0)
(7.35369 0.0312708 0)
(7.35473 0.033417 0)
(7.35587 0.0357164 0)
(7.35715 0.0381628 0)
(7.3586 0.0407426 0)
(7.36026 0.043434 0)
(7.36215 0.0462062 0)
(7.3643 0.0490194 0)
(7.36673 0.0518257 0)
(7.36944 0.054572 0)
(7.37243 0.0572028 0)
(7.37566 0.0596677 0)
(7.33304 0.0010144 0)
(7.33335 0.00299392 0)
(7.334 0.00483711 0)
(7.33488 0.00650674 0)
(7.33591 0.00800951 0)
(7.33703 0.00937062 0)
(7.33819 0.0106166 0)
(7.33938 0.011774 0)
(7.34056 0.0128702 0)
(7.34173 0.0139309 0)
(7.34287 0.0149791 0)
(7.34398 0.0160351 0)
(7.34506 0.0171174 0)
(7.34611 0.018243 0)
(7.34712 0.0194272 0)
(7.34812 0.0206841 0)
(7.3491 0.0220268 0)
(7.35007 0.0234673 0)
(7.35105 0.025016 0)
(7.35206 0.0266821 0)
(7.3531 0.0284724 0)
(7.3542 0.0303911 0)
(7.35539 0.0324387 0)
(7.35668 0.0346114 0)
(7.35811 0.0369003 0)
(7.3597 0.0392901 0)
(7.36147 0.041759 0)
(7.36346 0.0442781 0)
(7.36566 0.0468125 0)
(7.3681 0.0493221 0)
(7.37078 0.0517637 0)
(7.37368 0.0540938 0)
(7.37677 0.0562741 0)
(7.33303 0.00092341 0)
(7.33332 0.00272982 0)
(7.3339 0.00442677 0)
(7.33472 0.00598422 0)
(7.33569 0.00740478 0)
(7.33675 0.00870716 0)
(7.33787 0.00991313 0)
(7.33903 0.0110453 0)
(7.3402 0.0121269 0)
(7.34137 0.0131804 0)
(7.34252 0.0142261 0)
(7.34366 0.0152825 0)
(7.34477 0.0163662 0)
(7.34587 0.0174921 0)
(7.34695 0.018674 0)
(7.34802 0.0199242 0)
(7.34908 0.0212536 0)
(7.35016 0.0226721 0)
(7.35124 0.0241877 0)
(7.35236 0.0258067 0)
(7.35353 0.0275333 0)
(7.35476 0.0293687 0)
(7.35608 0.0313107 0)
(7.3575 0.0333533 0)
(7.35906 0.0354855 0)
(7.36076 0.0376918 0)
(7.36262 0.039951 0)
(7.36467 0.0422373 0)
(7.36691 0.0445202 0)
(7.36935 0.0467664 0)
(7.37198 0.048941 0)
(7.3748 0.0510098 0)
(7.37777 0.0529435 0)
(7.33303 0.000838257 0)
(7.33329 0.00248152 0)
(7.33383 0.00403685 0)
(7.3346 0.00548087 0)
(7.33551 0.00681428 0)
(7.33653 0.00805112 0)
(7.33762 0.00920911 0)
(7.33876 0.0103073 0)
(7.33992 0.0113654 0)
(7.34109 0.0124029 0)
(7.34226 0.0134375 0)
(7.34342 0.0144855 0)
(7.34458 0.0155615 0)
(7.34572 0.0166787 0)
(7.34687 0.0178489 0)
(7.34801 0.0190826 0)
(7.34916 0.0203889 0)
(7.35032 0.0217753 0)
(7.35151 0.0232479 0)
(7.35273 0.0248106 0)
(7.35401 0.0264651 0)
(7.35536 0.0282105 0)
(7.35679 0.0300425 0)
(7.35833 0.0319537 0)
(7.35998 0.0339323 0)
(7.36177 0.035963 0)
(7.36371 0.0380261 0)
(7.36581 0.0400987 0)
(7.36806 0.0421548 0)
(7.37049 0.0441667 0)
(7.37307 0.0461063 0)
(7.3758 0.0479466 0)
(7.37867 0.0496653 0)
(7.33303 0.000757304 0)
(7.33327 0.00224461 0)
(7.33378 0.00366158 0)
(7.3345 0.00499086 0)
(7.33538 0.00623259 0)
(7.33636 0.00739749 0)
(7.33743 0.00849998 0)
(7.33855 0.00955598 0)
(7.3397 0.0105822 0)
(7.34088 0.011595 0)
(7.34207 0.0126098 0)
(7.34327 0.0136407 0)
(7.34446 0.0147003 0)
(7.34566 0.0157998 0)
(7.34686 0.0169494 0)
(7.34808 0.0181576 0)
(7.3493 0.0194316 0)
(7.35055 0.0207771 0)
(7.35183 0.0221982 0)
(7.35316 0.0236967 0)
(7.35454 0.0252726 0)
(7.35598 0.0269232 0)
(7.35752 0.028643 0)
(7.35915 0.0304235 0)
(7.36088 0.0322531 0)
(7.36274 0.034117 0)
(7.36473 0.0359974 0)
(7.36686 0.0378743 0)
(7.36913 0.0397256 0)
(7.37153 0.0415285 0)
(7.37406 0.0432604 0)
(7.37672 0.0449 0)
(7.37948 0.04643 0)
(7.33303 0.000679145 0)
(7.33326 0.0020152 0)
(7.33374 0.0032957 0)
(7.33443 0.00450856 0)
(7.33528 0.00565421 0)
(7.33624 0.00674108 0)
(7.33728 0.00778093 0)
(7.3384 0.00878693 0)
(7.33956 0.009773 0)
(7.34075 0.0107529 0)
(7.34196 0.0117396 0)
(7.34319 0.012745 0)
(7.34443 0.0137797 0)
(7.34568 0.0148532 0)
(7.34694 0.0159736 0)
(7.34822 0.0171478 0)
(7.34952 0.0183814 0)
(7.35084 0.0196781 0)
(7.35221 0.0210403 0)
(7.35362 0.0224684 0)
(7.35509 0.0239608 0)
(7.35663 0.0255136 0)
(7.35825 0.0271205 0)
(7.35995 0.0287726 0)
(7.36176 0.0304587 0)
(7.36367 0.0321651 0)
(7.3657 0.0338759 0)
(7.36785 0.0355737 0)
(7.37011 0.03724 0)
(7.37249 0.0388559 0)
(7.37497 0.0404034 0)
(7.37755 0.0418655 0)
(7.38022 0.043229 0)
(7.33303 0.000602533 0)
(7.33325 0.00178982 0)
(7.33371 0.00293425 0)
(7.33438 0.00402844 0)
(7.33521 0.00507357 0)
(7.33615 0.00607653 0)
(7.33719 0.00704688 0)
(7.3383 0.00799543 0)
(7.33947 0.00893357 0)
(7.34068 0.00987258 0)
(7.34192 0.0108231 0)
(7.34318 0.011795 0)
(7.34446 0.0127968 0)
(7.34576 0.0138362 0)
(7.34708 0.0149197 0)
(7.34842 0.0160524 0)
(7.34979 0.0172381 0)
(7.35119 0.0184792 0)
(7.35264 0.0197766 0)
(7.35413 0.0211294 0)
(7.35568 0.0225348 0)
(7.35729 0.0239882 0)
(7.35898 0.0254828 0)
(7.36075 0.0270099 0)
(7.36261 0.0285588 0)
(7.36457 0.030117 0)
(7.36662 0.0316705 0)
(7.36877 0.0332044 0)
(7.37103 0.0347031 0)
(7.37337 0.0361514 0)
(7.37581 0.0375345 0)
(7.37832 0.038839 0)
(7.3809 0.0400548 0)
(7.33302 0.000526311 0)
(7.33324 0.00156518 0)
(7.3337 0.00257249 0)
(7.33435 0.00354502 0)
(7.33517 0.00448496 0)
(7.3361 0.00539819 0)
(7.33714 0.00629245 0)
(7.33826 0.00717643 0)
(7.33944 0.00805923 0)
(7.34067 0.00894982 0)
(7.34194 0.00985664 0)
(7.34324 0.0107874 0)
(7.34456 0.0117489 0)
(7.34591 0.0127469 0)
(7.34728 0.0137862 0)
(7.34869 0.0148704 0)
(7.35012 0.0160018 0)
(7.35159 0.0171816 0)
(7.3531 0.0184094 0)
(7.35467 0.0196831 0)
(7.35628 0.0209994 0)
(7.35796 0.022353 0)
(7.35971 0.023737 0)
(7.36154 0.0251432 0)
(7.36344 0.0265614 0)
(7.36543 0.0279805 0)
(7.3675 0.0293884 0)
(7.36965 0.0307722 0)
(7.37189 0.032119 0)
(7.37421 0.0334163 0)
(7.37659 0.0346523 0)
(7.37904 0.0358163 0)
(7.38154 0.0369004 0)
(7.33302 0.000449368 0)
(7.33324 0.00133813 0)
(7.33369 0.0022057 0)
(7.33434 0.00305269 0)
(7.33515 0.00388243 0)
(7.33609 0.00470009 0)
(7.33714 0.00551186 0)
(7.33827 0.00632452 0)
(7.33947 0.00714501 0)
(7.34073 0.0079801 0)
(7.34202 0.00883612 0)
(7.34336 0.00971876 0)
(7.34473 0.010633 0)
(7.34612 0.0115828 0)
(7.34755 0.0125716 0)
(7.34901 0.0136013 0)
(7.35051 0.0146731 0)
(7.35204 0.0157868 0)
(7.35362 0.016941 0)
(7.35524 0.0181332 0)
(7.35692 0.0193591 0)
(7.35865 0.0206135 0)
(7.36045 0.0218895 0)
(7.36232 0.0231791 0)
(7.36426 0.0244734 0)
(7.36626 0.0257623 0)
(7.36834 0.0270353 0)
(7.3705 0.0282816 0)
(7.37271 0.0294904 0)
(7.375 0.0306514 0)
(7.37733 0.0317552 0)
(7.37972 0.0327932 0)
(7.38215 0.0337595 0)
(7.33302 0.000370577 0)
(7.33324 0.00110543 0)
(7.33369 0.00182903 0)
(7.33435 0.00254559 0)
(7.33517 0.00325965 0)
(7.33612 0.00397584 0)
(7.33718 0.00469891 0)
(7.33833 0.00543383 0)
(7.33955 0.0061855 0)
(7.34084 0.00695857 0)
(7.34217 0.00775731 0)
(7.34354 0.00858546 0)
(7.34496 0.00944619 0)
(7.3464 0.010342 0)
(7.34788 0.0112745 0)
(7.3494 0.0122445 0)
(7.35095 0.013252 0)
(7.35254 0.0142959 0)
(7.35417 0.0153739 0)
(7.35585 0.0164828 0)
(7.35758 0.0176182 0)
(7.35936 0.0187746 0)
(7.3612 0.0199455 0)
(7.3631 0.0211235 0)
(7.36506 0.0223004 0)
(7.36709 0.0234675 0)
(7.36917 0.0246156 0)
(7.37131 0.0257357 0)
(7.37351 0.0268187 0)
(7.37576 0.0278564 0)
(7.37805 0.0288409 0)
(7.38038 0.0297657 0)
(7.38274 0.030626 0)
(7.33302 0.00028874 0)
(7.33325 0.000863626 0)
(7.3337 0.00143723 0)
(7.33437 0.00201735 0)
(7.3352 0.00260974 0)
(7.33617 0.00321843 0)
(7.33726 0.0038468 0)
(7.33844 0.00449797 0)
(7.33969 0.00517485 0)
(7.34101 0.00588 0)
(7.34238 0.00661565 0)
(7.3438 0.00738366 0)
(7.34525 0.00818544 0)
(7.34675 0.00902192 0)
(7.34828 0.0098934 0)
(7.34984 0.0107995 0)
(7.35145 0.0117391 0)
(7.35309 0.0127102 0)
(7.35477 0.01371 0)
(7.3565 0.0147349 0)
(7.35827 0.0157802 0)
(7.3601 0.0168405 0)
(7.36197 0.0179098 0)
(7.3639 0.0189811 0)
(7.36588 0.0200472 0)
(7.36791 0.0211003 0)
(7.36999 0.0221328 0)
(7.37212 0.0231368 0)
(7.3743 0.0241051 0)
(7.37651 0.0250306 0)
(7.37876 0.0259073 0)
(7.38104 0.0267298 0)
(7.38334 0.0274945 0)
(7.33303 0.000202503 0)
(7.33325 0.000608849 0)
(7.33373 0.00102445 0)
(7.33441 0.00146085 0)
(7.33527 0.00192496 0)
(7.33627 0.00242006 0)
(7.33739 0.00294795 0)
(7.3386 0.00350985 0)
(7.33989 0.00410661 0)
(7.34125 0.00473866 0)
(7.34266 0.0054062 0)
(7.34412 0.0061092 0)
(7.34562 0.00684742 0)
(7.34716 0.00762029 0)
(7.34874 0.00842682 0)
(7.35035 0.00926553 0)
(7.352 0.0101344 0)
(7.35369 0.0110307 0)
(7.35542 0.0119513 0)
(7.35719 0.012892 0)
(7.35901 0.0138483 0)
(7.36086 0.0148149 0)
(7.36277 0.0157861 0)
(7.36471 0.0167557 0)
(7.36671 0.0177171 0)
(7.36874 0.0186637 0)
(7.37082 0.0195888 0)
(7.37294 0.0204859 0)
(7.37509 0.021349 0)
(7.37727 0.0221723 0)
(7.37948 0.022951 0)
(7.38171 0.0236807 0)
(7.38395 0.0243588 0)
(7.33303 0.000110259 0)
(7.33327 0.000336483 0)
(7.33376 0.00058374 0)
(7.33448 0.000867745 0)
(7.33537 0.0011964 0)
(7.33641 0.0015718 0)
(7.33756 0.00199379 0)
(7.33882 0.00246153 0)
(7.34015 0.00297361 0)
(7.34156 0.00352826 0)
(7.34301 0.00412354 0)
(7.34452 0.00475757 0)
(7.34607 0.00542848 0)
(7.34765 0.00613426 0)
(7.34928 0.00687274 0)
(7.35094 0.00764145 0)
(7.35264 0.00843758 0)
(7.35437 0.0092579 0)
(7.35614 0.0100987 0)
(7.35795 0.0109559 0)
(7.35979 0.0118248 0)
(7.36168 0.0127004 0)
(7.3636 0.0135775 0)
(7.36556 0.0144502 0)
(7.36757 0.015313 0)
(7.3696 0.0161601 0)
(7.37167 0.0169856 0)
(7.37378 0.0177843 0)
(7.3759 0.0185509 0)
(7.37806 0.0192811 0)
(7.38023 0.0199706 0)
(7.38241 0.0206161 0)
(7.3846 0.0212155 0)
(7.33303 9.97473e-06 0)
(7.33328 4.07376e-05 0)
(7.33381 0.000106523 0)
(7.33457 0.000227945 0)
(7.33551 0.000413501 0)
(7.3366 0.000663247 0)
(7.3378 0.00097448 0)
(7.33911 0.00134392 0)
(7.3405 0.00176775 0)
(7.34195 0.00224175 0)
(7.34345 0.00276178 0)
(7.34501 0.00332406 0)
(7.3466 0.00392508 0)
(7.34824 0.00456145 0)
(7.34991 0.00522986 0)
(7.35161 0.00592694 0)
(7.35335 0.0066492 0)
(7.35512 0.00739291 0)
(7.35693 0.00815413 0)
(7.35877 0.00892862 0)
(7.36065 0.00971187 0)
(7.36255 0.0104991 0)
(7.3645 0.0112855 0)
(7.36647 0.012066 0)
(7.36848 0.0128354 0)
(7.37051 0.0135888 0)
(7.37258 0.0143214 0)
(7.37466 0.0150286 0)
(7.37677 0.0157062 0)
(7.37889 0.0163504 0)
(7.38103 0.0169581 0)
(7.38317 0.0175264 0)
(7.38531 0.0180539 0)
(7.33303 -0.000101065 0)
(7.33331 -0.000286052 0)
(7.33388 -0.000418308 0)
(7.33469 -0.000471238 0)
(7.3357 -0.000436661 0)
(7.33685 -0.000318017 0)
(7.33812 -0.000121454 0)
(7.33948 0.00014678 0)
(7.34093 0.000479928 0)
(7.34244 0.000871 0)
(7.344 0.00131354 0)
(7.3456 0.00180189 0)
(7.34725 0.002331 0)
(7.34893 0.00289624 0)
(7.35064 0.00349325 0)
(7.35239 0.00411789 0)
(7.35417 0.00476607 0)
(7.35598 0.00543369 0)
(7.35782 0.0061166 0)
(7.35969 0.00681051 0)
(7.36159 0.00751105 0)
(7.36352 0.00821375 0)
(7.36547 0.00891409 0)
(7.36746 0.00960754 0)
(7.36947 0.0102897 0)
(7.3715 0.0109561 0)
(7.37355 0.0116028 0)
(7.37562 0.0122259 0)
(7.37771 0.0128219 0)
(7.3798 0.0133878 0)
(7.38191 0.013921 0)
(7.38401 0.0144191 0)
(7.38611 0.0148811 0)
(7.33303 -0.0002267 0)
(7.33334 -0.000654613 0)
(7.33397 -0.00100574 0)
(7.33487 -0.00124611 0)
(7.33596 -0.0013702 0)
(7.33718 -0.00138741 0)
(7.33853 -0.00130818 0)
(7.33997 -0.00114201 0)
(7.34148 -0.000899199 0)
(7.34305 -0.000590204 0)
(7.34467 -0.000224295 0)
(7.34633 0.00019072 0)
(7.34802 0.000648119 0)
(7.34975 0.00114197 0)
(7.35151 0.001667 0)
(7.3533 0.00221838 0)
(7.35511 0.00279163 0)
(7.35696 0.00338244 0)
(7.35883 0.00398659 0)
(7.36073 0.00459991 0)
(7.36265 0.00521826 0)
(7.3646 0.00583752 0)
(7.36657 0.0064536 0)
(7.36856 0.00706251 0)
(7.37057 0.00766037 0)
(7.3726 0.00824347 0)
(7.37464 0.00880834 0)
(7.3767 0.00935178 0)
(7.37877 0.00987093 0)
(7.38084 0.0103633 0)
(7.38291 0.0108267 0)
(7.38498 0.0112595 0)
(7.38704 0.0116609 0)
(7.33304 -0.00037266 0)
(7.33339 -0.00108084 0)
(7.3341 -0.00167716 0)
(7.33511 -0.00211827 0)
(7.3363 -0.00240647 0)
(7.33763 -0.00256235 0)
(7.33907 -0.00260268 0)
(7.34059 -0.00254072 0)
(7.34218 -0.00239037 0)
(7.34382 -0.00216521 0)
(7.3455 -0.00187688 0)
(7.34722 -0.00153506 0)
(7.34897 -0.00114807 0)
(7.35074 -0.000723155 0)
(7.35255 -0.000266659 0)
(7.35438 0.000215831 0)
(7.35623 0.000719266 0)
(7.35811 0.00123899 0)
(7.36001 0.00177063 0)
(7.36193 0.00231002 0)
(7.36387 0.00285319 0)
(7.36583 0.00339628 0)
(7.36782 0.0039356 0)
(7.36982 0.00446759 0)
(7.37183 0.0049889 0)
(7.37386 0.00549638 0)
(7.37589 0.00598709 0)
(7.37794 0.0064584 0)
(7.37999 0.00690796 0)
(7.38204 0.00733372 0)
(7.38408 0.00773395 0)
(7.38612 0.00810722 0)
(7.38816 0.00845281 0)
(7.33305 -0.000548058 0)
(7.33346 -0.00158876 0)
(7.3343 -0.00246378 0)
(7.33545 -0.00312019 0)
(7.33678 -0.00357502 0)
(7.33823 -0.00386325 0)
(7.33978 -0.00401014 0)
(7.3414 -0.00403717 0)
(7.34308 -0.00396618 0)
(7.3448 -0.00381613 0)
(7.34656 -0.00360144 0)
(7.34834 -0.00333327 0)
(7.35014 -0.0030208 0)
(7.35197 -0.00267172 0)
(7.35382 -0.00229246 0)
(7.3557 -0.00188853 0)
(7.35759 -0.0014648 0)
(7.3595 -0.00102571 0)
(7.36143 -0.000575369 0)
(7.36338 -0.000117619 0)
(7.36535 0.000343884 0)
(7.36733 0.000805663 0)
(7.36932 0.00126441 0)
(7.37133 0.001717 0)
(7.37335 0.00216048 0)
(7.37537 0.00259215 0)
(7.37741 0.0030095 0)
(7.37944 0.0034103 0)
(7.38147 0.00379259 0)
(7.3835 0.00415469 0)
(7.38553 0.00449526 0)
(7.38754 0.00481324 0)
(7.38954 0.00510826 0)
(7.33306 -0.000769814 0)
(7.33358 -0.00221842 0)
(7.3346 -0.00340221 0)
(7.33596 -0.00428304 0)
(7.33747 -0.00492346 0)
(7.33908 -0.00537175 0)
(7.34077 -0.00564808 0)
(7.34252 -0.00577529 0)
(7.3443 -0.00578278 0)
(7.3461 -0.00569637 0)
(7.34793 -0.00553537 0)
(7.34978 -0.00531492 0)
(7.35165 -0.00504758 0)
(7.35353 -0.00474353 0)
(7.35544 -0.00441087 0)
(7.35736 -0.00405614 0)
(7.3593 -0.00368473 0)
(7.36125 -0.00330126 0)
(7.36321 -0.00290967 0)
(7.36519 -0.00251351 0)
(7.36719 -0.00211593 0)
(7.36919 -0.00171986 0)
(7.3712 -0.00132798 0)
(7.37322 -0.000942775 0)
(7.37524 -0.000566549 0)
(7.37727 -0.000201405 0)
(7.37929 0.000150752 0)
(7.38131 0.000488214 0)
(7.38332 0.000809478 0)
(7.38533 0.00111324 0)
(7.38732 0.00139838 0)
(7.38931 0.00166391 0)
(7.39127 0.00190926 0)
(7.33308 -0.00106651 0)
(7.33379 -0.00306793 0)
(7.3351 -0.00458447 0)
(7.33672 -0.0056078 0)
(7.33845 -0.00632158 0)
(7.34025 -0.00683593 0)
(7.34214 -0.00718582 0)
(7.34406 -0.00739897 0)
(7.34601 -0.00750588 0)
(7.34796 -0.00752904 0)
(7.34992 -0.00748291 0)
(7.35188 -0.00737871 0)
(7.35385 -0.00722622 0)
(7.35583 -0.0070337 0)
(7.35781 -0.00680809 0)
(7.35979 -0.00655535 0)
(7.36178 -0.00628073 0)
(7.36377 -0.00598891 0)
(7.36576 -0.00568411 0)
(7.36775 -0.0053701 0)
(7.36975 -0.00505032 0)
(7.37174 -0.00472793 0)
(7.37373 -0.00440576 0)
(7.37571 -0.00408642 0)
(7.37769 -0.00377226 0)
(7.37965 -0.00346538 0)
(7.38161 -0.00316766 0)
(7.38355 -0.00288073 0)
(7.38548 -0.00260599 0)
(7.38739 -0.00234457 0)
(7.38928 -0.00209738 0)
(7.39114 -0.00186501 0)
(7.39298 -0.00164765 0)
(7.3331 -0.00144794 0)
(7.33415 -0.00420791 0)
(7.33607 -0.00631335 0)
(7.33822 -0.00776538 0)
(7.34032 -0.00874943 0)
(7.34242 -0.00937475 0)
(7.34457 -0.00971921 0)
(7.34674 -0.00986536 0)
(7.3489 -0.00987997 0)
(7.35104 -0.0098054 0)
(7.35317 -0.00966859 0)
(7.35527 -0.00948862 0)
(7.35735 -0.0092789 0)
(7.35939 -0.00904831 0)
(7.3614 -0.00880267 0)
(7.36338 -0.00854604 0)
(7.36532 -0.00828141 0)
(7.36722 -0.0080111 0)
(7.36909 -0.00773705 0)
(7.37093 -0.00746094 0)
(7.37273 -0.00718437 0)
(7.3745 -0.00690886 0)
(7.37624 -0.00663585 0)
(7.37795 -0.00636677 0)
(7.37963 -0.00610296 0)
(7.38128 -0.0058457 0)
(7.3829 -0.00559618 0)
(7.38449 -0.00535549 0)
(7.38605 -0.00512464 0)
(7.38759 -0.00490454 0)
(7.38909 -0.00469605 0)
(7.39056 -0.00450006 0)
(7.39201 -0.00431727 0)
(7.33311 -0.00228414 0)
(7.33485 -0.00521423 0)
(7.33794 -0.00688079 0)
(7.34136 -0.00825338 0)
(7.34468 -0.00954421 0)
(7.34787 -0.0106134 0)
(7.35088 -0.011419 0)
(7.35363 -0.0120084 0)
(7.3561 -0.0124222 0)
(7.35832 -0.0126817 0)
(7.36029 -0.0128074 0)
(7.36204 -0.0128222 0)
(7.3636 -0.0127479 0)
(7.36497 -0.0126024 0)
(7.36619 -0.0124008 0)
(7.36727 -0.012156 0)
(7.36823 -0.0118787 0)
(7.36909 -0.0115776 0)
(7.36986 -0.0112599 0)
(7.37056 -0.0109317 0)
(7.3712 -0.0105976 0)
(7.37178 -0.0102618 0)
(7.37232 -0.00992736 0)
(7.37282 -0.00959704 0)
(7.37329 -0.00927298 0)
(7.37374 -0.00895693 0)
(7.37417 -0.0086503 0)
(7.37457 -0.00835421 0)
(7.37496 -0.00806949 0)
(7.37534 -0.00779674 0)
(7.3757 -0.00753635 0)
(7.37605 -0.00728852 0)
(7.37638 -0.00705314 0)
(7.3363 -0.00651746 0)
(7.34557 -0.0134874 0)
(7.35343 -0.0156876 0)
(7.35888 -0.0161919 0)
(7.36267 -0.0161562 0)
(7.36523 -0.0157423 0)
(7.36659 -0.0150798 0)
(7.36685 -0.0143349 0)
(7.36623 -0.0136008 0)
(7.36494 -0.0129053 0)
(7.36313 -0.0122554 0)
(7.36094 -0.0116535 0)
(7.35847 -0.0110988 0)
(7.35582 -0.0105871 0)
(7.35304 -0.0101135 0)
(7.35021 -0.00967325 0)
(7.34735 -0.00926212 0)
(7.34452 -0.00887659 0)
(7.34172 -0.00851375 0)
(7.33899 -0.00817122 0)
(7.33634 -0.00784713 0)
(7.33377 -0.00754003 0)
(7.33129 -0.00724879 0)
(7.32891 -0.00697255 0)
(7.32662 -0.00671061 0)
(7.32444 -0.00646246 0)
(7.32236 -0.00622764 0)
(7.32037 -0.00600578 0)
(7.31848 -0.0057965 0)
(7.31668 -0.00559939 0)
(7.31497 -0.00541391 0)
(7.31335 -0.00523941 0)
(7.31181 -0.00507444 0)
(7.32508 -0.00547001 0)
(7.31334 -0.0121257 0)
(7.29927 -0.0150437 0)
(7.28288 -0.0161333 0)
(7.26681 -0.016313 0)
(7.25211 -0.0158771 0)
(7.23866 -0.0150374 0)
(7.22632 -0.0139938 0)
(7.21505 -0.0128817 0)
(7.20483 -0.0117757 0)
(7.19555 -0.0107166 0)
(7.18712 -0.00972763 0)
(7.17944 -0.00882004 0)
(7.17242 -0.00799658 0)
(7.16601 -0.00725487 0)
(7.16013 -0.00658989 0)