/*--------------------------------*- C++ -*----------------------------------*\
| =========                 |                                                 |
| \\      /  F ield         | OpenFOAM: The Open Source CFD Toolbox           |
|  \\    /   O peration     | Version:  4.1                                   |
|   \\  /    A nd           | Web:      www.OpenFOAM.org                      |
|    \\/     M anipulation  |                                                 |
\*---------------------------------------------------------------------------*/
FoamFile
{
    version     2.0;
    format      ascii;
    class       volScalarField;
    location    "1000";
    object      p;
}
// * * * * * * * * * * * * * * * * * * * * * * * * * * * * * * * * * * * * * //

dimensions      [0 2 -2 0 0 0 0];

internalField   nonuniform List<scalar> 
26785
(
451.257
443.645
439.68
437.262
435.967
435.742
436.283
437.287
438.439
439.492
440.452
441.499
442.68
443.568
443.967
444.829
447.18
452.105
458.954
466.1
472.788
478.952
484.714
490.206
495.529
500.744
505.878
510.933
515.891
520.72
525.375
529.805
533.952
537.768
541.204
544.212
546.74
548.74
550.352
551.605
553.093
555.092
556.915
558.632
560.549
562.645
564.935
567.394
569.914
572.376
574.65
576.57
577.909
578.367
577.572
575.107
570.565
563.651
554.381
543.355
531.77
521.37
513.507
508.343
505.245
503.51
502.551
501.564
499.783
496.837
492.686
487.45
481.295
474.349
466.661
458.23
449.084
439.328
429.122
418.641
407.995
397.308
386.76
376.331
365.321
352.416
336.816
318.246
296.288
270.49
240.603
206.931
170.712
134.223
100.336
71.5714
49.218
31.5633
18.4645
4.27825
451.109
443.615
439.665
437.244
435.953
435.731
436.274
437.28
438.435
439.489
440.447
441.494
442.68
443.57
443.952
444.792
447.113
452.032
458.898
466.057
472.75
478.916
484.677
490.168
495.49
500.704
505.838
510.892
515.851
520.682
525.339
529.773
533.924
537.746
541.187
544.202
546.737
548.741
550.356
551.594
553.081
555.094
556.898
558.602
560.523
562.629
564.927
567.389
569.91
572.373
574.654
576.584
577.935
578.407
577.623
575.162
570.609
563.658
554.323
543.21
531.534
521.088
513.248
508.144
505.113
503.447
502.559
501.636
499.892
496.959
492.804
487.558
481.397
474.454
466.774
458.35
449.203
439.44
429.226
418.738
408.08
397.369
386.821
376.468
365.589
352.752
337.149
318.561
296.561
270.67
240.608
206.663
170.094
133.265
99.1542
70.4363
48.3914
31.0937
18.1052
4.35519
450.921
443.588
439.647
437.215
435.929
435.712
436.257
437.268
438.427
439.48
440.435
441.484
442.679
443.574
443.921
444.71
446.97
451.875
458.776
465.965
472.671
478.839
484.6
490.088
495.408
500.621
505.754
510.809
515.768
520.602
525.265
529.706
533.866
537.698
541.153
544.183
546.731
548.742
550.361
551.572
553.057
555.09
556.866
558.547
560.471
562.591
564.9
567.364
569.886
572.359
574.655
576.608
577.988
578.491
577.732
575.28
570.703
563.678
554.211
542.931
531.085
520.557
512.764
507.778
504.871
503.324
502.567
501.756
500.077
497.163
493
487.74
481.576
474.647
466.993
458.587
449.442
439.666
429.436
418.935
408.258
397.498
386.939
376.722
366.071
353.357
337.745
319.123
297.045
270.998
240.638
206.216
169.032
131.613
97.1235
68.5463
47.1233
30.4777
17.8462
4.45825
450.705
443.543
439.613
437.171
435.894
435.684
436.233
437.25
438.416
439.469
440.418
441.468
442.677
443.581
443.876
444.587
446.754
451.635
458.587
465.821
472.546
478.72
484.48
489.966
495.283
500.494
505.626
510.682
515.643
520.482
525.152
529.603
533.775
537.623
541.098
544.153
546.722
548.741
550.362
551.543
553.024
555.071
556.823
558.471
560.395
562.527
564.845
567.314
569.846
572.335
574.658
576.646
578.068
578.615
577.891
575.45
570.832
563.693
554.037
542.527
530.447
519.811
512.096
507.288
504.558
503.193
502.633
501.987
500.403
497.516
493.335
488.042
481.859
474.94
467.315
458.934
449.789
439.997
429.746
419.23
408.53
397.693
387.102
377.064
366.712
354.157
338.529
319.857
297.694
271.474
240.748
205.699
167.672
129.428
94.3844
66.0274
45.5429
29.7291
17.6094
4.45265
450.464
443.498
439.579
437.124
435.858
435.654
436.205
437.229
438.403
439.455
440.396
441.446
442.67
443.59
443.819
444.424
446.463
451.308
458.327
465.621
472.374
478.556
484.315
489.799
495.114
500.324
505.455
510.512
515.476
520.32
524.999
529.463
533.651
537.52
541.022
544.11
546.708
548.737
550.361
551.505
552.983
555.014
556.746
558.368
560.297
562.434
564.764
567.243
569.79
572.304
574.661
576.694
578.17
578.772
578.091
575.657
570.977
563.684
553.791
542.001
529.645
518.895
511.298
506.725
504.206
503.071
502.754
502.31
500.843
497.992
493.792
488.46
482.249
475.337
467.745
459.391
450.245
440.429
430.153
419.619
408.899
397.955
387.291
377.46
367.45
355.071
339.408
320.691
298.474
272.099
240.959
205.145
166.07
126.792
91.0207
63.011
43.7912
28.9345
17.3773
4.43389
450.159
443.442
439.543
437.077
435.823
435.624
436.177
437.207
438.389
439.441
440.371
441.417
442.658
443.6
443.757
444.229
446.108
450.897
457.994
465.363
472.15
478.344
484.105
489.587
494.901
500.109
505.241
510.299
515.267
520.118
524.808
529.287
533.494
537.387
540.921
544.052
546.688
548.728
550.355
551.456
552.939
554.895
556.603
558.237
560.175
562.316
564.659
567.155
569.723
572.267
574.666
576.751
578.289
578.954
578.32
575.885
571.12
563.641
553.483
541.404
528.765
517.908
510.462
506.171
503.871
502.999
502.96
502.748
501.418
498.611
494.392
489.013
482.765
475.855
468.292
459.961
450.808
440.961
430.652
420.098
409.37
398.291
387.486
377.876
368.229
356.017
340.3
321.564
299.353
272.857
241.268
204.59
164.323
123.867
87.1745
59.6962
41.9276
28.1409
17.1148
4.45965
449.829
443.391
439.512
437.033
435.791
435.597
436.149
437.184
438.377
439.428
440.344
441.383
442.638
443.61
443.697
444.014
445.706
450.413
457.592
465.046
471.875
478.083
483.847
489.329
494.642
499.85
504.983
510.043
515.017
519.877
524.58
529.076
533.304
537.224
540.795
543.976
546.659
548.713
550.345
551.391
552.891
554.721
556.389
558.08
560.03
562.177
564.538
567.054
569.647
572.227
574.671
576.814
578.42
579.156
578.568
576.122
571.253
563.574
553.157
540.807
527.895
516.937
509.661
505.688
503.599
503.006
503.264
503.302
502.122
499.363
495.126
489.698
483.409
476.495
468.958
460.645
451.476
441.586
431.24
420.661
409.946
398.718
387.674
378.281
368.984
356.908
341.124
322.422
300.295
273.721
241.673
204.087
162.594
120.952
83.2152
56.5021
40.0966
27.4535
16.9261
4.56514
449.52
443.341
439.481
436.99
435.763
435.573
436.122
437.162
438.365
439.417
440.317
441.341
442.609
443.618
443.648
443.79
445.277
449.871
457.127
464.672
471.547
477.773
483.542
489.025
494.338
499.547
504.682
509.746
514.727
519.597
524.314
528.831
533.082
537.031
540.642
543.88
546.617
548.688
550.331
551.307
552.841
554.576
556.14
557.901
559.863
562.022
564.403
566.942
569.564
572.18
574.674
576.88
578.562
579.37
578.825
576.36
571.379
563.505
552.855
540.267
527.108
516.054
508.953
505.327
503.442
503.125
503.679
503.975
502.951
500.241
495.986
490.509
484.178
477.261
469.747
461.445
452.249
442.304
431.913
421.298
410.623
399.255
387.849
378.634
369.645
357.68
341.835
323.224
301.257
274.649
242.164
203.697
161.059
118.478
79.872
54.4497
38.8951
27.1581
17.1111
4.86495
449.222
443.289
439.452
436.954
435.743
435.554
436.099
437.142
438.355
439.408
440.29
441.293
442.567
443.619
443.617
443.578
444.853
449.296
456.611
464.247
471.169
477.414
483.19
488.676
493.99
499.201
504.339
509.408
514.396
519.278
524.013
528.552
532.827
536.807
540.461
543.76
546.56
548.65
550.316
551.206
552.767
554.543
555.905
557.702
559.676
561.852
564.256
566.819
569.471
572.126
574.672
576.947
578.707
579.589
579.085
576.597
571.507
563.453
552.609
539.834
526.479
515.332
508.382
505.124
503.444
503.39
504.213
504.762
503.896
501.237
496.965
491.44
485.066
478.142
470.646
462.349
453.118
443.109
432.668
422.001
411.389
399.942
388.046
378.896
370.133
358.263
342.394
323.951
302.228
275.645
242.767
203.487
159.834
116.676
76.9052
53.5777
39.0366
27.4678
17.4468
4.9616
448.933
443.245
439.431
436.928
435.731
435.544
436.081
437.125
438.348
439.403
440.266
441.239
442.508
443.605
443.602
443.397
444.466
448.721
456.061
463.776
470.745
477.008
482.792
488.281
493.598
498.812
503.954
509.03
514.027
518.922
523.675
528.238
532.541
536.553
540.251
543.614
546.48
548.596
550.296
551.154
552.651
554.483
555.684
557.486
559.47
561.666
564.094
566.683
569.365
572.063
574.665
577.011
578.851
579.806
579.343
576.836
571.646
563.437
552.443
539.544
526.071
514.85
507.981
505.086
503.635
503.823
504.876
505.66
504.937
502.315
498.028
492.466
486.064
479.146
471.666
463.36
454.083
444
433.5
422.74
412.172
400.759
388.381
379.082
370.362
358.526
342.758
324.687
303.321
276.732
243.471
203.569
159.338
115.997
74.2537
52.1897
39.6936
28.9067
19.1828
5.61061
448.617
443.203
439.418
436.913
435.731
435.543
436.07
437.113
438.344
439.403
440.247
441.183
442.436
443.573
443.597
443.25
444.13
448.17
455.494
463.269
470.277
476.559
482.35
487.843
493.163
498.382
503.529
508.612
513.618
518.529
523.302
527.892
532.224
536.268
540.01
543.439
546.372
548.518
550.254
551.142
552.442
554.329
555.465
557.253
559.247
561.465
563.915
566.531
569.248
571.991
574.653
577.071
578.991
580.019
579.598
577.078
571.804
563.466
552.373
539.42
525.934
514.694
507.794
505.186
504.029
504.437
505.648
506.645
506.06
503.47
499.164
493.564
487.128
480.215
472.761
464.457
455.136
444.981
434.441
423.59
413.002
401.705
389.067
379.369
370.572
358.86
343.262
325.505
304.461
277.725
244.143
204.161
160.467
118.122
78.338
53.2205
39.5106
28.7092
19.4166
5.76395
448.318
443.175
439.415
436.907
435.74
435.549
436.065
437.103
438.341
439.405
440.233
441.127
442.35
443.524
443.593
443.132
443.842
447.658
454.926
462.736
469.773
476.068
481.866
487.364
492.688
497.911
503.064
508.154
513.171
518.098
522.893
527.512
531.874
535.95
539.736
543.23
546.226
548.396
550.167
551.123
552.149
554.1
555.237
557.004
559.006
561.245
563.72
566.365
569.119
571.91
574.632
577.123
579.123
580.223
579.848
577.328
571.989
563.554
552.417
539.493
526.134
514.935
507.893
505.368
504.587
505.218
506.561
507.712
507.197
504.613
500.31
494.734
488.334
481.431
473.954
465.617
456.252
446.03
435.402
424.361
413.555
402.377
389.819
379.762
371.231
360.003
344.502
325.909
304.163
277.368
244.136
204.711
161.856
120.519
83.7077
59.236
44.2116
31.5381
20.7622
6.59861
448.054
443.15
439.416
436.911
435.76
435.565
436.066
437.098
438.342
439.41
440.225
441.072
442.253
443.457
443.583
443.043
443.598
447.193
454.369
462.185
469.237
475.542
481.345
486.845
492.173
497.401
502.56
507.658
512.686
517.629
522.448
527.098
531.491
535.6
539.428
542.986
546.035
548.22
549.998
551.052
551.867
553.826
554.983
556.736
558.746
561.007
563.511
566.19
568.985
571.825
574.608
577.17
579.244
580.415
580.094
577.589
572.21
563.722
552.601
539.801
526.713
515.499
508.178
505.56
505.294
505.992
507.439
508.794
508.389
505.8
501.426
495.783
489.419
482.673
475.325
467.024
457.64
447.479
437.105
426.086
414.685
403.17
391.028
380.59
371.109
359.115
343.887
325.668
303.85
277.064
244.292
205.78
164.084
123.698
88.7593
64.0885
47.9126
34.4484
22.5527
7.78619
447.817
443.133
439.427
436.929
435.792
435.591
436.076
437.098
438.346
439.419
440.222
441.023
442.15
443.376
443.559
442.983
443.395
446.779
453.832
461.624
468.676
474.983
480.788
486.29
491.621
496.854
502.018
507.124
512.164
517.124
521.967
526.649
531.076
535.215
539.084
542.699
545.791
547.999
549.74
550.885
551.604
553.525
554.701
556.446
558.471
560.757
563.292
566.009
568.849
571.746
574.596
577.227
579.372
580.611
580.35
577.878
572.485
563.99
552.939
540.356
527.582
516.269
508.544
505.572
506.17
507.158
508.732
510.205
509.856
507.359
503.08
497.478
491.059
484.259
476.99
468.831
459.505
449.182
438.401
427.218
415.886
404.271
392
380.914
370.517
358.344
343.408
325.124
303.172
276.523
244.384
207.048
166.795
127.705
94.4846
69.6678
51.6235
37.1207
24.2576
8.92874
447.603
443.13
439.451
436.961
435.837
435.629
436.096
437.106
438.353
439.43
440.225
440.98
442.044
443.28
443.518
442.943
443.225
446.416
453.321
461.061
468.096
474.397
480.199
485.701
491.034
496.27
501.44
506.554
511.604
516.582
521.451
526.166
530.626
534.795
538.702
542.368
545.493
547.733
549.438
550.623
551.326
553.181
554.384
556.126
558.172
560.492
563.065
565.824
568.71
571.662
574.573
577.27
579.488
580.807
580.624
578.203
572.824
564.362
553.424
541.139
528.725
517.6
510.059
506.203
507.153
508.679
510.66
512.312
511.919
509.341
505.056
499.614
493.395
486.611
479.195
470.861
461.431
451.056
440.034
428.473
416.87
404.997
392.747
381.37
370.132
357.537
342.639
324.349
302.343
275.894
244.476
208.474
169.916
132.433
100.49
75.608
56.072
40.1206
25.9014
10.0237
447.376
443.134
439.485
437.006
435.896
435.679
436.125
437.121
438.365
439.445
440.233
440.945
441.941
443.175
443.462
442.915
443.082
446.1
452.842
460.5
467.502
473.787
479.582
485.081
490.414
495.653
500.827
505.947
511.008
516.003
520.897
525.649
530.143
534.339
538.278
541.985
545.13
547.421
549.137
550.305
551.027
552.782
554.023
555.765
557.833
560.186
562.8
565.607
568.548
571.558
574.529
577.294
579.589
580.993
580.9
578.551
573.224
564.835
554.075
542.201
530.197
519.293
511.889
508.521
509.351
510.853
513.051
514.739
514.28
511.556
507.121
501.597
495.395
488.676
481.269
472.853
463.287
452.775
441.643
430.034
418.216
405.989
393.684
381.986
370.002
356.894
341.77
323.416
301.39
275.187
244.519
209.874
173.112
137.512
106.587
81.4621
60.7599
43.3165
27.6036
11.0725
447.183
443.154
439.531
437.064
435.965
435.737
436.163
437.141
438.379
439.461
440.243
440.914
441.843
443.063
443.397
442.893
442.959
445.825
452.394
459.947
466.898
473.159
478.94
484.433
489.763
495.003
500.18
505.306
510.376
515.387
520.308
525.096
529.624
533.843
537.81
541.543
544.686
547.064
548.826
549.94
550.698
552.339
553.617
555.362
557.452
559.839
562.497
565.358
568.361
571.436
574.476
577.315
579.691
581.19
581.204
578.963
573.747
565.478
554.97
543.628
532.088
521.464
513.801
511.044
511.827
513.696
516.123
517.754
517.15
514.25
509.677
504.042
497.725
490.91
483.448
474.999
465.392
454.797
443.554
431.865
419.801
407.274
394.829
382.697
369.994
356.293
340.846
322.404
300.39
274.461
244.526
211.168
176.134
142.382
112.327
86.8236
65.1868
46.3806
29.3845
12.0536
447.027
443.182
439.585
437.134
436.046
435.806
436.209
437.169
438.399
439.48
440.255
440.886
441.748
442.943
443.325
442.872
442.851
445.586
451.977
459.405
466.288
472.514
478.277
483.759
489.084
494.322
499.501
504.631
509.71
514.736
519.681
524.507
529.07
533.308
537.286
541.03
544.163
546.658
548.479
549.528
550.329
551.858
553.167
554.916
557.028
559.451
562.156
565.077
568.15
571.3
574.419
577.343
579.815
581.428
581.58
579.501
574.467
566.369
556.167
545.43
534.484
524.259
516.476
514.482
515.15
517.365
519.894
521.363
520.524
517.424
512.746
507.056
500.673
493.76
486.193
477.653
467.963
457.268
445.878
433.992
421.613
408.812
396.144
383.545
370.163
355.78
339.926
321.377
299.402
273.764
244.527
212.353
178.917
146.69
117.363
91.514
69.1087
49.1634
31.2006
12.9699
446.904
443.222
439.652
437.22
436.141
435.887
436.266
437.205
438.423
439.503
440.269
440.862
441.66
442.82
443.252
442.848
442.755
445.379
451.591
458.875
465.677
471.859
477.596
483.063
488.38
493.614
498.791
503.924
509.009
514.048
519.018
523.882
528.478
532.722
536.698
540.428
543.574
546.2
548.086
549.074
549.916
551.345
552.676
554.43
556.564
559.023
561.778
564.763
567.912
571.145
574.353
577.372
579.953
581.7
582.023
580.165
575.391
567.538
557.686
547.548
537.296
527.635
520.095
518.665
519.388
521.753
524.219
525.442
524.343
521.074
516.329
510.606
504.173
497.17
489.481
480.805
470.967
460.103
448.517
436.38
423.677
410.589
397.611
384.532
370.546
355.469
339.072
320.357
298.47
273.132
244.561
213.472
181.462
150.395
121.557
95.5302
72.4942
51.6588
32.9946
13.8221
446.808
443.278
439.733
437.32
436.248
435.979
436.333
437.25
438.453
439.528
440.286
440.842
441.58
442.699
443.177
442.818
442.67
445.2
451.234
458.36
465.066
471.194
476.9
482.347
487.651
492.879
498.054
503.187
508.275
513.326
518.319
523.22
527.846
532.072
536.031
539.747
542.93
545.69
547.65
548.584
549.458
550.805
552.149
553.907
556.061
558.556
561.364
564.418
567.649
570.973
574.277
577.402
580.104
582.003
582.529
580.95
576.519
569.006
559.554
549.989
540.435
531.278
524.523
523.399
524.264
526.683
529.007
529.953
528.616
525.224
520.439
514.687
508.19
501.068
493.22
484.368
474.342
463.268
451.444
439.026
426.007
412.608
399.245
385.659
371.13
355.44
338.424
319.403
297.586
272.601
244.662
214.569
183.733
153.543
125.054
98.9539
75.4257
53.907
34.7086
14.6015
446.707
443.344
439.826
437.433
436.367
436.08
436.41
437.304
438.49
439.558
440.304
440.827
441.509
442.58
443.098
442.777
442.59
445.046
450.903
457.859
464.459
470.524
476.192
481.614
486.902
492.12
497.289
502.42
507.51
512.568
517.582
522.517
527.151
531.354
535.278
538.999
542.237
545.128
547.172
548.063
548.959
550.24
551.587
553.348
555.52
558.051
560.913
564.039
567.358
570.779
574.189
577.429
580.266
582.334
583.094
581.846
577.839
570.783
561.797
552.754
543.864
535.043
529.524
528.61
529.652
532.071
534.229
534.898
533.348
529.859
525.044
519.26
512.688
505.428
497.389
488.328
478.087
466.782
454.691
441.965
428.622
414.883
401.076
386.951
371.899
355.67
338.09
318.664
296.799
272.142
244.825
215.621
185.7
156.193
128.045
101.913
77.9973
55.9422
36.3021
15.2998
446.645
443.426
439.931
437.558
436.495
436.19
436.494
437.363
438.531
439.59
440.324
440.815
441.446
442.465
443.017
442.727
442.512
444.913
450.598
457.375
463.857
469.851
475.474
480.866
486.135
491.339
496.5
501.626
506.714
511.777
516.807
521.766
526.373
530.548
534.448
538.195
541.498
544.51
546.651
547.516
548.421
549.652
550.996
552.757
554.943
557.509
560.426
563.628
567.038
570.564
574.087
577.452
580.435
582.69
583.712
582.838
579.332
572.865
564.441
555.849
547.482
538.976
534.879
534.207
535.476
537.876
539.861
540.267
538.523
534.955
530.116
524.295
517.642
510.232
501.985
492.69
482.212
470.656
458.275
445.219
431.533
417.421
403.131
388.444
372.859
356.124
338.045
318.231
296.233
271.784
245.012
216.55
187.371
158.449
130.621
104.49
80.2597
57.777
37.7778
15.9189
446.617
443.516
440.046
437.696
436.633
436.308
436.586
437.43
438.578
439.625
440.346
440.805
441.389
442.355
442.939
442.667
442.431
444.796
450.314
456.906
463.263
469.178
474.749
480.106
485.35
490.539
495.688
500.806
505.888
510.952
515.994
520.941
525.517
529.654
533.551
537.342
540.713
543.833
546.087
546.947
547.847
549.043
550.376
552.135
554.331
556.931
559.904
563.183
566.689
570.325
573.97
577.469
580.611
583.069
584.375
583.91
580.969
575.216
567.478
559.319
551.336
543.361
540.468
540.134
541.675
544.065
545.879
546.036
544.123
540.499
535.642
529.783
523.044
515.479
507.012
497.467
486.731
474.901
462.207
448.798
434.747
420.232
405.436
390.175
374.046
356.808
338.263
318.086
295.929
271.6
245.232
217.363
188.805
160.383
132.839
106.723
82.2384
59.4226
39.1497
16.4643
446.622
443.622
440.175
437.846
436.783
436.436
436.686
437.504
438.631
439.664
440.37
440.798
441.337
442.251
442.864
442.593
442.344
444.694
450.05
456.453
462.676
468.505
474.019
479.336
484.552
489.72
494.855
499.962
505.035
510.092
515.129
520.028
524.567
528.679
532.601
536.442
539.881
543.095
545.477
546.359
547.242
548.412
549.73
551.483
553.688
556.318
559.345
562.703
566.309
570.061
573.835
577.479
580.791
583.467
585.076
585.044
582.721
577.778
570.851
563.196
555.547
548.347
546.348
546.408
548.231
550.615
552.256
552.183
550.133
546.476
541.605
535.71
528.887
521.168
512.48
502.674
491.663
479.537
466.505
452.722
438.278
423.33
408.011
392.17
375.485
357.737
338.733
318.201
295.868
271.599
245.532
218.129
190.071
162.066
134.768
108.672
83.9853
60.8969
40.3603
16.9246
446.652
443.742
440.317
438.009
436.942
436.572
436.794
437.585
438.689
439.707
440.396
440.796
441.291
442.154
442.786
442.502
442.255
444.603
449.803
456.016
462.099
467.836
473.287
478.558
483.741
488.886
494.002
499.094
504.153
509.201
514.188
519.029
523.525
527.636
531.602
535.496
538.999
542.292
544.815
545.754
546.606
547.76
549.059
550.803
553.012
555.671
558.752
562.189
565.897
569.77
573.681
577.48
580.973
583.879
585.805
586.228
584.555
580.477
574.465
567.472
560.187
553.903
552.613
553.073
555.145
557.505
558.969
558.69
556.539
552.866
547.986
542.057
535.153
527.286
518.382
508.314
497.017
484.578
471.189
457.008
442.144
426.733
410.873
394.443
377.19
358.92
339.453
318.563
296.035
271.778
245.93
218.894
191.244
163.587
136.497
110.418
85.5649
62.2033
41.302
17.2715
446.683
443.873
440.47
438.182
437.109
436.714
436.909
437.673
438.75
439.756
440.428
440.799
441.254
442.064
442.702
442.396
442.168
444.525
449.572
455.593
461.533
467.172
472.553
477.774
482.92
488.036
493.131
498.204
503.245
508.257
513.162
517.938
522.401
526.538
530.559
534.503
538.065
541.424
544.091
545.132
545.942
547.085
548.364
550.095
552.306
554.991
558.123
561.639
565.451
569.45
573.505
577.468
581.153
584.301
586.557
587.451
586.442
583.238
578.209
572.045
565.114
559.942
559.264
560.122
562.389
564.7
565.988
565.543
563.327
559.649
554.763
548.8
541.817
533.806
524.692
514.367
502.781
490.019
476.259
461.664
446.354
430.451
414.032
397.005
379.172
360.368
340.431
319.173
296.429
272.143
246.451
219.703
192.386
165.017
138.095
112.02
87.01
63.344
41.9643
17.5039
446.749
444.016
440.633
438.364
437.281
436.861
437.027
437.764
438.815
439.811
440.465
440.809
441.225
441.982
442.611
442.278
442.089
444.459
449.356
455.185
460.978
466.513
471.82
476.985
482.089
487.174
492.243
497.292
502.309
507.237
512.051
516.758
521.208
525.392
529.471
533.461
537.076
540.489
543.293
544.498
545.248
546.387
547.644
549.36
551.57
554.278
557.46
561.054
564.972
569.1
573.306
577.44
581.325
584.727
587.331
588.706
588.347
585.998
581.992
576.736
570.142
566.329
566.202
567.471
569.891
572.148
573.288
572.726
570.479
566.806
561.916
555.918
548.852
540.699
531.38
520.801
508.926
495.836
481.699
466.677
450.901
434.485
417.495
399.865
381.445
362.097
341.68
320.044
297.063
272.71
247.115
220.584
193.528
166.385
139.585
113.488
88.3192
64.3372
42.4573
17.6558
446.845
444.169
440.806
438.556
437.461
437.014
437.15
437.859
438.883
439.869
440.506
440.825
441.203
441.907
442.514
442.154
442.024
444.405
449.152
454.791
460.435
465.862
471.089
476.194
481.251
486.3
491.338
496.363
501.319
506.136
510.852
515.501
519.961
524.203
528.338
532.367
536.03
539.486
542.41
543.839
544.53
545.662
546.902
548.598
550.805
553.532
556.762
560.434
564.457
568.717
573.078
577.391
581.486
585.159
588.126
589.976
590.237
588.726
585.753
581.333
575.266
572.899
573.299
575.005
577.575
579.805
580.847
580.224
577.977
574.32
569.426
563.391
556.238
547.939
538.416
527.584
515.418
501.996
487.477
472.022
455.765
438.822
421.255
403.022
384.013
364.115
343.213
321.187
297.946
273.486
247.93
221.544
194.675
167.692
140.965
114.822
89.489
65.2078
42.8859
17.7625
446.967
444.335
440.99
438.757
437.647
437.171
437.276
437.957
438.956
439.932
440.551
440.847
441.187
441.84
442.414
442.029
441.973
444.363
448.96
454.411
459.904
465.22
470.362
475.401
480.408
485.415
490.42
495.401
500.251
504.949
509.574
514.18
518.668
522.971
527.159
531.219
534.924
538.417
541.439
543.116
543.798
544.908
546.137
547.811
550.011
552.755
556.03
559.777
563.906
568.299
572.819
577.316
581.637
585.599
588.934
591.237
592.095
591.44
589.46
585.658
580.548
579.496
580.472
582.639
585.385
587.641
588.651
588.025
585.807
582.178
577.284
571.207
563.962
555.511
545.78
534.692
522.23
508.472
493.564
477.669
460.924
443.445
425.299
406.466
386.869
366.421
345.029
322.602
299.079
274.471
248.896
222.585
195.831
168.945
142.246
116.033
90.5347
65.9795
43.2836
17.8398
447.109
444.514
441.184
438.965
437.839
437.334
437.407
438.055
439.035
440.001
440.602
440.873
441.176
441.779
442.311
441.908
441.937
444.331
448.78
454.046
459.387
464.587
469.64
474.608
479.559
484.521
489.486
494.378
499.101
503.682
508.226
512.81
517.335
521.697
525.932
530.018
533.759
537.283
540.38
542.29
543.051
544.128
545.347
546.998
549.188
551.946
555.262
559.083
563.316
567.843
572.525
577.218
581.781
586.041
589.732
592.47
593.94
594.169
593.042
589.673
585.966
586.077
587.683
590.332
593.3
595.645
596.694
596.118
593.96
590.372
585.483
579.362
572.018
563.409
553.463
542.113
529.348
515.243
499.94
483.598
466.358
448.34
429.615
410.187
390.004
369.005
347.12
324.283
300.455
275.66
250.013
223.712
197.008
170.162
143.449
117.147
91.4825
66.673
43.6449
17.8912
447.252
444.7
441.386
439.178
438.033
437.499
437.539
438.154
439.118
440.075
440.657
440.904
441.169
441.727
442.208
441.795
441.917
444.309
448.61
453.694
458.883
463.964
468.924
473.817
478.707
483.621
488.513
493.28
497.871
502.343
506.824
511.4
515.965
520.381
524.657
528.762
532.532
536.083
539.233
541.339
542.275
543.324
544.529
546.161
548.337
551.104
554.459
558.35
562.687
567.349
572.197
577.095
581.909
586.467
590.503
593.686
595.819
596.893
596.347
593.549
591.512
592.656
594.928
598.076
601.318
603.819
604.971
604.496
602.427
598.897
594.019
587.855
580.407
571.632
561.463
549.842
536.763
522.302
506.595
489.799
472.059
453.499
434.197
414.176
393.411
371.861
349.479
326.219
302.064
277.049
251.279
224.932
198.22
171.363
144.601
118.191
92.3567
67.3058
43.966
17.919
447.426
444.896
441.594
439.396
438.23
437.665
437.67
438.252
439.208
440.155
440.719
440.941
441.167
441.681
442.106
441.694
441.913
444.295
448.45
453.356
458.393
463.353
468.215
473.028
477.854
482.7
487.475
492.104
496.568
500.945
505.38
509.956
514.559
519.022
523.334
527.451
531.243
534.815
537.997
540.25
541.419
542.491
543.682
545.295
547.457
550.229
553.62
557.58
562.019
566.816
571.833
576.941
582.01
586.864
591.257
594.931
597.746
599.497
599.346
597.507
597.172
599.234
602.213
605.879
609.449
612.166
613.483
613.154
611.205
607.751
602.893
596.686
589.13
580.183
569.783
557.88
544.476
529.647
513.526
496.27
478.025
458.92
439.041
418.43
397.083
374.981
352.096
328.403
303.9
278.631
252.696
226.251
199.48
172.568
145.724
119.187
93.1767
67.8932
44.2544
17.9288
447.619
445.098
441.81
439.619
438.429
437.831
437.8
438.345
439.302
440.242
440.787
440.982
441.17
441.641
442.007
441.609
441.924
444.288
448.3
453.031
457.917
462.754
467.514
472.243
476.991
481.727
486.364
490.857
495.202
499.501
503.902
508.483
513.116
517.619
521.96
526.086
529.892
533.478
536.679
539.031
540.417
541.583
542.799
544.397
546.549
549.323
552.746
556.772
561.31
566.239
571.426
576.751
582.083
587.247
592.027
596.22
599.639
601.875
602.233
601.664
602.883
605.823
609.544
613.754
617.701
620.694
622.231
622.09
620.291
616.931
612.103
605.856
598.188
589.062
578.422
566.228
552.489
537.281
520.738
503.014
484.259
464.604
444.148
422.946
401.017
378.36
354.966
330.827
305.956
280.402
254.262
227.676
200.8
173.792
146.835
120.152
93.9593
68.4493
44.5226
17.9272
447.831
445.311
442.032
439.846
438.63
437.998
437.93
438.435
439.401
440.334
440.861
441.029
441.179
441.608
441.916
441.543
441.949
444.289
448.159
452.72
457.456
462.167
466.822
471.458
476.097
480.694
485.187
489.546
493.787
498.024
502.397
506.98
511.637
516.172
520.535
524.665
528.478
532.071
535.281
537.703
539.255
540.544
541.845
543.46
545.609
548.386
551.837
555.925
560.557
565.618
570.982
576.533
582.141
587.629
592.807
597.481
601.404
604.091
605.203
606.063
608.616
612.444
616.93
621.715
626.088
629.41
631.216
631.303
629.68
626.434
621.646
615.361
607.579
598.268
587.382
574.888
560.805
545.21
528.236
510.035
490.763
470.554
449.518
427.724
405.21
381.994
358.082
333.484
308.225
282.358
255.978
229.208
202.187
175.048
147.95
121.102
94.7194
68.9867
44.7818
17.9203
448.054
445.532
442.26
440.075
438.832
438.164
438.058
438.525
439.505
440.432
440.941
441.081
441.194
441.584
441.837
441.499
441.988
444.296
448.027
452.423
457.01
461.594
466.136
470.653
475.152
479.602
483.951
488.184
492.336
496.519
500.868
505.448
510.12
514.679
519.059
523.19
527.003
530.592
533.803
536.278
537.96
539.359
540.767
542.449
544.624
547.417
550.894
555.04
559.766
564.964
570.511
576.295
582.182
587.991
593.559
598.677
603.088
606.303
608.334
610.674
614.387
619.117
624.383
629.774
634.619
638.318
640.438
640.789
639.369
636.253
631.514
625.196
617.301
607.803
596.665
583.866
569.43
553.439
536.024
517.339
497.541
476.773
455.152
432.763
409.66
385.878
361.44
336.369
310.701
284.495
257.842
230.853
203.65
176.346
149.081
122.051
95.4704
69.5165
45.0411
17.9131
448.278
445.757
442.49
440.304
439.033
438.329
438.181
438.621
439.615
440.536
441.026
441.136
441.215
441.568
441.773
441.476
442.038
444.308
447.904
452.14
456.578
461.03
465.44
469.811
474.159
478.457
482.666
486.785
490.859
494.994
499.315
503.888
508.566
513.14
517.531
521.659
525.466
529.04
532.242
534.757
536.546
538.043
539.551
541.325
543.561
546.397
549.913
554.119
558.938
564.273
570.003
576.02
582.183
588.321
594.288
599.868
604.767
608.584
611.688
615.408
620.209
625.855
631.915
637.943
643.301
647.421
649.896
650.542
649.349
646.379
641.701
635.356
627.35
617.666
606.274
593.165
578.369
561.973
544.108
524.929
504.597
483.262
461.051
438.061
414.364
390.009
365.034
339.476
313.38
286.811
259.853
232.613
205.195
177.696
150.241
123.013
96.2242
70.0485
45.3082
17.9096
448.524
445.986
442.723
440.532
439.233
438.491
438.295
438.721
439.732
440.646
441.115
441.195
441.244
441.565
441.729
441.475
442.099
444.327
447.792
451.869
456.155
460.459
464.717
468.932
473.122
477.268
481.344
485.36
489.363
493.45
497.741
502.299
506.973
511.555
515.951
520.073
523.866
527.415
530.598
533.14
535.017
536.604
538.209
540.075
542.388
545.287
548.859
553.133
558.047
563.517
569.433
575.684
582.132
588.623
595.012
601.057
606.44
610.975
615.274
620.219
626.092
632.667
639.535
646.229
652.138
656.72
659.586
660.557
659.612
656.806
652.201
645.837
637.727
627.859
616.214
602.791
587.629
570.819
552.492
532.809
511.934
490.024
467.215
443.618
419.318
394.382
368.86
342.801
316.258
289.3
262.012
234.49
206.827
179.107
151.44
123.997
96.9906