/*--------------------------------*- C++ -*----------------------------------*\
| =========                 |                                                 |
| \\      /  F ield         | OpenFOAM: The Open Source CFD Toolbox           |
|  \\    /   O peration     | Version:  4.1                                   |
|   \\  /    A nd           | Web:      www.OpenFOAM.org                      |
|    \\/     M anipulation  |                                                 |
\*---------------------------------------------------------------------------*/
FoamFile
{
    version     2.0;
    format      ascii;
    class       surfaceScalarField;
    location    "1000";
    object      phi;
}
// * * * * * * * * * * * * * * * * * * * * * * * * * * * * * * * * * * * * * //

dimensions      [0 3 -1 0 0 0 0];

internalField   nonuniform List<scalar> 
52920
(
3260.05
-234.827
3455.78
-195.733
3617.8
-162.025
3745.24
-127.438
3841.54
-96.31
3911.73
-70.1889
3961.87
-50.1418
3999.2
-37.3369
4029.62
-30.4284
4054.07
-24.454
4070.23
-16.1634
4081.15
-10.9183
4099.79
-18.6454
4134.65
-34.8674
4167.83
-33.1837
4162.29
5.53931
4082.57
79.7081
3932.61
149.955
3746.63
185.979
3550.75
195.877
3356.16
194.583
3165.81
190.349
2979.26
186.536
2795.1
184.158
2611.84
183.254
2428.36
183.475
2244.03
184.325
2058.8
185.224
1873.21
185.58
1688.51
184.693
1506.62
181.874
1330.41
176.208
1163.27
167.124
1009.39
153.868
872.828
136.548
758.926
113.885
671.999
86.9076
608.025
63.9523
575.809
32.1909
547.064
28.7194
537.385
9.65712
613.79
-76.4233
743.523
-129.748
911.385
-167.875
1125.24
-213.865
1378.13
-252.902
1652.17
-274.06
1931.79
-279.627
2209.84
-278.054
2486.92
-277.086
2768.18
-281.272
3061.36
-293.176
3376.2
-314.851
3724.28
-348.084
4117.43
-393.147
4565.46
-448.029
5072.76
-507.312
5633.1
-560.341
6223.64
-590.543
6804.23
-580.58
7320.71
-516.49
7728.71
-407.996
8014.45
-285.743
8188.89
-174.439
8268.2
-79.3089
8264.89
3.3143
8196.81
68.081
8084.13
112.679
7940.24
143.89
7769.1
171.138
7569.37
199.73
7340.47
228.904
7086.67
253.802
6817.29
269.372
6543.89
273.4
6276.77
267.121
6023.03
253.743
5786.62
236.415
5569.2
217.413
5372.11
197.096
5194.25
177.856
5033.96
160.289
4911.41
122.551
4881.79
29.6165
4985.77
-103.975
5202.02
-216.255
5499.41
-297.391
5875.28
-375.866
6335.37
-460.092
6882.84
-547.466
7508.13
-625.294
8183.05
-674.919
8862.91
-679.862
9499.51
-636.599
10048.4
-548.885
10489.3
-440.856
10818.6
-329.299
11041.3
-222.754
11122.9
-81.5755
84.945
3345.92
-461.851
3536.44
-386.254
3693.5
-319.084
3816.56
-250.51
3909.13
-188.879
3976
-137.061
4022.91
-97.0554
4056.88
-71.3128
4084.01
-57.5676
4105.7
-46.1468
4119.57
-30.0374
4128
-19.3504
4144.21
-34.8625
4178.71
-69.3689
4213.46
-67.9374
4206.68
12.312
4119.48
166.902
3957.95
311.482
3760.19
383.731
3554.6
401.464
3352.86
396.319
3157.54
385.663
2967.66
376.413
2781.3
370.513
2596.65
367.894
2412.4
367.722
2227.79
368.926
2042.68
370.326
1857.48
370.771
1673.22
368.947
1491.5
363.585
1314.75
352.948
1145.99
335.875
989.39
310.452
849.874
276.05
734.594
229.147
648.402
173.079
584.091
128.24
549.261
66.9939
520.286
57.6662
518.909
11.0123
584.794
-142.324
682.084
-227.053
846.282
-332.086
1100.89
-468.488
1407.28
-559.297
1720.76
-587.564
2021.24
-580.111
2307.1
-563.924
2584.61
-554.593
2862.26
-558.935
3149.39
-580.307
3456.44
-621.909
3795
-686.647
4175.93
-774.08
4607.83
-879.928
5096.12
-995.602
5638.79
-1103.01
6217.37
-1169.13
6792.67
-1155.88
7308.57
-1032.39
7719.18
-818.605
8011.35
-577.92
8197.83
-360.911
8294.01
-175.494
8309.35
-12.026
8260.31
117.121
8165.47
207.526
8035.46
273.893
7870.86
335.743
7667.18
403.411
7422.67
473.41
7143.28
533.2
6842.1
570.553
6534.98
580.52
6235.75
566.349
5953.73
535.762
5693.91
496.231
5458.33
452.993
5248.63
406.798
5064.37
362.113
4900.87
323.796
4772.48
250.934
4731.02
71.0851
4815.5
-188.465
5004.46
-405.212
5274.04
-566.972
5630.26
-732.085
6078.8
-908.625
6611.12
-1079.79
7202.35
-1216.53
7813.95
-1286.52
8396.78
-1262.69
8902.78
-1142.59
9290.26
-936.374
9551.69
-702.277
9709.85
-487.468
9786.7
-299.599
9810.71
-105.586
168.712
3366.15
-680.25
3550.7
-570.809
3703.42
-471.803
3824
-371.101
3915.52
-280.403
3982.11
-203.648
4028.82
-143.766
4062.31
-104.812
4088.91
-84.1701
4110.4
-67.6457
4124.15
-43.7887
4131.8
-27.0069
4147.34
-50.3997
4184.16
-106.201
4224.78
-108.561
4222.11
14.9787
4131.59
257.419
3960.36
482.709
3751.26
592.823
3535.84
616.883
3326.67
605.488
3126.11
586.216
2932.72
569.792
2744.21
559.019
2558.52
553.576
2374.2
552.042
2190.4
552.719
2006.88
553.839
1823.89
553.755
1642.19
550.64
1463
542.764
1288.26
527.679
1120.37
503.758
962.927
467.884
820.808
418.156
702.737
347.203
614.928
260.871
550.322
192.825
515.532
101.759
488.054
85.117
486.534
12.5108
532.902
-188.708
627.057
-321.221
841.204
-546.244
1149.27
-776.565
1472.86
-882.897
1775.75
-890.466
2054.83
-859.194
2317.13
-826.231
2571.12
-808.587
2825.05
-812.87
3087.47
-842.731
3367.72
-902.163
3675.37
-994.301
4020
-1118.71
4414.24
-1274.17
4873.51
-1454.87
5403.36
-1632.86
5982.6
-1748.37
6562.25
-1735.52
7077.34
-1547.49
7479.62
-1220.88
7759.17
-857.471
7933.38
-535.118
8019.64
-261.753
8027.17
-19.5604
7973.92
170.376
7879.97
301.474
7757.6
396.258
7608.13
485.219
7424.53
587.009
7199.52
698.426
6933.67
799.05
6637.81
866.409
6328.79
889.537
6023.14
872.005
5732.96
825.942
5465.37
763.816
5223.82
694.547
5011.21
619.408
4828.58
544.743
4666.42
485.957
4531.11
386.24
4476.5
125.698
4543.6
-255.563
4707.9
-569.52
4952.81
-811.875
5287.58
-1066.86
5707.82
-1328.86
6196.4
-1568.37
6731.98
-1752.11
7284.73
-1839.27
7807.08
-1785.04
8244.14
-1579.66
8539.21
-1231.44
8680.84
-843.899
8706.29
-512.917
8623.2
-216.511
8495.32
22.2907
330.732
3337.65
-888.388
3514.43
-747.595
3662.1
-619.474
3780.68
-489.686
3872.61
-372.336
3940.97
-272.012
3989.74
-192.537
4024.92
-140.002
4053.06
-112.313
4076.53
-91.1116
4092.2
-59.4687
4100.3
-35.1079
4115.4
-65.5046
4155.44
-146.254
4205.28
-158.404
4211.77
8.48848
4121.94
347.238
3943
661.646
3723.51
812.307
3498.89
841.5
3282.77
821.607
3077.32
791.666
2880.68
766.425
2690.26
749.428
2503.87
739.961
2319.98
735.922
2137.72
734.973
1956.76
734.793
1777.2
733.311
1599.56
728.275
1424.71
717.602
1254.15
698.233
1089.62
668.275
933.847
623.648
790.822
561.168
669.896
468.113
578.893
351.854
513.454
258.242
480.649
134.535
451.291
114.444
435.909
27.8702
473.099
-225.913
604.103
-452.239
872.206
-814.359
1187.75
-1092.12
1482.76
-1177.92
1748.32
-1156.04
1991.38
-1102.25
2219.75
-1054.61
2440.74
-1029.58
2661.68
-1033.82
2890.25
-1071.3
3134.43
-1146.35
3404.21
-1264.08
3716.15
-1430.67
4095.39
-1653.41
4562.49
-1921.98
5111.7
-2182.07
5703.65
-2340.33
6279.66
-2311.53
6775.09
-2042.92
7147.28
-1593.07
7393.93
-1104.12
7538.98
-680.168
7599.96
-322.733
7583.1
-2.69973
7507.68
245.797
7395.94
413.217
7262.91
529.287
7113.37
634.761
6942.14
758.237
6739.54
901.028
6500.34
1038.24
6229.8
1136.96
5941.83
1177.51
5652.65
1161.18
5375.44
1103.16
5118.62
1020.63
4886.81
926.36
4684.6
821.618
4515.9
713.439
4364.41
637.445
4224.75
525.9
4159.28
191.17
4214.47
-310.756
4358.9
-713.949
4580.26
-1033.23
4886.35
-1372.95
5266.55
-1709.06
5710.19
-2012.01
6209.35
-2251.26
6740.06
-2369.97
7248.73
-2293.71
7671.43
-2002.36
7933.56
-1493.58
8024.95
-935.29
7984.38
-472.348
7775.47
-7.59477
7459.52
338.24
626.858
3275.01
-1082.11
3441.1
-913.688
3581.92
-760.297
3697.31
-605.079
3788.92
-463.95
3858.75
-341.849
3909.57
-243.362
3946.53
-176.965
3976.35
-142.135
4002.2
-116.969
4020.46
-77.7323
4029.05
-43.6991
4042.34
-78.8026
4083.9
-187.815
4144.46
-218.967
4166.56
-13.6222
4085.32
428.478
3904.34
842.624
3677.92
1038.72
3446.3
1073.12
3224.7
1043.2
3015.38
1000.98
2816.24
965.56
2624.52
941.148
2437.95
926.527
2255
918.864
2074.78
915.185
1896.91
912.658
1721.36
908.86
1548.45
901.18
1378.79
887.251
1213.53
863.484
1053.88
827.921
901.602
775.912
759.317
703.442
636.072
591.344
541.121
446.789
474.143
325.199
444.146
164.505
404.914
153.648
368.407
64.3553
420.694
-278.216
604.418
-635.976
891.501
-1101.45
1174.87
-1375.5
1423.31
-1426.37
1644.07
-1376.81
1845.7
-1303.88
2035.32
-1244.24
2219.96
-1214.22
2406.77
-1220.63
2603.04
-1267.57
2818.08
-1361.4
3069.01
-1515.01
3382.66
-1744.32
3783.55
-2054.29
4273.49
-2411.92
4824.97
-2733.55
5392.95
-2908.31
5928.86
-2847.44
6378.76
-2492.82
6705.47
-1919.78
6911.51
-1310.16
7025.74
-794.391
7062.04
-359.041
7021.83
37.5091
6925.43
342.201
6796.62
542.024
6652.14
673.773
6498.72
788.18
6333.72
923.234
6148.34
1086.41
5934.88
1251.7
5694.27
1377.57
5436.64
1435.14
5176.09
1421.73
4925.05
1354.2
4691.93
1253.75
4481.77
1136.53
4300.67
1002.72
4157.24
856.87
4026.87
767.814
3886.14
666.621
3810.66
266.653
3857.39
-357.484
3986.51
-843.068
4183.17
-1229.89
4450.33
-1640.11
4780.82
-2039.54
5177.68
-2408.88
5641.44
-2715.03
6147.34
-2875.87
6636.98
-2783.35
7046.57
-2411.95
7286.44
-1733.44
7370.99
-1019.84
7316.91
-418.267
7044.85
264.471
6607.97
775.118
1033.53
3187.05
-1265.91
3346.85
-1073.5
3482.69
-896.135
3594.5
-716.897
3684.03
-553.48
3753.05
-410.876
3803.81
-294.122
3840.9
-214.058
3871.08
-172.324
3898.19
-144.087
3918.38
-97.9211
3927.07
-52.3962
3936.65
-88.3861
3975.33
-226.502
4043.5
-287.144
4084.06
-54.1845
4018.55
493.981
3842.26
1018.91
3613.82
1267.15
3378.63
1308.3
3154.01
1267.82
2942.58
1212.4
2742.26
1165.88
2550.24
1133.16
2364.29
1112.47
2182.9
1100.25
2005.18
1092.9
1830.69
1087.14
1659.29
1080.25
1491.18
1069.29
1326.77
1051.65
1166.99
1023.25
1012.67
982.233
864.783
923.792
724.361
843.852
599.559
716.132
500.394
545.936
430.832
394.738
401.989
193.317
344.693
210.91
298.211
110.812
384.435
-364.456
605.37
-856.923
872.71
-1368.8
1105.1
-1607.9
1302.17
-1623.44
1476.36
-1551.01
1636.36
-1463.89
1789.74
-1397.64
1943.89
-1368.37
2105.92
-1382.67
2283.86
-1445.52
2491.38
-1568.93
2751.33
-1774.97
3085.96
-2078.95
3499.94
-2468.27
3975.63
-2887.62
4483.46
-3241.38
4992.32
-3417.17
5470.48
-3325.6
5870.46
-2892.8
6153.21
-2202.53
6322.61
-1479.57
6412.6
-884.378
6430.16
-376.603
6372.31
95.3636
6260.37
454.141
6120.1
682.297
5970.05
823.819
5817.38
940.852
5660.35
1080.27
5491.26
1255.51
5302.02
1440.93
5091.45
1588.14
4866.98
1659.61
4640.4
1648.31
4422.58
1572.03
4220.91
1455.41
4040.13
1317.31
3887.22
1155.63
3778.47
965.616
3680.93
865.356
3542.39
805.16
3453.28
355.763
3490.58
-394.781
3603.71
-956.2
3764.74
-1390.92
3978.46
-1853.84
4251.67
-2312.75
4596.53
-2753.74
5013.74
-3132.24
5476.79
-3338.93
5925.77
-3232.33
6302.94
-2789.12
6494.1
-1924.6
6573.37
-1099.11
6521.31
-366.205
6227.55
558.229
5759.3
1243.36
1488.12
3111.41
-1442.28
3264.73
-1226.82
3394.67
-1026.07
3501.85
-824.076
3588.16
-639.802
3655.18
-477.892
3704.51
-343.46
3740.02
-249.572
3768.43
-200.737
3794.67
-170.335
3815.15
-118.398
3821.26
-58.5136
3819.72
-86.8522
3843.28
-250.069
3908.88
-352.745
3966.23
-111.538
3921.8
538.399
3756.59
1184.13
3531.26
1492.48
3296.39
1543.16
3071.67
1492.54
2860.37
1423.69
2660.57
1365.68
2469.58
1324.14
2285.27
1296.78
2106.17
1279.34
1931.4
1267.66
1760.47
1258.07
1593.16
1247.55
1429.54
1232.9
1269.93
1211.26
1115.15
1178.03
965.813
1131.56
822.287
1067.31
684.114
982.015
558.282
841.951
454.53
649.673
380.678
468.57
350.097
223.869
274.694
286.282
242.462
143.019
360.867
-482.875
586.131
-1082.2
808.337
-1591.02
984.96
-1784.53
1132.49
-1770.98
1264.62
-1683.15
1390.69
-1589.97
1518.52
-1525.47
1654.78
-1504.64
1805.88
-1533.78
1980.84
-1620.48
2195.09
-1783.19
2466.71
-2046.59
2802.43
-2414.67
3192.45
-2858.29
3618.68
-3313.84
4061.55
-3684.26
4502.94
-3858.56
4923.45
-3746.11
5277.72
-3247.08
5521.01
-2445.82
5658.26
-1616.82
5730.84
-956.955
5735.86
-381.625
5666.55
164.682
5543.34
577.348
5395.65
829.991
5244.97
974.495
5098.46
1087.37
4953.99
1224.74
4803.94
1405.55
4639.95
1604.93
4459.91
1768.18
4269.76
1849.75
4079.62
1838.45
3898.83
1752.82
3733.42
1620.82
3587.3
1463.43
3467.25
1275.68
3400.7
1032.17
3348.63
917.426
3220.41
933.376
3110.53
465.651
3124.14
-408.395
3212.6
-1044.66
3329.17
-1507.5
3483.66
-2008.32
3694.92
-2524
3978.4
-3037.22
4335.89
-3489.73
4738.74
-3741.78
5123.66
-3617.26
5443.51
-3108.97
5538.73
-2019.82
5578.48
-1138.85
5528.12
-315.841
5253.35
832.995
4834.55
1662.16
1928.03
3033.29
-1610.89
3179.26
-1372.79
3302.52
-1149.34
3404.52
-926.079
3487.33
-722.615
3552.17
-542.733
3599.84
-391.14
3633.11
-282.84
3658.44
-226.075
3682.43
-194.331
3702.53
-138.505
3704.8
-60.7907
3686.11
-68.1593
3681.89
-245.861
3732.48
-403.337
3804.74
-183.807
3790.03
553.108
3645.56
1328.6
3430.2
1707.83
3200.28
1773.08
2978.75
1714.07
2770.05
1632.39
2572.68
1563.04
2384.22
1512.6
2202.65
1478.34
2026.63
1455.36
1855.25
1439.03
1688
1425.31
1524.58
1410.97
1365
1392.48
1209.49
1366.76
1058.88
1328.62
913.724
1276.71
773.921
1207.1
637.694
1118.23
510.801
968.831
401.407
759.05
320.783
549.171
286.577
258.039
217.381
355.445
222.151
138.224
340.106
-600.845
535.342
-1277.44
702.031
-1757.71
826.845
-1909.35
933.087
-1877.24
1034.54
-1784.61
1139.81
-1695.25
1254.45
-1640.13
1382.6
-1632.79
1529.34
-1680.53
1703.61
-1794.76
1918.15
-1997.74
2181.86
-2310.29
2491.63
-2724.45
2836.57
-3203.24
3204.37
-3681.65
3580.31
-4060.2
3952.66
-4230.91
4314.42
-4107.86
4623.49
-3556.15
4827.17
-2649.5
4931.84
-1721.49
4991.27
-1016.38
4990.73
-381.085
4919.47
235.945
4792.01
704.806
4642.38
979.624
4496.32
1120.55
4361.4
1222.29
4234.87
1351.27
4108.32
1532.1
3972.41
1740.84
3824.42
1916.17
3669.73
2004.45
3517.6
1990.58
3376.4
1894.02
3250.71
1746.51
3143.71
1570.43
3060.64
1358.75
3040.77
1052.04
3044.58
913.613
2950.91
1027.04
2819.16
597.402
2791.53
-380.76
2857.95
-1111.08
2932.1
-1581.64
3017.58
-2093.81
3151.33
-2657.75
3354.51
-3240.39
3630.04
-3765.26
3943.07
-4054.81
4234.64
-3908.82
4474.46
-3348.79
4457.74
-2003.11
4482.2
-1163.31
4417.67
-251.309
4172.99
1077.67
3877.85
1957.31
2295.88
2951.94
-1770.03
3088.37
-1509.22
3203.41
-1264.38
3299.29
-1021.96
3378.01
-801.341
3440.31
-605.04
3486.01
-436.846
3516.39
-313.218
3537.23
-246.923
3556.89
-213.99
3575.01
-156.634
3573.62
-59.4012
3538.55
-33.1001
3503.01
-210.323
3528.14
-428.476
3607.26
-262.929
3625.39
534.977
3509.95
1444.03
3311.65
1906.12
3091.59
1993.14
2876.68
1928.98
2673.1
1835.96
2480.09
1756.05
2295.6
1697.08
2117.87
1656.07
1945.63
1627.59
1778.04
1606.63
1614.53
1588.81
1454.77
1570.73
1298.71
1548.53
1146.57
1518.89
999.242
1475.95
857.301
1418.64
720.262
1344.13
585.164
1253.32
456.503
1097.48
339.635
875.905
250.116
638.669
203.077
305.045
184.906
373.576
245.966
77.1439
309.314
-664.208
450.42
-1418.56
563.713
-1871.01
647.117
-1992.76
725.172
-1955.3
809.371
-1868.82
904.24
-1790.12
1010.93
-1746.83
1131.02
-1752.88
1269.18
-1818.7
1434.05
-1959.63
1634.74
-2198.43
1874.07
-2549.62
2146.7
-2997.08
2443.79
-3500.33
2754.93
-3992.79
3065.65
-4370.92
3367.61
-4532.87
3667.46
-4407.7
3928.94
-3817.64
4089.08
-2809.64
4154.89
-1787.3
4199.98
-1061.47
4196.7
-377.811
4134.13
298.523
4013.41
825.521
3870.96
1122.08
3737.15
1254.36
3620.63
1338.81
3518.42
1453.48
3420.88
1629.64
3316.82
1844.91
3202.88
2030.1
3084.63
2122.7
2971.53
2103.68
2871.85
1993.7
2789.06
1829.3
2726.98
1632.51
2688.43
1397.3
2716.83
1023.64
2776.39
854.054
2751.93
1051.5
2628.49
720.846
2571.8
-324.065
2618.33
-1157.62
2633.96
-1597.27
2622.96
-2082.8
2653.41
-2688.21
2743.05
-3330.03
2895.18
-3917.39
3079.15
-4238.78
3265.74
-4095.42
3449.5
-3532.55
3508.49
-2062.1
3733.8
-1388.61
3682.07
-199.573
3429.47
1330.26
3299.6
2087.18
2558.41
2863.14
-1914.69
2989.3
-1635.38
3096.75
-1371.83
3186.68
-1111.89
3260.67
-875.337
3319.3
-663.673
3361.96
-479.512
3388.84
-340.104
3404.67
-262.755
3418.58
-227.907
3433.21
-171.272
3430.52
-56.7184
3387.75
9.66151
3329.56
-152.139
3326.84
-425.76
3399.9
-335.998
3441.92
492.959
3355.95
1530
3178.79
2083.27
2972.55
2199.38
2767.34
2134.18
2571.2
2032.1
2384.3
1942.94
2205.1
1876.27
2032.13
1829.04
1864.27
1795.45
1700.73
1770.16
1540.95
1748.58
1384.58
1727.1
1231.54
1701.56
1082.07
1668.35
937.173
1620.84
797.522
1558.29
662.18
1479.47
526.979
1388.51
395.266
1229.18
269.224
1001.93
164.468
743.401
66.5552
402.918
32.2994
407.762
166.907
-57.4881
237.554
-734.875
338.365
-1519.38
406.975
-1939.63
462.201
-2047.99
524.421
-2017.53
599.432
-1943.85
685.97
-1876.66
781.874
-1842.75
888.282
-1859.29
1010.83
-1941.25
1157.88
-2106.69
1335.76
-2376.32
1544.55
-2758.41
1779.41
-3231.95
2032
-3752.93
2290.92
-4251.71
2541.71
-4621.7
2776.22
-4767.39
3009.57
-4641.06
3216.1
-4024.17
3329.44
-2922.98
3353.1
-1810.96
3381.28
-1089.64
3368.74
-365.273
3319.32
347.945
3214.98
929.86
3091.21
1245.85
2980.73
1364.84
2892.23
1427.31
2822.35
1523.35
2759.59
1692.41
2690.34
1914.15
2611.29
2109.15
2529.46
2204.53
2455.87
2177.27
2399.94
2049.63
2365.24
1864
2359.01
1638.74
2383.88
1372.43
2463.3
944.228
2547.22
770.13
2605.51
993.214
2524.03
802.321
2425.65
-225.679
2437.2
-1169.17
2387.63
-1547.7
2296.5
-1991.67
2226.65
-2618.36
2169.9
-3273.28
2161.05
-3908.53
2207.85
-4285.58
2324.4
-4211.98
2600.25
-3808.39
4079.71
-3541.55
3965.55
-1274.45
2168.78
1597.19
891.698
2607.35
-71.9073
3050.79
3172.66
2769.05
-2056.8
2893.09
-1759.43
2996.74
-1475.48
3081.91
-1197.07
3150.95
-944.389
3204.98
-717.7
3243.65
-518.19
3266.81
-363.263
3278.07
-274.018
3286.33
-236.174
3297.05
-181.998
3294.79
-54.4663
3250.83
53.6199
3177.71
-79.027
3147.51
-395.564
3203.04
-391.532
3254.7
441.29
3192.02
1592.67
3036.23
2239.06
2846.09
2389.52
2652.91
2327.35
2466.1
2218.91
2286.75
2122.28
2113.9
2049.12
1946.4
1996.54
1783.32
1958.52
1623.95
1929.52
1467.8
1904.72
1314.51
1880.39
1164.01
1852.05
1016.58
1815.78
873.352
1764.06
735.169
1696.46
600.364
1614.26
463.51
1525.35
327.583
1365.1
191.899
1137.6
59.2614
876.018
-116.083
578.226
-151.937
443.524
62.9543
-272.401
138.446
-810.384
207.482
-1588.43
244.842
-1977
282.952
-2086.11
335.612
-2070.2
401.963
-2010.21
476.96
-1951.67
557.756
-1923.55
646.385
-1947.92
749.196
-2044.08
873.811
-2231.3
1024.94
-2527.46
1202.43
-2935.91
1402.67
-3432.19
1616.52
-3966.78
1830.27
-4465.46
2028.98
-4820.41
2202.51
-4940.92
2360.21
-4798.75
2494.42
-4158.39
2567.54
-2996.08
2568.25
-1811.67
2584.68
-1106.07
2546.2
-326.795
2502.45
391.7
2415.4
1016.9
2317.86
1343.4
2239.78
1442.92
2187.57
1479.53
2156.68
1554.23
2133.69
1715.4
2103.33
1944.5
2062.85
2149.64
2020.42
2246.96
1988.48
2209.21
1978.61
2059.5
1997.35
1845.27
2059.41
1576.67
2187.32
1244.52
2312.25
819.296
2376.88
705.498
2499.21
870.881
2503.64
797.897
2330.89
-52.9362
2299.34
-1137.61
2241.16
-1489.53
1830.39
-1580.9
1273.84
-2061.82
890.109
-2889.55
664.973
-3683.4
473.706
-4094.31
184.542
-3922.81
-304.439
-3319.41
-1029.07
-2816.92
-1263.35
-1040.16
-1145.13
1478.96
-1326.21
2788.43
-1644.36
3368.94
3458.75
2691.91
-2194.23
2810.36
-1877.89
2908.03
-1573.15
2987.82
-1276.86
3052.42
-1008.99
3102.94
-768.224
3138.85
-554.099
3159.16
-383.585
3166.17
-281.032
3168.74
-238.752
3175.31
-188.571
3173.38
-52.5387
3129.9
97.0926
3044.83
6.0306
2987.98
-338.718
3020.45
-424.005
3071.31
390.424
3024.81
1639.17
2888.51
2375.35
2715.25
2562.78
2535.56
2507.04
2359.42
2395.04
2188.67
2293.03
2022.9
2214.89
1861.3
2158.13
1703.19
2116.63
1547.99
2084.72
1395.27
2057.43
1244.72
2030.93
1096.31
2000.46
950.323
1961.76
808.122
1906.25
670.671
1833.91
535.032
1749.89
395.055
1665.32
255.259
1504.88
107.165
1285.68
-53.2407
1036.4
-279.233
804.177
-283.175
447.363
-47.3273
-508.275
23.0786
-880.811
65.8739
-1631.24
82.7589
-1993.9
109.714
-2113.08
154.049
-2114.54
210.196
-2066.37
271.548
-2013.02
335.546
-1987.56
404.861
-2017.24
485.812
-2125.04
585.463
-2330.96
708.79
-2650.79
857.013
-3084.13
1027.03
-3602.22
1208.35
-4148.09
1384.45
-4641.57
1537.49
-4973.45
1656.17
-5059.61
1728.58
-4871.16
1770.56
-4200.37
1824.82
-3050.34
1863.45
-1850.3
1878
-1120.62
1781.87
-230.661
1717.86
455.717
1636.05
1098.71
1581.95
1397.5
1569.59
1455.28
1580.48
1468.64
1594.34
1540.36
1593.81
1715.94
1573.86
1964.46
1551.98
2171.51
1548.25
2250.69
1570.29
2187.17
1615.37
2014.42
1700.17
1760.47
1901.44
1375.4
2224.91
921.052
2407.45
636.756
2403.66
709.294
2521.87
752.669
2857.72
462.044
2346.04
458.751
877.677
330.746
-134.655
-477.196
-408.889
-1306.67
-431.629
-2039.08
-509.104
-2812.08
-664.988
-3527.51
-851.014
-3908.28
-1053.99
-3719.83
-1360
-3013.4
-1960.71
-2216.22
-2460.41
-540.459
-2554.68
1573.23
-2638.32
2872.08
-2759.99
3490.6
3594.47
2612.78
-2324.97
2723.62
-1988.72
2814.01
-1663.56
2887.87
-1350.72
2948.03
-1069.16
2995.47
-815.661
3029.29
-587.93
3047.56
-401.854
3050.93
-284.41
3047.98
-235.802
3049.7
-190.305
3047.37
-50.2045
3007.4
137.051
2918.01
95.4148
2841.28
-261.994
2851.06
-433.792
2894.76
346.721
2858.46
1675.46
2739.19
2494.62
2582.65
2719.31
2417.1
2672.59
2252.41
2559.73
2090.86
2454.57
1932.56
2373.19
1777.06
2313.62
1623.92
2269.77
1472.73
2235.9
1323.19
2206.97
1175.05
2179.07
1028.28
2147.22
883.243
2106.79
741.525
2047.96
603.998
1971.43
465.942
1887.94
322.29
1808.97
173.857
1653.3
5.27831
1454.25
-149.15
1190.81
-310.782
965.781
-306.439
442.957
-182.634
-632.101
-112.729
-950.734
-89.5369
-1654.44
-87.0066
-1996.44
-69.7197
-2130.37
-33.7378
-2150.53
13.1283
-2113.25
62.7596
-2062.66
112.148
-2036.96
163.617
-2068.71
222.815
-2184.25
297.444
-2405.59
394.262
-2747.62
515.661
-3205.53
658.269
-3744.84
811.013
-4300.84
954.908
-4785.46
1066.06
-5084.6
1131.43
-5124.99
1121.88
-4861.6
1069.75
-4148.25
1097.03
-3077.62
1242.41
-1995.67
1266.43
-1144.64
1120.57
-84.7961
1046.1
530.182
955.122
1189.69
882.983
1469.65
854.215
1484.04
911.381
1411.48
1046.42
1405.32
1170.28
1592.08
1192.74
1942
1116.8
2247.46
1011.09
2356.39
927.552
2270.71
841.272
2100.7
622.265
1979.47
160.615
1837.05
-348.009
1429.68
-576.776
865.523
-564.157
696.675
-679.172
867.682
-991.524
774.397
-1070.34
537.569
-882.798
143.203
-802.681
-557.313
-892.979
-1216.37
-1074.1
-1857.97
-1325.31
-2560.86
-1642.65
-3210.18
-1984.95
-3565.98
-2307.25
-3397.53
-2639.34
-2681.3
-3147.55
-1708.01
-3585.1
-102.913
-3712.37
1700.5
-3789.4
2949.1
-3859.15
3560.36
3689.72
2531.13
-2446.36
2632.39
-2089.98
2714.78
-1745.95
2782.38
-1418.33
2837.74
-1124.52
2881.68
-859.605
2913.22
-619.475
2929.7
-418.337
2930.21
-284.925
2922.35
-227.949
2918.79
-186.751
2914.83
-46.2473
2879.69
172.183
2793.41
181.68
2705.88
-174.465
2695.67
-423.594
2727.34
315.046
2695.7
1707.1
2590.73
2599.59
2450.16
2859.88
2298.81
2823.93
2145.79
2712.74
1993.66
2606.69
1842.91
2523.93
1693.48
2463.05
1545.16
2418.07
1397.77
2383.29
1251.13
2353.6
1105.08
2325.12
959.585
2292.71
815.064
2251.3
673.341
2189.68
534.646
2110.11
392.99
2029.59
245.161
1956.78
78.5394
1819.91
-103.537
1636.31
-227.438
1314.69
-308.138
1046.45
-302.729
437.491
-285.586
-649.267
-246.346
-989.995
-248.996
-1651.8
-260.761
-1984.68
-258.214
-2132.93
-238.493
-2170.27
-206.213
-2145.55
-167.538
-2101.34
-127.49
-2077.03
-87.7328
-2108.47
-45.0788
-2226.91
9.24887
-2459.92
83.5527
-2821.93
180.244
-3302.23
296.126
-3860.73
421.545
-4426.26
535.655
-4899.58
607.009
-5155.95
616.025
-5134
541.924
-4787.49
418.903
-4025.23
365.597
-3024.31
748.241
-2378.31
639.043
-1035.43
191.349
362.896
-87.41
808.944
-244.009
1346.29
-332.807
1558.44
-353.633
1504.87
-305.185
1363.03
-204.794
1304.93
-53.265
1440.55
114.123
1774.61
191.497
2170.08
130.023
2417.86
-22.0151
2422.75
-203.04
2281.72
-399.019
2175.45
-660.965
2099
-1003.71
1772.42
-1312.22
1174.04
-1426.04
810.495
-1433.26
874.896
-1449.68
790.824
-1338.52
426.408
-1231.94
36.6165
-1327.67
-461.584
-1527.15
-1016.88
-1792.94
-1592.18
-2140.78
-2213.01
-2571.29
-2779.67
-3042.28
-3095
-3485.5
-2954.32
-3877.29
-2289.51
-4330.18
-1255.11
-4708.3
275.207
-4883.45
1875.65
-4994.76
3060.42
-5088.65
3654.24
3786.41
2444.93
-2554.76
2538.47
-2183.52
2615.24
-1822.72
2677.65
-1480.74
2727.94
-1174.82
2767.18
-898.856
2794.93
-647.226
2808.81
-432.221
2807.17
-283.29
2795.85
-216.633
2787
-177.912
2779.51
-38.7627
2748.19
203.503
2670.3
259.557
2580.99
-85.1522
2554.48
-397.097
2570.42
299.103
2538.25
1739.26
2444.69
2693.15
2318.94
2985.62
2181.36
2961.51
2039.83
2854.26
1896.97
2749.55
1753.62
2667.27
1610.05
2606.62
1466.34
2561.79
1322.48
2527.14
1178.49
2497.59
1034.26
2469.35
889.735
2437.23
745.416
2395.62
603.074
2332.01
461.946
2251.23
316.875
2174.65
159.116
2114.54
-34.4886
2013.51
-214.129
1815.94
-303.477
1404.02
-336.352
1079.3
-324.469
425.574
-354.897
-618.856
-342.943
-1001.96
-370.212
-1624.54
-396.908
-1958
-411.844
-2118
-416.192
-2165.93
-414.32
-2147.44
-406.245
-2109.42
-390.805
-2092.48
-368.99
-2130.29
-338.616
-2257.3
-294.618
-2503.92
-234.28
-2882.28
-157.734
-3378.77
-66.9516
-3951.51
31.793
-4525
117.169
-4984.96
151.157
-5189.94
104.437
-5087.29
-19.2782
-4663.77
-192.022
-3852.49
-425.235
-2791.09
-670.48
-2133.07
-799.571
-906.336
-797.905
361.228
-995.826
1006.87
-1132.36
1482.82
-1201.75
1627.83
-1177.55
1480.67
-1072.08
1257.56
-935.153
1168.01
-796.554
1301.95
-666.369
1644.42
-584.351
2088.07
-588.471
2421.98
-662.55
2496.83
-768.483
2387.65
-900.11
2307.08
-1078.38
2277.27
-1310.8
2004.84
-1529.83
1393.07
-1632.97
913.63
-1635.87
877.796
-1649.42
804.376
-1668.73
445.717
-1709.2
77.0872
-1863.32
-307.456
-2104.41
-775.791
-2420.23
-1276.37
-2829.87
-1803.37
-3336.31
-2273.23
-3903.54
-2527.77
-4461.23
-2396.62
-4948.17
-1802.57
-5420.22
-783.062
-5781.58
636.568
-5966.8
2060.86
-6062.35
3155.96
-6120.85
3712.74
3842.64
2358.73
-2664.68
2451.86
-2276.65
2525.42
-1896.28
2583.39
-1538.72
2628.96
-1220.39
2663.6
-933.501
2687.29
-670.922
2698.31
-443.248
2695.06
-280.045
2681.7
-203.28
2668.19
-164.406
2655.48
-26.0614
2625.46
233.519
2556.2
328.806
2468.46
2.57589
2427.41
-356.053
2424.41
302.1
2387
1776.66
2301.94
2778.2
2189.59
3097.96
2065
3086.1
1934.44
2984.81
1800.45
2883.54
1664.16
2803.55
1526.15
2744.62
1386.76
2701.17
1246.22
2667.67
1104.68
2639.13
962.061
2611.96
818.278
2581
673.887
2540
529.992
2475.9
385.634
2395.59
236.171
2324.11
57.8365
2292.86
-161.492
2232.83
-320.439
1974.87
-373.287
1456.86
-376.842
1082.83
-369.359
418.051
-426.613
-561.625
-434.471
-994.123
-478.736
-1580.29
-518.466
-1918.28
-544.226
-2092.25
-557.21
-2152.95
-563.453
-2141.21
-568.249
-2104.63
-573.62
-2087.12
-576.583
-2127.33
-571.407
-2262.49
-553.813
-2521.52
-522.846
-2913.26
-478.951
-3422.67
-422.089
-4008.38
-355.695
-4591.39
-300.17
-5040.49
-297.453
-5192.65
-388.432
-4996.31
-556.202
-4496
-729.584
-3679.11
-875.943
-2644.73
-1168.94
-1840.07
-1457.34
-617.935
-1563.61
467.497
-1771.22
1214.48
-1911.79
1623.39
-1938.65
1654.7
-1835.99
1378.01
-1654.6
1076.17
-1477.14
990.545
-1342.9
1167.71
-1239.36
1540.88
-1156.71
2005.42
-1118.18
2383.44
-1146.06
2524.71
-1234.02
2475.62
-1353.9
2426.95
-1474.05
2397.42
-1595.46
2126.25
-1736.71
1534.31
-1863.96
1040.88
-1921.18
935.021
-1969.3
852.491
-2059.14
535.563
-2179.41
197.352
-2369.48
-117.389
-2629.34
-515.925
-2966.3
-939.417
-3398.26
-1371.4
-3930.98
-1740.51
-4536.15
-1922.59
-5151.06
-1781.72
-5702.98
-1250.65
-6198.38
-287.666
-6544.07
982.262
-6703.47
2220.26
-6739.29
3191.79
-6726.59
3700.05
3845.06
2285.76
-2770.36
2372.77
-2363.66
2440.04
-1963.56
2492.82
-1591.5
2534.49
-1262.06
2566.36
-965.371
2588.26
-692.824
2598.35
-453.351
2594.66
-276.358
2580.23
-188.849
2563.38
-147.567
2546.17
-8.86132
2515.76
263.927
2452.01
392.555
2365.13
89.4474
2310.69
-301.625
2287.6
325.188
2241.88
1822.38
2162.83
2857.25
2062.33
3198.45
1949.7
3198.73
1829.36
3105.15
1703.67
3009.23
1574
2933.22
1441.2
2877.42
1305.87
2836.49
1168.45
2805.09
1029.19
2778.38
888.045
2753.1
744.863
2724.18
599.992
2684.87
453.373
2622.51
305.866
2543.09
144.346
2485.62
-69.7276
2506.93
-294.388
2457.48
-408.896
2089.37
-431.888
1479.84
-424.47
1075.39
-430.357
423.914
-501.081
-490.915
-527.42
-967.795
-586.427
-1521.29
-640.205
-1864.51
-679.68
-2052.78
-705.17
-2127.47
-722.19
-2124.2
-736.708
-2090.12
-752.443
-2071.4
-768.732
-2111.05
-781.818
-2249.41
-788.359
-2514.98
-787.219
-2914.4
-777.796
-3432.1
-758.391
-4027.79
-729.85
-4619.93
-708.325
-5062.02
-734.888
-5166.09
-862.757
-4868.44
-1075.83
-4282.93
-1273.3
-3481.63
-1412.33
-2505.7
-1731.6
-1520.81
-2068.89
-280.642
-2286.07
684.677
-2491.23
1419.63
-2596.16
1728.32
-2553.36
1611.9
-2387.28
1211.93
-2182.96
871.86
-2011.49
819.073
-1884.45
1040.67
-1785.84
1442.28
-1706.57
1926.15
-1663.44
2340.31
-1684.88
2546.14
-1765.67
2556.41
-1850.16
2511.44
-1891.63
2438.89
-1930.63
2165.26
-2044.24
1647.92
-2198.63
1195.27
-2296.18
1032.57
-2366.9
923.211
-2483.02
651.68
-2641.71
356.051
-2845.61
86.5104
-3110.55
-250.992
-3445.64
-604.325
-3868.54
-948.505
-4384.6
-1224.44
-4971.74
-1335.46
-5575.16
-1178.29
-6142.79
-683.027
-6623.38
192.93
-6929.78
1288.66
-7060.28
2350.76
-7055.44
3186.95
-7004.83
3649.44
3819.09
2210.22
-2868.84
2288.83
-2442.28
2348.67
-2023.4
2395.79
-1638.63
2433.48
-1299.75
2462.85
-994.748
2483.63
-713.611
2493.73
-463.46
2490.47
-273.107
2475.68
-174.059
2456.76
-128.659
2437.16
10.7282
2407.24
293.841
2348.55
451.233
2264.13
173.862
2199.24
-236.741
2157.25
367.166
2102.14
1877.48
2027.33
2932.06
1937.18
3288.59
1835.35
3300.56
1724.35
3216.14
1606.29
3127.29
1482.74
3056.77
1354.79
3005.36
1223.29
2967.99
1088.83
2939.54
951.745
2915.46
811.958
2892.89
669.241
2866.89
523.136
2830.97
372.858
2772.79
219.263
2696.67
28.6713
2676.2
-218.358
2753.95
-414.196
2653.31
-477.76
2152.93
-484.789
1486.85
-478.042
1068.62
-498.41
444.249
-573.9
-415.446
-616.747
-924.965
-689.093
-1448.96
-757.471
-1796.14
-812.243
-1998.01
-852.515
-2087.21
-883.045
-2093.69
-910.056
-2063.11
-938.304
-2043.16
-968.748
-2080.61
-999.429
-2218.74
-1028.38
-2486.04
-1055.08
-2887.72
-1078.94
-3408.24
-1097.72
-4009.02
-1109.76
-4607.89
-1123.79
-5047.99
-1173.53
-5116.35
-1321.8
-4720.18
-1576.67
-4028.05
-1837.81
-3220.5
-2034.94
-2308.57
-2378.39
-1177.35
-2692.62
33.5897
-2935.08
927.138
-3106.57
1591.12
-3159.71
1781.46
-3082.24
1534.43
-2932.55
1062.24
-2782.81
722.128
-2655.65
691.909
-2541.71
926.735
-2438.74
1339.3
-2351.35
1838.76
-2294.13
2283.09
-2285.46
2537.47
-2315.61
2586.56
-2338.03
2533.86
-2329.02
2429.89
-2344.4