/*--------------------------------*- C++ -*----------------------------------*\
| =========                 |                                                 |
| \\      /  F ield         | OpenFOAM: The Open Source CFD Toolbox           |
|  \\    /   O peration     | Version:  4.1                                   |
|   \\  /    A nd           | Web:      www.OpenFOAM.org                      |
|    \\/     M anipulation  |                                                 |
\*---------------------------------------------------------------------------*/
FoamFile
{
    version     2.0;
    format      ascii;
    class       volVectorField;
    location    "1000";
    object      U;
}
// * * * * * * * * * * * * * * * * * * * * * * * * * * * * * * * * * * * * * //

dimensions      [0 1 -1 0 0 0 0];

internalField   nonuniform List<vector> 
26785
(
(1.20921e-15 -0.0511887 25.7392)
(1.4271e-15 -0.0310604 26.472)
(4.74435e-16 -0.0165283 26.8591)
(8.14384e-17 -0.00294564 26.9618)
(4.83246e-15 0.00876462 26.8279)
(2.27364e-15 0.0181284 26.5053)
(7.17503e-15 0.0248946 26.0482)
(4.41849e-15 0.0288318 25.5136)
(2.78305e-15 0.0306229 24.9542)
(-1.06207e-16 0.0321197 24.3961)
(1.13433e-14 0.0343298 23.8277)
(8.84775e-15 0.035224 23.2382)
(6.49415e-15 0.0315138 22.6799)
(5.0744e-15 0.0254467 22.2336)
(4.66952e-15 0.0259738 21.8828)
(4.49691e-15 0.0391257 21.4618)
(4.37691e-15 0.0634666 20.7479)
(4.09647e-15 0.0854028 19.671)
(4.52004e-15 0.0956968 18.3795)
(-3.67721e-15 0.0971632 17.0555)
(9.47427e-16 0.0947778 15.7872)
(1.07018e-15 0.0913619 14.595)
(-2.42141e-15 0.0880857 13.4759)
(2.89762e-15 0.0853132 12.42)
(-3.41846e-16 0.0830686 11.4169)
(9.98024e-15 0.0812357 10.4583)
(5.10941e-15 0.079645 9.53815)
(3.01443e-15 0.0780962 8.65315)
(-1.33585e-14 0.076386 7.80234)
(-1.90129e-14 0.0742779 6.98708)
(-1.93558e-14 0.0715486 6.21076)
(6.22157e-16 0.0679074 5.47915)
(-1.2135e-14 0.0632476 4.79967)
(-1.6304e-14 0.0575134 4.18061)
(-4.85962e-14 0.0511822 3.62826)
(1.36856e-14 0.0439104 3.14573)
(-1.5357e-14 0.0357382 2.75188)
(-1.92089e-14 0.029031 2.4356)
(-1.74354e-14 0.015996 2.21671)
(-1.86808e-14 0.0104051 2.10322)
(-1.37029e-14 0.000631943 2.03081)
(-6.17203e-15 -0.0329825 2.1399)
(1.71874e-14 -0.0591426 2.50102)
(7.59486e-15 -0.0669128 3.00651)
(2.25217e-14 -0.065461 3.5954)
(-4.14251e-16 -0.0638599 4.25934)
(8.50189e-15 -0.0655653 4.9607)
(-6.8537e-15 -0.0687457 5.65659)
(-3.3802e-15 -0.0717038 6.32841)
(6.4196e-16 -0.074529 6.97714)
(8.81013e-15 -0.0780665 7.61477)
(-7.27917e-15 -0.0832961 8.25944)
(-6.0306e-15 -0.0911693 8.93337)
(-9.19401e-15 -0.102426 9.66279)
(-1.23178e-14 -0.117242 10.4761)
(-1.28532e-14 -0.135141 11.3987)
(-1.80866e-14 -0.154473 12.4461)
(-1.3328e-14 -0.171473 13.6147)
(-1.96515e-14 -0.180136 14.8667)
(-2.2088e-14 -0.174398 16.1232)
(-1.24532e-14 -0.149452 17.2652)
(-1.28116e-14 -0.108693 18.1653)
(-1.31421e-14 -0.0627317 18.7528)
(-1.16745e-14 -0.0202257 19.0389)
(-4.25625e-15 0.0165325 19.0733)
(-7.08187e-15 0.0474658 18.8976)
(-5.87043e-15 0.0705298 18.5528)
(-4.93641e-15 0.0851478 18.0918)
(-3.75057e-15 0.0939902 17.5611)
(-2.38792e-15 0.100576 16.9807)
(-4.76129e-15 0.107113 16.3489)
(3.29813e-15 0.113824 15.6606)
(4.28514e-15 0.119417 14.9201)
(7.20781e-15 0.122261 14.1459)
(8.94287e-15 0.12149 13.3657)
(1.53648e-14 0.117397 12.607)
(8.98622e-15 0.111022 11.8911)
(1.18726e-14 0.103432 11.23)
(1.14271e-14 0.095393 10.6277)
(1.07101e-14 0.086982 10.0849)
(1.00212e-14 0.0786851 9.60011)
(1.437e-15 0.0695183 9.17121)
(1.07633e-14 0.0535102 8.81173)
(7.28223e-15 0.0245725 8.57388)
(-1.21115e-16 -0.0147674 8.52603)
(1.12411e-14 -0.0510248 8.68785)
(6.84704e-15 -0.079894 9.02286)
(5.03055e-15 -0.107059 9.50254)
(-3.59784e-15 -0.135615 10.1338)
(4.04292e-15 -0.167932 10.9304)
(2.19034e-15 -0.202673 11.8923)
(2.53628e-15 -0.233076 12.9871)
(3.60604e-15 -0.250038 14.1467)
(5.11858e-15 -0.247925 15.2775)
(6.27976e-15 -0.224001 16.289)
(7.28211e-15 -0.183753 17.0878)
(9.83904e-15 -0.133378 17.6743)
(9.92383e-15 -0.0817429 17.956)
(1.02278e-14 -0.0127773 18.1947)
(9.86558e-15 0.0604298 17.8015)
(1.09399e-15 -0.115478 26.4668)
(-1.04959e-15 -0.0669539 27.1251)
(1.90613e-15 -0.0295893 27.4496)
(2.4884e-15 0.0070087 27.4977)
(1.68485e-15 0.0390663 27.3171)
(-2.26525e-16 0.0648951 26.9549)
(7.72322e-15 0.0836208 26.4625)
(-1.52492e-15 0.0943447 25.8942)
(-3.28623e-15 0.0987325 25.302)
(2.96584e-15 0.102066 24.715)
(1.91181e-15 0.107651 24.1236)
(2.07851e-15 0.109906 23.5134)
(2.06639e-15 0.0985223 22.9324)
(1.31835e-15 0.0791544 22.4688)
(-7.81472e-16 0.0794549 22.119)
(6.01399e-15 0.119686 21.7017)
(7.55454e-15 0.19565 20.9607)
(2.50217e-15 0.263519 19.8266)
(4.51179e-15 0.294279 18.4713)
(3.90272e-15 0.297223 17.0936)
(-5.86064e-15 0.288329 15.7858)
(9.13938e-15 0.276609 14.5668)
(3.60312e-16 0.265717 13.4302)
(9.75596e-15 0.256701 12.3631)
(7.00263e-15 0.249533 11.3531)
(2.26907e-15 0.243768 10.3904)
(9.56e-15 0.238829 9.46818)
(5.41674e-15 0.234082 8.58267)
(2.32246e-15 0.228917 7.7324)
(-4.14535e-15 0.22265 6.9181)
(1.00872e-14 0.214643 6.14231)
(-7.23065e-15 0.204041 5.4098)
(-6.71299e-15 0.190479 4.72694)
(-5.0461e-15 0.173562 4.10149)
(6.88143e-15 0.15424 3.54093)
(-1.09036e-14 0.131052 3.05265)
(-2.49541e-14 0.105093 2.6615)
(-2.13445e-14 0.0848227 2.35098)
(-1.62965e-14 0.0470418 2.14042)
(-1.68134e-14 0.0316577 2.01811)
(-8.47789e-15 -0.0024423 1.94767)
(-2.32191e-14 -0.0949248 2.0637)
(-3.1974e-14 -0.14933 2.33174)
(1.28684e-14 -0.170945 2.76049)
(-5.54829e-15 -0.199159 3.41554)
(-8.05424e-15 -0.22836 4.23142)
(-2.49128e-14 -0.244941 5.06764)
(-9.69772e-15 -0.248105 5.84559)
(-2.28101e-14 -0.244943 6.55547)
(5.55917e-15 -0.24267 7.21514)
(-1.37135e-14 -0.245674 7.84866)
(3.32442e-16 -0.256428 8.48052)
(-5.98501e-15 -0.276906 9.13594)
(-1.24622e-14 -0.308875 9.84268)
(-2.83195e-16 -0.352605 10.6287)
(-1.25245e-14 -0.40585 11.5158)
(-1.29077e-14 -0.462662 12.5179)
(-4.19986e-15 -0.512015 13.6392)
(-1.25254e-15 -0.537314 14.8556)
(-7.87378e-15 -0.521005 16.0952)
(-6.73071e-15 -0.448503 17.2343)
(-1.03094e-14 -0.330233 18.1388)
(-5.12853e-15 -0.198156 18.7372)
(-3.34e-15 -0.0777761 19.0442)
(-7.97813e-15 0.0258446 19.1137)
(-6.23814e-15 0.114303 18.9803)
(-6.8751e-15 0.181905 18.6805)
(-7.37055e-15 0.227719 18.2638)
(-9.28463e-15 0.260628 17.7719)
(2.10676e-15 0.291222 17.218)
(-2.81845e-15 0.324479 16.5926)
(-3.73312e-15 0.357969 15.8853)
(5.0352e-15 0.384877 15.1012)
(5.43855e-15 0.398909 14.2654)
(1.07468e-14 0.397737 13.4148)
(3.59795e-15 0.383424 12.5855)
(1.50122e-14 0.360416 11.8047)
(8.55397e-15 0.332968 11.0878)
(6.15702e-15 0.304046 10.44)
(1.81245e-14 0.274159 9.86224)
(1.11922e-14 0.244926 9.35319)
(-1.24804e-15 0.214864 8.90894)
(8.52605e-15 0.16657 8.53441)
(-3.67411e-15 0.0801482 8.27779)
(-8.36229e-15 -0.0371042 8.20442)
(-8.07854e-15 -0.14333 8.33014)
(-5.37808e-15 -0.229887 8.62848)
(-6.3123e-16 -0.319096 9.0832)
(-1.31633e-15 -0.418185 9.71086)
(2.88035e-15 -0.521903 10.5066)
(5.69299e-15 -0.61365 11.4356)
(6.53318e-15 -0.671798 12.4401)
(7.41737e-15 -0.678202 13.4438)
(5.71005e-15 -0.62845 14.3561)
(8.24075e-15 -0.524273 15.0956)
(7.88868e-15 -0.389995 15.5836)
(9.04634e-15 -0.250206 15.8504)
(1.10992e-14 -0.126913 15.8506)
(1.18783e-14 0.0111136 15.8657)
(1.22835e-14 0.173088 15.5236)
(1.72516e-15 -0.182284 26.6636)
(9.33226e-16 -0.109723 27.2567)
(-3.62491e-15 -0.0480861 27.5369)
(3.96827e-15 0.0130492 27.5581)
(-1.01177e-15 0.0665361 27.3641)
(-6.7038e-15 0.109736 26.9971)
(4.81998e-15 0.141322 26.5027)
(-2.241e-15 0.159663 25.9312)
(-1.41268e-15 0.167155 25.3339)
(-1.7788e-15 0.17247 24.7433)
(-1.54754e-15 0.181643 24.1513)
(-1.24102e-15 0.185769 23.5388)
(-9.45646e-16 0.166571 22.9502)
(-7.65719e-16 0.132026 22.4862)
(-1.97711e-15 0.130897 22.1606)
(-3.23661e-15 0.20084 21.7791)
(5.93914e-15 0.333791 21.0416)
(-3.94366e-15 0.45104 19.8679)
(3.40969e-15 0.502233 18.4555)
(-5.66099e-15 0.504697 17.0263)
(3.39502e-15 0.487009 15.6802)
(4.00387e-15 0.465077 14.4353)
(-7.77598e-15 0.445168 13.2823)
(7.46985e-16 0.428922 12.2058)
(1.1948e-14 0.416127 11.1916)
(-3.95556e-16 0.405907 10.2289)
(-8.51199e-15 0.39722 9.31014)
(-3.3523e-15 0.38899 8.43094)
(-1.40541e-15 0.380226 7.58916)
(1.61322e-16 0.369848 6.78467)
(-2.93895e-15 0.356864 6.01875)
(1.14895e-14 0.339881 5.2948)
(-9.66304e-15 0.318247 4.61766)
(-3.10105e-14 0.290977 3.9936)
(-2.12873e-14 0.258854 3.42935)
(-3.05115e-14 0.218356 2.93456)
(-2.50368e-14 0.17261 2.5414)
(-1.68885e-14 0.137625 2.23022)
(-1.25161e-14 0.0762055 2.03402)
(-1.03984e-14 0.0526556 1.91016)
(-9.66635e-15 -0.00843023 1.84652)
(-2.89256e-14 -0.137344 1.9256)
(-3.04172e-14 -0.208979 2.10099)
(-3.03238e-14 -0.283011 2.61644)
(-3.30576e-14 -0.375929 3.4568)
(-3.23367e-14 -0.429968 4.36977)
(-2.7557e-14 -0.438723 5.20386)
(-1.91296e-14 -0.425084 5.93453)
(-1.22927e-14 -0.408479 6.58557)
(-8.26796e-15 -0.399249 7.18578)
(-6.55878e-15 -0.401689 7.76011)
(-5.56929e-15 -0.418116 8.33144)
(-6.72172e-15 -0.451147 8.92328)
(-3.7067e-15 -0.503031 9.55996)
(7.87581e-18 -0.572799 10.2632)
(-2.31761e-15 -0.656679 11.0555)
(7.76395e-15 -0.748636 11.9716)
(1.16734e-14 -0.834805 13.0457)
(1.01066e-14 -0.886239 14.2608)
(1.40571e-14 -0.867685 15.522)
(7.93954e-15 -0.750781 16.6766)
(9.92325e-15 -0.55451 17.5764)
(1.07189e-14 -0.335629 18.1534)
(9.76789e-15 -0.138183 18.4345)
(4.93678e-15 0.031524 18.4828)
(9.06073e-15 0.177138 18.3335)
(8.29032e-15 0.288355 18.0259)
(-5.72474e-16 0.363994 17.612)
(-2.35732e-15 0.419404 17.1365)
(-5.10655e-15 0.473126 16.6166)
(-5.16891e-15 0.534426 16.0416)
(-1.28193e-15 0.598723 15.3899)
(1.86455e-15 0.652434 14.652)
(-6.09301e-16 0.682628 13.8438)
(-7.78122e-16 0.684182 13.0012)
(6.10167e-15 0.660667 12.1654)
(7.48959e-15 0.620376 11.3702)
(7.04278e-15 0.571323 10.6366)
(7.83623e-15 0.519074 9.97345)
(7.58233e-15 0.464728 9.38447)
(6.21913e-15 0.411426 8.86994)
(4.92463e-15 0.360323 8.42364)
(6.01135e-16 0.282217 8.03985)
(1.37633e-14 0.13991 7.76401)
(8.01103e-15 -0.0522719 7.66546)
(6.754e-15 -0.224162 7.75619)
(6.69851e-15 -0.370875 8.02736)
(7.4958e-15 -0.528435 8.46594)
(8.2164e-15 -0.694738 9.07221)
(6.13557e-15 -0.851704 9.8118)
(8.51074e-15 -0.976753 10.6478)
(6.73834e-15 -1.04479 11.5443)
(5.03335e-15 -1.03044 12.4397)
(7.45217e-15 -0.926129 13.2383)
(6.77505e-15 -0.731901 13.8392)
(6.87385e-15 -0.494243 14.1407)
(7.94262e-15 -0.268164 14.1718)
(8.67438e-15 -0.082189 13.9078)
(8.96695e-15 0.0625216 13.6112)
(1.00578e-14 0.258185 13.0634)
(1.78089e-15 -0.244112 26.4706)
(1.52761e-15 -0.147873 26.9963)
(-8.91146e-16 -0.0635151 27.2363)
(-4.7791e-15 0.019758 27.2437)
(-5.51641e-15 0.0927079 27.0565)
(-3.93716e-15 0.152182 26.7089)
(-7.87557e-15 0.196306 26.2381)
(-6.46396e-15 0.222309 25.6871)
(3.42852e-15 0.232808 25.1061)
(1.99948e-15 0.239776 24.5319)
(1.16496e-15 0.252551 23.9593)
(5.9596e-16 0.259189 23.3608)
(8.15343e-19 0.232153 22.7733)
(6.87586e-15 0.179876 22.3138)
(1.77766e-15 0.174403 22.0269)
(-4.36409e-16 0.275274 21.7105)
(-1.889e-15 0.471341 21.0059)
(4.50058e-15 0.64332 19.8093)
(-4.63393e-15 0.716352 18.3478)
(-5.67584e-16 0.717227 16.8726)
(-1.90027e-15 0.688985 15.4925)
(4.66644e-16 0.655261 14.2253)
(-4.04564e-15 0.625091 13.0588)
(1.16792e-15 0.600636 11.9756)
(3.51223e-15 0.581403 10.96)
(4.8386e-15 0.566019 10.0006)
(3.97683e-15 0.552962 9.08927)
(3.56503e-15 0.540731 8.22123)
(3.59437e-15 0.528004 7.39366)
(2.83143e-15 0.513369 6.60547)
(3.7329e-15 0.495538 5.85676)
(1.06238e-14 0.472634 5.14952)
(4.88942e-15 0.443776 4.48702)
(-4.64781e-15 0.407369 3.87359)
(-3.78686e-14 0.363698 3.31361)
(9.66388e-15 0.306092 2.81596)
(-7.28472e-14 0.239818 2.41839)
(4.28939e-16 0.188362 2.10116)
(-1.33013e-14 0.101885 1.92217)
(-2.44501e-14 0.0727533 1.80092)
(3.84302e-14 -0.00998664 1.71943)
(-3.3978e-14 -0.166071 1.71468)
(-4.13725e-14 -0.275418 1.9093)
(-3.98323e-14 -0.435892 2.6247)
(-1.94742e-14 -0.578238 3.55166)
(-2.17611e-14 -0.627504 4.40926)
(-5.65564e-15 -0.615881 5.14436)
(-3.31208e-15 -0.584925 5.77806)
(-7.66412e-15 -0.557028 6.34045)
(-9.12086e-15 -0.541926 6.85671)
(2.45243e-15 -0.543609 7.34878)
(-2.11504e-14 -0.564765 7.83797)
(5.20016e-15 -0.608314 8.3452)
(6.00426e-15 -0.676142 8.89076)
(9.32448e-15 -0.768299 9.50275)
(1.6859e-14 -0.886676 10.2336)
(1.50012e-14 -1.02917 11.1515)
(2.30514e-14 -1.17078 12.2819)
(1.41165e-14 -1.25735 13.5569)
(1.48867e-14 -1.23288 14.8402)
(1.29874e-14 -1.06103 15.9719)
(1.64906e-14 -0.776771 16.8161)
(1.21964e-14 -0.46593 17.3221)
(1.61223e-14 -0.191294 17.5353)
(1.68985e-14 0.0428849 17.5291)
(2.02889e-14 0.243333 17.3303)
(7.22653e-15 0.393948 16.9777)
(8.24981e-15 0.493522 16.5274)
(1.03559e-14 0.563489 16.0289)
(4.621e-15 0.630812 15.5069)
(4.2098e-15 0.712062 14.9579)
(-4.63599e-17 0.804106 14.3592)
(1.65055e-15 0.887527 13.6898)
(-1.21209e-14 0.940523 12.9501)
(-5.39177e-15 0.95208 12.1659)
(7.71258e-15 0.92528 11.3759)
(-2.7064e-15 0.871636 10.6153)
(1.52243e-14 0.803071 9.90855)
(1.4926e-14 0.728226 9.26712)
(1.4616e-14 0.649094 8.69759)
(1.21009e-14 0.570637 8.20418)
(1.03204e-14 0.50121 7.77752)
(1.37963e-14 0.399897 7.39637)
(-5.6223e-15 0.204832 7.10578)
(1.7113e-15 -0.0621974 6.98978)
(-4.42309e-16 -0.298737 7.05516)
(1.38402e-14 -0.507285 7.31303)
(8.22306e-15 -0.730958 7.73281)
(9.74411e-15 -0.953218 8.29171)
(7.05997e-15 -1.15405 8.95519)
(1.35499e-14 -1.31532 9.71813)
(7.72279e-15 -1.40452 10.5688)
(8.30685e-15 -1.37659 11.441)
(1.07044e-14 -1.21383 12.2213)
(1.11948e-14 -0.908841 12.7878)
(1.20235e-14 -0.538171 13.0145)
(1.09518e-14 -0.195052 12.9359)
(1.10834e-14 0.0946938 12.482)
(8.50536e-15 0.267957 11.9062)
(8.12466e-15 0.439608 10.9613)
(1.46004e-15 -0.303036 26.0131)
(2.12844e-15 -0.185362 26.453)
(-3.76802e-16 -0.0820485 26.6466)
(3.73064e-16 0.0200596 26.64)
(-5.10163e-15 0.110323 26.4627)
(-2.4661e-15 0.185148 26.1405)
(3.71442e-15 0.241999 25.7014)
(-5.27922e-15 0.276508 25.18)
(-3.35659e-15 0.290675 24.6235)
(-2.11601e-15 0.29943 24.0744)
(-3.48373e-16 0.316408 23.5316)
(-4.04825e-15 0.327511 22.9575)
(-4.74883e-15 0.294002 22.3738)
(-5.66385e-16 0.22117 21.9131)
(-5.71737e-15 0.206411 21.6637)
(-5.89161e-15 0.337937 21.4404)
(1.5439e-16 0.604239 20.8167)
(-3.97363e-16 0.838145 19.6358)
(2.2768e-16 0.935391 18.1485)
(-4.85994e-16 0.933859 16.6414)
(-4.99675e-16 0.893417 15.2371)
(6.1619e-15 0.84643 13.9545)
(-3.37461e-16 0.804851 12.7796)
(-5.06331e-16 0.771266 11.6936)
(1.20588e-15 0.74479 10.6801)
(3.24366e-15 0.723499 9.72706)
(1.28347e-15 0.705383 8.82628)
(1.32411e-14 0.688547 7.97249)
(1.70251e-15 0.671386 7.16226)
(2.52468e-15 0.652206 6.39371)
(-7.39684e-16 0.629485 5.66591)
(2.73304e-15 0.600908 4.97975)
(8.09221e-15 0.565474 4.33718)
(2.48314e-14 0.521133 3.74069)
(4.52821e-15 0.46767 3.19155)
(2.44211e-15 0.394263 2.69533)
(-1.54699e-15 0.307565 2.29324)
(-1.5776e-14 0.237278 1.96703)
(-1.25489e-14 0.123224 1.80639)
(-8.82478e-15 0.0961298 1.68443)
(-1.04544e-14 0.00349789 1.54171)
(2.41235e-14 -0.204741 1.45983)
(-1.24083e-15 -0.37539 1.81579)
(-1.52905e-15 -0.615937 2.67617)
(-1.45445e-14 -0.773401 3.54532)
(-1.07081e-14 -0.802948 4.2746)
(-8.39689e-15 -0.770751 4.8844)
(-8.19968e-15 -0.724408 5.40624)
(-5.581e-15 -0.686106 5.86672)
(-7.31024e-15 -0.665505 6.28891)
(9.96724e-15 -0.666792 6.69448)
(-2.2941e-17 -0.69263 7.10393)
(9.93536e-15 -0.745899 7.53667)
(1.13421e-14 -0.83127 8.02105)
(1.56681e-14 -0.956558 8.6135)
(2.21769e-14 -1.12963 9.39003)
(1.32261e-14 -1.33837 10.3903)
(1.02917e-14 -1.53273 11.5717)
(4.00142e-15 -1.63712 12.8251)
(7.94114e-15 -1.58909 14.0297)
(4.32201e-15 -1.35146 15.0614)
(8.50923e-15 -0.975074 15.8045)
(3.80161e-15 -0.573795 16.216)
(1.09308e-14 -0.227514 16.354)
(1.27618e-14 0.0668836 16.2962)
(1.28886e-14 0.320783 16.0523)
(2.65676e-14 0.509096 15.6601)
(1.98635e-14 0.630133 15.1775)
(2.60465e-14 0.710855 14.659)
(1.37737e-14 0.785413 14.1321)
(1.25721e-14 0.877426 13.5982)
(6.42456e-15 0.987734 13.0394)
(6.5408e-15 1.09448 12.4317)
(-5.29928e-15 1.16821 11.7658)
(2.60674e-15 1.19094 11.057)
(6.80252e-16 1.16355 10.3374)
(-1.1018e-14 1.09958 9.63988)
(4.26042e-15 1.01424 8.98836)
(4.75724e-15 0.918805 8.39499)
(1.63197e-14 0.815578 7.86831)
(5.26983e-15 0.711108 7.41861)
(-5.88155e-15 0.628278 7.03179)
(1.55295e-14 0.513849 6.66461)
(1.48614e-14 0.267716 6.36294)
(1.96412e-15 -0.0752976 6.23055)
(9.09915e-15 -0.372888 6.28223)
(6.85412e-15 -0.64055 6.5432)
(9.74995e-15 -0.921612 6.93176)
(1.04531e-14 -1.18877 7.41667)
(1.6173e-14 -1.43317 7.99461)
(1.28068e-14 -1.64071 8.69144)
(1.30961e-14 -1.7614 9.49934)
(8.06588e-15 -1.7241 10.3399)
(8.33122e-15 -1.50436 11.0955)
(8.37303e-15 -1.08011 11.6397)
(8.64906e-15 -0.570014 11.833)
(7.52678e-15 -0.0918233 11.7577)
(8.9228e-15 0.339004 11.201)
(9.77842e-15 0.584371 10.5032)
(9.33529e-15 0.70812 9.20848)
(1.44725e-15 -0.366008 25.3272)
(1.57348e-15 -0.224978 25.7332)
(-8.4431e-16 -0.103063 25.9106)
(1.28479e-15 0.0166747 25.899)
(-2.87306e-15 0.122934 25.7269)
(-2.43605e-15 0.212097 25.4194)
(1.96077e-16 0.281206 25.0015)
(-3.81538e-15 0.324181 24.5025)
(-8.86791e-15 0.341813 23.967)
(-8.07253e-15 0.351666 23.4405)
(1.95242e-16 0.372591 22.9266)
(4.10896e-16 0.389545 22.38)
(-6.13611e-15 0.351213 21.802)
(-3.56438e-15 0.255213 21.3266)
(-3.47181e-15 0.223673 21.0905)
(-3.59272e-15 0.380876 20.9614)
(-3.00419e-15 0.723086 20.4566)
(-2.96341e-15 1.02822 19.3334)
(1.95701e-15 1.15447 17.8509)
(3.37161e-15 1.15136 16.333)
(3.08192e-15 1.0981 14.9193)
(1.57031e-15 1.03702 13.6316)
(9.06161e-15 0.983301 12.4561)
(4.26097e-15 0.939924 11.3731)
(-5.35052e-15 0.905574 10.3662)
(4.03617e-15 0.877754 9.42326)
(5.11726e-15 0.853982 8.53588)
(4.28518e-15 0.832 7.69848)
(5.22236e-15 0.809965 6.90713)
(-5.27872e-15 0.785939 6.1593)
(-1.44484e-15 0.758201 5.4533)
(-1.11908e-14 0.72403 4.78926)
(2.16885e-15 0.68242 4.16826)
(3.2336e-15 0.631098 3.59152)
(2.81974e-14 0.56967 3.05715)
(-2.55615e-15 0.482364 2.56598)
(-1.10417e-15 0.376029 2.16118)
(-7.35284e-15 0.284729 1.82408)
(-1.04109e-14 0.140323 1.68125)
(-2.85108e-14 0.129235 1.54007)
(-6.28948e-15 0.0331117 1.31113)
(4.77371e-14 -0.278078 1.23754)
(2.05885e-14 -0.512618 1.79611)
(-1.75791e-14 -0.798229 2.66502)
(-4.61801e-15 -0.943903 3.39349)
(-7.43592e-15 -0.950114 3.97462)
(-5.03273e-15 -0.900028 4.45345)
(-7.3634e-15 -0.840992 4.86102)
(-5.16016e-16 -0.794895 5.22342)
(9.38357e-15 -0.771554 5.5643)
(1.47867e-14 -0.775076 5.90511)
(1.48736e-14 -0.808025 6.26527)
(1.51592e-14 -0.875746 6.66831)
(1.18454e-14 -0.990327 7.16003)
(7.11924e-15 -1.16497 7.8081)
(9.87819e-16 -1.39918 8.65293)
(-3.2711e-15 -1.66067 9.6678)
(-7.40366e-15 -1.88378 10.7794)
(-6.66159e-15 -1.98884 11.9027)
(3.37181e-16 -1.91393 12.9655)
(7.21757e-16 -1.61459 13.8776)
(1.58448e-15 -1.15086 14.5227)
(-5.28606e-15 -0.665159 14.8493)
(-1.94653e-15 -0.25537 14.9269)
(1.10073e-15 0.0939498 14.8348)
(1.52571e-14 0.399689 14.5608)
(1.66684e-14 0.623471 14.1433)
(2.27348e-14 0.762595 13.6418)
(3.31199e-14 0.849888 13.1178)
(2.59387e-14 0.927248 12.6002)
(2.09664e-14 1.02477 12.09)
(5.16748e-15 1.14735 11.5716)
(7.02324e-15 1.27218 11.0218)
(5.53216e-15 1.36353 10.427)
(1.5019e-14 1.3967 9.79635)
(4.27135e-15 1.3698 9.15609)
(5.42683e-15 1.29765 8.53476)
(1.11495e-14 1.19804 7.95385)
(7.9939e-15 1.08432 7.42392)
(9.10235e-15 0.958459 6.95429)
(6.61139e-15 0.826972 6.56459)
(1.99923e-14 0.737024 6.23609)
(1.8618e-14 0.624842 5.89259)
(4.69664e-14 0.332703 5.57688)
(3.25467e-16 -0.0910602 5.41574)
(8.11577e-15 -0.452053 5.46632)
(1.83917e-14 -0.770033 5.72864)
(1.32599e-14 -1.09008 6.05301)
(1.11521e-14 -1.39291 6.44199)
(1.06315e-14 -1.6856 6.92974)
(1.20168e-14 -1.94715 7.54935)
(8.05248e-15 -2.10382 8.28793)
(8.31827e-15 -2.05975 9.05962)
(6.58694e-15 -1.79148 9.7516)
(8.43728e-15 -1.25059 10.2338)
(6.45406e-15 -0.616122 10.3624)
(6.49265e-15 0.00732988 10.3179)
(7.39143e-15 0.607322 9.69798)
(8.89535e-15 0.958675 9.01142)
(7.98483e-15 1.03953 7.54514)
(7.75173e-16 -0.416029 24.741)
(1.03117e-15 -0.261026 25.1117)
(2.2771e-15 -0.123528 25.2634)
(6.36356e-16 0.0121611 25.236)
(-2.97033e-15 0.133048 25.0587)
(-3.5511e-15 0.235452 24.756)
(8.16258e-16 0.316152 24.3492)
(5.29318e-16 0.367393 23.8617)
(-2.15857e-15 0.388334 23.334)
(3.58815e-15 0.398633 22.8153)
(4.97312e-15 0.423006 22.3187)
(-4.66082e-15 0.447461 21.7919)
(-2.79743e-15 0.407895 21.1972)
(-2.44242e-15 0.288047 20.6495)
(-2.91568e-15 0.230488 20.357)
(-4.98698e-15 0.40311 20.2909)
(1.6262e-15 0.822895 19.9282)
(3.31714e-15 1.20819 18.9012)
(-1.00912e-15 1.36924 17.4544)
(-5.94709e-16 1.36639 15.9486)
(-6.5537e-15 1.30053 14.5423)
(4.19647e-15 1.22518 13.2622)
(6.53236e-15 1.15904 12.0954)
(-1.47022e-15 1.10555 11.0228)
(6.37372e-16 1.06295 10.028)
(1.4944e-15 1.0282 9.09929)
(-1.13435e-15 0.998363 8.22818)
(5.14103e-15 0.970867 7.40887)
(1.10126e-14 0.943656 6.63702)
(-7.09315e-15 0.914567 5.90962)
(1.12755e-15 0.881704 5.22447)
(-3.75437e-15 0.841938 4.58134)
(-5.47312e-15 0.794344 3.98086)
(-6.63882e-16 0.736698 3.42368)
(6.58097e-16 0.668922 2.90506)
(9.20961e-16 0.569732 2.42087)
(6.43076e-15 0.445131 2.0155)
(2.94888e-16 0.331014 1.66468)
(-8.7778e-15 0.155664 1.53664)
(-3.09357e-14 0.175088 1.34929)
(4.49238e-14 0.0628899 1.06704)
(4.40955e-14 -0.375946 1.09683)
(-1.92191e-14 -0.664391 1.77961)
(-7.06294e-15 -0.961096 2.54041)
(-8.43593e-15 -1.0826 3.10151)
(-6.0093e-15 -1.06819 3.53758)
(-2.37582e-15 -1.00449 3.8952)
(2.07622e-14 -0.937116 4.20641)
(6.81995e-15 -0.887877 4.49755)
(2.18375e-14 -0.866433 4.78999)
(1.67605e-14 -0.876587 5.10152)
(8.02319e-15 -0.921941 5.45013)
(-1.00601e-14 -1.01266 5.86498)
(-7.90691e-15 -1.1659 6.39493)
(-1.10857e-14 -1.38968 7.07961)
(-1.366e-14 -1.66918 7.9083)
(-1.01166e-14 -1.96169 8.83314)
(-9.1999e-15 -2.19944 9.80291)
(-9.86922e-15 -2.30343 10.7642)
(7.82738e-16 -2.20946 11.6793)
(6.91869e-16 -1.85718 12.4815)
(1.78621e-16 -1.31052 13.0426)
(-3.14806e-16 -0.74496 13.2956)
(5.17817e-15 -0.279309 13.3276)
(-2.36867e-16 0.121416 13.2176)
(7.63891e-15 0.477774 12.9299)
(2.76986e-15 0.735773 12.4989)
(2.1536e-14 0.88975 11.9872)
(3.47367e-14 0.979066 11.4679)
(2.59588e-14 1.05503 10.9721)
(3.06461e-14 1.15404 10.4982)
(1.04763e-14 1.28443 10.0289)
(1.8578e-14 1.42278 9.54034)
(1.54189e-14 1.52785 9.01685)
(1.00743e-14 1.56888 8.46438)
(2.76063e-14 1.54163 7.90598)
(2.3065e-14 1.46216 7.36633)
(2.2554e-14 1.35036 6.86353)
(2.23196e-14 1.2205 6.4054)
(1.83645e-14 1.07329 6.00012)
(2.86756e-14 0.911451 5.68261)
(1.13276e-14 0.820461 5.4303)
(3.72941e-14 0.732519 5.11714)
(7.11261e-14 0.401468 4.78717)
(2.97456e-14 -0.116954 4.55412)
(2.75605e-14 -0.540558 4.59598)
(1.73806e-14 -0.886378 4.85276)
(1.19688e-14 -1.22725 5.10127)
(7.75086e-15 -1.56435 5.3909)
(7.22783e-15 -1.90965 5.77832)
(8.85262e-15 -2.2272 6.30079)
(6.29337e-15 -2.41975 6.94665)
(3.73658e-15 -2.36617 7.61185)
(5.4585e-15 -2.0541 8.19067)
(6.00821e-15 -1.38663 8.5365)
(5.6275e-15 -0.670104 8.51971)
(3.43881e-15 0.0831709 8.44295)
(6.5168e-16 0.859018 7.80168)
(1.55967e-15 1.31134 7.22455)
(5.10292e-15 1.35353 5.77768)
(1.89028e-15 -0.470796 24.1371)
(8.02302e-16 -0.299956 24.4673)
(-2.55583e-15 -0.145321 24.5873)
(-5.28889e-15 0.00622496 24.5405)
(-2.21835e-15 0.141038 24.3562)
(-7.812e-17 0.25608 24.058)
(-1.64185e-15 0.348236 23.6624)
(-4.19404e-15 0.408112 23.1854)
(2.59925e-15 0.432545 22.6603)
(4.97696e-17 0.442329 22.1408)
(-6.57492e-16 0.46902 21.6561)
(-9.07035e-16 0.503618 21.1496)
(-9.31383e-16 0.47038 20.5263)
(-6.16981e-16 0.329525 19.8551)
(4.76604e-16 0.23335 19.427)
(2.46659e-15 0.402291 19.38)
(-4.4551e-15 0.896046 19.1958)
(-2.50522e-15 1.37096 18.3244)
(-1.58872e-15 1.57454 16.9564)
(-3.07081e-15 1.57527 15.4904)
(-8.1271e-16 1.49799 14.1105)
(7.54102e-16 1.40885 12.8518)
(8.44843e-15 1.33052 11.704)
(6.21582e-15 1.26697 10.6495)
(2.31947e-16 1.21607 9.67278)
(3.15419e-15 1.17425 8.76252)
(-4.40021e-15 1.1382 7.91044)
(7.70571e-15 1.10505 7.1106)
(-3.87559e-15 1.07256 6.35836)
(5.2071e-16 1.03835 5.65043)
(1.8889e-15 1.00035 4.9843)
(-1.36083e-15 0.954994 4.35965)
(-5.67246e-15 0.901499 3.77715)
(-5.39033e-15 0.837951 3.23744)
(-1.87658e-15 0.765155 2.73315)
(8.99139e-15 0.655953 2.25585)
(1.16392e-14 0.51498 1.85048)
(2.25759e-15 0.377006 1.48047)
(-7.87234e-15 0.172078 1.36268)
(-3.50946e-14 0.221963 1.10881)
(2.82261e-14 0.0876086 0.939754)
(4.55918e-14 -0.447133 1.03368)
(-2.13788e-14 -0.80181 1.70603)
(-8.76601e-15 -1.09377 2.29566)
(-6.25093e-15 -1.18984 2.69552)
(-2.93607e-15 -1.16056 3.00658)
(2.56873e-16 -1.08946 3.27201)
(4.94935e-16 -1.02001 3.52312)
(2.3405e-14 -0.9732 3.77951)
(-1.51857e-15 -0.958032 4.05353)
(-1.77244e-14 -0.978505 4.35648)
(-1.10458e-14 -1.0405 4.70534)
(-2.15249e-14 -1.15806 5.12996)
(-1.80435e-14 -1.34763 5.66484)
(-1.72704e-14 -1.60832 6.31731)
(-1.54275e-14 -1.91737 7.06013)
(-1.13407e-14 -2.23013 7.85823)
(4.59729e-15 -2.47763 8.67957)
(4.93133e-15 -2.58135 9.47801)
(1.28306e-14 -2.47691 10.2406)
(8.29407e-15 -2.08145 10.9343)
(7.95872e-15 -1.45639 11.4137)
(6.48444e-15 -0.81581 11.5918)
(4.22675e-15 -0.30396 11.582)
(3.2378e-15 0.143487 11.4668)
(2.0863e-15 0.548592 11.1884)
(1.52528e-15 0.841414 10.7632)
(1.6071e-14 1.00804 10.2544)
(2.76819e-14 1.09444 9.75075)
(2.66607e-14 1.16396 9.28854)
(2.63401e-14 1.26045 8.86352)
(1.34482e-14 1.39562 8.45487)
(9.69688e-15 1.54511 8.0352)
(7.46651e-15 1.66189 7.58604)
(1.49875e-14 1.70919 7.1123)
(1.20748e-14 1.68067 6.63642)
(2.00268e-14 1.59389 6.18061)
(2.74993e-14 1.47093 5.75937)
(2.44213e-14 1.32612 5.37687)
(2.58434e-14 1.15835 5.03823)
(1.11757e-14 0.959343 4.80323)
(2.46339e-14 0.870867 4.64293)
(4.55846e-14 0.836414 4.36643)
(2.34582e-14 0.483082 4.04727)
(5.17327e-14 -0.141269 3.65777)
(1.59111e-14 -0.627481 3.71553)
(1.28315e-14 -0.982808 4.00813)
(9.53864e-15 -1.33186 4.17469)
(4.16069e-15 -1.70049 4.33788)
(1.4197e-14 -2.09868 4.59329)
(4.48212e-15 -2.4731 4.98676)
(4.57877e-15 -2.69765 5.49691)
(8.0267e-15 -2.62527 5.98606)
(6.45118e-15 -2.25754 6.3988)
(8.36715e-15 -1.38584 6.47877)
(5.69172e-15 -0.557633 6.33576)
(3.91661e-15 0.203043 6.14389)
(9.8061e-16 1.08664 5.48492)
(1.0131e-15 1.64081 5.09716)
(2.35631e-15 1.68059 3.83751)
(4.11425e-15 -0.52292 23.5162)
(3.14805e-17 -0.33681 23.7877)
(1.62723e-15 -0.167236 23.8629)
(4.3234e-16 -0.00221805 23.7896)
(-5.88173e-16 0.144586 23.5953)
(5.12863e-15 0.270973 23.3004)
(4.15622e-15 0.374164 22.9162)
(-1.82259e-15 0.443258 22.4491)
(-1.19313e-15 0.471955 21.9225)
(1.21142e-15 0.480478 21.3927)
(-3.62788e-15 0.507757 20.9085)
(-3.44395e-15 0.555148 20.4192)
(-2.1347e-15 0.539094 19.7767)
(-1.46118e-15 0.386476 18.9857)
(3.31837e-17 0.241262 18.3848)
(7.56327e-16 0.380817 18.289)
(-8.2071e-16 0.934789 18.2772)
(1.25546e-15 1.50755 17.6067)
(-2.80998e-15 1.76402 16.3608)
(2.25218e-15 1.77384 14.9641)
(-2.60086e-15 1.68764 13.6303)
(-1.5121e-15 1.58599 12.4067)
(4.61907e-15 1.49622 11.2882)
(-4.71159e-15 1.42307 10.2595)
(1.02687e-14 1.36413 9.30657)
(5.73902e-15 1.3154 8.41872)
(5.80919e-15 1.27324 7.58807)
(-1.12552e-14 1.23452 6.80871)
(-4.33253e-15 1.19686 6.07587)
(-3.04253e-15 1.15765 5.38615)
(-1.18018e-14 1.11463 4.73689)
(1.929e-15 1.06376 4.12799)
(-1.1018e-14 1.00441 3.5604)
(-3.00343e-14 0.935279 3.03522)
(-7.0909e-15 0.858567 2.54233)
(1.46327e-15 0.741032 2.06981)
(5.26426e-15 0.586278 1.66223)
(2.84523e-16 0.42344 1.26561)
(-1.08368e-14 0.194083 1.16033)
(-8.92576e-15 0.211131 0.776893)
(-3.92592e-14 0.0747305 1.04003)
(1.08674e-14 -0.446846 1.00391)
(-2.33574e-14 -0.905142 1.54026)
(8.08167e-15 -1.1941 1.94905)
(2.95052e-15 -1.27059 2.21436)
(1.91608e-15 -1.23457 2.4356)
(2.70579e-15 -1.1635 2.64885)
(-1.43295e-16 -1.0976 2.87467)
(-7.554e-15 -1.05624 3.1174)
(-1.95237e-14 -1.04847 3.37839)
(-2.1438e-14 -1.07992 3.66555)
(-2.17661e-14 -1.15924 3.9976)
(-2.38348e-14 -1.302 4.4019)
(-1.94454e-14 -1.5211 4.8976)
(-1.4609e-14 -1.80887 5.47716)
(-5.99957e-15 -2.13921 6.11818)
(-6.05415e-16 -2.46643 6.79246)
(1.1067e-14 -2.7182 7.47256)
(1.2969e-14 -2.81972 8.11077)
(1.74831e-14 -2.71333 8.71219)
(2.09229e-14 -2.2858 9.29121)
(2.50023e-14 -1.58677 9.6826)
(1.8354e-14 -0.875671 9.77189)
(1.2691e-14 -0.329507 9.70886)
(1.19677e-15 0.155221 9.58477)
(1.08646e-14 0.605147 9.33496)
(1.39716e-14 0.934167 8.94427)
(2.19833e-14 1.1122 8.46093)
(2.77663e-14 1.19252 7.98989)
(2.52724e-14 1.25261 7.5761)
(2.68993e-14 1.34363 7.21465)
(1.39173e-14 1.48065 6.88057)
(1.01303e-14 1.63824 6.54004)
(1.99692e-15 1.76312 6.1698)
(-1.28539e-14 1.81369 5.77514)
(8.13785e-15 1.78276 5.38093)
(2.20475e-14 1.68925 5.00876)
(1.75547e-14 1.55686 4.66958)
(4.00469e-14 1.39906 4.36406)
(3.06747e-14 1.21403 4.09286)
(1.1129e-14 0.975033 3.95241)
(8.78535e-15 0.890695 3.89824)
(2.02887e-14 0.923687 3.66367)
(7.24297e-14 0.573576 3.40136)
(4.09256e-14 -0.176159 2.86949)
(-5.72989e-15 -0.729622 3.03645)
(1.10153e-14 -1.06132 3.35503)
(6.16864e-15 -1.38958 3.35939)
(2.69056e-15 -1.78177 3.33493)
(4.64123e-15 -2.2286 3.40521)
(5.61375e-15 -2.65703 3.60308)
(8.00888e-15 -2.90993 3.89179)
(3.26976e-15 -2.83213 4.12592)
(3.68655e-15 -2.41521 4.38052)
(5.20783e-15 -1.41334 4.01365)
(1.03898e-14 -0.276326 4.30248)
(5.0887e-15 0.579228 3.99031)
(1.41225e-15 1.22123 3.33293)
(-1.22556e-15 1.651 3.18643)
(1.29239e-15 1.75997 2.30688)
(1.05725e-15 -0.572205 22.8424)
(1.15631e-15 -0.372185 23.0412)
(4.56418e-16 -0.189502 23.0791)
(-3.07883e-16 -0.0125953 22.9858)
(-5.42823e-16 0.144823 22.7813)
(2.20848e-15 0.28145 22.4844)
(2.32477e-15 0.395245 22.1051)
(7.04237e-15 0.474272 21.6443)
(4.95236e-15 0.50859 21.1164)
(5.14115e-15 0.515929 20.5736)
(7.52942e-15 0.541788 20.0798)
(-3.51934e-16 0.602014 19.6044)
(-6.63726e-15 0.611165 18.977)
(6.3014e-16 0.458798 18.1306)
(-2.92937e-15 0.263042 17.3867)
(8.01602e-16 0.351842 17.1858)
(4.43624e-16 0.94218 17.2704)
(-2.14745e-15 1.6139 16.7894)
(9.98885e-16 1.93279 15.6862)
(-2.14784e-15 1.9584 14.3811)
(-3.13584e-15 1.86685 13.1107)
(-3.44144e-15 1.75472 11.9351)
(-2.66658e-15 1.65477 10.8552)
(2.20753e-15 1.57286 9.85911)
(-1.76834e-17 1.50646 8.93477)
(-1.28547e-15 1.45125 8.07257)
(1.85268e-15 1.40332 7.26512)
(1.93489e-15 1.35934 6.50678)
(-1.14588e-15 1.31679 5.79283)
(-2.51267e-15 1.27285 5.11991)