/*--------------------------------*- C++ -*----------------------------------*\
| =========                 |                                                 |
| \\      /  F ield         | OpenFOAM: The Open Source CFD Toolbox           |
|  \\    /   O peration     | Version:  4.1                                   |
|   \\  /    A nd           | Web:      www.OpenFOAM.org                      |
|    \\/     M anipulation  |                                                 |
\*---------------------------------------------------------------------------*/
FoamFile
{
    version     2.0;
    format      ascii;
    class       volScalarField;
    location    "600";
    object      p;
}
// * * * * * * * * * * * * * * * * * * * * * * * * * * * * * * * * * * * * * //

dimensions      [0 2 -2 0 0 0 0];

internalField   nonuniform List<scalar> 
26785
(
92.247
93.5321
94.7853
96.1787
97.1721
97.4923
97.604
97.7434
97.964
98.1437
98.1605
97.8659
97.0999
95.7194
93.63
90.79
87.1947
82.8567
77.7946
72.0135
65.5224
58.3248
50.407
41.7635
32.4117
22.3891
11.7628
0.620732
-10.9302
-22.7593
-34.7327
-46.6314
-58.1462
-68.8489
-77.6108
-82.9746
-84.3626
-81.6294
-75.6279
-68.0864
-60.3551
-53.0798
-46.4651
-40.5111
-35.1415
-30.2641
-25.7947
-21.6654
-17.8245
-14.2349
-10.8722
-7.72133
-4.77614
-2.03706
0.490819
2.8011
4.87956
6.72309
8.33645
9.7062
10.8646
11.8756
12.6175
13.1225
13.1436
12.1853
10.3684
7.74163
4.31863
0.199565
-4.42992
-9.35468
-14.4082
-19.5435
-24.7868
-30.0671
-35.1372
-39.4672
-42.1995
-42.6768
-40.5561
-36.1621
-30.5326
-24.621
-18.9563
-13.7562
-9.08151
-4.9302
-1.28616
1.85834
4.49167
6.57872
8.0581
8.85441
8.87307
8.08284
6.51082
4.48775
2.2833
1.00421
92.2483
93.5296
94.7848
96.1813
97.1745
97.4888
97.5988
97.7381
97.9597
98.1399
98.1568
97.8617
97.0943
95.7116
93.6193
90.776
87.1778
82.8373
77.7733
71.9907
65.4985
58.3003
50.3817
41.7369
32.3835
22.3588
11.7304
0.586291
-10.9668
-22.7981
-34.7749
-46.6814
-58.2111
-68.9458
-77.759
-83.1582
-84.5814
-81.8569
-75.8202
-68.2337
-60.4688
-53.1725
-46.5453
-40.5838
-35.2091
-30.3276
-25.8548
-21.7221
-17.8778
-14.2847
-10.9182
-7.76331
-4.81391
-2.07045
0.46189
2.77663
4.85922
6.70607
8.32227
9.69352
10.8505
11.8731
12.6333
13.1662
13.1956
12.1805
10.3099
7.64468
4.19614
0.0608538
-4.57689
-9.5018
-14.548
-19.6744
-24.9187
-30.2172
-35.3235
-39.713
-42.5038
-43.0311
-40.9278
-36.4763
-30.7617
-24.7775
-19.0602
-13.8223
-9.11809
-4.94064
-1.27141
1.89795
4.55555
6.66619
8.16769
8.98171
9.00445
8.19593
6.57038
4.47123
2.25346
0.958592
92.2458
93.5243
94.7858
96.1892
97.1818
97.4827
97.5888
97.7277
97.9512
98.132
98.1488
97.8524
97.0824
95.6955
93.598
90.7492
87.146
82.8014
77.7347
71.9498
65.4562
58.2573
50.3376
41.6912
32.3354
22.3074
11.6759
0.529098
-11.0269
-22.8606
-34.8408
-46.7569
-58.3047
-69.0933
-78.032
-83.5393
-85.0494
-82.3422
-76.2286
-68.5453
-60.7086
-53.3673
-46.7132
-40.735
-35.349
-30.4589
-25.9785
-21.8386
-17.987
-14.3865
-11.0122
-7.8493
-4.8914
-2.13915
0.402118
2.72575
4.81666
6.6701
8.29197
9.6665
10.8203
11.8598
12.6524
13.2371
13.2615
12.1266
10.158
7.43785
3.96308
-0.184984
-4.82778
-9.7494
-14.7825
-19.8917
-25.1323
-30.4503
-35.5999
-40.0895
-43.0282
-43.6869
-41.6448
-37.0935
-31.216
-25.0904
-19.2699
-13.9574
-9.19448
-4.96529
-1.2465
1.97167
4.6768
6.83326
8.37712
9.22467
9.25585
8.41337
6.68314
4.4343
2.1868
0.882057
92.2401
93.5186
94.7898
96.2033
97.195
97.4746
97.5747
97.7112
97.9353
98.1155
98.1315
97.8335
97.0607
95.6688
93.5649
90.7093
87.0998
82.7502
77.68
71.8923
65.3972
58.1976
50.2769
41.6285
32.2701
22.2385
11.6037
0.454232
-11.1046
-22.9398
-34.922
-46.8464
-58.4093
-69.2503
-78.3464
-84.0053
-85.6538
-83.0078
-76.813
-69.0054
-61.0705
-53.6648
-46.9703
-40.9658
-35.5614
-30.6568
-26.1638
-22.0123
-18.1494
-14.5376
-11.1518
-7.97704
-5.00685
-2.24205
0.311855
2.64801
4.75058
6.61294
8.24234
9.62175
10.7684
11.8224
12.6598
13.3063
13.2924
11.9955
9.93062
7.17281
3.68362
-0.475034
-5.12741
-10.0529
-15.0779
-20.1698
-25.404
-30.74
-35.9289
-40.5157
-43.6231
-44.4394
-42.5262
-37.897
-31.8334
-25.5304
-19.5728
-14.1575
-9.31284
-5.01242
-1.22657
2.05758
4.82854
7.05065
8.65711
9.55427
9.60136
8.71497
6.83326
4.3645
2.07868
0.772962
92.2324
93.514
94.7966
96.2241
97.2145
97.4663
97.5582
97.6892
97.9122
98.0909
98.1058
97.8059
97.0297
95.632
93.5205
90.6569
87.0402
82.6848
77.6107
71.8199
65.323
58.1228
50.2009
41.5506
32.1893
22.1536
11.5154
0.363702
-11.1975
-23.0333
-35.0154
-46.9452
-58.5172
-69.4021
-78.6775
-84.5361
-86.355
-83.8119
-77.5408
-69.5913
-61.5396
-54.0551
-47.3096
-41.271
-35.842
-30.9179
-26.4081
-22.241
-18.3631
-14.7365
-11.3358
-8.14594
-5.16021
-2.37975
0.189839
2.54146
4.65833
6.53128
8.16951
9.55507
10.6876
11.7457
12.6216
13.3296
13.2422
11.7806
9.64276
6.86059
3.36096
-0.808673
-5.47389
-10.4087
-15.43
-20.5039
-25.7272
-31.0758
-36.2955
-40.9704
-44.252
-45.2285
-43.4808
-38.801
-32.5521
-26.0601
-19.9503
-14.4173
-9.47757
-5.09386
-1.22904
2.13434
4.9869
7.29309
8.9815
9.94337
10.0166
9.08221
7.0054
4.24381
1.92
0.598581
92.2247
93.512
94.8071
96.2512
97.24
97.4582
97.5398
97.6618
97.8815
98.0571
98.0698
97.7673
96.9869
95.5828
93.4631
90.5909
86.9664
82.6049
77.5267
71.7324
65.2337
58.0328
50.1096
41.4571
32.0928
22.0531
11.4119
0.258722
-11.3039
-23.1385
-35.1178
-47.0489
-58.6228
-69.5339
-78.9848
-85.0854
-87.0912
-84.6953
-78.3663
-70.271
-62.0941
-54.523
-47.72
-41.6421
-36.184
-31.2365
-26.7063
-22.5205
-18.6246
-14.9803
-11.5621
-8.35455
-5.35082
-2.55238
0.035143
2.40433
4.53729
6.42181
8.06967
9.46163
10.57
11.6116
12.4955
13.28
13.0777
11.4761
9.29425
6.50114
2.9989
-1.17727
-5.85563
-10.8045
-15.8276
-20.8834
-26.0906
-31.4446
-36.6847
-41.4339
-44.8822
-46.0172
-44.4408
-39.7282
-33.3103
-26.6397
-20.3812
-14.7292
-9.69068
-5.21866
-1.26849
2.18293
5.12951
7.53638
9.32576
10.3685
10.4779
9.50084
7.17956
4.04267
1.69772
0.33196
92.2145
93.5107
94.8192
96.2818
97.2698
97.4497
97.5198
97.6293
97.8431
98.0137
98.0231
97.717
96.9317
95.5203
93.3917
90.5103
86.8777
82.5097
77.4272
71.6294
65.1286
57.927
50.0025
41.3477
31.9803
21.9366
11.293
0.139411
-11.4232
-23.2546
-35.2282
-47.1564
-58.7253
-69.6445
-79.2528
-85.6233
-87.8197
-85.6141
-79.2529
-71.016
-62.7125
-55.0523
-48.1891
-42.069
-36.5792
-31.6058
-27.053
-22.8461
-18.9301
-15.2662
-11.8284
-8.60154
-5.57809
-2.76009
-0.153131
2.23493
4.38491
6.2816
7.93891
9.33661
10.4093
11.403
12.24
13.1363
12.7755
11.0811
8.88431
6.09293
2.59747
-1.57836
-6.26758
-11.2331
-16.2613
-21.2974
-26.481
-31.8303
-37.0763
-41.8872
-45.4929
-46.7922
-45.3745
-40.6314
-34.0633
-27.2367
-20.8458
-15.084
-9.95057
-5.39078
-1.3533
2.19086
5.23993
7.76044
9.66828
10.8077
10.9596
9.95401
7.31862
3.72888
1.40339
0.059098
92.1988
93.5085
94.8301
96.3131
97.3016
97.4392
97.498
97.5915
97.7964
97.9606
97.9656
97.6549
96.8637
95.4442
93.3059
90.4148
86.7737
82.3993
77.3126
71.5112
65.0084
57.8062
49.8802
41.223
31.8526
21.8051
11.1599
0.00724426
-11.5537
-23.3795
-35.3445
-47.2651
-58.8228
-69.7319
-79.472
-86.1329
-88.5118
-86.5313
-80.167
-71.7996
-63.3742
-55.6268
-48.7038
-42.5413
-37.019
-32.0188
-27.4421
-23.2131
-19.2758
-15.5911
-12.1328
-8.88551
-5.84132
-3.00286
-0.375596
2.0319
4.19917
6.10833
7.77352
9.17481
10.1996
11.1042
11.8138
12.8739
12.3311
10.6036
8.41634
5.63912
2.16173
-2.00397
-6.69869
-11.6809
-16.7166
-21.7305
-26.8835
-32.2191
-37.455
-42.3115
-46.0615
-47.5249
-46.246
-41.47
-34.7743
-27.8237
-21.3262
-15.4712
-10.2527
-5.61047
-1.48807
2.14917
5.30453
7.94713
9.98853
11.2376
11.4385
10.3898
7.37799
3.29391
1.01095
-0.118867
92.1783
93.5059
94.8367
96.3423
97.3313
97.4245
97.4737
97.5476
97.7415
97.898
97.8974
97.5811
96.7831
95.3547
93.2062
90.3051
86.6556
82.275
77.1844
71.3794
64.8747
57.6719
49.7445
41.0849
31.7116
21.6606
11.0148
-0.135432
-11.6929
-23.5106
-35.4643
-47.3731
-58.914
-69.7985
-79.6398
-86.6013
-89.1502
-87.4196
-81.0809
-72.5982
-64.0603
-56.2314
-49.252
-43.0488
-37.4951
-32.4685
-27.8681
-23.6169
-19.6581
-15.9523
-12.473
-9.20497
-6.13963
-3.28034
-0.632446
1.79439
3.97875
5.90018
7.57005
8.97105
9.94046
10.702
11.2563
12.476
11.7595
10.0572
7.89737
5.14533
1.69746
-2.44689
-7.13979
-12.1368
-17.1804
-22.1699
-27.2872
-32.6029
-37.8104
-42.6941
-46.5777
-48.1845
-47.0202
-42.2089
-35.4142
-28.378
-21.8058
-15.8797
-10.5903
-5.87501
-1.67404
2.05212
5.31258
8.07969
10.2657
11.6323
11.905
10.7891
7.38227
2.78654
0.525021
-0.239022
92.1517
93.5015
94.835
96.3656
97.3543
97.4039
97.4451
97.4966
97.6779
97.8257
97.8185
97.4956
96.69
95.2522
93.0933
90.1823
86.5247
82.1383
77.0441
71.2358
64.7294
57.5262
49.5974
40.9355
31.5596
21.5056
10.8603
-0.285791
-11.8378
-23.6449
-35.5847
-47.4779
-58.997
-69.8448
-79.7551
-87.0004
-89.7169
-88.2558
-81.9704
-73.391
-64.7537
-56.8523
-49.8222
-43.5822
-37.9995
-32.9482
-28.3254
-24.0528
-20.0732
-16.3468
-12.8467
-9.55825
-6.47185
-3.59179
-0.923394
1.52221
3.72305
5.65591
7.325
8.72138
9.63535
10.2051
10.7722
11.9341
11.0899
9.45792
7.33749
4.62037
1.21278
-2.89873
-7.58073
-12.5882
-17.6394
-22.6045
-27.6833
-32.9708
-38.1266
-43.0187
-47.0299
-48.751
-47.6731
-42.8207
-35.9608
-28.8823
-22.2705
-16.2984
-10.9554
-6.17963
-1.90999
1.89667
5.25518
8.14119
10.4771
11.9614
12.3577
11.2531
7.41709
2.38422
0.225924
-0.27659
92.1237
93.4946
94.8231
96.3772
97.366
97.3764
97.4096
97.437
97.6052
97.7435
97.7289
97.3984
96.5846
95.1368
92.9676
90.047
86.3819
81.9904
76.8932
71.0817
64.5737
57.3704
49.4404
40.7765
31.3985
21.3423
10.6989
-0.441189
-11.9856
-23.7793
-35.7031
-47.5773
-59.0703
-69.8722
-79.8221
-87.3206
-90.21
-89.0236
-82.8151
-74.1598
-65.4394
-57.4771
-50.4042
-44.1327
-38.5249
-33.4518
-28.8088
-24.5166
-20.5175
-16.7715
-13.2516
-9.94342
-6.83647
-3.93608
-1.2476
1.21582
3.43214
5.37422
7.035
8.42341
9.2824
9.63798
10.3332
11.2395
10.3628
8.8223
6.74954
4.07549
0.717018
-3.35056
-8.01026
-13.0213
-18.0809
-23.0254
-28.0602
-33.3062
-38.3898
-43.2768
-47.4107
-49.2163
-48.1892
-43.2856
-36.3989
-29.3233
-22.7084
-16.7166
-11.3392
-6.51797
-2.19279
1.68178
5.12564
8.11862
10.5857
12.2037
12.6375
11.5723
7.488
2.41496
0.273705
-0.357958
92.0958
93.4848
94.8022
96.3721
97.3647
97.3411
97.3634
97.368
97.5233
97.6517
97.6284
97.2893
96.4665
95.0086
92.8292
89.8997
86.2279
81.832
76.7324
70.9181
64.4088
57.2057
49.2746
40.6092
31.2297
21.1723
10.5327
-0.599191
-12.1338
-23.9111
-35.8167
-47.6692
-59.132
-69.8827
-79.8471
-87.5771
-90.6479
-89.7174
-83.599
-74.8891
-66.1044
-58.0949
-50.9889
-44.6926
-39.0646
-33.9735
-29.3132
-25.0038
-20.9872
-17.2233
-13.685
-10.3582
-7.23158
-4.3116
-1.60363
0.876408
3.10666
5.05327
6.69764
8.07486
8.87968
9.08103
9.64282
10.4178
9.61675
8.1673
6.14833
3.52342
0.220425
-3.79255
-8.41617
-13.4234
-18.4946
-23.4213
-28.4023
-33.603
-38.613
-43.4761
-47.7261
-49.5788
-48.556
-43.5896
-36.7189
-29.6918
-23.1092
-17.1241
-11.7326
-6.88274
-2.51721
1.40938
4.91956
7.99355
10.5653
12.2829
12.6744
11.4837
7.52115
2.84401
0.668928
-0.292309
92.065
93.47
94.7737
96.3476
97.3484
97.3002
97.3029
97.2893
97.4325
97.5503
97.5173
97.1685
96.3358
94.8677
92.6785
89.7409
86.0634
81.6641
76.5625
70.7458
64.2355
57.0328
49.1009
40.4346
31.0546
20.9974
10.3636
-0.757657
-12.2799
-24.0376
-35.9232
-47.7516
-59.1807
-69.8771
-79.8385
-87.7784
-91.0513
-90.3388
-84.3109
-75.5664
-66.7376
-58.6964
-51.5681
-45.2548
-39.6123
-34.5076
-29.8337
-25.5101
-21.4786
-17.6989
-14.1438
-10.8
-7.65486
-4.7163
-1.98944
0.50586
2.74726
4.6912
6.3122
7.67799
8.42632
8.56062
8.71017
9.56026
8.88012
7.51024
5.54855
2.97655
-0.266399
-4.21393
-8.78708
-13.7852
-18.8703
-23.7755
-28.699
-33.8726
-38.8031
-43.5789
-47.949
-49.8302
-48.7606
-43.7239
-36.9168
-29.9818
-23.4644
-17.5112
-12.1256
-7.26485
-2.87657
1.08239
4.63664
7.76089
10.3747
12.0366
12.3561
10.9961
7.44819
3.52263
1.35707
-0.121268
92.0318
93.4504
94.7377
96.3035
97.3144
97.2552
97.2254
97.2013
97.3333
97.4401
97.3961
97.0362
96.1929
94.7145
92.5161
89.5714
85.8892
81.4873
76.3844
70.5656
64.0545
56.8525
48.9203
40.2536
30.8743
20.8187
10.1932
-0.91471
-12.4218
-24.1565
-36.02
-47.8226
-59.2149
-69.855
-79.8034
-87.9183
-91.4184
-90.8861
-84.9413
-76.1815
-67.33
-59.2736
-52.1349
-45.8131
-40.1624
-35.0491
-30.3656
-26.0312
-21.9876
-18.1946
-14.6247
-11.2658
-8.10358
-5.14768
-2.40238
0.106733
2.35415
4.28737
5.8791
7.24062
7.91252
8.04266
7.88601
8.79173
8.17821
6.86696
4.96226
2.44531
-0.732992
-4.60337
-9.11319
-14.0986
-19.1929
-24.0683
-28.9525
-34.1161
-38.9002
-43.5082
-48.0569
-49.9622
-48.7934
-43.689
-36.9934
-30.1888
-23.7659
-17.8685
-12.5093
-7.65632
-3.26182
0.711039
4.27938
7.40499
9.93074
11.406
11.6301
10.2722
7.2102
4.01004
1.92562
-0.00276405
91.9942
93.4247
94.6939
96.2411
97.2631
97.2001
97.1303
97.104
97.2263
97.3218
97.2655
96.8934
96.0387
94.5498
92.3428
89.3919
85.7061
81.3024
76.1988
70.3781
63.8666
56.6658
48.7334
40.067
30.6896
20.6375
10.0228
-1.06872
-12.5576
-24.2657
-36.1051
-47.8805
-59.2331
-69.8159
-79.7429
-87.9938
-91.7222
-91.3485
-85.4799
-76.7256
-67.8739
-59.82
-52.6833
-46.362
-40.7099
-35.5932
-30.9044
-26.5628
-22.5104
-18.7067
-15.1244
-11.7523
-8.57469
-5.60289
-2.83927
-0.318031
1.92756
3.84368
5.40116
6.77214
7.34322
7.65744
7.62481
8.23155
7.52662
6.24757
4.39734
1.93745
-1.16999
-4.95124
-9.38786
-14.3539
-19.4417
-24.2881
-29.1729
-34.2985
-38.8443
-43.3608
-48.2329
-50.0231
-48.6593
-43.4936
-36.9536
-30.3117
-24.0089
-18.1879
-12.8718
-8.04321
-3.66523
0.295012
3.83472
6.88732
9.254
10.5775
10.7298
9.46332
6.86392
4.24526
2.27805
0.0750925
91.9589
93.3905
94.6414
96.1611
97.1892
97.1309
97.0196
96.9966
97.1116
97.196
97.1266
96.741
95.874
94.3746
92.1596
89.2033
85.5148
81.1103
76.0064
70.1843
63.6728
56.4733
48.5411
39.8757
30.5013
20.4547
9.85369
-1.21825
-12.6858
-24.3633
-36.1763
-47.9234
-59.2338
-69.7581
-79.656
-88.0089
-91.9383
-91.7141
-85.9186
-77.1917
-68.3635
-60.3299
-53.2083
-46.8967
-41.25
-36.1354
-31.4458
-27.1008
-23.0429
-19.2314
-15.6391
-12.2561
-9.06485
-6.07873
-3.29651
-0.765273
1.46937
3.36457
4.88556
6.27363
6.74005
7.30968
7.63241
7.80418
6.92345
5.65653
3.85768
1.45861
-1.56923
-5.25148
-9.60938
-14.5425
-19.6019
-24.4389
-29.3611
-34.3699
-38.6727
-43.3402
-48.5032
-50.0167
-48.3537
-43.1557
-36.8045
-30.3475
-24.1839
-18.4608
-13.213
-8.42996
-4.09264
-0.181238
3.29229
6.24092
8.45409
9.66343
9.78258
8.63934
6.44364
4.28549
2.46279
0.113028
91.9325
93.3496
94.58
96.0653
97.0876
97.0424
96.8963
96.8785
96.9888
97.0634
96.9803
96.5803
95.7002
94.1901
91.9674
89.0066
85.3163
80.9117
75.808
69.9851
63.4741
56.2762
48.3442
39.6804
30.3103
20.2713
9.68698
-1.36202
-12.805
-24.4474
-36.2316
-47.9498
-59.2154
-69.6794
-79.5438
-87.9683
-92.0638
-91.9796
-86.253
-77.5754
-68.7942
-60.7992
-53.7054
-47.4129
-41.7787
-36.6717
-31.9857
-27.6413
-23.5812
-19.7649
-16.1651
-12.7735
-9.57053
-6.57176
-3.77055
-1.23118
0.984238
2.85682
4.3461
5.73752
6.15702
6.79713
7.37643
7.33452
6.35268
5.09372
3.34489
1.01361
-1.92365
-5.50086
-9.77797
-14.6592
-19.6735
-24.5332
-29.497
-34.3017
-38.4438
-43.3543
-48.3223
-49.7817
-47.7879
-42.6615
-36.5433
-30.3005
-24.3009
-18.6977
-13.5401
-8.82894
-4.55605
-0.707884
2.68808
5.52406
7.59884
8.72031
8.84114
7.84093
5.99167
4.20314
2.52976
0.119622
91.9041
93.3016
94.5106
95.9545
96.9627
96.9289
96.7626
96.7511
96.8578
96.924
96.8277
96.4126
95.5186
93.9975
91.7675
88.8027
85.1114
80.7073
75.6043
69.7814
63.2714
56.0754
48.1436
39.4819
30.1175
20.0884
9.52385
-1.49881
-12.9136
-24.5167
-36.2692
-47.9579
-59.1763
-69.5774
-79.4063
-87.8783
-92.106
-92.1468
-86.482
-77.8741
-69.1629
-61.2241
-54.1711
-47.9069
-42.2921
-37.1982
-32.5205
-28.1805
-24.1217
-20.3034
-16.6986
-13.3007
-10.0881
-7.07838
-4.25856
-1.71069
0.478897
2.33541
3.79517
5.16234
5.64057
6.23694
6.94899
6.82033
5.80242
4.55685
2.86066
0.606708
-2.22974
-5.69979
-9.89077
-14.6954
-19.6583
-24.5666
-29.5373
-34.0966
-38.1584
-43.1851
-47.6991
-49.0267
-46.82
-41.9661
-36.16
-30.1757
-24.3719
-18.9121
-13.8609
-9.2335
-5.0295
-1.24935
2.05785
4.77555
6.72802
7.78612
7.92831
7.07733
5.52643
4.04132
2.51466
0.102639
91.8718
93.2465
94.434
95.8281
96.8184
96.792
96.6199
96.6163
96.72
96.7781
96.6694
96.2391
95.3308
93.7985
91.5611
88.5928
84.901
80.498
75.3962
69.5742
63.0659
55.8718
47.9404
39.2814
29.9239
19.9071
9.36554
-1.62746
-13.0107
-24.5696
-36.2871
-47.946
-59.1152
-69.4497
-79.2436
-87.7462
-92.0718
-92.218
-86.6057
-78.0865
-69.4675
-61.6021
-54.6023
-48.3755
-42.787
-37.7117
-33.0466
-28.7148
-24.6606
-20.8431
-17.2359
-13.834
-10.6139
-7.59524
-4.75756
-2.19938
-0.0356631
1.81892
3.23984
4.55733
5.20237
5.74508
6.51294
6.30464
5.26831
4.04582
2.4082
0.240277
-2.49099
-5.85602
-9.94783
-14.6418
-19.5452
-24.5067
-29.4406
-33.782
-37.8269
-42.7719
-46.7371
-47.7864
-45.5972
-41.1175
-35.6747
-29.9794
-24.3909
-19.088
-14.1517
-9.61167
-5.48103
-1.78113
1.42353
4.02103
5.86786
6.88268
7.05902
6.35454
5.05996
3.82836
2.44433
0.0671319
91.8339
93.1847
94.3503
95.6886
96.6558
96.6369
96.4695
96.4755
96.5769
96.6267
96.5061
96.0612
95.1383
93.5945
91.3498
88.3779
84.6861
80.2844
75.1844
69.3644
62.8585
55.6663
47.7355
39.08
29.7311
19.7291
9.21337
-1.7469
-13.095
-24.6048
-36.2834
-47.9123
-59.0303
-69.2937
-79.0552
-87.5775
-91.9662
-92.1952
-86.6255
-78.2128
-69.7065
-61.9308
-54.9961
-48.8155
-43.2602
-38.2087
-33.5606
-29.2407
-25.1944
-21.3805
-17.7732
-14.3695
-11.1441
-8.11971
-5.26268
-2.69561
-0.541752
1.30507
2.69251
3.94284
4.81285
5.15656
6.00465
5.76442
4.74728
3.56287
1.99056
-0.0877476
-2.71762
-5.98036
-9.95412
-14.5046
-19.3334
-24.3231
-29.1807
-33.3654
-37.4347
-42.161
-45.5877
-46.3631
-44.2882
-40.1833
-35.1069
-29.706
-24.3395
-19.1999
-14.3838
-9.93788
-5.89366
-2.2913
0.799263
3.27902
5.03618
6.02308
6.2429
5.67736
4.60208
3.58477
2.33769
0.0175397
91.7943
93.1147
94.2587
95.5379
96.4795
96.4682
96.3127
96.3301
96.4302
96.4713
96.3383
95.8795
94.9425
93.3871
91.1349
88.1595
84.4675
80.0674
74.9697
69.1526
62.6498
55.4599
47.5303
38.8793
29.5406
19.5559
9.06866
-1.85624
-13.1658
-24.6211
-36.2563
-47.8547
-58.9196
-69.1065
-78.8391
-87.3775
-91.794
-92.0805
-86.5437
-78.2538
-69.8794
-62.2085
-55.3503
-49.2245
-43.7088
-38.6863
-34.0595
-29.755
-25.7198
-21.912
-18.3069
-14.9034
-11.6755
-8.64861
-5.77243
-3.19108
-1.03429
0.783847
2.16893
3.34446
4.38846
4.5139
5.32829
5.15616
4.23748
3.11073
1.60736
-0.385032
-2.91946
-6.07702
-9.91407
-14.3024
-19.0387
-24.0035
-28.7536
-32.8549
-36.9615
-41.3899
-44.3466
-44.9111
-42.9663
-39.196
-34.4615
-29.346
-24.2008
-19.2279
-14.5394
-10.2008
-6.26152
-2.77389
0.195249
2.56323
4.24495
5.21486
5.48273
5.04518
4.1575
3.32327
2.20584
-0.0430406
91.7632
93.0375
94.1583
95.3805
96.2936
96.29
96.1512
96.1811
96.2809
96.3137
96.1677
95.6951
94.7447
93.1779
90.9181
87.9388
84.2464
79.8479
74.7527
68.9394
62.4404
55.2533
47.3258
38.6809
29.3541
19.3892
8.93264
-1.95478
-13.2223
-24.6173
-36.2035
-47.7705
-58.7806
-68.8839
-78.5937
-87.1524
-91.5607
-91.8765
-86.3637
-78.2115
-69.9862
-62.4339
-55.6627
-49.5998
-44.1301
-39.1417
-34.5402
-30.2547
-26.2336
-22.4342
-18.8335
-15.4321
-12.2048
-9.17649
-6.29215
-3.67195
-1.52565
0.255816
1.67833
2.78693
3.84084
3.98822
4.57046
4.51879
3.74466
2.69016
1.25317
-0.660117
-3.10182
-6.14738
-9.83235
-14.0485
-18.6715
-23.5509
-28.1707
-32.24
-36.3684
-40.4756
-43.0472
-43.456
-41.6341
-38.156
-33.7339
-28.8901
-23.9628
-19.1607
-14.6115
-10.3985
-6.58451
-3.22576
-0.380752
1.88307
3.50065
4.46023
4.77611
4.45371
3.7271
3.0509
2.05438
-0.112511
91.7261
92.953
94.0482
95.2236
96.1011
96.1051
95.9864
96.0297
96.1302
96.1552
95.9961
95.5093
94.5459
92.9682
90.7007
87.7173
84.024
79.6267
74.5342
68.7254
62.2309
55.0472
47.1234
38.4864
29.1735
19.2308
8.80637
-2.04192
-13.2637
-24.5925
-36.1231
-47.6568
-58.6102
-68.6213
-78.3165
-86.9086
-91.2719
-91.5857
-86.0894
-78.0883
-70.0273
-62.6061
-55.9316
-49.9391
-44.5215
-39.5722
-34.9999
-30.7367
-26.7327
-22.9441
-19.3496
-15.952
-12.728
-9.7022
-6.80929
-4.14371
-2.02066
-0.273065
1.21595
2.28472
3.16586
3.56084
3.87049
3.90157
3.27579
2.29815
0.92137
-0.917936
-3.26695
-6.19286
-9.71457
-13.7537
-18.2397
-22.9801
-27.4569
-31.5142
-35.6231
-39.4126
-41.682
-41.9766
-40.2729
-37.054
-32.917
-28.3296
-23.6167
-18.9932
-14.6008
-10.5356
-6.866
-3.64542
-0.923517
1.24354
2.80483
3.75717
4.11804
3.89765
3.31025
2.77159
1.88617
-0.189166
91.6786
92.8607
93.9273
95.0679
95.9037
95.9163
95.8196
95.877
95.979
95.9969
95.825
95.3235
94.3473
92.7593
90.4843
87.4964
83.8017
79.4051
74.315
68.511
62.0216
54.8421
46.9241
38.2972
29.0005
19.082
8.69093
-2.11684
-13.2895
-24.5463
-36.0135
-47.511
-58.4062
-68.3144
-78.0042
-86.6525
-90.9335
-91.2105
-85.7253
-77.8873
-70.0036
-62.7244
-56.1553
-50.2406
-44.8809
-39.9752
-35.4359
-31.1984
-27.2144
-23.4385
-19.8518
-16.4597
-13.2394
-10.2287
-7.30332
-4.61903
-2.51302
-0.795184
0.766522
1.8318
2.49419
3.1354
3.28223
3.33548
2.83561
1.92938
0.607794
-1.16039
-3.4165
-6.21634
-9.56778
-13.4253
-17.7482
-22.3085
-26.6369
-30.6777
-34.7202
-38.2142
-40.2456
-40.4592
-38.8672
-35.8775
-31.9986
-27.6545
-23.1583
-18.7292
-14.5171
-10.6221
-7.11102
-4.0325
-1.43054
0.645901
2.1558
3.1015
3.5028
3.37214
2.90612
2.48785
1.70323
-0.271367
91.6218
92.7605
93.7958
94.909
95.7032
95.7255
95.6518
95.7238
95.8282
95.8398
95.6557
95.1399
94.1502
92.5522
90.2701
87.2775
83.5808
79.1842
74.0962
68.2969
61.8131
54.6386
46.7287
38.1145
28.8364
18.9442
8.58759
-2.17847
-13.2992
-24.4788
-35.8738
-47.332
-58.1678
-67.9589
-77.6518
-86.3898
-90.5525
-90.7537
-85.2764
-77.6121
-69.9165
-62.7884
-56.3327
-50.5022
-45.206
-40.3486
-35.846
-31.6373
-27.6759
-23.9146
-20.3373
-16.9498
-13.7383
-10.7389
-7.77711
-5.10043
-2.99684
-1.3013
0.322736
1.40293
1.96702
2.72328
2.78479
2.82832
2.42566
1.58033
0.310324
-1.38861
-3.55219
-6.22205
-9.40042
-13.071
-17.2038
-21.5532
-25.7266
-29.7256
-33.6599
-36.8951
-38.732
-38.887
-37.3926
-34.6047
-30.965
-26.8624
-22.5974
-18.3868
-14.3788
-10.6702
-7.32425
-4.38741
-1.90148
0.0890586
1.5504
2.48868
2.92538
2.87352
2.51429
2.20174
1.50757
-0.357408
91.5561
92.6516
93.6555
94.7439
95.5008
95.5342
95.4838
95.5706
95.6784
95.6848
95.4894
94.9598
93.9568
92.3484
90.0593
87.0618
83.3627
78.9654
73.879
68.0839
61.6059
54.4373
46.538
37.9391
28.6823
18.8184
8.4979
-2.22564
-13.2925
-24.3892
-35.7039
-47.121
-57.8955
-67.5496
-77.2487
-86.1243
-90.137
-90.2183
-84.748
-77.2666
-69.7675
-62.798
-56.4625
-50.7224
-45.495
-40.6901
-36.2277
-32.0509
-28.1147
-24.3696
-20.8025
-17.4184
-14.2215
-11.2136
-8.23886
-5.57909
-3.46932
-1.78435
-0.108398
0.970055
1.57715
2.3519
2.34349
2.37802
2.0443
1.24936
0.0285816
-1.60362
-3.67582
-6.21497
-9.2216
-12.7004
-16.6199
-20.735
-24.7376
-28.6496
-32.4329
-35.4487
-37.1198
-37.2272
-35.822
-33.2237
-29.823
-25.9759
-21.9647
-17.9944
-14.2054
-10.6895
-7.509
-4.71098
-2.33721
-0.428999
0.98541
1.91491
2.38207
2.39948
2.13497
1.91523
1.30154
-0.445512
91.4954
92.5352
93.5086
94.5729
95.2977
95.3436
95.316
95.4179
95.5301
95.5323
95.3268
94.7843
93.7685
92.1494
89.853
86.8507
83.1486
78.7501
73.6647
67.8732
61.4009
54.2388
46.3526
37.7718
28.539
18.706
8.42345
-2.25736
-13.2684
-24.2762
-35.5047
-46.8786
-57.5866
-67.0814
-76.7802
-85.8552
-89.6965
-89.6081
-84.146
-76.8547
-69.5584
-62.7534
-56.544
-50.8999
-45.7462
-40.998
-36.5791
-32.4372
-28.5284
-24.8013
-21.2425
-17.8661
-14.6735
-11.6542
-8.68891
-6.04699
-3.92966
-2.24299
-0.518582
0.523723
1.22608
2.00939
1.94209
1.98026
1.68979
0.935374
-0.238092
-1.80637
-3.7892
-6.20009
-9.03999
-12.3252
-16.0158
-19.8818
-23.6925
-27.4658
-31.0575
-33.8745
-35.3996
-35.4725
-34.1643
-31.7631
-28.615
-25.0412
-21.2992
-17.5786
-14.011
-10.686
-7.66733
-5.00423
-2.73902
-0.910291
0.458215
1.37748
1.87048
1.94884
1.76882
1.63035
1.08786
-0.533866
91.4233
92.4121
93.3569
94.3974
95.0946
95.1543
95.1487
95.2659
95.3834
95.3829
95.1686
94.6143
93.5864
91.957
89.6527
86.6453
82.94
78.5395
73.4545
67.666
61.1992
54.0441
46.1731
37.6131
28.4073
18.6079
8.36561
-2.27267
-13.2248
-24.1385
-35.278
-46.6014
-57.2337
-66.5547
-76.2361
-85.579
-89.2425
-88.9274
-83.4763
-76.3807
-69.2908
-62.655
-56.5766
-51.0336
-45.9582
-41.2707
-36.8984
-32.7939
-28.9151
-25.2056
-21.6572
-18.2883
-15.0876
-12.0694
-9.12395
-6.49989
-4.37781
-2.68057
-0.907657
0.0773544
0.863857
1.68589
1.57855
1.62967
1.36071
0.638149
-0.490492
-1.99779
-3.89411
-6.18178
-8.8629
-11.9571
-15.4136
-19.0259
-22.628
-26.2232
-29.5998
-32.2174
-33.6128
-33.6718
-32.4776
-30.2856
-27.3996
-24.104
-20.6312
-17.1557
-13.8031
-10.6627
-7.8006
-5.26825
-3.10819
-1.35649
-0.0330797
0.874561
1.38919
1.52122
1.41678
1.34922
0.869687
-0.620674
91.3326
92.2824
93.2013
94.2189
94.8924
94.9669
94.9823
95.1149
95.2387
95.2367
95.0151
94.4504
93.4115
91.7722
89.4601
86.4468
82.738
78.3352
73.2498
67.4637
61.002
53.8543
46.0002
37.4634
28.2876
18.5253
8.32539
-2.27022
-13.1596
-23.9763
-35.0236
-46.2815
-56.8324
-65.9807
-75.6073
-85.2855
-88.7892
-88.1818
-82.7449
-75.8485
-68.9668
-62.5032
-56.5602
-51.1228
-46.13
-41.5068
-37.1838
-33.1194
-29.2717
-25.5802
-22.0486
-18.6766
-15.4702
-12.4623
-9.54308
-6.9369
-4.81395
-3.10169
-1.2814
-0.349049
0.504728
1.38601
1.25757
1.31954
1.05451
0.35734
-0.7295
-2.17879
-3.99218
-6.1635
-8.69581
-11.606
-14.8331
-18.1981
-21.587
-24.9866
-28.1448
-30.555
-31.8377
-31.9019
-30.8326
-28.8511
-26.2211
-23.193
-19.9763
-16.7332
-13.5849
-10.6212
-7.90995
-5.50409
-3.4459
-1.7689
-0.489801
0.404981
0.937399
1.11668
1.07996
1.07398
0.65045
-0.70422
91.2237
92.1454
93.0424
94.0384
94.6917
94.7821
94.8169
94.9649
95.0959
95.0938
94.8665
94.293
93.2443
91.596
89.2762
86.2569
82.5438
78.1385
73.052
67.2673
60.8106
53.6706
45.8348
37.3233
28.1808
18.4591
8.30365
-2.24799
-13.071
-23.791
-34.7389
-45.9145
-56.3916
-65.3629
-74.8615
-84.9541
-88.3525
-87.3791
-81.9574
-75.2617
-68.5882
-62.2988
-56.4946
-51.1669
-46.2608
-41.7049
-37.4338
-33.4115
-29.5951
-25.9293
-22.4107
-19.0307
-15.8279
-12.8365
-9.94801
-7.35947
-5.23852
-3.50977
-1.64682
-0.744683
0.169805
1.11666
0.987446
1.04423
0.768912
0.0920736
-0.956083
-2.3503
-4.08485
-6.14775
-8.5423
-11.2786
-14.288
-17.4212
-20.6055
-23.8088
-26.7526
-28.9596
-30.1435
-30.2231
-29.2769
-27.4935
-25.1007
-22.3196
-19.3399
-16.3136
-13.358
-10.5627
-7.99648
-5.71286
-3.75321
-2.14859
-0.912926
-0.0320583
0.514687
0.73553
0.759415
0.806689
0.433559
-0.782949
91.0951
92.0003
92.8805
93.8564
94.4931
94.6001
94.6527
94.8161
94.9552
94.9543
94.7229
94.1422
93.0852
91.4289
89.102
86.0766
82.359
77.9506
72.8629
67.0787
60.626
53.4943
45.678
37.1936
28.0877
18.4099
8.30155
-2.20361
-12.9588
-23.5827
-34.4201
-45.5075
-55.9244
-64.6698
-73.9638
-84.6067
-87.94
-86.5319
-81.1183
-74.6235
-68.1568
-62.0427
-56.3802
-51.1657
-46.3497
-41.8639
-37.6466
-33.6675
-29.8886
-26.2519
-22.7369
-19.3566
-16.1665
-13.1967
-10.3417
-7.7703
-5.65258
-3.90686
-2.00964
-1.11004
-0.136723
0.88129
0.775337
0.798176
0.50248
-0.158801
-1.17129
-2.51326
-4.17339
-6.13619
-8.40419
-10.9783
-13.7858
-16.7086
-19.7055
-22.7184
-25.4466
-27.4707
-28.5663
-28.663
-27.8286
-26.2228
-24.0432
-21.4854
-18.7226
-15.8975
-13.1232
-10.4883
-8.06141
-5.89567
-4.03115
-2.49649
-1.30328
-0.437205
0.120742
0.378033
0.456067
0.54915
0.221925
-0.855573
90.9634
91.8479
92.716
93.6733
94.2969
94.4215
94.4898
94.6687
94.8165
94.8183
94.5843
93.9982
92.9344
91.2712
88.9378
85.9068
82.1845
77.7727
72.6835
66.8999
60.4502
53.3263
45.5306
37.0752
28.009
18.3783
8.32066
-2.13505
-12.8231
-23.3487
-34.0664
-45.0761
-55.4238
-63.8645
-72.9868
-84.3735
-87.5397
-85.6495
-80.2297
-73.9369
-67.6747
-61.7363
-56.2176
-51.1192
-46.3963
-41.9827
-37.8206
-33.8896
-30.1551
-26.54
-23.0281
-19.6602
-16.4914
-13.5473
-10.727
-8.17254
-6.05795
-4.29446
-2.3733
-1.45123
-0.419719
0.678204
0.618899
0.575262
0.253253
-0.396656
-1.3762
-2.66866
-4.25896
-6.12986
-8.28192
-10.7058
-13.3293
-16.0663
-18.8949
-21.7244
-24.2377
-26.0989
-27.1146
-27.225
-26.4871
-25.0366
-23.0456
-20.6886
-18.1238
-15.4853
-12.8817
-10.3994
-8.10614
-6.05378
-4.2808
-2.81356
-1.6617
-0.811141
-0.244832
0.0442701
0.170544
0.302723
0.0175985
-0.921134
90.8191
91.6893
92.5493
93.4896
94.1036
94.2466
94.3283
94.5226
94.6801
94.6857
94.4508
93.8608
92.7918
91.1231
88.7842
85.748
82.0212
77.6061
72.515
66.7318
60.2852
53.1686
45.3933
36.9685
27.9453
18.3653
8.36295
-2.04109
-12.6631
-23.0839
-33.6813
-44.6336
-54.8635
-62.9665
-72.1213
-84.209
-87.0977
-84.7176
-79.2956
-73.2049
-67.1437
-61.3806
-56.0072
-51.0273
-46.3999
-42.061
-37.9587
-34.0822
-30.3873
-26.7886
-23.2895
-19.9471
-16.8071
-13.8921
-11.1066
-8.56916
-6.45687
-4.67429
-2.73916
-1.77549
-0.686993
0.490095
0.49401
0.375676
0.0190873
-0.623035
-1.57196
-2.81751
-4.34258
-6.12932
-8.17491
-10.4603
-12.919
-15.4947
-18.1699
-20.8169
-23.1298
-24.8412
-25.7823
-25.9007
-25.2437
-23.9276
-22.103
-19.9264
-17.5428
-15.0777
-12.6348
-10.2977
-8.13221
-6.18855
-4.50335
-3.10087
-1.98916
-1.15472
-0.582645
-0.265975
-0.0968576
0.0682886
-0.178342
-0.979026
90.6632
91.5261
92.3807
93.3052
93.9132
94.0757
94.1682
94.3779
94.5457
94.5566
94.3223
93.7302
92.6575
90.9845
88.6411
85.6004
81.8697
77.4515
72.3587
66.5755
60.1319
53.0235
45.2684
36.8744
27.8962
18.3712
8.43
-1.92121
-12.4761
-22.7825
-33.2727
-44.1848
-54.2203
-62.0363
-71.4391
-83.7071
-86.4982
-83.6655
-78.3006
-72.4212
-66.5632
-60.9764
-55.7502
-50.8914
-46.3626
-42.1024
-38.0634
-34.2389
-30.5774
-26.9996
-23.5274
-20.222
-17.1172
-14.2337
-11.4825
-8.96258
-6.85148
-5.04848
-3.10751
-2.08955
-0.948638
0.272303
0.372782
0.198367
-0.203618
-0.839632
-1.75972
-2.96087
-4.42522
-6.13474
-8.08206
-10.2403
-12.5539
-14.9904
-17.5204
-19.9818
-22.1142
-23.6873
-24.5577
-24.6782
-24.0882
-22.8881
-21.2108
-19.1969
-16.9795
-14.6758
-12.3842
-10.1849
-8.14126
-6.30144
-4.70012
-3.35964
-2.28683
-1.46902
-0.893566
-0.553217
-0.346155
-0.153703
-0.365625
-1.02896
90.5004
91.3594
92.2103
93.1202
93.7259
93.9091
94.0096
94.2346
94.4136
94.4309
94.1989
93.6063
92.5315
90.8555
88.5086
85.4642
81.7301
77.3095
72.2152
66.4323
59.9913
52.8914
45.1577
36.796
27.8636
18.3967
8.52171
-1.77624
-12.2581
-22.442
-32.8514
-43.7229
-53.482
-61.1014