/*--------------------------------*- C++ -*----------------------------------*\
| =========                 |                                                 |
| \\      /  F ield         | OpenFOAM: The Open Source CFD Toolbox           |
|  \\    /   O peration     | Version:  4.1                                   |
|   \\  /    A nd           | Web:      www.OpenFOAM.org                      |
|    \\/     M anipulation  |                                                 |
\*---------------------------------------------------------------------------*/
FoamFile
{
    version     2.0;
    format      ascii;
    class       surfaceScalarField;
    location    "600";
    object      phi;
}
// * * * * * * * * * * * * * * * * * * * * * * * * * * * * * * * * * * * * * //

dimensions      [0 3 -1 0 0 0 0];

internalField   nonuniform List<scalar> 
52920
(
458.412
53.2071
407.929
50.4808
380.54
27.3864
418.932
-38.3949
515.909
-96.9791
628.012
-112.106
739.876
-111.866
851.093
-111.219
971.784
-120.693
1109.92
-138.138
1270.53
-160.606
1455.78
-185.255
1665.69
-209.913
1898.66
-232.966
2152.19
-253.533
2423.57
-271.385
2710.33
-286.761
3010.44
-300.109
3322.49
-312.052
3645.44
-322.945
3978.61
-333.168
4321.67
-343.069
4674.3
-352.629
5035.88
-361.58
5405.4
-369.521
5781.24
-375.833
6161.11
-379.871
6542.14
-381.039
6920.95
-378.802
7293.59
-372.643
7654.5
-360.912
7993.86
-339.356
8293.1
-299.243
8520.76
-227.662
8640.65
-119.889
8629.24
11.412
8480.29
148.951
8218.39
261.897
7890.68
327.705
7537.46
353.228
7182.17
355.287
6835.75
346.422
6502.15
333.594
6182.06
320.093
5874.84
307.222
5579.5
295.338
5295.1
284.401
5020.87
274.231
4756.24
264.625
4500.83
255.409
4254.38
246.446
4016.76
237.627
3787.86
228.897
3567.66
220.203
3356.07
211.585
3152.93
203.145
2957.71
195.213
2769.67
188.042
2587.67
182.002
2409.27
178.398
2233.58
175.692
2072.1
161.483
1946.58
125.516
1929.36
17.2192
2119.23
-189.875
2484.05
-364.815
2965.16
-481.107
3506.33
-541.178
4066.58
-560.242
4620.41
-553.832
5154.86
-534.448
5667.81
-512.951
6165.41
-497.602
6654.81
-489.403
7134.24
-479.428
7586.12
-451.882
7972.74
-386.618
8239.55
-266.813
8335.82
-96.2657
8233.16
102.657
7950.77
282.393
7556.01
394.758
7118.12
437.887
6683.2
434.92
6275.79
407.411
5907.44
368.347
5583.99
323.456
5310.02
273.966
5090.55
219.472
4930
160.548
4829.75
100.25
4786.69
43.0636
4794.76
-8.07634
4849.33
-54.5675
4947.54
-98.2095
5087.26
-139.722
5260.7
-173.441
5442.28
-181.58
5627.77
-185.489
-166.956
467.647
101.421
422.484
95.6422
408.353
41.5148
467.128
-97.1726
577.524
-207.377
695.097
-229.681
812.006
-228.777
934.306
-233.52
1073.33
-259.721
1234.57
-299.372
1419.15
-345.193
1626.06
-392.165
1853.55
-437.408
2099.57
-478.981
2361.89
-515.854
2638.35
-547.842
2926.99
-575.411
3226.23
-599.346
3534.92
-620.741
3852.16
-640.19
4177.35
-658.359
4510.16
-675.876
4850.23
-692.697
5196.97
-708.321
5549.48
-722.034
5906.38
-732.737
6265.83
-739.313
6625.52
-740.729
6982.71
-735.991
7334.26
-724.199
7676.21
-702.857
8002.54
-665.694
8301.1
-597.796
8544.34
-470.906
8687.53
-263.076
8690.35
8.59122
8538
301.295
8258.82
541.076
7908.04
678.492
7532.15
729.113
7157.71
729.727
6796.59
707.546
6452.63
677.545
6126.01
646.719
5815.45
617.783
5519.35
591.435
5236.22
567.527
4964.82
545.633
4704.16
525.286
4453.47
506.102
4212.12
487.787
3979.62
470.134
3755.48
453.037
3539.27
436.411
3330.49
420.364
3128.6
405.037
2932.93
390.883
2742.31
378.664
2554.86
369.451
2369.86
363.397
2189.3
356.253
2017.25
333.53
1865.45
277.314
1844.45
38.2171
2091.36
-436.783
2524.87
-798.33
3036.63
-992.862
3567.14
-1071.69
4092.64
-1085.74
4601.9
-1063.09
5088.97
-1021.52
5554.22
-978.201
6004.97
-948.344
6450.12
-934.561
6891.27
-920.577
7317.67
-878.284
7703.24
-772.181
8001.32
-564.899
8148.98
-243.921
8091.84
159.793
7833.65
540.588
7446.67
781.732
7010.08
874.478
6576.67
868.333
6173.91
810.168
5814.05
728.211
5502.23
635.273
5241.15
535.053
5032.72
427.898
4877.99
315.28
4776.09
202.152
4723.8
95.3538
4716.78
-1.06407
4752.56
-90.347
4830.4
-176.044
4950.09
-259.419
5104.62
-327.962
5266.47
-343.435
5429.46
-348.483
-316.729
481.691
142.626
449.264
128.068
456.133
34.643
526.949
-167.99
630.376
-310.806
734.191
-333.498
840.201
-334.788
956.668
-349.99
1092.4
-395.45
1249.18
-456.157
1425.8
-521.82
1620.81
-587.169
1833.21
-649.807
2061.99
-707.768
2305.83
-759.693
2563.11
-805.12
2832.18
-844.48
3111.54
-878.714
3400.1
-909.296
3696.92
-937.009
4001.35
-962.789
4313.04
-987.567
4631.65
-1011.31
4956.69
-1033.36
5287.4
-1052.75
5622.66
-1067.99
5960.95
-1077.6
6300.42
-1080.21
6638.87
-1074.44
6973.8
-1059.13
7302.3
-1031.36
7620.86
-984.263
7922.98
-899.914
8190.19
-738.11
8383.42
-456.305
8452.2
-60.1948
8359.01
394.482
8119.05
781.044
7789.53
1008.01
7423.76
1094.89
7053.85
1099.63
6695.16
1066.24
6353.43
1019.27
6029.75
970.407
5723.21
924.319
5432.29
882.358
5155.37
844.446
4890.99
810.006
4637.91
778.372
4395.01
749.003
4161.29
721.503
3935.8
695.624
3717.59
671.246
3505.71
648.296
3299.11
626.959
3096.93
607.22
2898.24
589.57
2701.06
575.839
2503.65
566.867
2308.41
558.63
2115.11
549.556
1918.01
530.627
1737.34
457.99
1713.42
62.139
1964.03
-687.393
2351.22
-1185.52
2780.77
-1422.41
3227.05
-1517.97
3681.28
-1539.97
4131.94
-1513.75
4568.11
-1457.69
4986.08
-1396.17
5391.91
-1354.17
5795.78
-1338.43
6201.61
-1326.41
6602.22
-1278.89
6979.99
-1149.95
7305.56
-890.47
7530.94
-469.309
7583.33
107.407
7423.3
700.614
7107.75
1097.28
6720.96
1261.27
6324.11
1265.18
5950.34
1183.94
5614.36
1064.19
5321.18
928.457
5071.3
784.933
4863.51
635.683
4696.61
482.182
4570.35
328.412
4485.6
180.105
4444.12
40.4111
4448.89
-95.115
4502.39
-229.542
4606.43
-363.457
4752.51
-474.052
4903.88
-494.8
5056.42
-501.022
-456.461
502.938
174.217
484.208
146.796
498.895
19.9542
554.735
-223.832
628.178
-384.252
704.679
-410.001
792.518
-422.629
896.877
-454.351
1021.09
-519.663
1163.28
-598.344
1321.75
-680.294
1496.39
-761.813
1687.79
-841.205
1895.96
-915.939
2120
-983.732
2358.32
-1043.45
2609.14
-1095.3
2870.76
-1140.33
3141.9
-1180.44
3421.54
-1216.65
3708.96
-1250.21
4003.81
-1282.42
4305.79
-1313.29
4614.42
-1341.99
4929.02
-1367.34
5248.46
-1387.44
5571.3
-1400.44
5895.8
-1404.71
6219.9
-1398.53
6541.27
-1380.5
6857.29
-1347.39
7165.54
-1292.51
7463.01
-1197.38
7739.19
-1014.29
7964.34
-681.458
8087.45
-183.302
8054.72
427.214
7864.91
970.846
7572.46
1300.46
7233.84
1433.51
6884.54
1448.93
6542.34
1408.43
6214.63
1346.98
5903.52
1281.52
5608.75
1219.09
5329.13
1161.98
5063.2
1110.38
4809.49
1063.71
4566.63
1021.24
4333.28
982.347
4108.14
946.641
3889.87
913.901
3677.07
884.037
3468.33
857.043
3262.17
833.112
3057.54
811.854
2853.06
794.045
2646.05
782.852
2436.28
776.642
2227.88
767.025
2013.78
763.657
1785.73
758.673
1570.79
672.936
1507.08
125.846
1703.2
-883.519
2013.95
-1496.26
2374.22
-1782.69
2770.04
-1913.79
3187.11
-1957.04
3606.11
-1932.76
4011.4
-1862.98
4397.5
-1782.26
4770.96
-1727.63
5143.43
-1710.9
5519.34
-1702.32
5890.92
-1650.48
6242.54
-1501.56
6556.47
-1204.4
6807.97
-720.805
6933.23
-17.8524
6860.65
773.194
6623.16
1334.77
6299.93
1584.5
5953.69
1611.42
5619.48
1518.15
5312.77
1370.9
5038.27
1202.96
4795.58
1027.63
4582.84
848.418
4399.3
665.728
4246.76
480.947
4129.85
297.012
4055.03
115.234
4030.31
-70.3951
4062.21
-261.437
4156.58
-457.833
4303.11
-620.576
4452.04
-643.734
4610.48
-659.462
-596.453
531.181
195.032
522.045
155.93
528.812
13.1853
552.271
-247.293
589.326
-421.309
639.926
-460.602
710.811
-493.515
798.261
-541.802
900.936
-622.339
1017.78
-715.193
1150.33
-812.841
1301
-912.49
1471.41
-1011.61
1661.43
-1105.95
1869.44
-1191.75
2093.11
-1267.12
2330.02
-1332.2
2578.08
-1388.39
2835.87
-1438.23
3102.3
-1483.08
3376.7
-1524.61
3658.8
-1564.52
3948.34
-1602.84
4244.88
-1638.52
4547.65
-1670.12
4855.47
-1695.25
5166.77
-1711.74
5479.79
-1717.73
5792.48
-1711.22
6102.54
-1690.56
6407.38
-1652.23
6704.97
-1590.1
6994.31
-1486.71
7270.77
-1290.75
7514.03
-924.72
7677.51
-346.783
7697
407.72
7554.3
1113.55
7300.43
1554.33
6993.91
1740.03
6672.04
1770.8
6353.7
1726.77
6047.01
1653.67
5754.67
1573.86
5476.85
1496.9
5212.69
1426.15
4960.88
1362.19
4720.03
1304.56
4488.72
1252.55
4265.47
1205.6
4048.74
1163.36
3836.92
1125.72
3628.3
1092.66
3421.08
1064.26
3213.58
1040.6
3004.61
1020.83
2792.15
1006.5
2573.46
1001.54
2350.48
999.626
2125.75
991.759
1884.53
1004.88
1622.33
1020.87
1362.74
932.533
1248.96
239.619
1402.81
-1037.37
1669.17
-1762.62
1993.61
-2107.13
2362.16
-2282.34
2755.86
-2350.74
3152.29
-2329.19
3533.62
-2244.3
3892.57
-2141.21
4235.37
-2070.44
4575.5
-2051.03
4919.87
-2046.68
5261.43
-1992.04
5583.13
-1823.26
5869.06
-1490.34
6109.54
-961.286
6262.58
-170.89
6243.48
792.295
6066
1512.25
5799.64
1850.86
5502.64
1908.42
5207.82
1812.97
4929.61
1649.11
4672.38
1460.19
4436.12
1263.89
4219.9
1064.63
4024.29
861.34
3852.66
652.58
3711.69
437.982
3610.75
216.168
3562.59
-22.2372
3576.41
-275.258
3665.03
-546.445
3822.1
-777.652
3987.37
-808.998
4164.04
-836.136
-729.752
570.736
206.576
562.219
164.445
548.14
27.2629
533.836
-232.992
536.661
-424.137
560.611
-484.554
606
-538.905
664.134
-599.938
736.976
-695.182
828.105
-806.323
941.018
-925.755
1077.53
-1049
1237.52
-1171.6
1419.04
-1287.48
1619.08
-1391.79
1834.37
-1482.41
2062.09
-1559.91
2300.09
-1626.4
2547.11
-1685.25
2802.29
-1738.26
3065.18
-1787.51
3335.72
-1835.06
3613.77
-1880.88
3898.84
-1923.6
4190.14
-1961.41
4486.31
-1991.42
4785.7
-2011.14
5086.54
-2018.57
5386.83
-2011.51
5684.3
-1988.03
5976.38
-1944.3
6261.17
-1874.89
6538.7
-1764.24
6808.6
-1560.66
7059.3
-1175.42
7252.26
-539.746
7317.33
342.65
7217.53
1213.35
7000.24
1771.62
6726.11
2014.16
6433.68
2063.23
6142.13
2018.32
5859.67
1936.13
5589.13
1844.4
5330.88
1755.16
5084.18
1672.84
4847.87
1598.49
4620.62
1531.82
4400.96
1472.21
4187.35
1419.2
3978.14
1372.58
3771.52
1332.34
3565.6
1298.58
3358.37
1271.5
3148.12
1250.86
2933.42
1235.52
2711.59
1228.33
2480.73
1232.4
2244.14
1236.22
1999.22
1236.68
1725.72
1278.38
1426.85
1319.74
1121.71
1237.67
988.466
372.861
1135.01
-1183.91
1378.12
-2005.73
1676.96
-2405.97
2022.35
-2627.73
2395.82
-2724.21
2774.07
-2707.44
3135.77
-2606.01
3468.78
-2474.22
3776.51
-2378.17
4074.92
-2349.44
4377.76
-2349.52
4684.19
-2298.48
4977.7
-2116.76
5238.27
-1750.9
5458.72
-1181.74
5614.15
-326.327
5619.21
787.241
5479.67
1651.79
5257.11
2073.42
5002.21
2163.32
4742.72
2072.45
4490.71
1901.13
4250.14
1700.76
4021.71
1492.31
3805.67
1280.67
3603.61
1063.4
3419.66
836.526
3261.35
596.298
3140.44
337.072
3074.7
43.5045
3071.82
-272.375
3164.42
-639.048
3356.29
-969.519
3553.11
-1005.82
3698.59
-981.623
-791.582
601.714
213.239
590.234
175.923
556.85
60.6456
510.57
-186.714
479.286
-392.855
467.769
-473.039
479.232
-550.371
509.446
-630.154
564.756
-750.493
647.413
-888.981
757.103
-1035.45
892.376
-1184.28
1051.08
-1330.31
1230.12
-1466.51
1425.87
-1587.54
1634.88
-1691.43
1854.42
-1779.45
2082.63
-1854.61
2318.62
-1921.25
2561.87
-1981.51
2812.19
-2037.84
3069.77
-2092.64
3334.58
-2145.69
3606.16
-2195.18
3883.64
-2238.89
4165.58
-2273.36
4450.26
-2295.83
4735.96
-2304.27
5020.78
-2296.32
5302.58
-2269.84
5578.81
-2220.53
5847.65
-2143.73
6109.58
-2026.18
6366.95
-1818.02
6615.55
-1424.03
6827.25
-751.447
6930.82
239.08
6869.8
1274.36
6686.59
1954.83
6443.71
2257.04
6180.65
2326.29
5916.52
2282.45
5659.22
2193.43
5411.42
2092.2
5173.45
1993.13
4944.64
1901.65
4723.87
1819.25
4509.84
1745.85
4301.1
1680.94
4096.09
1624.21
3893.11
1575.56
3690.3
1535.15
3485.67
1503.2
3277.17
1480
3063.14
1464.89
2841.76
1456.9
2609.94
1460.16
2367.33
1475.01
2116.33
1487.22
1846.53
1506.48
1536.58
1588.33
1202.12
1654.19
863.715
1576.07
760.556
476.02
919.653
-1343.01
1140.5
-2226.57
1411.18
-2676.65
1730.13
-2946.68
2081.78
-3075.86
2442.98
-3068.65
2788.45
-2951.48
3099.06
-2784.83
3372.46
-2651.57
3625.06
-2602.04
3878.36
-2602.83
4141.51
-2561.62
4402.84
-2378.09
4639.3
-1987.37
4841.24
-1383.68
4990.73
-475.82
5003.58
774.39
4885.51
1769.86
4695.08
2263.85
4475.02
2383.38
4246.64
2300.84
4018.82
2128.95
3794.82
1924.75
3575.88
1711.25
3363.06
1493.49
3158.47
1268
2966.39
1028.61
2794.23
768.452
2657.16
474.146
2575.83
124.836
2560.16
-256.707
2681.36
-760.248
2916.24
-1204.39
3090.49
-1180.07
3094.27
-985.404
-707.101
624.59
220.037
609.034
191.478
562.159
107.518
488.976
-113.534
419.054
-322.936
366.158
-420.146
351.529
-535.744
373.128
-651.754
430.384
-807.751
517.375
-975.974
629.995
-1148.07
765.987
-1320.27
923.287
-1487.61
1098.89
-1642.12
1289.23
-1777.87
1490.94
-1893.14
1701.45
-1989.97
1919.16
-2072.32
2143.49
-2145.57
2374.15
-2212.16
2611.17
-2274.86
2854.91
-2336.38
3105.43
-2396.21
3362.31
-2452.06
3624.61
-2501.2
3890.81
-2539.56
4159.14
-2564.15
4427.9
-2573.03
4695.28
-2563.7
4959.31
-2533.87
5217.53
-2478.75
5468.15
-2394.35
5711.83
-2269.86
5952.52
-2058.71
6191.54
-1663.04
6411.51
-971.424
6545.82
104.769
6519.26
1300.93
6367.5
2106.59
6154.27
2470.28
5919.67
2560.88
5682.42
2519.7
5449.91
2425.94
5224.49
2317.62
5006.37
2211.25
4794.85
2113.17
4588.84
2025.27
4387.04
1947.65
4188.06
1879.93
3990.35
1821.92
3792.26
1773.64
3591.95
1735.47
3387.44
1707.71
3176.75
1690.68
2958.24
1683.4
2729.57
1685.57
2487.85
1701.87
2234.35
1728.51
1966.84
1754.74
1666.16
1807.15
1317.55
1936.94
958.191
2013.55
611.458
1922.81
583.232
504.246
751.866
-1511.64
944.751
-2419.46
1182.9
-2914.81
1470.29
-3234.07
1795.79
-3401.35
2138.32
-3411.18
2470.05
-3283.21
2765.23
-3080.01
3013.28
-2899.62
3226.43
-2815.18
3430.2
-2806.6
3643.73
-2775.15
3864.01
-2598.37
4069.04
-2192.4
4248.91
-1563.55
4387.95
-614.855
4399.58
762.76
4293
1876.44
4126.85
2430
3936.35
2573.87
3735.85
2501.34
3530.68
2334.12
3323.16
2132.27
3114.75
1919.66
2906.96
1701.28
2701.88
1473.08
2503.35
1227.14
2318.14
953.665
2166.02
626.256
2068.16
222.698
2058.08
-246.623
2211.15
-913.316
2419.76
-1413.01
2475.55
-1235.85
2304.19
-814.052
-491.019
640.67
229.957
620.042
212.104
565.025
162.533
469.961
-18.4726
360.461
-213.439
271.699
-331.385
249.154
-513.201
277.227
-679.829
340.768
-871.293
429.658
-1064.86
540.886
-1259.3
673.615
-1453
826.437
-1640.43
996.463
-1812.15
1180.05
-1961.46
1373.78
-2086.87
1575.13
-2191.32
1782.63
-2279.82
1995.89
-2358.83
2214.74
-2431.02
2439.34
-2499.46
2670.14
-2567.17
2907.25
-2633.32
3150.23
-2695.04
3398.09
-2749.06
3649.16
-2790.63
3901.6
-2816.59
4153.7
-2825.12
4403.7
-2813.71
4649.76
-2779.93
4889.49
-2718.48
5121.21
-2626.07
5345.52
-2494.18
5567.24
-2280.43
5791.81
-1887.61
6011.27
-1190.89
6167.96
-51.9161
6170.8
1298.09
6047.54
2229.85
5862.04
2655.78
5654.48
2768.44
5442.91
2731.27
5234.08
2634.77
5029.96
2521.74
4830.59
2410.62
4635.21
2308.55
4442.75
2217.73
4251.94
2138.45
4061.45
2070.42
3869.8
2013.57
3675.43
1968.02
3476.55
1934.35
3271.3
1912.96
3057.84
1904.14
2834.4
1906.84
2598.17
1921.8
2347.4
1952.65
2083.37
1992.53
1794.26
2043.86
1455.76
2145.65
1071.66
2321.03
707.218
2378
392.349
2237.67
463.637
432.957
624.968
-1672.97
786.386
-2580.88
988.946
-3117.37
1239.63
-3484.76
1533.19
-3694.91
1852.42
-3730.4
2169.13
-3599.92
2453.16
-3364.04
2685.97
-3132.43
2871.41
-3000.62
3032.91
-2968.1
3196.32
-2938.56
3368.85
-2770.9
3533.17
-2356.72
3682.59
-1712.98
3804.63
-736.899
3807.3
760.091
3706.4
1977.34
3560.31
2576.09
3396.23
2737.95
3221.37
2676.19
3037.57
2517.92
2846.17
2323.68
2648.68
2117.15
2446.65
1903.32
2241.69
1678.03
2036.45
1432.38
1837.3
1152.82
1666.85
796.707
1556.66
332.882
1567.07
-257.037
1675.8
-1022.04
1744.07
-1481.28
1673.37
-1165.15
1424.41
-565.093
-209.932
649.832
244.987
622.65
239.285
562.356
222.826
452.427
91.4531
311.307
-72.3234
196.835
-216.917
176.324
-492.693
209.776
-713.284
272.916
-934.435
357.826
-1149.78
463.817
-1365.29
590.935
-1580.12
737.883
-1787.38
901.582
-1975.85
1078.17
-2138.04
1264.12
-2272.83
1456.91
-2384.11
1655.14
-2478.06
1858.57
-2562.26
2067.09
-2639.54
2280.88
-2713.25
2500.45
-2786.74
2725.92
-2858.8
2956.78
-2925.89
3191.94
-2984.22
3429.59
-3028.28
3667.75
-3054.75
3904.68
-3062.05
4138.64
-3047.67
4367.85
-3009.14
4589.97
-2940.6
4803.38
-2839.48
5008.58
-2699.39
5210.54
-2482.38
5417.67
-2094.74
5629.77
-1402.99
5800.58
-222.73
5827.37
1271.3
5729.34
2327.87
5569.36
2815.76
5387.07
2950.73
5199.56
2918.78
5012.85
2821.48
4828.51
2706.08
4646.43
2592.7
4465.81
2489.17
4285.58
2397.97
4104.53
2319.5
3921.37
2253.57
3734.75
2200.19
3543.18
2159.58
3345
2132.53
3138.51
2119.45
2921.96
2120.69
2693.31
2135.49
2449.77
2165.34
2191.18
2211.24
1914.88
2268.84
1595.4
2363.33
1215.26
2525.79
807.008
2729.29
456.744
2728.26
231.992
2462.43
394.135
270.814
533.629
-1812.47
664.075
-2711.32
829.368
-3282.66
1038.86
-3694.25
1294.02
-3950.08
1583.08
-4019.46
1879.32
-3896.17
2150.91
-3635.63
2373.94
-3355.46
2543.02
-3169.69
2673.76
-3098.85
2792.61
-3057.41
2915.71
-2894
3032.71
-2473.72
3143.28
-1823.54
3240.44
-834.062
3226.63
773.904
3128.11
2075.86
3000.54
2703.66
2861.33
2877.17
2710.53
2827
2546.89
2681.56
2370.98
2499.58
2184.25
2303.88
1987.92
2099.65
1782.71
1883.24
1569.34
1645.75
1354.28
1367.88
1154.16
996.827
1047.52
439.518
1043.8
-253.314
967.584
-945.827
839.125
-1352.82
719.2
-1045.23
486.522
-332.415
201.575
649.696
268.024
613.059
275.921
546.208
289.674
429.818
207.841
273.316
84.1736
139.405
-83.0097
120.084
-473.375
152.744
-745.945
210.978
-992.671
289.825
-1228.62
389.614
-1465.08
510.565
-1701.07
651.266
-1928.09
808.421
-2133.01
977.987
-2307.61
1156.39
-2451.24
1341.13
-2568.84
1530.89
-2667.82
1725.53
-2756.9
1924.95
-2838.96
2129.31
-2917.6
2339.11
-2996.55
2554.48
-3074.16
2774.84
-3146.25
2999
-3208.39
3224.99
-3254.27
3450.68
-3280.44
3674.29
-3285.67
3894.04
-3267.42
4108.16
-3223.26
4314.25
-3146.69
4510.76
-3035.98
4698.01
-2886.64
4880.69
-2665.07
5068.74
-2282.79
5268.16
-1602.41
5445.48
-400.049
5490.77
1226.01
5414.54
2404.1
5277.64
2952.66
5118.57
3109.8
4953.21
3084.13
4786.79
2987.9
4620.51
2872.36
4454.12
2759.09
4286.81
2656.48
4117.51
2567.26
3945.09
2491.93
3768.32
2430.34
3585.93
2382.58
3396.57
2348.93
3198.67
2330.43
2990.74
2327.39
2770.99
2340.43
2537.1
2369.38
2287.09
2415.35
2021.35
2476.97
1727.42
2562.76
1367.82
2722.94
952.144
2941.46
541.355
3140.08
236.177
3033.44
138.659
2559.94
354.337
55.1354
472.306
-1930.44
575.501
-2814.52
703.349
-3410.51
868.459
-3859.36
1079.2
-4160.82
1330.81
-4271.07
1600.02
-4165.38
1854.59
-3890.2
2067.45
-3568.33
2226.59
-3328.84
2338.18
-3210.43
2422.17
-3141.4
2498.66
-2970.49
2564.69
-2539.75
2629.55
-1888.41
2694.61
-899.121
2657.44
811.08
2560.12
2173.18
2451.37
2812.41
2336.39
2992.14
2208.31
2955.08
2063.55
2826.32
1902.26
2660.88
1725.7
2480.44
1534.58
2290.78
1327.98
2089.83
1103.87
1869.87
867.06
1604.69
642.35
1221.54
522.792
559.076
362.258
-92.7796
24.3629
-607.932
-273.793
-1054.66
-502.074
-816.944
-731.372
-103.118
366.345
640.008
298.28
592.975
322.952
515.68
366.967
393.634
329.885
232.276
245.526
90.5251
58.7351
71.3533
-454.207
100.601
-775.195
153.196
-1045.27
225.821
-1301.25
319.14
-1558.4
433.489
-1815.42
567.435
-2062.03
717.576
-2283.15
879.806
-2469.84
1050.58
-2622.01
1227.44
-2745.7
1409.15
-2849.52
1595.62
-2943.38
1786.71
-3030.05
1982.44
-3113.33
2183.37
-3197.47
2389.59
-3280.39
2600.52
-3357.18
2814.95
-3422.81
3030.71
-3470.03
3245.57
-3495.3
3457.65
-3497.75
3665.11
-3474.88
3866.1
-3424.25
4058.09
-3338.68
4239.51
-3217.4
4410.48
-3057.62
4575.14
-2829.72
4743.95
-2451.6
4927.33
-1785.79
5104.12
-576.842
5162.39
1167.75
5104.35
2462.15
4987.96
3069.05
4849.91
3247.85
4704.64
3229.4
4556.55
3135.99
4406.5
3022.4
4254.17
2911.42
4098.74
2811.91
3939.19
2726.81
3774.4
2656.71
3603.25
2601.49
3424.54
2561.3
3237.02
2536.45
3039.25
2528.21
2829.89
2536.75
2606.97
2563.35
2368.12
2608.24
2112.87
2670.6
1838.8
2751.05
1518.45
2883.11
1113.29
3128.11
682.731
3372.02
300.689
3522.12
80.3982
3253.73
89.1586
2551.18
330.071
-185.778
435.748
-2036.11
516.075
-2894.84
608.21
-3502.65
727.921
-3979.07
889.715
-4322.61
1097.29
-4478.65
1333.53
-4401.61
1566.4
-4123.07
1764.9
-3766.83
1913.45
-3477.39
2013.37
-3310.35
2074.54
-3202.57
2111.66
-3007.61
2127.06
-2555.16
2141.14
-1902.48
2166.43
-924.412
2099.55
877.954
2004.43
2268.31
1916.08
2900.76
1825.03
3083.19
1718.26
3061.85
1590.9
2953.68
1443.14
2808.64
1276.04
2647.54
1088.91
2477.91
878.393
2300.35
642.781
2105.48
388.436
1859.03
125.777
1484.2
-228.538
913.391
-650.987
329.669
-1049.96
-208.956
-1453.25
-651.376
-1784.89
-485.308
-1996.4
108.394
500.791
623.948
336.535
565.249
381.651
474.24
457.976
342.269
461.854
180.357
407.436
46.1286
192.955
29.3777
-437.458
54.8631
-800.682
101.864
-1092.27
168.014
-1367.4
254.308
-1644.69
361.316
-1922.43
487.704
-2188.42
630.102
-2425.55
784.463
-2624.2
947.342
-2784.89
1116.32
-2914.68
1290.17
-3023.38
1468.84
-3122.04
1651.98
-3213.19
1839.45
-3300.81
2031.84
-3389.86
2229.34
-3477.89
2431.45
-3559.29
2636.96
-3628.32
2843.6
-3676.67
3048.97
-3700.68
3251.12
-3699.89
3448.07
-3671.83
3637.9
-3614.08
3817.78
-3518.56
3986.07
-3385.69
4142.72
-3214.27
4290.98
-2977.98
4441.32
-2601.94
4607.34
-1951.81
4777.51
-747.014
4843.32
1101.93
4799.79
2505.68
4701.3
3167.54
4582.07
3367.08
4454.81
3356.66
4323.08
3267.73
4187.46
3158.01
4047.59
3051.29
3902.68
2956.83
3751.74
2877.75
3593.73
2814.72
3427.56
2767.65
3252.12
2736.74
3066.24
2722.33
2868.6
2725.85
2657.97
2747.38
2432
2789.32
2188.92
2851.32
1929.38
2930.14
1642.98
3037.45
1286.52
3239.56
840.31
3574.32
428.012
3784.32
109.44
3840.69
-4.88705
3368.06
63.5372
2482.76
318.04
-440.28
416.579
-2134.65
478.204
-2956.47
538.759
-3563.2
615.035
-4055.35
725.878
-4433.45
883.841
-4636.61
1081.2
-4598.97
1288.5
-4330.38
1468.71
-3947.03
1601.22
-3609.9
1689.7
-3398.84
1738.72
-3251.59
1746.86
-3015.75
1718.61
-2526.91
1682.49
-1866.36
1657.6
-899.526
1553.75
981.807
1463.55
2358.51
1397.83
2966.47
1330.08
3150.94
1242.85
3149.08
1131.35
3065.18
996.023
2943.96
836.677
2806.88
651.47
2663.11
437.975
2513.85
192.007
2351.45
-95.7331
2146.77
-452.343
1840.81
-919.312
1380.36
-1404.76
815.114
-1836.69
222.982
-2305.93
-182.138
-2706.58
-84.665
-2946.96
348.781
640.272
602.397
383.208
530.673
453.373
424.153
564.494
282.301
603.703
127.564
562.169
8.30261
312.201
-4.65509
-424.504
16.8072
-822.146
57.9664
-1133.43
117.165
-1426.6
195.771
-1723.3
294.621
-2021.28
412.582
-2306.38
546.46
-2559.42
692.401
-2770.14
847.109
-2939.6
1008.18
-3075.75
1174.33
-3189.53
1345.41
-3293.12
1520.76
-3388.54
1700.02
-3480.07
1883.87
-3573.71
2072.73
-3666.76
2266.29
-3752.85
2463.4
-3825.44
2661.68
-3874.95
2858.58
-3897.58
3052.07
-3893.38
3240.06
-3859.81
3420.49
-3794.52
3590.18
-3688.25
3747.26
-3542.78
3891.56
-3358.57
4025.37
-3111.8
4158.39
-2734.95
4306.8
-2100.23
4465.87
-906.08
4534.31
1033.49
4501.71
2538.28
4418.63
3250.61
4316.12
3469.6
4204.88
3467.9
4087.63
3384.98
3964.73
3280.92
3835.79
3180.23
3700.1
3092.52
3556.73
3021.12
3404.68
2966.76
3242.94
2929.4
3070.43
2909.25
2886.1
2906.66
2688.72
2923.22
2477.01
2959.09
2248.29
3018.04
2002.01
3097.6
1737.69
3194.46
1432.25
3342.88
1034.47
3637.34
565.893
4042.9
207.845
4142.37
-19.0319
4067.57
-42.8049
3391.83
54.6761
2385.28
315.621
-701.225
404.815
-2223.85
451.584
-3003.24
486.843
-3598.46
525.031
-4093.53
586.449
-4494.87
691.238
-4741.4
843.424
-4751.15
1020.77
-4507.72
1181.04
-4107.3
1293.15
-3722.01
1363.52
-3469.2
1402.26
-3290.33
1390.85
-3004.34
1335.67
-2471.73
1259.35
-1790.03
1167.48
-807.657
1020.74
1128.55
940.378
2438.87
899.371
3007.48
853.595
3196.71
784.014
3218.66
686.639
3162.55
561.498
3069.1
408.319
2960.06
226.723
2844.71
8.6631
2731.91
-268.858
2628.97
-621.108
2499.02
-1029.44
2249.13
-1449.76
1800.68
-1843.77
1209.13
-2246.29
625.495
-2689.34
260.916
-3068.72
294.71
-3298.66
578.723
780.567
576.019
438.547
489.767
539.624
366.841
687.419
217.045
753.498
73.1464
706.065
-23.3934
408.728
-31.029
-416.871
-13.7797
-839.397
21.2484
-1168.46
73.1179
-1478.47
143.513
-1793.7
233.506
-2111.27
342.26
-2415.14
466.92
-2684.08
603.951
-2907.17
750.251
-3085.9
903.4
-3228.9
1062.01
-3348.13
1225.69
-3456.81
1393.34
-3556.19
1564.3
-3651.03
1739.49
-3748.9
1919.68
-3846.95
2104.77
-3937.93
2293.75
-4014.42
2484.08
-4065.29
2673.12
-4086.61
2858.8
-4079.06
3038.98
-4040
3211.48
-3967.02
3372.66
-3849.43
3520.32
-3690.43
3654.13
-3492.38
3775.49
-3233.16
3892.65
-2852.1
4023.36
-2230.94
4168.71
-1051.42
4235.51
966.69
4210.57
2563.22
4140.73
3320.45
4053.07
3557.25
3956.07
3564.9
3851.57
3489.47
3739.77
3392.71
3620.35
3299.66
3492.66
3220.21
3355.86
3157.92
3209.03
3113.6
3051.19
3087.23
2881.34
3079.11
2698.53
3089.47
2501.58
3120.17
2289.03
3171.65
2058.07
3249
1809.39
3346.28
1536.97
3466.88
1204.73
3675.12
771.805
4070.27
313.504
4501.2
33.9236
4421.95
-99.1565
4200.65
-57.4477
3350.12
91.0976
2236.73
318.686
-928.814
390.58
-2295.74
425.324
-3037.98
442.136
-3615.27
450.351
-4101.75
467.903
-4512.42
519.606
-4793.1
621.311
-4852.86
762.268
-4648.68
900.935
-4245.97
993.491
-3814.57
1038.32
-3514.03
1054.65
-3306.66
1025.38
-2975.08
966.132
-2412.47
871.495
-1695.4
677.388
-613.55
497.43
1308.51
438.193
2498.1
423.521
3022.15
397.608
3222.62
342.995
3273.28
256.745
3248.8
140.652
3185.2
-3.04227
3103.75
-184.507
3026.17
-433.684
2981.08
-762.365
2957.65
-1131.54
2868.2
-1483.27
2600.86
-1797.55
2114.96
-2106.54
1518.12
-2453.56
972.518
-2830.2
637.555
-3150.56
615.066
-3356.24
784.407
920.619
539.536
500.968
440.876
638.282
304.152
824.142
150.499
907.149
22.5104
834.051
-46.8545
478.079
-51.6491
-412.08
-37.954
-853.095
-8.86483
-1197.55
35.543
-1522.88
97.4009
-1855.55
178.019
-2191.89
276.941
-2514.06
391.79
-2798.93
519.471
-3034.85
657.134
-3223.57
802.369
-3374.14
953.61
-3499.38
1110.11
-3613.31
1270.15
-3716.22
1432.83
-3813.72
1599.42
-3915.49
1770.97
-4018.5
1947.59
-4114.56
2128.39
-4195.22
2310.76
-4247.65
2492.01
-4267.86
2670.24
-4257.3
2843.35
-4213.11
3009.04
-4132.7
3163.13
-4003.52
3302.93
-3830.23
3427.93
-3617.38
3538.68
-3343.91
3641.64
-2955.06
3754.9
-2344.21
3884.93
-1181.46
3946.43
905.188
3926.48
2583.17
3868.09
3378.84
3793.72
3631.62
3709.38
3649.24
3616.11
3582.75
3513.98
3494.84
3402.77
3410.86
3281.96
3341.02
3150.82
3289.06
3008.5
3255.91
2854.1
3241.63
2686.69
3246.52
2505.42
3270.73
2309.11
3316.48
2095.99
3384.76
1863.42
3481.57
1611.71
3597.99
1324.21
3754.38
960.09
4039.24
513.735
4516.62
106.898
4908.04
-88.7006
4617.54
-152.771
4264.72
-60.1507
3257.5
152.654
2023.93
316.485
-1092.64
368.264
-2347.52
391.557
-3061.28
394.728
-3618.44
381.629
-4088.65
364.153
-4494.95
367.336
-4796.29
416.335
-4901.86
513.449
-4745.79
625.592
-4358.11
702.305
-3891.28
721.042
-3532.77
695.972
-3281.59
636.389
-2915.49
569.95
-2346.04
504.172
-1629.62
153
-262.378
-17.5707
1479.08
-39.9454
2520.48
-29.3045
3011.51
-39.4396
3232.76
-81.5309
3315.37
-153.59
3320.86
-255.244
3286.85
-399.846
3248.36
-614.359
3240.69
-908.109
3274.83
-1242.65
3292.19
-1555.36
3180.9
-1812.71
2858.21
-2041.42
2343.67
-2291.5
1768.2
-2584.17
1265.19
-2897.27
950.656
-3166.87
884.669
-3356.06
973.596
1063.8
498.1
575.947
385.314
751.069
239.273
970.182
88.8494
1057.57
-17.4188
940.317
-63.2028
523.857
-68.2625
-407.022
-57.1726
-864.186
-33.1859
-1221.54
4.08102
-1560.15
57.3001
-1908.77
128.233
-2262.83
216.876
-2602.7
321.43
-2903.49
439.342
-3152.76
568.102
-3352.33
705.387
-3511.42
849.433
-3643.42
999.001
-3762.88
1151.7
-3868.92
1306.47
-3968.49
1464.82
-4073.84
1627.95
-4181.63
1796
-4282.61
1968.25
-4367.46
2142.11
-4421.51
2315.12
-4440.87
2485.8
-4427.98
2652.18
-4379.49
2811.85
-4292.38
2959.98
-4151.65
3093.25
-3963.49
3210.84
-3734.98
3312.63
-3445.7
3403.11
-3045.54
3499.74
-2440.84
3613.41
-1295.14
3666.43
852.174
3649.28
2600.32
3600.92
3427.2
3538.56
3693.98
3465.56
3722.24
3382.19
3666.12
3288.47
3588.55
3184.34
3515
3069.41
3455.95
2943.09
3415.37
2804.67
3394.33
2653.31
3392.99
2488.18
3411.65
2308.57
3450.35
2113.09
3511.96
1899.74
3598.11
1665.84
3715.47
1407.64
3856.19
1095.29
4066.72
702
4432.54
277.239
4941.38
-40.4201
5225.69
-158.215
4735.34
-185.426
4291.93
-85.5018
3157.58
161.896
1776.53
300.086
-1230.83
337.802
-2385.24
347.816
-3071.29
338.416
-3609.04
310.115
-4060.35
267.408
-4452.24
230.424
-4759.3
228.692
-4900.12
276.334
-4793.43
354.186
-4435.96
415.47
-3952.57
414.26
-3531.56
339.158
-3206.49
227.99
-2804.32
123.963
-2242.01
-64.5369
-1441.12
-385.812
58.8966
-482.751
1576.02
-465.974
2503.7
-439.723
2985.26
-438.624
3231.66
-468.314
3345.06
-531.638
3384.19
-642.174
3397.39
-821.295
3427.48
-1075.32
3494.71
-1373.21
3572.73
-1657.76
3576.74
-1886.21
3409.36
-2063.67
3035.68
-2237.23
2517.24
-2444.29
1975.25
-2690.41
1511.32
-2953.14
1213.38
-3185.41
1116.94
-3362.69
1150.87
1208.8
452.565
664.944
325.419
878.213
175.67
1119.93
36.8871
1196.35
-46.9252
1024.13
-76.5033
553.426
-81.7727
-401.756
-72.5835
-873.377
-52.7031
-1241.42
-21.7958
-1591.06
23.0362
-1953.61
84.2171
-2324.01
162.336
-2680.82
256.229
-2997.38
363.964
-3260.5
483.481
-3471.85
612.682
-3640.62
749.627
-3780.37
892.527
-3905.78
1038.41
-4014.8
1186.04
-4116.11
1336.92
-4224.73
1492.01
-4336.72
1651.29
-4441.89
1814.27
-4530.44
1978.67
-4585.92
2142.6
-4604.8
2305.24
-4590.62
2464.93
-4539.17
2619.11
-4446.56
2762.13
-4294.67
2889.9
-4091.27
3001.22
-3846.3
3095.36
-3539.84
3174.87
-3125.05
3255.99
-2521.95
3352.89
-1392.04
3394.78
810.285
3378.66
2616.44
3339.23
3466.64
3287.81
3745.39
3225.02
3785.03
3150.42
3740.72
3064.06
3674.92
2966.02
3613.04
2856.13
3565.84
2733.95
3537.55
2598.92
3529.36
2450.31
3541.6
2287.44
3574.53
2109.62
3628.16
1915.18
3706.41
1701.86
3811.43
1465.72
3951.61
1193.9
4128.01
847.686
4412.93
439.601
4840.62
77.2519
5303.73
-129.439
5432.38
-182.872
4788.77
-200.168
4309.22
-138.349
3095.76
137.387
1500.79
276.415
-1369.86
301.431
-2410.25
295.96
-3065.82
272.243
-3585.33
230.594
-4018.7
170.175
-4391.82
102.822
-4691.95
56.057
-4853.36
52.499
-4789.87
88.5541
-4472.02
128.527
-3992.54
111.946
-3514.98
-0.502925
-3094.04
-165.037
-2639.79
-338.288
-2068.76
-602.168
-1177.24
-830.859
287.587
-880.365
1625.53
-845.701
2469.04
-812.18
2951.74
-803.73
3223.21
-830.899
3372.23
-908.689
3461.98
-1053.56
3542.26
-1267.65