/*--------------------------------*- C++ -*----------------------------------*\
| =========                 |                                                 |
| \\      /  F ield         | OpenFOAM: The Open Source CFD Toolbox           |
|  \\    /   O peration     | Version:  4.1                                   |
|   \\  /    A nd           | Web:      www.OpenFOAM.org                      |
|    \\/     M anipulation  |                                                 |
\*---------------------------------------------------------------------------*/
FoamFile
{
    version     2.0;
    format      ascii;
    class       volVectorField;
    location    "600";
    object      U;
}
// * * * * * * * * * * * * * * * * * * * * * * * * * * * * * * * * * * * * * //

dimensions      [0 1 -1 0 0 0 0];

internalField   nonuniform List<vector> 
26785
(
(1.26888e-15 0.0290066 3.96446)
(1.19974e-15 0.0246105 3.38174)
(1.412e-15 0.0142879 2.88376)
(-4.69104e-15 -0.00748409 2.80501)
(-3.67252e-16 -0.0264617 3.2473)
(-1.62765e-15 -0.0318224 3.9007)
(1.27819e-15 -0.0302085 4.52493)
(-3.07095e-16 -0.0276579 5.081)
(5.73448e-15 -0.0280831 5.62643)
(-3.5523e-16 -0.0315042 6.22495)
(1.14614e-15 -0.0374151 6.91086)
(4.29823e-16 -0.0449139 7.6968)
(5.67554e-16 -0.0530046 8.58059)
(5.94227e-16 -0.0607909 9.54997)
(6.5051e-16 -0.0676988 10.5872)
(8.0421e-16 -0.0735033 11.6731)
(1.06578e-15 -0.0782419 12.7909)
(1.2933e-15 -0.0820862 13.9267)
(1.51796e-15 -0.0852959 15.0711)
(1.00631e-15 -0.0880365 16.2179)
(1.57869e-15 -0.0904803 17.363)
(1.47075e-15 -0.09278 18.5042)
(7.89005e-16 -0.0949491 19.6407)
(1.26813e-15 -0.0969005 20.7709)
(1.62384e-15 -0.0984916 21.892)
(2.2759e-15 -0.0994905 22.9993)
(2.36147e-15 -0.0996477 24.0855)
(2.38609e-15 -0.0987343 25.1414)
(2.77756e-15 -0.0965708 26.1565)
(3.71071e-15 -0.0929794 27.1193)
(4.55254e-15 -0.0872202 28.0153)
(3.7718e-15 -0.0774386 28.8239)
(4.20396e-15 -0.0603263 29.5022)
(4.24979e-15 -0.0320916 29.9635)
(6.95035e-15 0.00688225 30.094)
(7.96985e-15 0.0515679 29.7988)
(7.70375e-15 0.0968387 29.0337)
(7.65387e-15 0.133246 27.8533)
(7.7566e-15 0.154122 26.4128)
(8.25887e-15 0.161704 24.8791)
(7.24022e-15 0.161346 23.3596)
(7.68219e-15 0.157147 21.9039)
(7.58266e-15 0.151446 20.5288)
(8.77318e-15 0.14539 19.2357)
(8.85505e-15 0.139462 18.0202)
(9.66275e-15 0.13382 16.8762)
(9.48977e-15 0.128478 15.7977)
(9.19804e-15 0.123397 14.7793)
(8.74429e-15 0.118523 13.8168)
(8.07644e-15 0.113806 12.9066)
(7.89688e-15 0.109203 12.0456)
(8.26743e-15 0.104678 11.2314)
(7.85522e-15 0.100209 10.462)
(7.71985e-15 0.095775 9.73533)
(7.47039e-15 0.0913823 9.0498)
(7.47795e-15 0.0870655 8.4038)
(5.85501e-15 0.0829744 7.7944)
(4.5569e-15 0.0791706 7.21913)
(4.62089e-15 0.0756106 6.67613)
(4.67605e-16 0.0730086 6.15645)
(-2.20739e-15 0.0712837 5.65579)
(-3.02517e-15 0.0653331 5.18796)
(-3.32744e-15 0.0498591 4.76304)
(-7.32607e-15 0.00885146 4.49227)
(-8.07773e-15 -0.0466296 4.63145)
(-7.39361e-15 -0.094053 5.25189)
(-7.40338e-15 -0.134939 6.19702)
(-7.349e-15 -0.164092 7.30751)
(-7.82843e-15 -0.178924 8.47096)
(-8.2542e-15 -0.181824 9.61631)
(-9.15092e-15 -0.177295 10.7043)
(-9.74821e-15 -0.170121 11.7215)
(-9.53064e-15 -0.164024 12.6766)
(-9.15001e-15 -0.159802 13.5888)
(-8.45997e-15 -0.154388 14.4685)
(-8.34312e-15 -0.141746 15.3003)
(-7.53466e-15 -0.11409 16.0285)
(-6.89141e-15 -0.0667441 16.5572)
(-6.35417e-15 -0.00421296 16.7818)
(-5.94437e-15 0.0640779 16.6201)
(-5.84166e-15 0.123481 16.0658)
(-4.95482e-15 0.160462 15.2255)
(-4.72341e-15 0.174827 14.2542)
(-4.60958e-15 0.173805 13.2716)
(-3.86876e-15 0.164299 12.343)
(-3.86485e-15 0.150636 11.4976)
(-3.52194e-15 0.134805 10.7466)
(-3.01597e-15 0.117209 10.096)
(-2.72277e-15 0.0975897 9.5516)
(-2.29463e-15 0.0760022 9.12019)
(-1.64439e-15 0.0534762 8.80519)
(-1.11999e-15 0.0316859 8.60222)
(-6.32482e-16 0.0118174 8.49885)
(-1.79526e-16 -0.0064269 8.48251)
(3.85297e-16 -0.0233803 8.54427)
(6.78851e-16 -0.0389662 8.68099)
(1.00808e-15 -0.0510094 8.8781)
(1.18931e-15 -0.0535052 9.13203)
(1.38742e-15 -0.0547031 9.32695)
(1.68172e-15 -0.0470435 9.66305)
(1.58464e-15 0.0765982 4.02177)
(-3.90585e-15 0.07053 3.47199)
(-1.90099e-16 0.0427242 3.01786)
(-9.64408e-16 -0.0290783 3.08427)
(4.14629e-15 -0.0868998 3.65674)
(1.12599e-15 -0.0999737 4.34991)
(9.24669e-15 -0.0953464 4.98037)
(3.537e-15 -0.092641 5.56926)
(2.40828e-15 -0.101061 6.19538)
(4.03358e-15 -0.117569 6.91053)
(3.29873e-15 -0.138409 7.72318)
(2.96558e-15 -0.160425 8.62265)
(2.89903e-15 -0.181517 9.59368)
(3.22614e-15 -0.200303 10.6207)
(8.35319e-16 -0.216118 11.6883)
(2.26689e-15 -0.228897 12.7822)
(4.02797e-15 -0.238992 13.8899)
(2.57186e-15 -0.246936 15.0017)
(2.38423e-15 -0.253413 16.1105)
(2.93781e-15 -0.258818 17.212)
(2.39246e-15 -0.263558 18.3032)
(3.67986e-15 -0.267997 19.3827)
(2.5124e-15 -0.27212 20.4499)
(2.8753e-15 -0.275652 21.5039)
(2.17698e-15 -0.278185 22.5424)
(2.22903e-15 -0.2791 23.5616)
(2.20321e-15 -0.277761 24.5561)
(1.98379e-15 -0.273586 25.5189)
(1.54027e-15 -0.266061 26.4421)
(2.23874e-15 -0.254689 27.3167)
(1.83497e-15 -0.237852 28.1315)
(1.46116e-15 -0.211544 28.8737)
(1.43984e-15 -0.166819 29.5197)
(1.04752e-15 -0.089097 30.0068)
(1.61119e-15 0.0275943 30.2192)
(2.6744e-15 0.170695 30.0011)
(3.47074e-15 0.317685 29.2514)
(4.29784e-15 0.432697 28.0265)
(5.04129e-15 0.494615 26.5104)
(5.67139e-15 0.51264 24.8977)
(6.43245e-15 0.505462 23.3101)
(5.45476e-15 0.486943 21.802)
(6.07941e-15 0.464762 20.39)
(5.02009e-15 0.442507 19.0737)
(5.6806e-15 0.421552 17.8463)
(5.97855e-15 0.402227 16.6991)
(6.95301e-15 0.384424 15.6241)
(6.89543e-15 0.367897 14.6144)
(6.94591e-15 0.352379 13.664)
(6.48605e-15 0.337646 12.7682)
(6.76292e-15 0.323522 11.9228)
(5.96842e-15 0.30987 11.1244)
(6.25612e-15 0.296616 10.3698)
(4.80098e-15 0.283689 9.6561)
(4.95852e-15 0.271119 8.98066)
(6.01117e-15 0.259007 8.34083)
(4.50246e-15 0.247671 7.73315)
(2.36791e-15 0.237287 7.15511)
(3.68693e-15 0.228253 6.60309)
(3.66502e-15 0.221858 6.0668)
(3.24705e-15 0.215044 5.55123)
(-1.79667e-15 0.196966 5.07685)
(-4.91727e-15 0.161992 4.61182)
(-2.69391e-15 0.0380411 4.25814)
(-2.54819e-15 -0.187391 4.46575)
(-2.65002e-15 -0.383973 5.27719)
(-1.91394e-15 -0.5048 6.34754)
(-8.49291e-16 -0.556446 7.47034)
(-2.35773e-15 -0.563223 8.5722)
(-2.90413e-15 -0.544987 9.62426)
(-2.54283e-15 -0.515407 10.6104)
(-2.79935e-15 -0.485424 11.5258)
(-3.06111e-15 -0.463176 12.3816)
(-2.78378e-15 -0.44923 13.1996)
(-3.44355e-15 -0.434113 13.9948)
(-2.7436e-15 -0.401834 14.7607)
(-2.6788e-15 -0.331474 15.4604)
(-2.75384e-15 -0.20417 16.0241)
(-1.18249e-15 -0.0213603 16.3506)
(-7.22601e-16 0.193457 16.3028)
(-6.61747e-16 0.384521 15.8211)
(-1.36883e-16 0.501119 15.0089)
(-2.86312e-16 0.542428 14.0436)
(-1.2114e-15 0.533764 13.0632)
(-1.27275e-15 0.498762 12.1417)
(-1.06856e-15 0.451725 11.3106)
(-9.2488e-16 0.399011 10.5808)
(-1.015e-15 0.342147 9.95575)
(-7.57613e-16 0.28096 9.43645)
(-2.6148e-16 0.216269 9.02316)
(1.57931e-16 0.151303 8.71362)
(3.42195e-16 0.0905122 8.50149)
(8.06055e-16 0.0364504 8.37647)
(1.6822e-18 -0.01268 8.33011)
(-2.86694e-16 -0.0587435 8.35805)
(2.40136e-17 -0.102205 8.46071)
(-2.36645e-16 -0.136533 8.626)
(-2.9283e-16 -0.143321 8.84958)
(-2.66251e-16 -0.145857 9.01546)
(7.14841e-17 -0.12683 9.30611)
(1.39724e-15 0.123052 4.10415)
(3.88888e-15 0.111299 3.61422)
(1.00346e-15 0.0571181 3.29256)
(1.32715e-15 -0.0662917 3.51799)
(4.77144e-15 -0.151572 4.07884)
(6.55432e-16 -0.165617 4.6636)
(1.05238e-14 -0.158323 5.19428)
(6.40964e-15 -0.159078 5.72556)
(5.73637e-15 -0.178208 6.32573)
(5.11093e-15 -0.207842 7.01971)
(4.5034e-15 -0.241378 7.79535)
(3.88461e-15 -0.274837 8.63597)
(3.42305e-15 -0.306223 9.53041)
(3.45114e-15 -0.33418 10.4703)
(3.92899e-15 -0.357942 11.4467)
(2.53421e-15 -0.377375 12.449)
(3.65856e-15 -0.39289 13.467)
(1.95833e-15 -0.405185 14.4916)
(2.72615e-15 -0.415239 15.5161)
(1.45427e-15 -0.423589 16.5357)
(2.27491e-15 -0.43084 17.5472)
(3.18132e-15 -0.437559 18.5488)
(1.98905e-15 -0.44373 19.5399)
(1.62638e-15 -0.448945 20.5196)
(1.88327e-15 -0.452625 21.4858)
(1.76715e-15 -0.453867 22.4358)
(2.01027e-15 -0.451765 23.365)
(1.84857e-15 -0.445483 24.2677)
(1.52662e-15 -0.434235 25.1377)
(1.23514e-15 -0.417331 25.9678)
(1.1222e-15 -0.392762 26.7491)
(-3.76409e-16 -0.355835 27.4734)
(9.70793e-17 -0.294201 28.1294)
(2.03661e-15 -0.1818 28.6803)
(2.38674e-15 0.00157345 29.0423)
(2.62515e-15 0.244961 29.0644)
(3.02331e-15 0.507832 28.5615)
(3.564e-15 0.717376 27.5145)
(4.1874e-15 0.831017 26.1003)
(4.71996e-15 0.864552 24.5389)
(5.24166e-15 0.852016 22.9765)
(5.61892e-15 0.818796 21.4823)
(5.94925e-15 0.77897 20.0813)
(6.0692e-15 0.739119 18.7769)
(6.09248e-15 0.701786 17.564)
(6.08537e-15 0.667598 16.4345)
(6.10241e-15 0.636382 15.3799)
(6.14805e-15 0.607696 14.3927)
(6.07771e-15 0.58107 13.4663)
(6.02417e-15 0.55611 12.5948)
(5.84369e-15 0.532517 11.7732)
(5.61489e-15 0.510077 10.997)
(5.43047e-15 0.48867 10.2617)
(4.83296e-15 0.468194 9.56328)
(4.72108e-15 0.448715 8.89776)
(3.53181e-15 0.430296 8.2614)
(2.19449e-15 0.413266 7.65058)
(2.66605e-15 0.398284 7.06203)
(1.67047e-15 0.386096 6.48936)
(3.17132e-15 0.375878 5.92657)
(4.14104e-15 0.363396 5.38875)
(2.54144e-15 0.341038 4.87853)
(1.71462e-15 0.294255 4.33572)
(2.16847e-15 0.0602086 3.92743)
(-2.45602e-15 -0.367753 4.18509)
(-2.87486e-15 -0.678502 4.9599)
(8.91314e-16 -0.827564 5.86443)
(2.10454e-15 -0.87795 6.79137)
(2.55253e-15 -0.878532 7.72573)
(3.16965e-15 -0.850958 8.64659)
(3.83027e-15 -0.80807 9.52676)
(4.34279e-15 -0.763905 10.3492)
(4.50731e-15 -0.73195 11.1187)
(4.85708e-15 -0.714775 11.8576)
(4.67106e-15 -0.698461 12.5847)
(4.07887e-15 -0.659493 13.2989)
(3.33859e-15 -0.567647 13.9729)
(2.1604e-15 -0.389962 14.5586)
(6.60712e-16 -0.112936 15.0004)
(-4.31581e-16 0.245391 15.1763)
(-7.32117e-16 0.586611 14.9278)
(-6.30425e-16 0.802812 14.29)
(3.46132e-16 0.883857 13.4437)
(2.77264e-16 0.873885 12.5477)
(1.36239e-16 0.816009 11.6912)
(1.01626e-17 0.736679 10.9134)
(-9.62032e-17 0.648294 10.2277)
(-2.38028e-16 0.554975 9.63491)
(-2.9108e-16 0.457619 9.13109)
(-5.4901e-16 0.357521 8.7109)
(-9.6738e-16 0.258225 8.37036)
(-1.13835e-15 0.16443 8.10817)
(-1.83617e-15 0.0784982 7.9245)
(-2.42218e-15 -0.00270386 7.82211)
(-2.28859e-15 -0.0812043 7.80495)
(-1.76611e-15 -0.156833 7.87729)
(-1.83136e-15 -0.216997 8.02751)
(-1.84025e-15 -0.227701 8.24413)
(-1.1895e-15 -0.229991 8.39606)
(1.05919e-16 -0.201483 8.67126)
(9.01481e-16 0.164733 4.23245)
(5.02476e-15 0.143715 3.82635)
(7.38142e-15 0.061617 3.62319)
(6.73054e-15 -0.10022 3.82133)
(5.25663e-15 -0.200879 4.17276)
(7.63108e-15 -0.215184 4.53816)
(5.45605e-15 -0.210448 4.9239)
(3.25052e-15 -0.220127 5.37607)
(3.72862e-15 -0.252862 5.92194)
(3.28656e-15 -0.295673 6.5518)
(2.75133e-15 -0.340671 7.24318)
(2.68097e-15 -0.384502 7.98656)
(2.91849e-15 -0.425807 8.78159)
(4.95647e-15 -0.46316 9.62747)
(4.82718e-15 -0.495416 10.5183)
(4.22458e-15 -0.522131 11.444)
(3.3118e-15 -0.543642 12.393)
(3.68771e-15 -0.560759 13.3547)
(2.42276e-15 -0.574751 14.3211)
(2.7499e-15 -0.586315 15.2866)
(2.25041e-15 -0.596278 16.2471)
(1.69024e-15 -0.605451 17.2007)
(1.57264e-15 -0.613848 18.1466)
(1.46512e-15 -0.620957 19.0838)
(1.18103e-15 -0.62605 20.0105)
(8.43175e-16 -0.62796 20.9237)
(7.18177e-16 -0.62554 21.8188)
(4.12938e-16 -0.61775 22.6905)
(6.87149e-17 -0.603584 23.5326)
(7.03908e-17 -0.5822 24.3386)
(-1.01261e-15 -0.551323 25.1)
(-1.42624e-15 -0.506178 25.8097)
(-1.47316e-15 -0.433431 26.463)
(-2.27196e-15 -0.299844 27.0411)
(-4.81951e-16 -0.0707608 27.4932)
(-3.85528e-15 0.255189 27.6992)
(-1.25493e-15 0.635128 27.4331)
(9.5082e-16 0.95341 26.5967)
(6.11471e-17 1.13366 25.3385)
(2.38646e-15 1.19344 23.8895)
(3.63759e-15 1.18225 22.4105)
(3.25332e-15 1.1382 20.9813)
(3.39048e-15 1.08281 19.6337)
(4.90131e-15 1.0264 18.3758)
(5.45051e-15 0.973143 17.2048)
(5.71446e-15 0.924264 16.1142)
(5.38972e-15 0.879709 15.0966)
(5.09489e-15 0.838968 14.1444)
(5.19234e-15 0.801445 13.2511)
(4.86519e-15 0.766645 12.4103)
(4.94623e-15 0.734202 11.6164)
(4.39421e-15 0.703872 10.8639)
(4.06317e-15 0.675515 10.1476)
(5.24328e-15 0.649031 9.46225)
(5.46102e-15 0.624496 8.80281)
(5.39342e-15 0.601756 8.16497)
(3.00833e-15 0.5812 7.54525)
(3.8232e-15 0.564387 6.93834)
(2.78865e-15 0.551063 6.33699)
(2.30679e-15 0.536922 5.74486)
(3.32006e-15 0.522788 5.17393)
(5.74453e-15 0.504516 4.6003)
(6.12327e-15 0.444515 3.9824)
(3.14323e-15 0.0919073 3.49534)
(-2.23141e-16 -0.521751 3.65786)
(-1.02727e-15 -0.914554 4.2728)
(8.05089e-16 -1.09169 5.00604)
(1.50432e-15 -1.16092 5.8089)
(3.47375e-15 -1.1731 6.66138)
(5.52352e-15 -1.14468 7.52126)
(8.00248e-15 -1.09003 8.34676)
(1.03482e-14 -1.03026 9.11399)
(1.16556e-14 -0.987306 9.82703)
(1.28036e-14 -0.967152 10.5113)
(1.39353e-14 -0.950985 11.1878)
(1.29355e-14 -0.907311 11.855)
(1.19138e-14 -0.800165 12.485)
(9.28583e-15 -0.592303 13.0364)
(7.8238e-15 -0.259736 13.491)
(5.05097e-15 0.208226 13.7884)
(2.08738e-15 0.700308 13.7324)
(5.61638e-17 1.03368 13.2749)
(-8.67848e-16 1.17163 12.5744)
(-3.97276e-16 1.17275 11.7944)
(-6.15746e-16 1.10068 11.0296)
(-8.10766e-16 0.996004 10.3225)
(-1.29037e-15 0.878874 9.68725)
(-1.30487e-15 0.757149 9.12388)
(-1.38774e-15 0.632996 8.62702)
(-2.28773e-15 0.507199 8.19143)
(-2.59775e-15 0.381675 7.81576)
(-3.16905e-15 0.259379 7.50445)
(-4.02014e-15 0.141613 7.26602)
(-4.32284e-15 0.0242231 7.11166)
(-4.26138e-15 -0.0933527 7.0537)
(-3.07914e-15 -0.209385 7.10441)
(-2.40016e-15 -0.301803 7.25394)
(-7.65939e-16 -0.313269 7.48046)
(1.01628e-15 -0.316695 7.63446)
(2.29583e-15 -0.276509 7.9336)
(8.44942e-16 0.200219 4.41441)
(5.64235e-15 0.168709 4.09716)
(2.31509e-15 0.0673854 3.93841)
(3.41862e-15 -0.115487 3.94944)
(6.09753e-15 -0.227104 4.00858)
(1.19707e-15 -0.249491 4.16025)
(6.88378e-15 -0.256797 4.43224)
(5.38519e-15 -0.280013 4.80401)
(4.51684e-15 -0.325704 5.24922)
(3.09819e-15 -0.378984 5.7522)
(2.02209e-15 -0.433648 6.31068)
(5.80592e-15 -0.487794 6.93471)
(4.60237e-15 -0.5402 7.63256)
(6.61113e-15 -0.58859 8.40318)
(5.82746e-15 -0.630896 9.23602)
(3.85201e-15 -0.666128 10.1154)
(3.71033e-15 -0.694512 11.0253)
(3.32865e-15 -0.717036 11.9522)
(3.14052e-15 -0.735369 12.8864)
(2.88396e-15 -0.750435 13.8219)
(2.71418e-15 -0.763347 14.7544)
(2.75614e-15 -0.775205 15.6822)
(1.75022e-15 -0.786061 16.6048)
(1.47645e-15 -0.795286 17.5211)
(1.23581e-15 -0.801992 18.4291)
(8.87027e-16 -0.80472 19.3253)
(1.13438e-15 -0.802092 20.2046)
(9.30387e-16 -0.792905 21.0613)
(4.79404e-16 -0.775956 21.8892)
(8.5169e-16 -0.750262 22.6819)
(1.21835e-15 -0.713363 23.4309)
(1.74055e-15 -0.660831 24.129)
(2.33611e-15 -0.579608 24.775)
(9.10887e-16 -0.431784 25.3611)
(2.06699e-15 -0.16957 25.8619)
(4.30772e-16 0.223049 26.1973)
(-1.25176e-15 0.714503 26.132)
(-1.53115e-15 1.1469 25.491)
(-1.22916e-15 1.40133 24.3902)
(-3.18114e-16 1.49353 23.0681)
(8.47527e-16 1.48836 21.6952)
(1.39931e-15 1.43704 20.3564)
(2.91302e-15 1.36883 19.0868)
(3.55189e-15 1.29796 17.8969)
(3.89652e-15 1.23041 16.7861)
(4.11016e-15 1.16814 15.7492)
(4.17244e-15 1.11135 14.7797)
(4.04012e-15 1.05955 13.8707)
(3.97503e-15 1.01212 13.0157)
(3.98146e-15 0.968534 12.2084)
(3.80758e-15 0.928435 11.4429)
(3.37782e-15 0.891596 10.7131)
(2.94137e-15 0.857885 10.0132)
(3.22627e-15 0.827241 9.33726)
(3.14016e-15 0.799665 8.67959)
(4.91756e-15 0.774663 8.03598)
(5.54432e-15 0.752983 7.40276)
(6.02106e-15 0.737033 6.7718)
(3.45311e-15 0.723712 6.13916)
(1.58161e-15 0.70659 5.51738)
(-1.38387e-15 0.697248 4.89894)
(3.77396e-15 0.688117 4.24647)
(5.88362e-15 0.619139 3.55606)
(1.18022e-15 0.162365 2.94588)
(-1.97496e-15 -0.63774 3.00678)
(-4.58944e-15 -1.11343 3.52673)
(-9.45156e-16 -1.32949 4.17414)
(1.63728e-15 -1.42671 4.91789)
(5.32188e-15 -1.45342 5.72569)
(8.14733e-15 -1.42387 6.54607)
(1.17002e-14 -1.35654 7.33225)
(1.51539e-14 -1.28056 8.05564)
(1.7556e-14 -1.22689 8.71758)
(1.9241e-14 -1.20502 9.34547)
(1.98577e-14 -1.19025 9.9655)
(1.85762e-14 -1.14178 10.5812)
(1.7051e-14 -1.01827 11.1644)
(1.29065e-14 -0.783465 11.666)
(1.13943e-14 -0.413308 12.0792)
(7.54485e-15 0.129742 12.4007)
(4.08547e-15 0.755368 12.454)
(2.71439e-15 1.20602 12.1287)
(5.9666e-16 1.40732 11.5547)
(2.56728e-16 1.42749 10.8869)
(4.28325e-17 1.34952 10.2151)
(-8.81958e-16 1.22797 9.57963)
(-1.44823e-15 1.09069 8.9938)
(-1.91807e-15 0.949025 8.45838)
(-2.45266e-15 0.805971 7.9698)
(-2.80607e-15 0.661318 7.52553)
(-3.169e-15 0.515021 7.12723)
(-3.38308e-15 0.367874 6.78265)
(-4.66625e-15 0.219605 6.50483)
(-4.83603e-15 0.0641728 6.31132)
(-4.3513e-15 -0.0974663 6.22193)
(-3.30653e-15 -0.263275 6.25544)
(-6.39334e-16 -0.394787 6.41357)
(1.82181e-15 -0.405051 6.67349)
(3.3498e-15 -0.420073 6.87561)
(3.05445e-15 -0.363885 7.18719)
(1.26322e-15 0.233882 4.70488)
(-1.17866e-16 0.195157 4.44028)
(7.72545e-16 0.0882123 4.21589)
(7.62457e-15 -0.104332 3.95845)
(6.31085e-15 -0.230908 3.73535)
(5.11367e-15 -0.271303 3.69848)
(6.80691e-15 -0.29538 3.82869)
(7.59863e-15 -0.330238 4.04188)
(4.14517e-15 -0.38615 4.3168)
(-1.77679e-16 -0.4501 4.67364)
(4.29567e-15 -0.517376 5.1291)
(7.55504e-15 -0.585652 5.69132)
(6.98999e-15 -0.652414 6.35686)
(6.35251e-15 -0.71398 7.11188)
(5.57645e-15 -0.767403 7.93563)
(4.93912e-15 -0.811452 8.80591)
(4.44664e-15 -0.846594 9.70358)
(2.44002e-15 -0.874276 10.6142)
(3.61541e-15 -0.896753 11.529)
(3.78716e-15 -0.915243 12.4431)
(3.78172e-15 -0.931169 13.3536)
(3.12047e-15 -0.945911 14.2596)
(2.78944e-15 -0.9595 15.1615)
(2.11178e-15 -0.971123 16.0583)
(2.29443e-15 -0.979676 16.9476)
(2.38711e-15 -0.98337 17.8256)
(2.0918e-15 -0.98061 18.6865)
(2.32698e-15 -0.97009 19.5241)
(2.1349e-15 -0.950447 20.3327)
(2.99957e-15 -0.920547 21.1062)
(3.13274e-15 -0.877726 21.836)
(4.1635e-15 -0.818042 22.5147)
(4.04239e-15 -0.729757 23.1428)
(3.72809e-15 -0.573383 23.7193)
(3.21637e-15 -0.289968 24.237)
(1.70865e-15 0.153556 24.6575)
(-4.95624e-16 0.747776 24.7643)
(-2.27043e-15 1.29855 24.3028)
(-2.52831e-15 1.63348 23.3506)
(-2.25272e-15 1.76273 22.1543)
(-4.45242e-16 1.7671 20.8932)
(1.40378e-15 1.71155 19.6544)
(1.60194e-15 1.63322 18.4739)
(3.44978e-15 1.55029 17.3629)
(3.34824e-15 1.47054 16.3216)
(3.19474e-15 1.39674 15.3459)
(2.99193e-15 1.32937 14.43)
(2.82288e-15 1.26806 13.5675)
(2.72253e-15 1.21221 12.7525)
(2.60644e-15 1.16136 11.9786)
(2.53312e-15 1.11518 11.2398)
(2.26423e-15 1.07351 10.5301)
(1.8637e-15 1.03625 9.84328)
(1.53602e-15 1.0034 9.17317)
(1.23611e-15 0.974771 8.51379)
(2.01541e-15 0.949554 7.86154)
(3.57664e-15 0.929267 7.21168)
(5.60504e-15 0.916338 6.55392)
(2.76046e-15 0.903747 5.89146)
(3.48441e-16 0.886723 5.23803)
(-2.37254e-15 0.890179 4.55643)
(3.45213e-15 0.893914 3.81683)
(2.37875e-15 0.823125 3.0496)
(-1.79553e-17 0.265879 2.33412)
(-3.64158e-15 -0.742499 2.39989)
(-4.5307e-18 -1.29645 2.88821)
(-2.0994e-16 -1.55229 3.48122)
(5.39462e-16 -1.68027 4.177)
(5.35565e-15 -1.72352 4.94426)
(9.56159e-15 -1.69387 5.73181)
(1.45096e-14 -1.6128 6.488)
(1.83952e-14 -1.51709 7.17359)
(2.07847e-14 -1.44831 7.77992)
(2.21694e-14 -1.42238 8.33375)
(2.05731e-14 -1.41036 8.8724)
(1.96812e-14 -1.36063 9.41706)
(1.76186e-14 -1.22297 9.94964)
(1.42217e-14 -0.961625 10.4106)
(1.06954e-14 -0.561165 10.7816)
(8.45307e-15 0.0332079 11.088)
(6.47823e-15 0.774079 11.1881)
(3.3804e-15 1.33443 10.9422)
(1.09926e-15 1.59847 10.4625)
(-1.3643e-15 1.64156 9.88992)
(-7.32622e-16 1.56421 9.30238)
(-7.62739e-16 1.43346 8.7336)
(-1.60345e-15 1.28381 8.19527)
(-2.18803e-15 1.12942 7.68926)
(-2.7601e-15 0.973743 7.2145)
(-3.27407e-15 0.81558 6.77114)
(-3.2661e-15 0.653003 6.36266)
(-3.12908e-15 0.484476 5.99837)
(-4.32828e-15 0.307407 5.6932)
(-4.72787e-15 0.112481 5.47205)
(-3.03337e-15 -0.0960506 5.36025)
(-3.21871e-16 -0.320131 5.37361)
(1.80938e-15 -0.504801 5.57513)
(3.30288e-15 -0.5237 5.91282)
(3.49165e-15 -0.542127 6.17748)
(1.09952e-15 -0.448478 6.30844)
(1.27816e-15 0.259324 4.94385)
(4.9118e-16 0.223047 4.6978)
(7.46571e-15 0.124808 4.39023)
(1.04955e-14 -0.0691892 3.9139)
(6.75334e-15 -0.213548 3.44786)
(2.62721e-15 -0.27618 3.18406)
(5.702e-15 -0.317323 3.09583)
(4.94008e-15 -0.364161 3.12207)
(6.72354e-16 -0.434621 3.28169)
(1.70117e-15 -0.515163 3.59592)
(8.68135e-15 -0.599645 4.05338)
(7.55784e-15 -0.684394 4.63622)
(6.68443e-15 -0.766032 5.32519)
(5.72442e-15 -0.840151 6.09813)
(4.77573e-15 -0.903499 6.93032)
(3.33229e-15 -0.955024 7.79836)
(3.84519e-15 -0.995703 8.68378)
(4.2636e-15 -1.02761 9.57393)
(3.55326e-15 -1.05365 10.4622)
(4.15716e-15 -1.0753 11.3461)
(2.83595e-15 -1.09423 12.2242)
(3.67542e-15 -1.11205 13.0971)
(3.896e-15 -1.12868 13.9658)
(3.39416e-15 -1.14301 14.8298)
(3.60667e-15 -1.15369 15.6865)
(3.13776e-15 -1.15854 16.5315)
(3.12048e-15 -1.15581 17.359)
(3.23868e-15 -1.14413 18.1625)
(2.50982e-15 -1.12204 18.9366)
(2.72168e-15 -1.08824 19.676)
(2.64487e-15 -1.0398 20.3724)
(2.25468e-15 -0.973331 21.018)
(2.11146e-15 -0.878729 21.6144)
(2.05458e-15 -0.716989 22.1643)
(2.27448e-15 -0.42144 22.6712)
(6.31471e-16 0.0589338 23.1356)
(3.63523e-16 0.742402 23.3812)
(-7.41496e-16 1.41283 23.0828)
(-1.83663e-15 1.83263 22.2695)
(-2.69898e-15 2.00196 21.194)
(-1.15519e-15 2.01818 20.0437)
(-7.00823e-16 1.96067 18.907)
(1.13833e-15 1.87459 17.8189)
(1.38981e-15 1.78195 16.7903)
(1.66085e-15 1.69225 15.8217)
(1.69383e-15 1.60901 14.9094)
(1.66962e-15 1.53303 14.0483)
(1.12328e-15 1.46408 13.2324)
(1.1831e-15 1.40163 12.4561)
(1.20548e-15 1.34527 11.7135)
(2.03179e-15 1.29477 10.9988)
(2.97173e-15 1.25005 10.3059)
(3.33406e-15 1.21108 9.62883)
(2.81077e-15 1.17791 8.96143)
(1.94224e-15 1.15005 8.29799)
(1.15748e-15 1.12662 7.6354)
(1.22447e-15 1.1101 6.96698)
(5.97028e-15 1.10169 6.28253)
(3.70895e-15 1.09101 5.59352)
(-1.47208e-16 1.07986 4.90258)
(-3.1917e-15 1.10433 4.1422)
(-2.10335e-15 1.12168 3.3119)
(-3.72685e-15 1.05004 2.47304)
(-2.26657e-15 0.369703 1.73558)
(-2.66724e-15 -0.857136 1.91364)
(5.54415e-16 -1.46693 2.37465)
(-2.07623e-15 -1.75856 2.90783)
(-9.16375e-16 -1.91896 3.54635)
(4.63613e-15 -1.98183 4.26551)
(9.60742e-15 -1.95455 5.01855)
(1.46565e-14 -1.85897 5.74932)
(1.80336e-14 -1.73815 6.40501)
(1.98256e-14 -1.64616 6.96076)
(2.0914e-14 -1.61026 7.43638)
(2.07115e-14 -1.60158 7.87847)
(2.07526e-14 -1.55774 8.33165)
(2.00457e-14 -1.41449 8.79886)
(1.8535e-14 -1.13103 9.21655)
(1.38917e-14 -0.702406 9.55155)
(9.10172e-15 -0.0683761 9.83881)
(5.35027e-15 0.775304 9.958)
(3.33434e-15 1.43472 9.75498)
(1.21739e-15 1.75516 9.34146)
(-1.56407e-15 1.82079 8.84709)
(-1.67233e-15 1.74799 8.33391)
(-1.7429e-15 1.61399 7.82672)
(-1.92856e-15 1.45826 7.33456)
(-2.28881e-15 1.29687 6.86007)
(-2.56536e-15 1.13353 6.40417)
(-2.88547e-15 0.966224 5.96885)
(-2.48295e-15 0.791434 5.55825)
(-2.22893e-15 0.605365 5.18226)
(-2.78222e-15 0.401712 4.85566)
(-3.34921e-15 0.166056 4.61556)
(-3.81269e-15 -0.0887465 4.47958)
(-4.29101e-16 -0.38873 4.49036)
(2.54188e-15 -0.6565 4.79664)
(2.40954e-15 -0.670116 5.17592)
(-1.61619e-17 -0.611121 5.36243)
(-3.58263e-15 -0.451742 5.08059)
(4.56421e-15 0.285408 5.13495)
(2.36484e-15 0.253806 4.87371)
(3.94256e-15 0.171636 4.50399)
(4.97257e-15 -0.0138513 3.88041)
(4.59443e-15 -0.171855 3.17542)
(4.92623e-15 -0.256974 2.61254)
(6.93139e-15 -0.320541 2.30277)
(3.78188e-15 -0.388496 2.24998)
(5.34748e-15 -0.481681 2.43121)
(5.48291e-15 -0.582257 2.7983)
(5.98803e-15 -0.68389 3.30208)
(5.56e-15 -0.783701 3.91618)
(4.42435e-15 -0.878568 4.6225)
(3.52011e-15 -0.963656 5.40077)
(2.71496e-15 -1.03546 6.22738)
(4.45969e-15 -1.09316 7.07994)
(3.12332e-15 -1.1383 7.94138)
(3.38768e-15 -1.17362 8.80068)
(3.53635e-15 -1.20271 9.65321)
(4.00908e-15 -1.22724 10.4981)
(4.50991e-15 -1.24911 11.3352)
(4.76814e-15 -1.27011 12.1661)
(4.3902e-15 -1.28996 12.9926)
(4.73177e-15 -1.30722 13.8142)
(4.17303e-15 -1.32022 14.6285)
(3.95816e-15 -1.32638 15.4307)
(3.53294e-15 -1.32378 16.2144)
(2.80784e-15 -1.31113 16.9734)
(2.50085e-15 -1.28686 17.7025)
(2.22057e-15 -1.24953 18.397)
(2.50724e-15 -1.19591 19.0491)
(2.68506e-15 -1.12309 19.6511)
(3.0641e-15 -1.02283 20.2049)
(3.58529e-15 -0.858071 20.7157)
(4.421e-15 -0.557616 21.1921)
(2.64903e-15 -0.055897 21.6636)
(1.37685e-15 0.701695 22.0114)
(-3.40725e-16 1.49198 21.8582)
(-1.4486e-15 2.0005 21.1736)
(-2.60493e-15 2.2123 20.2126)
(-9.47731e-16 2.2421 19.1698)
(-2.51181e-17 2.1845 18.1334)
(1.58737e-15 2.09281 17.1368)
(1.26424e-15 1.99272 16.1901)
(1.06301e-15 1.89535 15.2935)
(8.71405e-16 1.80487 14.4436)
(7.39269e-16 1.7224 13.6356)
(6.03777e-16 1.64782 12.8642)
(1.89199e-16 1.58069 12.1241)
(4.89401e-16 1.52071 11.4098)
(1.09689e-15 1.4677 10.7158)
(2.48749e-15 1.42171 10.0366)
(3.99568e-15 1.38278 9.36653)
(4.4875e-15 1.35099 8.6996)
(4.02029e-15 1.32554 8.03076)
(2.96464e-15 1.30583 7.35686)
(-6.68131e-16 1.29512 6.66897)
(3.94182e-15 1.29206 5.96065)
(5.14857e-15 1.28586 5.24781)
(3.45599e-15 1.28889 4.50742)
(-2.08342e-15 1.34071 3.65272)
(-6.18281e-15 1.36722 2.73714)
(-7.10263e-15 1.26761 1.86392)
(-8.86649e-15 0.420608 1.22537)
(-7.05697e-15 -0.984421 1.55147)
(-4.46684e-15 -1.61956 1.96146)
(-4.56242e-15 -1.94428 2.4252)
(-1.96708e-15 -2.13928 2.99434)
(3.30768e-15 -2.22641 3.65301)
(7.74603e-15 -2.20657 4.36337)
(1.15068e-14 -2.09865 5.06842)
(1.43582e-14 -1.94936 5.70417)
(1.61963e-14 -1.82539 6.22782)
(1.71702e-14 -1.76977 6.64354)
(1.91379e-14 -1.75997 6.99574)
(2.28938e-14 -1.72592 7.34831)
(2.33922e-14 -1.58631 7.73136)
(2.24737e-14 -1.28878 8.08669)
(2.11474e-14 -0.83832 8.37344)
(1.60687e-14 -0.171373 8.6368)
(9.44934e-15 0.767447 8.76193)
(5.46083e-15 1.51659 8.58062)
(1.69591e-15 1.88484 8.21493)
(2.55262e-16 1.97004 7.78644)
(-1.42568e-15 1.90376 7.33997)
(-1.55233e-15 1.77096 6.89026)
(-1.67853e-15 1.61419 6.44313)
(-1.81082e-15 1.45056 6.00148)
(-2.00351e-15 1.28383 5.56755)
(-1.75108e-15 1.11145 5.14426)
(-1.48831e-15 0.928483 4.73554)
(-1.96261e-15 0.729319 4.35058)
(-3.88634e-15 0.50058 4.00435)
(-2.63067e-15 0.225437 3.74919)
(4.46954e-16 -0.0825574 3.58305)
(1.32152e-15 -0.50178 3.65822)
(1.17559e-16 -0.84354 4.00984)
(-2.96763e-15 -0.773565 4.25075)
(-5.57432e-15 -0.55614 4.21997)
(-7.92302e-15 -0.346658 3.57485)
(8.85363e-15 0.313445 5.28352)
(5.30945e-15 0.288401 4.98376)
(7.96506e-15 0.225503 4.56361)
(5.94402e-15 0.0600344 3.86623)
(-1.84761e-15 -0.101758 2.92426)
(3.71172e-15 -0.212366 2.03897)
(8.95178e-15 -0.313896 1.60955)
(3.45064e-15 -0.414875 1.60825)
(3.1557e-15 -0.53311 1.86175)
(5.57665e-15 -0.651302 2.26962)
(2.03424e-15 -0.767583 2.78734)
(2.52307e-15 -0.880955 3.40109)
(1.57715e-15 -0.988188 4.09951)
(1.13675e-15 -1.08356 4.86443)
(1.21254e-15 -1.16312 5.67231)
(1.87473e-15 -1.22626 6.50068)
(2.78718e-15 -1.27516 7.33291)
(2.96563e-15 -1.31329 8.15871)
(3.62201e-15 -1.34498 8.97467)
(5.844e-15 -1.37206 9.78104)
(5.73974e-15 -1.39664 10.5782)
(5.83877e-15 -1.42068 11.3682)
(5.93627e-15 -1.44368 12.1535)
(5.35879e-15 -1.46381 12.9338)
(5.96817e-15 -1.47903 13.7061)
(5.82935e-15 -1.48635 14.4655)
(4.74189e-15 -1.48372 15.2051)
(4.8545e-15 -1.46994 15.9185)
(4.9663e-15 -1.44342 16.6008)
(4.17959e-15 -1.40263 17.2476)
(5.0054e-15 -1.34398 17.8518)
(4.42341e-15 -1.26506 18.4057)
(4.42403e-15 -1.15934 18.9118)
(5.36212e-15 -0.992789 19.3765)
(6.61929e-15 -0.692433 19.8103)
(5.50837e-15 -0.180869 20.263)
(3.50798e-15 0.633157 20.676)
(7.36578e-16 1.53991 20.646)
(-1.24029e-15 2.13932 20.0784)
(-2.49426e-15 2.39517 19.2246)
(-2.62561e-15 2.43983 18.2843)
(-2.29369e-15 2.38375 17.3444)
(-1.93307e-18 2.28843 16.4362)
(1.7154e-16 2.18308 15.5682)
(1.70734e-16 2.08026 14.7407)
(6.91351e-17 1.98475 13.9502)
(-2.47715e-17 1.89791 13.1924)
(-1.12137e-16 1.81976 12.4623)
(-2.20092e-16 1.74991 11.7552)
(-1.36025e-16 1.68816 11.0662)
(6.44075e-18 1.63442 10.3902)
(1.02136e-15 1.58886 9.72223)
(2.5422e-15 1.55159 9.05703)
(4.22621e-15 1.52269 8.38925)
(5.03081e-15 1.50116 7.71446)
(5.04096e-15 1.48706 7.0286)
(2.08167e-16 1.48357 6.32182)
(1.68389e-15 1.48644 5.5947)
(2.77451e-15 1.49005 4.85585)
(8.06934e-16 1.51765 4.04385)
(-4.86748e-15 1.60003 3.08569)
(-8.14426e-15 1.61468 2.10648)
(-8.09012e-15 1.46141 1.26717)
(-1.36886e-14 0.384645 0.872159)
(-6.87081e-15 -1.11285 1.29518)
(-5.27381e-15 -1.75005 1.63565)
(-3.79834e-15 -2.10615 2.02548)
(-2.65431e-15 -2.33669 2.51467)
(2.21061e-15 -2.45282 3.09891)
(5.02015e-15 -2.44726 3.75349)
(7.34861e-15 -2.33261 4.42458)
(9.73742e-15 -2.15588 5.04204)
(1.1874e-14 -1.9941 5.54954)
(1.39393e-14 -1.90787 5.93149)
(2.05907e-14 -1.8875 6.21588)
(2.32029e-14 -1.86112 6.47379)
(2.12092e-14 -1.73047 6.76296)
(2.27867e-14 -1.42622 7.03669)
(2.18791e-14 -0.962211 7.25426)
(1.71526e-14 -0.269704 7.47981)
(1.19118e-14 0.75654 7.59645)
(6.28461e-15 1.58574 7.42323)
(3.32697e-15 1.99201 7.0954)
(7.71504e-16 2.09254 6.72584)
(6.03484e-16 2.03373 6.34099)
(7.72187e-17 1.90564 5.9455)
(-5.48044e-16 1.75205 5.542)
(-9.47669e-16 1.59029 5.13344)
(-1.27196e-15 1.42405 4.72281)
(-1.27372e-15 1.25052 4.31308)
(-8.61293e-16 1.06392 3.90723)
(-1.7469e-15 0.856649 3.51181)
(-3.7061e-15 0.604554 3.1468)
(-4.34979e-15 0.292406 2.86674)
(-5.49222e-15 -0.0940569 2.70108)
(-1.80436e-15 -0.637288 2.85007)
(-3.78853e-15 -0.977861 2.97962)
(-7.09058e-15 -0.792463 2.94675)
(-8.6957e-15 -0.446118 2.82167)
(-9.71081e-15 -0.210629 2.06389)
(2.11995e-15 0.341097 5.38499)
(3.13729e-15 0.323411 5.0306)
(2.53785e-15 0.281624 4.55621)
(3.17698e-15 0.147497 3.8384)
(2.15459e-15 -0.00429807 2.71497)
(2.52408e-15 -0.146932 1.54882)
(-2.03491e-15 -0.306647 1.09849)
(2.8176e-16 -0.445995 1.16938)
(-2.70682e-16 -0.585785 1.44944)
(-8.46991e-16 -0.71885 1.85139)
(3.20261e-16 -0.848984 2.35199)
(5.42209e-16 -0.975962 2.94651)
(-5.19792e-16 -1.09568 3.62554)
(5.48652e-16 -1.20125 4.37026)
(5.9247e-16 -1.28825 5.15582)
(2.21616e-15 -1.35637 5.95899)
(3.7652e-15 -1.40851 6.76314)
(3.91355e-15 -1.44898 7.55838)
(5.226e-15 -1.48288 8.34215)
(6.54405e-15 -1.51216 9.11539)
(6.66512e-15 -1.53911 9.87857)
(6.86629e-15 -1.56594 10.6341)
(7.00413e-15 -1.59184 11.3846)
(7.66104e-15 -1.61455 12.1296)
(7.76731e-15 -1.63168 12.8659)
(7.84392e-15 -1.63975 13.5881)
(8.12379e-15 -1.63662 14.2886)
(7.87205e-15 -1.62127 14.9609)
(7.40768e-15 -1.59212 15.6)
(6.77905e-15 -1.54757 16.202)
(5.9578e-15 -1.48369 16.7602)