/*--------------------------------*- C++ -*----------------------------------*\
| =========                 |                                                 |
| \\      /  F ield         | OpenFOAM: The Open Source CFD Toolbox           |
|  \\    /   O peration     | Version:  4.1                                   |
|   \\  /    A nd           | Web:      www.OpenFOAM.org                      |
|    \\/     M anipulation  |                                                 |
\*---------------------------------------------------------------------------*/
FoamFile
{
    version     2.0;
    format      ascii;
    class       volScalarField;
    location    "200";
    object      epsilon;
}
// * * * * * * * * * * * * * * * * * * * * * * * * * * * * * * * * * * * * * //

dimensions      [0 2 -3 0 0 0 0];

internalField   nonuniform List<scalar> 
6820
(
105.266
143.991
186.347
230.922
275.888
319.404
359.842
395.969
427.03
452.73
473.149
488.639
499.723
507.003
511.103
512.613
512.073
509.952
506.649
502.496
497.761
492.661
487.366
482.007
476.688
471.483
466.451
461.64
457.04
452.887
448.142
448.03
427.233
8.29011
15.8998
22.417
28.6657
35.0301
41.469
47.8018
53.8597
59.5095
64.6574
69.2527
73.2852
76.7767
79.7699
82.3197
84.4856
86.3262
87.8965
89.245
90.4141
91.4387
92.3479
93.1643
93.9056
94.5848
95.2105
95.7878
96.3187
96.7981
97.2345
97.5614
98.002
97.8828
3.96314
5.25662
6.61257
7.86058
8.98667
10.0204
10.9819
11.8771
12.7067
13.471
14.1711
14.8094
15.3892
15.915
16.392
16.8255
17.2211
17.584
17.9193
18.2314
18.5244
18.8018
19.0667
19.3215
19.5684
19.8088
20.0441
20.2749
20.5015
20.7246
20.9417
21.1555
21.3578
3.56001
3.77406
4.11209
4.497
4.88103
5.2447
5.58242
5.89336
6.17816
6.43802
6.67439
6.88884
7.08297
7.2584
7.41675
7.5596
7.68848
7.80485
7.91009
8.00549
8.09226
8.17153
8.24431
8.31156
8.37411
8.43275
8.48816
8.54101
8.59182
8.64122
8.68953
8.73782
8.78544
3.52137
3.52456
3.57972
3.67703
3.80002
3.93476
4.07204
4.2065
4.33517
4.45653
4.56985
4.67489
4.77169
4.86048
4.94159
5.01542
5.08242
5.14304
5.19775
5.24702
5.2913
5.33103
5.36663
5.3985
5.427
5.45249
5.47529
5.49571
5.514
5.53044
5.54525
5.55866
5.57082
3.5192
3.48502
3.46593
3.46519
3.48166
3.51176
3.55133
3.59672
3.64512
3.6945
3.74342
3.79093
3.8364
3.87942
3.91976
3.9573
3.99201
4.02392
4.05309
4.07964
4.10367
4.12533
4.14474
4.16206
4.17742
4.19096
4.20282
4.21313
4.22199
4.22951
4.23581
4.24094
4.245
3.51939
3.47992
3.44464
3.41561
3.39412
3.38041
3.37386
3.37335
3.37762
3.38548
3.39587
3.40793
3.42097
3.43445
3.44797
3.46122
3.47397
3.48607
3.49739
3.50786
3.51745
3.52614
3.53391
3.54079
3.5468
3.55196
3.55631
3.55988
3.5627
3.56481
3.56624
3.56701
3.56716
3.51947
3.47945
3.44133
3.40568
3.37315
3.34425
3.31923
3.29807
3.28054
3.26627
3.25483
3.24577
3.23868
3.23316
3.22888
3.22555
3.22294
3.22085
3.21911
3.21758
3.21618
3.2148
3.21338
3.21188
3.21025
3.20847
3.20651
3.20436
3.20201
3.19944
3.19666
3.19366
3.19043
3.51948
3.47942
3.4409
3.40399
3.36885
3.33566
3.30458
3.27573
3.24916
3.22484
3.20267
3.18253
3.16423
3.14761
3.13248
3.11866
3.106
3.09433
3.08352
3.07345
3.06402
3.05514
3.04672
3.03869
3.03101
3.02361
3.01645
3.00949
3.00271
2.99608
2.98956
2.98313
2.97678
3.51948
3.47942
3.44085
3.40374
3.36808
3.33388
3.30116
3.26995
3.24028
3.21216
3.18557
3.1605
3.13688
3.11467
3.09377
3.07411
3.05561
3.03817
3.02171
3.00615
2.99141
2.97742
2.96412
2.95144
2.93934
2.92775
2.91664
2.90597
2.89568
2.88576
2.87617
2.86689
2.85787
3.51948
3.47941
3.44083
3.40369
3.36795
3.33355
3.30045
3.26863
3.23807
3.20874
3.18062
3.1537
3.12796
3.10335
3.07984
3.0574
3.03597
3.01552
2.99599
2.97733
2.95951
2.94246
2.92614
2.91051
2.89554
2.88116
2.86736
2.8541
2.84133
2.82904
2.81718
2.80574
2.79467
3.51948
3.47941
3.44082
3.40367
3.36791
3.33347
3.3003
3.26834
3.23755
3.20789
3.17933
3.15183
3.12535
3.09987
3.07536
3.05178
3.0291
3.00729
2.98633
2.96617
2.94678
2.92813
2.91019
2.89293
2.87631
2.86031
2.84489
2.83004
2.81571
2.80189
2.78855
2.77567
2.76322
3.51948
3.4794
3.44081
3.40366
3.36789
3.33344
3.30025
3.26826
3.23742
3.20768
3.17899
3.15133
3.12463
3.09888
3.07403
3.05005
3.02691
3.00458
2.98303
2.96223
2.94216
2.92279
2.90409
2.88603
2.8686
2.85176
2.8355
2.81978
2.8046
2.78992
2.77573
2.762
2.74871
3.51948
3.4794
3.44081
3.40365
3.36787
3.33341
3.30021
3.26821
3.23736
3.2076
3.17888
3.15117
3.12441
3.09858
3.07363
3.04952
3.02623
3.00372
2.98196
2.96093
2.9406
2.92094
2.90192
2.88353
2.86574
2.84852
2.83186
2.81574
2.80014
2.78503
2.7704
2.75623
2.7425
3.51948
3.4794
3.4408
3.40364
3.36786
3.33339
3.30019
3.26818
3.23731
3.20754
3.17882
3.15109
3.12431
3.09845
3.07347
3.04932
3.02598
3.00342
2.98159
2.96048
2.94005
2.92028
2.90115
2.88263
2.86469
2.84733
2.83051
2.81421
2.79842
2.78312
2.76829
2.75391
2.73997
3.51948
3.4794
3.44079
3.40363
3.36785
3.33338
3.30016
3.26815
3.23728
3.2075
3.17876
3.15103
3.12424
3.09837
3.07337
3.04921
3.02585
3.00326
2.98141
2.96027
2.93981
2.92
2.90083
2.88226
2.86427
2.84684
2.82995
2.81359
2.79772
2.78234
2.76742
2.75295
2.73891
3.51948
3.47939
3.44079
3.40362
3.36784
3.33336
3.30014
3.26812
3.23725
3.20746
3.17872
3.15097
3.12418
3.0983
3.07329
3.04912
3.02575
3.00315
2.98129
2.96013
2.93965
2.91983
2.90063
2.88204
2.86403
2.84657
2.82966
2.81326
2.79736
2.78194
2.76698
2.75247
2.73839
3.51947
3.47939
3.44079
3.40362
3.36783
3.33335
3.30013
3.2681
3.23722
3.20743
3.17868
3.15092
3.12412
3.09824
3.07322
3.04904
3.02566
3.00305
2.98118
2.96001
2.93952
2.91969
2.90048
2.88187
2.86384
2.84637
2.82944
2.81302
2.7971
2.78166
2.76669
2.75215
2.73804
3.51947
3.47939
3.44078
3.40361
3.36782
3.33334
3.30011
3.26808
3.23719
3.20739
3.17864
3.15088
3.12407
3.09818
3.07315
3.04897
3.02558
3.00296
2.98108
2.9599
2.93941
2.91956
2.90034
2.88172
2.86368
2.8462
2.82925
2.81282
2.79689
2.78143
2.76644
2.75189
2.73776
3.51947
3.47939
3.44078
3.40361
3.36781
3.33333
3.3001
3.26806
3.23717
3.20737
3.17861
3.15084
3.12403
3.09812
3.07309
3.0489
3.0255
3.00288
2.98099
2.9598
2.93929
2.91944
2.90021
2.88158
2.86353
2.84604
2.82908
2.81263
2.79669
2.78122
2.76621
2.75165
2.73751
3.51947
3.47939
3.44078
3.4036
3.3678
3.33332
3.30008
3.26805
3.23715
3.20734
3.17857
3.1508
3.12398
3.09808
3.07304
3.04884
3.02543
3.0028
2.9809
2.95971
2.93919
2.91933
2.90009
2.88145
2.86339
2.84588
2.82891
2.81246
2.7965
2.78102
2.766
2.75142
2.73727
3.51947
3.47939
3.44078
3.4036
3.3678
3.33331
3.30007
3.26803
3.23713
3.20732
3.17855
3.15077
3.12395
3.09803
3.07299
3.04878
3.02537
3.00273
2.98082
2.95962
2.9391
2.91922
2.89997
2.88133
2.86326
2.84574
2.82876
2.8123
2.79633
2.78083
2.7658
2.75121
2.73705
3.51947
3.47939
3.44077
3.4036
3.3678
3.3333
3.30006
3.26802
3.23711
3.2073
3.17852
3.15074
3.12391
3.09799
3.07294
3.04873
3.02531
3.00266
2.98075
2.95954
2.93901
2.91912
2.89987
2.88121
2.86313
2.84561
2.82862
2.81214
2.79616
2.78066
2.76562
2.75102
2.73684
3.51947
3.47938
3.44077
3.4036
3.36779
3.3333
3.30006
3.26801
3.2371
3.20728
3.1785
3.15072
3.12388
3.09796
3.0729
3.04868
3.02526
3.0026
2.98068
2.95946
2.93893
2.91904
2.89977
2.8811
2.86302
2.84548
2.82848
2.812
2.79601
2.7805
2.76544
2.75083
2.73665
3.51947
3.47938
3.44077
3.40359
3.36779
3.33329
3.30005
3.268
3.23709
3.20727
3.17848
3.15069
3.12385
3.09792
3.07286
3.04864
3.02521
3.00255
2.98062
2.9594
2.93885
2.91895
2.89968
2.88101
2.86291
2.84537
2.82836
2.81187
2.79587
2.78035
2.76528
2.75066
2.73647
3.51947
3.47938
3.44077
3.40359
3.36779
3.33329
3.30004
3.26799
3.23708
3.20725
3.17847
3.15067
3.12383
3.09789
3.07283
3.0486
3.02517
3.0025
2.98056
2.95934
2.93878
2.91888
2.8996
2.88092
2.86281
2.84526
2.82825
2.81174
2.79574
2.78021
2.76513
2.75051
2.7363
3.51947
3.47938
3.44077
3.40359
3.36778
3.33329
3.30004
3.26799
3.23707
3.20724
3.17845
3.15065
3.12381
3.09787
3.0728
3.04856
3.02513
3.00245
2.98052
2.95928
2.93872
2.91881
2.89952
2.88084
2.86272
2.84517
2.82814
2.81163
2.79562
2.78008
2.765
2.75036
2.73615
3.51947
3.47938
3.44077
3.40359
3.36778
3.33328
3.30004
3.26798
3.23706
3.20723
3.17844
3.15064
3.12379
3.09785
3.07278
3.04854
3.02509
3.00242
2.98047
2.95923
2.93867
2.91875
2.89946
2.88076
2.86265
2.84508
2.82805
2.81153
2.79551
2.77996
2.76488
2.75023
2.73601
3.51947
3.47938
3.44077
3.40359
3.36778
3.33328
3.30003
3.26798
3.23706
3.20722
3.17843
3.15063
3.12377
3.09783
3.07275
3.04851
3.02506
3.00238
2.98043
2.95919
2.93862
2.9187
2.8994
2.8807
2.86257
2.845
2.82797
2.81144
2.79541
2.77986
2.76477
2.75011
2.73589
3.51947
3.47938
3.44077
3.40359
3.36778
3.33328
3.30003
3.26797
3.23705
3.20722
3.17842
3.15062
3.12376
3.09781
3.07274
3.04849
3.02504
3.00235
2.9804
2.95915
2.93858
2.91865
2.89935
2.88064
2.86252
2.84494
2.8279
2.81137
2.79533
2.77977
2.76467
2.75002
2.73578
3.51947
3.47938
3.44077
3.40359
3.36778
3.33328
3.30003
3.26797
3.23705
3.20721
3.17842
3.15061
3.12375
3.0978
3.07272
3.04847
3.02502
3.00233
2.98038
2.95912
2.93855
2.91862
2.89931
2.8806
2.86247
2.84489
2.82785
2.81131
2.79527
2.77971
2.76461
2.74995
2.73571
3.51947
3.47938
3.44077
3.40359
3.36778
3.33328
3.30003
3.26797
3.23705
3.20721
3.17841
3.15061
3.12375
3.0978
3.07272
3.04847
3.02502
3.00233
2.98038
2.95913
2.93855
2.91862
2.89932
2.88061
2.86248
2.84491
2.82787
2.81134
2.79531
2.77976
2.76466
2.75001
2.73579
3.51947
3.47938
3.44077
3.40359
3.36778
3.33328
3.30003
3.26797
3.23705
3.20721
3.17842
3.15062
3.12376
3.09782
3.07275
3.04851
3.02508
3.0024
2.98047
2.95924
2.93869
2.9188
2.89953
2.88086
2.86277
2.84524
2.82825
2.81177
2.79579
2.78029
2.76526
2.75067
2.73651
3.51947
3.47938
3.44077
3.40359
3.36778
3.33329
3.30005
3.26801
3.23711
3.20731
3.17856
3.15081
3.12402
3.09815
3.07316
3.04901
3.02568
3.00313
2.98133
2.96025
2.93986
2.92013
2.90104
2.88257
2.86469
2.84738
2.83061
2.81437
2.79864
2.7834
2.76862
2.7543
2.74041
3.51947
3.47938
3.44078
3.40362
3.36785
3.33343
3.30029
3.26839
3.23767
3.2081
3.17963
3.15222
3.12582
3.1004
3.07592
3.05233
3.02961
3.00772
2.98662
2.96629
2.94668
2.92777
2.90953
2.89193
2.87495
2.85856
2.84273
2.82744
2.81267
2.79839
2.78459
2.77124
2.75833
3.51947
3.47942
3.44096
3.40413
3.36893
3.33532
3.30325
3.27266
3.2435
3.21571
3.18923
3.16401
3.13999
3.11712
3.09533
3.07457
3.05478
3.03591
3.0179
3.00071
2.98429
2.96859
2.95357
2.9392
2.92542
2.91221
2.89954
2.88737
2.87567
2.86442
2.8536
2.84317
2.83312
3.5195
3.48076
3.44539
3.41321
3.38397
3.35745
3.3335
3.31193
3.29255
3.27518
3.25964
3.24573
3.23328
3.22214
3.21215
3.20317
3.19508
3.18777
3.18115
3.17513
3.16962
3.16457
3.1599
3.15558
3.15155
3.14777
3.1442
3.14083
3.13761
3.13453
3.13156
3.1287
3.12591
3.52507
3.51486
3.52102
3.53647
3.5583
3.58498
3.61548
3.64889
3.68438
3.72129
3.75905
3.79722
3.83545
3.87345
3.91099
3.94791
3.98407
4.01938
4.05376
4.08717
4.11957
4.15095
4.1813
4.21063
4.23893
4.26624
4.29256
4.31793
4.34237
4.3659
4.38856
4.41037
4.43138
3.84201
4.38783
4.87755
5.34296
5.79554
6.23677
6.66461
7.07774
7.47617
7.86053
8.23159
8.59013
8.93695
9.27278
9.59829
9.91406
10.2206
10.5183
10.8077
11.089
11.3625
11.6287
11.8876
12.1396
12.3848
12.6236
12.8561
13.0825
13.3029
13.5177
13.7269
13.9307
14.1293
30.2673
32.7691
35.3054
37.8488
40.3863
42.91
45.413
47.8883
50.3292
52.7298
55.0848
57.3895
59.64
61.8329
63.9655
66.0357
68.0417
69.9825
71.8573
73.6659
75.4082
77.0847
78.696
80.2429
81.7264
83.1479
84.5087
85.8103
87.0543
88.2423
89.3762
90.4573
91.4886
489.093
554.211
602.086
637.033
663.8
683.545
695.389
698.297
692.101
677.821
657.342
632.859
606.41
579.589
553.463
528.619
505.273
483.411
462.901
443.582
425.307
407.966
391.482
375.799
360.873
346.651
333.074
320.063
307.529
295.367
283.466
271.706
259.966
248.126
236.07
223.692
210.906
197.651
183.908
169.706
155.141
140.376
125.648
111.258
97.553
84.8932
73.6226
64.0401
56.3911
50.9052
47.9496
48.3423
53.4403
64.2256
79.9109
97.9237
115.332
130.072
141.213
148.658
152.743
153.96
152.807
149.726
145.086
139.192
132.293
124.598
116.289
107.529
98.4686
89.2526
80.0209
70.9099
62.0516
53.5716
45.5866
38.2011
31.5036
25.5626
20.4217
16.0939
12.558
9.75877
7.61362
6.0276
4.91072
4.18643
3.78312
3.62297
3.62715
3.73
3.88571
4.06578
4.25333
4.43837
4.61483
4.77943
4.92609
5.10445
98.3525
101.14
106.176
113.441
123.212
135.737
151.063
168.958
188.868
209.948
231.16
251.413
269.688
285.151
297.236
305.676
310.496
311.964
310.519
306.69
301.017
293.997
286.046
277.483
268.536
259.351
250.016
240.57
231.026
221.373
211.587
201.635
191.478
181.074
170.385
159.381
148.049
136.403
124.493
112.416
100.317
88.3931
76.8823
66.0446
56.1362
47.379
39.9361
33.9012
29.3097
26.1764
24.6072
25.1315
29.1548
38.4571
53.289
71.508
89.9861
106.262
119.079
128.14
133.681
136.161
136.077
133.891
130.001
124.743
118.396
111.202
103.369
95.087
86.5278
77.8538
69.2185
60.7666
52.6332
44.9415
37.8005
31.3015
25.5145
20.4843
16.2257
12.7215
9.92238
7.75313
6.12332
4.94222
4.13242
3.63313
3.38855
3.33588
3.41006
3.55693
3.73935
3.9349
4.13085
4.31996
4.49796
4.66287
4.80927
4.98785
21.6046
21.8836
22.2122
22.6393
23.2376
24.0952
25.3126
27.0061
29.3045
32.3393
36.2307
41.0699
46.8999
53.6979
61.3639
69.7165
78.4999
87.4018
96.08
104.195
111.44
117.57
122.419
125.902
128.009
128.793
128.35
126.798
124.262
120.861
116.701
111.872
106.451
100.502
94.087
87.2669
80.1134
72.7139
65.1773
57.6371
50.2486
43.1813
36.605
30.6717
25.4963
21.1435
17.6231
14.8992
12.9106
11.5978
10.9359
11.0776
12.8757
18.3595
29.3844
45.2875
63.1926
80.1392
94.2881
104.926
112.052
116.008
117.247
116.229
113.368
109.023
103.506
97.0841
89.9938
82.446
74.6326
66.7298
58.8998
51.2909
44.0362
37.2523
31.0363
25.4631
20.5824
16.4156
12.9533
10.1566
7.96123
6.28635
5.04594
4.16085
3.56855
3.22335
3.08355
3.09925
3.21629
3.38878
3.5855
3.78811
3.98669
4.17595
4.35288
4.51644
4.66161
4.84014
8.847
8.91769
8.98
9.0341
9.085
9.141
9.21258
9.31257
9.45664
9.66337
9.95417
10.3531
10.8865
11.5819
12.4672
13.5687
14.9083
16.4999
18.3456
20.4308
22.7217
25.1636
27.6824
30.1883
32.5826
34.7647
36.6405
38.1283
39.1645
39.7059
39.7306
39.2368
38.2414
36.7776
34.8931
32.6484
30.1162
27.3795
24.5303
21.6656
18.8821
16.2691
13.9
11.8256
10.0708
8.63466
7.49694
6.6261
5.98936
5.56276
5.33523
5.31087
5.67211
7.43374
12.8332
23.4648
38.1378
53.958
68.4156
80.1378
88.6814
94.1359
96.831
97.1722
95.5624
92.3709
87.9263
82.5184
76.4038
69.8119
62.9488
56.0002
49.1331
42.4954
36.2155
30.4006
25.1348
20.4771
16.4592
13.0835
10.3242
8.13032
6.43286
5.15422
4.21797
3.55816
3.12637
2.89051
2.8218
2.88186
3.02542
3.21267
3.41639
3.62105
3.81875
4.00566
4.17981
4.34088
4.48404
4.66222
5.58395
5.59743
5.60795
5.61498
5.61843
5.61888
5.61742
5.61557
5.61537
5.61941
5.63079
5.65314
5.69057
5.74756
5.8289
5.93946
6.08402
6.26697
6.49194
6.76138
7.07609
7.43468
7.83309
8.26412
8.71718
9.17813
9.62962
10.0516
10.4226
10.7208
10.9259
11.0209
10.9935
10.8377
10.5544
10.1518
9.64564
9.05744
8.41348
7.74232
7.07223
6.42855
5.83158
5.29539
4.82767
4.43062
4.10246
3.83914
3.63602
3.49029
3.40391
3.37836
3.41197
3.68165
5.14917
9.76955
18.7551
30.9331
43.8646
55.535
64.8702
71.5304
75.5943
77.3338
77.0889
75.2056
72.0098
67.7987
62.8398
57.373
51.6127
45.7495
39.9514
34.3634
29.1074
24.2812
19.957
16.1802
12.9679
10.3096
8.16933
6.49164
5.20978
4.25418
3.56032
3.07541
2.76354
2.60454
2.58185
2.6684
2.82687
3.02177
3.22817
3.4321
3.627
3.81017
3.98049
4.13825
4.27877
4.45617
4.2484
4.2506
4.25092
4.24928
4.24559
4.23988
4.23228
4.223
4.21236
4.2008
4.18887
4.17727
4.16679
4.15837
4.15302
4.15182
4.15588
4.16626
4.18391
4.2096
4.2438
4.28664
4.33773
4.39619
4.46049
4.52847
4.59729
4.66351
4.72315
4.77189
4.80531
4.81915
4.80974
4.77428
4.71125
4.62061
4.50394
4.36446
4.20677
4.03651
3.85986
3.68298
3.5115
3.35012
3.20242
3.07075
2.95639
2.85984
2.78108
2.72008
2.6781
2.65818
2.65689
2.67333
2.88517
4.0698
7.64921
14.477
23.7181
33.5774
42.508
49.6378
54.6563
57.5927
58.6469
58.0899
56.2104
53.2895
49.5895
45.3492
40.7832
36.0812
31.4085
26.905
22.6856
18.8391
15.4271
12.4835
10.0146
8.00069
6.40168
5.16367
4.22709
3.53388
3.03281
2.68375
2.46122
2.35431
2.35726
2.45463
2.61753
2.81404
3.02001
3.22168
3.41293
3.59175
3.7577
3.91164
4.04899
4.22509
3.56652
3.56467
3.56159
3.55725
3.55163
3.5447
3.5365
3.52707
3.51645
3.50474
3.49206
3.47854
3.46436
3.44973
3.43488
3.42008
3.40562
3.39179
3.37889
3.3672
3.35693
3.34823
3.34115
3.33561
3.33137
3.32803
3.32502
3.32159
3.31684
3.30976
3.29925
3.28421
3.26364
3.23666
3.20268
3.16143
3.11305
3.05809
2.99755
2.93277
2.86539
2.79716
2.72986
2.66512
2.60431
2.54849
2.49836
2.45433
2.41657
2.38508
2.36003
2.3425
2.33302
2.32563
2.33077
2.51224
3.41377
5.92649
10.6101
17.0123
23.9769
30.3908
35.5528
39.1652
41.2033
41.796
41.1462
39.4846
37.0441
34.046
30.6935
27.1675
23.6254
20.1992
16.9952
14.0923
11.542
9.36777
7.56764
6.11786
4.97948
4.10562
3.44818
2.96277
2.61186
2.36682
2.21031
2.13742
2.15017
2.24425
2.40062
2.59186
2.79394
2.99199
3.1792
3.35356
3.51501
3.66488
3.79864
3.97283
3.18634
3.1811
3.17515
3.16846
3.16099
3.15273
3.14367
3.1338
3.12314
3.11171
3.09951
3.08659
3.07298
3.05872
3.04386
3.02847
3.01259
2.99632
2.97974
2.96292
2.94594
2.92888
2.9118
2.89472
2.87763
2.86048
2.84317
2.82556
2.80745
2.78859
2.76871
2.74753
2.72478
2.70023
2.67369
2.6451
2.61449
2.58204
2.54807
2.51303
2.47745
2.44196
2.40717
2.37368
2.34199
2.31246
2.28534
2.2607
2.2385
2.2186
2.20077
2.18498
2.17155
2.1592
2.14402
2.14587
2.29331
2.91932
4.51374
7.40471
11.4071
15.8837
20.1161
23.5807
26.0102
27.3414
27.6417
27.0508
25.7415
23.8953
21.6876
19.2797
16.813
14.4061
12.1525
10.1192
8.34646
6.84935
5.62146
4.64036
3.8741
3.28722
2.84535
2.51807
2.28026
2.11298
2.00484
1.95395
1.96618
2.04581
2.18463
2.36204
2.55512
2.74722
2.92967
3.09952
3.25654
3.40226
3.53216
3.70379
2.96942
2.96084
2.95192
2.94262
2.93291
2.92276
2.91217
2.9011
2.88956
2.87754
2.86503
2.85204
2.83857
2.82463
2.81021
2.79533
2.77999
2.76421
2.74799
2.73135
2.71432
2.69691
2.67915
2.66106
2.64265
2.62393
2.60491
2.58556
2.56588
2.54582
2.52536
2.50443
2.48302
2.46108
2.43862
2.41566
2.39226
2.36856
2.34469
2.32086
2.29731
2.27428
2.252
2.2307
2.21051
2.19153
2.17375
2.15708
2.14135
2.12631
2.11163
2.09694
2.08201
2.06659
2.04919
2.02946
2.02869
2.13293
2.52361
3.43945
5.04353
7.2744
9.83323
12.324
14.4087
15.8819
16.6693
16.7952
16.3456
15.4383
14.2027
12.7654
11.2411
9.72666
8.29742
7.00565
5.88109
4.93361
4.15757
3.53702
3.05068
2.67597
2.39161
2.17911
2.02323
1.91232
1.8392
1.80302
1.81003
1.86899
1.98126
2.13538
2.31219
2.49404
2.66979
2.8345
2.98698
3.12851
3.25435
3.42277
2.84765
2.83604
2.82431
2.81244
2.80041
2.78817
2.77572
2.76304
2.75012
2.73693
2.72348
2.70976
2.69575
2.68146
2.66689
2.65201
2.63684
2.62135
2.60556
2.58946
2.57305
2.55632
2.53929
2.52196
2.50434
2.48644
2.46828
2.44988
2.43124
2.41238
2.39334
2.37412
2.35477
2.33531
2.3158
2.2963
2.27689
2.25766
2.23872
2.22018
2.20215
2.18476
2.16809
2.1522
2.13711
2.12276
2.10907
2.09586
2.08291
2.06993
2.05655
2.04236
2.02695
2.01004
1.99127
1.96989
1.94785
1.94204
2.00274
2.21949
2.69682
3.50155
4.60944
5.89367
7.16842
8.25445
9.02618
9.42671
9.45964
9.17138
8.63281
7.92396
7.12264
6.29673
5.49961
4.7684
4.12459
3.57647
3.12254
2.75507
2.46316
2.23502
2.05938
1.92629
1.82735
1.7559
1.70758
1.68176
1.68316
1.72086
1.80217
1.92497
2.07694
2.24199
2.40708
2.5647
2.71184
2.84883
2.97032
3.13484
2.78221
2.76816
2.75412
2.74005
2.72595
2.71179
2.69756
2.68324
2.66883
2.6543
2.63966
2.62489
2.60999
2.59495
2.57977
2.56444
2.54895
2.5333
2.51748
2.50149
2.48532
2.46897
2.45244
2.43573
2.41886
2.40181
2.38461
2.36728
2.34983
2.33229
2.31469
2.29707
2.27947
2.26194
2.24453
2.22732
2.21037
2.19375
2.17755
2.16184
2.14668
2.13213
2.1182
2.10491
2.09219
2.07995
2.06807
2.05634
2.04452
2.03231
2.01938
2.00531
1.98969
1.9722
1.95268
1.93097
1.9071
1.8836
1.87147
1.89694
2.00072
2.22491
2.59216
3.08842
3.66002
4.22834
4.71365
5.05587
5.22486
5.22013
5.06398
4.79222
4.44542
4.0621
3.67439
3.30595
2.9719
2.67996
2.43217
2.22681
2.05998
1.92682
1.82227
1.74159
1.68057
1.63565
1.60431
1.58594
1.58336
1.60355
1.65525
1.74305
1.8628
2.00319
2.1515
2.29815
2.4378
2.56914
2.68562
2.84533
2.74919
2.73342
2.71768
2.70197
2.68627
2.67059
2.6549
2.6392
2.62349
2.60775
2.59197
2.57616
2.56031
2.54441
2.52847
2.51248
2.49643
2.48033
2.46417
2.44794
2.43165
2.41529
2.39887
2.38239
2.36584
2.34924
2.3326
2.31594
2.29926
2.2826
2.26598
2.24944
2.23301
2.21675
2.20069
2.18491
2.16944
2.15436
2.13972
2.12556
2.11192
2.09881
2.08625
2.07417
2.06252
2.05119
2.04001
2.0288
2.01731
2.00526
1.99234
1.97817
1.96239
1.9447
1.92495
1.90314
1.87941
1.8542
1.82962
1.81189
1.81351
1.85178
1.9427
2.09291
2.2942
2.52363
2.74948
2.93988
3.07061
3.12936
3.11604
3.04017
2.91702
2.76368
2.59617
2.42759
2.26746
2.12182
1.99375
1.88417
1.79254
1.71743
1.65701
1.6093
1.57238
1.54446
1.52416
1.51096
1.50623
1.51429
1.54229
1.59729
1.68163
1.79067
1.91502
2.04493
2.17316
2.29645
2.40649
2.55994
2.73373
2.71686
2.70004
2.68324
2.66647
2.64973
2.63301
2.61631
2.59961
2.58293
2.56626
2.54959
2.53293
2.51628
2.49963
2.48299
2.46636
2.44973
2.43311
2.41651
2.39991
2.38332
2.36675
2.3502
2.33367
2.31718
2.30072
2.28433
2.26801
2.25178
2.23567
2.21971
2.20393
2.18836
2.17306
2.15806
2.14341
2.12914
2.1153
2.10192
2.08901
2.07657
2.06458
2.05298
2.0417
2.03061
2.01957
2.00838
1.99681
1.98461
1.97147
1.95709
1.94115
1.92338
1.90365
1.88199
1.85857
1.8337
1.80793
1.78268
1.76119
1.74899
1.75303
1.77921
1.82933
1.89938
1.97998
2.05876
2.1236
2.1654
2.17959
2.16618
2.12881
2.07328
2.0061
1.93342
1.8603
1.79052
1.72653
1.66969
1.62051
1.5789
1.5444
1.51633
1.49387
1.4762
1.46256
1.45259
1.44683
1.44757
1.45936
1.48844
1.54004
1.61518
1.70976
1.81645
1.92782
2.03913
2.14015
2.28492
2.727
2.70953
2.69208
2.67465
2.65725
2.63986
2.62249
2.60514
2.58781
2.5705
2.5532
2.53593
2.51868
2.50146
2.48427
2.46711
2.44999
2.4329
2.41586
2.39887
2.38193
2.36504
2.34822
2.33147
2.3148
2.29821
2.28172
2.26534
2.24909
2.23299
2.21705
2.20131
2.18579
2.17052
2.15554
2.14087
2.12656
2.11264
2.09912
2.08602
2.07335
2.0611
2.04922
2.03767
2.02635
2.01515
2.00392
1.99248
1.98061
1.96809
1.95464
1.93998
1.92386
1.90605
1.88644
1.86506
1.84206
1.81773
1.79241
1.76662
1.74123
1.71784
1.6988
1.68681
1.684
1.69089
1.70584
1.72528
1.74459
1.7593
1.76605
1.76311
1.75039
1.72913
1.70138
1.6695
1.63573
1.60198
1.56971
1.53989
1.5131
1.48956
1.46929
1.4521
1.43768
1.42565
1.41561
1.4073
1.40091
1.3975
1.39953
1.41112
1.43721
1.48157
1.54471
1.62347
1.71234
1.80665
1.89487
2.02722
2.72421
2.70644
2.68868
2.67092
2.65317
2.63543
2.6177
2.59999
2.58228
2.56459
2.54692
2.52927
2.51165
2.49405
2.47649
2.45897
2.4415
2.42407
2.40671
2.3894
2.37217
2.35502
2.33795
2.32097
2.3041
2.28735
2.27072
2.25423
2.2379
2.22175
2.20579
2.19005
2.17455
2.15932
2.14438
2.12977
2.11551
2.10162
2.08811
2.075
2.06227
2.04991
2.03788
2.02611
2.01453
2.00301
1.99142
1.97959
1.96732
1.9544
1.94059
1.92564
1.90935
1.89151
1.87205
1.85098
1.82845
1.8047
1.78002
1.75476
1.72934
1.70428
1.68039
1.65866
1.64014
1.62561
1.61527
1.60852
1.60412
1.60043
1.59586
1.58918
1.5797
1.5673
1.55234
1.53547
1.51748
1.49914
1.4811
1.4639
1.44787
1.43322
1.42003
1.40827
1.3978
1.38844
1.37996
1.37219
1.36515
1.35931
1.35586
1.35705
1.36623
1.38712
1.42248
1.47275
1.53567
1.60833
1.67949
1.79441
2.72304
2.70513
2.68721
2.6693
2.65138
2.63347
2.61555
2.59764
2.57974
2.56185
2.54397
2.52611
2.50827
2.49045
2.47267
2.45493
2.43723
2.41958
2.40199
2.38447
2.36702
2.34966
2.33239
2.31522
2.29816
2.28123
2.26444
2.2478
2.23133
2.21505
2.19898
2.18313
2.16752
2.15219
2.13716
2.12244
2.10805
2.09402
2.08035
2.06705
2.05409
2.04147
2.02913
2.01702
2.00504
1.99311
1.98107
1.96879
1.95607
1.94273
1.92855
1.91333
1.89686
1.87902
1.85971
1.83896
1.81689
1.79371
1.76968
1.74509
1.72025
1.69547
1.6711
1.64756
1.62529
1.60474
1.58622
1.56982
1.55536
1.54244
1.5305
1.519
1.50747
1.49564
1.4834
1.4708
1.45801
1.44524
1.4327
1.42059
1.40905
1.39817
1.38797
1.37844
1.3695
1.36102
1.35286
1.34488
1.33707
1.32961
1.32306
1.31852
1.31781
1.32349
1.33831
1.36433
1.40196
1.45085
1.5018
1.59394
2.72246
2.70449
2.6865
2.66851
2.65051
2.63251
2.61451
2.5965
2.5785
2.56051
2.54252
2.52455
2.50659
2.48865
2.47075
2.45287
2.43504
2.41725
2.39952
2.38186
2.36426
2.34675
2.32933
2.31201
2.29481
2.27773
2.26078
2.244
2.22738
2.21095
2.19472
2.17872
2.16296
2.14747
2.13226
2.11735
2.10277
2.08851
2.07459
2.061
2.04774
2.03477
2.02206
2.00954
1.99713
1.98474
1.97223
1.95948
1.94631
1.93256
1.91803
1.90254
1.88594
1.86808
1.84893
1.82848
1.80686
1.78423
1.76082
1.73689
1.7127
1.6885
1.66454
1.64106
1.61831
1.59651
1.57587
1.55654
1.53857
1.52192
1.50646
1.49202
1.47838
1.46537
1.45286
1.44075
1.42902
1.41766
1.40669
1.39612
1.38597
1.37624
1.36689
1.35789
1.34916
1.34059
1.33206
1.32347
1.31479
1.3061
1.29764
1.28993
1.28386
1.28084
1.28271
1.29147
1.30858
1.33552
1.36597
1.43158
2.72209
2.70408
2.68606
2.66802
2.64998
2.63194
2.61389
2.59584
2.57778
2.55973
2.54169
2.52366
2.50563
2.48763
2.46965
2.45171
2.4338
2.41593
2.39811
2.38035
2.36266
2.34504
2.32751
2.31008
2.29276
2.27556
2.25849
2.24157
2.22482
2.20824
2.19186
2.1757
2.15977
2.1441
2.12869
2.11357
2.09874
2.08423
2.07003
2.05613
2.04253
2.02919
2.01608
2.00314
1.99029
1.97744
1.96448
1.95127
1.93768
1.92354
1.90869
1.89297
1.87624
1.85839
1.83939
1.81923
1.79803
1.77591
1.75309
1.72978
1.70622
1.68263
1.65921
1.63617
1.61367
1.59188
1.57094
1.55095
1.53199
1.5141
1.49727
1.48146
1.46658
1.45257
1.43931
1.42674
1.41477
1.40335
1.39241
1.38192
1.37182
1.36205
1.35257
1.3433
1.33415
1.32503
1.31583
1.30647
1.2969
1.28717
1.27739
1.26781
1.25885
1.25118
1.24581
1.24405
1.2472
1.25719
1.27037
1.30924
2.72179
2.70375
2.68571
2.66765
2.64958
2.63151
2.61343
2.59534
2.57726
2.55918
2.5411
2.52303
2.50497
2.48693
2.46891
2.45091
2.43295
2.41503
2.39715
2.37933
2.36156
2.34388
2.32627
2.30875
2.29133
2.27403
2.25686
2.23983
2.22295
2.20624
2.18972
2.17341
2.15731
2.14145
2.12585
2.11051
2.09545
2.08067
2.06618
2.05198
2.03804
2.02434
2.01084
1.99749
1.98421
1.97093
1.95754
1.94391
1.92992
1.91543
1.90029
1.88437
1.86754
1.84972
1.83086
1.81098
1.79016
1.76853
1.74625
1.72352
1.70055
1.67753
1.65466
1.6321
1.61
1.58851
1.56772
1.54773
1.52861
1.51039
1.4931
1.47673
1.46125
1.44662
1.43278
1.41966
1.4072
1.39533
1.38397
1.37306
1.36253
1.3523
1.3423
1.33245
1.32266
1.31283
1.30288
1.29272
1.28233
1.27171
1.26093
1.25012
1.23948
1.22933
1.22015
1.21264
1.20761
1.20649
1.20767
1.2237
2.72152
2.70346
2.6854
2.66732
2.64923
2.63113
2.61303
2.59492
2.57682
2.55871
2.5406
2.52251
2.50442
2.48635
2.46829
2.45026
2.43226
2.4143
2.39638
2.37851
2.36069
2.34294
2.32527
2.30768
2.29019
2.27281
2.25554
2.23841
2.22142
2.2046
2.18795
2.17149
2.15523
2.1392
2.12341
2.10786
2.09257
2.07755
2.06279
2.04828
2.03402
2.01998
2.00611
1.99238
1.97871
1.96503
1.95123
1.93723
1.92288
1.90808
1.89269
1.87659
1.85969
1.84189
1.82318
1.80356
1.7831
1.76191
1.74014
1.71795
1.69553
1.67305
1.65069
1.62859
1.60691
1.58576
1.56523
1.5454
1.52634
1.50809
1.49066
1.47407
1.45829
1.44329
1.42905
1.41549
1.40257
1.39022
1.37837
1.36694
1.35587
1.34507
1.33446
1.32397
1.3135
1.30297
1.29229
1.2814
1.27026
1.25889
1.24731
1.23562
1.22391
1.21234
1.20114
1.19063
1.18124
1.17374
1.16792
1.16739
2.72127
2.7032
2.68511
2.66701
2.6489
2.63079
2.61266
2.59454
2.57641
2.55828
2.54015
2.52203
2.50392
2.48582
2.46774
2.44968
2.43165
2.41365
2.39569
2.37778
2.35992
2.34212
2.32439
2.30674
2.28918
2.27172
2.25438
2.23715
2.22007
2.20313
2.18636
2.16977
2.15337
2.13718
2.12121
2.10547
2.08997
2.07471
2.05969
2.04491
2.03035
2.01599
2.00179
1.9877
1.97367
1.95962
1.94546
1.93111
1.91645
1.90138
1.88577
1.86953
1.85256
1.83481
1.81623
1.79686
1.77673
1.75595
1.73464
1.71295
1.69104
1.66906
1.64718
1.62553
1.60424
1.58342
1.56316
1.54354
1.5246
1.50639
1.48894
1.47223
1.45628
1.44105
1.4265
1.4126
1.3993
1.38652
1.37421
1.36229
1.35069
1.33933
1.32815
1.31704
1.30595
1.29477
1.28344
1.27191
1.26014
1.24813
1.23591
1.22353
1.21107
1.1986
1.18624
1.17414
1.16252
1.15159
1.14221
1.13131
2.72103
2.70294
2.68484
2.66672
2.6486
2.63046
2.61232
2.59418
2.57603
2.55788
2.53973
2.52159
2.50345
2.48533
2.46722
2.44914
2.43108
2.41305
2.39505
2.3771
2.3592
2.34135
2.32357
2.30587
2.28825
2.27072
2.2533
2.23599
2.21882
2.20178
2.1849
2.16818
2.15165
2.13531
2.11917
2.10325
2.08755
2.07208
2.05682
2.04179
2.02695
2.01229
1.99778
1.98338
1.96902
1.95464
1.94016
1.9255
1.91056
1.89525
1.87945
1.86309
1.84608
1.82837
1.80993
1.79078
1.77096
1.75055
1.72967
1.70844
1.687
1.6655
1.64406
1.62283
1.60191
1.58141
1.56141
1.54199
1.52319
1.50505
1.4876
1.47083
1.45476
1.43934
1.42456
1.41038
1.39674
1.38359
1.37087
1.35851
1.34643
1.33458
1.32287
1.31122
1.29957
1.28783
1.27594
1.26385
1.25154
1.239
1.22626
1.21335
1.20032
1.18723
1.17414
1.16111
1.1483
1.13558
1.12449
1.10775
2.72081
2.70271
2.68459
2.66646
2.64831
2.63016
2.612
2.59384
2.57567
2.5575
2.53933
2.52117
2.50301
2.48486
2.46673
2.44862
2.43053
2.41247
2.39444
2.37645
2.35851
2.34062
2.3228
2.30504
2.28736
2.26977
2.25228
2.2349
2.21764
2.20051
2.18352
2.16669
2.15004
2.13356
2.11727
2.10118
2.0853
2.06962
2.05415
2.03888
2.02379
2.00887
1.99407
1.97937
1.96472
1.95004
1.93528
1.92034
1.90516
1.88963
1.87368
1.85721
1.84017
1.82251
1.80421
1.78526
1.76573
1.74567
1.72518
1.70437
1.68337
1.6623
1.64128
1.62044
1.59987
1.57967
1.55993
1.5407
1.52204
1.50398
1.48654
1.46974
1.45356
1.438
1.42302
1.40859
1.39466
1.38118
1.3681
1.35534
1.34285
1.33055
1.31837
1.30625
1.29411
1.28189
1.26952
1.25697
1.2442
1.23123
1.21805
1.20471
1.19125
1.17769
1.16409
1.15048
1.13698
1.12326
1.11133
1.09152
2.7206
2.70249
2.68435
2.6662
2.64805
2.62988
2.6117
2.59352
2.57533
2.55714
2.53895
2.52077
2.50259
2.48442
2.46627
2.44813
2.43001
2.41192
2.39386
2.37584
2.35786
2.33993
2.32206
2.30426
2.28652
2.26887
2.25132
2.23386
2.21652
2.1993
2.18222
2.16529
2.14851
2.13191
2.11548
2.09924
2.08318
2.06732
2.05165
2.03617
2.02085
2.00568
1.99063
1.97567
1.96075
1.94581
1.93078
1.91561
1.9002
1.88449
1.8684
1.85186
1.8348
1.81719
1.79901
1.78026
1.76099
1.74124
1.72111
1.70069
1.6801
1.65943
1.6388
1.61832
1.59808
1.57818
1.55868
1.53964
1.52111
1.50314
1.48573