/*--------------------------------*- C++ -*----------------------------------*\
| =========                 |                                                 |
| \\      /  F ield         | OpenFOAM: The Open Source CFD Toolbox           |
|  \\    /   O peration     | Version:  4.1                                   |
|   \\  /    A nd           | Web:      www.OpenFOAM.org                      |
|    \\/     M anipulation  |                                                 |
\*---------------------------------------------------------------------------*/
FoamFile
{
    version     2.0;
    format      ascii;
    class       volScalarField;
    location    "200";
    object      k;
}
// * * * * * * * * * * * * * * * * * * * * * * * * * * * * * * * * * * * * * //

dimensions      [0 2 -2 0 0 0 0];

internalField   nonuniform List<scalar> 
6820
(
0.226697
0.279347
0.331744
0.382734
0.430932
0.475131
0.514432
0.548312
0.576623
0.599532
0.617425
0.630828
0.64033
0.646534
0.650013
0.651292
0.650833
0.649033
0.646225
0.642687
0.638641
0.634269
0.629714
0.625087
0.620476
0.615949
0.611554
0.607338
0.603293
0.599629
0.595427
0.595324
0.576742
0.207938
0.21662
0.219547
0.220392
0.221053
0.222071
0.223462
0.225122
0.226935
0.22881
0.230683
0.232521
0.234313
0.236062
0.237779
0.239479
0.241178
0.242891
0.244631
0.246406
0.248222
0.250082
0.251984
0.253926
0.255902
0.257903
0.259919
0.261938
0.263938
0.265928
0.267791
0.269855
0.271091
0.201064
0.204896
0.206826
0.206613
0.20517
0.203178
0.20097
0.198677
0.196349
0.194008
0.19167
0.189349
0.187063
0.184827
0.18266
0.180575
0.178587
0.176706
0.17494
0.173294
0.171773
0.170377
0.169105
0.167957
0.166927
0.166013
0.165209
0.164507
0.163902
0.163385
0.162945
0.162574
0.162235
0.199585
0.199595
0.199834
0.199708
0.199081
0.198053
0.196754
0.195281
0.193696
0.192038
0.190331
0.188593
0.186837
0.185074
0.183313
0.181563
0.179833
0.178128
0.176456
0.174821
0.173228
0.17168
0.170182
0.168734
0.167338
0.165997
0.16471
0.163479
0.162302
0.16118
0.160113
0.159101
0.158139
0.199411
0.198486
0.19779
0.197167
0.196484
0.195676
0.194737
0.193687
0.192551
0.191349
0.1901
0.188818
0.187514
0.186195
0.184869
0.183542
0.182219
0.180904
0.179601
0.178314
0.177045
0.175797
0.174572
0.173373
0.1722
0.171055
0.16994
0.168855
0.167801
0.166779
0.16579
0.164834
0.163912
0.199395
0.198258
0.197235
0.196308
0.195431
0.194563
0.193676
0.192755
0.1918
0.190813
0.1898
0.188767
0.187719
0.186661
0.185597
0.184532
0.183469
0.18241
0.181358
0.180316
0.179285
0.178267
0.177264
0.176277
0.175307
0.174356
0.173423
0.172511
0.171619
0.170748
0.1699
0.169075
0.168272
0.199395
0.198217
0.197099
0.196044
0.195047
0.194092
0.193165
0.192252
0.191344
0.190436
0.189526
0.188614
0.1877
0.186785
0.185872
0.184961
0.184055
0.183155
0.182262
0.181377
0.180503
0.179639
0.178788
0.177948
0.177123
0.176311
0.175515
0.174733
0.173968
0.173219
0.172487
0.171771
0.171074
0.199395
0.198211
0.19707
0.195974
0.194924
0.193917
0.192948
0.19201
0.191098
0.190205
0.189328
0.188464
0.187611
0.186767
0.185933
0.185109
0.184293
0.183488
0.182692
0.181906
0.181132
0.180368
0.179617
0.178877
0.178149
0.177435
0.176733
0.176045
0.17537
0.17471
0.174063
0.173431
0.172813
0.199395
0.19821
0.197064
0.195957
0.194889
0.19386
0.192867
0.191909
0.190982
0.190083
0.189209
0.188357
0.187525
0.186711
0.185914
0.185132
0.184364
0.18361
0.18287
0.182143
0.181429
0.180728
0.180039
0.179364
0.178701
0.17805
0.177413
0.176788
0.176177
0.175578
0.174992
0.174419
0.173858
0.199395
0.19821
0.197062
0.195953
0.19488
0.193843
0.192841
0.191872
0.190935
0.190028
0.189149
0.188296
0.187468
0.186662
0.185878
0.185113
0.184367
0.183638
0.182926
0.18223
0.18155
0.180884
0.180233
0.179596
0.178972
0.178363
0.177766
0.177183
0.176612
0.176055
0.17551
0.174977
0.174456
0.199395
0.198209
0.197062
0.195951
0.194877
0.193838
0.192832
0.191859
0.190917
0.190005
0.189122
0.188266
0.187436
0.186631
0.185849
0.18509
0.184351
0.183632
0.182932
0.18225
0.181586
0.180939
0.180307
0.179691
0.17909
0.178503
0.177931
0.177372
0.176827
0.176295
0.175776
0.175269
0.174774
0.199395
0.198209
0.197061
0.195951
0.194876
0.193836
0.192829
0.191854
0.19091
0.189996
0.189111
0.188253
0.187421
0.186614
0.185832
0.185072
0.184335
0.183619
0.182923
0.182247
0.181589
0.180949
0.180327
0.179721
0.17913
0.178556
0.177996
0.177451
0.176919
0.176402
0.175897
0.175405
0.174925
0.199395
0.198209
0.197061
0.19595
0.194875
0.193834
0.192827
0.191852
0.190907
0.189992
0.189105
0.188246
0.187413
0.186605
0.185822
0.185062
0.184324
0.183608
0.182913
0.182238
0.181582
0.180945
0.180326
0.179723
0.179138
0.178568
0.178014
0.177475
0.17695
0.176439
0.175942
0.175458
0.174987
0.199395
0.198209
0.197061
0.19595
0.194874
0.193834
0.192826
0.19185
0.190905
0.18999
0.189102
0.188242
0.187409
0.1866
0.185816
0.185055
0.184317
0.183601
0.182905
0.18223
0.181574
0.180938
0.180319
0.179718
0.179133
0.178565
0.178013
0.177476
0.176954
0.176446
0.175952
0.175471
0.175003
0.199395
0.198209
0.19706
0.195949
0.194874
0.193833
0.192825
0.191849
0.190904
0.189988
0.1891
0.18824
0.187405
0.186596
0.185812
0.185051
0.184312
0.183595
0.182899
0.182224
0.181567
0.18093
0.180311
0.17971
0.179126
0.178558
0.178006
0.17747
0.176948
0.176441
0.175948
0.175468
0.175001
0.199395
0.198209
0.19706
0.195949
0.194873
0.193832
0.192824
0.191848
0.190902
0.189986
0.189098
0.188237
0.187403
0.186593
0.185808
0.185047
0.184308
0.18359
0.182894
0.182218
0.181562
0.180924
0.180305
0.179703
0.179118
0.17855
0.177998
0.177461
0.176939
0.176432
0.175939
0.175459
0.174992
0.199395
0.198209
0.19706
0.195949
0.194873
0.193832
0.192823
0.191847
0.190901
0.189985
0.189096
0.188235
0.1874
0.186591
0.185805
0.185043
0.184304
0.183586
0.18289
0.182213
0.181556
0.180918
0.180298
0.179696
0.179111
0.178543
0.17799
0.177453
0.17693
0.176423
0.175929
0.175448
0.174981
0.199395
0.198208
0.19706
0.195948
0.194873
0.193831
0.192823
0.191846
0.1909
0.189983
0.189095
0.188233
0.187398
0.186588
0.185803
0.18504
0.184301
0.183583
0.182885
0.182209
0.181551
0.180913
0.180293
0.17969
0.179105
0.178535
0.177982
0.177445
0.176922
0.176413
0.175919
0.175438
0.17497
0.199395
0.198208
0.19706
0.195948
0.194872
0.193831
0.192822
0.191845
0.190899
0.189982
0.189093
0.188232
0.187396
0.186586
0.1858
0.185038
0.184297
0.183579
0.182882
0.182204
0.181547
0.180908
0.180287
0.179684
0.179098
0.178529
0.177975
0.177437
0.176913
0.176404
0.175909
0.175428
0.174959
0.199395
0.198208
0.19706
0.195948
0.194872
0.19383
0.192822
0.191845
0.190898
0.189981
0.189092
0.18823
0.187395
0.186584
0.185798
0.185035
0.184295
0.183576
0.182878
0.182201
0.181543
0.180903
0.180282
0.179679
0.179092
0.178522
0.177968
0.17743
0.176906
0.176396
0.175901
0.175418
0.174949
0.199395
0.198208
0.19706
0.195948
0.194872
0.19383
0.192821
0.191844
0.190897
0.18998
0.189091
0.188229
0.187393
0.186582
0.185796
0.185033
0.184292
0.183573
0.182875
0.182197
0.181539
0.180899
0.180278
0.179674
0.179087
0.178517
0.177962
0.177423
0.176898
0.176388
0.175892
0.17541
0.17494
0.199395
0.198208
0.197059
0.195948
0.194872
0.19383
0.192821
0.191843
0.190897
0.189979
0.18909
0.188228
0.187392
0.186581
0.185794
0.185031
0.18429
0.18357
0.182872
0.182194
0.181535
0.180895
0.180273
0.179669
0.179082
0.178511
0.177956
0.177416
0.176892
0.176381
0.175884
0.175401
0.174931
0.199395
0.198208
0.197059
0.195948
0.194871
0.193829
0.19282
0.191843
0.190896
0.189978
0.189089
0.188227
0.18739
0.186579
0.185792
0.185029
0.184287
0.183568
0.182869
0.182191
0.181532
0.180891
0.180269
0.179665
0.179077
0.178506
0.17795
0.17741
0.176885
0.176374
0.175877
0.175394
0.174923
0.199395
0.198208
0.197059
0.195947
0.194871
0.193829
0.19282
0.191843
0.190896
0.189978
0.189088
0.188226
0.187389
0.186578
0.185791
0.185027
0.184285
0.183566
0.182867
0.182188
0.181529
0.180888
0.180266
0.179661
0.179073
0.178501
0.177945
0.177405
0.176879
0.176368
0.17587
0.175386
0.174915
0.199395
0.198208
0.197059
0.195947
0.194871
0.193829
0.19282
0.191842
0.190895
0.189977
0.189088
0.188225
0.187388
0.186577
0.185789
0.185025
0.184284
0.183564
0.182864
0.182185
0.181526
0.180885
0.180262
0.179657
0.179069
0.178497
0.177941
0.1774
0.176874
0.176362
0.175864
0.17538
0.174908
0.199395
0.198208
0.197059
0.195947
0.194871
0.193829
0.19282
0.191842
0.190895
0.189977
0.189087
0.188224
0.187387
0.186576
0.185788
0.185024
0.184282
0.183562
0.182862
0.182183
0.181523
0.180882
0.180259
0.179654
0.179065
0.178493
0.177936
0.177395
0.176869
0.176357
0.175858
0.175374
0.174902
0.199395
0.198208
0.197059
0.195947
0.194871
0.193829
0.192819
0.191842
0.190894
0.189976
0.189086
0.188224
0.187387
0.186575
0.185787
0.185023
0.184281
0.18356
0.182861
0.182181
0.181521
0.18088
0.180256
0.179651
0.179062
0.178489
0.177932
0.177391
0.176864
0.176352
0.175853
0.175368
0.174896
0.199395
0.198208
0.197059
0.195947
0.194871
0.193829
0.192819
0.191842
0.190894
0.189976
0.189086
0.188223
0.187386
0.186574
0.185786
0.185022
0.184279
0.183559
0.182859
0.182179
0.181519
0.180877
0.180254
0.179648
0.179059
0.178486
0.177929
0.177387
0.17686
0.176347
0.175848
0.175363
0.17489
0.199395
0.198208
0.197059
0.195947
0.194871
0.193829
0.192819
0.191841
0.190894
0.189976
0.189086
0.188223
0.187385
0.186573
0.185785
0.185021
0.184278
0.183557
0.182857
0.182178
0.181517
0.180875
0.180252
0.179645
0.179056
0.178483
0.177926
0.177383
0.176856
0.176343
0.175844
0.175358
0.174885
0.199395
0.198208
0.197059
0.195947
0.194871
0.193829
0.192819
0.191841
0.190894
0.189976
0.189085
0.188222
0.187385
0.186573
0.185785
0.18502
0.184277
0.183556
0.182856
0.182176
0.181516
0.180874
0.18025
0.179643
0.179054
0.17848
0.177923
0.177381
0.176853
0.17634
0.17584
0.175354
0.174881
0.199395
0.198208
0.197059
0.195947
0.194871
0.193829
0.192819
0.191841
0.190894
0.189975
0.189085
0.188222
0.187385
0.186572
0.185784
0.185019
0.184277
0.183556
0.182855
0.182175
0.181514
0.180872
0.180248
0.179642
0.179052
0.178478
0.177921
0.177378
0.17685
0.176337
0.175837
0.175351
0.174878
0.199395
0.198208
0.197059
0.195947
0.194871
0.193829
0.192819
0.191841
0.190894
0.189975
0.189085
0.188222
0.187385
0.186572
0.185784
0.185019
0.184277
0.183555
0.182855
0.182175
0.181514
0.180872
0.180248
0.179641
0.179051
0.178477
0.177919
0.177377
0.176849
0.176335
0.175835
0.175349
0.174875
0.199395
0.198208
0.197059
0.195947
0.194871
0.193829
0.192819
0.191841
0.190894
0.189976
0.189085
0.188222
0.187385
0.186573
0.185784
0.185019
0.184277
0.183556
0.182856
0.182175
0.181514
0.180872
0.180248
0.179641
0.179051
0.178477
0.177918
0.177375
0.176847
0.176333
0.175832
0.175345
0.174871
0.199395
0.198208
0.197059
0.195947
0.194871
0.193829
0.19282
0.191842
0.190895
0.189978
0.189088
0.188226
0.187389
0.186577
0.185789
0.185025
0.184282
0.183561
0.182861
0.18218
0.181519
0.180876
0.180251
0.179643
0.179051
0.178476
0.177917
0.177372
0.176842
0.176326
0.175823
0.175334
0.174857
0.199395
0.198208
0.197059
0.195948
0.194872
0.193832
0.192824
0.191848
0.190902
0.189986
0.189097
0.188236
0.1874
0.186588
0.1858
0.185035
0.184291
0.183569
0.182867
0.182184
0.181519
0.180873
0.180244
0.179632
0.179036
0.178456
0.177891
0.17734
0.176804
0.176281
0.175772
0.175276
0.174792
0.199395
0.198209
0.197062
0.195955
0.194886
0.193853
0.192854
0.191885
0.190945
0.190032
0.189145
0.188283
0.187445
0.186629
0.185836
0.185063
0.184311
0.183579
0.182865
0.18217
0.181492
0.180832
0.180188
0.179561
0.178949
0.178352
0.17777
0.177202
0.176649
0.176108
0.175581
0.175066
0.174563
0.199395
0.198223
0.197107
0.196032
0.194988
0.193971
0.192978
0.192008
0.191061
0.190137
0.189234
0.188352
0.187492
0.186652
0.185832
0.185032
0.184251
0.183489
0.182745
0.182018
0.181309
0.180616
0.17994
0.17928
0.178635
0.178005
0.17739
0.176788
0.176201
0.175627
0.175067
0.174519
0.173983
0.19941
0.198318
0.197296
0.1963
0.195309
0.194317
0.193327
0.192343
0.191371
0.190414
0.189475
0.188556
0.187659
0.186783
0.185928
0.185095
0.184281
0.183488
0.182715
0.18196
0.181224
0.180505
0.179803
0.179118
0.178449
0.177795
0.177157
0.176533
0.175924
0.175329
0.174748
0.17418
0.173625
0.199716
0.19914
0.198471
0.197765
0.197073
0.196421
0.195815
0.195255
0.194741
0.19427
0.193842
0.193455
0.193107
0.192797
0.192523
0.192283
0.192074
0.191895
0.191744
0.191619
0.191519
0.191441
0.191385
0.191348
0.19133
0.191329
0.191343
0.191373
0.191416
0.191472
0.19154
0.191619
0.191708
0.205424
0.216593
0.22763
0.238434
0.248976
0.259243
0.269229
0.278925
0.288324
0.297421
0.306212
0.314695
0.322869
0.330736
0.338298
0.345558
0.352521
0.359193
0.36558
0.371689
0.377527
0.383103
0.388423
0.393497
0.398332
0.402938
0.407323
0.411495
0.415463
0.419234
0.422818
0.426221
0.429456
0.66153
0.766846
0.869899
0.974221
1.08126
1.18722
1.28591
1.37168
1.44121
1.49411
1.53231
1.55895
1.57731
1.5902
1.59962
1.60678
1.61226
1.61629
1.61892
1.62016
1.62011
1.6189
1.61672
1.61374
1.61011
1.60588
1.60102
1.5954
1.5888
1.58088
1.57121
1.55926
1.54441
1.52597
1.50317
1.4752
1.44132
1.40082
1.35323
1.29835
1.23639
1.16806
1.0947
1.01825
0.94127
0.866827
0.79833
0.73941
0.693908
0.666347
0.664164
0.703065
0.809355
1.00386
1.27512
1.57894
1.86624
2.10519
2.28401
2.40389
2.47178
2.49607
2.48461
2.44407
2.37991
2.2966
2.19778
2.08652
1.96546
1.83696
1.70315
1.56606
1.42759
1.2896
1.15387
1.02213
0.89603
0.777167
0.667043
0.567048
0.478399
0.402041
0.338527
0.287951
0.250093
0.224859
0.212643
0.213662
0.226313
0.246672
0.270183
0.293478
0.314801
0.33353
0.349618
0.363237
0.374628
0.384021
0.39167
0.399003
0.273939
0.28136
0.293635
0.311582
0.336574
0.369957
0.412643
0.464823
0.525757
0.593764
0.666415
0.740857
0.814175
0.883732
0.947439
1.00391
1.0525
1.09321
1.12654
1.15331
1.17445
1.19084
1.20325
1.21229
1.21835
1.22172
1.22251
1.22078
1.21647
1.20945
1.19954
1.18645
1.16985
1.14931
1.12438
1.0946
1.05956
1.01897
0.972719
0.921025
0.864483
0.804147
0.741551
0.678661
0.617757
0.561247
0.511462
0.470528
0.440392
0.423135
0.422483
0.449242
0.529
0.692998
0.944574
1.2455
1.54308
1.79912
1.99692
2.13492
2.21893
2.257
2.2571
2.2262
2.17013
2.0937
2.00094
1.89525
1.77957
1.65654
1.52854
1.39779
1.26638
1.13628
1.00934
0.887336
0.771924
0.664636
0.566859
0.479778
0.404297
0.34093
0.289717
0.250245
0.221912
0.204465
0.198356
0.203971
0.219869
0.242313
0.267003
0.29085
0.312327
0.330977
0.346858
0.360214
0.371325
0.380454
0.387872
0.394971
0.161846
0.16155
0.161558
0.16205
0.163279
0.165553
0.169241
0.174791
0.182727
0.19362
0.208052
0.226548
0.249506
0.277111
0.30926
0.345526
0.385144
0.427066
0.470043
0.512746
0.553894
0.592365
0.627277
0.658018
0.684241
0.705816
0.72277
0.735216
0.743298
0.747146
0.746846
0.742433
0.733885
0.721145
0.70414
0.682821
0.657209
0.627451
0.593884
0.557087
0.517924
0.477534
0.437287
0.398668
0.363124
0.331904
0.305937
0.285822
0.271966
0.264815
0.265319
0.277777
0.319191
0.425194
0.62298
0.893993
1.18657
1.45377
1.67023
1.82891
1.9328
1.98884
2.00472
1.98754
1.94345
1.87765
1.79452
1.69781
1.59079
1.47636
1.35715
1.23554
1.11377
0.993875
0.877778
0.767231
0.663832
0.569001
0.48394
0.409565
0.346425
0.294616
0.25376
0.223105
0.201842
0.189669
0.187163
0.195033
0.212282
0.235551
0.260752
0.284885
0.30648
0.325129
0.340936
0.354184
0.365182
0.374214
0.381561
0.388651
0.157093
0.155955
0.154848
0.153786
0.152795
0.151908
0.151169
0.150635
0.15038
0.150492
0.151082
0.152278
0.154231
0.157107
0.161088
0.166358
0.173095
0.181448
0.191515
0.203317
0.216772
0.231685
0.247739
0.264511
0.281497
0.298146
0.3139
0.32823
0.340663
0.350803
0.358336
0.363036
0.364756
0.363432
0.359078
0.351794
0.341778
0.329339
0.314908
0.299039
0.282394
0.265696
0.249671
0.234968
0.222087
0.211348
0.202891
0.196732
0.192869
0.191407
0.192585
0.197161
0.210684
0.255125
0.369416
0.571
0.827946
1.08873
1.31605
1.49338
1.61823
1.69483
1.72976
1.72985
1.70133
1.64966
1.57955
1.49507
1.39979
1.29684
1.18907
1.07901
0.969009
0.861166
0.757402
0.659432
0.568769
0.486688
0.414182
0.351892
0.300035
0.258368
0.226222
0.202653
0.186761
0.178217
0.177674
0.186177
0.203359
0.226447
0.251597
0.275791
0.297476
0.316196
0.332047
0.345326
0.356356
0.365437
0.372849
0.380121
0.162879
0.161726
0.160582
0.15945
0.158334
0.157237
0.156167
0.155133
0.154149
0.153229
0.152394
0.151667
0.151076
0.150653
0.150434
0.150458
0.150765
0.151399
0.152401
0.153808
0.155652
0.157951
0.16071
0.163911
0.167511
0.171437
0.175587
0.179831
0.184012
0.187959
0.191496
0.19445
0.196671
0.198038
0.198472
0.197945
0.196489
0.194191
0.191196
0.187692
0.183898
0.180041
0.176332
0.17295
0.170029
0.167652
0.165867
0.164694
0.164159
0.164338
0.16537
0.167353
0.17106
0.183146
0.226181
0.334096
0.515754
0.737948
0.956629
1.14283
1.2848
1.38149
1.43682
1.45645
1.44623
1.4116
1.35743
1.28801
1.20713
1.11816
1.02408
0.927569
0.831038
0.736631
0.646257
0.561583
0.484024
0.414706
0.35441
0.303513
0.261944
0.229203
0.204447
0.186663
0.174948
0.168954
0.169317
0.177325
0.193309
0.215296
0.239823
0.263821
0.285543
0.304389
0.320388
0.333819
0.345009
0.354265
0.361858
0.369476
0.167364
0.166337
0.165309
0.164282
0.163256
0.162233
0.161216
0.160205
0.159206
0.158221
0.157256
0.156318
0.155415
0.154556
0.153751
0.153012
0.152352
0.151783
0.15132
0.150973
0.150755
0.150674
0.150735
0.150943
0.151293
0.151777
0.152383
0.153087
0.153861
0.154672
0.155479
0.15624
0.156911
0.157453
0.157834
0.15803
0.158032
0.157846
0.157494
0.157011
0.156443
0.155842
0.155262
0.154749
0.154344
0.154075
0.15396
0.154008
0.154229
0.154647
0.155322
0.156295
0.157547
0.160233
0.171507
0.210518
0.302016
0.450194
0.628448
0.802581
0.949895
1.06089
1.13445
1.17354
1.18271
1.16684
1.13063
1.07839
1.01401
0.940971
0.862363
0.780955
0.699203
0.619273
0.54306
0.472173
0.407925
0.351276
0.302789
0.262587
0.230362
0.205447
0.186941
0.173877
0.165433
0.161266
0.161913
0.168722
0.182639
0.202647
0.225892
0.24933
0.270962
0.289946
0.306171
0.319857
0.331315
0.340853
0.348721
0.356823
0.17028
0.169378
0.16847
0.167556
0.166639
0.165718
0.164795
0.163871
0.162946
0.162024
0.161105
0.160192
0.159289
0.158399
0.157527
0.156676
0.155853
0.155063
0.154312
0.153606
0.152951
0.152353
0.151815
0.151342
0.150935
0.150596
0.150322
0.150112
0.14996
0.149859
0.149799
0.149771
0.149764
0.149766
0.14977
0.149766
0.14975
0.149722
0.149685
0.149646
0.149615
0.149604
0.149626
0.149691
0.149806
0.149975
0.150194
0.150459
0.150762
0.151097
0.151475
0.151909
0.152351
0.152856
0.155028
0.165405
0.197809
0.267949
0.378192
0.510985
0.642051
0.753744
0.837725
0.892237
0.919089
0.921685
0.903966
0.869887
0.823191
0.767317
0.705373
0.640142
0.574091
0.509381
0.447866
0.391075
0.340179
0.295942
0.258694
0.228336
0.204404
0.186182
0.172836
0.163544
0.157634
0.154797
0.15542
0.160722
0.172024
0.189274
0.210481
0.232838
0.254119
0.273165
0.289641
0.303653
0.315465
0.325371
0.333592
0.342289
0.172108
0.171305
0.170495
0.169677
0.168853
0.168023
0.167187
0.166347
0.165503
0.164655
0.163806
0.162957
0.162109
0.161264
0.160424
0.159592
0.158771
0.157962
0.157171
0.156399
0.155651
0.154929
0.154238
0.153581
0.15296
0.152379
0.151837
0.151338
0.150881
0.150466
0.150093
0.14976
0.149466
0.149208
0.148986
0.148798
0.148643
0.148523
0.148438
0.148392
0.148385
0.148421
0.148501
0.148623
0.148784
0.148978
0.149193
0.149417
0.149635
0.14983
0.149988
0.150101
0.150142
0.150052
0.150057
0.151897
0.160636
0.184989
0.233774
0.308482
0.399364
0.491057
0.57066
0.63094
0.669541
0.687164
0.686116
0.669399
0.640216
0.601701
0.556793
0.508174
0.458236
0.40906
0.362395
0.319617
0.281697
0.249177
0.22218
0.20047
0.183556
0.170804
0.161548
0.155169
0.151172
0.149305
0.149804
0.153622
0.16215
0.176095
0.194491
0.215075
0.235557
0.254446
0.271109
0.285462
0.29768
0.308016
0.316642
0.326022
0.173219
0.17249
0.171754
0.17101
0.170259
0.169502
0.168737
0.167967
0.167192
0.166411
0.165627
0.16484
0.164051
0.163261
0.162471
0.161684
0.160901
0.160123
0.159352
0.158592
0.157843
0.157108
0.156391
0.155692
0.155016
0.154363
0.153737
0.15314
0.152574
0.15204
0.151541
0.151077
0.150651
0.150263
0.149916
0.14961
0.149348
0.14913
0.148958
0.148834
0.148757
0.148728
0.148744
0.148801
0.148892
0.149006
0.149132
0.149253
0.149353
0.14941
0.149405
0.149316
0.149119
0.148778
0.148281
0.147976
0.149373
0.15588
0.172402
0.203318
0.249336
0.305661
0.363828
0.415548
0.455243
0.480438
0.491022
0.488343
0.474521
0.451992
0.423238
0.390625
0.356302
0.322132
0.289637
0.259958
0.233831
0.211606
0.193294
0.178657
0.167301
0.158766
0.152594
0.148375
0.145775
0.144609
0.14499
0.147567
0.153535
0.164006
0.178971
0.196998
0.216029
0.234352
0.250995
0.265613
0.278227
0.289019
0.298078
0.308198
0.173862
0.173186
0.172504
0.171814
0.171117
0.170415
0.169705
0.16899
0.168269
0.167542
0.166811
0.166076
0.165338
0.164597
0.163856
0.163113
0.162372
0.161632
0.160896
0.160166
0.159441
0.158725
0.158019
0.157325
0.156645
0.155981
0.155336
0.15471
0.154108
0.153531
0.152981
0.15246
0.151972
0.151518
0.151102
0.150724
0.150389
0.150096
0.14985
0.149649
0.149495
0.149385
0.149318
0.149287
0.149285
0.149302
0.149324
0.149338
0.149325
0.149264
0.149133
0.148908
0.148565
0.148079
0.147427
0.146653
0.146121
0.146931
0.151127
0.161227
0.179149
0.204997
0.23643
0.269256
0.298935
0.321935
0.336328
0.341688
0.338696
0.328706
0.313406
0.294561
0.273851
0.252742
0.232419
0.213743
0.19725
0.183185
0.171563
0.162238
0.154975
0.1495
0.145543
0.142859
0.141243
0.140568
0.14087
0.142532
0.146425
0.153679
0.164946
0.179724
0.196522
0.213654
0.229878
0.244545
0.257456
0.268667
0.278145
0.289027
0.17421
0.173569
0.172923
0.17227
0.171612
0.170948
0.170278
0.169603
0.168923
0.168237
0.167547
0.166853
0.166155
0.165454
0.164751
0.164047
0.163342
0.162638
0.161935
0.161235
0.160538
0.159847
0.159162
0.158486
0.157819
0.157163
0.156521
0.155894
0.155284
0.154694
0.154125
0.153581
0.153064
0.152576
0.152121
0.151699
0.151315
0.15097
0.150665
0.150402
0.150181
0.149999
0.149854
0.149741
0.149652
0.149578
0.149507
0.149424
0.149313
0.149153
0.148925
0.148604
0.148167
0.147594
0.146869
0.145993
0.145042
0.144313
0.144509
0.146746
0.152229
0.161708
0.175019
0.190937
0.207456
0.222362
0.233819
0.240716
0.242736
0.240218
0.233944
0.22492
0.214204
0.202768
0.19142
0.180757
0.171173
0.162873
0.155918
0.150268
0.145822
0.142449
0.14001
0.138374
0.137425
0.137078
0.137332
0.138384
0.140777
0.145413
0.153186
0.164346
0.178177
0.193351
0.208552
0.222866
0.235836
0.247336
0.257156
0.268767
0.17438
0.173761
0.173137
0.172508
0.171875
0.171237
0.170594
0.169946
0.169294
0.168637
0.167976
0.167312
0.166644
0.165973
0.1653
0.164625
0.163949
0.163272
0.162597
0.161922
0.161251
0.160582
0.159918
0.15926
0.158609
0.157967
0.157335
0.156714
0.156107
0.155516
0.154943
0.15439
0.153859
0.153353
0.152874
0.152425
0.152008
0.151624
0.151276
0.150965
0.150689
0.150448
0.150238
0.150055
0.149892
0.14974
0.149588
0.149424
0.14923
0.148991
0.148687
0.148295
0.147795
0.147169
0.146406
0.145504
0.144483
0.14342
0.142525
0.1422
0.143015
0.145514
0.149971
0.1562
0.163552
0.171068
0.177726
0.182683
0.185426
0.185817
0.184038
0.180493
0.1757
0.170188
0.164431
0.158812
0.153602
0.148973
0.145008
0.14173
0.139116
0.137118
0.135677
0.134727
0.134207
0.134064
0.134283
0.13495
0.13636
0.139112
0.144007
0.151673
0.162109
0.174591
0.188023
0.20139
0.214005
0.225532
0.235524
0.247746
0.174451
0.173843
0.173232
0.172617
0.171999
0.171376
0.17075
0.17012
0.169486
0.168848
0.168207
0.167562
0.166914
0.166264
0.165612
0.164958
0.164303
0.163647
0.162992
0.162337
0.161684
0.161034
0.160387
0.159744
0.159107
0.158477
0.157855
0.157242
0.156641
0.156053
0.155479
0.154922
0.154385
0.153868
0.153374
0.152906
0.152465
0.152054
0.151673
0.151323
0.151004
0.150714
0.150451
0.15021
0.149985
0.149769
0.149551
0.149319
0.149059
0.148755
0.148391
0.147946
0.147402
0.146744
0.145962
0.145058
0.144039
0.142934
0.141806
0.140787
0.140095
0.140001
0.140747
0.142426
0.14492
0.147904
0.150933
0.153547
0.155378
0.156211
0.155996
0.154828
0.152899
0.150446
0.147711
0.144908
0.142208
0.139734
0.137561
0.135729
0.134248
0.133109
0.132291
0.131768
0.131505
0.131473
0.131653
0.132076
0.132885
0.134418
0.137239
0.141998
0.149107
0.158458
0.169419
0.181129
0.192803
0.203929
0.213796
0.226389
0.174472
0.17387
0.173265
0.172657
0.172047
0.171432
0.170815
0.170195
0.169571
0.168945
0.168315
0.167683
0.167048
0.166411
0.165772
0.165132
0.164491
0.163849
0.163207
0.162566
0.161927
0.161289
0.160654
0.160022
0.159396
0.158775
0.15816
0.157554
0.156958
0.156372
0.155799
0.15524
0.154697
0.154173
0.153669
0.153186
0.152728
0.152294
0.151887
0.151506
0.151152
0.150823
0.150516
0.150228
0.149952
0.149682
0.149409
0.149121
0.148807
0.148452
0.148039
0.147554
0.146979
0.146302
0.145514
0.144616
0.143616
0.14253
0.141385
0.140228
0.139137
0.138226
0.137621
0.137426
0.137676
0.13831
0.139183
0.140095
0.140848
0.141283
0.141311
0.140912
0.140129
0.139045
0.137765
0.136393
0.135023
0.133729
0.132564
0.131563
0.130744
0.13011
0.129659
0.129378
0.129251
0.129261
0.129392
0.129649
0.130095
0.130899
0.132392
0.135058
0.139392
0.145668
0.153759
0.163168
0.173231
0.183386
0.192688
0.20525
0.174471
0.173871
0.173269
0.172664
0.172056
0.171446
0.170833
0.170218
0.169599
0.168979
0.168355
0.16773
0.167102
0.166473
0.165842
0.16521
0.164577
0.163943
0.16331
0.162677
0.162045
0.161415
0.160788
0.160163
0.159543
0.158928
0.158318
0.157716
0.157122
0.156537
0.155963
0.155402
0.154856
0.154325
0.153811
0.153317
0.152843
0.152391
0.151962
0.151556
0.151173
0.15081
0.150467
0.150139
0.149821
0.149507
0.149188
0.148855
0.148496
0.148098
0.147648
0.147131
0.146534
0.145845
0.145058
0.144172
0.143196
0.14214
0.141024
0.13987
0.138713
0.137598
0.136583
0.135728
0.13508
0.134653
0.134423
0.134328
0.134287
0.134217
0.13405
0.133749
0.133304
0.132731
0.132063
0.131343
0.130614
0.129914
0.129273
0.128713
0.128248
0.127885
0.127625
0.127462
0.127388
0.127391
0.12746
0.127592
0.127809
0.128189
0.128902
0.130241
0.13259
0.136322
0.141629
0.148414
0.156308
0.16488
0.173079
0.185027
0.174462
0.173863
0.173261
0.172656
0.17205
0.17144
0.170829
0.170215
0.169599
0.168981
0.16836
0.167738
0.167114
0.166488
0.165861
0.165233
0.164604
0.163975
0.163346
0.162717
0.162089
0.161463
0.16084
0.160219
0.159601
0.158989
0.158381
0.15778
0.157186
0.1566
0.156025
0.155461
0.154909
0.154371
0.153849
0.153344
0.152856
0.152388
0.15194
0.151512
0.151104
0.150713
0.150339
0.149978
0.149624
0.149272
0.148915
0.148543
0.148146
0.147714
0.147233
0.146692
0.146078
0.145383
0.1446
0.14373
0.142778
0.141755
0.140675
0.139555
0.138415
0.137278
0.136174
0.135132
0.134182
0.133348
0.132638
0.132043
0.131541
0.1311
0.130687
0.130275
0.129847
0.129398
0.12893
0.128457
0.127992
0.12755
0.127146
0.126789
0.126488
0.126246
0.126063
0.125937
0.12586
0.125825
0.125823
0.125848
0.125907
0.126033
0.126305
0.126876
0.127983
0.129923
0.132972
0.137281
0.142786
0.149321
0.155904
0.166534
0.174451
0.173851
0.173248
0.172643
0.172037
0.171427
0.170816
0.170203
0.169587
0.168969
0.16835
0.167728
0.167105
0.166481
0.165855
0.165228
0.164601
0.163973
0.163346
0.162719
0.162092
0.161468
0.160845
0.160225
0.159608
0.158995
0.158387
0.157785
0.15719
0.156602
0.156023
0.155454
0.154896
0.154351
0.15382
0.153304
0.152805
0.152322
0.151856
0.151409
0.150978
0.150563
0.150162
0.149771
0.149386
0.149002
0.148611
0.148207
0.147779
0.147318
0.146812
0.146251
0.145625
0.144926
0.14415
0.143295
0.142368
0.141376
0.140332
0.13925
0.138145
0.137034
0.135933
0.134861
0.133837
0.132875
0.13199
0.131186
0.130464
0.129815
0.129228
0.128691
0.128192
0.127723
0.127281
0.126864
0.126474
0.126115
0.12579
0.125502
0.125252
0.125041
0.124867
0.124726
0.124614
0.124522
0.124444
0.124373
0.124311
0.12427
0.124286
0.124432
0.124832
0.125669
0.127164
0.129526
0.132867
0.137262
0.14194
0.150585
0.174439
0.173838
0.173235
0.17263
0.172022
0.171412
0.1708
0.170186
0.16957
0.168952
0.168333
0.167711
0.167088
0.166463
0.165837
0.165211
0.164584
0.163956
0.163328
0.162701
0.162074
0.161449
0.160826
0.160205
0.159587
0.158973
0.158363
0.157758
0.157159
0.156568
0.155984
0.15541
0.154846
0.154294
0.153753
0.153227
0.152715
0.152218
0.151737
0.151271
0.15082
0.150383
0.149957
0.14954
0.149128
0.148716
0.148297
0.147864
0.147409
0.146923
0.146397
0.145821
0.145185
0.144485
0.143715
0.142876
0.141972
0.141009
0.139999
0.138954
0.137886
0.136809
0.135736
0.134679
0.133653
0.132667
0.131733
0.130859
0.130048
0.129302
0.12862
0.127997
0.127428
0.126909
0.126435
0.126001
0.125606
0.125248
0.124925
0.124635
0.124377
0.124148
0.123945
0.123763
0.123596
0.123439
0.123284
0.123127
0.122964
0.122803
0.122658
0.122562
0.122575
0.122793
0.123351
0.124412
0.12612
0.128665
0.131513
0.13778
0.174428
0.173826
0.173222
0.172616
0.172008
0.171397
0.170784
0.17017
0.169553
0.168934
0.168314
0.167691
0.167068
0.166442
0.165816
0.165189
0.16456
0.163932
0.163303
0.162675
0.162047
0.161421
0.160796
0.160173
0.159553
0.158936
0.158323
0.157715
0.157112
0.156516
0.155928
0.155347
0.154777
0.154216
0.153667
0.15313
0.152606
0.152096
0.151599
0.151117
0.150647
0.15019
0.149743
0.149302
0.148866
0.148428
0.147984
0.147526
0.147048
0.146541
0.145997
0.145408
0.144766
0.144065
0.143303
0.142479
0.141596
0.14066
0.139682
0.13867
0.137637
0.136594
0.135552
0.134522
0.133514
0.132537
0.1316
0.13071
0.129871
0.129087
0.128359
0.127688
0.127072
0.126508
0.125993
0.125524
0.125097
0.124708
0.124355
0.124034
0.12374
0.123471
0.123221
0.122986
0.122759
0.122535
0.122306
0.122069
0.121821
0.121565
0.121306
0.121062
0.120858
0.12074
0.12078
0.121075
0.121729
0.122933
0.124342
0.128273
0.174417
0.173815
0.17321
0.172603
0.171994
0.171382
0.170769
0.170153
0.169536
0.168916
0.168295
0.167672
0.167047
0.166421
0.165793
0.165165
0.164536
0.163906
0.163276
0.162646
0.162017
0.161388
0.160761
0.160136
0.159513
0.158893
0.158277
0.157665
0.157058
0.156457
0.155863
0.155277
0.154699
0.15413
0.153572
0.153025
0.15249
0.151967
0.151456
0.150958
0.150472
0.149996
0.149528
0.149067
0.148608
0.148148
0.147681
0.147202
0.146703
0.146178
0.145619
0.145019
0.144371
0.143671
0.142916
0.142106
0.141242
0.140332
0.139382
0.138402
0.137401
0.13639
0.135378
0.134375
0.13339
0.132431
0.131505
0.130618
0.129775
0.128978
0.128231
0.127535