/*--------------------------------*- C++ -*----------------------------------*\
| =========                 |                                                 |
| \\      /  F ield         | OpenFOAM: The Open Source CFD Toolbox           |
|  \\    /   O peration     | Version:  4.1                                   |
|   \\  /    A nd           | Web:      www.OpenFOAM.org                      |
|    \\/     M anipulation  |                                                 |
\*---------------------------------------------------------------------------*/
FoamFile
{
    version     2.0;
    format      ascii;
    class       volScalarField;
    location    "200";
    object      nut;
}
// * * * * * * * * * * * * * * * * * * * * * * * * * * * * * * * * * * * * * //

dimensions      [0 2 -1 0 0 0 0];

internalField   nonuniform List<scalar> 
6820
(
4.39385e-05
4.87747e-05
5.31526e-05
5.70915e-05
6.05797e-05
6.36106e-05
6.61891e-05
6.83339e-05
7.00758e-05
7.14542e-05
7.25125e-05
7.32952e-05
7.3845e-05
7.42017e-05
7.44009e-05
7.44738e-05
7.44474e-05
7.43441e-05
7.41828e-05
7.39791e-05
7.37455e-05
7.34922e-05
7.32274e-05
7.29574e-05
7.26873e-05
7.24211e-05
7.21617e-05
7.19119e-05
7.16712e-05
7.14524e-05
7.12007e-05
7.11939e-05
7.00713e-05
0.000469409
0.000265612
0.000193518
0.0001525
0.000125543
0.000107029
9.40171e-05
8.46863e-05
7.78859e-05
7.28739e-05
6.9157e-05
6.63974e-05
6.43587e-05
6.28718e-05
6.18136e-05
6.10932e-05
6.06421e-05
6.04081e-05
6.03506e-05
6.04379e-05
6.06448e-05
6.09508e-05
6.13394e-05
6.17967e-05
6.23114e-05
6.28738e-05
6.34756e-05
6.41103e-05
6.47711e-05
6.54561e-05
6.6154e-05
6.68757e-05
6.75719e-05
0.000918059
0.000718791
0.000582216
0.00048877
0.000421571
0.000370774
0.000330997
0.000299105
0.000273064
0.000251468
0.000233317
0.000217888
0.000204645
0.000193182
0.000183188
0.000174418
0.000166679
0.000159818
0.000153709
0.000148249
0.000143353
0.000138952
0.000134984
0.0001314
0.000128157
0.000125219
0.000122552
0.000120131
0.00011793
0.000115927
0.000114106
0.000112441
0.000110911
0.00100704
0.000950022
0.000874011
0.000798202
0.000730788
0.000673105
0.000624115
0.000582368
0.000546543
0.000515541
0.000488483
0.000464673
0.00044356
0.000424708
0.00040777
0.000392464
0.000378565
0.000365885
0.00035427
0.000343591
0.00033374
0.000324624
0.000316164
0.000308293
0.00030095
0.000294086
0.000287654
0.000281615
0.000275934
0.000270578
0.000265521
0.000260726
0.000256187
0.00101631
0.001006
0.000983562
0.000951516
0.000914343
0.000875787
0.000838163
0.000802648
0.000769708
0.000739432
0.000711715
0.000686371
0.000663186
0.000641946
0.000622449
0.000604514
0.000587975
0.00057269
0.000558529
0.000545381
0.000533147
0.00052174
0.000511083
0.000501108
0.000491755
0.000482971
0.000474708
0.000466925
0.000459584
0.000452654
0.000446106
0.000439914
0.000434056
0.00101678
0.00101508
0.00101017
0.0010009
0.00098729
0.000970153
0.000950609
0.000929713
0.000908298
0.000886962
0.0008661
0.000845957
0.000826672
0.000808316
0.000790907
0.000774438
0.000758882
0.0007442
0.000730349
0.000717281
0.00070495
0.000693311
0.00068232
0.000671934
0.000662116
0.00065283
0.000644043
0.000635725
0.000627849
0.000620391
0.000613331
0.000606651
0.00060033
0.00101672
0.00101615
0.001015
0.00101271
0.00100877
0.00100298
0.000995345
0.000986107
0.000975579
0.000964102
0.000951988
0.000939507
0.000926875
0.00091426
0.000901789
0.000889556
0.000877627
0.000866048
0.000854849
0.000844046
0.000833648
0.000823657
0.000814069
0.000804879
0.000796077
0.000787653
0.000779596
0.000771897
0.000764542
0.000757524
0.000750831
0.000744457
0.00073839
0.0010167
0.00101622
0.00101568
0.00101493
0.00101376
0.00101199
0.00100945
0.00100608
0.00100187
0.000996862
0.000991161
0.000984873
0.000978114
0.000970996
0.000963619
0.000956074
0.000948438
0.000940774
0.000933137
0.000925568
0.000918105
0.000910772
0.000903594
0.000896585
0.000889759
0.000883126
0.000876691
0.00087046
0.000864436
0.000858623
0.00085302
0.00084763
0.000842449
0.0010167
0.00101622
0.00101574
0.00101525
0.00101469
0.001014
0.00101308
0.00101187
0.00101032
0.00100838
0.00100604
0.00100331
0.00100022
0.000996788
0.000993065
0.000989089
0.000984905
0.000980553
0.000976072
0.000971498
0.000966862
0.000962192
0.000957514
0.00095285
0.000948218
0.000943634
0.000939113
0.000934667
0.000930306
0.000926039
0.000921874
0.000917817
0.000913871
0.0010167
0.00101621
0.00101574
0.00101529
0.00101483
0.00101436
0.00101385
0.00101327
0.00101258
0.00101177
0.0010108
0.00100965
0.00100832
0.0010068
0.0010051
0.00100322
0.00100118
0.00099898
0.000996648
0.000994199
0.000991648
0.000989014
0.000986312
0.000983558
0.000980765
0.000977949
0.00097512
0.00097229
0.00096947
0.000966668
0.000963895
0.000961155
0.000958458
0.0010167
0.00101621
0.00101574
0.00101529
0.00101484
0.00101441
0.00101398
0.00101354
0.00101309
0.0010126
0.00101208
0.0010115
0.00101086
0.00101014
0.00100934
0.00100845
0.00100748
0.00100641
0.00100527
0.00100404
0.00100274
0.00100137
0.000999936
0.000998447
0.000996909
0.00099533
0.000993717
0.000992078
0.000990419
0.000988746
0.000987065
0.000985383
0.000983705
0.0010167
0.00101621
0.00101574
0.00101528
0.00101484
0.00101441
0.00101399
0.00101358
0.00101318
0.00101277
0.00101237
0.00101196
0.00101153
0.00101109
0.00101062
0.00101012
0.00100959
0.00100903
0.00100842
0.00100778
0.00100711
0.00100639
0.00100564
0.00100485
0.00100403
0.00100318
0.0010023
0.0010014
0.00100047
0.00099953
0.000998573
0.000997605
0.000996629
0.0010167
0.00101621
0.00101574
0.00101528
0.00101484
0.00101441
0.00101399
0.00101358
0.00101318
0.0010128
0.00101242
0.00101205
0.00101168
0.00101131
0.00101095
0.00101058
0.0010102
0.00100982
0.00100943
0.00100903
0.00100861
0.00100818
0.00100774
0.00100728
0.00100681
0.00100632
0.00100582
0.00100531
0.00100479
0.00100425
0.0010037
0.00100315
0.00100259
0.0010167
0.00101621
0.00101574
0.00101528
0.00101484
0.0010144
0.00101399
0.00101358
0.00101318
0.0010128
0.00101242
0.00101206
0.0010117
0.00101135
0.00101101
0.00101068
0.00101035
0.00101002
0.0010097
0.00100938
0.00100906
0.00100874
0.00100841
0.00100809
0.00100776
0.00100744
0.0010071
0.00100677
0.00100643
0.00100609
0.00100575
0.0010054
0.00100505
0.0010167
0.00101621
0.00101574
0.00101528
0.00101483
0.0010144
0.00101398
0.00101357
0.00101318
0.00101279
0.00101242
0.00101205
0.0010117
0.00101136
0.00101102
0.00101069
0.00101037
0.00101006
0.00100976
0.00100946
0.00100917
0.00100888
0.0010086
0.00100832
0.00100805
0.00100778
0.00100751
0.00100724
0.00100698
0.00100672
0.00100646
0.00100621
0.00100595
0.0010167
0.00101621
0.00101574
0.00101528
0.00101483
0.0010144
0.00101398
0.00101357
0.00101317
0.00101279
0.00101241
0.00101205
0.00101169
0.00101135
0.00101102
0.00101069
0.00101037
0.00101006
0.00100976
0.00100947
0.00100918
0.00100891
0.00100864
0.00100837
0.00100811
0.00100786
0.00100761
0.00100737
0.00100714
0.0010069
0.00100668
0.00100645
0.00100624
0.0010167
0.00101621
0.00101574
0.00101528
0.00101483
0.0010144
0.00101398
0.00101357
0.00101317
0.00101279
0.00101241
0.00101204
0.00101169
0.00101134
0.00101101
0.00101068
0.00101036
0.00101006
0.00100976
0.00100946
0.00100918
0.0010089
0.00100863
0.00100837
0.00100812
0.00100787
0.00100763
0.00100739
0.00100716
0.00100694
0.00100672
0.00100651
0.0010063
0.0010167
0.00101621
0.00101574
0.00101528
0.00101483
0.0010144
0.00101398
0.00101357
0.00101317
0.00101278
0.00101241
0.00101204
0.00101169
0.00101134
0.001011
0.00101068
0.00101036
0.00101005
0.00100975
0.00100945
0.00100917
0.00100889
0.00100862
0.00100836
0.00100811
0.00100786
0.00100762
0.00100738
0.00100715
0.00100693
0.00100672
0.00100651
0.0010063
0.0010167
0.00101621
0.00101574
0.00101528
0.00101483
0.0010144
0.00101398
0.00101357
0.00101317
0.00101278
0.0010124
0.00101204
0.00101168
0.00101133
0.001011
0.00101067
0.00101035
0.00101004
0.00100974
0.00100945
0.00100916
0.00100888
0.00100861
0.00100835
0.00100809
0.00100784
0.0010076
0.00100737
0.00100714
0.00100692
0.0010067
0.00100649
0.00100628
0.0010167
0.00101621
0.00101574
0.00101528
0.00101483
0.0010144
0.00101397
0.00101356
0.00101317
0.00101278
0.0010124
0.00101203
0.00101168
0.00101133
0.00101099
0.00101066
0.00101035
0.00101003
0.00100973
0.00100944
0.00100915
0.00100887
0.0010086
0.00100834
0.00100808
0.00100783
0.00100759
0.00100735
0.00100712
0.0010069
0.00100668
0.00100647
0.00100626
0.0010167
0.00101621
0.00101574
0.00101528
0.00101483
0.0010144
0.00101397
0.00101356
0.00101316
0.00101278
0.0010124
0.00101203
0.00101167
0.00101133
0.00101099
0.00101066
0.00101034
0.00101003
0.00100973
0.00100943
0.00100914
0.00100886
0.00100859
0.00100833
0.00100807
0.00100782
0.00100757
0.00100734
0.00100711
0.00100688
0.00100666
0.00100645
0.00100624
0.0010167
0.00101621
0.00101574
0.00101528
0.00101483
0.00101439
0.00101397
0.00101356
0.00101316
0.00101277
0.0010124
0.00101203
0.00101167
0.00101132
0.00101099
0.00101066
0.00101034
0.00101002
0.00100972
0.00100942
0.00100914
0.00100886
0.00100858
0.00100832
0.00100806
0.00100781
0.00100756
0.00100732
0.00100709
0.00100686
0.00100664
0.00100643
0.00100622
0.0010167
0.00101621
0.00101574
0.00101528
0.00101483
0.00101439
0.00101397
0.00101356
0.00101316
0.00101277
0.00101239
0.00101203
0.00101167
0.00101132
0.00101098
0.00101065
0.00101033
0.00101002
0.00100971
0.00100942
0.00100913
0.00100885
0.00100857
0.00100831
0.00100805
0.0010078
0.00100755
0.00100731
0.00100708
0.00100685
0.00100663
0.00100641
0.0010062
0.0010167
0.00101621
0.00101574
0.00101528
0.00101483
0.00101439
0.00101397
0.00101356
0.00101316
0.00101277
0.00101239
0.00101202
0.00101167
0.00101132
0.00101098
0.00101065
0.00101033
0.00101001
0.00100971
0.00100941
0.00100912
0.00100884
0.00100857
0.0010083
0.00100804
0.00100779
0.00100754
0.0010073
0.00100706
0.00100684
0.00100661
0.0010064
0.00100619
0.0010167
0.00101621
0.00101574
0.00101528
0.00101483
0.00101439
0.00101397
0.00101356
0.00101316
0.00101277
0.00101239
0.00101202
0.00101166
0.00101132
0.00101098
0.00101065
0.00101032
0.00101001
0.0010097
0.00100941
0.00100912
0.00100884
0.00100856
0.00100829
0.00100803
0.00100778
0.00100753
0.00100729
0.00100705
0.00100682
0.0010066
0.00100638
0.00100617
0.0010167
0.00101621
0.00101574
0.00101528
0.00101483
0.00101439
0.00101397
0.00101356
0.00101316
0.00101277
0.00101239
0.00101202
0.00101166
0.00101131
0.00101097
0.00101064
0.00101032
0.00101001
0.0010097
0.0010094
0.00100911
0.00100883
0.00100855
0.00100829
0.00100802
0.00100777
0.00100752
0.00100728
0.00100704
0.00100681
0.00100659
0.00100637
0.00100616
0.0010167
0.00101621
0.00101574
0.00101528
0.00101483
0.00101439
0.00101397
0.00101356
0.00101316
0.00101277
0.00101239
0.00101202
0.00101166
0.00101131
0.00101097
0.00101064
0.00101032
0.00101
0.0010097
0.0010094
0.00100911
0.00100882
0.00100855
0.00100828
0.00100802
0.00100776
0.00100751
0.00100727
0.00100703
0.0010068
0.00100658
0.00100636
0.00100615
0.0010167
0.00101621
0.00101574
0.00101528
0.00101483
0.00101439
0.00101397
0.00101356
0.00101316
0.00101277
0.00101239
0.00101202
0.00101166
0.00101131
0.00101097
0.00101064
0.00101032
0.00101
0.00100969
0.00100939
0.0010091
0.00100882
0.00100854
0.00100827
0.00100801
0.00100776
0.00100751
0.00100726
0.00100702
0.00100679
0.00100657
0.00100635
0.00100613
0.0010167
0.00101621
0.00101574
0.00101528
0.00101483
0.00101439
0.00101397
0.00101356
0.00101316
0.00101277
0.00101239
0.00101202
0.00101166
0.00101131
0.00101097
0.00101064
0.00101031
0.00101
0.00100969
0.00100939
0.0010091
0.00100882
0.00100854
0.00100827
0.00100801
0.00100775
0.0010075
0.00100726
0.00100702
0.00100679
0.00100656
0.00100634
0.00100612
0.0010167
0.00101621
0.00101574
0.00101528
0.00101483
0.00101439
0.00101397
0.00101356
0.00101316
0.00101277
0.00101239
0.00101202
0.00101166
0.00101131
0.00101097
0.00101064
0.00101031
0.00101
0.00100969
0.00100939
0.0010091
0.00100881
0.00100854
0.00100827
0.001008
0.00100774
0.00100749
0.00100725
0.00100701
0.00100678
0.00100655
0.00100633
0.00100611
0.0010167
0.00101621
0.00101574
0.00101528
0.00101483
0.00101439
0.00101397
0.00101356
0.00101316
0.00101277
0.00101239
0.00101202
0.00101166
0.00101131
0.00101097
0.00101063
0.00101031
0.00101
0.00100969
0.00100939
0.0010091
0.00100881
0.00100853
0.00100826
0.001008
0.00100774
0.00100749
0.00100724
0.001007
0.00100677
0.00100654
0.00100632
0.0010061
0.0010167
0.00101621
0.00101574
0.00101528
0.00101483
0.00101439
0.00101397
0.00101356
0.00101316
0.00101277
0.00101239
0.00101202
0.00101166
0.00101131
0.00101097
0.00101063
0.00101031
0.00100999
0.00100968
0.00100938
0.00100909
0.0010088
0.00100852
0.00100825
0.00100798
0.00100772
0.00100746
0.00100721
0.00100697
0.00100673
0.00100649
0.00100626
0.00100604
0.0010167
0.00101621
0.00101574
0.00101528
0.00101483
0.00101439
0.00101397
0.00101356
0.00101316
0.00101277
0.00101239
0.00101202
0.00101166
0.0010113
0.00101096
0.00101062
0.00101029
0.00100997
0.00100966
0.00100935
0.00100904
0.00100874
0.00100845
0.00100816
0.00100788
0.0010076
0.00100732
0.00100705
0.00100678
0.00100651
0.00100625
0.00100599
0.00100573
0.0010167
0.00101621
0.00101574
0.00101528
0.00101483
0.00101439
0.00101397
0.00101356
0.00101316
0.00101276
0.00101237
0.00101199
0.00101162
0.00101125
0.00101088
0.00101051
0.00101015
0.00100979
0.00100942
0.00100906
0.00100869
0.00100833
0.00100796
0.00100758
0.00100721
0.00100684
0.00100646
0.00100608
0.00100569
0.00100531
0.00100492
0.00100453
0.00100414
0.0010167
0.00101621
0.00101574
0.00101527
0.00101482
0.00101438
0.00101394
0.0010135
0.00101305
0.0010126
0.00101213
0.00101165
0.00101115
0.00101063
0.00101009
0.00100953
0.00100894
0.00100833
0.0010077
0.00100704
0.00100637
0.00100567
0.00100494
0.0010042
0.00100345
0.00100267
0.00100188
0.00100107
0.00100025
0.000999419
0.000998578
0.000997727
0.000996869
0.0010167
0.00101621
0.00101571
0.00101519
0.00101464
0.00101403
0.00101334
0.00101256
0.00101168
0.00101069
0.0010096
0.00100839
0.00100707
0.00100566
0.00100414
0.00100253
0.00100084
0.000999074
0.000997237
0.000995338
0.000993386
0.000991386
0.000989347
0.000987274
0.000985174
0.000983053
0.000980916
0.000978768
0.000976614
0.000974459
0.000972305
0.000970157
0.000968018
0.00101669
0.00101596
0.00101486
0.00101329
0.00101119
0.00100857
0.00100544
0.00100185
0.000997828
0.000993432
0.000988712
0.000983719
0.000978504
0.000973111
0.000967583
0.000961958
0.00095627
0.000950547
0.000944815
0.000939098
0.000933412
0.000927776
0.000922201
0.000916699
0.00091128
0.000905951
0.000900717
0.000895584
0.000890556
0.000885634
0.000880821
0.000876117
0.000871523
0.00101524
0.00100707
0.000994969
0.000980647
0.000964818
0.000947936
0.000930383
0.000912507
0.0008946
0.000876892
0.000859545
0.000842674
0.000826352
0.000810623
0.000795511
0.000781021
0.000767147
0.000753878
0.000741195
0.000729075
0.000717497
0.000706435
0.000695865
0.000685762
0.000676102
0.000666864
0.000658024
0.000649561
0.000641456
0.00063369
0.000626244
0.000619103
0.000612249
0.000934352
0.000813408
0.000726832
0.000658812
0.000603121
0.000556749
0.000517798
0.00048479
0.000456537
0.000432117
0.000410823
0.000392105
0.000375536
0.000360774
0.000347547
0.000335638
0.000324865
0.000315081
0.000306164
0.000298009
0.00029053
0.000283651
0.000277309
0.000271449
0.000266022
0.000260987
0.000256307
0.000251949
0.000247886
0.000244091
0.000240541
0.000237218
0.000234101
0.000125479
0.000128845
0.000132087
0.000135185
0.000138141
0.000140961
0.00014365
0.000146214
0.000148657
0.000150984
0.000153199
0.000155306
0.000157311
0.000159216
0.000161025
0.000162744
0.000164376
0.000165924
0.000167393
0.000168786
0.000170106
0.000171358
0.000172544
0.000173667
0.000174731
0.000175739
0.000176693
0.000177595
0.00017845
0.000179258
0.000180023
0.000180746
0.000181431
8.05285e-05
9.54957e-05
0.000113116
0.00013409
0.000158512
0.000185583
0.00021401
0.000242497
0.000270101
0.00029641
0.000321475
0.000345619
0.000369243
0.00039267
0.000416091
0.000439552
0.000463007
0.00048637
0.00050957
0.000532581
0.000555429
0.000578175
0.000600898
0.000623672
0.000646546
0.000669536
0.000692619
0.000715726
0.000738745
0.000761512
0.000783806
0.000805341
0.000825758
0.000844622
0.000861421
0.000875579
0.000886485
0.000893529
0.000896165
0.000893983
0.000886799
0.000874745
0.00085837
0.000838718
0.000817393
0.00079659
0.000779105
0.000768354
0.000768487
0.000785022
0.000827957
0.000920249
0.00110319
0.00141215
0.00183122
0.00229133
0.00271785
0.0030665
0.0033248
0.00349851
0.00359998
0.00364206
0.00363592
0.00359063
0.00351348
0.00341035
0.00328606
0.00314469
0.00298974
0.00282433
0.00265126
0.00247308
0.00229218
0.00211081
0.00193111
0.00175517
0.00158508
0.00142297
0.00127113
0.00113208
0.00100863
0.000903906
0.00082131
0.000764688
0.000739356
0.000754952
0.000828702
0.000981416
0.00121846
0.00151153
0.00181131
0.00207818
0.00229532
0.00246246
0.00258643
0.00267546
0.00273707
0.002777
0.00280273
0.00280702
6.86696e-05
7.04439e-05
7.30857e-05
7.70223e-05
8.27467e-05
9.07504e-05
0.000101446
0.00011509
0.000131721
0.000151133
0.00017291
0.000196482
0.000221216
0.000246496
0.000271797
0.000296737
0.000321092
0.000344781
0.000367832
0.000390336
0.0004124
0.000434116
0.000455535
0.000476668
0.000497492
0.000517958
0.000537999
0.000557537
0.000576476
0.000594698
0.000612046
0.000628318
0.000643254
0.000656535
0.000667784
0.000676581
0.000682485
0.000685079
0.000684025
0.000679139
0.000670474
0.000658409
0.000643722
0.00062764
0.000611837
0.000598364
0.000589528
0.000587759
0.000595539
0.000615591
0.000652828
0.000722745
0.000863859
0.00112391
0.00150688
0.00195242
0.00238147
0.00274149
0.00301389
0.00320128
0.00331481
0.00336709
0.00336947
0.00333136
0.00326037
0.00316271
0.00304351
0.00290712
0.00275728
0.00259731
0.00243019
0.00225865
0.00208521
0.00191225
0.00174203
0.00157678
0.00141871
0.00127012
0.00113346
0.00101135
0.00090665
0.000822311
0.000761333
0.000726935
0.000723798
0.000761303
0.0008569
0.00103062
0.00128397
0.00158411
0.00188154
0.00214045
0.00234782
0.00250555
0.00262124
0.00270323
0.0027589
0.00279378
0.00281539
0.00281488
0.000109119
0.000107334
0.000105757
0.000104395
0.000103256
0.000102374
0.00010184
0.000101817
0.000102545
0.000104331
0.000107525
0.000112471
0.000119463
0.000128704
0.000140274
0.000154123
0.000170067
0.000187807
0.000206959
0.000227092
0.000247774
0.000268611
0.000289275
0.000309518
0.000329171
0.000348124
0.000366308
0.00038367
0.000400155
0.000415687
0.000430161
0.00044344
0.000455355
0.000465706
0.000474276
0.000480847
0.000485226
0.000487287
0.000487022
0.000484604
0.000480453
0.000475287
0.000470148
0.000466366
0.000465453
0.000468912
0.000477995
0.000493481
0.000515614
0.000544189
0.000579327
0.000626885
0.000712154
0.000886251
0.00118871
0.0015883
0.00200523
0.00237349
0.00266279
0.00286908
0.0030005
0.0030687
0.00308492
0.00305885
0.00299848
0.0029104
0.0028001
0.00267222
0.00253079
0.00237936
0.0022211
0.00205891
0.00189547
0.00173327
0.00157471
0.00142214
0.00127788
0.00114435
0.00102407
0.00091967
0.000833833
0.000769141
0.000727964
0.000712627
0.00072665
0.000778132
0.000883471
0.00106207
0.00131528
0.00161123
0.00190258
0.00215545
0.00235775
0.00251148
0.00262406
0.00270362
0.0027573
0.00279052
0.00281082
0.00280869
0.00025105
0.000245465
0.000240314
0.00023561
0.000231279
0.000227201
0.000223248
0.000219294
0.00021522
0.000210931
0.000206377
0.00020158
0.000196652
0.000191803
0.000187326
0.000183566
0.000180878
0.000179584
0.000179936
0.000182098
0.000186127
0.000191984
0.000199539
0.000208589
0.000218879
0.000230124
0.000242027
0.000254303
0.000266686
0.000278941
0.00029087
0.000302307
0.000313123
0.000323225
0.000332567
0.000341159
0.000349085
0.000356536
0.000363837
0.000371475
0.000380103
0.000390526
0.000403614
0.000420179
0.000440786
0.000465581
0.000494179
0.000525696
0.000558967
0.000592747
0.000625657
0.000658746
0.000704307
0.000788028
0.000957058
0.00125054
0.00161767
0.0019771
0.0022784
0.00250464
0.00265759
0.00274624
0.00278101
0.00277152
0.00272605
0.00265154
0.00255383
0.00243791
0.00230808
0.00216814
0.00202147
0.00187114
0.00171998
0.00157063
0.00142561
0.00128736
0.00115835
0.00104106
0.000938031
0.000851799
0.000784747
0.000738945
0.000715991
0.000717108
0.00074424
0.000803371
0.000908758
0.00107925
0.00131899
0.00160141
0.00188308
0.00213077
0.0023312
0.00248496
0.00259849
0.00267933
0.00273435
0.00276879
0.00279022
0.0027893
0.000427595
0.000420545
0.000413839
0.000407516
0.000401582
0.000396006
0.000390737
0.000385709
0.000380842
0.000376041
0.000371201
0.000366215
0.000360977
0.0003554
0.000349422
0.000343024
0.000336244
0.000329179
0.000321991
0.000314895
0.000308146
0.000302013
0.000296754
0.000292592
0.000289703
0.000288202
0.000288151
0.000289557
0.000292387
0.000296581
0.000302068
0.000308776
0.000316655
0.000325687
0.000335898
0.000347367
0.000360237
0.000374712
0.000391043
0.000409508
0.000430368
0.000453807
0.000479865
0.000508379
0.000538951
0.000570947
0.000603554
0.000635866
0.000667032
0.000696393
0.000723063
0.000746108
0.000771854
0.000819962
0.000894164
0.00102828
0.00127646
0.00158442
0.00187765
0.00211659
0.00229017
0.0024013
0.00245788
0.00246869
0.00244188
0.00238459
0.00230294
0.00220221
0.00208698
0.00196129
0.00182874
0.00169258
0.00155579
0.00142117
0.00129137
0.00116896
0.00105653
0.000956621
0.000871733
0.00080418
0.000755916
0.000728332
0.000722082
0.000737131
0.000773701
0.000835362
0.000933633
0.00108655
0.00130261
0.00156338
0.00183113
0.002073
0.00227316
0.00242963
0.00254711
0.00263221
0.00269134
0.0027295
0.00275423
0.0027571
0.000593391
0.000585831
0.000578569
0.00057162
0.000564994
0.000558689
0.000552691
0.000546985
0.000541544
0.000536338
0.000531326
0.000526466
0.000521707
0.000516998
0.000512285
0.00050752
0.00050266
0.000497674
0.000492552
0.000487306
0.000481981
0.000476651
0.000471423
0.000466434
0.000461844
0.000457832
0.000454581
0.000452276
0.000451096
0.000451206
0.000452756
0.000455884
0.00046071
0.000467346
0.00047589
0.000486431
0.000499045
0.000513784
0.000530667
0.000549662
0.000570667
0.000593491
0.000617845
0.000643339
0.000669493
0.000695768
0.000721598
0.000746427
0.000769769
0.000791306
0.000810745
0.000827078
0.000840788
0.000864362
0.000917561
0.000980053
0.00107321
0.00125998
0.00149866
0.00172652
0.00191039
0.00204067
0.00211922
0.00215216
0.00214662
0.00210943
0.00204676
0.00196406
0.00186613
0.00175722
0.00164113
0.0015213
0.00140088
0.00128285
0.00117
0.00106509
0.000970775
0.000889613
0.00082393
0.000775643
0.000746055
0.000735671
0.000744063
0.00076997
0.000812159
0.000872143
0.000958641
0.00108824
0.00127356
0.00150569
0.0017545
0.00198821
0.00218803
0.00234852
0.00247197
0.00256358
0.00262907
0.00267311
0.00270304
0.00271214
0.000731683
0.000724328
0.000717202
0.000710313
0.00070367
0.000697274
0.000691126
0.000685222
0.000679558
0.000674128
0.000668925
0.00066394
0.000659163
0.000654583
0.000650189
0.00064597
0.000641915
0.000638014
0.000634262
0.000630655
0.000627202
0.000623918
0.000620833
0.000617993
0.000615459
0.000613309
0.00061164
0.000610561
0.000610195
0.000610674
0.000612131
0.000614704
0.000618519
0.000623698
0.000630343
0.000638535
0.000648325
0.000659729
0.00067272
0.000687217
0.000703086
0.000720131
0.000738099
0.000756686
0.000775548
0.000794318
0.00081263
0.00083013
0.000846498
0.000861495
0.000874998
0.000886601
0.000895398
0.000904199
0.00092804
0.000980112
0.00103157
0.00109031
0.00121323
0.00138133
0.00154735
0.00168247
0.00177653
0.00182938
0.00184512
0.00182925
0.00178738
0.0017248
0.00164636
0.00155641
0.00145893
0.00135752
0.00125553
0.0011561
0.00106222
0.000976744
0.000902355
0.000841432
0.000795893
0.000766993
0.000755156
0.000759868
0.00077969
0.000812485
0.000856236
0.00091118
0.00098357
0.00108769
0.00123865
0.00143666
0.00166091
0.00188252
0.00208018
0.00224456
0.0023749
0.00247452
0.00254811
0.00259981
0.0026366
0.00265416
0.000836663
0.000830243
0.000823947
0.000817788
0.000811777
0.000805921
0.000800225
0.000794694
0.000789332
0.000784143
0.000779131
0.0007743
0.000769656
0.000765204
0.000760952
0.000756908
0.000753081
0.00074948
0.000746117
0.000743002
0.00074015
0.000737577
0.000735303
0.000733353
0.000731756
0.000730553
0.000729787
0.000729514
0.000729795
0.000730698
0.000732298
0.000734671
0.000737895
0.000742041
0.000747174
0.000753344
0.000760582
0.000768894
0.000778257
0.000788614
0.00079987
0.000811891
0.000824507
0.000837517
0.000850693
0.000863795
0.000876577
0.000888796
0.000900226
0.000910665
0.00091998
0.000928022
0.000934275
0.000938505
0.000945207
0.000967693
0.00101267
0.001055
0.00108968
0.00115663
0.00125835
0.00136633
0.00145698
0.00151936
0.00155114
0.00155433
0.00153276
0.00149084
0.00143305
0.00136361
0.00128653
0.0012055
0.00112403
0.00104537
0.000972613
0.000908562
0.000855668
0.000815848
0.000790319
0.000779453
0.000782721
0.000798746
0.000825482
0.000860568
0.000901986
0.000949508
0.00100742
0.00108702
0.00120352
0.00136419
0.00155835
0.00176253
0.00195444
0.00212101
0.00225794
0.00236617
0.00244897
0.0025097
0.0025547
0.00258279
0.000909408
0.000904388
0.000899395
0.000894441
0.000889539
0.0008847
0.000879932
0.000875243
0.000870643
0.00086614
0.00086174
0.000857455
0.000853294
0.000849268
0.00084539
0.000841674
0.000838135
0.00083479
0.000831656
0.000828752
0.000826096
0.000823709
0.000821612
0.000819826
0.000818378
0.000817292
0.000816599
0.000816329
0.000816518
0.000817203
0.000818424
0.000820221
0.000822635
0.000825704
0.000829461
0.000833932
0.000839132
0.00084506
0.000851698
0.000859007
0.000866923
0.000875361
0.00088421
0.000893336
0.00090259
0.000911807
0.000920816
0.000929445
0.000937522
0.000944882
0.00095138
0.0009569
0.000961232
0.000963976
0.000965671
0.00097105
0.000989852
0.00102529
0.00106
0.0010817
0.00110938
0.00115591
0.00121154
0.00126106
0.0012945
0.00130802
0.00130175
0.00127793
0.00123981
0.00119098
0.00113512
0.00107579
0.00101641
0.000960164
0.00090993
0.000868161
0.000836739
0.000816832
0.000808797
0.000812166
0.000825735
0.000847764
0.00087625
0.00090925
0.00094529
0.000984172
0.0010287
0.00108697
0.00117212
0.00129525
0.001455
0.00163566
0.00181654
0.00198188
0.00212371
0.00224009
0.00233243
0.00240302
0.00245718
0.00249761
0.000955362
0.000951827
0.000948256
0.000944659
0.000941045
0.000937424
0.000933806
0.000930199
0.000926612
0.000923055
0.000919537
0.000916068
0.000912659
0.000909321
0.000906067
0.000902912
0.000899871
0.00089696
0.000894198
0.000891602
0.000889192
0.000886989
0.000885012
0.000883284
0.000881825
0.00088066
0.00087981
0.0008793
0.000879155
0.000879399
0.000880058
0.000881157
0.00088272
0.000884768
0.00088732
0.00089039
0.000893984
0.0008981
0.000902723
0.000907828
0.00091337
0.000919294
0.000925523
0.000931969
0.000938527
0.000945083
0.00095151
0.000957681
0.000963461
0.000968714
0.000973306
0.000977114
0.000980013
0.000981806
0.00098235
0.000982619
0.000986541
0.00100049
0.00102637
0.00105406
0.00107108
0.00108014
0.00109144
0.0011071
0.00112194
0.00113003
0.00112788
0.00111466
0.00109141
0.00106029
0.00102401
0.00098549
0.000947609
0.000913022
0.000884002
0.00086229
0.000848975
0.000844438
0.000848362
0.000859839
0.000877551
0.000900002
0.000925736
0.000953526
0.000982555
0.00101278
0.00104591
0.00108718
0.00114643
0.00123517
0.00135872
0.00151018
0.00167355
0.00183245
0.00197582
0.00209857
0.00219981
0.00228036
0.00234412
0.00239831
0.00098175
0.000979484
0.000977157
0.000974776
0.000972346
0.000969874
0.000967366
0.00096483
0.000962272
0.0009597
0.000957122
0.000954547
0.000951982
0.00094944
0.00094693
0.000944464
0.000942056
0.000939719
0.000937469
0.000935321
0.000933291
0.000931398
0.00092966
0.000928094
0.000926721
0.00092556
0.000924631
0.000923953
0.000923547
0.000923433
0.000923629
0.000924156
0.00092503
0.000926267
0.00092788
0.00092988
0.000932271
0.000935051
0.000938211
0.000941735
0.000945593
0.000949746
0.000954143
0.000958722
0.000963407
0.000968114
0.00097275
0.000977213
0.000981396
0.000985186
0.000988465
0.000991114
0.000993025
0.000994091
0.000994193
0.000993419
0.000992786
0.000995099
0.00100427
0.00102169
0.00104243
0.00105777
0.00106353
0.0010624
0.00105831
0.00105243
0.00104386
0.00103147
0.00101493
0.000994887
0.000972685
0.000950084
0.000928934
0.000910945
0.000897491
0.000889485
0.000887317
0.000890867
0.000899586
0.000912629
0.00092902
0.000947805
0.000968164
0.000989479
0.00101139
0.00103393
0.00105804
0.00108674
0.00112648
0.00118677
0.00127591
0.0013946
0.00153385
0.00167964
0.0018194
0.00194514
0.00205336
0.00214303
0.00221611
0.00228487
0.000995477
0.000994123
0.000992712
0.000991248
0.000989731
0.000988165
0.000986554
0.000984901
0.00098321
0.000981486
0.000979736
0.000977963
0.000976176
0.000974381
0.000972586
0.0009708
0.000969033
0.000967295
0.000965598
0.000963953
0.000962374
0.000960875
0.000959471
0.000958175
0.000957004
0.000955974
0.000955102
0.000954404
0.000953897
0.000953597
0.000953522
0.000953687
0.000954106
0.000954794
0.000955762
0.000957019
0.000958572
0.000960421
0.000962562
0.000964985
0.000967673
0.000970597
0.000973723
0.000977006
0.00098039
0.000983812
0.000987199
0.000990471
0.000993539
0.000996307
0.000998675
0.00100054
0.00100179
0.00100235
0.00100217
0.0010012
0.000999672
0.000998408
0.000999222
0.00100441
0.00101504
0.00102912
0.00104196
0.00104918
0.00104935
0.00104364
0.00103393
0.00102166
0.00100777
0.000993019
0.000978258
0.000964421
0.000952459
0.000943213
0.000937299
0.000935046
0.000936476
0.000941342
0.0009492
0.000959502
0.000971692
0.00098527
0.000999839
0.00101512
0.00103095
0.00104735
0.00106478
0.00108477
0.00111104
0.00115017
0.00121016
0.00129622
0.00140646
0.00153204
0.00166145
0.00178501
0.00189671
0.00199343
0.00207457
0.00215787
0.00100192
0.00100113
0.0010003
0.00099943
0.000998519
0.000997568
0.000996578
0.000995551
0.000994488
0.000993392
0.000992266
0.000991112
0.000989935
0.000988739
0.000987529
0.000986312
0.000985092
0.000983879
0.000982679
0.000981502
0.000980356
0.000979251
0.000978199
0.000977211
0.000976299
0.000975475
0.000974753
0.000974145
0.000973666
0.00097333
0.000973151
0.000973141
0.000973315
0.000973684
0.000974261
0.000975053
0.000976069
0.000977312
0.000978782
0.000980473
0.000982375
0.000984471
0.000986735