/*--------------------------------*- C++ -*----------------------------------*\
| =========                 |                                                 |
| \\      /  F ield         | OpenFOAM: The Open Source CFD Toolbox           |
|  \\    /   O peration     | Version:  4.1                                   |
|   \\  /    A nd           | Web:      www.OpenFOAM.org                      |
|    \\/     M anipulation  |                                                 |
\*---------------------------------------------------------------------------*/
FoamFile
{
    version     2.0;
    format      ascii;
    class       volScalarField;
    location    "200";
    object      p;
}
// * * * * * * * * * * * * * * * * * * * * * * * * * * * * * * * * * * * * * //

dimensions      [0 2 -2 0 0 0 0];

internalField   nonuniform List<scalar> 
6820
(
-8.39797
-9.19782
-9.65856
-9.80377
-9.88282
-9.95772
-10.0183
-10.0647
-10.1044
-10.141
-10.175
-10.2067
-10.2365
-10.265
-10.2922
-10.3186
-10.3441
-10.3691
-10.3936
-10.4179
-10.4422
-10.4665
-10.4912
-10.5163
-10.5422
-10.569
-10.5971
-10.6268
-10.6584
-10.693
-10.7295
-10.775
-10.804
-10.0717
-10.2375
-10.2234
-10.1442
-10.1024
-10.0997
-10.1105
-10.1249
-10.1432
-10.165
-10.189
-10.2137
-10.2388
-10.2639
-10.289
-10.3138
-10.3384
-10.3628
-10.387
-10.4112
-10.4353
-10.4597
-10.4843
-10.5094
-10.5352
-10.5619
-10.5898
-10.6191
-10.6503
-10.684
-10.7208
-10.7645
-10.8185
-10.0501
-9.86208
-9.84372
-9.87856
-9.92085
-9.9697
-10.0169
-10.0583
-10.0957
-10.1312
-10.1648
-10.1965
-10.2266
-10.2554
-10.283
-10.3096
-10.3355
-10.3607
-10.3854
-10.4099
-10.4342
-10.4585
-10.4831
-10.508
-10.5335
-10.5598
-10.5871
-10.6158
-10.6461
-10.6786
-10.7136
-10.7535
-10.7947
-9.96788
-9.86559
-9.91527
-9.97629
-10.0102
-10.0413
-10.0735
-10.1032
-10.1309
-10.1582
-10.1853
-10.2117
-10.2375
-10.2628
-10.2877
-10.3122
-10.3363
-10.3601
-10.3837
-10.4073
-10.4309
-10.4546
-10.4786
-10.5031
-10.5281
-10.5538
-10.5805
-10.6083
-10.6374
-10.6683
-10.7007
-10.7354
-10.7696
-9.96029
-9.92049
-9.95291
-9.99102
-10.0137
-10.0392
-10.069
-10.0982
-10.126
-10.1536
-10.181
-10.2078
-10.234
-10.2596
-10.2847
-10.3094
-10.3336
-10.3575
-10.3812
-10.4047
-10.4283
-10.4519
-10.4757
-10.4998
-10.5244
-10.5497
-10.5756
-10.6025
-10.6304
-10.6593
-10.6892
-10.7199
-10.7496
-9.9694
-9.94939
-9.96555
-9.99568
-10.0201
-10.0461
-10.0751
-10.1035
-10.1308
-10.1577
-10.1843
-10.2103
-10.2358
-10.2608
-10.2853
-10.3093
-10.333
-10.3564
-10.3796
-10.4027
-10.4258
-10.4489
-10.4723
-10.4959
-10.5199
-10.5444
-10.5695
-10.5952
-10.6216
-10.6487
-10.6762
-10.7036
-10.7297
-9.97873
-9.96765
-9.97899
-10.0056
-10.0301
-10.0546
-10.0814
-10.1084
-10.1346
-10.1605
-10.1861
-10.2114
-10.2362
-10.2606
-10.2845
-10.3081
-10.3314
-10.3544
-10.3772
-10.3999
-10.4226
-10.4453
-10.4682
-10.4913
-10.5147
-10.5385
-10.5627
-10.5873
-10.6123
-10.6375
-10.6628
-10.6875
-10.7108
-9.9887
-9.98371
-9.99358
-10.0164
-10.0393
-10.0622
-10.0871
-10.1128
-10.138
-10.163
-10.1878
-10.2123
-10.2365
-10.2603
-10.2837
-10.3068
-10.3296
-10.3522
-10.3746
-10.3969
-10.4191
-10.4413
-10.4637
-10.4862
-10.5089
-10.5318
-10.555
-10.5785
-10.602
-10.6256
-10.6488
-10.6713
-10.6924
-9.99944
-9.99818
-10.0072
-10.0266
-10.0478
-10.0695
-10.0929
-10.1172
-10.1414
-10.1655
-10.1895
-10.2132
-10.2367
-10.2599
-10.2827
-10.3053
-10.3276
-10.3497
-10.3716
-10.3934
-10.4151
-10.4368
-10.4586
-10.4805
-10.5024
-10.5245
-10.5467
-10.5689
-10.5911
-10.6131
-10.6346
-10.6552
-10.6745
-10.0104
-10.0112
-10.0197
-10.0366
-10.0562
-10.0767
-10.0987
-10.1216
-10.1448
-10.1679
-10.191
-10.214
-10.2368
-10.2593
-10.2816
-10.3036
-10.3253
-10.3469
-10.3683
-10.3896
-10.4108
-10.4319
-10.4531
-10.4742
-10.4954
-10.5166
-10.5377
-10.5588
-10.5797
-10.6002
-10.6201
-10.6391
-10.6569
-10.0213
-10.0232
-10.0313
-10.0463
-10.0643
-10.0836
-10.1043
-10.126
-10.1481
-10.1703
-10.1926
-10.2148
-10.2368
-10.2586
-10.2803
-10.3017
-10.3229
-10.3439
-10.3648
-10.3855
-10.4061
-10.4266
-10.4471
-10.4675
-10.4878
-10.5081
-10.5283
-10.5482
-10.5679
-10.587
-10.6055
-10.6231
-10.6395
-10.0319
-10.0343
-10.0421
-10.0556
-10.0722
-10.0903
-10.1097
-10.1303
-10.1513
-10.1726
-10.194
-10.2154
-10.2367
-10.2579
-10.2789
-10.2997
-10.3203
-10.3407
-10.361
-10.3811
-10.4011
-10.4209
-10.4407
-10.4604
-10.4799
-10.4992
-10.5184
-10.5372
-10.5557
-10.5736
-10.5908
-10.6072
-10.6224
-10.0421
-10.0446
-10.0521
-10.0644
-10.0797
-10.0966
-10.115
-10.1344
-10.1544
-10.1748
-10.1953
-10.216
-10.2365
-10.257
-10.2773
-10.2975
-10.3175
-10.3373
-10.3569
-10.3764
-10.3958
-10.415
-10.434
-10.4529
-10.4715
-10.49
-10.5081
-10.5259
-10.5433
-10.56
-10.5761
-10.5913
-10.6055
-10.0517
-10.0543
-10.0614
-10.0727
-10.0868
-10.1027
-10.12
-10.1383
-10.1574
-10.1769
-10.1966
-10.2164
-10.2362
-10.256
-10.2756
-10.2951
-10.3145
-10.3337
-10.3527
-10.3715
-10.3902
-10.4087
-10.427
-10.445
-10.4629
-10.4804
-10.4976
-10.5144
-10.5306
-10.5463
-10.5613
-10.5755
-10.5887
-10.0607
-10.0633
-10.07
-10.0804
-10.0935
-10.1084
-10.1247
-10.1421
-10.1602
-10.1788
-10.1976
-10.2167
-10.2357
-10.2548
-10.2738
-10.2926
-10.3113
-10.3298
-10.3482
-10.3664
-10.3843
-10.4021
-10.4196
-10.4369
-10.4539
-10.4705
-10.4868
-10.5026
-10.5179
-10.5325
-10.5465
-10.5597
-10.5721
-10.0692
-10.0716
-10.0779
-10.0877
-10.0998
-10.1138
-10.1291
-10.1455
-10.1627
-10.1805
-10.1985
-10.2168
-10.2351
-10.2534
-10.2717
-10.2899
-10.3079
-10.3258
-10.3435
-10.361
-10.3782
-10.3952
-10.412
-10.4285
-10.4446
-10.4604
-10.4757
-10.4906
-10.5049
-10.5187
-10.5317
-10.5441
-10.5556
-10.077
-10.0793
-10.0853
-10.0943
-10.1056
-10.1187
-10.1332
-10.1487
-10.1651
-10.1819
-10.1992
-10.2167
-10.2343
-10.2519
-10.2695
-10.287
-10.3043
-10.3215
-10.3385
-10.3553
-10.3718
-10.3881
-10.4041
-10.4198
-10.4351
-10.45
-10.4645
-10.4785
-10.4919
-10.5047
-10.5169
-10.5284
-10.5392
-10.0842
-10.0864
-10.0919
-10.1004
-10.111
-10.1232
-10.1369
-10.1516
-10.1671
-10.1832
-10.1996
-10.2164
-10.2332
-10.2502
-10.267
-10.2838
-10.3005
-10.317
-10.3333
-10.3494
-10.3652
-10.3808
-10.396
-10.4109
-10.4254
-10.4395
-10.4531
-10.4662
-10.4788
-10.4908
-10.5021
-10.5128
-10.5228
-10.0907
-10.0928
-10.098
-10.1059
-10.1158
-10.1273
-10.1402
-10.1541
-10.1688
-10.1841
-10.1998
-10.2158
-10.232
-10.2482
-10.2644
-10.2805
-10.2965
-10.3123
-10.3279
-10.3433
-10.3584
-10.3732
-10.3877
-10.4018
-10.4155
-10.4287
-10.4415
-10.4538
-10.4656
-10.4768
-10.4873
-10.4973
-10.5065
-10.0966
-10.0985
-10.1034
-10.1108
-10.1201
-10.1309
-10.143
-10.1562
-10.1702
-10.1848
-10.1998
-10.215
-10.2305
-10.246
-10.2615
-10.277
-10.2923
-10.3074
-10.3223
-10.337
-10.3514
-10.3654
-10.3792
-10.3925
-10.4054
-10.4179
-10.4299
-10.4414
-10.4523
-10.4627
-10.4725
-10.4818
-10.4904
-10.1017
-10.1035
-10.1081
-10.1151
-10.1238
-10.134
-10.1455
-10.1579
-10.1712
-10.1851
-10.1994
-10.214
-10.2287
-10.2436
-10.2584
-10.2732
-10.2878
-10.3023
-10.3165
-10.3305
-10.3441
-10.3575
-10.3705
-10.3831
-10.3952
-10.4069
-10.4182
-10.4289
-10.4391
-10.4487
-10.4578
-10.4663
-10.4742
-10.1062
-10.1079
-10.1122
-10.1187
-10.1269
-10.1366
-10.1474
-10.1592
-10.1718
-10.185
-10.1987
-10.2126
-10.2267
-10.2409
-10.2551
-10.2692
-10.2831
-10.2969
-10.3105
-10.3238
-10.3367
-10.3494
-10.3616
-10.3735
-10.3849
-10.3959
-10.4064
-10.4164
-10.4258
-10.4348
-10.4431
-10.451
-10.4582
-10.1099
-10.1115
-10.1156
-10.1217
-10.1295
-10.1386
-10.1488
-10.1601
-10.1721
-10.1846
-10.1976
-10.2109
-10.2244
-10.2379
-10.2515
-10.2649
-10.2783
-10.2914
-10.3043
-10.3169
-10.3292
-10.3411
-10.3527
-10.3638
-10.3745
-10.3848
-10.3946
-10.4038
-10.4126
-10.4208
-10.4285
-10.4357
-10.4423
-10.1129
-10.1145
-10.1183
-10.1241
-10.1314
-10.14
-10.1497
-10.1604
-10.1718
-10.1838
-10.1962
-10.2089
-10.2218
-10.2347
-10.2476
-10.2605
-10.2732
-10.2857
-10.2979
-10.3099
-10.3215
-10.3328
-10.3436
-10.3541
-10.3641
-10.3737
-10.3828
-10.3914
-10.3994
-10.407
-10.414
-10.4206
-10.4266
-10.1152
-10.1166
-10.1202
-10.1257
-10.1326
-10.1408
-10.1501
-10.1602
-10.1711
-10.1826
-10.1944
-10.2066
-10.2189
-10.2312
-10.2436
-10.2558
-10.2679
-10.2798
-10.2914
-10.3027
-10.3137
-10.3243
-10.3345
-10.3443
-10.3537
-10.3626
-10.371
-10.3789
-10.3864
-10.3933
-10.3997
-10.4056
-10.411
-10.1167
-10.118
-10.1214
-10.1266
-10.1332
-10.141
-10.1498
-10.1595
-10.1699
-10.1809
-10.1923
-10.2039
-10.2156
-10.2274
-10.2392
-10.2509
-10.2624
-10.2737
-10.2847
-10.2955
-10.3058
-10.3158
-10.3254
-10.3346
-10.3433
-10.3515
-10.3593
-10.3666
-10.3734
-10.3797
-10.3855
-10.3908
-10.3956
-10.1174
-10.1187
-10.1219
-10.1268
-10.133
-10.1405
-10.1489
-10.1582
-10.1682
-10.1788
-10.1897
-10.2008
-10.2121
-10.2234
-10.2347
-10.2458
-10.2568
-10.2675
-10.278
-10.2881
-10.2979
-10.3073
-10.3163
-10.3248
-10.3329
-10.3406
-10.3477
-10.3544
-10.3606
-10.3663
-10.3715
-10.3763
-10.3805
-10.1173
-10.1185
-10.1215
-10.1261
-10.1321
-10.1392
-10.1474
-10.1564
-10.166
-10.1761
-10.1866
-10.1974
-10.2082
-10.2191
-10.2298
-10.2405
-10.251
-10.2612
-10.2711
-10.2807
-10.2899
-10.2987
-10.3071
-10.3151
-10.3226
-10.3297
-10.3363
-10.3424
-10.348
-10.3532
-10.3578
-10.362
-10.3657
-10.1163
-10.1175
-10.1203
-10.1247
-10.1304
-10.1373
-10.1452
-10.1539
-10.1632
-10.173
-10.1832
-10.1935
-10.204
-10.2144
-10.2248
-10.235
-10.245
-10.2548
-10.2642
-10.2733
-10.282
-10.2903
-10.2982
-10.3056
-10.3126
-10.3191
-10.3251
-10.3307
-10.3358
-10.3404
-10.3445
-10.3481
-10.3513
-10.1146
-10.1156
-10.1182
-10.1223
-10.1278
-10.1345
-10.1422
-10.1507
-10.1598
-10.1694
-10.1793
-10.1893
-10.1995
-10.2096
-10.2195
-10.2293
-10.2389
-10.2482
-10.2572
-10.2658
-10.274
-10.2818
-10.2892
-10.2961
-10.3025
-10.3085
-10.3141
-10.3191
-10.3237
-10.3277
-10.3313
-10.3345
-10.3372
-10.1119
-10.1128
-10.1151
-10.119
-10.1243
-10.1309
-10.1385
-10.1468
-10.1558
-10.1653
-10.175
-10.1848
-10.1947
-10.2046
-10.2143
-10.2237
-10.233
-10.2419
-10.2504
-10.2586
-10.2664
-10.2738
-10.2807
-10.2872
-10.2932
-10.2987
-10.3037
-10.3083
-10.3123
-10.3159
-10.3191
-10.3217
-10.3239
-10.1085
-10.1092
-10.1111
-10.1146
-10.1197
-10.1263
-10.1339
-10.1422
-10.1511
-10.1604
-10.17
-10.1796
-10.1893
-10.1988
-10.2082
-10.2173
-10.2262
-10.2348
-10.243
-10.2507
-10.2581
-10.2651
-10.2716
-10.2776
-10.2832
-10.2883
-10.2929
-10.297
-10.3006
-10.3038
-10.3065
-10.3088
-10.3106
-10.1043
-10.1046
-10.1058
-10.1088
-10.1139
-10.1206
-10.1284
-10.137
-10.1463
-10.1559
-10.1656
-10.1754
-10.185
-10.1945
-10.2038
-10.2128
-10.2215
-10.2297
-10.2376
-10.2451
-10.2521
-10.2586
-10.2647
-10.2704
-10.2755
-10.2801
-10.2843
-10.288
-10.2912
-10.2939
-10.2961
-10.2979
-10.2992
-10.0996
-10.0992
-10.0992
-10.1018
-10.107
-10.1137
-10.1211
-10.1293
-10.1383
-10.1476
-10.1571
-10.1667
-10.1762
-10.1856
-10.1947
-10.2035
-10.212
-10.2201
-10.2278
-10.2351
-10.242
-10.2483
-10.2542
-10.2596
-10.2645
-10.2689
-10.2728
-10.2763
-10.2792
-10.2817
-10.2836
-10.2852
-10.2863
-10.0952
-10.0929
-10.0899
-10.0921
-10.0993
-10.1085
-10.1182
-10.1283
-10.1386
-10.1489
-10.159
-10.1688
-10.1784
-10.1876
-10.1965
-10.205
-10.213
-10.2207
-10.2278
-10.2346
-10.2408
-10.2466
-10.2519
-10.2567
-10.261
-10.2649
-10.2682
-10.2711
-10.2734
-10.2753
-10.2768
-10.2777
-10.2781
-10.0922
-10.087
-10.0793
-10.0768
-10.0791
-10.0843
-10.0919
-10.1014
-10.1119
-10.1227
-10.1336
-10.1444
-10.155
-10.1653
-10.1752
-10.1846
-10.1935
-10.2019
-10.2098
-10.2172
-10.2241
-10.2304
-10.2361
-10.2414
-10.246
-10.2502
-10.2538
-10.2569
-10.2595
-10.2616
-10.2632
-10.2643
-10.2651
-10.0922
-10.0722
-10.0749
-10.0944
-10.1108
-10.1212
-10.1305
-10.1402
-10.1498
-10.1587
-10.1673
-10.1755
-10.1835
-10.1912
-10.1986
-10.2056
-10.2123
-10.2186
-10.2245
-10.23
-10.2351
-10.2398
-10.2441
-10.2479
-10.2512
-10.2541
-10.2565
-10.2585
-10.26
-10.2611
-10.2617
-10.2618
-10.2615
-10.1294
-10.006
-9.94275
-9.94608
-9.96801
-9.98921
-10.0099
-10.0309
-10.0512
-10.0702
-10.0878
-10.1041
-10.1192
-10.1332
-10.1461
-10.1581
-10.1692
-10.1793
-10.1887
-10.1973
-10.2051
-10.2122
-10.2186
-10.2244
-10.2295
-10.2339
-10.2377
-10.241
-10.2436
-10.2457
-10.2473
-10.2483
-10.2489
-10.289
-10.3021
-10.2607
-10.2182
-10.1938
-10.1827
-10.1776
-10.1749
-10.1742
-10.1755
-10.1782
-10.182
-10.1863
-10.1911
-10.1961
-10.2012
-10.2063
-10.2112
-10.216
-10.2206
-10.2249
-10.2288
-10.2325
-10.2357
-10.2385
-10.241
-10.243
-10.2446
-10.2458
-10.2466
-10.2469
-10.2468
-10.2462
-9.12465
-9.42486
-9.68958
-9.81508
-9.8796
-9.93516
-9.98402
-10.0216
-10.0504
-10.0743
-10.095
-10.1131
-10.1289
-10.143
-10.1556
-10.1671
-10.1774
-10.1868
-10.1953
-10.203
-10.21
-10.2162
-10.2217
-10.2266
-10.2309
-10.2346
-10.2376
-10.2401
-10.2421
-10.2435
-10.2444
-10.2448
-10.2447
-10.9114
-10.8034
-10.8523
-10.9094
-10.9324
-10.9448
-10.9543
-10.9599
-10.963
-10.9667
-10.9734
-10.9846
-11.001
-11.0231
-11.0507
-11.0831
-11.1196
-11.1593
-11.2009
-11.2435
-11.286
-11.3275
-11.367
-11.4037
-11.4368
-11.4656
-11.4894
-11.5075
-11.5189
-11.5226
-11.5177
-11.5026
-11.4758
-11.4354
-11.379
-11.304
-11.2074
-11.0857
-10.9354
-10.7526
-10.5337
-10.2755
-9.97522
-9.63131
-9.24333
-8.81238
-8.34125
-7.83453
-7.2987
-6.74238
-6.17782
-5.62465
-5.11293
-4.67787
-4.3445
-4.114
-3.96604
-3.8734
-3.81354
-3.77141
-3.73777
-3.70699
-3.67543
-3.64052
-3.6003
-3.55316
-3.49772
-3.4328
-3.35743
-3.27083
-3.17243
-3.06193
-2.93929
-2.80475
-2.65886
-2.50246
-2.33668
-2.16295
-1.98296
-1.7986
-1.61198
-1.4253
-1.24085
-1.06077
-0.887
-0.721933
-0.57005
-0.438611
-0.334842
-0.261008
-0.212434
-0.180625
-0.157681
-0.138634
-0.120784
-0.103983
-0.0858877
-0.0717395
-0.0438848
-0.0452496
-10.898
-10.8916
-10.9186
-10.939
-10.9336
-10.9221
-10.9141
-10.909
-10.9069
-10.9094
-10.9173
-10.9312
-10.9509
-10.9765
-11.0072
-11.0422
-11.0807
-11.1216
-11.1637
-11.2061
-11.2479
-11.2882
-11.3263
-11.3613
-11.3927
-11.4196
-11.4415
-11.4575
-11.4667
-11.4682
-11.4608
-11.4432
-11.4138
-11.3707
-11.3116
-11.2339
-11.1346
-11.0106
-10.8582
-10.674
-10.4545
-10.1965
-9.8979
-9.5571
-9.17395
-8.74972
-8.28724
-7.791
-7.26714
-6.72356
-6.17084
-5.62578
-5.11589
-4.67635
-4.33549
-4.09925
-3.95005
-3.8606
-3.80693
-3.77258
-3.74734
-3.7249
-3.7012
-3.67338
-3.63929
-3.59716
-3.54557
-3.48331
-3.40944
-3.32321
-3.22419
-3.11217
-2.98726
-2.84986
-2.70067
-2.5407
-2.37123
-2.19382
-2.01028
-1.82261
-1.63296
-1.44357
-1.25668
-1.07429
-0.898132
-0.730309
-0.575145
-0.440029
-0.332562
-0.255336
-0.203794
-0.16948
-0.144566
-0.124142
-0.105492
-0.0884306
-0.0705648
-0.0571731
-0.0314871
-0.034973
-10.845
-10.8537
-10.8579
-10.8712
-10.8789
-10.8828
-10.8874
-10.8922
-10.8965
-10.9018
-10.9095
-10.9207
-10.9364
-10.9569
-10.9823
-11.0122
-11.046
-11.0828
-11.1216
-11.1614
-11.2011
-11.2398
-11.2765
-11.3103
-11.3403
-11.3658
-11.386
-11.4
-11.4071
-11.4062
-11.3963
-11.3759
-11.3436
-11.2974
-11.2352
-11.1545
-11.0524
-10.9258
-10.7714
-10.5858
-10.3658
-10.1087
-9.81246
-9.47581
-9.09882
-8.6829
-8.23093
-7.74733
-7.23805
-6.71062
-6.17455
-5.64401
-5.1426
-4.70308
-4.35527
-4.11002
-3.95459
-3.8634
-3.81178
-3.78186
-3.76225
-3.74585
-3.72806
-3.70564
-3.67619
-3.63782
-3.589
-3.5285
-3.45539
-3.36899
-3.26895
-3.15518
-3.02793
-2.88775
-2.73548
-2.57228
-2.39957
-2.21905
-2.03261
-1.84234
-1.65044
-1.45914
-1.2706
-1.08669
-0.908953
-0.739248
-0.581709
-0.44369
-0.332927
-0.252251
-0.197374
-0.160109
-0.13283
-0.110722
-0.0910543
-0.0735704
-0.0558668
-0.0431271
-0.0198201
-0.0251998
-10.809
-10.8302
-10.842
-10.8602
-10.8735
-10.8789
-10.8814
-10.8833
-10.8854
-10.8891
-10.8959
-10.9069
-10.9223
-10.9424
-10.9668
-10.9951
-11.0265
-11.0602
-11.0953
-11.131
-11.1664
-11.2006
-11.2328
-11.2623
-11.2883
-11.31
-11.3266
-11.3373
-11.3411
-11.337
-11.3237
-11.3001
-11.2644
-11.2148
-11.1492
-11.0652
-10.96
-10.8307
-10.6741
-10.4874
-10.2674
-10.0118
-9.71866
-9.38716
-9.01747
-8.61108
-8.17089
-7.70125
-7.20804
-6.69866
-6.18232
-5.67163
-5.1862
-4.75379
-4.4026
-4.1473
-3.98147
-3.88357
-3.82945
-3.80014
-3.78297
-3.76986
-3.75558
-3.73649
-3.7099
-3.67377
-3.62645
-3.56669
-3.49357
-3.40647
-3.30511
-3.18951
-3.06003
-2.91735
-2.76244
-2.59658
-2.42132
-2.23843
-2.04991
-1.8579
-1.66459
-1.4722
-1.28281
-1.09818
-0.919685
-0.74903
-0.590128
-0.450127
-0.336673
-0.252743
-0.194437
-0.154008
-0.124127
-0.100097
-0.0791799
-0.0610438
-0.0433121
-0.0310187
-0.0099812
-0.0170607
-10.7821
-10.806
-10.82
-10.8344
-10.8455
-10.851
-10.8547
-10.8588
-10.8636
-10.8699
-10.8786
-10.8904
-10.9057
-10.9246
-10.9472
-10.973
-11.0015
-11.0321
-11.0641
-11.0965
-11.1286
-11.1595
-11.1884
-11.2145
-11.237
-11.255
-11.2679
-11.2747
-11.2745
-11.2664
-11.249
-11.2212
-11.1813
-11.1276
-11.0581
-10.9703
-10.8618
-10.7297
-10.5712
-10.3835
-10.1639
-9.91023
-9.62087
-9.29509
-8.93323
-8.53687
-8.1089
-7.65364
-7.17686
-6.68589
-6.18983
-5.70071
-5.23562
-4.8174
-4.46954
-4.20685
-4.02867
-3.91979
-3.85873
-3.82624
-3.80841
-3.79606
-3.78316
-3.7656
-3.74035
-3.70518
-3.65833
-3.59852
-3.5248
-3.43662
-3.33375
-3.21632
-3.08477
-2.93991
-2.7828
-2.61484
-2.43765
-2.2531
-2.06323
-1.87022
-1.67625
-1.48349
-1.29393
-1.10924
-0.930714
-0.759922
-0.600533
-0.45933
-0.343676
-0.256627
-0.194777
-0.150965
-0.118245
-0.0920582
-0.0696683
-0.0506592
-0.0327067
-0.0206642
-0.00167609
-0.0103819
-10.7576
-10.7815
-10.7974
-10.8115
-10.8234
-10.8315
-10.8375
-10.8432
-10.8491
-10.8558
-10.8644
-10.8756
-10.8898
-10.9073
-10.9279
-10.9514
-10.9773
-11.0049
-11.0336
-11.0626
-11.091
-11.1182
-11.1433
-11.1655
-11.1841
-11.1982
-11.2072
-11.21
-11.2059
-11.1937
-11.1723
-11.1404
-11.0964
-11.0387
-10.9652
-10.8738
-10.7621
-10.6274
-10.4671
-10.2787
-10.0598
-9.80832
-9.52298
-9.20323
-8.84951
-8.46346
-8.04794
-7.60718
-7.14682
-6.67401
-6.19772
-5.7295
-5.2849
-4.88357
-4.5448
-4.28071
-4.09245
-3.9706
-3.89876
-3.85927
-3.83762
-3.8235
-3.80998
-3.79228
-3.76704
-3.73174
-3.68451
-3.624
-3.54927
-3.45976
-3.35533
-3.23616
-3.1028
-2.95612
-2.7973
-2.62779
-2.44931
-2.26379
-2.07329
-1.87998
-1.68604
-1.49355
-1.30443
-1.12028
-0.942338
-0.77211
-0.612996
-0.471283
-0.353885
-0.263868
-0.198386
-0.150981
-0.115178
-0.0865878
-0.0624863
-0.0423709
-0.0239851
-0.0119882
0.00526998
-0.00505078
-10.7356
-10.7587
-10.7756
-10.7898
-10.8019
-10.811
-10.8179
-10.8243
-10.8309
-10.8382
-10.8471
-10.8582
-10.8719
-10.8883
-10.9073
-10.9287
-10.952
-10.9768
-11.0024
-11.028
-11.053
-11.0766
-11.098
-11.1165
-11.1313
-11.1416
-11.1467
-11.1456
-11.1375
-11.1212
-11.0957
-11.0597
-11.0117
-10.95
-10.8728
-10.7779
-10.6631
-10.5261
-10.3644
-10.1756
-9.95768
-9.70878
-9.4278
-9.11433
-8.76895
-8.39328
-7.99017
-7.56373
-7.11945
-6.66431
-6.20702
-5.75862
-5.33333
-4.9483
-4.62015
-4.35905
-4.16569
-4.03292
-3.94871
-3.89898
-3.87027
-3.85173
-3.83549
-3.81605
-3.78953
-3.75313
-3.7048
-3.64309
-3.56703
-3.47609
-3.37013
-3.24942
-3.11457
-2.96651
-2.80649
-2.63605
-2.45694
-2.27112
-2.08068
-1.88776
-1.69447
-1.50283
-1.31469
-1.13157
-0.954724
-0.785619
-0.627404
-0.485785
-0.367101
-0.274349
-0.205244
-0.154106
-0.115007
-0.0837736
-0.0577163
-0.0362507
-0.0171965
-0.00502217
0.0109161
-0.00103363
-10.7149
-10.7369
-10.7541
-10.7683
-10.7805
-10.7903
-10.7983
-10.8055
-10.8128
-10.8206
-10.8297
-10.8405
-10.8534
-10.8685
-10.8858
-10.9051
-10.926
-10.948
-10.9706
-10.993
-11.0146
-11.0347
-11.0525
-11.0674
-11.0785
-11.0851
-11.0863
-11.0814
-11.0693
-11.0491
-11.0197
-10.9798
-10.9279
-10.8625
-10.7817
-10.6837
-10.5663
-10.4272
-10.2644
-10.0756
-9.85891
-9.61282
-9.33636
-9.02927
-8.69219
-8.32679
-7.93586
-7.52341
-7.09478
-6.65672
-6.21765
-5.78804
-5.38088
-5.01117
-4.69319
-4.43606
-4.24065
-4.10067
-4.00593
-3.94503
-3.90675
-3.88108
-3.85986
-3.83693
-3.80784
-3.76939
-3.71929
-3.65595
-3.57834
-3.48592
-3.37857
-3.25658
-3.1206
-2.97165
-2.81101
-2.64025
-2.46118
-2.27575
-2.08603
-1.89411
-1.70204
-1.51176
-1.32503
-1.14335
-0.967958
-0.80037
-0.643508
-0.502475
-0.38295
-0.287778
-0.215184
-0.160277
-0.117734
-0.0836509
-0.0554063
-0.0323485
-0.0123777
0.000210845
0.0153057
0.00171468
-10.6951
-10.7159
-10.7329
-10.7472
-10.7595
-10.7698
-10.7784
-10.7863
-10.794
-10.8021
-10.8112
-10.8216
-10.8337
-10.8476
-10.8633
-10.8805
-10.8991
-10.9184
-10.938
-10.9573
-10.9757
-10.9924
-11.0067
-11.018
-11.0255
-11.0284
-11.0259
-11.0172
-11.0014
-10.9775
-10.9443
-10.9006
-10.8451
-10.7761
-10.6921
-10.5912
-10.4714
-10.3307
-10.167
-9.97848
-9.76332
-9.52024
-9.24843
-8.94776
-8.61894
-8.26367
-7.88469
-7.48591
-7.07248
-6.65094
-6.22933
-5.81751
-5.42735
-5.07203
-4.76379
-4.51062
-4.31387
-4.1685
-4.06557
-3.99493
-3.9468
-3.91238
-3.88413
-3.85584
-3.82271
-3.78114
-3.72855
-3.66315
-3.58379
-3.48987
-3.38128
-3.2583
-3.12164
-2.9723
-2.81162
-2.6412
-2.46282
-2.27842
-2.09002
-1.89964
-1.70927
-1.52074
-1.33575
-1.15576
-0.98207
-0.816235
-0.661011
-0.520925
-0.400964
-0.303742
-0.22791
-0.169319
-0.123272
-0.0861867
-0.0555523
-0.0306744
-0.00953579
0.00371307
0.0184812
0.00326951
-10.6759
-10.6955
-10.7122
-10.7264
-10.7387
-10.7492
-10.7583
-10.7666
-10.7746
-10.7829
-10.7918
-10.8017
-10.813
-10.8257
-10.8397
-10.855
-10.8712
-10.888
-10.9048
-10.921
-10.9362
-10.9496
-10.9605
-10.9683
-10.9722
-10.9715
-10.9654
-10.9531
-10.9336
-10.906
-10.8692
-10.822
-10.763
-10.6908
-10.6038
-10.5003
-10.3784
-10.2363
-10.0721
-9.88401
-9.67062
-9.43072
-9.16367
-8.86946
-8.54888
-8.20361
-7.83637
-7.45094
-7.0523
-6.64671
-6.24183
-5.84687
-5.47261
-5.13074
-4.83181
-4.58275
-4.38503
-4.23484
-4.12466
-4.04547
-3.98832
-3.94517
-3.90905
-3.87411
-3.83561
-3.78981
-3.7339
-3.6659
-3.58452
-3.48907
-3.37937
-3.25571
-3.11875
-2.96954
-2.80939
-2.63988
-2.46276
-2.27993
-2.09334
-1.90493
-1.71658
-1.53007
-1.34702
-1.16889
-0.997036
-0.833069
-0.679622
-0.540711
-0.420651
-0.321766
-0.243032
-0.180958
-0.131453
-0.091286
-0.0581045
-0.031204
-0.00865387
0.00550651
0.0204772
0.00373553
-10.6573
-10.6757
-10.6919
-10.7058
-10.718
-10.7286
-10.738
-10.7465
-10.7546
-10.7629
-10.7715
-10.781
-10.7913
-10.8028
-10.8152
-10.8286
-10.8426
-10.8568
-10.8708
-10.8841
-10.8962
-10.9063
-10.9139
-10.9183
-10.9188
-10.9146
-10.905
-10.8891
-10.866
-10.8349
-10.7946
-10.7439
-10.6817
-10.6064
-10.5167
-10.4108
-10.2871
-10.1438
-9.97931
-9.79202
-9.5806
-9.34406
-9.08188
-8.79417
-8.48178
-8.1464
-7.79068
-7.41828
-7.03401
-6.64381
-6.25493
-5.87594
-5.51661
-5.18728
-4.89715
-4.65227
-4.4541
-4.29965
-4.18273
-4.0955
-4.02986
-3.97832
-3.93434
-3.89237
-3.84783
-3.79702
-3.73711
-3.666
-3.58229
-3.48519
-3.37446
-3.25032
-3.11342
-2.96473
-2.80555
-2.6374
-2.46198
-2.2811
-2.09663
-1.91044
-1.72431
-1.53995
-1.35895
-1.18275
-1.01278
-0.85072
-0.699083
-0.561455
-0.441544
-0.341361
-0.260107
-0.194843
-0.142027
-0.0987883
-0.0629635
-0.0338767
-0.00969062
0.00563193
0.021319
0.00324565
-10.639
-10.6564
-10.6718
-10.6854
-10.6974
-10.708
-10.7174
-10.726
-10.7341
-10.7422
-10.7505
-10.7593
-10.7687
-10.7789
-10.7898
-10.8013
-10.8131
-10.8248
-10.8362
-10.8466
-10.8557
-10.8627
-10.867
-10.8681
-10.8651
-10.8575
-10.8445
-10.8251
-10.7986
-10.7641
-10.7204
-10.6665
-10.6012
-10.5231
-10.4307
-10.3227
-10.1974
-10.0533
-9.88875
-9.70245
-9.4932
-9.26015
-9.00294
-8.72177
-8.41752
-8.09188
-7.74745
-7.38777
-7.01741
-6.64204
-6.26846
-5.90458
-5.55926
-5.24165
-4.95981
-4.71905
-4.52083
-4.36279
-4.23973
-4.14492
-4.07114
-4.0115
-3.95983
-3.91083
-3.86008
-3.80398
-3.73972
-3.66518
-3.57891
-3.48006
-3.3683
-3.2438
-3.10714
-2.95922
-2.80127
-2.63474
-2.46125
-2.28252
-2.10033
-1.91645
-1.7326
-1.55043
-1.3715
-1.19727
-1.0292
-0.869029
-0.719176
-0.58285
-0.463244
-0.362067
-0.278669
-0.210561
-0.154673
-0.108462
-0.069973
-0.0385888
-0.012575
0.00415136
0.0210249
0.00196024
-10.621
-10.6374
-10.6521
-10.6652
-10.6769
-10.6873
-10.6966
-10.7051
-10.7131
-10.7209
-10.7288
-10.7368
-10.7453
-10.7542
-10.7635
-10.7731
-10.7828
-10.7922
-10.8009
-10.8086
-10.8147
-10.8186
-10.8198
-10.8176
-10.8114
-10.8004
-10.784
-10.7613
-10.7315
-10.6936
-10.6467
-10.5898
-10.5215
-10.4407
-10.3461
-10.2361
-10.1095
-9.9647
-9.80037
-9.61526
-9.40835
-9.17895
-8.92678
-8.65215
-8.35597
-8.03993
-7.70655
-7.35923
-7.00234
-6.64122
-6.28222
-5.93265
-5.6005
-5.29387
-5.01983
-4.78309
-4.5851
-4.42401
-4.29546
-4.19361
-4.11209
-4.04463
-3.98548
-3.9296
-3.87271
-3.81131
-3.74262
-3.66456
-3.57564
-3.47498
-3.36219
-3.23737
-3.10101
-2.95396
-2.79734
-2.63252
-2.46102
-2.28448
-2.10457
-1.923
-1.74141
-1.56143
-1.38456
-1.2123
-1.04614
-0.887842
-0.739718
-0.604661
-0.485435
-0.383491
-0.298282
-0.22768
-0.169008
-0.120007
-0.078912
-0.0451847
-0.0171983
0.00115296
0.0196117
6.13773e-05
-10.6032
-10.6186
-10.6326
-10.6452
-10.6565
-10.6666
-10.6757
-10.684
-10.6917
-10.6991
-10.7063
-10.7136
-10.721
-10.7287
-10.7364
-10.7442
-10.7518
-10.7589
-10.7651
-10.7701
-10.7733
-10.7742
-10.7723
-10.767
-10.7576
-10.7434
-10.7237
-10.6977
-10.6647
-10.6236
-10.5737
-10.5137
-10.4427
-10.3595
-10.2627
-10.1511
-10.0233
-9.8781
-9.71419
-9.53047
-9.32606
-9.10041
-8.85335
-8.58524
-8.29705
-7.99044
-7.66784
-7.33252
-6.98862
-6.64117
-6.29607
-5.96002
-5.64024
-5.34391
-5.07724
-4.84442
-4.64688
-4.4832
-4.34973
-4.24141
-4.1526
-4.07764
-4.01122
-3.9486
-3.88568
-3.81907
-3.74603
-3.66448
-3.57294
-3.47047
-3.35666
-3.23151
-3.09547
-2.94928
-2.79399
-2.63086
-2.46133
-2.28693
-2.10927
-1.92996
-1.75061
-1.57279
-1.39799
-1.22771
-1.06346
-0.907009
-0.760556
-0.626713
-0.50789
-0.405332
-0.318575
-0.24579
-0.184628
-0.133065
-0.089495
-0.0534494
-0.0234055
-0.0032429
0.0171063
-0.00225527
-10.5856
-10.6001
-10.6133
-10.6253
-10.6361
-10.6458
-10.6545
-10.6625
-10.6698
-10.6767
-10.6833
-10.6897
-10.6961
-10.7024
-10.7086
-10.7146
-10.7201
-10.725
-10.7287
-10.7311
-10.7315
-10.7296
-10.7247
-10.7163
-10.7037
-10.6863
-10.6635
-10.6344
-10.5982
-10.5542
-10.5013
-10.4386
-10.365
-10.2794
-10.1807
-10.0676
-9.93896
-9.79353
-9.63022
-9.44807
-9.24631
-9.02451
-8.78259
-8.52098
-8.24067
-7.94329
-7.6312
-7.3075
-6.97611
-6.64174
-6.30986
-5.98659
-5.67843
-5.39176
-5.13207
-4.90307
-4.70616
-4.54028
-4.4024
-4.28815
-4.19253
-4.11043
-4.03699
-3.96779
-3.89894
-3.82717
-3.74983
-3.66483
-3.5707
-3.46645
-3.35161
-3.22615
-3.09041
-2.94506
-2.79106
-2.62958
-2.46196
-2.28966
-2.1142
-1.93713
-1.76
-1.58434
-1.41162
-1.24333
-1.08101
-0.926391
-0.781556
-0.648872
-0.53045
-0.427374
-0.339262
-0.264544
-0.201152
-0.14726
-0.101386
-0.0631089
-0.0309878
-0.00887596
0.0135593
-0.0047954
-10.5682
-10.5817
-10.5942
-10.6055
-10.6157
-10.6249
-10.6332
-10.6407
-10.6475
-10.6538
-10.6597
-10.6652
-10.6705
-10.6755
-10.6802
-10.6844
-10.6879
-10.6905
-10.6919
-10.6917
-10.6895
-10.6847
-10.6769
-10.6655
-10.6499
-10.6295
-10.6036
-10.5714
-10.5323
-10.4853
-10.4296
-10.3643
-10.2883
-10.2006
-10.1002
-9.98584
-9.85648
-9.71104
-9.54852
-9.36809
-9.16911
-8.95123
-8.71447
-8.45931
-8.18675
-7.8984
-7.59651
-7.28403
-6.96466
-6.64278
-6.32345
-6.01224
-5.71501
-5.43743
-5.18433
-4.95906
-4.76294
-4.59523
-4.4534
-4.33371
-4.23175
-4.14291
-4.06275
-3.98716
-3.91249
-3.83562
-3.75398
-3.66553
-3.56878
-3.46274
-3.34687
-3.22106
-3.08559
-2.94105
-2.7883
-2.62843
-2.46269
-2.29245
-2.11917
-1.94433
-1.76942
-1.59593
-1.42532
-1.25906
-1.09867
-0.945865
-0.802603
-0.671027
-0.552998
-0.449473
-0.360146
-0.283679
-0.218259
-0.162237
-0.114232
-0.0738446
-0.0396832
-0.0155406
0.00906433
-0.00738073
-10.5509
-10.5635
-10.5752
-10.5858
-10.5954
-10.604
-10.6118
-10.6187
-10.625
-10.6306
-10.6356
-10.6402
-10.6443
-10.648
-10.6511
-10.6536
-10.6552
-10.6557
-10.6547
-10.652
-10.6472
-10.6397
-10.6291
-10.6148
-10.5963
-10.5729
-10.544
-10.509
-10.4669
-10.4172
-10.3589
-10.2911
-10.2128
-10.1232
-10.0212
-9.90582
-9.77596
-9.63069
-9.46913
-9.29057
-9.09446
-8.88056
-8.64896
-8.40018
-8.13523
-7.85566
-7.56365
-7.26199
-6.95414
-6.64417
-6.33673
-6.0369
-5.74994
-5.48089
-5.23405
-5.0124
-4.81722
-4.648
-4.50267
-4.378
-4.27014
-4.17496
-4.0884
-4.00666
-3.92633
-3.84445
-3.75853
-3.66662
-3.56723
-3.45933
-3.34236
-3.21616
-3.0809
-2.93712
-2.78557
-2.62727
-2.46338
-2.29518
-2.12406
-1.95145
-1.77877
-1.60747
-1.43899
-1.27477
-1.11634
-0.965329
-0.823599
-0.693088
-0.575446
-0.471523
-0.381091
-0.303015
-0.235716
-0.17771
-0.127712
-0.0853303
-0.0491946
-0.0229878
0.00377265
-0.00986675
-10.5337
-10.5455
-10.5563
-10.5661
-10.5751
-10.5831
-10.5903
-10.5966
-10.6021
-10.607
-10.6112
-10.6147
-10.6177
-10.62
-10.6216
-10.6223
-10.622
-10.6204
-10.6172
-10.6121
-10.6047
-10.5946
-10.5813
-10.5642
-10.5428
-10.5166
-10.4849
-10.447
-10.4023
-10.3499
-10.2891
-10.219
-10.1387
-10.0473
-9.94397
-9.82766
-9.69747
-9.55254
-9.3921
-9.21552
-9.02237
-8.81248
-8.58602
-8.34353
-8.08602
-7.815
-7.53253
-7.24126
-6.94442
-6.64578
-6.3496
-6.06049
-5.78318
-5.52216
-5.28124
-5.06311
-4.869
-4.69857
-4.55013
-4.42094
-4.30762
-4.20649
-4.11387
-4.02624
-3.94044
-3.85365
-3.76353
-3.66816
-3.56609
-3.45629
-3.33816
-3.21148
-3.07637
-2.93327
-2.78287
-2.62608
-2.46398
-2.2978
-2.12883
-1.95842
-1.78798
-1.61889
-1.45256
-1.29041
-1.13392
-0.984697
-0.84446
-0.714977
-0.597716
-0.493444
-0.401998
-0.322427
-0.25336
-0.193474
-0.141573
-0.0972792
-0.0592286
-0.0309457
-0.00210158
-0.0121542
-10.5167
-10.5275
-10.5375
-10.5466
-10.5548
-10.5622
-10.5686
-10.5742
-10.579
-10.5831
-10.5863
-10.5889
-10.5907
-10.5916
-10.5917
-10.5907
-10.5885
-10.5849
-10.5795
-10.5721
-10.5622
-10.5496
-10.5336
-10.5138
-10.4898
-10.4608
-10.4264
-10.3858
-10.3384
-10.2836
-10.2204
-10.1481
-10.0659
-9.97302
-9.86847
-9.75143
-9.62109
-9.47665
-9.31746
-9.14298
-8.95286
-8.747
-8.52563
-8.28932
-8.03906
-7.77631
-7.50304
-7.22174
-6.93539
-6.64751
-6.36197
-6.08296
-5.81472
-5.56125
-5.32595
-5.11124
-4.91828
-4.74691
-4.59574
-4.46246
-4.34411
-4.23742
-4.13906
-4.04582
-3.95475
-3.86321
-3.76896
-3.67018
-3.56543
-3.45369
-3.33434
-3.20711
-3.07206
-2.92957
-2.78023
-2.62489
-2.46454
-2.30032
-2.13346
-1.96526
-1.79704
-1.63016
-1.46599
-1.30591
-1.15137
-1.0039
-0.865114
-0.736625
-0.619744
-0.515168
-0.422792
-0.341824
-0.27108
-0.209387
-0.155641
-0.109476
-0.0695404
-0.0391611
-0.00830427
-0.0142017
-10.4997
-10.5096
-10.5188
-10.5271
-10.5346
-10.5412
-10.5469
-10.5518
-10.5558
-10.559
-10.5613
-10.5627