/*--------------------------------*- C++ -*----------------------------------*\
| =========                 |                                                 |
| \\      /  F ield         | OpenFOAM: The Open Source CFD Toolbox           |
|  \\    /   O peration     | Version:  4.1                                   |
|   \\  /    A nd           | Web:      www.OpenFOAM.org                      |
|    \\/     M anipulation  |                                                 |
\*---------------------------------------------------------------------------*/
FoamFile
{
    version     2.0;
    format      ascii;
    class       surfaceScalarField;
    location    "200";
    object      phi;
}
// * * * * * * * * * * * * * * * * * * * * * * * * * * * * * * * * * * * * * //

dimensions      [0 3 -1 0 0 0 0];

internalField   nonuniform List<scalar> 
13452
(
6.02921e-05
-2.36585e-08
5.9898e-05
3.94079e-07
5.93107e-05
5.87311e-07
5.856e-05
7.50739e-07
5.7694e-05
8.66024e-07
5.67886e-05
9.05388e-07
5.589e-05
8.9857e-07
5.50187e-05
8.7134e-07
5.41848e-05
8.33857e-07
5.33945e-05
7.90288e-07
5.26511e-05
7.43469e-07
5.19556e-05
6.95471e-07
5.13079e-05
6.47674e-07
5.07069e-05
6.00982e-07
5.01509e-05
5.56e-07
4.96378e-05
5.13118e-07
4.91652e-05
4.7256e-07
4.87308e-05
4.34422e-07
4.83321e-05
3.98701e-07
4.79668e-05
3.65322e-07
4.76326e-05
3.34161e-07
4.73276e-05
3.05051e-07
4.70498e-05
2.77796e-07
4.67976e-05
2.52173e-07
4.65697e-05
2.27932e-07
4.63649e-05
2.04783e-07
4.61825e-05
1.82419e-07
4.60221e-05
1.60374e-07
4.58835e-05
1.38565e-07
4.57682e-05
1.15367e-07
4.56733e-05
9.491e-08
4.56006e-05
7.2718e-08
5.13366e-08
4.55492e-05
6.22178e-05
-2.51096e-07
6.23094e-05
3.02439e-07
6.24259e-05
4.70839e-07
6.25752e-05
6.01446e-07
6.27375e-05
7.0369e-07
6.28831e-05
7.59789e-07
6.29943e-05
7.87369e-07
6.30646e-05
8.01044e-07
6.30937e-05
8.04762e-07
6.30843e-05
7.9966e-07
6.30405e-05
7.87306e-07
6.29666e-05
7.69379e-07
6.2867e-05
7.47261e-07
6.27459e-05
7.22058e-07
6.26072e-05
6.94691e-07
6.24544e-05
6.65922e-07
6.22906e-05
6.36364e-07
6.21186e-05
6.06487e-07
6.19406e-05
5.76641e-07
6.17589e-05
5.47075e-07
6.15751e-05
5.17948e-07
6.13908e-05
4.89343e-07
6.12073e-05
4.61277e-07
6.10258e-05
4.33704e-07
6.08472e-05
4.06519e-07
6.06724e-05
3.79545e-07
6.05023e-05
3.52558e-07
6.03375e-05
3.25129e-07
6.0179e-05
2.97085e-07
6.00275e-05
2.66861e-07
5.98863e-05
2.36108e-07
5.97648e-05
1.94276e-07
1.49075e-07
5.9667e-05
6.36313e-05
-1.20943e-07
6.36864e-05
2.4728e-07
6.37575e-05
3.99722e-07
6.38551e-05
5.0391e-07
6.39637e-05
5.95039e-07
6.40677e-05
6.55794e-07
6.41631e-05
6.91948e-07
6.42501e-05
7.14082e-07
6.43286e-05
7.26283e-07
6.43984e-05
7.29857e-07
6.44595e-05
7.26225e-07
6.45119e-05
7.16911e-07
6.4556e-05
7.03174e-07
6.45921e-05
6.86e-07
6.46205e-05
6.6621e-07
6.4642e-05
6.4449e-07
6.46569e-05
6.21402e-07
6.4666e-05
5.97387e-07
6.46699e-05
5.72782e-07
6.46691e-05
5.47834e-07
6.46644e-05
5.2271e-07
6.46562e-05
4.97502e-07
6.46453e-05
4.72241e-07
6.46321e-05
4.4689e-07
6.46172e-05
4.21349e-07
6.46013e-05
3.95436e-07
6.4585e-05
3.68905e-07
6.45688e-05
3.4132e-07
6.45536e-05
3.12266e-07
6.454e-05
2.80453e-07
6.45307e-05
2.45439e-07
6.45235e-05
2.01446e-07
1.51855e-07
6.45208e-05
6.54961e-05
-3.4e-08
6.55394e-05
2.04038e-07
6.55816e-05
3.5751e-07
6.56309e-05
4.54547e-07
6.56878e-05
5.3819e-07
6.57455e-05
5.98089e-07
6.58024e-05
6.35087e-07
6.58585e-05
6.57957e-07
6.59135e-05
6.71298e-07
6.59667e-05
6.7661e-07
6.60178e-05
6.75138e-07
6.60665e-05
6.68242e-07
6.61126e-05
6.57075e-07
6.6156e-05
6.42539e-07
6.61969e-05
6.25376e-07
6.62351e-05
6.06211e-07
6.6271e-05
5.85553e-07
6.63046e-05
5.63805e-07
6.63361e-05
5.41272e-07
6.63657e-05
5.18177e-07
6.63938e-05
4.94667e-07
6.64205e-05
4.70822e-07
6.64461e-05
4.46656e-07
6.64708e-05
4.22123e-07
6.64951e-05
3.97108e-07
6.65191e-05
3.71419e-07
6.65432e-05
3.44784e-07
6.65677e-05
3.1677e-07
6.65931e-05
2.8687e-07
6.66196e-05
2.54028e-07
6.66475e-05
2.17461e-07
6.6675e-05
1.74024e-07
1.24649e-07
6.67022e-05
6.74176e-05
5.17955e-09
6.74381e-05
1.83579e-07
6.74644e-05
3.31131e-07
6.74965e-05
4.22449e-07
6.75373e-05
4.9746e-07
6.75815e-05
5.53877e-07
6.76263e-05
5.90269e-07
6.76712e-05
6.13083e-07
6.77158e-05
6.26653e-07
6.77599e-05
6.32552e-07
6.78031e-05
6.31944e-07
6.78452e-05
6.2609e-07
6.78862e-05
6.16078e-07
6.7926e-05
6.02759e-07
6.79645e-05
5.86829e-07
6.80019e-05
5.68868e-07
6.80381e-05
5.49351e-07
6.80732e-05
5.2865e-07
6.81075e-05
5.07049e-07
6.81409e-05
4.84752e-07
6.81737e-05
4.6189e-07
6.8206e-05
4.3853e-07
6.82379e-05
4.14677e-07
6.82698e-05
3.90275e-07
6.83017e-05
3.65201e-07
6.83339e-05
3.39262e-07
6.83665e-05
3.12181e-07
6.83997e-05
2.83556e-07
6.84337e-05
2.52891e-07
6.84683e-05
2.19376e-07
6.85035e-05
1.82285e-07
6.85376e-05
1.3993e-07
9.27431e-08
6.85695e-05
6.93641e-05
2.50963e-08
6.9376e-05
1.71657e-07
6.94008e-05
3.06411e-07
6.94295e-05
3.93684e-07
6.94644e-05
4.62628e-07
6.95023e-05
5.15926e-07
6.9541e-05
5.51616e-07
6.95798e-05
5.74219e-07
6.96188e-05
5.877e-07
6.96576e-05
5.93749e-07
6.9696e-05
5.93513e-07
6.97339e-05
5.8818e-07
6.97712e-05
5.7878e-07
6.98078e-05
5.66124e-07
6.98438e-05
5.50871e-07
6.98791e-05
5.33568e-07
6.99138e-05
5.14661e-07
6.99479e-05
4.94501e-07
6.99816e-05
4.73353e-07
7.0015e-05
4.51404e-07
7.00481e-05
4.28777e-07
7.00811e-05
4.0553e-07
7.01141e-05
3.81662e-07
7.01473e-05
3.57112e-07
7.01807e-05
3.31761e-07
7.02146e-05
3.05423e-07
7.02489e-05
2.77842e-07
7.02838e-05
2.48665e-07
7.03192e-05
2.17466e-07
7.03549e-05
1.83657e-07
7.03905e-05
1.46703e-07
7.04247e-05
1.05771e-07
6.12058e-08
7.04562e-05
7.13552e-05
3.61957e-08
7.13655e-05
1.61405e-07
7.13898e-05
2.82082e-07
7.14175e-05
3.65998e-07
7.14494e-05
4.30737e-07
7.14841e-05
4.81205e-07
7.15197e-05
5.16023e-07
7.15556e-05
5.3833e-07
7.15917e-05
5.51639e-07
7.16277e-05
5.57711e-07
7.16635e-05
5.57687e-07
7.1699e-05
5.52686e-07
7.17341e-05
5.43686e-07
7.17688e-05
5.31467e-07
7.1803e-05
5.16657e-07
7.18368e-05
4.99777e-07
7.18702e-05
4.81249e-07
7.19033e-05
4.61406e-07
7.19361e-05
4.40498e-07
7.19688e-05
4.18702e-07
7.20015e-05
3.96133e-07
7.20342e-05
3.72845e-07
7.2067e-05
3.48835e-07
7.21001e-05
3.24047e-07
7.21334e-05
2.98371e-07
7.21672e-05
2.71642e-07
7.22014e-05
2.43636e-07
7.2236e-05
2.14066e-07
7.22709e-05
1.82598e-07
7.23057e-05
1.48835e-07
7.234e-05
1.12447e-07
7.23727e-05
7.30846e-08
3.11073e-08
7.24028e-05
7.33999e-05
4.15451e-08
7.34097e-05
1.5161e-07
7.34325e-05
2.59335e-07
7.34592e-05
3.39263e-07
7.34895e-05
4.00401e-07
7.35226e-05
4.48099e-07
7.35568e-05
4.81861e-07
7.35913e-05
5.0383e-07
7.3626e-05
5.16979e-07
7.36606e-05
5.23063e-07
7.36951e-05
5.23215e-07
7.37293e-05
5.18488e-07
7.37632e-05
5.09816e-07
7.37967e-05
4.97946e-07
7.38298e-05
4.83484e-07
7.38627e-05
4.66928e-07
7.38953e-05
4.48681e-07
7.39276e-05
4.29059e-07
7.39598e-05
4.08303e-07
7.39919e-05
3.86583e-07
7.4024e-05
3.64008e-07
7.40563e-05
3.40633e-07
7.40886e-05
3.16458e-07
7.41212e-05
2.91438e-07
7.41541e-05
2.65478e-07
7.41873e-05
2.38441e-07
7.42208e-05
2.10147e-07
7.42545e-05
1.80376e-07
7.42882e-05
1.48893e-07
7.43216e-05
1.15453e-07
7.43542e-05
7.98932e-08
7.43851e-05
4.21354e-08
2.54869e-09
7.44137e-05
7.55008e-05
4.31894e-08
7.55104e-05
1.42043e-07
7.55314e-05
2.38344e-07
7.55572e-05
3.13493e-07
7.55864e-05
3.71173e-07
7.56184e-05
4.16127e-07
7.56516e-05
4.48605e-07
7.56853e-05
4.70098e-07
7.57193e-05
4.83037e-07
7.57532e-05
4.89099e-07
7.57871e-05
4.89394e-07
7.58206e-05
4.84914e-07
7.58539e-05
4.76538e-07
7.58869e-05
4.64986e-07
7.59195e-05
4.50837e-07
7.59519e-05
4.34569e-07
7.5984e-05
4.16569e-07
7.60159e-05
3.97141e-07
7.60477e-05
3.76516e-07
7.60794e-05
3.54859e-07
7.61112e-05
3.32279e-07
7.6143e-05
3.08833e-07
7.61749e-05
2.8453e-07
7.6207e-05
2.59338e-07
7.62393e-05
2.33184e-07
7.62718e-05
2.05963e-07
7.63044e-05
1.77542e-07
7.6337e-05
1.47768e-07
7.63694e-05
1.16493e-07
7.64012e-05
8.35908e-08
7.64321e-05
4.90212e-08
7.64614e-05
1.28514e-08
-2.45581e-08
7.64885e-05
7.76601e-05
4.2642e-08
7.76696e-05
1.32528e-07
7.76891e-05
2.18865e-07
7.77138e-05
2.88776e-07
7.7742e-05
3.42996e-07
7.77729e-05
3.85212e-07
7.78054e-05
4.16162e-07
7.78385e-05
4.36966e-07
7.7872e-05
4.49573e-07
7.79055e-05
4.55528e-07
7.7939e-05
4.55904e-07
7.79723e-05
4.51624e-07
7.80053e-05
4.43513e-07
7.80381e-05
4.32253e-07
7.80705e-05
4.184e-07
7.81027e-05
4.02409e-07
7.81346e-05
3.84651e-07
7.81663e-05
3.65419e-07
7.81979e-05
3.44936e-07
7.82294e-05
3.23366e-07
7.82608e-05
3.00817e-07
7.82923e-05
2.77352e-07
7.83239e-05
2.52992e-07
7.83555e-05
2.27719e-07
7.83872e-05
2.01488e-07
7.84189e-05
1.74225e-07
7.84506e-05
1.45843e-07
7.84821e-05
1.16252e-07
7.85133e-05
8.53755e-08
7.85437e-05
5.31754e-08
7.8573e-05
1.96933e-08
7.86008e-05
-1.49291e-08
-5.03563e-08
7.86266e-05
7.98801e-05
4.08521e-08
7.98896e-05
1.23011e-07
7.99078e-05
2.00662e-07
7.99314e-05
2.65173e-07
7.99586e-05
3.15861e-07
7.99884e-05
3.55329e-07
8.00201e-05
3.84547e-07
8.00526e-05
4.04441e-07
8.00856e-05
4.16563e-07
8.01188e-05
4.22299e-07
8.01521e-05
4.22663e-07
8.01852e-05
4.18513e-07
8.02181e-05
4.10615e-07
8.02507e-05
3.99612e-07
8.02831e-05
3.86031e-07
8.03152e-05
3.70307e-07
8.0347e-05
3.52793e-07
8.03787e-05
3.3377e-07
8.04102e-05
3.13455e-07
8.04415e-05
2.92009e-07
8.04728e-05
2.69545e-07
8.0504e-05
2.4613e-07
8.05352e-05
2.21799e-07
8.05664e-05
1.96553e-07
8.05975e-05
1.70369e-07
8.06285e-05
1.43209e-07
8.06593e-05
1.15028e-07
8.06898e-05
8.57857e-08
8.07197e-05
5.54649e-08
8.07488e-05
2.40896e-08
8.07767e-05
-8.24761e-09
8.08032e-05
-4.1372e-08
-7.49816e-08
8.08278e-05
8.21629e-05
3.83859e-08
8.21724e-05
1.13536e-07
8.21895e-05
1.83537e-07
8.2212e-05
2.42677e-07
8.22381e-05
2.89748e-07
8.2267e-05
3.2645e-07
8.22978e-05
3.53786e-07
8.23296e-05
3.72572e-07
8.23621e-05
3.84056e-07
8.2395e-05
3.89448e-07
8.2428e-05
3.89695e-07
8.24609e-05
3.85591e-07
8.24936e-05
3.77843e-07
8.25262e-05
3.6705e-07
8.25585e-05
3.53712e-07
8.25906e-05
3.38239e-07
8.26224e-05
3.20967e-07
8.2654e-05
3.02166e-07
8.26854e-05
2.82046e-07
8.27167e-05
2.60769e-07
8.27478e-05
2.38447e-07
8.27787e-05
2.15158e-07
8.28096e-05
1.90948e-07
8.28403e-05
1.65836e-07
8.28709e-05
1.39824e-07
8.29012e-05
1.12905e-07
8.29311e-05
8.50696e-08
8.29606e-05
5.63197e-08
8.29894e-05
2.66819e-08
8.30172e-05
-3.77843e-09
8.30439e-05
-3.49397e-08
8.30692e-05
-6.66169e-08
-9.85447e-08
8.30927e-05
8.45106e-05
3.5581e-08
8.45199e-05
1.04176e-07
8.45361e-05
1.67328e-07
8.45576e-05
2.21236e-07
8.45827e-05
2.64632e-07
8.46106e-05
2.98545e-07
8.46405e-05
3.23889e-07
8.46717e-05
3.41403e-07
8.47036e-05
3.52102e-07
8.4736e-05
3.57032e-07
8.47687e-05
3.57059e-07
8.48014e-05
3.52915e-07
8.4834e-05
3.45247e-07
8.48664e-05
3.34615e-07
8.48986e-05
3.21484e-07
8.49306e-05
3.06242e-07
8.49624e-05
2.89209e-07
8.49939e-05
2.70642e-07
8.50252e-05
2.50746e-07
8.50563e-05
2.29679e-07
8.50872e-05
2.07559e-07
8.51179e-05
1.8447e-07
8.51483e-05
1.6047e-07
8.51786e-05
1.35597e-07
8.52085e-05
1.09874e-07
8.52381e-05
8.33204e-08
8.52672e-05
5.59572e-08
8.52957e-05
2.7819e-08
8.53234e-05
-1.0363e-09
8.53502e-05
-3.05174e-08
8.53757e-05
-6.04886e-08
8.53999e-05
-9.07678e-08
-1.21125e-07
8.54225e-05
8.69251e-05
3.26362e-08
8.69343e-05
9.49996e-08
8.69497e-05
1.5191e-07
8.69702e-05
2.00779e-07
8.69943e-05
2.40476e-07
8.70213e-05
2.71577e-07
8.70503e-05
2.94849e-07
8.70808e-05
3.10958e-07
8.71121e-05
3.20744e-07
8.71441e-05
3.25101e-07
8.71763e-05
3.24811e-07
8.72087e-05
3.20544e-07
8.7241e-05
3.12892e-07
8.72733e-05
3.0237e-07
8.73053e-05
2.89413e-07
8.73372e-05
2.74385e-07
8.73688e-05
2.57587e-07
8.74002e-05
2.39266e-07
8.74313e-05
2.1962e-07
8.74622e-05
1.98806e-07
8.74928e-05
1.76944e-07
8.75232e-05
1.54127e-07
8.75532e-05
1.30423e-07
8.75829e-05
1.05885e-07
8.76122e-05
8.05562e-08
8.76411e-05
5.44775e-08
8.76693e-05
2.76943e-08
8.76969e-05
2.65053e-10
8.77236e-05
-2.77314e-08
8.77493e-05
-5.61887e-08
8.77737e-05
-8.49672e-08
8.77969e-05
-1.13894e-07
-1.42774e-07
8.78185e-05
8.94085e-05
2.96655e-08
8.94175e-05
8.60569e-08
8.94322e-05
1.37189e-07
8.94517e-05
1.81228e-07
8.9475e-05
2.17239e-07
8.9501e-05
2.4551e-07
8.95292e-05
2.66649e-07
8.95589e-05
2.81248e-07
8.95897e-05
2.90009e-07
8.96211e-05
2.93694e-07
8.96529e-05
2.93001e-07
8.96849e-05
2.88536e-07
8.97169e-05
2.80839e-07
8.97489e-05
2.70381e-07
8.97808e-05
2.57567e-07
8.98124e-05
2.42736e-07
8.98438e-05
2.26173e-07
8.9875e-05
2.08112e-07
8.99059e-05
1.88744e-07
8.99365e-05
1.68225e-07
8.99667e-05
1.46678e-07
8.99966e-05
1.242e-07
9.00262e-05
1.00871e-07
9.00553e-05
7.67565e-08
9.0084e-05
5.1916e-08
9.0112e-05
2.64074e-08
9.01394e-05
2.94377e-10
9.01661e-05
-2.63481e-08
9.01917e-05
-5.34277e-08
9.02164e-05
-8.08313e-08
9.02398e-05
-1.08422e-07
9.0262e-05
-1.36039e-07
-1.63516e-07
9.02827e-05
9.19628e-05
2.67319e-08
9.19715e-05
7.73813e-08
9.19856e-05
1.23096e-07
9.20043e-05
1.62509e-07
9.20266e-05
1.94873e-07
9.20518e-05
2.20305e-07
9.20792e-05
2.39268e-07
9.21082e-05
2.52273e-07
9.21383e-05
2.59914e-07
9.21692e-05
2.62841e-07
9.22005e-05
2.61666e-07
9.22321e-05
2.56937e-07
9.22638e-05
2.49141e-07
9.22955e-05
2.38708e-07
9.2327e-05
2.26011e-07
9.23584e-05
2.11366e-07
9.23895e-05
1.95039e-07
9.24204e-05
1.77254e-07
9.24509e-05
1.58194e-07
9.24811e-05
1.38012e-07
9.2511e-05
1.16833e-07
9.25404e-05
9.47595e-08
9.25694e-05
7.18792e-08
9.25979e-05
4.82687e-08
9.26258e-05
2.39994e-08
9.26531e-05
-8.5737e-10
9.26796e-05
-2.62253e-08
9.27053e-05
-5.20183e-08
9.273e-05
-7.81372e-08
9.27536e-05
-1.04467e-07
9.27761e-05
-1.30877e-07
9.27973e-05
-1.57222e-07
-1.83359e-07
9.28171e-05
9.459e-05
2.38686e-08
9.45984e-05
6.899e-08
9.46119e-05
1.09576e-07
9.46299e-05
1.44554e-07
9.46514e-05
1.73329e-07
9.46758e-05
1.95923e-07
9.47024e-05
2.12677e-07
9.47307e-05
2.24025e-07
9.47601e-05
2.30469e-07
9.47904e-05
2.32562e-07
9.48212e-05
2.30838e-07
9.48524e-05
2.25786e-07
9.48837e-05
2.17844e-07
9.4915e-05
2.07403e-07
9.49462e-05
1.94803e-07
9.49772e-05
1.80336e-07
9.5008e-05
1.64252e-07
9.50385e-05
1.4676e-07
9.50686e-05
1.28039e-07
9.50984e-05
1.08236e-07
9.51278e-05
8.74781e-08
9.51566e-05
6.58708e-08
9.5185e-05
4.35077e-08
9.52128e-05
2.04736e-08
9.524e-05
-3.15124e-09
9.52664e-05
-2.7286e-08
9.5292e-05
-5.18461e-08
9.53167e-05
-7.67393e-08
9.53405e-05
-1.01864e-07
9.53631e-05
-1.27107e-07
9.53846e-05
-1.52347e-07
9.54048e-05
-1.77451e-07
-2.02299e-07
9.54237e-05
9.72923e-05
2.10912e-08
9.73004e-05
6.0888e-08
9.73134e-05
9.65834e-08
9.73306e-05
1.27299e-07
9.73514e-05
1.52555e-07
9.7375e-05
1.72322e-07
9.74008e-05
1.86848e-07
9.74284e-05
1.96491e-07
9.74572e-05
2.01676e-07
9.74869e-05
2.02872e-07
9.75172e-05
2.00541e-07
9.75478e-05
1.95117e-07
9.75787e-05
1.8699e-07
9.76096e-05
1.76513e-07
9.76404e-05
1.63994e-07
9.7671e-05
1.49702e-07
9.77014e-05
1.33869e-07
9.77315e-05
1.16693e-07
9.77612e-05
9.83423e-08
9.77904e-05
7.89616e-08
9.78192e-05
5.86753e-08
9.78475e-05
3.75922e-08
9.78752e-05
1.58095e-08
9.79023e-05
-6.58285e-09
9.79286e-05
-2.94983e-08
9.79542e-05
-5.28504e-08
9.79789e-05
-7.65498e-08
9.80027e-05
-1.00502e-07
9.80254e-05
-1.24605e-07
9.8047e-05
-1.48753e-07
9.80675e-05
-1.72831e-07
9.80868e-05
-1.96721e-07
-2.20322e-07
9.81048e-05
0.000100072
1.84056e-08
0.00010008
5.30712e-08
0.000100092
8.40804e-08
0.000100109
1.10689e-07
0.000100129
1.32501e-07
0.000100152
1.49463e-07
0.000100177
1.6175e-07
0.000100204
1.69653e-07
0.000100232
1.7353e-07
0.000100261
1.73777e-07
0.000100291
1.70793e-07
0.000100321
1.64955e-07
0.000100351
1.56612e-07
0.000100382
1.46077e-07
0.000100412
1.3363e-07
0.000100442
1.19515e-07
0.000100472
1.03947e-07
0.000100502
8.71086e-08
0.000100531
6.91615e-08
0.000100559
5.02445e-08
0.000100588
3.04795e-08
0.000100615
9.97551e-09
0.000100642
-1.11685e-08
0.000100669
-3.28597e-08
0.000100694
-5.50082e-08
0.000100719
-7.75247e-08
0.000100742
-1.00318e-07
0.000100765
-1.23295e-07
0.000100787
-1.46356e-07
0.000100808
-1.694e-07
0.000100827
-1.92324e-07
0.000100845
-2.15021e-07
-2.37407e-07
0.000100863
0.000102931
1.58117e-08
0.000102938
4.55295e-08
0.00010295
7.20316e-08
0.000102966
9.46732e-08
0.000102986
1.13118e-07
0.000103008
1.27303e-07
0.000103032
1.37348e-07
0.000103058
1.43489e-07
0.000103086
1.46021e-07
0.000103114
1.45279e-07
0.000103144
1.41603e-07
0.000103173
1.3532e-07
0.000103203
1.26737e-07
0.000103233
1.1613e-07
0.000103263
1.0375e-07
0.000103293
8.98186e-08
0.000103322
7.45302e-08
0.000103351
5.80562e-08
0.00010338
4.0547e-08
0.000103408
2.21352e-08
0.000103435
2.93929e-09
0.000103462
-1.69338e-08
0.000103488
-3.7385e-08
0.000103514
-5.83209e-08
0.000103539
-7.96507e-08
0.000103562
-1.01285e-07
0.000103585
-1.23133e-07
0.000103607
-1.45104e-07
0.000103628
-1.67104e-07
0.000103647
-1.89039e-07
0.000103666
-2.10814e-07
0.000103683
-2.32334e-07
-2.53528e-07
0.000103699
0.000105871
1.33067e-08
0.000105879
3.82492e-08
0.00010589
6.0404e-08
0.000105906
7.92038e-08
0.000105924
9.43579e-08
0.000105946
1.05798e-07
0.00010597
1.13607e-07
0.000105995
1.17971e-07
0.000106022
1.19132e-07
0.00010605
1.17371e-07
0.000106079
1.12975e-07
0.000106108
1.06224e-07
0.000106137
9.73843e-08
0.000106166
8.66983e-08
0.000106196
7.43872e-08
0.000106225
6.06491e-08
0.000106254
4.56606e-08
0.000106282
2.95785e-08
0.00010631
1.25424e-08
0.000106338
-5.32254e-09
0.000106365
-2.39033e-08
0.000106391
-4.3096e-08
0.000106416
-6.28038e-08
0.000106441
-8.29345e-08
0.000106465
-1.03399e-07
0.000106487
-1.24109e-07
0.000106509
-1.44977e-07
0.00010653
-1.65916e-07
0.00010655
-1.86838e-07
0.000106568
-2.07655e-07
0.000106586
-2.28283e-07
0.000106602
-2.48636e-07
-2.68656e-07
0.000106617
0.000108896
1.08857e-08
0.000108903
3.12143e-08
0.000108914
4.9166e-08
0.000108929
6.42369e-08
0.000108947
7.6172e-08
0.000108968
8.49032e-08
0.000108991
9.04869e-08
0.000109016
9.30664e-08
0.000109042
9.2841e-08
0.00010907
9.00403e-08
0.000109098
8.49046e-08
0.000109126
7.76713e-08
0.000109155
6.85664e-08
0.000109184
5.78e-08
0.000109213
4.55649e-08
0.000109242
3.20359e-08
0.00010927
1.73705e-08
0.000109298
1.71068e-09
0.000109325
-1.48156e-08
0.000109352
-3.20921e-08
0.000109378
-5.00123e-08
0.000109403
-6.84772e-08
0.000109428
-8.73938e-08
0.000109452
-1.06673e-07
0.000109474
-1.26228e-07
0.000109496
-1.45976e-07
0.000109517
-1.65831e-07
0.000109537
-1.85713e-07
0.000109556
-2.0554e-07
0.000109573
-2.25231e-07
0.00010959
-2.44711e-07
0.000109605
-2.63903e-07
-2.82759e-07
0.000109619
0.000112007
8.54342e-09
0.000112014
2.4408e-08
0.000112025
3.82871e-08
0.000112039
4.97303e-08
0.000112057
5.85126e-08
0.000112077
6.45704e-08
0.0001121
6.79418e-08
0.000112124
6.87374e-08
0.00011215
6.71161e-08
0.000112176
6.32642e-08
0.000112204
5.73788e-08
0.000112232
4.96562e-08
0.00011226
4.02857e-08
0.000112289
2.94451e-08
0.000112317
1.72993e-08
0.000112345
3.99967e-09
0.000112373
-1.03155e-08
0.0001124
-2.55199e-08
0.000112426
-4.14982e-08
0.000112453
-5.81441e-08
0.000112478
-7.53588e-08
0.000112502
-9.30499e-08
0.000112526
-1.11129e-07
0.000112549
-1.29513e-07
0.000112571
-1.48118e-07
0.000112592
-1.66866e-07
0.000112612
-1.85679e-07
0.00011263
-2.0448e-07
0.000112648
-2.23194e-07
0.000112665
-2.41749e-07
0.00011268
-2.60076e-07
0.000112694
-2.78107e-07
-2.95804e-07
0.000112707
0.000115207
6.27437e-09
0.000115213
1.78139e-08
0.000115224
2.77381e-08
0.000115238
3.56426e-08
0.000115255
4.13305e-08
0.000115275
4.47478e-08
0.000115297
4.5922e-08
0.000115321
4.49373e-08
0.000115346
4.19179e-08
0.000115372
3.70109e-08
0.000115399
3.03735e-08
0.000115427
2.21635e-08
0.000115454
1.25346e-08
0.000115482
1.63304e-09
0.00011551
-1.0404e-08
0.000115537
-2.34485e-08
0.000115565
-3.7382e-08
0.000115591
-5.20948e-08
0.000115617
-6.74849e-08
0.000115642
-8.34568e-08
0.000115667
-9.9921e-08
0.000115691
-1.16792e-07
0.000115714
-1.3399e-07
0.000115735
-1.51435e-07
0.000115756
-1.69051e-07
0.000115776
-1.86765e-07
0.000115795
-2.04505e-07
0.000115813
-2.22199e-07
0.000115829
-2.39782e-07
0.000115845
-2.57187e-07
0.000115859
-2.74353e-07
0.000115872
-2.91221e-07
-3.07758e-07
0.000115884
0.000118498
4.07352e-09
0.000118504
1.14168e-08
0.000118515
1.74917e-08
0.000118528
2.19333e-08
0.000118545
2.45747e-08
0.000118565
2.53786e-08
0.000118586
2.43693e-08
0.000118609
2.16106e-08
0.000118634
1.71958e-08
0.00011866
1.12367e-08
0.000118686
3.85306e-09
0.000118713
-4.83426e-09
0.000118741
-1.47063e-08
0.000118768
-2.56482e-08
0.000118795
-3.75502e-08
0.000118822
-5.03082e-08
0.000118848
-6.38242e-08
0.000118874
-7.80054e-08
0.0001189
-9.27641e-08
0.000118924
-1.08017e-07
0.000118948
-1.23685e-07
0.000118971
-1.39691e-07
0.000118993
-1.55962e-07
0.000119014
-1.72426e-07
0.000119034
-1.89014e-07
0.000119053
-2.05659e-07
0.00011907
-2.22295e-07
0.000119087
-2.38858e-07
0.000119103
-2.55288e-07
0.000119117
-2.71527e-07
0.00011913
-2.87521e-07
0.000119142
-3.03216e-07
-3.18588e-07
0.000119153
0.000121883
1.93707e-09
0.00012189
5.20489e-09
0.0001219
7.52404e-09
0.000121913
8.56279e-09
0.000121929
8.19105e-09
0.000121948
6.39904e-09
0.00012197
3.2161e-09
0.000121992
-1.31015e-09
0.000122017
-7.11378e-09
0.000122042
-1.41158e-08
0.000122068
-2.22323e-08
0.000122095
-3.13786e-08
0.000122121
-4.14703e-08
0.000122148
-5.24238e-08
0.000122175
-6.41573e-08
0.000122201
-7.65911e-08
0.000122227
-8.96481e-08
0.000122252
-1.03253e-07
0.000122277
-1.17335e-07
0.000122301
-1.31821e-07
0.000122324
-1.46645e-07
0.000122346
-1.61739e-07
0.000122367
-1.77038e-07
0.000122387
-1.92478e-07
0.000122406
-2.07999e-07
0.000122424
-2.23539e-07
0.00012244
-2.39039e-07
0.000122456
-2.54444e-07
0.00012247
-2.69699e-07
0.000122484
-2.84753e-07
0.000122496
-2.99559e-07
0.000122506
-3.1407e-07
-3.28266e-07
0.000122516
0.000125366
-1.36244e-10
0.000125372
-8.26917e-10
0.000125381
-2.18265e-09
0.000125394
-4.50721e-09
0.00012541
-7.87926e-09
0.000125429
-1.22638e-08
0.00012545
-1.7618e-08
0.000125473
-2.39073e-08
0.000125496
-3.10909e-08
0.000125521
-3.9121e-08
0.000125547
-4.79492e-08
0.000125573
-5.75273e-08
0.0001256
-6.78061e-08
0.000125626
-7.8734e-08
0.000125652
-9.02577e-08
0.000125678
-1.02323e-07
0.000125703
-1.14873e-07
0.000125728
-1.27853e-07
0.000125752
-1.41207e-07
0.000125775
-1.54876e-07
0.000125797
-1.68805e-07
0.000125818
-1.82938e-07
0.000125838
-1.97218e-07
0.000125857
-2.11592e-07
0.000125875
-2.26003e-07
0.000125892
-2.40401e-07
0.000125908
-2.54732e-07
0.000125922
-2.68949e-07
0.000125936
-2.83003e-07
0.000125948
-2.9685e-07
0.000125959
-3.10448e-07
0.000125968
-3.23757e-07
-3.36762e-07
0.000125977
0.000128947
-2.14293e-09
0.000128953
-6.67137e-09
0.000128962
-1.16346e-08
0.000128975
-1.73122e-08
0.000128991
-2.37014e-08
0.000129009
-3.06955e-08
0.00012903
-3.82299e-08
0.000129052
-4.62825e-08
0.000129076
-5.48362e-08
0.000129101
-6.38739e-08
0.000129126
-7.33837e-08
0.000129152
-8.33565e-08
0.000129178
-9.37794e-08
0.000129204
-1.04634e-07
0.00012923
-1.15898e-07
0.000129255
-1.2754e-07
0.00012928
-1.3953e-07
0.000129304
-1.5183e-07
0.000129327
-1.644e-07
0.000129349
-1.77198e-07
0.00012937
-1.90179e-07
0.000129391
-2.03299e-07
0.00012941
-2.16512e-07
0.000129428
-2.29772e-07
0.000129445
-2.43032e-07
0.000129461
-2.56248e-07
0.000129476
-2.69375e-07
0.000129489
-2.82371e-07
0.000129501
-2.95195e-07
0.000129512
-3.07809e-07
0.000129522
-3.20178e-07
0.000129531
-3.32267e-07
-3.44066e-07
0.000129538
0.000132631
-4.07002e-09
0.000132637
-1.22971e-08
0.000132646
-2.08173e-08
0.000132658
-2.98828e-08
0.000132674
-3.93503e-08
0.000132692
-4.89993e-08
0.000132713
-5.87383e-08
0.000132735
-6.85611e-08
0.000132759
-7.84748e-08
0.000132783
-8.84941e-08
0.000132809
-9.86475e-08
0.000132834
-1.08968e-07
0.00013286
-1.19481e-07
0.000132886
-1.30205e-07
0.000132911
-1.41147e-07
0.000132936
-1.52305e-07
0.00013296
-1.63671e-07
0.000132983
-1.75227e-07
0.000133006
-1.86951e-07
0.000133027
-1.98817e-07
0.000133048
-2.10793e-07
0.000133067
-2.22845e-07
0.000133086
-2.34937e-07
0.000133103
-2.47033e-07
0.000133119
-2.59096e-07
0.000133134
-2.71087e-07
0.000133148
-2.82971e-07
0.00013316
-2.94711e-07
0.000133171
-3.06273e-07
0.000133181
-3.17625e-07
0.000133189
-3.28736e-07
0.000133197
-3.39575e-07
-3.50136e-07
0.000133203
0.00013642
-5.88566e-09
0.000136425
-1.76259e-08
0.000136434
-2.96792e-08
0.000136447
-4.2242e-08
0.000136462
-5.49139e-08
0.000136481
-6.73029e-08
0.000136501
-7.92944e-08
0.000136523
-9.09041e-08
0.000136547
-1.02163e-07
0.000136572
-1.13125e-07
0.000136597
-1.23867e-07
0.000136622
-1.34471e-07
0.000136648
-1.45006e-07
0.000136673
-1.55528e-07
0.000136698
-1.66076e-07
0.000136723
-1.76678e-07
0.000136746
-1.87349e-07
0.000136769
-1.98093e-07
0.000136791
-2.08906e-07
0.000136812
-2.19774e-07
0.000136832
-2.30682e-07
0.000136851
-2.41607e-07
0.000136868
-2.52523e-07
0.000136885
-2.63404e-07
0.0001369
-2.7422e-07
0.000136914
-2.84942e-07
0.000136926
-2.9554e-07
0.000136937
-3.05985e-07
0.000136947
-3.1625e-07
0.000136956
-3.26307e-07
0.000136964
-3.36134e-07
0.00013697
-3.45706e-07
-3.55021e-07
0.000136975
0.000140317
-7.51796e-09
0.000140322
-2.24862e-08
0.000140331
-3.81063e-08
0.000140343
-5.4408e-08
0.000140358
-7.04987e-08
0.000140377
-8.57567e-08
0.000140398
-1.00082e-07
0.00014042
-1.13523e-07
0.000140444
-1.26126e-07
0.000140469
-1.3799e-07
0.000140495
-1.49253e-07
0.00014052
-1.60058e-07
0.000140546
-1.70523e-07
0.000140571
-1.80746e-07
0.000140596
-1.90805e-07
0.00014062
-2.00757e-07
0.000140643
-2.10644e-07
0.000140665
-2.2049e-07
0.000140687
-2.3031e-07
0.000140707
-2.40107e-07
0.000140726
-2.49876e-07
0.000140744
-2.59608e-07
0.000140761
-2.69287e-07
0.000140777
-2.78895e-07
0.000140791
-2.88411e-07
0.000140804
-2.97814e-07
0.000140815
-3.07081e-07
0.000140825
-3.16189e-07
0.000140834
-3.25117e-07
0.000140842
-3.33841e-07
0.000140848
-3.42342e-07
0.000140853
-3.50595e-07
-3.58599e-07
0.000140856
0.000144326
-8.80957e-09
0.00014433
-2.65122e-08
0.000144338
-4.58693e-08
0.00014435
-6.64081e-08
0.000144365
-8.62782e-08
0.000144384
-1.04576e-07
0.000144405
-1.21306e-07
0.000144429
-1.36582e-07
0.000144453
-1.50487e-07
0.000144478
-1.63186e-07
0.000144504
-1.74896e-07
0.00014453
-1.85821e-07
0.000144555
-1.9613e-07
0.00014458
-2.05966e-07
0.000144605
-2.15446e-07
0.000144629
-2.24659e-07
0.000144652
-2.33673e-07
0.000144674
-2.42536e-07
0.000144695
-2.5128e-07
0.000144715
-2.59925e-07
0.000144733
-2.6848e-07
0.000144751
-2.76946e-07
0.000144767
-2.85319e-07
0.000144781
-2.9359e-07
0.000144795
-3.01747e-07
0.000144807
-3.09776e-07
0.000144817
-3.1766e-07
0.000144826
-3.25384e-07
0.000144834
-3.32933e-07
0.000144841
-3.4029e-07
0.000144846
-3.47443e-07
0.00014485
-3.5438e-07
-3.61105e-07
0.000144852
0.000148449
-9.40179e-09
0.000148451
-2.89819e-08
0.000148458
-5.25452e-08
0.000148469
-7.81734e-08
0.000148486
-1.02424e-07
0.000148505
-1.24193e-07
0.000148528
-1.43616e-07
0.000148552
-1.60805e-07
0.000148577
-1.75911e-07
0.000148603
-1.89256e-07
0.00014863
-2.01196e-07
0.000148656
-2.12025e-07
0.000148682
-2.21977e-07
0.000148707
-2.31246e-07
0.000148731
-2.39988e-07
0.000148755
-2.48326e-07
0.000148778
-2.56349e-07
0.000148799
-2.64126e-07
0.00014882
-2.71704e-07
0.000148839
-2.79117e-07
0.000148857
-2.86386e-07
0.000148873
-2.93523e-07
0.000148889
-3.00533e-07
0.000148902
-3.07414e-07
0.000148915
-3.14163e-07
0.000148926
-3.20773e-07
0.000148935
-3.27232e-07
0.000148944
-3.33532e-07
0.00014895
-3.3966e-07
0.000148956
-3.45602e-07
0.00014896
-3.51346e-07
0.000148962
-3.5687e-07
-3.62178e-07
0.000148963
0.000152688
-8.28348e-09
0.000152687
-2.84593e-08
0.000152693
-5.79152e-08
0.000152704
-8.97861e-08
0.000152721
-1.18519e-07
0.00015274
-1.43842e-07
0.000152763
-1.66242e-07
0.000152788
-1.8563e-07
0.000152814
-2.02137e-07
0.000152841
-2.16239e-07
0.000152868
-2.28437e-07
0.000152895
-2.39126e-07
0.000152922
-2.48624e-07
0.000152948
-2.57199e-07
0.000152973
-2.65061e-07
0.000152997
-2.72373e-07
0.00015302
-2.79258e-07
0.000153042
-2.85807e-07
0.000153062
-2.92087e-07
0.000153081
-2.98146e-07
0.000153099
-3.04019e-07
0.000153115
-3.09727e-07
0.00015313
-3.15284e-07
0.000153143
-3.20697e-07
0.000153155
-3.25968e-07
0.000153165
-3.31096e-07
0.000153174
-3.36077e-07
0.000153181
-3.40907e-07
0.000153187
-3.45581e-07
0.000153192
-3.50094e-07
0.000153195
-3.54445e-07
0.000153196
-3.58637e-07
-3.62676e-07
0.000153197
0.000157046
-2.98318e-09
0.000157038
-2.0657e-08
0.000157042
-6.15582e-08
0.000157056
-1.03872e-07
0.000157076
-1.3859e-07
0.0001571
-1.6749e-07
0.000157126
-1.9203e-07
0.000157152
-2.1247e-07
0.00015718
-2.29365e-07
0.000157207
-2.43488e-07
0.000157234
-2.5545e-07
0.00015726
-2.65687e-07
0.000157286
-2.74559e-07
0.000157312
-2.82365e-07
0.000157336
-2.89339e-07
0.000157359
-2.95658e-07
0.000157381
-3.01458e-07
0.000157402
-3.06843e-07
0.000157422
-3.11891e-07
0.000157441
-3.16662e-07
0.000157458
-3.21198e-07
0.000157474
-3.2553e-07
0.000157488
-3.29679e-07
0.000157501
-3.33661e-07
0.000157513
-3.37484e-07
0.000157523
-3.41153e-07
0.000157531
-3.44671e-07
0.000157538
-3.48036e-07
0.000157544
-3.51245e-07
0.000157548
-3.54292e-07
0.000157551
-3.57168e-07
0.000157552
-3.59853e-07
-3.62358e-07
0.000157552
0.000161526
9.58557e-09
0.000161505
1.09137e-10
0.000161497
-5.3585e-08
0.000161501
-1.07564e-07
0.000161515
-1.52843e-07
0.000161538
-1.90727e-07
0.000161567
-2.21081e-07
0.000161599
-2.44411e-07
0.000161632
-2.624e-07
0.000161665
-2.76613e-07
0.000161698
-2.8805e-07
0.00016173
-2.97379e-07
0.00016176
-3.05122e-07
0.00016179
-3.11679e-07
0.000161818
-3.17334e-07
0.000161844
-3.22292e-07
0.000161869
-3.26703e-07
0.000161893
-3.30676e-07
0.000161916
-3.34294e-07
0.000161937
-3.37617e-07
0.000161956
-3.40689e-07
0.000161974
-3.43542e-07
0.000161991
-3.462e-07
0.000162006
-3.48681e-07
0.000162019
-3.50996e-07
0.000162031
-3.53154e-07
0.000162042
-3.55163e-07
0.000162051
-3.57027e-07
0.000162058
-3.58752e-07
0.000162064
-3.60345e-07
0.000162069
-3.61817e-07
0.000162072
-3.63185e-07
-3.64458e-07
0.000162074
0.0001661
6.35422e-08
0.000166096
3.93156e-09
0.000166112
-7.01017e-08
0.000166128
-1.22882e-07
0.000166143
-1.67717e-07
0.00016616
-2.08102e-07
0.00016618
-2.4156e-07
0.000166204
-2.67896e-07
0.00016623
-2.88701e-07
0.000166259
-3.05343e-07
0.00016629
-3.1868e-07
0.000166322
-3.29377e-07
0.000166354
-3.38006e-07
0.000166388
-3.45016e-07
0.000166421
-3.50739e-07
0.000166454