/*--------------------------------*- C++ -*----------------------------------*\
| =========                 |                                                 |
| \\      /  F ield         | OpenFOAM: The Open Source CFD Toolbox           |
|  \\    /   O peration     | Version:  4.1                                   |
|   \\  /    A nd           | Web:      www.OpenFOAM.org                      |
|    \\/     M anipulation  |                                                 |
\*---------------------------------------------------------------------------*/
FoamFile
{
    version     2.0;
    format      ascii;
    class       volVectorField;
    location    "200";
    object      U;
}
// * * * * * * * * * * * * * * * * * * * * * * * * * * * * * * * * * * * * * //

dimensions      [0 1 -1 0 0 0 0];

internalField   nonuniform List<vector> 
6820
(
(7.316 -0.463594 0)
(7.31115 -0.449237 0)
(7.26534 -0.315624 0)
(7.1792 -0.205455 0)
(7.07492 -0.128614 0)
(6.96529 -0.0771568 0)
(6.85508 -0.0429259 0)
(6.74695 -0.0200527 0)
(6.64284 -0.00478277 0)
(6.54384 0.0052775 0)
(6.45045 0.0117212 0)
(6.36288 0.0156416 0)
(6.28115 0.0178 0)
(6.2052 0.0187327 0)
(6.13485 0.0188215 0)
(6.06985 0.0183397 0)
(6.00993 0.017483 0)
(5.9548 0.0163906 0)
(5.90417 0.015161 0)
(5.85774 0.0138625 0)
(5.81523 0.0125417 0)
(5.77639 0.0112286 0)
(5.74097 0.00994131 0)
(5.70876 0.00868857 0)
(5.67958 0.00747182 0)
(5.65328 0.00628591 0)
(5.62974 0.00512128 0)
(5.60887 0.00395558 0)
(5.59073 0.00278585 0)
(5.57502 0.00153161 0)
(5.56313 0.000230068 0)
(5.55 -0.000100014 0)
(5.55165 -0.00819607 0)
(7.34281 0.124507 0)
(7.36544 0.210884 0)
(7.37962 0.198734 0)
(7.39313 0.16571 0)
(7.41121 0.136297 0)
(7.43039 0.112907 0)
(7.44628 0.0948514 0)
(7.45715 0.0812078 0)
(7.46295 0.0708895 0)
(7.46403 0.0629538 0)
(7.46079 0.056729 0)
(7.45373 0.0517532 0)
(7.44336 0.0476976 0)
(7.4302 0.0443242 0)
(7.41474 0.0414613 0)
(7.39741 0.0389846 0)
(7.37861 0.0368031 0)
(7.35868 0.0348494 0)
(7.33792 0.0330727 0)
(7.31659 0.0314337 0)
(7.29492 0.0299014 0)
(7.27311 0.0284502 0)
(7.25133 0.0270581 0)
(7.22971 0.0257044 0)
(7.20839 0.0243688 0)
(7.18746 0.0230288 0)
(7.16705 0.0216606 0)
(7.14721 0.0202255 0)
(7.12809 0.018713 0)
(7.10969 0.0169679 0)
(7.09243 0.015333 0)
(7.07626 0.0124867 0)
(7.06369 0.0126108 0)
(7.32611 0.00484209 0)
(7.31951 -0.0105796 0)
(7.32611 -0.0226224 0)
(7.33754 -0.0195063 0)
(7.34987 -0.00952321 0)
(7.36226 0.000412279 0)
(7.37391 0.00869291 0)
(7.38444 0.0154618 0)
(7.39393 0.0208992 0)
(7.40245 0.0251442 0)
(7.40999 0.028373 0)
(7.41652 0.0307659 0)
(7.42207 0.0324765 0)
(7.42667 0.0336302 0)
(7.43037 0.0343314 0)
(7.43323 0.0346671 0)
(7.43532 0.0347087 0)
(7.43669 0.0345142 0)
(7.43742 0.0341299 0)
(7.43758 0.0335921 0)
(7.43725 0.0329283 0)
(7.4365 0.0321585 0)
(7.43538 0.0312957 0)
(7.43398 0.0303463 0)
(7.43236 0.0293105 0)
(7.43058 0.0281807 0)
(7.42871 0.0269431 0)
(7.42683 0.0255677 0)
(7.42501 0.0240268 0)
(7.42332 0.0222251 0)
(7.42199 0.0201382 0)
(7.42092 0.0173097 0)
(7.42052 0.0136255 0)
(7.32909 -0.00530015 0)
(7.32383 0.00296024 0)
(7.32887 0.0147178 0)
(7.33566 0.0243422 0)
(7.34164 0.0306493 0)
(7.34784 0.0340683 0)
(7.35431 0.0358097 0)
(7.36068 0.0367687 0)
(7.36689 0.0372985 0)
(7.37294 0.0375124 0)
(7.37879 0.0374815 0)
(7.38438 0.037266 0)
(7.38968 0.0369083 0)
(7.39469 0.0364374 0)
(7.3994 0.0358751 0)
(7.40383 0.0352389 0)
(7.40797 0.0345426 0)
(7.41185 0.033796 0)
(7.41549 0.0330058 0)
(7.4189 0.0321753 0)
(7.42212 0.0313055 0)
(7.42518 0.0303939 0)
(7.42809 0.0294352 0)
(7.4309 0.0284204 0)
(7.43364 0.0273363 0)
(7.43633 0.026164 0)
(7.43902 0.0248783 0)
(7.44173 0.02344 0)
(7.44452 0.0218047 0)
(7.4474 0.0198707 0)
(7.45045 0.0175666 0)
(7.45353 0.0145062 0)
(7.4567 0.0107261 0)
(7.3315 -0.0013851 0)
(7.32879 0.00829358 0)
(7.3315 0.015846 0)
(7.33557 0.0197337 0)
(7.33951 0.0226317 0)
(7.344 0.0250637 0)
(7.34892 0.0269918 0)
(7.35387 0.0285456 0)
(7.35873 0.0298044 0)
(7.36355 0.0307767 0)
(7.3683 0.0314771 0)
(7.37295 0.031937 0)
(7.37747 0.032188 0)
(7.38186 0.0322564 0)
(7.38612 0.0321651 0)
(7.39025 0.0319352 0)
(7.39424 0.0315848 0)
(7.39812 0.0311286 0)
(7.40189 0.0305783 0)
(7.40557 0.0299419 0)
(7.40916 0.0292242 0)
(7.41269 0.0284267 0)
(7.41619 0.027547 0)
(7.41965 0.0265785 0)
(7.42311 0.0255097 0)
(7.42659 0.0243232 0)
(7.43011 0.0229943 0)
(7.43368 0.0214863 0)
(7.43733 0.0197519 0)
(7.44106 0.0177098 0)
(7.44487 0.0152794 0)
(7.44865 0.0122577 0)
(7.45232 0.00866673 0)
(7.33229 0.000716939 0)
(7.33093 0.00770888 0)
(7.33283 0.0133585 0)
(7.33617 0.0170691 0)
(7.3396 0.0204625 0)
(7.34338 0.0234254 0)
(7.34748 0.0256788 0)
(7.35163 0.0273652 0)
(7.35574 0.0286494 0)
(7.35984 0.0295952 0)
(7.36393 0.0302419 0)
(7.36797 0.0306335 0)
(7.37195 0.0308096 0)
(7.37586 0.0308016 0)
(7.3797 0.0306353 0)
(7.38346 0.0303328 0)
(7.38716 0.0299125 0)
(7.3908 0.0293888 0)
(7.39438 0.0287722 0)
(7.39792 0.0280699 0)
(7.40143 0.0272854 0)
(7.40493 0.0264184 0)
(7.40841 0.0254651 0)
(7.41191 0.0244175 0)
(7.41542 0.0232627 0)
(7.41898 0.0219822 0)
(7.42258 0.0205506 0)
(7.42624 0.0189329 0)
(7.42995 0.0170844 0)
(7.43372 0.0149405 0)
(7.4375 0.0124352 0)
(7.44121 0.0094563 0)
(7.44474 0.00600479 0)
(7.3326 0.00131045 0)
(7.33199 0.00679589 0)
(7.33366 0.0120618 0)
(7.33668 0.0159882 0)
(7.33986 0.019311 0)
(7.34324 0.0220677 0)
(7.34687 0.0241509 0)
(7.35058 0.0257101 0)
(7.35429 0.0268967 0)
(7.35799 0.0277709 0)
(7.36168 0.0283671 0)
(7.36535 0.0287235 0)
(7.36898 0.0288757 0)
(7.37257 0.0288516 0)
(7.37611 0.0286743 0)
(7.3796 0.0283631 0)
(7.38305 0.027934 0)
(7.38647 0.0273993 0)
(7.38986 0.0267678 0)
(7.39322 0.0260451 0)
(7.39658 0.0252334 0)
(7.39993 0.0243314 0)
(7.4033 0.0233345 0)
(7.40668 0.0222339 0)
(7.4101 0.0210168 0)
(7.41355 0.019665 0)
(7.41704 0.0181547 0)
(7.42058 0.0164547 0)
(7.42415 0.0145268 0)
(7.42774 0.0123224 0)
(7.4313 0.00979349 0)
(7.43476 0.00688006 0)
(7.43803 0.00358941 0)
(7.3328 0.00157187 0)
(7.33266 0.0063479 0)
(7.33418 0.0111899 0)
(7.33689 0.0149431 0)
(7.33986 0.018005 0)
(7.343 0.0205564 0)
(7.34638 0.0225484 0)
(7.34984 0.0240633 0)
(7.3533 0.0252149 0)
(7.35676 0.0260607 0)
(7.36022 0.0266351 0)
(7.36365 0.0269739 0)
(7.36705 0.0271104 0)
(7.37042 0.0270711 0)
(7.37375 0.0268777 0)
(7.37705 0.0265483 0)
(7.38032 0.0260976 0)
(7.38356 0.025537 0)
(7.38678 0.0248746 0)
(7.38999 0.0241152 0)
(7.3932 0.0232603 0)
(7.39642 0.0223084 0)
(7.39964 0.0212546 0)
(7.40289 0.0200902 0)
(7.40616 0.018803 0)
(7.40946 0.0173762 0)
(7.41279 0.0157886 0)
(7.41615 0.0140138 0)
(7.41952 0.0120211 0)
(7.42288 0.00977559 0)
(7.42619 0.00724559 0)
(7.42937 0.00440181 0)
(7.43238 0.00125762 0)
(7.33292 0.00169481 0)
(7.33307 0.00597107 0)
(7.33447 0.0103089 0)
(7.33689 0.0138187 0)
(7.33967 0.0166903 0)
(7.34264 0.019101 0)
(7.34582 0.0210197 0)
(7.3491 0.0224889 0)
(7.35239 0.0236001 0)
(7.35569 0.0244113 0)
(7.35899 0.0249577 0)
(7.36226 0.0252727 0)
(7.36551 0.0253874 0)
(7.36873 0.0253271 0)
(7.37192 0.0251123 0)
(7.37507 0.02476 0)
(7.3782 0.024284 0)
(7.38131 0.0236946 0)
(7.38441 0.0229992 0)
(7.38749 0.022202 0)
(7.39057 0.0213042 0)
(7.39365 0.0203039 0)
(7.39675 0.0191962 0)
(7.39986 0.0179732 0)
(7.40298 0.0166233 0)
(7.40613 0.0151319 0)
(7.40929 0.0134809 0)
(7.41246 0.0116488 0)
(7.41563 0.00961242 0)
(7.41875 0.00734791 0)
(7.42181 0.00483643 0)
(7.42475 0.00206637 0)
(7.42751 -0.000945655 0)
(7.33299 0.00171149 0)
(7.33331 0.00558098 0)
(7.33461 0.00946715 0)
(7.33679 0.0127412 0)
(7.33938 0.0154451 0)
(7.34218 0.017713 0)
(7.34518 0.0195374 0)
(7.3483 0.0209456 0)
(7.35146 0.0220093 0)
(7.35463 0.0227824 0)
(7.35779 0.0232987 0)
(7.36095 0.0235888 0)
(7.36408 0.0236812 0)
(7.36719 0.0235996 0)
(7.37027 0.0233634 0)
(7.37332 0.0229883 0)
(7.37634 0.0224871 0)
(7.37935 0.0218695 0)
(7.38233 0.0211419 0)
(7.38531 0.0203083 0)
(7.38828 0.0193695 0)
(7.39125 0.0183238 0)
(7.39423 0.0171665 0)
(7.39721 0.0158904 0)
(7.4002 0.0144857 0)
(7.4032 0.0129396 0)
(7.4062 0.0112376 0)
(7.40918 0.00936314 0)
(7.41215 0.00729956 0)
(7.41506 0.00503168 0)
(7.41789 0.00254991 0)
(7.42059 -0.000147236 0)
(7.42314 -0.00304217 0)
(7.33302 0.00166119 0)
(7.33344 0.00518902 0)
(7.33466 0.00868629 0)
(7.33664 0.0117189 0)
(7.33904 0.014249 0)
(7.34168 0.0163688 0)
(7.34451 0.0180884 0)
(7.34747 0.0194269 0)
(7.35049 0.0204381 0)
(7.35354 0.0211693 0)
(7.35659 0.0216522 0)
(7.35964 0.0219148 0)
(7.36267 0.0219831 0)
(7.36568 0.0218789 0)
(7.36867 0.0216204 0)
(7.37163 0.0212222 0)
(7.37456 0.0206959 0)
(7.37748 0.0200506 0)
(7.38038 0.0192923 0)
(7.38326 0.0184244 0)
(7.38614 0.0174477 0)
(7.389 0.0163607 0)
(7.39187 0.0151594 0)
(7.39473 0.0138376 0)
(7.39759 0.0123868 0)
(7.40045 0.010797 0)
(7.40329 0.00905678 0)
(7.4061 0.00715405 0)
(7.40888 0.00507766 0)
(7.41159 0.00281898 0)
(7.41422 0.00037477 0)
(7.41672 -0.00225086 0)
(7.41908 -0.00504082 0)
(7.33304 0.00157409 0)
(7.33349 0.00480004 0)
(7.33464 0.0079553 0)
(7.33646 0.0107438 0)
(7.33868 0.013096 0)
(7.34116 0.0150682 0)
(7.34383 0.0166773 0)
(7.34664 0.0179379 0)
(7.34953 0.0188899 0)
(7.35245 0.0195735 0)
(7.35539 0.0200183 0)
(7.35833 0.0202496 0)
(7.36127 0.0202907 0)
(7.36419 0.0201619 0)
(7.36708 0.0198796 0)
(7.36996 0.0194575 0)
(7.37281 0.0189063 0)
(7.37564 0.0182342 0)
(7.37845 0.0174467 0)
(7.38125 0.0165471 0)
(7.38403 0.0155363 0)
(7.3868 0.014413 0)
(7.38956 0.0131738 0)
(7.39231 0.0118138 0)
(7.39504 0.0103263 0)
(7.39776 0.00870337 0)
(7.40045 0.00693671 0)
(7.40311 0.00501811 0)
(7.40571 0.00294083 0)
(7.40824 0.000700958 0)
(7.41069 -0.00170058 0)
(7.41301 -0.00425671 0)
(7.4152 -0.00695167 0)
(7.33305 0.00146789 0)
(7.33351 0.00441554 0)
(7.33459 0.00726492 0)
(7.33626 0.00981384 0)
(7.33833 0.0119868 0)
(7.34065 0.0138117 0)
(7.34317 0.0153056 0)
(7.34583 0.0164807 0)
(7.34858 0.0173668 0)
(7.35138 0.0179974 0)
(7.35421 0.0183992 0)
(7.35705 0.0185951 0)
(7.35988 0.0186059 0)
(7.3627 0.0184499 0)
(7.36551 0.0181422 0)
(7.3683 0.0176953 0)
(7.37107 0.017119 0)
(7.37381 0.0164208 0)
(7.37654 0.015606 0)
(7.37924 0.0146774 0)
(7.38193 0.0136362 0)
(7.38461 0.0124815 0)
(7.38726 0.0112108 0)
(7.3899 0.00982012 0)
(7.39251 0.00830455 0)
(7.39509 0.0066584 0)
(7.39764 0.00487593 0)
(7.40015 0.00295213 0)
(7.40259 0.00088365 0)
(7.40496 -0.00133008 0)
(7.40723 -0.00368552 0)
(7.40939 -0.00617423 0)
(7.41143 -0.00878213 0)
(7.33305 0.00135281 0)
(7.33351 0.0040378 0)
(7.33453 0.0066095 0)
(7.33607 0.00892699 0)
(7.33798 0.0109203 0)
(7.34016 0.0125977 0)
(7.34253 0.0139729 0)
(7.34506 0.0150565 0)
(7.34767 0.015871 0)
(7.35035 0.0164436 0)
(7.35306 0.0167981 0)
(7.35579 0.0169546 0)
(7.35853 0.0169319 0)
(7.36125 0.0167462 0)
(7.36397 0.0164115 0)
(7.36667 0.0159388 0)
(7.36934 0.0153373 0)
(7.372 0.0146139 0)
(7.37464 0.0137733 0)
(7.37725 0.0128186 0)
(7.37985 0.0117508 0)
(7.38242 0.0105696 0)
(7.38497 0.00927333 0)
(7.38749 0.0078592 0)
(7.38998 0.00632376 0)
(7.39244 0.00466327 0)
(7.39485 0.00287426 0)
(7.39721 0.000954222 0)
(7.3995 -0.00109766 0)
(7.40171 -0.00327969 0)
(7.40383 -0.00558676 0)
(7.40584 -0.00801003 0)
(7.40774 -0.0105372 0)
(7.33305 0.00123478 0)
(7.33349 0.00366906 0)
(7.33445 0.00598476 0)
(7.33588 0.00808006 0)
(7.33766 0.00989452 0)
(7.3397 0.0114244 0)
(7.34194 0.0126786 0)
(7.34432 0.0136662 0)
(7.34681 0.0144042 0)
(7.34937 0.0149144 0)
(7.35196 0.0152174 0)
(7.35459 0.0153311 0)
(7.35722 0.015272 0)
(7.35985 0.0150545 0)
(7.36247 0.0146911 0)
(7.36507 0.014192 0)
(7.36766 0.0135654 0)
(7.37022 0.0128176 0)
(7.37277 0.0119532 0)
(7.37529 0.010975 0)
(7.37779 0.00988447 0)
(7.38026 0.00868162 0)
(7.3827 0.00736558 0)
(7.3851 0.00593468 0)
(7.38747 0.00438683 0)
(7.3898 0.00271993 0)
(7.39208 0.000932373 0)
(7.3943 -0.000976426 0)
(7.39644 -0.00300545 0)
(7.39851 -0.00515151 0)
(7.40049 -0.00740871 0)
(7.40236 -0.00976829 0)
(7.40412 -0.0122196 0)
(7.33305 0.00111716 0)
(7.33347 0.00331086 0)
(7.33437 0.0053874 0)
(7.33569 0.00726982 0)
(7.33736 0.00890753 0)
(7.33927 0.0102901 0)
(7.34138 0.0114219 0)
(7.34363 0.0123099 0)
(7.346 0.0129673 0)
(7.34843 0.0134113 0)
(7.35092 0.0136594 0)
(7.35343 0.0137272 0)
(7.35596 0.0136291 0)
(7.35849 0.0133779 0)
(7.36101 0.0129847 0)
(7.36352 0.0124587 0)
(7.36602 0.0118073 0)
(7.36849 0.0110364 0)
(7.37094 0.0101501 0)
(7.37336 0.00915143 0)
(7.37576 0.00804187 0)
(7.37812 0.00682206 0)
(7.38045 0.00549179 0)
(7.38275 0.00405036 0)
(7.385 0.00249687 0)
(7.3872 0.000830598 0)
(7.38935 -0.00094861 0)
(7.39143 -0.0028399 0)
(7.39344 -0.00484098 0)
(7.39537 -0.00694773 0)
(7.39721 -0.00915397 0)
(7.39895 -0.0114513 0)
(7.40059 -0.0138307 0)
(7.33304 0.00100179 0)
(7.33344 0.00296411 0)
(7.33428 0.0048149 0)
(7.33552 0.00649324 0)
(7.33707 0.00795718 0)
(7.33887 0.00919309 0)
(7.34085 0.0102015 0)
(7.34299 0.0109875 0)
(7.34523 0.011561 0)
(7.34756 0.0119356 0)
(7.34993 0.0121258 0)
(7.35234 0.0121451 0)
(7.35476 0.0120059 0)
(7.35719 0.0117194 0)
(7.35962 0.0112956 0)
(7.36203 0.0107425 0)
(7.36443 0.010067 0)
(7.3668 0.00927424 0)
(7.36916 0.00836835 0)
(7.37148 0.00735213 0)
(7.37377 0.0062274 0)
(7.37603 0.00499519 0)
(7.37825 0.00365596 0)
(7.38043 0.00220981 0)
(7.38256 0.000656862 0)
(7.38464 -0.00100254 0)
(7.38666 -0.00276742 0)
(7.38862 -0.00463589 0)
(7.39049 -0.00660478 0)
(7.39229 -0.00866952 0)
(7.39401 -0.0108239 0)
(7.39562 -0.0130601 0)
(7.39714 -0.0153705 0)
(7.33304 0.000889574 0)
(7.33342 0.00262917 0)
(7.3342 0.00426522 0)
(7.33536 0.00574758 0)
(7.33681 0.00704126 0)
(7.3385 0.00813161 0)
(7.34037 0.00901632 0)
(7.34239 0.0096985 0)
(7.34452 0.0101855 0)
(7.34673 0.010488 0)
(7.349 0.0106179 0)
(7.3513 0.0105865 0)
(7.35362 0.0104045 0)
(7.35595 0.0100817 0)
(7.35828 0.00962669 0)
(7.36059 0.00904673 0)
(7.3629 0.00834787 0)
(7.36518 0.00753496 0)
(7.36743 0.00661178 0)
(7.36965 0.00558114 0)
(7.37184 0.00444504 0)
(7.374 0.00320489 0)
(7.37611 0.00186169 0)
(7.37817 0.000416254 0)
(7.38018 -0.00113054 0)
(7.38214 -0.00277749 0)
(7.38404 -0.00452279 0)
(7.38587 -0.00636381 0)
(7.38762 -0.00829691 0)
(7.3893 -0.0103173 0)
(7.39088 -0.012419 0)
(7.39238 -0.0145947 0)
(7.39379 -0.016838 0)
(7.33304 0.000780924 0)
(7.33339 0.00230599 0)
(7.33413 0.00373664 0)
(7.33521 0.00503035 0)
(7.33657 0.0061576 0)
(7.33815 0.00710385 0)
(7.33992 0.0078649 0)
(7.34183 0.00844211 0)
(7.34385 0.00884079 0)
(7.34596 0.00906914 0)
(7.34812 0.00913666 0)
(7.35032 0.0090529 0)
(7.35254 0.00882689 0)
(7.35477 0.008467 0)
(7.357 0.00798065 0)
(7.35922 0.00737427 0)
(7.36142 0.00665322 0)
(7.36361 0.00582194 0)
(7.36576 0.00488396 0)
(7.36788 0.00384205 0)
(7.36997 0.00269836 0)
(7.37202 0.0014546 0)
(7.37402 0.000112194 0)
(7.37597 -0.0013275 0)
(7.37787 -0.00286298 0)
(7.37971 -0.00449242 0)
(7.38149 -0.00621344 0)
(7.38319 -0.00802295 0)
(7.38483 -0.00991706 0)
(7.38638 -0.011891 0)
(7.38785 -0.0139389 0)
(7.38924 -0.0160544 0)
(7.39054 -0.018232 0)
(7.33304 0.000675942 0)
(7.33337 0.00199425 0)
(7.33406 0.00322763 0)
(7.33507 0.00433932 0)
(7.33635 0.00530403 0)
(7.33784 0.00610798 0)
(7.3395 0.0067458 0)
(7.34131 0.00721743 0)
(7.34323 0.00752648 0)
(7.34523 0.00767913 0)
(7.34729 0.00768288 0)
(7.34939 0.00754553 0)
(7.35152 0.00727463 0)
(7.35365 0.00687725 0)
(7.35578 0.00635975 0)
(7.35791 0.0057277 0)
(7.36002 0.00498586 0)
(7.3621 0.00413821 0)
(7.36416 0.00318805 0)
(7.36618 0.00213808 0)
(7.36816 0.00099054 0)
(7.3701 -0.00025265 0)
(7.372 -0.00158973 0)
(7.37384 -0.00301894 0)
(7.37562 -0.00453833 0)
(7.37735 -0.00614564 0)
(7.37901 -0.00783812 0)
(7.3806 -0.00961244 0)
(7.38212 -0.0114646 0)
(7.38356 -0.0133899 0)
(7.38492 -0.0153831 0)
(7.38619 -0.0174381 0)
(7.38738 -0.0195504 0)
(7.33303 0.000574564 0)
(7.33335 0.00169344 0)
(7.33399 0.0027368 0)
(7.33495 0.00367243 0)
(7.33614 0.00447844 0)
(7.33755 0.00514209 0)
(7.33912 0.00565743 0)
(7.34083 0.00602332 0)
(7.34265 0.00624196 0)
(7.34456 0.00631788 0)
(7.34652 0.00625686 0)
(7.34852 0.00606515 0)
(7.35055 0.00574893 0)
(7.35259 0.00531407 0)
(7.35463 0.00476592 0)
(7.35666 0.00410926 0)
(7.35867 0.00334824 0)
(7.36066 0.00248641 0)
(7.36262 0.00152681 0)
(7.36454 0.000472039 0)
(7.36642 -0.000675648 0)
(7.36826 -0.00191419 0)
(7.37005 -0.00324161 0)
(7.37178 -0.00465586 0)
(7.37346 -0.0061547 0)
(7.37507 -0.00773559 0)
(7.37662 -0.00939558 0)
(7.3781 -0.0111313 0)
(7.3795 -0.0129386 0)
(7.38083 -0.0148133 0)
(7.38208 -0.0167503 0)
(7.38325 -0.0187442 0)
(7.38434 -0.0207912 0)
(7.33303 0.000476635 0)
(7.33333 0.00140295 0)
(7.33393 0.00226278 0)
(7.33483 0.00302776 0)
(7.33596 0.00367876 0)
(7.33728 0.00420423 0)
(7.33877 0.00459808 0)
(7.34039 0.00485839 0)
(7.34212 0.00498629 0)
(7.34393 0.00498492 0)
(7.3458 0.00485859 0)
(7.34771 0.00461218 0)
(7.34965 0.00425061 0)
(7.35159 0.00377864 0)
(7.35354 0.00320069 0)
(7.35548 0.00252077 0)
(7.35739 0.00174243 0)
(7.35929 0.0008688 0)
(7.36115 -9.73789e-05 0)
(7.36297 -0.00115366 0)
(7.36475 -0.00229782 0)
(7.36649 -0.00352773 0)
(7.36817 -0.00484129 0)
(7.3698 -0.0062363 0)
(7.37137 -0.00771036 0)
(7.37288 -0.00926079 0)
(7.37432 -0.0108846 0)
(7.37568 -0.0125783 0)
(7.37698 -0.0143381 0)
(7.3782 -0.0161599 0)
(7.37935 -0.0180391 0)
(7.38042 -0.0199707 0)
(7.38141 -0.0219518 0)
(7.33303 0.000381958 0)
(7.33331 0.0011221 0)
(7.33388 0.0018043 0)
(7.33472 0.00240349 0)
(7.33578 0.00290293 0)
(7.33703 0.00329234 0)
(7.33844 0.00356583 0)
(7.33998 0.00372104 0)
(7.34163 0.00375822 0)
(7.34335 0.0036794 0)
(7.34513 0.00348765 0)
(7.34696 0.00318661 0)
(7.3488 0.00278007 0)
(7.35066 0.00227174 0)
(7.35252 0.00166517 0)
(7.35436 0.000963622 0)
(7.35619 0.000170064 0)
(7.35799 -0.000712823 0)
(7.35975 -0.00168261 0)
(7.36148 -0.00273703 0)
(7.36317 -0.00387397 0)
(7.3648 -0.00509133 0)
(7.36638 -0.00638697 0)
(7.36791 -0.00775862 0)
(7.36937 -0.00920383 0)
(7.37077 -0.0107199 0)
(7.37211 -0.0123039 0)
(7.37337 -0.0139524 0)
(7.37457 -0.0156618 0)
(7.37569 -0.0174283 0)
(7.37673 -0.0192478 0)
(7.3777 -0.0211157 0)
(7.37859 -0.0230297 0)
(7.33303 0.000290318 0)
(7.33329 0.000850205 0)
(7.33383 0.00136011 0)
(7.33462 0.00179784 0)
(7.33563 0.00214885 0)
(7.33681 0.00240421 0)
(7.33815 0.00255855 0)
(7.33961 0.00260931 0)
(7.34118 0.0025561 0)
(7.34282 0.00240003 0)
(7.34452 0.00214314 0)
(7.34626 0.00178795 0)
(7.34802 0.00133718 0)
(7.34979 0.000793618 0)
(7.35156 0.000159939 0)
(7.35332 -0.000561308 0)
(7.35505 -0.00136774 0)
(7.35676 -0.00225714 0)
(7.35844 -0.0032274 0)
(7.36007 -0.00427653 0)
(7.36166 -0.00540254 0)
(7.3632 -0.00660343 0)
(7.36468 -0.00787712 0)
(7.36611 -0.00922136 0)
(7.36747 -0.0106338 0)
(7.36877 -0.0121117 0)
(7.37001 -0.0136522 0)
(7.37117 -0.0152522 0)
(7.37226 -0.0169083 0)
(7.37328 -0.018617 0)
(7.37423 -0.0203745 0)
(7.3751 -0.0221768 0)
(7.3759 -0.0240219 0)
(7.33303 0.000201507 0)
(7.33327 0.000586617 0)
(7.33378 0.00092903 0)
(7.33453 0.00120909 0)
(7.33548 0.00141437 0)
(7.33661 0.00153748 0)
(7.33788 0.00157381 0)
(7.33927 0.00152086 0)
(7.34076 0.00137781 0)
(7.34233 0.00114502 0)
(7.34395 0.000823612 0)
(7.34561 0.000415117 0)
(7.34729 -7.87145e-05 0)
(7.34898 -0.000656032 0)
(7.35067 -0.00131497 0)
(7.35234 -0.00205369 0)
(7.354 -0.0028704 0)
(7.35562 -0.00376336 0)
(7.3572 -0.00473085 0)
(7.35875 -0.00577115 0)
(7.36024 -0.0068825 0)
(7.36169 -0.00806304 0)
(7.36308 -0.00931082 0)
(7.36441 -0.0106237 0)
(7.36567 -0.0119994 0)
(7.36688 -0.0134354 0)
(7.36801 -0.0149289 0)
(7.36908 -0.0164771 0)
(7.37008 -0.0180769 0)
(7.371 -0.019725 0)
(7.37185 -0.0214181 0)
(7.37263 -0.0231525 0)
(7.37333 -0.0249267 0)
(7.33303 0.000115354 0)
(7.33326 0.000330774 0)
(7.33374 0.000509971 0)
(7.33445 0.00063552 0)
(7.33535 0.000697205 0)
(7.33642 0.00068948 0)
(7.33763 0.0006088 0)
(7.33896 0.000452901 0)
(7.34039 0.00022069 0)
(7.34189 -8.80489e-05 0)
(7.34344 -0.000473011 0)
(7.34503 -0.000933589 0)
(7.34663 -0.00146897 0)
(7.34825 -0.00207818 0)
(7.34985 -0.00276017 0)
(7.35145 -0.0035138 0)
(7.35302 -0.00433788 0)
(7.35456 -0.00523118 0)
(7.35606 -0.00619238 0)
(7.35751 -0.00722011 0)
(7.35892 -0.00831284 0)
(7.36028 -0.00946896 0)
(7.36157 -0.0106867 0)
(7.36281 -0.0119641 0)
(7.36399 -0.013299 0)
(7.3651 -0.0146891 0)
(7.36614 -0.0161319 0)
(7.36711 -0.0176247 0)
(7.36801 -0.0191648 0)
(7.36884 -0.0207491 0)
(7.3696 -0.0223748 0)
(7.37029 -0.0240385 0)
(7.37091 -0.0257392 0)
(7.33302 3.17596e-05 0)
(7.33324 8.23034e-05 0)
(7.3337 0.000102033 0)
(7.33437 7.54635e-05 0)
(7.33523 -5.0744e-06 0)
(7.33625 -0.000142774 0)
(7.33741 -0.000339805 0)
(7.33868 -0.00059801 0)
(7.34005 -0.000918619 0)
(7.34149 -0.00130232 0)
(7.34298 -0.00174956 0)
(7.3445 -0.00226062 0)
(7.34604 -0.00283563 0)
(7.34758 -0.00347452 0)
(7.34911 -0.00417705 0)
(7.35063 -0.00494281 0)
(7.35212 -0.00577126 0)
(7.35358 -0.00666167 0)
(7.355 -0.00761317 0)
(7.35638 -0.00862475 0)
(7.3577 -0.00969519 0)
(7.35897 -0.0108231 0)
(7.36018 -0.012007 0)
(7.36133 -0.0132452 0)
(7.36242 -0.0145356 0)
(7.36344 -0.0158762 0)
(7.36439 -0.0172648 0)
(7.36527 -0.0186989 0)
(7.36608 -0.0201761 0)
(7.36683 -0.0216936 0)
(7.3675 -0.023249 0)
(7.3681 -0.0248392 0)
(7.36863 -0.0264635 0)
(7.33302 -4.923e-05 0)
(7.33323 -0.000158814 0)
(7.33366 -0.000295363 0)
(7.3343 -0.000472688 0)
(7.33512 -0.000695154 0)
(7.33609 -0.000962767 0)
(7.33721 -0.00127596 0)
(7.33844 -0.00163604 0)
(7.33975 -0.00204432 0)
(7.34114 -0.00250187 0)
(7.34257 -0.00300985 0)
(7.34403 -0.00356942 0)
(7.34551 -0.00418163 0)
(7.34698 -0.0048473 0)
(7.34845 -0.00556703 0)
(7.3499 -0.00634118 0)
(7.35132 -0.00716987 0)
(7.3527 -0.00805298 0)
(7.35405 -0.00899013 0)
(7.35534 -0.00998073 0)
(7.35659 -0.0110239 0)
(7.35777 -0.0121187 0)
(7.3589 -0.0132638 0)
(7.35997 -0.0144577 0)
(7.36097 -0.0156988 0)
(7.3619 -0.0169852 0)
(7.36277 -0.0183151 0)
(7.36357 -0.0196861 0)
(7.3643 -0.0210962 0)
(7.36496 -0.022543 0)
(7.36554 -0.0240243 0)
(7.36606 -0.0255374 0)
(7.36651 -0.0270818 0)
(7.33302 -0.000127289 0)
(7.33321 -0.000391917 0)
(7.33362 -0.000682198 0)
(7.33422 -0.0010104 0)
(7.33501 -0.00137604 0)
(7.33595 -0.00177466 0)
(7.33703 -0.00220455 0)
(7.33822 -0.00266641 0)
(7.33949 -0.00316154 0)
(7.34083 -0.00369152 0)
(7.34221 -0.00425843 0)
(7.34362 -0.00486456 0)
(7.34504 -0.00551201 0)
(7.34646 -0.00620254 0)
(7.34787 -0.0069376 0)
(7.34926 -0.00771826 0)
(7.35061 -0.00854529 0)
(7.35193 -0.00941909 0)
(7.3532 -0.0103398 0)
(7.35442 -0.0113071 0)
(7.35559 -0.0123206 0)
(7.3567 -0.0133796 0)
(7.35775 -0.0144832 0)
(7.35874 -0.01563 0)
(7.35966 -0.0168188 0)
(7.36051 -0.0180481 0)
(7.3613 -0.019316 0)
(7.36202 -0.0206209 0)
(7.36266 -0.0219607 0)
(7.36324 -0.0233335 0)
(7.36375 -0.0247373 0)
(7.36419 -0.0261697 0)
(7.36455 -0.0276304 0)
(7.33302 -0.000201532 0)
(7.3332 -0.000615042 0)
(7.33357 -0.00105742 0)
(7.33414 -0.00153893 0)
(7.3349 -0.00205112 0)
(7.33581 -0.00258326 0)
(7.33686 -0.00313155 0)
(7.33802 -0.00369615 0)
(7.33926 -0.00427783 0)
(7.34056 -0.0048782 0)
(7.34191 -0.00550016 0)
(7.34328 -0.00614721 0)
(7.34465 -0.00682278 0)
(7.34602 -0.00752994 0)
(7.34737 -0.00827134 0)
(7.3487 -0.00904912 0)
(7.34999 -0.00986495 0)
(7.35125 -0.01072 0)
(7.35245 -0.011615 0)
(7.35361 -0.0125502 0)
(7.3547 -0.0135256 0)
(7.35574 -0.0145409 0)
(7.35672 -0.0155955 0)
(7.35763 -0.0166883 0)
(7.35848 -0.0178185 0)
(7.35926 -0.0189845 0)
(7.35997 -0.0201851 0)
(7.36061 -0.0214187 0)
(7.36118 -0.0226836 0)
(7.36168 -0.0239781 0)
(7.36212 -0.0253004 0)
(7.36248 -0.0266489 0)
(7.36277 -0.0280232 0)
(7.33302 -0.000269936 0)
(7.33317 -0.000823614 0)
(7.33351 -0.00141805 0)
(7.33404 -0.0020596 0)
(7.33477 -0.00272517 0)
(7.33567 -0.00339455 0)
(7.3367 -0.00406262 0)
(7.33784 -0.00473075 0)
(7.33906 -0.00540085 0)
(7.34034 -0.00607558 0)
(7.34166 -0.00675887 0)
(7.343 -0.00745497 0)
(7.34434 -0.00816785 0)
(7.34566 -0.00890111 0)
(7.34697 -0.00965793 0)
(7.34825 -0.0104411 0)
(7.34949 -0.0112527 0)
(7.35068 -0.0120946 0)
(7.35183 -0.012968 0)
(7.35292 -0.0138738 0)
(7.35395 -0.0148125 0)
(7.35493 -0.0157841 0)
(7.35584 -0.0167884 0)
(7.35668 -0.0178251 0)
(7.35745 -0.0188934 0)
(7.35816 -0.0199924 0)
(7.3588 -0.021121 0)
(7.35937 -0.0222782 0)
(7.35987 -0.0234625 0)
(7.3603 -0.0246725 0)
(7.36065 -0.0259069 0)
(7.36094 -0.0271637 0)
(7.36116 -0.028443 0)
(7.33301 -0.000328105 0)
(7.33314 -0.0010082 0)
(7.33342 -0.00175719 0)
(7.33391 -0.0025717 0)
(7.33462 -0.0034047 0)
(7.33551 -0.00422258 0)
(7.33653 -0.00501489 0)
(7.33767 -0.00577938 0)
(7.33888 -0.00651744 0)
(7.34014 -0.0072353 0)
(7.34144 -0.00794198 0)
(7.34275 -0.00864624 0)
(7.34405 -0.00935548 0)
(7.34535 -0.0100759 0)
(7.34662 -0.0108127 0)
(7.34785 -0.0115698 0)
(7.34905 -0.0123504 0)
(7.35019 -0.0131566 0)
(7.35129 -0.0139901 0)
(7.35232 -0.0148519 0)
(7.3533 -0.0157425 0)
(7.35421 -0.0166621 0)
(7.35506 -0.0176105 0)
(7.35584 -0.0185874 0)
(7.35655 -0.0195921 0)
(7.3572 -0.0206237 0)
(7.35777 -0.0216814 0)
(7.35827 -0.0227641 0)
(7.3587 -0.0238706 0)
(7.35907 -0.0249999 0)
(7.35936 -0.0261506 0)
(7.35959 -0.0273217 0)
(7.35974 -0.0285134 0)
(7.33301 -0.000365655 0)
(7.33307 -0.00115105 0)
(7.33327 -0.00206765 0)
(7.3337 -0.00307165 0)
(7.3344 -0.0040776 0)
(7.33529 -0.00505817 0)
(7.33634 -0.00601639 0)
(7.3375 -0.00694701 0)
(7.33873 -0.00784102 0)
(7.34001 -0.00869699 0)
(7.34131 -0.00952002 0)
(7.34261 -0.0103172 0)
(7.3439 -0.0110958 0)
(7.34516 -0.011863 0)
(7.34639 -0.0126256 0)
(7.34759 -0.0133897 0)
(7.34873 -0.0141603 0)
(7.34983 -0.0149418 0)
(7.35086 -0.0157374 0)
(7.35184 -0.0165498 0)
(7.35276 -0.0173811 0)
(7.35361 -0.0182326 0)
(7.3544 -0.0191051 0)
(7.35512 -0.0199994 0)
(7.35576 -0.0209154 0)
(7.35634 -0.0218531 0)
(7.35685 -0.0228121 0)
(7.35729 -0.0237919 0)
(7.35766 -0.0247918 0)
(7.35795 -0.0258108 0)
(7.35818 -0.026848 0)
(7.35834 -0.027902 0)
(7.35842 -0.0289727 0)
(7.33299 -0.000356466 0)
(7.33293 -0.00120345 0)
(7.33299 -0.00234569 0)
(7.33337 -0.00361771 0)
(7.33405 -0.00479879 0)
(7.33494 -0.00583107 0)
(7.33596 -0.00674705 0)
(7.3371 -0.0075811 0)
(7.33833 -0.00835756 0)
(7.33962 -0.00909737 0)
(7.34093 -0.00981726 0)
(7.34224 -0.0105288 0)
(7.34353 -0.0112398 0)
(7.3448 -0.011956 0)
(7.34602 -0.0126814 0)
(7.34721 -0.013419 0)
(7.34833 -0.0141706 0)
(7.34941 -0.0149377 0)
(7.35042 -0.0157212 0)
(7.35136 -0.0165218 0)
(7.35224 -0.0173398 0)
(7.35306 -0.0181755 0)
(7.3538 -0.0190287 0)
(7.35447 -0.0198994 0)
(7.35508 -0.0207872 0)
(7.35561 -0.0216918 0)
(7.35607 -0.0226127 0)
(7.35646 -0.0235493 0)
(7.35678 -0.0245011 0)
(7.35703 -0.0254675 0)
(7.35721 -0.0264479 0)
(7.35732 -0.0274418 0)
(7.35737 -0.0284502 0)
(7.33295 -0.000256443 0)
(7.33261 -0.00105618 0)
(7.33239 -0.00240814 0)
(7.33273 -0.0041184 0)
(7.33358 -0.0059471 0)
(7.33466 -0.00774547 0)
(7.33583 -0.00940256 0)
(7.33707 -0.0108572 0)
(7.33833 -0.0121085 0)
(7.33961 -0.0131864 0)
(7.34088 -0.0141244 0)
(7.34213 -0.0149518 0)
(7.34336 -0.0156955 0)
(7.34456 -0.0163791 0)
(7.34571 -0.0170218 0)
(7.34682 -0.017639 0)
(7.34788 -0.0182427 0)
(7.3489 -0.0188419 0)
(7.34985 -0.0194437 0)
(7.35074 -0.0200532 0)
(7.35158 -0.0206743 0)
(7.35235 -0.0213095 0)
(7.35305 -0.0219607 0)
(7.35369 -0.0226291 0)
(7.35426 -0.0233152 0)
(7.35477 -0.0240193 0)
(7.3552 -0.0247414 0)
(7.35557 -0.025481 0)
(7.35587 -0.0262377 0)
(7.3561 -0.0270108 0)
(7.35626 -0.0277995 0)
(7.35635 -0.0286024 0)
(7.35637 -0.0294194 0)
(7.33289 8.08096e-05 0)
(7.33206 -0.00100705 0)
(7.33122 -0.00239313 0)
(7.33103 -0.00314038 0)
(7.33148 -0.00350226 0)
(7.33237 -0.00394006 0)
(7.33358 -0.00456618 0)
(7.33499 -0.00531955 0)
(7.33649 -0.00615423 0)
(7.338 -0.00705147 0)
(7.3395 -0.00799282 0)
(7.34096 -0.0089582 0)
(7.34238 -0.00993235 0)
(7.34374 -0.0109057 0)
(7.34504 -0.0118722 0)
(7.34628 -0.0128284 0)
(7.34746 -0.0137725 0)
(7.34857 -0.0147039 0)
(7.34962 -0.0156232 0)
(7.35061 -0.0165313 0)
(7.35152 -0.0174293 0)
(7.35238 -0.0183185 0)
(7.35316 -0.0192004 0)
(7.35387 -0.0200761 0)
(7.35452 -0.0209469 0)
(7.3551 -0.0218137 0)
(7.35561 -0.0226776 0)
(7.35605 -0.0235394 0)
(7.35643 -0.0243998 0)
(7.35674 -0.0252595 0)
(7.35698 -0.0261191 0)
(7.35716 -0.0269791 0)
(7.35728 -0.0278411 0)
(7.33241 0.00203981 0)
(7.33045 -0.000678123 0)
(7.33027 -0.00744787 0)
(7.33132 -0.0139407 0)
(7.33226 -0.018701 0)
(7.33293 -0.0219314 0)
(7.33368 -0.0240493 0)
(7.33464 -0.0253606 0)
(7.33576 -0.0261039 0)
(7.33698 -0.0264695 0)
(7.33829 -0.0265973 0)
(7.33968 -0.026585 0)
(7.34112 -0.0265003 0)
(7.34258 -0.0263887 0)
(7.34406 -0.0262802 0)
(7.34553 -0.0261938 0)
(7.34698 -0.026141 0)
(7.3484 -0.0261284 0)
(7.34979 -0.0261595 0)
(7.35112 -0.0262351 0)
(7.3524 -0.0263548 0)
(7.35362 -0.0265173 0)
(7.35478 -0.0267207 0)
(7.35586 -0.0269629 0)
(7.35688 -0.0272413 0)
(7.35782 -0.0275538 0)
(7.35868 -0.0278979 0)
(7.35947 -0.0282715 0)
(7.36019 -0.0286724 0)
(7.36082 -0.0290987 0)
(7.36138 -0.0295486 0)
(7.36186 -0.0300206 0)
(7.36225 -0.0305147 0)
(7.32877 0.00625872 0)
(7.31724 0.0178863 0)
(7.31237 0.025047 0)
(7.31386 0.0270516 0)
(7.31765 0.0256899 0)
(7.32175 0.0228174 0)
(7.32589 0.0193908 0)
(7.33001 0.0157674 0)
(7.33405 0.0121296 0)
(7.33793 0.00861587 0)
(7.34165 0.00531072 0)
(7.34522 0.00224614 0)
(7.34864 -0.000575268 0)
(7.35191 -0.00316293 0)
(7.35504 -0.00553179 0)
(7.35803 -0.00770002 0)
(7.36089 -0.00968706 0)
(7.3636 -0.011512 0)
(7.36619 -0.0131927 0)
(7.36864 -0.0147457 0)
(7.37097 -0.0161856 0)
(7.37316 -0.0175259 0)
(7.37523 -0.0187783 0)
(7.37718 -0.0199532 0)
(7.379 -0.0210598 0)
(7.38071 -0.022106 0)
(7.38229 -0.0230991 0)
(7.38377 -0.0240451 0)
(7.38513 -0.0249494 0)
(7.38638 -0.0258167 0)
(7.38753 -0.0266512 0)
(7.38857 -0.0274554 0)
(7.38952 -0.0282347 0)
(7.33378 -0.0333103 0)
(7.33299 -0.0723453 0)
(7.32808 -0.0857523 0)
(7.32652 -0.0872289 0)
(7.33009 -0.084882 0)
(7.33731 -0.0809632 0)
(7.34627 -0.076176 0)
(7.35575 -0.0711776 0)
(7.36523 -0.0664251 0)
(7.37445 -0.0620912 0)
(7.38323 -0.0582046 0)
(7.3915 -0.0547562 0)
(7.3992 -0.0517241 0)
(7.40633 -0.0490749 0)
(7.41291 -0.0467698 0)
(7.41896 -0.0447703 0)
(7.42451 -0.0430409 0)
(7.42959 -0.0415496 0)
(7.43421 -0.0402679 0)
(7.43842 -0.0391707 0)
(7.44223 -0.0382357 0)
(7.44568 -0.0374438 0)
(7.44878 -0.0367781 0)
(7.45156 -0.036224 0)
(7.45404 -0.0357685 0)
(7.45623 -0.0354007 0)
(7.45815 -0.0351105 0)
(7.45982 -0.0348894 0)