/*--------------------------------*- C++ -*----------------------------------*\
| =========                 |                                                 |
| \\      /  F ield         | OpenFOAM: The Open Source CFD Toolbox           |
|  \\    /   O peration     | Version:  4.1                                   |
|   \\  /    A nd           | Web:      www.OpenFOAM.org                      |
|    \\/     M anipulation  |                                                 |
\*---------------------------------------------------------------------------*/
FoamFile
{
    version     2.0;
    format      ascii;
    class       volScalarField;
    location    "600";
    object      p;
}
// * * * * * * * * * * * * * * * * * * * * * * * * * * * * * * * * * * * * * //

dimensions      [0 2 -2 0 0 0 0];

internalField   nonuniform List<scalar> 
6820
(
-4.81213
-5.03896
-5.11586
-5.12788
-5.14722
-5.16927
-5.1858
-5.19862
-5.20973
-5.21926
-5.22708
-5.23334
-5.23812
-5.24145
-5.24328
-5.24354
-5.24213
-5.2389
-5.23365
-5.22611
-5.21595
-5.20272
-5.18581
-5.16441
-5.13734
-5.10294
-5.05843
-4.99981
-4.91752
-4.80265
-4.59262
-4.3396
-3.28416
-4.8841
-5.02512
-5.08873
-5.10906
-5.13284
-5.15679
-5.17472
-5.18855
-5.20031
-5.2103
-5.21851
-5.22509
-5.23014
-5.2337
-5.23572
-5.23615
-5.23488
-5.23177
-5.22662
-5.21918
-5.20911
-5.19598
-5.17923
-5.15808
-5.13148
-5.09798
-5.05535
-5.00084
-4.92852
-4.83678
-4.70421
-4.58082
-4.49322
-4.94151
-5.02955
-5.08966
-5.11464
-5.13702
-5.15924
-5.1767
-5.19037
-5.20199
-5.21189
-5.22007
-5.22665
-5.23173
-5.23533
-5.23743
-5.23797
-5.23684
-5.2339
-5.22899
-5.22185
-5.21217
-5.19958
-5.18355
-5.16342
-5.13831
-5.10707
-5.06811
-5.0198
-4.95925
-4.88837
-4.80346
-4.75077
-4.73623
-4.98027
-5.03865
-5.09285
-5.11923
-5.14009
-5.16091
-5.17802
-5.19158
-5.20306
-5.21287
-5.22102
-5.2276
-5.23271
-5.23638
-5.23858
-5.23925
-5.2383
-5.23561
-5.231
-5.22427
-5.21514
-5.20327
-5.18823
-5.1695
-5.14641
-5.11819
-5.08392
-5.04301
-4.99491
-4.94313
-4.89076
-4.86681
-4.87593
-5.01142
-5.05124
-5.09712
-5.12336
-5.14323
-5.16281
-5.17947
-5.19286
-5.20419
-5.21391
-5.22204
-5.22865
-5.23383
-5.23761
-5.23997
-5.24084
-5.24016
-5.2378
-5.23364
-5.22747
-5.21908
-5.20818
-5.19447
-5.17755
-5.157
-5.13243
-5.10353
-5.07055
-5.03439
-4.99911
-4.97002
-4.96561
-4.99449
-5.03755
-5.06505
-5.1028
-5.12806
-5.14707
-5.16536
-5.18139
-5.19455
-5.2057
-5.21531
-5.22342
-5.23007
-5.23534
-5.23926
-5.24181
-5.24294
-5.24259
-5.24067
-5.23705
-5.23159
-5.22411
-5.21441
-5.20227
-5.18748
-5.16984
-5.14929
-5.126
-5.10078
-5.07529
-5.0535
-5.04084
-5.04906
-5.08535
-5.05972
-5.07901
-5.10973
-5.13333
-5.1514
-5.16844
-5.18374
-5.1966
-5.20756
-5.21705
-5.22513
-5.23182
-5.2372
-5.24129
-5.24408
-5.24553
-5.24558
-5.24417
-5.24121
-5.23657
-5.23016
-5.22183
-5.21148
-5.19904
-5.18452
-5.16811
-5.15032
-5.13228
-5.11592
-5.10474
-5.10338
-5.11917
-5.15699
-5.07884
-5.09269
-5.11755
-5.13908
-5.15613
-5.172
-5.18652
-5.19901
-5.20976
-5.21912
-5.22716
-5.23392
-5.23943
-5.24372
-5.24678
-5.24859
-5.24912
-5.2483
-5.24607
-5.24238
-5.23715
-5.23034
-5.22192
-5.21196
-5.20062
-5.18829
-5.17568
-5.16402
-5.15522
-5.15218
-5.15852
-5.17875
-5.21597
-5.09562
-5.10583
-5.12595
-5.14523
-5.16119
-5.17597
-5.18971
-5.20178
-5.21229
-5.22152
-5.22954
-5.23636
-5.24201
-5.24653
-5.24991
-5.25214
-5.25318
-5.25303
-5.25163
-5.24896
-5.24502
-5.23981
-5.23341
-5.22596
-5.21776
-5.20931
-5.2014
-5.19525
-5.19256
-5.19566
-5.20718
-5.22993
-5.26569
-5.11058
-5.11831
-5.13465
-5.15173
-5.16655
-5.18032
-5.19327
-5.2049
-5.21516
-5.22426
-5.23225
-5.23914
-5.24496
-5.24974
-5.25347
-5.25615
-5.25778
-5.25833
-5.25782
-5.25626
-5.25366
-5.25011
-5.24574
-5.24077
-5.23558
-5.23071
-5.22696
-5.22546
-5.22764
-5.23528
-5.25026
-5.27427
-5.30829
-5.12409
-5.13009
-5.14346
-5.15849
-5.17216
-5.18498
-5.19718
-5.20835
-5.21836
-5.22732
-5.23529
-5.24227
-5.24828
-5.25334
-5.25745
-5.26063
-5.26287
-5.26419
-5.26462
-5.26419
-5.26298
-5.2611
-5.25873
-5.25616
-5.25377
-5.25213
-5.252
-5.25433
-5.26032
-5.27129
-5.28852
-5.31303
-5.34527
-5.13643
-5.1412
-5.15224
-5.16542
-5.17796
-5.18991
-5.2014
-5.21211
-5.22187
-5.2307
-5.23867
-5.24575
-5.25196
-5.25733
-5.26185
-5.26555
-5.26844
-5.27057
-5.27196
-5.27269
-5.27287
-5.27263
-5.2722
-5.27188
-5.27206
-5.27329
-5.27623
-5.28171
-5.29065
-5.30401
-5.32266
-5.34717
-5.3777
-5.14778
-5.15167
-5.16089
-5.17245
-5.18393
-5.19506
-5.2059
-5.21617
-5.22567
-5.23439
-5.24236
-5.24956
-5.25599
-5.26168
-5.26664
-5.27089
-5.27446
-5.27741
-5.27978
-5.28168
-5.28322
-5.28458
-5.28599
-5.28775
-5.29024
-5.29397
-5.2995
-5.3075
-5.31869
-5.33375
-5.35324
-5.37746
-5.4064
-5.15831
-5.16153
-5.16934
-5.17951
-5.19001
-5.20039
-5.21063
-5.22048
-5.22975
-5.23837
-5.24635
-5.25368
-5.26036
-5.26639
-5.2718
-5.27662
-5.28089
-5.28466
-5.28802
-5.29107
-5.29394
-5.29682
-5.29994
-5.30359
-5.30814
-5.31401
-5.32169
-5.3317
-5.34459
-5.36082
-5.38074
-5.4045
-5.43199
-5.16811
-5.17085
-5.17754
-5.18654
-5.19615
-5.20585
-5.21555
-5.22502
-5.23407
-5.24262
-5.25063
-5.25811
-5.26504
-5.27143
-5.27731
-5.28271
-5.28767
-5.29228
-5.29661
-5.30077
-5.30491
-5.30922
-5.31392
-5.31928
-5.32562
-5.33331
-5.34275
-5.35435
-5.36849
-5.3855
-5.40559
-5.42877
-5.45494
-5.17729
-5.17964
-5.18546
-5.19349
-5.20231
-5.21141
-5.22063
-5.22976
-5.23862
-5.2471
-5.25517
-5.26281
-5.27001
-5.27677
-5.28312
-5.28911
-5.29478
-5.3002
-5.30547
-5.3107
-5.31605
-5.32168
-5.3278
-5.33467
-5.34257
-5.35179
-5.36266
-5.37549
-5.39055
-5.40805
-5.4281
-5.45068
-5.47564
-5.18589
-5.18795
-5.19308
-5.20031
-5.20845
-5.21701
-5.22582
-5.23466
-5.24336
-5.2518
-5.25994
-5.26776
-5.27523
-5.28238
-5.28921
-5.29578
-5.30214
-5.30836
-5.31454
-5.32079
-5.32725
-5.33409
-5.3415
-5.34969
-5.35892
-5.36941
-5.38143
-5.39519
-5.4109
-5.42868
-5.44858
-5.47053
-5.49439
-5.19396
-5.1958
-5.20039
-5.20696
-5.21452
-5.22263
-5.23108
-5.23967
-5.24825
-5.25668
-5.26491
-5.27292
-5.28068
-5.28821
-5.29553
-5.30268
-5.30971
-5.3167
-5.32374
-5.33094
-5.33843
-5.34637
-5.35491
-5.36426
-5.37461
-5.38615
-5.39907
-5.41355
-5.4297
-5.4476
-5.46725
-5.48858
-5.51145
-5.20153
-5.2032
-5.20736
-5.21341
-5.22049
-5.22821
-5.23637
-5.24477
-5.25325
-5.2617
-5.27004
-5.27826
-5.28632
-5.29424
-5.30204
-5.30975
-5.31743
-5.32515
-5.333
-5.34108
-5.34952
-5.35843
-5.36798
-5.37832
-5.38961
-5.402
-5.41564
-5.43063
-5.44706
-5.46497
-5.48432
-5.50504
-5.52701
-5.20862
-5.21015
-5.21399
-5.21962
-5.22632
-5.23372
-5.24164
-5.2499
-5.25833
-5.26682
-5.2753
-5.28374
-5.29211
-5.30042
-5.30868
-5.31694
-5.32525
-5.33366
-5.34226
-5.35116
-5.36044
-5.37023
-5.38065
-5.39183
-5.4039
-5.41697
-5.43115
-5.44652
-5.46311
-5.48093
-5.49996
-5.52009
-5.54124
-5.21523
-5.21666
-5.22025
-5.22556
-5.23196
-5.23912
-5.24687
-5.25502
-5.26344
-5.272
-5.28064
-5.28931
-5.29799
-5.30669
-5.31541
-5.3242
-5.3331
-5.34216
-5.35146
-5.36109
-5.37113
-5.38169
-5.39286
-5.40475
-5.41746
-5.43108
-5.44567
-5.46128
-5.47794
-5.49563
-5.5143
-5.53388
-5.55427
-5.22136
-5.22272
-5.22612
-5.23119
-5.23737
-5.24435
-5.25198
-5.26009
-5.26854
-5.2772
-5.28601
-5.29493
-5.30393
-5.31301
-5.32218
-5.33147
-5.34093
-5.35059
-5.36054
-5.37083
-5.38155
-5.39277
-5.40459
-5.41707
-5.4303
-5.44434
-5.45923
-5.475
-5.49165
-5.50916
-5.52748
-5.54653
-5.56623
-5.22699
-5.2283
-5.23157
-5.23648
-5.2425
-5.24938
-5.25695
-5.26506
-5.27357
-5.28236
-5.29137
-5.30055
-5.30987
-5.31933
-5.32893
-5.33871
-5.34868
-5.35891
-5.36943
-5.38032
-5.39163
-5.40344
-5.4158
-5.42877
-5.44242
-5.45678
-5.47188
-5.48773
-5.50432
-5.52162
-5.53958
-5.55814
-5.57721
-5.2321
-5.23338
-5.23657
-5.24138
-5.24733
-5.25416
-5.26173
-5.26988
-5.27849
-5.28744
-5.29667
-5.30612
-5.31577
-5.3256
-5.33562
-5.34585
-5.35631
-5.36705
-5.3781
-5.38952
-5.40135
-5.41365
-5.42647
-5.43985
-5.45383
-5.46843
-5.48366
-5.49954
-5.51603
-5.5331
-5.55072
-5.5688
-5.5873
-5.23665
-5.23792
-5.24108
-5.24585
-5.25178
-5.25862
-5.26625
-5.2745
-5.28325
-5.2924
-5.30186
-5.31159
-5.32157
-5.33176
-5.34219
-5.35285
-5.36376
-5.37497
-5.3865
-5.39838
-5.41067
-5.42339
-5.43659
-5.4503
-5.46453
-5.4793
-5.49462
-5.51047
-5.52683
-5.54367
-5.56095
-5.5786
-5.59656
-5.2406
-5.24186
-5.24504
-5.24983
-5.25581
-5.26273
-5.27046
-5.27886
-5.2878
-5.29716
-5.30689
-5.31692
-5.32722
-5.33778
-5.34859
-5.35965
-5.37099
-5.38262
-5.39457
-5.40687
-5.41955
-5.43264
-5.44615
-5.46011
-5.47454
-5.48943
-5.50478
-5.52058
-5.5368
-5.5534
-5.57034
-5.58758
-5.60506
-5.24387
-5.24516
-5.24838
-5.25327
-5.25936
-5.26642
-5.27432
-5.28292
-5.29208
-5.3017
-5.3117
-5.32204
-5.33268
-5.34359
-5.35477
-5.36621
-5.37794
-5.38996
-5.40229
-5.41496
-5.42798
-5.44136
-5.45514
-5.4693
-5.48387
-5.49884
-5.51419
-5.52991
-5.54596
-5.56233
-5.57896
-5.59581
-5.61284
-5.24639
-5.24773
-5.25105
-5.25609
-5.26236
-5.26963
-5.27776
-5.28661
-5.29604
-5.30594
-5.31625
-5.32691
-5.33789
-5.34915
-5.36068
-5.37249
-5.38458
-5.39695
-5.40963
-5.42261
-5.43592
-5.44956
-5.46354
-5.47787
-5.49254
-5.50754
-5.52287
-5.53849
-5.55438
-5.57052
-5.58685
-5.60335
-5.61996
-5.24807
-5.24947
-5.25295
-5.25821
-5.26475
-5.2723
-5.28072
-5.28988
-5.29962
-5.30985
-5.3205
-5.33149
-5.34281
-5.35441
-5.36629
-5.37844
-5.39087
-5.40356
-5.41654
-5.4298
-5.44336
-5.45721
-5.47137
-5.48582
-5.50056
-5.51557
-5.53085
-5.54636
-5.56209
-5.578
-5.59405
-5.61022
-5.62646
-5.24877
-5.25026
-5.25396
-5.25955
-5.26644
-5.27436
-5.28315
-5.29267
-5.30279
-5.31338
-5.32438
-5.33573
-5.34739
-5.35934
-5.37155
-5.38403
-5.39676
-5.40975
-5.423
-5.43651
-5.45028
-5.46432
-5.47861
-5.49315
-5.50793
-5.52294
-5.53816
-5.55356
-5.56912
-5.58482
-5.60061
-5.61647
-5.63237
-5.24834
-5.24997
-5.25398
-5.25999
-5.26736
-5.27574
-5.28499
-5.29495
-5.30548
-5.31648
-5.32787
-5.33959
-5.35161
-5.3639
-5.37644
-5.38922
-5.40225
-5.4155
-5.429
-5.44272
-5.45667
-5.47085
-5.48525
-5.49986
-5.51466
-5.52965
-5.5448
-5.56008
-5.57548
-5.59097
-5.60652
-5.6221
-5.63769
-5.24659
-5.24839
-5.25284
-5.25944
-5.26742
-5.27638
-5.28617
-5.29665
-5.30767
-5.31912
-5.33092
-5.34302
-5.3554
-5.36803
-5.38089
-5.39398
-5.40728
-5.42078
-5.4345
-5.44842
-5.46254
-5.47685
-5.49134
-5.506
-5.52081
-5.53577
-5.55085
-5.56602
-5.58128
-5.59658
-5.61191
-5.62723
-5.64253
-5.24323
-5.24529
-5.25036
-5.25777
-5.26654
-5.27621
-5.28667
-5.29777
-5.30935
-5.3213
-5.33355
-5.34606
-5.35881
-5.37177
-5.38493
-5.39829
-5.41183
-5.42556
-5.43946
-5.45354
-5.46779
-5.48219
-5.49674
-5.51143
-5.52624
-5.54115
-5.55615
-5.57122
-5.58632
-5.60145
-5.61658
-5.63167
-5.64672
-5.23791
-5.24035
-5.24633
-5.25488
-5.26467
-5.27519
-5.2864
-5.29819
-5.31039
-5.32287
-5.33561
-5.34856
-5.3617
-5.37503
-5.38851
-5.40216
-5.41597
-5.42992
-5.44403
-5.45827
-5.47265
-5.48716
-5.50178
-5.5165
-5.53131
-5.54619
-5.56113
-5.5761
-5.59108
-5.60605
-5.62099
-5.63588
-5.65069
-5.23009
-5.23313
-5.24048
-5.25064
-5.26178
-5.27344
-5.28566
-5.29831
-5.31119
-5.32422
-5.3374
-5.35073
-5.36419
-5.37778
-5.3915
-5.40534
-5.41932
-5.43343
-5.44765
-5.462
-5.47646
-5.49102
-5.50568
-5.5204
-5.5352
-5.55003
-5.5649
-5.57977
-5.59464
-5.60948
-5.62427
-5.63899
-5.65363
-5.21894
-5.2231
-5.23278
-5.24496
-5.25734
-5.27005
-5.28339
-5.2971
-5.31089
-5.3247
-5.33857
-5.35251
-5.36649
-5.38052
-5.39462
-5.40878
-5.42303
-5.43736
-5.45177
-5.46626
-5.48083
-5.49546
-5.51015
-5.5249
-5.53967
-5.55447
-5.56927
-5.58405
-5.5988
-5.6135
-5.62813
-5.64266
-5.65707
-5.20305
-5.20882
-5.22345
-5.23982
-5.25435
-5.26826
-5.28249
-5.29677
-5.31086
-5.32485
-5.33886
-5.3529
-5.36698
-5.38111
-5.39531
-5.40959
-5.42395
-5.43839
-5.4529
-5.46749
-5.48214
-5.49685
-5.5116
-5.52638
-5.54118
-5.55598
-5.57077
-5.58553
-5.60024
-5.61489
-5.62946
-5.64395
-5.65834
-5.18158
-5.18828
-5.20677
-5.2265
-5.24426
-5.26165
-5.27896
-5.29561
-5.31152
-5.32694
-5.34205
-5.35691
-5.37158
-5.38614
-5.40063
-5.41509
-5.42956
-5.44405
-5.45857
-5.47313
-5.48773
-5.50236
-5.51702
-5.53169
-5.54637
-5.56104
-5.57568
-5.59028
-5.60482
-5.61929
-5.63365
-5.64788
-5.66196
-5.14851
-5.18346
-5.21251
-5.2281
-5.24157
-5.25732
-5.27358
-5.2891
-5.30421
-5.3193
-5.33438
-5.3494
-5.36435
-5.37927
-5.39418
-5.40908
-5.42398
-5.43889
-5.45382
-5.46876
-5.48371
-5.49866
-5.51361
-5.52855
-5.54346
-5.55834
-5.57317
-5.58794
-5.60264
-5.61725
-5.63177
-5.64618
-5.66049
-5.00727
-5.11464
-5.18817
-5.22002
-5.24269
-5.2664
-5.28805
-5.30628
-5.32249
-5.33784
-5.35267
-5.36708
-5.38123
-5.39525
-5.40924
-5.42324
-5.43727
-5.45137
-5.46554
-5.47977
-5.49407
-5.50842
-5.52282
-5.53724
-5.55167
-5.5661
-5.58051
-5.59489
-5.6092
-5.62344
-5.63759
-5.65163
-5.66554
-4.44381
-4.49875
-5.38123
-5.85584
-5.91006
-5.93194
-5.98091
-6.0212
-6.05342
-6.08569
-6.11876
-6.1519
-6.18528
-6.21908
-6.25328
-6.28776
-6.32244
-6.35721
-6.39195
-6.42654
-6.46085
-6.49475
-6.52814
-6.56091
-6.59294
-6.62415
-6.65443
-6.6837
-6.71189
-6.73891
-6.7647
-6.7892
-6.81233
-6.83405
-6.85429
-6.87298
-6.89007
-6.9055
-6.91917
-6.93102
-6.94095
-6.94884
-6.95457
-6.958
-6.95895
-6.95721
-6.95255
-6.9447
-6.93333
-6.91807
-6.89852
-6.87418
-6.84453
-6.80895
-6.76678
-6.71729
-6.65968
-6.59309
-6.5166
-6.42925
-6.33006
-6.21803
-6.0922
-5.95167
-5.7957
-5.62368
-5.43528
-5.23043
-5.00939
-4.77277
-4.52157
-4.25714
-3.9812
-3.69577
-3.40317
-3.10585
-2.80642
-2.50747
-2.21155
-1.9211
-1.63835
-1.36534
-1.10386
-0.855451
-0.62144
-0.402974
-0.201086
-0.0168686
0.148479
0.293441
0.415508
0.511408
0.578071
0.610272
0.602492
0.553124
0.452772
0.343219
0.121641
0.158946
-5.01449
-5.17217
-5.51082
-5.7793
-5.85263
-5.8953
-5.95142
-5.99798
-6.03494
-6.07021
-6.10544
-6.14021
-6.17478
-6.20947
-6.24433
-6.2793
-6.31434
-6.34936
-6.38427
-6.41896
-6.45333
-6.48726
-6.52065
-6.55339
-6.58538
-6.61653
-6.64674
-6.67594
-6.70405
-6.73099
-6.75669
-6.78108
-6.80411
-6.82571
-6.84582
-6.86438
-6.88132
-6.89658
-6.91007
-6.92171
-6.9314
-6.93903
-6.94447
-6.94757
-6.94815
-6.946
-6.94089
-6.93253
-6.9206
-6.90475
-6.88453
-6.85948
-6.82906
-6.79267
-6.74964
-6.69926
-6.64072
-6.57319
-6.49576
-6.40748
-6.30741
-6.19457
-6.06802
-5.92692
-5.77054
-5.59833
-5.40996
-5.20541
-4.98494
-4.74919
-4.49913
-4.23611
-3.96182
-3.67827
-3.38768
-3.0925
-2.79524
-2.49846
-2.20467
-1.91623
-1.63535
-1.36405
-1.10409
-0.857014
-0.624171
-0.406737
-0.205799
-0.0225271
0.141789
0.285499
0.405905
0.499742
0.563811
0.592885
0.581966
0.529636
0.428518
0.317513
0.103603
0.135709
-5.02455
-5.20744
-5.43777
-5.68745
-5.80696
-5.86764
-5.92637
-5.97723
-6.01837
-6.05622
-6.09322
-6.12937
-6.16494
-6.20033
-6.23569
-6.271
-6.30627
-6.34142
-6.3764
-6.41111
-6.44545
-6.47933
-6.51263
-6.54528
-6.57716
-6.6082
-6.63829
-6.66737
-6.69534
-6.72215
-6.74771
-6.77197
-6.79485
-6.8163
-6.83624
-6.85463
-6.87138
-6.88643
-6.89969
-6.91108
-6.9205
-6.92782
-6.93292
-6.93564
-6.9358
-6.9332
-6.92757
-6.91866
-6.90612
-6.8896
-6.86867
-6.84285
-6.81162
-6.77436
-6.73043
-6.67911
-6.61962
-6.55112
-6.47274
-6.38354
-6.28261
-6.16899
-6.04179
-5.9002
-5.74351
-5.57123
-5.38305
-5.17897
-4.95927
-4.72458
-4.47589
-4.21452
-3.94213
-3.66067
-3.37235
-3.07953
-2.78469
-2.4903
-2.19884
-1.91261
-1.6338
-1.36438
-1.10611
-0.860541
-0.629023
-0.412773
-0.212927
-0.030726
0.132455
0.274842
0.393599
0.485517
0.547316
0.573808
0.560535
0.506143
0.405491
0.293515
0.090425
0.113055
-5.05556
-5.23723
-5.43649
-5.64825
-5.77276
-5.84155
-5.90266
-5.95721
-6.00225
-6.04259
-6.08125
-6.11866
-6.15514
-6.19116
-6.22693
-6.26252
-6.29793
-6.33315
-6.36812
-6.40277
-6.43701
-6.47077
-6.50394
-6.53643
-6.56816
-6.59902
-6.62895
-6.65785
-6.68566
-6.71229
-6.73767
-6.76175
-6.78444
-6.8057
-6.82544
-6.84361
-6.86014
-6.87494
-6.88793
-6.89903
-6.90813
-6.9151
-6.91981
-6.92211
-6.9218
-6.91868
-6.9125
-6.90297
-6.88977
-6.87253
-6.85083
-6.8242
-6.79209
-6.75393
-6.70906
-6.65677
-6.59629
-6.52682
-6.44749
-6.35739
-6.25562
-6.14128
-6.01351
-5.87151
-5.71465
-5.54243
-5.35461
-5.15118
-4.93245
-4.69906
-4.45197
-4.19249
-3.92226
-3.64317
-3.35737
-3.06718
-2.775
-2.48326
-2.19436
-1.91058
-1.63406
-1.36674
-1.11038
-0.866512
-0.636522
-0.421653
-0.223096
-0.0421565
0.119715
0.260634
0.377673
0.467718
0.527502
0.551948
0.537163
0.48179
0.382988
0.271091
0.0813451
0.0924298
-5.11869
-5.27904
-5.44813
-5.62019
-5.73998
-5.81621
-5.88054
-5.93776
-5.98594
-6.02863
-6.06888
-6.1075
-6.14488
-6.18151
-6.21768
-6.2535
-6.28903
-6.32428
-6.3592
-6.39375
-6.42787
-6.46146
-6.49444
-6.52674
-6.55826
-6.58892
-6.61863
-6.64733
-6.67492
-6.70133
-6.72651
-6.75036
-6.77283
-6.79386
-6.81336
-6.83128
-6.84754
-6.86206
-6.87474
-6.88551
-6.89424
-6.90082
-6.9051
-6.90693
-6.90611
-6.90242
-6.89563
-6.88544
-6.87153
-6.85352
-6.831
-6.8035
-6.77049
-6.73138
-6.68553
-6.63225
-6.57078
-6.50033
-6.42005
-6.32907
-6.22652
-6.11152
-5.98324
-5.84095
-5.68402
-5.51202
-5.3247
-5.12211
-4.90454
-4.67265
-4.42739
-4.17004
-3.90219
-3.62571
-3.34267
-3.05534
-2.76605
-2.47719
-2.19108
-1.90996
-1.63592
-1.3709
-1.11663
-0.87466
-0.646379
-0.433071
-0.235978
-0.0564661
0.103941
0.243266
0.358521
0.446717
0.504664
0.52746
0.511795
0.456271
0.360352
0.249434
0.0746271
0.0731645
-5.17899
-5.31359
-5.45736
-5.60131
-5.71425
-5.79438
-5.86059
-5.91918
-5.96964
-6.01436
-6.05606
-6.09577
-6.13399
-6.17121
-6.20776
-6.24381
-6.27944
-6.31469
-6.34955
-6.38398
-6.41792
-6.45132
-6.48409
-6.51616
-6.54744
-6.57785
-6.60732
-6.63576
-6.66311
-6.68927
-6.71419
-6.7378
-6.76001
-6.78077
-6.8
-6.81763
-6.83358
-6.84777
-6.86011
-6.87051
-6.87884
-6.88498
-6.88879
-6.89009
-6.88871
-6.88442
-6.87697
-6.86607
-6.8514
-6.83258
-6.80921
-6.7808
-6.74684
-6.70675
-6.65991
-6.60562
-6.54315
-6.47173
-6.39052
-6.2987
-6.19541
-6.07981
-5.95112
-5.80863
-5.65176
-5.48011
-5.29346
-5.09187
-4.87567
-4.64548
-4.40225
-4.14724
-3.882
-3.60834
-3.32828
-3.04403
-2.75785
-2.47206
-2.18894
-1.91067
-1.63932
-1.37678
-1.12478
-0.884871
-0.658465
-0.446877
-0.251397
-0.0734487
0.0853798
0.223034
0.336502
0.422928
0.479259
0.500816
0.484866
0.429951
0.337766
0.228672
0.0696776
0.0554442
-5.23278
-5.34525
-5.46863
-5.59183
-5.69589
-5.77605
-5.84282
-5.90195
-5.95386
-6.00015
-6.04303
-6.08368
-6.12262
-6.16036
-6.19724
-6.23349
-6.26919
-6.30442
-6.33919
-6.37347
-6.40722
-6.44039
-6.47292
-6.50472
-6.53573
-6.56587
-6.59505
-6.62322
-6.65028
-6.67616
-6.70079
-6.7241
-6.74602
-6.76648
-6.78539
-6.8027
-6.81831
-6.83214
-6.84409
-6.85407
-6.86196
-6.86762
-6.87091
-6.87166
-6.86967
-6.86473
-6.85657
-6.84493
-6.82945
-6.80979
-6.78551
-6.75617
-6.72124
-6.68015
-6.63229
-6.57699
-6.51352
-6.44114
-6.35904
-6.26641
-6.16243
-6.04631
-5.9173
-5.77472
-5.61804
-5.44688
-5.26105
-5.06064
-4.84597
-4.61767
-4.37667
-4.1242
-3.86176
-3.59112
-3.31425
-3.03327
-2.7504
-2.46788
-2.18793
-1.9127
-1.6442
-1.38431
-1.13475
-0.89706
-0.672682
-0.462959
-0.269226
-0.0929551
0.0642071
0.200153
0.311875
0.396656
0.451631
0.472383
0.456737
0.403163
0.315446
0.209008
0.06611
0.0396046
-5.28038
-5.37529
-5.48162
-5.58841
-5.68318
-5.76113
-5.82744
-5.88647
-5.93907
-5.98637
-6.03014
-6.07148
-6.111
-6.14915
-6.1863
-6.22269
-6.25843
-6.2936
-6.32824
-6.36234
-6.39588
-6.42879
-6.46104
-6.49255
-6.52326
-6.55308
-6.58195
-6.6098
-6.63653
-6.6621
-6.68641
-6.70939
-6.73098
-6.75109
-6.76966
-6.7866
-6.80182
-6.81525
-6.82678
-6.83631
-6.84371
-6.84885
-6.85158
-6.85173
-6.8491
-6.84346
-6.83457
-6.82213
-6.80582
-6.78527
-6.76007
-6.72975
-6.69383
-6.65173
-6.60284
-6.54652
-6.48207
-6.40875
-6.32578
-6.23239
-6.1278
-6.01123
-5.88198
-5.73942
-5.58304
-5.4125
-5.22765
-5.02857
-4.8156
-4.58936
-4.35076
-4.101
-3.84156
-3.57413
-3.30062
-3.02309
-2.74369
-2.46461
-2.188
-1.91597
-1.65049
-1.3934
-1.14642
-0.911107
-0.688897
-0.481171
-0.289303
-0.114807
0.0406226
0.174848
0.284894
0.368182
0.422072
0.44245
0.427662
0.376111
0.293478
0.1905
0.0635
0.0258195
-5.3221
-5.40335
-5.49546
-5.58898
-5.67507
-5.74954
-5.81451
-5.87284
-5.92548
-5.9733
-6.01762
-6.05944
-6.09935
-6.1378
-6.17513
-6.21159
-6.24732
-6.2824
-6.31688
-6.35077
-6.38405
-6.41668
-6.44862
-6.4798
-6.51017
-6.53965
-6.56817
-6.59566
-6.62204
-6.64725
-6.6712
-6.69382
-6.71504
-6.73477
-6.75295
-6.76948
-6.78429
-6.79728
-6.80834
-6.81737
-6.82425
-6.82883
-6.83096
-6.83047
-6.82715
-6.82078
-6.81111
-6.79785
-6.78066
-6.7592
-6.73304
-6.70174
-6.6648
-6.62167
-6.57176
-6.51443
-6.449
-6.37477
-6.29097
-6.19687
-6.09172
-5.97478
-5.84539
-5.70295
-5.54699
-5.3772
-5.19345
-4.99584
-4.78471
-4.56068
-4.32465
-4.07776
-3.82146
-3.55739
-3.2874
-3.01347
-2.7377
-2.46221
-2.18909
-1.9204
-1.65807
-1.40394
-1.15968
-0.926865
-0.706951
-0.501338
-0.311438
-0.138797
0.0148565
0.147373
0.255837
0.337801
0.390877
0.411293
0.397873
0.348963
0.271904
0.173141
0.0614712
0.0141354
-5.35867
-5.42931
-5.50973
-5.59237
-5.6706
-5.74095
-5.80387
-5.86102
-5.91321
-5.9611
-6.00565
-6.04772
-6.08786
-6.12647
-6.16389
-6.20035
-6.23601
-6.27095
-6.30524
-6.33888
-6.37188
-6.4042
-6.4358
-6.46664
-6.49664
-6.52574
-6.55388
-6.58098
-6.60698
-6.63179
-6.65534
-6.67756
-6.69837
-6.71769
-6.73544
-6.75153
-6.76588
-6.77839
-6.78895
-6.79745
-6.80376
-6.80774
-6.80923
-6.80806
-6.80402
-6.79689
-6.7864
-6.77228
-6.7542
-6.73179
-6.70465
-6.67235
-6.63438
-6.59022
-6.53929
-6.48096
-6.41457
-6.33945
-6.25487
-6.16011
-6.05445
-5.93722
-5.80776
-5.66554
-5.5101
-5.34117
-5.15864
-4.96262
-4.75347
-4.53179
-4.29844
-4.05457
-3.80154
-3.54096
-3.27461
-3.00442
-2.73241
-2.46062
-2.19112
-1.92589
-1.66685
-1.41578
-1.17437
-0.944174
-0.726665
-0.523268
-0.335421
-0.164694
-0.0128425
0.117998
0.224992
0.305816
0.358346
0.37918
0.367586
0.321866
0.250755
0.156897
0.0597145
0.00452972
-5.39088
-5.45322
-5.52409
-5.59769
-5.66892
-5.73493
-5.79534
-5.85093
-5.90227
-5.94985
-5.99434
-6.03644
-6.07663
-6.11528
-6.15269
-6.18908
-6.22461
-6.25938
-6.29344
-6.32681
-6.3595
-6.39148
-6.42273
-6.45318
-6.48279
-6.51149
-6.53922
-6.56591
-6.59148
-6.61587
-6.639
-6.66078
-6.68115
-6.70002
-6.71731
-6.73293
-6.74678
-6.75877
-6.76879
-6.77672
-6.78243
-6.78578
-6.7866
-6.78472
-6.77992
-6.77199
-6.76066
-6.74566
-6.72665
-6.70327
-6.67515
-6.64182
-6.60282
-6.55763
-6.50567
-6.44635
-6.37903
-6.30305
-6.21772
-6.12235
-6.01626
-5.8988
-5.76936
-5.62743
-5.47261
-5.30464
-5.12343
-4.92912
-4.72205
-4.50281
-4.27227
-4.03151
-3.78186
-3.52488
-3.26228
-2.99592
-2.72776
-2.4598
-2.19401
-1.93235
-1.67669
-1.4288
-1.19034
-0.962861
-0.747854
-0.546755
-0.36103
-0.192262
-0.0422171
0.0869968
0.192649
0.272527
0.324769
0.346368
0.336999
0.294947
0.230048
0.141695
0.057974
-0.00308386
-5.41943
-5.47518
-5.53824
-5.60429
-5.66934
-5.73105
-5.78869
-5.84245
-5.89264
-5.93958
-5.98375
-6.02567
-6.06575
-6.10431
-6.14161
-6.17787
-6.21322
-6.24776
-6.28156
-6.31463
-6.34699
-6.37862
-6.40948
-6.43954
-6.46874
-6.49702
-6.52432
-6.55057
-6.5757
-6.59964
-6.62231
-6.64363
-6.66353
-6.68192
-6.69872
-6.71383
-6.72716
-6.7386
-6.74805
-6.75538
-6.76046
-6.76314
-6.76326
-6.76063
-6.75506
-6.7463
-6.73411
-6.71819
-6.69824
-6.67389
-6.64475
-6.6104
-6.57037
-6.52414
-6.47117
-6.41088
-6.34265
-6.26585
-6.17981
-6.08387
-5.9774
-5.85977
-5.73042
-5.58886
-5.43474
-5.26781
-5.08801
-4.89548
-4.69058
-4.47389
-4.24623
-4.00866
-3.76247
-3.50916
-3.25039
-2.98795
-2.72373
-2.45966
-2.19767
-1.93967
-1.68748
-1.44285
-1.20742
-0.982749
-0.770322
-0.571592
-0.388039
-0.221256
-0.073008
0.0546422
0.159093
0.238224
0.290423
0.313098
0.30629
0.268306
0.209785
0.127444
0.0560492
-0.00885973
-5.4449
-5.49533
-5.552
-5.61169
-5.67131
-5.72893
-5.78369
-5.83543
-5.88424
-5.93029
-5.97391
-6.01546
-6.05528
-6.09362
-6.13073
-6.16677
-6.20189
-6.23617
-6.26967
-6.30242
-6.33442
-6.36567
-6.39614
-6.42579
-6.45456
-6.4824
-6.50925
-6.53505
-6.55972
-6.58319
-6.60538
-6.62623
-6.64563
-6.66352
-6.6798
-6.69438
-6.70716
-6.71803
-6.72688
-6.73358
-6.738
-6.74
-6.73939
-6.736
-6.72961
-6.72001
-6.70693
-6.6901
-6.66918
-6.64384
-6.61369
-6.57832
-6.53725
-6.49
-6.43603
-6.37479
-6.30567
-6.22807
-6.14136
-6.04491
-5.93811
-5.82037
-5.69117
-5.55005
-5.39669
-5.23087
-5.05255
-4.86189
-4.65922
-4.44513
-4.22041
-3.9861
-3.74343
-3.49385
-3.23896
-2.98049
-2.72026
-2.46014
-2.20202
-1.94774
-1.69909
-1.45779
-1.22546
-1.00366
-0.793878
-0.597569
-0.416225
-0.251439
-0.10496
0.0212005
0.124594
0.203177
0.255568
0.279593
0.275623
0.242022
0.189959
0.11403
0.0537952
-0.0130044
-5.46776
-5.51383
-5.56523
-5.61955
-5.67441
-5.72821
-5.78009
-5.82971
-5.87698
-5.92196
-5.96483
-6.00585
-6.04526
-6.08327
-6.12009
-6.15585
-6.19067
-6.22464
-6.25781
-6.29021
-6.32184
-6.3527
-6.38275
-6.41197
-6.4403
-6.4677
-6.49409
-6.51942
-6.54361
-6.5666
-6.58831
-6.60865
-6.62755
-6.64491
-6.66066
-6.67468
-6.68689
-6.69717
-6.7054
-6.71146
-6.7152
-6.71648
-6.71513
-6.71096
-6.70375
-6.69329
-6.67932
-6.66155
-6.63967
-6.61333
-6.58217
-6.54577
-6.50367
-6.45541
-6.40047
-6.33829
-6.26832
-6.18996
-6.10262
-6.0057
-5.89861
-5.78081
-5.65181
-5.5112
-5.35865
-5.194
-5.01722
-4.82846
-4.62808
-4.41663
-4.1949
-3.96388
-3.72477
-3.47895
-3.22797
-2.9735
-2.7173
-2.46118
-2.20696
-1.95645
-1.71139
-1.47347
-1.2443
-1.02543
-0.818334
-0.624484
-0.44537
-0.282577
-0.13783
-0.0130742
0.0894042
0.167635
0.22044
0.246053
0.245143
0.216162
0.170555
0.101326
0.0511143
-0.0157607
-5.48838
-5.53084
-5.57785
-5.62763
-5.6783
-5.72859
-5.77768
-5.82513
-5.87076
-5.91452
-5.95649
-5.99683
-6.03571
-6.07329
-6.10972
-6.14513
-6.1796
-6.21322
-6.24602
-6.27804
-6.30928
-6.33973
-6.36936
-6.39814
-6.42602
-6.45295
-6.47888
-6.50373
-6.52744
-6.54993
-6.57113
-6.59096
-6.60934
-6.62617
-6.64136
-6.65482
-6.66644
-6.67611
-6.68371
-6.68911
-6.69217
-6.69272
-6.69061
-6.68564
-6.67761
-6.66628
-6.6514
-6.63269
-6.60985
-6.58252
-6.55035
-6.51293
-6.46983
-6.42057
-6.36466
-6.30159
-6.23079
-6.1517
-6.06377
-5.96642
-5.85909
-5.74129
-5.61254
-5.47247
-5.3208
-5.15736
-4.98215
-4.79534
-4.59727
-4.3885
-4.16978
-3.94206
-3.70652
-3.46448
-3.21743
-2.96698
-2.71482
-2.46272
-2.21242
-1.9657
-1.72426
-1.48977
-1.2638
-1.04788
-0.843511
-0.652143
-0.475266
-0.31445
-0.171385
-0.0479447
0.0537571
0.131823
0.185254
0.212659
0.21498
0.190786
0.151565
0.0892169
0.0479511
-0.0173907
-5.50707
-5.54649
-5.58982
-5.63572
-5.68274
-5.72982
-5.77624
-5.82155
-5.86548
-5.90792
-5.94887
-5.98842
-6.02666
-6.0637
-6.09967
-6.13465
-6.16872
-6.20194
-6.23434
-6.26595
-6.29678
-6.32679
-6.35599
-6.38431
-6.41174
-6.4382
-6.46365
-6.48801
-6.51123
-6.53322
-6.55391
-6.57322
-6.59106
-6.60735
-6.62198
-6.63486
-6.64589
-6.65494
-6.66189
-6.66662
-6.66898
-6.6688
-6.66593
-6.66016
-6.65129
-6.63909
-6.62331
-6.60366
-6.57985
-6.55155
-6.51838
-6.47995
-6.43585
-6.38562
-6.32878
-6.26483
-6.19324
-6.11347
-6.02498
-5.92724
-5.81972
-5.70195
-5.5735
-5.43402
-5.28325
-5.12107
-4.94747
-4.76262
-4.56689
-4.3608
-4.14509
-3.92069
-3.68872
-3.45045
-3.20732
-2.96088
-2.71277
-2.46468
-2.21832
-1.97541
-1.73761
-1.50655
-1.2838
-1.07088
-0.869244
-0.680366
-0.50572
-0.346854
-0.205414
-0.0831932
0.0178625
0.0959416
0.150197
0.179571
0.185243
0.16594
0.132987
0.0776045
0.0442951
-0.0181578
-5.52408
-5.56092
-5.60113
-5.64371
-5.68751
-5.73168
-5.7756
-5.81881
-5.86103
-5.90209
-5.94194
-5.98059
-6.01809
-6.05452
-6.08995
-6.12444
-6.15805
-6.19083
-6.2228
-6.25398
-6.28436
-6.31393
-6.34267
-6.37054
-6.39749
-6.42348
-6.44844
-6.47231
-6.49502
-6.5165
-6.53668
-6.55546
-6.57276
-6.58849
-6.60256
-6.61485
-6.62527
-6.6337
-6.64
-6.64406
-6.64571
-6.6448
-6.64115
-6.63458
-6.62488
-6.61181
-6.59513
-6.57455
-6.54979
-6.52051
-6.48636
-6.44695
-6.40188
-6.3507
-6.29296
-6.22816
-6.15581
-6.07539
-5.98639
-5.8883
-5.78063
-5.66294
-5.53482
-5.39597
-5.24614
-5.08523
-4.91325
-4.7304
-4.537
-4.3336
-4.1209
-3.8998
-3.67137
-3.43686
-3.19763
-2.95519
-2.71111
-2.46702
-2.22459
-1.98549
-1.75133
-1.52372
-1.3042
-1.09426
-0.895377
-0.708986
-0.536554
-0.379599
-0.239719
-0.118622
-0.0180916
0.0601686
0.115435
0.146925
0.156029
0.141663
0.114822
0.0664057
0.040178
-0.0183071
-5.5396
-5.57422
-5.61178
-5.65148
-5.69245
-5.734
-5.77558
-5.81679
-5.8573
-5.89696
-5.93564
-5.97333
-6.01002
-6.04576
-6.08058
-6.11453
-6.14763
-6.17993
-6.21143
-6.24215
-6.27207
-6.30117
-6.32944
-6.35684
-6.38331
-6.40881
-6.43328
-6.45665
-6.47885
-6.49982
-6.51947
-6.53771
-6.55447
-6.56964
-6.58314
-6.59484
-6.60465
-6.61245
-6.6181
-6.62147
-6.62241
-6.62077
-6.61635
-6.60898
-6.59845
-6.58452
-6.56694
-6.54545
-6.51975
-6.48951
-6.4544
-6.41403
-6.36801
-6.31591
-6.2573
-6.19169
-6.11861
-6.03758
-5.94811
-5.84971
-5.74193
-5.62436
-5.49662
-5.35842
-5.20955
-5.04994
-4.8796
-4.69874
-4.50768
-4.30695
-4.09724
-3.87942
-3.65451
-3.42372
-3.18836
-2.94988
-2.7098
-2.46969
-2.23117
-1.99585
-1.76533
-1.54116
-1.32486
-1.11792
-0.921769
-0.73785
-0.567604
-0.412514
-0.274125
-0.154054
-0.0539367
0.0246604
0.0811049
0.114836
0.127422
0.117982
0.0970764
0.0555534
0.0356597
-0.0180568
-5.55381
-5.58651
-5.62177
-5.65899
-5.69747
-5.73664
-5.77606
-5.81535
-5.85421
-5.89245
-5.92993
-5.9666
-6.00243
-6.03742
-6.07158
-6.10492
-6.13748
-6.16925
-6.20026
-6.23048
-6.25992
-6.28855
-6.31633
-6.34324
-6.36922
-6.39423
-6.4182
-6.44106
-6.46275
-6.4832
-6.50232
-6.52003
-6.53623
-6.55084
-6.56376
-6.57487
-6.58407
-6.59123
-6.59623
-6.59892
-6.59915
-6.59677
-6.59159
-6.58342
-6.57206
-6.55728
-6.53882
-6.51643
-6.4898
-6.45863
-6.42258
-6.38127
-6.33433
-6.28135
-6.22189
-6.15551
-6.08175
-6.00015
-5.91024
-5.81158
-5.70373
-5.5863
-5.45897
-5.32145
-5.17358
-5.01527
-4.84658
-4.6677
-4.47897
-4.2809
-4.07415
-3.85957
-3.63814
-3.41103
-3.1795
-2.94493
-2.70881
-2.47264
-2.238
-2.00644
-1.77952
-1.55878
-1.34569
-1.14172
-0.948292
-0.76682
-0.598721
-0.445443
-0.30847
-0.18933
-0.0895189
-0.0104478
0.0473199
0.0833945
0.0994904
0.0949262
0.0797555
0.0449951
0.0308149
-0.0175914
-5.56684
-5.59786
-5.63113
-5.66618
-5.70245
-5.73949
-5.77692
-5.8144
-5.85166
-5.88849
-5.92477
-5.96039
-5.99531
-6.0295
-6.06294
-6.09565
-6.12761
-6.15883
-6.1893
-6.21901
-6.24795
-6.27608
-6.30337
-6.32978
-6.35526
-6.37977
-6.40323
-6.42558
-6.44676
-6.46668
-6.48527
-6.50243
-6.51808
-6.53213
-6.54446
-6.55498
-6.56357
-6.57009