/*--------------------------------*- C++ -*----------------------------------*\
| =========                 |                                                 |
| \\      /  F ield         | OpenFOAM: The Open Source CFD Toolbox           |
|  \\    /   O peration     | Version:  4.1                                   |
|   \\  /    A nd           | Web:      www.OpenFOAM.org                      |
|    \\/     M anipulation  |                                                 |
\*---------------------------------------------------------------------------*/
FoamFile
{
    version     2.0;
    format      ascii;
    class       surfaceScalarField;
    location    "600";
    object      phi;
}
// * * * * * * * * * * * * * * * * * * * * * * * * * * * * * * * * * * * * * //

dimensions      [0 3 -1 0 0 0 0];

internalField   nonuniform List<scalar> 
13452
(
5.98811e-05
3.87339e-07
5.95252e-05
3.55947e-07
5.92696e-05
2.556e-07
5.90615e-05
2.08088e-07
5.88792e-05
1.82274e-07
5.87166e-05
1.6266e-07
5.85687e-05
1.47896e-07
5.84319e-05
1.36754e-07
5.83042e-05
1.27727e-07
5.81841e-05
1.20095e-07
5.80705e-05
1.13599e-07
5.79624e-05
1.08073e-07
5.7859e-05
1.03374e-07
5.77596e-05
9.94047e-08
5.76635e-05
9.6099e-08
5.75701e-05
9.34192e-08
5.74788e-05
9.13496e-08
5.73889e-05
8.98984e-08
5.72998e-05
8.91008e-08
5.72107e-05
8.90249e-08
5.7121e-05
8.97833e-08
5.70294e-05
9.15533e-08
5.69348e-05
9.46124e-08
5.68354e-05
9.94045e-08
5.67287e-05
1.06669e-07
5.6611e-05
1.17692e-07
5.64761e-05
1.34939e-07
5.6313e-05
1.63117e-07
5.6099e-05
2.14017e-07
5.57909e-05
3.08067e-07
5.52608e-05
5.30056e-07
5.42108e-05
1.05002e-06
1.53919e-06
5.26716e-05
6.20749e-05
3.02766e-07
6.19987e-05
4.32127e-07
6.18516e-05
4.02698e-07
6.16884e-05
3.71325e-07
6.15292e-05
3.41447e-07
6.13797e-05
3.12188e-07
6.12401e-05
2.87492e-07
6.11094e-05
2.67499e-07
6.09863e-05
2.50822e-07
6.08698e-05
2.36601e-07
6.07589e-05
2.24402e-07
6.06531e-05
2.13917e-07
6.05516e-05
2.0491e-07
6.04538e-05
1.97216e-07
6.03591e-05
1.90728e-07
6.02672e-05
1.85382e-07
6.01774e-05
1.81151e-07
6.00892e-05
1.78046e-07
6.00022e-05
1.76123e-07
5.99157e-05
1.75492e-07
5.98292e-05
1.76329e-07
5.97418e-05
1.78913e-07
5.96528e-05
1.83667e-07
5.95609e-05
1.91248e-07
5.94649e-05
2.02707e-07
5.93628e-05
2.19737e-07
5.92523e-05
2.45431e-07
5.91307e-05
2.84733e-07
5.89949e-05
3.4988e-07
5.88483e-05
4.54646e-07
5.87143e-05
6.64075e-07
5.87607e-05
1.00358e-06
1.6378e-06
5.86621e-05
6.38373e-05
2.26843e-07
6.38685e-05
4.0099e-07
6.38444e-05
4.26731e-07
6.3785e-05
4.30737e-07
6.37047e-05
4.21774e-07
6.36141e-05
4.02759e-07
6.35197e-05
3.81903e-07
6.34247e-05
3.6253e-07
6.33306e-05
3.44915e-07
6.32382e-05
3.29032e-07
6.31477e-05
3.1489e-07
6.30592e-05
3.02414e-07
6.29726e-05
2.91494e-07
6.28878e-05
2.82049e-07
6.28045e-05
2.74029e-07
6.27224e-05
2.67415e-07
6.26413e-05
2.62224e-07
6.25609e-05
2.58512e-07
6.24806e-05
2.56388e-07
6.24001e-05
2.56026e-07
6.23187e-05
2.57691e-07
6.22359e-05
2.61775e-07
6.21507e-05
2.68858e-07
6.20621e-05
2.79808e-07
6.19689e-05
2.95961e-07
6.18692e-05
3.19367e-07
6.17612e-05
3.53498e-07
6.16424e-05
4.03488e-07
6.15122e-05
4.80035e-07
6.13731e-05
5.93789e-07
6.12553e-05
7.81848e-07
6.12231e-05
1.0358e-06
1.47656e-06
6.13843e-05
6.5637e-05
1.72902e-07
6.56889e-05
3.49081e-07
6.57122e-05
4.03441e-07
6.57127e-05
4.30297e-07
6.56931e-05
4.41332e-07
6.56579e-05
4.37938e-07
6.5612e-05
4.27842e-07
6.55589e-05
4.15633e-07
6.5501e-05
4.0274e-07
6.54402e-05
3.89917e-07
6.53773e-05
3.77736e-07
6.53132e-05
3.66515e-07
6.52483e-05
3.56411e-07
6.51828e-05
3.47528e-07
6.51169e-05
3.39954e-07
6.50505e-05
3.33777e-07
6.49837e-05
3.29102e-07
6.49161e-05
3.26066e-07
6.48476e-05
3.24855e-07
6.47779e-05
3.25728e-07
6.47066e-05
3.29042e-07
6.46331e-05
3.35298e-07
6.45567e-05
3.45209e-07
6.44767e-05
3.59796e-07
6.43921e-05
3.80565e-07
6.43018e-05
4.09713e-07
6.42046e-05
4.50664e-07
6.40999e-05
5.08157e-07
6.39895e-05
5.90443e-07
6.38782e-05
7.05074e-07
6.37889e-05
8.71227e-07
6.37466e-05
1.07803e-06
1.36583e-06
6.38574e-05
6.74946e-05
1.35115e-07
6.75431e-05
3.00502e-07
6.75779e-05
3.68675e-07
6.76013e-05
4.06925e-07
6.76126e-05
4.30032e-07
6.76118e-05
4.38728e-07
6.76007e-05
4.38895e-07
6.75814e-05
4.35e-07
6.75553e-05
4.28798e-07
6.75239e-05
4.21307e-07
6.74883e-05
4.13374e-07
6.74492e-05
4.05579e-07
6.74073e-05
3.98294e-07
6.73631e-05
3.91795e-07
6.73167e-05
3.86311e-07
6.72685e-05
3.82045e-07
6.72184e-05
3.79202e-07
6.71664e-05
3.7801e-07
6.71125e-05
3.78739e-07
6.70565e-05
3.81729e-07
6.69981e-05
3.87423e-07
6.6937e-05
3.9641e-07
6.68727e-05
4.0949e-07
6.68048e-05
4.27762e-07
6.67326e-05
4.52766e-07
6.66557e-05
4.86632e-07
6.65739e-05
5.32407e-07
6.64881e-05
5.94007e-07
6.64013e-05
6.7718e-07
6.63198e-05
7.86588e-07
6.62604e-05
9.30608e-07
6.6239e-05
1.09948e-06
1.29852e-06
6.63063e-05
6.94108e-05
1.08325e-07
6.9452e-05
2.59369e-07
6.94866e-05
3.34031e-07
6.95155e-05
3.78042e-07
6.9538e-05
4.07465e-07
6.95531e-05
4.23662e-07
6.95609e-05
4.31065e-07
6.95622e-05
4.33719e-07
6.95576e-05
4.33416e-07
6.95477e-05
4.31172e-07
6.95333e-05
4.27857e-07
6.95147e-05
4.24129e-07
6.94925e-05
4.20457e-07
6.94671e-05
4.17206e-07
6.94388e-05
4.14692e-07
6.94076e-05
4.13201e-07
6.93738e-05
4.13013e-07
6.93374e-05
4.14425e-07
6.92983e-05
4.17777e-07
6.92566e-05
4.23472e-07
6.9212e-05
4.32013e-07
6.91644e-05
4.44041e-07
6.91135e-05
4.60391e-07
6.90591e-05
4.82161e-07
6.9001e-05
5.10808e-07
6.89394e-05
5.4823e-07
6.88749e-05
5.96915e-07
6.88091e-05
6.59793e-07
6.87459e-05
7.4046e-07
6.86912e-05
8.41219e-07
6.86574e-05
9.64419e-07
6.8655e-05
1.10188e-06
1.24783e-06
6.87057e-05
7.13857e-05
8.90058e-08
7.14198e-05
2.25259e-07
7.14515e-05
3.02316e-07
7.14799e-05
3.49603e-07
7.1505e-05
3.82428e-07
7.15255e-05
4.0314e-07
7.15413e-05
4.15245e-07
7.15526e-05
4.22382e-07
7.15597e-05
4.26389e-07
7.15626e-05
4.28265e-07
7.15616e-05
4.28836e-07
7.1557e-05
4.28759e-07
7.15489e-05
4.28522e-07
7.15376e-05
4.28518e-07
7.15232e-05
4.29096e-07
7.15058e-05
4.30578e-07
7.14855e-05
4.33286e-07
7.14624e-05
4.37557e-07
7.14364e-05
4.43768e-07
7.14075e-05
4.52358e-07
7.13757e-05
4.63856e-07
7.13408e-05
4.78913e-07
7.13028e-05
4.98347e-07
7.12618e-05
5.23183e-07
7.12179e-05
5.54706e-07
7.11717e-05
5.94488e-07
7.11242e-05
6.44402e-07
7.10776e-05
7.06417e-07
7.10355e-05
7.82473e-07
7.10036e-05
8.73189e-07
7.09901e-05
9.7791e-07
7.10021e-05
1.08991e-06
1.20127e-06
7.10486e-05
7.34195e-05
7.47764e-08
7.34477e-05
1.97068e-07
7.34761e-05
2.73897e-07
7.35026e-05
3.23094e-07
7.35271e-05
3.57948e-07
7.35487e-05
3.81576e-07
7.3567e-05
3.96886e-07
7.35823e-05
4.07119e-07
7.35945e-05
4.1416e-07
7.36037e-05
4.1904e-07
7.361e-05
4.22563e-07
7.36134e-05
4.25379e-07
7.36139e-05
4.2798e-07
7.36117e-05
4.30766e-07
7.36067e-05
4.34092e-07
7.3599e-05
4.38294e-07
7.35886e-05
4.43706e-07
7.35754e-05
4.50681e-07
7.35596e-05
4.59605e-07
7.3541e-05
4.70924e-07
7.35197e-05
4.8516e-07
7.34957e-05
5.02938e-07
7.3469e-05
5.25007e-07
7.344e-05
5.5227e-07
7.34089e-05
5.85789e-07
7.33766e-05
6.26769e-07
7.33445e-05
6.76496e-07
7.33148e-05
7.36121e-07
7.32909e-05
8.06408e-07
7.32771e-05
8.86908e-07
7.32794e-05
9.75672e-07
7.33021e-05
1.06722e-06
1.15448e-06
7.33489e-05
7.55132e-05
6.40432e-08
7.55365e-05
1.73721e-07
7.55619e-05
2.48581e-07
7.55863e-05
2.98683e-07
7.56094e-05
3.34811e-07
7.56305e-05
3.60465e-07
7.56493e-05
3.78156e-07
7.56657e-05
3.90716e-07
7.56798e-05
4.00024e-07
7.56917e-05
4.07159e-07
7.57013e-05
4.12929e-07
7.57087e-05
4.17985e-07
7.57139e-05
4.22831e-07
7.57167e-05
4.27873e-07
7.57174e-05
4.33472e-07
7.57157e-05
4.39966e-07
7.57117e-05
4.47691e-07
7.57054e-05
4.56998e-07
7.56967e-05
4.68268e-07
7.56857e-05
4.81928e-07
7.56724e-05
4.98469e-07
7.56569e-05
5.18457e-07
7.56394e-05
5.42547e-07
7.56201e-05
5.71482e-07
7.55999e-05
6.06082e-07
7.55794e-05
6.47193e-07
7.55603e-05
6.95596e-07
7.55446e-05
7.518e-07
7.55353e-05
8.15794e-07
7.55356e-05
8.86539e-07
7.55496e-05
9.61696e-07
7.558e-05
1.03686e-06
1.10646e-06
7.5628e-05
7.76679e-05
5.57419e-08
7.76873e-05
1.54281e-07
7.77098e-05
2.26071e-07
7.77323e-05
2.76246e-07
7.7754e-05
3.1311e-07
7.77742e-05
3.40202e-07
7.77926e-05
3.5975e-07
7.78092e-05
3.74194e-07
7.78238e-05
3.8534e-07
7.78367e-05
3.94299e-07
7.78477e-05
4.01883e-07
7.7857e-05
4.08747e-07
7.78644e-05
4.15408e-07
7.787e-05
4.22283e-07
7.78737e-05
4.29738e-07
7.78756e-05
4.38114e-07
7.78755e-05
4.47742e-07
7.78736e-05
4.58964e-07
7.78697e-05
4.72144e-07
7.78639e-05
4.87677e-07
7.78564e-05
5.06006e-07
7.78472e-05
5.27621e-07
7.78367e-05
5.53059e-07
7.78253e-05
5.82899e-07
7.78137e-05
6.17722e-07
7.78028e-05
6.58056e-07
7.77941e-05
7.04271e-07
7.77895e-05
7.56417e-07
7.77913e-05
8.14014e-07
7.78021e-05
8.75761e-07
7.78244e-05
9.39369e-07
7.78599e-05
1.00135e-06
1.05753e-06
7.79088e-05
7.98849e-05
4.91576e-08
7.99012e-05
1.37964e-07
7.99212e-05
2.06055e-07
7.99419e-05
2.55611e-07
7.99622e-05
2.92767e-07
7.99816e-05
3.20838e-07
7.99995e-05
3.41835e-07
8.00158e-05
3.57849e-07
8.00306e-05
3.70562e-07
8.00438e-05
3.81082e-07
8.00555e-05
3.90217e-07
8.00656e-05
3.98623e-07
8.00742e-05
4.06821e-07
8.00813e-05
4.15238e-07
8.00868e-05
4.24243e-07
8.00907e-05
4.34175e-07
8.00931e-05
4.45359e-07
8.00939e-05
4.58123e-07
8.00933e-05
4.72804e-07
8.00912e-05
4.8976e-07
8.00878e-05
5.09372e-07
8.00834e-05
5.32047e-07
8.00782e-05
5.58202e-07
8.00729e-05
5.88251e-07
8.0068e-05
6.22565e-07
8.00647e-05
6.61404e-07
8.00641e-05
7.04835e-07
8.00679e-05
7.52598e-07
8.0078e-05
8.03964e-07
8.00962e-05
8.57583e-07
8.01241e-05
9.11404e-07
8.01628e-05
9.62694e-07
1.0084e-06
8.02119e-05
8.21658e-05
4.38055e-08
8.21796e-05
1.24129e-07
8.21975e-05
1.88224e-07
8.22165e-05
2.36609e-07
8.22356e-05
2.73665e-07
8.22541e-05
3.02328e-07
8.22715e-05
3.2442e-07
8.22876e-05
3.4173e-07
8.23024e-05
3.55789e-07
8.23158e-05
3.67674e-07
8.23278e-05
3.78177e-07
8.23385e-05
3.87941e-07
8.23478e-05
3.97487e-07
8.23558e-05
4.07241e-07
8.23625e-05
4.17572e-07
8.23679e-05
4.28813e-07
8.2372e-05
4.41278e-07
8.23748e-05
4.55273e-07
8.23765e-05
4.71106e-07
8.23772e-05
4.89089e-07
8.2377e-05
5.09539e-07
8.23763e-05
5.32776e-07
8.23754e-05
5.59103e-07
8.23748e-05
5.88787e-07
8.23754e-05
6.22018e-07
8.23779e-05
6.58851e-07
8.23836e-05
6.99138e-07
8.23938e-05
7.42434e-07
8.24099e-05
7.87913e-07
8.24331e-05
8.34289e-07
8.24647e-05
8.79817e-07
8.25051e-05
9.22379e-07
9.59759e-07
8.25537e-05
8.45122e-05
3.93534e-08
8.45241e-05
1.1226e-07
8.454e-05
1.7228e-07
8.45576e-05
2.19075e-07
8.45756e-05
2.55686e-07
8.45933e-05
2.84604e-07
8.46102e-05
3.07468e-07
8.46261e-05
3.25816e-07
8.46409e-05
3.41014e-07
8.46545e-05
3.54084e-07
8.46669e-05
3.65794e-07
8.46781e-05
3.76763e-07
8.46881e-05
3.87502e-07
8.46969e-05
3.98429e-07
8.47045e-05
4.09907e-07
8.47111e-05
4.22256e-07
8.47166e-05
4.35772e-07
8.47211e-05
4.50739e-07
8.47248e-05
4.67426e-07
8.47278e-05
4.86099e-07
8.47303e-05
5.0701e-07
8.47327e-05
5.30396e-07
8.47354e-05
5.56455e-07
8.47388e-05
5.85328e-07
8.47438e-05
6.17061e-07
8.47511e-05
6.51562e-07
8.47617e-05
6.88544e-07
8.47766e-05
7.2747e-07
8.4797e-05
7.67505e-07
8.48238e-05
8.07496e-07
8.48576e-05
8.46001e-07
8.48986e-05
8.81389e-07
9.12056e-07
8.49463e-05
8.69259e-05
3.55698e-08
8.69363e-05
1.01949e-07
8.69506e-05
1.57944e-07
8.69668e-05
2.02844e-07
8.69838e-05
2.3871e-07
8.70008e-05
2.67587e-07
8.70174e-05
2.9093e-07
8.70331e-05
3.10063e-07
8.70479e-05
3.26193e-07
8.70617e-05
3.40272e-07
8.70745e-05
3.53029e-07
8.70862e-05
3.65054e-07
8.70969e-05
3.76838e-07
8.71065e-05
3.88787e-07
8.71152e-05
4.01248e-07
8.71229e-05
4.14524e-07
8.71298e-05
4.2889e-07
8.71359e-05
4.44598e-07
8.71415e-05
4.61882e-07
8.71466e-05
4.80957e-07
8.71516e-05
5.02014e-07
8.71568e-05
5.25211e-07
8.71626e-05
5.50658e-07
8.71695e-05
5.78394e-07
8.71782e-05
6.08358e-07
8.71894e-05
6.40355e-07
8.7204e-05
6.74021e-07
8.72226e-05
7.08791e-07
8.72463e-05
7.43879e-07
8.72755e-05
7.78287e-07
8.73106e-05
8.10844e-07
8.73517e-05
8.40306e-07
8.65512e-07
8.73983e-05
8.94088e-05
3.229e-08
8.94179e-05
9.28688e-08
8.94309e-05
1.44962e-07
8.9446e-05
1.87754e-07
8.94621e-05
2.22617e-07
8.94785e-05
2.51191e-07
8.94946e-05
2.74744e-07
8.95103e-05
2.94421e-07
8.95252e-05
3.11278e-07
8.95393e-05
3.26185e-07
8.95525e-05
3.39824e-07
8.95648e-05
3.52753e-07
8.95762e-05
3.65433e-07
8.95867e-05
3.78252e-07
8.95964e-05
3.91535e-07
8.96054e-05
4.05564e-07
8.96137e-05
4.20589e-07
8.96215e-05
4.3683e-07
8.96289e-05
4.5448e-07
8.96361e-05
4.73707e-07
8.96435e-05
4.94645e-07
8.96513e-05
5.17384e-07
8.966e-05
5.4196e-07
8.96701e-05
5.68333e-07
8.96821e-05
5.96367e-07
8.96966e-05
6.25805e-07
8.97144e-05
6.56251e-07
8.9736e-05
6.87152e-07
8.97621e-05
7.17802e-07
8.9793e-05
7.47356e-07
8.9829e-05
7.74881e-07
8.98699e-05
7.99429e-07
8.20163e-07
8.99152e-05
9.19628e-05
2.93942e-08
9.19709e-05
8.47594e-08
9.19827e-05
1.33102e-07
9.19968e-05
1.73643e-07
9.20122e-05
2.07286e-07
9.2028e-05
2.35323e-07
9.20439e-05
2.58843e-07
9.20595e-05
2.78833e-07
9.20746e-05
2.96213e-07
9.2089e-05
3.11765e-07
9.21027e-05
3.2612e-07
9.21157e-05
3.39793e-07
9.21279e-05
3.53216e-07
9.21394e-05
3.66748e-07
9.21502e-05
3.80693e-07
9.21605e-05
3.95306e-07
9.21703e-05
4.10808e-07
9.21797e-05
4.27386e-07
9.2189e-05
4.45195e-07
9.21984e-05
4.64357e-07
9.2208e-05
4.84955e-07
9.22184e-05
5.07023e-07
9.22298e-05
5.30539e-07
9.22428e-05
5.55404e-07
9.22577e-05
5.81435e-07
9.22751e-05
6.08344e-07
9.22957e-05
6.35734e-07
9.23197e-05
6.6309e-07
9.23477e-05
6.89795e-07
9.23799e-05
7.1515e-07
9.24164e-05
7.38418e-07
9.2457e-05
7.5888e-07
7.75934e-07
9.25012e-05
9.45898e-05
2.67925e-08
9.45971e-05
7.74123e-08
9.4608e-05
1.22159e-07
9.46213e-05
1.60355e-07
9.4636e-05
1.92595e-07
9.46515e-05
2.19886e-07
9.46672e-05
2.4315e-07
9.46828e-05
2.63235e-07
9.4698e-05
2.80938e-07
9.47128e-05
2.96953e-07
9.47271e-05
3.11851e-07
9.47408e-05
3.26107e-07
9.47539e-05
3.40115e-07
9.47664e-05
3.54205e-07
9.47785e-05
3.68651e-07
9.47901e-05
3.83682e-07
9.48014e-05
3.99487e-07
9.48126e-05
4.16221e-07
9.48238e-05
4.34003e-07
9.48352e-05
4.52913e-07
9.48472e-05
4.7299e-07
9.486e-05
4.94224e-07
9.4874e-05
5.16547e-07
9.48896e-05
5.39825e-07
9.49072e-05
5.63846e-07
9.49272e-05
5.88315e-07
9.49501e-05
6.12853e-07
9.49762e-05
6.36999e-07
9.50057e-05
6.60223e-07
9.50389e-05
6.81957e-07
9.50757e-05
7.01624e-07
9.51159e-05
7.18683e-07
7.327e-07
9.51591e-05
9.72919e-05
2.44158e-08
9.72986e-05
7.06581e-08
9.73089e-05
1.1195e-07
9.73215e-05
1.47737e-07
9.73357e-05
1.78419e-07
9.73508e-05
2.04776e-07
9.73663e-05
2.2758e-07
9.7382e-05
2.47556e-07
9.73976e-05
2.65387e-07
9.74128e-05
2.81683e-07
9.74277e-05
2.96955e-07
9.74422e-05
3.11631e-07
9.74563e-05
3.26066e-07
9.74699e-05
3.40556e-07
9.74832e-05
3.55346e-07
9.74963e-05
3.70633e-07
9.75092e-05
3.86579e-07
9.75221e-05
4.03304e-07
9.75352e-05
4.20893e-07
9.75487e-05
4.39392e-07
9.75629e-05
4.58805e-07
9.7578e-05
4.79085e-07
9.75944e-05
5.00134e-07
9.76125e-05
5.21796e-07
9.76325e-05
5.43848e-07
9.76548e-05
5.66005e-07
9.76797e-05
5.87917e-07
9.77075e-05
6.09179e-07
9.77384e-05
6.29351e-07
9.77724e-05
6.47971e-07
9.78094e-05
6.64593e-07
9.78493e-05
6.78812e-07
6.90319e-07
9.78917e-05
0.000100071
2.22091e-08
0.000100078
6.43563e-08
0.000100087
1.02311e-07
0.000100099
1.35644e-07
0.000100113
1.64635e-07
0.000100128
1.89888e-07
0.000100144
2.12043e-07
0.000100159
2.31715e-07
0.000100175
2.49487e-07
0.000100191
2.65887e-07
0.000100207
2.81366e-07
0.000100222
2.963e-07
0.000100237
3.11005e-07
0.000100252
3.25741e-07
0.000100266
3.40722e-07
0.000100281
3.56114e-07
0.000100296
3.72048e-07
0.00010031
3.88615e-07
0.000100325
4.05871e-07
0.000100341
4.2383e-07
0.000100357
4.42466e-07
0.000100375
4.61711e-07
0.000100393
4.81446e-07
0.000100414
5.01503e-07
0.000100436
5.21663e-07
0.00010046
5.41658e-07
0.000100487
5.61176e-07
0.000100516
5.79871e-07
0.000100548
5.97375e-07
0.000100583
6.13325e-07
0.00010062
6.27374e-07
0.00010066
6.39222e-07
6.48652e-07
0.000100701
0.00010293
2.01274e-08
0.000102936
5.83889e-08
0.000102945
9.30953e-08
0.000102957
1.23935e-07
0.000102971
1.51115e-07
0.000102985
1.75109e-07
0.000103001
1.96441e-07
0.000103017
2.15628e-07
0.000103033
2.33162e-07
0.00010305
2.49495e-07
0.000103066
2.65015e-07
0.000103082
2.80049e-07
0.000103098
2.94871e-07
0.000103115
3.09706e-07
0.000103131
3.24731e-07
0.000103147
3.40086e-07
0.000103163
3.55872e-07
0.000103179
3.72151e-07
0.000103196
3.88953e-07
0.000103214
4.06268e-07
0.000103232
4.2405e-07
0.000103252
4.4221e-07
0.000103272
4.60622e-07
0.000103295
4.79117e-07
0.000103319
4.97486e-07
0.000103345
5.15485e-07
0.000103373
5.32841e-07
0.000103404
5.49261e-07
0.000103437
5.64448e-07
0.000103472
5.78112e-07
0.00010351
5.89991e-07
0.000103549
5.99862e-07
6.07576e-07
0.00010359
0.000105871
1.81329e-08
0.000105876
5.26538e-08
0.000105885
8.41697e-08
0.000105897
1.12475e-07
0.00010591
1.37735e-07
0.000105925
1.60325e-07
0.000105941
1.80671e-07
0.000105957
1.99202e-07
0.000105974
2.16329e-07
0.000105991
2.32429e-07
0.000106008
2.47831e-07
0.000106026
2.62814e-07
0.000106043
2.77607e-07
0.00010606
2.92398e-07
0.000106077
3.07334e-07
0.000106095
3.22522e-07
0.000106113
3.38037e-07
0.000106131
3.53917e-07
0.00010615
3.70168e-07
0.000106169
3.86761e-07
0.00010619
4.03635e-07
0.000106211
4.20692e-07
0.000106234
4.37801e-07
0.000106258
4.54799e-07
0.000106284
4.71493e-07
0.000106312
4.87666e-07
0.000106342
5.03084e-07
0.000106374
5.17503e-07
0.000106408
5.30683e-07
0.000106443
5.42398e-07
0.000106481
5.5245e-07
0.00010652
5.60676e-07
5.66977e-07
0.000106561
0.000108895
1.61924e-08
0.000108901
4.70602e-08
0.00010891
7.54104e-08
0.000108921
1.0113e-07
0.000108934
1.24366e-07
0.000108949
1.45415e-07
0.000108965
1.64623e-07
0.000108982
1.82338e-07
0.000109
1.98897e-07
0.000109017
2.14608e-07
0.000109036
2.29743e-07
0.000109054
2.4453e-07
0.000109072
2.59157e-07
0.000109091
2.73773e-07
0.00010911
2.88494e-07
0.000109129
3.03399e-07
0.000109148
3.18537e-07
0.000109168
3.33925e-07
0.000109189
3.49549e-07
0.00010921
3.65367e-07
0.000109233
3.81304e-07
0.000109256
3.9726e-07
0.000109281
4.13107e-07
0.000109307
4.2869e-07
0.000109335
4.43836e-07
0.000109364
4.58355e-07
0.000109395
4.72048e-07
0.000109428
4.84716e-07
0.000109462
4.96167e-07
0.000109498
5.06226e-07
0.000109536
5.14746e-07
0.000109575
5.21611e-07
5.26756e-07
0.000109615
0.000112006
1.42758e-08
0.000112012
4.15248e-08
0.000112021
6.67005e-08
0.000112032
8.9772e-08
0.000112046
1.10877e-07
0.000112061
1.30256e-07
0.000112077
1.48181e-07
0.000112095
1.6493e-07
0.000112113
1.80771e-07
0.000112131
1.95948e-07
0.00011215
2.10674e-07
0.00011217
2.25131e-07
0.000112189
2.39463e-07
0.000112209
2.53785e-07
0.00011223
2.6818e-07
0.00011225
2.82701e-07
0.000112272
2.97374e-07
0.000112293
3.12195e-07
0.000112316
3.27136e-07
0.000112339
3.42144e-07
0.000112363
3.57138e-07
0.000112388
3.72016e-07
0.000112415
3.86657e-07
0.000112443
4.00919e-07
0.000112472
4.14648e-07
0.000112502
4.2768e-07
0.000112535
4.3985e-07
0.000112568
4.50995e-07
0.000112604
4.60964e-07
0.00011264
4.69625e-07
0.000112678
4.76869e-07
0.000112717
4.82613e-07
4.8682e-07
0.000112757
0.000115206
1.23548e-08
0.000115212
3.59685e-08
0.000115221
5.79256e-08
0.000115232
7.82688e-08
0.000115246
9.71348e-08
0.000115262
1.14715e-07
0.000115278
1.31222e-07
0.000115297
1.46865e-07
0.000115315
1.61849e-07
0.000115335
1.76356e-07
0.000115355
1.90545e-07
0.000115376
2.04549e-07
0.000115397
2.18472e-07
0.000115418
2.32393e-07
0.00011544
2.46365e-07
0.000115462
2.60416e-07
0.000115485
2.7455e-07
0.000115509
2.88749e-07
0.000115533
3.0297e-07
0.000115558
3.17151e-07
0.000115584
3.31212e-07
0.000115611
3.45051e-07
0.000115639
3.58555e-07
0.000115668
3.71596e-07
0.000115699
3.8404e-07
0.000115731
3.95747e-07
0.000115764
4.06581e-07
0.000115798
4.16412e-07
0.000115834
4.25121e-07
0.000115871
4.32609e-07
0.000115909
4.38797e-07
0.000115948
4.4363e-07
4.47089e-07
0.000115988
0.000118498
1.04016e-08
0.000118503
3.03126e-08
0.000118512
4.89703e-08
0.000118524
6.64851e-08
0.000118538
8.29959e-08
0.000118554
9.86537e-08
0.000118572
1.13612e-07
0.000118591
1.28021e-07
0.000118611
1.42021e-07
0.000118631
1.55736e-07
0.000118653
1.69271e-07
0.000118674
1.82713e-07
0.000118697
1.96126e-07
0.00011872
2.09554e-07
0.000118743
2.23021e-07
0.000118767
2.36533e-07
0.000118791
2.50073e-07
0.000118816
2.63609e-07
0.000118842
2.77089e-07
0.000118869
2.90446e-07
0.000118897
3.03598e-07
0.000118925
3.16449e-07
0.000118955
3.28893e-07
0.000118986
3.40818e-07
0.000119018
3.52108e-07
0.000119051
3.62645e-07
0.000119085
3.72317e-07
0.00011912
3.81022e-07
0.000119157
3.88668e-07
0.000119194
3.95182e-07
0.000119233
4.00508e-07
0.000119272
4.0461e-07
4.07484e-07
0.000119311
0.000121883
8.38718e-09
0.000121889
2.4475e-08
0.000121898
3.97129e-08
0.000121911
5.42766e-08
0.000121925
6.8308e-08
0.000121942
8.19193e-08
0.00012196
9.52084e-08
0.00012198
1.08265e-07
0.000122001
1.21167e-07
0.000122023
1.33983e-07
0.000122045
1.46763e-07
0.000122068
1.59549e-07
0.000122092
1.72366e-07
0.000122117
1.85224e-07
0.000122141
1.98121e-07
0.000122167
2.1104e-07
0.000122193
2.23947e-07
0.00012222
2.36797e-07
0.000122247
2.49531e-07
0.000122276
2.62079e-07
0.000122305
2.74359e-07
0.000122335
2.86281e-07
0.000122366
2.9775e-07
0.000122399
3.08665e-07
0.000122432
3.18928e-07
0.000122466
3.2844e-07
0.000122501
3.37113e-07
0.000122537
3.44863e-07
0.000122574
3.51623e-07
0.000122612
3.57338e-07
0.000122651
3.61971e-07
0.00012269
3.65502e-07
3.67933e-07
0.000122729
0.000125366
6.27998e-09
0.000125372
1.83659e-08
0.000125381
3.002e-08
0.000125394
4.1484e-08
0.00012541
5.2902e-08
0.000125427
6.43446e-08
0.000125446
7.58513e-08
0.000125467
8.74497e-08
0.000125489
9.91573e-08
0.000125512
1.10982e-07
0.000125536
1.22925e-07
0.000125561
1.34978e-07
0.000125586
1.4713e-07
0.000125612
1.5936e-07
0.000125638
1.71637e-07
0.000125665
1.83925e-07
0.000125693
1.96175e-07
0.000125722
2.08332e-07
0.000125751
2.20329e-07
0.000125781
2.32095e-07
0.000125812
2.43551e-07
0.000125843
2.54611e-07
0.000125876
2.65191e-07
0.000125909
2.75203e-07
0.000125944
2.84562e-07
0.000125979
2.93188e-07
0.000126015
3.01008e-07
0.000126052
3.0796e-07
0.00012609
3.13991e-07
0.000126128
3.19064e-07
0.000126167
3.23154e-07
0.000126206
3.26252e-07
3.28368e-07
0.000126246
0.000128947
4.04351e-09
0.000128954
1.18814e-08
0.000128964
1.97372e-08
0.000128978
2.79248e-08
0.000128994
3.65858e-08
0.000129013
4.57403e-08
0.000129033
5.53623e-08
0.000129055
6.54132e-08
0.000129078
7.58466e-08
0.000129103
8.66099e-08
0.000129128
9.76496e-08
0.000129154
1.08914e-07
0.000129181
1.20351e-07
0.000129208
1.31911e-07
0.000129236
1.43537e-07
0.000129265
1.55174e-07
0.000129295
1.6676e-07
0.000129325
1.78228e-07
0.000129356
1.89511e-07
0.000129387
2.00533e-07
0.000129419
2.11218e-07
0.000129453
2.2149e-07
0.000129486
2.31269e-07
0.000129521
2.40482e-07
0.000129557
2.49055e-07
0.000129593
2.56924e-07
0.00012963
2.6403e-07
0.000129668
2.70324e-07
0.000129706
2.75769e-07
0.000129745
2.80339e-07
0.000129784
2.8402e-07
0.000129823
2.86809e-07
2.8872e-07
0.000129863
0.000132631
1.63316e-09
0.000132638
4.89428e-09
0.00013265
8.67804e-09
0.000132664
1.33814e-08
0.000132682
1.91341e-08
0.000132701
2.58877e-08
0.000132723
3.35374e-08
0.000132747
4.19714e-08
0.000132771
5.10737e-08
0.000132797
6.07274e-08
0.000132824
7.08229e-08
0.000132852
8.12621e-08
0.00013288
9.19562e-08
0.000132909
1.02823e-07
0.000132939
1.13785e-07
0.000132969
1.24767e-07
0.000133
1.35695e-07
0.000133032
1.46495e-07
0.000133065
1.57095e-07
0.000133098
1.6742e-07
0.000133132
1.77398e-07
0.000133166
1.86956e-07
0.000133201
1.96026e-07
0.000133237
2.04541e-07
0.000133274
2.12442e-07
0.000133311
2.19673e-07
0.000133349
2.26191e-07
0.000133387
2.31957e-07
0.000133426
2.36944e-07
0.000133465
2.41135e-07
0.000133505
2.44524e-07
0.000133545
2.47114e-07
2.48921e-07
0.000133584
0.000136421
-1.00873e-09
0.000136429
-2.75947e-09
0.000136441
-3.39441e-09
0.000136456
-2.41505e-09
0.000136475
2.75701e-10
0.000136497
4.52846e-09
0.00013652
1.01395e-08
0.000136545
1.69133e-08
0.000136572
2.46564e-08
0.000136599
3.31807e-08
0.000136628
4.23173e-08
0.000136657
5.19206e-08
0.000136687
6.18646e-08
0.000136718
7.20375e-08
0.000136749
8.23391e-08
0.000136781
9.26782e-08
0.000136814
1.0297e-07
0.000136847
1.13134e-07
0.000136881
1.23094e-07
0.000136916
1.32778e-07
0.000136951
1.42114e-07
0.000136987
1.51038e-07
0.000137024
1.59487e-07
0.000137061
1.67403e-07
0.000137099
1.74738e-07
0.000137137
1.81446e-07
0.000137176
1.87491e-07
0.000137215
1.92845e-07
0.000137254
1.9749e-07
0.000137294
2.01416e-07
0.000137334
2.0462e-07
0.000137374
2.0711e-07
2.08904e-07
0.000137414
0.000140319
-3.96105e-09
0.000140327
-1.13036e-08
0.000140341
-1.6795e-08
0.000140358
-1.98085e-08
0.000140379
-2.03241e-08
0.000140402
-1.86479e-08
0.000140427
-1.5111e-08
0.000140454
-1.00055e-08
0.000140482
-3.61402e-09
0.000140512
3.79511e-09
0.000140542
1.19892e-08
0.000140573
2.07744e-08
0.000140605
2.99872e-08
0.000140638
3.94873e-08
0.000140671
4.91532e-08
0.000140705
5.8879e-08
0.000140739
6.85701e-08
0.000140774
7.81412e-08
0.00014081
8.75141e-08
0.000140846
9.66167e-08
0.000140882
1.05383e-07
0.00014092
1.13751e-07
0.000140958
1.21667e-07
0.000140996
1.2908e-07
0.000141035
1.35949e-07
0.000141074
1.42238e-07
0.000141113
1.47918e-07
0.000141153
1.52968e-07
0.000141193
1.57376e-07
0.000141234
1.61136e-07
0.000141274
1.6425e-07
0.000141314
1.66727e-07
1.68585e-07
0.000141355
0.000144328
-7.33807e-09
0.000144338
-2.106e-08
0.000144353
-3.19596e-08
0.000144372
-3.92519e-08
0.000144395
-4.30889e-08
0.00014442
-4.40234e-08
0.000144448
-4.25469e-08
0.000144477
-3.90649e-08
0.000144507
-3.39688e-08
0.000144539
-2.76196e-08
0.000144571
-2.03173e-08
0.000144604
-1.23035e-08
0.000144638
-3.7781e-09
0.000144672
5.09134e-09
0.000144707
1.41642e-08
0.000144743
2.33214e-08
0.000144779
3.24608e-08
0.000144816
4.14929e-08
0.000144853
5.03385e-08
0.00014489
5.89274e-08
0.000144929
6.71967e-08
0.000144967
7.50905e-08
0.000145006
8.25598e-08
0.000145046
8.9562e-08
0.000145086
9.60611e-08
0.000145126
1.02028e-07
0.000145167
1.07441e-07
0.000145207
1.12285e-07
0.000145248
1.16552e-07
0.000145289
1.20239e-07
0.00014533
1.23352e-07
0.000145371
1.25902e-07
1.27905e-07
0.000145411
0.000148452
-1.13154e-08
0.000148463
-3.25217e-08
0.000148481
-4.9516e-08
0.000148503
-6.13461e-08
0.000148529
-6.85561e-08
0.000148557
-7.20809e-08
0.000148587
-7.259e-08
0.000148618
-7.06167e-08
0.000148651
-6.66913e-08
0.000148685
-6.12866e-08
0.000148719
-5.47738e-08
0.000148754
-4.74422e-08
0.00014879
-3.95266e-08
0.000148826
-3.12198e-08
0.000148863
-2.26784e-08
0.0001489
-1.40311e-08
0.000148938
-5.38534e-09
0.000148977
3.16739e-09
0.000149015
1.15489e-08
0.000149055
1.96913e-08
0.000149094
2.75362e-08
0.000149134
3.50327e-08
0.000149175
4.21373e-08
0.000149215
4.88136e-08
0.000149257
5.50315e-08
0.000149298
6.07675e-08
0.000149339
6.60046e-08
0.000149381
7.07316e-08
0.000149422
7.49434e-08
0.000149464
7.86404e-08
0.000149506
8.18277e-08
0.000149547
8.45147e-08
8.67167e-08
0.000149588
0.000152694
-1.61751e-08
0.000152708
-4.64879e-08
0.000152729
-7.0424e-08
0.000152754
-8.69178e-08
0.000152783
-9.73888e-08
0.000152815
-1.03363e-07
0.000152848
-1.05685e-07
0.000152882
-1.05034e-07
0.000152917
-1.02108e-07
0.000152954
-9.74995e-08
0.000152991
-9.16451e-08
0.000153028
-8.48791e-08
0.000153066
-7.74701e-08
0.000153104
-6.96335e-08
0.000153143
-6.1539e-08
0.000153183
-5.33223e-08
0.000153222
-4.50939e-08
0.000153262
-3.69449e-08
0.000153303
-2.89515e-08
0.000153344
-2.11774e-08
0.000153385
-1.36764e-08
0.000153426
-6.49374e-09
0.000153468
3.32606e-10
0.00015351
6.77171e-09
0.000153553
1.27988e-08
0.000153595
1.83952e-08
0.000153637
2.35479e-08
0.00015368
2.82493e-08
0.000153722
3.24969e-08
0.000153765
3.62932e-08
0.000153807
3.96455e-08
0.000153849
4.25659e-08
4.50687e-08
0.00015389
0.000157058
-2.24371e-08
0.000157075
-6.42615e-08
0.000157101
-9.61085e-08
0.000157131
-1.1722e-07
0.000157165
-1.3071e-07
0.0001572
-1.38806e-07
0.000157237
-1.42519e-07
0.000157275
-1.42781e-07
0.000157313
-1.40535e-07
0.000157352
-1.36484e-07
0.000157392
-1.3111e-07
0.000157432
-1.24775e-07
0.000157472
-1.1777e-07
0.000157513
-1.1032e-07
0.000157554
-1.02598e-07
0.000157595
-9.4741e-08
0.000157637
-8.68567e-08
0.000157679
-7.90332e-08
0.000157721
-7.13426e-08
0.000157764
-6.3844e-08
0.000157807
-5.65863e-08
0.00015785
-4.96102e-08
0.000157893
-4.29486e-08
0.000157937
-3.66284e-08
0.00015798
-3.06702e-08
0.000158024
-2.50898e-08
0.000158067
-1.98976e-08
0.00015811
-1.50997e-08
0.000158154
-1.06981e-08
0.000158197
-6.69168e-09
0.000158239
-3.07629e-09
0.000158282
1.53632e-10
3.00882e-09
0.000158324
0.000161547
-3.13237e-08
0.000161572
-8.84958e-08
0.000161604
-1.28263e-07
0.00016164
-1.53209e-07
0.000161679
-1.69578e-07
0.000161719
-1.79714e-07
0.000161761
-1.84537e-07
0.000161804
-1.85367e-07
0.000161847
-1.83463e-07
0.00016189
-1.79641e-07
0.000161933
-1.74425e-07
0.000161977
-1.68214e-07
0.00016202
-1.6132e-07
0.000162064
-1.53977e-07
0.000162108
-1.46357e-07
0.000162152
-1.38593e-07
0.000162196
-1.30789e-07
0.00016224
-1.23028e-07
0.000162284
-1.15379e-07
0.000162328
-1.07895e-07
0.000162372
-1.0062e-07
0.000162416
-9.35924e-08
0.00016246
-8.68404e-08
0.000162503
-8.03881e-08
0.000162547
-7.42536e-08
0.00016259
-6.84504e-08
0.000162633
-6.29874e-08
0.000162676
-5.78692e-08
0.000162719
-5.30966e-08
0.000162761
-4.86663e-08
0.000162802
-4.45711e-08
0.000162843
-4.07987e-08
-3.73408e-08
0.000162883
0.000166166
-4.40856e-08
0.000166205
-1.2675e-07
0.000166249
-1.72976e-07
0.000166295
-1.99333e-07
0.000166343
-2.17296e-07
0.000166392
-2.28447e-07
0.000166441
-2.3355e-07
0.00016649
-2.34361e-07
0.000166539
-2.32297e-07
0.000166587
-2.28152e-07
0.000166635
-2.22455e-07
0.000166683
-2.15646e-07
0.000166729
-2.08073e-07
0.000166775
-1.99994e-07
0.000166821
-1.91604e-07
0.000166865
-1.83053e-07
0.000166909
-1.74461e-07
0.000166952
-1.6592e-07
0.000166994
-1.57505e-07
0.000167035
-1.49271e-07
0.000167076
-1.41266e-07
0.000167116
-1.33524e-07
0.000167155
-1.26074e-07
0.000167194
-1.18937e-07
0.000167231
-1.12126e-07
0.000167269
-1.05653e-07
0.000167305
-9.95237e-08
0.000167341
-9.374e-08
0.000167376
-8.83019e-08
0.000167411
-8.32076e-08