/*--------------------------------*- C++ -*----------------------------------*\
| =========                 |                                                 |
| \\      /  F ield         | OpenFOAM: The Open Source CFD Toolbox           |
|  \\    /   O peration     | Version:  4.1                                   |
|   \\  /    A nd           | Web:      www.OpenFOAM.org                      |
|    \\/     M anipulation  |                                                 |
\*---------------------------------------------------------------------------*/
FoamFile
{
    version     2.0;
    format      ascii;
    class       volVectorField;
    location    "600";
    object      U;
}
// * * * * * * * * * * * * * * * * * * * * * * * * * * * * * * * * * * * * * //

dimensions      [0 1 -1 0 0 0 0];

internalField   nonuniform List<vector> 
6820
(
(7.30076 0.0105785 0)
(7.26065 0.0145402 0)
(7.22718 0.0116121 0)
(7.19817 0.00889241 0)
(7.17425 0.00729752 0)
(7.15366 0.00634373 0)
(7.13495 0.0057396 0)
(7.11766 0.00533839 0)
(7.1016 0.0050473 0)
(7.08656 0.00481792 0)
(7.07237 0.00463096 0)
(7.05891 0.00447845 0)
(7.04606 0.00435582 0)
(7.03375 0.00426007 0)
(7.02187 0.00418954 0)
(7.01036 0.00414366 0)
(6.99913 0.00412289 0)
(6.98812 0.0041288 0)
(6.97725 0.0041643 0)
(6.96644 0.00423405 0)
(6.95558 0.00434515 0)
(6.94458 0.00450823 0)
(6.9333 0.00473955 0)
(6.92155 0.00506466 0)
(6.9091 0.00552547 0)
(6.89557 0.00619533 0)
(6.88043 0.00721039 0)
(6.86256 0.00884461 0)
(6.84078 0.0117234 0)
(6.80873 0.017218 0)
(6.76974 0.0286867 0)
(6.65247 0.0702857 0)
(6.6393 -0.0294201 0)
(7.3396 0.0129481 0)
(7.34154 0.0168198 0)
(7.32732 0.0138372 0)
(7.30715 0.0119884 0)
(7.28756 0.0109502 0)
(7.2694 0.0100981 0)
(7.25236 0.00942043 0)
(7.23637 0.00890592 0)
(7.22137 0.00849722 0)
(7.20723 0.00816153 0)
(7.1938 0.00788643 0)
(7.18101 0.00766394 0)
(7.16876 0.00748761 0)
(7.15698 0.00735336 0)
(7.14561 0.00725922 0)
(7.13459 0.00720498 0)
(7.12385 0.00719201 0)
(7.11334 0.00722353 0)
(7.10299 0.00730497 0)
(7.09274 0.00744467 0)
(7.08253 0.007655 0)
(7.07226 0.00795427 0)
(7.06186 0.00837004 0)
(7.05119 0.00894492 0)
(7.04012 0.00974806 0)
(7.02845 0.0108949 0)
(7.01597 0.012603 0)
(7.00223 0.0152523 0)
(6.98732 0.019821 0)
(6.96954 0.0276435 0)
(6.95465 0.045512 0)
(6.93725 0.0769631 0)
(6.97881 0.170916 0)
(7.33613 0.0108744 0)
(7.34462 0.0173207 0)
(7.34579 0.0178709 0)
(7.34012 0.0178799 0)
(7.33146 0.0174259 0)
(7.32149 0.016607 0)
(7.31077 0.0157963 0)
(7.29979 0.0151171 0)
(7.28888 0.0145499 0)
(7.27814 0.0140734 0)
(7.26762 0.0136779 0)
(7.25733 0.013355 0)
(7.24726 0.0130981 0)
(7.23741 0.0129035 0)
(7.22774 0.0127699 0)
(7.21824 0.0126986 0)
(7.20887 0.0126928 0)
(7.19959 0.0127585 0)
(7.19036 0.0129047 0)
(7.18113 0.0131451 0)
(7.17183 0.0134991 0)
(7.16241 0.0139948 0)
(7.15277 0.0146736 0)
(7.14281 0.0155972 0)
(7.1324 0.0168616 0)
(7.12135 0.0186181 0)
(7.10949 0.0211315 0)
(7.09647 0.0248154 0)
(7.08232 0.0306008 0)
(7.06639 0.0395537 0)
(7.05175 0.0557403 0)
(7.03818 0.08008 0)
(7.05047 0.126742 0)
(7.33465 0.0078827 0)
(7.34191 0.0151085 0)
(7.34712 0.0174425 0)
(7.34827 0.0186869 0)
(7.34685 0.0192185 0)
(7.34369 0.0191527 0)
(7.33909 0.0188476 0)
(7.33347 0.0184902 0)
(7.3272 0.0181286 0)
(7.32053 0.0177869 0)
(7.31359 0.0174845 0)
(7.30648 0.0172315 0)
(7.29925 0.0170327 0)
(7.29196 0.0168923 0)
(7.28461 0.0168151 0)
(7.27722 0.016807 0)
(7.26977 0.0168757 0)
(7.26226 0.0170317 0)
(7.25466 0.0172892 0)
(7.24695 0.0176675 0)
(7.23908 0.0181936 0)
(7.23099 0.0189047 0)
(7.22263 0.0198544 0)
(7.21392 0.02112 0)
(7.20475 0.0228177 0)
(7.195 0.0251223 0)
(7.18456 0.0283174 0)
(7.17328 0.0328184 0)
(7.16128 0.0394069 0)
(7.14859 0.048903 0)
(7.13714 0.0635386 0)
(7.1279 0.0826692 0)
(7.13077 0.111252 0)
(7.334 0.00602408 0)
(7.33938 0.0130441 0)
(7.3447 0.0160257 0)
(7.34792 0.0178487 0)
(7.34963 0.0190523 0)
(7.35017 0.019651 0)
(7.34952 0.0198966 0)
(7.34782 0.0199775 0)
(7.3453 0.0199661 0)
(7.34215 0.0199056 0)
(7.33849 0.0198324 0)
(7.33441 0.0197715 0)
(7.33 0.0197395 0)
(7.3253 0.0197497 0)
(7.32037 0.019814 0)
(7.31523 0.0199447 0)
(7.30988 0.0201551 0)
(7.30434 0.0204611 0)
(7.29859 0.0208823 0)
(7.29262 0.0214442 0)
(7.28641 0.0221804 0)
(7.27993 0.0231362 0)
(7.27313 0.0243743 0)
(7.26596 0.0259824 0)
(7.25836 0.0280869 0)
(7.25027 0.0308686 0)
(7.24165 0.0345991 0)
(7.23252 0.0396507 0)
(7.22309 0.0466154 0)
(7.2137 0.0560656 0)
(7.20575 0.0691187 0)
(7.2005 0.0851219 0)
(7.2021 0.105504 0)
(7.33365 0.00478062 0)
(7.33758 0.0112561 0)
(7.34215 0.014525 0)
(7.34564 0.0166319 0)
(7.34826 0.0181781 0)
(7.35024 0.0191752 0)
(7.35147 0.0198058 0)
(7.35194 0.0202404 0)
(7.35174 0.0205511 0)
(7.35096 0.0207798 0)
(7.34966 0.0209649 0)
(7.3479 0.0211362 0)
(7.34574 0.021316 0)
(7.34322 0.0215229 0)
(7.34037 0.0217742 0)
(7.33722 0.022087 0)
(7.33379 0.0224792 0)
(7.33008 0.0229715 0)
(7.32609 0.0235882 0)
(7.32183 0.0243599 0)
(7.31727 0.0253253 0)
(7.31241 0.0265355 0)
(7.30721 0.0280585 0)
(7.30165 0.0299862 0)
(7.29572 0.0324449 0)
(7.28939 0.0356065 0)
(7.28272 0.0397091 0)
(7.27579 0.0450561 0)
(7.26888 0.0520593 0)
(7.26246 0.0610713 0)
(7.25752 0.072566 0)
(7.25516 0.0859776 0)
(7.25725 0.101177 0)
(7.33343 0.00388748 0)
(7.33634 0.00975129 0)
(7.34013 0.0131411 0)
(7.34337 0.015393 0)
(7.34606 0.0170998 0)
(7.34838 0.0183159 0)
(7.35028 0.0191827 0)
(7.35168 0.0198513 0)
(7.35261 0.0203934 0)
(7.35311 0.0208482 0)
(7.35321 0.0212508 0)
(7.35292 0.021631 0)
(7.35226 0.022012 0)
(7.35126 0.0224141 0)
(7.34994 0.0228566 0)
(7.34831 0.0233593 0)
(7.34637 0.0239431 0)
(7.34414 0.0246313 0)
(7.34162 0.0254519 0)
(7.3388 0.0264383 0)
(7.33569 0.0276327 0)
(7.33226 0.0290887 0)
(7.32853 0.0308755 0)
(7.32447 0.0330835 0)
(7.3201 0.0358306 0)
(7.31546 0.0392691 0)
(7.31062 0.0435933 0)
(7.30573 0.0490309 0)
(7.30108 0.0558441 0)
(7.29713 0.0642144 0)
(7.29459 0.0742635 0)
(7.29427 0.0854978 0)
(7.29704 0.0973486 0)
(7.3333 0.00323245 0)
(7.33547 0.00850536 0)
(7.33859 0.011899 0)
(7.34149 0.0142248 0)
(7.34401 0.0160133 0)
(7.3463 0.017358 0)
(7.34831 0.018372 0)
(7.35 0.0191889 0)
(7.35136 0.0198829 0)
(7.35243 0.0204939 0)
(7.35321 0.0210553 0)
(7.35369 0.0215961 0)
(7.35389 0.0221395 0)
(7.3538 0.0227059 0)
(7.35344 0.0233155 0)
(7.35281 0.0239887 0)
(7.3519 0.0247479 0)
(7.35073 0.0256179 0)
(7.34928 0.026628 0)
(7.34757 0.0278132 0)
(7.34558 0.0292164 0)
(7.34331 0.0308911 0)
(7.34078 0.032904 0)
(7.33799 0.0353388 0)
(7.33498 0.0382998 0)
(7.33179 0.0419134 0)
(7.32855 0.0463283 0)
(7.3254 0.0517014 0)
(7.32264 0.0581818 0)
(7.32064 0.0658316 0)
(7.31992 0.0745987 0)
(7.32103 0.0840637 0)
(7.32437 0.0936398 0)
(7.33321 0.00274365 0)
(7.33487 0.00747482 0)
(7.33744 0.0107912 0)
(7.34 0.0131467 0)
(7.34231 0.0149799 0)
(7.34444 0.0164064 0)
(7.34639 0.0175205 0)
(7.3481 0.0184386 0)
(7.34958 0.0192358 0)
(7.35085 0.0199545 0)
(7.35189 0.0206283 0)
(7.35272 0.021286 0)
(7.35333 0.0219515 0)
(7.35372 0.0226455 0)
(7.3539 0.0233885 0)
(7.35385 0.0242016 0)
(7.35357 0.0251073 0)
(7.35307 0.0261312 0)
(7.35235 0.0273026 0)
(7.35139 0.0286566 0)
(7.35021 0.0302349 0)
(7.34881 0.0320882 0)
(7.3472 0.034278 0)
(7.34541 0.036878 0)
(7.34348 0.0399755 0)
(7.34148 0.0436696 0)
(7.33953 0.0480662 0)
(7.33779 0.053263 0)
(7.3365 0.0593287 0)
(7.33597 0.0662505 0)
(7.33656 0.0739016 0)
(7.33864 0.081933 0)
(7.34238 0.0898543 0)
(7.33315 0.00237017 0)
(7.33444 0.00661833 0)
(7.33656 0.00980551 0)
(7.33882 0.0121561 0)
(7.34092 0.0140099 0)
(7.34289 0.0154899 0)
(7.34473 0.0166773 0)
(7.34638 0.0176718 0)
(7.34785 0.0185465 0)
(7.34915 0.0193456 0)
(7.35028 0.0201032 0)
(7.35124 0.0208486 0)
(7.35203 0.0216065 0)
(7.35264 0.0223985 0)
(7.35309 0.0232455 0)
(7.35335 0.0241689 0)
(7.35344 0.0251915 0)
(7.35334 0.0263387 0)
(7.35307 0.0276394 0)
(7.35261 0.0291271 0)
(7.35199 0.0308413 0)
(7.3512 0.0328282 0)
(7.35026 0.0351419 0)
(7.34922 0.0378445 0)
(7.34811 0.0410053 0)
(7.34703 0.0446971 0)
(7.34607 0.0489893 0)
(7.3454 0.0539336 0)
(7.3452 0.059545 0)
(7.34573 0.0657685 0)
(7.34723 0.0724544 0)
(7.34991 0.0793172 0)
(7.35387 0.0859768 0)
(7.33312 0.00207747 0)
(7.33413 0.00590157 0)
(7.3359 0.00892927 0)
(7.33788 0.0112458 0)
(7.33978 0.013101 0)
(7.3416 0.0146135 0)
(7.34332 0.0158555 0)
(7.3449 0.0169109 0)
(7.34633 0.0178483 0)
(7.34762 0.0187124 0)
(7.34876 0.0195377 0)
(7.34976 0.0203536 0)
(7.35062 0.0211854 0)
(7.35134 0.0220554 0)
(7.35191 0.0229849 0)
(7.35235 0.0239957 0)
(7.35264 0.0251105 0)
(7.35279 0.026354 0)
(7.3528 0.0277542 0)
(7.35267 0.0293423 0)
(7.35242 0.0311545 0)
(7.35205 0.0332313 0)
(7.35161 0.0356187 0)
(7.35112 0.0383666 0)
(7.35063 0.0415268 0)
(7.35023 0.0451491 0)
(7.35002 0.0492734 0)
(7.35013 0.053918 0)
(7.35072 0.0590644 0)
(7.35197 0.0646374 0)
(7.35405 0.0704901 0)
(7.35708 0.0763924 0)
(7.36109 0.0820582 0)
(7.33309 0.00184228 0)
(7.33391 0.00529636 0)
(7.33539 0.00814946 0)
(7.33712 0.0104083 0)
(7.33886 0.0122484 0)
(7.34054 0.0137764 0)
(7.34215 0.0150569 0)
(7.34365 0.0161607 0)
(7.34503 0.01715 0)
(7.34629 0.0180691 0)
(7.34743 0.0189518 0)
(7.34844 0.0198272 0)
(7.34933 0.020721 0)
(7.35011 0.0216557 0)
(7.35076 0.022653 0)
(7.3513 0.0237343 0)
(7.35172 0.0249221 0)
(7.35203 0.0262402 0)
(7.35223 0.0277147 0)
(7.35234 0.0293744 0)
(7.35236 0.031251 0)
(7.35231 0.0333795 0)
(7.35223 0.0357968 0)
(7.35215 0.0385414 0)
(7.35214 0.0416496 0)
(7.35225 0.0451517 0)
(7.3526 0.0490653 0)
(7.35327 0.0533859 0)
(7.35441 0.0580761 0)
(7.35613 0.0630544 0)
(7.35855 0.068188 0)
(7.36175 0.0732935 0)
(7.36571 0.0781577 0)
(7.33307 0.00164878 0)
(7.33374 0.0047798 0)
(7.33499 0.00745346 0)
(7.33652 0.00963656 0)
(7.3381 0.011447 0)
(7.33965 0.0129756 0)
(7.34116 0.0142803 0)
(7.3426 0.0154207 0)
(7.34393 0.0164525 0)
(7.34516 0.0174177 0)
(7.34629 0.0183494 0)
(7.34731 0.0192761 0)
(7.34823 0.020223 0)
(7.34905 0.0212126 0)
(7.34976 0.0222663 0)
(7.35038 0.0234051 0)
(7.3509 0.0246506 0)
(7.35134 0.0260253 0)
(7.35169 0.0275532 0)
(7.35198 0.02926 0)
(7.35221 0.0311729 0)
(7.35242 0.0333205 0)
(7.35263 0.0357319 0)
(7.35288 0.0384345 0)
(7.35323 0.0414516 0)
(7.35374 0.0447984 0)
(7.3545 0.0484761 0)
(7.35558 0.0524659 0)
(7.35709 0.0567212 0)
(7.35911 0.0611627 0)
(7.36172 0.0656755 0)
(7.36497 0.0701143 0)
(7.36881 0.0743206 0)
(7.33306 0.001486 0)
(7.33362 0.00433352 0)
(7.33469 0.00682933 0)
(7.33604 0.00892345 0)
(7.33747 0.0106916 0)
(7.33891 0.0122079 0)
(7.34034 0.0135237 0)
(7.3417 0.0146894 0)
(7.343 0.0157539 0)
(7.34421 0.0167568 0)
(7.34533 0.0177296 0)
(7.34636 0.0186997 0)
(7.34731 0.0196915 0)
(7.34816 0.0207272 0)
(7.34893 0.0218274 0)
(7.34963 0.0230123 0)
(7.35024 0.0243023 0)
(7.35079 0.0257182 0)
(7.35128 0.0272815 0)
(7.35173 0.0290143 0)
(7.35215 0.0309395 0)
(7.35257 0.0330797 0)
(7.35302 0.0354562 0)
(7.35355 0.0380873 0)
(7.3542 0.0409856 0)
(7.35502 0.0441547 0)
(7.35609 0.0475851 0)
(7.35747 0.0512494 0)
(7.35923 0.0550987 0)
(7.36145 0.0590598 0)
(7.36415 0.0630361 0)
(7.36736 0.0669131 0)
(7.37106 0.0705723 0)
(7.33305 0.00134625 0)
(7.33353 0.0039429 0)
(7.33445 0.00626605 0)
(7.33565 0.008262 0)
(7.33696 0.00997704 0)
(7.3383 0.0114697 0)
(7.33964 0.0127844 0)
(7.34095 0.0139644 0)
(7.34221 0.0150521 0)
(7.3434 0.0160839 0)
(7.34452 0.0170896 0)
(7.34557 0.0180951 0)
(7.34654 0.0191237 0)
(7.34744 0.0201967 0)
(7.34827 0.0213338 0)
(7.34904 0.022554 0)
(7.34974 0.0238762 0)
(7.3504 0.025319 0)
(7.35102 0.0269014 0)
(7.35162 0.028642 0)
(7.35221 0.0305591 0)
(7.35283 0.0326698 0)
(7.35349 0.0349887 0)
(7.35425 0.0375264 0)
(7.35515 0.0402871 0)
(7.35622 0.0432663 0)
(7.35753 0.0464476 0)
(7.35913 0.0497998 0)
(7.36108 0.0532753 0)
(7.3634 0.0568091 0)
(7.36614 0.0603211 0)
(7.36929 0.0637214 0)
(7.37283 0.0669211 0)
(7.33304 0.00122396 0)
(7.33345 0.00359629 0)
(7.33426 0.00575362 0)
(7.33533 0.00764534 0)
(7.33653 0.00929811 0)
(7.33779 0.0107569 0)
(7.33906 0.0120597 0)
(7.34033 0.0132433 0)
(7.34155 0.0143446 0)
(7.34273 0.0153964 0)
(7.34385 0.0164264 0)
(7.34492 0.0174589 0)
(7.34592 0.0185158 0)
(7.34687 0.0196172 0)
(7.34776 0.0207814 0)
(7.3486 0.0220263 0)
(7.34939 0.0233686 0)
(7.35016 0.0248251 0)
(7.3509 0.0264117 0)
(7.35164 0.0281437 0)
(7.35239 0.0300353 0)
(7.35319 0.0320983 0)
(7.35405 0.0343419 0)
(7.35501 0.0367703 0)
(7.35611 0.0393818 0)
(7.35739 0.0421663 0)
(7.35889 0.0451035 0)
(7.36066 0.0481615 0)
(7.36272 0.051296 0)
(7.36512 0.0544507 0)
(7.36785 0.0575601 0)
(7.37093 0.0605536 0)
(7.37431 0.0633639 0)
(7.33304 0.00111503 0)
(7.3334 0.00328436 0)
(7.33411 0.00528306 0)
(7.33508 0.0070667 0)
(7.33619 0.0086495 0)
(7.33737 0.0100653 0)
(7.33858 0.0113461 0)
(7.3398 0.0125233 0)
(7.341 0.0136287 0)
(7.34217 0.0146914 0)
(7.3433 0.015737 0)
(7.34439 0.0167878 0)
(7.34542 0.0178642 0)
(7.34642 0.0189847 0)
(7.34737 0.0201664 0)
(7.34829 0.0214251 0)
(7.34917 0.0227761 0)
(7.35004 0.0242335 0)
(7.35091 0.0258107 0)
(7.35178 0.0275196 0)
(7.35268 0.0293705 0)
(7.35364 0.0313711 0)
(7.35467 0.0335259 0)
(7.3558 0.0358343 0)
(7.35708 0.0382903 0)
(7.35853 0.0408804 0)
(7.36018 0.0435828 0)
(7.36207 0.0463665 0)
(7.36423 0.0491917 0)
(7.36665 0.0520106 0)
(7.36937 0.0547698 0)
(7.37235 0.0574138 0)
(7.37559 0.0598916 0)
(7.33304 0.00101633 0)
(7.33335 0.00299956 0)
(7.334 0.00484637 0)
(7.33488 0.00651955 0)
(7.33591 0.00802587 0)
(7.33703 0.00939056 0)
(7.33819 0.0106401 0)
(7.33937 0.0118013 0)
(7.34055 0.0129013 0)
(7.34172 0.013966 0)
(7.34286 0.0150182 0)
(7.34396 0.0160785 0)
(7.34504 0.0171654 0)
(7.34608 0.0182957 0)
(7.3471 0.0194849 0)
(7.34809 0.0207472 0)
(7.34907 0.0220956 0)
(7.35004 0.0235421 0)
(7.35101 0.0250973 0)
(7.35201 0.0267703 0)
(7.35305 0.0285679 0)
(7.35415 0.0304943 0)
(7.35534 0.0325502 0)
(7.35663 0.0347319 0)
(7.35805 0.0370301 0)
(7.35964 0.0394298 0)
(7.36141 0.041909 0)
(7.36339 0.044439 0)
(7.3656 0.0469847 0)
(7.36804 0.0495058 0)
(7.37072 0.0519592 0)
(7.37362 0.0543012 0)
(7.37672 0.0564929 0)
(7.33303 0.000925421 0)
(7.33332 0.00273571 0)
(7.3339 0.00443642 0)
(7.33472 0.00599757 0)
(7.33569 0.00742183 0)
(7.33675 0.00872794 0)
(7.33787 0.00993768 0)
(7.33902 0.0110737 0)
(7.34019 0.0121592 0)
(7.34136 0.0132168 0)
(7.34251 0.0142669 0)
(7.34364 0.0153277 0)
(7.34476 0.016416 0)
(7.34585 0.0175469 0)
(7.34693 0.0187339 0)
(7.34799 0.0199895 0)
(7.34906 0.0213247 0)
(7.35012 0.0227492 0)
(7.35121 0.0242713 0)
(7.35233 0.0258973 0)
(7.35349 0.0276312 0)
(7.35472 0.0294742 0)
(7.35604 0.0314244 0)
(7.35746 0.0334755 0)
(7.35901 0.0356168 0)
(7.36071 0.0378324 0)
(7.36258 0.0401015 0)
(7.36462 0.0423979 0)
(7.36687 0.0446912 0)
(7.36931 0.046948 0)
(7.37194 0.0491332 0)
(7.37476 0.0512126 0)
(7.37774 0.0531563 0)
(7.33303 0.000840342 0)
(7.33329 0.00248762 0)
(7.33383 0.00404684 0)
(7.3346 0.0054947 0)
(7.33551 0.00683195 0)
(7.33653 0.00807264 0)
(7.33762 0.00923454 0)
(7.33875 0.0103367 0)
(7.33991 0.0113989 0)
(7.34108 0.0124406 0)
(7.34225 0.0134796 0)
(7.34341 0.0145322 0)
(7.34456 0.0156129 0)
(7.34571 0.0167351 0)
(7.34685 0.0179106 0)
(7.34799 0.0191498 0)
(7.34913 0.0204619 0)
(7.35029 0.0218545 0)
(7.35148 0.0233335 0)
(7.3527 0.024903 0)
(7.35398 0.0265647 0)
(7.35533 0.0283176 0)
(7.35676 0.0301576 0)
(7.35829 0.032077 0)
(7.35995 0.0340642 0)
(7.36174 0.0361038 0)
(7.36367 0.0381761 0)
(7.36577 0.0402581 0)
(7.36803 0.0423237 0)
(7.37046 0.0443452 0)
(7.37305 0.0462943 0)
(7.37578 0.0481441 0)
(7.37865 0.0498715 0)
(7.33303 0.000759451 0)
(7.33327 0.00225089 0)
(7.33378 0.00367188 0)
(7.3345 0.00500511 0)
(7.33537 0.00625078 0)
(7.33636 0.00741964 0)
(7.33742 0.00852615 0)
(7.33854 0.00958625 0)
(7.3397 0.0106166 0)
(7.34088 0.0116338 0)
(7.34206 0.0126531 0)
(7.34326 0.0136886 0)
(7.34445 0.014753 0)
(7.34565 0.0158577 0)
(7.34685 0.0170125 0)
(7.34806 0.0182263 0)
(7.34928 0.0195061 0)
(7.35053 0.0208578 0)
(7.35181 0.0222852 0)
(7.35313 0.0237904 0)
(7.35451 0.0253734 0)
(7.35596 0.0270313 0)
(7.35749 0.0287587 0)
(7.35912 0.0305471 0)
(7.36086 0.0323849 0)
(7.36272 0.0342571 0)
(7.36471 0.0361461 0)
(7.36684 0.0380317 0)
(7.36911 0.0398917 0)
(7.37151 0.0417032 0)
(7.37405 0.0434436 0)
(7.37671 0.0450914 0)
(7.37948 0.0466289 0)
(7.33303 0.000681345 0)
(7.33326 0.00202163 0)
(7.33374 0.00330624 0)
(7.33443 0.00452315 0)
(7.33527 0.00567283 0)
(7.33623 0.00676376 0)
(7.33728 0.0078077 0)
(7.33839 0.00881789 0)
(7.33955 0.00980823 0)
(7.34074 0.0107925 0)
(7.34195 0.0117838 0)
(7.34318 0.0127939 0)
(7.34442 0.0138335 0)
(7.34567 0.0149121 0)
(7.34693 0.0160378 0)
(7.3482 0.0172176 0)
(7.3495 0.0184569 0)
(7.35083 0.0197597 0)
(7.35219 0.0211282 0)
(7.35361 0.0225629 0)
(7.35508 0.0240621 0)
(7.35661 0.025622 0)
(7.35823 0.0272361 0)
(7.35994 0.0288958 0)
(7.36175 0.0305896 0)
(7.36366 0.0323038 0)
(7.36569 0.0340225 0)
(7.36784 0.0357282 0)
(7.3701 0.0374023 0)
(7.37249 0.039026 0)
(7.37497 0.040581 0)
(7.37756 0.0420502 0)
(7.38023 0.0434201 0)
(7.33303 0.000604771 0)
(7.33325 0.00179636 0)
(7.33371 0.00294498 0)
(7.33438 0.00404328 0)
(7.33521 0.00509251 0)
(7.33615 0.00609959 0)
(7.33719 0.0070741 0)
(7.3383 0.00802689 0)
(7.33947 0.00896936 0)
(7.34068 0.00991283 0)
(7.34191 0.010868 0)
(7.34317 0.0118446 0)
(7.34445 0.0128513 0)
(7.34575 0.0138958 0)
(7.34707 0.0149846 0)
(7.34841 0.0161228 0)
(7.34978 0.0173142 0)
(7.35118 0.0185613 0)
(7.35263 0.0198649 0)
(7.35412 0.021224 0)
(7.35567 0.022636 0)
(7.35728 0.0240962 0)
(7.35897 0.0255978 0)
(7.36074 0.027132 0)
(7.36261 0.028688 0)
(7.36456 0.0302534 0)
(7.36662 0.0318142 0)
(7.36878 0.0333553 0)
(7.37104 0.034861 0)
(7.37339 0.0363161 0)
(7.37583 0.0377057 0)
(7.37835 0.0390164 0)
(7.38093 0.0402375 0)
(7.33302 0.000528575 0)
(7.33324 0.0015718 0)
(7.3337 0.00258334 0)
(7.33435 0.00356002 0)
(7.33517 0.00450411 0)
(7.3361 0.00542149 0)
(7.33714 0.00631995 0)
(7.33826 0.0072082 0)
(7.33944 0.00809536 0)
(7.34067 0.00899042 0)
(7.34194 0.00990184 0)
(7.34323 0.0108373 0)
(7.34456 0.0118037 0)
(7.34591 0.0128068 0)
(7.34728 0.0138513 0)
(7.34868 0.014941 0)
(7.35012 0.0160781 0)
(7.35159 0.0172637 0)
(7.3531 0.0184974 0)
(7.35467 0.0197773 0)
(7.35628 0.0210999 0)
(7.35797 0.0224599 0)
(7.35972 0.0238506 0)
(7.36154 0.0252633 0)
(7.36345 0.0266882 0)
(7.36544 0.028114 0)
(7.36751 0.0295284 0)
(7.36967 0.0309187 0)
(7.37191 0.0322718 0)
(7.37423 0.0335751 0)
(7.37662 0.0348166 0)
(7.37908 0.0359858 0)
(7.38158 0.0370742 0)
(7.33302 0.000451643 0)
(7.33324 0.00134478 0)
(7.33369 0.0022166 0)
(7.33434 0.00306776 0)
(7.33515 0.00390165 0)
(7.33609 0.00472348 0)
(7.33714 0.00553946 0)
(7.33827 0.00635638 0)
(7.33947 0.00718123 0)
(7.34073 0.00802078 0)
(7.34202 0.00888138 0)
(7.34336 0.00976873 0)
(7.34473 0.0106878 0)
(7.34612 0.0116427 0)
(7.34755 0.0126366 0)
(7.34901 0.0136716 0)
(7.35051 0.0147488 0)
(7.35204 0.0158682 0)
(7.35362 0.0170282 0)
(7.35525 0.0182263 0)
(7.35693 0.0194582 0)
(7.35866 0.0207187 0)
(7.36046 0.0220008 0)
(7.36233 0.0232967 0)
(7.36427 0.0245971 0)
(7.36628 0.0258921 0)
(7.36837 0.027171 0)
(7.37052 0.028423 0)
(7.37275 0.0296373 0)
(7.37503 0.0308035 0)
(7.37738 0.031912 0)
(7.37977 0.0329543 0)
(7.38221 0.0339239 0)
(7.33302 0.000372847 0)
(7.33324 0.00111206 0)
(7.33369 0.00183989 0)
(7.33435 0.00256061 0)
(7.33517 0.00327882 0)
(7.33612 0.00399915 0)
(7.33718 0.00472641 0)
(7.33833 0.00546556 0)
(7.33955 0.00622155 0)
(7.34084 0.00699904 0)
(7.34217 0.0078023 0)
(7.34355 0.00863509 0)
(7.34496 0.00950059 0)
(7.34641 0.0104013 0)
(7.34789 0.0113388 0)
(7.3494 0.012314 0)
(7.35096 0.0133268 0)
(7.35255 0.0143761 0)
(7.35418 0.0154597 0)
(7.35586 0.0165742 0)
(7.35759 0.0177152 0)
(7.35938 0.0188774 0)
(7.36122 0.020054 0)
(7.36313 0.0212378 0)
(7.36509 0.0224203 0)
(7.36712 0.0235929 0)
(7.36921 0.0247463 0)
(7.37135 0.0258715 0)
(7.37356 0.0269593 0)
(7.37581 0.0280013 0)
(7.37811 0.0289898 0)
(7.38045 0.029918 0)
(7.38281 0.0307808 0)
(7.33302 0.000290986 0)
(7.33325 0.000870189 0)
(7.3337 0.00144798 0)
(7.33437 0.00203222 0)
(7.33521 0.0026287 0)
(7.33618 0.00324149 0)
(7.33726 0.00387398 0)
(7.33844 0.00452933 0)
(7.33969 0.00521046 0)
(7.34101 0.00591995 0)
(7.34239 0.00666003 0)
(7.3438 0.00743257 0)
(7.34526 0.00823901 0)
(7.34675 0.00908025 0)
(7.34829 0.00995661 0)
(7.34985 0.0108677 0)
(7.35146 0.0118124 0)
(7.3531 0.0127887 0)
(7.35479 0.0137937 0)
(7.35652 0.0148239 0)
(7.35829 0.0158745 0)
(7.36012 0.0169402 0)
(7.362 0.0180148 0)
(7.36393 0.0190914 0)
(7.36591 0.0201625 0)
(7.36795 0.0212206 0)
(7.37004 0.0222578 0)
(7.37217 0.0232663 0)
(7.37435 0.0242386 0)
(7.37657 0.0251678 0)
(7.37883 0.0260477 0)
(7.38111 0.0268729 0)
(7.38342 0.0276393 0)
(7.33303 0.000204709 0)
(7.33325 0.000615291 0)
(7.33373 0.001035 0)
(7.33441 0.00147544 0)
(7.33527 0.00194355 0)
(7.33627 0.00244267 0)
(7.33739 0.00297459 0)
(7.3386 0.00354058 0)
(7.33989 0.00414149 0)
(7.34125 0.00477776 0)
(7.34267 0.0054496 0)
(7.34413 0.006157 0)
(7.34563 0.00689972 0)
(7.34717 0.00767719 0)
(7.34875 0.00848841 0)
(7.35037 0.00933189 0)
(7.35202 0.0102056 0)
(7.35371 0.0111069 0)
(7.35545 0.0120323 0)
(7.35722 0.012978 0)
(7.35904 0.0139393 0)
(7.3609 0.0149109 0)
(7.3628 0.015887 0)
(7.36475 0.0168613 0)
(7.36675 0.0178273 0)
(7.36879 0.0187783 0)
(7.37087 0.0197075 0)
(7.373 0.0206085 0)
(7.37515 0.021475 0)
(7.37734 0.0223014 0)
(7.37956 0.0230826 0)
(7.38179 0.0238144 0)
(7.38404 0.0244934 0)
(7.33303 0.000112404 0)
(7.33327 0.000342747 0)
(7.33376 0.000593996 0)
(7.33448 0.000881925 0)
(7.33537 0.00121447 0)
(7.33641 0.00159377 0)
(7.33757 0.00201968 0)
(7.33882 0.00249136 0)
(7.34016 0.00300746 0)
(7.34156 0.00356618 0)
(7.34302 0.00416561 0)
(7.34453 0.00480387 0)
(7.34608 0.00547908 0)
(7.34767 0.00618925 0)
(7.3493 0.00693219 0)
(7.35096 0.00770543 0)
(7.35266 0.00850614 0)
(7.35439 0.00933108 0)
(7.35617 0.0101765 0)
(7.35798 0.0110383 0)
(7.35983 0.0119118 0)
(7.36172 0.012792 0)
(7.36365 0.0136735 0)
(7.36561 0.0145505 0)
(7.36762 0.0154174 0)
(7.36966 0.0162683 0)
(7.37174 0.0170975 0)
(7.37385 0.0178994 0)
(7.37598 0.018669 0)
(7.37814 0.0194015 0)
(7.38032 0.020093 0)
(7.38251 0.0207399 0)
(7.3847 0.0213398 0)
(7.33303 1.20395e-05 0)
(7.33328 4.67665e-05 0)
(7.33381 0.000116392 0)
(7.33457 0.000241586 0)
(7.33551 0.000430885 0)
(7.3366 0.00068437 0)
(7.33781 0.000999358 0)
(7.33912 0.00137259 0)
(7.3405 0.00180025 0)
(7.34196 0.00227814 0)
(7.34346 0.00280213 0)
(7.34502 0.00336844 0)
(7.34662 0.00397354 0)
(7.34826 0.00461406 0)
(7.34993 0.00528668 0)
(7.35164 0.00598801 0)
(7.35338 0.00671455 0)
(7.35515 0.00746257 0)
(7.35696 0.00822808 0)
(7.35881 0.00900683 0)
(7.36069 0.00979429 0)
(7.3626 0.0105857 0)
(7.36455 0.0113761 0)
(7.36653 0.0121603 0)
(7.36854 0.0129334 0)
(7.37058 0.0136902 0)
(7.37265 0.0144258 0)
(7.37474 0.0151358 0)
(7.37685 0.0158157 0)
(7.37898 0.0164619 0)
(7.38112 0.017071 0)
(7.38327 0.0176402 0)
(7.38542 0.0181676 0)
(7.33303 -9.91007e-05 0)
(7.33331 -0.000280319 0)
(7.33388 -0.000408925 0)
(7.3347 -0.00045827 0)
(7.3357 -0.00042014 0)
(7.33685 -0.000297947 0)
(7.33812 -9.78241e-05 0)
(7.33949 0.000173998 0)
(7.34094 0.000510773 0)
(7.34245 0.00090552 0)
(7.34401 0.00135179 0)
(7.34562 0.00184392 0)
(7.34726 0.00237687 0)
(7.34895 0.00294598 0)
(7.35067 0.00354692 0)
(7.35242 0.0041755 0)
(7.3542 0.00482765 0)
(7.35601 0.00549923 0)
(7.35786 0.00618608 0)
(7.35973 0.00688388 0)
(7.36164 0.00758823 0)
(7.36357 0.00829464 0)
(7.36553 0.00899854 0)
(7.36752 0.00969539 0)
(7.36954 0.0103807 0)
(7.37158 0.01105 0)
(7.37364 0.0116994 0)
(7.37571 0.0123247 0)
(7.3778 0.0129227 0)
(7.3799 0.01349 0)
(7.38201 0.0140241 0)
(7.38412 0.0145227 0)
(7.38623 0.0149842 0)
(7.33303 -0.000224858 0)
(7.33334 -0.000649237 0)
(7.33397 -0.000996944 0)
(7.33487 -0.00123396 0)
(7.33596 -0.00135472 0)
(7.33719 -0.00136861 0)
(7.33854 -0.00128604 0)
(7.33998 -0.00111652 0)
(7.34149 -0.000870331 0)
(7.34306 -0.000557914 0)
(7.34468 -0.000188539 0)
(7.34634 0.000229984 0)
(7.34804 0.000690931 0)
(7.34977 0.00118837 0)
(7.35154 0.001717 0)
(7.35333 0.00227201 0)
(7.35515 0.00284888 0)
(7.357 0.00344329 0)
(7.35887 0.00405101 0)
(7.36078 0.00466783 0)
(7.3627 0.0052896 0)
(7.36466 0.00591216 0)
(7.36663 0.00653139 0)
(7.36863 0.00714326 0)
(7.37065 0.00774386 0)
(7.37268 0.00832945 0)
(7.37473 0.00889651 0)
(7.3768 0.00944181 0)
(7.37887 0.00996243 0)
(7.38094 0.0104558 0)
(7.38302 0.0109199 0)
(7.3851 0.0113528 0)
(7.38717 0.0117534 0)
(7.33304 -0.000370961 0)
(7.33339 -0.00107588 0)
(7.33411 -0.00166905 0)
(7.33511 -0.00210706 0)
(7.33631 -0.0023922 0)
(7.33764 -0.00254503 0)
(7.33908 -0.00258229 0)
(7.3406 -0.00251726 0)
(7.34219 -0.0023638 0)
(7.34384 -0.0021355 0)
(7.34552 -0.00184401 0)
(7.34724 -0.00149899 0)
(7.34899 -0.00110876 0)
(7.35077 -0.000680595 0)
(7.35258 -0.000220829 0)
(7.35441 0.000264932 0)
(7.35627 0.000771627 0)
(7.35815 0.00129458 0)
(7.36005 0.0018294 0)
(7.36198 0.00237191 0)
(7.36393 0.00291809 0)
(7.3659 0.00346407 0)
(7.36789 0.00400613 0)
(7.36989 0.00454068 0)
(7.37191 0.00506434 0)
(7.37395 0.0055739 0)
(7.37599 0.00606641 0)
(7.37804 0.0065392 0)
(7.38009 0.00698988 0)
(7.38215 0.00741635 0)
(7.3842 0.00781687 0)
(7.38625 0.00818997 0)
(7.38829 0.00853461 0)
(7.33305 -0.000546525 0)
(7.33347 -0.00158428 0)
(7.3343 -0.00245646 0)
(7.33545 -0.00311008 0)
(7.33679 -0.00356215 0)
(7.33824 -0.00384761 0)
(7.33979 -0.00399174 0)
(7.34141 -0.004016 0)
(7.3431 -0.00394222 0)
(7.34482 -0.00378936 0)
(7.34657 -0.00357183 0)
(7.34836 -0.00330079 0)
(7.35017 -0.00298543 0)
(7.352 -0.00263345 0)
(7.35386 -0.00225128 0)
(7.35574 -0.00184445 0)
(7.35763 -0.00141785 0)
(7.35955 -0.000975915 0)
(7.36149 -0.000522779 0)
(7.36344 -6.23128e-05 0)
(7.36541 0.000401809 0)
(7.3674 0.000866084 0)
(7.3694 0.00132718 0)
(7.37141 0.00178194 0)
(7.37344 0.00222739 0)
(7.37547 0.00266079 0)
(7.37751 0.0030796 0)
(7.37955 0.00348156 0)
(7.38159 0.00386467 0)
(7.38362 0.00422723 0)
(7.38566 0.00456785 0)
(7.38768 0.00488548 0)
(7.38968 0.00517944 0)
(7.33306 -0.000768467 0)
(7.33358 -0.00221449 0)
(7.3346 -0.00339578 0)
(7.33596 -0.00427416 0)
(7.33748 -0.00491215 0)
(7.33909 -0.00535802 0)
(7.34078 -0.00563194 0)
(7.34253 -0.00575672 0)
(7.34431 -0.00576176 0)
(7.34612 -0.00567289 0)
(7.34795 -0.0055094 0)
(7.3498 -0.00528646 0)
(7.35168 -0.0050166 0)
(7.35357 -0.00471003 0)
(7.35547 -0.00437486 0)
(7.3574 -0.00401762 0)
(7.35934 -0.00364374 0)
(7.3613 -0.00325782 0)
(7.36327 -0.00286385 0)
(7.36526 -0.00246537 0)
(7.36726 -0.00206558 0)
(7.36927 -0.00166741 0)
(7.37128 -0.00127357 0)
(7.37331 -0.000886569 0)
(7.37534 -0.000508737 0)
(7.37737 -0.000142202 0)
(7.3794 0.0002111 0)
(7.38142 0.000549435 0)
(7.38344 0.000871272 0)
(7.38546 0.00117528 0)
(7.38746 0.0014603 0)
(7.38945 0.00172535 0)
(7.39142 0.00196958 0)
(7.33308 -0.00106537 0)
(7.33379 -0.0030646 0)
(7.3351 -0.00457902 0)
(7.33673 -0.00560027 0)
(7.33845 -0.00631199 0)
(7.34026 -0.00682429 0)
(7.34215 -0.00717213 0)
(7.34407 -0.00738322 0)
(7.34602 -0.00748807 0)
(7.34797 -0.00750914 0)
(7.34994 -0.00746091 0)
(7.35191 -0.00735461 0)
(7.35388 -0.0072 0)
(7.35586 -0.00700536 0)
(7.35785 -0.00677764 0)
(7.35983 -0.0065228 0)
(7.36183 -0.0062461 0)
(7.36382 -0.00595225 0)
(7.36582 -0.00564547 0)
(7.36782 -0.00532954 0)
(7.36982 -0.00500795 0)
(7.37182 -0.00468383 0)
(7.37381 -0.00436006 0)
(7.3758 -0.00403927 0)
(7.37779 -0.00372382 0)
(7.37976 -0.00341584 0)
(7.38172 -0.00311723 0)
(7.38367 -0.00282964 0)
(7.38561 -0.0025545 0)
(7.38752 -0.00229298 0)
(7.38942 -0.002046 0)
(7.39129 -0.00181414 0)
(7.39313 -0.00159785 0)
(7.3331 -0.00144703 0)
(7.33415 -0.00420525 0)
(7.33607 -0.00630899 0)
(7.33822 -0.00775935 0)
(7.34032 -0.00874174 0)
(7.34242 -0.0093654 0)
(7.34458 -0.00970822 0)
(7.34675 -0.00985271 0)
(7.34891 -0.00986568 0)
(7.35106 -0.00978944 0)
(7.35319 -0.00965095 0)
(7.3553 -0.0094693 0)
(7.35738 -0.00925791 0)
(7.35943 -0.00902564 0)
(7.36144 -0.00877833 0)
(7.36342 -0.00852005 0)
(7.36537 -0.0082538 0)
(7.36728 -0.00798192 0)
(7.36915 -0.00770633 0)
(7.371 -0.00742876 0)
(7.37281 -0.0071508 0)
(7.37458 -0.00687398 0)
(7.37633 -0.00659979 0)
(7.37805 -0.00632964 0)
(7.37973 -0.00606491 0)
(7.38139 -0.00580688 0)
(7.38302 -0.00555676 0)
(7.38462 -0.00531567 0)
(7.38618 -0.00508463 0)
(7.38772 -0.00486457 0)
(7.38923 -0.00465637 0)
(7.39072 -0.00446093 0)
(7.39217 -0.00427913 0)
(7.33311 -0.00228348 0)
(7.33485 -0.00521229 0)
(7.33795 -0.00687762 0)
(7.34136 -0.00824898 0)
(7.34468 -0.00953858 0)
(7.34787 -0.0106065 0)
(7.35088 -0.0114109 0)
(7.35364 -0.0119991 0)
(7.35612 -0.0124116 0)
(7.35834 -0.0126699 0)
(7.36031 -0.0127943 0)
(7.36207 -0.0128079 0)
(7.36363 -0.0127322 0)
(7.36501 -0.0125855 0)
(7.36623 -0.0123827 0)
(7.36731 -0.0121367 0)
(7.36828 -0.0118582 0)
(7.36915 -0.0115559 0)
(7.36993 -0.0112372 0)
(7.37063 -0.0109079 0)
(7.37127 -0.0105728 0)
(7.37187 -0.0102361 0)
(7.37241 -0.00990083 0)
(7.37292 -0.00956978 0)
(7.3734 -0.00924509 0)
(7.37386 -0.00892853 0)
(7.37429 -0.00862152 0)
(7.3747 -0.00832519 0)
(7.3751 -0.0080404 0)
(7.37548 -0.00776775 0)
(7.37585 -0.00750767 0)
(7.37621 -0.00726036 0)
(7.37655 -0.00702591 0)
(7.3363 -0.00651692 0)
(7.34557 -0.0134858 0)
(7.35343 -0.0156852 0)
(7.35888 -0.0161886 0)
(7.36268 -0.0161521 0)
(7.36523 -0.0157375 0)
(7.36659 -0.0150742 0)
(7.36686 -0.0143286 0)
(7.36624 -0.0135937 0)
(7.36495 -0.0128976 0)
(7.36315 -0.012247 0)
(7.36096 -0.0116445 0)
(7.3585 -0.0110891 0)
(7.35585 -0.0105769 0)
(7.35308 -0.0101027 0)
(7.35025 -0.00966187 0)
(7.3474 -0.00925023 0)
(7.34457 -0.00886424 0)
(7.34179 -0.00850097 0)
(7.33906 -0.00815807 0)
(7.33641 -0.00783367 0)
(7.33385 -0.00752633 0)
(7.33138 -0.00723492 0)
(7.32901 -0.00695859 0)
(7.32673 -0.00669665 0)
(7.32456 -0.00644857 0)
(7.32248 -0.00621393 0)
(7.3205 -0.00599232 0)
(7.31862 -0.00578336 0)
(7.31683 -0.00558663 0)
(7.31513 -0.00540156 0)
(7.31352 -0.00522749 0)
(7.31199 -0.00506293 0)
(7.32508 -0.00546973 0)
(7.31335 -0.0121248 0)
(7.29927 -0.0150424 0)
(7.28289 -0.0161315 0)
(7.26682 -0.0163107 0)
(7.25212 -0.0158745 0)
(7.23868 -0.0150345 0)
(7.22634 -0.0139905 0)
(7.21508 -0.0128782 0)
(7.20486 -0.0117719 0)
(7.19559 -0.0107126 0)
(7.18716 -0.0097235 0)
(7.17948 -0.00881579 0)
(7.17247 -0.00799223 0)
(7.16607 -0.00725046 0)