/*--------------------------------*- C++ -*----------------------------------*\
| =========                 |                                                 |
| \\      /  F ield         | OpenFOAM: The Open Source CFD Toolbox           |
|  \\    /   O peration     | Version:  4.1                                   |
|   \\  /    A nd           | Web:      www.OpenFOAM.org                      |
|    \\/     M anipulation  |                                                 |
\*---------------------------------------------------------------------------*/
FoamFile
{
    version     2.0;
    format      ascii;
    class       volScalarField;
    location    "1300";
    object      epsilon;
}
// * * * * * * * * * * * * * * * * * * * * * * * * * * * * * * * * * * * * * //

dimensions      [0 2 -3 0 0 0 0];

internalField   nonuniform List<scalar> 
6820
(
115.949
152.042
190.661
230.213
269.213
306.364
340.623
371.268
397.899
420.4
438.869
453.554
464.803
473.009
478.58
481.91
483.37
483.292
481.971
479.663
476.587
472.927
468.838
464.447
459.86
455.162
450.422
445.696
441.025
436.448
431.983
427.735
425.108
9.48476
17.5528
23.8082
29.343
34.5615
39.5638
44.3524
48.9031
53.1856
57.1731
60.8487
64.2073
67.2547
70.0051
72.4792
74.7011
76.6969
78.4928
80.114
81.5839
82.9237
84.153
85.2887
86.3455
87.3357
88.2698
89.156
90.0017
90.8113
91.5916
92.3415
93.0695
93.7679
4.14146
5.59602
6.98297
8.20862
9.27788
10.2173
11.0506
11.7953
12.4652
13.0716
13.6233
14.1277
14.5907
15.0172
15.4112
15.7762
16.1152
16.4306
16.7248
16.9994
17.258
17.5082
17.7522
17.9906
18.224
18.453
18.6778
18.8989
19.1166
19.3311
19.5426
19.7517
19.9563
3.60121
3.91796
4.33109
4.75787
5.16049
5.52671
5.85474
6.14666
6.40579
6.6357
6.83984
7.02136
7.18307
7.32748
7.45674
7.57272
7.67703
7.77107
7.85602
7.93291
8.00259
8.06661
8.12605
8.18167
8.23408
8.28376
8.33112
8.37649
8.42017
8.46238
8.50337
8.54328
8.58245
3.52798
3.56982
3.67476
3.81744
3.97488
4.1328
4.28383
4.42458
4.55377
4.67122
4.77737
4.87291
4.95865
5.03543
5.10409
5.1654
5.22009
5.26883
5.31223
5.35082
5.38509
5.41551
5.44254
5.46658
5.48801
5.50713
5.52424
5.53957
5.55335
5.56576
5.57697
5.58711
5.5964
3.5197
3.49572
3.49766
3.52374
3.56745
3.62175
3.681
3.74133
3.80034
3.85661
3.90933
3.95814
4.00291
4.04368
4.08059
4.11385
4.14366
4.17029
4.19396
4.21492
4.23339
4.24958
4.26371
4.27597
4.28654
4.29559
4.30327
4.30973
4.31508
4.31945
4.32294
4.32564
4.32766
3.51928
3.48173
3.4529
3.43487
3.42775
3.42982
3.4388
3.45249
3.46904
3.48707
3.50557
3.52383
3.54138
3.55792
3.57325
3.58728
3.59995
3.61129
3.6213
3.63006
3.63761
3.64407
3.64949
3.65395
3.65752
3.66027
3.66225
3.66354
3.6642
3.66428
3.66383
3.66292
3.66159
3.51938
3.47956
3.44297
3.41081
3.38393
3.36257
3.34634
3.33451
3.32623
3.32072
3.31725
3.31524
3.31422
3.31382
3.31376
3.31382
3.31384
3.31373
3.31338
3.31277
3.31185
3.31061
3.30906
3.30718
3.30501
3.30253
3.29978
3.29677
3.29352
3.29004
3.28636
3.28249
3.27846
3.51942
3.47931
3.44106
3.40504
3.37162
3.34118
3.31388
3.28963
3.26823
3.24937
3.23274
3.218
3.20484
3.19299
3.1822
3.17226
3.16303
3.15434
3.1461
3.13822
3.13062
3.12325
3.11606
3.10902
3.10209
3.09526
3.08851
3.08183
3.07521
3.06865
3.06213
3.05566
3.04923
3.51943
3.47931
3.44074
3.4038
3.36856
3.33518
3.30378
3.27441
3.24705
3.22164
3.19808
3.17623
3.15594
3.13705
3.11941
3.10289
3.08735
3.07269
3.0588
3.04559
3.03299
3.02092
3.00935
2.9982
2.98745
2.97705
2.96698
2.9572
2.94769
2.93844
2.92943
2.92063
2.91204
3.51944
3.47931
3.44068
3.40355
3.36786
3.33364
3.30091
3.26968
3.23994
3.2117
3.18491
3.15952
3.13547
3.1127
3.09111
3.07063
3.05118
3.03267
3.01505
2.99824
2.98217
2.96679
2.95204
2.93788
2.92427
2.91116
2.89853
2.88633
2.87454
2.86314
2.85209
2.84139
2.83101
3.51944
3.47931
3.44066
3.40348
3.3677
3.33326
3.30016
3.26835
3.23781
3.20852
3.18044
3.15355
3.12781
3.10317
3.0796
3.05704
3.03545
3.01477
2.99495
2.97596
2.95773
2.94023
2.92341
2.90724
2.89167
2.87667
2.86221
2.84827
2.8348
2.82179
2.80921
2.79703
2.78524
3.51944
3.47931
3.44064
3.40345
3.36764
3.33315
3.29995
3.26797
3.23718
3.20753
3.17899
3.15152
3.12508
3.09964
3.07516
3.05161
3.02896
3.00716
2.98618
2.96598
2.94653
2.9278
2.90975
2.89234
2.87556
2.85936
2.84373
2.82863
2.81404
2.79993
2.78629
2.77309
2.76031
3.51944
3.4793
3.44063
3.40343
3.36761
3.3331
3.29987
3.26785
3.23698
3.20723
3.17853
3.15087
3.12418
3.09844
3.07362
3.04966
3.02655
3.00426
2.98274
2.96197
2.94191
2.92255
2.90385
2.88578
2.86832
2.85145
2.83513
2.81935
2.80408
2.78931
2.775
2.76115
2.74773
3.51944
3.4793
3.44063
3.40341
3.36758
3.33307
3.29982
3.26778
3.23689
3.2071
3.17836
3.15063
3.12386
3.09801
3.07305
3.04894
3.02564
3.00313
2.98138
2.96035
2.94002
2.92035
2.90133
2.88294
2.86513
2.8479
2.83122
2.81507
2.79942
2.78427
2.76959
2.75535
2.74156
3.51944
3.4793
3.44062
3.4034
3.36756
3.33304
3.29979
3.26774
3.23684
3.20703
3.17827
3.15051
3.12371
3.09783
3.07282
3.04865
3.02529
3.00271
2.98087
2.95974
2.93929
2.91951
2.90035
2.88181
2.86385
2.84646
2.82961
2.81328
2.79745
2.78211
2.76723
2.75281
2.73881
3.51944
3.4793
3.44061
3.40339
3.36754
3.33302
3.29976
3.2677
3.23679
3.20698
3.17821
3.15044
3.12362
3.09772
3.07269
3.0485
3.02512
3.0025
2.98062
2.95945
2.93896
2.91912
2.89991
2.8813
2.86327
2.84581
2.82887
2.81246
2.79655
2.78111
2.76614
2.75161
2.73751
3.51944
3.47929
3.44061
3.40338
3.36753
3.333
3.29974
3.26767
3.23675
3.20693
3.17816
3.15038
3.12355
3.09764
3.07261
3.0484
3.02501
3.00237
2.98048
2.95929
2.93878
2.91892
2.89969
2.88106
2.863
2.84551
2.82854
2.8121
2.79615
2.78067
2.76566
2.75109
2.73695
3.51944
3.47929
3.44061
3.40337
3.36752
3.33299
3.29972
3.26765
3.23672
3.2069
3.17811
3.15033
3.1235
3.09758
3.07253
3.04832
3.02492
3.00228
2.98037
2.95917
2.93865
2.91878
2.89954
2.88089
2.86282
2.84531
2.82833
2.81187
2.7959
2.7804
2.76537
2.75078
2.73661
3.51944
3.47929
3.44061
3.40337
3.36752
3.33298
3.2997
3.26763
3.2367
3.20686
3.17807
3.15028
3.12345
3.09752
3.07247
3.04826
3.02484
3.00219
2.98028
2.95908
2.93855
2.91867
2.89942
2.88077
2.86269
2.84517
2.82818
2.81171
2.79573
2.78023
2.76519
2.75059
2.73641
3.51944
3.47929
3.4406
3.40337
3.36751
3.33297
3.29969
3.26761
3.23668
3.20684
3.17804
3.15025
3.1234
3.09747
3.07242
3.0482
3.02478
3.00212
2.98021
2.959
2.93846
2.91858
2.89932
2.88066
2.86258
2.84505
2.82806
2.81158
2.79559
2.78009
2.76504
2.75043
2.73625
3.51944
3.47929
3.4406
3.40336
3.36751
3.33296
3.29968
3.2676
3.23666
3.20682
3.17802
3.15022
3.12337
3.09743
3.07237
3.04815
3.02472
3.00206
2.98014
2.95892
2.93839
2.9185
2.89923
2.88057
2.86248
2.84495
2.82795
2.81147
2.79548
2.77997
2.76491
2.7503
2.73611
3.51944
3.47929
3.4406
3.40336
3.3675
3.33296
3.29967
3.26759
3.23665
3.2068
3.178
3.15019
3.12334
3.0974
3.07233
3.0481
3.02467
3.00201
2.98008
2.95886
2.93832
2.91843
2.89916
2.88049
2.8624
2.84487
2.82786
2.81138
2.79538
2.77986
2.76481
2.75019
2.736
3.51944
3.47929
3.4406
3.40336
3.3675
3.33295
3.29967
3.26758
3.23664
3.20678
3.17798
3.15017
3.12331
3.09737
3.0723
3.04807
3.02463
3.00197
2.98004
2.95881
2.93827
2.91837
2.8991
2.88043
2.86233
2.84479
2.82778
2.81129
2.79529
2.77977
2.76471
2.75009
2.7359
3.51944
3.47929
3.4406
3.40336
3.3675
3.33295
3.29966
3.26757
3.23663
3.20678
3.17797
3.15016
3.1233
3.09735
3.07228
3.04804
3.02461
3.00194
2.98001
2.95878
2.93823
2.91833
2.89906
2.88038
2.86228
2.84474
2.82773
2.81124
2.79524
2.77972
2.76465
2.75003
2.73583
3.51944
3.47929
3.4406
3.40336
3.3675
3.33295
3.29966
3.26757
3.23662
3.20677
3.17796
3.15015
3.12329
3.09734
3.07227
3.04803
3.02459
3.00192
2.97998
2.95875
2.9382
2.9183
2.89902
2.88034
2.86224
2.84469
2.82768
2.81118
2.79518
2.77965
2.76459
2.74996
2.73576
3.51944
3.47929
3.4406
3.40336
3.3675
3.33295
3.29966
3.26757
3.23662
3.20677
3.17796
3.15014
3.12328
3.09733
3.07226
3.04802
3.02458
3.00191
2.97998
2.95875
2.93819
2.91829
2.89902
2.88034
2.86224
2.84469
2.82768
2.81119
2.79518
2.77966
2.76459
2.74996
2.73577
3.51944
3.47929
3.4406
3.40336
3.3675
3.33295
3.29966
3.26757
3.23662
3.20677
3.17796
3.15014
3.12328
3.09733
3.07226
3.04801
3.02457
3.0019
2.97996
2.95873
2.93818
2.91827
2.89899
2.88031
2.86221
2.84466
2.82764
2.81114
2.79514
2.77961
2.76454
2.74991
2.73571
3.51944
3.47929
3.4406
3.40336
3.3675
3.33295
3.29966
3.26757
3.23663
3.20678
3.17797
3.15016
3.1233
3.09735
3.07228
3.04804
3.02461
3.00194
2.98001
2.95878
2.93823
2.91833
2.89906
2.88038
2.86228
2.84474
2.82773
2.81123
2.79523
2.77971
2.76464
2.75001
2.73581
3.51944
3.47929
3.4406
3.40336
3.3675
3.33296
3.29967
3.26758
3.23663
3.20678
3.17797
3.15016
3.1233
3.09735
3.07227
3.04803
3.02459
3.00192
2.97999
2.95875
2.9382
2.9183
2.89902
2.88034
2.86224
2.8447
2.82769
2.81119
2.79519
2.77967
2.76461
2.74998
2.73579
3.51944
3.47929
3.4406
3.40336
3.3675
3.33296
3.29968
3.26759
3.23666
3.20681
3.17802
3.15022
3.12337
3.09744
3.07238
3.04815
3.02473
3.00207
2.98015
2.95894
2.9384
2.91852
2.89925
2.88059
2.86251
2.84498
2.82799
2.81151
2.79553
2.78002
2.76498
2.75037
2.7362
3.51944
3.47929
3.4406
3.40337
3.36751
3.33297
3.29968
3.2676
3.23666
3.20681
3.178
3.1502
3.12335
3.09742
3.07236
3.04814
3.02472
3.00208
2.98018
2.95898
2.93847
2.91861
2.89938
2.88075
2.86271
2.84522
2.82827
2.81184
2.79591
2.78046
2.76547
2.75093
2.73681
3.51944
3.47929
3.44061
3.40337
3.36753
3.333
3.29975
3.26771
3.23682
3.20703
3.17829
3.15055
3.12378
3.09793
3.07296
3.04883
3.02551
3.00298
2.98118
2.96011
2.93972
2.92
2.9009
2.88242
2.86453
2.8472
2.83042
2.81415
2.79839
2.78311
2.7683
2.75394
2.74
3.51944
3.47929
3.44061
3.40338
3.36754
3.33305
3.29985
3.26787
3.23707
3.2074
3.1788
3.15124
3.12468
3.09906
3.07436
3.05054
3.02756
3.00539
2.98399
2.96333
2.94338
2.92411
2.9055
2.88751
2.87013
2.85332
2.83707
2.82135
2.80613
2.79141
2.77715
2.76335
2.74997
3.51943
3.4793
3.44066
3.40356
3.36794
3.33374
3.30092
3.26945
3.23927
3.21034
3.18261
3.15603
3.13055
3.10613
3.08271
3.06025
3.03869
3.018
2.99812
2.97902
2.96065
2.94298
2.92596
2.90957
2.89378
2.87855
2.86385
2.84966
2.83596
2.82272
2.80992
2.79753
2.78555
3.51942
3.47942
3.4412
3.4049
3.37061
3.33828
3.30787
3.27931
3.25251
3.22735
3.20374
3.18153
3.16063
3.14093
3.12231
3.1047
3.08799
3.07211
3.05699
3.04257
3.02878
3.01558
3.00292
2.99077
2.97909
2.96783
2.95698
2.94651
2.93639
2.9266
2.91712
2.90793
2.89902
3.5196
3.48203
3.4494
3.42177
3.39875
3.37983
3.36442
3.35191
3.34178
3.33354
3.32681
3.32126
3.31662
3.31268
3.30926
3.30623
3.30346
3.30087
3.29841
3.296
3.29362
3.29123
3.28881
3.28634
3.28382
3.28124
3.27859
3.27587
3.27309
3.27024
3.26733
3.26436
3.26135
3.53049
3.53942
3.57109
3.61695
3.67052
3.72753
3.78534
3.84241
3.89782
3.951
4.00161
4.0495
4.09463
4.13704
4.17681
4.21406
4.24892
4.28151
4.31198
4.34045
4.36707
4.39194
4.41519
4.43694
4.45727
4.4763
4.49411
4.51078
4.52639
4.54103
4.55475
4.56763
4.57975
4.00122
4.78106
5.43755
6.00229
6.50073
6.94822
7.35501
7.72858
8.07457
8.39729
8.70008
8.9856
9.256
9.51301
9.75807
9.99236
10.2169
10.4324
10.6398
10.8395
11.0321
11.2181
11.3978
11.5716
11.7399
11.9029
12.0609
12.2141
12.3627
12.507
12.6471
12.7832
12.9159
31.176
33.6247
36.0474
38.4445
40.8147
43.1561
45.4659
47.7407
49.9772
52.1722
54.323
56.4269
58.4817
60.4855
62.4367
64.3341
66.1767
67.964
69.6956
71.3714
72.9915
74.5563
76.0663
77.5223
78.9251
80.2756
81.575
82.8243
84.0249
85.1779
86.2848
87.3473
88.3743
437.056
505.772
598.183
699.832
791.747
861.35
904.451
922.626
920.826
905.025
880.49
850.984
819.013
786.153
753.34
721.179
689.817
659.41
629.73
600.717
572.48
545.208
519.078
494.2
470.618
448.347
427.406
407.816
389.568
372.617
356.887
342.297
328.78
316.269
304.694
293.974
284.028
274.777
266.146
258.063
250.459
243.267
236.425
229.879
223.574
217.464
211.505
205.659
199.892
194.178
188.492
182.817
177.138
171.447
165.739
160.012
154.271
148.52
142.768
137.027
131.311
125.635
120.015
114.469
109.015
103.673
98.4597
93.3929
88.4891
83.7631
79.2281
74.8956
70.7748
66.8724
63.1932
59.7392
56.5103
53.5038
50.7147
48.1355
45.7571
43.5689
41.5597
39.7175
38.0302
36.4857
35.0714
33.7754
32.5857
31.4906
30.4792
29.5407
28.6656
27.844
27.0699
26.3341
25.6426
24.9826
24.4038
23.7684
95.1663
100.433
110.608
127.821
152.598
183.944
219.921
257.845
294.876
328.656
357.598
380.897
398.428
410.57
418.002
421.53
421.84
419.478
415.043
408.928
401.443
392.871
383.468
373.451
363.001
352.278
341.435
330.616
319.945
309.515
299.385
289.599
280.188
271.172
262.562
254.354
246.535
239.082
231.97
225.17
218.65
212.379
206.322
200.449
194.728
189.132
183.635
178.214
172.849
167.523
162.225
156.943
151.672
146.409
141.152
135.905
130.672
125.459
120.277
115.135
110.046
105.022
100.079
95.2299
90.4907
85.8759
81.3997
77.0754
72.915
68.9291
65.1265
61.5143
58.0974
54.8792
51.8608
49.0416
46.4192
43.9893
41.7458
39.6812
37.7863
36.0514
34.466
33.0196
31.7015
30.5008
29.4071
28.4098
27.4989
26.6646
25.8974
25.1883
24.5292
23.9118
23.331
22.7791
22.2613
21.7672
21.3373
20.8716
20.2129
20.6073
21.3102
22.6331
24.9492
28.6568
33.9846
41.1076
50.1213
61.0148
73.5856
87.479
102.245
117.399
132.476
147.062
160.809
173.328
184.461
194.136
202.326
209.043
214.328
218.241
220.857
222.269
222.59
221.948
220.476
218.302
215.542
212.303
208.685
204.777
200.655
196.385
192.016
187.591
183.138
178.681
174.234
169.806
165.4
161.019
156.659
152.317
147.989
143.669
139.354
135.038
130.72
126.397
122.07
117.741
113.412
109.089
104.779
100.489
96.2286
92.0085
87.8402
83.7359
79.7082
75.7699
71.9336
68.2114
64.6145
61.1531
57.8361
54.6709
51.6633
48.8176
46.1364
43.6209
41.2707
39.084
37.0576
35.1872
33.4671
31.8906
30.4499
29.1367
27.9424
26.8582
25.8754
24.9853
24.1793
23.449
22.7862
22.183
21.6317
21.1251
20.6565
20.219
19.8087
19.419
19.0545
18.7069
18.4087
18.0927
8.62701
8.68177
8.7515
8.86001
9.04345
9.35933
9.881
10.6901
11.881
13.5
15.6215
18.3291
21.6942
25.7702
30.5866
36.1425
42.3963
49.2494
56.5402
64.1227
71.8431
79.5403
87.0527
94.2253
100.919
107.018
112.438
117.128
121.069
124.263
126.734
128.521
129.674
130.25
130.311
129.918
129.129
127.999
126.576
124.903
123.018
120.952
118.732
116.38
113.912
111.343
108.685
105.946
103.134
100.257
97.3209
94.3312
91.295
88.2194
85.1121
81.9816
78.8374
75.6896
72.5487
69.4262
66.3336
63.2827
60.2854
57.353
54.4965
51.7261
49.0512
46.4799
44.0191
41.6745
39.4504
37.3498
35.3745
33.5251
31.8009
30.2004
28.7209
27.359
26.1103
24.9698
23.9315
22.9892
22.1364
21.3667
20.6733
20.0497
19.4895
18.9864
18.5339
18.1262
17.7572
17.4212
17.1131
16.8274
16.561
16.3086
16.0741
15.8508
15.6641
15.4754
5.60583
5.61695
5.62974
5.6458
5.66847
5.70375
5.76192
5.85743
6.00905
6.23762
6.56254
7.00476
7.591
8.35154
9.31953
10.5303
12.0193
13.819
15.9438
18.4076
21.2145
24.3554
27.8056
31.5224
35.4464
39.5045
43.6151
47.6938
51.6589
55.4356
58.9594
62.179
65.0575
67.5725
69.7146
71.4854
72.8951
73.96
74.701
75.1408
75.3033
75.2122
74.8901
74.3584
73.6364
72.7418
71.6906
70.4968
69.1735
67.7325
66.1847
64.5408
62.811
61.0056
59.1349
57.2094
55.24
53.2375
51.2131
49.1779
47.1432
45.1198
43.1186
41.1497
39.2227
37.3465
35.5291
33.7775
32.0976
30.4944
28.9716
27.5321
26.1777
24.9093
23.727
22.6301
21.6172
20.6862
19.8344
19.0586
18.355
17.7195
17.1476
16.6351
16.1774
15.77
15.4083
15.0878
14.8042
14.5529
14.3296
14.13
13.9502
13.786
13.635
13.493
13.3635
13.2407
13.1441
13.0582
4.32911
4.32998
4.33076
4.33163
4.33291
4.33543
4.34058
4.35067
4.36919
4.40085
4.45139
4.52643
4.63351
4.78107
4.97876
5.23759
5.56988
5.98916
6.50785
7.13861
7.89454
8.78825
9.83068
11.0298
12.3892
13.907
15.5749
17.3777
19.294
21.2958
23.3507
25.4232
27.4768
29.4764
31.3896
33.1885
34.8499
36.3563
37.6951
38.8591
39.8449
40.6528
41.2859
41.7494
42.05
42.1951
42.1929
42.0518
41.7802
41.3866
40.8795
40.2674
39.5588
38.7626
37.8876
36.9427
35.9373
34.8806
33.7822
32.6513
31.4975
30.3298
29.1573
27.9885
26.8315
25.6936
24.5817
23.5019
22.4593
21.4586
20.5032
19.5962
18.7398
17.9354
17.184
16.4858
15.8408
15.2481
14.7067
14.215
13.7709
13.3723
13.0165
12.701
12.423
12.1797
11.9682
11.7855
11.6288
11.4948
11.3806
11.2831
11.1994
11.1264
11.0623
11.004
10.954
10.9079
10.8797
10.872
3.65947
3.65643
3.65283
3.64897
3.64472
3.64019
3.63564
3.63147
3.62851
3.62777
3.63064
3.63876
3.65423
3.67962
3.71796
3.7728
3.84816
3.9486
4.07892
4.2437
4.44814
4.69755
4.99732
5.35269
5.76851
6.24894
6.79715
7.41493
8.10239
8.85757
9.67621
10.5517
11.4749
12.4351
13.4196
14.4146
15.4059
16.3793
17.3212
18.2191
19.062
19.8404
20.5466
21.1747
21.7205
22.1812
22.5554
22.8428
23.0442
23.161
23.1956
23.1511
23.0309
22.8392
22.5805
22.26
21.8831
21.4556
20.9835
20.4733
19.9311
19.3636
18.777
18.1776
17.5714
16.964
16.3607
15.7662
15.185
14.6209
14.0771
13.5564
13.0613
12.5934
12.1542
11.7449
11.3659
11.0176
10.6999
10.4125
10.1546
9.92529
9.72346
9.54779
9.39683
9.26904
9.16276
9.07623
9.00756
8.95481
8.91594
8.8888
8.8714
8.86144
8.85767
8.85761
8.86339
8.87134
8.89105
8.93779
3.27351
3.26749
3.26101
3.25423
3.24712
3.23969
3.23199
3.22409
3.2161
3.20827
3.20093
3.19453
3.18969
3.1872
3.18803
3.19339
3.20469
3.22358
3.25191
3.29155
3.34454
3.41301
3.49926
3.60554
3.73401
3.88672
4.06552
4.27202
4.50747
4.77271
5.06804
5.39313
5.74697
6.12778
6.53303
6.95945
7.40307
7.85933
8.32319
8.78925
9.25196
9.70574
10.1451
10.565
10.9606
11.3276
11.6622
11.9612
12.222
12.4426
12.6216
12.7581
12.8518
12.903
12.9125
12.8816
12.8122
12.7065
12.5672
12.3972
12.1998
11.9784
11.7368
11.4785
11.2072
10.9266
10.6403
10.3514
10.0631
9.77822
9.49937
9.22884
8.96866
8.72055
8.48603
8.2663
8.06238
7.875
7.70469
7.55171
7.41614
7.29784
7.19649
7.11166
7.04276
6.98907
6.94978
6.92394
6.91049
6.90823
6.91588
6.93203
6.95531
6.98411
7.01754
7.05371
7.09425
7.13618
7.18562
7.26555
3.04175
3.03305
3.02408
3.01485
3.00543
2.99579
2.98592
2.97582
2.96549
2.95499
2.94441
2.93391
2.92365
2.91385
2.9048
2.89689
2.89062
2.88656
2.88543
2.88807
2.89529
2.90802
2.92727
2.95406
2.98941
3.03432
3.08971
3.15643
3.23517
3.3267
3.43148
3.54974
3.68152
3.8266
3.98455
4.1547
4.33612
4.52763
4.72779
4.93495
5.14727
5.36272
5.57917
5.79438
6.00608
6.21202
6.40996
6.59776
6.7734
6.93502
7.08092
7.20966
7.32
7.41101
7.48202
7.53268
7.56293
7.57303
7.56356
7.53535
7.48952
7.42741
7.35058
7.26071
7.15964
7.04926
6.93149
6.80826
6.68143
6.55281
6.42411
6.29693
6.17275
6.05292
5.93866
5.83105
5.73106
5.63948
5.557
5.48414
5.42128
5.36866
5.32641
5.29454
5.27293
5.26139
5.25959
5.26711
5.28341
5.30782
5.33959
5.37782
5.42163
5.46989
5.522
5.57654
5.63474
5.69415
5.75834
5.85373
2.90223
2.89105
2.87974
2.86829
2.85673
2.84506
2.83326
2.82131
2.80922
2.79699
2.78464
2.7722
2.75971
2.74724
2.73489
2.72278
2.71107
2.69996
2.6897
2.6806
2.67299
2.66727
2.66389
2.6633
2.66602
2.67255
2.68338
2.69899
2.71982
2.74626
2.77866
2.81724
2.86218
2.91349
2.97128
3.03542
3.10566
3.18167
3.26299
3.3491
3.43936
3.53308
3.62948
3.72772
3.82691
3.92611
4.02437
4.12069
4.21412
4.30366
4.38838
4.46736
4.53978
4.60485
4.66191
4.7104
4.74988
4.78007
4.80082
4.81215
4.81423
4.80738
4.79207
4.7689
4.73858
4.70192
4.65982
4.6132
4.56304
4.51033
4.45604
4.40114
4.34655
4.29318
4.24187
4.19341
4.14854
4.10794
4.0722
4.04184
4.0173
3.99894
3.98704
3.9818
3.98335
3.99173
4.0069
4.02874
4.05702
4.09143
4.13154
4.17683
4.22676
4.28055
4.33785
4.39758
4.46066
4.52509
4.59268
4.69
2.81924
2.80595
2.79261
2.77922
2.76578
2.75229
2.73877
2.72518
2.71152
2.69778
2.68396
2.67007
2.65612
2.64214
2.62814
2.61416
2.60025
2.58647
2.57291
2.55969
2.54692
2.53476
2.52339
2.513
2.50382
2.49608
2.49004
2.48595
2.48407
2.48464
2.48787
2.49396
2.50307
2.51531
2.53074
2.54938
2.57126
2.59634
2.62448
2.6555
2.68918
2.72523
2.76336
2.80322
2.84445
2.88665
2.92941
2.97232
3.01493
3.05679
3.09747
3.13652
3.17351
3.20802
3.23965
3.26805
3.2929
3.31393
3.33093
3.34376
3.35233
3.35666
3.35681
3.35295
3.34529
3.33413
3.31982
3.30277
3.28343
3.26227
3.2398
3.21655
3.19305
3.16983
3.14741
3.12631
3.10704
3.09008
3.07587
3.06484
3.05737
3.0538
3.05443
3.0595
3.06922
3.08375
3.10317
3.12753
3.15678
3.19081
3.22943
3.27234
3.31924
3.36966
3.42336
3.47957
3.53898
3.59995
3.66322
3.75322
2.77193
2.75693
2.74194
2.72695
2.71195
2.69695
2.68195
2.66693
2.65191
2.63685
2.62178
2.60667
2.59153
2.57637
2.5612
2.54602
2.53084
2.5157
2.50061
2.4856
2.47073
2.45603
2.44157
2.42743
2.41371
2.40049
2.38789
2.37604
2.36506
2.35508
2.34623
2.33864
2.33242
2.32767
2.32448
2.32291
2.32302
2.32485
2.32839
2.3336
2.3404
2.3487
2.35838
2.3693
2.38131
2.39422
2.40786
2.42203
2.43654
2.45117
2.46572
2.47998
2.49373
2.50678
2.51891
2.52995
2.53971
2.54805
2.5548
2.55988
2.56318
2.56466
2.5643
2.56212
2.55818
2.55256
2.5454
2.53686
2.52714
2.51646
2.50506
2.49323
2.48123
2.46938
2.45797
2.44733
2.43777
2.42962
2.42318
2.41876
2.41666
2.41715
2.42049
2.42691
2.43663
2.44983
2.46666
2.48722
2.51157
2.53971
2.5716
2.60711
2.64609
2.68824
2.73348
2.78124
2.83205
2.88457
2.93898
3.01618
2.74589
2.72965
2.71343
2.69723
2.68105
2.66489
2.64874
2.63261
2.61648
2.60036
2.58425
2.56813
2.552
2.53588
2.51976
2.50364
2.48753
2.47144
2.45536
2.43932
2.42332
2.40738
2.39151
2.37574
2.36011
2.34464
2.32939
2.3144
2.29972
2.28543
2.27157
2.25822
2.24547
2.23338
2.22202
2.21145
2.20171
2.19284
2.18487
2.1778
2.17164
2.16636
2.16193
2.1583
2.15542
2.1532
2.15158
2.15045
2.14974
2.14935
2.14916
2.14909
2.14902
2.14886
2.14852
2.14788
2.14687
2.1454
2.14339
2.14078
2.13752
2.13356
2.12888
2.12348
2.11736
2.11055
2.10309
2.09507
2.08655
2.07765
2.06848
2.05919
2.04991
2.04082
2.03209
2.02391
2.01647
2.00999
2.00466
2.00069
1.9983
1.9977
1.99909
2.00267
2.00863
2.01714
2.02837
2.04244
2.05947
2.07951
2.1026
2.12872
2.15782
2.18975
2.22449
2.26166
2.30168
2.34344
2.38695
2.44889
2.73258
2.7155
2.69845
2.68142
2.66441
2.64741
2.63043
2.61347
2.59653
2.5796
2.56269
2.54579
2.5289
2.51202
2.49516
2.47831
2.46148
2.44467
2.42788
2.41112
2.39437
2.37766
2.36098
2.34433
2.32774
2.3112
2.29473
2.27835
2.26207
2.24593
2.22995
2.21417
2.19862
2.18336
2.16844
2.15389
2.13974
2.126
2.11272
2.09991
2.08757
2.07573
2.06437
2.05349
2.04308
2.0331
2.02353
2.01434
2.00548
1.99692
1.98861
1.98049
1.97252
1.96466
1.95684
1.94904
1.94119
1.93326
1.9252
1.917
1.90861
1.90001
1.8912
1.88215
1.87288
1.86338
1.85369
1.84382
1.83383
1.82375
1.81364
1.80359
1.79366
1.78396
1.77457
1.76561
1.75719
1.74944
1.74251
1.73651
1.73162
1.72796
1.72571
1.72501
1.72603
1.72891
1.7338
1.74085
1.75016
1.76184
1.77596
1.79256
1.81167
1.83323
1.85728
1.88355
1.91242
1.94295
1.97521
2.02151
2.72596
2.70839
2.69082
2.67326
2.65571
2.63818
2.62065
2.60314
2.58565
2.56817
2.5507
2.53325
2.51581
2.49838
2.48098
2.46359
2.44622
2.42887
2.41154
2.39424
2.37696
2.35971
2.34247
2.32527
2.30809
2.29094
2.27382
2.25673
2.23968
2.2227
2.20579
2.18897
2.17225
2.15565
2.1392
2.12292
2.10682
2.09092
2.07524
2.0598
2.0446
2.02967
2.015
2.00061
1.98649
1.97263
1.95904
1.9457
1.9326
1.91972
1.90705
1.89456
1.88223
1.87004
1.85797
1.84599
1.83409
1.82224
1.81042
1.79862
1.78682
1.77501
1.76318
1.75134
1.73947
1.72758
1.71568
1.70379
1.69192
1.6801
1.66836
1.65673
1.64526
1.634
1.62301
1.61234
1.60207
1.59227
1.58304
1.57445
1.56661
1.55962
1.5536
1.54866
1.54492
1.54251
1.54155
1.54217
1.54448
1.5486
1.55461
1.5626
1.57263
1.58469
1.59888
1.61502
1.63345
1.65336
1.67508
1.7066
2.72298
2.70512
2.68726
2.6694
2.65155
2.63369
2.61584
2.59799
2.58015
2.56232
2.5445
2.52668
2.50888
2.49109
2.47331
2.45555
2.4378
2.42008
2.40237
2.38469
2.36703
2.3494
2.33178
2.31419
2.29662
2.27907
2.26154
2.24404
2.22655
2.20909
2.19167
2.17431
2.15701
2.13979
2.12265
2.1056
2.08864
2.07179
2.05505
2.03844
2.02196
2.00562
1.98944
1.9734
1.95753
1.94182
1.92627
1.91089
1.89566
1.88059
1.86568
1.85091
1.83627
1.82177
1.80738
1.79311
1.77893
1.76484
1.75084
1.73691
1.72305
1.70925
1.69551
1.68183
1.6682
1.65463
1.64112
1.62767
1.61431
1.60103
1.58786
1.57482
1.56192
1.54919
1.53667
1.52439
1.51239
1.50071
1.48941
1.47854
1.46816
1.45835
1.44918
1.44073
1.43308
1.42634
1.42061
1.41597
1.41255
1.41043
1.40972
1.4105
1.41286
1.41685
1.42256
1.42989
1.43917
1.44968
1.46208
1.48032
2.72156
2.70356
2.68555
2.66753
2.64951
2.63148
2.61344
2.5954
2.57737
2.55933
2.5413
2.52327
2.50524
2.48723
2.46922
2.45122
2.43324
2.41527
2.39732
2.37938
2.36147
2.34357
2.3257
2.30785
2.29001
2.2722
2.2544
2.23663
2.2189
2.20119
2.18351
2.16588
2.14829
2.13075
2.11326
2.09584
2.07847
2.06118
2.04396
2.02681
2.00975
1.99278
1.9759
1.95912
1.94244
1.92586
1.9094
1.89304
1.87679
1.86066
1.84464
1.82873
1.81293
1.79724
1.78166
1.76618
1.75079
1.73551
1.72031
1.7052
1.69018
1.67525
1.66039
1.64562
1.63092
1.61631
1.60178
1.58733
1.57297
1.55871
1.54455
1.5305
1.51657
1.50278
1.48914
1.47567
1.46239
1.44933
1.43651
1.42397
1.41175
1.39988
1.38842
1.37742
1.36693
1.35703
1.34778
1.33925
1.33154
1.32471
1.31886
1.31407
1.31043
1.308
1.30688
1.30701
1.30873
1.31135
1.31599
1.32274
2.72094
2.70288
2.68479
2.6667
2.64859
2.63047
2.61234
2.59421
2.57607
2.55793
2.53978
2.52163
2.50349
2.48534
2.4672
2.44907
2.43094
2.41283
2.39472
2.37663
2.35856
2.3405
2.32246
2.30444
2.28644
2.26845
2.25048
2.23253
2.2146
2.1967
2.17885
2.16103
2.14327
2.12555
2.10787
2.09025
2.07268
2.05517
2.03772
2.02033
2.003
1.98573
1.96854
1.95142
1.93437
1.9174
1.90052
1.88371
1.867
1.85036
1.83382
1.81737
1.80101
1.78474
1.76856
1.75247
1.73648
1.72058
1.70476
1.68904
1.6734
1.65785
1.64239
1.62702
1.61173
1.59652
1.5814
1.56637
1.55142
1.53656
1.5218
1.50713
1.49256
1.4781
1.46375
1.44952
1.43542
1.42147
1.40768
1.39406
1.38064
1.36745
1.35451
1.34184
1.3295
1.31751
1.30592
1.29479
1.28416
1.2741
1.26467
1.25593
1.24796
1.24082
1.23461
1.22927
1.22516
1.22157
1.2201
1.21739
2.72058
2.70248
2.68436
2.66623
2.64808
2.62992
2.61175
2.59356
2.57537
2.55717
2.53897
2.52076
2.50255
2.48434
2.46613
2.44792
2.42972
2.41152
2.39334
2.37516
2.35699
2.33884
2.3207
2.30258
2.28447
2.26638
2.2483
2.23026
2.21224
2.19425
2.17629
2.15838
2.1405
2.12267
2.10489
2.08715
2.06946
2.05183
2.03425
2.01672
1.99925
1.98184
1.96449
1.94721
1.92999
1.91283
1.89575
1.87873
1.8618
1.84493
1.82814
1.81144
1.79481
1.77826
1.7618
1.74542
1.72913
1.71293
1.69681
1.68077
1.66482
1.64896
1.63319
1.6175
1.6019
1.58638
1.57094
1.55559
1.54032
1.52513
1.51003
1.49501
1.48008
1.46523
1.45048
1.43581
1.42124
1.40677
1.39241
1.37817
1.36406
1.35009
1.33627
1.32263
1.30918
1.29594
1.28294
1.27022
1.25779
1.24571
1.234
1.22272
1.21191
1.20162
1.19193
1.18279
1.17454
1.16643
1.16053
1.15051
2.72037
2.70226
2.68412
2.66597
2.6478
2.62962
2.61143
2.59322
2.57501
2.55678
2.53855
2.52031
2.50207
2.48383
2.46558
2.44734
2.4291
2.41086
2.39263
2.3744
2.35619
2.33798
2.31979
2.30161
2.28344
2.26529
2.24715
2.22903
2.21093
2.19288
2.17485
2.15687
2.13893
2.12103
2.10318
2.08538
2.06762
2.04991
2.03226
2.01466
1.99711
1.97963
1.9622
1.94483
1.92752
1.91028
1.8931
1.87598
1.85894
1.84197
1.82507
1.80824
1.79149
1.77481
1.75822
1.74171
1.72527
1.70892
1.69266
1.67647
1.66038
1.64436
1.62843
1.61259
1.59683
1.58116
1.56556
1.55005
1.53462
1.51926
1.50399
1.48879
1.47367
1.45862
1.44365
1.42876
1.41394
1.3992
1.38454
1.36997
1.35548
1.34109
1.32681
1.31263
1.29858
1.28466
1.27088
1.25726
1.24383
1.23058
1.21756
1.20478
1.19228
1.18008
1.16824
1.15669
1.14578
1.13467
1.12586
1.11065
2.7202
2.70207
2.68393
2.66576
2.64759
2.62939
2.61119
2.59297
2.57474
2.5565
2.53826
2.52001
2.50175
2.48349
2.46522
2.44696
2.4287
2.41044
2.39218
2.37394
2.3557
2.33746
2.31924
2.30103
2.28283
2.26464
2.24647
2.22833
2.21021
2.19212
2.17407
2.15605
2.13807
2.12013
2.10224
2.08439
2.06659
2.04884
2.03114
2.01349
1.9959
1.97836
1.96089
1.94347
1.92611
1.90881
1.89158
1.87442
1.85732
1.84029
1.82333
1.80644
1.78963
1.7729
1.75624
1.73966
1.72317
1.70675
1.69042
1.67417
1.658
1.64192
1.62592
1.61001
1.59418
1.57843
1.56277
1.54719
1.53168
1.51625
1.5009
1.48562
1.47042
1.45528
1.44021
1.42521
1.41028
1.39542
1.38062
1.36589
1.35123
1.33664
1.32213
1.3077
1.29334
1.27908
1.26491
1.25084
1.23688
1.22304
1.20932
1.19574
1.18232
1.16905
1.156
1.14307
1.1306
1.11769
1.10715
1.08861
2.72006
2.70193
2.68377
2.66561
2.64742
2.62922
2.61101
2.59279
2.57455
2.55631
2.53805
2.51979
2.50153
2.48326
2.46499
2.44672
2.42844
2.41017
2.39191
2.37365
2.35539
2.33715
2.31891
2.30068
2.28246
2.26425
2.24606
2.2279
2.20976
2.19165
2.17358
2.15554
2.13754
2.11958
2.10166
2.08378
2.06596
2.04818
2.03045
2.01278
1.99515
1.97759
1.96008
1.94263
1.92525
1.90792
1.89066
1.87347
1.85634
1.83928
1.82229
1.80538
1.78854
1.77178
1.75509
1.73849
1.72196
1.70552
1.68916
1.67288
1.65669
1.64059
1.62456
1.60863
1.59278
1.57701
1.56132
1.54572
1.53019
1.51475
1.49937
1.48407
1.46885
1.45369
1.43859
1.42356
1.4086
1.3937
1.37885
1.36407
1.34935
1.33469
1.32009
1.30556
1.29109
1.27669
1.26235
1.24808
1.23388
1.21976
1.20571
1.19174
1.17786
1.16406
1.15039
1.13674
1.12344
1.10954
1.09809
1.07761
2.71994
2.7018
2.68365
2.66547
2.64728
2.62908
2.61086
2.59263
2.57439
2.55614
2.53789
2.51962
2.50135
2.48308
2.4648
2.44652
2.42824
2.40997
2.3917
2.37343
2.35517
2.33691
2.31866
2.30043
2.2822
2.26398
2.24578
2.2276
2.20946
2.19134
2.17325
2.1552
2.13719
2.11922
2.10128
2.08339
2.06555
2.04776
2.03001
2.01232
1.99468
1.97709
1.95957
1.9421
1.92469
1.90735
1.89007
1.87286
1.85572
1.83864
1.82164
1.80471
1.78786
1.77109
1.75439
1.73778
1.72124
1.7048
1.68843
1.67215
1.65596
1.63986
1.62384
1.60791
1.59206
1.5763
1.56063
1.54503
1.52952
1.51409
1.49873
1.48345
1.46824
1.4531
1.43802
1.42301
1.40807
1.39318
1.37835
1.36358
1.34887
1.33422
1.31962
1.30508
1.29059
1.27616
1.26179
1.24747
1.2332
1.21898
1.20481
1.19069
1.17662
1.16258
1.14863
1.13464
1.12095
1.10655
1.09468
1.07319
2.71983
2.70169
2.68353
2.66535
2.64716
2.62895
2.61073
2.5925
2.57425
2.556
2.53774
2.51947
2.50119
2.48292
2.46463
2.44635
2.42807
2.40979
2.39151
2.37324
2.35497
2.33671
2.31846
2.30021
2.28197
2.26376
2.24556
2.22738
2.20923
2.19111
2.17302
2.15497
2.13694
2.11896
2.10102
2.08312
2.06527
2.04746
2.0297
2.012
1.99435
1.97675
1.95921
1.94174
1.92432
1.90697
1.88968
1.87246
1.85531
1.83823
1.82122
1.80429
1.78744
1.77067
1.75397
1.73736
1.72084
1.7044
1.68804
1.67178
1.6556
1.63952
1.62352
1.60761
1.5918
1.57607
1.56042
1.54487
1.52939
1.514
1.49869
1.48345
1.46829
1.4532
1.43818