/*--------------------------------*- C++ -*----------------------------------*\
| =========                 |                                                 |
| \\      /  F ield         | OpenFOAM: The Open Source CFD Toolbox           |
|  \\    /   O peration     | Version:  4.1                                   |
|   \\  /    A nd           | Web:      www.OpenFOAM.org                      |
|    \\/     M anipulation  |                                                 |
\*---------------------------------------------------------------------------*/
FoamFile
{
    version     2.0;
    format      ascii;
    class       volScalarField;
    location    "1300";
    object      k;
}
// * * * * * * * * * * * * * * * * * * * * * * * * * * * * * * * * * * * * * //

dimensions      [0 2 -2 0 0 0 0];

internalField   nonuniform List<scalar> 
6820
(
0.241787
0.289665
0.336844
0.381951
0.423953
0.46211
0.495948
0.525265
0.550093
0.57064
0.587232
0.60026
0.610145
0.617305
0.622142
0.625026
0.626287
0.62622
0.625078
0.623081
0.620414
0.617234
0.613671
0.609833
0.605812
0.601678
0.597494
0.593307
0.589155
0.585071
0.581074
0.577259
0.574892
0.202474
0.204679
0.206995
0.209467
0.212041
0.214681
0.217362
0.220056
0.222733
0.22537
0.227954
0.230479
0.232942
0.235349
0.237707
0.240025
0.242313
0.24458
0.246837
0.249089
0.251344
0.253607
0.255883
0.258175
0.260482
0.262807
0.265146
0.2675
0.269864
0.272236
0.274614
0.276992
0.279891
0.199741
0.199215
0.198471
0.197596
0.196619
0.195573
0.194483
0.193366
0.192235
0.191099
0.18997
0.188855
0.187761
0.186695
0.185662
0.184667
0.183716
0.182812
0.181958
0.181158
0.180414
0.179725
0.179091
0.17851
0.177983
0.177509
0.177086
0.176713
0.176389
0.176112
0.175879
0.175696
0.175595
0.199153
0.198176
0.197113
0.195992
0.194809
0.193571
0.192297
0.191001
0.189694
0.188384
0.187078
0.185782
0.184501
0.183238
0.181997
0.180781
0.179591
0.178431
0.177301
0.176204
0.17514
0.17411
0.173114
0.172153
0.171225
0.170332
0.169471
0.168644
0.16785
0.167087
0.166355
0.165653
0.164982
0.198981
0.1979
0.196807
0.195699
0.194559
0.193388
0.192197
0.190994
0.189785
0.188574
0.187366
0.186167
0.184978
0.183802
0.182643
0.181503
0.180382
0.179283
0.178206
0.177153
0.176124
0.175121
0.174143
0.17319
0.172263
0.171361
0.170485
0.169633
0.168807
0.168005
0.167226
0.166471
0.165731
0.198926
0.197795
0.196678
0.195576
0.194473
0.193363
0.192249
0.191134
0.190019
0.188909
0.187806
0.186711
0.185628
0.184558
0.183504
0.182465
0.181444
0.180441
0.179457
0.178492
0.177548
0.176624
0.17572
0.174837
0.173974
0.173133
0.172312
0.171511
0.17073
0.169969
0.169228
0.168505
0.167791
0.198906
0.197755
0.196631
0.195537
0.194463
0.193399
0.192342
0.191294
0.190254
0.189222
0.188201
0.187192
0.186194
0.18521
0.184241
0.183286
0.182348
0.181426
0.180521
0.179633
0.178762
0.177909
0.177075
0.176258
0.175459
0.174677
0.173914
0.173168
0.17244
0.171729
0.171035
0.170356
0.169684
0.1989
0.19774
0.196611
0.195517
0.194452
0.193408
0.192382
0.191373
0.19038
0.189401
0.188437
0.187487
0.186552
0.185631
0.184727
0.183837
0.182964
0.182107
0.181266
0.180441
0.179633
0.178841
0.178066
0.177307
0.176564
0.175838
0.175127
0.174433
0.173754
0.173091
0.172443
0.171808
0.171178
0.198897
0.197734
0.196603
0.195508
0.194448
0.193415
0.192408
0.191424
0.19046
0.189517
0.188591
0.187683
0.186792
0.185919
0.185061
0.184221
0.183396
0.182588
0.181796
0.18102
0.18026
0.179516
0.178787
0.178074
0.177376
0.176694
0.176026
0.175373
0.174735
0.174111
0.173501
0.172903
0.17231
0.198896
0.197732
0.1966
0.195505
0.194445
0.193417
0.192417
0.191444
0.190496
0.189571
0.188668
0.187785
0.186923
0.186079
0.185254
0.184446
0.183657
0.182884
0.182128
0.181388
0.180664
0.179956
0.179264
0.178587
0.177925
0.177278
0.176645
0.176026
0.175422
0.174831
0.174253
0.173687
0.173124
0.198896
0.197731
0.196599
0.195504
0.194444
0.193417
0.192421
0.191454
0.190514
0.1896
0.18871
0.187844
0.186999
0.186175
0.185371
0.184587
0.183821
0.183073
0.182342
0.181629
0.180931
0.18025
0.179585
0.178935
0.1783
0.177679
0.177073
0.17648
0.175902
0.175336
0.174784
0.174242
0.173704
0.198896
0.19773
0.196599
0.195504
0.194444
0.193418
0.192423
0.191458
0.190521
0.189612
0.188729
0.18787
0.187035
0.186222
0.18543
0.184659
0.183908
0.183176
0.182462
0.181765
0.181086
0.180423
0.179777
0.179146
0.17853
0.177929
0.177342
0.176769
0.17621
0.175664
0.175131
0.174609
0.174091
0.198896
0.19773
0.196599
0.195504
0.194444
0.193418
0.192424
0.19146
0.190525
0.189618
0.188738
0.187884
0.187054
0.186247
0.185463
0.1847
0.183958
0.183235
0.182532
0.181847
0.181179
0.180529
0.179895
0.179277
0.178675
0.178088
0.177515
0.176956
0.176411
0.175879
0.17536
0.174852
0.174348
0.198896
0.19773
0.196599
0.195504
0.194445
0.193419
0.192425
0.191461
0.190527
0.189621
0.188743
0.18789
0.187062
0.186259
0.185478
0.184719
0.183981
0.183264
0.182567
0.181888
0.181227
0.180584
0.179958
0.179349
0.178755
0.178176
0.177612
0.177063
0.176528
0.176006
0.175496
0.174998
0.174504
0.198896
0.19773
0.196599
0.195505
0.194445
0.193419
0.192425
0.191462
0.190528
0.189623
0.188745
0.187893
0.187067
0.186265
0.185486
0.184729
0.183994
0.18328
0.182586
0.181911
0.181254
0.180616
0.179995
0.17939
0.178802
0.178229
0.177671
0.177127
0.176598
0.176082
0.17558
0.175088
0.174601
0.198896
0.19773
0.196599
0.195505
0.194446
0.19342
0.192426
0.191463
0.190529
0.189624
0.188747
0.187895
0.187069
0.186268
0.18549
0.184734
0.184
0.183288
0.182595
0.181922
0.181267
0.180631
0.180012
0.179411
0.178825
0.178255
0.177701
0.177161
0.176635
0.176123
0.175625
0.175137
0.174654
0.198896
0.19773
0.1966
0.195505
0.194446
0.19342
0.192426
0.191463
0.19053
0.189625
0.188748
0.187896
0.187071
0.18627
0.185492
0.184737
0.184004
0.183292
0.1826
0.181928
0.181275
0.18064
0.180023
0.179422
0.178838
0.17827
0.177718
0.17718
0.176657
0.176147
0.175651
0.175166
0.174686
0.198896
0.19773
0.1966
0.195505
0.194446
0.19342
0.192427
0.191464
0.19053
0.189626
0.188748
0.187897
0.187072
0.186271
0.185493
0.184739
0.184006
0.183294
0.182603
0.181931
0.181279
0.180644
0.180028
0.179428
0.178845
0.178278
0.177726
0.17719
0.176667
0.176159
0.175664
0.175181
0.174702
0.198896
0.197729
0.1966
0.195506
0.194446
0.193421
0.192427
0.191464
0.190531
0.189626
0.188749
0.187898
0.187073
0.186272
0.185494
0.18474
0.184007
0.183296
0.182605
0.181933
0.181281
0.180647
0.180031
0.179432
0.178849
0.178283
0.177732
0.177195
0.176674
0.176166
0.175672
0.17519
0.174712
0.198896
0.197729
0.1966
0.195506
0.194446
0.193421
0.192427
0.191464
0.190531
0.189627
0.188749
0.187899
0.187073
0.186272
0.185495
0.184741
0.184008
0.183297
0.182606
0.181935
0.181283
0.180649
0.180033
0.179434
0.178852
0.178285
0.177734
0.177199
0.176677
0.17617
0.175676
0.175194
0.174717
0.198896
0.197729
0.1966
0.195506
0.194447
0.193421
0.192427
0.191465
0.190532
0.189627
0.18875
0.187899
0.187074
0.186273
0.185496
0.184742
0.184009
0.183298
0.182607
0.181936
0.181284
0.18065
0.180034
0.179435
0.178853
0.178287
0.177737
0.177201
0.17668
0.176173
0.175679
0.175197
0.17472
0.198896
0.197729
0.1966
0.195506
0.194447
0.193421
0.192428
0.191465
0.190532
0.189627
0.18875
0.1879
0.187074
0.186274
0.185497
0.184742
0.18401
0.183299
0.182608
0.181937
0.181285
0.180651
0.180035
0.179437
0.178855
0.178288
0.177738
0.177202
0.176681
0.176174
0.175681
0.175199
0.174722
0.198896
0.197729
0.1966
0.195506
0.194447
0.193421
0.192428
0.191465
0.190532
0.189628
0.188751
0.1879
0.187075
0.186274
0.185497
0.184743
0.18401
0.183299
0.182608
0.181937
0.181285
0.180652
0.180036
0.179437
0.178855
0.178289
0.177739
0.177203
0.176683
0.176176
0.175682
0.1752
0.174723
0.198896
0.19773
0.1966
0.195506
0.194447
0.193421
0.192428
0.191465
0.190532
0.189628
0.188751
0.1879
0.187075
0.186274
0.185497
0.184743
0.184011
0.1833
0.182609
0.181938
0.181286
0.180652
0.180037
0.179438
0.178856
0.17829
0.17774
0.177204
0.176683
0.176176
0.175683
0.175201
0.174724
0.198896
0.197729
0.1966
0.195506
0.194447
0.193421
0.192428
0.191465
0.190532
0.189628
0.188751
0.1879
0.187075
0.186274
0.185497
0.184743
0.184011
0.1833
0.182609
0.181938
0.181286
0.180653
0.180037
0.179438
0.178856
0.17829
0.17774
0.177204
0.176683
0.176176
0.175683
0.175201
0.174724
0.198896
0.197729
0.1966
0.195506
0.194447
0.193421
0.192428
0.191465
0.190532
0.189628
0.188751
0.1879
0.187075
0.186274
0.185497
0.184743
0.184011
0.1833
0.182609
0.181938
0.181286
0.180653
0.180037
0.179438
0.178856
0.17829
0.17774
0.177204
0.176683
0.176177
0.175683
0.175201
0.174724
0.198896
0.197729
0.1966
0.195506
0.194447
0.193421
0.192428
0.191465
0.190532
0.189628
0.188751
0.1879
0.187075
0.186274
0.185497
0.184743
0.18401
0.183299
0.182608
0.181937
0.181285
0.180652
0.180036
0.179437
0.178855
0.178289
0.177738
0.177203
0.176682
0.176175
0.175681
0.175199
0.174722
0.198896
0.197729
0.1966
0.195506
0.194447
0.193421
0.192428
0.191465
0.190532
0.189628
0.188751
0.1879
0.187075
0.186274
0.185497
0.184743
0.18401
0.183299
0.182608
0.181937
0.181285
0.180652
0.180036
0.179437
0.178855
0.178289
0.177738
0.177203
0.176682
0.176175
0.175681
0.175199
0.174722
0.198896
0.197729
0.1966
0.195506
0.194447
0.193421
0.192428
0.191465
0.190532
0.189627
0.18875
0.187899
0.187074
0.186273
0.185496
0.184741
0.184009
0.183297
0.182606
0.181935
0.181283
0.180649
0.180033
0.179434
0.178852
0.178285
0.177735
0.177199
0.176678
0.176171
0.175677
0.175195
0.174718
0.198896
0.197729
0.1966
0.195506
0.194447
0.193421
0.192427
0.191465
0.190532
0.189627
0.18875
0.187899
0.187074
0.186273
0.185496
0.184742
0.184009
0.183298
0.182607
0.181936
0.181283
0.18065
0.180034
0.179435
0.178852
0.178286
0.177735
0.177199
0.176678
0.176171
0.175677
0.175195
0.174717
0.198896
0.197729
0.1966
0.195506
0.194447
0.193421
0.192427
0.191464
0.190531
0.189626
0.188749
0.187897
0.187072
0.186271
0.185493
0.184738
0.184005
0.183294
0.182602
0.181931
0.181278
0.180644
0.180028
0.179428
0.178846
0.178279
0.177728
0.177192
0.17667
0.176162
0.175668
0.175185
0.174708
0.198896
0.197729
0.1966
0.195506
0.194446
0.193421
0.192427
0.191464
0.190531
0.189627
0.18875
0.187899
0.187074
0.186273
0.185496
0.184741
0.184008
0.183297
0.182605
0.181934
0.181281
0.180646
0.18003
0.17943
0.178847
0.17828
0.177728
0.177191
0.176669
0.176161
0.175666
0.175182
0.174704
0.198896
0.19773
0.1966
0.195505
0.194446
0.19342
0.192426
0.191462
0.190528
0.189623
0.188745
0.187893
0.187067
0.186265
0.185487
0.184732
0.183998
0.183286
0.182594
0.181921
0.181267
0.180632
0.180014
0.179413
0.178829
0.178261
0.177708
0.17717
0.176646
0.176136
0.175639
0.175154
0.174674
0.198896
0.19773
0.1966
0.195506
0.194447
0.193422
0.192429
0.191467
0.190534
0.18963
0.188753
0.187901
0.187075
0.186274
0.185495
0.184739
0.184004
0.183291
0.182597
0.181923
0.181267
0.180629
0.180009
0.179405
0.178818
0.178247
0.17769
0.177149
0.176621
0.176108
0.175607
0.175118
0.174633
0.198896
0.19773
0.1966
0.195504
0.194443
0.193416
0.192421
0.191457
0.190522
0.189617
0.188738
0.187885
0.187057
0.186253
0.185472
0.184713
0.183975
0.183258
0.18256
0.181881
0.181221
0.180578
0.179952
0.179343
0.17875
0.178172
0.177609
0.177061
0.176527
0.176007
0.175499
0.175004
0.174512
0.198897
0.197733
0.196606
0.195516
0.194462
0.193441
0.19245
0.191489
0.190556
0.18965
0.18877
0.187914
0.187082
0.186273
0.185486
0.18472
0.183974
0.183248
0.182541
0.181852
0.181181
0.180527
0.17989
0.17927
0.178665
0.178075
0.1775
0.17694
0.176393
0.17586
0.175341
0.174832
0.174328
0.1989
0.197735
0.196605
0.195515
0.194465
0.193449
0.192464
0.191508
0.190579
0.189676
0.188796
0.187939
0.187104
0.186291
0.185497
0.184724
0.18397
0.183235
0.182518
0.181819
0.181138
0.180473
0.179825
0.179193
0.178577
0.177976
0.177391
0.176819
0.176262
0.175719
0.175189
0.174672
0.174158
0.198944
0.197852
0.196795
0.195774
0.194787
0.193827
0.192894
0.191986
0.191101
0.190238
0.189397
0.188577
0.187778
0.186998
0.186237
0.185495
0.184771
0.184066
0.183378
0.182708
0.182054
0.181417
0.180797
0.180192
0.179603
0.179029
0.178471
0.177927
0.177397
0.176881
0.176379
0.175889
0.175406
0.199227
0.198572
0.198048
0.197613
0.197233
0.196892
0.196584
0.196305
0.196052
0.195821
0.19561
0.195418
0.195243
0.195084
0.194942
0.194813
0.194699
0.194597
0.194508
0.194431
0.194364
0.194308
0.194261
0.194224
0.194195
0.194174
0.194162
0.194156
0.194157
0.194164
0.194178
0.194197
0.194225
0.209515
0.220347
0.230808
0.24093
0.250733
0.260233
0.269438
0.278351
0.286978
0.295321
0.303382
0.311166
0.318675
0.325913
0.332885
0.339595
0.346049
0.352252
0.35821
0.363929
0.369416
0.374677
0.379719
0.38455
0.389175
0.393602
0.397838
0.401889
0.405764
0.409467
0.413007
0.416391
0.419648
0.644258
0.805079
0.984473
1.16995
1.33646
1.47318
1.5792
1.65841
1.71676
1.7601
1.79284
1.81771
1.83668
1.85107
1.86169
1.86897
1.8728
1.87355
1.87085
1.86494
1.85628
1.84547
1.83308
1.81964
1.80561
1.79146
1.7776
1.76442
1.75219
1.74108
1.73121
1.72268
1.71555
1.70984
1.70553
1.70254
1.70074
1.69999
1.70013
1.70097
1.7023
1.70391
1.7056
1.70714
1.70832
1.70895
1.70883
1.70777
1.7056
1.70219
1.6974
1.69111
1.68325
1.67374
1.66253
1.64961
1.63497
1.61863
1.60063
1.58103
1.55991
1.53738
1.51356
1.48857
1.46256
1.4357
1.40816
1.38009
1.3517
1.32316
1.29465
1.26635
1.23844
1.21107
1.18442
1.1586
1.13375
1.10996
1.0873
1.0658
1.0455
1.02639
1.00845
0.991677
0.97601
0.961397
0.947769
0.935045
0.923137
0.911947
0.901377
0.89132
0.881684
0.872374
0.86336
0.854612
0.846405
0.838912
0.833554
0.830434
0.287841
0.307519
0.34216
0.39611
0.468652
0.556222
0.652976
0.752603
0.849854
0.941031
1.02401
1.09794
1.163
1.21994
1.26977
1.3134
1.35135
1.38397
1.41198
1.43564
1.45527
1.4712
1.4838
1.49343
1.50048
1.50535
1.50849
1.5103
1.51114
1.51131
1.51106
1.51064
1.51022
1.50998
1.51001
1.51038
1.51111
1.51216
1.5135
1.51504
1.51666
1.51825
1.51966
1.52075
1.52137
1.52135
1.52057
1.51886
1.51611
1.51221
1.50704
1.50052
1.4926
1.48321
1.47234
1.45997
1.44612
1.4308
1.41408
1.396
1.37665
1.35613
1.33456
1.31205
1.28876
1.26482
1.24039
1.21564
1.19072
1.1658
1.14103
1.11658
1.09259
1.06919
1.04653
1.02471
1.00383
0.983964
0.96517
0.947477
0.930894
0.915416
0.901025
0.887688
0.87536
0.863986
0.853496
0.843814
0.834855
0.826528
0.818738
0.811388
0.804389
0.797652
0.79115
0.784853
0.779002
0.773746
0.770294
0.768599
0.175883
0.177379
0.180712
0.187102
0.197762
0.213719
0.23628
0.266318
0.303955
0.348544
0.39903
0.454045
0.512093
0.571719
0.631631
0.690711
0.747952
0.802299
0.853539
0.901447
0.945877
0.986741
1.024
1.05767
1.08782
1.11462
1.13827
1.15907
1.17727
1.19316
1.20702
1.21912
1.22973
1.23909
1.24741
1.25488
1.26163
1.26776
1.27336
1.27845
1.28304
1.28712
1.29064
1.29355
1.29577
1.29722
1.29782
1.29748
1.29612
1.29366
1.29002
1.28516
1.27902
1.27157
1.2628
1.2527
1.24129
1.2286
1.21468
1.19959
1.18342
1.16625
1.14819
1.12937
1.1099
1.08993
1.0696
1.04904
1.02841
1.00783
0.987455
0.967408
0.947818
0.928802
0.910464
0.892902
0.876192
0.860399
0.845564
0.83171
0.818844
0.806958
0.796031
0.786033
0.77692
0.76864
0.761132
0.754324
0.74814
0.742496
0.737306
0.732481
0.727941
0.723603
0.719442
0.715428
0.711774
0.708596
0.706907
0.706504
0.164172
0.163488
0.163038
0.16304
0.163751
0.165459
0.168527
0.173355
0.180332
0.189997
0.202774
0.219002
0.238945
0.262762
0.290466
0.321897
0.356672
0.394162
0.433605
0.474402
0.515925
0.55754
0.598641
0.638676
0.677176
0.713783
0.748248
0.780419
0.810228
0.837667
0.86279
0.885693
0.906512
0.925403
0.942531
0.958059
0.972142
0.984921
0.996514
1.00702
1.01651
1.02505
1.03265
1.03934
1.0451
1.04991
1.05375
1.05656
1.05832
1.05898
1.05849
1.05683
1.05396
1.04988
1.04457
1.03805
1.03034
1.02148
1.01151
1.00049
0.988509
0.97565
0.96201
0.947698
0.932829
0.917522
0.9019
0.886087
0.870204
0.854374
0.838711
0.823329
0.808333
0.79382
0.77988
0.766592
0.754023
0.742225
0.731236
0.721077
0.711752
0.703257
0.695574
0.688677
0.682531
0.67709
0.6723
0.668102
0.664428
0.661204
0.658356
0.655802
0.653472
0.651293
0.64924
0.647286
0.645613
0.644305
0.644194
0.644925
0.164797
0.163875
0.162998
0.162212
0.161573
0.161149
0.161034
0.161341
0.162195
0.163748
0.166181
0.169687
0.174466
0.180724
0.188676
0.198531
0.210472
0.224621
0.240988
0.259609
0.280443
0.303365
0.328164
0.354544
0.382145
0.410571
0.439411
0.46827
0.496782
0.524628
0.551543
0.577326
0.601838
0.624992
0.64675
0.667108
0.68609
0.703738
0.720103
0.73524
0.749201
0.762034
0.773775
0.784452
0.794083
0.802672
0.810218
0.81671
0.822134
0.826471
0.829704
0.831818
0.832803
0.832656
0.831382
0.828995
0.82552
0.820994
0.815463
0.808985
0.801627
0.793468
0.784593
0.775094
0.765071
0.754625
0.74386
0.732881
0.721792
0.710695
0.699687
0.688863
0.678313
0.668118
0.658355
0.649091
0.640386
0.632287
0.624827
0.618029
0.611902
0.606445
0.601648
0.597492
0.593951
0.590988
0.588562
0.586622
0.585113
0.583973
0.583137
0.582537
0.582109
0.581791
0.58156
0.581389
0.581433
0.581746
0.582988
0.584673
0.166889
0.165976
0.165066
0.164173
0.163312
0.162504
0.161777
0.16117
0.160729
0.160505
0.160562
0.160973
0.16182
0.163187
0.165167
0.16786
0.171369
0.175793
0.181214
0.187721
0.195403
0.204341
0.214596
0.226201
0.239158
0.253427
0.26893
0.285544
0.30311
0.321435
0.34031
0.359516
0.378842
0.398088
0.417077
0.435658
0.453706
0.471123
0.487834
0.503786
0.518941
0.533272
0.54676
0.559393
0.571158
0.582042
0.592032
0.601112
0.609268
0.616482
0.622739
0.628026
0.632333
0.635657
0.637999
0.639371
0.639789
0.639282
0.637885
0.635643
0.632609
0.628845
0.624419
0.619404
0.613882
0.607933
0.601643
0.595097
0.588381
0.581578
0.574771
0.568036
0.561451
0.555084
0.549002
0.543264
0.537923
0.533022
0.528595
0.524666
0.52125
0.518352
0.51597
0.514093
0.512705
0.511781
0.51129
0.511192
0.511444
0.511996
0.512793
0.51378
0.514901
0.516103
0.517365
0.518663
0.520122
0.52177
0.524112
0.526551
0.168835
0.167969
0.1671
0.16623
0.165369
0.16452
0.163693
0.162901
0.16216
0.161491
0.160916
0.160469
0.160182
0.160095
0.160251
0.160697
0.161481
0.162654
0.164261
0.166347
0.168961
0.17215
0.175962
0.180443
0.185634
0.191569
0.198275
0.205766
0.21404
0.223079
0.232848
0.24329
0.254337
0.265901
0.277888
0.290196
0.302717
0.31535
0.327993
0.340554
0.352947
0.365095
0.376931
0.388393
0.399426
0.409981
0.420014
0.429482
0.438349
0.446578
0.454139
0.461002
0.467145
0.47255
0.477205
0.481104
0.484249
0.48665
0.488325
0.489298
0.489603
0.48928
0.488375
0.486941
0.485036
0.482719
0.480056
0.477112
0.473953
0.470645
0.467253
0.463841
0.460472
0.457204
0.454093
0.45119
0.448544
0.446194
0.444175
0.442512
0.441225
0.440324
0.439814
0.439695
0.439957
0.440585
0.441559
0.442851
0.444428
0.446251
0.448277
0.450458
0.45275
0.455107
0.457511
0.459938
0.46249
0.465165
0.468339
0.471323
0.170384
0.169571
0.168753
0.16793
0.167106
0.166282
0.16546
0.164646
0.163847
0.16307
0.162326
0.161627
0.160989
0.16043
0.15997
0.159633
0.159443
0.159428
0.159616
0.160031
0.160701
0.161651
0.162908
0.164497
0.166443
0.168767
0.171493
0.174638
0.178218
0.182245
0.186727
0.191665
0.197055
0.202884
0.209134
0.215779
0.222786
0.230117
0.237727
0.245568
0.25359
0.261739
0.269962
0.278204
0.286412
0.294533
0.302517
0.310313
0.317873
0.325151
0.332104
0.338691
0.344875
0.350624
0.355911
0.360713
0.365014
0.368804
0.37208
0.374847
0.377116
0.378903
0.380232
0.381133
0.38164
0.381791
0.38163
0.381201
0.380551
0.379728
0.378781
0.37776
0.376712
0.375685
0.374725
0.373876
0.373178
0.372668
0.37238
0.372338
0.372565
0.373075
0.37388
0.374983
0.376384
0.378076
0.380046
0.382278
0.384746
0.387421
0.390271
0.393256
0.396342
0.399489
0.402682
0.405897
0.409213
0.412607
0.41634
0.419663
0.171562
0.170796
0.170024
0.169247
0.168465
0.167679
0.166891
0.166103
0.165316
0.164535
0.163764
0.163006
0.162269
0.161561
0.160892
0.160272
0.159716
0.159237
0.158851
0.158576
0.158426
0.158419
0.158571
0.158899
0.159418
0.160143
0.161088
0.162264
0.163684
0.165356
0.167289
0.16949
0.171962
0.174709
0.177731
0.181026
0.184589
0.188412
0.192485
0.196793
0.201321
0.206048
0.210952
0.216009
0.221191
0.226468
0.23181
0.237183
0.242553
0.247885
0.253143
0.258292
0.263297
0.268126
0.272746
0.277131
0.281255
0.285098
0.288645
0.291883
0.294809
0.29742
0.299722
0.301725
0.303444
0.304897
0.306108
0.307103
0.307911
0.308563
0.309093
0.309536
0.309925
0.310297
0.310689
0.311133
0.311665
0.312315
0.313113
0.314083
0.315248
0.316623
0.318223
0.320055
0.322125
0.324432
0.326969
0.329727
0.332688
0.335833
0.339135
0.342565
0.346094
0.349691
0.35334
0.35702
0.360789
0.364608
0.368643
0.372112
0.172416
0.17169
0.170959
0.170221
0.169479
0.168731
0.16798
0.167224
0.166466
0.165707
0.164948
0.164191
0.16344
0.162697
0.161967
0.161255
0.160569
0.159915
0.159302
0.158739
0.158237
0.157806
0.157456
0.157199
0.157045
0.157007
0.157092
0.157311
0.157673
0.158184
0.158852
0.159681
0.160677
0.161842
0.163181
0.164694
0.166382
0.168244
0.17028
0.172487
0.174861
0.177396
0.180086
0.182923
0.185897
0.188996
0.192206
0.195513
0.198899
0.202346
0.205833
0.209339
0.212842
0.216318
0.219744
0.223099
0.226359
0.229506
0.232521
0.235389
0.238098
0.240638
0.243005
0.245198
0.247217
0.249068
0.250762
0.252309
0.253726
0.255029
0.25624
0.257379
0.258472
0.259542
0.260616
0.261719
0.262878
0.264118
0.265464
0.266937
0.268557
0.270341
0.272304
0.274455
0.276803
0.27935
0.282096
0.285034
0.288156
0.291446
0.294886
0.298454
0.302126
0.305876
0.309693
0.313553
0.3175
0.321481
0.325592
0.32904
0.173028
0.172334
0.171635
0.170931
0.170221
0.169507
0.168787
0.168063
0.167336
0.166604
0.16587
0.165134
0.164396
0.16366
0.162925
0.162195
0.161473
0.160762
0.160068
0.159394
0.158747
0.158133
0.157558
0.15703
0.156556
0.156143
0.1558
0.155533
0.155349
0.155254
0.155254
0.155354
0.155558
0.15587
0.156294
0.156831
0.157483
0.158252
0.159138
0.160141
0.161261
0.162497
0.163847
0.165309
0.16688
0.168556
0.170332
0.172202
0.17416
0.176197
0.178304
0.18047
0.182683
0.184932
0.187202
0.189479
0.191749
0.193999
0.196213
0.198381
0.20049
0.20253
0.204494
0.206376
0.208172
0.209882
0.211507
0.213051
0.21452
0.215923
0.217272
0.218579
0.219859
0.221129
0.222405
0.223708
0.225056
0.226468
0.227965
0.229564
0.231282
0.233136
0.235139
0.237302
0.239634
0.24214
0.244823
0.247681
0.250709
0.253897
0.257232
0.260697
0.264275
0.267944
0.271694
0.275503
0.279402
0.283328
0.28733
0.290626
0.173439
0.172772
0.172099
0.171421
0.170738
0.170051
0.169359
0.168662
0.167961
0.167256
0.166547
0.165834
0.165117
0.164398
0.163677
0.162955
0.162234
0.161514
0.160799
0.160091
0.159393
0.158709
0.158042
0.157396
0.156777
0.156189
0.155638
0.155127
0.154663
0.154251
0.153894
0.153598
0.153366
0.153202
0.15311
0.153091
0.153148
0.153283
0.153497
0.153792
0.154167
0.154624
0.155162
0.155781
0.15648
0.157258
0.158115
0.159047
0.160052
0.161127
0.162269
0.163472
0.164732
0.166041
0.167394
0.168783
0.1702
0.171636
0.173084
0.174535
0.17598
0.177413
0.178827
0.180216
0.181576
0.182904
0.184198
0.185459
0.186689
0.187893
0.189074
0.190242
0.191403
0.19257
0.193754
0.194968
0.196226
0.197543
0.198933
0.200412
0.201994
0.203694
0.205522
0.207491
0.20961
0.211885
0.214321
0.216919
0.219677
0.22259
0.225648
0.22884
0.232153
0.235569
0.239079
0.242664
0.246344
0.250051
0.253804
0.256856
0.173715
0.173067
0.172414
0.171756
0.171094
0.170428
0.169757
0.169082
0.168403
0.16772
0.167032
0.166341
0.165645
0.164946
0.164243
0.163537
0.162829
0.162119
0.161408
0.160698
0.15999
0.159286
0.158588
0.157899
0.15722
0.156556
0.15591
0.155285
0.154683
0.15411
0.153568
0.153061
0.152591
0.152163
0.151779
0.151441
0.151152
0.150914
0.150729
0.150597
0.150521
0.150501
0.150538
0.150632
0.150783
0.150992
0.151259
0.151582
0.151962
0.152396
0.152885
0.153425
0.154015
0.154652
0.155333
0.156055
0.156813
0.157604
0.158422
0.159263
0.160123
0.160995
0.161877
0.162764
0.163653
0.16454
0.165425
0.166307
0.167185
0.168062
0.16894
0.169823
0.170717
0.171629
0.172566
0.173538
0.174554
0.175627
0.176766
0.177985
0.179295
0.180708
0.182236
0.183889
0.185676
0.187605
0.189682
0.19191
0.194289
0.196817
0.199489
0.202298
0.205233
0.208281
0.211435
0.214676
0.218017
0.221392
0.224802
0.227552
0.173885
0.17325
0.172612
0.171969
0.171323
0.170672
0.170018
0.16936
0.168698
0.168031
0.167362
0.166688
0.16601
0.165328
0.164642
0.163953
0.16326
0.162564
0.161865
0.161165
0.160462
0.15976
0.159058
0.158358
0.157662
0.156972
0.156288
0.155614
0.154952
0.154303
0.153671
0.153058
0.152465
0.151897
0.151353
0.150838
0.150353
0.1499
0.14948
0.149095
0.148747
0.148436
0.148164
0.147931
0.147737
0.147585
0.147473
0.147403
0.147373
0.147384
0.147436
0.147528
0.147659
0.147829
0.148036
0.148279
0.148555
0.148863
0.149202
0.149567
0.149957
0.15037
0.150802
0.151252
0.151717
0.152196
0.152687
0.15319
0.153704
0.154231
0.154771
0.155328
0.155905
0.156506
0.157136
0.157803
0.158513
0.159276
0.160099
0.160992
0.161966
0.163031
0.164197
0.165473
0.166869
0.168393
0.170051
0.171848
0.173788
0.175871
0.178094
0.180453
0.182943
0.185552
0.188275
0.191096
0.194024
0.196993
0.200001
0.202419
0.173991
0.173366
0.172737
0.172105
0.17147
0.170831
0.170188
0.169542
0.168892
0.168239
0.167582
0.166922
0.166257
0.16559
0.164918
0.164243
0.163564
0.162882
0.162196
0.161508
0.160816
0.160123
0.159428
0.158732
0.158035
0.15734
0.156647
0.155957
0.155272
0.154592
0.153921
0.153258
0.152607
0.151968
0.151343
0.150733
0.150142
0.149569
0.149016
0.148485
0.147977
0.147493
0.147034
0.146601
0.146195
0.145817
0.145466
0.145144
0.144851
0.144587
0.144352
0.144147
0.143971
0.143824
0.143705
0.143615
0.143552
0.143515
0.143505
0.143519
0.143557
0.143617
0.143698
0.143799
0.143919
0.144058
0.144213
0.144385
0.144575
0.144782
0.145007
0.145253
0.145521
0.145814
0.146137
0.146495
0.146892
0.147334
0.147829
0.148385
0.14901
0.149711
0.150499
0.151383
0.15237
0.153469
0.154688
0.156033
0.157509
0.159118
0.160861
0.162738
0.164744
0.166874
0.169124
0.171479
0.173946
0.176464
0.179036
0.181108
0.17405
0.173431
0.172809
0.172184
0.171556
0.170924
0.170289
0.169652
0.169011
0.168366
0.167719
0.167068
0.166415
0.165757
0.165097
0.164432
0.163765
0.163094
0.16242
0.161742
0.161061
0.160378
0.159692
0.159004
0.158314
0.157623
0.156932
0.156241
0.155551
0.154863
0.154177
0.153496
0.15282
0.152149
0.151486
0.150831
0.150185
0.14955
0.148926
0.148315
0.147718
0.147136
0.146569
0.146018
0.145485
0.14497
0.144473
0.143995
0.143537
0.143099
0.142681
0.142283
0.141907
0.141551
0.141216
0.140901
0.140608
0.140335
0.140081
0.139848
0.139634
0.139439
0.139262
0.139103
0.138962
0.138837
0.138729
0.138638
0.138564
0.138507
0.138468
0.138448
0.138449
0.138473
0.138523
0.138602
0.138714
0.138864
0.139057
0.139298
0.139595
0.139955
0.140385
0.140894
0.141488
0.142177
0.142968
0.143868
0.144884
0.146019
0.147278
0.148663
0.150173
0.151805
0.153558
0.15542
0.157399
0.159439
0.161554
0.16327
0.174085
0.17347
0.172852
0.172231
0.171608
0.170981
0.170352
0.16972
0.169084
0.168446
0.167805
0.167161
0.166514
0.165864
0.165211
0.164555
0.163896
0.163233
0.162568
0.161899
0.161227
0.160553
0.159875
0.159196
0.158513
0.157829
0.157144
0.156457
0.15577
0.155082
0.154395
0.153709
0.153025
0.152343
0.151664
0.150989
0.150318
0.149653
0.148994
0.148342
0.147698
0.147062
0.146435
0.145819
0.145212
0.144618
0.144034
0.143463
0.142905
0.14236
0.141829
0.141312
0.140809
0.14032
0.139846
0.139386
0.138942
0.138512
0.138097
0.137697
0.137311
0.13694
0.136583
0.136241
0.135912
0.135598
0.135297
0.13501
0.134737
0.134479
0.134236
0.134008
0.133798
0.133606
0.133435
0.133286
0.133162
0.133067
0.133005
0.13298
0.132997
0.133062
0.13318
0.133359
0.133605
0.133926
0.134328
0.13482
0.135407
0.136097
0.136894
0.137802
0.138825
0.139962
0.141216
0.142579
0.144057
0.145605
0.147249
0.148598
0.174103
0.17349
0.172875
0.172257
0.171636
0.171012
0.170386
0.169757
0.169125
0.168491
0.167854
0.167214
0.166572
0.165927
0.165279
0.164628
0.163974
0.163318
0.162659
0.161996
0.161331
0.160663
0.159993
0.15932
0.158645
0.157967
0.157288
0.156607
0.155924
0.155241
0.154556
0.153872
0.153187
0.152503
0.15182
0.151138
0.150458
0.14978
0.149106
0.148435
0.147767
0.147105
0.146448
0.145796
0.14515
0.144512
0.14388
0.143256
0.14264
0.142032
0.141434
0.140844
0.140264
0.139694
0.139133
0.138583
0.138043
0.137514
0.136995
0.136486
0.135989
0.135501
0.135025
0.134559
0.134104
0.133659
0.133224
0.132801
0.132388
0.131986
0.131595
0.131217
0.130851
0.130498
0.13016
0.129839
0.129536
0.129253
0.128993
0.12876
0.128556
0.128385
0.128254
0.128165
0.128126
0.128141
0.128218
0.128362
0.12858
0.128878
0.129263
0.12974
0.130314
0.130988
0.131766
0.132644
0.133632
0.134691
0.135861
0.136833
0.174113
0.173502
0.172888
0.172272
0.171652
0.171031
0.170406
0.169779
0.16915
0.168518
0.167883
0.167246
0.166607
0.165964
0.16532
0.164672
0.164022
0.16337
0.162715
0.162057
0.161396
0.160733
0.160068
0.1594
0.15873
0.158057
0.157383
0.156707
0.156029
0.15535
0.15467
0.153988
0.153306
0.152623
0.151941
0.151258
0.150576
0.149894
0.149214
0.148535
0.147858
0.147183
0.146511
0.145842
0.145177
0.144515
0.143857
0.143204
0.142556
0.141913
0.141276
0.140645
0.14002
0.139401
0.138789
0.138184
0.137586
0.136996
0.136412
0.135836
0.135268
0.134707
0.134154
0.133609
0.133071
0.132541
0.132018
0.131504
0.130997
0.130497
0.130006
0.129524
0.12905
0.128586
0.128131
0.127688
0.127256
0.126839
0.126436
0.126051
0.125685
0.125341
0.125023
0.124735
0.124479
0.124261
0.124085
0.123956
0.12388
0.123863
0.123909
0.124025
0.124216
0.124487
0.124843
0.125283
0.125819
0.126418
0.127133
0.127729
0.174119
0.173508
0.172895
0.172279
0.171661
0.17104
0.170417
0.169791
0.169163
0.168532
0.167899
0.167263
0.166625
0.165985
0.165342
0.164697
0.164049
0.163399
0.162746
0.162091
0.161433
0.160773
0.160111
0.159447
0.15878
0.158112
0.157441
0.156769
0.156095
0.155419
0.154742
0.154064
0.153385
0.152705
0.152024
0.151343
0.150661
0.149979
0.149298
0.148617
0.147937
0.147257
0.146579
0.145902
0.145228
0.144555
0.143885
0.143217
0.142552
0.141891
0.141233
0.140578
0.139928
0.139282
0.138641
0.138004
0.137372
0.136745
0.136123
0.135506
0.134895
0.134289
0.133689
0.133094
0.132505
0.131921
0.131343
0.13077
0.130202
0.12964
0.129084
0.128533
0.127989
0.12745
0.126917
0.126392
0.125874
0.125365
0.124865
0.124376
0.123899
0.123435
0.122988
0.122559
0.122151
0.121766