/*--------------------------------*- C++ -*----------------------------------*\
| =========                 |                                                 |
| \\      /  F ield         | OpenFOAM: The Open Source CFD Toolbox           |
|  \\    /   O peration     | Version:  4.1                                   |
|   \\  /    A nd           | Web:      www.OpenFOAM.org                      |
|    \\/     M anipulation  |                                                 |
\*---------------------------------------------------------------------------*/
FoamFile
{
    version     2.0;
    format      ascii;
    class       volScalarField;
    location    "1300";
    object      nut;
}
// * * * * * * * * * * * * * * * * * * * * * * * * * * * * * * * * * * * * * //

dimensions      [0 2 -1 0 0 0 0];

internalField   nonuniform List<scalar> 
6820
(
4.53774e-05
4.96674e-05
5.35596e-05
5.7033e-05
6.00872e-05
6.27329e-05
6.49892e-05
6.68824e-05
6.84449e-05
6.97114e-05
7.07177e-05
7.14978e-05
7.20841e-05
7.25058e-05
7.27893e-05
7.29578e-05
7.30314e-05
7.30275e-05
7.29609e-05
7.28442e-05
7.26882e-05
7.25016e-05
7.22921e-05
7.20657e-05
7.18277e-05
7.15822e-05
7.13329e-05
7.10825e-05
7.08333e-05
7.05874e-05
7.03459e-05
7.01145e-05
6.99707e-05
0.000389004
0.000214804
0.000161971
0.000134577
0.000117082
0.000104841
9.58724e-05
8.91195e-05
8.39493e-05
7.99547e-05
7.68576e-05
7.44593e-05
7.26133e-05
7.12095e-05
7.01639e-05
6.94111e-05
6.88998e-05
6.85893e-05
6.84468e-05
6.84457e-05
6.85646e-05
6.87854e-05
6.90931e-05
6.94752e-05
6.99209e-05
7.04212e-05
7.09681e-05
7.15548e-05
7.21759e-05
7.28246e-05
7.35008e-05
7.41943e-05
7.51909e-05
0.000867009
0.000638273
0.00050769
0.000428082
0.000375014
0.000336916
0.000308048
0.000285295
0.000266813
0.00025144
0.000238413
0.00022721
0.000217458
0.00020889
0.000201303
0.000194545
0.000188496
0.000183062
0.000178166
0.00017375
0.000169743
0.000166041
0.000162606
0.000159413
0.000156443
0.00015368
0.000151107
0.000148711
0.000146478
0.000144399
0.000142458
0.000140657
0.000139055
0.000991214
0.000902164
0.000807377
0.000726622
0.000661863
0.000610175
0.000568431
0.000534166
0.000505567
0.000481331
0.000460513
0.000442414
0.000426509
0.0004124
0.00039978
0.000388413
0.000378111
0.000368724
0.000360134
0.000352242
0.000344971
0.00033822
0.000331916
0.000326008
0.000320452
0.000315214
0.000310264
0.000305579
0.000301135
0.000296916
0.000292902
0.000289081
0.000285433
0.00101005
0.00098739
0.000948626
0.000902916
0.000857083
0.00081444
0.000776076
0.000742011
0.000711858
0.000685132
0.000661359
0.000640115
0.000621037
0.000603821
0.00058821
0.00057399
0.000560984
0.000549041
0.000538035
0.000527861
0.000518429
0.000509658
0.000501477
0.000493823
0.000486643
0.000479889
0.000473523
0.000467508
0.000461815
0.000456416
0.000451288
0.000446407
0.000441712
0.00101185
0.00100724
0.000995356
0.000976942
0.000954121
0.000929118
0.000903659
0.000878801
0.000855099
0.000832805
0.000812001
0.000792668
0.000774737
0.000758113
0.000742692
0.000728374
0.00071506
0.000702662
0.000691095
0.000680287
0.00067017
0.000660683
0.000651773
0.000643389
0.000635487
0.000628027
0.000620973
0.000614293
0.000607959
0.000601943
0.000596222
0.000590768
0.0005855
0.00101178
0.00101089
0.00100777
0.00100182
0.000992905
0.000981471
0.000968242
0.00095392
0.000939072
0.000924117
0.000909347
0.000894953
0.000881053
0.000867715
0.00085497
0.000842827
0.00083128
0.000820311
0.000809899
0.000800017
0.000790637
0.000781725
0.000773254
0.0007652
0.000757539
0.000750246
0.0007433
0.00073668
0.000730366
0.000724339
0.000718581
0.000713066
0.000707706
0.00101168
0.00101136
0.00101047
0.00100868
0.00100565
0.0010012
0.000995412
0.000988494
0.000980691
0.000972245
0.000963375
0.000954264
0.000945058
0.000935871
0.000926788
0.00091787
0.000909162
0.000900694
0.000892486
0.000884548
0.000876885
0.000869497
0.00086238
0.000855529
0.000848937
0.000842597
0.000836499
0.000830636
0.000824999
0.000819577
0.00081436
0.000809329
0.000804393
0.00101165
0.00101137
0.00101095
0.0010103
0.00100928
0.00100769
0.00100543
0.00100251
0.000998941
0.000994803
0.000990178
0.00098516
0.000979838
0.000974296
0.000968606
0.00096283
0.000957019
0.000951215
0.00094545
0.00093975
0.000934136
0.000928624
0.000923226
0.000917951
0.000912805
0.000907792
0.000902914
0.000898172
0.000893566
0.000889095
0.000884756
0.000880532
0.000876338
0.00101164
0.00101135
0.00101102
0.00101063
0.00101016
0.00100951
0.0010086
0.00100738
0.00100583
0.00100394
0.00100172
0.000999201
0.000996409
0.000993382
0.000990158
0.000986773
0.000983263
0.000979658
0.000975986
0.000972273
0.000968538
0.0009648
0.000961074
0.000957374
0.000953709
0.000950089
0.000946521
0.000943011
0.000939564
0.000936182
0.000932867
0.000929606
0.000926318
0.00101163
0.00101134
0.00101103
0.0010107
0.00101036
0.00100998
0.00100952
0.00100894
0.00100823
0.00100736
0.00100632
0.00100511
0.00100373
0.00100219
0.00100049
0.000998656
0.000996699
0.000994636
0.000992481
0.00099025
0.000987958
0.000985618
0.000983241
0.000980839
0.000978421
0.000975996
0.000973572
0.000971156
0.000968753
0.000966369
0.000964005
0.000961652
0.000959227
0.00101163
0.00101134
0.00101103
0.00101072
0.00101041
0.0010101
0.00100977
0.00100939
0.00100897
0.00100849
0.00100793
0.0010073
0.00100658
0.00100577
0.00100487
0.00100388
0.00100282
0.00100167
0.00100045
0.000999166
0.000997824
0.00099643
0.000994992
0.000993517
0.00099201
0.000990479
0.000988927
0.000987362
0.000985787
0.000984206
0.000982622
0.000981024
0.000979332
0.00101163
0.00101133
0.00101104
0.00101073
0.00101043
0.00101014
0.00100984
0.00100953
0.00100921
0.00100886
0.0010085
0.0010081
0.00100766
0.00100719
0.00100667
0.00100611
0.00100551
0.00100486
0.00100416
0.00100342
0.00100265
0.00100183
0.00100098
0.0010001
0.000999189
0.000998253
0.000997294
0.000996317
0.000995323
0.000994316
0.000993296
0.00099225
0.000991102
0.00101163
0.00101133
0.00101104
0.00101074
0.00101045
0.00101016
0.00100987
0.00100958
0.00100929
0.00100899
0.00100869
0.00100837
0.00100804
0.0010077
0.00100734
0.00100696
0.00100657
0.00100615
0.0010057
0.00100524
0.00100476
0.00100425
0.00100372
0.00100317
0.00100261
0.00100202
0.00100142
0.00100081
0.00100018
0.000999537
0.000998884
0.000998207
0.000997426
0.00101163
0.00101133
0.00101104
0.00101075
0.00101046
0.00101018
0.00100989
0.00100961
0.00100933
0.00100905
0.00100877
0.00100848
0.0010082
0.00100791
0.00100761
0.00100732
0.00100701
0.0010067
0.00100638
0.00100604
0.0010057
0.00100536
0.001005
0.00100463
0.00100425
0.00100386
0.00100346
0.00100306
0.00100264
0.00100222
0.00100179
0.00100134
0.00100078
0.00101163
0.00101133
0.00101105
0.00101075
0.00101047
0.00101019
0.00100991
0.00100963
0.00100936
0.00100908
0.00100881
0.00100854
0.00100827
0.001008
0.00100773
0.00100746
0.00100719
0.00100692
0.00100665
0.00100637
0.0010061
0.00100582
0.00100553
0.00100525
0.00100496
0.00100467
0.00100437
0.00100407
0.00100377
0.00100346
0.00100315
0.00100282
0.0010024
0.00101163
0.00101133
0.00101105
0.00101076
0.00101048
0.0010102
0.00100992
0.00100965
0.00100938
0.00100911
0.00100884
0.00100858
0.00100831
0.00100805
0.0010078
0.00100754
0.00100729
0.00100704
0.00100679
0.00100654
0.00100629
0.00100605
0.0010058
0.00100556
0.00100531
0.00100507
0.00100483
0.00100458
0.00100434
0.0010041
0.00100385
0.00100359
0.00100323
0.00101163
0.00101133
0.00101105
0.00101076
0.00101048
0.00101021
0.00100994
0.00100966
0.0010094
0.00100913
0.00100887
0.00100861
0.00100835
0.00100809
0.00100784
0.00100759
0.00100735
0.00100711
0.00100687
0.00100663
0.00100639
0.00100616
0.00100593
0.00100571
0.00100548
0.00100526
0.00100504
0.00100482
0.00100461
0.00100439
0.00100418
0.00100395
0.00100363
0.00101163
0.00101133
0.00101105
0.00101077
0.00101049
0.00101022
0.00100994
0.00100968
0.00100941
0.00100915
0.00100889
0.00100863
0.00100838
0.00100812
0.00100788
0.00100763
0.00100739
0.00100716
0.00100692
0.00100669
0.00100647
0.00100624
0.00100602
0.00100581
0.00100559
0.00100538
0.00100517
0.00100497
0.00100477
0.00100457
0.00100437
0.00100416
0.00100386
0.00101163
0.00101133
0.00101105
0.00101077
0.00101049
0.00101022
0.00100995
0.00100969
0.00100942
0.00100916
0.0010089
0.00100865
0.0010084
0.00100815
0.00100791
0.00100767
0.00100743
0.0010072
0.00100697
0.00100674
0.00100652
0.0010063
0.00100608
0.00100587
0.00100567
0.00100546
0.00100526
0.00100506
0.00100487
0.00100468
0.00100449
0.00100428
0.00100399
0.00101163
0.00101133
0.00101105
0.00101077
0.0010105
0.00101023
0.00100996
0.00100969
0.00100943
0.00100917
0.00100892
0.00100867
0.00100842
0.00100817
0.00100793
0.00100769
0.00100746
0.00100723
0.001007
0.00100678
0.00100656
0.00100635
0.00100614
0.00100593
0.00100572
0.00100552
0.00100533
0.00100513
0.00100495
0.00100476
0.00100457
0.00100438
0.00100409
0.00101163
0.00101133
0.00101105
0.00101077
0.0010105
0.00101023
0.00100996
0.0010097
0.00100944
0.00100918
0.00100893
0.00100868
0.00100843
0.00100819
0.00100795
0.00100772
0.00100749
0.00100726
0.00100704
0.00100682
0.0010066
0.00100639
0.00100618
0.00100597
0.00100577
0.00100557
0.00100538
0.00100519
0.00100501
0.00100482
0.00100464
0.00100445
0.00100416
0.00101163
0.00101133
0.00101105
0.00101077
0.0010105
0.00101023
0.00100997
0.00100971
0.00100945
0.00100919
0.00100894
0.00100869
0.00100845
0.00100821
0.00100797
0.00100774
0.00100751
0.00100728
0.00100706
0.00100684
0.00100663
0.00100642
0.00100621
0.00100601
0.00100581
0.00100562
0.00100542
0.00100524
0.00100505
0.00100487
0.00100469
0.0010045
0.00100422
0.00101163
0.00101133
0.00101105
0.00101077
0.0010105
0.00101023
0.00100997
0.00100971
0.00100945
0.0010092
0.00100895
0.0010087
0.00100846
0.00100822
0.00100798
0.00100775
0.00100753
0.0010073
0.00100708
0.00100687
0.00100665
0.00100644
0.00100624
0.00100604
0.00100584
0.00100565
0.00100546
0.00100527
0.00100509
0.00100491
0.00100474
0.00100455
0.00100427
0.00101163
0.00101133
0.00101105
0.00101077
0.0010105
0.00101024
0.00100997
0.00100971
0.00100946
0.0010092
0.00100895
0.00100871
0.00100847
0.00100823
0.00100799
0.00100776
0.00100754
0.00100731
0.00100709
0.00100688
0.00100667
0.00100646
0.00100626
0.00100606
0.00100586
0.00100567
0.00100548
0.00100529
0.00100511
0.00100493
0.00100476
0.00100457
0.00100429
0.00101163
0.00101133
0.00101105
0.00101077
0.0010105
0.00101024
0.00100997
0.00100971
0.00100946
0.0010092
0.00100895
0.00100871
0.00100847
0.00100823
0.001008
0.00100777
0.00100754
0.00100732
0.0010071
0.00100689
0.00100668
0.00100647
0.00100627
0.00100607
0.00100588
0.00100568
0.0010055
0.00100531
0.00100513
0.00100496
0.00100478
0.00100459
0.00100432
0.00101163
0.00101133
0.00101105
0.00101077
0.0010105
0.00101024
0.00100997
0.00100971
0.00100946
0.0010092
0.00100896
0.00100871
0.00100847
0.00100823
0.001008
0.00100777
0.00100754
0.00100732
0.0010071
0.00100688
0.00100667
0.00100646
0.00100626
0.00100606
0.00100586
0.00100567
0.00100548
0.0010053
0.00100512
0.00100494
0.00100476
0.00100457
0.00100429
0.00101163
0.00101133
0.00101105
0.00101077
0.0010105
0.00101024
0.00100997
0.00100971
0.00100945
0.0010092
0.00100895
0.00100871
0.00100847
0.00100823
0.00100799
0.00100776
0.00100754
0.00100732
0.0010071
0.00100688
0.00100667
0.00100647
0.00100627
0.00100607
0.00100587
0.00100568
0.00100549
0.00100531
0.00100513
0.00100495
0.00100478
0.00100459
0.00100431
0.00101163
0.00101133
0.00101105
0.00101077
0.0010105
0.00101023
0.00100997
0.00100971
0.00100945
0.0010092
0.00100894
0.0010087
0.00100845
0.00100821
0.00100797
0.00100774
0.00100751
0.00100729
0.00100706
0.00100684
0.00100663
0.00100642
0.00100621
0.00100601
0.00100581
0.00100562
0.00100542
0.00100524
0.00100505
0.00100487
0.00100469
0.0010045
0.00100422
0.00101163
0.00101133
0.00101105
0.00101077
0.0010105
0.00101023
0.00100997
0.0010097
0.00100945
0.00100919
0.00100894
0.00100869
0.00100845
0.00100821
0.00100798
0.00100775
0.00100752
0.0010073
0.00100708
0.00100686
0.00100665
0.00100644
0.00100623
0.00100603
0.00100583
0.00100564
0.00100544
0.00100526
0.00100507
0.00100489
0.00100471
0.00100451
0.00100423
0.00101163
0.00101133
0.00101105
0.00101077
0.0010105
0.00101023
0.00100996
0.00100969
0.00100943
0.00100917
0.00100891
0.00100866
0.00100841
0.00100816
0.00100791
0.00100767
0.00100744
0.0010072
0.00100697
0.00100674
0.00100652
0.0010063
0.00100608
0.00100587
0.00100566
0.00100545
0.00100525
0.00100505
0.00100486
0.00100466
0.00100447
0.00100426
0.00100397
0.00101163
0.00101133
0.00101105
0.00101077
0.00101049
0.00101022
0.00100996
0.0010097
0.00100944
0.00100918
0.00100893
0.00100868
0.00100843
0.00100819
0.00100795
0.00100771
0.00100747
0.00100723
0.00100699
0.00100676
0.00100653
0.0010063
0.00100606
0.00100584
0.00100561
0.00100538
0.00100516
0.00100493
0.00100471
0.00100449
0.00100426
0.00100403
0.00100369
0.00101163
0.00101133
0.00101105
0.00101077
0.00101048
0.0010102
0.00100992
0.00100964
0.00100935
0.00100907
0.00100879
0.00100851
0.00100822
0.00100794
0.00100766
0.00100738
0.0010071
0.00100681
0.00100653
0.00100624
0.00100595
0.00100566
0.00100536
0.00100507
0.00100477
0.00100447
0.00100416
0.00100386
0.00100355
0.00100325
0.00100293
0.00100261
0.00100218
0.00101163
0.00101134
0.00101105
0.00101077
0.00101049
0.00101021
0.00100993
0.00100964
0.00100934
0.00100903
0.00100871
0.00100837
0.00100802
0.00100766
0.00100728
0.00100689
0.00100648
0.00100606
0.00100562
0.00100516
0.00100469
0.00100421
0.00100371
0.0010032
0.00100268
0.00100215
0.00100161
0.00100106
0.00100051
0.000999942
0.00099937
0.000998776
0.000998084
0.00101163
0.00101134
0.00101103
0.00101069
0.00101033
0.00100994
0.00100951
0.00100904
0.00100853
0.00100796
0.00100734
0.00100667
0.00100594
0.00100515
0.00100431
0.00100342
0.00100248
0.00100149
0.00100047
0.000999414
0.000998324
0.000997207
0.000996067
0.000994906
0.00099373
0.000992542
0.000991344
0.000990139
0.00098893
0.00098772
0.000986508
0.000985283
0.000983969
0.00101164
0.00101133
0.00101094
0.00101042
0.00100973
0.00100883
0.0010077
0.00100635
0.00100478
0.001003
0.00100104
0.000998909
0.000996631
0.000994228
0.000991719
0.000989125
0.000986463
0.00098375
0.000981
0.000978226
0.00097544
0.000972653
0.000969872
0.000967103
0.000964354
0.00096163
0.000958937
0.000956278
0.000953656
0.000951075
0.000948535
0.000946023
0.000943466
0.00101162
0.0010106
0.00100853
0.00100543
0.0010014
0.000996513
0.00099091
0.000984747
0.000978174
0.000971314
0.000964272
0.000957136
0.000949978
0.000942854
0.000935809
0.000928876
0.000922082
0.000915443
0.000908975
0.000902685
0.000896578
0.000890657
0.000884923
0.000879373
0.000874006
0.000868819
0.000863806
0.000858963
0.000854286
0.000849769
0.000845405
0.000841179
0.000837016
0.00100895
0.000995379
0.000976042
0.000953694
0.00093032
0.000907093
0.000884657
0.000863329
0.000843228
0.000824388
0.000806781
0.000790352
0.000775024
0.00076072
0.000747357
0.00073486
0.000723158
0.000712183
0.000701876
0.000692182
0.000683051
0.000674439
0.000666305
0.000658613
0.000651329
0.000644424
0.000637871
0.000631644
0.000625722
0.000620084
0.00061471
0.00060958
0.000604632
0.000892788
0.000742255
0.000649202
0.00058554
0.000538566
0.000502138
0.000472884
0.000448753
0.000428416
0.000410981
0.000395823
0.000382492
0.000370655
0.000360056
0.0003505
0.000341831
0.000333927
0.000326686
0.000320026
0.000313879
0.000308188
0.000302904
0.000297984
0.000293395
0.000289104
0.000285084
0.000281313
0.000277768
0.000274431
0.000271286
0.000268318
0.000265514
0.000262862
0.000126722
0.000129956
0.000133005
0.000135891
0.000138628
0.00014123
0.000143705
0.000146063
0.000148309
0.00015045
0.000152489
0.000154433
0.000156285
0.00015805
0.000159732
0.000161334
0.00016286
0.000164313
0.000165696
0.000167014
0.000168268
0.000169462
0.000170599
0.00017168
0.00017271
0.000173689
0.000174621
0.000175508
0.000176352
0.000177155
0.000177919
0.000178647
0.000179344
8.54723e-05
0.000115336
0.00014582
0.000176029
0.000203035
0.000226764
0.00024816
0.000268287
0.000288062
0.000308076
0.00032855
0.000349437
0.000370698
0.000392267
0.000414062
0.000435919
0.000457607
0.000479089
0.000500226
0.000521075
0.000541714
0.000562206
0.000582605
0.00060299
0.000623481
0.000644229
0.000665379
0.000687039
0.000709282
0.000732178
0.000755812
0.000780277
0.000805644
0.000831952
0.000859211
0.000887417
0.000916552
0.000946579
0.000977436
0.00100904
0.00104131
0.00107413
0.00110739
0.00114099
0.00117479
0.00120869
0.00124256
0.0012763
0.00130979
0.00134295
0.00137568
0.0014079
0.00143956
0.00147058
0.00150093
0.00153057
0.00155947
0.00158764
0.00161507
0.00164177
0.00166779
0.00169316
0.00171793
0.00174218
0.00176597
0.0017894
0.00181253
0.00183547
0.00185829
0.00188111
0.001904
0.00192705
0.00195034
0.00197395
0.00199794
0.00202233
0.00204716
0.0020724
0.002098
0.00212388
0.00214996
0.00217614
0.00220233
0.00222844
0.00225435
0.00227995
0.00230512
0.00232974
0.00235368
0.00237685
0.00239912
0.00242041
0.00244067
0.00245989
0.00247822
0.0024961
0.00251441
0.00253535
0.00256244
0.00261127
7.83548e-05
8.47442e-05
9.52604e-05
0.000110477
0.000129537
0.000151374
0.000174489
0.000197704
0.000220441
0.000242498
0.000263909
0.000284837
0.000305528
0.000326236
0.000347147
0.000368305
0.000389609
0.000410949
0.000432322
0.000453617
0.000474794
0.000495835
0.000516732
0.000537501
0.000558204
0.00057894
0.000599819
0.000620933
0.000642354
0.00066415
0.0006864
0.000709193
0.000732614
0.000756726
0.000781574
0.00080719
0.000833593
0.000860784
0.000888746
0.000917444
0.000946826
0.000976829
0.00100738
0.00103838
0.00106975
0.00110138
0.00113317
0.00116503
0.00119685
0.00122854
0.00126001
0.00129117
0.00132197
0.00135233
0.0013822
0.00141156
0.00144035
0.00146859
0.00149625
0.00152336
0.00154994
0.00157603
0.00160168
0.00162694
0.00165189
0.0016766
0.00170114
0.00172559
0.00175004
0.00177455
0.00179921
0.00182409
0.00184926
0.00187477
0.00190067
0.00192699
0.00195372
0.00198086
0.00200834
0.00203608
0.00206399
0.00209198
0.00211995
0.00214778
0.00217539
0.00220264
0.00222943
0.00225563
0.00228112
0.0023058
0.00232957
0.00235234
0.00237406
0.00239473
0.0024145
0.00243378
0.00245341
0.00247536
0.00250274
0.00254734
0.00013774
0.000137412
0.000137921
0.000139204
0.000141082
0.00014345
0.000147848
0.000155282
0.000165897
0.000179194
0.000194742
0.000212098
0.000230832
0.000250578
0.00027104
0.000291968
0.000313097
0.00033423
0.000355454
0.000376718
0.000397978
0.000419192
0.000440317
0.000461324
0.000482222
0.000503052
0.000523878
0.000544762
0.000565759
0.000586925
0.00060833
0.000630055
0.000652182
0.000674786
0.000697931
0.000721671
0.000746049
0.000771097
0.000796831
0.00082325
0.00085034
0.00087807
0.000906394
0.000935256
0.000964586
0.000994307
0.00102433
0.00105458
0.00108496
0.00111538
0.00114576
0.00117603
0.0012061
0.00123593
0.00126546
0.00129465
0.00132347
0.0013519
0.00137995
0.00140761
0.00143491
0.00146188
0.00148857
0.00151501
0.00154128
0.00156742
0.00159351
0.00161961
0.00164579
0.0016721
0.00169861
0.00172538
0.00175246
0.00177989
0.0018077
0.00183591
0.00186451
0.00189346
0.00192272
0.0019522
0.0019818
0.00201143
0.00204099
0.00207037
0.00209946
0.00212816
0.00215635
0.00218391
0.00221073
0.00223672
0.00226176
0.00228579
0.00230876
0.00233068
0.00235168
0.00237218
0.00239292
0.00241568
0.00244312
0.00248296
0.000281176
0.000277081
0.000273363
0.000270019
0.000266855
0.000263257
0.000258692
0.000253007
0.00024634
0.00024066
0.00023689
0.000235503
0.000236862
0.000241129
0.000248256
0.000258022
0.000270055
0.000283917
0.000299277
0.000315881
0.000333449
0.000351729
0.000370505
0.000389615
0.000408953
0.000428469
0.000448148
0.00046799
0.000488006
0.000508211
0.000528637
0.00054933
0.000570343
0.000591734
0.000613554
0.000635856
0.000658686
0.000682087
0.000706088
0.000730711
0.000755962
0.000781837
0.000808317
0.00083537
0.000862954
0.000891015
0.000919489
0.00094831
0.000977405
0.0010067
0.00103612
0.0010656
0.00109508
0.00112449
0.0011538
0.00118295
0.00121192
0.00124069
0.00126926
0.00129761
0.00132578
0.00135377
0.00138162
0.00140938
0.00143707
0.00146476
0.00149249
0.0015203
0.00154826
0.00157641
0.00160478
0.00163343
0.00166239
0.00169167
0.00172131
0.00175129
0.00178161
0.00181223
0.00184309
0.00187409
0.00190516
0.00193618
0.00196708
0.00199773
0.00202804
0.00205791
0.00208722
0.00211586
0.00214373
0.00217074
0.00219679
0.00222182
0.00224578
0.0022687
0.00229069
0.00231216
0.00233377
0.00235708
0.00238435
0.00241891
0.000436014
0.000430299
0.000424734
0.000419453
0.000414491
0.000409767
0.000405051
0.000399968
0.000394014
0.000386881
0.000378732
0.000369955
0.000360882
0.000351973
0.000343783
0.000336868
0.000331703
0.000328599
0.000327824
0.000329522
0.000333655
0.000340077
0.000348572
0.000358892
0.00037079
0.000384035
0.000398425
0.000413783
0.000429961
0.000446844
0.000464352
0.000482438
0.000501076
0.000520262
0.000539998
0.000560297
0.000581175
0.000602653
0.000624749
0.000647478
0.00067085
0.000694869
0.000719527
0.000744811
0.000770693
0.00079714
0.000824109
0.000851548
0.000879403
0.000907613
0.000936119
0.000964861
0.000993783
0.00102283
0.00105196
0.00108113
0.00111031
0.00113948
0.00116861
0.00119771
0.00122679
0.00125584
0.00128489
0.00131397
0.0013431
0.00137232
0.00140165
0.00143114
0.00146081
0.0014907
0.00152082
0.0015512
0.00158187
0.00161282
0.00164406
0.00167559
0.00170737
0.00173936
0.00177151
0.00180372
0.00183591
0.00186799
0.00189987
0.00193144
0.00196261
0.00199328
0.00202336
0.00205273
0.00208131
0.00210901
0.00213575
0.00216146
0.00218611
0.00220973
0.00223243
0.00225459
0.00227679
0.00230037
0.00232719
0.00235605
0.000579025
0.000572595
0.000566233
0.000560009
0.000553989
0.000548199
0.00054266
0.000537349
0.000532145
0.000526847
0.000521231
0.000515223
0.000508623
0.000501289
0.000493139
0.000484181
0.000474528
0.000464386
0.000454138
0.000444277
0.000435291
0.000427614
0.0004216
0.000417506
0.000415495
0.000415638
0.000417924
0.000422277
0.000428569
0.000436652
0.000446366
0.000457562
0.000470102
0.000483868
0.000498758
0.000514691
0.000531606
0.000549454
0.0005682
0.000587817
0.000608283
0.000629578
0.000651681
0.000674569
0.000698215
0.000722584
0.00074764
0.000773338
0.00079963
0.000826464
0.000853787
0.000881544
0.000909684
0.000938155
0.00096691
0.000995907
0.00102511
0.00105449
0.00108403
0.0011137
0.0011435
0.00117344
0.0012035
0.0012337
0.00126406
0.00129458
0.00132528
0.00135618
0.00138728
0.0014186
0.00145014
0.00148191
0.00151391
0.00154614
0.00157858
0.00161122
0.00164402
0.00167693
0.0017099
0.00174286
0.00177571
0.00180837
0.00184076
0.00187279
0.00190438
0.00193542
0.00196584
0.00199554
0.00202444
0.00205245
0.00207951
0.00210556
0.00213056
0.00215456
0.00217766
0.0022002
0.0022227
0.00224625
0.00227234
0.00229516
0.000701047
0.000694454
0.00068796
0.000681542
0.00067528
0.000669198
0.000663318
0.00065767
0.000652234
0.00064699
0.00064189
0.000636896
0.000631934
0.000626895
0.000621642
0.00061602
0.000609865
0.000603014
0.000595344
0.000586853
0.000577611
0.000567785
0.000557626
0.000547458
0.000537641
0.00052855
0.000520537
0.000513903
0.000508883
0.000505645
0.00050429
0.000504861
0.000507352
0.000511721
0.000517898
0.000525802
0.000535341
0.000546428
0.000558977
0.00057291
0.000588157
0.000604652
0.000622339
0.000641161
0.000661065
0.000682
0.000703912
0.000726747
0.00075045
0.000774962
0.000800227
0.000826184
0.000852778
0.000879951
0.00090765
0.000935825
0.000964432
0.000993428
0.00102278
0.00105245
0.00108243
0.00111268
0.0011432
0.00117397
0.00120499
0.00123624
0.00126773
0.00129944
0.00133136
0.0013635
0.00139583
0.00142835
0.00146105
0.00149389
0.00152687
0.00155996
0.00159312
0.00162631
0.00165947
0.00169254
0.00172544
0.0017581
0.00179044
0.00182239
0.00185388
0.00188481
0.00191511
0.0019447
0.00197351
0.00200145
0.00202846
0.0020545
0.00207954
0.00210361
0.0021268
0.00214943
0.00217193
0.00219517
0.00222029
0.00223692
0.000798149
0.000792013
0.000785946
0.000779924
0.000773977
0.000768116
0.000762357
0.000756729
0.000751261
0.000745971
0.000740873
0.000735979
0.000731287
0.000726783
0.000722432
0.00071818
0.000713949
0.000709634
0.000705108
0.000700248
0.000694932
0.000689068
0.000682577
0.000675444
0.000667723
0.000659533
0.000651055
0.000642517
0.000634179
0.000626312
0.000619183
0.000613041
0.000608104
0.000604553
0.000602527
0.000602123
0.000603402
0.000606392
0.000611096
0.000617498
0.000625566
0.00063526
0.00064653
0.000659323
0.000673581
0.000689247
0.000706257
0.000724549
0.000744057
0.000764715
0.000786457
0.000809214
0.000832919
0.000857506
0.000882909
0.000909065
0.000935913
0.000963398
0.000991465
0.00102007
0.00104916
0.00107869
0.00110864
0.00113897
0.00116964
0.00120063
0.0012319
0.00126343
0.0012952
0.00132717
0.00135933
0.00139164
0.00142408
0.00145662
0.00148923
0.0015219
0.00155457
0.00158722
0.00161979
0.00165223
0.00168449
0.00171649
0.00174818
0.00177948
0.00181035
0.00184069
0.00187044
0.00189953
0.00192789
0.00195543
0.0019821
0.00200786
0.00203267
0.00205656
0.00207961
0.00210211
0.00212439
0.00214709
0.00217108
0.0021816
0.000870887
0.000865604
0.000860342
0.000855102
0.000849871
0.000844671
0.000839517
0.000834429
0.000829427
0.000824528
0.000819745
0.000815085
0.000810568
0.000806214
0.000802037
0.000798044
0.000794232
0.000790586
0.00078707
0.000783625
0.000780195
0.000776708
0.000773084
0.000769245
0.000765124
0.000760672
0.000755874
0.000750744
0.000745344
0.000739724
0.000734003
0.000728338
0.000722906
0.000717897
0.000713497
0.000709882
0.000707217
0.000705649
0.000705304
0.000706282
0.000708666
0.000712513
0.000717862
0.000724735
0.000733138
0.000743062
0.000754488
0.000767386
0.000781718
0.000797436
0.000814489
0.000832818
0.000852362
0.000873056
0.000894832
0.000917621
0.000941356
0.000965967
0.000991389
0.00101756
0.0010444
0.00107188
0.00109991
0.00112846
0.00115746
0.00118687
0.00121665
0.00124674
0.0012771
0.00130769
0.00133847
0.00136941
0.00140048
0.00143164
0.00146287
0.00149413
0.0015254
0.00155665
0.00158783
0.00161891
0.00164985
0.00168059
0.00171108
0.00174126
0.00177109
0.00180049
0.00182938
0.00185771
0.0018854
0.00191237
0.00193856
0.00196391
0.00198839
0.00201202
0.00203485
0.00205713
0.0020791
0.00210119
0.00212402
0.00212891
0.000921864
0.000917653
0.000913422
0.000909175
0.000904908
0.000900622
0.000896334
0.000892053
0.000887789
0.000883555
0.000879362
0.000875223
0.000871153
0.000867167
0.000863285
0.000859524
0.000855902
0.000852438
0.000849141
0.000846016
0.000843065
0.000840271
0.000837614
0.000835064
0.000832587
0.000830143
0.000827694
0.000825206
0.000822654
0.000820024
0.000817319
0.000814562
0.000811803
0.000809121
0.000806562
0.000804225
0.00080223
0.000800698
0.000799754
0.000799519
0.000800111
0.000801637
0.000804192
0.000807862
0.000812716
0.00081881
0.000826188
0.000834876
0.000844891
0.000856234
0.000868897
0.000882861
0.000898094
0.000914559
0.000932211
0.000950996
0.000970858
0.000991734
0.00101356
0.00103627
0.0010598
0.00108408
0.00110905
0.00113464
0.00116078
0.00118742
0.00121449
0.00124195
0.00126974
0.00129782
0.00132613
0.00135464
0.00138332
0.00141214
0.00144107
0.00147009
0.00149918
0.00152832
0.00155749
0.00158665
0.00161578
0.00164483
0.00167378
0.00170257
0.00173115
0.00175946
0.00178742
0.00181496
0.001842
0.00186846
0.00189426
0.00191933
0.00194362
0.00196714
0.00198989
0.0020121
0.00203391
0.00205554
0.00207742
0.00207762
0.000955744
0.000952591
0.000949392
0.000946151
0.000942872
0.000939552
0.000936196
0.000932813
0.000929409
0.000925994
0.000922575
0.00091916
0.000915755
0.000912367
0.000909011
0.000905702
0.000902459
0.000899301
0.000896244
0.000893305
0.000890507
0.000887867
0.000885397
0.000883107
0.000881003
0.000879084
0.000877345
0.000875776
0.000874365
0.000873098
0.000871964
0.000870954
0.000870068
0.000869319
0.000868721
0.000868303
0.000868091
0.000868121
0.000868454
0.000869163
0.000870326
0.000872024
0.000874342
0.000877359
0.000881154
0.000885799
0.000891359
0.000897892
0.000905445
0.000914056
0.000923753
0.00093455
0.000946456
0.000959464
0.000973561
0.000988723
0.00100492
0.00102211
0.00104024
0.00105927
0.00107915
0.00109981
0.00112119
0.00114323
0.00116588
0.00118908
0.00121276
0.00123688
0.00126139
0.00128624
0.00131139
0.00133681
0.00136247
0.00138835
0.00141443
0.0014407
0.00146715
0.00149378
0.00152058
0.00154753
0.00157463
0.00160185
0.00162915
0.00165652
0.00168388
0.00171119
0.00173837
0.00176534
0.001792
0.00181826
0.00184403
0.0018692
0.00189372
0.00191754
0.00194066
0.00196322
0.00198529
0.0020069
0.00202834
0.00202539
0.000976687
0.000974454
0.000972165
0.000969824
0.000967435
0.000965
0.000962515
0.000959986
0.000957418
0.000954815
0.000952179
0.000949516
0.000946828
0.000944122
0.000941403
0.000938679
0.000935963
0.000933266
0.000930605
0.000927996
0.00092546
0.000923021
0.000920698
0.000918512
0.000916483
0.00091463
0.000912971
0.000911517
0.00091028
0.000909267
0.000908481
0.000907926
0.000907601
0.000907511
0.000907657
0.000908048
0.000908684
0.00090957
0.000910727
0.000912184
0.000913977
0.00091615
0.000918749
0.000921826
0.000925432
0.000929622
0.00093445
0.000939966
0.000946219
0.000953252
0.000961102
0.0009698
0.00097937
0.000989826
0.00100118
0.00101342
0.00102654
0.00104053
0.00105536
0.001071
0.00108741
0.00110455
0.00112238
0.00114085
0.00115992
0.00117953
0.00119965
0.00122023
0.00124123
0.00126262
0.00128436
0.00130645
0.00132885
0.00135156
0.00137458
0.00139791
0.00142155
0.00144553
0.00146984
0.00149451
0.00151952
0.00154488
0.00157057
0.00159657
0.00162284
0.00164933
0.00167596
0.00170265
0.00172929
0.00175577
0.00178198
0.00180779
0.0018331
0.00185785
0.00188196
0.00190553
0.00192852
0.00195083
0.00197262
0.00196863
0.000989089
0.00098756
0.000985979
0.000984348
0.00098267
0.000980945
0.000979173
0.000977355
0.000975493
0.000973591
0.000971649
0.000969668
0.00096765
0.000965597
0.000963513
0.000961399
0.000959262
0.000957107
0.000954945
0.000952785
0.000950643
0.000948536
0.00094648
0.000944495
0.000942602
0.000940823
0.00093918
0.000937694
0.000936384
0.00093527
0.000934367
0.00093369
0.000933245
0.000933037
0.000933075
0.000933368
0.000933924
0.000934751
0.000935859
0.000937258
0.000938967
0.000941003
0.000943391
0.000946157
0.000949331
0.000952945
0.000957033