/*--------------------------------*- C++ -*----------------------------------*\
| =========                 |                                                 |
| \\      /  F ield         | OpenFOAM: The Open Source CFD Toolbox           |
|  \\    /   O peration     | Version:  4.1                                   |
|   \\  /    A nd           | Web:      www.OpenFOAM.org                      |
|    \\/     M anipulation  |                                                 |
\*---------------------------------------------------------------------------*/
FoamFile
{
    version     2.0;
    format      ascii;
    class       volScalarField;
    location    "1300";
    object      p;
}
// * * * * * * * * * * * * * * * * * * * * * * * * * * * * * * * * * * * * * //

dimensions      [0 2 -2 0 0 0 0];

internalField   nonuniform List<scalar> 
6820
(
-8.24322
-8.50077
-8.59839
-8.61911
-8.65235
-8.69768
-8.73932
-8.7755
-8.80923
-8.84137
-8.87145
-8.89936
-8.92536
-8.9497
-8.97256
-8.99412
-9.01452
-9.03393
-9.05247
-9.07027
-9.08743
-9.10405
-9.1202
-9.13598
-9.15143
-9.16663
-9.18164
-9.1965
-9.21131
-9.22594
-9.24133
-9.25519
-9.2853
-8.356
-8.52206
-8.60078
-8.62167
-8.64861
-8.68389
-8.71552
-8.74245
-8.76777
-8.79253
-8.81642
-8.83933
-8.8614
-8.8828
-8.90357
-8.92376
-8.9434
-8.96256
-8.98126
-8.99956
-9.01749
-9.03509
-9.05239
-9.06943
-9.08625
-9.10287
-9.11935
-9.1357
-9.152
-9.16823
-9.18461
-9.20113
-9.21783
-8.41226
-8.51697
-8.595
-8.62691
-8.65512
-8.68834
-8.7188
-8.74513
-8.76978
-8.79372
-8.81674
-8.83873
-8.85982
-8.88015
-8.89978
-8.91878
-8.93719
-8.95507
-8.97249
-8.98948
-9.0061
-9.0224
-9.0384
-9.05415
-9.0697
-9.08507
-9.1003
-9.11544
-9.13053
-9.14556
-9.16074
-9.17563
-9.19116
-8.46204
-8.53704
-8.60969
-8.64486
-8.67234
-8.70392
-8.73396
-8.76031
-8.78472
-8.80815
-8.83053
-8.85179
-8.87208
-8.89158
-8.91036
-8.92851
-8.9461
-8.96318
-8.97983
-8.99609
-9.01201
-9.02763
-9.043
-9.05814
-9.0731
-9.08791
-9.1026
-9.11721
-9.13179
-9.14633
-9.16093
-9.17551
-9.19016
-8.50353
-8.55477
-8.61498
-8.64984
-8.6771
-8.70736
-8.73661
-8.76264
-8.7868
-8.81001
-8.83229
-8.85358
-8.87399
-8.89366
-8.91267
-8.93107
-8.94891
-8.96625
-8.98315
-8.99964
-9.01576
-9.03156
-9.04708
-9.06234
-9.07739
-9.09226
-9.10699
-9.1216
-9.13613
-9.15062
-9.16511
-9.17963
-9.19423
-8.53832
-8.57418
-8.62502
-8.66031
-8.68798
-8.71704
-8.74539
-8.77112
-8.79508
-8.81809
-8.84017
-8.86126
-8.88148
-8.90093
-8.9197
-8.93784
-8.95541
-8.97247
-8.98908
-9.00528
-9.02111
-9.03662
-9.05184
-9.06682
-9.08158
-9.09617
-9.1106
-9.12492
-9.13916
-9.15335
-9.16753
-9.18176
-9.1961
-8.56817
-8.59373
-8.63562
-8.6688
-8.69528
-8.72238
-8.74929
-8.77423
-8.7976
-8.82008
-8.84171
-8.86247
-8.88243
-8.9017
-8.92034
-8.93841
-8.95595
-8.97301
-8.98964
-9.00589
-9.02178
-9.03735
-9.05263
-9.06767
-9.08248
-9.09709
-9.11155
-9.12586
-9.14008
-9.15421
-9.16831
-9.18241
-9.19656
-8.5941
-8.61268
-8.6471
-8.67795
-8.70368
-8.72956
-8.75548
-8.77989
-8.80291
-8.82506
-8.84643
-8.86699
-8.8868
-8.90593
-8.92445
-8.94239
-8.95981
-8.97675
-8.99324
-9.00934
-9.02507
-9.04048
-9.05559
-9.07043
-9.08504
-9.09944
-9.11366
-9.12773
-9.14167
-9.15551
-9.16927
-9.183
-9.19669
-8.61696
-8.63079
-8.65909
-8.68719
-8.71165
-8.73596
-8.76043
-8.78385
-8.80613
-8.82763
-8.84845
-8.86856
-8.88798
-8.90679
-8.92502
-8.94273
-8.95995
-8.97672
-8.99307
-9.00905
-9.02468
-9.03999
-9.05501
-9.06977
-9.0843
-9.09861
-9.11273
-9.12669
-9.14049
-9.15417
-9.16774
-9.18122
-9.19462
-8.63733
-8.64787
-8.67123
-8.69654
-8.71962
-8.74256
-8.76582
-8.78843
-8.81014
-8.83118
-8.85162
-8.87142
-8.89061
-8.90922
-8.9273
-8.94487
-8.96197
-8.97862
-8.99487
-9.01073
-9.02625
-9.04144
-9.05633
-9.07095
-9.08531
-9.09944
-9.11337
-9.1271
-9.14065
-9.15405
-9.16729
-9.18038
-9.19331
-8.65566
-8.66387
-8.68329
-8.70592
-8.72752
-8.74909
-8.77106
-8.79268
-8.81363
-8.83401
-8.85387
-8.87319
-8.89195
-8.9102
-8.92795
-8.94523
-8.96206
-8.97848
-8.99451
-9.01018
-9.0255
-9.04051
-9.05522
-9.06966
-9.08385
-9.0978
-9.11153
-9.12506
-9.13838
-9.15153
-9.16449
-9.17726
-9.18985
-8.67228
-8.67879
-8.69508
-8.71525
-8.73533
-8.75557
-8.77632
-8.797
-8.81722
-8.837
-8.85637
-8.87528
-8.89371
-8.91167
-8.92918
-8.94626
-8.96292
-8.97918
-8.99506
-9.01058
-9.02577
-9.04064
-9.05522
-9.06951
-9.08353
-9.09731
-9.11084
-9.12415
-9.13723
-9.1501
-9.16275
-9.17516
-9.18732
-8.68741
-8.69267
-8.70647
-8.72443
-8.74301
-8.76198
-8.78156
-8.80126
-8.82071
-8.83983
-8.85862
-8.87704
-8.89503
-8.91261
-8.92978
-8.94655
-8.96293
-8.97892
-8.99456
-9.00985
-9.02481
-9.03946
-9.05381
-9.06787
-9.08167
-9.09521
-9.1085
-9.12154
-9.13435
-9.14691
-9.15923
-9.17131
-9.18311
-8.70124
-8.70555
-8.71735
-8.73338
-8.75051
-8.76827
-8.78673
-8.80548
-8.82416
-8.84264
-8.86087
-8.8788
-8.8964
-8.91363
-8.93049
-8.94699
-8.96312
-8.9789
-8.99433
-9.00944
-9.02421
-9.03868
-9.05286
-9.06674
-9.08035
-9.09368
-9.10676
-9.11957
-9.13212
-9.14442
-9.15644
-9.16818
-9.17961
-8.7139
-8.71747
-8.72767
-8.74201
-8.75779
-8.77441
-8.79181
-8.80964
-8.82755
-8.84537
-8.86303
-8.88046
-8.89762
-8.91445
-8.93096
-8.94714
-8.96298
-8.97848
-8.99365
-9.0085
-9.02303
-9.03726
-9.05119
-9.06483
-9.07818
-9.09126
-9.10406
-9.11659
-9.12884
-9.14082
-9.15252
-9.16392
-9.175
-8.72549
-8.72847
-8.73737
-8.75026
-8.7648
-8.78034
-8.79675
-8.8137
-8.83086
-8.84803
-8.86512
-8.88206
-8.89877
-8.91523
-8.93139
-8.94726
-8.96281
-8.97805
-8.99298
-9.0076
-9.0219
-9.03591
-9.04962
-9.06304
-9.07617
-9.08902
-9.10158
-9.11386
-9.12586
-9.13756
-9.14896
-9.16005
-9.17081
-8.73607
-8.73858
-8.74643
-8.75807
-8.77149
-8.78603
-8.80151
-8.81763
-8.83406
-8.8506
-8.86713
-8.88357
-8.89985
-8.9159
-8.93171
-8.94724
-8.96249
-8.97745
-8.9921
-9.00645
-9.0205
-9.03425
-9.04771
-9.06087
-9.07374
-9.08632
-9.09861
-9.1106
-9.1223
-9.13369
-9.14478
-9.15555
-9.16598
-8.74571
-8.74783
-8.75481
-8.76539
-8.77781
-8.79143
-8.80605
-8.82139
-8.83713
-8.85306
-8.86904
-8.885
-8.90083
-8.9165
-8.93194
-8.94715
-8.96209
-8.97676
-8.99114
-9.00524
-9.01904
-9.03254
-9.04575
-9.05867
-9.07129
-9.08362
-9.09565
-9.10738
-9.11881
-9.12993
-9.14074
-9.15122
-9.16135
-8.75443
-8.75624
-8.7625
-8.77218
-8.78371
-8.79649
-8.81033
-8.82495
-8.84003
-8.85537
-8.87083
-8.88631
-8.90172
-8.91699
-8.93208
-8.94696
-8.96159
-8.97597
-8.99007
-9.00389
-9.01742
-9.03067
-9.04362
-9.05627
-9.06863
-9.08069
-9.09245
-9.1039
-9.11504
-9.12587
-9.13638
-9.14657
-9.15641
-8.76225
-8.76381
-8.76947
-8.77839
-8.78914
-8.80118
-8.81431
-8.82825
-8.84273
-8.85752
-8.87248
-8.8875
-8.90249
-8.91739
-8.93212
-8.94667
-8.961
-8.97508
-8.9889
-9.00245
-9.01572
-9.02871
-9.0414
-9.0538
-9.0659
-9.0777
-9.0892
-9.10039
-9.11126
-9.12182
-9.13206
-9.14197
-9.15154
-8.76919
-8.77054
-8.77571
-8.78399
-8.79406
-8.80544
-8.81793
-8.83128
-8.84519
-8.85947
-8.87396
-8.88855
-8.90314
-8.91766
-8.93206
-8.94628
-8.9603
-8.97409
-8.98763
-9.00091
-9.01392
-9.02664
-9.03907
-9.05121
-9.06305
-9.07459
-9.08582
-9.09674
-9.10735
-9.11763
-9.1276
-9.13724
-9.14654
-8.77525
-8.77642
-8.78119
-8.78893
-8.79844
-8.80924
-8.82117
-8.83397
-8.84738
-8.86118
-8.87524
-8.88942
-8.90363
-8.9178
-8.93187
-8.94578
-8.9595
-8.973
-8.98627
-8.99928
-9.01202
-9.02449
-9.03666
-9.04854
-9.06012
-9.0714
-9.08238
-9.09304
-9.10338
-9.11341
-9.12312
-9.1325
-9.14155
-8.78041
-8.78144
-8.78589
-8.79319
-8.80222
-8.81254
-8.82398
-8.83631
-8.84926
-8.86264
-8.87629
-8.8901
-8.90396
-8.9178
-8.93154
-8.94515
-8.95859
-8.97181
-8.98481
-8.99756
-9.01004
-9.02224
-9.03416
-9.04579
-9.05712
-9.06815
-9.07887
-9.08928
-9.09937
-9.10915
-9.1186
-9.12774
-9.13655
-8.78465
-8.78557
-8.78977
-8.79672
-8.80537
-8.81528
-8.82631
-8.83823
-8.85079
-8.86379
-8.87709
-8.89055
-8.90409
-8.91761
-8.93106
-8.94439
-8.95754
-8.9705
-8.98323
-8.99572
-9.00795
-9.0199
-9.03157
-9.04295
-9.05403
-9.0648
-9.07527
-9.08543
-9.09527
-9.1048
-9.11401
-9.12291
-9.13148
-8.78792
-8.78877
-8.79278
-8.79948
-8.80782
-8.81741
-8.82811
-8.8397
-8.85193
-8.86461
-8.87759
-8.89075
-8.90399
-8.91723
-8.9304
-8.94346
-8.95635
-8.96906
-8.98154
-8.99378
-9.00576
-9.01747
-9.0289
-9.04004
-9.05088
-9.06142
-9.07166
-9.08158
-9.09119
-9.10049
-9.10948
-9.11815
-9.1265
-8.79018
-8.79098
-8.79486
-8.80138
-8.80952
-8.81887
-8.82932
-8.84065
-8.85261
-8.86502
-8.87773
-8.89063
-8.90361
-8.91659
-8.92951
-8.94232
-8.95496
-8.96742
-8.97966
-8.99165
-9.00339
-9.01486
-9.02605
-9.03695
-9.04755
-9.05784
-9.06784
-9.07752
-9.0869
-9.09596
-9.10471
-9.11316
-9.12129
-8.79135
-8.79213
-8.79595
-8.80236
-8.81038
-8.81959
-8.82987
-8.84101
-8.85277
-8.86497
-8.87747
-8.89015
-8.90291
-8.91567
-8.92836
-8.94094
-8.95337
-8.9656
-8.97762
-8.9894
-9.00092
-9.01217
-9.02315
-9.03383
-9.04421
-9.0543
-9.06408
-9.07356
-9.08273
-9.09158
-9.10014
-9.10838
-9.1163
-8.79136
-8.79215
-8.79597
-8.80239
-8.81038
-8.81954
-8.82974
-8.84078
-8.85242
-8.86447
-8.87681
-8.88931
-8.90188
-8.91444
-8.92693
-8.9393
-8.95151
-8.96352
-8.97532
-8.98687
-8.99816
-9.00918
-9.01992
-9.03037
-9.04053
-9.05038
-9.05993
-9.06918
-9.07812
-9.08675
-9.09508
-9.10312
-9.11085
-8.79011
-8.79096
-8.79487
-8.80139
-8.80948
-8.8187
-8.82892
-8.83995
-8.85154
-8.86353
-8.87577
-8.88815
-8.90059
-8.91301
-8.92535
-8.93756
-8.9496
-8.96144
-8.97306
-8.98444
-8.99555
-9.0064
-9.01696
-9.02722
-9.0372
-9.04687
-9.05624
-9.0653
-9.07406
-9.08252
-9.09067
-9.09852
-9.10605
-8.78748
-8.78843
-8.79253
-8.7993
-8.80761
-8.81702
-8.82737
-8.83848
-8.85012
-8.86209
-8.87428
-8.88657
-8.8989
-8.91118
-8.92335
-8.93539
-8.94725
-8.95889
-8.97031
-8.98147
-8.99237
-9.003
-9.01334
-9.02339
-9.03314
-9.04259
-9.05174
-9.06058
-9.06913
-9.07738
-9.08532
-9.09299
-9.10036
-8.78328
-8.7844
-8.78883
-8.79601
-8.80472
-8.81445
-8.82507
-8.83639
-8.84818
-8.86026
-8.87251
-8.88483
-8.89714
-8.90939
-8.92151
-8.93346
-8.94522
-8.95676
-8.96806
-8.9791
-8.98987
-9.00036
-9.01055
-9.02046
-9.03006
-9.03936
-9.04836
-9.05705
-9.06544
-9.07353
-9.08131
-9.08879
-9.09595
-8.77728
-8.77865
-8.78361
-8.79144
-8.80074
-8.81095
-8.82194
-8.83354
-8.84552
-8.85771
-8.86999
-8.88229
-8.89455
-8.90669
-8.91869
-8.93051
-8.94211
-8.95348
-8.9646
-8.97545
-8.98602
-8.99631
-9.00631
-9.01601
-9.02541
-9.03451
-9.04331
-9.0518
-9.06
-9.0679
-9.07552
-9.08285
-9.08991
-8.76917
-8.77092
-8.77668
-8.78546
-8.79561
-8.80653
-8.81815
-8.8303
-8.84273
-8.85525
-8.86779
-8.88028
-8.89265
-8.90487
-8.9169
-8.9287
-8.94027
-8.95158
-8.96262
-8.97338
-8.98386
-8.99403
-9.00391
-9.01349
-9.02276
-9.03172
-9.04038
-9.04874
-9.05679
-9.06454
-9.07198
-9.07912
-9.08594
-8.75846
-8.76081
-8.76784
-8.77799
-8.78917
-8.80081
-8.81298
-8.82556
-8.83829
-8.851
-8.86365
-8.87619
-8.88857
-8.90075
-8.91271
-8.92442
-8.93588
-8.94706
-8.95796
-8.96857
-8.97888
-8.9889
-8.99861
-9.00802
-9.01713
-9.02593
-9.03442
-9.04262
-9.05052
-9.05813
-9.06545
-9.0725
-9.07929
-8.74445
-8.74777
-8.75684
-8.76918
-8.78211
-8.79517
-8.80855
-8.8221
-8.83552
-8.84873
-8.86173
-8.87451
-8.88704
-8.8993
-8.91128
-8.92297
-8.93438
-8.94549
-8.95631
-8.96681
-8.97701
-8.9869
-8.99648
-9.00575
-9.0147
-9.02335
-9.03169
-9.03972
-9.04745
-9.05487
-9.062
-9.06881
-9.07531
-8.72606
-8.73115
-8.74324
-8.75774
-8.77169
-8.78556
-8.79984
-8.81415
-8.82811
-8.8417
-8.855
-8.86798
-8.88063
-8.89295
-8.90494
-8.91662
-8.92797
-8.939
-8.94972
-8.96012
-8.9702
-8.97998
-8.98944
-8.99859
-9.00743
-9.01597
-9.0242
-9.03213
-9.03977
-9.04711
-9.05417
-9.06096
-9.06749
-8.70113
-8.71028
-8.72968
-8.74942
-8.76585
-8.78125
-8.79677
-8.81188
-8.82626
-8.84005
-8.85344
-8.86643
-8.87904
-8.89127
-8.90315
-8.91468
-8.92588
-8.93675
-8.94728
-8.95749
-8.96738
-8.97695
-8.98619
-8.99513
-9.00375
-9.01206
-9.02006
-9.02776
-9.03517
-9.04227
-9.04909
-9.05562
-9.06184
-8.66619
-8.67985
-8.70548
-8.72874
-8.7477
-8.76571
-8.78335
-8.7998
-8.81501
-8.82939
-8.84315
-8.85635
-8.86903
-8.88126
-8.89308
-8.90453
-8.91563
-8.9264
-8.93684
-8.94696
-8.95677
-8.96627
-8.97546
-8.98435
-8.99294
-9.00123
-9.00922
-9.01691
-9.02431
-9.03142
-9.03822
-9.04471
-9.05087
-8.6188
-8.66646
-8.70584
-8.72611
-8.74238
-8.76073
-8.77869
-8.79464
-8.80919
-8.82312
-8.83655
-8.84944
-8.86181
-8.87374
-8.88529
-8.89648
-8.90732
-8.91783
-8.92802
-8.9379
-8.94747
-8.95675
-8.96573
-8.97442
-8.98282
-8.99095
-8.99879
-9.00637
-9.01368
-9.02076
-9.02763
-9.03432
-9.04088
-8.48447
-8.60665
-8.68131
-8.70553
-8.72185
-8.74287
-8.76335
-8.78055
-8.79588
-8.81069
-8.82522
-8.83933
-8.85305
-8.86646
-8.87961
-8.89248
-8.90508
-8.91739
-8.92941
-8.94113
-8.95254
-8.96363
-8.97439
-8.98482
-8.99491
-9.00467
-9.01409
-9.02316
-9.03188
-9.04025
-9.04828
-9.05593
-9.06332
-9.33277
-9.48877
-9.70616
-9.81054
-9.92126
-10.0274
-10.1089
-10.1721
-10.2216
-10.2579
-10.2824
-10.2968
-10.3031
-10.3036
-10.3002
-10.2953
-10.2894
-10.2806
-10.2757
-10.2791
-10.2915
-10.3122
-10.3398
-10.3727
-10.409
-10.4471
-10.4855
-10.5231
-10.5591
-10.593
-10.6238
-10.6506
-10.6727
-10.6895
-10.7006
-10.7057
-10.7047
-10.6973
-10.6834
-10.6627
-10.6352
-10.6005
-10.5585
-10.509
-10.4519
-10.3869
-10.314
-10.2329
-10.1434
-10.0454
-9.93861
-9.82278
-9.69772
-9.56325
-9.41922
-9.26553
-9.1021
-8.92895
-8.74612
-8.55372
-8.35195
-8.14107
-7.92141
-7.6934
-7.45754
-7.21442
-6.96471
-6.70913
-6.44847
-6.18351
-5.9151
-5.64409
-5.37138
-5.09791
-4.82466
-4.55268
-4.28306
-4.01697
-3.75563
-3.50022
-3.25175
-3.01087
-2.77798
-2.5534
-2.33745
-2.1304
-1.93246
-1.74376
-1.5643
-1.39403
-1.23262
-1.07994
-0.9349
-0.797952
-0.665196
-0.541433
-0.410703
-0.302215
-0.14451
-0.0949491
-9.24815
-9.3008
-9.39299
-9.43907
-9.49246
-9.56011
-9.6266
-9.6901
-9.75073
-9.80589
-9.85382
-9.89413
-9.92726
-9.95412
-9.97611
-9.99536
-10.0142
-10.0291
-10.0448
-10.0655
-10.0928
-10.1265
-10.1654
-10.2083
-10.2535
-10.2994
-10.3447
-10.3883
-10.4297
-10.468
-10.5026
-10.5327
-10.5575
-10.5765
-10.5894
-10.596
-10.5961
-10.5896
-10.5763
-10.5562
-10.529
-10.4945
-10.4526
-10.4033
-10.3462
-10.2813
-10.2084
-10.1274
-10.0381
-9.94033
-9.83381
-9.71836
-9.5938
-9.45995
-9.31668
-9.1639
-9.00155
-8.82964
-8.64822
-8.45744
-8.25746
-8.04856
-7.83108
-7.60542
-7.3721
-7.1317
-6.88486
-6.6323
-6.37478
-6.11307
-5.848
-5.58041
-5.31117
-5.0412
-4.77147
-4.50299
-4.23682
-3.97409
-3.71598
-3.46361
-3.21795
-2.97964
-2.7491
-2.52667
-2.31266
-2.10735
-1.91093
-1.72355
-1.54519
-1.37584
-1.21516
-1.06306
-0.918442
-0.781821
-0.64933
-0.525934
-0.395783
-0.288593
-0.133532
-0.088115
-9.2096
-9.23099
-9.27552
-9.30304
-9.32637
-9.35901
-9.39439
-9.42927
-9.46437
-9.49899
-9.53207
-9.56315
-9.59216
-9.61945
-9.64586
-9.67284
-9.70164
-9.73145
-9.7626
-9.79785
-9.8386
-9.88473
-9.93533
-9.98904
-10.0443
-10.0996
-10.1536
-10.2053
-10.2538
-10.2987
-10.3391
-10.3742
-10.4036
-10.4267
-10.4432
-10.453
-10.4558
-10.4517
-10.4406
-10.4223
-10.3966
-10.3636
-10.3231
-10.2749
-10.219
-10.1552
-10.0835
-10.0036
-9.91539
-9.81875
-9.71345
-9.59931
-9.47616
-9.34383
-9.20221
-9.05121
-8.89078
-8.72095
-8.54178
-8.35338
-8.15597
-7.9498
-7.7352
-7.51259
-7.28247
-7.0454
-6.80203
-6.55304
-6.29916
-6.04119
-5.77989
-5.51611
-5.2507
-4.98455
-4.7186
-4.45385
-4.19132
-3.93212
-3.67736
-3.42811
-3.18532
-2.94962
-2.72146
-2.50116
-2.28907
-2.08544
-1.89049
-1.70434
-1.52701
-1.35849
-1.19845
-1.04682
-0.902537
-0.766151
-0.633868
-0.510758
-0.38124
-0.275203
-0.12318
-0.0811453
-9.20748
-9.23054
-9.26687
-9.29499
-9.31387
-9.33442
-9.35487
-9.37228
-9.38764
-9.40175
-9.41452
-9.42614
-9.43719
-9.4485
-9.46114
-9.47651
-9.49593
-9.51996
-9.54785
-9.58113
-9.6209
-9.667
-9.71847
-9.77393
-9.83176
-9.89034
-9.94821
-10.0042
-10.0573
-10.1068
-10.1517
-10.1913
-10.225
-10.2523
-10.2727
-10.2862
-10.2925
-10.2916
-10.2834
-10.2678
-10.2448
-10.2141
-10.1759
-10.1299
-10.076
-10.0143
-9.94451
-9.8666
-9.78041
-9.68577
-9.58253
-9.47051
-9.34954
-9.2195
-9.08026
-8.93176
-8.77395
-8.60687
-8.43059
-8.24522
-8.05098
-7.84811
-7.63697
-7.41794
-7.19152
-6.95826
-6.71878
-6.47376
-6.22392
-5.97
-5.71278
-5.45307
-5.1917
-4.92956
-4.66755
-4.40665
-4.14786
-3.89224
-3.64086
-3.39476
-3.15483
-2.92172
-2.69587
-2.47765
-2.26739
-2.06535
-1.87175
-1.68673
-1.51032
-1.34249
-1.18297
-1.03169
-0.887625
-0.751356
-0.619202
-0.496266
-0.367412
-0.262328
-0.113685
-0.0741893
-9.21184
-9.23389
-9.26165
-9.28527
-9.30209
-9.31893
-9.33601
-9.35083
-9.36334
-9.37395
-9.38244
-9.38884
-9.39362
-9.39763
-9.40197
-9.40805
-9.41733
-9.43075
-9.44859
-9.47195
-9.50178
-9.53815
-9.58039
-9.6274
-9.67782
-9.73021
-9.78317
-9.8355
-9.88613
-9.93409
-9.97842
-10.0182
-10.0527
-10.0812
-10.1034
-10.1188
-10.1272
-10.1286
-10.1227
-10.1094
-10.0887
-10.0604
-10.0244
-9.9806
-9.92901
-9.8695
-9.80197
-9.7263
-9.64238
-9.55005
-9.44918
-9.33959
-9.22114
-9.09372
-8.95721
-8.81155
-8.65672
-8.49274
-8.31968
-8.13769
-7.94694
-7.74771
-7.54031
-7.32515
-7.10269
-6.87348
-6.63812
-6.39726
-6.1516
-5.90188
-5.64885
-5.39329
-5.13604
-4.87795
-4.6199
-4.36285
-4.10777
-3.85568
-3.60763
-3.36459
-3.12743
-2.89681
-2.67318
-2.45692
-2.24836
-2.04777
-1.85538
-1.67134
-1.49568
-1.3284
-1.16924
-1.01816
-0.874167
-0.737871
-0.605739
-0.482846
-0.354643
-0.250305
-0.105232
-0.0675049
-9.21321
-9.23378
-9.2574
-9.27979
-9.29799
-9.31503
-9.33156
-9.34585
-9.3575
-9.36681
-9.37381
-9.3786
-9.38165
-9.38369
-9.38571
-9.38886
-9.39434
-9.40309
-9.41575
-9.433
-9.45563
-9.48384
-9.51723
-9.55499
-9.59608
-9.63935
-9.68365
-9.72795
-9.77131
-9.8128
-9.85152
-9.88661
-9.91727
-9.94284
-9.9628
-9.97673
-9.9843
-9.98525
-9.97936
-9.96645
-9.94634
-9.9189
-9.88398
-9.84147
-9.79128
-9.73329
-9.66739
-9.59347
-9.5114
-9.42104
-9.32225
-9.21487
-9.09876
-8.97381
-8.83992
-8.69702
-8.5451
-8.38418
-8.21432
-8.03567
-7.84841
-7.65279
-7.44913
-7.23781
-7.01929
-6.7941
-6.56281
-6.32607
-6.08455
-5.83896
-5.59004
-5.33857
-5.08533
-4.83118
-4.57699
-4.32367
-4.07217
-3.82348
-3.5786
-3.33847
-3.10395
-2.87566
-2.65409
-2.43961
-2.23258
-2.03328
-1.84193
-1.65869
-1.4836
-1.31669
-1.15772
-1.00666
-0.862579
-0.726098
-0.593863
-0.470861
-0.343261
-0.239437
-0.0980103
-0.061304
-9.21325
-9.23301
-9.25433
-9.27496
-9.29256
-9.30844
-9.32342
-9.33662
-9.34762
-9.35661
-9.36367
-9.36888
-9.37257
-9.37535
-9.378
-9.38146
-9.38672
-9.39461
-9.40578
-9.42076
-9.44017
-9.46421
-9.49255
-9.52455
-9.55932
-9.59591
-9.63333
-9.67071
-9.70718
-9.74197
-9.77426
-9.80331
-9.8284
-9.84894
-9.86443
-9.87445
-9.87866
-9.87677
-9.86854
-9.85374
-9.83217
-9.80365
-9.76801
-9.72511
-9.67482
-9.61699
-9.5515
-9.47821
-9.39699
-9.30768
-9.21014
-9.10421
-8.98975
-8.86664
-8.73478
-8.59411
-8.44461
-8.28629
-8.11922
-7.94352
-7.75938
-7.56703
-7.36678
-7.15899
-6.94412
-6.72267
-6.49519
-6.2623
-6.02465
-5.78295
-5.53791
-5.29027
-5.04084
-4.79041
-4.53984
-4.29003
-4.0419
-3.79639
-3.55448
-3.31707
-3.08497
-2.85883
-2.63912
-2.42625
-2.22056
-2.02234
-1.83183
-1.64919
-1.47449
-1.30776
-1.14879
-0.997566
-0.853232
-0.716396
-0.583916
-0.460644
-0.333563
-0.230013
-0.0921721
-0.055802
-9.21265
-9.23137
-9.25089
-9.26986
-9.28691
-9.30244
-9.31702
-9.33014
-9.34135
-9.35068
-9.3582
-9.364
-9.36839
-9.37189
-9.3752
-9.37914
-9.38455
-9.39218
-9.40262
-9.4164
-9.43397
-9.45548
-9.48066
-9.50897
-9.53963
-9.57181
-9.60463
-9.63727
-9.66894
-9.69888
-9.72636
-9.75068
-9.77121
-9.78739
-9.79875
-9.80491
-9.80553
-9.80036
-9.78913
-9.77164
-9.74769
-9.71708
-9.67967
-9.63528
-9.58377
-9.525
-9.45884
-9.38513
-9.30373
-9.21449
-9.11725
-9.01186
-8.89818
-8.77609
-8.64548
-8.5063
-8.3585
-8.20211
-8.03719
-7.86384
-7.68223
-7.49261
-7.29524
-7.0905
-6.87881
-6.66064
-6.43654
-6.20711
-5.97296
-5.73478
-5.49327
-5.24915
-5.0032
-4.75619
-4.50897
-4.2624
-4.01738
-3.77481
-3.53563
-3.3007
-3.07082
-2.84661
-2.62857
-2.41709
-2.21255
-2.01522
-1.82536
-1.64314
-1.46863
-1.30189
-1.14273
-0.991166
-0.846402
-0.709041
-0.576169
-0.45246
-0.325788
-0.222265
-0.0878297
-0.0511731
-9.21019
-9.22811
-9.24641
-9.26423
-9.28072
-9.29584
-9.30985
-9.32249
-9.33345
-9.34271
-9.3504
-9.35664
-9.36171
-9.36606
-9.3703
-9.37509
-9.38115
-9.38912
-9.39953
-9.41284
-9.42937
-9.44926
-9.47229
-9.49799
-9.5257
-9.55467
-9.58413
-9.6133
-9.64145
-9.66786
-9.69183
-9.71272
-9.72991
-9.74289
-9.75118
-9.75441
-9.75226
-9.74445
-9.73074
-9.71093
-9.68481
-9.65222
-9.61298
-9.56695
-9.51398
-9.45394
-9.38668
-9.31208
-9.22998
-9.14024
-9.04272
-8.93726
-8.82373
-8.70202
-8.57202
-8.43368
-8.28696
-8.13188
-7.96848
-7.79688
-7.61724
-7.42977
-7.23476
-7.03255
-6.82353
-6.60818
-6.387
-6.16059
-5.92953
-5.69449
-5.45615
-5.2152
-4.9724
-4.72852
-4.48436
-4.24076
-3.99858
-3.7587
-3.52202
-3.28936
-3.06149
-2.83902
-2.62245
-2.41219
-2.2086
-2.01199
-1.8226
-1.64062
-1.46613
-1.29921
-1.13969
-0.987613
-0.842256
-0.70421
-0.570803
-0.446496
-0.320099
-0.216361
-0.0850413
-0.0475475
-9.20813
-9.2252
-9.2424
-9.25921
-9.27494
-9.28953
-9.30306
-9.31541
-9.32636
-9.33586
-9.34399
-9.35086
-9.35673
-9.36197
-9.36708
-9.37264
-9.37926
-9.38749
-9.39781
-9.41062
-9.42619
-9.44464
-9.46578
-9.48921
-9.51434
-9.54053
-9.56708
-9.59328
-9.61845
-9.64189
-9.66296
-9.68103
-9.69553
-9.70595
-9.71182
-9.71278
-9.7085
-9.69868
-9.6831
-9.66153
-9.63377
-9.59965
-9.559
-9.51167
-9.45752
-9.39641
-9.32821
-9.25279
-9.17
-9.07972
-8.9818
-8.87611
-8.76252
-8.64093
-8.51126
-8.37344
-8.22745
-8.0733
-7.91105
-7.7408
-7.56272
-7.37701
-7.18394
-6.98385
-6.77712
-6.5642
-6.34559
-6.12183
-5.89353
-5.66131
-5.42582
-5.18776
-4.94784
-4.70682
-4.46547
-4.22461
-3.98505
-3.74766
-3.51328
-3.28271
-3.05667
-2.83578
-2.62053
-2.41134
-2.20857
-2.01252
-1.82345
-1.64155
-1.46694
-1.29968
-1.13967
-0.986929
-0.840839
-0.701965
-0.567891
-0.442836
-0.31657
-0.212383
-0.0838012
-0.044992
-9.2043
-9.22068
-9.23706
-9.25306
-9.26819
-9.28233
-9.29554
-9.30765
-9.31854
-9.32814
-9.33652
-9.34382
-9.35024
-9.35614
-9.36194
-9.36814
-9.37526
-9.38377
-9.39409
-9.40656
-9.42142
-9.43871
-9.45831
-9.47983
-9.50279
-9.52662
-9.55067
-9.57431
-9.59689
-9.61777
-9.63633
-9.65198
-9.66418
-9.67242
-9.67627
-9.67534
-9.66931
-9.65787
-9.64079
-9.61784
-9.58881
-9.55352
-9.5118
-9.4635
-9.40847
-9.34658
-9.27768
-9.20166
-9.11838
-9.0277
-8.9295
-8.82365
-8.71005
-8.5886
-8.45921
-8.32184
-8.17648
-8.02314
-7.86188
-7.69281
-7.51609
-7.33193
-7.14059
-6.94239
-6.73771
-6.52699
-6.3107
-6.08938
-5.8636
-5.63398
-5.40114
-5.16576
-4.92853
-4.69018
-4.45147
-4.21318
-3.97609
-3.74104
-3.50882
-3.2802
-3.05587
-2.83645
-2.62241
-2.41417
-2.2121
-2.01651
-1.82765
-1.64572
-1.47087
-1.30316
-1.14253
-0.989015
-0.842075
-0.702256
-0.567399
-0.441466
-0.31518
-0.210325
-0.084039
-0.043506
-9.20113
-9.21683
-9.23245
-9.2477
-9.26227
-9.27595
-9.28876
-9.30062
-9.3114
-9.32107
-9.3297
-9.3374
-9.34437
-9.3509
-9.35735
-9.36414
-9.3717
-9.38044
-9.39073
-9.40283
-9.41697
-9.43315
-9.45127
-9.47101
-9.49193
-9.51352
-9.53522
-9.55644
-9.57658
-9.59504
-9.61124
-9.62463
-9.63467
-9.64088
-9.64285
-9.64018
-9.63255
-9.61965
-9.60124
-9.57708
-9.54697
-9.5107
-9.46811
-9.41903
-9.36332
-9.30084
-9.23145
-9.15502
-9.07141
-8.98051
-8.88219
-8.77633
-8.66284
-8.54161
-8.41259
-8.27573
-8.13103
-7.97851
-7.81823
-7.65031
-7.47491
-7.29223
-7.10253
-6.90614
-6.70341
-6.49477
-6.28068
-6.06168
-5.83831
-5.61116
-5.38085
-5.14803
-4.91338
-4.6776
-4.44142
-4.2056
-3.97089
-3.73807
-3.50792
-3.28118
-3.05849
-2.84046
-2.62756
-2.42021
-2.21877
-2.02356
-1.83483
-1.65281
-1.47763
-1.30939
-1.14805
-0.993672
-0.845792
-0.704937
-0.569202
-0.442279
-0.315822
-0.210096
-0.0856244
-0.0430216
-9.19655
-9.21168
-9.22667
-9.24131
-9.25537
-9.26868
-9.28115
-9.29278
-9.3035
-9.31325
-9.32208
-9.33011
-9.33751
-9.34452
-9.35145
-9.35867
-9.36654
-9.37541
-9.38559
-9.39731
-9.41074
-9.42592
-9.44272
-9.46084
-9.47991
-9.49947
-9.51903
-9.53804
-9.55595
-9.5722
-9.58624
-9.59755
-9.60561
-9.60998
-9.61022
-9.60597
-9.59689
-9.58268
-9.56308
-9.53785
-9.50678
-9.46966
-9.42633
-9.37661
-9.32036
-9.25742
-9.18766
-9.11094
-9.02715
-8.93615
-8.83782
-8.73207
-8.61878
-8.49788
-8.36931
-8.23304
-8.08907
-7.93742
-7.77816
-7.61142
-7.43735
-7.25615
-7.06809
-6.87347
-6.67267
-6.46607
-6.25416
-6.03742
-5.81641
-5.59168
-5.36385
-5.13355
-4.90142
-4.66816
-4.43447
-4.20106
-3.96867
-3.73805
-3.50994
-3.28502
-3.06394
-2.84727
-2.63547
-2.42897
-2.22813
-2.03325
-1.84462
-1.66244
-1.48688
-1.31805
-1.15595
-1.00064
-0.851759
-0.709797
-0.573104
-0.445098
-0.318323
-0.211539
-0.0883835
-0.0434166
-9.19252
-9.2071
-9.22151
-9.23559
-9.24915
-9.26206
-9.27421
-9.28558
-9.29618
-9.30596
-9.31494
-9.32322
-9.33096
-9.33837
-9.3457
-9.35327
-9.36138
-9.37033
-9.38036
-9.39169
-9.40444
-9.41863
-9.43415
-9.45073
-9.46804
-9.48567
-9.50318
-9.52008
-9.53584
-9.54996
-9.56191
-9.57119
-9.57734
-9.5799
-9.57846
-9.57266
-9.56216
-9.54667
-9.52591
-9.49965
-9.46766
-9.42975
-9.38572
-9.33542
-9.27867
-9.21534
-9.14528
-9.06836
-8.98445
-8.89343
-8.79519
-8.68961
-8.57662
-8.45613
-8.32809
-8.19248
-8.0493
-7.89858
-7.7404
-7.57488
-7.40217
-7.22249
-7.03609
-6.84327
-6.64439
-6.43985
-6.2301
-6.01563
-5.79696
-5.57465
-5.34929
-5.12148
-4.89187
-4.66112
-4.42989
-4.19888
-3.96881
-3.74037
-3.51428
-3.29118
-3.0717
-2.85638
-2.64568
-2.44002
-2.23975
-2.0452
-1.85663
-1.67427
-1.4983
-1.32884
-1.16593
-1.00966
-0.859716
-0.716596
-0.578879
-0.44971
-0.322469
-0.214455
-0.0921193
-0.0445341
-9.18756
-9.20163
-9.21553
-9.22911
-9.24223
-9.25478
-9.26666
-9.27783
-9.28829
-9.29806
-9.30715
-9.31564
-9.32364
-9.33135
-9.33898
-9.3468
-9.35504
-9.36397
-9.37379
-9.38468
-9.39673
-9.40996
-9.42424
-9.43937
-9.45501
-9.47084
-9.48643
-9.50134
-9.51508
-9.52719
-9.53717
-9.54456
-9.54889
-9.54974
-9.54672
-9.53945
-9.52762
-9.51092
-9.48908
-9.46186
-9.42903
-9.39038
-9.34572
-9.29489
-9.23772
-9.17405
-9.10375
-9.02668
-8.94272
-8.85174
-8.75363
-8.6483
-8.53566
-8.41564
-8.28819
-8.15329
-8.01095
-7.86121
-7.70415
-7.53989
-7.36858
-7.19045
-7.00573
-6.81474
-6.61781
-6.41534
-6.20777
-5.99558
-5.77927
-5.55939
-5.3365
-5.11121
-4.88412
-4.65588
-4.42713
-4.19853
-3.97078
-3.74454
-3.52046
-3.2992
-3.08133
-2.86737
-2.65778
-2.45297
-2.25328
-2.05904
-1.87053
-1.68798
-1.51157
-1.34147
-1.17772
-1.02044
-0.869414
-0.725094
-0.586294
-0.455893
-0.328037
-0.218633
-0.0966334
-0.0462068
-9.18293
-9.19654
-9.20997
-9.2231
-9.23581
-9.24801
-9.25963
-9.27061
-9.28094
-9.29064
-9.29976
-9.30837
-9.31656
-9.32447
-9.33231
-9.34027
-9.34857
-9.35742
-9.36698
-9.37741
-9.38876
-9.40104
-9.41414
-9.42786
-9.44193
-9.45602
-9.46977
-9.48277
-9.49458
-9.50474
-9.51281
-9.51834
-9.52089
-9.52007
-9.51548
-9.50676
-9.4936
-9.4757
-9.45278
-9.42459
-9.3909
-9.35152
-9.30624
-9.25489
-9.19729
-9.13331
-9.06279
-8.98559
-8.9016
-8.81069
-8.71276
-8.60771
-8.49546
-8.37594
-8.24911
-8.11496
-7.9735
-7.82478
-7.66888
-7.50591
-7.33605
-7.15949
-6.97649
-6.78734
-6.59238
-6.39201
-6.18664
-5.97675
-5.76282
-5.54538
-5.325
-5.10224
-4.87769
-4.65198
-4.42573
-4.19957
-3.97416
-3.75013
-3.5281
-3.3087
-3.09246
-2.87989
-2.67143
-2.46748
-2.26839
-2.07448
-1.88603
-1.70329
-1.52644
-1.35568
-1.19107
-1.03278
-0.880626
-0.735073
-0.595134
-0.463436
-0.334815
-0.22387
-0.101746
-0.0482824
-9.17776
-9.19093
-9.20392
-9.21663
-9.22896
-9.24083
-9.25219
-9.26298
-9.27319
-9.28282
-9.29193
-9.30059
-9.30889
-9.31694
-9.3249
-9.33293
-9.3412
-9.34989
-9.35915
-9.36908
-9.37971
-9.39103
-9.40297
-9.41535
-9.4279
-9.44035
-9.45236
-9.46355
-9.4735
-9.48182
-9.48806
-9.49181
-9.49267
-9.49023
-9.48413
-9.47402
-9.45958
-9.44051
-9.41655
-9.38743
-9.35294
-9.31285
-9.26697
-9.21513
-9.15715
-9.09287
-9.02216
-8.94487
-8.86088
-8.77007
-8.67234
-8.5676
-8.45576
-8.33677
-8.2106
-8.07723
-7.93668
-7.789
-7.63427
-7.47262
-7.30422
-7.12925
-6.94799
-6.7607
-6.56774
-6.36948
-6.16633
-5.95875
-5.74722
-5.53226
-5.31439
-5.09418
-4.87221
-4.64906
-4.42533
-4.20164
-3.97859
-3.7568
-3.53686
-3.31934
-3.10477
-2.89362
-2.68633
-2.48328
-2.28481
-2.09125
-1.90288
-1.71995
-1.54267
-1.37124
-1.20578
-1.04645
-0.893153
-0.746341
-0.60521
-0.472158
-0.34262
-0.229999
-0.107314
-0.0506479
-9.17276
-9.18553
-9.19812
-9.21044
-9.22242
-9.23399
-9.2451
-9.2557
-9.26577
-9.27533
-9.2844
-9.29305
-9.30138
-9.30948
-9.31749
-9.3255
-9.33368
-9.34215
-9.35104
-9.36043
-9.37032
-9.38071
-9.39153
-9.40262
-9.41374
-9.42463
-9.43497
-9.44441
-9.45259
-9.45912
-9.46359
-9.46562
-9.46481
-9.46079
-9.45321
-9.44171
-9.42599
-9.40576
-9.38075
-9.3507
-9.31538
-9.27458
-9.22809
-9.17575
-9.11737
-9.0528
-8.98188
-8.9045
-8.82051
-8.7298
-8.63228
-8.52785
-8.41644
-8.298
-8.17249
-8.03991
-7.90028
-7.75365
-7.60012
-7.4398
-7.27286
-7.09951
-6.91998
-6.73457
-6.54362
-6.34748
-6.14656
-5.94131
-5.73219
-5.51971
-5.30439
-5.08676
-4.86738
-4.64681
-4.42563
-4.20443
-3.98379
-3.76427
-3.54644
-3.33085
-3.11798
-2.90829
-2.7022
-2.50009
-2.30228
-2.10909
-1.92082
-1.73772
-1.56002
-1.38794
-1.22162
-1.06125
-0.906801
-0.758713
-0.616345
-0.481889
-0.351289
-0.236874
-0.113222
-0.0532302
-9.16749
-9.17988
-9.19208
-9.20403
-9.21567
-9.22694
-9.23779
-9.24819
-9.25812
-9.26758
-9.27659
-9.28519
-9.29348
-9.30155
-9.30951
-9.31745
-9.32547
-9.33368
-9.34216
-9.35097
-9.36013
-9.36962
-9.37937
-9.38922
-9.39896
-9.40835
-9.41709
-9.42487
-9.43135
-9.43617
-9.43894
-9.4393
-9.43689
-9.43134
-9.4223
-9.40946
-9.3925
-9.37113
-9.34509
-9.31412
-9.27799
-9.23649
-9.18942
-9.13658
-9.07782
-9.01296
-8.94186
-8.86438
-8.78041
-8.68982
-8.59251
-8.4884
-8.37743
-8.25954
-8.1347
-8.00292
-7.86421
-7.71865
-7.56631
-7.40732
-7.24185
-7.0701
-6.89232
-6.70879
-6.51984
-6.32582
-6.12714
-5.92422
-5.71753
-5.50755
-5.29478
-5.07974
-4.86297
-4.64501
-4.42641
-4.20772
-3.9895
-3.77229
-3.55661
-3.34297
-3.13184
-2.92366
-2.71881
-2.51766
-2.32053
-2.12775
-1.9396
-1.75636
-1.57826
-1.40553
-1.23836
-1.07696
-0.921357
-0.771984
-0.628344
-0.492445
-0.360651
-0.244349
-0.119364
-0.0559789
-9.16229
-9.17432
-9.18617
-9.19778
-9.20911
-9.22009
-9.2307
-9.24089
-9.25066
-9.25999
-9.26892
-9.27746
-9.28567
-9.29364
-9.30146
-9.30924
-9.31702
-9.32491
-9.33294
-9.34118
-9.34964
-9.35827
-9.36698
-9.37564
-9.38406
-9.39202
-9.39924
-9.40543
-9.41027
-9.41344
-9.41457
-9.41332
-9.40934
-9.40229
-9.39184
-9.37766
-9.35947