/*--------------------------------*- C++ -*----------------------------------*\
| =========                 |                                                 |
| \\      /  F ield         | OpenFOAM: The Open Source CFD Toolbox           |
|  \\    /   O peration     | Version:  4.1                                   |
|   \\  /    A nd           | Web:      www.OpenFOAM.org                      |
|    \\/     M anipulation  |                                                 |
\*---------------------------------------------------------------------------*/
FoamFile
{
    version     2.0;
    format      ascii;
    class       volVectorField;
    location    "1300";
    object      U;
}
// * * * * * * * * * * * * * * * * * * * * * * * * * * * * * * * * * * * * * //

dimensions      [0 1 -1 0 0 0 0];

internalField   nonuniform List<vector> 
6820
(
(7.2813 0.0192603 0)
(7.18936 0.0329224 0)
(7.0895 0.0360689 0)
(6.98491 0.0374729 0)
(6.88226 0.0387345 0)
(6.7831 0.0397556 0)
(6.68718 0.0405158 0)
(6.59472 0.0410297 0)
(6.50618 0.0412713 0)
(6.42176 0.0412187 0)
(6.34144 0.0408782 0)
(6.26513 0.040277 0)
(6.19273 0.0394507 0)
(6.12412 0.0384369 0)
(6.05912 0.037272 0)
(5.99759 0.0359901 0)
(5.93935 0.0346214 0)
(5.88423 0.0331921 0)
(5.8321 0.0317243 0)
(5.78279 0.0302364 0)
(5.73617 0.0287434 0)
(5.6921 0.0272573 0)
(5.65046 0.0257874 0)
(5.61112 0.0243411 0)
(5.57397 0.0229237 0)
(5.53892 0.0215394 0)
(5.50586 0.0201903 0)
(5.47471 0.0188808 0)
(5.44534 0.0176026 0)
(5.41784 0.0163865 0)
(5.39149 0.0151667 0)
(5.36902 0.0139104 0)
(5.34246 0.0139887 0)
(7.35129 0.0206776 0)
(7.39587 0.0322614 0)
(7.42787 0.0326355 0)
(7.44987 0.0332017 0)
(7.46739 0.0343599 0)
(7.48118 0.0351444 0)
(7.49064 0.0355189 0)
(7.49593 0.0356541 0)
(7.49763 0.0356103 0)
(7.49622 0.0354081 0)
(7.49207 0.0350811 0)
(7.48557 0.0346671 0)
(7.47707 0.0341958 0)
(7.46691 0.0336874 0)
(7.45537 0.0331558 0)
(7.44272 0.0326108 0)
(7.42918 0.0320589 0)
(7.41493 0.0315041 0)
(7.40014 0.0309485 0)
(7.38495 0.0303933 0)
(7.36949 0.0298389 0)
(7.35385 0.0292852 0)
(7.33812 0.0287319 0)
(7.32238 0.0281782 0)
(7.30668 0.0276234 0)
(7.29109 0.0270671 0)
(7.27564 0.0265071 0)
(7.26038 0.0259469 0)
(7.24534 0.0253693 0)
(7.23055 0.0248334 0)
(7.21607 0.0241277 0)
(7.20165 0.0238789 0)
(7.18868 0.0219983 0)
(7.33498 0.0124972 0)
(7.34477 0.0201473 0)
(7.35181 0.021442 0)
(7.35496 0.0233119 0)
(7.35732 0.0252257 0)
(7.35979 0.0263816 0)
(7.362 0.0270188 0)
(7.36384 0.0274552 0)
(7.36547 0.0277918 0)
(7.36696 0.0280464 0)
(7.36826 0.0282374 0)
(7.36935 0.0283826 0)
(7.37019 0.0284909 0)
(7.37079 0.0285641 0)
(7.37113 0.0286024 0)
(7.3712 0.0286055 0)
(7.371 0.0285735 0)
(7.37054 0.0285065 0)
(7.36981 0.0284051 0)
(7.36883 0.0282699 0)
(7.36761 0.028102 0)
(7.36615 0.0279026 0)
(7.36447 0.027673 0)
(7.36258 0.0274146 0)
(7.3605 0.0271284 0)
(7.35825 0.0268158 0)
(7.35584 0.0264774 0)
(7.35328 0.0261148 0)
(7.3506 0.0257264 0)
(7.34781 0.0253146 0)
(7.34491 0.0248778 0)
(7.34192 0.0243638 0)
(7.33896 0.023932 0)
(7.3347 0.00985765 0)
(7.34304 0.0202391 0)
(7.35045 0.0247379 0)
(7.35468 0.0280675 0)
(7.35778 0.0307884 0)
(7.36077 0.0326924 0)
(7.36343 0.0340309 0)
(7.36564 0.0350515 0)
(7.36756 0.0358228 0)
(7.3693 0.0363545 0)
(7.37087 0.0366705 0)
(7.37229 0.0368044 0)
(7.37357 0.0367864 0)
(7.37473 0.0366419 0)
(7.37579 0.0363934 0)
(7.37676 0.036061 0)
(7.37765 0.0356621 0)
(7.37846 0.0352108 0)
(7.3792 0.034719 0)
(7.37987 0.0341961 0)
(7.38048 0.0336495 0)
(7.38103 0.033085 0)
(7.38153 0.032507 0)
(7.38198 0.0319187 0)
(7.38238 0.0313222 0)
(7.38275 0.030719 0)
(7.38307 0.0301093 0)
(7.38337 0.0294942 0)
(7.38365 0.0288698 0)
(7.3839 0.0282426 0)
(7.38414 0.0275941 0)
(7.38437 0.0269518 0)
(7.3846 0.0263132 0)
(7.33417 0.00784833 0)
(7.3405 0.0172866 0)
(7.34711 0.021246 0)
(7.35171 0.0237419 0)
(7.35548 0.0258495 0)
(7.3592 0.0273803 0)
(7.36268 0.0284139 0)
(7.3658 0.0291468 0)
(7.36865 0.0296697 0)
(7.37132 0.0300166 0)
(7.37384 0.030222 0)
(7.37621 0.0303221 0)
(7.37843 0.0303439 0)
(7.38054 0.0303055 0)
(7.38254 0.0302199 0)
(7.38444 0.0300967 0)
(7.38624 0.0299426 0)
(7.38796 0.0297624 0)
(7.38961 0.029559 0)
(7.39118 0.0293346 0)
(7.3927 0.0290902 0)
(7.39415 0.0288266 0)
(7.39555 0.028544 0)
(7.39691 0.0282424 0)
(7.39822 0.0279214 0)
(7.39951 0.0275804 0)
(7.40076 0.0272184 0)
(7.40198 0.0268347 0)
(7.40319 0.026427 0)
(7.40439 0.0259953 0)
(7.40558 0.025536 0)
(7.40676 0.0250526 0)
(7.40797 0.0245572 0)
(7.33381 0.00630818 0)
(7.33861 0.0150536 0)
(7.34442 0.0196755 0)
(7.34904 0.0229117 0)
(7.35294 0.0256593 0)
(7.35675 0.0277508 0)
(7.36037 0.029258 0)
(7.36368 0.0303936 0)
(7.36676 0.03127 0)
(7.36969 0.0319277 0)
(7.37246 0.0323985 0)
(7.3751 0.0327144 0)
(7.37761 0.0329006 0)
(7.38001 0.032976 0)
(7.3823 0.032956 0)
(7.3845 0.0328543 0)
(7.38662 0.0326824 0)
(7.38866 0.0324504 0)
(7.39063 0.0321668 0)
(7.39253 0.0318385 0)
(7.39438 0.0314715 0)
(7.39618 0.0310707 0)
(7.39793 0.03064 0)
(7.39964 0.0301823 0)
(7.40131 0.0296999 0)
(7.40295 0.0291943 0)
(7.40457 0.0286662 0)
(7.40616 0.0281157 0)
(7.40774 0.0275421 0)
(7.4093 0.0269449 0)
(7.41086 0.0263223 0)
(7.41242 0.025672 0)
(7.41401 0.0250029 0)
(7.33356 0.00519295 0)
(7.33722 0.013153 0)
(7.34215 0.0178517 0)
(7.34647 0.0210123 0)
(7.35023 0.0235059 0)
(7.3539 0.0253482 0)
(7.35745 0.0266384 0)
(7.36077 0.0275703 0)
(7.36389 0.028252 0)
(7.36687 0.0287269 0)
(7.36972 0.02903 0)
(7.37245 0.0291967 0)
(7.37506 0.0292552 0)
(7.37757 0.0292269 0)
(7.37999 0.0291287 0)
(7.38233 0.0289741 0)
(7.38459 0.0287739 0)
(7.38678 0.0285363 0)
(7.3889 0.0282674 0)
(7.39096 0.0279718 0)
(7.39298 0.0276528 0)
(7.39494 0.0273125 0)
(7.39686 0.0269524 0)
(7.39874 0.0265729 0)
(7.40059 0.0261741 0)
(7.4024 0.0257554 0)
(7.40419 0.0253158 0)
(7.40596 0.0248535 0)
(7.40771 0.0243665 0)
(7.40944 0.0238522 0)
(7.41117 0.0233074 0)
(7.41289 0.0227258 0)
(7.41462 0.0221081 0)
(7.33341 0.00435414 0)
(7.33622 0.0115132 0)
(7.34039 0.0161814 0)
(7.34439 0.0194343 0)
(7.34802 0.0220416 0)
(7.35158 0.024078 0)
(7.35506 0.0256023 0)
(7.35836 0.0267624 0)
(7.36149 0.0276576 0)
(7.36449 0.0283344 0)
(7.36737 0.0288284 0)
(7.37013 0.0291731 0)
(7.37279 0.0293949 0)
(7.37535 0.0295134 0)
(7.37782 0.0295438 0)
(7.38021 0.0294987 0)
(7.38252 0.0293884 0)
(7.38477 0.0292211 0)
(7.38695 0.0290036 0)
(7.38907 0.0287413 0)
(7.39114 0.0284387 0)
(7.39316 0.0280993 0)
(7.39514 0.0277259 0)
(7.39708 0.0273203 0)
(7.39898 0.0268841 0)
(7.40085 0.0264179 0)
(7.4027 0.0259218 0)
(7.40452 0.0253951 0)
(7.40632 0.0248367 0)
(7.40811 0.0242443 0)
(7.40988 0.0236151 0)
(7.41164 0.0229431 0)
(7.4134 0.0222262 0)
(7.3333 0.00371128 0)
(7.3355 0.0101276 0)
(7.33902 0.0146562 0)
(7.34267 0.0178947 0)
(7.34609 0.0204492 0)
(7.34946 0.022431 0)
(7.3528 0.023899 0)
(7.356 0.0249867 0)
(7.35906 0.0257971 0)
(7.36201 0.0263845 0)
(7.36486 0.0267875 0)
(7.3676 0.0270406 0)
(7.37025 0.0271718 0)
(7.37282 0.0272026 0)
(7.3753 0.0271498 0)
(7.3777 0.0270275 0)
(7.38004 0.0268471 0)
(7.38231 0.0266176 0)
(7.38452 0.0263462 0)
(7.38668 0.0260386 0)
(7.38878 0.025699 0)
(7.39084 0.0253307 0)
(7.39286 0.0249358 0)
(7.39484 0.0245156 0)
(7.39678 0.0240709 0)
(7.3987 0.0236014 0)
(7.40058 0.0231065 0)
(7.40244 0.0225847 0)
(7.40428 0.0220338 0)
(7.40609 0.0214509 0)
(7.40789 0.0208322 0)
(7.40968 0.0201709 0)
(7.41145 0.0194641 0)
(7.33324 0.00320676 0)
(7.33498 0.00894627 0)
(7.33796 0.0132556 0)
(7.34125 0.0164315 0)
(7.34446 0.0189417 0)
(7.34766 0.0209246 0)
(7.35085 0.0224408 0)
(7.35396 0.0235993 0)
(7.35696 0.0244911 0)
(7.35986 0.0251674 0)
(7.36268 0.0256638 0)
(7.36541 0.026012 0)
(7.36805 0.0262381 0)
(7.37061 0.0263618 0)
(7.37309 0.0263989 0)
(7.3755 0.0263619 0)
(7.37785 0.0262611 0)
(7.38013 0.0261046 0)
(7.38235 0.0258989 0)
(7.38452 0.025649 0)
(7.38663 0.0253589 0)
(7.3887 0.0250317 0)
(7.39073 0.0246694 0)
(7.39272 0.0242737 0)
(7.39467 0.0238452 0)
(7.39659 0.0233843 0)
(7.39847 0.0228906 0)
(7.40033 0.022363 0)
(7.40216 0.0217998 0)
(7.40397 0.0211987 0)
(7.40576 0.0205564 0)
(7.40752 0.0198676 0)
(7.40926 0.0191303 0)
(7.33319 0.00280016 0)
(7.3346 0.00793318 0)
(7.33714 0.0119801 0)
(7.3401 0.0150542 0)
(7.34309 0.0174942 0)
(7.3461 0.0194358 0)
(7.34913 0.020935 0)
(7.35211 0.0220793 0)
(7.35502 0.0229505 0)
(7.35784 0.0236004 0)
(7.3606 0.0240659 0)
(7.36327 0.0243788 0)
(7.36587 0.0245656 0)
(7.3684 0.0246468 0)
(7.37085 0.024639 0)
(7.37324 0.0245554 0)
(7.37557 0.0244072 0)
(7.37784 0.0242031 0)
(7.38005 0.0239504 0)
(7.38221 0.0236545 0)
(7.38432 0.0233202 0)
(7.38638 0.0229507 0)
(7.38841 0.0225485 0)
(7.39039 0.0221153 0)
(7.39234 0.0216522 0)
(7.39425 0.0211592 0)
(7.39613 0.0206362 0)
(7.39798 0.020082 0)
(7.39981 0.019495 0)
(7.4016 0.0188728 0)
(7.40337 0.0182126 0)
(7.40511 0.0175097 0)
(7.40682 0.0167626 0)
(7.33316 0.00246422 0)
(7.33432 0.00705668 0)
(7.3365 0.010818 0)
(7.33915 0.0137564 0)
(7.34192 0.0161061 0)
(7.34475 0.0179919 0)
(7.34762 0.0194697 0)
(7.35048 0.020613 0)
(7.35329 0.0214947 0)
(7.35604 0.0221648 0)
(7.35873 0.0226586 0)
(7.36136 0.0230057 0)
(7.36392 0.0232309 0)
(7.36642 0.0233535 0)
(7.36885 0.023389 0)
(7.37122 0.0233499 0)
(7.37353 0.0232463 0)
(7.37579 0.0230863 0)
(7.37799 0.0228765 0)
(7.38014 0.0226218 0)
(7.38224 0.0223262 0)
(7.3843 0.0219928 0)
(7.38631 0.0216235 0)
(7.38828 0.02122 0)
(7.39022 0.0207829 0)
(7.39212 0.0203125 0)
(7.39398 0.0198083 0)
(7.39582 0.0192696 0)
(7.39762 0.018695 0)
(7.39938 0.0180825 0)
(7.40112 0.01743 0)
(7.40282 0.0167337 0)
(7.40449 0.0159938 0)
(7.33314 0.00218018 0)
(7.33411 0.00629033 0)
(7.33599 0.0097579 0)
(7.33838 0.0125363 0)
(7.34093 0.0147799 0)
(7.34358 0.0165949 0)
(7.3463 0.0180334 0)
(7.34904 0.0191554 0)
(7.35174 0.0200228 0)
(7.3544 0.0206816 0)
(7.35702 0.0211652 0)
(7.35959 0.0215016 0)
(7.36209 0.0217143 0)
(7.36454 0.0218222 0)
(7.36693 0.0218407 0)
(7.36926 0.0217822 0)
(7.37154 0.021657 0)
(7.37377 0.0214733 0)
(7.37594 0.0212378 0)
(7.37807 0.020956 0)
(7.38015 0.0206321 0)
(7.38218 0.0202694 0)
(7.38417 0.0198704 0)
(7.38612 0.0194369 0)
(7.38804 0.0189699 0)
(7.38991 0.0184701 0)
(7.39175 0.0179374 0)
(7.39356 0.0173714 0)
(7.39533 0.0167711 0)
(7.39706 0.0161352 0)
(7.39877 0.0154622 0)
(7.40043 0.0147496 0)
(7.40206 0.0139981 0)
(7.33312 0.00193503 0)
(7.33395 0.00561286 0)
(7.33559 0.00878791 0)
(7.33773 0.0113891 0)
(7.34009 0.0135125 0)
(7.34258 0.0152433 0)
(7.34515 0.0166289 0)
(7.34775 0.0177194 0)
(7.35035 0.0185678 0)
(7.35293 0.0192166 0)
(7.35547 0.0196975 0)
(7.35797 0.0200368 0)
(7.36043 0.0202569 0)
(7.36283 0.0203758 0)
(7.36518 0.020408 0)
(7.36748 0.0203655 0)
(7.36973 0.0202579 0)
(7.37193 0.0200932 0)
(7.37408 0.0198776 0)
(7.37618 0.0196161 0)
(7.37824 0.0193128 0)
(7.38025 0.0189706 0)
(7.38222 0.0185919 0)
(7.38415 0.0181781 0)
(7.38604 0.0177304 0)
(7.38789 0.0172492 0)
(7.38971 0.0167345 0)
(7.39148 0.016186 0)
(7.39322 0.015603 0)
(7.39493 0.0149846 0)
(7.39659 0.0143298 0)
(7.39822 0.0136367 0)
(7.3998 0.012907 0)
(7.33311 0.00171958 0)
(7.33382 0.00500725 0)
(7.33526 0.00789661 0)
(7.3372 0.0103096 0)
(7.33938 0.0123013 0)
(7.34171 0.0139369 0)
(7.34413 0.015258 0)
(7.34662 0.0163061 0)
(7.34911 0.0171258 0)
(7.3516 0.0177546 0)
(7.35407 0.0182216 0)
(7.3565 0.018551 0)
(7.35889 0.0187632 0)
(7.36124 0.018875 0)
(7.36355 0.0189003 0)
(7.36581 0.0188504 0)
(7.36802 0.0187345 0)
(7.37018 0.0185603 0)
(7.37229 0.0183339 0)
(7.37436 0.0180604 0)
(7.37639 0.0177438 0)
(7.37837 0.0173872 0)
(7.38031 0.0169929 0)
(7.38221 0.0165629 0)
(7.38407 0.0160984 0)
(7.38589 0.0156001 0)
(7.38767 0.0150684 0)
(7.38941 0.0145035 0)
(7.39112 0.0139052 0)
(7.39278 0.0132731 0)
(7.3944 0.0126069 0)
(7.39599 0.0119058 0)
(7.39753 0.011172 0)
(7.3331 0.00152725 0)
(7.33372 0.00445992 0)
(7.335 0.00707338 0)
(7.33676 0.00929169 0)
(7.33877 0.0111426 0)
(7.34095 0.0126737 0)
(7.34325 0.01392 0)
(7.34561 0.0149159 0)
(7.34801 0.0156986 0)
(7.35041 0.016301 0)
(7.35279 0.0167498 0)
(7.35516 0.0170671 0)
(7.3575 0.0172718 0)
(7.35979 0.0173799 0)
(7.36205 0.0174043 0)
(7.36427 0.0173557 0)
(7.36644 0.0172431 0)
(7.36857 0.0170737 0)
(7.37065 0.0168535 0)
(7.37269 0.0165872 0)
(7.37468 0.0162787 0)
(7.37664 0.015931 0)
(7.37855 0.0155465 0)
(7.38042 0.0151269 0)
(7.38225 0.0146736 0)
(7.38404 0.0141873 0)
(7.38579 0.0136686 0)
(7.3875 0.0131177 0)
(7.38916 0.0125348 0)
(7.39079 0.0119198 0)
(7.39238 0.0112728 0)
(7.39392 0.0105934 0)
(7.39542 0.00988411 0)
(7.3331 0.00135314 0)
(7.33364 0.00396005 0)
(7.33479 0.00630855 0)
(7.33639 0.00832931 0)
(7.33826 0.0100325 0)
(7.3403 0.0114512 0)
(7.34247 0.012614 0)
(7.34472 0.013549 0)
(7.34702 0.014287 0)
(7.34933 0.0148564 0)
(7.35164 0.0152809 0)
(7.35394 0.0155804 0)
(7.35622 0.0157722 0)
(7.35846 0.0158705 0)
(7.36067 0.0158874 0)
(7.36284 0.0158329 0)
(7.36497 0.0157153 0)
(7.36706 0.0155412 0)
(7.36911 0.0153164 0)
(7.37111 0.0150454 0)
(7.37307 0.014732 0)
(7.37499 0.0143791 0)
(7.37687 0.013989 0)
(7.3787 0.0135636 0)
(7.3805 0.0131043 0)
(7.38225 0.0126122 0)
(7.38396 0.012088 0)
(7.38564 0.0115323 0)
(7.38726 0.0109457 0)
(7.38885 0.0103284 0)
(7.3904 0.00968107 0)
(7.39189 0.0090039 0)
(7.39335 0.00829971 0)
(7.33309 0.00119359 0)
(7.33358 0.0034989 0)
(7.33461 0.00559345 0)
(7.33608 0.0074162 0)
(7.33782 0.00896656 0)
(7.33973 0.0102665 0)
(7.34179 0.0113382 0)
(7.34394 0.0122046 0)
(7.34614 0.0128908 0)
(7.34837 0.013421 0)
(7.35061 0.0138159 0)
(7.35284 0.0140933 0)
(7.35506 0.0142686 0)
(7.35725 0.014355 0)
(7.35941 0.0143634 0)
(7.36153 0.0143032 0)
(7.36362 0.014182 0)
(7.36567 0.0140063 0)
(7.36768 0.0137813 0)
(7.36965 0.0135115 0)
(7.37158 0.0132004 0)
(7.37346 0.012851 0)
(7.37531 0.0124655 0)
(7.37711 0.0120459 0)
(7.37887 0.0115936 0)
(7.38059 0.0111098 0)
(7.38227 0.0105955 0)
(7.3839 0.0100513 0)
(7.3855 0.00947807 0)
(7.38705 0.00887642 0)
(7.38855 0.00824719 0)
(7.39001 0.00759078 0)
(7.39143 0.00691009 0)
(7.33309 0.00104573 0)
(7.33353 0.00306936 0)
(7.33447 0.00492032 0)
(7.33582 0.00654615 0)
(7.33744 0.00794025 0)
(7.33925 0.00911616 0)
(7.34119 0.0100905 0)
(7.34325 0.0108814 0)
(7.34536 0.0115094 0)
(7.34751 0.0119946 0)
(7.34968 0.0123548 0)
(7.35185 0.0126058 0)
(7.35401 0.0127609 0)
(7.35614 0.0128319 0)
(7.35826 0.0128288 0)
(7.36034 0.01276 0)
(7.36238 0.0126325 0)
(7.36439 0.0124521 0)
(7.36636 0.0122238 0)
(7.3683 0.0119517 0)
(7.37019 0.011639 0)
(7.37204 0.0112887 0)
(7.37385 0.010903 0)
(7.37561 0.0104836 0)
(7.37734 0.0100322 0)
(7.37902 0.00955007 0)
(7.38066 0.00903822 0)
(7.38226 0.00849763 0)
(7.38381 0.00792925 0)
(7.38532 0.00733397 0)
(7.38679 0.00671288 0)
(7.38821 0.00606673 0)
(7.38959 0.00539852 0)
(7.33308 0.000907236 0)
(7.33348 0.00266549 0)
(7.33435 0.00428219 0)
(7.3356 0.0057131 0)
(7.33712 0.00694861 0)
(7.33883 0.00799621 0)
(7.34068 0.00886775 0)
(7.34264 0.00957742 0)
(7.34468 0.0101415 0)
(7.34675 0.0105765 0)
(7.34885 0.0108975 0)
(7.35096 0.0111178 0)
(7.35306 0.0112493 0)
(7.35515 0.0113023 0)
(7.35721 0.0112855 0)
(7.35925 0.0112066 0)
(7.36125 0.0110718 0)
(7.36322 0.0108866 0)
(7.36515 0.0106555 0)
(7.36705 0.0103823 0)
(7.3689 0.0100702 0)
(7.37072 0.00972182 0)
(7.37249 0.00933941 0)
(7.37423 0.00892484 0)
(7.37592 0.00847969 0)
(7.37756 0.00800531 0)
(7.37917 0.00750293 0)
(7.38073 0.00697366 0)
(7.38225 0.00641857 0)
(7.38372 0.00583874 0)
(7.38515 0.00523542 0)
(7.38653 0.00460945 0)
(7.38787 0.00396379 0)
(7.33308 0.000776207 0)
(7.33345 0.00228223 0)
(7.33425 0.00367275 0)
(7.33542 0.00491105 0)
(7.33685 0.00598652 0)
(7.33847 0.0069024 0)
(7.34024 0.00766668 0)
(7.34212 0.00829003 0)
(7.34408 0.00878512 0)
(7.34608 0.00916517 0)
(7.34812 0.00944259 0)
(7.35017 0.00962862 0)
(7.35222 0.0097333 0)
(7.35425 0.00976547 0)
(7.35627 0.0097328 0)
(7.35826 0.0096419 0)
(7.36023 0.00949842 0)
(7.36216 0.00930715 0)
(7.36405 0.00907219 0)
(7.36591 0.008797 0)
(7.36773 0.00848448 0)
(7.36951 0.00813713 0)
(7.37125 0.00775703 0)
(7.37294 0.007346 0)
(7.3746 0.0069056 0)
(7.37621 0.00643721 0)
(7.37778 0.00594211 0)
(7.3793 0.00542149 0)
(7.38078 0.00487652 0)
(7.38222 0.00430838 0)
(7.38361 0.0037184 0)
(7.38496 0.00310758 0)
(7.38626 0.00247885 0)
(7.33308 0.000650983 0)
(7.33342 0.00191513 0)
(7.33417 0.00308613 0)
(7.33527 0.00413411 0)
(7.33663 0.00504862 0)
(7.33817 0.00583011 0)
(7.33986 0.00648345 0)
(7.34167 0.00701624 0)
(7.34356 0.00743803 0)
(7.3455 0.00775906 0)
(7.34748 0.00798923 0)
(7.34947 0.00813769 0)
(7.35147 0.00821273 0)
(7.35346 0.00822176 0)
(7.35543 0.0081713 0)
(7.35738 0.008067 0)
(7.3593 0.00791378 0)
(7.3612 0.00771586 0)
(7.36305 0.00747688 0)
(7.36488 0.00719995 0)
(7.36666 0.00688776 0)
(7.3684 0.0065426 0)
(7.37011 0.00616648 0)
(7.37177 0.00576115 0)
(7.37339 0.00532817 0)
(7.37496 0.00486896 0)
(7.3765 0.00438484 0)
(7.37799 0.00387705 0)
(7.37943 0.00334686 0)
(7.38084 0.00279551 0)
(7.38219 0.00222437 0)
(7.3835 0.00163447 0)
(7.38477 0.00102859 0)
(7.33308 0.000530059 0)
(7.3334 0.00156012 0)
(7.3341 0.00251676 0)
(7.33515 0.00337626 0)
(7.33644 0.0041291 0)
(7.33792 0.00477392 0)
(7.33955 0.00531312 0)
(7.34129 0.00575169 0)
(7.34312 0.00609638 0)
(7.34501 0.00635477 0)
(7.34693 0.00653436 0)
(7.34887 0.0066423 0)
(7.35082 0.00668516 0)
(7.35277 0.00666892 0)
(7.3547 0.00659892 0)
(7.35661 0.00647984 0)
(7.35849 0.00631582 0)
(7.36034 0.00611045 0)
(7.36216 0.00586686 0)
(7.36395 0.00558776 0)
(7.3657 0.00527554 0)
(7.36741 0.00493227 0)
(7.36907 0.00455978 0)
(7.3707 0.00415971 0)
(7.37229 0.00373354 0)
(7.37383 0.00328265 0)
(7.37533 0.00280833 0)
(7.37679 0.00231183 0)
(7.3782 0.00179443 0)
(7.37957 0.00125737 0)
(7.38089 0.000702041 0)
(7.38217 0.000129509 0)
(7.3834 -0.00045753 0)
(7.33307 0.000411943 0)
(7.33338 0.00121324 0)
(7.33405 0.00195922 0)
(7.33506 0.00263167 0)
(7.3363 0.00322238 0)
(7.33772 0.00372887 0)
(7.33929 0.00415155 0)
(7.34098 0.00449309 0)
(7.34276 0.00475777 0)
(7.3446 0.00495068 0)
(7.34647 0.00507709 0)
(7.34837 0.00514218 0)
(7.35027 0.00515088 0)
(7.35217 0.00510774 0)
(7.35406 0.00501693 0)
(7.35593 0.00488219 0)
(7.35778 0.00470687 0)
(7.3596 0.00449395 0)
(7.36138 0.00424606 0)
(7.36313 0.00396556 0)
(7.36485 0.0036545 0)
(7.36652 0.00331477 0)
(7.36815 0.00294802 0)
(7.36975 0.00255578 0)
(7.3713 0.00213946 0)
(7.37281 0.00170039 0)
(7.37427 0.00123984 0)
(7.37569 0.000759054 0)
(7.37707 0.000259275 0)
(7.37841 -0.000258264 0)
(7.3797 -0.000792222 0)
(7.38094 -0.00134162 0)
(7.38214 -0.00190396 0)
(7.33307 0.000295108 0)
(7.33337 0.000870293 0)
(7.33402 0.00140732 0)
(7.33499 0.00189297 0)
(7.33619 0.00232059 0)
(7.33757 0.00268699 0)
(7.3391 0.00299095 0)
(7.34074 0.00323302 0)
(7.34248 0.00341521 0)
(7.34427 0.00354029 0)
(7.3461 0.00361137 0)
(7.34795 0.00363172 0)
(7.34982 0.00360459 0)
(7.35168 0.00353312 0)
(7.35353 0.00342025 0)
(7.35537 0.00326874 0)
(7.35718 0.00308108 0)
(7.35896 0.00285958 0)
(7.36071 0.00260632 0)
(7.36243 0.00232321 0)
(7.36411 0.00201196 0)
(7.36575 0.00167417 0)
(7.36735 0.0013113 0)
(7.36891 0.000924716 0)
(7.37043 0.000515706 0)
(7.37191 8.55114e-05 0)
(7.37334 -0.000364656 0)
(7.37473 -0.000833604 0)
(7.37608 -0.00132013 0)
(7.37738 -0.00182303 0)
(7.37864 -0.00234101 0)
(7.37985 -0.00287303 0)
(7.38103 -0.00341671 0)
(7.33307 0.000178591 0)
(7.33336 0.000528824 0)
(7.33399 0.000857712 0)
(7.33494 0.00115661 0)
(7.33611 0.0014205 0)
(7.33746 0.0016457 0)
(7.33896 0.00182948 0)
(7.34057 0.00197049 0)
(7.34226 0.00206853 0)
(7.34402 0.00212417 0)
(7.34581 0.00213849 0)
(7.34763 0.00211289 0)
(7.34946 0.00204906 0)
(7.35129 0.00194877 0)
(7.35311 0.00181384 0)
(7.35491 0.00164608 0)
(7.35668 0.00144722 0)
(7.35843 0.00121893 0)
(7.36015 0.000962775 0)
(7.36183 0.000680239 0)
(7.36348 0.000372708 0)
(7.36509 4.14931e-05 0)
(7.36666 -0.000312165 0)
(7.36818 -0.000687078 0)
(7.36967 -0.0010821 0)
(7.37111 -0.00149611 0)
(7.37252 -0.001928 0)
(7.37387 -0.00237667 0)
(7.37519 -0.00284102 0)
(7.37646 -0.00331994 0)
(7.37768 -0.00381226 0)
(7.37887 -0.00431715 0)
(7.38001 -0.00483251 0)
(7.33307 6.10674e-05 0)
(7.33336 0.000184307 0)
(7.33398 0.000303125 0)
(7.33491 0.000413522 0)
(7.33607 0.000512097 0)
(7.3374 0.000594661 0)
(7.33887 0.000656968 0)
(7.34045 0.000695708 0)
(7.34212 0.000708536 0)
(7.34385 0.00069379 0)
(7.34561 0.000650393 0)
(7.3474 0.000577837 0)
(7.3492 0.000476087 0)
(7.351 0.000345466 0)
(7.35278 0.000186552 0)
(7.35455 1.05786e-07 0)
(7.3563 -0.000212979 0)
(7.35802 -0.00045173 0)
(7.35971 -0.000715132 0)
(7.36136 -0.00100215 0)
(7.36298 -0.00131174 0)
(7.36456 -0.00164286 0)
(7.3661 -0.00199449 0)
(7.36759 -0.00236559 0)
(7.36905 -0.00275515 0)
(7.37047 -0.00316215 0)
(7.37184 -0.00358555 0)
(7.37317 -0.00402431 0)
(7.37445 -0.00447739 0)
(7.3757 -0.00494373 0)
(7.3769 -0.00542216 0)
(7.37805 -0.00591175 0)
(7.37917 -0.0064104 0)
(7.33307 -5.89401e-05 0)
(7.33336 -0.000168052 0)
(7.33398 -0.000264013 0)
(7.33491 -0.000345623 0)
(7.33606 -0.000414743 0)
(7.33738 -0.000476424 0)
(7.33884 -0.00053669 0)
(7.34041 -0.000600916 0)
(7.34206 -0.00067364 0)
(7.34377 -0.000758707 0)
(7.34551 -0.000859195 0)
(7.34728 -0.000977368 0)
(7.34905 -0.00111477 0)
(7.35082 -0.0012724 0)
(7.35258 -0.00145079 0)
(7.35432 -0.00165014 0)
(7.35603 -0.00187037 0)
(7.35772 -0.00211121 0)
(7.35938 -0.00237221 0)
(7.361 -0.00265284 0)
(7.36259 -0.00295247 0)
(7.36414 -0.00327042 0)
(7.36564 -0.00360596 0)
(7.36711 -0.00395832 0)
(7.36854 -0.0043267 0)
(7.36992 -0.00471027 0)
(7.37126 -0.00510818 0)
(7.37256 -0.00551956 0)
(7.37381 -0.00594351 0)
(7.37502 -0.00637916 0)
(7.37619 -0.00682557 0)
(7.37732 -0.00728211 0)
(7.37841 -0.0077471 0)
(7.33307 -0.000183171 0)
(7.33336 -0.000532796 0)
(7.33399 -0.000850075 0)
(7.33494 -0.0011279 0)
(7.3361 -0.00136693 0)
(7.33743 -0.00157373 0)
(7.33889 -0.00175665 0)
(7.34046 -0.00192352 0)
(7.3421 -0.00208156 0)
(7.3438 -0.00223732 0)
(7.34553 -0.00239637 0)
(7.34728 -0.00256309 0)
(7.34903 -0.00274077 0)
(7.35078 -0.00293184 0)
(7.35252 -0.00313801 0)
(7.35424 -0.0033604 0)
(7.35593 -0.00359964 0)
(7.35759 -0.00385602 0)
(7.35923 -0.00412956 0)
(7.36082 -0.00442005 0)
(7.36239 -0.00472714 0)
(7.36391 -0.00505035 0)
(7.36539 -0.00538912 0)
(7.36683 -0.00574279 0)
(7.36823 -0.00611069 0)
(7.36959 -0.00649205 0)
(7.37091 -0.00688611 0)
(7.37218 -0.00729206 0)
(7.37341 -0.00770904 0)
(7.3746 -0.0081362 0)
(7.37574 -0.00857258 0)
(7.37684 -0.00901734 0)
(7.3779 -0.00946877 0)
(7.33307 -0.00031466 0)
(7.33338 -0.000918341 0)
(7.33403 -0.00146736 0)
(7.33501 -0.00194772 0)
(7.3362 -0.00235968 0)
(7.33755 -0.00271264 0)
(7.33903 -0.00301774 0)
(7.3406 -0.00328517 0)
(7.34225 -0.00352447 0)
(7.34395 -0.00374458 0)
(7.34567 -0.00395327 0)
(7.3474 -0.00415683 0)
(7.34914 -0.0043603 0)
(7.35087 -0.00456763 0)
(7.35259 -0.0047819 0)
(7.35428 -0.00500535 0)
(7.35595 -0.00523964 0)
(7.35759 -0.00548588 0)
(7.35919 -0.00574478 0)
(7.36076 -0.00601675 0)
(7.36229 -0.00630191 0)
(7.36378 -0.00660023 0)
(7.36524 -0.00691147 0)
(7.36665 -0.00723531 0)
(7.36802 -0.00757132 0)
(7.36935 -0.00791898 0)
(7.37063 -0.00827773 0)
(7.37187 -0.00864697 0)
(7.37307 -0.00902604 0)
(7.37423 -0.00941431 0)
(7.37535 -0.00981109 0)
(7.37643 -0.010216 0)
(7.37747 -0.0106277 0)
(7.33308 -0.000457269 0)
(7.3334 -0.00133518 0)
(7.3341 -0.00213043 0)
(7.33512 -0.00282078 0)
(7.33636 -0.0034079 0)
(7.33776 -0.00390676 0)
(7.33927 -0.00433362 0)
(7.34087 -0.00470295 0)
(7.34254 -0.00502834 0)
(7.34425 -0.00532224 0)
(7.34598 -0.00559494 0)
(7.34772 -0.00585454 0)
(7.34945 -0.00610738 0)
(7.35118 -0.0063584 0)
(7.35288 -0.00661138 0)
(7.35456 -0.00686914 0)
(7.35622 -0.00713374 0)
(7.35784 -0.00740662 0)
(7.35943 -0.00768877 0)
(7.36098 -0.00798083 0)
(7.36249 -0.0082831 0)
(7.36396 -0.00859571 0)
(7.3654 -0.00891857 0)
(7.36679 -0.00925147 0)
(7.36813 -0.00959409 0)
(7.36944 -0.00994601 0)
(7.3707 -0.0103067 0)
(7.37192 -0.0106758 0)
(7.3731 -0.0110525 0)
(7.37424 -0.0114363 0)
(7.37533 -0.0118264 0)
(7.37638 -0.0122221 0)
(7.37739 -0.0126223 0)
(7.33308 -0.000616454 0)
(7.33344 -0.00179814 0)
(7.3342 -0.00285962 0)
(7.33531 -0.00376937 0)
(7.33662 -0.00453353 0)
(7.33808 -0.00517401 0)
(7.33964 -0.00571072 0)
(7.34128 -0.00616106 0)
(7.34298 -0.00654285 0)
(7.3447 -0.00687308 0)
(7.34643 -0.00716593 0)
(7.34816 -0.0074326 0)
(7.34989 -0.00768201 0)
(7.3516 -0.00792126 0)
(7.35329 -0.00815583 0)
(7.35495 -0.00838988 0)
(7.35658 -0.00862648 0)
(7.35818 -0.00886789 0)
(7.35974 -0.00911574 0)
(7.36126 -0.00937114 0)
(7.36275 -0.00963481 0)
(7.36419 -0.0099072 0)
(7.3656 -0.0101885 0)
(7.36696 -0.0104787 0)
(7.36828 -0.0107777 0)
(7.36955 -0.0110853 0)
(7.37079 -0.0114012 0)
(7.37198 -0.0117249 0)
(7.37313 -0.0120562 0)
(7.37424 -0.0123945 0)
(7.37531 -0.0127394 0)
(7.37634 -0.0130906 0)
(7.37733 -0.0134473 0)
(7.33308 -0.000800621 0)
(7.3335 -0.0023292 0)
(7.33436 -0.00368166 0)
(7.33559 -0.00481845 0)
(7.33701 -0.00576333 0)
(7.33856 -0.00655678 0)
(7.34021 -0.00722737 0)
(7.34192 -0.0077963 0)
(7.34367 -0.00828446 0)
(7.34544 -0.00871106 0)
(7.3472 -0.00909135 0)
(7.34896 -0.00943713 0)
(7.3507 -0.00975785 0)
(7.35241 -0.0100611 0)
(7.3541 -0.010353 0)
(7.35576 -0.010638 0)
(7.35738 -0.0109197 0)
(7.35897 -0.0112008 0)
(7.36051 -0.0114832 0)
(7.36202 -0.0117684 0)
(7.36349 -0.0120575 0)
(7.36491 -0.0123511 0)
(7.36629 -0.0126496 0)
(7.36763 -0.0129533 0)
(7.36892 -0.0132621 0)
(7.37018 -0.0135761 0)
(7.37138 -0.0138951 0)
(7.37255 -0.0142187 0)
(7.37367 -0.0145467 0)
(7.37475 -0.0148787 0)
(7.37579 -0.0152143 0)
(7.37679 -0.0155531 0)
(7.37774 -0.0158941 0)
(7.33309 -0.00102339 0)
(7.3336 -0.00296482 0)
(7.33462 -0.00464246 0)
(7.33601 -0.00600402 0)
(7.33757 -0.00709394 0)
(7.33921 -0.00797154 0)
(7.34093 -0.00867751 0)
(7.3427 -0.00924624 0)
(7.34449 -0.00971167 0)
(7.34627 -0.0101021 0)
(7.34805 -0.010438 0)
(7.34981 -0.0107346 0)
(7.35154 -0.0110036 0)
(7.35325 -0.0112542 0)
(7.35492 -0.011493 0)
(7.35655 -0.0117252 0)
(7.35815 -0.0119543 0)
(7.35971 -0.0121831 0)
(7.36123 -0.0124137 0)
(7.3627 -0.0126475 0)
(7.36414 -0.0128856 0)
(7.36553 -0.0131288 0)
(7.36687 -0.0133774 0)
(7.36818 -0.0136319 0)
(7.36944 -0.0138922 0)
(7.37066 -0.0141583 0)
(7.37183 -0.0144303 0)
(7.37296 -0.0147078 0)
(7.37405 -0.0149907 0)
(7.3751 -0.0152788 0)
(7.37611 -0.0155716 0)
(7.37708 -0.0158689 0)
(7.37801 -0.0161701 0)
(7.33311 -0.0013086 0)
(7.33375 -0.00375375 0)
(7.33503 -0.00579809 0)
(7.33669 -0.00743456 0)
(7.33847 -0.00877503 0)
(7.3403 -0.00988996 0)
(7.34218 -0.0108058 0)
(7.34406 -0.0115537 0)
(7.34593 -0.012173 0)
(7.34777 -0.0126961 0)
(7.34958 -0.0131456 0)
(7.35135 -0.0135388 0)
(7.35308 -0.01389 0)
(7.35477 -0.0142104 0)
(7.35642 -0.0145086 0)
(7.35803 -0.0147909 0)
(7.3596 -0.0150622 0)
(7.36112 -0.0153261 0)
(7.3626 -0.0155854 0)
(7.36403 -0.0158419 0)
(7.36542 -0.0160971 0)
(7.36676 -0.0163522 0)
(7.36806 -0.0166076 0)
(7.36931 -0.0168641 0)
(7.37052 -0.0171218 0)
(7.37168 -0.017381 0)
(7.3728 -0.0176416 0)
(7.37388 -0.0179038 0)
(7.37491 -0.0181676 0)
(7.3759 -0.0184327 0)
(7.37685 -0.0186993 0)
(7.37776 -0.0189674 0)
(7.37862 -0.0192368 0)
(7.33314 -0.00171311 0)
(7.33403 -0.00480965 0)
(7.33564 -0.00713656 0)
(7.33755 -0.00877122 0)
(7.33947 -0.00999821 0)
(7.3414 -0.0109693 0)
(7.34337 -0.0117333 0)
(7.34532 -0.0123347 0)
(7.34722 -0.0128225 0)
(7.34907 -0.0132314 0)
(7.35086 -0.0135819 0)
(7.35261 -0.0138885 0)
(7.35431 -0.014163 0)
(7.35595 -0.0144146 0)
(7.35754 -0.01465 0)
(7.35908 -0.0148741 0)
(7.36058 -0.0150908 0)
(7.36202 -0.0153032 0)
(7.36342 -0.0155136 0)
(7.36477 -0.0157238 0)
(7.36608 -0.015935 0)
(7.36734 -0.0161483 0)
(7.36856 -0.0163642 0)
(7.36973 -0.0165833 0)
(7.37085 -0.0168059 0)
(7.37194 -0.017032 0)
(7.37298 -0.0172616 0)
(7.37398 -0.0174947 0)
(7.37494 -0.017731 0)
(7.37586 -0.0179704 0)
(7.37674 -0.0182123 0)
(7.37758 -0.0184564 0)
(7.37839 -0.018702 0)
(7.33321 -0.00230683 0)
(7.33467 -0.00642729 0)
(7.33707 -0.00951513 0)
(7.33954 -0.0117567 0)
(7.34173 -0.0134588 0)
(7.34378 -0.0147551 0)
(7.34577 -0.0157247 0)
(7.34767 -0.016459 0)
(7.34946 -0.0170351 0)
(7.35115 -0.0175004 0)
(7.35277 -0.0178853 0)
(7.35432 -0.0182124 0)
(7.3558 -0.0184988 0)
(7.35722 -0.0187565 0)
(7.35859 -0.0189933 0)
(7.3599 -0.0192149 0)
(7.36116 -0.0194254 0)
(7.36237 -0.0196275 0)
(7.36353 -0.0198234 0)
(7.36464 -0.0200145 0)
(7.36571 -0.0202019 0)
(7.36673 -0.0203865 0)
(7.36771 -0.0205688 0)
(7.36864 -0.0207494 0)
(7.36954 -0.0209286 0)
(7.37039 -0.0211067 0)
(7.3712 -0.0212842 0)
(7.37197 -0.0214611 0)
(7.37271 -0.0216378 0)
(7.3734 -0.0218149 0)
(7.37406 -0.0219928 0)
(7.37468 -0.0221735 0)
(7.37526 -0.0223583 0)
(7.33323 -0.00330733 0)
(7.33508 -0.00748597 0)
(7.33785 -0.0096344 0)
(7.34039 -0.0111617 0)
(7.34248 -0.0124964 0)
(7.34435 -0.0135477 0)
(7.34606 -0.0143184 0)
(7.34756 -0.0149098 0)
(7.34888 -0.0153926 0)
(7.35005 -0.0157925 0)
(7.35112 -0.0161249 0)
(7.3521 -0.0164067 0)
(7.35301 -0.0166528 0)
(7.35385 -0.0168736 0)
(7.35463 -0.0170766 0)
(7.35537 -0.0172676 0)
(7.35607 -0.0174509 0)
(7.35673 -0.0176297 0)
(7.35736 -0.0178065 0)
(7.35796 -0.0179829 0)
(7.35853 -0.0181599 0)
(7.35907 -0.0183383 0)
(7.35958 -0.0185186 0)
(7.36006 -0.0187008 0)
(7.36052 -0.018885 0)
(7.36095 -0.019071 0)
(7.36136 -0.0192586 0)
(7.36174 -0.0194471 0)
(7.3621 -0.0196358 0)
(7.36243 -0.0198233 0)
(7.36274 -0.0200082 0)
(7.36302 -0.020186 0)
(7.36326 -0.0203573 0)
(7.33597 -0.00734845 0)
(7.3463 -0.0150967 0)
(7.35617 -0.0177367 0)
(7.36436 -0.0188971 0)
(7.37191 -0.0197792 0)
(7.37926 -0.0203568 0)
(7.38624 -0.0206456 0)
(7.39271 -0.0207945 0)
(7.39874 -0.0209012 0)
(7.40441 -0.0209911 0)
(7.40977 -0.0210684 0)
(7.41483 -0.0211386 0)
(7.41962 -0.0212065 0)
(7.42415 -0.0212742 0)
(7.42845 -0.0213419 0)
(7.43253 -0.0214093 0)
(7.43639 -0.0214765 0)
(7.44005 -0.0215436 0)
(7.44353 -0.0216107 0)
(7.44681 -0.0216779 0)
(7.44993 -0.0217455 0)
(7.45287 -0.0218139 0)
(7.45565 -0.0218832 0)
(7.45828 -0.0219538 0)
(7.46076 -0.0220261 0)
(7.4631 -0.0221004 0)
(7.46531 -0.022177 0)
(7.46739 -0.0222564 0)
(7.46934 -0.022339 0)
(7.47119 -0.0224252 0)
(7.47293 -0.0225149 0)
(7.47458 -0.0226094 0)
(7.47617 -0.0227065 0)
(7.32333 -0.00889149 0)
(7.30978 -0.0181851 0)
(7.29242 -0.022275 0)
(7.27081 -0.0243669 0)
(7.24822 -0.0257011 0)