/*--------------------------------*- C++ -*----------------------------------*\
| =========                 |                                                 |
| \\      /  F ield         | OpenFOAM: The Open Source CFD Toolbox           |
|  \\    /   O peration     | Version:  4.1                                   |
|   \\  /    A nd           | Web:      www.OpenFOAM.org                      |
|    \\/     M anipulation  |                                                 |
\*---------------------------------------------------------------------------*/
FoamFile
{
    version     2.0;
    format      ascii;
    class       volScalarField;
    location    "1500";
    object      p;
}
// * * * * * * * * * * * * * * * * * * * * * * * * * * * * * * * * * * * * * //

dimensions      [0 2 -2 0 0 0 0];

internalField   nonuniform List<scalar> 
26785
(
1763.2
1740.78
1716.51
1692.5
1671.51
1655.29
1644.3
1638.18
1636.15
1637.14
1640.04
1643.91
1648.09
1652.16
1655.72
1658.4
1659.79
1659.28
1656.07
1650.08
1641.86
1632.21
1622.02
1611.75
1601.28
1590.23
1578.4
1566.1
1553.86
1542.29
1531.89
1523.11
1516.3
1511.74
1509.65
1510.17
1513.47
1519.68
1529
1541.71
1558.2
1579.02
1604.82
1636.34
1674.35
1719.59
1772.67
1833.94
1903.27
1980.02
2063.36
2151.72
2242.25
2331.77
2417.33
2496.51
2567.39
2628.3
2677.82
2714.78
2738.32
2747.93
2743.34
2724.94
2692.85
2647.56
2591.71
2529.1
2462.31
2391.81
2317.53
2239.69
2160.42
2081.88
2003.19
1922.92
1841.66
1760.92
1681.15
1601.84
1522.5
1442.98
1363.47
1284.24
1205.39
1126.67
1047.74
968.517
889.198
810.114
731.586
653.898
577.347
502.379
431.051
362.334
300.863
239.997
155.351
54.7531
1763.24
1740.78
1716.49
1692.47
1671.46
1655.23
1644.24
1638.13
1636.11
1637.11
1640.02
1643.9
1648.09
1652.16
1655.74
1658.42
1659.83
1659.34
1656.13
1650.13
1641.9
1632.23
1622.03
1611.76
1601.29
1590.23
1578.39
1566.05
1553.78
1542.17
1531.75
1522.94
1516.11
1511.53
1509.41
1509.92
1513.19
1519.39
1528.69
1541.37
1557.83
1578.62
1604.39
1635.88
1673.85
1719.06
1772.1
1833.35
1902.68
1979.42
2062.8
2151.31
2242.02
2331.73
2417.46
2496.81
2567.86
2628.94
2678.63
2715.75
2739.43
2749.14
2744.61
2726.27
2694.14
2648.64
2592.52
2529.72
2462.92
2392.46
2318.18
2240.21
2160.88
2082.46
2003.82
1923.45
1842.12
1761.37
1681.62
1602.35
1523.02
1443.49
1363.95
1284.7
1205.88
1127.19
1048.29
969.086
889.78
810.701
732.175
654.483
577.904
502.769
431.372
362.293
301.408
241.231
155.893
54.0742
1763.33
1740.79
1716.46
1692.4
1671.36
1655.12
1644.14
1638.03
1636.03
1637.05
1639.98
1643.88
1648.09
1652.18
1655.77
1658.47
1659.91
1659.46
1656.26
1650.24
1641.97
1632.27
1622.04
1611.78
1601.32
1590.24
1578.35
1565.96
1553.62
1541.95
1531.47
1522.61
1515.73
1511.11
1508.94
1509.41
1512.64
1518.78
1528.03
1540.67
1557.07
1577.81
1603.52
1634.94
1672.84
1717.97
1770.95
1832.15
1901.47
1978.23
2061.72
2150.51
2241.59
2331.65
2417.72
2497.41
2568.79
2630.21
2680.22
2717.65
2741.59
2751.5
2747.08
2728.85
2696.64
2650.72
2594.09
2530.95
2464.06
2393.71
2319.46
2241.25
2161.79
2083.6
2005.06
1924.52
1843.04
1762.29
1682.59
1603.36
1524.07
1444.52
1364.91
1285.64
1206.85
1128.22
1049.36
970.199
890.923
811.855
733.33
655.619
578.967
503.536
431.926
362.419
301.941
242.651
156.886
53.2609
1763.44
1740.8
1716.41
1692.29
1671.21
1654.96
1643.97
1637.88
1635.91
1636.96
1639.92
1643.85
1648.08
1652.19
1655.81
1658.55
1660.03
1659.63
1656.45
1650.4
1642.08
1632.32
1622.07
1611.8
1601.34
1590.24
1578.3
1565.82
1553.39
1541.63
1531.06
1522.12
1515.16
1510.45
1508.21
1508.6
1511.76
1517.84
1527.02
1539.57
1555.9
1576.54
1602.16
1633.49
1671.29
1716.31
1769.2
1830.33
1899.64
1976.41
2060.09
2149.31
2240.91
2331.5
2418.07
2498.24
2570.12
2632.04
2682.54
2720.44
2744.76
2754.99
2750.72
2732.67
2700.29
2653.74
2596.4
2532.76
2465.7
2395.51
2321.36
2242.79
2163.17
2085.31
2006.9
1926.13
1844.46
1763.7
1684.06
1604.91
1525.66
1446.08
1366.39
1287.08
1208.33
1129.76
1050.95
971.83
892.596
813.543
735.01
657.262
580.52
504.789
432.63
362.588
301.818
243.247
156.675
50.5199
1763.59
1740.82
1716.34
1692.15
1671.02
1654.75
1643.76
1637.69
1635.74
1636.83
1639.84
1643.81
1648.07
1652.22
1655.86
1658.64
1660.19
1659.86
1656.69
1650.61
1642.23
1632.4
1622.11
1611.83
1601.38
1590.25
1578.22
1565.63
1553.09
1541.2
1530.51
1521.45
1514.37
1509.55
1507.2
1507.48
1510.55
1516.53
1525.62
1538.08
1554.31
1574.85
1600.37
1631.59
1669.27
1714.17
1766.94
1827.99
1897.27
1974.09
2058.04
2147.81
2240.08
2331.32
2418.52
2499.32
2571.85
2634.44
2685.6
2724.12
2748.97
2759.62
2755.56
2737.75
2705.06
2657.66
2599.43
2535.14
2467.77
2397.8
2323.85
2244.82
2165.02
2087.6
2009.34
1928.28
1846.4
1765.63
1686.06
1607
1527.83
1448.21
1368.4
1289.03
1210.31
1131.78
1053.01
973.947
894.759
815.719
737.173
659.405
582.477
506.306
433.365
362.985
300.507
243.43
160.243
48.7488
1763.75
1740.83
1716.25
1691.98
1670.79
1654.49
1643.5
1637.45
1635.55
1636.69
1639.75
1643.76
1648.06
1652.24
1655.93
1658.76
1660.38
1660.13
1656.99
1650.88
1642.43
1632.51
1622.16
1611.87
1601.42
1590.25
1578.13
1565.41
1552.71
1540.66
1529.81
1520.59
1513.36
1508.39
1505.9
1506.05
1509
1514.88
1523.87
1536.23
1552.34
1572.77
1598.17
1629.27
1666.81
1711.56
1764.19
1825.13
1894.4
1971.32
2055.66
2146.15
2239.22
2331.23
2419.15
2500.69
2574
2637.39
2689.37
2728.68
2754.22
2765.41
2761.63
2744.12
2710.96
2662.49
2603.18
2538.09
2470.26
2400.52
2326.89
2247.31
2167.33
2090.49
2012.4
1931.01
1848.89
1768.09
1688.59
1609.67
1530.61
1450.95
1370.98
1291.51
1212.82
1134.32
1055.55
976.542
897.39
818.373
739.774
661.863
584.638
508.342
434.666
363.114
295.803
245.903
174.412
57.8834
1763.92
1740.84
1716.14
1691.77
1670.51
1654.18
1643.2
1637.17
1635.31
1636.51
1639.63
1643.69
1648.05
1652.28
1656.01
1658.89
1660.59
1660.44
1657.34
1651.19
1642.66
1632.64
1622.23
1611.93
1601.46
1590.25
1578.02
1565.13
1552.24
1540
1528.95
1519.55
1512.13
1506.98
1504.32
1504.32
1507.14
1512.9
1521.77
1534.01
1549.99
1570.27
1595.52
1626.46
1663.83
1708.41
1760.87
1821.71
1890.97
1968.05
2052.96
2144.37
2238.41
2331.31
2420.06
2502.42
2576.59
2640.9
2693.83
2734.09
2760.48
2772.35
2768.91
2751.8
2717.95
2668.16
2607.63
2541.57
2473.13
2403.66
2330.48
2250.26
2170.1
2093.98
2016.08
1934.33
1851.96
1771.13
1691.71
1612.95
1534.05
1454.34
1374.15
1294.57
1215.89
1137.39
1058.59
979.634
900.487
821.446
742.717
664.865
587.567
510.483
435.723
364.263
294.05
240.24
165.933
60.8116
1764.11
1740.85
1716.02
1691.53
1670.19
1653.83
1642.85
1636.86
1635.05
1636.31
1639.5
1643.62
1648.03
1652.31
1656.1
1659.05
1660.83
1660.78
1657.73
1651.56
1642.95
1632.81
1622.32
1611.99
1601.52
1590.24
1577.88
1564.79
1551.68
1539.21
1527.95
1518.32
1510.69
1505.33
1502.47
1502.3
1504.95
1510.57
1519.29
1531.37
1547.17
1567.27
1592.34
1623.1
1660.28
1704.66
1756.94
1817.65
1886.91
1964.23
2049.87
2142.41
2237.61
2331.57
2421.27
2504.55
2579.65
2644.96
2698.96
2740.31
2767.69
2780.38
2777.33
2760.72
2725.96
2674.63
2612.74
2545.54
2476.34
2407.18
2334.6
2253.66
2173.31
2098.11
2020.41
1938.26
1855.65
1774.77
1695.42
1616.88
1538.19
1458.41
1377.96
1298.22
1219.54
1141.01
1062.15
983.239
904.003
825.084
746.32
667.915
589.663
512.753
438.265
362.149
281.287
218.349
158.2
67.6132
1764.31
1740.86
1715.87
1691.27
1669.84
1653.45
1642.47
1636.51
1634.76
1636.08
1639.35
1643.55
1648.01
1652.36
1656.2
1659.22
1661.08
1661.15
1658.17
1651.98
1643.28
1633.01
1622.42
1612.07
1601.57
1590.23
1577.71
1564.39
1551.03
1538.32
1526.81
1516.94
1509.05
1503.44
1500.35
1499.96
1502.42
1507.85
1516.39
1528.25
1543.83
1563.72
1588.59
1619.17
1656.14
1700.3
1752.36
1812.92
1882.14
1959.78
2046.34
2140.22
2236.77
2331.97
2422.77
2507.07
2583.19
2649.57
2704.7
2747.25
2775.75
2789.38
2786.81
2770.79
2734.88
2681.82
2618.48
2549.97
2479.84
2411.03
2339.25
2257.52
2176.98
2102.88
2025.42
1942.85
1859.98
1779.04
1699.75
1621.49
1543.07
1463.22
1382.44
1302.52
1223.83
1145.22
1066.25
987.467
908.102
828.954
749.48
670.93
593.767
515.391
436.63
356.532
273.041
207.977
152.342
65.9142
1764.51
1740.86
1715.71
1690.98
1669.46
1653.03
1642.06
1636.13
1634.44
1635.84
1639.18
1643.46
1648
1652.41
1656.31
1659.4
1661.35
1661.54
1658.64
1652.44
1643.66
1633.24
1622.55
1612.16
1601.63
1590.2
1577.5
1563.94
1550.31
1537.33
1525.54
1515.38
1507.2
1501.29
1497.92
1497.28
1499.51
1504.71
1513.01
1524.62
1539.94
1559.61
1584.28
1614.67
1651.42
1695.32
1747.11
1807.5
1876.65
1954.67
2042.32
2137.73
2235.81
2332.41
2424.49
2509.96
2587.19
2654.69
2711.03
2754.86
2784.57
2799.26
2797.22
2781.87
2744.61
2689.65
2624.81
2554.81
2483.58
2415.16
2344.39
2261.84
2181.08
2108.32
2031.11
1948.11
1865
1783.95
1704.71
1626.77
1548.72
1468.79
1387.62
1307.49
1228.8
1150.11
1070.95
992.108
912.093
833.327
755.479
674.683
593.619
514.752
436.227
354.088
269.286
202.067
145.238
59.0365
1764.71
1740.86
1715.54
1690.67
1669.05
1652.58
1641.6
1635.71
1634.09
1635.57
1639.01
1643.37
1647.98
1652.46
1656.43
1659.6
1661.64
1661.95
1659.15
1652.96
1644.09
1633.51
1622.7
1612.26
1601.7
1590.16
1577.26
1563.44
1549.53
1536.24
1524.14
1513.64
1505.12
1498.88
1495.19
1494.26
1496.21
1501.13
1509.14
1520.45
1535.5
1554.93
1579.4
1609.59
1646.1
1689.71
1741.2
1801.38
1870.42
1948.88
2037.81
2134.89
2234.67
2332.84
2426.36
2513.15
2591.6
2660.3
2717.88
2763.06
2794.07
2809.92
2808.47
2793.81
2755.06
2698.08
2631.7
2560.02
2487.5
2419.48
2350.03
2266.61
2185.64
2114.46
2037.54
1954.09
1870.75
1789.55
1710.31
1632.75
1555.15
1475.14
1393.51
1313.18
1234.52
1155.72
1076.07
997.507
918.672
837.657
756.655
675.678
595.352
516.175
435.909
351.371
265.944
196.522
138.194
53.3674
1764.91
1740.85
1715.35
1690.34
1668.6
1652.09
1641.12
1635.27
1633.72
1635.29
1638.82
1643.27
1647.96
1652.53
1656.57
1659.81
1661.93
1662.36
1659.7
1653.53
1644.57
1633.82
1622.88
1612.37
1601.76
1590.1
1576.99
1562.9
1548.67
1535.05
1522.58
1511.7
1502.79
1496.18
1492.15
1490.88
1492.5
1497.09
1504.75
1515.74
1530.49
1549.68
1573.94
1603.94
1640.19
1683.49
1734.61
1794.55
1863.46
1942.46
2032.84
2131.75
2233.33
2333.21
2428.33
2516.58
2596.37
2666.35
2725.24
2771.81
2804.2
2821.29
2820.48
2806.41
2766.15
2707.06
2639.1
2565.55
2491.57
2423.87
2356.11
2271.81
2190.64
2121.35
2044.72
1960.85
1877.31
1795.87
1716.55
1639.4
1562.34
1482.28
1400.17
1319.73
1241.19
1162.5
1083.23
1003.1
922.064
840.412
759.302
678.37
597.04
516.096
434.18
348.722
264.016
193.348
133.781
51.4592
1765.11
1740.84
1715.15
1689.99
1668.13
1651.58
1640.61
1634.8
1633.33
1634.98
1638.62
1643.17
1647.95
1652.6
1656.71
1660.03
1662.24
1662.79
1660.27
1654.14
1645.11
1634.17
1623.08
1612.5
1601.81
1590.03
1576.7
1562.32
1547.74
1533.73
1520.85
1509.56
1500.23
1493.21
1488.78
1487.12
1488.36
1492.56
1499.84
1510.46
1524.89
1543.84
1567.9
1597.71
1633.69
1676.64
1727.34
1787.02
1855.77
1935.42
2027.47
2128.34
2231.83
2333.52
2430.36
2520.21
2601.45
2672.81
2733.07
2781.09
2814.91
2833.33
2833.24
2819.56
2777.82
2716.59
2647
2571.37
2495.74
2428.21
2362.6
2277.4
2196.06
2129.04
2052.72
1968.47
1884.75
1802.97
1723.45
1646.69
1570.27
1490.19
1407.59
1327.21
1249.22
1170.01
1089.19
1007.75
926.21
844.63
762.67
680.111
597.389
515.245
432.355
346.916
263.654
192.981
132.308
51.5604
1765.31
1740.82
1714.93
1689.62
1667.64
1651.04
1640.07
1634.31
1632.91
1634.67
1638.4
1643.06
1647.93
1652.67
1656.87
1660.26
1662.55
1663.21
1660.86
1654.8
1645.69
1634.56
1623.31
1612.64
1601.87
1589.94
1576.39
1561.67
1546.71
1532.28
1518.96
1507.21
1497.42
1489.95
1485.07
1482.97
1483.77
1487.52
1494.37
1504.6
1518.7
1537.41
1561.29
1590.91
1626.61
1669.19
1719.4
1778.8
1847.37
1927.8
2021.74
2124.72
2230.22
2333.81
2432.46
2524
2606.8
2679.64
2741.33
2790.85
2826.18
2846.01
2846.75
2833.31
2790
2726.63
2655.37
2577.47
2500.02
2432.44
2369.39
2283.35
2201.93
2137.62
2061.58
1977.05
1893.19
1810.96
1731.05
1654.55
1578.72
1498.51
1415.4
1335.59
1257.71
1176.93
1094.81
1013.04
931.122
848.595
765.042
681.03
597.498
514.543
430.912
345.841
264.254
194.151
132.236
51.8405
1765.52
1740.8
1714.7
1689.23
1667.11
1650.47
1639.5
1633.79
1632.48
1634.33
1638.18
1642.94
1647.91
1652.76
1657.04
1660.5
1662.86
1663.64
1661.47
1655.5
1646.33
1634.99
1623.57
1612.8
1601.93
1589.85
1576.04
1560.97
1545.59
1530.7
1516.91
1504.66
1494.37
1486.39
1481.02
1478.42
1478.71
1481.96
1488.34
1498.16
1511.92
1530.4
1554.11
1583.56
1618.96
1661.13
1710.79
1769.88
1838.24
1919.6
2015.7
2120.91
2228.52
2334.12
2434.67
2527.96
2612.39
2686.78
2749.98
2801.06
2837.96
2859.31
2861
2847.74
2802.58
2737.07
2664.09
2583.76
2504.35
2436.54
2376.28
2289.55
2208.27
2147.17
2071.38
1986.74
1902.81
1819.99
1739.44
1663.04
1587.87
1507.88
1424.45
1344.15
1265.7
1183.87
1100.95
1018.75
935.922
851.911
766.85
681.874
597.746
514.137
430.052
345.582
265.458
195.506
132.28
51.8135
1765.7
1740.77
1714.46
1688.82
1666.57
1649.87
1638.91
1633.25
1632.02
1633.98
1637.94
1642.82
1647.9
1652.85
1657.22
1660.75
1663.18
1664.06
1662.09
1656.24
1647.02
1635.47
1623.87
1612.98
1601.99
1589.75
1575.65
1560.2
1544.37
1529
1514.69
1501.91
1491.07
1482.54
1476.61
1473.45
1473.17
1475.87
1481.74
1491.13
1504.55
1522.82
1546.38
1575.68
1610.78
1652.51
1701.53
1760.27
1828.4
1910.86
2009.38
2116.94
2226.75
2334.47
2437
2532.09
2618.19
2694.2
2758.96
2811.65
2850.17
2873.16
2875.93
2862.83
2815.49
2747.93
2673.19
2590.22
2508.64
2440.47
2383.02
2295.81
2215.04
2157.79
2082.15
1997.7
1913.78
1830.3
1748.77
1671.72
1596.23
1515.87
1432.4
1352.4
1273.34
1190.64
1107.22
1024.29
940.344
854.822
768.467
682.79
598.204
514.171
429.943
346.142
267.002
196.756
132.363
51.6324
1765.88
1740.73
1714.21
1688.4
1666
1649.25
1638.29
1632.69
1631.55
1633.62
1637.7
1642.7
1647.89
1652.95
1657.42
1661.01
1663.51
1664.48
1662.72
1657.01
1647.76
1635.99
1624.2
1613.18
1602.07
1589.63
1575.22
1559.35
1543.05
1527.17
1512.31
1498.95
1487.52
1478.38
1471.84
1468.04
1467.13
1469.23
1474.56
1483.5
1496.59
1514.66
1538.11
1567.27
1602.07
1643.32
1691.62
1749.95
1817.89
1901.61
2002.81
2112.82
2224.94
2334.88
2439.46
2536.39
2624.18
2701.83
2768.18
2822.51
2862.72
2887.5
2891.45
2878.44
2828.71
2759.45
2682.93
2597.07
2513.03
2444.34
2389.34
2302.3
2222.47
2169.55
2093.88
2010.03
1926.3
1842.2
1759.43
1681.3
1605.4
1524.79
1441.22
1361.18
1280.81
1197.21
1113.56
1029.94
944.54
857.319
770.015
683.915
599.051
514.777
430.58
347.39
268.881
198.195
132.683
51.4766
1766.06
1740.69
1713.94
1687.96
1665.4
1648.61
1637.65
1632.1
1631.06
1633.24
1637.44
1642.57
1647.88
1653.05
1657.64
1661.29
1663.85
1664.9
1663.36
1657.82
1648.55
1636.56
1624.57
1613.41
1602.16
1589.5
1574.74
1558.45
1541.65
1525.21
1509.76
1495.78
1483.7
1473.91
1466.69
1462.2
1460.59
1462.03
1466.8
1475.29
1488.05
1505.96
1529.32
1558.36
1592.87
1633.6
1681.09
1738.91
1806.76
1891.93
1996.01
2108.57
2223.08
2335.36
2442.06
2540.85
2630.33
2709.63
2777.58
2833.54
2875.44
2902.14
2907.52
2894.23
2841.72
2771.29
2693.19
2604.34
2517.63
2448.36
2394.8
2309.26
2230.96
2182.47
2106.5
2023.81
1940.42
1856.13
1772.33
1692.06
1615.42
1536.01
1453.82
1373.55
1291
1205.85
1121.01
1035.59
948.202
859.671
771.84
685.523
600.467
516.016
431.887
349.179
271.046
199.853
133.238
51.3964
1766.24
1740.63
1713.67
1687.5
1664.79
1647.94
1636.98
1631.49
1630.55
1632.84
1637.18
1642.44
1647.88
1653.17
1657.87
1661.57
1664.2
1665.32
1664
1658.65
1649.39
1637.16
1624.98
1613.67
1602.25
1589.34
1574.22
1557.47
1540.15
1523.14
1507.06
1492.41
1479.63
1469.12
1461.15
1455.89
1453.53
1454.28
1458.46
1466.49
1478.95
1496.71
1520.02
1548.98
1583.2
1623.36
1669.96
1727.12
1795.02
1881.91
1989.02
2104.17
2221.18
2335.91
2444.79
2545.45
2636.63
2717.55
2787.06
2844.61
2888.16
2916.89
2924
2909.72
2854
2782.94
2703.46
2611.65
2522.2
2452.32
2398.78
2316.45
2241.29
2196.86
2119.92
2038.96
1956.07
1870.99
1785.16
1702.77
1625.51
1547.23
1466.54
1386.06
1302.13
1215.11
1128.3
1040.86
951.867
862.504
774.35
687.847
602.566
517.92
433.821
351.431
273.463
201.721
134.042
51.4271
1766.42
1740.57
1713.38
1687.03
1664.15
1647.24
1636.28
1630.85
1630.02
1632.43
1636.9
1642.31
1647.88
1653.3
1658.12
1661.88
1664.56
1665.74
1664.63
1659.51
1650.28
1637.82
1625.44
1613.96
1602.36
1589.16
1573.66
1556.44
1538.57
1520.94
1504.19
1488.82
1475.3
1464.01
1455.22
1449.12
1445.94
1445.97
1449.54
1457.12
1469.28
1486.93
1510.24
1539.14
1573.11
1612.67
1658.28
1714.61
1782.66
1871.63
1981.88
2099.67
2219.26
2336.54
2447.66
2550.2
2643.04
2725.55
2796.57
2855.6
2900.65
2931.4
2940.86
2924.1
2866.08
2795.03
2714.15
2619.23
2526.95
2456.46
2402.26
2322.86
2252.06
2212.28
2134.2
2055.44
1972.49
1886.62
1799.42
1715.39
1636.29
1557.03
1476.44
1395.75
1311.66
1224.04
1135.82
1046.65
956.333
866.291
777.802
691.012
605.418
520.525
436.383
354.149
276.172
203.842
135.135
51.5968
1766.56
1740.49
1713.07
1686.54
1663.48
1646.52
1635.55
1630.19
1629.46
1632
1636.62
1642.17
1647.88
1653.44
1658.38
1662.2
1664.92
1666.15
1665.26
1660.4
1651.21
1638.52
1625.93
1614.28
1602.47
1588.97
1573.06
1555.35
1536.91
1518.63
1501.16
1485.03
1470.7
1458.56
1448.88
1441.88
1437.83
1437.1
1440.06
1447.19
1459.06
1476.63
1500
1528.89
1562.63
1601.55
1646.11
1701.44
1769.75
1861.18
1974.66
2095.09
2217.34
2337.26
2450.64
2555.06
2649.55
2733.6
2806.03
2866.39
2912.72
2945.15
2957.95
2934.85
2877.32
2807.88
2726.03
2628.17
2533.06
2462.53
2404.98
2333.92
2265.95
2228.25
2149.16
2072.88
1989.85
1903.69
1815.7
1730.91
1650.09
1569.42
1488.21
1406.94
1322.57
1234.25
1144.43
1053.49
961.949
871.23
782.291
695.076
609.078
523.875
439.6
357.37
279.234
206.259
136.54
51.9199
1766.7
1740.4
1712.76
1686.04
1662.79
1645.76
1634.79
1629.5
1628.88
1631.56
1636.33
1642.04
1647.9
1653.58
1658.66
1662.54
1665.29
1666.54
1665.87
1661.31
1652.2
1639.26
1626.47
1614.64
1602.59
1588.75
1572.43
1554.21
1535.16
1516.2
1497.97
1481.03
1465.84
1452.78
1442.14
1434.16
1429.2
1427.68
1430.02
1436.69
1448.3
1465.84
1489.32
1518.26
1551.84
1590.09
1633.55
1687.66
1756.35
1850.67
1967.45
2090.49
2215.45
2338.06
2453.73
2560.03
2656.14
2741.66
2815.4
2876.89
2924.15
2957.39
2975.55
2941.38
2886.88
2819.94
2737.9
2637.82
2540.23
2470.87
2403.56
2339.4
2281.12
2244.77
2165.3
2091.9
2008.69
1922.52
1834.07
1748.76
1666.14
1584.31
1502.31
1420.15
1334.89
1245.42
1153.95
1061.42
968.777
877.347
787.83
700.074
613.587
527.997
443.488
361.12
282.68
208.979
138.239
52.3863
1766.83
1740.31
1712.43
1685.51
1662.06
1644.98
1633.99
1628.77
1628.27
1631.1
1636.03
1641.9
1647.92
1653.75
1658.95
1662.91
1665.67
1666.94
1666.46
1662.25
1653.24
1640.05
1627.04
1615.02
1602.71
1588.53
1571.77
1553.02
1533.34
1513.65
1494.63
1476.82
1460.7
1446.65
1434.98
1425.97
1420.04
1417.71
1419.43
1425.65
1437
1454.56
1478.25
1507.3
1540.8
1578.35
1620.69
1673.29
1742.52
1840.23
1960.36
2085.92
2213.63
2338.97
2456.93
2565.09
2662.79
2749.72
2824.66
2887.04
2934.79
2967.46
2980.93
2947.66
2895.89
2830.12
2747.52
2645.5
2545.24
2476.9
2408.24
2350.98
2297.52
2262.1
2184
2112.9
2029.38
1943
1854.25
1768.21
1683.73
1600.59
1517.32
1433.98
1347.6
1257.03
1164.21
1070.39
976.773
884.594
794.404
706.016
618.959
532.896
448.04
365.386
286.494
211.961
140.145
52.9459
1766.97
1740.19
1712.09
1684.97
1661.3
1644.15
1633.16
1628.01
1627.64
1630.61
1635.72
1641.77
1647.95
1653.92
1659.26
1663.29
1666.07
1667.34
1667.03
1663.21
1654.33
1640.89
1627.66
1615.43
1602.85
1588.3
1571.09
1551.79
1531.45
1511
1491.13
1472.4
1455.29
1440.18
1427.4
1417.29
1410.37
1407.21
1408.29
1414.06
1425.18
1442.81
1466.82
1496.05
1529.56
1566.38
1607.59
1658.37
1728.28
1829.98
1953.47
2081.48
2211.93
2340
2460.23
2570.25
2669.5
2757.76
2833.78
2896.84
2944.58
2973.51
2973.45
2958.72
2907.31
2841.85
2758.48
2655.28
2553.39
2483.77
2415.96
2366.45
2324.37
2282
2206.62
2135.85
2051.54
1964.96
1876.15
1788.9
1702.62
1617.64
1532.81
1448.15
1360.64
1269.12
1175.22
1080.35
985.861
892.915
801.989
712.893
625.179
538.544
453.211
370.108
290.601
215.103
142.091
53.5131
1767.09
1740.07
1711.74
1684.4
1660.5
1643.29
1632.28
1627.21
1626.97
1630.11
1635.39
1641.64
1647.99
1654.11
1659.58
1663.71
1666.49
1667.76
1667.59
1664.17
1655.46
1641.78
1628.32
1615.87
1603
1588.07
1570.4
1550.52
1529.49
1508.25
1487.48
1467.77
1449.6
1433.36
1419.41
1408.14
1400.19
1396.19
1396.61
1401.92
1412.84
1430.63
1455.06
1484.57
1518.18
1554.22
1594.3
1642.83
1713.66
1820.01
1946.85
2077.24
2210.43
2341.18
2463.66
2575.49
2676.26
2765.79
2842.78
2906.38
2953.75
2978.14
2977.3
2972.45
2922.21
2857.07
2773.72
2670.2
2568.07
2495.83
2434.01
2378.07
2342.09
2301.59
2230.48
2159.2
2075.2
1988.85
1899.6
1810.86
1722.67
1635.46
1548.94
1462.86
1374.22
1281.83
1187.03
1091.27
995.974
902.253
810.541
720.66
632.194
544.87
458.91
375.174
294.881
218.263
143.891
54.0063
1767.18
1739.92
1711.37
1683.8
1659.67
1642.38
1631.35
1626.37
1626.27
1629.58
1635.05
1641.5
1648.04
1654.32
1659.92
1664.15
1666.92
1668.21
1668.14
1665.13
1656.64
1642.73
1629.03
1616.34
1603.18
1587.85
1569.69
1549.22
1527.47
1505.39
1483.69
1462.93
1443.64
1426.19
1411
1398.53
1389.51
1384.64
1384.4
1389.25
1400.01
1418.06
1443.03
1472.89
1506.7
1541.9
1580.74
1626.47
1698.54
1810.37
1940.52
2073.29
2209.18
2342.54
2467.21
2580.83
2683.08
2773.83
2851.71
2916.12
2963.41
2986.22
2994.16
2989.53
2939.89
2874.83
2792.29
2689.29
2588.65
2509.23
2458.66
2398.31
2361.18
2324.63
2256.32
2184.72
2101.16
2014.6
1924.47
1834.18
1743.89
1654.3
1565.93
1478.31
1388.51
1295.27
1199.67
1103.12
1007.06
912.551
819.998
729.245
639.916
551.77
465.015
380.458
299.222
221.355
145.483
54.4088
1767.26
1739.77
1710.97
1683.18
1658.78
1641.42
1630.38
1625.49
1625.54
1629.02
1634.7
1641.36
1648.09
1654.54
1660.28
1664.61
1667.37
1668.67
1668.68
1666.06
1657.84
1643.73
1629.78
1616.85
1603.37
1587.64
1568.98
1547.89
1525.39
1502.44
1479.74
1457.89
1437.39
1418.68
1402.17
1388.45
1378.33
1372.57
1371.64
1376.04
1386.71
1405.11
1430.76
1461.05
1495.16
1529.41
1566.92
1609.23
1682.71
1801.03
1934.46
2069.68
2208.25
2344.12
2470.92
2586.29
2690
2781.91
2860.93
2927
2975.05
2998.57
3015.14
3008.74
2960.07
2895.14
2814.07
2712.38
2615.09
2528.42
2485.45
2427.92
2390.28
2353.04
2285.11
2212.91
2129.15
2041.88
1950.74
1858.91
1766.44
1674.41
1583.98
1494.68
1403.65
1309.55
1213.17
1115.88
1019.07
923.736
830.27
738.545
648.235
559.127
471.423
385.894
303.603
224.418
146.986
54.7797
1767.33
1739.59
1710.56
1682.52
1657.85
1640.42
1629.36
1624.57
1624.78
1628.43
1634.32
1641.22
1648.16
1654.78
1660.65
1665.1
1667.83
1669.15
1669.19
1666.96
1659.07
1644.79
1630.57
1617.4
1603.6
1587.45
1568.27
1546.54
1523.26
1499.38
1475.64
1452.63
1430.87
1410.81
1392.94
1377.93
1366.67
1359.99
1358.36
1362.32
1372.96
1391.85
1418.29
1449.09
1483.58
1516.81
1552.95
1591.38
1666.05
1791.91
1928.64
2066.47
2207.71
2345.96
2474.8
2591.89
2697.04
2790.29
2871.2
2939.85
2989.12
3014.15
3037.34
3027.72
2981.95
2917.8
2838.89
2739.24
2645.46
2558.07
2515.77
2461.47
2423.85
2384.03
2316.05
2242.94
2158.59
2070.47
1978.36
1885.07
1790.47
1695.92
1603.26
1512.14
1419.77
1324.73
1227.56
1129.53
1031.94
935.723
841.256
748.456
657.054
566.873
478.109
391.51
308.097
227.57
148.593
55.2013
1767.4
1739.4
1710.13
1681.83
1656.88
1639.38
1628.29
1623.62
1623.99
1627.81
1633.93
1641.07
1648.23
1655.03
1661.04
1665.6
1668.31
1669.62
1669.65
1667.82
1660.3
1645.9
1631.41
1617.99
1603.86
1587.28
1567.55
1545.16
1521.07
1496.24
1471.4
1447.17
1424.08
1402.61
1383.32
1366.96
1354.53
1346.9
1344.55
1348.11
1358.81
1378.32
1405.67
1437.03
1472.03
1504.2
1539.06
1573.34
1648.62
1782.96
1923.03
2063.71
2207.59
2348.1
2478.9
2597.67
2704.36
2799.57
2883.3
2954.89
3005.45
3032.42
3060.36
3045.1
3004.79
2942.6
2866.59
2769.82
2677.84
2595.36
2550.78
2497.69
2458.78
2416.24
2348.34
2274.23
2189.3
2100.41
2007.47
1912.79
1816.08
1718.97
1623.9
1530.81
1436.98
1340.88
1242.86
1144.04
1045.61
948.425
852.867
758.906
666.333
575.006
485.116
397.391
312.807
230.932
150.448
55.732
1767.45
1739.18
1709.67
1681.1
1655.85
1638.29
1627.18
1622.63
1623.17
1627.16
1633.51
1640.92
1648.31
1655.3
1661.44
1666.11
1668.82
1670.1
1670.08
1668.62
1661.53
1647.08
1632.3
1618.63
1604.16
1587.13
1566.85
1543.77
1518.84
1493.01
1467.02
1441.51
1417.02
1394.07
1373.3
1355.55
1341.92
1333.3
1330.23
1333.42
1344.29
1364.57
1392.92
1424.93
1460.59
1491.78
1525.55
1555.75
1630.7
1774.17
1917.63
2061.46
2207.91
2350.57
2483.26
2603.71
2712.48
2810.62
2897.52
2971.88
3023.88
3052.99
3083.76
3059.82
3028.3
2969.29
2896.89
2804.09
2710.87
2636.9
2589.72
2536.74
2495.53
2450.08
2382.2
2307.19
2221.86
2132.34
2038.58
1942.39
1843.42
1743.65
1646.05
1550.8
1455.34
1358.05
1259.09
1159.38
1060.01
961.778
865.056
769.875
676.085
583.568
492.512
403.617
317.815
234.577
152.621
56.3946
1767.46
1738.95
1709.19
1680.33
1654.78
1637.16
1626.02
1621.61
1622.34
1626.49
1633.07
1640.76
1648.39
1655.58
1661.86
1666.63
1669.34
1670.61
1670.53
1669.39
1662.76
1648.31
1633.24
1619.32
1604.5
1587.01
1566.16
1542.38
1516.57
1489.7
1462.52
1435.66
1409.7
1385.21
1362.9
1343.72
1328.83
1319.2
1315.41
1318.29
1329.45
1350.62
1380.06
1412.81
1449.39
1479.92
1513.1
1539.61
1613.1
1765.7
1912.48
2059.72
2208.71
2353.41
2487.91
2610.54
2722.38
2823.73
2913.57
2990.71
3044.35
3075.34
3107.06
3073.83
3052.68
2997.73
2929.41
2841.26
2745.63
2681.15
2631.61
2578.71
2535.02
2486.6
2418.68
2342.92
2257.35
2167.15
2072.3
1974.14
1872.57
1770
1669.74
1572.18
1474.9
1376.27
1276.22
1175.52
1075.12
975.757
877.818
781.382
686.344
592.606
500.346
410.238
323.16
238.534
155.113
57.1863
1767.45
1738.7
1708.69
1679.53
1653.67
1636
1624.83
1620.56
1621.48
1625.78
1632.62
1640.59
1648.48
1655.88
1662.3
1667.17
1669.87
1671.14
1671.05
1670.16
1664.02
1649.63
1634.22
1620.05
1604.87
1586.91
1565.48
1540.96
1514.26
1486.31
1457.88
1429.61
1402.13
1376.04
1352.14
1331.48
1315.3
1304.62
1300.12
1302.75
1314.32
1336.51
1367.08
1400.75
1438.66
1469.13
1502.74
1525.89
1596.72
1757.84
1907.71
2058.56
2210
2356.66
2493.43
2619.16
2734.26
2838.53
2931.41
3011.41
3066.76
3099.15
3130.54
3092
3078.16
3027.72
2963.35
2878.49
2784.73
2727.97
2676.31
2623.86
2577.87
2526.64
2458.59
2382.16
2296.26
2205.05
2108.54
2007.86
1903.4
1797.96
1694.96
1594.94
1495.69
1395.55
1294.28
1192.46
1090.93
990.365
891.169
793.451
697.137
602.143
508.638
417.264
328.845
242.793
157.892
58.0883
1767.43
1738.42
1708.16
1678.7
1652.51
1634.8
1623.6
1619.49
1620.61
1625.06
1632.14
1640.42
1648.58
1656.18
1662.75
1667.71
1670.41
1671.69
1671.63
1670.99
1665.33
1651.01
1635.24
1620.82
1605.26
1586.81
1564.78
1539.52
1511.89
1482.83
1453.1
1423.37
1394.29
1366.55
1341.01
1318.82
1301.31
1289.57
1284.37
1286.82
1298.92
1322.26
1354.05
1388.9
1428.54
1459.46
1494.24
1515.23
1582.28
1750.79
1903.5
2058.02
2211.86
2360.99
2500.81
2629.69
2747.73
2855.02
2951.17
3033.96
3091.01
3124.34
3154.77
3116.86
3104.17
3058.21
2996.97
2914.52
2828.46
2776.84
2723.82
2672.05
2623.96
2570.12
2501.68
2424.45
2337.89
2245.23
2146.58
2043.07
1935.63
1827.34
1721.61
1619.04
1517.69
1415.89
1313.25
1210.19
1107.43
1005.62
905.127
806.098
708.474
612.181
517.381
424.679
334.85
247.323
160.896
59.0711
1767.39
1738.13
1707.61
1677.83
1651.32
1633.57
1622.33
1618.41
1619.74
1624.32
1631.66
1640.24
1648.68
1656.5
1663.21
1668.26
1670.96
1672.25
1672.27
1671.88
1666.67
1652.45
1636.29
1621.62
1605.67
1586.72
1564.07
1538.05
1509.47
1479.26
1448.18
1416.92
1386.19
1356.72
1329.49
1305.72
1286.84
1274.02
1268.16
1270.51
1283.3
1307.94
1341.1
1377.33
1418.83
1450.44
1486.6
1505.51
1568.8
1744.85
1900.11
2058.35
2215.13
2367.25
2509.99
2641.71
2762.79
2873.37
2972.88
3058.3
3117
3150.97
3180.06
3146.47
3129.89
3087.82
3029.27
2951.74
2875.35
2826.87
2773.69
2722.47
2672.44
2616.16
2546.96
2468.71
2381.14
2286.73
2185.71
2079.3
1968.97
1857.96
1749.55
1644.44
1540.89
1437.29
1333.14
1228.71
1124.65
1021.52
919.699
819.32
720.344
622.704
526.549
432.449
341.138
252.081
164.056
60.1009
1767.34
1737.82
1707.04
1676.92
1650.09
1632.3
1621.04
1617.31
1618.87
1623.57
1631.16
1640.05
1648.78
1656.83
1663.69
1668.82
1671.5
1672.8
1672.92
1672.79
1668.01
1653.91
1637.38
1622.46
1606.12
1586.65
1563.37
1536.56
1507
1475.6
1443.13
1410.3
1377.85
1346.59
1317.59
1292.18
1271.89
1257.98
1251.49
1253.89
1267.58
1293.73
1328.31
1365.89
1408.99
1442.02
1483.88
1502.2
1556.6
1740.09
1898.18
2060.45
2220.31
2375.13
2520.51
2655.22
2779.61
2893.64
2996.47
3084.33
3144.66
3179
3206.27
3179.01
3156.2
3117.35
3062.07
2992.01
2924.66
2877.83
2825.24
2774.23
2722.37
2663.81
2593.58
2514.08
2425.24
2328.9
2225.44
2116.25
2003.22
1889.66
1778.7
1671.08
1565.27
1459.74
1353.93
1248.04
1142.58
1038.09
934.882
833.107
732.729
633.685
536.11
440.534
347.67
257.024
167.31
61.1491
1767.24
1737.49
1706.45
1675.97
1648.82
1631.01
1619.71
1616.2
1618.01
1622.82
1630.66
1639.87
1648.89
1657.16
1664.17
1669.38
1672.03
1673.32
1673.54
1673.65
1669.3
1655.37
1638.49
1623.32
1606.59
1586.61
1562.7
1535.09
1504.51
1471.88
1437.97
1403.51
1369.29
1336.18
1305.36
1278.26
1256.5
1241.49
1234.46
1237.08
1251.91
1279.63
1315.42
1354.24
1398.96
1433.95
1479.77
1504.71
1555.79
1738.08
1898.57
2064.36
2226.91
2384.25
2532.45
2670.39
2798.24
2915.79
3021.88
3112.04
3173.86
3208.27
3233.3
3213.36
3185.34
3149.23
3097.56
3034.72
2975.92
2929.7
2877.94
2826.75
2773.16
2712.5
2641
2560.1
2469.76
2371.4
2265.54
2153.77
2038.26
1922.36
1808.99
1698.91
1590.78
1483.2
1375.62
1268.16
1161.24
1055.31
950.666
847.443
745.607
645.095
546.03
448.901
354.415
262.123
170.629
62.2035
1767.13
1737.14
1705.83
1674.99
1647.5
1629.68
1618.35
1615.09
1617.14
1622.06
1630.16
1639.68
1649
1657.51
1664.66
1669.94
1672.58
1673.82
1674.13
1674.42
1670.59
1656.81
1639.61
1624.2
1607.09
1586.61
1562.08
1533.66
1502.06
1468.15
1432.73
1396.58
1360.54
1325.54
1292.86
1264.03
1240.78
1224.69
1217.21
1220.22
1236.24
1265.35
1302.21
1342.52
1389.05
1426.09
1469.74
1507.58
1564.24
1738.41
1900.85
2069.55
2234.7
2394.71
2545.92
2687.25
2818.64
2939.73
3049.05
3141.37
3204.47
3238.61
3261.27
3249.27
3218.24
3184.53
3136.09
3079.25
3028.4
2982.23
2931.39
2879.74
2824.52
2761.89
2688.96
2606.51
2514.52
2414.1
2305.96
2191.82
2074.09
1956.03
1840.39
1727.88
1617.37
1507.65
1398.2
1289.07
1180.61
1073.18
967.042
862.311
758.955
656.911
556.285
457.532
361.362
267.377
174.037
63.2729
1767.02