/*--------------------------------*- C++ -*----------------------------------*\
| =========                 |                                                 |
| \\      /  F ield         | OpenFOAM: The Open Source CFD Toolbox           |
|  \\    /   O peration     | Version:  4.1                                   |
|   \\  /    A nd           | Web:      www.OpenFOAM.org                      |
|    \\/     M anipulation  |                                                 |
\*---------------------------------------------------------------------------*/
FoamFile
{
    version     2.0;
    format      ascii;
    class       surfaceScalarField;
    location    "1500";
    object      phi;
}
// * * * * * * * * * * * * * * * * * * * * * * * * * * * * * * * * * * * * * //

dimensions      [0 3 -1 0 0 0 0];

internalField   nonuniform List<scalar> 
52920
(
2053.79
-103.254
2164.3
-110.509
2281.76
-117.474
2399.56
-117.812
2504.57
-105.031
2586.49
-81.9348
2640.12
-53.6431
2665.57
-25.4712
2668.15
-2.59934
2655.94
12.1983
2637.21
18.7152
2618.46
18.7223
2603.21
15.234
2590.01
13.1809
2575.19
14.8059
2565.74
9.43132
2586.67
-20.9543
2661.61
-74.9555
2786.36
-124.774
2937.94
-151.6
3092.77
-154.841
3235.22
-142.478
3365.86
-130.65
3502.29
-136.448
3669.37
-167.099
3884.07
-214.715
4148.04
-263.983
4453.7
-305.68
4792.93
-339.237
5160.46
-367.541
5553.61
-393.158
5971.12
-417.527
6412.55
-441.435
6877.84
-465.299
7366.92
-489.089
7879.11
-512.199
8412.82
-533.718
8965.45
-552.639
9533.22
-567.776
10110.5
-577.335
10689.2
-578.663
11258
-568.764
11802.7
-544.779
12307.4
-504.726
12755.2
-447.714
13129.8
-374.646
13418.2
-288.431
13612.7
-194.52
13713.1
-100.399
13724.5
-11.3549
13661.6
62.8306
13545.3
116.396
13390.5
154.705
13209.1
181.476
13010.7
198.34
12805.6
205.084
12605.2
200.48
12421.8
183.353
12268.4
153.407
12157.2
111.227
12097.7
59.5143
12096.7
0.965873
12153.6
-56.8985
12269.9
-116.324
12441.3
-171.388
12640.9
-199.623
12835.7
-194.777
13004.3
-168.602
13141.4
-137.141
13243.3
-101.809
13301
-57.7414
13284.2
16.8149
13163.3
120.862
12950
213.308
12677.7
272.315
12374.8
302.907
12065.4
309.364
11775.3
290.087
11528.5
246.89
11340.2
188.254
11212.6
127.613
11131.8
80.7875
11073.3
58.4709
11015.1
58.2797
10947.2
67.8104
10870.6
76.6795
10787.5
83.1078
10696.1
91.346
10590.8
105.354
10467.4
123.405
10329.9
137.5
10185.5
144.385
10030.8
154.627
9815.87
214.978
9563.47
252.403
9066.95
496.52
8509.13
557.816
8842.71
-333.578
9985.17
-1142.46
-938.301
2050.89
-209.164
2164.91
-224.538
2287.06
-239.629
2409.75
-240.518
2518.77
-214.071
2603.73
-166.913
2660.05
-109.98
2688.36
-53.7992
2693.86
-8.1138
2684.14
21.9056
2667.01
35.8158
2648.76
36.9539
2632.87
31.1023
2618.68
27.3534
2603.51
29.9557
2593.13
19.7931
2609.87
-37.7187
2677.93
-143.028
2796.73
-243.597
2945.59
-300.475
3101.06
-310.331
3246.27
-287.714
3379.3
-263.69
3513.91
-271.081
3670.58
-323.788
3863.36
-407.501
4093.89
-494.53
4357.18
-568.983
4648.86
-630.931
4967.59
-686.285
5314.14
-739.716
5689.85
-793.25
6095.82
-847.419
6532.7
-902.187
7000.74
-957.134
7499.7
-1011.17
8028.7
-1062.72
8585.75
-1109.7
9167.05
-1149.09
9765.93
-1176.22
10371.9
-1184.66
10971
-1167.86
11546.5
-1120.24
12080.2
-1038.46
12553.8
-921.348
12950.2
-771.052
13255.2
-593.447
13460.1
-399.349
13563.5
-203.853
13571.2
-19.0623
13498
136.038
13363.3
251.079
13183
335.039
12970.2
394.277
12737.2
431.343
12496.7
445.531
12262.7
434.491
12049.8
396.273
11872.3
330.854
11743.6
239.998
11673.3
129.754
11668.5
5.7598
11728.2
-116.537
11855.1
-243.201
12042.9
-359.263
12261.3
-417.967
12477.9
-411.393
12670.5
-361.162
12830.3
-297.03
12952.8
-224.278
13028
-132.938
13022.3
22.5631
12909.7
233.385
12707.2
415.883
12449.1
530.356
12163.3
588.703
11873.4
599.256
11603.9
559.595
11376.2
474.651
11202.8
361.58
11083.7
246.726
11003.3
161.175
10936.6
125.193
10862.6
132.337
10773.5
156.906
10671.7
178.469
10561.2
193.577
10442.4
210.146
10311.5
236.281
10165.3
269.592
10007.2
295.568
9843.13
308.495
9670.39
327.37
9444.43
440.941
9134.13
562.698
8697.14
933.514
8120.1
1134.86
8185.9
-399.38
9285.24
-2241.79
-1934.42
2039.23
-316.88
2157.86
-343.173
2286.07
-367.852
2413.39
-367.844
2524.2
-324.909
2608.7
-251.422
2663.56
-164.862
2690.47
-80.723
2695.05
-12.7024
2684.84
32.0974
2667.42
53.2108
2648.82
55.5363
2632.28
47.6258
2616.95
42.6673
2599.67
47.2206
2585.08
34.357
2595.64
-48.2937
2658.44
-205.844
2775.43
-360.606
2924.98
-450.045
3081.34
-466.711
3224.91
-431.297
3349.98
-388.782
3466.35
-387.466
3593.5
-450.949
3749.16
-563.176
3940.33
-685.719
4165.25
-793.911
4420.12
-885.815
4703.28
-969.456
5015.98
-1052.42
5361.66
-1138.94
5745
-1230.78
6170.85
-1328.05
6642.75
-1429.04
7161.28
-1529.71
7723.13
-1624.59
8321.09
-1707.66
8944.61
-1772.62
9580.71
-1812.32
10214.8
-1818.75
10831.8
-1784.87
11416.6
-1705.09
11954.3
-1576.1
12429.4
-1396.48
12827.1
-1168.78
13134.4
-900.735
13342.4
-607.323
13449.1
-310.642
13459.8
-29.6722
13386.2
209.537
13243.8
393.486
13045.7
533.133
12804
636.009
12531.6
703.74
12243.7
733.463
11957.7
720.507
11692.3
661.583
11466.2
557.021
11295.9
410.294
11193.8
231.827
11168.6
30.9509
11219.5
-167.402
11352.7
-376.437
11557.8
-564.345
11797.9
-658.079
12042.1
-655.528
12267
-586.145
12457.6
-487.635
12606
-372.611
12704.1
-231.101
12712.3
14.3899
12607
338.679
12411.1
611.798
12160.3
781.123
11881.5
867.5
11598.2
882.59
11334
823.791
11108.7
699.982
10933.7
536.525
10808.4
372.075
10716.3
253.268
10631.9
209.614
10535.5
228.711
10422.5
269.945
10297.9
303.077
10167.9
323.581
10034.7
343.307
9894.75
376.227
9743.74
420.597
9583.56
455.748
9419.28
472.776
9242.84
503.815
9033.02
650.763
8729.29
866.422
8378.47
1284.34
7720.38
1792.95
7569.24
-248.241
8618.19
-3290.74
-2877.71
2024.9
-427.776
2148.08
-466.356
2280.43
-500.208
2409.46
-496.88
2519.62
-435.093
2602.35
-334.164
2655.45
-217.984
2681.18
-106.462
2685.15
-16.7011
2674.73
42.507
2657.3
70.6185
2638.74
74.077
2621.7
64.6441
2604.59
59.7597
2584.08
67.7126
2564.86
53.5499
2569.59
-53.0376
2626.73
-263.01
2739.04
-472.934
2883.52
-594.545
3033.21
-616.417
3167.33
-565.439
3278.42
-499.892
3375.16
-484.214
3478.98
-554.786
3611.33
-695.542
3780.29
-854.698
3982.19
-995.822
4212.17
-1115.81
4471.08
-1228.38
4765.76
-1347.12
5105.72
-1478.91
5499.07
-1624.14
5949.4
-1778.38
6454.16
-1933.8
7005.16
-2080.72
7590.7
-2210.13
8197.89
-2314.86
8814.35
-2389.09
9429
-2426.98
10032.2
-2421.95
10615.1
-2367.8
11168.1
-2258.11
11679.6
-2087.53
12135.4
-1852.29
12520.8
-1554.19
12822.6
-1202.62
13032.2
-816.885
13148.1
-426.524
13176.9
-58.4979
13130.4
256.031
13018.8
505.11
12848.5
703.432
12625.2
859.324
12357.1
971.814
12057.5
1033.06
11745.1
1032.91
11442.5
964.136
11173.7
825.866
10961.1
622.828
10822.4
370.53
10770.4
83.0013
10805.6
-202.611
10941.5
-512.348
11160.7
-783.51
11418.2
-915.593
11685.1
-922.384
11936.7
-837.76
12151.1
-702.071
12317.6
-539.079
12427.8
-341.325
12435.5
6.67916
12320.7
453.479
12113.9
818.614
11852.5
1042.48
11563.1
1156.94
11269.5
1176.16
10995.3
1098.06
10759.3
935.909
10573.5
722.337
10437.5
508.072
10333.7
357.106
10234.2
309.067
10119.6
343.366
9987.61
401.924
9846.01
444.683
9703.18
466.411
9563.81
482.674
9424.43
515.612
9279.94
565.087
9129.37
606.316
8978.97
623.185
8812.29
670.489
8632.42
830.642
8369.06
1129.78
8151.48
1501.92
7285.81
2658.62
6839.84
197.723
7747.42
-4198.32
-3574.63
2008.15
-541.236
2133.78
-591.991
2266.91
-633.339
2394.36
-624.344
2501.67
-542.423
2581.68
-414.188
2633
-269.323
2658.07
-131.541
2662.28
-20.927
2652.59
52.1841
2636.08
87.1046
2618.31
91.8273
2601.23
81.7065
2582.58
78.3925
2559.12
91.1605
2535.5
77.1436
2533.6
-51.1518
2582.79
-312.221
2687.67
-577.831
2825.08
-731.974
2967.54
-758.886
3093.48
-691.403
3194.49
-600.912
3279.1
-568.846
3369.92
-645.616
3488.31
-813.949
3640.73
-1007.13
3824.76
-1179.86
4041.68
-1332.74
4299.28
-1485.98
4606.37
-1654.23
4967
-1839.54
5378.68
-2035.83
5834.4
-2234.11
6325.73
-2425.14
6844.77
-2599.77
7384.49
-2749.86
7938.34
-2868.72
8500.45
-2951.2
9066.07
-2992.6
9630.68
-2986.57
10187.7
-2924.81
10725.8
-2796.23
11228.9
-2590.66
11678.1
-2301.5
12055.3
-1931.37
12346.4
-1493.71
12544.1
-1014.59
12649.9
-532.39
12676.5
-85.0729
12643.5
288.996
12563.6
585.096
12439
827.97
12268.2
1030.15
12049.8
1190.23
11788.4
1294.38
11497.9
1323.48
11200.1
1261.91
10922.2
1103.75
10692.4
852.618
10534.3
528.621
10466.4
150.948
10491.4
-227.666
10633.9
-654.805
10867.3
-1016.92
11138.7
-1186.94
11421.1
-1204.79
11688.7
-1105.42
11916.9
-930.27
12093.5
-715.661
12204.1
-451.889
12197.9
12.846
12059.8
591.537
11828.2
1050.31
11542.6
1328.04
11230.2
1469.29
10916.2
1490.24
10623.9
1390.34
10372.3
1187.51
10174.3
920.373
10030.2
652.081
9919.93
467.42
9811.26
417.735
9683.76
470.876
9538.18
547.498
9384.97
597.899
9234.46
616.916
9094.25
622.887
8960.46
649.402
8828.31
697.242
8693.62
741.004
8572.45
744.361
8440.24
802.7
8271.07
999.809
8018.43
1382.42
7937.64
1582.71
7026.18
3570.09
5846.31
1377.59
6044.52
-4396.53
-3842.8
1986.84
-658.113
2114.01
-719.162
2245.81
-765.148
2369.84
-748.386
2473.18
-645.783
2549.98
-491.004
2599.4
-318.753
2623.86
-156.018
2628.48
-25.5702
2619.79
60.8552
2604.42
102.453
2587.44
108.787
2570.17
98.9561
2549.97
98.5763
2523.71
117.399
2495.67
105.16
2486.54
-42.0415
2527.46
-353.16
2626.12
-676.512
2758.95
-864.818
2897.14
-897.097
3018.15
-812.43
3113.28
-696.062
3191.08
-646.672
3272.92
-727.465
3379.08
-920.129
3520.18
-1148.25
3702.5
-1362.19
3931.34
-1561.59
4206.91
-1761.56
4522.01
-1969.34
4866.5
-2184.04
5234.14
-2403.48
5625.55
-2625.53
6045.53
-2845.13
6497.93
-3052.18
6982.53
-3234.47
7495.92
-3382.11
8034.43
-3489.72
8594.93
-3553.1
9171.33
-3562.98
9750.79
-3504.29
10312.9
-3358.31
10833.1
-3110.9
11287.4
-2755.83
11656.2
-2300.1
11926.1
-1763.68
12092.7
-1181.21
12161.2
-600.831
12149.8
-73.7431
12088
350.805
11996.9
676.252
11883.9
940.894
11747.6
1166.53
11579.7
1358.04
11374.3
1499.86
11134
1563.71
10874.2
1521.78
10619.7
1358.18
10401.3
1071.08
10246.8
683.079
10180
217.727
10205.7
-253.345
10363
-812.058
10613.4
-1267.35
10897.7
-1471.18
11191.9
-1499.06
11470.6
-1384.11
11707.6
-1167.21
11890.5
-898.563
11997.4
-558.874
11973
37.252
11807.2
757.342
11545.2
1312.35
11229.6
1643.64
10889.1
1809.81
10550.4
1828.96
10237.4
1703.29
9969.47
1455.44
9761.19
1128.65
9613.73
799.545
9502.35
578.802
9388.78
531.306
9251.64
608.021
9096.12
703.016
8936.34
757.679
8784.52
768.732
8651.28
756.131
8528.53
772.155
8419.04
806.736
8318.16
841.887
8236.82
825.698
8130.1
909.424
7954.84
1175.06
7842.56
1494.71
7807.1
1618.17
8348.33
3028.86
5916.61
3809.31
1093.14
426.947
-1787.62
1966.7
-775.207
2092.14
-844.596
2220.08
-893.101
2339.11
-867.43
2437.74
-744.432
2511.11
-564.384
2558.59
-366.245
2582.42
-179.867
2587.36
-30.5219
2579.4
68.7943
2564.66
117.181
2547.75
125.677
2529.6
117.082
2507.43
120.737
2478.15
146.662
2445.55
137.734
2429.44
-25.9478
2463.7
-387.44
2559.28
-772.106
2690.72
-996.275
2827.21
-1033.6
2945.72
-930.958
3037.96
-788.32
3111.04
-719.764
3184.22
-800.665
3283.01
-1018.94
3428.64
-1293.89
3627.57
-1561.14
3868.05
-1802.07
4128.64
-2022.16
4393.63
-2234.34
4663.39
-2453.81
4952.77
-2692.87
5280.23
-2953
5657.46
-3222.36
6086.07
-3480.79
6561.72
-3710.13
7080.21
-3900.61
7639.46
-4048.98
8234.95
-4148.61
8853.31
-4181.34
9471.14
-4122.11
10059.4
-3946.59
10590.1
-3641.59
11039.6
-3205.35
11390.3
-2650.83
11630.8
-2004.13
11757.6
-1307.99
11776.6
-619.896
11710
-7.17098
11591.9
468.94
11449.6
818.527
11301.8
1088.76
11155.5
1312.78
11005.2
1508.29
10838.8
1666.31
10647.8
1754.72
10436.1
1733.46
10221.6
1572.63
10032.8
1259.89
9899.01
816.896
9847.42
269.319
9883.52
-289.446
10064.6
-993.176
10336.1
-1538.77
10635.7
-1770.84
10943.6
-1806.97
11234.7
-1675.15
11481.1
-1413.61
11672.1
-1089.62
11778.1
-664.883
11737
78.3388
11544.3
950.131
11251.2
1605.39
10904.3
1990.55
10534.4
2179.76
10170.3
2193.07
9836.82
2036.73
9554.14
1738.12
9339.02
1343.77
9193.08
945.486
9085.25
686.626
8969.26
647.298
8823.71
753.572
8660.81
865.921
8500.06
918.423
8355.23
913.567
8241.18
870.177
8140.56
872.775
8076.45
870.846
8019.13
899.216
7923.1
921.724
7779.94
1052.59
7781.32
1173.68
7780.47
1495.56
5895.19
3503.44
2517.05
6407.01
454.814
5871.54
-317.056
1198.82
-1760.7
1944.21
-891.409
2066.09
-966.473
2188.44
-1015.47
2301.48
-980.473
2395.03
-838.003
2464.9
-634.272
2510.46
-411.816
2533.65
-203.076
2538.81
-35.7029
2531.34
76.2474
2516.69
131.805
2499.16
143.184
2479.6
136.624
2455.2
145.114
2422.77
179.074
2385.75
174.73
2363.79
-4.01091
2394.12
-417.789
2489.79
-867.8
2621.91
-1128.41
2758.04
-1169.75
2875.73
-1048.67
2966.46
-879.068
3034.48
-787.801
3101.63
-867.829
3204.64
-1121.97
3364.64
-1453.9
3565.97
-1762.48
3774.75
-2010.86
3971.04
-2218.47
4163.16
-2426.46
4378.34
-2669
4642.82
-2957.36
4968.54
-3278.72
5353.7
-3607.54
5791.68
-3918.78
6279.13
-4197.58
6817.36
-4438.85
7406.28
-4637.9
8035.86
-4778.19
8683.04
-4828.52
9317.24
-4756.32
9908.03
-4537.39
10430.3
-4163.89
10864.3
-3639.3
11194.5
-2981.09
11409.5
-2219.11
11504.4
-1402.94
11482.7
-598.149
11368
107.554
11193.1
643.824
10984.8
1026.81
10772
1301.56
10574.9
1509.85
10399.6
1683.61
10237.4
1828.53
10073.8
1918.26
9901.56
1905.72
9727.81
1746.38
9574.88
1412.82
9470.17
921.609
9442.34
297.148
9495.97
-343.075
9710.12
-1207.32
10007.1
-1835.79
10327.2
-2090.87
10653.9
-2133.7
10961.9
-1983.14
11221.4
-1673.15
11425
-1293.18
11534.1
-774.001
11478.7
133.771
11260.1
1168.77
10936.1
1929.35
10557.8
2368.89
10158.5
2578.98
9769.85
2581.75
9417.61
2388.98
9122.87
2032.86
8904.86
1561.79
8765.46
1084.89
8665.07
787.017
8547.66
764.706
8393.71
907.529
8226.05
1033.57
8072.29
1072.19
7947.11
1038.75
7875.81
941.474
7807.98
940.606
7782.33
896.504
7753.59
927.949
7714.91
960.412
7810.91
956.579
7052.01
1932.58
4334.25
4213.32
1197.24
6640.45
-41.6219
7645.87
333.408
5496.51
125.102
1407.12
-867.79
1918.38
-1004.91
2034.77
-1082.87
2150.72
-1131.43
2257.88
-1087.64
2346.68
-926.822
2413.18
-700.778
2456.63
-455.289
2478.83
-225.293
2483.83
-40.7203
2476.43
83.6328
2461.36
146.86
2442.59
161.934
2421.09
158.104
2394.16
172.028
2358.4
214.818
2317.16
215.95
2291.15
21.9796
2320.66
-447.315
2418.17
-965.325
2551.18
-1261.44
2687.35
-1305.93
2805.16
-1166.5
2894.23
-968.16
2957.86
-851.438
3025.98
-935.963
3138.02
-1234.03
3294.11
-1610
3457.75
-1926.13
3604.74
-2157.86
3747.37
-2361.11
3919.02
-2598.13
4146.64
-2896.63
4437.16
-3247.89
4783.49
-3625.06
5177.56
-4001.62
5618.19
-4359.41
6111.1
-4690.51
6662.2
-4989.95
7268.1
-5243.81
7911.01
-5421.11
8561.94
-5479.46
9189.81
-5384.19
9767.64
-5115.23
10274.6
-4670.82
10693.3
-4058.05
11009
-3296.79
11208.7
-2418.77
11285.7
-1479.94
11240.7
-553.232
11096.8
251.472
10882.1
858.545
10618.1
1290.84
10335.9
1583.71
10065.9
1779.84
9829.79
1919.73
9632.37
2025.95
9463.04
2087.59
9308.05
2060.71
9163.65
1890.79
9043.13
1533.33
8968.76
995.982
8968.39
297.518
9044.11
-418.793
9300.35
-1463.56
9627.21
-2162.65
9972.72
-2436.38
10323.8
-2484.8
10653.8
-2313.1
10930.5
-1949.88
11150.6
-1513.25
11265.6
-888.987
11196.4
202.941
10951.2
1414.01
10595.1
2285.42
10184.5
2779.5
9755.93
3007.54
9343.87
2993.82
8975.26
2757.59
8671.88
2336.23
8455.32
1778.35
8327.48
1212.73
8237.53
876.968
8117.92
884.317
7954.32
1071.12
7785.87
1202.02
7653.72
1204.34
7566.26
1126.21
7562.9
944.838
7536.8
966.71
7626.44
806.864
8004.33
550.053
7509.52
1455.22
5205.45
3260.65
2324.19
4813.85
219.095
6318.41
-923.093
7782.64
-1034.2
7756.98
-588.692
5051
-665.657
1484.09
-209.076
1887.53
-1113.12
1998.48
-1193.82
2109.51
-1242.47
2212.23
-1190.36
2297.07
-1011.68
2360.39
-764.112
2401.51
-496.428
2422.19
-245.989
2426.36
-44.9105
2418.32
91.6568
2402.07
163.079
2381.3
182.69
2357.06
182.311
2326.82
202.256
2287.25
254.361
2242.19
260.989
2214.01
50.131
2244.3
-477.63
2342.7
-1063.74
2475.09
-1393.84
2611.13
-1441.99
2729.23
-1284.61
2816.75
-1055.7
2880.03
-914.729
2952.99
-1008.95
3059.59
-1340.64
3180.18
-1730.6
3290.66
-2036.63
3402.17
-2269.38
3547.5
-2506.44
3749.51
-2800.16
4009.07
-3156.19
4315.46
-3554.29
4660.97
-3970.58
5046.84
-4387.49
5481.59
-4794.18
5975.61
-5184.53
6532.91
-5547.26
7144.22
-5855.12
7786.58
-6063.47
8429.77
-6122.66
9045.02
-5999.44
9608.57
-5678.79
10102
-5164.25
10508.9
-4464.96
10814.2
-3602.04
11003.3
-2607.96
11069.4
-1546.04
11012.3
-496.112
10854
409.774
10619.5
1093.09
10324
1586.31
9991.67
1916.01
9653.61
2117.9
9342.5
2230.82
9080.43
2288.03
8870.66
2297.35
8702.84
2228.53
8566.83
2026.8
8466.76
1633.41
8417.43
1045.31
8443.59
271.359
8543.57
-518.774
8849.57
-1769.56
9208.41
-2521.5
9583.28
-2811.24
9963.08
-2864.61
10318.9
-2668.94
10616.3
-2247.28
10855.2
-1752.17
10978.3
-1012.09
10894.4
286.879
10618.4
1689.99
10227.2
2676.7
9782.27
3224.38
9323.64
3466.17
8889.4
3428.06
8507.51
3139.48
8199.72
2644.03
7989.36
1988.71
7877.87
1324.22
7799.79
955.047
7674.26
1009.85
7497.95
1247.43
7335.37
1364.61
7251.34
1288.37
7231.91
1145.64
7398.34
778.411
7806.65
558.407
7117.88
1495.63
4576.62
3091.31
1899.57
4132.27
311.357
4848.86
-688.67
5813.88
-1399.59
7029.34
-1641.02
8024.07
-1596.88
7712.85
-1744.32
5198.44
-1943.71
1683.48
149.108
1851.79
-1219.85
1960.64
-1302.67
2068.13
-1349.97
2166.72
-1288.96
2247.64
-1092.63
2307.8
-824.285
2346.53
-535.174
2365.49
-264.957
2368.41
-47.8557
2359.1
100.952
2340.97
181.191
2317.53
206.118
2289.92
209.902
2255.67
236.482
2212.13
297.888
2164.26
308.838
2135.06
79.3088
2164.49
-507.077
2259.89
-1159.16
2388.95
-1522.91
2524.25
-1577.3
2642.69
-1403.07
2731.11
-1144.14
2798.71
-982.346
2870
-1080.25
2949.74
-1420.4
3026.73
-1807.6
3111.96
-2121.86
3234.75
-2392.19
3412.22
-2683.92
3639.79
-3027.74
3905.01
-3421.42
4201.84
-3851.12
4533.52
-4302.27
4909.35
-4763.33
5341.02
-5225.84
5837.81
-5681.34
6399.66
-6109.11
7012.63
-6468.09
7651.24
-6702.09
8285.59
-6757.01
8888.9
-6602.76
9439.5
-6229.39
9920.43
-5645.19
10315.7
-4860.28
10610
-3896.33
10787.5
-2785.46
10841.7
-1600.21
10772.4
-426.794
10603.5
578.603
10360.6
1335.97
10054.5
1892.42
9699.42
2271.12
9318.49
2498.84
8944.84
2604.46
8611.82
2621.05
8339.65
2569.51
8130.77
2437.41
7977.49
2180.08
7879.06
1731.84
7843.13
1081.24
7889.91
224.583
8014.1
-642.962
8374.25
-2129.72
8764.16
-2911.41
9170.66
-3217.74
9581.69
-3275.64
9965.99
-3053.23
10286.7
-2567.97
10544.5
-2009.95
10679.4
-1147.06
10578.7
387.624
10264.6
2004.04
9833.27
3108.07
9350.95
3706.7
8861.1
3956.03
8406.22
3882.93
8015.08
3530.62
7708.11
2951
7509.15
2187.68
7418.37
1414.99
7350.95
1022.47
7210.03
1150.77
7013.37
1444.09
6863.54
1514.45
6927.07
1224.84
7197.67
875.042
6572.2
1403.88
4374.43
2756.18
1921.44
3948.62
339.945
4672.81
-613.388
5085.6
-1300.6
5536.07
-1799.51
6312.79
-2006.61
7236.43
-1825.88
7843.33
-1573.73
7460.7
-1722.32
5347.03
-2089.8
2050.96
696.436
1818.6
-1323.78
1923.1
-1407.17
2025.27
-1452.14
2118.85
-1382.55
2195.68
-1169.47
2252.77
-881.397
2289.22
-571.636
2306.48
-282.233
2308.06
-49.4591
2297.25
111.736
2277.05
201.369
2251
232.148
2220.2
240.676
2182.19
274.474
2135.48
344.578
2086.33
357.966
2055.77
109.839
2079.69
-531.019
2166.25
-1245.75
2288.67
-1645.35
2422.14
-1710.79
2541.86
-1522.81
2635.4
-1237.7
2707.91
-1054.87
2766.68
-1139.04
2814.93
-1468.66
2871.39
-1864.08
2967.36
-2217.84
3117.35
-2542.18
3312.45
-2879.03
3538.52
-3253.82
3790.64
-3673.55
4073.37
-4133.86
4395.41
-4624.32
4767.33
-5135.26
5200.33
-5658.85
5701.65
-6182.66
6267.51
-6674.98
6880.53
-7081.12
7513.79
-7335.35
8138.05
-7381.28
8728.41
-7193.13
9265.05
-6766.04
9732.46
-6112.6
10115.1
-5242.91
10397.1
-4178.37
10560.8
-2949.16
10600.1
-1639.52
10514.5
-341.227
10331.3
761.801
10079.5
1587.83
9769.94
2201.94
9410.73
2630.33
9014.7
2894.87
8606.2
3012.96
8218.69
3008.56
7883.39
2904.8
7618.21
2702.59
7425.94
2372.35
7308.36
1849.42
7269.94
1119.65
7326.91
167.611
7474.54
-790.586
7888.3
-2543.48
8305.01
-3328.11
8743.04
-3655.77
9185.59
-3718.19
9600.45
-3468.09
9948.28
-2915.8
10223.5
-2285.14
10375.9
-1299.47
10255.2
508.303
9894.17
2365.08
9416.25
3585.99
8892.13
4230.82
8370.08
4478.07
7896.94
4356.07
7501.67
3925.89
7201.88
3250.79
7019.89
2369.67
6952.42
1482.46
6888.52
1086.38
6712.39
1326.89
6473.54
1682.95
6383.25
1604.73
6015.54
1592.54
4545.17
2345.41
2483.07
3465.98
843.725
4395.52
-249.15
5041.5
-976.391
5400.05
-1538.46
5647.67
-1996.25
5993.86
-2248.84
6565.38
-2194.73
7182.32
-1807.82
7456.42
-1296.38
6949.27
-1056.22
5106.86
-1336.67
2331.42
1320.88
1782.62
-1424.22
1882.01
-1506.57
1978.84
-1548.99
2068.07
-1471.79
2141.45
-1242.86
2195.82
-935.783
2230.02
-605.851
2245.46
-297.692
2245.5
-49.5105
2233.05
124.164
2210.92
223.486
2182.73
260.314
2149.31
274.076
2108.21
315.556
2059.78
392.991
2010.85
406.885
1977.16
143.502
1989.59
-543.465
2061.33
-1317.51
2173.69
-1757.72
2304.04
-1841.15
2426.6
-1645.39
2527.88
-1339
2602.18
-1129.19
2646.06
-1182.94
2679.13
-1501.75
2742.77
-1927.73
2860.36
-2335.44
3023.2
-2705.03
3214.32
-3070.16
3427.78
-3467.28
3668.05
-3913.83
3942.84
-4408.66
4260.54
-4942.01
4631.57
-5506.3
5066.96
-6094.25
5571.95
-6687.65
6139.34
-7242.38
6749.02
-7690.81
7373.51
-7959.85
7984.75
-7992.52
8559.87
-7768.26
9080.94
-7287.11
9533.88
-6565.55
9903.44
-5612.47
10173.1
-4448.04
10322.4
-3098.47
10345.6
-1662.67
10240.9
-236.59
10038.8
963.901
9772.05
1854.59
9455.09
2518.9
9095.53
2989.89
8700.09
3290.31
8282
3431.04
7865.87
3424.69
7483.63
3287.04
7163.73
3022.5
6921.91
2614.17
6768.95
2002.38
6712.28
1176.33
6766.56
113.33
6932.52
-956.543
7392.94
-3003.9
7837.3
-3772.47
8303.88
-4122.35
8777.52
-4191.83
9226.66
-3917.22
9608.73
-3297.86
9899.42
-2575.82
10079.7
-1479.73
9936.2
651.771
9517.95
2783.33
8985
4118.94
8413.04
4802.78
7857.28
5033.83
7367.54
4845.81
6972.76
4320.67
6687.09
3536.46
6528.9
2527.86
6487.31
1524.06
6415.21
1158.47
6167.73
1574.38
5839.74
2010.94
5148.7
2295.78
3650.25
3090.99
1877.22
4118.44
469.146
4874.06
-475.635
5340.3
-1103.6
5669.46
-1627.8
5924.25
-2075.2
6095.08
-2373.85
6292.5
-2450.51
6642.04
-2250.1
6981.92
-1768.09
6974.42
-1124.85
6306.03
-666.868
4648.88
-865.409
2529.96
1870.05
1743.5
-1520.18
1838.02
-1601.09
1931.06
-1642.03
2017.44
-1558.18
2088.21
-1313.65
2140.12
-987.704
2172
-637.755
2185.46
-311.171
2183.75
-47.818
2169.6
138.29
2145.82
247.239
2116.04
290.065
2080.41
309.691
2036.7
359.239
1987.81
441.858
1939.91
454.762
1900.9
182.484
1897.03
-539.624
1949.51
-1370
2049.01
-1857.25
2175.21
-1967.36
2301.12
-1771.32
2408.98
-1446.88
2483.01
-1203.24
2520.87
-1220.82
2559.09
-1539.98
2640.4
-2009.06
2769.89
-2464.95
2929.95
-2865.1
3110.67
-3250.89
3314.55
-3671.17
3548.1
-4147.39
3817.84
-4678.42
4132.05
-5256.23
4502.17
-5876.42
4938.97
-6531.06
5445.28
-7193.96
6010.62
-7807.73
6613.03
-8293.22
7225.21
-8572.03
7820.61
-8587.92
8378.47
-8326.13
8882.74
-7791.38
9320.79
-7003.6
9677.52
-5969.21
9935.47
-4706
10070.7
-3233.74
10077.6
-1669.53
9952.86
-111.874
9729.88
1186.88
9443.88
2140.58
9112.6
2850.18
8746.6
3355.88
8352.83
3684.07
7937.44
3846.43
7513.5
3848.63
7105.37
3695.17
6743.61
3384.25
6453.63
2904.15
6257.51
2198.5
6171.09
1262.75
6210.6
73.8222
6385.43
-1131.38
6884.62
-3503.09
7361.9
-4249.75
7854.13
-4614.58
8360.81
-4698.5
8849.31
-4405.72
9266.32
-3714.88
9573.19
-2882.69
9807.63
-1714.16
9642.77
816.633
9158.52
3267.57
8560.85
4716.62
7931.31
5432.32
7335.62
5629.52
6825.55
5355.88
6432.39
4713.84
6171.53
3797.32
6054.64
2644.76
6045.24
1533.46
5933.24
1270.46
5539.25
1968.37
4711.66
2838.53
3366.11
3641.33
1848.2
4608.9
551.017
5415.62
-406.995
5832.07
-1072.25
6005.56
-1637.97
6235.18
-2156.93
6443.21
-2523.26
6461.4
-2692.19
6461.44
-2646.77
6596.62
-2361.12
6696.27
-1862.31
6475.61
-1283.76
5727.47
-969.087
4334.21
-1224.69
2785.56
2286.33
1700.68
-1610.59
1792.73
-1693.14
1884.1
-1733.42
1968.5
-1642.58
2036.79
-1381.96
2086.19
-1037.11
2115.73
-667.312
2127.25
-322.714
2123.96
-44.5428
2108.57
153.663
2084.04
271.748
2053.68
320.415
2016.43
346.916
1970.55
405.109
1921.9
490.491
1875.07
501.572
1829.41
228.12
1807.09
-517.327
1838.02
-1400.95
1923.44
-1942.67
2045.05
-2088.98
2172.78
-1899.07
2283.71
-1557.83
2358.54
-1278.08
2401.62
-1263.92
2454.87
-1593.24
2549.84
-2104.05
2680.78
-2595.9
2833.72
-3018.06
3006.55
-3423.73
3204.13
-3868.75
3431.87
-4375.15
3696.13
-4942.68
4006.44
-5566.56
4375.21
-6245.19
4812.17
-6968.03
5317.27
-7699.06
5877.2
-8367.66
6468.8
-8884.82
7065.5
-9168.74
7642.56
-9164.98
8181.48
-8865.05
8668.15
-8278.06
9091.37
-7426.83
9436.03
-6313.87
9683.3
-4953.27
9805.2
-3355.65
9795.41
-1659.74
9649.83
33.6979
9405.81
1430.9
9099.06
2447.33
8749.06
3200.17
8369
3735.94
7969.89
4083.19
7556.79
4259.52
7134.21
4271.21
6715.78
4113.6
6327.17
3772.87
5997.35
3233.97
5757.96
2437.88
5636
1384.71
5652.39
57.4418
5827.4
-1306.4
6363.51
-4039.2
6875.2
-4761.44
7396.39
-5135.77
7937.63
-5239.74
8460.72
-4928.8
8900.42
-4154.58
9224.92
-3207.19
9545.96
-2035.2
9371.84
990.747
8827.31
3812.11
8163
5380.93
7464.43
6130.89
6816.27
6277.69
6273.6
5898.55
5878.66
5108.77
5657.2
4018.78
5601.12
2700.84
5601.66
1532.92
5389.47
1482.65
4794.01
2563.83
3758.82
3873.71
2410.05
4990.1
1081.95
5937
17.8172
6479.76
-778.765
6628.66
-1493.92
6720.71
-2200.16
6941.42
-2730.18
6973.23
-2999.76
6730.99
-3069.26
6530.94
-2958.68
6486.04
-2671.67
6409.26
-2278.17
6082.11
-1928.45
5377.76
-1850.77
4256.53
-2104.34
3039.13
2557.18
1655.53
-1703.61
1748.46
-1786.07
1837.93
-1822.9
1919.57
-1724.23
1985.14
-1447.54
2032.2
-1084.19
2059.71
-694.842
2069.63
-332.646
2065.18
-40.121
2049.41
169.402
2025.58
295.555
1996.23
349.742
1958.64
384.487
1911.31
452.417
1863.15
538.627
1817.11
547.587
1764.76
280.44
1723.65
-476.241
1732.03
-1409.35
1803.48
-2014.14
1920.63
-2206.15
2047.86
-2026.32
2158.92
-1668.91
2236.62
-1355.8
2290.57
-1317.89
2358.79
-1661.47
2461.54
-2206.81
2590.51
-2724.88
2737.53
-3165.09
2904.17
-3590.39
3095.38
-4059.97
3316.46
-4596.24
3574.8
-5201.02
3881.25
-5873.01
4248.34
-6612.29
4684.09
-7403.79
5185.46
-8200.44
5736.63
-8918.84
6313.9
-9462.1
6892.04
-9746.89
7448.52
-9721.47
7967.34
-9383.87
8436.3
-8747.02
8845.39
-7835.93
9179.21
-6647.69
9417.1
-5191.17
9526.74
-3465.3
9498.17
-1631.17
9330.17
201.69
9066.95
1694.11
8739.32
2774.96
8368.54
3570.95
7969.39
4135.07
7557.17
4495.41
7139.62
4677.07
6717.51
4693.32
6295.27
4535.83
5890.34
4177.81
5529.8
3594.5
5250.96
2716.72
5092
1543.67
5080.64
68.8022
5247.85
-1473.6
5824.24
-4615.59
6377.64
-5314.84
6933.28
-5691.4
7489.48
-5795.94
8010.73
-5450.04
8442.3
-4586.15
8777.41
-3542.3
9209.98
-2467.76
9050.28
1150.44
8478.72
4383.67
7770.1
6089.54
7003.58
6897.42
6293.35
6987.91
5701.86
6490.04
5298.21
5512.43
5176.89
4140.09
5332.98
2544.76
5496.46
1369.44
5319.15
1659.96
4642.71
3240.28
3435.14
5081.27
1965.21
6460.03
679.866
7222.34
-278.336
7437.96
-1157.76
7508.08
-2123.8
7686.75
-2924.15
7741.76
-3344.77
7393.86
-3493.34
6879.56
-3498.43
6536.03
-3377.26
6364.87
-3151.27
6183.26
-2893.41
5824.26
-2702.24
5186.59
-2678.95
4233.24
-2826.7
3186.88
2723.51
1614.32
-1795.82
1704.21
-1875.96
1789.97
-1908.66
1868.89
-1803.16
1932.56
-1511.23
1978.26
-1129.9
2004.48
-721.075
2013.16
-341.342
2007.78
-34.7565
1992.18
184.986
1970.17
317.548
1943.3
376.588
1906.79
420.978
1858.86
500.333
1811.23
586.238
1765.84
592.965
1707.29
338.968
1647.04
-416.018
1631.68
-1394
1689.28
-2071.76
1801.99
-2318.87
1927.22
-2151.57
2037.25
-1778.96
2118.92
-1437.49
2184.55
-1383.53
2265.74
-1742.69
2374.03
-2315.1
2500.86
-2851.72
2642.32
-3306.55
2802.28
-3750.36
2986.26
-4243.96
3200.28
-4810.27
3452.79
-5453.54
3755.41
-6175.64
4120.25
-6977.13
4553.15
-7836.69
5047.97
-8695.27
5586.8
-9457.67
6146.15
-10021.4
6702.9
-10303.6
7237.22
-10255.8
7735.57
-9882.23
8187.32
-9198.78
8583.22
-8231.83
8907.38
-6971.86
9136.96
-5420.75
9235.74
-3564.09
9184.95
-1580.38
8992.27
394.362
8712.94
1973.44
8365.25
3122.64
7972.65
3963.56
7551.92
4555.79
7121.46
4925.87
6692.31
5106.22
6264.95
5120.67
5838.1
4962.68
5421.08
4594.83
5035.92
3979.66
4721.62
3031.03
4525.7
1739.59
4484.1
110.405
4638.9
-1628.41
5264.31
-5241
5863.78
-5914.32
6429.25
-6256.87
6947.19
-6313.88
7422.93
-5925.78
7821.54
-4984.76
8169.96
-3890.72
8731.2
-3029
8595.79
1285.84
8034.28
4945.18
7317.92
6805.91
6501.87
7713.47
5734.81
7754.96
5080.41
7144.45
4676.82
5916.02
4517.69
4299.22
4296.01
2766.43
3948.23
1717.22
3553.16
2055.03
2913.98
3879.46
1956.57
6038.68
960.409
7456.2
99.7901
8082.96
-833.744
8371.49
-1996.34
8670.68
-3078.35
8768.75
-3694.4
8357.82
-3902.75
7602.2
-3946.39
6923.2
-3914.62
6504.26
-3803.37
6253.63
-3632.59
6012.48
-3448.52
5640.19
-3301.51
5039.58
-3250.87
4182.6
-3325.41
3261.42
2847.88
1570.39
-1886.16
1657.11
-1962.68
1740.42
-1991.98
1818.32
-1881.07
1881.58
-1574.51
1927.13
-1175.47
1952.9
-746.858
1960.77
-349.232
1954.5
-28.5207
1939.01
200.453
1918.91
337.624
1894.89
400.586
1860.15
455.695
1811.96
548.494
1764.44
633.74
1719.32
638.062
1655.13
403.132
1575.73
-336.65
1535.54
-1353.84
1578.67
-2114.9
1686.14
-2426.36
1808.3
-2273.75
1916.99
-1887.66
2003.32
-1523.84
2081.49
-1461.73
2175.6
-1836.82
2288.52
-2428.03
2412.11
-2975.32
2546.92
-3441.38
2699.34
-3902.79
2875.68
-4420.31
3082.6
-5017.2
3329.39
-5700.33
3628.08
-6474.34
3989.87
-7338.92
4417.96
-8264.79
4903.12
-9180.44
5425.84
-9980.4
5963.86
-10559.5
6497.06
-10836.9
7008.53
-10767.3
7486.72
-10360.4
7921.78
-9633.85
8304.76
-8614.81
8619.47
-7286.57
8840.89
-5642.17
8929.64
-3652.86
8856.7
-1507.44
8638.14
612.907
8341.82
2269.76
7975.62
3488.83
7561.53
4377.64
7118.36
4998.95
6667.26
5376.97
6221.69
5551.79
5783.07
5559.29
5347.35
5398.41
4917.67
5024.5
4510.09
4387.24
4162.42
3378.71
3929.04
1972.97
3852.43
187.017
3997.01
-1772.99
4662.18
-5906.16
5259.66
-6511.79
5775.2
-6772.41
6243
-6781.68
6706.41
-6389.19
7096.37
-5374.72
7479.91
-4274.26
8142.96
-3692.05
8002.21
1426.6
7449.91
5497.48
6739.55
7516.27
5898.9
8554.12
5097.12
8556.74
4376.98
7864.59
3611.85
6681.15
2465.92
5445.15
1075.87
4156.48
148.669
2644.43
52.9501
2150.75
295.722
3636.69
290.313
6044.09
-124.43
7870.94
-954.128
8912.66
-2148.79
9566.15
-3340.19
9862.08
-4083.14
9511.71
-4329.54
8604.21
-4348.45
7621.11