/*--------------------------------*- C++ -*----------------------------------*\
| =========                 |                                                 |
| \\      /  F ield         | OpenFOAM: The Open Source CFD Toolbox           |
|  \\    /   O peration     | Version:  4.1                                   |
|   \\  /    A nd           | Web:      www.OpenFOAM.org                      |
|    \\/     M anipulation  |                                                 |
\*---------------------------------------------------------------------------*/
FoamFile
{
    version     2.0;
    format      ascii;
    class       volVectorField;
    location    "1500";
    object      U;
}
// * * * * * * * * * * * * * * * * * * * * * * * * * * * * * * * * * * * * * //

dimensions      [0 1 -1 0 0 0 0];

internalField   nonuniform List<vector> 
26785
(
(-5.87293e-16 -0.00788739 16.3061)
(-8.59638e-16 -0.0114357 16.4628)
(-2.37439e-15 -0.0137441 16.7151)
(-1.368e-14 -0.0133414 17.0242)
(2.76314e-15 -0.00838514 17.2768)
(-4.45862e-16 9.01739e-05 17.3813)
(3.31367e-15 0.0102694 17.2971)
(-2.23854e-14 0.0202109 17.0252)
(-1.34988e-14 0.0280106 16.5991)
(-3.55491e-14 0.0326334 16.0741)
(1.46384e-15 0.03406 15.5107)
(-9.47984e-15 0.0330753 14.9572)
(-6.52879e-16 0.0309055 14.4465)
(4.00755e-15 0.0294785 13.9856)
(4.59038e-15 0.0294508 13.5455)
(3.19099e-15 0.0268624 13.1108)
(6.09302e-16 0.0157117 12.7629)
(-3.47106e-15 -0.00350607 12.6458)
(-5.46722e-15 -0.0212301 12.8084)
(-2.29615e-14 -0.0307846 13.1591)
(2.6811e-15 -0.0317983 13.5697)
(-1.12138e-14 -0.0270267 13.9432)
(-4.25462e-15 -0.0222377 14.2409)
(-1.85018e-14 -0.0238646 14.5048)
(-4.29075e-14 -0.0351358 14.8402)
(-1.04518e-14 -0.0536943 15.347)
(-9.16616e-15 -0.0738539 16.057)
(-4.51688e-15 -0.0914478 16.9394)
(-1.41634e-14 -0.105334 17.947)
(-8.68336e-15 -0.115982 19.045)
(2.85259e-15 -0.124162 20.213)
(-7.16559e-15 -0.130545 21.4388)
(1.90962e-15 -0.135779 22.7147)
(4.69839e-15 -0.140476 24.0354)
(-1.10261e-14 -0.145041 25.3962)
(6.79241e-15 -0.149489 26.7918)
(1.75314e-15 -0.153468 28.2139)
(5.91219e-15 -0.156355 29.6518)
(9.89427e-15 -0.157389 31.0921)
(1.61373e-14 -0.155761 32.5183)
(1.98647e-14 -0.150693 33.9078)
(1.30697e-14 -0.141569 35.231)
(1.39692e-14 -0.127915 36.4514)
(1.74722e-14 -0.10948 37.5276)
(3.13153e-14 -0.0862569 38.4171)
(2.18789e-14 -0.0587504 39.0809)
(3.08877e-14 -0.0280732 39.4882)
(2.50188e-14 0.00390605 39.6223)
(2.24757e-14 0.0347921 39.4864)
(2.21897e-14 0.0628661 39.1029)
(1.69694e-14 0.0864147 38.5095)
(4.45592e-15 0.104445 37.7524)
(1.85027e-14 0.117837 36.8783)
(2.00316e-14 0.127477 35.9246)
(1.77882e-14 0.13389 34.9221)
(8.97255e-15 0.136995 33.8986)
(-1.1526e-14 0.136323 32.8818)
(1.77598e-14 0.131419 31.9017)
(5.59548e-15 0.12216 30.9888)
(7.32996e-15 0.108762 30.1722)
(2.5434e-14 0.0921923 29.4745)
(1.09936e-14 0.0734599 28.911)
(4.31266e-15 0.0550366 28.4837)
(-2.83352e-14 0.0356519 28.188)
(-8.56338e-15 0.0170434 28.0249)
(-1.51131e-14 0.00646072 27.9695)
(-1.20821e-14 0.00687014 27.9561)
(-1.5172e-14 0.0158271 27.9121)
(-1.71373e-14 0.028866 27.789)
(-1.4616e-14 0.0443041 27.5693)
(-4.60643e-14 0.0626179 27.2484)
(-9.43508e-15 0.0916111 26.7878)
(-2.65526e-15 0.128546 26.1231)
(3.82301e-15 0.156483 25.2444)
(8.50324e-15 0.16909 24.2387)
(2.49358e-14 0.171026 23.2128)
(6.2694e-15 0.165196 22.2294)
(1.00499e-14 0.151532 21.3207)
(9.44296e-15 0.131578 20.517)
(9.54443e-15 0.109158 19.8431)
(7.16902e-15 0.0887528 19.298)
(-1.64754e-15 0.0743961 18.8515)
(2.93463e-14 0.0677896 18.4566)
(1.65943e-14 0.0667964 18.0706)
(4.08955e-15 0.0674175 17.673)
(4.11954e-14 0.0676654 17.2652)
(3.6753e-14 0.0685271 16.853)
(3.41386e-14 0.071872 16.4307)
(1.56714e-14 0.078267 15.9813)
(2.51669e-14 0.0864358 15.4901)
(2.17586e-14 0.0940491 14.9533)
(2.08234e-14 0.10082 14.3793)
(1.85047e-14 0.110099 13.7656)
(1.62186e-14 0.13235 13.0563)
(1.6905e-14 0.14138 12.3189)
(1.57122e-15 0.207432 11.3861)
(9.30153e-15 0.169341 10.3744)
(7.92713e-15 -0.165202 10.1664)
(7.36812e-15 -0.425278 11.3692)
(7.94254e-15 -0.355643 14.3596)
(-1.03753e-17 -0.025951 16.2712)
(-1.54299e-14 -0.0358517 16.454)
(-3.02194e-15 -0.0427817 16.74)
(-1.21436e-14 -0.0419027 17.0856)
(-7.07235e-15 -0.0271978 17.3673)
(-2.00827e-14 -0.00195974 17.4908)
(3.86412e-14 0.0282083 17.4202)
(-1.04129e-14 0.0577046 17.1617)
(-1.89007e-14 0.0812148 16.7503)
(7.18149e-15 0.0957864 16.2381)
(-6.65392e-15 0.101188 15.6826)
(-6.89879e-15 0.0994817 15.1306)
(-9.67613e-15 0.0939543 14.6146)
(-1.33858e-14 0.0896449 14.1431)
(-1.29742e-14 0.0885913 13.6948)
(1.16606e-14 0.0809394 13.2572)
(-2.52075e-14 0.0499529 12.8959)
(-7.60655e-14 -0.00486024 12.746)
(-5.286e-14 -0.0568807 12.8748)
(-1.22447e-14 -0.086336 13.2052)
(-5.43732e-14 -0.091578 13.6119)
(-3.08572e-15 -0.08028 13.9939)
(-3.77737e-14 -0.0690479 14.3049)
(4.38921e-16 -0.0758659 14.5738)
(-6.83767e-15 -0.108388 14.8868)
(-1.54866e-14 -0.158034 15.3269)
(1.80338e-15 -0.208581 15.9217)
(-8.75503e-15 -0.250511 16.6498)
(-9.67383e-15 -0.283545 17.4808)
(-1.79654e-14 -0.311055 18.3971)
(-1.24956e-14 -0.335886 19.3929)
(-1.68651e-14 -0.359399 20.4669)
(-8.37235e-15 -0.38199 21.6177)
(-3.00418e-15 -0.403524 22.842)
(-1.61103e-14 -0.423453 24.1349)
(-1.86738e-15 -0.440885 25.4905)
(4.9649e-15 -0.454979 26.9013)
(8.74614e-15 -0.46512 28.3578)
(9.5089e-15 -0.470633 29.8466)
(8.40654e-15 -0.470087 31.3485)
(9.93129e-15 -0.460914 32.8346)
(-2.86181e-15 -0.440024 34.2662)
(-8.43422e-15 -0.404502 35.5974)
(-7.97293e-15 -0.352528 36.7797)
(-1.16633e-14 -0.283648 37.7657)
(-9.56334e-16 -0.199442 38.5131)
(-7.99977e-15 -0.103589 38.9886)
(3.7455e-15 -0.00222106 39.1728)
(1.48726e-14 0.0968745 39.0664)
(3.09998e-14 0.187676 38.6895)
(3.62534e-15 0.264217 38.0836)
(2.17678e-14 0.323079 37.2912)
(7.77628e-15 0.366527 36.3618)
(1.96619e-14 0.397067 35.337)
(6.0194e-14 0.41623 34.2537)
(3.15306e-14 0.423905 33.1466)
(6.96843e-15 0.418995 32.0503)
(2.8115e-14 0.400591 31)
(4.83366e-14 0.368808 30.0305)
(1.9113e-14 0.324729 29.1731)
(7.33063e-15 0.271603 28.4508)
(1.10065e-15 0.212508 27.8783)
(1.62881e-14 0.154881 27.4557)
(3.21046e-14 0.0943092 27.1792)
(-5.396e-15 0.0367468 27.0511)
(-9.00717e-15 0.0045828 27.0407)
(-1.82656e-14 0.00555613 27.081)
(-1.75436e-14 0.0321594 27.0968)
(-5.32847e-14 0.0720109 27.037)
(-5.35678e-15 0.118946 26.8762)
(-9.33721e-15 0.17456 26.6162)
(-4.10728e-14 0.262366 26.2059)
(-3.54176e-14 0.371594 25.5846)
(-2.02394e-14 0.452346 24.7464)
(2.57702e-15 0.487635 23.783)
(-6.13678e-15 0.491813 22.8021)
(4.09062e-14 0.473253 21.8632)
(3.79749e-14 0.432133 20.9963)
(1.94507e-14 0.373689 20.23)
(1.34951e-14 0.309459 19.5855)
(2.22629e-14 0.252646 19.0582)
(1.30257e-14 0.215067 18.6148)
(5.0248e-14 0.201335 18.2061)
(6.72295e-14 0.204407 17.7903)
(6.52794e-14 0.211878 17.3503)
(3.36962e-14 0.217574 16.8927)
(2.74413e-14 0.223994 16.4282)
(3.9561e-14 0.236153 15.9547)
(5.05671e-14 0.255625 15.4587)
(3.65426e-14 0.278802 14.9269)
(3.19811e-14 0.299128 14.3563)
(2.3887e-14 0.3174 13.7543)
(2.10084e-14 0.343014 13.1194)
(1.92768e-15 0.404466 12.3863)
(2.07659e-14 0.427522 11.6457)
(1.89432e-14 0.584968 10.5525)
(-1.32563e-15 0.51634 9.85528)
(8.35559e-16 -0.38744 9.40883)
(4.9708e-15 -1.20024 10.3889)
(2.42128e-15 -1.01115 13.6397)
(5.1961e-16 -0.0465191 16.164)
(3.2227e-15 -0.0641152 16.3798)
(-2.8384e-14 -0.0769247 16.7164)
(1.03208e-14 -0.0749523 17.1055)
(7.3946e-15 -0.0485805 17.4074)
(-1.36233e-14 -0.00479977 17.5304)
(4.83928e-14 0.0462389 17.4491)
(1.84578e-14 0.0953361 17.179)
(3.40872e-14 0.134248 16.7598)
(3.04101e-14 0.158554 16.2436)
(2.47194e-14 0.167996 15.6861)
(1.74098e-14 0.165892 15.1325)
(9.65132e-15 0.157503 14.6141)
(1.74386e-16 0.150628 14.1379)
(-3.99462e-15 0.148718 13.6823)
(-3.86855e-14 0.136873 13.2307)
(-3.17831e-14 0.0875704 12.8422)
(-5.88566e-14 -0.00318902 12.6618)
(1.01305e-14 -0.0924748 12.7782)
(-9.16913e-15 -0.145118 13.1135)
(-1.70244e-14 -0.156397 13.5293)
(-5.16192e-16 -0.138075 13.9141)
(-2.70468e-14 -0.116709 14.2093)
(1.09762e-14 -0.121133 14.4262)
(2.62763e-15 -0.164754 14.6387)
(-1.94458e-14 -0.236369 14.9391)
(-9.87384e-15 -0.312392 15.3805)
(4.82027e-15 -0.378491 15.9619)
(3.79648e-15 -0.433763 16.6586)
(8.10892e-15 -0.482614 17.4507)
(8.95511e-15 -0.528626 18.331)
(3.11859e-15 -0.573176 19.3023)
(-3.25708e-14 -0.616412 20.373)
(3.14972e-15 -0.65819 21.5533)
(1.06985e-15 -0.698305 22.851)
(-9.60492e-15 -0.73608 24.2655)
(-7.63793e-15 -0.770222 25.7843)
(-6.84188e-15 -0.798645 27.3824)
(-8.88146e-15 -0.81825 29.0245)
(-7.73861e-15 -0.82461 30.6688)
(-5.46308e-15 -0.812318 32.2697)
(-4.87504e-15 -0.77649 33.7817)
(-2.85014e-15 -0.713557 35.1621)
(1.32356e-15 -0.621998 36.3716)
(2.13662e-15 -0.502068 37.3734)
(1.94098e-15 -0.356714 38.1336)
(-1.24051e-15 -0.191836 38.6234)
(-4.093e-15 -0.0171931 38.825)
(-4.0558e-15 0.154481 38.7372)
(-1.88675e-15 0.3131 38.377)
(6.64927e-16 0.44868 37.7824)
(2.52685e-15 0.555076 36.983)
(3.73398e-15 0.634917 36.0227)
(6.05289e-15 0.691516 34.9393)
(1.21606e-14 0.726669 33.7707)
(7.65401e-15 0.739826 32.5564)
(1.21529e-14 0.729209 31.3394)
(1.72184e-14 0.693706 30.1653)
(-1.30408e-15 0.634151 29.0787)
(6.38662e-15 0.55306 28.1198)
(-9.8031e-15 0.456636 27.3178)
(7.47459e-15 0.350293 26.691)
(1.13434e-14 0.246938 26.2392)
(7.56675e-15 0.13762 25.9615)
(-1.88996e-14 0.0351404 25.8655)
(2.38939e-14 -0.0214694 25.9056)
(2.60015e-14 -0.0225147 26.0154)
(1.26806e-15 0.019556 26.1073)
(-2.45628e-15 0.0874043 26.1338)
(-1.03479e-14 0.168991 26.0447)
(-1.29888e-14 0.263995 25.8595)
(-8.42506e-15 0.414361 25.5098)
(-2.72328e-15 0.597209 24.9312)
(-2.98495e-14 0.730175 24.1218)
(-5.14711e-14 0.788796 23.1831)
(-3.50006e-14 0.796909 22.2254)
(-2.03348e-14 0.767178 21.3036)
(-9.22365e-15 0.70069 20.4458)
(-4.37712e-15 0.607331 19.6808)
(-1.78376e-16 0.506197 19.0292)
(5.27794e-15 0.418597 18.4847)
(8.65942e-15 0.36362 18.0122)
(-8.71433e-15 0.347899 17.5616)
(2.46774e-14 0.358238 17.0926)
(2.76471e-14 0.373298 16.5945)
(2.5236e-14 0.383326 16.0827)
(2.37156e-14 0.392984 15.5748)
(2.27853e-14 0.410755 15.0722)
(2.12404e-14 0.439891 14.5611)
(1.3348e-14 0.475329 14.0251)
(2.97386e-14 0.506912 13.4589)
(2.56778e-14 0.534748 12.8685)
(1.89006e-14 0.570072 12.2533)
(1.57871e-14 0.666504 11.5183)
(1.40471e-14 0.741865 10.8463)
(1.33949e-14 0.919855 9.64745)
(9.3098e-15 0.851069 9.20304)
(7.04931e-15 -0.49573 8.4852)
(7.46062e-15 -2.00775 9.54775)
(-1.51971e-14 -1.68468 12.758)
(-1.4501e-15 -0.0702611 16.0309)
(7.44913e-15 -0.0967342 16.288)
(9.22145e-15 -0.115229 16.6674)
(-8.93225e-15 -0.110262 17.0799)
(1.3101e-14 -0.0701363 17.3829)
(4.07395e-14 -0.00663074 17.4946)
(6.87888e-15 0.0654863 17.4007)
(6.15894e-15 0.133802 17.1221)
(3.12438e-14 0.18757 16.6995)
(1.06233e-14 0.221158 16.1831)
(8.0835e-15 0.234342 15.6268)
(7.19867e-15 0.231669 15.0753)
(2.9164e-15 0.220501 14.5584)
(1.26944e-14 0.211555 14.0782)
(-2.47158e-14 0.20982 13.6104)
(-1.4011e-14 0.19513 13.1409)
(-1.61468e-14 0.128171 12.7279)
(1.19564e-14 1.07056e-06 12.5203)
(-2.27802e-14 -0.128528 12.6189)
(1.25735e-14 -0.204483 12.9383)
(-5.49247e-15 -0.220163 13.3319)
(8.3097e-15 -0.191818 13.6848)
(-5.27318e-15 -0.155682 13.934)
(6.37377e-15 -0.151976 14.083)
(3.70705e-15 -0.20253 14.2071)
(3.02067e-15 -0.295974 14.4162)
(5.27056e-15 -0.40027 14.7767)
(4.53882e-15 -0.492931 15.2818)
(8.64002e-15 -0.570447 15.8965)
(1.22339e-14 -0.638932 16.6032)
(1.77692e-14 -0.705106 17.412)
(-6.82051e-15 -0.773092 18.349)
(-3.54324e-15 -0.844619 19.44)
(-3.4673e-15 -0.919332 20.6971)
(-3.83945e-15 -0.994549 22.1113)
(-3.03882e-15 -1.06529 23.6529)
(-2.3579e-14 -1.12577 25.2781)
(-8.42117e-15 -1.17074 26.939)
(-8.37672e-15 -1.19578 28.5903)
(-2.83162e-14 -1.19661 30.193)
(3.15633e-15 -1.16879 31.7157)
(-7.4965e-15 -1.10877 33.1332)
(-1.39235e-14 -1.0138 34.4224)
(7.29035e-15 -0.882468 35.5575)
(3.03007e-14 -0.714513 36.507)
(2.7597e-14 -0.51283 37.2372)
(5.37202e-15 -0.284422 37.7177)
(-2.6414e-14 -0.0417089 37.9299)
(-2.80918e-14 0.198047 37.8725)
(-6.10484e-15 0.421412 37.5634)
(1.48024e-14 0.616172 37.0452)
(1.19306e-14 0.77478 36.335)
(4.53597e-14 0.899675 35.462)
(4.02587e-14 0.993447 34.4475)
(1.86289e-14 1.05618 33.3153)
(1.70658e-15 1.08493 32.0971)
(-3.20012e-15 1.07571 30.8364)
(4.46319e-15 1.02637 29.5871)
(-2.05224e-14 0.938296 28.4066)
(7.5797e-15 0.815826 27.3496)
(-7.33713e-15 0.668998 26.458)
(3.0752e-14 0.506328 25.7611)
(-1.53636e-14 0.347663 25.2614)
(-1.65641e-14 0.177161 24.9659)
(-1.32279e-14 0.0204661 24.8938)
(-6.53944e-15 -0.0657105 24.9758)
(-7.97367e-14 -0.0735909 25.1453)
(-3.03188e-14 -0.0194161 25.3013)
(2.61327e-14 0.0781649 25.3968)
(2.90405e-14 0.198915 25.3615)
(5.1751e-14 0.336018 25.2271)
(3.78436e-14 0.554702 24.9079)
(1.81385e-14 0.815048 24.3335)
(-2.59928e-14 1.00072 23.5089)
(-9.80633e-15 1.08391 22.5507)
(5.62459e-16 1.09797 21.5745)
(-3.09672e-14 1.05857 20.6305)
(-4.69142e-15 0.96832 19.7453)
(-1.94707e-14 0.842403 18.9504)
(-1.18812e-14 0.707025 18.2679)
(-1.26065e-14 0.591219 17.6918)
(-1.38271e-14 0.521632 17.1846)
(-1.0484e-14 0.506571 16.6921)
(-9.00465e-15 0.525211 16.1721)
(-1.03045e-14 0.546331 15.6188)
(-9.22047e-15 0.557256 15.0567)
(1.1382e-14 0.565518 14.5114)
(2.11681e-15 0.583415 13.9887)
(7.62228e-15 0.617633 13.4756)
(2.94793e-15 0.662419 12.9529)
(3.74906e-14 0.700956 12.4131)
(2.99753e-14 0.73297 11.8578)
(2.81428e-14 0.788602 11.2932)
(1.31289e-14 0.922898 10.5943)
(6.74898e-15 1.03838 10.0312)
(8.17993e-15 1.15551 8.77154)
(4.32409e-15 1.24086 8.476)
(2.46313e-14 -0.695902 7.27298)
(-1.18971e-14 -3.12601 8.49757)
(-5.46938e-14 -2.52749 11.0957)
(-5.12153e-16 -0.0962828 15.8823)
(4.07389e-15 -0.13206 16.1718)
(-7.73956e-15 -0.156006 16.5716)
(7.78351e-15 -0.146799 16.9822)
(1.59238e-15 -0.0920006 17.2686)
(-1.13619e-14 -0.0087 17.3621)
(3.03949e-14 0.0840354 17.2563)
(-2.66867e-15 0.170994 16.9744)
(1.3922e-14 0.239225 16.5558)
(1.73797e-14 0.281978 16.0472)
(1.50897e-14 0.29895 15.4999)
(1.72767e-14 0.295905 14.9572)
(7.06788e-15 0.282663 14.4469)
(3.59343e-14 0.272831 13.9657)
(1.07545e-14 0.27226 13.488)
(1.0909e-16 0.255326 13.0037)
(1.86954e-14 0.171542 12.5679)
(-4.00415e-15 0.00625226 12.3253)
(-1.4385e-14 -0.161635 12.3927)
(-1.73072e-14 -0.260514 12.685)
(-1.19373e-14 -0.280027 13.0513)
(1.47317e-14 -0.240859 13.3752)
(8.56222e-16 -0.188538 13.5905)
(7.72841e-15 -0.175057 13.6971)
(4.07246e-15 -0.232088 13.7744)
(3.19806e-15 -0.347961 13.9383)
(1.60757e-14 -0.479631 14.2476)
(2.27662e-14 -0.595719 14.6898)
(3.82434e-15 -0.693223 15.2466)
(9.45596e-15 -0.784045 15.9313)
(8.9389e-15 -0.879614 16.7727)
(1.00867e-14 -0.984453 17.7869)
(6.35561e-15 -1.0965 18.9643)
(2.10431e-16 -1.20947 20.2746)
(1.53715e-15 -1.3154 21.6799)
(9.47893e-16 -1.40659 23.1452)
(-9.24464e-15 -1.47741 24.6413)
(-1.13325e-14 -1.52429 26.1432)
(-8.98437e-15 -1.5447 27.6279)
(-5.91995e-15 -1.5359 29.0772)
(2.45665e-15 -1.49442 30.478)
(1.19912e-14 -1.41667 31.8163)
(1.92203e-14 -1.29832 33.068)
(3.49165e-14 -1.13562 34.1946)
(3.49844e-14 -0.926347 35.148)
(3.71842e-14 -0.673295 35.8806)
(3.67921e-14 -0.385545 36.3556)
(3.58151e-14 -0.0794201 36.556)
(2.89114e-14 0.222431 36.4884)
(3.39344e-14 0.502105 36.179)
(5.20962e-14 0.745658 35.6941)
(4.41933e-14 0.948041 35.0613)
(5.49994e-14 1.11503 34.3072)
(4.69087e-14 1.2499 33.4385)
(4.6543e-14 1.35043 32.4548)
(3.69001e-14 1.4089 31.3628)
(2.20209e-14 1.41598 30.1886)
(2.30294e-14 1.36563 28.9803)
(-1.28264e-14 1.25788 27.8008)
(1.36685e-14 1.09811 26.7173)
(-3.49661e-15 0.900507 25.7864)
(3.65116e-14 0.67741 25.0524)
(1.98777e-14 0.457686 24.5227)
(6.85787e-15 0.214447 24.2182)
(3.10272e-15 -0.00378842 24.1737)
(-4.6353e-14 -0.122476 24.295)
(1.06412e-14 -0.140279 24.5095)
(-3.5201e-14 -0.0751798 24.7103)
(-3.15307e-14 0.0547725 24.846)
(-6.77745e-14 0.218985 24.8458)
(-2.40915e-14 0.403486 24.7342)
(-2.96458e-15 0.698857 24.4149)
(-8.84835e-15 1.04208 23.8136)
(-3.1936e-14 1.28082 22.9394)
(1.30694e-15 1.38875 21.9281)
(4.7508e-15 1.40907 20.9044)
(3.68712e-14 1.35946 19.9136)
(5.51643e-14 1.24478 18.9816)
(2.76231e-14 1.08597 18.1436)
(2.67447e-14 0.915755 17.4249)
(-5.73614e-15 0.771014 16.8197)
(-1.89147e-14 0.687324 16.2866)
(2.71544e-15 0.674926 15.7625)
(4.90423e-15 0.703438 15.1998)
(-6.72372e-15 0.7301 14.5967)
(-1.79801e-14 0.739613 13.9878)
(-1.11977e-14 0.742567 13.4069)
(-6.72787e-15 0.755144 12.8644)
(-6.55282e-15 0.788582 12.3489)
(2.78041e-14 0.835522 11.8399)
(1.84184e-14 0.879798 11.3286)
(1.81989e-14 0.926367 10.8235)
(2.19801e-14 0.991848 10.3462)
(1.93873e-14 1.07307 9.71853)
(7.39946e-15 1.24682 9.1682)
(1.14473e-14 1.41958 7.92977)
(2.51977e-14 1.9442 7.66522)
(6.49941e-15 -0.829192 6.19294)
(-6.1182e-14 -3.64906 5.72175)
(-8.31121e-14 -3.02754 6.86643)
(-1.64055e-15 -0.130204 15.6975)
(1.15077e-14 -0.171984 16.0197)
(2.6408e-15 -0.198539 16.4258)
(1.63978e-14 -0.183202 16.8202)
(9.60298e-15 -0.113219 17.082)
(1.84077e-14 -0.0106778 17.1548)
(3.94861e-14 0.1017 17.038)
(3.72286e-14 0.206339 16.7551)
(3.33072e-14 0.288318 16.3434)
(4.96957e-14 0.339867 15.8461)
(4.72459e-14 0.360571 15.3114)
(1.84951e-14 0.357402 14.78)
(-1.92524e-15 0.342777 14.2769)
(6.29822e-15 0.333074 13.7953)
(5.54237e-15 0.334641 13.3098)
(3.6342e-15 0.316607 12.8133)
(-3.75542e-15 0.217879 12.3543)
(-3.51571e-14 0.0161243 12.073)
(-1.30227e-14 -0.192168 12.1118)
(-1.68076e-15 -0.314784 12.3878)
(1.00209e-14 -0.338248 12.7411)
(4.22854e-16 -0.28764 13.0503)
(2.28645e-14 -0.218035 13.2475)
(-1.55014e-14 -0.193855 13.3335)
(-2.38896e-14 -0.256683 13.3872)
(6.79236e-15 -0.393077 13.5146)
(1.19276e-14 -0.549441 13.776)
(1.574e-14 -0.690086 14.1919)
(2.23304e-15 -0.815714 14.7786)
(-1.07982e-14 -0.940787 15.5405)
(-1.02382e-15 -1.07342 16.4511)
(1.97395e-15 -1.21181 17.4612)
(-1.0711e-16 -1.34974 18.5293)
(7.14689e-16 -1.48126 19.6414)
(-5.96461e-15 -1.60162 20.8079)
(-1.54215e-14 -1.70593 22.0434)
(-1.31019e-14 -1.78889 23.35)
(-3.90002e-15 -1.84546 24.7137)
(2.54559e-15 -1.87204 26.1158)
(5.87668e-15 -1.86591 27.5429)
(8.63088e-15 -1.82315 28.9814)
(3.49609e-14 -1.73776 30.4027)
(4.84534e-14 -1.60131 31.7547)
(4.74108e-14 -1.4068 32.9696)
(6.00512e-14 -1.15119 33.9785)
(4.88539e-14 -0.839567 34.726)
(4.72057e-14 -0.485486 35.1767)
(4.57124e-14 -0.111281 35.3204)
(4.26334e-14 0.253918 35.1756)
(3.9465e-14 0.586417 34.7802)
(3.8272e-14 0.868274 34.2211)
(3.92506e-14 1.09868 33.5473)
(4.1212e-14 1.29126 32.8073)
(4.59476e-14 1.45486 32.0164)
(5.06652e-14 1.58878 31.1635)
(5.02622e-14 1.68124 30.2287)
(5.0917e-14 1.71538 29.2072)
(4.49748e-14 1.67755 28.1239)
(4.11147e-14 1.56284 27.0314)
(5.2549e-14 1.37524 25.9995)
(4.13387e-14 1.13225 25.0937)
(4.48998e-14 0.850043 24.3721)
(3.08393e-14 0.568658 23.845)
(3.15546e-14 0.243635 23.5529)
(-6.14206e-15 -0.0402069 23.5481)
(6.1564e-16 -0.19046 23.712)
(-1.22265e-14 -0.218355 23.9649)
(-3.62843e-15 -0.141666 24.1998)
(2.98237e-14 0.0231082 24.3634)
(1.50998e-14 0.234669 24.3893)
(4.73322e-14 0.472222 24.2897)
(4.19359e-14 0.85255 23.9597)
(4.44623e-14 1.28421 23.3239)
(4.31733e-14 1.57676 22.3868)
(4.62337e-14 1.7093 21.309)
(1.01778e-14 1.7353 20.2266)
(3.27099e-14 1.67381 19.1797)
(4.84703e-14 1.53276 18.1944)
(2.26071e-14 1.33904 17.3114)
(1.68359e-14 1.13131 16.5599)
(1.7156e-14 0.954979 15.9346)
(4.24995e-14 0.856859 15.3868)
(1.09839e-14 0.849443 14.8408)
(3.46058e-14 0.889881 14.2405)
(8.97883e-15 0.921666 13.5901)
(-1.21921e-14 0.9279 12.9374)
(3.97276e-15 0.922821 12.3247)
(-3.36413e-15 0.924419 11.7659)
(-4.47842e-15 0.951942 11.249)
(-5.14058e-15 1.00364 10.753)
(1.95755e-14 1.04846 10.2826)
(1.01698e-14 1.04459 9.85728)
(-9.79827e-15 1.08341 9.4489)
(1.73171e-15 1.301 8.83242)
(2.53635e-14 1.60452 8.19801)
(1.05562e-14 1.39181 7.61575)
(2.4662e-14 1.98214 6.77491)
(-3.10023e-14 0.892468 7.93918)
(-7.76413e-14 -1.61099 0.854815)
(-8.5764e-14 -1.63677 -3.33782)
(-1.1916e-15 -0.162457 15.5354)
(3.94706e-15 -0.211014 15.8619)
(1.81541e-14 -0.239987 16.252)
(2.16049e-14 -0.218374 16.6161)
(1.89478e-14 -0.133657 16.8474)
(1.69546e-14 -0.0128429 16.8985)
(1.8255e-14 0.118111 16.772)
(9.11389e-15 0.23952 16.4897)
(1.93832e-14 0.334612 16.086)
(9.30882e-15 0.394672 15.6004)
(1.46233e-14 0.419158 15.0772)
(-1.28046e-14 0.416236 14.5545)
(-4.7459e-15 0.400947 14.0556)
(-1.31046e-14 0.392235 13.5718)
(-1.488e-14 0.39673 13.0784)
(-4.0201e-14 0.378679 12.57)
(-2.01878e-14 0.266841 12.0886)
(-3.57424e-15 0.028654 11.7725)
(-1.56717e-14 -0.222035 11.7969)
(1.29566e-14 -0.369401 12.0738)
(-3.19133e-14 -0.396566 12.4275)
(-1.38851e-14 -0.333761 12.7322)
(-6.30979e-15 -0.246448 12.923)
(-1.54564e-14 -0.210975 13.0022)
(4.13464e-15 -0.27726 13.0349)
(1.30709e-14 -0.431843 13.1245)
(1.17114e-14 -0.61666 13.378)
(2.71113e-14 -0.792641 13.8533)
(-3.16145e-15 -0.954778 14.5236)
(-9.80026e-15 -1.10906 15.2984)
(-1.13849e-14 -1.25875 16.0862)
(-7.01442e-15 -1.40553 16.853)
(5.0517e-15 -1.55234 17.6344)
(1.15333e-14 -1.7008 18.4986)
(1.16349e-14 -1.84702 19.4982)
(1.65219e-14 -1.98087 20.646)
(1.01432e-14 -2.09079 21.9224)
(1.48504e-14 -2.16885 23.3006)
(2.16257e-14 -2.21226 24.7648)
(2.41507e-14 -2.21904 26.3043)
(2.79347e-14 -2.18226 27.89)
(3.3176e-14 -2.09023 29.4605)
(2.87449e-14 -1.92964 30.9308)
(4.59925e-14 -1.6926 32.2158)
(4.46228e-14 -1.37846 33.2455)
(4.24193e-14 -0.996922 33.9722)
(4.24409e-14 -0.566884 34.368)
(5.34097e-14 -0.117204 34.4277)
(3.61347e-14 0.316002 34.1747)
(6.55107e-15 0.702784 33.6521)
(-3.36274e-14 1.01922 32.9578)
(-5.58274e-14 1.26665 32.1474)
(-6.00527e-14 1.46662 31.3017)
(-2.6761e-14 1.63745 30.4638)
(-8.41513e-15 1.78604 29.6385)
(7.22201e-15 1.90167 28.7984)
(1.81217e-14 1.96161 27.9115)
(1.93726e-14 1.94252 26.9707)
(2.45127e-14 1.8308 26.0042)
(5.31803e-14 1.6253 25.0712)
(4.1633e-14 1.34487 24.2367)
(3.97567e-14 1.00845 23.5672)
(3.44032e-14 0.66909 23.0708)
(4.3095e-14 0.255438 22.8137)
(2.75593e-14 -0.0946559 22.8619)
(9.52473e-14 -0.273002 23.0785)
(3.62048e-14 -0.309639 23.3751)
(2.70469e-14 -0.219992 23.6477)
(9.82719e-14 -0.0174193 23.8426)
(7.15009e-14 0.245468 23.8988)
(5.33627e-14 0.541309 23.8166)
(-4.331e-15 1.01494 23.48)
(4.56328e-14 1.54131 22.8158)
(3.35673e-14 1.88955 21.8139)
(1.07288e-14 2.04703 20.6675)
(1.47586e-14 2.07808 19.5254)
(-8.30296e-15 2.00263 18.4213)
(-2.05348e-14 1.83241 17.383)
(-1.16119e-14 1.60049 16.4586)
(3.47412e-15 1.35114 15.6823)
(3.03102e-14 1.13959 15.0482)
(3.08858e-15 1.02708 14.4973)
(1.91801e-14 1.02832 13.9363)
(1.18405e-14 1.08364 13.2998)
(-3.17673e-15 1.11987 12.6016)
(3.73184e-15 1.12003 11.9071)
(1.89546e-15 1.10259 11.2688)
(-1.23052e-15 1.08933 10.7035)
(1.70402e-14 1.11143 10.1956)
(-5.17592e-15 1.1369 9.72802)
(-3.23287e-15 1.14318 9.31819)
(7.33548e-15 1.20695 8.93889)
(-3.98198e-15 1.43745 8.47387)
(1.30706e-14 1.52282 7.95322)
(4.83628e-15 1.39834 8.12593)
(3.77975e-14 1.69145 7.19021)
(-1.64886e-15 2.99583 2.06816)
(-6.6464e-14 2.13525 -0.322505)
(-8.65375e-14 -0.0332 -2.65796)
(-8.56283e-14 -1.30902 -2.25662)
(9.0996e-15 -0.197786 15.3602)
(8.40764e-15 -0.251432 15.6787)
(1.53577e-14 -0.280918 16.0381)
(1.9488e-15 -0.252343 16.3633)
(1.83916e-14 -0.153397 16.5616)
(1.67272e-14 -0.0154366 16.592)
(1.13515e-14 0.132957 16.4576)
(1.10056e-14 0.270246 16.1774)
(2.3353e-14 0.377884 15.7828)
(5.77724e-15 0.446305 15.3095)
(-2.49192e-15 0.47479 14.7969)
(-7.55402e-15 0.472549 14.2803)
(-1.25467e-14 0.457157 13.7828)
(-1.79316e-14 0.450049 13.2961)
(-2.1041e-14 0.458161 12.7954)
(-1.65176e-14 0.441076 12.2757)
(-4.52117e-14 0.317491 11.775)
(-1.37965e-14 0.0419347 11.4347)
(-1.59706e-14 -0.253804 11.4627)
(-2.57764e-14 -0.426433 11.7537)
(-2.09926e-14 -0.456413 12.1141)
(-1.91398e-14 -0.380687 12.4202)
(-1.50943e-15 -0.275285 12.6137)
(1.1154e-14 -0.226493 12.6885)
(-6.71075e-16 -0.293602 12.694)
(8.58048e-15 -0.470375 12.7736)
(3.38166e-14 -0.694734 13.0861)
(2.65654e-14 -0.909777 13.6295)
(6.4319e-15 -1.09327 14.257)
(-9.55373e-15 -1.24939 14.8345)
(2.60271e-16 -1.39471 15.343)
(9.60233e-15 -1.54762 15.8688)
(3.0683e-14 -1.71882 16.5238)
(2.89786e-14 -1.90519 17.3715)
(2.24018e-14 -2.09215 18.4108)
(1.6934e-14 -2.26166 19.607)
(1.62215e-14 -2.40086 20.9294)
(2.70079e-14 -2.50484 22.3688)
(2.89718e-14 -2.57254 23.9273)
(2.49506e-14 -2.59831 25.5874)
(1.33029e-14 -2.56732 27.29)
(1.96135e-14 -2.46159 28.9434)
(2.09117e-14 -2.26634 30.4509)
(3.03006e-14 -1.97672 31.7337)
(2.695e-14 -1.5963 32.7359)
(2.63005e-14 -1.13902 33.4201)
(2.46173e-14 -0.62773 33.7623)
(2.58232e-14 -0.0969366 33.7545)
(1.13986e-14 0.410278 33.4158)
(3.14497e-14 0.857108 32.7862)
(2.48789e-14 1.21261 31.9669)
(8.48649e-15 1.47722 30.9972)
(-1.94743e-14 1.67568 29.9841)
(-1.95496e-14 1.83558 29.0009)
(-1.83165e-14 1.97537 28.0881)
(-1.84462e-14 2.09263 27.2391)
(-1.65978e-14 2.1647 26.4154)
(4.11736e-15 2.16023 25.5823)
(-1.62481e-14 2.05462 24.7365)
(1.53323e-15 1.83778 23.9154)
(-1.68062e-14 1.52703 23.1734)
(1.21581e-14 1.14214 22.5792)
(2.00871e-14 0.750639 22.1317)
(1.69414e-14 0.241963 21.9295)
(8.87181e-15 -0.172806 22.0449)
(-9.27502e-15 -0.37545 22.3296)
(-1.99155e-14 -0.41927 22.6828)
(3.85767e-15 -0.314759 23.0056)
(6.87301e-15 -0.070735 23.2424)
(1.40419e-14 0.247674 23.3399)
(4.40156e-14 0.607025 23.2848)
(2.7649e-14 1.18258 22.948)
(1.64519e-14 1.81088 22.2635)
(8.07641e-15 2.21785 21.1958)
(1.61552e-14 2.40104 19.9811)
(-9.9458e-15 2.43651 18.7814)
(-3.07282e-14 2.3447 17.6216)
(-1.88678e-14 2.14186 16.5333)
(-6.07651e-15 1.86754 15.5737)
(8.60125e-16 1.5715 14.7821)
(-3.34933e-14 1.32072 14.1516)
(-2.62645e-14 1.19483 13.6092)
(2.51929e-14 1.21019 13.0386)
(-1.76815e-14 1.28379 12.364)
(9.20264e-15 1.32207 11.6147)
(-1.34293e-14 1.31121 10.8805)
(-3.30477e-16 1.27833 10.2262)
(3.15397e-15 1.23443 9.67279)
(-4.3542e-15 1.22906 9.19502)
(1.79157e-14 1.28161 8.76044)
(-5.99827e-15 1.38994 8.36387)
(8.35536e-15 1.35021 8.08086)
(1.39243e-15 1.20234 8.1891)
(2.62415e-14 1.29518 8.35624)
(2.65076e-14 2.2068 5.96515)
(9.82626e-16 3.77693 0.718893)
(-4.3754e-14 4.86712 -3.11454)
(-8.24781e-14 3.81749 -2.13978)
(-8.49358e-14 0.755969 -0.67135)
(-8.46461e-14 -1.08229 -3.24978)
(2.1134e-14 -0.233063 15.1668)
(1.87752e-15 -0.289844 15.4592)
(1.00103e-14 -0.319346 15.7781)
(2.94129e-15 -0.284458 16.065)
(-2.38975e-15 -0.172436 16.2348)
(1.02897e-14 -0.0186383 16.2477)
(2.17957e-14 0.146035 16.1064)
(-6.03109e-15 0.298288 15.8277)
(3.61234e-15 0.417868 15.4409)
(-1.32212e-14 0.494535 14.9787)
(-3.99352e-14 0.52738 14.4753)
(4.74927e-15 0.526335 13.9623)
(9.95605e-15 0.511274 13.4638)
(3.62187e-15 0.506179 12.9732)
(-6.10461e-15 0.518542 12.4652)
(-1.3663e-14 0.503215 11.9348)
(-6.20293e-15 0.368302 11.4191)
(-3.65151e-14 0.0535176 11.0711)
(-4.73569e-14 -0.289452 11.1171)
(-1.823e-14 -0.486777 11.4248)
(-3.69392e-14 -0.51853 11.7912)
(-2.40392e-14 -0.429614 12.1032)
(3.51341e-16 -0.305129 12.3035)
(-4.23266e-14 -0.24036 12.3683)
(4.66605e-15 -0.309848 12.3583)
(-2.73179e-14 -0.517827 12.4756)
(1.86859e-14 -0.783212 12.8368)
(-6.74019e-15 -1.01867 13.308)
(-1.23486e-14 -1.19753 13.7178)
(-1.95896e-14 -1.34464 14.0497)
(9.67489e-15 -1.49831 14.4215)
(3.65631e-14 -1.68231 14.9626)
(4.56267e-14 -1.89672 15.7232)
(4.06239e-14 -2.12477 16.6768)
(2.67633e-14 -2.34595 17.7752)
(3.14989e-14 -2.54449 18.9908)
(2.9309e-14 -2.7128 20.3273)
(2.67424e-14 -2.84831 21.8039)
(2.01028e-14 -2.94594 23.4235)
(9.26329e-15 -2.99104 25.1453)
(4.98334e-15 -2.96041 26.8842)
(-1.32569e-15 -2.8334 28.5392)
(1.70342e-14 -2.59758 30.0221)
(2.73061e-14 -2.25257 31.2689)
(2.27632e-14 -1.80519 32.2347)
(1.86852e-14 -1.27193 32.8865)
(1.29897e-14 -0.678031 33.1981)
(9.79793e-15 -0.062899 33.1562)
(1.04926e-14 0.523866 32.7739)
(1.432e-14 1.03757 32.0871)
(2.04443e-14 1.44156 31.1897)
(2.31697e-14 1.73342 30.1008)
(2.30279e-14 1.93474 28.9293)
(1.95448e-14 2.07765 27.7642)
(1.64497e-14 2.19086 26.6831)
(9.477e-15 2.28538 25.7215)
(-1.58652e-14 2.34719 24.864)
(-2.1026e-14 2.34301 24.069)
(-2.61888e-14 2.23833 23.305)
(-1.30257e-14 2.01123 22.5811)
(-2.44129e-14 1.67443 21.9321)
(-1.20444e-15 1.24568 21.4219)
(7.16144e-15 0.808173 21.0314)
(-7.75904e-15 0.196774 20.901)
(-1.75283e-14 -0.279445 21.0981)
(-8.52832e-17 -0.502895 21.4674)
(-2.166e-14 -0.552533 21.8904)
(7.69664e-15 -0.430761 22.2768)
(2.72907e-14 -0.140958 22.5671)
(5.165e-15 0.238277 22.7172)
(-3.20423e-16 0.667114 22.696)
(-1.15304e-14 1.3542 22.3613)
(6.38648e-15 2.09168 21.6612)
(-2.44652e-14 2.56093 20.523)
(-3.67353e-14 2.77067 19.2381)
(2.39988e-14 2.80961 17.9812)
(1.71383e-14 2.69839 16.7667)
(-1.24518e-14 2.45869 15.6316)
(2.27848e-14 2.13687 14.6436)
(6.38877e-15 1.78827 13.8471)
(-1.41447e-14 1.49396 13.2338)
(3.43178e-14 1.35714 12.7116)
(1.86512e-14 1.39436 12.1351)
(-1.34128e-14 1.49054 11.417)
(-5.32649e-14 1.52772 10.6106)
(-1.8865e-14 1.49738 9.84018)
(-1.12899e-14 1.43511 9.18378)
(1.15965e-16 1.38002 8.66718)
(-1.05443e-15 1.42025 8.21697)
(-1.46238e-14 1.34582 7.87222)
(-1.70675e-14 1.11935 8.00192)
(-2.69095e-14 1.07323 8.402)
(3.61553e-15 1.67958 6.42469)
(-2.33181e-15 2.81745 2.44977)
(-1.89278e-14 4.0741 -0.993177)
(-4.329e-14 5.17453 -3.51901)
(-7.23482e-14 5.29729 -4.75157)
(-8.62333e-14 3.57077 -3.41365)
(-8.38823e-14 0.809553 -2.24501)
(-8.57928e-14 -0.496502 -4.34134)
(-1.08492e-15 -0.267441 14.9369)
(-8.46383e-16 -0.326683 15.1952)
(3.81506e-15 -0.356449 15.485)
(9.05652e-15 -0.315679 15.7475)
(9.21343e-16 -0.191099 15.8975)
(-1.26124e-15 -0.0221872 15.8964)
(-2.44275e-14 0.158006 15.748)
(-4.33976e-15 0.324492 15.4683)
(-2.16439e-14 0.455409 15.0856)
(-2.65262e-14 0.540122 14.6307)
(-2.42176e-14 0.577648 14.1327)
(-2.04836e-15 0.578292 13.6196)
(-6.60422e-16 0.56389 13.1163)
(9.91218e-16 0.561031 12.6182)
(9.28827e-16 0.578036 12.0998)
(7.51813e-15 0.564675 11.5585)
(5.10386e-15 0.417622 11.0342)
(-3.20688e-14 0.0614931 10.6936)
(-3.09827e-14 -0.32957 10.7582)
(-4.55237e-14 -0.550416 11.0728)
(-3.02616e-14 -0.583657 11.4411)
(-2.60464e-14 -0.481556 11.7622)
(-2.19922e-14 -0.336252 11.9685)
(-1.65785e-14 -0.254774 12.0262)
(-2.33119e-14 -0.331772 12.0341)
(-1.3224e-14 -0.572045 12.1876)
(1.42721e-15 -0.861307 12.4779)
(-5.16204e-15 -1.09546 12.7436)
(-7.63968e-15 -1.26782 12.9555)