/*--------------------------------*- C++ -*----------------------------------*\
| =========                 |                                                 |
| \\      /  F ield         | OpenFOAM: The Open Source CFD Toolbox           |
|  \\    /   O peration     | Version:  4.1                                   |
|   \\  /    A nd           | Web:      www.OpenFOAM.org                      |
|    \\/     M anipulation  |                                                 |
\*---------------------------------------------------------------------------*/
FoamFile
{
    version     2.0;
    format      ascii;
    class       volScalarField;
    location    "1200";
    object      p;
}
// * * * * * * * * * * * * * * * * * * * * * * * * * * * * * * * * * * * * * //

dimensions      [0 2 -2 0 0 0 0];

internalField   nonuniform List<scalar> 
26785
(
35.1177
30.1473
27.038
24.4327
20.8969
15.1501
6.27465
-5.44043
-19.0418
-33.6069
-48.3722
-62.6082
-75.4925
-86.2346
-93.8639
-97.7014
-98.2093
-96.0071
-91.9064
-86.8041
-81.2667
-75.5788
-69.9188
-64.4287
-59.2351
-54.4516
-50.1696
-46.426
-43.1448
-40.0866
-36.8492
-32.9302
-27.9111
-21.6925
-14.5537
-6.96065
0.587915
7.68733
14.0127
19.4074
23.5791
26.5694
28.7782
30.0756
30.579
30.4488
29.8771
29.0751
28.1785
27.227
26.1964
24.9209
22.969
19.9475
16.3393
13.8837
13.8992
16.2157
19.6369
20.7504
19.4093
18.0608
16.9059
15.8932
14.9981
14.1738
13.4561
12.89
12.5476
12.4621
12.6035
12.9126
13.3571
13.9553
14.7404
15.6806
16.6417
17.4718
18.1781
18.9911
20.156
21.615
22.9825
23.9516
24.558
24.9649
25.1747
24.6977
22.3897
16.2072
6.12884
-4.59918
-12.6649
-16.5584
-16.5079
-13.8584
-10.2411
-6.68215
-3.76381
-0.972427
35.0628
30.1337
27.0313
24.433
20.9084
15.1664
6.28453
-5.44161
-19.0531
-33.626
-48.3976
-62.6412
-75.5351
-86.29
-93.9321
-97.77
-98.2748
-96.0633
-91.9486
-86.8344
-81.2878
-75.5924
-69.9254
-64.4289
-59.2294
-54.4413
-50.157
-46.4152
-43.1422
-40.0997
-36.8834
-32.9848
-27.9783
-21.7617
-14.6164
-7.01067
0.552748
7.66517
14.0002
19.4051
23.5698
26.5541
28.7744
30.0721
30.5796
30.4512
29.8822
29.0818
28.1835
27.2289
26.2034
24.962
23.0419
19.9831
16.2564
13.726
13.6959
15.9639
19.354
20.5589
19.2566
17.9823
16.8592
15.8602
14.9713
14.1492
13.431
12.8625
12.5184
12.4334
12.5768
12.8904
13.3426
13.9468
14.7286
15.6539
16.6009
17.4369
18.1682
18.9919
20.1199
21.5106
22.8338
23.7805
24.3378
24.6231
24.5918
23.8342
21.3961
15.2431
5.25726
-5.36955
-13.3938
-17.2024
-16.9552
-14.0556
-10.2574
-6.62358
-3.60954
-1.05125
34.9824
30.1115
27.0198
24.4362
20.9345
15.2026
6.30792
-5.44007
-19.0712
-33.659
-48.4428
-62.7009
-75.6137
-86.3942
-94.0638
-97.9071
-98.4091
-96.1797
-92.0366
-86.8983
-81.3339
-75.6242
-69.9443
-64.4357
-59.2248
-54.4268
-50.1365
-46.3962
-43.1363
-40.1204
-36.9414
-33.08
-28.0972
-21.886
-14.7309
-7.10342
0.487298
7.62596
13.9829
19.4094
23.5598
26.5314
28.7707
30.0674
30.5825
30.4565
29.8931
29.0918
28.1835
27.2244
26.2299
25.0529
23.1799
20.0568
16.1363
13.5174
13.4062
15.5995
18.8565
20.1386
18.9874
17.8375
16.7695
15.796
14.919
14.1015
13.3827
12.8099
12.4625
12.3782
12.5249
12.8453
13.3094
13.9241
14.7022
15.6035
16.5227
17.3581
18.1218
18.9665
20.0451
21.3154
22.5141
23.3856
23.8702
23.9919
23.6517
22.5798
20.0884
14.1763
4.4999
-5.9886
-14.1495
-18.058
-17.742
-14.5613
-10.4617
-6.6313
-3.39998
-1.11413
34.8787
30.0704
26.9959
24.4382
20.9722
15.2562
6.34337
-5.43573
-19.0943
-33.7025
-48.5027
-62.7815
-75.7217
-86.5398
-94.2525
-98.1083
-98.6099
-96.3551
-92.1704
-86.9967
-81.4064
-75.6756
-69.9764
-64.4494
-59.2212
-54.4083
-50.1087
-46.3701
-43.1291
-40.1523
-37.0273
-33.2187
-28.268
-22.0629
-14.8933
-7.23517
0.394466
7.57254
13.9646
19.424
23.551
26.5014
28.7626
30.0555
30.5804
30.4596
29.9048
29.1057
28.1971
27.2327
26.2584
25.1085
23.2505
20.0675
15.9843
13.3018
13.0519
15.1972
18.2882
19.5907
18.6497
17.6437
16.6403
15.6976
14.8351
14.0222
13.3004
12.7191
12.3661
12.285
12.4397
12.7715
13.2513
13.8792
14.6557
15.5331
16.419
17.2415
18.0225
18.879
19.9079
21.051
22.0896
22.8268
23.2028
23.1646
22.572
21.2727
18.7774
13.2409
4.21879
-5.8813
-14.2875
-18.6435
-18.5385
-15.2325
-10.8502
-6.77927
-3.31246
-1.10672
34.7515
30.0171
26.9639
24.4421
21.0239
15.3295
6.39379
-5.42483
-19.1179
-33.7511
-48.5716
-62.8767
-75.8522
-86.7195
-94.4911
-98.3689
-98.8745
-96.588
-92.3492
-87.1295
-81.5056
-75.7475
-70.0233
-64.472
-59.2204
-54.3871
-50.0743
-46.3371
-43.1205
-40.1956
-37.1431
-33.4045
-28.4956
-22.2972
-15.1076
-7.40939
0.270977
7.50214
13.9449
19.4508
23.5452
26.4653
28.7476
30.0313
30.5699
30.4622
29.9226
29.1286
28.2209
27.2511
26.265
25.0996
23.2283
19.9962
15.805
13.1841
12.7938
14.8091
17.6968
18.9912
18.2692
17.4143
16.4761
15.5659
14.7184
13.9101
13.1826
12.5877
12.2258
12.1509
12.3191
12.6656
13.1626
13.8028
14.5767
15.4338
16.2894
17.0913
17.8656
18.7027
19.6624
20.6788
21.5618
22.1597
22.4217
22.2418
21.4712
20.0391
17.5393
12.3984
4.22361
-5.11855
-13.4209
-18.3103
-18.6692
-15.6211
-11.25
-6.99235
-3.33287
-1.02469
34.5632
29.9502
26.9227
24.4468
21.0884
15.4217
6.45909
-5.40631
-19.1395
-33.8015
-48.6454
-62.9816
-76.0003
-86.9275
-94.7747
-98.6856
-99.2012
-96.8771
-92.5717
-87.2956
-81.6309
-75.8397
-70.085
-64.5037
-59.223
-54.3638
-50.0338
-46.2974
-43.1102
-40.2495
-37.2875
-33.637
-28.7807
-22.5915
-15.3776
-7.63025
0.11212
7.40979
13.9205
19.4887
23.5408
26.4216
28.7206
29.9911
30.5517
30.461
29.934
29.14
28.2098
27.218
26.2082
25.0263
23.1448
19.9023
15.7264
13.1362
12.6624
14.4887
17.149
18.4042
17.8718
17.1581
16.28
15.4001
14.5656
13.7589
13.0199
12.4014
12.0226
11.9564
12.1468
12.5158
13.0362
13.6897
14.4585
15.2974
16.1277
16.9081
17.6595
18.4499
19.3171
20.2005
20.9349
21.4085
21.578
21.2863
20.3963
18.9126
16.4351
11.6974
4.41005
-4.01805
-11.9298
-17.0452
-17.8408
-15.3142
-11.3284
-7.17797
-3.4192
-0.951886
34.3114
29.8716
26.8737
24.4536
21.166
15.5326
6.53979
-5.37831
-19.156
-33.8493
-48.7188
-63.0904
-76.1593
-87.1565
-95.0968
-99.0547
-99.5885
-97.2217
-92.8371
-87.4946
-81.7823
-75.9527
-70.1624
-64.546
-59.231
-54.3406
-49.9889
-46.2516
-43.0972
-40.3106
-37.4554
-33.9102
-29.1183
-22.9428
-15.7032
-7.89993
-0.0860901
7.29017
13.8874
19.5347
23.5333
26.3664
28.675
29.9346
30.5207
30.4325
29.8968
29.0891
28.1405
27.1262
26.0917
24.8939
23.0143
19.8019
15.7296
13.1892
12.6758
14.3057
16.7026
17.8698
17.4801
16.8801
16.0548
15.2002
14.374
13.5637
12.8041
12.1478
11.7403
11.6863
11.913
12.3168
12.8701
13.5419
14.3073
15.1307
15.9401
16.7008
17.4264
18.1659
18.9417
19.7015
20.3016
20.6677
20.7517
20.3563
19.3747
17.8694
15.4372
11.0603
4.59104
-2.77727
-9.82139
-14.8674
-16.3992
-14.4929
-10.8378
-7.06181
-3.58399
-1.00701
34.0483
29.7869
26.8169
24.4617
21.2541
15.6592
6.63393
-5.34087
-19.1656
-33.8915
-48.7878
-63.198
-76.3236
-87.3998
-95.4508
-99.4716
-100.034
-97.6205
-93.1445
-87.7258
-81.9596
-76.0866
-70.2562
-64.6
-59.2455
-54.3188
-49.9409
-46.2002
-43.0807
-40.3765
-37.6424
-34.2176
-29.5011
-23.3456
-16.0812
-8.21807
-0.32592
7.13881
13.8416
19.5842
23.5177
26.2942
28.6057
29.8558
30.4439
30.3372
29.7894
28.9725
28.0137
26.9817
25.9223
24.7059
22.8412
19.6983
15.7692
13.2966
12.7695
14.2207
16.3463
17.3969
17.1039
16.5831
15.8017
14.9656
14.1407
13.3185
12.5249
11.8099
11.357
11.3219
11.6083
12.0685
12.6696
13.3719
14.1415
14.9571
15.7535
16.5011
17.2073
17.9065
18.6057
19.2577
19.7421
20.0214
20.0138
19.5025
18.4322
16.9025
14.5267
10.4755
4.66332
-1.83457
-7.87437
-12.2218
-13.8678
-12.7384
-9.87575
-6.66122
-3.71101
-1.22378
33.7789
29.6909
26.7515
24.4704
21.3503
15.7986
6.73975
-5.29412
-19.1671
-33.9255
-48.8487
-63.2999
-76.488
-87.6508
-95.8301
-99.9315
-100.534
-98.071
-93.4923
-87.9884
-82.1625
-76.2419
-70.3673
-64.6669
-59.2683
-54.3002
-49.8913
-46.1441
-43.0602
-40.4453
-37.8445
-34.5532
-29.9217
-23.7927
-16.5067
-8.58244
-0.608105
6.95223
13.7802
19.6328
23.4881
26.1994
28.5082
29.7301
30.2935
30.1688
29.6167
28.7976
27.8329
26.7848
25.6979
24.4603
22.6235
19.587
15.8252
13.424
12.8899
14.1665
16.0505
16.9796
16.7419
16.2681
15.5204
14.6944
13.8618
13.016
12.1704
11.3701
10.8535
10.8571
11.2479
11.8014
12.4661
13.2137
13.991
14.8062
15.5953
16.3325
17.021
17.6839
18.3131
18.8621
19.2426
19.4542
19.352
18.7227
17.572
16.0105
13.6937
9.95857
4.74052
-1.08161
-6.41053
-10.1482
-11.6046
-10.8437
-8.65545
-6.05865
-3.66331
-1.31404
33.5103
29.592
26.6809
24.4795
21.452
15.9477
6.85482
-5.23911
-19.1598
-33.9493
-48.8983
-63.3915
-76.647
-87.9027
-96.2278
-100.43
-101.086
-98.5714
-93.8789
-88.2815
-82.3911
-76.419
-70.4965
-64.748
-59.3006
-54.286
-49.8409
-46.0837
-43.0357
-40.5162
-38.0603
-34.9133
-30.374
-24.2777
-16.9744
-8.98983
-0.932399
6.72776
13.6993
19.6762
23.434
26.0816
28.3671
29.5369
30.074
29.939
29.3886
28.5696
27.5982
26.5319
25.4131
24.1517
22.3553
19.4589
15.8883
13.5572
13.0295
14.1209
15.7999
16.608
16.3899
15.9353
15.2092
14.3836
13.5327
12.6493
11.7292
10.812
10.218
10.3075
10.8802
11.5655
12.3007
13.0893
13.86
14.6685
15.4453
16.1666
16.8335
17.46
18.0233
18.4734
18.7609
18.9173
18.7242
17.9912
16.779
15.1866
12.9186
9.45388
4.77532
-0.40299
-5.1253
-8.42717
-9.75419
-9.22816
-7.51275
-5.43004
-3.49449
-1.37061
33.2134
29.4846
26.6045
24.4881
21.5571
16.1033
6.97617
-5.17724
-19.1435
-33.9613
-48.9337
-63.4688
-76.7957
-88.1488
-96.6356
-100.961
-101.685
-99.1193
-94.3027
-88.6043
-82.645
-76.6181
-70.6443
-64.8438
-59.3433
-54.277
-49.7902
-46.0187
-43.0064
-40.5887
-38.2894
-35.2964
-30.8545
-24.7955
-17.479
-9.43661
-1.29801
6.46354
13.5971
19.7044
23.3494
25.9368
28.1682
29.2824
29.7997
29.659
29.1114
28.2893
27.3064
26.2163
25.0586
23.7713
22.0269
19.3018
15.953
13.6975
13.2004
14.0848
15.5852
16.2737
16.0443
15.5851
14.8665
14.0303
13.1495
12.2121
11.1916
10.1232
9.45454
9.7252
10.5771
11.3851
12.188
12.9758
13.7226
14.5144
15.2756
15.9791
16.6236
17.2152
17.7182
18.0781
18.2867
18.3931
18.1148
17.2984
16.0412
14.4243
12.1995
8.95804
4.72879
0.125179
-4.02625
-6.91712
-8.1149
-7.76265
-6.41462
-4.75816
-3.21978
-1.37147
32.9247
29.3754
26.5238
24.4953
21.6621
16.261
7.10049
-5.11028
-19.1186
-33.9608
-48.9533
-63.5289
-76.9303
-88.3833
-97.0457
-101.517
-102.325
-99.7106
-94.7614
-88.9556
-82.9238
-76.8392
-70.8111
-64.9551
-59.3971
-54.274
-49.7398
-45.9492
-42.9717
-40.6623
-38.5316
-35.7018
-31.3607
-25.3424
-18.0163
-9.91918
-1.70396
6.15698
13.4764
19.7042
23.2432
25.7506
27.9126
28.9815
29.4819
29.3364
28.7876
27.9551
26.9527
25.829
24.6223
23.3055
21.6232
19.0997
16.0146
13.8593
13.412
14.0633
15.4
15.9716
15.7039
15.2182
14.4914
13.6323
12.7093
11.7006
10.5517
9.30171
8.59698
9.19718
10.3555
11.2652
12.0941
12.8509
13.5709
14.3436
15.0938
15.7792
16.399
16.9556
17.4037
17.6844
17.8302
17.8899
17.5306
16.6455
15.3493
13.709
11.5242
8.47928
4.6355
0.530118
-3.11737
-5.63649
-6.70013
-6.46254
-5.38818
-4.05942
-2.84921
-1.30061
32.6627
29.2567
26.4361
24.4991
21.7638
16.417
7.22449
-5.04034
-19.0859
-33.9471
-48.9554
-63.569
-77.0473
-88.6014
-97.4512
-102.091
-102.999
-100.34
-95.2514
-89.3333
-83.2267
-77.0823
-70.9973
-65.0825
-59.4631
-54.2782
-49.6904
-45.8751
-42.9307
-40.7356
-38.7861
-36.1281
-31.8906
-25.9155
-18.5824
-10.434
-2.14902
5.80564
13.3246
19.68
23.1163
25.5143
27.6121
28.6452
29.1279
28.975
28.4173
27.564
26.5305
25.359
24.0872
22.7332
21.1215
18.8299
16.0603
14.0487
13.6492
14.0703
15.2399
15.7003
15.3697
14.8367
14.0846
13.1893
12.2116
11.1144
9.80959
8.36233
7.72146
8.79061
10.1674
11.2091
11.9991
12.7212
13.4122
14.166
14.9107
15.5757
16.1685
16.6923
17.093
17.3046
17.4042
17.4185
16.9793
16.0337
14.6997
13.0315
10.8781
8.00723
4.5051
0.84688
-2.34214
-4.5116
-5.42757
-5.25667
-4.39366
-3.32977
-2.39729
-1.16764
32.4326
29.1328
26.3444
24.4991
21.8591
16.5668
7.34383
-4.9703
-19.0465
-33.92
-48.9386
-63.5868
-77.1438
-88.7988
-97.8454
-102.677
-103.7
-101.002
-95.7687
-89.7349
-83.5524
-77.3469
-71.2029
-65.2265
-59.5421
-54.2904
-49.6426
-45.7963
-42.8823
-40.8075
-39.0521
-36.5744
-32.4426
-26.5125
-19.1741
-10.9778
-2.6319
5.41484
13.1309
19.6375
22.9542
25.2358
27.2771
28.2804
28.7424
28.5768
27.9996
27.1119
26.0317
24.7926
23.4318
22.0267
20.493
18.4646
16.0668
14.2608
13.8838
14.1284
15.1042
15.4605
15.045
14.4442
13.6489
12.7039
11.6596
10.4577
8.97379
7.34675
6.93328
8.43564
10.0508
11.1929
11.9131
12.5969
13.2502
13.984
14.7291
15.371
15.9364
16.432
16.7931
16.9452
17.0146
16.9802
16.4587
15.4586
14.0889
12.3882
10.2516
7.52744
4.33019
1.08381
-1.6741
-3.50043
-4.24439
-4.09068
-3.38652
-2.54406
-1.85868
-0.968484
32.2357
29.0072
26.2493
24.4931
21.9438
16.7043
7.45279
-4.90389
-19.0023
-33.8799
-48.9023
-63.5802
-77.2171
-88.9716
-98.2219
-103.269
-104.42
-101.692
-96.3093
-90.1578
-83.8993
-77.6324
-71.4278
-65.3873
-59.6346
-54.3112
-49.5969
-45.7122
-42.8251
-40.877
-39.3295
-37.0399
-33.0156
-27.1318
-19.7886
-11.5474
-3.15207
4.97353
12.9204
19.5714
22.7449
24.9258
26.9145
27.8915
28.3283
28.1429
27.5331
26.594
25.4471
24.1145
22.6322
21.1564
19.7117
17.9778
16.0066
14.4847
14.109
14.2715
14.998
15.2537
14.7352
14.0462
13.1897
12.1813
11.0602
9.74033
8.06631
6.34172
6.35128
8.05346
10.0689
11.2019
11.8601
12.4878
13.0902
13.8008
14.5542
15.17
15.7068
16.178
16.5068
16.6098
16.6622
16.5689
15.9631
14.9138
13.5094
11.7716
9.63536
7.02745
4.09896
1.23459
-1.11038
-2.59136
-3.13334
-2.94716
-2.35374
-1.69668
-1.23608
-0.705397
32.023
28.8706
26.1518
24.4799
22.0124
16.8213
7.54393
-4.84606
-18.9558
-33.8276
-48.8461
-63.548
-77.2653
-89.117
-98.5745
-103.862
-105.153
-102.404
-96.8693
-90.5994
-84.266
-77.9377
-71.6716
-65.565
-59.7407
-54.3409
-49.5529
-45.6219
-42.7573
-40.9432
-39.6185
-37.5249
-33.6092
-27.7726
-20.4238
-12.1397
-3.70479
4.46525
12.7116
19.4664
22.4909
24.5927
26.5292
27.4817
27.8883
27.6739
27.016
26.0047
24.7672
23.3106
21.6698
20.1051
18.7702
17.3628
15.862
14.7101
14.3603
14.5133
14.9336
15.081
14.447
13.6496
12.7138
11.6296
10.4238
8.97782
7.12697
5.47787
5.98606
7.76685
10.1408
11.209
11.8464
12.4106
12.9449
13.6233
14.3933
14.9785
15.4844
15.9339
16.2378
16.3025
16.3453
16.1802
15.4908
14.3972
12.9565
11.1729
9.01671
6.49362
3.80134
1.29555
-0.645805
-1.77071
-2.07567
-1.80841
-1.28461
-0.787567
-0.540121
-0.390582
31.8633
28.731
26.0526
24.4564
22.0578
16.907
7.60748
-4.80314
-18.9103
-33.7641
-48.7695
-63.4885
-77.2864
-89.2327
-98.8979
-104.451
-105.892
-103.134
-97.4448
-91.057
-84.6509
-78.262
-71.9337
-65.7592
-59.8605
-54.3797
-49.5107
-45.5242
-42.6772
-41.0049
-39.9195
-38.0294
-34.2238
-28.4348
-21.0779
-12.7517
-4.28843
3.92441
12.503
19.3089
22.1995
24.2427
26.1251
27.0539
27.4243
27.1704
26.4464
25.3386
23.9836
22.3732
20.5451
18.8944
17.7062
16.663
15.6526
14.9289
14.6699
14.8115
14.9387
14.9432
14.1861
13.262
12.2287
11.058
9.76396
8.19309
6.22852
4.94396
5.6455
7.76469
10.1581
11.1391
11.786
12.3555
12.8328
13.4639
14.2549
14.8031
15.2742
15.7036
15.9883
16.0242
16.0625
15.8137
15.0443
13.9095
12.4275
10.5854
8.38335
5.90982
3.4226
1.25697
-0.28347
-1.03584
-1.06525
-0.667887
-0.175721
0.178873
0.214464
-0.0372888
31.7524
28.5809
25.9531
24.4207
22.0714
16.9474
7.63137
-4.78232
-18.8694
-33.6906
-48.6723
-63.4001
-77.278
-89.3164
-99.1868
-105.035
-106.632
-103.875
-98.0315
-91.5278
-85.052
-78.6042
-72.2135
-65.9699
-59.9944
-54.4281
-49.4702
-45.4181
-42.5823
-41.0608
-40.2324
-38.554
-34.8601
-29.1182
-21.7489
-13.3784
-4.91319
3.39942
12.2892
19.1024
21.8791
23.8808
25.7058
26.6107
26.9386
26.6328
25.8222
24.5907
23.0921
21.3101
19.3008
17.6211
16.6311
15.9932
15.4526
15.1428
15.0217
15.1157
15.0395
14.8418
13.9556
12.8899
11.7411
10.476
9.09534
7.42001
5.52411
4.96885
5.36438
7.95779
10.046
10.919
11.58
12.2506
12.7645
13.3425
14.1483
14.65
15.0805
15.4889
15.7566
15.7718
15.8116
15.4704
14.6257
13.4503
11.9194
10.0036
7.72591
5.2633
2.95149
1.11278
-0.0234507
-0.383609
-0.0988412
0.475657
0.970187
1.19178
1.00632
0.336274
31.6956
28.4336
25.8586
24.3699
22.0422
16.9262
7.60409
-4.78997
-18.8362
-33.6082
-48.5537
-63.2806
-77.237
-89.3652
-99.4349
-105.61
-107.366
-104.624
-98.6251
-92.0084
-85.4672
-78.9628
-72.5103
-66.1967
-60.1426
-54.4864
-49.4315
-45.3022
-42.4701
-41.1091
-40.557
-39.0983
-35.518
-29.822
-22.4344
-14.0137
-5.5625
2.90914
12.0609
18.8534
21.5368
23.5112
25.2752
26.1548
26.433
26.062
25.142
23.7575
22.0958
20.1559
18.0424
16.4616
15.7053
15.4801
15.3346
15.3647
15.3871
15.4223
15.2306
14.7873
13.755
12.5375
11.2561
9.89126
8.42847
6.68907
5.09356
4.96871
5.53383
8.06754
9.76611
10.5121
11.201
12.0331
12.7422
13.2808
14.0826
14.5233
14.9056
15.2888
15.5377
15.5381
15.5865
15.1487
14.2365
13.0198
11.4315
9.42649
7.03893
4.5435
2.37903
0.859441
0.134957
0.185773
0.818774
1.61238
2.13804
2.22822
1.8029
0.701277
31.6698
28.2969
25.7723
24.3007
21.9589
16.8312
7.51895
-4.83022
-18.8132
-33.5173
-48.4127
-63.1276
-77.1596
-89.3755
-99.635
-106.166
-108.083
-105.374
-99.221
-92.4954
-85.8941
-79.3361
-72.8227
-66.439
-60.305
-54.5554
-49.395
-45.1752
-42.3377
-41.1479
-40.8921
-39.6612
-36.1982
-30.5467
-23.131
-14.6608
-6.20991
2.46187
11.8222
18.5654
21.1784
23.1374
24.8369
25.6888
25.9099
25.4588
24.4046
22.8383
21.0108
18.9816
16.9239
15.5593
15.0267
15.1314
15.2874
15.5927
15.7585
15.763
15.4828
14.784
13.5821
12.2041
10.7755
9.30946
7.78176
6.15539
5.23395
4.78453
6.08852
8.06421
9.34239
9.94921
10.6542
11.6802
12.7463
13.2991
14.0625
14.4234
14.7485
15.0985
15.3239
15.3118
15.3671
14.832
13.8706
12.6127
10.9601
8.85603
6.3276
3.75004
1.70767
0.503909
0.200043
0.675843
1.68372
2.73193
3.31108
3.26208
2.57086
1.03733
31.5918
28.1742
25.6979
24.2103
21.8156
16.6612
7.37604
-4.9038
-18.8008
-33.4182
-48.2486
-62.9389
-77.0415
-89.3437
-99.7786
-106.694
-108.773
-106.119
-99.8154
-92.9855
-86.33
-79.7221
-73.1493
-66.6959
-60.4815
-54.6353
-49.3607
-45.0355
-42.1818
-41.1752
-41.2363
-40.2423
-36.9008
-31.2895
-23.8368
-15.3233
-6.84964
2.05409
11.5758
18.2385
20.8094
22.7627
24.3948
25.2156
25.3714
24.8245
23.61
21.8375
19.8714
17.8924
16.0573
14.8716
14.5537
14.8403
15.2613
15.827
16.146
16.1532
15.7716
14.8234
13.4348
11.8826
10.2934
8.71811
7.12939
5.7863
5.21968
5.06755
6.52198
8.00012
8.86539
9.26909
9.95019
11.1908
12.7383
13.4018
14.0863
14.3458
14.6041
14.9103
15.1068
15.0889
15.1157
14.4878
13.4999
12.2016
10.4812
8.28312
5.59869
2.89937
0.963616
0.0770346
0.195916
1.09401
2.48543
3.81285
4.46951
4.26914
3.27305
1.31662
31.5375
28.0815
25.6327
24.0966
21.6176
16.426
7.18159
-5.00751
-18.7982
-33.3114
-48.0618
-62.7136
-76.8788
-89.2663
-99.8553
-107.188
-109.423
-106.854
-100.404
-93.476
-86.7728
-80.119
-73.4886
-66.9662
-60.6718
-54.7267
-49.3289
-44.8814
-41.9993
-41.1891
-41.5889
-40.8375
-37.6189
-32.0509
-24.5665
-16.0164
-7.47234
1.68583
11.316
17.8733
20.4352
22.3899
23.9526
24.738
24.8202
24.161
22.7603
20.7684
18.7395
16.9998
15.4182
14.3014
14.1508
14.5351
15.2382
16.0799
16.5596
16.5856
16.0762
14.8903
13.3063
11.5666
9.80878
8.13577
6.63596
5.90344
5.03655
5.71762
6.94507
7.9249
8.40032
8.52738
9.12603
10.5455
12.699
13.5448
14.1508
14.2796
14.4646
14.7145
14.8776
14.8805
14.8138
14.098
13.096
11.7593
9.9827
7.72516
4.88989
2.03823
0.198599
-0.376136
0.144707
1.42302
3.16371
4.76124
5.49843
5.15708
3.83841
1.49215
31.4739
28.0195
25.5714
23.962
21.3779
16.1407
6.94639
-5.13501
-18.8034
-33.1982
-47.8541
-62.4526
-76.6693
-89.1411
-99.8543
-107.633
-110.016
-107.569
-100.984
-93.9641
-87.2203
-80.5248
-73.839
-67.2487
-60.8751
-54.8298
-49.3
-44.711
-41.787
-41.1893
-41.9467
-41.4404
-38.3605
-32.8585
-25.3443
-16.7546
-8.05866
1.35194
11.0346
17.4754
20.0612
22.0214
23.5139
24.2592
24.2593
23.4709
21.8611
19.6599
17.7029
16.3454
14.8861
13.8409
13.7121
14.2183
15.2223
16.3572
16.9904
17.0396
16.3741
14.9594
13.1756
11.233
9.29192
7.52951
6.27223
5.86693
5.32813
6.19285
7.31763
7.89707
7.97732
7.78801
8.25676
9.76964
12.6242
13.6937
14.2368
14.2096
14.3224
14.5029
14.6154
14.6665
14.4799
13.6864
12.6689
11.2985
9.50151
7.25021
4.27386
1.16186
-0.65072
-0.924082
0.00541715
1.63311
3.66325
5.54405
6.40363
5.88565
4.24319
1.57808
31.4036
27.9815
25.5065
23.8113
21.1106
15.8211
6.68285
-5.27889
-18.814
-33.0797
-47.6283
-62.1587
-76.4128
-88.9672
-99.7657
-108.017
-110.535
-108.253
-101.549
-94.4467
-87.6702
-80.9378
-74.1987
-67.542
-61.091
-54.9449
-49.2744
-44.5227
-41.5419
-41.1733
-42.3066
-42.0706
-39.1648
-33.7262
-26.1601
-17.5009
-8.58961
1.04423
10.7301
17.0557
19.6919
21.6591
23.0819
23.7821
23.6921
22.7589
20.9252
18.5647
16.8508
15.8533
14.4374
13.4449
13.2433
13.9289
15.232
16.6568
17.4122
17.4875
16.6322
14.998
13.0269
10.8638
8.73472
7.06275
6.31391
5.80869
5.77824
6.58993
7.66093
7.9154
7.63162
7.12884
7.44036
8.97657
12.5406
13.8252
14.2941
14.1246
14.1716
14.2763
14.325
14.4222
14.1286
13.2876
12.2531
10.8561
9.08288
6.88494
3.70071
0.0627221
-1.87555
-1.8359
-0.379235
1.70563
4.02045
6.0396
6.98995
6.25587
4.36201
1.50879
31.3332
27.9472
25.4342
23.6495
20.8271
15.4805
6.40152
-5.43252
-18.8271
-32.9565
-47.3872
-61.8359
-76.1112
-88.7454
-99.5846
-108.326
-110.971
-108.896
-102.094
-94.9205
-88.1198
-81.3557
-74.5659
-67.8446
-61.3184
-55.0721
-49.2526
-44.3152
-41.2616
-41.1366
-42.6794
-42.7448
-39.9901
-34.5686
-26.9506
-18.1894
-9.043
0.763089
10.4079
16.6267
19.3299
21.3041
22.6597
23.3103
23.123
22.0321
19.977
17.5618
16.2205
15.4358
14.1454
13.0464
12.8315
13.7396
15.3036
16.9628
17.7655
17.8668
16.8048
14.9604
12.8231
10.4491
8.23554
6.89594
6.32654
6.08281
6.11047
6.88376
8.04889
8.02006
7.45795
6.69049
6.80858
8.3081
12.483
13.9167
14.2656
14.02
14.0095
14.0422
14.0384
14.16
13.7846
12.9224
11.8735
10.4599
8.7398
6.58106
2.97444
-1.68142
-3.77527
-3.22931
-1.0532
1.61401
4.30727
6.28005
6.82626
6.20431
4.30668
1.37279
31.2577
27.9066
25.3553
23.4804
20.5343
15.1275
6.10989
-5.59079
-18.8403
-32.8288
-47.1331
-61.4883
-75.768
-88.4785
-99.3155
-108.545
-111.319
-109.486
-102.614
-95.3819
-88.5665
-81.7762
-74.9388
-68.1547
-61.5563
-55.2116
-49.2351
-44.0876
-40.9455
-41.086
-43.0437
-43.3407
-40.6733
-35.2763
-27.6297
-18.7476
-9.39551
0.512033
10.0756
16.1989
18.9764
20.9573
22.25
22.8475
22.5581
21.3032
19.0589
16.7436
15.7726
15.1482
14.0035
12.7331
12.601
13.7142
15.3913
17.1482
17.9556
18.0719
16.8247
14.7919
12.5136
9.99953
7.93259
6.95044
6.41088
6.38041
6.43307
7.21678
8.51085
8.29684
7.59917
6.64571
6.55092
7.96802
12.4886
13.9585
14.1071
13.8937
13.8379
13.8098
13.7711
13.9035
13.461
12.595
11.5398
10.1195
8.45758
6.27842
1.90507
-4.35587
-6.18723
-4.60945
-1.58471
1.63294
4.64461
6.56032
6.85699
5.90886
3.78396
1.18005
31.18
27.8611
25.2709
23.3052
20.2361
14.7683
5.81317
-5.75016
-18.8514
-32.6963
-46.8676
-61.1193
-75.3875
-88.1697
-98.9673
-108.647
-111.587
-110.019
-103.104
-95.8275
-89.0072
-82.1969
-75.315
-68.4706
-61.8032
-55.3631
-49.2231
-43.8383
-40.5979
-41.0257
-43.2834
-43.7174
-41.1255
-35.7542
-28.0884
-19.1245
-9.64633
0.288171
9.73844
15.7786
18.6304
20.6188
21.8552
22.3983
22.0065
20.5943
18.2382
16.1932
15.4642
15.07
13.9576
12.6534
12.6393
13.8235
15.3855
16.9745
17.8253
17.9643
16.5808
14.5
12.2096
9.73072
7.94559
7.03089
6.71225
6.70435
6.77702
7.60366
9.04837
8.78895
8.04999
6.96963
6.69711
8.17668
12.5652
13.9088
13.8183
13.7464
13.6619
13.588
13.5271
13.6428
13.163
12.3086
11.2508
9.82749
8.21295
5.95502
0.526275
-7.34222
-8.43088
-5.52168
-1.83692
1.74313
5.02713
7.14351
7.45046
5.83606
3.38613
0.893477
31.0997
27.8116
25.1811
23.125
19.9362
14.4081
5.51552
-5.90834
-18.8593
-32.5586
-46.5919
-60.7313
-74.9732
-87.8204
-98.5487
-108.621
-111.799
-110.489
-103.559
-96.2536
-89.439
-82.6152
-75.6927
-68.7905
-62.0581
-55.5262
-49.2183
-43.5659
-40.2351
-40.9238
-43.352
-43.8388
-41.2644
-35.9237
-28.298
-19.3353
-9.81938
0.0834684
9.39869
15.3674
18.2903
20.2883
21.4775
21.9675
21.4769
19.9274
17.5836
15.9592
15.2291
15.0519
13.9898
12.7357
12.8204
13.9801
15.3405
16.529
17.3628
17.5458
16.2418
14.1705
11.9444
9.6624
8.06737
7.26653
7.05911
7.0284
7.15224
8.03434
9.61591
9.43543
8.66803
7.53198
7.19673
8.80551
12.5862
13.7412
13.5634
13.5827
13.4863
13.3841
13.3154
13.3907
12.9057
12.0703
11.0098
9.58299
7.99504
5.59644
-0.976493
-9.75229
-10.2889
-6.15474
-2.00708
1.82265
5.11593
7.37938
8.33941
7.72635
5.0103
1.427
31.0185
27.7573
25.086
22.9406
19.6374
14.0518
5.22084
-6.0638
-18.8637
-32.4159
-46.3062
-60.3257
-74.5282
-87.4311
-98.0728
-108.465
-111.98
-110.89
-103.972
-96.6562
-89.8587
-83.0287
-76.0699
-69.1129
-62.3196
-55.7022
-49.2171
-43.2895
-39.9067
-40.7634
-43.2298
-43.6775
-41.109
-35.8433
-28.3235
-19.4327
-9.94381
-0.11026
9.05628
14.9638
17.9535
19.9652
21.1196
21.5638
20.9881
19.3477
17.2758
16.0634
15.1802
14.8881
13.866
12.8914
13.0998
14.1256
15.2524
16.0601
16.8009
16.8967
15.8298
13.9368
11.8364
9.7734
8.27793
7.64367
7.42601
7.36047
7.54375
8.47132
10.1694
10.1356
9.36769
8.19301
7.87103
9.46658
12.5845
13.5394
13.4025
13.4073
13.3134
13.2021
13.1421
13.1692
12.6857
11.8861
10.8302
9.39067
7.76564
5.14253
-2.51521
-11.3151
-11.7241
-6.53679
-2.10616
1.86946
5.1812
7.18601
8.17824
8.10567
6.35225
2.35781
30.9354
27.6984
24.986
22.7528
19.3405
13.702
4.93253
-6.21449
-18.8644
-32.2694
-46.0116
-59.9033
-74.0553
-87.002
-97.5547
-108.167
-112.121
-111.197
-104.331
-97.0306
-90.2634
-83.435
-76.4449
-69.4367
-62.587
-55.8925
-49.2309
-43.0625
-39.6201
-40.542
-42.9578
-43.3314
-40.7827
-35.6217
-28.2436
-19.4645
-10.0407
-0.298968
8.70995
14.5641
17.6177
19.6494
20.7851
21.1968
20.5639
19.0082
17.5261
15.9231
15.1744
14.51
13.6577
13.0186
13.2888
14.1942
15.1485
15.7784
16.3636
16.321
15.4799
13.8532
11.906
10.0289
8.6764
8.08716
7.78981
7.68198
7.91582
8.8631
10.6734
10.7891
10.0713
8.86221
8.59945
10.1043
12.6046
13.3163
13.2477
13.2266
13.1451
13.0452
13.008
12.9841
12.5009
11.7451
10.6886
9.22614
7.47866
4.58305
-4.0294
-11.8664
-12.4228
-6.50467
-2.00667
1.93084
5.10446
7.00586
7.78839
7.59101
5.99494
2.20733
30.8463
27.6353
24.8811
22.562
19.0458
13.3596
4.65234
-6.35764
-18.859
-32.119
-45.7099
-59.4659
-73.5563
-86.5324
-97.0016
-107.72
-112.202
-111.376
-104.625
-97.3716
-90.6495
-83.8316
-76.8159
-69.7602
-62.8607
-56.0939
-49.2982
-42.8978
-39.3574
-40.3148
-42.611
-42.904
-40.3823
-35.3352
-28.1101
-19.4593
-10.1209
-0.486211
8.35828
14.1644
17.2808
19.3407
20.4767
20.864
20.1761
18.862
17.5773
15.8469
14.9798
14.2839
13.588
13.1187
13.3929
14.2189
15.0497
15.6142
16.0674
16.014
15.3363
13.9316
12.1047
10.3647
9.1208
8.4774
8.10717
7.96865
8.23403
9.18381
11.0889
11.3458
10.7677
9.60534
9.3718
10.6755
12.5587
13.0523
13.0725
13.0454
12.9832
12.916
12.9001
12.8224
12.3402
11.6189
10.5687
9.08256
7.17594
4.04961
-5.33694
-11.7031
-12.4237
-6.13353
-1.69805
2.02325
4.93837
6.58486
7.15742
6.89834
5.28203
1.78872
30.7557
27.5679
24.7716
22.3681
18.7532
13.0251
4.3817
-6.49141
-18.8435
-31.9594
-45.4
-59.0163
-73.0327
-86.0196
-96.4165
-107.145
-112.255
-111.423
-104.845
-97.6748
-91.0135
-84.2154
-77.1806
-70.0819
-63.14
-56.319
-49.4267
-42.7614
-39.1581
-40.1005
-42.2267
-42.4449
-39.953
-35.0196
-27.9465
-19.429
-10.1883
-0.673636
8.00066
13.7621
16.942
19.0411
20.2036
20.5992
20.0596
19.3376
17.2435
15.9686
14.8981
14.1612
13.5332
13.1474
13.4402
14.2223
14.9708
15.4914
15.7863
15.8069
15.3118
14.0542
12.3066
10.6555
9.46877
8.78796
8.37877
8.21626
8.48743
9.4309
11.3853
11.7737
11.379
10.3076
10.0706
11.0974
12.4296
12.8012
12.8837
12.8666
12.8275
12.8077
12.7932
12.665
12.2016
11.5214
10.509
9.0272
7.05556
3.81104
-5.8735
-11.4037
-11.7972
-5.3735
-1.22317
2.13269
4.69262
6.06886
6.46281
6.06107
4.51194
1.72506
30.6632
27.4964
24.6575
22.1712
18.4624
12.6985
4.12168
-6.61513
-18.8172
-31.7863
-45.0746
-58.5501
-72.4845
-85.4618
-95.8033
-106.459
-112.279
-111.329
-104.986
-97.9365
-91.3518
-84.5833
-77.5362
-70.4011
-63.4198
-56.5935
-49.5615
-42.6675
-39.0323
-39.8882
-41.8144
-41.9663
-39.5066
-34.6835
-27.7578
-19.375
-10.2424
-0.861522
7.63758
13.3554
16.6013
18.7524
19.9601
20.3438
19.9879
19.2484
17.2174
15.9054
14.8248
14.0486
13.4361
13.12
13.4513
14.2034
14.9079
15.3515
15.4737
15.6349
15.2946
14.138
12.4609
10.8835
9.73907
9.04269
8.61091
8.42323
8.67406
9.6052
11.5466
12.0662
11.8122
10.826
10.5792
11.341
12.2717
12.5835
12.6913
12.6907
12.6744
12.7031
12.6823
12.5169
12.0954
11.4835
10.5605
9.19158
7.31938
4.0076
-4.69482
-10.6477
-10.3778
-4.27819
-0.626466
2.26509
4.41336
5.52907
5.76461
5.3467
3.88552
1.93492
30.5698
27.4207
24.5391
21.9714
18.1729
12.379
3.87199
-6.72836
-18.7804
-31.6012
-44.7312
-58.0555
-71.901
-84.8619
-95.1661
-105.699
-112.197
-111.061
-105.044
-98.1544
-91.6609
-84.9318
-77.8802
-70.7142
-63.7089
-56.9008
-49.66
-42.6437
-38.9678
-39.6654
-41.371
-41.4628
-39.0378
-34.3218
-27.5396
-19.2944
-10.2819
-1.04936
7.27047
12.9448
16.2623
18.485
19.7692
20.3212
20.5271
18.7839
17.3241
15.9104
14.7427
13.9199
13.3234
13.0688
13.4355
14.166
14.8463
15.1595
15.1639
15.5021
15.2448
14.1599
12.5598
11.0534
9.95413
9.25584
8.80762
8.58799
8.79197
9.70381
11.584
12.2512
12.0762
11.1687
10.8988
11.4418
12.1118
12.3813
12.4996
12.5175
12.5218
12.5908
12.5859
12.3899
12.0216
11.4996
10.7174
9.55652
7.82777
4.35919
-2.87221
-8.95741
-8.24257
-3.05906
0.0379764
2.41823
4.14913
5.03857
5.14837
4.78028
3.31551
1.95958
30.4748
27.3409
24.4166
21.7688
17.8848
12.0659
3.63176
-6.83145
-18.7333
-31.405
-44.3731
-57.5303
-71.2615
-84.2116
-94.5088
-104.927
-112.05
-110.639
-105.024
-98.3274
-91.9378
-85.2572
-78.21
-71.0142
-64.0243
-57.1686
-49.7454
-42.6843
-38.9516
-39.4257
-40.8905
-40.9239
-38.5367
-33.9255
-27.2854
-19.1834
-10.3055
-1.23635
6.90117
12.5317
15.9309
18.238
19.5858
20.2979
20.3969
18.6849
17.2479
15.859
14.6515
13.7853
13.1947
12.9865
13.3853
14.1152
14.7708
14.9226
14.8584
15.3627
15.1502
14.1078
12.5861
11.1639
10.1218
9.43282
8.9712
8.70812
8.83651
9.72006
11.5329
12.3453
12.215
11.3915
11.0931
11.4585
11.9529
12.1886
12.3101
12.3467
12.3706
12.467
12.5103
12.2851
11.9729
11.5389
10.8994
9.93592
8.32731
4.83687
-1.42227
-6.78512
-5.91289
-1.76995
0.72036
2.58342
3.92872
4.62481
4.63971
4.29735
2.84302
1.8559
30.3742
27.2573
24.2904
21.564
17.5983
11.7588
3.40018
-6.925
-18.6761
-31.1985
-44.0026
-56.9817
-70.5608
-83.4798
-93.8032
-104.183
-111.879
-110.136
-104.936
-98.4547
-92.1792