/*--------------------------------*- C++ -*----------------------------------*\
| =========                 |                                                 |
| \\      /  F ield         | OpenFOAM: The Open Source CFD Toolbox           |
|  \\    /   O peration     | Version:  4.1                                   |
|   \\  /    A nd           | Web:      www.OpenFOAM.org                      |
|    \\/     M anipulation  |                                                 |
\*---------------------------------------------------------------------------*/
FoamFile
{
    version     2.0;
    format      ascii;
    class       surfaceScalarField;
    location    "1200";
    object      phi;
}
// * * * * * * * * * * * * * * * * * * * * * * * * * * * * * * * * * * * * * //

dimensions      [0 3 -1 0 0 0 0];

internalField   nonuniform List<scalar> 
52920
(
1821.63
-174.519
1986.97
-165.347
2152.54
-165.564
2327.17
-174.634
2524.13
-196.961
2751.77
-227.641
3006.32
-254.543
3276.54
-270.223
3549.71
-273.176
3814.24
-264.521
4059.74
-245.506
4276.19
-216.448
4453.24
-177.054
4579.12
-125.874
4646.16
-67.0406
4658.91
-12.7541
4626.84
32.0747
4565.12
61.7193
4491.18
73.9376
4417.95
73.2282
4353.18
64.7715
4301.29
51.8916
4264.64
36.6513
4244.1
20.5409
4239.29
4.81288
4248.62
-9.33118
4269
-20.3853
4295.02
-26.0142
4318.09
-23.0697
4326.78
-8.69342
4308.85
17.9313
4254.49
54.364
4159.37
95.1181
4025.98
133.39
3862.38
163.597
3680.03
182.351
3489.46
190.567
3295.39
194.073
3091.98
203.407
2874.85
217.131
2642.18
232.674
2394.98
247.202
2149.96
245.012
1914.61
235.354
1694.29
220.317
1497.5
196.798
1340.22
157.28
1234.6
105.613
1186.12
48.4819
1191.13
-5.00885
1231.39
-40.2572
1302.38
-70.9897
1419.86
-117.484
1560.78
-140.923
1644.15
-83.3676
1614.02
30.1367
1416.98
197.036
987.964
429.016
299.829
688.136
-316.672
616.5
-724.437
407.766
-961.491
237.054
-1151.59
190.1
-1315.5
163.905
-1466.6
151.102
-1609.68
143.078
-1743.73
134.052
-1862.95
119.219
-1958.76
95.8092
-2023.94
65.1821
-2055.62
31.6783
-2054.6
-1.0211
-2023.64
-30.9541
-1966.61
-57.0311
-1887.83
-78.7779
-1791.1
-96.7286
-1677.96
-113.143
-1547.41
-130.548
-1397.24
-150.17
-1224.9
-172.343
-1026.47
-198.432
-791.528
-234.939
-486.199
-305.329
-34.0529
-452.146
620.934
-654.987
1499.54
-878.607
2653.4
-1153.86
4110.73
-1457.33
5780.71
-1669.98
7397.97
-1617.26
8661
-1263.02
9415.39
-754.396
9692.01
-276.619
9654.92
37.0942
9508.79
146.126
9409.32
99.4745
9426.56
-17.2457
9550.59
-124.022
9753.38
-202.789
-177.469
1861.62
-355.579
2034.3
-338.029
2206.81
-338.068
2388.26
-356.082
2591.69
-400.393
2824.62
-460.57
3082.2
-512.122
3352.37
-540.393
3622.18
-542.984
3880.46
-522.807
4117.81
-482.852
4325.42
-424.056
4494.4
-346.037
4614.58
-246.06
4678.59
-131.051
4688.61
-22.7729
4652.01
68.6741
4583.84
129.89
4501.62
156.157
4417.89
156.962
4339.68
142.986
4270.8
120.768
4213.51
93.9412
4169.26
64.793
4138.87
35.2014
4122.37
7.17194
4118.46
-16.4823
4123.72
-31.2717
4131.68
-31.0295
4132.61
-9.62551
4114.48
36.0626
4065.99
102.861
3980.47
180.631
3857.92
255.938
3704.09
317.43
3528.76
357.684
3342.23
377.096
3150.77
385.534
2950.16
404.012
2736.09
431.209
2505.01
463.75
2257.25
494.96
2009.81
492.46
1768.87
476.291
1543.34
445.851
1351.84
388.297
1220.03
289.087
1153.29
172.358
1122.16
79.6108
1089.14
28.0052
1078.51
-29.625
1134.98
-127.455
1235.78
-218.282
1335.8
-240.95
1380.84
-128.398
1330.94
80.0276
1138.78
389.204
775.627
792.166
164.755
1299.01
-417.878
1199.13
-738.459
728.347
-944.526
443.121
-1127.5
373.075
-1290.85
327.255
-1443.9
304.148
-1590.48
289.668
-1729.82
273.388
-1855.84
245.239
-1959.34
199.306
-2032.51
138.351
-2072.43
71.5996
-2080.36
6.91333
-2059.47
-51.8427
-2013.24
-103.266
-1944.76
-147.253
-1857.14
-184.354
-1752.25
-218.026
-1629.94
-252.86
-1488.25
-291.863
-1323.69
-336.907
-1131.83
-390.289
-907.845
-458.923
-648.7
-564.475
-348.728
-752.117
41.1755
-1044.89
575.854
-1413.29
1288.09
-1866.1
2243.36
-2412.59
3524.43
-2951.06
5041.27
-3134.1
6510.91
-2732.66
7621.56
-1865.05
8185.27
-840.324
8239.81
-17.445
7989.95
395.985
7661.8
427.625
7401.35
243.197
7271.49
5.83781
7286.01
-217.304
-257.776
1890.8
-543.273
2069.67
-516.896
2246.69
-515.087
2431.23
-540.618
2636.12
-605.285
2868.33
-692.783
3122.52
-766.31
3386.5
-804.378
3647.74
-804.216
3895.89
-770.966
4122.65
-709.607
4320.39
-621.801
4481.54
-507.186
4597.27
-361.791
4660.19
-193.967
4670.24
-32.8244
4632.51
106.41
4561.5
200.898
4474.94
242.72
4385.41
246.484
4299.84
228.564
4221.85
198.756
4153.63
162.161
4096.73
121.692
4052.22
79.7119
4020.55
38.8413
4001.15
2.91538
3991.33
-21.4484
3985.03
-24.7274
3972.74
2.66423
3943.06
65.7446
3885.62
160.296
3794.34
271.911
3668.91
381.373
3513.79
472.544
3337.08
534.4
3148.02
566.149
2953.59
579.97
2750.83
606.765
2535.9
646.141
2303.49
696.166
2052.55
745.892
1798.5
746.509
1546.4
728.395
1318.03
674.227
1147.95
558.371
1058.11
378.931
1025.23
205.231
1004.27
100.576
956.189
76.0857
907.204
19.3611
901.346
-121.597
941.688
-258.623
1013.61
-312.87
1061.83
-176.621
1013.96
127.9
817.472
585.693
513.753
1095.89
-2.77142
1815.53
-511.736
1708.1
-764.146
980.757
-937.951
616.927
-1111.44
546.562
-1277.97
493.784
-1439.36
465.541
-1596.98
447.282
-1749.85
426.258
-1891.61
387.002
-2012.04
319.74
-2102.42
228.731
-2159.7
128.873
-2185.16
32.3769
-2182.06
-54.939
-2153.68
-131.651
-2101.47
-199.457
-2027
-258.832
-1931.79
-313.234
-1815.69
-368.953
-1676.3
-431.253
-1508.77
-504.437
-1308.09
-590.97
-1073.12
-693.895
-810.613
-826.982
-532.847
-1029.88
-244.03
-1333.71
47.1749
-1704.49
317.374
-2136.29
602.611
-2697.83
1105.16
-3453.6
1990.3
-4019.25
3225.01
-3967.37
4599.5
-3239.54
5742.94
-1983.77
6338.18
-612.678
6390.72
343.444
6157.65
660.693
5839.34
561.504
5553.25
291.935
5343.97
-8.03006
-175.464
1912.13
-736.059
2094.41
-699.184
2272.04
-692.712
2454.91
-723.487
2656.27
-806.642
2883.19
-919.705
3130.32
-1013.44
3385.61
-1059.67
3636.93
-1055.54
3874.64
-1008.67
4091.21
-926.176
4279.89
-810.484
4434.07
-661.369
4546.09
-473.806
4608.62
-256.496
4619.82
-44.0269
4582.73
143.502
4511.51
272.114
4424.22
330.009
4333.56
337.145
4246.29
315.832
4165.85
279.203
4094.2
233.81
4032.77
183.119
3982.65
129.838
3944.42
77.065
3917.86
29.4809
3900.66
-4.24907
3886.63
-10.7013
3865.43
23.863
3824.96
106.22
3754.95
230.303
3650.4
376.466
3512.33
519.441
3345.89
638.98
3158.78
721.509
2959.3
765.636
2753.93
785.336
2540.06
820.637
2315.38
870.826
2074.38
937.161
1813.81
1006.46
1546.07
1014.25
1281.6
992.868
1065.69
890.129
939.925
684.14
892.125
426.731
851.193
246.162
780.814
170.957
711.101
145.799
641.319
89.1445
571.667
-51.9444
566.597
-253.553
646.105
-392.378
708.024
-238.54
716.24
119.685
578.618
723.315
261.134
1413.37
-191.967
2268.63
-593.846
2109.98
-797.053
1183.96
-950.297
770.171
-1113.15
709.418
-1282.35
662.981
-1453.34
636.536
-1623.93
617.864
-1792.49
594.824
-1953.06
547.572
-2095.22
461.897
-2209.5
343.016
-2292.05
211.416
-2342.4
82.7357
-2361.67
-35.674
-2352.47
-140.852
-2315.7
-236.228
-2251.49
-323.042
-2160.64
-404.08
-2042.29
-487.303
-1892.94
-580.603
-1706.64
-690.74
-1478.49
-819.118
-1209.67
-962.72
-910.439
-1126.21
-594.6
-1345.72
-277.216
-1651.09
1.03097
-1982.74
155.418
-2290.68
123.614
-2666.03
48.3612
-3378.35
150.536
-4121.42
552.21
-4369.04
1353.54
-4040.86
2520.77
-3151.01
3681.52
-1773.42
4353.6
-328.634
4487.63
526.663
4332.88
716.257
4097.45
527.358
3844.54
244.883
-15.4165
1933.97
-934.548
2116.46
-881.68
2290.01
-866.263
2466.57
-900.044
2660.43
-1000.5
2879.08
-1138.36
3117.28
-1251.64
3363.14
-1305.52
3604.83
-1297.23
3833.17
-1237.01
4041.11
-1134.11
4222.39
-991.769
4370.97
-809.944
4479.91
-582.745
4541.72
-318.308
4553.02
-55.3318
4515.37
181.151
4443.26
344.233
4355.4
417.867
4264.54
428.001
4177.08
403.297
4095.95
360.325
4022.73
307.036
3958.51
247.34
3904.26
184.091
3860.82
120.503
3828.5
61.8007
3805.71
18.5412
3786.93
8.08195
3761.85
48.9416
3717.22
150.845
3641.16
306.362
3527.88
489.749
3378.82
668.502
3200.05
817.746
2999.88
921.679
2786.32
979.201
2564.87
1006.79
2332.26
1053.25
2089.03
1114.05
1831.21
1194.99
1552.23
1285.44
1265.24
1301.25
998.376
1259.73
817.179
1071.33
730.529
770.79
656.842
500.419
507.196
395.809
287.318
390.835
83.1097
350.007
-34.4484
206.703
-41.3222
-45.0701
43.3855
-338.26
202.598
-551.591
438.272
-474.213
399.081
158.877
239.846
882.55
-102.38
1755.6
-415.552
2581.81
-663.172
2357.6
-829.324
1350.12
-975.783
916.63
-1129.79
863.421
-1299.29
832.482
-1478.49
815.738
-1662.71
802.084
-1849.84
781.957
-2034.72
732.454
-2206.46
633.634
-2352.86
489.416
-2466.4
324.956
-2542.73
159.062
-2579.66
1.25525
-2579.79
-140.716
-2545.21
-270.809
-2475.24
-393.013
-2369.95
-509.371
-2228.28
-628.977
-2047
-761.883
-1821.73
-916.01
-1551.27
-1089.58
-1242.6
-1271.39
-912.955
-1455.85
-580.081
-1678.6
-260.833
-1970.34
-0.978047
-2242.59
122.36
-2414.02
38.3723
-2582.04
-191.515
-3148.46
-424.354
-3888.58
-585.013
-4208.38
-578.749
-4047.13
-229.691
-3500.06
589.807
-2592.92
1672.1
-1410.93
2426.27
-227.511
2603.35
539.181
2501.6
629.103
2274.31
472.179
168.707
1959.51
-1124.96
2132.75
-1054.92
2296.22
-1029.73
2462.28
-1066.11
2645.34
-1183.56
2853.26
-1346.29
3081.23
-1479.61
3317.62
-1541.91
3550.79
-1530.4
3771.66
-1457.88
3973.38
-1335.83
4149.89
-1168.28
4295.45
-955.501
4403.66
-690.957
4466.51
-381.16
4478.66
-67.4791
4439.99
219.822
4365.79
418.435
4276.11
507.539
4184.05
520.063
4095.62
491.732
4013.16
442.778
3937.66
382.542
3869.77
315.233
3810.26
243.597
3760.14
170.62
3720.33
101.609
3690.39
48.4836
3666.32
32.1557
3638.82
76.4387
3593.94
195.729
3517.65
382.65
3402.04
605.354
3247.47
823.072
3060.06
1005.16
2848.69
1133.05
2621.41
1206.48
2382.2
1246
2126.15
1309.3
1857.81
1382.38
1575.65
1477.15
1270.62
1590.47
967.2
1604.67
716.829
1510.1
570.58
1217.58
448.906
892.465
222.495
726.831
-76.9753
695.279
-316.632
630.492
-454.679
488.054
-504.455
256.48
-484.069
-65.4557
-407.203
-415.126
-283.335
-675.459
-154.366
-603.182
-150.705
155.216
-293.709
1025.55
-494.087
1955.97
-616.87
2704.59
-716.96
2457.69
-856.255
1489.41
-1004.93
1065.3
-1154.8
1013.3
-1324.12
1001.8
-1510.85
1002.47
-1710.37
1001.6
-1920.31
991.9
-2135.35
947.496
-2341.83
840.114
-2521.46
669.044
-2660.31
463.806
-2749.13
247.879
-2782.82
34.9511
-2764.43
-159.107
-2698.16
-337.079
-2584.23
-506.945
-2424.13
-669.467
-2220.23
-832.883
-1974.37
-1007.74
-1689.24
-1201.14
-1372.2
-1406.62
-1039.16
-1604.43
-716.444
-1778.56
-424.662
-1970.38
-175.942
-2219.06
-12.5829
-2405.95
13.4967
-2440.1
-122.562
-2445.98
-390.662
-2880.36
-698.276
-3580.97
-987.338
-3919.32
-1234.25
-3800.22
-1363.24
-3371.07
-1270.38
-2685.78
-855.19
-1826.11
-183.386
-899.315
404.063
-48.2679
571.518
461.649
402.313
641.383
369.136
1967.22
-1303.13
2129.22
-1216.92
2280.55
-1181.06
2433.75
-1219.3
2603.92
-1353.73
2800.15
-1542.52
3018.27
-1697.72
3246.63
-1770.28
3473.32
-1757.09
3689.07
-1673.63
3887.01
-1533.77
4061.14
-1342.41
4205.93
-1100.29
4315.49
-800.517
4381.37
-447.036
4396.28
-82.3863
4358
258.093
4282.37
494.071
4190.93
598.981
4097.3
613.685
4007.26
581.777
3922.6
527.434
3843.76
461.39
3771
387.99
3704.98
309.613
3646.86
228.747
3598.06
150.408
3559.28
87.2661
3528.23
63.2028
3497.15
107.517
3452.17
240.714
3377.57
457.249
3263.01
719.916
3106.88
979.195
2914.5
1197.54
2694.88
1352.67
2455.79
1445.56
2198.71
1503.09
1916.12
1591.89
1617.64
1680.86
1305.39
1789.4
972.308
1923.55
665.542
1911.43
440.271
1735.37
273.766
1384.08
38.4377
1127.79
-258.62
1023.89
-505.419
942.078
-672.004
797.078
-771.148
587.198
-813.275
298.608
-805.269
-73.4616
-750.004
-470.391
-659.534
-765.929
-594.239
-668.476
-602.003
162.981
-700.561
1124.11
-769.888
2025.3
-753.592
2688.29
-757.787
2461.88
-879.014
1610.64
-1032.67
1218.96
-1183.98
1164.61
-1355.31
1173.12
-1550.54
1197.71
-1767.42
1218.48
-2003.53
1228.01
-2251.61
1195.57
-2491.83
1080.34
-2695.51
872.72
-2838.59
606.889
-2904.95
314.232
-2888.04
18.049
-2796.12
-251.035
-2639.49
-493.705
-2424.42
-722.018
-2162.09
-931.792
-1866.28
-1128.69
-1550.09
-1323.93
-1225.37
-1525.86
-904.962
-1727.03
-607.193
-1902.2
-361.843
-2023.91
-183.754
-2148.47
-66.454
-2336.36
-35.991
-2436.41
-120.332
-2355.76
-309.601
-2256.71
-603.976
-2585.99
-954.454
-3230.49
-1281.72
-3592.05
-1555.5
-3526.45
-1749.62
-3176.94
-1826.31
-2609.1
-1756.06
-1896.37
-1542.74
-1112.64
-1240.6
-350.407
-1043.17
264.219
-977.96
576.177
395.194
1955.22
-1467.09
2103.09
-1364.8
2239.69
-1317.66
2378.64
-1358.26
2536.14
-1511.23
2722.11
-1728.48
2932.25
-1907.87
3154.43
-1992.46
3376.36
-1979.02
3588.71
-1885.98
3784.67
-1729.72
3958.27
-1516.02
4104.04
-1246.06
4216.42
-912.894
4286.46
-517.078
4305.14
-101.066
4268.18
295.055
4191.79
570.457
4098.98
691.796
4003.82
708.841
3911.82
673.781
3824.34
614.907
3741.47
544.262
3663.32
466.145
3590.56
382.374
3524.52
294.788
3466.97
207.953
3419.28
134.956
3380.4
102.084
3344.13
143.788
3297.41
287.432
3223.76
530.903
3110.81
832.86
2954.81
1135.2
2759.72
1392.64
2534.13
1578.26
2284.83
1694.86
2009.36
1778.56
1696.88
1904.37
1363.95
2013.79
1019.45
2133.9
664.48
2278.52
368.508
2207.41
150.469
1953.41
-70.9632
1605.51
-341.455
1398.29
-590.143
1272.58
-779.976
1131.91
-921.849
938.951
-1020.39
685.74
-1074.88
353.098
-1084.82
-63.5271
-1049.61
-505.592
-975.664
-839.88
-901.078
-743.061
-871.808
133.711
-921.297
1173.6
-922.737
2026.74
-838.08
2603.64
-795.857
2419.66
-903.529
1718.31
-1060.15
1375.58
-1217.01
1321.46
-1393.78
1349.89
-1599.29
1403.23
-1834.82
1454.01
-2097.98
1491.16
-2377.47
1475.06
-2642.6
1345.48
-2847.1
1077.22
-2949.73
709.518
-2926.16
290.666
-2781.6
-126.52
-2547.99
-484.645
-2251.82
-789.872
-1913.12
-1060.72
-1560.62
-1284.28
-1219.33
-1469.99
-905.951
-1637.31
-628.054
-1803.75
-388.89
-1966.19
-198.43
-2092.66
-84.5718
-2137.77
-51.3018
-2181.74
-72.3518
-2315.31
-151.923
-2356.84
-297.825
-2209.85
-488.224
-2066.31
-763.544
-2310.67
-1132.81
-2861.23
-1507.74
-3217.12
-1823.67
-3210.51
-2055.03
-2945.59
-2185.81
-2478.31
-2213.02
-1869.16
-2137.53
-1188.12
-1965.86
-522.079
-1752.74
51.0976
-1548.53
371.97
317.433
1920.82
-1613.76
2052.69
-1496.67
2175.28
-1440.25
2302.25
-1485.23
2449.34
-1658.31
2626.44
-1905.58
2829.22
-2110.65
3045.54
-2208.78
3263.19
-2196.66
3472.89
-2095.68
3667.89
-1924.73
3842.27
-1690.4
3990.55
-1394.34
4107.48
-1029.82
4183.38
-592.98
4207.07
-124.761
4171.91
330.219
4094.68
647.685
4000.22
786.253
3903.24
805.827
3809.02
768
3718.64
705.287
3631.97
630.928
3549.07
549.048
3470.64
460.801
3398.15
367.283
3333.55
272.556
3278.39
190.109
3232.08
148.402
3189.36
186.503
3138.33
338.468
3062.9
606.333
2949.86
945.893
2793.66
1291.4
2596.61
1589.69
2366.25
1808.62
2107.21
1953.9
1811.33
2074.44
1464.73
2250.97
1094
2384.52
719.875
2508.02
354.987
2643.41
75.4116
2486.98
-143.316
2172.14
-377.462
1839.66
-616.838
1637.66
-822.349
1478.09
-992.717
1302.28
-1134.55
1080.78
-1244.75
795.936
-1317.28
425.635
-1346.94
-33.8711
-1330.16
-522.373
-1267.26
-902.778
-1169.22
-841.101
-1072.78
37.2734
-1057.13
1157.95
-1015.83
1985.44
-904.111
2491.92
-843.868
2359.42
-937.767
1812.21
-1092.68
1530.5
-1256.54
1485.32
-1441.64
1534.99
-1658.94
1620.53
-1913.04
1708.11
-2201.31
1779.43
-2505.62
1779.37
-2776.9
1616.76
-2938.9
1239.22
-2924.73
695.343
-2719.31
85.2472
-2391.46
-454.365
-2018.26
-857.846
-1632.34
-1175.79
-1261.23
-1431.83
-935.544
-1609.97
-667.151
-1738.38
-453.337
-1851.12
-282.921
-1974.17
-149.41
-2099.71
-66.7131
-2175.36
-67.1675
-2137.32
-140.978
-2107.93
-251.357
-2204.93
-384.807
-2223.39
-534.126
-2060.54
-685.703
-1914.74
-903.685
-2092.69
-1234.25
-2530.66
-1601.25
-2850.12
-1919.69
-2892.07
-2155.19
-2710.09
-2295.87
-2337.63
-2343.34
-1821.7
-2301.94
-1229.52
-2184.25
-639.766
-2007.28
-125.878
-1830.38
195.07
246.417
1862.96
-1740.95
1982.7
-1616.41
2095.97
-1553.51
2213.37
-1602.63
2350.05
-1794.99
2517.32
-2072.86
2712.11
-2305.43
2922.58
-2419.25
3136.3
-2410.38
3343.8
-2303.19
3538.29
-2119.22
3713.87
-1865.98
3865.23
-1545.69
3987.62
-1152.21
4071.04
-676.391
4101.85
-155.575
4070.13
361.943
3992.71
725.106
3896.7
882.26
3797.89
904.634
3701.67
864.226
3608.91
798.038
3519.33
720.511
3432.8
635.584
3349.9
543.7
3272.13
445.052
3201.69
342.997
3140.36
251.436
3087.58
201.182
3038.25
235.828
2981.03
395.694
2900.83
686.536
2784.93
1061.79
2626.92
1449.4
2427.55
1789.06
2192.53
2043.64
1922.85
2223.57
1602.8
2394.5
1217.58
2636.18
806.651
2795.46
408.669
2906
54.4947
2997.59
-195.546
2737.02
-398.042
2374.64
-614.685
2056.3
-823.547
1846.52
-1011.06
1665.6
-1180.13
1471.35
-1330.98
1231.64
-1457.73
922.683
-1551.6
519.507
-1602.88
17.4117
-1603.98
-521.277
-1551.22
-955.541
-1433
-959.321
-1268.7
-127.022
-1179.44
1068.69
-1101.9
1907.89
-979.266
2369.29
-911.644
2291.8
-989.142
1889.71
-1137.23
1678.58
-1306.97
1655.06
-1501.58
1729.6
-1731.07
1850.03
-2002.14
1979.18
-2310.78
2088.08
-2627.49
2096.07
-2872.48
1861.75
-2922.82
1289.56
-2696.47
468.995
-2274.57
-336.661
-1834.88
-894.054
-1445.69
-1247.04
-1109.34
-1512.14
-839.723
-1701.45
-640.072
-1809.62
-492.708
-1885.75
-375.126
-1968.7
-270.977
-2078.32
-185.811
-2184.87
-158.475
-2202.7
-227.764
-2068.03
-361.014
-1974.68
-513.612
-2052.33
-664.305
-2072.7
-799.372
-1925.47
-921.351
-1792.76
-1095.66
-1918.38
-1369.88
-2256.44
-1688.59
-2531.41
-1977.82
-2602.84
-2205.7
-2482.22
-2358.78
-2184.55
-2433.59
-1746.88
-2431.91
-1231.21
-2365.3
-706.374
-2251.72
-239.46
-2142.56
85.9138
209.224
1787.39
-1864.86
1903.42
-1732.44
2008.75
-1658.85
2114.76
-1708.64
2239.24
-1919.47
2396.45
-2230.07
2584.09
-2493.07
2789.71
-2624.87
3000.2
-2620.88
3205.88
-2508.87
3399.93
-2313.28
3576.54
-2042.58
3730.51
-1699.66
3857.8
-1279.51
3948.67
-767.263
3987.92
-194.816
3961.89
387.965
3886.26
800.741
3790.16
978.364
3690.62
1004.17
3593.3
961.547
3498.97
892.366
3407.12
812.364
3317.39
725.314
3230.19
630.904
3147.04
528.199
3070.59
419.448
3003.27
318.762
2944.82
259.63
2889.82
290.822
2826.41
459.11
2739.97
772.976
2619.01
1182.75
2457.38
1611.04
2254.7
1991.74
2014.24
2284.11
1731.54
2506.27
1382.18
2743.86
953.655
3064.71
498.88
3250.23
93.4894
3311.39
-215.18
3306.26
-423.026
2944.87
-605.253
2556.86
-803.351
2254.4
-996.207
2039.38
-1179.99
1849.38
-1355.31
1646.67
-1519.62
1395.95
-1666.21
1069.27
-1784.12
637.418
-1859.02
92.3145
-1878.63
-501.672
-1836.24
-997.928
-1703.66
-1091.9
-1480
-350.678
-1315.63
904.319
-1205.52
1797.78
-1076.88
2240.65
-1004.05
2218.96
-1063.12
1948.77
-1200.48
1815.94
-1373.27
1827.85
-1576.41
1932.73
-1816.91
2090.53
-2101.71
2263.98
-2422.98
2409.34
-2731.7
2404.79
-2899.44
2029.49
-2749.29
1139.41
-2266.93
-13.3671
-1741.46
-862.129
-1357.11
-1278.4
-1069.25
-1534.91
-859.128
-1722.25
-718.187
-1842.39
-620.942
-1906.87
-539.293
-1967.39
-453.021
-2054.98
-358.688
-2172.65
-282.741
-2260.82
-287.814
-2197.62
-408.342
-1947.5
-582.574
-1800.44
-760.749
-1874.16
-924.946
-1908.5
-1061.65
-1788.77
-1181.81
-1672.6
-1341.49
-1758.69
-1576.34
-2021.59
-1846.84
-2260.91
-2095.78
-2353.91
-2294.2
-2283.79
-2428.16
-2050.59
-2495.91
-1679.13
-2504.74
-1222.38
-2466.85
-744.258
-2397.43
-308.881
-2330.13
18.6102
191.611
1709.21
-1983.69
1816.6
-1839.83
1910.2
-1752.44
2003.86
-1802.31
2117.61
-2033.21
2266.87
-2379.33
2448.85
-2675.05
2650.34
-2826.36
2857.94
-2828.48
3061.97
-2712.9
3255.7
-2507
3433.34
-2220.22
3589.67
-1855.99
3721.16
-1411
3818.43
-864.533
3865.7
-242.09
3846.34
407.33
3774.2
872.88
3679.87
1072.69
3581.19
1102.85
3483.83
1058.91
3388.44
987.752
3294.4
906.409
3201.28
818.433
3109.45
722.733
3020.55
617.101
2937.72
502.277
2864.29
392.189
2800.73
323.19
2741.32
350.239
2672.86
527.569
2580.3
865.53
2453.31
1309.74
2286.74
1777.61
2079.56
2198.91
1831.96
2531.7
1532.4
2805.84
1148.41
3127.85
668.486
3544.63
172.463
3746.25
-202.952
3686.8
-437.801
3541.11
-609.734
3116.8
-778.475
2725.61
-964.85
2440.78
-1151.97
2226.51
-1338.68
2036.09
-1524.09
1832.08
-1705.04
1576.9
-1874.44
1238.67
-2019.15
782.125
-2119.81
192.977
-2159.02
-462.468
-2127.77
-1029.17
-1987.14
-1232.54
-1715.05
-622.768
-1474.48
663.754
-1332.36
1655.66
-1199.13
2107.42
-1121.6
2141.44
-1162.84
1990.02
-1287.59
1940.7
-1459.77
2000.03
-1668.46
2141.43
-1917.07
2339.14
-2210.62
2557.53
-2532.71
2731.42
-2801.54
2673.63
-2821.06
2049.01
-2399.76
718.119
-1763.47
-649.663
-1322.19
-1303.41
-1071.47
-1529.12
-896.982
-1709.39
-790.468
-1828.77
-723.529
-1909.33
-663.391
-1967
-592.137
-2038.65
-501.653
-2145.46
-402.215
-2272.09
-336.034
-2327
-380.816
-2152.84
-555.118
-1773.2
-767.418
-1588.14
-969.81
-1671.77
-1154.82
-1723.49
-1310.83
-1632.76
-1447.02
-1536.4
-1606.95
-1598.76
-1816.34
-1812.2
-2047.68
-2029.57
-2258.77
-2142.82
-2425.09
-2117.47
-2534.41
-1941.27
-2586.62
-1626.92
-2592.13
-1216.87
-2565.29
-771.093
-2521.18
-352.998
-2484.5
-18.0655
191.58
1616.5
-2094.6
1713.39
-1936.71
1796.87
-1835.93
1881.68
-1887.12
1987.44
-2138.97
2129.82
-2521.71
2306.32
-2851.56
2503.96
-3024
2709.23
-3033.75
2912.25
-2915.92
3106.12
-2700.87
3285.04
-2399.15
3443.85
-2014.8
3579.54
-1546.68
3682.91
-967.907
3737.58
-296.761
3724.4
420.513
3655.83
941.455
3563.96
1164.56
3466.96
1199.85
3370.17
1155.69
3274.05
1083.88
3177.96
1002.49
3081.65
914.748
2985.59
818.795
2891.52
711.163
2802.96
590.844
2723.95
471.2
2655.75
391.389
2592.56
413.427
2519.81
600.314
2421.6
963.748
2288.38
1442.95
2116.04
1949.95
1902.93
2412.02
1645.4
2789.24
1324.11
3127.13
900.853
3551.1
359.253
4086.23
-154.213
4259.72
-454.141
3986.73
-617.176
3704.14
-769.441
3269.07
-931.257
2887.42
-1111.72
2621.24
-1298.67
2413.45
-1491.71
2229.13
-1689.8
2030.17
-1889.94
1777.04
-2084.77
1433.5
-2258.73
956.087
-2386.83
321.069
-2446.15
-403.146
-2426.89
-1048.43
-2285.24
-1374.19
-1978.52
-929.484
-1659.51
344.746
-1480.01
1476.15
-1343.28
1970.69
-1262.76
2060.92
-1289.18
2016.43
-1401.12
2052.63
-1568.92
2167.84
-1778.91
2351.42
-2031.2
2591.43
-2326.36
2852.69
-2631.23
3036.3
-2812.61
2855
-2605.01
1841.41
-1934.24
47.3516
-1323.28
-1260.63
-1053.32
-1573.36
-912.882
-1669.56
-821.054
-1801.22
-774.54
-1875.28
-733.221
-1950.65
-675.289
-2024.93
-597.534
-2116.4
-501.306
-2241.69
-404.334
-2369.06
-359.636
-2371.7
-456.04
-2056.44
-687.58
-1541.66
-934.275
-1341.45
-1157.81
-1448.23
-1364.53
-1516.78
-1546.27
-1451.01
-1707.7
-1374.97
-1879
-1427.46
-2077.07
-1614.13
-2282.31
-1824.33
-2464.25
-1960.88
-2603.55
-1978.17
-2690.89
-1853.93
-2728.04
-1589.77
-2727.53
-1217.38
-2705.92
-792.697
-2678.62
-380.299
-2664.19
-32.4951
206.169
1505.53
-2193.35
1593.21
-2024.39
1670.81
-1913.52
1749.32
-1965.63
1847.21
-2236.86
1982.27
-2656.76
2153.85
-3023.14
2349.17
-3219.32
2553.92
-3238.5
2757.4
-3119.39
2952.27
-2895.74
3132.73
-2579.6
3293.79
-2175.86
3433.37
-1686.26
3542.83
-1077.37
3604.94
-358.871
3597.63
427.823
3531.91
1007.18
3442.04
1254.43
3346.66
1295.23
3250.68
1251.67
3154.25
1180.31
3056.77
1099.97
2958.16
1013.36
2859.03
917.926
2761.2
808.989
2668.32
683.729
2584.8
554.718
2512.44
463.748
2445.46
480.408
2368.25
677.522
2264.35
1067.65
2124.81
1582.5
1945.96
2128.79
1724.93
2633.05
1453.55
3060.62
1105.61
3475.07
635.298
4021.41
38.2225
4683.31
-448.054
4746
-653.608
4192.29
-768.871
3819.4
-913.487
3413.68
-1072.3
3046.24
-1250.49
2799.43
-1440.27
2603.23
-1641.84
2430.71
-1854.63
2242.96
-2075.83
1998.24
-2297.46
1655.13
-2500.93
1159.56
-2654.95
475.084
-2731.6
-326.495
-2723.4
-1056.62
-2588.77
-1508.83
-2268.99
-1249.27
-1876.93
-47.3102
-1644.76
1243.98
-1505.03
1830.96
-1425.13
1981.02
-1440.65
2031.96
-1540.32
2152.3
-1700.52
2328.04
-1907.21
2558.11
-2157.65
2841.86
-2444.02
3139.06
-2703.1
3295.39
-2729.67
2881.57
-2226.44
1338.17
-1427.39
-751.696
-959.514
-1728.5
-817.608
-1715.27
-764.84
-1722.33
-754.364
-1811.7
-748.258
-1881.39
-714.392
-1984.51
-652.551
-2086.78
-573.759
-2195.2
-483.511
-2331.94
-401.026
-2451.55
-387.98
-2384.74
-542.253
-1902.16
-825.759
-1258.15
-1096.29
-1070.91
-1333.34
-1211.18
-1557.72
-1292.4
-1765.3
-1243.43
-1955.02
-1185.25
-2143.51
-1238.98
-2339.27
-1418.37
-2527.14
-1636.45
-2684.99
-1803.04
-2798.9
-1864.26
-2864.25
-1788.59
-2886.3
-1567.71
-2879.79
-1223.89
-2862.35
-810.136
-2848.32
-394.332
-2850.7
-30.1168
231.9
1372.96
-2275.59
1457.72
-2109.14
1532.35
-1988.15
1603.62
-2036.91
1692.33
-2325.56
1820.52
-2784.96
1989.47
-3192.09
2185.49
-3415.34
2392.5
-3445.51
2598.53
-3325.42
2795.73
-3092.95
2978.31
-2762.18
3141.44
-2338.99
3284.07
-1828.89
3398.77
-1192.07
3468.07
-428.172
3466.86
429.034
3403.8
1070.23
3315.61
1342.62
3221.78
1389.06
3126.88
1346.57
3030.76
1276.43
2932.77
1197.96
2832.84
1113.29
2731.69
1019.08
2631.22
909.453
2535.21
779.738
2448.2
641.727
2372.21
539.738
2301.35
551.27
2219.24
759.635
2109.38
1177.52
1963.25
1728.62
1776.83
2315.21
1545.13
2864.75
1255.4
3350.35
877.207
3853.27
352.749
4545.87
-273.006
5309.06
-690.986
5163.98
-814.601
4315.9
-906.43
3911.23
-1048.62
3555.87
-1206.56
3204.18
-1384.71
2977.58
-1579.21
2797.73
-1791.03
2642.53
-2020.05
2471.99
-2263.04
2241.23
-2509.95
1902.04
-2737.18
1386.79
-2906.31
644.218
-2987.87
-244.939
-2983.56
-1060.93
-2863.83
-1628.55
-2559.08
-1554.02
-2120.45
-485.943
-1824.24
947.779
-1679.24
1685.95
-1604.31
1906.1
-1613.04
2040.68
-1701.25
2240.51
-1851.61
2478.4
-2050.93
2757.44
-2292.91
3083.83
-2554.35
3400.5
-2722.81
3463.85
-2508.74
2667.49
-1678.81
508.246
-862.077
-1568.43
-527.839
-2062.74
-456.838
-1786.27
-524.595
-1654.57
-638.978
-1697.31
-687.214
-1833.15
-664.486
-2007.24
-604.936
-2146.33
-537.126
-2263.01
-465.848
-2403.21
-407.593
-2509.8
-432.171
-2360.16
-643.083
-1691.25
-963.981
-937.252
-1243.52
-791.376
-1487.69
-967.015
-1728.71
-1051.38
-1962.04
-1010.09
-2179.09
-968.197
-2385.1
-1032.97
-2582.01
-1221.46
-2756.95
-1461.52
-2893.63
-1666.36
-2983.53
-1774.36
-3027.23
-1744.88
-3033.95
-1560.99
-3020.51
-1237.33
-3005.12
-825.531
-3000.72
-398.729
-3015.51
-15.3319
265.678
1221.49
-2375.06
1309.85
-2197.5
1378.15
-2056.45
1439.17
-2097.92
1518.08
-2404.48
1641.32
-2908.2
1811.29
-3362.06
2011.92
-3615.96
2224.3
-3657.88
2435.11
-3536.24
2636.24
-3294.08
2822.1
-2948.04
2987.97
-2504.85
3133.5
-1974.43
3252.49
-1311.05
3327.87
-503.553
3332.59
424.317
3272.54
1130.29
3186.55
1428.61
3094.82
1480.79
3001.6
1439.79
2906.42
1371.61
2808.46
1295.91
2707.61
1214.14
2604.66
1122.04
2501.78
1012.34
2403.05
878.469
2313.15
731.626
2234.15
618.731
2159.84
625.589
2072.96
846.511
1957.18
1293.3
1804.15
1881.64
1608.69
2510.68
1362.77
3110.67
1049.83
3663.3
637.303
4265.79
64.2694
5118.9
-551.256
5924.59
-883.541
5496.26
-953.776
4386.14
-1037.63
3995.09
-1178.46
3696.7
-1336.79
3362.51
-1516.53
3157.31
-1717.26
2998.46
-1940.77
2866.04
-2186.88
2718.09
-2450.21
2504.55
-2715.13
2166.96
-2948.16
1619.82
-3102.52
798.581
-3158
-189.458
-3139.94
-1079
-3042.27
-1726.22
-2792.24
-1804.05
-2367.05
-911.128
-2018.26
598.988
-1860.15
1527.85
-1793.07
1839.02
-1799.56
2047.16
-1877.69
2318.64
-2017.14
2617.85
-2205.59
2945.88
-2430.1
3308.35
-2640
3610.41
-2648.09
3471.93
-2077.48
2096.88
-972.232
-596.999
-224.258
-2316.4
37.063
-2324.06
79.2302
-1828.44
-124.401
-1450.94
-420.79
-1400.92
-575.522
-1678.42
-584.262
-1998.5
-536.616
-2193.97
-490.356
-2309.27
-447.226
-2446.34
-419.018
-2538.01
-483.596
-2295.59
-744.939
-1429.91
-1084.97
-597.217
-1361.47
-514.878
-1612.2
-716.284
-1872.56
-791.029
-2131
-751.652
-2371.51
-727.682
-2592.36
-812.122
-2790.87
-1022.96
-2954.61
-1297.77
-3071.48
-1549.49
-3138
-1707.83
-3159.99
-1722.9
-3150.64
-1570.34
-3129.01
-1258.97
-3113.85
-840.684
-3116.62
-395.964
-3140.87
8.92311
305.271
1065.19
-2474.01
1144.42
-2276.74
1201.57
-2113.6
1250.63
-2146.99
1320.12
-2473.97
1442.23
-3030.31
1618.74
-3538.58
1828.19
-3825.4
2048.29
-3877.98
2265.28
-3753.24
2471.56
-3500.36
2662.04
-3138.52
2832.05
-2674.86
2981.68
-2124.06
3105.33
-1434.7
3185.83
-584.056
3195.61
414.542
3138.53
1187.37
3055.52
1511.61
2966.85
1569.47
2876.03
1530.6
2782.19
1465.45
2684.36
1393.74
2582.43
1316.07
2477.29
1227.18
2371.57
1118.06
2269.96
980.082
2177.44
824.146
2096.2
699.975
2019.5
702.282
1928.87
937.146
1807.81
1414.36
1647.68
2041.77
1441.1
2717.25
1175.9
3375.87
834.363
4004.83
382.302
4717.85
-218.323
5719.53
-785.599
6491.86
-1038.51
5749.17
-1082.83
4430.46
-1165.9
4078.16
-1305.02
3835.81
-1464.71
3522.21
-1647.48
3340.08
-1855.85
3206.83
-2092.24
3102.43
-2355.08
2980.94
-2633.4
2782.87
-2899.03
2432.58
-3099.79
1820.59
-3181.47
880.255
-3159.83
-211.092
-3106.98
-1131.85
-3042.73
-1790.48
-2895.89
-1950.89
-2575.3
-1231.72
-2223.41
247.108
-2042.94
1347.37
-1982.43
1778.51
-1991.69
2056.42
-2062.17
2389.12
-2190.48
2746.16
-2364.1
3119.5
-2556.94
3501.18
-2671.15
3724.62
-2410.63
3211.41
-1339.59
1025.84
-162.695
-1773.89
363.08
-2842.18
558.425
-2519.41
588.994
-1859.01
366.124
-1228.07
-67.6229
-967.176
-393.128
-1352.92
-473.532
-1918.1
-448.481
-2219.02
-430.161
-2327.59
-420.381
-2456.12
-426.164
-2532.23
-532.233
-2189.52
-836.871
-1125.27
-1179.73
-254.362
-1447.86
-246.741
-1707.93
-456.213
-1987.87
-511.094
-2266.4
-473.123
-2523.76
-470.322
-2755.38
-580.503
-2954.2
-824.138
-3106.21
-1145.76
-3202.45
-1453.25
-3244.56
-1665.73
-3243.67
-1723.79
-3217.03
-1596.98
-3186
-1289.99
-3169.87
-856.814
-3178.31
-387.53
-3210.28
40.8982
349.073
888.492
-2566.06
955.953
-2344.2
999.519
-2157.16
1034.03
-2181.49
1097.27
-2537.21
1226.79
-3159.83
1416.36
-3728.15
1636.27
-4045.32
1863.33
-4105.04
2085.93
-3975.83
2297.9
-3712.32
2494.45
-3335.07
2670.53
-2850.94
2826.33
-2279.85
2956.48
-1564.86
3042.46
-670.035
3056.63
400.373
3001.78
1242.22
2921.89
1591.5
2836.88
1654.48
2748.98
1618.5
2656.72
1557.72
2559.04
1491.42
2455.87
1419.24
2348.26
1334.78
2239.35
1226.97
2134.59
1084.84
2039.51
919.227
1956.74
782.747
1879.12
779.906
1786.31
1029.95
1661.13
1539.55
1493.45
2209.45
1271.72
2938.98
979.8
3667.79
604.398
4380.24
118.173
5204.07
-478.389
6316.09
-976.483
6989.96
-1169.75
5942.44
-1207.56
4468.26
-1292.43
4163.03
-1429.53
3972.91
-1591.51
3684.2
-1778.83
3527.39
-1996.23
3424.24
-2246.21
3352.41
-2523.43
3258.16
-2805.02
3064.46
-3038.65
2666.21
-3143.5
1925.44
-3074.81