/*--------------------------------*- C++ -*----------------------------------*\
| =========                 |                                                 |
| \\      /  F ield         | OpenFOAM: The Open Source CFD Toolbox           |
|  \\    /   O peration     | Version:  4.1                                   |
|   \\  /    A nd           | Web:      www.OpenFOAM.org                      |
|    \\/     M anipulation  |                                                 |
\*---------------------------------------------------------------------------*/
FoamFile
{
    version     2.0;
    format      ascii;
    class       volVectorField;
    location    "1200";
    object      U;
}
// * * * * * * * * * * * * * * * * * * * * * * * * * * * * * * * * * * * * * //

dimensions      [0 1 -1 0 0 0 0];

internalField   nonuniform List<vector> 
26785
(
(-6.06577e-15 -0.0414926 14.1746)
(-6.02228e-15 -0.0347695 14.991)
(-5.82045e-15 -0.0329462 15.6936)
(-6.07988e-15 -0.0346255 16.3633)
(-6.04537e-15 -0.0409842 17.1015)
(-6.26089e-15 -0.0502359 17.9844)
(-5.87509e-15 -0.0582043 19.0175)
(-5.11887e-15 -0.0623323 20.1324)
(-5.34965e-15 -0.0620796 21.2381)
(-4.24457e-15 -0.0578096 22.2592)
(-3.62607e-15 -0.0499307 23.139)
(-3.23725e-15 -0.0385655 23.8324)
(-2.923e-15 -0.0236336 24.301)
(-2.57805e-15 -0.00462736 24.4992)
(-2.19172e-15 0.0165086 24.3895)
(-1.82768e-15 0.0353873 23.9863)
(-1.53418e-15 0.0500992 23.3463)
(-1.15089e-15 0.058966 22.5502)
(-1.37624e-15 0.0615649 21.6916)
(1.84063e-15 0.0595247 20.8496)
(2.26802e-15 0.0546859 20.07)
(1.72659e-15 0.0483184 19.3743)
(3.37024e-15 0.0412959 18.7709)
(3.76035e-15 0.034292 18.2609)
(5.74451e-15 0.0278479 17.8395)
(5.87011e-15 0.0224138 17.4973)
(5.60252e-15 0.0185178 17.2207)
(5.33486e-15 0.0170036 16.9899)
(6.29473e-15 0.0189617 16.7761)
(7.61448e-15 0.0251644 16.5395)
(8.87692e-15 0.0354697 16.2345)
(7.6066e-15 0.0486852 15.8219)
(8.26295e-15 0.0627408 15.2787)
(7.2826e-15 0.0752767 14.6069)
(7.60192e-15 0.0844585 13.8323)
(7.08593e-15 0.0892852 12.9967)
(6.53447e-15 0.0903545 12.1439)
(6.03053e-15 0.0899628 11.3057)
(5.70776e-15 0.0916966 10.4804)
(4.78405e-15 0.0946365 9.63929)
(6.29552e-15 0.0980652 8.77528)
(5.43493e-15 0.101311 7.89116)
(6.84598e-15 0.0988657 7.00658)
(3.90794e-15 0.0937988 6.16826)
(3.61353e-15 0.0868408 5.39557)
(-7.91922e-15 0.0780994 4.69278)
(-1.96731e-14 0.0655353 4.09544)
(-2.45972e-14 0.0495873 3.65771)
(-1.92753e-14 0.028264 3.39081)
(-1.17498e-14 0.00227919 3.29253)
(5.33829e-15 -0.0127448 3.32849)
(2.03909e-14 -0.0281035 3.42087)
(3.09667e-14 -0.0593291 3.59831)
(3.19723e-14 -0.0787115 3.90824)
(2.87285e-14 -0.0561759 4.22606)
(2.80122e-14 -0.00288146 4.33681)
(2.67268e-14 0.0654498 4.05501)
(2.57067e-14 0.150088 3.24433)
(2.31561e-14 0.237974 1.96342)
(-1.43819e-14 0.212775 -0.382686)
(-1.55304e-14 0.145251 -1.46822)
(-1.31725e-14 0.0814417 -2.07385)
(-1.03846e-14 0.0623507 -2.54596)
(-5.51651e-15 0.0522394 -2.91669)
(6.27461e-16 0.0468013 -3.25088)
(1.76519e-15 0.0429722 -3.55087)
(1.34774e-15 0.0387621 -3.83084)
(-1.70297e-15 0.0326248 -4.07715)
(-6.4688e-15 0.0237415 -4.27401)
(-1.18897e-14 0.0126668 -4.40525)
(-1.70249e-14 0.000858394 -4.46377)
(-2.06325e-14 -0.0104413 -4.45156)
(-2.56606e-14 -0.0204217 -4.37422)
(-2.93241e-14 -0.0285438 -4.23777)
(-3.21368e-14 -0.0349751 -4.04846)
(-3.34571e-14 -0.0407925 -3.81725)
(-3.39248e-14 -0.0472437 -3.55993)
(-3.1639e-14 -0.0538949 -3.28923)
(-3.18224e-14 -0.0586179 -3.00242)
(-3.49969e-14 -0.0609917 -2.67521)
(-3.89007e-14 -0.0658828 -2.27577)
(-3.34484e-14 -0.0823766 -1.79119)
(-2.10291e-14 -0.120047 -1.23089)
(-1.85117e-14 -0.181751 -0.575495)
(-2.2242e-14 -0.263294 0.460365)
(-2.37761e-14 -0.344668 1.90932)
(-2.22418e-14 -0.447235 3.78367)
(-2.05844e-14 -0.555374 6.20316)
(-1.91974e-14 -0.612607 9.10211)
(-1.54521e-14 -0.563523 12.1146)
(-1.05534e-14 -0.417124 14.6781)
(-5.47918e-15 -0.239131 16.362)
(-1.29227e-15 -0.0912329 17.0849)
(1.40835e-15 -0.00620118 17.0716)
(2.61638e-15 0.0139894 16.701)
(3.04329e-15 -0.00627855 16.3191)
(2.77431e-15 -0.0374065 16.1025)
(1.90713e-15 -0.0550956 16.118)
(8.87086e-16 -0.0580277 16.2472)
(-4.78406e-16 -0.0331741 16.5473)
(-4.27019e-15 -0.113284 14.4756)
(-4.59908e-15 -0.0982722 15.3352)
(-4.35365e-15 -0.0952378 16.0784)
(-4.10122e-15 -0.10187 16.7847)
(-2.85044e-15 -0.12198 17.5561)
(-3.01026e-15 -0.149987 18.4663)
(-2.46811e-15 -0.173167 19.5139)
(-2.33539e-15 -0.183941 20.6241)
(-1.76464e-15 -0.181119 21.7042)
(-1.5377e-15 -0.166335 22.6816)
(-1.46732e-15 -0.141261 23.5056)
(-1.43428e-15 -0.10656 24.1386)
(-1.30928e-15 -0.0621932 24.5497)
(-1.55625e-15 -0.00679183 24.702)
(4.22329e-16 0.0546526 24.5655)
(6.77131e-16 0.110529 24.1481)
(-1.41718e-15 0.155306 23.4865)
(-1.31216e-15 0.182948 22.6597)
(-6.33177e-16 0.191953 21.7634)
(-2.95261e-15 0.187426 20.8764)
(-6.11226e-16 0.175 20.0422)
(-2.14395e-15 0.158273 19.2794)
(-6.97962e-16 0.139387 18.5953)
(-4.12408e-17 0.119795 17.9926)
(-1.5542e-16 0.100691 17.4714)
(9.04239e-16 0.0832896 17.0286)
(1.16862e-15 0.0691496 16.6579)
(1.64466e-15 0.0606329 16.3464)
(1.41364e-15 0.0609744 16.0728)
(2.16279e-15 0.0732189 15.8042)
(1.82984e-15 0.0985042 15.4986)
(2.43136e-15 0.134397 15.1116)
(2.88696e-15 0.174909 14.6113)
(3.17341e-15 0.212637 13.9896)
(3.75987e-15 0.24165 13.2632)
(4.20353e-15 0.258413 12.4668)
(4.23763e-15 0.26391 11.6407)
(4.13937e-15 0.264201 10.8196)
(3.99434e-15 0.270329 10.0101)
(3.99864e-15 0.280423 9.18656)
(3.40553e-15 0.292766 8.33819)
(5.04163e-15 0.304439 7.46223)
(5.08696e-15 0.297796 6.57939)
(1.08047e-14 0.283642 5.73616)
(1.11694e-14 0.263711 4.94774)
(5.03049e-15 0.233775 4.24205)
(-1.3856e-14 0.185908 3.69197)
(-2.02523e-14 0.127659 3.36655)
(-2.95061e-14 0.0714373 3.21913)
(-8.91292e-15 0.0231955 3.10486)
(1.37651e-15 -0.0186219 2.94864)
(8.28417e-15 -0.0564084 2.96108)
(1.80901e-14 -0.100662 3.14716)
(1.69137e-14 -0.127431 3.36398)
(2.22233e-14 -0.0787169 3.5613)
(2.76615e-14 0.0364056 3.62828)
(2.75041e-14 0.217062 3.3433)
(2.31705e-14 0.458375 2.56019)
(2.44588e-14 0.716783 1.50974)
(-1.10442e-14 0.63661 -0.662912)
(-1.76961e-14 0.398428 -1.55125)
(-1.30601e-14 0.232322 -2.0475)
(-5.80497e-15 0.187131 -2.49129)
(-2.65206e-15 0.159326 -2.85715)
(-4.09179e-15 0.144852 -3.19468)
(-6.44308e-15 0.135319 -3.50138)
(-1.21473e-14 0.124897 -3.79191)
(-1.97408e-14 0.108491 -4.05267)
(-2.67825e-14 0.0831434 -4.26648)
(-3.17168e-14 0.0500144 -4.41545)
(-3.77278e-14 0.0133847 -4.49159)
(-3.9841e-14 -0.0225463 -4.49721)
(-3.87512e-14 -0.0546256 -4.43907)
(-3.83763e-14 -0.0809719 -4.32403)
(-3.84729e-14 -0.101885 -4.15685)
(-3.9317e-14 -0.120089 -3.94625)
(-3.54784e-14 -0.139312 -3.70644)
(-3.33683e-14 -0.159841 -3.44873)
(-2.995e-14 -0.177231 -3.17092)
(-2.42925e-14 -0.189124 -2.85245)
(-2.41086e-14 -0.204111 -2.4674)
(-2.27104e-14 -0.241741 -2.00871)
(-1.5678e-14 -0.322255 -1.49857)
(-1.09418e-14 -0.453635 -0.959067)
(-1.48048e-14 -0.63736 -0.345344)
(-1.62583e-14 -0.867648 0.529503)
(-1.73854e-14 -1.16704 1.69853)
(-1.87748e-14 -1.50185 3.21015)
(-2.13901e-14 -1.75015 5.21616)
(-2.44231e-14 -1.71464 7.75954)
(-2.45489e-14 -1.33721 10.4946)
(-2.14295e-14 -0.768292 12.8176)
(-1.5994e-14 -0.220949 14.2271)
(-8.85972e-15 0.14678 14.5962)
(-3.55641e-15 0.285028 14.2148)
(-2.56969e-16 0.24558 13.5344)
(2.00033e-15 0.113598 12.8764)
(2.68956e-15 -0.0202572 12.4343)
(2.87948e-15 -0.129337 12.2203)
(2.59468e-15 -0.123488 12.2775)
(-2.66391e-15 -0.194282 14.6905)
(-1.25753e-15 -0.171762 15.5922)
(-9.2632e-16 -0.16519 16.3655)
(-8.12115e-16 -0.174915 17.0896)
(3.13146e-16 -0.207163 17.8671)
(2.49362e-16 -0.251999 18.7708)
(4.05814e-16 -0.288032 19.7961)
(3.32905e-16 -0.302964 20.8668)
(2.24214e-16 -0.295428 21.8927)
(3.89508e-17 -0.268717 22.8066)
(-2.43207e-16 -0.225961 23.5647)
(-5.67733e-16 -0.168402 24.136)
(-8.89214e-16 -0.0960428 24.4962)
(-1.12599e-15 -0.00660463 24.6149)
(-2.16139e-15 0.0930274 24.4673)
(7.54891e-16 0.185629 24.0543)
(-1.74635e-15 0.261783 23.3936)
(1.22241e-15 0.30962 22.5591)
(-6.36399e-16 0.326199 21.6475)
(-1.95554e-16 0.320406 20.7394)
(3.10033e-16 0.301929 19.8783)
(-2.95161e-15 0.276723 19.0823)
(-4.3203e-15 0.24799 18.3584)
(-2.59906e-15 0.217629 17.7098)
(-2.455e-15 0.187164 17.1376)
(-1.01304e-15 0.158231 16.6405)
(4.14178e-16 0.133208 16.2143)
(3.24465e-17 0.115968 15.85)
(-1.28089e-17 0.111835 15.5283)
(1.03067e-16 0.126174 15.2169)
(5.59405e-16 0.161846 14.8744)
(-8.25007e-18 0.21607 14.4601)
(8.85952e-16 0.279735 13.9445)
(1.82635e-15 0.34091 13.3195)
(2.0436e-15 0.38976 12.5986)
(2.45822e-15 0.419858 11.8101)
(2.75748e-15 0.43145 10.9884)
(2.88086e-15 0.43285 10.1671)
(2.77196e-15 0.442403 9.35851)
(3.0463e-15 0.458598 8.54076)
(2.58856e-15 0.480569 7.69986)
(2.22651e-15 0.502197 6.82781)
(2.61191e-15 0.49314 5.94178)
(8.06593e-15 0.47322 5.07835)
(1.1012e-14 0.438897 4.26278)
(7.1252e-15 0.376378 3.5861)
(-4.50399e-15 0.276009 3.15282)
(-8.80251e-15 0.16545 2.96998)
(-3.87589e-15 0.0860002 2.88505)
(9.39972e-15 0.0560936 2.77285)
(1.88809e-14 0.0200456 2.54253)
(2.2517e-14 -0.0477304 2.43718)
(3.27981e-14 -0.114614 2.40763)
(3.6211e-14 -0.152136 2.49991)
(3.29389e-14 -0.0947336 2.67058)
(2.30131e-14 0.0929955 2.85995)
(1.84258e-14 0.375193 2.53973)
(2.14228e-14 0.696472 1.75689)
(2.61053e-14 1.12039 0.958218)
(-8.008e-15 1.03589 -0.957478)
(-1.40145e-14 0.599155 -1.66345)
(-3.35467e-15 0.359375 -2.0542)
(5.54358e-16 0.30537 -2.45353)
(1.75989e-15 0.265783 -2.81876)
(-3.42717e-16 0.24374 -3.17246)
(-4.40501e-15 0.228737 -3.50198)
(-1.43862e-14 0.212318 -3.82036)
(-2.3777e-14 0.185533 -4.11435)
(-2.98983e-14 0.143129 -4.36474)
(-3.31415e-14 0.0875197 -4.55086)
(-3.3521e-14 0.0268434 -4.66355)
(-3.21366e-14 -0.0315406 -4.70495)
(-3.11226e-14 -0.0831184 -4.68138)
(-3.05238e-14 -0.126282 -4.60113)
(-2.87258e-14 -0.161944 -4.46839)
(-2.65955e-14 -0.192905 -4.28752)
(-2.4763e-14 -0.223885 -4.06953)
(-2.24293e-14 -0.257151 -3.82227)
(-2.0064e-14 -0.289406 -3.54294)
(-1.68418e-14 -0.317584 -3.21465)
(-1.33393e-14 -0.347164 -2.81677)
(-1.14694e-14 -0.394502 -2.34477)
(-1.41539e-14 -0.481154 -1.82112)
(-1.30842e-14 -0.629083 -1.27827)
(-1.06259e-14 -0.844041 -0.728116)
(-6.91576e-15 -1.10696 -0.155424)
(-2.88537e-15 -1.45006 0.405683)
(-6.05172e-15 -1.9116 0.902737)
(-1.03898e-14 -2.44016 1.50169)
(-1.6077e-14 -2.71959 2.6549)
(-2.08259e-14 -2.48698 4.548)
(-2.37275e-14 -1.77682 6.949)
(-2.25808e-14 -0.83656 9.30276)
(-1.82186e-14 -0.0175072 10.8682)
(-1.23249e-14 0.42535 11.272)
(-7.60063e-15 0.508689 10.9291)
(-4.18936e-15 0.378446 10.3122)
(-2.43496e-15 0.177205 9.67443)
(-7.55695e-16 -0.0257859 9.18126)
(-1.392e-16 -0.101763 8.77772)
(-9.12316e-16 -0.277086 14.8491)
(3.42738e-16 -0.245246 15.7788)
(1.01881e-15 -0.233443 16.5592)
(1.92168e-15 -0.245396 17.2718)
(1.85669e-15 -0.289132 18.024)
(2.12995e-15 -0.350016 18.8924)
(1.74628e-15 -0.397963 19.8733)
(1.6214e-15 -0.416158 20.8909)
(1.39872e-15 -0.403334 21.8573)
(9.85572e-16 -0.364644 22.7097)
(6.76193e-16 -0.304775 23.4088)
(2.72131e-17 -0.225579 23.9283)
(-7.51209e-18 -0.127174 24.2481)
(-2.3745e-15 -0.00640793 24.3427)
(-3.14777e-15 0.128896 24.192)
(-3.26981e-15 0.25722 23.7921)
(-2.79052e-15 0.365403 23.1433)
(-5.42198e-15 0.434496 22.3155)
(-3.30246e-15 0.459536 21.4069)
(-3.64453e-15 0.4532 20.4998)
(-3.07791e-15 0.429325 19.6378)
(-4.54776e-15 0.396275 18.8378)
(-4.8975e-15 0.358347 18.1064)
(-4.92536e-15 0.317909 17.4459)
(-4.94923e-15 0.276822 16.8576)
(-4.93028e-15 0.237164 16.3408)
(-4.78666e-15 0.201947 15.8923)
(-4.55634e-15 0.176558 15.5048)
(-4.30126e-15 0.168924 15.1606)
(-3.81722e-15 0.186844 14.825)
(-3.94172e-15 0.234051 14.453)
(-3.78515e-15 0.306497 14.0026)
(-3.26e-15 0.391735 13.4469)
(-2.31292e-15 0.473901 12.7832)
(-7.49316e-16 0.540294 12.0292)
(-1.26427e-16 0.582397 11.2136)
(5.726e-16 0.59974 10.3672)
(7.32206e-16 0.601958 9.52018)
(2.53869e-15 0.614101 8.68498)
(1.62662e-15 0.635111 7.84266)
(5.99718e-16 0.666423 6.98301)
(2.76898e-15 0.698797 6.09759)
(3.94048e-15 0.690233 5.18871)
(4.13111e-15 0.667194 4.28374)
(6.22008e-15 0.60712 3.45939)
(2.6732e-15 0.488787 2.88804)
(9.18884e-15 0.323612 2.63178)
(2.54355e-14 0.180706 2.53043)
(2.58613e-14 0.110932 2.33268)
(1.38439e-14 0.102973 2.06551)
(1.88675e-14 0.0818969 1.89924)
(1.2828e-14 0.0118865 1.66574)
(4.17355e-14 -0.114745 1.34584)
(3.59475e-14 -0.209562 1.45141)
(2.73465e-14 -0.142162 1.67728)
(2.98565e-14 0.0791238 2.00412)
(1.26361e-14 0.437746 1.98043)
(2.6933e-14 0.874094 1.14002)
(2.95563e-14 1.46998 0.277814)
(-7.66109e-15 1.37059 -1.22185)
(-4.14775e-15 0.752812 -1.76664)
(1.2666e-14 0.466093 -2.10743)
(1.23592e-14 0.416635 -2.45984)
(1.09718e-14 0.376202 -2.82028)
(3.74376e-15 0.351574 -3.1911)
(-8.88889e-15 0.333681 -3.54744)
(-2.28219e-14 0.313519 -3.89767)
(-3.01882e-14 0.278561 -4.22971)
(-3.61558e-14 0.220698 -4.5244)
(-3.80853e-14 0.143406 -4.75971)
(-3.69566e-14 0.0588417 -4.92487)
(-3.56251e-14 -0.022947 -5.01894)
(-3.20153e-14 -0.0963079 -5.04289)
(-2.96994e-14 -0.159095 -5.00169)
(-2.44168e-14 -0.213255 -4.90225)
(-2.09652e-14 -0.261123 -4.74575)
(-1.99862e-14 -0.306705 -4.53983)
(-1.70868e-14 -0.354528 -4.28898)
(-1.5654e-14 -0.40533 -3.98854)
(-1.22346e-14 -0.459024 -3.62334)
(-9.79024e-15 -0.517986 -3.17664)
(-6.37755e-15 -0.58893 -2.64665)
(-5.24028e-15 -0.684736 -2.05577)
(-1.04683e-14 -0.830963 -1.43637)
(-9.06019e-15 -1.04401 -0.807532)
(-6.26896e-15 -1.28695 -0.199249)
(-2.33794e-15 -1.54712 0.273797)
(-3.28542e-15 -1.90881 0.42831)
(-4.51148e-15 -2.50012 0.219583)
(-7.47694e-15 -3.04335 0.0939141)
(-1.12462e-14 -3.15769 0.460261)
(-1.47098e-14 -2.75659 1.42929)
(-1.70133e-14 -1.8608 3.20587)
(-1.86782e-14 -0.716139 5.50824)
(-1.6385e-14 0.205983 7.29547)
(-1.27055e-14 0.584453 7.84175)
(-9.22566e-15 0.577588 7.66394)
(-7.42868e-15 0.396833 7.19476)
(-5.60448e-15 0.175456 6.75997)
(-5.60823e-15 0.00496861 6.15382)
(4.13702e-16 -0.360139 15.0196)
(1.55484e-15 -0.318885 15.9613)
(1.84122e-15 -0.301049 16.7153)
(2.26765e-15 -0.314242 17.3819)
(2.29242e-15 -0.368694 18.0803)
(1.8e-15 -0.445067 18.8928)
(1.95029e-15 -0.504415 19.817)
(1.74703e-15 -0.525414 20.7772)
(1.19286e-15 -0.50704 21.6872)
(7.66734e-16 -0.456443 22.4865)
(1.09983e-15 -0.379944 23.1385)
(-7.03929e-16 -0.280013 23.619)
(-8.01475e-16 -0.156966 23.9101)
(-2.91626e-15 -0.0069221 23.9888)
(-4.60362e-15 0.162019 23.8379)
(-2.20507e-15 0.325019 23.4488)
(-2.48181e-15 0.465375 22.8075)
(-3.43844e-15 0.555982 21.9831)
(-3.90832e-15 0.589528 21.0782)
(-4.13969e-15 0.582767 20.177)
(-3.66649e-15 0.553881 19.3216)
(-5.10542e-15 0.513659 18.5271)
(-5.23129e-15 0.467419 17.7976)
(-4.92242e-15 0.417882 17.1344)
(-4.38581e-15 0.367096 16.5378)
(-4.38677e-15 0.317354 16.0076)
(-2.01953e-15 0.272206 15.5427)
(-2.97346e-15 0.238458 15.1386)
(-3.1178e-15 0.226946 14.7804)
(-3.35719e-15 0.248657 14.4356)
(-3.32491e-15 0.308737 14.0572)
(-3.19998e-15 0.401535 13.5965)
(-2.88417e-15 0.510193 13.0213)
(-3.45179e-15 0.614124 12.3289)
(-2.34049e-15 0.697822 11.5408)
(-1.58169e-15 0.751365 10.6894)
(-8.58746e-16 0.774285 9.8062)
(-4.75672e-16 0.777629 8.91892)
(6.44525e-16 0.792657 8.0359)
(1.31244e-15 0.817135 7.13974)
(3.61257e-16 0.856009 6.23336)
(1.81113e-15 0.899457 5.31127)
(1.05892e-15 0.893819 4.35)
(2.55358e-15 0.861721 3.40054)
(2.70211e-15 0.7513 2.63373)
(4.15759e-15 0.560117 2.23571)
(1.93719e-14 0.353619 2.05841)
(3.14023e-14 0.236929 1.74369)
(2.11311e-14 0.215304 1.16301)
(4.79201e-15 0.205322 0.462243)
(1.99295e-14 0.126896 0.00968526)
(1.31107e-14 -0.0268929 -0.150115)
(2.22287e-14 -0.210254 -0.157137)
(2.1105e-14 -0.338335 0.17972)
(2.1475e-14 -0.26504 0.499566)
(3.23292e-14 0.105451 1.59291)
(1.65122e-14 0.548203 1.32525)
(3.36463e-14 1.12879 0.159248)
(2.17573e-14 1.75132 -0.585494)
(-8.1299e-15 1.59803 -1.46657)
(2.85901e-15 0.874839 -1.84172)
(2.17036e-14 0.562566 -2.18577)
(1.64936e-14 0.519549 -2.50422)
(1.00808e-14 0.486744 -2.85418)
(-3.33505e-15 0.464687 -3.23609)
(-1.74282e-14 0.446241 -3.61823)
(-2.71041e-14 0.423862 -4.00394)
(-3.56688e-14 0.382507 -4.38293)
(-3.82213e-14 0.310828 -4.73691)
(-3.86597e-14 0.212831 -5.03998)
(-3.5638e-14 0.104678 -5.27359)
(-3.40851e-14 -0.00139025 -5.42759)
(-3.17727e-14 -0.0989865 -5.49466)
(-3.00657e-14 -0.184284 -5.47558)
(-2.63878e-14 -0.260421 -5.3836)
(-2.30838e-14 -0.32989 -5.22024)
(-1.86313e-14 -0.395115 -4.98954)
(-1.42704e-14 -0.461847 -4.69472)
(-1.14617e-14 -0.534554 -4.33136)
(-7.80373e-15 -0.617043 -3.88862)
(-5.67397e-15 -0.710523 -3.35764)
(-2.71528e-15 -0.813688 -2.746)
(3.95065e-16 -0.929169 -2.08598)
(-3.53219e-15 -1.08053 -1.41897)
(-8.28065e-15 -1.28639 -0.769531)
(-6.72517e-15 -1.49407 -0.175799)
(-4.113e-15 -1.65832 0.238502)
(-2.94034e-15 -1.85174 0.333189)
(-2.49283e-15 -2.34437 -0.0239342)
(-3.37998e-15 -2.91918 -0.56583)
(-5.88965e-15 -3.15299 -0.952734)
(-7.59986e-15 -3.01524 -1.21379)
(-9.84291e-15 -2.54418 -1.07803)
(-1.6215e-14 -1.71781 -0.121918)
(-1.72474e-14 -0.587739 1.97052)
(-1.53103e-14 0.287911 3.88061)
(-1.22064e-14 0.563158 4.54825)
(-1.01595e-14 0.488647 4.44039)
(-8.75428e-15 0.316408 4.16037)
(-9.35809e-15 0.11267 3.49212)
(1.2494e-15 -0.454872 15.2669)
(1.98516e-15 -0.391602 16.126)
(2.08888e-15 -0.363635 16.7997)
(2.37092e-15 -0.377322 17.3885)
(2.59595e-15 -0.44283 18.011)
(2.42625e-15 -0.535305 18.7514)
(2.32353e-15 -0.606624 19.6104)
(1.80129e-15 -0.630947 20.5138)
(1.23652e-15 -0.607575 21.3758)
(2.32287e-15 -0.545725 22.1358)
(2.7442e-15 -0.453384 22.7574)
(1.24924e-15 -0.33365 23.2166)
(9.0071e-16 -0.187097 23.4963)
(7.45935e-16 -0.00921036 23.5748)
(4.07217e-16 0.192372 23.4363)
(-5.53801e-17 0.390176 23.0663)
(-1.53646e-15 0.563597 22.4338)
(4.21555e-16 0.675956 21.6089)
(4.76489e-17 0.7175 20.7022)
(-1.99253e-15 0.709738 19.8025)
(-4.20296e-15 0.675602 18.951)
(-4.36203e-15 0.628387 18.16)
(-5.57185e-15 0.574374 17.4309)
(-7.25407e-15 0.51653 16.7629)
(-5.81585e-15 0.456912 16.155)
(-6.03039e-15 0.397781 15.6074)
(-5.91964e-15 0.342958 15.1207)
(-5.40663e-15 0.300512 14.6941)
(-4.89488e-15 0.283994 14.3183)
(-3.51531e-15 0.308073 13.9669)
(-3.63213e-15 0.380517 13.5935)
(-1.65894e-15 0.494773 13.1426)
(-1.59969e-15 0.629117 12.5725)
(-1.60809e-15 0.757247 11.874)
(-1.99356e-15 0.860115 11.0682)
(-2.12576e-15 0.926287 10.1899)
(-1.66386e-15 0.955877 9.27308)
(-1.1158e-15 0.962184 8.34398)
(-2.76295e-16 0.982494 7.40285)
(1.22585e-15 1.01017 6.4322)
(-1.69799e-15 1.05481 5.45678)
(-2.25871e-15 1.11021 4.4738)
(9.10148e-16 1.10489 3.438)
(-2.27288e-15 1.04421 2.48476)
(2.95967e-15 0.861201 1.85199)
(1.30799e-14 0.619133 1.55294)
(2.42051e-14 0.445159 1.09198)
(1.93845e-14 0.406816 0.193361)
(1.38587e-14 0.377481 -0.6321)
(1.54846e-14 0.290324 -1.14875)
(2.0537e-14 0.141358 -1.37315)
(1.9683e-14 -0.0669021 -1.36673)
(1.79296e-14 -0.293782 -1.28767)
(1.79444e-14 -0.460899 -1.01306)
(1.71062e-14 -0.397643 -0.704274)
(1.77742e-14 0.135505 -0.148976)
(1.97514e-14 0.673132 -0.282699)
(2.42453e-14 1.32577 -1.02991)
(9.49563e-15 1.8898 -1.3819)
(-5.56997e-15 1.70532 -1.66675)
(7.6427e-15 0.97517 -1.89265)
(1.79322e-14 0.658144 -2.26225)
(7.89663e-15 0.617033 -2.56779)
(-1.03467e-15 0.596307 -2.90852)
(-1.43887e-14 0.582643 -3.29757)
(-2.43028e-14 0.568422 -3.70595)
(-3.03106e-14 0.548267 -4.13403)
(-3.27436e-14 0.505389 -4.57203)
(-2.9826e-14 0.423942 -4.99881)
(-2.63504e-14 0.306324 -5.37771)
(-2.15134e-14 0.171992 -5.67511)
(-1.8628e-14 0.0358239 -5.86784)
(-1.64559e-14 -0.0938744 -5.94044)
(-1.55611e-14 -0.209216 -5.89263)
(-1.54287e-14 -0.313107 -5.7428)
(-1.59362e-14 -0.410122 -5.49799)
(-1.4143e-14 -0.501805 -5.16175)
(-1.2728e-14 -0.594106 -4.74315)
(-1.08257e-14 -0.693258 -4.24676)
(-6.26684e-15 -0.804354 -3.67571)
(-1.37916e-15 -0.9262 -3.03811)
(3.5088e-15 -1.05077 -2.35787)
(4.36501e-15 -1.17272 -1.68258)
(4.15535e-15 -1.31671 -1.06563)
(-4.45862e-15 -1.50398 -0.52829)
(-7.12967e-15 -1.66066 -0.0970317)
(-4.60725e-15 -1.72765 0.111779)
(-2.91726e-15 -1.78937 0.0492836)
(-1.22367e-15 -2.17278 -0.358019)
(-2.13879e-15 -2.7216 -0.983012)
(-3.47004e-15 -2.96677 -1.527)
(-5.98462e-15 -2.84912 -2.05095)
(-1.03774e-14 -2.47324 -2.48385)
(-1.80425e-14 -1.91374 -2.60324)
(-2.5951e-14 -1.26916 -2.1995)
(-2.06796e-14 -0.505651 -0.97965)
(-1.51106e-14 0.211882 0.55508)
(-1.23257e-14 0.430335 1.07301)
(-1.26031e-14 0.455782 1.17938)
(-1.16731e-14 0.246507 0.312128)
(1.67053e-15 -0.526049 15.3783)
(2.01645e-15 -0.453053 16.1418)
(2.51721e-15 -0.41954 16.727)
(2.99991e-15 -0.43555 17.227)
(2.85974e-15 -0.512997 17.7619)
(2.1211e-15 -0.62252 18.4245)
(1.86229e-15 -0.706949 19.2226)
(1.73834e-15 -0.735726 20.0815)
(2.08353e-15 -0.708333 20.9118)
(3.40291e-15 -0.636064 21.6505)
(2.3168e-15 -0.528671 22.2597)
(1.77611e-15 -0.389946 22.7149)
(1.62164e-15 -0.220857 22.9989)
(1.58215e-15 -0.0164333 23.0909)
(1.16723e-15 0.216961 22.9771)
(3.65672e-15 0.450176 22.6379)
(3.55486e-15 0.658625 22.0244)
(2.81172e-16 0.794027 21.2048)
(3.79526e-16 0.843679 20.2984)
(-2.67019e-15 0.834607 19.3999)
(-1.44512e-15 0.795099 18.5506)
(-8.08484e-16 0.741175 17.7603)
(-2.12993e-15 0.680084 17.028)
(-2.15996e-15 0.61492 16.3509)
(-1.97544e-15 0.547545 15.7274)
(-2.05333e-15 0.479942 15.158)
(-1.02162e-15 0.415851 14.6449)
(4.3906e-16 0.364122 14.1904)
(-1.50495e-15 0.340761 13.7912)
(-9.00375e-17 0.364524 13.4281)
(9.86351e-16 0.447132 13.0584)
(5.75652e-16 0.582345 12.6226)
(4.10382e-17 0.743731 12.0688)
(-3.38332e-16 0.898575 11.3793)
(-7.27013e-16 1.02334 10.5703)
(-1.46146e-15 1.10444 9.67719)
(-1.55726e-15 1.14288 8.73537)
(-1.21596e-15 1.15558 7.76878)
(-4.7656e-16 1.18574 6.76473)
(1.26381e-15 1.21782 5.70449)
(-3.36512e-15 1.26721 4.64266)
(-2.24582e-15 1.3348 3.58128)
(-1.93687e-15 1.31668 2.47697)
(-2.32807e-15 1.20397 1.59622)
(9.1958e-15 0.956183 1.07571)
(1.88147e-14 0.729851 0.560438)
(2.12022e-14 0.630391 -0.336239)
(2.64395e-14 0.577121 -1.16403)
(3.22211e-14 0.481375 -1.72078)
(3.61884e-14 0.339013 -2.06331)
(3.49304e-14 0.145669 -2.2191)
(2.38225e-14 -0.101735 -2.22101)
(1.42885e-14 -0.364522 -2.15919)
(1.55376e-14 -0.555416 -1.94273)
(1.45111e-14 -0.475191 -1.69063)
(1.47809e-14 0.104743 -1.40303)
(1.51795e-14 0.743586 -1.53954)
(1.23153e-14 1.39644 -1.89284)
(1.59189e-15 1.89937 -1.91406)
(-1.68707e-15 1.72325 -1.81369)
(6.32862e-15 1.06021 -1.9371)
(7.49519e-15 0.757222 -2.32558)
(1.35642e-15 0.713338 -2.63705)
(-5.0213e-15 0.705607 -2.97701)
(-1.63889e-14 0.705414 -3.37471)
(-2.30227e-14 0.701359 -3.81196)
(-2.77873e-14 0.689014 -4.28897)
(-2.43321e-14 0.649239 -4.79437)
(-1.847e-14 0.559469 -5.29787)
(-1.45934e-14 0.418184 -5.74301)
(-1.07943e-14 0.248655 -6.07243)
(-1.08393e-14 0.070444 -6.24397)
(-8.56771e-15 -0.103936 -6.23265)
(-7.94478e-15 -0.260167 -6.04674)
(-6.9657e-15 -0.400007 -5.72148)
(-6.06021e-15 -0.531343 -5.2745)
(-6.73051e-15 -0.654321 -4.72587)
(-8.15354e-15 -0.773579 -4.10755)
(-8.49734e-15 -0.895312 -3.44745)
(-7.57717e-15 -1.02391 -2.77017)
(-6.15374e-15 -1.15527 -2.09803)
(-1.66742e-15 -1.27588 -1.45839)
(5.59615e-15 -1.37354 -0.900221)
(2.29627e-15 -1.48157 -0.479701)
(-3.08363e-15 -1.63344 -0.192834)
(-6.36834e-15 -1.73048 -0.0200654)
(-6.04106e-15 -1.71013 -0.0577442)
(-3.64422e-15 -1.68139 -0.286727)
(-1.28008e-15 -1.98002 -0.732171)
(-1.91953e-15 -2.50041 -1.40774)
(-3.25703e-15 -2.78375 -2.03831)
(-6.3495e-15 -2.72977 -2.58518)
(-1.13229e-14 -2.41931 -3.04207)
(-1.48705e-14 -1.89071 -3.31237)
(-1.6654e-14 -1.2565 -3.2872)
(-1.76008e-14 -0.651414 -2.91743)
(-1.31648e-14 -0.109825 -2.30306)
(-1.38974e-14 0.284322 -1.76131)
(-1.11881e-14 0.421778 -1.56003)
(-1.0872e-14 0.217819 -1.68053)
(2.36757e-15 -0.598131 15.3394)
(2.49125e-15 -0.514745 15.9916)
(2.70778e-15 -0.472836 16.4716)
(3.07331e-15 -0.490106 16.8734)
(2.56185e-15 -0.580019 17.3232)
(2.03544e-15 -0.708237 17.9214)
(1.67858e-15 -0.807578 18.6762)
(1.77059e-15 -0.842199 19.5076)
(2.10577e-15 -0.811745 20.3214)
(1.8414e-15 -0.729787 21.0527)
(1.67746e-15 -0.607998 21.6631)
(1.53665e-15 -0.450904 22.1275)
(1.36943e-15 -0.259961 22.4282)
(1.09966e-15 -0.0299757 22.5447)
(1.34921e-15 0.234593 22.4636)
(-1.4786e-15 0.5037 22.1619)
(-8.34196e-16 0.74912 21.5735)
(-4.22979e-16 0.909111 20.7644)
(-3.73339e-16 0.967356 19.8618)
(-7.3465e-16 0.957056 18.9662)
(-9.55519e-16 0.912385 18.1189)
(-6.49391e-16 0.852261 17.3276)
(-1.99818e-15 0.784882 16.5897)
(-4.12378e-15 0.713354 15.9015)
(-4.39425e-15 0.639195 15.2614)
(-4.82692e-15 0.563978 14.6708)
(-2.44908e-15 0.491165 14.133)
(-3.58973e-15 0.430001 13.6523)
(-3.21879e-15 0.398462 13.2288)
(-2.41918e-15 0.419357 12.8494)
(-1.67257e-15 0.509317 12.4771)
(-1.06939e-15 0.66379 12.0521)
(-7.18123e-16 0.852339 11.5154)
(-6.5931e-16 1.03562 10.8399)
(-6.70606e-16 1.18478 10.0361)
(-1.08625e-15 1.28331 9.1369)
(-1.31018e-15 1.33341 8.17787)
(-1.0591e-15 1.35734 7.1774)
(-3.10259e-16 1.404 6.10419)
(1.36987e-15 1.44258 4.9396)
(-4.92867e-15 1.49599 3.77883)
(-4.37741e-15 1.57105 2.63972)
(-5.15828e-15 1.51804 1.5057)
(5.74495e-16 1.34522 0.747979)
(1.44039e-14 1.07401 0.1729)
(1.87896e-14 0.895972 -0.597864)
(2.63684e-14 0.796813 -1.40869)
(3.82071e-14 0.696343 -2.00903)
(4.14097e-14 0.559057 -2.44329)
(3.1089e-14 0.38139 -2.74884)
(2.07197e-14 0.153122 -2.91965)
(1.88668e-14 -0.128545 -2.95885)
(1.4635e-14 -0.423751 -2.92807)
(1.42275e-14 -0.639449 -2.75626)
(1.18568e-14 -0.550927 -2.50662)
(1.02057e-14 0.0738773 -2.17931)
(1.04003e-14 0.773123 -2.20738)
(9.15578e-15 1.39614 -2.36697)
(1.76789e-15 1.83877 -2.2154)
(2.00238e-15 1.6938 -1.93401)
(1.25541e-15 1.13403 -1.997)
(8.71669e-16 0.85957 -2.38295)
(6.70962e-16 0.812059 -2.71014)
(-4.79271e-15 0.816734 -3.05999)
(-1.49575e-14 0.833796 -3.47149)
(-2.22131e-14 0.845992 -3.94031)
(-2.4824e-14 0.847456 -4.46904)
(-2.18761e-14 0.81472 -5.04274)
(-1.8045e-14 0.715181 -5.61427)
(-1.55141e-14 0.54035 -6.09403)
(-1.30288e-14 0.317941 -6.38465)
(-1.19921e-14 0.0756472 -6.41295)
(-9.33837e-15 -0.164324 -6.15349)
(-6.78825e-15 -0.375453 -5.67189)
(-4.48625e-15 -0.558966 -5.05175)
(-2.54405e-15 -0.725355 -4.32846)
(-1.16225e-15 -0.87036 -3.56228)
(-2.16598e-15 -0.99781 -2.81333)
(-3.69536e-15 -1.11636 -2.12247)
(-6.89993e-15 -1.23402 -1.51112)
(-1.15687e-14 -1.34839 -0.983707)
(-7.29663e-15 -1.44232 -0.542632)
(5.18884e-15 -1.49236 -0.2247)
(2.52618e-15 -1.54705 -0.0834088)
(-4.17802e-15 -1.66176 -0.0830695)
(-8.00099e-15 -1.70948 -0.155122)
(-7.00026e-15 -1.62616 -0.361257)
(-4.3267e-15 -1.54794 -0.651225)
(-3.15977e-15 -1.77587 -1.04141)
(-3.22872e-15 -2.2359 -1.69172)
(-5.13044e-15 -2.52692 -2.40761)
(-6.27792e-15 -2.53424 -3.03378)
(-8.38374e-15 -2.33319 -3.52983)
(-1.12009e-14 -1.93723 -3.84418)
(-1.23441e-14 -1.3947 -3.94351)
(-1.24308e-14 -0.805708 -3.82015)
(-1.26844e-14 -0.284086 -3.51223)
(-1.16865e-14 0.109367 -3.10227)
(-1.15515e-14 0.290562 -2.73943)
(-1.1239e-14 0.207091 -2.43272)
(2.39864e-15 -0.661826 15.13)
(2.10293e-15 -0.568719 15.6522)
(2.27224e-15 -0.520422 16.0309)
(2.60654e-15 -0.541317 16.3551)
(1.77667e-15 -0.645863 16.7437)
(1.33716e-15 -0.794711 17.2949)
(1.45817e-15 -0.910394 18.0162)
(1.63015e-15 -0.95189 18.8257)
(2.22255e-15 -0.919243 19.6285)
(1.76625e-15 -0.828443 20.359)
(1.69336e-15 -0.693111 20.9784)
(1.30009e-15 -0.518437 21.461)
(1.27164e-15 -0.306352 21.7886)
(8.54958e-16 -0.0515853 21.9405)
(4.42806e-16 0.243952 21.9027)
(4.24181e-16 0.549849 21.6478)
(-1.1702e-16 0.834493 21.0901)
(1.82699e-15 1.02072 20.2926)
(4.90781e-15 1.08806 19.3934)
(3.49227e-15 1.07671 18.5)
(1.53392e-15 1.02725 17.654)
(1.64067e-15 0.96155 16.8616)
(-1.75776e-15 0.888686 16.1189)
(1.82578e-15 0.811647 15.4221)
(3.72302e-16 0.731504 14.7697)
(-1.38966e-15 0.649356 14.1636)
(-2.24062e-15 0.568353 13.6082)
(-1.4574e-15 0.497999 13.1084)
(8.13542e-17 0.457845 12.6652)
(-3.27686e-16 0.474307 12.2681)
(1.33813e-15 0.569187 11.8851)
(1.0525e-15 0.740682 11.46)
(1.24508e-15 0.955416 10.932)
(1.34494e-15 1.16779 10.2677)
(5.46572e-16 1.34313 9.47064)
(-4.29076e-16 1.46138 8.57003)
(-9.3211e-16 1.52638 7.59822)
(-7.72673e-16 1.56793 6.56324)
(4.06747e-17 1.6396 5.40914)
(1.24673e-15 1.68679 4.12523)
(-4.88818e-15 1.74084 2.86013)
(-3.12207e-15 1.811 1.66705)
(-7.16603e-15 1.70381 0.555435)
(5.3497e-15 1.47951 -0.0997737)
(1.60799e-14 1.21521 -0.759019)
(2.31619e-14 1.05019 -1.49128)
(3.45415e-14 0.926355 -2.131)
(3.75469e-14 0.794638 -2.63022)
(2.93791e-14 0.631789 -3.03674)
(1.85333e-14 0.427588 -3.35371)
(1.56128e-14 0.168928 -3.56231)
(1.70894e-14 -0.145754 -3.64889)
(1.71492e-14 -0.473672 -3.65175)
(1.4873e-14 -0.719454 -3.51751)
(1.08988e-14 -0.645918 -3.25842)
(6.2961e-15 -0.00197909 -2.82308)
(6.65352e-15 0.765169 -2.63086)
(7.54954e-15 1.36249 -2.64418)
(1.87254e-15 1.75149 -2.41116)
(-5.0498e-16 1.64405 -2.0691)
(-4.81929e-15 1.19712 -2.09266)
(1.28072e-16 0.961852 -2.45245)
(2.33486e-15 0.914927 -2.79479)
(-4.45896e-15 0.931916 -3.16232)
(-1.57052e-14 0.968813 -3.59299)
(-2.25574e-14 1.00253 -4.09447)
(-2.65426e-14 1.02307 -4.67298)
(-2.55592e-14 0.999038 -5.30786)
(-2.3623e-14 0.882168 -5.92451)
(-2.00937e-14 0.651774 -6.37744)
(-1.54072e-14 0.341422 -6.50067)
(-1.18587e-14 -0.00256366 -6.18599)
(-8.41915e-15 -0.330434 -5.49088)
(-6.40232e-15 -0.592893 -4.67415)
(-2.82561e-15 -0.80497 -3.82115)
(2.25864e-15 -0.981489 -2.97782)
(1.88732e-15 -1.11306 -2.22386)
(6.09722e-17 -1.21123 -1.59839)
(1.12807e-16 -1.2946 -1.103)
(-2.55119e-15 -1.38008 -0.71546)
(-1.05314e-14 -1.46714 -0.408197)
(-1.0758e-14 -1.52958 -0.176783)
(3.75087e-15 -1.52717 -0.0780002)
(3.84366e-15 -1.53147 -0.159871)
(-5.57821e-15 -1.61899 -0.351403)
(-8.89889e-15 -1.64202 -0.568255)
(-7.37734e-15 -1.53275 -0.825047)
(-4.39219e-15 -1.44128 -1.0756)
(-3.55696e-15 -1.61215 -1.35924)
(-4.58631e-15 -1.99015 -1.89197)
(-6.38542e-15 -2.25598 -2.57503)
(-7.05392e-15 -2.29002 -3.20536)
(-6.73341e-15 -2.15324 -3.69738)
(-7.11867e-15 -1.86816 -4.00722)
(-7.73271e-15 -1.45667 -4.12766)
(-9.72382e-15 -0.972526 -4.0652)
(-1.04029e-14 -0.496231 -3.85037)
(-1.03136e-14 -0.107907 -3.54356)
(-1.03921e-14 0.111235 -3.21026)
(-9.42148e-15 0.111427 -2.90622)
(1.34682e-15 -0.719251 14.7193)
(1.42102e-15 -0.619826 15.1379)
(1.69703e-15 -0.567382 15.4632)
(1.76849e-15 -0.592619 15.7423)
(9.54555e-16 -0.711955 16.0794)