/*--------------------------------*- C++ -*----------------------------------*\
| =========                 |                                                 |
| \\      /  F ield         | OpenFOAM: The Open Source CFD Toolbox           |
|  \\    /   O peration     | Version:  4.1                                   |
|   \\  /    A nd           | Web:      www.OpenFOAM.org                      |
|    \\/     M anipulation  |                                                 |
\*---------------------------------------------------------------------------*/
FoamFile
{
    version     2.0;
    format      ascii;
    class       volScalarField;
    location    "2000";
    object      p;
}
// * * * * * * * * * * * * * * * * * * * * * * * * * * * * * * * * * * * * * //

dimensions      [0 2 -2 0 0 0 0];

internalField   nonuniform List<scalar> 
26785
(
-14603.1
-14585
-14574.4
-14572.5
-14576.1
-14588
-14613.2
-14650.5
-14692.9
-14733.2
-14764.4
-14780
-14773.4
-14739.1
-14672.8
-14570.7
-14433.1
-14264.7
-14070.1
-13853.3
-13619.5
-13377.1
-13136.9
-12910.5
-12704.9
-12462.3
-12135
-11902.9
-11766.7
-11644
-11525.8
-11410.5
-11299.5
-11193.2
-11092.2
-10997
-10908.1
-10826.3
-10752.7
-10688.6
-10635
-10593
-10563.4
-10546.4
-10542.2
-10550.4
-10570.4
-10601
-10641
-10688.7
-10742.3
-10799.8
-10859
-10917.7
-10973.7
-11024.6
-11068.3
-11102.8
-11125.9
-11136
-11131.3
-11110.6
-11072.5
-11016.2
-10940.8
-10846
-10731.2
-10596.4
-10441.7
-10267.2
-10073.4
-9860.73
-9629.84
-9381.51
-9116.61
-8836.09
-8541
-8232.47
-7911.66
-7579.77
-7238.02
-6887.64
-6529.81
-6165.72
-5796.52
-5423.31
-5047.1
-4668.7
-4288.74
-3907.8
-3526.81
-3147.34
-2771.34
-2399.98
-2031.91
-1662.97
-1291.7
-924.41
-589.598
-232.659
-14603.1
-14585
-14574.3
-14572.4
-14575.9
-14587.8
-14613.1
-14650.4
-14692.9
-14733.3
-14764.6
-14780.3
-14773.9
-14739.7
-14673.6
-14571.5
-14434
-14265.6
-14071.1
-13854.2
-13620.4
-13377.8
-13137.3
-12910.7
-12706.8
-12470.1
-12145.6
-11906
-11766.4
-11643.7
-11525.6
-11410.3
-11299.2
-11192.9
-11092
-10996.7
-10907.7
-10825.9
-10752.2
-10688
-10634.4
-10592.4
-10562.7
-10545.7
-10541.5
-10549.8
-10569.7
-10600.4
-10640.5
-10688.3
-10742.1
-10799.7
-10859.1
-10917.9
-10974.1
-11025.2
-11069.1
-11103.7
-11127.1
-11137.3
-11132.8
-11112.2
-11074.3
-11018.1
-10942.9
-10848.1
-10733.5
-10598.8
-10444.1
-10269.7
-10075.9
-9863.24
-9632.36
-9384.01
-9119.07
-8838.5
-8543.36
-8234.75
-7913.86
-7581.88
-7240.04
-6889.55
-6531.62
-6167.43
-5798.12
-5424.8
-5048.47
-4669.97
-4289.91
-3908.88
-3527.8
-3148.22
-2772.09
-2400.61
-2032.43
-1663.45
-1292.15
-924.774
-589.53
-232.259
-14603
-14584.9
-14574.3
-14572.3
-14575.7
-14587.5
-14612.7
-14650.2
-14692.8
-14733.4
-14765
-14780.9
-14774.8
-14740.9
-14675
-14573.1
-14435.7
-14267.4
-14073
-13856.2
-13622.2
-13379.3
-13138.3
-12911.5
-12710.2
-12481.4
-12158.9
-11911
-11767.1
-11643.5
-11525.3
-11409.9
-11298.8
-11192.5
-11091.5
-10996.1
-10907.1
-10825.1
-10751.3
-10686.9
-10633.2
-10591.1
-10561.3
-10544.3
-10540.1
-10548.4
-10568.5
-10599.4
-10639.6
-10687.6
-10741.6
-10799.5
-10859.2
-10918.4
-10974.9
-11026.4
-11070.7
-11105.7
-11129.4
-11140
-11135.8
-11115.6
-11078
-11022.1
-10947.1
-10852.5
-10738.1
-10603.5
-10449
-10274.7
-10080.9
-9868.3
-9637.4
-9389.01
-9124
-8843.34
-8548.08
-8239.33
-7918.27
-7586.11
-7244.07
-6893.39
-6535.24
-6170.83
-5801.31
-5427.77
-5051.23
-4672.51
-4292.24
-3911.02
-3529.74
-3149.96
-2773.59
-2401.86
-2033.48
-1664.36
-1292.99
-925.415
-589.455
-231.679
-14603
-14584.8
-14574.1
-14572.1
-14575.4
-14587
-14612.3
-14649.9
-14692.8
-14733.7
-14765.6
-14781.9
-14776.1
-14742.6
-14677.2
-14575.5
-14438.2
-14270.2
-14075.9
-13859.2
-13625
-13381.8
-13140
-12912.9
-12714.3
-12493.4
-12171.4
-11917
-11768.4
-11643.4
-11525
-11409.3
-11298.2
-11191.8
-11090.7
-10995.3
-10906
-10823.8
-10749.9
-10685.3
-10631.4
-10589.1
-10559.2
-10542.2
-10538
-10546.4
-10566.6
-10597.7
-10638.2
-10686.6
-10740.9
-10799.3
-10859.4
-10919.2
-10976.2
-11028.2
-11073.1
-11108.6
-11132.9
-11144
-11140.4
-11120.6
-11083.5
-11028
-10953.4
-10859.2
-10745
-10610.7
-10456.4
-10282.2
-10088.5
-9875.93
-9645.02
-9396.58
-9131.46
-8850.66
-8555.21
-8246.25
-7924.95
-7592.51
-7250.19
-6899.19
-6540.73
-6176
-5806.14
-5432.27
-5055.39
-4676.35
-4295.78
-3914.26
-3532.69
-3152.58
-2775.87
-2403.78
-2035.08
-1665.76
-1294.23
-926.339
-589.46
-231.102
-14603.1
-14584.6
-14573.9
-14571.8
-14574.9
-14586.4
-14611.6
-14649.5
-14692.7
-14734
-14766.3
-14783.1
-14777.9
-14745
-14680
-14578.6
-14441.6
-14273.9
-14079.9
-13863.2
-13629
-13385.3
-13142.6
-12915
-12718.7
-12504.9
-12184.2
-11924
-11770.2
-11643.4
-11524.5
-11408.6
-11297.3
-11190.9
-11089.7
-10994.1
-10904.7
-10822.2
-10747.9
-10683.1
-10628.9
-10586.4
-10556.4
-10539.3
-10535.1
-10543.6
-10564.1
-10595.4
-10636.3
-10685.1
-10740
-10798.9
-10859.7
-10920.1
-10977.9
-11030.6
-11076.3
-11112.6
-11137.6
-11149.4
-11146.5
-11127.4
-11090.9
-11036
-10961.9
-10868.2
-10754.4
-10620.4
-10466.3
-10292.3
-10098.7
-9886.18
-9655.26
-9406.74
-9141.49
-8860.49
-8564.8
-8255.55
-7933.91
-7601.12
-7258.4
-6906.98
-6548.09
-6182.92
-5812.61
-5438.29
-5060.97
-4681.49
-4300.5
-3918.57
-3536.6
-3156.06
-2778.88
-2406.32
-2037.21
-1667.59
-1295.83
-927.501
-589.557
-230.523
-14603
-14584.4
-14573.7
-14571.5
-14574.4
-14585.6
-14610.9
-14649
-14692.6
-14734.3
-14767.3
-14784.7
-14780.1
-14747.9
-14683.5
-14582.5
-14445.8
-14278.5
-14084.8
-13868.2
-13634
-13390
-13146.3
-12917.6
-12723.1
-12514.6
-12196.7
-11931.9
-11772.7
-11643.7
-11523.9
-11407.7
-11296.3
-11189.8
-11088.5
-10992.7
-10902.9
-10820.1
-10745.5
-10680.2
-10625.7
-10582.9
-10552.8
-10535.6
-10531.5
-10540.1
-10560.8
-10592.5
-10633.9
-10683.2
-10738.8
-10798.4
-10860
-10921.3
-10980
-11033.7
-11080.3
-11117.5
-11143.5
-11156.3
-11154.3
-11136
-11100.3
-11046.1
-10972.7
-10879.5
-10766.2
-10632.6
-10478.8
-10305
-10111.6
-9899.14
-9668.19
-9419.57
-9154.15
-8872.91
-8576.92
-8267.3
-7945.25
-7611.99
-7268.77
-6916.83
-6557.39
-6191.66
-5820.79
-5445.9
-5068.01
-4687.97
-4306.44
-3924
-3541.51
-3160.44
-2782.68
-2409.53
-2039.9
-1669.89
-1297.81
-928.928
-589.815
-230.054
-14602.9
-14584.1
-14573.4
-14571.1
-14573.8
-14584.7
-14610
-14648.4
-14692.5
-14734.8
-14768.4
-14786.5
-14782.7
-14751.3
-14687.6
-14587.1
-14450.9
-14284.1
-14090.8
-13874.4
-13640.3
-13396.1
-13151.3
-12921
-12726.8
-12521.7
-12208.1
-11940.4
-11775.8
-11644.2
-11523.4
-11406.7
-11295.2
-11188.5
-11087
-10990.9
-10900.8
-10817.6
-10742.5
-10676.8
-10621.8
-10578.8
-10548.4
-10531.1
-10527
-10535.8
-10556.8
-10589
-10630.9
-10680.9
-10737.3
-10797.8
-10860.4
-10922.7
-10982.5
-11037.4
-11085.1
-11123.6
-11150.7
-11164.6
-11163.7
-11146.5
-11111.7
-11058.4
-10985.7
-10893.2
-10780.5
-10647.4
-10494
-10320.5
-10127.3
-9914.86
-9683.89
-9435.15
-9169.52
-8887.99
-8591.62
-8281.56
-7959
-7625.18
-7281.35
-6928.77
-6568.67
-6202.25
-5830.69
-5455.1
-5076.52
-4695.8
-4313.61
-3930.53
-3547.41
-3165.68
-2787.23
-2413.38
-2043.12
-1672.62
-1300.12
-930.586
-590.223
-229.644
-14602.7
-14583.9
-14573.1
-14570.7
-14573.1
-14583.7
-14609
-14647.8
-14692.4
-14735.3
-14769.7
-14788.7
-14785.8
-14755.3
-14692.3
-14592.4
-14456.8
-14290.6
-14097.8
-13881.8
-13647.9
-13403.5
-13158
-12925.5
-12730.2
-12526.2
-12218
-11949.5
-11779.6
-11645.2
-11523
-11405.8
-11293.9
-11187
-11085.3
-10988.9
-10898.3
-10814.6
-10738.9
-10672.7
-10617.3
-10573.8
-10543.1
-10525.7
-10521.7
-10530.7
-10552.1
-10584.7
-10627.3
-10678.2
-10735.4
-10797.1
-10860.8
-10924.4
-10985.5
-11041.7
-11090.8
-11130.7
-11159.2
-11174.4
-11174.8
-11158.8
-11125.1
-11072.9
-11001.2
-10909.5
-10797.4
-10664.9
-10512
-10338.8
-10145.8
-9933.43
-9702.43
-9453.55
-9187.67
-8905.79
-8608.98
-8298.39
-7975.24
-7640.75
-7296.2
-6942.86
-6581.97
-6214.75
-5842.36
-5465.95
-5086.54
-4705.02
-4322.04
-3938.2
-3554.33
-3171.82
-2792.57
-2417.91
-2046.9
-1675.81
-1302.79
-932.507
-590.828
-229.365
-14602.5
-14583.5
-14572.8
-14570.2
-14572.3
-14582.6
-14607.8
-14647
-14692.2
-14736
-14771.2
-14791.1
-14789.3
-14759.8
-14697.7
-14598.5
-14463.6
-14298.1
-14105.9
-13890.4
-13656.9
-13412.5
-13166.3
-12931.6
-12733.8
-12529.4
-12226.8
-11959
-11784.1
-11646.5
-11522.7
-11404.8
-11292.6
-11185.4
-11083.4
-10986.6
-10895.5
-10811.1
-10734.8
-10667.9
-10612
-10568
-10537.1
-10519.5
-10515.5
-10524.7
-10546.5
-10579.7
-10623.1
-10674.9
-10733.3
-10796.1
-10861.2
-10926.2
-10988.8
-11046.7
-11097.4
-11138.9
-11169
-11185.8
-11187.7
-11173.1
-11140.7
-11089.7
-11019
-10928.3
-10817
-10685.2
-10532.8
-10360
-10167.2
-9954.95
-9723.91
-9474.86
-9208.69
-8926.4
-8629.08
-8317.88
-7994.03
-7658.77
-7313.39
-6959.17
-6597.35
-6229.18
-5855.84
-5478.47
-5098.1
-4715.63
-4331.74
-3947.01
-3562.26
-3178.86
-2798.68
-2423.09
-2051.24
-1679.43
-1305.79
-934.672
-591.604
-229.174
-14602.4
-14583.2
-14572.4
-14569.6
-14571.4
-14581.3
-14606.5
-14646.2
-14692.1
-14736.6
-14772.8
-14793.8
-14793.1
-14764.9
-14703.8
-14605.3
-14471.2
-14306.5
-14115
-13900.2
-13667.3
-13423
-13176.2
-12939.2
-12737.8
-12531.9
-12235
-11968.9
-11789.2
-11648.3
-11522.6
-11403.9
-11291.2
-11183.7
-11081.3
-10984
-10892.2
-10807.2
-10730.1
-10662.5
-10605.9
-10561.4
-10530.1
-10512.4
-10508.4
-10517.9
-10540.1
-10574
-10618.2
-10671.1
-10730.7
-10795
-10861.6
-10928.3
-10992.7
-11052.3
-11104.9
-11148.2
-11180.2
-11198.8
-11202.4
-11189.4
-11158.6
-11108.8
-11039.4
-10949.8
-10839.4
-10708.3
-10556.5
-10384.1
-10191.6
-9979.48
-9748.39
-9499.15
-9232.65
-8949.9
-8651.99
-8340.09
-8015.44
-7679.3
-7332.97
-6977.73
-6614.87
-6245.62
-5871.18
-5492.7
-5111.24
-4727.69
-4342.75
-3957
-3571.24
-3186.82
-2805.58
-2428.95
-2056.13
-1683.51
-1309.14
-937.097
-592.567
-229.107
-14602.1
-14582.8
-14571.9
-14569
-14570.5
-14580
-14605.1
-14645.3
-14691.9
-14737.4
-14774.6
-14796.7
-14797.4
-14770.5
-14710.4
-14612.9
-14479.7
-14315.9
-14125.3
-13911.4
-13679.1
-13435
-13187.6
-12948.1
-12742.4
-12534.4
-12242.6
-11979.1
-11795
-11650.4
-11522.7
-11403
-11289.8
-11181.8
-11078.9
-10981
-10888.6
-10802.7
-10724.7
-10656.3
-10599
-10553.9
-10522.2
-10504.3
-10500.3
-10510
-10532.8
-10567.4
-10612.7
-10666.8
-10727.8
-10793.6
-10862
-10930.6
-10996.9
-11058.6
-11113.3
-11158.7
-11192.7
-11213.4
-11218.9
-11207.8
-11178.6
-11130.5
-11062.5
-10974
-10864.7
-10734.4
-10583.3
-10411.4
-10219.1
-10007.1
-9775.97
-9526.5
-9259.62
-8976.34
-8677.77
-8365.09
-8039.54
-7702.4
-7354.99
-6998.62
-6634.57
-6264.1
-5888.42
-5508.69
-5125.99
-4741.22
-4355.08
-3968.17
-3581.27
-3195.69
-2813.28
-2435.47
-2061.58
-1688.03
-1312.81
-939.766
-593.722
-229.134
-14601.7
-14582.4
-14571.5
-14568.4
-14569.5
-14578.5
-14603.6
-14644.3
-14691.7
-14738.2
-14776.6
-14800
-14802
-14776.5
-14717.7
-14621.3
-14489
-14326.3
-14136.8
-13923.8
-13692.4
-13448.5
-13200.4
-12958.4
-12747.8
-12537
-12250
-11989.4
-11801.3
-11653.1
-11523.1
-11402.3
-11288.3
-11179.8
-11076.4
-10977.8
-10884.5
-10797.7
-10718.8
-10649.4
-10591.2
-10545.5
-10513.3
-10495.1
-10491.2
-10501.2
-10524.5
-10560
-10606.4
-10661.8
-10724.4
-10792
-10862.4
-10933.1
-11001.6
-11065.6
-11122.7
-11170.4
-11206.8
-11229.7
-11237.4
-11228.3
-11201
-11154.6
-11088.1
-11001
-10892.9
-10763.6
-10613.1
-10441.7
-10249.8
-10037.9
-9806.72
-9557
-9289.7
-9005.83
-8706.52
-8392.96
-8066.41
-7728.16
-7379.55
-7021.9
-6656.52
-6284.68
-5907.61
-5526.49
-5142.39
-4756.25
-4368.78
-3980.56
-3592.37
-3205.49
-2821.77
-2442.67
-2067.57
-1692.97
-1316.8
-942.681
-595.118
-229.267
-14601.3
-14581.9
-14571
-14567.7
-14568.4
-14576.9
-14601.9
-14643.2
-14691.5
-14739
-14778.7
-14803.4
-14807
-14782.9
-14725.5
-14630.4
-14499.2
-14337.7
-14149.3
-13937.5
-13707.2
-13463.7
-13214.8
-12970
-12754.1
-12539.9
-12257.3
-12000
-11808.1
-11656.1
-11523.8
-11401.7
-11286.9
-11177.8
-11073.6
-10974.2
-10880
-10792.1
-10712.1
-10641.7
-10582.5
-10536.1
-10503.3
-10484.9
-10481
-10491.3
-10515.3
-10551.7
-10599.2
-10656.2
-10720.5
-10790.2
-10862.7
-10935.7
-11006.8
-11073.3
-11133
-11183.4
-11222.3
-11247.7
-11257.8
-11251
-11225.8
-11181.3
-11116.6
-11031
-10924.1
-10795.8
-10646.2
-10475.4
-10283.8
-10072.1
-9840.77
-9590.77
-9322.99
-9038.47
-8738.34
-8423.8
-8096.14
-7756.66
-7406.72
-7047.65
-6680.8
-6307.44
-5928.83
-5546.15
-5160.5
-4772.83
-4383.86
-3994.18
-3604.55
-3216.24
-2831.06
-2450.53
-2074.11
-1698.33
-1321.08
-945.835
-596.791
-229.49
-14600.9
-14581.4
-14570.5
-14567
-14567.3
-14575.2
-14600.2
-14642
-14691.2
-14739.9
-14780.9
-14807
-14812.3
-14789.8
-14734
-14640.3
-14510.2
-14350.1
-14163.1
-13952.5
-13723.4
-13480.3
-13230.6
-12983
-12761.3
-12543.2
-12264.7
-12010.7
-11815.4
-11659.6
-11524.8
-11401.2
-11285.5
-11175.6
-11070.7
-10970.3
-10875
-10785.9
-10704.7
-10633.1
-10572.9
-10525.6
-10492.3
-10473.5
-10469.6
-10480.3
-10504.9
-10542.4
-10591.3
-10649.9
-10716.2
-10788
-10862.9
-10938.5
-11012.3
-11081.7
-11144.2
-11197.5
-11239.3
-11267.5
-11280.2
-11275.9
-11253.1
-11210.7
-11147.8
-11063.9
-10958.4
-10831.3
-10682.5
-10512.4
-10321.2
-10109.6
-9878.23
-9627.93
-9359.63
-9074.39
-8773.36
-8457.75
-8128.86
-7788.02
-7436.6
-7075.97
-6707.48
-6332.45
-5952.13
-5567.72
-5180.36
-4790.99
-4400.36
-4009.06
-3617.84
-3227.94
-2841.16
-2459.07
-2081.2
-1704.12
-1325.67
-949.241
-598.749
-229.809
-14600.5
-14580.9
-14569.9
-14566.3
-14566.1
-14573.4
-14598.2
-14640.8
-14690.9
-14740.8
-14783.3
-14810.9
-14818
-14797.2
-14743.3
-14651.2
-14522.3
-14363.6
-14178
-13968.7
-13740.9
-13498.6
-13248.1
-12997.5
-12769.7
-12547.2
-12272.3
-12021.6
-11823.2
-11663.4
-11526.1
-11400.9
-11284.1
-11173.3
-11067.5
-10966.1
-10869.6
-10779.2
-10696.5
-10623.6
-10562.3
-10514
-10480
-10460.9
-10457.1
-10468.1
-10493.5
-10532.1
-10582.4
-10642.8
-10711.2
-10785.4
-10863
-10941.5
-11018.2
-11090.7
-11156.4
-11212.8
-11257.7
-11289
-11304.7
-11303.1
-11282.9
-11242.8
-11182
-11099.9
-10996
-10870.1
-10722.4
-10552.9
-10362.2
-10150.7
-9919.28
-9668.63
-9399.76
-9113.73
-8811.7
-8494.9
-8164.66
-7822.33
-7469.29
-7106.94
-6736.65
-6359.76
-5977.55
-5591.25
-5201.99
-4810.76
-4418.3
-4025.23
-3632.26
-3240.62
-2852.1
-2468.32
-2088.87
-1710.37
-1330.6
-952.916
-600.948
-230.217
-14600
-14580.4
-14569.4
-14565.5
-14564.9
-14571.5
-14596.2
-14639.4
-14690.6
-14741.8
-14785.8
-14815.2
-14824.3
-14805.3
-14753.6
-14663.2
-14535.4
-14378.2
-14194.1
-13986.2
-13759.7
-13518.2
-13267.2
-13013.6
-12779.4
-12551.9
-12280.5
-12032.7
-11831.4
-11667.7
-11527.6
-11400.8
-11282.8
-11171
-11064.1
-10961.5
-10863.6
-10771.7
-10687.6
-10613.2
-10550.6
-10501.3
-10466.5
-10447.1
-10443.2
-10454.7
-10480.8
-10520.6
-10572.6
-10634.9
-10705.7
-10782.5
-10862.9
-10944.5
-11024.5
-11100.4
-11169.5
-11229.4
-11277.8
-11312.4
-11331.2
-11332.7
-11315.3
-11277.8
-11219.3
-11139.1
-11036.9
-10912.5
-10765.8
-10597.1
-10406.9
-10195.6
-9964.03
-9713
-9443.49
-9156.58
-8853.44
-8535.35
-8203.61
-7859.63
-7504.81
-7140.57
-6768.31
-6389.39
-6005.13
-5616.75
-5225.43
-4832.16
-4437.72
-4042.71
-3647.84
-3254.32
-2863.93
-2478.31
-2097.16
-1717.12
-1335.92
-956.882
-603.336
-230.715
-14599.4
-14579.8
-14568.7
-14564.7
-14563.7
-14569.5
-14594.1
-14638
-14690.3
-14742.8
-14788.6
-14819.9
-14831.3
-14814.4
-14765.4
-14676.7
-14550.1
-14394.3
-14211.7
-14005.1
-13779.8
-13539.4
-13288.1
-13031.7
-12790.8
-12557.6
-12289.3
-12044.1
-11840.1
-11672.4
-11529.5
-11400.9
-11281.5
-11168.6
-11060.5
-10956.6
-10857.2
-10763.6
-10677.8
-10601.8
-10537.7
-10487.3
-10451.7
-10431.8
-10427.9
-10439.9
-10466.9
-10508
-10561.7
-10626.2
-10699.4
-10779.1
-10862.7
-10947.6
-11031.2
-11110.7
-11183.6
-11247.3
-11299.4
-11337.6
-11360
-11364.7
-11350.4
-11315.7
-11259.7
-11181.8
-11081.4
-10958.5
-10813
-10645.1
-10455.4
-10244.3
-10012.6
-9761.1
-9490.87
-9202.98
-8898.63
-8579.09
-8245.73
-7899.94
-7543.18
-7176.87
-6802.47
-6421.35
-6034.84
-5644.23
-5250.68
-4855.21
-4458.62
-4061.52
-3664.61
-3269.07
-2876.67
-2489.1
-2106.12
-1724.42
-1341.68
-961.157
-605.877
-231.302
-14598.7
-14579.2
-14568.1
-14563.9
-14562.4
-14567.5
-14591.8
-14636.5
-14689.9
-14744
-14791.7
-14825.3
-14839.3
-14824.8
-14779.3
-14692.2
-14566.7
-14412.3
-14230.9
-14025.5
-13801.4
-13562
-13310.7
-13051.9
-12804.3
-12564.8
-12299
-12055.8
-11849.2
-11677.4
-11531.8
-11401.2
-11280.3
-11166.1
-11056.7
-10951.2
-10850.1
-10754.7
-10667
-10589.3
-10523.7
-10472
-10435.5
-10415.1
-10411.3
-10423.6
-10451.6
-10494.2
-10549.7
-10616.5
-10692.5
-10775.2
-10862.1
-10950.7
-11038.1
-11121.7
-11198.7
-11266.5
-11322.6
-11364.8
-11391
-11399.4
-11388.3
-11356.7
-11303.4
-11227.9
-11129.5
-11008.2
-10863.9
-10697
-10507.7
-10296.8
-10064.9
-9812.92
-9541.89
-9252.92
-8947.22
-8626.11
-8290.96
-7943.22
-7584.34
-7215.82
-6839.09
-6455.6
-6066.7
-5673.67
-5277.73
-4879.9
-4481.01
-4081.68
-3682.59
-3284.9
-2890.37
-2500.72
-2115.77
-1732.29
-1347.9
-965.754
-608.562
-231.981
-14598.1
-14578.5
-14567.5
-14563.1
-14561.1
-14565.3
-14589.3
-14634.9
-14689.6
-14745.5
-14795.4
-14831.4
-14848.4
-14836.7
-14795.5
-14710.3
-14585.9
-14432.5
-14252.2
-14047.8
-13824.6
-13586.2
-13335.1
-13074.5
-12820.1
-12574
-12309.6
-12067.9
-11858.8
-11683
-11534.3
-11401.6
-11279.1
-11163.5
-11052.6
-10945.5
-10842.5
-10745
-10655.3
-10575.7
-10508.3
-10455.2
-10417.8
-10396.9
-10393
-10405.9
-10434.9
-10479
-10536.6
-10605.9
-10684.7
-10770.7
-10861.3
-10953.8
-11045.4
-11133.3
-11214.7
-11287
-11347.5
-11394
-11424.3
-11436.6
-11429.2
-11400.8
-11350.5
-11277.5
-11181.2
-11061.7
-10918.7
-10752.6
-10563.9
-10353.1
-10120.9
-9868.4
-9596.47
-9306.31
-8999.15
-8676.33
-8339.26
-7989.41
-7628.27
-7257.36
-6878.16
-6492.14
-6100.67
-5705.08
-5306.58
-4906.25
-4504.91
-4103.2
-3701.79
-3301.82
-2905.04
-2513.18
-2126.15
-1740.76
-1354.6
-970.675
-611.4
-232.754
-14597.5
-14577.9
-14566.8
-14562.2
-14559.8
-14563.1
-14586.8
-14633.2
-14689.3
-14747.1
-14799.5
-14838.2
-14858.4
-14850
-14814.1
-14731
-14607.9
-14455.4
-14275.9
-14072.2
-13849.8
-13612.2
-13361.4
-13099.6
-12838.6
-12585.6
-12321.5
-12080.4
-11868.9
-11688.9
-11537.2
-11402.4
-11278.1
-11160.8
-11048.2
-10939.3
-10834.2
-10734.5
-10642.6
-10560.8
-10491.7
-10437.1
-10398.6
-10377.2
-10373.2
-10386.6
-10416.7
-10462.4
-10522.2
-10594.1
-10676.1
-10765.7
-10860.2
-10956.9
-11053
-11145.6
-11231.8
-11308.8
-11374.1
-11425.3
-11460
-11476.5
-11473
-11448.1
-11400.9
-11330.6
-11236.6
-11118.8
-10977.2
-10812.1
-10623.8
-10413.1
-10180.6
-9927.45
-9654.54
-9363.08
-9054.35
-8729.7
-8390.58
-8038.48
-7674.93
-7301.48
-6919.66
-6530.95
-6136.76
-5738.45
-5337.26
-4934.27
-4530.33
-4126.09
-3722.23
-3319.85
-2920.69
-2526.49
-2137.25
-1749.82
-1361.76
-975.918
-614.41
-233.623
-14596.8
-14577.2
-14566.1
-14561.3
-14558.5
-14560.7
-14584
-14631.4
-14689
-14748.9
-14803.9
-14845.5
-14869.1
-14864.4
-14834.7
-14754.2
-14632.5
-14481
-14302.2
-14099.1
-13877.1
-13640.2
-13389.8
-13127.4
-12860.3
-12599.8
-12334.6
-12093.3
-11879.5
-11695.4
-11540.5
-11403.3
-11277.1
-11158
-11043.6
-10932.6
-10825.2
-10723.2
-10628.8
-10544.7
-10473.5
-10417.3
-10377.7
-10355.7
-10351.7
-10365.7
-10396.9
-10444.4
-10506.4
-10581.2
-10666.5
-10759.9
-10858.6
-10959.9
-11060.8
-11158.4
-11249.8
-11332
-11402.5
-11458.6
-11498.1
-11519
-11519.6
-11498.5
-11454.6
-11387
-11295.4
-11179.5
-11039.3
-10875.1
-10687.3
-10476.7
-10243.9
-9990
-9716.03
-9423.19
-9112.78
-8786.19
-8444.89
-8090.41
-7724.32
-7348.2
-6963.6
-6572.05
-6175
-5773.82
-5369.77
-4963.97
-4557.29
-4150.39
-3743.93
-3339
-2937.32
-2540.66
-2149.07
-1759.48
-1369.39
-981.479
-617.606
-234.59
-14596.1
-14576.4
-14565.4
-14560.4
-14557.2
-14558.2
-14581.1
-14629.5
-14688.8
-14750.8
-14808.4
-14853.1
-14880.3
-14879.6
-14856.5
-14779.2
-14659.6
-14509.2
-14331
-14128.5
-13906.8
-13670.2
-13420.2
-13157.7
-12885.2
-12617.1
-12349.1
-12106.7
-11890.8
-11702.5
-11544.2
-11404.5
-11276.1
-11155.1
-11038.7
-10925.4
-10815.6
-10710.9
-10613.8
-10527.3
-10454
-10396
-10355.1
-10332.5
-10328.4
-10343
-10375.4
-10424.7
-10489.2
-10567
-10655.9
-10753.4
-10856.6
-10962.8
-11068.9
-11171.9
-11268.7
-11356.5
-11432.4
-11493.8
-11538.4
-11564
-11569
-11551.8
-11511.4
-11446.8
-11357.7
-11243.7
-11104.9
-10941.7
-10754.4
-10543.8
-10310.7
-10056
-9780.92
-9486.62
-9174.44
-8845.8
-8502.21
-8145.23
-7776.47
-7397.53
-7010.02
-6615.49
-6215.42
-5811.21
-5404.16
-4995.39
-4585.81
-4176.09
-3766.89
-3359.28
-2954.95
-2555.69
-2161.62
-1769.73
-1377.48
-987.355
-621
-235.659
-14595.4
-14575.7
-14564.7
-14559.5
-14555.8
-14555.7
-14578.1
-14627.6
-14688.5
-14752.8
-14813.1
-14860.8
-14891.6
-14895.3
-14879
-14805.4
-14688.5
-14539.6
-14362.4
-14160.4
-13938.9
-13702.6
-13452.8
-13190.6
-12913.6
-12637.5
-12365.1
-12120.7
-11902.6
-11710.1
-11548.3
-11406
-11275.3
-11152.2
-11033.6
-10917.8
-10805.2
-10697.6
-10597.7
-10508.5
-10432.8
-10373
-10330.8
-10307.4
-10303.3
-10318.5
-10352.2
-10403.4
-10470.5
-10551.5
-10644.2
-10746
-10854.1
-10965.5
-11077.1
-11185.9
-11288.6
-11382.2
-11463.9
-11530.9
-11580.8
-11611.5
-11621
-11608
-11571.1
-11509.7
-11423.1
-11311.2
-11174
-11011.7
-10825
-10614.4
-10380.9
-10125.5
-9849.22
-9553.4
-9239.37
-8908.59
-8562.6
-8203
-7831.43
-7449.54
-7058.96
-6661.3
-6258.05
-5850.66
-5440.44
-5028.55
-4615.92
-4203.22
-3791.13
-3380.69
-2973.58
-2571.58
-2174.89
-1780.57
-1386.02
-993.547
-624.597
-236.83
-14594.6
-14574.9
-14563.9
-14558.5
-14554.5
-14553.1
-14575
-14625.7
-14688.3
-14754.7
-14817.8
-14868.7
-14903.2
-14911.4
-14901.7
-14832.5
-14719
-14572
-14396
-14194.8
-13973.5
-13737.4
-13487.8
-13225.9
-12945.4
-12661.1
-12383
-12135.3
-11915.2
-11718.4
-11552.9
-11407.7
-11274.5
-11149.1
-11028.1
-10909.6
-10794.1
-10683.4
-10580.4
-10488.3
-10410.1
-10348.3
-10304.6
-10280.4
-10276.2
-10292
-10327
-10380.2
-10450.1
-10534.6
-10631.3
-10737.7
-10850.9
-10967.9
-11085.4
-11200.2
-11309.1
-11409
-11496.8
-11569.7
-11625.3
-11661.2
-11675.5
-11666.8
-11633.8
-11575.6
-11491.8
-11382
-11246.4
-11085.2
-10899
-10688.6
-10454.7
-10198.5
-9921.01
-9623.61
-9307.65
-8974.64
-8626.14
-8263.79
-7889.28
-7504.29
-7110.5
-6709.53
-6302.95
-5892.21
-5478.65
-5063.48
-4647.63
-4231.8
-3816.67
-3403.26
-2993.21
-2588.34
-2188.89
-1792.01
-1395.02
-1000.06
-628.399
-238.108
-14594
-14574.1
-14563.2
-14557.5
-14553.2
-14550.6
-14571.9
-14623.8
-14688.1
-14756.7
-14822.5
-14876.7
-14914.9
-14927.8
-14924.3
-14860.1
-14750.6
-14606.1
-14431.6
-14231.5
-14010.6
-13774.7
-13525.2
-13263.4
-12980.2
-12687.8
-12403.1
-12150.8
-11928.6
-11727.5
-11557.9
-11409.8
-11273.9
-11145.9
-11022.3
-10900.9
-10782.1
-10668.1
-10561.8
-10466.7
-10385.7
-10321.7
-10276.5
-10251.4
-10247
-10263.4
-10299.8
-10355.2
-10427.9
-10516
-10617.1
-10728.4
-10847.1
-10969.9
-11093.6
-11214.9
-11330.3
-11436.7
-11531
-11610.1
-11671.5
-11713
-11732.4
-11728.2
-11699.2
-11644.5
-11563.5
-11456
-11322.1
-11162.2
-10976.6
-10766.3
-10532.1
-10275.1
-9996.38
-9697.33
-9379.37
-9044.03
-8692.91
-8327.69
-7950.09
-7561.85
-7164.69
-6760.26
-6350.17
-5935.9
-5518.84
-5100.2
-4680.97
-4261.85
-3843.52
-3426.98
-3013.86
-2605.97
-2203.63
-1804.04
-1404.48
-1006.88
-632.408
-239.493
-14593.3
-14573.3
-14562.5
-14556.5
-14552
-14548.2
-14568.9
-14622
-14687.9
-14758.7
-14827.3
-14884.9
-14926.9
-14944.6
-14946.7
-14888
-14783
-14641.5
-14469.1
-14270.4
-14050.1
-13814.5
-13565.3
-13303.4
-13018.1
-12717.8
-12425.7
-12167.4
-11943
-11737.4
-11563.5
-11412.1
-11273.3
-11142.6
-11016.2
-10891.6
-10769.4
-10651.8
-10541.9
-10443.5
-10359.6
-10293.2
-10246.3
-10220.2
-10215.7
-10232.6
-10270.4
-10328.1
-10403.9
-10495.8
-10601.4
-10718
-10842.4
-10971.4
-11101.7
-11229.7
-11352
-11465.3
-11566.2
-11651.9
-11719.5
-11766.7
-11791.5
-11792.2
-11767.4
-11716.3
-11638.4
-11533.4
-11401.4
-11242.7
-11057.9
-10847.8
-10613.3
-10355.4
-10075.4
-9774.69
-9454.64
-9116.86
-8763
-8394.78
-8013.95
-7622.3
-7221.59
-6813.53
-6399.75
-5981.78
-5561.03
-5138.76
-4715.97
-4293.39
-3871.7
-3451.87
-3035.53
-2624.48
-2219.1
-1816.67
-1414.39
-1014.03
-636.625
-240.989
-14592.5
-14572.4
-14561.7
-14555.4
-14550.9
-14546.1
-14566.1
-14620.3
-14687.7
-14760.6
-14832.1
-14893.3
-14939
-14961.6
-14968.7
-14916.1
-14816.2
-14678.2
-14508.2
-14311.3
-14091.9
-13856.9
-13608
-13345.9
-13058.8
-12751.2
-12451.3
-12185.7
-11958.5
-11748.3
-11569.6
-11414.7
-11272.7
-11139.1
-11009.7
-10881.8
-10755.9
-10634.4
-10520.7
-10418.7
-10331.7
-10262.8
-10214
-10186.8
-10181.9
-10199.5
-10238.8
-10298.8
-10377.9
-10473.8
-10584.3
-10706.3
-10836.7
-10972.3
-11109.4
-11244.5
-11374
-11494.4
-11602.4
-11694.9
-11769.1
-11822.4
-11852.8
-11858.6
-11838.3
-11791.2
-11716.5
-11614.1
-11484.2
-11326.9
-11142.9
-10933.1
-10698.2
-10439.6
-10158.3
-9855.79
-9533.57
-9193.25
-8836.52
-8465.15
-8080.94
-7685.72
-7281.29
-6869.41
-6451.76
-6029.9
-5605.28
-5179.19
-4752.66
-4326.45
-3901.22
-3477.96
-3058.24
-2643.88
-2235.31
-1829.9
-1424.77
-1021.51
-641.053
-242.597
-14591.7
-14571.5
-14560.9
-14554.3
-14549.9
-14544.2
-14563.4
-14618.7
-14687.5
-14762.6
-14837
-14901.8
-14951.3
-14979
-14990.2
-14944.5
-14849.9
-14715.8
-14548.8
-14354.1
-14136.1
-13901.9
-13653.6
-13391.1
-13102.4
-12788.2
-12480.4
-12206.1
-11975.5
-11760.2
-11576.3
-11417.6
-11272.3
-11135.5
-11003
-10871.4
-10741.6
-10615.9
-10498.1
-10392.2
-10301.9
-10230.2
-10179.4
-10150.9
-10145.8
-10163.9
-10204.8
-10267.3
-10349.8
-10450
-10565.5
-10693.2
-10830
-10972.3
-11116.6
-11259.1
-11396.1
-11524.1
-11639.5
-11739.2
-11820.2
-11880
-11916.3
-11927.5
-11912
-11869
-11797.9
-11698.4
-11570.6
-11414.9
-11231.9
-11022.3
-10787.2
-10527.7
-10245.1
-9940.75
-9616.27
-9273.3
-8913.57
-8538.9
-8151.14
-7752.17
-7343.84
-6927.96
-6506.24
-6080.3
-5651.62
-5221.52
-4791.07
-4361.04
-3932.11
-3505.24
-3081.99
-2664.17
-2252.28
-1843.73
-1435.61
-1029.31
-645.695
-244.318
-14591
-14570.6
-14560.2
-14553.2
-14549
-14542.5
-14560.9
-14617.2
-14687.3
-14764.6
-14842
-14910.5
-14963.8
-14996.7
-15011.2
-14973.1
-14884.1
-14754.3
-14590.7
-14398.6
-14182.5
-13949.6
-13702.3
-13439.5
-13149.2
-12828.9
-12513.6
-12229.1
-11994.2
-11773.3
-11583.5
-11420.7
-11271.8
-11131.8
-10995.9
-10860.5
-10726.4
-10596.3
-10474.1
-10364.1
-10270.1
-10195.4
-10142.3
-10112.6
-10107
-10125.7
-10168.3
-10233.4
-10319.5
-10424.3
-10545
-10678.8
-10822.1
-10971.5
-11123.2
-11273.4
-11418.3
-11554.1
-11677.3
-11784.5
-11872.8
-11939.4
-11982
-11998.9
-11988.6
-11950
-11882.6
-11786.2
-11660.8
-11506.8
-11324.8
-11115.6
-10880.3
-10619.9
-10335.9
-10029.7
-9702.85
-9357.1
-8994.24
-8616.11
-8224.64
-7821.74
-7409.33
-6989.24
-6563.26
-6133.03
-5700.09
-5265.79
-4831.22
-4397.19
-3964.39
-3533.75
-3106.8
-2685.37
-2269.99
-1858.17
-1446.91
-1037.43
-650.558
-246.153
-14590.3
-14569.7
-14559.4
-14552
-14548.1
-14541.1
-14558.7
-14615.7
-14687.1
-14766.6
-14847
-14919.2
-14976.5
-15014.5
-15031.6
-15002
-14918.8
-14793.6
-14633.8
-14444.9
-14231.2
-13999.9
-13753.9
-13491.1
-13199.4
-12873.6
-12551.1
-12255.3
-12015.1
-11787.6
-11591.3
-11424.1
-11271.4
-11127.9
-10988.4
-10848.9
-10710.3
-10575.4
-10448.5
-10334.1
-10236.2
-10158.2
-10102.7
-10071.6
-10065.6
-10085
-10129.3
-10197.2
-10287.1
-10396.5
-10522.8
-10662.7
-10812.9
-10969.7
-11129.1
-11287.4
-11440.4
-11584.5
-11715.8
-11831
-11926.9
-12000.7
-12050
-12073
-12068
-12034.2
-11970.9
-11877.8
-11754.9
-11602.7
-11421.8
-11213.1
-10977.5
-10716.3
-10430.9
-10122.7
-9793.42
-9444.78
-9078.64
-8696.9
-8301.53
-7894.52
-7477.81
-7053.32
-6622.87
-6188.15
-5750.74
-5312.03
-4873.16
-4434.94
-3998.08
-3563.49
-3132.68
-2707.47
-2288.47
-1873.22
-1458.68
-1045.89
-655.647
-248.105
-14589.6
-14568.7
-14558.6
-14550.9
-14547.2
-14539.9
-14556.7
-14614.4
-14686.9
-14768.5
-14852
-14928.1
-14989.4
-15032.3
-15051.4
-15031.2
-14953.7
-14833.5
-14678
-14492.6
-14281.9
-14052.7
-13808.4
-13546
-13253.1
-12922.7
-12592.6
-12285.6
-12038.6
-11803.2
-11599.6
-11427.7
-11271.1
-11123.9
-10980.7
-10836.8
-10693.4
-10553.4
-10421.4
-10302.2
-10200
-10118.6
-10060.6
-10027.9
-10021.5
-10041.6
-10087.7
-10158.6
-10252.4
-10366.7
-10498.6
-10645
-10802.3
-10966.7
-11134.2
-11300.8
-11462.4
-11615.1
-11755
-11878.5
-11982.4
-12063.8
-12120.2
-12149.7
-12150.5
-12121.8
-12062.7
-11973.1
-11853
-11702.8
-11523.2
-11314.9
-11079.2
-10817.1
-10530.2
-10220
-9888.12
-9536.45
-9166.87
-8781.35
-8381.91
-7970.58
-7549.39
-7120.28
-6685.14
-6245.72
-5803.63
-5360.3
-4916.91
-4474.31
-4033.19
-3594.47
-3159.64
-2730.49
-2307.7
-1888.88
-1470.91
-1054.67
-660.968
-250.172
-14588.8
-14567.8
-14557.8
-14549.8
-14546.2
-14538.9
-14555
-14613
-14686.6
-14770.3
-14856.9
-14937
-15002.4
-15050.1
-15071.1
-15060.8
-14989
-14874
-14723.2
-14541.9
-14334.6
-14107.9
-13865.7
-13604.1
-13310.6
-12976.7
-12637.9
-12320.8
-12065.2
-11820.4
-11608.3
-11431.5
-11270.7
-11119.7
-10972.6
-10824.1
-10675.5
-10530
-10392.6
-10268.3
-10161.6
-10076.4
-10015.7
-9981.44
-9974.65
-9995.58
-10043.7
-10117.6
-10215.4
-10334.7
-10472.5
-10625.6
-10790.2
-10962.4
-11138.3
-11313.6
-11484.1
-11645.8
-11794.7
-11927.1
-12039.5
-12128.9
-12192.8
-12229.1
-12236.1
-12212.7
-12158.3
-12072.4
-11955.3
-11807.2
-11628.9
-11421.2
-11185.3
-10922.4
-10633.9
-10321.6
-9987.06
-9632.24
-9259.07
-8869.59
-8465.88
-8050.04
-7624.14
-7190.2
-6750.15
-6305.79
-5858.8
-5410.64
-4962.51
-4515.32
-4069.76
-3626.73
-3187.69
-2754.44
-2327.7
-1905.15
-1483.6
-1063.79
-666.523
-252.357
-14588
-14566.9
-14556.9
-14548.8
-14545.2
-14538.1
-14553.6
-14611.7
-14686.2
-14772.1
-14861.9
-14946
-15015.5
-15068.1
-15091.2
-15090.5
-15024.3
-14915
-14769.3
-14592.5
-14389.3
-14165.4
-13925.6
-13665.3
-13371.4
-13035.7
-12687.5
-12361.1
-12095.2
-11839.5
-11617.4
-11435.3
-11270.2
-11115.2
-10964.2
-10810.7
-10656.7
-10505.3
-10362
-10232.2
-10120.8
-10031.7
-9968.19
-9932.3
-9925.15
-9946.93
-9997.02
-10074.1
-10176.1
-10300.5
-10444.4
-10604.2
-10776.4
-10956.8
-11141.3
-11325.7
-11505.6
-11676.7
-11835.1
-11976.7
-12098
-12196
-12267.8
-12311.3
-12324.8
-12307.2
-12257.6
-12175.8
-12061.8
-11916
-11739.1
-11532.1
-11296
-11032.2
-10742.2
-10427.7
-10090.4
-9732.27
-9355.35
-8961.74
-8553.56
-8132.99
-7702.16
-7263.15
-6817.95
-6368.43
-5916.3
-5463.08
-5010.01
-4558.01
-4107.8
-3660.26
-3216.84
-2779.32
-2348.47
-1922.04
-1496.76
-1073.23
-672.315
-254.659
-14587.2
-14565.9
-14556.1
-14547.9
-14544.1
-14537.4
-14552.5