/*--------------------------------*- C++ -*----------------------------------*\
| =========                 |                                                 |
| \\      /  F ield         | OpenFOAM: The Open Source CFD Toolbox           |
|  \\    /   O peration     | Version:  4.1                                   |
|   \\  /    A nd           | Web:      www.OpenFOAM.org                      |
|    \\/     M anipulation  |                                                 |
\*---------------------------------------------------------------------------*/
FoamFile
{
    version     2.0;
    format      ascii;
    class       surfaceScalarField;
    location    "2000";
    object      phi;
}
// * * * * * * * * * * * * * * * * * * * * * * * * * * * * * * * * * * * * * //

dimensions      [0 3 -1 0 0 0 0];

internalField   nonuniform List<scalar> 
52920
(
5687.46
-55.192
5735.3
-47.8121
5775.44
-40.1187
5814.39
-38.9054
5870.22
-55.7951
5964.89
-94.6338
6102.44
-137.516
6265.63
-163.156
6433.9
-168.241
6587.13
-153.188
6706.49
-119.332
6773.67
-67.1417
6773.38
0.324417
6698.69
74.7228
6544.62
154.102
6315.75
228.909
6017.82
297.95
5652.72
365.139
5225.15
427.594
4748.36
476.825
4245.74
502.649
3751.77
494.007
3326.36
425.433
2940.74
385.657
2428.47
512.294
179.276
2249.22
-3939.86
4119.16
-5724.66
1784.83
-5631.52
-93.093
-5762.95
131.477
-5935.18
172.282
-6096.85
161.723
-6263.97
167.159
-6439.7
175.782
-6628.52
188.853
-6830.17
201.696
-7043.31
213.176
-7266.83
223.554
-7500.5
233.71
-7744.89
244.42
-8000.93
256.076
-8269.6
268.708
-8551.7
282.12
-8847.7
296.029
-9157.84
310.165
-9482.13
324.318
-9820.42
338.342
-10172.6
352.141
-10538.2
365.655
-10917
378.836
-11308.6
391.639
-11712.6
404.01
-12128.5
415.886
-12555.7
427.193
-12993.5
437.857
-13441.3
447.806
-13898.3
456.985
-14363.7
465.359
-14836.6
472.924
-15316.3
479.708
-15802
485.768
-16293.2
491.181
-16789.3
496.034
-17289.7
500.402
-17794
504.331
-18301.8
507.819
-18812.6
510.802
-19325.8
513.152
-19840.5
514.685
-20355.6
515.175
-20870
514.379
-21382.1
512.067
-21890.1
508.046
-22392.3
502.177
-22886.7
494.389
-23371.4
484.688
-23844.6
473.161
-24304.5
459.987
-24750
445.442
-25179.9
429.901
-25593.7
413.818
-25991.4
397.682
-26373.3
381.947
-26740.3
366.973
-27093.3
352.996
-27433.5
340.163
-27762.1
328.591
-28080.5
318.415
-28390.2
309.752
-28692.8
302.594
-28989.5
296.702
-29281.1
291.587
-29567.8
286.715
-29849.7
281.912
-30127.3
277.578
-30401.7
274.385
-30672.9
271.225
-30936.8
263.847
-31176.8
239.978
247.108
5671.85
-107.228
5717.81
-93.7411
5757.91
-80.1872
5797.29
-78.2514
5852.16
-110.611
5943.72
-186.163
6077.03
-270.782
6236.22
-322.314
6401.82
-333.807
6554.45
-305.782
6675.76
-240.61
6747.44
-138.782
6753.67
-5.87292
6686.26
142.172
6539.05
301.349
6316.48
451.511
6021.99
592.473
5655.87
731.294
5220.18
863.309
4723.52
973.518
4183.65
1042.54
3639.04
1038.66
3137.45
927.046
2668.18
854.96
2066.68
1113.82
466.421
3849.5
-2326.65
6912.24
-4499.29
3957.5
-5211.48
619.142
-5467.2
387.252
-5696.81
401.946
-5892.25
357.217
-6084.59
359.544
-6279.42
370.66
-6482.14
391.611
-6694.52
414.119
-6916.79
435.484
-7148.93
455.731
-7391.21
476.028
-7644.2
497.45
-7908.59
520.496
-8184.97
545.12
-8473.79
570.965
-8775.31
597.575
-9089.66
624.547
-9416.89
651.572
-9756.94
678.445
-10109.8
705.031
-10475.4
731.237
-10853.5
756.973
-11244
782.14
-11646.6
806.612
-12060.9
830.239
-12486.5
852.844
-12922.9
874.249
-13369.4
894.28
-13825.2
912.797
-14289.5
929.702
-14761.6
944.96
-15240.5
958.6
-15725.4
970.714
-16215.7
981.437
-16710.5
990.928
-17209.5
999.331
-17711.9
1006.74
-18217.2
1013.17
-18725
1018.52
-19234.4
1022.59
-19744.8
1025.05
-20255.1
1025.52
-20764.3
1023.56
-21271
1018.75
-21773.7
1010.72
-22270.7
999.215
-22760.4
984.067
-23241
965.263
-23710.7
942.935
-24168.1
917.386
-24611.8
889.105
-25040.7
858.775
-25454.1
827.237
-25851.8
795.418
-26234.1
764.213
-26601.5
734.36
-26954.9
706.384
-27295.3
680.63
-27624.1
657.361
-27942.5
636.827
-28252
619.221
-28553.9
604.502
-28849.4
592.235
-29139.4
581.581
-29424.3
571.629
-29704.5
562.071
-29980.4
553.501
-30252.8
546.788
-30521.4
539.791
-30782.6
525.044
-31029.1
486.534
503.273
5643.18
-154.816
5685.27
-135.805
5722.4
-117.287
5759.05
-114.87
5810.46
-161.982
5897.85
-273.511
6027.11
-400.014
6183.17
-478.341
6347.1
-497.714
6499.95
-458.595
6623.45
-364.081
6698.87
-214.166
6709.61
-16.5756
6646.24
205.572
6501.35
446.266
6280.04
672.857
5984.36
888.176
5613.41
1102.28
5167.01
1309.74
4648.76
1491.8
4068.8
1622.53
3457.26
1650.23
2863.42
1520.91
2322.66
1395.76
1730.19
1706.32
413.266
5166.45
-1780.42
9105.94
-3727.55
5904.65
-4686.32
1577.95
-5111.39
812.365
-5408.17
698.762
-5652.05
601.147
-5875.91
583.444
-6092.84
587.625
-6310.94
609.751
-6534.67
637.882
-6766.23
667.079
-7006.85
696.379
-7257.36
726.571
-7518.42
758.547
-7790.53
792.633
-8073.99
828.608
-8368.98
865.981
-8675.59
904.208
-8993.87
942.847
-9323.86
981.59
-9665.61
1020.24
-10019.2
1058.68
-10384.8
1096.79
-10762.3
1134.48
-11151.7
1171.58
-11553
1207.88
-11965.8
1243.13
-12390
1277.03
-12825
1309.28
-13270.3
1339.56
-13725.1
1367.63
-14188.7
1393.3
-14660.2
1416.46
-15138.7
1437.11
-15623.4
1455.35
-16113.3
1471.35
-16607.7
1485.32
-17105.8
1497.44
-17606.9
1507.88
-18110.4
1516.68
-18615.7
1523.75
-19121.9
1528.84
-19628.4
1531.58
-20134.4
1531.45
-20638.7
1527.89
-21140.3
1520.35
-21637.9
1508.31
-22130.1
1491.37
-22615.3
1469.3
-23092
1442.02
-23558.8
1409.67
-24014
1372.62
-24456.4
1331.5
-24884.9
1287.22
-25298.6
1240.94
-25697.1
1193.97
-26080.5
1147.62
-26449.2
1103.02
-26803.9
1061.04
-27145.5
1022.28
-27475.3
987.171
-27794.6
956.076
-28104.6
929.234
-28406.7
906.566
-28701.9
887.488
-28991.2
870.919
-29275.3
855.695
-29554.6
841.388
-29829.8
828.629
-30101.2
818.196
-30368.5
807.101
-30629.2
785.765
-30881.1
738.38
764.883
5604.41
-197.809
5642.5
-173.868
5676.46
-151.207
5710.23
-148.604
5757.98
-209.683
5840.83
-356.319
5965.64
-524.787
6118.2
-630.875
6280.29
-659.764
6433.12
-611.391
6558.06
-488.99
6635.48
-291.549
6647.72
-28.7773
6583.98
269.35
6435.43
594.853
6208.69
899.633
5905.22
1191.67
5523.54
1484
5062.26
1771.05
4521.18
2032.91
3902.67
2241.06
3222.45
2330.48
2526.82
2216.56
1933.28
1989.33
1336.18
2303.45
139.749
6362.9
-1601.81
10847.5
-3170.54
7473.39
-4169.25
2576.7
-4734.11
1377.27
-5106.42
1071.11
-5403.95
898.731
-5662.17
841.708
-5901.63
827.125
-6134.76
842.924
-6369.25
872.408
-6609.48
907.351
-6857.96
944.894
-7116.12
984.755
-7384.71
1027.18
-7664.1
1072.05
-7954.34
1118.89
-8255.41
1167.07
-8567.2
1216.03
-8889.7
1265.37
-9222.92
1314.84
-9566.98
1364.34
-9922.08
1413.79
-10288.4
1463.11
-10666.1
1512.19
-11055.3
1560.81
-11456.1
1608.69
-11868.4
1655.47
-12292.1
1700.7
-12726.7
1743.93
-13171.9
1784.71
-13626.9
1822.64
-14091
1857.4
-14563.3
1888.79
-15042.9
1916.75
-15528.9
1941.31
-16020.2
1962.66
-16515.9
1981
-17015
1996.59
-17516.8
2009.63
-18020.3
2020.23
-18524.9
2028.32
-19029.8
2033.71
-19534.2
2036
-20037.4
2034.65
-20538.5
2029.04
-21036.7
2018.49
-21530.8
2002.4
-22019.7
1980.25
-22502
1951.7
-22976.6
1916.6
-23442
1875.05
-23896.8
1827.43
-24339.7
1774.44
-24769.7
1717.15
-25185.7
1656.93
-25587.1
1595.44
-25973.9
1534.36
-26346.1
1475.24
-26704.4
1419.32
-27049.6
1367.51
-27382.9
1320.44
-27705.4
1278.6
-28018.4
1242.27
-28323.2
1211.33
-28620.8
1185.11
-28912.3
1162.37
-29198.3
1141.76
-29479.7
1122.73
-29756.9
1105.8
-30030.2
1091.5
-30299.3
1076.29
-30563
1049.41
-30821.3
996.641
1031.87
5556.45
-235.71
5590.24
-207.635
5620.83
-181.76
5651.18
-178.918
5693.94
-252.402
5770.84
-433.194
5890.92
-644.829
6041.15
-781.073
6203.43
-822.025
6358.36
-766.288
6486.16
-616.758
6565.96
-371.313
6579.07
-41.8556
6513.23
335.215
6357.91
750.204
6121.7
1135.88
5805.42
1507.98
5407.14
1882.31
4924.87
2253.35
4356.73
2601.08
3699.58
2898.23
2951.99
3078.11
2141.58
3026.99
1451.4
2679.55
803.907
2950.96
-267.765
7434.59
-1567.96
12147.7
-2742.9
8648.34
-3694.81
3528.63
-4358.66
2041.15
-4810.25
1522.73
-5161.48
1250
-5453.19
1133.45
-5713.89
1087.86
-5960.93
1089.99
-6205.33
1116.85
-6453.63
1155.68
-6709.51
1200.81
-6974.96
1250.23
-7250.86
1303.11
-7537.46
1358.67
-7834.61
1416.06
-8142.07
1474.56
-8459.61
1533.59
-8787.1
1592.87
-9124.53
1652.3
-9472.02
1711.88
-9829.86
1771.63
-10198.3
1831.55
-10577.6
1891.51
-10968
1951.3
-11369.9
2010.53
-11783.1
2068.74
-12207.8
2125.34
-12643.6
2179.73
-13090.1
2231.28
-13546.9
2279.41
-14013.1
2323.65
-14488
2363.65
-14970.5
2399.23
-15459.5
2430.35
-15954
2457.13
-16452.8
2479.78
-16954.7
2498.57
-17458.9
2513.76
-17964.2
2525.52
-18469.7
2533.92
-18974.9
2538.81
-19478.7
2539.88
-19980.7
2536.62
-20480.1
2528.4
-20976.1
2514.5
-21467.9
2494.22
-21954.6
2466.96
-22435.2
2432.26
-22908.5
2389.89
-23373.3
2339.86
-23828.4
2282.51
-24272.5
2218.56
-24704.5
2149.14
-25123.3
2075.8
-25528.3
2000.44
-25919.1
1925.1
-26295.6
1851.73
-26658.2
1781.98
-27007.8
1717.11
-27345.4
1657.99
-27672
1605.25
-27989
1559.2
-28297.3
1519.71
-28598.3
1486.04
-28892.8
1456.89
-29181.8
1430.77
-29466
1406.96
-29746
1385.79
-30022
1367.5
-30294
1348.24
-30561.3
1316.69
-30825.3
1260.67
1303.45
5483.3
-266.664
5512.57
-236.871
5539.99
-209.147
5567.98
-206.863
5608.82
-293.194
5685.18
-509.521
5807.04
-766.642
5960.85
-934.859
6127.73
-988.865
6287.32
-925.841
6418.91
-748.321
6500.97
-453.336
6514.38
-55.2253
6445.49
404.142
6282.46
913.271
6035.86
1382.52
5705.11
1838.76
5287.36
2300.1
4779.39
2761.35
4178.99
3201.51
3481.69
3595.56
2673.68
3886.14
1744.82
3955.88
887.265
3537.14
175.109
3663.15
-681.872
8291.59
-1563.28
13029.1
-2415.03
9500.11
-3301.83
4415.46
-4025.19
2764.55
-4540.61
2038.18
-4936.24
1645.68
-5255.98
1453.23
-5534.6
1366.52
-5793.54
1348.97
-6046.66
1370
-6302.29
1411.34
-6565.15
1463.71
-6837.69
1522.8
-7120.89
1586.34
-7414.89
1652.69
-7719.37
1720.58
-8033.92
1789.13
-8358.14
1857.83
-8691.79
1926.54
-9034.8
1995.34
-9387.27
2064.39
-9749.49
2133.86
-10121.7
2203.82
-10504.4
2274.21
-10897.9
2344.78
-11302.5
2415.1
-11718.3
2484.6
-12145.5
2552.57
-12584
2618.21
-13033.4
2680.72
-13493.3
2739.33
-13963
2793.37
-14441.7
2842.31
-14928.3
2885.81
-15421.6
2923.69
-15920.4
2955.97
-16423.5
2982.83
-16929.5
3004.54
-17437.1
3021.42
-17945.4
3033.76
-18453.2
3041.72
-18959.7
3045.33
-19464.2
3044.38
-19966
3038.48
-20464.7
3027.04
-20959.5
3009.34
-21449.9
2984.63
-21935.2
2952.24
-22414.5
2911.59
-22887
2862.35
-23351.6
2804.43
-23807.2
2738.11
-24252.6
2664.04
-24686.9
2583.37
-25108.8
2497.74
-25517.6
2409.24
-25912.7
2320.2
-26294
2232.98
-26661.6
2149.63
-27016.3
2071.78
-27358.9
2000.61
-27690.6
1936.87
-28012.3
1880.95
-28325.3
1832.72
-28630.7
1791.42
-28929.5
1755.69
-29222.7
1723.97
-29511.1
1695.35
-29795.2
1669.91
-30075.3
1647.58
-30351.5
1624.42
-30623.7
1588.94
-30893.9
1530.84
1580.12
5421.24
-294.19
5447.49
-263.091
5472.69
-234.314
5498.63
-232.778
5537.2
-331.714
5612.08
-584.371
5734.38
-888.913
5890.14
-1090.6
6059.7
-1158.4
6221.84
-1087.96
6354.99
-881.437
6437.14
-535.46
6448.97
-67.0212
6375.4
477.746
6204.29
1084.4
5947.92
1638.93
5604.84
2181.87
5170.33
2734.63
4637.98
3293.73
4004.67
3834.85
3268.67
4331.58
2418.78
4736.06
1413.94
4960.74
356.977
4594.14
-438.348
4458.5
-1037
8890.26
-1560.07
13552.2
-2190.06
10130.1
-3022.04
5247.46
-3763.71
3506.24
-4312.81
2587.31
-4736
2068.9
-5074.99
1792.24
-5366.77
1658.33
-5635
1617.23
-5895.39
1630.42
-6157.56
1673.53
-6427.03
1733.2
-6706.58
1802.38
-6997.26
1877.05
-7299.1
1954.56
-7611.62
2033.13
-7934.21
2111.74
-8266.32
2189.95
-8607.55
2267.8
-8957.74
2345.55
-9316.91
2423.6
-9685.32
2502.27
-10063.2
2581.76
-10451.1
2662.08
-10849.3
2743
-11258.2
2824.05
-11678.2
2904.58
-12109.4
2983.75
-12551.7
3060.59
-13005.2
3134.12
-13469.2
3203.35
-13943.2
3267.39
-14426.4
3325.49
-14917.6
3377.1
-15415.8
3421.87
-15919.6
3459.71
-16427.4
3490.69
-16938
3515.08
-17449.8
3533.26
-17961.7
3545.61
-18472.4
3552.48
-18981.2
3554.06
-19487.1
3550.34
-19989.7
3541.06
-20488.4
3525.75
-20982.8
3503.73
-21472.4
3474.25
-21956.8
3436.56
-22435.2
3390.02
-22907
3334.17
-23371.4
3268.81
-23827.4
3194.1
-24274
3110.63
-24710.1
3019.49
-25134.7
2922.35
-25546.9
2821.41
-25945.9
2719.28
-26331.6
2618.64
-26703.9
2521.96
-27063.4
2431.28
-27410.9
2348.07
-27747.3
2273.28
-28073.7
2207.38
-28391.3
2150.26
-28701
2101.14
-29004
2058.67
-29301.2
2021.21
-29593.5
1987.69
-29881.5
1957.88
-30165.4
1931.43
-30445.4
1904.47
-30722
1865.49
-30997.1
1805.96
1861.05
5356.28
-318.627
5379.92
-286.696
5403.25
-257.608
5427.44
-256.929
5463.85
-368.069
5537.17
-657.656
5659.75
-1011.45
5817.29
-1248.1
5989.39
-1330.46
6153.75
-1252.28
6287.7
-1015.35
6368.84
-616.57
6377.8
-75.9437
6297.92
557.667
6117.71
1264.65
5851.21
1905.46
5497.33
2535.78
5049.29
3182.71
4496.9
3846.14
3835.99
4495.79
3069.04
5098.55
2201.07
5604.05
1199.14
5962.7
63.0788
5730.22
-803.169
5324.77
-1269.55
9356.65
-1561.34
13844
-2063.37
10632.2
-2852.27
6036.38
-3575.26
4229.26
-4129.12
3141.19
-4563.11
2502.92
-4912.21
2141.39
-5212.12
1958.28
-5486.9
1892.05
-5753.08
1896.63
-6021.05
1941.54
-6296.85
2009.03
-6583.47
2089.03
-6881.97
2175.58
-7192.27
2264.88
-7513.69
2354.58
-7845.43
2443.51
-8186.74
2531.29
-8537.06
2618.14
-8896.06
2704.58
-9263.64
2791.22
-9639.97
2878.6
-10025.3
2967.09
-10420
3056.78
-10824.4
3147.5
-11239.2
3238.79
-11664.5
3329.92
-12100.7
3419.95
-12547.8
3507.76
-13005.9
3592.17
-13474.5
3671.97
-13953.1
3746.03
-14441
3813.35
-14937
3873.15
-15440
3924.88
-15948.6
3968.26
-16461.2
4003.26
-16976.2
4030.13
-17492.2
4049.26
-18007.8
4061.17
-18521.7
4066.37
-19032.9
4065.26
-19540.6
4058.06
-20044.2
4044.69
-20543.3
4024.84
-21037.5
3997.94
-21526.5
3963.25
-22010
3919.99
-22487.4
3867.44
-22958.2
3805.04
-23421.9
3732.47
-23877.6
3649.77
-24324.4
3557.41
-24761.3
3456.4
-25187.3
3348.39
-25601.6
3235.66
-26003.3
3120.99
-26392
3007.38
-26767.8
2897.71
-27130.9
2794.39
-27482.1
2699.25
-27822.2
2613.44
-28152.4
2537.52
-28473.5
2471.43
-28786.8
2414.4
-29093.2
2365.07
-29393.8
2321.78
-29689.4
2283.28
-29980.5
2249.05
-30267.6
2218.48
-30551
2187.86
-30831.2
2145.68
-31110.2
2084.97
2145.91
5288.98
-340.254
5310.42
-308.106
5332.25
-279.404
5354.88
-279.532
5388.64
-401.791
5459.51
-728.489
5582.25
-1134.17
5742.59
-1408.42
5918.52
-1506.36
6085.7
-1419.44
6220.12
-1149.74
6299.38
-695.806
6304.59
-81.1179
6217.15
645.129
6026.8
1455.04
5749.2
2183.09
5383.12
2901.88
4920.22
3645.64
4349.58
4416.8
3669.05
5176.35
2884.71
5882.91
2017.68
6471.1
1060.12
6920.28
-54.4589
6844.82
-957.108
6227.44
-1400.77
9800.34
-1579.63
14022.9
-2015.63
11068.2
-2763.31
6784.07
-3444.02
4909.98
-3983.81
3681.01
-4416.3
2935.44
-4768.11
2493.21
-5071.7
2261.9
-5350.51
2170.88
-5621.12
2167.26
-5894.27
2214.71
-6176.24
2291.03
-6470.12
2382.94
-6776.91
2482.39
-7096.36
2584.35
-7427.6
2685.85
-7769.61
2785.54
-8121.41
2883.1
-8482.22
2978.96
-8851.51
3073.89
-9229.02
3168.77
-9614.79
3264.37
-10008.9
3361.24
-10411.8
3459.65
-10823.8
3559.51
-11245.4
3660.38
-11676.9
3761.5
-12118.8
3861.86
-12571.2
3960.18
-13034.2
4055.11
-13507.4
4145.21
-13990.5
4229.09
-14482.6
4305.51
-14982.9
4373.42
-15490
4432.01
-16002.6
4480.83
-16519
4519.71
-17037.7
4548.82
-17557.1
4568.61
-18075.6
4579.68
-18592
4582.72
-19105.1
4578.38
-19614.1
4567.08
-20118.4
4549.01
-20617.6
4524.03
-21111.3
4491.68
-21599.4
4451.32
-22081.6
4402.13
-22557.5
4343.36
-23026.8
4274.33
-23488.9
4194.63
-23943.3
4104.16
-24389.2
4003.27
-24825.6
3892.88
-25251.8
3774.57
-25666.8
3650.64
-26069.8
3524.03
-26460.5
3398
-26838.5
3275.78
-27204.3
3160.19
-27558.4
3053.36
-27901.7
2956.7
-28235.1
2870.89
-28559.6
2795.9
-28876.2
2731
-29185.9
2674.84
-29489.9
2625.74
-29788.9
2582.31
-30083.6
2543.74
-30374.3
2509.15
-30661.5
2475.11
-30945.8
2429.98
-31228.9
2368.04
2434.76
5218.55
-358.16
5237.29
-326.808
5257.3
-299.373
5277.36
-299.555
5307.01
-431.382
5375.86
-797.303
5502.02
-1260.29
5668.77
-1575.14
5850.14
-1687.69
6019.37
-1588.64
6152.16
-1282.49
6227.48
-771.097
6227.87
-81.4689
6132.73
740.311
5933.15
1654.66
5645.25
2471.03
5265.41
3281.76
4783.81
4127.27
4194.48
5006.16
3503.91
5866.94
2720.84
6666
1871.14
7320.82
969.191
7822.25
-78.4997
7892.53
-990.293
7139.25
-1473.28
10283.3
-1621.3
14170.9
-2020.82
11467.7
-2723.63
7486.9
-3353.38
5539.76
-3869.87
4197.52
-4293.19
3358.8
-4642.4
2842.45
-4946.2
2565.74
-5226.95
2451.66
-5500.89
2441.23
-5778.75
2492.6
-6066.87
2579.18
-6368.3
2684.39
-6683.9
2798.01
-7013.22
2913.7
-7355.18
3027.83
-7708.47
3138.85
-8071.87
3246.52
-8444.36
3351.46
-8825.16
3454.72
-9213.81
3557.46
-9610.17
3660.73
-10014.2
3765.33
-10426.3
3871.69
-10846.6
3979.86
-11275.7
4089.47
-11713.9
4199.78
-12161.8
4309.69
-12619.4
4417.84
-13087
4522.67
-13564.3
4622.53
-14051
4715.81
-14546.4
4800.97
-15049.7
4876.68
-15559.6
4941.91
-16074.7
4995.95
-16593.5
5038.5
-17114.3
5069.65
-17635.6
5089.84
-18155.7
5099.79
-18673.3
5100.36
-19187.3
5092.41
-19696.9
5076.62
-20201.3
5053.41
-20700.1
5022.85
-21193.1
4984.66
-21680
4938.24
-22160.7
4882.84
-22635
4817.65
-23102.6
4741.94
-23563.2
4655.19
-24016.2
4557.21
-24461.2
4448.2
-24897.3
4329
-25323.8
4201.09
-25739.9
4066.76
-26144.9
3929.03
-26538.3
3791.36
-26919.8
3657.3
-27289.6
3530.01
-27648.2
3411.98
-27996.4
3304.87
-28335
3209.48
-28664.9
3125.84
-28987.2
3053.29
-29302.9
2990.51
-29613
2935.84
-29918.5
2887.79
-30219.9
2845.2
-30517.7
2806.9
-30812.3
2769.76
-31104.4
2722.04
-31394.8
2658.46
2729.53
5126.76
-371.425
5143.78
-343.805
5163.01
-318.575
5183
-319.505
5214.58
-462.921
5289.63
-872.324
5425.24
-1395.87
5599.68
-1749.56
5783.73
-1871.71
5950.41
-1755.3
6077.16
-1409.22
6145.58
-839.482
6140.14
-76.0011
6038.07
842.407
5831.83
1860.93
5536.66
2766.23
5144.06
3674.39
4642.58
4628.78
4036.8
5611.96
3348.75
6555.01
2589.4
7425.37
1773.81
8136.45
924.101
8671.97
-48.8756
8865.53
-958.447
8048.84
-1512.73
10837.6
-1678.49
14336.7
-2053.52
11842.8
-2711.46
8144.85
-3291.81
6120.12
-3781.8
4687.52
-4191.59
3768.62
-4534.69
3185.57
-4836.17
2867.23
-5117.27
2732.78
-5393.72
2717.71
-5676.03
2774.93
-5970.42
2873.59
-6279.76
2993.76
-6604.73
3123
-6944.62
3253.61
-7298.07
3381.3
-7663.5
3504.3
-8039.38
3622.42
-8424.42
3736.51
-8817.58
3847.91
-9218.17
3958.09
-9625.84
4068.4
-10040.4
4179.92
-10462
4293.32
-10891
4408.81
-11327.6
4526.14
-11772.4
4644.6
-12225.8
4763.07
-12688.1
4880.09
-13159.4
4993.97
-13639.7
5102.85
-14128.7
5204.87
-14626
5298.23
-15130.6
5381.32
-15641.6
5452.84
-16157.5
5511.88
-16677
5557.96
-17198.4
5591.07
-17720.2
5611.65
-18240.9
5620.48
-18759.1
5618.57
-19273.7
5606.97
-19783.7
5586.61
-20288.4
5558.14
-20787.4
5521.83
-21280.3
5477.59
-21767
5424.95
-22247.4
5363.22
-22721.4
5291.6
-23188.7
5209.32
-23649.3
5115.8
-24102.9
5010.76
-24549
4894.29
-24987.1
4767.1
-25416.6
4630.57
-25836.7
4486.92
-26246.9
4339.15
-26646.4
4190.86
-27034.9
4045.83
-27412.5
3907.57
-27779.4
3778.91
-28136.3
3661.76
-28483.9
3557.11
-28823.2
3465.1
-29155
3385.12
-29480.4
3315.93
-29800.5
3255.95
-30116.3
3203.56
-30428.4
3157.26
-30736.9
3115.46
-31042.6
3075.4
-31345.9
3025.31
-31646.7
2959.29
3031.61
5057.21
-383.618
5073.18
-359.74
5091.68
-337.032
5110.58
-338.356
5141.15
-493.438
5217.47
-948.602
5356.53
-1534.89
5532.1
-1925.1
5712.31
-2051.9
5871.2
-1914.15
5988.89
-1526.88
6049.57
-900.118
6039.23
-65.6314
5932.02
949.665
5720.87
2072.11
5420.13
3067.01
5016.62
4077.93
4498.87
5146.55
3885.51
6225.35
3216.74
7223.8
2504.96
8137.17
1740.44
8900.99
933.917
9478.51
19.3256
9780.14
-900.271
8968.45
-1548.35
11485.7
-1749.35
14537.7
-2098.92
12192.3
-2715.15
8761.1
-3252.4
6657.39
-3715.88
5151.03
-4109.91
4162.68
-4444.71
3520.4
-4742.15
3164.7
-5022.5
3013.16
-5300.95
2996.19
-5587.65
3061.66
-5888.54
3174.51
-6206.25
3311.49
-6541.14
3457.92
-6892.23
3604.72
-7257.82
3746.91
-7636
3882.51
-8024.94
4011.38
-8423.04
4134.62
-8828.97
4253.86
-9241.77
4370.93
-9660.88
4487.51
-10085.9
4605
-10516.9
4724.33
-10954.1
4845.95
-11397.7
4969.76
-11848.2
5095.14
-12306.1
5220.98
-12771.8
5345.78
-13245.5
5467.71
-13727.4
5584.74
-14217.3
5694.79
-14714.9
5795.79
-15219.4
5885.89
-15730.1
5963.52
-16245.8
6027.54
-16765.1
6077.3
-17286.7
6112.67
-17809.1
6134.03
-18330.8
6142.2
-18850.5
6138.25
-19366.9
6123.4
-19879.1
6098.76
-20386.1
6065.19
-20887.5
6023.22
-21382.8
5972.94
-21872
5914.06
-22354.7
5846.01
-22831.2
5768.07
-23301.4
5679.47
-23765.2
5579.6
-24222.5
5468.1
-24673.2
5344.96
-25116.8
5210.73
-25552.9
5066.64
-25980.7
4914.74
-26399.5
4757.98
-26808.6
4599.97
-27207.5
4444.69
-27595.8
4295.93
-27973.8
4156.89
-28341.9
4029.81
-28700.7
3915.91
-29051.1
3815.46
-29393.9
3727.96
-29730.2
3652.28
-30061.2
3586.88
-30387.7
3530.08
-30710.4
3479.98
-31029.5
3434.51
-31345.4
3391.3
-31658.8
3338.71
-31968.8
3269.31
3339.94
4987.86
-395.017
5003.09
-374.943
5021.13
-355.039
5038.86
-356.06
5067.69
-522.226
5144.07
-1024.95
5284.57
-1675.36
5457.68
-2098.18
5630.29
-2224.49
5780.27
-2064.11
5891.5
-1638.08
5949.23
-957.821
5939.19
-55.5629
5830.25
1058.64
5613.24
2289.15
5302.38
3377.9
4884.97
4495.37
4356.11
5675.43
3749.88
6831.6
3119.93
7853.77
2477.11
8780.02
1778.71
9599.4
1005.82
10251.4
118.115
10667.9
-839.035
9925.62
-1589.59
12236.3
-1826.53
14774.7
-2149.84
12515.7
-2729.74
9341.02
-3231.4
7159.06
-3669.82
5589.46
-4047.16
4540.04
-4372.33
3845.58
-4664.66
3457.05
-4943.59
3292.12
-5223.81
3276.43
-5515.02
3352.89
-5822.8
3482.3
-6149.39
3638.09
-6494.78
3803.33
-6857.61
3967.57
-7235.81
4125.12
-7627.12
4273.83
-8029.34
4413.62
-8440.54
4545.83
-8859.1
4672.44
-9283.78
4795.64
-9713.78
4917.51
-10148.5
5039.79
-10588
5163.76
-11032.2
5290.14
-11481.4
5419.05
-11936.3
5550.02
-12397.3
5682
-12865
5813.48
-13339.9
5942.53
-13822.1
6066.99
-14311.9
6184.54
-14809
6292.91
-15313.1
6389.97
-15823.4
6473.91
-16339.3
6543.36
-16859.4
6597.45
-17382.7
6635.9
-17907.6
6658.97
-18432.8
6667.39
-18956.8
6662.26
-19478.2
6644.85
-19995.9
6616.42
-20508.8
6578.05
-21016
6530.5
-21517.2
6474.13
-22012.1
6408.91
-22500.5
6334.45
-22982.6
6250.15
-23458.5
6155.32
-23928.2
6049.33
-24391.8
5931.73
-24849.3
5802.4
-25300.2
5661.7
-25744.2
5510.64
-26180.6
5351.08
-26608.4
5185.78
-27026.7
5018.34
-27434.9
4852.87
-27832.5
4693.48
-28219.3
4543.76
-28595.8
4406.32
-28962.6
4282.68
-29320.4
4173.27
-29670.2
4077.71
-30012.9
3994.99
-30349.6
3923.61
-30681.3
3861.8
-31008.6
3807.29
-31331.7
3757.57
-31651
3710.59
-31967.3
3655.04
-32279.8
3581.84
3650.2
4919.04
-405.821
4933.89
-389.757
4951.67
-372.771
4967.83
-372.171
4993.8
-548.14
5068.86
-1099.97
5208.04
-1814.51
5374.65
-2264.75
5539.2
-2389.01
5687.47
-2212.35
5805.26
-1755.83
5873.82
-1026.35
5874.49
-56.1945
5768.04
1165.13
5539.39
2517.84
5204.36
3712.96
4761.79
4937.98
4224.8
6212.45
3641.65
7414.77
3067.63
8427.82
2506.93
9340.74
1883.72
10222.6
1137.26
10997.9
237.814
11567.3
-797.859
10961.3
-1646.46
13084.9
-1904.02
15032.2
-2203.26
12814.9
-2753.75
9891.53
-3226.89
7632.22
-3642.27
6004.87
-4002.79
4900.59
-4317.57
4160.38
-4604.18
3743.7
-4881.38
3569.34
-5163.4
3558.48
-5459.45
3648.96
-5774.61
3797.5
-6110.65
3974.15
-6467.09
4159.8
-6842.11
4342.61
-7233.2
4516.24
-7637.68
4678.34
-8052.99
4828.95
-8476.83
4969.68
-8907.26
5102.9
-9342.8
5231.21
-9782.41
5357.13
-10225.4
5482.83
-10671.7
5610.01
-11121.2
5739.73
-11574.6
5872.4
-12032.3
6007.76
-12495.2
6144.87
-12963.9
6282.22
-13439.2
6417.84
-13921.6
6549.39
-14411.4
6674.39
-14908.8
6790.32
-15413.7
6894.81
-15925.5
6985.78
-16443.8
7061.61
-16967.5
7121.16
-17495.5
7163.91
-18026.4
7189.89
-18558.7
7199.67
-19090.7
7194.24
-19620.7
7174.88
-20147.2
7142.95
-20669
7099.76
-21184.8
7046.37
-21694.2
6983.48
-22196.7
6911.38
-22692.2
6829.96
-23180.8
6738.8
-23662.8
6637.3
-24138.3
6524.81
-24607.3
6400.79
-25069.9
6264.99
-25525.8
6117.53
-25974.3
5959.2
-26414.8
5791.58
-26846.3
5617.29
-27267.9
5439.88
-27678.6
5263.59
-28078
5092.88
-28466
4931.74
-28842.9
4783.21
-29209.3
4649.1
-29566.1
4530.05
-29914.1
4425.78
-30254.5
4335.33
-30588.1
4257.26
-30916
4189.68
-31238.8
4130.05
-31556.8
4075.52
-31870.4
4024.27
-32180.8
3965.4
-32488
3889.02
3957.52
4849.66
-415.04
4863.3
-403.371
4879.93
-389.372
4893.17
-385.38
4915.87
-570.796
4989.26
-1173.33
5124.01
-1949.24
5283.32
-2424.04
5450.98
-2556.66
5621.16
-2382.5
5772.86
-1907.51
5875.01
-1128.48
5899.55
-80.7028
5796.73
1267.97
5542.75
2771.85
5159.8
4095.94
4674.16
5423.64
4128.9
6757.73
3580.51
7963.18
3070.24
8938.11
2590.33
9820.65
2040
10773
1314.51
11723.4
366.655
12515.2
-793.239
12121.2
-1726.13
14017.8
-1979.53
15285.6
-2259.71
13095.1
-2787.5
10419.3
-3238.19
8082.92
-3632.57
6399.25
-3976.53
5244.56
-4280.51
4464.38
-4561.12
4024.33
-4836.53
3844.77
-5120.59
3842.55
-5421.95
3950.34
-5745.11
4120.68
-6091.21
4320.27
-6459.2
4527.81
-6846.72
4730.14
-7250.73
4920.26
-7668.08
5095.71
-8095.8
5256.67
-8531.22
5405.11
-8972.13
5543.83
-9416.83
5675.94
-9864.18
5804.48
-10313.5
5932.16
-10764.6
6061.15
-11217.9
6192.98
-11673.9
6328.4
-12133.5
6467.39
-12597.8
6609.14
-13067.7
6752.15
-13544.2
6894.35
-14028.1
7033.28
-14519.9
7166.21
-15020
7290.4
-15528.4
7403.21
-16044.9
7502.27
-16568.9
7585.63
-17099.6
7651.84
-17635.7
7700
-18175.6
7729.84
-18717.6
7741.66
-19259.7
7736.28
-19799.7
7714.94
-20335.9
7679.13
-20866.6
7630.43
-21390.5
7570.28
-21906.8
7499.8
-22415.1
7419.7
-22915.3
7330.19
-23407.6
7231.05
-23892.1
7121.79
-24369
7001.72
-24838.4
6870.22
-25300.3
6726.82
-25754.2
6571.47
-26199.7
6404.68
-26636
6227.86
-27062.1
6043.46
-27477.3
5855.04
-27880.8
5667.05
-28272.2
5484.27
-28651.5
5311.12
-29019.4
5151.03
-29376.3
5006.09
-29723.4
4877.1
-30061.5
4763.84
-30391.5
4665.4
-30714.6
4580.3
-31031.5
4506.61
-31343
4441.58
-31649.7
4382.16
-31952.1
4326.67
-32251.3
4264.6
-32548.8
4186.58
4259.13
4763.23
-422.536
4777.23
-417.335
4793.91
-406.005
4807.81
-399.233
4833.29
-596.221
4905.58
-1245.58
5033.07
-2076.68
5195.9
-2586.84
5398.11
-2758.84
5629.85
-2614.21
5848.53
-2126.16
6005.84
-1285.76
6063.9
-138.723
5961.4
1370.52
5664.08
3069.21
5208.01
4552.04
4662.08
5969.59
4106.03
7313.81
3594.8
8474.43
3141.64
9391.3
2723.71
10238.6
2228.88
11267.8
1516.95
12435.3
494.499
13537.7
-826.087
13441.8
-1827.07
15018.8
-2053.67
15512.2
-2321.58
13363
-2832.19
10930
-3265.39
8516.14
-3640.43
6774.32
-3968.27
5572.43
-4261.22
4757.35
-4535.73
4298.87
-4809.5
4118.56
-5095.98
4129.06
-5403.24
4257.62
-5735.06
4452.52
-6091.82
4677.06
-6471.79
4907.8
-6871.9
5130.27
-7288.52
5336.91
-7718
5525.21
-8156.92
5695.61
-8602.3
5850.52
-9051.75
5993.3
-9503.48
6127.7
-9956.4
6257.41
-10410
6385.77
-10864.4
6515.55
-11320.2
6648.77
-11778.3
6786.58
-12240.1
6929.17
-12706.8
7075.82
-13179.6
7224.98
-13659.7
7374.44
-14147.9
7521.5
-14644.9
7663.21
-15151
7796.54
-15666.4
7918.54
-16190.6
8026.53
-16723.1
8118.16
-17262.9
8191.57
-17808.3
8245.47
-18357.7
8279.17
-18908.7
8292.66
-19459
8286.61
-20006.3
8262.24
-20548.4
8221.25
-21083.6
8165.59
-21610.4
8097.14
-22128.2
8017.56
-22636.4
7927.97
-23135.2
7828.92
-23624.5
7720.42
-24104.8
7602.01
-24576
7472.97
-25038.3
7332.53
-25491.6
7180.08
-25935.5
7015.36
-26369.5
6838.7
-26793
6651.37
-27205.3
6455.78
-27605.8
6255.56
-27994.2
6055.37
-28370.2
5860.34
-28734.4
5675.25
-29087.2
5503.86
-29429.6
5348.47
-29762.4
5209.95
-30086.7
5088.11
-30403.3
4982.02
-30713.2
4890.21
-31017.3
4810.69
-31316.4
4740.65
-31611.1
4676.89
-31902.2
4617.76
-32190.7
4553.1
-32479.4
4475.25
4555.22
4700.11
-430.809
4713.91
-431.106
4730.18
-422.243
4743.73
-412.748
4764.35
-616.811
4821.9
-1303.1
4943.76
-2198.52
5142.12
-2785.19
5425.15
-3041.85
5752.99
-2942.02
6053.77
-2426.93
6270.15
-1502.11
6362.66
-231.21
6260.02
1473.18
5914.33
3414.92
5379.48
5086.91
4770.58
6578.51
4200.7
7883.72
3715.46
8959.69
3295.88
9810.89
2905.42
10629.1
2434.9
11738.4
1723.78
13146.5
617.316
14644.1
-879.696
14938.8
-1940.39
16079.5
-2130.12
15702
-2391.78
13624.7
-2889.38
11427.6
-3309.04
8935.8
-3665.9
7131.19
-3977.98
5884.52
-4259.71
5039.09
-4528.09
4567.26
-4800.46
4390.95
-5089.84
4418.45
-5403.62
4571.41
-5744.74
4793.66
-6112.69
5045.02
-6504.84
5299.96
-6917.34
5542.79
-7345.89
5765.48
-7786.28
5965.61
-8234.71
6144.05
-8688.02
6303.83
-9143.76
6449.06
-9600.31
6584.27
-10056.9
6713.95
-10513.3
6842.19
-10970.1
6972.42
-11428.5
7107.16
-11889.8
7247.88
-12355.5
7394.89
-12827.1
7547.44
-13305.9
7703.79
-13793
7861.48
-14289
8017.51
-14794.4
8168.64
-15309.4
8311.52
-15833.8
8442.9
-16366.9
8559.7
-16908
8659.21
-17455.5
8739.12
-18007.8
8797.69
-18562.5
8833.87
-19117.2
8847.39
-19669.4
8838.79
-20216.6
8809.44
-20756.7
8761.34
-21288
8696.89
-21809.4
8618.53
-22320.2
8528.41
-22820.4
8428.09
-23309.8
8318.4
-23788.9
8199.47
-24257.7
8070.85
-24716.5
7931.74
-25165.2
7781.25
-25603.7
7618.6
-26031.8
7443.41
-26449
7255.93
-26855
7057.36
-27249.4
6850.15
-27631.9
6638.07
-28002.5
6426.01
-28361.5
6219.35
-28709.5
6023.18
-29047.1
5841.46
-29375.2
5676.61
-29694.8
5529.53
-30006.7
5400.02
-30311.8
5287.12
-30611
5189.36
-30905
5104.76
-31194.9
5030.51
-31481.3
4963.3
-31765
4901.42
-32046.9
4834.98
-32330.3
4758.73
4847.92
4637.89
-439.628
4651.38
-444.55
4667.88
-438.699
4680.83
-425.646
4690
-625.915
4731.06
-1344.12
4875.12
-2342.55
5157.21
-3067.24
5551.99
-3436.6
5973.85
-3363.86
6337.01
-2790.06
6594.3
-1759.37
6715.93
-352.803
6625.96
1563.19
6258.1
3782.82
5677.68
5667.36
5029.42
7226.79
4445.55
8467.62
3962.3
9442.96
3538.84
10234.4
3132.27
11035.7
2647.34
12223.3
1918.66
13875.2
737.197
15825.6
-925.276
16601.3
-2052.63
17206.9
-2214.75
15864.1
-2473.23
13883.2
-2960.76
11915.1
-3369.82
9344.88
-3709.12
7470.51
-4005.58
6181.01
-4275.85
5309.38
-4538.04
4829.49
-4809.28
4662.21
-5102.01
4711.21
-5422.89
4892.31
-5773.86
5144.65
-6153.3
5424.48
-6557.55
5704.23
-6981.88
5967.14
-7421.24
6204.85
-7870.91
6415.3
-8326.85
6600.01
-8785.9
6762.89
-9245.85
6909.03
-9705.48
7043.93
-10164.5
7173
-10623.5
7301.15
-11083.5
7432.42
-11546
7569.74
-12012.9
7714.72
-12485.6
7867.61
-12965.5
8027.39
-13453.7
8191.99
-13950.8
8358.56
-14457
8523.75
-14972.4
8684.01
-15496.5
8835.69
-16028.9
8975.26
-16568.5
9099.32
-17114.1
9204.8
-17664
9288.99
-18216.1
9349.8
-18768.1
9385.88
-19317.5