/*--------------------------------*- C++ -*----------------------------------*\
| =========                 |                                                 |
| \\      /  F ield         | OpenFOAM: The Open Source CFD Toolbox           |
|  \\    /   O peration     | Version:  4.1                                   |
|   \\  /    A nd           | Web:      www.OpenFOAM.org                      |
|    \\/     M anipulation  |                                                 |
\*---------------------------------------------------------------------------*/
FoamFile
{
    version     2.0;
    format      ascii;
    class       volVectorField;
    location    "2000";
    object      U;
}
// * * * * * * * * * * * * * * * * * * * * * * * * * * * * * * * * * * * * * //

dimensions      [0 1 -1 0 0 0 0];

internalField   nonuniform List<vector> 
26785
(
(-1.67492e-14 0.0671436 46.1368)
(-1.83002e-14 0.0662137 44.6662)
(-1.44431e-14 0.0667791 43.2841)
(3.84015e-14 0.0654856 41.9673)
(-1.46523e-14 0.0577899 40.744)
(3.87617e-14 0.0416229 39.7655)
(-1.27564e-13 0.0234343 39.1653)
(-1.06428e-13 0.0108385 38.8918)
(-1.32485e-13 0.0055722 38.7888)
(-1.34629e-14 0.00768936 38.7124)
(-2.55355e-14 0.0166016 38.5482)
(7.9396e-16 0.0320218 38.1975)
(-8.58186e-15 0.0524754 37.5722)
(-7.51864e-15 0.0749428 36.6311)
(-6.13677e-15 0.0982731 35.3763)
(-3.72233e-15 0.119524 33.8302)
(-2.79705e-16 0.138058 32.0246)
(2.49571e-15 0.155354 30.0005)
(3.68359e-15 0.170792 27.7937)
(6.69387e-14 0.181392 25.4458)
(-8.79505e-15 0.184207 23.0321)
(4.04605e-14 0.180119 20.6412)
(1.48076e-14 0.156894 18.3883)
(-7.71147e-14 0.145175 16.5591)
(-1.03361e-13 0.101197 14.1396)
(-1.8779e-14 0.64684 13.0896)
(-3.90607e-14 1.33576 1.75408)
(-2.14094e-13 0.68541 -15.8527)
(-3.68704e-13 0.0363724 -15.571)
(-4.82834e-13 0.0719679 -16.5588)
(-2.13733e-13 0.0622177 -17.4184)
(-2.97387e-13 0.0560641 -18.1531)
(-1.54389e-13 0.0538347 -18.8078)
(-2.11295e-13 0.0540705 -19.4213)
(3.14216e-15 0.0567556 -20.0192)
(-9.05568e-14 0.060344 -20.627)
(-1.24821e-13 0.0642515 -21.2537)
(-1.2112e-13 0.0681791 -21.9025)
(-9.53429e-14 0.0720273 -22.5734)
(-2.22702e-14 0.0757284 -23.2649)
(-1.45377e-13 0.0791913 -23.9744)
(-1.44069e-13 0.0823062 -24.6987)
(-2.13432e-13 0.0849735 -25.4341)
(-1.4755e-13 0.0871255 -26.1766)
(-2.03442e-13 0.088736 -26.9222)
(-1.31526e-13 0.0898153 -27.6671)
(-8.7549e-14 0.0904002 -28.4078)
(-6.34726e-14 0.0905423 -29.1412)
(-1.90674e-14 0.0902993 -29.8648)
(3.97931e-14 0.0897265 -30.5764)
(-6.45168e-14 0.0888747 -31.2741)
(-1.03512e-13 0.0877869 -31.9562)
(-8.72963e-14 0.0865 -32.6215)
(-1.0374e-13 0.0850456 -33.2686)
(-1.21423e-13 0.0834533 -33.8967)
(-1.69739e-13 0.0817525 -34.5049)
(-4.78232e-14 0.0799767 -35.0925)
(-6.281e-14 0.0781647 -35.6592)
(-5.06859e-14 0.0763627 -36.2049)
(-1.59167e-14 0.0746235 -36.7301)
(-7.43929e-14 0.073005 -37.2355)
(-5.56457e-14 0.0715661 -37.7223)
(-6.25037e-14 0.0703606 -38.192)
(-4.68706e-14 0.0694305 -38.6468)
(-1.06924e-13 0.0687981 -39.0887)
(-8.88801e-14 0.0684598 -39.5201)
(-8.40475e-14 0.0683815 -39.9432)
(-8.03862e-14 0.0684978 -40.3598)
(-8.07758e-14 0.0687162 -40.7715)
(-7.99673e-14 0.068924 -41.179)
(-5.05187e-14 0.0689997 -41.5823)
(-1.09419e-13 0.068824 -41.9809)
(-1.07468e-13 0.0682908 -42.3735)
(-1.05415e-13 0.0673152 -42.7582)
(-7.46182e-14 0.0658384 -43.1327)
(-1.18538e-13 0.0638319 -43.4947)
(-1.12977e-13 0.0612993 -43.8415)
(-1.07679e-13 0.0582798 -44.1706)
(-1.09126e-13 0.0548502 -44.4801)
(-1.17616e-13 0.0511244 -44.7683)
(-1.33014e-13 0.0472451 -45.0343)
(-9.61648e-14 0.0433662 -45.2779)
(-1.30243e-13 0.0396287 -45.4998)
(-1.51043e-13 0.0361386 -45.7015)
(-1.34576e-13 0.0329609 -45.8849)
(-1.07295e-13 0.030134 -46.0525)
(-1.1313e-13 0.0276957 -46.2065)
(-1.10662e-13 0.0256941 -46.3486)
(-9.38534e-14 0.0241684 -46.4798)
(-1.1376e-13 0.0231075 -46.6012)
(-1.13526e-13 0.0224203 -46.7161)
(-1.14721e-13 0.0219492 -46.8314)
(-1.1616e-13 0.0215379 -46.9567)
(-1.17946e-13 0.0211481 -47.0969)
(-1.23242e-13 0.0209129 -47.2419)
(-1.12768e-13 0.0210395 -47.3571)
(-1.13054e-13 0.0211247 -47.4627)
(-1.14102e-13 0.0198472 -47.4441)
(-1.14031e-13 0.0143524 -48.3015)
(-1.14021e-13 0.0122741 -48.5039)
(-1.69324e-14 0.181066 46.0201)
(2.29111e-14 0.181855 44.5302)
(-3.11502e-14 0.185103 43.146)
(-1.17193e-14 0.183549 41.8388)
(-4.25135e-14 0.163789 40.6215)
(7.55904e-14 0.118608 39.6353)
(-1.54007e-13 0.066497 39.018)
(-2.51624e-15 0.0301524 38.7254)
(1.01557e-14 0.0148998 38.6069)
(-1.20359e-13 0.0210134 38.5238)
(-9.25064e-14 0.0468672 38.3653)
(-7.41973e-14 0.091849 38.0344)
(-5.07494e-14 0.151962 37.4418)
(-1.97185e-14 0.218747 36.5426)
(4.98646e-14 0.288967 35.329)
(-6.26206e-14 0.353542 33.82)
(-1.06207e-13 0.411053 32.0333)
(-7.36934e-15 0.465439 30.006)
(-2.15124e-14 0.515142 27.7698)
(-1.17973e-14 0.551631 25.3535)
(1.44112e-13 0.566881 22.8159)
(1.09552e-13 0.554028 20.2271)
(2.20216e-13 0.497876 17.7704)
(7.32411e-14 0.455088 15.5704)
(1.0345e-13 0.425079 13.0768)
(1.77575e-14 1.92644 11.1371)
(-8.39978e-14 3.82707 2.60492)
(-1.33971e-13 2.24949 -10.8017)
(-1.16494e-13 0.353869 -14.1792)
(1.93668e-13 0.241868 -15.4975)
(-1.0551e-13 0.217786 -16.6203)
(-1.94888e-13 0.184055 -17.505)
(-1.65654e-13 0.174405 -18.263)
(-1.64977e-13 0.171596 -18.9537)
(2.98406e-14 0.176611 -19.6056)
(-5.309e-14 0.185374 -20.2527)
(-6.68818e-14 0.195884 -20.9096)
(-7.42957e-14 0.207031 -21.5837)
(-7.27748e-14 0.218256 -22.2771)
(-4.73527e-14 0.229161 -22.989)
(4.31679e-14 0.239361 -23.717)
(-7.81107e-14 0.248484 -24.4576)
(-6.12275e-14 0.256234 -25.2068)
(-1.24978e-13 0.262431 -25.9604)
(-1.30163e-13 0.26702 -26.7146)
(-1.74874e-13 0.27005 -27.4657)
(-1.26344e-13 0.271644 -28.2107)
(-1.67149e-13 0.271961 -28.9469)
(2.10657e-14 0.271175 -29.6722)
(-1.69315e-13 0.269447 -30.3847)
(-1.04917e-13 0.266927 -31.0828)
(-1.19426e-13 0.263737 -31.7653)
(-1.42406e-13 0.259982 -32.4311)
(-9.79319e-15 0.255749 -33.079)
(-1.54573e-13 0.251118 -33.7083)
(-2.01477e-13 0.246168 -34.318)
(-9.42545e-14 0.240991 -34.9077)
(-2.16317e-14 0.235693 -35.4768)
(-9.49782e-14 0.230405 -36.0253)
(-1.16409e-13 0.225276 -36.5533)
(-1.54558e-13 0.220474 -37.0615)
(-7.16234e-14 0.21617 -37.5509)
(-1.87341e-14 0.212522 -38.0227)
(-9.77645e-14 0.209656 -38.4789)
(-1.03033e-13 0.207645 -38.9213)
(-8.45835e-14 0.20649 -39.3521)
(-9.2548e-14 0.206105 -39.7734)
(-1.75451e-13 0.206317 -40.1869)
(-5.24531e-14 0.206878 -40.5941)
(-9.57498e-14 0.207478 -40.996)
(-1.22096e-13 0.207777 -41.3929)
(-8.92953e-14 0.207439 -41.7843)
(-1.07295e-13 0.206155 -42.1696)
(-8.94999e-14 0.203671 -42.547)
(-1.75858e-13 0.199803 -42.9149)
(-1.17594e-13 0.194446 -43.2711)
(-1.03643e-13 0.187588 -43.6131)
(-9.67233e-14 0.179315 -43.9389)
(-7.18214e-14 0.169821 -44.2464)
(-1.3335e-13 0.15941 -44.5339)
(-1.36887e-13 0.148473 -44.8003)
(-9.07741e-14 0.137443 -45.0453)
(-1.04976e-13 0.126736 -45.2693)
(-1.02768e-13 0.11668 -45.4732)
(-1.18626e-13 0.107502 -45.659)
(-6.99845e-14 0.0993469 -45.8288)
(-6.09035e-14 0.0923424 -45.9848)
(-1.17893e-13 0.0866233 -46.1288)
(-1.26026e-13 0.0822814 -46.2615)
(-1.05088e-13 0.0792663 -46.384)
(-1.08807e-13 0.0773233 -46.4992)
(-1.13806e-13 0.0760395 -46.6139)
(-1.19651e-13 0.0750278 -46.7378)
(-9.70947e-14 0.0742165 -46.8762)
(-1.04346e-13 0.0739511 -47.0196)
(-1.09994e-13 0.0746777 -47.1335)
(-1.02286e-13 0.0752063 -47.2369)
(-1.0516e-13 0.0720063 -47.2158)
(-1.05343e-13 0.0582542 -48.0588)
(-1.05318e-13 0.0531384 -48.2829)
(-2.79017e-14 0.305491 45.8043)
(-6.62598e-14 0.308413 44.2872)
(7.37626e-14 0.311264 42.8859)
(-5.67961e-14 0.307198 41.5689)
(-5.69644e-14 0.274607 40.3408)
(7.32122e-14 0.20016 39.3394)
(-1.42458e-13 0.11353 38.7077)
(-9.14451e-15 0.052376 38.4049)
(-3.41725e-14 0.0256766 38.2818)
(-3.22614e-14 0.0340023 38.202)
(-3.54594e-14 0.0748483 38.0563)
(-3.48504e-14 0.147567 37.7475)
(-3.18589e-14 0.245927 37.1825)
(-2.43169e-14 0.356449 36.3135)
(-2.24683e-15 0.474165 35.124)
(5.35621e-14 0.58338 33.63)
(-1.07374e-13 0.682684 31.8414)
(5.81851e-14 0.778105 29.7942)
(-1.16369e-13 0.867643 27.5168)
(3.6397e-14 0.938157 25.0254)
(-1.50758e-13 0.976947 22.3568)
(-1.25654e-13 0.965269 19.5571)
(2.11999e-13 0.890305 16.7851)
(9.11503e-14 0.80667 14.2314)
(-1.05093e-13 0.85754 11.6274)
(-5.29848e-14 2.99337 9.42804)
(-9.92233e-14 5.70874 2.03457)
(-1.4851e-13 3.70249 -8.29009)
(-1.4187e-13 0.945636 -12.3213)
(-1.69097e-13 0.502049 -14.3032)
(-1.56547e-13 0.423591 -15.6562)
(-2.73503e-13 0.348965 -16.7409)
(-1.30655e-13 0.321662 -17.6179)
(-6.50599e-15 0.309074 -18.3909)
(-9.00118e-14 0.311183 -19.0988)
(-6.68495e-14 0.321683 -19.786)
(-5.91248e-14 0.336707 -20.474)
(-6.80489e-14 0.353853 -21.1742)
(-8.1045e-14 0.371676 -21.8909)
(-8.95991e-14 0.389159 -22.6242)
(-1.0297e-13 0.40547 -23.3716)
(-1.11128e-13 0.419935 -24.1296)
(-1.31697e-13 0.432086 -24.8937)
(-1.30068e-13 0.441672 -25.6599)
(-1.50839e-13 0.448654 -26.4242)
(-1.54574e-13 0.453149 -27.1832)
(-1.6333e-13 0.455374 -27.9342)
(-1.55503e-13 0.455596 -28.6749)
(-1.49967e-13 0.454092 -29.4034)
(-1.40902e-13 0.45112 -30.1183)
(-1.43672e-13 0.446903 -30.8183)
(-1.20051e-13 0.441627 -31.5025)
(-1.12025e-13 0.435445 -32.17)
(-1.1766e-13 0.428481 -32.8199)
(-1.5665e-13 0.420848 -33.4514)
(-1.0887e-13 0.412661 -34.064)
(-6.38878e-14 0.404056 -34.6569)
(-8.55959e-14 0.395195 -35.2298)
(-7.50851e-14 0.386281 -35.7825)
(-1.38825e-13 0.377555 -36.3149)
(-9.11024e-14 0.369284 -36.8277)
(-9.82325e-14 0.361747 -37.3214)
(-1.04402e-13 0.355204 -37.7972)
(-8.82566e-14 0.349869 -38.2567)
(-1.61776e-14 0.345872 -38.7014)
(-4.01981e-14 0.343231 -39.1333)
(-1.06812e-13 0.341834 -39.5542)
(-1.05793e-13 0.341432 -39.9659)
(-1.1004e-13 0.341652 -40.3698)
(-1.16834e-13 0.342024 -40.767)
(-1.24157e-13 0.342026 -41.158)
(-1.39171e-13 0.341127 -41.543)
(-1.8025e-13 0.338831 -41.9214)
(-1.535e-13 0.334717 -42.2922)
(-1.03622e-13 0.328465 -42.6539)
(-1.09819e-13 0.319876 -43.0049)
(-1.0337e-13 0.30889 -43.3432)
(-1.00704e-13 0.295605 -43.6667)
(-1.0022e-13 0.28029 -43.9734)
(-1.03833e-13 0.263389 -44.2618)
(-1.1261e-13 0.2455 -44.5306)
(-1.33155e-13 0.227304 -44.779)
(-1.2188e-13 0.209476 -45.0071)
(-9.36951e-14 0.192584 -45.2155)
(-9.61893e-14 0.177044 -45.4058)
(-9.64532e-14 0.163146 -45.5799)
(-9.67054e-14 0.151127 -45.74)
(-9.86703e-14 0.141203 -45.8878)
(-9.63382e-14 0.133496 -46.0241)
(-8.04513e-14 0.127905 -46.1495)
(-9.96545e-14 0.124031 -46.2669)
(-9.57645e-14 0.12126 -46.3828)
(-8.0957e-14 0.11904 -46.507)
(-1.00705e-13 0.117291 -46.6454)
(-1.01946e-13 0.116514 -46.7889)
(-1.07596e-13 0.117227 -46.9036)
(-9.80534e-14 0.117561 -47.0069)
(-9.91542e-14 0.112444 -46.9862)
(-9.99505e-14 0.0936795 -47.816)
(-9.99563e-14 0.0863928 -48.0591)
(-1.6639e-14 0.430916 45.5077)
(-6.33944e-14 0.436047 43.964)
(-3.98358e-14 0.437873 42.5467)
(-5.73586e-15 0.430638 41.2217)
(6.82418e-14 0.384628 39.9844)
(-3.29093e-14 0.280008 38.9676)
(6.40692e-14 0.157887 38.3203)
(9.13383e-14 0.0712504 38.0064)
(-1.22736e-14 0.032567 37.8792)
(-2.71387e-15 0.0425531 37.8043)
(-2.58466e-14 0.0979209 37.6718)
(-2.35376e-14 0.198229 37.3809)
(-3.27564e-14 0.335121 36.8327)
(-7.44532e-14 0.490196 35.9768)
(4.41384e-14 0.656994 34.7877)
(1.74204e-14 0.811596 33.2789)
(-1.60022e-15 0.954441 31.4589)
(-7.43857e-14 1.09332 29.366)
(1.29585e-13 1.22577 27.0274)
(1.57497e-14 1.33559 24.4512)
(2.80262e-15 1.40724 21.6551)
(6.02014e-14 1.41332 18.6554)
(9.67873e-14 1.32914 15.5522)
(4.73682e-14 1.18925 12.6043)
(2.81858e-14 1.29102 9.94163)
(-1.29978e-14 3.92909 7.34648)
(-2.14644e-13 7.08736 0.84921)
(-1.808e-13 4.85022 -6.80849)
(-2.46851e-13 1.58156 -10.5023)
(-2.52379e-13 0.853363 -13.0673)
(-3.49919e-13 0.674453 -14.6809)
(-3.60885e-13 0.548553 -15.9647)
(-2.91448e-13 0.491894 -16.9599)
(-2.97885e-13 0.462418 -17.8097)
(-1.29345e-13 0.457091 -18.5683)
(-4.88752e-13 0.466641 -19.2917)
(-7.59076e-14 0.484729 -20.0082)
(2.40171e-14 0.507141 -20.7329)
(-1.70325e-13 0.531159 -21.4722)
(-1.04457e-13 0.554899 -22.2266)
(-1.13992e-14 0.576954 -22.9939)
(-1.18025e-13 0.596309 -23.77)
(-2.09909e-13 0.612338 -24.5505)
(-1.45822e-13 0.624758 -25.3311)
(-1.27644e-13 0.633584 -26.1077)
(-1.01763e-13 0.639033 -26.8772)
(-1.65862e-13 0.641441 -27.6368)
(-1.63281e-13 0.641197 -28.3847)
(-2.29738e-13 0.638689 -29.1193)
(-1.6343e-13 0.634266 -29.8393)
(-1.6246e-13 0.628228 -30.544)
(1.14163e-14 0.620817 -31.2325)
(-1.99369e-15 0.612225 -31.9042)
(-1.298e-13 0.602602 -32.5586)
(-1.07889e-13 0.592085 -33.1951)
(-1.47486e-13 0.58081 -33.8131)
(1.04571e-14 0.56894 -34.4122)
(-1.09513e-13 0.55668 -34.9919)
(-4.0119e-14 0.544284 -35.552)
(-1.4046e-13 0.532064 -36.0925)
(-5.60733e-14 0.520368 -36.6135)
(-1.21623e-13 0.509565 -37.1156)
(-1.27299e-13 0.500005 -37.5996)
(-9.44594e-14 0.491983 -38.0666)
(-5.40856e-14 0.485692 -38.5179)
(-1.87268e-13 0.481184 -38.955)
(-1.19231e-13 0.478348 -39.3796)
(-8.97901e-14 0.476895 -39.7933)
(-1.26879e-13 0.476373 -40.1975)
(-9.74538e-14 0.476199 -40.5935)
(-1.28148e-13 0.475705 -40.9821)
(-7.44144e-14 0.474199 -41.3638)
(-1.43474e-13 0.47102 -41.7385)
(-6.70696e-14 0.465586 -42.1058)
(3.71973e-15 0.457435 -42.4646)
(-1.03094e-13 0.446257 -42.8137)
(-1.17319e-13 0.431914 -43.1515)
(-1.50133e-13 0.414473 -43.4761)
(-9.66966e-14 0.394226 -43.7858)
(-9.4877e-14 0.371704 -44.0789)
(-9.14682e-14 0.347652 -44.3538)
(-8.84402e-14 0.322961 -44.6097)
(-9.99282e-14 0.298547 -44.846)
(-7.85257e-14 0.275227 -45.0631)
(-1.15882e-13 0.253639 -45.2621)
(-1.18744e-13 0.234251 -45.4448)
(-1.36465e-13 0.217427 -45.6132)
(-8.55385e-14 0.20346 -45.7689)
(-8.63272e-14 0.192498 -45.9126)
(-5.96863e-14 0.1844 -46.045)
(-1.01191e-13 0.17867 -46.1686)
(-8.44306e-14 0.174552 -46.2898)
(-8.13202e-14 0.171357 -46.4185)
(-9.4225e-14 0.168945 -46.5608)
(-8.63745e-14 0.167866 -46.7084)
(-9.37954e-14 0.16863 -46.8277)
(-8.98488e-14 0.168866 -46.9352)
(-9.40371e-14 0.162484 -46.9195)
(-9.43089e-14 0.141052 -47.7368)
(-9.36812e-14 0.132158 -47.9994)
(-1.88012e-14 0.544631 45.1388)
(-5.72182e-14 0.550799 43.5664)
(1.22024e-14 0.553714 42.1343)
(3.05581e-14 0.545862 40.8027)
(2.89139e-14 0.489885 39.5516)
(3.77942e-15 0.358219 38.5096)
(-7.64077e-14 0.202093 37.8416)
(9.25765e-14 0.0899355 37.5223)
(1.32428e-14 0.0383284 37.405)
(-3.40916e-14 0.0488793 37.3513)
(-6.19141e-14 0.118077 37.245)
(-9.62566e-14 0.245933 36.9784)
(3.36058e-15 0.421887 36.447)
(-7.58903e-14 0.622631 35.5991)
(6.48156e-14 0.840796 34.4)
(-8.20716e-14 1.04212 32.8578)
(-1.53494e-13 1.23062 30.9847)
(-9.6317e-14 1.41529 28.8221)
(-2.55144e-14 1.59293 26.3944)
(2.38462e-14 1.74592 23.7081)
(1.59393e-14 1.85886 20.772)
(-4.11959e-14 1.90018 17.5787)
(4.7235e-14 1.82553 14.1464)
(1.71201e-14 1.59808 10.7102)
(4.38726e-14 1.73852 7.71227)
(3.66185e-14 4.79655 4.74739)
(-2.04379e-13 8.15561 -0.505716)
(-2.81425e-13 5.7132 -5.78505)
(-2.69358e-13 2.19347 -8.92239)
(-2.55187e-13 1.27725 -11.8747)
(-1.80369e-13 0.976268 -13.7615)
(-1.89064e-13 0.783182 -15.2264)
(-2.08718e-13 0.684603 -16.3257)
(-3.43735e-13 0.630876 -17.2412)
(-2.41493e-13 0.613747 -18.0431)
(-1.29166e-13 0.61994 -18.7977)
(-1.33101e-13 0.639863 -19.5395)
(-7.17655e-14 0.666961 -20.2869)
(-7.41155e-14 0.696886 -21.0479)
(-9.77885e-14 0.72666 -21.8234)
(-6.62565e-14 0.754196 -22.611)
(-1.63407e-13 0.778102 -23.4066)
(-5.68059e-14 0.797604 -24.2053)
(-9.85675e-14 0.812416 -25.0025)
(-1.07952e-13 0.822639 -25.7944)
(-9.83108e-14 0.828614 -26.5775)
(-6.61795e-14 0.830818 -27.3494)
(-5.53111e-14 0.829773 -28.1082)
(-6.8071e-14 0.825984 -28.8527)
(-4.88897e-14 0.819898 -29.5817)
(-1.69297e-13 0.811889 -30.2948)
(-8.49748e-14 0.80225 -30.9914)
(-3.12429e-14 0.791209 -31.6712)
(-6.79961e-14 0.778937 -32.3338)
(-5.87965e-14 0.765583 -32.9789)
(-9.60519e-14 0.751293 -33.606)
(-8.15681e-14 0.736243 -34.2149)
(-1.24904e-13 0.720659 -34.8052)
(-1.19677e-13 0.704828 -35.3766)
(-1.63448e-13 0.689106 -35.929)
(-6.84654e-14 0.673899 -36.4623)
(-1.50143e-13 0.659643 -36.9769)
(-1.14774e-13 0.646762 -37.4731)
(-1.28758e-13 0.635625 -37.9516)
(-1.93099e-13 0.626492 -38.4133)
(-9.21723e-14 0.619473 -38.8593)
(-1.34944e-13 0.614488 -39.2912)
(-1.07001e-13 0.611254 -39.7102)
(-1.40653e-13 0.609286 -40.1178)
(-4.03929e-14 0.607936 -40.5155)
(-7.97209e-14 0.606433 -40.9043)
(-4.41755e-14 0.603954 -41.2852)
(-1.21338e-13 0.599688 -41.6585)
(-1.34664e-13 0.592897 -42.0242)
(-1.42018e-13 0.582968 -42.3818)
(-1.14573e-13 0.569455 -42.7305)
(-3.48586e-14 0.552114 -43.069)
(-6.50271e-14 0.530936 -43.3958)
(-5.25328e-14 0.506187 -43.7093)
(-9.82252e-14 0.478426 -44.0078)
(-1.02536e-13 0.448495 -44.2896)
(-3.41306e-14 0.41745 -44.5535)
(-1.03309e-13 0.386433 -44.7986)
(-9.01446e-14 0.356519 -45.025)
(-8.11195e-14 0.3286 -45.2334)
(-9.39656e-14 0.303357 -45.4253)
(-9.5113e-14 0.281304 -45.6026)
(-9.4318e-14 0.262818 -45.7668)
(-9.60289e-14 0.248069 -45.9186)
(-1.09142e-13 0.236895 -46.0585)
(-9.06131e-14 0.228741 -46.1889)
(-1.01803e-13 0.222757 -46.316)
(-8.5807e-14 0.218132 -46.4496)
(-8.98667e-14 0.214622 -46.5963)
(-8.34326e-14 0.212732 -46.7481)
(-8.96465e-14 0.212915 -46.8723)
(-9.86399e-14 0.212507 -46.9841)
(-9.58054e-14 0.204809 -46.9737)
(-9.23574e-14 0.181471 -47.7764)
(-9.56994e-14 0.170387 -48.056)
(-2.31698e-14 0.684674 44.5655)
(-5.35471e-14 0.682063 42.968)
(3.5159e-14 0.680582 41.5283)
(-2.42542e-14 0.668399 40.1993)
(1.39056e-14 0.599603 38.9533)
(-4.76215e-14 0.437482 37.9214)
(-1.19082e-13 0.243802 37.2795)
(-7.16106e-14 0.10363 36.9999)
(-1.2373e-14 0.0378301 36.9267)
(5.6171e-15 0.0487305 36.9151)
(-8.22918e-14 0.132403 36.8442)
(-6.6816e-14 0.288995 36.6024)
(4.64681e-14 0.505435 36.0841)
(-7.95962e-15 0.753709 35.2396)
(-2.21377e-14 1.02667 34.0242)
(-3.65982e-14 1.27719 32.4431)
(-2.15837e-14 1.51458 30.5087)
(-1.08208e-14 1.74845 28.2655)
(-1.45816e-13 1.97425 25.7292)
(-1.32435e-13 2.17349 22.905)
(7.74804e-14 2.33343 19.8044)
(6.02909e-14 2.42592 16.4163)
(-9.64737e-14 2.392 12.6909)
(5.79379e-14 2.08583 8.6827)
(1.68237e-13 2.21093 4.86711)
(-2.10269e-14 5.56181 2.06558)
(-1.56307e-13 8.93521 -1.60853)
(-1.83642e-13 6.34224 -5.01535)
(-2.33895e-13 2.77115 -7.73068)
(-8.5542e-14 1.74968 -10.8879)
(-2.44169e-13 1.31969 -12.9691)
(-1.19897e-13 1.04642 -14.5629)
(-9.59759e-14 0.895361 -15.7384)
(-3.26582e-14 0.811522 -16.7029)
(-1.46001e-13 0.779253 -17.538)
(-1.74575e-13 0.780353 -18.3179)
(-9.36041e-14 0.80132 -19.0815)
(-8.83463e-14 0.832816 -19.8497)
(-1.16355e-13 0.868558 -20.6315)
(-2.05808e-13 0.904304 -21.4281)
(-1.19134e-13 0.937194 -22.2371)
(-2.35744e-14 0.965437 -23.0538)
(-1.43426e-13 0.98812 -23.8731)
(-9.73165e-14 1.00498 -24.6901)
(-8.54861e-14 1.01621 -25.5008)
(-8.84212e-14 1.02233 -26.3016)
(-7.0758e-14 1.02396 -27.0901)
(-5.35662e-14 1.02177 -27.8644)
(-5.00924e-14 1.01641 -28.6233)
(-6.03662e-14 1.00841 -29.3659)
(-8.04833e-14 0.998241 -30.0918)
(-8.45347e-14 0.986249 -30.8008)
(-7.68993e-14 0.972697 -31.4926)
(-8.69272e-14 0.957777 -32.1672)
(-8.36806e-14 0.941645 -32.8244)
(-7.80124e-14 0.924446 -33.464)
(-8.64495e-14 0.906355 -34.0859)
(-9.30925e-14 0.887597 -34.6897)
(-6.85605e-14 0.868466 -35.2753)
(-1.41388e-13 0.849335 -35.8423)
(-8.53736e-14 0.830637 -36.3906)
(-9.36089e-14 0.812849 -36.9201)
(-8.55391e-14 0.796451 -37.4309)
(-1.27222e-13 0.781876 -37.9232)
(-1.29811e-13 0.76946 -38.3976)
(-1.0994e-13 0.759385 -38.8549)
(-1.4437e-13 0.751639 -39.2962)
(-8.63299e-14 0.745984 -39.7226)
(-1.02639e-13 0.741957 -40.1358)
(-2.74285e-14 0.738887 -40.537)
(-1.16409e-13 0.735944 -40.9279)
(-6.0052e-14 0.732208 -41.3094)
(-4.14028e-14 0.726738 -41.6825)
(-2.59378e-14 0.718647 -42.0477)
(-1.62856e-13 0.70717 -42.4048)
(-8.04104e-14 0.691713 -42.7536)
(-5.18887e-14 0.671898 -43.093)
(-9.35228e-14 0.647613 -43.422)
(-9.46342e-14 0.619054 -43.739)
(-9.0974e-14 0.586759 -44.0425)
(-7.42795e-14 0.551615 -44.3308)
(-9.27724e-14 0.514799 -44.6025)
(-5.50087e-14 0.477651 -44.8564)
(-1.38137e-13 0.441497 -45.0922)
(-8.88659e-14 0.407498 -45.3103)
(-6.40833e-14 0.376571 -45.5118)
(-9.73827e-14 0.3494 -45.6986)
(-9.93757e-14 0.326456 -45.8721)
(-1.00196e-13 0.307939 -46.0327)
(-1.02941e-13 0.293685 -46.181)
(-1.19006e-13 0.283108 -46.3192)
(-1.10254e-13 0.275306 -46.4534)
(-9.6669e-14 0.269364 -46.5932)
(-8.81114e-14 0.264903 -46.7454)
(-1.02202e-13 0.262322 -46.9026)
(-1.07089e-13 0.262002 -47.0328)
(-9.80271e-14 0.261162 -47.1505)
(-9.59072e-14 0.252812 -47.147)
(-1.02106e-13 0.228684 -47.9348)
(-9.92272e-14 0.215547 -48.2309)
(-1.72209e-14 0.800453 44.0738)
(-1.29435e-14 0.794918 42.4646)
(-4.64682e-14 0.792396 41.0232)
(-3.439e-14 0.778661 39.6984)
(-1.65835e-14 0.699708 38.4541)
(5.98001e-15 0.508899 37.4243)
(-1.15911e-13 0.278523 36.7977)
(-5.23278e-14 0.111037 36.5452)
(7.02795e-14 0.0317872 36.5025)
(5.24037e-14 0.0439433 36.5188)
(-6.83517e-14 0.143227 36.4688)
(4.31813e-14 0.329693 36.2377)
(1.14172e-14 0.587636 35.7206)
(9.50306e-15 0.884746 34.8699)
(8.87936e-15 1.21457 33.6318)
(7.33644e-14 1.51678 32.0114)
(-5.6642e-14 1.80615 30.0221)
(-1.17983e-13 2.09315 27.7107)
(-1.89962e-14 2.37188 25.0748)
(-8.49428e-14 2.62223 22.1094)
(9.64555e-14 2.83359 18.8337)
(-1.66542e-14 2.98563 15.2587)
(-9.43592e-14 3.02532 11.3432)
(1.13752e-13 2.7146 6.91678)
(5.18639e-14 2.75285 1.9289)
(-4.55796e-14 6.13219 -0.295842)
(-9.01427e-14 9.42182 -2.37998)
(-2.19632e-13 6.80177 -4.48861)
(-3.03088e-13 3.32085 -7.02101)
(-9.22928e-14 2.24255 -10.2018)
(-1.43677e-13 1.68427 -12.3454)
(-1.6233e-13 1.32637 -13.9947)
(-2.99651e-14 1.11773 -15.2104)
(1.20113e-14 1.00066 -16.204)
(7.77798e-14 0.951407 -17.0614)
(-8.65177e-14 0.946532 -17.8601)
(-1.11839e-13 0.968277 -18.6418)
(-8.921e-14 1.00422 -19.4289)
(-1.0413e-13 1.04595 -20.231)
(-1.85827e-13 1.0878 -21.0493)
(-1.43258e-13 1.1261 -21.8809)
(-9.18934e-14 1.15863 -22.7209)
(-3.31845e-14 1.18435 -23.5638)
(-1.06996e-13 1.20303 -24.4043)
(-9.13707e-14 1.215 -25.2378)
(-9.64903e-14 1.22093 -26.0609)
(-9.72178e-14 1.22165 -26.8707)
(-6.04302e-14 1.21797 -27.6653)
(3.5837e-14 1.21069 -28.4433)
(1.7594e-15 1.20047 -29.2041)
(-3.52649e-14 1.18787 -29.9472)
(-1.5114e-13 1.1733 -30.6725)
(-1.22017e-13 1.15708 -31.38)
(-1.11398e-13 1.13941 -32.0698)
(-1.027e-13 1.12045 -32.742)
(-8.58743e-14 1.10035 -33.3965)
(-5.1014e-14 1.07926 -34.0333)
(-1.39458e-13 1.05739 -34.6524)
(-6.34656e-14 1.03502 -35.2535)
(-1.1397e-13 1.0125 -35.8362)
(-9.06698e-14 0.990273 -36.4004)
(-5.79379e-14 0.968823 -36.9457)
(-9.45077e-15 0.948665 -37.4719)
(-1.12546e-13 0.93029 -37.9789)
(-7.78506e-14 0.914106 -38.4669)
(-1.6092e-13 0.900386 -38.9364)
(-1.20316e-13 0.889211 -39.3881)
(-4.4862e-14 0.880428 -39.8232)
(-8.82107e-14 0.873634 -40.2431)
(-3.549e-14 0.868183 -40.6491)
(-1.12021e-13 0.863228 -41.043)
(-4.22743e-14 0.85778 -41.4262)
(-7.64591e-14 0.850794 -41.7999)
(-6.73858e-14 0.841249 -42.1649)
(-3.1669e-14 0.828225 -42.5218)
(-9.44394e-14 0.810971 -42.8703)
(-1.04085e-13 0.788962 -43.2102)
(-9.40816e-14 0.761951 -43.5405)
(-9.30113e-14 0.730026 -43.8599)
(-8.69898e-14 0.693662 -44.1671)
(-8.53899e-14 0.653738 -44.4604)
(-6.76664e-14 0.611508 -44.7382)
(-9.73663e-14 0.568471 -44.9993)
(-1.57472e-13 0.526189 -45.243)
(-1.03804e-13 0.486095 -45.4693)
(-1.11318e-13 0.449362 -45.6792)
(-1.10792e-13 0.41687 -45.8741)
(-1.13982e-13 0.389199 -46.0555)
(-1.26044e-13 0.366599 -46.2237)
(-9.60707e-14 0.348913 -46.3793)
(-1.04047e-13 0.335554 -46.5242)
(-1.28799e-13 0.325581 -46.6643)
(-1.09256e-13 0.317986 -46.8091)
(-1.06874e-13 0.312231 -46.9656)
(-9.85676e-14 0.308552 -47.1268)
(-1.11426e-13 0.307251 -47.2616)
(-1.13606e-13 0.305563 -47.3838)
(-1.19105e-13 0.296364 -47.3857)
(-1.13991e-13 0.271415 -48.1567)
(-1.1523e-13 0.255747 -48.4657)
(-5.92881e-14 0.924453 43.5572)
(2.60842e-14 0.917555 41.9401)
(-1.9852e-14 0.911588 40.5006)
(-6.86977e-15 0.894523 39.1833)
(7.52168e-15 0.804294 37.9429)
(-2.99525e-14 0.582457 36.9155)
(-1.00073e-14 0.312366 36.3032)
(5.47197e-14 0.115523 36.0764)
(-4.58361e-14 0.0219535 36.0636)
(-9.16558e-15 0.0354804 36.1069)
(-2.26424e-14 0.151212 36.0752)
(-2.90709e-14 0.368549 35.8497)
(-2.94251e-14 0.668905 35.3275)
(-2.43789e-14 1.01608 34.4639)
(-2.3458e-14 1.40397 33.1954)
(-8.0344e-14 1.76007 31.5308)
(3.95408e-14 2.10291 29.4905)
(8.06734e-15 2.44588 27.1229)
(9.10458e-16 2.7831 24.4047)
(-6.00748e-15 3.09113 21.3175)
(-7.49338e-15 3.35814 17.8898)
(1.68677e-14 3.5677 14.1644)
(-9.71183e-14 3.69057 10.1902)
(-1.45246e-14 3.45506 5.73273)
(7.85981e-14 3.3218 0.140219)
(-5.66165e-14 6.50684 -1.87169)
(-1.50927e-13 9.67894 -2.91181)
(-2.73759e-13 7.15786 -4.21821)
(-1.17201e-13 3.84811 -6.75034)
(-1.83527e-13 2.7271 -9.78803)
(-5.05824e-14 2.04971 -11.8812)
(-5.00522e-14 1.61105 -13.5228)
(-8.26949e-15 1.34513 -14.7456)
(-5.59513e-15 1.19452 -15.7495)
(1.13057e-14 1.128 -16.6183)
(1.61688e-14 1.11715 -17.4296)
(-1.00297e-13 1.13994 -18.2261)
(-8.23215e-14 1.18074 -19.0306)
(-8.71739e-14 1.22886 -19.8527)
(-1.6655e-13 1.27718 -20.6935)
(-1.79239e-13 1.32113 -21.5496)
(-1.23056e-13 1.35806 -22.4155)
(-1.23348e-13 1.38681 -23.2851)
(-6.8993e-14 1.40718 -24.1528)
(-8.77017e-14 1.41968 -25.0135)
(-8.36514e-14 1.42515 -25.8633)
(-7.17479e-14 1.4246 -26.6989)
(-1.12554e-14 1.41906 -27.5183)
(1.79523e-14 1.40947 -28.32)
(-2.93991e-14 1.39664 -29.103)
(-3.79775e-15 1.38124 -29.8671)
(-7.74404e-14 1.36377 -30.612)
(-1.33865e-13 1.3446 -31.3381)
(-1.21068e-13 1.32396 -32.0454)
(-1.20821e-13 1.30203 -32.7343)
(-1.41931e-13 1.27894 -33.4051)
(-4.88313e-14 1.25482 -34.0578)
(-8.07422e-14 1.22984 -34.6926)
(-6.7119e-14 1.20424 -35.3092)
(-1.0875e-13 1.17835 -35.9074)
(-1.12179e-13 1.15257 -36.487)
(-9.7471e-14 1.12737 -37.0473)
(-8.46711e-14 1.10329 -37.5882)
(-7.36476e-14 1.08085 -38.1091)
(-7.27303e-14 1.06053 -38.6101)
(-7.68251e-14 1.0427 -39.0913)
(-4.97543e-14 1.02755 -39.5531)
(-9.50879e-14 1.01505 -39.9966)
(-7.71423e-14 1.00488 -40.423)
(-5.79646e-14 0.996459 -40.8339)
(-9.31997e-14 0.988964 -41.2308)
(-7.75074e-14 0.981374 -41.6155)
(-5.99503e-14 0.972565 -41.9894)
(-3.94752e-14 0.961397 -42.3538)
(-1.06892e-13 0.946807 -42.7095)
(-1.28556e-13 0.927887 -43.0567)
(-1.3322e-13 0.90395 -43.3953)
(-1.22752e-13 0.874601 -43.7248)
(-1.30236e-13 0.839793 -44.0443)
(-1.38162e-13 0.799902 -44.3523)
(-1.00654e-13 0.755762 -44.6475)
(-7.12202e-14 0.708657 -44.9282)
(-1.1928e-13 0.660209 -45.1931)
(-9.02085e-14 0.612191 -45.4413)
(-1.2754e-13 0.566298 -45.6726)
(-1.07221e-13 0.523969 -45.8877)
(-1.07835e-13 0.486294 -46.0879)
(-1.10384e-13 0.453985 -46.2745)
(-1.18337e-13 0.427351 -46.4479)
(-1.39429e-13 0.406262 -46.6084)
(-1.29333e-13 0.390137 -46.7579)
(-1.30614e-13 0.378016 -46.902)
(-1.1818e-13 0.36881 -47.05)
(-1.25365e-13 0.361826 -47.209)
(-1.19535e-13 0.357124 -47.3725)
(-1.11904e-13 0.354939 -47.5106)
(-1.14463e-13 0.352607 -47.6359)
(-1.18616e-13 0.34293 -47.6421)
(-1.19883e-13 0.317702 -48.3956)
(-1.18215e-13 0.300047 -48.7154)
(-1.02471e-13 1.04643 43.0208)
(5.47071e-14 1.03775 41.3988)
(-6.91146e-14 1.02733 39.9646)
(-4.32939e-14 1.00616 38.6582)
(-4.33767e-14 0.904157 37.4221)
(-1.041e-13 0.650468 36.3905)
(-9.93034e-14 0.339908 35.7873)
(4.10602e-14 0.113622 35.5905)
(-2.73905e-14 0.00626624 35.6171)
(-1.03477e-13 0.0223549 35.6942)
(-4.50615e-15 0.15622 35.681)
(-1.80863e-14 0.405965 35.4567)
(-2.83357e-14 0.749903 34.9237)
(-2.77439e-14 1.14867 34.043)
(-2.44568e-14 1.59607 32.7369)
(-2.49139e-14 2.0076 31.023)
(-1.51486e-14 2.40458 28.9273)
(5.32847e-14 2.80523 26.4947)
(8.95717e-15 3.20471 23.6905)
(-3.49375e-14 3.57494 20.5019)
(1.61039e-14 3.90023 16.9745)
(2.00481e-14 4.15919 13.1678)
(2.99945e-16 4.35015 9.22804)
(1.58013e-13 4.22937 4.99133)
(-1.96596e-14 3.92969 -0.617582)
(-1.08365e-13 6.80642 -2.73748)
(-2.31861e-13 9.81315 -3.33546)
(-1.88126e-13 7.46104 -4.19545)
(-8.76727e-14 4.35168 -6.77401)
(-1.08247e-13 3.1827 -9.56259)
(2.32879e-14 2.4025 -11.5443)
(-3.76286e-14 1.89182 -13.1373)
(1.77447e-14 1.57223 -14.3432)
(-7.56593e-14 1.38975 -15.3418)
(-3.38454e-14 1.30696 -16.2127)
(-1.50373e-13 1.29093 -17.0314)
(-7.0768e-14 1.31554 -17.8397)
(-7.86725e-14 1.36195 -18.6604)
(-8.02858e-14 1.41715 -19.5027)
(-1.09027e-13 1.47248 -20.3671)
(-1.62591e-13 1.52247 -21.2495)
(-2.08516e-13 1.56406 -22.1439)
(-1.52545e-13 1.59594 -23.0435)
(-7.21782e-14 1.61799 -23.942)
(-9.34373e-14 1.63085 -24.8337)
(-9.44406e-14 1.63559 -25.7141)
(-9.35507e-14 1.63344 -26.5796)
(-8.94359e-14 1.62561 -27.4276)
(-8.56531e-14 1.61325 -28.2565)
(-1.01866e-13 1.59734 -29.0652)
(-1.16142e-13 1.57868 -29.853)
(-1.17504e-13 1.55786 -30.6201)
(-1.30319e-13 1.53534 -31.3666)
(-1.23555e-13 1.51139 -32.0929)
(-1.19637e-13 1.48621 -32.7995)
(-1.47309e-13 1.45992 -33.4868)
(-8.67463e-14 1.43262 -34.1551)
(-1.90531e-13 1.40444 -34.8047)
(-1.88564e-13 1.37556 -35.4355)
(-1.77601e-13 1.34625 -36.0475)
(-1.4108e-13 1.31685 -36.6403)
(-1.23373e-13 1.28781 -37.2135)
(-1.15112e-13 1.25965 -37.7664)
(-1.14875e-13 1.23292 -38.2987)
(-5.72821e-14 1.20816 -38.8101)
(-9.86864e-14 1.18583 -39.3004)
(-8.71474e-14 1.16624 -39.7702)
(-7.46806e-14 1.14948 -40.22)
(-1.04805e-13 1.13538 -40.6511)
(-1.07194e-13 1.12344 -41.0651)
(-1.34074e-13 1.11288 -41.4635)
(-9.1571e-14 1.10269 -41.8483)
(-9.79083e-14 1.09169 -42.2211)
(-7.77663e-14 1.07863 -42.5834)
(7.02447e-15 1.06233 -42.9361)
(-1.4018e-13 1.04171 -43.28)
(-1.65407e-13 1.01593 -43.6153)
(-1.13089e-13 0.984432 -43.9416)
(-1.48434e-13 0.947022 -44.2582)
(-1.1137e-13 0.90395 -44.5641)
(-9.13486e-14 0.855975 -44.8581)
(-8.47451e-14 0.804376 -45.1385)
(-1.00066e-13 0.750863 -45.4042)
(-1.18982e-13 0.697388 -45.6539)
(-1.33043e-13 0.645894 -45.8876)
(-1.17692e-13 0.598081 -46.1057)
(-1.1239e-13 0.555256 -46.3093)
(-1.13295e-13 0.518276 -46.4995)
(-1.11816e-13 0.487526 -46.6768)
(-1.1159e-13 0.462908 -46.8414)
(-1.18544e-13 0.443855 -46.9949)
(-1.09541e-13 0.429392 -47.1427)
(-1.06275e-13 0.418356 -47.2939)
(-1.19163e-13 0.409904 -47.4555)
(-1.10604e-13 0.403911 -47.6219)
(-1.20663e-13 0.400547 -47.7638)
(-1.21381e-13 0.397311 -47.8932)
(-1.21301e-13 0.386956 -47.9047)
(-1.20967e-13 0.36133 -48.6427)
(-1.17502e-13 0.341871 -48.9731)
(-1.42948e-14 1.15389 42.4628)
(-1.34226e-14 1.14313 40.8298)
(-1.53298e-14 1.13129 39.3998)
(-1.45292e-14 1.10965 38.1028)
(3.10312e-14 1.00017 36.8599)