/*--------------------------------*- C++ -*----------------------------------*\
| =========                 |                                                 |
| \\      /  F ield         | OpenFOAM: The Open Source CFD Toolbox           |
|  \\    /   O peration     | Version:  4.1                                   |
|   \\  /    A nd           | Web:      www.OpenFOAM.org                      |
|    \\/     M anipulation  |                                                 |
\*---------------------------------------------------------------------------*/
FoamFile
{
    version     2.0;
    format      ascii;
    class       volScalarField;
    location    "900";
    object      p;
}
// * * * * * * * * * * * * * * * * * * * * * * * * * * * * * * * * * * * * * //

dimensions      [0 2 -2 0 0 0 0];

internalField   nonuniform List<scalar> 
6820
(
-6.90157
-7.12841
-7.20532
-7.21734
-7.2367
-7.25876
-7.27532
-7.28816
-7.2993
-7.30885
-7.31671
-7.323
-7.32783
-7.33121
-7.33309
-7.33342
-7.33207
-7.32892
-7.32375
-7.3163
-7.30624
-7.29312
-7.27633
-7.25506
-7.22815
-7.19392
-7.1496
-7.09119
-7.00915
-6.89456
-6.68486
-6.43224
-5.37728
-6.97355
-7.11457
-7.17818
-7.19853
-7.22232
-7.24628
-7.26424
-7.27808
-7.28987
-7.2999
-7.30814
-7.31475
-7.31985
-7.32346
-7.32554
-7.32603
-7.32483
-7.32179
-7.31672
-7.30937
-7.2994
-7.28639
-7.26975
-7.24874
-7.22229
-7.18896
-7.14652
-7.09222
-7.02014
-6.92868
-6.79643
-6.67342
-6.58628
-7.03096
-7.119
-7.17911
-7.2041
-7.2265
-7.24874
-7.26621
-7.27991
-7.29155
-7.30148
-7.3097
-7.31631
-7.32144
-7.32509
-7.32725
-7.32784
-7.32678
-7.32392
-7.31908
-7.31203
-7.30246
-7.28997
-7.27406
-7.25407
-7.2291
-7.19803
-7.15926
-7.11115
-7.05084
-6.98022
-6.89561
-6.84325
-6.82908
-7.06972
-7.1281
-7.18231
-7.20869
-7.22956
-7.2504
-7.26754
-7.28112
-7.29262
-7.30246
-7.31064
-7.31726
-7.32242
-7.32614
-7.32839
-7.32912
-7.32823
-7.32561
-7.32109
-7.31444
-7.30541
-7.29365
-7.27873
-7.26013
-7.23719
-7.20913
-7.17504
-7.13433
-7.08645
-7.03491
-6.98282
-6.95916
-6.96859
-7.10086
-7.14068
-7.18657
-7.21282
-7.23271
-7.2523
-7.26898
-7.28239
-7.29375
-7.3035
-7.31166
-7.31831
-7.32353
-7.32736
-7.32977
-7.3307
-7.33008
-7.3278
-7.32371
-7.31763
-7.30933
-7.29855
-7.28495
-7.26815
-7.24775
-7.22333
-7.19461
-7.16182
-7.12586
-7.0908
-7.06196
-7.05782
-7.08697
-7.12699
-7.15449
-7.19225
-7.21751
-7.23654
-7.25485
-7.27089
-7.28407
-7.29526
-7.3049
-7.31303
-7.31972
-7.32503
-7.329
-7.3316
-7.33279
-7.33251
-7.33065
-7.32711
-7.32173
-7.31435
-7.30475
-7.29273
-7.27806
-7.26055
-7.24015
-7.21702
-7.19198
-7.16669
-7.1451
-7.13266
-7.14111
-7.17763
-7.14915
-7.16845
-7.19917
-7.22279
-7.24087
-7.25793
-7.27325
-7.28612
-7.29711
-7.30663
-7.31474
-7.32147
-7.32689
-7.33103
-7.33386
-7.33537
-7.33548
-7.33414
-7.33125
-7.3267
-7.32037
-7.31214
-7.30191
-7.28958
-7.27519
-7.25892
-7.24129
-7.22341
-7.20723
-7.19624
-7.19507
-7.21106
-7.24908
-7.16827
-7.18213
-7.207
-7.22853
-7.24559
-7.26147
-7.27602
-7.28853
-7.2993
-7.30869
-7.31677
-7.32355
-7.3291
-7.33344
-7.33655
-7.33842
-7.339
-7.33825
-7.3361
-7.33248
-7.32734
-7.32062
-7.31231
-7.30246
-7.29124
-7.27904
-7.26657
-7.25507
-7.24643
-7.24356
-7.25007
-7.27048
-7.30786
-7.18505
-7.19526
-7.21539
-7.23468
-7.25065
-7.26544
-7.2792
-7.29129
-7.30183
-7.31108
-7.31913
-7.32598
-7.33168
-7.33624
-7.33967
-7.34194
-7.34305
-7.34295
-7.34163
-7.33904
-7.33517
-7.33006
-7.32375
-7.31641
-7.30832
-7.29999
-7.29222
-7.2862
-7.28366
-7.28691
-7.29859
-7.32148
-7.35739
-7.20001
-7.20773
-7.22408
-7.24117
-7.256
-7.26978
-7.28275
-7.2944
-7.30469
-7.31381
-7.32183
-7.32876
-7.33462
-7.33943
-7.34321
-7.34594
-7.34762
-7.34824
-7.3478
-7.3463
-7.34378
-7.34031
-7.33603
-7.33117
-7.32608
-7.32132
-7.3177
-7.31631
-7.31862
-7.32639
-7.34151
-7.36566
-7.3998
-7.21351
-7.21951
-7.23289
-7.24792
-7.2616
-7.27444
-7.28666
-7.29784
-7.30788
-7.31686
-7.32486
-7.33188
-7.33792
-7.34302
-7.34717
-7.3504
-7.35269
-7.35407
-7.35456
-7.3542
-7.35306
-7.35126
-7.34897
-7.34649
-7.3442
-7.34267
-7.34264
-7.34509
-7.35119
-7.36227
-7.37962
-7.40424
-7.43659
-7.22584
-7.23062
-7.24166
-7.25485
-7.2674
-7.27936
-7.29087
-7.3016
-7.31137
-7.32024
-7.32822
-7.33534
-7.34159
-7.34698
-7.35155
-7.35529
-7.35824
-7.36041
-7.36187
-7.36266
-7.3629
-7.36274
-7.36239
-7.36215
-7.36242
-7.36374
-7.36678
-7.37235
-7.38139
-7.39485
-7.4136
-7.43821
-7.46884
-7.23719
-7.24107
-7.25031
-7.26187
-7.27336
-7.28451
-7.29536
-7.30564
-7.31516
-7.32391
-7.3319
-7.33913
-7.3456
-7.35132
-7.35632
-7.36061
-7.36423
-7.36722
-7.36965
-7.37161
-7.37321
-7.37464
-7.37612
-7.37795
-7.38052
-7.38433
-7.38994
-7.39803
-7.40931
-7.42445
-7.44402
-7.46832
-7.49735
-7.24771
-7.25094
-7.25875
-7.26892
-7.27943
-7.28982
-7.30008
-7.30994
-7.31923
-7.32788
-7.33588
-7.34324
-7.34994
-7.35601
-7.36145
-7.36631
-7.37062
-7.37444
-7.37785
-7.38095
-7.38388
-7.38682
-7.39
-7.39372
-7.39834
-7.40428
-7.41203
-7.42212
-7.43508
-7.45138
-7.47137
-7.49519
-7.52274
-7.2575
-7.26024
-7.26694
-7.27595
-7.28556
-7.29528
-7.30499
-7.31448
-7.32354
-7.33211
-7.34015
-7.34765
-7.3546
-7.36102
-7.36693
-7.37237
-7.37737
-7.38202
-7.38639
-7.3906
-7.3948
-7.39916
-7.40391
-7.40933
-7.41573
-7.42348
-7.43298
-7.44464
-7.45885
-7.47592
-7.49606
-7.5193
-7.54551
-7.26667
-7.26903
-7.27485
-7.28288
-7.29171
-7.30082
-7.31005
-7.3192
-7.32807
-7.33657
-7.34467
-7.35233
-7.35955
-7.36633
-7.37272
-7.37874
-7.38444
-7.3899
-7.39521
-7.40049
-7.40587
-7.41155
-7.41772
-7.42464
-7.43259
-7.44186
-7.45278
-7.46566
-7.48077
-7.49832
-7.51842
-7.54103
-7.56603
-7.27526
-7.27733
-7.28246
-7.28969
-7.29784
-7.30641
-7.31523
-7.32408
-7.33279
-7.34125
-7.34942
-7.35725
-7.36475
-7.37191
-7.37878
-7.38537
-7.39176
-7.39802
-7.40423
-7.41051
-7.41701
-7.42389
-7.43134
-7.43958
-7.44885
-7.45938
-7.47144
-7.48525
-7.50099
-7.51881
-7.53873
-7.56071
-7.5846
-7.28332
-7.28516
-7.28976
-7.29633
-7.3039
-7.31201
-7.32047
-7.32908
-7.33767
-7.34611
-7.35436
-7.36239
-7.37017
-7.37772
-7.38506
-7.39224
-7.39929
-7.40631
-7.41338
-7.42061
-7.42813
-7.4361
-7.44468
-7.45406
-7.46444
-7.47602
-7.48897
-7.50348
-7.51965
-7.53758
-7.55725
-7.57859
-7.60147
-7.29088
-7.29255
-7.29672
-7.30277
-7.30986
-7.31758
-7.32575
-7.33416
-7.34265
-7.35111
-7.35947
-7.3677
-7.37578
-7.38372
-7.39154
-7.39927
-7.40697
-7.41472
-7.42259
-7.4307
-7.43915
-7.4481
-7.45767
-7.46804
-7.47935
-7.49176
-7.50542
-7.52043
-7.53688
-7.5548
-7.57416
-7.59489
-7.61685
-7.29796
-7.29949
-7.30333
-7.30896
-7.31567
-7.32308
-7.33101
-7.33927
-7.34771
-7.35621
-7.3647
-7.37315
-7.38154
-7.38986
-7.39814
-7.40642
-7.41474
-7.42317
-7.4318
-7.44071
-7.45001
-7.45981
-7.47025
-7.48145
-7.49354
-7.50663
-7.52082
-7.53619
-7.55279
-7.57062
-7.58964
-7.60977
-7.63091
-7.30456
-7.30599
-7.30958
-7.31489
-7.32129
-7.32846
-7.33621
-7.34438
-7.3528
-7.36137
-7.37001
-7.37869
-7.38739
-7.3961
-7.40484
-7.41364
-7.42254
-7.43162
-7.44094
-7.45058
-7.46063
-7.4712
-7.48238
-7.49429
-7.50701
-7.52063
-7.53522
-7.55084
-7.56749
-7.58517
-7.60384
-7.6234
-7.64377
-7.31067
-7.31203
-7.31543
-7.32051
-7.32668
-7.33368
-7.34131
-7.34943
-7.35787
-7.36654
-7.37536
-7.38428
-7.39329
-7.40238
-7.41156
-7.42087
-7.43033
-7.44
-7.44995
-7.46025
-7.47098
-7.48221
-7.49403
-7.50652
-7.51975
-7.53378
-7.54867
-7.56443
-7.58107
-7.59856
-7.61686
-7.63589
-7.65556
-7.31629
-7.3176
-7.32087
-7.32578
-7.33181
-7.33869
-7.34626
-7.35438
-7.36288
-7.37168
-7.38069
-7.38988
-7.3992
-7.40867
-7.41828
-7.42805
-7.43803
-7.44826
-7.45879
-7.46968
-7.48099
-7.4928
-7.50515
-7.51813
-7.53177
-7.54612
-7.56121
-7.57704
-7.59361
-7.61089
-7.62882
-7.64735
-7.66638
-7.32138
-7.32266
-7.32585
-7.33066
-7.33661
-7.34344
-7.35101
-7.35917
-7.36778
-7.37674
-7.38596
-7.39542
-7.40506
-7.4149
-7.42492
-7.43515
-7.44561
-7.45635
-7.4674
-7.47881
-7.49064
-7.50294
-7.51575
-7.52911
-7.54308
-7.55766
-7.57288
-7.58873
-7.60519
-7.62223
-7.63981
-7.65786
-7.67631
-7.32592
-7.32718
-7.33034
-7.33512
-7.34105
-7.34789
-7.35551
-7.36377
-7.37252
-7.38166
-7.39112
-7.40086
-7.41083
-7.42102
-7.43144
-7.4421
-7.45301
-7.46421
-7.47573
-7.48761
-7.49989
-7.5126
-7.52578
-7.53947
-7.55368
-7.56843
-7.58372
-7.59954
-7.61587
-7.63268
-7.64991
-7.66751
-7.68542
-7.32985
-7.33111
-7.33428
-7.33908
-7.34506
-7.35198
-7.35971
-7.36811
-7.37704
-7.3864
-7.39612
-7.40615
-7.41645
-7.427
-7.4378
-7.44886
-7.46019
-7.47181
-7.48375
-7.49604
-7.5087
-7.52177
-7.53526
-7.5492
-7.5636
-7.57846
-7.59378
-7.60954
-7.62571
-7.64227
-7.65917
-7.67635
-7.69377
-7.3331
-7.33439
-7.33762
-7.3425
-7.34859
-7.35565
-7.36354
-7.37214
-7.38129
-7.39091
-7.40091
-7.41124
-7.42187
-7.43277
-7.44394
-7.45537
-7.46709
-7.47909
-7.49141
-7.50406
-7.51705
-7.53042
-7.54416
-7.5583
-7.57284
-7.58777
-7.60308
-7.61876
-7.63477
-7.65108
-7.66766
-7.68445
-7.70142
-7.33561
-7.33694
-7.34027
-7.3453
-7.35157
-7.35884
-7.36696
-7.3758
-7.38523
-7.39513
-7.40543
-7.41608
-7.42704
-7.43829
-7.44981
-7.46161
-7.47368
-7.48603
-7.49868
-7.51165
-7.52493
-7.53854
-7.55249
-7.56679
-7.58142
-7.59638
-7.61166
-7.62723
-7.64308
-7.65915
-7.67543
-7.69186
-7.70841
-7.33727
-7.33866
-7.34214
-7.3474
-7.35394
-7.36149
-7.3699
-7.37905
-7.38879
-7.39901
-7.40964
-7.42063
-7.43193
-7.44351
-7.45538
-7.46751
-7.47991
-7.49259
-7.50554
-7.51878
-7.5323
-7.54612
-7.56024
-7.57465
-7.58935
-7.60432
-7.61954
-7.63501
-7.65068
-7.66652
-7.68251
-7.69861
-7.71477
-7.33795
-7.33944
-7.34315
-7.34872
-7.35561
-7.36353
-7.37231
-7.38182
-7.39193
-7.40251
-7.4135
-7.42483
-7.43647
-7.4484
-7.4606
-7.47305
-7.48576
-7.49873
-7.51195
-7.52543
-7.53916
-7.55316
-7.56741
-7.58191
-7.59664
-7.6116
-7.62676
-7.64211
-7.65761
-7.67324
-7.68896
-7.70475
-7.72056
-7.33751
-7.33913
-7.34314
-7.34915
-7.35651
-7.36489
-7.37412
-7.38407
-7.3946
-7.40559
-7.41696
-7.42866
-7.44066
-7.45293
-7.46544
-7.4782
-7.4912
-7.50443
-7.51789
-7.53158
-7.54549
-7.55963
-7.57399
-7.58854
-7.6033
-7.61823
-7.63332
-7.64854
-7.66388
-7.6793
-7.69477
-7.71027
-7.72577
-7.33574
-7.33754
-7.34198
-7.34859
-7.35656
-7.36551
-7.37529
-7.38576
-7.39676
-7.40819
-7.41998
-7.43206
-7.44442
-7.45703
-7.46986
-7.48292
-7.49619
-7.50966
-7.52334
-7.53722
-7.5513
-7.56556
-7.58
-7.59461
-7.60937
-7.62427
-7.63929
-7.6544
-7.66958
-7.68481
-7.70006
-7.71531
-7.73052
-7.33237
-7.33443
-7.33949
-7.3469
-7.35566
-7.36532
-7.37577
-7.38685
-7.39842
-7.41035
-7.42258
-7.43507
-7.4478
-7.46073
-7.47387
-7.48719
-7.5007
-7.51439
-7.52826
-7.54229
-7.55649
-7.57085
-7.58535
-7.59998
-7.61473
-7.62959
-7.64452
-7.65952
-7.67455
-7.6896
-7.70464
-7.71966
-7.73462
-7.32703
-7.32947
-7.33545
-7.34399
-7.35377
-7.36428
-7.37548
-7.38726
-7.39943
-7.4119
-7.42461
-7.43754
-7.45066
-7.46396
-7.47742
-7.49103
-7.5048
-7.51872
-7.53278
-7.54698
-7.56131
-7.57576
-7.59033
-7.605
-7.61975
-7.63456
-7.64943
-7.66433
-7.67923
-7.69413
-7.70898
-7.72378
-7.7385
-7.3192
-7.32224
-7.32959
-7.33973
-7.35087
-7.36252
-7.37473
-7.38736
-7.40022
-7.41323
-7.42639
-7.43969
-7.45312
-7.46668
-7.48037
-7.49418
-7.50812
-7.52218
-7.53637
-7.55067
-7.56508
-7.57958
-7.59418
-7.60885
-7.62358
-7.63835
-7.65314
-7.66794
-7.68273
-7.69748
-7.71219
-7.72682
-7.74137
-7.30804
-7.31219
-7.32187
-7.33404
-7.34642
-7.35911
-7.37244
-7.38613
-7.3999
-7.41369
-7.42754
-7.44145
-7.4554
-7.4694
-7.48346
-7.49759
-7.5118
-7.52608
-7.54045
-7.55489
-7.5694
-7.58398
-7.59862
-7.6133
-7.62801
-7.64273
-7.65746
-7.67217
-7.68684
-7.70145
-7.71599
-7.73043
-7.74475
-7.29213
-7.29791
-7.31254
-7.3289
-7.34341
-7.35731
-7.37153
-7.38579
-7.39986
-7.41383
-7.42781
-7.44182
-7.45587
-7.46997
-7.48414
-7.49838
-7.51269
-7.52709
-7.54155
-7.55609
-7.57068
-7.58533
-7.60002
-7.61474
-7.62947
-7.6442
-7.65892
-7.6736
-7.68823
-7.70279
-7.71727
-7.73167
-7.74596
-7.27066
-7.27736
-7.29585
-7.31556
-7.33331
-7.35069
-7.36798
-7.38461
-7.4005
-7.41591
-7.43099
-7.44582
-7.46046
-7.47498
-7.48943
-7.50386
-7.51829
-7.53273
-7.5472
-7.56171
-7.57625
-7.59082
-7.60542
-7.62003
-7.63463
-7.64923
-7.6638
-7.67832
-7.69278
-7.70715
-7.72142
-7.73556
-7.74954
-7.23759
-7.27253
-7.30157
-7.31716
-7.33061
-7.34636
-7.36259
-7.3781
-7.39319
-7.40825
-7.42331
-7.4383
-7.45322
-7.4681
-7.48297
-7.49783
-7.51269
-7.52755
-7.54243
-7.55731
-7.5722
-7.5871
-7.60198
-7.61685
-7.6317
-7.6465
-7.66126
-7.67595
-7.69056
-7.70509
-7.71951
-7.73383
-7.74804
-7.09634
-7.20371
-7.27723
-7.30908
-7.33173
-7.35543
-7.37706
-7.39527
-7.41146
-7.42679
-7.4416
-7.45598
-7.47009
-7.48408
-7.49803
-7.51198
-7.52598
-7.54003
-7.55415
-7.56833
-7.58257
-7.59686
-7.61119
-7.62555
-7.63991
-7.65427
-7.6686
-7.68289
-7.69712
-7.71127
-7.72533
-7.73927
-7.75308
-6.53782
-6.59265
-7.47522
-7.94999
-8.0043
-8.02622
-8.07524
-8.11555
-8.14778
-8.18002
-8.21303
-8.24606
-8.27928
-8.31287
-8.34678
-8.38092
-8.41516
-8.44941
-8.48352
-8.51736
-8.5508
-8.58371
-8.61595
-8.64741
-8.67796
-8.7075
-8.73592
-8.76312
-8.789
-8.81349
-8.83649
-8.85794
-8.87776
-8.89588
-8.91224
-8.92678
-8.93943
-8.95014
-8.95884
-8.96548
-8.96998
-8.97229
-8.97231
-8.96998
-8.96518
-8.95782
-8.94776
-8.93488
-8.91901
-8.89997
-8.87754
-8.85151
-8.82161
-8.78754
-8.74898
-8.70559
-8.65698
-8.60274
-8.54242
-8.47556
-8.40164
-8.32013
-8.23047
-8.13205
-8.02425
-7.90643
-7.77796
-7.63823
-7.48668
-7.32283
-7.14631
-6.95691
-6.75455
-6.53935
-6.31164
-6.07196
-5.8211
-5.56005
-5.29001
-5.0124
-4.72875
-4.44076
-4.15016
-3.85875
-3.56829
-3.2805
-2.99697
-2.7192
-2.44848
-2.18592
-1.93242
-1.68867
-1.4551
-1.232
-1.01914
-0.816655
-0.622652
-0.439057
-0.256461
-0.0915208
-7.10814
-7.2659
-7.60463
-7.87325
-7.94669
-7.9894
-8.04556
-8.09214
-8.12909
-8.16432
-8.19946
-8.23411
-8.26851
-8.30297
-8.33752
-8.37213
-8.40671
-8.44119
-8.47545
-8.50938
-8.54287
-8.57578
-8.608
-8.63942
-8.66992
-8.69939
-8.72774
-8.75486
-8.78066
-8.80507
-8.82799
-8.84935
-8.86909
-8.88712
-8.9034
-8.91784
-8.9304
-8.94102
-8.94962
-8.95615
-8.96054
-8.96272
-8.96261
-8.96012
-8.95515
-8.9476
-8.93735
-8.92424
-8.90811
-8.88879
-8.86607
-8.83971
-8.80944
-8.77499
-8.73603
-8.6922
-8.64314
-8.58841
-8.5276
-8.46022
-8.38577
-8.30373
-8.21353
-8.11459
-8.00628
-7.888
-7.75911
-7.61903
-7.46722
-7.30323
-7.12671
-6.93745
-6.73539
-6.52067
-6.29362
-6.05479
-5.80495
-5.54509
-5.2764
-5.00025
-4.71818
-4.43183
-4.14291
-3.85317
-3.56433
-3.27809
-2.99601
-2.71953
-2.44994
-2.18832
-1.93554
-1.69229
-1.45898
-1.2359
-1.02277
-0.819833
-0.624851
-0.440762
-0.255302
-0.0940327
-7.11782
-7.30091
-7.53135
-7.78117
-7.90078
-7.96151
-8.02027
-8.07114
-8.11226
-8.15006
-8.18697
-8.22297
-8.25835
-8.2935
-8.32854
-8.36347
-8.39826
-8.43285
-8.46717
-8.5011
-8.53454
-8.56739
-8.59952
-8.63083
-8.66122
-8.69057
-8.71879
-8.74579
-8.77148
-8.79576
-8.81857
-8.83982
-8.85944
-8.87736
-8.89352
-8.90786
-8.92031
-8.9308
-8.93929
-8.94569
-8.94994
-8.95197
-8.9517
-8.94904
-8.94388
-8.93612
-8.92563
-8.91226
-8.89586
-8.87623
-8.85317
-8.82645
-8.7958
-8.76093
-8.72152
-8.67723
-8.62767
-8.57244
-8.51109
-8.44317
-8.36818
-8.28558
-8.19484
-8.09536
-7.98655
-7.86781
-7.73852
-7.59813
-7.44612
-7.28204
-7.10558
-6.91653
-6.71486
-6.50072
-6.27444
-6.03657
-5.78787
-5.52933
-5.26211
-4.98757
-4.70719
-4.42259
-4.13546
-3.84748
-3.56037
-3.27576
-2.99519
-2.72007
-2.45165
-2.191
-1.93897
-1.69624
-1.46318
-1.24011
-1.02669
-0.823277
-0.627293
-0.442672
-0.254366
-0.0967018
-7.14856
-7.33045
-7.52983
-7.7417
-7.86631
-7.93515
-7.99628
-8.05084
-8.09585
-8.13613
-8.17468
-8.21193
-8.24821
-8.28396
-8.31941
-8.35459
-8.38952
-8.42416
-8.45845
-8.49231
-8.52565
-8.55836
-8.59035
-8.62151
-8.65173
-8.68092
-8.70899
-8.73582
-8.76135
-8.78548
-8.80814
-8.82925
-8.84873
-8.86652
-8.88255
-8.89675
-8.90906
-8.91942
-8.92776
-8.93401
-8.93811
-8.93997
-8.93951
-8.93665
-8.93128
-8.92328
-8.91253
-8.89888
-8.88216
-8.8622
-8.83878
-8.81166
-8.78059
-8.74527
-8.70539
-8.6606
-8.61052
-8.55474
-8.49285
-8.42436
-8.3488
-8.26564
-8.17433
-8.07433
-7.96502
-7.84584
-7.71618
-7.57552
-7.42334
-7.25924
-7.08291
-6.89416
-6.69298
-6.47952
-6.25412
-6.01734
-5.76991
-5.51282
-5.2472
-4.97438
-4.69583
-4.41311
-4.12787
-3.84178
-3.55648
-3.27359
-2.9946
-2.7209
-2.4537
-2.19406
-1.9428
-1.70059
-1.4678
-1.24473
-1.031
-0.827082
-0.630075
-0.444878
-0.253755
-0.0995707
-7.21145
-7.37199
-7.54121
-7.71337
-7.83325
-7.90953
-7.97388
-8.03108
-8.07922
-8.12183
-8.16197
-8.20041
-8.23757
-8.27393
-8.30975
-8.34516
-8.3802
-8.41485
-8.44909
-8.48284
-8.51604
-8.54859
-8.58039
-8.61136
-8.64138
-8.67037
-8.69824
-8.72488
-8.75022
-8.77417
-8.79666
-8.81759
-8.83691
-8.85454
-8.87041
-8.88446
-8.89662
-8.90682
-8.91499
-8.92108
-8.92499
-8.92666
-8.926
-8.92292
-8.9173
-8.90904
-8.898
-8.88404
-8.86699
-8.84666
-8.82285
-8.79531
-8.76378
-8.72799
-8.6876
-8.64228
-8.59166
-8.53532
-8.47285
-8.40378
-8.32763
-8.2439
-8.15204
-8.0515
-7.94172
-7.82211
-7.69212
-7.55122
-7.39894
-7.23488
-7.05875
-6.87039
-6.66979
-6.45712
-6.23271
-5.99712
-5.75109
-5.49556
-5.23167
-4.9607
-4.68408
-4.40336
-4.12012
-3.836
-3.55261
-3.27151
-2.99418
-2.72195
-2.45602
-2.19742
-1.94696
-1.70528
-1.47276
-1.24967
-1.03563
-0.831179
-0.633133
-0.447316
-0.253425
-0.102534
-7.2715
-7.40628
-7.55017
-7.69422
-7.80724
-7.8874
-7.95362
-8.01219
-8.06259
-8.10722
-8.14878
-8.18832
-8.22631
-8.26323
-8.29943
-8.33505
-8.37018
-8.40483
-8.43899
-8.47261
-8.50564
-8.538
-8.56959
-8.60033
-8.63012
-8.65889
-8.68653
-8.71295
-8.73808
-8.76182
-8.7841
-8.80485
-8.82398
-8.84142
-8.85712
-8.87099
-8.88297
-8.89299
-8.90098
-8.90687
-8.91059
-8.91205
-8.91116
-8.90783
-8.90195
-8.8934
-8.88206
-8.86776
-8.85035
-8.82963
-8.80539
-8.7774
-8.7454
-8.7091
-8.66818
-8.62231
-8.57111
-8.51419
-8.45113
-8.38146
-8.30472
-8.22041
-8.128
-8.02695
-7.9167
-7.7967
-7.66641
-7.52533
-7.37299
-7.20903
-7.03318
-6.8453
-6.64537
-6.43359
-6.21028
-5.976
-5.73147
-5.47762
-5.21556
-4.94655
-4.67198
-4.39335
-4.11221
-3.83016
-3.54875
-3.26952
-2.99389
-2.72319
-2.45857
-2.20104
-1.9514
-1.71027
-1.478
-1.2549
-1.04053
-0.835529
-0.636437
-0.44995
-0.253363
-0.105511
-7.32506
-7.43769
-7.56119
-7.68448
-7.7886
-7.86879
-7.93555
-7.99465
-8.04649
-8.09267
-8.13541
-8.17585
-8.21456
-8.25199
-8.2885
-8.32431
-8.3595
-8.39412
-8.42819
-8.46166
-8.4945
-8.52663
-8.55798
-8.58847
-8.61801
-8.64652
-8.67391
-8.70009
-8.72497
-8.74848
-8.77054
-8.79107
-8.80998
-8.82722
-8.84272
-8.85639
-8.86817
-8.87799
-8.88577
-8.89145
-8.89494
-8.89617
-8.89503
-8.89143
-8.88526
-8.87641
-8.86473
-8.85007
-8.83227
-8.81113
-8.78644
-8.75798
-8.72547
-8.68864
-8.64718
-8.60073
-8.54895
-8.49143
-8.42775
-8.35748
-8.28015
-8.19526
-8.1023
-8.00074
-7.89006
-7.7697
-7.63915
-7.49793
-7.3456
-7.18181
-7.00632
-6.81898
-6.61983
-6.40902
-6.18691
-5.95404
-5.71112
-5.45906
-5.19894
-4.93199
-4.65956
-4.38312
-4.10416
-3.82425
-3.5449
-3.26759
-2.99373
-2.7246
-2.46133
-2.20489
-1.95608
-1.71551
-1.48351
-1.26039
-1.04567
-0.840102
-0.639962
-0.452753
-0.253566
-0.108439
-7.37244
-7.4675
-7.57393
-7.68078
-7.77561
-7.85357
-7.91987
-7.97885
-8.03136
-8.07855
-8.12215
-8.16329
-8.20255
-8.24039
-8.27716
-8.3131
-8.34831
-8.38288
-8.41681
-8.45011
-8.48273
-8.51461
-8.5457
-8.57591
-8.60517
-8.6334
-8.6605
-8.6864
-8.71102
-8.73427
-8.75608
-8.77636
-8.79504
-8.81205
-8.82731
-8.84075
-8.85231
-8.8619
-8.86946
-8.8749
-8.87815
-8.87911
-8.8777
-8.87381
-8.86733
-8.85814
-8.8461
-8.83105
-8.81284
-8.79125
-8.7661
-8.73714
-8.70411
-8.66672
-8.62468
-8.57765
-8.52526
-8.46712
-8.40283
-8.33195
-8.25402
-8.16856
-8.07506
-7.97302
-7.86192
-7.74123
-7.61047
-7.46916
-7.31689
-7.15334
-6.97827
-6.79157
-6.59326
-6.38353
-6.16271
-5.93134
-5.69013
-5.43995
-5.18186
-4.91706
-4.64686
-4.37268
-4.09599
-3.81828
-3.54104
-3.26572
-2.99368
-2.72615
-2.46425
-2.20894
-1.96098
-1.72097
-1.48924
-1.26609
-1.05102
-0.844867
-0.643681
-0.455698
-0.254025
-0.11126
-7.41395
-7.49532
-7.58751
-7.6811
-7.76722
-7.84169
-7.90663
-7.9649
-8.01745
-8.06514
-8.10928
-8.15089
-8.19053
-8.22865
-8.2656
-8.3016
-8.33679
-8.37126
-8.40504
-8.43812
-8.47049
-8.50211
-8.5329
-8.56281
-8.59176
-8.61967
-8.64646
-8.67206
-8.69638
-8.71934
-8.74087
-8.76087
-8.77929
-8.79604
-8.81104
-8.82424
-8.83554
-8.84488
-8.85218
-8.85736
-8.86033
-8.86101
-8.8593
-8.85509
-8.84827
-8.83872
-8.82629
-8.81084
-8.79218
-8.77014
-8.74449
-8.715
-8.68142
-8.64347
-8.60084
-8.55319
-8.50018
-8.44142
-8.37651
-8.30501
-8.22649
-8.14046
-8.04644
-7.94394
-7.83244
-7.71146
-7.58052
-7.43917
-7.28702
-7.12377
-6.9492
-6.7632
-6.56582
-6.35723
-6.13779
-5.90801
-5.66858
-5.42037
-5.1644
-4.90182
-4.63392
-4.36207
-4.0877
-3.81226
-3.53719
-3.2639
-2.9937
-2.72781
-2.46732
-2.21315
-1.96605
-1.72661
-1.49515
-1.27197
-1.05655
-0.849788
-0.647567
-0.458756
-0.254731
-0.113928
-7.4503
-7.52104
-7.60153
-7.68422
-7.76247
-7.83281
-7.8957
-7.95277
-8.00486
-8.0526
-8.09697
-8.13881
-8.17867
-8.21695
-8.25397
-8.28997
-8.32509
-8.35942
-8.393
-8.42585
-8.45795
-8.48926
-8.51973
-8.54931
-8.57792
-8.6055
-8.63196
-8.65722
-8.68122
-8.70386
-8.72507
-8.74478
-8.7629
-8.77936
-8.79409
-8.807
-8.81802
-8.82708
-8.8341
-8.83899
-8.84166
-8.84202
-8.83998
-8.83543
-8.82825
-8.81831
-8.80548
-8.78959
-8.77047
-8.74793
-8.72176
-8.69173
-8.65759
-8.61905
-8.57581
-8.52754
-8.4739
-8.4145
-8.34896
-8.27685
-8.19773
-8.11114
-8.01661
-7.91367
-7.80181
-7.68057
-7.54949
-7.40814
-7.25617
-7.09327
-6.91926
-6.73403
-6.53764
-6.33027
-6.11227
-5.88415
-5.64658
-5.4004
-5.1466
-4.88632
-4.62078
-4.35132
-4.07932
-3.80619
-3.53333
-3.2621
-2.99378
-2.72956
-2.47049
-2.21747
-1.97125
-1.73239
-1.50119
-1.27798
-1.0622
-0.854831
-0.651589
-0.461899
-0.255667
-0.116406
-7.4823
-7.54472
-7.61564
-7.68928
-7.76052
-7.82651
-7.88687
-7.94238
-7.9936
-8.04102
-8.08532
-8.12718
-8.16708
-8.20538
-8.24239
-8.27832
-8.31332
-8.34747
-8.38082
-8.41341
-8.44521
-8.4762
-8.50634
-8.53556
-8.56382
-8.59103
-8.61713
-8.64204
-8.66568
-8.68798
-8.70886
-8.72824
-8.74604
-8.76219
-8.7766
-8.78921
-8.79993
-8.80868
-8.81538
-8.81995
-8.82229
-8.82232
-8.81993
-8.81501
-8.80744
-8.79709
-8.78382
-8.76746
-8.74786
-8.72481
-8.69811
-8.66751
-8.63278
-8.59363
-8.54977
-8.50087
-8.44658
-8.38655
-8.32037
-8.24764
-8.16794
-8.0808
-7.98578
-7.88241
-7.77022
-7.64875
-7.51757
-7.37627
-7.22451
-7.06202
-6.88861
-6.70421
-6.50887
-6.30278
-6.08628
-5.85988
-5.62422
-5.38013
-5.12856
-4.87061
-4.60747
-4.34044
-4.07085
-3.80007
-3.52945
-3.26031
-2.99389
-2.73136
-2.47372
-2.22188
-1.97653
-1.73826
-1.50733
-1.28408
-1.06795
-0.859961
-0.655718
-0.4651
-0.256814
-0.118669
-7.51065
-7.56645
-7.62956
-7.69562
-7.76067
-7.82235
-7.87993
-7.93359
-7.98365
-8.03043
-8.0744
-8.11607
-8.15585
-8.19406
-8.23096
-8.26674
-8.30156
-8.33549
-8.36859
-8.40089
-8.43237
-8.46302
-8.4928
-8.52166
-8.54954
-8.57638
-8.6021
-8.62664
-8.64991
-8.67185
-8.69237
-8.71139
-8.72885
-8.74466
-8.75874
-8.77101
-8.7814
-8.78982
-8.79618
-8.80041
-8.8024
-8.80207
-8.7993
-8.79398
-8.786
-8.77521
-8.76148
-8.74465
-8.72454
-8.70096
-8.6737
-8.64253
-8.60719
-8.56742
-8.52292
-8.47337
-8.41844
-8.35776
-8.29095
-8.21761
-8.13732
-8.04964
-7.95414
-7.85037
-7.73786
-7.61619
-7.48494
-7.34372
-7.19222
-7.03018
-6.85742
-6.6739
-6.47965
-6.27489
-6.05994
-5.8353
-5.6016
-5.35963
-5.11033
-4.85475
-4.59405
-4.32948
-4.06232
-3.79391
-3.52554
-3.25851
-2.99402
-2.73318
-2.47699
-2.22632
-1.98187
-1.74417
-1.51353
-1.29024
-1.07376
-0.865146
-0.659925
-0.468336
-0.258152
-0.120703
-7.53591
-7.58638
-7.64308
-7.70277
-7.76238
-7.81995
-7.87464
-7.92627
-7.97494
-8.02083
-8.06423
-8.10553
-8.14504
-8.18303
-8.21973
-8.2553
-8.28988
-8.32355
-8.35636
-8.38834
-8.41949
-8.44979
-8.4792
-8.50768
-8.53517
-8.56162
-8.58695
-8.6111
-8.63399
-8.65554
-8.67569
-8.69435
-8.71144
-8.72689
-8.74062
-8.75254
-8.76258
-8.77064
-8.77665
-8.78051
-8.78213
-8.78141
-8.77824
-8.77251
-8.76409
-8.75285
-8.73865
-8.72131
-8.70068
-8.67655
-8.64871
-8.61694
-8.58099
-8.54059
-8.49545
-8.44525
-8.38966
-8.32833
-8.26088
-8.18693
-8.10606
-8.01786
-7.9219
-7.81773
-7.70494
-7.58309
-7.4518
-7.3107
-7.15949
-6.99793
-6.82587
-6.64325
-6.45014
-6.24674
-6.03337
-5.81052
-5.57881
-5.33899
-5.09198
-4.83879
-4.58055
-4.31845
-4.05374
-3.78771
-3.52161
-3.2567
-2.99413
-2.73499
-2.48026
-2.23078
-1.98721
-1.7501
-1.51974
-1.29642
-1.07959
-0.870351
-0.664181
-0.471581
-0.259656
-0.122503
-7.55856
-7.60467
-7.65607
-7.71039
-7.76522
-7.81896
-7.87076
-7.92026
-7.96738
-8.01218
-8.05483
-8.09559
-8.13469
-8.17235
-8.20875
-8.24404
-8.27833
-8.31169
-8.34419
-8.37583
-8.40662
-8.43655
-8.46557
-8.49366
-8.52076
-8.54681
-8.57174
-8.59549
-8.61798
-8.63915
-8.65891
-8.67719
-8.6939
-8.70898
-8.72234
-8.73389
-8.74356
-8.75125
-8.75688
-8.76036
-8.76159
-8.76047
-8.75688
-8.75072
-8.74185
-8.73014
-8.71544
-8.69759
-8.67641
-8.65172
-8.6233
-8.59093
-8.55435
-8.51331
-8.46751
-8.41665
-8.36041
-8.29843
-8.23035
-8.15579
-8.07436
-7.98564
-7.88923
-7.78469
-7.67163
-7.54963
-7.41832
-7.27737
-7.12648
-6.96543
-6.79408
-6.6124
-6.42046
-6.21844
-6.00668
-5.78564
-5.55593
-5.31828
-5.07357
-4.82279
-4.567
-4.30738
-4.04513
-3.78147
-3.51765
-3.25485
-2.99421
-2.73678
-2.4835
-2.2352
-1.99252
-1.75601
-1.52592
-1.30257
-1.08541
-0.875547
-0.668456
-0.474816
-0.261299
-0.124077
-7.57898
-7.62146
-7.66846
-7.71822
-7.76886
-7.81907
-7.86807
-7.9154
-7.96087
-8.00444
-8.04619
-8.08626
-8.12483
-8.16205
-8.19807
-8.233
-8.26695
-8.29997
-8.33211
-8.36338
-8.3938
-8.42334
-8.45198
-8.47966
-8.50636
-8.53199
-8.55652
-8.57986
-8.60195
-8.62272
-8.64208
-8.65997
-8.6763
-8.69099
-8.70397
-8.71514
-8.72442
-8.73173
-8.73698
-8.74006
-8.74088
-8.73934
-8.73532
-8.72871
-8.71938
-8.70718
-8.69198
-8.6736
-8.65188
-8.62661
-8.5976
-8.56461
-8.5274
-8.48572
-8.43927
-8.38775
-8.33085
-8.26822
-8.19952
-8.12436
-8.04237
-7.95315
-7.8563
-7.75141
-7.63809
-7.51596
-7.38467
-7.24388
-7.09333
-6.93282
-6.76222
-6.58149
-6.39073
-6.19011
-5.97997
-5.76075
-5.53305
-5.29757
-5.05516
-4.80677
-4.55344
-4.29629
-4.03648
-3.77521
-3.51364
-3.25295
-2.99423
-2.73851
-2.48668
-2.23956
-1.99778
-1.76185
-1.53205
-1.30868
-1.09119
-0.880705
-0.672726
-0.478021
-0.263054
-0.125435
-7.59748
-7.6369
-7.68021
-7.72608
-7.77304
-7.82004
-7.86637
-7.91154
-7.95531
-7.99755
-8.03827
-8.07754
-8.11547
-8.15215
-8.18771
-8.22222
-8.25577
-8.2884
-8.32016
-8.35104
-8.38106
-8.4102
-8.43843
-8.46571
-8.49199
-8.51721
-8.54132
-8.56425
-8.58594
-8.60629
-8.62526
-8.64274
-8.65868
-8.67298
-8.68556
-8.69634
-8.70524
-8.71215
-8.71699
-8.71967
-8.72008
-8.71811
-8.71365
-8.70658
-8.69677
-8.68409
-8.66837
-8.64946
-8.62717
-8.60133
-8.57172
-8.53811
-8.50027
-8.45794
-8.41084
-8.35866
-8.30111
-8.23784
-8.16852
-8.09277
-8.01024
-7.92052
-7.82325
-7.71803
-7.60448
-7.48224
-7.35097
-7.21037
-7.06019
-6.90023
-6.73038
-6.55063
-6.36106
-6.16185
-5.95333
-5.73593
-5.51023
-5.27691
-5.0368
-4.79079
-4.5399
-4.28521
-4.02783
-3.76891
-3.5096
-3.251
-2.99419
-2.74016
-2.48978
-2.24383
-2.00294
-1.7676
-1.53809
-1.31469
-1.09689
-0.8858
-0.676964
-0.481178
-0.264892
-0.126596
-7.61429
-7.65112
-7.6913
-7.73383
-7.77757
-7.82165
-7.86546
-7.90853
-7.95058
-7.99144
-8.03105
-8.06943
-8.10662
-8.14268
-8.1777
-8.21173
-8.24483
-8.27703
-8.30836
-8.33884
-8.36844
-8.39716
-8.42497
-8.45183
-8.47769
-8.50249
-8.52618
-8.5487
-8.56996
-8.58991
-8.60846
-8.62555
-8.64108
-8.65498
-8.66716
-8.67755
-8.68604
-8.69255
-8.69699
-8.69925
-8.69923
-8.69683
-8.69192
-8.68439
-8.6741
-8.66092
-8.64468
-8.62523
-8.60239
-8.57596
-8.54575
-8.51153
-8.47306
-8.43008
-8.38233
-8.3295
-8.27131
-8.20741
-8.13747
-8.06115
-7.97808
-7.88789
-7.79021
-7.68468
-7.57091
-7.44858
-7.31736
-7.17696
-7.02716
-6.86777
-6.69869
-6.51992
-6.33154
-6.13374
-5.92683
-5.71125
-5.48754
-5.25637
-5.01852
-4.77488
-4.52641
-4.27415
-4.01917
-3.76259
-3.5055
-3.24898
-2.99407
-2.74171
-2.49276
-2.24798
-2.00797
-1.77323
-1.544
-1.3206
-1.10249
-0.890805
-0.681147
-0.484273
-0.266786
-0.127581
-7.62962
-7.66422
-7.70173
-7.74139
-7.78228
-7.82373
-7.86519
-7.90625
-7.94659
-7.98603
-8.02448
-8.06189
-8.09827
-8.13364
-8.16806
-8.20155
-8.23415
-8.26588
-8.29677
-8.3268
-8.35597
-8.38425
-8.41163
-8.43806
-8.46349
-8.48786
-8.51113
-8.53322
-8.55407
-8.5736
-8.59174
-8.60841
-8.62354
-8.63703
-8.64882
-8.6588
-8.66688
-8.67299
-8.67701
-8.67885
-8.67841
-8.67556
-8.6702
-8.6622
-8.65143
-8.63774
-8.62098
-8.60099
-8.57759
-8.55058
-8.51977
-8.48494
-8.44584
-8.40223
-8.35383
-8.30036
-8.24153
-8.17701
-8.10648
-8.02959
-7.94601
-7.85536
-7.75729
-7.65145
-7.5375
-7.41509
-7.28393
-7.14376
-6.99434
-6.83553
-6.66723
-6.48944
-6.30226
-6.10586
-5.90056
-5.68677
-5.46503
-5.23598
-5.00038
-4.75907
-4.51298
-4.26312
-4.01052
-3.75624
-3.50135
-3.24689
-2.99385
-2.74314
-2.49562
-2.25199
-2.01286
-1.77871
-1.54978
-1.32636
-1.10797
-0.895701
-0.685254
-0.487292
-0.268709
-0.128413
-7.64364
-7.67631
-7.71152
-7.74867
-7.78707
-7.82614
-7.86543
-7.90456
-7.94324
-7.98127
-8.01851
-8.0549
-8.09041
-8.12504
-8.1588
-8.1917
-8.22376
-8.25499
-8.28538
-8.31495
-8.34366
-8.3715
-8.39844
-8.42442
-8.44941
-8.47336
-8.49619
-8.51786
-8.53828
-8.55739
-8.57512
-8.59138
-8.60609
-8.61918
-8.63055
-8.64013
-8.6478
-8.6535
-8.6571
-8.65852
-8.65764
-8.65435
-8.64853
-8.64006
-8.6288
-8.61461
-8.59733
-8.5768
-8.55284
-8.52526
-8.49386
-8.45841
-8.41869
-8.37445
-8.32542
-8.27132
-8.21187
-8.14674
-8.07563
-7.99819
-7.9141
-7.82301
-7.72458
-7.61846
-7.50433
-7.38186
-7.25079
-7.11084
-6.96183
-6.80361
-6.63609
-6.45928
-6.27328
-6.07827
-5.87456
-5.66254
-5.44275
-5.21579
-4.9824
-4.74339
-4.49965
-4.25215
-4.00189
-3.74988
-3.49716
-3.24472
-2.99352
-2.74445
-2.49833
-2.25585
-2.01759
-1.78402
-1.55538
-1.33197
-1.1133
-0.900467
-0.689264
-0.490224
-0.270635
-0.129116
-7.65649
-7.68746
-7.72067
-7.75565
-7.79183
-7.82875
-7.86605
-7.90337
-7.94044
-7.97706
-8.01309
-8.04844
-8.08304
-8.11687
-8.14993
-8.18219
-8.21367
-8.24436
-8.27425
-8.30332
-8.33156
-8.35894
-8.38542
-8.41095
-8.4355
-8.459
-8.4814
-8.50264
-8.52263
-8.54132
-8.55863
-8.57447
-8.58877
-8.60145
-8.61241
-8.62158
-8.62884
-8.63412
-8.6373
-8.63829
-8.63698
-8.63324
-8.62697
-8.61803
-8.60628
-8.59159
-8.57379