/*--------------------------------*- C++ -*----------------------------------*\
| =========                 |                                                 |
| \\      /  F ield         | OpenFOAM: The Open Source CFD Toolbox           |
|  \\    /   O peration     | Version:  4.1                                   |
|   \\  /    A nd           | Web:      www.OpenFOAM.org                      |
|    \\/     M anipulation  |                                                 |
\*---------------------------------------------------------------------------*/
FoamFile
{
    version     2.0;
    format      ascii;
    class       surfaceScalarField;
    location    "900";
    object      phi;
}
// * * * * * * * * * * * * * * * * * * * * * * * * * * * * * * * * * * * * * //

dimensions      [0 3 -1 0 0 0 0];

internalField   nonuniform List<scalar> 
13452
(
5.98811e-05
3.87335e-07
5.95252e-05
3.55939e-07
5.92696e-05
2.55589e-07
5.90615e-05
2.08074e-07
5.88793e-05
1.82257e-07
5.87166e-05
1.6264e-07
5.85688e-05
1.47873e-07
5.8432e-05
1.36729e-07
5.83043e-05
1.27699e-07
5.81843e-05
1.20064e-07
5.80707e-05
1.13566e-07
5.79627e-05
1.08037e-07
5.78593e-05
1.03336e-07
5.776e-05
9.93636e-08
5.76639e-05
9.6055e-08
5.75705e-05
9.33718e-08
5.74792e-05
9.12985e-08
5.73894e-05
8.98433e-08
5.73004e-05
8.9041e-08
5.72114e-05
8.89598e-08
5.71217e-05
8.9712e-08
5.70302e-05
9.14745e-08
5.69357e-05
9.45249e-08
5.68364e-05
9.93062e-08
5.67298e-05
1.06557e-07
5.66123e-05
1.17564e-07
5.64775e-05
1.3479e-07
5.63145e-05
1.62939e-07
5.61007e-05
2.13799e-07
5.57929e-05
3.07792e-07
5.52632e-05
5.29695e-07
5.42137e-05
1.04952e-06
1.53847e-06
5.26752e-05
6.20749e-05
3.02762e-07
6.19987e-05
4.32114e-07
6.18516e-05
4.02679e-07
6.16884e-05
3.71299e-07
6.15293e-05
3.41415e-07
6.13798e-05
3.1215e-07
6.12402e-05
2.87448e-07
6.11095e-05
2.6745e-07
6.09864e-05
2.50768e-07
6.08699e-05
2.36541e-07
6.07591e-05
2.24338e-07
6.06533e-05
2.13848e-07
6.05518e-05
2.04835e-07
6.04541e-05
1.97136e-07
6.03595e-05
1.90643e-07
6.02676e-05
1.8529e-07
6.01778e-05
1.81052e-07
6.00897e-05
1.77939e-07
6.00027e-05
1.76008e-07
5.99163e-05
1.75367e-07
5.98298e-05
1.76193e-07
5.97426e-05
1.78763e-07
5.96536e-05
1.83501e-07
5.95618e-05
1.91063e-07
5.94659e-05
2.02498e-07
5.93639e-05
2.19499e-07
5.92536e-05
2.45157e-07
5.91321e-05
2.84412e-07
5.89964e-05
3.49494e-07
5.885e-05
4.5417e-07
5.87163e-05
6.63466e-07
5.8763e-05
1.00276e-06
1.63664e-06
5.86649e-05
6.38373e-05
2.26836e-07
6.38685e-05
4.00972e-07
6.38444e-05
4.26702e-07
6.37851e-05
4.30698e-07
6.37047e-05
4.21726e-07
6.36142e-05
4.02703e-07
6.35198e-05
3.81838e-07
6.34248e-05
3.62457e-07
6.33307e-05
3.44834e-07
6.32383e-05
3.28943e-07
6.31479e-05
3.14794e-07
6.30594e-05
3.0231e-07
6.29729e-05
2.91383e-07
6.28881e-05
2.81929e-07
6.28048e-05
2.739e-07
6.27228e-05
2.67277e-07
6.26418e-05
2.62076e-07
6.25614e-05
2.58353e-07
6.24812e-05
2.56216e-07
6.24007e-05
2.55839e-07
6.23194e-05
2.57487e-07
6.22366e-05
2.61552e-07
6.21515e-05
2.68612e-07
6.2063e-05
2.79534e-07
6.19699e-05
2.95653e-07
6.18704e-05
3.19017e-07
6.17624e-05
3.53097e-07
6.16438e-05
4.03021e-07
6.15138e-05
4.79481e-07
6.13749e-05
5.93117e-07
6.12573e-05
7.81012e-07
6.12254e-05
1.03473e-06
1.47515e-06
6.13869e-05
6.5637e-05
1.72893e-07
6.56889e-05
3.49057e-07
6.57122e-05
4.03402e-07
6.57127e-05
4.30246e-07
6.56931e-05
4.41268e-07
6.5658e-05
4.37862e-07
6.56121e-05
4.27755e-07
6.5559e-05
4.15536e-07
6.55012e-05
4.02632e-07
6.54403e-05
3.89798e-07
6.53775e-05
3.77607e-07
6.53135e-05
3.66376e-07
6.52486e-05
3.56261e-07
6.51831e-05
3.47367e-07
6.51173e-05
3.39782e-07
6.50509e-05
3.33592e-07
6.49841e-05
3.28904e-07
6.49166e-05
3.25852e-07
6.48482e-05
3.24625e-07
6.47786e-05
3.25479e-07
6.47073e-05
3.2877e-07
6.46338e-05
3.35001e-07
6.45576e-05
3.44881e-07
6.44777e-05
3.59433e-07
6.43932e-05
3.80158e-07
6.43029e-05
4.09253e-07
6.42059e-05
4.50139e-07
6.41014e-05
5.07548e-07
6.39911e-05
5.89729e-07
6.388e-05
7.04221e-07
6.37908e-05
8.70191e-07
6.37488e-05
1.07675e-06
1.36422e-06
6.38597e-05
6.74946e-05
1.35104e-07
6.75432e-05
3.00472e-07
6.75779e-05
3.68627e-07
6.76013e-05
4.0686e-07
6.76126e-05
4.29951e-07
6.76119e-05
4.38632e-07
6.76008e-05
4.38785e-07
6.75815e-05
4.34877e-07
6.75555e-05
4.28662e-07
6.75241e-05
4.21158e-07
6.74885e-05
4.13213e-07
6.74495e-05
4.05404e-07
6.74076e-05
3.98106e-07
6.73634e-05
3.91594e-07
6.73171e-05
3.86094e-07
6.72689e-05
3.81813e-07
6.72188e-05
3.78953e-07
6.71669e-05
3.77742e-07
6.71131e-05
3.7845e-07
6.70572e-05
3.81417e-07
6.69989e-05
3.87083e-07
6.69378e-05
3.96039e-07
6.68736e-05
4.09081e-07
6.68057e-05
4.2731e-07
6.67336e-05
4.52262e-07
6.66568e-05
4.86064e-07
6.65752e-05
5.31762e-07
6.64895e-05
5.93267e-07
6.64029e-05
6.76319e-07
6.63215e-05
7.85577e-07
6.62623e-05
9.29404e-07
6.6241e-05
1.09803e-06
1.29677e-06
6.63085e-05
6.94108e-05
1.08312e-07
6.9452e-05
2.59333e-07
6.94866e-05
3.33972e-07
6.95155e-05
3.77964e-07
6.95381e-05
4.07368e-07
6.95532e-05
4.23547e-07
6.9561e-05
4.30933e-07
6.95623e-05
4.3357e-07
6.95577e-05
4.33252e-07
6.95479e-05
4.30993e-07
6.95335e-05
4.27661e-07
6.9515e-05
4.23918e-07
6.94928e-05
4.2023e-07
6.94675e-05
4.16962e-07
6.94391e-05
4.14431e-07
6.9408e-05
4.12921e-07
6.93743e-05
4.12712e-07
6.93379e-05
4.14103e-07
6.92989e-05
4.17429e-07
6.92572e-05
4.23096e-07
6.92127e-05
4.31605e-07
6.91652e-05
4.43596e-07
6.91143e-05
4.59903e-07
6.906e-05
4.81622e-07
6.90021e-05
5.10209e-07
6.89406e-05
5.47559e-07
6.88762e-05
5.96158e-07
6.88105e-05
6.58931e-07
6.87474e-05
7.39469e-07
6.86929e-05
8.4007e-07
6.86592e-05
9.63077e-07
6.86569e-05
1.1003e-06
1.24597e-06
6.87077e-05
7.13857e-05
8.89903e-08
7.14198e-05
2.25216e-07
7.14515e-05
3.02248e-07
7.14799e-05
3.49511e-07
7.1505e-05
3.82314e-07
7.15255e-05
4.03005e-07
7.15414e-05
4.1509e-07
7.15528e-05
4.22208e-07
7.15598e-05
4.26197e-07
7.15627e-05
4.28054e-07
7.15618e-05
4.28607e-07
7.15572e-05
4.28511e-07
7.15492e-05
4.28256e-07
7.15379e-05
4.28232e-07
7.15236e-05
4.28789e-07
7.15062e-05
4.30249e-07
7.1486e-05
4.32934e-07
7.14629e-05
4.37179e-07
7.1437e-05
4.43361e-07
7.14082e-05
4.51919e-07
7.13764e-05
4.63379e-07
7.13416e-05
4.78395e-07
7.13037e-05
4.97781e-07
7.12628e-05
5.2256e-07
7.1219e-05
5.54017e-07
7.11728e-05
5.9372e-07
7.11254e-05
6.43541e-07
7.10789e-05
7.05445e-07
7.1037e-05
7.81369e-07
7.10052e-05
8.71926e-07
7.09918e-05
9.76457e-07
7.10039e-05
1.08823e-06
1.19934e-06
7.10505e-05
7.34195e-05
7.47585e-08
7.34477e-05
1.97018e-07
7.34761e-05
2.73818e-07
7.35027e-05
3.22988e-07
7.35272e-05
3.57817e-07
7.35487e-05
3.81421e-07
7.35671e-05
3.96708e-07
7.35824e-05
4.06919e-07
7.35947e-05
4.13939e-07
7.36039e-05
4.18797e-07
7.36102e-05
4.22299e-07
7.36136e-05
4.25094e-07
7.36142e-05
4.27674e-07
7.3612e-05
4.30437e-07
7.36071e-05
4.33739e-07
7.35994e-05
4.37917e-07
7.3589e-05
4.43302e-07
7.3576e-05
4.50247e-07
7.35602e-05
4.59139e-07
7.35417e-05
4.70422e-07
7.35205e-05
4.84617e-07
7.34965e-05
5.02348e-07
7.34699e-05
5.24365e-07
7.34409e-05
5.51566e-07
7.34099e-05
5.85014e-07
7.33777e-05
6.25911e-07
7.33457e-05
6.75541e-07
7.33161e-05
7.35052e-07
7.32923e-05
8.05205e-07
7.32787e-05
8.85548e-07
7.3281e-05
9.74132e-07
7.33037e-05
1.06548e-06
1.15251e-06
7.33506e-05
7.55132e-05
6.40229e-08
7.55366e-05
1.73665e-07
7.55619e-05
2.48492e-07
7.55863e-05
2.98564e-07
7.56095e-05
3.34663e-07
7.56306e-05
3.6029e-07
7.56493e-05
3.77955e-07
7.56658e-05
3.9049e-07
7.56799e-05
3.99773e-07
7.56919e-05
4.06885e-07
7.57015e-05
4.12631e-07
7.5709e-05
4.17663e-07
7.57141e-05
4.22484e-07
7.57171e-05
4.27501e-07
7.57177e-05
4.33074e-07
7.57161e-05
4.3954e-07
7.57122e-05
4.47235e-07
7.57059e-05
4.5651e-07
7.56973e-05
4.67743e-07
7.56864e-05
4.81364e-07
7.56731e-05
4.9786e-07
7.56577e-05
5.17799e-07
7.56402e-05
5.41831e-07
7.56211e-05
5.70701e-07
7.56009e-05
6.05226e-07
7.55805e-05
6.46252e-07
7.55615e-05
6.94556e-07
7.55459e-05
7.50645e-07
7.55366e-05
8.14508e-07
7.55371e-05
8.85104e-07
7.55511e-05
9.60091e-07
7.55815e-05
1.03507e-06
1.10447e-06
7.56296e-05
7.76679e-05
5.57193e-08
7.76873e-05
1.54219e-07
7.77098e-05
2.25972e-07
7.77323e-05
2.76113e-07
7.7754e-05
3.12946e-07
7.77743e-05
3.40007e-07
7.77927e-05
3.59526e-07
7.78093e-05
3.73942e-07
7.7824e-05
3.85061e-07
7.78369e-05
3.93993e-07
7.7848e-05
4.0155e-07
7.78572e-05
4.08388e-07
7.78647e-05
4.15022e-07
7.78703e-05
4.21869e-07
7.78741e-05
4.29295e-07
7.7876e-05
4.3764e-07
7.7876e-05
4.47235e-07
7.78741e-05
4.58422e-07
7.78703e-05
4.71562e-07
7.78646e-05
4.87053e-07
7.78571e-05
5.05335e-07
7.7848e-05
5.26896e-07
7.78376e-05
5.52275e-07
7.78262e-05
5.82047e-07
7.78147e-05
6.16793e-07
7.78039e-05
6.57039e-07
7.77953e-05
7.03156e-07
7.77907e-05
7.5519e-07
7.77926e-05
8.1266e-07
7.78034e-05
8.74266e-07
7.78258e-05
9.37717e-07
7.78613e-05
9.99524e-07
1.05553e-06
7.79103e-05
7.98849e-05
4.91327e-08
7.99012e-05
1.37895e-07
7.99213e-05
2.05946e-07
7.99419e-05
2.55464e-07
7.99623e-05
2.92585e-07
7.99816e-05
3.20623e-07
7.99996e-05
3.41588e-07
8.0016e-05
3.57571e-07
8.00308e-05
3.70254e-07
8.0044e-05
3.80744e-07
8.00557e-05
3.89851e-07
8.00659e-05
3.98227e-07
8.00745e-05
4.06395e-07
8.00816e-05
4.14782e-07
8.00871e-05
4.23755e-07
8.00911e-05
4.33653e-07
8.00935e-05
4.44802e-07
8.00944e-05
4.57528e-07
8.00938e-05
4.72167e-07
8.00918e-05
4.89078e-07
8.00885e-05
5.0864e-07
8.00841e-05
5.31259e-07
8.00791e-05
5.57352e-07
8.00738e-05
5.87333e-07
8.0069e-05
6.21569e-07
8.00657e-05
6.60322e-07
8.00652e-05
7.03656e-07
8.00691e-05
7.5131e-07
8.00792e-05
8.02557e-07
8.00974e-05
8.56043e-07
8.01254e-05
9.09721e-07
8.01641e-05
9.60858e-07
1.00641e-06
8.02132e-05
8.21658e-05
4.37783e-08
8.21796e-05
1.24054e-07
8.21975e-05
1.88105e-07
8.22165e-05
2.36449e-07
8.22356e-05
2.73467e-07
8.22541e-05
3.02093e-07
8.22716e-05
3.2415e-07
8.22877e-05
3.41427e-07
8.23025e-05
3.55453e-07
8.2316e-05
3.67306e-07
8.2328e-05
3.77777e-07
8.23388e-05
3.87509e-07
8.23481e-05
3.97023e-07
8.23562e-05
4.06744e-07
8.23629e-05
4.1704e-07
8.23683e-05
4.28245e-07
8.23724e-05
4.40672e-07
8.23753e-05
4.54627e-07
8.23771e-05
4.70416e-07
8.23778e-05
4.88351e-07
8.23777e-05
5.0875e-07
8.2377e-05
5.3193e-07
8.23762e-05
5.58194e-07
8.23757e-05
5.87809e-07
8.23763e-05
6.20963e-07
8.23789e-05
6.57711e-07
8.23847e-05
6.97904e-07
8.23949e-05
7.41098e-07
8.2411e-05
7.86464e-07
8.24343e-05
8.3272e-07
8.24659e-05
8.7812e-07
8.25062e-05
9.20546e-07
9.57793e-07
8.25548e-05
8.45122e-05
3.93239e-08
8.45241e-05
1.12179e-07
8.45401e-05
1.72151e-07
8.45576e-05
2.18902e-07
8.45756e-05
2.55471e-07
8.45933e-05
2.8435e-07
8.46103e-05
3.07176e-07
8.46263e-05
3.25488e-07
8.46411e-05
3.4065e-07
8.46547e-05
3.53686e-07
8.46671e-05
3.65361e-07
8.46783e-05
3.76296e-07
8.46883e-05
3.87e-07
8.46972e-05
3.97892e-07
8.47049e-05
4.09333e-07
8.47115e-05
4.21643e-07
8.4717e-05
4.3512e-07
8.47216e-05
4.50044e-07
8.47254e-05
4.66686e-07
8.47284e-05
4.8531e-07
8.4731e-05
5.06168e-07
8.47334e-05
5.29496e-07
8.47361e-05
5.55492e-07
8.47396e-05
5.84297e-07
8.47446e-05
6.15955e-07
8.4752e-05
6.50374e-07
8.47626e-05
6.87267e-07
8.47776e-05
7.26097e-07
8.4798e-05
7.66029e-07
8.48249e-05
8.05911e-07
8.48587e-05
8.44302e-07
8.48996e-05
8.79572e-07
9.10126e-07
8.49473e-05
8.6926e-05
3.55381e-08
8.69363e-05
1.01862e-07
8.69506e-05
1.57806e-07
8.69669e-05
2.02659e-07
8.69838e-05
2.3848e-07
8.70009e-05
2.67314e-07
8.70174e-05
2.90617e-07
8.70332e-05
3.0971e-07
8.70481e-05
3.25803e-07
8.70619e-05
3.39845e-07
8.70747e-05
3.52564e-07
8.70864e-05
3.64553e-07
8.70971e-05
3.763e-07
8.71068e-05
3.88212e-07
8.71155e-05
4.00633e-07
8.71233e-05
4.13869e-07
8.71302e-05
4.28193e-07
8.71364e-05
4.43858e-07
8.7142e-05
4.61095e-07
8.71472e-05
4.8012e-07
8.71522e-05
5.01123e-07
8.71575e-05
5.24263e-07
8.71633e-05
5.49648e-07
8.71703e-05
5.77317e-07
8.7179e-05
6.07209e-07
8.71903e-05
6.39128e-07
8.72048e-05
6.72711e-07
8.72236e-05
7.07392e-07
8.72472e-05
7.42387e-07
8.72764e-05
7.76697e-07
8.73116e-05
8.09156e-07
8.73526e-05
8.38516e-07
8.63628e-07
8.73991e-05
8.94088e-05
3.22562e-08
8.94179e-05
9.27759e-08
8.94309e-05
1.44814e-07
8.9446e-05
1.87556e-07
8.94621e-05
2.22372e-07
8.94785e-05
2.509e-07
8.94947e-05
2.74411e-07
8.95104e-05
2.94046e-07
8.95253e-05
3.10863e-07
8.95394e-05
3.2573e-07
8.95527e-05
3.3933e-07
8.9565e-05
3.5222e-07
8.95765e-05
3.64861e-07
8.9587e-05
3.7764e-07
8.95968e-05
3.90882e-07
8.96058e-05
4.0487e-07
8.96141e-05
4.19852e-07
8.96219e-05
4.36047e-07
8.96294e-05
4.5365e-07
8.96367e-05
4.72827e-07
8.96441e-05
4.93711e-07
8.96519e-05
5.16394e-07
8.96607e-05
5.4091e-07
8.96708e-05
5.67218e-07
8.96828e-05
5.95183e-07
8.96974e-05
6.24548e-07
8.97152e-05
6.54917e-07
8.97368e-05
6.85739e-07
8.97629e-05
7.16305e-07
8.97938e-05
7.45775e-07
8.98298e-05
7.73214e-07
8.98706e-05
7.97677e-07
8.18335e-07
8.99159e-05
9.19628e-05
2.93583e-08
9.19709e-05
8.4661e-08
9.19827e-05
1.32946e-07
9.19969e-05
1.73434e-07
9.20122e-05
2.07027e-07
9.20281e-05
2.35016e-07
9.2044e-05
2.5849e-07
9.20596e-05
2.78436e-07
9.20747e-05
2.95774e-07
9.20892e-05
3.11284e-07
9.21029e-05
3.25597e-07
9.21159e-05
3.39229e-07
9.21281e-05
3.52611e-07
9.21397e-05
3.66103e-07
9.21505e-05
3.80005e-07
9.21608e-05
3.94576e-07
9.21707e-05
4.10033e-07
9.21801e-05
4.26565e-07
9.21895e-05
4.44327e-07
9.21989e-05
4.63439e-07
9.22086e-05
4.83984e-07
9.2219e-05
5.05997e-07
9.22304e-05
5.29454e-07
9.22434e-05
5.54258e-07
9.22584e-05
5.80224e-07
9.22758e-05
6.07067e-07
9.22964e-05
6.34387e-07
9.23204e-05
6.61672e-07
9.23484e-05
6.88304e-07
9.23806e-05
7.13587e-07
9.24171e-05
7.36783e-07
9.24576e-05
7.57176e-07
7.7417e-07
9.25017e-05
9.45898e-05
2.67547e-08
9.45971e-05
7.73089e-08
9.46081e-05
1.21995e-07
9.46214e-05
1.60135e-07
9.46361e-05
1.92322e-07
9.46515e-05
2.19563e-07
9.46672e-05
2.42779e-07
9.46829e-05
2.62818e-07
9.46981e-05
2.80476e-07
9.4713e-05
2.96447e-07
9.47273e-05
3.11302e-07
9.4741e-05
3.25516e-07
9.47541e-05
3.39481e-07
9.47667e-05
3.53528e-07
9.47788e-05
3.67931e-07
9.47904e-05
3.82918e-07
9.48018e-05
3.98679e-07
9.4813e-05
4.15367e-07
9.48242e-05
4.33101e-07
9.48357e-05
4.51961e-07
9.48477e-05
4.71987e-07
9.48605e-05
4.93168e-07
9.48745e-05
5.15436e-07
9.48901e-05
5.38656e-07
9.49077e-05
5.62618e-07
9.49278e-05
5.87027e-07
9.49507e-05
6.11503e-07
9.49767e-05
6.35586e-07
9.50063e-05
6.58748e-07
9.50395e-05
6.80421e-07
9.50762e-05
7.0003e-07
9.51164e-05
7.17034e-07
7.31008e-07
9.51595e-05
9.72919e-05
2.43762e-08
9.72987e-05
7.05499e-08
9.73089e-05
1.11779e-07
9.73215e-05
1.47507e-07
9.73357e-05
1.78134e-07
9.73508e-05
2.04439e-07
9.73664e-05
2.27193e-07
9.73821e-05
2.47119e-07
9.73977e-05
2.64904e-07
9.7413e-05
2.81154e-07
9.74279e-05
2.96382e-07
9.74424e-05
3.11014e-07
9.74565e-05
3.25405e-07
9.74701e-05
3.39852e-07
9.74835e-05
3.54597e-07
9.74965e-05
3.69841e-07
9.75095e-05
3.85741e-07
9.75224e-05
4.0242e-07
9.75356e-05
4.19963e-07
9.75491e-05
4.38414e-07
9.75633e-05
4.57776e-07
9.75785e-05
4.78006e-07
9.75949e-05
4.99004e-07
9.7613e-05
5.20612e-07
9.7633e-05
5.42611e-07
9.76553e-05
5.64714e-07
9.76802e-05
5.86571e-07
9.7708e-05
6.07781e-07
9.77389e-05
6.279e-07
9.77728e-05
6.46472e-07
9.78098e-05
6.63048e-07
9.78496e-05
6.77226e-07
6.88704e-07
9.78919e-05
0.000100071
2.21679e-08
0.000100078
6.42439e-08
0.000100087
1.02133e-07
0.000100099
1.35405e-07
0.000100113
1.64338e-07
0.000100128
1.89537e-07
0.000100144
2.1164e-07
0.000100159
2.31262e-07
0.000100175
2.48986e-07
0.000100191
2.65339e-07
0.000100207
2.80772e-07
0.000100222
2.95661e-07
0.000100237
3.10321e-07
0.000100252
3.25013e-07
0.000100267
3.39949e-07
0.000100281
3.55296e-07
0.000100296
3.71186e-07
0.000100311
3.87708e-07
0.000100326
4.04917e-07
0.000100341
4.2283e-07
0.000100358
4.41419e-07
0.000100375
4.60616e-07
0.000100394
4.80303e-07
0.000100414
5.00312e-07
0.000100436
5.20424e-07
0.00010046
5.40373e-07
0.000100487
5.59845e-07
0.000100516
5.78495e-07
0.000100548
5.95958e-07
0.000100583
6.1187e-07
0.00010062
6.25886e-07
0.00010066
6.37706e-07
6.4712e-07
0.000100701
0.00010293
2.00849e-08
0.000102936
5.82728e-08
0.000102945
9.29116e-08
0.000102957
1.23688e-07
0.000102971
1.50809e-07
0.000102985
1.74747e-07
0.000103001
1.96025e-07
0.000103017
2.1516e-07
0.000103033
2.32645e-07
0.00010305
2.4893e-07
0.000103066
2.64402e-07
0.000103082
2.79391e-07
0.000103099
2.94168e-07
0.000103115
3.08957e-07
0.000103131
3.23938e-07
0.000103147
3.39249e-07
0.000103163
3.5499e-07
0.000103179
3.71225e-07
0.000103196
3.87983e-07
0.000103214
4.05254e-07
0.000103232
4.22991e-07
0.000103252
4.41107e-07
0.000103273
4.59476e-07
0.000103295
4.77928e-07
0.000103319
4.96255e-07
0.000103345
5.14213e-07
0.000103374
5.31531e-07
0.000103404
5.47916e-07
0.000103437
5.63071e-07
0.000103472
5.76708e-07
0.00010351
5.88565e-07
0.000103549
5.9842e-07
6.06131e-07
0.00010359
0.000105871
1.80891e-08
0.000105876
5.25345e-08
0.000105885
8.3981e-08
0.000105897
1.12221e-07
0.00010591
1.37421e-07
0.000105925
1.59953e-07
0.000105941
1.80244e-07
0.000105957
1.98722e-07
0.000105974
2.15799e-07
0.000105991
2.3185e-07
0.000106008
2.47205e-07
0.000106026
2.62141e-07
0.000106043
2.76888e-07
0.00010606
2.91634e-07
0.000106078
3.06525e-07
0.000106095
3.2167e-07
0.000106113
3.37141e-07
0.000106131
3.52978e-07
0.00010615
3.69187e-07
0.00010617
3.85739e-07
0.00010619
4.02571e-07
0.000106212
4.19587e-07
0.000106234
4.36657e-07
0.000106259
4.53618e-07
0.000106285
4.70276e-07
0.000106312
4.86416e-07
0.000106342
5.01804e-07
0.000106374
5.16196e-07
0.000106408
5.29353e-07
0.000106443
5.41052e-07
0.000106481
5.51092e-07
0.00010652
5.59314e-07
5.65623e-07
0.00010656
0.000108895
1.61476e-08
0.000108901
4.69384e-08
0.00010891
7.52179e-08
0.000108921
1.00872e-07
0.000108934
1.24046e-07
0.000108949
1.45036e-07
0.000108965
1.64188e-07
0.000108982
1.81849e-07
0.000109
1.98357e-07
0.000109018
2.14019e-07
0.000109036
2.29106e-07
0.000109054
2.43845e-07
0.000109072
2.58426e-07
0.000109091
2.72998e-07
0.00010911
2.87675e-07
0.000109129
3.02537e-07
0.000109149
3.17633e-07
0.000109169
3.3298e-07
0.000109189
3.48564e-07
0.000109211
3.64342e-07
0.000109233
3.80242e-07
0.000109256
3.96162e-07
0.000109281
4.11974e-07
0.000109307
4.27525e-07
0.000109335
4.42641e-07
0.000109364
4.57134e-07
0.000109395
4.70804e-07
0.000109428
4.83454e-07
0.000109462
4.94891e-07
0.000109498
5.04943e-07
0.000109536
5.13462e-07
0.000109575
5.20332e-07
5.25495e-07
0.000109615
0.000112006
1.42303e-08
0.000112012
4.14012e-08
0.000112021
6.65052e-08
0.000112032
8.95099e-08
0.000112046
1.10553e-07
0.000112061
1.29872e-07
0.000112077
1.4774e-07
0.000112095
1.64436e-07
0.000112113
1.80224e-07
0.000112131
1.95351e-07
0.00011215
2.1003e-07
0.00011217
2.24439e-07
0.00011219
2.38726e-07
0.00011221
2.53004e-07
0.00011223
2.67356e-07
0.000112251
2.81836e-07
0.000112272
2.96468e-07
0.000112293
3.1125e-07
0.000112316
3.26153e-07
0.000112339
3.41124e-07
0.000112363
3.56084e-07
0.000112388
3.70931e-07
0.000112415
3.85542e-07
0.000112443
3.99777e-07
0.000112472
4.13482e-07
0.000112502
4.26494e-07
0.000112535
4.38648e-07
0.000112568
4.49783e-07
0.000112603
4.59747e-07
0.00011264
4.68409e-07
0.000112678
4.75661e-07
0.000112717
4.81419e-07
4.85654e-07
0.000112756
0.000115206
1.2309e-08
0.000115212
3.5844e-08
0.000115221
5.77289e-08
0.000115232
7.80048e-08
0.000115246
9.68077e-08
0.000115262
1.14329e-07
0.000115278
1.30778e-07
0.000115297
1.46368e-07
0.000115315
1.613e-07
0.000115335
1.75757e-07
0.000115355
1.89898e-07
0.000115376
2.03855e-07
0.000115397
2.17733e-07
0.000115418
2.31611e-07
0.00011544
2.45542e-07
0.000115462
2.59553e-07
0.000115485
2.73648e-07
0.000115509
2.8781e-07
0.000115533
3.01996e-07
0.000115558
3.16144e-07
0.000115584
3.30174e-07
0.000115611
3.43986e-07
0.000115639
3.57464e-07
0.000115668
3.70484e-07
0.000115698
3.8291e-07
0.00011573
3.94604e-07
0.000115764
4.05429e-07
0.000115798
4.15256e-07
0.000115834
4.23968e-07
0.000115871
4.31465e-07
0.000115909
4.37668e-07
0.000115948
4.42524e-07
4.46018e-07
0.000115987
0.000118498
1.03556e-08
0.000118503
3.01879e-08
0.000118512
4.87734e-08
0.000118524
6.6221e-08
0.000118538
8.26688e-08
0.000118554
9.82671e-08
0.000118572
1.13169e-07
0.000118591
1.27524e-07
0.000118611
1.41472e-07
0.000118631
1.55138e-07
0.000118653
1.68626e-07
0.000118674
1.82022e-07
0.000118697
1.95391e-07
0.00011872
2.08777e-07
0.000118743
2.22204e-07
0.000118767
2.35677e-07
0.000118791
2.49181e-07
0.000118816
2.62683e-07
0.000118842
2.76131e-07
0.000118869
2.89458e-07
0.000118897
3.02583e-07
0.000118925
3.1541e-07
0.000118955
3.27834e-07
0.000118985
3.39742e-07
0.000119017
3.51019e-07
0.00011905
3.61549e-07
0.000119085
3.71219e-07
0.00011912
3.79926e-07
0.000119156
3.87582e-07
0.000119194
3.94111e-07
0.000119232
3.9946e-07
0.000119271
4.03592e-07
4.06508e-07
0.00011931
0.000121883
8.34144e-09
0.000121889
2.43511e-08
0.000121898
3.95174e-08
0.000121911
5.40144e-08
0.000121925
6.79832e-08
0.000121942
8.15356e-08
0.00012196
9.47688e-08
0.00012198
1.07772e-07
0.000122001
1.20624e-07
0.000122023
1.33391e-07
0.000122045
1.46125e-07
0.000122068
1.58866e-07
0.000122092
1.7164e-07
0.000122117
1.84458e-07
0.000122141
1.97317e-07
0.000122167
2.10199e-07
0.000122193
2.23072e-07
0.00012222
2.3589e-07
0.000122247
2.48595e-07
0.000122276
2.61117e-07
0.000122305
2.73373e-07
0.000122335
2.85276e-07
0.000122366
2.96728e-07
0.000122398
3.07632e-07
0.000122431
3.17887e-07
0.000122465
3.27397e-07
0.000122501
3.36073e-07
0.000122537
3.43832e-07
0.000122574
3.50607e-07
0.000122611
3.56344e-07
0.00012265
3.61006e-07
0.000122689
3.64572e-07
3.67051e-07
0.000122728
0.000125366
6.23482e-09
0.000125372
1.82438e-08
0.000125381
2.98273e-08
0.000125394
4.12258e-08
0.00012541
5.25822e-08
0.000125427
6.39669e-08
0.000125446
7.54187e-08
0.000125467
8.6965e-08
0.000125489
9.8623e-08
0.000125512
1.10401e-07
0.000125536
1.22298e-07
0.000125561
1.34309e-07
0.000125586
1.4642e-07
0.000125612
1.5861e-07
0.000125638
1.70852e-07
0.000125665
1.83105e-07
0.000125693
1.95324e-07
0.000125721
2.07451e-07
0.000125751
2.19423e-07
0.000125781
2.31165e-07
0.000125811
2.42601e-07
0.000125843
2.53645e-07
0.000125876
2.64213e-07
0.000125909
2.74217e-07
0.000125943
2.83574e-07
0.000125978
2.92202e-07
0.000126014
3.00031e-07
0.000126051
3.06996e-07
0.000126089
3.13048e-07
0.000126127
3.18147e-07
0.000126166
3.22271e-07
0.000126205
3.2541e-07
3.27578e-07
0.000126244
0.000128947
3.99935e-09
0.000128954
1.17621e-08
0.000128964
1.95491e-08
0.000128978
2.76726e-08
0.000128994
3.62737e-08
0.000129013
4.53717e-08
0.000129033
5.49404e-08
0.000129055
6.49407e-08
0.000129078
7.5326e-08
0.000129103
8.60437e-08
0.000129128
9.704e-08
0.000129154
1.08263e-07
0.000129181
1.19662e-07
0.000129208
1.31184e-07
0.000129236
1.42777e-07
0.000129265
1.54381e-07
0.000129294
1.65938e-07
0.000129324
1.7738e-07
0.000129355
1.88639e-07
0.000129387
1.99641e-07
0.000129419
2.10311e-07
0.000129452
2.2057e-07
0.000129486
2.30341e-07
0.000129521
2.3955e-07
0.000129556
2.48125e-07
0.000129592
2.56e-07
0.000129629
2.63118e-07
0.000129667
2.69431e-07
0.000129705
2.749e-07
0.000129744
2.79501e-07
0.000129783
2.83219e-07
0.000129822
2.86052e-07
2.88019e-07
0.000129862
0.000132631
1.59038e-09
0.000132638
4.77886e-09
0.00013265
8.49607e-09
0.000132664
1.31376e-08
0.000132681
1.88324e-08
0.000132701
2.55316e-08
0.000132723
3.31299e-08
0.000132747
4.15153e-08
0.000132771
5.05714e-08
0.000132797
6.01815e-08
0.000132824
7.02356e-08
0.000132852
8.06357e-08
0.00013288
9.12931e-08
0.000132909
1.02126e-07
0.000132939
1.13055e-07
0.000132969
1.24008e-07
0.000133
1.34909e-07
0.000133032
1.45687e-07
0.000133064
1.56266e-07
0.000133097
1.66574e-07
0.000133131
1.76539e-07
0.000133166
1.86088e-07
0.000133201
1.95153e-07
0.000133237
2.03668e-07
0.000133273
2.11573e-07
0.00013331
2.18815e-07
0.000133348
2.25348e-07
0.000133386
2.31135e-07
0.000133425
2.3615e-07
0.000133464
2.40375e-07
0.000133504
2.43804e-07
0.000133543
2.4644e-07
2.48305e-07
0.000133583
0.000136421
-1.04971e-09
0.000136429
-2.86991e-09
0.000136441
-3.56844e-09
0.000136456
-2.64815e-09
0.000136475
-1.26502e-11
0.000136497
4.18819e-09
0.00013652
9.75032e-09
0.000136545
1.64779e-08
0.000136571
2.41772e-08
0.000136599
3.26602e-08
0.000136627
4.17578e-08
0.000136657
5.13244e-08
0.000136687
6.1234e-08
0.000136718
7.1375e-08
0.000136749
8.16472e-08
0.000136781
9.19596e-08
0.000136814
1.02227e-07
0.000136847
1.12371e-07
0.000136881
1.22314e-07
0.000136916
1.31983e-07
0.000136951
1.41309e-07
0.000136987
1.50227e-07
0.000137023
1.58673e-07
0.00013706
1.66593e-07
0.000137098
1.73935e-07
0.000137136
1.80656e-07
0.000137175
1.86719e-07
0.000137214
1.92097e-07
0.000137253
1.96772e-07
0.000137293
2.00733e-07
0.000137332
2.03979e-07
0.000137372
2.06517e-07
2.08369e-07
0.000137412
0.000140319
-3.9998e-09
0.000140327
-1.14079e-08
0.000140341
-1.69593e-08
0.000140358
-2.00285e-08
0.000140379
-2.05962e-08
0.000140402
-1.89689e-08
0.000140427
-1.5478e-08
0.000140454
-1.04159e-08
0.000140482
-4.06539e-09
0.000140511
3.3051e-09
0.000140542
1.14629e-08
0.000140573
2.0214e-08
0.000140605
2.93952e-08
0.000140637
3.88659e-08
0.00014067
4.85052e-08
0.000140704
5.82069e-08
0.000140738
6.78768e-08
0.000140773
7.74298e-08
0.000140809
8.67878e-08
0.000140845
9.5879e-08
0.000140882
1.04637e-07
0.000140919
1.13002e-07
0.000140957
1.20918e-07
0.000140995
1.28337e-07
0.000141034
1.35216e-07
0.000141073
1.41519e-07
0.000141112
1.47219e-07
0.000141152
1.52294e-07
0.000141192
1.56733e-07
0.000141232
1.60529e-07
0.000141273
1.63686e-07
0.000141313
1.66211e-07
1.68126e-07
0.000141353
0.000144328
-7.37414e-09
0.000144338
-2.1157e-08
0.000144353
-3.21124e-08
0.000144372
-3.94564e-08
0.000144395
-4.33417e-08
0.00014442
-4.43215e-08
0.000144448
-4.28877e-08
0.000144477
-3.94459e-08
0.000144507
-3.43875e-08
0.000144539
-2.80739e-08
0.000144571
-2.0805e-08
0.000144604
-1.28223e-08
0.000144638
-4.32572e-09
0.000144672
4.51729e-09
0.000144707
1.35661e-08
0.000144742
2.27021e-08
0.000144778
3.18229e-08
0.000144815
4.08394e-08
0.000144852
4.96726e-08
0.00014489
5.82525e-08
0.000144928
6.65163e-08
0.000144966
7.44086e-08
0.000145005
8.18804e-08
0.000145045
8.88893e-08
0.000145085
9.53997e-08
0.000145125
1.01383e-07
0.000145165
1.06817e-07
0.000145206
1.11686e-07
0.000145247
1.15984e-07
0.000145287
1.19707e-07
0.000145328
1.22862e-07
0.000145369
1.25458e-07
1.27517e-07
0.00014541
0.000148452
-1.13484e-08
0.000148463
-3.26102e-08
0.000148481
-4.96554e-08
0.000148503
-6.15327e-08
0.000148528
-6.87867e-08
0.000148556
-7.23528e-08
0.000148586
-7.29007e-08
0.000148618
-7.09638e-08
0.000148651
-6.70727e-08
0.000148684
-6.17002e-08
0.000148719
-5.52174e-08
0.000148754
-4.79137e-08
0.00014879
-4.0024e-08
0.000148826
-3.17407e-08
0.000148863
-2.32204e-08
0.0001489
-1.45917e-08
0.000148938
-5.96196e-09
0.000148976
2.57761e-09
0.000149015
1.09489e-08
0.000149054
1.90845e-08
0.000149093
2.69258e-08
0.000149133
3.44223e-08
0.000149174
4.15309e-08
0.000149214
4.82149e-08
0.000149255
5.44448e-08
0.000149297
6.01971e-08
0.000149338
6.5455e-08
0.000149379
7.02074e-08
0.000149421
7.44494e-08
0.000149462
7.81814e-08
0.000149504
8.14086e-08
0.000149545
8.414e-08
8.63944e-08
0.000149586
0.000152694
-1.62045e-08
0.000152708
-4.65668e-08
0.000152729
-7.05482e-08
0.000152754
-8.7084e-08
0.000152783
-9.75943e-08
0.000152814
-1.03605e-07
0.000152848
-1.05962e-07
0.000152882
-1.05343e-07
0.000152917
-1.02448e-07
0.000152953
-9.78673e-08
0.00015299
-9.20394e-08
0.000153028
-8.52979e-08
0.000153066
-7.79115e-08
0.000153104
-7.00953e-08
0.000153143
-6.20191e-08
0.000153182
-5.38183e-08
0.000153222
-4.56034e-08
0.000153262
-3.74654e-08
0.000153302
-2.94801e-08
0.000153343
-2.17111e-08
0.000153384
-1.42121e-08
0.000153425
-7.02823e-09
0.000153467
-1.97204e-10
0.000153509
6.2502e-09
0.000153551
1.22893e-08
0.000153594
1.79017e-08
0.000153636
2.30744e-08
0.000153678
2.77999e-08
0.000153721
3.20758e-08
0.000153763
3.59048e-08
0.000153805
3.92941e-08
0.000153847
4.22556e-08
4.48065e-08
0.000153889
0.000157058
-2.24625e-08
0.000157075
-6.43297e-08
0.000157101
-9.62158e-08
0.000157131
-1.17364e-07
0.000157165
-1.30888e-07
0.0001572
-1.39015e-07
0.000157237
-1.42757e-07
0.000157275
-1.43048e-07
0.000157313
-1.40828e-07
0.000157352
-1.36801e-07
0.000157391
-1.3145e-07
0.000157431
-1.25136e-07
0.000157471
-1.1815e-07
0.000157512
-1.10717e-07
0.000157553
-1.03011e-07
0.000157594
-9.51669e-08
0.000157636
-8.72936e-08
0.000157678
-7.94789e-08
0.00015772
-7.17946e-08
0.000157763
-6.42996e-08
0.000157806
-5.70428e-08
0.000157849
-5.00646e-08
0.000157892
-4.3398e-08
0.000157935
-3.70696e-08
0.000157979
-3.11e-08
0.000158022
-2.55046e-08
0.000158066
-2.0294e-08
0.000158109
-1.54741e-08
0.000158152
-1.10469e-08
0.000158195
-7.01111e-09
0.000158238
-3.36256e-09
0.00015828
-9.60164e-11
2.80192e-09
0.000158322
0.000161547
-3.13447e-08
0.000161572
-8.85522e-08
0.000161604
-1.28352e-07
0.00016164
-1.53327e-07
0.000161678
-1.69724e-07
0.000161719
-1.79887e-07
0.000161761
-1.84734e-07
0.000161804
-1.85588e-07
0.000161847
-1.83705e-07
0.00016189
-1.79903e-07
0.000161933
-1.74706e-07
0.000161976
-1.68512e-07
0.00016202
-1.61634e-07
0.000162064
-1.54305e-07
0.000162107
-1.46697e-07
0.000162151
-1.38943e-07
0.000162195
-1.31148e-07
0.000162239
-1.23394e-07
0.000162283
-1.15749e-07
0.000162327
-1.08267e-07
0.000162371
-1.00993e-07
0.000162415
-9.39623e-08
0.000162458
-8.72053e-08
0.000162502
-8.07452e-08
0.000162546
-7.46003e-08
0.000162589
-6.87838e-08
0.000162632
-6.33045e-08
0.000162675
-5.81672e-08
0.000162717
-5.33723e-08
0.000162759
-4.89167e-08
0.0001628
-4.47931e-08
0.000162841
-4.09892e-08
-3.74948e-08
0.000162881
0.000166166
-4.41017e-08
0.000166205
-1.26793e-07
0.000166249
-1.73045e-07
0.000166295
-1.99424e-07
0.000166343
-2.1741e-07
0.000166392
-2.28581e-07
0.000166441
-2.33703e-07
0.00016649
-2.34532e-07
0.000166538
-2.32485e-07
0.000166587
-2.28355e-07
0.000166635
-2.22673e-07
0.000166682
-2.15876e-07
0.000166729
-2.08315e-07
0.000166775
-2.00246e-07
0.00016682
-1.91865e-07
0.000166864
-1.83322e-07
0.000166908
-1.74736e-07
0.000166951
-1.662e-07
0.000166993
-1.57786e-07
0.000167034
-1.49554e-07
0.000167075
-1.41547e-07
0.000167115
-1.33803e-07
0.000167154
-1.26348e-07
0.000167192
-1.19203e-07
0.00016723
-1.12383e-07
0.000167267
-1.05899e-07
0.000167303
-9.97552e-08
0.000167339
-9.39555e-08
0.000167374
-8.84992e-08
0.000167409
-8.33843e-08