/*--------------------------------*- C++ -*----------------------------------*\
| =========                 |                                                 |
| \\      /  F ield         | OpenFOAM: The Open Source CFD Toolbox           |
|  \\    /   O peration     | Version:  4.1                                   |
|   \\  /    A nd           | Web:      www.OpenFOAM.org                      |
|    \\/     M anipulation  |                                                 |
\*---------------------------------------------------------------------------*/
FoamFile
{
    version     2.0;
    format      ascii;
    class       volVectorField;
    location    "900";
    object      U;
}
// * * * * * * * * * * * * * * * * * * * * * * * * * * * * * * * * * * * * * //

dimensions      [0 1 -1 0 0 0 0];

internalField   nonuniform List<vector> 
6820
(
(7.30076 0.0105784 0)
(7.26066 0.01454 0)
(7.22719 0.0116117 0)
(7.19817 0.00889193 0)
(7.17426 0.00729691 0)
(7.15366 0.00634301 0)
(7.13496 0.00573875 0)
(7.11767 0.00533742 0)
(7.10162 0.0050462 0)
(7.08658 0.0048167 0)
(7.0724 0.00462959 0)
(7.05894 0.00447695 0)
(7.0461 0.00435416 0)
(7.03378 0.00425825 0)
(7.02191 0.00418755 0)
(7.0104 0.00414147 0)
(6.99918 0.00412049 0)
(6.98818 0.00412614 0)
(6.97732 0.00416136 0)
(6.96651 0.0042308 0)
(6.95567 0.00434152 0)
(6.94468 0.00450415 0)
(6.9334 0.00473493 0)
(6.92166 0.0050594 0)
(6.90922 0.0055194 0)
(6.89571 0.00618826 0)
(6.88059 0.007202 0)
(6.86274 0.00883447 0)
(6.84098 0.0117108 0)
(6.80896 0.0172018 0)
(6.77001 0.0286649 0)
(6.65279 0.0702556 0)
(6.6397 -0.0294704 0)
(7.3396 0.012948 0)
(7.34154 0.0168194 0)
(7.32732 0.0138365 0)
(7.30715 0.0119876 0)
(7.28756 0.0109491 0)
(7.2694 0.0100968 0)
(7.25236 0.00941899 0)
(7.23638 0.00890429 0)
(7.22139 0.00849538 0)
(7.20725 0.00815947 0)
(7.19383 0.00788415 0)
(7.18103 0.00766142 0)
(7.16878 0.00748485 0)
(7.15701 0.00735032 0)
(7.14565 0.00725589 0)
(7.13463 0.00720132 0)
(7.1239 0.00718798 0)
(7.11339 0.00721908 0)
(7.10305 0.00730005 0)
(7.09281 0.0074392 0)
(7.0826 0.00764889 0)
(7.07235 0.00794739 0)
(7.06195 0.00836224 0)
(7.05129 0.008936 0)
(7.04023 0.00973776 0)
(7.02857 0.0108829 0)
(7.01611 0.0125887 0)
(7.00238 0.0152351 0)
(6.98749 0.0197996 0)
(6.96973 0.0276161 0)
(6.95487 0.0454755 0)
(6.9375 0.0769112 0)
(6.9791 0.170842 0)
(7.33613 0.0108742 0)
(7.34462 0.0173201 0)
(7.34579 0.0178699 0)
(7.34012 0.0178786 0)
(7.33147 0.0174242 0)
(7.32149 0.0166049 0)
(7.31078 0.0157939 0)
(7.29981 0.0151143 0)
(7.28889 0.0145467 0)
(7.27816 0.0140699 0)
(7.26764 0.0136739 0)
(7.25735 0.0133507 0)
(7.24729 0.0130934 0)
(7.23744 0.0128982 0)
(7.22778 0.0127642 0)
(7.21829 0.0126923 0)
(7.20892 0.0126859 0)
(7.19965 0.0127509 0)
(7.19042 0.0128963 0)
(7.1812 0.0131358 0)
(7.17191 0.0134887 0)
(7.16249 0.0139832 0)
(7.15286 0.0146605 0)
(7.14291 0.0155821 0)
(7.13251 0.0168443 0)
(7.12148 0.018598 0)
(7.10963 0.0211078 0)
(7.09663 0.0247871 0)
(7.08249 0.0305662 0)
(7.06659 0.0395104 0)
(7.05197 0.0556843 0)
(7.03842 0.0800048 0)
(7.05075 0.126636 0)
(7.33465 0.00788241 0)
(7.34191 0.0151076 0)
(7.34712 0.0174411 0)
(7.34827 0.018685 0)
(7.34686 0.0192161 0)
(7.3437 0.0191498 0)
(7.3391 0.0188441 0)
(7.33348 0.0184863 0)
(7.32721 0.0181242 0)
(7.32055 0.0177819 0)
(7.31361 0.017479 0)
(7.3065 0.0172253 0)
(7.29928 0.017026 0)
(7.29199 0.0168849 0)
(7.28465 0.016807 0)
(7.27726 0.0167981 0)
(7.26982 0.016866 0)
(7.26231 0.017021 0)
(7.25472 0.0172773 0)
(7.24702 0.0176544 0)
(7.23915 0.018179 0)
(7.23107 0.0188884 0)
(7.22272 0.0198359 0)
(7.21402 0.021099 0)
(7.20486 0.0227937 0)
(7.19512 0.0250945 0)
(7.18469 0.0282847 0)
(7.17343 0.0327796 0)
(7.16144 0.0393601 0)
(7.14878 0.0488453 0)
(7.13735 0.063466 0)
(7.12813 0.0825755 0)
(7.13102 0.111129 0)
(7.334 0.0060237 0)
(7.33938 0.013043 0)
(7.3447 0.0160239 0)
(7.34792 0.0178462 0)
(7.34963 0.0190492 0)
(7.35018 0.0196472 0)
(7.34953 0.0198922 0)
(7.34783 0.0199724 0)
(7.34532 0.0199604 0)
(7.34217 0.0198992 0)
(7.33851 0.0198253 0)
(7.33443 0.0197636 0)
(7.33002 0.0197309 0)
(7.32534 0.0197401 0)
(7.32041 0.0198036 0)
(7.31527 0.0199333 0)
(7.30993 0.0201426 0)
(7.30439 0.0204473 0)
(7.29865 0.0208671 0)
(7.29269 0.0214274 0)
(7.28649 0.0221616 0)
(7.28001 0.0231152 0)
(7.27322 0.0243506 0)
(7.26605 0.0259556 0)
(7.25846 0.0280562 0)
(7.25039 0.0308333 0)
(7.24179 0.0345579 0)
(7.23267 0.0396021 0)
(7.22325 0.0465574 0)
(7.21388 0.0559952 0)
(7.20594 0.0690321 0)
(7.20071 0.0850138 0)
(7.20233 0.105368 0)
(7.33365 0.00478016 0)
(7.33758 0.0112547 0)
(7.34215 0.0145228 0)
(7.34564 0.0166289 0)
(7.34826 0.0181743 0)
(7.35024 0.0191705 0)
(7.35148 0.0198004 0)
(7.35195 0.0202341 0)
(7.35175 0.020544 0)
(7.35097 0.0207719 0)
(7.34968 0.0209561 0)
(7.34793 0.0211265 0)
(7.34577 0.0213053 0)
(7.34325 0.0215112 0)
(7.34041 0.0217614 0)
(7.33727 0.0220729 0)
(7.33384 0.0224638 0)
(7.33013 0.0229545 0)
(7.32615 0.0235695 0)
(7.32189 0.0243392 0)
(7.31735 0.0253024 0)
(7.31249 0.0265099 0)
(7.3073 0.0280297 0)
(7.30175 0.0299537 0)
(7.29582 0.0324079 0)
(7.28951 0.035564 0)
(7.28285 0.0396598 0)
(7.27593 0.0449984 0)
(7.26904 0.0519912 0)
(7.26263 0.06099 0)
(7.2577 0.0724678 0)
(7.25536 0.0858582 0)
(7.25746 0.101032 0)
(7.33343 0.00388693 0)
(7.33634 0.0097497 0)
(7.34013 0.0131385 0)
(7.34337 0.0153894 0)
(7.34606 0.0170952 0)
(7.34839 0.0183104 0)
(7.35029 0.0191763 0)
(7.35169 0.0198439 0)
(7.35262 0.020385 0)
(7.35313 0.0208388 0)
(7.35323 0.0212404 0)
(7.35294 0.0216194 0)
(7.35229 0.0219993 0)
(7.3513 0.0224001 0)
(7.34998 0.0228414 0)
(7.34835 0.0233426 0)
(7.34642 0.0239247 0)
(7.34419 0.0246112 0)
(7.34168 0.0254297 0)
(7.33887 0.0264138 0)
(7.33576 0.0276056 0)
(7.33234 0.0290585 0)
(7.32861 0.0308417 0)
(7.32456 0.0330454 0)
(7.32021 0.0357874 0)
(7.31557 0.0392197 0)
(7.31074 0.0435365 0)
(7.30586 0.048965 0)
(7.30123 0.0557671 0)
(7.29728 0.0641237 0)
(7.29476 0.074156 0)
(7.29445 0.0853699 0)
(7.29722 0.0971967 0)
(7.3333 0.00323181 0)
(7.33547 0.00850351 0)
(7.33859 0.011896 0)
(7.3415 0.0142206 0)
(7.34402 0.0160081 0)
(7.3463 0.0173516 0)
(7.34832 0.0183645 0)
(7.35001 0.0191803 0)
(7.35138 0.0198732 0)
(7.35245 0.0204829 0)
(7.35323 0.0210432 0)
(7.35371 0.0215827 0)
(7.35391 0.0221247 0)
(7.35383 0.0226897 0)
(7.35348 0.0232978 0)
(7.35285 0.0239694 0)
(7.35195 0.0247266 0)
(7.35078 0.0255946 0)
(7.34934 0.0266024 0)
(7.34763 0.0277849 0)
(7.34564 0.0291852 0)
(7.34339 0.0308563 0)
(7.34086 0.0328652 0)
(7.33808 0.0352953 0)
(7.33508 0.0382507 0)
(7.3319 0.0418576 0)
(7.32866 0.0462646 0)
(7.32553 0.0516282 0)
(7.32278 0.0580971 0)
(7.32079 0.0657332 0)
(7.32008 0.0744838 0)
(7.32119 0.0839294 0)
(7.32454 0.0934835 0)
(7.33321 0.00274292 0)
(7.33487 0.00747271 0)
(7.33744 0.0107877 0)
(7.34 0.013142 0)
(7.34231 0.0149738 0)
(7.34445 0.0163991 0)
(7.3464 0.017512 0)
(7.34811 0.0184288 0)
(7.3496 0.0192247 0)
(7.35086 0.0199421 0)
(7.35191 0.0206145 0)
(7.35274 0.0212708 0)
(7.35336 0.0219347 0)
(7.35375 0.0226271 0)
(7.35393 0.0233683 0)
(7.35388 0.0241795 0)
(7.35362 0.0250831 0)
(7.35312 0.0261047 0)
(7.3524 0.0272736 0)
(7.35145 0.0286246 0)
(7.35028 0.0301996 0)
(7.34889 0.0320491 0)
(7.34728 0.0342344 0)
(7.3455 0.0368294 0)
(7.34358 0.0399209 0)
(7.34158 0.0436079 0)
(7.33964 0.0479962 0)
(7.33791 0.0531832 0)
(7.33662 0.0592374 0)
(7.3361 0.0661457 0)
(7.33671 0.073781 0)
(7.33879 0.0817943 0)
(7.34253 0.0896956 0)
(7.33315 0.00236936 0)
(7.33444 0.00661596 0)
(7.33656 0.00980166 0)
(7.33882 0.0121508 0)
(7.34092 0.0140031 0)
(7.3429 0.0154817 0)
(7.34473 0.0166677 0)
(7.34639 0.0176608 0)
(7.34787 0.018534 0)
(7.34917 0.0193316 0)
(7.3503 0.0200877 0)
(7.35126 0.0208315 0)
(7.35205 0.0215877 0)
(7.35267 0.0223779 0)
(7.35312 0.0232229 0)
(7.35339 0.0241442 0)
(7.35348 0.0251645 0)
(7.35339 0.0263091 0)
(7.35312 0.027607 0)
(7.35267 0.0290915 0)
(7.35205 0.030802 0)
(7.35127 0.0327848 0)
(7.35034 0.0350938 0)
(7.3493 0.037791 0)
(7.3482 0.0409455 0)
(7.34712 0.04463 0)
(7.34617 0.0489137 0)
(7.34551 0.0538482 0)
(7.34532 0.0594483 0)
(7.34586 0.0656587 0)
(7.34736 0.0723297 0)
(7.35005 0.0791757 0)
(7.354 0.0858171 0)
(7.33312 0.00207657 0)
(7.33413 0.00589895 0)
(7.3359 0.00892501 0)
(7.33788 0.0112399 0)
(7.33979 0.0130935 0)
(7.34161 0.0146045 0)
(7.34333 0.0158449 0)
(7.34491 0.0168987 0)
(7.34634 0.0178344 0)
(7.34763 0.018697 0)
(7.34878 0.0195205 0)
(7.34978 0.0203346 0)
(7.35064 0.0211645 0)
(7.35137 0.0220325 0)
(7.35195 0.0229599 0)
(7.35239 0.0239684 0)
(7.35268 0.0250806 0)
(7.35283 0.0263214 0)
(7.35285 0.0277184 0)
(7.35273 0.0293032 0)
(7.35248 0.0311114 0)
(7.35212 0.0331839 0)
(7.35168 0.0355664 0)
(7.35119 0.0383085 0)
(7.35072 0.0414623 0)
(7.35032 0.0450772 0)
(7.35012 0.049193 0)
(7.35024 0.0538279 0)
(7.35083 0.0589633 0)
(7.35209 0.0645238 0)
(7.35416 0.0703626 0)
(7.3572 0.0762494 0)
(7.36121 0.0818989 0)
(7.33309 0.0018413 0)
(7.33391 0.00529349 0)
(7.33539 0.00814479 0)
(7.33713 0.0104019 0)
(7.33886 0.0122402 0)
(7.34054 0.0137664 0)
(7.34216 0.0150452 0)
(7.34366 0.0161473 0)
(7.34504 0.0171349 0)
(7.3463 0.0180521 0)
(7.34744 0.0189329 0)
(7.34846 0.0198064 0)
(7.34936 0.0206981 0)
(7.35014 0.0216307 0)
(7.35079 0.0226256 0)
(7.35134 0.0237044 0)
(7.35176 0.0248895 0)
(7.35207 0.0262046 0)
(7.35228 0.0276758 0)
(7.35239 0.0293318 0)
(7.35241 0.0312044 0)
(7.35237 0.0333283 0)
(7.3523 0.0357405 0)
(7.35223 0.0384793 0)
(7.35222 0.0415809 0)
(7.35234 0.0450756 0)
(7.35268 0.0489809 0)
(7.35337 0.053292 0)
(7.35451 0.0579716 0)
(7.35623 0.0629381 0)
(7.35865 0.0680589 0)
(7.36185 0.0731503 0)
(7.36581 0.0779999 0)
(7.33307 0.00164771 0)
(7.33374 0.00477668 0)
(7.33499 0.00744838 0)
(7.33652 0.00962957 0)
(7.3381 0.0114381 0)
(7.33966 0.0129648 0)
(7.34117 0.0142677 0)
(7.3426 0.0154062 0)
(7.34394 0.016436 0)
(7.34518 0.0173993 0)
(7.34631 0.0183289 0)
(7.34733 0.0192535 0)
(7.34825 0.0201982 0)
(7.34907 0.0211854 0)
(7.34979 0.0222366 0)
(7.35041 0.0233727 0)
(7.35094 0.0246153 0)
(7.35138 0.0259869 0)
(7.35174 0.0275113 0)
(7.35203 0.0292142 0)
(7.35227 0.0311229 0)
(7.35248 0.0332658 0)
(7.35269 0.035672 0)
(7.35295 0.0383687 0)
(7.3533 0.0413793 0)
(7.35382 0.0447187 0)
(7.35458 0.0483883 0)
(7.35566 0.052369 0)
(7.35718 0.0566143 0)
(7.3592 0.0610449 0)
(7.36181 0.0655458 0)
(7.36506 0.0699719 0)
(7.3689 0.0741653 0)
(7.33306 0.00148485 0)
(7.33362 0.00433017 0)
(7.33469 0.00682386 0)
(7.33604 0.00891591 0)
(7.33747 0.010682 0)
(7.33892 0.0121963 0)
(7.34034 0.01351 0)
(7.34171 0.0146737 0)
(7.34301 0.0157362 0)
(7.34422 0.0167369 0)
(7.34534 0.0177075 0)
(7.34638 0.0186754 0)
(7.34733 0.0196648 0)
(7.34819 0.020698 0)
(7.34896 0.0217955 0)
(7.34966 0.0229776 0)
(7.35028 0.0242645 0)
(7.35083 0.0256771 0)
(7.35132 0.0272367 0)
(7.35177 0.0289656 0)
(7.3522 0.0308865 0)
(7.35262 0.0330219 0)
(7.35308 0.0353931 0)
(7.35361 0.0380183 0)
(7.35426 0.0409101 0)
(7.35509 0.0440721 0)
(7.35616 0.0474946 0)
(7.35754 0.0511503 0)
(7.35931 0.0549903 0)
(7.36152 0.0589413 0)
(7.36423 0.0629069 0)
(7.36744 0.0667725 0)
(7.37113 0.0704204 0)
(7.33305 0.00134502 0)
(7.33353 0.00393932 0)
(7.33445 0.0062602 0)
(7.33565 0.00825395 0)
(7.33696 0.0099668 0)
(7.3383 0.0114573 0)
(7.33965 0.0127699 0)
(7.34096 0.0139477 0)
(7.34222 0.0150332 0)
(7.34342 0.0160627 0)
(7.34454 0.017066 0)
(7.34559 0.0180691 0)
(7.34656 0.0190952 0)
(7.34747 0.0201655 0)
(7.3483 0.0212998 0)
(7.34907 0.022517 0)
(7.34978 0.023836 0)
(7.35044 0.0252754 0)
(7.35106 0.026854 0)
(7.35166 0.0285906 0)
(7.35226 0.0305033 0)
(7.35288 0.0326091 0)
(7.35355 0.0349227 0)
(7.35431 0.0374546 0)
(7.35521 0.040209 0)
(7.35628 0.0431814 0)
(7.3576 0.0463552 0)
(7.3592 0.0496994 0)
(7.36114 0.0531662 0)
(7.36347 0.0566908 0)
(7.3662 0.0601932 0)
(7.36936 0.0635835 0)
(7.37289 0.0667734 0)
(7.33304 0.00122265 0)
(7.33345 0.00359248 0)
(7.33426 0.00574741 0)
(7.33534 0.00763679 0)
(7.33654 0.00928724 0)
(7.33779 0.0107437 0)
(7.33907 0.0120442 0)
(7.34033 0.0132255 0)
(7.34156 0.0143245 0)
(7.34274 0.0153739 0)
(7.34387 0.0164014 0)
(7.34493 0.0174313 0)
(7.34594 0.0184856 0)
(7.34689 0.0195841 0)
(7.34778 0.0207455 0)
(7.34862 0.0219872 0)
(7.34942 0.0233262 0)
(7.35019 0.0247792 0)
(7.35094 0.0263619 0)
(7.35168 0.0280899 0)
(7.35244 0.0299769 0)
(7.35323 0.0320352 0)
(7.35409 0.0342735 0)
(7.35506 0.0366964 0)
(7.35616 0.0393018 0)
(7.35744 0.0420797 0)
(7.35895 0.0450099 0)
(7.36071 0.0480604 0)
(7.36278 0.051187 0)
(7.36517 0.0543335 0)
(7.3679 0.0574344 0)
(7.37098 0.0604191 0)
(7.37435 0.063221 0)
(7.33304 0.00111365 0)
(7.3334 0.00328035 0)
(7.33411 0.00527651 0)
(7.33508 0.00705768 0)
(7.33619 0.00863804 0)
(7.33737 0.0100514 0)
(7.33859 0.0113298 0)
(7.33981 0.0125046 0)
(7.34101 0.0136075 0)
(7.34218 0.0146677 0)
(7.34331 0.0157106 0)
(7.3444 0.0167588 0)
(7.34544 0.0178324 0)
(7.34644 0.01895 0)
(7.34739 0.0201286 0)
(7.34831 0.0213841 0)
(7.3492 0.0227317 0)
(7.35007 0.0241855 0)
(7.35094 0.0257588 0)
(7.35181 0.0274636 0)
(7.35272 0.0293101 0)
(7.35367 0.031306 0)
(7.35471 0.0334556 0)
(7.35585 0.0357586 0)
(7.35713 0.0382088 0)
(7.35858 0.0407928 0)
(7.36023 0.0434886 0)
(7.36212 0.0462655 0)
(7.36427 0.0490836 0)
(7.3667 0.0518952 0)
(7.36941 0.0546469 0)
(7.37239 0.0572833 0)
(7.37562 0.0597542 0)
(7.33304 0.00101488 0)
(7.33335 0.00299535 0)
(7.334 0.0048395 0)
(7.33488 0.0065101 0)
(7.33591 0.00801386 0)
(7.33703 0.00937601 0)
(7.33819 0.010623 0)
(7.33938 0.0117816 0)
(7.34056 0.0128791 0)
(7.34173 0.0139411 0)
(7.34287 0.0149906 0)
(7.34398 0.0160481 0)
(7.34505 0.0171321 0)
(7.3461 0.0182595 0)
(7.34712 0.0194455 0)
(7.34811 0.0207045 0)
(7.34909 0.0220494 0)
(7.35006 0.0234922 0)
(7.35104 0.0250436 0)
(7.35204 0.0267125 0)
(7.35308 0.0285057 0)
(7.35419 0.0304275 0)
(7.35537 0.0324785 0)
(7.35666 0.034655 0)
(7.35809 0.0369478 0)
(7.35968 0.0393417 0)
(7.36145 0.0418149 0)
(7.36343 0.0443388 0)
(7.36564 0.0468781 0)
(7.36808 0.0493928 0)
(7.37075 0.0518398 0)
(7.37365 0.0541754 0)
(7.37674 0.0563615 0)
(7.33303 0.000923913 0)
(7.33332 0.00273132 0)
(7.3339 0.00442927 0)
(7.33472 0.00598773 0)
(7.33569 0.00740932 0)
(7.33675 0.00871279 0)
(7.33787 0.00991989 0)
(7.33903 0.0110532 0)
(7.3402 0.0121361 0)
(7.34136 0.0131909 0)
(7.34252 0.0142382 0)
(7.34365 0.0152962 0)
(7.34477 0.0163815 0)
(7.34586 0.0175092 0)
(7.34694 0.0186931 0)
(7.34801 0.0199453 0)
(7.34908 0.021277 0)
(7.35015 0.0226979 0)
(7.35123 0.0242161 0)
(7.35235 0.025838 0)
(7.35352 0.0275677 0)
(7.35475 0.0294063 0)
(7.35607 0.0313517 0)
(7.35749 0.0333979 0)
(7.35904 0.0355341 0)
(7.36074 0.0377445 0)
(7.3626 0.0400081 0)
(7.36465 0.042299 0)
(7.36689 0.0445868 0)
(7.36933 0.046838 0)
(7.37196 0.0490179 0)
(7.37477 0.0510921 0)
(7.37775 0.0530314 0)
(7.33303 0.00083878 0)
(7.33329 0.00248308 0)
(7.33383 0.00403944 0)
(7.3346 0.0054845 0)
(7.33551 0.006819 0)
(7.33653 0.00805695 0)
(7.33762 0.00921612 0)
(7.33875 0.0103155 0)
(7.33991 0.011375 0)
(7.34108 0.0124139 0)
(7.34225 0.01345 0)
(7.34342 0.0144996 0)
(7.34457 0.0155773 0)
(7.34572 0.0166963 0)
(7.34686 0.0178685 0)
(7.348 0.0191044 0)
(7.34915 0.020413 0)
(7.35031 0.0218019 0)
(7.3515 0.0232772 0)
(7.35272 0.0248427 0)
(7.354 0.0265003 0)
(7.35535 0.0282489 0)
(7.35678 0.0300844 0)
(7.35832 0.0319992 0)
(7.35997 0.0339818 0)
(7.36176 0.0360165 0)
(7.36369 0.038084 0)
(7.36579 0.0401612 0)
(7.36805 0.042222 0)
(7.37047 0.0442389 0)
(7.37305 0.0461836 0)
(7.37579 0.0480293 0)
(7.37865 0.0497534 0)
(7.33303 0.000757843 0)
(7.33327 0.00224621 0)
(7.33378 0.00366425 0)
(7.3345 0.00499461 0)
(7.33538 0.00623745 0)
(7.33636 0.0074035 0)
(7.33742 0.0085072 0)
(7.33855 0.00956447 0)
(7.3397 0.010592 0)
(7.34088 0.0116063 0)
(7.34207 0.0126227 0)
(7.34326 0.0136552 0)
(7.34446 0.0147165 0)
(7.34566 0.015818 0)
(7.34686 0.0169696 0)
(7.34807 0.01818 0)
(7.3493 0.0194563 0)
(7.35054 0.0208044 0)
(7.35182 0.0222281 0)
(7.35315 0.0237295 0)
(7.35453 0.0253084 0)
(7.35598 0.0269623 0)
(7.35751 0.0286855 0)
(7.35914 0.0304697 0)
(7.36087 0.0323032 0)
(7.36273 0.0341711 0)
(7.36472 0.0360559 0)
(7.36685 0.0379373 0)
(7.36911 0.0397932 0)
(7.37152 0.041601 0)
(7.37405 0.0433379 0)
(7.37671 0.0449826 0)
(7.37946 0.046518 0)
(7.33303 0.000679698 0)
(7.33326 0.00201685 0)
(7.33374 0.00329844 0)
(7.33443 0.0045124 0)
(7.33528 0.00565919 0)
(7.33624 0.00674725 0)
(7.33728 0.00778832 0)
(7.3384 0.00879563 0)
(7.33956 0.00978307 0)
(7.34075 0.0107644 0)
(7.34196 0.0117527 0)
(7.34319 0.0127598 0)
(7.34442 0.0137963 0)
(7.34567 0.0148717 0)
(7.34693 0.0159942 0)
(7.34821 0.0171706 0)
(7.34951 0.0184065 0)
(7.35084 0.0197058 0)
(7.3522 0.0210707 0)
(7.35362 0.0225017 0)
(7.35509 0.0239971 0)
(7.35662 0.0255532 0)
(7.35824 0.0271635 0)
(7.35995 0.0288193 0)
(7.36175 0.0305092 0)
(7.36367 0.0322196 0)
(7.36569 0.0339346 0)
(7.36784 0.0356368 0)
(7.3701 0.0373076 0)
(7.37248 0.0389283 0)
(7.37496 0.0404807 0)
(7.37755 0.0419478 0)
(7.38021 0.0433165 0)
(7.33303 0.000603096 0)
(7.33325 0.0017915 0)
(7.33371 0.00293704 0)
(7.33438 0.00403236 0)
(7.33521 0.00507864 0)
(7.33615 0.00608281 0)
(7.33719 0.00705441 0)
(7.3383 0.00800428 0)
(7.33947 0.00894382 0)
(7.34068 0.00988432 0)
(7.34192 0.0108365 0)
(7.34318 0.01181 0)
(7.34446 0.0128136 0)
(7.34576 0.013855 0)
(7.34708 0.0149406 0)
(7.34842 0.0160754 0)
(7.34979 0.0172635 0)
(7.35119 0.0185072 0)
(7.35263 0.0198073 0)
(7.35412 0.0211629 0)
(7.35567 0.0225714 0)
(7.35729 0.024028 0)
(7.35897 0.025526 0)
(7.36075 0.0270567 0)
(7.36261 0.0286094 0)
(7.36456 0.0301715 0)
(7.36662 0.0317291 0)
(7.36877 0.0332673 0)
(7.37102 0.0347705 0)
(7.37337 0.0362233 0)
(7.37581 0.0376112 0)
(7.37832 0.0389206 0)
(7.3809 0.0401414 0)
(7.33302 0.000526882 0)
(7.33324 0.00156688 0)
(7.3337 0.00257532 0)
(7.33435 0.00354899 0)
(7.33517 0.0044901 0)
(7.3361 0.00540454 0)
(7.33714 0.00630006 0)
(7.33826 0.00718538 0)
(7.33944 0.0080696 0)
(7.34067 0.00896169 0)
(7.34194 0.00987011 0)
(7.34324 0.0108026 0)
(7.34456 0.0117658 0)
(7.34591 0.0127658 0)
(7.34728 0.0138072 0)
(7.34869 0.0148936 0)
(7.35012 0.0160274 0)
(7.35159 0.0172097 0)
(7.3531 0.0184401 0)
(7.35467 0.0197167 0)
(7.35628 0.021036 0)
(7.35796 0.0223928 0)
(7.35971 0.0237802 0)
(7.36154 0.0251898 0)
(7.36344 0.0266117 0)
(7.36543 0.0280347 0)
(7.3675 0.0294466 0)
(7.36965 0.0308346 0)
(7.37189 0.0321857 0)
(7.37421 0.0334875 0)
(7.37659 0.0347281 0)
(7.37904 0.0358967 0)
(7.38154 0.0369857 0)
(7.33302 0.000449942 0)
(7.33324 0.00133984 0)
(7.33369 0.00220855 0)
(7.33434 0.00305668 0)
(7.33515 0.0038876 0)
(7.33609 0.00470648 0)
(7.33714 0.00551952 0)
(7.33827 0.00633351 0)
(7.33947 0.00715542 0)
(7.34073 0.00799201 0)
(7.34202 0.00884963 0)
(7.34336 0.00973397 0)
(7.34473 0.01065 0)
(7.34612 0.0116018 0)
(7.34755 0.0125926 0)
(7.34901 0.0136245 0)
(7.35051 0.0146986 0)
(7.35204 0.0158148 0)
(7.35362 0.0169717 0)
(7.35524 0.0181666 0)
(7.35692 0.0193955 0)
(7.35866 0.020653 0)
(7.36046 0.0219323 0)
(7.36232 0.0232254 0)
(7.36426 0.0245232 0)
(7.36627 0.0258159 0)
(7.36835 0.0270928 0)
(7.3705 0.0283431 0)
(7.37272 0.0295561 0)
(7.375 0.0307214 0)
(7.37734 0.0318296 0)
(7.37973 0.0328722 0)
(7.38216 0.0338431 0)
(7.33302 0.000371151 0)
(7.33324 0.00110714 0)
(7.33369 0.00183187 0)
(7.33435 0.00254957 0)
(7.33517 0.00326482 0)
(7.33612 0.00398221 0)
(7.33718 0.00470656 0)
(7.33833 0.00544281 0)
(7.33955 0.00619588 0)
(7.34084 0.00697045 0)
(7.34217 0.00777077 0)
(7.34355 0.00860061 0)
(7.34496 0.00946313 0)
(7.3464 0.0103608 0)
(7.34788 0.0112954 0)
(7.3494 0.0122676 0)
(7.35095 0.0132774 0)
(7.35254 0.0143237 0)
(7.35417 0.0154043 0)
(7.35585 0.0165159 0)
(7.35758 0.0176542 0)
(7.35937 0.0188136 0)
(7.36121 0.0199877 0)
(7.36311 0.0211691 0)
(7.36507 0.0223495 0)
(7.36709 0.0235202 0)
(7.36918 0.024672 0)
(7.37132 0.025796 0)
(7.37352 0.026883 0)
(7.37577 0.0279248 0)
(7.37807 0.0289136 0)
(7.3804 0.0298427 0)
(7.38276 0.0307075 0)
(7.33302 0.000289309 0)
(7.33325 0.000865322 0)
(7.3337 0.00144005 0)
(7.33437 0.00202131 0)
(7.3352 0.00261485 0)
(7.33617 0.00322475 0)
(7.33726 0.00385437 0)
(7.33844 0.00450686 0)
(7.33969 0.00518513 0)
(7.34101 0.00589175 0)
(7.34238 0.00662896 0)
(7.3438 0.00739862 0)
(7.34526 0.00820217 0)
(7.34675 0.00904053 0)
(7.34828 0.009914 0)
(7.34985 0.0108222 0)
(7.35145 0.011764 0)
(7.35309 0.0127375 0)
(7.35478 0.0137399 0)
(7.3565 0.0147674 0)
(7.35828 0.0158155 0)
(7.3601 0.0168788 0)
(7.36198 0.0179511 0)
(7.36391 0.0190256 0)
(7.36589 0.0200951 0)
(7.36792 0.0211517 0)
(7.37 0.0221877 0)
(7.37213 0.0231955 0)
(7.37431 0.0241676 0)
(7.37653 0.0250971 0)
(7.37878 0.0259779 0)
(7.38106 0.0268045 0)
(7.38336 0.0275734 0)
(7.33303 0.000203063 0)
(7.33325 0.000610517 0)
(7.33373 0.00102722 0)
(7.33441 0.00146474 0)
(7.33527 0.00192998 0)
(7.33627 0.00242627 0)
(7.33739 0.00295538 0)
(7.3386 0.00351858 0)
(7.33989 0.0041167 0)
(7.34125 0.00475019 0)
(7.34266 0.00541924 0)
(7.34412 0.00612386 0)
(7.34562 0.0068638 0)
(7.34716 0.0076385 0)
(7.34874 0.00844697 0)
(7.35036 0.00928774 0)
(7.35201 0.0101588 0)
(7.3537 0.0110574 0)
(7.35543 0.0119804 0)
(7.3572 0.0129237 0)
(7.35901 0.0138827 0)
(7.36087 0.0148521 0)
(7.36278 0.0158263 0)
(7.36472 0.0167989 0)
(7.36672 0.0177635 0)
(7.36876 0.0187134 0)
(7.37084 0.019642 0)
(7.37295 0.0205427 0)
(7.37511 0.0214094 0)
(7.37729 0.0222365 0)
(7.3795 0.023019 0)
(7.38173 0.0237527 0)
(7.38398 0.0244347 0)
(7.33303 0.000110804 0)
(7.33327 0.000338108 0)
(7.33376 0.000586439 0)
(7.33448 0.00087153 0)
(7.33537 0.0012013 0)
(7.33641 0.00157785 0)
(7.33757 0.00200103 0)
(7.33882 0.00247002 0)
(7.34016 0.00298342 0)
(7.34156 0.00353946 0)
(7.34302 0.00413622 0)
(7.34452 0.00477182 0)
(7.34607 0.00544438 0)
(7.34766 0.00615193 0)
(7.34928 0.00689227 0)
(7.35094 0.00766296 0)
(7.35264 0.00846119 0)
(7.35438 0.00928371 0)
(7.35615 0.0101269 0)
(7.35796 0.0109865 0)
(7.3598 0.0118579 0)
(7.36169 0.0127363 0)
(7.36361 0.0136161 0)
(7.36558 0.0144918 0)
(7.36758 0.0153577 0)
(7.36962 0.0162078 0)
(7.37169 0.0170366 0)
(7.3738 0.0178387 0)
(7.37593 0.0186088 0)
(7.37808 0.0193425 0)
(7.38025 0.0200356 0)
(7.38244 0.0206848 0)
(7.38463 0.021288 0)
(7.33303 1.05003e-05 0)
(7.33328 4.23042e-05 0)
(7.33381 0.000109125 0)
(7.33457 0.000231593 0)
(7.33551 0.000418219 0)
(7.3366 0.00066907 0)
(7.33781 0.000981452 0)
(7.33911 0.0013521 0)
(7.3405 0.00177719 0)
(7.34195 0.00225253 0)
(7.34346 0.00277398 0)
(7.34501 0.00333776 0)
(7.34661 0.00394036 0)
(7.34824 0.00457841 0)
(7.34991 0.00524861 0)
(7.35162 0.00594757 0)
(7.35336 0.00667182 0)
(7.35513 0.00741763 0)
(7.35694 0.00818106 0)
(7.35878 0.00895787 0)
(7.36066 0.00974355 0)
(7.36257 0.0105334 0)
(7.36451 0.0113224 0)
(7.36649 0.0121056 0)
(7.3685 0.0128779 0)
(7.37054 0.0136342 0)
(7.3726 0.0143699 0)
(7.37469 0.0150802 0)
(7.3768 0.0157611 0)
(7.37892 0.0164086 0)
(7.38106 0.0170197 0)
(7.3832 0.0175915 0)
(7.38535 0.0181225 0)
(7.33303 -0.000100564 0)
(7.33331 -0.000284559 0)
(7.33388 -0.000415829 0)
(7.33469 -0.000467763 0)
(7.3357 -0.000432169 0)
(7.33685 -0.000312474 0)
(7.33812 -0.000114818 0)
(7.33949 0.00015456 0)
(7.34093 0.00048891 0)
(7.34244 0.000881249 0)
(7.344 0.00132513 0)
(7.34561 0.0018149 0)
(7.34725 0.00234551 0)
(7.34893 0.00291234 0)
(7.35065 0.00351103 0)
(7.3524 0.00413744 0)
(7.35418 0.0047875 0)
(7.35599 0.0054571 0)
(7.35783 0.00614208 0)
(7.3597 0.00683816 0)
(7.3616 0.00754098 0)
(7.36353 0.00824605 0)
(7.36549 0.00894887 0)
(7.36748 0.00964489 0)
(7.36949 0.0103297 0)
(7.37153 0.0109989 0)
(7.37358 0.0116484 0)
(7.37565 0.0122744 0)
(7.37774 0.0128735 0)
(7.37984 0.0134425 0)
(7.38194 0.0139788 0)
(7.38405 0.0144801 0)
(7.38616 0.0149453 0)
(7.33303 -0.000226229 0)
(7.33334 -0.000653211 0)
(7.33397 -0.00100341 0)
(7.33487 -0.00124285 0)
(7.33596 -0.00136598 0)
(7.33719 -0.00138221 0)
(7.33853 -0.00130195 0)
(7.33997 -0.00113471 0)
(7.34148 -0.000890774 0)
(7.34305 -0.000580593 0)
(7.34467 -0.000213431 0)
(7.34633 0.000202909 0)
(7.34803 0.000661709 0)
(7.34976 0.00115705 0)
(7.35152 0.00168363 0)
(7.35331 0.00223667 0)
(7.35513 0.00281166 0)
(7.35697 0.0034043 0)
(7.35884 0.00401037 0)
(7.36074 0.0046257 0)
(7.36267 0.00524616 0)
(7.36462 0.00586761 0)
(7.36659 0.00648598 0)
(7.36858 0.00709725 0)
(7.3706 0.00769756 0)
(7.37263 0.0082832 0)
(7.37467 0.00885068 0)
(7.37673 0.00939682 0)
(7.3788 0.00991873 0)
(7.38087 0.0104139 0)
(7.38295 0.0108802 0)
(7.38502 0.011316 0)
(7.38709 0.0117203 0)
(7.33304 -0.000372225 0)
(7.33339 -0.00107954 0)
(7.3341 -0.00167501 0)
(7.33511 -0.00211525 0)
(7.3363 -0.00240258 0)
(7.33763 -0.00255755 0)
(7.33907 -0.00259693 0)
(7.34059 -0.00253399 0)
(7.34218 -0.00238259 0)
(7.34383 -0.00215634 0)
(7.34551 -0.00186686 0)
(7.34723 -0.00152383 0)
(7.34897 -0.00113555 0)
(7.35075 -0.000709277 0)
(7.35256 -0.000251346 0)
(7.35439 0.000232655 0)
(7.35624 0.00073768 0)
(7.35812 0.00125907 0)
(7.36002 0.00179247 0)
(7.36194 0.0023337 0)
(7.36389 0.00287878 0)
(7.36586 0.00342387 0)
(7.36784 0.00396526 0)
(7.36984 0.00449941 0)
(7.37186 0.00502295 0)
(7.37389 0.00553272 0)
(7.37593 0.0060258 0)
(7.37797 0.00649955 0)
(7.38002 0.0069516 0)
(7.38208 0.0073799 0)
(7.38413 0.00778275 0)
(7.38617 0.00815866 0)
(7.38821 0.00850693 0)
(7.33305 -0.000547665 0)
(7.33347 -0.00158759 0)
(7.3343 -0.00246184 0)
(7.33545 -0.00311747 0)
(7.33678 -0.0035715 0)
(7.33823 -0.0038589 0)
(7.33978 -0.00400494 0)
(7.34141 -0.00403108 0)
(7.34309 -0.00395915 0)
(7.34481 -0.00380812 0)
(7.34656 -0.0035924 0)
(7.34834 -0.00332313 0)
(7.35015 -0.0030095 0)
(7.35198 -0.0026592 0)
(7.35384 -0.00227865 0)
(7.35571 -0.00187336 0)
(7.3576 -0.00144821 0)
(7.35952 -0.00100763 0)
(7.36145 -0.000555715 0)
(7.3634 -9.63242e-05 0)
(7.36537 0.000366891 0)
(7.36735 0.000830452 0)
(7.36935 0.00129105 0)
(7.37136 0.00174555 0)
(7.37338 0.00219103 0)
(7.37541 0.00262474 0)
(7.37744 0.0030442 0)
(7.37948 0.00344716 0)
(7.38151 0.00383166 0)
(7.38355 0.00419604 0)
(7.38557 0.00453892 0)
(7.38759 0.00485925 0)
(7.3896 0.00515664 0)
(7.33306 -0.000769469 0)
(7.33358 -0.00221739 0)
(7.3346 -0.0034005 0)
(7.33596 -0.00428064 0)
(7.33748 -0.00492036 0)
(7.33909 -0.00536793 0)
(7.34077 -0.00564351 0)
(7.34252 -0.00576994 0)
(7.3443 -0.0057766 0)
(7.34611 -0.00568933 0)
(7.34794 -0.00552741 0)
(7.34979 -0.005306 0)
(7.35166 -0.00503764 0)
(7.35354 -0.00473252 0)
(7.35545 -0.00439874 0)
(7.35737 -0.00404281 0)
(7.35931 -0.00367017 0)
(7.36126 -0.00328538 0)
(7.36323 -0.00289243 0)
(7.36522 -0.00249483 0)
(7.36721 -0.00209576 0)
(7.36921 -0.00169814 0)
(7.37123 -0.00130464 0)
(7.37325 -0.000917769 0)
(7.37527 -0.000539818 0)
(7.3773 -0.000172894 0)
(7.37933 0.000181092 0)
(7.38135 0.000520432 0)
(7.38337 0.000843618 0)
(7.38538 0.00114935 0)
(7.38738 0.00143649 0)
(7.38936 0.00170405 0)
(7.39133 0.00195145 0)
(7.33308 -0.00106622 0)
(7.33379 -0.00306705 0)
(7.3351 -0.00458302 0)
(7.33672 -0.00560577 0)
(7.33845 -0.00631895 0)
(7.34026 -0.00683269 0)
(7.34214 -0.00718194 0)
(7.34407 -0.00739443 0)
(7.34601 -0.00750065 0)
(7.34796 -0.00752307 0)
(7.34992 -0.00747616 0)
(7.35189 -0.00737115 0)
(7.35386 -0.0072178 0)
(7.35584 -0.00702438 0)
(7.35782 -0.00679782 0)
(7.3598 -0.00654407 0)
(7.36179 -0.00626839 0)
(7.36378 -0.00597548 0)
(7.36578 -0.00566951 0)
(7.36777 -0.0053543 0)
(7.36977 -0.00503327 0)
(7.37176 -0.00470956 0)
(7.37376 -0.00438603 0)
(7.37574 -0.00406529 0)
(7.37772 -0.00374967 0)
(7.37969 -0.0034413 0)
(7.38165 -0.00314204 0)
(7.3836 -0.00285353 0)
(7.38553 -0.00257717 0)
(7.38744 -0.00231411 0)
(7.38933 -0.00206524 0)
(7.3912 -0.00183116 0)
(7.39304 -0.00161207 0)
(7.3331 -0.00144771 0)
(7.33415 -0.00420721 0)
(7.33607 -0.00631218 0)
(7.33822 -0.00776374 0)
(7.34032 -0.00874731 0)
(7.34242 -0.00937212 0)
(7.34457 -0.00971607 0)
(7.34674 -0.00986168 0)
(7.3489 -0.00987573 0)
(7.35105 -0.00980056 0)
(7.35318 -0.00966312 0)
(7.35528 -0.00948249 0)
(7.35736 -0.00927209 0)
(7.3594 -0.00904076 0)
(7.36141 -0.00879435 0)
(7.36339 -0.00853691 0)
(7.36533 -0.00827143 0)
(7.36724 -0.00800024 0)
(7.36911 -0.00772525 0)
(7.37095 -0.00744817 0)
(7.37275 -0.00717059 0)
(7.37453 -0.00689403 0)
(7.37627 -0.00661993 0)
(7.37798 -0.00634973 0)
(7.37967 -0.00608475 0)
(7.38132 -0.0058263 0)
(7.38294 -0.00557554 0)
(7.38454 -0.00533359 0)
(7.3861 -0.00510145 0)
(7.38764 -0.00488003 0)
(7.38914 -0.0046702 0)
(7.39062 -0.00447284 0)
(7.39207 -0.00428868 0)
(7.33311 -0.00228398 0)
(7.33485 -0.00521372 0)
(7.33794 -0.00687996 0)
(7.34136 -0.00825221 0)
(7.34468 -0.00954268 0)
(7.34787 -0.0106115 0)
(7.35088 -0.0114167 0)
(7.35363 -0.0120058 0)
(7.35611 -0.0124191 0)
(7.35832 -0.0126782 0)
(7.3603 -0.0128034 0)
(7.36205 -0.0128177 0)
(7.3636 -0.0127428 0)
(7.36498 -0.0125968 0)
(7.3662 -0.0123946 0)
(7.36728 -0.0121492 0)
(7.36824 -0.0118713 0)
(7.36911 -0.0115695 0)
(7.36988 -0.0112512 0)
(7.37058 -0.0109222 0)
(7.37122 -0.0105874 0)
(7.37181 -0.0102507 0)
(7.37235 -0.00991552 0)
(7.37285 -0.00958436 0)
(7.37333 -0.00925944 0)
(7.37378 -0.0089425 0)
(7.37421 -0.00863496 0)
(7.37462 -0.00833793 0)
(7.37501 -0.00805225 0)
(7.37539 -0.00777853 0)
(7.37575 -0.00751715 0)
(7.3761 -0.00726831 0)
(7.37644 -0.00703192 0)
(7.3363 -0.00651731 0)
(7.34557 -0.0134869 0)
(7.35343 -0.0156869 0)
(7.35888 -0.0161909 0)
(7.36267 -0.016155 0)
(7.36523 -0.0157409 0)
(7.36659 -0.0150781 0)
(7.36685 -0.0143329 0)
(7.36623 -0.0135985 0)
(7.36494 -0.0129027 0)
(7.36314 -0.0122525 0)
(7.36095 -0.0116503 0)
(7.35848 -0.0110952 0)
(7.35582 -0.0105832 0)
(7.35305 -0.0101092 0)
(7.35022 -0.00966856 0)
(7.34737 -0.00925701 0)
(7.34453 -0.00887106 0)
(7.34174 -0.00850776 0)
(7.33901 -0.00816477 0)
(7.33635 -0.00784019 0)
(7.33379 -0.00753259 0)
(7.33131 -0.00724084 0)
(7.32893 -0.00696405 0)
(7.32665 -0.00670157 0)
(7.32447 -0.00645285 0)
(7.32239 -0.00621746 0)
(7.32041 -0.00599501 0)
(7.31852 -0.00578512 0)
(7.31672 -0.00558739 0)
(7.31502 -0.00540127 0)
(7.3134 -0.00522613 0)
(7.31187 -0.00506049 0)
(7.32508 -0.00546993 0)
(7.31334 -0.0121254 0)
(7.29927 -0.0150433 0)
(7.28289 -0.0161327 0)
(7.26682 -0.0163122 0)
(7.25211 -0.0158762 0)
(7.23867 -0.0150363 0)
(7.22632 -0.0139925 0)
(7.21506 -0.0128803 0)
(7.20484 -0.0117741 0)
(7.19556 -0.0107148 0)
(7.18713 -0.00972566 0)
(7.17945 -0.00881788 0)
(7.17244 -0.00799421 0)
(7.16603 -0.0072523 0)