/*--------------------------------*- C++ -*----------------------------------*\
| =========                 |                                                 |
| \\      /  F ield         | OpenFOAM: The Open Source CFD Toolbox           |
|  \\    /   O peration     | Version:  4.1                                   |
|   \\  /    A nd           | Web:      www.OpenFOAM.org                      |
|    \\/     M anipulation  |                                                 |
\*---------------------------------------------------------------------------*/
FoamFile
{
    version     2.0;
    format      ascii;
    class       volScalarField;
    location    "200";
    object      p;
}
// * * * * * * * * * * * * * * * * * * * * * * * * * * * * * * * * * * * * * //

dimensions      [0 2 -2 0 0 0 0];

internalField   nonuniform List<scalar> 
6820
(
-9.44953
-9.67627
-9.7529
-9.76448
-9.78326
-9.80462
-9.82031
-9.83214
-9.84211
-9.85034
-9.8567
-9.86131
-9.86426
-9.86555
-9.86512
-9.86288
-9.85872
-9.85245
-9.84385
-9.83263
-9.81841
-9.80071
-9.77887
-9.75202
-9.71892
-9.6778
-9.62579
-9.55874
-9.46689
-9.34103
-9.11835
-8.84993
-7.77763
-9.52153
-9.66245
-9.72577
-9.74567
-9.76888
-9.79211
-9.8092
-9.82203
-9.83264
-9.84133
-9.84806
-9.85298
-9.85619
-9.85769
-9.85745
-9.85536
-9.85132
-9.84515
-9.83664
-9.82549
-9.81135
-9.79373
-9.77202
-9.74541
-9.71275
-9.67252
-9.62239
-9.55946
-9.47763
-9.37502
-9.22989
-9.09163
-8.98565
-9.57898
-9.66691
-9.72674
-9.75128
-9.7731
-9.79462
-9.81123
-9.82391
-9.83439
-9.84299
-9.84971
-9.85464
-9.85789
-9.85946
-9.8593
-9.85734
-9.85346
-9.8475
-9.83926
-9.82845
-9.81475
-9.79772
-9.7768
-9.75128
-9.72022
-9.68239
-9.63611
-9.57962
-9.50992
-9.42872
-9.33219
-9.26634
-9.23745
-9.61779
-9.67607
-9.72999
-9.75594
-9.77623
-9.79636
-9.81264
-9.82522
-9.83556
-9.84409
-9.85078
-9.85573
-9.85903
-9.86069
-9.86065
-9.85886
-9.85519
-9.84951
-9.84161
-9.83127
-9.81817
-9.80194
-9.78211
-9.7581
-9.7292
-9.69456
-9.65321
-9.60446
-9.54765
-9.48622
-9.42323
-9.38769
-9.3847
-9.64902
-9.68873
-9.73434
-9.76015
-9.77947
-9.79836
-9.81419
-9.82662
-9.83683
-9.84528
-9.85197
-9.85698
-9.86037
-9.86216
-9.86232
-9.86076
-9.85741
-9.85211
-9.84472
-9.83501
-9.82273
-9.80758
-9.78919
-9.76715
-9.74097
-9.71023
-9.67456
-9.63413
-9.58982
-9.54564
-9.50696
-9.4924
-9.51097
-9.67524
-9.70264
-9.74012
-9.76496
-9.78343
-9.80104
-9.81625
-9.82846
-9.83852
-9.84688
-9.85357
-9.85864
-9.86215
-9.86412
-9.86451
-9.86327
-9.86031
-9.85551
-9.84874
-9.83983
-9.82857
-9.81474
-9.79809
-9.77836
-9.75533
-9.72889
-9.69919
-9.667
-9.63397
-9.60408
-9.58286
-9.58222
-9.6097
-9.69753
-9.71673
-9.74718
-9.77037
-9.78791
-9.80428
-9.81879
-9.8307
-9.84059
-9.84886
-9.85555
-9.8607
-9.86436
-9.86655
-9.86723
-9.86636
-9.86387
-9.85966
-9.85364
-9.84567
-9.8356
-9.8233
-9.80862
-9.79147
-9.77183
-9.74987
-9.72609
-9.70159
-9.67834
-9.65987
-9.65093
-9.65902
-9.68931
-9.7168
-9.73056
-9.75516
-9.77628
-9.79281
-9.80803
-9.82177
-9.83335
-9.84305
-9.85121
-9.85791
-9.86316
-9.867
-9.86943
-9.87045
-9.87002
-9.86808
-9.86456
-9.85939
-9.85249
-9.84377
-9.83316
-9.82062
-9.8062
-9.79005
-9.77254
-9.75439
-9.73682
-9.72179
-9.71225
-9.71194
-9.72554
-9.75634
-9.73376
-9.74387
-9.76374
-9.78263
-9.79808
-9.81223
-9.82521
-9.83639
-9.84589
-9.85395
-9.86066
-9.86602
-9.87006
-9.87279
-9.8742
-9.87426
-9.87294
-9.87019
-9.86598
-9.86025
-9.85298
-9.84418
-9.8339
-9.82228
-9.8096
-9.79637
-9.78338
-9.77189
-9.76363
-9.761
-9.76675
-9.78382
-9.81417
-9.74892
-9.75655
-9.77265
-9.78936
-9.80368
-9.81684
-9.82906
-9.83983
-9.84911
-9.85708
-9.86381
-9.8693
-9.87357
-9.87662
-9.87846
-9.87907
-9.87844
-9.87653
-9.87335
-9.86888
-9.86315
-9.85623
-9.84824
-9.83941
-9.83009
-9.82086
-9.81252
-9.80624
-9.8035
-9.80616
-9.81619
-9.8354
-9.86491
-9.76267
-9.76857
-9.78171
-9.79637
-9.80956
-9.8218
-9.83329
-9.84364
-9.8527
-9.86059
-9.86735
-9.87299
-9.87752
-9.88093
-9.88325
-9.88445
-9.88455
-9.88355
-9.88146
-9.87831
-9.87418
-9.86916
-9.86346
-9.85733
-9.8512
-9.84563
-9.8414
-9.83952
-9.84123
-9.84792
-9.86097
-9.88148
-9.91003
-9.77526
-9.77995
-9.79077
-9.80359
-9.81568
-9.82707
-9.83789
-9.84781
-9.85666
-9.86448
-9.87129
-9.8771
-9.8819
-9.88571
-9.88853
-9.89038
-9.89126
-9.89121
-9.89025
-9.88847
-9.88594
-9.88283
-9.87936
-9.87582
-9.87264
-9.87037
-9.86971
-9.87153
-9.8768
-9.88655
-9.90173
-9.923
-9.9506
-9.78691
-9.79071
-9.79973
-9.81095
-9.822
-9.8326
-9.8428
-9.85232
-9.86097
-9.86872
-9.87561
-9.8816
-9.88671
-9.89094
-9.89431
-9.89683
-9.89854
-9.89946
-9.89967
-9.89926
-9.89834
-9.8971
-9.89576
-9.89465
-9.89417
-9.89483
-9.89725
-9.90214
-9.91025
-9.92233
-9.93902
-9.96068
-9.9874
-9.79776
-9.80091
-9.80852
-9.81838
-9.82847
-9.83835
-9.84798
-9.85714
-9.8656
-9.87332
-9.88029
-9.8865
-9.89194
-9.89662
-9.90055
-9.90378
-9.90633
-9.90826
-9.90965
-9.9106
-9.91126
-9.91181
-9.9125
-9.91364
-9.9156
-9.91884
-9.92389
-9.93131
-9.94168
-9.95554
-9.97328
-9.99512
-10.021
-9.80793
-9.8106
-9.8171
-9.82581
-9.83504
-9.84427
-9.85341
-9.86223
-9.87054
-9.87824
-9.88532
-9.89176
-9.89755
-9.9027
-9.90724
-9.91118
-9.91459
-9.91753
-9.92009
-9.92239
-9.92458
-9.92684
-9.92943
-9.93262
-9.93677
-9.94226
-9.94954
-9.95904
-9.97121
-9.9864
-10.0049
-10.0268
-10.0519
-9.8175
-9.81979
-9.82544
-9.8332
-9.84167
-9.85033
-9.85904
-9.86758
-9.87575
-9.88346
-9.89068
-9.89737
-9.90354
-9.90918
-9.91432
-9.919
-9.92328
-9.92723
-9.93094
-9.93455
-9.93819
-9.94207
-9.9464
-9.95146
-9.95755
-9.96499
-9.97415
-9.98536
-9.99895
-10.0152
-10.0342
-10.056
-10.0805
-9.82654
-9.82854
-9.83351
-9.84049
-9.84832
-9.85649
-9.86482
-9.87313
-9.88121
-9.88896
-9.89633
-9.9033
-9.90986
-9.916
-9.92177
-9.92719
-9.93233
-9.93727
-9.94211
-9.94697
-9.952
-9.95737
-9.96331
-9.97005
-9.97784
-9.98696
-9.99769
-10.0103
-10.025
-10.042
-10.0613
-10.083
-10.1069
-9.83508
-9.83686
-9.84131
-9.84766
-9.85494
-9.8627
-9.87073
-9.87884
-9.88687
-9.89469
-9.90225
-9.90951
-9.91647
-9.92314
-9.92953
-9.93569
-9.94169
-9.9476
-9.95352
-9.95957
-9.96589
-9.97266
-9.98005
-9.98828
-9.99756
-10.0081
-10.0202
-10.0339
-10.0495
-10.0671
-10.0866
-10.1082
-10.1315
-9.84315
-9.84477
-9.84881
-9.85466
-9.8615
-9.86891
-9.87671
-9.88469
-9.8927
-9.90062
-9.90839
-9.91597
-9.92335
-9.93054
-9.93756
-9.94445
-9.95128
-9.95813
-9.96508
-9.97226
-9.97979
-9.98782
-9.99653
-10.0061
-10.0167
-10.0284
-10.0416
-10.0563
-10.0726
-10.0906
-10.1102
-10.1316
-10.1545
-9.85078
-9.85227
-9.856
-9.86147
-9.86796
-9.8751
-9.88272
-9.89062
-9.89865
-9.9067
-9.9147
-9.92262
-9.93043
-9.93815
-9.9458
-9.95341
-9.96105
-9.96879
-9.97673
-9.98495
-9.9936
-10.0028
-10.0127
-10.0234
-10.0351
-10.0479
-10.062
-10.0774
-10.0942
-10.1125
-10.1323
-10.1534
-10.1758
-9.85796
-9.85936
-9.86286
-9.86803
-9.87426
-9.88121
-9.88871
-9.89659
-9.90469
-9.9129
-9.92116
-9.92942
-9.93768
-9.94593
-9.95419
-9.9625
-9.97092
-9.97952
-9.98837
-9.99758
-10.0072
-10.0175
-10.0284
-10.0401
-10.0528
-10.0665
-10.0813
-10.0973
-10.1146
-10.1331
-10.1529
-10.1738
-10.1958
-9.86469
-9.86602
-9.86936
-9.87433
-9.88037
-9.8872
-9.89465
-9.90255
-9.91075
-9.91916
-9.9277
-9.93633
-9.94503
-9.95381
-9.96268
-9.97167
-9.98084
-9.99024
-9.99995
-10.0101
-10.0206
-10.0318
-10.0437
-10.0563
-10.0698
-10.0842
-10.0997
-10.1162
-10.1338
-10.1524
-10.1721
-10.1928
-10.2145
-9.87096
-9.87225
-9.87547
-9.88031
-9.88625
-9.89302
-9.90047
-9.90844
-9.9168
-9.92543
-9.93427
-9.94328
-9.95244
-9.96174
-9.9712
-9.98084
-9.99072
-10.0009
-10.0114
-10.0223
-10.0338
-10.0458
-10.0584
-10.0718
-10.086
-10.1011
-10.117
-10.1339
-10.1517
-10.1705
-10.1901
-10.2106
-10.2319
-9.87673
-9.878
-9.88116
-9.88594
-9.89184
-9.89861
-9.90612
-9.91422
-9.92276
-9.93165
-9.94082
-9.95023
-9.95984
-9.96966
-9.97969
-9.98996
-10.0005
-10.0114
-10.0226
-10.0343
-10.0465
-10.0592
-10.0726
-10.0867
-10.1015
-10.117
-10.1334
-10.1506
-10.1686
-10.1874
-10.2069
-10.2272
-10.2481
-9.88196
-9.88323
-9.88638
-9.89115
-9.89708
-9.90393
-9.91156
-9.91982
-9.9286
-9.93778
-9.94729
-9.9571
-9.96717
-9.9775
-9.98809
-9.99896
-10.0101
-10.0217
-10.0336
-10.046
-10.0588
-10.0722
-10.0862
-10.1009
-10.1162
-10.1322
-10.1489
-10.1663
-10.1844
-10.2032
-10.2226
-10.2427
-10.2632
-9.88661
-9.88789
-9.89108
-9.89591
-9.90193
-9.9089
-9.91671
-9.9252
-9.93424
-9.94374
-9.95362
-9.96384
-9.97438
-9.9852
-9.99633
-10.0078
-10.0196
-10.0317
-10.0442
-10.0572
-10.0707
-10.0847
-10.0992
-10.1143
-10.1301
-10.1464
-10.1634
-10.181
-10.1992
-10.2179
-10.2372
-10.257
-10.2773
-9.8906
-9.89191
-9.89518
-9.90013
-9.90631
-9.91348
-9.92151
-9.93027
-9.93963
-9.94948
-9.95975
-9.9704
-9.98139
-9.99271
-10.0044
-10.0163
-10.0287
-10.0414
-10.0545
-10.0681
-10.0821
-10.0966
-10.1116
-10.1271
-10.1432
-10.1598
-10.177
-10.1947
-10.2129
-10.2316
-10.2508
-10.2704
-10.2903
-9.89385
-9.89521
-9.8986
-9.90374
-9.91015
-9.91758
-9.92591
-9.935
-9.94471
-9.95494
-9.96562
-9.9767
-9.98816
-9.99996
-10.0121
-10.0246
-10.0375
-10.0507
-10.0643
-10.0784
-10.0929
-10.1078
-10.1232
-10.1391
-10.1555
-10.1723
-10.1897
-10.2075
-10.2257
-10.2443
-10.2634
-10.2827
-10.3024
-9.89626
-9.8977
-9.90126
-9.90666
-9.91337
-9.92114
-9.92983
-9.9393
-9.94941
-9.96005
-9.97117
-9.9827
-9.99462
-10.0069
-10.0195
-10.0325
-10.0459
-10.0596
-10.0737
-10.0882
-10.1031
-10.1184
-10.1342
-10.1504
-10.167
-10.184
-10.2015
-10.2193
-10.2375
-10.2561
-10.275
-10.2941
-10.3135
-9.89769
-9.89923
-9.90304
-9.90878
-9.9159
-9.92409
-9.93321
-9.94311
-9.95367
-9.96477
-9.97634
-9.98833
-10.0007
-10.0135
-10.0266
-10.04
-10.0538
-10.068
-10.0825
-10.0974
-10.1127
-10.1283
-10.1444
-10.1608
-10.1777
-10.1948
-10.2124
-10.2303
-10.2484
-10.2669
-10.2856
-10.3046
-10.3237
-9.89799
-9.89966
-9.9038
-9.91001
-9.91764
-9.92634
-9.93597
-9.94638
-9.95744
-9.96903
-9.98108
-9.99354
-10.0064
-10.0196
-10.0331
-10.047
-10.0612
-10.0758
-10.0907
-10.106
-10.1216
-10.1376
-10.1539
-10.1705
-10.1875
-10.2048
-10.2224
-10.2403
-10.2584
-10.2768
-10.2954
-10.3141
-10.3329
-9.89693
-9.89879
-9.90338
-9.91021
-9.91849
-9.92782
-9.93805
-9.94905
-9.96066
-9.97278
-9.98533
-9.99828
-10.0116
-10.0252
-10.0392
-10.0535
-10.0681
-10.0831
-10.0984
-10.1139
-10.1299
-10.1461
-10.1626
-10.1794
-10.1966
-10.2139
-10.2316
-10.2495
-10.2675
-10.2858
-10.3042
-10.3228
-10.3414
-9.89424
-9.89636
-9.90159
-9.90926
-9.91837
-9.92845
-9.9394
-9.95108
-9.96332
-9.97602
-9.9891
-10.0025
-10.0163
-10.0304
-10.0448
-10.0595
-10.0745
-10.0897
-10.1053
-10.1212
-10.1373
-10.1538
-10.1705
-10.1874
-10.2047
-10.2221
-10.2398
-10.2576
-10.2756
-10.2938
-10.3121
-10.3304
-10.3489
-9.88954
-9.89205
-9.89821
-9.90705
-9.91721
-9.92818
-9.93994
-9.95236
-9.96528
-9.97858
-9.99222
-10.0062
-10.0204
-10.035
-10.0498
-10.0649
-10.0802
-10.0958
-10.1117
-10.1278
-10.1442
-10.1609
-10.1777
-10.1948
-10.2122
-10.2297
-10.2473
-10.2652
-10.2831
-10.3012
-10.3193
-10.3375
-10.3557
-9.88229
-9.88541
-9.89296
-9.90342
-9.91497
-9.92712
-9.93993
-9.95326
-9.96692
-9.98083
-9.99499
-10.0094
-10.024
-10.0389
-10.054
-10.0694
-10.085
-10.1009
-10.1169
-10.1333
-10.1498
-10.1666
-10.1836
-10.2008
-10.2182
-10.2357
-10.2534
-10.2712
-10.2891
-10.3071
-10.3251
-10.3432
-10.3613
-9.87165
-9.87589
-9.88578
-9.89829
-9.91111
-9.92434
-9.93831
-9.95275
-9.96736
-9.98211
-9.99702
-10.0121
-10.0273
-10.0427
-10.0583
-10.074
-10.09
-10.1062
-10.1225
-10.1391
-10.1558
-10.1727
-10.1898
-10.2071
-10.2245
-10.2421
-10.2598
-10.2775
-10.2954
-10.3132
-10.3311
-10.349
-10.3669
-9.85619
-9.86206
-9.87691
-9.89362
-9.9086
-9.92307
-9.93795
-9.95299
-9.96796
-9.98293
-9.99802
-10.0133
-10.0286
-10.0442
-10.0599
-10.0759
-10.092
-10.1083
-10.1248
-10.1415
-10.1584
-10.1755
-10.1927
-10.2101
-10.2276
-10.2452
-10.2629
-10.2807
-10.2985
-10.3164
-10.3343
-10.3521
-10.37
-9.83506
-9.84187
-9.8606
-9.88069
-9.89892
-9.91689
-9.93489
-9.95233
-9.96914
-9.98558
-10.0018
-10.0179
-10.0339
-10.0499
-10.066
-10.0822
-10.0985
-10.1149
-10.1315
-10.1482
-10.1651
-10.1821
-10.1993
-10.2166
-10.234
-10.2516
-10.2691
-10.2868
-10.3045
-10.3222
-10.3398
-10.3575
-10.375
-9.80222
-9.83725
-9.86653
-9.8825
-9.89645
-9.9128
-9.92976
-9.94611
-9.96215
-9.97828
-9.99451
-10.0108
-10.0271
-10.0436
-10.0601
-10.0767
-10.0935
-10.1104
-10.1274
-10.1445
-10.1618
-10.1792
-10.1967
-10.2143
-10.232
-10.2498
-10.2676
-10.2854
-10.3033
-10.3211
-10.339
-10.3568
-10.3746
-9.66126
-9.76872
-9.84248
-9.87471
-9.89786
-9.92217
-9.94452
-9.96357
-9.98072
-9.99712
-10.0131
-10.0288
-10.0443
-10.0599
-10.0755
-10.0912
-10.1071
-10.1232
-10.1395
-10.1559
-10.1726
-10.1894
-10.2063
-10.2234
-10.2406
-10.2579
-10.2753
-10.2928
-10.3102
-10.3277
-10.3452
-10.3626
-10.38
-8.90021
-8.95968
-9.83439
-10.296
-10.3398
-10.3517
-10.3907
-10.4231
-10.4513
-10.4851
-10.5271
-10.5782
-10.6407
-10.7162
-10.8062
-10.9117
-11.0331
-11.1706
-11.3232
-11.4896
-11.6672
-11.8524
-12.0405
-12.2255
-12.4003
-12.5566
-12.6852
-12.7763
-12.8191
-12.8023
-12.7139
-12.5411
-12.2711
-11.8924
-11.3978
-10.7881
-10.0771
-9.29634
-8.49833
-7.75358
-7.14902
-6.78211
-6.75625
-7.18554
-8.14539
-9.6263
-11.5139
-13.6275
-15.7813
-17.826
-19.6609
-21.2254
-22.4853
-23.4225
-24.025
-24.292
-24.2072
-23.7591
-22.9498
-21.7982
-20.3429
-18.6425
-16.773
-14.8202
-12.87
-10.9977
-9.25996
-7.69238
-6.31099
-5.11668
-4.10015
-3.24621
-2.53688
-1.95364
-1.47861
-1.09536
-0.789139
-0.546995
-0.357698
-0.211634
-0.100645
-0.0178892
0.0423358
0.0847201
0.11311
0.130613
0.139736
0.142464
0.140373
0.13468
0.126333
0.11604
0.104335
0.0916084
0.0780996
0.0641158
0.0494463
0.0352529
0.0187486
0.0090221
-9.48259
-9.63557
-9.96848
-10.2265
-10.2899
-10.3233
-10.3708
-10.411
-10.4455
-10.4839
-10.5293
-10.5833
-10.6477
-10.7245
-10.8149
-10.9199
-11.0401
-11.1753
-11.3248
-11.4871
-11.6595
-11.8387
-12.0199
-12.1973
-12.3639
-12.5118
-12.632
-12.7147
-12.7498
-12.726
-12.6317
-12.4549
-12.1837
-11.8081
-11.3223
-10.7288
-10.0424
-9.29507
-8.53776
-7.83805
-7.27903
-6.95018
-6.95023
-7.38308
-8.31308
-9.72941
-11.5322
-13.5597
-15.6388
-17.6249
-19.4161
-20.9484
-22.1846
-23.1047
-23.697
-23.9603
-23.8774
-23.438
-22.6451
-21.5179
-20.0946
-18.4324
-16.6051
-14.6961
-12.7888
-10.9563
-9.25345
-7.7147
-6.35572
-5.17765
-4.1719
-3.32414
-2.61735
-2.03385
-1.55656
-1.16963
-0.85883
-0.611581
-0.416945
-0.265519
-0.149298
-0.0615404
0.00338844
0.0501443
0.0825583
0.103739
0.116206
0.121963
0.122609
0.119388
0.113274
0.105005
0.0951388
0.0840943
0.0721354
0.0595877
0.0462742
0.0333155
0.0180632
0.00902505
-9.50865
-9.68245
-9.90537
-10.1449
-10.2547
-10.307
-10.3586
-10.4046
-10.4449
-10.4872
-10.5358
-10.5921
-10.6581
-10.7355
-10.8258
-10.9298
-11.048
-11.1802
-11.3257
-11.4829
-11.6494
-11.8216
-11.9949
-12.1638
-12.3215
-12.4602
-12.5713
-12.6453
-12.6723
-12.6416
-12.5421
-12.3624
-12.092
-11.722
-11.2485
-10.6752
-10.018
-9.30863
-8.59594
-7.94434
-7.43233
-7.14198
-7.16647
-7.59923
-8.49655
-9.84768
-11.5644
-13.5016
-15.4992
-17.4187
-19.1587
-20.6529
-21.8612
-22.7611
-23.3415
-23.5995
-23.518
-23.0876
-22.3121
-21.2112
-19.8222
-18.2011
-16.4194
-14.5579
-12.6974
-10.9082
-9.24306
-7.73533
-6.40032
-5.23959
-4.24532
-3.40419
-2.70018
-2.11656
-1.63702
-1.24638
-0.930913
-0.678447
-0.478339
-0.321409
-0.199807
-0.106901
-0.0371216
0.0141479
0.0507219
0.0757102
0.0916422
0.100541
0.104029
0.103378
0.0995871
0.0934235
0.0854727
0.0761797
0.0658349
0.0547803
0.0428789
0.0311919
0.0172483
0.00889513
-9.55036
-9.72187
-9.91365
-10.1168
-10.2329
-10.2945
-10.35
-10.4014
-10.4471
-10.4935
-10.5449
-10.6033
-10.6704
-10.7482
-10.8379
-10.9403
-11.0559
-11.1844
-11.3252
-11.4766
-11.6361
-11.8005
-11.9652
-12.1248
-12.2728
-12.4017
-12.5032
-12.5682
-12.5872
-12.5499
-12.446
-12.265
-11.9973
-11.6358
-11.1779
-10.6288
-10.0049
-9.33739
-8.6728
-8.07206
-7.60838
-7.35744
-7.40623
-7.83793
-8.70154
-9.9865
-11.6145
-13.456
-15.3644
-17.2089
-18.8899
-20.3394
-21.5151
-22.392
-22.9586
-23.21
-23.1294
-22.7084
-21.9515
-20.8784
-19.526
-17.9487
-16.216
-14.4058
-12.5957
-10.853
-9.22836
-7.75382
-6.44445
-5.30225
-4.32032
-3.48639
-2.78555
-2.20202
-1.72033
-1.32599
-1.00581
-0.74803
-0.542324
-0.37974
-0.252595
-0.15437
-0.0795704
-0.0236195
0.0172771
0.046228
0.0657719
0.0779508
0.0844094
0.0864456
0.0850874
0.0811296
0.0751857
0.0677275
0.0590734
0.04958
0.0391552
0.0287898
0.0162162
0.00856979
-9.62366
-9.77432
-9.93613
-10.1008
-10.2134
-10.2839
-10.3442
-10.4
-10.4505
-10.5006
-10.5548
-10.6151
-10.6833
-10.7611
-10.8498
-10.9503
-11.0627
-11.1871
-11.3224
-11.4673
-11.6194
-11.7752
-11.9306
-12.0803
-12.2181
-12.3368
-12.4285
-12.4845
-12.4958
-12.4526
-12.3454
-12.1647
-11.902
-11.5517
-11.1126
-10.591
-10.0038
-9.38108
-8.76695
-8.21872
-7.80357
-7.59188
-7.66377
-8.09303
-8.92228
-10.1412
-11.68
-13.4229
-15.2369
-16.9994
-18.6142
-20.0128
-21.1508
-22.0012
-22.5516
-22.7948
-22.7144
-22.3027
-21.5651
-20.5213
-19.2075
-17.6768
-15.9962
-14.2407
-12.4842
-10.791
-9.20933
-7.76992
-6.48766
-5.3651
-4.39631
-3.57018
-2.87289
-2.28971
-1.80603
-1.40806
-1.08317
-0.820028
-0.608636
-0.440287
-0.307471
-0.203788
-0.123823
-0.0630435
-0.0176795
0.0153746
0.038665
0.0542513
0.0638
0.0686358
0.0698134
0.0681573
0.0643084
0.0587662
0.0518775
0.0440129
0.0351288
0.0261365
0.0149991
0.00808548
-9.69371
-9.8195
-9.95641
-10.094
-10.2013
-10.2771
-10.3409
-10.3998
-10.4542
-10.5078
-10.5644
-10.6264
-10.6955
-10.7732
-10.8607
-10.9588
-11.0678
-11.1875
-11.3171
-11.455
-11.599
-11.7459
-11.8916
-12.031
-12.1583
-12.2666
-12.3485
-12.3958
-12.3998
-12.3517
-12.2425
-12.0637
-11.8083
-11.4718
-11.0543
-10.563
-10.015
-9.43925
-8.87703
-8.38193
-8.01484
-7.84149
-7.93452
-8.35918
-9.15266
-10.3053
-11.755
-13.3984
-15.1149
-16.7907
-18.3336
-19.6755
-20.7711
-21.5913
-22.1229
-22.356
-22.2748
-21.8725
-21.1548
-20.1416
-18.8685
-17.3869
-15.7615
-14.0637
-12.3639
-10.7227
-9.18611
-7.78354
-6.52972
-5.42782
-4.47296
-3.65519
-2.96189
-2.37935
-1.89387
-1.49237
-1.16279
-0.894272
-0.677138
-0.502936
-0.36434
-0.255075
-0.169813
-0.104071
-0.0541043
-0.0168144
0.0103506
0.0294666
0.042221
0.0499645
0.0537792
0.0545184
0.0528514
0.049305
0.0442559
0.0380872
0.0308081
0.0232421
0.0136125
0.00745937
-9.75697
-9.86168
-9.9789
-10.0968
-10.1965
-10.2738
-10.3397
-10.4008
-10.4581
-10.5146
-10.5734
-10.6368
-10.7064
-10.7837
-10.8698
-10.9654
-11.0707
-11.1855
-11.3091
-11.4398
-11.5755
-11.7131
-11.8489
-11.9779
-12.0946
-12.1926
-12.265
-12.3039
-12.3014
-12.2493
-12.1395
-11.9645
-11.7183
-11.3978
-11.0042
-10.5455
-10.0385
-9.51075
-9.00096
-8.55861
-8.23866
-8.10214
-8.21418
-8.6321
-9.38827
-10.4741
-11.8348
-13.3783
-14.9955
-16.5814
-18.048
-19.3289
-20.3778
-21.1643
-21.6744
-21.8956
-21.8126
-21.4195
-20.7225
-19.7413
-18.5108
-17.081
-15.5135
-13.8763
-12.2356
-10.6487
-9.15893
-7.79463
-6.57042
-5.49012
-4.54992
-3.7411
-3.05222
-2.47065
-1.98358
-1.57869
-1.24451
-0.970617
-0.747711
-0.567592
-0.423126
-0.308175
-0.217498
-0.146669
-0.0919727
-0.0503212
-0.0191588
0.00360504
0.0196776
0.030435
0.036986
0.0402131
0.0408141
0.0393432
0.0362075
0.0318024
0.0261933
0.0201089
0.0120624
0.00670055
-9.81389
-9.90216
-10.0032
-10.1058
-10.1974
-10.2738
-10.3407
-10.4031
-10.4625
-10.5211
-10.5815
-10.646
-10.7159
-10.7926
-10.877
-10.9699
-11.0714
-11.1812
-11.2985
-11.4219
-11.5493
-11.6777
-11.8035
-11.9222
-12.0286
-12.1166
-12.1798
-12.211
-12.2028
-12.1478
-12.0386
-11.8689
-11.6338
-11.3312
-10.9632
-10.5384
-10.0733
-9.59382
-9.13604
-8.7451
-8.47077
-8.36907
-8.49786
-8.90714
-9.62491
-10.6437
-11.9156
-13.359
-14.8761
-16.3698
-17.7571
-18.9732
-19.972
-20.7219
-21.2079
-21.4156
-21.33
-20.9461
-20.2704
-19.3227
-18.137
-16.7613
-15.2543
-13.68
-12.1005
-10.5695
-9.12803
-7.80318
-6.60955
-5.55168
-4.62683
-3.82754
-3.14354
-2.56329
-2.0749
-1.66679
-1.3281
-1.0489
-0.820216
-0.634142
-0.483741
-0.363015
-0.266821
-0.190794
-0.131253
-0.0851217
-0.0498453
-0.0233204
-0.00382099
0.0100535
0.0194382
0.0252442
0.0281982
0.0288817
0.027733
0.0251594
0.0212856
0.01674
0.0103551
0.00581768
-9.86485
-9.94055
-10.0283
-10.1187
-10.2028
-10.277
-10.3438
-10.4067
-10.4674
-10.5274
-10.589
-10.6541
-10.7239
-10.7997
-10.8824
-10.9725
-11.07
-11.1748
-11.2859
-11.402
-11.5211
-11.6404
-11.7565
-11.8652
-11.9616
-12.0402
-12.0948
-12.119
-12.1061
-12.0492
-11.9419
-11.7789
-11.5562
-11.2728
-10.9316
-10.5413
-10.1181
-9.68626
-9.2792
-8.93759
-8.70677
-8.63743
-8.7806
-9.17959
-9.8584
-10.8105
-11.9942
-13.3382
-14.7545
-16.1546
-17.4602
-18.6089
-19.5548
-20.2655
-20.7254
-20.9181
-20.8294
-20.4549
-19.8016
-18.8889
-17.75
-16.4306
-14.9861
-13.4765
-11.9597
-10.4859
-9.09367
-7.80915
-6.64692
-5.6122
-4.70336
-3.91415
-3.23551
-2.65696
-2.16753
-1.75642
-1.41337
-1.12892
-0.894501
-0.702462
-0.546083
-0.419514
-0.317718
-0.236395
-0.171903
-0.121184
-0.0816844
-0.0512909
-0.0282605
-0.0111693
0.00114371
0.0096177
0.0150082
0.017924
0.0188355
0.0181611
0.0160881
0.0131404
0.00849766
0.00482031
-9.91057
-9.97674
-10.0538
-10.1343
-10.2117
-10.2828
-10.3488
-10.4116
-10.4728
-10.5336
-10.5959
-10.6611
-10.7306
-10.8054
-10.886
-10.9732
-11.0668
-11.1665
-11.2715
-11.3806
-11.4917
-11.6022
-11.709
-11.8082
-11.8952
-11.9648
-12.0117
-12.0297
-12.0128
-11.9551
-11.8509
-11.6956
-11.4864
-11.223
-10.909
-10.5533
-10.1713
-9.78572
-9.4273
-9.13243
-8.94245
-8.90268
-9.05781
-9.44513
-10.0849
-10.9714
-12.0685
-13.314
-14.6298
-15.9353
-17.1576
-18.2367
-19.1274
-19.7971
-20.2292
-20.406
-20.3139
-19.9494
-19.3195
-18.4436
-17.3532
-16.0918
-14.7114
-13.2676
-11.8144
-10.3985
-9.05614
-7.81257
-6.68235
-5.67139
-4.77915
-4.00057
-3.32776
-2.75131
-2.26118
-1.84731
-1.50008
-1.21051
-0.970402
-0.772414
-0.610036
-0.477578
-0.370112
-0.28341
-0.213875
-0.158469
-0.114646
-0.0802829
-0.0536225
-0.033219
-0.0178863
-0.00665771
0.001251
0.0064757
0.00951928
0.0108115
0.010605
0.00931563
0.00649643
0.00371744
-9.95187
-10.0107
-10.0792
-10.1516
-10.223
-10.2909
-10.3553
-10.4175
-10.4787
-10.5398
-10.6022
-10.6673
-10.7362
-10.8095
-10.8881
-10.9722
-11.0619
-11.1567
-11.2558
-11.358
-11.4614
-11.5637
-11.6617
-11.7519
-11.8301
-11.8916
-11.9314
-11.9441
-11.9243
-11.8667
-11.7664
-11.6198
-11.4248
-11.1818
-10.895
-10.5732
-10.2311
-9.88982
-9.57734
-9.32627
-9.17406
-9.16085
-9.32556
-9.70005
-10.3013
-11.1239
-12.1369
-13.2859
-14.5022
-15.713
-16.8509
-17.8589
-18.6927
-19.3198
-19.7227
-19.883
-19.7878
-19.4339
-18.8287
-17.9908
-16.9504
-15.7483
-14.4327
-13.0553
-11.6659
-10.3079
-9.01574
-7.81345
-6.71565
-5.72897
-4.85386
-4.08643
-3.41995
-2.84603
-2.35554
-1.9392
-1.58799
-1.29344
-1.04774
-0.843847
-0.675476
-0.537103
-0.423917
-0.331769
-0.257112
-0.196933
-0.148693
-0.110267
-0.0798836
-0.056077
-0.0376369
-0.0235703
-0.013064
-0.00545551
-0.000209042
0.00311657
0.0048419
0.00527237
0.00435812
0.00251881
-9.98942
-10.0426
-10.1042
-10.17
-10.2361
-10.3007
-10.3632
-10.4244
-10.485
-10.5459
-10.6081
-10.6727
-10.7406
-10.8125
-10.8888
-10.9698
-11.0556
-11.1456
-11.239
-11.3347
-11.4308
-11.5252
-11.615
-11.6969
-11.7671
-11.8213
-11.8549
-11.8632
-11.8413
-11.7846
-11.6891
-11.5518
-11.3714
-11.1489
-10.8888
-10.5998
-10.2958
-9.99639
-9.72674
-9.51624
-9.39847
-9.40873
-9.58071
-9.94147
-10.505
-11.2662
-12.1981
-13.2538
-14.3727
-15.4897
-16.5429
-17.4788
-18.2544
-18.8379
-19.2108
-19.3543
-19.2562
-18.9137
-18.3342
-17.5353
-16.5457
-15.4032
-14.1525
-12.8412
-11.5153
-10.215
-8.97277
-7.8118
-6.74669
-5.78468
-4.92718
-4.1714
-3.51172
-2.94077
-2.4503
-2.03179
-1.67685
-1.3775
-1.12633
-0.916602
-0.742268
-0.597976
-0.479039
-0.381395
-0.301549
-0.236521
-0.183782
-0.141208
-0.107016
-0.0797204
-0.0580898
-0.0411049
-0.0279246
-0.0178596
-0.0103411
-0.00491628
-0.00119458
0.00101798
0.00208877
0.00123348
-10.0238
-10.0726
-10.1286
-10.1889
-10.2505
-10.3117
-10.3722
-10.432
-10.4917
-10.552
-10.6136
-10.6774
-10.7441
-10.8142
-10.8882
-10.9662
-11.048
-11.1334
-11.2214
-11.3108
-11.4002
-11.4872
-11.5694
-11.6437
-11.7066
-11.7543
-11.7826
-11.7873
-11.7641
-11.7092
-11.6191
-11.4915
-11.3258
-11.1236
-10.8894
-10.6318
-10.3638
-10.1036
-9.87346
-9.7001
-9.61328
-9.64391
-9.82099
-10.1673
-10.6942
-11.3969
-12.2518
-13.218
-14.2428
-15.268
-16.2373
-17.1009
-17.8178
-18.3569
-18.6991
-18.8257
-18.7249
-18.3944
-17.8411
-17.0817
-16.1429
-15.0597
-13.8732
-12.6271
-11.3636
-10.1203
-8.9275
-7.80766
-6.77532
-5.83826
-4.99878
-4.25513
-3.60273
-3.0352
-2.54515
-2.12481
-1.76641
-1.46246
-1.20597
-0.990507
-0.810264
-0.660071
-0.535373
-0.432199
-0.347113
-0.277172
-0.219864
-0.173065
-0.134984
-0.104121
-0.0792219
-0.0592427
-0.0433152
-0.0307236
-0.0208661
-0.0132776
-0.00749606
-0.00343894
-0.000305026
-0.000128504
-10.0554
-10.1007
-10.1522
-10.2079
-10.2655
-10.3237
-10.3819
-10.4401
-10.4987
-10.558
-10.6188
-10.6815
-10.7467
-10.815
-10.8865
-10.9614
-11.0395
-11.1203
-11.2031
-11.2867
-11.3696
-11.4499
-11.5251
-11.5925
-11.6489
-11.6909
-11.7147
-11.7166
-11.693
-11.6404
-11.5563
-11.4388
-11.2878
-11.1053
-10.896
-10.6681
-10.4339
-10.2098
-10.0159
-9.87616
-9.81684
-9.86483
-10.045
-10.3763
-10.868
-11.5153
-12.2975
-13.1791
-14.1138
-15.0503
-15.9377
-16.7298
-17.3881
-17.8826
-18.1939
-18.3034
-18.2001
-17.8816
-17.3545
-16.6343
-15.7456
-14.7206
-13.5969
-12.4143
-11.2119
-10.0243
-8.88019
-7.80108
-6.80144
-5.8895
-5.06839
-4.33731
-3.69265
-3.12899
-2.63978
-2.21797
-1.8564
-1.54809
-1.28646
-1.06538
-0.879307
-0.723254
-0.592803
-0.484083
-0.393723
-0.318819
-0.256881
-0.20579
-0.16375
-0.129247
-0.101006
-0.0779614
-0.0592172
-0.044032
-0.031771
-0.0219563
-0.0140529
-0.00808909
-0.00281732
-0.00155808
-10.0847
-10.1271
-10.175
-10.2268
-10.2809
-10.3362
-10.3922
-10.4487
-10.5058
-10.564
-10.6235
-10.6849
-10.7485
-10.8148
-10.8838
-10.9556
-11.03
-11.1065
-11.1844
-11.2626
-11.3395
-11.4135
-11.4824
-11.5435
-11.5942
-11.6312
-11.6513
-11.6512
-11.6278
-11.5783
-11.5004
-11.3931
-11.2566
-11.0932
-10.9076
-10.7077
-10.5048
-10.3138
-10.1529
-10.0433
-10.0081
-10.0706
-10.2519
-10.5679
-11.0259
-11.621
-12.3351
-13.1372
-13.9869
-14.8388
-15.647
-16.3695
-16.97
-17.4204
-17.7007
-17.7931
-17.6871
-17.3804
-16.8789
-16.1969
-15.3569
-14.3883
-13.3252
-12.2042
-11.0609
-9.92756
-8.83108
-7.7921
-6.82494
-5.93821
-5.13575
-4.41763
-3.78117
-3.22184
-2.73389
-2.31098
-1.94656
-1.63415
-1.36757
-1.14103
-0.949231
-0.78738
-0.651206
-0.53694
-0.441286
-0.361383
-0.294767
-0.239328
-0.193267
-0.155058
-0.12341
-0.0972338
-0.0756081
-0.057766
-0.0430398
-0.0309386
-0.0208536
-0.0129218
-0.0054411
-0.00304524
-10.1118
-10.1519
-10.1968
-10.2454
-10.2964
-10.349
-10.4028
-10.4574
-10.513
-10.5698
-10.6279
-10.6878
-10.7497
-10.8138
-10.8803
-10.9491
-11.0199
-11.0923
-11.1655
-11.2385
-11.31
-11.3782
-11.4413
-11.4969
-11.5425
-11.5753
-11.5924
-11.5911
-11.5685
-11.5224
-11.4512
-11.3541
-11.2317
-11.0866
-10.9234
-10.7496
-10.5756
-10.4148
-10.2836
-10.2008
-10.1865
-10.2608
-10.4416
-10.7421
-11.1678
-11.714
-12.3646
-13.0927
-13.8627
-14.6346
-15.3674
-16.0228
-16.5672
-16.9741
-17.2238
-17.2992
-17.1902
-16.8947
-16.4178
-15.7725
-14.9792
-14.0645
-13.0596
-11.9976
-10.9113
-9.8305
-8.7804
-7.78078
-6.84576
-5.98423
-5.20063
-4.49582
-3.86799
-3.31342
-2.82716
-2.40355
-2.03662
-1.72039
-1.44909
-1.21726
-1.01986
-0.852294
-0.710446
-0.590655
-0.489703
-0.404779
-0.33345
-0.273617
-0.223482
-0.181512
-0.146397
-0.117029
-0.0924618
-0.0719037
-0.0546544
-0.0402092
-0.0278851
-0.0179257
-0.00816987
-0.00458144
-10.1371
-10.1752
-10.2176
-10.2634
-10.3118
-10.3619
-10.4135
-10.4663
-10.5202
-10.5754
-10.632
-10.6902
-10.7502
-10.8122
-10.8761
-10.9419
-11.0092
-11.0777
-11.1465
-11.2147
-11.2811
-11.3442
-11.402
-11.4527
-11.4939
-11.5232
-11.538
-11.536
-11.5148
-11.4726
-11.4082
-11.3212
-11.2125
-11.0848
-10.9427
-10.793
-10.6455
-10.5121
-10.4075
-10.3482
-10.3518
-10.4354
-10.6143
-10.8992
-11.2941
-11.7946
-12.3863
-13.0456
-13.7414
-14.4384
-15.1
-15.6914
-16.1818
-16.5466
-16.7663
-16.8248
-16.7127
-16.4274
-15.9737
-15.3631
-14.6141
-13.7507
-12.8011
-11.7955
-10.7637
-9.73349
-8.72835
-7.7672
-6.86386
-6.02741
-5.26281
-4.57164
-3.95283
-3.40346
-2.91932
-2.49539
-2.1263
-1.80656
-1.53079
-1.29387
-1.09101
-0.917833
-0.770379
-0.645102
-0.538864
-0.448913
-0.372848
-0.308587
-0.254337
-0.208557
-0.169924
-0.137311
-0.109748
-0.0864193
-0.0665931
-0.0497498
-0.0351324
-0.0230878
-0.0109957
-0.00615735
-10.1607
-10.1971
-10.2374
-10.2809
-10.3268
-10.3747
-10.4242
-10.4751
-10.5273
-10.5809
-10.6358
-10.6922
-10.7503
-10.81
-10.8713
-10.9341
-10.9982
-11.0629
-11.1276
-11.1914
-11.2531
-11.3114
-11.3647
-11.411
-11.4485
-11.4749
-11.488
-11.4859
-11.4665
-11.4285
-11.371
-11.2939
-11.1984
-11.0872
-10.9646
-10.8373
-10.7138
-10.6051
-10.5241
-10.4854
-10.5041
-10.5949
-10.7705
-11.0397
-11.4055
-11.8633
-12.4004
-12.9961
-13.6232
-14.2504
-14.8451
-15.3762
-15.8152
-16.1394
-16.3301
-16.372
-16.2563
-15.9804
-15.5482
-14.9702
-14.2628
-13.4477
-12.5504
-11.5982
-10.6186
-9.63683
-8.67514
-7.75143
-6.87921
-6.06766
-5.32214
-4.64484
-4.03543
-3.49168
-3.01007
-2.58624
-2.21535
-1.89241
-1.61243
-1.37062
-1.16248
-0.983822
-0.830851
-0.700144
-0.588652
-0.493682
-0.412872
-0.344162
-0.285765
-0.236136
-0.193942
-0.158037
-0.127431
-0.101284
-0.0788314
-0.0595401
-0.042579
-0.0283947
-0.0139107
-0.00776556
-10.1827
-10.2177
-10.2562
-10.2976
-10.3414
-10.3872
-10.4348
-10.4838
-10.5342
-10.586
-10.6392
-10.6938
-10.7498
-10.8073
-10.8661
-10.926
-10.9869
-11.048
-11.1089
-11.1686
-11.2261
-11.2802
-11.3293
-11.3719
-11.4062
-11.4303
-11.4423
-11.4405
-11.4234
-11.3897
-11.3391
-11.2717
-11.1888
-11.093
-10.9887
-10.8817
-10.78
-10.6934
-10.6333
-10.6123
-10.6436
-10.7396
-10.9108
-11.1645
-11.5025
-11.9206
-12.4072
-12.9443
-13.5078
-14.0703
-14.6027
-15.0771
-15.4675
-15.7531
-15.9158
-15.9416
-15.822
-15.5544
-15.1421
-14.5944
-13.9259
-13.1561
-12.308
-11.4064
-10.4762
-9.54081
-8.62094
-7.73359
-6.89183
-6.10489
-5.37846
-4.71525
-4.11555
-3.5778
-3.09914
-2.6758
-2.30349
-1.97767
-1.69377
-1.44732
-1.23407
-1.05008
-0.891697
-0.755635
-0.638936
-0.538972
-0.453423
-0.380255
-0.317691
-0.264186
-0.218397
-0.179163
-0.145472
-0.116463
-0.0913412
-0.0695566
-0.0502056
-0.033831
-0.0169056