/*--------------------------------*- C++ -*----------------------------------*\
| =========                 |                                                 |
| \\      /  F ield         | OpenFOAM: The Open Source CFD Toolbox           |
|  \\    /   O peration     | Version:  4.1                                   |
|   \\  /    A nd           | Web:      www.OpenFOAM.org                      |
|    \\/     M anipulation  |                                                 |
\*---------------------------------------------------------------------------*/
FoamFile
{
    version     2.0;
    format      ascii;
    class       surfaceScalarField;
    location    "200";
    object      phi;
}
// * * * * * * * * * * * * * * * * * * * * * * * * * * * * * * * * * * * * * //

dimensions      [0 3 -1 0 0 0 0];

internalField   nonuniform List<scalar> 
13452
(
5.9881e-05
3.87477e-07
5.95247e-05
3.56281e-07
5.92686e-05
2.56106e-07
5.90598e-05
2.08759e-07
5.88767e-05
1.83107e-07
5.87131e-05
1.63656e-07
5.8564e-05
1.49059e-07
5.84259e-05
1.38091e-07
5.82967e-05
1.29246e-07
5.81749e-05
1.21806e-07
5.80594e-05
1.15517e-07
5.79491e-05
1.1021e-07
5.78434e-05
1.05749e-07
5.77414e-05
1.02035e-07
5.76424e-05
9.90078e-08
5.75457e-05
9.66311e-08
5.74508e-05
9.48933e-08
5.7357e-05
9.38068e-08
5.72636e-05
9.34121e-08
5.71698e-05
9.37838e-08
5.70748e-05
9.50424e-08
5.69774e-05
9.73755e-08
5.68763e-05
1.01075e-07
5.67697e-05
1.06602e-07
5.6655e-05
1.14721e-07
5.65282e-05
1.26759e-07
5.6383e-05
1.45233e-07
5.62081e-05
1.74941e-07
5.59803e-05
2.27813e-07
5.56557e-05
3.24551e-07
5.51055e-05
5.5026e-07
5.40295e-05
1.07599e-06
1.57314e-06
5.24563e-05
6.20749e-05
3.02952e-07
6.19985e-05
4.32667e-07
6.1851e-05
4.03575e-07
6.16872e-05
3.72529e-07
6.15274e-05
3.42974e-07
6.1377e-05
3.14039e-07
6.12364e-05
2.89673e-07
6.11044e-05
2.70022e-07
6.098e-05
2.53702e-07
6.08619e-05
2.39855e-07
6.07494e-05
2.28055e-07
6.06416e-05
2.17995e-07
6.05379e-05
2.09443e-07
6.04377e-05
2.0224e-07
6.03404e-05
1.96284e-07
6.02455e-05
1.91515e-07
6.01525e-05
1.87914e-07
6.00608e-05
1.85499e-07
5.99699e-05
1.84335e-07
5.98792e-05
1.84543e-07
5.97879e-05
1.86315e-07
5.96953e-05
1.89944e-07
5.96005e-05
1.9588e-07
5.95023e-05
2.04808e-07
5.93992e-05
2.17821e-07
5.92893e-05
2.3667e-07
5.917e-05
2.64537e-07
5.90384e-05
3.065e-07
5.88912e-05
3.75004e-07
5.87316e-05
4.84227e-07
5.8582e-05
6.99846e-07
5.86091e-05
1.04886e-06
1.69731e-06
5.84849e-05
6.38372e-05
2.27112e-07
6.38681e-05
4.01775e-07
6.38437e-05
4.28013e-07
6.37837e-05
4.32505e-07
6.37027e-05
4.24026e-07
6.36112e-05
4.055e-07
6.35157e-05
3.85142e-07
6.34195e-05
3.66283e-07
6.3324e-05
3.49205e-07
6.32299e-05
3.33887e-07
6.31377e-05
3.20344e-07
6.30471e-05
3.08505e-07
6.29583e-05
2.98269e-07
6.2871e-05
2.89559e-07
6.2785e-05
2.82334e-07
6.26999e-05
2.76583e-07
6.26155e-05
2.72331e-07
6.25313e-05
2.69647e-07
6.2447e-05
2.68653e-07
6.2362e-05
2.69539e-07
6.22757e-05
2.7259e-07
6.21874e-05
2.78222e-07
6.20963e-05
2.87048e-07
6.20011e-05
2.99978e-07
6.19005e-05
3.18404e-07
6.17927e-05
3.44456e-07
6.16756e-05
3.81715e-07
6.15466e-05
4.35482e-07
6.14049e-05
5.167e-07
6.12527e-05
6.36428e-07
6.11201e-05
8.32384e-07
6.10717e-05
1.09728e-06
1.55322e-06
6.12158e-05
6.56369e-05
1.73263e-07
6.56886e-05
3.50129e-07
6.57114e-05
4.05149e-07
6.57113e-05
4.32654e-07
6.5691e-05
4.44335e-07
6.56549e-05
4.41594e-07
6.56079e-05
4.32166e-07
6.55535e-05
4.20648e-07
6.54942e-05
4.08475e-07
6.54317e-05
3.9641e-07
6.5367e-05
3.85032e-07
6.53008e-05
3.74666e-07
6.52336e-05
3.65478e-07
6.51656e-05
3.5758e-07
6.50969e-05
3.5107e-07
6.50274e-05
3.46047e-07
6.49571e-05
3.42628e-07
6.48858e-05
3.40964e-07
6.48132e-05
3.4126e-07
6.47389e-05
3.43794e-07
6.46626e-05
3.48949e-07
6.45835e-05
3.57258e-07
6.45011e-05
3.69475e-07
6.44144e-05
3.86671e-07
6.43224e-05
4.10422e-07
6.42238e-05
4.43017e-07
6.41176e-05
4.88007e-07
6.40027e-05
5.50309e-07
6.3881e-05
6.38429e-07
6.37571e-05
7.60288e-07
6.36539e-05
9.35578e-07
6.3597e-05
1.15418e-06
1.457e-06
6.36933e-05
6.74945e-05
1.35572e-07
6.75428e-05
3.01822e-07
6.75771e-05
3.70824e-07
6.75999e-05
4.09886e-07
6.76104e-05
4.33803e-07
6.76087e-05
4.43318e-07
6.75965e-05
4.44324e-07
6.75759e-05
4.41297e-07
6.75483e-05
4.36e-07
6.75153e-05
4.29462e-07
6.74778e-05
4.22538e-07
6.74366e-05
4.15818e-07
6.73924e-05
4.09684e-07
6.73456e-05
4.04421e-07
6.72964e-05
4.00271e-07
6.7245e-05
3.97451e-07
6.71914e-05
3.96181e-07
6.71357e-05
3.96706e-07
6.70776e-05
3.99316e-07
6.7017e-05
4.04378e-07
6.69536e-05
4.12363e-07
6.6887e-05
4.23898e-07
6.68166e-05
4.39831e-07
6.6742e-05
4.61319e-07
6.66624e-05
4.89978e-07
6.65774e-05
5.28039e-07
6.64867e-05
5.7868e-07
6.63911e-05
6.45995e-07
6.62935e-05
7.35966e-07
6.62002e-05
8.53568e-07
6.61283e-05
1.00756e-06
6.60938e-05
1.18867e-06
1.4024e-06
6.61484e-05
6.94107e-05
1.08878e-07
6.94516e-05
2.60965e-07
6.94858e-05
3.36627e-07
6.9514e-05
3.81619e-07
6.95358e-05
4.12018e-07
6.95499e-05
4.29201e-07
6.95567e-05
4.37614e-07
6.95566e-05
4.41312e-07
6.95505e-05
4.421e-07
6.9539e-05
4.41004e-07
6.95226e-05
4.38903e-07
6.9502e-05
4.3647e-07
6.94775e-05
4.34181e-07
6.94495e-05
4.32418e-07
6.94182e-05
4.31508e-07
6.93839e-05
4.31752e-07
6.93467e-05
4.3345e-07
6.93065e-05
4.36918e-07
6.92633e-05
4.42519e-07
6.9217e-05
4.50686e-07
6.91674e-05
4.61954e-07
6.91143e-05
4.77007e-07
6.90573e-05
4.96731e-07
6.89964e-05
5.22287e-07
6.89311e-05
5.5521e-07
6.88617e-05
5.97501e-07
6.87886e-05
6.51777e-07
6.87135e-05
7.2113e-07
6.86401e-05
8.09356e-07
6.85746e-05
9.19008e-07
6.85295e-05
1.0527e-06
6.85156e-05
1.20254e-06
1.36275e-06
6.85553e-05
7.13856e-05
8.96567e-08
7.14194e-05
2.27135e-07
7.14506e-05
3.05366e-07
7.14785e-05
3.53802e-07
7.15027e-05
3.87771e-07
7.15223e-05
4.09637e-07
7.1537e-05
4.22923e-07
7.1547e-05
4.31282e-07
7.15525e-05
4.36565e-07
7.15538e-05
4.39782e-07
7.15509e-05
4.41772e-07
7.15441e-05
4.43206e-07
7.15337e-05
4.44585e-07
7.15198e-05
4.46315e-07
7.15026e-05
4.48761e-07
7.14821e-05
4.52263e-07
7.14584e-05
4.57163e-07
7.14315e-05
4.63819e-07
7.14014e-05
4.72636e-07
7.1368e-05
4.84082e-07
7.13312e-05
4.98723e-07
7.12909e-05
5.17255e-07
7.12471e-05
5.40548e-07
7.11997e-05
5.69692e-07
7.11489e-05
6.06051e-07
7.10951e-05
6.51293e-07
7.10394e-05
7.07409e-07
7.09841e-05
7.7651e-07
7.09327e-05
8.60701e-07
7.0891e-05
9.6078e-07
7.08674e-05
1.07627e-06
7.08693e-05
1.20059e-06
1.32575e-06
7.09063e-05
7.34194e-05
7.55251e-08
7.34473e-05
1.99225e-07
7.34753e-05
2.77403e-07
7.35012e-05
3.27919e-07
7.35248e-05
3.64085e-07
7.35454e-05
3.89036e-07
7.35627e-05
4.05699e-07
7.35766e-05
4.17331e-07
7.35874e-05
4.25831e-07
7.35949e-05
4.32244e-07
7.35993e-05
4.37388e-07
7.36006e-05
4.41929e-07
7.35988e-05
4.46373e-07
7.35939e-05
4.51135e-07
7.35861e-05
4.56588e-07
7.35753e-05
4.63086e-07
7.35615e-05
4.70986e-07
7.35446e-05
4.80663e-07
7.35247e-05
4.92533e-07
7.35017e-05
5.07072e-07
7.34756e-05
5.24842e-07
7.34464e-05
5.46511e-07
7.3414e-05
5.72883e-07
7.33788e-05
6.04922e-07
7.33411e-05
6.43766e-07
7.33017e-05
6.90706e-07
7.32619e-05
7.47134e-07
7.32241e-05
8.14317e-07
7.31917e-05
8.93143e-07
7.31692e-05
9.83291e-07
7.31625e-05
1.08292e-06
7.31765e-05
1.18661e-06
1.28717e-06
7.32151e-05
7.55131e-05
6.48899e-08
7.55362e-05
1.7616e-07
7.5561e-05
2.52544e-07
7.55848e-05
3.04136e-07
7.56071e-05
3.41743e-07
7.56273e-05
3.6889e-07
7.56449e-05
3.88105e-07
7.566e-05
4.02239e-07
7.56726e-05
4.13188e-07
7.56828e-05
4.22046e-07
7.56906e-05
4.29637e-07
7.56959e-05
4.36628e-07
7.56987e-05
4.43538e-07
7.56991e-05
4.50792e-07
7.56969e-05
4.58767e-07
7.56921e-05
4.67824e-07
7.56848e-05
4.7832e-07
7.56748e-05
4.90631e-07
7.56622e-05
5.05166e-07
7.56469e-05
5.22387e-07
7.56289e-05
5.42822e-07
7.56083e-05
5.67081e-07
7.55853e-05
5.95869e-07
7.55603e-05
6.29989e-07
7.55337e-05
6.70329e-07
7.55066e-05
7.17813e-07
7.54804e-05
7.73305e-07
7.54574e-05
8.37407e-07
7.54403e-05
9.10201e-07
7.54329e-05
9.90727e-07
7.54391e-05
1.0767e-06
7.54619e-05
1.16373e-06
1.24611e-06
7.5503e-05
7.76678e-05
5.66863e-08
7.76869e-05
1.57001e-07
7.7709e-05
2.3049e-07
7.77308e-05
2.82323e-07
7.77517e-05
3.20836e-07
7.7771e-05
3.49588e-07
7.77883e-05
3.70829e-07
7.78035e-05
3.87022e-07
7.78167e-05
3.99989e-07
7.78279e-05
4.10857e-07
7.78371e-05
4.20457e-07
7.78442e-05
4.2946e-07
7.78494e-05
4.38401e-07
7.78525e-05
4.47716e-07
7.78534e-05
4.57788e-07
7.78523e-05
4.6898e-07
7.78489e-05
4.81648e-07
7.78434e-05
4.96157e-07
7.78357e-05
5.12901e-07
7.78258e-05
5.32308e-07
7.78137e-05
5.54857e-07
7.77997e-05
5.8108e-07
7.7784e-05
6.11563e-07
7.77671e-05
6.46936e-07
7.77496e-05
6.8784e-07
7.77325e-05
7.34868e-07
7.77174e-05
7.88459e-07
7.7706e-05
8.48729e-07
7.7701e-05
9.1526e-07
7.77049e-05
9.86799e-07
7.77205e-05
1.06107e-06
7.77497e-05
1.13457e-06
1.203e-06
7.77928e-05
7.98848e-05
5.0199e-08
7.99008e-05
1.40962e-07
7.99204e-05
2.10925e-07
7.99404e-05
2.62308e-07
7.996e-05
3.01278e-07
7.99784e-05
3.31174e-07
7.99952e-05
3.54033e-07
8.00102e-05
3.71967e-07
8.00236e-05
3.86676e-07
8.00351e-05
3.99288e-07
8.0045e-05
4.1063e-07
8.0053e-05
4.21373e-07
8.00594e-05
4.32059e-07
8.0064e-05
4.43133e-07
8.00668e-05
4.54985e-07
8.00678e-05
4.67973e-07
8.0067e-05
4.82449e-07
8.00644e-05
4.98763e-07
8.006e-05
5.17282e-07
8.00539e-05
5.38394e-07
8.00462e-05
5.62517e-07
8.00372e-05
5.90094e-07
8.00272e-05
6.21587e-07
8.00167e-05
6.57456e-07
8.00064e-05
6.9812e-07
7.99974e-05
7.43892e-07
7.99909e-05
7.9489e-07
7.99888e-05
8.50899e-07
7.99928e-05
9.1123e-07
8.00051e-05
9.74551e-07
8.00273e-05
1.0388e-06
8.00607e-05
1.10122e-06
1.15863e-06
8.0105e-05
8.21657e-05
4.49423e-08
8.21793e-05
1.27401e-07
8.21966e-05
1.93538e-07
8.2215e-05
2.43916e-07
8.22334e-05
2.82949e-07
8.22509e-05
3.136e-07
8.22673e-05
3.37717e-07
8.22821e-05
3.57115e-07
8.22954e-05
3.73342e-07
8.23072e-05
3.87495e-07
8.23175e-05
4.00389e-07
8.23262e-05
4.12681e-07
8.23333e-05
4.24913e-07
8.23389e-05
4.37532e-07
8.2343e-05
4.50925e-07
8.23455e-05
4.65447e-07
8.23465e-05
4.81436e-07
8.23461e-05
4.99222e-07
8.23442e-05
5.19139e-07
8.23411e-05
5.41529e-07
8.23368e-05
5.66742e-07
8.23318e-05
5.95132e-07
8.23263e-05
6.27038e-07
8.2321e-05
6.62766e-07
8.23166e-05
7.02545e-07
8.2314e-05
7.46471e-07
8.23145e-05
7.94431e-07
8.23194e-05
8.46008e-07
8.23302e-05
9.00392e-07
8.23485e-05
9.563e-07
8.23753e-05
1.01197e-06
8.24113e-05
1.06522e-06
1.11373e-06
8.24562e-05
8.45121e-05
4.05837e-08
8.45237e-05
1.15801e-07
8.45392e-05
1.78029e-07
8.45562e-05
2.26978e-07
8.45734e-05
2.65724e-07
8.45902e-05
2.96789e-07
8.46061e-05
3.21839e-07
8.46208e-05
3.42434e-07
8.46341e-05
3.59966e-07
8.46462e-05
3.75475e-07
8.46568e-05
3.8975e-07
8.46661e-05
4.0343e-07
8.46739e-05
4.17042e-07
8.46804e-05
4.31029e-07
8.46856e-05
4.45769e-07
8.46894e-05
4.61605e-07
8.4692e-05
4.78858e-07
8.46934e-05
4.9783e-07
8.46937e-05
5.1882e-07
8.46931e-05
5.42117e-07
8.46919e-05
5.68004e-07
8.46903e-05
5.96746e-07
8.46887e-05
6.28572e-07
8.46878e-05
6.63655e-07
8.46883e-05
7.0207e-07
8.4691e-05
7.43751e-07
8.4697e-05
7.88434e-07
8.47074e-05
8.35596e-07
8.47234e-05
8.84405e-07
8.4746e-05
9.33694e-07
8.4776e-05
9.81986e-07
8.48136e-05
1.0276e-06
1.06883e-06
8.48585e-05
8.69259e-05
3.68908e-08
8.69359e-05
1.0575e-07
8.69498e-05
1.64115e-07
8.69655e-05
2.11325e-07
8.69817e-05
2.4948e-07
8.69979e-05
2.80656e-07
8.70134e-05
3.06338e-07
8.70279e-05
3.27874e-07
8.70414e-05
3.46495e-07
8.70537e-05
3.63175e-07
8.70648e-05
3.78662e-07
8.70746e-05
3.93568e-07
8.70833e-05
4.08402e-07
8.70907e-05
4.23589e-07
8.7097e-05
4.39495e-07
8.71021e-05
4.56446e-07
8.71063e-05
4.74736e-07
8.71095e-05
4.94639e-07
8.71119e-05
5.16412e-07
8.71137e-05
5.40293e-07
8.71152e-05
5.66498e-07
8.71167e-05
5.95209e-07
8.71187e-05
6.2656e-07
8.71218e-05
6.60614e-07
8.71265e-05
6.97329e-07
8.71337e-05
7.36527e-07
8.71443e-05
7.77856e-07
8.71592e-05
8.20752e-07
8.71792e-05
8.64419e-07
8.7205e-05
9.07835e-07
8.72372e-05
9.49793e-07
8.72758e-05
9.88994e-07
1.02417e-06
8.73205e-05
8.94087e-05
3.36983e-08
8.94176e-05
9.69202e-08
8.94301e-05
1.51537e-07
8.94447e-05
1.9679e-07
8.94601e-05
2.34089e-07
8.94756e-05
2.65108e-07
8.94908e-05
2.91145e-07
8.95053e-05
3.13372e-07
8.95189e-05
3.32869e-07
8.95316e-05
3.50528e-07
8.95432e-05
3.67052e-07
8.95537e-05
3.83018e-07
8.95632e-05
3.98908e-07
8.95717e-05
4.15127e-07
8.95792e-05
4.32021e-07
8.95857e-05
4.4989e-07
8.95915e-05
4.69002e-07
8.95965e-05
4.89599e-07
8.9601e-05
5.11892e-07
8.96052e-05
5.36071e-07
8.96094e-05
5.62287e-07
8.9614e-05
5.90652e-07
8.96193e-05
6.21219e-07
8.9626e-05
6.53963e-07
8.96346e-05
6.8876e-07
8.96457e-05
7.25361e-07
8.96602e-05
7.63371e-07
8.96787e-05
8.0223e-07
8.97019e-05
8.41211e-07
8.97303e-05
8.79443e-07
8.97642e-05
9.15948e-07
8.98034e-05
9.49728e-07
9.79844e-07
8.98478e-05
9.19627e-05
3.08855e-08
9.19705e-05
8.90486e-08
9.1982e-05
1.40062e-07
9.19956e-05
1.83205e-07
9.20103e-05
2.19423e-07
9.20253e-05
2.50042e-07
9.20403e-05
2.76183e-07
9.20548e-05
2.9886e-07
9.20687e-05
3.19019e-07
9.20817e-05
3.37462e-07
9.20939e-05
3.54842e-07
9.21053e-05
3.71696e-07
9.21157e-05
3.88472e-07
9.21253e-05
4.05549e-07
9.2134e-05
4.23248e-07
9.21421e-05
4.41842e-07
9.21495e-05
4.61569e-07
9.21565e-05
4.82633e-07
9.21632e-05
5.05206e-07
9.21698e-05
5.29427e-07
9.21767e-05
5.55394e-07
9.21842e-05
5.83155e-07
9.21927e-05
6.12699e-07
9.22028e-05
6.43937e-07
9.22148e-05
6.7669e-07
9.22295e-05
7.1067e-07
9.22474e-05
7.45473e-07
9.22691e-05
7.80568e-07
9.2295e-05
8.15316e-07
9.23254e-05
8.48981e-07
9.23606e-05
8.80784e-07
9.24004e-05
9.09958e-07
9.35803e-07
9.24444e-05
9.45897e-05
2.83616e-08
9.45968e-05
8.19243e-08
9.46074e-05
1.2948e-07
9.46202e-05
1.7041e-07
9.46343e-05
2.05354e-07
9.46489e-05
2.35354e-07
9.46638e-05
2.61365e-07
9.46784e-05
2.84263e-07
9.46925e-05
3.0487e-07
9.47061e-05
3.23902e-07
9.47189e-05
3.41954e-07
9.47311e-05
3.59516e-07
9.47426e-05
3.77003e-07
9.47534e-05
3.94761e-07
9.47635e-05
4.13082e-07
9.47732e-05
4.32209e-07
9.47824e-05
4.52349e-07
9.47914e-05
4.73669e-07
9.48003e-05
4.96302e-07
9.48094e-05
5.20341e-07
9.48189e-05
5.45836e-07
9.48293e-05
5.72787e-07
9.48408e-05
6.01131e-07
9.48541e-05
6.30736e-07
9.48694e-05
6.61389e-07
9.48872e-05
6.92789e-07
9.49082e-05
7.24542e-07
9.49326e-05
7.56168e-07
9.49608e-05
7.87109e-07
9.4993e-05
8.1676e-07
9.50293e-05
8.44499e-07
9.50695e-05
8.69739e-07
8.91958e-07
9.51133e-05
9.72918e-05
2.60567e-08
9.72984e-05
7.53753e-08
9.73082e-05
1.19602e-07
9.73204e-05
1.58245e-07
9.7334e-05
1.9175e-07
9.73484e-05
2.20932e-07
9.73632e-05
2.46597e-07
9.7378e-05
2.69498e-07
9.73925e-05
2.90345e-07
9.74066e-05
3.0977e-07
9.74203e-05
3.28305e-07
9.74334e-05
3.46396e-07
9.7446e-05
3.64415e-07
9.74581e-05
3.82676e-07
9.74697e-05
4.01437e-07
9.7481e-05
4.20911e-07
9.74921e-05
4.4127e-07
9.75031e-05
4.62649e-07
9.75143e-05
4.85143e-07
9.75258e-05
5.08805e-07
9.7538e-05
5.33645e-07
9.75512e-05
5.59623e-07
9.75656e-05
5.86642e-07
9.75818e-05
6.14541e-07
9.76001e-05
6.43092e-07
9.76209e-05
6.71997e-07
9.76446e-05
7.00888e-07
9.76714e-05
7.29337e-07
9.77017e-05
7.56871e-07
9.77354e-05
7.82993e-07
9.77727e-05
8.07213e-07
9.78134e-05
8.29079e-07
8.48203e-07
9.78571e-05
0.000100071
2.39148e-08
0.000100077
6.92586e-08
0.000100087
1.10262e-07
0.000100098
1.4656e-07
0.000100112
1.78478e-07
0.000100126
2.06659e-07
0.000100141
2.31776e-07
0.000100156
2.54472e-07
0.000100171
2.75357e-07
0.000100186
2.94981e-07
0.0001002
3.13814e-07
0.000100214
3.32251e-07
0.000100228
3.50625e-07
0.000100241
3.69211e-07
0.000100255
3.88235e-07
0.000100268
4.07876e-07
0.000100281
4.28274e-07
0.000100294
4.49532e-07
0.000100307
4.71709e-07
0.000100321
4.94828e-07
0.000100336
5.18865e-07
0.000100352
5.4375e-07
0.000100369
5.69362e-07
0.000100388
5.95527e-07
0.000100409
6.22014e-07
0.000100433
6.48538e-07
0.000100459
6.74766e-07
0.000100488
7.00324e-07
0.00010052
7.24816e-07
0.000100555
7.47837e-07
0.000100593
7.69001e-07
0.000100634
7.87965e-07
8.04436e-07
0.000100678
0.00010293
2.18899e-08
0.000102936
6.34531e-08
0.000102945
1.01307e-07
0.000102956
1.35207e-07
0.000102969
1.65405e-07
0.000102984
1.92415e-07
0.000102998
2.16794e-07
0.000103014
2.39087e-07
0.000103029
2.59814e-07
0.000103045
2.79447e-07
0.00010306
2.98394e-07
0.000103076
3.17e-07
0.000103091
3.35554e-07
0.000103106
3.54292e-07
0.00010312
3.73407e-07
0.000103135
3.93045e-07
0.00010315
4.13315e-07
0.000103165
4.34289e-07
0.000103181
4.55998e-07
0.000103198
4.78435e-07
0.000103215
5.01552e-07
0.000103233
5.25259e-07
0.000103253
5.49421e-07
0.000103275
5.73858e-07
0.000103299
5.98346e-07
0.000103325
6.22623e-07
0.000103353
6.46392e-07
0.000103384
6.69332e-07
0.000103418
6.91113e-07
0.000103454
7.11409e-07
0.000103493
7.29918e-07
0.000103535
7.46379e-07
7.60571e-07
0.000103579
0.000105871
1.99433e-08
0.000105876
5.7854e-08
0.000105885
9.26006e-08
0.000105896
1.24044e-07
0.000105909
1.52398e-07
0.000105923
1.78075e-07
0.000105939
2.01537e-07
0.000105955
2.23239e-07
0.000105971
2.4362e-07
0.000105987
2.63078e-07
0.000106004
2.8196e-07
0.00010602
3.00561e-07
0.000106036
3.19124e-07
0.000106053
3.37849e-07
0.000106069
3.56891e-07
0.000106086
3.76368e-07
0.000106103
3.96359e-07
0.00010612
4.16906e-07
0.000106138
4.38017e-07
0.000106157
4.59661e-07
0.000106177
4.81772e-07
0.000106198
5.04247e-07
0.00010622
5.26943e-07
0.000106245
5.49686e-07
0.000106271
5.72263e-07
0.000106299
5.94438e-07
0.000106329
6.1595e-07
0.000106362
6.36528e-07
0.000106397
6.55898e-07
0.000106435
6.73802e-07
0.000106475
6.90002e-07
0.000106517
7.04299e-07
7.16532e-07
0.000106561
0.000108895
1.80405e-08
0.000108901
5.23676e-08
0.000108909
8.40135e-08
0.00010892
1.12933e-07
0.000108934
1.39319e-07
0.000108948
1.6351e-07
0.000108964
1.85883e-07
0.00010898
2.06817e-07
0.000108997
2.26671e-07
0.000109014
2.45777e-07
0.000109032
2.64422e-07
0.00010905
2.82849e-07
0.000109068
3.0126e-07
0.000109086
3.19814e-07
0.000109104
3.38634e-07
0.000109122
3.57806e-07
0.000109141
3.77382e-07
0.000109161
3.97379e-07
0.000109181
4.17783e-07
0.000109202
4.38548e-07
0.000109224
4.59593e-07
0.000109248
4.80808e-07
0.000109273
5.02051e-07
0.000109299
5.23153e-07
0.000109328
5.43921e-07
0.000109358
5.64144e-07
0.00010939
5.83595e-07
0.000109425
6.02049e-07
0.000109461
6.19281e-07
0.0001095
6.35085e-07
0.000109541
6.49277e-07
0.000109583
6.61709e-07
6.72256e-07
0.000109628
0.000112006
1.61508e-08
0.000112012
4.69078e-08
0.00011202
7.54243e-08
0.000112032
1.01737e-07
0.000112045
1.26032e-07
0.00011206
1.48586e-07
0.000112076
1.69708e-07
0.000112093
1.89701e-07
0.000112111
2.08859e-07
0.000112129
2.27444e-07
0.000112148
2.45688e-07
0.000112167
2.63784e-07
0.000112186
2.8189e-07
0.000112206
3.00128e-07
0.000112226
3.18587e-07
0.000112247
3.37324e-07
0.000112268
3.56366e-07
0.000112289
3.75709e-07
0.000112312
3.95322e-07
0.000112335
4.15144e-07
0.00011236
4.35086e-07
0.000112385
4.55036e-07
0.000112413
4.74857e-07
0.000112441
4.94389e-07
0.000112472
5.13458e-07
0.000112504
5.31879e-07
0.000112538
5.4946e-07
0.000112574
5.66011e-07
0.000112612
5.81351e-07
0.000112652
5.95316e-07
0.000112694
6.07766e-07
0.000112737
6.18588e-07
6.27692e-07
0.000112781
0.000115206
1.42446e-08
0.000115212
4.13925e-08
0.000115221
6.6714e-08
0.000115232
9.03189e-08
0.000115246
1.12392e-07
0.000115261
1.33163e-07
0.000115278
1.52875e-07
0.000115296
1.71768e-07
0.000115315
1.90067e-07
0.000115334
2.07974e-07
0.000115354
2.25664e-07
0.000115375
2.43282e-07
0.000115396
2.60942e-07
0.000115417
2.78731e-07
0.000115439
2.96704e-07
0.000115461
3.14894e-07
0.000115484
3.33302e-07
0.000115508
3.51907e-07
0.000115533
3.70663e-07
0.000115558
3.89499e-07
0.000115585
4.08323e-07
0.000115613
4.27022e-07
0.000115643
4.45465e-07
0.000115674
4.63508e-07
0.000115706
4.80995e-07
0.00011574
4.97764e-07
0.000115776
5.13654e-07
0.000115813
5.28507e-07
0.000115853
5.42178e-07
0.000115893
5.54538e-07
0.000115936
5.65479e-07
0.000115979
5.7492e-07
5.82794e-07
0.000116024
0.000118498
1.22932e-08
0.000118503
3.57402e-08
0.000118512
5.77627e-08
0.000118524
7.85376e-08
0.000118538
9.82508e-08
0.000118554
1.17091e-07
0.000118572
1.35242e-07
0.000118591
1.52882e-07
0.000118611
1.70173e-07
0.000118632
1.87256e-07
0.000118653
2.04252e-07
0.000118675
2.21258e-07
0.000118698
2.38346e-07
0.000118721
2.55567e-07
0.000118744
2.72947e-07
0.000118769
2.90491e-07
0.000118794
3.08183e-07
0.00011882
3.25984e-07
0.000118847
3.43836e-07
0.000118875
3.61663e-07
0.000118904
3.79369e-07
0.000118934
3.96846e-07
0.000118965
4.13972e-07
0.000118998
4.30615e-07
0.000119032
4.46637e-07
0.000119068
4.619e-07
0.000119106
4.76269e-07
0.000119145
4.89614e-07
0.000119185
5.01819e-07
0.000119227
5.12784e-07
0.00011927
5.22426e-07
0.000119314
5.30688e-07
5.37522e-07
0.000119359
0.000121883
1.02666e-08
0.000121889
2.98663e-08
0.000121899
4.84447e-08
0.000121911
6.62427e-08
0.000121926
8.34483e-08
0.000121942
1.0021e-07
0.000121961
1.16656e-07
0.000121981
1.32902e-07
0.000122002
1.49047e-07
0.000122024
1.65174e-07
0.000122047
1.8135e-07
0.000122071
1.97624e-07
0.000122095
2.14029e-07
0.00012212
2.3058e-07
0.000122146
2.47275e-07
0.000122172
2.64095e-07
0.000122199
2.81005e-07
0.000122227
2.97954e-07
0.000122256
3.14874e-07
0.000122286
3.31683e-07
0.000122317
3.48289e-07
0.00012235
3.64586e-07
0.000122383
3.80461e-07
0.000122418
3.95797e-07
0.000122454
4.10474e-07
0.000122492
4.24373e-07
0.000122531
4.37381e-07
0.000122571
4.49393e-07
0.000122612
4.60318e-07
0.000122655
4.70077e-07
0.000122699
4.78609e-07
0.000122744
4.85873e-07
4.91837e-07
0.000122789
0.000125366
8.13247e-09
0.000125372
2.36784e-08
0.000125382
3.86224e-08
0.000125395
5.32697e-08
0.00012541
6.78089e-08
0.000125428
8.23457e-08
0.000125448
9.69489e-08
0.000125469
1.1167e-07
0.000125492
1.26547e-07
0.000125515
1.41603e-07
0.00012554
1.56851e-07
0.000125565
1.72291e-07
0.000125591
1.87919e-07
0.000125618
2.03715e-07
0.000125646
2.1965e-07
0.000125674
2.35685e-07
0.000125703
2.51766e-07
0.000125733
2.67831e-07
0.000125764
2.83805e-07
0.000125796
2.99606e-07
0.00012583
3.15139e-07
0.000125864
3.30307e-07
0.000125899
3.45007e-07
0.000125936
3.59134e-07
0.000125974
3.72582e-07
0.000126013
3.85253e-07
0.000126053
3.97052e-07
0.000126095
4.07894e-07
0.000126137
4.17708e-07
0.000126181
4.26432e-07
0.000126226
4.34024e-07
0.000126271
4.40455e-07
4.45702e-07
0.000126317
0.000128947
5.85342e-09
0.000128954
1.70704e-08
0.000128964
2.8138e-08
0.000128978
3.94312e-08
0.000128995
5.11346e-08
0.000129014
6.33017e-08
0.000129035
7.59343e-08
0.000129058
8.9017e-08
0.000129082
1.02522e-07
0.000129107
1.1641e-07
0.000129133
1.30639e-07
0.00012916
1.45164e-07
0.000129188
1.59939e-07
0.000129217
1.74914e-07
0.000129247
1.90034e-07
0.000129277
2.05239e-07
0.000129308
2.20461e-07
0.000129341
2.35627e-07
0.000129374
2.50658e-07
0.000129408
2.65469e-07
0.000129443
2.79971e-07
0.000129479
2.9407e-07
0.000129517
3.07673e-07
0.000129555
3.20688e-07
0.000129595
3.33024e-07
0.000129635
3.44597e-07
0.000129677
3.55328e-07
0.00012972
3.65152e-07
0.000129763
3.74009e-07
0.000129808
3.81857e-07
0.000129853
3.88662e-07
0.000129899
3.94407e-07
3.9908e-07
0.000129946
0.000132632
3.38427e-09
0.000132639
9.91328e-09
0.00013265
1.6802e-08
0.000132665
2.45057e-08
0.000132683
3.31951e-08
0.000132703
4.28534e-08
0.000132726
5.34022e-08
0.00013275
6.47509e-08
0.000132776
7.68008e-08
0.000132803
8.94478e-08
0.000132831
1.02592e-07
0.00013286
1.16142e-07
0.00013289
1.30011e-07
0.000132921
1.44119e-07
0.000132952
1.58387e-07
0.000132985
1.72735e-07
0.000133018
1.87084e-07
0.000133052
2.01351e-07
0.000133088
2.15454e-07
0.000133124
2.29308e-07
0.000133161
2.42826e-07
0.000133199
2.55922e-07
0.000133238
2.68512e-07
0.000133278
2.80513e-07
0.00013332
2.91849e-07
0.000133362
3.02447e-07
0.000133405
3.12246e-07
0.000133449
3.21189e-07
0.000133494
3.29234e-07
0.000133539
3.36347e-07
0.000133585
3.42507e-07
0.000133632
3.47702e-07
3.51927e-07
0.000133679
0.000136421
6.66657e-10
0.000136429
2.04125e-09
0.000136441
4.37475e-09
0.000136458
8.22082e-09
0.000136477
1.37151e-08
0.000136499
2.0738e-08
0.000136523
2.91102e-08
0.00013655
3.86559e-08
0.000136577
4.91974e-08
0.000136606
6.05584e-08
0.000136636
7.25782e-08
0.000136667
8.51166e-08
0.000136699
9.805e-08
0.000136732
1.11267e-07
0.000136766
1.24665e-07
0.0001368
1.38148e-07
0.000136836
1.51625e-07
0.000136872
1.65008e-07
0.000136909
1.78211e-07
0.000136947
1.91148e-07
0.000136987
2.03739e-07
0.000137027
2.15903e-07
0.000137067
2.27563e-07
0.000137109
2.38649e-07
0.000137152
2.49092e-07
0.000137196
2.58835e-07
0.00013724
2.67824e-07
0.000137285
2.76018e-07
0.000137331
2.83382e-07
0.000137378
2.89893e-07
0.000137425
2.95535e-07
0.000137472
3.00305e-07
3.04202e-07
0.00013752
0.000140319
-2.37862e-09
0.000140328
-6.77051e-09
0.000140341
-9.46024e-09
0.000140359
-9.76966e-09
0.000140381
-7.64274e-09
0.000140405
-3.35824e-09
0.000140431
2.77533e-09
0.000140459
1.04841e-08
0.000140489
1.94994e-08
0.00014052
2.95635e-08
0.000140552
4.04509e-08
0.000140585
5.19722e-08
0.000140619
6.39655e-08
0.000140654
7.62903e-08
0.00014069
8.8822e-08
0.000140727
1.0145e-07
0.000140765
1.14074e-07
0.000140803
1.266e-07
0.000140842
1.3894e-07
0.000140882
1.51012e-07
0.000140923
1.62737e-07
0.000140965
1.74042e-07
0.000141008
1.84858e-07
0.000141051
1.95122e-07
0.000141096
2.04778e-07
0.000141141
2.13776e-07
0.000141187
2.22074e-07
0.000141233
2.29637e-07
0.00014128
2.36441e-07
0.000141327
2.42469e-07
0.000141375
2.4771e-07
0.000141423
2.52166e-07
2.55838e-07
0.000141472
0.000144328
-5.8662e-09
0.000144338
-1.68447e-08
0.000144354
-2.51401e-08
0.000144374
-2.992e-08
0.000144398
-3.13036e-08
0.000144424
-2.98188e-08
0.000144453
-2.59366e-08
0.000144483
-2.00459e-08
0.000144515
-1.25256e-08
0.000144549
-3.72773e-09
0.000144583
6.05428e-09
0.000144618
1.65821e-08
0.000144655
2.76573e-08
0.000144692
3.9111e-08
0.00014473
5.08e-08
0.000144769
6.26001e-08
0.000144808
7.44032e-08
0.000144849
8.61115e-08
0.00014489
9.76374e-08
0.000144932
1.089e-07
0.000144975
1.19826e-07
0.000145019
1.30348e-07
0.000145063
1.40405e-07
0.000145109
1.49941e-07
0.000145154
1.58909e-07
0.000145201
1.67268e-07
0.000145248
1.74983e-07
0.000145296
1.82028e-07
0.000145344
1.88384e-07
0.000145392
1.94039e-07
0.000145441
1.98991e-07
0.00014549
2.03241e-07
2.06795e-07
0.000145539
0.000148452
-9.97176e-09
0.000148464
-2.86744e-08
0.000148482
-4.32926e-08
0.000148505
-5.28313e-08
0.000148531
-5.78051e-08
0.000148561
-5.91265e-08
0.000148592
-5.74469e-08
0.000148626
-5.32848e-08
0.00014866
-4.71596e-08
0.000148696
-3.95362e-08
0.000148733
-3.07804e-08
0.000148771
-2.11787e-08
0.000148809
-1.09653e-08
0.000148849
-3.34094e-10
0.000148889
1.05552e-08
0.00014893
2.15692e-08
0.000148972
3.25944e-08
0.000149014
4.35322e-08
0.000149058
5.42958e-08
0.000149102
6.48087e-08
0.000149147
7.50022e-08
0.000149192
8.48152e-08
0.000149238
9.41937e-08
0.000149285
1.0309e-07
0.000149333
1.11464e-07
0.000149381
1.19281e-07
0.000149429
1.26515e-07
0.000149478
1.33144e-07
0.000149527
1.39154e-07
0.000149577
1.44538e-07
0.000149626
1.49294e-07
0.000149676
1.53426e-07
1.56937e-07
0.000149726
0.000152694
-1.49772e-08
0.000152709
-4.30587e-08
0.00015273
-6.48768e-08
0.000152757
-7.93288e-08
0.000152787
-8.78084e-08
0.000152819
-9.18215e-08
0.000152854
-9.21979e-08
0.00015289
-8.96022e-08
0.000152928
-8.47251e-08
0.000152967
-7.81507e-08
0.000153006
-7.03121e-08
0.000153046
-6.15409e-08
0.000153088
-5.21058e-08
0.000153129
-4.22233e-08
0.000153172
-3.20662e-08
0.000153215
-2.17745e-08
0.000153259
-1.14643e-08
0.000153304
-1.23325e-09
0.00015335
8.83515e-09
0.000153396
1.8669e-08
0.000153443
2.82058e-08
0.00015349
3.73912e-08
0.000153538
4.61782e-08
0.000153587
5.45264e-08
0.000153636
6.2402e-08
0.000153685
6.97775e-08
0.000153735
7.66313e-08
0.000153785
8.29479e-08
0.000153836
8.87176e-08
0.000153886
9.39365e-08
0.000153937
9.86061e-08
0.000153988
1.02734e-07
1.06327e-07
0.000154038
0.000157058
-2.14024e-08
0.000157076
-6.12995e-08
0.000157103
-9.13159e-08
0.000157134
-1.10663e-07
0.000157169
-1.22433e-07
0.000157206
-1.28835e-07
0.000157244
-1.30869e-07
0.000157284
-1.29456e-07
0.000157325
-1.25529e-07
0.000157367
-1.19787e-07
0.000157409
-1.12708e-07
0.000157452
-1.04652e-07
0.000157496
-9.59107e-08
0.00015754
-8.67104e-08
0.000157585
-7.7227e-08
0.000157631
-6.76004e-08
0.000157678
-5.79437e-08
0.000157725
-4.83512e-08
0.000157773
-3.89009e-08
0.000157821
-2.96593e-08
0.00015787
-2.06824e-08
0.000157919
-1.20189e-08
0.000157969
-3.7091e-09
0.000158019
4.21196e-09
0.00015807
1.17163e-08
0.000158121
1.87808e-08
0.000158172
2.53882e-08
0.000158224
3.1526e-08
0.000158275
3.71864e-08
0.000158327
4.23654e-08
0.000158378
4.70629e-08
0.00015843
5.12811e-08
5.50248e-08
0.000158481
0.000161547
-3.04694e-08
0.000161572
-8.60485e-08
0.000161605
-1.24301e-07
0.000161642
-1.47786e-07
0.000161683
-1.62731e-07
0.000161725
-1.71466e-07
0.000161769
-1.74899e-07
0.000161814
-1.74342e-07
0.00016186
-1.71048e-07
0.000161906
-1.65827e-07
0.000161952
-1.59203e-07
0.000161999
-1.51572e-07
0.000162047
-1.43247e-07
0.000162094
-1.34463e-07
0.000162142
-1.25394e-07
0.000162191
-1.16176e-07
0.00016224
-1.06919e-07
0.000162289
-9.77109e-08
0.000162339
-8.86236e-08
0.000162389
-7.97175e-08
0.000162439
-7.10435e-08
0.00016249
-6.26441e-08
0.000162541
-5.45556e-08
0.000162592
-4.68074e-08
0.000162643
-3.94243e-08
0.000162694
-3.24249e-08
0.000162746
-2.5824e-08
0.000162797
-1.9631e-08
0.000162848
-1.38514e-08
0.000162899
-8.48558e-09
0.000162949
-3.5302e-09
0.000162999
1.02511e-09
5.18334e-09
0.000163049
0.000166167
-4.34327e-08
0.000166205
-1.24858e-07
0.000166251
-1.69908e-07
0.000166298
-1.95129e-07
0.000166348
-2.11983e-07
0.000166398
-2.2204e-07
0.000166449
-2.26056e-07
0.000166501
-2.25782e-07
0.000166552
-2.22629e-07
0.000166604
-2.1739e-07
0.000166655
-2.10592e-07
0.000166706
-2.02673e-07
0.000166757
-1.93983e-07
0.000166807
-1.84782e-07
0.000166857
-1.75265e-07
0.000166907
-1.65586e-07
0.000166956
-1.55868e-07
0.000167004
-1.46207e-07
0.000167052
-1.3668e-07
0.0001671
-1.27351e-07
0.000167147
-1.18269e-07
0.000167194
-1.09474e-07
0.00016724
-1.01e-07
0.000167286
-9.28711e-08
0.000167332
-8.51075e-08
0.000167377
-7.77235e-08
0.000167422
-7.0729e-08
0.000167467
-6.41301e-08
0.000167511
-5.79298e-08
0.000167555
-5.21291e-08
0.000167598
-4.67277e-08
0.00016764
-4.17268e-08