/*--------------------------------*- C++ -*----------------------------------*\
| =========                 |                                                 |
| \\      /  F ield         | OpenFOAM: The Open Source CFD Toolbox           |
|  \\    /   O peration     | Version:  4.1                                   |
|   \\  /    A nd           | Web:      www.OpenFOAM.org                      |
|    \\/     M anipulation  |                                                 |
\*---------------------------------------------------------------------------*/
FoamFile
{
    version     2.0;
    format      ascii;
    class       volVectorField;
    location    "200";
    object      U;
}
// * * * * * * * * * * * * * * * * * * * * * * * * * * * * * * * * * * * * * //

dimensions      [0 1 -1 0 0 0 0];

internalField   nonuniform List<vector> 
6820
(
(7.30076 0.0105818 0)
(7.26062 0.0145501 0)
(7.2271 0.0116283 0)
(7.19801 0.00891475 0)
(7.17401 0.00732613 0)
(7.1533 0.00637884 0)
(7.13446 0.00578155 0)
(7.11702 0.00538767 0)
(7.10079 0.00510448 0)
(7.08555 0.00488372 0)
(7.07114 0.00470616 0)
(7.05743 0.004564 0)
(7.04432 0.00445277 0)
(7.03169 0.00436965 0)
(7.01948 0.00431314 0)
(7.0076 0.00428286 0)
(6.99596 0.00427953 0)
(6.9845 0.00430498 0)
(6.97313 0.00436249 0)
(6.96177 0.00445713 0)
(6.95031 0.00459652 0)
(6.93864 0.00479198 0)
(6.92661 0.00506063 0)
(6.91403 0.00542921 0)
(6.90066 0.00594124 0)
(6.88609 0.00667244 0)
(6.86978 0.0077624 0)
(6.85058 0.00949066 0)
(6.82726 0.0124914 0)
(6.7934 0.0181521 0)
(6.75218 0.0298625 0)
(6.63225 0.071769 0)
(6.61517 -0.0272179 0)
(7.3396 0.0129542 0)
(7.34152 0.016837 0)
(7.32727 0.0138648 0)
(7.30705 0.0120264 0)
(7.28738 0.0109988 0)
(7.26913 0.0101579 0)
(7.25198 0.00949206 0)
(7.23586 0.00899027 0)
(7.22072 0.00859535 0)
(7.2064 0.00827466 0)
(7.19279 0.00801601 0)
(7.17977 0.00781162 0)
(7.16728 0.00765529 0)
(7.15523 0.00754319 0)
(7.14357 0.00747369 0)
(7.13221 0.00744691 0)
(7.12111 0.00746467 0)
(7.1102 0.00753067 0)
(7.09942 0.00765098 0)
(7.08869 0.00783468 0)
(7.07794 0.00809505 0)
(7.06709 0.0084516 0)
(7.05604 0.00893343 0)
(7.04466 0.00958519 0)
(7.0328 0.0104789 0)
(7.02025 0.0117339 0)
(7.00678 0.0135737 0)
(6.99194 0.0163877 0)
(6.97579 0.0211685 0)
(6.95658 0.0292796 0)
(6.94001 0.0475497 0)
(6.92059 0.0796641 0)
(6.95969 0.174413 0)
(7.33613 0.0108833 0)
(7.3446 0.0173473 0)
(7.34573 0.0179153 0)
(7.34001 0.0179425 0)
(7.33128 0.0175074 0)
(7.32121 0.0167082 0)
(7.31038 0.0159186 0)
(7.29927 0.0152618 0)
(7.28821 0.0147189 0)
(7.2773 0.0142688 0)
(7.26658 0.0139022 0)
(7.25607 0.0136111 0)
(7.24576 0.0133892 0)
(7.23563 0.0132332 0)
(7.22567 0.0131427 0)
(7.21584 0.0131192 0)
(7.2061 0.0131668 0)
(7.19642 0.0132922 0)
(7.18674 0.0135057 0)
(7.17702 0.013822 0)
(7.16719 0.0142621 0)
(7.15718 0.0148561 0)
(7.14689 0.0156476 0)
(7.1362 0.0167017 0)
(7.12499 0.0181187 0)
(7.11306 0.0200559 0)
(7.10021 0.0227868 0)
(7.08609 0.0267381 0)
(7.07069 0.0328608 0)
(7.05336 0.0422559 0)
(7.03712 0.0590476 0)
(7.02176 0.0842681 0)
(7.03214 0.132281 0)
(7.33465 0.00789506 0)
(7.34189 0.0151455 0)
(7.34706 0.0175043 0)
(7.34816 0.0187742 0)
(7.34666 0.0193323 0)
(7.34341 0.0192943 0)
(7.3387 0.0190186 0)
(7.33294 0.0186929 0)
(7.32652 0.0183655 0)
(7.31968 0.0180609 0)
(7.31255 0.0177991 0)
(7.30522 0.0175906 0)
(7.29775 0.017441 0)
(7.29019 0.0173549 0)
(7.28254 0.0173378 0)
(7.27482 0.0173966 0)
(7.26701 0.01754 0)
(7.2591 0.0177795 0)
(7.25106 0.0181308 0)
(7.24286 0.0186149 0)
(7.23445 0.0192607 0)
(7.22578 0.0201081 0)
(7.21678 0.0212139 0)
(7.20735 0.0226597 0)
(7.1974 0.0245673 0)
(7.18678 0.027119 0)
(7.17537 0.0306089 0)
(7.16302 0.0354681 0)
(7.14982 0.0425003 0)
(7.1358 0.0525603 0)
(7.12288 0.0679313 0)
(7.11204 0.0880526 0)
(7.11323 0.117963 0)
(7.334 0.00604014 0)
(7.33936 0.013092 0)
(7.34464 0.0161055 0)
(7.3478 0.0179612 0)
(7.34944 0.0191989 0)
(7.34989 0.0198334 0)
(7.34913 0.0201171 0)
(7.3473 0.0202388 0)
(7.34463 0.0202716 0)
(7.34131 0.0202591 0)
(7.33745 0.0202384 0)
(7.33316 0.0202351 0)
(7.32851 0.0202665 0)
(7.32355 0.0203467 0)
(7.31833 0.0204887 0)
(7.31286 0.0207057 0)
(7.30715 0.0210123 0)
(7.30122 0.0214258 0)
(7.29504 0.0219677 0)
(7.2886 0.0226654 0)
(7.28187 0.0235551 0)
(7.27481 0.0246853 0)
(7.26738 0.0261227 0)
(7.25952 0.0279602 0)
(7.25116 0.0303304 0)
(7.24223 0.0334232 0)
(7.2327 0.0375218 0)
(7.22254 0.0430149 0)
(7.21199 0.0505167 0)
(7.20138 0.0606311 0)
(7.1921 0.0745175 0)
(7.18545 0.0915797 0)
(7.18563 0.113287 0)
(7.33365 0.00480045 0)
(7.33756 0.011315 0)
(7.34209 0.0146232 0)
(7.34553 0.0167703 0)
(7.34807 0.0183583 0)
(7.34996 0.0193992 0)
(7.35108 0.0200766 0)
(7.35142 0.0205613 0)
(7.35108 0.0209262 0)
(7.35013 0.0212139 0)
(7.34864 0.0214634 0)
(7.34668 0.0217053 0)
(7.34428 0.021963 0)
(7.3415 0.0222558 0)
(7.33837 0.0226023 0)
(7.3349 0.0230207 0)
(7.33112 0.0235307 0)
(7.32703 0.0241544 0)
(7.32262 0.0249184 0)
(7.3179 0.0258556 0)
(7.31284 0.0270079 0)
(7.30742 0.0284298 0)
(7.30162 0.0301939 0)
(7.2954 0.032398 0)
(7.28874 0.0351754 0)
(7.28162 0.0387075 0)
(7.27408 0.0432445 0)
(7.2662 0.0491058 0)
(7.25827 0.0567241 0)
(7.25074 0.0664785 0)
(7.24462 0.0788752 0)
(7.24106 0.0933865 0)
(7.24193 0.109901 0)
(7.33343 0.0039111 0)
(7.33632 0.00982149 0)
(7.34007 0.013258 0)
(7.34326 0.0155576 0)
(7.34587 0.0173139 0)
(7.34811 0.0185822 0)
(7.3499 0.0195044 0)
(7.35117 0.0202324 0)
(7.35196 0.0208388 0)
(7.3523 0.0213634 0)
(7.35222 0.0218424 0)
(7.35172 0.0223062 0)
(7.35083 0.0227794 0)
(7.34958 0.0232831 0)
(7.34798 0.0238382 0)
(7.34604 0.0244658 0)
(7.34377 0.0251884 0)
(7.34117 0.0260316 0)
(7.33825 0.0270254 0)
(7.33499 0.0282063 0)
(7.33139 0.0296196 0)
(7.32743 0.0313231 0)
(7.32312 0.0333908 0)
(7.31844 0.0359192 0)
(7.31339 0.0390339 0)
(7.308 0.0428965 0)
(7.30236 0.0477134 0)
(7.2966 0.0537268 0)
(7.29102 0.0612176 0)
(7.28608 0.0703887 0)
(7.28252 0.0813857 0)
(7.28116 0.0937393 0)
(7.28291 0.106887 0)
(7.3333 0.00325989 0)
(7.33545 0.0085869 0)
(7.33854 0.0120347 0)
(7.34138 0.0144158 0)
(7.34383 0.0162618 0)
(7.34603 0.0176667 0)
(7.34794 0.0187448 0)
(7.3495 0.0196305 0)
(7.35073 0.0203988 0)
(7.35164 0.0210905 0)
(7.35224 0.0217401 0)
(7.35252 0.0223774 0)
(7.3525 0.0230271 0)
(7.35217 0.0237107 0)
(7.35154 0.0244498 0)
(7.35061 0.0252667 0)
(7.34938 0.0261855 0)
(7.34785 0.0272332 0)
(7.34601 0.0284417 0)
(7.34388 0.0298491 0)
(7.34143 0.0315019 0)
(7.33866 0.0334577 0)
(7.33559 0.0357886 0)
(7.33221 0.0385844 0)
(7.32856 0.0419569 0)
(7.32469 0.0460419 0)
(7.3207 0.0509991 0)
(7.31677 0.0569986 0)
(7.31318 0.0642049 0)
(7.31031 0.0726973 0)
(7.3087 0.0824405 0)
(7.30893 0.0930302 0)
(7.31142 0.10388 0)
(7.33321 0.00277492 0)
(7.33485 0.00756773 0)
(7.33738 0.0109457 0)
(7.33989 0.0133642 0)
(7.34213 0.0152627 0)
(7.34418 0.0167578 0)
(7.34603 0.0179447 0)
(7.34762 0.0189408 0)
(7.34897 0.0198223 0)
(7.35008 0.0206325 0)
(7.35095 0.0214061 0)
(7.35158 0.0221731 0)
(7.35198 0.0229587 0)
(7.35214 0.0237851 0)
(7.35205 0.0246743 0)
(7.35172 0.0256492 0)
(7.35113 0.0267346 0)
(7.3503 0.0279581 0)
(7.3492 0.029352 0)
(7.34785 0.0309545 0)
(7.34623 0.0328111 0)
(7.34436 0.0349768 0)
(7.34224 0.0375185 0)
(7.3399 0.040516 0)
(7.33738 0.0440639 0)
(7.33475 0.0482698 0)
(7.33213 0.0532498 0)
(7.32969 0.059113 0)
(7.32766 0.0659407 0)
(7.32638 0.0737329 0)
(7.32622 0.0823746 0)
(7.32755 0.0915261 0)
(7.33058 0.100694 0)
(7.33315 0.00240527 0)
(7.33442 0.0067226 0)
(7.33651 0.00997897 0)
(7.33871 0.0124002 0)
(7.34075 0.0143271 0)
(7.34264 0.0158838 0)
(7.34437 0.0171527 0)
(7.34592 0.0182345 0)
(7.34726 0.0192032 0)
(7.34841 0.0201045 0)
(7.34937 0.0209734 0)
(7.35014 0.0218406 0)
(7.35073 0.0227322 0)
(7.35112 0.0236714 0)
(7.35131 0.0246807 0)
(7.3513 0.0257836 0)
(7.35109 0.0270049 0)
(7.35068 0.0283727 0)
(7.35005 0.0299185 0)
(7.34922 0.0316794 0)
(7.34818 0.0336985 0)
(7.34695 0.0360264 0)
(7.34555 0.0387225 0)
(7.34399 0.0418548 0)
(7.34235 0.0454993 0)
(7.3407 0.0497368 0)
(7.33914 0.0546454 0)
(7.33785 0.0602865 0)
(7.33701 0.0666849 0)
(7.33689 0.0737951 0)
(7.33774 0.0814754 0)
(7.33981 0.0894459 0)
(7.34319 0.0973219 0)
(7.33312 0.00211637 0)
(7.33412 0.00601714 0)
(7.33585 0.00912149 0)
(7.33778 0.0115162 0)
(7.33962 0.0134523 0)
(7.34136 0.0150498 0)
(7.34298 0.0163818 0)
(7.34445 0.0175335 0)
(7.34576 0.0185747 0)
(7.3469 0.0195515 0)
(7.34788 0.0204993 0)
(7.34871 0.0214492 0)
(7.34937 0.0224278 0)
(7.34987 0.0234593 0)
(7.35021 0.0245667 0)
(7.35039 0.0257737 0)
(7.3504 0.0271054 0)
(7.35024 0.0285892 0)
(7.34992 0.0302557 0)
(7.34944 0.0321397 0)
(7.34881 0.034281 0)
(7.34804 0.0367247 0)
(7.34716 0.0395214 0)
(7.34621 0.0427266 0)
(7.34523 0.0463986 0)
(7.34433 0.0505939 0)
(7.34359 0.0553599 0)
(7.34315 0.0607228 0)
(7.34319 0.0666718 0)
(7.34389 0.0731384 0)
(7.34542 0.0799809 0)
(7.34795 0.0869722 0)
(7.3515 0.0938209 0)
(7.33309 0.00188493 0)
(7.33389 0.00542309 0)
(7.33534 0.00836021 0)
(7.33703 0.0107047 0)
(7.3387 0.0126334 0)
(7.3403 0.0142543 0)
(7.34182 0.0156333 0)
(7.34322 0.0168424 0)
(7.34448 0.0179451 0)
(7.3456 0.0189869 0)
(7.34659 0.0200031 0)
(7.34743 0.0210243 0)
(7.34814 0.0220777 0)
(7.34871 0.0231876 0)
(7.34914 0.0243775 0)
(7.34944 0.025671 0)
(7.3496 0.0270928 0)
(7.34962 0.0286694 0)
(7.34952 0.0304297 0)
(7.34929 0.032406 0)
(7.34896 0.0346336 0)
(7.34854 0.0371514 0)
(7.34807 0.0400013 0)
(7.34757 0.0432264 0)
(7.34712 0.046869 0)
(7.34679 0.0509653 0)
(7.34667 0.0555389 0)
(7.34687 0.0605916 0)
(7.34754 0.0660917 0)
(7.3488 0.0719626 0)
(7.35078 0.0780745 0)
(7.35357 0.0842452 0)
(7.35717 0.0902559 0)
(7.33307 0.00169511 0)
(7.33373 0.00491749 0)
(7.33495 0.0076824 0)
(7.33643 0.0099585 0)
(7.33795 0.0118651 0)
(7.33943 0.0134945 0)
(7.34085 0.0149059 0)
(7.34219 0.0161603 0)
(7.34341 0.0173146 0)
(7.34451 0.0184124 0)
(7.3455 0.0194882 0)
(7.34636 0.020572 0)
(7.3471 0.0216906 0)
(7.34773 0.0228683 0)
(7.34823 0.0241286 0)
(7.34862 0.0254944 0)
(7.3489 0.0269898 0)
(7.34907 0.0286398 0)
(7.34915 0.0304713 0)
(7.34913 0.0325131 0)
(7.34905 0.034796 0)
(7.34892 0.0373525 0)
(7.34877 0.0402157 0)
(7.34865 0.0434178 0)
(7.34862 0.0469868 0)
(7.34874 0.0509429 0)
(7.34909 0.0552925 0)
(7.34978 0.0600212 0)
(7.3509 0.065087 0)
(7.35255 0.0704133 0)
(7.35481 0.0758871 0)
(7.35773 0.0813631 0)
(7.36131 0.0866768 0)
(7.33306 0.00153593 0)
(7.3336 0.00448188 0)
(7.33464 0.00707598 0)
(7.33595 0.00927023 0)
(7.33733 0.0111419 0)
(7.3387 0.0127666 0)
(7.34005 0.0141969 0)
(7.34132 0.015485 0)
(7.34251 0.016681 0)
(7.3436 0.0178259 0)
(7.34458 0.0189528 0)
(7.34547 0.0200907 0)
(7.34625 0.0212657 0)
(7.34693 0.0225017 0)
(7.34751 0.0238214 0)
(7.34799 0.0252471 0)
(7.34838 0.0268014 0)
(7.34869 0.0285077 0)
(7.34892 0.0303902 0)
(7.34909 0.0324742 0)
(7.34923 0.0347858 0)
(7.34935 0.037351 0)
(7.34949 0.040195 0)
(7.34969 0.04334 0)
(7.35001 0.0468027 0)
(7.35049 0.050591 0)
(7.35123 0.054699 0)
(7.35228 0.0591031 0)
(7.35373 0.0637572 0)
(7.35564 0.0685899 0)
(7.35808 0.0735051 0)
(7.36106 0.0783875 0)
(7.36457 0.083113 0)
(7.33305 0.00139964 0)
(7.33351 0.00410156 0)
(7.33441 0.00652981 0)
(7.33557 0.00863276 0)
(7.33682 0.0104583 0)
(7.3381 0.0120666 0)
(7.33937 0.0135036 0)
(7.3406 0.0148139 0)
(7.34176 0.0160415 0)
(7.34283 0.0172243 0)
(7.34383 0.0183935 0)
(7.34474 0.0195769 0)
(7.34556 0.0207993 0)
(7.3463 0.0220839 0)
(7.34695 0.0234522 0)
(7.34753 0.0249256 0)
(7.34803 0.026525 0)
(7.34847 0.0282716 0)
(7.34886 0.0301868 0)
(7.34921 0.0322923 0)
(7.34955 0.0346092 0)
(7.34991 0.0371577 0)
(7.3503 0.0399559 0)
(7.35078 0.0430177 0)
(7.35139 0.0463508 0)
(7.35219 0.0499538 0)
(7.35323 0.0538133 0)
(7.35456 0.0579008 0)
(7.35626 0.0621701 0)
(7.35836 0.0665574 0)
(7.36091 0.0709821 0)
(7.3639 0.0753532 0)
(7.36733 0.0795759 0)
(7.33304 0.00128067 0)
(7.33344 0.0037648 0)
(7.33422 0.00603371 0)
(7.33526 0.00803898 0)
(7.33641 0.009809 0)
(7.33761 0.0113903 0)
(7.33881 0.0128226 0)
(7.34 0.0141441 0)
(7.34113 0.0153932 0)
(7.34221 0.0166043 0)
(7.34322 0.0178066 0)
(7.34416 0.0190262 0)
(7.34502 0.0202866 0)
(7.34582 0.0216097 0)
(7.34655 0.0230159 0)
(7.34722 0.0245248 0)
(7.34784 0.0261556 0)
(7.34841 0.0279272 0)
(7.34895 0.0298581 0)
(7.34948 0.031966 0)
(7.35001 0.0342678 0)
(7.35058 0.0367783 0)
(7.35121 0.0395093 0)
(7.35194 0.042468 0)
(7.35281 0.0456553 0)
(7.35386 0.0490636 0)
(7.35515 0.0526748 0)
(7.35671 0.0564585 0)
(7.3586 0.0603715 0)
(7.36084 0.0643575 0)
(7.36345 0.0683501 0)
(7.36644 0.0722769 0)
(7.36978 0.0760653 0)
(7.33304 0.00117486 0)
(7.33339 0.00346216 0)
(7.33408 0.00557856 0)
(7.33502 0.00748192 0)
(7.33608 0.00918826 0)
(7.33721 0.0107331 0)
(7.33836 0.0121501 0)
(7.3395 0.0134721 0)
(7.34062 0.0147326 0)
(7.3417 0.0159622 0)
(7.34273 0.0171881 0)
(7.3437 0.0184344 0)
(7.34462 0.019723 0)
(7.34548 0.0210742 0)
(7.34629 0.022507 0)
(7.34706 0.0240393 0)
(7.34779 0.0256882 0)
(7.34849 0.0274701 0)
(7.34918 0.0294005 0)
(7.34987 0.0314937 0)
(7.35059 0.0337625 0)
(7.35135 0.0362169 0)
(7.35219 0.0388635 0)
(7.35315 0.0417045 0)
(7.35424 0.0447356 0)
(7.35552 0.0479452 0)
(7.35701 0.051313 0)
(7.35876 0.0548088 0)
(7.36079 0.0583931 0)
(7.36313 0.0620176 0)
(7.36578 0.0656274 0)
(7.36875 0.0691654 0)
(7.37201 0.0725748 0)
(7.33303 0.00107907 0)
(7.33334 0.003186 0)
(7.33396 0.00515618 0)
(7.33482 0.00695479 0)
(7.33581 0.00859046 0)
(7.33688 0.0100901 0)
(7.33799 0.011482 0)
(7.33911 0.0127943 0)
(7.34021 0.0140561 0)
(7.3413 0.0152945 0)
(7.34235 0.0165342 0)
(7.34336 0.0177973 0)
(7.34433 0.0191039 0)
(7.34525 0.0204727 0)
(7.34615 0.0219208 0)
(7.34701 0.0234643 0)
(7.34785 0.0251181 0)
(7.34868 0.0268963 0)
(7.34951 0.0288115 0)
(7.35037 0.0308746 0)
(7.35125 0.0330947 0)
(7.3522 0.035478 0)
(7.35324 0.0380269 0)
(7.35439 0.0407396 0)
(7.35568 0.0436084 0)
(7.35714 0.0466194 0)
(7.35881 0.0497515 0)
(7.36071 0.0529762 0)
(7.36285 0.0562581 0)
(7.36526 0.0595562 0)
(7.36794 0.0628254 0)
(7.37088 0.0660201 0)
(7.37406 0.069096 0)
(7.33303 0.000990813 0)
(7.33331 0.00293001 0)
(7.33388 0.00475927 0)
(7.33467 0.00645103 0)
(7.3356 0.00800989 0)
(7.33662 0.00945635 0)
(7.33769 0.0108139 0)
(7.33879 0.0121067 0)
(7.3399 0.0133598 0)
(7.34099 0.0145971 0)
(7.34207 0.0158408 0)
(7.34312 0.0171106 0)
(7.34414 0.018425 0)
(7.34514 0.0198006 0)
(7.34611 0.0212527 0)
(7.34707 0.0227956 0)
(7.34802 0.0244419 0)
(7.34898 0.0262032 0)
(7.34995 0.0280894 0)
(7.35095 0.0301087 0)
(7.352 0.0322668 0)
(7.35311 0.0345667 0)
(7.35432 0.0370076 0)
(7.35565 0.0395848 0)
(7.35711 0.0422886 0)
(7.35873 0.0451038 0)
(7.36054 0.0480097 0)
(7.36256 0.0509802 0)
(7.36479 0.0539841 0)
(7.36725 0.0569866 0)
(7.36994 0.059951 0)
(7.37285 0.0628406 0)
(7.37596 0.0656203 0)
(7.33303 0.00090809 0)
(7.33329 0.00268892 0)
(7.33381 0.00438127 0)
(7.33455 0.00596432 0)
(7.33544 0.00744079 0)
(7.33642 0.00882652 0)
(7.33747 0.010141 0)
(7.33855 0.0114048 0)
(7.33966 0.0126395 0)
(7.34077 0.013866 0)
(7.34187 0.0151037 0)
(7.34297 0.0163703 0)
(7.34405 0.0176821 0)
(7.34512 0.0190538 0)
(7.34617 0.020499 0)
(7.34723 0.0220296 0)
(7.34829 0.0236564 0)
(7.34936 0.0253886 0)
(7.35046 0.0272336 0)
(7.3516 0.029197 0)
(7.3528 0.0312819 0)
(7.35407 0.0334885 0)
(7.35543 0.0358139 0)
(7.35691 0.0382513 0)
(7.35852 0.0407897 0)
(7.36028 0.0434138 0)
(7.36221 0.0461041 0)
(7.36432 0.0488367 0)
(7.36662 0.0515847 0)
(7.36912 0.0543188 0)
(7.37181 0.0570088 0)
(7.37468 0.0596252 0)
(7.37773 0.0621402 0)
(7.33303 0.000829225 0)
(7.33327 0.0024582 0)
(7.33376 0.00401623 0)
(7.33446 0.00548856 0)
(7.33532 0.00687737 0)
(7.33627 0.00819521 0)
(7.3373 0.00945823 0)
(7.33838 0.010684 0)
(7.3395 0.0118909 0)
(7.34063 0.0130968 0)
(7.34177 0.0143187 0)
(7.34291 0.0155721 0)
(7.34404 0.0168711 0)
(7.34518 0.0182286 0)
(7.34632 0.0196561 0)
(7.34747 0.0211635 0)
(7.34863 0.0227596 0)
(7.34982 0.0244515 0)
(7.35104 0.0262443 0)
(7.35231 0.0281414 0)
(7.35364 0.0301437 0)
(7.35505 0.0322495 0)
(7.35655 0.0344541 0)
(7.35816 0.0367494 0)
(7.3599 0.039124 0)
(7.36177 0.0415631 0)
(7.3638 0.0440484 0)
(7.36599 0.0465587 0)
(7.36834 0.0490709 0)
(7.37086 0.0515603 0)
(7.37355 0.0540021 0)
(7.37639 0.0563726 0)
(7.37937 0.0586491 0)
(7.33303 0.000752771 0)
(7.33326 0.00223384 0)
(7.33373 0.00365869 0)
(7.3344 0.00501784 0)
(7.33523 0.00631379 0)
(7.33617 0.00755681 0)
(7.33719 0.00876035 0)
(7.33827 0.00993927 0)
(7.3394 0.011109 0)
(7.34056 0.012285 0)
(7.34173 0.0134815 0)
(7.34292 0.0147118 0)
(7.34412 0.0159882 0)
(7.34533 0.0173214 0)
(7.34655 0.0187208 0)
(7.34779 0.0201947 0)
(7.34905 0.0217498 0)
(7.35034 0.0233912 0)
(7.35168 0.0251222 0)
(7.35307 0.0269443 0)
(7.35452 0.0288565 0)
(7.35605 0.0308557 0)
(7.35768 0.032936 0)
(7.35941 0.0350888 0)
(7.36125 0.0373026 0)
(7.36322 0.0395633 0)
(7.36533 0.0418544 0)
(7.36758 0.0441571 0)
(7.36997 0.0464516 0)
(7.3725 0.0487172 0)
(7.37518 0.0509334 0)
(7.37799 0.053081 0)
(7.38091 0.0551417 0)
(7.33302 0.00067744 0)
(7.33325 0.00201225 0)
(7.3337 0.00330348 0)
(7.33436 0.00454636 0)
(7.33517 0.00574413 0)
(7.3361 0.0069055 0)
(7.33713 0.00804173 0)
(7.33822 0.00916527 0)
(7.33937 0.010289 0)
(7.34056 0.0114257 0)
(7.34177 0.0125875 0)
(7.34301 0.0137855 0)
(7.34427 0.0150296 0)
(7.34555 0.0163287 0)
(7.34685 0.0176905 0)
(7.34817 0.0191213 0)
(7.34953 0.020626 0)
(7.35092 0.0222079 0)
(7.35236 0.0238687 0)
(7.35386 0.0256083 0)
(7.35543 0.0274246 0)
(7.35707 0.0293131 0)
(7.3588 0.0312673 0)
(7.36063 0.0332784 0)
(7.36257 0.0353352 0)
(7.36462 0.0374248 0)
(7.36679 0.039532 0)
(7.36909 0.0416407 0)
(7.37151 0.0437338 0)
(7.37405 0.0457939 0)
(7.37671 0.0478042 0)
(7.37948 0.0497491 0)
(7.38235 0.0516133 0)
(7.33302 0.000602037 0)
(7.33324 0.00179003 0)
(7.33369 0.00294567 0)
(7.33434 0.00406835 0)
(7.33515 0.00516231 0)
(7.33608 0.00623522 0)
(7.33711 0.00729649 0)
(7.33822 0.0083564 0)
(7.33939 0.00942552 0)
(7.34062 0.0105142 0)
(7.34187 0.0116323 0)
(7.34316 0.0127887 0)
(7.34448 0.0139915 0)
(7.34583 0.0152475 0)
(7.34721 0.0165626 0)
(7.34862 0.0179415 0)
(7.35006 0.0193872 0)
(7.35155 0.0209018 0)
(7.35309 0.0224854 0)
(7.35469 0.0241366 0)
(7.35636 0.0258522 0)
(7.3581 0.0276273 0)
(7.35992 0.0294548 0)
(7.36184 0.0313261 0)
(7.36385 0.0332305 0)
(7.36597 0.0351562 0)
(7.36819 0.0370897 0)
(7.37053 0.0390169 0)
(7.37297 0.0409233 0)
(7.37551 0.0427943 0)
(7.37816 0.0446159 0)
(7.38089 0.0463754 0)
(7.38371 0.0480603 0)
(7.33302 0.00052541 0)
(7.33324 0.0015639 0)
(7.33369 0.00258035 0)
(7.33434 0.00357795 0)
(7.33515 0.00456206 0)
(7.33609 0.00553959 0)
(7.33714 0.00651837 0)
(7.33827 0.0075067 0)
(7.33948 0.00851295 0)
(7.34074 0.00954523 0)
(7.34204 0.0106111 0)
(7.34339 0.0117174 0)
(7.34477 0.0128703 0)
(7.34618 0.0140748 0)
(7.34763 0.015335 0)
(7.34912 0.0166539 0)
(7.35065 0.0180332 0)
(7.35223 0.0194736 0)
(7.35386 0.020974 0)
(7.35555 0.022532 0)
(7.35731 0.0241438 0)
(7.35913 0.0258038 0)
(7.36104 0.0275051 0)
(7.36303 0.0292391 0)
(7.36511 0.0309961 0)
(7.36728 0.0327651 0)
(7.36955 0.0345344 0)
(7.37191 0.0362918 0)
(7.37436 0.0380247 0)
(7.3769 0.0397211 0)
(7.37952 0.0413692 0)
(7.38223 0.0429587 0)
(7.385 0.0444791 0)
(7.33302 0.000446393 0)
(7.33324 0.00133051 0)
(7.3337 0.00220247 0)
(7.33436 0.00306903 0)
(7.33518 0.00393672 0)
(7.33614 0.00481182 0)
(7.33721 0.00570071 0)
(7.33837 0.00660979 0)
(7.33961 0.00754534 0)
(7.34092 0.00851325 0)
(7.34227 0.00951896 0)
(7.34367 0.0105673 0)
(7.34511 0.0116623 0)
(7.3466 0.0128075 0)
(7.34812 0.0140053 0)
(7.34969 0.0152572 0)
(7.3513 0.0165637 0)
(7.35296 0.0179241 0)
(7.35467 0.0193364 0)
(7.35644 0.0207976 0)
(7.35828 0.0223032 0)
(7.36018 0.0238476 0)
(7.36216 0.0254238 0)
(7.36421 0.0270237 0)
(7.36635 0.0286383 0)
(7.36856 0.0302579 0)
(7.37086 0.031872 0)
(7.37324 0.0334701 0)
(7.3757 0.0350416 0)
(7.37823 0.0365763 0)
(7.38083 0.0380644 0)
(7.3835 0.0394974 0)
(7.38622 0.0408666 0)
(7.33303 0.000363753 0)
(7.33325 0.00108631 0)
(7.33371 0.00180664 0)
(7.33439 0.00253501 0)
(7.33524 0.00327908 0)
(7.33622 0.00404455 0)
(7.33732 0.00483628 0)
(7.33852 0.0056588 0)
(7.33981 0.0065163 0)
(7.34116 0.00741251 0)
(7.34256 0.00835072 0)
(7.34402 0.00933376 0)
(7.34553 0.0103639 0)
(7.34708 0.0114429 0)
(7.34867 0.0125717 0)
(7.35031 0.0137505 0)
(7.35199 0.0149784 0)
(7.35373 0.016254 0)
(7.35552 0.0175745 0)
(7.35736 0.0189361 0)
(7.35927 0.0203343 0)
(7.36124 0.0217631 0)
(7.36328 0.023216 0)
(7.36539 0.0246853 0)
(7.36757 0.0261629 0)
(7.36982 0.0276399 0)
(7.37214 0.0291073 0)
(7.37453 0.030556 0)
(7.37699 0.0319769 0)
(7.37952 0.0333615 0)
(7.3821 0.0347017 0)
(7.38473 0.0359903 0)
(7.38741 0.0372202 0)
(7.33303 0.000276104 0)
(7.33326 0.00082732 0)
(7.33374 0.00138681 0)
(7.33444 0.00196851 0)
(7.33532 0.00258116 0)
(7.33634 0.00322963 0)
(7.33748 0.00391713 0)
(7.33873 0.00464622 0)
(7.34006 0.00541892 0)
(7.34146 0.00623678 0)
(7.34292 0.00710093 0)
(7.34444 0.00801224 0)
(7.34601 0.00897123 0)
(7.34762 0.009978 0)
(7.34929 0.0110321 0)
(7.35099 0.0121324 0)
(7.35275 0.0132773 0)
(7.35455 0.0144643 0)
(7.35641 0.0156899 0)
(7.35832 0.0169503 0)
(7.36029 0.0182403 0)
(7.36232 0.0195544 0)
(7.36441 0.0208862 0)
(7.36657 0.0222286 0)
(7.36878 0.0235742 0)
(7.37106 0.0249153 0)
(7.37341 0.0262438 0)
(7.37581 0.027552 0)
(7.37827 0.0288321 0)
(7.38078 0.030077 0)
(7.38334 0.0312799 0)
(7.38594 0.0324349 0)
(7.38857 0.033536 0)
(7.33303 0.000181806 0)
(7.33327 0.000548843 0)
(7.33378 0.000935912 0)
(7.33452 0.00136101 0)
(7.33543 0.00183379 0)
(7.3365 0.00235785 0)
(7.33769 0.00293437 0)
(7.33899 0.00356373 0)
(7.34038 0.00424566 0)
(7.34184 0.00497936 0)
(7.34336 0.00576377 0)
(7.34494 0.00659779 0)
(7.34657 0.0074802 0)
(7.34825 0.00840956 0)
(7.34997 0.00938414 0)
(7.35175 0.0104018 0)
(7.35357 0.0114598 0)
(7.35544 0.0125551 0)
(7.35736 0.013684 0)
(7.35933 0.0148419 0)
(7.36135 0.016024 0)
(7.36343 0.0172247 0)
(7.36557 0.018438 0)
(7.36776 0.0196575 0)
(7.37001 0.0208764 0)
(7.37231 0.0220879 0)
(7.37467 0.0232851 0)
(7.37708 0.0244612 0)
(7.37953 0.0256096 0)
(7.38203 0.0267244 0)
(7.38456 0.0277998 0)
(7.38713 0.0288311 0)
(7.38972 0.0298131 0)
(7.33303 7.8804e-05 0)
(7.33329 0.000245017 0)
(7.33383 0.000445243 0)
(7.33462 0.000702256 0)
(7.33559 0.00102622 0)
(7.33671 0.00141857 0)
(7.33797 0.00187787 0)
(7.33932 0.00240198 0)
(7.34077 0.00298809 0)
(7.34229 0.00363289 0)
(7.34388 0.00433303 0)
(7.34552 0.00508539 0)
(7.34721 0.00588703 0)
(7.34895 0.00673502 0)
(7.35074 0.0076264 0)
(7.35258 0.00855801 0)
(7.35446 0.00952645 0)
(7.35639 0.010528 0)
(7.35837 0.0115585 0)
(7.36039 0.0126135 0)
(7.36247 0.013688 0)
(7.36459 0.0147768 0)
(7.36677 0.0158741 0)
(7.36899 0.0169742 0)
(7.37127 0.018071 0)
(7.37359 0.0191585 0)
(7.37596 0.0202307 0)
(7.37837 0.0212818 0)
(7.38081 0.0223063 0)
(7.38329 0.0232991 0)
(7.38581 0.0242554 0)
(7.38834 0.0251713 0)
(7.3909 0.0260425 0)
(7.33303 -3.56372e-05 0)
(7.33332 -9.18829e-05 0)
(7.3339 -9.63967e-05 0)
(7.33475 -2.05619e-05 0)
(7.33579 0.000145352 0)
(7.33699 0.000399195 0)
(7.33831 0.000735976 0)
(7.33974 0.00115049 0)
(7.34125 0.00163691 0)
(7.34284 0.00218904 0)
(7.34449 0.00280112 0)
(7.3462 0.00346808 0)
(7.34796 0.00418535 0)
(7.34976 0.00494866 0)
(7.35161 0.00575392 0)
(7.35351 0.00659712 0)
(7.35545 0.00747421 0)
(7.35743 0.00838099 0)
(7.35946 0.00931308 0)
(7.36154 0.0102659 0)
(7.36366 0.0112345 0)
(7.36582 0.012214 0)
(7.36803 0.0131991 0)
(7.37028 0.0141845 0)
(7.37258 0.0151648 0)
(7.37491 0.0161347 0)
(7.37729 0.0170891 0)
(7.37969 0.0180229 0)
(7.38213 0.0189314 0)
(7.3846 0.0198105 0)
(7.38709 0.0206561 0)
(7.3896 0.0214649 0)
(7.39212 0.0222334 0)
(7.33304 -0.000165372 0)
(7.33335 -0.000472622 0)
(7.334 -0.000704056 0)
(7.33493 -0.000823834 0)
(7.33606 -0.000825007 0)
(7.33734 -0.0007158 0)
(7.33875 -0.00050559 0)
(7.34026 -0.000202948 0)
(7.34185 0.000182661 0)
(7.34351 0.00064149 0)
(7.34523 0.00116487 0)
(7.34701 0.0017455 0)
(7.34883 0.00237705 0)
(7.3507 0.00305389 0)
(7.35261 0.0037709 0)
(7.35456 0.00452337 0)
(7.35655 0.00530678 0)
(7.35859 0.00611666 0)
(7.36067 0.00694855 0)
(7.36279 0.00779792 0)
(7.36495 0.00866017 0)
(7.36715 0.00953059 0)
(7.36939 0.0104044 0)
(7.37166 0.0112769 0)
(7.37398 0.0121434 0)
(7.37632 0.0129991 0)
(7.3787 0.0138397 0)
(7.38111 0.0146609 0)
(7.38354 0.0154588 0)
(7.38599 0.0162298 0)
(7.38846 0.0169706 0)
(7.39094 0.0176785 0)
(7.39343 0.0183507 0)
(7.33304 -0.000316137 0)
(7.3334 -0.000913111 0)
(7.33414 -0.00139915 0)
(7.33518 -0.00172919 0)
(7.33642 -0.00190426 0)
(7.33781 -0.00194387 0)
(7.33931 -0.00186386 0)
(7.34092 -0.00167666 0)
(7.3426 -0.0013954 0)
(7.34434 -0.00103308 0)
(7.34614 -0.000600806 0)
(7.34798 -0.000107837 0)
(7.34987 0.00043784 0)
(7.3518 0.00102919 0)
(7.35376 0.00166001 0)
(7.35577 0.00232472 0)
(7.35782 0.00301823 0)
(7.3599 0.00373567 0)
(7.36202 0.00447243 0)
(7.36418 0.00522397 0)
(7.36638 0.00598585 0)
(7.36861 0.00675367 0)
(7.37087 0.0075231 0)
(7.37317 0.00828989 0)
(7.3755 0.0090499 0)
(7.37786 0.00979913 0)
(7.38024 0.0105338 0)
(7.38265 0.0112503 0)
(7.38507 0.0119454 0)
(7.38751 0.012616 0)
(7.38996 0.0132595 0)
(7.39242 0.0138736 0)
(7.39488 0.0144558 0)
(7.33305 -0.000497046 0)
(7.33348 -0.00143738 0)
(7.33434 -0.00221288 0)
(7.33553 -0.00276908 0)
(7.33692 -0.00312189 0)
(7.33843 -0.00330536 0)
(7.34005 -0.00334391 0)
(7.34176 -0.00325831 0)
(7.34354 -0.00306975 0)
(7.34537 -0.00279666 0)
(7.34725 -0.00245302 0)
(7.34917 -0.00204964 0)
(7.35113 -0.00159544 0)
(7.35312 -0.00109794 0)
(7.35515 -0.000563491 0)
(7.35721 2.39723e-06 0)
(7.35931 0.000594746 0)
(7.36144 0.00120894 0)
(7.36361 0.0018406 0)
(7.36581 0.00248553 0)
(7.36804 0.00313964 0)
(7.3703 0.00379893 0)
(7.3726 0.00445953 0)
(7.37492 0.00511767 0)
(7.37726 0.00576971 0)
(7.37963 0.00641218 0)
(7.38201 0.00704183 0)
(7.38442 0.00765562 0)
(7.38683 0.00825077 0)
(7.38926 0.00882478 0)
(7.39169 0.00937549 0)
(7.39413 0.00990111 0)
(7.39656 0.0103998 0)
(7.33306 -0.000725012 0)
(7.33359 -0.00208545 0)
(7.33465 -0.00318181 0)
(7.33605 -0.00397462 0)
(7.33762 -0.00452545 0)
(7.3393 -0.00488177 0)
(7.34107 -0.00506303 0)
(7.3429 -0.00509148 0)
(7.34479 -0.00499596 0)
(7.34672 -0.00480188 0)
(7.34868 -0.00452816 0)
(7.35068 -0.00418967 0)
(7.3527 -0.00379876 0)
(7.35477 -0.00336549 0)
(7.35686 -0.00289792 0)
(7.35898 -0.00240261 0)
(7.36114 -0.00188508 0)
(7.36332 -0.00135009 0)
(7.36554 -0.000801896 0)
(7.36778 -0.000244336 0)
(7.37005 0.000319018 0)
(7.37234 0.000884794 0)
(7.37466 0.0014498 0)
(7.377 0.00201097 0)
(7.37936 0.00256541 0)
(7.38173 0.00311037 0)
(7.38412 0.00364329 0)
(7.38652 0.00416178 0)
(7.38892 0.00466365 0)
(7.39133 0.0051469 0)
(7.39374 0.00560974 0)
(7.39614 0.00605058 0)
(7.39854 0.00646766 0)
(7.33308 -0.00102862 0)
(7.3338 -0.00295532 0)
(7.33514 -0.00439777 0)
(7.33682 -0.00534663 0)
(7.3386 -0.00598469 0)
(7.34048 -0.00642136 0)
(7.34245 -0.00669099 0)
(7.34448 -0.00682079 0)
(7.34653 -0.00684082 0)
(7.34861 -0.00677319 0)
(7.35071 -0.00663209 0)
(7.35283 -0.0064285 0)
(7.35497 -0.00617205 0)
(7.35713 -0.00587093 0)
(7.35931 -0.00553204 0)
(7.3615 -0.0051614 0)
(7.36372 -0.00476436 0)
(7.36595 -0.00434579 0)
(7.3682 -0.00391011 0)
(7.37046 -0.00346141 0)
(7.37274 -0.00300348 0)
(7.37503 -0.00253983 0)
(7.37734 -0.00207377 0)
(7.37965 -0.00160836 0)
(7.38197 -0.00114644 0)
(7.38429 -0.000690675 0)
(7.38662 -0.000243467 0)
(7.38894 0.000192987 0)
(7.39126 0.000616725 0)
(7.39357 0.00102604 0)
(7.39588 0.00141948 0)
(7.39817 0.00179596 0)
(7.40044 0.0021543 0)
(7.3331 -0.00141779 0)
(7.33417 -0.00411773 0)
(7.33612 -0.00616319 0)
(7.33832 -0.00755476 0)
(7.34048 -0.00847729 0)
(7.34265 -0.00903953 0)
(7.3449 -0.00931892 0)
(7.34717 -0.00939759 0)
(7.34945 -0.00934198 0)
(7.35172 -0.00919412 0)
(7.354 -0.00898073 0)
(7.35626 -0.00872072 0)
(7.35851 -0.00842738 0)
(7.36074 -0.00810952 0)
(7.36295 -0.00777296 0)
(7.36514 -0.00742182 0)
(7.36731 -0.00705918 0)
(7.36946 -0.00668753 0)
(7.37159 -0.00630898 0)
(7.3737 -0.00592549 0)
(7.37579 -0.00553892 0)
(7.37787 -0.00515113 0)
(7.37993 -0.00476392 0)
(7.38197 -0.00437909 0)
(7.38399 -0.00399839 0)
(7.386 -0.00362354 0)
(7.38799 -0.00325614 0)
(7.38996 -0.00289774 0)
(7.39192 -0.00254979 0)
(7.39385 -0.00221363 0)
(7.39577 -0.00189055 0)
(7.39767 -0.00158181 0)
(7.39954 -0.00128885 0)
(7.33312 -0.0022623 0)
(7.33487 -0.00514959 0)
(7.33799 -0.00677363 0)
(7.34146 -0.00810292 0)
(7.34483 -0.00934904 0)
(7.3481 -0.0103718 0)
(7.35119 -0.011129 0)
(7.35404 -0.011668 0)
(7.35663 -0.0120291 0)
(7.35897 -0.0122335 0)
(7.36108 -0.0123015 0)
(7.36299 -0.0122562 0)
(7.3647 -0.012119 0)
(7.36626 -0.0119081 0)
(7.36767 -0.0116385 0)
(7.36896 -0.0113231 0)
(7.37014 -0.0109727 0)
(7.37124 -0.0105961 0)
(7.37227 -0.0102008 0)
(7.37324 -0.00979277 0)
(7.37415 -0.00937716 0)
(7.37503 -0.00895811 0)
(7.37588 -0.00853913 0)
(7.37671 -0.00812314 0)
(7.37752 -0.00771261 0)
(7.37831 -0.00730957 0)
(7.3791 -0.00691575 0)
(7.37988 -0.00653258 0)
(7.38065 -0.00616119 0)
(7.38142 -0.00580253 0)
(7.38218 -0.00545729 0)
(7.38294 -0.00512598 0)
(7.38369 -0.0048091 0)
(7.3363 -0.00649873 0)
(7.34556 -0.0134333 0)
(7.35344 -0.0155999 0)
(7.35891 -0.0160711 0)
(7.36273 -0.0160027 0)
(7.36533 -0.0155559 0)
(7.36674 -0.0148601 0)
(7.36706 -0.014081 0)
(7.36652 -0.0133117 0)
(7.36532 -0.0125798 0)
(7.36363 -0.0118921 0)
(7.36156 -0.011251 0)
(7.35922 -0.0106554 0)
(7.35671 -0.0101013 0)
(7.3541 -0.00958373 0)
(7.35144 -0.00909788 0)
(7.34878 -0.0086397 0)
(7.34614 -0.00820572 0)
(7.34357 -0.00779314 0)
(7.34106 -0.0073997 0)
(7.33865 -0.00702369 0)
(7.33634 -0.00666382 0)
(7.33413 -0.00631915 0)
(7.33203 -0.00598898 0)
(7.33005 -0.00567284 0)
(7.32817 -0.00537037 0)
(7.3264 -0.00508133 0)
(7.32475 -0.00480551 0)
(7.32319 -0.00454271 0)
(7.32174 -0.00429268 0)
(7.32039 -0.00405501 0)
(7.31914 -0.00382916 0)
(7.31797 -0.00361385 0)
(7.32509 -0.00545958 0)
(7.31338 -0.0120942 0)
(7.29937 -0.0149908 0)
(7.28308 -0.016059 0)
(7.26712 -0.0162172 0)
(7.25255 -0.0157601 0)
(7.23926 -0.0148994 0)
(7.22709 -0.0138347 0)
(7.21602 -0.0127014 0)
(7.20601 -0.0115737 0)
(7.19697 -0.0104926 0)
(7.1888 -0.00948097 0)
(7.18139 -0.00855005 0)
(7.17467 -0.00770252 0)
(7.16857 -0.006936 0)
(7.16302 -0.00624542 0)
(7.15797 -0.00562452 0)
(7.15336 -0.00506657 0)