/*--------------------------------*- C++ -*----------------------------------*\
| =========                 |                                                 |
| \\      /  F ield         | OpenFOAM: The Open Source CFD Toolbox           |
|  \\    /   O peration     | Version:  4.1                                   |
|   \\  /    A nd           | Web:      www.OpenFOAM.org                      |
|    \\/     M anipulation  |                                                 |
\*---------------------------------------------------------------------------*/
FoamFile
{
    version     2.0;
    format      ascii;
    class       volScalarField;
    location    "900";
    object      p;
}
// * * * * * * * * * * * * * * * * * * * * * * * * * * * * * * * * * * * * * //

dimensions      [0 2 -2 0 0 0 0];

internalField   nonuniform List<scalar> 
6820
(
-7.89272
-8.69246
-9.15296
-9.2978
-9.37635
-9.45066
-9.5105
-9.5561
-9.59481
-9.63029
-9.6631
-9.69343
-9.72177
-9.74852
-9.77396
-9.79825
-9.82157
-9.8441
-9.86599
-9.88739
-9.90845
-9.92932
-9.95014
-9.97108
-9.99229
-10.014
-10.0363
-10.0596
-10.0839
-10.1102
-10.1369
-10.1707
-10.1859
-9.56642
-9.73221
-9.7178
-9.63823
-9.59598
-9.59274
-9.60279
-9.61636
-9.63366
-9.65446
-9.67716
-9.70054
-9.72411
-9.74761
-9.77084
-9.79368
-9.81608
-9.83804
-9.85961
-9.88086
-9.90188
-9.92276
-9.94363
-9.96462
-9.98586
-10.0075
-10.0298
-10.0529
-10.0771
-10.103
-10.1307
-10.164
-10.2054
-9.54485
-9.35679
-9.33818
-9.37266
-9.41446
-9.46273
-9.50925
-9.54975
-9.58626
-9.62063
-9.65304
-9.68344
-9.71206
-9.73917
-9.76497
-9.78962
-9.81327
-9.83609
-9.85822
-9.87981
-9.90101
-9.92196
-9.94279
-9.96366
-9.98472
-10.0061
-10.0281
-10.0507
-10.0744
-10.0995
-10.1263
-10.1571
-10.1888
-9.46272
-9.36034
-9.40977
-9.47042
-9.50384
-9.53436
-9.5659
-9.59472
-9.62152
-9.64778
-9.67359
-9.69869
-9.72305
-9.74674
-9.76981
-9.79229
-9.81423
-9.83569
-9.85676
-9.87751
-9.89804
-9.91845
-9.93884
-9.95932
-9.98002
-10.001
-10.0225
-10.0447
-10.0677
-10.0917
-10.1169
-10.1439
-10.1705
-9.45519
-9.4153
-9.44747
-9.48522
-9.50742
-9.5323
-9.56147
-9.5898
-9.61673
-9.64325
-9.66941
-9.69489
-9.71962
-9.74365
-9.767
-9.78971
-9.81182
-9.83341
-9.85456
-9.87535
-9.89587
-9.91622
-9.9365
-9.95681
-9.97726
-9.99795
-10.019
-10.0405
-10.0627
-10.0855
-10.1089
-10.1331
-10.1565
-9.46438
-9.44428
-9.4602
-9.48997
-9.5139
-9.53929
-9.56761
-9.59528
-9.62164
-9.64746
-9.67287
-9.69762
-9.72167
-9.74505
-9.7678
-9.78995
-9.81156
-9.83269
-9.85342
-9.87381
-9.89396
-9.91394
-9.93385
-9.95376
-9.97377
-9.99396
-10.0144
-10.0352
-10.0563
-10.0779
-10.0996
-10.1214
-10.1423
-9.47381
-9.46264
-9.47376
-9.50005
-9.52403
-9.54796
-9.57409
-9.60026
-9.62556
-9.65042
-9.67494
-9.69894
-9.72233
-9.74514
-9.76739
-9.78912
-9.81034
-9.83113
-9.85154
-9.87164
-9.89149
-9.91117
-9.93075
-9.95031
-9.9699
-9.98959
-10.0094
-10.0294
-10.0496
-10.0699
-10.0901
-10.11
-10.1288
-9.48391
-9.47883
-9.48848
-9.51094
-9.53335
-9.55571
-9.58002
-9.60485
-9.6292
-9.65318
-9.67689
-9.70018
-9.72296
-9.74522
-9.76698
-9.78826
-9.80908
-9.8295
-9.84955
-9.86931
-9.88882
-9.90814
-9.92734
-9.94647
-9.96558
-9.9847
-10.0039
-10.0231
-10.0423
-10.0614
-10.0802
-10.0984
-10.1156
-9.49479
-9.49345
-9.50224
-9.52135
-9.5421
-9.56322
-9.586
-9.60953
-9.63287
-9.65596
-9.67885
-9.7014
-9.72354
-9.74522
-9.76646
-9.78726
-9.80765
-9.82766
-9.84734
-9.86671
-9.88584
-9.90478
-9.92356
-9.94223
-9.96081
-9.97934
-9.99782
-10.0162
-10.0345
-10.0525
-10.07
-10.0869
-10.1028
-9.50596
-9.50666
-9.51493
-9.53152
-9.55068
-9.57062
-9.59199
-9.61423
-9.63654
-9.65873
-9.68079
-9.7026
-9.72408
-9.74516
-9.76586
-9.78617
-9.80611
-9.82569
-9.84494
-9.86391
-9.88264
-9.90114
-9.91947
-9.93764
-9.95568
-9.97359
-9.99136
-10.0089
-10.0263
-10.0432
-10.0597
-10.0754
-10.0902
-9.51705
-9.51882
-9.52673
-9.54143
-9.55905
-9.57781
-9.59788
-9.6189
-9.64019
-9.66149
-9.68272
-9.70379
-9.72459
-9.74507
-9.76522
-9.78501
-9.80447
-9.82359
-9.84241
-9.86094
-9.87922
-9.89727
-9.91511
-9.93277
-9.95023
-9.9675
-9.98456
-10.0014
-10.0178
-10.0338
-10.0493
-10.064
-10.0778
-9.52786
-9.53015
-9.53774
-9.55095
-9.56715
-9.58475
-9.60364
-9.62351
-9.6438
-9.66421
-9.68463
-9.70495
-9.72508
-9.74494
-9.76452
-9.78378
-9.80274
-9.82138
-9.83974
-9.85781
-9.87562
-9.89319
-9.91053
-9.92763
-9.94451
-9.96114
-9.9775
-9.99353
-10.0092
-10.0243
-10.0389
-10.0527
-10.0657
-9.53826
-9.54076
-9.54801
-9.56004
-9.57495
-9.59145
-9.60924
-9.62802
-9.64733
-9.66687
-9.68649
-9.70607
-9.72552
-9.74476
-9.76376
-9.78248
-9.80092
-9.81907
-9.83694
-9.85453
-9.87186
-9.88892
-9.90573
-9.92228
-9.93856
-9.95455
-9.97022
-9.98552
-10.0004
-10.0147
-10.0285
-10.0415
-10.0537
-9.54818
-9.5507
-9.5576
-9.56864
-9.58241
-9.59787
-9.61463
-9.63239
-9.65076
-9.66945
-9.68828
-9.70713
-9.7259
-9.74452
-9.76293
-9.7811
-9.79901
-9.81665
-9.83402
-9.85111
-9.86793
-9.88448
-9.90075
-9.91673
-9.93241
-9.94777
-9.96277
-9.97736
-9.99148
-10.0051
-10.0181
-10.0304
-10.042
-9.55755
-9.56002
-9.56654
-9.57675
-9.58951
-9.60398
-9.61977
-9.63658
-9.65405
-9.67191
-9.68997
-9.7081
-9.7262
-9.74419
-9.76201
-9.77962
-9.79699
-9.81412
-9.83097
-9.84755
-9.86386
-9.87987
-9.8956
-9.91101
-9.9261
-9.94083
-9.95517
-9.96909
-9.98253
-9.99543
-10.0077
-10.0194
-10.0304
-9.56635
-9.56872
-9.57486
-9.58435
-9.5962
-9.60976
-9.62465
-9.64056
-9.65718
-9.67423
-9.69153
-9.70896
-9.7264
-9.74377
-9.761
-9.77804
-9.79487
-9.81146
-9.82779
-9.84386
-9.85963
-9.87511
-9.89029
-9.90513
-9.91963
-9.93375
-9.94747
-9.96074
-9.97352
-9.98578
-9.99746
-10.0085
-10.0189
-9.57455
-9.57681
-9.58258
-9.59142
-9.60247
-9.61519
-9.62923
-9.6443
-9.6601
-9.67638
-9.69296
-9.70969
-9.72648
-9.74323
-9.75987
-9.77635
-9.79263
-9.80869
-9.82449
-9.84003
-9.85527
-9.87022
-9.88484
-9.89912
-9.91303
-9.92656
-9.93967
-9.95232
-9.96449
-9.97614
-9.98723
-9.99773
-10.0076
-9.58214
-9.58427
-9.58969
-9.59795
-9.60828
-9.62023
-9.63349
-9.64777
-9.66279
-9.67833
-9.6942
-9.71027
-9.72642
-9.74256
-9.75862
-9.77453
-9.79027
-9.80579
-9.82106
-9.83607
-9.85078
-9.86519
-9.87926
-9.89298
-9.90633
-9.91928
-9.9318
-9.94387
-9.95546
-9.96653
-9.97706
-9.98704
-9.99644
-9.5891
-9.5911
-9.59619
-9.60392
-9.61361
-9.62485
-9.63738
-9.65092
-9.66522
-9.68006
-9.69525
-9.71067
-9.7262
-9.74174
-9.75722
-9.77258
-9.78777
-9.80276
-9.8175
-9.83198
-9.84616
-9.86003
-9.87357
-9.88674
-9.89954
-9.91193
-9.92389
-9.93539
-9.94642
-9.95695
-9.96696
-9.97644
-9.98537
-9.59542
-9.5973
-9.60208
-9.60934
-9.61844
-9.62903
-9.64089
-9.65374
-9.66736
-9.68153
-9.69608
-9.71087
-9.7258
-9.74076
-9.75568
-9.77049
-9.78514
-9.7996
-9.81382
-9.82777
-9.84143
-9.85477
-9.86778
-9.88042
-9.89267
-9.90452
-9.91594
-9.92691
-9.93741
-9.94742
-9.95694
-9.96595
-9.97443
-9.60107
-9.60285
-9.60734
-9.61417
-9.62274
-9.63275
-9.64398
-9.6562
-9.66918
-9.68272
-9.69665
-9.71085
-9.7252
-9.7396
-9.75396
-9.76824
-9.78237
-9.7963
-9.81
-9.82344
-9.83659
-9.84942
-9.8619
-9.87402
-9.88575
-9.89708
-9.90797
-9.91843
-9.92843
-9.93795
-9.94699
-9.95555
-9.96361
-9.60606
-9.60774
-9.61197
-9.6184
-9.6265
-9.63597
-9.64663
-9.65826
-9.67065
-9.6836
-9.69695
-9.71059
-9.72438
-9.73824
-9.75207
-9.76583
-9.77944
-9.79287
-9.80607
-9.819
-9.83164
-9.84397
-9.85595
-9.86756
-9.87879
-9.88961
-9.90001
-9.90997
-9.91949
-9.92855
-9.93714
-9.94526
-9.95291
-9.61036
-9.61195
-9.61593
-9.62201
-9.62967
-9.63866
-9.6488
-9.6599
-9.67174
-9.68414
-9.69696
-9.71006
-9.72332
-9.73666
-9.74999
-9.76325
-9.77637
-9.7893
-9.80201
-9.81445
-9.82661
-9.83844
-9.84993
-9.86106
-9.8718
-9.88214
-9.89206
-9.90155
-9.91061
-9.91922
-9.92738
-9.93509
-9.94235
-9.61395
-9.61545
-9.61923
-9.62498
-9.63225
-9.6408
-9.65047
-9.66108
-9.67242
-9.68432
-9.69664
-9.70924
-9.72201
-9.73487
-9.74772
-9.76049
-9.77313
-9.78559
-9.79783
-9.8098
-9.82148
-9.83285
-9.84387
-9.85452
-9.8648
-9.87467
-9.88414
-9.89319
-9.9018
-9.90999
-9.91773
-9.92504
-9.93192
-9.61682
-9.61824
-9.62182
-9.62728
-9.6342
-9.64236
-9.65161
-9.66178
-9.67267
-9.68411
-9.69597
-9.70812
-9.72043
-9.73283
-9.74523
-9.75755
-9.76974
-9.78175
-9.79353
-9.80506
-9.81629
-9.8272
-9.83777
-9.84798
-9.8578
-9.86724
-9.87627
-9.88489
-9.89309
-9.90086
-9.90821
-9.91514
-9.92165
-9.61893
-9.62028
-9.62368
-9.62888
-9.63548
-9.6433
-9.65218
-9.66196
-9.67245
-9.68349
-9.69494
-9.70667
-9.71857
-9.73054
-9.74252
-9.75442
-9.76618
-9.77777
-9.78913
-9.80022
-9.81103
-9.82151
-9.83165
-9.84143
-9.85083
-9.85985
-9.86847
-9.87668
-9.88448
-9.89186
-9.89883
-9.90539
-9.91155
-9.62027
-9.62156
-9.62478
-9.62974
-9.63607
-9.64358
-9.65215
-9.66159
-9.67174
-9.68243
-9.69351
-9.70487
-9.7164
-9.728
-9.73959
-9.7511
-9.76247
-9.77366
-9.78462
-9.79532
-9.80572
-9.8158
-9.82553
-9.83491
-9.84392
-9.85254
-9.86076
-9.86858
-9.87601
-9.88302
-9.88963
-9.89584
-9.90166
-9.62081
-9.62203
-9.62509
-9.62982
-9.6359
-9.64317
-9.65147
-9.66064
-9.6705
-9.68089
-9.69167
-9.70272
-9.71392
-9.72518
-9.73642
-9.74758
-9.7586
-9.76942
-9.78001
-9.79033
-9.80035
-9.81005
-9.81941
-9.82841
-9.83704
-9.84528
-9.85314
-9.8606
-9.86766
-9.87432
-9.88059
-9.88646
-9.89195
-9.62052
-9.62167
-9.62456
-9.62907
-9.63494
-9.642
-9.65011
-9.65907
-9.6687
-9.67886
-9.6894
-9.70018
-9.71111
-9.72209
-9.73304
-9.74389
-9.75459
-9.76509
-9.77535
-9.78534
-9.79502
-9.80437
-9.81339
-9.82204
-9.83032
-9.83821
-9.84573
-9.85284
-9.85957
-9.86591
-9.87185
-9.87741
-9.88258
-9.61939
-9.62045
-9.62314
-9.62743
-9.63311
-9.64003
-9.648
-9.65682
-9.66632
-9.67631
-9.68667
-9.69725
-9.70795
-9.71869
-9.72938
-9.73995
-9.75036
-9.76056
-9.77051
-9.78018
-9.78954
-9.79858
-9.80726
-9.81558
-9.82354
-9.83111
-9.8383
-9.8451
-9.85151
-9.85753
-9.86317
-9.86844
-9.87333
-9.61739
-9.61835
-9.62077
-9.6248
-9.63033
-9.63718
-9.64509
-9.65386
-9.66329
-9.67323
-9.68351
-9.69399
-9.70458
-9.71516
-9.72568
-9.73607
-9.74627
-9.75624
-9.76595
-9.77536
-9.78446
-9.79321
-9.80162
-9.80965
-9.81731
-9.82459
-9.83149
-9.83799
-9.84411
-9.84985
-9.8552
-9.86017
-9.86476
-9.61457
-9.61533
-9.61735
-9.62104
-9.62649
-9.63339
-9.64135
-9.65013
-9.65955
-9.66943
-9.67962
-9.68997
-9.7004
-9.71082
-9.72114
-9.73132
-9.7413
-9.75104
-9.76051
-9.76968
-9.77852
-9.78702
-9.79517
-9.80295
-9.81035
-9.81738
-9.82401
-9.83027
-9.83614
-9.84162
-9.84674
-9.85148
-9.85587
-9.61099
-9.61141
-9.61275
-9.61598
-9.62138
-9.62844
-9.63667
-9.64579
-9.65561
-9.66585
-9.67632
-9.68688
-9.69745
-9.70792
-9.71825
-9.72837
-9.73825
-9.74784
-9.75714
-9.7661
-9.77472
-9.78299
-9.79088
-9.7984
-9.80553
-9.81228
-9.81864
-9.82461
-9.83019
-9.8354
-9.84021
-9.84465
-9.8487
-9.60689
-9.60654
-9.60668
-9.60952
-9.61512
-9.62217
-9.63008
-9.63888
-9.64845
-9.6585
-9.66883
-9.67928
-9.68976
-9.70018
-9.71046
-9.72054
-9.73038
-9.73994
-9.74919
-9.75811
-9.76667
-9.77487
-9.7827
-9.79014
-9.79719
-9.80385
-9.81012
-9.816
-9.82149
-9.8266
-9.83133
-9.83571
-9.83976
-9.60297
-9.60077
-9.59798
-9.60038
-9.60795
-9.61759
-9.62784
-9.63855
-9.64957
-9.66064
-9.67162
-9.68244
-9.69306
-9.70344
-9.71355
-9.72336
-9.73286
-9.74204
-9.75087
-9.75935
-9.76746
-9.7752
-9.78257
-9.78955
-9.79615
-9.80236
-9.80819
-9.81364
-9.8187
-9.82338
-9.82768
-9.8316
-9.8351
-9.60042
-9.59532
-9.58783
-9.58561
-9.58829
-9.59396
-9.60216
-9.61235
-9.62358
-9.63524
-9.64707
-9.65892
-9.67065
-9.68213
-9.69332
-9.70416
-9.71464
-9.72471
-9.73437
-9.74362
-9.75243
-9.76081
-9.76876
-9.77628
-9.78336
-9.79001
-9.79625
-9.80206
-9.80746
-9.81247
-9.81709
-9.82135
-9.82528
-9.60085
-9.58096
-9.5838
-9.60362
-9.62041
-9.63137
-9.64124
-9.65169
-9.66202
-9.67186
-9.68138
-9.69073
-9.69991
-9.70888
-9.71764
-9.72617
-9.73446
-9.74248
-9.75023
-9.75769
-9.76484
-9.77168
-9.77818
-9.78436
-9.79019
-9.79567
-9.80081
-9.80559
-9.81002
-9.8141
-9.81782
-9.82117
-9.82414
-9.63831
-9.51507
-9.45199
-9.45566
-9.47805
-9.4998
-9.52113
-9.54289
-9.56404
-9.58391
-9.60253
-9.61998
-9.63635
-9.6517
-9.6661
-9.67964
-9.69237
-9.70435
-9.71562
-9.72622
-9.73619
-9.74554
-9.75431
-9.76252
-9.77019
-9.77733
-9.78396
-9.79011
-9.79578
-9.80099
-9.80577
-9.81012
-9.81408
-9.79822
-9.81137
-9.77006
-9.7279
-9.70393
-9.69342
-9.68891
-9.68697
-9.6871
-9.6893
-9.69313
-9.69804
-9.70366
-9.70978
-9.71625
-9.72294
-9.72972
-9.73651
-9.74323
-9.74983
-9.75627
-9.76251
-9.76851
-9.77425
-9.77971
-9.78489
-9.78976
-9.79431
-9.79855
-9.80248
-9.80607
-9.80935
-9.8123
-8.63396
-8.93429
-9.19933
-9.32526
-9.39024
-9.44634
-9.49587
-9.53423
-9.56392
-9.58882
-9.61066
-9.62994
-9.64709
-9.66259
-9.67677
-9.68986
-9.70199
-9.71328
-9.72382
-9.73366
-9.74287
-9.75148
-9.75953
-9.76703
-9.77402
-9.78051
-9.78652
-9.79206
-9.79716
-9.80182
-9.80605
-9.80987
-9.8133
-10.2739
-10.1758
-10.2256
-10.2801
-10.3047
-10.32
-10.331
-10.3358
-10.335
-10.3311
-10.3262
-10.3222
-10.3209
-10.3238
-10.3319
-10.3459
-10.3662
-10.3924
-10.424
-10.4602
-10.4998
-10.5418
-10.5848
-10.6275
-10.6688
-10.7075
-10.7427
-10.7733
-10.7984
-10.8173
-10.8289
-10.8324
-10.8272
-10.8124
-10.7873
-10.7513
-10.7036
-10.6436
-10.5708
-10.4847
-10.385
-10.2714
-10.1436
-10.0016
-9.84534
-9.67488
-9.49043
-9.2923
-9.0809
-8.85679
-8.62064
-8.37326
-8.11556
-7.84858
-7.57344
-7.29136
-7.00363
-6.71159
-6.41663
-6.12012
-5.82347
-5.52803
-5.23511
-4.94599
-4.66183
-4.38372
-4.11264
-3.84947
-3.59495
-3.3497
-3.11423
-2.88891
-2.67401
-2.46968
-2.27599
-2.09289
-1.9203
-1.758
-1.60576
-1.46325
-1.33011
-1.20594
-1.09033
-0.982835
-0.883007
-0.7904
-0.704569
-0.62508
-0.551508
-0.483444
-0.420481
-0.362248
-0.308296
-0.258381
-0.211667
-0.168726
-0.126318
-0.090656
-0.0435138
-0.0296342
-10.2706
-10.265
-10.2933
-10.3129
-10.3086
-10.2989
-10.2912
-10.2843
-10.2777
-10.2726
-10.2695
-10.2694
-10.2729
-10.2809
-10.2938
-10.3121
-10.3356
-10.3641
-10.397
-10.4336
-10.473
-10.5141
-10.556
-10.5974
-10.6373
-10.6746
-10.7084
-10.7378
-10.7617
-10.7793
-10.7897
-10.7921
-10.7858
-10.77
-10.7441
-10.7072
-10.6589
-10.5984
-10.5253
-10.4391
-10.3395
-10.2262
-10.0989
-9.95759
-9.80224
-9.63294
-9.44989
-9.25338
-9.04383
-8.82178
-8.5879
-8.34298
-8.08791
-7.8237
-7.55146
-7.27238
-6.98771
-6.69876
-6.40688
-6.11342
-5.81975
-5.52718
-5.23701
-4.95047
-4.66872
-4.39281
-4.12373
-3.86233
-3.60934
-3.3654
-3.131
-2.90653
-2.69226
-2.48836
-2.29491
-2.11188
-1.93918
-1.77664
-1.62402
-1.48102
-1.3473
-1.22247
-1.10613
-0.997849
-0.897198
-0.803738
-0.717032
-0.636654
-0.562182
-0.493213
-0.429338
-0.370189
-0.315312
-0.264468
-0.21679
-0.172934
-0.129388
-0.09319
-0.0435718
-0.0330945
-10.2289
-10.235
-10.2402
-10.253
-10.2603
-10.2645
-10.2685
-10.2709
-10.2706
-10.2684
-10.2656
-10.2636
-10.2639
-10.2678
-10.2764
-10.2904
-10.3101
-10.3353
-10.3657
-10.4005
-10.4387
-10.4791
-10.5205
-10.5614
-10.6009
-10.6376
-10.6705
-10.6988
-10.7216
-10.7379
-10.7471
-10.7484
-10.741
-10.7242
-10.6973
-10.6598
-10.6108
-10.55
-10.4766
-10.3904
-10.291
-10.1781
-10.0515
-9.91103
-9.75679
-9.58885
-9.40739
-9.21272
-9.00524
-8.78548
-8.5541
-8.31187
-8.05967
-7.79847
-7.52935
-7.25347
-6.97206
-6.68639
-6.39777
-6.10751
-5.81695
-5.52739
-5.24007
-4.95621
-4.67694
-4.40332
-4.13628
-3.87668
-3.62527
-3.38265
-3.14934
-2.92572
-2.71208
-2.5086
-2.31536
-2.13237
-1.95953
-1.7967
-1.64366
-1.50012
-1.36575
-1.2402
-1.12306
-1.01393
-0.912389
-0.818006
-0.730356
-0.649018
-0.573578
-0.503634
-0.438781
-0.37865
-0.322783
-0.270946
-0.222248
-0.177404
-0.132704
-0.0958158
-0.0439244
-0.0362187
-10.2019
-10.2187
-10.2299
-10.2471
-10.2595
-10.2645
-10.2661
-10.2656
-10.2631
-10.26
-10.2575
-10.2568
-10.2588
-10.2644
-10.2742
-10.2884
-10.3072
-10.3304
-10.3577
-10.3885
-10.4221
-10.4576
-10.4941
-10.5305
-10.5659
-10.5991
-10.6292
-10.6553
-10.6762
-10.6912
-10.6992
-10.6994
-10.6912
-10.6736
-10.6461
-10.608
-10.5587
-10.4976
-10.4242
-10.3382
-10.2392
-10.1268
-10.001
-9.86166
-9.70875
-9.54237
-9.36272
-9.17009
-8.96489
-8.74764
-8.51897
-8.27963
-8.03048
-7.77248
-7.50666
-7.23416
-6.95616
-6.67391
-6.38867
-6.10175
-5.81442
-5.52796
-5.2436
-4.96252
-4.68583
-4.41456
-4.14965
-3.89194
-3.64216
-3.40093
-3.16876
-2.94604
-2.73307
-2.53004
-2.33704
-2.15409
-1.98112
-1.81799
-1.66451
-1.5204
-1.38536
-1.25904
-1.14106
-1.03103
-0.928542
-0.833179
-0.744523
-0.662164
-0.585692
-0.51471
-0.448813
-0.387636
-0.330718
-0.277822
-0.22805
-0.182148
-0.13627
-0.0985508
-0.0445827
-0.0389676
-10.1824
-10.2017
-10.2141
-10.2273
-10.2372
-10.2417
-10.2439
-10.2452
-10.2456
-10.2454
-10.2456
-10.247
-10.2505
-10.2567
-10.2664
-10.28
-10.2978
-10.3196
-10.3452
-10.374
-10.4055
-10.4386
-10.4725
-10.5062
-10.5385
-10.5686
-10.5954
-10.6181
-10.6358
-10.6477
-10.6529
-10.6507
-10.6404
-10.6211
-10.5922
-10.5531
-10.5031
-10.4416
-10.3681
-10.2822
-10.1836
-10.072
-9.94713
-9.80899
-9.65754
-9.49288
-9.31519
-9.12477
-8.92201
-8.70742
-8.48161
-8.24531
-7.99936
-7.74469
-7.48231
-7.21331
-6.93885
-6.66014
-6.37843
-6.09496
-5.811
-5.52778
-5.2465
-4.96833
-4.69434
-4.42556
-4.16291
-3.90722
-3.6592
-3.41948
-3.18856
-2.96685
-2.75464
-2.55214
-2.35946
-2.17662
-2.00356
-1.84018
-1.68629
-1.54163
-1.40591
-1.27882
-1.15999
-1.04903
-0.945566
-0.849183
-0.759479
-0.676049
-0.598492
-0.526416
-0.459421
-0.397139
-0.33911
-0.285097
-0.234195
-0.187168
-0.140092
-0.101399
-0.0455822
-0.0412701
-10.1647
-10.1841
-10.1976
-10.2102
-10.2205
-10.2271
-10.2313
-10.2341
-10.2357
-10.2365
-10.2375
-10.2395
-10.2434
-10.2498
-10.2593
-10.2724
-10.2891
-10.3093
-10.3329
-10.3593
-10.388
-10.4181
-10.4487
-10.4791
-10.5081
-10.5351
-10.5589
-10.5788
-10.5939
-10.6033
-10.6063
-10.6019
-10.5896
-10.5686
-10.5382
-10.4977
-10.4466
-10.3843
-10.3104
-10.2243
-10.1258
-10.0147
-9.8906
-9.75354
-9.60347
-9.44048
-9.26474
-9.07654
-8.87624
-8.66435
-8.44147
-8.20829
-7.96563
-7.71438
-7.45554
-7.19015
-6.91936
-6.64433
-6.36626
-6.08639
-5.80593
-5.52609
-5.24805
-4.97293
-4.70181
-4.43566
-4.17541
-3.92187
-3.67575
-3.43767
-3.20814
-2.98756
-2.77623
-2.57438
-2.38211
-2.19947
-2.02642
-1.86286
-1.70861
-1.56346
-1.42712
-1.29929
-1.17962
-1.06775
-0.963301
-0.865887
-0.775113
-0.690584
-0.611909
-0.538699
-0.470559
-0.407124
-0.347935
-0.292751
-0.240671
-0.192457
-0.144163
-0.10436
-0.0469489
-0.0430651
-10.1489
-10.1676
-10.1819
-10.1942
-10.2045
-10.2118
-10.2167
-10.2202
-10.2227
-10.2246
-10.2268
-10.2298
-10.2345
-10.2414
-10.2509
-10.2635
-10.2792
-10.298
-10.3197
-10.3439
-10.3699
-10.3972
-10.4248
-10.4521
-10.478
-10.5018
-10.5225
-10.5394
-10.5515
-10.5581
-10.5585
-10.5517
-10.5373
-10.5143
-10.4822
-10.4404
-10.3882
-10.3251
-10.2506
-10.1644
-10.0661
-9.9553
-9.83195
-9.69592
-9.54719
-9.38583
-9.21202
-9.02601
-8.82819
-8.61902
-8.39908
-8.16907
-7.92975
-7.682
-7.42677
-7.16509
-6.89806
-6.62681
-6.35251
-6.07634
-5.79951
-5.52317
-5.24848
-4.97653
-4.70838
-4.44498
-4.18724
-3.93595
-3.69183
-3.45548
-3.22741
-3.00803
-2.79767
-2.59652
-2.40474
-2.22237
-2.04939
-1.88571
-1.73118
-1.58559
-1.44867
-1.32015
-1.19968
-1.08693
-0.98153
-0.883101
-0.791264
-0.705634
-0.625827
-0.551464
-0.482153
-0.417532
-0.357145
-0.300748
-0.247448
-0.197993
-0.148467
-0.107427
-0.0486884
-0.0443177
-10.134
-10.1519
-10.1663
-10.1785
-10.1888
-10.1966
-10.2024
-10.2067
-10.2102
-10.2132
-10.2163
-10.2202
-10.2254
-10.2324
-10.2418
-10.2538
-10.2685
-10.2859
-10.3057
-10.3277
-10.3513
-10.3758
-10.4006
-10.4248
-10.4477
-10.4684
-10.4861
-10.5
-10.5092
-10.5131
-10.5109
-10.5018
-10.4851
-10.4602
-10.4263
-10.383
-10.3296
-10.2656
-10.1905
-10.1039
-10.0056
-9.89515
-9.77246
-9.6374
-9.48996
-9.3302
-9.1583
-8.97449
-8.77915
-8.57272
-8.35577
-8.12895
-7.89302
-7.64882
-7.39727
-7.13937
-6.87616
-6.60876
-6.33829
-6.0659
-5.79275
-5.51997
-5.24869
-4.97997
-4.71483
-4.45422
-4.19902
-3.95001
-3.70791
-3.47332
-3.24674
-3.02859
-2.8192
-2.61878
-2.4275
-2.24541
-2.07252
-1.90874
-1.75393
-1.60792
-1.47045
-1.34125
-1.22002
-1.1064
-1.00007
-0.900641
-0.807756
-0.721035
-0.640103
-0.564585
-0.494094
-0.428272
-0.366665
-0.309028
-0.25448
-0.203742
-0.152972
-0.110592
-0.0507818
-0.0450289
-10.1198
-10.1368
-10.1511
-10.1632
-10.1735
-10.1817
-10.1882
-10.1933
-10.1975
-10.2014
-10.2052
-10.2097
-10.2153
-10.2225
-10.2316
-10.243
-10.2567
-10.2727
-10.2908
-10.3107
-10.3319
-10.3538
-10.3758
-10.3971
-10.417
-10.4348
-10.4495
-10.4605
-10.467
-10.4683
-10.4635
-10.4521
-10.4332
-10.4064
-10.3708
-10.3261
-10.2714
-10.2065
-10.1308
-10.044
-9.94561
-9.83549
-9.71343
-9.57933
-9.43317
-9.275
-9.10499
-8.92338
-8.7305
-8.52681
-8.31284
-8.08923
-7.85669
-7.61605
-7.36818
-7.11405
-6.85468
-6.59112
-6.32448
-6.05587
-5.7864
-5.51718
-5.24929
-4.98379
-4.72165
-4.46382
-4.21116
-3.96443
-3.72435
-3.4915
-3.2664
-3.04948
-2.84105
-2.64137
-2.45058
-2.26877
-2.09595
-1.93206
-1.77698
-1.63053
-1.4925
-1.36262
-1.2406
-1.12612
-1.01885
-0.918424
-0.824489
-0.736677
-0.654618
-0.577944
-0.50627
-0.43924
-0.376404
-0.317511
-0.261698
-0.20965
-0.157632
-0.113829
-0.0531793
-0.045241
-10.106
-10.1223
-10.1363
-10.1482
-10.1585
-10.1671
-10.174
-10.1797
-10.1847
-10.1892
-10.1936
-10.1986
-10.2045
-10.2117
-10.2206
-10.2313
-10.2441
-10.2587
-10.2751
-10.293
-10.3118
-10.3312
-10.3505
-10.369
-10.3861
-10.4009
-10.4128
-10.421
-10.4248
-10.4235
-10.4163
-10.4026
-10.3817
-10.353
-10.3158
-10.2696
-10.2138
-10.1481
-10.0718
-9.98465
-9.88632
-9.77654
-9.65514
-9.52202
-9.37714
-9.22057
-9.05246
-8.87304
-8.68263
-8.48167
-8.27067
-8.05024
-7.82107
-7.58395
-7.33974
-7.08936
-6.83378
-6.57404
-6.31119
-6.04632
-5.7805
-5.5148
-5.25029
-4.98798
-4.72883
-4.47376
-4.22361
-3.97916
-3.74108
-3.50998
-3.28637
-3.07067
-2.86321
-2.66426
-2.47397
-2.29244
-2.1197
-1.9557
-1.80034
-1.65346
-1.51486
-1.38429
-1.26148
-1.14612
-1.0379
-0.936456
-0.841456
-0.752538
-0.669338
-0.591492
-0.518622
-0.450371
-0.386293
-0.32613
-0.26904
-0.215662
-0.162395
-0.117108
-0.0558005
-0.0450378
-10.0927
-10.1082
-10.1218
-10.1336
-10.1438
-10.1526
-10.1599
-10.1661
-10.1716
-10.1766
-10.1816
-10.1869
-10.193
-10.2002
-10.2087
-10.2188
-10.2305
-10.2438
-10.2585
-10.2744
-10.2911
-10.3081
-10.3248
-10.3406
-10.3549
-10.3669
-10.376
-10.3815
-10.3827
-10.3788
-10.3693
-10.3534
-10.3304
-10.2999
-10.2611
-10.2136
-10.1567
-10.0901
-10.0133
-9.92591
-9.82764
-9.71823
-9.59751
-9.46537
-9.32179
-9.16682
-9.00061
-8.82337
-8.63542
-8.43717
-8.22911
-8.01183
-7.78601
-7.55239
-7.31179
-7.06511
-6.8133
-6.55733
-6.29824
-6.03707
-5.77486
-5.51267
-5.2515
-4.99235
-4.73617
-4.48385
-4.23622
-3.99402
-3.75795
-3.5286
-3.30647
-3.092
-2.88553
-2.68731
-2.49753
-2.31629
-2.14364
-1.97954
-1.82392
-1.67661
-1.53745
-1.40621
-1.28261
-1.16637
-1.05719
-0.954729
-0.858654
-0.768617
-0.684261
-0.605227
-0.531143
-0.461651
-0.396312
-0.334861
-0.276475
-0.221747
-0.167228
-0.120407
-0.0585534
-0.044542
-10.0797
-10.0944
-10.1076
-10.1192
-10.1294
-10.1382
-10.1459
-10.1524
-10.1583
-10.1638
-10.1691
-10.1747
-10.1809
-10.1879
-10.196
-10.2054
-10.2161
-10.2281
-10.2412
-10.2552
-10.2698
-10.2844
-10.2986
-10.3118
-10.3234
-10.3327
-10.3392
-10.342
-10.3407
-10.3343
-10.3225
-10.3044
-10.2795
-10.2472
-10.2068
-10.158
-10.1001
-10.0327
-9.95534
-9.86773
-9.76953
-9.6605
-9.54046
-9.40932
-9.26703
-9.11366
-8.94933
-8.77425
-8.58874
-8.39317
-8.18804
-7.97388
-7.75137
-7.5212
-7.28418
-7.04117
-6.79307
-6.54085
-6.28548
-6.02797
-5.76935
-5.51062
-5.25277
-4.99677
-4.74354
-4.49395
-4.24882
-4.00888
-3.77482
-3.54722
-3.32658
-3.11335
-2.90787
-2.7104
-2.52114
-2.34022
-2.16767
-2.00349
-1.84761
-1.6999
-1.56019
-1.42827
-1.3039
-1.18679
-1.07666
-0.973182
-0.876034
-0.784876
-0.699358
-0.619129
-0.543819
-0.473074
-0.406459
-0.343701
-0.284004
-0.227905
-0.172125
-0.12373
-0.0613653
-0.0439031
-10.067
-10.0811
-10.0938
-10.1051
-10.1152
-10.1241
-10.1318
-10.1387
-10.1449
-10.1506
-10.1562
-10.1619
-10.1681
-10.1749
-10.1826
-10.1912
-10.2009
-10.2116
-10.2232
-10.2353
-10.2478
-10.2602
-10.272
-10.2827
-10.2917
-10.2985
-10.3023
-10.3026
-10.2987
-10.29
-10.2759
-10.2557
-10.2289
-10.1948
-10.153
-10.1028
-10.0439
-9.97574
-9.89792
-9.8101
-9.71199
-9.60334
-9.48399
-9.35383
-9.21283
-9.06104
-8.89858
-8.72565
-8.54254
-8.34964
-8.14738
-7.93632
-7.71707
-7.49032
-7.25684
-7.01745
-6.77303
-6.5245
-6.27281
-6.01894
-5.76387
-5.50857
-5.25402
-5.00114
-4.75085
-4.50398
-4.26134
-4.02366
-3.7916
-3.56575
-3.34662
-3.13464
-2.93015
-2.73345
-2.54473
-2.36413
-2.1917
-2.02745
-1.87133
-1.72323
-1.58299
-1.45041
-1.32527
-1.2073
-1.09623
-0.991743
-0.893527
-0.801251
-0.714574
-0.633148
-0.55661
-0.484606
-0.416708
-0.352635
-0.291618
-0.234135
-0.177088
-0.12709
-0.0641883
-0.0432661
-10.0546
-10.068
-10.0802
-10.0912
-10.1012
-10.11
-10.1179
-10.1249
-10.1313
-10.1372
-10.1429
-10.1487
-10.1547
-10.1612
-10.1684
-10.1763
-10.185
-10.1944
-10.2045
-10.2149
-10.2254
-10.2356
-10.2451
-10.2534
-10.2599
-10.2641
-10.2654
-10.2632
-10.2569
-10.2459
-10.2296
-10.2074
-10.1787
-10.1429
-10.0996
-10.0482
-9.98829
-9.91937
-9.84107
-9.75306
-9.65504
-9.54677
-9.4281
-9.29892
-9.1592
-9.00897
-8.84835
-8.67754
-8.49682
-8.30653
-8.10712
-7.89911
-7.68308
-7.45971
-7.22972
-6.99391
-6.75312
-6.50825
-6.2602
-6.00993
-5.75837
-5.50648
-5.25519
-5.00542
-4.75804
-4.51389
-4.27374
-4.03831
-3.80825
-3.58416
-3.36653
-3.1558
-2.95234
-2.75641
-2.56824
-2.38797
-2.21568
-2.05138
-1.89504
-1.74655
-1.60579
-1.47257
-1.34667
-1.22785
-1.11585
-1.01036
-0.911077
-0.817687
-0.729853
-0.647232
-0.569465
-0.496202
-0.427019
-0.361628
-0.299287
-0.240414
-0.182097
-0.130486
-0.0669815
-0.0427338
-10.0423
-10.0551
-10.0669
-10.0776
-10.0873
-10.0961
-10.1039
-10.111
-10.1175
-10.1235
-10.1293
-10.135
-10.1408
-10.147
-10.1536
-10.1608
-10.1684
-10.1766
-10.1852
-10.1939
-10.2024
-10.2106
-10.2178
-10.2238
-10.2279
-10.2297
-10.2286
-10.224
-10.2154
-10.2021
-10.1837
-10.1594
-10.1289
-10.0915
-10.0468
-9.99417
-9.93325
-9.86361
-9.78485
-9.69664
-9.59872
-9.49084
-9.37284
-9.24463
-9.10616
-8.95747
-8.79868
-8.62996
-8.45158
-8.26387
-8.06727
-7.86226
-7.64941
-7.42936
-7.20282
-6.97054
-6.73334
-6.49208
-6.24763
-6.00091
-5.75283
-5.50432
-5.25627
-5.00958
-4.7651
-4.52364
-4.28596
-4.05278
-3.82473
-3.6024
-3.38628
-3.17682
-2.97437
-2.77924
-2.59163
-2.41171
-2.23957
-2.07523
-1.91868
-1.76983
-1.62856
-1.4947
-1.36806
-1.2484
-1.13547
-1.02898
-0.928645
-0.834144
-0.745155
-0.66134
-0.582346
-0.507822
-0.437353
-0.370644
-0.306978
-0.246714
-0.187121
-0.133903
-0.0697054
-0.0423564
-10.0303
-10.0425
-10.0538
-10.0642
-10.0736
-10.0823
-10.09
-10.0971
-10.1036
-10.1096
-10.1153
-10.1208
-10.1265
-10.1322
-10.1382
-10.1446
-10.1513
-10.1582
-10.1653
-10.1724
-10.1791
-10.1852
-10.1903
-10.194
-10.1959
-10.1953
-10.1918
-10.1849
-10.174
-10.1586
-10.1381
-10.1119
-10.0796
-10.0406
-9.9945
-9.94071
-9.87885
-9.80849
-9.72929
-9.64091
-9.54308
-9.43558
-9.31825
-9.19098
-9.05375
-8.90658
-8.74958
-8.58292
-8.40684
-8.22169
-8.02784
-7.82579
-7.61607
-7.3993
-7.17615
-6.94735
-6.71369
-6.47599
-6.23509
-5.99188
-5.74725
-5.50207
-5.25723
-5.0136
-4.77199
-4.53321
-4.298
-4.06705
-3.84101
-3.62043
-3.40583
-3.19764
-2.99623
-2.8019
-2.61487
-2.43532
-2.26334
-2.09898
-1.94223
-1.79302
-1.65126
-1.51678
-1.3894
-1.26891
-1.15507
-1.04759
-0.9462
-0.850594
-0.760452
-0.675445
-0.595223
-0.51944
-0.447684
-0.379655
-0.314663
-0.25301
-0.192133
-0.137321
-0.0723309
-0.0421463
-10.0184
-10.0301
-10.0409
-10.0509
-10.0601
-10.0685
-10.0762
-10.0831
-10.0895
-10.0954
-10.101
-10.1064
-10.1116
-10.1169
-10.1223
-10.1279
-10.1336
-10.1393
-10.145
-10.1504
-10.1554
-10.1596
-10.1626
-10.1642
-10.1638
-10.1609
-10.1552
-10.1461
-10.133
-10.1154
-10.0929
-10.0649
-10.0309
-9.99035
-9.94285
-9.88791
-9.82512
-9.75408
-9.67445
-9.5859
-9.48817
-9.38104
-9.26437
-9.13804
-9.00203
-8.85635
-8.70111
-8.53646
-8.36266
-8.18
-7.98887
-7.78972
-7.58308
-7.36953
-7.14972
-6.92435
-6.69418
-6.45998
-6.22259
-5.98285
-5.74161
-5.49973
-5.25807
-5.01746
-4.77871
-4.54258
-4.30982
-4.0811
-3.85705
-3.63824
-3.42515
-3.21824
-3.01788
-2.82435
-2.63792
-2.45874
-2.28694
-2.12257
-1.96564
-1.8161
-1.67385
-1.53877
-1.41067
-1.28936
-1.17461
-1.06615
-0.963717
-0.867011
-0.775721
-0.689524
-0.608077
-0.531035
-0.457992
-0.388644
-0.322325
-0.259285
-0.197115
-0.140728
-0.0748458
-0.0420967
-10.0067
-10.0178
-10.0282
-10.0378
-10.0467
-10.0549
-10.0623
-10.0691
-10.0753
-10.0811
-10.0865
-10.0915
-10.0964
-10.1012
-10.106
-10.1107
-10.1154
-10.1199
-10.1242
-10.1281
-10.1313
-10.1337
-10.1348
-10.1342
-10.1317
-10.1267
-10.1188
-10.1075
-10.0923
-10.0727
-10.0482
-10.0184
-9.98273
-9.9407
-9.89188
-9.83583
-9.77214
-9.70044
-9.62039
-9.53168
-9.43405
-9.3273
-9.21127
-9.08586
-8.95104
-8.80683
-8.65331
-8.49065
-8.31907
-8.13886
-7.95039
-7.7541
-7.55048
-7.34009
-7.12356
-6.90156
-6.67481
-6.44407
-6.21013
-5.9738
-5.73592
-5.4973
-5.25877
-5.02115
-4.78522
-4.55174
-4.32141
-4.09491
-3.87285
-3.65578
-3.44422
-3.23859
-3.03927
-2.84657
-2.66074
-2.48195
-2.31035
-2.14599
-1.98889
-1.83903
-1.69632
-1.56064
-1.43184
-1.30972
-1.19407
-1.08464
-0.981169
-0.883369
-0.790937
-0.703556
-0.620887
-0.542588
-0.468261
-0.397596
-0.329951
-0.265527
-0.202057
-0.144117
-0.077252
-0.0421908
-9.99516
-10.0057
-10.0156
-10.0249
-10.0334
-10.0413
-10.0485
-10.0551
-10.0611
-10.0666
-10.0717
-10.0764
-10.0809
-10.0852
-10.0892
-10.0931
-10.0967
-10.1001
-10.1031
-10.1054
-10.107
-10.1076
-10.1068
-10.1043
-10.0997
-10.0926
-10.0826
-10.0692
-10.052
-10.0304
-10.0041
-9.97253
-9.93523
-9.89175
-9.84165
-9.78453
-9.71998
-9.64764
-9.56718
-9.47831
-9.38079
-9.2744
-9.15901
-9.0345
-8.90085
-8.75807
-8.60624
-8.44552
-8.27612
-8.09831
-7.91245
-7.71896
-7.5183
-7.31101
-7.0977
-6.87901
-6.65563
-6.42828
-6.19773
-5.96476
-5.73018
-5.49477
-5.25934
-5.02468
-4.79154
-4.56066
-4.33275
-4.10844
-3.88836
-3.67304
-3.463
-3.25866
-3.06039
-2.86852
-2.6833
-2.50492
-2.33352
-2.16918
-2.01193
-1.86176
-1.7186
-1.58235
-1.45285
-1.32994
-1.21341
-1.10302
-0.998526
-0.899642
-0.806076
-0.717517
-0.633632
-0.554082
-0.478475
-0.406497
-0.337528
-0.271727
-0.206949
-0.147482
-0.0795587
-0.0424063
-9.98374
-9.99379
-10.0032
-10.012
-10.0202
-10.0278
-10.0347
-10.041
-10.0468
-10.052
-10.0568
-10.0611
-10.0651
-10.0687
-10.0721
-10.0751
-10.0778
-10.08
-10.0816