/*--------------------------------*- C++ -*----------------------------------*\
| =========                 |                                                 |
| \\      /  F ield         | OpenFOAM: The Open Source CFD Toolbox           |
|  \\    /   O peration     | Version:  4.1                                   |
|   \\  /    A nd           | Web:      www.OpenFOAM.org                      |
|    \\/     M anipulation  |                                                 |
\*---------------------------------------------------------------------------*/
FoamFile
{
    version     2.0;
    format      ascii;
    class       volScalarField;
    location    "400";
    object      p;
}
// * * * * * * * * * * * * * * * * * * * * * * * * * * * * * * * * * * * * * //

dimensions      [0 2 -2 0 0 0 0];

internalField   nonuniform List<scalar> 
26785
(
-31.9861
-41.4097
-49.2508
-56.9112
-63.8629
-68.2291
-69.447
-67.8781
-64.3571
-60.2932
-56.4592
-53.0003
-49.8772
-47.0238
-44.3944
-41.961
-39.7014
-37.5996
-35.6416
-33.8021
-32.0554
-30.3984
-28.8207
-27.3372
-25.953
-24.5207
-22.9613
-21.2425
-19.3905
-17.4517
-15.4592
-13.4338
-11.3883
-9.3316
-7.27151
-5.2182
-3.18692
-1.19953
0.715682
2.52409
4.18328
5.63948
6.82408
7.65372
8.03238
7.85348
7.00118
5.3529
2.78683
-0.803887
-5.48932
-11.276
-18.0812
-25.6978
-33.7601
-41.7254
-48.794
-54.0224
-56.8118
-56.9914
-54.7832
-50.8683
-46.1152
-41.2167
-36.5745
-32.366
-28.6374
-25.3695
-22.516
-20.0236
-17.8409
-15.9225
-14.2294
-12.7293
-11.3952
-10.2048
-9.13976
-8.1847
-7.32672
-6.55481
-5.85954
-5.23266
-4.66688
-4.15572
-3.69333
-3.27438
-2.89405
-2.54793
-2.23198
-1.94259
-1.67644
-1.43084
-1.20287
-0.991562
-0.792491
-0.611451
-0.429567
-0.293304
-0.0798739
-0.151108
-32.1713
-41.4458
-49.2839
-56.9402
-63.8948
-68.2684
-69.4903
-67.9195
-64.3863
-60.3125
-56.4742
-53.0135
-49.8896
-47.0355
-44.4053
-41.971
-39.7101
-37.6068
-35.6471
-33.8058
-32.0571
-30.3983
-28.8194
-27.3361
-25.9571
-24.5288
-22.9711
-21.2519
-19.3995
-17.461
-15.4694
-13.4451
-11.4006
-9.34497
-7.28579
-5.23323
-3.20254
-1.21565
0.699074
2.50704
4.16588
5.62185
6.80621
7.63538
8.01314
7.83277
6.97836
5.32724
2.75749
-0.837722
-5.52848
-11.3211
-18.1331
-25.76
-33.84
-41.8355
-48.9539
-54.2338
-57.0667
-57.2744
-55.0571
-51.0997
-46.2949
-41.3521
-36.6771
-32.4458
-28.7012
-25.422
-22.5601
-20.0612
-17.8734
-15.9509
-14.2544
-12.7515
-11.4151
-10.2228
-9.15621
-8.1999
-7.3409
-6.56817
-5.87222
-5.24476
-4.67846
-4.16681
-3.70393
-3.28447
-2.9036
-2.55688
-2.24029
-1.95021
-1.68333
-1.43695
-1.20817
-0.996057
-0.796112
-0.61439
-0.431418
-0.295232
-0.0805173
-0.152486
-32.4078
-41.4863
-49.3307
-56.9768
-63.9409
-68.337
-69.5712
-68
-64.4444
-60.3516
-56.5048
-53.0406
-49.915
-47.0595
-44.4277
-41.9913
-39.7276
-37.6211
-35.6579
-33.8131
-32.0612
-30.3998
-28.8181
-27.3309
-25.9577
-24.5362
-22.9832
-21.2645
-19.4124
-17.4756
-15.4863
-13.4644
-11.4225
-9.36925
-7.31244
-5.26216
-3.23374
-1.24927
0.662774
2.46778
4.12351
5.57634
6.75744
7.5831
7.95699
7.77251
6.91402
5.25919
2.68644
-0.910585
-5.60162
-11.3924
-18.2001
-25.8259
-33.9167
-41.9525
-49.1794
-54.6007
-57.5437
-57.8211
-55.5948
-51.5579
-46.6527
-41.6231
-36.8837
-32.6069
-28.8306
-25.5285
-22.6496
-20.1376
-17.9394
-16.0083
-14.305
-12.7964
-11.4552
-10.2591
-9.18945
-8.23061
-7.36955
-6.59515
-5.89778
-5.2691
-4.70169
-4.18898
-3.72503
-3.30446
-2.9224
-2.5744
-2.25642
-1.96484
-1.69635
-1.44829
-1.21775
-1.00387
-0.802041
-0.618788
-0.433552
-0.297402
-0.0784536
-0.156046
-32.6874
-41.5623
-49.4023
-57.019
-63.9927
-68.4258
-69.6803
-68.1129
-64.5275
-60.408
-56.5491
-53.0801
-49.9521
-47.0945
-44.4604
-42.021
-39.7535
-37.6428
-35.6758
-33.8269
-32.0697
-30.4011
-28.8137
-27.3238
-25.9639
-24.5541
-23.0074
-21.29
-19.4392
-17.5043
-15.5171
-13.4973
-11.4578
-9.40738
-7.35375
-5.30701
-3.28251
-1.30238
0.60482
2.40453
4.05469
5.50182
6.67699
7.49623
7.86305
7.67091
6.80462
5.14252
2.56388
-1.03652
-5.72727
-11.5125
-18.3078
-25.9199
-34.0049
-42.0595
-49.3922
-55.0043
-58.1056
-58.5223
-56.3292
-52.2079
-47.1713
-42.0207
-37.1883
-32.8445
-29.0204
-25.6838
-22.7794
-20.2478
-18.0342
-16.091
-14.3777
-12.8611
-11.5134
-10.312
-9.23797
-8.2756
-7.41163
-6.63477
-5.9353
-5.30473
-4.73556
-4.22112
-3.75542
-3.33303
-2.94902
-2.59895
-2.27876
-1.98484
-1.71389
-1.4633
-1.23016
-1.01374
-0.809271
-0.623917
-0.435614
-0.299612
-0.074193
-0.16224
-32.9935
-41.6444
-49.4705
-57.0441
-64.0304
-68.5189
-69.8035
-68.2491
-64.6306
-60.4789
-56.6056
-53.1307
-49.9997
-47.1396
-44.5025
-42.0593
-39.7872
-37.672
-35.7008
-33.8469
-32.0837
-30.4089
-28.818
-27.3284
-25.9842
-24.5862
-23.0469
-21.3303
-19.4781
-17.5422
-15.5551
-13.5367
-11.4997
-9.45279
-7.40356
-5.36207
-3.34365
-1.37051
0.528736
2.31957
3.96014
5.39719
6.56166
7.36936
7.72366
7.51832
6.639
4.96529
2.37801
-1.22605
-5.91368
-11.6868
-18.4582
-26.0393
-34.0992
-42.1484
-49.567
-55.4034
-58.6949
-59.305
-57.2003
-53.0076
-47.8224
-42.5257
-37.5777
-33.1492
-29.2641
-25.8831
-22.9456
-20.3889
-18.1558
-16.1971
-14.4714
-12.9447
-11.5889
-10.3808
-9.30132
-8.33443
-7.46668
-6.68658
-5.98424
-5.35104
-4.77936
-4.26245
-3.79422
-3.36921
-2.98246
-2.62948
-2.30623
-2.00913
-1.7349
-1.48096
-1.24445
-1.02477
-0.816981
-0.628987
-0.436925
-0.30108
-0.067345
-0.170197
-33.3827
-41.7379
-49.5349
-57.0504
-64.0452
-68.6052
-69.9281
-68.3994
-64.7487
-60.5615
-56.6722
-53.1908
-50.0565
-47.1934
-44.5529
-42.1054
-39.8284
-37.7084
-35.7329
-33.8742
-32.1079
-30.4309
-28.8388
-27.3512
-26.0204
-24.6326
-23.0984
-21.3784
-19.5222
-17.5849
-15.5984
-13.5822
-11.5486
-9.50625
-7.46292
-5.42859
-3.41861
-1.45524
0.432873
2.21133
3.83861
5.26171
6.41147
7.20342
7.54077
7.31767
6.42095
4.73195
2.13371
-1.47429
-6.15627
-11.9118
-18.6496
-26.1847
-34.2001
-42.216
-49.6781
-55.7388
-59.2657
-60.0935
-58.1413
-53.9093
-48.5733
-43.1157
-38.0363
-33.5095
-29.5528
-26.1195
-23.143
-20.5567
-18.3007
-16.3238
-14.5837
-13.0454
-11.6801
-10.4642
-9.37832
-8.40604
-7.53367
-6.74953
-6.04353
-5.40691
-4.83193
-4.31174
-3.84018
-3.41172
-3.0214
-2.6647
-2.33761
-2.03655
-1.7583
-1.50034
-1.25984
-1.03636
-0.824773
-0.633776
-0.43753
-0.301891
-0.0584573
-0.179928
-33.7834
-41.83
-49.5927
-57.0384
-64.0341
-68.6784
-70.0423
-68.5522
-64.8745
-60.6513
-56.7463
-53.2587
-50.1212
-47.255
-44.6107
-42.1587
-39.8766
-37.7518
-35.7719
-33.9094
-32.1418
-30.4668
-28.8789
-27.3964
-26.0716
-24.6906
-23.1588
-21.4315
-19.5703
-17.6315
-15.6459
-13.6321
-11.6025
-9.56574
-7.52965
-5.50423
-3.50485
-1.55383
0.320247
2.08319
3.69386
5.0996
6.23107
7.0034
7.31967
7.07453
6.1563
4.44864
1.83743
-1.7744
-6.44781
-12.1799
-18.8753
-26.3503
-34.3048
-42.2668
-49.7275
-55.9862
-59.8029
-60.8334
-59.0963
-54.8711
-49.3936
-43.7687
-38.548
-33.9137
-29.8779
-26.3864
-23.3666
-20.7474
-18.4658
-16.469
-14.7128
-13.1616
-11.7857
-10.5611
-9.4679
-8.48937
-7.61156
-6.82256
-6.11209
-5.47123
-4.89214
-4.36784
-3.89212
-3.45942
-3.06472
-2.70353
-2.37184
-2.06613
-1.7832
-1.52062
-1.27559
-1.04786
-0.832088
-0.637794
-0.437099
-0.301643
-0.047641
-0.190686
-34.146
-41.9318
-49.6444
-57.0045
-63.9913
-68.7356
-70.1436
-68.7024
-65.003
-60.7446
-56.8248
-53.3321
-50.192
-47.3229
-44.675
-42.2185
-39.9313
-37.8017
-35.818
-33.9525
-32.186
-30.5175
-28.9398
-27.4646
-26.1358
-24.7591
-23.2248
-21.4871
-19.6204
-17.6803
-15.6956
-13.6847
-11.6597
-9.6295
-7.6019
-5.58699
-3.60019
-1.6638
0.193701
1.93842
3.52971
4.91526
6.02546
6.77501
7.06679
6.79609
5.85294
4.12386
1.49816
-2.11717
-6.77917
-12.4826
-19.1281
-26.5313
-34.4096
-42.3014
-49.7207
-56.1247
-60.2633
-61.4736
-60.0088
-55.8506
-50.2533
-44.4629
-39.0968
-34.35
-30.2306
-26.6773
-23.6113
-20.957
-18.6483
-16.63
-14.8567
-13.2915
-11.9042
-10.6701
-9.56868
-8.58311
-7.69905
-6.90437
-6.18861
-5.5427
-4.95866
-4.42945
-3.94877
-3.51103
-3.11121
-2.74481
-2.40786
-2.09687
-1.80872
-1.54105
-1.29113
-1.05885
-0.838718
-0.640998
-0.435844
-0.300555
-0.0357743
-0.202019
-34.4691
-42.0347
-49.6819
-56.9456
-63.9106
-68.767
-70.2241
-68.8437
-65.1298
-60.8378
-56.9051
-53.4086
-50.267
-47.3958
-44.7447
-42.2839
-39.9919
-37.8579
-35.8714
-34.0045
-32.2413
-30.5822
-29.0203
-27.5518
-26.2092
-24.8373
-23.2923
-21.5431
-19.6716
-17.7304
-15.7469
-13.7391
-11.7192
-9.69622
-7.67808
-5.67501
-3.70242
-1.78259
0.0561919
1.78042
3.35004
4.71308
5.79963
6.52384
6.78842
6.48939
5.51875
3.76625
1.12518
-2.49296
-7.14064
-12.8103
-19.3996
-26.7216
-34.5112
-42.3218
-49.6694
-56.1565
-60.6278
-62.0137
-60.8454
-56.8152
-51.1266
-45.1786
-39.668
-34.8075
-30.6028
-26.986
-23.8724
-21.1818
-18.8449
-16.8044
-15.0132
-13.4334
-12.0339
-10.7894
-9.67918
-8.68578
-7.79469
-6.99354
-6.27169
-5.61992
-5.03014
-4.49522
-4.00883
-3.56533
-3.15969
-2.78745
-2.44466
-2.1279
-1.83411
-1.56103
-1.30599
-1.069
-0.844474
-0.64331
-0.433866
-0.298678
-0.0235304
-0.213119
-34.7509
-42.1288
-49.704
-56.8651
-63.7922
-68.7664
-70.2791
-68.9706
-65.2516
-60.9283
-56.9846
-53.4862
-50.3444
-47.4722
-44.8186
-42.3541
-40.0576
-37.92
-35.9321
-34.0652
-32.3062
-30.6587
-29.1159
-27.6558
-26.2865
-24.9232
-23.3591
-21.5991
-19.7235
-17.7814
-15.7993
-13.7947
-11.7802
-9.7649
-7.75701
-5.76684
-3.80984
-1.90818
-0.0899131
1.61196
3.15802
4.49671
5.55772
6.25465
6.49005
6.16078
5.16099
3.384
0.727457
-2.8923
-7.52272
-13.1539
-19.6816
-26.9153
-34.6051
-42.3263
-49.585
-56.093
-60.862
-62.4643
-61.5787
-57.7351
-51.9902
-45.898
-40.2481
-35.2759
-30.9865
-27.3064
-24.1452
-21.4181
-19.0528
-16.9896
-15.1802
-13.5852
-12.1729
-10.9175
-9.7977
-8.79577
-7.8969
-7.08851
-6.3598
-5.7014
-5.10513
-4.56378
-4.07097
-3.62105
-3.20901
-2.8304
-2.48134
-2.15847
-1.8588
-1.58016
-1.31993
-1.07828
-0.849473
-0.644978
-0.431588
-0.296407
-0.0118594
-0.223448
-35.0439
-42.218
-49.7118
-56.767
-63.6355
-68.7268
-70.307
-69.0783
-65.3657
-61.014
-57.0617
-53.5631
-50.4228
-47.5507
-44.8957
-42.4281
-40.128
-37.9875
-35.9997
-34.1339
-32.3796
-30.7453
-29.2216
-27.7744
-26.3687
-25.0114
-23.4251
-21.6551
-19.776
-17.8331
-15.8523
-13.8511
-11.8421
-9.83482
-7.83777
-5.86139
-3.92111
-2.039
-0.242754
1.43519
2.95614
4.26899
5.303
5.97121
6.17608
5.81545
4.78576
2.98414
0.312897
-3.30668
-7.91673
-13.5048
-19.9663
-27.1065
-34.6877
-42.3133
-49.473
-55.945
-60.9666
-62.8667
-62.1997
-58.5872
-52.8239
-46.6048
-40.8246
-35.7457
-31.3746
-27.633
-24.4252
-21.6623
-19.2688
-17.1831
-15.3552
-13.7447
-12.3193
-11.0525
-9.92245
-8.91132
-8.00399
-7.18765
-6.45135
-5.78561
-5.18216
-4.63373
-4.13391
-3.67705
-3.25815
-2.87281
-2.51721
-2.18804
-1.88241
-1.59822
-1.3329
-1.08673
-0.853893
-0.646255
-0.429371
-0.294046
-0.00147961
-0.232438
-35.2864
-42.2981
-49.7069
-56.6546
-63.4408
-68.6438
-70.3106
-69.1624
-65.4697
-61.0934
-57.1349
-53.6382
-50.5008
-47.6302
-44.9749
-42.5051
-40.2023
-38.0602
-36.0735
-34.2094
-32.4598
-30.8412
-29.3338
-27.8984
-26.4623
-25.0993
-23.4908
-21.7115
-19.8291
-17.8855
-15.9059
-13.9079
-11.9045
-9.90548
-7.9197
-5.95781
-4.03523
-2.17383
-0.400885
1.25179
2.74634
4.03213
5.03795
5.67636
5.84985
5.45741
4.39792
2.57242
-0.111908
-3.72887
-8.3152
-13.8557
-20.2468
-27.2896
-34.7553
-42.2799
-49.3393
-55.7387
-60.9586
-63.1931
-62.6765
-59.3431
-53.6076
-47.2842
-41.386
-36.208
-31.7601
-27.9603
-24.708
-21.9106
-19.4899
-17.3821
-15.5358
-13.9098
-12.4709
-11.1922
-10.0515
-9.03062
-8.11419
-7.28926
-6.54474
-5.87105
-5.25983
-4.70379
-4.19651
-3.73232
-3.30627
-2.91402
-2.55176
-2.2163
-1.9048
-1.6152
-1.34504
-1.09461
-0.85807
-0.647538
-0.427686
-0.292015
0.00689987
-0.239731
-35.4854
-42.3727
-49.6887
-56.529
-63.2112
-68.5171
-70.2976
-69.2191
-65.5605
-61.165
-57.2034
-53.7105
-50.5776
-47.7098
-45.0553
-42.5843
-40.28
-38.1375
-36.1526
-34.2905
-32.5445
-30.945
-29.4523
-28.0156
-26.5682
-25.1864
-23.5565
-21.7686
-19.8831
-17.9386
-15.96
-13.9651
-11.9672
-9.97651
-8.00232
-6.05548
-4.1514
-2.31171
-0.563185
1.06308
2.53012
3.7878
4.76447
5.37225
5.51389
5.08971
4.00117
2.15334
-0.541714
-4.15302
-8.71207
-14.2007
-20.5172
-27.4601
-34.8054
-42.2237
-49.1829
-55.4784
-60.8184
-63.4003
-62.9974
-59.9832
-54.3251
-47.9233
-41.9221
-36.6548
-32.1368
-28.2832
-24.9895
-22.1596
-19.7129
-17.5838
-15.7195
-14.0781
-12.6256
-11.3347
-10.183
-9.1518
-8.22575
-7.39169
-6.63842
-5.95628
-5.33686
-4.77284
-4.25779
-3.78608
-3.35277
-2.95357
-2.58474
-2.24314
-1.92598
-1.63126
-1.35656
-1.10221
-0.862354
-0.6492
-0.426926
-0.290652
0.0127827
-0.245046
-35.6478
-42.4348
-49.6574
-56.3939
-62.9563
-68.3465
-70.2678
-69.2407
-65.634
-61.2268
-57.2661
-53.7792
-50.6525
-47.7888
-45.1362
-42.665
-40.3605
-38.2185
-36.2354
-34.3752
-32.6329
-31.0554
-29.5768
-28.1219
-26.6838
-25.2715
-23.6226
-21.8267
-19.938
-17.9924
-16.0146
-14.0226
-12.03
-10.0477
-8.08529
-6.15394
-4.26903
-2.4519
-0.728758
0.870096
2.30865
3.53733
4.48401
5.06054
5.17012
4.71468
3.59841
1.73037
-0.972427
-4.57454
-9.10252
-14.5349
-20.773
-27.6139
-34.8354
-42.1424
-49.0037
-55.1813
-60.5853
-63.5238
-63.1995
-60.5082
-54.9678
-48.5124
-42.4245
-37.0791
-32.4987
-28.5968
-25.2654
-22.4057
-19.9348
-17.7854
-15.9038
-14.2472
-12.7812
-11.478
-10.3148
-9.27303
-8.33696
-7.49337
-6.73098
-6.04005
-5.41216
-4.83996
-4.31703
-3.83776
-3.39725
-2.99125
-2.61607
-2.2686
-1.94611
-1.64665
-1.3678
-1.1099
-0.867126
-0.651627
-0.427469
-0.290284
0.0157951
-0.248244
-35.787
-42.4838
-49.6151
-56.2533
-62.6852
-68.1257
-70.2095
-69.2162
-65.6855
-61.2768
-57.3219
-53.8438
-50.7248
-47.8665
-45.217
-42.7467
-40.4429
-38.3023
-36.32
-34.4615
-32.7243
-31.1718
-29.7099
-28.2236
-26.8069
-25.3557
-23.6895
-21.8861
-19.994
-18.0471
-16.0698
-14.0804
-12.0931
-10.119
-8.1684
-6.25286
-4.38767
-2.59382
-0.896877
0.673709
2.08294
3.28182
4.19778
4.74256
4.8201
4.33421
3.19191
1.30627
-1.40085
-4.98983
-9.48279
-14.8548
-21.0107
-27.7479
-34.8434
-42.0345
-48.8015
-54.8607
-60.2797
-63.5358
-63.297
-60.9221
-55.5311
-49.0444
-42.8859
-37.4746
-32.8406
-28.8966
-25.532
-22.6455
-20.1524
-17.9841
-16.0861
-14.4148
-12.9354
-11.6199
-10.4452
-9.39259
-8.44626
-7.5929
-6.82117
-6.1213
-5.48484
-4.90444
-4.3737
-3.88702
-3.43954
-3.02702
-2.64582
-2.29287
-1.96546
-1.66166
-1.37908
-1.11803
-0.87273
-0.655146
-0.429598
-0.291153
0.0157417
-0.249283
-35.9299
-42.52
-49.5635
-56.108
-62.4
-67.848
-70.1177
-69.1406
-65.7115
-61.3129
-57.3698
-53.9035
-50.7942
-47.9425
-45.2973
-42.8287
-40.5266
-38.3878
-36.4051
-34.5476
-32.8195
-31.2902
-29.8503
-28.3343
-26.9311
-25.4406
-23.758
-21.9472
-20.0514
-18.1028
-16.1257
-14.1387
-12.1563
-10.1903
-8.25156
-6.35204
-4.50698
-2.737
-1.06693
0.474665
1.85386
3.02224
3.90684
4.41951
4.46523
3.94993
2.7836
0.883283
-1.82444
-5.39612
-9.85002
-15.1575
-21.2274
-27.8596
-34.8278
-41.8987
-48.5738
-54.5146
-59.8905
-63.3927
-63.3097
-61.2346
-56.0133
-49.5141
-43.3004
-37.8358
-33.1577
-29.1784
-25.7855
-22.8757
-20.3628
-18.1774
-16.264
-14.5787
-13.0863
-11.7586
-10.5724
-9.50893
-8.55227
-7.68909
-6.90799
-6.19921
-5.55427
-4.96584
-4.42752
-3.93372
-3.47961
-3.06097
-2.67418
-2.31619
-1.98432
-1.67662
-1.39074
-1.12693
-0.879469
-0.660029
-0.433525
-0.293438
0.0125692
-0.248218
-36.0563
-42.5443
-49.5041
-55.9565
-62.1035
-67.518
-70.0046
-69.0174
-65.7107
-61.3337
-57.4087
-53.9578
-50.86
-48.0165
-45.3765
-42.9103
-40.6104
-38.474
-36.4899
-34.6321
-32.92
-31.4082
-29.9833
-28.462
-27.0541
-25.5272
-23.8286
-22.0103
-20.1105
-18.1599
-16.1827
-14.1977
-12.2199
-10.2617
-8.33477
-6.45136
-4.62673
-2.88105
-1.2384
0.273627
1.62219
2.75948
3.61218
4.09249
4.10676
3.5633
2.37519
0.46329
-2.24115
-5.79124
-10.202
-15.441
-21.4212
-27.947
-34.7872
-41.7341
-48.3185
-54.1418
-59.433
-63.1523
-63.3117
-61.4645
-56.4143
-49.9169
-43.6631
-38.158
-33.4456
-29.4383
-26.0224
-23.0932
-20.5633
-18.3626
-16.4352
-14.7367
-13.2319
-11.8923
-10.6949
-9.62071
-8.65385
-7.78096
-6.99067
-6.27318
-5.62003
-5.02389
-4.47835
-3.97786
-3.51756
-3.09328
-2.70139
-2.33885
-2.00298
-1.69185
-1.40308
-1.13686
-0.887577
-0.66647
-0.439366
-0.297239
0.00636612
-0.245188
-36.1704
-42.5589
-49.4368
-55.8016
-61.8077
-67.152
-69.8835
-68.856
-65.6831
-61.3377
-57.4377
-54.0059
-50.9219
-48.0878
-45.4539
-42.9905
-40.6935
-38.5601
-36.5744
-34.7143
-33.0249
-31.5286
-30.0973
-28.6002
-27.175
-25.6158
-23.902
-22.0759
-20.1716
-18.2186
-16.2409
-14.2576
-12.284
-10.3334
-8.41809
-6.5508
-4.74676
-3.02568
-1.41083
0.0711911
1.38866
2.4944
3.31475
3.76257
3.74592
3.17572
1.96817
0.0478992
-2.64934
-6.1735
-10.537
-15.7038
-21.5906
-28.0086
-34.7207
-41.5403
-48.035
-53.7473
-58.9364
-62.8658
-63.3274
-61.6126
-56.7283
-50.248
-43.9695
-38.437
-33.7006
-29.673
-26.2397
-23.2951
-20.7513
-18.5375
-16.5975
-14.887
-13.3705
-12.0196
-10.8114
-9.72682
-8.75007
-7.86781
-7.06866
-6.34284
-5.68189
-5.07849
-4.52623
-4.01954
-3.55359
-3.12419
-2.72772
-2.36113
-2.02175
-1.70761
-1.41635
-1.14804
-0.897216
-0.674586
-0.44715
-0.30258
-0.0026601
-0.240401
-36.2695
-42.5656
-49.3612
-55.6475
-61.5177
-66.7519
-69.7332
-68.6626
-65.6299
-61.3244
-57.4559
-54.047
-50.9792
-48.1558
-45.5288
-43.0686
-40.7752
-38.6455
-36.6586
-34.7951
-33.132
-31.6597
-30.2006
-28.7419
-27.2935
-25.7067
-23.9783
-22.1441
-20.2349
-18.2792
-16.3007
-14.3186
-12.349
-10.4056
-8.50168
-6.65039
-4.86698
-3.17067
-1.58384
-0.132098
1.15397
2.22779
3.01547
3.4308
3.3839
2.78847
1.5639
-0.361544
-3.04773
-6.54169
-10.854
-15.9449
-21.7347
-28.0431
-34.6273
-41.3171
-47.7229
-53.3367
-58.4179
-62.5053
-63.269
-61.6473
-56.944
-50.5015
-44.2154
-38.6694
-33.9194
-29.8794
-26.4345
-23.479
-20.9244
-18.6999
-16.7493
-15.0279
-13.5007
-12.1393
-10.9209
-9.82643
-8.84028
-7.94913
-7.14162
-6.40799
-5.73979
-5.12968
-4.57126
-4.05896
-3.58792
-3.15396
-2.75344
-2.3833
-2.04087
-1.72413
-1.43073
-1.16062
-0.908467
-0.68441
-0.456825
-0.309416
-0.0142019
-0.234119
-36.3585
-42.5661
-49.2787
-55.487
-61.2124
-66.3084
-69.529
-68.451
-65.5541
-61.2932
-57.4623
-54.0805
-51.0312
-48.22
-45.6004
-43.1437
-40.8549
-38.7294
-36.7419
-34.8766
-33.2364
-31.8036
-30.3129
-28.8856
-27.4117
-25.8002
-24.0578
-22.2152
-20.3008
-18.3419
-16.3622
-14.3811
-12.415
-10.4786
-8.58572
-6.75024
-4.98737
-3.31583
-1.7571
-0.335745
0.918778
1.96046
2.71524
3.09819
3.02182
2.40274
1.16355
-0.763963
-3.43537
-6.89501
-11.1521
-16.1636
-21.8528
-28.0496
-34.5064
-41.0641
-47.3802
-52.9036
-57.8642
-62.0412
-63.0725
-61.5505
-57.0549
-50.6743
-44.3984
-38.8525
-34.0994
-30.0548
-26.6045
-23.6426
-21.0808
-18.8482
-16.8888
-15.1582
-13.6214
-12.2504
-11.0225
-9.91893
-8.92405
-8.02464
-7.20941
-6.4686
-5.79378
-5.17759
-4.61364
-4.09632
-3.62079
-3.18282
-2.77877
-2.40557
-2.06051
-1.74155
-1.44631
-1.17464
-0.921331
-0.695899
-0.468259
-0.31764
-0.0278767
-0.22664
-36.4523
-42.5616
-49.1919
-55.3098
-60.8732
-65.8381
-69.304
-68.2525
-65.4582
-61.2431
-57.4563
-54.1054
-51.0769
-48.2795
-45.6684
-43.2157
-40.9326
-38.8116
-36.8235
-34.9627
-33.3365
-31.9466
-30.447
-29.0313
-27.5309
-25.8965
-24.1405
-22.2894
-20.3694
-18.4071
-16.4258
-14.4454
-12.4824
-10.5525
-8.6704
-6.85046
-5.10794
-3.46105
-1.93033
-0.539297
0.683698
1.69317
2.41497
2.76576
2.66076
2.0196
0.768078
-1.15857
-3.81168
-7.23305
-11.4311
-16.3596
-21.9446
-28.0277
-34.3577
-40.781
-47.0051
-52.4414
-57.2632
-61.4793
-62.7567
-61.3272
-57.0604
-50.7658
-44.5171
-38.9846
-34.2385
-30.1974
-26.7478
-23.7843
-21.2189
-18.981
-17.015
-15.2768
-13.7318
-12.3523
-11.1158
-10.0039
-9.00112
-8.09422
-7.27199
-6.52472
-5.84397
-5.22239
-4.65355
-4.13185
-3.65241
-3.21098
-2.80391
-2.4281
-2.08081
-1.75995
-1.46314
-1.19008
-0.935731
-0.708933
-0.481258
-0.327092
-0.0432531
-0.218284
-36.5364
-42.5529
-49.0998
-55.1142
-60.5137
-65.3772
-69.0849
-68.08
-65.3369
-61.1725
-57.4368
-54.1208
-51.1156
-48.3338
-45.7323
-43.2844
-41.0083
-38.8924
-36.9023
-35.0542
-33.4345
-32.0736
-30.5972
-29.1784
-27.6512
-25.9958
-24.2266
-22.3668
-20.4409
-18.4748
-16.4917
-14.5115
-12.5514
-10.6276
-8.75592
-6.95118
-5.22872
-3.60622
-2.10326
-0.742331
0.449326
1.42667
2.11552
2.43447
2.3017
1.63993
0.3782
-1.54487
-4.17642
-7.55582
-11.691
-16.5332
-22.0104
-27.9772
-34.181
-40.4679
-46.5958
-51.9511
-56.6233
-60.8498
-62.3901
-61.0069
-56.9667
-50.7783
-44.5719
-39.0647
-34.3354
-30.3055
-26.8628
-23.9026
-21.3375
-19.0973
-17.1269
-15.3829
-13.8312
-12.4444
-11.2005
-10.0813
-9.07142
-8.15786
-7.32945
-6.57649
-5.89055
-5.26427
-4.69121
-4.16574
-3.68296
-3.2386
-2.82898
-2.45097
-2.1018
-1.77934
-1.48116
-1.20684
-0.951521
-0.723333
-0.495577
-0.337577
-0.0598784
-0.209367
-36.6131
-42.5408
-48.9995
-54.9033
-60.1586
-64.9393
-68.8048
-67.8996
-65.1637
-61.0793
-57.4031
-54.1259
-51.1464
-48.3828
-45.794
-43.3525
-41.0833
-38.9728
-36.9776
-35.1503
-33.5378
-32.1783
-30.7486
-29.3245
-27.7726
-26.0978
-24.316
-22.4473
-20.5154
-18.5452
-16.5599
-14.5797
-12.6221
-10.7041
-8.84243
-7.0525
-5.34971
-3.75124
-2.27569
-0.944459
0.216219
1.16167
1.81773
2.1052
1.94548
1.26445
-0.00560742
-1.92268
-4.52969
-7.86367
-11.9323
-16.6847
-22.0507
-27.898
-33.9758
-40.1247
-46.1516
-51.4355
-55.9675
-60.1879
-62.0157
-60.6192
-56.7859
-50.7167
-44.5643
-39.0928
-34.3894
-30.3784
-26.9487
-23.9968
-21.4358
-19.1964
-17.2241
-15.4763
-13.9193
-12.5266
-11.2765
-10.1509
-9.13498
-8.21568
-7.38193
-6.62407
-5.9337
-5.30342
-4.72678
-4.19814
-3.71256
-3.26577
-2.85403
-2.4742
-2.12345
-1.79962
-1.50024
-1.22477
-0.968494
-0.738869
-0.510937
-0.348871
-0.0773037
-0.200188
-36.6803
-42.5255
-48.8896
-54.6782
-59.8141
-64.515
-68.4048
-67.6789
-64.937
-60.9651
-57.3547
-54.1202
-51.1705
-48.4285
-45.8559
-43.4232
-41.1593
-39.0542
-37.0508
-35.2472
-33.6604
-32.2687
-30.8938
-29.4674
-27.8945
-26.2024
-24.4084
-22.5309
-20.5927
-18.6182
-16.6306
-14.6501
-12.6947
-10.7821
-8.93004
-7.15449
-5.47094
-3.89603
-2.44737
-1.14531
-0.0150988
0.89883
1.52236
1.77876
1.59283
0.893671
-0.383095
-2.29202
-4.87183
-8.15724
-12.1558
-16.815
-22.0662
-27.7907
-33.7419
-39.7508
-45.6715
-50.893
-55.3037
-59.4997
-61.5877
-60.1568
-56.5285
-50.5877
-44.497
-39.0697
-34.4004
-30.4154
-27.005
-24.0663
-21.5134
-19.278
-17.3063
-15.5566
-13.9962
-12.5989
-11.3437
-10.213
-9.19192
-8.2678
-7.42958
-6.66764
-5.97356
-5.33997
-4.76039
-4.22915
-3.74129
-3.29251
-2.87905
-2.49772
-2.14567
-1.82065
-1.52021
-1.24364
-0.986398
-0.755276
-0.527043
-0.360742
-0.0951059
-0.191018
-36.7414
-42.5066
-48.7701
-54.4396
-59.4728
-64.1006
-67.9287
-67.3786
-64.6686
-60.8261
-57.2895
-54.1037
-51.189
-48.4728
-45.9192
-43.4973
-41.2366
-39.1367
-37.1244
-35.339
-33.8072
-32.3656
-31.0365
-29.6078
-28.0169
-26.3092
-24.5036
-22.6174
-20.6727
-18.6937
-16.7036
-14.7226
-12.7692
-10.8617
-9.0188
-7.25718
-5.59236
-4.04047
-2.61811
-1.34456
-0.244149
0.638745
1.23008
1.45579
1.24427
0.527916
-0.754168
-2.65306
-5.20331
-8.43736
-12.3626
-16.9252
-22.0581
-27.6557
-33.4789
-39.3457
-45.1532
-50.319
-54.6149
-58.7561
-61.0487
-59.6127
-56.2075
-50.3994
-44.3733
-38.9965
-34.3687
-30.4168
-27.0316
-24.111
-21.5703
-19.3421
-17.3736
-15.624
-14.0617
-12.6613
-11.4023
-10.2675
-9.2424
-8.3144
-7.47257
-6.70733
-6.01028
-5.37403
-4.7921
-4.25879
-3.76913
-3.31878
-2.90395
-2.52141
-2.16827
-1.84224
-1.54081
-1.26318
-1.00495
-0.77227
-0.543593
-0.372955
-0.112904
-0.182082
-36.8063
-42.4839
-48.6422
-54.1903
-59.1257
-63.6811
-67.4146
-67.0079
-64.359
-60.6569
-57.2049
-54.0762
-51.2025
-48.5159
-45.9835
-43.5752
-41.3156
-39.2192
-37.2025
-35.4261
-33.9649
-32.4869
-31.1821
-29.7464
-28.1397
-26.4182
-24.6014
-22.7065
-20.7553
-18.7717
-16.7788
-14.7972
-12.8454
-10.9428
-9.10869
-7.36054
-5.71392
-4.18445
-2.78772
-1.54188
-0.470509
0.381923
0.941439
1.13682
0.900199
0.167417
-1.11876
-3.00595
-5.5246
-8.70486
-12.5537
-17.0166
-22.028
-27.4941
-33.1866
-38.9097
-44.5956
-49.7091
-53.888
-57.9204
-60.3779
-58.9983
-55.8364
-50.1604
-44.1968
-38.8748
-34.2952
-30.383
-27.0289
-24.1314
-21.6069
-19.3889
-17.426
-15.6787
-14.1162
-12.714
-11.4524
-10.3147
-9.28656
-8.35561
-7.51101
-6.74324
-6.04391
-5.40564
-4.82192
-4.28705
-3.79602
-3.34447
-2.92859
-2.54508
-2.19104
-1.86412
-1.56178
-1.28311
-1.02386
-0.789561
-0.560297
-0.385287
-0.130372
-0.173561
-36.8642
-42.4571
-48.5071
-53.934
-58.7738
-63.2477
-66.8663
-66.5802
-64.0127
-60.4585
-57.102
-54.0392
-51.2123
-48.5584
-46.0491
-43.6573
-41.3976
-39.3003
-37.2884
-35.5176
-34.1165
-32.6378
-31.3316
-29.8835
-28.2631
-26.529
-24.7015
-22.7981
-20.8402
-18.8519
-16.8561
-14.8736
-12.9234
-11.0253
-9.19964
-7.4645
-5.83554
-4.32786
-2.95598
-1.73701
-0.693823
0.128756
0.656819
0.822186
0.560899
-0.187581
-1.47668
-3.35063
-5.83594
-8.96044
-12.7304
-17.0905
-21.9772
-27.3072
-32.8652
-38.4434
-43.9991
-49.061
-53.1268
-57.0041
-59.6058
-58.344
-55.4211
-49.8757
-43.9704
-38.7062
-34.181
-30.3149
-26.9976
-24.128
-21.6235
-19.4189
-17.4642
-15.721
-14.1598
-12.7573
-11.4944
-10.3548
-9.32455
-8.39153
-7.54498
-6.77542
-6.07447
-5.43477
-4.8498
-4.31383
-3.82183
-3.36942
-2.95275
-2.5685
-2.21372
-1.886
-1.58281
-1.30311
-1.04281
-0.806866
-0.576886
-0.397534
-0.147243
-0.165586
-36.9175
-42.4261
-48.365
-53.6722
-58.4189
-62.8007
-66.2873
-66.1039
-63.6332
-60.2342
-56.9837
-53.995
-51.2197
-48.6011
-46.1163
-43.744
-41.4849
-39.3812
-37.3815
-35.61
-34.242
-32.8129
-31.4845
-30.0198
-28.3872
-26.6415
-24.8037
-22.8918
-20.9273
-18.934
-16.9352
-14.9518
-13.0029
-11.1091
-9.29153
-7.56895
-5.9571
-4.47054
-3.12274
-1.92971
-0.913814
-0.120482
0.376479
0.51215
0.22668
-0.536666
-1.82745
-3.68669
-6.13722
-9.20443
-12.8934
-17.1483
-21.9076
-27.0969
-32.5155
-37.9475
-43.3651
-48.3712
-52.3419
-56.0419
-58.8261
-57.7359
-54.9744
-49.5471
-43.6958
-38.4922
-34.0273
-30.2136
-26.9386
-24.1016
-21.6209
-19.4327
-17.4884
-15.7512
-14.193
-12.7914
-11.5282
-10.3878
-9.35646
-8.42224
-7.57452
-6.80386
-6.10194
-5.46136
-4.87562
-4.33898
-3.84638
-3.39341
-2.9762
-2.5914
-2.23601
-1.90759
-1.60359
-1.32289
-1.06152
-0.823919
-0.593119
-0.409516
-0.163312
-0.158244
-36.9659
-42.3905
-48.2156
-53.405
-58.0615
-62.343
-65.686
-65.5885
-63.2261
-59.9896
-56.8543
-53.9459
-51.2259
-48.6446
-46.1854
-43.8346
-41.5787
-39.4655
-37.4873
-35.6988
-34.3284
-32.9951
-31.6389
-30.1558
-28.5121
-26.7556
-24.9079
-22.9875
-21.0162
-19.0179
-17.0159
-15.0314
-13.0837
-11.1939
-9.38418
-7.67374
-6.07846
-4.61236
-3.28781
-2.11976
-1.13028
-0.365635
0.100565
0.206948
-0.102014
-0.879134
-2.17021
-4.01331
-6.4279
-9.4367
-13.0432
-17.191
-21.8208
-26.8653
-32.1392
-37.4233
-42.6952
-47.6341
-51.5315
-55.045
-58.0496
-57.2251
-54.506
-49.1739
-43.3731
-38.2341
-33.8357
-30.0804
-26.8533
-24.0533
-21.5999
-19.4309
-17.4993
-15.7698
-14.2159
-12.8165
-11.5542
-10.4139
-9.38234
-8.44775
-7.59959
-6.82852
-6.12621
-5.48529
-4.89924
-4.36231
-3.86944
-3.41619
-2.99866
-2.61346
-2.25759
-1.92856
-1.62381
-1.34214
-1.07973
-0.84048
-0.608787
-0.421078
-0.178429
-0.151578
-37.0109
-42.3506
-48.0601
-53.1342
-57.7033
-61.8803
-65.0757
-65.0491
-62.8012
-59.7318
-56.718
-53.8941
-51.2317
-48.6894
-46.2565
-43.9283
-41.679
-39.5527
-37.6139
-35.8369
-34.4046
-33.1568
-31.7922
-30.2919
-28.6379
-26.8712
-25.0138
-23.085
-21.1068
-19.1033
-17.098
-15.1122
-13.1656
-11.2796
-9.47739
-7.7787
-6.19948
-4.75317
-3.45104
-2.30701
-1.34308
-0.60663
-0.170821
-0.093106
-0.42451
-1.21396
-2.50377
-4.32932
-6.70699
-9.65666
-13.1797
-17.2192
-21.7181
-26.6146
-31.7382
-36.8722
-41.9902
-46.8456
-50.6796
-54.0031
-57.155
-56.6934
-53.9566
-48.7418
-43.0004
-37.9328
-33.6078
-29.917
-26.7428
-23.984
-21.5615
-19.4143
-17.4973
-15.7771
-14.2289
-12.8328
-11.5723
-10.4331
-9.40221
-8.46802
-7.62014
-6.84928
-6.14714
-5.50637
-4.92044
-4.38359
-3.89076
-3.43747
-3.01982
-2.63439
-2.27816
-1.94862
-1.64319
-1.3606
-1.09717
-0.856339
-0.623716
-0.432094
-0.1925
-0.145597
-37.0535
-42.3061
-47.8991
-52.861
-57.3461
-61.4175
-64.4681
-64.5033
-62.37
-59.4681
-56.5785
-53.8413
-51.2378
-48.7357
-46.3301
-44.0238
-41.7838
-39.6402
-37.7432
-36.034
-34.51
-33.3045
-31.9433
-30.4285
-28.7647
-26.9883
-25.1214
-23.1841
-21.1989
-19.19
-17.1811
-15.194
-13.2483
-11.366
-9.57096
-7.88364
-6.31999
-4.89283
-3.61228
-2.49131
-1.55214
-0.843441
-0.437554
-0.387551
-0.739895
-1.53988
-2.82674
-4.63333
-6.97325
-9.8633
-13.3024
-17.2332
-21.6006
-26.3471
-31.315
-36.2959
-41.2527
-46.003
-49.7794
-52.9061
-56.0868
-56.0062
-53.2305
-48.2249
-42.5735
-37.5887
-33.3449
-29.7249
-26.6085
-23.8951
-21.5065
-19.3836
-17.4831
-15.7736
-14.2321
-12.8403
-11.5827
-10.4455
-9.41602
-8.48297
-7.63605
-6.866
-6.16456
-5.5244
-4.93898
-4.40256
-3.91004
-3.45695
-3.03936
-2.65386
-2.2974
-1.96745
-1.66144
-1.37803
-1.11365
-0.871319
-0.637769
-0.442465
-0.205475
-0.140282
-37.0916
-42.2569
-47.7334
-52.587
-56.9909
-60.9577
-63.8718
-63.9661
-61.9419
-59.2039
-56.4384
-53.7885
-51.2446
-48.7839
-46.4065
-44.12
-41.8906
-39.7322
-37.8611
-36.2288
-34.6696
-33.4572
-32.0934
-30.5657
-28.8927
-27.1068
-25.2305
-23.2847
-21.2923
-19.2777
-17.2651
-15.2764
-13.3315
-11.4527
-9.66466
-7.98838
-6.43983
-5.03118
-3.77137
-2.67253
-1.75739
-1.07605
-0.699427
-0.675749
-1.04709
-1.85557
-3.13772
-4.924
-7.22536
-10.0555
-13.4106
-17.2327
-21.469
-26.0646
-30.8727
-35.6968
-40.4876
-45.1086
-48.835
-51.769
-54.9134
-55.2375
-52.3353
-47.6128
-42.0907
-37.203
-33.0489
-29.5057
-26.452
-23.7876
-21.4359
-19.3395
-17.4571
-15.7596
-14.2259
-12.8393
-11.5854
-10.4509
-9.42369
-8.49249
-7.64715
-6.87848
-6.17825
-5.53912
-4.95459
-4.4189
-3.92696
-3.4743
-3.05698
-2.67157
-2.31502
-1.9848
-1.67832
-1.39421
-1.12899
-0.885276
-0.650841
-0.452116
-0.217338
-0.135592
-37.1255
-42.203
-47.5634
-52.3128
-56.6387
-60.5036
-63.2929
-63.4456
-61.5236
-58.9433
-56.2994
-53.7366
-51.2525
-48.8338
-46.4859
-44.2171
-42.0016
-39.8397
-37.971
-36.3825
-34.8638
-33.616
-32.2431
-30.704
-29.022
-27.2267
-25.3411
-23.3867
-21.3868
-19.3663
-17.3498
-15.3593
-13.415
-11.5395
-9.75828
-8.09273
-6.55886
-5.16807
-3.92814
-2.85052
-1.95875
-1.30438
-0.956111
-0.956924
-1.34501
-2.15981
-3.43554
-5.20017
-7.4622
-10.2321
-13.5032
-17.2173
-21.3234
-25.7686
-30.4145
-35.0784
-39.7013
-44.1733
-47.8468
-50.6232
-53.6496
-54.4464
-51.3334
-46.919
-41.5579
-36.7786
-32.7218
-29.2612
-26.2746
-23.6628
-21.3506
-19.2827
-17.4198