/*--------------------------------*- C++ -*----------------------------------*\
| =========                 |                                                 |
| \\      /  F ield         | OpenFOAM: The Open Source CFD Toolbox           |
|  \\    /   O peration     | Version:  4.1                                   |
|   \\  /    A nd           | Web:      www.OpenFOAM.org                      |
|    \\/     M anipulation  |                                                 |
\*---------------------------------------------------------------------------*/
FoamFile
{
    version     2.0;
    format      ascii;
    class       surfaceScalarField;
    location    "400";
    object      phi;
}
// * * * * * * * * * * * * * * * * * * * * * * * * * * * * * * * * * * * * * //

dimensions      [0 3 -1 0 0 0 0];

internalField   nonuniform List<scalar> 
52920
(
1822.97
-339.803
2135.43
-312.456
2413.76
-278.335
2632.16
-218.397
2763.79
-131.627
2800.7
-36.9123
2757.03
43.6678
2661.14
95.8944
2546.13
115.005
2429.9
116.228
2317.08
112.821
2208.2
108.879
2102.84
105.362
2000.62
102.221
1901.58
99.0453
1806.47
95.1089
1717.29
89.1791
1637.32
79.9653
1570.48
66.8497
1520.68
49.795
1490.84
29.8393
1481.14
9.70755
1491.57
-10.4383
1523.56
-31.9852
1577.32
-53.7629
1657.65
-80.3261
1766.14
-108.485
1900.32
-134.182
2056.07
-155.75
2229.31
-173.242
2417.1
-187.79
2617.62
-200.524
2829.93
-212.309
3053.73
-223.793
3289.22
-235.49
3537.03
-247.812
3798.08
-261.051
4073.45
-275.367
4364.28
-290.835
4671.8
-307.515
4997.32
-325.522
5342.32
-345.002
5708.38
-366.052
6097.04
-388.662
6509.73
-412.694
6947.58
-437.85
7411.15
-463.566
7899.98
-488.835
8411.99
-512.009
8942.67
-530.673
9484.26
-541.594
10025
-540.751
10548.1
-523.135
11030.7
-482.573
11443.4
-412.667
11752.4
-308.988
11925.9
-173.552
11946.2
-20.27
11815.4
130.772
11556.6
258.867
11209.2
347.399
10816.1
393.062
10410.9
405.183
10014.4
396.493
9637.45
376.972
9284.6
352.849
8957.03
327.567
8654.16
302.872
8374.59
279.575
8116.57
258.016
7878.25
238.317
7657.75
220.501
7453.2
204.551
7262.78
190.424
7084.72
178.057
6917.36
167.358
6759.16
158.206
6608.7
150.452
6464.79
143.916
6326.39
138.4
6192.7
133.691
6063.12
129.571
5937.3
125.829
5815.03
122.264
5696.34
118.697
5581.36
114.972
5470.4
110.959
5363.85
106.556
5262.16
101.686
5165.86
96.2997
5075.49
90.3712
4991.59
83.9015
4914.69
76.9045
4845.23
69.4563
4783.67
61.5565
4730.15
53.5261
4685.17
44.98
4647.95
37.2195
4618.95
28.9962
18.8119
1827.43
-664.608
2122.51
-607.539
2383.09
-538.919
2592.19
-427.495
2726.16
-265.597
2770.54
-81.2874
2732.9
81.3044
2640.6
188.195
2527.94
227.67
2413.56
230.602
2302.39
223.99
2195.08
216.196
2091.25
209.193
1990.61
202.862
1893.39
196.267
1800.71
187.784
1714.94
174.947
1639.08
155.826
1575.13
130.799
1523.59
101.337
1485.9
67.5357
1469.56
26.0409
1489.4
-30.2708
1554.65
-97.2406
1657.22
-156.328
1785.19
-208.297
1927.63
-250.925
2078.32
-284.87
2235.32
-312.756
2398.71
-336.624
2569.15
-358.235
2747.3
-378.67
2933.59
-398.601
3128.39
-418.586
3332.11
-439.216
3545.41
-461.114
3769.21
-484.844
4004.67
-510.826
4253.18
-539.353
4516.36
-570.693
4796.03
-605.191
5094.28
-643.248
5413.38
-685.153
5755.69
-730.975
6123.52
-780.522
6518.96
-833.286
6943.64
-888.248
7398.32
-943.518
7882.27
-995.962
8392.55
-1040.95
8923.32
-1072.36
9465.29
-1082.73
10005.1
-1062.93
10523.9
-1001.37
10995.6
-884.398
11384.8
-698.193
11647.7
-436.428
11745.9
-118.504
11667.3
209.377
11434.3
491.894
11094.6
687.112
10700.4
787.217
10291.9
813.712
9893.13
795.258
9516.18
753.925
9165.77
703.26
8842.7
650.632
8545.88
599.695
8273.36
552.096
8022.9
508.477
7792.2
469.012
7579.03
433.671
7381.25
402.333
7196.85
374.823
7023.98
350.927
6860.96
330.381
6706.29
312.873
6558.7
298.044
6417.12
285.494
6280.72
274.798
6148.9
265.519
6021.24
257.223
5897.57
249.498
5777.87
241.964
5662.29
234.286
5551.08
226.177
5444.64
217.404
5343.4
207.789
5247.88
197.207
5158.59
185.586
5076.06
172.907
5000.75
159.206
4933.1
144.557
4873.4
129.155
4821.88
113.077
4778.43
96.9746
4743.18
80.2307
4715.01
65.3917
4694.67
49.3378
32.6071
1763.52
-970.728
2037.84
-881.863
2280.19
-781.269
2481.42
-628.725
2620.13
-404.305
2675.9
-137.05
2648.89
108.308
2563.72
273.368
2456.02
335.373
2345.67
340.949
2238.1
331.56
2134.2
320.097
2033.74
309.657
1936.54
300.06
1843.09
289.713
1754.89
275.991
1674.06
255.77
1601.7
228.186
1536.67
195.837
1479.44
158.561
1439.31
107.672
1433.27
32.0812
1468
-64.9983
1527.71
-156.952
1587.42
-216.038
1639.69
-260.568
1689.87
-301.107
1747.11
-342.105
1818.43
-384.08
1906.7
-424.89
2011.9
-463.435
2132.78
-499.552
2267.91
-533.734
2416.22
-566.893
2577.23
-600.221
2751.15
-635.04
2938.89
-672.581
3141.85
-713.785
3361.76
-759.267
3600.55
-809.475
3860.23
-864.871
4142.93
-925.952
4450.8
-993.018
4785.84
-1066.02
5149.85
-1144.53
5544.26
-1227.69
5970
-1313.99
6427.2
-1400.72
6914.69
-1483.45
7429.54
-1555.8
7966.62
-1609.44
8518.46
-1634.56
9075
-1619.47
9622.88
-1549.24
10143.6
-1405.17
10610.4
-1164.98
10982.9
-808.897
11209.6
-345.209
11249.9
169.046
11104.5
637.347
10820.5
971.087
10460.1
1147.59
10073.2
1200.62
9690.28
1178.2
9326.74
1117.47
8988.9
1041.1
8678.14
961.384
8393.46
884.383
8132.74
812.813
7893.51
747.706
7673.23
689.294
7469.45
637.45
7279.91
591.877
7102.54
552.191
6935.53
517.939
6777.3
488.609
6626.54
463.636
6482.18
442.403
6343.41
424.265
6209.65
408.558
6080.54
394.628
5955.92
381.846
5835.78
369.628
5720.3
357.451
5609.72
344.864
5504.41
331.491
5404.77
317.041
5311.25
301.305
5224.31
284.155
5144.35
265.545
5071.75
245.508
5006.78
224.167
4949.64
201.706
4900.32
178.475
4858.72
154.678
4824.43
131.264
4797.17
107.49
4775.64
86.9163
4760.37
64.6101
44.3287
1653.65
-1253.04
1902.81
-1131.02
2125.47
-1003.93
2319.57
-822.823
2465.79
-550.518
2537.72
-208.983
2526.4
119.631
2451.76
348.003
2351.17
435.96
2246.34
445.786
2143.43
434.467
2043.73
419.8
1947.24
406.145
1854.11
393.194
1765.25
378.57
1682.12
359.123
1605.36
332.526
1533.9
299.651
1467.48
262.258
1411.7
214.341
1375.33
144.039
1357.08
50.3388
1338.51
-46.4326
1300.05
-118.488
1236.69
-152.678
1170.94
-194.815
1129.65
-259.818
1126.58
-339.042
1161.25
-418.745
1226.19
-489.828
1314.1
-551.35
1420.11
-605.555
1541.49
-655.12
1677.12
-702.521
1826.98
-750.083
1991.92
-799.975
2173.33
-853.995
2372.86
-913.311
2592.09
-978.494
2832.44
-1049.83
3095.24
-1127.67
3381.8
-1212.51
3693.42
-1304.64
4031.32
-1403.92
4396.53
-1509.74
4789.85
-1621.01
5211.72
-1735.86
5661.94
-1850.94
6139.3
-1960.81
6641.1
-2057.6
7162.97
-2131.32
7698.88
-2170.47
8241.4
-2161.99
8781.58
-2089.42
9307.98
-1931.57
9803.8
-1660.8
10239.3
-1244.44
10564.5
-670.311
10718.6
14.9287
10671
684.958
10457.4
1184.6
10145.5
1459.53
9793.46
1552.66
9437.72
1533.94
9096.98
1458.21
8779.16
1358.92
8486.42
1254.13
8218.02
1152.77
7971.99
1058.85
7745.84
973.858
7537.02
898.116
7343.1
831.365
7161.89
773.087
6991.46
722.627
6830.15
679.242
6676.64
642.126
6529.84
610.427
6388.99
583.26
6253.52
559.73
6123.13
538.953
5997.67
520.084
5877.19
502.332
5761.83
484.985
5651.86
467.423
5547.6
449.124
5449.41
429.676
5357.68
408.776
5272.75
386.229
5194.96
361.949
5124.55
335.956
5061.68
308.374
5006.41
279.441
4958.64
249.474
4918.13
218.985
4884.49
188.319
4857.08
158.669
4835.34
129.23
4817.9
104.361
4805.06
77.4521
56.1295
1516.37
-1503.5
1741.85
-1356.51
1946.03
-1208.11
2130.13
-1006.92
2280.54
-700.923
2369.99
-298.432
2379.41
110.207
2319.73
407.684
2229
526.69
2131.24
543.546
2033.8
531.905
1938.61
514.988
1846.21
498.548
1757.34
482.067
1673.2
462.713
1594.33
437.987
1519.92
406.943
1449.65
369.918
1386.62
325.291
1334.61
266.35
1287.85
190.802
1225.6
112.586
1127.71
51.4555
995.295
13.9296
849.422
-6.80483
740.265
-85.6568
698.801
-218.354
716.418
-356.657
770.406
-472.733
845.114
-564.535
933.873
-640.109
1034.63
-706.31
1147.23
-767.724
1272.46
-827.749
1411.69
-889.314
1566.68
-954.962
1739.23
-1026.55
1930.89
-1104.96
2142.73
-1190.33
2375.49
-1282.58
2629.81
-1381.99
2906.49
-1489.19
3206.45
-1604.61
3530.65
-1728.11
3879.93
-1859.01
4254.97
-1996.06
4656.19
-2137.07
5083.4
-2278.15
5535.49
-2412.9
6010.03
-2532.14
6503.04
-2624.33
7009.24
-2676.67
7522.64
-2675.39
8036.94
-2603.73
8545.47
-2440.1
9039.72
-2155.05
9502.06
-1706.78
9892.36
-1060.61
10143.1
-235.796
10191.3
636.725
10051.2
1324.73
9791.9
1718.83
9479.47
1865.09
9155.74
1857.67
8842.2
1771.75
8548.08
1653.04
8276.15
1526.07
8026
1402.93
7795.83
1289.01
7583.34
1186.35
7386.14
1095.32
7201.99
1015.51
7028.92
946.159
6865.24
886.299
6709.61
834.878
6560.95
790.785
6418.5
752.88
6281.73
720.024
6150.37
691.095
6024.3
665.022
5903.58
640.806
5788.37
617.541
5678.92
594.43
5575.54
570.801
5478.56
546.111
5388.28
519.95
5305.02
492.043
5229
462.248
5160.4
430.549
5099.29
397.06
5045.65
362.017
4999.3
325.789
4959.94
288.84
4927.08
251.843
4900.1
215.297
4878.18
180.59
4860.49
146.915
4845.62
119.235
4833.69
89.3786
69.4029
1368.43
-1745.86
1583.84
-1571.92
1774.3
-1398.57
1945.21
-1177.83
2089.49
-845.204
2186.06
-395.006
2212.77
83.4984
2169.87
450.59
2092.18
604.381
2004.33
631.391
1914.4
621.841
1825.06
604.326
1737.69
585.915
1653.71
566.055
1574.08
542.344
1498.43
513.632
1426.28
479.098
1359.47
436.729
1300.45
384.307
1245.62
321.183
1180.81
255.612
1084.58
208.818
944.782
191.252
775.19
183.522
615.024
153.362
529.98
-0.611647
529.103
-217.476
574.235
-401.789
637.17
-535.667
709.184
-636.549
789.277
-720.201
878.269
-795.301
977.466
-866.921
1088.54
-938.823
1213.47
-1014.25
1354.33
-1095.82
1512.9
-1185.11
1690.37
-1282.44
1887.36
-1387.32
2104.14
-1499.36
2341.07
-1618.92
2598.85
-1746.96
2878.37
-1884.13
3180.58
-2030.32
3506.26
-2184.7
3856.01
-2345.81
4230.14
-2511.21
4628.48
-2676.49
5049.97
-2834.39
5492.32
-2974.49
5951.81
-3083.82
6423.56
-3148.42
6902.31
-3154.13
7383.23
-3084.65
7862.42
-2919.3
8337.03
-2629.66
8800.26
-2170.01
9225.88
-1486.22
9552.06
-561.98
9691.34
497.445
9624.89
1391.18
9419.01
1924.71
9147.13
2136.96
8856.6
2148.2
8571.49
2056.86
8302.12
1922.41
8051.71
1776.48
7820.16
1634.47
7605.92
1503.25
7406.94
1385.33
7221.1
1281.16
7046.48
1190.14
6881.39
1111.24
6724.5
1043.19
6574.74
984.632
6431.38
934.151
6293.91
890.351
6162.07
851.863
6035.78
817.382
5915.11
785.687
5800.25
755.669
5691.44
726.35
5588.98
696.891
5493.17
666.609
5404.31
634.975
5322.64
601.617
5248.37
566.319
5181.6
529.016
5122.35
489.793
5070.53
448.88
5025.91
406.646
4988.08
363.612
4956.52
320.401
4930.52
277.849
4909.2
236.614
4891.56
198.227
4876.56
161.923
4862.75
133.039
4850.09
102.044
85.5907
1234.98
-1971.28
1431.91
-1768.85
1607.54
-1574.2
1769.67
-1339.96
1910.47
-986.009
2008.99
-493.519
2043.68
48.8031
2011.2
483.068
1944.63
670.954
1867.39
708.635
1786.54
702.686
1704.79
686.074
1624.01
666.698
1545.76
644.308
1470.56
617.545
1398.1
586.084
1329.33
547.873
1266.43
499.628
1207.99
442.752
1144.91
384.257
1061.25
339.279
941.859
328.208
786.494
346.618
620.239
349.777
490.881
282.722
452.399
37.871
483.968
-249.043
539.18
-457.001
600.494
-596.98
666.485
-702.539
738.531
-792.246
818.119
-874.888
906.857
-955.658
1006.64
-1038.61
1119.61
-1127.21
1247.82
-1224.03
1392.9
-1330.19
1555.75
-1445.29
1736.71
-1568.28
1935.91
-1698.56
2153.73
-1836.75
2391.01
-1984.24
2648.77
-2141.89
2927.94
-2309.49
3229.17
-2485.92
3552.85
-2669.48
3899.1
-2857.46
4267.67
-3045.07
4657.57
-3224.29
5066.66
-3383.58
5491.49
-3508.65
5927.49
-3584.42
6369.82
-3596.46
6814.45
-3529.29
7259.01
-3363.85
7703.86
-3074.51
8150.04
-2616.19
8585.25
-1921.43
8962.74
-939.479
9184.4
275.787
9190.44
1385.15
9037.49
2077.66
8805.53
2368.92
8547.67
2406.07
8290.58
2313.94
8045.56
2167.44
7816.24
2005.79
7602.81
1847.9
7404
1702.06
7218.06
1571.27
7043.22
1455.99
6877.9
1355.46
6720.79
1268.35
6570.88
1193.11
6427.43
1128.08
6289.98
1071.6
6158.3
1022.03
6032.34
977.825
5912.19
937.533
5798.05
899.828
5690.19
863.534
5588.9
827.638
5494.49
791.299
5407.24
753.857
5327.39
714.829
5255.09
673.915
5190.42
630.987
5133.35
586.091
5083.7
539.437
5041.18
491.4
5005.32
442.507
4975.49
393.44
4950.91
344.99
4930.62
298.136
4913.56
253.675
4898.58
213.207
4884.48
176.022
4869.94
147.576
4854.7
117.281
106.057
1090.36
-2172.22
1264.82
-1943.3
1425.6
-1734.98
1582.04
-1496.41
1725.01
-1128.98
1830.85
-599.351
1875
4.6464
1850.44
507.638
1792.13
729.257
1724.21
776.56
1652.58
774.314
1579.37
759.283
1506.22
739.856
1434.23
716.295
1363.73
688.048
1295.23
654.577
1230.55
612.554
1170.23
559.954
1108.74
504.241
1033.87
459.129
931.299
441.848
795.721
463.786
639.954
502.386
498.409
491.324
419.441
361.691
428.641
28.6724
481.721
-302.123
540.027
-515.307
598.858
-655.81
660.691
-764.372
727.544
-859.098
800.955
-948.3
882.538
-1037.24
974.194
-1130.27
1078.02
-1231.03
1195.96
-1341.97
1329.46
-1463.68
1479.25
-1595.09
1645.56
-1734.59
1828.54
-1881.54
2028.75
-2036.96
2247.23
-2202.73
2485.16
-2379.82
2743.38
-2567.71
3022.31
-2764.85
3321.97
-2969.14
3642.18
-3177.67
3982.51
-3385.4
4341.99
-3583.76
4718.67
-3760.26
5109.44
-3899.41
5510.1
-3985.07
5916.16
-4002.52
6324.03
-3937.17
6732
-3771.82
7141.94
-3484.45
7559.97
-3034.22
7985.76
-2347.22
8390.05
-1343.77
8679.62
-13.788
8754.93
1309.84
8653.59
2179
8460.19
2562.32
8233.67
2632.58
8003.42
2544.19
7781.69
2389.17
7572.52
2214.97
7376.37
2044.06
7192.28
1886.15
7018.85
1744.7
6854.7
1620.15
6698.6
1511.56
6549.6
1417.35
6407.02
1335.68
6270.45
1264.65
6139.68
1202.36
6014.71
1147.01
5895.65
1096.88
5782.74
1050.44
5676.27
1006.3
5576.56
963.241
5483.93
920.268
5398.66
876.571
5320.97
831.548
5250.99
784.802
5188.77
736.136
5134.21
685.547
5087.08
633.223
5046.99
579.529
5013.38
525.003
4985.55
470.338
4962.62
416.37
4943.58
364.029
4927.32
314.398
4912.63
268.365
4898.33
227.506
4883.19
191.168
4866.09
164.674
4846.61
136.758
131.895
938.502
-2344.73
1092.39
-2097.19
1239.65
-1882.24
1389.6
-1646.35
1534.76
-1274.13
1650.72
-715.319
1707.82
-52.4527
1691.87
523.59
1640.16
780.968
1579.77
836.956
1516.36
837.721
1451.44
824.206
1385.88
805.41
1320.17
782.008
1254.76
753.457
1190.96
718.381
1130.19
673.324
1070.3
619.844
1002.35
572.186
913.075
548.409
794.246
560.678
653.727
604.305
514.294
641.82
408.512
597.107
382.848
387.357
431.992
-20.4715
495.583
-365.713
553.75
-573.473
610.417
-712.476
669.475
-823.43
732.927
-922.549
802.182
-1017.55
878.746
-1113.8
964.417
-1215.94
1061.17
-1327.79
1170.82
-1451.62
1294.66
-1587.52
1433.33
-1733.76
1587.03
-1888.3
1756.04
-2050.55
1941.12
-2222.03
2143.54
-2405.15
2364.59
-2600.87
2605.03
-2808.15
2864.92
-3024.74
3143.81
-3248.04
3441.07
-3474.93
3755.94
-3700.28
4087.4
-3915.22
4433.73
-4106.59
4792.22
-4257.91
5159.17
-4352.02
5530.45
-4373.8
5902.79
-4309.5
6274.68
-4143.71
6648.32
-3858.1
7032.14
-3418.04
7434.21
-2749.29
7842.57
-1752.13
8182.79
-354.007
8322.62
1170.01
8271.1
2230.53
8114.56
2718.85
7917.77
2829.37
7712.91
2749.05
7513.19
2588.89
7323.06
2405.09
7143.29
2223.83
6973.25
2056.19
6811.9
1906.04
6658.23
1773.82
6511.39
1658.4
6370.79
1557.95
6236.06
1470.42
6107.06
1393.66
5983.82
1325.6
5866.52
1264.3
5755.44
1207.97
5650.91
1154.98
5553.27
1103.93
5462.87
1053.64
5379.99
1003.15
5304.85
951.714
5237.56
898.84
5178.11
844.251
5126.35
787.893
5081.98
729.92
5044.52
670.683
5013.33
610.714
4987.62
550.712
4966.45
491.511
4948.75
434.069
4933.37
379.407
4919.12
328.648
4904.77
282.713
4889.21
243.073
4871.25
209.129
4850.07
185.853
4825.12
161.703
163.76
785.392
-2490.08
926.153
-2237.95
1061.87
-2017.96
1202.4
-1786.88
1345.8
-1417.54
1470.88
-840.393
1543.08
-124.651
1537.85
528.818
1492.44
826.373
1438.26
891.138
1381.74
894.244
1324.02
881.926
1265.22
864.208
1205.39
841.84
1145.29
813.557
1086.34
777.334
1028.39
731.277
966.161
682.07
888.467
649.88
784.527
652.349
656.678
688.528
525.425
735.559
416.644
750.602
349.03
664.722
369.945
366.444
447.942
-98.4676
514.454
-432.224
571.229
-630.247
626.205
-767.452
683.37
-880.595
744.49
-983.669
810.792
-1083.86
883.625
-1186.64
964.64
-1296.95
1055.66
-1418.81
1158.37
-1554.33
1273.98
-1703.13
1403.09
-1862.87
1545.95
-2031.16
1702.96
-2207.57
1875.12
-2394.19
2063.93
-2593.96
2270.81
-2807.74
2496.38
-3033.73
2740.34
-3268.69
3001.68
-3509.38
3279.18
-3752.43
3571.67
-3992.76
3877.97
-4221.52
4196.59
-4425.2
4525.3
-4586.62
4860.97
-4687.69
5199.96
-4712.79
5539.19
-4648.73
5877.16
-4481.68
6215.67
-4196.61
6563.68
-3766.04
6934.82
-3120.44
7330.1
-2147.4
7700.49
-724.404
7897.62
972.88
7893.03
2235.12
7771.2
2840.68
7602.3
2998.28
7421.26
2930.09
7242.26
2767.89
7070.12
2577.23
6905.92
2388.03
6749.37
2212.74
6599.8
2055.61
6456.57
1917.05
6319.2
1795.76
6187.43
1689.73
6061.17
1596.67
5940.54
1514.29
5825.77
1440.37
5717.2
1372.88
5615.2
1309.96
5520.17
1250.01
5432.48
1191.63
5352.41
1133.71
5280.18
1075.37
5215.89
1016.01
5159.48
955.254
5110.73
892.998
5069.27
829.351
5034.55
764.641
5005.85
699.385
4982.29
634.266
4962.9
570.11
4946.56
507.852
4932.11
448.515
4918.36
393.155
4904.14
342.874
4888.28
298.575
4869.79
261.561
4847.63
231.288
4821.28
212.197
4790.12
192.866
201.903
638.441
-2637.23
768.762
-2368.27
892.894
-2142.09
1023.44
-1917.43
1162.15
-1556.24
1293.48
-971.725
1380.99
-212.163
1389.07
520.742
1350.79
864.655
1302.29
939.633
1251.51
945.023
1199.67
933.772
1146.49
917.39
1091.97
896.356
1037.05
868.482
982.312
832.07
925.071
788.518
857.194
749.947
767.821
739.253
653.193
766.978
527.389
814.333
418.179
844.769
347.473
821.308
321.13
691.065
378.507
309.068
468.213
-188.172
533.784
-497.795
588.84
-685.302
642.467
-821.078
698.244
-936.371
757.647
-1043.07
821.701
-1147.91
891.576
-1256.51
968.741
-1374.11
1054.86
-1504.92
1151.49
-1650.96
1259.81
-1811.44
1380.43
-1983.49
1513.68
-2164.42
1660.12
-2354
1820.94
-2555
1997.9
-2770.93
2192.54
-3002.38
2405.37
-3246.55
2635.7
-3499.03
2882.01
-3755.69
3142.45
-4012.87
3415.33
-4265.64
3699.29
-4505.48
3993
-4718.91
4294.74
-4888.36
4602.03
-4994.98
4911.74
-5022.5
5221.05
-4958.04
5528.37
-4789.01
5834.78
-4503.02
6148.27
-4079.53
6484.48
-3456.64
6854.41
-2517.34
7235.41
-1105.4
7481.76
726.529
7521.03
2195.85
7431.76
2929.95
7288.92
3141.11
7130.21
3088.8
6970.72
2927.39
6815.64
2732.31
6666.35
2537.32
6522.9
2356.19
6384.99
2193.52
6252.34
2049.7
6124.81
1923.3
6002.43
1812.11
5885.39
1713.71
5774.02
1625.66
5668.72
1545.67
5569.92
1471.67
5478.07
1401.81
5393.57
1334.51
5316.73
1268.47
5247.77
1202.68
5186.74
1136.4
5133.57
1069.18
5087.97
1000.85
5049.51
931.456
5017.57
861.296
4991.35
790.857
4969.94
720.796
4952.3
651.909
4937.31
585.099
4923.81
521.349
4910.64
461.692
4896.63
407.166
4880.69
358.808
4861.8
317.463
4839.14
284.222
4811.83
258.597
4779.68
244.352
4741.99
230.561
246.207
502.732
-2759.89
612.943
-2478.48
726.556
-2255.7
849.908
-2040.79
983.707
-1690.04
1118.92
-1106.94
1220.75
-313.997
1245
496.499
1215.45
894.204
1172.9
982.182
1127.17
990.752
1080.06
980.878
1031.49
965.962
981.706
946.143
931.36
918.828
879.239
884.191
819.629
848.129
743.187
826.389
643.542
838.899
526.69
883.831
414.673
926.35
334.375
925.069
300.286
855.398
316.326
675.027
400.663
224.732
488.547
-276.055
551.306
-560.553
604.568
-738.564
657.048
-873.557
711.737
-991.06
769.812
-1101.15
832.088
-1210.18
899.527
-1323.95
973.391
-1447.98
1055.17
-1586.7
1146.31
-1742.11
1247.97
-1913.1
1360.81
-2096.33
1485.28
-2288.88
1622.05
-2490.77
1772.54
-2705.5
1938.75
-2937.14
2122.33
-3185.95
2323.7
-3447.92
2541.87
-3717.2
2774.82
-3988.64
3020.16
-4258.2
3275.69
-4521.18
3539.83
-4769.62
3811.34
-4990.43
4088.97
-5165.99
4370.88
-5276.9
4654.52
-5306.14
4937.33
-5240.84
5217.65
-5069.33
5495.76
-4781.13
5778.12
-4361.89
6080.75
-3759.27
6421.23
-2857.82
6796.65
-1480.82
7079.53
443.653
7157.3
2118.07
7097.71
2989.55
6978.97
3259.85
6841.15
3226.63
6700.09
3068.45
6561.3
2871.1
6426.44
2672.18
6295.89
2486.74
6169.7
2319.71
6047.92
2171.48
5930.74
2040.48
5818.45
1924.4
5711.47
1820.68
5610.29
1726.83
5515.43
1640.53
5427.39
1559.72
5346.6
1482.6
5273.41
1407.7
5208.04
1333.84
5150.53
1260.18
5100.76
1186.16
5058.43
1111.52
5023.02
1036.26
4993.85
960.618
4970.1
885.047
4950.8
810.161
4934.88
736.714
4921.23
665.56
4908.7
597.63
4896.14
533.903
4882.46
475.378
4866.59
423.037
4847.57
377.822
4824.54
340.492
4796.87
311.897
4763.86
291.605
4725.63
282.58
4681.46
274.733
296.257
373.974
-2853.71
465.093
-2569.6
569.249
-2359.86
685.466
-2157
812.748
-1817.32
948.198
-1242.39
1061.33
-427.128
1104.6
453.232
1085.74
913.058
1049.95
1017.97
1009.08
1031.62
966.013
1023.95
921.361
1010.61
875.689
991.816
828.703
965.814
776.584
936.31
711.266
913.447
625.503
912.153
521.313
943.089
413.499
991.646
324.476
1015.37
273.101
976.444
267.228
861.272
319.156
623.1
423.095
120.794
506.345
-359.304
565.543
-619.751
617.048
-790.068
668.525
-925.034
722.343
-1044.88
779.388
-1158.19
840.254
-1271.05
905.679
-1389.37
976.697
-1519
1054.59
-1664.59
1140.72
-1828.23
1236.2
-2008.58
1341.78
-2201.92
1458.02
-2405.11
1585.71
-2618.47
1726.48
-2846.27
1882.55
-3093.21
2055.69
-3359.09
2246.26
-3638.49
2453.03
-3923.98
2673.61
-4209.22
2905.15
-4489.74
3145.07
-4761.1
3391.51
-5016.05
3643.28
-5242.2
3899.5
-5422.2
4158.92
-5536.32
4419.57
-5566.79
4679.18
-5500.45
4936.06
-5326.2
5189.83
-5034.91
5445.14
-4617.19
5716.5
-4030.63
6024.66
-3165.98
6382.41
-1838.57
6690.92
135.142
6802.59
2006.4
6769.98
3022.16
6673.48
3356.36
6555.21
3344.89
6431.67
3191.99
6308.58
2994.18
6187.87
2792.89
6070.2
2604.42
5955.95
2433.96
5845.49
2281.94
5739.27
2146.7
5637.84
2025.83
5541.78
1916.74
5451.69
1816.92
5368.15
1724.08
5291.64
1636.22
5222.56
1551.68
5161.12
1469.13
5107.38
1387.59
5061.19
1306.37
5022.21
1225.15
4989.89
1143.84
4963.52
1062.63
4942.21
981.922
4924.99
902.27
4910.78
824.374
4898.46
749.028
4886.92
677.099
4875.05
609.499
4861.79
547.163
4846.14
491.031
4827.17
442.005
4804.08
400.91
4776.18
368.401
4743.01
345.063
4704.1
330.511
4659.87
326.817
4609.57
325.028
351.4
261.471
-2920.21
334.423
-2642.55
427.881
-2453.32
534.913
-2264.03
654.086
-1936.49
786.097
-1374.4
906.234
-547.264
968.269
391.198
960.941
920.386
932.743
1046.17
896.932
1067.43
857.651
1063.23
816.521
1051.74
774.15
1034.19
728.526
1011.44
673.183
991.654
600.049
986.582
507.821
1004.38
408.016
1042.89
319.889
1079.77
259.668
1075.6
234.178
1001.94
244.849
850.602
325.972
541.978
444.044
2.72247
520.248
-435.507
575.413
-674.915
625.258
-839.913
675.875
-975.65
729.025
-1098.03
785.315
-1214.48
845.117
-1330.85
908.934
-1453.19
977.549
-1587.61
1052.03
-1739.07
1133.59
-1909.79
1223.35
-2098.34
1322.13
-2300.69
1430.56
-2513.55
1549.59
-2737.5
1681.02
-2977.7
1827.3
-3239.48
1990.3
-3522.09
2170.35
-3818.55
2366.05
-4119.67
2574.74
-4417.91
2793.3
-4708.3
3018.86
-4986.66
3249.32
-5246.51
3483.49
-5476.37
3720.69
-5659.41
3960.21
-5775.84
4200.62
-5807.19
4439.97
-5739.8
4676.58
-5562.81
4909.54
-5267.87
5141.93
-4849.59
5386.24
-4274.94
5662.97
-3442.72
5994.2
-2169.8
6317.02
-187.675
6457.44
1865.98
6449.22
3030.38
6373.26
3432.32
6273.41
3444.74
6166.64
3298.76
6058.85
3101.97
5952.16
2899.59
5847.51
2709.07
5745.57
2535.91
5646.97
2380.53
5552.42
2241.25
5462.61
2115.64
5378.25
2001.1
5300.01
1895.16
5228.44
1795.64
5163.98
1700.68
5106.87
1608.79
5057.19
1518.82
5014.77
1430
4979.27
1341.88
4950.11
1254.31
4926.55
1167.4
4907.7
1081.48
4892.55
997.064
4880.05
914.77
4869.1
835.328
4858.6
759.527
4847.5
688.204
4834.78
622.22
4819.49
562.451
4800.76
509.756
4777.82
464.947
4750.01
428.717
4716.82
401.595
4678
383.884
4633.28
375.227
4583.36
376.738
4527.54
380.849
410.799
166.47
-2961.12
221.663
-2697.75
302.536
-2534.19
397.322
-2358.82
506.9
-2046.07
634.158
-1501.65
759.003
-672.109
836.946
313.255
840.55
916.782
820.437
1066.29
790.051
1097.82
754.652
1098.63
716.746
1089.65
676.413
1074.52
629.481
1058.37
568.138
1053
487.837
1066.88
395.598
1096.62
309.533
1128.96
247.562
1141.74
217.477
1105.68
216.597
1002.81
241.23
825.97
341.716
441.494
460.685
-116.247
528.536
-503.356
579.943
-726.322
628.367
-888.336
678.311
-1025.59
731.017
-1150.73
786.839
-1270.3
845.935
-1389.95
908.57
-1515.83
975.268
-1654.31
1046.85
-1810.65
1124.37
-1987.31
1208.91
-2182.88
1301.34
-2393.12
1402.4
-2614.6
1513.14
-2848.24
1635.52
-3100.08
1772.21
-3376.18
1925.23
-3675.1
2094.86
-3988.18
2279.55
-4304.37
2476.54
-4614.9
2682.57
-4914.33
2894.61
-5198.69
3110.42
-5462.33
3328.75
-5694.69
3549.01
-5879.67
3770.84
-5997.68
3993.33
-6029.68
4214.88
-5961.35
4433.93
-5781.86
4649.08
-5483.02
4861.81
-5062.31
5082.92
-4496.05
5332.95
-3692.75
5635.89
-2472.74
5961.99
-513.774
6124.04
1703.92
6136.58
3017.84
6079.24
3489.66
5996.73
3527.25
5906.14
3389.34
5813.41
3194.7
5720.77
2992.22
5629.41
2800.43
5540.22
2625.09
5454.08
2466.67
5371.84
2323.49
5294.33
2193.15
5222.32
2073.11
5156.45
1961.03
5097.21
1854.88
5044.91
1752.98
4999.64
1654.06
4961.26
1557.2
4929.41
1461.85
4903.52
1367.77
4882.85
1274.98
4866.5
1183.75
4853.48
1094.51
4842.73
1007.81
4833.19
924.307
4823.81
844.708
4813.58
769.765
4801.52
700.257
4786.76
636.985
4768.46
580.75
4745.89
532.326
4718.41
492.423
4685.54
461.59
4646.93
440.204
4602.55
428.267
4552.35
425.425
4497.29
431.799
4436.73
441.404
473.485
88.63
-2986.62
127.547
-2736.66
194.034
-2600.68
272.507
-2437.29
368.635
-2142.2
488.044
-1621.06
615.968
-800.032
710.029
219.195
724.198
902.613
712.371
1078.11
687.754
1122.43
656.416
1129.97
621.224
1124.84
581.076
1114.67
530.137
1109.31
461.93
1121.21
378.46
1150.35
294.275
1180.81
228.657
1194.58
193.652
1176.75
189.55
1109.78
209.64
982.726
255.135
780.477
365.695
330.934
469.544
-220.094
529.972
-563.784
578.406
-774.756
625.732
-935.661
675.24
-1075.1
727.756
-1203.25
783.415
-1325.96
842.181
-1448.71
904.092
-1577.74
969.409
-1719.62
1038.69
-1879.93
1112.78
-2061.41
1192.7
-2262.8
1279.33
-2479.76
1373.48
-2708.76
1476.3
-2951.05
1589.91
-3213.69
1717.22
-3503.48
1860.34
-3818.22
2019.52
-4147.36
2193.15
-4478
2378.41
-4800.16
2572.08
-5108
2771.12
-5397.74
2973.26
-5664.47
3177.14
-5898.57
3382.16
-6084.69
3588.18
-6203.7
3794.69
-6236.19
4000.47
-6167.13
4204.14
-5985.53
4404.16
-5683.04
4600.55
-5258.7
4801.18
-4696.69
5025.14
-3916.7
5299.1
-2746.71
5621.83
-836.503
5802.11
1523.65
5832.8
2987.15
5792.35
3530.11
5726.19
3593.41
5651.32
3464.22
5573.52
3272.5
5495.07
3070.67
5417.32
2878.18
5341.36
2701.06
5268.22
2539.82
5198.86
2392.85
5134.16
2257.84
5074.89
2132.39
5021.61
2014.31
4974.69
1901.8
4934.28
1793.4
4900.27
1688.07
4872.32
1585.15
4849.88
1484.28
4832.23
1385.42
4818.48
1288.73
4807.67
1194.57
4798.76
1103.41
4790.74
1015.84
4782.58
932.461
4773.34
853.953
4762.1
781.003
4748.03
714.33
4730.35
654.664
4708.36
602.735
4681.46
559.226
4649.16
524.729
4611.12
499.628
4567.2
484.125
4517.56
477.903
4462.41
480.58
4402.93
491.278
4338.58
505.746
538.397
28.0935
-2993.79
54.2409
-2762.81
105.056
-2651.49
164.306
-2496.54
242.944
-2220.83
348.017
-1726.14
475.276
-927.29
587.019
107.452
611.819
877.813
608.19
1081.74
589.479
1141.15
562.166
1157.28
528.682
1158.33
486.492
1156.86
429.921
1165.88
357.058
1194.07
277.087
1230.32
208.002
1249.89
165.026
1237.56
152.776
1189
166.528
1096.03
198.856
950.398
264.595
714.739
381.617
213.912
469.683
-308.159
524.166
-618.267
570.352
-820.942
616.947
-982.256
666.301
-1124.45
718.904
-1255.85
774.709
-1381.76
833.519
-1507.52
895.176
-1639.39
959.686
-1784.13
1027.32
-1947.56
1098.69
-2132.78
1174.67
-2338.78
1256.14
-2561.22
1343.93
-2796.55
1439.25
-3046.38
1544.41
-3318.85
1662.51
-3621.58
1795.78
-3951.49
1944.44
-4296.02
2106.82
-4640.38
2280.18
-4973.52
2461.45
-5289.26
2647.74
-5584.03
2836.86
-5853.58
3027.36
-6089.07
3218.55
-6275.88
3410.33
-6395.48
3602.52
-6428.37
3794.24
-6358.85
3984.32
-6175.61
4171.16
-5869.88
4354.12
-5441.66
4538.82
-4881.38
4739.97
-4117.85
4983.96
-2990.7
5293.94
-1146.48
5490.25
1327.34
5537.86
2939.54
5513.24
3554.73
5462.75
3643.9
5403.27
3523.7
5340.37
3335.4
5276.32
3134.72
5212.53
2941.97
5150.22
2763.37
5090.5
2599.53
5034.4
2448.95
4982.79
2309.46
4936.34
2178.84
4895.51
2055.14
4860.51
1936.79
4831.3
1822.61
4807.59
1711.78
4788.87
1603.87
4774.44
1498.72
4763.45
1396.4
4754.98
1297.2
4748.04
1201.5
4741.66
1109.8
4734.87
1022.63
4726.76
940.563
4716.51
864.212
4703.31
794.203
4686.44
731.193
4665.26
675.849
4639.17
628.824
4607.7
590.7
4570.49
561.934
4527.4
542.724
4478.46
533.06
4424.07
532.296
4364.66
539.993
4301.63
554.306
4234.56
572.811
604.431
-18.0061
-2992.28
-0.65673
-2780.16
34.4309
-2686.58
74.7979
-2536.91
135.301
-2281.34
221.911
-1812.74
341.716
-1047.09
468.588
-19.4191
503.592
842.809
507.79
1077.55
494.791
1154.15
470.987
1181.09
437.67
1191.65
391.533
1203
329.86
1227.56
257.576
1266.35
188.804
1299.1
139.595
1299.1
118.188
1258.96
123.22
1183.97
147.116
1072.14
180.568
916.948
262.874
632.434
385.594
91.1938
461.346
-383.91
511.048
-667.968
555.699
-865.592
601.977
-1028.53
651.474
-1173.95
704.423
-1308.8
760.649
-1437.99
819.843
-1566.71
881.693
-1701.24
945.971
-1848.41
1012.65
-2014.24
1082.05
-2202.18
1154.86
-2411.58
1231.87
-2638.23
1313.91
-2878.59
1402.24
-3134.7
1499.28
-3415.9
1608.36
-3730.66
1731.79
-4074.92
1869.74
-4433.98
2020.57
-4791.2
2181.69
-5134.65
2350.34
-5457.91
2523.92
-5757.62
2700.41
-6030.07
2878.34
-6267.01
3056.83
-6454.37
3235.72
-6574.37
3415
-6607.66
3594.12
-6537.97
3772.17
-6353.66
3947.52
-6045.23
4118.64
-5612.78
4290.06
-5052.8
4474.63
-4302.42
4694.81
-3210.89
4984.2
-1435.87
5190.66
1120.88
5252.55
2877.65
5242.64
3564.64
5207.29
3679.25
5163.01
3567.97
5115.07
3383.34
5065.61
3184.18
5016.07
2991.51
4967.71
2811.73
4921.68
2645.56
4878.98
2491.66
4840.4
2348.03
4806.51
2212.72
4777.62
2084.03
4753.77
1960.65
4734.74
1841.64
4720.08
1726.45
4709.15
1614.81
4701.15
1506.71
4695.22
1402.33
4690.43
1301.99
4685.85
1206.08
4680.58
1115.06
4673.79
1029.42
4664.68
949.667
4652.54
876.352
4636.7
810.049
4616.53
751.36
4591.49
700.892
4561.1
659.214
4525
626.793
4483.01
603.923
4435.15
590.585
4381.68
586.533
4323.19
590.784
4260.36
602.822
4194.77
619.898
4126.12
641.459
670.479
-56.4453
-2986.95
-45.5579
-2791.05
-23.4583
-2708.68
0.761875
-2561.13
43.2365
-2323.81
114.322
-1883.83
224
-1156.77
356.898
-152.316
399.743
799.964
411.164