/*--------------------------------*- C++ -*----------------------------------*\
| =========                 |                                                 |
| \\      /  F ield         | OpenFOAM: The Open Source CFD Toolbox           |
|  \\    /   O peration     | Version:  4.1                                   |
|   \\  /    A nd           | Web:      www.OpenFOAM.org                      |
|    \\/     M anipulation  |                                                 |
\*---------------------------------------------------------------------------*/
FoamFile
{
    version     2.0;
    format      ascii;
    class       volVectorField;
    location    "400";
    object      U;
}
// * * * * * * * * * * * * * * * * * * * * * * * * * * * * * * * * * * * * * //

dimensions      [0 1 -1 0 0 0 0];

internalField   nonuniform List<vector> 
26785
(
(1.77805e-15 -0.118258 13.5459)
(1.79812e-15 -0.0968481 15.6133)
(1.73213e-15 -0.0790262 17.3082)
(2.32427e-15 -0.0524853 18.5454)
(2.09446e-15 -0.0171917 19.173)
(3.20142e-15 0.0184384 19.1156)
(2.42452e-15 0.046716 18.4503)
(2.44018e-15 0.0634708 17.3892)
(1.38313e-15 0.0683543 16.1835)
(3.28035e-15 0.0670197 15.0059)
(2.57625e-15 0.0640011 13.9122)
(2.90137e-15 0.0608328 12.9038)
(2.46031e-15 0.0579049 11.9718)
(2.03673e-15 0.0552254 11.107)
(1.7174e-15 0.0526768 10.3026)
(1.48919e-15 0.050015 9.5555)
(1.33758e-15 0.0467813 8.86754)
(1.10427e-15 0.0424935 8.24789)
(1.17687e-15 0.0368738 7.70975)
(5.52447e-16 0.0296203 7.26633)
(-1.30165e-15 0.0206356 6.92962)
(-9.45312e-16 0.0114371 6.70038)
(-1.74221e-15 0.00483683 6.56701)
(-2.92486e-15 0.00207337 6.52265)
(-2.88153e-15 0.00101133 6.57195)
(-4.54043e-15 -0.00293287 6.72651)
(-4.46863e-15 -0.010345 6.98949)
(-4.49514e-15 -0.0198677 7.34732)
(-4.75656e-15 -0.0296288 7.77994)
(-5.54515e-15 -0.0383713 8.26796)
(-6.51277e-15 -0.0457658 8.79614)
(-7.68481e-15 -0.0519717 9.35439)
(-7.9317e-15 -0.0573138 9.93673)
(-6.97718e-15 -0.0621353 10.54)
(-6.79783e-15 -0.0667434 11.1633)
(-7.82708e-15 -0.0713853 11.8072)
(-8.2065e-15 -0.0762315 12.4734)
(-8.66353e-15 -0.0813739 13.1642)
(-8.89995e-15 -0.0868471 13.8823)
(-9.28378e-15 -0.0926628 14.63)
(-8.87824e-15 -0.0988358 15.4102)
(-8.53595e-15 -0.105382 16.2257)
(-8.46868e-15 -0.112289 17.0797)
(-9.22071e-15 -0.1195 17.9753)
(-9.5908e-15 -0.126907 18.9154)
(-1.02217e-14 -0.134342 19.9018)
(-1.05866e-14 -0.141548 20.9354)
(-1.0611e-14 -0.14812 22.0145)
(-1.06832e-14 -0.153449 23.1343)
(-1.07066e-14 -0.156678 24.2842)
(-1.07207e-14 -0.156678 25.4465)
(-1.07677e-14 -0.152034 26.5947)
(-1.08869e-14 -0.140961 27.6914)
(-1.08585e-14 -0.121399 28.6865)
(-1.06288e-14 -0.0916545 29.5149)
(-1.0524e-14 -0.051323 30.0977)
(-8.98132e-15 -0.00262437 30.3561)
(-8.25456e-15 0.0490808 30.2352)
(-7.74072e-15 0.0981861 29.7256)
(-6.3753e-15 0.139238 28.8738)
(-5.77496e-15 0.16735 27.7738)
(-4.69487e-15 0.181469 26.5404)
(-3.82481e-15 0.184465 25.2726)
(-1.95622e-15 0.180378 24.0354)
(-1.25593e-15 0.17248 22.8628)
(-4.85253e-16 0.162882 21.7686)
(1.45078e-16 0.152793 20.7558)
(6.53966e-16 0.142851 19.8219)
(1.09065e-15 0.13337 18.9616)
(1.33332e-15 0.124495 18.1692)
(2.23154e-15 0.116285 17.4384)
(2.41607e-15 0.108762 16.7633)
(2.62523e-15 0.101933 16.1381)
(2.71505e-15 0.0957892 15.5574)
(2.81834e-15 0.0903166 15.016)
(2.51373e-15 0.0854888 14.5094)
(2.56435e-15 0.081268 14.033)
(2.52954e-15 0.0776038 13.583)
(2.47414e-15 0.0744346 13.156)
(2.39432e-15 0.0716893 12.749)
(2.25676e-15 0.0692906 12.3598)
(2.26586e-15 0.0671586 11.9864)
(2.04987e-15 0.0652142 11.6275)
(1.88086e-15 0.0633824 11.2822)
(1.6985e-15 0.061595 10.9498)
(1.37424e-15 0.0597927 10.6303)
(1.12707e-15 0.0579258 10.3237)
(8.53625e-16 0.0559548 10.0303)
(6.27183e-16 0.0538505 9.75054)
(3.96118e-16 0.0515929 9.485)
(1.0933e-16 0.0491703 9.23427)
(-1.84927e-16 0.0465801 8.99891)
(-4.83526e-16 0.0438226 8.77959)
(-7.87273e-16 0.0409187 8.57654)
(-1.09009e-15 0.0378575 8.39073)
(-1.39212e-15 0.0347461 8.22079)
(-1.71004e-15 0.031426 8.07072)
(-2.01124e-15 0.0283477 7.92939)
(-2.26225e-15 0.0251354 7.82704)
(-2.69456e-15 0.0208975 7.67788)
(1.95312e-15 -0.287736 13.652)
(2.3124e-15 -0.245541 15.588)
(1.59495e-15 -0.203041 17.1347)
(1.8297e-15 -0.135413 18.2653)
(1.51072e-15 -0.0420678 18.88)
(3.2496e-15 0.0569881 18.8841)
(1.56386e-15 0.139854 18.2765)
(2.55439e-15 0.189781 17.2495)
(2.79908e-15 0.204155 16.0645)
(1.62257e-15 0.199962 14.9023)
(2.09885e-15 0.190861 13.8215)
(2.18919e-15 0.181416 12.8245)
(1.98003e-15 0.172751 11.903)
(1.88448e-15 0.164823 11.0481)
(2.45745e-15 0.157169 10.2537)
(3.65917e-16 0.148981 9.51797)
(5.70568e-16 0.138953 8.84513)
(1.57601e-15 0.125819 8.24545)
(7.60552e-16 0.109107 7.72778)
(1.40058e-15 0.0891713 7.29153)
(1.72514e-15 0.0675317 6.93172)
(3.18757e-17 0.0464869 6.65561)
(1.63554e-15 0.0243287 6.51099)
(-2.72431e-16 -0.00329896 6.55762)
(-3.89746e-17 -0.0352255 6.79353)
(-1.20567e-15 -0.0690412 7.15708)
(-3.35582e-15 -0.0980791 7.58182)
(-4.04071e-15 -0.120534 8.02639)
(-4.59039e-15 -0.137132 8.47657)
(-5.89731e-15 -0.149374 8.93184)
(-6.17916e-15 -0.15898 9.39504)
(-4.91045e-15 -0.167245 9.86882)
(-5.09437e-15 -0.175 10.3547)
(-5.13206e-15 -0.182781 10.8536)
(-6.10363e-15 -0.190983 11.3661)
(-7.05547e-15 -0.199915 11.8933)
(-7.25514e-15 -0.209798 12.4372)
(-7.59902e-15 -0.220755 13.0005)
(-7.96572e-15 -0.232846 13.5864)
(-8.22557e-15 -0.246136 14.1989)
(-8.76897e-15 -0.260748 14.8421)
(-7.98881e-15 -0.276853 15.5209)
(-7.91845e-15 -0.294575 16.2404)
(-7.97109e-15 -0.31394 17.006)
(-8.20858e-15 -0.334845 17.8227)
(-8.63143e-15 -0.357021 18.6951)
(-9.44566e-15 -0.379917 19.6264)
(-9.86102e-15 -0.402507 20.6179)
(-1.03387e-14 -0.423082 21.6675)
(-1.05053e-14 -0.439107 22.7683)
(-1.07487e-14 -0.447196 23.9063)
(-1.10666e-14 -0.443176 25.0597)
(-1.14183e-14 -0.421831 26.1979)
(-1.09097e-14 -0.376669 27.2795)
(-1.15251e-14 -0.300658 28.2492)
(-1.20207e-14 -0.188062 29.0319)
(-1.08692e-14 -0.040241 29.5316)
(-9.87415e-15 0.127497 29.6461)
(-1.02218e-14 0.291249 29.3097)
(-9.46301e-15 0.426779 28.555)
(-8.50166e-15 0.51671 27.4931)
(-6.80717e-15 0.559068 26.2658)
(-4.93125e-15 0.564971 24.9931)
(-4.50738e-15 0.548621 23.7512)
(-3.77436e-15 0.521007 22.5788)
(-3.02074e-15 0.488955 21.4908)
(-2.22379e-15 0.456209 20.4893)
(-1.78896e-15 0.424632 19.5704)
(1.91152e-16 0.395059 18.7278)
(7.88755e-16 0.367808 17.9542)
(1.09548e-15 0.342958 17.2424)
(1.75978e-15 0.320483 16.5857)
(1.89906e-15 0.300316 15.9775)
(2.01138e-15 0.282366 15.412)
(1.66683e-15 0.26652 14.8839)
(2.14803e-15 0.252641 14.3884)
(2.23429e-15 0.240566 13.9212)
(2.19757e-15 0.230103 13.4787)
(2.40625e-15 0.221037 13.0579)
(2.39407e-15 0.213134 12.6561)
(2.23849e-15 0.206153 12.2715)
(2.28264e-15 0.199853 11.9026)
(2.14771e-15 0.194 11.5483)
(1.83343e-15 0.188382 11.2081)
(1.53009e-15 0.182807 10.8818)
(1.37245e-15 0.17711 10.5693)
(1.21571e-15 0.171157 10.271)
(9.1017e-16 0.164845 9.98712)
(5e-16 0.158098 9.71829)
(2.07959e-16 0.150868 9.46503)
(-1.04534e-16 0.143135 9.22788)
(-4.12625e-16 0.134906 9.00732)
(-7.33917e-16 0.126206 8.80381)
(-1.00239e-15 0.117122 8.61734)
(-1.30756e-15 0.107673 8.44858)
(-1.62106e-15 0.0981959 8.2956)
(-1.93442e-15 0.0883219 8.16219)
(-2.25149e-15 0.0794101 8.03605)
(-2.51387e-15 0.0699884 7.94741)
(-2.94408e-15 0.0593179 7.81226)
(1.94419e-15 -0.472698 13.2175)
(2.37707e-15 -0.409199 15.0053)
(1.9827e-15 -0.33691 16.4102)
(1.41984e-15 -0.230295 17.461)
(1.31507e-15 -0.0835267 18.0937)
(2.68931e-15 0.0782099 18.1953)
(9.85362e-16 0.219976 17.693)
(2.03497e-15 0.307365 16.7396)
(1.86868e-15 0.333535 15.6045)
(1.88115e-15 0.327582 14.4814)
(1.83543e-15 0.312972 13.4342)
(1.80498e-15 0.297579 12.4676)
(1.76618e-15 0.283374 11.5742)
(1.70475e-15 0.270292 10.7459)
(1.86806e-15 0.257481 9.97756)
(9.80919e-16 0.243442 9.2693)
(7.04803e-17 0.225988 8.62699)
(9.42526e-16 0.203788 8.05684)
(4.39986e-16 0.178 7.55314)
(2.24578e-15 0.150241 7.10142)
(8.60974e-17 0.118659 6.71384)
(1.94175e-15 0.0766793 6.45353)
(5.16121e-15 0.0186384 6.3917)
(1.68251e-15 -0.0455114 6.48839)
(-2.11591e-16 -0.0983516 6.62865)
(-1.14948e-15 -0.13774 6.73732)
(-3.34125e-15 -0.164022 6.81517)
(-4.50689e-15 -0.183534 6.89638)
(-4.17595e-15 -0.200865 7.01625)
(-3.98486e-15 -0.217489 7.19243)
(-3.94733e-15 -0.233709 7.42627)
(-2.94241e-15 -0.249444 7.71152)
(-3.39429e-15 -0.264693 8.0403)
(-4.1456e-15 -0.279678 8.40586)
(-4.82328e-15 -0.29484 8.80367)
(-4.92411e-15 -0.310745 9.23175)
(-5.65324e-15 -0.327961 9.69064)
(-6.18742e-15 -0.346943 10.1828)
(-6.22748e-15 -0.368026 10.7122)
(-6.4786e-15 -0.391494 11.2828)
(-6.85197e-15 -0.417657 11.8994)
(-6.85669e-15 -0.44684 12.5663)
(-6.8419e-15 -0.479248 13.2879)
(-7.1902e-15 -0.514879 14.0683)
(-7.64554e-15 -0.553503 14.9107)
(-8.07393e-15 -0.59462 15.8173)
(-8.29985e-15 -0.637296 16.789)
(-8.36173e-15 -0.679858 17.8248)
(-8.45904e-15 -0.719585 18.9209)
(-8.64828e-15 -0.752506 20.0695)
(-8.90924e-15 -0.77344 21.2572)
(-9.15683e-15 -0.776184 22.4655)
(-9.40438e-15 -0.753162 23.67)
(-9.78615e-15 -0.694695 24.8403)
(-1.05815e-14 -0.588971 25.9376)
(-1.05911e-14 -0.422391 26.9078)
(-1.05359e-14 -0.187297 27.673)
(-1.16681e-14 0.100776 28.1261)
(-1.09129e-14 0.401362 28.1377)
(-1.12263e-14 0.659033 27.6565)
(-1.04254e-14 0.833049 26.7747)
(-9.11756e-15 0.917331 25.6566)
(-7.68228e-15 0.933026 24.4517)
(-6.62917e-15 0.907264 23.2573)
(-4.61904e-15 0.860784 22.1231)
(-3.72881e-15 0.806294 21.0694)
(-3.45013e-15 0.750674 20.1007)
(-2.94654e-15 0.697302 19.2136)
(-2.45897e-15 0.647659 18.4016)
(-1.84835e-15 0.602277 17.657)
(-1.32801e-15 0.561245 16.9721)
(-7.7247e-16 0.524456 16.3396)
(-7.95163e-16 0.491718 15.7528)
(-8.75562e-16 0.462796 15.2057)
(-4.74692e-16 0.43742 14.6932)
(-1.58659e-16 0.415285 14.2105)
(7.02052e-17 0.396053 13.7539)
(2.58828e-16 0.379353 13.3202)
(4.21207e-16 0.364794 12.9068)
(5.39249e-16 0.351967 12.5118)
(6.05689e-16 0.340468 12.1337)
(5.94665e-16 0.329903 11.7716)
(6.25811e-16 0.319904 11.4248)
(6.12552e-16 0.310141 11.0932)
(4.72332e-16 0.300322 10.7766)
(3.0579e-16 0.290205 10.4754)
(1.08087e-16 0.279598 10.1897)
(-1.2112e-16 0.268356 9.92005)
(-3.95372e-16 0.256385 9.6668)
(-6.07592e-16 0.243636 9.43033)
(-8.69365e-16 0.23011 9.21094)
(-1.15529e-15 0.215858 9.00875)
(-1.42603e-15 0.200964 8.82384)
(-1.75283e-15 0.185619 8.65568)
(-2.04709e-15 0.169919 8.50446)
(-2.32727e-15 0.154423 8.36757)
(-2.6029e-15 0.138663 8.24862)
(-2.88282e-15 0.124766 8.13387)
(-3.12037e-15 0.11 8.05509)
(-3.48086e-15 0.0954466 7.92526)
(1.97675e-15 -0.644842 12.4294)
(2.03336e-15 -0.554566 14.0367)
(2.09874e-15 -0.457212 15.2933)
(1.15744e-15 -0.322695 16.2769)
(1.23682e-15 -0.1331 16.9521)
(3.02249e-17 0.0855412 17.1893)
(7.43985e-16 0.286163 16.8407)
(1.74224e-15 0.41348 15.9965)
(1.20355e-15 0.453105 14.9346)
(1.37162e-15 0.446326 13.867)
(1.37874e-15 0.426876 12.8662)
(1.46771e-15 0.406043 11.9399)
(1.44366e-15 0.386697 11.083)
(1.56444e-15 0.368741 10.2886)
(2.42099e-15 0.350818 9.55407)
(1.89173e-15 0.330742 8.88185)
(1.61156e-15 0.306256 8.2749)
(2.37439e-15 0.277492 7.72748)
(3.80825e-15 0.246737 7.22583)
(2.43372e-15 0.211814 6.77455)
(2.48204e-15 0.16338 6.41605)
(2.49835e-15 0.0948574 6.17721)
(3.23353e-15 0.0164032 6.00061)
(1.57002e-15 -0.0485881 5.76803)
(4.72595e-16 -0.0896056 5.42917)
(-3.2778e-16 -0.121616 5.04158)
(-1.66996e-15 -0.152321 4.72335)
(-1.62011e-15 -0.188137 4.5514)
(-1.6324e-15 -0.227401 4.53819)
(-2.15961e-15 -0.265092 4.65338)
(-1.96642e-15 -0.29881 4.86002)
(-1.28708e-15 -0.328485 5.13147)
(-2.35954e-15 -0.355061 5.45178)
(-3.04126e-15 -0.379776 5.81243)
(-4.61953e-15 -0.403945 6.20987)
(-3.39159e-15 -0.428861 6.64401)
(-4.20315e-15 -0.455654 7.11717)
(-5.45812e-15 -0.485136 7.63283)
(-3.80422e-15 -0.517795 8.19448)
(-4.12927e-15 -0.553932 8.80493)
(-5.01784e-15 -0.593832 9.46631)
(-3.68574e-15 -0.6378 10.1804)
(-3.72607e-15 -0.685976 10.9489)
(-5.57446e-15 -0.738239 11.7734)
(-6.39426e-15 -0.79418 12.6548)
(-6.53469e-15 -0.853084 13.5935)
(-6.01742e-15 -0.913716 14.589)
(-5.45524e-15 -0.973913 15.6394)
(-5.49047e-15 -1.03018 16.7407)
(-5.84152e-15 -1.07749 17.8855)
(-6.05895e-15 -1.10937 19.0624)
(-5.8038e-15 -1.11832 20.2556)
(-6.06636e-15 -1.09548 21.4461)
(-7.03804e-15 -1.02949 22.6122)
(-7.62405e-15 -0.906129 23.7295)
(-8.90134e-15 -0.706672 24.7651)
(-8.66082e-15 -0.412605 25.6677)
(-1.11376e-14 -0.0279682 26.3521)
(-1.21115e-14 0.408259 26.6731)
(-1.32443e-14 0.808888 26.4845)
(-1.24352e-14 1.0918 25.8209)
(-1.20154e-14 1.23651 24.8515)
(-1.0474e-14 1.27322 23.7505)
(-9.33649e-15 1.24427 22.6343)
(-8.02186e-15 1.18234 21.5639)
(-7.53633e-15 1.1074 20.565)
(-6.36237e-15 1.03024 19.6448)
(-5.18184e-15 0.956156 18.8012)
(-4.33643e-15 0.887487 18.0281)
(-3.51277e-15 0.825059 17.318)
(-3.38074e-15 0.768988 16.6634)
(-2.84932e-15 0.719066 16.0571)
(-2.91679e-15 0.674935 15.4926)
(-2.31868e-15 0.636166 14.9642)
(-1.45979e-15 0.60228 14.4672)
(-1.47284e-15 0.572764 13.9974)
(-1.20196e-15 0.547074 13.5517)
(-1.24798e-15 0.524641 13.1274)
(-1.07814e-15 0.504889 12.7226)
(-9.52822e-16 0.487245 12.3359)
(-8.98374e-16 0.471153 11.9663)
(-8.8284e-16 0.456095 11.6133)
(-9.2029e-16 0.441595 11.2766)
(-8.03566e-16 0.427237 10.9561)
(-8.55373e-16 0.412667 10.6521)
(-9.66611e-16 0.397599 10.3646)
(-1.16975e-15 0.381816 10.094)
(-1.41263e-15 0.365171 9.84053)
(-1.65541e-15 0.347585 9.60434)
(-1.8159e-15 0.329044 9.38552)
(-2.0947e-15 0.3096 9.18401)
(-2.26614e-15 0.289378 8.99953)
(-2.46066e-15 0.268552 8.83172)
(-2.73786e-15 0.247417 8.67959)
(-2.99735e-15 0.226168 8.54294)
(-3.23986e-15 0.205539 8.41855)
(-3.46047e-15 0.185005 8.31017)
(-3.65819e-15 0.167259 8.20251)
(-3.83758e-15 0.148483 8.12998)
(-4.0656e-15 0.131879 7.99995)
(2.04346e-15 -0.804617 11.4176)
(1.64324e-15 -0.69163 12.851)
(1.44013e-15 -0.577223 13.9927)
(1.51504e-15 -0.425233 14.9079)
(1.08518e-15 -0.203598 15.5981)
(2.06962e-15 0.0664079 15.965)
(1.00391e-16 0.329167 15.8084)
(1.094e-15 0.503183 15.1139)
(1.05302e-15 0.560568 14.1508)
(1.20844e-15 0.555157 13.1542)
(1.26628e-15 0.53211 12.2089)
(9.63977e-16 0.506617 11.3284)
(1.73255e-15 0.482617 10.5108)
(2.0479e-15 0.459933 9.75306)
(3.0702e-15 0.436694 9.05597)
(2.44032e-15 0.410703 8.42139)
(1.41321e-15 0.380719 7.84372)
(2.55852e-15 0.347553 7.31168)
(3.14983e-15 0.311137 6.82637)
(3.53808e-15 0.265608 6.41027)
(2.48713e-15 0.20497 6.07038)
(2.83008e-15 0.135511 5.73935)
(4.06861e-15 0.0727178 5.29447)
(2.77471e-15 0.0266574 4.68291)
(1.42406e-15 -0.00683472 3.96857)
(3.52761e-16 -0.0555747 3.33771)
(-3.05257e-15 -0.122094 2.98457)
(-3.33044e-15 -0.197463 2.91225)
(-1.24772e-15 -0.266618 3.01629)
(-2.9099e-15 -0.323236 3.21164)
(-3.41429e-15 -0.369302 3.45799)
(-4.97657e-15 -0.40837 3.74073)
(-5.80085e-15 -0.443318 4.05563)
(-4.46202e-15 -0.476355 4.40271)
(-4.2208e-15 -0.509367 4.7844)
(-4.24598e-15 -0.544017 5.20465)
(-3.7736e-15 -0.581604 5.66792)
(-3.68964e-15 -0.622882 6.17798)
(-3.89771e-15 -0.66813 6.737)
(-3.87451e-15 -0.717431 7.34555)
(-4.2733e-15 -0.77098 8.00339)
(-5.04664e-15 -0.82912 8.71046)
(-6.39985e-15 -0.892047 9.46728)
(-6.9987e-15 -0.959637 10.2746)
(-6.54362e-15 -1.03143 11.1329)
(-5.87865e-15 -1.1066 12.0425)
(-5.3253e-15 -1.18372 13.0027)
(-4.91575e-15 -1.26021 14.0121)
(-4.59689e-15 -1.3319 15.0668)
(-4.55805e-15 -1.39279 16.1604)
(-4.60474e-15 -1.4353 17.2822)
(-4.6484e-15 -1.45095 18.4182)
(-5.38197e-15 -1.43021 19.5522)
(-6.28982e-15 -1.36109 20.6673)
(-6.9692e-15 -1.22831 21.7477)
(-7.9747e-15 -1.01041 22.777)
(-8.28651e-15 -0.679454 23.7275)
(-9.13061e-15 -0.223867 24.5447)
(-8.97857e-15 0.330316 25.1062)
(-1.02678e-14 0.881317 25.1958)
(-9.81888e-15 1.29157 24.7571)
(-1.12921e-14 1.51238 23.9472)
(-1.08389e-14 1.5801 22.962)
(-9.85367e-15 1.55405 21.9367)
(-9.11631e-15 1.48062 20.9418)
(-7.36135e-15 1.38811 20.0079)
(-6.83418e-15 1.29174 19.1441)
(-5.61063e-15 1.19898 18.3497)
(-4.96294e-15 1.11314 17.6193)
(-3.57464e-15 1.03539 16.946)
(-3.2489e-15 0.965882 16.3227)
(-2.83892e-15 0.904297 15.7429)
(-3.12523e-15 0.85009 15.2006)
(-2.50124e-15 0.802615 14.6908)
(-1.58048e-15 0.761167 14.2094)
(-9.8988e-16 0.72501 13.753)
(-6.67408e-16 0.69339 13.3189)
(-8.44011e-16 0.665548 12.9053)
(-8.42584e-16 0.640739 12.5108)
(-1.01616e-15 0.618243 12.1344)
(-1.13553e-15 0.597385 11.7756)
(-8.39046e-16 0.577547 11.4341)
(-9.72462e-16 0.558183 11.1099)
(-9.32327e-16 0.538823 10.803)
(-9.12106e-16 0.519085 10.5135)
(-1.07099e-15 0.498671 10.2416)
(-1.30087e-15 0.47737 9.98751)
(-1.55414e-15 0.455059 9.75113)
(-1.80391e-15 0.431697 9.53241)
(-2.12161e-15 0.407325 9.33113)
(-2.37341e-15 0.382063 9.1469)
(-2.60385e-15 0.356115 8.97906)
(-2.77695e-15 0.329747 8.82689)
(-3.01009e-15 0.303359 8.68899)
(-3.24483e-15 0.277244 8.56488)
(-3.46771e-15 0.252272 8.45078)
(-3.68455e-15 0.227915 8.35068)
(-3.86419e-15 0.207291 8.24763)
(-4.08485e-15 0.185605 8.17938)
(-4.29566e-15 0.168599 8.04579)
(1.9659e-15 -0.969463 10.2449)
(1.39881e-15 -0.826904 11.6563)
(1.72434e-15 -0.69316 12.7465)
(9.7937e-16 -0.525802 13.5992)
(1.08438e-15 -0.280851 14.2486)
(1.10105e-15 0.0286425 14.6542)
(5.29025e-17 0.348027 14.6437)
(-4.01388e-16 0.57262 14.1068)
(1.72216e-16 0.65246 13.2663)
(1.87857e-15 0.651684 12.3629)
(1.68233e-15 0.627239 11.4896)
(1.26151e-15 0.598539 10.6657)
(2.59357e-15 0.570703 9.89481)
(2.69188e-15 0.543524 9.17937)
(2.84925e-15 0.515142 8.52282)
(2.76309e-15 0.484215 7.92261)
(3.15272e-15 0.45013 7.36872)
(3.78708e-15 0.412235 6.85887)
(3.37692e-15 0.368515 6.40702)
(3.50373e-15 0.315844 6.01635)
(4.74243e-15 0.256388 5.64423)
(5.25321e-15 0.203577 5.20274)
(2.72212e-15 0.167748 4.59851)
(3.98571e-15 0.141125 3.82935)
(1.46049e-15 0.103532 3.00948)
(-9.17807e-16 0.0102649 2.42055)
(-1.78116e-15 -0.112466 2.24802)
(-4.26976e-15 -0.224745 2.33162)
(-2.13612e-15 -0.310368 2.50557)
(-4.11555e-15 -0.37482 2.71259)
(-4.90501e-15 -0.426933 2.94167)
(-6.31097e-15 -0.472367 3.19338)
(-7.07054e-15 -0.51451 3.47061)
(-6.61694e-15 -0.555788 3.7774)
(-5.5637e-15 -0.598272 4.11881)
(-4.00973e-15 -0.643697 4.50044)
(-4.50629e-15 -0.693223 4.92718)
(-5.31059e-15 -0.747259 5.40204)
(-5.84315e-15 -0.805689 5.92567)
(-5.60131e-15 -0.868353 6.49698)
(-6.88207e-15 -0.935454 7.11459)
(-8.30045e-15 -1.00751 7.77799)
(-8.15717e-15 -1.08487 8.48775)
(-8.15069e-15 -1.16743 9.24476)
(-7.3264e-15 -1.25468 10.0496)
(-6.25528e-15 -1.34566 10.9022)
(-5.60188e-15 -1.43876 11.802)
(-5.00478e-15 -1.53102 12.7475)
(-4.6227e-15 -1.6176 13.7351)
(-4.67811e-15 -1.69161 14.7585)
(-5.12294e-15 -1.74442 15.808)
(-6.23252e-15 -1.76674 16.8704)
(-7.47215e-15 -1.74875 17.931)
(-8.49935e-15 -1.67855 18.9753)
(-9.40778e-15 -1.54125 19.9924)
(-1.02869e-14 -1.31549 20.976)
(-1.07567e-14 -0.96735 21.9164)
(-1.11672e-14 -0.468073 22.7891)
(-9.28197e-15 0.174959 23.5136)
(-8.7624e-15 0.875295 23.8568)
(-8.52388e-15 1.42996 23.6431)
(-1.00629e-14 1.74292 22.9954)
(-1.00104e-14 1.85177 22.1286)
(-9.46324e-15 1.83463 21.1972)
(-8.27241e-15 1.75372 20.2813)
(-6.97184e-15 1.64675 19.4154)
(-5.97548e-15 1.53383 18.6106)
(-4.4709e-15 1.42478 17.8669)
(-3.68797e-15 1.32393 17.18)
(-2.4264e-15 1.23281 16.5436)
(-2.51336e-15 1.15161 15.9515)
(-2.21826e-15 1.07989 15.3979)
(-2.01678e-15 1.0169 14.8776)
(-1.67897e-15 0.961787 14.3866)
(-1.88521e-15 0.91361 13.9213)
(-1.75788e-15 0.871421 13.4791)
(-1.44656e-15 0.83427 13.0582)
(-1.47332e-15 0.801228 12.6571)
(-1.34058e-15 0.771405 12.275)
(-1.23108e-15 0.743965 11.9112)
(-1.16858e-15 0.718143 11.5656)
(-1.29372e-15 0.693257 11.238)
(-1.26554e-15 0.66872 10.9285)
(-1.67891e-15 0.644041 10.6373)
(-1.64748e-15 0.618834 10.3643)
(-1.65471e-15 0.592818 10.1096)
(-1.7611e-15 0.565811 9.87315)
(-1.92617e-15 0.537731 9.65474)
(-2.11775e-15 0.508594 9.45403)
(-2.32715e-15 0.478508 9.27048)
(-2.639e-15 0.447674 9.10337)
(-2.87399e-15 0.416386 8.95168)
(-3.07355e-15 0.385011 8.81433)
(-3.32581e-15 0.354055 8.68951)
(-3.61297e-15 0.323916 8.57644)
(-3.82925e-15 0.295566 8.4708)
(-4.04439e-15 0.268518 8.37689)
(-4.24102e-15 0.246142 8.27598)
(-4.37546e-15 0.222822 8.20988)
(-4.52751e-15 0.206966 8.06904)
(2.08192e-15 -1.11854 9.23744)
(1.75391e-15 -0.960771 10.5288)
(1.41181e-15 -0.808427 11.5264)
(7.45045e-16 -0.626176 12.3385)
(5.16318e-16 -0.360157 12.9869)
(1.82124e-15 -0.017965 13.4224)
(1.23779e-15 0.349648 13.4908)
(1.09249e-15 0.623424 13.0547)
(1.9603e-15 0.727283 12.3152)
(1.90176e-15 0.733487 11.5066)
(9.29959e-16 0.710067 10.7157)
(2.66448e-15 0.680113 9.95988)
(2.51403e-15 0.649699 9.2464)
(2.63471e-15 0.618826 8.58152)
(3.14757e-15 0.586306 7.96786)
(3.20727e-15 0.551688 7.39999)
(2.5031e-15 0.513798 6.8728)
(3.75818e-15 0.470415 6.39449)
(4.52111e-15 0.420812 5.97198)
(3.96724e-15 0.366947 5.57868)
(6.12033e-15 0.316492 5.15289)
(2.15963e-15 0.284436 4.61453)
(1.68358e-15 0.27315 3.92383)
(3.64365e-15 0.256408 3.13634)
(2.44871e-15 0.205034 2.41712)
(1.36957e-15 0.053405 2.02763)
(-1.71959e-15 -0.122427 2.03475)
(-3.61783e-15 -0.255905 2.19009)
(-2.98777e-15 -0.347704 2.3712)
(-3.31034e-15 -0.416029 2.56236)
(-6.26065e-15 -0.472746 2.76695)
(-6.86158e-15 -0.523804 2.9894)
(-7.14797e-15 -0.572663 3.23406)
(-7.04436e-15 -0.621935 3.50602)
(-7.37354e-15 -0.673842 3.8112)
(-6.37448e-15 -0.730089 4.15556)
(-6.59683e-15 -0.791543 4.5438)
(-7.55143e-15 -0.858143 4.97815)
(-7.72459e-15 -0.929345 5.45833)
(-6.79438e-15 -1.00481 5.98266)
(-7.72158e-15 -1.08487 6.5497)
(-7.52315e-15 -1.17031 7.15947)
(-8.3653e-15 -1.26163 7.81316)
(-8.01399e-15 -1.35869 8.51196)
(-7.06294e-15 -1.46086 9.2563)
(-6.39584e-15 -1.56704 10.0457)
(-6.06228e-15 -1.67544 10.879)
(-5.40306e-15 -1.78279 11.7544)
(-4.93064e-15 -1.88367 12.6684)
(-5.19503e-15 -1.97033 13.6154)
(-5.85302e-15 -2.03319 14.5862)
(-7.27524e-15 -2.06215 15.5684)
(-7.98107e-15 -2.04728 16.5485)
(-8.16947e-15 -1.97714 17.5135)
(-8.12454e-15 -1.83769 18.4547)
(-8.68066e-15 -1.60945 19.3718)
(-9.12789e-15 -1.25683 20.2666)
(-1.2423e-14 -0.737165 21.1359)
(-1.27451e-14 -0.0354406 21.9462)
(-1.20181e-14 0.798108 22.5026)
(-1.03825e-14 1.50848 22.5093)
(-9.44496e-15 1.9287 22.0237)
(-8.62158e-15 2.08853 21.274)
(-9.21469e-15 2.08606 20.4352)
(-8.38328e-15 2.00152 19.5975)
(-7.84896e-15 1.88317 18.7991)
(-6.06617e-15 1.75641 18.0525)
(-4.18894e-15 1.63354 17.3588)
(-4.16573e-15 1.5199 16.7145)
(-3.36136e-15 1.41738 16.1142)
(-3.66851e-15 1.3262 15.5526)
(-3.12731e-15 1.24579 15.0248)
(-2.95228e-15 1.17521 14.5267)
(-2.931e-15 1.11339 14.0548)
(-2.94879e-15 1.05917 13.6066)
(-2.95137e-15 1.01142 13.1801)
(-3.0793e-15 0.969013 12.774)
(-3.13347e-15 0.930885 12.3874)
(-2.93293e-15 0.896029 12.0199)
(-2.66537e-15 0.863526 11.6711)
(-2.66543e-15 0.832551 11.3411)
(-2.46974e-15 0.802387 11.0298)
(-2.56262e-15 0.772431 10.7374)
(-2.82766e-15 0.742199 10.4639)
(-2.83345e-15 0.711325 10.2092)
(-2.89828e-15 0.67956 9.97332)
(-2.95977e-15 0.646772 9.75588)
(-3.04186e-15 0.612938 9.55646)
(-3.17205e-15 0.578144 9.37441)
(-3.34123e-15 0.542584 9.20884)
(-3.58234e-15 0.506551 9.05867)
(-3.80579e-15 0.470441 8.92246)
(-3.9878e-15 0.434728 8.79873)
(-4.1889e-15 0.400018 8.68528)
(-4.37651e-15 0.366813 8.58105)
(-4.55155e-15 0.336137 8.48127)
(-4.70688e-15 0.307573 8.3907)
(-4.79421e-15 0.284558 8.2889)
(-4.87597e-15 0.260877 8.22227)
(-4.89274e-15 0.247461 8.07054)
(2.25963e-15 -1.2703 8.16201)
(1.99104e-15 -1.09053 9.28842)
(1.58217e-15 -0.923165 10.1855)
(1.05566e-15 -0.732723 10.9725)
(9.0901e-17 -0.449089 11.6574)
(1.21198e-16 -0.0745506 12.1685)
(6.48548e-16 0.339855 12.3451)
(2.22948e-15 0.661892 12)
(1.51788e-15 0.788361 11.3399)
(1.51844e-15 0.801239 10.6139)
(1.80425e-15 0.779851 9.90384)
(1.86117e-15 0.750046 9.22124)
(2.0227e-15 0.718358 8.57281)
(2.33049e-15 0.685144 7.9639)
(2.73604e-15 0.649983 7.39459)
(3.53893e-15 0.612653 6.86139)
(4.72861e-15 0.570965 6.36727)
(4.68655e-15 0.522715 5.92188)
(4.33411e-15 0.47053 5.5147)
(4.98029e-15 0.420995 5.09894)
(4.8139e-15 0.385063 4.60717)
(2.088e-15 0.374642 3.98519)
(1.50144e-15 0.380305 3.25821)
(4.53949e-15 0.356043 2.52898)
(3.74069e-15 0.272045 1.99917)
(1.0952e-15 0.0665376 1.86282)
(-3.2674e-16 -0.145639 2.00717)
(-3.52487e-15 -0.287381 2.19095)
(-4.00182e-15 -0.380815 2.36709)
(-5.35727e-15 -0.451498 2.54504)
(-8.58445e-15 -0.511834 2.73274)
(-8.51723e-15 -0.567607 2.9352)
(-8.24191e-15 -0.622348 3.15695)
(-7.85052e-15 -0.678868 3.40325)
(-7.72321e-15 -0.739521 3.68016)
(-7.60529e-15 -0.805916 3.99354)
(-8.32734e-15 -0.87856 4.34773)
(-8.56669e-15 -0.956885 4.74445)
(-7.75937e-15 -1.03995 5.18306)
(-6.17327e-15 -1.12734 5.66187)
(-6.29207e-15 -1.21959 6.17998)
(-6.59404e-15 -1.31781 6.73825)
(-7.28485e-15 -1.42258 7.33863)
(-6.92714e-15 -1.53363 7.98256)
(-6.46973e-15 -1.65006 8.67)
(-6.09795e-15 -1.7706 9.3996)
(-5.66036e-15 -1.89332 10.1693)
(-5.34258e-15 -2.01474 10.9765)
(-4.99446e-15 -2.12898 11.8179)
(-4.95942e-15 -2.22754 12.6883)
(-5.16188e-15 -2.29992 13.5794)
(-5.71e-15 -2.33524 14.4801)
(-5.87481e-15 -2.32345 15.3779)
(-6.0515e-15 -2.2538 16.2608)
(-5.99181e-15 -2.11344 17.121)
(-6.20792e-15 -1.88567 17.961)
(-5.02789e-15 -1.53675 18.7895)
(-6.78552e-15 -1.01374 19.6171)
(-8.86977e-15 -0.279135 20.4507)
(-1.2156e-14 0.658033 21.1599)
(-1.27507e-14 1.52889 21.3738)
(-1.18784e-14 2.07066 21.0477)
(-1.04e-14 2.29135 20.4121)
(-9.36168e-15 2.30917 19.6628)
(-8.46362e-15 2.22471 18.9005)
(-7.78939e-15 2.09794 18.1671)
(-6.53068e-15 1.95998 17.4766)
(-4.8235e-15 1.82567 16.8311)
(-4.25289e-15 1.70138 16.2278)
(-3.76345e-15 1.58933 15.6625)
(-3.84156e-15 1.48975 15.1307)
(-3.51607e-15 1.40195 14.6286)
(-3.18022e-15 1.32481 14.1528)
(-2.89227e-15 1.25705 13.7009)
(-2.71646e-15 1.19735 13.2709)
(-2.67099e-15 1.14438 12.8617)
(-2.90546e-15 1.09691 12.4724)
(-3.13119e-15 1.05374 12.1025)
(-3.03412e-15 1.0138 11.7519)
(-3.01371e-15 0.976098 11.4205)
(-2.8449e-15 0.939793 11.1085)
(-2.78958e-15 0.904155 10.8158)
(-2.95171e-15 0.868592 10.5427)
(-2.99847e-15 0.832644 10.2889)
(-3.34547e-15 0.795988 10.0544)
(-3.55945e-15 0.758431 9.83878)
(-3.71026e-15 0.719908 9.64149)
(-3.84336e-15 0.680477 9.46175)
(-3.96996e-15 0.640315 9.29853)
(-4.17478e-15 0.599714 9.15054)
(-4.34442e-15 0.559071 9.01626)
(-4.44271e-15 0.518889 8.89387)
(-4.5853e-15 0.47974 8.78151)
(-4.72907e-15 0.442306 8.67666)
(-4.88548e-15 0.407171 8.57815)
(-4.99965e-15 0.375347 8.48093)
(-5.05189e-15 0.346496 8.39034)
(-5.08674e-15 0.323925 8.2845)
(-5.09808e-15 0.301108 8.21466)
(-5.0545e-15 0.290996 8.04916)
(1.9483e-15 -1.4067 7.02195)
(2.06449e-15 -1.21124 7.99513)
(1.43387e-15 -1.03751 8.81515)
(7.74838e-16 -0.846637 9.57563)
(1.31297e-15 -0.552196 10.2897)
(6.10551e-16 -0.148519 10.8854)
(-8.48584e-16 0.313295 11.2006)
(7.37904e-16 0.688075 10.963)
(1.21876e-15 0.83796 10.3743)
(7.575e-16 0.856796 9.71792)
(1.81814e-15 0.837385 9.08016)
(1.72613e-15 0.808295 8.4682)
(1.79225e-15 0.776364 7.88528)
(2.03904e-15 0.742253 7.33245)
(2.42731e-15 0.705829 6.80823)
(3.58473e-15 0.666486 6.31385)
(4.14649e-15 0.621492 5.85668)
(4.2702e-15 0.570288 5.43884)
(2.91904e-15 0.519761 5.03181)
(2.24601e-15 0.480157 4.5769)
(3.18903e-15 0.461999 4.01269)
(8.27143e-17 0.468577 3.33922)
(2.43095e-15 0.478877 2.64498)
(2.2202e-15 0.432262 2.05083)
(-3.08676e-15 0.303876 1.73201)
(-2.45343e-16 0.0502912 1.83239)
(-7.45686e-16 -0.177584 2.05284)
(-4.28062e-15 -0.3183 2.24228)
(-7.28546e-15 -0.411058 2.41121)
(-6.4938e-15 -0.483329 2.57945)
(-8.65061e-15 -0.546663 2.75555)
(-8.55473e-15 -0.606491 2.94418)
(-7.42688e-15 -0.666419 3.14957)
(-7.55141e-15 -0.729464 3.37677)
(-8.19796e-15 -0.798101 3.63163)
(-7.88226e-15 -0.87382 3.91971)
(-9.10858e-15 -0.956747 4.24501)
(-8.26136e-15 -1.04582 4.60901)
(-6.31498e-15 -1.13977 5.01101)
(-4.58412e-15 -1.23816 5.44963)
(-5.21797e-15 -1.34184 5.92466)
(-4.4962e-15 -1.45224 6.43788)
(-5.42582e-15 -1.56994 6.99201)
(-5.62764e-15 -1.69438 7.58858)
(-5.60903e-15 -1.82429 8.22692)
(-5.04642e-15 -1.95811 8.90443)
(-4.28464e-15 -2.09383 9.61767)
(-3.66377e-15 -2.22789 10.3631)
(-3.4437e-15 -2.35411 11.137)
(-3.29664e-15 -2.46341 11.9348)
(-3.46696e-15 -2.54449 12.7492)
(-3.51101e-15 -2.58568 13.5706)
(-3.87937e-15 -2.57673 14.3879)
(-4.26237e-15 -2.50758 15.1902)
(-4.61981e-15 -2.36659 15.9699)
(-4.69829e-15 -2.1399 16.7302)
(-2.66542e-15 -1.7983 17.4833)
(-3.13445e-15 -1.28485 18.2452)
(-3.37761e-15 -0.543041 19.0495)
(-5.68205e-15 0.463493 19.8469)
(-8.12155e-15 1.4925 20.2476)
(-1.03497e-14 2.16938 20.077)
(-1.09088e-14 2.46124 19.5516)
(-1.06564e-14 2.5051 18.8878)
(-9.10787e-15 2.42431 18.1973)
(-8.35915e-15 2.29195 17.5258)
(-7.38767e-15 2.1453 16.8888)
(-5.95212e-15 2.00179 16.2894)
(-5.26148e-15 1.86882 15.7255)
(-4.67755e-15 1.74894 15.1941)
(-4.70576e-15 1.64239 14.6916)
(-4.37373e-15 1.54833 14.2151)
(-3.9884e-15 1.4655 13.7622)
(-3.36789e-15 1.39244 13.3313)
(-2.44496e-15 1.32766 12.9211)
(-2.04419e-15 1.26974 12.5308)
(-2.65851e-15 1.2173 12.1603)
(-2.76318e-15 1.16909 11.8093)
(-3.03334e-15 1.12397 11.4779)
(-3.18334e-15 1.08095 11.1663)
(-3.05598e-15 1.03916 10.8746)
(-3.06814e-15 0.997889 10.6028)
(-3.08555e-15 0.95659 10.351)
(-3.43608e-15 0.914852 10.1187)
(-3.46947e-15 0.872416 9.90577)
(-3.55198e-15 0.829168 9.71137)
(-3.72562e-15 0.785131 9.53461)
(-3.90037e-15 0.740463 9.37432)
(-4.09049e-15 0.695443 9.22904)
(-4.2647e-15 0.650467 9.09705)
(-4.4242e-15 0.606031 8.97645)
(-4.56433e-15 0.562722 8.86509)
(-4.60767e-15 0.521188 8.7609)
(-4.65041e-15 0.482149 8.66123)
(-4.70611e-15 0.446228 8.56491)
(-4.76796e-15 0.414372 8.46686)
(-4.82168e-15 0.386321 8.37312)
(-4.88392e-15 0.365086 8.2606)
(-4.90131e-15 0.344142 8.18534)
(-4.91987e-15 0.337796 8.00439)
(1.96477e-15 -1.53203 5.8317)
(1.91948e-15 -1.32859 6.73152)
(1.72059e-15 -1.15086 7.51115)
(1.4512e-15 -0.962977 8.23353)
(2.99369e-15 -0.6648 8.94315)
(2.40777e-15 -0.238147 9.5993)
(3.73709e-15 0.268127 10.0604)
(2.06746e-15 0.701447 9.95299)
(1.71188e-15 0.877531 9.43887)
(1.63419e-15 0.902147 8.84399)
(1.24539e-15 0.884286 8.26925)
(1.68201e-15 0.855933 7.72081)
(2.44817e-15 0.824425 7.19788)
(3.53607e-16 0.790508 6.69725)
(1.93576e-15 0.753743 6.21799)
(2.4281e-15 0.712973 5.76508)
(3.31113e-15 0.665865 5.34402)
(3.25442e-15 0.614708 4.94375)
(2.06701e-15 0.570602 4.52004)
(1.4896e-15 0.545323 4.01208)