/*--------------------------------*- C++ -*----------------------------------*\
| =========                 |                                                 |
| \\      /  F ield         | OpenFOAM: The Open Source CFD Toolbox           |
|  \\    /   O peration     | Version:  4.1                                   |
|   \\  /    A nd           | Web:      www.OpenFOAM.org                      |
|    \\/     M anipulation  |                                                 |
\*---------------------------------------------------------------------------*/
FoamFile
{
    version     2.0;
    format      ascii;
    class       volScalarField;
    location    "600";
    object      p;
}
// * * * * * * * * * * * * * * * * * * * * * * * * * * * * * * * * * * * * * //

dimensions      [0 2 -2 0 0 0 0];

internalField   nonuniform List<scalar> 
26785
(
400.825
409.033
412.859
412.045
408.158
401.69
394.944
387.551
381.128
375.354
370.863
368.127
367.162
368.271
371.666
377.299
385.101
394.962
406.784
420.242
434.832
449.904
464.766
478.702
491.481
502.927
508.35
505.112
494.432
476.905
450.639
414.86
369.937
317.115
258.694
196.652
133.172
71.1215
13.1209
-38.8455
-82.9481
-117.309
-140.451
-151.952
-152.676
-144.617
-130.708
-113.035
-92.9198
-71.534
-49.9328
-28.8223
-8.50978
10.9417
29.5659
47.4036
64.4572
80.628
95.8742
109.992
123.749
137.708
151.887
154.862
140.395
124.668
104.821
81.9643
55.8253
25.2185
-10.4136
-52.0395
-100.251
-155.481
-217.673
-286.157
-359.454
-435.214
-510.318
-581.159
-644.032
-695.533
-732.853
-753.925
-757.458
-742.918
-710.331
-659.968
-592.173
-507.827
-408.138
-294.116
-166.031
-27.0608
113.223
255.465
418.135
544.958
507.262
408.18
400.838
409.052
412.905
412.062
408.09
401.61
394.948
387.542
381.114
375.337
370.836
368.096
367.127
368.23
371.62
377.25
385.049
394.904
406.722
420.179
434.771
449.848
464.722
478.678
491.405
502.575
507.94
504.746
493.929
476.196
450.275
414.988
370.086
317.039
258.42
196.305
132.834
70.7961
12.7674
-39.2607
-83.4351
-117.853
-141.02
-152.5
-153.159
-145.004
-131.031
-113.304
-93.1346
-71.7036
-50.077
-28.9596
-8.65313
10.7839
29.3895
47.2098
64.2519
80.4184
95.6615
109.715
123.202
136.26
150.166
153.607
139.535
124.036
104.34
81.5512
55.4628
24.8599
-10.7926
-52.4728
-100.77
-156.121
-218.475
-287.165
-360.705
-436.732
-512.1
-583.177
-646.241
-697.88
-735.29
-756.423
-760.006
-745.541
-713.095
-662.935
-595.393
-511.42
-412.233
-298.87
-171.819
-34.3163
105.185
246.742
400.923
514.822
473.195
351.699
400.754
408.988
412.852
412.049
407.932
401.559
394.981
387.518
381.086
375.307
370.786
368.039
367.06
368.152
371.533
377.156
384.948
394.795
406.608
420.064
434.663
449.756
464.664
478.679
491.405
502.257
507.416
504.218
493.353
475.586
449.919
415.029
370.102
316.769
257.905
195.686
132.205
70.1516
12.0522
-40.0932
-84.3957
-118.912
-142.117
-153.553
-154.088
-145.75
-131.648
-113.813
-93.5359
-72.0182
-50.3448
-29.2169
-8.92522
10.4798
29.0443
46.8232
63.8321
79.9745
95.1953
109.128
122.281
133.946
146.995
151.141
138.009
122.775
103.354
80.7026
54.7094
24.1134
-11.5855
-53.3804
-101.856
-157.465
-220.162
-289.29
-363.354
-439.959
-515.908
-587.515
-651.012
-702.967
-740.586
-761.848
-765.52
-751.15
-718.89
-669.087
-602.075
-518.884
-420.779
-308.877
-184.051
-49.8112
86.6351
225.366
369.352
465.803
422.068
292.468
400.589
408.851
412.758
412.096
407.74
401.496
395.032
387.477
381.045
375.258
370.71
367.951
366.957
368.031
371.399
377.013
384.797
394.631
406.439
419.897
434.506
449.62
464.567
478.64
491.358
501.914
506.856
503.668
492.759
474.894
449.334
414.697
369.751
316.193
257.147
194.839
131.312
69.1918
10.9702
-41.3435
-85.8235
-120.477
-143.735
-155.112
-155.478
-146.884
-132.583
-114.577
-94.129
-72.4745
-50.7257
-29.5781
-9.30681
10.0499
28.5493
46.2579
63.2009
79.2835
94.4453
108.211
121.052
131.327
143.326
147.856
135.793
120.888
101.859
79.416
53.5589
22.9693
-12.8096
-54.7899
-103.553
-159.57
-222.811
-292.627
-367.506
-445
-521.832
-594.226
-658.351
-710.751
-748.65
-770.084
-773.883
-759.65
-727.625
-678.285
-612.008
-529.922
-433.367
-323.593
-201.901
-72.1308
59.142
191.19
321.878
401.716
360.845
242.189
400.303
408.607
412.61
412.113
407.65
401.39
395.114
387.42
380.992
375.193
370.608
367.835
366.822
367.873
371.224
376.825
384.599
394.416
406.218
419.681
434.306
449.446
464.437
478.568
491.272
501.568
506.302
503.109
492.189
474.207
448.665
414.171
369.225
315.508
256.292
193.827
130.155
67.8907
9.49768
-43.0248
-87.7226
-122.544
-145.865
-157.163
-157.317
-148.395
-133.826
-115.584
-94.9039
-73.0657
-51.2143
-30.0372
-9.79024
9.50364
27.9151
45.5238
62.3634
78.3403
93.3913
106.945
119.485
128.553
139.363
143.805
132.806
118.373
99.8542
77.686
51.9994
21.4112
-14.4862
-56.7284
-105.896
-162.483
-226.484
-297.26
-373.277
-452.01
-530.068
-603.552
-668.541
-721.543
-759.81
-781.448
-785.378
-771.272
-739.466
-690.64
-625.267
-544.567
-449.971
-342.909
-225.112
-100.647
24.3246
147.809
264.206
330.311
296.54
200.375
399.885
408.252
412.389
411.994
407.803
401.19
395.259
387.345
380.924
375.112
370.478
367.69
366.652
367.674
371.002
376.588
384.35
394.149
405.944
419.415
434.062
449.235
464.273
478.462
491.151
501.225
505.779
502.582
491.66
473.537
447.947
413.501
368.529
314.662
255.253
192.569
128.685
66.2307
7.63205
-45.1352
-90.0912
-125.114
-148.508
-159.71
-159.611
-150.294
-135.386
-116.839
-95.8627
-73.7913
-51.8074
-30.5884
-10.3674
8.85105
27.1536
44.6338
61.3308
77.1509
92.0265
105.323
117.537
125.62
135.137
139.015
129.07
115.258
97.3471
75.512
50.02
19.4219
-16.6383
-59.2241
-108.918
-166.25
-231.24
-303.27
-380.771
-461.114
-540.75
-615.613
-681.664
-735.371
-774.022
-795.828
-799.829
-785.775
-754.084
-705.71
-641.27
-562.061
-469.59
-365.481
-251.88
-133.085
-15.089
98.8362
201.121
256.852
235.685
165.167
399.448
407.78
412.087
411.754
408.256
400.83
395.491
387.247
380.829
375.015
370.32
367.515
366.448
367.435
370.737
376.303
384.052
393.83
405.619
419.103
433.777
448.989
464.082
478.331
491.012
500.905
505.313
502.117
491.192
472.915
447.218
412.737
367.705
313.682
254.049
191.086
126.925
64.226
5.37797
-47.6773
-92.9357
-128.192
-151.671
-162.758
-162.363
-152.587
-137.266
-118.343
-97.0045
-74.6498
-52.5024
-31.2271
-11.0312
8.10159
26.2766
43.6026
60.1205
75.7328
90.3609
103.35
115.182
122.497
130.764
133.685
124.686
111.594
94.3578
72.8968
47.6099
16.9816
-19.2925
-62.3098
-112.662
-170.921
-237.15
-310.75
-390.108
-472.458
-554.038
-630.566
-697.847
-752.302
-791.276
-813.111
-817.003
-802.797
-771.002
-722.863
-659.216
-581.373
-490.891
-389.547
-279.809
-166.155
-54.6199
50.3057
139.898
187.82
182.327
135.362
398.941
407.213
411.707
411.493
408.89
400.275
395.808
387.124
380.697
374.903
370.133
367.31
366.208
367.155
370.425
375.969
383.703
393.459
405.243
418.743
433.452
448.709
463.863
478.178
490.861
500.616
504.914
501.729
490.8
472.365
446.506
411.918
366.784
312.581
252.679
189.375
124.871
61.8734
2.7303
-50.6588
-96.2666
-131.792
-155.368
-166.317
-165.585
-155.286
-139.478
-120.101
-98.3312
-75.6415
-53.298
-31.9494
-11.7753
7.26417
25.2961
42.4461
58.7535
74.1123
88.4197
101.048
112.419
119.155
126.266
128.011
119.764
107.44
90.9103
69.8413
44.7539
14.0653
-22.4817
-66.0249
-117.173
-176.556
-244.287
-319.796
-401.409
-486.176
-570.054
-648.47
-717.03
-772.098
-811.106
-832.588
-835.958
-821.198
-789.006
-740.817
-677.775
-601.08
-512.331
-413.392
-306.899
-197.385
-90.9554
6.90053
86.6984
129.078
138.289
109.883
398.375
406.549
411.228
411.239
409.475
399.559
396.193
386.984
380.527
374.77
369.917
367.072
365.932
366.833
370.067
375.584
383.303
393.036
404.816
418.338
433.088
448.399
463.622
478.011
490.712
500.371
504.596
501.437
490.499
471.909
445.838
411.076
365.792
311.374
251.151
187.44
122.529
59.1752
-0.313512
-54.0883
-100.097
-135.93
-159.614
-170.405
-169.288
-158.401
-142.029
-122.12
-99.8464
-76.7684
-54.194
-32.7528
-12.5945
6.34715
24.2236
41.1803
57.2521
72.3205
86.2398
98.4495
109.274
115.561
121.591
122.107
114.401
102.853
87.0253
66.3409
41.4305
10.641
-26.2452
-70.4153
-122.506
-183.216
-252.727
-330.502
-414.784
-502.373
-588.843
-669.234
-738.89
-794.13
-832.561
-853.04
-855.3
-839.561
-806.942
-758.772
-696.361
-620.805
-533.745
-437.04
-333.323
-226.99
-124.08
-30.72
43.2621
82.7882
101.36
87.518
397.745
405.787
410.606
410.891
409.79
398.855
396.626
386.842
380.325
374.614
369.672
366.802
365.619
366.468
369.661
375.148
382.85
392.559
404.337
417.887
432.686
448.059
463.36
477.833
490.573
500.179
504.371
501.252
490.308
471.559
445.235
410.239
364.752
310.074
249.473
185.288
119.902
56.1324
-3.75801
-57.977
-104.446
-140.628
-164.434
-175.041
-173.491
-161.949
-144.933
-124.407
-101.555
-78.0332
-55.1912
-33.6355
-13.484
5.35824
23.0705
39.821
55.6394
70.3912
83.8664
95.6002
105.785
111.696
116.71
116.053
108.692
97.8818
82.7158
62.3824
37.6099
6.66953
-30.6286
-75.5308
-128.714
-190.963
-262.543
-342.953
-430.318
-521.088
-610.307
-692.485
-762.661
-817.212
-854.171
-872.954
-873.774
-857.229
-824.685
-777.028
-715.494
-641.314
-556.15
-461.818
-360.814
-257.193
-156.687
-65.6363
6.36253
46.0847
67.1054
67.5204
397.062
404.922
409.814
410.346
409.693
398.418
397.085
386.699
380.101
374.426
369.396
366.497
365.267
366.059
369.206
374.659
382.342
392.03
403.807
417.391
432.246
447.69
463.081
477.652
490.453
500.049
504.247
501.189
490.243
471.333
444.72
409.428
363.684
308.694
247.652
182.925
116.995
52.7459
-7.60902
-62.339
-109.333
-145.911
-169.853
-180.249
-178.213
-165.944
-148.2
-126.969
-103.461
-79.4399
-56.2913
-34.5965
-14.4401
4.30452
21.8476
38.3837
53.9376
68.3581
81.3486
92.5545
102.007
107.562
111.624
109.917
102.728
92.5747
77.984
57.9422
33.2527
2.10434
-35.6824
-81.4241
-135.853
-199.856
-273.799
-357.217
-448.052
-542.25
-634.109
-717.459
-787.113
-839.885
-874.669
-891.688
-891.595
-875.063
-843.163
-796.335
-735.88
-663.265
-580.195
-488.453
-390.345
-289.458
-191.007
-101.135
-28.4678
14.4626
34.4815
50.3786
396.343
403.963
408.861
409.642
409.271
398.461
397.549
386.547
379.863
374.202
369.087
366.158
364.875
365.606
368.7
374.116
381.779
391.445
403.226
416.849
431.77
447.295
462.786
477.471
490.36
499.988
504.233
501.257
490.316
471.245
444.31
408.666
362.607
307.247
245.701
180.36
113.813
49.0163
-11.8738
-67.191
-114.784
-151.809
-175.902
-186.058
-183.473
-170.404
-151.843
-129.816
-105.573
-80.9928
-57.4963
-35.6352
-15.4595
3.1925
20.565
36.8829
52.168
66.2531
78.7359
89.3728
98.0048
103.181
106.33
103.749
96.5978
86.9707
72.8187
52.9859
28.311
-3.10738
-41.4611
-88.149
-143.975
-209.947
-286.547
-373.33
-467.951
-565.614
-659.597
-743.02
-810.906
-861.184
-893.959
-910.055
-910.002
-894.027
-862.914
-816.881
-757.495
-686.427
-605.469
-516.392
-421.295
-323.275
-226.949
-138.07
-63.8208
-15.8312
5.00996
36.2835
395.564
402.933
407.774
408.848
408.691
399.12
397.985
386.376
379.616
373.935
368.739
365.782
364.442
365.105
368.142
373.517
381.159
390.806
402.592
416.262
431.256
446.873
462.478
477.294
490.299
500.004
504.338
501.467
490.543
471.309
444.023
407.971
361.539
305.749
243.63
177.601
110.364
44.9441
-16.561
-72.5526
-120.827
-158.357
-182.615
-192.498
-189.296
-175.344
-155.875
-132.955
-107.896
-82.6972
-58.8087
-36.7517
-16.5394
2.02826
19.2326
35.3329
50.3507
64.1062
76.0754
86.1165
93.8521
98.5822
100.808
97.579
90.3764
81.0909
67.1944
47.4708
22.7314
-9.02196
-48.0204
-95.7574
-153.127
-221.278
-300.82
-391.286
-489.87
-590.706
-685.831
-767.978
-833.252
-881.242
-912.977
-929.203
-929.765
-914.326
-883.753
-838.284
-779.773
-710.074
-631.096
-544.597
-452.469
-357.312
-263.111
-175.159
-99.298
-46.0971
-21.4576
23.7082
394.741
401.869
406.604
408.041
408.179
400.411
398.339
386.172
379.358
373.616
368.348
365.365
363.966
364.557
367.531
372.86
380.479
390.11
401.906
415.629
430.707
446.425
462.158
477.125
490.276
500.103
504.568
501.83
490.935
471.54
443.878
407.364
360.498
304.213
241.452
174.659
106.652
40.5289
-21.6814
-78.447
-127.497
-165.592
-190.029
-199.604
-195.707
-180.784
-160.309
-136.397
-110.438
-84.5582
-60.2312
-37.946
-17.6773
0.817445
17.8598
33.7471
48.5046
61.9447
73.4109
82.8459
89.628
93.7873
95.0265
91.4081
84.1004
74.927
61.0755
41.3527
16.4612
-15.6942
-55.4137
-104.297
-163.35
-233.877
-316.621
-411.012
-513.516
-616.831
-711.782
-791.561
-854.215
-900.805
-932.548
-949.514
-950.729
-935.535
-905.139
-859.974
-802.093
-733.536
-656.342
-572.257
-482.972
-390.599
-298.445
-211.223
-133.638
-75.3517
-44.8887
12.322
393.893
400.839
405.442
407.301
407.938
402.074
398.531
385.917
379.081
373.235
367.906
364.903
363.443
363.96
366.865
372.143
379.738
389.358
401.167
414.951
430.12
445.952
461.828
476.966
490.296
500.291
504.932
502.356
491.506
471.95
443.896
406.869
359.502
302.656
239.18
171.544
102.684
35.7699
-27.2477
-84.9008
-134.83
-173.56
-198.187
-207.413
-202.732
-186.743
-165.157
-140.151
-113.208
-86.5812
-61.7661
-39.2181
-18.8708
-0.434622
16.4553
32.1383
46.6474
59.7937
70.7815
79.6187
85.4141
88.8146
88.9389
85.206
77.7556
68.446
54.431
34.5975
9.45812
-23.1702
-63.6863
-113.807
-174.672
-247.756
-333.92
-432.351
-538.442
-643.173
-736.649
-813.634
-874.317
-920.503
-952.933
-970.675
-972.254
-957.072
-926.642
-881.586
-824.098
-756.439
-680.787
-598.893
-512.253
-422.527
-332.339
-245.71
-166.303
-102.902
-65.4488
2.09797
393.157
399.925
404.426
406.712
408.017
403.66
398.523
385.591
378.778
372.783
367.406
364.39
362.871
363.312
366.142
371.366
378.933
388.546
400.374
414.226
429.497
445.455
461.489
476.821
490.364
500.572
505.435
503.055
492.268
472.552
444.088
406.502
358.569
301.091
236.826
168.266
98.4669
30.6657
-33.275
-91.9449
-142.871
-182.308
-207.135
-215.968
-210.399
-193.238
-170.434
-144.227
-116.212
-88.771
-63.4155
-40.568
-20.1176
-1.72287
15.0274
30.5183
44.7954
57.6762
68.2227
76.491
81.2849
83.6916
82.5443
78.9518
71.2978
61.6188
47.2559
27.1957
1.7011
-31.4785
-72.8691
-124.314
-187.106
-262.903
-352.637
-455.051
-564.081
-668.971
-760.061
-834.487
-894.06
-940.63
-973.927
-992.16
-993.856
-978.673
-948.154
-903.029
-845.689
-778.648
-704.247
-624.254
-539.985
-452.681
-364.315
-278.186
-197.012
-128.597
-83.5974
-7.3739
392.516
399.235
403.708
406.366
408.322
404.838
398.295
385.172
378.444
372.255
366.846
363.822
362.247
362.61
365.362
370.526
378.065
387.676
399.527
413.455
428.838
444.933
461.141
476.692
490.482
500.951
506.084
503.935
493.232
473.359
444.468
406.28
357.717
299.537
234.406
164.838
94.0068
25.2135
-39.781
-99.6147
-151.667
-191.893
-216.921
-225.314
-218.739
-200.29
-176.151
-148.636
-119.46
-91.132
-65.1811
-41.9955
-21.4154
-3.0424
13.584
28.8981
42.9635
55.6124
65.7671
73.517
77.308
78.4562
76.0578
72.6782
64.7021
54.4573
39.5905
19.174
-6.79924
-40.6215
-82.9707
-135.823
-200.646
-279.275
-372.639
-478.768
-589.827
-693.686
-782.041
-854.503
-913.768
-961.141
-995.144
-1013.68
-1015.5
-1000.42
-969.793
-924.391
-866.919
-800.168
-726.675
-648.242
-566.01
-480.828
-394.049
-308.276
-225.439
-152.236
-99.3495
-16.1416
392.033
398.809
403.363
406.304
408.492
405.48
397.887
384.644
378.078
371.655
366.226
363.198
361.567
361.854
364.522
369.622
377.133
386.745
398.625
412.636
428.141
444.386
460.786
476.579
490.654
501.434
506.887
505.008
494.412
474.384
445.051
406.219
356.964
298.008
231.933
161.27
89.3099
19.4095
-46.7865
-107.95
-161.274
-202.375
-227.601
-235.502
-227.786
-207.921
-182.324
-153.388
-122.958
-93.6681
-67.064
-43.4998
-22.7615
-4.38826
12.1324
27.2877
41.1648
53.6198
63.4431
70.7472
73.5794
73.1969
69.9337
66.4659
58.0083
47.0351
31.5218
10.5989
-15.9949
-50.5687
-93.9713
-148.316
-215.259
-296.795
-393.733
-503.1
-615.132
-717.064
-802.807
-873.983
-933.558
-981.79
-1016.36
-1035.31
-1037.48
-1022.61
-991.791
-945.861
-887.92
-821.078
-748.108
-670.864
-590.309
-506.909
-421.413
-335.783
-251.347
-173.656
-112.708
-24.1493
391.744
398.604
403.321
406.48
408.222
405.682
397.302
384.02
377.677
370.988
365.553
362.519
360.832
361.039
363.619
368.654
376.136
385.753
397.667
411.77
427.406
443.814
460.422
476.484
490.882
502.023
507.848
506.281
495.818
475.64
445.849
406.335
356.327
296.522
229.424
157.576
84.3821
13.2487
-54.3146
-116.996
-171.752
-213.819
-239.232
-246.586
-237.571
-216.152
-188.97
-158.497
-126.714
-96.382
-69.0648
-45.0796
-24.1527
-5.75541
10.6796
25.6957
39.4103
51.713
61.2724
68.2427
70.2014
68.2232
64.5007
60.424
51.3177
39.4719
23.1694
1.5714
-25.801
-61.2537
-105.818
-161.745
-230.882
-315.346
-415.677
-527.62
-639.58
-739.086
-822.603
-893.126
-953.369
-1002.4
-1037.68
-1057.42
-1060.25
-1045.62
-1014.43
-967.663
-908.85
-841.48
-768.606
-692.161
-612.934
-530.99
-446.458
-360.696
-274.638
-192.771
-123.839
-31.3625
391.627
398.514
403.434
406.79
407.505
405.757
396.487
383.326
377.238
370.262
364.831
361.786
360.038
360.165
362.654
367.62
375.074
384.699
396.652
410.856
426.633
443.217
460.051
476.408
491.169
502.723
508.975
507.766
497.465
477.141
446.877
406.644
355.824
295.097
226.895
153.767
79.229
6.72496
-62.3917
-126.8
-183.166
-226.296
-251.875
-258.622
-248.123
-225.001
-196.109
-163.977
-130.734
-99.2754
-71.1828
-46.7326
-25.585
-7.13847
9.23234
24.1302
37.7095
49.9016
59.2721
66.0922
67.1627
64.0059
59.7645
54.6794
44.7481
31.8996
14.6643
-7.78373
-36.1015
-72.5767
-118.425
-176.029
-247.419
-334.774
-438.189
-551.931
-662.923
-759.861
-841.625
-912.028
-973.09
-1023
-1059.4
-1080.46
-1084.22
-1069.8
-1037.98
-990.004
-929.853
-861.457
-788.205
-712.153
-633.923
-553.164
-469.333
-383.167
-295.37
-209.57
-132.976
-37.6833
391.706
398.451
403.58
407.149
406.433
405.9
395.445
382.596
376.754
369.484
364.067
361.001
359.187
359.229
361.622
366.517
373.945
383.583
395.579
409.892
425.822
442.593
459.671
476.35
491.516
503.537
510.274
509.472
499.364
478.903
448.15
407.162
355.473
293.754
224.361
149.857
73.8562
-0.168957
-71.0463
-137.416
-195.585
-239.882
-265.594
-271.67
-259.464
-234.489
-203.766
-169.845
-135.024
-102.349
-73.4163
-48.4555
-27.0538
-8.53172
7.7974
22.5982
36.0694
48.1881
57.4568
64.3135
64.4763
60.7347
55.6258
49.3144
38.3943
24.4349
6.13355
-17.331
-46.7597
-84.4102
-131.676
-191.056
-264.741
-354.888
-460.97
-575.696
-685.056
-779.533
-860.021
-930.707
-992.7
-1043.83
-1081.96
-1104.86
-1109.75
-1095.43
-1062.71
-1013.09
-951.077
-881.092
-806.927
-730.821
-653.268
-573.489
-490.195
-403.427
-313.742
-224.151
-140.44
-42.9981
391.808
398.403
403.711
407.533
405.088
406.173
394.246
381.863
376.214
368.66
363.264
360.166
358.276
358.228
360.523
365.344
372.747
382.402
394.447
408.879
424.971
441.944
459.283
476.313
491.924
504.469
511.752
511.409
501.529
480.938
449.683
407.906
355.293
292.511
221.842
145.86
68.2699
-7.44096
-80.3094
-148.899
-209.083
-254.654
-280.453
-285.799
-271.617
-244.639
-211.971
-176.116
-139.588
-105.602
-75.7622
-50.2435
-28.5534
-9.92885
6.38158
21.106
34.4954
46.5679
55.8357
62.7369
62.3146
58.225
52.0053
44.3428
32.3169
17.1685
-2.30995
-26.9361
-57.6296
-96.6088
-145.429
-206.685
-282.688
-375.469
-483.725
-598.664
-705.976
-798.234
-877.895
-949.163
-1012.32
-1065.22
-1105.79
-1131.01
-1137.13
-1122.82
-1088.9
-1037.18
-972.715
-900.513
-824.828
-748.161
-670.934
-591.97
-509.164
-421.724
-330.047
-236.723
-146.626
-47.2165
391.909
398.351
403.823
407.952
403.568
406.579
392.945
381.144
375.609
367.794
362.424
359.278
357.305
357.161
359.353
364.1
371.479
381.155
393.255
407.815
424.08
441.266
458.885
476.294
492.395
505.522
513.415
513.59
503.974
483.264
451.49
408.893
355.304
291.39
219.358
141.792
62.4767
-15.0994
-90.214
-161.307
-223.733
-270.687
-296.517
-301.07
-284.612
-255.491
-220.754
-182.807
-144.43
-109.031
-78.2158
-52.0909
-30.0773
-11.323
4.99197
19.6602
32.9909
45.033
54.391
61.1825
60.7489
56.2043
48.7896
39.7391
26.5479
10.1651
-10.5718
-36.4758
-68.5677
-109.02
-159.529
-222.757
-301.078
-396.288
-506.184
-620.663
-725.729
-816.074
-895.32
-967.437
-1032.16
-1087.56
-1131.26
-1159.21
-1166.65
-1152.28
-1116.86
-1062.55
-995.008
-919.91
-842.033
-764.222
-686.909
-608.586
-526.301
-438.269
-344.611
-247.581
-151.945
-50.2938
391.997
398.29
403.914
408.404
401.959
407.092
391.542
380.425
374.934
366.888
361.547
358.338
356.271
356.025
358.111
362.782
370.139
379.84
392.001
406.7
423.148
440.561
458.477
476.294
492.93
506.699
515.271
516.023
506.713
485.895
453.589
410.142
355.53
290.415
216.929
137.67
56.4853
-23.1527
-100.795
-174.699
-239.609
-288.054
-313.844
-317.503
-298.501
-267.093
-230.154
-189.932
-149.549
-112.633
-80.7706
-53.9902
-31.6179
-12.7065
3.63621
18.2674
31.5581
43.5756
53.0582
59.6261
59.5874
54.444
45.8695
35.4681
21.0992
3.46718
-18.5782
-45.8447
-79.4419
-121.494
-173.815
-239.099
-319.718
-417.112
-528.113
-641.594
-744.379
-833.144
-912.355
-985.632
-1052.5
-1111.17
-1158.69
-1189.72
-1198.58
-1184.08
-1146.84
-1089.44
-1018.19
-939.502
-858.722
-779.122
-701.238
-623.331
-541.629
-453.203
-357.732
-257.064
-156.745
-52.2688
392.065
398.217
403.974
408.864
400.284
407.635
390.03
379.675
374.188
365.943
360.631
357.342
355.174
354.818
356.795
361.388
368.724
378.456
390.685
405.533
422.175
439.826
458.058
476.313
493.529
508.004
517.325
518.721
509.761
488.85
455.997
411.672
355.993
289.612
214.581
133.517
50.3066
-31.6092
-112.088
-189.134
-256.781
-306.813
-332.475
-335.092
-313.34
-279.504
-240.205
-197.499
-154.942
-116.401
-83.4185
-55.9329
-33.1668
-14.0709
2.32269
16.9351
30.2004
42.1905
51.7652
58.1239
58.5732
52.7891
43.1663
31.4971
15.9696
-2.90194
-26.2771
-54.9591
-90.139
-133.892
-188.13
-255.54
-338.412
-437.722
-549.322
-661.407
-761.991
-849.521
-929.061
-1003.9
-1073.59
-1136.36
-1188.3
-1222.74
-1233.09
-1218.37
-1178.99
-1117.99
-1042.42
-959.468
-875.088
-793.033
-714.035
-636.245
-555.162
-466.602
-369.64
-265.487
-161.242
-53.2882
392.15
398.13
403.992
409.293
398.522
407.985
388.424
378.89
373.371
364.96
359.675
356.29
354.01
353.538
355.402
359.916
367.234
376.998
389.304
404.313
421.16
439.061
457.626
476.348
494.192
509.438
519.584
521.694
513.132
492.144
458.731
413.505
356.719
289.009
212.342
129.358
43.9542
-40.4772
-124.13
-204.668
-275.307
-327.006
-352.428
-353.813
-329.152
-292.775
-250.943
-205.51
-160.602
-120.327
-86.1494
-57.909
-34.7141
-15.4066
1.06077
15.6723
28.9234
40.8826
50.4754
56.7102
57.5423
51.1593
40.629
27.7967
11.1482
-8.93544
-33.637
-63.7591
-100.569
-146.098
-202.332
-271.915
-356.974
-457.922
-569.666
-680.086
-778.624
-865.275
-945.507
-1022.39
-1095.67
-1163.3
-1220.18
-1258.3
-1270.14
-1255.08
-1213.22
-1148.16
-1067.71
-979.893
-891.278
-806.135
-725.464
-647.428
-566.937
-478.505
-380.472
-273.1
-165.53
-53.5947
392.228
398.028
403.956
409.651
396.761
407.907
386.766
378.086
372.485
363.941
358.676
355.18
352.778
352.183
353.929
358.364
365.666
375.467
387.859
403.041
420.103
438.265
457.181
476.399
494.918
511.003
522.053
524.952
516.842
495.797
461.811
415.664
357.738
288.639
210.244
125.221
37.4448
-49.7657
-136.962
-221.351
-295.232
-348.647
-373.687
-373.608
-345.93
-306.95
-262.391
-213.958
-166.518
-124.398
-88.9516
-59.9073
-36.2494
-16.7034
-0.139202
14.4894
27.7363
39.662
49.2017
55.3659
56.4246
49.5261
38.2242
24.3402
6.61673
-14.6407
-40.6467
-72.2089
-110.666
-158.018
-216.301
-288.079
-375.239
-477.544
-589.04
-697.637
-794.332
-880.462
-961.773
-1041.26
-1118.89
-1192.07
-1254.28
-1296.26
-1309.52
-1293.99
-1249.31
-1179.73
-1093.9
-1000.73
-907.357
-818.574
-735.704
-657.028
-577.032
-488.941
-390.293
-280.067
-169.629
-53.4758
392.285
397.905
403.851
409.899
395.157
407.39
385.114
377.286
371.526
362.885
357.63
354.012
351.477
350.751
352.376
356.731
364.018
373.86
386.35
401.715
419.004
437.438
456.72
476.463
495.706
512.698
524.736
528.506
520.906
499.828
465.261
418.178
359.082
288.536
208.323
121.14
30.7969
-59.4853
-150.62
-239.222
-316.575
-371.704
-396.194
-394.363
-363.649
-322.053
-274.55
-222.829
-172.678
-128.603
-91.8118
-61.9157
-37.7612
-17.9499
-1.26579
13.3982
26.6518
38.543
47.9808
54.0702
55.2153
47.8935
35.9294
21.1016
2.35192
-20.0372
-47.3126
-80.2959
-120.395
-169.584
-229.942
-303.914
-393.066
-496.452
-607.372
-714.075
-809.166
-895.138
-977.936
-1060.62
-1143.33
-1222.58
-1290.39
-1336.32
-1350.85
-1334.71
-1286.88
-1212.37
-1120.73
-1021.81
-923.285
-830.434
-744.922
-665.223
-585.56
-497.954
-399.114
-286.475
-173.542
-53.1939
392.321
397.757
403.664
409.999
393.76
406.361
383.561
376.48
370.491
361.79
356.535
352.785
350.106
349.24
350.738
355.012
362.289
372.177
384.775
400.335
417.861
436.577
456.241
476.538
496.551
514.523
527.635
532.363
525.339
504.258
469.109
421.079
360.788
288.741
206.62
117.154
24.0288
-69.6504
-165.141
-258.302
-339.317
-396.091
-419.829
-415.873
-382.273
-338.072
-287.391
-232.098
-179.066
-132.926
-94.7154
-63.9212
-39.2372
-19.1342
-2.30675
12.4119
25.6851
37.5437
46.8538
52.8278
53.9468
46.2867
33.7304
18.0546
-1.67298
-25.1536
-53.6573
-88.0288
-129.743
-180.763
-243.192
-319.328
-410.346
-514.545
-624.618
-729.425
-823.171
-909.347
-994.057
-1080.53
-1168.93
-1254.6
-1328.16
-1378.05
-1393.64
-1376.78
-1325.47
-1245.64
-1147.81
-1042.87
-938.933
-841.727
-753.243
-672.191
-592.66
-505.612
-406.934
-292.343
-177.28
-52.9473
392.333
397.572
403.38
409.948
392.636
404.678
382.143
375.639
369.373
360.658
355.388
351.497
348.664
347.648
349.015
353.208
360.478
370.417
383.134
398.9
416.674
435.681
455.742
476.617
497.449
516.475
530.754
536.533
530.157
509.107
473.387
424.405
362.897
289.295
205.179
113.298
17.1546
-80.2804
-180.558
-278.589
-363.394
-421.654
-444.41
-437.828
-401.707
-354.946
-300.862
-241.732
-185.661
-137.348
-97.6469
-65.9103
-40.6649
-20.2437
-3.24913
11.545
24.8538
36.6856
45.8603
51.6671
52.6692
44.7437
31.6233
15.1733
-5.48693
-30.0255
-59.7164
-95.4358
-138.725
-191.545
-256.019
-334.263
-426.997
-531.748
-640.759
-743.716
-836.392
-923.126
-1010.17
-1100.96
-1195.52
-1287.81
-1367.15
-1420.93
-1437.34
-1419.65
-1364.58
-1279.05
-1174.72
-1063.56
-954.098
-852.401
-760.747
-678.093
-598.486
-512.009
-413.754
-297.644
-180.872
-52.892
392.318
397.341
402.983
409.742
391.806
402.538
380.82
374.738
368.174
359.486
354.187
350.149
347.149
345.974
347.204
351.317
358.584
368.58
381.427
397.41
415.442
434.748
455.218
476.696
498.394
518.548
534.09
541.023
535.373
514.399
478.125
428.197
365.457
290.244
204.039
109.604
10.179
-91.4004
-196.889
-300.043
-388.686
-448.173
-469.693
-459.967
-421.759
-372.566
-314.884
-251.693
-192.441
-141.85
-100.59
-67.8695
-42.0315
-21.2659
-4.07971
10.8123
24.1764
35.9927
45.037
50.631
51.4391
43.3097
29.6177
12.4329
-9.11993
-34.6923
-65.5351
-102.561
-147.375
-201.951
-268.421
-348.69
-442.968
-548.015
-655.791
-756.985
-848.869
-936.498
-1026.26
-1121.81
-1222.82
-1321.75
-1406.81
-1464.36
-1481.26
-1462.68
-1403.57
-1312.05
-1200.98
-1083.5
-968.529
-862.352
-767.463
-683.061
-603.193
-517.248
-419.575
-302.341
-184.391
-53.1236
392.259
397.049
402.453
409.357
391.156
400.154
379.626
373.75
366.899
358.276
352.931
348.738
345.562
344.216
345.304
349.336
356.607
366.667
379.652
395.865
414.165
433.775
454.663
476.767
499.376
520.735
537.644
545.839
541.005
520.159
483.362
432.495
368.511
291.63
203.238
106.089
3.09293
-103.04
-214.135
-322.587
-415.019
-475.374
-495.404
-482.21
-442.16
-390.758
-329.353
-261.93
-199.377
-146.411
-103.529
-69.7851
-43.3244
-22.1885
-4.78523
10.2293
23.672
35.4899
44.417
49.7675
50.3148
42.0283
27.7399
9.81221
-12.602
-39.1956
-71.1653
-109.459
-155.747
-212.024
-280.42
-362.604
-458.229
-563.321
-669.73
-769.274
-860.637
-949.47
-1042.29
-1142.91
-1250.44
-1355.91
-1446.53
-1507.57
-1524.55
-1505.02
-1441.68
-1344
-1226.06
-1102.3
-981.95
-871.434
-773.379
-687.201
-606.917
-521.402
-424.379
-306.423
-187.863
-53.4633
392.136
396.681
401.771
408.752
390.664
397.647
378.52
372.669
365.559
357.026
351.616
347.263
343.901
342.373
343.313
347.265
354.546
364.676
377.809
394.264
412.841
432.76
454.074
476.821
500.386
523.027
541.412
550.988
547.069
526.412
489.141
437.321
372.085
293.486
202.796
102.753
-4.12866
-115.226
-232.271
-346.106
-442.189
-502.967
-521.249
-504.38
-462.63
-409.296
-344.133
-272.389
-206.437
-151.006
-106.446
-71.6436
-44.5318
-22.9997
-5.35289
9.81117
23.3598
35.2028
44.0306
49.1226
49.3548
40.935
26.0308
7.29963
-15.9639
-43.5756
-76.662
-116.196
-163.908
-221.822
-292.055
-376.015
-472.767
-577.659
-682.606
-780.632
-871.726
-962.028
-1058.17
-1164.01
-1277.95
-1389.7
-1485.57
-1549.58
-1566.08
-1545.58
-1477.96
-1374.14
-1249.39
-1119.54
-994.069
-879.483
-778.476
-690.608
-609.755
-524.535
-428.166
-309.89
-191.092
-53.4494
391.953
396.223
400.93
407.82
390.318
395.209
377.448
371.486
364.164
355.733
350.239
345.723
342.165
340.445
341.229
345.103
352.402
362.61
375.898
392.607
411.469
431.698
453.441
476.847
501.41
525.415
545.391
556.476
553.581
533.191
495.514
442.74
376.215
295.825
202.718
99.5711
-11.5227
-127.978
-251.243
-370.462
-470.001
-530.705
-546.939
-526.103
-482.87
-427.914
-359.07
-283.008
-213.588
-155.614
-109.327
-73.4321
-45.6423
-23.6886
-5.77062
9.57272
23.259
35.1561
43.9056
48.7369
48.6182
40.0586
24.535
4.90294
-19.2368
-47.8696
-82.0796
-122.836
-171.93
-231.412
-303.375
-388.94
-486.577
-591.041
-694.461
-791.111
-882.16
-974.137
-1073.74
-1184.78
-1304.81
-1422.43
-1522.99
-1589.1
-1604.47
-1583.02
-1511.31
-1401.65
-1270.38
-1134.8
-1004.6
-886.357
-782.762
-693.327
-611.785
-526.789
-431.037
-312.675
-193.799
-53.0401
391.688
395.667
399.929
406.515
390.083
392.889
376.367
370.201
362.718
354.39
348.799
344.117
340.354
338.432
339.052
342.85
350.173
360.467
373.918
390.892
410.047
430.585
452.757
476.833
502.435
527.887
549.577
562.311
560.561
540.526
502.53
448.887
380.974
298.628
202.983
96.505
-19.1296
-141.296
-270.973
-395.53
-498.322
-558.445
-572.263
-547.113
-502.575
-446.321
-374.005
-293.725
-220.794
-160.212
-112.156
-75.1387
-46.6461
-24.2458
-6.02749
9.52799
23.3879
35.3738
44.0696
48.6474
48.1591
39.4295
23.2905
2.64073
-22.442
-52.1143
-87.4682
-129.444
-179.883
-240.859
-314.423
-401.395
-499.665
-603.491
-705.353
-800.765
-891.954
-985.739
-1088.83
-1204.85
-1330.49
-1453.36
-1557.71
-1624.67
-1638.33
-1616.05
-1540.61