/*--------------------------------*- C++ -*----------------------------------*\
| =========                 |                                                 |
| \\      /  F ield         | OpenFOAM: The Open Source CFD Toolbox           |
|  \\    /   O peration     | Version:  4.1                                   |
|   \\  /    A nd           | Web:      www.OpenFOAM.org                      |
|    \\/     M anipulation  |                                                 |
\*---------------------------------------------------------------------------*/
FoamFile
{
    version     2.0;
    format      ascii;
    class       surfaceScalarField;
    location    "600";
    object      phi;
}
// * * * * * * * * * * * * * * * * * * * * * * * * * * * * * * * * * * * * * //

dimensions      [0 3 -1 0 0 0 0];

internalField   nonuniform List<scalar> 
52920
(
-1390.36
-231.302
-1250.77
-139.602
-1351.19
100.432
-1780.67
429.482
-2281.21
500.561
-2578.23
297.021
-2660.41
82.2022
-2753.36
92.9465
-2898.2
144.863
-3034.63
136.439
-3151.15
116.541
-3250.59
99.4658
-3331.64
81.0799
-3392.34
60.7201
-3431
38.6766
-3447.03
16.0426
-3437.79
-9.2245
-3396.48
-41.2862
-3312.64
-83.8201
-3175.93
-136.695
-2977.48
-198.425
-2709.07
-268.394
-2362.7
-346.343
-1939.91
-422.771
-1493.45
-446.434
-1058.66
-434.763
-429.11
-629.519
513.887
-942.968
1406.95
-893.024
2042.83
-635.855
2634.65
-591.792
3252.45
-617.773
3890.91
-638.437
4532.35
-641.429
5126.74
-594.37
5647.58
-520.826
6104.11
-456.515
6511.86
-407.739
6875.07
-363.193
7187.43
-312.348
7436.35
-248.904
7607.45
-171.095
7689.6
-82.1353
7678.27
11.3467
7578.08
100.194
7408.58
169.513
7188.88
219.713
6932.25
256.644
6648.22
284.045
6342.91
305.319
6019.54
323.383
5679.03
340.52
5320.55
358.497
4941.91
378.644
4540.54
401.389
4115.19
425.359
3668.41
446.801
3207.25
461.173
2743.68
463.587
2262.54
481.156
1696.42
566.135
521.406
1175.04
-1272.67
1794.1
-2756.9
1484.24
-3920.47
1163.58
-4916.98
996.519
-5860.59
943.625
-6811.55
950.963
-7801.71
990.168
-8857.8
1056.09
-9990.99
1133.2
-11206.8
1215.78
-12502.7
1295.89
-13870.2
1367.5
-15294
1423.9
-16752.4
1458.34
-18216.7
1464.31
-19653.4
1436.66
-21026
1372.65
-22298.6
1272.59
-23438.3
1139.75
-24417.8
979.51
-25216.1
798.286
-25818.2
602.111
-26213.8
395.552
-26395.1
181.277
-26354.6
-40.4953
-26082
-272.528
-25563.1
-518.893
-24781
-782.152
-23711.5
-1069.54
-22322.9
-1388.61
-20572.8
-1750.02
-18394.1
-2178.71
-15692.5
-2701.63
-12413.5
-3279.03
-8451.87
-3961.6
-2740.51
-5711.36
7297.83
-10038.3
-13040.2
-1696.17
-481.21
-1379.12
-456.652
-1221.61
-57.0735
-1493.97
701.839
-2054.85
1061.46
-2503.41
745.59
-2653.82
232.641
-2728.28
167.396
-2862.16
278.773
-3006.68
280.963
-3131.48
241.372
-3237.95
205.948
-3327.97
171.134
-3398.97
131.742
-3448.75
88.4769
-3476.37
43.6692
-3478.98
-6.59032
-3450.56
-69.6898
-3382.6
-151.756
-3267.66
-251.616
-3100.52
-365.54
-2877.11
-491.785
-2592.03
-631.399
-2237.42
-777.353
-1796.11
-887.724
-1268.69
-962.153
-723.21
-1174.97
-149.009
-1517.15
594.768
-1636.78
1411.19
-1452.25
2118.32
-1298.9
2770.5
-1269.93
3417.64
-1285.56
4056.48
-1280.26
4661.82
-1199.69
5216.72
-1075.71
5717.72
-957.507
6166.41
-856.408
6562.81
-759.586
6901.45
-650.974
7170.22
-517.657
7354.39
-355.256
7443.02
-170.747
7433.03
21.3466
7331.86
201.375
7162.46
338.922
6946.91
435.283
6700.33
503.229
6432.24
552.152
6147.14
590.428
5845.95
624.59
5527.52
658.962
5189.62
696.409
4829.16
739.116
4442.57
788
4026.97
840.967
3582.15
891.633
3111.12
932.221
2620.71
954.007
2096.29
1005.59
1523.47
1138.98
574.76
2123.76
-1131.12
3499.99
-2751.24
3104.37
-3930.18
2342.53
-4951.02
2017.36
-5906.35
1898.96
-6862.68
1907.3
-7857.73
1985.22
-8919.52
2117.89
-10061.9
2275.56
-11291.6
2445.52
-12607.7
2611.96
-14002.6
2762.41
-15461.8
2883.15
-16963.8
2960.32
-18479.9
2980.39
-19975.7
2932.42
-21413.4
2810.36
-22755.2
2614.41
-23966.3
2350.89
-25017.5
2030.7
-25886.2
1666.98
-26556.4
1272.32
-27017.3
856.418
-27261.1
425.125
-27281.8
-19.7718
-27072.7
-481.655
-26621.7
-969.876
-25911
-1492.89
-24915.8
-2064.73
-23602.4
-2701.99
-21923.8
-3428.63
-19811
-4291.51
-17170.2
-5342.48
-13867.1
-6582.12
-9627.01
-8201.66
-4104.84
-11233.5
2538.06
-16681.2
-20588.4
-2003.08
-689.975
-1646.37
-813.376
-1260.58
-442.858
-1243
684.26
-1740.65
1559.14
-2336.19
1341.13
-2624.94
521.414
-2709.79
252.243
-2823.53
392.526
-2971.59
429.026
-3107.34
377.148
-3221.39
320.02
-3319.19
268.97
-3397.98
210.541
-3454.45
144.963
-3487.61
76.8457
-3495.29
1.11331
-3472.9
-92.0645
-3413.9
-210.739
-3312.55
-352.958
-3164.28
-513.792
-2964.79
-691.257
-2708.08
-888.089
-2386.47
-1098.94
-1985.57
-1288.61
-1495.87
-1451.83
-957.607
-1713.22
-400.145
-2074.59
240.635
-2277.54
979.07
-2190.66
1712.11
-2031.91
2400.63
-1958.44
3070.57
-1955.47
3716.69
-1926.36
4329.03
-1812.03
4899.49
-1646.15
5421.67
-1479.68
5891.92
-1326.65
6307.99
-1175.64
6664.01
-1006.98
6948
-801.635
7145.48
-552.729
7245.5
-270.75
7244.29
22.5635
7147.98
297.702
6979.67
507.236
6762.61
652.362
6514.15
751.702
6245.99
820.318
5964.12
872.311
5669.7
919.021
5360.94
967.735
5034.47
1022.89
4685.87
1087.73
4309.77
1164.11
3900.56
1250.19
3453.69
1338.52
2966.85
1419.07
2440.92
1479.94
1867.35
1579.17
1251.22
1755.13
463.376
2911.61
-1040.84
5004.22
-2728.31
4791.84
-3960.6
3574.83
-5004.43
3061.2
-5976
2870.54
-6942.69
2874
-7947.28
2989.81
-9018.7
3189.31
-10172.9
3429.73
-11417.8
3690.49
-12753.8
3947.93
-14174.1
4182.71
-15664.8
4373.84
-17204.2
4499.75
-18763.1
4539.27
-20305.7
4475.08
-21792.8
4297.41
-23184.7
4006.37
-24445.5
3611.69
-25545.2
3130.35
-26461
2582.82
-27177.4
1988.73
-27684.2
1363.18
-27974.5
715.386
-28043.3
49.0669
-27885.5
-639.417
-27491
-1364.42
-26843.5
-2140.43
-25920.8
-2987.43
-24693
-3929.75
-23118.8
-5002.78
-21141.3
-6269.04
-18684.5
-7799.26
-15623.9
-9642.79
-11761.7
-12063.8
-7105.51
-15889.7
-2395.6
-21391.1
-25448.8
-2263
-853.066
-1932.05
-1144.33
-1441.56
-933.336
-1164.73
407.427
-1479.1
1873.53
-2114.4
1976.43
-2551.21
958.246
-2694.75
395.787
-2792.34
490.129
-2935.25
571.95
-3080.87
522.785
-3202.88
442.052
-3307.66
373.783
-3393.26
296.16
-3455.37
207.087
-3492.94
114.438
-3504.44
12.6335
-3486.4
-110.094
-3433.72
-263.393
-3341.86
-444.799
-3206.51
-649.124
-3023.06
-874.679
-2785.35
-1125.78
-2486.26
-1398.02
-2113.97
-1660.88
-1658.19
-1907.59
-1144.06
-2227.33
-603.82
-2614.81
-3.76694
-2877.58
689.169
-2883.58
1408.1
-2750.83
2106.13
-2656.44
2786.4
-2635.73
3438.8
-2578.74
4059.27
-2432.48
4642.4
-2229.26
5179.36
-2016.63
5664.08
-1811.36
6093.74
-1605.29
6462.8
-1376.03
6759.43
-1098.25
6968.91
-762.196
7079.43
-381.261
7086.5
15.5069
6994.83
389.39
6827.59
674.482
6608.38
871.588
6355.98
1004.12
6083.82
1092.49
5799.44
1156.7
5504.96
1213.52
5198.82
1273.89
4877.3
1344.42
4535.17
1429.87
4165.86
1533.44
3761.65
1654.4
3314.22
1785.97
2816.31
1916.99
2262.45
2033.82
1651.74
2189.9
984.214
2422.67
279.36
3616.48
-1015.38
6298.96
-2697.62
6474.09
-3980.22
4857.44
-5041.89
4122.87
-6030.75
3859.4
-7010.55
3853.81
-8027.22
4006.49
-9109.82
4271.91
-10275.6
4595.48
-11533.6
4948.5
-12885.4
5299.75
-14325.7
5623.01
-15841.6
5889.75
-17412.1
6070.28
-19007.9
6135.03
-20592.2
6059.43
-22124.1
5829.31
-23562
5444.27
-24867.8
4917.47
-26009.7
4272.23
-26963.6
3536.71
-27712.9
2738.05
-28247
1897.28
-28559.3
1027.71
-28646.4
136.188
-28506.6
-779.242
-28133.1
-1737.94
-27513
-2760.5
-26628.9
-3871.53
-25458
-5100.66
-23970
-6490.73
-22126.7
-8112.36
-19878.1
-10047.9
-17136.3
-12384.6
-13792.6
-15407.5
-9985.39
-19697
-6405.12
-24971.4
-28552.8
-2466.75
-980.883
-2183.07
-1428.01
-1687.47
-1428.94
-1228.98
-51.0582
-1302.69
1947.26
-1875.9
2549.64
-2424.54
1506.91
-2669.15
640.392
-2769.34
590.336
-2901.43
704.041
-3052.96
674.344
-3183.04
572.148
-3294.85
485.625
-3387.3
388.618
-3455.09
274.9
-3496.84
156.199
-3511.59
27.4002
-3496.94
-124.733
-3449.06
-311.25
-3364.42
-529.423
-3238.9
-774.631
-3067.68
-1045.88
-2844.52
-1348.93
-2562.56
-1679.96
-2211.44
-2011.99
-1781.89
-2337.12
-1290.52
-2718.69
-761.688
-3143.63
-182.36
-3456.89
472.577
-3538.5
1172.08
-3450.32
1872.86
-3357.21
2555.29
-3318.15
3211.44
-3234.88
3838.6
-3059.63
4431.15
-2821.8
4978.29
-2563.75
5472.9
-2305.95
5912.46
-2044.84
6292.01
-1755.57
6599.67
-1405.9
6819.96
-982.477
6939.67
-500.958
6953.44
1.74602
6864.4
478.446
6696.13
842.761
6472.59
1095.15
6213.95
1262.76
5935.34
1371.12
5645.7
1446.35
5348.12
1511.11
5041.47
1580.54
4721.97
1663.93
4383.87
1767.98
4019.85
1897.48
3621.15
2053.12
3177.13
2230
2676.75
2417.39
2107.91
2602.67
1474.68
2823.15
764.239
3133.13
93.1867
4287.54
-1023.19
7415.35
-2650.87
8101.77
-3964.93
6171.51
-5038.73
5196.68
-6044.12
4864.8
-7038.43
4848.11
-8068.61
5036.67
-9163.44
5366.74
-10341
5773.03
-11611.5
6219.03
-12978.2
6666.46
-14437.6
7082.34
-15978.3
7430.47
-17580.3
7672.25
-19213.7
7768.51
-20840.3
7686.01
-22416
7404.94
-23895.4
6923.74
-25236.9
6258.9
-26405.1
5440.45
-27373.3
4504.93
-28123.1
3487.86
-28643.2
2417.35
-28927.7
1312.26
-28976.2
184.649
-28792
-963.409
-28374.3
-2155.69
-27717.1
-3417.63
-26812.6
-4776.1
-25650.5
-6262.75
-24218.2
-7923.04
-22502.1
-9828.43
-20484.5
-12065.4
-18124.1
-14745
-15385.2
-18146.4
-12424.4
-22657.9
-9721.97
-27673.8
-30676.3
-2618.4
-1112.95
-2388.57
-1657.84
-1933.49
-1884.01
-1358.79
-625.754
-1199.3
1787.8
-1651.18
3001.52
-2256.13
2111.87
-2618.79
1003.06
-2749.13
720.694
-2872.42
827.34
-3025.12
827.069
-3162.36
709.406
-3281.31
604.606
-3380.82
488.139
-3454.58
348.684
-3500.47
202.099
-3518.09
45.039
-3506.17
-136.635
-3462.06
-355.331
-3383.15
-608.322
-3265.44
-892.312
-3104
-1207.3
-2892.49
-1560.42
-2624.17
-1948.26
-2289.51
-2346.63
-1880.25
-2746.36
-1408.16
-3190.76
-892.474
-3659.31
-328.662
-4020.69
302.887
-4170.04
987.419
-4134.83
1684.11
-4053.88
2364.89
-3998.93
3023.01
-3892.98
3655.32
-3691.94
4254.61
-3421.08
4808.6
-3117.73
5310.02
-2807.36
5757.19
-2492
6145.89
-2144.25
6463.86
-1723.86
6694.35
-1212.96
6822.28
-628.872
6841.36
-17.3232
6753.09
566.73
6581.83
1014.04
6351.88
1325.1
6084.87
1529.78
5797.59
1658.41
5500.45
1743.5
5197.56
1814.01
4888.44
1889.67
4569.4
1982.99
4234.28
2103.11
3875.13
2256.63
3482.74
2445.52
3045.74
2667.01
2551
2912.13
1980.46
3173.23
1338.83
3464.78
602.093
3869.88
-56.9028
4946.55
-1026.95
8385.4
-2569.84
9644.66
-3898.43
7500.1
-4981.94
6280.2
-6003.3
5886.16
-7013.66
5858.48
-8059.06
6082.08
-9167.98
6475.66
-10359.2
6964.24
-11644.2
7504.02
-13027.9
8050.21
-14508.7
8563.17
-16076.9
8998.63
-17712.7
9308.07
-19385.2
9441.04
-21052.9
9353.72
-22666.9
9018.96
-24176.1
8432.89
-25531.9
7614.74
-26692.8
6601.28
-27626.1
5438.3
-28310
4171.77
-28733.1
2840.45
-28894.7
1473.79
-28804.3
94.248
-28477.3
-1290.4
-27923.1
-2709.87
-27146.5
-4194.22
-26151.8
-5770.77
-24943.3
-7471.27
-23527.3
-9339.05
-21917.6
-11438.1
-20134.8
-13848.3
-18190.9
-16689
-16111.2
-20226
-14032.8
-24736.2
-12215.2
-29491.4
-32105.2
-2738.89
-1208.6
-2549.59
-1847.14
-2151.62
-2281.99
-1521.83
-1255.54
-1175.73
1441.72
-1481.67
3307.47
-2077.12
2707.33
-2537.44
1463.37
-2722.58
905.859
-2847.9
952.658
-2998.99
978.187
-3141.61
852.04
-3267.35
730.368
-3374.06
594.861
-3454.14
428.784
-3504.3
252.274
-3524.57
65.3238
-3514.9
-146.294
-3473.81
-396.403
-3399.54
-682.575
-3288.27
-1003.57
-3134.9
-1360.66
-2933.04
-1762.26
-2675.95
-2205.35
-2354.6
-2667.96
-1961.53
-3139.42
-1505.31
-3646.98
-1001.25
-4163.35
-448.747
-4573.19
166.664
-4785.44
838.114
-4806.27
1528.18
-4743.93
2206.14
-4676.88
2865.27
-4552.1
3501.45
-4328.1
4105.47
-4025.09
4663.94
-3676.19
5170.02
-3313.43
5623.34
-2945.31
6020.53
-2541.43
6348.66
-2051.98
6589.17
-1453.47
6724.69
-764.378
6747.97
-40.5913
6658.92
655.789
6482.94
1190.03
6244.8
1563.26
5967.54
1807.06
5669.63
1956.33
5362.96
2050.18
5052.8
2124.18
4739.52
2202.97
4419.72
2302.8
4086.94
2435.9
3732.55
2611.04
3346.98
2831.1
2919.26
3094.74
2436.26
3395.14
1875.92
3733.58
1239.55
4101.16
497.673
4611.77
-156.831
5601.06
-1002.36
9230.94
-2438.17
11080.5
-3771.31
8833.24
-4866.14
7375.04
-5904.49
6924.5
-6933.62
6887.61
-7997
7145.46
-9122.87
7601.54
-10330.7
8172.07
-11633.2
8806.57
-13037.2
9454.12
-14542.4
10068.4
-16140.2
10596.5
-17810.8
10978.7
-19521
11151.2
-21224.3
11056.9
-22863.8
10658.5
-24377.9
9947.01
-25705.7
8942.54
-26793
7688.52
-27598.1
6243.39
-28097.9
4671.64
-28292.2
3034.74
-28203.6
1385.21
-27871.9
-237.453
-27330.2
-1832.13
-26594.6
-3445.44
-25674.5
-5114.36
-24577.6
-6867.69
-23310.5
-8738.34
-21886.6
-10763
-20337.9
-12986.7
-18723.6
-15462.6
-17123.9
-18288.7
-15647.2
-21702.7
-14444.1
-25939.4
-13568.9
-30366.6
-32898.8
-2829.01
-1275.22
-2678.89
-1997.26
-2341.05
-2619.82
-1709.67
-1886.91
-1234.14
966.222
-1396.67
3470
-1920.3
3230.98
-2428.4
1971.47
-2680.12
1157.6
-2824.26
1096.8
-2975.39
1129.35
-3121.66
998.331
-3253.28
862.013
-3367.05
708.648
-3453.75
515.502
-3508.42
306.959
-3531.21
88.1298
-3523.38
-154.099
-3484.7
-435.063
-3414.27
-752.986
-3308.39
-1109.43
-3161.86
-1507.17
-2968.21
-1955.9
-2720.62
-2452.92
-2410.4
-2978.16
-2030.6
-3519.2
-1587.49
-4090.08
-1093.32
-4657.51
-549.199
-5117.29
54.3431
-5388.97
713.993
-5465.91
1397.19
-5427.11
2072.59
-5352.27
2732.26
-5211.76
3371.26
-4967.1
3978.48
-4632.3
4539.65
-4237.35
5048.8
-3822.57
5507.33
-3403.83
5912.83
-2946.91
6251.34
-2390.48
6501.99
-1704.1
6644.68
-907.061
6671.2
-67.0957
6580.03
746.976
6397.81
1372.26
6149.88
1811.2
5860.76
2096.19
5550.56
2266.54
5232.6
2368.15
4913.45
2443.35
4594.5
2521.93
4272.87
2624.44
3941.88
2766.9
3592.1
2960.83
3213.51
3209.7
2796.09
3512.17
2328.64
3862.6
1788.19
4274.04
1170.05
4719.31
443.324
5338.51
-207.441
6251.83
-941.7
9965.21
-2251.26
12390
-3580.5
10162.5
-4690.08
8484.62
-5748.46
7982.9
-6800.36
7939.52
-7885.61
8230.71
-9032.05
8747.98
-10259.8
9399.84
-11582.8
10129.6
-13009.3
10880.6
-14540.6
11599.6
-16168.6
12224.5
-17872.6
12682.7
-19615.5
12894.1
-21342.5
12783.9
-22982.9
12298.9
-24455.8
11419.9
-25678.4
10165.2
-26578.9
8588.96
-27113.2
6777.69
-27281.4
4839.84
-27132.1
2885.44
-26746.7
999.881
-26203.7
-780.447
-25526.4
-2509.44
-24710.8
-4261.06
-23754.6
-6070.54
-22650
-7972.33
-21387.2
-10001.1
-19966.5
-12183.7
-18416
-14537.3
-16813.2
-17065.3
-15301.4
-19800.5
-14102.6
-22901.6
-13482
-26559.9
-13425.6
-30423.1
-33119.7
-2900.18
-1315.68
-2787.9
-2109.54
-2506.92
-2900.8
-1920.62
-2473.22
-1368.73
414.357
-1388.74
3490.01
-1800.51
3642.75
-2300.73
2471.69
-2614.64
1471.52
-2795.26
1277.42
-2953.52
1287.63
-3103.18
1148
-3239.57
998.426
-3359.89
828.984
-3453.33
608.955
-3512.74
366.377
-3537.96
113.366
-3531.64
-160.401
-3494.87
-471.818
-3427.65
-820.199
-3326.39
-1210.68
-3185.79
-1647.76
-2999.29
-2142.39
-2759.95
-2692.26
-2459.27
-3278.83
-2090.62
-3887.83
-1658.44
-4522.26
-1172.51
-5143.43
-634.578
-5655.22
-39.6208
-5983.92
609.829
-6115.35
1286.5
-6103.77
1959.61
-6025.37
2619.51
-5871.66
3260.58
-5608.16
3869.84
-5241.55
4432.33
-4799.83
4943.33
-4333.56
5406.45
-3866.94
5820.33
-3360.79
6169.65
-2739.78
6430.66
-1965.11
6580.22
-1056.61
6609.1
-95.9593
6514.62
841.461
6324.82
1562.07
6065.67
2070.37
5763.27
2398.6
5439.33
2590.49
5108.58
2698.91
4778.97
2772.96
4453.11
2847.79
4128.75
2948.81
3799.05
3096.61
3453.73
3306.16
3082.04
3581.4
2675.02
3919.2
2224.84
4312.78
1711.17
4787.72
1122.82
5307.67
428.199
6033.14
-215.836
6895.87
-849.412
10598.8
-2017.16
13557.8
-3328.58
11473.9
-4454.88
9610.92
-5537.9
9065.92
-6617.38
9019
-7729.1
9342.43
-8899.96
9918.85
-10150.7
10650.5
-11496.2
11475.2
-12946.4
12330.7
-14503.6
13156.8
-16160.3
13881.3
-17893.8
14416.2
-19660.1
14660.4
-21389.5
14513.4
-22987.4
13896.8
-24341.3
12773.8
-25340
11163.9
-25907.3
9156.2
-26039.8
6910.27
-25825.3
4625.27
-25409
2469.18
-24918
508.819
-24391.2
-1307.21
-23788.3
-3112.31
-23078.3
-4971.11
-22241.2
-6907.59
-21250.6
-8962.99
-20080
-11171.6
-18710.5
-13553.2
-17147.1
-16100.7
-15445.7
-18766.7
-13750.2
-21496
-12340.2
-24311.6
-11628
-27272.1
-11756
-30295.1
-33102.6
-2961.01
-1330.09
-2884.89
-2185.67
-2655.72
-3129.96
-2130.2
-2998.74
-1533.48
-182.34
-1425.68
3382.22
-1717.07
3934.15
-2166.15
2920.77
-2523.72
1829.11
-2753.82
1507.52
-2930.67
1464.51
-3086.11
1303.46
-3226.6
1138.94
-3352.65
955.054
-3452.68
708.997
-3516.99
430.707
-3544.65
141.043
-3539.61
-165.42
-3504.36
-507.047
-3439.83
-884.709
-3342.61
-1307.88
-3207.3
-1783.05
-3027.19
-2322.48
-2795.19
-2924.24
-2502.9
-3571.11
-2143.8
-4246.92
-1720.8
-4945.24
-1241.69
-5622.53
-708.658
-6188.24
-119.68
-6572.89
522.357
-6757.38
1193.28
-6774.68
1863.82
-6695.9
2523.75
-6531.58
3166.36
-6250.76
3776.8
-5851.98
4339.5
-5362.53
4851.35
-4845.41
5318.62
-4334.2
5741.12
-3783.28
6101.74
-3100.38
6373.37
-2236.73
6529.47
-1212.7
6559.8
-126.276
6460.89
940.391
6262.21
1760.75
5990.58
2342.01
5673.7
2715.49
5334.79
2929.41
4989.96
3043.75
4648.72
3114.22
4315.01
3181.51
3987.26
3276.58
3658.46
3425.42
3317.45
3647.18
2952.51
3946.35
2555.45
4316.27
2122.62
4745.62
1639.52
5270.83
1090.21
5856.99
442.874
6680.48
-188.755
7527.51
-736.116
11146.2
-1751.45
14573.1
-3022.28
12744.7
-4163.92
10752.6
-5276.61
10178.6
-6388.38
10130.8
-7531.2
10485.2
-8730.14
11117.8
-10006.2
11926.6
-11375.4
12844.4
-12849
13804.3
-14430.7
14738.6
-16113
15563.6
-17869.1
16172.3
-19642.7
16434
-21339.4
16210
-22826.1
15383.5
-23950.9
13898.6
-24592.3
11805.4
-24731.2
9295.05
-24495.2
6674.3
-24108
4238.07
-23748.6
2109.76
-23448.3
208.53
-23126
-1629.5
-22707.1
-3531.2
-22167.3
-5510.96
-21483.7
-7591.15
-20631.7
-9815.04
-19585.4
-12217.9
-18318.7
-14819.9
-16816.1
-17603.3
-15092.9
-20489.9
-13231.1
-23357.8
-11437.5
-26105.1
-10095.8
-28613.9
-9519.52
-30871.3
-33440.9
-3014.97
-1325.42
-2972.26
-2228.38
-2789.43
-3312.8
-2309.15
-3479.02
-1677.85
-813.627
-1479.09
3183.45
-1664.41
4119.48
-2036.44
3292.8
-2410.87
2203.56
-2694.73
1791.39
-2902.84
1672.64
-3069.42
1470.04
-3214.51
1284.05
-3345.47
1086.03
-3451.67
815.209
-3520.95
499.996
-3551.08
171.187
-3547.15
-169.332
-3513.12
-541.068
-3450.91
-946.906
-3357.31
-1401.47
-3226.82
-1913.52
-3052.57
-2496.72
-2827.28
-3149.52
-2542.52
-3855.87
-2191.74
-4597.69
-1776.5
-5360.47
-1302.94
-6096.08
-773.549
-6717.63
-188.556
-7157.88
448.184
-7394.11
1114.47
-7440.96
1782.71
-7364.14
2442.63
-7191.48
3086.43
-6894.56
3697.39
-6462.93
4259.39
-5924.52
4771.25
-5357.26
5242.35
-4805.29
5673.77
-4214.69
6046.19
-3472.79
6328.61
-2519.14
6490.85
-1374.93
6521.62
-157.045
6417.09
1044.94
6208.24
1969.61
5922.97
2627.3
5590.61
3047.85
5235.71
3284.33
4875.77
3403.7
4521.99
3468
4179.78
3523.73
3848.2
3608.17
3520.08
3753.55
3183.28
3983.98
2824.92
4304.72
2437.18
4704.02
2020.69
5162.11
1569.06
5722.47
1064.96
6361.1
478.083
7267.37
-133.617
8139.21
-614.098
11626.6
-1471.01
15430
-2671.36
13945.1
-3823.94
11905.1
-4970.15
11324.8
-6117.67
11278.3
-7295.27
11662.9
-8525.22
12347.7
-9828.36
13229.7
-11221.5
14237.5
-12717.2
15300.1
-14320.9
16342.2
-16023.8
17266.5
-17791.7
17940.2
-19547.6
18189.9
-21157.9
17820.4
-22441.2
16666.8
-23223
14680.4
-23442.3
12024.6
-23243.9
9096.69
-22929.2
6359.62
-22738.5
4047.39
-22683.5
2054.76
-22623.7
148.686
-22450.5
-1802.73
-22137.3
-3844.36
-21681.8
-5966.5
-21075.4
-8197.47
-20309.4
-10581.1
-19367.7
-13159.6
-18227.3
-15960.2
-16865
-18965.6
-15270.3
-22084.6
-13470.3
-25157.8
-11567.5
-28007.9
-9771.2
-30410.1
-8334.96
-32307.6
-34365
-3058.98
-1296.01
-3045.04
-2242.33
-2905.92
-3451.91
-2466.25
-3918.69
-1801.37
-1478.49
-1529.57
2911.65
-1633.92
4223.84
-1920.56
3579.44
-2285.27
2568.29
-2617.5
2123.62
-2866.41
1921.57
-3051.26
1654.91
-3202.99
1435.8
-3338.49
1221.55
-3450.34
927.07
-3524.46
574.137
-3557.06
203.804
-3554.13
-172.241
-3521.1
-574.072
-3460.97
-1007.02
-3370.72
-1491.71
-3244.75
-2039.47
-3076
-2665.45
-2856.97
-3368.54
-2579.09
-4133.74
-2235.64
-4941.13
-1826.97
-5769.13
-1357.81
-6565.24
-830.871
-7244.56
-248.179
-7740.56
385.135
-8027.42
1048.02
-8103.84
1714.48
-8030.59
2374.44
-7851.44
3019.23
-7539.34
3630.25
-7073.93
4190.82
-6485.08
4701.98
-5868.41
5176.7
-5280
5617.35
-4655.34
6002.02
-3857.45
6295.26
-2812.37
6463.06
-1542.71
6493.06
-187.034
6381.67
1156.33
6161.4
2189.89
5861.43
2927.28
5512.7
3396.6
5140.9
3656.14
4764.99
3779.62
4398.04
3834.96
4046.95
3874.83
3711.36
3943.78
3383.78
4081.14
3051.13
4316.65
2699.2
4656.65
2320.09
5083.15
1918.39
5563.82
1496.96
6143.9
1040.98
6817.09
524.469
7783.89
-58.2095
8721.9
-492.246
12060.7
-1189.33
16127.1
-2289.84
15045.6
-3447.56
13062.9
-4627.55
12504.8
-5811.31
12462.1
-7025.22
12876.8
-8287.69
13610.2
-9618.72
14560.8
-11035.3
15654.1
-12551.4
16816.2
-14173.4
17964.2
-15889.9
18983
-17653.4
19703.7
-19354.3
19890.8
-20807.9
19274
-21793.7
17652.6
-22179.4
15066
-22075.3
11920.5
-21833.8
8855.22
-21777.7
6303.53
-21928.1
4197.81
-22082.8
2209.37
-22083.6
149.536
-21910.9
-1975.44
-21587.5
-4167.71
-21125.9
-6428.17
-20533.7
-8789.67
-19813.6
-11301.1
-18957.2
-14016.1
-17945.7
-16971.7
-16754.7
-20156.6
-15364.5
-23474.8
-13780.3
-26742
-12057.5
-29730.7
-10296.8
-32170.8
-8646.79
-33957.6
-35492.5
-3080.11
-1251.25
-3086.48
-2235.96
-2989
-3549.39
-2598.02
-4309.67
-1907.36
-2169.15
-1566.46
2570.75
-1613.5
4270.89
-1824.5
3790.43
-2161.03
2904.84
-2528.32
2490.91
-2820.34
2213.59
-3029.75
1864.33
-3191.29
1597.37
-3331.72
1361.99
-3448.73
1044.1
-3527.43
652.844
-3562.43
238.82
-3560.43
-174.229
-3528.31
-606.181
-3470.12
-1065.19
-3383.05
-1578.76
-3261.43
-2161.08
-3097.95
-2828.92
-2884.85
-3581.63
-2613.36
-4405.23
-2276.42
-5278.06
-1873.27
-6172.27
-1407.42
-7031.08
-881.788
-7770.19
-299.833
-8322.51
331.787
-8659.03
992.514
-8764.56
1657.79
-8695.86
2317.97
-8511.61
2963.67
-8185.03
3574.47
-7684.73
4133.07
-7043.67
4642.99
-6378.33
5121.22
-5758.23
5571.46
-5105.57
5968.73
-4254.7
6272.64
-3116.28
6445.16
-1715.23
6472.88
-214.738
6353.29
1275.93
6120.36
2422.83
5804.69
3242.97
5438.71
3762.59
5049.17
4045.69
4656.61
4172.18
4276.15
4215.43
3916.1
4234.89
3576.47
4283.41
3249.41
4408.21
2920.83
4645.24
2575.19
5002.3
2204.04
5454.31
1815.39
5952.47
1421.57
6537.73
1013.69
7224.97
573.59
8224
34.1972
9261.29
-369.672
12464.6
-917.53
16675
-1900.7
16028.8
-3056.25
14218.4
-4263.08
13711.7
-5478.66
13677.6
-6726.76
14124.9
-8020.96
14904.4
-9379.28
15919.1
-10818
17092.8
-12352.1
18350.3
-13987.8
19599.9
-15708
20703.3
-17443.9
21439.5
-19041
21488
-20263.6
20496.5
-20898
18287.1
-20955.7
15123.7
-20776
11740.9
-20777.3
8856.49
-21053.8
6580.06
-21369
4512.99
-21503.5
2343.85
-21424
70.0855
-21182.5
-2216.96
-20809.1
-4541.12
-20321.8
-6915.47
-19735.6
-9375.87
-19057.4
-11979.3
-18283
-14790.5
-17396.8
-17857.9
-16375.2
-21178.3
-15194.4
-24655.6
-13851.6
-28084.7
-12391.5
-31190.9
-10896.2
-33666.1
-9494.19
-35359.7
-36484.3
-3054.87
-1211.91
-3066.33
-2224.5
-3004.94
-3610.78
-2680.87
-4633.74
-1992.51
-2857.5
-1586.53
2164.78
-1594.52
4278.89
-1754.42
3950.33
-2055.86
3206.29
-2439.82
2874.88
-2767.75
2541.54
-3004
2100.6
-3178.49
1771.89
-3324.94
1508.45
-3446.89
1166.07
-3529.82
735.78
-3567.12
276.144
-3566.02
-175.309
-3534.77
-637.413
-3478.48
-1121.46
-3394.54
-1662.69
-3277.16
-2278.44
-3118.82
-2987.24
-2911.41
-3789.02
-2645.87
-4670.76
-2314.72
-5609.2
-1916.13
-6570.85
-1452.56
-7494.64
-927.107
-8295.63
-344.764
-8904.84
286.358
-9290.14
946.462
-9424.66
1611.64
-9361.03
2272.28
-9172.24
2918.95
-8831.69
3529.47
-8295.24
4085.81
-7600
4594.19
-6886.7
5075.98
-6240.01
5536.18
-5565.76
5946.25
-4664.77
6260.42
-3430.44
6436.56
-1891.36
6460.12
-238.285
6330.78
1405.28
6083.89
2669.74
5751.5
3575.37
5367.39
4146.7
4959.35
4453.75
4549.67
4581.86
4155.64
4609.48
3786.81
4603.73
3443.33
4626.9
3116.82
4734.74
2792.22
4969.85
2452.65
5341.87
2088.76
5818.22
1711.45
6329.78
1341.96
6907.24
979.609
7587.33
622.474
8581.14
151.037
9732.74
-238.676
12854.3
-673.862
17110.2
-1541.08
16896
-2681.34
15358.7
-3897.18
14927.5
-5133.2
14913.7
-6408.36
15400
-7730.14
16226.2
-9113.13
17302.1
-10571.7
18551.4
-12120.5
19899.1
-13763.9
21243.3
-15474.4
22413.8
-17152
23117.1
-18591.3
22927.2
-19528.6
21433.8
-19836.7
18595.2
-19745.6
15032.7
-19734.1
11729.3
-20045.2
9167.59
-20473.6
7008.49
-20724.4
4763.82
-20727.9
2347.31
-20556.9
-100.869
-20263.1
-2510.78
-19859.8
-4944.4
-19365.6
-7409.71
-18797.2
-9944.27
-18164.7
-12611.8
-17468.7
-15486.5
-16698.7
-18627.9
-15834.2
-22042.8
-14849.6
-25640.1
-13733.2
-29201.2
-12516.4
-32407.7
-11278.7
-34903.8
-10155.4
-36482.9
-37300.7
-2950
-1217.2
-2941.73
-2232.78
-2903.48
-3649.02
-2670.35
-4866.88
-2053.96
-3473.89
-1606.86
1717.68
-1578.57
4250.6
-1718.34
4090.1
-1987.22
3475.17
-2367.14
3254.8
-2715.23
2889.64
-2974.78
2360.16
-3163.92
1961.04
-3317.83
1662.37
-3444.78
1293.03
-3531.59
822.604
-3571.08
315.644
-3570.89
-175.481
-3540.56
-667.736
-3486.22
-1175.79
-3405.39
-1743.51
-3292.22
-2391.6
-3138.91
-3140.54
-2937.01
-3990.92
-2677.03
-4930.73
-2351
-5935.22
-1956.06
-6965.78
-1493.75
-7956.95
-967.37
-8822.01
-383.225
-9488.98
249.036
-9922.4
909.64
-10085.3
1575.24
-10026.6
2236.62
-9833.61
2884.45
-9479.52
3494.86
-8905.65
4048.96
-8154.1
4555.81
-7393.55
5041.43
-6725.62
5511.97
-6036.3
5934.91
-5087.71
6258.62
-3754.14
6436.95
-2069.68
6454.1
-255.427
6313.22
1546.17
6050.89
2932.07
5700.71
3925.56
5297.62
4549.8
4870.36
4881.01
4443.31
5008.92
4035.92
5016.88
3658.77
4980.88
3311.8
4973.89
2985.93
5060.62
2665.2
5290.58
2331.39
5675.69
1973.95
6175.67
1606.27
6697.47
1257.19
7256.33
936.681
7907.84
676.277
8841.55
299.025
10110
-108.795
13262.1
-495.315
17496.7
-1260.2
17660.9
-2359.77
16458.3
-3554.99
16122.7
-4792.4
16151.1
-6081.68
16689.3
-7422.71
17567.2
-8824.95
18704.3
-10299.4
20025.9
-11858.4
21458.1
-13501.8
22886.7
-15185
24096.9
-16768.9
24701
-18002.9
24161.2
-18645
22076
-18732.5
18682.7
-18693.3
14993.5
-18947.4
11983.4
-19434.3
9654.52
-19805.3
7379.46
-19904.4
4862.91
-19810.4
2253.36
-19605.5
-305.822
-19297.1
-2819.21
-18886.8
-5354.71
-18395.6
-7900.84
-17843.9
-10496
-17247.6
-13208.1
-16614.2
-16119.9
-15940.4
-19301.7
-15212.5
-22770.7
-14408.7
-26444
-13509.4
-30100.5
-12522.5
-33394.5
-11500.5
-35925.9
-10565.2
-37418.2
-37999.3
-2736.56
-1254.44
-2672.79
-2296.56
-2636.1
-3685.71
-2508.72
-4994.26
-2052.67
-3929.93
-1629.44
1294.45
-1577.22
4198.39
-1722.09
4234.97
-1965.11
3718.21
-2321.19
3610.89
-2669.68
3238.16
-2944.11
2634.6
-3147.47
2164.42
-3310.1
1825.01
-3442.27
1425.21
-3532.73
913.078
-3574.3
357.234
-3575.11
-174.648
-3545.81
-697.015
-3493.49
-1228.09
-3415.81
-1821.17
-3306.82
-2500.58
-3158.46
-3288.88
-2961.86
-4187.51
-2707.06
-5185.51
-2385.51
-6256.77
-1993.37
-7357.91
-1531.34
-8418.96
-1002.95
-9350.4
-415.699
-10076.2
219.135
-10557.2
881.289
-10747.4
1547.87
-10693.2
2210.29
-10496
2859.58
-10128.8
3470.29
-9516.35
4022.56
-8706.36
4528.32
-7899.3
5018.32
-7215.61
5499.64
-6517.61
5935.3
-5523.36
6267.5
-4086.33
6446.24
-2248.41
6454.33
-263.501
6299.84
1700.67
6020.39
3211.54
5651.18
4294.78
5228.17
4972.81
4781.15
5328.05
4336.7
5453.37
3916.47
5437.11
3531.7
5365.67
3181.74
5323.85
2856.71
5385.66
2539.77
5607.53
2211.31
6004.16
1859.35
6527.64
1499.42
7057.41
1165.7
7590.05
886.69
8186.86
741.733
8986.52
450.588
10401.1
-36.6035
13749.3
-434.575
17894.7
-1104.44
18330.8
-2124.54
17478.4
-3262.27
17260.5
-4475.99
17364.8
-5760.99
17974.3
-7108.48
18914.7
-8521.3
20117.2
-10005.5
21510.1
-11568.8
23021.4
-13202.1
24520
-14836.9
25731.8
-16291.9
26155.9
-17293.4
25162.8
-17682.9
22465.4
-17694.1
18693.9
-17833.7
15133
-18294.5
12444.3
-18778.4
10138.5
-19004.8
7605.88
-19006.6
4864.65
-18903.1
2149.91
-18710.4
-498.529
-18402.1
-3127.55
-17985.6
-5771.17
-17487.8
-8398.6
-16936.5
-11047.4
-16356.2
-13788.4
-15761.4
-16714.7
-15155.7
-19907.4
-14533.9
-23392.5
-13883.1
-27094.7
-13186.1
-30797.5
-12429.8
-34150.8
-11623.2
-36732.5
-10846.5
-38194.9
-38602.4
-2401.81
-1384.8
-2265.45
-2432.92
-2204.1
-3747.06
-2174.27
-5024.1
-1970.24
-4133.95
-1667.38
991.589
-1601.89
4132.91
-1762.02
4395.1
-1985.95
3942.15
-2303.25
3928.18
-2634.73
3569.65
-2914.06
2913.94
-3129.57
2379.94
-3301.59
1997.04
-3439.26
1562.89
-3533.22
1007.05
-3576.81
400.833
-3578.76
-172.687
-3550.66
-725.097
-3500.45
-1278.29
-3425.95
-1895.67
-3321.11
-2605.41
-3177.59
-3432.39
-2986.07
-4379.03
-2736.08
-5435.5
-2418.38
-6574.47
-2028.2
-7748.08
-1565.54
-8881.63
-1034.11
-9881.82
-442.601
-10667.7
196.028
-11195.9
860.65
-11412
1528.75
-11361.3
2192.55
-11159.8
2843.68
-10779.9
3455.37
-10128
4006.67
-9257.65
4512.27
-8404.9
5007.54
-7710.88
5500.11
-7010.17
5948.1
-5971.34
6287.36
-4425.58
6464.45
-2425.49
6460.44
-259.482
6289.98
1871.13
5991.39
3510.14
5601.64
4684.53
5157.73
5416.73
4690.56
5795.23
4229.05
5914.88
3796.79
5869.38
3405.29
5757.17
3053.04
5676.11
2729.19
5709.52
2416
5920.73
2092.41
6327.75
1744.8
6875.26
1390.25
7411.97
1065.52
7914.79
836.004
8416.38
805.877
9016.65
518.257
10688.8
-114.807
14382.4
-532.277
18312.1
-1096.13
18894.6
-1994.97
18377.2
-3040.31
18305.8
-4203.1
18527.6
-5461.78
19233
-6799.1
20252
-8210.51
21528.6
-9695.67
22995.2
-11255.2
24580.9
-12865.9
26130.8
-14429.5
27295.4
-15727.1
27453.5
-16497.7
25933.4
-16715.8
22683.4
-16777.4
18755.5
-17115.3
15470.9
-17654.5
12983.5
-18034.4
10518.3
-18160
7731.52
-18170.7
4875.3
-18116.8
2096.08
-17944.7
-670.687
-17629.3
-3442.9
-17192.3
-6208.2
-16668.6
-8922.33
-16097.2
-11618.7
-15512.2
-14373.4
-14934.2
-17292.8
-14370.2
-20471.4
-13820.2
-23942.5
-13282.3
-27632.6
-12752
-31327.8
-12212
-34690.9
-11633
-37311.5
-11035.8
-38792.1
-39096.5
-2010.29
-1623.77
-1814.27
-2628.93
-1711.55
-3849.79
-1736.2
-4999.45
-1796.66
-4073.47
-1701.58
896.507
-1654.89
4086.22
-1822.62
4562.83
-2033.64
4153.19
-2305.4
4199.95
-2609.44
3873.7
-2885.78
3190.3
-3110.85
2605.02
-3292.31
2178.52
-3435.67
1706.27
-3533.11
1104.5
-3578.71
446.455
-3581.97
-169.402
-3555.26
-751.786
-3507.22
-1326.31
-3435.89
-1966.98
-3335.13
-2706.15
-3196.32
-3571.19
-3009.64
-4565.7
-2764.05
-5681.07
-2449.61
-6888.89
-2060.65
-8137.03
-1596.49
-9345.78
-1061.12
-10417.2
-464.36
-11264.5
179.046
-11839.2
846.877
-12079.8
1516.97
-12031.4
2182.49
-11825.3
2835.92
-11433.3
3449.49
-10741.6
4001.13
-9809.28
4508.1
-8911.87
5009.96