/*--------------------------------*- C++ -*----------------------------------*\
| =========                 |                                                 |
| \\      /  F ield         | OpenFOAM: The Open Source CFD Toolbox           |
|  \\    /   O peration     | Version:  4.1                                   |
|   \\  /    A nd           | Web:      www.OpenFOAM.org                      |
|    \\/     M anipulation  |                                                 |
\*---------------------------------------------------------------------------*/
FoamFile
{
    version     2.0;
    format      ascii;
    class       volVectorField;
    location    "600";
    object      U;
}
// * * * * * * * * * * * * * * * * * * * * * * * * * * * * * * * * * * * * * //

dimensions      [0 1 -1 0 0 0 0];

internalField   nonuniform List<vector> 
26785
(
(-5.81588e-14 -0.0651411 -12.1238)
(-6.60299e-14 0.00482158 -10.4694)
(-8.37668e-14 0.0981688 -9.49811)
(-1.03095e-13 0.151591 -11.2959)
(-8.82081e-14 0.123012 -14.7808)
(-4.96514e-14 0.0465048 -17.3898)
(-2.59475e-14 -0.00682747 -17.6834)
(-4.09819e-14 0.00663921 -17.4081)
(-3.07511e-14 0.0204261 -17.7677)
(-2.52141e-14 0.0140904 -18.1468)
(-1.6522e-14 0.00675929 -18.3562)
(-2.72078e-14 1.1442e-05 -18.4633)
(-3.374e-14 -0.00740376 -18.4594)
(-4.41644e-14 -0.0150475 -18.3489)
(-5.47131e-14 -0.0229564 -18.131)
(-6.43143e-14 -0.0305555 -17.8084)
(-7.1467e-14 -0.0383896 -17.389)
(-7.273e-14 -0.0479447 -16.8595)
(-6.50401e-14 -0.0608568 -16.1875)
(-6.54494e-14 -0.0773605 -15.3352)
(-6.57468e-14 -0.0972568 -14.2758)
(-7.26418e-14 -0.120278 -12.9912)
(-7.3359e-14 -0.145321 -11.4633)
(-6.06251e-14 -0.16567 -9.68512)
(-5.8e-14 -0.159738 -7.66804)
(-2.18263e-14 -0.16559 -5.70527)
(-1.39999e-14 -0.336901 -3.96182)
(-2.02187e-14 -0.559492 -0.918302)
(-6.90256e-14 -0.524358 2.42426)
(-8.22765e-14 -0.307676 5.03283)
(-7.22192e-14 -0.201413 7.31828)
(-7.32413e-15 -0.195579 9.55144)
(4.62057e-14 -0.219566 11.7222)
(8.3193e-14 -0.233266 13.8986)
(6.08734e-14 -0.21092 15.9331)
(2.79089e-14 -0.167111 17.6587)
(-1.80126e-15 -0.130472 19.0932)
(-2.05067e-14 -0.108206 20.3123)
(-2.8425e-14 -0.092324 21.3505)
(-2.9784e-14 -0.0754626 22.2082)
(-2.68936e-14 -0.0544413 22.8647)
(-1.97443e-14 -0.0286128 23.2831)
(-1.52208e-14 0.0013405 23.4275)
(-1.06056e-14 0.0341118 23.2754)
(-1.38369e-14 0.0660411 22.8281)
(-1.43761e-14 0.0909694 22.1384)
(-2.05047e-14 0.109805 21.2908)
(-2.74619e-14 0.124409 20.3432)
(-3.36782e-14 0.135305 19.3271)
(-3.74452e-14 0.14306 18.2635)
(-3.79864e-14 0.1486 17.1684)
(-3.70197e-14 0.152984 16.0514)
(-3.78231e-14 0.15715 14.9151)
(-3.6582e-14 0.161774 13.7563)
(-3.50852e-14 0.16707 12.5695)
(-3.26572e-14 0.17252 11.3497)
(-3.91909e-14 0.176731 10.0997)
(-4.5399e-14 0.177965 8.82813)
(-4.37692e-14 0.17419 7.57152)
(-6.02259e-14 0.173847 6.31801)
(-6.58319e-14 0.191685 5.05896)
(-6.76797e-14 0.416815 3.49595)
(8.30235e-15 0.602578 -0.326539)
(3.16961e-13 0.487511 -5.45429)
(3.48863e-13 0.401655 -7.63962)
(3.24171e-13 0.337653 -10.1211)
(3.26764e-13 0.316227 -12.1563)
(3.22262e-13 0.315648 -14.1358)
(3.18845e-13 0.325913 -16.1437)
(3.13036e-13 0.34546 -18.2182)
(3.07569e-13 0.368504 -20.4168)
(3.02358e-13 0.393099 -22.743)
(2.95535e-13 0.416398 -25.2007)
(2.88469e-13 0.436325 -27.7723)
(2.81383e-13 0.450583 -30.4305)
(2.7365e-13 0.45694 -33.1336)
(2.72005e-13 0.453307 -35.8277)
(2.6551e-13 0.438123 -38.4486)
(2.59696e-13 0.410712 -40.9263)
(2.53383e-13 0.371443 -43.1913)
(2.46444e-13 0.321624 -45.1806)
(2.37546e-13 0.263177 -46.8426)
(2.21156e-13 0.198211 -48.1398)
(2.16813e-13 0.128583 -49.0482)
(2.07324e-13 0.0555823 -49.5551)
(1.97511e-13 -0.0201669 -49.6554)
(1.92205e-13 -0.0988206 -49.3472)
(1.85568e-13 -0.181087 -48.6251)
(1.78155e-13 -0.26719 -47.4768)
(1.70386e-13 -0.357654 -45.8873)
(1.64338e-13 -0.454645 -43.8349)
(1.57735e-13 -0.560022 -41.2788)
(1.51907e-13 -0.676979 -38.1514)
(1.46895e-13 -0.814377 -34.3922)
(1.42162e-13 -0.979311 -29.9666)
(1.3893e-13 -1.16574 -24.6028)
(1.39359e-13 -1.49973 -17.5679)
(1.35081e-13 -2.58584 -9.1574)
(1.33077e-13 -4.92849 -1.59598)
(1.43171e-13 -6.61509 29.7246)
(-5.28584e-14 -0.336072 -15.0702)
(-5.85071e-14 -0.258717 -12.3348)
(-6.36506e-14 0.0072546 -9.44158)
(-9.03039e-14 0.364406 -9.32567)
(-9.74028e-14 0.4858 -12.6014)
(-5.74982e-14 0.270062 -16.3765)
(-1.59262e-14 0.000360371 -17.665)
(-2.62934e-14 0.00214521 -17.3285)
(-1.58547e-14 0.0617732 -17.5194)
(-8.27151e-15 0.0531483 -17.9406)
(-1.52254e-14 0.029391 -18.2185)
(-2.1959e-14 0.0100694 -18.3644)
(-2.70666e-14 -0.00954686 -18.409)
(-2.00804e-14 -0.030365 -18.354)
(-3.31718e-15 -0.0522799 -18.1933)
(7.44289e-15 -0.0740429 -17.9288)
(3.86081e-15 -0.0975743 -17.5651)
(-3.98471e-15 -0.126717 -17.0895)
(-6.66127e-15 -0.164882 -16.477)
(-1.39436e-14 -0.210779 -15.7006)
(-2.93948e-14 -0.2615 -14.746)
(-2.3303e-14 -0.31429 -13.6092)
(-4.25018e-14 -0.366491 -12.2847)
(-2.33196e-14 -0.40769 -10.7602)
(-3.25154e-14 -0.407487 -8.97471)
(-3.1861e-14 -0.404274 -6.7907)
(1.87961e-15 -0.623469 -4.49071)
(5.84997e-15 -0.944757 -2.45977)
(-3.08142e-15 -0.978373 -0.248561)
(-2.22306e-14 -0.695243 2.56878)
(2.33871e-14 -0.583405 5.2798)
(6.04806e-14 -0.589832 7.76929)
(3.94377e-14 -0.631292 10.0649)
(2.76883e-15 -0.642869 12.2557)
(-2.56629e-14 -0.588548 14.2989)
(-3.53603e-14 -0.502269 16.1271)
(-3.35496e-14 -0.426639 17.732)
(-2.41541e-14 -0.368654 19.1184)
(-1.39908e-14 -0.316263 20.2921)
(-5.49768e-15 -0.25794 21.2565)
(5.28479e-16 -0.186196 21.9959)
(3.56583e-15 -0.0986096 22.4746)
(7.88388e-15 0.00144357 22.6574)
(4.52991e-15 0.107258 22.5261)
(3.19765e-15 0.20585 22.0907)
(3.1824e-15 0.278064 21.4087)
(5.8347e-15 0.327636 20.5761)
(5.89196e-15 0.362733 19.6586)
(1.28572e-15 0.387824 18.689)
(-6.8889e-15 0.40646 17.6852)
(-1.12173e-14 0.421756 16.6567)
(-1.7514e-14 0.436081 15.6068)
(-1.73792e-14 0.451109 14.5329)
(-2.0942e-14 0.46805 13.4295)
(-1.92038e-14 0.487272 12.2891)
(-1.65979e-14 0.507367 11.104)
(-2.92474e-14 0.524553 9.87233)
(-3.76477e-14 0.534297 8.59521)
(-3.20568e-14 0.531536 7.29893)
(-3.23969e-14 0.541927 5.96112)
(-3.34888e-14 0.598703 4.58757)
(-5.16144e-14 1.16592 3.03813)
(-8.09878e-15 1.88361 0.099732)
(3.32761e-13 1.60624 -5.26567)
(3.48739e-13 1.22374 -7.69874)
(3.18807e-13 1.02871 -10.2)
(3.22823e-13 0.952873 -12.2753)
(3.18002e-13 0.94675 -14.2616)
(3.15326e-13 0.976949 -16.2777)
(3.16368e-13 1.03657 -18.3592)
(3.09631e-13 1.1085 -20.571)
(3.03181e-13 1.18612 -22.9189)
(2.94989e-13 1.26079 -25.4099)
(2.88403e-13 1.32594 -28.0285)
(2.81381e-13 1.37442 -30.7488)
(2.7569e-13 1.3991 -33.5298)
(2.63841e-13 1.39317 -36.3176)
(2.56185e-13 1.35126 -39.0463)
(2.46124e-13 1.27064 -41.6434)
(2.31588e-13 1.15183 -44.0358)
(2.22292e-13 0.998547 -46.1564)
(2.13421e-13 0.816836 -47.9497)
(2.01673e-13 0.613908 -49.3745)
(1.94619e-13 0.396646 -50.4044)
(1.91503e-13 0.170334 -51.0255)
(1.88022e-13 -0.0619624 -51.2326)
(1.78408e-13 -0.299866 -51.0246)
(1.6576e-13 -0.546019 -50.3998)
(1.61342e-13 -0.804912 -49.3576)
(1.55261e-13 -1.08043 -47.8789)
(1.49305e-13 -1.3804 -45.9411)
(1.43995e-13 -1.71348 -43.5013)
(1.38833e-13 -2.09263 -40.491)
(1.34159e-13 -2.54386 -36.8403)
(1.2911e-13 -3.08581 -32.4839)
(1.23938e-13 -3.68392 -27.1504)
(1.22594e-13 -4.47221 -20.2063)
(1.25218e-13 -6.35276 -11.6517)
(1.23427e-13 -10.119 -2.79544)
(1.33959e-13 -12.6203 13.8374)
(-4.97859e-14 -0.564598 -17.5178)
(-5.32233e-14 -0.564955 -14.7567)
(-7.0282e-14 -0.234703 -11.0093)
(-9.78374e-14 0.470882 -8.22837)
(-1.20213e-13 0.846394 -10.0914)
(-8.54502e-14 0.623614 -14.4775)
(-2.01271e-15 0.0927809 -17.2928)
(-1.60136e-14 -0.00881737 -17.3109)
(-7.47894e-15 0.0902719 -17.2933)
(-1.59591e-14 0.0970722 -17.6819)
(-2.37273e-14 0.0583249 -18.0491)
(-2.98377e-14 0.0229891 -18.2455)
(-3.45622e-14 -0.00932284 -18.3347)
(-3.36796e-14 -0.0443406 -18.3271)
(-2.28258e-14 -0.0817321 -18.206)
(-1.21594e-14 -0.118765 -17.973)
(-3.92875e-15 -0.158214 -17.6338)
(-1.51036e-14 -0.205589 -17.1808)
(9.55574e-15 -0.26616 -16.5986)
(4.61539e-15 -0.338083 -15.8692)
(1.25939e-14 -0.417492 -14.9821)
(-1.26277e-14 -0.501464 -13.9309)
(-3.59147e-14 -0.589217 -12.7052)
(-2.46197e-14 -0.673499 -11.2853)
(-1.72784e-14 -0.730314 -9.61766)
(-3.13435e-14 -0.776762 -7.60149)
(-1.7264e-14 -0.98255 -5.37598)
(-3.57561e-15 -1.29692 -3.24311)
(-2.4699e-14 -1.43394 -1.11321)
(-2.3773e-14 -1.30887 1.34562)
(-5.64607e-15 -1.18927 3.96065)
(1.58899e-14 -1.13534 6.4871)
(-2.50573e-15 -1.1329 8.88797)
(-2.39431e-14 -1.10911 11.1248)
(-2.63187e-14 -1.01358 13.1831)
(-1.33016e-14 -0.881219 15.0539)
(-3.21066e-15 -0.75904 16.731)
(-5.64892e-16 -0.656608 18.1971)
(2.06605e-15 -0.561223 19.4456)
(5.53941e-15 -0.457212 20.4761)
(8.88683e-15 -0.332183 21.2731)
(1.18948e-14 -0.181875 21.8022)
(1.36189e-14 -0.0120187 22.03)
(1.38486e-14 0.165944 21.9389)
(1.31164e-14 0.331739 21.5356)
(1.15722e-14 0.453478 20.8699)
(9.57609e-15 0.535864 20.0429)
(7.71033e-15 0.5922 19.1265)
(4.92201e-15 0.630847 18.1596)
(1.37e-15 0.658974 17.1659)
(-2.93041e-15 0.682722 16.1575)
(-6.0835e-15 0.706289 15.1363)
(-6.38048e-15 0.732264 14.0968)
(-5.91099e-15 0.762478 13.0296)
(-6.02115e-15 0.797752 11.9235)
(-1.24556e-14 0.836427 10.7655)
(-1.53203e-14 0.873271 9.54526)
(-8.64917e-15 0.90169 8.25156)
(-1.52602e-14 0.914244 6.89962)
(-5.45877e-15 0.948494 5.44979)
(-5.97637e-15 1.03487 3.97429)
(-2.80289e-14 1.7973 2.26024)
(-2.06089e-14 3.07722 0.256663)
(3.13832e-13 2.80158 -5.01907)
(3.4656e-13 2.06054 -7.79654)
(3.23716e-13 1.73409 -10.3111)
(3.28586e-13 1.59891 -12.4389)
(3.22757e-13 1.5831 -14.4436)
(3.19711e-13 1.63301 -16.4791)
(3.14006e-13 1.73298 -18.5769)
(3.05835e-13 1.85572 -20.8085)
(2.97207e-13 1.98911 -23.1817)
(2.89698e-13 2.11877 -25.7065)
(2.82277e-13 2.23336 -28.369)
(2.73354e-13 2.32069 -31.1447)
(2.62421e-13 2.36849 -33.9927)
(2.50415e-13 2.36498 -36.8582)
(2.39164e-13 2.3008 -39.6731)
(2.27861e-13 2.17109 -42.3614)
(2.1752e-13 1.97668 -44.8464)
(2.08355e-13 1.72385 -47.0579)
(1.99853e-13 1.42289 -48.9384)
(1.88167e-13 1.08594 -50.4462)
(1.75967e-13 0.724481 -51.5552)
(1.6924e-13 0.347275 -52.2527)
(1.61717e-13 -0.0403628 -52.5349)
(1.5515e-13 -0.436628 -52.4028)
(1.48455e-13 -0.844176 -51.8565)
(1.41576e-13 -1.27073 -50.8999)
(1.35681e-13 -1.72438 -49.5161)
(1.27935e-13 -2.21735 -47.6848)
(1.24683e-13 -2.76452 -45.3687)
(1.19531e-13 -3.38831 -42.5106)
(1.15413e-13 -4.13181 -39.0537)
(1.13125e-13 -5.04469 -34.9339)
(1.11161e-13 -6.14691 -29.9203)
(1.11425e-13 -7.59892 -23.5806)
(1.13602e-13 -10.0747 -16.0465)
(1.142e-13 -13.9703 -8.24246)
(1.26421e-13 -16.8208 1.97711)
(-4.67532e-14 -0.783147 -19.4797)
(-4.81622e-14 -0.894821 -16.9326)
(-5.14542e-14 -0.628773 -13.1638)
(-6.36769e-14 0.355773 -8.67202)
(-9.85299e-14 1.1086 -8.50715)
(-6.94384e-14 1.0643 -12.3819)
(-2.58775e-14 0.307304 -16.379)
(-2.22877e-14 0.00507818 -17.2467)
(-7.3664e-15 0.104478 -17.1563)
(-1.49689e-14 0.143457 -17.4265)
(-1.52071e-14 0.0985383 -17.8622)
(-1.20861e-14 0.0447917 -18.1173)
(-1.00289e-14 -0.000208211 -18.2477)
(-2.91764e-15 -0.0490469 -18.2825)
(-2.92566e-15 -0.102446 -18.1966)
(5.58895e-15 -0.155537 -17.9895)
(6.55437e-15 -0.211738 -17.6697)
(5.51473e-15 -0.277794 -17.2336)
(8.7315e-15 -0.360239 -16.6728)
(2.48555e-14 -0.456628 -15.9763)
(1.98146e-14 -0.562629 -15.1359)
(1.34e-14 -0.675426 -14.1421)
(-1.76511e-15 -0.795856 -12.9813)
(9.85715e-16 -0.91879 -11.6311)
(1.30685e-16 -1.02569 -10.0462)
(4.15776e-15 -1.12988 -8.15555)
(9.34181e-15 -1.35506 -6.04195)
(1.09926e-14 -1.66665 -3.92512)
(-1.84857e-14 -1.84632 -1.83158)
(-3.53784e-14 -1.80289 0.501468)
(-4.61547e-15 -1.68593 3.02571)
(-5.5914e-15 -1.6012 5.53193)
(-1.49444e-14 -1.5736 7.95496)
(-2.95401e-15 -1.52199 10.2123)
(-1.48239e-14 -1.40247 12.2922)
(-3.13214e-15 -1.24779 14.2017)
(-2.63008e-15 -1.09696 15.9287)
(-1.19452e-15 -0.958162 17.4462)
(5.70813e-15 -0.821566 18.7434)
(1.05115e-14 -0.671359 19.8203)
(8.0803e-15 -0.49193 20.662)
(7.53422e-15 -0.277386 21.234)
(1.14273e-14 -0.0355502 21.5027)
(1.31397e-14 0.217219 21.4472)
(1.10405e-14 0.454082 21.0735)
(1.07746e-14 0.629228 20.4225)
(6.31548e-15 0.746813 19.5993)
(2.2718e-15 0.824718 18.6793)
(8.15229e-16 0.875443 17.7055)
(2.24372e-15 0.910437 16.707)
(6.54977e-15 0.9397 15.7)
(5.14843e-15 0.969932 14.6877)
(1.4513e-15 1.00504 13.6637)
(1.63378e-15 1.04771 12.6169)
(1.10501e-15 1.09952 11.5332)
(4.29245e-15 1.15929 10.3957)
(-2.77238e-15 1.22151 9.18713)
(4.33159e-16 1.27809 7.88455)
(-8.89397e-15 1.31975 6.49256)
(7.73552e-15 1.38574 4.94941)
(1.26869e-14 1.5048 3.41074)
(1.63165e-15 2.32765 1.47142)
(-2.06675e-14 4.07757 0.122249)
(2.97331e-13 3.9969 -4.78055)
(3.6128e-13 2.92961 -7.86527)
(3.31511e-13 2.45075 -10.3814)
(3.23327e-13 2.25521 -12.5621)
(3.23934e-13 2.22658 -14.5924)
(3.20907e-13 2.29566 -16.6544)
(3.11972e-13 2.43556 -18.7741)
(3.02546e-13 2.60983 -21.0275)
(2.91644e-13 2.80047 -23.4237)
(2.81032e-13 2.98742 -25.9757)
(2.69579e-13 3.15437 -28.6723)
(2.55545e-13 3.28384 -31.4913)
(2.4063e-13 3.35802 -34.3937)
(2.31715e-13 3.3596 -37.3249)
(2.16958e-13 3.27465 -40.2154)
(2.06943e-13 3.09573 -42.9861)
(1.94222e-13 2.82372 -45.5563)
(1.8155e-13 2.46763 -47.8514)
(1.68852e-13 2.04243 -49.8102)
(1.57638e-13 1.56591 -51.3879)
(1.47526e-13 1.05503 -52.5565)
(1.30948e-13 0.522834 -53.3019)
(1.22595e-13 -0.0226047 -53.6205)
(1.16398e-13 -0.577727 -53.515)
(1.18335e-13 -1.14484 -52.99)
(1.11674e-13 -1.73606 -52.0577)
(1.06299e-13 -2.36393 -50.7066)
(9.75597e-14 -3.04464 -48.9217)
(9.72933e-14 -3.79776 -46.6759)
(9.06633e-14 -4.6514 -43.9295)
(8.88302e-14 -5.65329 -40.6481)
(8.92007e-14 -6.85999 -36.7907)
(9.08452e-14 -8.32747 -32.1921)
(9.2654e-14 -10.2572 -26.5873)
(9.95342e-14 -13.1355 -20.2007)
(1.01695e-13 -16.9222 -13.7521)
(1.17832e-13 -19.5584 -6.75137)
(-5.38897e-14 -0.976701 -20.9517)
(-5.5844e-14 -1.20315 -18.7088)
(-5.60771e-14 -1.06398 -15.2156)
(-5.2902e-14 0.016722 -10.1836)
(-6.65403e-14 1.2206 -7.8522)
(-6.03369e-14 1.50298 -10.5531)
(-3.18867e-14 0.635581 -14.9728)
(-1.51555e-14 0.0817755 -16.9833)
(7.47209e-15 0.112329 -17.082)
(5.92714e-15 0.183603 -17.2096)
(5.12457e-15 0.145405 -17.6668)
(6.02673e-15 0.0723827 -17.9807)
(-8.2407e-15 0.0128407 -18.1541)
(-1.3258e-14 -0.0509314 -18.2304)
(-1.88701e-14 -0.122091 -18.1811)
(-2.42464e-15 -0.192794 -17.9995)
(1.33597e-14 -0.266397 -17.6973)
(1.53682e-14 -0.350561 -17.2747)
(2.34354e-14 -0.453253 -16.7296)
(2.61247e-14 -0.572015 -16.0579)
(2.13566e-14 -0.702931 -15.2526)
(1.59592e-14 -0.843775 -14.3022)
(-1.98653e-15 -0.996915 -13.1905)
(-1.37176e-14 -1.15873 -11.894)
(-1.30613e-14 -1.31415 -10.3732)
(-4.38133e-15 -1.47324 -8.57541)
(-3.35349e-15 -1.72483 -6.55852)
(2.00273e-14 -2.03855 -4.4817)
(-4.13617e-15 -2.24958 -2.37995)
(-3.72212e-14 -2.27157 -0.118621)
(-2.38656e-14 -2.17778 2.31661)
(-1.66206e-14 -2.08647 4.80173)
(-1.38649e-14 -2.04286 7.21222)
(-1.00065e-14 -1.97028 9.47556)
(-2.01982e-14 -1.82847 11.5734)
(-1.54654e-14 -1.64568 13.5131)
(-3.59718e-15 -1.45658 15.2745)
(5.80813e-15 -1.27369 16.8254)
(7.25165e-15 -1.092 18.1556)
(5.30207e-15 -0.894428 19.2671)
(2.74539e-15 -0.660582 20.1457)
(2.82633e-17 -0.382037 20.7555)
(1.10986e-15 -0.0681042 21.0601)
(-8.16524e-16 0.259677 21.0344)
(-2.65799e-15 0.569298 20.6834)
(-3.48219e-15 0.800569 20.0396)
(-2.99147e-15 0.956033 19.2128)
(-2.39233e-15 1.05726 18.2822)
(-4.27565e-16 1.12058 17.2941)
(2.85848e-15 1.16186 16.2829)
(7.29935e-15 1.1953 15.2687)
(7.23702e-15 1.2305 14.2564)
(2.01243e-15 1.27313 13.2396)
(-2.51374e-15 1.32704 12.2058)
(-5.40418e-15 1.39486 11.139)
(9.01704e-15 1.47631 10.02)
(1.00274e-14 1.56684 8.82793)
(5.484e-15 1.65788 7.53188)
(-1.56153e-14 1.73973 6.12655)
(-5.7332e-15 1.84359 4.52591)
(-3.04103e-15 2.00774 2.95214)
(3.19528e-14 2.81396 0.824366)
(-1.52265e-14 4.92109 -0.152941)
(2.85649e-13 5.16236 -4.5571)
(3.74177e-13 3.82989 -7.85013)
(3.28194e-13 3.17743 -10.3587)
(3.2903e-13 2.92352 -12.5871)
(3.25167e-13 2.88005 -14.6473)
(3.18793e-13 2.96751 -16.7405)
(3.06155e-13 3.14635 -18.8863)
(2.96593e-13 3.37181 -21.164)
(2.85618e-13 3.62009 -23.5838)
(2.74525e-13 3.8658 -26.1622)
(2.61871e-13 4.08771 -28.8914)
(2.46192e-13 4.26293 -31.7531)
(2.30474e-13 4.36775 -34.7108)
(2.13966e-13 4.37872 -37.7101)
(1.96197e-13 4.27663 -40.679)
(1.89003e-13 4.05092 -43.5332)
(1.78719e-13 3.70237 -46.1847)
(1.70231e-13 3.24284 -48.5515)
(1.57062e-13 2.69226 -50.5655)
(1.31251e-13 2.0743 -52.1764)
(1.20546e-13 1.41146 -53.3523)
(1.05252e-13 0.72115 -54.0774)
(9.19061e-14 0.0144273 -54.3484)
(8.3152e-14 -0.702587 -54.1718)
(7.46785e-14 -1.43045 -53.5612)
(6.82302e-14 -2.18427 -52.5397)
(6.45028e-14 -2.98088 -51.1069)
(6.43975e-14 -3.83939 -49.2614)
(5.98482e-14 -4.78257 -46.9954)
(5.72229e-14 -5.84323 -44.2963)
(5.45087e-14 -7.07366 -41.1617)
(5.64201e-14 -8.5358 -37.5894)
(6.096e-14 -10.3028 -33.4922)
(6.72461e-14 -12.5734 -28.7454)
(7.33548e-14 -15.672 -23.6076)
(8.62614e-14 -19.2542 -18.5656)
(1.04902e-13 -21.4842 -13.4562)
(-5.6633e-14 -1.15843 -21.9857)
(-5.44346e-14 -1.47677 -20.0955)
(-5.65726e-14 -1.49247 -16.9708)
(-5.15028e-14 -0.45072 -12.0276)
(-5.07316e-14 1.18757 -7.8082)
(-3.86374e-14 1.8679 -9.15333)
(-2.4149e-14 1.04412 -13.3223)
(-1.5023e-14 0.250835 -16.421)
(-6.52069e-16 0.133611 -16.9899)
(7.58936e-15 0.21595 -17.0449)
(1.14794e-14 0.196249 -17.4775)
(2.28086e-15 0.107386 -17.839)
(-4.09474e-15 0.0328322 -18.0562)
(3.05698e-15 -0.0458341 -18.1745)
(1.00601e-14 -0.135348 -18.1639)
(1.87209e-14 -0.224717 -18.0086)
(3.02846e-14 -0.316609 -17.7227)
(4.76206e-14 -0.419396 -17.3112)
(6.64301e-14 -0.542146 -16.778)
(5.92654e-14 -0.682408 -16.1254)
(4.62937e-14 -0.837167 -15.3476)
(3.72052e-14 -1.00503 -14.4313)
(2.16988e-14 -1.18984 -13.3587)
(-7.15168e-15 -1.38923 -12.1056)
(-1.8062e-14 -1.59065 -10.6366)
(-9.34002e-15 -1.80128 -8.91063)
(-1.23159e-14 -2.08427 -6.97077)
(4.01295e-15 -2.41044 -4.93801)
(9.59969e-15 -2.64752 -2.84985)
(-2.70853e-14 -2.71821 -0.63187)
(-2.62934e-14 -2.65607 1.75641)
(-1.32203e-14 -2.56854 4.21638)
(-1.07701e-14 -2.50904 6.60635)
(-2.32415e-14 -2.4145 8.86983)
(-2.3403e-14 -2.24972 10.9827)
(-1.08791e-14 -2.03989 12.9453)
(-1.404e-15 -1.81526 14.73)
(-1.13433e-15 -1.59154 16.3027)
(-4.70638e-15 -1.36762 17.656)
(-5.4382e-15 -1.12486 18.7953)
(-6.13378e-15 -0.837766 19.7072)
(-8.18802e-15 -0.495186 20.3522)
(-1.06476e-14 -0.107819 20.6895)
(-8.92565e-15 0.296774 20.6887)
(-1.08577e-14 0.682284 20.3543)
(-1.02829e-14 0.972803 19.7108)
(-8.04437e-15 1.16846 18.8737)
(-4.59759e-15 1.29392 17.9256)
(-5.19479e-16 1.36946 16.9165)
(3.59497e-15 1.41571 15.8858)
(7.25701e-15 1.4515 14.8579)
(7.20964e-15 1.48964 13.8395)
(2.31608e-15 1.53786 12.8249)
(-5.42131e-15 1.6015 11.8006)
(-1.17023e-14 1.6843 10.7486)
(-5.94736e-15 1.78695 9.64806)
(1.3263e-15 1.90641 8.47695)
(4.42256e-15 2.0349 7.20144)
(-1.75198e-14 2.16478 5.80868)
(-1.48383e-14 2.31228 4.19075)
(-1.26662e-14 2.53515 2.60224)
(5.15652e-14 3.28655 0.366944)
(-1.05841e-14 5.65609 -0.441571)
(2.71909e-13 6.28317 -4.30137)
(3.78788e-13 4.74873 -7.71)
(3.2618e-13 3.91316 -10.2141)
(3.28784e-13 3.60512 -12.4849)
(3.23333e-13 3.54604 -14.5804)
(3.13683e-13 3.65107 -16.7097)
(2.99651e-13 3.86771 -18.8871)
(2.88174e-13 4.14373 -21.1944)
(2.75784e-13 4.44987 -23.6428)
(2.62092e-13 4.75578 -26.253)
(2.46212e-13 5.03541 -29.0208)
(2.30659e-13 5.26029 -31.9316)
(2.16927e-13 5.40008 -34.951)
(1.98538e-13 5.42417 -38.0236)
(1.81378e-13 5.30687 -41.0728)
(1.67184e-13 5.03352 -44.0056)
(1.46549e-13 4.60421 -46.7232)
(1.25457e-13 4.03356 -49.1313)
(1.07965e-13 3.34678 -51.1494)
(9.6741e-14 2.57411 -52.7159)
(9.17058e-14 1.74477 -53.7908)
(9.09388e-14 0.882072 -54.3557)
(6.5867e-14 0.00205819 -54.4125)
(4.89083e-14 -0.884277 -53.9838)
(4.28018e-14 -1.77418 -53.1089)
(3.39975e-14 -2.68643 -51.8308)
(2.62484e-14 -3.64115 -50.1661)
(2.24973e-14 -4.65809 -48.1334)
(2.20235e-14 -5.76027 -45.7477)
(1.83792e-14 -6.98066 -43.024)
(1.6094e-14 -8.37035 -39.9947)
(1.97134e-14 -9.99354 -36.7058)
(2.6073e-14 -11.9377 -33.1581)
(3.59684e-14 -14.3967 -29.3543)
(5.06008e-14 -17.5887 -25.562)
(6.80764e-14 -20.9975 -22.0201)
(8.39809e-14 -22.8779 -18.5499)
(-6.20501e-14 -1.33998 -22.8785)
(-5.95887e-14 -1.716 -21.1276)
(-5.84954e-14 -1.88347 -18.4027)
(-5.98628e-14 -0.961421 -13.8101)
(-5.80742e-14 1.02868 -8.31806)
(-4.29776e-14 2.11285 -8.34658)
(-2.92286e-14 1.47893 -11.8166)
(-3.66142e-14 0.51447 -15.5776)
(-1.61828e-14 0.190442 -16.784)
(9.44176e-15 0.245136 -16.9158)
(1.00064e-14 0.247098 -17.3067)
(-5.64464e-15 0.147802 -17.6986)
(2.30817e-15 0.0583205 -17.9562)
(8.57338e-15 -0.0358371 -18.116)
(2.05006e-14 -0.145228 -18.146)
(3.7863e-14 -0.255332 -18.0188)
(5.36013e-14 -0.366884 -17.7488)
(4.33509e-14 -0.488439 -17.3467)
(2.8765e-14 -0.630349 -16.8223)
(3.32172e-14 -0.790724 -16.1846)
(3.44022e-14 -0.968104 -15.4289)
(4.41477e-14 -1.16213 -14.5405)
(3.23612e-14 -1.37797 -13.5001)
(1.07765e-14 -1.61424 -12.2832)
(3.19572e-15 -1.86016 -10.8573)
(-1.26471e-14 -2.11993 -9.18899)
(-1.91788e-14 -2.43696 -7.31114)
(-6.97685e-16 -2.78152 -5.31825)
(1.05006e-14 -3.04325 -3.24648)
(-1.29429e-14 -3.15547 -1.0563)
(-3.42056e-14 -3.12754 1.29757)
(-5.34494e-15 -3.04743 3.73191)
(-1.36743e-14 -2.97416 6.10294)
(-2.6252e-14 -2.86145 8.36526)
(-3.20644e-14 -2.67657 10.4906)
(-1.80351e-14 -2.4406 12.4704)
(-1.08916e-14 -2.18006 14.2709)
(-1.27179e-14 -1.91511 15.8574)
(-1.4563e-14 -1.64929 17.2274)
(-1.13974e-14 -1.36228 18.391)
(-8.24218e-15 -1.02269 19.3346)
(-8.34966e-15 -0.615983 20.0141)
(-6.1375e-15 -0.153951 20.3822)
(-9.15055e-15 0.328957 20.4026)
(-8.52914e-15 0.793216 20.0796)
(-8.35593e-15 1.14606 19.4308)
(-6.53418e-15 1.38457 18.5773)
(-3.43079e-15 1.53572 17.6057)
(3.26606e-15 1.6235 16.5695)
(1.20971e-14 1.67365 15.5134)
(1.89365e-14 1.70996 14.4657)
(2.40686e-14 1.74875 13.436)
(2.13107e-14 1.80023 12.4194)
(1.23421e-14 1.87162 11.4021)
(2.29362e-15 1.96798 10.3641)
(-5.00097e-15 2.09069 9.28238)
(-4.75658e-15 2.23807 8.13462)
(3.11498e-15 2.40395 6.88907)
(-1.73268e-14 2.58572 5.52955)
(-2.49825e-14 2.78199 3.93397)
(-2.77469e-14 3.07338 2.35082)
(3.97348e-14 3.75636 0.102973)
(-7.5262e-15 6.29765 -0.67974)
(2.55144e-13 7.34101 -3.96314)
(3.90753e-13 5.67775 -7.41843)
(3.3598e-13 4.65967 -9.93324)
(3.29037e-13 4.30172 -12.2459)
(3.24109e-13 4.22746 -14.3849)
(3.12471e-13 4.34917 -16.5578)
(2.96214e-13 4.60254 -18.7744)
(2.80895e-13 4.92853 -21.1188)
(2.62887e-13 5.29283 -23.6037)
(2.45291e-13 5.66047 -26.2534)
(2.26035e-13 6.0006 -29.0673)
(2.07516e-13 6.27876 -32.0338)
(1.89673e-13 6.45722 -35.1195)
(1.72715e-13 6.49691 -38.2666)
(1.54864e-13 6.36426 -41.3907)
(1.32656e-13 6.03924 -44.3862)
(1.0606e-13 5.5205 -47.1359)
(8.3097e-14 4.82506 -49.5232)
(7.11106e-14 3.98372 -51.4434)
(5.46183e-14 3.03435 -52.814)
(4.35017e-14 2.01511 -53.5856)
(3.76597e-14 0.958675 -53.7508)
(1.93933e-14 -0.109603 -53.3473)
(7.62179e-15 -1.16969 -52.4537)
(-1.3102e-15 -2.21555 -51.1674)
(-9.396e-15 -3.27215 -49.541)
(-1.11622e-14 -4.3636 -47.5982)
(-1.77265e-14 -5.50997 -45.3651)
(-1.88806e-14 -6.73438 -42.8578)
(-2.23912e-14 -8.06671 -40.0957)
(-2.27303e-14 -9.5496 -37.1263)
(-1.74857e-14 -11.2383 -34.0362)
(-9.51037e-15 -13.2216 -30.9234)
(2.12134e-15 -15.6887 -27.9477)
(1.86214e-14 -18.8164 -25.4487)
(3.84451e-14 -22.0667 -23.4849)
(6.03839e-14 -23.81 -21.7394)
(-6.18583e-14 -1.49006 -23.5055)
(-6.53623e-14 -1.92965 -21.9414)
(-6.45036e-14 -2.23205 -19.5681)
(-6.28452e-14 -1.48658 -15.4443)
(-5.79959e-14 0.74959 -9.33775)
(-5.09751e-14 2.22197 -8.21361)
(-4.35669e-14 1.87896 -10.7673)
(-5.2432e-14 0.843789 -14.57)
(-1.66876e-14 0.299414 -16.3918)
(5.6396e-15 0.282736 -16.7768)
(4.14417e-15 0.297111 -17.1568)
(8.0574e-15 0.192186 -17.5667)
(2.4339e-14 0.0893671 -17.8568)
(3.69777e-14 -0.0197728 -18.0556)
(4.41258e-14 -0.149617 -18.1272)
(4.11417e-14 -0.281985 -18.0302)
(3.22106e-14 -0.414528 -17.7763)
(3.30993e-14 -0.555452 -17.382)
(2.99505e-14 -0.716356 -16.8638)
(2.75803e-14 -0.896083 -16.2379)
(2.70416e-14 -1.09522 -15.5003)
(2.65676e-14 -1.31461 -14.6352)
(2.03975e-14 -1.56071 -13.6219)
(1.09636e-14 -1.8329 -12.4361)
(1.38218e-14 -2.12169 -11.0472)
(-2.60807e-15 -2.42841 -9.42653)
(-1.3801e-14 -2.78111 -7.59952)
(-2.02379e-15 -3.14874 -5.64116)
(-2.22586e-15 -3.43607 -3.58518)
(-8.58645e-15 -3.58528 -1.41228)
(-3.57299e-14 -3.59221 0.912541)
(-8.00898e-15 -3.52255 3.32142)
(-1.79891e-14 -3.43797 5.67955)
(-3.16408e-14 -3.30922 7.9411)
(-3.14279e-14 -3.10547 10.0766)
(-1.73702e-14 -2.84334 12.0695)
(-1.75785e-14 -2.54664 13.8801)
(-2.004e-14 -2.24096 15.4747)
(-1.78923e-14 -1.93486 16.8569)
(-1.12754e-14 -1.60572 18.0429)
(-6.19625e-15 -1.21495 19.0185)
(-6.00105e-15 -0.743937 19.733)
(-5.30334e-15 -0.205408 20.131)
(-6.40192e-15 0.358065 20.1696)
(-8.37375e-15 0.904495 19.8535)
(-1.09776e-14 1.32275 19.1942)
(-1.04308e-14 1.60648 18.319)
(-5.59547e-15 1.78441 17.3187)
(7.08055e-16 1.88429 16.2502)
(8.75072e-15 1.93721 15.1634)
(1.61828e-14 1.97211 14.0909)
(2.76098e-14 2.00906 13.0451)
(3.57099e-14 2.06112 12.0229)
(3.63866e-14 2.13788 11.0103)
(2.80136e-14 2.24602 9.98556)
(1.34909e-14 2.38733 8.92281)
(-5.59187e-15 2.56065 7.79917)
(1.38193e-15 2.76136 6.58836)
(-1.24584e-14 2.99452 5.27616)
(-2.65215e-14 3.24311 3.73843)
(-4.27168e-14 3.60778 2.18395)
(1.75386e-14 4.2259 0.00496923)
(-6.05782e-15 6.85353 -0.843735)
(2.31827e-13 8.31979 -3.52805)
(4.02639e-13 6.61341 -6.96878)
(3.44059e-13 5.42103 -9.51035)
(3.3194e-13 5.01626 -11.8709)
(3.26313e-13 4.92804 -14.064)
(3.1208e-13 5.06532 -16.291)
(2.92605e-13 5.3542 -18.5564)
(2.73368e-13 5.72942 -20.9466)
(2.51901e-13 6.15208 -23.4758)
(2.3167e-13 6.58278 -26.1719)
(2.09552e-13 6.98574 -29.0372)
(1.87202e-13 7.32014 -32.0627)
(1.67689e-13 7.53986 -35.2149)
(1.47235e-13 7.59576 -38.4318)
(1.26949e-13 7.44423 -41.6169)
(1.06331e-13 7.05751 -44.6429)
(8.41758e-14 6.4305 -47.36)
(6.62844e-14 5.5812 -49.6106)
(4.48982e-14 4.54658 -51.2498)
(2.2925e-14 3.37657 -52.1738)
(1.31697e-14 2.12697 -52.3541)
(-4.80147e-15 0.851476 -51.8593)
(-1.64743e-14 -0.40424 -50.8418)
(-3.04112e-14 -1.609 -49.4867)
(-3.95254e-14 -2.77163 -47.9238)
(-4.578e-14 -3.93723 -46.1316)
(-5.00668e-14 -5.1332 -44.1197)
(-4.68712e-14 -6.38146 -41.8848)
(-4.84298e-14 -7.70578 -39.4111)
(-5.1608e-14 -9.12866 -36.6898)
(-5.22752e-14 -10.6738 -33.7483)
(-4.71033e-14 -12.3677 -30.6769)
(-4.03001e-14 -14.2708 -27.6424)
(-3.05841e-14 -16.5487 -24.9713)
(-1.60747e-14 -19.3819 -23.1984)
(6.69799e-15 -22.3898 -22.4421)
(2.93956e-14 -24.2438 -22.3764)
(-6.46891e-14 -1.62295 -23.9708)
(-7.00513e-14 -2.11805 -22.6151)
(-6.64618e-14 -2.54615 -20.5642)
(-6.54989e-14 -2.00682 -16.9011)
(-5.9995e-14 0.309705 -10.8474)
(-4.91743e-14 2.19986 -8.60245)
(-5.19631e-14 2.19865 -10.2272)
(-5.40209e-14 1.19451 -13.54)
(-1.16964e-14 0.465836 -15.7878)
(8.02687e-16 0.34389 -16.5663)
(-2.65981e-16 0.349638 -17.0152)
(1.50861e-14 0.239274 -17.447)
(2.29589e-14 0.124806 -17.7619)
(2.4494e-14 0.00160182 -17.9946)
(1.90158e-14 -0.149286 -18.1073)
(9.22689e-15 -0.305953 -18.0423)
(8.47213e-15 -0.461387 -17.8049)
(7.20422e-15 -0.622357 -17.4172)
(6.44291e-15 -0.801791 -16.903)
(9.61621e-15 -0.999859 -16.2862)
(-1.47968e-15 -1.2198 -15.5637)
(-4.46919e-15 -1.46379 -14.7185)
(-1.18994e-14 -1.73948 -13.7289)
(-1.89071e-14 -2.04686 -12.5704)
(1.12606e-14 -2.37732 -11.2139)
(-8.45145e-15 -2.72937 -9.63367)
(-1.46716e-14 -3.11885 -7.849)
(-1.66697e-14 -3.51302 -5.92008)
(-6.25555e-16 -3.82754 -3.87783)
(-5.62996e-15 -4.0104 -1.71453)
(-2.71485e-14 -4.05033 0.587344)
(-6.71336e-15 -3.99394 2.97221)
(-1.53255e-14 -3.90118 5.32146)
(-3.23031e-14 -3.75793 7.58243)
(-3.11868e-14 -3.53636 9.72628)
(-2.28272e-14 -3.24793 11.729)
(-2.56342e-14 -2.91457 13.5455)
(-2.17123e-14 -2.56858 15.1437)
(-1.43314e-14 -2.224 16.535)
(-7.05785e-15 -1.85512 17.7426)
(-5.79619e-15 -1.41464 18.7513)
(-6.55915e-15 -0.878989 19.5018)
(-4.27877e-15 -0.261801 19.9293)
(-3.87163e-15 0.384762 19.9835)
(-4.96321e-15 1.01693 19.6703)
(-8.60822e-15 1.50385 18.996)
(-1.0928e-14 1.83529 18.0942)
(-8.35175e-15 2.0412 17.0605)
(-2.88989e-15 2.1531 15.9554)
(2.59971e-15 2.20771 14.8333)
(1.02284e-14 2.23924 13.7315)
(2.26347e-14 2.27167 12.6658)
(3.5478e-14 2.32131 11.6349)
(4.38161e-14 2.4007 10.6251)
(4.02733e-14 2.51857 9.61282)
(2.74786e-14 2.6769 8.56903)
(2.7723e-16 2.87382 7.46929)
(-4.08522e-15 3.10511 6.29442)
(-1.80704e-14 3.38499 5.03692)
(-3.21923e-14 3.6866 3.585)
(-5.73742e-14 4.1253 2.08548)
(3.95273e-16 4.6936 0.0336573)
(-7.37038e-15 7.3347 -0.928678)
(2.06792e-13 9.20755 -3.0203)
(4.10829e-13 7.55032 -6.37432)
(3.51991e-13 6.20118 -8.94559)
(3.35323e-13 5.75294 -11.3655)
(3.29777e-13 5.6522 -13.625)
(3.11129e-13 5.80361 -15.9184)
(2.88053e-13 6.12622 -18.2431)
(2.65696e-13 6.54945 -20.6877)
(2.43069e-13 7.03013 -23.2676)
(2.21568e-13 7.52462 -26.0142)
(1.99348e-13 7.99211 -28.9329)
(1.74301e-13 8.38484 -32.0168)
(1.437e-13 8.647 -35.2318)
(1.20799e-13 8.71698 -38.5077)
(1.05644e-13 8.53738 -41.7278)
(8.53046e-14 8.06817 -44.7264)
(7.14798e-14 7.29652 -47.2972)
(5.08797e-14 6.24072 -49.2197)
(2.70277e-14 4.95047 -50.3096)
(2.04388e-15 3.50414 -50.4961)
(-1.59995e-14 1.99878 -49.8873)
(-3.09066e-14 0.529075 -48.7562)
(-4.89963e-14 -0.840963 -47.4136)
(-6.24579e-14 -2.10542 -46.0465)
(-6.64792e-14 -3.33241 -44.6188)
(-6.99274e-14 -4.57769 -43.0265)
(-7.18462e-14 -5.86318 -41.2566)
(-7.22247e-14 -7.21504 -39.2638)
(-6.99898e-14 -8.65673 -37.0047)
(-6.74062e-14 -10.2021 -34.4405)
(-6.30604e-14 -11.8517 -31.5615)
(-5.8008e-14 -13.5884 -28.4162)
(-5.41997e-14 -15.408 -25.1492)
(-4.8404e-14 -17.3938 -22.1294)
(-4.0433e-14 -19.6875 -20.046)
(-2.62767e-14 -22.1896 -19.308)
(-6.80231e-15 -24.2311 -19.9403)
(-7.0485e-14 -1.73939 -24.3541)
(-6.66115e-14 -2.28375 -23.2063)
(-6.55604e-14 -2.8309 -21.4601)
(-6.48744e-14 -2.51438 -18.2068)
(-6.53364e-14 -0.283252 -12.5059)
(-5.70361e-14 2.07582 -9.21303)
(-6.30877e-14 2.42125 -10.0668)
(-4.93057e-14 1.52563 -12.6087)
(-3.41749e-15 0.682268 -14.9999)
(1.96355e-14 0.442871 -16.2273)
(2.69706e-14 0.412625 -16.8537)
(3.18457e-14 0.289658 -17.336)
(2.56182e-14 0.163773 -17.6744)
(1.80253e-14 0.0279234 -17.9346)
(-2.27071e-15 -0.143753 -18.0856)