/*--------------------------------*- C++ -*----------------------------------*\
| =========                 |                                                 |
| \\      /  F ield         | OpenFOAM: The Open Source CFD Toolbox           |
|  \\    /   O peration     | Version:  4.1                                   |
|   \\  /    A nd           | Web:      www.OpenFOAM.org                      |
|    \\/     M anipulation  |                                                 |
\*---------------------------------------------------------------------------*/
FoamFile
{
    version     2.0;
    format      ascii;
    class       volScalarField;
    location    "1600";
    object      p;
}
// * * * * * * * * * * * * * * * * * * * * * * * * * * * * * * * * * * * * * //

dimensions      [0 2 -2 0 0 0 0];

internalField   nonuniform List<scalar> 
26785
(
-3105.96
-3141.17
-3150.64
-3148.74
-3142.86
-3144.87
-3158.44
-3162.56
-3134.69
-3074.15
-2968.37
-2819.11
-2647.08
-2407.16
-2051.45
-1773.51
-1610.15
-1446.11
-1301.11
-1154.62
-1006.56
-857.718
-706.766
-554.592
-401.458
-248.008
-94.9099
57.1414
207.416
355.189
499.739
640.36
776.37
907.119
1031.99
1150.42
1261.89
1365.94
1462.18
1550.3
1630.07
1701.33
1764.04
1818.28
1864.21
1902.13
1932.5
1955.89
1973.03
1984.84
1992.34
1996.71
1999.15
2000.8
2002.67
2005.54
2009.93
2016.1
2024.11
2033.85
2045.07
2057.39
2070.5
2084.19
2098.27
2112.6
2127
2141.28
2155.25
2168.68
2181.35
2193.03
2203.51
2212.57
2220.01
2225.65
2229.29
2230.74
2229.8
2226.32
2220.28
2211.71
2200.96
2188.95
2175.55
2160.57
2139.74
2105.73
2052.33
1982.76
1897.75
1795.42
1674.32
1534.32
1373.08
1190.79
977.326
747.713
448.093
215.105
-3106.14
-3141.34
-3150.7
-3148.79
-3142.84
-3144.87
-3158.62
-3162.89
-3135.12
-3074.89
-2969.09
-2819.67
-2648.92
-2414.12
-2059.79
-1777.48
-1610.07
-1445.88
-1301.16
-1154.7
-1006.68
-857.852
-706.902
-554.723
-401.578
-248.111
-94.9917
57.085
207.388
355.193
499.777
640.435
776.483
907.271
1032.18
1150.65
1262.16
1366.24
1462.52
1550.66
1630.45
1701.72
1764.45
1818.68
1864.61
1902.52
1932.86
1956.21
1973.31
1985.06
1992.5
1996.81
1999.18
2000.78
2002.6
2005.44
2009.8
2015.96
2023.96
2033.7
2044.92
2057.24
2070.35
2084.02
2098.08
2112.4
2126.79
2141.06
2155.01
2168.43
2181.08
2192.76
2203.22
2212.27
2219.7
2225.32
2228.94
2230.37
2229.41
2225.93
2219.91
2211.36
2200.59
2188.33
2174.61
2159.17
2137.74
2103.37
2050.43
1980.99
1895.79
1793.37
1672.33
1532.42
1371.21
1189.05
975.584
746.599
446.819
215.232
-3106.47
-3141.66
-3150.83
-3148.89
-3142.81
-3144.89
-3158.97
-3163.52
-3135.93
-3076.29
-2970.43
-2820.7
-2651.87
-2424.89
-2074.63
-1783.99
-1610.44
-1445.61
-1301.31
-1154.91
-1006.93
-858.141
-707.19
-554.999
-401.828
-248.325
-95.1611
56.9679
207.33
355.2
499.855
640.587
776.713
907.579
1032.57
1151.12
1262.7
1366.86
1463.19
1551.4
1631.23
1702.54
1765.28
1819.52
1865.42
1903.3
1933.59
1956.86
1973.87
1985.5
1992.82
1996.99
1999.23
2000.71
2002.44
2005.21
2009.52
2015.65
2023.64
2033.38
2044.61
2056.94
2070.04
2083.68
2097.72
2112.01
2126.37
2140.62
2154.54
2167.93
2180.56
2192.21
2202.64
2211.64
2219.02
2224.57
2228.12
2229.45
2228.4
2224.86
2218.8
2210.24
2199.45
2186.93
2172.68
2156.37
2134.17
2099.34
2046.63
1977.2
1891.78
1789.31
1668.39
1528.66
1367.52
1185.64
972.274
744.368
444.391
215.456
-3106.95
-3142.13
-3151.01
-3149.04
-3142.79
-3144.94
-3159.47
-3164.42
-3137.15
-3078.32
-2972.35
-2822.17
-2655.62
-2437.08
-2092.21
-1792.28
-1611.34
-1445.31
-1301.6
-1155.28
-1007.35
-858.602
-707.643
-555.428
-402.215
-248.655
-95.4219
56.7883
207.242
355.212
499.974
640.82
777.065
908.053
1033.17
1151.83
1263.53
1367.8
1464.23
1552.52
1632.42
1703.78
1766.55
1820.79
1866.67
1904.49
1934.69
1957.86
1974.72
1986.18
1993.3
1997.26
1999.3
2000.6
2002.18
2004.84
2009.08
2015.17
2023.14
2032.87
2044.13
2056.47
2069.55
2083.16
2097.16
2111.4
2125.72
2139.93
2153.81
2167.16
2179.74
2191.33
2201.7
2210.63
2217.92
2223.35
2226.76
2227.93
2226.72
2223.02
2216.81
2208.13
2197.19
2184.35
2169.5
2152.24
2129.05
2093.53
2040.84
1971.45
1885.92
1783.46
1662.69
1523.19
1362.2
1180.79
967.662
741.211
441.106
215.928
-3107.57
-3142.71
-3151.24
-3149.24
-3142.77
-3145.05
-3160.12
-3165.57
-3138.8
-3080.92
-2974.8
-2824.05
-2660.02
-2449.57
-2111.34
-1802.9
-1612.99
-1445.11
-1302.05
-1155.86
-1007.95
-859.253
-708.277
-556.023
-402.75
-249.109
-95.7791
56.5432
207.122
355.229
500.139
641.14
777.547
908.7
1033.98
1152.81
1264.66
1369.08
1465.65
1554.05
1634.04
1705.46
1768.27
1822.51
1868.36
1906.11
1936.2
1959.2
1975.86
1987.08
1993.93
1997.61
1999.37
2000.42
2001.81
2004.32
2008.47
2014.51
2022.46
2032.18
2043.45
2055.82
2068.87
2082.44
2096.39
2110.58
2124.84
2138.98
2152.81
2166.09
2178.6
2190.1
2200.36
2209.17
2216.29
2221.55
2224.73
2225.67
2224.21
2220.28
2213.86
2205
2193.84
2180.61
2165.12
2146.83
2122.55
2086.26
2033.43
1963.99
1878.33
1775.86
1655.24
1516.05
1355.31
1174.54
961.832
737.168
437.14
216.537
-3108.41
-3143.41
-3151.51
-3149.49
-3142.78
-3145.23
-3160.91
-3166.98
-3140.9
-3084.09
-2977.75
-2826.3
-2665.02
-2461.88
-2131.49
-1815.84
-1615.58
-1445.18
-1302.68
-1156.68
-1008.76
-860.116
-709.106
-556.796
-403.44
-249.692
-96.2368
56.2302
206.97
355.253
500.351
641.552
778.165
909.529
1035.02
1154.06
1266.11
1370.71
1467.45
1556
1636.11
1707.62
1770.47
1824.71
1870.51
1908.17
1938.1
1960.9
1977.3
1988.21
1994.71
1998.02
1999.43
2000.17
2001.3
2003.63
2007.66
2013.64
2021.56
2031.29
2042.58
2054.96
2067.99
2081.5
2095.38
2109.49
2123.68
2137.75
2151.49
2164.68
2177.08
2188.45
2198.56
2207.17
2214.08
2219.07
2221.97
2222.61
2220.85
2216.63
2209.95
2200.84
2189.4
2175.73
2159.55
2140.24
2114.8
2077.62
2024.44
1954.84
1869.06
1766.62
1646.18
1507.36
1346.96
1167.01
954.897
732.296
432.681
217.06
-3109.41
-3144.21
-3151.82
-3149.78
-3142.82
-3145.5
-3161.84
-3168.63
-3143.44
-3087.81
-2981.18
-2828.94
-2670.54
-2473.76
-2151.98
-1830.49
-1619.28
-1445.65
-1303.52
-1157.8
-1009.82
-861.207
-710.147
-557.758
-404.295
-250.413
-96.7997
55.8467
206.785
355.285
500.615
642.06
778.926
910.549
1036.3
1155.59
1267.89
1372.72
1469.67
1558.39
1638.64
1710.25
1773.16
1827.4
1873.14
1910.67
1940.42
1962.97
1979.05
1989.57
1995.64
1998.5
1999.46
1999.81
2000.64
2002.75
2006.65
2012.55
2020.45
2030.18
2041.5
2053.89
2066.89
2080.33
2094.12
2108.14
2122.23
2136.2
2149.82
2162.88
2175.13
2186.32
2196.21
2204.57
2211.2
2215.88
2218.44
2218.74
2216.65
2212.13
2205.17
2195.77
2183.99
2169.82
2152.9
2132.52
2105.88
2067.74
2014.05
1944.2
1858.29
1755.87
1635.61
1497.18
1337.23
1158.21
946.884
726.556
427.826
217.157
-3110.53
-3145.1
-3152.16
-3150.11
-3142.9
-3145.88
-3162.92
-3170.51
-3146.42
-3092.09
-2985.13
-2832
-2676.5
-2485.1
-2172.24
-1846.32
-1624.25
-1446.65
-1304.59
-1159.23
-1011.14
-862.547
-711.414
-558.92
-405.324
-251.276
-97.4725
55.3899
206.567
355.326
500.932
642.668
779.836
911.767
1037.83
1157.42
1270.01
1375.12
1472.31
1561.24
1641.66
1713.39
1776.35
1830.59
1876.26
1913.65
1943.18
1965.41
1981.1
1991.17
1996.72
1999.02
1999.46
1999.35
1999.81
2001.66
2005.4
2011.23
2019.11
2028.86
2040.2
2052.6
2065.55
2078.9
2092.58
2106.49
2120.46
2134.29
2147.76
2160.65
2172.69
2183.65
2193.27
2201.34
2207.64
2211.97
2214.18
2214.12
2211.7
2206.86
2199.59
2189.87
2177.69
2162.94
2145.2
2123.72
2095.85
2056.67
2002.33
1932.16
1846.09
1743.7
1623.63
1485.64
1326.2
1148.23
937.852
719.934
422.643
216.532
-3111.78
-3146.07
-3152.52
-3150.48
-3143.01
-3146.41
-3164.1
-3172.57
-3149.79
-3096.9
-2989.62
-2835.5
-2682.79
-2495.91
-2191.94
-1863.06
-1630.56
-1448.32
-1305.91
-1161.02
-1012.76
-864.153
-712.925
-560.296
-406.537
-252.291
-98.2602
54.8569
206.314
355.377
501.306
643.382
780.902
913.192
1039.61
1159.56
1272.49
1377.91
1475.38
1564.57
1645.18
1717.04
1780.08
1834.31
1879.9
1917.11
1946.37
1968.24
1983.47
1992.99
1997.92
1999.59
1999.4
1998.74
1998.78
2000.34
2003.91
2009.66
2017.53
2027.3
2038.69
2051.07
2063.95
2077.19
2090.75
2104.52
2118.33
2131.99
2145.27
2157.94
2169.74
2180.42
2189.74
2197.48
2203.43
2207.41
2209.26
2208.85
2206.09
2200.92
2193.31
2183.2
2170.54
2155.14
2136.51
2113.89
2084.76
2044.47
1989.41
1918.85
1832.6
1730.23
1610.36
1472.85
1313.97
1137.15
927.867
712.433
417.157
215.011
-3113.15
-3147.1
-3152.9
-3150.88
-3143.17
-3147.08
-3165.36
-3174.75
-3153.46
-3102.19
-2994.7
-2839.48
-2689.35
-2506.24
-2210.88
-1880.54
-1638.22
-1450.76
-1307.52
-1163.19
-1014.7
-866.042
-714.693
-561.897
-407.942
-253.463
-99.168
54.2445
206.025
355.437
501.739
644.206
782.13
914.831
1041.66
1162.02
1275.34
1381.12
1478.92
1568.38
1649.21
1721.23
1784.35
1838.57
1884.06
1921.06
1950.01
1971.47
1986.17
1995.05
1999.26
2000.17
1999.26
1997.98
1997.53
1998.77
2002.16
2007.84
2015.71
2025.52
2036.95
2049.3
2062.1
2075.2
2088.6
2102.19
2115.82
2129.27
2142.33
2154.74
2166.26
2176.65
2185.65
2193.05
2198.66
2202.28
2203.78
2203.02
2199.91
2194.38
2186.36
2175.8
2162.56
2146.42
2126.83
2103.05
2072.66
2031.22
1975.36
1904.37
1817.93
1715.59
1595.93
1458.93
1300.68
1125.06
917.026
704.112
411.386
212.599
-3114.71
-3148.16
-3153.29
-3151.3
-3143.37
-3147.9
-3166.66
-3176.99
-3157.33
-3107.81
-3000.35
-2844
-2696.07
-2516.18
-2229.02
-1898.6
-1647.13
-1454.07
-1309.49
-1165.76
-1016.99
-868.235
-716.735
-563.735
-409.55
-254.8
-100.201
53.549
205.699
355.508
502.233
645.143
783.525
916.693
1043.99
1164.8
1278.56
1384.75
1482.92
1572.7
1653.79
1725.98
1789.18
1843.39
1888.76
1925.53
1954.12
1975.09
1989.18
1997.33
2000.72
2000.76
1999.02
1997.03
1996.04
1996.92
2000.13
2005.76
2013.65
2023.52
2035
2047.3
2059.97
2072.9
2086.11
2099.5
2112.91
2126.13
2138.93
2151.08
2162.31
2172.38
2181.07
2188.14
2193.4
2196.68
2197.82
2196.69
2193.2
2187.25
2178.77
2167.67
2153.78
2136.82
2116.23
2091.27
2059.6
2016.98
1960.3
1888.84
1802.18
1699.88
1580.45
1443.99
1286.43
1112.08
905.431
695.063
405.337
209.447
-3116.4
-3149.25
-3153.7
-3151.73
-3143.6
-3148.86
-3167.94
-3179.25
-3161.28
-3113.55
-3006.47
-2849.1
-2702.93
-2525.71
-2246.41
-1917.13
-1657.17
-1458.35
-1311.86
-1168.75
-1019.66
-870.747
-719.065
-565.824
-411.371
-256.311
-101.366
52.7669
205.333
355.59
502.79
646.197
785.093
918.784
1046.6
1167.93
1282.18
1388.83
1487.42
1577.55
1658.91
1731.3
1794.6
1848.8
1894.02
1930.53
1958.71
1979.13
1992.52
1999.84
2002.28
2001.34
1998.66
1995.86
1994.28
1994.8
1997.83
2003.44
2011.39
2021.35
2032.85
2045.08
2057.57
2070.3
2083.3
2096.47
2109.63
2122.6
2135.13
2146.99
2157.93
2167.7
2176.06
2182.81
2187.74
2190.66
2191.43
2189.9
2185.98
2179.55
2170.54
2158.82
2144.21
2126.38
2104.73
2078.58
2045.64
2001.84
1944.29
1872.34
1785.46
1683.2
1564.03
1428.13
1271.33
1098.31
893.176
685.386
399.019
205.769
-3118.2
-3150.34
-3154.09
-3152.2
-3143.93
-3150.09
-3169.22
-3181.49
-3165.22
-3119.14
-3012.88
-2854.79
-2709.91
-2534.86
-2263.1
-1936.02
-1668.21
-1463.69
-1314.72
-1172.17
-1022.74
-873.6
-721.7
-568.176
-413.414
-258.002
-102.667
51.8941
204.926
355.682
503.41
647.371
786.839
921.111
1049.51
1171.41
1286.21
1393.37
1492.41
1582.94
1664.61
1737.22
1800.61
1854.79
1899.86
1936.07
1963.79
1983.59
1996.2
2002.57
2003.95
2001.88
1998.13
1994.46
1992.24
1992.38
1995.28
2000.91
2008.97
2019.05
2030.52
2042.66
2054.93
2067.43
2080.19
2093.1
2106.01
2118.71
2130.97
2142.54
2153.18
2162.65
2170.71
2177.13
2181.71
2184.26
2184.62
2182.66
2178.25
2171.29
2161.68
2149.28
2133.87
2115.12
2092.39
2065.04
2030.83
1985.84
1927.42
1854.96
1767.86
1665.65
1546.75
1411.45
1255.46
1083.85
880.341
675.174
392.443
201.76
-3120.11
-3151.4
-3154.45
-3152.69
-3144.36
-3151.62
-3170.61
-3183.77
-3169.18
-3124.44
-3019.38
-2861.06
-2717.06
-2543.73
-2279.12
-1955.15
-1680.15
-1470.12
-1318.12
-1176.03
-1026.24
-876.811
-724.653
-570.803
-415.69
-259.882
-104.112
50.9262
204.474
355.783
504.097
648.669
788.768
923.682
1052.73
1175.25
1290.66
1398.38
1497.93
1588.89
1670.91
1743.74
1807.26
1861.41
1906.3
1942.17
1969.38
1988.48
2000.21
2005.52
2005.69
2002.36
1997.43
1992.79
1989.91
1989.71
1992.53
1998.26
2006.5
2016.71
2028.1
2040.07
2052.07
2064.31
2076.82
2089.46
2102.1
2114.51
2126.49
2137.77
2148.12
2157.29
2165.03
2171.12
2175.33
2177.49
2177.41
2174.96
2170.02
2162.47
2152.21
2139.07
2122.81
2103.09
2079.26
2050.72
2015.24
1969.06
1909.76
1836.79
1749.46
1647.32
1528.7
1394.05
1238.92
1068.75
866.996
664.505
385.626
197.555
-3122.11
-3152.38
-3154.77
-3153.11
-3144.73
-3153.18
-3172.17
-3186.23
-3173.25
-3129.55
-3026.01
-2867.91
-2724.43
-2552.49
-2294.52
-1974.41
-1692.91
-1477.69
-1322.16
-1180.35
-1030.21
-880.4
-727.939
-573.718
-418.208
-261.96
-105.706
49.8587
203.975
355.892
504.849
650.094
790.886
926.504
1056.25
1179.47
1295.53
1403.88
1503.98
1595.41
1677.81
1750.91
1814.54
1868.67
1913.36
1948.85
1975.48
1993.81
2004.56
2008.68
2007.51
2002.76
1996.52
1990.84
1987.29
1986.82
1989.67
1995.61
2004.1
2014.37
2025.68
2037.35
2049.03
2061
2073.22
2085.57
2097.92
2110.05
2121.73
2132.73
2142.78
2151.65
2159.06
2164.8
2168.62
2170.35
2169.8
2166.82
2161.3
2153.12
2142.14
2128.21
2111.06
2090.34
2065.4
2035.66
1998.92
1951.56
1891.38
1817.91
1730.36
1628.28
1509.97
1375.99
1221.77
1053.12
853.208
653.448
378.595
193.231
-3124.24
-3153.2
-3155.03
-3153.43
-3145.05
-3154.52
-3173.9
-3189
-3177.52
-3134.48
-3032.78
-2875.37
-2732.04
-2561.26
-2309.35
-1993.69
-1706.42
-1486.37
-1326.89
-1185.14
-1034.64
-884.387
-731.574
-576.934
-420.98
-264.244
-107.457
48.6866
203.426
356.009
505.668
651.647
793.195
929.583
1060.1
1184.07
1300.86
1409.88
1510.59
1602.54
1685.35
1758.72
1822.49
1876.58
1921.05
1956.12
1982.12
1999.59
2009.25
2012.06
2009.37
2003.05
1995.37
1988.6
1984.45
1983.82
1986.86
1993.14
2001.88
2012.1
2023.28
2034.53
2045.88
2057.53
2069.42
2081.46
2093.5
2105.33
2116.72
2127.42
2137.18
2145.72
2152.8
2158.17
2161.58
2162.85
2161.79
2158.26
2152.11
2143.24
2131.51
2116.73
2098.65
2076.91
2050.85
2019.93
1981.93
1933.39
1872.35
1798.38
1710.61
1608.62
1490.64
1357.36
1204.11
1037.02
839.045
642.07
371.388
188.834
-3126.44
-3153.8
-3155.24
-3153.65
-3145.67
-3155.81
-3175.77
-3192.04
-3182.02
-3138.96
-3039.41
-2883.37
-2739.96
-2570.13
-2323.67
-2012.89
-1720.67
-1496.13
-1332.39
-1190.43
-1039.58
-888.791
-735.573
-580.464
-424.017
-266.742
-109.371
47.4045
202.824
356.131
506.555
653.331
795.702
932.924
1064.28
1189.07
1306.64
1416.39
1517.77
1610.28
1693.53
1767.22
1831.12
1885.17
1929.4
1964
1989.31
2005.83
2014.28
2015.63
2011.27
2003.21
1993.98
1986.11
1981.47
1980.9
1984.32
1991
1999.84
2010.04
2020.87
2031.63
2042.61
2053.89
2065.43
2077.13
2088.84
2100.36
2111.45
2121.86
2131.31
2139.53
2146.26
2151.23
2154.22
2155.01
2153.41
2149.28
2142.48
2132.88
2120.34
2104.69
2085.64
2062.86
2035.68
2003.58
1964.31
1914.62
1852.74
1778.29
1690.31
1588.42
1470.79
1338.24
1186
1020.52
824.574
630.434
364.045
184.395
-3128.7
-3154.19
-3155.43
-3153.86
-3146.75
-3157.3
-3177.7
-3195.14
-3186.21
-3142.66
-3045.69
-2891.79
-2748.2
-2579.13
-2337.57
-2031.91
-1735.62
-1506.91
-1338.74
-1196.23
-1045.02
-893.631
-739.949
-584.321
-427.328
-269.464
-111.456
46.007
202.164
356.256
507.508
655.148
798.409
936.535
1068.79
1194.47
1312.9
1423.44
1525.53
1618.66
1702.39
1776.4
1840.46
1894.46
1938.43
1972.52
1997.06
2012.54
2019.67
2019.4
2013.19
2003.21
1992.33
1983.43
1978.52
1978.31
1982.29
1989.29
1998.03
2008.18
2018.41
2028.68
2039.22
2050.09
2061.24
2072.58
2083.96
2095.16
2105.94
2116.04
2125.18
2133.07
2139.43
2144.01
2146.55
2146.84
2144.68
2139.91
2132.41
2122.05
2108.67
2092.11
2072.06
2048.22
2019.94
1986.68
1946.13
1895.3
1832.61
1757.69
1669.52
1567.74
1450.48
1318.7
1167.52
1003.69
809.858
618.598
356.607
179.941
-3131.01
-3154.47
-3155.77
-3154.33
-3148.23
-3159
-3179.79
-3198.36
-3189.55
-3144.99
-3051.39
-2900.55
-2756.81
-2588.3
-2351.13
-2050.69
-1751.25
-1518.66
-1345.98
-1202.59
-1051
-898.927
-744.718
-588.517
-430.925
-272.419
-113.72
44.4879
201.442
356.382
508.527
657.098
801.319
940.421
1073.65
1200.29
1319.64
1431.04
1533.9
1627.69
1711.94
1786.31
1850.54
1904.48
1948.15
1981.69
2005.39
2019.74
2025.41
2023.37
2015.12
2003.04
1990.46
1980.69
1975.88
1976.36
1980.88
1987.85
1996.63
2006.35
2015.9
2025.64
2035.69
2046.1
2056.83
2067.8
2078.83
2089.71
2100.18
2109.97
2118.79
2126.34
2132.34
2136.51
2138.58
2138.35
2135.6
2130.18
2121.95
2110.79
2096.54
2079.03
2057.98
2033.07
2003.69
1969.27
1927.45
1875.49
1812.03
1736.65
1648.29
1546.65
1429.79
1298.81
1148.73
986.602
794.956
606.614
349.114
175.489
-3133.35
-3154.72
-3156.23
-3155.06
-3150.01
-3160.93
-3182.08
-3201.77
-3192.55
-3146.46
-3056.5
-2909.55
-2765.8
-2597.69
-2364.43
-2069.19
-1767.54
-1531.3
-1354.17
-1209.53
-1057.52
-904.696
-749.894
-593.066
-434.82
-275.617
-116.169
42.8409
200.654
356.505
509.611
659.184
804.436
944.587
1078.87
1206.54
1326.87
1439.2
1542.89
1637.39
1722.21
1796.96
1861.36
1915.25
1958.6
1991.53
2014.32
2027.43
2031.51
2027.53
2017.03
2002.7
1988.43
1978.12
1973.9
1975.3
1980.04
1986.67
1995.55
2004.46
2013.32
2022.48
2031.99
2041.9
2052.21
2062.79
2073.47
2084.02
2094.18
2103.66
2112.15
2119.36
2124.99
2128.73
2130.34
2129.57
2126.21
2120.11
2111.13
2099.13
2083.99
2065.51
2043.43
2017.45
1986.99
1951.42
1908.34
1855.27
1791.05
1715.23
1626.71
1525.22
1408.78
1278.63
1129.7
969.307
779.924
594.529
341.599
171.05
-3135.71
-3155.02
-3156.65
-3155.99
-3152.05
-3163.11
-3184.56
-3205.24
-3195.73
-3148.4
-3061.88
-2918.77
-2775.16
-2607.31
-2377.53
-2087.38
-1784.44
-1544.79
-1363.35
-1217.09
-1064.6
-910.957
-755.493
-597.98
-439.023
-279.067
-118.814
41.0592
199.793
356.623
510.758
661.404
807.762
949.037
1084.44
1213.22
1334.61
1447.93
1552.52
1647.78
1733.21
1808.38
1872.97
1926.79
1969.79
2002.06
2023.87
2035.63
2037.98
2031.87
2018.91
2002.2
1986.37
1976.02
1972.96
1975.12
1979.41
1986.08
1994.5
2002.48
2010.66
2019.16
2028.08
2037.49
2047.35
2057.53
2067.86
2078.08
2087.93
2097.09
2105.27
2112.14
2117.39
2120.71
2121.84
2120.52
2116.54
2109.74
2099.98
2087.13
2071.06
2051.6
2028.48
2001.42
1969.9
1933.18
1888.84
1834.7
1769.74
1693.49
1604.82
1503.5
1387.52
1258.21
1110.48
951.864
764.811
582.382
334.094
166.628
-3138.05
-3155.51
-3157.05
-3157.13
-3154.38
-3165.55
-3187.27
-3208.71
-3198.98
-3151.05
-3067.6
-2928.05
-2784.93
-2617.18
-2390.5
-2105.28
-1801.92
-1559.07
-1373.54
-1225.32
-1072.26
-917.726
-761.529
-603.271
-443.546
-282.78
-121.661
39.1358
198.856
356.73
511.967
663.76
811.3
953.776
1090.39
1220.34
1342.88
1457.26
1562.81
1658.89
1744.97
1820.58
1885.38
1939.13
1981.75
2013.32
2034.05
2044.35
2044.83
2036.39
2020.78
2001.57
1984.48
1974.83
1973.3
1975.48
1978.88
1985.98
1993.33
2000.42
2007.86
2015.66
2023.97
2032.86
2042.25
2052.04
2062
2071.9
2081.44
2090.3
2098.16
2104.69
2109.56
2112.46
2113.1
2111.22
2106.61
2099.09
2088.53
2074.81
2057.8
2037.34
2013.19
1985.06
1952.48
1914.62
1869.02
1813.83
1748.15
1671.49
1582.69
1481.56
1366.05
1237.63
1091.13
934.324
749.665
570.211
326.625
162.226
-3140.55
-3156.21
-3157.56
-3158.52
-3156.96
-3168.25
-3190.18
-3212.21
-3202.29
-3153.94
-3073.2
-2937.33
-2795.06
-2627.31
-2403.42
-2122.93
-1819.92
-1574.12
-1384.75
-1234.24
-1080.51
-925.02
-768.017
-608.954
-448.401
-286.765
-124.721
37.0629
197.835
356.824
513.233
666.249
815.05
958.809
1096.7
1227.92
1351.67
1467.19
1573.77
1670.74
1757.52
1833.6
1898.62
1952.29
1994.51
2025.31
2044.89
2053.62
2052.06
2041.1
2022.61
2000.91
1983.08
1975
1974.75
1975.85
1979.01
1985.91
1992
1998.26
2004.89
2011.96
2019.65
2027.99
2036.92
2046.3
2055.91
2065.48
2074.71
2083.27
2090.82
2097.01
2101.51
2104
2104.15
2101.72
2096.46
2088.22
2076.84
2062.23
2044.27
2022.81
1997.61
1968.43
1934.8
1895.79
1848.94
1792.72
1726.34
1649.29
1560.37
1459.45
1344.45
1216.93
1071.71
916.735
734.528
558.047
319.217
157.844
-3143.4
-3157.04
-3158.31
-3160.19
-3159.77
-3171.2
-3193.28
-3215.75
-3205.78
-3157.01
-3078.72
-2946.7
-2805.51
-2637.73
-2416.36
-2140.36
-1838.4
-1589.92
-1396.99
-1243.91
-1089.37
-932.855
-774.972
-615.041
-453.599
-291.033
-128.002
34.8328
196.723
356.898
514.555
668.872
819.013
964.137
1103.4
1235.97
1361.01
1477.75
1585.42
1683.34
1770.86
1847.47
1912.72
1966.31
2008.1
2038.08
2056.42
2063.45
2059.7
2046
2024.45
2000.33
1982.55
1976.75
1976.66
1975.88
1979.93
1985.64
1990.57
1995.97
2001.73
2008.05
2015.1
2022.88
2031.34
2040.31
2049.56
2058.81
2067.74
2076.01
2083.26
2089.13
2093.27
2095.34
2095.02
2092.02
2086.13
2077.14
2064.95
2049.44
2030.52
2008.06
1981.83
1951.61
1916.94
1876.74
1828.64
1771.42
1704.37
1626.94
1537.93
1437.23
1322.75
1196.17
1052.27
899.141
719.438
545.921
311.889
153.485
-3146.7
-3157.98
-3159.38
-3162.12
-3162.77
-3174.41
-3196.58
-3219.3
-3209.45
-3160.28
-3084.36
-2956.16
-2816.15
-2648.44
-2429.39
-2157.65
-1857.29
-1606.44
-1410.24
-1254.35
-1098.86
-941.246
-782.407
-621.544
-459.151
-295.594
-131.514
32.4369
195.515
356.948
515.929
671.625
823.191
969.765
1110.48
1244.48
1370.91
1488.94
1597.79
1696.71
1785.04
1862.2
1927.7
1981.22
2022.54
2051.64
2068.65
2073.86
2067.74
2051.11
2026.3
2000.05
1983.34
1979.97
1978.32
1976.2
1981.04
1985.14
1989.07
1993.52
1998.37
2003.94
2010.32
2017.53
2025.51
2034.07
2042.97
2051.91
2060.55
2068.54
2075.5
2081.06
2084.86
2086.52
2085.73
2082.18
2075.64
2065.92
2052.9
2036.5
2016.61
1993.15
1965.89
1934.66
1898.94
1857.52
1808.17
1750
1682.28
1604.49
1515.4
1414.95
1301.02
1175.39
1032.84
881.586
704.43
533.86
304.659
149.152
-3150.42
-3159.12
-3160.7
-3164.24
-3165.93
-3177.86
-3200.04
-3222.85
-3213.26
-3163.68
-3090.05
-2965.54
-2826.86
-2659.42
-2442.58
-2174.84
-1876.57
-1623.68
-1424.48
-1265.6
-1108.99
-950.207
-790.336
-628.477
-465.071
-300.461
-135.267
29.8666
194.202
356.967
517.349
674.508
827.583
975.694
1117.96
1253.48
1381.38
1500.79
1610.89
1710.89
1800.08
1877.82
1943.6
1997.03
2037.87
2066.03
2081.62
2084.87
2076.22
2056.42
2028.24
2000.33
1985.79
1984.02
1979.36
1977.58
1981.95
1984.49
1987.47
1990.88
1994.83
1999.6
2005.3
2011.93
2019.42
2027.57
2036.13
2044.77
2053.14
2060.86
2067.55
2072.82
2076.28
2077.56
2076.3
2072.21
2065.04
2054.59
2040.75
2023.44
2002.59
1978.14
1949.87
1917.65
1880.87
1838.18
1787.59
1728.5
1660.14
1582
1492.85
1392.66
1279.3
1154.64
1013.48
864.106
689.536
521.886
297.539
144.848
-3154.4
-3160.5
-3162.23
-3166.5
-3169.25
-3181.53
-3203.63
-3226.33
-3217.13
-3167.16
-3095.69
-2974.65
-2837.57
-2670.66
-2455.96
-2191.99
-1896.19
-1641.62
-1439.7
-1277.68
-1119.77
-959.751
-798.773
-635.851
-471.369
-305.643
-139.271
27.1127
192.777
356.949
518.812
677.516
832.187
981.927
1125.82
1262.96
1392.42
1513.3
1624.73
1725.88
1815.99
1894.37
1960.45
2013.8
2054.12
2081.29
2095.35
2096.52
2085.15
2061.96
2030.35
2001.5
1990
1987.94
1980.05
1979.8
1982.56
1983.77
1985.74
1988.06
1991.08
1995.04
2000.03
2006.07
2013.06
2020.81
2029.03
2037.39
2045.5
2052.97
2059.41
2064.41
2067.55
2068.46
2066.77
2062.15
2054.35
2043.18
2028.53
2010.33
1988.53
1963.09
1933.83
1900.64
1862.75
1818.75
1766.96
1706.98
1637.99
1559.52
1470.32
1370.41
1257.65
1133.98
994.224
846.738
674.785
510.024
290.543
140.58
-3158.49
-3162.09
-3163.97
-3168.84
-3172.71
-3185.39
-3207.34
-3229.71
-3221.01
-3170.69
-3101.23
-2983.48
-2848.23
-2682.14
-2469.57
-2209.16
-1916.11
-1660.26
-1455.87
-1290.6
-1131.23
-969.893
-807.732
-643.68
-478.057
-311.152
-143.537
24.1655
191.231
356.886
520.311
680.647
837.003
988.464
1134.09
1272.94
1404.05
1526.49
1639.34
1741.72
1832.81
1911.87
1978.28
2031.55
2071.32
2097.43
2109.88
2108.83
2094.56
2067.75
2032.73
2003.87
1995.68
1990.98
1981.08
1982.19
1982.92
1983.01
1983.84
1985.05
1987.12
1990.23
1994.5
1999.93
2006.43
2013.78
2021.69
2029.77
2037.64
2044.89
2051.1
2055.84
2058.7
2059.26
2057.15
2052.02
2043.61
2031.74
2016.28
1997.2
1974.46
1948.05
1917.83
1883.66
1844.62
1799.28
1746.34
1685.48
1615.89
1537.1
1447.87
1348.24
1236.1
1113.43
975.11
829.514
660.203
498.294
283.678
136.353
-3162.55
-3163.85
-3165.96
-3171.23
-3176.33
-3189.42
-3211.14
-3232.95
-3224.87
-3174.29
-3106.7
-2992.08
-2858.85
-2693.83
-2483.4
-2226.38
-1936.33
-1679.6
-1472.96
-1304.38
-1143.38
-980.643
-817.225
-651.977
-485.149
-316.999
-148.075
21.015
189.554
356.771
521.841
683.895
842.029
995.306
1142.76
1283.42
1416.29
1540.38
1654.73
1758.42
1850.56
1930.36
1997.13
2050.31
2089.51
2114.51
2125.24
2121.83
2104.47
2073.83
2035.54
2007.72
2002.26
1993.02
1983
1984.35
1983.15
1982.18
1981.78
1981.85
1982.93
1985.17
1988.69
1993.51
1999.52
2006.49
2014.08
2021.92
2029.57
2036.62
2042.61
2047.13
2049.72
2049.96
2047.45
2041.84
2032.85
2020.28
2004.04
1984.09
1960.44
1933.09
1901.93
1866.76
1826.5
1779.82
1725.76
1664.06
1593.88
1514.78
1425.53
1326.21
1214.7
1093.04
956.174
812.467
645.813
486.716
276.955
132.176
-3166.55
-3165.75
-3168.21
-3173.64
-3180.1
-3193.58
-3215.01
-3236
-3228.67
-3177.94
-3112.15
-3000.53
-2869.41
-2705.69
-2497.45
-2243.69
-1956.83
-1699.62
-1490.93
-1319.03
-1156.23
-992.014
-827.265
-660.752
-492.655
-323.198
-152.897
17.6507
187.739
356.596
523.395
687.257
847.262
1002.45
1151.84
1294.41
1429.13
1554.98
1670.93
1776
1869.27
1949.85
2017.01
2070.13
2108.74
2132.55
2141.47
2135.56
2114.9
2080.23
2038.97
2013.2
2009
1994.5
1985.87
1986.17
1983.34
1981.26
1979.53
1978.46
1978.51
1979.85
1982.6
1986.79
1992.31
1998.91
2006.21
2013.82
2021.28
2028.14
2033.96
2038.27
2040.61
2040.56
2037.68
2031.62
2022.06
2008.84
1991.83
1971.05
1946.5
1918.24
1886.17
1849.96
1808.4
1760.41
1705.29
1642.77
1572
1492.62
1403.36
1304.35
1193.48
1072.84
937.449
795.624
631.638
475.308
270.378
128.055
-3170.52
-3167.9
-3170.76
-3176
-3184.02
-3197.87
-3218.94
-3238.84
-3232.39
-3181.66
-3117.58
-3008.86
-2879.93
-2717.7
-2511.69
-2261.08
-1977.61
-1720.32
-1509.77
-1334.54
-1169.79
-1004.02
-837.863
-670.02
-500.589
-329.758
-158.014
14.0617
185.773
356.351
524.965
690.726
852.699
1009.9
1161.32
1305.91
1442.59
1570.29
1687.94
1794.5
1888.96
1970.39
2037.98
2091.04
2129.03
2151.6
2158.61
2150.05
2125.89
2087
2043.21
2020.26
2015.25
1996.11
1989.4
1987.74
1983.52
1980.21
1977.1
1974.86
1973.85
1974.24
1976.2
1979.77
1984.8
1991.03
1998.07
2005.46
2012.75
2019.46
2025.12
2029.25
2031.39
2031.07
2027.85
2021.36
2011.28
1997.42
1979.69
1958.09
1932.68
1903.54
1870.56
1833.25
1790.35
1741.11
1684.96
1621.63
1550.31
1470.65
1381.4
1282.71
1172.49
1052.87
918.965
779.013
617.698
464.086
263.953
124
-3174.46
-3170.54
-3173.62
-3178.3
-3188.13
-3202.26
-3222.89
-3241.43
-3236.01
-3185.44
-3123
-3017.11
-2890.4
-2729.81
-2526.08
-2278.59
-1998.67
-1741.67
-1529.42
-1350.91
-1184.08
-1016.66
-849.031
-679.791
-508.962
-336.694
-163.439
10.2365
183.648
356.028
526.544
694.296
858.335
1017.66
1171.22
1317.93
1456.68
1586.35
1705.8
1813.93
1909.67
1992.01
2060.07
2113.08
2150.43
2171.71
2176.7
2165.34
2137.48
2094.2
2048.45
2028.72
2020.64
1998.44
1993.21
1989.15
1983.7
1979.02
1974.5
1971.04
1968.91
1968.33
1969.48
1972.41
1976.96
1982.84
1989.63
1996.84
2003.99
2010.57
2016.09
2020.08
2022.03
2021.47
2017.95
2011.06
2000.49
1986.03
1967.6
1945.24
1919
1889.02
1855.11
1816.61
1772.39
1721.96
1664.82
1600.71
1528.85
1448.92
1359.68
1261.31
1151.76
1033.17
900.75
762.659
604.01
453.068
257.685
120.02
-3178.37
-3173.75
-3176.74
-3180.64
-3192.45
-3206.69
-3226.85
-3243.78
-3239.58
-3189.28
-3128.38
-3025.28
-2900.82
-2742
-2540.58
-2296.22
-2020
-1763.65
-1549.85
-1368.12
-1199.09
-1029.95
-860.781
-690.078
-517.787
-344.016
-169.183
6.16322
181.351
355.616
528.122
697.961
864.166
1025.71
1181.52
1330.47
1471.4
1603.15
1724.5
1834.31
1931.41
2014.74
2083.32
2136.29
2172.99
2192.92
2195.79
2181.48
2149.69
2101.91
2054.91
2038.27
2025.13
2001.81
1997.13
1990.53
1983.87
1977.67
1971.72
1966.99
1963.7
1962.1
1962.42
1964.7
1968.78
1974.33
1980.88
1987.94
1994.96
2001.44
2006.86
2010.73
2012.53
2011.77
2007.97
2000.73
1989.7
1974.68
1955.6
1932.5
1905.48
1874.69
1839.81
1800.07
1754.56
1703
1644.9
1580.04
1507.66
1427.47
1338.25
1240.21
1131.33
1013.76
882.831
746.585
590.592
442.267
251.577
116.124
-3182.16
-3177.28
-3180.04
-3183.21
-3196.99
-3211.13
-3230.83
-3245.99
-3243.07
-3193.19
-3133.72
-3033.36
-2911.17
-2754.22
-2555.18
-2313.98
-2041.61
-1786.23
-1571.03
-1386.15
-1214.84
-1043.9
-873.121
-700.893
-527.077
-351.739
-175.26
1.82959
178.871
355.104
529.69
701.712
870.187
1034.06
1192.23
1343.54
1486.77
1620.71
1744.09
1855.67
1954.23
2038.62
2107.76
2160.72
2196.75
2215.27
2215.93
2198.51
2162.56
2110.22
2062.72
2048.52
2028.98
2006.23
2001.04
1991.94
1984.01
1976.16
1968.74
1962.69
1958.18
1955.54
1955
1956.61
1960.22
1965.45
1971.81
1978.73
1985.66
1992.06
1997.41
2001.18
2002.86
2001.93
1997.91
1990.34
1978.89
1963.36
1943.67
1919.88
1892.14
1860.54
1824.63
1783.63
1736.9
1684.26
1625.24
1559.65
1486.77
1406.33
1317.14
1219.43
1111.22
994.669
865.234
730.813
577.459
431.699
245.632
112.321
-3185.82
-3180.92
-3183.46
-3186.13
-3201.62
-3215.55
-3234.85
-3248.23
-3246.29
-3197.17
-3139
-3041.37
-2921.45
-2766.47
-2569.87
-2331.9
-2063.51
-1809.38
-1592.91
-1405
-1231.32
-1058.52
-886.063
-712.246
-536.843
-359.874
-181.682
-2.77733
176.196
354.481
531.239
705.542
876.39
1042.71
1203.36
1357.14
1502.8
1639.04
1764.56
1878.02
1978.14
2063.67
2133.43
2186.42
2221.77
2238.83
2237.16
2216.48
2176.14
2119.23
2072.02
2059.12
2032.65
2011.52
2004.88
1993.46
1984.1
1974.5
1965.57
1958.13
1952.33
1948.6
1947.16
1948.11
1951.26
1956.19
1962.37
1969.19
1976.05
1982.41
1987.71
1991.42
1993.01
1991.95
1987.73
1979.89
1968.07
1952.06
1931.81
1907.38
1878.96
1846.55
1809.56
1767.33
1719.46
1665.78
1605.87
1539.58
1466.22
1385.53
1296.38
1199
1091.46
975.927
847.98
715.363
564.625
421.376
239.852
108.617
-3189.35
-3184.58
-3186.97
-3189.39
-3206.24
-3219.92
-3238.87
-3250.63
-3249.09
-3201.19
-3144.23
-3049.31
-2931.66
-2778.73
-2584.65
-2349.99
-2085.69
-1833.08
-1615.45
-1424.63
-1248.54
-1073.81
-899.616
-724.15
-547.099
-368.436
-188.463
-7.6709
173.312
353.735
532.757
709.441
882.77
1051.64
1214.89
1371.27
1519.48
1658.16
1785.93
1901.4
2003.18
2089.93
2160.39
2213.42
2248.09
2263.64
2259.55
2235.45
2190.47
2129.07
2082.85
2069.75
2036.62
2017.42
2008.63
1995.1
1984.11
1972.68
1962.18
1953.27
1946.14
1941.25
1938.9
1939.17
1941.86
1946.52
1952.54
1959.28
1966.12
1972.46
1977.74
1981.42
1982.96
1981.81
1977.43
1969.36
1957.21
1940.79