/*--------------------------------*- C++ -*----------------------------------*\
| =========                 |                                                 |
| \\      /  F ield         | OpenFOAM: The Open Source CFD Toolbox           |
|  \\    /   O peration     | Version:  4.1                                   |
|   \\  /    A nd           | Web:      www.OpenFOAM.org                      |
|    \\/     M anipulation  |                                                 |
\*---------------------------------------------------------------------------*/
FoamFile
{
    version     2.0;
    format      ascii;
    class       surfaceScalarField;
    location    "1600";
    object      phi;
}
// * * * * * * * * * * * * * * * * * * * * * * * * * * * * * * * * * * * * * //

dimensions      [0 3 -1 0 0 0 0];

internalField   nonuniform List<scalar> 
52920
(
2342.55
-242.055
2519.27
-176.707
2669.72
-150.438
2792.64
-122.892
2991.22
-198.563
3312.01
-320.764
3635.49
-323.467
3825.61
-190.101
3867.23
-41.6032
3725.93
141.318
3455.16
270.788
3110.97
344.214
2394.52
716.468
-182.912
2577.45
-4135.85
3952.95
-6072.44
1936.6
-6117.57
45.1457
-6294.67
177.114
-6631.44
336.788
-6916.91
285.486
-7202.33
285.434
-7480.46
278.143
-7749.77
269.32
-8012.34
262.584
-8269.15
256.815
-8521.37
252.233
-8770.31
248.955
-9017.19
246.884
-9263.29
246.109
-9509.94
246.664
-9758.57
248.633
-10010.7
252.11
-10267.8
257.194
-10531.8
263.985
-10804.4
272.562
-11087.3
282.978
-11382.6
295.242
-11691.9
309.31
-12016.9
325.067
-12359.3
342.32
-12720
360.788
-13100.1
380.085
-13499.8
399.717
-13918.9
419.058
-14356.2
437.336
-14809.8
453.608
-15276.5
466.742
-15751.9
475.396
-16230
478.041
-16703
473.028
-17161.7
458.755
-17595.7
433.961
-17993.8
398.111
-18345.5
351.709
-18641.9
296.366
-18876.4
234.54
-19045.5
169.072
-19148.1
102.65
-19185.5
37.344
-19159.6
-25.9237
-19071.9
-87.6573
-18924.3
-147.595
-18719.2
-205.116
-18458.9
-260.27
-18145.2
-313.716
-17779
-366.2
-17360.9
-418.075
-16891.3
-469.634
-16370.1
-521.189
-15797.1
-573.045
-15171.5
-625.562
-14492.3
-679.18
-13757.9
-734.444
-12965.9
-792.005
-12113.3
-852.609
-11196.2
-917.066
-10210
-986.183
-9149.37
-1060.63
-8008.72
-1140.65
-6782.96
-1225.76
-5467.76
-1315.2
-4060.52
-1407.24
-2565.43
-1495.09
-972.974
-1592.46
745.193
-1718.17
2413.45
-1668.26
3871.03
-1457.57
5321.89
-1450.86
6928.71
-1606.83
8679.68
-1750.97
10544.9
-1865.23
12506.9
-1962.01
14560
-2053.07
16711.8
-2151.77
18962.4
-2250.65
21342.7
-2380.32
23829.5
-2486.71
26514.3
-2684.83
29299.9
-2785.6
-3176.02
2144.69
-480.485
2311.06
-343.055
2443.76
-283.124
2542.07
-221.171
2713.04
-369.514
3003.94
-611.64
3292.94
-612.447
3441.93
-339.077
3437.49
-37.1396
3239.41
339.416
2908.59
601.634
2512.86
739.966
1859.29
1370.06
200.032
4236.71
-2913.84
7066.84
-5307.18
4329.94
-5866.76
604.744
-6137.74
448.112
-6491.82
690.875
-6802.85
596.532
-7100.27
582.868
-7386.58
564.474
-7661.53
544.274
-7928.1
529.173
-8187.89
516.619
-8442.49
506.84
-8693.47
499.948
-8942.26
495.681
-9190.3
494.165
-9439.07
495.442
-9690.09
499.659
-9944.96
506.988
-10205.4
517.622
-10473.1
531.754
-10750.1
549.546
-11038.2
571.108
-11339.5
596.468
-11655.7
625.546
-11988.7
658.129
-12340.3
693.846
-12711.6
732.145
-13103.8
772.271
-13517.3
813.238
-13952
853.8
-14407.1
892.413
-14880.7
927.184
-15369.7
955.833
-15870
975.658
-16375.5
983.56
-16878.7
976.18
-17370.1
950.224
-17839.2
903.055
-18274.6
833.48
-18665.3
742.413
-19002
633.034
-19277.7
510.286
-19488.5
379.917
-19633.3
247.406
-19713
117.028
-19730.1
-8.79922
-19687.3
-130.44
-19587.1
-247.857
-19431.3
-360.894
-19221.8
-469.765
-18959.9
-575.619
-18646.1
-680.029
-18280.3
-783.811
-17862.3
-887.623
-17391.3
-992.191
-16866.1
-1098.24
-16285.1
-1206.62
-15645.9
-1318.36
-14945.6
-1434.71
-14180.5
-1557.15
-13345.7
-1687.4
-12435.6
-1827.2
-11443.5
-1978.2
-10362.7
-2141.45
-9186.7
-2316.68
-7911.1
-2501.37
-6535.69
-2690.61
-5066.9
-2876.03
-3519.96
-3042.03
-1926.94
-3185.48
-329.487
-3315.62
1287.51
-3285.25
2929.25
-3099.31
4586.77
-3108.38
6290.08
-3310.13
8073.45
-3534.35
9938.98
-3730.75
11883.1
-3906.16
13907.9
-4077.84
16023.7
-4267.63
18234.2
-4461.09
20563.2
-4709.32
22993.4
-4916.91
25603.9
-5295.39
28304
-5485.61
-6232.89
1962.97
-713.768
2117.44
-497.51
2232.64
-398.307
2308.43
-296.938
2459.78
-520.843
2736.2
-888.041
3009.93
-886.165
3138.67
-467.799
3104.91
-3.35743
2855.49
588.856
2463.64
993.508
2016.65
1186.98
1369.96
2016.77
208.181
5398.5
-2297.93
9572.95
-4768.85
6800.88
-5609.97
1445.87
-5957.67
795.829
-6345.02
1078.23
-6680.98
932.514
-6990.75
892.648
-7286
859.734
-7566.98
825.265
-7838.02
800.223
-8101.32
779.932
-8358.87
764.402
-8612.56
753.643
-8864.03
747.155
-9114.9
745.052
-9366.81
747.354
-9621.39
754.248
-9880.36
765.971
-10145.5
782.798
-10418.8
805.009
-10702.1
832.845
-10997.4
866.474
-11306.9
905.947
-11632.5
951.158
-11976.2
1001.8
-12339.7
1057.34
-12724.5
1116.96
-13131.7
1179.55
-13562.1
1243.62
-14015.6
1307.31
-14491.5
1368.28
-14987.9
1423.66
-15502.1
1470
-16029.6
1503.17
-16564.5
1518.42
-17098.9
1510.58
-17623.2
1474.52
-18126.2
1406.06
-18595.9
1303.22
-19020.7
1167.25
-19390.7
1002.97
-19698.4
817.992
-19939.7
621.238
-20113.5
421.239
-20221.2
224.69
-20265.7
35.7266
-20250.4
-145.708
-20178.4
-319.951
-20051.2
-488.041
-19870.4
-650.581
-19636.9
-809.135
-19350.8
-966.125
-19011.6
-1122.98
-18618.4
-1280.84
-18169.6
-1441.01
-17663
-1604.85
-17095.7
-1773.93
-16463.9
-1950.09
-15763.1
-2135.49
-14987.8
-2332.53
-14131.5
-2543.7
-13187.4
-2771.21
-12149.2
-3016.43
-11011.5
-3279.11
-9772.1
-3556.12
-8432.97
-3840.5
-7002.16
-4121.42
-5494.74
-4383.46
-3932.08
-4604.69
-2343.96
-4773.6
-766.011
-4893.56
826.5
-4877.76
2478.06
-4750.88
4182.34
-4812.66
5924.95
-5052.74
7724.59
-5333.99
9589.3
-5595.46
11524.3
-5841.17
13534.7
-6088.27
15630.1
-6363.04
17815.4
-6646.31
20108.5
-7002.45
22499.2
-7307.64
25054.9
-7851.03
27688.4
-8119.17
-9192.28
1792.79
-938.072
1931.49
-636.2
2027.73
-494.522
2082.16
-351.348
2221.83
-660.487
2496.45
-1162.64
2766.86
-1156.55
2886.87
-587.796
2832.3
51.234
2542.64
878.543
2112.77
1423.4
1637.35
1662.42
995.706
2658.43
116.058
6278.16
-1872.57
11561.6
-4296.55
9224.86
-5376.93
2526.27
-5782.67
1201.58
-6201.58
1497.15
-6562.24
1293.18
-6883.7
1214.13
-7187.96
1164
-7475.18
1112.5
-7750.94
1076
-8018.12
1047.12
-8279.03
1025.33
-8535.88
1010.5
-8790.52
1001.81
-9044.77
999.303
-9300.37
1002.97
-9559.12
1013
-9822.83
1029.69
-10093.4
1053.38
-10372.8
1084.42
-10663.1
1123.13
-10966.3
1169.73
-11284.7
1224.29
-11620.2
1286.68
-11974.9
1356.52
-12350.7
1433.12
-12749.1
1515.4
-13171.4
1601.9
-13618.5
1690.66
-14090.3
1779.18
-14586.4
1864.35
-15105
1942.31
-15643.4
2008.38
-16197.2
2056.96
-16760.4
2081.59
-17324.9
2075.15
-17880.9
2030.49
-18416.6
1941.74
-18919.3
1805.92
-19376.6
1624.59
-19777.9
1404.25
-20115.3
1155.36
-20384.3
890.26
-20583.8
620.795
-20715.4
356.281
-20782.3
102.621
-20788.5
-139.52
-20737.8
-370.677
-20631.9
-593.928
-20471.7
-810.793
-20257.5
-1023.34
-19988.7
-1234.88
-19664
-1447.71
-19281.1
-1663.7
-18837.1
-1885
-18328.1
-2113.92
-17749
-2353
-17094
-2605.04
-16356.5
-2873.02
-15529.3
-3159.73
-14605.7
-3467.33
-13580.3
-3796.61
-12450.7
-4146.05
-11218.9
-4510.85
-9893.05
-4882.01
-8487.25
-5246.3
-7021.05
-5587.62
-5516.59
-5887.92
-3993.9
-6127.38
-2469.19
-6298.31
-953.828
-6408.93
586.726
-6418.32
2206.82
-6370.97
3901.56
-6507.4
5647.17
-6798.35
7446.48
-7133.3
9305.66
-7454.63
11232.7
-7768.25
13233.5
-8089.07
15316.7
-8446.21
17486.9
-8816.5
19758
-9273.54
22127.4
-9676.99
24646.8
-10370.5
27242.3
-10714.7
-12090.7
1627.82
-1147.5
1753.57
-761.934
1835.65
-576.575
1873.08
-388.761
2007.53
-794.916
2286.85
-1441.95
2558.11
-1427.79
2673.6
-703.269
2600.79
124.062
2276.84
1202.52
1823.37
1876.89
1334.05
2151.77
707.038
3285.46
-19.2119
7004.43
-1569.41
13111.8
-3872.6
11528.1
-5171
3824.67
-5624.65
1655.25
-6064.17
1936.67
-6449.02
1678.05
-6781.39
1546.5
-7094.3
1476.93
-7387.87
1406.08
-7668.46
1356.6
-7939.72
1318.38
-8204.22
1289.85
-8464.46
1270.75
-8722.5
1259.85
-8980.31
1257.12
-9239.8
1262.47
-9502.87
1276.08
-9771.44
1298.28
-10047.5
1329.45
-10333.1
1370.03
-10630.3
1420.38
-10941.4
1480.78
-11268.4
1551.32
-11613.6
1631.85
-11979
1721.92
-12366.5
1820.69
-12778
1926.85
-13214.7
2038.62
-13677.6
2153.57
-14167
2268.61
-14682.5
2379.83
-15222.6
2482.38
-15784.5
2570.34
-16364.1
2636.59
-16955.4
2672.83
-17550.1
2669.85
-18137.9
2618.31
-18706.5
2510.34
-19242.4
2341.81
-19732.2
2114.42
-20164.3
1836.42
-20530.3
1521.3
-20825.2
1185.16
-21047.9
843.471
-21200
508.431
-21285.1
187.711
-21307.7
-116.961
-21272.2
-406.144
-21180.5
-685.636
-21032.5
-958.732
-20827.6
-1228.29
-20563.9
-1498.62
-20238.4
-1773.19
-19847.1
-2054.95
-19385
-2347.15
-18845.7
-2653.2
-18222.1
-2976.55
-17506.7
-3320.52
-16691.9
-3687.79
-15771.8
-4079.77
-14743.5
-4495.68
-13608.4
-4931.66
-12374.5
-5380.04
-11056.1
-5829.2
-9673.99
-6264.13
-8252
-6668.29
-6813.05
-7026.57
-5374.16
-7326.81
-3941.63
-7559.92
-2511.25
-7728.68
-1071.3
-7848.88
419.245
-7908.87
2006.3
-7958.02
3678.46
-8179.56
5410.58
-8530.47
7197.89
-8920.61
9043.81
-9300.54
10957
-9681.4
12943.6
-10075.7
15012.7
-10515.3
17168.7
-10972.5
19423.3
-11528.1
21780.6
-12034.3
24275
-12865
26857.2
-13296.8
-14959.5
1471.01
-1369.06
1593.74
-884.645
1663.13
-645.941
1682.4
-408.008
1812.44
-924.927
2098.11
-1727.6
2371.33
-1700.99
2484.77
-816.695
2399.54
209.318
2049.09
1553
1573.7
2352.3
1075.58
2649.92
470.683
3890.37
-172.383
7647.5
-1362.59
14302
-3498.92
13664.4
-4985.5
5311.25
-5486.85
2156.63
-5934.22
2384.05
-6341.69
2085.53
-6684.32
1889.14
-7005.24
1797.86
-7305.13
1705.98
-7590.56
1642.04
-7865.94
1593.78
-8134.12
1558.04
-8397.81
1534.45
-8659.28
1521.33
-8920.66
1518.51
-9183.99
1525.81
-9451.29
1543.39
-9724.59
1571.58
-10006
1610.82
-10297.5
1661.58
-10601.4
1724.29
-10919.9
1799.27
-11255.2
1886.62
-11609.5
1986.2
-11985.1
2097.47
-12383.8
2219.49
-12807.7
2350.74
-13258.2
2489.11
-13736.4
2631.77
-14242.8
2775.04
-14777.2
2914.22
-15338.3
3043.5
-15923.6
3155.66
-16529
3242
-17148.5
3292.27
-17773.6
3295.01
-18393.7
3238.41
-18995.7
3112.35
-19565.1
2911.22
-20087.5
2636.74
-20550
2298.94
-20943.3
1914.64
-21262.2
1504.02
-21505.3
1086.56
-21674.4
677.566
-21773.2
286.559
-21806.6
-83.6252
-21779.3
-433.446
-21693.1
-771.834
-21546.6
-1105.16
-21337.4
-1437.51
-21061.7
-1774.35
-20714.3
-2120.61
-20288.7
-2480.54
-19777.4
-2858.46
-19172.1
-3258.45
-18464.8
-3683.86
-17648.6
-4136.72
-16719.6
-4616.86
-15678.4
-5120.98
-14532.1
-5641.97
-13295.1
-6168.64
-11988.6
-6686.49
-10638.5
-7179.33
-9270.89
-7631.75
-7907.3
-8031.88
-6559.97
-8373.9
-5229.09
-8657.69
-3902.23
-8886.77
-2558.76
-9072.15
-1175.94
-9231.7
282.441
-9367.25
1845.53
-9521.11
3494.34
-9828.37
5205.17
-10241.3
6971.62
-10687.1
8795.75
-11124.7
10686.6
-11572.3
12651.2
-12040.2
14699.1
-12563.2
16835
-13108.5
19069.9
-13763
21413.5
-14377.9
23884.2
-15335.7
26464
-15876.6
-17813.4
1339.62
-1584.88
1447.13
-992.141
1499.36
-698.154
1500.83
-409.452
1628.08
-1052.15
1918.77
-2018.29
2193.36
-1975.56
2307.66
-930.98
2217.92
299.077
1850.36
1920.58
1351.7
2850.98
844.41
3157.22
264.807
4469.99
-332.299
8244.62
-1236.78
15206.5
-3174.89
15602.5
-4809.75
6946.11
-5367.45
2714.34
-5812.43
2829.04
-6239.84
2512.95
-6592.4
2241.71
-6920.51
2125.98
-7226.62
2012.1
-7516.8
1932.23
-7796.3
1873.29
-8068.14
1829.88
-8335.26
1801.57
-8600.11
1786.19
-8864.97
1783.38
-9132.01
1792.85
-9403.35
1814.74
-9681.13
1849.37
-9967.5
1897.2
-10264.7
1958.75
-10574.9
2034.49
-10900.4
2124.78
-11243.5
2229.76
-11606.6
2349.26
-11991.8
2482.72
-12401.3
2629.05
-12837.2
2786.58
-13301
2952.93
-13794.1
3124.84
-14317.1
3298.08
-14870.1
3467.22
-15452
3625.42
-16060.5
3764.18
-16691.7
3873.16
-17339.4
3940.03
-17995.3
3950.87
-18648.1
3891.17
-19283.9
3748.16
-19887.1
3514.44
-20441.9
3191.52
-20934.2
2791.26
-21353.6
2334.05
-21694.1
1844.58
-21954.3
1346.69
-22135.8
859.088
-22242.4
393.194
-22278.8
-47.2657
-22249.7
-462.48
-22156.6
-865.025
-21995.8
-1265.92
-21762.4
-1670.95
-21449.9
-2086.78
-21050.7
-2519.84
-20555.9
-2975.31
-19956.8
-3457.62
-19245.4
-3969.8
-18416.8
-4512.5
-17470.4
-5083.1
-16412.3
-5674.93
-15256.3
-6276.97
-14023.8
-6874.48
-12741.7
-7450.71
-11438.8
-7989.43
-10140.3
-8477.8
-8863.34
-8908.73
-7613.24
-9281.98
-6383.29
-9603.84
-5156.69
-9884.29
-3910.09
-10133.4
-2619.19
-10363
-1263.78
-10587.1
180.059
-10811.1
1725.91
-11067
3351.5
-11454
5037
-11926.8
6777.23
-12427.3
8573.68
-12921.1
10435.6
-13434.2
12370.2
-13974.8
14387.9
-14580.9
16494.2
-15214.8
18699.6
-15968.4
21018.7
-16697
23457.6
-17774.6
26028.3
-18447.3
-20647.2
1209.33
-1791.41
1303.36
-1086.16
1342.32
-737.088
1328.32
-395.425
1446.44
-1170.24
1730.55
-2302.37
2004.04
-2249.03
2124.63
-1051.55
2040.56
383.173
1665.92
2295.25
1146.23
3370.7
631.119
3672.35
79.1747
5021.95
-489.527
8813.33
-1175.3
15892.3
-2896.46
17323.7
-4634.36
8684.02
-5262.54
3342.54
-5699.03
3265.53
-6142.78
2956.72
-6505.29
2604.23
-6839.76
2460.47
-7151.89
2324.23
-7446.73
2227.08
-7730.29
2156.86
-8005.76
2105.37
-8276.27
2072.09
-8544.43
2054.36
-8812.65
2051.61
-9083.22
2063.44
-9358.39
2089.92
-9640.39
2131.38
-9931.47
2188.28
-10233.9
2261.19
-10550
2350.61
-10882.2
2456.94
-11232.8
2580.34
-11604.1
2720.65
-11998.7
2877.25
-12418.6
3048.98
-12866
3234.02
-13342.8
3429.7
-13850.3
3632.42
-14389.7
3837.4
-14960.9
4038.49
-15563.3
4227.85
-16194.8
4395.68
-16851.6
4529.92
-17527.7
4616.1
-18214.4
4637.62
-18900.1
4576.92
-19570.2
4418.18
-20207.5
4151.75
-20794.6
3778.66
-21315.9
3312.57
-21759.6
2777.69
-22118.6
2203.62
-22390.9
1619
-22578
1046.16
-22683.3
498.472
-22710.9
-19.6387
-22665.4
-507.987
-22546.5
-983.915
-22348
-1464.43
-22061.7
-1957.24
-21678.7
-2469.76
-21189.6
-3009
-20585.4
-3579.47
-19859.9
-4183.13
-19011.2
-4818.53
-18043.9
-5479.74
-16971
-6156.07
-15813.4
-6832.51
-14599
-7491.39
-13358.4
-8115.02
-12120.3
-8688.81
-10905.8
-9203.94
-9724.8
-9658.82
-8574.72
-10058.8
-7442.21
-10414.5
-6306.98
-10739.1
-5146.35
-11044.9
-3938.69
-11341
-2666.56
-11635.2
-1318.39
-11935.3
118.098
-12247.6
1647.51
-12596.4
3248.92
-13055.4
4907.05
-13584.9
6618.42
-14138.7
8384.42
-14687.1
10214
-15263.8
12114.5
-15875.3
14096
-16562.5
16164.8
-17283.6
18330.7
-18134.3
20612.2
-18978.5
23007.1
-20169.5
25548.9
-20989
-23440.2
1083.44
-1988.16
1166.19
-1168.89
1194.33
-765.208
1161.31
-362.374
1248.7
-1257.62
1504.51
-2558.17
1777.4
-2521.9
1916.7
-1190.84
1853.97
445.923
1487
2662.25
955.704
3902.01
435.273
4192.8
-91.6271
5548.86
-637.4
9359.11
-1161.74
16416.6
-2660.16
18822.1
-4454.16
10478
-5167.72
4056.1
-5594.05
3691.88
-6049.78
3412.45
-6422.49
2976.95
-6762.61
2800.59
-7080.5
2642.13
-7379.93
2526.52
-7667.48
2444.42
-7946.56
2384.45
-8220.41
2345.95
-8491.8
2325.76
-8763.28
2323.09
-9037.24
2337.41
-9316.05
2368.73
-9602.03
2417.36
-9897.53
2483.79
-10204.9
2568.59
-10526.6
2672.32
-10865
2795.38
-11222.7
2937.99
-11602
3099.97
-12005.4
3280.68
-12435.4
3478.9
-12894
3692.65
-13383.3
3919.04
-13905
4154.12
-14460.2
4392.61
-15049.4
4627.64
-15671.9
4850.42
-16326.1
5049.84
-17008.3
5212.08
-17712.6
5320.41
-18430.3
5355.36
-19149.3
5295.96
-19854
5122.8
-20525.6
4823.4
-21144.8
4397.86
-21693.8
3861.55
-22158.8
3242.7
-22531.4
2576.19
-22808.2
1895.87
-22990.1
1228
-23079.6
588.039
-23080.4
-18.8324
-22996.4
-592.045
-22824.6
-1155.66
-22555.8
-1733.29
-22179.4
-2333.68
-21685.7
-2963.4
-21067.2
-3627.52
-20320.2
-4326.41
-19447.9
-5055.49
-18461.5
-5804.92
-17381.5
-6559.78
-16235.9
-7301.59
-15057.4
-8011.09
-13877.2
-8671.51
-12720.6
-9271.66
-11601.5
-9807.9
-10521.2
-10284.2
-9469.38
-10710.7
-8427.4
-11100.8
-7373.41
-11468.5
-6286.5
-11826
-5149.61
-12181.8
-3950.17
-12540.5
-2679.97
-12905.4
-1334.53
-13280.7
92.1464
-13674.2
1601.98
-14106.2
3177.45
-14630.8
4807.05
-15214.5
6488.82
-15820.4
8224.29
-16422.6
10021.8
-17061.2
11887.9
-17741.4
13831.7
-18506.3
15859.9
-19311.8
17981.2
-20255.5
20215.4
-21212.7
22556.6
-22510.6
25046.9
-23479.4
-26165.5
961.819
-2175.28
1035.23
-1242.28
1054.41
-784.363
990.25
-298.178
1010.54
-1277.88
1214.39
-2762
1493.16
-2800.66
1668.48
-1366.14
1647.49
466.937
1310.51
2999.26
784.581
4427.96
257.187
4720.21
-252.688
6058.75
-773.722
9880.16
-1183.38
16826.3
-2464.21
20102.9
-4268.51
12282.3
-5078.72
4866.32
-5497.42
4110.6
-5960.25
3875.29
-6343.44
3360.15
-6688.68
3145.84
-7012.05
2965.51
-7315.99
2830.48
-7607.49
2735.92
-7890.15
2667.13
-8167.33
2623.13
-8441.92
2600.37
-8716.58
2597.75
-8993.81
2614.66
-9276.09
2651.01
-9565.84
2707.12
-9865.51
2783.47
-10177.6
2880.66
-10504.5
2999.27
-10848.9
3139.75
-11213.2
3302.33
-11600.1
3486.84
-12012
3692.64
-12451.5
3918.42
-12921
4162.09
-13422.5
4420.55
-13957.9
4689.53
-14528.5
4963.27
-15135.1
5234.25
-15777.4
5492.72
-16453.8
5726.28
-17161.1
5919.37
-17893.6
6052.86
-18642.4
6104.21
-19395
6048.58
-20134.6
5862.34
-20840.6
5529.42
-21491.1
5048.36
-22065.4
4435.92
-22547.1
3724.4
-22925.3
2954.32
-23194.6
2165.18
-23354.2
1387.61
-23405.8
639.691
-23353
-71.699
-23199.2
-745.815
-22938.6
-1416.22
-22559.7
-2112.17
-22053
-2840.46
-21413
-3603.37
-20640.8
-4399.7
-19745.8
-5221.41
-18747.2
-6054.16
-17672.9
-6879.21
-16556.8
-7675.89
-15433.2
-8425.19
-14331
-9113.27
-13268.5
-9733.94
-12251
-10289.2
-11270.7
-10788.2
-10310.8
-11244.1
-9349.69
-11671.7
-8366.09
-12084.4
-7342.18
-12492.4
-6265.41
-12902.7
-5128.28
-13318.9
-3926.58
-13742.2
-2657.75
-14174.2
-1319.96
-14618.5
91.3136
-15085.5
1578.34
-15593.2
3126.46
-16179
4726.78
-16814.8
6378.7
-17472.4
8084.32
-18128.2
9851.03
-18827.9
11684.5
-19574.9
13592.4
-20414.2
15581.2
-21300.6
17658
-22332.2
19841.5
-23396.3
22125.4
-24794.5
24548.7
-25902.7
-28801.4
845.821
-2376.95
909.761
-1306.2
919.576
-794.152
804.041
-182.609
723.541
-1197.36
864.476
-2902.92
1151.98
-3088.15
1367.38
-1581.53
1407.03
427.313
1128.15
3278.16
625.084
4931.04
87.6677
5257.64
-408.518
6554.95
-894.704
10366.4
-1229.31
17160.9
-2307.76
21181.4
-4080.39
14055
-4991.71
5777.64
-5408.82
4527.71
-5873.81
4340.29
-6267.57
3753.93
-6617.63
3495.91
-6946.15
3294.04
-7254.56
3138.89
-7549.96
3031.33
-7836.22
2953.39
-8116.73
2903.65
-8394.53
2878.17
-8672.33
2875.56
-8952.76
2895.1
-9238.38
2936.64
-9531.73
3000.47
-9835.34
3087.08
-10151.8
3197.11
-10483.7
3331.15
-10833.6
3489.7
-11204.3
3672.99
-11598.3
3880.88
-12018.3
4112.7
-12467
4367.1
-12946.8
4641.88
-13460
4933.75
-14008.6
5238.15
-14594.2
5548.89
-15217.8
5857.81
-15879.3
6154.27
-16577.6
6424.6
-17309.7
6651.47
-18070.2
6813.3
-18850.2
6884.2
-19636.6
6834.99
-20411.2
6637
-21151.3
6269.52
-21831.6
5728.6
-22427.4
5031.75
-22918.2
4215.16
-23289.1
3325.21
-23531.6
2407.67
-23642.6
1498.68
-23623.6
620.706
-23480.6
-214.783
-23218.2
-1008.2
-22828.4
-1805.95
-22301.8
-2638.8
-21636.3
-3506
-20838.8
-4400.81
-19926.7
-5311.87
-18927
-6221.07
-17874.6
-7106.6
-16806.4
-7947.35
-15755.5
-8726.77
-14744.9
-9435.84
-13783.8
-10074.3
-12867.9
-10649.9
-11981.9
-11175.3
-11104.4
-11665.6
-10213.4
-12135.1
-9289.84
-12595.3
-8319.92
-13054.3
-7295.55
-13516.8
-6213.18
-13985.1
-5071.88
-14460.2
-3871.24
-14942.8
-2609.97
-15435.5
-1285.8
-15942.7
106.28
-16477.6
1568.99
-17055.9
3089.1
-17699.1
4659.56
-18385.3
6281.26
-19094.1
7957.21
-19804.2
9693.99
-20564.7
11496.4
-21377.3
13370.5
-22288.3
15322.3
-23252.5
17357.4
-24367.3
19491.4
-25530.3
21719.4
-27022.5
24070.2
-28253.6
-31336.7
737.504
-2571.56
785.598
-1354.28
783.762
-792.284
605.05
-3.84883
428.94
-1021.21
517.169
-2991.13
796.052
-3367.01
1028.03
-1813.49
1127.64
327.736
924.729
3481.1
461.73
5394.06
-81.7919
5801.18
-564.458
7037.63
-1012.14
10814
-1295.85
17444.6
-2189.89
22075.4
-3895.01
15760.1
-4903.42
6786.06
-5327.57
4951.87
-5790.28
4803.01
-6194.35
4158.01
-6549.12
3850.69
-6882.47
3627.4
-7195.29
3451.72
-7494.58
3330.63
-7784.46
3243.28
-8068.35
3187.55
-8349.37
3159.2
-8630.33
3156.52
-8913.93
3178.71
-9202.82
3225.53
-9499.62
3297.28
-9806.98
3394.45
-10127.6
3517.7
-10464.1
3667.67
-10819.3
3844.88
-11195.9
4049.58
-11596.6
4281.66
-12024.3
4540.42
-12481.7
4824.48
-12971.4
5131.54
-13495.8
5458.15
-14057.1
5799.48
-14657.1
6148.96
-15297.1
6497.81
-15977.4
6834.57
-16697.2
7144.35
-17453.7
7408.03
-18242
7601.52
-19053.1
7695.31
-19873.4
7655.3
-20683.1
7446.74
-21456.4
7042.87
-22163.6
6435.77
-22774.4
5642.55
-23261.9
4702.65
-23605.2
3668.53
-23791.2
2593.64
-23815.2
1522.7
-23681.5
487.029
-23405.8
-490.517
-22996.1
-1417.84
-22445.1
-2357.02
-21753
-3330.92
-20934
-4324.99
-20013.8
-5320.97
-19027.3
-6298.34
-18014
-7234.41
-17011
-8109.53
-16046.8
-8911.61
-15135.7
-9637.9
-14277.1
-10294.4
-13457.8
-10893.6
-12656.8
-11450.8
-11850.9
-11981.1
-11019.5
-12497
-10147.1
-13007.5
-9224.32
-13518.1
-8247.01
-14031.6
-7214.57
-14549.2
-6128.07
-15071.6
-4988.47
-15599.8
-3795.4
-16135.9
-2546.66
-16684.2
-1238.94
-17250.4
132.946
-17849.5
1571.11
-18494.1
3062.99
-19190.9
4603.17
-19925.5
6194.13
-20685
7840
-21450
9546.72
-22271.4
11318.4
-23149
13159.6
-24129.5
15075.9
-25168.8
17071.5
-26362.8
19158
-27616.8
21332.9
-29197.3
23613.4
-30534.1
-33770.6
631.497
-2758.86
659.984
-1382.75
640.252
-772.525
424.827
211.628
217.049
-813.406
269.951
-3044.02
508.277
-3605.33
726.631
-2031.83
852.189
202.2
699.91
3633.4
287.012
5806.97
-251.097
6339.3
-715.579
7502.12
-1125.71
11224.2
-1377.09
17696
-2109.04
22807.4
-3718.13
17369.2
-4811.37
7879.31
-5252.66
5393.16
-5709.67
5260.03
-6123.31
4571.66
-6482.84
4210.23
-6820.69
3965.26
-7137.86
3768.91
-7441.04
3633.81
-7734.58
3536.83
-8021.91
3474.89
-8306.23
3443.52
-8590.39
3440.69
-8877.17
3465.49
-9169.29
3517.65
-9469.46
3597.45
-9780.41
3705.42
-10104.9
3842.23
-10445.8
4008.56
-10805.9
4204.97
-11188
4431.74
-11595.1
4688.76
-12030.1
4975.35
-12495.6
5290.07
-12994.7
5630.55
-13529.7
5993.21
-14103.2
6372.97
-14717.1
6762.9
-15373
7153.69
-16071.5
7533.08
-16812.2
7885.01
-17592.8
8188.63
-18408.5
8417.24
-19250.6
8537.43
-20104.7
8509.45
-20949.1
8291.13
-21754
7847.71
-22483.2
7165.01
-23098.3
6257.69
-23563
5167.27
-23847.4
3952.96
-23933.4
2679.63
-23818.9
1408.21
-23521.7
189.881
-23077.1
-935.145
-22497.3
-1997.61
-21781.1
-3073.29
-20947.4
-4164.61
-20030.8
-5241.54
-19072.7
-6279.07
-18114.6
-7256.51
-17190.6
-8158.41
-16321.5
-8978.6
-15511.9
-9721.21
-14751.5
-10398.3
-14020.1
-11025.9
-13293.3
-11620.4
-12548.4
-12195.7
-11767.7
-12761.9
-10939.8
-13324.9
-10059.5
-13887.8
-9125.82
-14451.8
-8140.21
-15017.2
-7104.74
-15584.7
-6020.88
-16155.5
-4888.74
-16732
-3706.8
-17317.8
-2472.05
-17919
-1180.91
-18541.6
170.988
-19201.4
1584.47
-19907.6
3047.78
-20654.3
4557.38
-21435.1
6117.22
-22244.9
7732.53
-23065.4
9408.7
-23947.6
11149.2
-24889.5
12957.4
-25937.7
14838.2
-27049.6
16794.7
-28319.3
18835
-29657.1
20957.6
-31320
23171.6
-32748.1
-36108.1
527.948
-2938.59
523.448
-1378.23
471.885
-720.924
292.08
391.503
143.981
-665.267
157.668
-3057.69
327.534
-3775.17
509.478
-2213.75
625.005
86.7022
483.364
3775.07
118.016
6172.33
-403.623
6860.96
-852.963
7951.47
-1235.72
11606.9
-1468.62
17928.9
-2062.76
23401.5
-3554.73
18861.2
-4714.09
9038.68
-5182.69
5861.76
-5632.05
5709.4
-6054.07
4993.68
-6418.47
4574.64
-6760.52
4307.32
-7081.98
4090.38
-7389.03
3940.87
-7686.29
3834.09
-7977.15
3765.75
-8264.85
3731.23
-8552.3
3728.15
-8842.31
3755.51
-9137.67
3813.02
-9441.16
3900.95
-9755.6
4019.87
-10083.9
4170.5
-10428.9
4353.56
-10793.5
4569.65
-11180.9
4819.08
-11593.9
5101.76
-12035.5
5417.01
-12508.8
5763.37
-13016.7
6138.39
-13561.8
6538.38
-14146.9
6958.04
-14774.1
7390.12
-15445.2
7824.84
-16161.4
8249.2
-16922.4
8646.03
-17726.5
8992.78
-18569.4
9260.08
-19442.2
9410.29
-20329.9
9397.14
-21208
9169.23
-22041.3
8680.95
-22784.6
7908.37
-23387.3
6860.35
-23798.9
5578.89
-23978.5
4132.53
-23906.1
2607.28
-23595.2
1097.29
-23098.7
-306.598
-22475.7
-1558.2
-21738.8
-2734.46
-20900.4
-3911.74
-19999.9
-5065.04
-19084.3
-6157.14
-18194.4
-7169.05
-17358.2
-8092.69
-16587.2
-8929.41
-15875.8
-9690
-15205.5
-10391.5
-14551.3
-11052.5
-13887.9
-11689.2
-13194.8
-12313.5
-12458
-12932.6
-11670.3
-13549.6
-10829.7
-14165.5
-9937.6
-14779.9
-8996.66
-15392.7
-8009.34
-16004.6
-6977.09
-16616.9
-5900.13
-17232.4
-4777.44
-17854.7
-3606.94
-18488.3
-2385.73
-19140.2
-1110.73
-19816.6
221.061
-20533.2
1609.1
-21295.6
3043.22
-22088.4
4521.99
-22913.9
6050.57
-23773.4
7635.12
-24649.9
9280.46
-25592.9
10989.5
-26598.5
12764.3
-27712.6
14609
-28894.3
16525.7
-30236
18519.5
-31650.9
20589.2
-33389.7
22738.7
-34897.6
-38355.2
424.582
-3108.67
360.776
-1314.4
263.655
-623.771
184.385
470.846
143.836
-624.687
100.192
-3014.03
196.258
-3871.23
329.313
-2346.79
422.758
-6.7219
292.214
3905.64
-22.2115
6486.77
-525.804
7364.56
-976.659
8402.33
-1344.56
11974.9
-1567.11
18151.4
-2047.7
23882.1
-3408.29
20221.7
-4611.36
10241.8
-5116.1
6366.51
-5557.52
6150.83
-5986.37
5422.53
-6355.77
4944.05
-6701.73
4653.29
-7027.39
4416.04
-7338.31
4251.8
-7639.32
4135.11
-7933.8
4060.24
-8225
4022.44
-8515.84
4018.99
-8809.17
4048.85
-9107.81
4111.67
-9414.62
4207.76
-9732.48
4337.73
-10064.4
4502.37
-10413.2
4702.46
-10782.2
4938.63
-11174.4
5211.25
-11592.9
5520.25
-12040.8
5864.94
-12521.3
6243.87
-13037.4
6654.51
-13592.1
7093.06
-14188.1
7554.07
-14828
8030
-15513.8
8510.63
-16246.9
8982.29
-17027.6
9426.79
-17854.7
9819.92
-18724.2
10129.6
-19627.5
10313.5
-20548.1
10317.8
-21458.1
10079.3
-22314.6
9537.46
-23059.5
8653.22
-23623.8
7424.63
-23937.7
5892.82
-23949.3
4144.13
-23650.5
2308.53
-23098.7
545.453
-22406.9
-998.433
-21643.4
-2321.64
-20811.9
-3566
-19940.7
-4782.89
-19079.1
-5926.7
-18265.9
-6970.34
-17521.2
-7913.75
-16846
-8767.86
-16225.5
-9549.93
-15634.9
-10280.6
-15046.9
-10979.5
-14437.4
-11662
-13788.9
-12337.7
-13091.4
-13011
-12341.3
-13682.7
-11539
-14351.8
-10687.5
-15017.1
-9789.57
-15677.8
-8847.85
-16334.5
-7863.59
-16988.8
-6837.04
-17643.5
-5767.53
-18302
-4653.77
-18968.4
-3494.03
-19648
-2286.07
-20348.1
-1027.51
-21075.1
283.244
-21843.9
1644.54
-22656.9
3048.59
-23492.4
4496.26
-24361.5
5993.62
-25270.8
7547.49
-26203.8
9162.05
-27207.5
10839.5
-28276
12580.9
-29453.9
14389.2
-30702.6
16265.2
-32111.9
18212.2
-33597.9
20227.5
-35405
22313.1
-36983.1
-40516.8
317.127
-3282.27
156.74
-1153.99
5.18679
-472.171
10.7894
465.346
58.9871
-672.846
-8.90538
-2946.12
47.2632
-3927.38
147.139
-2446.65
214.183
-73.7355
110.711
4009.14
-141.461
6738.96
-620.11
7843.22
-1082.75
8864.98
-1449.69
12341.8
-1670.5
18372.3
-2059.84
24271.5
-3280.79
21442.7
-4504.18
11465.2
-5051.39
6913.73
-5486.12
6585.57
-5920.03
5856.45
-6294.49
5318.52
-6644.11
5002.93
-6973.84
4745.78
-7288.62
4566.59
-7593.42
4439.92
-7891.61
4358.43
-8186.42
4317.26
-8480.78
4313.36
-8777.55
4345.62
-9079.56
4413.69
-9389.71
4517.92
-9710.97
4658.99
-10046.3
4837.76
-10399
5055.09
-10772
5311.67
-11168.7
5607.93
-11592.2
5943.83
-12046
6318.69
-12533.2
6731.05
-13057
7178.34
-13620.6
7656.67
-14227
8160.45
-14878.8
8681.87
-15578.6
9210.35
-16327.9
9731.65
-17127.7
10226.6
-17977.2
10669.4
-18872.7
11025.1
-19805.7
11246.5
-20758.3
11270.3
-21697.4
11018.4
-22569
10409.1
-23296
9380.18
-23783.2
7911.86
-23936.9
6046.49
-23703.6
3910.88
-23120.9
1725.75
-22336
-239.399
-21515.2
-1819.22
-20695.9
-3140.94
-19868.4
-4393.48
-19069.7
-5581.66
-18336.8
-6659.6
-17682.1
-7624.98
-17096.5
-8499.37
-16557.1
-9307.28
-16035.2
-10071.8
-15503.2
-10812.5
-14939.6
-11543.1
-14330.6
-12271.1
-13669.7
-12998.6
-12956.1
-13724.6
-12191.7
-14447.1
-11379.9
-15163.7
-10523.6
-15873.3
-9625.09
-16576.3
-8685.47
-17274.1
-7705.09
-17969.2
-6683.69
-18664.9
-5620.68
-19365
-4515.2
-20073.9
-3366.18
-20797.1
-2172.16
-21542.2
-931.198
-22316.1
357.054
-23132.2
1690.1
-23990
3063.11
-24865.4
4479.4
-25777.8
5945.62
-26737
7468.95
-27727.1
9052.87
-28791.4
10698.9
-29922
12406.9
-31161.9
14178.9
-32474.6
16013.9
-33947
17914.1
-35498.1
19874.6
-37365.6
21896.2
-39004.7
-42596.6
198.185
-3423.27
-78.129
-877.658
-296.76
-253.504
-298.711
467.362
-189.148
-782.382
-186.671
-2948.59
-130.345
-3983.69
-48.8414
-2528.14
-13.9794
-108.577
-74.6545
4069.84
-255.849
6920.17
-704.042
8291.42
-1176.72
9337.67
-1551
12716.1
-1778.13
18599.4
-2094.84
24588.2
-3173.1
22521
-4394.63
12686.7
-4987.28
7506.39
-5417.79
7016.08
-5854.97
6293.63
-6234.44
5697.99
-6587.49
5355.98
-6921.15
5079.44
-7239.74
4885.18
-7548.36
4748.55
-7850.34
4660.41
-8148.88
4615.81
-8446.89
4611.38
-8747.22
4645.96
-9052.71
4719.19
-9366.28
4831.5
-9690.94
4983.65
-10029.8
5176.6
-10386
5411.3
-10762.9
5688.55
-11163.7
6008.82
-11592
6372.12
-12051.1
6777.81
-12544.5
7224.41
-13075.5
7709.33
-13647.4
8228.6
-14263.5
8776.5
-14926.6
9345.03
-15639.6
9923.3
-16404.4
10496.5
-17222.6
11044.7
-18093.6
11540.5
-19014.6
11946.1
-19976.5
12208.4
-20959.3
12253.1
-21923
11982
-22797.4
11283.5
-23477.4
10060.2
-23832.3
8266.74
-23745.1
5959.36
-23192.2
3358.01
-22317.8
851.32
-21393.4
-1163.84
-20563.7
-2648.94
-19791.5
-3913.12
-19064.5
-5120.44
-18411.5
-6234.73
-17841
-7230.06
-17335.8
-8130.14
-16866.7
-8968.48
-16402.9
-9771.13
-15918.2
-10556.5
-15394.4
-11336.3
-14821.3
-12116.2
-14195.6
-12896.8
-13518
-13676.2
-12791.3
-14451.3
-12018.6
-15219.7
-11202.6
-15979.7
-10345
-16731
-9446.88
-17474.4
-8508.84
-18212.1
-7531.14
-18946.9
-6513.84
-19682.2
-5456.86
-20421.9
-4359.92
-21170.9
-3222.54
-21934.4
-2043.83
-22720.9
-822.208
-23537.7
441.661
-24396.1
1745.08
-25293.4
3086.35
-26206.7
4470.99
-27162.4
5906.09
-28172.1
7398.92
-29219.9
8952.24
-30344.7
10566.9
-31536.7
12241.5
-32836.5
13977.3
-34210.4
15771.5
-35741.2
17625.2
-37351.7
19531.5
-39271.9
21490.2
-40963.4
-44598.1
59.8781
-3509.71
-289.458
-528.292
-559.955
17.0366
-541.616
449.085
-396.393
-927.575
-347.697
-2997.26
-301.731
-4029.64
-247.62
-2582.23
-264.135
-92.0325
-268.813
4074.56
-353.544
7004.91
-787.454
8725.35
-1268.41
9818.63
-1650.99
13098.7
-1889.99
18838.4
-2148.31
24846.5
-3085.36
23458
-4285.38
13886.7
-4922.88
8143.9
-5352.38
7445.59
-5791.17
6732.43
-6175.47
6082.31
-6531.74
5712.26
-6869.15
5416.86
-7191.5
5207.54
-7503.94
5061
-7809.76
4966.24
-8112.13
4918.19
-8413.93
4913.18
-8717.95
4949.99
-9027.05