/*--------------------------------*- C++ -*----------------------------------*\
| =========                 |                                                 |
| \\      /  F ield         | OpenFOAM: The Open Source CFD Toolbox           |
|  \\    /   O peration     | Version:  4.1                                   |
|   \\  /    A nd           | Web:      www.OpenFOAM.org                      |
|    \\/     M anipulation  |                                                 |
\*---------------------------------------------------------------------------*/
FoamFile
{
    version     2.0;
    format      ascii;
    class       volVectorField;
    location    "1600";
    object      U;
}
// * * * * * * * * * * * * * * * * * * * * * * * * * * * * * * * * * * * * * //

dimensions      [0 1 -1 0 0 0 0];

internalField   nonuniform List<vector> 
26785
(
(-5.4958e-14 -0.0660612 18.0333)
(-5.54016e-14 -0.0404205 19.1469)
(-5.02542e-14 -0.0299779 19.7699)
(-3.42842e-14 -0.0243521 20.0521)
(-6.3446e-14 -0.0519126 20.5039)
(-4.08434e-14 -0.0929379 21.7965)
(-5.78796e-14 -0.0885615 23.5677)
(-4.5765e-14 -0.0400377 24.7258)
(-5.20186e-14 0.00275817 24.8819)
(8.80091e-15 0.055725 24.2198)
(-4.97479e-14 0.103242 22.7644)
(-2.83814e-14 0.124334 20.7138)
(-2.7322e-14 0.190786 17.9586)
(-2.57826e-14 0.793266 13.7555)
(-7.2749e-14 1.29036 -3.79311)
(-2.40189e-13 0.640641 -25.7536)
(-2.29514e-13 0.0386954 -25.7528)
(-2.11065e-13 0.0474746 -26.5313)
(-2.21744e-13 0.0828196 -27.8216)
(-2.02755e-13 0.0586361 -28.6528)
(-1.9244e-13 0.0551394 -29.4498)
(-1.86344e-13 0.0500196 -30.1016)
(-1.68762e-13 0.0454995 -30.695)
(-1.56804e-13 0.0422497 -31.2164)
(-1.44423e-13 0.0397749 -31.694)
(-1.31555e-13 0.0379955 -32.1355)
(-1.2747e-13 0.0368624 -32.5511)
(-1.23622e-13 0.0362742 -32.9491)
(-1.14155e-13 0.0362068 -33.336)
(-9.43175e-14 0.0366282 -33.718)
(-7.20213e-14 0.0375305 -34.1006)
(-5.60886e-14 0.0389138 -34.4888)
(-7.29336e-14 0.0407836 -34.8875)
(-7.39662e-14 0.0431474 -35.3014)
(-8.92657e-14 0.0460086 -35.735)
(-7.10823e-14 0.0493631 -36.1926)
(-7.54877e-14 0.0531941 -36.6782)
(-7.91203e-14 0.0574687 -37.1955)
(-8.42424e-14 0.0621339 -37.7477)
(-8.99773e-14 0.0671138 -38.337)
(-8.46511e-14 0.0723063 -38.9652)
(-1.1055e-13 0.0775801 -39.6326)
(-1.13157e-13 0.0827706 -40.3385)
(-1.16877e-13 0.0876744 -41.0806)
(-9.05775e-14 0.0920422 -41.8548)
(-9.00252e-14 0.0955698 -42.6547)
(-9.02527e-14 0.0978891 -43.4717)
(-9.33875e-14 0.098563 -44.2941)
(-9.46143e-14 0.0970901 -45.1069)
(-9.5434e-14 0.0929303 -45.8914)
(-8.66512e-14 0.0855644 -46.6255)
(-1.007e-13 0.0745965 -47.284)
(-1.01702e-13 0.0598857 -47.8404)
(-1.02966e-13 0.0416539 -48.2695)
(-1.04198e-13 0.0205051 -48.5499)
(-1.05295e-13 -0.00266296 -48.6671)
(-1.10584e-13 -0.0268248 -48.6142)
(-9.62123e-14 -0.051019 -48.392)
(-9.67022e-14 -0.0745256 -48.0073)
(-1.03011e-13 -0.0970435 -47.471)
(-9.14048e-14 -0.118736 -46.7947)
(-9.2917e-14 -0.139547 -45.9871)
(-9.37924e-14 -0.159217 -45.0575)
(-9.87492e-14 -0.17769 -44.0157)
(-8.41851e-14 -0.195197 -42.871)
(-8.65928e-14 -0.211978 -41.6299)
(-8.67483e-14 -0.228144 -40.2977)
(-8.81665e-14 -0.243787 -38.8789)
(-8.92977e-14 -0.258996 -37.3768)
(-8.988e-14 -0.273848 -35.7941)
(-9.74927e-14 -0.288431 -34.1327)
(-8.26255e-14 -0.302848 -32.3934)
(-8.67375e-14 -0.317223 -30.5761)
(-8.89214e-14 -0.331708 -28.6795)
(-9.03679e-14 -0.346482 -26.7007)
(-8.93521e-14 -0.361758 -24.6355)
(-1.17926e-13 -0.377772 -22.4784)
(-1.1886e-13 -0.394728 -20.2232)
(-1.26363e-13 -0.412686 -17.8636)
(-1.36624e-13 -0.431632 -15.3934)
(-1.55844e-13 -0.45197 -12.8088)
(-1.70112e-13 -0.474616 -10.1118)
(-1.28233e-13 -0.501466 -7.29959)
(-1.95575e-13 -0.552544 -4.36984)
(-2.52221e-13 -0.65479 -1.33932)
(-8.08499e-14 -0.700065 2.10311)
(-6.31959e-14 -0.616734 4.72533)
(-3.16089e-14 -0.557922 7.28549)
(-7.56014e-14 -0.575116 10.2759)
(-5.721e-14 -0.616129 13.3894)
(-4.26707e-14 -0.651867 16.6029)
(-3.44447e-14 -0.680847 19.9307)
(-2.80491e-14 -0.706635 23.3574)
(-3.13293e-14 -0.734739 26.9025)
(-3.79888e-14 -0.763132 30.5014)
(-4.67241e-14 -0.803372 34.337)
(-5.92327e-14 -0.836116 38.054)
(-7.04799e-14 -0.900154 42.5943)
(-7.909e-14 -0.932682 45.6643)
(-9.242e-14 -1.06284 52.899)
(-8.12884e-14 -0.186758 16.4454)
(-5.62444e-14 -0.107023 17.5667)
(-8.48714e-14 -0.072202 18.1336)
(-7.32748e-14 -0.0518522 18.3228)
(-8.02795e-14 -0.136253 18.6369)
(-1.99192e-14 -0.260294 19.7911)
(-8.35679e-14 -0.242075 21.4263)
(-4.81832e-14 -0.091098 22.4237)
(-4.16542e-14 0.0370772 22.4028)
(-7.87484e-14 0.19843 21.548)
(-3.71152e-14 0.340026 19.8983)
(-1.81228e-14 0.393109 17.6103)
(-1.34395e-14 0.61778 14.6871)
(-2.14222e-14 2.16548 11.0536)
(-6.82448e-14 3.73122 -0.840551)
(-2.20352e-13 2.2575 -21.7375)
(-2.0292e-13 0.286959 -24.6112)
(-1.83475e-13 0.177157 -25.9768)
(-1.75191e-13 0.259649 -27.2679)
(-1.78219e-13 0.189939 -28.2337)
(-1.53233e-13 0.172498 -29.0834)
(-1.61173e-13 0.155127 -29.7729)
(-1.48056e-13 0.14022 -30.3919)
(-1.37962e-13 0.129592 -30.9325)
(-1.41646e-13 0.121593 -31.4249)
(-1.31502e-13 0.115893 -31.8787)
(-1.2111e-13 0.112274 -32.3051)
(-1.18784e-13 0.110395 -32.7133)
(-1.1433e-13 0.110158 -33.1102)
(-1.032e-13 0.111453 -33.5025)
(-8.60929e-14 0.114244 -33.8959)
(-8.55098e-14 0.118524 -34.2959)
(-8.4805e-14 0.124308 -34.7074)
(-9.29315e-14 0.131618 -35.1354)
(-9.81123e-14 0.140467 -35.5846)
(-8.63269e-14 0.150849 -36.0595)
(-8.72713e-14 0.162722 -36.5642)
(-8.7166e-14 0.175996 -37.1028)
(-8.60572e-14 0.190523 -37.6787)
(-8.30883e-14 0.206085 -38.2945)
(-7.95985e-14 0.222384 -38.9522)
(-7.69048e-14 0.239032 -39.6527)
(-8.86884e-14 0.255538 -40.3956)
(-7.84715e-14 0.271291 -41.179)
(-9.84337e-14 0.285541 -41.999)
(-9.55286e-14 0.297371 -42.85)
(-8.97414e-14 0.305671 -43.7233)
(-8.13158e-14 0.309124 -44.6075)
(-8.47064e-14 0.306216 -45.4879)
(-5.98868e-14 0.295311 -46.3457)
(-8.16753e-14 0.27483 -47.1585)
(-6.65349e-14 0.243552 -47.9008)
(-6.67243e-14 0.201023 -48.5452)
(-6.27513e-14 0.147882 -49.0653)
(-5.05113e-14 0.0859294 -49.4388)
(-6.03734e-14 0.0178541 -49.6498)
(-6.55194e-14 -0.0532649 -49.6903)
(-5.31129e-14 -0.124522 -49.5605)
(-4.53307e-14 -0.193673 -49.2667)
(-5.62875e-14 -0.259549 -48.8197)
(-5.63895e-14 -0.322351 -48.2328)
(-6.42683e-14 -0.382346 -47.5182)
(-5.51026e-14 -0.439392 -46.685)
(-5.57711e-14 -0.493424 -45.741)
(-7.30368e-14 -0.54504 -44.6944)
(-7.33295e-14 -0.595074 -43.5512)
(-7.5205e-14 -0.643955 -42.315)
(-7.53267e-14 -0.692053 -40.9889)
(-8.27208e-14 -0.739757 -39.5749)
(-5.4543e-14 -0.787444 -38.0739)
(-6.29761e-14 -0.835536 -36.4857)
(-6.68811e-14 -0.88453 -34.809)
(-5.46662e-14 -0.935013 -33.0413)
(-6.90947e-14 -0.987665 -31.1785)
(-7.58667e-14 -1.04325 -29.2145)
(-1.16551e-13 -1.10258 -27.1417)
(-8.2614e-14 -1.16641 -24.9509)
(-9.69616e-14 -1.23522 -22.6324)
(-9.95649e-14 -1.30864 -20.1769)
(-6.92658e-14 -1.3848 -17.577)
(-8.08015e-14 -1.46036 -14.8318)
(-7.36925e-14 -1.52998 -11.9522)
(-2.75373e-15 -1.58582 -8.95695)
(3.98441e-14 -1.64061 -5.87193)
(-6.65768e-14 -1.73785 -2.78819)
(-1.04352e-13 -1.78585 0.348897)
(-5.02038e-14 -1.68255 3.23718)
(-7.32256e-15 -1.64232 6.12537)
(7.76405e-14 -1.73693 9.23167)
(5.02412e-14 -1.85779 12.3947)
(2.52464e-14 -1.95361 15.6136)
(1.99325e-14 -2.02984 18.9141)
(2.6683e-14 -2.10249 22.29)
(-1.14998e-14 -2.18588 25.778)
(-3.24083e-14 -2.27083 29.3107)
(-4.83244e-14 -2.38586 33.0792)
(-7.85141e-14 -2.47798 36.7028)
(-9.25351e-14 -2.66045 41.1466)
(-1.00037e-13 -2.74996 44.1153)
(-7.70293e-14 -3.12246 51.1083)
(-9.11628e-14 -0.325098 14.9961)
(-1.00577e-13 -0.188893 16.1055)
(-6.0681e-14 -0.126292 16.6048)
(-1.04151e-13 -0.0863873 16.7036)
(-6.38047e-14 -0.224209 16.9035)
(-3.4816e-14 -0.429816 17.9961)
(-1.24399e-13 -0.396225 19.6116)
(-7.66101e-14 -0.141233 20.5608)
(-8.0935e-14 0.0741877 20.4815)
(-5.91194e-14 0.355743 19.486)
(-3.35343e-14 0.597288 17.6269)
(-8.21088e-15 0.676587 15.0213)
(9.12909e-15 1.0526 11.918)
(-5.5926e-15 3.17769 8.21665)
(-6.9775e-14 5.81949 0.524972)
(-2.09619e-13 3.93493 -18.6371)
(-2.31625e-13 0.735101 -23.5584)
(-1.81795e-13 0.372487 -25.2586)
(-1.80832e-13 0.456736 -26.6669)
(-1.67683e-13 0.340087 -27.7687)
(-1.41295e-13 0.300471 -28.6705)
(-1.60857e-13 0.268009 -29.4036)
(-1.60991e-13 0.240757 -30.0517)
(-1.40137e-13 0.221631 -30.6146)
(-1.32408e-13 0.207385 -31.1253)
(-1.20828e-13 0.197324 -31.5948)
(-1.0324e-13 0.190971 -32.0356)
(-9.78874e-14 0.187695 -32.4576)
(-9.17249e-14 0.187287 -32.8684)
(-8.71583e-14 0.189535 -33.2754)
(-8.18195e-14 0.194362 -33.6844)
(-8.49567e-14 0.201742 -34.1012)
(-9.46003e-14 0.211691 -34.5311)
(-8.82947e-14 0.224243 -34.9792)
(-8.34222e-14 0.23942 -35.4505)
(-8.35529e-14 0.257216 -35.9494)
(-8.27507e-14 0.27757 -36.4806)
(-8.18269e-14 0.300345 -37.0481)
(-7.97941e-14 0.325305 -37.6556)
(-7.77236e-14 0.352103 -38.306)
(-7.64396e-14 0.380253 -39.0017)
(-7.53466e-14 0.409118 -39.7437)
(-7.46513e-14 0.437885 -40.532)
(-7.41558e-14 0.465535 -41.365)
(-7.40892e-14 0.49081 -42.2391)
(-7.14136e-14 0.512168 -43.1486)
(-6.71683e-14 0.527738 -44.0851)
(-6.20668e-14 0.53529 -45.0372)
(-5.69458e-14 0.532247 -45.9897)
(-5.15916e-14 0.515808 -46.9236)
(-4.68154e-14 0.483227 -47.8155)
(-4.18107e-14 0.43234 -48.6386)
(-3.7397e-14 0.362254 -49.364)
(-3.30358e-14 0.273945 -49.9637)
(-2.94587e-14 0.170394 -50.4134)
(-3.35026e-14 0.056155 -50.6959)
(-2.01115e-14 -0.0635048 -50.8027)
(-1.31627e-14 -0.183567 -50.7338)
(-2.4053e-14 -0.300085 -50.4966)
(-1.60049e-14 -0.410672 -50.1026)
(-2.58646e-14 -0.515158 -49.5664)
(-2.36688e-14 -0.614297 -48.9025)
(-2.30449e-14 -0.708783 -48.12)
(-2.20184e-14 -0.798682 -47.2261)
(-2.33145e-14 -0.884816 -46.228)
(-6.53683e-15 -0.968628 -45.131)
(-2.80599e-15 -1.05092 -43.9379)
(-1.39428e-14 -1.13236 -42.6506)
(-9.56665e-15 -1.21365 -41.2695)
(-8.09403e-15 -1.29549 -39.7937)
(-6.38678e-15 -1.37868 -38.2209)
(-6.11441e-15 -1.46413 -36.547)
(-4.96007e-15 -1.55297 -34.7664)
(-2.31188e-14 -1.64647 -32.8717)
(-4.01727e-14 -1.74608 -30.8538)
(-4.45497e-14 -1.85332 -28.7027)
(-5.67187e-14 -1.96951 -26.4082)
(-6.5976e-14 -2.09535 -23.9626)
(-7.6645e-14 -2.23003 -21.362)
(-8.50025e-14 -2.37027 -18.6099)
(-9.76767e-14 -2.51011 -15.7196)
(-1.1361e-13 -2.6404 -12.717)
(-1.50524e-13 -2.74737 -9.63595)
(-1.34112e-13 -2.82608 -6.51471)
(-8.80473e-14 -2.8959 -3.42247)
(-4.67553e-14 -2.91275 -0.352965)
(2.97243e-14 -2.84772 2.58202)
(1.54787e-14 -2.86362 5.55163)
(8.36817e-15 -2.9819 8.67701)
(-4.05585e-14 -3.12433 11.8557)
(7.15152e-15 -3.24833 15.0712)
(4.11572e-14 -3.36033 18.3531)
(2.23335e-14 -3.47491 21.7008)
(5.92224e-15 -3.60777 25.156)
(-2.95168e-14 -3.74558 28.6464)
(-5.99992e-14 -3.9278 32.3702)
(-8.25413e-14 -4.07816 35.9217)
(-6.85296e-14 -4.36912 40.3007)
(-4.21375e-14 -4.50781 43.1862)
(2.28761e-15 -5.09958 49.9852)
(-9.97452e-14 -0.463121 13.6591)
(-4.6912e-14 -0.262271 14.7155)
(-3.05525e-14 -0.168199 15.1245)
(-5.29622e-14 -0.106316 15.1255)
(-3.17355e-14 -0.304556 15.2361)
(-7.73304e-14 -0.600903 16.3458)
(-4.10448e-14 -0.553224 18.0249)
(-6.55764e-14 -0.191194 18.9819)
(-1.23855e-13 0.118838 18.9087)
(-9.54947e-14 0.538841 17.7966)
(-7.11302e-14 0.882212 15.8178)
(-4.29845e-14 0.982182 12.9457)
(-1.26458e-14 1.49598 9.78354)
(9.20095e-15 3.92326 5.91078)
(-3.94305e-14 7.43685 0.994845)
(-2.03355e-13 5.57403 -15.6803)
(-2.20499e-13 1.33147 -22.6572)
(-2.14116e-13 0.596341 -24.5732)
(-1.87196e-13 0.678893 -26.0739)
(-1.64808e-13 0.506444 -27.3168)
(-1.46532e-13 0.437198 -28.2648)
(-1.36071e-13 0.388001 -29.0413)
(-1.32537e-13 0.346516 -29.7196)
(-1.19631e-13 0.317949 -30.3059)
(-1.09109e-13 0.296873 -30.8363)
(-9.86064e-14 0.282097 -31.3231)
(-8.77363e-14 0.272845 -31.78)
(-8.00914e-14 0.268139 -32.2177)
(-7.43106e-14 0.267634 -32.6444)
(-6.83009e-14 0.270999 -33.0678)
(-6.59651e-14 0.278094 -33.4943)
(-7.64233e-14 0.288869 -33.93)
(-8.75808e-14 0.303328 -34.3802)
(-8.11714e-14 0.321512 -34.8504)
(-7.01512e-14 0.34345 -35.3456)
(-4.84813e-14 0.369135 -35.8705)
(-6.55726e-14 0.398488 -36.4297)
(-4.74603e-14 0.431327 -37.0275)
(-4.73023e-14 0.46734 -37.6677)
(-7.86206e-14 0.506049 -38.3535)
(-4.77505e-14 0.54679 -39.0873)
(-3.95484e-14 0.588679 -39.8706)
(-5.80645e-14 0.630577 -40.7035)
(-6.23119e-14 0.671052 -41.5847)
(-4.2952e-14 0.708322 -42.5109)
(-4.54497e-14 0.7402 -43.4767)
(-3.63916e-14 0.764022 -44.4738)
(-3.55895e-14 0.776604 -45.4908)
(-4.00746e-14 0.774254 -46.5124)
(-3.93363e-14 0.752928 -47.5191)
(-1.89367e-14 0.70863 -48.4868)
(-2.10834e-14 0.638163 -49.3874)
(1.19722e-15 0.540139 -50.1903)
(-1.69565e-15 0.41588 -50.8655)
(-1.1035e-14 0.269653 -51.3868)
(-1.05933e-14 0.108047 -51.7355)
(-1.61453e-14 -0.0612833 -51.9023)
(-3.48227e-16 -0.231064 -51.887)
(-1.56448e-14 -0.395609 -51.6972)
(-1.24362e-14 -0.551381 -51.3457)
(-2.78961e-14 -0.697817 -50.8474)
(-2.39858e-14 -0.835963 -50.2192)
(-3.69212e-14 -0.967742 -49.4716)
(-3.22646e-14 -1.09367 -48.6109)
(-2.72014e-14 -1.21479 -47.6428)
(-1.96508e-14 -1.33319 -46.5715)
(-3.79515e-14 -1.45018 -45.398)
(-2.59317e-14 -1.56684 -44.122)
(-9.68093e-15 -1.68438 -42.7414)
(-1.04687e-14 -1.80404 -41.2519)
(-7.66093e-15 -1.92721 -39.6475)
(-2.45839e-14 -2.05548 -37.9202)
(-2.0146e-14 -2.19063 -36.0602)
(-3.71974e-14 -2.33452 -34.0568)
(-6.82753e-15 -2.48894 -31.8994)
(2.11172e-14 -2.65525 -29.5794)
(5.23669e-15 -2.83385 -27.093)
(1.07112e-14 -3.0234 -24.4439)
(-1.59028e-14 -3.21986 -21.6468)
(-1.03868e-14 -3.41574 -18.7277)
(-1.86211e-14 -3.60041 -15.7234)
(-3.40204e-14 -3.76086 -12.6777)
(-7.77232e-14 -3.88279 -9.63028)
(-1.75525e-13 -3.96321 -6.60814)
(-1.54416e-13 -4.01837 -3.64001)
(-1.06353e-13 -4.02532 -0.698349)
(1.26283e-16 -3.98789 2.19227)
(-1.12606e-14 -4.04286 5.15716)
(9.36964e-15 -4.18958 8.26141)
(1.19429e-14 -4.36672 11.4271)
(8.54254e-14 -4.53149 14.6294)
(7.0523e-14 -4.68683 17.8952)
(1.99612e-14 -4.84542 21.2238)
(-2.1209e-14 -5.02633 24.659)
(-5.76438e-14 -5.21488 28.1247)
(-6.51887e-14 -5.45777 31.8229)
(-4.69286e-14 -5.66485 35.3288)
(-5.93603e-15 -6.05266 39.6807)
(2.15231e-14 -6.2338 42.4986)
(3.33696e-14 -7.02551 49.1966)
(-9.96568e-14 -0.596665 12.3601)
(-6.25075e-14 -0.331962 13.3707)
(-6.0462e-14 -0.210129 13.7245)
(-5.78992e-14 -0.12699 13.6551)
(-2.82973e-14 -0.392839 13.7068)
(-5.26384e-14 -0.7855 14.8803)
(-7.34702e-14 -0.720933 16.6537)
(-4.91586e-14 -0.24846 17.6263)
(-6.8772e-14 0.164377 17.5813)
(-7.26682e-14 0.738815 16.3499)
(-7.54723e-14 1.18028 14.2944)
(-8.85082e-14 1.29472 11.1908)
(-2.1112e-14 1.93518 8.05207)
(2.05824e-14 4.51015 4.11056)
(-2.14131e-14 8.68067 0.782373)
(-1.6196e-13 7.18245 -12.919)
(-2.34325e-13 2.08153 -21.83)
(-1.92202e-13 0.840403 -24.0049)
(-1.88952e-13 0.918138 -25.5008)
(-1.61545e-13 0.689041 -26.8873)
(-1.38968e-13 0.582046 -27.8786)
(-1.30671e-13 0.514993 -28.6951)
(-1.17731e-13 0.457622 -29.4045)
(-1.02707e-13 0.418675 -30.0144)
(-9.36084e-14 0.390234 -30.5651)
(-8.43321e-14 0.370388 -31.07)
(-7.00872e-14 0.358061 -31.5436)
(-6.65755e-14 0.351875 -31.9976)
(-7.35834e-14 0.351323 -32.4406)
(-6.95006e-14 0.355937 -32.8809)
(-6.88475e-14 0.365502 -33.3252)
(-6.62597e-14 0.379927 -33.7797)
(-6.05393e-14 0.399201 -34.2503)
(-5.41708e-14 0.423358 -34.7423)
(-6.08991e-14 0.452432 -35.261)
(-4.59396e-14 0.486411 -35.8112)
(-4.40657e-14 0.525201 -36.3976)
(-4.43585e-14 0.56858 -37.0247)
(-4.87476e-14 0.61616 -37.6963)
(-5.19836e-14 0.667351 -38.4158)
(-5.17957e-14 0.721317 -39.1858)
(-5.36316e-14 0.776939 -40.0082)
(-5.37499e-14 0.832767 -40.8833)
(-3.96223e-14 0.886959 -41.8103)
(-4.1177e-14 0.937216 -42.7862)
(-4.09348e-14 0.980698 -43.8061)
(-4.08871e-14 1.01393 -44.8618)
(-3.91863e-14 1.03273 -45.9423)
(-3.53537e-14 1.03223 -47.0322)
(-3.54923e-14 1.00706 -48.1115)
(-1.78242e-14 0.951823 -49.1554)
(-2.56309e-14 0.862145 -50.1344)
(-1.50599e-14 0.735997 -51.0157)
(-1.75709e-14 0.574969 -51.7669)
(-1.91983e-14 0.38463 -52.3593)
(-1.66177e-14 0.173723 -52.7724)
(-3.29133e-14 -0.0475144 -52.9955)
(-3.79941e-14 -0.269313 -53.0283)
(-4.83567e-14 -0.484 -52.8787)
(-4.02547e-14 -0.686766 -52.5607)
(-5.02898e-14 -0.876486 -52.0895)
(-3.40478e-14 -1.05428 -51.4841)
(-4.59518e-14 -1.22385 -50.7565)
(-4.45e-14 -1.38668 -49.9121)
(-4.51946e-14 -1.54417 -48.954)
(-5.04743e-14 -1.69905 -47.8843)
(-2.14583e-14 -1.85334 -46.7011)
(-2.57103e-14 -2.00871 -45.4006)
(-1.15232e-14 -2.16704 -43.9767)
(-1.61152e-14 -2.33028 -42.4207)
(-9.0363e-16 -2.50051 -40.7224)
(-8.35597e-15 -2.67993 -38.8698)
(-1.52324e-14 -2.87067 -36.8513)
(-4.55976e-14 -3.07451 -34.6572)
(-3.67669e-14 -3.29244 -32.2826)
(-2.83994e-14 -3.52397 -29.7304)
(-5.25447e-15 -3.76648 -27.015)
(2.35098e-14 -4.01452 -24.1639)
(1.27279e-14 -4.25943 -21.2171)
(4.63385e-14 -4.48988 -18.2229)
(4.20758e-14 -4.69354 -15.23)
(3.42124e-14 -4.85874 -12.2784)
(5.03359e-14 -4.97585 -9.38733)
(-7.29784e-14 -5.04677 -6.55082)
(-1.57963e-13 -5.09038 -3.75338)
(-1.34781e-13 -5.10465 -0.941792)
(-4.7804e-14 -5.11306 1.89888)
(-1.90125e-14 -5.22341 4.83762)
(1.61632e-14 -5.41109 7.90496)
(7.25157e-14 -5.62114 11.0414)
(7.3086e-14 -5.81773 14.2182)
(6.34352e-14 -6.00921 17.4589)
(-1.08492e-14 -6.20797 20.7611)
(-5.82948e-14 -6.43518 24.1717)
(-6.27112e-14 -6.67352 27.6132)
(-3.71475e-14 -6.97443 31.2908)
(1.77348e-15 -7.24122 34.7653)
(2.49327e-14 -7.71621 39.1109)
(3.03075e-14 -7.9444 41.8729)
(2.66623e-14 -8.92305 48.5535)
(-1.00187e-13 -0.75233 11.0652)
(-1.08433e-13 -0.406845 12.1552)
(-6.11692e-14 -0.250296 12.4748)
(-5.02042e-14 -0.140898 12.3221)
(-2.39163e-14 -0.482499 12.3028)
(-7.76237e-14 -0.979659 13.5507)
(-1.23964e-13 -0.895903 15.4238)
(-8.95062e-14 -0.310179 16.4099)
(-4.91208e-14 0.215049 16.4079)
(-4.29646e-14 0.953675 15.0905)
(-1.24687e-13 1.49201 12.9447)
(-8.45513e-14 1.61227 9.63466)
(-4.34947e-14 2.36371 6.5435)
(3.91188e-15 5.01198 2.68831)
(-1.16798e-14 9.64007 0.137211)
(-1.44548e-13 8.73011 -10.5254)
(-2.50428e-13 2.97546 -20.9841)
(-2.0739e-13 1.1037 -23.5664)
(-1.64163e-13 1.16516 -24.9584)
(-1.45889e-13 0.887054 -26.4787)
(-1.37819e-13 0.734091 -27.5148)
(-1.23884e-13 0.648399 -28.3661)
(-1.16894e-13 0.573871 -29.1069)
(-1.18883e-13 0.523621 -29.7401)
(-1.09998e-13 0.487347 -30.3113)
(-9.58335e-14 0.462095 -30.8343)
(-8.91165e-14 0.44652 -31.3246)
(-8.12379e-14 0.438805 -31.7948)
(-8.37073e-14 0.43825 -32.2539)
(-8.31583e-14 0.44424 -32.7106)
(-7.17739e-14 0.456471 -33.1719)
(-6.47944e-14 0.474799 -33.6446)
(-4.29679e-14 0.499184 -34.1345)
(-3.59752e-14 0.529652 -34.6472)
(-2.79233e-14 0.566229 -35.1882)
(-2.93965e-14 0.6089 -35.7623)
(-4.20193e-14 0.657553 -36.3745)
(-4.61611e-14 0.711931 -37.0291)
(-5.32879e-14 0.771582 -37.7303)
(-6.13466e-14 0.835809 -38.4817)
(-7.47572e-14 0.903624 -39.2862)
(-6.53376e-14 0.973686 -40.1458)
(-4.80562e-14 1.04425 -41.0615)
(-5.38392e-14 1.11307 -42.0326)
(-3.74724e-14 1.17734 -43.0569)
(-3.58456e-14 1.23356 -44.1298)
(-3.24644e-14 1.27741 -45.2436)
(-2.97903e-14 1.30367 -46.3874)
(-2.70851e-14 1.30621 -47.5459)
(-2.45701e-14 1.27821 -48.6988)
(-2.28596e-14 1.21276 -49.8202)
(-2.37306e-14 1.10409 -50.8789)
(-2.53631e-14 0.949405 -51.84)
(-2.71695e-14 0.750508 -52.6677)
(-2.73624e-14 0.514351 -53.3308)
(-2.67031e-14 0.25203 -53.8062)
(-2.70947e-14 -0.0233814 -54.0819)
(-2.88316e-14 -0.299387 -54.1569)
(-3.57204e-14 -0.566188 -54.0401)
(-2.40153e-14 -0.817711 -53.7458)
(-2.37683e-14 -1.05221 -53.29)
(-1.76504e-14 -1.27086 -52.6931)
(-2.85008e-14 -1.47926 -51.9678)
(-2.80968e-14 -1.68061 -51.118)
(-3.80755e-14 -1.87696 -50.1433)
(-1.41521e-14 -2.07173 -49.0418)
(2.03981e-15 -2.26787 -47.8077)
(1.34646e-14 -2.46785 -46.4323)
(2.21186e-14 -2.67433 -44.9045)
(1.97828e-14 -2.88997 -43.2117)
(4.22689e-14 -3.11731 -41.3409)
(2.85435e-14 -3.35854 -39.2808)
(3.25731e-14 -3.61502 -37.0248)
(3.10065e-14 -3.88678 -34.5746)
(2.90992e-14 -4.17174 -31.9434)
(-1.88076e-14 -4.46519 -29.1587)
(-2.76343e-14 -4.75955 -26.2622)
(-3.03659e-14 -5.04465 -23.3065)
(-3.41157e-14 -5.30888 -20.3477)
(-6.53577e-16 -5.54108 -17.4351)
(4.64015e-14 -5.73308 -14.6013)
(9.18028e-14 -5.88099 -11.8555)
(9.60793e-14 -5.98517 -9.17976)
(6.80456e-14 -6.05511 -6.53442)
(-9.74898e-14 -6.11073 -3.87791)
(-1.48642e-13 -6.15842 -1.15302)
(-4.37938e-14 -6.22377 1.6562)
(-1.72218e-14 -6.3873 4.56939)
(2.81529e-14 -6.61267 7.5953)
(4.34842e-14 -6.8544 10.6915)
(6.35851e-14 -7.08493 13.8291)
(2.78098e-14 -7.31672 17.031)
(-4.138e-14 -7.55949 20.2935)
(-6.5556e-14 -7.83604 23.6677)
(-2.24035e-14 -8.12615 27.0739)
(1.31276e-14 -8.48547 30.7237)
(3.4283e-14 -8.81628 34.1641)
(3.62006e-14 -9.37005 38.5031)
(3.3046e-14 -9.65821 41.2129)
(1.49679e-14 -10.8136 47.9157)
(-8.86582e-14 -0.899044 10.0472)
(-9.61425e-14 -0.479841 11.0726)
(-7.80243e-14 -0.286817 11.2956)
(-2.96106e-14 -0.149328 11.0457)
(-4.33072e-14 -0.578341 10.9727)
(-1.00938e-13 -1.1876 12.2917)
(-1.16366e-13 -1.08168 14.2492)
(-1.11415e-13 -0.38103 15.2506)
(-1.27147e-13 0.265072 15.3132)
(-1.14593e-13 1.17656 13.9653)
(-1.45841e-13 1.81329 11.7135)
(-8.39047e-14 1.93242 8.21144)
(-8.09319e-14 2.77627 5.16404)
(-2.77276e-14 5.46513 1.52042)
(-1.00208e-14 10.3684 -0.755968)
(-1.28292e-13 10.1692 -8.60849)
(-2.40181e-13 3.99397 -20.0407)
(-1.94643e-13 1.39215 -23.232)
(-1.54479e-13 1.41167 -24.4557)
(-1.50644e-13 1.09935 -26.0865)
(-1.38709e-13 0.89281 -27.1733)
(-1.27356e-13 0.787601 -28.0533)
(-1.23346e-13 0.695123 -28.8253)
(-1.27311e-13 0.632647 -29.4813)
(-1.23158e-13 0.588113 -30.0726)
(-1.19433e-13 0.557127 -30.6136)
(-1.0947e-13 0.53812 -31.1204)
(-8.29155e-14 0.528804 -31.6063)
(-6.58068e-14 0.528266 -32.0808)
(-7.07239e-14 0.535733 -32.5532)
(-5.79881e-14 0.550798 -33.0307)
(-5.30412e-14 0.573254 -33.5204)
(-4.53526e-14 0.603026 -34.0284)
(-4.11957e-14 0.640119 -34.5605)
(-3.70285e-14 0.684551 -35.1223)
(-2.93823e-14 0.736297 -35.7188)
(-4.05658e-14 0.79523 -36.3552)
(-4.46154e-14 0.861062 -37.0359)
(-5.1085e-14 0.933284 -37.7653)
(-5.69724e-14 1.01111 -38.5471)
(-5.94431e-14 1.09341 -39.3847)
(-4.31524e-14 1.17864 -40.2803)
(-4.70869e-14 1.26477 -41.2353)
(-2.50686e-14 1.34919 -42.2496)
(-2.18933e-14 1.42857 -43.3215)
(-1.59679e-14 1.49874 -44.4467)
(-7.84498e-15 1.55452 -45.6182)
(-4.8691e-15 1.58962 -46.8253)
(5.34865e-15 1.59655 -48.0527)
(1.46436e-14 1.56691 -49.2799)
(4.42304e-15 1.49206 -50.4799)
(-5.34935e-15 1.36469 -51.6197)
(-2.5553e-14 1.18101 -52.6616)
(-2.53402e-14 0.942921 -53.5667)
(-2.48852e-14 0.658819 -54.2999)
(-2.10002e-14 0.342351 -54.8353)
(-1.50511e-14 0.009712 -55.159)
(-6.65551e-15 -0.323583 -55.2696)
(-2.34221e-14 -0.645407 -55.1757)
(-1.18748e-14 -0.948346 -54.8926)
(-1.11107e-14 -1.23005 -54.4364)
(-9.271e-15 -1.49178 -53.8275)
(-8.38298e-15 -1.74123 -53.0792)
(-5.79339e-15 -1.98421 -52.1923)
(-1.78666e-14 -2.22378 -51.1613)
(-7.37785e-15 -2.46416 -49.9791)
(-1.55854e-14 -2.70934 -48.6346)
(9.65216e-16 -2.96263 -47.1143)
(2.30595e-14 -3.22725 -45.4039)
(2.06002e-14 -3.50598 -43.4905)
(3.75011e-14 -3.80075 -41.3656)
(2.06754e-14 -4.11207 -39.0287)
(4.5793e-14 -4.43839 -36.4917)
(4.84978e-14 -4.77552 -33.7811)
(4.55609e-14 -5.1163 -30.9396)
(3.45088e-14 -5.451 -28.0227)
(-9.73875e-16 -5.76836 -25.0919)
(-4.71553e-14 -6.05742 -22.2048)
(-6.77857e-14 -6.30948 -19.4046)
(-5.88338e-14 -6.51995 -16.7111)
(-2.25076e-14 -6.68942 -14.1181)
(6.36589e-15 -6.82284 -11.5971)
(6.2642e-14 -6.9276 -9.10302)
(2.3067e-14 -7.01556 -6.58504)
(-5.6635e-14 -7.10341 -4.00314)
(-7.4163e-14 -7.19937 -1.3155)
(-4.97892e-14 -7.32465 1.47701)
(-1.79194e-14 -7.53809 4.36517)
(3.02277e-14 -7.80075 7.34695)
(5.29087e-14 -8.07494 10.3962)
(4.80149e-14 -8.33855 13.4851)
(-9.25253e-15 -8.60897 16.6377)
(-6.06028e-14 -8.89455 19.8481)
(-3.94016e-14 -9.22049 23.1723)
(-3.45375e-16 -9.56352 26.5263)
(3.88403e-14 -9.98244 30.1325)
(3.96321e-14 -10.3825 33.5217)
(3.06321e-14 -11.0099 37.8355)
(1.1624e-14 -11.3763 40.4867)
(-2.48288e-15 -12.7012 47.1955)
(-7.07974e-14 -1.05436 9.03496)
(-9.58637e-14 -0.548065 10.0006)
(-6.33475e-14 -0.317628 10.1513)
(-5.43066e-14 -0.15181 9.83195)
(-9.43905e-14 -0.678716 9.70977)
(-1.1298e-13 -1.40652 10.9997)
(-9.39395e-14 -1.27842 12.9903)
(-1.06365e-13 -0.464627 14.0287)
(-1.18811e-13 0.309119 14.1995)
(-9.27516e-14 1.40482 12.8966)
(-9.18021e-14 2.14642 10.5411)
(-1.04095e-13 2.25739 6.8742)
(-9.99734e-14 3.16899 3.88109)
(-4.72978e-14 5.88598 0.525851)
(-1.61899e-14 10.9103 -1.74256)
(-1.18006e-13 11.4667 -7.19464)
(-2.32801e-13 5.11322 -18.9616)
(-1.84634e-13 1.71768 -22.961)
(-1.59486e-13 1.65164 -24.0003)
(-1.41838e-13 1.32427 -25.7056)
(-1.27955e-13 1.05809 -26.8519)
(-1.07853e-13 0.931966 -27.7551)
(-1.04726e-13 0.821222 -28.5575)
(-1.07378e-13 0.745622 -29.2361)
(-1.04073e-13 0.692429 -29.847)
(-9.40554e-14 0.655393 -30.4057)
(-7.47656e-14 0.632756 -30.9286)
(-5.75008e-14 0.621748 -31.4297)
(-6.20399e-14 0.621222 -31.9191)
(-5.90673e-14 0.630242 -32.4062)
(-5.67708e-14 0.648285 -32.899)
(-5.55915e-14 0.675075 -33.4045)
(-5.26841e-14 0.710492 -33.9294)
(-4.77458e-14 0.754516 -34.4796)
(-3.95779e-14 0.807148 -35.0608)
(-3.11312e-14 0.868353 -35.6784)
(-4.53003e-14 0.937989 -36.3376)
(-4.76145e-14 1.01574 -37.043)
(-5.18123e-14 1.10105 -37.7993)
(-5.2343e-14 1.19305 -38.6105)
(-5.18667e-14 1.29049 -39.48)
(-2.71715e-14 1.39164 -40.4106)
(-2.49796e-14 1.4942 -41.404)
(-7.28365e-15 1.5952 -42.4607)
(-6.06082e-15 1.69081 -43.5793)
(-3.43915e-15 1.77618 -44.7562)
(-2.97609e-16 1.84527 -45.9848)
(2.20983e-15 1.89063 -47.2549)
(8.17097e-15 1.90337 -48.5513)
(1.70366e-15 1.87334 -49.8532)
(-1.27154e-14 1.79002 -51.1327)
(-1.31505e-14 1.64423 -52.3549)
(-2.7709e-14 1.43096 -53.4789)
(-2.87517e-14 1.15211 -54.4617)
(-3.30317e-14 0.817557 -55.2642)
(-3.79112e-14 0.443727 -55.8566)
(-4.62437e-14 0.0502697 -56.2223)
(-3.04663e-14 -0.34398 -56.3586)
(-4.11569e-14 -0.724388 -56.2736)
(-3.77252e-14 -1.08218 -55.9826)
(-5.14541e-14 -1.41455 -55.5015)
(-5.13934e-14 -1.72283 -54.8501)
(-5.24373e-14 -2.01725 -54.0408)
(-5.3009e-14 -2.30711 -53.0694)
(-5.30247e-14 -2.59682 -51.924)
(-5.28063e-14 -2.89134 -50.5919)
(-5.49202e-14 -3.19552 -49.058)
(-4.3937e-14 -3.513 -47.3074)
(-3.47422e-14 -3.84655 -45.3296)
(-3.73622e-14 -4.1975 -43.1216)
(-2.88309e-14 -4.56499 -40.6929)
(-3.21508e-14 -4.94539 -38.0687)
(-2.0879e-14 -5.33197 -35.2917)
(-5.14254e-15 -5.71512 -32.4196)
(1.86646e-14 -6.08343 -29.5188)
(1.25392e-14 -6.42545 -26.6542)
(3.48618e-15 -6.73184 -23.8779)
(-2.5538e-14 -6.99725 -21.2197)
(-5.65846e-14 -7.22122 -18.6829)
(-8.0378e-14 -7.40805 -16.2457)
(-9.61269e-14 -7.56566 -13.8687)
(-2.05144e-14 -7.70332 -11.5054)
(4.19713e-14 -7.82956 -9.10962)
(-2.25474e-14 -7.95364 -6.64308)
(-5.38217e-14 -8.08645 -4.08322)
(-9.49856e-14 -8.23504 -1.40735)
(-5.26565e-14 -8.41599 1.3688)
(-1.60117e-14 -8.67275 4.22774)
(1.56866e-15 -8.96897 7.16314)
(4.79693e-14 -9.27393 10.1618)
(2.41439e-14 -9.56932 13.1974)
(-2.59208e-14 -9.87774 16.2959)
(-4.24819e-14 -10.2063 19.4478)
(4.64272e-16 -10.5821 22.7136)
(3.89286e-14 -10.979 26.0029)
(3.27212e-14 -11.4579 29.5507)
(2.44734e-14 -11.931 32.8698)
(2.33463e-15 -12.6284 37.1312)
(-5.73266e-15 -13.0887 39.7131)
(-8.74223e-15 -14.5768 46.367)
(-1.47091e-13 -1.20341 8.04575)
(-1.05761e-13 -0.611215 8.9768)
(-1.30303e-13 -0.346967 9.06167)
(-6.23016e-14 -0.149235 8.69531)
(-1.28114e-13 -0.775609 8.44939)
(-1.12641e-13 -1.63068 9.47987)
(-9.32837e-14 -1.48948 11.4578)
(-6.17865e-14 -0.569315 12.5997)
(-7.51931e-14 0.337546 12.9767)
(-7.79247e-14 1.62575 11.814)
(-4.60271e-14 2.49056 9.40915)
(-8.20517e-14 2.58632 5.6391)
(-1.00606e-13 3.53936 2.6881)
(-6.64246e-14 6.28055 -0.357417)
(-2.79874e-14 11.312 -2.70133)
(-9.42828e-14 12.608 -6.2616)
(-2.22458e-13 6.30483 -17.7565)
(-1.90351e-13 2.09453 -22.7086)
(-1.48205e-13 1.8819 -23.5981)
(-1.3025e-13 1.55955 -25.3322)
(-1.08648e-13 1.23015 -26.5477)
(-8.85195e-14 1.08092 -27.4703)
(-9.42832e-14 0.952001 -28.3015)
(-7.65438e-14 0.862436 -29.0025)
(-5.55099e-14 0.800195 -29.6326)
(-5.89398e-14 0.756806 -30.2088)
(-6.58675e-14 0.730327 -30.7474)
(-6.72593e-14 0.717517 -31.2633)
(-6.16445e-14 0.716973 -31.767)
(-7.09117e-14 0.727593 -32.2682)
(-7.59997e-14 0.748733 -32.7753)
(-6.40718e-14 0.780041 -33.2957)
(-6.30483e-14 0.821345 -33.8363)
(-4.72166e-14 0.872595 -34.4033)
(-3.47312e-14 0.93377 -35.0027)
(-3.52825e-14 1.00482 -35.6401)
(-4.01797e-14 1.08559 -36.3208)
(-3.62682e-14 1.17574 -37.0498)
(-3.37506e-14 1.27467 -37.8318)
(-2.75571e-14 1.38144 -38.6712)
(-1.58024e-14 1.49469 -39.5716)
(-4.21742e-15 1.61252 -40.5362)
(-1.02841e-14 1.7324 -41.5671)
(5.70497e-16 1.85098 -42.6652)
(-1.83904e-15 1.96395 -43.8296)
(-2.89061e-15 2.06581 -45.0573)
(-5.25789e-15 2.14962 -46.3423)
(-8.55515e-15 2.20675 -47.6748)
(-1.35889e-14 2.22681 -49.04)
(-2.04588e-14 2.1978 -50.4169)
(-2.69066e-14 2.10702 -51.7768)
(-3.4115e-14 1.94316 -53.0826)
(-4.15565e-14 1.69965 -54.2899)
(-4.79437e-14 1.37816 -55.3509)
(-5.53433e-14 0.99008 -56.2209)
(-6.19153e-14 0.554843 -56.8653)
(-7.04921e-14 0.0958854 -57.2636)
(-6.16932e-14 -0.364301 -57.4103)
(-7.03763e-14 -0.808354 -57.3122)
(-6.89877e-14 -1.22607 -56.9833)
(-7.12805e-14 -1.61422 -56.4389)
(-6.96883e-14 -1.97431 -55.6986)
(-7.59351e-14 -2.32002 -54.7723)
(-7.82146e-14 -2.66479 -53.6485)
(-8.09213e-14 -3.01436 -52.3102)
(-6.7237e-14 -3.37389 -50.7418)
(-6.72723e-14 -3.74814 -48.9306)
(-5.6251e-14 -4.13962 -46.8706)
(-4.87893e-14 -4.54851 -44.5681)
(-5.48687e-14 -4.97213 -42.0463)
(-5.25283e-14 -5.4044 -39.3468)
(-6.59965e-14 -5.83599 -36.5289)
(-6.66589e-14 -6.25529 -33.6634)
(-6.77299e-14 -6.65019 -30.8221)
(-4.04001e-14 -7.01026 -28.0661)
(1.50058e-14 -7.32894 -25.4347)
(-2.58687e-16 -7.60468 -22.9397)
(-3.38712e-14 -7.841 -20.5661)
(-3.57072e-14 -8.0452 -18.2784)
(-6.2042e-14 -8.22655 -16.0308)
(-7.079e-14 -8.39448 -13.7774)
(-3.30922e-14 -8.5569 -11.4798)
(2.21295e-14 -8.71936 -9.10982)
(4.50999e-15 -8.88714 -6.64971)
(-7.56108e-14 -9.06661 -4.09364)
(-9.23328e-14 -9.26442 -1.43009)
(-4.85439e-14 -9.49483 1.32001)
(-1.47759e-14 -9.78987 4.1429)
(8.96689e-15 -10.1176 7.02953)
(2.61195e-14 -10.4526 9.97622)
(5.06191e-15 -10.779 12.9578)
(-3.04824e-14 -11.1241 16.0029)
(-3.97318e-15 -11.4941 19.0963)
(2.50081e-14 -11.9177 22.3029)
(1.44744e-14 -12.3672 25.5233)
(1.7222e-14 -12.9045 29.0057)
(6.5151e-15 -13.451 32.2438)
(-7.93405e-15 -14.2152 36.4291)
(-1.14025e-14 -14.777 38.9361)