/*--------------------------------*- C++ -*----------------------------------*\
| =========                 |                                                 |
| \\      /  F ield         | OpenFOAM: The Open Source CFD Toolbox           |
|  \\    /   O peration     | Version:  4.1                                   |
|   \\  /    A nd           | Web:      www.OpenFOAM.org                      |
|    \\/     M anipulation  |                                                 |
\*---------------------------------------------------------------------------*/
FoamFile
{
    version     2.0;
    format      ascii;
    class       volScalarField;
    location    "1700";
    object      p;
}
// * * * * * * * * * * * * * * * * * * * * * * * * * * * * * * * * * * * * * //

dimensions      [0 2 -2 0 0 0 0];

internalField   nonuniform List<scalar> 
6820
(
-6.86008
-7.08691
-7.16383
-7.17586
-7.19522
-7.21729
-7.23384
-7.24669
-7.25784
-7.26741
-7.27528
-7.28158
-7.28642
-7.28982
-7.29172
-7.29206
-7.29074
-7.28761
-7.28246
-7.27504
-7.26501
-7.25192
-7.23517
-7.21394
-7.18707
-7.15288
-7.10861
-7.05027
-6.96829
-6.85378
-6.64416
-6.39164
-5.33679
-6.93205
-7.07308
-7.13669
-7.15704
-7.18084
-7.2048
-7.22277
-7.23662
-7.24842
-7.25845
-7.26671
-7.27333
-7.27845
-7.28207
-7.28417
-7.28467
-7.28349
-7.28048
-7.27543
-7.26811
-7.25817
-7.24519
-7.22859
-7.20762
-7.18122
-7.14793
-7.10554
-7.0513
-6.97928
-6.88789
-6.75573
-6.63281
-6.54579
-6.98947
-7.0775
-7.13762
-7.16262
-7.18502
-7.20726
-7.22474
-7.23844
-7.25009
-7.26004
-7.26826
-7.27489
-7.28003
-7.2837
-7.28587
-7.28648
-7.28544
-7.2826
-7.27779
-7.27077
-7.26123
-7.24877
-7.2329
-7.21294
-7.18802
-7.15699
-7.11828
-7.07022
-7.00997
-6.93942
-6.85488
-6.80262
-6.78854
-7.02822
-7.0866
-7.14081
-7.1672
-7.18808
-7.20892
-7.22606
-7.23965
-7.25117
-7.26102
-7.26921
-7.27584
-7.28101
-7.28474
-7.28701
-7.28776
-7.2869
-7.2843
-7.2798
-7.27318
-7.26417
-7.25244
-7.23756
-7.219
-7.1961
-7.16808
-7.13404
-7.09339
-7.04556
-6.99409
-6.94207
-6.91849
-6.928
-7.05937
-7.09919
-7.14508
-7.17133
-7.19122
-7.21082
-7.2275
-7.24093
-7.25229
-7.26205
-7.27022
-7.27688
-7.28212
-7.28597
-7.28839
-7.28934
-7.28874
-7.28648
-7.28242
-7.27636
-7.26809
-7.25734
-7.24377
-7.22702
-7.20665
-7.18228
-7.1536
-7.12086
-7.08496
-7.04997
-7.02119
-7.01711
-7.04633
-7.08549
-7.11299
-7.15075
-7.17602
-7.19505
-7.21337
-7.22942
-7.24261
-7.2538
-7.26345
-7.2716
-7.27829
-7.28362
-7.2876
-7.29022
-7.29143
-7.29117
-7.28933
-7.28581
-7.28046
-7.2731
-7.26354
-7.25155
-7.23691
-7.21945
-7.19908
-7.176
-7.15101
-7.12577
-7.10423
-7.09185
-7.10036
-7.13694
-7.10766
-7.12696
-7.15768
-7.1813
-7.19938
-7.21645
-7.23177
-7.24465
-7.25565
-7.26518
-7.2733
-7.28004
-7.28548
-7.28963
-7.29248
-7.294
-7.29414
-7.29282
-7.28995
-7.28542
-7.27912
-7.27092
-7.26072
-7.24843
-7.23407
-7.21784
-7.20025
-7.18242
-7.16628
-7.15534
-7.15423
-7.17027
-7.20834
-7.12677
-7.14063
-7.1655
-7.18704
-7.2041
-7.21999
-7.23454
-7.24706
-7.25784
-7.26724
-7.27532
-7.28212
-7.28769
-7.29203
-7.29516
-7.29705
-7.29765
-7.29692
-7.29479
-7.2912
-7.28608
-7.27939
-7.27111
-7.26129
-7.25011
-7.23795
-7.22552
-7.21405
-7.20546
-7.20263
-7.20919
-7.22965
-7.26708
-7.14355
-7.15376
-7.17389
-7.19319
-7.20916
-7.22396
-7.23772
-7.24982
-7.26037
-7.26963
-7.27768
-7.28455
-7.29026
-7.29483
-7.29827
-7.30057
-7.30169
-7.30162
-7.30031
-7.29774
-7.29391
-7.28882
-7.28254
-7.27523
-7.26718
-7.25888
-7.25114
-7.24516
-7.24267
-7.24595
-7.25767
-7.28061
-7.31656
-7.15851
-7.16623
-7.18258
-7.19968
-7.21451
-7.2283
-7.24127
-7.25293
-7.26322
-7.27235
-7.28038
-7.28732
-7.29319
-7.29802
-7.30181
-7.30456
-7.30626
-7.3069
-7.30647
-7.305
-7.3025
-7.29906
-7.29481
-7.28997
-7.28492
-7.28019
-7.2766
-7.27525
-7.2776
-7.28541
-7.30056
-7.32474
-7.35892
-7.17201
-7.17801
-7.19139
-7.20642
-7.22011
-7.23295
-7.24517
-7.25637
-7.26641
-7.2754
-7.28341
-7.29044
-7.29649
-7.3016
-7.30577
-7.30901
-7.31132
-7.31272
-7.31323
-7.31289
-7.31177
-7.30999
-7.30773
-7.30528
-7.30302
-7.30151
-7.30151
-7.304
-7.31013
-7.32125
-7.33863
-7.36328
-7.39566
-7.18434
-7.18911
-7.20016
-7.21335
-7.22591
-7.23787
-7.24938
-7.26012
-7.2699
-7.27877
-7.28677
-7.29389
-7.30015
-7.30556
-7.31014
-7.3139
-7.31686
-7.31905
-7.32052
-7.32134
-7.3216
-7.32146
-7.32114
-7.32092
-7.32122
-7.32256
-7.32563
-7.33123
-7.3403
-7.35379
-7.37257
-7.3972
-7.42786
-7.19568
-7.19957
-7.2088
-7.22037
-7.23186
-7.24301
-7.25387
-7.26416
-7.27369
-7.28244
-7.29044
-7.29768
-7.30416
-7.30989
-7.3149
-7.31921
-7.32284
-7.32585
-7.3283
-7.33027
-7.3319
-7.33334
-7.33484
-7.3367
-7.3393
-7.34313
-7.34876
-7.35688
-7.36818
-7.38335
-7.40295
-7.42727
-7.45632
-7.2062
-7.20943
-7.21724
-7.22742
-7.23793
-7.24833
-7.25858
-7.26846
-7.27775
-7.2864
-7.29442
-7.30178
-7.3085
-7.31457
-7.32003
-7.3249
-7.32922
-7.33306
-7.33648
-7.3396
-7.34255
-7.34551
-7.34871
-7.35245
-7.35709
-7.36305
-7.37082
-7.38093
-7.39392
-7.41024
-7.43026
-7.45409
-7.48167
-7.21599
-7.21873
-7.22543
-7.23444
-7.24406
-7.25377
-7.26349
-7.27298
-7.28206
-7.29063
-7.29867
-7.30618
-7.31315
-7.31958
-7.3255
-7.33095
-7.33597
-7.34063
-7.34501
-7.34924
-7.35345
-7.35783
-7.3626
-7.36803
-7.37445
-7.38222
-7.39175
-7.40342
-7.41765
-7.43474
-7.4549
-7.47815
-7.50438
-7.22515
-7.22751
-7.23334
-7.24137
-7.2502
-7.25931
-7.26855
-7.2777
-7.28658
-7.29509
-7.30319
-7.31086
-7.31808
-7.32488
-7.33128
-7.3373
-7.34302
-7.34849
-7.35382
-7.35911
-7.36451
-7.3702
-7.37639
-7.38332
-7.39129
-7.40058
-7.41151
-7.42441
-7.43953
-7.4571
-7.47721
-7.49984
-7.52485
-7.23374
-7.23581
-7.24094
-7.24818
-7.25633
-7.2649
-7.27372
-7.28258
-7.2913
-7.29976
-7.30793
-7.31577
-7.32328
-7.33045
-7.33732
-7.34393
-7.35033
-7.3566
-7.36282
-7.36912
-7.37563
-7.38252
-7.38998
-7.39824
-7.40751
-7.41807
-7.43014
-7.44396
-7.45972
-7.47755
-7.49748
-7.51947
-7.54337
-7.2418
-7.24364
-7.24823
-7.25481
-7.26238
-7.2705
-7.27896
-7.28757
-7.29616
-7.30461
-7.31287
-7.3209
-7.32869
-7.33625
-7.3436
-7.35078
-7.35785
-7.36487
-7.37195
-7.37919
-7.38673
-7.39471
-7.4033
-7.41269
-7.42308
-7.43467
-7.44764
-7.46215
-7.47834
-7.49627
-7.51595
-7.5373
-7.56019
-7.24935
-7.25102
-7.25519
-7.26124
-7.26834
-7.27606
-7.28423
-7.29265
-7.30114
-7.30961
-7.31797
-7.32621
-7.33429
-7.34224
-7.35006
-7.3578
-7.36551
-7.37326
-7.38115
-7.38926
-7.39773
-7.40668
-7.41626
-7.42664
-7.43796
-7.45038
-7.46405
-7.47907
-7.49553
-7.51345
-7.53282
-7.55355
-7.57552
-7.25643
-7.25796
-7.2618
-7.26743
-7.27414
-7.28156
-7.28949
-7.29775
-7.30619
-7.3147
-7.32319
-7.33165
-7.34004
-7.34837
-7.35665
-7.36494
-7.37326
-7.3817
-7.39034
-7.39925
-7.40856
-7.41837
-7.42882
-7.44003
-7.45212
-7.46522
-7.47941
-7.49479
-7.5114
-7.52923
-7.54826
-7.56839
-7.58952
-7.26302
-7.26445
-7.26804
-7.27335
-7.27976
-7.28693
-7.29468
-7.30285
-7.31128
-7.31985
-7.3285
-7.33718
-7.34588
-7.35459
-7.36334
-7.37214
-7.38105
-7.39014
-7.39946
-7.4091
-7.41916
-7.42974
-7.44093
-7.45283
-7.46556
-7.47918
-7.49378
-7.5094
-7.52605
-7.54374
-7.5624
-7.58197
-7.60234
-7.26913
-7.27049
-7.27389
-7.27897
-7.28515
-7.29214
-7.29978
-7.30789
-7.31634
-7.32501
-7.33383
-7.34276
-7.35177
-7.36087
-7.37005
-7.37936
-7.38882
-7.3985
-7.40845
-7.41876
-7.42948
-7.44072
-7.45254
-7.46503
-7.47827
-7.4923
-7.50719
-7.52295
-7.53959
-7.55708
-7.57538
-7.59441
-7.61408
-7.27474
-7.27605
-7.27933
-7.28423
-7.29026
-7.29714
-7.30472
-7.31284
-7.32134
-7.33014
-7.33916
-7.34834
-7.35767
-7.36714
-7.37675
-7.38653
-7.39651
-7.40674
-7.41727
-7.42816
-7.43948
-7.45128
-7.46364
-7.47661
-7.49026
-7.50461
-7.51969
-7.53552
-7.55209
-7.56937
-7.5873
-7.60582
-7.62484
-7.27983
-7.28111
-7.2843
-7.28911
-7.29506
-7.30189
-7.30946
-7.31762
-7.32624
-7.33519
-7.34442
-7.35387
-7.36352
-7.37336
-7.38338
-7.39361
-7.40407
-7.41481
-7.42586
-7.43727
-7.4491
-7.4614
-7.4742
-7.48757
-7.50153
-7.51611
-7.53133
-7.54717
-7.56363
-7.58067
-7.59824
-7.61628
-7.63472
-7.28436
-7.28563
-7.28879
-7.29356
-7.29949
-7.30633
-7.31396
-7.32221
-7.33096
-7.34011
-7.34957
-7.3593
-7.36927
-7.37947
-7.38989
-7.40054
-7.41146
-7.42265
-7.43417
-7.44605
-7.45832
-7.47103
-7.48421
-7.4979
-7.5121
-7.52685
-7.54213
-7.55795
-7.57427
-7.59106
-7.60829
-7.62588
-7.64378
-7.28828
-7.28955
-7.29272
-7.29752
-7.3035
-7.31042
-7.31814
-7.32654
-7.33548
-7.34484
-7.35456
-7.36458
-7.37488
-7.38543
-7.39623
-7.40728
-7.41861
-7.43023
-7.44217
-7.45445
-7.46711
-7.48017
-7.49366
-7.5076
-7.52199
-7.53684
-7.55215
-7.5679
-7.58407
-7.60062
-7.6175
-7.63467
-7.65208
-7.29153
-7.29283
-7.29605
-7.30093
-7.30702
-7.31408
-7.32197
-7.33057
-7.33972
-7.34933
-7.35933
-7.36966
-7.38029
-7.39119
-7.40235
-7.41378
-7.4255
-7.4375
-7.44981
-7.46245
-7.47544
-7.4888
-7.50254
-7.51667
-7.5312
-7.54612
-7.56142
-7.57708
-7.59308
-7.60938
-7.62595
-7.64273
-7.65967
-7.29403
-7.29537
-7.29869
-7.30373
-7.31
-7.31726
-7.32538
-7.33422
-7.34364
-7.35354
-7.36384
-7.37449
-7.38545
-7.39669
-7.40821
-7.42
-7.43207
-7.44442
-7.45706
-7.47002
-7.48329
-7.4969
-7.51084
-7.52512
-7.53974
-7.5547
-7.56996
-7.58552
-7.60135
-7.61741
-7.63367
-7.65009
-7.66661
-7.29569
-7.29709
-7.30056
-7.30582
-7.31236
-7.3199
-7.32832
-7.33746
-7.3472
-7.35742
-7.36804
-7.37902
-7.39032
-7.4019
-7.41376
-7.42589
-7.43829
-7.45095
-7.4639
-7.47712
-7.49064
-7.50445
-7.51856
-7.53296
-7.54764
-7.5626
-7.57781
-7.59326
-7.60891
-7.62474
-7.64071
-7.65679
-7.67293
-7.29637
-7.29786
-7.30156
-7.30713
-7.31403
-7.32193
-7.33072
-7.34023
-7.35033
-7.36091
-7.37189
-7.38322
-7.39486
-7.40678
-7.41897
-7.43142
-7.44412
-7.45707
-7.47028
-7.48375
-7.49748
-7.51146
-7.5257
-7.54019
-7.55491
-7.56985
-7.585
-7.60032
-7.61581
-7.63141
-7.64712
-7.66288
-7.67868
-7.29592
-7.29754
-7.30155
-7.30756
-7.31492
-7.32329
-7.33252
-7.34247
-7.35299
-7.36397
-7.37534
-7.38703
-7.39903
-7.41129
-7.4238
-7.43655
-7.44954
-7.46276
-7.4762
-7.48988
-7.50379
-7.51791
-7.53225
-7.54679
-7.56153
-7.57644
-7.59151
-7.60672
-7.62204
-7.63743
-7.65289
-7.66837
-7.68384
-7.29414
-7.29594
-7.30039
-7.30698
-7.31495
-7.3239
-7.33368
-7.34415
-7.35515
-7.36657
-7.37835
-7.39043
-7.40278
-7.41538
-7.4282
-7.44125
-7.45451
-7.46797
-7.48164
-7.49551
-7.50957
-7.52382
-7.53824
-7.55284
-7.56758
-7.58246
-7.59746
-7.61255
-7.62771
-7.64291
-7.65814
-7.67336
-7.68854
-7.29077
-7.29282
-7.29789
-7.30529
-7.31405
-7.32371
-7.33415
-7.34523
-7.3568
-7.36872
-7.38094
-7.39343
-7.40614
-7.41907
-7.4322
-7.44551
-7.45901
-7.47268
-7.48654
-7.50056
-7.51474
-7.52908
-7.54357
-7.55818
-7.57291
-7.58775
-7.60266
-7.61763
-7.63264
-7.64767
-7.66268
-7.67767
-7.6926
-7.28542
-7.28786
-7.29384
-7.30238
-7.31216
-7.32267
-7.33386
-7.34563
-7.3578
-7.37026
-7.38297
-7.39589
-7.409
-7.42228
-7.43573
-7.44933
-7.46309
-7.47699
-7.49104
-7.50523
-7.51954
-7.53398
-7.54853
-7.56317
-7.5779
-7.5927
-7.60754
-7.62241
-7.63729
-7.65216
-7.66699
-7.68176
-7.69645
-7.27759
-7.28063
-7.28797
-7.29811
-7.30925
-7.32089
-7.3331
-7.34572
-7.35858
-7.37158
-7.38473
-7.39803
-7.41145
-7.425
-7.43867
-7.45247
-7.4664
-7.48045
-7.49461
-7.5089
-7.52329
-7.53778
-7.55235
-7.567
-7.58171
-7.59645
-7.61123
-7.626
-7.64076
-7.65549
-7.67016
-7.68477
-7.69929
-7.26642
-7.27057
-7.28025
-7.29242
-7.30479
-7.31748
-7.33081
-7.34449
-7.35825
-7.37204
-7.38588
-7.39977
-7.41371
-7.4277
-7.44175
-7.45587
-7.47007
-7.48433
-7.49868
-7.51311
-7.5276
-7.54216
-7.55677
-7.57143
-7.58612
-7.60082
-7.61552
-7.6302
-7.64485
-7.65943
-7.67394
-7.68835
-7.70263
-7.25051
-7.25629
-7.27091
-7.28727
-7.30178
-7.31568
-7.32989
-7.34414
-7.35821
-7.37217
-7.38614
-7.40014
-7.41418
-7.42827
-7.44242
-7.45665
-7.47095
-7.48532
-7.49977
-7.51429
-7.52887
-7.5435
-7.55817
-7.57286
-7.58757
-7.60228
-7.61696
-7.63161
-7.64622
-7.66075
-7.6752
-7.68956
-7.70382
-7.22903
-7.23574
-7.25422
-7.27394
-7.29168
-7.30905
-7.32634
-7.34296
-7.35885
-7.37424
-7.38931
-7.40413
-7.41876
-7.43327
-7.44771
-7.46212
-7.47653
-7.49096
-7.50541
-7.5199
-7.53442
-7.54897
-7.56355
-7.57813
-7.59272
-7.60729
-7.62183
-7.63632
-7.65075
-7.66509
-7.67933
-7.69344
-7.70738
-7.19596
-7.2309
-7.25994
-7.27553
-7.28898
-7.30472
-7.32095
-7.33645
-7.35153
-7.36658
-7.38163
-7.39661
-7.41152
-7.42639
-7.44124
-7.45609
-7.47093
-7.48578
-7.50064
-7.5155
-7.53037
-7.54524
-7.56011
-7.57495
-7.58977
-7.60455
-7.61928
-7.63394
-7.64852
-7.66301
-7.67741
-7.69169
-7.70587
-7.05471
-7.16208
-7.2356
-7.26744
-7.29009
-7.31379
-7.33541
-7.35362
-7.3698
-7.38512
-7.39991
-7.41429
-7.42839
-7.44236
-7.4563
-7.47024
-7.48422
-7.49825
-7.51235
-7.52651
-7.54073
-7.555
-7.56931
-7.58364
-7.59798
-7.61231
-7.62661
-7.64088
-7.65507
-7.66919
-7.68322
-7.69712
-7.7109
-6.49758
-6.55237
-7.43495
-7.90975
-7.96407
-7.986
-8.03502
-8.07536
-8.10761
-8.13988
-8.17291
-8.20599
-8.23925
-8.27289
-8.30687
-8.34107
-8.37539
-8.40972
-8.44393
-8.47787
-8.51143
-8.54445
-8.57682
-8.60841
-8.6391
-8.66877
-8.69731
-8.72462
-8.7506
-8.77514
-8.79817
-8.81958
-8.83929
-8.85723
-8.87329
-8.88741
-8.8995
-8.90947
-8.91724
-8.92272
-8.92581
-8.92642
-8.92443
-8.91974
-8.91223
-8.90175
-8.88818
-8.87135
-8.85109
-8.82724
-8.79958
-8.76792
-8.73203
-8.69169
-8.64664
-8.59663
-8.54142
-8.48073
-8.4143
-8.34186
-8.26314
-8.17784
-8.08568
-7.98634
-7.87951
-7.76485
-7.64204
-7.51074
-7.37066
-7.22151
-7.06305
-6.8951
-6.71753
-6.53027
-6.33336
-6.12692
-5.91116
-5.68642
-5.45313
-5.21185
-4.96326
-4.70814
-4.44737
-4.18192
-3.91286
-3.64129
-3.36835
-3.0952
-2.823
-2.55285
-2.2858
-2.0228
-1.76462
-1.51207
-1.26514
-1.02506
-0.788945
-0.562235
-0.329022
-0.120891
-7.06781
-7.2256
-7.56433
-7.83298
-7.90643
-7.94915
-8.00532
-8.05192
-8.08889
-8.12415
-8.15932
-8.19401
-8.22845
-8.26296
-8.29758
-8.33225
-8.3669
-8.40146
-8.43582
-8.46985
-8.50344
-8.53647
-8.56882
-8.60036
-8.63098
-8.66058
-8.68903
-8.71625
-8.74213
-8.76658
-8.7895
-8.8108
-8.83041
-8.84824
-8.86419
-8.87819
-8.89016
-8.90001
-8.90765
-8.913
-8.91595
-8.9164
-8.91426
-8.9094
-8.9017
-8.89104
-8.87726
-8.86022
-8.83975
-8.81565
-8.78776
-8.75584
-8.7197
-8.67908
-8.63376
-8.58349
-8.528
-8.46704
-8.40035
-8.32764
-8.24866
-8.16311
-8.0707
-7.97113
-7.86408
-7.74924
-7.62626
-7.49485
-7.3547
-7.20554
-7.04713
-6.87931
-6.70195
-6.51499
-6.31848
-6.11253
-5.89737
-5.67332
-5.44083
-5.20044
-4.95283
-4.69876
-4.4391
-4.17482
-3.90694
-3.63656
-3.36479
-3.09278
-2.82164
-2.55247
-2.28627
-2.024
-1.76635
-1.51417
-1.26732
-1.02723
-0.790387
-0.563967
-0.327021
-0.126296
-7.07739
-7.26053
-7.49099
-7.74084
-7.86047
-7.92122
-7.97999
-8.03088
-8.07203
-8.10985
-8.14679
-8.18283
-8.21826
-8.25345
-8.28855
-8.32354
-8.35841
-8.39308
-8.42748
-8.46151
-8.49505
-8.52801
-8.56025
-8.59168
-8.62218
-8.65164
-8.67996
-8.70705
-8.73279
-8.7571
-8.77988
-8.80105
-8.82052
-8.83821
-8.85402
-8.86789
-8.87972
-8.88942
-8.89691
-8.9021
-8.90489
-8.90518
-8.90286
-8.89781
-8.88992
-8.87905
-8.86506
-8.84779
-8.82708
-8.80274
-8.77458
-8.7424
-8.70598
-8.66508
-8.61948
-8.56892
-8.51315
-8.45191
-8.38494
-8.31197
-8.23272
-8.14691
-8.05426
-7.95447
-7.84721
-7.73219
-7.60907
-7.47755
-7.33735
-7.18821
-7.02989
-6.86224
-6.68513
-6.49852
-6.30246
-6.09706
-5.88255
-5.65927
-5.42764
-5.18821
-4.94165
-4.6887
-4.43023
-4.16718
-3.90055
-3.63142
-3.36089
-3.09007
-2.82005
-2.5519
-2.28659
-2.02506
-1.76798
-1.51616
-1.26942
-1.02931
-0.791762
-0.565609
-0.325023
-0.131583
-7.10806
-7.29
-7.48941
-7.70131
-7.82595
-7.89481
-7.95596
-8.01054
-8.05557
-8.09587
-8.13446
-8.17174
-8.20807
-8.24387
-8.27936
-8.31461
-8.3496
-8.38432
-8.41869
-8.45264
-8.48608
-8.51889
-8.55098
-8.58225
-8.61257
-8.64186
-8.67
-8.69691
-8.72247
-8.74661
-8.76922
-8.79023
-8.80953
-8.82706
-8.84271
-8.85642
-8.86808
-8.87762
-8.88494
-8.88996
-8.89257
-8.89268
-8.89016
-8.88492
-8.87682
-8.86573
-8.8515
-8.83399
-8.81302
-8.78842
-8.75999
-8.72753
-8.69082
-8.64964
-8.60374
-8.55289
-8.49683
-8.4353
-8.36804
-8.2948
-8.21528
-8.12922
-8.03633
-7.93631
-7.82886
-7.71367
-7.59043
-7.45884
-7.31862
-7.16952
-7.01133
-6.84388
-6.66707
-6.48086
-6.2853
-6.08051
-5.86673
-5.64427
-5.41358
-5.17518
-4.92974
-4.67799
-4.42077
-4.15901
-3.89371
-3.6259
-3.35666
-3.08708
-2.81822
-2.55112
-2.28674
-2.02598
-1.76948
-1.51805
-1.27141
-1.0313
-0.793065
-0.567155
-0.323064
-0.136674
-7.17088
-7.33148
-7.50073
-7.67293
-7.79283
-7.86913
-7.9335
-7.99072
-8.03889
-8.08153
-8.12169
-8.16017
-8.19737
-8.23377
-8.26965
-8.30511
-8.34021
-8.37493
-8.40925
-8.44309
-8.47637
-8.50901
-8.5409
-8.57196
-8.60207
-8.63114
-8.65907
-8.68577
-8.71112
-8.73506
-8.75747
-8.77828
-8.7974
-8.81474
-8.83021
-8.84373
-8.85521
-8.86457
-8.87171
-8.87654
-8.87895
-8.87885
-8.87613
-8.87067
-8.86235
-8.85102
-8.83655
-8.81878
-8.79754
-8.77267
-8.74395
-8.7112
-8.67419
-8.63271
-8.58651
-8.53536
-8.479
-8.41718
-8.34964
-8.27612
-8.19634
-8.11003
-8.01691
-7.91668
-7.80904
-7.6937
-7.57036
-7.43871
-7.2985
-7.14949
-6.99146
-6.82426
-6.6478
-6.46205
-6.26704
-6.06293
-5.84993
-5.62837
-5.39867
-5.16138
-4.91712
-4.66663
-4.41074
-4.15034
-3.88642
-3.61999
-3.35209
-3.0838
-2.81615
-2.55015
-2.28672
-2.02676
-1.77086
-1.51983
-1.27331
-1.03319
-0.794299
-0.568596
-0.32119
-0.141486
-7.23088
-7.36571
-7.50964
-7.65371
-7.76676
-7.84694
-7.91318
-7.97177
-8.0222
-8.06685
-8.10845
-8.14802
-8.18604
-8.22301
-8.25925
-8.29492
-8.33011
-8.36482
-8.39905
-8.43275
-8.46586
-8.49829
-8.52996
-8.56078
-8.59065
-8.61947
-8.64716
-8.67361
-8.69873
-8.72244
-8.74463
-8.76522
-8.78412
-8.80125
-8.81652
-8.82984
-8.84112
-8.85027
-8.85721
-8.86183
-8.86403
-8.86372
-8.86077
-8.85508
-8.84651
-8.83494
-8.82021
-8.80217
-8.78066
-8.75549
-8.72648
-8.69343
-8.65612
-8.61432
-8.56782
-8.51636
-8.4597
-8.39758
-8.32976
-8.25596
-8.17592
-8.08936
-7.99602
-7.89559
-7.78779
-7.67232
-7.54889
-7.41722
-7.27706
-7.12816
-6.97033
-6.80343
-6.62737
-6.44212
-6.24773
-6.04435
-5.83219
-5.61159
-5.38296
-5.14683
-4.90383
-4.65467
-4.40016
-4.14119
-3.87871
-3.6137
-3.3472
-3.08024
-2.81384
-2.54897
-2.28653
-2.02738
-1.7721
-1.52149
-1.2751
-1.03498
-0.795467
-0.569925
-0.319444
-0.145944
-7.28438
-7.39706
-7.52059
-7.64391
-7.74806
-7.82827
-7.89505
-7.95417
-8.00603
-8.05223
-8.095
-8.13548
-8.17421
-8.21168
-8.24824
-8.28409
-8.31933
-8.35401
-8.38814
-8.42168
-8.45458
-8.48678
-8.5182
-8.54875
-8.57835
-8.6069
-8.63432
-8.6605
-8.68536
-8.70881
-8.73075
-8.75109
-8.76976
-8.78666
-8.80169
-8.81479
-8.82585
-8.83478
-8.84149
-8.84589
-8.84787
-8.84732
-8.84413
-8.8382
-8.82937
-8.81753
-8.80253
-8.78421
-8.76241
-8.73694
-8.70763
-8.67426
-8.63664
-8.59453
-8.54771
-8.49593
-8.43897
-8.37655
-8.30844
-8.23437
-8.15407
-8.06728
-7.97372
-7.87311
-7.76516
-7.64959
-7.5261
-7.39444
-7.25435
-7.1056
-6.94802
-6.78146
-6.60584
-6.42115
-6.22743
-6.02484
-5.81359
-5.594
-5.3665
-5.1316
-4.88991
-4.64214
-4.38908
-4.13159
-3.87059
-3.60707
-3.34201
-3.07642
-2.8113
-2.54759
-2.28616
-2.02785
-1.7732
-1.52302
-1.27678
-1.03665
-0.796572
-0.571136
-0.317861
-0.149985
-7.33171
-7.4268
-7.53327
-7.64015
-7.735
-7.81298
-7.8793
-7.9383
-7.99084
-8.03805
-8.08168
-8.12284
-8.16213
-8.2
-8.23681
-8.27279
-8.30805
-8.34266
-8.37665
-8.41
-8.44267
-8.47461
-8.50575
-8.53601
-8.56531
-8.59356
-8.62067
-8.64656
-8.67113
-8.69429
-8.71595
-8.73603
-8.75443
-8.77106
-8.78585
-8.7987
-8.80951
-8.8182
-8.82467
-8.82882
-8.83055
-8.82975
-8.82631
-8.82011
-8.81102
-8.7989
-8.78361
-8.76499
-8.74289
-8.71711
-8.68748
-8.65379
-8.61584
-8.57341
-8.52627
-8.47418
-8.4169
-8.35419
-8.2858
-8.21145
-8.13091
-8.04389
-7.95012
-7.84934
-7.74126
-7.6256
-7.50208
-7.37046
-7.23047
-7.08192
-6.92462
-6.75844
-6.58331
-6.39922
-6.20623
-6.00447
-5.79418
-5.57567
-5.34936
-5.11574
-4.87542
-4.62909
-4.37753
-4.12156
-3.86211
-3.6001
-3.33652
-3.07234
-2.80853
-2.546
-2.28561
-2.02816
-1.77416
-1.52441
-1.27834
-1.03821
-0.797614
-0.572224
-0.316469
-0.153564
-7.37316
-7.45456
-7.54679
-7.6404
-7.72655
-7.80104
-7.866
-7.92429
-7.97686
-8.02457
-8.06873
-8.11036
-8.15003
-8.18818
-8.22516
-8.26119
-8.29642
-8.33093
-8.36475
-8.39787
-8.43029
-8.46194
-8.49277
-8.52271
-8.55168
-8.5796
-8.60638
-8.63194
-8.65619
-8.67903
-8.70039
-8.72017
-8.73828
-8.75463
-8.76914
-8.78171
-8.79226
-8.80068
-8.80688
-8.81077
-8.81223
-8.81116
-8.80744
-8.80096
-8.79157
-8.77916
-8.76357
-8.74465
-8.72222
-8.69612
-8.66616
-8.63215
-8.59386
-8.5511
-8.50363
-8.45122
-8.39363
-8.33062
-8.26194
-8.18733
-8.10654
-8.0193
-7.92534
-7.8244
-7.71621
-7.60048
-7.47696
-7.34539
-7.20554
-7.05721
-6.90023
-6.73448
-6.55989
-6.37644
-6.18422
-5.98335
-5.77407
-5.55668
-5.3316
-5.09932
-4.86042
-4.61558
-4.36555
-4.11116
-3.85328
-3.59283
-3.33076
-3.06802
-2.80554
-2.54423
-2.28488
-2.0283
-1.77497
-1.52566
-1.27978
-1.03965
-0.798596
-0.573188
-0.315286
-0.15665
-7.40946
-7.48023
-7.56075
-7.64347
-7.72174
-7.7921
-7.855
-7.9121
-7.9642
-8.01196
-8.05634
-8.0982
-8.13808
-8.17638
-8.21343
-8.24946
-8.2846
-8.31896
-8.35258
-8.38546
-8.41759
-8.44893
-8.47942
-8.50901
-8.53763
-8.56519
-8.59161
-8.61682
-8.64072
-8.66322
-8.68424
-8.7037
-8.72149
-8.73753
-8.75173
-8.76401
-8.77426
-8.78239
-8.7883
-8.79189
-8.79306
-8.7917
-8.78768
-8.7809
-8.77121
-8.75849
-8.74257
-8.72332
-8.70057
-8.67413
-8.64383
-8.60948
-8.57085
-8.52775
-8.47994
-8.42721
-8.3693
-8.30599
-8.23702
-8.16215
-8.08111
-7.99366
-7.89952
-7.79844
-7.69014
-7.57437
-7.45086
-7.31938
-7.1797
-7.03162
-6.875
-6.7097
-6.53568
-6.35292
-6.16151
-5.96157
-5.75334
-5.53712
-5.31331
-5.0824
-4.84496
-4.60165
-4.3532
-4.10041
-3.84414
-3.58528
-3.32475
-3.06347
-2.80235
-2.54225
-2.28398
-2.02828
-1.77562
-1.52677
-1.28109
-1.04097
-0.799517
-0.574029
-0.314324
-0.159227
-7.4414
-7.50385
-7.5748
-7.64847
-7.71973
-7.78573
-7.84611
-7.90163
-7.95287
-8.0003
-8.04461
-8.08648
-8.1264
-8.16473
-8.20175
-8.2377
-8.27272
-8.30689
-8.34027
-8.37287
-8.40469
-8.43569
-8.46583
-8.49506
-8.5233
-8.55048
-8.57652
-8.60135
-8.62487
-8.64701
-8.66767
-8.68677
-8.70422
-8.71993
-8.7338
-8.74575
-8.75568
-8.76349
-8.76909
-8.77237
-8.77323
-8.77155
-8.76722
-8.76011
-8.7501
-8.73704
-8.72079
-8.7012
-8.6781
-8.65132
-8.62066
-8.58595
-8.54697
-8.50352
-8.45538
-8.40231
-8.34408
-8.28046
-8.21121
-8.13607
-8.0548
-7.96713
-7.87282
-7.77161
-7.66322
-7.54742
-7.42395
-7.29257
-7.15308
-7.00529
-6.84904
-6.68423
-6.51081
-6.32878
-6.13821
-5.93924
-5.73209
-5.51708
-5.29458
-5.06507
-4.82913
-4.58737
-4.34053
-4.08937
-3.83473
-3.57748
-3.3185
-3.0587
-2.79895
-2.54009
-2.2829
-2.02809
-1.77612
-1.52773
-1.28227
-1.04216
-0.800378
-0.574748
-0.313585
-0.161298
-7.46969
-7.52553
-7.58866
-7.65474
-7.71981
-7.7815
-7.8391
-7.89277
-7.94285
-7.98963
-8.03361
-8.07529
-8.11508
-8.1533
-8.19021
-8.22601
-8.26084
-8.29478
-8.32789
-8.3602
-8.39168
-8.42233
-8.4521
-8.48094
-8.50879
-8.53557
-8.56122
-8.58565
-8.60879
-8.63054
-8.65082
-8.66955
-8.68663
-8.70198
-8.7155
-8.7271
-8.73669
-8.74416
-8.74943
-8.75237
-8.75289
-8.75088
-8.74621
-8.73876
-8.72841
-8.715
-8.6984
-8.67845
-8.65499
-8.62784
-8.59682
-8.56175
-8.52241
-8.4786
-8.4301
-8.37669
-8.31814
-8.25422
-8.18467
-8.10927
-8.02776
-7.93989
-7.84541
-7.74407
-7.63561
-7.51979
-7.39637
-7.26512
-7.12584
-6.97835
-6.82251
-6.65822
-6.48542
-6.30414
-6.11444
-5.91646
-5.71043
-5.49664
-5.27548
-5.04741
-4.81297
-4.5728
-4.32758
-4.07807
-3.82508
-3.56945
-3.31205
-3.05373
-2.79536
-2.53775
-2.28164
-2.02773
-1.77646
-1.52854
-1.28332
-1.04322
-0.801177
-0.57535
-0.313064
-0.162878
-7.4949
-7.5454
-7.60212
-7.66183
-7.72145
-7.77904
-7.83373
-7.88538
-7.93406
-7.97995
-8.02336
-8.06466
-8.10418
-8.14218
-8.17888
-8.21445
-8.24904
-8.28271
-8.31552
-8.3475
-8.37864
-8.40892
-8.4383
-8.46675
-8.49419
-8.52056
-8.5458
-8.56982
-8.59255
-8.6139
-8.63379
-8.65212
-8.66882
-8.6838
-8.69695
-8.70819
-8.71741
-8.72453
-8.72944
-8.73203
-8.7322
-8.72984
-8.72481
-8.71701
-8.70629
-8.69252
-8.67555
-8.65523
-8.63139
-8.60387
-8.57248
-8.53702
-8.49731
-8.45314
-8.40429
-8.35053
-8.29165
-8.22741
-8.15758
-8.08191
-8.00016
-7.91209
-7.81745
-7.71599
-7.60747
-7.49164
-7.36829
-7.23718
-7.09812
-6.95095
-6.79554
-6.63178
-6.45964
-6.27912
-6.09031
-5.89335
-5.68845
-5.47591
-5.2561
-5.02948
-4.79657
-4.55799
-4.31441
-4.06656
-3.81523
-3.56123
-3.3054
-3.04858
-2.79159
-2.53523
-2.2802
-2.0272
-1.77663
-1.52919
-1.28423
-1.04416
-0.801912
-0.57584
-0.312748
-0.163996
-7.51751
-7.56363
-7.61505
-7.66939
-7.72423
-7.77798
-7.82978
-7.87929
-7.92642
-7.97122
-8.01388
-8.05463
-8.09373
-8.13139
-8.16779
-8.20308
-8.23736
-8.27072
-8.3032
-8.33483
-8.3656
-8.39549
-8.42448
-8.45252
-8.47955
-8.5055
-8.53032
-8.55393
-8.57624
-8.59717
-8.61665
-8.63459
-8.6509
-8.66548
-8.67825
-8.68911
-8.69796
-8.70471
-8.70925
-8.71147
-8.71128
-8.70854
-8.70315
-8.69497
-8.68388
-8.66973
-8.65238
-8.63168
-8.60746
-8.57955
-8.54777
-8.51194
-8.47185
-8.4273
-8.37808
-8.32398
-8.26476
-8.20021
-8.13008
-8.05415
-7.97216
-7.88389
-7.78909
-7.68752
-7.57894
-7.46312
-7.33984
-7.20888
-7.07007
-6.92323
-6.76825
-6.60504
-6.43357
-6.25384
-6.06593
-5.87
-5.66624
-5.45496
-5.23652
-5.01135
-4.77998
-4.543
-4.30107
-4.05488
-3.80521
-3.55284
-3.29858
-3.04325
-2.78765
-2.53254
-2.2786
-2.0265
-1.77664
-1.52969
-1.285
-1.04497
-0.802581
-0.576222
-0.312617
-0.164689
-7.53787
-7.58037
-7.62739
-7.67715
-7.7278
-7.77802
-7.82702
-7.87436
-7.91983
-7.9634
-8.00514
-8.04521
-8.08377
-8.12099
-8.15699
-8.19192
-8.22585
-8.25885
-8.29097
-8.32222
-8.35261
-8.3821
-8.41068
-8.4383
-8.46491
-8.49044
-8.51483
-8.53801
-8.5599
-8.58042
-8.59948
-8.61701
-8.63291
-8.6471
-8.65947
-8.66994
-8.67841
-8.68477
-8.68893
-8.69078
-8.69021
-8.68709
-8.68132
-8.67276
-8.66129
-8.64675
-8.62902
-8.60792
-8.58331
-8.55501
-8.52284
-8.48661
-8.44614
-8.40121
-8.35163
-8.29717
-8.23762
-8.17274
-8.10232
-8.02612
-7.9439
-7.85544
-7.76048
-7.6588
-7.55017
-7.43436
-7.31116
-7.18037
-7.0418
-6.89531
-6.74078
-6.57813
-6.40733
-6.22839
-6.0414
-5.8465
-5.6439
-5.43388
-5.2168
-4.9931
-4.76327
-4.52789
-4.28759
-4.04306
-3.79504
-3.5443
-3.29161
-3.03777
-2.78355
-2.52968
-2.27683
-2.02563
-1.77648
-1.53003
-1.28563
-1.04565
-0.80318
-0.576503
-0.312648
-0.165005
-7.55631
-7.59575
-7.63907
-7.68495
-7.73192
-7.77892
-7.82525
-7.87042
-7.91418
-7.95642
-7.99714
-8.0364
-8.07431
-8.11098
-8.14652
-8.18102
-8.21454
-8.24715
-8.27887
-8.30972
-8.3397
-8.36878
-8.39694
-8.42413
-8.45031
-8.47541
-8.49937
-8.52212
-8.54358
-8.56367
-8.58232
-8.59943
-8.61492
-8.6287
-8.64067
-8.65075
-8.65882
-8.6648
-8.66857
-8.67003
-8.66907
-8.66557
-8.65941
-8.65047
-8.6386
-8.62368
-8.60554
-8.58405
-8.55904
-8.53034
-8.49777
-8.46115
-8.42029
-8.37499
-8.32503
-8.27022
-8.21033
-8.14514
-8.07442
-7.99795
-7.9155
-7.82684
-7.73173
-7.62995
-7.52128
-7.40548
-7.28237
-7.15175
-7.01344
-6.8673
-6.71323
-6.55114
-6.38102
-6.20288
-6.01681
-5.82294
-5.62149
-5.41274
-5.19703
-4.97478
-4.74648
-4.51269
-4.27402
-4.03115
-3.78477
-3.53564
-3.28451
-3.03215
-2.77929
-2.52666
-2.27489
-2.0246
-1.77616
-1.5302
-1.28611
-1.04619
-0.803704
-0.576689
-0.312815
-0.164994
-7.57307
-7.60991
-7.6501
-7.69264
-7.73638
-7.78046
-7.82427
-7.86734
-7.90937
-7.95022
-7.98982
-8.02819
-8.06536
-8.1014
-8.1364
-8.1704
-8.20347
-8.23564
-8.26693
-8.29735
-8.3269
-8.35555
-8.38328
-8.41004
-8.43578
-8.46044
-8.48396
-8.50628
-8.5273
-8.54697
-8.56519
-8.58188
-8.59696
-8.61033
-8.6219
-8.63157
-8.63925
-8.64483
-8.64821
-8.64928
-8.64793
-8.64404
-8.63749
-8.62815
-8.61589
-8.60057
-8.58204
-8.56015
-8.53473
-8.50563
-8.47267
-8.43565
-8.3944
-8.34872
-8.29839
-8.24322
-8.18299
-8.11748
-8.04648
-7.96975
-7.88707
-7.79821
-7.70296
-7.60108
-7.49236
-7.37659
-7.25357
-7.12312
-6.98508
-6.8393
-6.68569
-6.52417
-6.35473
-6.17739
-5.99224
-5.7994
-5.5991
-5.3916
-5.17725
-4.95644
-4.72967
-4.49745
-4.2604
-4.01916
-3.77441
-3.52688
-3.2773
-3.0264
-2.7749
-2.52349
-2.27279
-2.02339
-1.77567
-1.53022
-1.28645
-1.04661
-0.80415
-0.576785
-0.313087
-0.164708
-7.58835
-7.62295
-7.66047
-7.70013
-7.74102
-7.78247
-7.82392
-7.86497
-7.9053
-7.94473
-7.98316
-8.02055
-8.0569
-8.09226
-8.12664
-8.1601
-8.19266
-8.22435
-8.25518
-8.28515
-8.31425
-8.34245
-8.36973
-8.39605
-8.42134
-8.44556
-8.46865
-8.49052
-8.51111
-8.53035
-8.54814
-8.56441
-8.57907
-8.59203
-8.60319
-8.61246
-8.61974
-8.62492
-8.6279
-8.62858
-8.62684
-8.62255
-8.61561
-8.60587
-8.59321
-8.57749
-8.55856
-8.53627
-8.51046
-8.48095
-8.44759
-8.41018
-8.36854
-8.32248
-8.27179
-8.21626
-8.1557
-8.08988
-8.01858
-7.94159
-7.85868
-7.76964
-7.67424
-7.57227
-7.46352
-7.34778
-7.22486
-7.09459
-6.95681
-6.81139
-6.65824
-6.4973
-6.32854
-6.152
-5.96775
-5.77595
-5.57679
-5.37053
-5.15752
-4.93815
-4.71287
-4.48222
-4.24676
-4.00713
-3.764
-3.51804
-3.26998
-3.02053
-2.77037
-2.52017
-2.27053
-2.02203
-1.77501
-1.53007
-1.28664
-1.0469
-0.804512
-0.576797
-0.313437
-0.164201
-7.60232
-7.63498
-7.67019
-7.70735
-7.74574
-7.7848
-7.82408
-7.8632
-7.90187
-7.93987
-7.97709
-8.01346
-8.04894
-8.08354
-8.11726
-8.15012
-8.18213
-8.2133
-8.24364
-8.27313
-8.30177
-8.32951
-8.35634
-8.3822
-8.40704
-8.43081
-8.45345
-8.47488
-8.49504
-8.51384
-8.53121
-8.54705
-8.56129
-8.57383
-8.58458
-8.59345
-8.60032
-8.6051
-8.60769
-8.60797
-8.60583
-8.60115
-8.59381
-8.58368
-8.57062
-8.5545
-8.53517
-8.51248
-8.48627
-8.45637
-8.42261
-8.38481
-8.34279
-8.29634
-8.24529
-8.18942
-8.12852
-8.06238
-7.9908
-7.91356
-7.83043
-7.7412
-7.64567
-7.54361
-7.43483
-7.31912
-7.19631
-7.06622
-6.92871
-6.78366
-6.63097
-6.47059
-6.30251
-6.12676
-5.94342
-5.75264
-5.5546
-5.34958
-5.13789
-4.91993
-4.69613
-4.46702
-4.23314
-3.9951
-3.75355
-3.50915
-3.26259
-3.01455
-2.76571
-2.51671
-2.26812
-2.0205
-1.77419
-1.52976
-1.28668
-1.04706
-0.804786
-0.576729
-0.313836
-0.163522
-7.61511
-7.64608
-7.67929
-7.71426
-7.75043
-7.78734
-7.82462
-7.86193
-7.89898
-7.93558
-7.97158
-8.0069
-8.04146
-8.07526
-8.10827
-8.14049
-8.17191
-8.20254
-8.23235
-8.26134
-8.28949
-8.31676
-8.34312
-8.36851
-8.3929
-8.41622
-8.43841
-8.4594
-8.47911
-8.49748
-8.51441
-8.52984
-8.54365
-8.55578
-8.56612
-8.57457
-8.58104
-8.58542
-8.58761
-8.5875
-8.58496
-8.57989
-8.57215
-8.56162
-8.54817
-8.53165
-8.51192
-8.48883
-8.46222
-8.43193
-8.39778
-8.35959
-8.31719
-8.27037