/*--------------------------------*- C++ -*----------------------------------*\
| =========                 |                                                 |
| \\      /  F ield         | OpenFOAM: The Open Source CFD Toolbox           |
|  \\    /   O peration     | Version:  4.1                                   |
|   \\  /    A nd           | Web:      www.OpenFOAM.org                      |
|    \\/     M anipulation  |                                                 |
\*---------------------------------------------------------------------------*/
FoamFile
{
    version     2.0;
    format      ascii;
    class       surfaceScalarField;
    location    "1700";
    object      phi;
}
// * * * * * * * * * * * * * * * * * * * * * * * * * * * * * * * * * * * * * //

dimensions      [0 3 -1 0 0 0 0];

internalField   nonuniform List<scalar> 
13452
(
5.98811e-05
3.87334e-07
5.95252e-05
3.55937e-07
5.92696e-05
2.55585e-07
5.90615e-05
2.08068e-07
5.88793e-05
1.82251e-07
5.87167e-05
1.62632e-07
5.85688e-05
1.47864e-07
5.84321e-05
1.36719e-07
5.83044e-05
1.27687e-07
5.81843e-05
1.20051e-07
5.80708e-05
1.13551e-07
5.79628e-05
1.08021e-07
5.78594e-05
1.03318e-07
5.77601e-05
9.93437e-08
5.76641e-05
9.60331e-08
5.75707e-05
9.33478e-08
5.74794e-05
9.12722e-08
5.73896e-05
8.98145e-08
5.73006e-05
8.90096e-08
5.72117e-05
8.89254e-08
5.7122e-05
8.96743e-08
5.70306e-05
9.14332e-08
5.69361e-05
9.44795e-08
5.68369e-05
9.92562e-08
5.67304e-05
1.06502e-07
5.66129e-05
1.17503e-07
5.64781e-05
1.34721e-07
5.63153e-05
1.6286e-07
5.61016e-05
2.13708e-07
5.57939e-05
3.07684e-07
5.52643e-05
5.29563e-07
5.4215e-05
1.04935e-06
1.53825e-06
5.26767e-05
6.20749e-05
3.02761e-07
6.19987e-05
4.3211e-07
6.18517e-05
4.02672e-07
6.16884e-05
3.7129e-07
6.15293e-05
3.41403e-07
6.13798e-05
3.12135e-07
6.12402e-05
2.87431e-07
6.11095e-05
2.67431e-07
6.09864e-05
2.50746e-07
6.087e-05
2.36516e-07
6.07592e-05
2.2431e-07
6.06534e-05
2.13817e-07
6.05519e-05
2.04801e-07
6.04542e-05
1.97098e-07
6.03596e-05
1.90601e-07
6.02677e-05
1.85244e-07
6.0178e-05
1.81002e-07
6.00899e-05
1.77884e-07
6.0003e-05
1.75948e-07
5.99166e-05
1.75301e-07
5.98302e-05
1.76121e-07
5.97429e-05
1.78684e-07
5.9654e-05
1.83415e-07
5.95623e-05
1.90968e-07
5.94664e-05
2.02394e-07
5.93645e-05
2.19383e-07
5.92542e-05
2.45028e-07
5.91328e-05
2.84266e-07
5.89972e-05
3.49327e-07
5.88509e-05
4.53975e-07
5.87172e-05
6.63232e-07
5.87641e-05
1.00246e-06
1.63625e-06
5.86661e-05
6.38373e-05
2.26834e-07
6.38685e-05
4.00966e-07
6.38445e-05
4.26692e-07
6.37851e-05
4.30684e-07
6.37048e-05
4.21708e-07
6.36142e-05
4.02681e-07
6.35198e-05
3.81813e-07
6.34248e-05
3.62428e-07
6.33308e-05
3.44801e-07
6.32384e-05
3.28906e-07
6.31479e-05
3.14752e-07
6.30595e-05
3.02263e-07
6.2973e-05
2.91331e-07
6.28882e-05
2.81872e-07
6.2805e-05
2.73838e-07
6.2723e-05
2.67209e-07
6.2642e-05
2.62001e-07
6.25616e-05
2.5827e-07
6.24814e-05
2.56126e-07
6.2401e-05
2.55741e-07
6.23197e-05
2.5738e-07
6.2237e-05
2.61434e-07
6.21519e-05
2.68483e-07
6.20635e-05
2.79393e-07
6.19704e-05
2.95497e-07
6.18709e-05
3.18845e-07
6.1763e-05
3.52905e-07
6.16445e-05
4.02806e-07
6.15146e-05
4.79237e-07
6.13757e-05
5.92836e-07
6.12583e-05
7.80681e-07
6.12264e-05
1.03433e-06
1.47465e-06
6.1388e-05
6.5637e-05
1.7289e-07
6.56889e-05
3.49049e-07
6.57122e-05
4.03389e-07
6.57127e-05
4.30227e-07
6.56932e-05
4.41244e-07
6.5658e-05
4.37833e-07
6.56121e-05
4.27721e-07
6.5559e-05
4.15496e-07
6.55012e-05
4.02587e-07
6.54404e-05
3.89748e-07
6.53776e-05
3.77551e-07
6.53136e-05
3.66313e-07
6.52487e-05
3.56192e-07
6.51833e-05
3.47291e-07
6.51174e-05
3.39698e-07
6.50511e-05
3.335e-07
6.49843e-05
3.28803e-07
6.49168e-05
3.25742e-07
6.48485e-05
3.24504e-07
6.47789e-05
3.25347e-07
6.47076e-05
3.28626e-07
6.46342e-05
3.34844e-07
6.4558e-05
3.4471e-07
6.44781e-05
3.59244e-07
6.43937e-05
3.79951e-07
6.43035e-05
4.09024e-07
6.42065e-05
4.49885e-07
6.41021e-05
5.07265e-07
6.39919e-05
5.89409e-07
6.38809e-05
7.03857e-07
6.37918e-05
8.6977e-07
6.37499e-05
1.07625e-06
1.36363e-06
6.38609e-05
6.74946e-05
1.35101e-07
6.75432e-05
3.00462e-07
6.75779e-05
3.6861e-07
6.76013e-05
4.06836e-07
6.76127e-05
4.29922e-07
6.76119e-05
4.38596e-07
6.76009e-05
4.38743e-07
6.75815e-05
4.34828e-07
6.75555e-05
4.28605e-07
6.75242e-05
4.21095e-07
6.74886e-05
4.13142e-07
6.74496e-05
4.05326e-07
6.74077e-05
3.98019e-07
6.73635e-05
3.91497e-07
6.73172e-05
3.85988e-07
6.7269e-05
3.81697e-07
6.7219e-05
3.78826e-07
6.71672e-05
3.77604e-07
6.71134e-05
3.78299e-07
6.70575e-05
3.81251e-07
6.69992e-05
3.86903e-07
6.69382e-05
3.95842e-07
6.6874e-05
4.08866e-07
6.68062e-05
4.27074e-07
6.67342e-05
4.52003e-07
6.66574e-05
4.85779e-07
6.65758e-05
5.31447e-07
6.64902e-05
5.92916e-07
6.64037e-05
6.75927e-07
6.63224e-05
7.85134e-07
6.62633e-05
9.289e-07
6.62421e-05
1.09745e-06
1.2961e-06
6.63096e-05
6.94108e-05
1.08307e-07
6.9452e-05
2.5932e-07
6.94866e-05
3.33952e-07
6.95155e-05
3.77936e-07
6.95381e-05
4.07332e-07
6.95532e-05
4.23504e-07
6.95611e-05
4.30882e-07
6.95624e-05
4.33511e-07
6.95578e-05
4.33184e-07
6.9548e-05
4.30916e-07
6.95335e-05
4.27576e-07
6.95151e-05
4.23823e-07
6.94929e-05
4.20124e-07
6.94676e-05
4.16846e-07
6.94393e-05
4.14303e-07
6.94082e-05
4.12781e-07
6.93745e-05
4.12559e-07
6.93381e-05
4.13936e-07
6.92992e-05
4.17247e-07
6.92575e-05
4.22897e-07
6.92131e-05
4.31388e-07
6.91655e-05
4.43359e-07
6.91148e-05
4.59644e-07
6.90605e-05
4.8134e-07
6.90026e-05
5.09899e-07
6.89412e-05
5.47219e-07
6.88768e-05
5.95784e-07
6.88112e-05
6.58517e-07
6.87481e-05
7.39008e-07
6.86937e-05
8.39555e-07
6.86601e-05
9.62498e-07
6.86579e-05
1.09965e-06
1.24523e-06
6.87088e-05
7.13857e-05
8.89852e-08
7.14198e-05
2.25201e-07
7.14515e-05
3.02224e-07
7.148e-05
3.49478e-07
7.1505e-05
3.82272e-07
7.15256e-05
4.02954e-07
7.15414e-05
4.1503e-07
7.15528e-05
4.22138e-07
7.15599e-05
4.26117e-07
7.15628e-05
4.27964e-07
7.15619e-05
4.28506e-07
7.15573e-05
4.284e-07
7.15493e-05
4.28132e-07
7.1538e-05
4.28096e-07
7.15237e-05
4.2864e-07
7.15064e-05
4.30086e-07
7.14862e-05
4.32755e-07
7.14632e-05
4.36984e-07
7.14373e-05
4.43148e-07
7.14085e-05
4.51686e-07
7.13767e-05
4.63126e-07
7.1342e-05
4.78119e-07
7.13041e-05
4.9748e-07
7.12632e-05
5.22231e-07
7.12195e-05
5.53658e-07
7.11734e-05
5.93327e-07
7.11261e-05
6.43109e-07
7.10796e-05
7.0497e-07
7.10378e-05
7.80844e-07
7.1006e-05
8.71344e-07
7.09927e-05
9.7581e-07
7.10048e-05
1.08751e-06
1.19854e-06
7.10515e-05
7.34195e-05
7.47527e-08
7.34477e-05
1.97001e-07
7.34761e-05
2.73791e-07
7.35027e-05
3.2295e-07
7.35272e-05
3.57769e-07
7.35488e-05
3.81362e-07
7.35672e-05
3.96639e-07
7.35825e-05
4.06839e-07
7.35947e-05
4.13848e-07
7.3604e-05
4.18694e-07
7.36103e-05
4.22184e-07
7.36137e-05
4.24966e-07
7.36143e-05
4.27532e-07
7.36122e-05
4.30281e-07
7.36072e-05
4.33569e-07
7.35996e-05
4.37729e-07
7.35892e-05
4.43098e-07
7.35762e-05
4.50024e-07
7.35605e-05
4.58896e-07
7.3542e-05
4.70157e-07
7.35208e-05
4.84328e-07
7.34969e-05
5.02034e-07
7.34703e-05
5.24023e-07
7.34414e-05
5.51193e-07
7.34104e-05
5.84608e-07
7.33783e-05
6.25467e-07
7.33463e-05
6.75055e-07
7.33168e-05
7.3452e-07
7.3293e-05
8.04621e-07
7.32794e-05
8.84906e-07
7.32818e-05
9.73425e-07
7.33046e-05
1.0647e-06
1.15165e-06
7.33515e-05
7.55132e-05
6.40163e-08
7.55366e-05
1.73646e-07
7.55619e-05
2.48461e-07
7.55863e-05
2.98521e-07
7.56095e-05
3.34608e-07
7.56306e-05
3.60224e-07
7.56494e-05
3.77877e-07
7.56658e-05
3.90399e-07
7.568e-05
3.9967e-07
7.56919e-05
4.06769e-07
7.57016e-05
4.12501e-07
7.57091e-05
4.17519e-07
7.57143e-05
4.22325e-07
7.57172e-05
4.27326e-07
7.57179e-05
4.32881e-07
7.57163e-05
4.39329e-07
7.57124e-05
4.47005e-07
7.57062e-05
4.56259e-07
7.56976e-05
4.6747e-07
7.56867e-05
4.81066e-07
7.56735e-05
4.97537e-07
7.56581e-05
5.17447e-07
7.56406e-05
5.41449e-07
7.56215e-05
5.70285e-07
7.56014e-05
6.04774e-07
7.55811e-05
6.4576e-07
7.55621e-05
6.94019e-07
7.55466e-05
7.5006e-07
7.55373e-05
8.1387e-07
7.55378e-05
8.84406e-07
7.55519e-05
9.59329e-07
7.55824e-05
1.03423e-06
1.10356e-06
7.56305e-05
7.76679e-05
5.5712e-08
7.76873e-05
1.54198e-07
7.77099e-05
2.25938e-07
7.77323e-05
2.76065e-07
7.7754e-05
3.12885e-07
7.77743e-05
3.39933e-07
7.77928e-05
3.59438e-07
7.78093e-05
3.73841e-07
7.7824e-05
3.84946e-07
7.78369e-05
3.93864e-07
7.7848e-05
4.01406e-07
7.78573e-05
4.08228e-07
7.78648e-05
4.14844e-07
7.78705e-05
4.21674e-07
7.78743e-05
4.29081e-07
7.78762e-05
4.37406e-07
7.78762e-05
4.4698e-07
7.78743e-05
4.58143e-07
7.78705e-05
4.71259e-07
7.78649e-05
4.86724e-07
7.78574e-05
5.04977e-07
7.78484e-05
5.26508e-07
7.7838e-05
5.51854e-07
7.78267e-05
5.8159e-07
7.78152e-05
6.16297e-07
7.78044e-05
6.56501e-07
7.77959e-05
7.02572e-07
7.77914e-05
7.54555e-07
7.77933e-05
8.11971e-07
7.78041e-05
8.73518e-07
7.78266e-05
9.36906e-07
7.78622e-05
9.98645e-07
1.05458e-06
7.79111e-05
7.98849e-05
4.91246e-08
7.99012e-05
1.37872e-07
7.99213e-05
2.05908e-07
7.99419e-05
2.55411e-07
7.99623e-05
2.92518e-07
7.99817e-05
3.20541e-07
7.99996e-05
3.41492e-07
8.0016e-05
3.5746e-07
8.00308e-05
3.70128e-07
8.00441e-05
3.80602e-07
8.00558e-05
3.89692e-07
8.0066e-05
3.98051e-07
8.00746e-05
4.06201e-07
8.00817e-05
4.14567e-07
8.00873e-05
4.2352e-07
8.00913e-05
4.33396e-07
8.00937e-05
4.44522e-07
8.00947e-05
4.57223e-07
8.00941e-05
4.71836e-07
8.00921e-05
4.88718e-07
8.00888e-05
5.0825e-07
8.00845e-05
5.30836e-07
8.00795e-05
5.56894e-07
8.00742e-05
5.86837e-07
8.00695e-05
6.21032e-07
8.00662e-05
6.59741e-07
8.00658e-05
7.03027e-07
8.00697e-05
7.5063e-07
8.00799e-05
8.01822e-07
8.00981e-05
8.5525e-07
8.01262e-05
9.08866e-07
8.01649e-05
9.59938e-07
1.00542e-06
8.0214e-05
8.21658e-05
4.37694e-08
8.21796e-05
1.24028e-07
8.21975e-05
1.88063e-07
8.22165e-05
2.36391e-07
8.22356e-05
2.73393e-07
8.22542e-05
3.02004e-07
8.22716e-05
3.24045e-07
8.22878e-05
3.41306e-07
8.23026e-05
3.55316e-07
8.2316e-05
3.67151e-07
8.23281e-05
3.77604e-07
8.23389e-05
3.87317e-07
8.23482e-05
3.96811e-07
8.23563e-05
4.06511e-07
8.2363e-05
4.16785e-07
8.23685e-05
4.27966e-07
8.23726e-05
4.40368e-07
8.23755e-05
4.54296e-07
8.23773e-05
4.70057e-07
8.23781e-05
4.87962e-07
8.2378e-05
5.08328e-07
8.23774e-05
5.31473e-07
8.23766e-05
5.57701e-07
8.23761e-05
5.87276e-07
8.23768e-05
6.20387e-07
8.23794e-05
6.5709e-07
8.23852e-05
6.97235e-07
8.23955e-05
7.40377e-07
8.24116e-05
7.85688e-07
8.2435e-05
8.31885e-07
8.24666e-05
8.77225e-07
8.25069e-05
9.19588e-07
9.56771e-07
8.25556e-05
8.45122e-05
3.93143e-08
8.45241e-05
1.12151e-07
8.45401e-05
1.72106e-07
8.45576e-05
2.1884e-07
8.45756e-05
2.55392e-07
8.45934e-05
2.84254e-07
8.46103e-05
3.07063e-07
8.46263e-05
3.25357e-07
8.46411e-05
3.40501e-07
8.46547e-05
3.53518e-07
8.46672e-05
3.65174e-07
8.46784e-05
3.76089e-07
8.46884e-05
3.86771e-07
8.46973e-05
3.9764e-07
8.4705e-05
4.09057e-07
8.47117e-05
4.21343e-07
8.47172e-05
4.34793e-07
8.47218e-05
4.49688e-07
8.47256e-05
4.663e-07
8.47287e-05
4.84892e-07
8.47313e-05
5.05716e-07
8.47338e-05
5.29008e-07
8.47365e-05
5.54965e-07
8.474e-05
5.83729e-07
8.47451e-05
6.15344e-07
8.47525e-05
6.49716e-07
8.47631e-05
6.8656e-07
8.47782e-05
7.25338e-07
8.47986e-05
7.65215e-07
8.48255e-05
8.0504e-07
8.48593e-05
8.43372e-07
8.49003e-05
8.78581e-07
9.09073e-07
8.4948e-05
8.6926e-05
3.55277e-08
8.69363e-05
1.01832e-07
8.69506e-05
1.57757e-07
8.69669e-05
2.02592e-07
8.69839e-05
2.38394e-07
8.70009e-05
2.67211e-07
8.70175e-05
2.90495e-07
8.70333e-05
3.0957e-07
8.70481e-05
3.25643e-07
8.7062e-05
3.39665e-07
8.70748e-05
3.52364e-07
8.70865e-05
3.64331e-07
8.70973e-05
3.76055e-07
8.7107e-05
3.87943e-07
8.71157e-05
4.00339e-07
8.71235e-05
4.13548e-07
8.71304e-05
4.27844e-07
8.71366e-05
4.43478e-07
8.71422e-05
4.60684e-07
8.71475e-05
4.79675e-07
8.71525e-05
5.00643e-07
8.71578e-05
5.23745e-07
8.71637e-05
5.49091e-07
8.71707e-05
5.76717e-07
8.71795e-05
6.06564e-07
8.71907e-05
6.38436e-07
8.72053e-05
6.71969e-07
8.72241e-05
7.06599e-07
8.72477e-05
7.4154e-07
8.7277e-05
7.75795e-07
8.73122e-05
8.08195e-07
8.73533e-05
8.37497e-07
8.62549e-07
8.73998e-05
8.94088e-05
3.22452e-08
8.94179e-05
9.27438e-08
8.94309e-05
1.44762e-07
8.9446e-05
1.87485e-07
8.94621e-05
2.22281e-07
8.94785e-05
2.5079e-07
8.94948e-05
2.74281e-07
8.95104e-05
2.93896e-07
8.95254e-05
3.10692e-07
8.95395e-05
3.25538e-07
8.95528e-05
3.39117e-07
8.95651e-05
3.51983e-07
8.95766e-05
3.646e-07
8.95871e-05
3.77354e-07
8.95969e-05
3.9057e-07
8.96059e-05
4.04529e-07
8.96143e-05
4.19482e-07
8.96221e-05
4.35646e-07
8.96296e-05
4.53215e-07
8.96369e-05
4.72357e-07
8.96444e-05
4.93205e-07
8.96523e-05
5.15849e-07
8.9661e-05
5.40323e-07
8.96711e-05
5.66589e-07
8.96832e-05
5.94508e-07
8.96978e-05
6.23826e-07
8.97156e-05
6.54146e-07
8.97373e-05
6.84916e-07
8.97634e-05
7.15429e-07
8.97944e-05
7.44844e-07
8.98303e-05
7.72228e-07
8.98712e-05
7.96634e-07
8.17234e-07
8.99165e-05
9.19628e-05
2.93467e-08
9.19709e-05
8.46271e-08
9.19827e-05
1.32891e-07
9.19969e-05
1.73358e-07
9.20122e-05
2.0693e-07
9.20281e-05
2.34899e-07
9.2044e-05
2.58353e-07
9.20597e-05
2.78278e-07
9.20748e-05
2.95594e-07
9.20892e-05
3.11081e-07
9.2103e-05
3.25371e-07
9.2116e-05
3.38979e-07
9.21282e-05
3.52336e-07
9.21398e-05
3.65801e-07
9.21507e-05
3.79675e-07
9.2161e-05
3.94217e-07
9.21708e-05
4.09643e-07
9.21803e-05
4.26143e-07
9.21897e-05
4.4387e-07
9.21991e-05
4.62946e-07
9.22088e-05
4.83453e-07
9.22193e-05
5.05426e-07
9.22307e-05
5.28842e-07
9.22437e-05
5.53602e-07
9.22587e-05
5.79523e-07
9.22762e-05
6.06318e-07
9.22968e-05
6.33589e-07
9.23209e-05
6.60823e-07
9.23489e-05
6.87403e-07
9.23811e-05
7.12632e-07
9.24176e-05
7.35774e-07
9.24581e-05
7.56112e-07
7.73052e-07
9.25023e-05
9.45898e-05
2.67424e-08
9.45971e-05
7.72731e-08
9.46081e-05
1.21937e-07
9.46214e-05
1.60055e-07
9.46361e-05
1.9222e-07
9.46515e-05
2.1944e-07
9.46673e-05
2.42634e-07
9.46829e-05
2.62651e-07
9.46982e-05
2.80287e-07
9.4713e-05
2.96234e-07
9.47273e-05
3.11065e-07
9.47411e-05
3.25253e-07
9.47542e-05
3.39192e-07
9.47668e-05
3.53212e-07
9.47789e-05
3.67586e-07
9.47906e-05
3.82542e-07
9.48019e-05
3.98271e-07
9.48132e-05
4.14925e-07
9.48244e-05
4.32624e-07
9.48359e-05
4.51447e-07
9.48479e-05
4.71435e-07
9.48608e-05
4.92575e-07
9.48748e-05
5.14801e-07
9.48904e-05
5.37978e-07
9.49081e-05
5.61894e-07
9.49281e-05
5.86255e-07
9.4951e-05
6.10682e-07
9.49771e-05
6.34715e-07
9.50067e-05
6.57826e-07
9.50399e-05
6.79448e-07
9.50767e-05
6.99003e-07
9.51168e-05
7.15954e-07
7.29875e-07
9.516e-05
9.72919e-05
2.43633e-08
9.72987e-05
7.05124e-08
9.73089e-05
1.11718e-07
9.73215e-05
1.47423e-07
9.73357e-05
1.78028e-07
9.73508e-05
2.0431e-07
9.73664e-05
2.27041e-07
9.73821e-05
2.46945e-07
9.73977e-05
2.64706e-07
9.7413e-05
2.80932e-07
9.74279e-05
2.96135e-07
9.74425e-05
3.1074e-07
9.74565e-05
3.25104e-07
9.74702e-05
3.39522e-07
9.74836e-05
3.54237e-07
9.74967e-05
3.69449e-07
9.75096e-05
3.85317e-07
9.75226e-05
4.01962e-07
9.75357e-05
4.19468e-07
9.75493e-05
4.37882e-07
9.75635e-05
4.57205e-07
9.75787e-05
4.77394e-07
9.75952e-05
4.98349e-07
9.76132e-05
5.19914e-07
9.76333e-05
5.41867e-07
9.76556e-05
5.63923e-07
9.76805e-05
5.85732e-07
9.77084e-05
6.06892e-07
9.77392e-05
6.26962e-07
9.77732e-05
6.45483e-07
9.78102e-05
6.62008e-07
9.785e-05
6.76135e-07
6.87562e-07
9.78923e-05
0.000100071
2.21545e-08
0.000100078
6.42049e-08
0.000100087
1.0207e-07
0.000100099
1.35318e-07
0.000100113
1.64228e-07
0.000100128
1.89403e-07
0.000100144
2.11483e-07
0.000100159
2.31081e-07
0.000100175
2.4878e-07
0.000100191
2.65108e-07
0.000100207
2.80515e-07
0.000100222
2.95376e-07
0.000100237
3.10008e-07
0.000100252
3.24671e-07
0.000100267
3.39576e-07
0.000100281
3.54892e-07
0.000100296
3.70747e-07
0.000100311
3.87235e-07
0.000100326
4.04408e-07
0.000100341
4.22282e-07
0.000100358
4.40832e-07
0.000100375
4.59988e-07
0.000100394
4.79632e-07
0.000100414
4.99597e-07
0.000100436
5.19665e-07
0.000100461
5.39566e-07
0.000100487
5.58991e-07
0.000100517
5.77593e-07
0.000100549
5.95008e-07
0.000100583
6.1087e-07
0.00010062
6.24837e-07
0.00010066
6.36607e-07
6.45973e-07
0.000100702
0.00010293
2.0071e-08
0.000102936
5.82324e-08
0.000102945
9.28459e-08
0.000102957
1.23598e-07
0.000102971
1.50695e-07
0.000102985
1.74608e-07
0.000103001
1.95863e-07
0.000103017
2.14973e-07
0.000103033
2.32433e-07
0.00010305
2.48691e-07
0.000103066
2.64137e-07
0.000103083
2.79098e-07
0.000103099
2.93846e-07
0.000103115
3.08605e-07
0.000103131
3.23555e-07
0.000103147
3.38833e-07
0.000103163
3.5454e-07
0.00010318
3.7074e-07
0.000103196
3.8746e-07
0.000103214
4.04693e-07
0.000103233
4.22391e-07
0.000103252
4.40466e-07
0.000103273
4.58792e-07
0.000103295
4.77201e-07
0.000103319
4.95483e-07
0.000103346
5.13396e-07
0.000103374
5.30667e-07
0.000103405
5.47005e-07
0.000103437
5.62113e-07
0.000103473
5.75702e-07
0.00010351
5.87512e-07
0.000103549
5.97319e-07
6.04984e-07
0.00010359
0.000105871
1.80749e-08
0.000105876
5.24929e-08
0.000105885
8.39135e-08
0.000105897
1.12128e-07
0.00010591
1.37303e-07
0.000105925
1.59811e-07
0.000105941
1.80077e-07
0.000105957
1.9853e-07
0.000105974
2.1558e-07
0.000105991
2.31605e-07
0.000106008
2.46933e-07
0.000106026
2.6184e-07
0.000106043
2.76558e-07
0.00010606
2.91274e-07
0.000106078
3.06133e-07
0.000106095
3.21244e-07
0.000106113
3.36681e-07
0.000106131
3.52483e-07
0.00010615
3.68655e-07
0.00010617
3.85168e-07
0.00010619
4.01961e-07
0.000106212
4.18937e-07
0.000106235
4.35965e-07
0.000106259
4.52882e-07
0.000106285
4.69497e-07
0.000106313
4.85592e-07
0.000106342
5.00934e-07
0.000106374
5.15281e-07
0.000106408
5.28392e-07
0.000106443
5.40044e-07
0.000106481
5.50039e-07
0.00010652
5.58215e-07
5.6448e-07
0.000106561
0.000108895
1.6133e-08
0.000108901
4.68959e-08
0.00010891
7.51489e-08
0.000108921
1.00777e-07
0.000108934
1.23925e-07
0.000108949
1.44891e-07
0.000108965
1.64017e-07
0.000108982
1.81653e-07
0.000109
1.98134e-07
0.000109018
2.13769e-07
0.000109036
2.28828e-07
0.000109054
2.43539e-07
0.000109072
2.5809e-07
0.000109091
2.72631e-07
0.00010911
2.87276e-07
0.000109129
3.02105e-07
0.000109149
3.17167e-07
0.000109169
3.32478e-07
0.000109189
3.48025e-07
0.000109211
3.63765e-07
0.000109233
3.79626e-07
0.000109256
3.95506e-07
0.000109281
4.11276e-07
0.000109307
4.26785e-07
0.000109335
4.41858e-07
0.000109364
4.56307e-07
0.000109395
4.69934e-07
0.000109428
4.82539e-07
0.000109462
4.93932e-07
0.000109498
5.03939e-07
0.000109536
5.12414e-07
0.000109575
5.1924e-07
5.2436e-07
0.000109615
0.000112006
1.42155e-08
0.000112012
4.13581e-08
0.000112021
6.64351e-08
0.000112032
8.94136e-08
0.000112046
1.10431e-07
0.000112061
1.29724e-07
0.000112077
1.47567e-07
0.000112095
1.64236e-07
0.000112113
1.79999e-07
0.000112131
1.95098e-07
0.00011215
2.09749e-07
0.00011217
2.24129e-07
0.00011219
2.38386e-07
0.00011221
2.52634e-07
0.00011223
2.66954e-07
0.000112251
2.814e-07
0.000112272
2.95997e-07
0.000112293
3.10744e-07
0.000112316
3.25611e-07
0.000112339
3.40544e-07
0.000112363
3.55465e-07
0.000112389
3.70272e-07
0.000112415
3.84843e-07
0.000112443
3.99037e-07
0.000112472
4.127e-07
0.000112502
4.2567e-07
0.000112535
4.37781e-07
0.000112568
4.48873e-07
0.000112603
4.58795e-07
0.00011264
4.67414e-07
0.000112678
4.74623e-07
0.000112717
4.8034e-07
4.84534e-07
0.000112756
0.000115206
1.2294e-08
0.000115212
3.58004e-08
0.000115221
5.7658e-08
0.000115232
7.79076e-08
0.000115246
9.66845e-08
0.000115262
1.1418e-07
0.000115278
1.30603e-07
0.000115297
1.46167e-07
0.000115315
1.61072e-07
0.000115335
1.75502e-07
0.000115355
1.89615e-07
0.000115376
2.03543e-07
0.000115397
2.17392e-07
0.000115418
2.31239e-07
0.00011544
2.45137e-07
0.000115462
2.59115e-07
0.000115485
2.73177e-07
0.000115509
2.87303e-07
0.000115533
3.01453e-07
0.000115558
3.15565e-07
0.000115584
3.29557e-07
0.000115611
3.43329e-07
0.000115639
3.56769e-07
0.000115668
3.69748e-07
0.000115698
3.82133e-07
0.00011573
3.93786e-07
0.000115764
4.0457e-07
0.000115798
4.14356e-07
0.000115834
4.23027e-07
0.000115871
4.30483e-07
0.000115909
4.36646e-07
0.000115948
4.41462e-07
4.44917e-07
0.000115987
0.000118498
1.03406e-08
0.000118503
3.01442e-08
0.000118512
4.87024e-08
0.000118524
6.61236e-08
0.000118538
8.25454e-08
0.000118554
9.81179e-08
0.000118572
1.12994e-07
0.000118591
1.27323e-07
0.000118611
1.41245e-07
0.000118631
1.54883e-07
0.000118653
1.68343e-07
0.000118674
1.81711e-07
0.000118697
1.9505e-07
0.00011872
2.08405e-07
0.000118743
2.21801e-07
0.000118767
2.35242e-07
0.000118791
2.48712e-07
0.000118816
2.62179e-07
0.000118842
2.75592e-07
0.000118869
2.88883e-07
0.000118897
3.0197e-07
0.000118925
3.1476e-07
0.000118955
3.27146e-07
0.000118985
3.39015e-07
0.000119017
3.50253e-07
0.00011905
3.60743e-07
0.000119085
3.70373e-07
0.00011912
3.79042e-07
0.000119156
3.86658e-07
0.000119194
3.93148e-07
0.000119232
3.98458e-07
0.000119271
4.02553e-07
4.05432e-07
0.00011931
0.000121883
8.32647e-09
0.000121889
2.43076e-08
0.000121898
3.94467e-08
0.000121911
5.39174e-08
0.000121925
6.78605e-08
0.000121942
8.13872e-08
0.00012196
9.45948e-08
0.00012198
1.07572e-07
0.000122001
1.20397e-07
0.000122023
1.33137e-07
0.000122045
1.45844e-07
0.000122068
1.58557e-07
0.000122092
1.71302e-07
0.000122116
1.8409e-07
0.000122141
1.96918e-07
0.000122167
2.09768e-07
0.000122193
2.22608e-07
0.00012222
2.35393e-07
0.000122247
2.48063e-07
0.000122276
2.6055e-07
0.000122305
2.7277e-07
0.000122335
2.84636e-07
0.000122366
2.96052e-07
0.000122398
3.06918e-07
0.000122431
3.17136e-07
0.000122465
3.26608e-07
0.0001225
3.35246e-07
0.000122537
3.42968e-07
0.000122574
3.49705e-07
0.000122611
3.55405e-07
0.00012265
3.6003e-07
0.000122689
3.63561e-07
3.66005e-07
0.000122728
0.000125366
6.22005e-09
0.000125372
1.82009e-08
0.000125381
2.97575e-08
0.000125394
4.113e-08
0.00012541
5.2461e-08
0.000125427
6.38204e-08
0.000125446
7.5247e-08
0.000125467
8.67678e-08
0.000125489
9.83999e-08
0.000125512
1.10151e-07
0.000125536
1.22021e-07
0.000125561
1.34004e-07
0.000125586
1.46087e-07
0.000125612
1.58248e-07
0.000125638
1.7046e-07
0.000125665
1.82682e-07
0.000125693
1.94869e-07
0.000125721
2.06964e-07
0.000125751
2.18902e-07
0.00012578
2.30611e-07
0.000125811
2.42012e-07
0.000125843
2.53021e-07
0.000125875
2.63554e-07
0.000125909
2.73522e-07
0.000125943
2.82843e-07
0.000125978
2.91435e-07
0.000126014
2.99228e-07
0.000126051
3.06158e-07
0.000126089
3.12174e-07
0.000126127
3.17238e-07
0.000126165
3.21328e-07
0.000126205
3.24433e-07
3.26568e-07
0.000126244
0.000128947
3.98487e-09
0.000128954
1.172e-08
0.000128964
1.94808e-08
0.000128978
2.7579e-08
0.000128994
3.61551e-08
0.000129013
4.52285e-08
0.000129033
5.47725e-08
0.000129055
6.47479e-08
0.000129078
7.5108e-08
0.000129103
8.57999e-08
0.000129128
9.677e-08
0.000129154
1.07966e-07
0.000129181
1.19337e-07
0.000129208
1.30831e-07
0.000129236
1.42395e-07
0.000129265
1.5397e-07
0.000129294
1.65496e-07
0.000129324
1.76907e-07
0.000129355
1.88134e-07
0.000129387
1.99104e-07
0.000129419
2.0974e-07
0.000129452
2.19966e-07
0.000129486
2.29703e-07
0.00012952
2.38878e-07
0.000129556
2.47419e-07
0.000129592
2.5526e-07
0.000129629
2.62344e-07
0.000129666
2.68623e-07
0.000129705
2.74059e-07
0.000129743
2.78627e-07
0.000129782
2.82313e-07
0.000129822
2.85114e-07
2.87051e-07
0.000129861
0.000132631
1.57635e-09
0.000132638
4.73809e-09
0.00013265
8.42987e-09
0.000132664
1.30468e-08
0.000132681
1.87175e-08
0.000132701
2.53928e-08
0.000132723
3.29673e-08
0.000132747
4.13286e-08
0.000132771
5.03605e-08
0.000132797
5.99457e-08
0.000132824
6.99746e-08
0.000132852
8.03488e-08
0.00013288
9.09796e-08
0.000132909
1.01785e-07
0.000132939
1.12687e-07
0.000132969
1.23611e-07
0.000133
1.34483e-07
0.000133032
1.45231e-07
0.000133064
1.5578e-07
0.000133097
1.66057e-07
0.000133131
1.75991e-07
0.000133165
1.85508e-07
0.0001332
1.94541e-07
0.000133236
2.03024e-07
0.000133273
2.10898e-07
0.00013331
2.18108e-07
0.000133348
2.24609e-07
0.000133386
2.30364e-07
0.000133425
2.35348e-07
0.000133464
2.39542e-07
0.000133503
2.42942e-07
0.000133543
2.45548e-07
2.47384e-07
0.000133582
0.000136421
-1.06317e-09
0.000136429
-2.90899e-09
0.000136441
-3.6319e-09
0.000136456
-2.73518e-09
0.000136475
-1.22747e-10
0.000136497
4.05525e-09
0.00013652
9.59457e-09
0.000136545
1.62992e-08
0.000136571
2.39753e-08
0.000136599
3.24346e-08
0.000136627
4.15081e-08
0.000136657
5.10501e-08
0.000136687
6.09345e-08
0.000136717
7.10497e-08
0.000136749
8.12956e-08
0.000136781
9.1581e-08
0.000136814
1.01821e-07
0.000136847
1.11937e-07
0.000136881
1.21851e-07
0.000136915
1.31491e-07
0.000136951
1.40788e-07
0.000136986
1.49676e-07
0.000137023
1.58093e-07
0.00013706
1.65983e-07
0.000137097
1.73295e-07
0.000137136
1.79986e-07
0.000137174
1.8602e-07
0.000137213
1.91369e-07
0.000137252
1.96015e-07
0.000137292
1.99948e-07
0.000137332
2.03166e-07
0.000137372
2.05677e-07
2.07503e-07
0.000137412
0.000140319
-4.01253e-09
0.000140327
-1.14449e-08
0.000140341
-1.70193e-08
0.000140358
-2.01109e-08
0.000140379
-2.07003e-08
0.000140402
-1.90946e-08
0.000140427
-1.56253e-08
0.000140454
-1.05848e-08
0.000140482
-4.2562e-09
0.000140511
3.09206e-09
0.000140542
1.12271e-08
0.000140573
1.99552e-08
0.000140605
2.91126e-08
0.000140637
3.85593e-08
0.00014067
4.81738e-08
0.000140704
5.78503e-08
0.000140738
6.74946e-08
0.000140773
7.70214e-08
0.000140809
8.63529e-08
0.000140845
9.54172e-08
0.000140881
1.04148e-07
0.000140919
1.12486e-07
0.000140956
1.20375e-07
0.000140995
1.27766e-07
0.000141033
1.34617e-07
0.000141072
1.40893e-07
0.000141112
1.46565e-07
0.000141152
1.51614e-07
0.000141192
1.56026e-07
0.000141232
1.59797e-07
0.000141272
1.62928e-07
0.000141312
1.65428e-07
1.67319e-07
0.000141352
0.000144328
-7.38602e-09
0.000144338
-2.11915e-08
0.000144353
-3.21683e-08
0.000144372
-3.95331e-08
0.000144395
-4.34387e-08
0.00014442
-4.44386e-08
0.000144448
-4.30248e-08
0.000144477
-3.96031e-08
0.000144507
-3.45651e-08
0.000144538
-2.82722e-08
0.000144571
-2.10242e-08
0.000144604
-1.3063e-08
0.000144637
-4.58824e-09
0.000144672
4.23241e-09
0.000144707
1.32585e-08
0.000144742
2.23712e-08
0.000144778
3.14684e-08
0.000144815
4.04608e-08
0.000144852
4.92697e-08
0.000144889
5.7825e-08
0.000144927
6.6064e-08
0.000144966
7.39313e-08
0.000145005
8.13779e-08
0.000145044
8.83617e-08
0.000145084
9.48471e-08
0.000145124
1.00805e-07
0.000145165
1.06215e-07
0.000145205
1.1106e-07
0.000145246
1.15333e-07
0.000145287
1.19033e-07
0.000145327
1.22165e-07
0.000145368
1.24739e-07
1.26776e-07
0.000145409
0.000148452
-1.13593e-08
0.000148463
-3.26417e-08
0.000148481
-4.97066e-08
0.000148503
-6.16028e-08
0.000148528
-6.88755e-08
0.000148556
-7.24598e-08
0.000148586
-7.3026e-08
0.000148618
-7.11075e-08
0.000148651
-6.72349e-08
0.000148684
-6.18812e-08
0.000148719
-5.54176e-08
0.000148754
-4.81334e-08
0.000148789
-4.02635e-08
0.000148826
-3.20005e-08
0.000148862
-2.35009e-08
0.0001489
-1.48932e-08
0.000148937
-6.28482e-09
0.000148976
2.23308e-09
0.000149014
1.05824e-08
0.000149053
1.86958e-08
0.000149093
2.65147e-08
0.000149133
3.39888e-08
0.000149173
4.10747e-08
0.000149214
4.77362e-08
0.000149255
5.39437e-08
0.000149296
5.96737e-08
0.000149337
6.49095e-08
0.000149379
6.96402e-08
0.00014942
7.38608e-08
0.000149462
7.75718e-08
0.000149503
8.07786e-08
0.000149544
8.34901e-08
8.57254e-08
0.000149585
0.000152694
-1.62142e-08
0.000152708
-4.6595e-08
0.000152729
-7.05939e-08
0.000152754
-8.71467e-08
0.000152783
-9.76735e-08
0.000152814
-1.03701e-07
0.000152847
-1.06074e-07
0.000152882
-1.05471e-07
0.000152917
-1.02592e-07
0.000152953
-9.80288e-08
0.00015299
-9.2218e-08
0.000153027
-8.54938e-08
0.000153065
-7.81251e-08
0.000153104
-7.03269e-08
0.000153142
-6.2269e-08
0.000153182
-5.40868e-08
0.000153221
-4.58908e-08
0.000153261
-3.77719e-08
0.000153302
-2.9806e-08
0.000153342
-2.20566e-08
0.000153383
-1.45774e-08
0.000153425
-7.41335e-09
0.000153467
-6.02139e-10
0.000153508
5.82544e-09
0.000153551
1.18449e-08
0.000153593
1.74377e-08
0.000153635
2.25911e-08
0.000153677
2.72975e-08
0.00015372
3.15547e-08
0.000153762
3.53654e-08
0.000153804
3.87368e-08
0.000153846
4.16809e-08
4.42152e-08
0.000153887
0.000157058
-2.24709e-08
0.000157075
-6.4354e-08
0.000157101
-9.62553e-08
0.000157131
-1.17418e-07
0.000157165
-1.30956e-07
0.0001572
-1.39097e-07
0.000157237
-1.42854e-07
0.000157275
-1.43159e-07
0.000157313
-1.40953e-07
0.000157352
-1.36941e-07
0.000157391
-1.31604e-07
0.000157431
-1.25305e-07
0.000157471
-1.18334e-07
0.000157512
-1.10917e-07
0.000157553
-1.03227e-07
0.000157594
-9.53989e-08
0.000157636
-8.75419e-08
0.000157678
-7.97437e-08
0.00015772
-7.2076e-08
0.000157763
-6.45978e-08
0.000157805
-5.7358e-08
0.000157848
-5.03967e-08
0.000157891
-4.37471e-08
0.000157935
-3.74356e-08
0.000157978
-3.14828e-08
0.000158021
-2.59042e-08
0.000158065
-2.071e-08
0.000158108
-1.59064e-08
0.000158151
-1.14952e-08
0.000158194
-7.47492e-09
0.000158236
-3.84156e-09
0.000158279
-5.8976e-10
2.29405e-09
0.000158321
0.000161547
-3.13516e-08
0.000161572
-8.85723e-08
0.000161604
-1.28385e-07
0.00016164
-1.53372e-07
0.000161678
-1.69781e-07
0.000161719
-1.79956e-07
0.000161761
-1.84815e-07
0.000161804
-1.8568e-07
0.000161847
-1.83809e-07
0.00016189
-1.80019e-07
0.000161933
-1.74834e-07
0.000161976
-1.68653e-07
0.00016202
-1.61787e-07
0.000162063
-1.54471e-07
0.000162107
-1.46876e-07
0.000162151
-1.39135e-07
0.000162194
-1.31354e-07
0.000162238
-1.23614e-07
0.000162282
-1.15982e-07
0.000162326
-1.08514e-07
0.00016237
-1.01254e-07
0.000162414
-9.42373e-08
0.000162458
-8.74943e-08
0.000162501
-8.10481e-08
0.000162545
-7.4917e-08
0.000162588
-6.91142e-08
0.000162631
-6.36485e-08
0.000162673
-5.85244e-08
0.000162716
-5.37427e-08
0.000162758
-4.92998e-08
0.000162799
-4.51887e-08
0.00016284
-4.13968e-08
-3.79139e-08
0.00016288
0.000166166
-4.4107e-08
0.000166205
-1.26809e-07
0.000166249
-1.7307e-07
0.000166295
-1.99459e-07
0.000166343
-2.17454e-07
0.000166392
-2.28634e-07
0.000166441
-2.33766e-07
0.00016649
-2.34604e-07
0.000166538
-2.32566e-07
0.000166587
-2.28446e-07
0.000166635
-2.22773e-07
0.000166682
-2.15986e-07
0.000166729
-2.08434e-07
0.000166775
-2.00376e-07
0.00016682
-1.92005e-07
0.000166864
-1.83473e-07
0.000166908
-1.74897e-07
0.00016695
-1.66371e-07
0.000166992
-1.57968e-07
0.000167034
-1.49747e-07
0.000167074
-1.41751e-07
0.000167114
-1.34017e-07
0.000167153
-1.26573e-07
0.000167191
-1.19439e-07
0.000167229
-1.1263e-07
0.000167266
-1.06156e-07
0.000167302
-1.00023e-07
0.000167338
-9.42336e-08
0.000167373
-8.87873e-08
0.000167408
-8.36823e-08