/*--------------------------------*- C++ -*----------------------------------*\
| =========                 |                                                 |
| \\      /  F ield         | OpenFOAM: The Open Source CFD Toolbox           |
|  \\    /   O peration     | Version:  4.1                                   |
|   \\  /    A nd           | Web:      www.OpenFOAM.org                      |
|    \\/     M anipulation  |                                                 |
\*---------------------------------------------------------------------------*/
FoamFile
{
    version     2.0;
    format      ascii;
    class       volVectorField;
    location    "1700";
    object      U;
}
// * * * * * * * * * * * * * * * * * * * * * * * * * * * * * * * * * * * * * //

dimensions      [0 1 -1 0 0 0 0];

internalField   nonuniform List<vector> 
6820
(
(7.30076 0.0105784 0)
(7.26066 0.0145399 0)
(7.22719 0.0116116 0)
(7.19817 0.00889175 0)
(7.17426 0.00729668 0)
(7.15367 0.00634273 0)
(7.13496 0.00573842 0)
(7.11768 0.00533703 0)
(7.10162 0.00504575 0)
(7.08659 0.00481619 0)
(7.07241 0.00462901 0)
(7.05895 0.00447629 0)
(7.04611 0.00435342 0)
(7.0338 0.00425742 0)
(7.02193 0.00418661 0)
(7.01042 0.00414043 0)
(6.99921 0.00411932 0)
(6.98821 0.00412484 0)
(6.97735 0.00415991 0)
(6.96655 0.00422918 0)
(6.95571 0.00433971 0)
(6.94472 0.00450214 0)
(6.93345 0.00473267 0)
(6.92172 0.00505686 0)
(6.90929 0.00551653 0)
(6.89578 0.006185 0)
(6.88066 0.00719827 0)
(6.86282 0.00883015 0)
(6.84108 0.0117057 0)
(6.80907 0.0171957 0)
(6.77013 0.0286572 0)
(6.65293 0.0702459 0)
(6.63986 -0.0294848 0)
(7.3396 0.0129479 0)
(7.34154 0.0168193 0)
(7.32732 0.0138363 0)
(7.30715 0.0119873 0)
(7.28756 0.0109488 0)
(7.26941 0.0100964 0)
(7.25237 0.00941843 0)
(7.23638 0.00890363 0)
(7.22139 0.00849462 0)
(7.20725 0.00815859 0)
(7.19383 0.00788315 0)
(7.18104 0.00766029 0)
(7.1688 0.00748357 0)
(7.15702 0.00734888 0)
(7.14566 0.00725427 0)
(7.13465 0.00719951 0)
(7.12392 0.00718595 0)
(7.11341 0.00721682 0)
(7.10308 0.00729752 0)
(7.09284 0.00743638 0)
(7.08264 0.00764573 0)
(7.07239 0.00794385 0)
(7.06199 0.00835827 0)
(7.05134 0.00893154 0)
(7.04029 0.00973272 0)
(7.02863 0.0108772 0)
(7.01617 0.0125822 0)
(7.00245 0.0152275 0)
(6.98758 0.0197906 0)
(6.96983 0.0276054 0)
(6.95497 0.0454622 0)
(6.93762 0.0768936 0)
(6.97924 0.170819 0)
(7.33613 0.0108741 0)
(7.34462 0.0173199 0)
(7.34579 0.0178696 0)
(7.34012 0.0178781 0)
(7.33147 0.0174236 0)
(7.3215 0.0166041 0)
(7.31078 0.0157929 0)
(7.29981 0.0151131 0)
(7.2889 0.0145454 0)
(7.27817 0.0140683 0)
(7.26765 0.0136722 0)
(7.25736 0.0133487 0)
(7.2473 0.0130911 0)
(7.23745 0.0128957 0)
(7.2278 0.0127614 0)
(7.2183 0.0126892 0)
(7.20894 0.0126824 0)
(7.19967 0.0127469 0)
(7.19045 0.0128919 0)
(7.18123 0.0131308 0)
(7.17194 0.0134832 0)
(7.16253 0.013977 0)
(7.15291 0.0146536 0)
(7.14296 0.0155744 0)
(7.13257 0.0168356 0)
(7.12154 0.0185881 0)
(7.10969 0.0210966 0)
(7.0967 0.0247742 0)
(7.08257 0.0305512 0)
(7.06668 0.0394926 0)
(7.05207 0.0556627 0)
(7.03854 0.0799774 0)
(7.05087 0.1266 0)
(7.33465 0.00788232 0)
(7.34191 0.0151073 0)
(7.34712 0.0174406 0)
(7.34828 0.0186843 0)
(7.34686 0.0192152 0)
(7.3437 0.0191487 0)
(7.3391 0.0188428 0)
(7.33348 0.0184847 0)
(7.32722 0.0181223 0)
(7.32055 0.0177798 0)
(7.31362 0.0174765 0)
(7.30651 0.0172226 0)
(7.29929 0.0170228 0)
(7.29201 0.0168814 0)
(7.28466 0.0168031 0)
(7.27728 0.0167937 0)
(7.26984 0.016861 0)
(7.26234 0.0170154 0)
(7.25475 0.0172712 0)
(7.24705 0.0176475 0)
(7.23918 0.0181713 0)
(7.23111 0.0188798 0)
(7.22277 0.0198263 0)
(7.21407 0.0210882 0)
(7.20491 0.0227815 0)
(7.19518 0.0250808 0)
(7.18476 0.0282691 0)
(7.1735 0.0327618 0)
(7.16153 0.0393395 0)
(7.14887 0.0488212 0)
(7.13745 0.0634372 0)
(7.12824 0.0825405 0)
(7.13114 0.111085 0)
(7.334 0.00602358 0)
(7.33938 0.0130427 0)
(7.3447 0.0160233 0)
(7.34792 0.0178453 0)
(7.34963 0.019048 0)
(7.35018 0.0196458 0)
(7.34954 0.0198904 0)
(7.34784 0.0199704 0)
(7.34532 0.019958 0)
(7.34218 0.0198964 0)
(7.33852 0.0198221 0)
(7.33444 0.0197601 0)
(7.33004 0.0197268 0)
(7.32535 0.0197356 0)
(7.32043 0.0197984 0)
(7.31529 0.0199275 0)
(7.30995 0.0201362 0)
(7.30441 0.0204401 0)
(7.29867 0.0208591 0)
(7.29272 0.0214185 0)
(7.28652 0.0221517 0)
(7.28005 0.0231041 0)
(7.27326 0.0243382 0)
(7.2661 0.0259417 0)
(7.25852 0.0280406 0)
(7.25044 0.0308157 0)
(7.24185 0.034538 0)
(7.23274 0.0395795 0)
(7.22333 0.0465314 0)
(7.21397 0.0559651 0)
(7.20604 0.0689968 0)
(7.20082 0.0849718 0)
(7.20245 0.105318 0)
(7.33365 0.00478 0)
(7.33758 0.0112543 0)
(7.34215 0.014522 0)
(7.34564 0.0166278 0)
(7.34826 0.0181729 0)
(7.35025 0.0191688 0)
(7.35148 0.0197983 0)
(7.35195 0.0202316 0)
(7.35176 0.0205411 0)
(7.35098 0.0207685 0)
(7.34969 0.0209522 0)
(7.34794 0.0211221 0)
(7.34578 0.0213004 0)
(7.34327 0.0215056 0)
(7.34043 0.0217551 0)
(7.33728 0.0220659 0)
(7.33386 0.0224559 0)
(7.33016 0.0229457 0)
(7.32618 0.0235597 0)
(7.32192 0.0243283 0)
(7.31738 0.0252902 0)
(7.31252 0.0264963 0)
(7.30734 0.0280146 0)
(7.3018 0.0299367 0)
(7.29588 0.0323888 0)
(7.28957 0.0355426 0)
(7.28291 0.0396357 0)
(7.276 0.0449711 0)
(7.26911 0.0519601 0)
(7.26271 0.0609542 0)
(7.25779 0.0724265 0)
(7.25546 0.08581 0)
(7.25756 0.100975 0)
(7.33343 0.00388674 0)
(7.33634 0.00974914 0)
(7.34013 0.0131376 0)
(7.34337 0.0153881 0)
(7.34606 0.0170936 0)
(7.34839 0.0183083 0)
(7.35029 0.0191737 0)
(7.35169 0.0198409 0)
(7.35263 0.0203815 0)
(7.35314 0.0208348 0)
(7.35324 0.0212358 0)
(7.35295 0.0216142 0)
(7.3523 0.0219934 0)
(7.35131 0.0223935 0)
(7.34999 0.0228339 0)
(7.34836 0.0233343 0)
(7.34644 0.0239154 0)
(7.34422 0.0246008 0)
(7.3417 0.0254181 0)
(7.3389 0.0264009 0)
(7.33579 0.0275912 0)
(7.33238 0.0290424 0)
(7.32865 0.0308238 0)
(7.32461 0.0330254 0)
(7.32026 0.035765 0)
(7.31563 0.0391947 0)
(7.3108 0.0435084 0)
(7.30593 0.0489332 0)
(7.3013 0.0557311 0)
(7.29737 0.0640827 0)
(7.29484 0.0741093 0)
(7.29454 0.0853163 0)
(7.29733 0.0971353 0)
(7.3333 0.00323159 0)
(7.33547 0.00850286 0)
(7.33859 0.0118949 0)
(7.3415 0.0142191 0)
(7.34402 0.0160061 0)
(7.34631 0.0173492 0)
(7.34832 0.0183616 0)
(7.35001 0.0191768 0)
(7.35138 0.0198691 0)
(7.35246 0.0204783 0)
(7.35324 0.0210379 0)
(7.35372 0.0215767 0)
(7.35393 0.0221179 0)
(7.35385 0.0226821 0)
(7.35349 0.0232891 0)
(7.35286 0.0239597 0)
(7.35197 0.0247159 0)
(7.3508 0.0255826 0)
(7.34936 0.026589 0)
(7.34766 0.02777 0)
(7.34568 0.0291685 0)
(7.34342 0.0308378 0)
(7.3409 0.0328446 0)
(7.33813 0.0352723 0)
(7.33513 0.0382251 0)
(7.33196 0.041829 0)
(7.32872 0.0462325 0)
(7.32559 0.0515922 0)
(7.32285 0.0580566 0)
(7.32086 0.0656875 0)
(7.32016 0.0744322 0)
(7.32128 0.083871 0)
(7.32464 0.0934174 0)
(7.33321 0.00274268 0)
(7.33487 0.00747198 0)
(7.33744 0.0107865 0)
(7.34 0.0131402 0)
(7.34231 0.0149716 0)
(7.34445 0.0163964 0)
(7.3464 0.0175086 0)
(7.34812 0.0184248 0)
(7.3496 0.0192201 0)
(7.35087 0.0199368 0)
(7.35192 0.0206085 0)
(7.35275 0.0212639 0)
(7.35337 0.0219269 0)
(7.35377 0.0226184 0)
(7.35394 0.0233586 0)
(7.3539 0.0241686 0)
(7.35364 0.0250709 0)
(7.35314 0.0260911 0)
(7.35243 0.0272584 0)
(7.35148 0.0286077 0)
(7.35031 0.0301808 0)
(7.34892 0.0320282 0)
(7.34732 0.0342112 0)
(7.34554 0.0368035 0)
(7.34362 0.0398921 0)
(7.34163 0.0435759 0)
(7.33969 0.0479604 0)
(7.33797 0.0531433 0)
(7.33669 0.0591928 0)
(7.33618 0.0660957 0)
(7.33678 0.073725 0)
(7.33887 0.0817316 0)
(7.34262 0.0896254 0)
(7.33315 0.00236909 0)
(7.33444 0.00661514 0)
(7.33656 0.00980029 0)
(7.33882 0.0121489 0)
(7.34092 0.0140006 0)
(7.3429 0.0154786 0)
(7.34474 0.016664 0)
(7.3464 0.0176564 0)
(7.34787 0.0185289 0)
(7.34917 0.0193257 0)
(7.35031 0.0200809 0)
(7.35127 0.0208238 0)
(7.35207 0.021579 0)
(7.35269 0.0223681 0)
(7.35313 0.023212 0)
(7.35341 0.024132 0)
(7.3535 0.0251508 0)
(7.35341 0.0262939 0)
(7.35315 0.02759 0)
(7.3527 0.0290727 0)
(7.35208 0.0307812 0)
(7.3513 0.0327616 0)
(7.35037 0.0350681 0)
(7.34934 0.0377624 0)
(7.34825 0.0409138 0)
(7.34717 0.0445948 0)
(7.34623 0.0488746 0)
(7.34557 0.0538047 0)
(7.34538 0.0593999 0)
(7.34592 0.0656048 0)
(7.34743 0.0722697 0)
(7.35012 0.0791091 0)
(7.35408 0.0857433 0)
(7.33312 0.00207626 0)
(7.33413 0.00589804 0)
(7.3359 0.00892348 0)
(7.33788 0.0112378 0)
(7.33979 0.0130907 0)
(7.34161 0.014601 0)
(7.34333 0.0158407 0)
(7.34492 0.0168938 0)
(7.34635 0.0178287 0)
(7.34764 0.0186904 0)
(7.34878 0.0195131 0)
(7.34979 0.0203261 0)
(7.35065 0.0211549 0)
(7.35138 0.0220217 0)
(7.35196 0.0229478 0)
(7.3524 0.0239549 0)
(7.3527 0.0250655 0)
(7.35285 0.0263046 0)
(7.35287 0.0276998 0)
(7.35275 0.0292825 0)
(7.35251 0.0310885 0)
(7.35215 0.0331585 0)
(7.35172 0.0355382 0)
(7.35123 0.0382773 0)
(7.35076 0.0414278 0)
(7.35037 0.045039 0)
(7.35017 0.0491506 0)
(7.35029 0.053781 0)
(7.35089 0.0589114 0)
(7.35215 0.0644663 0)
(7.35423 0.070299 0)
(7.35727 0.0761794 0)
(7.36129 0.0818218 0)
(7.33309 0.00184096 0)
(7.33391 0.00529249 0)
(7.33539 0.00814312 0)
(7.33713 0.0103995 0)
(7.33886 0.0122371 0)
(7.34055 0.0137627 0)
(7.34216 0.0150407 0)
(7.34366 0.0161419 0)
(7.34505 0.0171286 0)
(7.34631 0.0180449 0)
(7.34745 0.0189247 0)
(7.34847 0.0197971 0)
(7.34937 0.0206876 0)
(7.35015 0.0216189 0)
(7.35081 0.0226124 0)
(7.35135 0.0236897 0)
(7.35178 0.0248731 0)
(7.35209 0.0261863 0)
(7.3523 0.0276555 0)
(7.35241 0.0293093 0)
(7.35244 0.0311795 0)
(7.3524 0.0333007 0)
(7.35233 0.03571 0)
(7.35226 0.0384456 0)
(7.35225 0.0415437 0)
(7.35238 0.0450345 0)
(7.35273 0.0489355 0)
(7.35342 0.053242 0)
(7.35456 0.0579165 0)
(7.35629 0.0628775 0)
(7.35871 0.0679922 0)
(7.36192 0.0730772 0)
(7.36588 0.07792 0)
(7.33307 0.00164734 0)
(7.33374 0.00477559 0)
(7.33499 0.00744656 0)
(7.33652 0.00962702 0)
(7.3381 0.0114348 0)
(7.33966 0.0129607 0)
(7.34117 0.0142627 0)
(7.34261 0.0154004 0)
(7.34395 0.0164292 0)
(7.34518 0.0173915 0)
(7.34631 0.0183201 0)
(7.34734 0.0192435 0)
(7.34826 0.0201868 0)
(7.34908 0.0211726 0)
(7.3498 0.0222223 0)
(7.35043 0.0233568 0)
(7.35095 0.0245976 0)
(7.35139 0.0259671 0)
(7.35176 0.0274894 0)
(7.35205 0.02919 0)
(7.35229 0.0310961 0)
(7.3525 0.0332362 0)
(7.35272 0.0356393 0)
(7.35298 0.0383327 0)
(7.35334 0.0413396 0)
(7.35386 0.044675 0)
(7.35462 0.0483402 0)
(7.35571 0.0523161 0)
(7.35723 0.0565563 0)
(7.35925 0.0609813 0)
(7.36187 0.0654763 0)
(7.36511 0.0698961 0)
(7.36896 0.0740828 0)
(7.33306 0.00148446 0)
(7.33362 0.00432899 0)
(7.33469 0.0068219 0)
(7.33604 0.00891316 0)
(7.33747 0.0106784 0)
(7.33892 0.0121919 0)
(7.34034 0.0135047 0)
(7.34172 0.0146674 0)
(7.34301 0.0157289 0)
(7.34423 0.0167285 0)
(7.34535 0.017698 0)
(7.34639 0.0186645 0)
(7.34734 0.0196526 0)
(7.3482 0.0206842 0)
(7.34897 0.0217801 0)
(7.34967 0.0229605 0)
(7.35029 0.0242455 0)
(7.35084 0.0256559 0)
(7.35134 0.0272133 0)
(7.35179 0.0289397 0)
(7.35222 0.0308579 0)
(7.35265 0.0329903 0)
(7.35311 0.0353583 0)
(7.35364 0.0379801 0)
(7.3543 0.0408681 0)
(7.35513 0.044026 0)
(7.3562 0.047444 0)
(7.35758 0.0510949 0)
(7.35935 0.0549297 0)
(7.36157 0.0588752 0)
(7.36428 0.0628349 0)
(7.36749 0.0666943 0)
(7.37119 0.0703356 0)
(7.33305 0.0013446 0)
(7.33353 0.00393806 0)
(7.33445 0.00625811 0)
(7.33565 0.008251 0)
(7.33696 0.00996298 0)
(7.3383 0.0114526 0)
(7.33965 0.0127642 0)
(7.34096 0.0139409 0)
(7.34223 0.0150254 0)
(7.34342 0.0160537 0)
(7.34454 0.0170558 0)
(7.34559 0.0180575 0)
(7.34657 0.0190821 0)
(7.34747 0.0201509 0)
(7.34831 0.0212834 0)
(7.34908 0.0224988 0)
(7.34979 0.0238157 0)
(7.35045 0.0252529 0)
(7.35108 0.0268292 0)
(7.35168 0.0285631 0)
(7.35228 0.030473 0)
(7.3529 0.0325758 0)
(7.35357 0.0348861 0)
(7.35434 0.0374144 0)
(7.35524 0.0401649 0)
(7.35632 0.0431331 0)
(7.35763 0.0463024 0)
(7.35924 0.0496417 0)
(7.36118 0.0531034 0)
(7.36351 0.0566225 0)
(7.36625 0.060119 0)
(7.3694 0.0635032 0)
(7.37294 0.0666867 0)
(7.33304 0.0012222 0)
(7.33345 0.00359114 0)
(7.33426 0.00574518 0)
(7.33534 0.00763365 0)
(7.33654 0.00928318 0)
(7.33779 0.0107387 0)
(7.33907 0.0120382 0)
(7.34034 0.0132184 0)
(7.34156 0.0143162 0)
(7.34275 0.0153644 0)
(7.34387 0.0163905 0)
(7.34494 0.0174191 0)
(7.34595 0.0184718 0)
(7.3469 0.0195686 0)
(7.34779 0.0207282 0)
(7.34863 0.0219679 0)
(7.34944 0.0233048 0)
(7.3502 0.0247555 0)
(7.35095 0.0263358 0)
(7.3517 0.028061 0)
(7.35245 0.0299451 0)
(7.35325 0.0320002 0)
(7.35412 0.0342352 0)
(7.35508 0.0366543 0)
(7.35619 0.0392558 0)
(7.35747 0.0420295 0)
(7.35898 0.0449551 0)
(7.36075 0.0480008 0)
(7.36282 0.0511222 0)
(7.36521 0.0542632 0)
(7.36794 0.0573584 0)
(7.37102 0.0603371 0)
(7.3744 0.0631328 0)
(7.33304 0.00111317 0)
(7.3334 0.00327893 0)
(7.33411 0.00527416 0)
(7.33508 0.00705437 0)
(7.33619 0.00863375 0)
(7.33737 0.0100461 0)
(7.33859 0.0113234 0)
(7.33981 0.0124971 0)
(7.34102 0.0135987 0)
(7.34219 0.0146577 0)
(7.34332 0.0156992 0)
(7.34441 0.0167459 0)
(7.34545 0.0178179 0)
(7.34644 0.0189337 0)
(7.3474 0.0201104 0)
(7.34832 0.0213639 0)
(7.34921 0.0227093 0)
(7.35008 0.0241607 0)
(7.35095 0.0257314 0)
(7.35183 0.0274334 0)
(7.35274 0.0292769 0)
(7.35369 0.0312695 0)
(7.35473 0.0334157 0)
(7.35587 0.035715 0)
(7.35715 0.0381612 0)
(7.3586 0.0407408 0)
(7.36026 0.0434321 0)
(7.36215 0.0462042 0)
(7.3643 0.0490171 0)
(7.36673 0.0518233 0)
(7.36944 0.0545694 0)
(7.37243 0.0571999 0)
(7.37566 0.0596647 0)
(7.33304 0.00101438 0)
(7.33335 0.00299387 0)
(7.334 0.00483703 0)
(7.33488 0.00650662 0)
(7.33591 0.00800936 0)
(7.33703 0.00937044 0)
(7.33819 0.0106163 0)
(7.33938 0.0117737 0)
(7.34056 0.0128699 0)
(7.34173 0.0139306 0)
(7.34287 0.0149787 0)
(7.34398 0.0160346 0)
(7.34506 0.0171169 0)
(7.34611 0.0182424 0)
(7.34713 0.0194265 0)
(7.34812 0.0206834 0)
(7.3491 0.022026 0)
(7.35007 0.0234664 0)
(7.35105 0.0250151 0)
(7.35206 0.0266811 0)
(7.3531 0.0284713 0)
(7.3542 0.0303898 0)
(7.35539 0.0324373 0)
(7.35668 0.0346099 0)
(7.35811 0.0368987 0)
(7.3597 0.0392883 0)
(7.36147 0.041757 0)
(7.36346 0.044276 0)
(7.36566 0.0468102 0)
(7.36811 0.0493197 0)
(7.37078 0.0517611 0)
(7.37368 0.054091 0)
(7.37677 0.0562711 0)
(7.33303 0.000923393 0)
(7.33332 0.00272977 0)
(7.3339 0.00442669 0)
(7.33472 0.0059841 0)
(7.33569 0.00740462 0)
(7.33675 0.00870697 0)
(7.33787 0.0099129 0)
(7.33903 0.011045 0)
(7.3402 0.0121265 0)
(7.34137 0.01318 0)
(7.34252 0.0142257 0)
(7.34366 0.0152821 0)
(7.34477 0.0163657 0)
(7.34587 0.0174915 0)
(7.34695 0.0186734 0)
(7.34802 0.0199234 0)
(7.34909 0.0212528 0)
(7.35016 0.0226712 0)
(7.35124 0.0241867 0)
(7.35236 0.0258057 0)
(7.35353 0.0275321 0)
(7.35476 0.0293674 0)
(7.35608 0.0313093 0)
(7.35751 0.0333517 0)
(7.35906 0.0354838 0)
(7.36076 0.0376899 0)
(7.36262 0.039949 0)
(7.36467 0.0422351 0)
(7.36691 0.0445179 0)
(7.36935 0.0467639 0)
(7.37198 0.0489383 0)
(7.3748 0.0510069 0)
(7.37777 0.0529404 0)
(7.33303 0.00083824 0)
(7.33329 0.00248147 0)
(7.33383 0.00403676 0)
(7.3346 0.00548074 0)
(7.33551 0.00681412 0)
(7.33653 0.00805092 0)
(7.33762 0.00920887 0)
(7.33876 0.010307 0)
(7.33992 0.0113651 0)
(7.34109 0.0124025 0)
(7.34226 0.0134371 0)
(7.34342 0.014485 0)
(7.34458 0.0155609 0)
(7.34572 0.016678 0)
(7.34687 0.0178482 0)
(7.34801 0.0190818 0)
(7.34916 0.020388 0)
(7.35032 0.0217744 0)
(7.35151 0.0232469 0)
(7.35273 0.0248095 0)
(7.35401 0.0264639 0)
(7.35536 0.0282091 0)
(7.35679 0.0300411 0)
(7.35833 0.0319521 0)
(7.35998 0.0339306 0)
(7.36177 0.0359611 0)
(7.36371 0.0380241 0)
(7.36581 0.0400965 0)
(7.36807 0.0421524 0)
(7.37049 0.0441641 0)
(7.37307 0.0461036 0)
(7.37581 0.0479437 0)
(7.37867 0.0496622 0)
(7.33303 0.000757286 0)
(7.33327 0.00224455 0)
(7.33378 0.00366149 0)
(7.3345 0.00499073 0)
(7.33538 0.00623242 0)
(7.33636 0.00739728 0)
(7.33743 0.00849973 0)
(7.33855 0.00955569 0)
(7.3397 0.0105818 0)
(7.34088 0.0115946 0)
(7.34207 0.0126094 0)
(7.34327 0.0136402 0)
(7.34446 0.0146997 0)
(7.34566 0.0157992 0)
(7.34686 0.0169487 0)
(7.34808 0.0181568 0)
(7.3493 0.0194307 0)
(7.35055 0.0207762 0)
(7.35183 0.0221971 0)
(7.35316 0.0236956 0)
(7.35454 0.0252713 0)
(7.35599 0.0269218 0)
(7.35752 0.0286415 0)
(7.35915 0.0304219 0)
(7.36088 0.0322513 0)
(7.36274 0.0341151 0)
(7.36473 0.0359954 0)
(7.36686 0.0378721 0)
(7.36913 0.0397233 0)
(7.37153 0.041526 0)
(7.37406 0.0432577 0)
(7.37672 0.044897 0)
(7.37948 0.0464269 0)
(7.33303 0.000679127 0)
(7.33326 0.00201515 0)
(7.33374 0.0032956 0)
(7.33443 0.00450843 0)
(7.33528 0.00565404 0)
(7.33624 0.00674087 0)
(7.33728 0.00778067 0)
(7.3384 0.00878664 0)
(7.33956 0.00977265 0)
(7.34075 0.0107525 0)
(7.34196 0.0117391 0)
(7.34319 0.0127445 0)
(7.34443 0.0137791 0)
(7.34568 0.0148525 0)
(7.34694 0.0159729 0)
(7.34822 0.0171471 0)
(7.34952 0.0183805 0)
(7.35084 0.0196771 0)
(7.35221 0.0210392 0)
(7.35362 0.0224673 0)
(7.35509 0.0239595 0)
(7.35663 0.0255122 0)
(7.35825 0.0271189 0)
(7.35995 0.028771 0)
(7.36176 0.030457 0)
(7.36367 0.0321632 0)
(7.3657 0.0338739 0)
(7.36785 0.0355715 0)
(7.37011 0.0372376 0)
(7.37249 0.0388534 0)
(7.37497 0.0404007 0)
(7.37755 0.0418626 0)
(7.38022 0.043226 0)
(7.33303 0.000602514 0)
(7.33325 0.00178976 0)
(7.33371 0.00293416 0)
(7.33438 0.00402831 0)
(7.33521 0.00507339 0)
(7.33615 0.00607632 0)
(7.33719 0.00704662 0)
(7.3383 0.00799513 0)
(7.33947 0.00893321 0)
(7.34068 0.00987218 0)
(7.34192 0.0108227 0)
(7.34318 0.0117945 0)
(7.34446 0.0127962 0)
(7.34576 0.0138356 0)
(7.34708 0.014919 0)
(7.34842 0.0160516 0)
(7.34979 0.0172372 0)
(7.35119 0.0184782 0)
(7.35264 0.0197755 0)
(7.35413 0.0211282 0)
(7.35568 0.0225335 0)
(7.35729 0.0239868 0)
(7.35898 0.0254813 0)
(7.36075 0.0270083 0)
(7.36261 0.028557 0)
(7.36457 0.0301151 0)
(7.36662 0.0316684 0)
(7.36877 0.0332022 0)
(7.37103 0.0347008 0)
(7.37337 0.0361488 0)
(7.37581 0.0375318 0)
(7.37832 0.0388361 0)
(7.3809 0.0400518 0)
(7.33302 0.000526292 0)
(7.33324 0.00156512 0)
(7.3337 0.0025724 0)
(7.33435 0.00354488 0)
(7.33517 0.00448478 0)
(7.3361 0.00539797 0)
(7.33714 0.00629218 0)
(7.33826 0.00717612 0)
(7.33944 0.00805888 0)
(7.34067 0.00894941 0)
(7.34194 0.00985618 0)
(7.34324 0.0107869 0)
(7.34456 0.0117483 0)
(7.34591 0.0127462 0)
(7.34728 0.0137854 0)
(7.34869 0.0148696 0)
(7.35012 0.016001 0)
(7.35159 0.0171807 0)
(7.3531 0.0184083 0)
(7.35467 0.0196819 0)
(7.35628 0.0209981 0)
(7.35796 0.0223516 0)
(7.35971 0.0237355 0)
(7.36154 0.0251415 0)
(7.36344 0.0265596 0)
(7.36543 0.0279786 0)
(7.3675 0.0293863 0)
(7.36965 0.03077 0)
(7.37189 0.0321167 0)
(7.37421 0.0334138 0)
(7.37659 0.0346496 0)
(7.37904 0.0358134 0)
(7.38154 0.0368974 0)
(7.33302 0.000449349 0)
(7.33324 0.00133807 0)
(7.33369 0.00220561 0)
(7.33434 0.00305255 0)
(7.33515 0.00388225 0)
(7.33609 0.00469987 0)
(7.33714 0.0055116 0)
(7.33827 0.00632421 0)
(7.33947 0.00714465 0)
(7.34073 0.00797969 0)
(7.34202 0.00883566 0)
(7.34336 0.00971824 0)
(7.34473 0.0106324 0)
(7.34612 0.0115822 0)
(7.34755 0.0125708 0)
(7.34901 0.0136005 0)
(7.35051 0.0146722 0)
(7.35204 0.0157858 0)
(7.35362 0.01694 0)
(7.35524 0.018132 0)
(7.35692 0.0193578 0)
(7.35865 0.0206121 0)
(7.36045 0.0218879 0)
(7.36232 0.0231775 0)
(7.36426 0.0244716 0)
(7.36626 0.0257604 0)
(7.36834 0.0270333 0)
(7.3705 0.0282794 0)
(7.37271 0.029488 0)
(7.375 0.0306489 0)
(7.37733 0.0317525 0)
(7.37972 0.0327904 0)
(7.38215 0.0337565 0)
(7.33302 0.000370559 0)
(7.33324 0.00110537 0)
(7.33369 0.00182893 0)
(7.33435 0.00254545 0)
(7.33517 0.00325948 0)
(7.33612 0.00397562 0)
(7.33718 0.00469865 0)
(7.33833 0.00543352 0)
(7.33955 0.00618514 0)
(7.34084 0.00695817 0)
(7.34217 0.00775685 0)
(7.34354 0.00858494 0)
(7.34496 0.0094456 0)
(7.3464 0.0103413 0)
(7.34788 0.0112737 0)
(7.3494 0.0122437 0)
(7.35095 0.0132512 0)
(7.35254 0.0142949 0)
(7.35417 0.0153728 0)
(7.35585 0.0164816 0)
(7.35758 0.0176169 0)
(7.35936 0.0187732 0)
(7.3612 0.019944 0)
(7.3631 0.0211219 0)
(7.36506 0.0222987 0)
(7.36709 0.0234657 0)
(7.36917 0.0246137 0)
(7.37131 0.0257336 0)
(7.37351 0.0268165 0)
(7.37576 0.0278539 0)
(7.37805 0.0288384 0)
(7.38038 0.0297629 0)
(7.38274 0.0306231 0)
(7.33302 0.000288721 0)
(7.33325 0.000863568 0)
(7.3337 0.00143714 0)
(7.33437 0.00201722 0)
(7.3352 0.00260956 0)
(7.33617 0.00321822 0)
(7.33726 0.00384654 0)
(7.33844 0.00449767 0)
(7.33969 0.0051745 0)
(7.34101 0.0058796 0)
(7.34238 0.00661519 0)
(7.3438 0.00738314 0)
(7.34525 0.00818486 0)
(7.34675 0.00902128 0)
(7.34828 0.00989269 0)
(7.34984 0.0107987 0)
(7.35144 0.0117382 0)
(7.35309 0.0127092 0)
(7.35477 0.013709 0)
(7.3565 0.0147337 0)
(7.35827 0.0157789 0)
(7.3601 0.0168392 0)
(7.36197 0.0179083 0)
(7.3639 0.0189795 0)
(7.36588 0.0200455 0)
(7.36791 0.0210985 0)
(7.36999 0.0221308 0)
(7.37212 0.0231347 0)
(7.3743 0.0241028 0)
(7.37651 0.0250283 0)
(7.37876 0.0259048 0)
(7.38104 0.0267271 0)
(7.38334 0.0274917 0)
(7.33303 0.000202485 0)
(7.33325 0.000608793 0)
(7.33373 0.00102436 0)
(7.33441 0.00146072 0)
(7.33527 0.00192479 0)
(7.33627 0.00241985 0)
(7.33739 0.00294769 0)
(7.3386 0.00350955 0)
(7.33989 0.00410626 0)
(7.34125 0.00473827 0)
(7.34266 0.00540575 0)
(7.34412 0.00610869 0)
(7.34562 0.00684685 0)
(7.34716 0.00761966 0)
(7.34874 0.00842612 0)
(7.35035 0.00926476 0)
(7.352 0.0101335 0)
(7.35369 0.0110298 0)
(7.35542 0.0119502 0)
(7.35719 0.0128909 0)
(7.35901 0.0138471 0)
(7.36086 0.0148136 0)
(7.36277 0.0157847 0)
(7.36471 0.0167542 0)
(7.3667 0.0177155 0)
(7.36874 0.0186619 0)
(7.37082 0.0195869 0)
(7.37294 0.0204839 0)
(7.37509 0.0213468 0)
(7.37727 0.0221701 0)
(7.37948 0.0229486 0)
(7.38171 0.0236782 0)
(7.38395 0.0243561 0)
(7.33303 0.000110241 0)
(7.33327 0.000336427 0)
(7.33376 0.000583648 0)
(7.33448 0.000867616 0)
(7.33537 0.00119623 0)
(7.33641 0.0015716 0)
(7.33756 0.00199355 0)
(7.33882 0.00246123 0)
(7.34015 0.00297328 0)
(7.34156 0.00352787 0)
(7.34301 0.0041231 0)
(7.34452 0.00475708 0)
(7.34607 0.00542793 0)
(7.34765 0.00613365 0)
(7.34928 0.00687206 0)
(7.35094 0.0076407 0)
(7.35264 0.00843676 0)
(7.35437 0.00925699 0)
(7.35614 0.0100977 0)
(7.35795 0.0109548 0)
(7.35979 0.0118236 0)
(7.36168 0.0126992 0)
(7.3636 0.0135761 0)
(7.36556 0.0144488 0)
(7.36757 0.0153115 0)
(7.3696 0.0161584 0)
(7.37167 0.0169838 0)
(7.37377 0.0177823 0)
(7.3759 0.0185489 0)
(7.37805 0.0192789 0)
(7.38022 0.0199683 0)
(7.38241 0.0206136 0)
(7.3846 0.0212129 0)
(7.33303 9.95744e-06 0)
(7.33328 4.06844e-05 0)
(7.33381 0.000106434 0)
(7.33457 0.00022782 0)
(7.33551 0.00041334 0)
(7.3366 0.000663048 0)
(7.3378 0.000974242 0)
(7.33911 0.00134364 0)
(7.34049 0.00176743 0)
(7.34195 0.00224138 0)
(7.34345 0.00276136 0)
(7.34501 0.00332359 0)
(7.3466 0.00392455 0)
(7.34824 0.00456086 0)
(7.34991 0.00522921 0)
(7.35161 0.00592623 0)
(7.35335 0.00664841 0)
(7.35512 0.00739205 0)
(7.35693 0.00815319 0)
(7.35877 0.00892759 0)
(7.36064 0.00971076 0)
(7.36255 0.0104979 0)
(7.3645 0.0112842 0)
(7.36647 0.0120646 0)
(7.36848 0.0128339 0)
(7.37051 0.0135872 0)
(7.37258 0.0143197 0)
(7.37466 0.0150267 0)
(7.37677 0.0157042 0)
(7.37889 0.0163483 0)
(7.38102 0.0169559 0)
(7.38317 0.0175241 0)
(7.38531 0.0180514 0)
(7.33303 -0.000101081 0)
(7.33331 -0.000286102 0)
(7.33388 -0.000418392 0)
(7.33469 -0.000471357 0)
(7.3357 -0.000436815 0)
(7.33685 -0.000318207 0)
(7.33812 -0.000121681 0)
(7.33948 0.000146514 0)
(7.34093 0.00047962 0)
(7.34244 0.000870647 0)
(7.344 0.00131314 0)
(7.3456 0.00180144 0)
(7.34725 0.0023305 0)
(7.34893 0.00289568 0)
(7.35064 0.00349263 0)
(7.35239 0.00411721 0)
(7.35417 0.00476532 0)
(7.35598 0.00543288 0)
(7.35782 0.00611571 0)
(7.35969 0.00680954 0)
(7.36159 0.00751 0)
(7.36352 0.00821262 0)
(7.36547 0.00891287 0)
(7.36746 0.00960623 0)
(7.36947 0.0102882 0)
(7.3715 0.0109546 0)
(7.37355 0.0116012 0)
(7.37562 0.0122242 0)
(7.37771 0.0128201 0)
(7.3798 0.0133859 0)
(7.3819 0.0139189 0)
(7.38401 0.0144169 0)
(7.38611 0.0148788 0)
(7.33303 -0.000226715 0)
(7.33334 -0.00065466 0)
(7.33397 -0.00100582 0)
(7.33487 -0.00124622 0)
(7.33596 -0.00137034 0)
(7.33718 -0.00138759 0)
(7.33853 -0.00130839 0)
(7.33997 -0.00114226 0)
(7.34148 -0.000899488 0)
(7.34305 -0.000590535 0)
(7.34467 -0.00022467 0)
(7.34633 0.000190299 0)
(7.34802 0.000647648 0)
(7.34975 0.00114145 0)
(7.35151 0.00166642 0)
(7.3533 0.00221774 0)
(7.35511 0.00279093 0)
(7.35696 0.00338168 0)
(7.35883 0.00398576 0)
(7.36073 0.00459901 0)
(7.36265 0.00521728 0)
(7.3646 0.00583646 0)
(7.36657 0.00645246 0)
(7.36856 0.00706129 0)
(7.37057 0.00765905 0)
(7.3726 0.00824206 0)
(7.37464 0.00880684 0)
(7.3767 0.00935018 0)
(7.37876 0.00986923 0)
(7.38083 0.0103615 0)
(7.38291 0.0108248 0)
(7.38498 0.0112575 0)
(7.38704 0.0116587 0)
(7.33304 -0.000372674 0)
(7.33339 -0.00108088 0)
(7.3341 -0.00167723 0)
(7.33511 -0.00211837 0)
(7.3363 -0.00240661 0)
(7.33763 -0.00256252 0)
(7.33907 -0.00260287 0)
(7.34059 -0.00254096 0)
(7.34218 -0.00239063 0)
(7.34382 -0.00216551 0)
(7.3455 -0.00187723 0)
(7.34722 -0.00153545 0)
(7.34897 -0.0011485 0)
(7.35074 -0.000723638 0)
(7.35255 -0.000267192 0)
(7.35438 0.000215244 0)
(7.35623 0.000718623 0)
(7.3581 0.00123829 0)
(7.36 0.00176986 0)
(7.36193 0.00230919 0)
(7.36387 0.00285229 0)
(7.36583 0.00339531 0)
(7.36782 0.00393455 0)
(7.36982 0.00446647 0)
(7.37183 0.0049877 0)
(7.37386 0.00549509 0)
(7.37589 0.00598572 0)
(7.37794 0.00645694 0)
(7.37998 0.00690641 0)
(7.38203 0.00733207 0)
(7.38408 0.00773222 0)
(7.38612 0.00810538 0)
(7.38816 0.00845087 0)
(7.33305 -0.000548071 0)
(7.33346 -0.0015888 0)
(7.3343 -0.00246385 0)
(7.33545 -0.00312028 0)
(7.33678 -0.00357514 0)
(7.33823 -0.00386339 0)
(7.33978 -0.00401031 0)
(7.3414 -0.00403738 0)
(7.34308 -0.00396642 0)
(7.3448 -0.00381641 0)
(7.34655 -0.00360176 0)
(7.34834 -0.00333362 0)
(7.35014 -0.00302119 0)
(7.35197 -0.00267215 0)
(7.35382 -0.00229294 0)
(7.3557 -0.00188906 0)
(7.35759 -0.00146538 0)
(7.3595 -0.00102635 0)
(7.36143 -0.000576059 0)
(7.36338 -0.000118367 0)
(7.36535 0.000343075 0)
(7.36733 0.000804789 0)
(7.36932 0.00126347 0)
(7.37133 0.00171599 0)
(7.37335 0.0021594 0)
(7.37537 0.002591 0)
(7.3774 0.00300827 0)
(7.37944 0.00340899 0)
(7.38147 0.0037912 0)
(7.3835 0.00415322 0)
(7.38552 0.00449371 0)
(7.38754 0.0048116 0)
(7.38954 0.00510653 0)
(7.33306 -0.000769826 0)
(7.33358 -0.00221845 0)
(7.3346 -0.00340227 0)
(7.33596 -0.00428312 0)
(7.33747 -0.00492357 0)
(7.33908 -0.00537188 0)
(7.34077 -0.00564824 0)
(7.34252 -0.00577548 0)
(7.3443 -0.005783 0)
(7.3461 -0.00569662 0)
(7.34793 -0.00553564 0)
(7.34978 -0.00531523 0)
(7.35165 -0.00504792 0)
(7.35353 -0.00474391 0)
(7.35544 -0.00441129 0)
(7.35736 -0.0040566 0)
(7.35929 -0.00368524 0)
(7.36125 -0.00330181 0)
(7.36321 -0.00291028 0)
(7.36519 -0.00251416 0)
(7.36719 -0.00211664 0)
(7.36919 -0.00172063 0)
(7.3712 -0.0013288 0)
(7.37322 -0.000943659 0)
(7.37524 -0.000567496 0)
(7.37726 -0.000202416 0)
(7.37929 0.000149675 0)
(7.38131 0.000487068 0)
(7.38332 0.000808262 0)
(7.38533 0.00111195 0)
(7.38732 0.00139702 0)
(7.3893 0.00166248 0)
(7.39127 0.00190775 0)
(7.33308 -0.00106652 0)
(7.33379 -0.00306796 0)
(7.3351 -0.00458452 0)
(7.33672 -0.00560787 0)
(7.33845 -0.00632167 0)
(7.34025 -0.00683604 0)
(7.34214 -0.00718595 0)
(7.34406 -0.00739912 0)
(7.34601 -0.00750607 0)
(7.34796 -0.00752924 0)
(7.34992 -0.00748314 0)
(7.35188 -0.00737897 0)
(7.35385 -0.00722651 0)
(7.35583 -0.00703403 0)
(7.35781 -0.00680845 0)
(7.35979 -0.00655574 0)
(7.36178 -0.00628116 0)
(7.36377 -0.00598938 0)
(7.36576 -0.00568462 0)
(7.36775 -0.00537065 0)
(7.36975 -0.00505093 0)
(7.37174 -0.00472857 0)
(7.37373 -0.00440646 0)
(7.37571 -0.00408717 0)
(7.37769 -0.00377306 0)
(7.37965 -0.00346624 0)
(7.38161 -0.00316857 0)
(7.38355 -0.0028817 0)
(7.38548 -0.00260701 0)
(7.38739 -0.00234566 0)
(7.38928 -0.00209853 0)
(7.39114 -0.00186622 0)
(7.39298 -0.00164893 0)
(7.3331 -0.00144795 0)
(7.33415 -0.00420794 0)
(7.33607 -0.00631339 0)
(7.33822 -0.00776544 0)
(7.34032 -0.00874951 0)
(7.34242 -0.00937484 0)
(7.34457 -0.00971932 0)
(7.34674 -0.00986548 0)
(7.3489 -0.00988012 0)
(7.35104 -0.00980557 0)
(7.35317 -0.00966878 0)
(7.35527 -0.00948883 0)
(7.35735 -0.00927914 0)
(7.35939 -0.00904857 0)
(7.3614 -0.00880296 0)
(7.36338 -0.00854636 0)
(7.36531 -0.00828176 0)
(7.36722 -0.00801148 0)
(7.36909 -0.00773746 0)
(7.37093 -0.00746139 0)
(7.37273 -0.00718486 0)
(7.3745 -0.00690938 0)
(7.37624 -0.00663642 0)
(7.37795 -0.00636738 0)
(7.37963 -0.00610361 0)
(7.38128 -0.00584639 0)
(7.3829 -0.00559692 0)
(7.38449 -0.00535627 0)
(7.38605 -0.00512547 0)
(7.38758 -0.00490541 0)
(7.38909 -0.00469697 0)
(7.39056 -0.00450103 0)
(7.39201 -0.00431829 0)
(7.33311 -0.00228415 0)
(7.33485 -0.00521424 0)
(7.33794 -0.00688082 0)
(7.34136 -0.00825342 0)
(7.34468 -0.00954426 0)
(7.34787 -0.0106135 0)
(7.35088 -0.011419 0)
(7.35363 -0.0120085 0)
(7.3561 -0.0124223 0)
(7.35832 -0.0126819 0)
(7.36029 -0.0128075 0)
(7.36204 -0.0128224 0)
(7.3636 -0.0127481 0)
(7.36497 -0.0126026 0)
(7.36619 -0.012401 0)
(7.36727 -0.0121563 0)
(7.36823 -0.0118789 0)
(7.36909 -0.0115778 0)
(7.36986 -0.0112602 0)
(7.37056 -0.010932 0)
(7.3712 -0.010598 0)
(7.37178 -0.0102622 0)
(7.37232 -0.00992778 0)
(7.37282 -0.00959749 0)
(7.37329 -0.00927346 0)
(7.37374 -0.00895744 0)
(7.37416 -0.00865085 0)
(7.37457 -0.00835479 0)
(7.37496 -0.0080701 0)
(7.37533 -0.00779739 0)
(7.3757 -0.00753704 0)
(7.37604 -0.00728924 0)
(7.37638 -0.0070539 0)
(7.3363 -0.00651746 0)
(7.34557 -0.0134874 0)
(7.35343 -0.0156877 0)
(7.35888 -0.0161919 0)
(7.36267 -0.0161562 0)
(7.36523 -0.0157424 0)
(7.36659 -0.0150799 0)
(7.36685 -0.014335 0)
(7.36623 -0.0136008 0)
(7.36494 -0.0129054 0)
(7.36313 -0.0122555 0)
(7.36094 -0.0116536 0)
(7.35847 -0.0110989 0)
(7.35582 -0.0105873 0)
(7.35304 -0.0101137 0)
(7.35021 -0.00967342 0)
(7.34735 -0.0092623 0)
(7.34452 -0.00887679 0)
(7.34172 -0.00851396 0)
(7.33899 -0.00817145 0)
(7.33634 -0.00784738 0)
(7.33377 -0.0075403 0)
(7.33129 -0.00724908 0)
(7.32891 -0.00697285 0)
(7.32662 -0.00671094 0)
(7.32444 -0.0064628 0)
(7.32236 -0.00622801 0)
(7.32037 -0.00600617 0)
(7.31848 -0.00579691 0)
(7.31668 -0.00559983 0)
(7.31497 -0.00541436 0)
(7.31335 -0.0052399 0)
(7.31181 -0.00507494 0)
(7.32508 -0.00547002 0)
(7.31334 -0.0121257 0)
(7.29927 -0.0150437 0)
(7.28288 -0.0161334 0)
(7.26681 -0.016313 0)
(7.25211 -0.0158772 0)
(7.23866 -0.0150375 0)
(7.22632 -0.0139938 0)
(7.21505 -0.0128818 0)
(7.20483 -0.0117758 0)
(7.19555 -0.0107166 0)
(7.18712 -0.0097277 0)
(7.17944 -0.00882012 0)
(7.17242 -0.00799666 0)
(7.16601 -0.00725497 0)