/*--------------------------------*- C++ -*----------------------------------*\
| =========                 |                                                 |
| \\      /  F ield         | OpenFOAM: The Open Source CFD Toolbox           |
|  \\    /   O peration     | Version:  4.1                                   |
|   \\  /    A nd           | Web:      www.OpenFOAM.org                      |
|    \\/     M anipulation  |                                                 |
\*---------------------------------------------------------------------------*/
FoamFile
{
    version     2.0;
    format      ascii;
    class       volScalarField;
    location    "1900";
    object      k;
}
// * * * * * * * * * * * * * * * * * * * * * * * * * * * * * * * * * * * * * //

dimensions      [0 2 -2 0 0 0 0];

internalField   nonuniform List<scalar> 
6820
(
0.257082
0.434211
0.59852
0.709382
0.778145
0.818049
0.838547
0.845896
0.844371
0.836963
0.825767
0.812247
0.797426
0.782015
0.766498
0.751201
0.736336
0.722036
0.708378
0.6954
0.683115
0.671515
0.660583
0.650294
0.640616
0.631518
0.622964
0.614924
0.607339
0.600295
0.593189
0.588696
0.574468
0.811277
1.44613
1.51874
1.38792
1.22323
1.07762
0.95922
0.864569
0.788642
0.727157
0.676842
0.635256
0.600578
0.571431
0.546763
0.525758
0.507776
0.49231
0.478954
0.467377
0.45731
0.448532
0.440859
0.434138
0.428241
0.423059
0.418502
0.414494
0.410968
0.407891
0.405164
0.402958
0.400711
0.368869
0.66416
0.797428
0.829397
0.816589
0.786286
0.750411
0.713991
0.679045
0.646311
0.616001
0.588103
0.562514
0.539088
0.517663
0.498078
0.480173
0.4638
0.44882
0.435107
0.422543
0.411025
0.400456
0.390751
0.381831
0.373626
0.366073
0.359115
0.352701
0.346788
0.341329
0.336304
0.331654
0.240027
0.336287
0.412169
0.460222
0.487105
0.500012
0.504037
0.502508
0.497533
0.490424
0.482012
0.472847
0.463295
0.453611
0.443967
0.434484
0.425242
0.416295
0.407676
0.399404
0.39149
0.383933
0.376731
0.369875
0.363356
0.357161
0.351278
0.345693
0.340393
0.335363
0.330591
0.326066
0.321766
0.214145
0.250649
0.284542
0.31208
0.332947
0.348027
0.358469
0.365345
0.369529
0.371681
0.372296
0.371745
0.370308
0.368203
0.365595
0.362617
0.359369
0.355934
0.352375
0.348743
0.345078
0.341412
0.33777
0.334171
0.330629
0.327158
0.323765
0.320456
0.317237
0.31411
0.311077
0.30814
0.305299
0.20564
0.221937
0.238617
0.25366
0.26644
0.276904
0.285273
0.29185
0.296935
0.300784
0.303614
0.305602
0.306896
0.307616
0.307861
0.307715
0.307247
0.306514
0.305564
0.304439
0.303172
0.301793
0.300325
0.29879
0.297204
0.295583
0.293939
0.292283
0.290623
0.288967
0.287321
0.285691
0.284083
0.202357
0.210378
0.219404
0.228106
0.235957
0.242783
0.248605
0.253515
0.257621
0.261027
0.263824
0.266097
0.267914
0.269339
0.270426
0.271218
0.271758
0.272079
0.272212
0.272183
0.272013
0.271725
0.271333
0.270855
0.270303
0.26969
0.269024
0.268315
0.267572
0.2668
0.266007
0.265198
0.264378
0.201008
0.2051
0.210232
0.215526
0.22054
0.225078
0.229098
0.232622
0.235689
0.238346
0.240635
0.242597
0.244268
0.245681
0.246866
0.247847
0.248648
0.249289
0.249788
0.250162
0.250425
0.25059
0.250668
0.250669
0.250602
0.250476
0.250298
0.250075
0.249811
0.249514
0.249188
0.248837
0.248465
0.200424
0.202508
0.205459
0.208754
0.21204
0.21513
0.217953
0.220495
0.222768
0.224789
0.22658
0.228159
0.229548
0.230765
0.231826
0.232746
0.23354
0.23422
0.234797
0.235281
0.235681
0.236006
0.236263
0.236459
0.2366
0.236691
0.236739
0.236747
0.236719
0.236661
0.236574
0.236463
0.236332
0.200163
0.201193
0.202864
0.204904
0.207067
0.20919
0.211193
0.213044
0.214736
0.216272
0.217659
0.218908
0.220029
0.221031
0.221926
0.222722
0.223428
0.224051
0.224599
0.225079
0.225496
0.225856
0.226165
0.226425
0.226643
0.226822
0.226965
0.227076
0.227158
0.227213
0.227245
0.227255
0.227247
0.200044
0.20052
0.201431
0.202661
0.20406
0.205505
0.206921
0.208268
0.209528
0.210694
0.211766
0.212747
0.213641
0.214454
0.215192
0.215859
0.21646
0.217002
0.217488
0.217924
0.218312
0.218657
0.218963
0.219232
0.219467
0.219672
0.219848
0.219999
0.220126
0.220232
0.220318
0.220387
0.22044
0.199989
0.200177
0.20064
0.201347
0.20222
0.203178
0.204159
0.205125
0.206054
0.206932
0.207754
0.208519
0.209227
0.209879
0.210478
0.211028
0.21153
0.211989
0.212406
0.212786
0.21313
0.213441
0.213722
0.213975
0.214201
0.214404
0.214584
0.214744
0.214885
0.215009
0.215117
0.21521
0.215291
0.199965
0.200004
0.200209
0.200585
0.201099
0.201706
0.202361
0.203034
0.203702
0.204351
0.204971
0.205559
0.206111
0.206627
0.207107
0.207553
0.207966
0.208347
0.208698
0.209021
0.209317
0.209589
0.209837
0.210063
0.21027
0.210457
0.210627
0.210781
0.21092
0.211046
0.211158
0.211259
0.211349
0.199954
0.199918
0.199979
0.20015
0.200426
0.200784
0.201198
0.201645
0.202107
0.20257
0.203025
0.203465
0.203886
0.204286
0.204664
0.205019
0.205352
0.205662
0.205951
0.20622
0.206469
0.2067
0.206913
0.20711
0.207291
0.207458
0.207611
0.207752
0.207881
0.207999
0.208108
0.208206
0.208296
0.199949
0.199877
0.199858
0.199908
0.20003
0.200217
0.200456
0.200733
0.201034
0.201348
0.201667
0.201984
0.202294
0.202594
0.202883
0.203158
0.203419
0.203665
0.203898
0.204116
0.204321
0.204512
0.20469
0.204857
0.205011
0.205155
0.205289
0.205413
0.205528
0.205634
0.205733
0.205824
0.205909
0.199947
0.199857
0.199796
0.199776
0.199803
0.199877
0.199994
0.200145
0.200323
0.20052
0.200729
0.200944
0.20116
0.201375
0.201586
0.201791
0.201988
0.202178
0.202358
0.20253
0.202693
0.202846
0.202991
0.203127
0.203256
0.203376
0.203488
0.203594
0.203693
0.203785
0.203872
0.203953
0.204029
0.199947
0.199847
0.199764
0.199706
0.199676
0.199679
0.199713
0.199776
0.199863
0.19997
0.200092
0.200224
0.200363
0.200506
0.200651
0.200794
0.200936
0.201074
0.201208
0.201337
0.201461
0.201579
0.201692
0.2018
0.201902
0.201999
0.202091
0.202177
0.202259
0.202337
0.20241
0.202479
0.202545
0.199946
0.199843
0.199749
0.199669
0.199608
0.199567
0.199548
0.19955
0.199573
0.199614
0.199669
0.199737
0.199814
0.199898
0.199986
0.200078
0.20017
0.200264
0.200356
0.200447
0.200536
0.200622
0.200705
0.200786
0.200864
0.200938
0.201009
0.201077
0.201142
0.201205
0.201264
0.201321
0.201375
0.199946
0.199841
0.199742
0.199651
0.199571
0.199505
0.199453
0.199417
0.199396
0.199389
0.199396
0.199415
0.199444
0.19948
0.199523
0.199572
0.199624
0.199678
0.199735
0.199792
0.199849
0.199907
0.199964
0.20002
0.200074
0.200128
0.20018
0.20023
0.200279
0.200326
0.200372
0.200417
0.200459
0.199946
0.19984
0.199739
0.199642
0.199553
0.199471
0.1994
0.19934
0.19929
0.199252
0.199225
0.199209
0.199201
0.199202
0.199209
0.199223
0.199242
0.199265
0.199291
0.19932
0.199351
0.199383
0.199416
0.19945
0.199485
0.199519
0.199554
0.199588
0.199622
0.199655
0.199688
0.199721
0.199753
0.199946
0.19984
0.199737
0.199638
0.199543
0.199454
0.199372
0.199297
0.19923
0.199172
0.199122
0.199081
0.199048
0.199022
0.199003
0.198991
0.198984
0.198982
0.198984
0.198989
0.198998
0.19901
0.199023
0.199039
0.199056
0.199074
0.199093
0.199113
0.199134
0.199156
0.199177
0.199199
0.199221
0.199946
0.19984
0.199736
0.199635
0.199538
0.199445
0.199356
0.199273
0.199196
0.199125
0.199061
0.199004
0.198954
0.198911
0.198873
0.198842
0.198817
0.198796
0.19878
0.198768
0.19876
0.198755
0.198753
0.198754
0.198757
0.198763
0.19877
0.198778
0.198788
0.198799
0.198812
0.198825
0.198839
0.199946
0.19984
0.199736
0.199634
0.199536
0.19944
0.199349
0.199261
0.199178
0.1991
0.199028
0.198962
0.198901
0.198846
0.198798
0.198754
0.198716
0.198683
0.198655
0.198631
0.198611
0.198595
0.198583
0.198573
0.198567
0.198562
0.198561
0.198561
0.198563
0.198567
0.198572
0.198578
0.198586
0.199946
0.19984
0.199735
0.199634
0.199534
0.199438
0.199345
0.199255
0.19917
0.199089
0.199013
0.198942
0.198876
0.198816
0.198761
0.198711
0.198667
0.198628
0.198593
0.198563
0.198537
0.198514
0.198496
0.198481
0.198468
0.198459
0.198452
0.198447
0.198445
0.198444
0.198446
0.198448
0.198452
0.199946
0.19984
0.199735
0.199633
0.199534
0.199437
0.199344
0.199254
0.199168
0.199087
0.19901
0.198939
0.198873
0.198812
0.198756
0.198706
0.198661
0.198621
0.198586
0.198554
0.198528
0.198505
0.198485
0.198469
0.198456
0.198446
0.198438
0.198433
0.198429
0.198428
0.198428
0.19843
0.198433
0.199946
0.19984
0.199735
0.199634
0.199534
0.199438
0.199346
0.199257
0.199174
0.199095
0.199022
0.198954
0.198892
0.198836
0.198785
0.19874
0.1987
0.198665
0.198635
0.198609
0.198587
0.198569
0.198554
0.198542
0.198533
0.198527
0.198523
0.198521
0.19852
0.198522
0.198524
0.198529
0.198534
0.199946
0.19984
0.199736
0.199635
0.199537
0.199442
0.199353
0.199269
0.19919
0.199118
0.199053
0.198995
0.198943
0.198898
0.198858
0.198825
0.198797
0.198774
0.198756
0.198741
0.19873
0.198723
0.198718
0.198716
0.198716
0.198718
0.198722
0.198728
0.198734
0.198742
0.19875
0.19876
0.19877
0.199946
0.19984
0.199737
0.199637
0.199542
0.199453
0.19937
0.199295
0.199228
0.19917
0.199121
0.199079
0.199046
0.19902
0.199001
0.198988
0.19898
0.198977
0.198978
0.198982
0.198989
0.198998
0.19901
0.199023
0.199037
0.199052
0.199068
0.199085
0.199102
0.199119
0.199136
0.199153
0.199171
0.199946
0.199841
0.19974
0.199645
0.199557
0.199478
0.19941
0.199354
0.199309
0.199277
0.199255
0.199244
0.199241
0.199247
0.199259
0.199277
0.199299
0.199325
0.199353
0.199384
0.199416
0.199448
0.199481
0.199514
0.199547
0.199579
0.199611
0.199642
0.199672
0.199701
0.199729
0.199756
0.199782
0.199947
0.199844
0.199749
0.199664
0.199592
0.199537
0.199499
0.19948
0.199477
0.199489
0.199515
0.199553
0.199599
0.199652
0.19971
0.199772
0.199836
0.199901
0.199965
0.20003
0.200092
0.200154
0.200213
0.20027
0.200324
0.200376
0.200426
0.200473
0.200518
0.20056
0.200599
0.200637
0.200672
0.199948
0.199852
0.19977
0.199711
0.199677
0.199673
0.199697
0.199746
0.199818
0.199907
0.20001
0.200122
0.200239
0.20036
0.20048
0.2006
0.200717
0.20083
0.200939
0.201043
0.201141
0.201234
0.201322
0.201405
0.201482
0.201554
0.201622
0.201685
0.201743
0.201797
0.201848
0.201894
0.201937
0.199951
0.199872
0.199828
0.199831
0.199884
0.199985
0.200128
0.200302
0.200499
0.20071
0.200928
0.201146
0.201361
0.201569
0.201768
0.201958
0.202136
0.202304
0.20246
0.202605
0.20274
0.202865
0.20298
0.203087
0.203184
0.203274
0.203356
0.203431
0.2035
0.203562
0.203619
0.203671
0.203718
0.19996
0.199932
0.199988
0.200141
0.200383
0.200695
0.201055
0.20144
0.201833
0.202222
0.202597
0.202954
0.203288
0.203598
0.203885
0.204149
0.20439
0.204611
0.204811
0.204994
0.205159
0.205309
0.205445
0.205567
0.205677
0.205777
0.205866
0.205946
0.206017
0.20608
0.206137
0.206186
0.20623
0.19999
0.200113
0.200438
0.200945
0.201582
0.202288
0.203012
0.20372
0.20439
0.205011
0.205578
0.206091
0.206552
0.206965
0.207333
0.207661
0.207953
0.208212
0.208442
0.208646
0.208826
0.208985
0.209126
0.209249
0.209357
0.209451
0.209533
0.209603
0.209664
0.209715
0.209757
0.209792
0.20982
0.200097
0.200698
0.201729
0.20303
0.20443
0.205804
0.207078
0.208222
0.209229
0.210107
0.210866
0.211521
0.212084
0.212568
0.212984
0.213341
0.213647
0.21391
0.214135
0.214327
0.21449
0.214628
0.214743
0.214839
0.214917
0.214979
0.215028
0.215064
0.215089
0.215104
0.215111
0.215109
0.2151
0.200521
0.202675
0.205525
0.20847
0.211189
0.21355
0.215527
0.217152
0.218476
0.219552
0.220424
0.221131
0.221704
0.222168
0.222543
0.222845
0.223086
0.223277
0.223425
0.223537
0.223617
0.223671
0.223702
0.223713
0.223707
0.223684
0.223649
0.223601
0.223542
0.223475
0.223398
0.223315
0.223225
0.202177
0.209422
0.217079
0.223316
0.228003
0.231437
0.233925
0.235719
0.23701
0.237936
0.238593
0.239054
0.239367
0.239569
0.239685
0.239733
0.239727
0.239676
0.239588
0.239469
0.239324
0.239157
0.238971
0.238768
0.23855
0.23832
0.23808
0.23783
0.237573
0.237308
0.237039
0.236764
0.236486
0.208503
0.227596
0.245316
0.25869
0.267554
0.272837
0.275658
0.27695
0.277338
0.277195
0.276744
0.276116
0.275385
0.274596
0.273774
0.272932
0.27208
0.271221
0.270359
0.269495
0.268631
0.267768
0.266908
0.266051
0.265198
0.264351
0.263511
0.262678
0.261853
0.261037
0.260232
0.259437
0.258653
0.248308
0.315061
0.34816
0.362157
0.367118
0.367958
0.366701
0.364185
0.360865
0.357053
0.352965
0.348753
0.344525
0.340356
0.336297
0.332383
0.328633
0.32506
0.321669
0.318461
0.315432
0.312577
0.309891
0.307366
0.304994
0.302768
0.30068
0.298722
0.296886
0.295167
0.293555
0.292046
0.290632
0.205354
0.221127
0.238043
0.254121
0.268995
0.282971
0.296258
0.308938
0.321054
0.332632
0.343696
0.354264
0.36435
0.373971
0.38314
0.391874
0.400187
0.408094
0.415611
0.422753
0.429535
0.435971
0.442078
0.447869
0.453358
0.45856
0.463488
0.468156
0.472575
0.476758
0.480716
0.484461
0.488009
0.618299
0.69443
0.816662
0.96613
1.1313
1.29982
1.46295
1.61359
1.74591
1.85588
1.94197
2.00524
2.04868
2.07631
2.09225
2.10005
2.10242
2.10118
2.09745
2.09187
2.0848
2.07648
2.06712
2.05689
2.04594
2.03438
2.02226
2.00956
1.99623
1.98215
1.9672
1.95122
1.93406
1.91555
1.89553
1.87387
1.85042
1.82509
1.79779
1.76847
1.7371
1.7037
1.66832
1.63105
1.59202
1.55139
1.50938
1.46622
1.4222
1.37763
1.33283
1.28814
1.24394
1.20056
1.15835
1.11765
1.07876
1.04195
1.00746
0.975483
0.946177
0.919649
0.895965
0.87515
0.857191
0.842044
0.829633
0.819859
0.812605
0.807738
0.805113
0.804577
0.805972
0.809131
0.813887
0.820064
0.827485
0.83597
0.845336
0.855398
0.865974
0.876882
0.887947
0.898999
0.909878
0.920434
0.930529
0.940037
0.948847
0.95686
0.963991
0.970167
0.975332
0.97943
0.982446
0.984313
0.985135
0.984658
0.983695
0.980434
0.399207
0.404198
0.417507
0.441622
0.477222
0.524783
0.5842
0.654778
0.735204
0.823619
0.917638
1.01443
1.11089
1.20388
1.29056
1.36867
1.43672
1.49408
1.5409
1.57792
1.60627
1.62718
1.64185
1.65134
1.6565
1.65803
1.65644
1.65214
1.64543
1.63653
1.6256
1.61275
1.59804
1.58153
1.56322
1.54313
1.52126
1.49763
1.47225
1.44516
1.41641
1.38608
1.35427
1.32111
1.28676
1.2514
1.21524
1.17853
1.14151
1.10445
1.06763
1.03134
0.995868
0.96148
0.928439
0.896982
0.867324
0.839649
0.814108
0.79082
0.769869
0.751306
0.735152
0.721397
0.710008
0.700931
0.694092
0.689406
0.686774
0.68609
0.687243
0.690117
0.694591
0.700542
0.70784
0.716354
0.725945
0.736471
0.747783
0.759729
0.772156
0.784907
0.797825
0.810759
0.823559
0.836084
0.848199
0.859782
0.870717
0.880903
0.890248
0.898672
0.906109
0.912497
0.91781
0.921977
0.925081
0.926895
0.928051
0.927838
0.326708
0.321613
0.317088
0.313616
0.31192
0.312761
0.316667
0.324284
0.336493
0.354172
0.378147
0.409097
0.447424
0.493122
0.545663
0.603947
0.666349
0.730854
0.79528
0.857523
0.915782
0.968704
1.01545
1.05566
1.08937
1.11689
1.13867
1.15525
1.16716
1.17488
1.17884
1.17941
1.17689
1.17155
1.16361
1.15327
1.14069
1.12604
1.10945
1.09107
1.07104
1.04953
1.02668
1.00268
0.9777
0.951946
0.925626
0.898959
0.872172
0.845497
0.819163
0.793398
0.768418
0.74443
0.721621
0.700158
0.680188
0.66183
0.645183
0.630315
0.617275
0.606086
0.596753
0.589261
0.58358
0.579667
0.57747
0.576929
0.577978
0.580545
0.584558
0.589941
0.596614
0.604496
0.613498
0.62353
0.634492
0.646279
0.658779
0.671873
0.685435
0.699334
0.713438
0.727611
0.741718
0.755627
0.76921
0.782346
0.794919
0.806824
0.817964
0.82825
0.83761
0.845971
0.853295
0.859507
0.864668
0.868574
0.871678
0.874308
0.317034
0.311838
0.306763
0.301844
0.297174
0.292876
0.289096
0.285976
0.283653
0.282369
0.282429
0.284203
0.288113
0.294624
0.304206
0.317292
0.334217
0.355153
0.380048
0.408591
0.440205
0.47408
0.509242
0.544646
0.579277
0.612233
0.642781
0.670386
0.694711
0.715588
0.732987
0.746976
0.757691
0.765305
0.770011
0.772009
0.771499
0.768676
0.763735
0.756862
0.748245
0.73807
0.726523
0.713795
0.700075
0.685559
0.670443
0.654921
0.639191
0.623444
0.607866
0.592634
0.577916
0.563865
0.55062
0.538302
0.527016
0.516848
0.507867
0.500123
0.493653
0.488477
0.484603
0.482028
0.480739
0.480718
0.481937
0.484367
0.487976
0.492726
0.498582
0.505504
0.513449
0.522372
0.532223
0.542946
0.554478
0.566749
0.579679
0.59318
0.607156
0.621502
0.636107
0.650855
0.665628
0.680304
0.694764
0.70889
0.722567
0.735688
0.748152
0.759864
0.770741
0.780703
0.789699
0.797648
0.804588
0.810338
0.815175
0.820381
0.302101
0.298521
0.294967
0.291428
0.287905
0.284416
0.280994
0.277677
0.274506
0.271525
0.268797
0.2664
0.26443
0.263008
0.262279
0.262414
0.263601
0.266042
0.269938
0.275466
0.282762
0.291898
0.302858
0.31553
0.329703
0.345076
0.361278
0.377894
0.394496
0.410675
0.426058
0.440335
0.453257
0.464646
0.474386
0.482421
0.48874
0.493372
0.496376
0.497837
0.497856
0.496551
0.494049
0.490485
0.486001
0.480744
0.474861
0.468501
0.461812
0.454939
0.448019
0.441186
0.434563
0.428265
0.422394
0.417042
0.41229
0.408204
0.404842
0.402249
0.40046
0.399501
0.399391
0.400142
0.401757
0.404239
0.407586
0.411791
0.416848
0.422749
0.429483
0.43704
0.445405
0.454563
0.464491
0.475164
0.486548
0.498601
0.511275
0.524509
0.538234
0.55237
0.566831
0.581519
0.596334
0.611168
0.625912
0.640454
0.654685
0.668496
0.681783
0.694447
0.706399
0.717549
0.727835
0.737168
0.745566
0.752865
0.75918
0.766635
0.282232
0.280117
0.277974
0.275797
0.273576
0.271314
0.269021
0.26671
0.264397
0.262099
0.259835
0.257625
0.255493
0.253469
0.251589
0.249897
0.248444
0.247292
0.246513
0.246184
0.246387
0.247202
0.248705
0.250954
0.25399
0.257823
0.262432
0.267761
0.273719
0.280186
0.287017
0.294052
0.301123
0.308068
0.314735
0.320989
0.326717
0.331832
0.336272
0.339999
0.342999
0.345281
0.346869
0.347806
0.348148
0.347959
0.347314
0.346294
0.344983
0.343467
0.34183
0.340158
0.338531
0.337026
0.335713
0.334658
0.33392
0.333551
0.333597
0.334097
0.335084
0.336588
0.33863
0.341231
0.344405
0.348167
0.352526
0.357492
0.363073
0.369279
0.376114
0.383587
0.391702
0.400461
0.409865
0.419908
0.430579
0.441861
0.453729
0.466147
0.47907
0.492443
0.506202
0.520272
0.534569
0.549002
0.563477
0.57789
0.592139
0.606119
0.619727
0.632861
0.645426
0.657328
0.668494
0.678828
0.688326
0.696845
0.704347
0.713673
0.26341
0.262273
0.261093
0.259864
0.258581
0.257242
0.255849
0.254408
0.252928
0.251417
0.249884
0.248337
0.246785
0.245239
0.243708
0.242205
0.240745
0.239346
0.238031
0.236823
0.235754
0.234856
0.234164
0.233714
0.233541
0.233677
0.234146
0.234967
0.236145
0.237676
0.23954
0.241708
0.244136
0.246774
0.249562
0.252439
0.255341
0.258208
0.260984
0.263622
0.266082
0.268336
0.270365
0.272162
0.273729
0.275078
0.276228
0.277207
0.278048
0.278789
0.279469
0.280132
0.280821
0.281579
0.282447
0.283467
0.284677
0.28611
0.287801
0.289777
0.292065
0.294689
0.29767
0.301026
0.304774
0.308931
0.31351
0.318527
0.323996
0.329931
0.336349
0.343263
0.35069
0.358642
0.367132
0.376169
0.385759
0.395901
0.406589
0.417807
0.429533
0.441734
0.454365
0.467375
0.480699
0.494266
0.507994
0.521797
0.53558
0.549247
0.562699
0.575836
0.588561
0.600778
0.612404
0.623342
0.633566
0.642949
0.651324
0.662104
0.248007
0.247449
0.246849
0.246204
0.245509
0.244761
0.243961
0.243112
0.242218
0.241282
0.240312
0.23931
0.238283
0.237235
0.23617
0.235093
0.234008
0.232923
0.231844
0.230779
0.22974
0.228739
0.22779
0.226908
0.226113
0.225421
0.22485
0.224419
0.224141
0.22403
0.224094
0.224336
0.224756
0.225348
0.2261
0.226999
0.228025
0.229158
0.230376
0.231655
0.232976
0.234318
0.235666
0.237009
0.238336
0.239647
0.24094
0.242222
0.243502
0.244792
0.246108
0.247469
0.248895
0.250405
0.252022
0.253768
0.255664
0.25773
0.259986
0.26245
0.265139
0.268069
0.271255
0.27471
0.278449
0.282484
0.286829
0.291497
0.296503
0.301862
0.307592
0.31371
0.320235
0.327185
0.334579
0.342434
0.350766
0.359587
0.368902
0.378714
0.389017
0.399796
0.411029
0.422681
0.43471
0.447064
0.459678
0.472483
0.485399
0.49834
0.511216
0.523934
0.536399
0.548515
0.560197
0.571345
0.581918
0.591802
0.600725
0.612517
0.236153
0.235917
0.235646
0.235338
0.234989
0.234597
0.234161
0.233682
0.233162
0.232604
0.232011
0.231386
0.230732
0.230053
0.22935
0.228627
0.227884
0.227126
0.226354
0.225573
0.224785
0.223996
0.223212
0.22244
0.221688
0.220964
0.22028
0.219645
0.21907
0.218566
0.218142
0.217807
0.217569
0.217433
0.217404
0.217481
0.217666
0.217955
0.218345
0.218831
0.219407
0.220066
0.220805
0.221617
0.222498
0.223447
0.224462
0.225545
0.226698
0.227926
0.229236
0.230635
0.232133
0.233738
0.235461
0.237314
0.239306
0.241449
0.243752
0.246226
0.248879
0.251722
0.254761
0.258006
0.261464
0.265146
0.269059
0.273215
0.277626
0.282305
0.287267
0.292529
0.298109
0.304028
0.310305
0.316961
0.324017
0.331491
0.3394
0.347755
0.356563
0.365827
0.375538
0.385682
0.396234
0.407161
0.418419
0.429954
0.441705
0.4536
0.465562
0.477507
0.489349
0.500996
0.512365
0.523356
0.533917
0.54395
0.553097
0.565455
0.227215
0.227153
0.227063
0.226944
0.226793
0.226608
0.226388
0.226134
0.225845
0.225525
0.225174
0.224794
0.224389
0.223961
0.22351
0.223039
0.222549
0.222042
0.221519
0.220981
0.220431
0.21987
0.219301
0.218727
0.218152
0.217582
0.21702
0.216473
0.215947
0.21545
0.214989
0.21457
0.214202
0.213891
0.213643
0.213464
0.213359
0.213332
0.213387
0.213526
0.21375
0.214062
0.214461
0.21495
0.215528
0.216197
0.216959
0.217816
0.21877
0.219824
0.220982
0.222248
0.223627
0.225125
0.226745
0.228494
0.230376
0.232395
0.234558
0.236867
0.239326
0.24194
0.244711
0.247643
0.250741
0.254008
0.257451
0.261076
0.264891
0.268906
0.273135
0.27759
0.282288
0.287248
0.292488
0.298031
0.303898
0.31011
0.316688
0.323652
0.331016
0.338793
0.346988
0.355602
0.364624
0.37404
0.383822
0.393936
0.404338
0.414973
0.425778
0.436685
0.447617
0.458493
0.469234
0.479746
0.489972
0.499827
0.508898
0.521388
0.220482
0.220511
0.220518
0.220503
0.220463
0.220398
0.220305
0.220184
0.220037
0.219863
0.219665
0.219444
0.219201
0.218938
0.218656
0.218358
0.218044
0.217715
0.217372
0.217017
0.21665
0.216272
0.215885
0.21549
0.21509
0.214687
0.214284
0.213884
0.213491
0.213109
0.212745
0.212402
0.212086
0.211803
0.21156
0.211361
0.211213
0.211121
0.211091
0.211126
0.211233
0.211416
0.211678
0.212024
0.212456
0.212979
0.213597
0.214312
0.215128
0.216048
0.217075
0.218213
0.219465
0.220834
0.222323
0.223933
0.225667
0.227527
0.229513
0.231625
0.233865
0.236232
0.238726
0.241347
0.244096
0.246973
0.249982
0.253124
0.256406
0.259833
0.263416
0.267164
0.271092
0.275214
0.279549
0.284115
0.288934
0.294027
0.299417
0.305126
0.311174
0.317579
0.324355
0.331513
0.339056
0.346981
0.355279
0.363931
0.372907
0.382172
0.391681
0.401377
0.411201
0.421082
0.430951
0.440725
0.450344
0.459739
0.468465
0.480692
0.215369
0.215443
0.2155
0.215541
0.215562
0.215564
0.215545
0.215504
0.215442
0.21536
0.215257
0.215136
0.214998
0.214845
0.214676
0.214495
0.214301
0.214096
0.21388
0.213655
0.213422
0.21318
0.212932
0.212678
0.212419
0.212157
0.211894
0.211632
0.211373
0.211121
0.210878
0.210649
0.210438
0.210249
0.210086
0.209956
0.209862
0.209811
0.209808
0.209858
0.209966
0.210138
0.210379
0.210693
0.211086
0.211562
0.212125
0.21278
0.213531
0.214381
0.215333
0.21639
0.217555
0.218829
0.220214
0.221711
0.22332
0.225041
0.226872
0.228812
0.230858
0.233008
0.23526
0.237611
0.240059
0.242603
0.245241
0.247974
0.250805
0.253738
0.256778
0.259933
0.263213
0.266632
0.270204
0.273945
0.277875
0.282014
0.286383
0.291005
0.295903
0.301096
0.306604
0.312443
0.318627
0.325161
0.332048
0.339283
0.346851
0.354731
0.362894
0.371301
0.379905
0.388653
0.397485
0.406332
0.415136
0.423844
0.432004
0.443626
0.211442
0.211535
0.211616
0.211684
0.211738
0.211777
0.2118
0.211806
0.211795
0.211769
0.211727
0.21167
0.211601
0.211519
0.211426
0.211323
0.211211
0.211091
0.210964
0.210832
0.210694
0.210551
0.210405
0.210256
0.210105
0.209953
0.209802
0.209654
0.209509
0.209371
0.209241
0.209123
0.20902
0.208934
0.208871
0.208833
0.208826
0.208854
0.208922
0.209035
0.209197
0.209415
0.209693
0.210036
0.21045
0.210938
0.211506
0.212157
0.212896
0.213726
0.214651
0.215672
0.216792
0.218012
0.219333
0.220754
0.222274
0.223891
0.225604
0.227408
0.2293
0.231277
0.233333
0.235464
0.237666
0.239937
0.242272
0.244671
0.247133
0.24966
0.252256
0.254925
0.257675
0.260516
0.26346
0.266521
0.269715
0.27306
0.276576
0.280284
0.284205
0.288362
0.292775
0.297463
0.302445
0.307733
0.313337
0.319262
0.325506
0.33206
0.338908
0.346025
0.353381
0.360935
0.368642
0.376446
0.384297
0.392154
0.399582
0.410326
0.208391
0.20849
0.20858
0.208659
0.208728
0.208786
0.208831
0.208864
0.208884
0.208891
0.208887
0.208872
0.208846
0.208811
0.208769
0.208719
0.208663
0.208602
0.208538
0.20847
0.2084
0.208329
0.208257
0.208185
0.208115
0.208047
0.207983
0.207923
0.20787
0.207825
0.20779
0.207767
0.207759
0.207768
0.207799
0.207853
0.207936
0.208051
0.208201
0.208392
0.208629
0.208915
0.209255
0.209655
0.210118
0.21065
0.211254
0.211935
0.212695
0.21354
0.21447
0.215488
0.216596
0.217793
0.219081
0.220457
0.221921
0.223468
0.225097
0.226801
0.228578
0.23042
0.232323
0.234281
0.236289
0.238341
0.240434
0.242564
0.244729
0.246929
0.249166
0.251442
0.253763
0.256136
0.258571
0.261078
0.263672
0.266367
0.269183
0.272136
0.275248
0.278538
0.282029
0.285739
0.289689
0.293895
0.298372
0.303131
0.308178
0.313513
0.319132
0.325022
0.331165
0.337534
0.344097
0.350812
0.357637
0.364546
0.371134
0.380804
0.205999
0.206095
0.206184
0.206266
0.20634
0.206405
0.206461
0.206508
0.206545
0.206573
0.206592
0.206602
0.206605
0.206601
0.206592
0.206578
0.206561
0.206541
0.20652
0.206498
0.206476
0.206456
0.206438
0.206424
0.206413
0.206408
0.206409
0.206418
0.206436
0.206464
0.206505
0.206559
0.206631
0.206721
0.206833
0.20697
0.207134
0.20733
0.20756
0.207829
0.208141
0.2085
0.20891
0.209376
0.2099
0.210488
0.211143
0.211869
0.212669
0.213546
0.214501
0.215536
0.216652
0.217849
0.219126
0.220481
0.221913
0.223416
0.224987
0.226621
0.228311
0.230053
0.231838
0.233662
0.235516
0.237396
0.239295
0.241211
0.243139
0.245077
0.247026
0.248986
0.250962
0.252958
0.254982
0.257043
0.259152
0.261322
0.263568
0.265906
0.268355
0.270934
0.273661
0.276556
0.279639
0.282929
0.286441
0.29019
0.294188
0.298441
0.302952
0.307719
0.312732
0.317977
0.323433
0.329071
0.334858
0.34078
0.346475
0.354952
0.204111
0.204199
0.204283
0.204361
0.204433
0.2045
0.204559
0.204612
0.204657
0.204696
0.204728
0.204755
0.204776
0.204792
0.204805
0.204815
0.204824
0.204832
0.204841
0.204852
0.204865
0.204881
0.204902
0.204929
0.204963
0.205004
0.205055
0.205115
0.205188
0.205273
0.205373
0.20549
0.205625
0.205782
0.205961
0.206167
0.206401
0.206667
0.206969
0.207309
0.20769
0.208118
0.208595
0.209125
0.209711
0.210358
0.211068
0.211845
0.21269
0.213606
0.214595
0.215657
0.216793
0.218002
0.219282
0.220631
0.222046
0.223522
0.225055
0.226639
0.228266
0.229931
0.231626
0.233345
0.235078
0.236821
0.238567
0.240311
0.242048
0.243777
0.245494
0.247201
0.2489
0.250593
0.252287
0.253989
0.255708
0.257454
0.259241
0.261083
0.262995
0.264994
0.267097
0.269324
0.271691
0.274218
0.27692
0.279815
0.282915
0.286232
0.289774
0.293543
0.297539
0.301756
0.306182
0.310799
0.315584
0.320531
0.325328
0.332566
0.202616
0.202694
0.202769
0.20284
0.202907
0.20297
0.203028
0.203082
0.20313
0.203174
0.203214
0.203249
0.203281
0.20331
0.203337
0.203363
0.20339
0.203417
0.203447
0.20348
0.203517
0.20356
0.203609
0.203666
0.203732
0.203808
0.203895
0.203994
0.204108
0.204237
0.204383
0.204548
0.204734
0.204943
0.205177
0.205438
0.20573
0.206055
0.206417
0.206817
0.207259
0.207747
0.208283
0.208872
0.209515
0.210217
0.210979
0.211804
0.212694
0.213651
0.214676
0.215768
0.216928
0.218153
0.219443
0.220793
0.222201
0.22366
0.225167
0.226713
0.228293
0.229899
0.231524
0.233158
0.234796
0.236429
0.238051
0.239656
0.24124
0.242798
0.244329
0.245832
0.247307
0.248757
0.250186
0.251599
0.253004
0.254411
0.255829
0.257271
0.25875
0.260282
0.26188
0.263563
0.265346
0.267246
0.26928
0.271463
0.273811
0.276335
0.279046
0.281952
0.285057
0.288361
0.291859
0.295542
0.299395
0.303418
0.307352
0.313365
0.201435
0.201501
0.201565
0.201627
0.201687
0.201744
0.201798
0.201849
0.201897
0.201942
0.201984
0.202023
0.202061
0.202097
0.202134
0.20217
0.202208
0.202248
0.202292
0.202341
0.202395
0.202456
0.202525
0.202604
0.202693
0.202793
0.202907
0.203035
0.203179
0.203341
0.203522
0.203724
0.203948
0.204198
0.204474
0.20478
0.205118
0.205491
0.2059
0.20635
0.206842
0.20738
0.207967
0.208605
0.209297
0.210046
0.210854
0.211722
0.212652
0.213646
0.214703
0.215823
0.217005
0.218247
0.219547
0.220901
0.222305
0.223753
0.225239
0.226757
0.228298
0.229856
0.231422
0.232988
0.234546
0.236089
0.23761
0.239101
0.240559
0.241979
0.243358
0.244694
0.245988
0.247241
0.248455
0.249636
0.25079
0.251923
0.253045
0.254166
0.255299
0.256454
0.257647
0.258891
0.260201
0.261592
0.26308
0.264679
0.266404
0.268268
0.270282
0.272456
0.274797
0.27731
0.279994
0.282846
0.28586
0.289036
0.292168
0.297018
0.200507
0.200561
0.200614
0.200666
0.200717
0.200767
0.200815
0.200861
0.200906
0.20095
0.200991
0.201032
0.201072
0.201113
0.201154
0.201196
0.201242
0.20129
0.201343
0.201402
0.201468
0.201541
0.201624
0.201717
0.201822
0.20194
0.202073
0.202222
0.202388
0.202573
0.202779
0.203008
0.203261
0.203541
0.20385
0.20419
0.204563
0.204972
0.205419
0.205907
0.206439
0.207017
0.207643
0.208321
0.209052
0.209839
0.210683
0.211587
0.212549
0.213573
0.214656
0.215798
0.216998
0.218254
0.219561
0.220917
0.222316
0.223752
0.22522
0.226711
0.228218
0.229734
0.23125
0.232757
0.234247
0.235713
0.237148
0.238544
0.239897
0.241201
0.242454
0.243653
0.244799
0.24589
0.246931
0.247924
0.248873
0.249787
0.250671
0.251535
0.252389
0.253244
0.254111
0.255003
0.255933
0.256914
0.25796
0.259085
0.260302
0.261623
0.26306
0.264624
0.266323
0.268163
0.270149
0.27228
0.274555
0.276976
0.279386
0.283167
0.199789
0.199831
0.199873
0.199915
0.199957
0.199998
0.20004
0.200081
0.200121
0.200161
0.200201
0.200241
0.200282
0.200324
0.200367
0.200413
0.200462
0.200515
0.200574
0.200639
0.200712
0.200793
0.200885
0.200988
0.201103
0.201233
0.201378
0.20154
0.201721
0.201923
0.202146
0.202394
0.202667
0.202969
0.2033
0.203664
0.204062
0.204498
0.204972
0.205488
0.206049
0.206656
0.207312
0.208019
0.208779
0.209594
0.210465
0.211394
0.21238
0.213424
0.214525
0.215682
0.216893
0.218155
0.219464
0.220816
0.222207
0.223628
0.225075
0.226539
0.228013
0.229489
0.230957
0.23241
0.23384
0.235237
0.236596
0.23791
0.239172
0.240378
0.241524